/*--------------------------------*- C++ -*----------------------------------*\
| =========                 |                                                 |
| \\      /  F ield         | OpenFOAM: The Open Source CFD Toolbox           |
|  \\    /   O peration     | Version:  v1912                                 |
|   \\  /    A nd           | Website:  www.openfoam.com                      |
|    \\/     M anipulation  |                                                 |
\*---------------------------------------------------------------------------*/
FoamFile
{
    version     2.0;
    format      ascii;
    class       volVectorField;
    location    "0.8/fluid";
    object      cellMotionU;
}
// * * * * * * * * * * * * * * * * * * * * * * * * * * * * * * * * * * * * * //

dimensions      [0 1 -1 0 0 0 0];


internalField   nonuniform List<vector> 
14592
(
(1.2383e-10 -2.89882e-10 2.21492e-10)
(3.46002e-10 -8.10406e-10 6.27078e-10)
(5.52453e-10 -1.29389e-09 1.02653e-09)
(7.51652e-10 -1.75712e-09 1.44636e-09)
(9.5256e-10 -2.21206e-09 1.91185e-09)
(1.16353e-09 -2.66323e-09 2.44613e-09)
(1.39452e-09 -3.10732e-09 3.07232e-09)
(1.65854e-09 -3.52995e-09 3.81379e-09)
(1.97447e-09 -3.89953e-09 4.69444e-09)
(2.37325e-09 -4.15663e-09 5.73954e-09)
(2.91236e-09 -4.19134e-09 6.9798e-09)
(3.71181e-09 -3.79159e-09 8.4681e-09)
(5.0438e-09 -2.50536e-09 1.03379e-08)
(7.58571e-09 7.72364e-10 1.29935e-08)
(1.28571e-08 8.73958e-09 1.7489e-08)
(2.18757e-08 2.43039e-08 2.44966e-08)
(3.68174e-10 -8.60768e-10 6.58402e-10)
(1.02877e-09 -2.40675e-09 1.86404e-09)
(1.64181e-09 -3.84349e-09 3.05033e-09)
(2.23343e-09 -5.22247e-09 4.29743e-09)
(2.82771e-09 -6.57798e-09 5.67751e-09)
(3.44996e-09 -7.92644e-09 7.25992e-09)
(4.12869e-09 -9.26124e-09 9.11251e-09)
(4.89975e-09 -1.05447e-08 1.13029e-08)
(5.81334e-09 -1.16934e-08 1.38989e-08)
(6.94672e-09 -1.25522e-08 1.6967e-08)
(8.43173e-09 -1.2849e-08 2.05738e-08)
(1.05067e-08 -1.21176e-08 2.47949e-08)
(1.36367e-08 -9.55422e-09 2.97591e-08)
(1.86392e-08 -3.85285e-09 3.57071e-08)
(2.65611e-08 6.59346e-09 4.29312e-08)
(3.61296e-08 2.00896e-08 5.02707e-08)
(6.03311e-10 -1.40631e-09 1.07864e-09)
(1.68532e-09 -3.93326e-09 3.05313e-09)
(2.68864e-09 -6.28552e-09 4.99504e-09)
(3.65395e-09 -8.54815e-09 7.03337e-09)
(4.62058e-09 -1.07819e-08 9.28639e-09)
(5.62808e-09 -1.3019e-08 1.18662e-08)
(6.72028e-09 -1.52585e-08 1.48829e-08)
(7.95032e-09 -1.74556e-08 1.8446e-08)
(9.38762e-09 -1.95034e-08 2.26638e-08)
(1.11301e-08 -2.12033e-08 2.76386e-08)
(1.33248e-08 -2.22213e-08 3.34585e-08)
(1.62063e-08 -2.20322e-08 4.01885e-08)
(2.01587e-08 -1.98808e-08 4.78707e-08)
(2.57591e-08 -1.48928e-08 5.65345e-08)
(3.3578e-08 -6.75466e-09 6.61531e-08)
(4.22928e-08 1.80653e-09 7.54932e-08)
(8.23503e-10 -1.90933e-09 1.47185e-09)
(2.2996e-09 -5.34251e-09 4.16509e-09)
(3.66587e-09 -8.54464e-09 6.81092e-09)
(4.9764e-09 -1.16363e-08 9.58377e-09)
(6.28209e-09 -1.47054e-08 1.26421e-08)
(7.63459e-09 -1.7807e-08 1.61373e-08)
(9.08947e-09 -2.0957e-08 2.02174e-08)
(1.0711e-08 -2.41232e-08 2.50305e-08)
(1.25775e-08 -2.72084e-08 3.07227e-08)
(1.47881e-08 -3.00245e-08 3.7431e-08)
(1.74684e-08 -3.22564e-08 4.52657e-08)
(2.07794e-08 -3.34242e-08 5.42833e-08)
(2.49228e-08 -3.28802e-08 6.44449e-08)
(3.01124e-08 -2.99468e-08 7.55536e-08)
(3.64332e-08 -2.44622e-08 8.71169e-08)
(4.27658e-08 -1.84143e-08 9.72165e-08)
(1.02378e-09 -2.35276e-09 1.82901e-09)
(2.85775e-09 -6.58673e-09 5.17426e-09)
(4.55125e-09 -1.05453e-08 8.45559e-09)
(6.16845e-09 -1.43832e-08 1.1886e-08)
(7.77026e-09 -1.8219e-08 1.56593e-08)
(9.41697e-09 -2.21346e-08 1.99596e-08)
(1.11724e-08 -2.61732e-08 2.49677e-08)
(1.31079e-08 -3.03328e-08 3.08649e-08)
(1.53061e-08 -3.45551e-08 3.78324e-08)
(1.78626e-08 -3.87062e-08 4.60442e-08)
(2.08811e-08 -4.25487e-08 5.56468e-08)
(2.44614e-08 -4.57039e-08 6.67237e-08)
(2.86679e-08 -4.7607e-08 7.92276e-08)
(3.34579e-08 -4.74829e-08 9.28467e-08)
(3.85869e-08 -4.45045e-08 1.06702e-07)
(4.3118e-08 -3.92329e-08 1.18027e-07)
(1.20051e-09 -2.72019e-09 2.14317e-09)
(3.34891e-09 -7.61948e-09 6.06024e-09)
(5.32683e-09 -1.22121e-08 9.89459e-09)
(7.20621e-09 -1.66857e-08 1.3891e-08)
(9.05401e-09 -2.1188e-08 1.82705e-08)
(1.09366e-08 -2.58312e-08 2.32429e-08)
(1.29231e-08 -3.06916e-08 2.90139e-08)
(1.50894e-08 -3.58088e-08 3.57908e-08)
(1.7522e-08 -4.11819e-08 4.37843e-08)
(2.03193e-08 -4.67612e-08 5.32048e-08)
(2.35864e-08 -5.24333e-08 6.42484e-08)
(2.74247e-08 -5.79898e-08 7.70704e-08)
(3.19096e-08 -6.30516e-08 9.17371e-08)
(3.70059e-08 -6.68638e-08 1.08061e-07)
(4.24319e-08 -6.79147e-08 1.25145e-07)
(4.70301e-08 -6.45794e-08 1.39353e-07)
(1.35078e-09 -2.99605e-09 2.40907e-09)
(3.76559e-09 -8.39716e-09 6.8086e-09)
(5.98107e-09 -1.34744e-08 1.11044e-08)
(8.07317e-09 -1.84432e-08 1.5564e-08)
(1.01127e-08 -2.34788e-08 2.04283e-08)
(1.21686e-08 -2.87216e-08 2.59234e-08)
(1.43119e-08 -3.42813e-08 3.22705e-08)
(1.66207e-08 -4.02409e-08 3.96921e-08)
(1.91842e-08 -4.6661e-08 4.84167e-08)
(2.21085e-08 -5.35836e-08 5.86805e-08)
(2.55178e-08 -6.10385e-08 7.07219e-08)
(2.9577e-08 -6.90533e-08 8.47945e-08)
(3.44968e-08 -7.76304e-08 1.01145e-07)
(4.05593e-08 -8.66287e-08 1.19961e-07)
(4.79884e-08 -9.52448e-08 1.40881e-07)
(5.54589e-08 -1.00637e-07 1.59811e-07)
(1.47332e-09 -3.16693e-09 2.62408e-09)
(4.10394e-09 -8.88192e-09 7.41172e-09)
(6.50801e-09 -1.42696e-08 1.20726e-08)
(8.7627e-09 -1.95673e-08 1.68885e-08)
(1.09386e-08 -2.49712e-08 2.21103e-08)
(1.31042e-08 -3.06448e-08 2.79714e-08)
(1.53288e-08 -3.67252e-08 3.4697e-08)
(1.76881e-08 -4.33308e-08 4.25113e-08)
(2.02694e-08 -5.057e-08 5.16426e-08)
(2.31787e-08 -5.85531e-08 6.23269e-08)
(2.65548e-08 -6.74164e-08 7.48159e-08)
(3.05959e-08 -7.73609e-08 8.93951e-08)
(3.56297e-08 -8.87332e-08 1.06438e-07)
(4.22371e-08 -1.02142e-07 1.26479e-07)
(5.13927e-08 -1.18435e-07 1.50075e-07)
(6.25519e-08 -1.35918e-07 1.74058e-07)
(1.25396e-10 -2.96528e-10 2.10356e-10)
(3.5031e-10 -8.29093e-10 5.95354e-10)
(5.58833e-10 -1.32408e-09 9.73561e-10)
(7.59592e-10 -1.79913e-09 1.37019e-09)
(9.60688e-10 -2.26639e-09 1.80787e-09)
(1.17017e-09 -2.73145e-09 2.3079e-09)
(1.39688e-09 -3.19198e-09 2.89051e-09)
(1.65178e-09 -3.63526e-09 3.57504e-09)
(1.95024e-09 -4.03305e-09 4.37923e-09)
(2.31682e-09 -4.33327e-09 5.31787e-09)
(2.79643e-09 -4.44349e-09 6.40087e-09)
(3.48069e-09 -4.19769e-09 7.63353e-09)
(4.57612e-09 -3.27376e-09 9.02745e-09)
(6.54166e-09 -9.97293e-10 1.06207e-08)
(1.02459e-08 3.93152e-09 1.24466e-08)
(1.57063e-08 1.18824e-08 1.38158e-08)
(3.72883e-10 -8.8045e-10 6.25357e-10)
(1.04146e-09 -2.46199e-09 1.76943e-09)
(1.66106e-09 -3.9329e-09 2.89316e-09)
(2.2568e-09 -5.34619e-09 4.07055e-09)
(2.85224e-09 -6.7385e-09 5.36859e-09)
(3.47075e-09 -8.12813e-09 6.84986e-09)
(4.13762e-09 -9.51124e-09 8.57386e-09)
(4.8831e-09 -1.08546e-08 1.05968e-08)
(5.7474e-09 -1.20836e-08 1.29691e-08)
(6.79002e-09 -1.30619e-08 1.57288e-08)
(8.10892e-09 -1.35605e-08 1.88895e-08)
(9.88242e-09 -1.32113e-08 2.24217e-08)
(1.24288e-08 -1.14588e-08 2.62083e-08)
(1.626e-08 -7.58592e-09 2.99446e-08)
(2.17629e-08 -1.25178e-09 3.28301e-08)
(2.73801e-08 5.15418e-09 3.3289e-08)
(6.11098e-10 -1.43834e-09 1.02445e-09)
(1.70644e-09 -4.02319e-09 2.89825e-09)
(2.72055e-09 -6.43078e-09 4.73752e-09)
(3.69357e-09 -8.74976e-09 6.6625e-09)
(4.6631e-09 -1.10434e-08 8.782e-09)
(5.66613e-09 -1.33473e-08 1.11976e-08)
(6.74169e-09 -1.56644e-08 1.40061e-08)
(7.93442e-09 -1.79558e-08 1.72992e-08)
(9.29893e-09 -2.01261e-08 2.11589e-08)
(1.09068e-08 -2.20009e-08 2.56459e-08)
(1.28584e-08 -2.3298e-08 3.07768e-08)
(1.53027e-08 -2.36081e-08 3.64827e-08)
(1.84568e-08 -2.24352e-08 4.25332e-08)
(2.25701e-08 -1.9452e-08 4.83915e-08)
(2.76037e-08 -1.52967e-08 5.29754e-08)
(3.20508e-08 -1.27829e-08 5.46758e-08)
(8.34318e-10 -1.95266e-09 1.3979e-09)
(2.32918e-09 -5.46415e-09 3.95409e-09)
(3.71092e-09 -8.74133e-09 6.46031e-09)
(5.03287e-09 -1.1909e-08 9.07919e-09)
(6.34446e-09 -1.50593e-08 1.1957e-08)
(7.69401e-09 -1.82507e-08 1.52308e-08)
(9.13133e-09 -2.15036e-08 1.90314e-08)
(1.07107e-08 -2.47919e-08 2.34837e-08)
(1.24928e-08 -2.80296e-08 2.87008e-08)
(1.45456e-08 -3.10507e-08 3.47694e-08)
(1.6941e-08 -3.3587e-08 4.17187e-08)
(1.97432e-08 -3.5261e-08 4.94625e-08)
(2.29754e-08 -3.5645e-08 5.76938e-08)
(2.65314e-08 -3.45153e-08 6.56941e-08)
(2.99716e-08 -3.24836e-08 7.20469e-08)
(3.21848e-08 -3.16018e-08 7.46619e-08)
(1.0377e-09 -2.40604e-09 1.73737e-09)
(2.89574e-09 -6.73622e-09 4.91257e-09)
(4.60949e-09 -1.0787e-08 8.02117e-09)
(6.24279e-09 -1.47186e-08 1.12619e-08)
(7.85468e-09 -1.8654e-08 1.48135e-08)
(9.50226e-09 -2.26793e-08 1.8843e-08)
(1.12435e-08 -2.68418e-08 2.35107e-08)
(1.31396e-08 -3.11447e-08 2.89707e-08)
(1.52552e-08 -3.55379e-08 3.53665e-08)
(1.76539e-08 -3.99028e-08 4.28151e-08)
(2.03847e-08 -4.40336e-08 5.13745e-08)
(2.34485e-08 -4.76194e-08 6.09788e-08)
(2.67282e-08 -5.02465e-08 7.13124e-08)
(2.98586e-08 -5.14765e-08 8.15591e-08)
(3.20867e-08 -5.11784e-08 8.99844e-08)
(3.25421e-08 -5.03638e-08 9.37994e-08)
(1.21734e-09 -2.78162e-09 2.03598e-09)
(3.39513e-09 -7.79191e-09 5.75447e-09)
(5.39833e-09 -1.24911e-08 9.38769e-09)
(7.29857e-09 -1.70727e-08 1.31639e-08)
(9.16168e-09 -2.169e-08 1.72872e-08)
(1.1051e-08 -2.64591e-08 2.19484e-08)
(1.30305e-08 -3.14599e-08 2.73303e-08)
(1.51669e-08 -3.67357e-08 3.36103e-08)
(1.75306e-08 -4.22898e-08 4.09576e-08)
(2.0191e-08 -4.80789e-08 4.95202e-08)
(2.32044e-08 -5.40017e-08 5.93975e-08)
(2.65845e-08 -5.98765e-08 7.05847e-08)
(3.02295e-08 -6.53823e-08 8.28416e-08)
(3.37831e-08 -6.99271e-08 9.54194e-08)
(3.64015e-08 -7.24771e-08 1.06467e-07)
(3.68641e-08 -7.21617e-08 1.12409e-07)
(1.37046e-09 -3.06362e-09 2.289e-09)
(3.81963e-09 -8.58687e-09 6.4661e-09)
(6.06516e-09 -1.37813e-08 1.05373e-08)
(8.18336e-09 -1.88694e-08 1.47524e-08)
(1.0244e-08 -2.40317e-08 1.93336e-08)
(1.23137e-08 -2.94127e-08 2.44871e-08)
(1.44597e-08 -3.51251e-08 3.04097e-08)
(1.67525e-08 -4.12541e-08 3.72927e-08)
(1.92688e-08 -4.78603e-08 4.53211e-08)
(2.20913e-08 -5.49844e-08 5.46646e-08)
(2.53099e-08 -6.26532e-08 6.54633e-08)
(2.9011e-08 -7.08804e-08 7.77773e-08)
(3.32682e-08 -7.96458e-08 9.15084e-08)
(3.80671e-08 -8.87576e-08 1.06121e-07)
(4.30403e-08 -9.73813e-08 1.19933e-07)
(4.6624e-08 -1.0297e-07 1.28674e-07)
(1.49547e-09 -3.2383e-09 2.49364e-09)
(4.16507e-09 -9.08234e-09 7.04008e-09)
(6.60378e-09 -1.45941e-08 1.14583e-08)
(8.88927e-09 -2.00182e-08 1.60113e-08)
(1.1092e-08 -2.55565e-08 2.0931e-08)
(1.32788e-08 -3.13764e-08 2.64303e-08)
(1.55165e-08 -3.76176e-08 3.271e-08)
(1.78754e-08 -4.43992e-08 3.9963e-08)
(2.04336e-08 -5.18269e-08 4.83746e-08)
(2.32821e-08 -6.00048e-08 5.8117e-08)
(2.65323e-08 -6.90535e-08 6.93368e-08)
(3.03334e-08 -7.91433e-08 8.21334e-08)
(3.4903e-08 -9.05455e-08 9.64966e-08)
(4.05708e-08 -1.03683e-07 1.12121e-07)
(4.76532e-08 -1.18905e-07 1.27732e-07)
(5.49535e-08 -1.33976e-07 1.39e-07)
(1.26399e-10 -3.02344e-10 1.9168e-10)
(3.52893e-10 -8.45444e-10 5.42186e-10)
(5.62417e-10 -1.3506e-09 8.86029e-10)
(7.63035e-10 -1.83594e-09 1.2453e-09)
(9.62328e-10 -2.31429e-09 1.64018e-09)
(1.16724e-09 -2.79196e-09 2.08877e-09)
(1.3849e-09 -3.26808e-09 2.60767e-09)
(1.62315e-09 -3.73215e-09 3.21128e-09)
(1.8919e-09 -4.16113e-09 3.91023e-09)
(2.2054e-09 -4.5134e-09 4.7077e-09)
(2.58846e-09 -4.72101e-09 5.59318e-09)
(3.09073e-09 -4.67395e-09 6.53098e-09)
(3.81432e-09 -4.191e-09 7.43744e-09)
(4.9739e-09 -2.94928e-09 8.14346e-09)
(6.90288e-09 -4.05978e-10 8.2889e-09)
(9.34872e-09 3.48431e-09 7.25956e-09)
(3.75872e-10 -8.97645e-10 5.69775e-10)
(1.04932e-09 -2.51037e-09 1.61158e-09)
(1.67184e-09 -4.01121e-09 2.63283e-09)
(2.26748e-09 -5.4549e-09 3.69967e-09)
(2.85795e-09 -6.87981e-09 4.87083e-09)
(3.4637e-09 -8.30653e-09 6.19998e-09)
(4.10493e-09 -9.73452e-09 7.73581e-09)
(4.80333e-09 -1.11371e-08 9.52049e-09)
(5.58377e-09 -1.24523e-08 1.15841e-08)
(6.47837e-09 -1.35709e-08 1.39336e-08)
(7.5345e-09 -1.43208e-08 1.65305e-08)
(8.82688e-09 -1.4458e-08 1.9248e-08)
(1.04777e-08 -1.36793e-08 2.17952e-08)
(1.26139e-08 -1.1734e-08 2.356e-08)
(1.51092e-08 -8.80689e-09 2.34404e-08)
(1.68528e-08 -6.40265e-09 2.0621e-08)
(6.16147e-10 -1.4663e-09 9.33432e-10)
(1.71979e-09 -4.10181e-09 2.63985e-09)
(2.73915e-09 -6.55801e-09 4.31151e-09)
(3.71274e-09 -8.92619e-09 6.05595e-09)
(4.67544e-09 -1.12724e-08 7.96867e-09)
(5.65971e-09 -1.36353e-08 1.01368e-08)
(6.69711e-09 -1.60223e-08 1.264e-08)
(7.81935e-09 -1.84029e-08 1.55475e-08)
(9.05901e-09 -2.06979e-08 1.89102e-08)
(1.04489e-08 -2.27654e-08 2.27424e-08)
(1.202e-08 -2.43915e-08 2.6988e-08)
(1.37947e-08 -2.53026e-08 3.14575e-08)
(1.57617e-08 -2.52556e-08 3.57224e-08)
(1.77921e-08 -2.43053e-08 3.89587e-08)
(1.94438e-08 -2.33164e-08 3.98908e-08)
(1.9888e-08 -2.39239e-08 3.78806e-08)
(8.41568e-10 -1.99041e-09 1.27393e-09)
(2.34839e-09 -5.57031e-09 3.60169e-09)
(3.73821e-09 -8.9129e-09 5.88e-09)
(5.06236e-09 -1.21466e-08 8.25363e-09)
(6.36699e-09 -1.53669e-08 1.08513e-08)
(7.69502e-09 -1.86357e-08 1.37909e-08)
(9.08716e-09 -2.19777e-08 1.71802e-08)
(1.05825e-08 -2.53746e-08 2.11149e-08)
(1.2216e-08 -2.87546e-08 2.56679e-08)
(1.40117e-08 -3.19808e-08 3.08683e-08)
(1.5965e-08 -3.48432e-08 3.66582e-08)
(1.80081e-08 -3.70785e-08 4.28209e-08)
(1.99392e-08 -3.84639e-08 4.88574e-08)
(2.13098e-08 -3.90705e-08 5.3824e-08)
(2.13682e-08 -3.96584e-08 5.62887e-08)
(1.97423e-08 -4.13131e-08 5.53688e-08)
(1.04724e-09 -2.45232e-09 1.58337e-09)
(2.92121e-09 -6.86623e-09 4.47539e-09)
(4.64643e-09 -1.0997e-08 7.30166e-09)
(6.28461e-09 -1.50091e-08 1.02395e-08)
(7.89139e-09 -1.90289e-08 1.34464e-08)
(9.51812e-09 -2.31458e-08 1.7066e-08)
(1.12134e-08 -2.74105e-08 2.12312e-08)
(1.30224e-08 -3.18312e-08 2.60612e-08)
(1.49836e-08 -3.63663e-08 3.16516e-08)
(1.71163e-08 -4.09147e-08 3.80516e-08)
(1.9394e-08 -4.53059e-08 4.52196e-08)
(2.16896e-08 -4.9299e-08 5.29437e-08)
(2.36705e-08 -5.26119e-08 6.07073e-08)
(2.46491e-08 -5.50172e-08 6.74963e-08)
(2.3578e-08 -5.65602e-08 7.16857e-08)
(2.02771e-08 -5.76989e-08 7.19375e-08)
(1.22922e-09 -2.83482e-09 1.85582e-09)
(3.42718e-09 -7.9414e-09 5.24316e-09)
(5.44562e-09 -1.27323e-08 8.54704e-09)
(7.35439e-09 -1.7406e-08 1.19712e-08)
(9.21599e-09 -2.2119e-08 1.56955e-08)
(1.10884e-08 -2.69901e-08 1.98845e-08)
(1.30264e-08 -3.21009e-08 2.46902e-08)
(1.50821e-08 -3.7496e-08 3.02507e-08)
(1.73011e-08 -4.31796e-08 3.66812e-08)
(1.97125e-08 -4.91108e-08 4.40529e-08)
(2.23035e-08 -5.51938e-08 5.23496e-08)
(2.49669e-08 -6.12586e-08 6.13872e-08)
(2.74018e-08 -6.70172e-08 7.06795e-08)
(2.8932e-08 -7.19449e-08 7.91951e-08)
(2.83956e-08 -7.5123e-08 8.51498e-08)
(2.51851e-08 -7.55915e-08 8.67022e-08)
(1.3847e-09 -3.12196e-09 2.08674e-09)
(3.85824e-09 -8.75072e-09 5.89258e-09)
(6.12318e-09 -1.40456e-08 9.59557e-09)
(8.25417e-09 -1.92342e-08 1.34188e-08)
(1.03182e-08 -2.45002e-08 1.75583e-08)
(1.23773e-08 -2.99902e-08 2.21921e-08)
(1.44905e-08 -3.58167e-08 2.74843e-08)
(1.67157e-08 -4.20623e-08 3.35845e-08)
(1.91084e-08 -4.87815e-08 4.062e-08)
(2.17172e-08 -5.60029e-08 4.86775e-08)
(2.45697e-08 -6.37291e-08 5.77596e-08)
(2.76538e-08 -7.19328e-08 6.77249e-08)
(3.0853e-08 -8.05101e-08 7.81217e-08)
(3.385e-08 -8.91278e-08 8.79393e-08)
(3.59494e-08 -9.67814e-08 9.52401e-08)
(3.61739e-08 -1.01075e-07 9.76335e-08)
(1.51193e-09 -3.29973e-09 2.27374e-09)
(4.21008e-09 -9.25489e-09 6.41685e-09)
(6.67226e-09 -1.48726e-08 1.04365e-08)
(8.97514e-09 -2.04023e-08 1.45675e-08)
(1.11869e-08 -2.60491e-08 1.90148e-08)
(1.33706e-08 -3.19818e-08 2.39625e-08)
(1.55864e-08 -3.83387e-08 2.95784e-08)
(1.78945e-08 -4.52331e-08 3.60136e-08)
(2.0356e-08 -5.27596e-08 4.33957e-08)
(2.30338e-08 -6.09998e-08 5.18112e-08)
(2.5992e-08 -7.00332e-08 6.12714e-08)
(2.92933e-08 -7.99512e-08 7.16439e-08)
(3.29945e-08 -9.08707e-08 8.2514e-08)
(3.71364e-08 -1.02918e-07 9.2893e-08)
(4.16735e-08 -1.15994e-07 1.00716e-07)
(4.58056e-08 -1.27933e-07 1.02893e-07)
(1.26917e-10 -3.07236e-10 1.66299e-10)
(3.54153e-10 -8.59225e-10 4.70267e-10)
(5.63656e-10 -1.3729e-09 7.67767e-10)
(7.63135e-10 -1.86698e-09 1.07796e-09)
(9.59257e-10 -2.35472e-09 1.41727e-09)
(1.15781e-09 -2.84322e-09 1.80053e-09)
(1.3639e-09 -3.33281e-09 2.24042e-09)
(1.58214e-09 -3.81539e-09 2.74666e-09)
(1.81682e-09 -4.27256e-09 3.32394e-09)
(2.07252e-09 -4.67211e-09 3.96758e-09)
(2.3563e-09 -4.96515e-09 4.65628e-09)
(2.6835e-09 -5.08068e-09 5.33979e-09)
(3.09399e-09 -4.91424e-09 5.92482e-09)
(3.6732e-09 -4.28956e-09 6.25242e-09)
(4.55897e-09 -2.87281e-09 6.11628e-09)
(5.60365e-09 -4.39508e-10 5.40764e-09)
(3.77484e-10 -9.12125e-10 4.94369e-10)
(1.05318e-09 -2.5511e-09 1.39769e-09)
(1.67595e-09 -4.07719e-09 2.2818e-09)
(2.26831e-09 -5.54649e-09 3.20251e-09)
(2.84982e-09 -6.99891e-09 4.20905e-09)
(3.43739e-09 -8.45697e-09 5.34477e-09)
(4.04566e-09 -9.92343e-09 6.64702e-09)
(4.68712e-09 -1.13778e-08 8.14441e-09)
(5.37135e-09 -1.27697e-08 9.85015e-09)
(6.10449e-09 -1.40134e-08 1.17495e-08)
(6.88875e-09 -1.4982e-08 1.37764e-08)
(7.72615e-09 -1.55128e-08 1.57791e-08)
(8.61478e-09 -1.54349e-08 1.74585e-08)
(9.53401e-09 -1.46394e-08 1.83164e-08)
(1.03452e-08 -1.32232e-08 1.77129e-08)
(1.06534e-08 -1.17924e-08 1.57153e-08)
(6.18973e-10 -1.48981e-09 8.09973e-10)
(1.72672e-09 -4.16799e-09 2.28963e-09)
(2.74696e-09 -6.66498e-09 3.73685e-09)
(3.71601e-09 -9.07441e-09 5.24264e-09)
(4.66535e-09 -1.14644e-08 6.88674e-09)
(5.62219e-09 -1.38762e-08 8.73985e-09)
(6.60971e-09 -1.63217e-08 1.08632e-08)
(7.6461e-09 -1.87777e-08 1.33045e-08)
(8.74185e-09 -2.11793e-08 1.60877e-08)
(9.89356e-09 -2.34125e-08 1.91941e-08)
(1.10745e-08 -2.53144e-08 2.25291e-08)
(1.2218e-08 -2.6698e-08 2.5871e-08)
(1.31915e-08 -2.74381e-08 2.8805e-08)
(1.37667e-08 -2.766e-08 3.06882e-08)
(1.36485e-08 -2.79805e-08 3.08471e-08)
(1.28731e-08 -2.91403e-08 2.95875e-08)
(8.45796e-10 -2.02213e-09 1.10539e-09)
(2.35902e-09 -5.65944e-09 3.12436e-09)
(3.75107e-09 -9.05682e-09 5.09688e-09)
(5.07051e-09 -1.23454e-08 7.14608e-09)
(6.35946e-09 -1.5623e-08 9.37949e-09)
(7.65442e-09 -1.89544e-08 1.18927e-08)
(8.98608e-09 -2.23681e-08 1.47694e-08)
(1.03775e-08 -2.58519e-08 1.80759e-08)
(1.18382e-08 -2.93457e-08 2.185e-08)
(1.33521e-08 -3.2735e-08 2.60769e-08)
(1.48539e-08 -3.58504e-08 3.06512e-08)
(1.61898e-08 -3.84941e-08 3.5319e-08)
(1.70573e-08 -4.05258e-08 3.96118e-08)
(1.69657e-08 -4.20454e-08 4.2828e-08)
(1.5407e-08 -4.35894e-08 4.42607e-08)
(1.2878e-08 -4.55986e-08 4.40713e-08)
(1.0531e-09 -2.49108e-09 1.3742e-09)
(2.93624e-09 -6.97514e-09 3.88272e-09)
(4.66572e-09 -1.11725e-08 6.33011e-09)
(6.3004e-09 -1.52506e-08 8.867e-09)
(7.89149e-09 -1.93385e-08 1.16249e-08)
(9.48358e-09 -2.35274e-08 1.47209e-08)
(1.11145e-08 -2.78702e-08 1.82581e-08)
(1.2813e-08 -3.23779e-08 2.23205e-08)
(1.45915e-08 -3.70139e-08 2.69605e-08)
(1.64297e-08 -4.1687e-08 3.21735e-08)
(1.82436e-08 -4.62448e-08 3.78572e-08)
(1.98285e-08 -5.04756e-08 4.37503e-08)
(2.07711e-08 -5.41312e-08 4.93633e-08)
(2.03741e-08 -5.69839e-08 5.39539e-08)
(1.78638e-08 -5.89385e-08 5.67316e-08)
(1.38784e-08 -6.0095e-08 5.75881e-08)
(1.2369e-09 -2.87929e-09 1.61086e-09)
(3.44715e-09 -8.06618e-09 4.54955e-09)
(5.47268e-09 -1.29331e-08 7.4111e-09)
(7.38037e-09 -1.76814e-08 1.03686e-08)
(9.22851e-09 -2.24701e-08 1.35726e-08)
(1.10684e-08 -2.74189e-08 1.71573e-08)
(1.29446e-08 -3.26091e-08 2.1241e-08)
(1.48933e-08 -3.80833e-08 2.59218e-08)
(1.69358e-08 -4.38424e-08 3.1265e-08)
(1.90648e-08 -4.9839e-08 3.72771e-08)
(2.12154e-08 -5.5967e-08 4.38649e-08)
(2.32147e-08 -6.20409e-08 5.0773e-08)
(2.46876e-08 -6.77376e-08 5.74928e-08)
(2.4959e-08 -7.24763e-08 6.32363e-08)
(2.31305e-08 -7.52495e-08 6.70909e-08)
(1.93633e-08 -7.50931e-08 6.8722e-08)
(1.39427e-09 -3.17056e-09 1.81168e-09)
(3.88359e-09 -8.88701e-09 5.11397e-09)
(6.15889e-09 -1.42646e-08 8.32191e-09)
(8.29229e-09 -1.95339e-08 1.1625e-08)
(1.03468e-08 -2.48807e-08 1.51876e-08)
(1.23785e-08 -3.0451e-08 1.91551e-08)
(1.44372e-08 -3.63549e-08 2.36557e-08)
(1.65664e-08 -4.26686e-08 2.87957e-08)
(1.88006e-08 -4.94346e-08 3.46478e-08)
(2.11561e-08 -5.666e-08 4.12252e-08)
(2.36185e-08 -6.43121e-08 4.84447e-08)
(2.61103e-08 -7.22976e-08 5.60411e-08)
(2.84536e-08 -8.04084e-08 6.34933e-08)
(3.03177e-08 -8.81556e-08 6.99123e-08)
(3.12325e-08 -9.43988e-08 7.41569e-08)
(3.094e-08 -9.70613e-08 7.56784e-08)
(1.52343e-09 -3.35075e-09 1.97434e-09)
(4.24087e-09 -9.39798e-09 5.57003e-09)
(6.71704e-09 -1.51023e-08 9.05305e-09)
(9.02638e-09 -2.07162e-08 1.26233e-08)
(1.12338e-08 -2.64463e-08 1.64525e-08)
(1.33971e-08 -3.24601e-08 2.06916e-08)
(1.55686e-08 -3.88913e-08 2.54717e-08)
(1.77967e-08 -4.58437e-08 3.09003e-08)
(2.01245e-08 -5.33938e-08 3.70495e-08)
(2.25891e-08 -6.15923e-08 4.39324e-08)
(2.52166e-08 -7.0465e-08 5.1459e-08)
(2.80174e-08 -8.00122e-08 5.93655e-08)
(3.09835e-08 -9.02003e-08 6.70968e-08)
(3.41192e-08 -1.00934e-07 7.36585e-08)
(3.75008e-08 -1.11898e-07 7.75619e-08)
(4.09389e-08 -1.21394e-07 7.77678e-08)
(1.27089e-10 -3.11155e-10 1.35272e-10)
(3.54383e-10 -8.70233e-10 3.82318e-10)
(5.63321e-10 -1.39071e-09 6.23969e-10)
(7.61043e-10 -1.89181e-09 8.7498e-10)
(9.53424e-10 -2.38699e-09 1.14865e-09)
(1.14513e-09 -2.88414e-09 1.45605e-09)
(1.33938e-09 -3.38426e-09 1.80622e-09)
(1.53814e-09 -3.88144e-09 2.20528e-09)
(1.74126e-09 -4.36001e-09 2.65405e-09)
(1.94675e-09 -4.79435e-09 3.14487e-09)
(2.15132e-09 -5.1454e-09 3.65577e-09)
(2.35566e-09 -5.35981e-09 4.14454e-09)
(2.57509e-09 -5.35901e-09 4.54174e-09)
(2.86819e-09 -4.99903e-09 4.76946e-09)
(3.354e-09 -3.96409e-09 4.79211e-09)
(4.00276e-09 -1.92395e-09 4.68103e-09)
(3.78039e-10 -9.23708e-10 4.02101e-10)
(1.05413e-09 -2.58369e-09 1.13663e-09)
(1.67536e-09 -4.12997e-09 1.85422e-09)
(2.26272e-09 -5.61967e-09 2.59979e-09)
(2.83365e-09 -7.09408e-09 3.41161e-09)
(3.40154e-09 -8.57681e-09 4.32259e-09)
(3.97611e-09 -1.00735e-08 5.3596e-09)
(4.56192e-09 -1.15675e-08 6.54025e-09)
(5.15706e-09 -1.30175e-08 7.8672e-09)
(5.74983e-09 -1.43513e-08 9.31698e-09)
(6.31852e-09 -1.54664e-08 1.08246e-08)
(6.83182e-09 -1.62338e-08 1.2259e-08)
(7.2624e-09 -1.65144e-08 1.34089e-08)
(7.60478e-09 -1.61793e-08 1.39822e-08)
(7.8857e-09 -1.51433e-08 1.373e-08)
(8.09036e-09 -1.36546e-08 1.287e-08)
(6.20099e-10 -1.50864e-09 6.58863e-10)
(1.72894e-09 -4.22096e-09 1.86209e-09)
(2.74718e-09 -6.75051e-09 3.03704e-09)
(3.70886e-09 -9.19271e-09 4.25641e-09)
(4.64196e-09 -1.1617e-08 5.5826e-09)
(5.5688e-09 -1.40669e-08 7.06939e-09)
(6.50484e-09 -1.65568e-08 8.76081e-09)
(7.45714e-09 -1.90692e-08 1.06869e-08)
(8.41912e-09 -2.15481e-08 1.2854e-08)
(9.36431e-09 -2.3896e-08 1.52299e-08)
(1.02353e-08 -2.59745e-08 1.77187e-08)
(1.0935e-08 -2.7627e-08 2.01335e-08)
(1.13246e-08 -2.87412e-08 2.21779e-08)
(1.12607e-08 -2.93693e-08 2.34855e-08)
(1.07346e-08 -2.98704e-08 2.38312e-08)
(1.01701e-08 -3.06938e-08 2.35982e-08)
(8.4776e-10 -2.0475e-09 8.99402e-10)
(2.36326e-09 -5.73074e-09 2.54112e-09)
(3.7536e-09 -9.17167e-09 4.14289e-09)
(5.06437e-09 -1.25033e-08 5.80256e-09)
(6.33369e-09 -1.58255e-08 7.60449e-09)
(7.59179e-09 -1.92043e-08 9.6215e-09)
(8.86045e-09 -2.26707e-08 1.1914e-08)
(1.01491e-08 -2.62159e-08 1.45244e-08)
(1.14488e-08 -2.97866e-08 1.74662e-08)
(1.27178e-08 -3.32784e-08 2.07047e-08)
(1.38627e-08 -3.65378e-08 2.41294e-08)
(1.47086e-08 -3.93813e-08 2.75245e-08)
(1.49753e-08 -4.166e-08 3.05566e-08)
(1.43132e-08 -4.33888e-08 3.28363e-08)
(1.25621e-08 -4.4892e-08 3.41455e-08)
(1.05419e-08 -4.64753e-08 3.4741e-08)
(1.05614e-09 -2.52207e-09 1.11816e-09)
(2.94331e-09 -7.06203e-09 3.15844e-09)
(4.67214e-09 -1.1312e-08 5.14609e-09)
(6.29837e-09 -1.54417e-08 7.20114e-09)
(7.86857e-09 -1.95812e-08 9.42674e-09)
(9.42097e-09 -2.38231e-08 1.19124e-08)
(1.09836e-08 -2.82204e-08 1.47327e-08)
(1.25716e-08 -3.27843e-08 1.7942e-08)
(1.41782e-08 -3.74785e-08 2.15619e-08)
(1.57597e-08 -4.2212e-08 2.55605e-08)
(1.72078e-08 -4.68308e-08 2.98228e-08)
(1.83085e-08 -5.11157e-08 3.41194e-08)
(1.86912e-08 -5.47884e-08 3.80942e-08)
(1.78305e-08 -5.75452e-08 4.13372e-08)
(1.53197e-08 -5.91669e-08 4.3598e-08)
(1.20536e-08 -5.97777e-08 4.49599e-08)
(1.24126e-09 -2.91474e-09 1.31099e-09)
(3.45781e-09 -8.16549e-09 3.7015e-09)
(5.48461e-09 -1.30921e-08 6.02595e-09)
(7.38524e-09 -1.78981e-08 8.42221e-09)
(9.21374e-09 -2.27434e-08 1.10087e-08)
(1.10148e-08 -2.77472e-08 1.38878e-08)
(1.28237e-08 -3.29892e-08 1.71457e-08)
(1.46631e-08 -3.85075e-08 2.08461e-08)
(1.65374e-08 -4.42954e-08 2.50176e-08)
(1.8418e-08 -5.0293e-08 2.96324e-08)
(2.02213e-08 -5.63734e-08 3.4574e-08)
(2.17697e-08 -6.23141e-08 3.95953e-08)
(2.27425e-08 -6.7739e-08 4.43165e-08)
(2.26403e-08 -7.19954e-08 4.82704e-08)
(2.0924e-08 -7.40487e-08 5.11374e-08)
(1.79754e-08 -7.31703e-08 5.29279e-08)
(1.40008e-09 -3.20919e-09 1.47461e-09)
(3.8984e-09 -8.99514e-09 4.16145e-09)
(6.17746e-09 -1.44374e-08 6.76779e-09)
(8.30651e-09 -1.97685e-08 9.4448e-09)
(1.03443e-08 -2.51743e-08 1.23218e-08)
(1.2341e-08 -3.07997e-08 1.551e-08)
(1.43379e-08 -3.67502e-08 1.91029e-08)
(1.63668e-08 -4.30935e-08 2.31695e-08)
(1.84463e-08 -4.98572e-08 2.77423e-08)
(2.05759e-08 -5.70244e-08 3.27951e-08)
(2.2723e-08 -6.45213e-08 3.82012e-08)
(2.4813e-08 -7.21958e-08 4.37036e-08)
(2.67125e-08 -7.97542e-08 4.88599e-08)
(2.82504e-08 -8.66256e-08 5.30926e-08)
(2.928e-08 -9.17057e-08 5.59099e-08)
(2.97448e-08 -9.33749e-08 5.7344e-08)
(1.53082e-09 -3.3912e-09 1.60731e-09)
(4.26013e-09 -9.51116e-09 4.53335e-09)
(6.74308e-09 -1.52829e-08 7.36374e-09)
(9.05138e-09 -2.09606e-08 1.02581e-08)
(1.12464e-08 -2.67508e-08 1.33518e-08)
(1.33808e-08 -3.28184e-08 1.67605e-08)
(1.54995e-08 -3.92909e-08 2.05799e-08)
(1.76403e-08 -4.62606e-08 2.48796e-08)
(1.98339e-08 -5.37841e-08 2.9691e-08)
(2.21019e-08 -6.18797e-08 3.49829e-08)
(2.44571e-08 -7.05229e-08 4.06248e-08)
(2.6907e-08 -7.96389e-08 4.63326e-08)
(2.9478e-08 -8.90953e-08 5.16139e-08)
(3.22949e-08 -9.87058e-08 5.57453e-08)
(3.57003e-08 -1.08215e-07 5.79403e-08)
(3.97097e-08 -1.16482e-07 5.80346e-08)
(1.27036e-10 -3.14052e-10 9.97741e-11)
(3.54079e-10 -8.78401e-10 2.82042e-10)
(5.62186e-10 -1.40397e-09 4.59833e-10)
(7.57985e-10 -1.91001e-09 6.44424e-10)
(9.47058e-10 -2.41107e-09 8.44925e-10)
(1.13266e-09 -2.9145e-09 1.06909e-09)
(1.31683e-09 -3.42231e-09 1.3229e-09)
(1.49949e-09 -3.92938e-09 1.60978e-09)
(1.67794e-09 -4.42218e-09 1.929e-09)
(1.84671e-09 -4.87746e-09 2.27334e-09)
(1.99888e-09 -5.26039e-09 2.62589e-09)
(2.13182e-09 -5.52141e-09 2.95728e-09)
(2.26257e-09 -5.58409e-09 3.23141e-09)
(2.4561e-09 -5.29724e-09 3.41793e-09)
(2.85064e-09 -4.32987e-09 3.54738e-09)
(3.44852e-09 -2.32716e-09 3.6802e-09)
(3.77991e-10 -9.32338e-10 2.96692e-10)
(1.05344e-09 -2.60798e-09 8.38264e-10)
(1.6723e-09 -4.16906e-09 1.36689e-09)
(2.25478e-09 -5.67449e-09 1.91489e-09)
(2.81552e-09 -7.16471e-09 2.50964e-09)
(3.36583e-09 -8.66539e-09 3.17404e-09)
(3.9113e-09 -1.01831e-08 3.92572e-09)
(4.45125e-09 -1.17043e-08 4.77471e-09)
(4.97637e-09 -1.31914e-08 5.71885e-09)
(5.46659e-09 -1.4579e-08 6.73647e-09)
(5.89172e-09 -1.57718e-08 7.77663e-09)
(6.22001e-09 -1.66458e-08 8.75253e-09)
(6.44142e-09 -1.70496e-08 9.53512e-09)
(6.61119e-09 -1.68008e-08 9.98199e-09)
(6.87611e-09 -1.56996e-08 9.99959e-09)
(7.29053e-09 -1.39432e-08 9.68714e-09)
(6.20228e-10 -1.52269e-09 4.86154e-10)
(1.72841e-09 -4.26043e-09 1.37343e-09)
(2.74359e-09 -6.81447e-09 2.23901e-09)
(3.69718e-09 -9.28045e-09 3.13531e-09)
(4.61511e-09 -1.17302e-08 4.10707e-09)
(5.51489e-09 -1.42071e-08 5.19156e-09)
(6.40653e-09 -1.67278e-08 6.41794e-09)
(7.28905e-09 -1.92773e-08 7.80344e-09)
(8.14602e-09 -2.18041e-08 9.34631e-09)
(8.93979e-09 -2.42161e-08 1.10152e-08)
(9.60603e-09 -2.63806e-08 1.27357e-08)
(1.0055e-08 -2.81389e-08 1.43799e-08)
(1.01929e-08 -2.93469e-08 1.57694e-08)
(9.99038e-09 -2.99704e-08 1.67219e-08)
(9.61876e-09 -3.02231e-08 1.71684e-08)
(9.50947e-09 -3.05701e-08 1.72941e-08)
(8.48315e-10 -2.06648e-09 6.63563e-10)
(2.3637e-09 -5.78398e-09 1.8746e-09)
(3.75044e-09 -9.25709e-09 3.05461e-09)
(5.05201e-09 -1.26208e-08 4.27479e-09)
(6.30211e-09 -1.59747e-08 5.59527e-09)
(7.52671e-09 -1.93865e-08 7.06685e-09)
(8.74041e-09 -2.2888e-08 8.72957e-09)
(9.94369e-09 -2.64714e-08 1.06082e-08)
(1.11162e-08 -3.00849e-08 1.27037e-08)
(1.22059e-08 -3.36255e-08 1.49802e-08)
(1.31162e-08 -3.69376e-08 1.73502e-08)
(1.36918e-08 -3.9825e-08 1.96638e-08)
(1.37237e-08 -4.20987e-08 2.17187e-08)
(1.30141e-08 -4.3684e-08 2.33231e-08)
(1.16081e-08 -4.4794e-08 2.44128e-08)
(1.02511e-08 -4.583e-08 2.50704e-08)
(1.05734e-09 -2.54518e-09 8.25172e-10)
(2.94548e-09 -7.12686e-09 2.33027e-09)
(4.67137e-09 -1.14159e-08 3.79485e-09)
(6.28742e-09 -1.55827e-08 5.30587e-09)
(7.83722e-09 -1.97591e-08 6.93716e-09)
(9.35298e-09 -2.40368e-08 8.7511e-09)
(1.08557e-08 -2.84685e-08 1.07974e-08)
(1.2351e-08 -3.30635e-08 1.3108e-08)
(1.38214e-08 -3.77823e-08 1.56878e-08)
(1.52144e-08 -4.25274e-08 1.84998e-08)
(1.64237e-08 -4.71332e-08 2.14493e-08)
(1.7265e-08 -5.1357e-08 2.43716e-08)
(1.74546e-08 -5.4876e-08 2.70469e-08)
(1.66411e-08 -5.73209e-08 2.92699e-08)
(1.46265e-08 -5.84239e-08 3.0959e-08)
(1.21694e-08 -5.84705e-08 3.20883e-08)
(1.24341e-09 -2.9412e-09 9.67576e-10)
(3.4624e-09 -8.23941e-09 2.73135e-09)
(5.48724e-09 -1.32099e-08 4.44433e-09)
(7.37904e-09 -1.80577e-08 6.20659e-09)
(9.18716e-09 -2.29422e-08 8.10279e-09)
(1.09517e-08 -2.79821e-08 1.02046e-08)
(1.27005e-08 -3.32541e-08 1.25695e-08)
(1.44475e-08 -3.8791e-08 1.52349e-08)
(1.61872e-08 -4.45772e-08 1.82091e-08)
(1.78845e-08 -5.05378e-08 2.14546e-08)
(1.94605e-08 -5.65223e-08 2.48686e-08)
(2.07733e-08 -6.22751e-08 2.82709e-08)
(2.15935e-08 -6.7375e-08 3.14097e-08)
(2.1598e-08 -7.11333e-08 3.40389e-08)
(2.0451e-08 -7.25487e-08 3.6041e-08)
(1.83727e-08 -7.11396e-08 3.73831e-08)
(1.40327e-09 -3.23793e-09 1.08855e-09)
(3.906e-09 -9.07543e-09 3.0712e-09)
(6.18513e-09 -1.45652e-08 4.99223e-09)
(8.30668e-09 -1.99402e-08 6.96135e-09)
(1.03266e-08 -2.53866e-08 9.07119e-09)
(1.22894e-08 -3.10466e-08 1.13997e-08)
(1.42302e-08 -3.70212e-08 1.40091e-08)
(1.61727e-08 -4.33694e-08 1.69402e-08)
(1.81272e-08 -5.01045e-08 2.02022e-08)
(2.00874e-08 -5.71865e-08 2.37545e-08)
(2.20287e-08 -6.45099e-08 2.74876e-08)
(2.39068e-08 -7.18769e-08 3.11928e-08)
(2.5677e-08 -7.89493e-08 3.45705e-08)
(2.73287e-08 -8.51429e-08 3.72827e-08)
(2.88999e-08 -8.94561e-08 3.91135e-08)
(3.01737e-08 -9.06091e-08 4.01321e-08)
(1.53523e-09 -3.42126e-09 1.18665e-09)
(4.2711e-09 -9.59501e-09 3.3461e-09)