/*--------------------------------*- C++ -*----------------------------------*\
| =========                 |                                                 |
| \\      /  F ield         | OpenFOAM: The Open Source CFD Toolbox           |
|  \\    /   O peration     | Version:  v1912                                 |
|   \\  /    A nd           | Website:  www.openfoam.com                      |
|    \\/     M anipulation  |                                                 |
\*---------------------------------------------------------------------------*/
FoamFile
{
    version     2.0;
    format      ascii;
    class       surfaceScalarField;
    location    "0.8/fluid";
    object      meshPhi;
}
// * * * * * * * * * * * * * * * * * * * * * * * * * * * * * * * * * * * * * //

dimensions      [0 3 -1 0 0 0 0];
oriented        oriented;


internalField   nonuniform List<scalar> 
41600
(
1.45665e-13
-3.83659e-13
1.44392e-13
-1.49158e-13
2.78482e-13
-1.11753e-12
4.25632e-13
-4.39905e-13
4.04078e-13
-1.79828e-12
7.01534e-13
-7.25747e-13
5.27673e-13
-2.44967e-12
9.90494e-13
-1.02604e-12
6.54405e-13
-3.08766e-12
1.30913e-12
-1.35842e-12
7.89807e-13
-3.7192e-12
1.67306e-12
-1.73968e-12
9.40514e-13
-4.34005e-12
2.09731e-12
-2.18644e-12
1.11539e-12
-4.9306e-12
2.59647e-12
-2.71547e-12
1.32756e-12
-5.44838e-12
3.1844e-12
-3.34393e-12
1.5987e-12
-5.81484e-12
3.87361e-12
-4.0898e-12
1.96794e-12
-5.89145e-12
4.67489e-12
-4.97377e-12
2.51126e-12
-5.43419e-12
5.59892e-12
-6.02665e-12
3.37706e-12
-4.00583e-12
6.6632e-12
-7.31081e-12
4.81983e-12
-8.43186e-13
7.90052e-12
-8.96656e-12
6.92149e-12
4.81503e-12
9.28415e-12
-1.11359e-11
1.40784e-11
1.16288e-11
-1.67757e-11
4.33254e-13
-7.56021e-13
4.29415e-13
-4.43598e-13
8.28149e-13
-2.20266e-12
1.2657e-12
-1.30815e-12
1.20124e-12
-3.54601e-12
2.08583e-12
-2.1578e-12
1.56781e-12
-4.83389e-12
2.94426e-12
-3.04985e-12
1.94288e-12
-6.09927e-12
3.89018e-12
-4.03646e-12
2.34251e-12
-7.35848e-12
4.96977e-12
-5.16732e-12
2.78558e-12
-8.60758e-12
6.2275e-12
-6.49148e-12
3.29663e-12
-9.8155e-12
7.70635e-12
-8.05825e-12
3.9106e-12
-1.09124e-11
9.44676e-12
-9.91744e-12
4.68204e-12
-1.17703e-11
1.14838e-11
-1.21192e-11
5.70328e-12
-1.21746e-11
1.38433e-11
-1.47155e-11
7.13998e-12
-1.17851e-11
1.65379e-11
-1.77691e-11
9.28287e-12
-1.0108e-11
1.95657e-11
-2.13799e-11
1.25492e-11
-6.57917e-12
2.2895e-11
-2.57285e-11
1.68351e-11
-1.25208e-12
2.62929e-11
-3.08197e-11
5.10527e-12
2.89077e-11
-3.71791e-11
7.09879e-13
-1.10597e-12
7.03454e-13
-7.26674e-13
1.35644e-12
-3.22338e-12
2.07313e-12
-2.14261e-12
1.96625e-12
-5.19301e-12
3.41538e-12
-3.53308e-12
2.56368e-12
-7.08727e-12
4.81876e-12
-4.99123e-12
3.17262e-12
-8.95794e-12
6.36312e-12
-6.6017e-12
3.81818e-12
-1.08348e-11
8.12344e-12
-8.44515e-12
4.52912e-12
-1.27218e-11
1.0172e-11
-1.0601e-11
5.34103e-12
-1.45894e-11
1.25785e-11
-1.31489e-11
6.30111e-12
-1.63631e-11
1.54082e-11
-1.61683e-11
7.47601e-12
-1.79043e-11
1.8716e-11
-1.97355e-11
8.965e-12
-1.89861e-11
2.25353e-11
-2.39199e-11
1.09207e-11
-1.92736e-11
2.68603e-11
-2.87779e-11
1.35612e-11
-1.83439e-11
3.16161e-11
-3.43466e-11
1.70942e-11
-1.58498e-11
3.65976e-11
-4.06155e-11
2.10933e-11
-1.21058e-11
4.12842e-11
-4.71626e-11
-7.96079e-12
4.4993e-11
-5.50211e-11
9.68895e-13
-1.42214e-12
9.59888e-13
-9.91523e-13
1.85038e-12
-4.14672e-12
2.82819e-12
-2.9228e-12
2.6797e-12
-6.68675e-12
4.6571e-12
-4.81721e-12
3.48898e-12
-9.13937e-12
6.5661e-12
-6.80036e-12
4.30944e-12
-1.1577e-11
8.66275e-12
-8.98625e-12
5.17346e-12
-1.40469e-11
1.10481e-11
-1.14834e-11
6.11691e-12
-1.65688e-11
1.38195e-11
-1.43987e-11
7.18204e-12
-1.91286e-11
1.70717e-11
-1.78391e-11
8.4204e-12
-2.16691e-11
2.08936e-11
-2.19112e-11
9.89585e-12
-2.40748e-11
2.53605e-11
-2.6716e-11
1.16868e-11
-2.61521e-11
3.0517e-11
-3.23379e-11
1.38846e-11
-2.76124e-11
3.63467e-11
-3.88249e-11
1.65709e-11
-2.80789e-11
4.27178e-11
-4.61508e-11
1.97314e-11
-2.71847e-11
4.92851e-11
-5.41397e-11
2.28663e-11
-2.49758e-11
5.52802e-11
-6.20644e-11
-2.17989e-11
5.96857e-11
-7.06029e-11
1.20453e-12
-1.69332e-12
1.19288e-12
-1.23209e-12
2.29875e-12
-4.93994e-12
3.51351e-12
-3.63071e-12
3.32487e-12
-7.97426e-12
5.78178e-12
-5.97986e-12
4.32114e-12
-1.09174e-11
8.14387e-12
-8.43321e-12
5.32445e-12
-1.38632e-11
1.07311e-11
-1.11298e-11
6.37248e-12
-1.68793e-11
1.36666e-11
-1.42018e-11
7.50599e-12
-2.0007e-11
1.70695e-11
-1.77793e-11
8.7711e-12
-2.32583e-11
2.10561e-11
-2.19931e-11
1.02207e-11
-2.66105e-11
2.57378e-11
-2.69742e-11
1.19133e-11
-2.99964e-11
3.12127e-11
-3.28488e-11
1.39078e-11
-3.32906e-11
3.75468e-11
-3.97243e-11
1.62469e-11
-3.62864e-11
4.47381e-11
-4.76624e-11
1.89139e-11
-3.8661e-11
5.26452e-11
-5.66212e-11
2.17451e-11
-3.99353e-11
6.08429e-11
-6.63321e-11
2.41938e-11
-3.96243e-11
6.83159e-11
-7.57933e-11
-3.70949e-11
7.36656e-11
-8.53013e-11
1.41224e-12
-1.90879e-12
1.39776e-12
-1.44355e-12
2.69275e-12
-5.57158e-12
4.11521e-12
-4.25196e-12
3.88878e-12
-9.0041e-12
6.76607e-12
-6.99687e-12
5.04292e-12
-1.23493e-11
9.51814e-12
-9.85463e-12
6.19588e-12
-1.57213e-11
1.25216e-11
-1.29841e-11
7.38875e-12
-1.92087e-11
1.59167e-11
-1.65358e-11
8.66533e-12
-2.28768e-11
1.98394e-11
-2.06575e-11
1.00743e-11
-2.67683e-11
2.44229e-11
-2.54983e-11
1.16705e-11
-3.09029e-11
2.97975e-11
-3.12095e-11
1.35135e-11
-3.52766e-11
3.60841e-11
-3.79412e-11
1.56626e-11
-3.9857e-11
4.33792e-11
-4.58325e-11
1.81624e-11
-4.4572e-11
5.1724e-11
-5.49892e-11
2.1003e-11
-4.92672e-11
6.10342e-11
-6.54268e-11
2.40295e-11
-5.35865e-11
7.09271e-11
-7.69248e-11
2.66605e-11
-5.6752e-11
8.02603e-11
-8.8345e-11
-5.67807e-11
8.73263e-11
-9.98439e-11
1.58888e-12
-2.05886e-12
1.57124e-12
-1.62249e-12
3.02639e-12
-6.01312e-12
4.62352e-12
-4.77646e-12
4.36281e-12
-9.72919e-12
7.59368e-12
-7.85142e-12
5.6431e-12
-1.3368e-11
1.06654e-11
-1.10403e-11
6.90986e-12
-1.70608e-11
1.4002e-11
-1.4516e-11
8.20562e-12
-2.09148e-11
1.77553e-11
-1.84407e-11
9.5753e-12
-2.5017e-11
2.20711e-11
-2.29733e-11
1.10687e-11
-2.94386e-11
2.70931e-11
-2.82733e-11
1.27428e-11
-3.42384e-11
3.29628e-11
-3.4504e-11
1.46631e-11
-3.94701e-11
3.98171e-11
-4.18321e-11
1.69058e-11
-4.51909e-11
4.77801e-11
-5.04246e-11
1.95583e-11
-5.14752e-11
5.69453e-11
-6.04413e-11
2.27097e-11
-5.84219e-11
6.73289e-11
-7.20038e-11
2.63904e-11
-6.61024e-11
7.87139e-11
-8.5077e-11
3.01155e-11
-7.40745e-11
9.00468e-11
-9.86223e-11
-8.1946e-11
9.95247e-11
-1.13222e-10
1.73279e-12
1.71154e-12
-1.76708e-12
-2.13545e-12
3.29677e-12
5.03334e-12
-5.19897e-12
-6.24085e-12
4.74311e-12
8.25647e-12
-8.53513e-12
-1.01103e-11
6.11716e-12
1.15743e-11
-1.19787e-11
-1.3917e-11
7.46138e-12
1.51574e-11
-1.57098e-11
-1.78046e-11
8.8176e-12
1.91623e-11
-1.9896e-11
-2.18937e-11
1.02294e-11
2.37379e-11
-2.4699e-11
-2.62875e-11
1.1745e-11
2.90287e-11
-3.02792e-11
-3.10766e-11
1.34202e-11
3.51765e-11
-3.67993e-11
-3.63452e-11
1.53222e-11
4.23186e-11
-4.44256e-11
-4.21792e-11
1.75364e-11
5.05847e-11
-5.33293e-11
-4.86784e-11
2.01782e-11
6.00888e-11
-6.36887e-11
-5.59755e-11
2.34021e-11
7.09037e-11
-7.56819e-11
-6.42564e-11
2.73643e-11
8.29477e-11
-8.94172e-11
-7.37397e-11
3.16201e-11
9.52806e-11
-1.03984e-10
-8.39956e-11
1.07093e-10
-1.21567e-10
-9.72217e-11
1.47487e-13
-3.92426e-13
1.34379e-13
2.81813e-13
-1.14319e-12
3.95944e-13
4.08529e-13
-1.84005e-12
6.52049e-13
5.32711e-13
-2.50772e-12
9.19434e-13
6.59233e-13
-3.1631e-12
1.21305e-12
7.93132e-13
-3.81415e-12
1.54662e-12
9.40169e-13
-4.45795e-12
1.93284e-12
1.10768e-12
-5.0771e-12
2.38311e-12
1.30618e-12
-5.63349e-12
2.90648e-12
1.55264e-12
-6.05779e-12
3.50756e-12
1.87774e-12
-6.23195e-12
4.1825e-12
2.34072e-12
-5.95906e-12
4.91201e-12
3.05466e-12
-4.91263e-12
5.64785e-12
4.19657e-12
-2.58784e-12
6.28444e-12
5.77788e-12
1.39697e-12
6.61962e-12
6.66493e-12
6.42547e-12
4.38708e-13
-7.73243e-13
3.99636e-13
8.38135e-13
-2.25306e-12
1.17743e-12
1.21464e-12
-3.62807e-12
1.93872e-12
1.58312e-12
-4.94799e-12
2.73311e-12
1.95782e-12
-6.24756e-12
3.60484e-12
2.35338e-12
-7.54497e-12
4.59455e-12
2.78621e-12
-8.8386e-12
5.73983e-12
3.27652e-12
-1.01012e-11
7.07441e-12
3.85177e-12
-1.127e-11
8.62507e-12
4.55349e-12
-1.22322e-11
1.0405e-11
5.451e-12
-1.28049e-11
1.24009e-11
6.66711e-12
-1.27168e-11
1.45506e-11
8.41151e-12
-1.16175e-11
1.66997e-11
1.09522e-11
-9.21227e-12
1.85255e-11
1.41265e-11
-5.78564e-12
1.94867e-11
-3.08573e-12
1.83122e-11
7.18949e-13
-1.13108e-12
6.54692e-13
1.3731e-12
-3.29688e-12
1.92861e-12
1.98879e-12
-5.31272e-12
3.17465e-12
2.58983e-12
-7.25376e-12
4.47349e-12
3.19894e-12
-9.17428e-12
5.89699e-12
3.83912e-12
-1.11065e-11
7.51121e-12
4.53537e-12
-1.30572e-11
9.37743e-12
5.31683e-12
-1.50014e-11
1.15509e-11
6.21957e-12
-1.68724e-11
1.40758e-11
7.2911e-12
-1.85474e-11
1.69748e-11
8.59782e-12
-1.98329e-11
2.02272e-11
1.02351e-11
-2.04626e-11
2.37318e-11
1.23261e-11
-2.01491e-11
2.72393e-11
1.49422e-11
-1.87799e-11
3.02531e-11
1.77067e-11
-1.68369e-11
3.20241e-11
-1.57775e-11
3.14273e-11
9.81575e-13
-1.45434e-12
8.93405e-13
1.8738e-12
-4.24098e-12
2.63122e-12
2.7117e-12
-6.84031e-12
4.32923e-12
3.52677e-12
-9.35297e-12
6.09633e-12
4.34891e-12
-1.18544e-11
8.0294e-12
5.20795e-12
-1.43948e-11
1.02176e-11
6.13535e-12
-1.69967e-11
1.27438e-11
7.16564e-12
-1.96501e-11
1.56838e-11
8.3372e-12
-2.23046e-11
1.90999e-11
9.69138e-12
-2.48573e-11
2.30273e-11
1.12683e-11
-2.71404e-11
2.74479e-11
1.30949e-11
-2.89176e-11
3.22416e-11
1.51512e-11
-2.99149e-11
3.71036e-11
1.72957e-11
-2.99456e-11
4.14288e-11
1.91128e-11
-2.9204e-11
4.43015e-11
-2.8711e-11
4.44347e-11
1.22079e-12
-1.73157e-12
1.11038e-12
2.32894e-12
-5.05192e-12
3.26919e-12
3.36656e-12
-8.15675e-12
5.37542e-12
4.37135e-12
-1.11713e-11
7.5624e-12
5.37886e-12
-1.41928e-11
9.94845e-12
6.42421e-12
-1.7292e-11
1.26425e-11
7.54365e-12
-2.05129e-11
1.57462e-11
8.77545e-12
-2.38706e-11
1.93537e-11
1.0159e-11
-2.73463e-11
2.35449e-11
1.17301e-11
-3.08804e-11
2.83721e-11
1.35085e-11
-3.43609e-11
3.38306e-11
1.54708e-11
-3.7608e-11
3.98062e-11
1.74963e-11
-4.03516e-11
4.59793e-11
1.92908e-11
-4.22136e-11
5.16773e-11
2.03873e-11
-4.28268e-11
5.57983e-11
-4.24431e-11
5.67845e-11
1.43199e-12
-1.95183e-12
1.30126e-12
2.7296e-12
-5.69763e-12
3.82959e-12
3.94019e-12
-9.20958e-12
6.29154e-12
5.10595e-12
-1.26353e-11
8.84021e-12
6.26648e-12
-1.60925e-11
1.1611e-11
7.46061e-12
-1.96731e-11
1.47283e-11
8.72808e-12
-2.34445e-11
1.83085e-11
1.01106e-11
-2.74513e-11
2.24599e-11
1.16508e-11
-3.17149e-11
2.72782e-11
1.33881e-11
-3.62325e-11
3.28328e-11
1.53471e-11
-4.09733e-11
3.91409e-11
1.75126e-11
-4.58672e-11
4.61149e-11
1.97773e-11
-5.07615e-11
5.34616e-11
2.18553e-11
-5.53033e-11
6.05008e-11
2.322e-11
-5.8747e-11
6.59787e-11
-5.97223e-11
6.80644e-11
1.61192e-12
-2.10524e-12
1.463e-12
3.06959e-12
-6.149e-12
4.30334e-12
4.4236e-12
-9.95079e-12
7.06243e-12
5.71881e-12
-1.36765e-11
9.90791e-12
6.99701e-12
-1.74614e-11
1.29873e-11
8.299e-12
-2.14158e-11
1.6435e-11
9.66649e-12
-2.56286e-11
2.03768e-11
1.11437e-11
-3.01716e-11
2.49296e-11
1.27782e-11
-3.51032e-11
3.01983e-11
1.46198e-11
-4.04739e-11
3.62651e-11
1.67177e-11
-4.63343e-11
4.31662e-11
1.91132e-11
-5.27442e-11
5.08469e-11
2.18179e-11
-5.97721e-11
5.90644e-11
2.47489e-11
-6.74241e-11
6.71858e-11
2.74611e-11
-7.52169e-11
7.38763e-11
-8.22308e-11
7.70131e-11
1.75881e-12
1.59391e-12
-2.18355e-12
3.34575e-12
4.68564e-12
-6.38183e-12
4.81255e-12
7.68041e-12
-1.03404e-11
6.20471e-12
1.07549e-11
-1.42376e-11
7.56431e-12
1.4063e-11
-1.82213e-11
8.93201e-12
1.7744e-11
-2.2415e-11
1.03492e-11
2.19262e-11
-2.69234e-11
1.18602e-11
2.67276e-11
-3.18374e-11
1.35141e-11
3.22535e-11
-3.72389e-11
1.53675e-11
3.85867e-11
-4.32082e-11
1.74877e-11
4.57683e-11
-4.98338e-11
1.99582e-11
5.37588e-11
-5.72261e-11
2.28799e-11
6.23519e-11
-6.55273e-11
2.63233e-11
7.09863e-11
-7.48677e-11
2.98772e-11
7.8342e-11
-8.47532e-11
8.20317e-11
-9.63362e-11
1.48648e-13
-4.00108e-13
1.19616e-13
2.83819e-13
-1.16572e-12
3.52309e-13
4.10877e-13
-1.87679e-12
5.79727e-13
5.34598e-13
-2.5589e-12
8.1643e-13
6.59387e-13
-3.22978e-12
1.07521e-12
7.89488e-13
-3.8985e-12
1.3675e-12
9.29315e-13
-4.56389e-12
1.70329e-12
1.08387e-12
-5.21178e-12
2.09059e-12
1.25954e-12
-5.8105e-12
2.53384e-12
1.46578e-12
-6.30438e-12
3.03094e-12
1.71883e-12
-6.60466e-12
3.56768e-12
2.04894e-12
-6.57839e-12
4.10819e-12
2.50942e-12
-6.03786e-12
4.57915e-12
3.16644e-12
-4.75536e-12
4.84979e-12
3.95867e-12
-2.67176e-12
4.75473e-12
1.37201e-14
4.31607e-12
4.42212e-13
-7.88318e-13
3.55742e-13
8.4422e-13
-2.29724e-12
1.0477e-12
1.22185e-12
-3.70011e-12
1.72374e-12
1.58914e-12
-5.04826e-12
2.42702e-12
1.95901e-12
-6.37802e-12
3.19542e-12
2.34383e-12
-7.70952e-12
4.06276e-12
2.75617e-12
-9.0441e-12
5.05875e-12
3.20968e-12
-1.03598e-11
6.20721e-12
3.72037e-12
-1.16043e-11
7.52166e-12
4.30932e-12
-1.26862e-11
8.99641e-12
5.00814e-12
-1.34664e-11
1.05906e-11
5.86815e-12
-1.37619e-11
1.22011e-11
6.96476e-12
-1.33866e-11
1.36196e-11
8.35021e-12
-1.2293e-11
1.44896e-11
9.79666e-12
-1.08683e-11
1.44031e-11
-1.03183e-11
1.30587e-11
7.2488e-13
-1.15302e-12
5.82815e-13
1.38349e-12
-3.36116e-12
1.71622e-12
2.00135e-12
-5.41746e-12
2.82282e-12
2.60103e-12
-7.39935e-12
3.97283e-12
3.2032e-12
-9.36326e-12
5.22782e-12
3.82746e-12
-1.13438e-11
6.64286e-12
4.49306e-12
-1.3351e-11
8.26653e-12
5.21945e-12
-1.53657e-11
1.01383e-11
6.02609e-12
-1.73319e-11
1.22818e-11
6.93177e-12
-1.91489e-11
1.46909e-11
7.95253e-12
-2.06665e-11
1.73062e-11
9.09542e-12
-2.17013e-11
1.99748e-11
1.03366e-11
-2.21092e-11
2.23946e-11
1.15567e-11
-2.19646e-11
2.40733e-11
1.24298e-11
-2.17666e-11
2.44971e-11
-2.24578e-11
2.36243e-11
9.90064e-13
-1.48239e-12
7.95395e-13
1.88883e-12
-4.32314e-12
2.34169e-12
2.73036e-12
-6.97407e-12
3.84987e-12
3.54468e-12
-9.53863e-12
5.41475e-12
4.3592e-12
-1.20947e-11
7.11941e-12
5.19962e-12
-1.46948e-11
9.03827e-12
6.09057e-12
-1.73644e-11
1.12375e-11
7.05512e-12
-2.00981e-11
1.37718e-11
8.11242e-12
-2.28534e-11
1.66763e-11
9.27141e-12
-2.55436e-11
1.99503e-11
1.05177e-11
-2.80327e-11
2.35279e-11
1.17871e-11
-3.01448e-11
2.72319e-11
1.29203e-11
-3.1711e-11
3.07129e-11
1.36164e-11
-3.26891e-11
3.34115e-11
1.35595e-11
-3.33135e-11
3.4734e-11
-3.42586e-11
3.46118e-11
1.23197e-12
-1.76478e-12
9.88686e-13
2.34897e-12
-5.14916e-12
2.90983e-12
3.39214e-12
-8.31495e-12
4.78091e-12
4.39763e-12
-1.13906e-11
6.71803e-12
5.39838e-12
-1.44757e-11
8.82279e-12
6.42516e-12
-1.76433e-11
1.11863e-11
7.50707e-12
-2.09391e-11
1.38899e-11
8.67055e-12
-2.43802e-11
1.70025e-11
9.93543e-12
-2.79516e-11
2.05714e-11
1.13051e-11
-3.15998e-11
2.46053e-11
1.27457e-11
-3.52261e-11
2.90428e-11
1.41466e-11
-3.86775e-11
3.37025e-11
1.52558e-11
-4.17354e-11
3.82157e-11
1.56335e-11
-4.4111e-11
4.1976e-11
1.49169e-11
-4.55164e-11
4.42782e-11
-4.60773e-11
4.49368e-11
1.44594e-12
-1.98907e-12
1.15882e-12
2.75489e-12
-5.80665e-12
3.40917e-12
3.97334e-12
-9.38685e-12
5.59668e-12
5.14204e-12
-1.28806e-11
7.85476e-12
6.29809e-12
-1.64083e-11
1.02998e-11
7.47618e-12
-2.00632e-11
1.3036e-11
8.70929e-12
-2.39135e-11
1.61567e-11
1.0028e-11
-2.8003e-11
1.97419e-11
1.1457e-11
-3.23514e-11
2.385e-11
1.30058e-11
-3.69516e-11
2.84998e-11
1.46502e-11
-4.17662e-11
3.36399e-11
1.62942e-11
-4.67131e-11
3.9096e-11
1.77058e-11
-5.16225e-11
4.44947e-11
1.84522e-11
-5.61284e-11
4.91892e-11
1.80861e-11
-5.95176e-11
5.23486e-11
-6.04541e-11
5.36816e-11
1.62863e-12
-2.14524e-12
1.30307e-12
3.10021e-12
-6.26608e-12
3.83158e-12
4.46465e-12
-1.01411e-11
6.28365e-12
5.76559e-12
-1.39398e-11
8.80546e-12
7.04264e-12
-1.77997e-11
1.15238e-11
8.33298e-12
-2.18321e-11
1.45518e-11
9.67242e-12
-2.61255e-11
1.79903e-11
1.10957e-11
-3.07488e-11
2.19261e-11
1.26347e-11
-3.57539e-11
2.64239e-11
1.4314e-11
-4.11789e-11
3.15096e-11
1.61411e-11
-4.70515e-11
3.71401e-11
1.80855e-11
-5.33885e-11
4.31492e-11
2.00428e-11
-6.01797e-11
4.91619e-11
2.17755e-11
-6.73008e-11
5.44855e-11
2.28729e-11
-7.41643e-11
5.81401e-11
-7.97287e-11
5.96639e-11
1.77816e-12
1.41993e-12
-2.22491e-12
3.38153e-12
4.17277e-12
-6.5029e-12
4.8614e-12
6.83495e-12
-1.05372e-11
6.26234e-12
9.56058e-12
-1.45099e-11
7.6247e-12
1.24824e-11
-1.85708e-11
8.98618e-12
1.57173e-11
-2.28443e-11
1.03834e-11
1.93688e-11
-2.74338e-11
1.18529e-11
2.35246e-11
-3.24256e-11
1.34315e-11
2.82493e-11
-3.78927e-11
1.51556e-11
3.35687e-11
-4.38983e-11
1.7059e-11
3.94404e-11
-5.05005e-11
1.91662e-11
4.57013e-11
-5.7755e-11
2.14782e-11
5.19783e-11
-6.57067e-11
2.39211e-11
5.75643e-11
-7.43282e-11
2.60983e-11
6.13897e-11
-8.30185e-11
6.24043e-11
-9.25508e-11
1.4925e-13
-4.06581e-13
1.00743e-13
2.84718e-13
-1.1847e-12
2.96622e-13
4.11511e-13
-1.90778e-12
4.87741e-13
5.34037e-13
-2.60208e-12
6.86093e-13
6.56124e-13
-3.2861e-12
9.02029e-13
7.81104e-13
-3.96991e-12
1.14451e-12
9.11906e-13
-4.65403e-12
1.42091e-12
1.05108e-12
-5.32743e-12
1.73632e-12
1.20087e-12
-5.96462e-12
2.09193e-12
1.36362e-12
-6.52204e-12
2.48217e-12
1.54311e-12
-6.93478e-12
2.89001e-12
1.74749e-12
-7.11507e-12
3.28034e-12
1.99262e-12
-6.9547e-12
3.59277e-12
2.29562e-12
-6.33677e-12
3.74252e-12
2.61463e-12
-5.223e-12
3.66278e-12
-3.40472e-12
3.56402e-12
4.44075e-13
-8.01017e-13
2.99625e-13
8.47049e-13
-2.33447e-12
8.82134e-13
1.22401e-12
-3.7608e-12
1.4503e-12
1.58794e-12
-5.13269e-12
2.03967e-12
1.95011e-12
-6.4878e-12
2.68089e-12
2.3203e-12
-7.84799e-12
3.40052e-12
2.70687e-12
-9.2174e-12
4.22053e-12
3.11658e-12
-1.05791e-11
5.15619e-12
3.55405e-12
-1.18905e-11
6.21147e-12
4.02129e-12
-1.30788e-11
7.37084e-12
4.51795e-12
-1.40399e-11
8.586e-12
5.04272e-12
-1.46507e-11
9.75754e-12
5.59246e-12
-1.48118e-11
1.07166e-11
6.14393e-12
-1.45427e-11
1.12334e-11
6.58367e-12
-1.41024e-11
1.11442e-11
-1.41056e-11
1.04974e-11
7.28165e-13
-1.17148e-12
4.90918e-13
1.38862e-12
-3.41523e-12
1.44512e-12
2.00577e-12
-5.50548e-12
2.37523e-12
2.60056e-12
-7.52146e-12
3.33907e-12
3.19118e-12
-9.5213e-12
4.38653e-12
3.79329e-12
-1.15416e-11
5.56087e-12
4.4199e-12
-1.35953e-11
6.89818e-12
5.08032e-12
-1.56684e-11
8.42411e-12
5.77774e-12
-1.77146e-11
1.01469e-11
6.50482e-12
-1.96511e-11
1.20451e-11
7.2366e-12
-2.13605e-11
1.4048e-11
7.91946e-12
-2.27125e-11
1.60106e-11
8.45607e-12
-2.36297e-11
1.76925e-11
8.6991e-12
-2.42142e-11
1.87828e-11
8.54061e-12
-2.48111e-11
1.9083e-11
-2.5914e-11
1.88635e-11
9.95004e-13
-1.50594e-12
6.70048e-13
1.89681e-12
-4.39207e-12
1.972e-12
2.73811e-12
-7.08608e-12
3.23981e-12
3.54694e-12
-9.69352e-12
4.55158e-12
4.34767e-12
-1.22941e-11
5.97466e-12
5.16128e-12
-1.4942e-11
7.56766e-12
6.00487e-12
-1.76649e-11
9.37988e-12
6.88968e-12
-2.04608e-11
1.14475e-11
7.81626e-12
-2.32933e-11
1.3785e-11
8.765e-12
-2.60875e-11
1.63702e-11
9.67927e-12
-2.87284e-11
1.91219e-11
1.04384e-11
-3.10732e-11
2.18713e-11
1.08272e-11
-3.29935e-11
2.43437e-11
1.05569e-11
-3.44604e-11
2.61955e-11
9.56175e-12
-3.56045e-11
2.71976e-11
-3.67938e-11
2.76057e-11
1.23882e-12
-1.79259e-12
8.32987e-13
2.3604e-12
-5.23048e-12
2.45079e-12
3.4044e-12
-8.44685e-12
4.02392e-12
4.40484e-12
-1.15724e-11
5.64805e-12
5.39142e-12
-1.47084e-11
7.40563e-12
6.38983e-12
-1.7929e-11
9.36852e-12
7.42129e-12
-2.12805e-11
1.15977e-11
8.5e-12
-2.47807e-11
1.4139e-11
9.62707e-12
-2.84148e-11
1.70143e-11
1.0778e-11
-3.21312e-11
2.02048e-11
1.18797e-11
-3.58343e-11
2.36265e-11
1.27721e-11
-3.93764e-11
2.71005e-11
1.31613e-11
-4.25441e-11
3.0333e-11
1.26382e-11
-4.50443e-11
3.29522e-11
1.10875e-11
-4.6551e-11
3.46706e-11
-4.70299e-11
3.56855e-11
1.4549e-12
-2.02016e-12
9.76488e-13
2.77029e-12
-5.8975e-12
2.87182e-12
3.9912e-12
-9.53399e-12
4.71134e-12
5.1563e-12
-1.30829e-11
6.60504e-12
6.2995e-12
-1.66658e-11
8.64746e-12
7.45057e-12
-2.03765e-11
1.09209e-11
8.63489e-12
-2.4282e-11
1.34956e-11
9.87149e-12
-2.84234e-11
1.64252e-11
1.11676e-11
-3.28146e-11
1.97379e-11
1.25076e-11
-3.74392e-11
2.34191e-11
1.38321e-11
-4.22437e-11
2.73852e-11
1.50018e-11
-4.71191e-11
3.14502e-11
1.57492e-11
-5.18546e-11
3.52995e-11
1.56724e-11
-5.60343e-11
3.85159e-11
1.45536e-11
-5.89392e-11
4.07348e-11
-5.92593e-11
4.21369e-11
1.63983e-12
-2.17851e-12
1.09822e-12
3.11994e-12
-6.3633e-12
3.22822e-12
4.48891e-12
-1.02984e-11
5.29066e-12
5.78848e-12
-1.41555e-11
7.40613e-12
7.05539e-12
-1.80733e-11
9.67782e-12
8.32234e-12
-2.21625e-11
1.21952e-11
9.61833e-12
-2.65092e-11
1.50341e-11
1.09678e-11
-3.11765e-11
1.8253e-11
1.23876e-11
-3.62057e-11
2.18837e-11
1.38805e-11
-4.16167e-11
2.59134e-11
1.54233e-11
-4.74053e-11
3.02575e-11
1.69469e-11
-5.3536e-11
3.47201e-11
1.83112e-11
-5.99148e-11
3.89559e-11
1.92964e-11
-6.63101e-11
4.24716e-11
1.96918e-11
-7.21122e-11
4.47834e-11
-7.63449e-11
4.60485e-11
1.79163e-12
1.19691e-12
-2.25922e-12
3.40571e-12
3.51631e-12
-6.60312e-12
4.89242e-12
5.75599e-12
-1.06993e-11
6.29476e-12
8.04322e-12
-1.47319e-11
7.65057e-12
1.0486e-11
-1.88517e-11
8.99377e-12
1.31773e-11
-2.3182e-11
1.03552e-11
1.61949e-11
-2.78226e-11
1.17628e-11
1.95978e-11
-3.28525e-11
1.32409e-11
2.34172e-11
-3.83311e-11
1.48079e-11
2.76387e-11
-4.42988e-11
1.6472e-11
3.21736e-11
-5.07758e-11
1.82237e-11
3.68171e-11
-5.77567e-11
2.00288e-11
4.11984e-11
-6.51944e-11
2.18136e-11
4.47605e-11
-7.29506e-11
2.33464e-11
4.69079e-11
-8.04329e-11
4.74102e-11
-8.83787e-11
1.49444e-13
-4.11768e-13
7.85104e-14
2.84831e-13
-1.19991e-12
2.31093e-13
4.11001e-13
-1.93259e-12
3.79757e-13
5.31984e-13
-2.63667e-12
5.3367e-13
6.51031e-13
-3.33119e-12
7.00608e-13
7.70619e-13
-4.02699e-12
8.87097e-13
8.92361e-13
-4.7259e-12
1.09821e-12
1.01678e-12
-5.41928e-12
1.3369e-12
1.14302e-12
-6.08598e-12
1.60268e-12
1.26873e-12
-6.69024e-12
1.88955e-12
1.39086e-12
-7.18038e-12
2.183e-12
1.50829e-12
-7.4889e-12
2.45713e-12
1.62712e-12
-7.53203e-12
2.67406e-12
1.76428e-12
-7.20346e-12
2.79249e-12
1.91978e-12
-6.40994e-12
2.7951e-12
-4.76336e-12
2.89167e-12
4.44735e-13
-8.11197e-13
2.33511e-13
8.47561e-13
-2.3643e-12
6.87285e-13
1.22279e-12
-3.80942e-12
1.12927e-12
1.58231e-12
-5.20023e-12
1.58662e-12
1.93576e-12
-6.57541e-12
2.08238e-12
2.29047e-12
-7.95812e-12
2.6359e-12
2.65109e-12
-9.35456e-12
3.26232e-12
3.01873e-12
-1.07515e-11
3.97056e-12
3.38952e-12
-1.2113e-11
4.75964e-12
3.75313e-12
-1.33778e-11
5.61258e-12
4.09245e-12
-1.44601e-11
6.48821e-12
4.38656e-12
-1.5261e-11
7.31302e-12
4.62024e-12
-1.56983e-11
7.97999e-12
4.7987e-12
-1.57603e-11
8.37274e-12
4.93885e-12
-1.55702e-11
8.44381e-12
-1.55008e-11
8.22154e-12
7.29495e-13
-1.18627e-12
3.8262e-13
1.38999e-12
-3.45853e-12
1.12601e-12
2.00467e-12
-5.57586e-12
1.84963e-12
2.59281e-12
-7.61882e-12
2.59765e-12
3.17013e-12
-9.64674e-12
3.40759e-12
3.74861e-12
-1.16976e-11
4.31105e-12
4.33573e-12
-1.37864e-11
5.33294e-12
4.93256e-12
-1.59025e-11
6.48852e-12
5.53036e-12
-1.80056e-11
7.77767e-12
6.10555e-12
-2.00229e-11
9.17586e-12
6.61349e-12
-2.18524e-11
1.06223e-11
6.98388e-12
-2.33803e-11
1.20093e-11
7.12691e-12
-2.45319e-11
1.31834e-11
6.97505e-12
-2.53581e-11
1.39851e-11
6.60914e-12
-2.60722e-11
1.4354e-11
-2.70182e-11
1.44593e-11
9.97289e-13
-1.52479e-12
5.2229e-13
1.89968e-12
-4.44717e-12
1.53672e-12
2.73832e-12
-7.17538e-12
2.52319e-12
3.53918e-12
-9.81644e-12
3.54138e-12
4.32365e-12
-1.24512e-11
4.64196e-12
5.10822e-12
-1.51349e-11
5.86783e-12
5.9034e-12
-1.78963e-11
7.25315e-12
6.71085e-12
-2.07348e-11
8.81976e-12
7.51782e-12
-2.3617e-11
1.05702e-11
8.28786e-12
-2.6472e-11
1.24767e-11
8.94681e-12
-2.91908e-11
1.44674e-11
9.36633e-12
-3.16345e-11
1.64155e-11
9.36078e-12
-3.36644e-11
1.81449e-11
8.75608e-12
-3.52045e-11
1.94805e-11
7.68454e-12
-3.63017e-11
2.03476e-11
-3.72553e-11
2.08907e-11
1.24236e-12
-1.81479e-12
6.49385e-13
2.36546e-12
-5.29531e-12
1.91008e-12
3.40725e-12
-8.55162e-12
3.1343e-12
4.3995e-12
-1.17159e-11
4.39517e-12
5.36866e-12
-1.48903e-11
5.75477e-12
6.33567e-12
-1.81492e-11
7.26577e-12
7.31477e-12
-2.15386e-11
8.97054e-12
8.31034e-12
-2.50748e-11
1.08972e-11
9.31043e-12
-2.87408e-11
1.30517e-11
1.02751e-11
-3.24809e-11
1.54061e-11
1.11177e-11
-3.61925e-11
1.78827e-11
1.16789e-11
-3.97148e-11
2.03428e-11
1.17092e-11
-4.28105e-11
2.25942e-11
1.09302e-11
-4.51485e-11
2.44446e-11
9.41481e-12
-4.63815e-11
2.57872e-11
-4.64942e-11
2.67308e-11
1.45998e-12
-2.04491e-12
7.61367e-13
2.7782e-12
-5.96969e-12
2.23856e-12
3.99795e-12
-9.65037e-12
3.67033e-12
5.15568e-12
-1.32416e-11
5.14078e-12
6.28207e-12
-1.68655e-11
6.72118e-12
7.40221e-12
-2.06151e-11
8.47196e-12
8.53476e-12
-2.45554e-11
1.04419e-11
9.68945e-12
-2.87229e-11
1.26642e-11
1.08616e-11
-3.31238e-11
1.5148e-11
1.20223e-11
-3.77288e-11
1.78651e-11
1.3102e-11
-4.24637e-11
2.07333e-11
1.39669e-11
-4.7188e-11
2.3601e-11
1.43983e-11
-5.16483e-11
2.62522e-11
1.41246e-11
-5.53913e-11
2.84582e-11
1.31018e-11
-5.77324e-11
3.00722e-11
-5.75219e-11
3.12188e-11
1.64666e-12
-2.20494e-12
8.56416e-13
3.13118e-12
-6.44032e-12
2.51677e-12
4.50058e-12
-1.04224e-11
4.12235e-12
5.79448e-12
-1.43239e-11
5.76542e-12
7.04663e-12
-1.82838e-11
7.52385e-12
8.28544e-12
-2.24115e-11
9.46338e-12
9.53378e-12
-2.6789e-11
1.1637e-11
1.08078e-11
-3.14726e-11
1.40805e-11
1.21141e-11
-3.64913e-11
1.68046e-11
1.34441e-11
-4.18451e-11
1.97798e-11
1.47665e-11
-4.74987e-11
2.29175e-11
1.60183e-11
-5.33705e-11
2.60497e-11
1.7103e-11
-5.93077e-11
2.89233e-11
1.79164e-11
-6.50322e-11
3.12424e-11
1.84042e-11
-6.9999e-11
3.27925e-11
-7.34602e-11
3.37444e-11
1.8003e-12
9.33513e-13
-2.2864e-12
3.42059e-12
2.74179e-12
-6.68229e-12
4.90964e-12
4.4857e-12
-1.08266e-11
6.30862e-12
6.26269e-12
-1.49045e-11
7.65275e-12
8.15443e-12
-1.90666e-11
8.97218e-12
1.02293e-11
-2.34341e-11
1.02925e-11
1.25415e-11
-2.81023e-11
1.16346e-11
1.51275e-11
-3.31413e-11
1.30141e-11
1.79965e-11
-3.85961e-11
1.44399e-11
2.11164e-11
-4.44839e-11
1.59133e-11
2.43922e-11
-5.07899e-11
1.74285e-11
2.76409e-11
-5.74594e-11
1.89836e-11
3.05761e-11
-6.43872e-11
2.05943e-11
3.28358e-11
-7.1396e-11
2.21596e-11
3.41269e-11
-7.79849e-11
3.44277e-11
-8.50803e-11
1.49395e-13
-4.15632e-13
5.37331e-14
2.84513e-13
-1.21124e-12
1.58126e-13
4.09955e-13
-1.9511e-12
2.59736e-13
5.29421e-13
-2.66247e-12
3.64741e-13
6.45678e-13
-3.36476e-12
4.78308e-13
7.6051e-13
-4.0693e-12
6.04668e-13
8.7455e-13
-4.77875e-12
7.46952e-13
9.86962e-13
-5.48591e-12
9.06714e-13
1.09506e-12
-6.17199e-12
1.08306e-12
1.19436e-12
-6.80488e-12
1.27137e-12
1.27981e-12
-7.33772e-12
1.46192e-12
1.34978e-12
-7.70739e-12
1.63902e-12
1.41423e-12
-7.82874e-12
1.78249e-12
1.50311e-12
-7.57843e-12
1.87427e-12
1.6387e-12
-6.82479e-12
1.90953e-12
-5.14085e-12
2.03678e-12
4.44671e-13
-8.188e-13
1.59823e-13
8.46788e-13
-2.38658e-12
4.70305e-13
1.21995e-12
-3.84571e-12
7.72416e-13
1.57511e-12
-5.25058e-12
1.08445e-12
1.92052e-12
-6.6405e-12
1.42174e-12
2.26153e-12
-8.03943e-12
1.79682e-12
2.60006e-12
-9.45485e-12
2.21906e-12
2.93342e-12
-1.08756e-11
2.6932e-12
3.25283e-12
-1.22692e-11
3.21686e-12
3.54259e-12
-1.3579e-11
3.77695e-12
3.78155e-12
-1.47251e-11
4.34571e-12
3.95096e-12
-1.56103e-11
4.87824e-12
4.05373e-12
-1.61391e-11
5.31623e-12
4.14199e-12
-1.62539e-11
5.60496e-12
4.29385e-12
-1.60064e-11
5.72535e-12
-1.5721e-11
5.6624e-12
7.29632e-13
-1.19734e-12
2.61899e-13
1.38923e-12
-3.4909e-12
7.7059e-13
2.00085e-12
-5.62839e-12
1.26526e-12
2.58232e-12
-7.69124e-12
1.77567e-12
3.14726e-12
-9.73954e-12
2.32675e-12
3.70474e-12
-1.1812e-11
2.93905e-12
4.25811e-12
-1.39248e-11
3.62801e-12
4.80299e-12
-1.60687e-11
4.40184e-12
5.32397e-12
-1.82059e-11
5.25767e-12
5.791e-12
-2.02669e-11
6.17625e-12
6.15707e-12
-2.21514e-11
7.11615e-12
6.36239e-12
-2.37418e-11
8.01084e-12
6.35631e-12
-2.49398e-11
8.77523e-12
6.15361e-12
-2.57408e-11
9.33083e-12
5.9117e-12
-2.62958e-11
9.64777e-12
-2.69484e-11
9.79093e-12
9.97909e-13
-1.53888e-12
3.57539e-13
1.89953e-12
-4.48832e-12
1.05178e-12
2.73461e-12
-7.24189e-12
1.72621e-12
3.5273e-12
-9.90753e-12
2.42104e-12
4.29644e-12
-1.25667e-11
3.16999e-12
5.05499e-12
-1.52751e-11
4.00095e-12
5.80857e-12
-1.80615e-11
4.93518e-12
6.55256e-12
-2.09256e-11
5.98459e-12
7.26711e-12
-2.38333e-11
7.14707e-12
7.91012e-12
-2.67129e-11
8.39999e-12
8.40892e-12
-2.94512e-11
9.6935e-12
8.65551e-12
-3.18981e-11
1.09481e-11
8.52193e-12
-3.38882e-11
1.20647e-11
7.93818e-12
-3.52992e-11
1.2956e-11
7.10507e-12
-3.61472e-11
1.35808e-11
-3.67688e-11
1.39818e-11
1.24376e-12
-1.83136e-12
4.44597e-13
2.3666e-12
-5.34362e-12
1.30748e-12
3.40488e-12
-8.62941e-12
2.14457e-12
4.3884e-12
-1.18217e-11
3.00512e-12
5.34086e-12
-1.50232e-11
3.93049e-12
6.2794e-12
-1.83077e-11
4.95498e-12
7.21313e-12
-2.17202e-11
6.10498e-12
8.14009e-12
-2.52746e-11
7.39599e-12
9.04168e-12
-2.89498e-11
8.82728e-12
9.87402e-12
-3.26832e-11
1.03746e-11
1.05558e-11
-3.63607e-11
1.19824e-11
1.09557e-11
-3.98034e-11
1.35617e-11
1.08928e-11
-4.27469e-11
1.50016e-11
1.02025e-11
-4.4833e-11
1.62032e-11
9.01334e-12
-4.57255e-11
1.71062e-11
-4.54855e-11
1.77334e-11
1.46243e-12
-2.06335e-12
5.21333e-13
2.78124e-12
-6.02336e-12
1.53253e-12
3.99812e-12
-9.7365e-12
2.51166e-12
5.14751e-12
-1.33581e-11
3.51542e-12
6.25736e-12
-1.70103e-11
4.59131e-12
7.34899e-12
-2.0785e-11
5.77873e-12
8.43612e-12
-2.47444e-11
7.10814e-12
9.52254e-12
-2.89204e-11
8.59784e-12
1.05978e-11
-3.33111e-11
1.02482e-11
1.16307e-11
-3.78743e-11
1.20335e-11
1.25592e-11
-4.25168e-11
1.38927e-11
1.32807e-11
-4.70729e-11
1.57251e-11
1.36479e-11
-5.1262e-11
1.74009e-11
1.35014e-11
-5.46214e-11
1.87968e-11
1.28444e-11
-5.65223e-11
1.98332e-11
-5.59658e-11
2.05545e-11
1.65037e-12
-2.22458e-12
5.8649e-13
3.13664e-12
-6.49742e-12
1.72321e-12
4.50429e-12
-1.05137e-11
2.82136e-12
5.79104e-12
-1.4447e-11
3.94317e-12
7.02809e-12
-1.84355e-11
5.14059e-12
8.24034e-12
-2.25869e-11
6.45654e-12
9.44618e-12
-2.69794e-11
7.92404e-12
1.06565e-11
-3.16623e-11
9.56294e-12
1.18729e-11
-3.66534e-11
1.13737e-11
1.30855e-11
-4.19352e-11
1.33284e-11
1.42711e-11
-4.74483e-11
1.53594e-11
1.53959e-11
-5.30801e-11
1.73509e-11
1.64294e-11
-5.86497e-11
1.91443e-11
1.73703e-11
-6.388e-11
2.05713e-11
1.82082e-11
-6.83133e-11
2.15183e-11
-7.13841e-11
2.20845e-11
1.80541e-12
6.39359e-13
-2.30655e-12
3.4288e-12
1.8775e-12
-6.74086e-12
4.91758e-12
3.07045e-12
-1.09202e-11
6.3112e-12
4.28398e-12
-1.50301e-11
7.64259e-12
5.57262e-12
-1.92205e-11
8.93885e-12
6.98106e-12
-2.36103e-11
1.02216e-11
8.54321e-12
-2.82901e-11
1.15072e-11
1.02789e-11
-3.33219e-11
1.28072e-11
1.21877e-11
-3.87377e-11
1.41294e-11
1.42388e-11
-4.45356e-11
1.54818e-11
1.63583e-11
-5.06746e-11
1.68829e-11