/*--------------------------------*- C++ -*----------------------------------*\
| =========                 |                                                 |
| \\      /  F ield         | OpenFOAM: The Open Source CFD Toolbox           |
|  \\    /   O peration     | Version:  v1912                                 |
|   \\  /    A nd           | Website:  www.openfoam.com                      |
|    \\/     M anipulation  |                                                 |
\*---------------------------------------------------------------------------*/
FoamFile
{
    version     2.0;
    format      ascii;
    class       volScalarField;
    location    "0.8/fluid";
    object      p;
}
// * * * * * * * * * * * * * * * * * * * * * * * * * * * * * * * * * * * * * //

dimensions      [0 2 -2 0 0 0 0];


internalField   nonuniform List<scalar> 
14592
(
0.050972
0.0453502
0.043446
0.0418472
0.0409416
0.0402567
0.0397416
0.0393102
0.038911
0.0385931
0.0382254
0.0380604
0.0376077
0.0378506
0.0370759
0.0388971
0.0468117
0.0450623
0.043381
0.0420147
0.0410975
0.0403883
0.0398426
0.0393938
0.0389878
0.0386751
0.0383197
0.0381884
0.0377706
0.0381507
0.0373284
0.0401007
0.0448205
0.0442094
0.0429745
0.0419701
0.0411285
0.0404451
0.0398871
0.0394279
0.0390173
0.0387129
0.0383811
0.0383055
0.0379522
0.0385235
0.0377718
0.0413559
0.0436417
0.0434994
0.0426401
0.0418853
0.041136
0.0404836
0.0399134
0.0394341
0.0390054
0.0386948
0.0383716
0.0383384
0.0380462
0.038787
0.0381529
0.0422178
0.0429412
0.042923
0.0422972
0.041706
0.0410419
0.0404262
0.0398537
0.0393551
0.038898
0.0385576
0.0382033
0.0381528
0.0378389
0.0386392
0.0380259
0.042433
0.0424872
0.0425055
0.042026
0.0415323
0.040928
0.0403367
0.0397593
0.03924
0.0387532
0.0383822
0.0380018
0.0379502
0.0376587
0.0386074
0.0381669
0.0431257
0.0421901
0.0422138
0.0418101
0.0413662
0.040793
0.0402081
0.0396138
0.0390577
0.0385147
0.0380638
0.0375722
0.0373633
0.0368344
0.0374924
0.0365044
0.0415509
0.0420118
0.0420364
0.041664
0.0412381
0.040672
0.040079
0.0394618
0.0388692
0.0382787
0.0377679
0.0372139
0.0369458
0.0363971
0.0372253
0.036505
0.0439678
0.0508893
0.0452695
0.0434028
0.0418454
0.0409932
0.0403676
0.0399192
0.0395625
0.0392497
0.039028
0.0387756
0.0387084
0.0383955
0.0385507
0.0379028
0.0385068
0.0467291
0.0449799
0.0433369
0.0420125
0.0411493
0.0405001
0.0400217
0.0396483
0.0393294
0.0391134
0.0388726
0.0388342
0.0385413
0.0387812
0.038058
0.0390595
0.0447338
0.0441212
0.0429233
0.0419605
0.0411732
0.0405507
0.0400609
0.0396778
0.0393546
0.0391473
0.0389285
0.0389431
0.0387047
0.0390955
0.0383909
0.0398436
0.0435525
0.0434081
0.0425845
0.0418703
0.0411744
0.0405821
0.0400794
0.0396757
0.0393335
0.0391199
0.0389081
0.0389647
0.0387791
0.0393199
0.0386954
0.040439
0.0428489
0.0428284
0.042237
0.041685
0.0410728
0.0405154
0.0400083
0.0395829
0.0392086
0.0389612
0.0387109
0.0387442
0.0385181
0.0391025
0.0384411
0.0404282
0.042392
0.042408
0.0419621
0.0415064
0.040952
0.0404167
0.0399021
0.0394529
0.039045
0.0387637
0.0384816
0.0385144
0.0383004
0.0390452
0.0385186
0.0410144
0.0420915
0.0421129
0.0417418
0.0413346
0.0408094
0.0402775
0.039742
0.0392506
0.0387784
0.038407
0.0379958
0.0378536
0.0373552
0.0377911
0.036569
0.0391491
0.0419094
0.0419316
0.0415913
0.0412009
0.0406811
0.0401383
0.0395762
0.0390437
0.0385178
0.0380803
0.0375981
0.0373986
0.036872
0.0375386
0.0365423
0.041609
0.0508412
0.0452231
0.043385
0.0418612
0.0410548
0.0404826
0.0400983
0.0398181
0.0396024
0.0395012
0.039421
0.039561
0.0396072
0.0401022
0.0402515
0.0409781
0.0466811
0.0449322
0.0433187
0.0420284
0.0412117
0.0406166
0.040203
0.0399072
0.0396868
0.0395934
0.0395274
0.0396984
0.0397695
0.0403411
0.0404683
0.0414885
0.0446818
0.0440681
0.0428985
0.0419693
0.0412289
0.0406612
0.0402369
0.0399321
0.039708
0.0396244
0.0395809
0.0398084
0.03994
0.0406721
0.040862
0.0422816
0.0434977
0.0433518
0.0425551
0.0418736
0.0412235
0.0406855
0.0402478
0.039922
0.0396783
0.0395889
0.0395524
0.0398263
0.0400148
0.0409094
0.041204
0.0428983
0.0427905
0.0427684
0.0422026
0.041682
0.0411141
0.0406095
0.0401652
0.0398154
0.0395361
0.0394094
0.0393281
0.0395756
0.039712
0.040652
0.0408886
0.0428175
0.0423304
0.0423447
0.0419236
0.041498
0.0409861
0.0405015
0.0400471
0.0396704
0.0393529
0.0391882
0.0390674
0.0393116
0.039445
0.0405521
0.0408846
0.0433254
0.0420262
0.0420459
0.0416987
0.0413204
0.0408356
0.0403515
0.0398722
0.0394478
0.0390575
0.038791
0.0385199
0.0385644
0.0383517
0.0391026
0.0385535
0.0410422
0.0418401
0.0418608
0.0415437
0.0411811
0.0406997
0.0402019
0.0396923
0.0392214
0.0387693
0.0384268
0.0380673
0.038038
0.0377524
0.0387217
0.0382574
0.043251
0.0508154
0.0451985
0.0433816
0.0418838
0.0411129
0.0405817
0.0402457
0.0400195
0.039867
0.0398308
0.0398295
0.0400228
0.0401552
0.0406086
0.040825
0.0413196
0.0466553
0.0449066
0.043315
0.0420511
0.0412705
0.0407169
0.040352
0.0401108
0.0399541
0.039926
0.039939
0.0401606
0.0403134
0.0408185
0.0410048
0.0416962
0.0446523
0.0440378
0.042889
0.0419858
0.0412817
0.0407561
0.040381
0.0401313
0.0399705
0.0399518
0.0399844
0.0402576
0.0404598
0.0411015
0.041323
0.0423259
0.0434653
0.0433183
0.0425414
0.0418848
0.0412704
0.0407741
0.0403849
0.0401137
0.0399324
0.0399071
0.039944
0.0402609
0.040511
0.0413008
0.0416024
0.04284
0.0427547
0.0427313
0.0421843
0.0416874
0.0411539
0.0406896
0.0402923
0.0399952
0.0397754
0.0397099
0.0396961
0.0399816
0.0401652
0.0409889
0.0411964
0.042646
0.0422914
0.0423044
0.0419013
0.0414984
0.0410193
0.0405733
0.0401638
0.0398375
0.0395764
0.0394701
0.0394117
0.0396922
0.0398614
0.0408521
0.0411234
0.0430758
0.0419837
0.0420021
0.0416722
0.0413155
0.0408617
0.0404142
0.0399768
0.0395991
0.0392597
0.0390457
0.038826
0.0388987
0.0386966
0.0393242
0.0386469
0.0406381
0.041794
0.0418134
0.0415131
0.0411712
0.0407192
0.0402559
0.0397854
0.0393578
0.038952
0.0386575
0.0383423
0.0383401
0.038053
0.0389138
0.038283
0.0427718
0.0508044
0.0451885
0.0433879
0.0419107
0.0411685
0.0406717
0.0403775
0.0402001
0.0401076
0.0401388
0.0402265
0.0405041
0.0407697
0.0412924
0.0416866
0.0421236
0.0466443
0.044896
0.0433212
0.0420784
0.0413271
0.0408083
0.0404858
0.0402939
0.0401984
0.040239
0.0403427
0.0406497
0.0409378
0.0415061
0.0418731
0.0424681
0.0446383
0.0440233
0.0428904
0.0420079
0.0413333
0.0408431
0.0405108
0.0403109
0.0402111
0.0402609
0.0403827
0.0407389
0.0410707
0.0417637
0.0421575
0.0430243
0.0434488
0.043301
0.0425392
0.0419025
0.041317
0.0408555
0.0405087
0.040287
0.0401661
0.0402088
0.0403332
0.0407321
0.041107
0.0419425
0.0424055
0.0434921
0.0427351
0.0427108
0.0421779
0.0417001
0.0411942
0.0407637
0.0404073
0.0401582
0.0399963
0.0399964
0.0400652
0.0404291
0.040727
0.0415899
0.0419357
0.0432246
0.0422689
0.042281
0.0418914
0.0415065
0.0410539
0.0406401
0.0402697
0.0399892
0.039783
0.0397394
0.0397582
0.040114
0.0403863
0.0414127
0.0417947
0.043581
0.0419579
0.0419756
0.0416586
0.0413188
0.0408901
0.0404729
0.040072
0.0397368
0.0394473
0.0392901
0.0391374
0.0392759
0.039153
0.0398024
0.0391761
0.0409826
0.0417651
0.0417837
0.0414959
0.0411701
0.0407417
0.0403069
0.0398702
0.0394817
0.039121
0.0388777
0.0386203
0.0386763
0.0384483
0.0393235
0.0386915
0.0429773
0.050801
0.0451858
0.0433967
0.041934
0.0412121
0.0407391
0.040473
0.0403266
0.0402698
0.0403353
0.0404631
0.0407635
0.0410641
0.0415665
0.0419771
0.0423616
0.046641
0.0448928
0.0433299
0.0421019
0.0413712
0.0408765
0.0405825
0.040422
0.0403624
0.0404378
0.0405818
0.0409109
0.0412329
0.0417746
0.0421538
0.0426713
0.0446325
0.0440171
0.0428955
0.0420276
0.0413737
0.0409079
0.0406043
0.040436
0.0403719
0.0404558
0.0406157
0.0409904
0.0413488
0.0420028
0.042395
0.0431589
0.043441
0.0432926
0.0425413
0.0419187
0.0413534
0.040916
0.0405976
0.0404072
0.0403212
0.0403974
0.0405579
0.0409731
0.0413686
0.0421575
0.0426055
0.043579
0.0427248
0.0426998
0.0421768
0.0417122
0.0412258
0.0408185
0.0404896
0.0402706
0.0401421
0.0401739
0.0402754
0.0406526
0.040963
0.0417728
0.0420854
0.0432556
0.0422562
0.0422677
0.0418875
0.0415151
0.041081
0.0406894
0.0403451
0.0400934
0.0399187
0.0399051
0.0399534
0.0403207
0.0405983
0.0415688
0.0418999
0.0435649
0.0419428
0.0419597
0.0416517
0.0413238
0.0409125
0.0405163
0.0401397
0.0398313
0.0395704
0.0394403
0.0393121
0.0394589
0.0393308
0.0399203
0.0392156
0.0408906
0.0417475
0.0417655
0.0414862
0.0411716
0.0407597
0.0403446
0.0399306
0.0395669
0.0392321
0.0390136
0.0387766
0.0388395
0.0385992
0.0394156
0.0386854
0.0428297
0.0508015
0.0451867
0.0434052
0.0419524
0.0412442
0.0407878
0.0405418
0.0404182
0.0403886
0.0404825
0.0406451
0.0409729
0.0413129
0.0418245
0.0422676
0.0426291
0.0466414
0.0448935
0.0433385
0.0421205
0.0414039
0.040926
0.0406524
0.0405151
0.0404833
0.0405877
0.0407674
0.0411246
0.0414868
0.0420363
0.0424482
0.0429292
0.0446313
0.0440157
0.0429015
0.0420436
0.0414038
0.0409551
0.0406721
0.0405273
0.0404908
0.0406034
0.0407979
0.0411989
0.0415936
0.0422485
0.0426664
0.0433806
0.0434384
0.0432897
0.0425454
0.0419323
0.0413809
0.0409603
0.0406623
0.0404951
0.0404364
0.0405408
0.0407348
0.0411751
0.0416035
0.0423895
0.0428555
0.0437743
0.0427204
0.042695
0.0421787
0.041723
0.0412499
0.0408589
0.0405496
0.0403531
0.0402507
0.0403096
0.0404422
0.0408425
0.0411806
0.0419836
0.0423032
0.0434157
0.0422502
0.0422613
0.0418873
0.0415234
0.0411019
0.0407259
0.0404003
0.04017
0.0400199
0.0400321
0.0401089
0.0404975
0.0407974
0.0417583
0.0420841
0.0436899
0.041935
0.0419516
0.0416494
0.0413295
0.0409301
0.0405485
0.0401894
0.0399009
0.0396624
0.0395559
0.0394523
0.0396174
0.0395037
0.0400789
0.0393494
0.0409567
0.041738
0.0417556
0.0414819
0.0411749
0.0407742
0.0403727
0.039975
0.0396297
0.0393151
0.0391177
0.0389017
0.0389801
0.0387471
0.0395461
0.0387744
0.0428441
0.050802
0.0451881
0.0434096
0.0419618
0.04126
0.0408112
0.0405741
0.04046
0.0404409
0.0405442
0.0407172
0.0410493
0.0413961
0.0419003
0.0423459
0.0426983
0.0466424
0.0448943
0.043343
0.04213
0.0414199
0.0409497
0.0406849
0.0405571
0.0405358
0.0406493
0.040839
0.0411997
0.0415678
0.0421081
0.042522
0.042989
0.0446312
0.0440155
0.042905
0.0420517
0.0414185
0.0409775
0.0407035
0.040568
0.0405417
0.0406629
0.0408661
0.0412687
0.0416663
0.0423078
0.0427241
0.0434192
0.0434376
0.0432887
0.0425479
0.0419392
0.0413942
0.0409812
0.0406919
0.040534
0.0404851
0.0405979
0.0407998
0.0412407
0.0416698
0.0424399
0.0429002
0.0437977
0.0427188
0.0426931
0.04218
0.0417285
0.0412615
0.0408779
0.0405771
0.0403895
0.0402965
0.0403633
0.0405029
0.040903
0.0412397
0.0420248
0.0423338
0.0434236
0.0422478
0.0422586
0.0418876
0.0415276
0.041112
0.040743
0.0404255
0.0402038
0.0400625
0.0400821
0.0401651
0.040553
0.0408494
0.0417909
0.0421
0.0436814
0.0419316
0.0419479
0.0416486
0.0413324
0.0409386
0.0405635
0.0402121
0.0399316
0.0397014
0.0396017
0.0395033
0.0396674
0.0395484
0.0401036
0.0393511
0.0409307
0.0417338
0.0417511
0.0414802
0.0411767
0.0407812
0.0403859
0.0399953
0.0396574
0.0393503
0.0391592
0.0389474
0.0390243
0.038784
0.0395613
0.0387588
0.0427937
0.0602595
0.0495065
0.0458486
0.0428513
0.041129
0.0397998
0.0387748
0.0378523
0.0369609
0.0360481
0.0350351
0.0339379
0.0326209
0.0312
0.0294226
0.0276137
0.0559966
0.0487616
0.0454827
0.0427677
0.0410984
0.0397954
0.0387792
0.0378628
0.0369783
0.0360754
0.0350726
0.0339889
0.0326862
0.0312836
0.0295209
0.0277227
0.0539854
0.0477135
0.0448382
0.0424586
0.040918
0.0396986
0.0387202
0.0378259
0.036956
0.0360671
0.0350797
0.034014
0.0327374
0.0313653
0.0296392
0.0278705
0.052738
0.0469071
0.0443682
0.0422206
0.0407955
0.0396425
0.0386896
0.0378052
0.0369379
0.0360498
0.0350659
0.0340069
0.0327447
0.0313906
0.0296901
0.0279454
0.0519929
0.0462923
0.0439595
0.0419662
0.0406398
0.0395487
0.0386248
0.0377527
0.036888
0.035998
0.0350134
0.033955
0.0327013
0.0313586
0.0296821
0.0279619
0.0515107
0.0458594
0.0436616
0.0417653
0.0405091
0.039461
0.0385573
0.0376915
0.0368249
0.035929
0.0349401
0.0338788
0.0326312
0.0312979
0.029648
0.0279556
0.0512062
0.0455692
0.0434436
0.0416009
0.040387
0.0393647
0.0384729
0.037608
0.0367352
0.0358293
0.0348313
0.0337603
0.0325128
0.0311811
0.029558
0.0278946
0.0510363
0.0454038
0.0433101
0.0414899
0.0402936
0.0392796
0.0383894
0.0375194
0.0366372
0.0357206
0.0347145
0.0336359
0.0323931
0.0310682
0.0294807
0.027853
0.055998
0.0487609
0.0454796
0.0427608
0.0410863
0.0397765
0.0387529
0.0378304
0.0369344
0.0360141
0.0349899
0.0338843
0.0325505
0.0311244
0.0293202
0.0275273
0.0518104
0.0483791
0.0452981
0.0428041
0.0411402
0.0398264
0.0387873
0.0378552
0.0369541
0.0360325
0.0350094
0.0339081
0.0325814
0.03117
0.029383
0.027603
0.0497978
0.0474258
0.0447318
0.0425671
0.0410078
0.0397586
0.0387431
0.0378245
0.0369312
0.0360167
0.0350038
0.0339153
0.0326101
0.0312219
0.0294648
0.0277131
0.0485653
0.0466408
0.0442949
0.042364
0.040914
0.039724
0.0387276
0.0378132
0.0369172
0.0360002
0.0349885
0.033905
0.0326129
0.0312415
0.0295091
0.0277799
0.0478262
0.0460222
0.0438929
0.0421186
0.0407666
0.0396369
0.0386683
0.0377645
0.0368695
0.0359502
0.0349378
0.0338552
0.032572
0.031212
0.0295034
0.0277981
0.0473475
0.0455835
0.0435955
0.04192
0.0406387
0.0395522
0.038604
0.0377064
0.0368096
0.0358855
0.0348704
0.0337866
0.032512
0.0311636
0.029484
0.0278067
0.0470444
0.0452892
0.0433765
0.0417557
0.0405174
0.0394572
0.0385211
0.037625
0.0367231
0.0357902
0.0347677
0.0336758
0.0324035
0.0310581
0.0294083
0.0277594
0.0468751
0.0451223
0.0432431
0.0416454
0.0404253
0.039374
0.0384398
0.0375393
0.0366299
0.0356879
0.0346597
0.033563
0.0322993
0.030964
0.0293548
0.0277416
0.0540102
0.0477375
0.044869
0.0424961
0.0409642
0.0397533
0.0387874
0.0379094
0.037042
0.0361474
0.0351366
0.0340466
0.0326863
0.031244
0.0292906
0.027413
0.0498226
0.0474521
0.0447691
0.0426166
0.0410729
0.039841
0.0388485
0.0379551
0.0370788
0.03618
0.0351693
0.0340834
0.0327309
0.0313037
0.029368
0.0275061
0.0478072
0.0465673
0.0442946
0.0424819
0.0410189
0.0398264
0.0388383
0.0379478
0.0370731
0.0361767
0.035174
0.0340996
0.0327679
0.0313613
0.0294466
0.0275993
0.0465906
0.0458162
0.0439093
0.042339
0.0409764
0.0398306
0.0388492
0.037954
0.0370705
0.0361673
0.0351637
0.0340933
0.0327749
0.031385
0.0294929
0.0276665
0.045862
0.0452113
0.0435331
0.0421254
0.0408575
0.0397655
0.0388041
0.0379131
0.0370258
0.0361163
0.0351093
0.0340374
0.0327264
0.031346
0.0294774
0.0276748
0.0453904
0.0447775
0.0432466
0.0419407
0.0407428
0.039691
0.0387455
0.0378565
0.0369643
0.0360473
0.0350362
0.0339622
0.0326614
0.031295
0.0294636
0.0276962
0.0450905
0.0444841
0.0430313
0.0417815
0.0406263
0.0395988
0.0386619
0.0377707
0.0368705
0.0359411
0.0349189
0.0338325
0.032532
0.0311659
0.0293742
0.0276429
0.0449218
0.0443168
0.0428985
0.0416724
0.0405349
0.0395151
0.038577
0.0376788
0.0367695
0.0358286
0.0347991
0.0337062
0.0324171
0.0310647
0.029332
0.0276506
0.0527889
0.046958
0.04444
0.0423167
0.0409231
0.0398043
0.0388922
0.0380536
0.0372158
0.036353
0.035361
0.0342969
0.0329008
0.0314413
0.0292549
0.0272505
0.0486168
0.046694
0.0443746
0.042475
0.0410649
0.0399191
0.0389749
0.0381155
0.0372644
0.036396
0.0354037
0.0343448
0.0329583
0.0315177
0.0293472
0.0273605
0.0466166
0.0458421
0.0439512
0.0424009
0.0410641
0.0399465
0.0389959
0.0381305
0.0372746
0.0364052
0.0354199
0.0343724
0.0330062
0.0315826
0.0294157
0.0274162
0.045417
0.0451139
0.0435965
0.042294
0.0410541
0.0399764
0.0390245
0.0381477
0.0372787
0.0363999
0.0354129
0.0343694
0.033017
0.0316099
0.0294588
0.0274724
0.0447007
0.0445227
0.0432384
0.0421016
0.0409542
0.0399253
0.0389875
0.0381097
0.0372327
0.036344
0.0353508
0.0343029
0.0329555
0.0315549
0.029425
0.027461
0.044237
0.0440962
0.0429606
0.0419263
0.0408475
0.0398557
0.0389297
0.0380506
0.0371658
0.036267
0.035268
0.0342174
0.0328828
0.0315007
0.0294208
0.0275049
0.0439408
0.0438058
0.0427487
0.0417704
0.0407329
0.039763
0.038842
0.0379571
0.0370604
0.0361441
0.0351287
0.0340587
0.0327204
0.0313332
0.029309
0.0274424
0.0437728
0.0436387
0.042616
0.0416609
0.0406401
0.039676
0.0387513
0.0378568
0.036948
0.0360167
0.0349918
0.0339131
0.0325911
0.0312244
0.0292913
0.0275033
0.0520726
0.0463736
0.0440824
0.0421398
0.0408807
0.0398661
0.03903
0.0382576
0.03748
0.0366854
0.0357515
0.034765
0.0333717
0.0319505
0.0294673
0.027308
0.0479068
0.0461052
0.0440237
0.0423083
0.0410334
0.0399919
0.0391225
0.038328
0.0375376
0.0367388
0.0358067
0.0348296
0.0334504
0.0320574
0.029588
0.0274404
0.0459159
0.045265
0.0436242
0.0422651
0.0410621
0.0400446
0.0391637
0.0383582
0.0375603
0.0367601
0.0358365
0.0348731
0.0335152
0.0321364
0.0296418
0.0274362
0.0447283
0.0445501
0.0432869
0.0421789
0.0410713
0.0400895
0.0392025
0.0383815
0.0375677
0.036757
0.035832
0.0348748
0.033533
0.0321737
0.029685
0.0274815
0.0440218
0.0439691
0.0429417
0.0420009
0.0409843
0.0400475
0.0391699
0.0383431
0.0375167
0.0366919
0.035757
0.0347917
0.0334516
0.0320962
0.0296257
0.0274447
0.0435647
0.0435491
0.0426709
0.0418326
0.0408829
0.0399801
0.0391107
0.0382783
0.0374399
0.0366012
0.0356578
0.0346884
0.0333642
0.0320352
0.0296347
0.0275262
0.0432715
0.0432614
0.0424618
0.0416788
0.0407687
0.0398846
0.0390163
0.0381731
0.037316
0.0364512
0.0354816
0.0344795
0.0331409
0.0317936
0.0294685
0.027431
0.0431032
0.043094
0.0423284
0.0415679
0.0406728
0.0397917
0.0389167
0.0380596
0.037185
0.0362988
0.0353137
0.0342967
0.0329772
0.0316579
0.0294705
0.0275687
0.0516086
0.0459604
0.0438287
0.0420144
0.0408683
0.0399465
0.0391864
0.0384853
0.0377758
0.0370593
0.0361922
0.0352932
0.0338921
0.0324993
0.0295729
0.0271852
0.0474462
0.0456848
0.0437696
0.0421847
0.0410239
0.0400763
0.0392829
0.0385601
0.0378388
0.0371199
0.036257
0.0353725
0.0339903
0.0326367
0.0297018
0.0272699
0.0454603
0.0448461
0.0433768
0.0421518
0.0410638
0.0401398
0.0393329
0.0385973
0.0378681
0.0371489
0.0362968
0.0354299
0.0340684
0.0327217
0.0296972
0.0270976
0.04428
0.0441374
0.0430467
0.0420735
0.0410799
0.0401898
0.0393741
0.0386206
0.0378742
0.0371444
0.036292
0.0354344
0.0340905
0.0327655
0.0297195
0.0270822
0.0435794
0.0435622
0.0427075
0.0419013
0.0409974
0.0401498
0.03934
0.0385768
0.0378138
0.037066
0.0361992
0.0353293
0.0339813
0.0326559
0.0296174
0.0269956
0.0431264
0.0431459
0.0424401
0.0417356
0.0408969
0.0400806
0.0392758
0.0385032
0.0377243
0.0369588
0.0360808
0.0352064
0.0338791
0.0325941
0.0296552
0.0271461
0.0428345
0.0428595
0.0422317
0.0415813
0.0407803
0.0399797
0.0391723
0.0383831
0.0375783
0.0367769
0.0358604
0.0349361
0.0335785
0.0322561
0.0294221
0.0270218
0.0426651
0.0426909
0.0420966
0.0414677
0.04068
0.0398798
0.0390625
0.0382547
0.0374268
0.0365973
0.0356599
0.034716
0.0333865
0.0321156
0.0295047
0.0273697
0.051305
0.045673
0.0436454
0.0419238
0.0408737
0.0400404
0.0393653
0.0387541
0.0381429
0.0375514
0.0368261
0.0361341
0.0349126
0.0338375
0.0307563
0.0284721
0.047144
0.0453916
0.0435838
0.0420929
0.0410297
0.0401711
0.0394633
0.0388322
0.0382112
0.0376201
0.0369026
0.0362324
0.0350362
0.0340185
0.0309019
0.0285053
0.0451585
0.0445497
0.0431895
0.0420601
0.041071
0.0402366
0.0395149
0.0388713
0.0382433
0.0376544
0.0369515
0.0363077
0.0351384
0.0341432
0.0308937
0.0282543
0.0439812
0.0438428
0.0428608
0.041983
0.0410874
0.0402859
0.0395538
0.038891
0.0382453
0.0376468
0.0369463
0.0363196
0.0351764
0.0342236
0.0309396
0.0282374
0.0432831
0.0432696
0.0425231
0.0418116
0.0410042
0.0402432
0.039514
0.0388379
0.0381715
0.0375509
0.036831
0.0361887
0.0350364
0.0340879
0.0308032
0.0281173
0.0428316
0.0428547
0.0422565
0.0416453
0.0409011
0.0401693
0.0394418
0.0387521
0.0380652
0.0374224
0.0366869
0.0360396
0.0349112
0.0340246
0.0308702
0.0283544
0.0425393
0.0425679
0.042047
0.0414886
0.0407797
0.0400606
0.0393259
0.0386128
0.0378904
0.0371979
0.0364038
0.0356768
0.0344778
0.0335024
0.0304336
0.0280537
0.0423676
0.042397
0.0419089
0.0413709
0.0406733
0.0399516
0.0392029
0.0384652
0.0377118
0.0369806
0.0361533
0.0353927
0.0342145
0.033304
0.030526
0.0286316
0.051103
0.0454778
0.0435225
0.0418699
0.0408978
0.0401411
0.0395445
0.0390173
0.0384977
0.0380155
0.0374077
0.0368639
0.0357405
0.0347902
0.0313018
0.0285694
0.0469425
0.0451925
0.0434589
0.0420379
0.0410536
0.0402719
0.0396437
0.0390977
0.0385695
0.0380898
0.0374911
0.0369726
0.0358695
0.0349612
0.0312702
0.0279555
0.0449548
0.0443454
0.0430591
0.0420001
0.041091
0.0403342
0.0396927
0.0391351
0.0386009
0.0381257
0.037544
0.0370576
0.0359764
0.0350811
0.0311119
0.027115
0.0437777
0.0436377
0.0427285
0.0419201
0.041104
0.0403791
0.0397261
0.0391486
0.0385963
0.0381124
0.0375343
0.0370709
0.0360169
0.0351701
0.0311085
0.0268632
0.0430793
0.0430638
0.0423891
0.0417458
0.0410165
0.0403303
0.0396773
0.0390836
0.0385068
0.0379966
0.037393
0.0369096
0.0358359
0.034992
0.030908
0.0266344
0.0426272
0.0426483
0.042121
0.0415767
0.0409088
0.0402495
0.0395949
0.0389842
0.0383827
0.0378466
0.0372238
0.0367373
0.0356925
0.0349418
0.0310383
0.0269879
0.0423331
0.0423596
0.0419088
0.0414159
0.0407813
0.0401317
0.0394653
0.038825
0.0381788
0.0375802
0.0368788
0.036285
0.0351253
0.0342345
0.0303962
0.0264595
0.0421584
0.0421858
0.0417671
0.0412935
0.0406679
0.0400134
0.039329
0.0386586
0.0379747
0.0373296
0.0365874
0.035958
0.0348311
0.0340765
0.030682
0.027558
0.0419378
0.0419634
0.0415856
0.0411477
0.0405619
0.0399411
0.0392848
0.0386357
0.0379667
0.0373313
0.0365923
0.0359609
0.0348191
0.0340409
0.0305794
0.0273587
0.04197
0.0419962
0.0415768
0.0411026
0.0404762
0.0398145
0.0391175
0.0384204
0.0376959
0.0369845
0.0361663
0.0354066
0.0342115
0.0332749
0.030427
0.0284597
0.0421235
0.0421445
0.0416357
0.041091
0.0404018
0.0396862
0.0389394
0.0381883
0.0374012
0.0365998
0.0356759
0.0347339
0.0333858
0.0320852
0.029406
0.0272053
0.0424484
0.0424341
0.0417658
0.0411035
0.0403257
0.0395519
0.0387661
0.0379783
0.0371547
0.0363039
0.0353373
0.0343249
0.0329895
0.0316424
0.0293959
0.0274363
0.0430288
0.0428896
0.0419724
0.0411271
0.0402385
0.0393962
0.0385786
0.0377649
0.0369143
0.0360245
0.035022
0.0339502
0.032615
0.0312223
0.0292381
0.0273979
0.0441162
0.0435074
0.0422018
0.0410949
0.0401012
0.0392134
0.0383936
0.0375861
0.0367403
0.0358443
0.0348394
0.0337548
0.0324542
0.0310774
0.0292994
0.0275693
0.0460307
0.0442782
0.0425195
0.0410479
0.0399767
0.0390612
0.0382445
0.0374398
0.0366032
0.0357089
0.0347075
0.0336198
0.0323462
0.0309878
0.0293376
0.0276782
0.0501924
0.0445704
0.0426016
0.0409096
0.0398621
0.0389833
0.0382068
0.0374317
0.0366237
0.0357523
0.0347714
0.0337
0.0324461
0.0310968
0.0294674
0.0277922
0.0418308
0.0418543
0.0415076
0.041104
0.0405627
0.039989
0.0393831
0.0387874
0.0381726
0.037596
0.0369051
0.0363142
0.0351334
0.0342108
0.0302591
0.0261734
0.0418584
0.0418826
0.0414939
0.041053
0.0404692
0.0398521
0.0392017
0.0385528
0.0378758
0.0372152
0.0364369
0.0357147
0.0344919
0.0334802
0.0302974
0.0278025
0.0420068
0.042026
0.0415476
0.0410356
0.0403874
0.0397132
0.0390088
0.0383003
0.0375528
0.0367912
0.0358943
0.0349746
0.0335911
0.032228
0.0292892
0.026792
0.0423269
0.0423108
0.0416725
0.041042
0.0403046
0.0395706
0.0388238
0.0380742
0.037285
0.0364676
0.0355228
0.0345283
0.0331683
0.0317841
0.0293723
0.0272524
0.0429031
0.0427622
0.0418747
0.0410607
0.0402106
0.0394067
0.0386255
0.0378458
0.0370248
0.0361621
0.0351762
0.0341165
0.0327614
0.0313411
0.0292461
0.0273085
0.0439874
0.0433774
0.0421015
0.0410253
0.0400694
0.0392176
0.0384337
0.0376588
0.0368393
0.0359672
0.0349772
0.0339028
0.032589
0.0311931
0.0293416
0.0275463
0.045901
0.0441484
0.0424196
0.0409783
0.0399435
0.0390629
0.0382788
0.0375043
0.0366936
0.0358212
0.0348335
0.0337551
0.0324723
0.0310997
0.029398
0.0276899
0.0500626
0.0444424
0.0425036
0.0408421
0.0398314
0.038988
0.0382441
0.0375
0.0367199
0.035872
0.0349071
0.0338477
0.0325884
0.031228
0.0295521
0.0278277
0.0417573
0.0417792
0.041455
0.041078
0.0405733
0.0400412
0.0394828
0.0389413
0.0383881
0.0378873
0.0372833
0.0368063
0.0357308
0.0349325
0.0308324
0.0265158
0.0417806
0.0418035
0.0414367
0.0410213
0.0404721
0.039894
0.0392869
0.038686
0.0380615
0.0374633
0.0367515
0.0361139
0.0349521
0.0340134
0.030672
0.0279607
0.0419247
0.0419424
0.0414856
0.0409986
0.0403833
0.0397446
0.0390795
0.0384123
0.0377077
0.0369941
0.0361427
0.0352761
0.033913
0.0325708
0.02947
0.0268086
0.0422406
0.0422232
0.041606
0.0409996
0.0402945
0.039594
0.0388825
0.0381695
0.0374163
0.0366372
0.035726
0.0347679
0.0334155
0.0320372
0.0295105
0.0272813
0.0428133
0.0426713
0.0418046
0.041014
0.0401944
0.0394226
0.0386737
0.0379259
0.0371351
0.0363027
0.0353411
0.034305
0.0329498
0.0315262
0.029349
0.027336
0.0438952
0.0432842
0.0420291
0.040976
0.0400496
0.0392279
0.0384752
0.03773
0.036937
0.0360906
0.0351202
0.0340633
0.032748
0.0313464
0.0294377
0.0275872
0.045808
0.0440554
0.0423477
0.040929
0.0399227
0.0390702
0.0383147
0.0375682
0.0367823
0.0359327
0.0349617
0.0338972
0.0326128
0.0312342
0.0294909
0.0277398
0.0499697
0.0443507
0.0424331
0.0407946
0.0398126
0.0389982
0.0382825
0.0375669
0.0368133
0.0359893
0.0350428
0.0339989
0.0327405
0.0313754
0.0296613
0.0278927
0.0417074
0.0417281
0.0414199
0.0410627
0.0405859
0.040086
0.0395634
0.0390606
0.0385471
0.0380864
0.0375137
0.0370533
0.0359458
0.0350443
0.0306538
0.0259446
0.0417271
0.0417488
0.0413978
0.0410014
0.0404783
0.0399305
0.0393564
0.0387906
0.0382009
0.0376375
0.0369512
0.0363288
0.0351377
0.0341259
0.0305645
0.0275803
0.0418674
0.0418841
0.0414428
0.0409744
0.0403839
0.0397729
0.0391379
0.0385018
0.0378268
0.0371419
0.0363093
0.035453
0.0340615
0.0326639
0.0293933
0.0265498
0.04218
0.0421616
0.0415595
0.040971
0.0402903
0.039616
0.038932
0.0382469
0.0375197
0.0367652
0.0358697
0.0349208
0.0335476
0.0321324
0.0294902
0.0271451
0.04275
0.0426071
0.0417551
0.040982
0.0401855
0.0394388
0.0387154
0.0379924
0.0372243
0.0364127
0.0354642
0.0344358
0.0330656
0.0316168
0.0293611
0.0272722
0.0438299
0.0432183
0.0419779
0.0409418
0.0400379
0.0392401
0.0385118
0.0377899
0.0370177
0.0361903
0.0352321
0.0341829
0.0328578
0.0314391
0.0294761
0.0275718
0.0457422
0.0439895
0.0422968
0.0408949
0.0399103
0.0390794
0.0383473
0.0376237
0.0368572
0.0360253
0.035066
0.0340092
0.0327187
0.0313279
0.0295456
0.0277533
0.0499039
0.0442859
0.0423834
0.040762
0.039802
0.0390103
0.0383175
0.0376249
0.0368928
0.0360879
0.035155
0.034121
0.0328591
0.0314843
0.0297341
0.027924
0.0416753
0.0416952
0.0413988
0.0410568
0.0406023
0.0401288
0.039637
0.039169
0.0386941
0.0382762
0.037747
0.0373284
0.0362412
0.035323
0.0307785
0.0257938
0.0416919
0.0417129
0.0413733
0.0409914
0.040489
0.039966
0.0394199
0.0388851
0.0383287
0.0378014
0.037149
0.0365587
0.0353749
0.0343453
0.030651
0.0274808
0.0418292
0.0418452
0.0414151
0.0409608
0.0403897
0.0398011
0.0391916
0.0385826
0.0379356
0.0372799
0.0364724
0.0356385
0.034245
0.0328282
0.0294477
0.0264718
0.042139
0.04212
0.0415288
0.0409537
0.040292
0.0396387
0.0389776
0.0383166
0.0376133
0.036883
0.036007
0.0350747
0.0336977
0.032267
0.0295459
0.0271123
0.0427068
0.0425634
0.041722
0.0409618
0.0401831
0.0394565
0.0387539
0.0380521
0.0373045
0.0365131
0.03558
0.0345641
0.03319
0.0317293
0.0294182
0.027269
0.0437851
0.0431731
0.0419433
0.0409199
0.0400331
0.0392542
0.0385458
0.0378435
0.0370898
0.0362801
0.0353352
0.0342964
0.0329687
0.0315408
0.0295382
0.0275901
0.0456969
0.0439443
0.0422623
0.0408729
0.0399046
0.0390909
0.0383777
0.0376732
0.0369237
0.0361079
0.0351606
0.034113
0.0328211
0.0314234
0.0296118
0.0277854
0.0498587
0.0442414
0.0423498
0.0407411
0.0397978
0.0390239
0.0383497
0.0376764
0.0369627
0.0361749
0.0352552
0.0342317
0.0329701
0.0315895
0.0298117
0.0279671
0.0416551
0.0416744
0.0413861
0.0410548
0.0406159
0.0401607
0.0396897
0.0392441
0.0387918
0.0383952
0.0378811
0.0374661
0.036356
0.0353761
0.0306838
0.0254903
0.0416694
0.0416898
0.0413582
0.0409864
0.0404984
0.0399927
0.0394657
0.0389512
0.0384148
0.0379061
0.037266
0.036679
0.0354737
0.0343962
0.0305851
0.0272759
0.0418044
0.0418199
0.0413975
0.0409531
0.0403956
0.0398227
0.0392308
0.0386399
0.0380102
0.0373705
0.0365728
0.0357417
0.0343297
0.0328768
0.0294058
0.0263299
0.0421122
0.0420927
0.0415089
0.0409433
0.040295
0.0396565
0.0390113
0.0383667
0.0376788
0.0369624
0.0360951
0.0351659
0.0337751
0.032319
0.0295338
0.0270322
0.0426783
0.0425345
0.0417004
0.0409493
0.0401831
0.0394708
0.038783
0.0380959
0.0373619
0.0365828
0.0356574
0.034645
0.0332615
0.0317836
0.0294277
0.0272318
0.0437554
0.0431432
0.0419207
0.0409061
0.0400314
0.0392661
0.0385719
0.0378833
0.0371424
0.0363442
0.0354068
0.0343721
0.0330383
0.0315984
0.0295638
0.0275812
0.045667
0.0439144
0.0422397
0.040859
0.0399024
0.039101
0.0384013
0.0377104
0.036973
0.0361682
0.0352284
0.0341855
0.0328898
0.0314837
0.0296482
0.0277948
0.0498288
0.0442121
0.0423279
0.0407281
0.0397967
0.0390354
0.0383748
0.0377157
0.037015
0.0362391
0.035328
0.0343104
0.0330466
0.0316588
0.0298587
0.0279866
0.0416438
0.0416627
0.0413798
0.0410556
0.0406272
0.0401847
0.0397285
0.0392994
0.0388647
0.0384863
0.0379885
0.0375848
0.0364721
0.0354665
0.0306918
0.0253591
0.0416564
0.0416766
0.0413501
0.040985
0.0405068
0.0400129
0.0394994
0.0389997
0.0384787
0.0379856
0.0373584
0.0367802
0.0355698
0.034471
0.0305922
0.0271926
0.0417899
0.0418052
0.0413877
0.0409498
0.0404015
0.0398393
0.0392596
0.0386818
0.0380654
0.0374387
0.0366512
0.0358269
0.0344092
0.0329394
0.029415
0.0262731
0.0420963
0.0420766
0.0414976
0.0409381
0.0402987
0.0396703
0.0390362
0.0384032
0.0377268
0.0370216
0.0361626
0.0352388
0.0338433
0.0323747
0.0295508
0.0270041
0.0426613
0.0425173
0.0416879
0.0409427
0.0401847
0.039482
0.0388044
0.0381276
0.0374038
0.0366343
0.0357159
0.0347082
0.0333214
0.0318348
0.0294516
0.0272243
0.0437377
0.0431253
0.0419073
0.0408986
0.0400318
0.0392757
0.038591
0.0379121
0.0371804
0.0363909
0.0354599
0.0344296
0.0330937
0.0316476
0.0295931
0.0275871
0.0456489
0.0438964
0.0422264
0.0408514
0.0399024
0.0391093
0.0384186
0.0377371
0.0370084
0.0362118
0.035278
0.0342393
0.0329426
0.0315319
0.0296814
0.0278095
0.0498108
0.0441944
0.042315
0.040721
0.0397974
0.0390444
0.0383931
0.0377439
0.0370523
0.036285
0.0353806
0.0343679
0.0331038
0.031712
0.0298976
0.0280068
0.0416387
0.0416573
0.041377
0.0410561
0.0406327
0.040196
0.0397463