/*--------------------------------*- C++ -*----------------------------------*\
| =========                 |                                                 |
| \\      /  F ield         | OpenFOAM: The Open Source CFD Toolbox           |
|  \\    /   O peration     | Version:  v1912                                 |
|   \\  /    A nd           | Website:  www.openfoam.com                      |
|    \\/     M anipulation  |                                                 |
\*---------------------------------------------------------------------------*/
FoamFile
{
    version     2.0;
    format      ascii;
    class       volVectorField;
    location    "0.8/fluid";
    object      U;
}
// * * * * * * * * * * * * * * * * * * * * * * * * * * * * * * * * * * * * * //

dimensions      [0 1 -1 0 0 0 0];


internalField   nonuniform List<vector> 
14592
(
(0.0877163 0.0173279 0.000598942)
(0.0719566 0.0118844 0.00104406)
(0.0562431 0.0075776 0.000938844)
(0.0470797 0.00382674 0.000407526)
(0.04124 0.00180047 -0.000461074)
(0.0379553 0.000765776 -0.00156328)
(0.0359041 0.000315259 -0.00288222)
(0.0345197 0.000124525 -0.004458)
(0.0332769 3.92549e-05 -0.00638749)
(0.0321183 -3.70356e-05 -0.00882195)
(0.0305779 -0.000148151 -0.012008)
(0.0291455 -0.000397998 -0.0162494)
(0.0264093 -0.00077306 -0.022219)
(0.0242492 -0.00167121 -0.0299734)
(0.0171743 -0.00214054 -0.0400099)
(0.00981203 -0.00501713 -0.0377134)
(0.103961 0.0181755 0.000839578)
(0.103387 0.018188 0.00155667)
(0.0998029 0.0151583 0.00155243)
(0.0953902 0.0106307 0.000857076)
(0.0911467 0.00699308 -0.000483656)
(0.0877465 0.00445087 -0.00234558)
(0.0849383 0.00295006 -0.00467821)
(0.0825217 0.00217035 -0.00751998)
(0.0800675 0.00183887 -0.0110134)
(0.0774686 0.00173218 -0.0154085)
(0.0740867 0.0016999 -0.0211069)
(0.0702436 0.0015549 -0.0286347)
(0.0639397 0.00123766 -0.0389284)
(0.0568444 0.000159169 -0.0520186)
(0.0407949 -0.000971038 -0.0670424)
(0.0236737 -0.0050023 -0.0611836)
(0.104003 0.0121849 0.000923165)
(0.108486 0.0168585 0.00174385)
(0.111519 0.0164034 0.00179542)
(0.112086 0.0133022 0.00109445)
(0.111338 0.0100375 -0.000323398)
(0.109879 0.00736895 -0.00234573)
(0.108004 0.00561154 -0.0049243)
(0.10586 0.00465981 -0.00809861)
(0.103281 0.00432395 -0.0120174)
(0.100246 0.00439276 -0.0169552)
(0.0961199 0.00469561 -0.0233483)
(0.0910994 0.0050246 -0.0318075)
(0.0829464 0.00527481 -0.0433382)
(0.0731365 0.0047665 -0.0581966)
(0.0523041 0.0035025 -0.0752691)
(0.0292677 -0.00148635 -0.0700243)
(0.102147 0.00782646 0.000957502)
(0.106908 0.0131229 0.00183158)
(0.111948 0.0142589 0.00191699)
(0.114989 0.0129169 0.00123474)
(0.116505 0.010811 -0.000169864)
(0.116725 0.00883006 -0.00218401)
(0.115994 0.00745549 -0.00476105)
(0.114555 0.00678035 -0.00794264)
(0.112377 0.00675475 -0.0118768)
(0.109515 0.00726282 -0.0168444)
(0.105356 0.00820114 -0.0232851)
(0.100058 0.00941497 -0.0318534)
(0.0912301 0.0108136 -0.0435771)
(0.0802477 0.0116575 -0.0589186)
(0.0571472 0.0111256 -0.0768048)
(0.0309531 0.00465679 -0.0726931)
(0.101099 0.00507006 0.000984366)
(0.104933 0.00966488 0.00190152)
(0.109877 0.0114729 0.00202357)
(0.11369 0.0113729 0.00137428)
(0.116323 0.0103869 1.13907e-05)
(0.117657 0.00927037 -0.00194418)
(0.117898 0.00851295 -0.00444011)
(0.117244 0.00831955 -0.00751428)
(0.115695 0.00875331 -0.0113063)
(0.113347 0.00980132 -0.0160927)
(0.109602 0.011444 -0.0222967)
(0.104627 0.0136074 -0.0305978)
(0.0958889 0.0162423 -0.0420046)
(0.0846809 0.018535 -0.0572094)
(0.0603495 0.0189296 -0.0751787)
(0.0318145 0.0101411 -0.0723224)
(0.100625 0.00336886 0.00101161)
(0.103646 0.0068935 0.00197247)
(0.108054 0.00875347 0.00214019)
(0.111987 0.00934964 0.00153846)
(0.115138 0.00922199 0.000235102)
(0.117176 0.00891405 -0.00163896)
(0.118161 0.00883618 -0.00402111)
(0.118214 0.00922997 -0.00694021)
(0.117322 0.010234 -0.0105212)
(0.115593 0.011941 -0.0150292)
(0.112439 0.0144463 -0.0208583)
(0.108037 0.0178501 -0.0287018)
(0.0997204 0.0222781 -0.0395175)
(0.0887303 0.0271025 -0.0542661)
(0.063598 0.0303048 -0.0719181)
(0.0330568 0.0197881 -0.070672)
(0.100447 0.00216917 0.00104433)
(0.103007 0.00464622 0.00205439)
(0.107015 0.00627722 0.00227781)
(0.110931 0.00720052 0.00173773)
(0.114361 0.00767157 0.000510057)
(0.116876 0.00802997 -0.0012633)
(0.118449 0.00857497 -0.00350482)
(0.119151 0.00953343 -0.00622655)
(0.11897 0.0110764 -0.00952703)
(0.118049 0.0133737 -0.0136397)
(0.115869 0.0166056 -0.018895)
(0.112695 0.0210383 -0.0259436)
(0.10587 0.0269333 -0.035576)
(0.0967064 0.0339253 -0.0489766)
(0.0721545 0.0396763 -0.0648253)
(0.040627 0.027177 -0.065451)
(0.100389 0.00118197 0.00108205)
(0.102771 0.00265611 0.00214649)
(0.10663 0.00390964 0.00243234)
(0.11059 0.00494331 0.00196307)
(0.114235 0.00583281 0.000820818)
(0.117105 0.00673321 -0.00084155)
(0.119136 0.00782409 -0.00293073)
(0.120379 0.00929131 -0.00543925)
(0.120841 0.011316 -0.00843582)
(0.120694 0.014143 -0.0121166)
(0.119495 0.0180573 -0.0167439)
(0.117584 0.0236508 -0.0229116)
(0.112391 0.0315743 -0.0312402)
(0.105467 0.0432546 -0.0431621)
(0.0823324 0.0574092 -0.0572542)
(0.0533043 0.0618263 -0.0614386)
(0.0876849 0.0173308 0.000370375)
(0.0717744 0.0118979 0.000627356)
(0.055827 0.00758986 0.000482051)
(0.0464555 0.00383316 6.78727e-06)
(0.0404212 0.00180449 -0.000748573)
(0.0369524 0.000770089 -0.00171755)
(0.0346942 0.000322718 -0.002898)
(0.0330508 0.000135825 -0.00432399)
(0.0314694 5.54867e-05 -0.00607639)
(0.0298507 -1.40292e-05 -0.00824886)
(0.0277288 -0.000110138 -0.0110266)
(0.025465 -0.000326759 -0.0144679)
(0.021887 -0.000627198 -0.0189862)
(0.0182287 -0.00136722 -0.0235491)
(0.0111634 -0.0017818 -0.0278268)
(0.00291234 -0.00368399 -0.0184823)
(0.103917 0.0181903 0.000516848)
(0.103131 0.018227 0.000923307)
(0.0991989 0.0152084 0.000788215)
(0.0944139 0.0106797 0.000112361)
(0.0897856 0.00704228 -0.00109044)
(0.0859969 0.00450761 -0.00274768)
(0.0827624 0.00302595 -0.00484221)
(0.0798339 0.00227483 -0.00741852)
(0.0767262 0.00198146 -0.0106018)
(0.0732564 0.0019213 -0.0145659)
(0.0687476 0.0019517 -0.0196127)
(0.0633558 0.00188468 -0.0259328)
(0.0553202 0.00167714 -0.034062)
(0.0456766 0.000732213 -0.042569)
(0.0291157 -0.000438422 -0.0494053)
(0.0105961 -0.00397827 -0.0320957)
(0.103963 0.0122095 0.0005738)
(0.108224 0.0169185 0.00104002)
(0.110891 0.0164913 0.000925876)
(0.111051 0.013405 0.000223963)
(0.109868 0.0101543 -0.00106062)
(0.107956 0.00750861 -0.00286714)
(0.105583 0.00579177 -0.00518365)
(0.102847 0.00489992 -0.00806055)
(0.0995192 0.00464593 -0.0116312)
(0.0954943 0.00481695 -0.0160925)
(0.0900778 0.0052512 -0.0217705)
(0.0832956 0.00572684 -0.0289157)
(0.0731194 0.00614835 -0.038081)
(0.0603855 0.00574912 -0.0478377)
(0.0387883 0.00435631 -0.0556586)
(0.0141929 -0.000928624 -0.0362683)
(0.10211 0.007853 0.000603647)
(0.106651 0.0131898 0.00110743)
(0.111328 0.0143662 0.00101569)
(0.113966 0.0130573 0.000326749)
(0.115048 0.010985 -0.00094711)
(0.114815 0.00904943 -0.00274529)
(0.113584 0.00774292 -0.00505803)
(0.111552 0.00716491 -0.00793858)
(0.108623 0.00727329 -0.0115199)
(0.104769 0.00795467 -0.0160051)
(0.0993048 0.00912089 -0.0217195)
(0.0922197 0.0106006 -0.0289455)
(0.0812979 0.0123231 -0.0382321)
(0.067278 0.0133848 -0.0482409)
(0.0432784 0.012777 -0.0563612)
(0.0153424 0.00529209 -0.0368074)
(0.101064 0.00509944 0.000632519)
(0.104681 0.00973939 0.00117503)
(0.109269 0.011598 0.00111694)
(0.112691 0.011547 0.000460369)
(0.114909 0.0106138 -0.000772431)
(0.115813 0.00956445 -0.00251397)
(0.11558 0.00890156 -0.00474976)
(0.114367 0.00884087 -0.00752919)
(0.112108 0.00945912 -0.0109769)
(0.108819 0.0107516 -0.0152929)
(0.103825 0.0127235 -0.0207859)
(0.0971295 0.0152853 -0.0277601)
(0.0863269 0.0184272 -0.0367372)
(0.0720963 0.0210972 -0.0465416)
(0.0467289 0.0215408 -0.0545669)
(0.0161915 0.0110509 -0.035632)
(0.10059 0.00340146 0.000662742)
(0.103399 0.00697594 0.0012485)
(0.107458 0.00889439 0.00123533)
(0.111016 0.00955234 0.000626081)
(0.113773 0.00949391 -0.000548404)
(0.115412 0.00927289 -0.00221148)
(0.115961 0.00931439 -0.00433987)
(0.115502 0.00987547 -0.00697414)
(0.113958 0.0111154 -0.010225)
(0.111365 0.0131451 -0.0142834)
(0.107048 0.016101 -0.0194316)
(0.10104 0.0200842 -0.0259916)
(0.0907364 0.0253048 -0.0344366)
(0.0768237 0.030842 -0.0438178)
(0.0505243 0.0345397 -0.0515535)
(0.0176886 0.0216528 -0.0337841)
(0.100414 0.00220607 0.000697478)
(0.102765 0.0047378 0.00133252)
(0.106434 0.00643324 0.00137433)
(0.109992 0.00742748 0.000825509)
(0.113052 0.00797986 -0.000275879)
(0.115206 0.00843993 -0.00184271)
(0.11639 0.00912326 -0.00383906)
(0.116642 0.0102757 -0.00629015)
(0.115894 0.0120945 -0.00928339)
(0.114229 0.0147769 -0.0129865)
(0.11104 0.0185574 -0.0176308)
(0.10649 0.0237213 -0.0235274)
(0.0979037 0.0306518 -0.0310343)
(0.0861893 0.0386577 -0.0394857)
(0.060363 0.0453323 -0.0462656)
(0.0263742 0.0298133 -0.0304134)
(0.100357 0.00122276 0.000735584)
(0.102535 0.0027553 0.00142431)
(0.106066 0.00407724 0.0015272)
(0.109686 0.00518754 0.00104705)
(0.112989 0.00616559 2.8052e-05)
(0.115534 0.00717715 -0.00143325)
(0.117225 0.00841873 -0.00328635)
(0.118087 0.0100982 -0.00553878)
(0.118072 0.0124276 -0.00825192)
(0.11731 0.0156906 -0.0115655)
(0.115271 0.020242 -0.015656)
(0.112237 0.0267335 -0.0208147)
(0.105543 0.0359911 -0.0272787)
(0.0965401 0.0492017 -0.0347093)
(0.0721285 0.0652046 -0.0405663)
(0.0407333 0.0661304 -0.027761)
(0.0876608 0.0173336 0.000212736)
(0.0716342 0.0119092 0.00034026)
(0.0554977 0.0076006 0.000172882)
(0.0459415 0.00383924 -0.000247873)
(0.0397212 0.00180769 -0.000894645)
(0.036066 0.000773136 -0.00172543)
(0.0335951 0.000327787 -0.00274712)
(0.0316861 0.00014305 -0.00398741)
(0.029763 6.48278e-05 -0.0055123)
(0.0276764 -2.66889e-06 -0.00737781)
(0.0249689 -9.41402e-05 -0.00972855)
(0.0218624 -0.000296931 -0.0125323)
(0.0174607 -0.000573714 -0.0160976)
(0.012568 -0.00123256 -0.0193799)
(0.00597122 -0.00173094 -0.0220016)
(-0.0008928 -0.00320216 -0.0144764)
(0.103884 0.0182048 0.000294305)
(0.102934 0.0182633 0.000488654)
(0.0987194 0.0152566 0.000273745)
(0.0936111 0.0107293 -0.00036228)
(0.0886272 0.00709276 -0.00142026)
(0.0844615 0.0045651 -0.00285851)
(0.0808041 0.00310042 -0.00468007)
(0.0773676 0.00237469 -0.00692822)
(0.0736221 0.00211546 -0.00970828)
(0.06931 0.00209684 -0.0131375)
(0.0637401 0.00218172 -0.0174439)
(0.0569103 0.00218001 -0.0226675)
(0.04739 0.00205126 -0.0291603)
(0.0358172 0.00119402 -0.0354075)
(0.0197314 -9.16164e-05 -0.0394275)
(0.00319735 -0.00347538 -0.0248025)
(0.103932 0.0122349 0.000331458)
(0.108023 0.0169775 0.000555291)
(0.110394 0.0165781 0.000338069)
(0.110202 0.0135089 -0.000336415)
(0.10862 0.0102728 -0.00147586)
(0.106274 0.00764904 -0.00304946)
(0.103412 0.00596953 -0.00506679)
(0.100092 0.00513261 -0.00757917)
(0.0960363 0.00495441 -0.0107006)
(0.0910593 0.00522036 -0.014569)
(0.0844352 0.00577649 -0.0194285)
(0.0760314 0.00638644 -0.025364)
(0.0641236 0.0069589 -0.0327192)
(0.0491707 0.00664378 -0.0399346)
(0.0278914 0.00510512 -0.0445329)
(0.00541347 -0.000529078 -0.0278981)
(0.102082 0.00788135 0.000356372)
(0.106454 0.0132578 0.000605584)
(0.110841 0.0144741 0.000401859)
(0.113131 0.0131988 -0.00026465)
(0.113816 0.0111598 -0.00139583)
(0.113149 0.00926695 -0.00296203)
(0.111427 0.00802346 -0.00497507)
(0.108809 0.0075349 -0.00748961)
(0.10515 0.00776704 -0.0106196)
(0.10034 0.00860802 -0.0145096)
(0.0936498 0.00998318 -0.0194019)
(0.0849119 0.0117024 -0.0254088)
(0.072179 0.013711 -0.0328638)
(0.0558206 0.0149558 -0.0402716)
(0.0319972 0.0142835 -0.0450453)
(0.00612 0.00595882 -0.0282205)
(0.101037 0.00513069 0.000384413)
(0.10449 0.00981546 0.000667105)
(0.108794 0.0117233 0.000492708)
(0.11188 0.0117205 -0.000144113)
(0.113718 0.0108383 -0.00123701)
(0.114208 0.00985221 -0.00275136)
(0.11351 0.00927739 -0.00469475)
(0.111741 0.00933971 -0.00711869)
(0.108788 0.0101291 -0.0101298)
(0.104588 0.0116474 -0.0138712)
(0.0984122 0.0139221 -0.0185711)
(0.0901133 0.0168453 -0.0243636)
(0.0775025 0.0204435 -0.0315589)
(0.0609146 0.0234497 -0.0388017)
(0.0355687 0.0239869 -0.0435065)
(0.00689956 0.0122139 -0.0272392)
(0.100565 0.00343525 0.000414531)
(0.103212 0.00705881 0.000737512)
(0.106995 0.00903373 0.000604639)
(0.11023 0.00975129 1.21741e-05)
(0.112629 0.00975885 -0.00102645)
(0.113882 0.00961962 -0.0024692)
(0.114 0.00977276 -0.00431564)
(0.113031 0.0104896 -0.00660978)
(0.110846 0.0119488 -0.00944601)
(0.107412 0.0142767 -0.0129609)
(0.101988 0.0176476 -0.0173607)
(0.0944718 0.0221561 -0.0227999)
(0.0824104 0.0280913 -0.0295506)
(0.0661998 0.0342671 -0.0364582)
(0.0397591 0.0384824 -0.0409779)
(0.00851675 0.0239423 -0.0257459)
(0.100389 0.00224297 0.000448463)
(0.102584 0.00482771 0.000817919)
(0.105986 0.00658481 0.000736255)
(0.109237 0.00764664 0.000200105)
(0.111963 0.00827612 -0.000771205)
(0.113763 0.00883218 -0.00212677)
(0.11456 0.00964546 -0.00385478)
(0.11436 0.0109795 -0.00598651)
(0.113047 0.0130563 -0.00859683)
(0.110649 0.0160973 -0.0118057)
(0.106488 0.0203883 -0.01578)
(0.100624 0.0262258 -0.0206779)
(0.0904502 0.0341095 -0.0266911)
(0.0767041 0.043062 -0.0329297)
(0.0505506 0.0507177 -0.0368939)
(0.0177759 0.0332571 -0.0233319)
(0.100333 0.00126215 0.000484674)
(0.10236 0.00285035 0.00090437)
(0.105635 0.00423712 0.000879441)
(0.108965 0.00541974 0.000406785)
(0.111958 0.00648165 -0.000489162)
(0.114185 0.00759835 -0.00174894)
(0.115535 0.00898198 -0.00334825)
(0.116008 0.010861 -0.00530328)
(0.115514 0.013477 -0.00766701)
(0.114139 0.0171484 -0.0105387)
(0.111285 0.0222972 -0.0140417)
(0.107171 0.0296231 -0.0183308)
(0.0991164 0.0401286 -0.0235112)
(0.0884591 0.0547885 -0.0289936)
(0.0636101 0.0727662 -0.0324231)
(0.0332821 0.0719402 -0.0213335)
(0.0876427 0.0173361 0.000108996)
(0.071527 0.0119186 0.000154109)
(0.0552408 0.00760998 -1.51709e-05)
(0.0455315 0.00384487 -0.000374876)
(0.0391532 0.00181105 -0.000909971)
(0.0353397 0.000776893 -0.00159384)
(0.0326965 0.000334251 -0.00243544)
(0.0305876 0.000153276 -0.00345281)
(0.0284347 8.0376e-05 -0.00469063)
(0.0260686 2.12686e-05 -0.0061665)
(0.0230839 -5.41809e-05 -0.00796374)
(0.0196442 -0.000221311 -0.009973)
(0.0151202 -0.000433746 -0.0123395)
(0.0100998 -0.000935018 -0.0141148)
(0.00425629 -0.0013147 -0.014818)
(-0.00128032 -0.0024656 -0.00877002)
(0.103858 0.0182182 0.000148163)
(0.102781 0.0182956 0.000208766)
(0.098343 0.0153 -3.7543e-05)
(0.0929681 0.0107752 -0.000605437)
(0.0876826 0.0071404 -0.00150093)
(0.0831943 0.00461974 -0.00269957)
(0.0791831 0.00317096 -0.00421165)
(0.0753416 0.00246952 -0.00607075)
(0.0711268 0.00224446 -0.00835229)
(0.06625 0.00227105 -0.0111151)
(0.060071 0.00242117 -0.0144921)
(0.0525384 0.00251354 -0.0183961)
(0.0425763 0.00252615 -0.0229474)
(0.0306782 0.00189107 -0.0267249)
(0.0158264 0.0007851 -0.0278901)
(0.00161336 -0.00242477 -0.0158987)
(0.103909 0.0122587 0.000171155)
(0.107868 0.0170315 0.000241876)
(0.110005 0.0166576 -1.99617e-05)
(0.109522 0.0136048 -0.000630781)
(0.107602 0.0103831 -0.00160212)
(0.104885 0.00777945 -0.00291862)
(0.10161 0.00613342 -0.00459716)
(0.097819 0.00534596 -0.0066797)
(0.0932169 0.00523738 -0.00924959)
(0.0875851 0.00559383 -0.0123826)
(0.0802406 0.0062727 -0.0162211)
(0.0710119 0.00703617 -0.020706)
(0.0585299 0.00781418 -0.0259306)
(0.0431621 0.00772577 -0.0303925)
(0.0231821 0.00633622 -0.0317622)
(0.00340029 0.000548472 -0.0179386)
(0.102061 0.00790854 0.000191112)
(0.106304 0.0133215 0.000278192)
(0.11046 0.0145742 2.35518e-05)
(0.112464 0.0133299 -0.000582957)
(0.112814 0.0113214 -0.00154852)
(0.111776 0.00946677 -0.00285913)
(0.10964 0.0082786 -0.00453404)
(0.106549 0.00786826 -0.00661853)
(0.102341 0.00820893 -0.00919627)
(0.0968731 0.00919091 -0.012349)
(0.089454 0.0107533 -0.0162163)
(0.0798816 0.012696 -0.0207593)
(0.0665467 0.0149874 -0.0260547)
(0.0497482 0.0164803 -0.0306329)
(0.0271937 0.0159332 -0.0320375)
(0.00406556 0.00707254 -0.017968)
(0.101018 0.00516069 0.000216278)
(0.104345 0.00988689 0.000331061)
(0.108425 0.0118396 0.00010082)
(0.111235 0.0118805 -0.000480091)
(0.112751 0.0110441 -0.00141223)
(0.112888 0.0101138 -0.00267794)
(0.111798 0.00961543 -0.00429325)
(0.109582 0.00978345 -0.00630109)
(0.10611 0.0107187 -0.00877921)
(0.101291 0.0124277 -0.0118088)
(0.0944238 0.0149559 -0.0155184)
(0.0853356 0.0181791 -0.0198871)
(0.0721413 0.0221545 -0.024972)
(0.0551283 0.0254626 -0.0294073)
(0.0309716 0.026151 -0.0307354)
(0.00495975 0.0135347 -0.0170978)
(0.100546 0.00346724 0.000243857)
(0.103071 0.00713599 0.000393985)
(0.106638 0.00916194 0.000199967)
(0.109609 0.00993306 -0.000342049)
(0.111704 0.00999927 -0.0012266)
(0.112628 0.00993147 -0.00243041)
(0.112383 0.0101805 -0.0039629)
(0.111002 0.0110289 -0.00586101)
(0.108342 0.0126703 -0.00819266)
(0.104344 0.0152397 -0.011035)
(0.0982864 0.0189364 -0.0145)
(0.0900519 0.023839 -0.018586)
(0.0774454 0.0302822 -0.0233239)
(0.0608519 0.0368756 -0.0275052)
(0.0354983 0.0413714 -0.0287272)
(0.00673973 0.0257325 -0.0159239)
(0.100371 0.00227716 0.000274631)
(0.102448 0.00491021 0.000465964)
(0.105642 0.0067227 0.000316888)
(0.108642 0.00784495 -0.000175938)
(0.111085 0.00854244 -0.00100186)
(0.112583 0.00918176 -0.00213084)
(0.113052 0.0101059 -0.003563)
(0.112488 0.0115917 -0.00532543)
(0.110758 0.0138792 -0.00747123)
(0.107872 0.0172028 -0.0100674)
(0.103163 0.0218794 -0.0131995)
(0.096696 0.0281935 -0.0168792)
(0.0860521 0.0367033 -0.0210934)
(0.0720218 0.0461971 -0.0248525)
(0.0468024 0.0542886 -0.0258616)
(0.0162262 0.0355552 -0.0144071)
(0.100316 0.00129785 0.000306936)
(0.102229 0.0029362 0.000542631)
(0.105305 0.00438088 0.000443329)
(0.108399 0.00562776 5.94073e-06)
(0.111131 0.00676322 -0.000754652)
(0.113084 0.00797064 -0.00180165)
(0.114145 0.00947474 -0.00312479)
(0.114303 0.0115189 -0.0047396)
(0.113456 0.0143648 -0.0066826)
(0.111677 0.0183492 -0.00900792)
(0.108373 0.0239302 -0.0117721)
(0.103785 0.0318069 -0.014997)
(0.095358 0.043052 -0.0186252)
(0.0845514 0.0583941 -0.0219179)
(0.0605094 0.0770403 -0.0227839)
(0.0321116 0.0747761 -0.0132347)
(0.0876286 0.0173381 4.54707e-05)
(0.0714445 0.0119261 4.43474e-05)
(0.0550411 0.00761729 -0.000108454)
(0.0452074 0.00384899 -0.00039955)
(0.0386971 0.00181313 -0.000820834)
(0.0347483 0.000778882 -0.0013562)
(0.0319573 0.000337777 -0.00201473)
(0.029678 0.000158803 -0.0028086)
(0.0273326 8.84116e-05 -0.00376881)
(0.0247365 3.29771e-05 -0.00489771)
(0.0215301 -3.51499e-05 -0.00624769)
(0.0178378 -0.00018392 -0.00771193)
(0.0132393 -0.00036289 -0.00937077)
(0.00820103 -0.000780222 -0.0105202)
(0.00300795 -0.00109704 -0.0107444)
(-0.00147644 -0.00211138 -0.00638125)
(0.103838 0.0182295 5.92025e-05)
(0.102663 0.0183224 4.63264e-05)
(0.0980496 0.0153363 -0.000190103)
(0.0924595 0.0108139 -0.000663746)
(0.0869246 0.00718085 -0.00138119)
(0.0821647 0.00466593 -0.00232878)
(0.0778539 0.00322996 -0.00351897)
(0.0736716 0.00254804 -0.00497759)
(0.069069 0.00235035 -0.00675862)
(0.0637361 0.00241277 -0.00889148)
(0.0570839 0.0026139 -0.0114573)
(0.0490372 0.00277826 -0.0143486)
(0.0388062 0.00289681 -0.0175988)
(0.0268431 0.00241679 -0.0201167)
(0.0130926 0.00142707 -0.0204336)
(0.000802345 -0.00176449 -0.0115705)
(0.10389 0.0122792 7.25077e-05)
(0.107748 0.0170775 5.8914e-05)
(0.109701 0.0167253 -0.000198121)
(0.108985 0.013687 -0.000712459)
(0.106786 0.0104779 -0.00149493)
(0.103757 0.00789132 -0.00253901)
(0.100134 0.00627324 -0.00386301)
(0.0959461 0.00552691 -0.00550021)
(0.0908912 0.0054762 -0.0075113)
(0.0847295 0.00590776 -0.00993892)
(0.0768227 0.00668814 -0.0128694)
(0.066987 0.00757777 -0.0162134)
(0.0541436 0.0085234 -0.0199748)
(0.0386652 0.00861487 -0.022984)
(0.0198825 0.0073367 -0.0233714)
(0.00234616 0.00134536 -0.0130725)
(0.102044 0.00793245 8.76555e-05)
(0.106188 0.0133767 8.40277e-05)
(0.110164 0.0146605 -0.000169913)
(0.111938 0.0134429 -0.000682377)
(0.112012 0.0114607 -0.00146106)
(0.110662 0.00963842 -0.00250086)
(0.108176 0.00849658 -0.00382221)
(0.104687 0.00815138 -0.00546144)
(0.100022 0.0085822 -0.00747983)
(0.0940214 0.00968074 -0.00992514)
(0.0860306 0.011397 -0.0128817)
(0.0758405 0.0135217 -0.0162755)
(0.062119 0.0160413 -0.0200959)
(0.045191 0.017732 -0.0231936)
(0.0238162 0.0172853 -0.0235895)
(0.00299163 0.00796879 -0.0130913)
(0.101002 0.00518719 0.000108495)
(0.104233 0.00994916 0.000126517)
(0.108139 0.0119403 -0.000108353)
(0.110727 0.0120186 -0.000600146)
(0.111979 0.0112213 -0.00135159)
(0.111819 0.0103381 -0.00235501)
(0.110396 0.00990387 -0.00362855)
(0.107804 0.01016 -0.00520688)
(0.103899 0.0112166 -0.00714688)
(0.0985765 0.013083 -0.00949655)
(0.0911658 0.0158189 -0.0123323)
(0.0814915 0.0192859 -0.0155952)
(0.0679188 0.0235639 -0.0192611)
(0.0507803 0.0271144 -0.0222589)
(0.0277371 0.0279287 -0.0226105)
(0.00396817 0.0146561 -0.0124513)
(0.100531 0.00349539 0.000131697)
(0.102963 0.00720316 0.000178618)
(0.106362 0.00927281 -2.67604e-05)
(0.109121 0.0100895 -0.000486669)
(0.110967 0.0102055 -0.00119922)
(0.111613 0.010198 -0.00215247)
(0.111061 0.0105275 -0.00335951)
(0.109333 0.0114855 -0.00485047)
(0.106276 0.0132778 -0.00667474)
(0.101818 0.0160456 -0.00887793)
(0.0952614 0.0200073 -0.0115247)
(0.0864937 0.0252263 -0.0145723)
(0.0735336 0.0320695 -0.0179807)
(0.0568369 0.0389904 -0.0207972)
(0.0325091 0.0437035 -0.0210981)
(0.00586451 0.027256 -0.0115816)
(0.100357 0.00230693 0.000157472)
(0.102344 0.00498149 0.000238379)
(0.105377 0.00684127 6.98573e-05)
(0.108177 0.00801484 -0.000349805)
(0.110387 0.00876997 -0.00101471)
(0.111631 0.0094795 -0.00190765)
(0.111822 0.0104967 -0.00303459)
(0.110948 0.0121091 -0.00441834)
(0.108868 0.0145712 -0.00609739)
(0.105582 0.0181271 -0.00811102)
(0.10044 0.0231174 -0.0105061)
(0.0935211 0.0298146 -0.0132538)
(0.0825716 0.0388176 -0.0162897)
(0.0684904 0.0487386 -0.0188244)
(0.0441693 0.0571692 -0.0190435)
(0.0154936 0.0375408 -0.0105304)
(0.100302 0.00132855 0.000184275)
(0.10213 0.00300974 0.000301707)
(0.105053 0.00450362 0.000174025)
(0.107959 0.005805 -0.000200371)
(0.110476 0.00700269 -0.000812236)
(0.112199 0.0082866 -0.00163916)
(0.113013 0.00989185 -0.00267903)
(0.112903 0.0120738 -0.00394598)
(0.111757 0.0151104 -0.00546623)
(0.109646 0.0193518 -0.00727065)
(0.105984 0.0252839 -0.00938653)
(0.101044 0.0336019 -0.0117964)
(0.0923813 0.0454271 -0.0144125)
(0.0816049 0.0613079 -0.0166312)
(0.0583459 0.0804757 -0.0168247)
(0.0316268 0.0773195 -0.00969656)
(0.0876184 0.0173397 1.216e-05)
(0.0713852 0.0119318 -7.54274e-06)
(0.0548965 0.00762285 -0.000127926)
(0.0449708 0.00385233 -0.00034179)
(0.0383627 0.00181509 -0.000644572)
(0.0343148 0.000781082 -0.00102658)
(0.0314195 0.00034172 -0.00149442)
(0.0290265 0.000165341 -0.0020544)
(0.0265637 9.86988e-05 -0.00272416)
(0.0238416 4.91295e-05 -0.00349606)
(0.0205399 -8.54504e-06 -0.0043947)
(0.0167649 -0.000136452 -0.00532851)
(0.0122208 -0.000280061 -0.00632691)
(0.00730028 -0.00062852 -0.00692008)
(0.00249113 -0.000884172 -0.00679051)
(-0.00143549 -0.00183612 -0.0038668)
(0.103824 0.0182383 1.32484e-05)
(0.102578 0.0183433 -2.72947e-05)
(0.0978361 0.0153645 -0.000220043)
(0.0920863 0.0108443 -0.000575363)
(0.0863653 0.00721304 -0.00109822)
(0.0814034 0.00470299 -0.0017807)
(0.0768744 0.00327749 -0.00263269)
(0.0724528 0.00261171 -0.00367055)
(0.0675934 0.00243706 -0.00492706)
(0.0619809 0.00253053 -0.00641009)
(0.0550739 0.00277668 -0.00815765)
(0.0467968 0.00300545 -0.0100664)
(0.0365412 0.00321922 -0.0121156)
(0.0247454 0.00287171 -0.0135512)
(0.011733 0.00199259 -0.0133158)
(0.000593643 -0.0012281 -0.00726133)
(0.103877 0.0122955 2.03425e-05)
(0.107662 0.0171135 -2.52626e-05)
(0.10948 0.0167783 -0.000237315)
(0.108591 0.0137516 -0.000625667)
(0.106184 0.0105527 -0.00119837)
(0.102921 0.00797969 -0.00195258)
(0.0990427 0.00638352 -0.00290269)
(0.0945729 0.00566947 -0.00407086)
(0.0892124 0.00566446 -0.00549487)
(0.0827168 0.006156 -0.00719182)
(0.0744934 0.00701843 -0.00920217)
(0.0643679 0.00801239 -0.0114324)
(0.0514507 0.00909907 -0.0138357)
(0.0361369 0.00934649 -0.0155924)
(0.0181906 0.00818115 -0.0153503)
(0.00203054 0.00200597 -0.00825485)
(0.102033 0.00795155 3.09239e-05)
(0.106105 0.0134204 -9.03188e-06)
(0.109949 0.0147286 -0.000220249)
(0.111552 0.0135321 -0.000608109)
(0.111419 0.0115705 -0.00117858)
(0.109837 0.00977331 -0.00193001)
(0.107095 0.00866708 -0.00287855)
(0.103322 0.00837175 -0.00404872)
(0.0983487 0.00887142 -0.00547894)
(0.092011 0.0100589 -0.00719018)
(0.0836975 0.0118927 -0.00922139)
(0.0732125 0.0141575 -0.0114893)
(0.059405 0.0168537 -0.0139353)
(0.0426392 0.0187042 -0.0157499)
(0.0220973 0.018351 -0.0154973)
(0.00268941 0.00869066 -0.00824822)
(0.100991 0.0052084 4.64391e-05)
(0.104153 0.00999863 2.19703e-05)
(0.107932 0.0120199 -0.000175607)
(0.110355 0.0121274 -0.000548375)
(0.11141 0.0113605 -0.0010988)
(0.111029 0.0105135 -0.00182359)
(0.109362 0.0101281 -0.00273739)
(0.106501 0.0104507 -0.00386369)
(0.102306 0.0115979 -0.00523795)
(0.0966676 0.0135811 -0.00688166)
(0.088954 0.0164695 -0.00882862)
(0.0790072 0.0201139 -0.0110064)
(0.0653554 0.0246096 -0.0133478)
(0.0483832 0.028337 -0.0150957)
(0.0261281 0.029244 -0.0148173)
(0.00373184 0.0155013 -0.00780608)
(0.100521 0.00351785 6.39066e-05)
(0.102886 0.0072564 6.08037e-05)
(0.106162 0.00936024 -0.000115044)
(0.108765 0.0102125 -0.000464247)
(0.110425 0.0103669 -0.000985959)
(0.110864 0.0104053 -0.00167397)
(0.110086 0.0107954 -0.00253943)
(0.108112 0.0118351 -0.00360272)
(0.10479 0.0137382 -0.0048942)
(0.100047 0.0166491 -0.00643411)
(0.0932171 0.0207978 -0.00824882)
(0.0842113 0.0262345 -0.010278)
(0.071187 0.0333436 -0.0124457)
(0.0546671 0.0404738 -0.0140756)
(0.0310671 0.0453043 -0.0137811)
(0.00570864 0.0282989 -0.00722146)
(0.100347 0.00233049 8.32647e-05)
(0.10227 0.00503768 0.000105437)
(0.105186 0.00693441 -4.31413e-05)
(0.107839 0.00814777 -0.000362612)
(0.109875 0.00894721 -0.00084929)
(0.110929 0.00971006 -0.00149333)
(0.110916 0.010797 -0.00230092)
(0.109823 0.0125027 -0.00328755)
(0.107508 0.0150914 -0.00447638)
(0.103977 0.0188117 -0.0058843)
(0.098601 0.0240177 -0.00752715)
(0.0914903 0.0309688 -0.00935647)
(0.0804973 0.0402832 -0.0112857)
(0.0666076 0.0504568 -0.0127484)
(0.0429328 0.0590482 -0.012451)
(0.0154173 0.0388211 -0.00658057)
(0.100293 0.00135264 0.00010328)
(0.102059 0.00306736 0.000152596)
(0.104871 0.00459956 3.42766e-05)
(0.107639 0.00594306 -0.00025178)
(0.109996 0.00718844 -0.000699553)
(0.111547 0.00853022 -0.00129553)
(0.11218 0.0102109 -0.00204028)
(0.111879 0.0124937 -0.00294346)
(0.110533 0.0156669 -0.00402021)
(0.10822 0.0200872 -0.00528276)
(0.104371 0.0262547 -0.00673557)
(0.0992919 0.0348544 -0.00834081)
(0.0906174 0.0470263 -0.0100035)
(0.0800573 0.063199 -0.0112821)
(0.0573707 0.082583 -0.0110329)
(0.0316704 0.0788682 -0.00609856)
(0.0876116 0.0173407 -6.13199e-07)
(0.071346 0.0119356 -2.07369e-05)
(0.0548007 0.00762644 -9.69938e-05)
(0.044813 0.00385439 -0.000228446)
(0.0381383 0.00181609 -0.000411274)
(0.0340222 0.000782065 -0.000641184)
(0.031055 0.000343585 -0.00092214)
(0.0285837 0.000168498 -0.0012576)
(0.0260407 0.000103645 -0.00165722)
(0.0232337 5.68185e-05 -0.00211437)
(0.0198691 4.18763e-06 -0.00264131)
(0.0160439 -0.000113135 -0.00318122)
(0.01154 -0.000238561 -0.00374617)
(0.00671176 -0.000551595 -0.00406887)
(0.00216091 -0.000779326 -0.00395265)
(-0.00141692 -0.00170294 -0.00226008)
(0.103814 0.0182443 -3.8789e-06)
(0.102521 0.0183574 -4.06522e-05)
(0.0976946 0.0153835 -0.000165974)
(0.0918374 0.0108651 -0.000386653)
(0.0859903 0.00723496 -0.000705278)
(0.0808902 0.00472816 -0.00111826)
(0.0762117 0.00330964 -0.00163206)
(0.0716266 0.00265459 -0.00225637)
(0.0665933 0.00249525 -0.00300975)
(0.0607944 0.00260919 -0.0038938)
(0.0537222 0.00288477 -0.00492683)
(0.0453052 0.00315502 -0.00604176)
(0.0350514 0.00342915 -0.00721591)
(0.0234009 0.0031617 -0.00800977)
(0.0108914 0.0023435 -0.00778704)
(0.000477606 -0.000916702 -0.00424077)
(0.103868 0.0123066 -3.62507e-07)
(0.107604 0.0171383 -4.21755e-05)
(0.109334 0.0168146 -0.000181175)
(0.108327 0.013796 -0.000423112)
(0.105779 0.0106041 -0.000773094)
(0.102358 0.00804051 -0.00123024)
(0.0983042 0.0064593 -0.00180401)
(0.0936417 0.00576725 -0.00250769)
(0.0880738 0.00579335 -0.00336299)
(0.0813549 0.00632568 -0.00437702)
(0.0729248 0.00724365 -0.0055693)
(0.062621 0.00830772 -0.00687778)
(0.0496757 0.00948815 -0.00826286)
(0.0345111 0.00983601 -0.00924282)
(0.0171383 0.00873843 -0.00900254)
(0.00185084 0.00242301 -0.0048265)
(0.102025 0.00796481 5.80344e-06)
(0.10605 0.0134507 -3.30449e-05)
(0.109807 0.0147756 -0.000172155)
(0.111295 0.0135937 -0.000414105)
(0.111022 0.0116463 -0.000762973)
(0.109281 0.00986637 -0.00121855)
(0.106363 0.0087845 -0.00179148)
(0.102395 0.00852318 -0.00249656)
(0.0972127 0.00906972 -0.00335596)
(0.0906495 0.0103177 -0.00437923)
(0.0821243 0.0122308 -0.0055851)
(0.0714567 0.0145897 -0.00691755)
(0.0576122 0.0174036 -0.00833005)
(0.0409939 0.0193586 -0.00934549)
(0.0210249 0.0190628 -0.00909768)
(0.00251709 0.00916437 -0.00482631)
(0.100984 0.00522319 1.53658e-05)
(0.1041 0.010033 -1.42198e-05)
(0.107795 0.0120749 -0.000145167)
(0.110108 0.0122027 -0.000377922)
(0.111029 0.0114567 -0.000714519)
(0.110497 0.0106346 -0.00115381)
(0.108663 0.0102825 -0.00170563)
(0.105618 0.0106506 -0.00238416)
(0.101224 0.0118596 -0.00320993)
(0.0953741 0.013922 -0.00419289)
(0.0874614 0.0169134 -0.005349)
(0.0773452 0.0206772 -0.00662877)
(0.0636595 0.0253177 -0.00798143)
(0.0468353 0.0291622 -0.00896007)
(0.0251233 0.0301278 -0.008702)
(0.0035993 0.0160694 -0.00457299)
(0.100514 0.00353351 2.6195e-05)
(0.102835 0.00729338 9.71448e-06)
(0.10603 0.00942078 -0.000107897)
(0.108528 0.0102975 -0.00032619)
(0.110062 0.0104783 -0.000645171)
(0.11036 0.0105483 -0.00106198)
(0.109427 0.0109799 -0.00158438)
(0.107284 0.0120752 -0.00222474)
(0.103781 0.0140536 -0.00300056)
(0.098846 0.0170614 -0.00392117)
(0.0918371 0.021336 -0.0049984)
(0.0826838 0.0269182 -0.0061899)
(0.0696342 0.0342027 -0.00744107)
(0.0532666 0.0414707 -0.00835151)
(0.0301683 0.0463748 -0.00808963)
(0.00562711 0.0290036 -0.00422977)
(0.10034 0.00234688 3.81898e-05)
(0.102222 0.00507663 3.7265e-05)