/*--------------------------------*- C++ -*----------------------------------*\
| =========                 |                                                 |
| \\      /  F ield         | OpenFOAM: The Open Source CFD Toolbox           |
|  \\    /   O peration     | Version:  v1912                                 |
|   \\  /    A nd           | Website:  www.openfoam.com                      |
|    \\/     M anipulation  |                                                 |
\*---------------------------------------------------------------------------*/
FoamFile
{
    version     2.0;
    format      ascii;
    class       volScalarField;
    location    "0.54/solid";
    object      epsilonEq;
}
// * * * * * * * * * * * * * * * * * * * * * * * * * * * * * * * * * * * * * //

dimensions      [0 0 0 0 0 0 0];


internalField   nonuniform List<scalar> 
256
(
2.65662e-06
1.91148e-06
1.8876e-06
2.55149e-06
1.60196e-06
1.39254e-06
1.37218e-06
1.51758e-06
1.61318e-06
1.33576e-06
1.31563e-06
1.52902e-06
1.69495e-06
1.35054e-06
1.33056e-06
1.61037e-06
1.76342e-06
1.39137e-06
1.37138e-06
1.67829e-06
1.78684e-06
1.43242e-06
1.41234e-06
1.7012e-06
1.50179e-06
1.34501e-06
1.32732e-06
1.42263e-06
2.06928e-07
1.51247e-06
1.50023e-06
2.2229e-07
1.64383e-06
3.74905e-07
3.64744e-07
1.53394e-06
1.24469e-06
3.68122e-07
3.58614e-07
1.14492e-06
1.22674e-06
2.82438e-07
2.74854e-07
1.12735e-06
1.24684e-06
1.99342e-07
1.93898e-07
1.14619e-06
1.28758e-06
1.65009e-07
1.61476e-07
1.18506e-06
1.34212e-06
1.74294e-07
1.71079e-07
1.23779e-06
1.28143e-06
1.11671e-07
1.16223e-07
1.17958e-06
1.50165e-06
1.34665e-06
1.32911e-06
1.42275e-06
1.40368e-06
2.11167e-07
2.06973e-07
1.29887e-06
1.19912e-06
2.20039e-07
2.11109e-07
1.10114e-06
1.19469e-06
1.62349e-07
1.53368e-07
1.09497e-06
1.21387e-06
9.8246e-08
9.06565e-08
1.1119e-06
1.25756e-06
7.91226e-08
7.43216e-08
1.15296e-06
1.32804e-06
9.98387e-08
9.4122e-08
1.22087e-06
1.34066e-06
1.68766e-07
1.66447e-07
1.23627e-06
1.78781e-06
1.43596e-06
1.41619e-06
1.70315e-06
1.26433e-06
1.88621e-07
1.8638e-07
1.16522e-06
1.11202e-06
1.85392e-07
1.79573e-07
1.01937e-06
1.11384e-06
1.37917e-07
1.32066e-07
1.0182e-06
1.13416e-06
9.22694e-08
8.91297e-08
1.03539e-06
1.1797e-06
7.79648e-08
7.73884e-08
1.07766e-06
1.25459e-06
8.53651e-08
8.16668e-08
1.14932e-06
1.28363e-06
1.48067e-07
1.46479e-07
1.18078e-06
1.77193e-06
1.39946e-06
1.38e-06
1.68868e-06
1.18404e-06
1.63474e-07
1.60811e-07
1.0885e-06
1.04641e-06
1.64435e-07
1.59529e-07
9.5709e-07
1.05337e-06
1.26807e-07
1.22063e-07
9.60641e-07
1.07692e-06
8.84211e-08
8.59855e-08
9.80537e-07
1.12567e-06
7.47005e-08
7.38245e-08
1.02561e-06
1.20348e-06
7.83259e-08
7.35187e-08
1.09984e-06
1.23857e-06
1.46515e-07
1.44803e-07
1.13722e-06
1.72685e-06
1.36291e-06
1.34375e-06
1.64506e-06
1.13835e-06
1.43935e-07
1.40402e-07
1.04496e-06
1.00559e-06
1.48022e-07
1.42826e-07
9.18061e-07
1.01601e-06
1.14886e-07
1.09708e-07
9.24909e-07
1.04272e-06
7.63126e-08
7.26776e-08
9.47724e-07
1.09434e-06
6.08445e-08
5.78934e-08
9.95466e-07
1.17429e-06
6.99295e-08
6.26138e-08
1.07169e-06
1.21288e-06
1.55321e-07
1.5322e-07
1.11262e-06
1.69486e-06
1.33826e-06
1.31927e-06
1.61407e-06
1.11318e-06
1.30388e-07
1.26043e-07
1.02101e-06
9.82368e-07
1.35708e-07
1.29933e-07
8.95778e-07
9.94738e-07
1.03451e-07
9.73854e-08
9.04507e-07
1.02361e-06
6.23404e-08
5.68109e-08
9.29378e-07
1.07711e-06
4.52852e-08
3.92477e-08
9.78912e-07
1.15842e-06
6.40603e-08
5.45593e-08
1.05643e-06
1.19926e-06
1.63365e-07
1.6106e-07
1.09969e-06
1.67663e-06
1.32338e-06
1.3045e-06
1.59647e-06
1.1019e-06
1.23174e-07
1.18327e-07
1.01027e-06
9.71837e-07
1.28852e-07
1.22667e-07
8.85659e-07
9.85078e-07
9.63532e-08
8.96119e-08
8.9523e-07
1.01499e-06
5.28059e-08
4.55057e-08
9.21108e-07
1.06939e-06
3.44528e-08
2.45849e-08
9.71499e-07
1.15134e-06
6.12155e-08
5.0532e-08
1.04964e-06
1.1933e-06
1.67493e-07
1.65125e-07
1.09408e-06
1.66858e-06
1.31642e-06
1.29759e-06
1.58873e-06
)
;

boundaryField
{
    interface
    {
        type            calculated;
        value           nonuniform List<scalar> 
192
(
3.44719e-06
2.29925e-06
2.32829e-06
2.44119e-06
2.5442e-06
2.61022e-06
2.38647e-06
1.30294e-06
2.69205e-06
2.17036e-06
2.17053e-06
2.23533e-06
2.32743e-06
2.44144e-06
2.44322e-06
2.38702e-06
2.37724e-06
2.07711e-06
2.09314e-06
2.15435e-06
2.24833e-06
2.37845e-06
2.44226e-06
2.61323e-06
2.16564e-06
1.9309e-06
1.95664e-06
2.01863e-06
2.11388e-06
2.24875e-06
2.33024e-06
2.55721e-06
2.03892e-06
1.82379e-06
1.85537e-06
1.92019e-06
2.018e-06
2.15567e-06
2.24399e-06
2.48331e-06
1.96506e-06
1.75704e-06
1.79184e-06
1.85933e-06
1.95949e-06
2.09895e-06
2.19043e-06
2.43217e-06
1.92392e-06
1.71901e-06
1.75547e-06
1.82475e-06
1.92646e-06
2.06693e-06
2.15997e-06
2.40234e-06
1.90542e-06
1.7018e-06
1.73897e-06
1.8091e-06
1.91156e-06
2.05246e-06
2.14616e-06
2.38883e-06
3.52283e-06
2.38058e-06
2.41107e-06
2.52672e-06
2.63213e-06
2.6996e-06
2.48302e-06
1.44829e-06
3.06008e-06
2.40492e-06
2.36735e-06
2.42631e-06
2.51703e-06
2.61846e-06
2.59721e-06
2.49319e-06
3.0203e-06
2.36856e-06
2.33015e-06
2.38855e-06
2.47885e-06
2.57979e-06
2.55985e-06
2.46621e-06
3.39572e-06
2.27851e-06
2.30731e-06
2.42128e-06
2.52558e-06
2.59219e-06
2.38223e-06
1.41814e-06
3.28329e-06
2.14915e-06
2.17655e-06
2.28757e-06
2.38872e-06
2.45301e-06
2.23259e-06
1.18488e-06
2.50905e-06
1.99741e-06
1.99566e-06
2.05707e-06
2.1454e-06
2.25582e-06
2.25904e-06
2.23284e-06
2.20062e-06
1.90728e-06
1.91988e-06
1.97689e-06
2.06619e-06
2.19146e-06
2.25564e-06
2.45563e-06
1.99643e-06
1.76767e-06
1.78902e-06
1.84609e-06
1.93597e-06
2.0651e-06
2.14589e-06
2.40124e-06
1.87471e-06
1.6651e-06
1.69188e-06
1.75131e-06
1.84329e-06
1.97467e-06
2.06167e-06
2.32886e-06
1.80395e-06
1.60106e-06
1.63086e-06
1.6927e-06
1.78674e-06
1.91959e-06
2.00944e-06
2.27871e-06
1.76462e-06
1.56456e-06
1.59592e-06
1.65941e-06
1.75485e-06
1.88853e-06
1.97979e-06
2.24951e-06
1.74695e-06
1.54805e-06
1.58008e-06
1.64436e-06
1.74047e-06
1.8745e-06
1.96636e-06
2.2363e-06
1.45027e-06
2.48441e-06
2.70315e-06
2.64603e-06
2.57101e-06
2.51855e-06
2.48775e-06
2.47377e-06
2.49458e-06
2.60033e-06
2.62523e-06
2.53211e-06
2.45457e-06
2.40259e-06
2.37112e-06
2.35633e-06
2.46741e-06
2.56282e-06
2.58638e-06
2.49374e-06
2.41652e-06
2.36471e-06
2.33333e-06
2.31859e-06
1.4191e-06
2.38319e-06
2.5958e-06
2.54004e-06
2.46634e-06
2.41477e-06
2.38453e-06
2.37082e-06
)
;
    }
    symmetry
    {
        type            symmetry;
    }
    bottom
    {
        type            calculated;
        value           nonuniform List<scalar> 
32
(
3.72434e-06
2.06723e-06
1.66898e-06
1.49883e-06
1.40925e-06
1.35873e-06
1.33085e-06
1.31834e-06
2.40137e-06
4.72887e-07
2.23216e-07
2.04274e-07
1.84933e-07
1.68369e-07
1.56691e-07
1.50544e-07
2.37437e-06
4.58985e-07
2.12735e-07
1.95228e-07
1.74983e-07
1.57297e-07
1.44656e-07
1.37928e-07
3.59992e-06
1.94719e-06
1.55482e-06
1.39124e-06
1.30615e-06
1.25845e-06
1.23221e-06
1.22046e-06
)
;
    }
}


// ************************************************************************* //
