/*--------------------------------*- C++ -*----------------------------------*\
| =========                 |                                                 |
| \\      /  F ield         | OpenFOAM: The Open Source CFD Toolbox           |
|  \\    /   O peration     | Version:  v1912                                 |
|   \\  /    A nd           | Website:  www.openfoam.com                      |
|    \\/     M anipulation  |                                                 |
\*---------------------------------------------------------------------------*/
FoamFile
{
    version     2.0;
    format      ascii;
    class       pointVectorField;
    location    "0.54/solid";
    object      pointDD;
}
// * * * * * * * * * * * * * * * * * * * * * * * * * * * * * * * * * * * * * //

dimensions      [0 1 0 0 0 0 0];


internalField   nonuniform List<vector> 
405
(
(2.15384e-10 3.64543e-10 2.15468e-10)
(9.2648e-11 2.54678e-10 1.50212e-10)
(-4.24602e-12 2.15925e-10 1.29657e-10)
(-9.66507e-11 2.44656e-10 1.3643e-10)
(-1.9442e-10 3.47513e-10 1.94701e-10)
(4.39803e-10 4.47662e-10 5.26355e-10)
(2.61428e-10 4.30848e-10 5.01521e-10)
(-1.27132e-11 3.64956e-10 4.53671e-10)
(-2.76211e-10 4.16668e-10 4.69758e-10)
(-4.12224e-10 4.31504e-10 4.86853e-10)
(5.76311e-10 2.10354e-10 8.74017e-10)
(3.4929e-10 2.3314e-10 8.45064e-10)
(-2.0962e-11 1.94664e-10 7.85922e-10)
(-3.78843e-10 2.3022e-10 8.05933e-10)
(-5.59503e-10 2.12022e-10 8.20879e-10)
(5.88115e-10 -5.26843e-11 1.14403e-09)
(3.51789e-10 -6.69515e-12 1.10971e-09)
(-3.01048e-11 -2.39673e-11 1.04087e-09)
(-3.99525e-10 1.98465e-13 1.06501e-09)
(-5.87433e-10 -3.55601e-11 1.08173e-09)
(5.78044e-10 -2.98925e-10 1.39492e-09)
(3.3725e-10 -2.55214e-10 1.35201e-09)
(-4.16385e-11 -2.69696e-10 1.27224e-09)
(-4.07921e-10 -2.40011e-10 1.30289e-09)
(-5.9839e-10 -2.68399e-10 1.32549e-09)
(6.03962e-10 -5.59351e-10 1.65795e-09)
(3.48949e-10 -5.33052e-10 1.60178e-09)
(-5.58963e-11 -5.53708e-10 1.51051e-09)
(-4.4792e-10 -5.10279e-10 1.54875e-09)
(-6.50661e-10 -5.1627e-10 1.58222e-09)
(7.15098e-10 -9.19338e-10 1.95289e-09)
(4.21366e-10 -9.05927e-10 1.88281e-09)
(-7.3302e-11 -9.21005e-10 1.78412e-09)
(-5.54601e-10 -8.75397e-10 1.82593e-09)
(-7.93378e-10 -8.63292e-10 1.87098e-09)
(9.24851e-10 -1.53015e-09 2.26218e-09)
(5.50347e-10 -1.50225e-09 2.2061e-09)
(-9.46302e-11 -1.47964e-09 2.11722e-09)
(-7.24589e-10 -1.46004e-09 2.14511e-09)
(-1.03869e-09 -1.45546e-09 2.17402e-09)
(1.04538e-09 -1.9387e-09 2.43012e-09)
(6.23173e-10 -1.89419e-09 2.40135e-09)
(-1.0701e-10 -1.8285e-09 2.33838e-09)
(-8.21025e-10 -1.83508e-09 2.34715e-09)
(-1.19464e-09 -1.84669e-09 2.34659e-09)
(1.20703e-10 1.83187e-10 9.64321e-11)
(0 0 0)
(0 0 0)
(0 0 0)
(-9.02121e-11 1.74103e-10 8.9186e-11)
(3.32511e-10 2.61207e-10 3.54351e-10)
(0 0 0)
(0 0 0)
(0 0 0)
(-2.72705e-10 2.51875e-10 3.31189e-10)
(4.37703e-10 2.56132e-11 6.51053e-10)
(0 0 0)
(0 0 0)
(0 0 0)
(-3.83733e-10 3.32404e-11 6.13793e-10)
(4.43065e-10 -2.23481e-10 9.07625e-10)
(0 0 0)
(0 0 0)
(0 0 0)
(-4.01078e-10 -2.00503e-10 8.60942e-10)
(4.30905e-10 -4.56577e-10 1.14954e-09)
(0 0 0)
(0 0 0)
(0 0 0)
(-4.06342e-10 -4.19482e-10 1.09545e-09)
(4.52149e-10 -6.94545e-10 1.39975e-09)
(0 0 0)
(0 0 0)
(0 0 0)
(-4.50579e-10 -6.43783e-10 1.33904e-09)
(5.57876e-10 -1.0034e-09 1.66662e-09)
(0 0 0)
(0 0 0)
(0 0 0)
(-5.84238e-10 -9.38627e-10 1.59954e-09)
(7.84831e-10 -1.52642e-09 1.90622e-09)
(0 0 0)
(0 0 0)
(0 0 0)
(-8.4121e-10 -1.44273e-09 1.83343e-09)
(9.2251e-10 -1.8817e-09 2.03527e-09)
(5.47087e-10 -1.8238e-09 2.05136e-09)
(-9.76123e-11 -1.73193e-09 2.0314e-09)
(-7.27346e-10 -1.75712e-09 2.01355e-09)
(-1.04084e-09 -1.78371e-09 1.96917e-09)
(4.90545e-11 7.58969e-11 2.63406e-11)
(0 0 0)
(0 0 0)
(0 0 0)
(-1.90901e-11 6.71873e-11 2.29069e-11)
(1.52019e-10 4.95915e-11 1.58655e-10)
(0 0 0)
(0 0 0)
(0 0 0)
(-9.06512e-11 4.03655e-11 1.45744e-10)
(2.10781e-10 -1.68306e-10 3.83444e-10)
(0 0 0)
(0 0 0)
(0 0 0)
(-1.50307e-10 -1.61866e-10 3.59875e-10)
(2.04516e-10 -3.92295e-10 6.16371e-10)
(0 0 0)
(0 0 0)
(0 0 0)
(-1.5174e-10 -3.71485e-10 5.84536e-10)
(1.88144e-10 -6.03338e-10 8.40609e-10)
(0 0 0)
(0 0 0)
(0 0 0)
(-1.49105e-10 -5.68912e-10 8.01935e-10)
(2.06499e-10 -8.06378e-10 1.0577e-09)
(0 0 0)
(0 0 0)
(0 0 0)
(-1.87142e-10 -7.58639e-10 1.01288e-09)
(3.13974e-10 -1.04428e-09 1.25513e-09)
(0 0 0)
(0 0 0)
(0 0 0)
(-3.1945e-10 -9.83113e-10 1.20472e-09)
(5.54372e-10 -1.4527e-09 1.38127e-09)
(0 0 0)
(0 0 0)
(0 0 0)
(-5.86701e-10 -1.37369e-09 1.32671e-09)
(7.08819e-10 -1.73849e-09 1.42404e-09)
(4.13757e-10 -1.66688e-09 1.45557e-09)
(-8.00213e-11 -1.56484e-09 1.47334e-09)
(-5.60238e-10 -1.6033e-09 1.42879e-09)
(-7.98111e-10 -1.64535e-09 1.37589e-09)
(1.18314e-11 2.7466e-11 1.7879e-11)
(0 0 0)
(0 0 0)
(0 0 0)
(1.81571e-11 1.76521e-11 1.55921e-11)
(5.4942e-11 -4.89923e-11 1.16593e-10)
(0 0 0)
(0 0 0)
(0 0 0)
(8.38992e-12 -6.09429e-11 1.07868e-10)
(8.64941e-11 -2.65938e-10 2.97594e-10)
(0 0 0)
(0 0 0)
(0 0 0)
(-2.02026e-11 -2.63048e-10 2.8113e-10)
(7.67403e-11 -4.80289e-10 4.99041e-10)
(0 0 0)
(0 0 0)
(0 0 0)
(-1.441e-11 -4.63505e-10 4.75872e-10)
(6.35705e-11 -6.69918e-10 6.95786e-10)
(0 0 0)
(0 0 0)
(0 0 0)
(-1.15231e-11 -6.39777e-10 6.66691e-10)
(8.67388e-11 -8.34044e-10 8.74161e-10)
(0 0 0)
(0 0 0)
(0 0 0)
(-5.11656e-11 -7.9078e-10 8.39706e-10)
(1.99961e-10 -1.01364e-09 1.0116e-09)
(0 0 0)
(0 0 0)
(0 0 0)
(-1.86196e-10 -9.57172e-10 9.72488e-10)
(4.42247e-10 -1.35281e-09 1.06915e-09)
(0 0 0)
(0 0 0)
(0 0 0)
(-4.52659e-10 -1.27862e-09 1.02691e-09)
(5.90598e-10 -1.61148e-09 1.06478e-09)
(3.34262e-10 -1.55408e-09 1.08513e-09)
(-6.67292e-11 -1.45865e-09 1.1078e-09)
(-4.54397e-10 -1.49298e-09 1.06473e-09)
(-6.55274e-10 -1.52255e-09 1.02782e-09)
(-2.64851e-12 9.55121e-12 2.08042e-11)
(0 0 0)
(0 0 0)
(0 0 0)
(3.27902e-11 -1.28065e-12 1.91835e-11)
(1.71732e-11 -8.46379e-11 1.0811e-10)
(0 0 0)
(0 0 0)
(0 0 0)
(4.76726e-11 -9.92805e-11 1.02016e-10)
(3.92058e-11 -3.00505e-10 2.54691e-10)
(0 0 0)
(0 0 0)
(0 0 0)
(3.12023e-11 -3.01295e-10 2.43141e-10)
(3.13025e-11 -5.08928e-10 4.16895e-10)
(0 0 0)
(0 0 0)
(0 0 0)
(3.79944e-11 -4.96302e-10 4.00311e-10)
(2.40355e-11 -6.82352e-10 5.74713e-10)
(0 0 0)
(0 0 0)
(0 0 0)
(3.7859e-11 -6.56564e-10 5.53426e-10)
(5.35706e-11 -8.19578e-10 7.10647e-10)
(0 0 0)
(0 0 0)
(0 0 0)
(-5.3569e-12 -7.80723e-10 6.85031e-10)
(1.70915e-10 -9.67333e-10 8.03335e-10)
(0 0 0)
(0 0 0)
(0 0 0)
(-1.41917e-10 -9.15209e-10 7.74015e-10)
(4.10134e-10 -1.27533e-09 8.30011e-10)
(0 0 0)
(0 0 0)
(0 0 0)
(-4.03066e-10 -1.20521e-09 7.98266e-10)
(5.52337e-10 -1.52307e-09 8.11133e-10)
(3.10992e-10 -1.47889e-09 8.14782e-10)
(-5.67489e-11 -1.39304e-09 8.27744e-10)
(-4.11051e-10 -1.41971e-09 7.99513e-10)
(-5.97666e-10 -1.43748e-09 7.83397e-10)
(-7.1233e-12 4.18398e-12 1.96466e-11)
(0 0 0)
(0 0 0)
(0 0 0)
(3.73803e-11 -7.34733e-12 1.85395e-11)
(6.33764e-12 -9.32397e-11 9.11343e-11)
(0 0 0)
(0 0 0)
(0 0 0)
(5.94907e-11 -1.09866e-10 8.70085e-11)
(2.77275e-11 -3.04683e-10 2.02491e-10)
(0 0 0)
(0 0 0)
(0 0 0)
(4.53649e-11 -3.08392e-10 1.9467e-10)
(2.3729e-11 -5.06707e-10 3.22541e-10)
(0 0 0)
(0 0 0)
(0 0 0)
(5.02762e-11 -4.97511e-10 3.11195e-10)
(2.20751e-11 -6.6926e-10 4.37692e-10)
(0 0 0)
(0 0 0)
(0 0 0)
(4.67274e-11 -6.47111e-10 4.22923e-10)
(5.67395e-11 -7.92235e-10 5.33375e-10)
(0 0 0)
(0 0 0)
(0 0 0)
(5.80389e-13 -7.5703e-10 5.1539e-10)
(1.76243e-10 -9.26727e-10 5.94007e-10)
(0 0 0)
(0 0 0)
(0 0 0)
(-1.36112e-10 -8.78104e-10 5.73262e-10)
(4.11546e-10 -1.22221e-09 6.07542e-10)
(0 0 0)
(0 0 0)
(0 0 0)
(-3.91576e-10 -1.15525e-09 5.84997e-10)
(5.49709e-10 -1.46426e-09 5.89159e-10)
(3.13036e-10 -1.42802e-09 5.84004e-10)
(-4.94588e-11 -1.34944e-09 5.88507e-10)
(-3.98383e-10 -1.37026e-09 5.73166e-10)
(-5.80758e-10 -1.3812e-09 5.69453e-10)
(-8.08001e-12 3.10275e-12 1.46661e-11)
(0 0 0)
(0 0 0)
(0 0 0)
(3.84101e-11 -8.8694e-12 1.3978e-11)
(4.76995e-12 -9.26671e-11 6.47061e-11)
(0 0 0)
(0 0 0)
(0 0 0)
(6.16666e-11 -1.10592e-10 6.21509e-11)
(2.80556e-11 -2.98477e-10 1.39264e-10)
(0 0 0)
(0 0 0)
(0 0 0)
(4.67161e-11 -3.04189e-10 1.34418e-10)
(2.76605e-11 -4.94414e-10 2.17737e-10)
(0 0 0)
(0 0 0)
(0 0 0)
(4.93554e-11 -4.87658e-10 2.10668e-10)
(3.00892e-11 -6.50241e-10 2.91872e-10)
(0 0 0)
(0 0 0)
(0 0 0)
(4.32189e-11 -6.30726e-10 2.82593e-10)
(6.80752e-11 -7.66883e-10 3.52097e-10)
(0 0 0)
(0 0 0)
(0 0 0)
(-4.7168e-12 -7.34324e-10 3.40706e-10)
(1.88542e-10 -8.97097e-10 3.88862e-10)
(0 0 0)
(0 0 0)
(0 0 0)
(-1.40913e-10 -8.50987e-10 3.75645e-10)
(4.20698e-10 -1.18774e-09 3.96017e-10)
(0 0 0)
(0 0 0)
(0 0 0)
(-3.91944e-10 -1.12303e-09 3.81604e-10)
(5.56017e-10 -1.42665e-09 3.83092e-10)
(3.20269e-10 -1.39469e-09 3.76737e-10)
(-4.45003e-11 -1.32039e-09 3.77353e-10)
(-3.95604e-10 -1.3379e-09 3.69807e-10)
(-5.77325e-10 -1.34536e-09 3.70487e-10)
(-8.13218e-12 3.13449e-12 7.71936e-12)
(0 0 0)
(0 0 0)
(0 0 0)
(3.8507e-11 -9.08103e-12 7.3901e-12)
(5.20322e-12 -9.04848e-11 3.33088e-11)
(0 0 0)
(0 0 0)
(0 0 0)
(6.15719e-11 -1.0914e-10 3.20872e-11)
(3.00805e-11 -2.91941e-10 7.0568e-11)
(0 0 0)
(0 0 0)
(0 0 0)
(4.56186e-11 -2.98804e-10 6.82503e-11)
(3.19634e-11 -4.83626e-10 1.09186e-10)
(0 0 0)
(0 0 0)
(0 0 0)
(4.67329e-11 -4.78303e-10 1.05795e-10)
(3.67431e-11 -6.3581e-10 1.45285e-10)
(0 0 0)
(0 0 0)
(0 0 0)
(3.91101e-11 -6.17864e-10 1.40814e-10)
(7.65073e-11 -7.50008e-10 1.7426e-10)
(0 0 0)
(0 0 0)
(0 0 0)
(-9.70107e-12 -7.19036e-10 1.68745e-10)
(1.97349e-10 -8.79248e-10 1.91663e-10)
(0 0 0)
(0 0 0)
(0 0 0)
(-1.45401e-10 -8.34642e-10 1.8524e-10)
(4.27577e-10 -1.16811e-09 1.94844e-10)
(0 0 0)
(0 0 0)
(0 0 0)
(-3.93729e-10 -1.10474e-09 1.87825e-10)
(5.61125e-10 -1.40549e-09 1.88392e-10)
(3.25392e-10 -1.37555e-09 1.84611e-10)
(-4.16278e-11 -1.30336e-09 1.84326e-10)
(-3.94924e-10 -1.31933e-09 1.81235e-10)
(-5.76778e-10 -1.32524e-09 1.82251e-10)
(3.64991e-12 -2.85573e-12 0)
(6.00823e-12 -1.6909e-11 0)
(2.49467e-13 -2.68027e-11 0)
(-2.04355e-12 -2.08311e-11 0)
(2.15641e-11 -1.56245e-11 0)
(2.42017e-11 -9.7173e-11 0)
(2.05149e-11 -1.22823e-10 0)
(2.94684e-12 -1.41722e-10 0)
(-6.70047e-12 -1.2924e-10 0)
(2.01084e-11 -1.12137e-10 0)
(4.60531e-11 -2.91695e-10 0)
(3.03036e-11 -3.07762e-10 0)
(7.01046e-12 -3.21809e-10 0)
(-7.58613e-12 -3.10159e-10 0)
(7.65197e-12 -2.97413e-10 0)
(4.75105e-11 -4.80029e-10 0)
(2.9412e-11 -4.91342e-10 0)
(8.57545e-12 -5.01251e-10 0)
(-3.88671e-12 -4.88167e-10 0)
(9.05759e-12 -4.75357e-10 0)
(5.20394e-11 -6.35972e-10 0)
(3.00099e-11 -6.57637e-10 0)
(6.68113e-12 -6.7149e-10 0)
(-8.33772e-12 -6.48323e-10 0)
(1.28974e-12 -6.20369e-10 0)
(9.19932e-11 -7.63967e-10 0)
(5.45482e-11 -8.10648e-10 0)
(1.13072e-12 -8.33514e-10 0)
(-4.37523e-11 -7.94936e-10 0)
(-4.83645e-11 -7.37042e-10 0)
(2.11891e-10 -9.12952e-10 0)
(1.31615e-10 -9.80339e-10 0)
(-8.38903e-12 -1.00238e-09 0)
(-1.39085e-10 -9.57809e-10 0)
(-1.84294e-10 -8.74055e-10 0)
(4.25917e-10 -1.20296e-09 0)
(2.57361e-10 -1.24089e-09 0)
(-2.25716e-11 -1.22951e-09 0)
(-2.9109e-10 -1.20835e-09 0)
(-4.19317e-10 -1.14701e-09 0)
(5.53704e-10 -1.41097e-09 0)
(3.27444e-10 -1.3877e-09 0)
(-3.58145e-11 -1.33237e-09 0)
(-3.85738e-10 -1.3402e-09 0)
(-5.74914e-10 -1.33808e-09 0)
)
;

boundaryField
{
    interface
    {
        type            calculated;
    }
    symmetry
    {
        type            symmetry;
    }
    bottom
    {
        type            calculated;
    }
}


// ************************************************************************* //
