/*--------------------------------*- C++ -*----------------------------------*\
| =========                 |                                                 |
| \\      /  F ield         | OpenFOAM: The Open Source CFD Toolbox           |
|  \\    /   O peration     | Version:  v1912                                 |
|   \\  /    A nd           | Website:  www.openfoam.com                      |
|    \\/     M anipulation  |                                                 |
\*---------------------------------------------------------------------------*/
FoamFile
{
    version     2.0;
    format      ascii;
    class       volScalarField;
    location    "0.54/solid";
    object      sigmaHyd;
}
// * * * * * * * * * * * * * * * * * * * * * * * * * * * * * * * * * * * * * //

dimensions      [1 -1 -2 0 0 0 0];


internalField   nonuniform List<scalar> 
256
(
-717385
-372143
-368075
-691419
-987734
-576381
-570879
-956004
-1.01064e+06
-603849
-598057
-977838
-1.02196e+06
-614230
-608261
-988342
-1.05176e+06
-633975
-627890
-1.01749e+06
-1.11961e+06
-682471
-676307
-1.0849e+06
-1.30662e+06
-839114
-832404
-1.27063e+06
-1.8918e+06
-1.38535e+06
-1.37363e+06
-1.8425e+06
-352943
-86652.2
-87018.3
-338911
-527902
-197554
-196977
-509720
-548616
-225648
-224890
-529740
-557477
-235882
-235040
-538024
-576458
-246397
-245510
-556454
-623039
-272817
-271902
-602559
-774685
-385836
-384394
-752762
-1.30708e+06
-839185
-832367
-1.27067e+06
-277500
-46648.4
-47250.9
-264141
-400008
-110597
-110517
-383359
-415267
-132296
-132073
-398067
-423627
-141717
-141420
-405869
-440715
-150648
-150304
-422345
-482609
-172346
-171956
-463587
-623153
-272416
-271451
-602353
-1.12015e+06
-682091
-675721
-1.08457e+06
-258246
-45342
-45848.8
-244806
-363784
-96214.3
-96103.3
-347424
-375873
-113674
-113450
-359068
-383694
-121915
-121626
-366358
-400288
-130254
-129919
-382312
-440810
-150647
-150253
-422079
-576228
-245510
-244515
-555512
-1.0513e+06
-632273
-625857
-1.01556e+06
-249495
-46327.4
-46757.5
-235973
-349216
-93033.2
-92879.3
-332998
-359889
-108290
-108043
-343299
-367205
-115533
-115233
-350112
-383401
-123319
-122975
-365661
-423133
-143005
-142601
-404588
-555568
-235274
-234255
-534924
-1.01758e+06
-609940
-603484
-981749
-244194
-46916
-47292.7
-230588
-341479
-91932.9
-91748.6
-325314
-351554
-106118
-105854
-335063
-358511
-112723
-112414
-341540
-374372
-120090
-119743
-356756
-413575
-139352
-138944
-395130
-544217
-230235
-229206
-523610
-998198
-597813
-591334
-962294
-240961
-47195.3
-47537.3
-227288
-337072
-91464
-91259.2
-320919
-346888
-105148
-104871
-330435
-353627
-111400
-111085
-336708
-369259
-118512
-118162
-351698
-408136
-137537
-137126
-389736
-537751
-227673
-226639
-517157
-986967
-591082
-584590
-951013
-239406
-47296.8
-47621.6
-225696
-335008
-91272.8
-91057.6
-318855
-344721
-104757
-104473
-328279
-351359
-110856
-110537
-334457
-366878
-117850
-117497
-349336
-405601
-136769
-136357
-387217
-534745
-226572
-225535
-514153
-981720
-588013
-581516
-945739
)
;

boundaryField
{
    interface
    {
        type            zeroGradient;
    }
    symmetry
    {
        type            symmetry;
    }
    bottom
    {
        type            zeroGradient;
    }
}


// ************************************************************************* //
