/*--------------------------------*- C++ -*----------------------------------*\
| =========                 |                                                 |
| \\      /  F ield         | OpenFOAM: The Open Source CFD Toolbox           |
|  \\    /   O peration     | Version:  v1912                                 |
|   \\  /    A nd           | Website:  www.openfoam.com                      |
|    \\/     M anipulation  |                                                 |
\*---------------------------------------------------------------------------*/
FoamFile
{
    version     2.0;
    format      ascii;
    class       volSymmTensorField;
    location    "0.54/solid";
    object      sigma;
}
// * * * * * * * * * * * * * * * * * * * * * * * * * * * * * * * * * * * * * //

dimensions      [1 -1 -2 0 0 0 0];


internalField   nonuniform List<symmTensor> 
256
(
(-204240 22649.7 -8887.98 398264 24672.8 -219199)
(60099.9 -8278.16 -3636.09 251520 24511.4 -250454)
(61492 9810.04 3551.67 249177 24751.3 -246117)
(-181576 -21270.6 8902.82 392481 25557.7 -204357)
(-238689 -1117.67 -13242.9 124823 1227.71 -249354)
(-36468.5 -4683.55 -5881.28 64398.7 2576.05 -294982)
(-34209.7 6274.71 5890.15 63309.1 2790.68 -290236)
(-213634 1851.72 13314.7 125511 1959.65 -233350)
(-240259 -3796.25 -14128.5 125892 -1621.81 -250541)
(-46385.7 -3553.13 -6396.53 38723.9 -1322.34 -302864)
(-44158.7 4854.07 6471.24 37863.7 -1177.49 -297988)
(-214852 4326.31 14228.8 126960 -1114.69 -234233)
(-239717 -2218.82 -14584.5 144128 -259.004 -252335)
(-38527.3 -2475.54 -6623.86 32575.7 -444.703 -308250)
(-36309 3443.02 6715.84 31843.1 -344.534 -303275)
(-213910 2628.16 14695.4 145413 105.761 -235744)
(-247619 -232.93 -15039.6 151024 2108.66 -262128)
(-36028.9 -1201.68 -6865.98 26836.5 1825.07 -320786)
(-33780.1 1876.29 6955.54 26152.7 1902.82 -315734)
(-221394 524.644 15156.5 152493 2393.79 -245278)
(-269746 3247.64 -15430 134307 6179.08 -283880)
(-49373 887.294 -7097.2 8344.16 6025.26 -346871)
(-47126 -529.251 7184.17 7688.35 6092.93 -341753)
(-243215 -3114.39 15556.6 135942 6419.98 -266766)
(-309209 10208.6 -15375.7 28985.3 13086.3 -321194)
(-84502.4 4348.95 -7098.41 -82435.6 13612.3 -392618)
(-82258.3 -4464.48 7191.65 -82411.5 13672.1 -387371)
(-282505 -10313.4 15515.3 32314.8 13287.6 -303634)
(-249561 14401.1 -14334.4 -261895 17238.3 -261738)
(13090 6702.39 -6625.09 -334231 18454.6 -333951)
(15392.5 -6680.94 6714.94 -329074 18502.9 -328800)
(-223033 -14468 14465.4 -244729 17386.3 -244645)
(-231616 13973.5 -6567.1 199612 -6225.51 44031.4)
(-33372.2 -9981.18 -1802.97 47935.7 4867.32 -39056.2)
(-32350.2 10903.9 2104.69 45229 5591.76 -39464.9)
(-209305 -12847.5 6725.45 193549 -4013.39 46052.6)
(-270329 -2427.34 -9792.88 45916.7 466.084 -27410.8)
(-121329 -5067.07 -3679.28 -38382.6 6077.93 -122613)
(-119238 5922.19 4180.31 -39895.2 6543.48 -122475)
(-245526 2817.86 10033.3 45834.8 1972.12 -23675.3)
(-276532 -3918.92 -10136.9 33656.8 697.568 -34125.7)
(-139061 -3632.39 -3942.93 -76220.6 2490.43 -142016)
(-136953 4235.52 4515.38 -77257.4 2820.93 -141913)
(-251298 4137.64 10401.5 34459 1810.18 -30619.1)
(-279607 -2356.56 -10222.5 34958.2 1248.48 -31539.4)
(-138253 -2566.1 -3914.63 -97977.4 1650.81 -146850)
(-136142 2957.35 4502.77 -98819 1903.93 -146797)
(-253918 2520.6 10495.9 36113.6 2113.73 -28207.1)
(-290347 -416.746 -10435.3 33883.2 4345.62 -33045)
(-140684 -1351.67 -4017.49 -112127 4354.35 -153379)
(-138536 1567.76 4599.01 -112930 4559.18 -153367)
(-264135 520.646 10714.2 35191.8 5041.16 -29795.2)
(-316547 3171.07 -10618.9 18938.6 9256.47 -44457.7)
(-158522 730.814 -4167.5 -129511 9177.95 -170096)
(-156369 -727.694 4738.23 -130305 9345.38 -170136)
(-289857 -3180.31 10905.3 20365.1 9817.88 -41267.8)
(-364074 10602.7 -10521.3 -69973.1 13337.7 -70832.2)
(-198823 4328.35 -4195.18 -202458 13422.2 -202814)
(-196669 -4674.91 4737.03 -202560 13541.3 -202829)
(-337033 -10807.8 10806.6 -66832.8 13740.5 -67488.9)
(-309484 15414.5 -10086 -321350 13194.1 28733.4)
(-84487 7141.95 -4146.65 -392811 13695.5 -82090.8)
(-82205 -7169.92 4572.2 -387510 13751.3 -81944.9)
(-282544 -15517 10318.2 -303586 13376.8 32340.1)
(-201923 8346.3 -2656.87 144988 6708.93 91126.2)
(-29677.8 -12222.4 -173.816 5866.32 16647.2 240.363)
(-28632.7 12626.1 411.762 3386.92 17183.7 -467.128)
(-179968 -7460.36 2732.44 139944 8363.07 92619.8)
(-224994 -2992.03 -3737.81 44897.1 9382.87 56957.4)
(-86957.5 -5527.23 -790.864 -38922.2 14367.7 -51318.2)
(-84934.9 5980.89 1179.3 -40479.7 14813.7 -51690.5)
(-200803 3222.59 3878.96 44690.9 10789.9 59586.5)
(-229438 -3707.88 -3568.33 43944.5 7966.61 47556.8)
(-100155 -3592.06 -769.337 -63107.6 9625.1 -74159.9)
(-98116.5 3857.45 1178.55 -64236 9993.32 -74595.1)
(-204839 3791.35 3723.89 44428.4 9144.06 49844.7)
(-232735 -2305.29 -3372.77 47402.3 6933.97 46679.5)
(-99705.1 -2584.97 -618.523 -80257.9 7332.7 -83061.9)
(-97656.1 2698.87 1014.06 -81187.8 7641.26 -83576.3)
(-207657 2359.83 3526.74 48231.5 7924.01 48695)
(-243306 -452.535 -3323.17 48430.9 8217.45 44515.9)
(-102298 -1464.36 -585.333 -91514.5 8253.83 -91046.4)
(-100197 1467.06 962.521 -92394 8514.43 -91628.5)
(-217619 475.937 3474.41 49441.4 9047.37 46367.6)
(-269028 3214.11 -3293.05 38636.5 10380 34954.8)
(-119289 631.069 -622.479 -103561 10312.2 -106536)
(-117156 -774.909 979.457 -104412 10525.1 -107185)
(-242689 -3274.77 3442.89 39818.7 11054.2 36710.7)
(-316614 10693.4 -3222.76 -42619.9 10015 17202.7)
(-157903 4273.94 -680.279 -168601 9892.54 -130370)
(-155731 -4700.51 983.606 -168732 10039.7 -130974)
(-289661 -10922.8 3359.06 -39637.5 10491 19161.8)
(-270054 15459.7 -3232.27 -283875 6612.8 134366)
(-48684.5 7123.27 -742.404 -346781 6424.65 9355.54)
(-46378.9 -7166.13 875.862 -341559 6479.38 8948.88)
(-243015 -15564.7 3301.72 -266409 6796.19 136654)
(-183458 6049.36 -775.109 123215 10766.6 88763.1)
(-26626 -12891.1 503.741 -6958.7 16658 -275.597)
(-25581.3 12953.6 -300.57 -9185.16 17040.9 -846.203)
(-161852 -5360.34 823.171 119162 11956.8 90732.3)
(-199849 -3038.57 -911.401 38104.7 12913.9 70314)
(-71484 -5603.66 623.495 -43766 15886.1 -37583.2)
(-69502.8 5806.74 -285.319 -45175.2 16244.5 -37836.7)
(-176159 3168.57 1010.38 38257.8 14029.1 73292.4)
(-203154 -3389.45 -619.769 43739.7 11880.8 61335.6)
(-81539.3 -3452.21 785.626 -59822.7 12862 -59484.9)
(-79536.3 3532.43 -441.901 -60888.2 13186 -59801.1)
(-179074 3404.16 728.3 44318.9 12891.3 63953)
(-206581 -2117.28 -373.765 52291 10318.6 56673.7)
(-80981.7 -2500.61 944.975 -70248.6 10509.5 -71846)
(-78961.3 2477.96 -629.063 -71151.1 10798.1 -72245.2)
(-182005 2120.34 475.628 53115.3 11219.3 58995.3)
(-217218 -370.179 -245.873 56969.1 9644.26 51976.5)
(-83786.3 -1468.04 1015.15 -77203.6 9626.9 -82397.6)
(-81704.9 1376.29 -727.458 -78061 9878.72 -82873.4)
(-191980 359.165 339.354 57958 10426.1 54102.2)
(-242728 3243.63 -186.955 49331.7 8929.73 43223.2)
(-100541 570.053 1006.09 -87086.3 8885.52 -97196)
(-98412.4 -769.926 -748.613 -87908.7 9092.07 -97740.6)
(-216727 -3321.02 272.068 50517.2 9571.23 45243.8)
(-289700 10536.7 -206.715 -29981.2 6210.26 31753.8)
(-137988 4112.87 918.195 -150737 6117.86 -114696)
(-135795 -4567.12 -726.419 -150831 6258.07 -115181)
(-262897 -10768.7 271.076 -26961.4 6658.27 34008.5)
(-246942 15101.9 -313.316 -261605 3134.03 153562)
(-32651.3 6893.37 860.833 -320102 2852.8 28946.2)
(-30313.1 -6949 -839.773 -314887 2899.71 28668.7)
(-219860 -15206.7 310.527 -244209 3293.32 156155)
(-173164 5323.32 -190.322 113136 10133.1 83081.4)
(-26002.9 -12735.5 513.29 -11879.6 13104.1 -2478.11)
(-24974.7 12594.2 -351.518 -13910.1 13376 -2938.35)
(-151802 -4768.02 229.371 109852 10974.6 85424.8)
(-187456 -2894.38 -77.6336 32739.9 11932.2 69254.4)
(-66655 -5463.37 807.086 -47157.6 13408.5 -34016)
(-64727.4 5509.9 -527.01 -48429 13674.4 -34146.1)
(-164116 2958.55 159.182 33270.3 12752.5 72588.6)
(-190436 -3127.98 159.133 40410.6 11733.8 61665.2)
(-75453.4 -3310.14 972.979 -60212.5 12184.4 -53654.4)
(-73500.4 3276.84 -685.168 -61206.1 12436 -53843.7)
(-166715 3101.56 -69.3521 41171.8 12511.1 64639.8)
(-194028 -1940.08 345.841 51866 10441.4 55709.2)
(-74917.6 -2410.94 1087.52 -66794.4 10485.8 -66853)
(-72941.7 2310.56 -826.651 -67664.3 10718.9 -67124.9)
(-169799 1914.92 -263.149 52765.5 11162 58382.6)
(-204784 -282.036 452.366 58925.1 8887.45 49893.8)
(-77924.5 -1444.61 1138.51 -70959.9 8858.06 -78346.6)
(-75883 1303.91 -908.459 -71800.9 9066.19 -78697.7)
(-179858 253.834 -379.828 59944.5 9529.67 52358.9)
(-230154 3235.91 485.926 52130.3 6833.22 42123.6)
(-94595.6 520.567 1124.89 -80061.6 6843.86 -92141.2)
(-92498.5 -747.412 -929.309 -80871.8 7015.7 -92561.2)
(-204397 -3320.37 -424.816 53339.4 7366.19 44478.9)
(-276501 10341.6 429.929 -26042.9 3736.99 33888.6)
(-131347 3957.69 1041.52 -143181 3745.33 -106509)
(-129169 -4427.22 -909.95 -143264 3861.16 -106863)
(-249832 -10574.2 -391.024 -22994.6 4108.77 36486.4)
(-235586 14755.5 323.807 -249842 1629.92 154767)
(-28728.8 6684.42 992.039 -306055 1460.18 35326.4)
(-26393.5 -6752.69 -1005.99 -300840 1497.91 35184.5)
(-208500 -14863.2 -343.811 -232455 1758.94 157696)
(-167082 5122.6 -62.9658 108267 7893.7 79591.2)
(-26095.3 -12442.9 330.095 -14117.1 9308.57 -3646.58)
(-25078.3 12182.5 -214.306 -16006.7 9490.98 -4036.16)
(-145850 -4650.37 93.037 105534 8452.45 82192.9)
(-180748 -2745.45 43.8247 30078.2 9080.3 66952)
(-65325.7 -5310.26 552.069 -48629.4 9753.01 -32751.9)
(-63437.7 5262.2 -344.842 -49798.8 9934.57 -32799.8)
(-157606 2769.01 19.5794 30912.2 9636.33 70551.1)
(-183726 -2957.54 193.048 38160.8 9222.75 60507.7)
(-73762.4 -3212.16 665.494 -60683 9398.77 -50570.5)
(-71847.5 3107.55 -447.919 -61619 9574.6 -50673.9)
(-160209 2905.42 -122.272 39096.3 9763.59 63756.6)
(-187453 -1823.88 306.412 50611 8362.67 54768.1)
(-73325.7 -2355.38 731.484 -65762.8 8354.74 -63252.8)
(-71384.6 2205.38 -533.44 -66605.6 8521.29 -63438.1)
(-163419 1781.06 -240.926 51601.8 8876.72 57715.9)
(-198279 -226.668 370.616 58658.5 6854.17 49024.2)
(-76468.1 -1431.66 756.176 -68722 6841.05 -74566.1)
(-74458.5 1259.29 -584.185 -69552.8 6992.25 -74831.3)
(-173528 187.588 -314.008 59722.5 7321.05 51758.2)
(-223520 3215.55 383.035 52259.5 4795.93 42019)
(-93080.7 483.04 739.76 -77490.3 4843.17 -87612.4)
(-91010.6 -728.697 -598.38 -78298.1 4968.93 -87946.8)
(-197897 -3305.1 -337.13 53493.3 5187.68 44638.7)
(-269377 10201 333.768 -24797.2 2308.81 34981.2)
(-129416 3858 680.682 -139904 2378.73 -100907)
(-127255 -4340.19 -591.309 -139987 2463.57 -101173)
(-242774 -10435.5 -306.697 -21729 2583.38 37841.9)
(-229352 14531.7 252.777 -242909 929.955 154000)
(-28368.2 6556.5 639.315 -297977 867.959 38634.3)
(-26041.1 -6635.81 -659.203 -292761 895.565 38582.5)
(-202246 -14643.6 -270.88 -225516 1024.95 157180)
(-163531 5056.2 -35.6354 105977 4954.96 77831.9)
(-26223.4 -12243 165.743 -15154.1 5592.02 -4259.62)
(-25211.3 11917 -96.4935 -16952.8 5697.02 -4606.18)
(-142361 -4631.44 54.5131 103596 5273.6 80597.5)
(-176986 -2652.61 17.662 29003.3 5584.97 65488.2)
(-64935.4 -5214.81 281.292 -49168 5872.35 -32372.9)
(-63070.2 5113.7 -154.636 -50270.4 5977.75 -32370.5)
(-153946 2653.31 22.5403 30045.5 5905.79 69263)
(-180021 -2863.54 93.6616 37100 5731.09 59749.4)
(-73303.8 -3159.48 340.287 -60876.4 5793.65 -49114.9)
(-71411.1 3012.95 -204.981 -61772.6 5896.95 -49164.8)
(-156608 2796.39 -48.1752 38165.9 6047.97 63184.8)
(-183832 -1761.56 150.75 49718.8 5247.68 54586.5)
(-72955.9 -2329.56 371.603 -65528.1 5235.47 -61077.5)
(-71035 2148.66 -247.429 -66351 5334.56 -61208.6)
(-159897 1707.81 -108.275 50786.2 5553.45 57723)
(-194684 -199.49 181.907 58024.7 4243.34 49285.2)
(-76169.6 -1429.21 380.412 -68123.2 4244.14 -71916.3)
(-74178.5 1235.65 -273.072 -68946.4 4335.01 -72127.9)
(-170019 153.119 -145.254 59130.4 4524.48 52205.2)
(-219823 3199.18 185.064 51823 2858.36 42748)
(-92738.3 459.963 368.339 -76732.6 2905.27 -84530.6)
(-90683.8 -719.558 -281.561 -77539.6 2981.32 -84811.7)
(-194264 -3292.83 -155.753 53079.9 3096.26 45549.6)
(-265359 10122.3 155.718 -24366 1317.87 36027.9)
(-128834 3807.56 335.573 -138494 1387.04 -97585.7)
(-126684 -4299.77 -282.29 -138579 1438.51 -97797.6)
(-238781 -10359 -138.78 -21282 1485.5 39066.2)
(-225744 14413.7 106.127 -238830 506.773 153653)
(-28577.2 6493.15 307.315 -293361 496.985 40417.3)
(-26254.9 -6580.61 -321.471 -288145 513.78 40420.4)
(-198613 -14529.4 -117.392 -221426 564.86 157003)
(-161866 5028.2 -13.1734 105073 1684.58 77119.3)
(-26271.9 -12153.5 49.0029 -15553.4 1869.37 -4536.25)
(-25261.5 11798.4 -25.9782 -17307.6 1903.64 -4862.12)
(-140722 -4624.99 19.5736 102863 1788.06 79964.7)
(-175241 -2612.97 1.11878 28657.2 1878.31 64857.6)
(-64793.2 -5174.07 82.9542 -49330.6 1959.09 -32302.8)
(-62938.2 5049.28 -40.3955 -50399.9 1993.62 -32276.2)
(-152243 2603.46 12.6006 29804.6 1983.06 68719.8)
(-178311 -2823.6 23.7059 36718.3 1930.65 59448.5)
(-73156.6 -3138.29 100.514 -60928.2 1946.31 -48567.5)
(-71273.8 2972.41 -54.6305 -61804.2 1980.33 -48591.5)
(-154941 2749.54 -8.06215 37853.1 2034.87 62978.2)
(-182159 -1735.61 40.7498 49307.2 1774.2 54662.4)
(-72854.7 -2320.49 109.467 -65500.1 1769.89 -60103.2)
(-70942.9 2124.61 -67.1308 -66312.4 1802.72 -60207.9)
(-158264 1676.56 -26.0564 50417.2 1875.49 57895.2)
(-193017 -189.022 49.7983 57638 1429.24 49673.9)
(-76096.8 -1429.99 111.391 -68027.6 1431.48 -70627.3)
(-74113.9 1225.52 -74.813 -68846.5 1461.72 -70812.8)
(-168386 138.875 -37.1072 58768 1522.94 52688.9)
(-218101 3191.12 50.2595 51516.6 951.909 43354.1)
(-92641.8 449.581 107.118 -76572.7 970.737 -83047.9)
(-90594.4 -716.811 -77.7251 -77379.2 996.14 -83303.3)
(-192567 -3287.12 -40.1533 52787.4 1031.55 46248.3)
(-263479 10088.8 40.8586 -24218 435.521 36685.7)
(-128627 3787.95 96.8523 -137967 462.946 -96083.5)
(-126482 -4285.77 -78.9795 -138053 480.175 -96269.8)
(-236908 -10327.1 -35.0375 -21125 491.818 39813.9)
(-224023 14365.1 24.2432 -236910 163.829 153622)
(-28690.8 6468.52 86.7876 -291232 165.098 41200)
(-26370.4 -6560.32 -91.6885 -286016 170.729 41229.4)
(-196875 -14483 -27.9885 -219500 183.357 157058)
)
;

boundaryField
{
    interface
    {
        type            calculated;
        value           nonuniform List<symmTensor> 
192
(
(-45.8261 0.351603 2.96546 896102 24672.8 278640)
(-47.6672 0.247042 4.7255 607186 1227.71 233009)
(-49.0753 -0.0737612 5.26471 615255 -1621.81 238821)
(-49.9342 -0.495493 5.36442 644809 -259.004 248347)
(-50.1092 -0.85427 5.26869 672015 2108.66 258862)
(-50.9265 -1.50511 5.09763 690249 6179.08 272062)
(-49.2761 -1.98992 4.67326 634185 13086.3 284005)
(-52.7559 -4.3806 4.33795 299060 17238.3 299218)
(-44.602 0.247997 1.46627 684105 -6225.51 528525)
(-45.48 0.15952 2.50797 533429 466.084 460101)
(-46.316 -0.132162 2.76556 531285 697.568 463502)
(-46.898 -0.566683 2.76099 545817 1248.48 479320)
(-46.8524 -0.950466 2.64481 567327 4345.62 500399)
(-47.59 -1.67262 2.48665 592150 9256.47 528753)
(-45.6784 -2.2119 2.21282 563730 13337.7 562871)
(-49.3133 -4.72924 1.98985 284251 13194.1 634334)
(-47.2644 0.211231 1.15857 573367 6708.93 519506)
(-48.0432 0.117564 1.96077 472866 9382.87 484927)
(-48.8713 -0.172859 2.15509 480970 7966.61 484582)
(-49.4634 -0.63576 2.14672 497324 6933.97 496601)
(-49.3247 -1.06095 2.05262 520548 8217.45 516633)
(-49.9683 -1.86663 1.92469 550360 10380 546678)
(-47.5954 -2.48776 1.72272 530984 10015 590807)
(-51.0033 -5.17998 1.54867 272855 6612.8 691096)
(-47.456 0.158332 0.713352 515702 10766.6 481251)
(-48.0425 0.0451507 1.27482 428003 12913.9 460212)
(-48.6944 -0.246523 1.40364 441959 11880.8 459555)
(-49.1861 -0.719459 1.38542 463238 10318.6 467621)
(-48.94 -1.16431 1.30816 489961 9644.26 484969)
(-49.5144 -2.00755 1.21 521690 8929.73 515582)
(-46.982 -2.6658 1.07897 504061 6210.26 565796)
(-50.3419 -5.40581 0.970219 260282 3134.03 675449)
(-48.2524 0.133391 0.523174 484450 10133.1 454395)
(-48.7802 0.00112793 0.935163 400870 11932.2 437384)
(-49.3549 -0.300124 1.03037 416607 11733.8 437862)
(-49.8 -0.785724 1.01689 440768 10441.4 444612)
(-49.48 -1.25057 0.959865 469838 8887.45 460807)
(-49.9807 -2.12591 0.886651 502200 6833.22 492194)
(-47.2713 -2.81829 0.793854 485182 3736.99 545113)
(-50.4984 -5.60495 0.714497 251100 1629.92 655709)
(-48.4549 0.113813 0.321269 466877 7893.7 438201)
(-48.9311 -0.0341076 0.592565 385419 9080.3 422293)
(-49.4372 -0.3435 0.655617 401516 9222.75 423863)
(-49.838 -0.836751 0.645228 426688 8362.67 430845)
(-49.4659 -1.31307 0.606109 456725 6854.17 447090)
(-49.9235 -2.20519 0.556817 489292 4795.93 479051)
(-47.1309 -2.9157 0.498727 472873 2308.81 532652)
(-50.3095 -5.72662 0.450304 245193 929.955 642102)
(-48.7155 0.104405 0.188887 457253 4954.96 429108)
(-49.1728 -0.0542525 0.347863 377024 5584.97 413509)
(-49.643 -0.370789 0.385114 393137 5731.09 415786)
(-50.0191 -0.87019 0.37917 418492 5247.68 423360)
(-49.6134 -1.35512 0.356488 448763 4243.34 440023)
(-50.0372 -2.25886 0.327312 481381 2858.36 472306)
(-47.1789 -2.98223 0.29416 465454 1317.87 525848)
(-50.3084 -5.81097 0.265115 241670 506.773 634153)
(-48.7773 0.0984257 0.0561484 452964 1684.58 425010)
(-49.2213 -0.0656317 0.107078 373306 1878.31 409506)
(-49.6715 -0.385179 0.119144 389388 1930.65 412118)
(-50.034 -0.886744 0.117007 414720 1774.2 420075)
(-49.6142 -1.37526 0.109612 445000 1429.24 437036)
(-50.0226 -2.28342 0.100089 477621 951.909 469458)
(-47.1444 -3.01272 0.0900633 461953 435.521 522856)
(-50.2492 -5.849 0.0808545 240011 163.829 630544)
(320911 22649.7 -4.2449 923414 -0.949244 -17.6363)
(268443 -1117.67 -7.08937 631955 -1.05425 -13.1647)
(274067 -3796.25 -8.05639 640219 -0.817538 -9.53034)
(287106 -2218.82 -8.32936 670951 -0.571636 -8.3478)
(300437 -232.93 -8.37426 699080 -0.474292 -8.37998)
(313359 3247.64 -8.41484 717413 -0.517991 -9.36227)
(323069 10208.6 -8.48223 661263 -0.639836 -11.5121)
(339271 14401.1 -9.19966 326937 -0.856236 -13.3806)
(590557 -8278.16 -2.6325 781977 -0.552674 -22.3747)
(497548 -4683.55 -4.93932 598415 -0.74704 -21.3592)
(498706 -3553.13 -5.64991 583815 -0.573068 -20.2034)
(520932 -2475.54 -5.81132 592036 -0.313322 -19.906)
(546839 -1201.68 -5.83817 609705 -0.15503 -19.9551)
(573309 887.294 -5.9219 631026 -0.0773103 -20.3563)
(598251 4348.95 -6.15995 600318 -0.093069 -21.0729)
(663965 6702.39 -7.13078 316644 -0.179077 -21.566)
(583701 9810.04 -2.70988 771386 -0.379905 -19.4166)
(491140 6274.71 -5.11135 588659 -0.550145 -18.6388)
(491920 4854.07 -5.88783 573942 -0.407308 -17.5796)
(513909 3443.02 -6.07393 582061 -0.141189 -17.2732)
(539690 1876.29 -6.09081 599623 0.054432 -17.3425)
(566015 -529.251 -6.13186 620829 0.212673 -17.7246)
(590743 -4464.48 -6.29483 590589 0.303618 -18.5136)
(656752 -6680.94 -7.20195 312285 0.311487 -19.4132)
(317566 -21270.6 -3.11311 891623 -0.297853 -19.9145)
(266528 1851.72 -5.96589 605673 -0.431371 -19.4436)
(271598 4326.31 -6.94432 613410 -0.289752 -18.5673)
(284381 2628.16 -7.19481 643704 -0.0131449 -18.3716)
(297642 524.644 -7.21174 671529 0.194349 -18.4949)
(310395 -3114.39 -7.25349 689552 0.391762 -18.79)
(319611 -10313.4 -7.33593 634431 0.543414 -19.3434)
(336590 -14468 -8.2611 314894 0.6947 -20.0132)
(-9.45056 0.892435 1.04849 850644 25557.7 253806)
(-6.03652 0.932037 1.96473 565918 1959.65 207057)
(-3.29927 0.466961 2.22458 573577 -1114.69 212384)
(-2.13114 -0.113186 2.30446 602547 105.761 221390)
(-1.96022 -0.412321 2.3324 629216 2393.79 231445)
(-0.789309 -0.843041 2.51115 647102 6419.98 244394)
(-1.86468 -0.814051 2.61737 592552 13287.6 256603)
(6.98851 -3.06583 3.14327 271735 17386.3 271819)
(-14.8985 0.35069 -0.179627 638437 -4013.39 490940)
(-14.1895 0.366705 0.0178693 491722 1972.12 422212)
(-13.4215 0.109198 -0.00626672 489590 1810.18 424512)
(-12.8964 -0.250376 -0.016941 503561 2113.73 439240)
(-12.8247 -0.371713 0.0268693 524285 5041.16 459298)
(-11.2575 -0.662045 0.238509 548356 9817.88 486723)
(-11.5225 -0.390759 0.48791 521090 13740.5 520434)
(-1.81283 -2.55438 0.933419 256690 13376.8 592616)
(-15.1177 0.18915 0.0177389 529618 8363.07 482294)
(-14.5902 0.15411 0.308742 432093 10789.9 446989)
(-13.9707 -0.0163392 0.393931 440020 9144.06 445436)
(-13.3516 -0.275045 0.435635 455753 7924.01 456217)
(-13.1593 -0.296843 0.490121 478072 9047.37 474998)
(-11.1889 -0.515472 0.646808 506894 11054.2 503786)
(-11.1289 -0.133451 0.799958 488307 10491 547106)
(-0.54497 -2.44467 1.02567 244728 6796.19 647790)
(-16.7098 0.0861742 -0.0500094 473788 11956.8 445358)
(-16.4478 0.0148145 0.193836 388533 14029.1 423567)
(-16.1171 -0.0989034 0.282033 402062 12891.3 421696)
(-15.5236 -0.275946 0.323741 422590 11219.3 428470)
(-15.2555 -0.209987 0.368749 448298 10426.1 444442)
(-12.9575 -0.36101 0.481684 478875 9571.23 473601)
(-12.5138 0.101325 0.583551 461751 6658.27 522721)
(-1.37269 -2.26419 0.716029 232031 3293.32 632396)
(-16.9705 0.06915 0.0499769 443886 10974.6 419459)
(-16.7076 -0.0164795 0.281975 362428 12752.5 401746)
(-16.3897 -0.111168 0.379228 377552 12511.1 401020)
(-15.7268 -0.258494 0.422748 400832 11162 406450)
(-15.3813 -0.153427 0.455468 428781 9529.67 421195)
(-12.897 -0.2791 0.522038 459866 7366.19 451006)
(-12.3048 0.210822 0.566991 443168 4108.77 502649)
(-0.856693 -2.23117 0.618123 222845 1758.94 612996)
(-17.4447 0.062535 0.0311147 427201 8452.45 403860)
(-17.1943 -0.0279854 0.197371 347661 9636.33 387300)
(-16.8921 -0.111912 0.271331 363019 9763.59 387679)
(-16.1889 -0.241905 0.303752 387211 8876.72 393325)
(-15.7865 -0.111013 0.326093 416039 7321.05 408075)
(-13.1607 -0.219924 0.367568 447239 5187.68 438385)
(-12.4397 0.287556 0.392288 431019 2583.38 490590)
(-0.768519 -2.19939 0.418431 216916 1024.95 599612)
(-17.5597 0.0647336 0.0359687 418112 5273.6 395113)
(-17.2968 -0.0266665 0.140394 339680 5905.79 378898)
(-16.9816 -0.1065 0.187291 354977 6047.97 379995)
(-16.2439 -0.230261 0.207351 379288 5553.45 386224)
(-15.8057 -0.0879419 0.220041 408292 4524.48 401367)
(-13.1036 -0.190773 0.240914 439485 3096.26 431955)
(-12.3249 0.322988 0.251126 423682 1485.5 484030)
(-0.525944 -2.19697 0.259243 213371 564.86 591800)
(-17.6748 0.0646632 0.00702847 414073 1788.06 391175)
(-17.4113 -0.0266515 0.0403163 336157 1983.06 375072)
(-17.0923 -0.103929 0.0557804 351387 2034.87 376512)
(-16.3395 -0.224144 0.0623882 375643 1875.49 383121)
(-15.8813 -0.0760479 0.0668342 404627 1522.94 398548)
(-13.1408 -0.175161 0.0737816 435793 1031.55 429254)
(-12.3231 0.341585 0.0778895 420214 491.818 481153)
(-0.465557 -2.19292 0.0806233 211697 183.357 588255)
(339665 9.26317 -14334.4 -12.9614 -0.757051 327488)
(323428 8.56947 -10086 -10.8735 -0.537553 661646)
(313952 8.54142 -3232.27 -8.26877 -0.371846 718372)
(302291 8.56131 -313.316 -6.60999 -0.240847 702795)
(292398 8.64025 323.807 -5.32956 -0.175459 682751)
(285372 8.68958 252.777 -4.4289 -0.108196 668723)
(281074 8.73188 106.127 -3.85757 -0.0660373 660471)
(279073 8.75034 24.2432 -3.58249 -0.0197665 656718)
(664354 7.17055 -6625.09 -21.2222 -0.0612861 317312)
(598811 6.20245 -4146.65 -20.6114 0.0293933 601208)
(574692 5.96964 -742.404 -19.6094 0.0952234 632732)
(551074 5.88898 860.833 -18.864 0.104101 612671)
(531669 5.88226 992.039 -18.2334 0.0881519 595724)
(517879 5.87628 639.315 -17.7719 0.0682135 584881)
(509394 5.882 307.315 -17.4695 0.0406502 578389)
(505426 5.88335 86.7876 -17.3112 0.0148668 575317)
(657085 7.23972 6714.94 -19.0845 0.440245 312892)
(591218 6.32585 4572.2 -18.062 0.438318 591478)
(567248 6.16262 875.862 -16.991 0.398037 622576)
(543697 6.12868 -839.773 -16.2632 0.321684 602679)
(524295 6.14858 -1005.99 -15.6199 0.250244 585873)
(510496 6.15826 -659.203 -15.1897 0.175089 575119)
(502003 6.17233 -321.471 -14.8923 0.103926 568679)
(498032 6.17681 -91.6885 -14.7553 0.0343171 565632)
(336775 8.27552 14465.4 -19.718 0.825122 315163)
(319803 7.34126 10318.2 -18.952 0.68001 634687)
(310840 7.25535 3301.72 -18.1879 0.572464 690510)
(299362 7.2269 310.527 -17.6582 0.446574 675378)
(289497 7.26915 -343.811 -17.1336 0.345863 655692)
(282484 7.28799 -270.88 -16.8104 0.238236 641910)
(278198 7.31143 -117.392 -16.57 0.142894 633814)
(276205 7.31988 -27.9885 -16.4609 0.0466258 630138)
)
;
    }
    symmetry
    {
        type            symmetry;
    }
    bottom
    {
        type            calculated;
        value           nonuniform List<symmTensor> 
32
(
(-738988 70970.6 -8887.98 95840.8 67522.9 -753947)
(-505898 48174.6 -6567.1 35554.9 -13952.4 -230251)
(-428278 33570.4 -2656.87 2021.2 -353.29 -135229)
(-392895 27352.4 -775.109 -8468.6 7094.02 -120674)
(-374005 25035.1 -190.322 -12585.5 8336.42 -117759)
(-363192 24116.1 -62.9658 -14496.4 7019.93 -116519)
(-357047 23688.1 -35.6354 -15267.5 4558.06 -115685)
(-354216 23500.8 -13.1734 -15502 1570.66 -115231)
(-238081 -7707.23 -3636.09 79140.1 61350.6 -548635)
(-94602.1 -11358.1 -1802.97 9716.39 -1220.56 -100286)
(-61711.3 -15147.8 -173.816 -17156.6 11800.4 -31793.1)
(-52818.1 -16296 503.741 -22666.7 14327.3 -26467.8)
(-50256.8 -16163.5 513.29 -24640.4 11968.6 -26732)
(-49694.9 -15807.1 330.095 -26120.9 8741.83 -27246.1)
(-49588.6 -15559.7 165.743 -27029.1 5330.89 -27624.8)
(-49552.5 -15448.8 49.0029 -27417.5 1794.44 -27816.8)
(-234289 8338.84 3551.67 78477.4 61446.1 -541899)
(-93474.2 11303 2104.69 6814.76 -368.451 -100589)
(-60684.9 14549.8 411.762 -19828.1 12418.8 -32519.3)
(-51807 15392.7 -300.57 -25074.6 14758.6 -27071.9)
(-49274.4 15102.3 -351.518 -26854.1 12271.5 -27238)
(-48731.5 14664.2 -214.306 -28194.5 8944.16 -27689.4)
(-48634.9 14376.3 -96.4935 -29011.7 5447.13 -28029.8)
(-48602.7 14248.7 -25.9782 -29355.5 1832.35 -28203.3)
(-704406 -69208.6 8902.82 97345.3 68189.1 -727187)
(-478157 -46630.4 6725.45 31574.7 -11362.4 -222800)
(-401142 -32334 2732.44 -563.815 1532.22 -128554)
(-366171 -26374.4 823.171 -9822.14 8425.26 -113587)
(-347597 -24224.5 229.371 -13049.2 9269.03 -110370)
(-336962 -23404.2 93.037 -14331.1 7636.49 -108919)
(-330908 -23030.5 54.5131 -14703.3 4908.96 -107949)
(-328115 -22867.2 19.5736 -14745.1 1684.51 -107428)
)
;
    }
}


// ************************************************************************* //
