/*--------------------------------*- C++ -*----------------------------------*\
| =========                 |                                                 |
| \\      /  F ield         | OpenFOAM: The Open Source CFD Toolbox           |
|  \\    /   O peration     | Version:  v1912                                 |
|   \\  /    A nd           | Website:  www.openfoam.com                      |
|    \\/     M anipulation  |                                                 |
\*---------------------------------------------------------------------------*/
FoamFile
{
    version     2.0;
    format      ascii;
    class       volScalarField;
    location    "0.54/solid";
    object      sigmaEq;
}
// * * * * * * * * * * * * * * * * * * * * * * * * * * * * * * * * * * * * * //

dimensions      [1 -1 -2 0 0 0 0];


internalField   nonuniform List<scalar> 
256
(
613065
441111
435600
588806
369683
321354
316658
350212
372273
308252
303607
352850
391142
311664
307052
371623
406943
321085
316473
387297
412347
330559
325924
392585
346566
310387
306305
328300
47752.5
349031
346207
51297.6
379346
86516.6
84171.8
353986
287237
84951.1
82757.1
264212
283094
65178
63427.8
260157
287732
46001.9
44745.7
264506
297133
38079.1
37263.8
273476
309720
40221.7
39479.8
285644
295714
25770.2
26820.8
272210
346534
310766
306717
328328
323926
48731
47763
299738
276721
50778.2
48717.5
254109
275697
37465.1
35392.6
252685
280124
22672.2
20920.7
256593
290207
18259.1
17151.1
266068
306472
23039.7
21720.5
281739
309383
38946
38410.9
285293
412572
331375
326813
393034
291768
43527.9
43010.8
268897
256621
42782.8
41439.9
235240
257040
31827
30476.8
234970
261729
21292.9
20568.4
238936
272240
17991.9
17858.9
248691
289522
19699.6
18846.2
265229
296222
34169.2
33802.9
272487
408907
322951
318462
389696
273239
37724.8
37110.2
251193
241480
37946.5
36814.4
220867
243086
29263.2
28168.3
221686
248520
20404.9
19842.8
226278
259769
17238.6
17036.4
236679
277726
18075.2
16965.9
253810
285823
33811
33416
262435
398503
314517
310095
379628
262696
33215.7
32400.5
241144
232059
34158.9
32959.8
211860
234463
26512.1
25317.3
213440
240627
17610.6
16771.8
218705
252539
14041
13360
229723
270989
16137.6
14449.3
247312
279896
35843.2
35358.4
256757
391121
308828
304447
372477
256888
30089.6
29086.9
235617
226700
31317.3
29984.6
206718
229555
23873.3
22473.6
208732
236217
14386.2
13110.2
214472
248564
10450.4
9057.16
225903
267328
14783.1
12590.6
243792
276753
37699.5
37167.7
253776
386914
305396
301039
368416
254284
28424.7
27306.1
233140
224270
29735.2
28307.8
204383
227326
22235.4
20679.7
206591
234229
12186
10501.3
212563
246781
7950.66
5673.43
224192
265694
14126.7
11661.2
242224
275378
38652.3
38105.8
252480
385056
303789
299444
366630
)
;

boundaryField
{
    interface
    {
        type            calculated;
        value           nonuniform List<scalar> 
192
(
795506
530597
537297
563350
587123
602358
550724
300678
621242
500853
500893
515845
537100
563410
563820
550850
548594
479334
483032
497157
518846
548873
563597
603054
499764
445592
451532
465837
487819
518943
537748
590125
470519
420875
428163
443121
465692
497463
517843
573071
453475
405470
413501
429076
452190
484374
505484
561269
443982
396695
405108
421095
444568
476984
498455
554385
439712
392722
401300
417485
441128
473645
495269
551269
812960
549364
556401
583089
607416
622984
573004
334221
706173
554981
546311
559917
580853
604260
599356
575351
696993
546591
537727
551203
572043
595336
590735
569125
783627
525809
532455
558756
582826
598199
549746
327264
757683
495958
502280
527902
551244
566079
515212
273434
579011
460942
460537
474707
495091
520574
521318
515270
507835
440142
443050
456205
476814
505721
520533
566684
460714
407923
412850
426020
446763
476561
495206
554131
432625
384253
390434
404149
425374
455692
475771
537430
416297
369475
376353
390623
412326
442983
463718
525857
407220
361053
368290
382940
404966
435815
456875
519117
403141
357242
364633
379467
401647
432578
453776
516070
334679
573326
623803
610621
593309
581203
574097
570869
575672
600077
605822
584333
566440
554444
547181
543768
569402
591419
596857
575478
557658
545701
538461
535059
327485
549968
599031
586163
569154
557254
550276
547112
)
;
    }
    symmetry
    {
        type            symmetry;
    }
    bottom
    {
        type            calculated;
        value           nonuniform List<scalar> 
32
(
859463
477052
385148
345884
325211
313552
307119
304233
554163
109128
51511.5
47140.3
42676.8
38854.3
36159.4
34741
547932
105920
49092.7
45052.7
40380.6
36299.4
33382.3
31829.4
830750
449351
358804
321056
301419
290411
284357
281645
)
;
    }
}


// ************************************************************************* //
