/*--------------------------------*- C++ -*----------------------------------*\
| =========                 |                                                 |
| \\      /  F ield         | OpenFOAM: The Open Source CFD Toolbox           |
|  \\    /   O peration     | Version:  v1912                                 |
|   \\  /    A nd           | Website:  www.openfoam.com                      |
|    \\/     M anipulation  |                                                 |
\*---------------------------------------------------------------------------*/
FoamFile
{
    version     2.0;
    format      ascii;
    class       pointVectorField;
    location    "0.78/fluid";
    object      pointMotionU;
}
// * * * * * * * * * * * * * * * * * * * * * * * * * * * * * * * * * * * * * //

dimensions      [0 1 -1 0 0 0 0];


internalField   nonuniform List<vector> 
16859
(
(0 0 0)
(0 0 0)
(0 0 0)
(0 0 0)
(0 0 0)
(0 0 0)
(0 0 0)
(0 0 0)
(0 0 0)
(0 0 0)
(0 0 0)
(0 0 0)
(0 0 0)
(0 0 0)
(0 0 0)
(0 0 0)
(1.59937e-08 2.75425e-08 1.74413e-08)
(0 0 0)
(4.7271e-10 -1.09194e-09 8.59133e-10)
(9.03768e-10 -2.08855e-09 1.6745e-09)
(1.31144e-09 -3.02869e-09 2.50503e-09)
(1.71269e-09 -3.94056e-09 3.40312e-09)
(2.12434e-09 -4.84056e-09 4.41773e-09)
(2.56474e-09 -5.73111e-09 5.59655e-09)
(3.05622e-09 -6.59633e-09 6.98737e-09)
(3.6289e-09 -7.39392e-09 8.63888e-09)
(4.32764e-09 -8.04066e-09 1.0601e-08)
(5.22626e-09 -8.38643e-09 1.29267e-08)
(6.45702e-09 -8.16635e-09 1.56814e-08)
(8.27438e-09 -6.90553e-09 1.89761e-08)
(1.11726e-08 -3.73241e-09 2.30583e-08)
(1.60164e-08 2.90173e-09 2.8491e-08)
(2.30949e-08 1.39693e-08 3.55383e-08)
(3.35311e-08 3.57852e-08 4.36237e-08)
(0 0 0)
(9.3337e-10 -2.15178e-09 1.6959e-09)
(1.78402e-09 -4.11713e-09 3.3048e-09)
(2.58738e-09 -5.97377e-09 4.94239e-09)
(3.37615e-09 -7.77882e-09 6.71124e-09)
(4.1827e-09 -9.5675e-09 8.70731e-09)
(5.04196e-09 -1.13494e-08 1.10239e-08)
(5.99521e-09 -1.31013e-08 1.37543e-08)
(7.09591e-09 -1.4754e-08 1.69923e-08)
(8.41916e-09 -1.61698e-08 2.08315e-08)
(1.00786e-08 -1.71063e-08 2.53627e-08)
(1.22574e-08 -1.7161e-08 3.06735e-08)
(1.52617e-08 -1.56972e-08 3.68581e-08)
(1.95713e-08 -1.17996e-08 4.40363e-08)
(2.57317e-08 -4.48501e-09 5.2321e-08)
(3.302e-08 5.35906e-09 6.08209e-08)
(4.52373e-08 1.96059e-08 7.38938e-08)
(0 0 0)
(1.37071e-09 -3.14786e-09 2.48965e-09)
(2.61877e-09 -6.02623e-09 4.85016e-09)
(3.79486e-09 -8.75176e-09 7.24984e-09)
(4.94548e-09 -1.1412e-08 9.83773e-09)
(6.11645e-09 -1.40649e-08 1.27531e-08)
(7.35627e-09 -1.67352e-08 1.61315e-08)
(8.72047e-09 -1.94062e-08 2.01078e-08)
(1.02773e-08 -2.20063e-08 2.48178e-08)
(1.21153e-08 -2.43857e-08 3.03944e-08)
(1.43538e-08 -2.62816e-08 3.69591e-08)
(1.71579e-08 -2.72747e-08 4.4606e-08)
(2.07544e-08 -2.6756e-08 5.33786e-08)
(2.54161e-08 -2.39815e-08 6.32263e-08)
(3.13034e-08 -1.8427e-08 7.39047e-08)
(3.74892e-08 -1.1286e-08 8.40258e-08)
(4.69906e-08 -1.51173e-09 9.75662e-08)
(0 0 0)
(1.77446e-09 -4.04778e-09 3.2214e-09)
(3.38798e-09 -7.75427e-09 6.27299e-09)
(4.90397e-09 -1.12745e-08 9.3699e-09)
(6.38029e-09 -1.47277e-08 1.27021e-08)
(7.87342e-09 -1.81985e-08 1.64471e-08)
(9.44216e-09 -2.17347e-08 2.07771e-08)
(1.11519e-08 -2.53413e-08 2.58641e-08)
(1.3079e-08 -2.89693e-08 3.18815e-08)
(1.53155e-08 -3.24969e-08 3.89998e-08)
(1.79708e-08 -3.57017e-08 4.73731e-08)
(2.11686e-08 -3.82255e-08 5.71131e-08)
(2.503e-08 -3.95452e-08 6.82386e-08)
(2.96108e-08 -3.89974e-08 8.05765e-08)
(3.47432e-08 -3.59903e-08 9.35723e-08)
(3.94401e-08 -3.10649e-08 1.05239e-07)
(4.63222e-08 -2.24062e-08 1.18968e-07)
(0 0 0)
(2.13618e-09 -4.81956e-09 3.87531e-09)
(4.07526e-09 -9.23991e-09 7.54193e-09)
(5.89043e-09 -1.34526e-08 1.12544e-08)
(7.64803e-09 -1.76083e-08 1.5237e-08)
(9.41228e-09 -2.18207e-08 1.96981e-08)
(1.12491e-08 -2.61669e-08 2.48402e-08)
(1.323e-08 -3.06847e-08 3.08654e-08)
(1.54366e-08 -3.5367e-08 3.79789e-08)
(1.79625e-08 -4.01507e-08 4.63864e-08)
(2.09119e-08 -4.48987e-08 5.62814e-08)
(2.43891e-08 -4.93724e-08 6.78192e-08)
(2.84702e-08 -5.31889e-08 8.10614e-08)
(3.31227e-08 -5.57534e-08 9.58463e-08)
(3.80393e-08 -5.61973e-08 1.11504e-07)
(4.21598e-08 -5.39114e-08 1.25481e-07)
(4.77635e-08 -4.51603e-08 1.40703e-07)
(0 0 0)
(2.4496e-09 -5.43273e-09 4.43937e-09)
(4.66856e-09 -1.04242e-08 8.63331e-09)
(6.73661e-09 -1.51986e-08 1.28673e-08)
(8.72552e-09 -1.99359e-08 1.73916e-08)
(1.07041e-08 -2.47783e-08 2.24376e-08)
(1.2742e-08 -2.9834e-08 2.8229e-08)
(1.49143e-08 -3.51786e-08 3.49891e-08)
(1.73054e-08 -4.08559e-08 4.29457e-08)
(2.00124e-08 -4.68764e-08 5.23319e-08)
(2.31458e-08 -5.32132e-08 6.33796e-08)
(2.68276e-08 -5.97943e-08 7.63064e-08)
(3.11786e-08 -6.64747e-08 9.12813e-08)
(3.6266e-08 -7.29466e-08 1.08318e-07)
(4.19459e-08 -7.85023e-08 1.26956e-07)
(4.7133e-08 -8.16238e-08 1.44325e-07)
(5.43044e-08 -7.64667e-08 1.63857e-07)
(0 0 0)
(2.71078e-09 -5.85971e-09 4.90597e-09)
(5.16059e-09 -1.12535e-08 9.53234e-09)
(7.43228e-09 -1.64321e-08 1.41862e-08)
(9.5998e-09 -2.15999e-08 1.9135e-08)
(1.17333e-08 -2.69239e-08 2.46239e-08)
(1.39029e-08 -3.25403e-08 3.08877e-08)
(1.61832e-08 -3.85595e-08 3.8159e-08)
(1.86583e-08 -4.50722e-08 4.66744e-08)
(2.14263e-08 -5.21561e-08 5.66778e-08)
(2.46059e-08 -5.98859e-08 6.84209e-08)
(2.83466e-08 -6.83497e-08 8.21655e-08)
(3.28456e-08 -7.76702e-08 9.81834e-08)
(3.83576e-08 -8.8005e-08 1.16723e-07)
(4.51271e-08 -9.9417e-08 1.37789e-07)
(5.23595e-08 -1.10505e-07 1.58746e-07)
(6.45674e-08 -1.2288e-07 1.85129e-07)
(0 0 0)
(2.91833e-09 -6.07754e-09 5.27224e-09)
(5.54924e-09 -1.16832e-08 1.02342e-08)
(7.97531e-09 -1.7086e-08 1.52048e-08)
(1.02694e-08 -2.25071e-08 2.04595e-08)
(1.24995e-08 -2.81315e-08 2.62478e-08)
(1.47328e-08 -3.41162e-08 3.28046e-08)
(1.7039e-08 -4.05968e-08 4.0359e-08)
(1.94959e-08 -4.76962e-08 4.9139e-08)
(2.21939e-08 -5.55333e-08 5.93751e-08)
(2.52438e-08 -6.42366e-08 7.13014e-08)
(2.87882e-08 -7.39668e-08 8.51594e-08)
(3.30206e-08 -8.49483e-08 1.01206e-07)
(3.81938e-08 -9.74969e-08 1.197e-07)
(4.45359e-08 -1.1196e-07 1.40779e-07)
(5.10997e-08 -1.26717e-07 1.61732e-07)
(6.9069e-08 -1.52241e-07 1.9529e-07)
(0 0 0)
(0 0 0)
(0 0 0)
(0 0 0)
(0 0 0)
(0 0 0)
(0 0 0)
(0 0 0)
(0 0 0)
(0 0 0)
(0 0 0)
(0 0 0)
(0 0 0)
(0 0 0)
(0 0 0)
(0 0 0)
(1.04287e-08 1.40963e-08 8.06257e-09)
(0 0 0)
(4.79357e-10 -1.11841e-09 8.31685e-10)
(9.16045e-10 -2.13946e-09 1.61976e-09)
(1.32827e-09 -3.10353e-09 2.42035e-09)
(1.73283e-09 -4.04026e-09 3.28311e-09)
(2.14602e-09 -4.96739e-09 4.25399e-09)
(2.58513e-09 -5.88861e-09 5.37682e-09)
(3.07055e-09 -6.78962e-09 6.69422e-09)
(3.62917e-09 -7.6307e-09 8.24743e-09)
(4.30067e-09 -8.33363e-09 1.00748e-08)
(5.15085e-09 -8.7588e-09 1.22097e-08)
(6.30065e-09 -8.66414e-09 1.46799e-08)
(7.9892e-09 -7.62629e-09 1.75179e-08)
(1.06897e-08 -4.89262e-09 2.07906e-08)
(1.52032e-08 7.7648e-10 2.462e-08)
(2.17954e-08 1.00435e-08 2.87358e-08)
(2.89975e-08 2.14619e-08 3.00482e-08)
(0 0 0)
(9.46575e-10 -2.20381e-09 1.64168e-09)
(1.80847e-09 -4.21719e-09 3.19674e-09)
(2.6211e-09 -6.12102e-09 4.7754e-09)
(3.41685e-09 -7.97519e-09 6.47492e-09)
(4.22716e-09 -9.81743e-09 8.38528e-09)
(5.08495e-09 -1.16597e-08 1.05924e-08)
(6.02792e-09 -1.34818e-08 1.31796e-08)
(7.10344e-09 -1.52188e-08 1.62269e-08)
(8.37665e-09 -1.67417e-08 1.9807e-08)
(9.94564e-09 -1.78258e-08 2.39766e-08)
(1.19709e-08 -1.81067e-08 2.87632e-08)
(1.47282e-08 -1.70309e-08 3.41485e-08)
(1.86676e-08 -1.38604e-08 4.00363e-08)
(2.43178e-08 -7.98055e-09 4.61499e-08)
(3.12245e-08 -4.00276e-10 5.15851e-08)
(3.89649e-08 4.43696e-09 5.57295e-08)
(0 0 0)
(1.39039e-09 -3.22379e-09 2.4101e-09)
(2.65535e-09 -6.17236e-09 4.69173e-09)
(3.8457e-09 -8.96701e-09 7.00535e-09)
(5.0076e-09 -1.16993e-08 9.49227e-09)
(6.18566e-09 -1.44308e-08 1.22832e-08)
(7.4258e-09 -1.71894e-08 1.5503e-08)
(8.77887e-09 -1.99623e-08 1.9273e-08)
(1.0305e-08 -2.26834e-08 2.371e-08)
(1.20791e-08 -2.52124e-08 2.89195e-08)
(1.41988e-08 -2.73066e-08 3.49806e-08)
(1.67956e-08 -2.85883e-08 4.19185e-08)
(2.00496e-08 -2.85375e-08 4.9659e-08)
(2.41838e-08 -2.65951e-08 5.79518e-08)
(2.9345e-08 -2.25945e-08 6.62337e-08)
(3.493e-08 -1.7844e-08 7.3262e-08)
(4.03774e-08 -1.57815e-08 7.78827e-08)
(0 0 0)
(1.80051e-09 -4.14525e-09 3.11866e-09)
(3.43665e-09 -7.942e-09 6.06856e-09)
(4.97217e-09 -1.15513e-08 9.05487e-09)
(6.46471e-09 -1.50975e-08 1.22578e-08)
(7.96956e-09 -1.86697e-08 1.58439e-08)
(9.54285e-09 -2.23196e-08 1.99724e-08)
(1.12449e-08 -2.60565e-08 2.47986e-08)
(1.31432e-08 -2.98368e-08 3.04734e-08)
(1.53147e-08 -3.35475e-08 3.71355e-08)
(1.78436e-08 -3.69827e-08 4.48928e-08)
(2.08135e-08 -3.98174e-08 5.37856e-08)
(2.4285e-08 -4.15964e-08 6.37201e-08)
(2.82396e-08 -4.17925e-08 7.43444e-08)
(3.24699e-08 -4.00737e-08 8.48245e-08)
(3.63072e-08 -3.70839e-08 9.33836e-08)
(3.97193e-08 -3.54438e-08 9.83559e-08)
(0 0 0)
(2.16844e-09 -4.93552e-09 3.75205e-09)
(4.13578e-09 -9.46341e-09 7.29696e-09)
(5.97588e-09 -1.37824e-08 1.08775e-08)
(7.75517e-09 -1.80494e-08 1.47065e-08)
(9.53697e-09 -2.23831e-08 1.89797e-08)
(1.13848e-08 -2.68651e-08 2.38846e-08)
(1.33659e-08 -3.15377e-08 2.96045e-08)
(1.55534e-08 -3.63985e-08 3.63199e-08)
(1.80271e-08 -4.13911e-08 4.42019e-08)
(2.08674e-08 -4.63889e-08 5.33955e-08)
(2.41402e-08 -5.11723e-08 6.39837e-08)
(2.78604e-08 -5.53914e-08 7.59174e-08)
(3.19129e-08 -5.85077e-08 8.88639e-08)
(3.59231e-08 -5.97489e-08 1.0188e-07)
(3.90953e-08 -5.85492e-08 1.12674e-07)
(4.11825e-08 -5.61645e-08 1.18941e-07)
(0 0 0)
(2.48773e-09 -5.56345e-09 4.29872e-09)
(4.74037e-09 -1.06763e-08 8.35405e-09)
(6.83871e-09 -1.5571e-08 1.24384e-08)
(8.855e-09 -2.04343e-08 1.67893e-08)
(1.08577e-08 -2.54144e-08 2.16243e-08)
(1.29149e-08 -3.06242e-08 2.7151e-08)
(1.50983e-08 -3.61437e-08 3.35725e-08)
(1.7486e-08 -4.20209e-08 4.10905e-08)
(2.01648e-08 -4.82706e-08 4.99021e-08)
(2.32279e-08 -5.48719e-08 6.01892e-08)
(2.67698e-08 -6.17608e-08 7.20951e-08)
(3.08699e-08 -6.88012e-08 8.56738e-08)
(3.55445e-08 -7.56867e-08 1.00757e-07)
(4.06133e-08 -8.16685e-08 1.16575e-07)
(4.52388e-08 -8.52097e-08 1.30552e-07)
(4.81685e-08 -8.36042e-08 1.40029e-07)
(0 0 0)
(2.75427e-09 -6.0008e-09 4.75123e-09)
(5.24274e-09 -1.15257e-08 9.2255e-09)
(7.54974e-09 -1.68347e-08 1.37159e-08)
(9.75016e-09 -2.21394e-08 1.84763e-08)
(1.19143e-08 -2.76131e-08 2.37374e-08)
(1.41119e-08 -3.33973e-08 2.97174e-08)
(1.64155e-08 -3.96067e-08 3.66283e-08)
(1.89055e-08 -4.63353e-08 4.46804e-08)
(2.16743e-08 -5.3664e-08 5.40816e-08)
(2.48313e-08 -6.16705e-08 6.50335e-08)
(2.85145e-08 -7.04472e-08 7.77229e-08)
(3.29094e-08 -8.01227e-08 9.23027e-08)
(3.82782e-08 -9.08619e-08 1.08823e-07)
(4.49268e-08 -1.027e-07 1.26922e-07)
(5.24145e-08 -1.14403e-07 1.44249e-07)
(6.00671e-08 -1.2475e-07 1.57999e-07)
(0 0 0)
(2.96646e-09 -6.22407e-09 5.10678e-09)
(5.6404e-09 -1.19663e-08 9.90649e-09)
(8.10618e-09 -1.7505e-08 1.47037e-08)
(1.0438e-08 -2.30693e-08 1.97598e-08)
(1.27049e-08 -2.88509e-08 2.53098e-08)
(1.49741e-08 -3.50118e-08 3.15723e-08)
(1.73149e-08 -4.16921e-08 3.87561e-08)
(1.98036e-08 -4.90172e-08 4.70641e-08)
(2.25287e-08 -5.7108e-08 5.66927e-08)
(2.55984e-08 -6.6094e-08 6.78291e-08)
(2.91544e-08 -7.61362e-08 8.06457e-08)
(3.3395e-08 -8.74606e-08 9.52889e-08)
(3.85986e-08 -1.00384e-07 1.1183e-07)
(4.5065e-08 -1.15213e-07 1.30049e-07)
(5.20885e-08 -1.3047e-07 1.47481e-07)
(6.418e-08 -1.51779e-07 1.67109e-07)
(0 0 0)
(0 0 0)
(0 0 0)
(0 0 0)
(0 0 0)
(0 0 0)
(0 0 0)
(0 0 0)
(0 0 0)
(0 0 0)
(0 0 0)
(0 0 0)
(0 0 0)
(0 0 0)
(0 0 0)
(0 0 0)
(6.04144e-09 6.72291e-09 2.84379e-09)
(0 0 0)
(4.83714e-10 -1.14195e-09 7.73978e-10)
(9.23756e-10 -2.18492e-09 1.50641e-09)
(1.33782e-09 -3.1706e-09 2.24862e-09)
(1.74184e-09 -4.12984e-09 3.04558e-09)
(2.15083e-09 -5.08173e-09 3.93827e-09)
(2.57979e-09 -6.03182e-09 4.96471e-09)
(3.04512e-09 -6.96877e-09 6.15991e-09)
(3.56674e-09 -7.85856e-09 7.55433e-09)
(4.17187e-09 -8.63488e-09 9.16964e-09)
(4.90314e-09 -9.18435e-09 1.10104e-08)
(5.83612e-09 -9.32428e-09 1.30492e-08)
(7.11333e-09 -8.7708e-09 1.52011e-08)
(8.9925e-09 -7.10371e-09 1.72712e-08)
(1.18198e-08 -3.82134e-09 1.88425e-08)
(1.54108e-08 8.91515e-10 1.91626e-08)
(1.76873e-08 5.86073e-09 1.47459e-08)
(0 0 0)
(9.55323e-10 -2.25e-09 1.52778e-09)
(1.82401e-09 -4.30637e-09 2.97306e-09)
(2.64055e-09 -6.25254e-09 4.43664e-09)
(3.43586e-09 -8.15081e-09 6.00674e-09)
(4.23889e-09 -1.00414e-08 7.76362e-09)
(5.07829e-09 -1.19395e-08 9.78182e-09)
(5.98444e-09 -1.38298e-08 1.21301e-08)
(6.99199e-09 -1.5657e-08 1.48682e-08)
(8.14372e-09 -1.73113e-08 1.80382e-08)
(9.49752e-09 -1.86091e-08 2.16468e-08)
(1.11394e-08 -1.92742e-08 2.56325e-08)
(1.32015e-08 -1.89423e-08 2.98067e-08)
(1.58579e-08 -1.72561e-08 3.37443e-08)
(1.91746e-08 -1.423e-08 3.66159e-08)
(2.24978e-08 -1.10859e-08 3.72956e-08)
(2.44066e-08 -1.12335e-08 3.37697e-08)
(0 0 0)
(1.40366e-09 -3.29105e-09 2.24298e-09)
(2.6791e-09 -6.30214e-09 4.36366e-09)
(3.87598e-09 -9.15837e-09 6.50887e-09)
(5.03856e-09 -1.19547e-08 8.80682e-09)
(6.20815e-09 -1.47558e-08 1.13742e-08)
(7.42501e-09 -1.75937e-08 1.43196e-08)
(8.73038e-09 -2.04611e-08 1.77437e-08)
(1.01679e-08 -2.33023e-08 2.17351e-08)
(1.17838e-08 -2.59975e-08 2.63582e-08)
(1.36258e-08 -2.83462e-08 3.16279e-08)
(1.57367e-08 -3.0059e-08 3.74637e-08)
(1.81366e-08 -3.07943e-08 4.36076e-08)
(2.07694e-08 -3.03248e-08 4.94897e-08)
(2.33669e-08 -2.8962e-08 5.40668e-08)
(2.52468e-08 -2.80243e-08 5.60213e-08)
(2.49299e-08 -2.98093e-08 5.32849e-08)
(0 0 0)
(1.81848e-09 -4.23132e-09 2.90264e-09)
(3.4691e-09 -8.10805e-09 5.64476e-09)
(5.01443e-09 -1.17961e-08 8.41411e-09)
(6.51002e-09 -1.54237e-08 1.13743e-08)
(8.00752e-09 -1.90839e-08 1.46742e-08)
(9.55674e-09 -2.28323e-08 1.84526e-08)
(1.12073e-08 -2.66831e-08 2.28392e-08)
(1.30088e-08 -3.0601e-08 2.79503e-08)
(1.50069e-08 -3.44892e-08 3.38753e-08)
(1.72327e-08 -3.81741e-08 4.06478e-08)
(1.9677e-08 -4.13975e-08 4.81917e-08)
(2.22385e-08 -4.38394e-08 5.62245e-08)
(2.46272e-08 -4.52271e-08 6.40947e-08)
(2.62563e-08 -4.56212e-08 7.05732e-08)
(2.644e-08 -4.57658e-08 7.39786e-08)
(2.40468e-08 -4.75244e-08 7.19282e-08)
(0 0 0)
(2.19123e-09 -5.03756e-09 3.49259e-09)
(4.17735e-09 -9.66022e-09 6.78827e-09)
(6.03116e-09 -1.40724e-08 1.01094e-08)
(7.81712e-09 -1.84354e-08 1.3649e-08)
(9.59494e-09 -2.28721e-08 1.75826e-08)
(1.1422e-08 -2.74673e-08 2.20738e-08)
(1.3355e-08 -3.22666e-08 2.72766e-08)
(1.54496e-08 -3.72725e-08 3.33319e-08)
(1.77554e-08 -4.24362e-08 4.03545e-08)
(2.03017e-08 -4.76472e-08 4.84056e-08)
(2.30658e-08 -5.27186e-08 5.74376e-08)
(2.59062e-08 -5.73706e-08 6.71926e-08)
(2.84417e-08 -6.12115e-08 7.70143e-08)
(2.99146e-08 -6.37566e-08 8.55587e-08)
(2.94821e-08 -6.47029e-08 9.07364e-08)
(2.56229e-08 -6.5163e-08 8.9695e-08)
(0 0 0)
(2.51536e-09 -5.67803e-09 4.00205e-09)
(4.79122e-09 -1.08973e-08 7.77293e-09)
(6.90761e-09 -1.58964e-08 1.15621e-08)
(8.93513e-09 -2.08673e-08 1.55855e-08)
(1.0939e-08 -2.59618e-08 2.0038e-08)
(1.2982e-08 -3.12954e-08 2.51012e-08)
(1.51264e-08 -3.69496e-08 3.09464e-08)
(1.74349e-08 -4.29726e-08 3.77324e-08)
(1.99678e-08 -4.93783e-08 4.55949e-08)
(2.27737e-08 -5.61436e-08 5.46225e-08)
(2.5869e-08 -6.32007e-08 6.48087e-08)
(2.91914e-08 -7.0409e-08 7.59564e-08)
(3.25042e-08 -7.7465e-08 8.74806e-08)
(3.52312e-08 -8.36762e-08 9.80396e-08)
(3.6418e-08 -8.77036e-08 1.05188e-07)
(3.35013e-08 -8.71544e-08 1.05739e-07)
(0 0 0)
(2.78656e-09 -6.12403e-09 4.42408e-09)
(5.30265e-09 -1.17634e-08 8.58532e-09)
(7.6322e-09 -1.71848e-08 1.27523e-08)
(9.84894e-09 -2.2605e-08 1.71557e-08)
(1.20207e-08 -2.8201e-08 2.20027e-08)
(1.42126e-08 -3.4116e-08 2.74844e-08)
(1.64898e-08 -4.04642e-08 3.37801e-08)
(1.89202e-08 -4.73367e-08 4.10558e-08)
(2.15747e-08 -5.48056e-08 4.9456e-08)
(2.45275e-08 -6.29322e-08 5.90839e-08)
(2.78526e-08 -7.17766e-08 6.99626e-08)
(3.16165e-08 -8.14024e-08 8.19529e-08)
(3.58533e-08 -9.18438e-08 9.4569e-08)
(4.04642e-08 -1.029e-07 1.06566e-07)
(4.47638e-08 -1.13187e-07 1.15275e-07)
(4.76179e-08 -1.21222e-07 1.16705e-07)
(0 0 0)
(3.00304e-09 -6.35165e-09 4.75601e-09)
(5.70871e-09 -1.22125e-08 9.22088e-09)
(8.2014e-09 -1.78677e-08 1.36737e-08)
(1.05547e-08 -2.35519e-08 1.83525e-08)
(1.28357e-08 -2.946e-08 2.3468e-08)
(1.51084e-08 -3.57553e-08 2.92126e-08)
(1.74366e-08 -4.25763e-08 3.57628e-08)
(1.98871e-08 -5.00426e-08 4.32788e-08)
(2.25324e-08 -5.82623e-08 5.18965e-08)
(2.54545e-08 -6.73409e-08 6.17097e-08)
(2.87479e-08 -7.73933e-08 7.2735e-08)
(3.25204e-08 -8.85568e-08 8.48407e-08)
(3.6875e-08 -1.00974e-07 9.75879e-08)
(4.17939e-08 -1.14639e-07 1.09897e-07)
(4.64245e-08 -1.27899e-07 1.19137e-07)
(5.3311e-08 -1.44994e-07 1.20676e-07)
(0 0 0)
(0 0 0)
(0 0 0)
(0 0 0)
(0 0 0)
(0 0 0)
(0 0 0)
(0 0 0)
(0 0 0)
(0 0 0)
(0 0 0)
(0 0 0)
(0 0 0)
(0 0 0)
(0 0 0)
(0 0 0)
(3.15826e-09 3.07758e-09 1.6574e-09)
(0 0 0)
(4.86044e-10 -1.16214e-09 6.88912e-10)
(9.27402e-10 -2.22394e-09 1.34007e-09)
(1.34096e-09 -3.22824e-09 1.99833e-09)
(1.74149e-09 -4.20693e-09 2.7026e-09)
(2.14215e-09 -5.18041e-09 3.48757e-09)
(2.55495e-09 -6.1561e-09 4.38427e-09)
(2.99132e-09 -7.12604e-09 5.41927e-09)
(3.46269e-09 -8.06274e-09 6.61203e-09)
(3.9815e-09 -8.9132e-09 7.96876e-09)
(4.56385e-09 -9.59149e-09 9.47102e-09)
(5.2359e-09 -9.97165e-09 1.10553e-08)
(6.04565e-09 -9.88476e-09 1.25781e-08)
(7.07299e-09 -9.12834e-09 1.376e-08)
(8.38888e-09 -7.52141e-09 1.41258e-08)
(9.77921e-09 -5.2215e-09 1.31962e-08)
(1.00752e-08 -1.8661e-09 9.91305e-09)
(0 0 0)
(9.60141e-10 -2.28961e-09 1.35992e-09)
(1.83169e-09 -4.38287e-09 2.64487e-09)
(2.64763e-09 -6.3654e-09 3.94301e-09)
(3.43669e-09 -8.30153e-09 5.33064e-09)
(4.22441e-09 -1.02337e-08 6.87579e-09)
(5.03388e-09 -1.21804e-08 8.63938e-09)
(5.88633e-09 -1.41319e-08 1.06739e-08)
(6.8011e-09 -1.60433e-08 1.3018e-08)
(7.79486e-09 -1.78259e-08 1.56851e-08)
(8.8805e-09 -1.93384e-08 1.86414e-08)
(1.00654e-08 -2.03871e-08 2.17671e-08)
(1.13462e-08 -2.07581e-08 2.47934e-08)
(1.26832e-08 -2.0325e-08 2.72126e-08)
(1.39165e-08 -1.92901e-08 2.8232e-08)
(1.4644e-08 -1.8438e-08 2.72494e-08)
(1.45463e-08 -1.92876e-08 2.47006e-08)
(0 0 0)
(1.41128e-09 -3.34863e-09 1.99668e-09)
(2.69156e-09 -6.41328e-09 3.88228e-09)
(3.88847e-09 -9.32208e-09 5.78522e-09)
(5.04339e-09 -1.21727e-08 7.81647e-09)
(6.19304e-09 -1.50328e-08 1.0075e-08)
(7.37036e-09 -1.79378e-08 1.26498e-08)
(8.60458e-09 -2.08865e-08 1.56183e-08)
(9.91957e-09 -2.38339e-08 1.90392e-08)
(1.1329e-08 -2.66817e-08 2.29374e-08)
(1.28262e-08 -2.92712e-08 2.72743e-08)
(1.43648e-08 -3.13918e-08 3.18984e-08)
(1.58236e-08 -3.28366e-08 3.6469e-08)
(1.69518e-08 -3.35604e-08 4.03637e-08)
(1.73339e-08 -3.39605e-08 4.26731e-08)
(1.66558e-08 -3.48749e-08 4.27498e-08)
(1.47436e-08 -3.72366e-08 4.12128e-08)
(0 0 0)
(1.82931e-09 -4.30485e-09 2.58419e-09)
(3.48729e-09 -8.24981e-09 5.02265e-09)
(5.03422e-09 -1.20045e-08 7.47965e-09)
(6.5224e-09 -1.57005e-08 1.00969e-08)
(7.99828e-09 -1.94334e-08 1.30007e-08)
(9.50343e-09 -2.32622e-08 1.63053e-08)
(1.10742e-08 -2.72055e-08 2.01109e-08)
(1.27384e-08 -3.12357e-08 2.44966e-08)
(1.45069e-08 -3.52708e-08 2.95027e-08)
(1.63545e-08 -3.91665e-08 3.50977e-08)
(1.81835e-08 -4.27195e-08 4.11231e-08)
(1.97592e-08 -4.57026e-08 4.72099e-08)
(2.06228e-08 -4.79688e-08 5.26787e-08)
(2.009e-08 -4.96421e-08 5.65258e-08)
(1.78698e-08 -5.1142e-08 5.79048e-08)
(1.41316e-08 -5.33204e-08 5.73445e-08)
(0 0 0)
(2.20564e-09 -5.12446e-09 3.10985e-09)
(4.20219e-09 -9.8276e-09 6.04104e-09)
(6.06014e-09 -1.4318e-08 8.98813e-09)
(7.84065e-09 -1.87605e-08 1.21185e-08)
(9.59817e-09 -2.32803e-08 1.55813e-08)
(1.13817e-08 -2.79642e-08 1.95113e-08)
(1.32347e-08 -3.28596e-08 2.40284e-08)
(1.51915e-08 -3.7971e-08 2.92298e-08)
(1.72679e-08 -4.32539e-08 3.51727e-08)
(1.94399e-08 -4.86066e-08 4.18405e-08)
(2.16018e-08 -5.38606e-08 4.90855e-08)
(2.34894e-08 -5.87689e-08 5.65388e-08)
(2.45675e-08 -6.29894e-08 6.34958e-08)
(2.39912e-08 -6.60754e-08 6.88605e-08)
(2.12878e-08 -6.76065e-08 7.15333e-08)
(1.62053e-08 -6.79807e-08 7.19197e-08)
(0 0 0)
(2.53362e-09 -5.77529e-09 3.56406e-09)
(4.82342e-09 -1.10845e-08 6.91853e-09)
(6.9473e-09 -1.61708e-08 1.02818e-08)
(8.97281e-09 -2.12294e-08 1.3841e-08)
(1.09603e-08 -2.6414e-08 1.77622e-08)
(1.29647e-08 -3.18406e-08 2.21954e-08)
(1.50361e-08 -3.75893e-08 2.72742e-08)
(1.72178e-08 -4.37041e-08 3.31092e-08)
(1.95397e-08 -5.01913e-08 3.97712e-08)
(2.20029e-08 -5.70146e-08 4.72586e-08)
(2.45495e-08 -6.40833e-08 5.54399e-08)
(2.70048e-08 -7.12187e-08 6.39586e-08)
(2.89845e-08 -7.80571e-08 7.20948e-08)
(2.98158e-08 -8.38359e-08 7.86489e-08)
(2.88794e-08 -8.72327e-08 8.2248e-08)
(2.48295e-08 -8.55748e-08 8.33561e-08)
(0 0 0)
(2.80878e-09 -6.22829e-09 3.94061e-09)
(5.34255e-09 -1.1964e-08 7.6431e-09)
(7.6835e-09 -1.74785e-08 1.13426e-08)
(9.90268e-09 -2.29917e-08 1.52395e-08)
(1.20637e-08 -2.86821e-08 1.95102e-08)
(1.42249e-08 -3.46917e-08 2.43131e-08)
(1.64411e-08 -4.11307e-08 2.97882e-08)
(1.87633e-08 -4.80804e-08 3.60515e-08)
(2.12372e-08 -5.55959e-08 4.31789e-08)
(2.38963e-08 -6.37072e-08 5.11755e-08)
(2.6751e-08 -7.24189e-08 5.9919e-08)
(2.9767e-08 -8.1696e-08 6.90607e-08)
(3.28342e-08 -9.14058e-08 7.78616e-08)
(3.57292e-08 -1.0112e-07 8.49879e-08)
(3.80279e-08 -1.09464e-07 8.87052e-08)
(3.98588e-08 -1.14674e-07 8.9068e-08)
(0 0 0)
(3.02912e-09 -6.45927e-09 4.23706e-09)
(5.75623e-09 -1.24195e-08 8.21056e-09)
(8.26439e-09 -1.81708e-08 1.2165e-08)
(1.06251e-08 -2.39505e-08 1.63072e-08)
(1.2902e-08 -2.99546e-08 2.08173e-08)
(1.51536e-08 -3.63445e-08 2.58545e-08)
(1.74351e-08 -4.32523e-08 3.15573e-08)
(1.98e-08 -5.07853e-08 3.80372e-08)
(2.23005e-08 -5.90285e-08 4.5364e-08)
(2.49863e-08 -6.80473e-08 5.35359e-08)
(2.79006e-08 -7.78878e-08 6.24263e-08)
(3.10691e-08 -8.85689e-08 7.16893e-08)
(3.44739e-08 -1.00044e-07 8.06023e-08)
(3.79792e-08 -1.1206e-07 8.78754e-08)
(4.09603e-08 -1.23067e-07 9.16959e-08)
(4.59185e-08 -1.36505e-07 8.9515e-08)
(0 0 0)
(0 0 0)
(0 0 0)
(0 0 0)
(0 0 0)
(0 0 0)
(0 0 0)
(0 0 0)
(0 0 0)
(0 0 0)
(0 0 0)
(0 0 0)
(0 0 0)
(0 0 0)
(0 0 0)
(0 0 0)
(1.84937e-09 1.55367e-09 1.66532e-09)
(0 0 0)
(4.86817e-10 -1.17872e-09 5.80175e-10)
(9.27998e-10 -2.25598e-09 1.12797e-09)
(1.3395e-09 -3.27556e-09 1.68053e-09)
(1.73481e-09 -4.27024e-09 2.2697e-09)
(2.1251e-09 -5.26144e-09 2.92322e-09)
(2.5193e-09 -6.25816e-09 3.66487e-09)
(2.92406e-09 -7.25533e-09 4.5134e-09)
(3.34314e-09 -8.23087e-09 5.47942e-09)
(3.77662e-09 -9.14206e-09 6.55932e-09)
(4.22062e-09 -9.92221e-09 7.72479e-09)
(4.66937e-09 -1.04797e-08 8.90643e-09)
(5.12157e-09 -1.07014e-08 9.9719e-09)
(5.59159e-09 -1.04569e-08 1.07067e-08)
(6.10875e-09 -9.59788e-09 1.08387e-08)
(6.62273e-09 -8.07961e-09 1.02569e-08)
(6.65545e-09 -4.93405e-09 8.62366e-09)
(0 0 0)
(9.6193e-10 -2.32213e-09 1.14534e-09)
(1.83343e-09 -4.44567e-09 2.22641e-09)
(2.64573e-09 -6.45798e-09 3.31619e-09)
(3.42513e-09 -8.42499e-09 4.47715e-09)
(4.19346e-09 -1.0391e-08 5.76371e-09)
(4.96819e-09 -1.2377e-08 7.22271e-09)
(5.76177e-09 -1.43778e-08 8.89131e-09)
(6.57971e-09 -1.63572e-08 1.07912e-08)
(7.41716e-09 -1.82424e-08 1.2917e-08)
(8.25389e-09 -1.99206e-08 1.5217e-08)
(9.04891e-09 -2.12461e-08 1.75634e-08)
(9.73579e-09 -2.2072e-08 1.9715e-08)
(1.02234e-08 -2.23245e-08 2.12908e-08)
(1.0412e-08 -2.21222e-08 2.18396e-08)
(1.02772e-08 -2.18408e-08 2.12595e-08)
(1.02496e-08 -2.23095e-08 2.03881e-08)
(0 0 0)
(1.41452e-09 -3.39588e-09 1.68178e-09)
(2.69543e-09 -6.50438e-09 3.26836e-09)
(3.88795e-09 -9.45601e-09 4.86607e-09)
(5.03017e-09 -1.23505e-08 6.56578e-09)
(6.1539e-09 -1.52576e-08 8.44675e-09)
(7.28463e-09 -1.82154e-08 1.05776e-08)
(8.44009e-09 -2.12275e-08 1.30136e-08)
(9.62654e-09 -2.42567e-08 1.57887e-08)
(1.08311e-08 -2.722e-08 1.89009e-08)
(1.20087e-08 -2.99849e-08 2.22862e-08)
(1.30621e-08 -3.23827e-08 2.57828e-08)
(1.38164e-08 -3.42574e-08 2.9089e-08)
(1.40084e-08 -3.55825e-08 3.17502e-08)
(1.33693e-08 -3.66282e-08 3.32734e-08)
(1.20298e-08 -3.78636e-08 3.35693e-08)
(1.05907e-08 -3.98436e-08 3.35559e-08)
(0 0 0)
(1.83453e-09 -4.36507e-09 2.17691e-09)
(3.49448e-09 -8.36573e-09 4.22895e-09)
(5.03732e-09 -1.21744e-08 6.29218e-09)
(6.51158e-09 -1.59248e-08 8.48267e-09)
(7.95814e-09 -1.97145e-08 1.09018e-08)
(9.41012e-09 -2.36044e-08 1.36377e-08)
(1.08911e-08 -2.76158e-08 1.67626e-08)
(1.24097e-08 -3.17257e-08 2.03237e-08)
(1.39491e-08 -3.58602e-08 2.43262e-08)
(1.5446e-08 -3.98899e-08 2.87049e-08)
(1.67568e-08 -4.36334e-08 3.32839e-08)
(1.76089e-08 -4.68863e-08 3.77348e-08)
(1.75653e-08 -4.94951e-08 4.15679e-08)
(1.61381e-08 -5.14781e-08 4.42555e-08)
(1.34849e-08 -5.30247e-08 4.55999e-08)
(1.04916e-08 -5.47814e-08 4.64446e-08)
(0 0 0)
(2.21337e-09 -5.19545e-09 2.62012e-09)
(4.21392e-09 -9.96401e-09 5.08722e-09)
(6.06921e-09 -1.45173e-08 7.56248e-09)
(7.83648e-09 -1.90222e-08 1.01831e-08)
(9.56447e-09 -2.36053e-08 1.30688e-08)
(1.12936e-08 -2.83537e-08 1.63242e-08)
(1.30545e-08 -3.33145e-08 2.00356e-08)
(1.48626e-08 -3.84908e-08 2.42626e-08)
(1.67072e-08 -4.38362e-08 2.90193e-08)
(1.85296e-08 -4.92458e-08 3.42447e-08)
(2.0185e-08 -5.45453e-08 3.97596e-08)
(2.13833e-08 -5.94733e-08 4.52202e-08)
(2.16288e-08 -6.36514e-08 5.01052e-08)
(2.02875e-08 -6.65593e-08 5.38277e-08)
(1.7315e-08 -6.77155e-08 5.60585e-08)
(1.3146e-08 -6.7477e-08 5.76208e-08)
(0 0 0)
(2.54429e-09 -5.85451e-09 3.00331e-09)
(4.84072e-09 -1.12365e-08 5.8272e-09)
(6.96438e-09 -1.63922e-08 8.65264e-09)
(8.97905e-09 -2.15187e-08 1.16331e-08)
(1.09396e-08 -2.67702e-08 1.49023e-08)
(1.2893e-08 -3.22614e-08 1.85764e-08)
(1.48771e-08 -3.80682e-08 2.27524e-08)
(1.69182e-08 -4.42271e-08 2.74983e-08)
(1.90222e-08 -5.07311e-08 3.28352e-08)
(2.11599e-08 -5.75219e-08 3.87058e-08)
(2.324e-08 -6.44725e-08 4.49276e-08)
(2.50672e-08 -7.13465e-08 5.11372e-08)
(2.62971e-08 -7.76989e-08 5.67576e-08)
(2.64539e-08 -8.2695e-08 6.10861e-08)
(2.53182e-08 -8.5114e-08 6.36576e-08)
(2.22304e-08 -8.2597e-08 6.55012e-08)
(0 0 0)
(2.82266e-09 -6.31295e-09 3.32121e-09)
(5.36613e-09 -1.21263e-08 6.43868e-09)
(7.71003e-09 -1.77143e-08 9.54738e-09)
(9.92208e-09 -2.32988e-08 1.28118e-08)
(1.2061e-08 -2.90575e-08 1.63741e-08)
(1.41779e-08 -3.51297e-08 2.03574e-08)
(1.6317e-08 -4.16185e-08 2.48632e-08)
(1.85145e-08 -4.85922e-08 2.99628e-08)
(2.07953e-08 -5.60834e-08 3.56788e-08)
(2.31673e-08 -6.40854e-08 4.19529e-08)
(2.56114e-08 -7.25424e-08 4.8595e-08)
(2.80728e-08 -8.13268e-08 5.52149e-08)
(3.04671e-08 -9.01806e-08 6.1155e-08)
(3.27253e-08 -9.85758e-08 6.55188e-08)
(3.47721e-08 -1.05337e-07 6.75967e-08)
(3.73937e-08 -1.09173e-07 6.84637e-08)
(0 0 0)
(3.0463e-09 -6.5464e-09 3.57168e-09)
(5.78636e-09 -1.25865e-08 6.91802e-09)
(8.30108e-09 -1.84132e-08 1.02419e-08)
(1.06591e-08 -2.42652e-08 1.37132e-08)
(1.292e-08 -3.03377e-08 1.74775e-08)
(1.51362e-08 -3.67877e-08 2.16587e-08)
(1.73539e-08 -4.37386e-08 2.63573e-08)
(1.96143e-08 -5.12814e-08 3.16414e-08)
(2.19527e-08 -5.9474e-08 3.75286e-08)
(2.43974e-08 -6.83378e-08 4.39543e-08)
(2.69666e-08 -7.78507e-08 5.07205e-08)
(2.96651e-08 -8.79313e-08 5.74242e-08)
(3.24843e-08 -9.84077e-08 6.33774e-08)
(3.53877e-08 -1.08945e-07 6.76131e-08)
(3.80205e-08 -1.18279e-07 6.92793e-08)
(4.33408e-08 -1.30101e-07 6.75453e-08)
(0 0 0)
(0 0 0)
(0 0 0)
(0 0 0)
(0 0 0)
(0 0 0)
(0 0 0)
(0 0 0)
(0 0 0)
(0 0 0)
(0 0 0)
(0 0 0)
(0 0 0)
(0 0 0)
(0 0 0)
(0 0 0)
(1.35972e-09 1.03301e-09 1.53852e-09)
(0 0 0)
(4.8659e-10 -1.19154e-09 4.52092e-10)
(9.26724e-10 -2.28074e-09 8.7856e-10)
(1.33551e-09 -3.31214e-09 1.30795e-09)
(1.7252e-09 -4.31918e-09 1.76445e-09)
(2.10514e-09 -5.32393e-09 2.26865e-09)
(2.48168e-09 -6.33652e-09 2.83752e-09)
(2.85763e-09 -7.35381e-09 3.48332e-09)
(3.23118e-09 -8.35722e-09 4.21091e-09)
(3.59457e-09 -9.30996e-09 5.01289e-09)
(3.93356e-09 -1.01549e-08 5.86229e-09)
(4.23024e-09 -1.08137e-08 6.70319e-09)
(4.47348e-09 -1.11871e-08 7.44307e-09)
(4.68193e-09 -1.11443e-08 7.95765e-09)
(4.92985e-09 -1.04931e-08 8.13511e-09)
(5.2794e-09 -9.08231e-09 7.98763e-09)
(5.43819e-09 -5.81319e-09 7.17336e-09)
(0 0 0)
(9.61757e-10 -2.34732e-09 8.9254e-10)
(1.83153e-09 -4.49428e-09 1.73425e-09)
(2.63884e-09 -6.52959e-09 2.58119e-09)
(3.40767e-09 -8.52029e-09 3.48081e-09)
(4.15656e-09 -1.05118e-08 4.47353e-09)
(4.89814e-09 -1.2527e-08 5.59283e-09)
(5.63787e-09 -1.45637e-08 6.86314e-09)
(6.37136e-09 -1.65907e-08 8.29475e-09)
(7.08029e-09 -1.8544e-08 9.87476e-09)
(7.72815e-09 -2.0324e-08 1.15536e-08)
(8.25844e-09 -2.18013e-08 1.32282e-08)
(8.60261e-09 -2.28376e-08 1.4729e-08)
(8.71015e-09 -2.33295e-08 1.58302e-08)
(8.61376e-09 -2.32771e-08 1.6328e-08)
(8.49026e-09 -2.28805e-08 1.62524e-08)
(8.88447e-09 -2.28453e-08 1.60555e-08)
(0 0 0)
(1.41488e-09 -3.43249e-09 1.3107e-09)
(2.69392e-09 -6.57491e-09 2.54614e-09)
(3.87997e-09 -9.55945e-09 3.78799e-09)
(5.008e-09 -1.24872e-08 5.10524e-09)
(6.10542e-09 -1.54293e-08 6.55687e-09)
(7.19133e-09 -1.84255e-08 8.19205e-09)
(8.2744e-09 -2.14818e-08 1.00473e-08)
(9.34832e-09 -2.45656e-08 1.21398e-08)
(1.03842e-08 -2.76005e-08 1.44552e-08)
(1.13196e-08 -3.04641e-08 1.69305e-08)
(1.20463e-08 -3.29969e-08 1.94337e-08)
(1.24046e-08 -3.50383e-08 2.17524e-08)
(1.22128e-08 -3.65106e-08 2.36178e-08)
(1.13961e-08 -3.75496e-08 2.4816e-08)
(1.02937e-08 -3.84929e-08 2.53864e-08)
(9.5505e-09 -3.99145e-08 2.57663e-08)
(0 0 0)
(1.83599e-09 -4.4117e-09 1.69679e-09)
(3.49459e-09 -8.45532e-09 3.29491e-09)
(5.03051e-09 -1.23051e-08 4.89883e-09)
(6.48866e-09 -1.60963e-08 6.59672e-09)
(7.90487e-09 -1.99275e-08 8.46408e-09)
(9.30511e-09 -2.38602e-08 1.05643e-08)
(1.07028e-08 -2.79165e-08 1.29453e-08)
(1.20933e-08 -3.20743e-08 1.56321e-08)
(1.34435e-08 -3.6261e-08 1.86123e-08)
(1.46749e-08 -4.03479e-08 2.18175e-08)
(1.56405e-08 -4.415e-08 2.51006e-08)
(1.61002e-08 -4.74436e-08 2.82266e-08)
(1.57292e-08 -5.00193e-08 3.0906e-08)
(1.4266e-08 -5.17929e-08 3.2912e-08)
(1.20554e-08 -5.29093e-08 3.42141e-08)
(9.94912e-09 -5.40987e-08 3.51762e-08)
(0 0 0)
(2.21648e-09 -5.25032e-09 2.04257e-09)
(4.21691e-09 -1.00692e-08 3.96424e-09)
(6.06591e-09 -1.46701e-08 5.88878e-09)
(7.81696e-09 -1.92212e-08 7.92049e-09)
(9.51358e-09 -2.38493e-08 1.01487e-08)
(1.11888e-08 -2.86409e-08 1.26486e-08)
(1.28632e-08 -3.36407e-08 1.5478e-08)
(1.45391e-08 -3.88481e-08 1.86689e-08)
(1.6191e-08 -4.42096e-08 2.22126e-08)
(1.77484e-08 -4.96088e-08 2.60385e-08)
(1.90691e-08 -5.48511e-08 2.9989e-08)
(1.99066e-08 -5.96407e-08 3.38088e-08)
(1.98913e-08 -6.35459e-08 3.71797e-08)
(1.86253e-08 -6.59939e-08 3.98389e-08)