/*--------------------------------*- C++ -*----------------------------------*\
| =========                 |                                                 |
| \\      /  F ield         | OpenFOAM: The Open Source CFD Toolbox           |
|  \\    /   O peration     | Version:  v1912                                 |
|   \\  /    A nd           | Website:  www.openfoam.com                      |
|    \\/     M anipulation  |                                                 |
\*---------------------------------------------------------------------------*/
FoamFile
{
    version     2.0;
    format      ascii;
    class       volScalarField;
    location    "0.78/fluid";
    object      T;
}
// * * * * * * * * * * * * * * * * * * * * * * * * * * * * * * * * * * * * * //

dimensions      [0 0 0 1 0 0 0];


internalField   nonuniform List<scalar> 
14592
(
273.287
273.873
274.484
275.124
275.799
276.518
277.286
278.113
279.007
279.98
281.044
282.215
283.513
284.97
286.645
288.683
273.286
273.868
274.474
275.111
275.783
276.497
277.261
278.083
278.973
279.94
280.999
282.165
283.458
284.911
286.573
288.552
273.283
273.861
274.461
275.091
275.757
276.464
277.22
278.034
278.914
279.871
280.919
282.074
283.358
284.804
286.463
288.442
273.28
273.851
274.445
275.067
275.724
276.422
277.167
277.969
278.835
279.777
280.807
281.945
283.214
284.649
286.31
288.315
273.277
273.84
274.426
275.039
275.686
276.372
277.104
277.89
278.738
279.659
280.667
281.779
283.022
284.437
286.095
288.136
273.273
273.828
274.405
275.008
275.644
276.316
277.033
277.8
278.626
279.521
280.497
281.574
282.778
284.155
285.788
287.855
273.269
273.815
274.383
274.975
275.598
276.255
276.954
277.7
278.501
279.364
280.302
281.331
282.478
283.787
285.348
287.376
273.264
273.802
274.359
274.94
275.549
276.191
276.871
277.594
278.366
279.194
280.087
281.058
282.127
283.329
284.738
286.538
273.292
273.889
274.51
275.164
275.855
276.592
277.383
278.238
279.168
280.186
281.306
282.548
283.936
285.509
287.327
289.512
273.291
273.883
274.501
275.15
275.838
276.571
277.358
278.208
279.133
280.145
281.259
282.496
283.88
285.449
287.258
289.406
273.288
273.876
274.487
275.13
275.811
276.536
277.315
278.157
279.071
280.072
281.176
282.401
283.777
285.34
287.151
289.31
273.285
273.866
274.471
275.105
275.777
276.493
277.26
278.089
278.989
279.974
281.059
282.267
283.627
285.182
287
289.196
273.282
273.855
274.451
275.077
275.738
276.441
277.194
278.006
278.888
279.85
280.911
282.093
283.427
284.964
286.785
289.031
273.277
273.842
274.429
275.044
275.693
276.383
277.119
277.912
278.77
279.704
280.732
281.876
283.169
284.668
286.47
288.76
273.273
273.829
274.406
275.01
275.645
276.319
277.037
277.807
278.637
279.539
280.525
281.618
282.849
284.276
286.006
288.273
273.268
273.814
274.381
274.973
275.595
276.252
276.95
277.696
278.495
279.358
280.296
281.325
282.471
283.78
285.342
287.371
273.297
273.903
274.536
275.201
275.907
276.661
277.473
278.354
279.315
280.37
281.537
282.834
284.286
285.926
287.795
289.955
273.295
273.898
274.526
275.187
275.889
276.639
277.447
278.322
279.278
280.328
281.489
282.781
284.229
285.866
287.731
289.866
273.293
273.89
274.512
275.167
275.861
276.604
277.403
278.269
279.215
280.254
281.403
282.684
284.124
285.757
287.626
289.779
273.29
273.88
274.495
275.141
275.826
276.558
277.346
278.199
279.129
280.151
281.282
282.545
283.97
285.597
287.477
289.671
273.286
273.868
274.475
275.111
275.786
276.505
277.278
278.114
279.024
280.023
281.128
282.364
283.763
285.373
287.261
289.511
273.282
273.855
274.452
275.078
275.74
276.445
277.2
278.015
278.901
279.87
280.941
282.138
283.495
285.068
286.941
289.244
273.277
273.841
274.428
275.042
275.69
276.379
277.114
277.906
278.763
279.697
280.724
281.868
283.161
284.659
286.463
288.755
273.272
273.827
274.402
275.004
275.638
276.309
277.024
277.789
278.614
279.507
280.483
281.559
282.762
284.14
285.774
287.845
273.301
273.916
274.558
275.234
275.953
276.722
277.552
278.455
279.442
280.528
281.731
283.068
284.561
286.232
288.104
290.199
273.3
273.91
274.548
275.22
275.935
276.7
277.525
278.423
279.404
280.485
281.682
283.014
284.503
286.172
288.042
290.117
273.297
273.902
274.534
275.199
275.906
276.663
277.48
278.368
279.339
280.409
281.594
282.915
284.396
286.063
287.94
290.034
273.294
273.892
274.516
275.173
275.87
276.617
277.422
278.296
279.251
280.303
281.47
282.773
284.239
285.901
287.791
289.929
273.29
273.88
274.495
275.142
275.829
276.562
277.351
278.208
279.142
280.171
281.311
282.586
284.027
285.674
287.574
289.771
273.285
273.867
274.472
275.108
275.781
276.499
277.271
278.106
279.015
280.013
281.118
282.353
283.752
285.362
287.251
289.505
273.281
273.852
274.447
275.071
275.73
276.431
277.183
277.993
278.872
279.833
280.893
282.073
283.407
284.944
286.767
289.019
273.276
273.837
274.421
275.032
275.676
276.359
277.089
277.872
278.718
279.637
280.642
281.753
282.995
284.411
286.071
288.119
273.305
273.927
274.577
275.262
275.991
276.773
277.618
278.538
279.546
280.657
281.885
283.249
284.765
286.448
288.306
290.341
273.303
273.921
274.567
275.248
275.973
276.75
277.591
278.506
279.508
280.613
281.836
283.195
284.707
286.389
288.246
290.262
273.3
273.913
274.552
275.227
275.944
276.713
277.545
278.45
279.442
280.534
281.746
283.094
284.599
286.279
288.144
290.181
273.297
273.902
274.534
275.2
275.907
276.666
277.485
278.376
279.351
280.427
281.619
282.949
284.44
286.116
287.995
290.077
273.293
273.89
274.513
275.169
275.865
276.61
277.413
278.286
279.24
280.291
281.456
282.759
284.225
285.886
287.777
289.919
273.289
273.877
274.49
275.134
275.816
276.546
277.33
278.181
279.109
280.129
281.259
282.52
283.944
285.571
287.453
289.655
273.284
273.862
274.464
275.095
275.764
276.476
277.24
278.065
278.962
279.944
281.028
282.234
283.593
285.148
286.968
289.173
273.279
273.847
274.437
275.055
275.708
276.402
277.143
277.941
278.803
279.742
280.77
281.906
283.173
284.608
286.271
288.286
273.307
273.935
274.592
275.284
276.021
276.813
277.669
278.602
279.626
280.753
282
283.381
284.909
286.593
288.435
290.425
273.306
273.93
274.582
275.27
276.003
276.79
277.641
278.569
279.587
280.709
281.949
283.325
284.851
286.534
288.375
290.348
273.303
273.921
274.567
275.248
275.973
276.752
277.595
278.513
279.519
280.629
281.858
283.223
284.741
286.424
288.274
290.268
273.3
273.911
274.548
275.221
275.936
276.704
277.534
278.437
279.428
280.519
281.73
283.077
284.581
286.261
288.125
290.165
273.296
273.898
274.527
275.189
275.893
276.647
277.46
278.345
279.314
280.381
281.565
282.884
284.364
286.03
287.907
290.007
273.291
273.884
274.503
275.153
275.843
276.581
277.376
278.239
279.181
280.217
281.363
282.642
284.08
285.712
287.582
289.744
273.286
273.869
274.477
275.115
275.79
276.51
277.284
278.121
279.031
280.029
281.129
282.352
283.725
285.286
287.098
289.266
273.281
273.854
274.449
275.074
275.733
276.435
277.186
277.994
278.869
279.822
280.866
282.018
283.3
284.743
286.402
288.389
273.309
273.941
274.602
275.299
276.042
276.84
277.704
278.646
279.679
280.817
282.075
283.466
285
286.683
288.512
290.474
273.308
273.935
274.592
275.285
276.023
276.817
277.676
278.613
279.64
280.772
282.024
283.41
284.942
286.624
288.452
290.397
273.305
273.927
274.577
275.263
275.994
276.779
277.629
278.555
279.572
280.692
281.932
283.308
284.832
286.514
288.351
290.318
273.302
273.916
274.558
275.235
275.956
276.73
277.567
278.479
279.479
280.581
281.803
283.16
284.671
286.35
288.203
290.215
273.297
273.904
274.536
275.203
275.912
276.672
277.493
278.386
279.364
280.442
281.636
282.965
284.452
286.118
287.984
290.058
273.293
273.89
274.512
275.167
275.862
276.606
277.408
278.278
279.23
280.275
281.433
282.722
284.167
285.799
287.659
289.795
273.288
273.875
274.486
275.128
275.808
276.534
277.314
278.158
279.078
280.085
281.195
282.428
283.809
285.373
287.176
289.32
273.283
273.859
274.458
275.086
275.751
276.457
277.214
278.03
278.914
279.876
280.93
282.092
283.381
284.828
286.482
288.45
273.31
273.944
274.607
275.307
276.052
276.854
277.721
278.668
279.706
280.849
282.112
283.507
285.044
286.726
288.548
290.496
273.309
273.938
274.597
275.292
276.034
276.83
277.693
278.634
279.667
280.804
282.062
283.452
284.986
286.667
288.488
290.42
273.306
273.93
274.582
275.27
276.004
276.792
277.646
278.577
279.598
280.724
281.969
283.349
284.876
286.557
288.387
290.341
273.302
273.919
274.563
275.242
275.966
276.743
277.584
278.5
279.505
280.612
281.839
283.201
284.714
286.392
288.239
290.238
273.298
273.907
274.541
275.21
275.922
276.685
277.509
278.407
279.389
280.472
281.671
283.005
284.495
286.16
288.02
290.081
273.294
273.892
274.517
275.174
275.871
276.618
277.424
278.298
279.254
280.305
281.467
282.761
284.209
285.841
287.696
289.818
273.289
273.877
274.49
275.134
275.817
276.546
277.329
278.177
279.101
280.113
281.228
282.466
283.85
285.414
287.212
289.345
273.284
273.861
274.462
275.093
275.759
276.469
277.229
278.048
278.936
279.903
280.962
282.128
283.421
284.869
286.52
288.478
273.26
273.791
274.338
274.905
275.492
276.101
276.731
277.382
278.05
278.733
279.422
280.106
280.771
281.398
281.963
282.442
273.259
273.787
274.332
274.896
275.481
276.087
276.715
277.363
278.029
278.708
279.394
280.075
280.737
281.361
281.924
282.401
273.257
273.781
274.322
274.882
275.463
276.064
276.687
277.329
277.99
278.663
279.343
280.017
280.673
281.291
281.849
282.323
273.255
273.774
274.31
274.864
275.439
276.034
276.649
277.284
277.937
278.601
279.271
279.937
280.583
281.192
281.743
282.211
273.252
273.766
274.295
274.843
275.411
275.998
276.604
277.23
277.872
278.525
279.183
279.836
280.47
281.067
281.607
282.066
273.249
273.756
274.279
274.82
275.379
275.957
276.554
277.168
277.798
278.438
279.081
279.719
280.337
280.919
281.445
281.893
273.246
273.746
274.262
274.794
275.345
275.913
276.498
277.1
277.716
278.341
278.968
279.588
280.188
280.753
281.262
281.696
273.243
273.735
274.244
274.768
275.309
275.867
276.441
277.03
277.631
278.239
278.848
279.449
280.029
280.573
281.064
281.482
273.261
273.792
274.341
274.91
275.5
276.112
276.747
277.404
278.081
278.773
279.475
280.175
280.859
281.507
282.094
282.594
273.26
273.788
274.334
274.9
275.487
276.097
276.729
277.383
278.057
278.747
279.445
280.142
280.822
281.467
282.053
282.551
273.258
273.782
274.324
274.885
275.468
276.073
276.7
277.348
278.016
278.7
279.391
280.082
280.756
281.395
281.975
282.47
273.256
273.775
274.311
274.867
275.443
276.041
276.661
277.302
277.962
278.636
279.318
279.998
280.663
281.293
281.865
282.354
273.253
273.766
274.297
274.846
275.415
276.005
276.616
277.247
277.896
278.558
279.228
279.895
280.546
281.164
281.725
282.205
273.25
273.757
274.28
274.822
275.383
275.963
276.564
277.184
277.82
278.468
279.123
279.774
280.409
281.011
281.557
282.025
273.246
273.746
274.263
274.796
275.348
275.919
276.508
277.115
277.737
278.37
279.007
279.64
280.255
280.838
281.366
281.818
273.243
273.736
274.244
274.77
275.312
275.872
276.45
277.043
277.65
278.265
278.884
279.496
280.09
280.651
281.159
281.593
273.262
273.797
274.349
274.922
275.518
276.137
276.782
277.451
278.143
278.856
279.583
280.315
281.036
281.728
282.362
282.906
273.261
273.792
274.342
274.912
275.504
276.121
276.762
277.429
278.118
278.827
279.551
280.279
280.997
281.686
282.318
282.861
273.259
273.786
274.331
274.896
275.484
276.095
276.731
277.392
278.075
278.778
279.494
280.215
280.927
281.609
282.236
282.775
273.257
273.778
274.318
274.877
275.458
276.063
276.691
277.344
278.018
278.711
279.417
280.128
280.829
281.501
282.12
282.652
273.254
273.77
274.303
274.855
275.429
276.025
276.644
277.286
277.949
278.63
279.323
280.019
280.706
281.364
281.97
282.493
273.251
273.76
274.286
274.831
275.396
275.983
276.591
277.221
277.871
278.537
279.213
279.892
280.56
281.201
281.79
282.298
273.247
273.75
274.268
274.805
275.361
275.937
276.534
277.15
277.785
278.434
279.091
279.75
280.396
281.015
281.583
282.073
273.244
273.739
274.25
274.778
275.324
275.889
276.473
277.076
277.694
278.325
278.962
279.597
280.219
280.812
281.355
281.824
273.265
273.804
274.363
274.943
275.547
276.177
276.835
277.522
278.238
278.98
279.745
280.523
281.303
282.062
282.771
283.389
273.264
273.8
274.355
274.932
275.533
276.16
276.815
277.499
278.211
278.95
279.71
280.485
281.261
282.017
282.724
283.34
273.262
273.793
274.344
274.915
275.511
276.133
276.782
277.46
278.165
278.897
279.65
280.417
281.186
281.935
282.637
283.25
273.259
273.786
274.33
274.896
275.485
276.099
276.741
277.409
278.105
278.826
279.568
280.324
281.081
281.82
282.512
283.118
273.256
273.777
274.315
274.873
275.454
276.06
276.691
277.349
278.033
278.741
279.468
280.208
280.949
281.672
282.35
282.944
273.253
273.767
274.298
274.848
275.42
276.016
276.636
277.281
277.951
278.642
279.351
280.071
280.791
281.493
282.151
282.729
273.249
273.756
274.279
274.821
275.384
275.968
276.576
277.207
277.86
278.533
279.221
279.918
280.612
281.287
281.919
282.473
273.246
273.745
274.26
274.793
275.345
275.919
276.513
277.129
277.764
278.417
279.082
279.752
280.417
281.061
281.661
282.185
273.268
273.815
274.381
274.971
275.586
276.23
276.906
277.616
278.361
279.141
279.954
280.795
281.652
282.507
283.325
284.056
273.267
273.81
274.373
274.959
275.571
276.212
276.885
277.591
278.332
279.109
279.918
280.754
281.607
282.459
283.275
284.004
273.265
273.804
274.362
274.942
275.549
276.184
276.851
277.55
278.284
279.053
279.853
280.682
281.527
282.371
283.182
283.907
273.262
273.796
274.348
274.922
275.521
276.149
276.807
277.497
278.221
278.978
279.766
280.582
281.414
282.246
283.047
283.766
273.259
273.786
274.332
274.898
275.489
276.108
276.755
277.434
278.144
278.886
279.659
280.456
281.271
282.085
282.869
283.576
273.256
273.776
274.314
274.872
275.454
276.062
276.697
277.362
278.057
278.781
279.533
280.308
281.098
281.887
282.647
283.334
273.252
273.765
274.295
274.844
275.416
276.012
276.634
277.283
277.96
278.664
279.392
280.139
280.899
281.655
282.382
283.037
273.249
273.753
274.275
274.815
275.376
275.96
276.568
277.201
277.858
278.539
279.24
279.956
280.68
281.395
282.079
282.692
273.273
273.828
274.404
275.004
275.633
276.294
276.991
277.727
278.507
279.331
280.202
281.118
282.072
283.051
284.022
284.923
273.271
273.823
274.395
274.992
275.618
276.275
276.969
277.702
278.477
279.297
280.163
281.075
282.025
283
283.968
284.868
273.269
273.816
274.383
274.975
275.595
276.246
276.933
277.658
278.426
279.238
280.095
280.997
281.939
282.906
283.869
284.765
273.266
273.808
274.369
274.954
275.566
276.209
276.887
277.602
278.359
279.158
280.002
280.89
281.817
282.772
283.725
284.615
273.263
273.798
274.352
274.929
275.532
276.166
276.832
277.535
278.277
279.06
279.886
280.754
281.661
282.596
283.531
284.41
273.26
273.787
274.334
274.902
275.495
276.118
276.771
277.459
278.184
278.947
279.75
280.592
281.47
282.375
283.283
284.139
273.256
273.776
274.314
274.873
275.455
276.065
276.705
277.376
278.081
278.821
279.596
280.406
281.248
282.111
282.975
283.79
273.252
273.764
274.293
274.842
275.414
276.011
276.635
277.288
277.971
278.685
279.43
280.202
280.999
281.81
282.613
283.364
273.277
273.842
274.429
275.042
275.686
276.365
277.085
277.851
278.668
279.542
280.477
281.477
282.544
283.673
284.846
286.006
273.276
273.837
274.421
275.03
275.67
276.346
277.062
277.824
278.637
279.506
280.436
281.431
282.494
283.619
284.789
285.942
273.274
273.83
274.408
275.012
275.646
276.315
277.025
277.779
278.583
279.443
280.363
281.349
282.402
283.52
284.684
285.834
273.271
273.821
274.393
274.99
275.616
276.277
276.976
277.72
278.512
279.358
280.264
281.234
282.272
283.377
284.532
285.681
273.268
273.811
274.376
274.964
275.581
276.231
276.919
277.649
278.426
279.254
280.139
281.087
282.103
283.186
284.326
285.469
273.264
273.8
274.356
274.936
275.542
276.181
276.855
277.568
278.326
279.132
279.992
280.911
281.893
282.943
284.051
285.173
273.26
273.788
274.335
274.905
275.5
276.126
276.784
277.48
278.215
278.996
279.824
280.706
281.644
282.643
283.696
284.765
273.256
273.776
274.314
274.873
275.457
276.068
276.71
277.386
278.098
278.849
279.642
280.479
281.362
282.291
283.258
284.228
273.282
273.858
274.456
275.083
275.742
276.441
277.185
277.982
278.838
279.762
280.763
281.85
283.037
284.334
285.755
287.297
273.281
273.853
274.447
275.07
275.726
276.421
277.161
277.954
278.805
279.724
280.72
281.802
282.984
284.277
285.691
287.212
273.278
273.845
274.434
275.051
275.701
276.389
277.122
277.906
278.749
279.658
280.643
281.715
282.887
284.173
285.583
287.1
273.276
273.836
274.419
275.028
275.67
276.349
277.071
277.844
278.673
279.568
280.538
281.593
282.75
284.023
285.428
286.954
273.272
273.826
274.401
275.001
275.633
276.301
277.011
277.769
278.582
279.457
280.405
281.436
282.568
283.82
285.214
286.749
273.268
273.814
274.38
274.972
275.593
276.248
276.943
277.684
278.476
279.327
280.246
281.245
282.34
283.555
284.918
286.446
273.264
273.802
274.359
274.94
275.548
276.19
276.869
277.589
278.358
279.18
280.064
281.021
282.065
283.219
284.516
285.986
273.26
273.789
274.336
274.906
275.502
276.129
276.79
277.489
278.231
279.021
279.865
280.77
281.747
282.813
283.991
285.303
273.26
273.788
274.335
274.905
275.5
276.127
276.787
277.486
278.228
279.017
279.86
280.765
281.742
282.808
283.986
285.299
273.255
273.775
274.312
274.87
275.453
276.064
276.705
277.379
278.091
278.841
279.633
280.47
281.353
282.282
283.249
284.219
273.251
273.762
274.29
274.838
275.409
276.005
276.628
277.28
277.962
278.675
279.418
280.191
280.987
281.797
282.601
283.353
273.248
273.752
274.272
274.811
275.37
275.953
276.56
277.191
277.847
278.526
279.227
279.942
280.665
281.381
282.065
282.679
273.245
273.743
274.256
274.788
275.339
275.911
276.504
277.118
277.752
278.403
279.067
279.736
280.401
281.045
281.645
282.171
273.243
273.737
274.246
274.772
275.317
275.881
276.463
277.064
277.681
278.31
278.946
279.58
280.202
280.795
281.339
281.808
273.242
273.733
274.24
274.764
275.305
275.863
276.439
277.03
277.636
278.25
278.867
279.479
280.072
280.633
281.141
281.577
273.242
273.733
274.24
274.762
275.301
275.857
276.43
277.017
277.616
278.223
278.831
279.431
280.01
280.555
281.047
281.466
273.264
273.8
274.356
274.936
275.544
276.184
276.862
277.581
278.349
279.17
280.053
281.009
282.053
283.207
284.505
285.977
273.259
273.786
274.332
274.9
275.494
276.118
276.775
277.469
278.203
278.982
279.81
280.69
281.629
282.627
283.681
284.751
273.255
273.774
274.31
274.867
275.448
276.056
276.694
277.363
278.066
278.805
279.579
280.388
281.229
282.093
282.957
283.773
273.251
273.762
274.29
274.838
275.408
276.002
276.622
277.269
277.944
278.646
279.373
280.119
280.878
281.634
282.362
283.018
273.249
273.753
274.274
274.814
275.375
275.958
276.563
277.192
277.843
278.514
279.201
279.896
280.59
281.265
281.898
282.453
273.246
273.747
274.263
274.798
275.352
275.925
276.52
277.134
277.767
278.414
279.07
279.727
280.373
280.992
281.561
282.052
273.245
273.743
274.258
274.789
275.339
275.907
276.494
277.098
277.718
278.349
278.985
279.617
280.232
280.814
281.344
281.798
273.245
273.743
274.257
274.787
275.335
275.9
276.484
277.084
277.697
278.32
278.946
279.565
280.164
280.729
281.24
281.675
273.268
273.812
274.376
274.966
275.585
276.238
276.931
277.67
278.46
279.309
280.227
281.225
282.32
283.535
284.899
286.43
273.263
273.797
274.351
274.929
275.533
276.169
276.841
277.552
278.307
279.112
279.97
280.887
281.869
282.919
284.028
285.152
273.259
273.784
274.328
274.894
275.485
276.105
276.756
277.441
278.163
278.924
279.725
280.566
281.444
282.349
283.257
284.115
273.255
273.772
274.308
274.864
275.443
276.048
276.68
277.342
278.034
278.756
279.506
280.28
281.069
281.858
282.62
283.308
273.252
273.763
274.291
274.839
275.409
276.001
276.619
277.261
277.927
278.616
279.324
280.043
280.762
281.464
282.122
282.702
273.25
273.756
274.28
274.822
275.384
275.968
276.573
277.2
277.847
278.51
279.185
279.862
280.53
281.171
281.761
282.272
273.248
273.753
274.274
274.812
275.37
275.948
276.546
277.162
277.796
278.442
279.094
279.744
280.379
280.98
281.528
281.998
273.248
273.752
274.273
274.81
275.366
275.941
276.535
277.146
277.773
278.411
279.052
279.689
280.306
280.889
281.416
281.867
273.271
273.822
274.394
274.992
275.621
276.286
276.993
277.748
278.558
279.43
280.376
281.406
282.537
283.789
285.184
286.723
273.266
273.807
274.369
274.954
275.568
276.215
276.899
277.625
278.399
279.224
280.108
281.054
282.068
283.152
284.292
285.437
273.262
273.794
274.345
274.918
275.518
276.148
276.811
277.51
278.249
279.029
279.852
280.718
281.624
282.559
283.495
284.376
273.258
273.782
274.324
274.887
275.474
276.089
276.733
277.407
278.114
278.854
279.623
280.419
281.232
282.046
282.832
283.541
273.255
273.772
274.307
274.861
275.439
276.041
276.668
277.322
278.003
278.707
279.432
280.17
280.91
281.633
282.312
282.909
273.252
273.765
274.295
274.843
275.413
276.005
276.621
277.259
277.918
278.596
279.287
279.981
280.667
281.326
281.933
282.458
273.251
273.761
274.288
274.834
275.399
275.985
276.592
277.219
277.864
278.524
279.191
279.857
280.508
281.125
281.688
282.171
273.251
273.761
274.287
274.831
275.394
275.977
276.58
277.202
277.841
278.491
279.147
279.798
280.431
281.029
281.571
282.033
273.274
273.831
274.41
275.015
275.652
276.327
277.045
277.813
278.639
279.53
280.496
281.55
282.704
283.977
285.383
286.914
273.269
273.816
274.383
274.976
275.597
276.253
276.948
277.687
278.475
279.317
280.22
281.187
282.224
283.328
284.485
285.636
273.264
273.802
274.359
274.939
275.546
276.184
276.857
277.568
278.32
279.116
279.956
280.842
281.768
282.722
283.676
284.568
273.26
273.789
274.337
274.907
275.501
276.124
276.776
277.462
278.181
278.934
279.72
280.533
281.364
282.196
282.998
283.719
273.257
273.779
274.32
274.88
275.464
276.074
276.71
277.374
278.066
278.783
279.522
280.275
281.031
281.77
282.464
283.073
273.255
273.772
274.307
274.862
275.438
276.037
276.661
277.308
277.978
278.668
279.371
280.08
280.78
281.453
282.073
282.609
273.253
273.768
274.3
274.852
275.423
276.016
276.631
277.267
277.922
278.593
279.273
279.951
280.615
281.245
281.82
282.313
273.253
273.768
274.299
274.849
275.418
276.008
276.619
277.25
277.898
278.559
279.226
279.89
280.536
281.146
281.698
282.17
273.276
273.838
274.422
275.033
275.676
276.358
277.085
277.863
278.701
279.605
280.587
281.656
282.825
284.109
285.518
287.038
273.271
273.822
274.395
274.992
275.62
276.283
276.986
277.734
278.533
279.389
280.305
281.287
282.338
283.455
284.618
285.77
273.266
273.808
274.37
274.955
275.568
276.213
276.893
277.613
278.375
279.182
280.036
280.935
281.875
282.841
283.804
284.702
273.262
273.795
274.348
274.922
275.522
276.151
276.811
277.504
278.233
278.997
279.794
280.619
281.463
282.307
283.119
283.848
273.259
273.785
274.33
274.895
275.484
276.1
276.743
277.414
278.115
278.842
279.591
280.356
281.123
281.873
282.577
283.193
273.257
273.778
274.317
274.876
275.457
276.063
276.692
277.347
278.025
278.723
279.437
280.155
280.866
281.549
282.179
282.722
273.255
273.774
274.31
274.866
275.442
276.041
276.662
277.305
277.968
278.647
279.335
280.024
280.697
281.337
281.92
282.42
273.255
273.773
274.309
274.863
275.437
276.033
276.649
277.287
277.942
278.612
279.288
279.961
280.616
281.235
281.796
282.275
273.278
273.843
274.43
275.045
275.692
276.38
277.112
277.898
278.743
279.656
280.647
281.726
282.904
284.193
285.601
287.112
273.273
273.827
274.403
275.004
275.636
276.303
277.012
277.767
278.573
279.436
280.362
281.353
282.413
283.536
284.702
285.852
273.268
273.812
274.377
274.966
275.583
276.232
276.918
277.643
278.412
279.227
280.089
280.997
281.945
282.919
283.887
284.787
273.264
273.8
274.355
274.932
275.536
276.169
276.834
277.533
278.268
279.039
279.844
280.677
281.529
282.38
283.198
283.931
273.26
273.789
274.337
274.905
275.498
276.117
276.765
277.442
278.148
278.881
279.638
280.41
281.185
281.942
282.652
283.273
273.258
273.782
274.324
274.886
275.471
276.08
276.714
277.373
278.057
278.761
279.481
280.207
280.924
281.614
282.249
282.798
273.257
273.778
274.317
274.875
275.455
276.057
276.683
277.33
277.999
278.684
279.378
280.073
280.753
281.399
281.988
282.492
273.256
273.777
274.315
274.873
275.45
276.049
276.67
277.312
277.973
278.648
279.33
280.009
280.67
281.296
281.862
282.345
273.278
273.845
274.434
275.051
275.701
276.391
277.126
277.915
278.764
279.682
280.677
281.761
282.942
284.233
285.64
287.146
273.273
273.829
274.406
275.01
275.644
276.314
277.025
277.783
278.593
279.461
280.39
281.386
282.45
283.576
284.743
285.891
273.269
273.815
274.381
274.971
275.59
276.242
276.93
277.659
278.431
279.25
280.116
281.028
281.98
282.957
283.927
284.828
273.264
273.802
274.358
274.938
275.543
276.179
276.846
277.548
278.286
279.06
279.869
280.706
281.562
282.417
283.237
283.972
273.261
273.791
274.34
274.911
275.505
276.126
276.776
277.456
278.165
278.902
279.662
280.438
281.216
281.976
282.689
283.312
273.259
273.784
274.327
274.891
275.478
276.088
276.725
277.387
278.073
278.781
279.504
280.233
280.954
281.646
282.285
282.835
273.257
273.78
274.32
274.88
275.462
276.066
276.693
277.343
278.014
278.702
279.4
280.098
280.781
281.43
282.022
282.528
273.257
273.779
274.319
274.877
275.457
276.058
276.681
277.325
277.988
278.666
279.351
280.033
280.698
281.326
281.895
282.38
273.239
273.725
274.225
274.741
275.273
275.82
276.383
276.958
277.544
278.135
278.726
279.306
279.865
280.388
280.859
281.26
273.236
273.715
274.208
274.716
275.238
275.775
276.326
276.888
277.459
278.034
278.605
279.165
279.703
280.204
280.655
281.038
273.233
273.705
274.192
274.692
275.206
275.734
276.274
276.824
277.38
277.939
278.492
279.033
279.55
280.031
280.462
280.828
273.23
273.697
274.177
274.671
275.178
275.698
276.228
276.767
277.31
277.854
278.392
278.915
279.413
279.875
280.288
280.638
273.228
273.69
274.166
274.655
275.156
275.668
276.19
276.719
277.252
277.784
278.308
278.815
279.298
279.743
280.141
280.478
273.226
273.686
274.158
274.643
275.139
275.646
276.162
276.684
277.209
277.731
278.243
278.739
279.209
279.642
280.027
280.353
273.225
273.683
274.153
274.636
275.13
275.633
276.145
276.662
277.181
277.696
278.201
278.688
279.149
279.573
279.95
280.269
273.225
273.682
274.152
274.634
275.126
275.628
276.138
276.652
277.168
277.68
278.181
278.664
279.12
279.54
279.912
280.227
273.239
273.725
274.226
274.743
275.276
275.825
276.391
276.97
277.561
278.159
278.758
279.349
279.92
280.457
280.943
281.358
273.236
273.715
274.208
274.717
275.241
275.78
276.333
276.899
277.475
278.055
278.634
279.204
279.752
280.265
280.728
281.123
273.233
273.705
274.192
274.693
275.208
275.738
276.28
276.834
277.394
277.958
278.518
279.067
279.593
280.083
280.524
280.9
273.23
273.697
274.178
274.672
275.18
275.701
276.234
276.775
277.323
277.872
278.415
278.944
279.45
279.92
280.342
280.7
273.228
273.69
274.166
274.655
275.157
275.671
276.195
276.728
277.264
277.8
278.328
278.842
279.33
279.783
280.187
280.531
273.226
273.686
274.158
274.643
275.141
275.65
276.168
276.692
277.22
277.746
278.263
278.764
279.239
279.677
280.068
280.4
273.226
273.683
274.154
274.637
275.132
275.637
276.151
276.671
277.192
277.711
278.22
278.712
279.178
279.607
279.988
280.312
273.225
273.683
274.153
274.636
275.129
275.633
276.145
276.662
277.18
277.695
278.201
278.688
279.149
279.573
279.95
280.269
273.24
273.728
274.231
274.75
275.287
275.841
276.413
277
277.602
278.213
278.829
279.44
280.036
280.601
281.117
281.561
273.237
273.718
274.213
274.724
275.251
275.794
276.354
276.927
277.512
278.105
278.698
279.285
279.855
280.392
280.88
281.299
273.234
273.708
274.196
274.699
275.218
275.751
276.299
276.859
277.428
278.003
278.576
279.139
279.683
280.194
280.655
281.05
273.231
273.699
274.182
274.678
275.189
275.713
276.251
276.799
277.354
277.912
278.466
279.009
279.53
280.016
280.453
280.827
273.229
273.693
274.17
274.661
275.165
275.683
276.212
276.75
277.293
277.837
278.375
278.9
279.401
279.867
280.284
280.64
273.227
273.688
274.162
274.649
275.149
275.661
276.184
276.714
277.247
277.781
278.306
278.817
279.302
279.752
280.154
280.496
273.226
273.685
274.158
274.643
275.141
275.649
276.167
276.692
277.219
277.745
278.262
278.763
279.238
279.676
280.067
280.399
273.226
273.685
274.158
274.642
275.139
275.646
276.161
276.683
277.208
277.729
278.242
278.738
279.207
279.64
280.026
280.352
273.242
273.734
274.241
274.765
275.307
275.869
276.45
277.05
277.667
278.298
278.939
279.581
280.214
280.823
281.387
281.878
273.239
273.723
274.222
274.737
275.27
275.82
276.388
276.973
277.572
278.182
278.798
279.411
280.012
280.586
281.113
281.569
273.235
273.713
274.205
274.712
275.236
275.776
276.331
276.901
277.483
278.073
278.665
279.251
279.821
280.361
280.854
281.278
273.233
273.704
274.19
274.69
275.206
275.736
276.281
276.838
277.405
277.976
278.547
279.108
279.651
280.161
280.623
281.019
273.23
273.697
274.178
274.673
275.182
275.705
276.24
276.786
277.34
277.896
278.448
278.989
279.508
279.993
280.43
280.803
273.229
273.692
274.17
274.66
275.165
275.682
276.211
276.749
277.292
277.836
278.374
278.899
279.4
279.865
280.283
280.638
273.228
273.69
274.166
274.654
275.156
275.67
276.194
276.726
277.262
277.798
278.326
278.84
279.328
279.781
280.185
280.529
273.228
273.69
274.165
274.654
275.154
275.667
276.188
276.718
277.25
277.782
278.305
278.813
279.295
279.741
280.138
280.476
273.245
273.742
274.255
274.785
275.336
275.908
276.501
277.117
277.754
278.411
279.083
279.766
280.45
281.12
281.753
282.316
273.241
273.731
274.235
274.757
275.297
275.857
276.436
277.035
277.652
278.285
278.929
279.577
280.22
280.844
281.426
281.938
273.238
273.72
274.217
274.731
275.261
275.81
276.376
276.959
277.557
278.167
278.783
279.399
280.004
280.583
281.118
281.583
273.235
273.711
274.202
274.708
275.23
275.769
276.323
276.892
277.473
278.062
278.653
279.24
279.81
280.352
280.846
281.273
273.232
273.704
274.189
274.69
275.205
275.735
276.28
276.837
277.403
277.975
278.545
279.107
279.649
280.159
280.621
281.017
273.231
273.699
274.181
274.677
275.187
275.712
276.249
276.797
277.352
277.909
278.463
279.006
279.526
280.013
280.45
280.824
273.23
273.696
274.177
274.671
275.178
275.699
276.231
276.773
277.32
277.868
278.411
278.94
279.446
279.916