/*--------------------------------*- C++ -*----------------------------------*\
| =========                 |                                                 |
| \\      /  F ield         | OpenFOAM: The Open Source CFD Toolbox           |
|  \\    /   O peration     | Version:  v1912                                 |
|   \\  /    A nd           | Website:  www.openfoam.com                      |
|    \\/     M anipulation  |                                                 |
\*---------------------------------------------------------------------------*/
FoamFile
{
    version     2.0;
    format      ascii;
    class       volVectorField;
    location    "0.78/fluid";
    object      U;
}
// * * * * * * * * * * * * * * * * * * * * * * * * * * * * * * * * * * * * * //

dimensions      [0 1 -1 0 0 0 0];


internalField   nonuniform List<vector> 
14592
(
(0.087716 0.0173274 0.000602363)
(0.0719791 0.0118737 0.0010442)
(0.0563213 0.00755786 0.000930753)
(0.0472329 0.00380573 0.000392583)
(0.041468 0.00178513 -0.000477965)
(0.0382414 0.000757977 -0.00157824)
(0.0362276 0.000313365 -0.00289374)
(0.0348626 0.000126228 -0.00446676)
(0.0336259 4.28934e-05 -0.00639517)
(0.0324648 -3.22239e-05 -0.00883114)
(0.0309143 -0.000142143 -0.0120218)
(0.029465 -0.000390482 -0.0162736)
(0.0266996 -0.000762733 -0.0222631)
(0.0244964 -0.00166131 -0.0300569)
(0.0173426 -0.00213929 -0.0401598)
(0.00989626 -0.00502868 -0.0379013)
(0.103964 0.0181566 0.000841843)
(0.103417 0.018128 0.00154911)
(0.0998883 0.0150582 0.00152599)
(0.0955496 0.0105123 0.000812604)
(0.0913852 0.00688415 -0.00053694)
(0.0880546 0.00436925 -0.00239708)
(0.0852989 0.00289966 -0.00472055)
(0.0829164 0.00214639 -0.00755057)
(0.0804806 0.00183432 -0.0110327)
(0.0778885 0.00174177 -0.0154192)
(0.0745037 0.00172155 -0.0211125)
(0.0706501 0.00158956 -0.0286423)
(0.0643217 0.00128893 -0.038952)
(0.0571912 0.000233363 -0.0520968)
(0.041052 -0.000880883 -0.0672281)
(0.0238102 -0.00492497 -0.0614502)
(0.104003 0.0121563 0.000923668)
(0.108486 0.0167727 0.00172997)
(0.111523 0.0162604 0.00175697)
(0.112097 0.0131292 0.00103259)
(0.111362 0.00987001 -0.000398099)
(0.10992 0.00723317 -0.00242)
(0.108064 0.00551738 -0.00498773)
(0.105938 0.0046048 -0.00814583)
(0.103375 0.00430034 -0.0120469)
(0.100354 0.00439325 -0.0169681)
(0.0962381 0.00471635 -0.023347)
(0.0912277 0.00506613 -0.0317975)
(0.0830798 0.0053415 -0.0433319)
(0.0732744 0.00487158 -0.0582278)
(0.0524189 0.003647 -0.0753933)
(0.0293421 -0.001334 -0.0702352)
(0.102146 0.0078067 0.000957121)
(0.106888 0.0130523 0.00181457)
(0.111893 0.0141318 0.00187292)
(0.114891 0.0127537 0.00116538)
(0.116366 0.0106431 -0.000253323)
(0.116557 0.00868373 -0.00226756)
(0.115811 0.00734397 -0.00483346)
(0.11437 0.00670526 -0.00799751)
(0.112199 0.00671124 -0.0119115)
(0.10935 0.00724471 -0.0168589)
(0.105208 0.00820421 -0.0232805)
(0.0999342 0.00943874 -0.0318335)
(0.0911339 0.0108618 -0.0435518)
(0.0801896 0.0117439 -0.0589159)
(0.0571242 0.0112566 -0.0768748)
(0.0309611 0.0048018 -0.072829)
(0.101098 0.00506082 0.000983822)
(0.104913 0.00962009 0.0018837)
(0.109813 0.0113819 0.00197797)
(0.113565 0.0112454 0.00130305)
(0.116135 0.0102453 -7.39183e-05)
(0.117417 0.00913705 -0.00202944)
(0.117621 0.00840218 -0.00451409)
(0.116948 0.00823629 -0.00757033)
(0.115394 0.00869596 -0.0113412)
(0.113052 0.00976556 -0.0161058)
(0.109322 0.0114256 -0.022288)
(0.104374 0.0136046 -0.0305692)
(0.0956721 0.0162569 -0.0419634)
(0.0845173 0.0185802 -0.0571785)
(0.0602505 0.0190187 -0.0752017)
(0.0317885 0.0102529 -0.0723962)
(0.100625 0.00336737 0.00101124)
(0.103633 0.00687242 0.00195495)
(0.108003 0.00870042 0.00209489)
(0.111878 0.00926536 0.00146764)
(0.114961 0.00911915 0.000150417)
(0.116938 0.00880875 -0.00172344)
(0.117874 0.00874104 -0.0040943)
(0.117896 0.00915125 -0.00699543)
(0.116987 0.0101723 -0.0105551)
(0.115256 0.0118938 -0.0150404)
(0.112111 0.0144096 -0.0208461)
(0.107733 0.0178212 -0.0286667)
(0.0994511 0.0222566 -0.0394642)
(0.0885155 0.0270997 -0.0542129)
(0.063458 0.0303385 -0.0719031)
(0.0330093 0.0198548 -0.0706961)
(0.100448 0.00217091 0.00104425)
(0.103001 0.00464054 0.00203754)
(0.10698 0.00625378 0.00223342)
(0.110844 0.00715499 0.00166793)
(0.114209 0.00760828 0.000426467)
(0.11666 0.00795809 -0.00134673)
(0.118178 0.00850348 -0.00357708)
(0.11884 0.00946798 -0.00628089)
(0.118635 0.0110185 -0.0095599)
(0.117705 0.0133219 -0.0136494)
(0.115528 0.0165563 -0.0188801)
(0.112371 0.020988 -0.0259035)
(0.105576 0.0268803 -0.0355131)
(0.0964595 0.0338788 -0.0489049)
(0.0719805 0.0396573 -0.0647772)
(0.0405506 0.0271989 -0.0654318)
(0.100391 0.00118504 0.00108223)
(0.102768 0.00266128 0.00213033)
(0.106604 0.00391056 0.00238887)
(0.110517 0.00493317 0.00189415)
(0.1141 0.00580898 0.000737961)
(0.116906 0.00669787 -0.000924605)
(0.118878 0.00778154 -0.00300299)
(0.120078 0.00924531 -0.00549378)
(0.12051 0.0112681 -0.00846895)
(0.120348 0.0140925 -0.0121264)
(0.119146 0.0180013 -0.0167286)
(0.117245 0.0235856 -0.0228698)
(0.112074 0.0314969 -0.0311722)
(0.105189 0.0431708 -0.0430778)
(0.082123 0.0573358 -0.0571787)
(0.0531954 0.0617639 -0.0613806)
(0.0876845 0.0173303 0.000373297)
(0.0717973 0.0118872 0.000627472)
(0.0559064 0.00757002 0.00047524)
(0.0466109 0.00381213 -5.78057e-06)
(0.0406521 0.00178918 -0.000762868)
(0.0372416 0.000762395 -0.00173044)
(0.0350202 0.000320957 -0.00290843)
(0.033395 0.00013766 -0.00433265)
(0.0318183 5.92722e-05 -0.00608471)
(0.0301953 -9.01281e-06 -0.00825909)
(0.0280609 -0.000103837 -0.0110412)
(0.0257773 -0.000318716 -0.0144915)
(0.0221656 -0.000616052 -0.0190253)
(0.0184588 -0.00135349 -0.0236164)
(0.011308 -0.00177349 -0.0279346)
(0.00296175 -0.00369012 -0.0185766)
(0.103921 0.0181713 0.000518751)
(0.103162 0.0181667 0.000916914)
(0.0992863 0.0151078 0.000766154)
(0.0945772 0.010561 7.55506e-05)
(0.0900304 0.00693334 -0.00113423)
(0.0863133 0.00442648 -0.0027898)
(0.0831321 0.00297648 -0.004877)
(0.0802376 0.00225211 -0.00744407)
(0.0771472 0.00197848 -0.0106186)
(0.0736827 0.00193298 -0.0145761)
(0.0691685 0.00197629 -0.0196192)
(0.0637628 0.00192378 -0.0259414)
(0.0556975 0.00173528 -0.0340838)
(0.0460099 0.000818067 -0.0426332)
(0.029349 -0.000330882 -0.0495481)
(0.0106918 -0.0038911 -0.0322505)
(0.103963 0.0121809 0.000574202)
(0.108225 0.0168324 0.00102843)
(0.110897 0.0163477 0.000894139)
(0.111066 0.0132315 0.000173365)
(0.109899 0.00998662 -0.00112108)
(0.108007 0.00737332 -0.00292677)
(0.105656 0.00569881 -0.00523431)
(0.102939 0.00484671 -0.00809811)
(0.0996281 0.00462474 -0.0116545)
(0.0956168 0.00482078 -0.0161023)
(0.0902102 0.00527676 -0.0217684)
(0.083437 0.00577567 -0.0289059)
(0.0732635 0.00622643 -0.0380735)
(0.0605291 0.00587168 -0.0478596)
(0.0389016 0.00452558 -0.0557545)
(0.0142485 -0.000762447 -0.0364031)
(0.102108 0.00783323 0.000603283)
(0.106631 0.0131191 0.00109331)
(0.111275 0.0142389 0.000979557)
(0.113872 0.0128938 0.000270444)
(0.114916 0.010817 -0.00101409)
(0.114658 0.00890349 -0.0028118)
(0.113415 0.00763242 -0.00511527)
(0.111383 0.00709146 -0.00798157)
(0.108463 0.00723211 -0.0115464)
(0.104623 0.00793991 -0.016015)
(0.0991767 0.00912892 -0.0217131)
(0.0921164 0.0106321 -0.0289255)
(0.0812226 0.0123836 -0.0382065)
(0.0672395 0.0134909 -0.0482338)
(0.0432702 0.0129371 -0.0564167)
(0.0153492 0.00545698 -0.0369087)
(0.101063 0.00509031 0.00063197)
(0.104661 0.00969489 0.00116023)
(0.109206 0.0115072 0.0010796)
(0.11257 0.0114195 0.000402723)
(0.114728 0.0104722 -0.000840715)
(0.115583 0.00943136 -0.00258174)
(0.115317 0.00879142 -0.00480815)
(0.114087 0.00875875 -0.00757298)
(0.111825 0.00940352 -0.0110034)
(0.108544 0.0107185 -0.0153012)
(0.103567 0.0127092 -0.0207756)
(0.0969002 0.0152891 -0.0277323)
(0.0861357 0.0184528 -0.0366979)
(0.0719593 0.0211609 -0.0465122)
(0.046654 0.0216595 -0.0545897)
(0.0161759 0.0111876 -0.0357057)
(0.100591 0.00340018 0.000662291)
(0.103386 0.00695539 0.00123389)
(0.107409 0.0088419 0.00119819)
(0.11091 0.00946837 0.000568757)
(0.113603 0.00939109 -0.000616224)
(0.115184 0.00916756 -0.00227874)
(0.115688 0.00921936 -0.00439778)
(0.115199 0.00979719 -0.00701739)
(0.113641 0.0110546 -0.0102507)
(0.111048 0.0130995 -0.0142901)
(0.106743 0.0160671 -0.0194182)
(0.10076 0.0200599 -0.0259582)
(0.0904949 0.0252919 -0.0343874)
(0.0766393 0.030855 -0.0437713)
(0.0504132 0.0346008 -0.0515497)
(0.0176584 0.0217466 -0.0338342)
(0.100415 0.00220805 0.000697235)
(0.102759 0.00473273 0.00131843)
(0.106401 0.0064105 0.0013379)
(0.109909 0.0073823 0.000768945)
(0.112908 0.00791647 -0.00034298)
(0.115 0.00836766 -0.00190934)
(0.116133 0.0090513 -0.00389644)
(0.116348 0.0102099 -0.00633288)
(0.115577 0.0120365 -0.00930837)
(0.113905 0.0147254 -0.0129919)
(0.110722 0.0185092 -0.0176151)
(0.106191 0.0236737 -0.0234897)
(0.0976383 0.0306044 -0.030977)
(0.0859755 0.0386235 -0.0394241)
(0.0602217 0.0453373 -0.0462357)
(0.0263208 0.0298618 -0.0304368)
(0.100359 0.00122603 0.000735558)
(0.102532 0.00276103 0.00141081)
(0.106042 0.00407879 0.00149155)
(0.109617 0.00517762 0.000991167)
(0.112862 0.00614143 -3.86837e-05)
(0.115345 0.00714098 -0.0014998)
(0.116981 0.00837505 -0.00334392)
(0.117801 0.010051 -0.00558184)
(0.117759 0.0123786 -0.00827722)
(0.116983 0.0156392 -0.0115711)
(0.114945 0.0201855 -0.0156398)
(0.111924 0.0266687 -0.0207754)
(0.105257 0.0359166 -0.0272169)
(0.0962975 0.0491271 -0.034637)
(0.0719557 0.0651525 -0.0405136)
(0.0406548 0.0660989 -0.0277578)
(0.0876605 0.0173331 0.000215068)
(0.0716572 0.0118984 0.00034011)
(0.0555776 0.00758068 0.000166945)
(0.0460981 0.00381816 -0.000258502)
(0.0399538 0.00179237 -0.000906656)
(0.0363568 0.000765515 -0.0017364)
(0.0339223 0.000326119 -0.00275634)
(0.0320306 0.000144969 -0.00399558)
(0.0301107 6.86933e-05 -0.0055207)
(0.028018 2.4437e-06 -0.0073884)
(0.0252953 -8.77301e-05 -0.00974346)
(0.0221659 -0.000288788 -0.0125555)
(0.0177259 -0.000563036 -0.0161347)
(0.0127813 -0.00121801 -0.0194424)
(0.00609291 -0.00171808 -0.0220953)
(-0.000866632 -0.00320576 -0.0145564)
(0.103887 0.0181857 0.000295704)
(0.102964 0.0182028 0.000482949)
(0.0988076 0.0151555 0.000255114)
(0.0937765 0.0106102 -0.000392678)
(0.0888758 0.0069836 -0.00145597)
(0.084783 0.00448419 -0.00289259)
(0.0811799 0.00305156 -0.00470823)
(0.0777774 0.00235287 -0.0069492)
(0.0740484 0.00211365 -0.00972267)
(0.0697399 0.00211009 -0.0131473)
(0.0641618 0.00220849 -0.0174514)
(0.0573142 0.00222225 -0.022678)
(0.0477583 0.0021138 -0.0291833)
(0.0361316 0.00128643 -0.0354671)
(0.0199403 2.65432e-05 -0.0395554)
(0.00326493 -0.00338405 -0.0249368)
(0.103932 0.0122061 0.000331588)
(0.108024 0.0168911 0.000545327)
(0.110401 0.0164338 0.000311694)
(0.110219 0.0133345 -0.000377609)
(0.108655 0.0101047 -0.0015244)
(0.106332 0.00751378 -0.00309674)
(0.103493 0.00587723 -0.00510657)
(0.100194 0.00508065 -0.00760843)
(0.0961562 0.00493504 -0.0107185)
(0.0911929 0.00522679 -0.0145763)
(0.0845778 0.0058058 -0.0194265)
(0.0761812 0.00644086 -0.0253563)
(0.064273 0.00704556 -0.0327145)
(0.049315 0.00677896 -0.0399574)
(0.0279995 0.00529162 -0.0446224)
(0.00545696 -0.000354399 -0.0280211)
(0.10208 0.00786148 0.000355855)
(0.106434 0.013187 0.000593599)
(0.110787 0.0143463 0.000372109)
(0.113038 0.0130346 -0.000310092)
(0.113689 0.0109913 -0.00144913)
(0.112999 0.00912088 -0.00301422)
(0.111268 0.00791339 -0.00501945)
(0.108653 0.0074625 -0.00752245)
(0.105003 0.00772759 -0.0106393)
(0.100208 0.00859591 -0.0145158)
(0.0935365 0.00999525 -0.019395)
(0.0848235 0.0117401 -0.0253908)
(0.0721182 0.0137813 -0.032842)
(0.0557952 0.0150772 -0.0402685)
(0.0319989 0.0144663 -0.0451014)
(0.00612925 0.00613961 -0.0283197)
(0.101037 0.00512159 0.000383714)
(0.10447 0.00977107 0.000654566)
(0.108731 0.0116325 0.000462066)
(0.11176 0.0115928 -0.00019053)
(0.11354 0.0106963 -0.00129118)
(0.113985 0.00971886 -0.00280436)
(0.113256 0.00916736 -0.00473985)
(0.111473 0.00925823 -0.00715196)
(0.108518 0.0100748 -0.0101492)
(0.104328 0.0116165 -0.0138758)
(0.0981706 0.0139114 -0.0185604)
(0.0899016 0.0168548 -0.0243385)
(0.07733 0.0204787 -0.0315251)
(0.0607972 0.0235292 -0.0387797)
(0.0355118 0.0241304 -0.0435364)
(0.00689469 0.012372 -0.0273183)
(0.100566 0.0034341 0.000413883)
(0.103199 0.00703862 0.000725107)
(0.106947 0.00898156 0.00057416)
(0.110126 0.00966735 -3.40069e-05)
(0.112463 0.00965574 -0.00108028)
(0.113661 0.00951389 -0.00252185)
(0.113736 0.00967749 -0.00436042)
(0.11274 0.0104114 -0.00664266)
(0.110543 0.0118887 -0.00946471)
(0.10711 0.0142325 -0.0129641)
(0.1017 0.0176163 -0.0173474)
(0.0942109 0.0221366 -0.02277)
(0.0821896 0.0280866 -0.0295084)
(0.0660384 0.0342947 -0.036422)
(0.0396705 0.0385678 -0.0409862)
(0.00850237 0.0240597 -0.0258067)
(0.10039 0.00224513 0.000447968)
(0.102578 0.00482312 0.000805932)
(0.105953 0.00656259 0.000706331)
(0.109156 0.00760169 0.000154489)
(0.111823 0.0082125 -0.000824521)
(0.113564 0.00875934 -0.00217904)
(0.114312 0.00957288 -0.00389928)
(0.114077 0.0109133 -0.00601911)
(0.112744 0.0129983 -0.00861504)
(0.110341 0.0160464 -0.0118079)
(0.106187 0.0203417 -0.0157647)
(0.100346 0.0261813 -0.0206445)
(0.0902073 0.0340685 -0.026642)
(0.0765161 0.0430402 -0.0328806)
(0.0504352 0.0507449 -0.0368794)
(0.0177429 0.0333286 -0.0233693)
(0.100335 0.00126561 0.000484357)
(0.102357 0.00285659 0.000892875)
(0.105611 0.00423925 0.000850173)
(0.108899 0.00541006 0.000361764)
(0.111835 0.00645717 -0.000542171)
(0.114003 0.00756138 -0.00180126)
(0.115301 0.00893725 -0.00339304)
(0.115734 0.0108128 -0.00533628)
(0.115215 0.0134272 -0.00768556)
(0.113829 0.0170966 -0.010541)
(0.110977 0.0222409 -0.014026)
(0.106879 0.0295598 -0.0182958)
(0.0988534 0.0400584 -0.0234581)
(0.0882445 0.0547241 -0.0289348)
(0.0634662 0.0727342 -0.0323879)
(0.0332284 0.0719356 -0.0213468)
(0.0876424 0.0173356 0.000110797)
(0.0715501 0.0119078 0.000153768)
(0.0553209 0.00758999 -2.02319e-05)
(0.0456886 0.00382372 -0.000383637)
(0.0393866 0.00179576 -0.000919752)
(0.0356315 0.000769359 -0.00160281)
(0.0330243 0.000332692 -0.00244318)
(0.0309321 0.0001553 -0.00345996)
(0.0287815 8.43457e-05 -0.00469827)
(0.0264081 2.64959e-05 -0.00617622)
(0.0234066 -4.76485e-05 -0.00797719)
(0.0199422 -0.000213139 -0.00999317)
(0.0153781 -0.000423239 -0.0123706)
(0.0103044 -0.000921794 -0.0141648)
(0.00437059 -0.00130064 -0.0148898)
(-0.00125953 -0.00246822 -0.00882495)
(0.103862 0.018199 0.000149134)
(0.102812 0.0182349 0.00020379)
(0.0984314 0.0151986 -5.29549e-05)
(0.0931345 0.0106556 -0.000630028)
(0.0879332 0.00703102 -0.00152935)
(0.0835191 0.00453896 -0.00272641)
(0.079563 0.00312256 -0.00423374)
(0.0757558 0.00244841 -0.00608734)
(0.0715573 0.00224356 -0.00836397)
(0.0666833 0.00228546 -0.0111235)
(0.0604946 0.00244939 -0.0144992)
(0.0529423 0.00255749 -0.0184057)
(0.0429419 0.00259049 -0.022967)
(0.0309874 0.00198453 -0.0267734)
(0.0160266 0.000904407 -0.0279901)
(0.00167479 -0.00233587 -0.0159976)
(0.103908 0.0122297 0.000171085)
(0.107868 0.0169447 0.000233491)
(0.110011 0.0165128 -4.14501e-05)
(0.109541 0.0134298 -0.00066368)
(0.10764 0.0102144 -0.00164021)
(0.104947 0.00764405 -0.00295516)
(0.101698 0.00604151 -0.00462749)
(0.0979297 0.00529487 -0.00670169)
(0.0933459 0.00521931 -0.00926271)
(0.0877285 0.00560205 -0.0123874)
(0.0803932 0.00630437 -0.0162185)
(0.0711717 0.00709361 -0.0206986)
(0.0586889 0.00790453 -0.0259253)
(0.0433149 0.00786507 -0.0304097)
(0.0232954 0.00652603 -0.0318333)
(0.00344433 0.000719158 -0.0180323)
(0.102059 0.00788856 0.000190517)
(0.106284 0.0132505 0.000268237)
(0.110407 0.014446 -4.70473e-07)
(0.112372 0.0131651 -0.000618937)
(0.112688 0.0111522 -0.00158996)
(0.11163 0.00932032 -0.00289905)
(0.109488 0.00816863 -0.00456742)
(0.106402 0.00779647 -0.00664268)
(0.102205 0.0081706 -0.00920998)
(0.0967542 0.00918051 -0.0123519)
(0.089355 0.0107678 -0.0162085)
(0.0798088 0.012737 -0.0207421)
(0.0665025 0.0150622 -0.026034)
(0.0497402 0.0166076 -0.0306279)
(0.0272099 0.0161233 -0.0320827)
(0.00408159 0.00725467 -0.0180467)
(0.101017 0.00515157 0.000215526)
(0.104324 0.00984251 0.000320685)
(0.108361 0.0117486 7.61816e-05)
(0.111115 0.0117523 -0.000516661)
(0.112576 0.0109016 -0.00145416)
(0.112669 0.00997993 -0.0027183)
(0.11155 0.0095052 -0.00432701)
(0.109323 0.00970219 -0.00632537)
(0.105852 0.0106651 -0.00879245)
(0.101044 0.0123981 -0.0118101)
(0.0941975 0.0149472 -0.0155073)
(0.0851411 0.0181917 -0.0198639)
(0.0719879 0.0221943 -0.0249415)
(0.0550314 0.0255492 -0.0293875)
(0.0309324 0.0263045 -0.0307617)
(0.00496357 0.0136988 -0.0171646)
(0.100547 0.00346617 0.000243131)
(0.103058 0.00711603 0.000383709)
(0.106589 0.00910996 0.000175496)
(0.109505 0.009849 -0.000378366)
(0.11154 0.00989573 -0.00126823)
(0.11241 0.00982517 -0.00247049)
(0.112125 0.0100848 -0.00399643)
(0.11072 0.0109506 -0.00588503)
(0.10805 0.0126105 -0.0082054)
(0.104056 0.0151962 -0.0110353)
(0.0980133 0.0189066 -0.0144869)
(0.0898084 0.0238219 -0.0185592)
(0.0772442 0.0302818 -0.0232872)
(0.0607118 0.0369106 -0.027475)
(0.0354284 0.0414687 -0.0287379)
(0.00673463 0.0258599 -0.0159788)
(0.100372 0.00227945 0.000274018)
(0.102441 0.004906 0.000456016)
(0.105609 0.00670087 0.00029287)
(0.108562 0.00780009 -0.000211795)
(0.110947 0.00847848 -0.00104312)
(0.112389 0.00910828 -0.0021707)
(0.112811 0.0100326 -0.0035964)
(0.112214 0.0115249 -0.00534932)
(0.110466 0.0138209 -0.00748368)
(0.107577 0.0171519 -0.0100671)
(0.102878 0.0218333 -0.0131849)
(0.0964349 0.0281505 -0.0168498)
(0.0858292 0.0366656 -0.0210515)
(0.0718559 0.046182 -0.0248124)
(0.0467069 0.0543279 -0.0258545)
(0.0162044 0.0356379 -0.0144442)
(0.100318 0.00130148 0.000306469)
(0.102226 0.00294289 0.00053309)
(0.105281 0.0043835 0.000419854)
(0.108334 0.00561827 -2.94812e-05)
(0.111011 0.00673841 -0.000795723)
(0.112907 0.0079329 -0.00184161)
(0.113918 0.00942903 -0.00315852)
(0.114039 0.0114696 -0.00476391)
(0.113168 0.0143141 -0.00669543)
(0.11138 0.0182967 -0.00900773)
(0.10808 0.0238737 -0.0117573)
(0.10351 0.0317441 -0.0149666)
(0.0951154 0.0429841 -0.0185805)
(0.0843597 0.0583361 -0.0218702)
(0.0603868 0.0770219 -0.0227599)
(0.0320714 0.0747912 -0.0132524)
(0.0876283 0.0173376 4.67785e-05)
(0.0714675 0.0119152 4.38901e-05)
(0.0551211 0.00759724 -0.000112586)
(0.0453647 0.0038278 -0.000406468)
(0.0389309 0.00179785 -0.000828471)
(0.0350405 0.000771419 -0.00136323)
(0.0322853 0.000336305 -0.00202092)
(0.0300221 0.000160906 -0.00281454)
(0.0276781 9.24477e-05 -0.00377539)
(0.0250736 3.8261e-05 -0.00490622)
(0.0218488 -2.85792e-05 -0.00625946)
(0.0181302 -0.000175808 -0.00772932)
(0.0134899 -0.00035265 -0.00939703)
(0.00839708 -0.000767973 -0.0105615)
(0.00311594 -0.00108356 -0.0108029)
(-0.00146016 -0.00211399 -0.00642387)
(0.103842 0.0182102 5.98103e-05)
(0.102694 0.0182615 4.21697e-05)
(0.098138 0.0152345 -0.00020232)
(0.0926262 0.0106939 -0.00068283)
(0.0871763 0.00707125 -0.00140293)
(0.0824915 0.00458522 -0.00234911)
(0.0782364 0.00318189 -0.00353566)
(0.0740887 0.00252746 -0.00499025)
(0.0695019 0.00235011 -0.00676788)
(0.0641711 0.00242798 -0.00889869)
(0.0575076 0.00264304 -0.011464)
(0.0494393 0.00282309 -0.0143581)
(0.0391675 0.00296173 -0.017617)
(0.0271457 0.00250974 -0.0201582)
(0.0132836 0.00154461 -0.0205144)
(0.000858449 -0.00167798 -0.0116481)
(0.10389 0.0122501 7.23009e-05)
(0.107748 0.0169904 5.21399e-05)
(0.109707 0.01658 -0.00021492)
(0.109004 0.0135112 -0.000737699)
(0.106825 0.0103086 -0.00152369)
(0.103822 0.00775573 -0.00256622)
(0.100226 0.00618155 -0.00388531)
(0.0960623 0.00547643 -0.0055162)
(0.0910267 0.00545907 -0.00752073)
(0.0848798 0.00591723 -0.00994226)
(0.0769822 0.00672134 -0.0128675)
(0.0671533 0.00763695 -0.0162083)
(0.0543082 0.00861546 -0.0199723)
(0.0388222 0.00875533 -0.0230004)
(0.0199971 0.00752651 -0.0234311)
(0.00238758 0.00151143 -0.0131464)
(0.102042 0.00791237 8.70442e-05)
(0.106168 0.0133055 7.60842e-05)
(0.11011 0.0145318 -0.000188538)
(0.111845 0.0132775 -0.000709766)
(0.111887 0.0112909 -0.00149209)
(0.110518 0.00949156 -0.00253028)
(0.108028 0.00838656 -0.00384642)
(0.104546 0.00807995 -0.00547861)
(0.0998946 0.00854463 -0.00748915)
(0.0939118 0.00967152 -0.00992639)
(0.085942 0.0114131 -0.0128749)
(0.0757788 0.0135649 -0.0162618)
(0.0620864 0.0161188 -0.0200802)
(0.0451942 0.0178624 -0.0231917)
(0.0238406 0.0174787 -0.023629)
(0.00300941 0.00815084 -0.0131545)
(0.101001 0.00517804 0.000107758)
(0.104212 0.00990475 0.000118271)
(0.108075 0.0118491 -0.000127379)
(0.110607 0.01189 -0.000627872)
(0.111804 0.0110781 -0.00138285)
(0.111602 0.0102037 -0.00238462)
(0.110153 0.00979335 -0.0036529)
(0.107551 0.0100789 -0.00522398)
(0.103649 0.0111634 -0.00715565)
(0.0983399 0.0130543 -0.00949635)
(0.0909507 0.0158117 -0.0123227)
(0.0813094 0.0193007 -0.0155766)
(0.0677788 0.0236068 -0.0192376)
(0.0506968 0.0272055 -0.0222453)
(0.0277085 0.0280883 -0.0226356)
(0.00397473 0.0148237 -0.0125059)
(0.100532 0.00349437 0.000130972)
(0.10295 0.00718336 0.000170451)
(0.106312 0.00922092 -4.56465e-05)
(0.109017 0.0100053 -0.000514171)
(0.110804 0.0101015 -0.00123021)
(0.111398 0.0100911 -0.00218184)
(0.110807 0.0104313 -0.00338367)
(0.109057 0.0114069 -0.00486736)
(0.105992 0.0132181 -0.00668313)
(0.10154 0.0160027 -0.00887692)
(0.0949994 0.0199786 -0.0115135)
(0.0862627 0.0252111 -0.0145509)
(0.073346 0.0320725 -0.0179524)
(0.0567107 0.0390309 -0.0207756)
(0.0324504 0.0438094 -0.0211113)
(0.00586251 0.0273901 -0.0116273)
(0.100358 0.00230933 0.000156828)
(0.102337 0.00497757 0.000230461)
(0.105343 0.00681975 5.13181e-05)
(0.108097 0.00797002 -0.00037696)
(0.11025 0.00870568 -0.00104543)
(0.111439 0.00940543 -0.00193688)
(0.111585 0.0104228 -0.00305871)
(0.110681 0.0120418 -0.0044352)
(0.108585 0.0145127 -0.00610561)
(0.105297 0.0180764 -0.00810955)
(0.100165 0.023072 -0.0104939)
(0.0932727 0.029773 -0.0132305)
(0.0823627 0.0387828 -0.0162575)
(0.0683393 0.0487292 -0.0187952)
(0.0440863 0.0572179 -0.0190428)
(0.0154766 0.0376317 -0.0105624)
(0.100304 0.00133232 0.000183747)
(0.102127 0.0030168 0.000294114)
(0.105029 0.00450666 0.000155927)
(0.107894 0.00579566 -0.000227165)
(0.110357 0.00697762 -0.000842835)
(0.112025 0.00824823 -0.00166852)
(0.112791 0.00984534 -0.00270345)
(0.112645 0.0120237 -0.0039632)
(0.111477 0.0150591 -0.00547477)
(0.109359 0.019299 -0.00726935)
(0.105702 0.0252274 -0.00937418)
(0.100782 0.03354 -0.0117723)
(0.0921532 0.0453617 -0.014378)
(0.0814287 0.0612557 -0.016596)
(0.0582369 0.0804687 -0.0168103)
(0.0315937 0.0773493 -0.00971333)
(0.0876182 0.0173391 1.30465e-05)
(0.0714082 0.0119209 -7.97519e-06)
(0.0549765 0.00760276 -0.000130988)
(0.045128 0.00383111 -0.000346789)
(0.0385966 0.00179984 -0.000650034)
(0.0346071 0.000773687 -0.00103161)
(0.0317475 0.000340333 -0.00149889)
(0.0293702 0.000167526 -0.00205878)
(0.0269083 0.000102813 -0.00272909)
(0.024177 5.44894e-05 -0.00350246)
(0.0208561 -1.90685e-06 -0.0044035)
(0.0170537 -0.000128337 -0.00534132)
(0.0124669 -0.000269946 -0.00634596)
(0.0074913 -0.000616739 -0.00694947)
(0.00259496 -0.000871456 -0.00683128)
(-0.0014214 -0.00183889 -0.00389529)
(0.103827 0.018219 1.36041e-05)
(0.102608 0.0182822 -3.04284e-05)
(0.0979243 0.0152624 -0.000228919)
(0.092253 0.0107241 -0.000589)
(0.0866175 0.00710328 -0.00111357)
(0.0817313 0.00462233 -0.00179492)
(0.0772586 0.00322969 -0.0026443)
(0.0728718 0.00259152 -0.00367939)
(0.0680281 0.00243732 -0.00493362)
(0.0624171 0.00254629 -0.00641536)
(0.0554981 0.00280635 -0.00816275)
(0.0471982 0.00305064 -0.0100736)
(0.0369003 0.00328397 -0.0121291)
(0.0250443 0.00296335 -0.0135813)
(0.0119197 0.00210754 -0.0133733)
(0.000646587 -0.00114435 -0.00731463)
(0.103877 0.0122662 2.01128e-05)
(0.107662 0.0170262 -3.02515e-05)
(0.109486 0.0166326 -0.000249397)
(0.108609 0.0135753 -0.000643549)
(0.106223 0.0103829 -0.00121848)
(0.102987 0.00784392 -0.00197135)
(0.0991371 0.00629197 -0.00291787)
(0.0946931 0.0056194 -0.00408157)
(0.0893528 0.00564794 -0.00550099)
(0.0828725 0.00616623 -0.00719368)
(0.0746586 0.00705245 -0.00920029)
(0.06454 0.00807224 -0.0114283)
(0.0516206 0.00919125 -0.0138335)
(0.0362981 0.00948587 -0.0156039)
(0.0183067 0.0083684 -0.015393)
(0.00207011 0.00216722 -0.0083059)
(0.102031 0.00793137 3.04077e-05)
(0.106084 0.013349 -1.48296e-05)
(0.109895 0.0145996 -0.00023356)
(0.111459 0.0133662 -0.000627393)
(0.111295 0.0114001 -0.00120013)
(0.109695 0.00962606 -0.00195014)
(0.10695 0.00855695 -0.00289484)
(0.103185 0.0083005 -0.00405998)
(0.0982269 0.00883428 -0.00548464)
(0.0919088 0.0100504 -0.00719015)
(0.0836172 0.0119096 -0.00921556)
(0.0731601 0.0142015 -0.0114785)
(0.0593821 0.0169318 -0.013923)
(0.0426515 0.0188348 -0.0157478)
(0.0221277 0.018544 -0.0155256)
(0.00270753 0.00887068 -0.00829242)
(0.10099 0.00519922 4.58323e-05)
(0.104132 0.00995418 1.5971e-05)
(0.107867 0.0119285 -0.000189161)
(0.110235 0.0119985 -0.000567826)
(0.111235 0.0112168 -0.00112041)
(0.110813 0.0103786 -0.00184375)
(0.109122 0.0100172 -0.00275367)
(0.106253 0.0103694 -0.0038748)
(0.102062 0.011545 -0.00524316)
(0.0964387 0.0135528 -0.00688048)
(0.0887479 0.0164629 -0.00882063)
(0.0788352 0.0201296 -0.0109919)
(0.0652262 0.0246536 -0.0133298)
(0.0483101 0.0284295 -0.0150853)
(0.0261068 0.0294054 -0.0148356)
(0.00373902 0.0156693 -0.00784463)
(0.100521 0.00351686 6.33051e-05)
(0.102872 0.00723671 5.4865e-05)
(0.106112 0.0093084 -0.000128477)
(0.108661 0.0101281 -0.000483511)
(0.110262 0.0102625 -0.00100736)
(0.11065 0.0102979 -0.00169396)
(0.109835 0.0106987 -0.00255559)
(0.107841 0.0117562 -0.00361369)
(0.104512 0.0136783 -0.00489915)
(0.0997755 0.0166063 -0.00643238)
(0.092964 0.0207696 -0.00823978)
(0.0839903 0.0262201 -0.0102616)
(0.0710102 0.0333479 -0.0124245)
(0.0545513 0.0405169 -0.0140598)
(0.0310158 0.0454144 -0.0137913)
(0.0057073 0.0284362 -0.00725413)
(0.100348 0.00233297 8.27189e-05)
(0.102263 0.00503398 9.9678e-05)
(0.105152 0.0069131 -5.63183e-05)
(0.107758 0.00810295 -0.000381623)
(0.109738 0.00888263 -0.000870509)
(0.110739 0.00963548 -0.00151324)
(0.110682 0.0107225 -0.00231708)
(0.10956 0.0124349 -0.00329853)
(0.107231 0.0150325 -0.00448126)
(0.103699 0.0187609 -0.00588231)
(0.0983353 0.0239725 -0.00751751)
(0.0912519 0.0309278 -0.00933889)
(0.0802993 0.0402498 -0.011262)
(0.0664671 0.0504503 -0.0127274)
(0.0428578 0.0591023 -0.0124514)
(0.0154021 0.0389165 -0.00660373)
(0.100294 0.00135652 0.000102819)
(0.102056 0.00307471 0.000147077)
(0.104847 0.00460292 2.14176e-05)
(0.107574 0.00593383 -0.000270535)
(0.109878 0.00716316 -0.000720688)
(0.111375 0.00849135 -0.00131554)
(0.11196 0.0101637 -0.00205669)
(0.111626 0.012443 -0.00295475)
(0.11026 0.015615 -0.00402537)
(0.10794 0.0200339 -0.00528095)
(0.104098 0.026198 -0.00672592)
(0.0990404 0.0347927 -0.00832281)
(0.0904003 0.0469623 -0.00997829)
(0.0798922 0.0631502 -0.0112569)
(0.0572705 0.0825832 -0.0110236)
(0.031641 0.0789077 -0.00611104)
(0.0876113 0.0173401 -1.05091e-07)
(0.0713689 0.0119247 -2.10472e-05)
(0.0548806 0.00760631 -9.88862e-05)
(0.0449702 0.00383316 -0.000231481)
(0.0383723 0.00180086 -0.00041457)
(0.0343146 0.000774714 -0.000644219)
(0.0313828 0.000342251 -0.000924877)
(0.028927 0.000170732 -0.00126034)
(0.0263844 0.000107798 -0.00166037)
(0.0235677 6.22039e-05 -0.0021185)
(0.0201831 1.08301e-05 -0.00264701)
(0.0163299 -0.000105074 -0.00318947)
(0.0117826 -0.000228596 -0.00375831)
(0.00689906 -0.000540128 -0.00408729)
(0.00226186 -0.000767001 -0.00397781)
(-0.00140407 -0.00170586 -0.00227741)
(0.103818 0.0182249 -3.70422e-06)
(0.102552 0.0182962 -4.26124e-05)
(0.0977826 0.0152813 -0.00017138)
(0.092004 0.0107446 -0.000394862)
(0.0862426 0.00712509 -0.00071444)
(0.0812187 0.00464753 -0.0011267)
(0.0765967 0.00326199 -0.00163894)
(0.0720465 0.00263466 -0.00226166)
(0.0670289 0.00249578 -0.00301379)
(0.0612312 0.00262524 -0.00389722)
(0.0541462 0.00291467 -0.00493035)
(0.0457057 0.00320024 -0.00604677)
(0.0354085 0.00349348 -0.00722504)
(0.0236968 0.0032521 -0.00802913)
(0.0110748 0.00245641 -0.00782288)
(0.000528259 -0.000835029 -0.0042732)
(0.103868 0.0122773 -5.39447e-07)
(0.107604 0.0170508 -4.5243e-05)
(0.109339 0.0166686 -0.000188477)
(0.108346 0.0136194 -0.000433807)
(0.105819 0.0104341 -0.000785012)
(0.102425 0.00790461 -0.00124128)
(0.0984003 0.00636782 -0.00181286)
(0.0937643 0.00571743 -0.0025139)
(0.0882171 0.0057772 -0.00336654)
(0.081514 0.00633633 -0.00437814)
(0.0730934 0.00727805 -0.00556833)
(0.0627964 0.00836774 -0.00687566)
(0.0498487 0.00957996 -0.00826221)
(0.0346744 0.00997407 -0.0092508)
(0.017255 0.00892331 -0.00902953)
(0.0018892 0.00258118 -0.0048577)
(0.102023 0.00794457 5.45485e-06)
(0.106029 0.0133791 -3.65878e-05)
(0.109752 0.0146463 -0.000180166)
(0.111201 0.0134274 -0.00042559)
(0.110897 0.0114755 -0.000775678)
(0.109139 0.00971884 -0.00123031)
(0.106219 0.00867427 -0.0018009)
(0.102262 0.00845202 -0.00250298)
(0.0970947 0.00903283 -0.00335912)
(0.0905519 0.0103095 -0.00437905)
(0.0820494 0.0122482 -0.00558156)
(0.0714099 0.0146341 -0.00691112)
(0.0575952 0.0174817 -0.008323)
(0.0410115 0.0194888 -0.00934498)
(0.0210587 0.0192549 -0.00911588)
(0.00253518 0.00934283 -0.00485352)
(0.100983 0.00521398 1.49636e-05)
(0.104079 0.00998848 -1.78756e-05)
(0.10773 0.0119835 -0.000153303)
(0.109987 0.0120734 -0.000389475)
(0.110854 0.0113126 -0.000727231)
(0.110281 0.0104994 -0.00116555)
(0.108424 0.0101714 -0.001715)
(0.105373 0.0105692 -0.00239046)
(0.100984 0.0118067 -0.00321275)
(0.09515 0.013894 -0.00419197)
(0.0872609 0.0169071 -0.0053441)
(0.0771796 0.0206932 -0.00662007)
(0.063537 0.0253622 -0.00797086)
(0.0467684 0.0292552 -0.00895447)
(0.0251061 0.0302899 -0.00871414)
(0.00360667 0.0162374 -0.00459683)
(0.100514 0.00353254 2.57945e-05)
(0.102821 0.00727375 6.09584e-06)
(0.10598 0.00936896 -0.000115954)
(0.108423 0.0102129 -0.00033762)
(0.109899 0.0103736 -0.000657744)
(0.110147 0.0104406 -0.00107361)
(0.109178 0.0108829 -0.00159368)
(0.107016 0.0119961 -0.00223095)
(0.103507 0.0139937 -0.00300323)
(0.0985796 0.0170188 -0.00391992)
(0.0915895 0.021308 -0.00499288)
(0.082469 0.0269044 -0.0061801)
(0.0694639 0.0342079 -0.00742857)
(0.053157 0.0415154 -0.00834265)
(0.0301213 0.0464874 -0.00809694)
(0.00562599 0.0291428 -0.0042501)