/*--------------------------------*- C++ -*----------------------------------*\
| =========                 |                                                 |
| \\      /  F ield         | OpenFOAM: The Open Source CFD Toolbox           |
|  \\    /   O peration     | Version:  v1912                                 |
|   \\  /    A nd           | Website:  www.openfoam.com                      |
|    \\/     M anipulation  |                                                 |
\*---------------------------------------------------------------------------*/
FoamFile
{
    version     2.0;
    format      ascii;
    class       volScalarField;
    location    "0.01/fluid";
    object      p;
}
// * * * * * * * * * * * * * * * * * * * * * * * * * * * * * * * * * * * * * //

dimensions      [0 2 -2 0 0 0 0];


internalField   nonuniform List<scalar> 
14592
(
15.9179
15.6383
15.357
15.0783
14.8017
14.5274
14.2559
13.9877
13.7234
13.4637
13.2099
12.9629
12.7244
12.4966
12.2862
12.119
15.9132
15.6359
15.3553
15.0767
14.8
14.5255
14.2536
13.9849
13.72
13.4596
13.2049
12.957
12.7175
12.4889
12.278
12.1111
15.9089
15.6325
15.3523
15.0736
14.7966
14.5216
14.249
13.9793
13.7131
13.4512
13.1947
12.9448
12.7032
12.4728
12.2607
12.0937
15.9045
15.6283
15.3482
15.0693
14.7917
14.5159
14.2422
13.971
13.703
13.4388
13.1796
12.9265
12.6815
12.4479
12.2334
12.0657
15.8998
15.6235
15.3432
15.0639
14.7856
14.5088
14.2336
13.9605
13.69
13.4228
13.1598
12.9023
12.6523
12.4135
12.1947
12.0252
15.8947
15.6183
15.3377
15.0577
14.7786
14.5004
14.2234
13.9481
13.6746
13.4037
13.136
12.8726
12.6155
12.3688
12.1423
11.968
15.8893
15.6128
15.3317
15.051
14.7708
14.4911
14.2122
13.9343
13.6575
13.3822
13.1089
12.8384
12.572
12.3135
12.073
11.8865
15.8839
15.6071
15.3255
15.044
14.7626
14.4814
14.2004
13.9197
13.6393
13.3594
13.08
12.8013
12.5236
12.2487
11.9835
11.7623
15.9241
15.6448
15.3645
15.087
14.8123
14.5407
14.2728
14.0092
13.7512
13.5001
13.2579
13.027
12.8114
12.6173
12.4567
12.3551
15.9193
15.6424
15.3627
15.0853
14.8105
14.5386
14.2703
14.0062
13.7475
13.4955
13.2522
13.0202
12.8033
12.608
12.4465
12.3446
15.915
15.6389
15.3595
15.0821
14.8069
14.5344
14.2652
14
13.7398
13.4861
13.2406
13.0061
12.7866
12.5887
12.4251
12.3222
15.9104
15.6345
15.3552
15.0775
14.8017
14.5283
14.2578
13.9909
13.7286
13.4721
13.2233
12.9848
12.7609
12.5586
12.3912
12.2862
15.9055
15.6295
15.35
15.0718
14.7952
14.5205
14.2484
13.9792
13.7141
13.454
13.2006
12.9567
12.7262
12.5168
12.3428
12.2336
15.9001
15.624
15.3441
15.0652
14.7876
14.5115
14.2373
13.9655
13.6969
13.4323
13.1733
12.922
12.6824
12.4621
12.2766
12.1588
15.8945
15.6182
15.3378
15.0581
14.7792
14.5014
14.225
13.9502
13.6777
13.408
13.1422
12.8819
12.6303
12.3939
12.1883
12.051
15.8888
15.6122
15.3312
15.0506
14.7705
14.4909
14.212
13.9341
13.6574
13.3821
13.1089
12.8383
12.572
12.3135
12.073
11.8865
15.93
15.6511
15.3715
15.0953
14.8225
14.5533
14.2887
14.0297
13.7776
13.5344
13.3028
13.0862
12.8898
12.7209
12.5913
12.5183
15.9252
15.6486
15.3697
15.0936
14.8205
14.5511
14.286
14.0263
13.7734
13.5293
13.2964
13.0785
12.8805
12.7103
12.5794
12.5058
15.9207
15.645
15.3663
15.0901
14.8167
14.5466
14.2805
14.0196
13.765
13.5188
13.2835
13.0626
12.8614
12.6879
12.5544
12.4793
15.916
15.6405
15.3618
15.0853
14.8112
14.54
14.2725
14.0097
13.7527
13.5033
13.2641
13.0386
12.8322
12.6531
12.5147
12.4367
15.9108
15.6353
15.3564
15.0793
14.8042
14.5317
14.2623
13.997
13.7368
13.4833
13.2388
13.0067
12.7925
12.6047
12.4579
12.3744
15.9053
15.6295
15.3502
15.0723
14.7961
14.522
14.2504
13.982
13.7179
13.4592
13.2081
12.9674
12.7423
12.5413
12.3802
12.2858
15.8994
15.6234
15.3435
15.0648
14.7872
14.5112
14.2371
13.9654
13.6968
13.4323
13.1732
12.922
12.6824
12.4621
12.2767
12.1588
15.8934
15.6171
15.3366
15.0569
14.7779
14.4999
14.223
13.9478
13.6744
13.4035
13.1359
12.8725
12.6155
12.3688
12.1423
11.9681
15.9353
15.6568
15.3779
15.1029
14.8316
14.5647
14.3031
14.048
13.8012
13.565
13.3423
13.1375
12.9559
12.8048
12.6941
12.6353
15.9305
15.6543
15.376
15.101
14.8296
14.5623
14.3002
14.0444
13.7967
13.5594
13.3354
13.129
12.9457
12.7929
12.6807
12.6212
15.9259
15.6505
15.3726
15.0974
14.8255
14.5576
14.2944
14.0372
13.7877
13.548
13.3212
13.1115
12.9245
12.768
12.6527
12.5913
15.9211
15.6458
15.3679
15.0924
14.8197
14.5506
14.2858
14.0266
13.7743
13.5312
13.3001
13.0851
12.8921
12.7292
12.6082
12.5434
15.9157
15.6405
15.3622
15.086
14.8124
14.5418
14.2749
14.0129
13.7571
13.5093
13.2723
13.05
12.8481
12.6753
12.5446
12.4734
15.91
15.6345
15.3557
15.0788
14.8038
14.5314
14.2621
13.9969
13.7367
13.4832
13.2388
13.0067
12.7925
12.6048
12.458
12.3744
15.9039
15.6281
15.3488
15.0708
14.7945
14.52
14.248
13.979
13.7139
13.4539
13.2006
12.9567
12.7263
12.5168
12.3429
12.2337
15.8976
15.6216
15.3416
15.0626
14.7846
14.508
14.233
13.9601
13.6897
13.4226
13.1597
12.9022
12.6523
12.4135
12.1948
12.0253
15.9399
15.6617
15.3834
15.1093
14.8394
14.5744
14.3153
14.0636
13.8211
13.5905
13.3751
13.1792
13.0084
12.8694
12.7702
12.719
15.935
15.6591
15.3814
15.1074
14.8373
14.5719
14.3123
14.0598
13.8164
13.5846
13.3677
13.1701
12.9974
12.8565
12.7557
12.7037
15.9304
15.6552
15.3779
15.1037
14.8331
14.5669
14.3061
14.0521
13.8067
13.5724
13.3525
13.1513
12.9745
12.8295
12.7252
12.6712
15.9254
15.6504
15.373
15.0984
14.827
14.5596
14.2971
14.0409
13.7925
13.5545
13.3298
13.1229
12.9396
12.7876
12.677
12.6192
15.9199
15.6449
15.3671
15.0918
14.8194
14.5504
14.2857
14.0265
13.7743
13.5312
13.3001
13.0852
12.8921
12.7293
12.6083
12.5435
15.914
15.6387
15.3605
15.0843
14.8104
14.5395
14.2722
14.0094
13.7525
13.5033
13.2641
13.0387
12.8323
12.6533
12.5148
12.4369
15.9077
15.6322
15.3533
15.076
14.8006
14.5275
14.2572
13.9905
13.7283
13.472
13.2233
12.9849
12.761
12.5587
12.3914
12.2864
15.9013
15.6254
15.3458
15.0674
14.7903
14.5149
14.2415
13.9705
13.7026
13.4386
13.1795
12.9265
12.6816
12.448
12.2335
12.0659
15.9435
15.6655
15.3877
15.1143
14.8455
14.582
14.3249
14.0757
13.8366
13.6103
13.4002
13.2108
13.0473
12.9161
12.8239
12.777
15.9386
15.6629
15.3857
15.1124
14.8434
14.5794
14.3217
14.0718
13.8316
13.604
13.3924
13.2011
13.0357
12.9025
12.8086
12.7608
15.9339
15.659
15.3821
15.1086
14.839
14.5742
14.3153
14.0638
13.8216
13.5913
13.3764
13.1813
13.0116
12.874
12.7763
12.7264
15.9288
15.6541
15.3771
15.1031
14.8328
14.5667
14.306
14.0521
13.8067
13.5725
13.3526
13.1514
12.9747
12.8297
12.7254
12.6714
15.9232
15.6484
15.3711
15.0964
14.8248
14.5571
14.2941
14.037
13.7876
13.548
13.3213
13.1117
12.9247
12.7683
12.6529
12.5916
15.9172
15.6421
15.3642
15.0886
14.8156
14.5458
14.28
14.0193
13.7649
13.5188
13.2835
13.0627
12.8617
12.6882
12.5547
12.4796
15.9107
15.6353
15.3568
15.0801
14.8055
14.5334
14.2645
13.9995
13.7396
13.486
13.2406
13.0062
12.7868
12.5889
12.4254
12.3225
15.9041
15.6284
15.3491
15.0712
14.7948
14.5203
14.2481
13.9787
13.7127
13.451
13.1947
12.9449
12.7034
12.473
12.2609
12.0939
15.946
15.6682
15.3907
15.1178
14.8498
14.5873
14.3315
14.0841
13.8472
13.6237
13.4171
13.2318
13.0729
12.9464
12.8582
12.8136
15.941
15.6655
15.3887
15.1158
14.8475
14.5846
14.3282
14.08
13.8421
13.6172
13.409
13.2218
13.0609
12.9322
12.8423
12.7967
15.9363
15.6615
15.3849
15.112
14.8431
14.5793
14.3217
14.0718
13.8317
13.6041
13.3925
13.2013
13.0359
12.9027
12.8089
12.7611
15.9312
15.6566
15.3799
15.1064
14.8367
14.5716
14.3121
14.0597
13.8164
13.5847
13.3679
13.1704
12.9978
12.8569
12.7562
12.7042
15.9255
15.6508
15.3738
15.0995
14.8286
14.5617
14.2998
14.0443
13.7967
13.5595
13.3357
13.1293
12.9461
12.7934
12.6813
12.6218
15.9193
15.6444
15.3668
15.0916
14.8192
14.5502
14.2854
14.026
13.7733
13.5293
13.2966
13.0788
12.881
12.7108
12.58
12.5065
15.9128
15.6375
15.3592
15.0829
14.8088
14.5375
14.2695
14.0057
13.7472
13.4955
13.2523
13.0204
12.8037
12.6085
12.447
12.3452
15.9061
15.6305
15.3514
15.0738
14.7979
14.5241
14.2527
13.9843
13.7196
13.4595
13.2049
12.9572
12.7178
12.4893
12.2784
12.1116
15.9473
15.6695
15.3922
15.1196
14.8519
14.5899
14.3348
14.0883
13.8526
13.6305
13.4256
13.2423
13.0856
12.9612
12.8748
12.8313
15.9423
15.6669
15.3902
15.1176
14.8497
14.5872
14.3315
14.0842
13.8474
13.6239
13.4174
13.2321
13.0733
12.9469
12.8587
12.8141
15.9376
15.6629
15.3864
15.1137
14.8452
14.5819
14.3249
14.0758
13.8368
13.6106
13.4006
13.2113
13.048
12.9169
12.8247
12.7779
15.9324
15.6579
15.3813
15.1081
14.8387
14.574
14.3152
14.0636
13.8213
13.5909
13.3756
13.1799
13.0092
12.8703
12.7711
12.7201
15.9267
15.6521
15.3751
15.1011
14.8305
14.5641
14.3028
14.0479
13.8013
13.5653
13.3428
13.1381
12.9567
12.8057
12.6951
12.6364
15.9205
15.6456
15.3681
15.0931
14.821
14.5524
14.2882
14.0294
13.7776
13.5347
13.3032
13.0868
12.8905
12.7218
12.5923
12.5194
15.9139
15.6387
15.3605
15.0843
14.8105
14.5395
14.272
14.0089
13.7511
13.5003
13.2582
13.0276
12.8121
12.6181
12.4576
12.3562
15.9071
15.6315
15.3526
15.0752
14.7995
14.526
14.255
13.9871
13.7231
13.4637
13.2101
12.9633
12.7249
12.4973
12.287
12.1201
15.8925
15.6067
15.3188
15.0316
14.7441
14.4555
14.1654
13.8732
13.5779
13.2787
12.9745
12.6641
12.346
12.0193
11.6833
11.3382
15.8881
15.6047
15.3175
15.0305
14.743
14.4544
14.1643
13.8719
13.5765
13.2772
12.9729
12.6624
12.3444
12.0178
11.682
11.3372
15.8844
15.6019
15.3152
15.0284
14.7409
14.4522
14.1619
13.8693
13.5736
13.2741
12.9696
12.659
12.3411
12.0147
11.6793
11.3352
15.8809
15.5987
15.3123
15.0255
14.7379
14.4491
14.1584
13.8655
13.5695
13.2696
12.9649
12.6541
12.3362
12.0101
11.6753
11.3322
15.8773
15.5952
15.3088
15.022
14.7342
14.4451
14.154
13.8606
13.5642
13.2639
12.9587
12.6478
12.3299
12.0042
11.6702
11.3283
15.8736
15.5914
15.305
15.018
14.73
14.4404
14.1489
13.855
13.5579
13.2571
12.9515
12.6403
12.3225
11.9972
11.6642
11.3236
15.8697
15.5875
15.3009
15.0137
14.7253
14.4353
14.1432
13.8487
13.551
13.2496
12.9435
12.632
12.3142
11.9895
11.6574
11.3185
15.8658
15.5835
15.2968
15.0093
14.7205
14.4299
14.1373
13.8421
13.5437
13.2416
12.9351
12.6233
12.3055
11.9812
11.6502
11.313
15.89
15.6066
15.3197
15.033
14.7459
14.4578
14.1683
13.8767
13.5823
13.2841
12.9809
12.6715
12.3543
12.0279
11.6914
11.3449
15.8855
15.6046
15.3183
15.0319
14.7448
14.4567
14.1671
13.8754
13.5808
13.2824
12.9792
12.6697
12.3525
12.0262
11.69
11.3438
15.8819
15.6018
15.316
15.0297
14.7427
14.4544
14.1646
13.8727
13.5778
13.2792
12.9757
12.6661
12.3489
12.0229
11.6871
11.3415
15.8784
15.5986
15.313
15.0268
14.7396
14.4512
14.1611
13.8687
13.5735
13.2745
12.9707
12.6608
12.3437
12.0179
11.6827
11.3382
15.8747
15.595
15.3095
15.0232
14.7358
14.4471
14.1565
13.8637
13.568
13.2685
12.9642
12.6541
12.3369
12.0115
11.6771
11.3339
15.8709
15.5912
15.3056
15.0192
14.7315
14.4423
14.1513
13.8579
13.5615
13.2613
12.9566
12.6461
12.3289
12.0039
11.6705
11.3288
15.867
15.5872
15.3015
15.0148
14.7267
14.4371
14.1454
13.8514
13.5543
13.2535
12.9481
12.6373
12.32
11.9954
11.663
11.323
15.8631
15.5832
15.2973
15.0102
14.7218
14.4316
14.1393
13.8445
13.5467
13.2451
12.9391
12.6279
12.3105
11.9864
11.6551
11.3169
15.8902
15.6079
15.3218
15.0358
14.7495
14.4625
14.1741
13.8839
13.5912
13.295
12.9941
12.6869
12.3716
12.0462
11.7091
11.3594
15.8857
15.6058
15.3204
15.0347
14.7484
14.4613
14.1728
13.8825
13.5896
13.2932
12.9922
12.6849
12.3696
12.0443
11.7074
11.3581
15.882
15.603
15.318
15.0325
14.7462
14.4589
14.1702
13.8796
13.5864
13.2897
12.9883
12.6808
12.3655
12.0404
11.7039
11.3554
15.8784
15.5997
15.315
15.0295
14.7431
14.4555
14.1664
13.8754
13.5817
13.2845
12.9827
12.6749
12.3595
12.0346
11.6988
11.3515
15.8747
15.596
15.3114
15.0258
14.7391
14.4512
14.1617
13.8701
13.5757
13.2779
12.9755
12.6673
12.3517
12.0271
11.6921
11.3463
15.8708
15.5921
15.3074
15.0216
14.7346
14.4462
14.1561
13.8638
13.5687
13.2701
12.967
12.6582
12.3424
12.0181
11.6841
11.34
15.8668
15.588
15.3031
15.017
14.7296
14.4407
14.1499
13.8568
13.5609
13.2614
12.9575
12.6482
12.3321
12.008
11.6751
11.3329
15.8628
15.5839
15.2988
15.0123
14.7244
14.4349
14.1434
13.8495
13.5527
13.2523
12.9475
12.6375
12.3211
11.9973
11.6654
11.3254
15.8922
15.6105
15.3252
15.0402
14.755
14.4693
14.1827
13.8947
13.6046
13.3115
13.0142
12.7108
12.399
12.0759
11.7383
11.3839
15.8878
15.6084
15.3238
15.039
14.7539
14.4681
14.1813
13.8931
13.6028
13.3095
13.012
12.7085
12.3966
12.0736
11.7362
11.3823
15.884
15.6055
15.3214
15.0367
14.7515
14.4655
14.1785
13.89
13.5993
13.3055
13.0076
12.7037
12.3917
12.0688
11.7319
11.3789
15.8803
15.6021
15.3182
15.0336
14.7482
14.4619
14.1744
13.8853
13.594
13.2997
13.0011
12.6967
12.3844
12.0616
11.7254
11.3738
15.8765
15.5984
15.3144
15.0297
14.744
14.4573
14.1692
13.8795
13.5874
13.2922
12.9928
12.6877
12.375
12.0523
11.717
11.3672
15.8725
15.5943
15.3103
15.0253
14.7392
14.4519
14.1632
13.8725
13.5795
13.2833
12.9829
12.677
12.3638
12.0411
11.7067
11.359
15.8683
15.5901
15.3058
15.0205
14.7339
14.446
14.1565
13.8649
13.5708
13.2734
12.9719
12.665
12.3511
12.0284
11.695
11.3496
15.8641
15.5858
15.3013
15.0155
14.7285
14.4398
14.1494
13.8568
13.5616
13.263
12.9602
12.6522
12.3376
12.0148
11.6824
11.3395
15.8957
15.6145
15.3299
15.046
14.7622
14.4782
14.1939
13.9087
13.6222
13.3335
13.0414
12.7438
12.438
12.1195
11.7829
11.4224
15.8912
15.6123
15.3285
15.0447
14.7609
14.4769
14.1924
13.907
13.6202
13.3312
13.0388
12.741
12.435
12.1166
11.7802
11.4203
15.8874
15.6093
15.3259
15.0423
14.7584
14.4742
14.1893
13.9034
13.6162
13.3266
13.0336
12.7353
12.4289
12.1105
11.7746
11.4158
15.8836
15.6058
15.3226
15.039
14.7549
14.4702
14.1848
13.8983
13.6102
13.3198
13.0259
12.7268
12.4199
12.1014
11.7662
11.4091
15.8796
15.6019
15.3187
15.0348
14.7504
14.4652
14.1791
13.8917
13.6026
13.3111
13.016
12.7158
12.4081
12.0894
11.755
11.4001
15.8754
15.5977
15.3143
15.0302
14.7452
14.4594
14.1724
13.884
13.5937
13.3008
13.0043
12.7027
12.3939
12.0748
11.7412
11.3889
15.8711
15.5932
15.3096
15.0251
14.7396
14.453
14.165
13.8754
13.5837
13.2893
12.9912
12.688
12.3779
12.0581
11.7253
11.3757
15.8667
15.5887
15.3048
15.0198
14.7337
14.4462
14.1572
13.8664
13.5732
13.2771
12.9772
12.6723
12.3607
12.0401
11.7078
11.3612
15.9003
15.6195
15.3357
15.0529
14.7708
14.4889
14.2073
13.9257
13.6437
13.3606
13.0755
12.7864
12.49
12.1806
11.849
11.4822
15.8958
15.6173
15.3342
15.0516
14.7694
14.4874
14.2056
13.9237
13.6414
13.358
13.0724
12.783
12.4863
12.1768
11.8454
11.4794
15.8918
15.6142
15.3315
15.0491
14.7667
14.4845
14.2022
13.9197
13.6367
13.3526
13.0662
12.776
12.4787
12.169
11.8381
11.4734
15.8879
15.6105
15.328
15.0455
14.7629
14.4801
14.1972
13.9139
13.6299
13.3446
13.0571
12.7656
12.4673
12.1572
11.8268
11.4642
15.8838
15.6064
15.3239
15.0411
14.758
14.4747
14.1909
13.9065
13.6212
13.3344
13.0452
12.7521
12.4524
12.1415
11.8117
11.4517
15.8794
15.602
15.3192
15.0361
14.7525
14.4683
14.1835
13.8978
13.6109
13.3223
13.0311
12.7358
12.4342
12.1221
11.7926
11.4358
15.8748
15.5973
15.3143
15.0307
14.7463
14.4612
14.1752
13.8881
13.5995
13.3088
13.0152
12.7175
12.4134
12.0995
11.77
11.4165
15.8702
15.5925
15.3092
15.025
14.74
14.4539
14.1666
13.8779
13.5874
13.2945
12.9984
12.6979
12.391
12.0748
11.7448
11.3945
15.9057
15.6253
15.3423
15.0609
14.7804
14.501
14.2225
13.945
13.6683
13.3922
13.116
12.8384
12.5562
12.2633
11.9464
11.5785
15.9011
15.623
15.3408
15.0595
14.779
14.4994
14.2206
13.9428
13.6657
13.3891
13.1124
12.8342
12.5516
12.2584
11.9417
11.5747
15.8971
15.6198
15.338
15.0567
14.7761
14.4961
14.2168
13.9383
13.6603
13.3828
13.105
12.8257
12.5421
12.2483
11.9319
11.5665
15.893
15.616
15.3343
15.0529
14.7719
14.4914
14.2113
13.9317
13.6525
13.3735
13.094
12.813
12.5278
12.233
11.9167
11.5538
15.8887
15.6117
15.3299
15.0482
14.7667
14.4854
14.2042
13.9233
13.6425
13.3615
13.0798
12.7963
12.5088
12.2123
11.8959
11.5361
15.8841
15.607
15.325
15.0429
14.7606
14.4783
14.196
13.9135
13.6307
13.3473
13.0628
12.7762
12.4854
12.1863
11.8691
11.5127
15.8793
15.602
15.3197
15.037
14.754
14.4706
14.1868
13.9025
13.6175
13.3314
13.0436
12.7533
12.4584
12.1554
11.8363
11.4832
15.8744
15.597
15.3142
15.031
14.7471
14.4625
14.1772
13.8909
13.6035
13.3145
13.0232
12.7287
12.429
12.121
11.7983
11.4475
15.9117
15.6316
15.3496
15.0694
14.7909
14.514
14.2389
13.9659
13.6953
13.4271
13.1616
12.8983
12.6359
12.3703
12.0895
11.7507
15.907
15.6293
15.3479
15.0679
14.7893
14.5122
14.2369
13.9635
13.6923
13.4235
13.1573
12.8933
12.6302
12.3641
12.0831
11.7452
15.9029
15.626
15.345
15.065
14.7862
14.5087
14.2326
13.9584
13.6862
13.4162
13.1486
12.883
12.6185
12.3512
12.07
11.7337
15.8987
15.622
15.3411
15.061
14.7817
14.5035
14.2265
13.951
13.6773
13.4054
13.1356
12.8676
12.6006
12.3314
12.0495
11.7155
15.8941
15.6175
15.3364
15.0559
14.776
14.4969
14.2187
13.9416
13.6658
13.3914
13.1187
12.8474
12.5768
12.3043
12.0209
11.6896
15.8893
15.6125
15.3312
15.0502
14.7695
14.4892
14.2095
13.9305
13.6522
13.3748
13.0984
12.8226
12.5471
12.2698
11.9831
11.6543
15.8842
15.6073
15.3256
15.0439
14.7623
14.4807
14.1993
13.9181
13.6371
13.3562
13.0754
12.7943
12.5124
12.2278
11.9349
11.6069
15.879
15.6019
15.3198
15.0374
14.7547
14.4718
14.1886
13.9051
13.6211
13.3365
13.0509
12.7638
12.4741
12.1799
11.8761
11.5436
15.8786
15.6015
15.3194
15.037
14.7544
14.4716
14.1884
13.9049
13.621
13.3364
13.0508
12.7637
12.4741
12.1799
11.8761
11.5436
15.8735
15.5962
15.3135
15.0303
14.7465
14.4621
14.1768
13.8907
13.6033
13.3143
13.0231
12.7286
12.4289
12.121
11.7983
11.4475
15.869
15.5914
15.3082
15.0242
14.7392
14.4532
14.1661
13.8775
13.5871
13.2942
12.9982
12.6977
12.3909
12.0748
11.7447
11.3944
15.8653
15.5874
15.3036
15.0187
14.7327
14.4454
14.1566
13.8659
13.5728
13.2768
12.977
12.6721
12.3605
12.04
11.7077
11.3611
15.8625
15.5843
15.2999
15.0143
14.7274
14.4389
14.1487
13.8562
13.5611
13.2626
12.9599
12.652
12.3374
12.0147
11.6823
11.3394
15.861
15.5823
15.2972
15.011
14.7233
14.4339
14.1425
13.8488
13.5521
13.2518
12.9472
12.6372
12.3209
11.9972
11.6653
11.3252
15.8613
15.5815
15.2957
15.0088
14.7205
14.4305
14.1384
13.8438
13.5461
13.2447
12.9388
12.6276
12.3103
11.9862
11.6549
11.3168
15.864
15.5818
15.2951
15.0078
14.7192
14.4289
14.1364
13.8413
13.5431
13.2412
12.9347
12.623
12.3053
11.981
11.6501
11.3128
15.8832
15.6063
15.3247
15.0432
14.7616
14.4802
14.1989
13.9178
13.6369
13.3561
13.0753
12.7943
12.5123
12.2278
11.9348
11.6069
15.8778
15.6007
15.3185
15.036
14.7531
14.4699
14.1863
13.9021
13.6171
13.3311
13.0435
12.7531
12.4583
12.1554
11.8363
11.4832
15.8731
15.5956
15.3128
15.0294
14.7453
14.4604
14.1745
13.8875
13.599
13.3085
13.015
12.7173
12.4133
12.0994
11.77
11.4164
15.8691
15.5913
15.3079
15.0236
14.7383
14.4519
14.1642
13.8748
13.5832
13.2889
12.9909
12.6878
12.3777
12.058
11.7252
11.3756
15.8661
15.588
15.304
15.0188
14.7325
14.4449
14.1555
13.8641
13.5702
13.273
12.9715
12.6647
12.3509
12.0283
11.6949
11.3495
15.8645
15.5859
15.3011
15.0153
14.7281
14.4394
14.1489
13.856
13.5602
13.2609
12.9571
12.6479
12.3318
12.0079
11.6749
11.3328
15.8646
15.585
15.2994
15.0129
14.7251
14.4357
14.1444
13.8505
13.5536
13.2529
12.9477
12.6369
12.3197
11.9952
11.6628
11.3229
15.8673
15.5852
15.2988
15.0118
14.7237
14.4339
14.1421
13.8478
13.5503
13.249
12.9431
12.6317
12.314
11.9893
11.6573
11.3183
15.8875
15.6109
15.3298
15.049
14.7685
14.4884
14.2089
13.93
13.6519
13.3746
13.0982
12.8226
12.5471
12.2698
11.9831
11.6543
15.882
15.605
15.3232
15.0414
14.7594
14.4774
14.1952
13.9129
13.6302
13.347
13.0626
12.776
12.4853
12.1862
11.8691
11.5127
15.8769
15.5997
15.3172
15.0344
14.751
14.4671
14.1825
13.8971
13.6104
13.3219
13.0308
12.7356
12.4341
12.122
11.7926
11.4357
15.8727
15.5951
15.312
15.0282
14.7436
14.458
14.1713
13.8832
13.593
13.3003
13.0039
12.7025
12.3938
12.0747
11.7411
11.3888
15.8696
15.5916
15.3078
15.0232
14.7374
14.4505
14.162
13.8716
13.5788
13.2827
12.9825
12.6767
12.3635
12.0409
11.7066
11.3589
15.8678
15.5893
15.3048
15.0194
14.7327
14.4446
14.1548
13.8628
13.5679
13.2695
12.9666
12.6579
12.3422
12.0179
11.684
11.3399
15.8678
15.5883
15.303
15.0169
14.7295
14.4407
14.15
13.8568
13.5607
13.2607
12.9561
12.6458
12.3286
12.0037
11.6703
11.3286
15.8704
15.5885
15.3023
15.0157
14.728
14.4388
14.1476
13.8539
13.5571
13.2564
12.951
12.64
12.3222
11.997
11.664
11.3235
15.8915
15.6151
15.3344
15.0542
14.7747
14.4958
14.2179
13.941
13.6654
13.3912
13.1185
12.8473
12.5768
12.3043
12.0209
11.6897
15.8857
15.609
15.3275
15.0463
14.7651
14.4841
14.2033
13.9226
13.642
13.3611
13.0796
12.7962
12.5087
12.2122
11.8959
11.536
15.8805
15.6034
15.3212
15.0389
14.7562
14.4732
14.1898
13.9056
13.6206
13.3339
13.0449
12.7519
12.4522
12.1414
11.8116
11.4517
15.8761
15.5986
15.3158
15.0324
14.7484
14.4636
14.1778
13.8907
13.6019
13.3105
13.0156
12.7156
12.4079
12.0893
11.7549
11.4
15.8728
15.5949
15.3114
15.0271
14.7419
14.4556
14.1679
13.8784
13.5865
13.2915
12.9923
12.6874
12.3748
12.0522
11.7168
11.367
15.8708
15.5924
15.3082
15.0231
14.7369
14.4494
14.1602
13.8689
13.5749
13.2772
12.975
12.6669
12.3514
12.0269
11.692
11.3461
15.8707
15.5913
15.3062
15.0204
14.7335
14.4452
14.155
13.8625
13.567
13.2678
12.9637
12.6537
12.3366
12.0113
11.677
11.3338
15.8733
15.5914
15.3055
15.0192
14.7319
14.4431
14.1525
13.8594
13.5632
13.2631
12.9582
12.6474
12.3296
12.004
11.67
11.3281
15.8949
15.6187
15.3383
15.0587
14.78
14.5022
14.2255
13.9503
13.6768
13.4051
13.1354
12.8676
12.6006
12.3314
12.0496
11.7156
15.8889
15.6123
15.3312
15.0504
14.7699
14.4898
14.2101
13.9309
13.6519
13.3731
13.0938
12.8128
12.5277
12.233
11.9167
11.5538
15.8835
15.6065
15.3247
15.0427
14.7607
14.4784
14.1959
13.9129
13.6292
13.3441
13.0567
12.7654
12.4672
12.1571
11.8268
11.4642
15.8789
15.6016
15.319
15.036
14.7525
14.4683
14.1833
13.8972
13.6094
13.3192
13.0255
12.7265
12.4197
12.1013
11.7661
11.409
15.8755
15.5977
15.3144
15.0304
14.7457
14.4599
14.1729
13.8841
13.5931
13.299
13.0006
12.6964
12.3842
12.0615
11.7253
11.3737
15.8734
15.5951
15.3111
15.0262
14.7404
14.4534
14.1648
13.8741
13.5808
13.2838
12.9822
12.6745
12.3592
12.0344
11.6986
11.3513
15.8733
15.5939
15.309
15.0235
14.7369
14.449
14.1594
13.8674
13.5725
13.2737
12.9701
12.6604
12.3434
12.0177
11.6826
11.3381
15.8758
15.594
15.3082
15.0222
14.7352
14.4469
14.1567
13.8641
13.5684
13.2688
12.9643
12.6537
12.3359
12.0099
11.6751
11.332
15.8976
15.6215
15.3414
15.0623
14.7841
14.5071
14.2315
13.9576
13.6857
13.4159
13.1484
12.883
12.6185
12.3513
12.0701
11.7338
15.8914
15.615
15.3341
15.0537
14.7738
14.4944
14.2155
13.9374
13.6597
13.3824
13.1048
12.8256
12.5421
12.2484
11.9319
11.5666
15.8859
15.609
15.3274
15.0458
14.7642
14.4825
14.2007
13.9187
13.636
13.352
13.0659
12.7758
12.4786
12.169
11.8381
11.4734
15.8812
15.6039
15.3215
15.0388
14.7557
14.4721
14.1877
13.9023
13.6153
13.326
13.0332
12.735
12.4288
12.1104
11.7745
11.4158
15.8776
15.5999
15.3168
15.0331
14.7486
14.4633
14.1768
13.8887
13.5983
13.3049
13.0071
12.7034
12.3915
12.0686
11.7318
11.3788
15.8755
15.5972
15.3133
15.0287
14.7432
14.4566
14.1684
13.8783
13.5854
13.289
12.9878
12.6805
12.3652
12.0402
11.7038
11.3553
15.8752
15.596
15.3112
15.0259
14.7396
14.452
14.1628
13.8713
13.5768
13.2784
12.9752
12.6657
12.3486
12.0227
11.6869
11.3414
15.8777
15.596
15.3104
15.0245
14.7378
14.4498
14.16
13.8678
13.5725
13.2733
12.9691
12.6586
12.3408
12.0145
11.6791
11.3351
15.8995
15.6235
15.3436
15.0647
14.787
14.5106
14.2357
13.9627
13.6918
13.4233
13.1572
12.8934
12.6304
12.3643
12.0834
11.7455
15.8932
15.6168
15.3361
15.056
14.7764
14.4975
14.2193
13.9418
13.665
13.3887
13.1122
12.8342
12.5517
12.2585
11.9419
11.5748
15.8875
15.6107
15.3292
15.0479
14.7666
14.4853
14.2041
13.9226
13.6406
13.3575
13.0722
12.7828
12.4863
12.1769
11.8455
11.4794
15.8827
15.6055
15.3233
15.0408
14.7579
14.4746
14.1907
13.9057
13.6193
13.3306
13.0384
12.7408
12.4349
12.1165
11.7802
11.4203
15.8791
15.6015
15.3184
15.0349
14.7507
14.4657
14.1795
13.8918
13.6019
13.3089
13.0115
12.7082
12.3965
12.0735
11.7362
11.3823
15.8769
15.5987
15.3149
15.0305
14.7452
14.4588
14.1709
13.8811
13.5886
13.2925
12.9917
12.6845
12.3694
12.0442
11.7073
11.358
15.8766
15.5974
15.3127
15.0275
14.7415
14.4541
14.1651
13.8739
13.5797
13.2817
12.9786
12.6693
12.3522
12.0261
11.6899
11.3437
15.8791
15.5974
15.3119
15.0262
14.7396
14.4518
14.1623
13.8704
13.5754
13.2764
12.9723
12.662
12.3441
12.0176
11.6819
11.3371
15.9004
15.6245
15.3447
15.066
14.7885
14.5123
14.2378
13.9652
13.6948
13.427
13.1617
12.8986
12.6363
12.3708
12.0899
11.7512
15.8941
15.6177
15.3371
15.0571
14.7777
14.4991
14.2211
13.9441
13.6677
13.3919
13.116
12.8385
12.5564
12.2636
11.9468
11.5789
15.8883
15.6116
15.3302
15.049
14.7678
14.4868
14.2058
13.9246
13.6429
13.3602
13.0753
12.7864
12.4901
12.1808
11.8492
11.4824
15.8835
15.6064
15.3242
15.0418
14.7591
14.4759
14.1922
13.9075
13.6214
13.333
13.0411
12.7437
12.438
12.1196
11.783
11.4225
15.8798
15.6022
15.3193
15.0358
14.7518
14.4669
14.1809
13.8934
13.6037
13.3109
13.0138
12.7106
12.399
12.0759
11.7384
11.384
15.8776
15.5994
15.3157
15.0313
14.7462
14.4599
14.1722
13.8825
13.5902
13.2943
12.9936
12.6866
12.3715
12.0462
11.7091
11.3594
15.8773
15.5981
15.3135
15.0284
14.7424
14.4552
14.1663
13.8752
13.5812
13.2833
12.9804
12.6711
12.3541
12.0278
11.6914
11.3448
15.8798
15.5981
15.3126
15.027
14.7406
14.4529
14.1634
13.8717
13.5768
13.2779
12.974
12.6637
12.3458
12.0192
11.6832
11.3382
15.8621
15.5797
15.2927
15.0049
14.7156
14.4245
14.1313
13.8354
13.5364
13.2336
12.9265
12.6144
12.2966
11.9729
11.643
11.3074
15.8586
15.5761
15.2888
15.0007
14.7109
14.4193
14.1254
13.8289
13.5292
13.2258
12.9182
12.6057
12.2881
11.9648
11.636
11.302
15.8556
15.5729
15.2854
14.9968
14.7066
14.4145
14.12
13.8228
13.5225
13.2185
12.9104
12.5977
12.2801
11.9573
11.6295
11.2971
15.8531
15.5703
15.2824
14.9935
14.7029
14.4102
14.1152
13.8174
13.5165
13.212
12.9035
12.5906
12.2731
11.9507
11.6238
11.2927
15.8515
15.5684
15.2802
14.9908
14.6997
14.4066
14.1111
13.8129
13.5115
13.2065
12.8977
12.5847
12.2672
11.9452
11.619
11.2891
15.8508
15.5673
15.2786
14.9888
14.6974
14.4039
14.108
13.8093
13.5076
13.2023
12.8932
12.5801
12.2626
11.941
11.6154
11.2863
15.8516
15.5672
15.2778
14.9876
14.6958
14.402
14.1059
13.8069
13.5049
13.1994
12.8902
12.5769
12.2596
11.9382
11.613
11.2845
15.8546
15.5678
15.2776
14.987
14.6951
14.4011
14.1048
13.8058
13.5036
13.198
12.8887
12.5754
12.2581
11.9368
11.6118
11.2836
15.8593
15.5793
15.2932
15.0058
14.7168
14.426
14.1331
13.8376
13.539
13.2367
12.9301
12.6184
12.301
11.9772
11.647
11.3107
15.8558
15.5757
15.2892
15.0015
14.712
14.4207
14.1271
13.8308
13.5315
13.2285
12.9212
12.6092
12.2917
11.9684
11.6393
11.3047
15.8527
15.5724
15.2857
14.9975
14.7076
14.4157
14.1215
13.8246
13.5245
13.2208
12.913
12.6006
12.2831
11.9603
11.6322
11.2992
15.8502
15.5697
15.2827
14.9942
14.7038
14.4113
14.1165
13.819
13.5183
13.214
12.9058
12.593
12.2756
11.9532
11.6259
11.2944
15.8485
15.5678
15.2804
14.9914
14.7006
14.4077
14.1123
13.8143
13.5131
13.2083
12.8997
12.5867
12.2693
11.9472
11.6208
11.2905
15.8478
15.5667
15.2788
14.9894
14.6982
14.4048
14.1091
13.8106
13.509
13.2039
12.8949
12.5818
12.2644
11.9427
11.6169
11.2875
15.8486
15.5665
15.278
14.9881
14.6965
14.4029
14.1069
13.8081
13.5063
13.2009
12.8917
12.5786
12.2612
11.9397
11.6142
11.2855
15.8516
15.5671
15.2778
14.9876
14.6958
14.402
14.1058
13.8069
13.5049
13.1994
12.8902
12.5769
12.2596
11.9382
11.613
11.2845
15.8589
15.5799
15.2945
15.0077
14.7193
14.4291
14.1368
13.842
13.5443
13.243
12.9374
12.6266
12.3099
11.9865
11.6557
11.3177
15.8552
15.5761
15.2904
15.0032
14.7143
14.4235
14.1304
13.8348
13.5362
13.234
12.9275
12.6162
12.2992
11.976
11.6463
11.3103
15.852
15.5728
15.2868
14.9991
14.7097
14.4182
14.1245
13.8281
13.5286
13.2256
12.9184
12.6065
12.2893
11.9665
11.6378
11.3037
15.8495
15.57
15.2837
14.9956
14.7057
14.4136
14.1192
13.8221
13.5219
13.2182
12.9103
12.598
12.2807
11.9582
11.6305
11.2979
15.8477
15.568
15.2813
14.9928
14.7023
14.4098
14.1148
13.8171
13.5163
13.2119
12.9036
12.5909
12.2736
11.9514
11.6244
11.2933
15.847
15.5668
15.2796
14.9906
14.6998
14.4068
14.1114
13.8132
13.5119
13.2071
12.8984
12.5855
12.2681
11.9462
11.6199
11.2898
15.8477
15.5666
15.2787
14.9893
14.6981
14.4048
14.1091
13.8106
13.509
13.2039
12.8949
12.5818
12.2644
11.9427
11.6169
11.2875
15.8507
15.5672
15.2785
14.9887
14.6973
14.4038
14.1079
13.8093
13.5075
13.2023
12.8932
12.58
12.2626
11.941
11.6154
11.2863
15.8601
15.5816
15.2968
15.0106
14.723
14.4336
14.1423
13.8487
13.5523
13.2524
12.9484
12.6393
12.3239
12.0011
11.6696
11.3292
15.8563
15.5776
15.2926
15.0059
14.7177
14.4276
14.1354
13.8407
13.5432
13.2422
12.937
12.6269
12.3108
11.9879
11.6575
11.3194
15.8529
15.5741
15.2887
15.0016
14.7128
14.422
14.1289
13.8334
13.5348
13.2327
12.9265
12.6154
12.2988
11.976
11.6466
11.3107
15.8502
15.5712
15.2855
14.9979
14.7085
14.417
14.1232
13.8268
13.5273
13.2243
12.9172
12.6054
12.2885
11.9658
11.6374
11.3034
15.8484
15.5691
15.2829
14.9949
14.7049
14.4129
14.1184
13.8213
13.5211
13.2173
12.9095
12.5972
12.28
11.9576
11.63
11.2976
15.8476
15.5678
15.2811
14.9926
14.7022
14.4097
14.1147
13.817
13.5162
13.2119
12.9036
12.5909
12.2735
11.9513
11.6244
11.2933
15.8483
15.5676
15.2802
14.9912
14.7004
14.4075
14.1122
13.8142
13.513
13.2082
12.8996
12.5867
12.2692
11.9472
11.6208
11.2905
15.8512
15.5681
15.2799
14.9906
14.6995
14.4065
14.111
13.8127
13.5114
13.2065
12.8976
12.5846
12.2671
11.9452
11.619
11.2891
15.8624
15.5843
15.3001
15.0146
14.7278
14.4394
14.1494
13.8573
13.5626
13.2649
12.9631
12.6564
12.3432
12.0218
11.6901
11.3464
15.8584
15.5801
15.2956
15.0096
14.7221
14.4329
14.1418
13.8484
13.5523
13.253
12.9496
12.6412
12.3266
12.0045
11.6735
11.3326
15.8549
15.5764
15.2915
15.005
14.7168
14.4268
14.1347
13.8401
13.5428
13.242
12.9371
12.6273
12.3116
11.9891
11.6589
11.3207
15.8521
15.5733
15.288
15.001
14.7122
14.4214
14.1284
13.8328
13.5343
13.2323
12.9262
12.6153
12.2988
11.9762
11.6468
11.311
15.8501
15.5711
15.2853
14.9978
14.7083
14.4169
14.1231
13.8267
13.5273
13.2243
12.9172
12.6054
12.2884
11.9658
11.6374
11.3034
15.8491
15.5697
15.2834
14.9953
14.7054
14.4134
14.119
13.822
13.5218
13.2181
12.9103
12.5979
12.2806
11.9581
11.6304
11.2979
15.8498
15.5693
15.2823
14.9938
14.7035
14.4111
14.1163
13.8188
13.5181
13.2139
12.9056
12.593