/*--------------------------------*- C++ -*----------------------------------*\
| =========                 |                                                 |
| \\      /  F ield         | OpenFOAM: The Open Source CFD Toolbox           |
|  \\    /   O peration     | Version:  v1912                                 |
|   \\  /    A nd           | Website:  www.openfoam.com                      |
|    \\/     M anipulation  |                                                 |
\*---------------------------------------------------------------------------*/
FoamFile
{
    version     2.0;
    format      ascii;
    class       pointVectorField;
    location    "0.01/fluid";
    object      pointMotionU;
}
// * * * * * * * * * * * * * * * * * * * * * * * * * * * * * * * * * * * * * //

dimensions      [0 1 -1 0 0 0 0];


internalField   nonuniform List<vector> 
16859
(
(0 0 0)
(0 0 0)
(0 0 0)
(0 0 0)
(0 0 0)
(0 0 0)
(0 0 0)
(0 0 0)
(0 0 0)
(0 0 0)
(0 0 0)
(0 0 0)
(0 0 0)
(0 0 0)
(0 0 0)
(0 0 0)
(-2.61966e-21 3.71034e-20 5.17016e-21)
(0 0 0)
(-6.32978e-22 -1.29088e-22 4.01061e-22)
(-1.19182e-21 -2.43014e-22 7.78448e-22)
(-1.69432e-21 -3.45851e-22 1.1587e-21)
(-2.15289e-21 -4.40075e-22 1.56496e-21)
(-2.58215e-21 -5.2832e-22 2.02413e-21)
(-2.99945e-21 -6.14125e-22 2.5615e-21)
(-3.43669e-21 -7.0404e-22 3.20746e-21)
(-3.92945e-21 -8.04767e-22 3.97732e-21)
(-4.55007e-21 -9.25917e-22 4.88503e-21)
(-5.36484e-21 -1.05372e-21 5.8629e-21)
(-6.38715e-21 -1.1402e-21 6.65126e-21)
(-7.47725e-21 -1.05101e-21 6.65937e-21)
(-8.11085e-21 -5.44162e-22 5.03496e-21)
(-7.35572e-21 4.06355e-22 8.43039e-22)
(-4.25217e-21 1.68021e-21 -5.46567e-21)
(1.88558e-20 2.60683e-21 5.89132e-21)
(0 0 0)
(-1.2069e-21 -2.44551e-22 7.62765e-22)
(-2.27824e-21 -4.6198e-22 1.48386e-21)
(-3.24535e-21 -6.5965e-22 2.21296e-21)
(-4.12851e-21 -8.4182e-22 2.99254e-21)
(-4.95253e-21 -1.01371e-21 3.87214e-21)
(-5.76097e-21 -1.18371e-21 4.91517e-21)
(-6.60218e-21 -1.36228e-21 6.17022e-21)
(-7.55681e-21 -1.5661e-21 7.68719e-21)
(-8.75402e-21 -1.81145e-21 9.49711e-21)
(-1.03331e-20 -2.09732e-21 1.15342e-20)
(-1.2285e-20 -2.35238e-21 1.34254e-20)
(-1.42449e-20 -2.35013e-21 1.43473e-20)
(-1.52134e-20 -1.83121e-21 1.31999e-20)
(-1.38756e-20 -6.17007e-22 8.80021e-21)
(-1.00206e-20 7.93577e-22 1.05734e-21)
(7.75388e-21 -2.0106e-20 -2.06555e-20)
(0 0 0)
(-1.71647e-21 -3.44526e-22 1.08149e-21)
(-3.24798e-21 -6.53231e-22 2.10889e-21)
(-4.63696e-21 -9.36354e-22 3.15249e-21)
(-5.90256e-21 -1.19904e-21 4.26655e-21)
(-7.07965e-21 -1.44926e-21 5.5259e-21)
(-8.23335e-21 -1.69937e-21 7.02636e-21)
(-9.43492e-21 -1.96623e-21 8.84989e-21)
(-1.08073e-20 -2.2761e-21 1.1086e-20)
(-1.25556e-20 -2.66117e-21 1.38328e-20)
(-1.4883e-20 -3.15118e-21 1.70933e-20)
(-1.78101e-20 -3.73696e-21 2.05491e-20)
(-2.0797e-20 -4.36574e-21 2.3488e-20)
(-2.2382e-20 -4.92946e-21 2.506e-20)
(-2.09007e-20 -4.43249e-21 2.48414e-20)
(-1.62151e-20 3.13878e-22 2.30357e-20)
(-1.1742e-20 4.0515e-20 9.34286e-21)
(0 0 0)
(-2.17303e-21 -4.30369e-22 1.36618e-21)
(-4.11512e-21 -8.17786e-22 2.66649e-21)
(-5.88657e-21 -1.17729e-21 3.99359e-21)
(-7.49302e-21 -1.51305e-21 5.40635e-21)
(-8.98457e-21 -1.83512e-21 7.01177e-21)
(-1.04385e-20 -2.16125e-21 8.92681e-21)
(-1.19712e-20 -2.5176e-21 1.1288e-20)
(-1.37492e-20 -2.93902e-21 1.42389e-20)
(-1.6046e-20 -3.47709e-21 1.79558e-20)
(-1.9191e-20 -4.20777e-21 2.25733e-20)
(-2.33405e-20 -5.30723e-21 2.79315e-20)
(-2.80239e-20 -7.28039e-21 3.35621e-20)
(-3.18776e-20 -1.12753e-20 3.89769e-20)
(-3.26474e-20 -1.83009e-20 4.41713e-20)
(-2.76083e-20 -2.58933e-20 4.98757e-20)
(1.00661e-20 -2.64804e-20 8.12606e-20)
(0 0 0)
(-2.57871e-21 -5.01487e-22 1.61872e-21)
(-4.89367e-21 -9.56459e-22 3.16595e-21)
(-7.00855e-21 -1.38227e-21 4.74777e-21)
(-8.923e-21 -1.78294e-21 6.43388e-21)
(-1.06901e-20 -2.16986e-21 8.34721e-21)
(-1.24229e-20 -2.56862e-21 1.06513e-20)
(-1.42642e-20 -3.0126e-21 1.35139e-20)
(-1.64341e-20 -3.54641e-21 1.71453e-20)
(-1.92745e-20 -4.22815e-21 2.18054e-20)
(-2.32788e-20 -5.17152e-21 2.77647e-20)
(-2.89228e-20 -6.68803e-21 3.51156e-20)
(-3.63871e-20 -9.67543e-21 4.36492e-20)
(-4.56335e-20 -1.63943e-20 5.28045e-20)
(-5.58321e-20 -3.01766e-20 6.10508e-20)
(-6.27908e-20 -5.21604e-20 6.62133e-20)
(-5.23589e-20 -1.32263e-19 7.23168e-20)
(0 0 0)
(-2.94522e-21 -5.58768e-22 1.84575e-21)
(-5.59918e-21 -1.06936e-21 3.61612e-21)
(-8.01585e-21 -1.54961e-21 5.42103e-21)
(-1.01999e-20 -2.00376e-21 7.35009e-21)
(-1.22131e-20 -2.44671e-21 9.54055e-21)
(-1.41968e-20 -2.91101e-21 1.21868e-20)
(-1.63205e-20 -3.43654e-21 1.5494e-20)
(-1.88329e-20 -4.06845e-21 1.97096e-20)
(-2.21425e-20 -4.85894e-21 2.51831e-20)
(-2.69353e-20 -5.88314e-21 3.23312e-20)
(-3.41298e-20 -7.34982e-21 4.1541e-20)
(-4.47765e-20 -9.83719e-21 5.29732e-20)
(-6.10254e-20 -1.44934e-20 6.58672e-20)
(-8.43291e-20 -2.29213e-20 7.71545e-20)
(-1.09986e-19 -3.4958e-20 8.12557e-20)
(-1.5626e-19 -4.93829e-20 5.7471e-20)
(0 0 0)
(-3.28817e-21 -6.03037e-22 2.05605e-21)
(-6.24587e-21 -1.15558e-21 4.02289e-21)
(-8.92239e-21 -1.67566e-21 6.01848e-21)
(-1.13326e-20 -2.16907e-21 8.1481e-21)
(-1.35631e-20 -2.65648e-21 1.0576e-20)
(-1.5763e-20 -3.17514e-21 1.35051e-20)
(-1.81166e-20 -3.76738e-21 1.71578e-20)
(-2.08828e-20 -4.47266e-21 2.18131e-20)
(-2.45303e-20 -5.31367e-21 2.78757e-20)
(-2.99094e-20 -6.27324e-21 3.59047e-20)
(-3.8203e-20 -7.29044e-21 4.65485e-20)
(-5.12985e-20 -8.15093e-21 6.02977e-20)
(-7.23401e-20 -8.19692e-21 7.66793e-20)
(-1.03189e-19 -5.91118e-21 9.29274e-20)
(-1.37012e-19 8.10611e-22 1.04128e-19)
(-1.77178e-19 4.31197e-20 1.14644e-19)
(0 0 0)
(-3.60381e-21 -6.31826e-22 2.24271e-21)
(-6.83092e-21 -1.21063e-21 4.37459e-21)
(-9.72774e-21 -1.75307e-21 6.52382e-21)
(-1.23288e-20 -2.27061e-21 8.81181e-21)
(-1.47411e-20 -2.7885e-21 1.14223e-20)
(-1.71139e-20 -3.34502e-21 1.45574e-20)
(-1.96205e-20 -3.98163e-21 1.84262e-20)
(-2.25208e-20 -4.72723e-21 2.33185e-20)
(-2.63397e-20 -5.56903e-21 2.96794e-20)
(-3.1956e-20 -6.40451e-21 3.8125e-20)
(-4.06431e-20 -6.95463e-21 4.93923e-20)
(-5.45678e-20 -6.4992e-21 6.39413e-20)
(-7.63523e-20 -3.68298e-21 8.14588e-20)
(-1.07167e-19 3.5448e-21 9.99742e-20)
(-1.39448e-19 1.56549e-20 1.14982e-19)
(-1.59141e-19 4.00377e-20 1.62399e-19)
(0 0 0)
(0 0 0)
(0 0 0)
(0 0 0)
(0 0 0)
(0 0 0)
(0 0 0)
(0 0 0)
(0 0 0)
(0 0 0)
(0 0 0)
(0 0 0)
(0 0 0)
(0 0 0)
(0 0 0)
(0 0 0)
(-1.01283e-20 1.00241e-20 -1.99877e-20)
(0 0 0)
(-6.3008e-22 -1.31686e-22 3.91681e-22)
(-1.18672e-21 -2.4834e-22 7.62611e-22)
(-1.68375e-21 -3.52996e-22 1.13724e-21)
(-2.12992e-21 -4.46978e-22 1.53477e-21)
(-2.53779e-21 -5.32018e-22 1.97897e-21)
(-2.9242e-21 -6.11004e-22 2.49548e-21)
(-3.31729e-21 -6.88558e-22 3.1062e-21)
(-3.75795e-21 -7.6974e-22 3.83432e-21)
(-4.31681e-21 -8.55776e-22 4.69686e-21)
(-5.07459e-21 -9.26475e-22 5.63604e-21)
(-6.06403e-21 -9.14587e-22 6.36519e-21)
(-7.22985e-21 -6.74918e-22 6.21159e-21)
(-8.4784e-21 -1.00737e-22 4.15845e-21)
(-1.00102e-20 3.67585e-22 -1.17056e-21)
(-1.1754e-20 -4.56016e-22 -1.05092e-20)
(-7.62331e-21 -8.08419e-21 -3.20987e-20)
(0 0 0)
(-1.19997e-21 -2.49359e-22 7.4471e-22)
(-2.26279e-21 -4.71233e-22 1.45161e-21)
(-3.21363e-21 -6.71395e-22 2.16586e-21)
(-4.06838e-21 -8.52382e-22 2.92351e-21)
(-4.85046e-21 -1.01812e-21 3.77272e-21)
(-5.6006e-21 -1.17624e-21 4.77084e-21)
(-6.36814e-21 -1.33561e-21 5.96909e-21)
(-7.22903e-21 -1.50671e-21 7.41779e-21)
(-8.31485e-21 -1.69618e-21 9.16591e-21)
(-9.75918e-21 -1.88038e-21 1.11486e-20)
(-1.15736e-20 -1.95751e-21 1.29527e-20)
(-1.34983e-20 -1.69989e-21 1.36936e-20)
(-1.49618e-20 -8.82127e-22 1.22647e-20)
(-1.58494e-20 3.6011e-22 8.10467e-21)
(-1.67166e-20 1.35641e-21 1.83443e-21)
(-2.10251e-20 -1.54194e-20 -1.04283e-20)
(0 0 0)
(-1.704e-21 -3.51069e-22 1.05636e-21)
(-3.21818e-21 -6.65295e-22 2.06159e-21)
(-4.57689e-21 -9.50937e-22 3.0781e-21)
(-5.79844e-21 -1.21154e-21 4.15631e-21)
(-6.91852e-21 -1.45464e-21 5.37208e-21)
(-7.99987e-21 -1.69222e-21 6.81697e-21)
(-9.10919e-21 -1.9387e-21 8.57735e-21)
(-1.0363e-20 -2.21304e-21 1.07491e-20)
(-1.19423e-20 -2.533e-21 1.34357e-20)
(-1.40343e-20 -2.90054e-21 1.66462e-20)
(-1.66449e-20 -3.2721e-21 2.00406e-20)
(-1.92744e-20 -3.59054e-21 2.2867e-20)
(-2.07771e-20 -3.9415e-21 2.43402e-20)
(-2.01472e-20 -3.60828e-21 2.46618e-20)
(-1.7632e-20 9.28851e-22 2.47848e-20)
(-2.78297e-20 2.72724e-20 2.40743e-20)
(0 0 0)
(-2.1554e-21 -4.38679e-22 1.33507e-21)
(-4.0702e-21 -8.32425e-22 2.60444e-21)
(-5.79782e-21 -1.19439e-21 3.89343e-21)
(-7.34837e-21 -1.52837e-21 5.26258e-21)
(-8.77221e-21 -1.84486e-21 6.81322e-21)
(-1.0145e-20 -2.16122e-21 8.67581e-21)
(-1.15706e-20 -2.50014e-21 1.09794e-20)
(-1.31985e-20 -2.88927e-21 1.38743e-20)
(-1.52657e-20 -3.36345e-21 1.75502e-20)
(-1.80518e-20 -3.97076e-21 2.21441e-20)
(-2.16629e-20 -4.84445e-21 2.75177e-20)
(-2.56575e-20 -6.54304e-21 3.31973e-20)
(-2.87914e-20 -1.05426e-20 3.86083e-20)
(-2.88425e-20 -1.82962e-20 4.33065e-20)
(-2.26085e-20 -2.73393e-20 4.71322e-20)
(-5.35919e-22 -2.37365e-20 5.57683e-20)
(0 0 0)
(-2.5566e-21 -5.11578e-22 1.58254e-21)
(-4.83495e-21 -9.73624e-22 3.09156e-21)
(-6.89443e-21 -1.40242e-21 4.62686e-21)
(-8.74266e-21 -1.80296e-21 6.26243e-21)
(-1.04334e-20 -2.18773e-21 8.1242e-21)
(-1.20682e-20 -2.58092e-21 1.03749e-20)
(-1.37808e-20 -3.01309e-21 1.31877e-20)
(-1.57595e-20 -3.52075e-21 1.67715e-20)
(-1.8305e-20 -4.15111e-21 2.14085e-20)
(-2.18314e-20 -4.98829e-21 2.73973e-20)
(-2.67387e-20 -6.30769e-21 3.48903e-20)
(-3.32322e-20 -9.11782e-21 4.37827e-20)
(-4.13508e-20 -1.58778e-20 5.34871e-20)
(-5.00972e-20 -3.05908e-20 6.18756e-20)
(-5.50021e-20 -5.49383e-20 6.57189e-20)
(-4.68726e-20 -1.08369e-19 6.50815e-20)
(0 0 0)
(-2.91712e-21 -5.70024e-22 1.805e-21)
(-5.52485e-21 -1.08826e-21 3.53004e-21)
(-7.87894e-21 -1.57273e-21 5.28578e-21)
(-9.98951e-21 -2.02993e-21 7.16108e-21)
(-1.19125e-20 -2.47512e-21 9.30318e-21)
(-1.37752e-20 -2.93854e-21 1.18975e-20)
(-1.5736e-20 -3.45812e-21 1.51506e-20)
(-1.80157e-20 -4.07476e-21 1.93219e-20)
(-2.09752e-20 -4.83385e-21 2.47827e-20)
(-2.5185e-20 -5.80243e-21 3.20053e-20)
(-3.14326e-20 -7.17282e-21 4.14891e-20)
(-4.09061e-20 -9.58284e-21 5.36472e-20)
(-5.55477e-20 -1.44761e-20 6.80633e-20)
(-7.70312e-20 -2.38826e-20 8.18183e-20)
(-1.01319e-19 -3.8039e-20 8.91534e-20)
(-1.3042e-19 -5.8335e-20 8.57814e-20)
(0 0 0)
(-3.24922e-21 -6.14196e-22 2.00712e-21)
(-6.15242e-21 -1.17483e-21 3.92289e-21)
(-8.76384e-21 -1.70153e-21 5.86906e-21)
(-1.10947e-20 -2.20162e-21 7.94864e-21)
(-1.32168e-20 -2.69516e-21 1.03261e-20)
(-1.5269e-20 -3.21771e-21 1.31987e-20)
(-1.74273e-20 -3.81075e-21 1.67864e-20)
(-1.99317e-20 -4.51394e-21 2.1387e-20)
(-2.31862e-20 -5.35481e-21 2.74412e-20)
(-2.78899e-20 -6.32792e-21 3.55748e-20)
(-3.5136e-20 -7.38443e-21 4.65949e-20)
(-4.67207e-20 -8.43082e-21 6.13245e-20)
(-6.57173e-20 -9.08228e-21 7.98565e-20)
(-9.44152e-20 -8.13064e-21 9.97783e-20)
(-1.26704e-19 -3.58591e-21 1.15475e-19)
(-1.51221e-19 9.62571e-21 1.26137e-19)
(0 0 0)
(-3.5522e-21 -6.4215e-22 2.18472e-21)
(-6.72002e-21 -1.23019e-21 4.26307e-21)
(-9.54859e-21 -1.78203e-21 6.35923e-21)
(-1.20621e-20 -2.30913e-21 8.59846e-21)
(-1.4349e-20 -2.83635e-21 1.11568e-20)
(-1.65524e-20 -3.40151e-21 1.4225e-20)
(-1.88447e-20 -4.04688e-21 1.80215e-20)
(-2.14726e-20 -4.80675e-21 2.28601e-20)
(-2.48725e-20 -5.68185e-21 2.92107e-20)
(-2.97916e-20 -6.5958e-21 3.77896e-20)
(-3.73939e-20 -7.31495e-21 4.94831e-20)
(-4.95273e-20 -7.30257e-21 6.50602e-20)
(-6.90929e-20 -5.38889e-21 8.47428e-20)
(-9.76038e-20 2.55038e-22 1.06556e-19)
(-1.27909e-19 1.01669e-20 1.24571e-19)
(-1.46128e-19 1.77205e-20 1.40348e-19)
(0 0 0)
(0 0 0)
(0 0 0)
(0 0 0)
(0 0 0)
(0 0 0)
(0 0 0)
(0 0 0)
(0 0 0)
(0 0 0)
(0 0 0)
(0 0 0)
(0 0 0)
(0 0 0)
(0 0 0)
(0 0 0)
(-2.787e-20 -1.54712e-20 -2.44398e-20)
(0 0 0)
(-6.27285e-22 -1.33783e-22 3.69672e-22)
(-1.1799e-21 -2.52176e-22 7.21577e-22)
(-1.669e-21 -3.57477e-22 1.07742e-21)
(-2.10017e-21 -4.49949e-22 1.45329e-21)
(-2.48479e-21 -5.30724e-22 1.87007e-21)
(-2.84139e-21 -6.02335e-22 2.35003e-21)
(-3.19557e-21 -6.67332e-22 2.91514e-21)
(-3.58986e-21 -7.26002e-22 3.58506e-21)
(-4.09086e-21 -7.68381e-22 4.38563e-21)
(-4.78044e-21 -7.53136e-22 5.25894e-21)
(-5.72559e-21 -5.74657e-22 5.9032e-21)
(-7.03319e-21 -3.76886e-23 5.66921e-21)
(-9.31753e-21 1.01344e-21 3.56601e-21)
(-1.44579e-20 2.30049e-21 -1.31751e-21)
(-2.4432e-20 2.79429e-21 -9.66663e-21)
(-4.35477e-20 -2.73143e-21 -3.19164e-20)
(0 0 0)
(-1.19479e-21 -2.53522e-22 7.04427e-22)
(-2.24918e-21 -4.78698e-22 1.37525e-21)
(-3.18267e-21 -6.79793e-22 2.0525e-21)
(-4.00776e-21 -8.58034e-22 2.76781e-21)
(-4.7492e-21 -1.01685e-21 3.56339e-21)
(-5.44552e-21 -1.16266e-21 4.49466e-21)
(-6.14504e-21 -1.30133e-21 5.60935e-21)
(-6.92218e-21 -1.43471e-21 6.96234e-21)
(-7.89297e-21 -1.54868e-21 8.6094e-21)
(-9.17826e-21 -1.57991e-21 1.04769e-20)
(-1.08046e-20 -1.3654e-21 1.2127e-20)
(-1.26657e-20 -6.09314e-22 1.26793e-20)
(-1.49138e-20 9.67367e-22 1.1334e-20)
(-1.84827e-20 3.57695e-21 8.6155e-21)
(-2.4159e-20 7.64314e-21 7.0196e-21)
(-3.67078e-20 1.98524e-20 2.25996e-20)
(0 0 0)
(-1.6969e-21 -3.57225e-22 1.00147e-21)
(-3.19656e-21 -6.75845e-22 1.95477e-21)
(-4.52665e-21 -9.62445e-22 2.91659e-21)
(-5.70639e-21 -1.21989e-21 3.9329e-21)
(-6.77441e-21 -1.45523e-21 5.07341e-21)
(-7.78738e-21 -1.67943e-21 6.42978e-21)
(-8.81192e-21 -1.90312e-21 8.08639e-21)
(-9.95084e-21 -2.13355e-21 1.01447e-20)
(-1.13533e-20 -2.36295e-21 1.27204e-20)
(-1.31568e-20 -2.54092e-21 1.57921e-20)
(-1.5322e-20 -2.55904e-21 1.90023e-20)
(-1.74514e-20 -2.33886e-21 2.15772e-20)
(-1.89469e-20 -2.10579e-21 2.29273e-20)
(-1.93693e-20 -2.08492e-21 2.35263e-20)
(-1.85754e-20 -8.67931e-22 2.53057e-20)
(-2.62339e-20 1.02714e-20 4.38366e-20)
(0 0 0)
(-2.14419e-21 -4.46248e-22 1.26703e-21)
(-4.03968e-21 -8.4566e-22 2.47182e-21)
(-5.7258e-21 -1.20841e-21 3.68782e-21)
(-7.22561e-21 -1.53953e-21 4.97575e-21)
(-8.58831e-21 -1.84967e-21 6.4387e-21)
(-9.88575e-21 -2.15495e-21 8.19854e-21)
(-1.12083e-20 -2.47275e-21 1.03884e-20)
(-1.26843e-20 -2.81891e-21 1.31696e-20)
(-1.44965e-20 -3.19989e-21 1.67296e-20)
(-1.68251e-20 -3.60728e-21 2.11911e-20)
(-1.96657e-20 -4.09093e-21 2.64282e-20)
(-2.26196e-20 -5.05656e-21 3.19651e-20)
(-2.49584e-20 -7.8504e-21 3.70438e-20)
(-2.5411e-20 -1.4309e-20 4.02658e-20)
(-2.20438e-20 -2.34873e-20 3.94771e-20)
(-7.23669e-21 -2.68465e-20 2.1876e-20)
(0 0 0)
(-2.54317e-21 -5.20743e-22 1.50426e-21)
(-4.79451e-21 -9.891e-22 2.93504e-21)
(-6.80195e-21 -1.41897e-21 4.38104e-21)
(-8.58936e-21 -1.81761e-21 5.921e-21)
(-1.02111e-20 -2.19884e-21 7.68295e-21)
(-1.17562e-20 -2.58441e-21 9.82429e-21)
(-1.33401e-20 -2.99937e-21 1.2516e-20)
(-1.51196e-20 -3.46959e-21 1.59858e-20)
(-1.73206e-20 -4.01601e-21 2.05103e-20)
(-2.02108e-20 -4.66822e-21 2.63998e-20)
(-2.39926e-20 -5.59112e-21 3.38884e-20)
(-2.87772e-20 -7.45016e-21 4.3014e-20)
(-3.47649e-20 -1.20634e-20 5.32034e-20)
(-4.15797e-20 -2.18981e-20 6.20196e-20)
(-4.64368e-20 -3.65154e-20 6.46727e-20)
(-4.32928e-20 -5.80815e-20 4.81124e-20)
(0 0 0)
(-2.90007e-21 -5.80288e-22 1.71548e-21)
(-5.47239e-21 -1.1053e-21 3.34935e-21)
(-7.76737e-21 -1.59173e-21 5.00293e-21)
(-9.80814e-21 -2.04905e-21 6.77561e-21)
(-1.16514e-20 -2.49409e-21 8.8108e-21)
(-1.34037e-20 -2.95397e-21 1.12866e-20)
(-1.52035e-20 -3.46168e-21 1.44082e-20)
(-1.72354e-20 -4.051e-21 1.84524e-20)
(-1.97707e-20 -4.74959e-21 2.37986e-20)
(-2.31868e-20 -5.58743e-21 3.09672e-20)
(-2.7986e-20 -6.67273e-21 4.06097e-20)
(-3.49919e-20 -8.4149e-21 5.34075e-20)
(-4.57446e-20 -1.17731e-20 6.96036e-20)
(-6.11927e-20 -1.76376e-20 8.72826e-20)
(-7.77589e-20 -2.47778e-20 1.01206e-19)
(-9.59286e-20 -2.87003e-20 1.12906e-19)
(0 0 0)
(-3.22153e-21 -6.24181e-22 1.90233e-21)
(-6.0818e-21 -1.19207e-21 3.71516e-21)
(-8.62904e-21 -1.72202e-21 5.55178e-21)
(-1.08859e-20 -2.22534e-21 7.52508e-21)
(-1.29146e-20 -2.72251e-21 9.79023e-21)
(-1.48342e-20 -3.24573e-21 1.25299e-20)
(-1.68004e-20 -3.83376e-21 1.59695e-20)
(-1.90182e-20 -4.52419e-21 2.04234e-20)
(-2.17961e-20 -5.34072e-21 2.63583e-20)
(-2.56005e-20 -6.27727e-21 3.44765e-20)
(-3.11511e-20 -7.2966e-21 4.57212e-20)
(-3.97744e-20 -8.35222e-21 6.12762e-20)
(-5.37246e-20 -9.32312e-21 8.20183e-20)
(-7.41787e-20 -9.50463e-21 1.06618e-19)
(-9.62203e-20 -7.82971e-21 1.28848e-19)
(-1.1344e-19 -3.30665e-21 1.44409e-19)
(0 0 0)
(-3.51064e-21 -6.51135e-22 2.06376e-21)
(-6.62645e-21 -1.2463e-21 4.02639e-21)
(-9.38918e-21 -1.80381e-21 6.01069e-21)
(-1.18247e-20 -2.33717e-21 8.13834e-21)
(-1.40044e-20 -2.87096e-21 1.05721e-20)
(-1.60544e-20 -3.44138e-21 1.34952e-20)
(-1.81354e-20 -4.09021e-21 1.7131e-20)
(-2.04615e-20 -4.8548e-21 2.18107e-20)
(-2.33621e-20 -5.74799e-21 2.80572e-20)
(-2.73324e-20 -6.72529e-21 3.66329e-20)
(-3.31441e-20 -7.64489e-21 4.85247e-20)
(-4.22169e-20 -8.19647e-21 6.49146e-20)
(-5.66197e-20 -7.79236e-21 8.65092e-20)
(-7.74305e-20 -5.4491e-21 1.11776e-19)
(-9.97133e-20 -1.13858e-21 1.33318e-19)
(-1.23499e-19 -1.06924e-21 1.34618e-19)
(0 0 0)
(0 0 0)
(0 0 0)
(0 0 0)
(0 0 0)
(0 0 0)
(0 0 0)
(0 0 0)
(0 0 0)
(0 0 0)
(0 0 0)
(0 0 0)
(0 0 0)
(0 0 0)
(0 0 0)
(0 0 0)
(-2.99443e-20 -1.0986e-20 -1.52114e-21)
(0 0 0)
(-6.28025e-22 -1.36261e-22 3.37887e-22)
(-1.17832e-21 -2.56245e-22 6.60165e-22)
(-1.65994e-21 -3.61719e-22 9.86728e-22)
(-2.07676e-21 -4.52324e-22 1.33006e-21)
(-2.44042e-21 -5.28965e-22 1.70716e-21)
(-2.77023e-21 -5.93671e-22 2.14068e-21)
(-3.09102e-21 -6.46702e-22 2.64844e-21)
(-3.44231e-21 -6.82399e-22 3.25329e-21)
(-3.88491e-21 -6.77883e-22 3.97622e-21)
(-4.49544e-21 -5.67281e-22 4.76321e-21)
(-5.3808e-21 -2.08553e-22 5.32217e-21)
(-6.82395e-21 6.55747e-22 5.04454e-21)
(-9.73985e-21 2.34903e-21 3.09569e-21)
(-1.62141e-20 5.19728e-21 -1.20998e-21)
(-2.81688e-20 9.11543e-21 -7.28685e-21)
(-4.77609e-20 2.02759e-20 -7.34259e-21)
(0 0 0)
(-1.19435e-21 -2.5796e-22 6.43614e-22)
(-2.24263e-21 -4.85925e-22 1.25783e-21)
(-3.16067e-21 -6.87249e-22 1.87813e-21)
(-3.95937e-21 -8.6248e-22 2.52948e-21)
(-4.66424e-21 -1.01483e-21 3.25076e-21)
(-5.31275e-21 -1.14925e-21 4.09039e-21)
(-5.94971e-21 -1.26734e-21 5.09876e-21)
(-6.64296e-21 -1.36027e-21 6.32659e-21)
(-7.48746e-21 -1.38864e-21 7.83081e-21)
(-8.58349e-21 -1.24291e-21 9.53149e-21)
(-9.99005e-21 -6.89218e-22 1.09918e-20)
(-1.17758e-20 6.83565e-22 1.13461e-20)
(-1.42784e-20 3.36854e-21 9.62952e-21)
(-1.78359e-20 7.96822e-21 5.51686e-21)
(-2.15324e-20 1.50899e-20 1.07665e-21)
(-1.73488e-20 3.67786e-20 5.47753e-21)
(0 0 0)
(-1.69285e-21 -3.62947e-22 9.16037e-22)
(-3.18078e-21 -6.85078e-22 1.7883e-21)
(-4.48696e-21 -9.7196e-22 2.66591e-21)
(-5.63081e-21 -1.22625e-21 3.58918e-21)
(-6.6507e-21 -1.45451e-21 4.62241e-21)
(-7.59914e-21 -1.66566e-21 5.84845e-21)
(-8.53651e-21 -1.86475e-21 7.35708e-21)
(-9.54716e-21 -2.0446e-21 9.2478e-21)
(-1.07403e-20 -2.16362e-21 1.16249e-20)
(-1.21977e-20 -2.11121e-21 1.44662e-20)
(-1.38528e-20 -1.66856e-21 1.7386e-20)
(-1.54117e-20 -5.75545e-22 1.95614e-20)
(-1.64372e-20 1.01632e-21 2.00764e-20)
(-1.58719e-20 2.05874e-21 1.83253e-20)
(-1.20496e-20 9.55581e-22 1.55701e-20)
(5.63206e-21 -1.47933e-20 2.18906e-20)
(0 0 0)
(-2.13408e-21 -4.52496e-22 1.15973e-21)
(-4.0111e-21 -8.55833e-22 2.26047e-21)
(-5.66487e-21 -1.21915e-21 3.36652e-21)
(-7.12012e-21 -1.54757e-21 4.5363e-21)
(-8.42479e-21 -1.85138e-21 5.85871e-21)
(-9.64312e-21 -2.14427e-21 7.46005e-21)
(-1.08517e-20 -2.43706e-21 9.46826e-21)
(-1.21482e-20 -2.72936e-21 1.20429e-20)
(-1.36496e-20 -2.9916e-21 1.53688e-20)
(-1.54247e-20 -3.13994e-21 1.95481e-20)
(-1.73497e-20 -3.05007e-21 2.44512e-20)
(-1.9043e-20 -2.77334e-21 2.95963e-20)
(-2.00124e-20 -3.16231e-21 3.41341e-20)
(-1.95026e-20 -6.41861e-21 3.67947e-20)
(-1.70083e-20 -1.47989e-20 3.57265e-20)
(-9.86803e-21 -4.34535e-20 2.22209e-20)
(0 0 0)
(-2.52717e-21 -5.27365e-22 1.37692e-21)
(-4.75263e-21 -9.99942e-22 2.68247e-21)
(-6.71907e-21 -1.43073e-21 3.99585e-21)
(-8.45349e-21 -1.82761e-21 5.39317e-21)
(-1.00067e-20 -2.20408e-21 6.99195e-21)
(-1.14557e-20 -2.57903e-21 8.94579e-21)
(-1.28948e-20 -2.97111e-21 1.14281e-20)
(-1.44387e-20 -3.3912e-21 1.46606e-20)
(-1.62178e-20 -3.82671e-21 1.89241e-20)
(-1.83217e-20 -4.22622e-21 2.45166e-20)
(-2.06958e-20 -4.54076e-21 3.17221e-20)
(-2.32138e-20 -4.93824e-21 4.07338e-20)
(-2.59562e-20 -6.14047e-21 5.14169e-20)
(-2.91429e-20 -9.14059e-21 6.2821e-20)
(-3.30082e-20 -1.35335e-20 7.08785e-20)
(-4.83267e-20 -1.96933e-20 6.61282e-20)
(0 0 0)
(-2.87802e-21 -5.87252e-22 1.56874e-21)
(-5.41713e-21 -1.1168e-21 3.05797e-21)
(-7.66347e-21 -1.60488e-21 4.56247e-21)
(-9.64337e-21 -2.06179e-21 6.17307e-21)
(-1.14069e-20 -2.50407e-21 8.0267e-21)
(-1.30439e-20 -2.95607e-21 1.02913e-20)
(-1.46684e-20 -3.44549e-21 1.31745e-20)
(-1.64128e-20 -3.9959e-21 1.696e-20)
(-1.84283e-20 -4.611e-21 2.20265e-20)
(-2.08447e-20 -5.26133e-21 2.89008e-20)
(-2.37429e-20 -5.91613e-21 3.83219e-20)
(-2.73457e-20 -6.64177e-21 5.13415e-20)
(-3.22597e-20 -7.61454e-21 6.89729e-20)
(-3.88714e-20 -8.16351e-21 9.13806e-20)
(-4.60577e-20 -5.9851e-21 1.13392e-19)
(-5.42925e-20 1.11962e-20 1.31545e-19)
(0 0 0)
(-3.19081e-21 -6.31064e-22 1.73417e-21)
(-6.01049e-21 -1.20386e-21 3.3852e-21)
(-8.50364e-21 -1.73659e-21 5.06015e-21)
(-1.06931e-20 -2.24147e-21 6.86143e-21)
(-1.26305e-20 -2.73837e-21 8.92847e-21)
(-1.44173e-20 -3.25728e-21 1.14359e-20)
(-1.61833e-20 -3.83435e-21 1.46122e-20)
(-1.80756e-20 -4.50387e-21 1.87831e-20)
(-2.02641e-20 -5.28211e-21 2.44224e-20)
(-2.29079e-20 -6.15397e-21 3.22404e-20)
(-2.61998e-20 -7.09469e-21 4.33082e-20)
(-3.0616e-20 -8.10298e-21 5.91824e-20)
(-3.69605e-20 -9.11939e-21 8.17803e-20)
(-4.53838e-20 -9.38181e-21 1.11788e-19)
(-5.35413e-20 -7.73172e-21 1.42972e-19)
(-5.4023e-20 -2.45278e-21 1.73295e-19)
(0 0 0)
(-3.46923e-21 -6.5756e-22 1.87427e-21)
(-6.53764e-21 -1.25797e-21 3.66082e-21)
(-9.24238e-21 -1.81962e-21 5.47249e-21)
(-1.16047e-20 -2.35669e-21 7.42143e-21)
(-1.36829e-20 -2.89295e-21 9.64487e-21)
(-1.55868e-20 -3.46345e-21 1.23144e-20)
(-1.7452e-20 -4.11046e-21 1.56684e-20)
(-1.94331e-20 -4.8749e-21 2.00545e-20)
(-2.17063e-20 -5.78018e-21 2.59917e-20)
(-2.44351e-20 -6.82403e-21 3.42722e-20)
(-2.78634e-20 -7.98984e-21 4.59869e-20)
(-3.25336e-20 -9.2676e-21 6.25687e-20)
(-3.9272e-20 -1.0582e-20 8.58113e-20)
(-4.8498e-20 -1.15445e-20 1.15758e-19)
(-5.82766e-20 -1.19237e-20 1.45254e-19)
(-6.93597e-20 -1.47666e-20 1.81992e-19)
(0 0 0)
(0 0 0)
(0 0 0)
(0 0 0)
(0 0 0)
(0 0 0)
(0 0 0)
(0 0 0)
(0 0 0)
(0 0 0)
(0 0 0)
(0 0 0)
(0 0 0)
(0 0 0)
(0 0 0)
(0 0 0)
(-2.53687e-20 -1.51912e-20 1.41709e-21)
(0 0 0)
(-6.28818e-22 -1.38261e-22 2.93232e-22)
(-1.17659e-21 -2.59315e-22 5.7409e-22)
(-1.65056e-21 -3.64466e-22 8.59062e-22)
(-2.05443e-21 -4.53229e-22 1.15789e-21)
(-2.40036e-21 -5.2641e-22 1.4852e-21)
(-2.70766e-21 -5.85238e-22 1.85897e-21)
(-3.00029e-21 -6.27667e-22 2.29987e-21)
(-3.31479e-21 -6.42051e-22 2.82203e-21)
(-3.70073e-21 -5.91924e-22 3.4485e-21)
(-4.22687e-21 -3.91541e-22 4.12677e-21)
(-5.02332e-21 1.25065e-22 4.58567e-21)
(-6.47892e-21 1.23175e-21 4.27517e-21)
(-9.59573e-21 3.27029e-21 2.28196e-21)
(-1.61469e-20 6.37227e-21 -2.55992e-21)
(-2.75146e-20 9.561e-21 -9.78068e-21)
(-4.55446e-20 1.08857e-20 -2.19289e-20)
(0 0 0)
(-1.19356e-21 -2.61375e-22 5.59342e-22)
(-2.23538e-21 -4.91097e-22 1.09416e-21)
(-3.13912e-21 -6.92009e-22 1.63404e-21)
(-3.9152e-21 -8.64486e-22 2.20016e-21)
(-4.5889e-21 -1.01131e-21 2.82257e-21)
(-5.19587e-21 -1.13577e-21 3.54719e-21)
(-5.77896e-21 -1.23508e-21 4.42125e-21)
(-6.39421e-21 -1.28842e-21 5.48921e-21)
(-7.11379e-21 -1.23085e-21 6.80355e-21)
(-8.01182e-21 -9.06798e-22 8.27982e-21)
(-9.17378e-21 -1.93765e-24 9.49307e-21)
(-1.08292e-20 2.02904e-21 9.57005e-21)
(-1.33714e-20 5.96967e-21 6.91902e-21)
(-1.68296e-20 1.24386e-20 -3.74761e-22)
(-1.9888e-20 2.11377e-20 -1.2073e-20)
(-1.66399e-20 4.22801e-20 -3.94771e-20)
(0 0 0)
(-1.68717e-21 -3.66893e-22 7.96957e-22)
(-3.1629e-21 -6.9101e-22 1.55535e-21)
(-4.4493e-21 -9.77795e-22 2.31756e-21)
(-5.56305e-21 -1.22928e-21 3.11698e-21)
(-6.54103e-21 -1.45134e-21 4.0049e-21)
(-7.43192e-21 -1.65067e-21 5.06622e-21)
(-8.28892e-21 -1.82604e-21 6.3791e-21)
(-9.1748e-21 -1.95395e-21 8.03394e-21)
(-1.01544e-20 -1.95727e-21 1.01321e-20)
(-1.12512e-20 -1.64898e-21 1.26162e-20)
(-1.23777e-20 -6.47235e-22 1.51034e-20)
(-1.33694e-20 1.65063e-21 1.67112e-20)
(-1.3847e-20 5.73523e-21 1.57256e-20)
(-1.27099e-20 1.09909e-20 1.05635e-20)
(-8.56605e-21 1.48804e-20 1.29793e-21)
(4.92587e-21 8.69756e-21 -1.89669e-20)
(0 0 0)
(-2.12072e-21 -4.56201e-22 1.0097e-21)
(-3.97915e-21 -8.61631e-22 1.9659e-21)
(-5.60685e-21 -1.22514e-21 2.92412e-21)
(-7.02576e-21 -1.5513e-21 3.93148e-21)
(-8.27842e-21 -1.84932e-21 5.06908e-21)
(-9.42372e-21 -2.13016e-21 6.45574e-21)
(-1.05227e-20 -2.39729e-21 8.21046e-21)
(-1.16386e-20 -2.6323e-21 1.0484e-20)
(-1.28189e-20 -2.76404e-21 1.34445e-20)
(-1.40114e-20 -2.60848e-21 1.71483e-20)
(-1.4971e-20 -1.79841e-21 2.14693e-20)
(-1.52797e-20 1.91196e-22 2.58642e-20)
(-1.43852e-20 3.55039e-21 2.94363e-20)
(-1.1718e-20 7.11546e-21 3.17972e-20)
(-7.96564e-21 7.69509e-21 3.246e-20)
(-1.07098e-20 -6.09032e-21 3.12255e-20)
(0 0 0)
(-2.50628e-21 -5.30778e-22 1.19954e-21)
(-4.70548e-21 -1.00527e-21 2.33239e-21)
(-6.64022e-21 -1.43679e-21 3.468e-21)
(-8.33171e-21 -1.83215e-21 4.6706e-21)
(-9.82317e-21 -2.2037e-21 6.0483e-21)
(-1.11812e-20 -2.56743e-21 7.74306e-21)
(-1.24798e-20 -2.93502e-21 9.9222e-21)
(-1.37845e-20 -3.3005e-21 1.28005e-20)
(-1.51245e-20 -3.61078e-21 1.66248e-20)
(-1.63874e-20 -3.71198e-21 2.16523e-20)
(-1.72292e-20 -3.30075e-21 2.81804e-20)
(-1.71553e-20 -1.92882e-21 3.64331e-20)
(-1.56956e-20 8.37163e-22 4.69183e-20)
(-1.28919e-20 5.15276e-21 6.04381e-20)
(-1.06521e-20 1.04392e-20 7.4759e-20)
(-1.89202e-20 2.02887e-20 9.96483e-20)
(0 0 0)
(-2.85121e-21 -5.90723e-22 1.36434e-21)
(-5.35776e-21 -1.12234e-21 2.65628e-21)
(-7.56708e-21 -1.61167e-21 3.9588e-21)
(-9.49652e-21 -2.06791e-21 5.35249e-21)
(-1.11875e-20 -2.50646e-21 6.95433e-21)
(-1.27157e-20 -2.94913e-21 8.9194e-21)
(-1.41708e-20 -3.41848e-21 1.14591e-20)
(-1.56261e-20 -3.92572e-21 1.48429e-20)
(-1.70956e-20 -4.44448e-21 1.94109e-20)
(-1.84243e-20 -4.87636e-21 2.56649e-20)
(-1.92118e-20 -5.04048e-21 3.43656e-20)
(-1.89242e-20 -4.68419e-21 4.66178e-20)
(-1.69451e-20 -3.40389e-21 6.43887e-20)
(-1.30482e-20 -2.62446e-22 8.89023e-20)
(-8.6192e-21 5.83938e-21 1.14962e-19)
(-2.41567e-21 2.66876e-20 1.3832e-19)
(0 0 0)
(-3.15852e-21 -6.34835e-22 1.50268e-21)
(-5.9417e-21 -1.21035e-21 2.93571e-21)
(-8.39137e-21 -1.74478e-21 4.39318e-21)
(-1.05237e-20 -2.24999e-21 5.96278e-21)
(-1.23782e-20 -2.74476e-21 7.75103e-21)
(-1.40408e-20 -3.25748e-21 9.92096e-21)
(-1.56153e-20 -3.8218e-21 1.27156e-20)
(-1.71812e-20 -4.46655e-21 1.64483e-20)
(-1.8741e-20 -5.19755e-21 2.15634e-20)
(-2.01109e-20 -5.99251e-21 2.87507e-20)
(-2.08767e-20 -6.84496e-21 3.90311e-20)
(-2.04511e-20 -7.86247e-21 5.41742e-20)
(-1.81119e-20 -9.22571e-21 7.69549e-20)
(-1.32813e-20 -1.09944e-20 1.08661e-19)
(-6.99073e-21 -1.28943e-20 1.42515e-19)
(1.88131e-21 -1.6674e-20 1.69366e-19)
(0 0 0)
(-3.43118e-21 -6.61598e-22 1.61999e-21)
(-6.45866e-21 -1.26516e-21 3.17066e-21)
(-9.11416e-21 -1.82915e-21 4.75387e-21)
(-1.1412e-20 -2.36761e-21 6.45708e-21)
(-1.33989e-20 -2.90382e-21 8.3773e-21)
(-1.51692e-20 -3.47242e-21 1.06828e-20)
(-1.68303e-20 -4.11571e-21 1.36295e-20)
(-1.84628e-20 -4.87648e-21 1.75552e-20)
(-2.00585e-20 -5.78879e-21 2.29742e-20)
(-2.14212e-20 -6.89717e-21 3.06111e-20)
(-2.21558e-20 -8.33531e-21 4.14747e-20)
(-2.17458e-20 -1.0446e-20 5.73826e-20)
(-1.96946e-20 -1.3764e-20 8.06753e-20)
(-1.58656e-20 -1.88261e-20 1.12196e-19)
(-1.16807e-20 -2.53209e-20 1.44771e-19)
(-4.32475e-21 -4.10091e-20 1.8439e-19)
(0 0 0)
(0 0 0)
(0 0 0)
(0 0 0)
(0 0 0)
(0 0 0)
(0 0 0)
(0 0 0)
(0 0 0)
(0 0 0)
(0 0 0)
(0 0 0)
(0 0 0)
(0 0 0)
(0 0 0)
(0 0 0)
(-2.44238e-20 -2.34319e-20 2.34622e-21)
(0 0 0)
(-6.27676e-22 -1.39377e-22 2.37821e-22)
(-1.17125e-21 -2.60697e-22 4.651e-22)
(-1.63743e-21 -3.65157e-22 6.95084e-22)
(-2.03026e-21 -4.52311e-22 9.37418e-22)
(-2.36198e-21 -5.2277e-22 1.20317e-21)
(-2.65155e-21 -5.76995e-22 1.5075e-21)
(-2.92335e-21 -6.1079e-22 1.86886e-21)
(-3.20712e-21 -6.05998e-22 2.29675e-21)
(-3.54453e-21 -5.15264e-22 2.8157e-21)
(-3.99119e-21 -2.34805e-22 3.36535e-21)
(-4.68968e-21 4.10932e-22 3.7231e-21)
(-6.06789e-21 1.65505e-21 3.45076e-21)
(-9.13193e-21 3.64464e-21 1.83163e-21)
(-1.58273e-20 5.64559e-21 -1.4867e-21)
(-2.75986e-20 5.23788e-21 -5.55582e-21)
(-4.48646e-20 -4.31692e-21 -9.79829e-21)
(0 0 0)
(-1.1895e-21 -2.6313e-22 4.54052e-22)
(-2.22269e-21 -4.93285e-22 8.8628e-22)
(-3.1134e-21 -6.93391e-22 1.32191e-21)
(-3.87078e-21 -8.63502e-22 1.77988e-21)
(-4.51906e-21 -1.0059e-21 2.28382e-21)
(-5.09401e-21 -1.12243e-21 2.8787e-21)
(-5.63385e-21 -1.20544e-21 3.59641e-21)
(-6.18451e-21 -1.22313e-21 4.48258e-21)
(-6.79334e-21 -1.08595e-21 5.57244e-21)
(-7.51094e-21 -5.97069e-22 6.76729e-21)
(-8.44163e-21 6.21747e-22 7.70286e-21)
(-9.93569e-21 3.2184e-21 7.54456e-21)
(-1.2674e-20 8.01379e-21 4.76237e-21)
(-1.74147e-20 1.54924e-20 -2.02773e-21)
(-2.36592e-20 2.4663e-20 -1.23846e-20)
(-2.85171e-20 4.3102e-20 -2.76607e-20)
(0 0 0)
(-1.67728e-21 -3.6856e-22 6.47217e-22)
(-3.1394e-21 -6.93133e-22 1.25963e-21)
(-4.40882e-21 -9.79327e-22 1.87396e-21)
(-5.49895e-21 -1.22855e-21 2.51896e-21)
(-6.44331e-21 -1.44572e-21 3.2411e-21)
(-7.28825e-21 -1.63517e-21 4.11318e-21)
(-8.07851e-21 -1.78929e-21 5.19686e-21)
(-8.8561e-21 -1.86906e-21 6.57471e-21)
(-9.64534e-21 -1.76145e-21 8.31956e-21)
(-1.04101e-20 -1.20323e-21 1.03428e-20)
(-1.10708e-20 3.49345e-22 1.22983e-20)
(-1.16163e-20 3.86485e-21 1.32206e-20)
(-1.1995e-20 1.0555e-20 1.13208e-20)
(-1.18385e-20 2.09951e-20 4.96325e-21)
(-1.05157e-20 3.32027e-20 -5.71362e-21)
(-1.00344e-20 4.56139e-20 -2.05685e-20)
(0 0 0)
(-2.10238e-21 -4.57118e-22 8.21032e-22)
(-3.93886e-21 -8.62266e-22 1.59235e-21)
(-5.54822e-21 -1.22608e-21 2.36322e-21)
(-6.93997e-21 -1.55074e-21 3.17444e-21)
(-8.15219e-21 -1.84417e-21 4.10474e-21)
(-9.23629e-21 -2.11444e-21 5.24129e-21)
(-1.02421e-20 -2.35808e-21 6.69464e-21)
(-1.12002e-20 -2.53906e-21 8.59629e-21)
(-1.20863e-20 -2.54197e-21 1.10589e-20)
(-1.27456e-20 -2.07918e-21 1.41162e-20)
(-1.28436e-20 -5.33664e-22 1.76142e-20)
(-1.19359e-20 3.24764e-21 2.09238e-20)
(-9.51152e-21 1.06097e-20 2.30403e-20)