/*--------------------------------*- C++ -*----------------------------------*\
| =========                 |                                                 |
| \\      /  F ield         | OpenFOAM: The Open Source CFD Toolbox           |
|  \\    /   O peration     | Version:  v1912                                 |
|   \\  /    A nd           | Website:  www.openfoam.com                      |
|    \\/     M anipulation  |                                                 |
\*---------------------------------------------------------------------------*/
FoamFile
{
    version     2.0;
    format      ascii;
    class       volScalarField;
    location    "0.22/solid";
    object      sigmaHyd;
}
// * * * * * * * * * * * * * * * * * * * * * * * * * * * * * * * * * * * * * //

dimensions      [1 -1 -2 0 0 0 0];


internalField   nonuniform List<scalar> 
256
(
-741228
-365694
-364201
-731904
-871238
-460826
-459447
-861141
-873292
-464705
-463245
-862529
-879318
-466085
-464512
-868035
-897626
-472588
-470946
-886045
-933398
-488773
-487134
-921884
-1.03722e+06
-563581
-561875
-1.02617e+06
-1.59634e+06
-1.09287e+06
-1.08839e+06
-1.57962e+06
-325138
-12504.2
-14274.9
-322415
-414916
-64207.5
-66127.1
-411854
-418829
-72612
-74511.8
-415338
-421411
-71487.6
-73348.3
-417550
-430122
-67474.6
-69309.2
-425959
-449182
-63708.2
-65542.5
-444903
-525310
-103171
-104852
-521127
-1.03733e+06
-563589
-561813
-1.0261e+06
-266240
9033.61
7263.54
-262757
-336611
-22299.4
-24294.6
-333265
-339864
-29921.3
-31923
-336236
-343136
-29894.4
-31876.6
-339205
-352548
-26900.9
-28869.1
-348327
-372657
-24201.3
-26168.6
-368259
-449062
-63369.6
-65157.4
-444586
-933470
-488548
-486768
-921498
-248695
4863.57
3246.64
-244589
-314096
-22399.1
-24274.3
-310432
-316714
-29023.7
-30937
-312902
-320362
-29440.9
-31356.5
-316328
-330623
-27534.9
-29449.6
-326339
-352140
-26450.9
-28369.3
-347674
-429462
-66481.2
-68212.9
-424834
-897051
-471570
-469688
-884639
-238722
2355.11
860.384
-234200
-302080
-23871
-25647.4
-298201
-304433
-30028.6
-31867.4
-300500
-308304
-30634
-32493.5
-304214
-319078
-29371.7
-31242.6
-314784
-341388
-29256.7
-31137.6
-336926
-419057
-69716.4
-71410.3
-414400
-876226
-463046
-461108
-863619
-232894
955.101
-451.214
-228081
-295059
-24777.7
-26481.9
-291012
-297306
-30742.8
-32525
-293263
-301328
-31458.5
-33274.4
-297173
-312411
-30561.3
-32398.2
-308087
-335153
-30986.6
-32839.4
-330679
-412921
-71653
-73321
-408241
-863565
-457945
-455974
-850844
-229722
113.342
-1235.52
-224725
-291201
-25310.5
-26967.1
-287040
-293410
-31192.2
-32935.9
-289284
-297527
-31975.5
-33760.9
-293317
-308786
-31277.4
-33090
-304431
-331757
-31990.9
-33823.8
-327265
-409541
-72760.3
-74410.5
-404840
-856334
-455030
-453038
-843546
-228332
-300.419
-1621.03
-223246
-289500
-25568.2
-27201.1
-285283
-291700
-31416.6
-33140.7
-287531
-295863
-32232.5
-34002
-291623
-307203
-31622.8
-33422.6
-302828
-330273
-32462.5
-34284.8
-325768
-408053
-73275.9
-74916.9
-403340
-853051
-453703
-451702
-840230
)
;

boundaryField
{
    interface
    {
        type            zeroGradient;
    }
    symmetry
    {
        type            symmetry;
    }
    bottom
    {
        type            zeroGradient;
    }
}


// ************************************************************************* //
