/*--------------------------------*- C++ -*----------------------------------*\
| =========                 |                                                 |
| \\      /  F ield         | OpenFOAM: The Open Source CFD Toolbox           |
|  \\    /   O peration     | Version:  v1912                                 |
|   \\  /    A nd           | Website:  www.openfoam.com                      |
|    \\/     M anipulation  |                                                 |
\*---------------------------------------------------------------------------*/
FoamFile
{
    version     2.0;
    format      ascii;
    class       volSymmTensorField;
    location    "0.22/solid";
    object      sigma;
}
// * * * * * * * * * * * * * * * * * * * * * * * * * * * * * * * * * * * * * //

dimensions      [1 -1 -2 0 0 0 0];


internalField   nonuniform List<symmTensor> 
256
(
(-406159 4111.05 540.355 105478 2790.95 -436610)
(-25281 -11193.5 530.427 83641.9 3953.36 -399680)
(-25041.2 14926.2 -460.86 82401.1 4344.87 -396388)
(-392815 -2428.65 -301.907 105987 4251.23 -422631)
(-436316 -2482.79 1120.61 -70433 -4800.27 -467487)
(-77276.9 -2956.32 856.851 -33232.3 -4591.18 -434429)
(-77254.6 5664.33 -656.588 -34907.2 -4341.96 -431115)
(-422102 3640.45 -739.541 -68801.3 -3882.93 -452863)
(-438644 -1394.38 995.565 -57754.1 -4370.29 -469325)
(-76969.8 -765.273 800.415 -34498.8 -4362.16 -437872)
(-76976.4 2761.03 -555.266 -36086.6 -4192.32 -434494)
(-424073 2230.49 -584.387 -55360 -3730.3 -454392)
(-445838 44.71 959.529 -44869.2 -3347.01 -476440)
(-73086.5 175.337 796.412 -28316.2 -3088.09 -444224)
(-73068.7 1285.2 -555.282 -29710.8 -2956.52 -440790)
(-431007 568.153 -545.544 -41862 -2847.74 -461311)
(-461683 476.697 1250.49 -39200.4 -3078.88 -492437)
(-71364.4 379.671 970.548 -21606.5 -2632.87 -458186)
(-71319.9 646.533 -744.468 -22883.1 -2517.84 -454723)
(-446742 -48.7552 -838.469 -35865.3 -2654.74 -477224)
(-487814 -469.472 1816.89 -39545.4 -3818.64 -519372)
(-69557.4 -411.891 1292.17 -19063.7 -3380.2 -482904)
(-69550.8 1052.63 -1072.99 -20297 -3264.89 -479455)
(-473132 686.158 -1404.32 -36188.8 -3423.48 -504225)
(-535977 -2262.71 2426.82 -104915 -4987.46 -569667)
(-78747.5 -1804.83 1616.18 -82877.4 -4855.39 -533476)
(-78937.2 2025.36 -1379.7 -83716.3 -4721.54 -530071)
(-522471 2166.66 -2010.37 -101070 -4583.34 -554736)
(-576988 -2578.62 2640.23 -613664 -4117.09 -613648)
(-102223 -1611.29 1700.33 -592081 -4233.82 -592006)
(-102115 1501.28 -1433.79 -588420 -4103.76 -588301)
(-565574 2263.98 -2240 -598544 -3774.52 -598468)
(-346828 6077.56 203.393 88789.3 -20598.7 -24568.5)
(-11376.8 -9590.18 717.005 62580.7 -19451.9 -15914.3)
(-12001.2 11466.1 -461.613 59759.8 -18592.7 -16977.6)
(-332742 -5047.81 33.0359 86930.9 -17888.8 -20785.4)
(-381256 -1933.06 922.663 -21125.7 -10633 -73302.5)
(-60222.2 -2925.62 1181.58 11453.3 -10320.6 -60855.4)
(-60824.4 4158.27 -698.106 8592.27 -9753.59 -62213.5)
(-366140 2464.45 -543.013 -21323.7 -8724.53 -69652.1)
(-385885 -1554.1 1034.05 -21841.1 -8839.49 -72412.6)
(-65851.7 -1192.12 1263.23 -3374.53 -8630.2 -64936.8)
(-66476 2064.75 -737.488 -6017.3 -8217.36 -66441.7)
(-370400 1905.83 -631.678 -21123.7 -7386.92 -69035.8)
(-392788 -116.723 1007.73 -17491.3 -8605.04 -69324.3)
(-62711.7 -241.655 1265.34 -5633.09 -8236.45 -61923.9)
(-63326.4 853.263 -776.752 -8119.32 -7900.47 -63495.7)
(-376985 369.349 -614.305 -16259.2 -7414.32 -66080.1)
(-407253 530.598 1141.73 -14975.3 -8813.78 -68835.1)
(-58405.5 108.768 1366.7 -1002.4 -8443.12 -57819.7)
(-58995.1 268.198 -921.925 -3417.86 -8145.34 -59431)
(-391181 -375.899 -758.26 -13480.6 -7780 -65674)
(-432232 -161.411 1484.17 -17286.8 -9495.72 -69684.1)
(-52028 -484.886 1606.69 1957.87 -9284.23 -52379.6)
(-52641.5 631.607 -1184.51 -404.316 -9010.48 -54043.6)
(-416134 165.934 -1103.16 -15693.6 -8572.2 -66684.1)
(-481782 -1873.28 1961.81 -82575 -9571.45 -82980.9)
(-55621.2 -1731.24 1903.45 -58164.5 -9514.39 -58288.1)
(-56399.4 1638.98 -1505.91 -59997.6 -9282.24 -59980.4)
(-466502 1620.93 -1592.4 -80197.4 -8807.64 -80268.6)
(-536095 -2389.03 2391.15 -569671 -4919.59 -105083)
(-78819.9 -1561.92 2060 -533521 -4811.09 -82758.4)
(-78979.7 1421.82 -1825.62 -530128 -4683.53 -83414.8)
(-522480 2023.07 -2116.54 -554732 -4542.62 -100832)
(-299011 7200.84 -601.391 86387.3 -8154.66 20641.3)
(-10343.2 -8269.12 120.594 51951.3 -8085.24 20477.4)
(-10883.9 9221.32 194.182 49268.5 -7362.53 19309.5)
(-284267 -6544.71 733.139 85854.2 -5924.25 24979.6)
(-328946 -1226.58 -254.02 3100.38 -7396.2 -9753.26)
(-49858.5 -2687.9 328.12 26577 -7192.15 -3615.33)
(-50351.5 3177.41 217.081 23750.7 -6593.46 -5210.28)
(-313268 1468.03 497.331 3322.46 -5487.18 -5938.66)
(-333927 -1500.01 -10.4706 5092.03 -8460.52 -9804.74)
(-56244.9 -1363.78 450.751 15568.1 -8183.61 -8741.96)
(-56746.1 1650.15 112.024 12930.1 -7688.19 -10542.9)
(-317897 1618.5 270.629 6013.17 -6844.68 -6471.5)
(-340967 -221.886 -2.61368 7069.46 -9769.08 -6677.59)
(-54081.3 -442.355 455.714 10975.2 -9381.05 -5954.76)
(-54566.7 610.825 53.1228 8475.04 -8954.1 -7868.21)
(-324610 298.47 246.636 8433.66 -8370.6 -3629.36)
(-355559 522.804 -39.234 5523.98 -10585.2 -4666.58)
(-50717.7 33.4548 448.269 11261.8 -10244.8 -69.3574)
(-51170 25.9861 3.7139 8825.86 -9864.88 -2060.84)
(-338882 -493.224 264.696 7144.17 -9354 -1815.67)
(-381195 24.6137 5.7747 -1529.19 -10547.4 -4108.39)
(-45925.7 -385.821 517.679 9516.72 -10384.5 7515.23)
(-46391.2 331.702 -109.789 7148.52 -10051.8 5444.4)
(-364379 -100.289 205.448 250.344 -9478.03 -1488.08)
(-432225 -1409.77 235.831 -68461.9 -8888.59 -18128.4)
(-51755.3 -1466.12 690.404 -51403.9 -8763 1726.66)
(-52371.8 1288.52 -358.195 -53215.7 -8512.32 -346.196)
(-416020 1118.11 -54.5115 -65815.3 -8070.64 -15738.7)
(-487969 -1792.68 623.144 -519194 -3497.27 -39670.9)
(-69460.9 -1255.31 760.271 -482736 -3120.68 -18609.8)
(-69426.5 1105.04 -670.733 -479278 -3022.96 -19475.5)
(-473061 1410.49 -551.806 -503970 -3180.58 -35371)
(-273100 7182.49 -742.311 84407.8 -4381.5 23103)
(-13355.9 -7811.33 -136.687 44050.1 -4206.73 16707.4)
(-13882 8277.92 434.698 41667.5 -3667.36 15708.5)
(-258242 -6785.86 832.243 85253 -2731.18 28220.4)
(-301776 -935.964 -850.239 6629.09 -5242.18 -1181.37)
(-51054.1 -2592.47 -169.017 22374.7 -4911.31 -984.578)
(-51553.3 2692.93 690.73 19749.1 -4409.21 -2386.55)
(-286104 1021.92 1030.09 7508.49 -3685.85 3376.23)
(-307004 -1406.42 -702.922 10250.4 -7027.14 -775.217)
(-57637.2 -1422.41 -99.2606 13808.1 -6684.06 -5378.93)
(-58134.8 1398.13 636.883 11276.1 -6231.42 -6997.06)
(-291000 1406.62 898.356 11501.1 -5604.87 3240.93)
(-314252 -288.574 -677.696 12182.9 -8831.76 1492.27)
(-55990.3 -553.977 -95.7513 9282.28 -8436.96 -3478.4)
(-56466.9 489.918 579.329 6842.23 -8027.99 -5233.47)
(-297927 275.121 856.827 13733.3 -7539.94 5134.09)
(-329023 439.741 -747.403 9095.5 -9788.24 2749.37)
(-53256.3 -38.3083 -141.625 7751.1 -9427.03 1584.83)
(-53697.3 -58.2416 563.886 5359.13 -9059.15 -274.121)
(-312372 -470.83 904.539 10852 -8630.48 6108.33)
(-355118 78.602 -798.086 65.3299 -9267.95 1621.46)
(-49636.9 -326.296 -155.473 3981.04 -9045.13 7481.52)
(-50087.7 188.469 518.674 1651.64 -8730.36 5530.01)
(-338289 -186.011 933.358 1977.79 -8275.05 4709.11)
(-406831 -1032.51 -695.469 -66255.4 -6900.52 -15917.1)
(-57047.9 -1208.21 -82.2542 -55517.2 -6712.64 -1678.55)
(-57641.8 1002.51 346.524 -57300.7 -6488.51 -3612.2)
(-390496 731.183 792.353 -63481.3 -6170.47 -13005.4)
(-461466 -1205.06 -482.281 -491792 -2182.36 -38125)
(-70233.9 -928.506 -118.828 -457518 -1813.18 -20270)
(-70157.1 760.568 139.656 -454019 -1736.49 -20932.6)
(-446122 811.127 473.62 -476397 -1921.92 -33116.1)
(-257364 6806.53 -542.877 83712.7 -3271.21 24653.4)
(-14202.1 -7816.11 -148.008 39874.4 -2887.54 13704.9)
(-14736.9 8009.18 386.181 37749.4 -2503.17 12842.1)
(-242498 -6579.97 612.376 85628 -2106.59 30314.6)
(-285095 -919.522 -762.594 7706.55 -4155.74 2862.34)
(-50844.9 -2630.03 -247.367 18283.3 -3704.47 -2069.8)
(-51388.4 2513.12 678.178 15846.5 -3328.26 -3299.07)
(-269525 914.911 905.781 9177.34 -3006.82 7988.74)
(-290408 -1368.89 -721.733 11337 -5577.43 4135.97)
(-57393.2 -1464.17 -230.128 10127.3 -5197.93 -5508.98)
(-57929.9 1265.49 683.469 7699.09 -4840.98 -6947.39)
(-274521 1304.21 880.494 12912.7 -4474.08 8725.46)
(-297817 -329.163 -708.291 13322 -7030.36 5901.77)
(-55993.5 -620.969 -233.336 5785.38 -6665.42 -4107.23)
(-56504.8 425.736 644.486 3397.64 -6331.19 -5690.92)
(-281618 266.012 854.496 15044.1 -5989.8 10081.1)
(-312696 368.113 -758.233 10098.5 -7717.52 5953.03)
(-53566.2 -96.6974 -274.56 3969.92 -7388.01 -380.501)
(-54040.9 -86.7113 630.161 1604.99 -7083.08 -2080.6)
(-296178 -432.605 884.119 11947.2 -6767.2 9801.27)
(-338978 97.1067 -805.305 960.435 -7029.05 2812.7)
(-50539.8 -297.509 -303.964 71.2436 -6803.31 3324.33)
(-51022.9 113.791 599.271 -2245.62 -6544.11 1525.61)
(-322269 -221.395 908.247 2927.45 -6214.19 6363.99)
(-390854 -773.671 -756.185 -64161.9 -4861.09 -17356.5)
(-58775 -1025.56 -282.87 -57664.8 -4684.31 -8507.69)
(-59396.5 801.097 481.522 -59448.8 -4503.6 -10280.8)
(-374578 466.402 821.349 -61355.5 -4269.66 -13960.9)
(-443994 -789.523 -657.82 -474373 -1412.14 -39106.3)
(-68847.9 -693.124 -361.679 -442244 -1147.07 -25264.7)
(-68787.1 507.064 349.459 -438735 -1086.89 -25744.2)
(-428509 384.535 631.553 -458901 -1204.15 -33527)
(-247841 6465.45 -328.212 82939.9 -2438.74 26050.8)
(-14398.6 -7924.08 -89.0079 37138.1 -2056.85 12192.3)
(-14938.3 7960.48 258.081 35202.9 -1800.37 11422.6)
(-232966 -6343.43 378.828 85615.8 -1669.87 32085.7)
(-274805 -978.273 -492.093 8011.97 -3157.01 5520.63)
(-50105.2 -2700.17 -160.611 15396.9 -2739.28 -2912.21)
(-50682.3 2458.83 474.908 13105.5 -2482.85 -4022.01)
(-259301 920.796 598.304 9944.77 -2381.37 11054.5)
(-280081 -1371.3 -493.729 11356.3 -4091.09 7376.25)
(-56478.8 -1503.06 -162.107 7107.16 -3756 -5814.4)
(-57046.5 1203.01 500.526 4765.13 -3505.65 -7123.75)
(-264272 1269.41 613.8 13214.8 -3323.37 12396.2)
(-287573 -356.243 -493.108 13301.4 -5000.76 8861.82)
(-55162.6 -662.578 -168.686 2818.74 -4709.03 -4711.45)
(-55701.7 388.714 479.892 475.456 -4468.87 -6166.86)
(-271460 263.849 605.266 15184.5 -4257.26 13464.2)
(-302521 326.217 -521.963 10322.9 -5356.46 7870.8)
(-52891.5 -132.872 -195.77 1189.02 -5105.14 -2107.04)
(-53393.3 -105.198 464.789 -1156.02 -4883.08 -3683.83)
(-286096 -411.392 618.636 12256.1 -4666.03 12119.4)
(-328881 111.083 -548.928 1600.94 -4738.49 3123.32)
(-50187 -280.762 -218.081 -2288.84 -4564.54 -125.476)
(-50696.4 64.9434 437.422 -4600.8 -4375.36 -1804.48)
(-312261 -247.064 626.579 3609.53 -4142.79 7057.65)
(-380743 -609.37 -522.867 -62567 -3154.85 -18692.5)
(-58877.8 -912.953 -216.837 -58728.9 -3029.79 -13652.4)
(-59523.1 671.835 358.016 -60518.3 -2898.43 -15304.7)
(-364520 296.348 569.765 -59741.9 -2722.48 -14912.4)
(-432603 -528.723 -475.525 -463350 -906.851 -39679.2)
(-66897.4 -547.712 -289.591 -432831 -744.199 -28947)
(-66854.3 346.328 269.605 -429321 -700.486 -29295.7)
(-417046 114.171 452.285 -447836 -754.534 -33671)
(-242415 6249.35 -169.844 82170.9 -1517.95 26965.4)
(-14493 -8004.62 -39.9799 35307.6 -1265.31 11465.4)
(-15033.8 7956.17 140.376 33495.4 -1118.45 10754.2)
(-227532 -6186.66 200.504 85328.5 -1081.37 33235.2)
(-268887 -1026.95 -256.132 7909.83 -1980.87 7092.09)
(-49549.2 -2750.19 -72.2921 13498.1 -1704.71 -3306.22)
(-50145.8 2440.99 262.266 11303.1 -1556.4 -4341.12)
(-253422 940.449 321.303 10151.3 -1535.19 12888.9)
(-274110 -1382.56 -262.751 11077.1 -2503 9197.91)
(-55755.3 -1530.52 -74.1707 5084.24 -2280.65 -6001.22)
(-56341 1173.74 282.212 2802.67 -2133.66 -7228.09)
(-258347 1260.06 337.507 13137.8 -2054.18 14502.7)
(-281634 -373.791 -265.872 12998.3 -2969.81 10485.8)
(-54448.5 -687.245 -79.2465 821.938 -2783.98 -5116.62)
(-55003.7 367.415 272.935 -1488.27 -2640.87 -6488.12)
(-265571 264.485 336.585 15004.1 -2527.82 15375.8)
(-296620 304.958 -280.695 10253.1 -3106.94 8804.43)
(-52256.4 -152.409 -94.0401 -596.916 -2953.27 -3239.7)
(-52773.6 -119.802 262.092 -2926.71 -2819.61 -4734.34)
(-280250 -402.929 341.992 12253.6 -2691.48 13331.2)
(-323016 122.439 -293.395 1900.13 -2694.82 3042.87)
(-49733.8 -270.561 -106.751 -3695.3 -2590.8 -2322.48)
(-50258.2 32.5176 242.841 -6003.3 -2476.41 -3921.61)
(-306449 -266.537 342.426 3942.19 -2333.89 7244.19)
(-374828 -512.615 -279.729 -61667.1 -1762.54 -19704.5)
(-58684.9 -849.756 -110.01 -59347.1 -1693.4 -16808.4)
(-59344 595.673 195.917 -61139.9 -1613.87 -18381.6)
(-358641 194.87 308.948 -58827.2 -1499.67 -15661.1)
(-425812 -378.599 -255.849 -456884 -509.796 -40104.7)
(-65475 -466.479 -156.81 -427384 -425.472 -31182)
(-65442.8 254.118 141.969 -423876 -398.941 -31446.4)
(-410217 -42.9026 241.13 -441346 -416.869 -33809.2)
(-239948 6149.64 -52.2185 81704.4 -515.599 27400.2)
(-14552.1 -8041.27 -10.8101 34368.9 -429.782 11167.6)
(-15093 7955.84 44.062 32616.9 -381.988 10484.9)
(-225062 -6113.74 62.4491 85094.6 -374.144 33783.6)
(-266191 -1049.87 -77.9841 7755.57 -674.124 7812.44)
(-49290.5 -2772.74 -18.9604 12539.2 -579.581 -3438.21)
(-49896 2433.73 82.4243 10391.9 -531.109 -4436.65)
(-250744 950.56 99.8869 10150.3 -528.942 13738.3)
(-271385 -1389.31 -80.3357 10855.6 -841.981 9990.32)
(-55406.4 -1543.57 -19.1834 4076.24 -765.145 -6074.47)
(-56000.2 1161.29 89.2851 1825.57 -716.776 -7260.79)
(-255643 1257.59 105.653 13020.3 -694.6 15436.9)
(-278919 -382.41 -81.8048 12777.2 -983.011 11163.3)
(-54093.1 -698.723 -20.9235 -165.052 -919.583 -5314.43)
(-54655.5 357.463 86.6393 -2457.63 -872.163 -6644.23)
(-262879 265.257 105.917 14848.6 -836.702 16198.4)
(-293921 296.017 -86.4189 10156.3 -1014.64 9148.44)
(-51933.8 -160.999 -25.6222 -1468.19 -963.272 -3784.94)
(-52458 -127.913 82.8126 -3789.44 -918.751 -5238.39)
(-277576 -400.224 107.4 12194.2 -876.231 13817)
(-320330 128.736 -90.1192 1992.2 -871.276 2913.99)
(-49495.6 -265.723 -29.7266 -4371.45 -837.171 -3357.86)
(-50026.7 16.136 75.9595 -6676.82 -798.949 -4916.94)
(-303789 -277.057 106.893 4053.69 -750.53 7251.83)
(-372111 -467.462 -85.761 -61289.1 -565.734 -20252.8)
(-58569.5 -821.402 -31.3529 -59655 -544.159 -18274.5)
(-59234.8 560.232 60.3442 -61449.2 -517.543 -19808.2)
(-355940 147.091 95.7212 -58440.3 -477.576 -16075.4)
(-422657 -309.914 -78.109 -453895 -164.27 -40351.2)
(-64785.1 -430.272 -47.1513 -424882 -138.54 -32209.8)
(-64757.9 212.171 41.8989 -421375 -129.651 -32432.6)
(-407044 -115.227 73.1254 -438346 -133.049 -33910.8)
)
;

boundaryField
{
    interface
    {
        type            calculated;
        value           nonuniform List<symmTensor> 
192
(
(-65.7311 0.23397 4.24606 844218 2790.95 302130)
(-67.6886 -0.00731632 6.00848 673331 -4800.27 276277)
(-68.4891 -0.354273 6.2312 695300 -4370.29 283730)
(-69.1068 -0.724266 6.16364 724968 -3347.01 293397)
(-68.9333 -1.05508 5.94872 759208 -3078.88 305971)
(-69.6504 -1.72502 5.67786 805727 -3818.64 325901)
(-67.4927 -2.17101 5.10036 820373 -4987.46 355622)
(-70.8246 -4.5977 4.61456 376671 -4117.09 376687)
(-63.512 0.123787 2.21404 731126 -20598.7 617768)
(-64.519 -0.118204 3.27722 634257 -10633 582080)
(-64.9847 -0.452275 3.36846 643405 -8839.49 592833)
(-65.4747 -0.855469 3.27976 663651 -8605.04 611818)
(-65.1771 -1.22428 3.10187 693469 -8813.78 639609)
(-65.97 -1.98513 2.88911 737784 -9495.72 685387)
(-63.6471 -2.4838 2.5165 756906 -9571.45 756500)
(-67.5104 -5.08806 2.20347 355735 -4919.59 820322)
(-66.7148 0.102868 1.80617 646026 -8154.66 580280)
(-67.647 -0.16354 2.65067 574295 -7396.2 561441)
(-68.1072 -0.526581 2.72241 585960 -8460.52 571063)
(-68.5962 -0.980831 2.64924 603482 -9769.08 589735)
(-68.1518 -1.40681 2.50469 628864 -10585.2 618673)
(-68.8416 -2.27038 2.32739 668419 -10547.4 665840)
(-65.9794 -2.85644 2.03812 686697 -8888.59 737030)
(-69.6923 -5.67407 1.77588 326308 -3497.27 805831)
(-66.6319 0.0595556 1.16206 597721 -4381.5 536417)
(-67.3715 -0.226295 1.75368 531020 -5242.18 523210)
(-67.7151 -0.603315 1.79774 544321 -7027.14 533296)
(-68.1494 -1.08391 1.73604 561804 -8831.76 551114)
(-67.6224 -1.53982 1.62638 585656 -9788.24 579310)
(-68.3006 -2.45214 1.49493 623352 -9267.95 624909)
(-65.2935 -3.07576 1.30284 642241 -6900.52 692579)
(-69.0902 -5.96414 1.13047 306840 -2182.36 760507)
(-67.5426 0.0445061 0.86938 569829 -3271.21 510770)
(-68.236 -0.261249 1.30679 504539 -4155.74 499695)
(-68.529 -0.658767 1.34026 517875 -5577.43 510674)
(-68.9345 -1.16482 1.29423 535494 -7030.36 528074)
(-68.3305 -1.64948 1.21289 559277 -7717.52 555131)
(-68.9476 -2.60267 1.11338 596886 -7029.05 598739)
(-65.7408 -3.26233 0.974339 616628 -4861.09 663434)
(-69.4516 -6.21168 0.84432 295250 -1412.14 730516)
(-67.6493 0.0293903 0.552284 552829 -2438.74 495940)
(-68.2892 -0.290509 0.842013 488321 -3157.01 485829)
(-68.5342 -0.701249 0.863651 501368 -4091.09 497388)
(-68.9137 -1.22279 0.831477 519016 -5000.76 514576)
(-68.2679 -1.72464 0.77677 543097 -5356.46 540645)
(-68.8651 -2.70043 0.710253 581092 -4738.49 582614)
(-65.5782 -3.37966 0.621959 601403 -3154.85 645278)
(-69.2903 -6.36211 0.539527 288165 -906.851 711836)
(-67.9339 0.0233136 0.325577 542819 -1517.95 487613)
(-68.5602 -0.306595 0.495258 478786 -1980.87 477969)
(-68.7831 -0.72779 0.508406 491648 -2503 489769)
(-69.1478 -1.26043 0.489659 509311 -2969.81 506798)
(-68.4708 -1.77455 0.458015 533655 -3106.94 532207)
(-69.0411 -2.76546 0.418606 571980 -2694.82 573122)
(-65.6816 -3.45847 0.368011 592600 -1762.54 634562)
(-69.3621 -6.46349 0.318615 284000 -509.796 700779)
(-67.973 0.0189171 0.102401 538140 -515.599 483836)
(-68.5849 -0.31556 0.157899 474331 -674.124 474388)
(-68.7944 -0.741195 0.162121 487121 -841.981 486256)
(-69.151 -1.2785 0.15576 504801 -983.011 503187)
(-68.4637 -1.79819 0.145484 529282 -1014.64 528274)
(-69.025 -2.79534 0.132521 567770 -871.276 568692)
(-65.6469 -3.49497 0.116748 588523 -565.734 629560)
(-69.3148 -6.50994 0.10065 282061 -164.27 695605)
(385591 4111.05 -6.593 897227 -0.753382 -27.9649)
(360763 -2482.79 -9.56984 726646 -0.673654 -22.8891)
(367656 -1394.38 -10.0209 748546 -0.41051 -20.9103)
(377186 44.71 -10.0296 778155 -0.314133 -20.8157)
(389885 476.697 -9.91686 812367 -0.285869 -21.7786)
(411052 -469.472 -9.81263 859321 -0.355565 -23.609)
(445028 -2262.71 -9.6283 876090 -0.405216 -26.5785)
(474440 -2578.62 -9.90657 437764 -0.592561 -29.4813)
(707758 -11193.5 -4.95958 816681 -0.342878 -36.8037)
(668363 -2956.32 -7.65325 712408 -0.338454 -35.8)
(677972 -765.273 -7.99956 720443 -0.177946 -35.406)
(697332 175.337 -7.97916 742102 -0.086868 -35.4534)
(725820 379.671 -7.91114 775578 -0.0260977 -35.8056)
(773899 -411.891 -7.88471 824393 -0.00840014 -36.43)
(850502 -1804.83 -7.87198 846372 -0.00396309 -37.2927)
(918390 -1611.29 -8.32995 428533 -0.0598906 -38.0443)
(701787 14926.2 -5.289 809229 -0.178607 -32.9442)
(661821 5664.33 -8.12359 704168 -0.160916 -32.2447)
(671173 2761.03 -8.51683 712062 -0.0391701 -31.9114)
(690437 1285.2 -8.49652 733795 0.0670065 -31.9363)
(718898 646.533 -8.40103 767334 0.15933 -32.3202)
(766938 1052.63 -8.31726 816192 0.244154 -32.899)
(843368 2025.36 -8.2131 838589 0.307779 -33.8808)
(911519 1501.28 -8.56515 425214 0.327528 -34.8947)
(376851 -2428.65 -6.18312 875654 -0.107796 -33.8353)
(351512 3640.45 -9.4159 704812 -0.0612123 -33.4232)
(358042 2230.49 -9.88563 726754 0.0584431 -33.1819)
(367452 568.153 -9.86984 756597 0.183192 -33.1807)
(380091 -48.7552 -9.73151 790967 0.293312 -33.4639)
(400997 686.158 -9.59746 837940 0.422868 -33.7507)
(433885 2166.66 -9.3429 855286 0.524994 -34.3814)
(461493 2263.98 -9.6504 428523 0.666186 -34.9571)
(-12.759 0.78972 3.01947 824373 4251.23 295755)
(-7.63788 0.448539 4.4998 653429 -3882.93 269367)
(-5.80423 -0.179233 4.66675 675632 -3730.3 276600)
(-5.18423 -0.668324 4.62337 705526 -2847.74 286077)
(-5.92131 -1.01626 4.50145 739935 -2654.74 298577)
(-5.46327 -1.61627 4.45206 786843 -3423.48 318808)
(-8.34319 -1.7338 4.17815 803714 -4583.34 350048)
(1.3549 -4.27856 4.34233 375790 -3774.52 375866)
(-24.0524 0.230394 0.90535 706301 -17888.8 598585)
(-23.0052 -0.00291391 1.65433 609945 -8724.53 561616)
(-22.602 -0.381732 1.67569 619411 -7386.92 571499)
(-22.0758 -0.766966 1.61769 639634 -7414.32 589813)
(-22.258 -1.02828 1.56338 669260 -7780 617067)
(-20.4315 -1.59804 1.60214 713545 -8572.2 662555)
(-21.5484 -1.48651 1.56352 734547 -8807.64 734476)
(-8.25375 -4.11869 1.8156 350036 -4542.62 803936)
(-23.6016 0.103772 1.10545 621917 -5924.25 561042)
(-22.7618 -0.140751 1.83308 549811 -5487.18 540550)
(-22.3286 -0.467521 1.90241 561571 -6844.68 549087)
(-21.6591 -0.84667 1.86639 578967 -8370.6 566904)
(-21.706 -1.09637 1.80779 604063 -9354 595104)
(-19.4117 -1.69227 1.79016 643463 -9478.03 641725)
(-20.3109 -1.52156 1.69576 663350 -8070.64 713427)
(-5.20624 -4.3933 1.7258 318988 -3180.58 787587)
(-26.0159 0.0291782 0.70893 575126 -2731.18 518093)
(-25.495 -0.227405 1.25421 507373 -3685.85 503241)
(-25.1889 -0.530158 1.30891 520450 -5604.87 512189)
(-24.4375 -0.895753 1.28023 537662 -7539.94 529063)
(-24.3008 -1.12096 1.23466 561159 -8630.48 556415)
(-21.4793 -1.71076 1.21722 598628 -8275.05 601359)
(-21.9301 -1.47554 1.15304 618926 -6170.47 669402)
(-5.34456 -4.44687 1.16958 299077 -1921.92 742358)
(-26.1733 0.0175019 0.616618 548502 -2106.59 493189)
(-25.6614 -0.254437 1.03807 481734 -3006.82 480545)
(-25.3291 -0.563118 1.08718 494591 -4474.08 490404)
(-24.4906 -0.93575 1.06759 511794 -5989.8 506831)
(-24.2646 -1.16064 1.02998 535144 -6767.2 532998)
(-21.1929 -1.76011 1.00241 572462 -6214.19 575899)
(-21.5125 -1.50463 0.939513 593488 -4269.66 640882)
(-4.09683 -4.57004 0.914997 287371 -1204.15 712745)
(-26.787 0.0106418 0.403478 532395 -1669.87 478865)
(-26.3001 -0.271373 0.688516 466149 -2381.37 467259)
(-25.956 -0.58566 0.722843 478550 -3323.37 477732)
(-25.0538 -0.962854 0.709477 495667 -4257.26 493947)
(-24.7435 -1.18631 0.684132 519244 -4666.03 519107)
(-21.4602 -1.78834 0.66391 556893 -4142.79 560341)
(-21.6289 -1.51563 0.623199 578404 -2722.48 623233)
(-3.58654 -4.63665 0.605129 280239 -754.534 694404)
(-26.8914 0.0106419 0.248813 522949 -1081.37 470856)
(-26.3962 -0.27815 0.416697 457033 -1535.19 459770)
(-26.0301 -0.598259 0.437734 469150 -2054.18 470515)
(-25.0851 -0.980473 0.430122 486208 -2527.82 486579)
(-24.7289 -1.20584 0.415364 509996 -2691.48 511074)
(-21.3366 -1.81151 0.401304 547936 -2333.89 551238)
(-21.4437 -1.53163 0.376697 569702 -1499.67 612868)
(-3.04761 -4.69032 0.360526 276061 -416.869 683598)
(-27.0254 0.00961169 0.0787862 518543 -374.144 467232)
(-26.5327 -0.282075 0.133911 452783 -528.942 456371)
(-26.1575 -0.604541 0.140805 464784 -694.6 467201)
(-25.1922 -0.988607 0.138146 481823 -836.702 483173)
(-24.8075 -1.21484 0.133476 505722 -876.231 507345)
(-21.3594 -1.82103 0.128668 543805 -750.53 547003)
(-21.4174 -1.53792 0.121504 565678 -477.576 608043)
(-2.85035 -4.71403 0.115854 274119 -133.049 678554)
(474508 9.8958 2640.23 -29.2942 -0.558616 437848)
(445030 9.62634 2391.15 -26.277 -0.371916 876042)
(411027 9.82377 623.144 -23.0979 -0.309799 859326)
(390176 9.94888 -482.281 -20.9361 -0.210344 813518)
(378754 10.093 -657.82 -19.3626 -0.170168 783642)
(372254 10.1821 -475.525 -18.215 -0.109285 765178)
(368578 10.2476 -255.849 -17.5196 -0.068315 754285)
(366883 10.2777 -78.109 -17.1719 -0.0215715 749189)
(918470 8.31284 1700.33 -37.8735 -0.0200609 428688)
(850535 7.85772 2060 -37.0379 0.0346469 846596)
(774072 7.87323 760.271 -36.0269 0.0428068 824923)
(726917 7.90063 -118.828 -35.211 0.0477413 776881)
(701171 7.96113 -361.679 -34.5767 0.0329658 744755)
(686741 7.99779 -289.591 -34.0809 0.027112 724691)
(678713 8.02879 -156.81 -33.7744 0.0150354 713006)
(675054 8.04292 -47.1513 -33.6037 0.00604805 707629)
(911605 8.54644 -1433.79 -34.7231 0.370971 425419)
(843407 8.1946 -1825.62 -33.617 0.350437 838972)
(767080 8.30028 -670.733 -32.4795 0.299862 817031)
(719920 8.38611 139.656 -31.6964 0.23449 769144)
(694139 8.48142 349.459 -31.0231 0.177084 737182)
(679686 8.54089 269.605 -30.5575 0.122608 717244)
(671646 8.58491 141.969 -30.2472 0.0714624 705643)
(667983 8.60466 41.8989 -30.0996 0.0235574 700308)
(461543 9.62219 -2240 -34.7926 0.710709 428649)
(433895 9.31453 -2116.54 -34.1283 0.569065 855544)
(400989 9.57095 -551.806 -33.3634 0.478658 838680)
(380415 9.71212 473.62 -32.9107 0.364476 793421)
(369048 9.86295 631.553 -32.4153 0.280632 764030)
(362579 9.95456 452.285 -32.1177 0.191922 745954)
(358921 10.021 241.13 -31.8894 0.114341 735329)
(357235 10.0513 73.1254 -31.7824 0.0375888 730369)
)
;
    }
    symmetry
    {
        type            symmetry;
    }
    bottom
    {
        type            calculated;
        value           nonuniform List<symmTensor> 
32
(
(-797188 24525.8 540.355 -146305 24909.3 -827640)
(-524407 27027.5 203.393 -17646 -25992.3 -202147)
(-457942 27412.3 -601.391 -14789.5 -10445 -138289)
(-424805 26282.1 -742.311 -11571.6 -4971.86 -128602)
(-405319 25097.9 -542.877 -9441.11 -3369.52 -123302)
(-393863 24270 -328.212 -8964.38 -2441.13 -119972)
(-387430 23783.4 -169.844 -9136.38 -1516.7 -118050)
(-384522 23561.8 -52.2185 -9344 -516.573 -117173)
(-220455 -14610.1 530.427 -35868.6 26288.9 -594853)
(-26053.5 -12420.2 717.005 60691.6 -25058.1 -30591)
(-19925.7 -10655.7 120.594 45140.8 -11002 10894.9)
(-22151.4 -10079.9 -136.687 38109.9 -5214.59 7911.89)
(-22464.5 -10090.3 -148.008 34956.1 -3205 5442.44)
(-22402.5 -10213 -89.0079 32714 -2173.51 4188.29)
(-22355.6 -10298.6 -39.9799 31157.1 -1321.5 3602.76)
(-22346.5 -10335.9 -10.8101 30353.4 -448.578 3373.21)
(-219295 18008.8 -460.86 -35936.1 26766.1 -590642)
(-26871.6 13653.4 -461.613 57775.7 -24047 -31848)
(-20663.1 10921.8 194.182 42407.5 -10180.7 9530.27)
(-22860.9 9916.73 434.698 35718.3 -4611.12 6729.53)
(-23179.9 9718.83 386.181 32837.2 -2777.79 4399.12)
(-23122.2 9736.54 258.081 30791.8 -1889.36 3238.59)
(-23076.3 9771.92 140.376 29361.9 -1159.1 2711.75)
(-23067.1 9789.5 44.062 28620.3 -395.778 2510.76)
(-783977 -23220.4 -301.907 -146167 26933.1 -813793)
(-513280 -26347.2 33.0359 -22924 -22799.6 -201323)
(-445874 -27140.2 733.139 -17966.5 -7927.06 -136627)
(-412490 -26313.2 832.243 -12881.2 -3134.85 -126027)
(-392953 -25323.2 612.376 -9413.88 -2080.94 -120140)
(-381473 -24609.5 378.828 -8022.67 -1593.29 -116422)
(-375029 -24185.2 200.504 -7627.72 -1036.29 -114261)
(-372116 -23991.2 62.4491 -7564.54 -361.083 -113271)
)
;
    }
}


// ************************************************************************* //
