/*--------------------------------*- C++ -*----------------------------------*\
| =========                 |                                                 |
| \\      /  F ield         | OpenFOAM: The Open Source CFD Toolbox           |
|  \\    /   O peration     | Version:  v1912                                 |
|   \\  /    A nd           | Website:  www.openfoam.com                      |
|    \\/     M anipulation  |                                                 |
\*---------------------------------------------------------------------------*/
FoamFile
{
    version     2.0;
    format      ascii;
    class       volScalarField;
    location    "0.22/solid";
    object      T;
}
// * * * * * * * * * * * * * * * * * * * * * * * * * * * * * * * * * * * * * //

dimensions      [0 0 0 1 0 0 0];


internalField   nonuniform List<scalar> 
256
(
292.009
292.496
292.498
292.009
291.907
292.442
292.443
291.907
291.897
292.437
292.439
291.897
291.886
292.432
292.433
291.887
291.867
292.422
292.424
291.868
291.831
292.403
292.405
291.832
291.733
292.336
292.338
291.733
291.01
291.672
291.676
291.016
292.538
292.951
292.951
292.533
292.487
292.945
292.944
292.481
292.482
292.944
292.944
292.476
292.477
292.944
292.943
292.471
292.467
292.943
292.943
292.462
292.448
292.941
292.94
292.443
292.381
292.908
292.908
292.376
291.733
292.336
292.338
291.733
292.596
292.977
292.976
292.59
292.551
292.973
292.973
292.544
292.546
292.973
292.972
292.54
292.541
292.973
292.972
292.535
292.531
292.973
292.972
292.526
292.513
292.971
292.97
292.507
292.448
292.941
292.94
292.443
291.831
292.403
292.405
291.832
292.613
292.978
292.977
292.607
292.569
292.975
292.974
292.563
292.565
292.975
292.974
292.558
292.56
292.975
292.974
292.553
292.55
292.974
292.974
292.544
292.531
292.973
292.972
292.526
292.467
292.943
292.943
292.462
291.867
292.422
292.424
291.868
292.622
292.978
292.978
292.616
292.579
292.975
292.975
292.572
292.574
292.975
292.974
292.568
292.569
292.975
292.974
292.563
292.56
292.975
292.974
292.553
292.541
292.973
292.972
292.535
292.477
292.944
292.943
292.471
291.886
292.431
292.433
291.887
292.627
292.979
292.978
292.621
292.584
292.976
292.975
292.577
292.58
292.975
292.975
292.573
292.574
292.975
292.974
292.568
292.565
292.975
292.974
292.558
292.546
292.973
292.972
292.54
292.482
292.944
292.944
292.476
291.897
292.437
292.438
291.897
292.629
292.979
292.978
292.623
292.587
292.976
292.975
292.58
292.582
292.975
292.975
292.575
292.577
292.975
292.974
292.57
292.567
292.975
292.974
292.561
292.549
292.973
292.972
292.542
292.485
292.944
292.944
292.479
291.903
292.439
292.441
291.903
292.631
292.979
292.978
292.624
292.588
292.976
292.975
292.581
292.584
292.975
292.975
292.576
292.578
292.975
292.975
292.571
292.569
292.975
292.974
292.562
292.55
292.973
292.973
292.543
292.486
292.944
292.944
292.48
291.905
292.441
292.442
291.906
)
;

boundaryField
{
    interface
    {
        type            fixedValue;
        value           nonuniform List<scalar> 
192
(
290.045
289.966
289.927
289.867
289.77
289.609
289.3
288.404
290.824
290.777
290.744
290.692
290.608
290.463
290.174
289.3
291.099
291.057
291.025
290.976
290.894
290.75
290.462
289.608
291.24
291.198
291.168
291.118
291.037
290.893
290.607
289.769
291.32
291.28
291.249
291.199
291.117
290.974
290.69
289.864
291.368
291.327
291.296
291.247
291.165
291.022
290.74
289.922
291.395
291.354
291.323
291.274
291.192
291.049
290.768
289.955
291.407
291.367
291.336
291.286
291.204
291.061
290.781
289.971
289.908
289.829
289.789
289.729
289.633
289.471
289.158
288.249
290.547
290.498
290.465
290.414
290.331
290.187
289.894
288.991
290.565
290.518
290.485
290.435
290.353
290.208
289.915
289.015
289.966
289.891
289.853
289.794
289.699
289.537
289.224
288.318
290.099
290.024
289.986
289.927
289.831
289.669
289.356
288.454
290.88
290.835
290.803
290.754
290.671
290.526
290.235
289.356
291.156
291.115
291.086
291.038
290.958
290.815
290.526
289.669
291.296
291.256
291.227
291.18
291.1
290.958
290.671
289.832
291.376
291.336
291.307
291.26
291.18
291.038
290.754
289.927
291.422
291.383
291.354
291.307
291.227
291.085
290.803
289.985
291.449
291.41
291.381
291.333
291.253
291.112
290.831
290.018
291.461
291.422
291.393
291.345
291.265
291.124
290.843
290.034
288.248
289.158
289.47
289.632
289.727
289.784
289.818
289.833
288.991
289.894
290.186
290.33
290.412
290.461
290.489
290.502
289.014
289.915
290.208
290.352
290.434
290.483
290.511
290.524
288.318
289.224
289.537
289.699
289.794
289.851
289.885
289.9
)
;
    }
    symmetry
    {
        type            symmetry;
    }
    bottom
    {
        type            fixedValue;
        value           uniform 293;
    }
}


// ************************************************************************* //
