/*--------------------------------*- C++ -*----------------------------------*\
| =========                 |                                                 |
| \\      /  F ield         | OpenFOAM: The Open Source CFD Toolbox           |
|  \\    /   O peration     | Version:  v1912                                 |
|   \\  /    A nd           | Website:  www.openfoam.com                      |
|    \\/     M anipulation  |                                                 |
\*---------------------------------------------------------------------------*/
FoamFile
{
    version     2.0;
    format      ascii;
    class       volVectorField;
    location    "0.22/solid";
    object      U;
}
// * * * * * * * * * * * * * * * * * * * * * * * * * * * * * * * * * * * * * //

dimensions      [0 1 -1 0 0 0 0];


internalField   nonuniform List<vector> 
256
(
(6.33952e-08 5.449e-08 7.07879e-08)
(1.13164e-08 2.50815e-08 5.46439e-08)
(-1.15427e-08 2.47009e-08 5.45616e-08)
(-6.19639e-08 5.26139e-08 7.04841e-08)
(9.96624e-08 2.38087e-08 1.42312e-07)
(2.31895e-08 6.6398e-09 1.22331e-07)
(-2.24526e-08 6.12298e-09 1.22325e-07)
(-9.68065e-08 2.20535e-08 1.42252e-07)
(1.01082e-07 -2.00935e-08 1.88652e-07)
(2.44978e-08 -2.58876e-08 1.69281e-07)
(-2.2591e-08 -2.64381e-08 1.69359e-07)
(-9.71084e-08 -2.17763e-08 1.88829e-07)
(9.61039e-08 -6.35889e-08 2.29469e-07)
(2.25002e-08 -6.72854e-08 2.09235e-07)
(-1.94474e-08 -6.78413e-08 2.09361e-07)
(-9.10178e-08 -6.52616e-08 2.29772e-07)
(9.52592e-08 -1.08873e-07 2.71646e-07)
(2.2051e-08 -1.16866e-07 2.49368e-07)
(-1.78506e-08 -1.17427e-07 2.49522e-07)
(-8.90337e-08 -1.10555e-07 2.72025e-07)
(1.07141e-07 -1.60605e-07 3.20233e-07)
(2.71296e-08 -1.74961e-07 2.95432e-07)
(-2.175e-08 -1.75543e-07 2.95611e-07)
(-9.97416e-08 -1.62331e-07 3.20696e-07)
(1.44301e-07 -2.34508e-07 3.81128e-07)
(4.11686e-08 -2.44904e-07 3.54608e-07)
(-3.46058e-08 -2.45543e-07 3.54799e-07)
(-1.35649e-07 -2.36378e-07 3.81676e-07)
(2.06251e-07 -3.74307e-07 4.48349e-07)
(5.6591e-08 -3.49513e-07 4.2322e-07)
(-4.90058e-08 -3.5005e-07 4.23359e-07)
(-1.96186e-07 -3.76024e-07 4.48862e-07)
(2.66349e-08 1.08619e-08 2.27027e-08)
(4.17444e-09 -6.94991e-09 2.80008e-08)
(-4.22796e-09 -7.19758e-09 2.8032e-08)
(-2.53933e-08 9.40414e-09 2.27513e-08)
(4.37949e-08 -1.89924e-08 7.50341e-08)
(9.95566e-09 -3.01773e-08 8.49842e-08)
(-9.05864e-09 -3.06464e-08 8.50609e-08)
(-4.13149e-08 -2.05885e-08 7.52239e-08)
(4.32379e-08 -5.59573e-08 1.2085e-07)
(1.02577e-08 -6.01348e-08 1.32422e-07)
(-8.27796e-09 -6.06808e-08 1.32557e-07)
(-3.97463e-08 -5.76125e-08 1.21213e-07)
(3.86305e-08 -9.60436e-08 1.6162e-07)
(8.51164e-09 -9.93141e-08 1.73226e-07)
(-5.45933e-09 -9.98785e-08 1.7341e-07)
(-3.40929e-08 -9.77297e-08 1.62115e-07)
(3.74914e-08 -1.3939e-07 2.02069e-07)
(8.18992e-09 -1.47031e-07 2.13063e-07)
(-4.04803e-09 -1.47608e-07 2.1328e-07)
(-3.1855e-08 -1.41109e-07 2.02654e-07)
(4.82413e-08 -1.86538e-07 2.45167e-07)
(1.30878e-08 -2.00572e-07 2.55455e-07)
(-7.81916e-09 -2.01176e-07 2.55696e-07)
(-4.14523e-08 -1.88323e-07 2.45818e-07)
(8.37366e-08 -2.43e-07 2.87506e-07)
(2.66862e-08 -2.53183e-07 2.97444e-07)
(-2.02791e-08 -2.53854e-07 2.97694e-07)
(-7.56906e-08 -2.44946e-07 2.88188e-07)
(1.4474e-07 -3.36413e-07 3.08482e-07)
(4.1598e-08 -3.10278e-07 3.1866e-07)
(-3.4188e-08 -3.10887e-07 3.18897e-07)
(-1.3524e-07 -3.3822e-07 3.09131e-07)
(6.61291e-09 -2.22344e-09 1.35315e-08)
(-1.99117e-09 -1.34406e-08 2.09628e-08)
(1.93094e-09 -1.36506e-08 2.09802e-08)
(-5.47823e-09 -3.55454e-09 1.35702e-08)
(9.84873e-09 -3.94416e-08 5.30655e-08)
(-2.00064e-09 -4.60532e-08 6.61974e-08)
(2.83576e-09 -4.64793e-08 6.62449e-08)
(-7.58709e-09 -4.09007e-08 5.31993e-08)
(7.2551e-09 -7.7426e-08 9.4136e-08)
(-2.84393e-09 -8.01011e-08 1.088e-07)
(4.6947e-09 -8.06201e-08 1.08884e-07)
(-4.05534e-09 -7.89954e-08 9.4379e-08)
(3.3002e-09 -1.15186e-07 1.32926e-07)
(-4.37755e-09 -1.18343e-07 1.47687e-07)
(7.24072e-09 -1.18895e-07 1.47807e-07)
(8.89718e-10 -1.16827e-07 1.33271e-07)
(2.64401e-09 -1.53221e-07 1.69972e-07)
(-4.54065e-09 -1.61055e-07 1.8444e-07)
(8.44577e-09 -1.61627e-07 1.84589e-07)
(2.60588e-09 -1.54921e-07 1.70399e-07)
(1.34376e-08 -1.90258e-07 2.04627e-07)
(2.26591e-10 -2.04446e-07 2.18791e-07)
(4.7722e-09 -2.05051e-07 2.18961e-07)
(-7.05279e-09 -1.92042e-07 2.05114e-07)
(4.84332e-08 -2.30121e-07 2.30539e-07)
(1.34128e-08 -2.40662e-07 2.44589e-07)
(-7.29629e-09 -2.4134e-07 2.44769e-07)
(-4.07855e-08 -2.32078e-07 2.31052e-07)
(1.07797e-07 -3.04898e-07 2.34444e-07)
(2.78907e-08 -2.80511e-07 2.48857e-07)
(-2.07958e-08 -2.81126e-07 2.49032e-07)
(-9.86768e-08 -3.06671e-07 2.34934e-07)
(7.34488e-12 -6.09944e-09 1.18718e-08)
(-4.08798e-09 -1.41899e-08 1.61807e-08)
(3.99661e-09 -1.43899e-08 1.61984e-08)
(1.07304e-09 -7.389e-09 1.1922e-08)
(-2.38658e-09 -4.69806e-08 4.31956e-08)
(-6.62884e-09 -5.12715e-08 5.08994e-08)
(7.36974e-09 -5.16729e-08 5.09455e-08)
(4.51998e-09 -4.83598e-08 4.33325e-08)
(-6.03725e-09 -8.67279e-08 7.71432e-08)
(-8.09735e-09 -8.85967e-08 8.57382e-08)
(9.79604e-09 -8.90903e-08 8.58107e-08)
(9.05137e-09 -8.82193e-08 7.73597e-08)
(-9.38734e-09 -1.22942e-07 1.10339e-07)
(-9.44894e-09 -1.26145e-07 1.18912e-07)
(1.21105e-08 -1.26677e-07 1.19009e-07)
(1.33443e-08 -1.24523e-07 1.1063e-07)
(-9.21677e-09 -1.5598e-07 1.41043e-07)
(-9.3484e-09 -1.64103e-07 1.49334e-07)
(1.30133e-08 -1.64662e-07 1.49454e-07)
(1.41987e-08 -1.57637e-07 1.41399e-07)
(2.17722e-09 -1.85162e-07 1.66771e-07)
(-4.48814e-09 -1.99638e-07 1.74774e-07)
(9.22185e-09 -2.00234e-07 1.74911e-07)
(3.9214e-09 -1.86921e-07 1.67176e-07)
(3.7089e-08 -2.16749e-07 1.82583e-07)
(8.49625e-09 -2.27941e-07 1.90463e-07)
(-2.65914e-09 -2.28616e-07 1.90609e-07)
(-2.9728e-08 -2.18696e-07 1.83012e-07)
(9.52494e-08 -2.86076e-07 1.82668e-07)
(2.27389e-08 -2.6414e-07 1.90972e-07)
(-1.59397e-08 -2.64752e-07 1.9112e-07)
(-8.64067e-08 -2.87831e-07 1.83091e-07)
(-1.38308e-09 -7.40206e-09 1.02248e-08)
(-4.23596e-09 -1.42138e-08 1.21324e-08)
(4.11918e-09 -1.44091e-08 1.21516e-08)
(2.42847e-09 -8.6674e-09 1.02833e-08)
(-4.86202e-09 -4.89267e-08 3.46499e-08)
(-7.23815e-09 -5.23431e-08 3.79716e-08)
(7.89979e-09 -5.27304e-08 3.8018e-08)
(6.90471e-09 -5.02567e-08 3.47896e-08)
(-8.55128e-09 -8.89541e-08 6.08567e-08)
(-8.80425e-09 -9.05827e-08 6.44819e-08)
(1.03743e-08 -9.10579e-08 6.4549e-08)
(1.14273e-08 -9.03877e-08 6.10591e-08)
(-1.13716e-08 -1.23823e-07 8.66178e-08)
(-9.98662e-09 -1.27169e-07 9.01233e-08)
(1.24777e-08 -1.27684e-07 9.02085e-08)
(1.51505e-08 -1.2535e-07 8.68747e-08)
(-1.0503e-08 -1.53612e-07 1.09831e-07)
(-9.65623e-09 -1.61994e-07 1.13085e-07)
(1.31183e-08 -1.62539e-07 1.13186e-07)
(1.52766e-08 -1.55229e-07 1.10134e-07)
(1.41658e-09 -1.78717e-07 1.2799e-07)
(-4.66986e-09 -1.93447e-07 1.31007e-07)
(9.17898e-09 -1.94036e-07 1.3112e-07)
(4.45603e-09 -1.80452e-07 1.28328e-07)
(3.62682e-08 -2.07366e-07 1.38086e-07)
(8.21297e-09 -2.19108e-07 1.41011e-07)
(-2.61165e-09 -2.19783e-07 1.41132e-07)
(-2.91363e-08 -2.09317e-07 1.38444e-07)
(9.36791e-08 -2.74899e-07 1.37848e-07)
(2.23518e-08 -2.54832e-07 1.41104e-07)
(-1.57906e-08 -2.5545e-07 1.41232e-07)
(-8.50555e-08 -2.76678e-07 1.38218e-07)
(-1.4273e-09 -7.7958e-09 7.84224e-09)
(-3.96738e-09 -1.41287e-08 8.58931e-09)
(3.83107e-09 -1.43209e-08 8.60661e-09)
(2.4474e-09 -9.0444e-09 7.89595e-09)
(-4.596e-09 -4.8788e-08 2.54509e-08)
(-6.78671e-09 -5.19898e-08 2.66353e-08)
(7.38655e-09 -5.23685e-08 2.66754e-08)
(6.5709e-09 -5.00855e-08 2.55721e-08)
(-7.89659e-09 -8.81714e-08 4.39392e-08)
(-8.2232e-09 -8.98348e-08 4.51298e-08)
(9.69181e-09 -9.0298e-08 4.51856e-08)
(1.06673e-08 -8.95652e-08 4.41073e-08)
(-1.0274e-08 -1.21887e-07 6.19498e-08)
(-9.25636e-09 -1.25399e-07 6.29973e-08)
(1.16123e-08 -1.25901e-07 6.30653e-08)
(1.39156e-08 -1.23376e-07 6.21557e-08)
(-8.9483e-09 -1.4996e-07 7.78665e-08)
(-8.77685e-09 -1.5853e-07 7.87314e-08)
(1.20772e-08 -1.59066e-07 7.88093e-08)
(1.35598e-08 -1.51546e-07 7.81033e-08)
(3.27639e-09 -1.7345e-07 8.98926e-08)
(-3.71397e-09 -1.88347e-07 9.06047e-08)
(8.04347e-09 -1.88932e-07 9.06903e-08)
(2.41928e-09 -1.75175e-07 9.0152e-08)
(3.80458e-08 -2.01357e-07 9.63568e-08)
(9.10551e-09 -2.13422e-07 9.70239e-08)
(-3.69095e-09 -2.14102e-07 9.71158e-08)
(-3.1093e-08 -2.03325e-07 9.66312e-08)
(9.50017e-08 -2.68098e-07 9.63327e-08)
(2.31962e-08 -2.49104e-07 9.72126e-08)
(-1.68136e-08 -2.49736e-07 9.73131e-08)
(-8.65443e-08 -2.69923e-07 9.66248e-08)
(-1.31221e-09 -7.85002e-09 4.90914e-09)
(-3.76186e-09 -1.40026e-08 5.18325e-09)
(3.6117e-09 -1.41931e-08 5.19518e-09)
(2.31504e-09 -9.08786e-09 4.9464e-09)
(-4.08815e-09 -4.81319e-08 1.55484e-08)
(-6.37614e-09 -5.13305e-08 1.5918e-08)
(6.93252e-09 -5.1704e-08 1.59452e-08)
(6.01637e-09 -4.94087e-08 1.56304e-08)
(-7.02457e-09 -8.6745e-08 2.65171e-08)
(-7.67526e-09 -8.85074e-08 2.6823e-08)
(9.0725e-09 -8.89633e-08 2.686e-08)
(9.72235e-09 -8.81138e-08 2.66284e-08)
(-9.09221e-09 -1.19642e-07 3.70865e-08)
(-8.60175e-09 -1.23285e-07 3.72871e-08)
(1.08624e-08 -1.2378e-07 3.73312e-08)
(1.26382e-08 -1.21107e-07 3.72202e-08)
(-7.50702e-09 -1.46921e-07 4.63114e-08)
(-8.03978e-09 -1.55608e-07 4.64056e-08)
(1.12259e-08 -1.56139e-07 4.64552e-08)
(1.20055e-08 -1.4849e-07 4.64626e-08)
(4.86229e-09 -1.69913e-07 5.31792e-08)
(-2.94332e-09 -1.84897e-07 5.3195e-08)
(7.14595e-09 -1.85482e-07 5.32488e-08)
(7.09926e-10 -1.71635e-07 5.33431e-08)
(3.95588e-08 -1.97758e-07 5.68534e-08)
(9.83607e-09 -2.09971e-07 5.68553e-08)
(-4.55168e-09 -2.10657e-07 5.69132e-08)
(-3.27297e-08 -1.99747e-07 5.70265e-08)
(9.62479e-08 -2.64127e-07 5.6936e-08)
(2.38996e-08 -2.45637e-07 5.70521e-08)
(-1.76363e-08 -2.46282e-07 5.71169e-08)
(-8.79021e-08 -2.65997e-07 5.71237e-08)
(-1.25559e-09 -7.82452e-09 1.66891e-09)
(-3.67176e-09 -1.39117e-08 1.73886e-09)
(3.51432e-09 -1.41014e-08 1.74311e-09)
(2.24959e-09 -9.0571e-09 1.68217e-09)
(-3.84059e-09 -4.76658e-08 5.22732e-09)
(-6.18824e-09 -5.08889e-08 5.30888e-09)
(6.72203e-09 -5.12599e-08 5.31849e-09)
(5.74487e-09 -4.89326e-08 5.25623e-09)
(-6.58967e-09 -8.58152e-08 8.85973e-09)
(-7.41568e-09 -8.76422e-08 8.91159e-09)
(8.77593e-09 -8.80946e-08 8.92454e-09)
(9.25004e-09 -8.71719e-08 8.89867e-09)
(-8.50314e-09 -1.18298e-07 1.23371e-08)
(-8.28886e-09 -1.22009e-07 1.23513e-08)
(1.05001e-08 -1.22501e-07 1.23666e-08)
(1.20001e-08 -1.19751e-07 1.23834e-08)
(-6.80205e-09 -1.45273e-07 1.53539e-08)
(-7.69083e-09 -1.54016e-07 1.53337e-08)
(1.08178e-08 -1.54544e-07 1.53508e-08)
(1.12425e-08 -1.46835e-07 1.5406e-08)
(5.62261e-09 -1.68153e-07 1.75887e-08)
(-2.58281e-09 -1.83172e-07 1.7545e-08)
(6.72005e-09 -1.83758e-07 1.75634e-08)
(-1.13536e-10 -1.69876e-07 1.76448e-08)
(4.02784e-08 -1.96055e-07 1.87866e-08)
(1.01771e-08 -2.08318e-07 1.87408e-08)
(-4.95904e-09 -2.09009e-07 1.87606e-08)
(-3.3512e-08 -1.98058e-07 1.88458e-08)
(9.68422e-08 -2.62282e-07 1.8832e-08)
(2.42271e-08 -2.43977e-07 1.88218e-08)
(-1.80226e-08 -2.4463e-07 1.88442e-08)
(-8.85514e-08 -2.64179e-07 1.88968e-08)
)
;

boundaryField
{
    interface
    {
        type            calculated;
        value           nonuniform List<vector> 
192
(
(4.10345e-08 9.52542e-08 6.1229e-08)
(7.02852e-08 3.32303e-08 1.27023e-07)
(7.23114e-08 -2.09833e-08 1.72602e-07)
(6.87067e-08 -6.50447e-08 2.13686e-07)
(6.87324e-08 -1.06114e-07 2.56105e-07)
(7.97932e-08 -1.48345e-07 3.04736e-07)
(1.11856e-07 -2.09731e-07 3.65362e-07)
(1.94459e-07 -3.57791e-07 4.32034e-07)
(-1.64805e-08 2.84692e-08 8.50799e-09)
(-3.63573e-09 -1.48418e-08 5.25813e-08)
(-4.39036e-09 -5.72486e-08 9.7394e-08)
(-8.68021e-09 -9.74804e-08 1.38419e-07)
(-9.91294e-09 -1.36987e-07 1.78916e-07)
(-8.75887e-10 -1.74977e-07 2.21742e-07)
(2.87668e-08 -2.18875e-07 2.63539e-07)
(1.12342e-07 -3.20436e-07 2.83869e-07)
(-3.52472e-08 1.89186e-09 6.87532e-09)
(-3.33623e-08 -3.92812e-08 4.15208e-08)
(-3.60521e-08 -7.90633e-08 8.18177e-08)
(-3.98258e-08 -1.16339e-07 1.20922e-07)
(-4.05156e-08 -1.50687e-07 1.58296e-07)
(-3.09701e-08 -1.78811e-07 1.93111e-07)
(-6.52108e-10 -2.06532e-07 2.18878e-07)
(8.05718e-08 -2.89176e-07 2.22072e-07)
(-4.21355e-08 -6.69435e-09 9.87329e-09)
(-4.48729e-08 -4.84919e-08 3.95184e-08)
(-4.84916e-08 -8.84783e-08 7.31919e-08)
(-5.16383e-08 -1.23737e-07 1.06671e-07)
(-5.14147e-08 -1.53089e-07 1.37757e-07)
(-4.10319e-08 -1.73586e-07 1.63766e-07)
(-1.02797e-08 -1.93481e-07 1.79542e-07)
(6.89715e-08 -2.70347e-07 1.79138e-07)
(-4.42339e-08 -8.96343e-09 9.8665e-09)
(-4.77853e-08 -5.07189e-08 3.40979e-08)
(-5.13548e-08 -9.05817e-08 6.03921e-08)
(-5.3898e-08 -1.24311e-07 8.63963e-08)
(-5.28853e-08 -1.50416e-07 1.09898e-07)
(-4.18571e-08 -1.67024e-07 1.28265e-07)
(-1.09856e-08 -1.84301e-07 1.38325e-07)
(6.68275e-08 -2.59108e-07 1.37787e-07)
(-4.48626e-08 -9.30171e-09 7.86023e-09)
(-4.80277e-08 -5.04055e-08 2.56446e-08)
(-5.11549e-08 -8.95912e-08 4.4321e-08)
(-5.31874e-08 -1.2215e-07 6.25198e-08)
(-5.16491e-08 -1.46572e-07 7.86157e-08)
(-4.02647e-08 -1.61702e-07 9.07541e-08)
(-9.44253e-09 -1.78426e-07 9.71795e-08)
(6.74357e-08 -2.5228e-07 9.6975e-08)
(-4.51399e-08 -9.2002e-09 4.95222e-09)
(-4.78844e-08 -4.95601e-08 1.57374e-08)
(-5.06164e-08 -8.79963e-08 2.68439e-08)
(-5.22942e-08 -1.19763e-07 3.75293e-08)
(-5.04559e-08 -1.43432e-07 4.6848e-08)
(-3.89109e-08 -1.58147e-07 5.37659e-08)
(-8.17693e-09 -1.74912e-07 5.74116e-08)
(6.81447e-08 -2.48314e-07 5.73962e-08)
(-4.52799e-08 -9.09865e-09 1.68312e-09)
(-4.78212e-08 -4.89994e-08 5.28926e-09)
(-5.03509e-08 -8.69811e-08 8.96849e-09)
(-5.1853e-08 -1.18351e-07 1.24844e-08)
(-4.98807e-08 -1.41742e-07 1.55302e-08)
(-3.82777e-08 -1.56383e-07 1.77788e-08)
(-7.60116e-09 -1.73251e-07 1.89665e-08)
(6.84596e-08 -2.4648e-07 1.89806e-08)
(6.41359e-08 1.07765e-07 3.92364e-08)
(1.02309e-07 5.32752e-08 1.02857e-07)
(1.04262e-07 1.69611e-09 1.501e-07)
(9.89352e-08 -4.28404e-08 1.93021e-07)
(9.74583e-08 -8.61815e-08 2.36765e-07)
(1.08688e-07 -1.33235e-07 2.84843e-07)
(1.45553e-07 -2.02479e-07 3.40422e-07)
(2.08125e-07 -3.58216e-07 4.2705e-07)
(7.25699e-09 6.93254e-08 7.33103e-09)
(1.81901e-08 3.52994e-08 6.69532e-08)
(1.96721e-08 -4.16118e-09 1.13043e-07)
(1.74709e-08 -4.72636e-08 1.53647e-07)
(1.65179e-08 -9.53167e-08 1.93986e-07)
(2.09719e-08 -1.48651e-07 2.38037e-07)
(3.45844e-08 -2.12957e-07 2.90529e-07)
(5.03423e-08 -3.33181e-07 3.82274e-07)
(-7.58556e-09 6.89227e-08 6.81639e-09)
(-1.74749e-08 3.48226e-08 6.66046e-08)
(-1.77065e-08 -4.67877e-09 1.1274e-07)
(-1.43156e-08 -4.78006e-08 1.53362e-07)
(-1.21885e-08 -9.58648e-08 1.93705e-07)
(-1.54362e-08 -1.49224e-07 2.37744e-07)
(-2.78406e-08 -2.13606e-07 2.9019e-07)
(-4.25969e-08 -3.33723e-07 3.81749e-07)
(-6.27574e-08 1.05798e-07 3.77292e-08)
(-9.94182e-08 5.16398e-08 1.0196e-07)
(-1.00184e-07 1.03628e-10 1.49298e-07)
(-9.37064e-08 -4.44624e-08 1.92243e-07)
(-9.10669e-08 -8.78238e-08 2.35994e-07)
(-1.01099e-07 -1.34918e-07 2.8408e-07)
(-1.36687e-07 -2.04336e-07 3.39663e-07)
(-1.97845e-07 -3.5993e-07 4.26162e-07)
(-3.19627e-08 9.23069e-08 6.09423e-08)
(-5.97327e-08 3.08401e-08 1.27071e-07)
(-6.05629e-08 -2.32231e-08 1.72948e-07)
(-5.58153e-08 -6.72799e-08 2.14194e-07)
(-5.46963e-08 -1.08373e-07 2.56712e-07)
(-6.45398e-08 -1.50676e-07 3.05443e-07)
(-9.50763e-08 -2.12266e-07 3.66166e-07)
(-1.74344e-07 -3.60172e-07 4.32794e-07)
(2.37407e-08 2.60814e-08 8.6285e-09)
(1.19697e-08 -1.69999e-08 5.29173e-08)
(1.37855e-08 -5.94177e-08 9.79477e-08)
(1.91507e-08 -9.97022e-08 1.39136e-07)
(2.15042e-08 -1.39269e-07 1.79743e-07)
(1.36933e-08 -1.77364e-07 2.22644e-07)
(-1.44035e-08 -2.21498e-07 2.64471e-07)
(-9.4659e-08 -3.22923e-07 2.84753e-07)
(4.20254e-08 -2.88089e-10 6.95238e-09)
(4.10828e-08 -4.12562e-08 4.17392e-08)
(4.47559e-08 -8.11143e-08 8.21782e-08)
(4.95609e-08 -1.18492e-07 1.2141e-07)
(5.13663e-08 -1.52935e-07 1.58885e-07)
(4.30905e-08 -1.81193e-07 1.93769e-07)
(1.44058e-08 -2.09171e-07 2.19561e-07)
(-6.34668e-08 -2.91627e-07 2.22725e-07)
(4.87409e-08 -8.78718e-09 9.94448e-09)
(5.23356e-08 -5.03542e-08 3.97086e-08)
(5.68799e-08 -9.0425e-08 7.34881e-08)
(6.10218e-08 -1.25809e-07 1.07064e-07)
(6.19054e-08 -1.5528e-07 1.38231e-07)
(5.28212e-08 -1.75938e-07 1.64298e-07)
(2.37666e-08 -1.96113e-07 1.80099e-07)
(-5.20945e-08 -2.7278e-07 1.79685e-07)
(5.08006e-08 -1.10006e-08 9.93912e-09)
(5.51509e-08 -5.25063e-08 3.42762e-08)
(5.96017e-08 -9.24488e-08 6.06545e-08)
(6.31091e-08 -1.26312e-07 8.67314e-08)
(6.31915e-08 -1.52554e-07 1.10294e-07)
(5.34749e-08 -1.69348e-07 1.28703e-07)
(2.43395e-08 -1.86937e-07 1.38785e-07)
(-5.00526e-08 -2.61572e-07 1.38252e-07)
(5.14452e-08 -1.12989e-08 7.9239e-09)
(5.53683e-08 -5.21402e-08 2.57938e-08)
(5.93428e-08 -9.1401e-08 4.45331e-08)
(6.23139e-08 -1.24099e-07 6.27834e-08)
(6.18578e-08 -1.48672e-07 7.89208e-08)
(5.17892e-08 -1.6401e-07 9.10883e-08)
(2.27274e-08 -1.81083e-07 9.75294e-08)
(-5.07034e-08 -2.54799e-07 9.73363e-08)
(5.17513e-08 -1.11707e-08 4.99563e-09)
(5.52259e-08 -5.12603e-08 1.58367e-08)
(5.87813e-08 -8.97689e-08 2.69825e-08)
(6.13787e-08 -1.21677e-07 3.76989e-08)
(6.06117e-08 -1.45507e-07 4.70418e-08)
(5.03832e-08 -1.6045e-07 5.39761e-08)
(2.14244e-08 -1.77592e-07 5.76311e-08)
(-5.14296e-08 -2.50888e-07 5.76254e-08)
(5.19103e-08 -1.10556e-08 1.69846e-09)
(5.51675e-08 -5.06825e-08 5.32403e-09)
(5.8509e-08 -8.87353e-08 9.01668e-09)
(6.0921e-08 -1.20248e-07 1.25429e-08)
(6.00139e-08 -1.43806e-07 1.55967e-08)
(4.97276e-08 -1.58686e-07 1.78506e-08)
(2.08339e-08 -1.75946e-07 1.90413e-08)
(-5.17475e-08 -2.49086e-07 1.90591e-08)
(2.08309e-07 -3.53064e-07 4.46921e-07)
(1.46193e-07 -2.95779e-07 2.9113e-07)
(1.0956e-07 -2.69648e-07 2.2186e-07)
(9.76283e-08 -2.51541e-07 1.75168e-07)
(9.6556e-08 -2.39292e-07 1.33354e-07)
(9.81605e-08 -2.31288e-07 9.36397e-08)
(9.953e-08 -2.26445e-07 5.5482e-08)
(1.00165e-07 -2.24158e-07 1.83708e-08)
(5.05254e-08 -3.08623e-07 4.21578e-07)
(3.52146e-08 -2.46293e-07 3.0141e-07)
(2.19458e-08 -2.2331e-07 2.37322e-07)
(1.74057e-08 -2.09155e-07 1.84553e-07)
(1.74875e-08 -1.99926e-07 1.37346e-07)
(1.86035e-08 -1.93647e-07 9.49139e-08)
(1.94361e-08 -1.8961e-07 5.57702e-08)
(1.98118e-08 -1.87619e-07 1.84067e-08)
(-4.23792e-08 -3.08482e-07 4.21732e-07)
(-2.72042e-08 -2.46349e-07 3.01666e-07)
(-1.42579e-08 -2.23414e-07 2.37498e-07)
(-1.00192e-08 -2.09274e-07 1.84701e-07)
(-1.03313e-08 -2.0005e-07 1.37478e-07)
(-1.16112e-08 -1.93777e-07 9.50211e-08)
(-1.25485e-08 -1.89746e-07 5.58404e-08)
(-1.29742e-08 -1.87759e-07 1.84312e-08)
(-1.97619e-07 -3.53333e-07 4.47458e-07)
(-1.36057e-07 -2.96211e-07 2.91793e-07)
(-9.98144e-08 -2.70091e-07 2.22337e-07)
(-8.81645e-08 -2.51988e-07 1.75593e-07)
(-8.73039e-08 -2.39759e-07 1.33741e-07)
(-8.90617e-08 -2.31788e-07 9.39547e-08)
(-9.05303e-08 -2.26978e-07 5.56878e-08)
(-9.12127e-08 -2.24711e-07 1.84423e-08)
)
;
    }
    symmetry
    {
        type            symmetry;
    }
    bottom
    {
        type            calculated;
        value           uniform (0 0 0);
    }
}


// ************************************************************************* //
