/*--------------------------------*- C++ -*----------------------------------*\
| =========                 |                                                 |
| \\      /  F ield         | OpenFOAM: The Open Source CFD Toolbox           |
|  \\    /   O peration     | Version:  v1912                                 |
|   \\  /    A nd           | Website:  www.openfoam.com                      |
|    \\/     M anipulation  |                                                 |
\*---------------------------------------------------------------------------*/
FoamFile
{
    version     2.0;
    format      ascii;
    class       volSymmTensorField;
    location    "0.92/solid";
    object      epsilon;
}
// * * * * * * * * * * * * * * * * * * * * * * * * * * * * * * * * * * * * * //

dimensions      [0 0 0 0 0 0 0];


internalField   nonuniform List<symmTensor> 
256
(
(-2.9048e-06 2.38161e-07 -8.29319e-08 1.54507e-06 2.78875e-07 -2.94556e-06)
(-7.13603e-07 -2.80141e-08 -3.5863e-08 9.67398e-07 2.76503e-07 -2.59607e-06)
(-6.89574e-07 1.05313e-08 3.31252e-08 9.4684e-07 2.754e-07 -2.54992e-06)
(-2.67036e-06 -2.34961e-07 8.08725e-08 1.47194e-06 2.75412e-07 -2.81398e-06)
(-3.04366e-06 7.89996e-09 -1.2914e-07 -5.43199e-07 5.03857e-08 -3.03589e-06)
(-1.24259e-06 -3.66295e-08 -6.04036e-08 -2.80088e-07 6.15902e-08 -2.64382e-06)
(-1.20983e-06 2.9999e-08 5.70714e-08 -2.82085e-07 6.19536e-08 -2.59865e-06)
(-2.79841e-06 -9.61835e-09 1.26193e-07 -5.40007e-07 5.07293e-08 -2.90606e-06)
(-3.12502e-06 -3.21057e-08 -1.40513e-07 -7.06238e-07 9.61332e-09 -3.11344e-06)
(-1.32048e-06 -3.73638e-08 -6.7113e-08 -5.29865e-07 1.10091e-08 -2.66573e-06)
(-1.28765e-06 3.43552e-08 6.41498e-08 -5.28756e-07 1.12561e-08 -2.61935e-06)
(-2.87537e-06 3.06815e-08 1.37523e-07 -7.00023e-07 9.8531e-09 -2.97908e-06)
(-3.18964e-06 -2.31785e-08 -1.46775e-07 -6.7969e-07 1.68936e-08 -3.20126e-06)
(-1.28392e-06 -2.9584e-08 -7.04743e-08 -6.51641e-07 1.26757e-08 -2.7157e-06)
(-1.25101e-06 2.73357e-08 6.77833e-08 -6.5007e-07 1.26583e-08 -2.66806e-06)
(-2.93515e-06 2.2316e-08 1.43843e-07 -6.74639e-07 1.65463e-08 -3.06309e-06)
(-3.28658e-06 -2.09938e-09 -1.5324e-07 -7.21379e-07 4.17509e-08 -3.31584e-06)
(-1.28547e-06 -1.49764e-08 -7.41084e-08 -7.65896e-07 3.58283e-08 -2.80443e-06)
(-1.25205e-06 1.27906e-08 7.14872e-08 -7.64364e-07 3.56182e-08 -2.75574e-06)
(-3.02719e-06 1.36659e-09 1.50342e-07 -7.16555e-07 4.09088e-08 -3.17474e-06)
(-3.45841e-06 3.91395e-08 -1.58383e-07 -9.67106e-07 8.804e-08 -3.47878e-06)
(-1.40933e-06 1.1862e-08 -7.72823e-08 -9.72681e-07 8.44263e-08 -2.95248e-06)
(-1.37545e-06 -1.48435e-08 7.45679e-08 -9.70459e-07 8.40345e-08 -2.9028e-06)
(-3.19461e-06 -4.01626e-08 1.55489e-07 -9.60214e-07 8.67142e-08 -3.33513e-06)
(-3.75649e-06 1.07725e-07 -1.55067e-07 -1.84487e-06 1.54276e-07 -3.74354e-06)
(-1.72248e-06 5.17939e-08 -7.59444e-08 -1.66773e-06 1.61577e-07 -3.23836e-06)
(-1.68785e-06 -5.67313e-08 7.29866e-08 -1.65868e-06 1.60933e-07 -3.18763e-06)
(-3.48809e-06 -1.09069e-07 1.52155e-07 -1.81959e-06 1.52369e-07 -3.59751e-06)
(-4.26887e-06 1.37551e-07 -1.37297e-07 -4.24727e-06 1.77212e-07 -4.24471e-06)
(-2.13671e-06 6.76523e-08 -6.75974e-08 -3.87829e-06 1.9492e-07 -3.87478e-06)
(-2.09902e-06 -6.46301e-08 6.43842e-08 -3.82645e-06 1.94252e-07 -3.8234e-06)
(-3.99095e-06 -1.34721e-07 1.34427e-07 -4.10076e-06 1.75449e-07 -4.09962e-06)
(-2.34094e-06 1.44156e-07 -6.64142e-08 6.27832e-07 6.28836e-08 -6.14896e-07)
(-4.78288e-07 -5.44148e-08 -2.29882e-08 1.49311e-07 1.64601e-07 -5.15055e-07)
(-4.55689e-07 4.85126e-08 2.49721e-08 1.34565e-07 1.66483e-07 -5.10112e-07)
(-2.11247e-06 -1.36691e-07 6.68321e-08 5.69088e-07 6.74648e-08 -6.01523e-07)
(-2.44997e-06 -1.00047e-08 -1.04556e-07 -4.03752e-07 6.92492e-08 -1.00798e-06)
(-8.47251e-07 -4.08393e-08 -4.61173e-08 -1.90609e-07 1.23565e-07 -8.50088e-07)
(-8.17411e-07 4.04613e-08 4.86039e-08 -1.95446e-07 1.24374e-07 -8.43119e-07)
(-2.21596e-06 1.05489e-08 1.0481e-07 -4.08018e-07 7.07414e-08 -9.88403e-07)
(-2.4937e-06 -3.40227e-08 -1.11094e-07 -5.45263e-07 5.76437e-08 -1.09162e-06)
(-8.88219e-07 -3.55116e-08 -5.09305e-08 -4.01167e-07 7.43619e-08 -9.13764e-07)
(-8.58973e-07 3.54105e-08 5.39584e-08 -4.01828e-07 7.46744e-08 -9.06731e-07)
(-2.25697e-06 3.36478e-08 1.11397e-07 -5.43498e-07 5.78649e-08 -1.07141e-06)
(-2.53303e-06 -2.42987e-08 -1.13393e-07 -5.88263e-07 6.01645e-08 -1.11945e-06)
(-8.42586e-07 -2.77917e-08 -5.17504e-08 -5.7189e-07 6.11877e-08 -9.28148e-07)
(-8.13511e-07 2.71989e-08 5.53834e-08 -5.71023e-07 6.11087e-08 -9.21133e-07)
(-2.29188e-06 2.40918e-08 1.13872e-07 -5.85011e-07 5.93836e-08 -1.09912e-06)
(-2.61458e-06 -3.85471e-09 -1.16855e-07 -6.44038e-07 9.34789e-08 -1.16888e-06)
(-8.36986e-07 -1.44681e-08 -5.38167e-08 -6.94582e-07 8.90514e-08 -9.65396e-07)
(-8.07404e-07 1.35559e-08 5.7771e-08 -6.93376e-07 8.86015e-08 -9.58264e-07)
(-2.36796e-06 3.71644e-09 1.17471e-07 -6.40116e-07 9.16894e-08 -1.14821e-06)
(-2.78516e-06 3.95634e-08 -1.19527e-07 -8.10917e-07 1.48553e-07 -1.28075e-06)
(-9.56448e-07 1.22323e-08 -5.60619e-08 -8.16931e-07 1.42868e-07 -1.06759e-06)
(-9.26204e-07 -1.411e-08 6.00076e-08 -8.15159e-07 1.42093e-07 -1.06021e-06)
(-2.53276e-06 -3.99805e-08 1.20217e-07 -8.05203e-07 1.45851e-07 -1.25946e-06)
(-3.1174e-06 1.1683e-07 -1.16674e-07 -1.50063e-06 1.90621e-07 -1.50823e-06)
(-1.27939e-06 5.51213e-08 -5.52112e-08 -1.29525e-06 1.89009e-07 -1.29923e-06)
(-1.24802e-06 -5.93797e-08 5.90133e-08 -1.28716e-06 1.88041e-07 -1.29134e-06)
(-2.85849e-06 -1.17682e-07 1.17451e-07 -1.47755e-06 1.87441e-07 -1.48571e-06)
(-3.75913e-06 1.55231e-07 -1.07436e-07 -3.74627e-06 1.55129e-07 -1.84582e-06)
(-1.72269e-06 7.59597e-08 -5.18795e-08 -3.24254e-06 1.62317e-07 -1.66551e-06)
(-1.68782e-06 -7.30895e-08 5.6184e-08 -3.19103e-06 1.61691e-07 -1.65662e-06)
(-3.48886e-06 -1.52297e-07 1.08637e-07 -3.5979e-06 1.53284e-07 -1.82097e-06)
(-1.98665e-06 7.76799e-08 -2.84314e-08 2.51703e-07 1.2262e-07 -9.15271e-08)
(-3.05452e-07 -8.39756e-08 -4.7127e-09 -1.43704e-07 2.23648e-07 -9.46007e-08)
(-2.83628e-07 8.05479e-08 5.32866e-09 -1.56764e-07 2.24162e-07 -9.45953e-08)
(-1.76571e-06 -6.95208e-08 2.83955e-08 1.97062e-07 1.24155e-07 -9.13004e-08)
(-2.09803e-06 -2.10483e-08 -4.39415e-08 -4.73162e-07 1.45493e-07 -3.08428e-07)
(-5.43651e-07 -4.66735e-08 -1.35821e-08 -2.97656e-07 1.975e-07 -3.15763e-07)
(-5.14899e-07 4.87325e-08 1.41206e-08 -3.0286e-07 1.97663e-07 -3.14976e-07)
(-1.87151e-06 2.25292e-08 4.37959e-08 -4.78756e-07 1.45692e-07 -3.05836e-07)
(-2.13637e-06 -3.30506e-08 -4.42647e-08 -5.11791e-07 1.35655e-07 -4.27104e-07)
(-5.55887e-07 -3.40957e-08 -1.45363e-08 -3.99247e-07 1.51958e-07 -4.36037e-07)
(-5.27895e-07 3.57548e-08 1.51254e-08 -4.00669e-07 1.51886e-07 -4.35042e-07)
(-1.90735e-06 3.33545e-08 4.41241e-08 -5.12036e-07 1.35049e-07 -4.2377e-07)
(-2.17161e-06 -2.3741e-08 -4.27301e-08 -5.10911e-07 1.28898e-07 -4.87862e-07)
(-5.07308e-07 -2.67517e-08 -1.32817e-08 -5.07875e-07 1.30251e-07 -4.96041e-07)
(-4.79589e-07 2.72446e-08 1.41492e-08 -5.07629e-07 1.29922e-07 -4.95075e-07)
(-1.93823e-06 2.39666e-08 4.26901e-08 -5.09267e-07 1.27546e-07 -4.84479e-07)
(-2.25269e-06 -4.20567e-09 -4.23095e-08 -5.26355e-07 1.43827e-07 -5.53013e-07)
(-5.00658e-07 -1.48159e-08 -1.3039e-08 -5.81697e-07 1.40251e-07 -5.58991e-07)
(-4.72397e-07 1.45048e-08 1.41242e-08 -5.80963e-07 1.39638e-07 -5.57985e-07)
(-2.01335e-06 4.35625e-09 4.23736e-08 -5.23694e-07 1.41671e-07 -5.49433e-07)
(-2.4316e-06 4.04032e-08 -4.2046e-08 -6.34453e-07 1.64881e-07 -6.63238e-07)
(-6.21392e-07 1.19663e-08 -1.35305e-08 -6.41291e-07 1.5961e-07 -6.66699e-07)
(-5.9227e-07 -1.36294e-08 1.46684e-08 -6.39983e-07 1.58776e-07 -6.65491e-07)
(-2.18521e-06 -4.06276e-08 4.21928e-08 -6.29949e-07 1.62074e-07 -6.59056e-07)
(-2.78675e-06 1.19765e-07 -4.11887e-08 -1.26647e-06 1.54385e-07 -8.26474e-07)
(-9.52457e-07 5.5974e-08 -1.39423e-08 -1.05723e-06 1.48595e-07 -8.29551e-07)
(-9.21859e-07 -6.03848e-08 1.51726e-08 -1.0496e-06 1.47766e-07 -8.27963e-07)
(-2.53188e-06 -1.20527e-07 4.14871e-08 -1.24442e-06 1.51582e-07 -8.2124e-07)
(-3.46395e-06 1.58616e-07 -4.05413e-08 -3.48357e-06 9.14188e-08 -9.65405e-07)
(-1.40618e-06 7.72813e-08 -1.37466e-08 -2.9591e-06 8.77969e-08 -9.68747e-07)
(-1.37166e-06 -7.46152e-08 1.57924e-08 -2.90818e-06 8.74106e-08 -9.66774e-07)
(-3.19577e-06 -1.55665e-07 4.13431e-08 -3.33619e-06 9.01431e-08 -9.59129e-07)
(-1.78908e-06 4.9902e-08 -7.61337e-09 1.12109e-07 1.42773e-07 -1.61162e-08)
(-2.27217e-07 -9.41693e-08 4.0867e-09 -2.3311e-07 2.05438e-07 -4.44609e-08)
(-2.05983e-07 9.09668e-08 -3.96697e-09 -2.45915e-07 2.0551e-07 -4.46426e-08)
(-1.57375e-06 -4.19067e-08 7.45248e-09 5.83198e-08 1.4338e-07 -1.65227e-08)
(-1.89527e-06 -2.37013e-08 -1.02605e-08 -5.33155e-07 1.72614e-07 -1.4191e-07)
(-4.016e-07 -4.76716e-08 4.4811e-09 -3.8014e-07 2.04217e-07 -1.95828e-07)
(-3.73555e-07 5.02057e-08 -4.6574e-09 -3.85366e-07 2.04102e-07 -1.95751e-07)
(-1.67439e-06 2.53725e-08 9.93137e-09 -5.39229e-07 1.72354e-07 -1.41542e-07)
(-1.93633e-06 -3.00891e-08 -7.97151e-09 -5.22004e-07 1.71948e-07 -2.68084e-07)
(-4.02719e-07 -3.18774e-08 5.82682e-09 -4.29684e-07 1.80874e-07 -3.30652e-07)
(-3.75394e-07 3.41818e-08 -6.1771e-09 -4.31356e-07 1.80616e-07 -3.30341e-07)
(-1.71288e-06 3.06733e-08 7.59098e-09 -5.23087e-07 1.71067e-07 -2.66995e-07)
(-1.97567e-06 -2.1325e-08 -5.30786e-09 -4.67774e-07 1.62576e-07 -3.67325e-07)
(-3.58909e-07 -2.49444e-08 7.66779e-09 -4.73698e-07 1.61722e-07 -4.32379e-07)
(-3.31846e-07 2.5969e-08 -7.97667e-09 -4.73802e-07 1.61299e-07 -4.31959e-07)
(-1.74777e-06 2.17806e-08 4.95582e-09 -4.67112e-07 1.61138e-07 -3.65835e-07)
(-2.06182e-06 -2.86389e-09 -3.5254e-09 -4.3987e-07 1.57231e-07 -4.59887e-07)
(-3.58164e-07 -1.42309e-08 8.74899e-09 -4.98038e-07 1.53576e-07 -5.25294e-07)
(-3.30516e-07 1.41951e-08 -8.95224e-09 -4.97649e-07 1.52977e-07 -5.24762e-07)
(-1.82757e-06 3.15941e-09 3.23292e-09 -4.38147e-07 1.55251e-07 -4.57992e-07)
(-2.24853e-06 4.0703e-08 -2.65126e-09 -5.23761e-07 1.44935e-07 -5.63914e-07)
(-4.83537e-07 1.1368e-08 8.80822e-09 -5.33249e-07 1.40906e-07 -6.28407e-07)
(-4.54893e-07 -1.30342e-08 -8.91929e-09 -5.32226e-07 1.40201e-07 -6.27684e-07)
(-2.00636e-06 -4.08597e-08 2.43554e-09 -5.2002e-07 1.42601e-07 -5.61406e-07)
(-2.61384e-06 1.17381e-07 -3.35154e-09 -1.15154e-06 1.05066e-07 -6.65329e-07)
(-8.15971e-07 5.35984e-08 7.67291e-09 -9.51393e-07 1.00286e-07 -7.27664e-07)
(-7.85606e-07 -5.82015e-08 -7.57221e-09 -9.43923e-07 9.96712e-08 -7.26708e-07)
(-2.3617e-06 -1.18123e-07 3.29501e-09 -1.12986e-06 1.02946e-07 -6.62083e-07)
(-3.29374e-06 1.53935e-07 -5.08353e-09 -3.32846e-06 4.87977e-08 -7.04444e-07)
(-1.26617e-06 7.4209e-08 7.3656e-09 -2.81737e-06 4.34076e-08 -7.63381e-07)
(-1.23161e-06 -7.16509e-08 -6.49248e-09 -2.76678e-06 4.31614e-08 -7.62338e-07)
(-3.02673e-06 -1.50961e-07 5.45608e-09 -3.18175e-06 4.79241e-08 -7.00843e-07)
(-1.68101e-06 4.16567e-08 -9.63657e-10 6.03748e-08 1.29885e-07 -2.04344e-08)
(-1.99838e-07 -9.35109e-08 5.04011e-09 -2.60027e-07 1.61192e-07 -4.19068e-08)
(-1.79009e-07 9.02143e-08 -5.03451e-09 -2.7284e-07 1.61204e-07 -4.19706e-08)
(-1.46944e-06 -3.38856e-08 8.33759e-10 6.84879e-09 1.30295e-07 -2.06492e-08)
(-1.78292e-06 -2.25272e-08 4.15704e-10 -5.54818e-07 1.55974e-07 -1.1955e-07)
(-3.53032e-07 -4.58024e-08 8.04634e-09 -4.13961e-07 1.70773e-07 -1.61005e-07)
(-3.25511e-07 4.82626e-08 -8.31423e-09 -4.19276e-07 1.70647e-07 -1.60972e-07)
(-1.56593e-06 2.41579e-08 -6.98359e-10 -5.61425e-07 1.55767e-07 -1.19525e-07)
(-1.82783e-06 -2.71532e-08 2.84851e-09 -5.2892e-07 1.62579e-07 -2.39146e-07)
(-3.54208e-07 -2.97052e-08 9.81657e-09 -4.47347e-07 1.65399e-07 -2.87322e-07)
(-3.27368e-07 3.2111e-08 -1.02919e-08 -4.49162e-07 1.65145e-07 -2.87126e-07)
(-1.6082e-06 2.77955e-08 -3.20365e-09 -5.30571e-07 1.6184e-07 -2.38644e-07)
(-1.87285e-06 -1.89284e-08 5.07637e-09 -4.47295e-07 1.55203e-07 -3.5259e-07)
(-3.17691e-07 -2.32983e-08 1.13037e-08 -4.57704e-07 1.52927e-07 -4.02251e-07)
(-2.9108e-07 2.44954e-08 -1.18385e-08 -4.58003e-07 1.5255e-07 -4.01908e-07)
(-1.64865e-06 1.94696e-08 -5.4437e-09 -4.47242e-07 1.54015e-07 -3.51614e-07)
(-1.96474e-06 -1.4669e-09 6.64965e-09 -3.95837e-07 1.3991e-07 -4.55793e-07)
(-3.24147e-07 -1.35392e-08 1.22258e-08 -4.54883e-07 1.36721e-07 -5.05178e-07)
(-2.96912e-07 1.36088e-08 -1.27286e-08 -4.54694e-07 1.36235e-07 -5.04685e-07)
(-1.73391e-06 1.82851e-09 -6.99064e-09 -3.94696e-07 1.38353e-07 -4.54322e-07)
(-2.15667e-06 4.0414e-08 7.23137e-09 -4.73623e-07 1.12598e-07 -5.47555e-07)
(-4.53394e-07 1.06308e-08 1.22753e-08 -4.85005e-07 1.10154e-07 -5.95811e-07)
(-4.25079e-07 -1.23177e-08 -1.26917e-08 -4.84131e-07 1.09624e-07 -5.95145e-07)
(-1.91735e-06 -4.05372e-08 -7.51311e-09 -4.70302e-07 1.10858e-07 -5.45516e-07)
(-2.52474e-06 1.13994e-07 6.15895e-09 -1.10176e-06 6.8303e-08 -6.12192e-07)
(-7.8338e-07 5.08301e-08 1.12215e-08 -9.10619e-07 6.58805e-08 -6.58704e-07)
(-7.53196e-07 -5.55341e-08 -1.14195e-08 -9.03207e-07 6.54498e-08 -6.57888e-07)
(-2.27454e-06 -1.14719e-07 -6.30925e-09 -1.08022e-06 6.67982e-08 -6.0962e-07)
(-3.19776e-06 1.48639e-07 4.45666e-09 -3.23071e-06 2.73303e-08 -6.21533e-07)
(-1.22672e-06 7.09586e-08 1.10229e-08 -2.73663e-06 2.37348e-08 -6.67132e-07)
(-1.19218e-06 -6.84432e-08 -1.06077e-08 -2.68617e-06 2.35722e-08 -6.66314e-07)
(-2.93165e-06 -1.45641e-07 -4.28566e-09 -3.08423e-06 2.67313e-08 -6.18821e-07)
(-1.62126e-06 4.00199e-08 2.11255e-10 4.18699e-08 1.00872e-07 -3.11307e-08)
(-1.91378e-07 -9.03984e-08 3.37908e-09 -2.67417e-07 1.15003e-07 -4.25853e-08)
(-1.70797e-07 8.69947e-08 -3.39298e-09 -2.80251e-07 1.15016e-07 -4.2604e-08)
(-1.41201e-06 -3.24087e-08 -2.93031e-10 -1.14809e-08 1.01165e-07 -3.12572e-08)
(-1.72158e-06 -2.07359e-08 1.76352e-09 -5.55851e-07 1.1875e-07 -1.2521e-07)
(-3.40381e-07 -4.36695e-08 5.81704e-09 -4.21617e-07 1.24532e-07 -1.47212e-07)
(-3.13194e-07 4.59806e-08 -6.02564e-09 -4.27036e-07 1.24454e-07 -1.47185e-07)
(-1.50699e-06 2.2296e-08 -1.95043e-09 -5.62908e-07 1.18658e-07 -1.2528e-07)
(-1.76983e-06 -2.50525e-08 3.4632e-09 -5.2726e-07 1.26271e-07 -2.36623e-07)
(-3.45311e-07 -2.81564e-08 7.10807e-09 -4.50941e-07 1.26235e-07 -2.61788e-07)
(-3.18783e-07 3.04928e-08 -7.4837e-09 -4.52874e-07 1.26056e-07 -2.6166e-07)
(-1.55255e-06 2.56758e-08 -3.7123e-09 -5.29366e-07 1.25786e-07 -2.36419e-07)
(-1.81948e-06 -1.72949e-08 4.88975e-09 -4.3779e-07 1.21415e-07 -3.48365e-07)
(-3.15098e-07 -2.22449e-08 8.02203e-09 -4.49968e-07 1.19112e-07 -3.73567e-07)
(-2.88772e-07 2.34499e-08 -8.47687e-09 -4.5039e-07 1.18839e-07 -3.73308e-07)
(-1.59753e-06 1.78499e-08 -5.16333e-09 -4.38153e-07 1.20592e-07 -3.47767e-07)
(-1.91573e-06 -5.76588e-10 5.87523e-09 -3.79238e-07 1.05772e-07 -4.49104e-07)
(-3.27013e-07 -1.31249e-08 8.56006e-09 -4.38032e-07 1.03526e-07 -4.73358e-07)
(-3.00033e-07 1.32156e-08 -9.01881e-09 -4.37955e-07 1.03183e-07 -4.72952e-07)
(-1.68694e-06 9.61676e-10 -6.1415e-09 -3.78452e-07 1.04696e-07 -4.48037e-07)
(-2.1106e-06 3.99854e-08 6.15022e-09 -4.56995e-07 7.91058e-08 -5.29564e-07)
(-4.58455e-07 1.00371e-08 8.54685e-09 -4.68991e-07 7.7924e-08 -5.52736e-07)
(-4.30346e-07 -1.17359e-08 -8.94557e-09 -4.68191e-07 7.75639e-08 -5.52176e-07)
(-1.87296e-06 -4.0089e-08 -6.37782e-09 -4.53902e-07 7.79289e-08 -5.27993e-07)
(-2.47844e-06 1.11464e-07 5.32015e-09 -1.08146e-06 4.35767e-08 -5.77869e-07)
(-7.85393e-07 4.89276e-08 7.87171e-09 -8.95811e-07 4.2831e-08 -6.00247e-07)
(-7.5533e-07 -5.36702e-08 -8.10126e-09 -8.88417e-07 4.25477e-08 -5.99574e-07)
(-2.22939e-06 -1.12172e-07 -5.45519e-09 -1.05995e-06 4.25805e-08 -5.75871e-07)
(-3.14398e-06 1.45012e-07 4.11158e-09 -3.17003e-06 1.61516e-08 -5.83498e-07)
(-1.22285e-06 6.88307e-08 7.76795e-09 -2.68765e-06 1.44013e-08 -6.06487e-07)
(-1.18834e-06 -6.63253e-08 -7.56908e-09 -2.63724e-06 1.42974e-08 -6.0583e-07)
(-2.87837e-06 -1.41991e-07 -4.02928e-09 -3.02361e-06 1.57614e-08 -5.8142e-07)
(-1.58901e-06 3.98801e-08 1.44146e-10 3.62103e-08 6.33473e-08 -3.80338e-08)
(-1.88581e-07 -8.80524e-08 1.70193e-09 -2.68261e-07 6.92767e-08 -4.36508e-08)
(-1.68138e-07 8.45694e-08 -1.71291e-09 -2.81103e-07 6.92876e-08 -4.36613e-08)
(-1.3811e-06 -3.23661e-08 -1.87541e-10 -1.7016e-08 6.35235e-08 -3.81346e-08)
(-1.6889e-06 -1.95113e-08 9.87945e-10 -5.50968e-07 7.32704e-08 -1.32131e-07)
(-3.37641e-07 -4.22819e-08 2.98445e-09 -4.20339e-07 7.52318e-08 -1.42475e-07)
(-3.1064e-07 4.44802e-08 -3.10786e-09 -4.25831e-07 7.51935e-08 -1.42462e-07)
(-1.47569e-06 2.10202e-08 -1.08971e-09 -5.58314e-07 7.32409e-08 -1.32242e-07)
(-1.7394e-06 -2.38372e-08 1.88927e-09 -5.22706e-07 7.8284e-08 -2.37579e-07)
(-3.4592e-07 -2.72832e-08 3.66363e-09 -4.48856e-07 7.76303e-08 -2.48792e-07)
(-3.19565e-07 2.95358e-08 -3.89036e-09 -4.50876e-07 7.753e-08 -2.48713e-07)
(-1.52346e-06 2.44317e-08 -2.02987e-09 -5.25123e-07 7.80234e-08 -2.3753e-07)
(-1.79203e-06 -1.63893e-08 2.62898e-09 -4.33318e-07 7.54822e-08 -3.43319e-07)
(-3.19834e-07 -2.17034e-08 4.11389e-09 -4.46041e-07 7.39444e-08 -3.53767e-07)
(-2.93664e-07 2.28713e-08 -4.39922e-09 -4.46543e-07 7.37858e-08 -3.53582e-07)
(-1.57134e-06 1.69355e-08 -2.78915e-09 -4.33954e-07 7.50144e-08 -3.42965e-07)
(-1.89094e-06 -1.19888e-10 3.12507e-09 -3.74905e-07 6.47549e-08 -4.37878e-07)
(-3.35007e-07 -1.29413e-08 4.36229e-09 -4.33146e-07 6.34986e-08 -4.472e-07)
(-3.08164e-07 1.30221e-08 -4.66021e-09 -4.33133e-07 6.3299e-08 -4.46884e-07)
(-1.66328e-06 5.09527e-10 -3.28542e-09 -3.74331e-07 6.41355e-08 -4.37117e-07)
(-2.08724e-06 3.96705e-08 3.23618e-09 -4.5384e-07 4.68573e-08 -5.10707e-07)
(-4.67469e-07 9.68054e-09 4.33835e-09 -4.6577e-07 4.64058e-08 -5.19227e-07)
(-4.39467e-07 -1.13869e-08 -4.6036e-09 -4.65007e-07 4.61986e-08 -5.18773e-07)
(-1.85053e-06 -3.97639e-08 -3.37574e-09 -4.50871e-07 4.61826e-08 -5.09498e-07)
(-2.45419e-06 1.09995e-07 2.7684e-09 -1.0737e-06 2.48373e-08 -5.52999e-07)
(-7.92165e-07 4.79061e-08 4.0031e-09 -8.90736e-07 2.47952e-08 -5.61399e-07)
(-7.62164e-07 -5.26609e-08 -4.16599e-09 -8.83346e-07 2.46344e-08 -5.60849e-07)
(-2.20576e-06 -1.10689e-07 -2.8543e-09 -1.05221e-06 2.42708e-08 -5.5142e-07)
(-3.11438e-06 1.42998e-07 2.06439e-09 -3.1352e-06 8.88137e-09 -5.60767e-07)
(-1.22571e-06 6.7708e-08 3.94447e-09 -2.65911e-06 8.20762e-09 -5.70182e-07)
(-1.1912e-06 -6.52009e-08 -3.85807e-09 -2.6087e-06 8.14963e-09 -5.69648e-07)
(-2.84902e-06 -1.39961e-07 -2.02579e-09 -2.98878e-06 8.66153e-09 -5.59124e-07)
(-1.57473e-06 3.98988e-08 2.89066e-11 3.49835e-08 2.1548e-08 -4.11517e-08)
(-1.87568e-07 -8.69586e-08 4.99258e-10 -2.67637e-07 2.3188e-08 -4.4498e-08)
(-1.67187e-07 8.34342e-08 -5.03039e-10 -2.80482e-07 2.31923e-08 -4.45091e-08)
(-1.36743e-06 -3.24307e-08 -4.24672e-11 -1.81785e-08 2.16065e-08 -4.12467e-08)
(-1.6745e-06 -1.89643e-08 2.70314e-10 -5.47248e-07 2.46874e-08 -1.35706e-07)
(-3.36979e-07 -4.16687e-08 8.73431e-10 -4.18242e-07 2.51434e-08 -1.41461e-07)
(-3.1006e-07 4.38095e-08 -9.13637e-10 -4.23769e-07 2.51322e-08 -1.41459e-07)
(-1.46191e-06 2.04479e-08 -3.02386e-10 -5.54729e-07 2.46818e-08 -1.35836e-07)
(-1.72607e-06 -2.3309e-08 5.41395e-10 -5.19564e-07 2.63713e-08 -2.38113e-07)
(-3.46969e-07 -2.69158e-08 1.07422e-09 -4.46714e-07 2.60743e-08 -2.43815e-07)
(-3.2069e-07 2.91204e-08 -1.14897e-09 -4.48778e-07 2.60426e-08 -2.43761e-07)
(-1.51073e-06 2.38866e-08 -5.86412e-10 -5.22137e-07 2.62903e-08 -2.38129e-07)
(-1.78011e-06 -1.60027e-08 7.64974e-10 -4.31484e-07 2.54393e-08 -3.39761e-07)
(-3.2283e-07 -2.14879e-08 1.20515e-09 -4.44332e-07 2.49151e-08 -3.44429e-07)
(-2.96727e-07 2.26281e-08 -1.3009e-09 -4.44873e-07 2.48636e-08 -3.44284e-07)
(-1.55998e-06 1.65406e-08 -8.17151e-10 -4.32256e-07 2.52891e-08 -3.39522e-07)
(-1.88024e-06 6.57066e-11 9.12688e-10 -3.74363e-07 2.17009e-08 -4.30164e-07)
(-3.39465e-07 -1.28775e-08 1.27464e-09 -4.32236e-07 2.1305e-08 -4.33732e-07)
(-3.12679e-07 1.29471e-08 -1.37621e-09 -4.32253e-07 2.12399e-08 -4.33467e-07)
(-1.65307e-06 3.2328e-10 -9.65644e-10 -3.73892e-07 2.14999e-08 -4.29559e-07)
(-2.0771e-06 3.95194e-08 9.42416e-10 -4.54115e-07 1.55244e-08 -4.99276e-07)
(-4.72309e-07 9.52519e-09 1.26534e-09 -4.65876e-07 1.54177e-08 -5.02248e-07)
(-4.44352e-07 -1.12361e-08 -1.3568e-09 -4.65129e-07 1.53502e-08 -5.01856e-07)
(-1.84079e-06 -3.96087e-08 -9.8892e-10 -4.51202e-07 1.53051e-08 -4.98256e-07)
(-2.44345e-06 1.09348e-07 7.95854e-10 -1.07119e-06 8.14103e-09 -5.39719e-07)
(-7.95886e-07 4.7485e-08 1.16788e-09 -8.8925e-07 8.19094e-09 -5.42872e-07)
(-7.6591e-07 -5.22433e-08 -1.2255e-09 -8.81861e-07 8.13882e-09 -5.4239e-07)
(-2.19528e-06 -1.10036e-07 -8.24876e-10 -1.04971e-06 7.95731e-09 -5.38357e-07)
(-3.10095e-06 1.4213e-07 5.65055e-10 -3.11944e-06 2.86937e-09 -5.4923e-07)
(-1.22752e-06 6.72452e-08 1.14733e-09 -2.64594e-06 2.70674e-09 -5.53424e-07)
(-1.19301e-06 -6.47354e-08 -1.12348e-09 -2.59553e-06 2.68808e-09 -5.52956e-07)
(-2.83568e-06 -1.39085e-07 -5.53622e-10 -2.97301e-06 2.79838e-09 -5.47808e-07)
)
;

boundaryField
{
    interface
    {
        type            calculated;
        value           nonuniform List<symmTensor> 
192
(
(-4.7404e-06 2.22464e-12 1.70236e-11 1.54507e-06 2.78875e-07 -2.94556e-06)
(-4.45008e-06 2.40093e-12 2.76802e-11 -5.43199e-07 5.03857e-08 -3.03589e-06)
(-4.546e-06 9.35088e-13 3.18716e-11 -7.06238e-07 9.61332e-09 -3.11344e-06)
(-4.69055e-06 -1.93655e-12 3.3271e-11 -6.7969e-07 1.68936e-08 -3.20126e-06)
(-4.86159e-06 -4.57025e-12 3.3243e-11 -7.21379e-07 4.17509e-08 -3.31584e-06)
(-5.07903e-06 -9.15811e-12 3.25977e-11 -9.67106e-07 8.804e-08 -3.47878e-06)
(-5.36901e-06 -1.26921e-11 3.0283e-11 -1.84487e-06 1.54276e-07 -3.74354e-06)
(-5.92377e-06 -2.89251e-11 2.85152e-11 -4.24727e-06 1.77212e-07 -4.24471e-06)
(-3.91416e-06 1.60241e-12 8.34237e-12 6.27832e-07 6.28836e-08 -6.14896e-07)
(-3.72562e-06 1.93712e-12 1.4489e-11 -4.03752e-07 6.92492e-08 -1.00798e-06)
(-3.77996e-06 7.00285e-13 1.64458e-11 -5.45263e-07 5.76437e-08 -1.09162e-06)
(-3.88668e-06 -2.19067e-12 1.67627e-11 -5.88263e-07 6.01645e-08 -1.11945e-06)
(-4.03805e-06 -4.93763e-12 1.62783e-11 -6.44038e-07 9.34789e-08 -1.16888e-06)
(-4.2597e-06 -9.9616e-12 1.54763e-11 -8.10917e-07 1.48553e-07 -1.28075e-06)
(-4.60569e-06 -1.3853e-11 1.39758e-11 -1.50063e-06 1.90621e-07 -1.50823e-06)
(-5.37367e-06 -3.08496e-11 1.28068e-11 -3.74627e-06 1.55129e-07 -1.84582e-06)
(-3.40512e-06 1.3742e-12 6.52306e-12 2.51703e-07 1.2262e-07 -9.15271e-08)
(-3.33319e-06 1.70405e-12 1.11678e-11 -4.73162e-07 1.45493e-07 -3.08428e-07)
(-3.39529e-06 5.26129e-13 1.26086e-11 -5.11791e-07 1.35655e-07 -4.27104e-07)
(-3.49608e-06 -2.46993e-12 1.2803e-11 -5.10911e-07 1.28898e-07 -4.87862e-07)
(-3.64778e-06 -5.43231e-12 1.23891e-11 -5.26355e-07 1.43827e-07 -5.53013e-07)
(-3.88371e-06 -1.09709e-11 1.17365e-11 -6.34453e-07 1.64881e-07 -6.63238e-07)
(-4.26531e-06 -1.53973e-11 1.06689e-11 -1.26647e-06 1.54385e-07 -8.26474e-07)
(-5.09111e-06 -3.34796e-11 9.79489e-12 -3.48357e-06 9.14188e-08 -9.65405e-07)
(-3.1035e-06 1.02841e-12 3.93886e-12 1.12109e-07 1.42773e-07 -1.61162e-08)
(-3.07462e-06 1.20471e-12 7.13055e-12 -5.33155e-07 1.72614e-07 -1.4191e-07)
(-3.1468e-06 1.04744e-14 8.07206e-12 -5.22004e-07 1.71948e-07 -2.68084e-07)
(-3.25041e-06 -2.99032e-12 8.11026e-12 -4.67774e-07 1.62576e-07 -3.67325e-07)
(-3.40643e-06 -6.03642e-12 7.7285e-12 -4.3987e-07 1.57231e-07 -4.59887e-07)
(-3.65223e-06 -1.17819e-11 7.20703e-12 -5.23761e-07 1.44935e-07 -5.63914e-07)
(-4.05101e-06 -1.64393e-11 6.54037e-12 -1.15154e-06 1.05066e-07 -6.65329e-07)
(-4.88705e-06 -3.47501e-11 6.03635e-12 -3.32846e-06 4.87977e-08 -7.04444e-07)
(-2.92656e-06 8.59734e-13 2.86014e-12 6.03748e-08 1.29885e-07 -2.04344e-08)
(-2.90911e-06 8.87087e-13 5.17667e-12 -5.54818e-07 1.55974e-07 -1.1955e-07)
(-2.98695e-06 -3.75755e-13 5.86798e-12 -5.2892e-07 1.62579e-07 -2.39146e-07)
(-3.09481e-06 -3.41341e-12 5.89292e-12 -4.47295e-07 1.55203e-07 -3.5259e-07)
(-3.25547e-06 -6.5546e-12 5.60987e-12 -3.95837e-07 1.3991e-07 -4.55793e-07)
(-3.50723e-06 -1.24773e-11 5.22187e-12 -4.73623e-07 1.12598e-07 -5.47555e-07)
(-3.91267e-06 -1.73446e-11 4.76096e-12 -1.10176e-06 6.8303e-08 -6.12192e-07)
(-4.74341e-06 -3.58973e-11 4.4036e-12 -3.23071e-06 2.73303e-08 -6.21533e-07)
(-2.82384e-06 7.26893e-13 1.72735e-12 4.18699e-08 1.00872e-07 -3.11307e-08)
(-2.80928e-06 6.28042e-13 3.23691e-12 -5.55851e-07 1.1875e-07 -1.2521e-07)
(-2.89008e-06 -6.99662e-13 3.69309e-12 -5.2726e-07 1.26271e-07 -2.36623e-07)
(-3.00139e-06 -3.75941e-12 3.69892e-12 -4.3779e-07 1.21415e-07 -3.48365e-07)
(-3.16565e-06 -6.95185e-12 3.50106e-12 -3.79238e-07 1.05772e-07 -4.49104e-07)
(-3.42071e-06 -1.2959e-11 3.23833e-12 -4.56995e-07 7.91058e-08 -5.29564e-07)
(-3.82794e-06 -1.79322e-11 2.9578e-12 -1.08146e-06 4.35767e-08 -5.77869e-07)
(-4.6508e-06 -3.65961e-11 2.75321e-12 -3.17003e-06 1.61516e-08 -5.83498e-07)
(-2.76705e-06 6.61332e-13 1.00788e-12 3.62103e-08 6.33473e-08 -3.80338e-08)
(-2.75335e-06 4.75198e-13 1.88683e-12 -5.50968e-07 7.32704e-08 -1.32131e-07)
(-2.83571e-06 -9.05326e-13 2.15476e-12 -5.22706e-07 7.8284e-08 -2.37579e-07)
(-2.94923e-06 -3.9881e-12 2.15885e-12 -4.33318e-07 7.54822e-08 -3.43319e-07)
(-3.11574e-06 -7.22047e-12 2.04465e-12 -3.74905e-07 6.47549e-08 -4.37878e-07)
(-3.37244e-06 -1.32861e-11 1.88938e-12 -4.5384e-07 4.68573e-08 -5.10707e-07)
(-3.7797e-06 -1.83338e-11 1.73164e-12 -1.0737e-06 2.48373e-08 -5.52999e-07)
(-4.59653e-06 -3.70838e-11 1.60902e-12 -3.1352e-06 8.88137e-09 -5.60767e-07)
(-2.74169e-06 6.21271e-13 2.95812e-13 3.49835e-08 2.1548e-08 -4.11517e-08)
(-2.72828e-06 3.89677e-13 5.75256e-13 -5.47248e-07 2.46874e-08 -1.35706e-07)
(-2.81132e-06 -1.01531e-12 6.61732e-13 -5.19564e-07 2.63713e-08 -2.38113e-07)
(-2.9259e-06 -4.10471e-12 6.61806e-13 -4.31484e-07 2.54393e-08 -3.39761e-07)
(-3.09346e-06 -7.35253e-12 6.24362e-13 -3.74363e-07 2.17009e-08 -4.30164e-07)
(-3.35081e-06 -1.34383e-11 5.7345e-13 -4.54115e-07 1.55244e-08 -4.99276e-07)
(-3.75782e-06 -1.85197e-11 5.27057e-13 -1.07119e-06 8.14103e-09 -5.39719e-07)
(-4.57155e-06 -3.73039e-11 4.88927e-13 -3.11944e-06 2.86937e-09 -5.4923e-07)
(-2.9048e-06 2.38161e-07 -2.35001e-11 1.54507e-06 -5.75447e-12 -4.82641e-06)
(-3.04366e-06 7.89996e-09 -4.02031e-11 -5.43199e-07 -7.24048e-12 -4.50695e-06)
(-3.12502e-06 -3.21057e-08 -4.766e-11 -7.06238e-07 -6.49449e-12 -4.60387e-06)
(-3.18964e-06 -2.31785e-08 -5.08174e-11 -6.7969e-07 -5.02219e-12 -4.759e-06)
(-3.28658e-06 -2.09938e-09 -5.21232e-11 -7.21379e-07 -4.35251e-12 -4.93698e-06)
(-3.45841e-06 3.91395e-08 -5.31699e-11 -9.67106e-07 -4.6085e-12 -5.14976e-06)
(-3.75649e-06 1.07725e-07 -5.4466e-11 -1.84487e-06 -5.55876e-12 -5.4244e-06)
(-4.26887e-06 1.37551e-07 -6.02207e-11 -4.24727e-06 -6.87948e-12 -5.96512e-06)
(-7.13603e-07 -2.80141e-08 -1.36519e-11 9.67398e-07 -3.43591e-12 -4.30402e-06)
(-1.24259e-06 -3.66295e-08 -2.62803e-11 -2.80088e-07 -5.67022e-12 -3.99834e-06)
(-1.32048e-06 -3.73638e-08 -3.14772e-11 -5.29865e-07 -5.42126e-12 -4.01851e-06)
(-1.28392e-06 -2.9584e-08 -3.34838e-11 -6.51641e-07 -3.74273e-12 -4.1207e-06)
(-1.28547e-06 -1.49764e-08 -3.43379e-11 -7.65896e-07 -2.50894e-12 -4.26645e-06)
(-1.40933e-06 1.1862e-08 -3.54316e-11 -9.72681e-07 -1.8012e-12 -4.46455e-06)
(-1.72248e-06 5.17939e-08 -3.77892e-11 -1.66773e-06 -1.91629e-12 -4.77442e-06)
(-2.13671e-06 6.76523e-08 -4.52657e-11 -3.87829e-06 -2.36608e-12 -5.5335e-06)
(-6.89574e-07 1.05313e-08 -1.33554e-11 9.4684e-07 -2.53383e-12 -4.22134e-06)
(-1.20983e-06 2.9999e-08 -2.60107e-11 -2.82085e-07 -4.76914e-12 -3.92047e-06)
(-1.28765e-06 3.43552e-08 -3.1384e-11 -5.28756e-07 -4.70793e-12 -3.93821e-06)
(-1.25101e-06 2.73357e-08 -3.34978e-11 -6.5007e-07 -2.84986e-12 -4.03798e-06)
(-1.25205e-06 1.27906e-08 -3.43418e-11 -7.64364e-07 -1.21678e-12 -4.18185e-06)
(-1.37545e-06 -1.48435e-08 -3.52853e-11 -9.70459e-07 1.60204e-13 -4.37826e-06)
(-1.68785e-06 -5.67313e-08 -3.73467e-11 -1.65868e-06 8.89219e-13 -4.68657e-06)
(-2.09902e-06 -6.46301e-08 -4.46002e-11 -3.82645e-06 1.04088e-12 -5.44575e-06)
(-2.67036e-06 -2.34961e-07 -1.42262e-11 1.47194e-06 -2.07666e-12 -4.589e-06)
(-2.79841e-06 -9.61835e-09 -2.90017e-11 -5.40007e-07 -4.24207e-12 -4.28192e-06)
(-2.87537e-06 3.06815e-08 -3.57573e-11 -7.00023e-07 -4.20591e-12 -4.37039e-06)
(-2.93515e-06 2.2316e-08 -3.85378e-11 -6.74639e-07 -2.17985e-12 -4.51833e-06)
(-3.02719e-06 1.36659e-09 -3.96379e-11 -7.16555e-07 -3.40133e-13 -4.69108e-06)
(-3.19461e-06 -4.01626e-08 -4.087e-11 -9.60214e-07 1.36543e-12 -4.89941e-06)
(-3.48809e-06 -1.09069e-07 -4.27917e-11 -1.81959e-06 2.58418e-12 -5.17054e-06)
(-3.99095e-06 -1.34721e-07 -5.05203e-11 -4.10076e-06 3.71846e-12 -5.71622e-06)
(-4.31958e-06 4.42891e-12 3.45672e-12 1.47194e-06 2.75412e-07 -2.81398e-06)
(-4.02509e-06 6.36146e-12 7.09117e-12 -5.40007e-07 5.07293e-08 -2.90606e-06)
(-4.11236e-06 5.31626e-12 8.33305e-12 -7.00023e-07 9.8531e-09 -2.97908e-06)
(-4.24741e-06 2.24103e-12 9.03601e-12 -6.74639e-07 1.65463e-08 -3.06309e-06)
(-4.40965e-06 4.40355e-13 9.66666e-12 -7.16555e-07 4.09088e-08 -3.17474e-06)
(-4.6192e-06 -2.11233e-12 1.13528e-11 -9.60214e-07 8.67142e-08 -3.33513e-06)
(-4.90145e-06 -1.95333e-12 1.28539e-11 -1.81959e-06 1.52369e-07 -3.59751e-06)
(-5.44332e-06 -1.59423e-11 1.68278e-11 -4.10076e-06 1.75449e-07 -4.09962e-06)
(-3.50241e-06 1.75385e-12 -2.12035e-12 5.69088e-07 6.74648e-08 -6.01523e-07)
(-3.31727e-06 2.95437e-12 -2.39629e-12 -4.08018e-07 7.07414e-08 -9.88403e-07)
(-3.365e-06 2.57851e-12 -3.03864e-12 -5.43498e-07 5.78649e-08 -1.07141e-06)
(-3.46252e-06 8.43059e-13 -3.17616e-12 -5.85011e-07 5.93836e-08 -1.09912e-06)
(-3.60397e-06 3.68273e-13 -2.80413e-12 -6.40116e-07 9.16894e-08 -1.14821e-06)
(-3.81539e-06 -1.05409e-12 -1.39138e-12 -8.05203e-07 1.45851e-07 -1.25946e-06)
(-4.15059e-06 5.14622e-13 4.65995e-13 -1.47755e-06 1.87441e-07 -1.48571e-06)
(-4.90288e-06 -1.21849e-11 3.27642e-12 -3.5979e-06 1.53284e-07 -1.82097e-06)
(-3.00688e-06 9.70545e-13 -1.39309e-12 1.97062e-07 1.24155e-07 -9.13004e-08)
(-2.93766e-06 1.64526e-12 -1.13367e-12 -4.78756e-07 1.45692e-07 -3.05836e-07)
(-2.99323e-06 1.54739e-12 -1.02545e-12 -5.12036e-07 1.35049e-07 -4.2377e-07)
(-3.08476e-06 5.22145e-13 -6.78822e-13 -5.09267e-07 1.27546e-07 -4.84479e-07)
(-3.22563e-06 8.51796e-13 -8.25789e-14 -5.23694e-07 1.41671e-07 -5.49433e-07)
(-3.44917e-06 1.06935e-13 1.12242e-12 -6.29949e-07 1.62074e-07 -6.59056e-07)