/*--------------------------------*- C++ -*----------------------------------*\
| =========                 |                                                 |
| \\      /  F ield         | OpenFOAM: The Open Source CFD Toolbox           |
|  \\    /   O peration     | Version:  v1912                                 |
|   \\  /    A nd           | Website:  www.openfoam.com                      |
|    \\/     M anipulation  |                                                 |
\*---------------------------------------------------------------------------*/
FoamFile
{
    version     2.0;
    format      ascii;
    class       volVectorField;
    location    "0.92/solid";
    object      heatFlux;
}
// * * * * * * * * * * * * * * * * * * * * * * * * * * * * * * * * * * * * * //

dimensions      [1 0 -3 0 0 0 0];


internalField   nonuniform List<vector> 
256
(
(-62985 75752 -66098)
(-13420.6 46032.9 -65289.7)
(11665.3 45394.3 -63851)
(55139.4 72461.2 -61917.2)
(-59138.1 12532.9 -62688)
(-16937.1 8448.99 -65193.3)
(14762.9 8351.4 -63714.3)
(50933.5 12118 -58518.9)
(-60146.7 3124.27 -63846.9)
(-17602.1 2029.35 -66833.1)
(15334.3 1999.46 -65297.8)
(51780.1 3002.18 -59544.5)
(-61950 2794.71 -65681)
(-18061.9 1738.77 -68889)
(15735.8 1720.09 -67311.6)
(53412.7 2708.45 -61270.2)
(-64418.6 4632.06 -68145.8)
(-18676.7 3159.96 -71729)
(16304 3142.94 -70119)
(55713.7 4555.2 -63650.5)
(-67740 10482.3 -71476.9)
(-19551 8715.99 -75852)
(17131 8669.68 -74210.8)
(58869.8 10337.8 -66901.4)
(-70468 29748.3 -74313.2)
(-20489.3 29639.7 -80120.3)
(17925.8 29354.3 -78449.1)
(61383.1 28971.9 -69667.5)
(-63894.5 68119.4 -67990.9)
(-19945 75023.1 -74919.8)
(16463.2 73428.5 -73341.5)
(54341 63713.6 -63642.5)
(-60749.1 42147.2 -18641.3)
(-12290.9 14014.2 -16514.2)
(11250.3 13797 -16304.2)
(53342.2 40044.8 -18029)
(-60544.5 7739.77 -24203.4)
(-16059.3 3281.06 -22139.4)
(14780.2 3245.5 -21870.1)
(52889.2 7487.68 -23429.6)
(-62066.7 1919.43 -25196.9)
(-16785.2 721.904 -23175.7)
(15457 711.112 -22891.4)
(54256.9 1843.57 -24386)
(-64104.2 1712.3 -25766.5)
(-17267.6 561.275 -23763.2)
(15901.9 552.563 -23472)
(56119 1646.74 -24940.6)
(-66976.8 3122.32 -26504.4)
(-17944.9 1404.1 -24567.6)
(16542.4 1393.22 -24272.8)
(58805.6 3052.65 -25675.4)
(-71156.1 8556.89 -27587.8)
(-18996.7 6192.19 -25862)
(17550.4 6149.13 -25565.4)
(62786 8408.32 -26765.3)
(-75493.4 29058.8 -29008.3)
(-20352.6 27851.3 -27827.4)
(18758.6 27549.1 -27531.6)
(66867 28220.3 -28202.9)
(-70550.7 74502.5 -29686.4)
(-20506.3 80278.2 -29606.2)
(17919.4 78582.5 -29328.9)
(61402 69776.7 -28948.4)
(-54974.4 32907.2 -5140.22)
(-11083.5 7379.23 -3156.59)
(10150.6 7220.06 -3128.26)
(47834.4 31002.5 -5028.06)
(-55601.6 5977.36 -7109.79)
(-14603.7 1787.56 -4672.15)
(13472.7 1764.19 -4631.79)
(48243.7 5761.01 -6958.31)
(-57142.9 1561.18 -7437.16)
(-15296.6 405.512 -4937.89)
(14124.1 397.527 -4895.03)
(49629.8 1491.24 -7279.09)
(-59148 1487.17 -7562.94)
(-15767.4 346.836 -5043.8)
(14558.4 338.693 -5000.31)
(51453.9 1419.04 -7405.04)
(-62043.7 2810.75 -7705.01)
(-16445.1 1061.24 -5182.22)
(15196.3 1049.54 -5139.08)
(54145.2 2730.48 -7552.84)
(-66384.1 7978.37 -7938.61)
(-17528.6 5456.16 -5449.17)
(16227.7 5410.91 -5407.41)
(58248.3 7810.3 -7799.39)
(-71266.1 27649.7 -8514.4)
(-19012.6 25895.5 -6183.45)
(17550.4 25590.8 -6144.26)
(62817.9 26788.8 -8396.28)
(-67933.1 71764.2 -10409.5)
(-19587.5 76096.6 -8681.14)
(17120.9 74417 -8643.51)
(58919.4 67070.1 -10309)
(-50818.5 29897.2 -1879.86)
(-10278.9 6185.47 -599.217)
(9378.87 6037 -592.882)
(43860 28058.4 -1833.97)
(-51504.8 5442.84 -2535.22)
(-13581.3 1499.76 -905.095)
(12494.1 1478.74 -895.894)
(44339.9 5236.65 -2475.21)
(-52987.7 1466.29 -2635.56)
(-14243 350.252 -956.436)
(13115.8 342.593 -946.764)
(45668.7 1396.84 -2573.74)
(-54951.5 1444.45 -2663.68)
(-14705 316.944 -971.597)
(13540.6 308.51 -961.992)
(47447 1372.99 -2603.11)
(-57830.7 2746.65 -2689.38)
(-15379 998.727 -991.018)
(14171.8 986.128 -981.864)
(50107.4 2658.3 -2633.16)
(-62192.1 7747.49 -2751.43)
(-16465.5 5190.96 -1052.84)
(15200.2 5143.94 -1044.7)
(54204.3 7564.88 -2704.03)
(-67241.3 26587.9 -3053.29)
(-17982.5 24619.3 -1389.3)
(16545.7 24313 -1382.99)
(58897.5 25710.7 -3020.73)
(-64767.9 68579.1 -4509.58)
(-18740.4 72106.9 -3096.49)
(16291.6 70439.2 -3091.16)
(55819.2 63912.4 -4490.17)
(-48255.9 28492.1 -947.347)
(-9796.49 5874.91 -182.295)
(8915.84 5731.29 -179.093)
(41418.4 26693.3 -919.06)
(-48918.1 5221.66 -1244.43)
(-12964.4 1430.34 -267.68)
(11902.6 1410.31 -263.056)
(41880.8 5021.24 -1207.74)
(-50362.9 1432.72 -1285.31)
(-13607.8 339.01 -280.434)
(12506.7 331.429 -275.604)
(43172.2 1363.34 -1247.61)
(-52304.6 1433.36 -1293.79)
(-14065.7 312.254 -282.867)
(12926.9 303.594 -278.121)
(44924.9 1359.62 -1257.09)
(-55172.2 2723 -1301.07)
(-14737.6 979.992 -286.51)
(13554.1 966.838 -282.051)
(47564 2629.57 -1267.2)
(-59527.2 7614.45 -1331.88)
(-15821.8 5057.88 -311.075)
(14576.5 5009.78 -307.216)
(51636.5 7422.73 -1303.42)
(-64615 25891.5 -1520.1)
(-17342.3 23851.9 -496.742)
(15919 23544.3 -494.015)
(56340.8 25002.6 -1500.84)
(-62542.1 66353.3 -2472.22)
(-18169.1 69498.3 -1540.89)
(15727.3 67835.4 -1539.22)
(53634.9 61696.4 -2462.94)
(-46711.8 27705.4 -533.603)
(-9510.66 5735.49 -87.7085)
(8642.11 5594.85 -85.7752)
(39949.3 25931.6 -516.467)
(-47357 5104.88 -693.706)
(-12599.9 1401.63 -126.072)
(11554 1382.22 -123.263)
(40398.3 4908.1 -671.385)
(-48782.3 1416.92 -714.179)
(-13233.3 335.065 -131.263)
(12148.6 327.527 -128.328)
(41670.2 1347.48 -691.264)
(-50712.9 1428.68 -717.647)
(-13689.3 310.868 -131.915)
(12566.4 302.062 -129.035)
(43409.1 1353.4 -695.44)
(-53572.9 2708.56 -721.405)
(-14359.9 970.52 -133.322)
(13191.1 957.033 -130.616)
(46033.7 2611.98 -700.972)
(-57915.2 7528.46 -741.408)
(-15440.8 4980.73 -146.77)
(14207.9 4931.98 -144.412)
(50082.1 7331.24 -724.194)
(-62999.2 25447.6 -860.246)
(-16956.4 23389.5 -254.658)
(15541.6 23081 -252.963)
(54766.3 24551.1 -848.464)
(-61113.6 64919 -1450.73)
(-17807.4 67879.9 -876.263)
(15369.5 66219.2 -875.337)
(52229.5 60265.5 -1445.47)
(-45827.1 27264.8 -279.083)
(-9348.66 5661.13 -44.3523)
(8487.09 5522.25 -43.3083)
(39107.7 25505.5 -269.957)
(-46463.6 5041.08 -361.372)
(-12393.9 1386.78 -63.3093)
(11357.3 1367.76 -61.7821)
(39549.9 4846.44 -349.428)
(-47879 1408.78 -371.498)
(-13022 333.168 -65.77)
(11946.7 325.657 -64.1712)
(40811.9 1339.28 -359.233)
(-49804 1426.13 -373.076)
(-13477.1 310.196 -66.0269)
(12363.4 301.306 -64.4583)
(42543.2 1349.91 -361.218)
(-52658.7 2699.24 -375.272)
(-14146.8 965.136 -66.7485)
(12986.5 951.461 -65.2733)
(45158.5 2600.82 -364.388)
(-56989.4 7475.61 -387.068)
(-15224.8 4936.55 -73.9108)
(13999.1 4887.44 -72.6188)
(49188.7 7275.24 -377.903)
(-62060.6 25182.2 -453.416)
(-16735 23122.4 -131.265)
(15325.2 22813.4 -130.322)
(53850.6 24281.4 -447.136)
(-60263 64059.8 -777.12)
(-17593.7 66931.1 -464.343)
(15158 65271.2 -463.848)
(51390.9 59407.4 -774.475)
(-45421.8 27065 -87.1782)
(-9274.89 5627.83 -13.7376)
(8416.5 5489.76 -13.4081)
(38722 25312.2 -84.3218)
(-46054.5 5012.46 -112.705)
(-12300.3 1380.21 -19.5663)
(11267.9 1361.36 -19.0823)
(39161.4 4818.82 -108.955)
(-47465.7 1405.22 -115.797)
(-12926 332.348 -20.3121)
(11855.1 324.851 -19.8047)
(40419.1 1335.69 -111.944)
(-49388.3 1424.91 -116.27)
(-13380.7 309.889 -20.3862)
(12271.2 300.96 -19.8884)
(42147 1348.25 -112.549)
(-52240.2 2694.57 -117.016)
(-14049.9 962.636 -20.6182)
(12893.5 948.873 -20.15)
(44757.5 2595.3 -113.607)
(-56564.4 7450.32 -120.934)
(-15126.4 4916.21 -22.8871)
(13903.9 4866.93 -22.4766)
(48778 7248.49 -118.069)
(-61626.7 25057.5 -142.309)
(-16633.3 22999.1 -40.9542)
(15225.8 22689.8 -40.6529)
(53426.9 24154.6 -140.355)
(-59864.7 63655.6 -245.64)
(-17494.1 66489.5 -146.211)
(15059.4 64830 -146.055)
(50997.5 59003.5 -244.855)
)
;

boundaryField
{
    interface
    {
        type            calculated;
        value           nonuniform List<vector> 
192
(
(-99688.9 75752 -66098)
(-85119 12532.9 -62688)
(-85844.4 3124.27 -63846.9)
(-88553 2794.71 -65681)
(-92276.3 4632.06 -68145.8)
(-97188.8 10482.3 -71476.9)
(-100843 29748.3 -74313.2)
(-89280.8 68119.4 -67990.9)
(-97104.3 42147.2 -18641.3)
(-89216.9 7739.77 -24203.4)
(-90822.2 1919.43 -25196.9)
(-93941.2 1712.3 -25766.5)
(-98340.4 3122.32 -26504.4)
(-104608 8556.89 -27587.8)
(-110644 29058.8 -29008.3)
(-100983 74502.5 -29686.4)
(-87921.9 32907.2 -5140.22)
(-82174.2 5977.36 -7109.79)
(-83879.1 1561.18 -7437.16)
(-86955.5 1487.17 -7562.94)
(-91400.2 2810.75 -7705.01)
(-97928.9 7978.37 -7938.61)
(-104801 27649.7 -8514.4)
(-97518.5 71764.2 -10409.5)
(-81210.5 29897.2 -1879.86)
(-76012.8 5442.84 -2535.22)
(-77662.6 1466.29 -2635.56)
(-80674.1 1444.45 -2663.68)
(-85093.7 2746.65 -2689.38)
(-91659.4 7747.49 -2751.43)
(-98801.8 26587.9 -3053.29)
(-92873.8 68579.1 -4509.58)
(-77046 28492.1 -947.347)
(-72067.3 5221.66 -1244.43)
(-73677.5 1432.72 -1285.31)
(-76652.9 1433.36 -1293.79)
(-81054 2723 -1301.07)
(-87612.1 7614.45 -1331.88)
(-94826.4 25891.5 -1520.1)
(-89562.7 66353.3 -2472.22)
(-74527.1 27705.4 -533.603)
(-69670.7 5104.88 -693.706)
(-71261.6 1416.92 -714.179)
(-74218.7 1428.68 -717.647)
(-78607.2 2708.56 -721.405)
(-85147.1 7528.46 -741.408)
(-92364.4 25447.6 -860.246)
(-87427.9 64919 -1450.73)
(-73080.3 27264.8 -279.083)
(-68293.6 5041.08 -361.372)
(-69875.5 1408.78 -371.498)
(-72823.3 1426.13 -373.076)
(-77203.1 2699.24 -375.272)
(-83725.9 7475.61 -387.068)
(-90928.7 25182.2 -453.416)
(-86153.3 64059.8 -777.12)
(-72416.6 27065 -87.1782)
(-67661.8 5012.46 -112.705)
(-69240 1405.22 -115.797)
(-72183.6 1424.91 -116.27)
(-76558.9 2694.57 -117.016)
(-83071.9 7450.32 -120.934)
(-90263.6 25057.5 -142.309)
(-85555.6 63655.6 -245.64)
(-62985 75752 -102645)
(-59138.1 12532.9 -87717.1)
(-60146.7 3124.27 -88556.8)
(-61950 2794.71 -91293.4)
(-64418.6 4632.06 -94989.9)
(-67740 10482.3 -99865.8)
(-70468 29748.3 -103474)
(-63894.5 68119.4 -91514.7)
(-13420.6 46032.9 -102916)
(-16937.1 8448.99 -94012.7)
(-17602.1 2029.35 -95667)
(-18061.9 1738.77 -98789)
(-18676.7 3159.96 -103104)
(-19551 8715.99 -109203)
(-20489.3 29639.7 -114839)
(-19945 75023.1 -103762)
(11665.3 45394.3 -100411)
(14762.9 8351.4 -91525.1)
(15334.3 1999.46 -93092.6)
(15735.8 1720.09 -96143.1)
(16304 3142.94 -100400)
(17131 8669.68 -106442)
(17925.8 29354.3 -112019)
(16463.2 73428.5 -101093)
(55139.4 72461.2 -95341.1)
(50933.5 12118 -80698.5)
(51780.1 3002.18 -81335.1)
(53412.7 2708.45 -83883.8)
(55713.7 4555.2 -87423.6)
(58869.8 10337.8 -92141)
(61383.1 28971.9 -95598.7)
(54341 63713.6 -84120)
(86387.9 72461.2 -61917.2)
(71624.2 12118 -58518.9)
(72136.2 3002.18 -59544.5)
(74577.1 2708.45 -61270.2)
(78026.6 4555.2 -63650.5)
(82666.9 10337.8 -66901.4)
(86029.3 28971.9 -69667.5)
(74374 63713.6 -63642.5)
(83995.8 40044.8 -18029)
(75971.6 7487.68 -23429.6)
(77340.9 1843.57 -24386)
(80166.2 1646.74 -24940.6)
(84249.8 3052.65 -25675.4)
(90181.3 8408.32 -26765.3)
(95854.3 28220.3 -28202.9)
(86071.2 69776.7 -28948.4)
(75227.7 31002.5 -5028.06)
(69363.6 5761.01 -6958.31)
(70824.8 1491.24 -7279.09)
(73596.7 1419.04 -7405.04)
(77694.9 2730.48 -7552.84)
(83823.6 7810.3 -7799.39)
(90241.6 26788.8 -8396.28)
(82769.7 67070.1 -10309)
(68831 28058.4 -1833.97)
(63526.1 5236.65 -2475.21)
(64932.6 1396.84 -2573.74)
(67631.7 1372.99 -2603.11)
(71681.1 2658.3 -2633.16)
(77802.1 7564.88 -2704.03)
(84419.4 25710.7 -3020.73)
(78236.6 63912.4 -4490.17)
(64877.9 26693.3 -919.06)
(59796.4 5021.24 -1207.74)
(61163.6 1363.34 -1247.61)
(63820.8 1359.62 -1257.09)
(67835 2629.57 -1267.2)
(73918.5 7422.73 -1303.42)
(80562.8 25002.6 -1500.84)
(74998.6 61696.4 -2462.94)
(62489.6 25931.6 -516.467)
(57532.2 4908.1 -671.385)
(58879.6 1347.48 -691.264)
(61513.8 1353.4 -695.44)
(65504 2611.98 -700.972)
(71550 7331.24 -724.194)
(78170.5 24551.1 -848.464)
(72904.5 60265.5 -1445.47)
(61117.8 25505.5 -269.957)
(56231 4846.44 -349.428)
(57568.8 1339.28 -359.233)
(60190.3 1349.91 -361.218)
(64164.7 2600.82 -364.388)
(70182.5 7275.24 -377.903)
(76773.4 24281.4 -447.136)
(71651 59407.4 -774.475)
(60488.2 25312.2 -84.3218)
(55633.7 4818.82 -108.955)
(56967.5 1335.69 -111.944)
(59583.1 1348.25 -112.549)
(63549.6 2595.3 -113.607)
(69552.3 7248.49 -118.069)
(76125.4 24154.6 -140.355)
(71061.8 59003.5 -244.855)
(-63894.5 91707.3 -67990.9)
(-70550.7 103788 -29686.4)
(-67933.1 100353 -10409.5)
(-64767.9 95731.7 -4509.58)
(-62542.1 92444.1 -2472.22)
(-61113.6 90315.6 -1450.73)
(-60263 89038 -777.12)
(-59864.7 88436.3 -245.64)
(-19945 103930 -74919.8)
(-20506.3 115116 -29606.2)
(-19587.5 109634 -8681.14)
(-18740.4 103768 -3096.49)
(-18169.1 99851.8 -1540.89)
(-17807.4 97402.7 -876.263)
(-17593.7 95960.7 -464.343)
(-17494.1 95288 -146.211)
(16463.2 101237 -73341.5)
(17919.4 112256 -29328.9)
(17120.9 106809 -8643.51)
(16291.6 100968 -3091.16)
(15727.3 97061.9 -1539.22)
(15369.5 94617.9 -875.337)
(15158 93178.3 -463.848)
(15059.4 92506.6 -146.055)
(54341 84235.9 -63642.5)
(61402 95790.9 -28948.4)
(58919.4 92440.1 -10309)
(55819.2 87887.7 -4490.17)
(53634.9 84631.5 -2462.94)
(52229.5 82518.1 -1445.47)
(51390.9 81247.6 -774.475)
(50997.5 80648.9 -244.855)
)
;
    }
    symmetry
    {
        type            symmetry;
    }
    bottom
    {
        type            calculated;
        value           nonuniform List<vector> 
32
(
(-62985 130362 -66098)
(-60749.1 71260.8 -18641.3)
(-54974.4 55796.8 -5140.22)
(-50818.5 50699.9 -1879.86)
(-48255.9 48277.3 -947.347)
(-46711.8 46910.5 -533.603)
(-45827.1 46142.9 -279.083)
(-45421.8 45794.2 -87.1782)
(-13420.6 77799.8 -65289.7)
(-12290.9 22473.2 -16514.2)
(-11083.5 11742.9 -3156.59)
(-10278.9 9846.79 -599.217)
(-9796.49 9345.98 -182.295)
(-9510.66 9117.61 -87.7085)
(-9348.66 8995.15 -44.3523)
(-9274.89 8940.2 -13.7376)
(11665.3 76679.6 -63851)
(11250.3 22097.3 -16304.2)
(10150.6 11462.9 -3128.26)
(9378.87 9584.26 -592.882)
(8915.84 9091.39 -179.093)
(8642.11 8867.89 -85.7752)
(8487.09 8748.28 -43.3083)
(8416.5 8694.65 -13.4081)
(55139.4 124461 -61917.2)
(53342.2 67474.5 -18029)
(47834.4 52345.2 -5028.06)
(43860 47362.3 -1833.97)
(41418.4 45009.4 -919.06)
(39949.3 43686 -516.467)
(39107.7 42943.5 -269.957)
(38722 42606.2 -84.3218)
)
;
    }
}


// ************************************************************************* //
