/*--------------------------------*- C++ -*----------------------------------*\
| =========                 |                                                 |
| \\      /  F ield         | OpenFOAM: The Open Source CFD Toolbox           |
|  \\    /   O peration     | Version:  v1912                                 |
|   \\  /    A nd           | Website:  www.openfoam.com                      |
|    \\/     M anipulation  |                                                 |
\*---------------------------------------------------------------------------*/
FoamFile
{
    version     2.0;
    format      ascii;
    class       volSymmTensorField;
    location    "0.92/solid";
    object      sigma;
}
// * * * * * * * * * * * * * * * * * * * * * * * * * * * * * * * * * * * * * //

dimensions      [1 -1 -2 0 0 0 0];


internalField   nonuniform List<symmTensor> 
256
(
(-128893 36640.1 -12758.8 555702 42903.9 -135165)
(106201 -4309.87 -5517.38 364816 42539 -183410)
(108622 1620.2 5096.18 360378 42369.3 -177586)
(-95910.7 -36147.9 12441.9 541365 42371.1 -118006)
(-153381 1215.38 -19867.7 231305 7751.65 -152186)
(-7343.71 -5635.3 -9292.86 140733 9475.42 -222919)
(-2505.84 4615.23 8780.22 140224 9531.32 -216171)
(-117395 -1479.75 19414.3 230052 7804.51 -133957)
(-153998 -4939.34 -21617.4 218123 1478.97 -152216)
(-26761.7 -5748.27 -10325.1 94870.6 1693.7 -233724)
(-21885.4 5285.41 9869.21 94867.2 1731.7 -226763)
(-117818 4720.24 21157.4 216850 1515.86 -133774)
(-149407 -3565.92 -22580.7 236739 2599.01 -151195)
(-18904.1 -4551.39 -10842.2 78369.9 1950.11 -239178)
(-14074.8 4205.5 10428.2 78377.2 1947.43 -232083)
(-112808 3433.24 22129.7 234963 2545.58 -132491)
(-152727 -322.981 -23575.3 241919 6423.22 -157228)
(-17105.4 -2304.05 -11401.3 62828.4 5512.05 -250793)
(-12221.6 1967.78 10998 62806.9 5479.73 -243559)
(-115466 210.244 23129.5 240016 6293.67 -138167)
(-171152 6021.47 -24366.6 212125 13544.6 -174287)
(-38032.5 1824.92 -11889.6 29144.2 12988.7 -275440)
(-33059.2 -2283.62 11472 29247.8 12928.4 -268036)
(-133124 -6178.86 23921.4 210629 13340.6 -154743)
(-196170 16573 -23856.5 97927 23734.8 -194177)
(-70988.7 7968.29 -11683.8 -62566.5 24858 -304202)
(-65834.2 -8727.89 11228.7 -61346.2 24758.9 -296569)
(-157163 -16779.8 23408.4 99528.8 23441.4 -173998)
(-112502 21161.7 -21122.7 -109178 27263.4 -108784)
(65446 10408 -10399.6 -202489 29987.7 -201949)
(70231.5 -9943.1 9905.25 -195528 29884.9 -195058)
(-73806.9 -20726.3 20681 -90700.7 26992.2 -90524.4)
(-183380 22177.9 -10217.6 273354 9674.4 82164.8)
(-30514 -8371.51 -3536.65 66039.7 25323.2 -36170.4)
(-27909.7 7463.47 3841.86 62898.5 25612.8 -36282.6)
(-150768 -21029.4 10281.9 261779 10379.2 81684.9)
(-214201 -1539.19 -16085.5 100602 10653.7 7643.88)
(-138289 -6282.97 -7094.97 -37266.8 19009.9 -138725)
(-133088 6224.82 7477.53 -37401.6 19134.4 -137044)
(-178326 1622.9 16124.7 99818.4 10883.3 10528.5)
(-221376 -5234.27 -17091.3 78382.4 8868.26 -5673.01)
(-168375 -5463.32 -7835.46 -93443.9 11440.3 -172305)
(-163004 5447.76 8301.29 -92674.1 11488.4 -170351)
(-185074 5176.58 17138 78537.4 8902.29 -2679.36)
(-222728 -3738.26 -17445.1 76467.1 9256.08 -5253.67)
(-171986 -4275.65 -7961.59 -130341 9413.49 -185149)
(-166598 4184.44 8520.52 -129292 9401.34 -183155)
(-185874 3706.43 17518.7 76720.4 9135.94 -2373.65)
(-231425 -593.032 -17977.7 71734.7 14381.4 -9009.53)
(-180363 -2225.86 -8279.49 -158454 13700.2 -200118)
(-174892 2085.52 8887.84 -157349 13631 -198101)
(-193796 571.76 18072.5 72025.7 14106.1 -6142.14)
(-256853 6086.67 -18388.8 46876.6 22854.3 -25405.6)
(-211901 1881.9 -8624.91 -190437 21979.7 -229000)
(-206325 -2170.77 9231.94 -189241 21860.5 -226942)
(-218318 -6150.85 18494.9 47460.1 22438.6 -22425.5)
(-290872 17973.9 -17949.9 -42137.2 29326.3 -43307.5)
(-252492 8480.2 -8494.03 -254933 29078.4 -255544)
(-246738 -9135.34 9078.97 -252760 28929.4 -253402)
(-251223 -18104.9 18069.4 -38772 28837.1 -40026.3)
(-196501 23881.6 -16528.7 -194522 23865.9 97854.6)
(-70785.9 11686.1 -7981.47 -304608 24971.8 -61988.4)
(-65603.7 -11244.5 8643.69 -296865 24875.5 -60803.4)
(-157247 -23430.2 16713.3 -174022 23582.1 99352)
(-167656 11950.8 -4374.07 176706 18864.6 123902)
(-36340.8 -12919.3 -725.032 -11456.5 34407.3 -3902.2)
(-33721 12392 819.793 -14203.6 34486.5 -4639.14)
(-136022 -10695.5 4368.54 165943 19100.8 121579)
(-181086 -3238.21 -6760.23 68893.1 22383.6 94236.7)
(-106059 -7180.53 -2089.56 -68213.6 30384.7 -70999.3)
(-101057 7497.3 2172.4 -68435.6 30409.6 -70299.7)
(-146493 3466.03 6737.84 67776.9 22414.1 94380)
(-185348 -5084.71 -6809.95 64588 20870 77616.7)
(-127959 -5245.5 -2236.35 -103861 23378.2 -109521)
(-122806 5500.73 2326.99 -103233 23367 -108521)
(-150313 5131.47 6788.32 64351.3 20776.8 77930.7)
(-186927 -3652.46 -6573.86 68565.4 19830.4 72111.3)
(-131194 -4115.65 -2043.34 -131281 20038.6 -129460)
(-126020 4191.48 2176.79 -130334 19988 -128403)
(-151308 3687.16 6567.7 68532.6 19622.5 72346.2)
(-195692 -647.027 -6509.15 69897.7 22127.2 65796.4)
(-139658 -2279.37 -2006 -152125 21577 -148632)
(-134386 2231.51 2172.96 -151088 21482.8 -147553)
(-159219 670.192 6519.01 69958.8 21795.6 65998.9)
(-221147 6215.88 -6468.62 55337.7 25366.3 50909.4)
(-170463 1840.97 -2081.61 -173525 24555.4 -177433)
(-165054 -2096.83 2256.68 -172394 24427.1 -176319)
(-183608 -6250.41 6491.2 55662.4 24934.5 51184.4)
(-256971 18425.4 -6336.72 -23080.9 23751.5 44610.6)
(-210980 8611.39 -2144.97 -227099 22860.7 -192071)
(-205347 -9289.97 2334.24 -224999 22733.3 -190901)
(-218088 -18542.6 6382.64 -20018.1 23320.3 45086.8)
(-171454 24402.5 -6237.12 -174473 14064.4 212937)
(-36654 11889.4 -2114.87 -275566 13507.2 30642.7)
(-31600.5 -11479.3 2429.59 -267988 13447.8 30690.3)
(-132847 -23948.5 6360.48 -154450 13868.2 211252)
(-153724 7677.22 -1171.29 138766 21965.1 119039)
(-31658.7 -14487.6 628.723 -32565.3 31605.8 -3542.42)
(-29081.1 13994.9 -610.303 -35224.5 31616.9 -4259.56)
(-122864 -6447.19 1146.54 128223 22058.4 116709)
(-157603 -3646.35 -1578.54 51953.8 26556.1 112145)
(-81486.8 -7334.1 689.399 -78185.3 31418 -49829.5)
(-76601.3 7723.95 -716.523 -78418.4 31400.3 -49246.8)
(-123901 3903.46 1527.9 50738.5 26515.9 111921)
(-159538 -4629.1 -1226.39 58050.6 26453.5 97115.2)
(-97118.7 -4904.22 896.433 -101267 27826.8 -86031.5)
(-92085.8 5258.74 -950.323 -100695 27787.1 -85154.6)
(-125392 4718.96 1167.84 57652.4 26317.9 97051.1)
(-161057 -3280.77 -816.593 70927.4 25011.7 86381.1)
(-99326 -3837.6 1179.66 -116986 24880.2 -110629)
(-94265.9 3995.22 -1227.18 -116105 24815.3 -109668)
(-126297 3350.86 762.434 70728.1 24790.5 86309.1)
(-169866 -440.598 -542.37 79664.4 24189.4 76584.9)
(-107545 -2189.37 1346 -129064 23627 -133258)
(-102373 2183.85 -1377.27 -128085 23535 -132257)
(-134184 486.063 497.373 79573.5 23884.8 76520.6)
(-194995 6261.99 -407.887 70353.7 22297.8 64176.3)
(-137401 1748.92 1355.11 -145050 21677.9 -159689)
(-132066 -2005.25 -1372.2 -143963 21569.3 -158649)
(-158128 -6286.11 374.699 70538.8 21938.6 64171.7)
(-230620 18058.7 -515.621 -5650.93 16163.9 69150.5)
(-176688 8245.91 1180.45 -197522 15428.6 -163102)
(-171093 -8954.08 -1164.96 -195450 15334 -162032)
(-192229 -18172.8 506.924 -2714.92 15837.9 69251.1)
(-151535 23682.3 -782.082 -156877 7507.34 246818)
(-11752.3 11416.8 1133.17 -250399 6678.09 65599.1)
(-6727.55 -11023.2 -998.843 -242907 6640.22 65468.7)
(-113289 -23224.8 839.396 -137138 7372.94 244540)
(-146237 6408.73 -148.255 121668 19982.3 109236)
(-30228.5 -14386.3 775.402 -39488.4 24798.8 -5931.47)
(-27697.9 13879.1 -774.54 -42133.5 24800.6 -6615.08)
(-115902 -5213.17 128.271 111219 20045.4 106989)
(-147259 -3465.72 63.9544 41680.1 23996 108644)
(-72928.7 -7046.52 1237.9 -82302.4 26272.8 -43386.1)
(-68128.3 7425.01 -1279.11 -82553.7 26253.3 -42814.6)
(-114141 3716.6 -107.44 40397.1 23964.2 108382)
(-148457 -4177.42 438.233 51376 25012.1 95956.6)
(-85962.3 -4570.02 1510.24 -100291 25446 -75672.2)
(-81014.9 4940.15 -1583.37 -99752.4 25407 -74823.8)
(-114894 4276.23 -492.869 50895.8 24898.5 95807.8)
(-150135 -2912.05 780.981 69181.4 23877.4 83751.5)
(-87822.2 -3584.36 1739.03 -109363 23527.3 -100831)
(-82841.3 3768.52 -1821.31 -108522 23469.2 -99891.8)
(-115935 2995.32 -837.492 68897.5 23694.6 83609.5)
(-159124 -225.678 1023.02 82245.3 21524.7 73021.2)
(-96069.6 -2082.96 1880.89 -116183 21034 -123920)
(-90966.5 2093.67 -1958.24 -115241 20959.2 -122932)
(-123955 281.31 -1075.48 82077.6 21285.1 72904.4)
(-184007 6217.54 1112.52 74923.2 17322.8 63549.2)
(-125342 1635.51 1888.51 -130205 16946.7 -147252)
(-120058 -1895.02 -1952.57 -129143 16865.2 -146222)
(-147573 -6236.5 -1155.86 75050.8 17055.1 63479.4)
(-219033 17537.6 947.53 -112.578 10508.2 75206)
(-163562 7820.01 1726.38 -183137 10135.5 -144381)
(-157997 -8543.7 -1756.85 -181075 10069.2 -143334)
(-180960 -17649.1 -970.654 2782.11 10276.7 75181.8)
(-143673 22867.6 685.639 -148742 4204.66 252670)
(-5279.05 10916.7 1695.82 -237573 3651.51 80810.9)
(-271.756 -10529.7 -1631.95 -230117 3626.5 80630.6)
(-105651 -22406.3 -659.333 -129125 4112.5 250168)
(-142062 6156.91 32.5007 113804 15518.7 102573)
(-30309.3 -13907.4 519.858 -42007.6 17692.8 -7418.1)
(-27812 13383.8 -521.997 -44651.1 17694.7 -8089.99)
(-112051 -4985.95 -45.0816 103415 15563.9 100373)
(-142641 -3190.14 271.311 36701.6 18269.3 102954)
(-70873 -6718.38 894.93 -83370.7 19158.8 -41154.6)
(-66130.8 7073.94 -927.021 -83644.9 19146.8 -40591)
(-109881 3430.16 -300.066 35361.7 18255 102689)
(-143819 -3854.22 532.8 47344.8 19426.3 92058.2)
(-83180.5 -4331.75 1093.55 -99431.3 19420.8 -70330.9)
(-78292.6 4691.2 -1151.34 -98921.9 19393.2 -69504.4)
(-110615 3950.12 -571.124 46798.7 19351.6 91867.4)
(-145703 -2660.75 752.269 66864.8 18679.3 80622.4)
(-85078.5 -3422.29 1234.16 -105828 18325 -94073.7)
(-80153.4 3607.67 -1304.13 -105018 18283 -93158.9)
(-111847 2746.14 -794.359 66518 18552.6 80423.6)
(-154821 -88.7058 903.882 81561.9 16272.6 70813.4)
(-93405 -2019.21 1316.93 -110485 15927.1 -115920)
(-88351.4 2033.16 -1387.51 -109570 15874.4 -114954)
(-119965 147.95 -944.847 81341 16107 70635.6)
(-179490 6151.6 946.188 74910.4 12170.1 63745.9)
(-122280 1544.18 1314.9 -123901 11988.3 -136785)
(-117036 -1805.52 -1376.24 -122858 11932.9 -135779)
(-143316 -6167.54 -981.203 75001.2 11989.1 63602.6)
(-213992 17148.4 818.485 929.203 6704.1 78404)
(-159759 7527.32 1211.03 -176746 6589.38 -131275)
(-154219 -8256.95 -1246.35 -174693 6545.8 -130256)
(-176113 -17257.2 -839.261 3800.18 6550.84 78274.6)
(-140784 22309.5 632.55 -144791 2484.86 253136)
(-5542.44 10589.3 1195.07 -230896 2215.58 89282.7)
(-550.457 -10203.9 -1164.47 -223458 2199.6 89066.1)
(-102893 -21844.8 -619.889 -125237 2424.83 250484)
(-139628 6135.41 22.1763 110406 9745.74 98983.9)
(-30542 -13546.5 261.836 -42800.4 10658 -8244.99)
(-28064 13010.7 -263.524 -45443.3 10659.6 -8913.75)
(-109802 -4979.4 -28.8525 100057 9772.84 96808.5)
(-140295 -3001.74 151.992 34771.1 11272.4 99207.6)
(-70534.9 -6504.91 459.146 -83257.7 11574.1 -40509.2)
(-65826.6 6843.1 -478.133 -83548.4 11568.2 -39953.1)
(-107739 3233.88 -167.647 33395 11267.8 98944.4)
(-141604 -3667.26 290.656 45579.4 12043.7 89445)
(-82740.8 -4197.41 563.635 -98577.2 11943.1 -67798.1)
(-77887.7 4543.97 -598.516 -98089.3 11927.7 -66987.3)
(-108603 3758.72 -312.288 44987.5 12003.6 89232.6)
(-143635 -2521.43 404.458 65398.1 11612.6 79244.1)
(-84756.8 -3338.98 632.907 -104173 11376.1 -89977.4)
(-79864.6 3518.66 -676.803 -103385 11351.7 -89082.9)
(-109974 2605.46 -429.101 65008 11540.7 79006.4)
(-152809 -18.4443 480.78 80427.7 9962.29 70739.4)
(-93128.5 -1990.97 671.121 -108227 9769.01 -110389)
(-88104.2 2003.4 -716.955 -107330 9738.3 -109446)
(-118128 78.3888 -505.448 80171.3 9866.99 70512)
(-177316 6103.16 497.873 73976.9 7208.82 65228.1)
(-121744 1489.31 667.439 -121483 7139.35 -129707)
(-116524 -1751.83 -708.246 -120453 7107.48 -128725)
(-141288 -6117.53 -519.345 74043.8 7105.01 65024.3)
(-211477 16922.3 425.908 906.24 3821.13 81014.5)
(-158771 7370.17 615.862 -173936 3814.65 -123269)
(-153247 -8101.68 -640.922 -171890 3789.91 -122275)
(-173706 -17029.1 -439.122 3762.43 3733.97 80807.5)
(-139460 21999.6 317.599 -142664 1366.36 253403)
(-6782.7 10416.6 606.842 -227305 1262.71 94067.5)
(-1799.77 -10030.9 -593.549 -219876 1253.79 93824.1)
(-101640 -21532.4 -311.66 -123142 1332.54 250652)
(-138464 6138.28 4.44718 109185 3315.08 97471.5)
(-30638.5 -13378.2 76.8089 -42956.8 3567.39 -8627.7)
(-28169.4 12836 -77.3906 -45599.2 3568.04 -9295.75)
(-108721 -4989.34 -6.53341 98855.4 3324.07 95306.4)
(-139219 -2917.59 41.5868 34204.4 3798.06 97518.5)
(-70486.9 -6410.57 134.374 -82988.9 3868.21 -40407.2)
(-65793.9 6739.93 -140.559 -83287.6 3866.49 -39855.3)
(-106755 3145.84 -46.5209 32811.4 3797.2 97256.5)
(-140609 -3586.01 83.2915 45006.8 4057.12 88306.9)
(-82709.6 -4140.89 165.265 -98055.1 4011.44 -66839.8)
(-77872.2 4480.06 -176.764 -97578.1 4006.56 -66037.1)
(-107700 3674.86 -90.2172 44392.1 4044.67 88085.6)
(-142709 -2461.96 117.688 64771.5 3913.74 78882.8)
(-84798.4 -3305.83 185.408 -103491 3833.09 -88121.3)
(-79921 3481.25 -200.139 -102713 3825.18 -87237.5)
(-109136 2544.71 -125.716 64359.3 3890.63 78626.2)
(-151899 10.1087 140.413 79773.4 3338.61 71188.6)
(-93185 -1981.16 196.098 -107457 3277.69 -107688)
(-88174 1991.86 -211.724 -106570 3267.67 -106757)
(-117298 49.7355 -148.561 79499.1 3307.68 70934.9)
(-176322 6079.91 144.987 73368.4 2388.37 66420.6)
(-121673 1465.41 194.668 -120683 2371.95 -126279)
(-116463 -1728.63 -208.739 -119659 2361.57 -125310)
(-140360 -6093.64 -152.142 73423.4 2354.63 66184.3)
(-210321 16822.8 122.439 795.856 1252.47 82561.1)
(-158488 7305.39 179.673 -172852 1260.14 -119563)
(-152970 -8037.43 -188.538 -170809 1252.13 -118582)
(-172598 -16928.6 -126.904 3644.68 1224.2 82313.7)
(-138836 21866.2 86.9316 -141680 441.442 253736)
(-7471.48 10345.4 176.512 -225690 416.422 96235.1)
(-2492.32 -9959.3 -172.844 -218265 413.55 95977.6)
(-101045 -21397.6 -85.1726 -122173 430.521 250935)
)
;

boundaryField
{
    interface
    {
        type            calculated;
        value           nonuniform List<symmTensor> 
192
(
(-38.3513 0.342253 2.61902 966958 42903.9 276091)
(-39.9741 0.369374 4.25849 601019 7751.65 217528)
(-41.6983 0.14386 4.90332 590691 1478.97 220352)
(-42.8951 -0.29793 5.11861 617013 2599.01 229079)
(-43.3651 -0.703115 5.11431 636913 6423.22 237766)
(-44.3986 -1.40894 5.01503 632560 13544.6 246148)
(-42.9017 -1.95263 4.65892 542134 23734.8 250030)
(-46.5805 -4.45002 4.38695 257877 27263.4 258271)
(-37.4089 0.246524 1.28344 698730 9674.4 507541)
(-38.1181 0.298019 2.22907 511018 10653.7 418060)
(-39.1717 0.107736 2.53013 497606 8868.26 413551)
(-39.9783 -0.337026 2.57887 507409 9256.08 425688)
(-40.1525 -0.759635 2.50435 522115 14381.4 441371)
(-41.0423 -1.53255 2.38096 530540 22854.3 458258)
(-39.2439 -2.13123 2.15012 477663 29326.3 476493)
(-42.9853 -4.74609 1.97027 250327 23865.9 542704)
(-39.9124 0.211416 1.00355 562548 18864.6 509744)
(-40.5304 0.262161 1.71812 439963 22383.6 465307)
(-41.5642 0.080943 1.93979 443573 20870 456602)
(-42.3836 -0.379989 1.96969 459214 19830.4 462760)
(-42.4882 -0.835741 1.90602 480177 22127.2 476075)
(-43.3074 -1.68783 1.80562 499842 25366.3 495414)
(-41.08 -2.36881 1.64137 461320 23751.5 529011)
(-44.5762 -5.15071 1.50691 247269 14064.4 634679)
(-40.1478 0.158217 0.605978 494668 21965.1 474941)
(-40.5862 0.185341 1.09701 390955 26556.1 451146)
(-41.405 0.00161144 1.24186 403773 26453.5 442837)
(-42.0924 -0.460049 1.24773 428055 25011.7 443509)
(-42.0664 -0.928679 1.189 456352 24189.4 453273)
(-42.7982 -1.8126 1.10877 481260 22297.8 475082)
(-40.412 -2.52912 1.00621 446033 16163.9 520834)
(-43.8215 -5.34618 0.928669 239740 7507.34 643435)
(-40.9186 0.132267 0.440022 459488 19982.3 447056)
(-41.3086 0.136475 0.79641 362157 23996 429121)
(-42.03 -0.0578085 0.902765 378116 25012.1 422697)
(-42.6594 -0.52514 0.906603 407267 23877.4 421837)
(-42.5529 -1.0084 0.863057 439901 21524.7 430677)
(-43.2075 -1.91959 0.803364 466665 17322.8 455291)
(-40.6531 -2.6684 0.732455 432407 10508.2 507725)
(-43.9098 -5.52266 0.677478 232680 4204.66 634092)
(-41.1327 0.11183 0.265746 440838 15518.7 429607)
(-41.4766 0.0966219 0.497987 346639 18269.3 412892)
(-42.1133 -0.10764 0.568168 363469 19426.3 408182)
(-42.687 -0.578371 0.569065 394358 18679.3 408115)
(-42.5186 -1.06952 0.538625 428636 16272.6 417887)
(-43.1227 -1.99369 0.498204 455913 12170.1 444749)
(-40.4881 -2.7588 0.455046 422496 6704.1 499970)
(-43.6805 -5.63017 0.423571 227769 2484.86 625696)
(-41.3883 0.101743 0.155059 431230 9745.74 419808)
(-41.7166 0.0731074 0.290281 338786 11272.4 403222)
(-42.3084 -0.139281 0.331501 355804 12043.7 399669)
(-42.8515 -0.613554 0.33213 387021 11612.6 400867)
(-42.6449 -1.11084 0.314561 421624 9962.29 411936)
(-43.2122 -2.04402 0.290674 448972 7208.82 440223)
(-40.5153 -2.82059 0.266407 416267 3821.13 496376)
(-43.6504 -5.7052 0.247541 224777 1366.36 620843)
(-41.4537 0.0955801 0.0455095 427139 3315.08 415426)
(-41.7706 0.0599504 0.0885009 335501 3798.06 398815)
(-42.3375 -0.156202 0.101805 352535 4057.12 395835)
(-42.8633 -0.631493 0.101816 383713 3913.74 397824)
(-42.6395 -1.13116 0.0960556 418280 3338.61 409695)
(-43.189 -2.06743 0.0882231 445602 2388.37 438654)
(-40.473 -2.84918 0.0810857 413286 1252.47 495051)
(-43.579 -5.73906 0.0752196 223358 441.442 618774)
(295620 36640.1 -3.61539 980215 -0.885303 -13.1903)
(225112 1215.38 -6.1851 609798 -1.11392 -9.27241)
(227510 -4939.34 -7.33231 599630 -0.999152 -5.21103)
(241438 -3565.92 -7.81806 627583 -0.772645 -3.34387)
(253905 -322.981 -8.01896 648551 -0.669616 -2.70731)
(260205 6021.47 -8.17998 643482 -0.709 -3.13026)
(256597 16573 -8.37938 550693 -0.855194 -4.82713)
(260955 21161.7 -9.26472 264279 -1.05838 -6.22899)
(552355 -4309.87 -2.10029 810971 -0.528602 -16.8132)
(423946 -5635.3 -4.04312 572022 -0.872342 -15.9579)
(415067 -5748.27 -4.84264 536700 -0.83404 -14.5419)
(436413 -4551.39 -5.15135 533687 -0.575805 -13.9572)
(458599 -2304.05 -5.28276 538533 -0.385991 -13.7219)
(470019 1824.92 -5.45101 537196 -0.277108 -13.887)
(469516 7968.29 -5.81373 477938 -0.294815 -14.4203)
(522568 10408 -6.96395 254633 -0.364013 -14.677)
(543334 1620.2 -2.05467 795090 -0.38982 -14.0475)
(417008 4615.23 -4.00165 559738 -0.733714 -13.4117)
(407767 5285.41 -4.82831 524520 -0.724297 -12.0775)
(428753 4205.5 -5.1535 521205 -0.438439 -11.48)
(450727 1967.78 -5.28335 525756 -0.187198 -11.2587)
(461959 -2283.62 -5.4285 524266 0.0246468 -11.4185)
(461330 -8727.89 -5.74564 465818 0.136803 -12.0174)
(514869 -9943.1 -6.86158 249110 0.160136 -12.7267)
(295161 -36147.9 -2.18865 932437 -0.319487 -14.2257)
(228218 -1479.75 -4.46179 575665 -0.652626 -13.8754)
(229990 4720.24 -5.50113 564659 -0.647063 -12.6926)
(243554 3433.24 -5.92889 591325 -0.335362 -12.2039)
(255970 210.244 -6.09814 611453 -0.0523281 -12.0933)
(262264 -6178.86 -6.28769 606018 0.210066 -12.2692)
(258826 -16779.8 -6.58334 515518 0.397566 -12.7215)
(265412 -20726.3 -7.77235 248518 0.572071 -13.3065)
(-7.05646 0.681371 0.531803 890995 42371.1 231624)
(-4.79078 0.978687 1.09095 536162 7804.51 172154)
(-2.20112 0.817886 1.28201 524973 1515.86 174348)
(-0.734554 0.344773 1.39016 549656 2545.58 182202)
(-0.086439 0.0677469 1.48718 568168 6293.67 189985)
(1.47531 -0.324975 1.74658 562922 13340.6 197550)
(1.1818 -0.300512 1.97752 474132 23441.4 200606)
(9.55589 -2.45267 2.5889 206556 26992.2 206733)
(-10.6513 0.269823 -0.326208 626374 10379.2 446280)
(-10.2348 0.454519 -0.36866 447567 10883.3 358277)
(-9.40703 0.396695 -0.467483 434068 8902.29 352851)
(-8.77324 0.129701 -0.488639 442685 9135.94 363591)
(-8.50851 0.0566573 -0.431404 455970 14106.1 377802)
(-6.99565 -0.162168 -0.214059 463098 22438.6 393212)
(-6.95967 0.0791727 0.0716915 411229 28837.1 409975)
(1.21655 -1.8746 0.504065 200768 23582.1 474141)
(-10.9182 0.149315 -0.214321 492904 19100.8 448540)
(-10.6242 0.253117 -0.17441 378282 22414.1 404886)
(-9.98613 0.23806 -0.157761 381713 20776.8 395292)
(-9.34606 0.08033 -0.104434 396220 19622.5 400034)
(-9.00863 0.131046 -0.0127045 415673 21795.6 411714)
(-7.18488 0.0164515 0.17268 433718 24934.5 429241)
(-6.86672 0.368013 0.370404 395737 23320.3 460842)
(1.73031 -1.63837 0.625751 198091 13868.2 563793)
(-12.138 0.0651709 -0.224894 426699 22058.4 415185)
(-12.0454 0.109797 -0.187889 330713 26515.9 391895)
(-11.7151 0.125003 -0.145604 343289 26317.9 382688)
(-11.1765 0.0604519 -0.0841912 366392 24790.5 381973)
(-10.8306 0.215295 -0.00409815 393080 23884.8 390027)
(-8.81182 0.194067 0.128716 416169 21938.6 409802)
(-8.19723 0.616023 0.259323 381163 15837.9 453129)
(0.552065 -1.37018 0.413752 190831 7372.94 572509)
(-12.4227 0.0503474 -0.108072 392593 20045.4 388362)
(-12.3228 0.0742359 -0.0361437 302868 23964.2 370853)
(-12.0326 0.107013 0.0363399 318572 24898.5 363484)
(-11.4545 0.0899782 0.104602 346510 23694.6 361222)
(-11.0411 0.298187 0.171059 377464 21285.1 368291)
(-8.88259 0.318833 0.256576 402287 17055.1 390716)
(-8.14276 0.757889 0.324249 368057 10276.7 440457)
(0.672086 -1.257 0.396469 184006 4112.5 563300)
(-12.8244 0.0453831 -0.0728057 374609 15563.9 371567)
(-12.728 0.0633281 -0.0143905 287920 18255 355248)
(-12.4657 0.109472 0.047143 304484 19351.6 349553)
(-11.8674 0.121791 0.0997328 334139 18552.6 348045)
(-11.4106 0.363159 0.146166 366692 16107 355987)
(-9.16568 0.409419 0.19876 391954 11989.1 380556)
(-8.33421 0.854396 0.236257 358454 6550.84 432928)
(0.528406 -1.17397 0.274178 179233 2424.83 554954)
(-12.9448 0.0485505 -0.0276908 365388 9772.84 362139)
(-12.8334 0.0674907 0.0144717 280389 11267.8 345938)
(-12.5609 0.121389 0.0563154 297129 12003.6 341374)
(-11.9353 0.147202 0.0895738 327100 11540.7 341098)
(-11.4462 0.40361 0.116868 359952 9866.99 350293)
(-9.15395 0.459892 0.144227 385244 7105.01 376224)
(-8.28164 0.9036 0.161453 352395 3733.97 429440)
(0.600144 -1.13804 0.176384 176314 1332.54 550108)
(-13.0449 0.0493287 -0.0122628 361474 3324.07 357925)
(-12.9307 0.069434 0.000871234 277250 3797.2 341695)
(-12.656 0.127449 0.0148041 293999 4044.67 337693)
(-12.02 0.159782 0.0257684 323924 3890.63 338190)
(-11.5149 0.423155 0.0348215 356728 3307.68 348163)
(-9.20154 0.484568 0.0435863 381975 2354.63 374736)
(-8.2991 0.927279 0.0495494 349488 1224.2 428157)
(0.58801 -1.11863 0.0542573 174925 430.521 548033)
(261812 9.37787 -21122.7 -5.56454 -0.890138 265530)
(257537 8.53545 -16528.7 -3.83525 -0.685873 551892)
(261724 8.41014 -6237.12 -1.43825 -0.47365 646115)
(257597 8.36862 -782.082 -0.00537757 -0.316205 655950)
(250232 8.41037 685.639 1.10988 -0.224423 646574)
(243826 8.43686 632.55 1.88558 -0.140438 637746)
(239676 8.46518 317.599 2.37706 -0.083416 632539)
(237729 8.47705 86.9316 2.61238 -0.0256656 630301)
(523398 7.03815 -10399.6 -14.1471 -0.15738 256003)
(470882 5.89403 -7981.47 -13.7474 -0.0788749 479680)
(472991 5.54608 -2114.87 -12.7963 0.0267215 540288)
(466157 5.40701 1133.17 -12.1426 0.0543764 543509)
(453147 5.36788 1695.82 -11.5717 0.0573292 539237)
(441275 5.3442 1195.07 -11.1614 0.0482648 536100)
(433346 5.33935 606.842 -10.8916 0.0301308 534196)
(429563 5.33592 176.512 -10.7509 0.0112766 533269)
(515584 6.93527 9905.25 -12.2318 0.389524 250295)
(462532 5.80739 8643.69 -11.3763 0.381961 467333)
(464707 5.49493 2429.59 -10.3684 0.365565 526998)
(457970 5.38202 -998.843 -9.72282 0.299272 530166)
(444996 5.35538 -1631.95 -9.14442 0.237426 525898)
(433135 5.33906 -1164.47 -8.76676 0.167104 522751)
(425209 5.33737 -593.549 -8.50545 0.100005 520833)
(421427 5.33466 -172.844 -8.38651 0.03297 519897)
(265902 7.8066 20681 -12.8692 0.807905 249184)
(259439 6.60255 16713.3 -12.1853 0.652761 516038)
(263485 6.30339 6360.48 -11.437 0.555791 607584)
(259364 6.15202 839.396 -10.9192 0.437123 617193)
(251939 6.11395 -659.333 -10.4086 0.341495 607759)
(245483 6.085 -619.889 -10.096 0.236339 598860)
(241302 6.07874 -311.66 -9.86677 0.1422 593593)
(239342 6.07358 -85.1726 -9.76418 0.0463937 591322)
)
;
    }
    symmetry
    {
        type            symmetry;
    }
    bottom
    {
        type            calculated;
        value           nonuniform List<symmTensor> 
32
(
(-723970 100609 -12758.8 253540 96889 -730242)
(-523388 65828.2 -10217.6 73843.7 993.209 -257842)
(-437750 41812.2 -4374.07 11458.8 8487.77 -146193)
(-398659 31401.3 -1171.29 -10250.7 15887.6 -125896)
(-379205 27717.8 -148.255 -19612.8 16802.4 -123732)
(-368509 26449.2 32.5007 -23651 13921.7 -123874)
(-362485 25948.3 22.1763 -25067.8 9013.46 -123872)
(-359700 25747.5 4.44718 -25414.8 3104.95 -123765)
(-256942 -739.299 -5517.38 165815 89230.1 -546552)
(-144693 -8137.89 -3536.65 -13102.5 19127.6 -150350)
(-96915.9 -15429.9 -725.032 -54941.4 27631 -64477.3)
(-79205 -17996.2 628.723 -61450.1 27868.7 -51088.7)
(-73799.6 -18061.9 775.402 -63270.9 22825.9 -49502.5)
(-72495.7 -17543.1 519.858 -64462.4 16670 -49604.5)
(-72194.7 -17135.7 261.836 -65030.4 10181.6 -49897.7)
(-72092.9 -16945.6 76.8089 -65181.9 3430.84 -50082.1)
(-249359 -3505.36 5096.18 164086 88512 -535566)
(-140544 5912.76 3841.86 -15769.6 19497.8 -148916)
(-93162.4 13583.9 819.793 -57375.7 27766.4 -64080.5)
(-75586.2 16176.6 -610.303 -63867.6 27901.2 -50764.7)
(-70270 16228.1 -774.54 -65706.8 22836.1 -49187.2)
(-69021.7 15695 -521.997 -66908 16675.9 -49299.7)
(-68752.1 15277.3 -263.524 -67479.7 10185.4 -49601.8)
(-68664.5 15081.7 -77.3906 -67632.5 3432.15 -49790.9)
(-662473 -98645.9 12441.9 256563 94931.3 -684568)
(-472825 -63077 10281.9 72601.5 1914.15 -240372)
(-389726 -39051 4368.54 10176.4 8878.99 -132125)
(-351993 -28755.3 1146.54 -11725.7 16049.9 -112420)
(-333408 -25159.2 128.271 -21216.6 16898.5 -110517)
(-323238 -23944.4 -45.0816 -25304 13984.5 -110814)
(-317512 -23474.4 -28.8525 -26737.1 9049.66 -110902)
(-314862 -23287.7 -6.53341 -27088.8 3116.8 -110835)
)
;
    }
}


// ************************************************************************* //
