/*--------------------------------*- C++ -*----------------------------------*\
| =========                 |                                                 |
| \\      /  F ield         | OpenFOAM: The Open Source CFD Toolbox           |
|  \\    /   O peration     | Version:  v1912                                 |
|   \\  /    A nd           | Website:  www.openfoam.com                      |
|    \\/     M anipulation  |                                                 |
\*---------------------------------------------------------------------------*/
FoamFile
{
    version     2.0;
    format      ascii;
    class       volVectorField;
    location    "0.04/solid";
    object      D;
}
// * * * * * * * * * * * * * * * * * * * * * * * * * * * * * * * * * * * * * //

dimensions      [0 1 0 0 0 0 0];


internalField   nonuniform List<vector> 
256
(
(-1.946e-08 6.13532e-09 -2.93926e-08)
(-6.92118e-09 9.40406e-09 -1.71062e-08)
(5.68468e-09 9.56969e-09 -1.7647e-08)
(1.73129e-08 7.37945e-09 -3.13087e-08)
(-3.02482e-08 2.31725e-08 -6.6523e-08)
(-1.23534e-08 2.56992e-08 -5.19514e-08)
(7.60358e-09 2.65519e-08 -5.32445e-08)
(2.42311e-08 2.63416e-08 -7.07353e-08)
(-3.095e-08 4.65695e-08 -9.50242e-08)
(-1.42153e-08 4.8011e-08 -8.19622e-08)
(5.26363e-09 4.95079e-08 -8.37051e-08)
(2.0773e-08 5.14456e-08 -1.00552e-07)
(-3.02833e-08 7.33701e-08 -1.20301e-07)
(-1.55196e-08 7.55602e-08 -1.07717e-07)
(1.78518e-09 7.76123e-08 -1.09721e-07)
(1.53887e-08 7.97709e-08 -1.26609e-07)
(-3.16002e-08 1.0257e-07 -1.44776e-07)
(-1.7843e-08 1.07146e-07 -1.31814e-07)
(-1.27608e-09 1.09693e-07 -1.33972e-07)
(1.13607e-08 1.10369e-07 -1.51548e-07)
(-3.85152e-08 1.34572e-07 -1.71092e-07)
(-2.28953e-08 1.41934e-07 -1.57596e-07)
(-2.24164e-09 1.44937e-07 -1.59834e-07)
(1.2281e-08 1.43683e-07 -1.78106e-07)
(-5.66266e-08 1.72339e-07 -2.02452e-07)
(-3.22808e-08 1.77875e-07 -1.89258e-07)
(4.89048e-10 1.81304e-07 -1.91526e-07)
(2.37319e-08 1.82704e-07 -2.09534e-07)
(-8.574e-08 2.11309e-07 -2.36571e-07)
(-4.24493e-08 2.01896e-07 -2.25629e-07)
(3.40427e-09 2.0571e-07 -2.27907e-07)
(4.55415e-08 2.23017e-07 -2.43623e-07)
(2.77738e-09 1.73485e-08 -2.04587e-08)
(-1.7777e-09 1.45872e-08 -2.13841e-08)
(1.24784e-09 1.49601e-08 -2.17715e-08)
(-4.12514e-09 1.89533e-08 -2.16612e-08)
(2.70765e-09 4.02224e-08 -5.41475e-08)
(-3.18097e-09 3.97789e-08 -5.71541e-08)
(2.62107e-10 4.08392e-08 -5.81422e-08)
(-6.73361e-09 4.37187e-08 -5.71126e-08)
(2.66852e-09 6.43535e-08 -8.2802e-08)
(-4.25856e-09 6.52259e-08 -8.71137e-08)
(-2.04125e-09 6.6852e-08 -8.84962e-08)
(-1.00421e-08 6.94043e-08 -8.69252e-08)
(2.70653e-09 9.07075e-08 -1.08377e-07)
(-5.5851e-09 9.30034e-08 -1.13045e-07)
(-4.92817e-09 9.51224e-08 -1.14672e-07)
(-1.42504e-08 9.71737e-08 -1.13237e-07)
(9.63569e-10 1.18823e-07 -1.32843e-07)
(-7.99536e-09 1.23641e-07 -1.37334e-07)
(-7.52462e-09 1.26219e-07 -1.39109e-07)
(-1.74896e-08 1.26633e-07 -1.38167e-07)
(-6.53649e-09 1.4807e-07 -1.5784e-07)
(-1.32409e-08 1.55777e-07 -1.61999e-07)
(-8.06462e-09 1.58795e-07 -1.63858e-07)
(-1.57629e-08 1.5718e-07 -1.63431e-07)
(-2.61653e-08 1.77597e-07 -1.82414e-07)
(-2.31216e-08 1.83092e-07 -1.86412e-07)
(-4.7188e-09 1.86535e-07 -1.88312e-07)
(-2.69075e-09 1.87995e-07 -1.88126e-07)
(-5.82534e-08 1.97482e-07 -1.97508e-07)
(-3.39162e-08 1.85853e-07 -2.01574e-07)
(-1.14651e-09 1.89693e-07 -2.03493e-07)
(2.20965e-08 2.09309e-07 -2.03264e-07)
(1.38645e-08 2.0459e-08 -1.45803e-08)
(2.44499e-09 1.49722e-08 -1.75138e-08)
(-2.58279e-09 1.53351e-08 -1.78022e-08)
(-1.47275e-08 2.18447e-08 -1.54346e-08)
(2.24836e-08 4.80234e-08 -4.27183e-08)
(4.89775e-09 4.52934e-08 -4.8499e-08)
(-6.63432e-09 4.63268e-08 -4.92302e-08)
(-2.52034e-08 5.12409e-08 -4.48473e-08)
(2.39058e-08 7.43323e-08 -6.87728e-08)
(4.75551e-09 7.44e-08 -7.56341e-08)
(-9.18569e-09 7.59863e-08 -7.66761e-08)
(-2.93015e-08 7.91151e-08 -7.1815e-08)
(2.35066e-08 1.00734e-07 -9.26991e-08)
(3.44233e-09 1.03044e-07 -9.9803e-08)
(-1.15477e-08 1.05118e-07 -1.01055e-07)
(-3.25555e-08 1.06963e-07 -9.63824e-08)
(2.11918e-08 1.26845e-07 -1.15083e-07)
(9.24388e-10 1.31977e-07 -1.22069e-07)
(-1.36442e-08 1.34515e-07 -1.23461e-07)
(-3.48476e-08 1.34468e-07 -1.19206e-07)
(1.29157e-08 1.51436e-07 -1.35875e-07)
(-4.53135e-09 1.59535e-07 -1.4258e-07)
(-1.3709e-08 1.62526e-07 -1.4406e-07)
(-3.20932e-08 1.6043e-07 -1.40281e-07)
(-8.07206e-09 1.73385e-07 -1.52615e-07)
(-1.48651e-08 1.79061e-07 -1.58965e-07)
(-9.7534e-09 1.82498e-07 -1.60495e-07)
(-1.75179e-08 1.83752e-07 -1.5718e-07)
(-4.1713e-08 1.86504e-07 -1.5955e-07)
(-2.61808e-08 1.74605e-07 -1.65602e-07)
(-5.59929e-09 1.7846e-07 -1.67156e-07)
(8.87422e-09 1.9839e-07 -1.64187e-07)
(1.70009e-08 2.15892e-08 -1.15845e-08)
(3.91281e-09 1.50043e-08 -1.32077e-08)
(-3.82969e-09 1.53284e-08 -1.34191e-08)
(-1.75708e-08 2.27608e-08 -1.21916e-08)
(2.92518e-08 5.13157e-08 -3.45749e-08)
(8.15776e-09 4.74098e-08 -3.79058e-08)
(-9.15108e-09 4.83527e-08 -3.84375e-08)
(-3.11446e-08 5.41644e-08 -3.609e-08)
(3.18541e-08 7.9013e-08 -5.65431e-08)
(8.70638e-09 7.85323e-08 -6.05735e-08)
(-1.18716e-08 8.00173e-08 -6.13366e-08)
(-3.5921e-08 8.34149e-08 -5.87364e-08)
(3.14151e-08 1.05299e-07 -7.7004e-08)
(7.52738e-09 1.07563e-07 -8.12141e-08)
(-1.39126e-08 1.09545e-07 -8.21453e-08)
(-3.8698e-08 1.11193e-07 -7.97113e-08)
(2.86925e-08 1.29559e-07 -9.56453e-08)
(4.96827e-09 1.34891e-07 -9.97887e-08)
(-1.56069e-08 1.37355e-07 -1.00841e-07)
(-4.02346e-08 1.36918e-07 -9.87355e-08)
(1.98384e-08 1.50779e-07 -1.11611e-07)
(-6.11391e-10 1.59172e-07 -1.15558e-07)
(-1.52852e-08 1.62112e-07 -1.16695e-07)
(-3.665e-08 1.59592e-07 -1.14972e-07)
(-1.84753e-09 1.69137e-07 -1.22945e-07)
(-1.11422e-08 1.75152e-07 -1.2663e-07)
(-1.09624e-08 1.78562e-07 -1.27819e-07)
(-2.12137e-08 1.79407e-07 -1.26476e-07)
(-3.60555e-08 1.81046e-07 -1.27181e-07)
(-2.26714e-08 1.69703e-07 -1.30724e-07)
(-6.50749e-09 1.7355e-07 -1.31933e-07)
(5.83329e-09 1.92907e-07 -1.30783e-07)
(1.73137e-08 2.19763e-08 -9.06286e-09)
(4.09606e-09 1.50739e-08 -9.63496e-09)
(-3.88929e-09 1.53666e-08 -9.78302e-09)
(-1.77055e-08 2.2999e-08 -9.47937e-09)
(3.02664e-08 5.25001e-08 -2.70006e-08)
(8.77061e-09 4.81585e-08 -2.82414e-08)
(-9.30856e-09 4.90185e-08 -2.8614e-08)
(-3.16403e-08 5.50492e-08 -2.80456e-08)
(3.33208e-08 8.06974e-08 -4.42539e-08)
(9.63167e-09 7.99582e-08 -4.582e-08)
(-1.19734e-08 8.13431e-08 -4.6358e-08)
(-3.65166e-08 8.4759e-08 -4.5781e-08)
(3.29548e-08 1.06696e-07 -6.03188e-08)
(8.59775e-09 1.08911e-07 -6.19953e-08)
(-1.38085e-08 1.10798e-07 -6.26594e-08)
(-3.90297e-08 1.12272e-07 -6.22308e-08)
(3.00591e-08 1.29769e-07 -7.46111e-08)
(6.07385e-09 1.35189e-07 -7.62688e-08)
(-1.52383e-08 1.37574e-07 -7.703e-08)
(-4.01036e-08 1.36866e-07 -7.68291e-08)
(2.0938e-08 1.49356e-07 -8.62472e-08)
(4.79531e-10 1.57909e-07 -8.78107e-08)
(-1.46694e-08 1.6079e-07 -8.86441e-08)
(-3.6027e-08 1.57972e-07 -8.86963e-08)
(-9.76493e-10 1.66607e-07 -9.40692e-08)
(-1.00722e-08 1.72876e-07 -9.55106e-08)
(-1.01632e-08 1.76246e-07 -9.63902e-08)
(-2.02041e-08 1.76744e-07 -9.66717e-08)
(-3.53257e-08 1.78622e-07 -9.716e-08)
(-2.16438e-08 1.67787e-07 -9.85691e-08)
(-5.56675e-09 1.71611e-07 -9.94633e-08)
(7.086e-09 1.90407e-07 -9.98206e-08)
(1.70507e-08 2.20369e-08 -6.52515e-09)
(3.99042e-09 1.5109e-08 -6.65229e-09)
(-3.71622e-09 1.53799e-08 -6.74888e-09)
(-1.73361e-08 2.2962e-08 -6.79309e-09)
(2.97989e-08 5.27418e-08 -1.93545e-08)
(8.63323e-09 4.831e-08 -1.96498e-08)
(-8.90105e-09 4.91094e-08 -1.98939e-08)
(-3.08548e-08 5.50811e-08 -2.00313e-08)
(3.28693e-08 8.09769e-08 -3.16726e-08)
(9.5761e-09 8.01575e-08 -3.20715e-08)
(-1.14046e-08 8.14653e-08 -3.24261e-08)
(-3.55139e-08 8.47847e-08 -3.26697e-08)
(3.25313e-08 1.06687e-07 -4.30759e-08)
(8.6356e-09 1.08873e-07 -4.35256e-08)
(-1.3085e-08 1.10684e-07 -4.39673e-08)
(-3.78166e-08 1.12014e-07 -4.43379e-08)
(2.95951e-08 1.29176e-07 -5.30501e-08)
(6.17475e-09 1.34616e-07 -5.35053e-08)
(-1.43529e-08 1.36934e-07 -5.40171e-08)
(-3.86325e-08 1.36055e-07 -5.45323e-08)
(2.04067e-08 1.48197e-07 -6.09658e-08)
(6.23769e-10 1.56806e-07 -6.1396e-08)
(-1.36435e-08 1.59633e-07 -6.19621e-08)
(-3.431e-08 1.56639e-07 -6.26218e-08)
(-1.53132e-09 1.65296e-07 -6.62107e-08)
(-9.8833e-09 1.71678e-07 -6.66067e-08)
(-9.04544e-09 1.75008e-07 -6.72083e-08)
(-1.833e-08 1.75302e-07 -6.79855e-08)
(-3.58768e-08 1.77568e-07 -6.8438e-08)
(-2.1435e-08 1.66984e-07 -6.88389e-08)
(-4.37657e-09 1.7078e-07 -6.94498e-08)
(9.05133e-09 1.89262e-07 -7.02542e-08)
(1.68327e-08 2.19911e-08 -3.93474e-09)
(3.90126e-09 1.51012e-08 -3.93907e-09)
(-3.59248e-09 1.53585e-08 -3.99328e-09)
(-1.70585e-08 2.2857e-08 -4.08384e-09)
(2.93231e-08 5.26514e-08 -1.16281e-08)
(8.45991e-09 4.8236e-08 -1.16456e-08)
(-8.57835e-09 4.89971e-08 -1.17832e-08)
(-3.01976e-08 5.48602e-08 -1.20068e-08)
(3.23003e-08 8.07847e-08 -1.89893e-08)
(9.4069e-09 7.99579e-08 -1.90246e-08)
(-1.09402e-08 8.12153e-08 -1.92256e-08)
(-3.46232e-08 8.44291e-08 -1.95506e-08)
(3.19489e-08 1.06299e-07 -2.57659e-08)
(8.51247e-09 1.08473e-07 -2.58184e-08)
(-1.25109e-08 1.10232e-07 -2.60703e-08)
(-3.67625e-08 1.11459e-07 -2.64817e-08)
(2.90127e-08 1.28557e-07 -3.16347e-08)
(6.10354e-09 1.33993e-07 -3.16967e-08)
(-1.36835e-08 1.36263e-07 -3.19908e-08)
(-3.74358e-08 1.35284e-07 -3.24824e-08)
(1.98308e-08 1.47457e-07 -3.62426e-08)
(6.01537e-10 1.56072e-07 -3.63065e-08)
(-1.28977e-08 1.5886e-07 -3.66341e-08)
(-3.29979e-08 1.55772e-07 -3.71973e-08)
(-2.07707e-09 1.64644e-07 -3.92954e-08)
(-9.85765e-09 1.71054e-07 -3.9359e-08)
(-8.25043e-09 1.74352e-07 -3.97086e-08)
(-1.69527e-08 1.74551e-07 -4.03243e-08)
(-3.63864e-08 1.77116e-07 -4.0654e-08)
(-2.13785e-08 1.66609e-07 -4.07266e-08)
(-3.54278e-09 1.70381e-07 -4.10812e-08)
(1.04636e-08 1.88736e-07 -4.17074e-08)
(1.67359e-08 2.19472e-08 -1.31459e-09)
(3.86365e-09 1.50841e-08 -1.3083e-09)
(-3.54046e-09 1.53348e-08 -1.32574e-09)
(-1.69352e-08 2.27853e-08 -1.36237e-09)
(2.91e-08 5.25416e-08 -3.87703e-09)
(8.38003e-09 4.81488e-08 -3.86496e-09)
(-8.4326e-09 4.88915e-08 -3.90935e-09)
(-2.98928e-08 5.46882e-08 -3.99874e-09)
(3.20159e-08 8.05943e-08 -6.3231e-09)
(9.32116e-09 7.97743e-08 -6.31105e-09)
(-1.0721e-08 8.1007e-08 -6.37606e-09)
(-3.41917e-08 8.41594e-08 -6.50408e-09)
(3.16478e-08 1.06016e-07 -8.56798e-09)
(8.44452e-09 1.08186e-07 -8.5594e-09)
(-1.2235e-08 1.09919e-07 -8.64119e-09)
(-3.62428e-08 1.11093e-07 -8.79968e-09)
(2.87152e-08 1.28203e-07 -1.05037e-08)
(6.06229e-09 1.33632e-07 -1.04991e-08)
(-1.33624e-08 1.35879e-07 -1.05949e-08)
(-3.68498e-08 1.34853e-07 -1.07792e-08)
(1.9547e-08 1.47103e-07 -1.20181e-08)
(5.88494e-10 1.55712e-07 -1.20167e-08)
(-1.25421e-08 1.58479e-07 -1.21238e-08)
(-3.23644e-08 1.55352e-07 -1.23296e-08)
(-2.33724e-09 1.6437e-07 -1.30233e-08)
(-9.84368e-09 1.70777e-07 -1.30249e-08)
(-7.872e-09 1.74059e-07 -1.31394e-08)
(-1.6294e-08 1.74223e-07 -1.336e-08)
(-3.6621e-08 1.76947e-07 -1.34803e-08)
(-2.13451e-08 1.6645e-07 -1.34854e-08)
(-3.14715e-09 1.70209e-07 -1.36016e-08)
(1.11341e-08 1.88528e-07 -1.38251e-08)
)
;

boundaryField
{
    interface
    {
        type            solidTraction;
        traction        nonuniform List<vector> 
192
(
(108.009 0.0635397 -7.2977)
(109.612 0.281498 -8.0612)
(109.591 0.616307 -7.96003)
(109.697 0.938013 -7.74571)
(109.45 1.35387 -7.41986)
(108.953 1.96079 -6.93725)
(103.906 2.59465 -6.18407)
(112.814 5.25784 -5.25659)
(93.1875 0.140847 -4.03653)
(93.9643 0.386015 -4.48182)
(93.8349 0.767345 -4.39012)
(94.1556 1.15741 -4.2228)
(94.3525 1.66881 -3.97855)
(94.6581 2.4102 -3.634)
(90.0609 3.14948 -3.15082)
(103.904 6.18581 -2.59571)
(98.4766 0.165878 -3.13834)
(99.4798 0.450888 -3.47985)
(99.3349 0.893734 -3.40435)
(99.6749 1.3462 -3.26576)
(99.8434 1.9374 -3.06521)
(100.002 2.78306 -2.78824)
(94.6882 3.63303 -2.41512)
(108.976 6.94032 -1.96482)
(98.5141 0.19148 -2.23877)
(99.453 0.507091 -2.48209)
(99.2374 0.99663 -2.42056)
(99.6016 1.49634 -2.31149)
(99.7845 2.14558 -2.1565)
(99.9222 3.0604 -1.9481)
(94.4536 3.97857 -1.67864)
(109.535 7.42543 -1.36234)
(98.4805 0.21001 -1.58593)
(99.4286 0.549844 -1.7586)
(99.172 1.07579 -1.71197)
(99.5616 1.6106 -1.6304)
(99.7638 2.30091 -1.51601)
(99.9086 3.26192 -1.3652)
(94.3915 4.22433 -1.17493)
(109.911 7.75564 -0.954662)
(98.5226 0.223091 -1.06221)
(99.4878 0.580714 -1.17774)
(99.2042 1.13317 -1.14522)
(99.6126 1.69275 -1.08879)
(99.8275 2.41112 -1.01041)
(99.9745 3.40252 -0.908349)
(94.4238 4.39355 -0.781728)
(110.172 7.9783 -0.636078)
(98.5494 0.231514 -0.611174)
(99.5285 0.600748 -0.677562)
(99.228 1.17042 -0.658467)
(99.649 1.74578 -0.625343)
(99.8731 2.48167 -0.579691)
(100.018 3.49142 -0.520498)
(94.4489 4.49974 -0.448685)
(110.328 8.11659 -0.363964)
(98.5502 0.235803 -0.200075)
(99.5367 0.610623 -0.22182)
(99.2289 1.18869 -0.21552)
(99.6568 1.77177 -0.204526)
(99.8893 2.51619 -0.189462)
(100.024 3.53401 -0.169902)
(94.4713 4.55197 -0.146816)
(110.392 8.18307 -0.118096)
(12.5329 0.149149 32.1326)
(13.9152 0.173454 29.8801)
(13.844 0.205527 30.1263)
(13.6539 0.265058 31.5761)
(13.3761 0.342546 33.9373)
(12.9962 0.425919 37.3969)
(12.483 0.47946 41.898)
(11.9559 0.540059 48.5924)
(10.7444 0.039364 55.2828)
(12.0084 0.0509133 55.0687)
(11.9513 0.0614316 55.2297)
(11.809 0.0747891 55.7015)
(11.6149 0.0930776 56.4295)
(11.3673 0.112895 57.3942)
(11.0683 0.131153 58.5015)
(10.792 0.137301 59.6971)
(10.7842 -0.00591958 50.9983)
(12.0508 -0.0278905 50.8078)
(11.9975 -0.0647188 50.979)
(11.8548 -0.0993942 51.3455)
(11.6585 -0.137414 51.9584)
(11.4063 -0.17642 52.8534)
(11.1015 -0.216525 53.9918)
(10.8012 -0.227493 55.4586)
(12.4965 -0.0638046 59.4823)
(13.9098 -0.113458 59.6325)
(13.8379 -0.190202 59.7052)
(13.6453 -0.270871 59.6485)
(13.3655 -0.362773 59.5865)
(12.9817 -0.455993 59.4801)
(12.4674 -0.536656 59.2933)
(11.9181 -0.593808 58.4228)
(2.25578 -0.00240208 8.0279)
(5.59398 -0.266673 8.89042)
(5.2981 -0.672167 8.77439)
(4.37743 -1.03822 8.54225)
(2.63695 -1.50252 8.19357)
(0.0367585 -2.14606 7.67603)
(-6.21407 -2.82396 6.89291)
(6.81156 -5.93956 5.94583)
(-31.8848 -0.142804 4.14563)
(-31.0197 -0.41476 4.63956)
(-31.2625 -0.83766 4.53502)
(-31.1172 -1.26284 4.36142)
(-30.9029 -1.81875 4.11502)
(-30.4168 -2.5803 3.76974)
(-32.7046 -3.30097 3.30994)
(-6.14569 -6.88706 2.83268)
(-32.217 -0.184116 3.28538)
(-31.2999 -0.493466 3.66507)
(-31.4026 -0.970662 3.58354)
(-30.8766 -1.45401 3.44026)
(-30.0535 -2.08762 3.23631)
(-28.8168 -2.94235 2.95508)
(-30.314 -3.76092 2.59295)
(0.210536 -7.67127 2.15818)
(-34.3361 -0.210156 2.39213)
(-33.4373 -0.553605 2.66629)
(-33.5019 -1.08023 2.6001)
(-32.753 -1.61187 2.48519)
(-31.5805 -2.30545 2.32315)
(-29.913 -3.22353 2.10526)
(-30.6549 -4.10641 1.83651)
(2.9704 -8.19079 1.52019)
(-35.866 -0.228635 1.69933)
(-34.9364 -0.598744 1.89269)
(-34.9495 -1.16377 1.84283)
(-34.0121 -1.73143 1.75705)
(-32.5576 -2.46743 1.63734)
(-30.5378 -3.42721 1.47947)
(-30.6568 -4.35227 1.28929)
(4.97995 -8.54269 1.06733)
(-36.5802 -0.241172 1.14343)
(-35.6038 -0.630911 1.27256)
(-35.5751 -1.22414 1.23788)
(-34.5095 -1.81751 1.17849)
(-32.8735 -2.58272 1.09621)
(-30.6362 -3.57005 0.988948)
(-30.361 -4.52295 0.861681)
(6.51344 -8.78102 0.713498)
(-36.9454 -0.249191 0.659696)
(-35.9357 -0.65173 0.733783)
(-35.88 -1.26331 0.713422)
(-34.734 -1.87316 0.678538)
(-32.987 -2.65669 0.630487)
(-30.6237 -3.66061 0.568156)
(-30.1055 -4.63052 0.495905)
(7.5151 -8.92941 0.408857)
(-37.1129 -0.253288 0.216202)
(-36.0858 -0.661992 0.240449)
(-36.0161 -1.28253 0.233731)
(-34.8301 -1.90048 0.222148)
(-33.027 -2.69294 0.206264)
(-30.6149 -3.7039 0.18566)
(-29.9469 -4.68381 0.16248)
(7.99468 -9.00106 0.13264)
(11.9575 -48.5392 -0.536171)
(12.4859 -41.8053 -0.476624)
(13.0012 -37.2584 -0.423218)
(13.3841 -33.7321 -0.338799)
(13.6666 -31.2387 -0.257582)
(13.8658 -29.5354 -0.180015)
(13.993 -28.4635 -0.107472)
(14.0554 -27.9572 -0.0363453)
(10.793 -59.6342 -0.132263)
(11.0702 -58.392 -0.126985)
(11.3705 -57.2308 -0.10847)
(11.6196 -56.199 -0.0875957)
(11.8148 -55.3721 -0.0669997)
(11.9577 -54.7638 -0.0469784)
(12.0509 -54.3637 -0.0274021)
(12.0974 -54.1435 -0.00885034)
(10.8018 -55.3896 0.233341)
(11.1028 -53.8701 0.221674)
(11.4087 -52.6707 0.181999)
(11.6621 -51.7038 0.143863)
(11.8594 -50.9968 0.107302)
(12.0035 -50.4937 0.0739966)
(12.0973 -50.1703 0.0429602)
(12.1437 -50.0238 0.0139204)
(11.9176 -58.352 0.600178)
(12.4674 -59.1641 0.542699)
(12.9831 -59.2823 0.462764)
(13.3689 -59.3097 0.370457)
(13.6518 -59.2785 0.279483)
(13.8514 -59.2011 0.19451)
(13.9789 -59.1324 0.115361)
(14.0411 -59.0906 0.0386593)
)
;
        pressure        uniform 0;
        secondOrder     false;
        setEffectiveTraction false;
        relaxationFactor 1;
        value           nonuniform List<vector> 
192
(
(8.94894e-08 -6.29177e-09 -2.4031e-08)
(7.99958e-08 2.02999e-08 -5.79697e-08)
(8.02169e-08 4.65607e-08 -8.59984e-08)
(8.15326e-08 7.32075e-08 -1.11406e-07)
(8.10128e-08 1.00512e-07 -1.36085e-07)
(7.58037e-08 1.28316e-07 -1.62685e-07)
(6.13235e-08 1.60533e-07 -1.945e-07)
(1.96027e-08 2.03176e-07 -2.29235e-07)
(1.28513e-07 1.87197e-08 -1.21283e-08)
(1.2832e-07 4.01952e-08 -4.09653e-08)
(1.2897e-07 6.43532e-08 -6.90889e-08)
(1.29715e-07 9.02812e-08 -9.49302e-08)
(1.28865e-07 1.16513e-07 -1.19646e-07)
(1.2313e-07 1.41288e-07 -1.44982e-07)
(1.07198e-07 1.64668e-07 -1.70276e-07)
(5.97049e-08 1.88726e-07 -1.86502e-07)
(1.36873e-07 2.95459e-08 -1.10249e-08)
(1.45117e-07 5.05336e-08 -3.60828e-08)
(1.47186e-07 7.4588e-08 -6.1477e-08)
(1.47451e-07 1.00056e-07 -8.55226e-08)
(1.45934e-07 1.24198e-07 -1.08152e-07)
(1.39231e-07 1.4412e-07 -1.29282e-07)
(1.21653e-07 1.59728e-07 -1.46536e-07)
(7.26425e-08 1.77276e-07 -1.54001e-07)
(1.39043e-07 3.31523e-08 -1.07225e-08)
(1.50772e-07 5.50289e-08 -3.26297e-08)
(1.54005e-07 7.95538e-08 -5.41897e-08)
(1.5418e-07 1.04509e-07 -7.46423e-08)
(1.52157e-07 1.26665e-07 -9.34289e-08)
(1.4472e-07 1.43144e-07 -1.09606e-07)
(1.26242e-07 1.55164e-07 -1.21171e-07)
(7.66687e-08 1.71537e-07 -1.25585e-07)
(1.39091e-07 3.38712e-08 -9.05069e-09)
(1.51489e-07 5.65018e-08 -2.68641e-08)
(1.5515e-07 8.13695e-08 -4.40004e-08)
(1.55348e-07 1.0588e-07 -6.004e-08)
(1.53074e-07 1.26765e-07 -7.43857e-08)
(1.45268e-07 1.41598e-07 -8.61054e-08)
(1.26453e-07 1.52542e-07 -9.39904e-08)
(7.67687e-08 1.68981e-07 -9.71155e-08)
(1.38724e-07 3.37493e-08 -6.64558e-09)
(1.50917e-07 5.66964e-08 -1.95905e-08)
(1.5457e-07 8.16599e-08 -3.19279e-08)
(1.54756e-07 1.05869e-07 -4.33276e-08)
(1.52388e-07 1.26145e-07 -5.33119e-08)
(1.44454e-07 1.40416e-07 -6.12428e-08)
(1.25565e-07 1.51225e-07 -6.6486e-08)
(7.59081e-08 1.67886e-07 -6.87034e-08)
(1.38443e-07 3.35299e-08 -4.01355e-09)
(1.5038e-07 5.65183e-08 -1.1803e-08)
(1.53922e-07 8.14412e-08 -1.92027e-08)
(1.54067e-07 1.05478e-07 -2.59869e-08)
(1.51667e-07 1.25528e-07 -3.18548e-08)
(1.43709e-07 1.39685e-07 -3.64576e-08)
(1.24828e-07 1.50591e-07 -3.9497e-08)
(7.52212e-08 1.67434e-07 -4.08401e-08)
(1.38314e-07 3.3406e-08 -1.33884e-09)
(1.50124e-07 5.63616e-08 -3.93285e-09)
(1.53595e-07 8.12312e-08 -6.39425e-09)
(1.53711e-07 1.05191e-07 -8.64328e-09)
(1.513e-07 1.25178e-07 -1.05781e-08)
(1.43342e-07 1.3934e-07 -1.2089e-08)
(1.24477e-07 1.50328e-07 -1.30884e-08)
(7.49015e-08 1.67272e-07 -1.3539e-08)
(-1.9067e-08 -1.78436e-08 8.77665e-08)
(-3.08796e-08 6.7646e-09 5.21968e-08)
(-3.2195e-08 3.31249e-08 2.44685e-08)
(-3.15827e-08 6.09321e-08 -4.17865e-10)
(-3.27028e-08 8.98726e-08 -2.42927e-08)
(-3.93425e-08 1.20154e-07 -4.89394e-08)
(-5.73019e-08 1.55969e-07 -7.65575e-08)
(-8.66704e-08 2.02241e-07 -1.23121e-07)
(-3.98291e-09 -7.86037e-09 1.14423e-07)
(-9.03166e-09 9.48524e-09 8.13555e-08)
(-1.13835e-08 3.40697e-08 5.24156e-08)
(-1.28726e-08 6.30972e-08 2.73157e-08)
(-1.51398e-08 9.46759e-08 4.10318e-09)
(-2.00788e-08 1.27573e-07 -1.96807e-08)
(-2.95475e-08 1.60866e-07 -4.73371e-08)
(-4.02814e-08 1.92447e-07 -9.93329e-08)
(2.13596e-09 -8.15316e-09 1.13734e-07)
(2.90967e-09 1.00374e-08 7.99049e-08)
(6.18136e-10 3.53886e-08 5.05041e-08)
(-2.93575e-09 6.50456e-08 2.51335e-08)
(-6.20756e-09 9.71651e-08 1.76242e-09)
(-7.36727e-09 1.30549e-07 -2.21048e-08)
(-4.578e-09 1.64286e-07 -4.97931e-08)
(-1.09259e-09 1.96252e-07 -1.01795e-07)
(1.63358e-08 -1.81315e-08 8.44965e-08)
(2.35657e-08 9.03067e-09 4.64906e-08)
(2.02972e-08 3.74772e-08 1.74109e-08)
(1.47036e-08 6.70219e-08 -8.27004e-09)
(1.03143e-08 9.74944e-08 -3.26129e-08)
(1.08681e-08 1.29186e-07 -5.74898e-08)
(2.21369e-08 1.66325e-07 -8.5135e-08)
(4.42135e-08 2.13938e-07 -1.31534e-07)
(-9.79419e-08 -3.00647e-09 -2.64363e-08)
(-9.23145e-08 2.54766e-08 -6.33253e-08)
(-9.6659e-08 5.36562e-08 -9.3085e-08)
(-1.02635e-07 8.2124e-08 -1.1954e-07)
(-1.07385e-07 1.11146e-07 -1.44857e-07)
(-1.0806e-07 1.4059e-07 -1.718e-07)
(-1.00127e-07 1.74389e-07 -2.03724e-07)
(-6.59845e-08 2.18629e-07 -2.38425e-07)
(-1.35978e-07 2.1668e-08 -1.36503e-08)
(-1.38385e-07 4.5198e-08 -4.47531e-08)
(-1.42357e-07 7.12835e-08 -7.44058e-08)
(-1.47233e-07 9.90355e-08 -1.01251e-07)
(-1.51298e-07 1.27011e-07 -1.26614e-07)
(-1.51222e-07 1.5348e-07 -1.52337e-07)
(-1.41708e-07 1.7853e-07 -1.77813e-07)
(-1.0176e-07 2.04314e-07 -1.94097e-07)
(-1.43909e-07 3.18275e-08 -1.20726e-08)
(-1.53961e-07 5.48845e-08 -3.87439e-08)
(-1.58698e-07 8.09531e-08 -6.53446e-08)
(-1.62591e-07 1.0835e-07 -9.02699e-08)
(-1.65623e-07 1.34352e-07 -1.13519e-07)
(-1.64332e-07 1.56097e-07 -1.35058e-07)
(-1.53023e-07 1.7351e-07 -1.52549e-07)
(-1.11477e-07 1.92912e-07 -1.60121e-07)
(-1.45818e-07 3.49398e-08 -1.14467e-08)
(-1.58844e-07 5.87519e-08 -3.44803e-08)
(-1.64259e-07 8.53032e-08 -5.69322e-08)
(-1.67637e-07 1.12272e-07 -7.80922e-08)
(-1.69824e-07 1.36406e-07 -9.7421e-08)
(-1.67551e-07 1.54836e-07 -1.13988e-07)
(-1.5518e-07 1.68786e-07 -1.25804e-07)
(-1.12973e-07 1.87115e-07 -1.30336e-07)
(-1.45692e-07 3.53356e-08 -9.53776e-09)
(-1.59057e-07 5.9752e-08 -2.81177e-08)
(-1.64558e-07 8.66064e-08 -4.58824e-08)
(-1.67631e-07 1.13169e-07 -6.24508e-08)
(-1.69283e-07 1.36115e-07 -7.72293e-08)
(-1.66421e-07 1.52997e-07 -8.9281e-08)
(-1.53558e-07 1.65965e-07 -9.73924e-08)
(-1.11135e-07 1.84439e-07 -1.00625e-07)
(-1.4521e-07 3.50098e-08 -6.95464e-09)
(-1.58164e-07 5.96256e-08 -2.03918e-08)
(-1.63431e-07 8.65252e-08 -3.31428e-08)
(-1.66258e-07 1.12794e-07 -4.49045e-08)
(-1.67603e-07 1.35178e-07 -5.5199e-08)
(-1.64439e-07 1.51563e-07 -6.33789e-08)
(-1.51371e-07 1.64462e-07 -6.87982e-08)
(-1.08881e-07 1.83212e-07 -7.10985e-08)
(-1.44862e-07 3.46711e-08 -4.18395e-09)
(-1.5744e-07 5.92514e-08 -1.22472e-08)
(-1.62458e-07 8.60703e-08 -1.9881e-08)
(-1.65097e-07 1.12162e-07 -2.6875e-08)
(-1.66271e-07 1.34343e-07 -3.2928e-08)
(-1.62962e-07 1.50651e-07 -3.76836e-08)
(-1.4981e-07 1.63685e-07 -4.08332e-08)
(-1.073e-07 1.82654e-07 -4.22279e-08)
(-1.44701e-07 3.44924e-08 -1.39317e-09)
(-1.57098e-07 5.90024e-08 -4.0749e-09)
(-1.61981e-07 8.57469e-08 -6.61191e-09)
(-1.6452e-07 1.11758e-07 -8.92957e-09)
(-1.65614e-07 1.33884e-07 -1.09257e-08)
(-1.62246e-07 1.50212e-07 -1.24879e-08)
(-1.49061e-07 1.63348e-07 -1.35246e-08)
(-1.06547e-07 1.82435e-07 -1.39926e-08)
(-8.74518e-08 9.78469e-08 -2.37648e-07)
(-5.9722e-08 7.15593e-08 -1.91307e-07)
(-4.33503e-08 6.43092e-08 -1.55441e-07)
(-3.79724e-08 6.04988e-08 -1.25211e-07)
(-3.74353e-08 5.86201e-08 -9.62905e-08)
(-3.80698e-08 5.77761e-08 -6.80614e-08)
(-3.85987e-08 5.74358e-08 -4.04988e-08)
(-3.88323e-08 5.73233e-08 -1.34381e-08)
(-4.10478e-08 7.5596e-08 -2.26343e-07)
(-3.19674e-08 4.39259e-08 -1.94752e-07)
(-2.41682e-08 3.66947e-08 -1.61565e-07)
(-2.07957e-08 3.37978e-08 -1.29019e-07)
(-1.98892e-08 3.27071e-08 -9.78896e-08)
(-1.97363e-08 3.22557e-08 -6.85443e-08)
(-1.9693e-08 3.2041e-08 -4.05929e-08)
(-1.96589e-08 3.19493e-08 -1.34456e-08)
(-1.87432e-09 7.95972e-08 -2.28631e-07)
(-7.00908e-09 4.79619e-08 -1.9668e-07)
(-1.15438e-08 4.075e-08 -1.6312e-07)
(-1.23068e-08 3.78518e-08 -1.30221e-07)
(-1.12199e-08 3.67433e-08 -9.87708e-08)
(-9.94421e-09 3.62685e-08 -6.91423e-08)
(-9.07288e-09 3.60341e-08 -4.09385e-08)
(-8.66483e-09 3.59316e-08 -1.35586e-08)
(4.34103e-08 1.10921e-07 -2.44736e-07)
(1.9692e-08 8.48995e-08 -1.97107e-07)
(6.63291e-09 7.77659e-08 -1.60087e-07)
(3.8923e-09 7.39678e-08 -1.28787e-07)
(5.37266e-09 7.20403e-08 -9.89093e-08)
(7.45778e-09 7.11279e-08 -6.98366e-08)
(8.91816e-09 7.0729e-08 -4.15237e-08)
(9.60293e-09 7.05845e-08 -1.37729e-08)
)
;
        gradient        nonuniform List<vector> 
192
(
(8.71595e-06 -9.94168e-07 4.28927e-07)
(8.81952e-06 -2.29805e-07 6.84262e-07)
(8.89335e-06 -7.06772e-10 7.22061e-07)
(8.94528e-06 -1.30067e-08 7.11666e-07)
(9.00904e-06 -1.64637e-07 6.95279e-07)
(9.14552e-06 -5.00521e-07 6.72569e-07)
(9.43601e-06 -9.44479e-07 6.36149e-07)
(8.42742e-06 -6.50688e-07 5.86875e-07)
(1.00589e-05 1.09695e-07 6.66432e-07)
(1.0049e-05 -2.18188e-09 1.05457e-06)
(1.01042e-05 -2.49341e-11 1.09705e-06)
(1.01607e-05 -3.40989e-08 1.07574e-06)
(1.02321e-05 -1.84855e-07 1.05578e-06)
(1.03733e-05 -5.42565e-07 1.02856e-06)
(1.0669e-05 -1.03431e-06 9.71044e-07)
(9.43666e-06 -7.00444e-07 8.80501e-07)
(9.84065e-06 7.26956e-07 2.84428e-07)
(9.8107e-06 2.00821e-07 5.30835e-07)
(9.86243e-06 2.04574e-08 5.83665e-07)
(9.91554e-06 -5.42778e-08 5.74126e-07)
(9.97935e-06 -2.1181e-07 5.54534e-07)
(1.01052e-05 -5.85259e-07 5.27458e-07)
(1.0378e-05 -1.09254e-06 4.8632e-07)
(9.14844e-06 -7.3824e-07 4.43927e-07)
(9.76333e-06 9.25046e-07 6.89536e-08)
(9.72162e-06 2.97059e-07 1.55621e-07)
(9.77205e-06 4.32657e-08 1.88266e-07)
(9.82121e-06 -6.32298e-08 1.88932e-07)
(9.87717e-06 -2.31523e-07 1.77315e-07)
(9.99055e-06 -6.10779e-07 1.60417e-07)
(1.02472e-05 -1.11784e-06 1.41885e-07)
(9.01793e-06 -7.60757e-07 1.27723e-07)
(9.74222e-06 9.51595e-07 9.73981e-10)
(9.69782e-06 3.20136e-07 1.0919e-08)
(9.74631e-06 5.37683e-08 2.02802e-08)
(9.79146e-06 -6.52289e-08 2.23003e-08)
(9.84119e-06 -2.40325e-07 1.80298e-08)
(9.94639e-06 -6.20689e-07 1.13443e-08)
(1.01944e-05 -1.12524e-06 6.30452e-09)
(8.96755e-06 -7.71286e-07 3.55684e-09)
(9.73383e-06 9.36985e-07 -9.63445e-09)
(9.68944e-06 3.16367e-07 -1.88824e-08)
(9.73604e-06 5.46471e-08 -2.04255e-08)
(9.77795e-06 -6.54802e-08 -2.01359e-08)
(9.8234e-06 -2.42479e-07 -2.09443e-08)
(9.92382e-06 -6.22504e-07 -2.21598e-08)
(1.01677e-05 -1.12563e-06 -2.20255e-08)
(8.9428e-06 -7.74542e-07 -2.1226e-08)
(9.72884e-06 9.23109e-07 -6.30507e-09)
(9.68456e-06 3.09346e-07 -1.39887e-08)
(9.72972e-06 5.25149e-08 -1.70785e-08)
(9.76947e-06 -6.57477e-08 -1.76793e-08)
(9.81236e-06 -2.42349e-07 -1.76068e-08)
(9.91027e-06 -6.2177e-07 -1.72046e-08)
(1.01524e-05 -1.1243e-06 -1.61271e-08)
(8.92861e-06 -7.74593e-07 -1.48917e-08)
(9.72626e-06 9.16709e-07 -1.94008e-09)
(9.68194e-06 3.05595e-07 -4.46559e-09)
(9.72633e-06 5.09566e-08 -5.69188e-09)
(9.76503e-06 -6.60085e-08 -6.02392e-09)
(9.80674e-06 -2.42004e-07 -5.95265e-09)
(9.90359e-06 -6.21024e-07 -5.67934e-09)
(1.01451e-05 -1.12332e-06 -5.20643e-09)
(8.9218e-06 -7.74041e-07 -4.69596e-09)
(3.1437e-08 -1.91831e-06 9.37273e-06)
(-5.05107e-08 -1.31263e-06 9.49758e-06)
(-9.96012e-08 -1.07557e-06 9.55941e-06)
(-1.03951e-07 -9.95039e-07 9.59069e-06)
(-8.82124e-08 -1.0158e-06 9.63869e-06)
(-6.61809e-08 -1.15351e-06 9.7722e-06)
(-5.40195e-08 -1.30957e-06 1.00716e-05)
(-7.44298e-08 -7.25459e-07 9.07599e-06)
(2.35062e-07 -1.38115e-06 1.05223e-05)
(2.65735e-07 -1.29712e-06 1.06646e-05)
(2.26546e-07 -1.11531e-06 1.07502e-05)
(2.11764e-07 -9.97038e-07 1.08026e-05)
(2.16254e-07 -9.97575e-07 1.08734e-05)
(2.25322e-07 -1.14887e-06 1.10332e-05)
(2.18666e-07 -1.36066e-06 1.13537e-05)
(1.73434e-07 -7.55971e-07 1.01037e-05)
(-2.83898e-07 -1.41783e-06 1.05105e-05)
(-3.75512e-07 -1.32116e-06 1.0652e-05)
(-3.7164e-07 -1.12954e-06 1.07367e-05)
(-3.77675e-07 -1.00533e-06 1.07884e-05)
(-3.94518e-07 -1.00224e-06 1.08587e-05)
(-4.1005e-07 -1.1511e-06 1.10183e-05)
(-4.05364e-07 -1.36146e-06 1.13387e-05)
(-3.59749e-07 -7.56583e-07 1.00889e-05)
(-7.81641e-08 -2.04088e-06 9.26441e-06)
(-5.32249e-08 -1.38487e-06 9.37808e-06)
(-3.80591e-08 -1.11747e-06 9.43706e-06)
(-5.48076e-08 -1.01992e-06 9.46709e-06)
(-8.37129e-08 -1.02995e-06 9.51482e-06)
(-1.13034e-07 -1.15972e-06 9.64929e-06)
(-1.27599e-07 -1.31036e-06 9.95189e-06)
(-1.06245e-07 -7.26301e-07 8.96714e-06)
(-9.22038e-06 -8.30873e-07 3.89791e-07)
(-9.32364e-06 -6.9197e-08 5.92804e-07)
(-9.39456e-06 1.7685e-07 5.97394e-07)
(-9.44194e-06 1.88245e-07 5.65499e-07)
(-9.49963e-06 6.21511e-08 5.35266e-07)
(-9.62731e-06 -2.47434e-07 5.04469e-07)
(-9.90868e-06 -6.65231e-07 4.64752e-07)
(-8.92208e-06 -3.51002e-07 4.1586e-07)
(-1.05482e-05 2.17181e-07 6.40868e-07)
(-1.05321e-05 1.18343e-07 9.88756e-07)
(-1.05852e-05 1.50338e-07 1.00156e-06)
(-1.06386e-05 1.48949e-07 9.58949e-07)
(-1.07047e-05 3.02415e-08 9.24228e-07)
(-1.08368e-05 -2.95993e-07 8.87542e-07)
(-1.11214e-05 -7.57216e-07 8.25048e-07)
(-9.90856e-06 -3.9964e-07 7.3339e-07)
(-1.03345e-05 7.98623e-07 2.68959e-07)
(-1.03006e-05 2.91485e-07 4.8827e-07)
(-1.03517e-05 1.47042e-07 5.17628e-07)
(-1.04028e-05 1.10917e-07 4.89e-07)
(-1.0462e-05 -9.25582e-09 4.54946e-07)
(-1.05791e-05 -3.46614e-07 4.17786e-07)
(-1.08404e-05 -8.19382e-07 3.70497e-07)
(-9.62809e-06 -4.38275e-07 3.25298e-07)
(-1.02598e-05 9.74315e-07 5.95949e-08)
(-1.02159e-05 3.67007e-07 1.28775e-07)
(-1.0267e-05 1.51068e-07 1.44338e-07)
(-1.03151e-05 8.62664e-08 1.29522e-07)
(-1.03671e-05 -4.09726e-08 1.05155e-07)
(-1.04721e-05 -3.80442e-07 7.87079e-08)
(-1.07173e-05 -8.49704e-07 5.37526e-08)
(-9.50447e-06 -4.63391e-07 3.57892e-08)
(-1.02389e-05 9.86924e-07 -4.67102e-09)
(-1.01933e-05 3.76225e-07 -5.76853e-09)
(-1.02433e-05 1.47788e-07 -8.11516e-09)
(-1.02881e-05 7.17349e-08 -1.76009e-08)
(-1.03344e-05 -6.00695e-08 -3.20167e-08)
(-1.04315e-05 -3.98016e-07 -4.67758e-08)
(-1.06683e-05 -8.62301e-07 -5.76524e-08)
(-9.4577e-06 -4.77364e-07 -6.43421e-08)
(-1.02299e-05 9.63825e-07 -1.29239e-08)
(-1.01847e-05 3.63561e-07 -2.88348e-08)
(-1.02333e-05 1.39236e-07 -3.78495e-08)
(-1.02753e-05 6.23648e-08 -4.53261e-08)
(-1.03177e-05 -7.01475e-08 -5.33396e-08)
(-1.04103e-05 -4.06078e-07 -6.05664e-08)
(-1.06433e-05 -8.67271e-07 -6.50129e-08)
(-9.43459e-06 -4.83982e-07 -6.7539e-08)
(-1.02243e-05 9.45132e-07 -8.0088e-09)
(-1.01794e-05 3.51297e-07 -1.92293e-08)
(-1.02268e-05 1.31297e-07 -2.64339e-08)
(-1.02668e-05 5.62447e-08 -3.14664e-08)
(-1.03068e-05 -7.53098e-08 -3.5644e-08)