/*--------------------------------*- C++ -*----------------------------------*\
| =========                 |                                                 |
| \\      /  F ield         | OpenFOAM: The Open Source CFD Toolbox           |
|  \\    /   O peration     | Version:  v1912                                 |
|   \\  /    A nd           | Website:  www.openfoam.com                      |
|    \\/     M anipulation  |                                                 |
\*---------------------------------------------------------------------------*/
FoamFile
{
    version     2.0;
    format      ascii;
    class       volVectorField;
    location    "0.04/solid";
    object      D_0;
}
// * * * * * * * * * * * * * * * * * * * * * * * * * * * * * * * * * * * * * //

dimensions      [0 1 0 0 0 0 0];


internalField   nonuniform List<vector> 
256
(
(-2.87373e-08 4.03928e-09 -4.27151e-08)
(-9.72687e-09 1.02715e-08 -2.58401e-08)
(7.68868e-09 1.04255e-08 -2.68338e-08)
(2.55587e-08 5.58231e-09 -4.62084e-08)
(-4.43158e-08 2.85956e-08 -9.50424e-08)
(-1.76171e-08 3.27761e-08 -7.52263e-08)
(1.03056e-08 3.38846e-08 -7.75586e-08)
(3.53619e-08 3.28704e-08 -1.02614e-07)
(-4.53062e-08 6.16764e-08 -1.34387e-07)
(-2.03159e-08 6.38102e-08 -1.16773e-07)
(6.89127e-09 6.58607e-08 -1.19898e-07)
(3.02645e-08 6.84431e-08 -1.44283e-07)
(-4.44547e-08 9.90346e-08 -1.68799e-07)
(-2.22134e-08 1.01982e-07 -1.51969e-07)
(1.90531e-09 1.04872e-07 -1.55565e-07)
(2.2595e-08 1.08091e-07 -1.80105e-07)
(-4.63644e-08 1.39355e-07 -2.01711e-07)
(-2.55284e-08 1.45376e-07 -1.8453e-07)
(-2.54187e-09 1.49046e-07 -1.88419e-07)
(1.6771e-08 1.506e-07 -2.13915e-07)
(-5.55877e-08 1.82993e-07 -2.36701e-07)
(-3.24641e-08 1.92608e-07 -2.19051e-07)
(-4.37709e-09 1.97035e-07 -2.23118e-07)
(1.72278e-08 1.9641e-07 -2.49452e-07)
(-7.91636e-08 2.33308e-07 -2.78054e-07)
(-4.5088e-08 2.40723e-07 -2.61338e-07)
(-1.62513e-09 2.45895e-07 -2.655e-07)
(3.09238e-08 2.48928e-07 -2.91059e-07)
(-1.17026e-07 2.85503e-07 -3.23146e-07)
(-5.89912e-08 2.74356e-07 -3.10392e-07)
(1.29529e-09 2.80193e-07 -3.14603e-07)
(5.78105e-08 3.03472e-07 -3.36191e-07)
(2.10689e-09 2.15344e-08 -2.87952e-08)
(-2.30159e-09 1.9357e-08 -2.96764e-08)
(1.59305e-09 1.98799e-08 -3.03883e-08)
(-3.88935e-09 2.37258e-08 -3.09872e-08)
(1.35234e-09 5.32313e-08 -7.61637e-08)
(-4.40716e-09 5.33035e-08 -7.99171e-08)
(4.67387e-10 5.47793e-08 -8.17116e-08)
(-6.78946e-09 5.80834e-08 -8.15257e-08)
(1.38736e-09 8.66583e-08 -1.15843e-07)
(-5.87813e-09 8.80213e-08 -1.21526e-07)
(-2.69543e-09 9.02985e-08 -1.24028e-07)
(-1.14507e-08 9.37226e-08 -1.23285e-07)
(1.49372e-09 1.23002e-07 -1.50707e-07)
(-7.68257e-09 1.26117e-07 -1.57001e-07)
(-6.73258e-09 1.29124e-07 -1.5995e-07)
(-1.73714e-08 1.3216e-07 -1.59503e-07)
(-9.66572e-10 1.61575e-07 -1.83624e-07)
(-1.10371e-08 1.67988e-07 -1.89773e-07)
(-1.04204e-08 1.7171e-07 -1.93011e-07)
(-2.19506e-08 1.7282e-07 -1.93322e-07)
(-1.1205e-08 2.01383e-07 -2.16962e-07)
(-1.82591e-08 2.11561e-07 -2.22745e-07)
(-1.14905e-08 2.16005e-07 -2.26169e-07)
(-2.00153e-08 2.1476e-07 -2.27245e-07)
(-3.76074e-08 2.41016e-07 -2.49802e-07)
(-3.17634e-08 2.48262e-07 -2.55481e-07)
(-7.56853e-09 2.53435e-07 -2.59009e-07)
(-3.21994e-09 2.56613e-07 -2.6041e-07)
(-8.08901e-08 2.69072e-07 -2.7084e-07)
(-4.68238e-08 2.54008e-07 -2.76723e-07)
(-3.35681e-09 2.59839e-07 -2.8029e-07)
(2.91961e-08 2.87106e-07 -2.81563e-07)
(1.74805e-08 2.63456e-08 -2.06489e-08)
(3.61101e-09 2.03211e-08 -2.44217e-08)
(-3.60337e-09 2.08227e-08 -2.49408e-08)
(-1.83998e-08 2.81373e-08 -2.21731e-08)
(2.87472e-08 6.47309e-08 -6.00804e-08)
(6.96574e-09 6.15851e-08 -6.77634e-08)
(-8.74962e-09 6.30081e-08 -6.9081e-08)
(-3.18431e-08 6.907e-08 -6.38999e-08)
(3.08903e-08 1.01091e-07 -9.61604e-08)
(6.91887e-09 1.01299e-07 -1.05443e-07)
(-1.20813e-08 1.03496e-07 -1.07325e-07)
(-3.739e-08 1.07648e-07 -1.01641e-07)
(3.05167e-08 1.37423e-07 -1.28846e-07)
(5.25625e-09 1.4052e-07 -1.38571e-07)
(-1.52641e-08 1.43432e-07 -1.40844e-07)
(-4.1873e-08 1.46109e-07 -1.35522e-07)
(2.73384e-08 1.73291e-07 -1.5907e-07)
(1.83567e-09 1.80129e-07 -1.68711e-07)
(-1.81384e-08 1.83756e-07 -1.7126e-07)
(-4.50163e-08 1.8413e-07 -1.66605e-07)
(1.59203e-08 2.07013e-07 -1.87014e-07)
(-5.6899e-09 2.17741e-07 -1.96308e-07)
(-1.83704e-08 2.22104e-07 -1.99045e-07)
(-4.13879e-08 2.20075e-07 -1.9515e-07)
(-1.28089e-08 2.36931e-07 -2.09811e-07)
(-1.99815e-08 2.44308e-07 -2.18603e-07)
(-1.33037e-08 2.49421e-07 -2.21453e-07)
(-2.19243e-08 2.52321e-07 -2.18317e-07)
(-5.89714e-08 2.56499e-07 -2.20293e-07)
(-3.59602e-08 2.40544e-07 -2.28585e-07)
(-7.96729e-09 2.46336e-07 -2.31467e-07)
(1.35719e-08 2.74437e-07 -2.28931e-07)
(2.19224e-08 2.80737e-08 -1.63076e-08)
(5.68757e-09 2.04807e-08 -1.84431e-08)
(-5.28594e-09 2.09098e-08 -1.88188e-08)
(-2.23102e-08 2.94703e-08 -1.73805e-08)
(3.82991e-08 6.97326e-08 -4.83795e-08)
(1.16246e-08 6.48981e-08 -5.2898e-08)
(-1.20629e-08 6.6152e-08 -5.38505e-08)
(-3.9891e-08 7.33879e-08 -5.10881e-08)
(4.2163e-08 1.0821e-07 -7.87547e-08)
(1.26448e-08 1.07595e-07 -8.43293e-08)
(-1.54992e-08 1.09598e-07 -8.57063e-08)
(-4.62341e-08 1.14046e-07 -8.271e-08)
(4.18483e-08 1.44553e-07 -1.06756e-07)
(1.12799e-08 1.47524e-07 -1.12671e-07)
(-1.81273e-08 1.50252e-07 -1.14365e-07)
(-4.9957e-08 1.5258e-07 -1.11683e-07)
(3.82068e-08 1.78101e-07 -1.32053e-07)
(7.89493e-09 1.85168e-07 -1.37952e-07)
(-2.03434e-08 1.88634e-07 -1.39887e-07)
(-5.19668e-08 1.88381e-07 -1.37736e-07)
(2.6011e-08 2.07516e-07 -1.53717e-07)
(2.40947e-10 2.18615e-07 -1.59391e-07)
(-1.99164e-08 2.22846e-07 -1.61502e-07)
(-4.70468e-08 2.20134e-07 -1.59965e-07)
(-3.80775e-09 2.3286e-07 -1.69444e-07)
(-1.43494e-08 2.4062e-07 -1.74758e-07)
(-1.41685e-08 2.45632e-07 -1.76979e-07)
(-2.61216e-08 2.47915e-07 -1.76061e-07)
(-5.09811e-08 2.50924e-07 -1.76211e-07)
(-3.0657e-08 2.35476e-07 -1.81268e-07)
(-8.24627e-09 2.41191e-07 -1.83511e-07)
(1.06462e-08 2.6862e-07 -1.82944e-07)
(2.2456e-08 2.8715e-08 -1.26576e-08)
(5.98671e-09 2.06464e-08 -1.34329e-08)
(-5.36371e-09 2.10164e-08 -1.36958e-08)
(-2.25169e-08 2.98337e-08 -1.33947e-08)
(3.99128e-08 7.17062e-08 -3.75756e-08)
(1.26073e-08 6.62119e-08 -3.93275e-08)
(-1.22143e-08 6.7309e-08 -3.99957e-08)
(-4.05486e-08 7.47984e-08 -3.94498e-08)
(4.44895e-08 1.11122e-07 -6.13955e-08)
(1.41508e-08 1.10083e-07 -6.36712e-08)
(-1.54862e-08 1.11894e-07 -6.46454e-08)
(-4.6946e-08 1.16306e-07 -6.41647e-08)
(4.43747e-08 1.47314e-07 -8.3416e-08)
(1.30808e-08 1.50149e-07 -8.59194e-08)
(-1.77421e-08 1.52687e-07 -8.71348e-08)
(-5.02278e-08 1.54711e-07 -8.6923e-08)
(4.0597e-08 1.79475e-07 -1.02911e-07)
(9.83425e-09 1.86599e-07 -1.05457e-07)
(-1.95113e-08 1.89896e-07 -1.06867e-07)
(-5.15346e-08 1.892e-07 -1.07029e-07)
(2.8112e-08 2.06869e-07 -1.18845e-07)
(2.23186e-09 2.18132e-07 -1.21315e-07)
(-1.86598e-08 2.22219e-07 -1.22874e-07)
(-4.58619e-08 2.19021e-07 -1.23445e-07)
(-1.99344e-09 2.3083e-07 -1.2986e-07)
(-1.2341e-08 2.38867e-07 -1.32189e-07)
(-1.25637e-08 2.43759e-07 -1.33844e-07)
(-2.42907e-08 2.45505e-07 -1.34786e-07)
(-4.93721e-08 2.49054e-07 -1.34879e-07)
(-2.86633e-08 2.3415e-07 -1.37142e-07)
(-6.3553e-09 2.39766e-07 -1.38809e-07)
(1.29595e-08 2.66439e-07 -1.39893e-07)
(2.21651e-08 2.88821e-08 -9.05713e-09)
(5.87447e-09 2.075e-08 -9.24786e-09)
(-5.12699e-09 2.10787e-08 -9.42027e-09)
(-2.20271e-08 2.9816e-08 -9.53509e-09)
(3.94269e-08 7.23048e-08 -2.68213e-08)
(1.25182e-08 6.66389e-08 -2.72968e-08)
(-1.16194e-08 6.762e-08 -2.7737e-08)
(-3.94652e-08 7.49958e-08 -2.80449e-08)
(4.40981e-08 1.11984e-07 -4.381e-08)
(1.42439e-08 1.10779e-07 -4.44848e-08)
(-1.46097e-08 1.12439e-07 -4.51312e-08)
(-4.55121e-08 1.16674e-07 -4.56346e-08)
(4.4101e-08 1.47995e-07 -5.94633e-08)
(1.33767e-08 1.50729e-07 -6.02643e-08)
(-1.65865e-08 1.53111e-07 -6.1079e-08)
(-4.84481e-08 1.54888e-07 -6.18024e-08)
(4.03544e-08 1.79542e-07 -7.31267e-08)
(1.02927e-08 1.86634e-07 -7.39898e-08)
(-1.80693e-08 1.89784e-07 -7.49459e-08)
(-4.93503e-08 1.888e-07 -7.59105e-08)
(2.78604e-08 2.06291e-07 -8.40436e-08)
(2.82102e-09 2.17573e-07 -8.49206e-08)
(-1.6963e-08 2.21531e-07 -8.59899e-08)
(-4.32924e-08 2.18035e-07 -8.7193e-08)
(-2.21129e-09 2.30098e-07 -9.15026e-08)
(-1.16284e-08 2.38224e-07 -9.23654e-08)
(-1.06782e-08 2.43004e-07 -9.3507e-08)
(-2.14472e-08 2.4442e-07 -9.49043e-08)
(-4.95366e-08 2.48673e-07 -9.51247e-08)
(-2.78637e-08 2.34012e-07 -9.59907e-08)
(-4.31017e-09 2.39531e-07 -9.7137e-08)
(1.60012e-08 2.65755e-07 -9.85864e-08)
(2.19086e-08 2.88775e-08 -5.4395e-09)
(5.77175e-09 2.07788e-08 -5.46166e-09)
(-4.95677e-09 2.10812e-08 -5.55915e-09)
(-2.16557e-08 2.96974e-08 -5.70817e-09)
(3.88702e-08 7.23669e-08 -1.60692e-08)
(1.23426e-08 6.66908e-08 -1.61453e-08)
(-1.1152e-08 6.75969e-08 -1.63951e-08)
(-3.85567e-08 7.48028e-08 -1.67604e-08)
(4.34628e-08 1.12054e-07 -2.62154e-08)
(1.4121e-08 1.10798e-07 -2.63511e-08)
(-1.39078e-08 1.12357e-07 -2.67199e-08)
(-4.42482e-08 1.16416e-07 -2.7253e-08)
(4.35029e-08 1.47942e-07 -3.55277e-08)
(1.33692e-08 1.50615e-07 -3.57218e-08)
(-1.56877e-08 1.52889e-07 -3.619e-08)
(-4.69205e-08 1.54489e-07 -3.68691e-08)
(3.98189e-08 1.79293e-07 -4.35907e-08)
(1.04118e-08 1.86331e-07 -4.38329e-08)
(-1.6993e-08 1.89378e-07 -4.43867e-08)
(-4.75898e-08 1.88219e-07 -4.52022e-08)
(2.73972e-08 2.05952e-07 -4.99753e-08)
(3.06227e-09 2.17194e-07 -5.02528e-08)
(-1.57368e-08 2.21056e-07 -5.08767e-08)
(-4.13382e-08 2.17393e-07 -5.18144e-08)
(-2.57612e-09 2.29908e-07 -5.43416e-08)
(-1.127e-08 2.38018e-07 -5.46427e-08)
(-9.3394e-09 2.4271e-07 -5.53116e-08)
(-1.93642e-08 2.43958e-07 -5.634e-08)
(-4.98036e-08 2.48758e-07 -5.6549e-08)
(-2.74135e-08 2.34134e-07 -5.68636e-08)
(-2.87403e-09 2.39574e-07 -5.75331e-08)
(1.81791e-08 2.65597e-07 -5.85813e-08)
(2.17965e-08 2.88478e-08 -1.81369e-09)
(5.72971e-09 2.07759e-08 -1.81132e-09)
(-4.88421e-09 2.10653e-08 -1.84286e-09)
(-2.14897e-08 2.96123e-08 -1.90044e-09)
(3.86117e-08 7.23134e-08 -5.35031e-09)
(1.22644e-08 6.66507e-08 -5.35244e-09)
(-1.09369e-08 6.75195e-08 -5.43341e-09)
(-3.81311e-08 7.46232e-08 -5.57403e-09)
(4.31462e-08 1.11965e-07 -8.72091e-09)
(1.40601e-08 1.10696e-07 -8.73489e-09)
(-1.35696e-08 1.12204e-07 -8.85477e-09)
(-4.36291e-08 1.16162e-07 -9.05787e-09)
(4.3194e-08 1.47799e-07 -1.18075e-08)
(1.33615e-08 1.50442e-07 -1.18381e-08)
(-1.52459e-08 1.52659e-07 -1.19909e-08)
(-4.61574e-08 1.54166e-07 -1.22451e-08)
(3.95493e-08 1.79111e-07 -1.44707e-08)
(1.04719e-08 1.86113e-07 -1.45189e-08)
(-1.64621e-08 1.89104e-07 -1.47003e-08)
(-4.67133e-08 1.87861e-07 -1.4999e-08)
(2.71818e-08 2.05804e-07 -1.65737e-08)
(3.19276e-09 2.1701e-07 -1.66378e-08)
(-1.51316e-08 2.20819e-07 -1.68429e-08)
(-4.03743e-08 2.17081e-07 -1.71793e-08)
(-2.72614e-09 2.29883e-07 -1.80151e-08)
(-1.1072e-08 2.3796e-07 -1.80919e-08)
(-8.67591e-09 2.42604e-07 -1.83122e-08)
(-1.83411e-08 2.43781e-07 -1.86753e-08)
(-4.9889e-08 2.4888e-07 -1.87572e-08)
(-2.7159e-08 2.34233e-07 -1.88396e-08)
(-2.15967e-09 2.39629e-07 -1.90597e-08)
(1.92469e-08 2.6558e-07 -1.94282e-08)
)
;

boundaryField
{
    interface
    {
        type            solidTraction;
        traction        uniform (0 0 0);
        pressure        uniform 0;
        secondOrder     false;
        setEffectiveTraction false;
        relaxationFactor 1;
        value           nonuniform List<vector> 
192
(
(1.05467e-07 -1.42232e-08 -3.52491e-08)
(9.24849e-08 2.44545e-08 -8.3125e-08)
(9.2643e-08 6.16433e-08 -1.2176e-07)
(9.41888e-08 9.87722e-08 -1.5629e-07)
(9.29795e-08 1.36574e-07 -1.89444e-07)
(8.51209e-08 1.74796e-07 -2.2485e-07)
(6.42179e-08 2.17951e-07 -2.66989e-07)
(5.87682e-09 2.74747e-07 -3.13227e-07)
(1.65601e-07 2.24003e-08 -1.72414e-08)
(1.6521e-07 5.30528e-08 -5.78985e-08)
(1.66109e-07 8.66954e-08 -9.6794e-08)
(1.66994e-07 1.22416e-07 -1.31965e-07)
(1.65321e-07 1.58403e-07 -1.65199e-07)
(1.56376e-07 1.92225e-07 -1.99085e-07)
(1.32264e-07 2.23598e-07 -2.33213e-07)
(6.24998e-08 2.57162e-07 -2.56326e-07)
(1.80074e-07 3.79038e-08 -1.56955e-08)
(1.91244e-07 6.80848e-08 -5.08441e-08)
(1.9418e-07 1.01535e-07 -8.59667e-08)
(1.94534e-07 1.36537e-07 -1.18758e-07)
(1.92024e-07 1.69644e-07 -1.49276e-07)
(1.81658e-07 1.96979e-07 -1.7771e-07)
(1.54849e-07 2.18211e-07 -2.01361e-07)
(8.17804e-08 2.43778e-07 -2.12816e-07)
(1.84305e-07 4.31305e-08 -1.50641e-08)
(2.00358e-07 7.47943e-08 -4.55884e-08)
(2.04983e-07 1.09099e-07 -7.53551e-08)
(2.05328e-07 1.43566e-07 -1.03291e-07)
(2.02229e-07 1.74144e-07 -1.28739e-07)
(1.90886e-07 1.97015e-07 -1.50669e-07)
(1.62731e-07 2.13615e-07 -1.66739e-07)
(8.85012e-08 2.37783e-07 -1.73811e-07)
(1.84901e-07 4.43087e-08 -1.25972e-08)
(2.01975e-07 7.72162e-08 -3.72939e-08)
(2.07275e-07 1.1224e-07 -6.09118e-08)
(2.07752e-07 1.46343e-07 -8.28528e-08)
(2.04415e-07 1.75412e-07 -1.02374e-07)
(1.92651e-07 1.96224e-07 -1.18382e-07)
(1.6407e-07 2.11462e-07 -1.2946e-07)
(8.96238e-08 2.35753e-07 -1.34517e-07)
(1.84641e-07 4.42816e-08 -9.19415e-09)
(2.01511e-07 7.77898e-08 -2.7082e-08)
(2.06871e-07 1.13155e-07 -4.40667e-08)
(2.07411e-07 1.47062e-07 -5.96812e-08)
(2.04035e-07 1.75485e-07 -7.3321e-08)
(1.92184e-07 1.95653e-07 -8.4222e-08)
(1.63571e-07 2.10753e-07 -9.16479e-08)
(8.91923e-08 2.35351e-07 -9.52321e-08)
(1.84376e-07 4.40738e-08 -5.53174e-09)
(2.00941e-07 7.77573e-08 -1.62731e-08)
(2.06196e-07 1.13215e-07 -2.64534e-08)
(2.06737e-07 1.47034e-07 -3.57544e-08)
(2.03381e-07 1.7527e-07 -4.37918e-08)
(1.91562e-07 1.95356e-07 -5.01447e-08)
(1.63019e-07 2.10612e-07 -5.44701e-08)
(8.87506e-08 2.35461e-07 -5.66368e-08)
(1.8425e-07 4.39514e-08 -1.84175e-09)
(2.00665e-07 7.76527e-08 -5.41496e-09)
(2.05848e-07 1.13113e-07 -8.80006e-09)
(2.06378e-07 1.46902e-07 -1.18847e-08)
(2.03042e-07 1.75111e-07 -1.45381e-08)
(1.91259e-07 1.95239e-07 -1.66274e-08)
(1.62772e-07 2.10619e-07 -1.80525e-08)
(8.85746e-08 2.35609e-07 -1.87784e-08)
(-2.82495e-08 -3.03995e-08 1.03142e-07)
(-4.53185e-08 5.67789e-09 5.3785e-08)
(-4.72143e-08 4.32373e-08 1.53952e-08)
(-4.64998e-08 8.22037e-08 -1.86508e-08)
(-4.82011e-08 1.22379e-07 -5.10823e-08)
(-5.7099e-08 1.63907e-07 -8.46864e-08)
(-8.05155e-08 2.11697e-07 -1.23163e-07)
(-1.18796e-07 2.73211e-07 -1.88796e-07)
(-5.75479e-09 -1.49949e-08 1.44973e-07)
(-1.32445e-08 1.00428e-08 9.86731e-08)
(-1.66923e-08 4.46245e-08 5.85554e-08)
(-1.89032e-08 8.50427e-08 2.40894e-08)
(-2.22039e-08 1.28606e-07 -7.67235e-09)
(-2.90669e-08 1.73406e-07 -4.05392e-08)
(-4.19483e-08 2.17888e-07 -8.005e-08)
(-5.68541e-08 2.61396e-07 -1.55878e-07)
(2.59835e-09 -1.56727e-08 1.43922e-07)
(3.46044e-09 1.06184e-08 9.62956e-08)
(1.53121e-11 4.63592e-08 5.53754e-08)
(-5.12717e-09 8.77418e-08 2.04287e-08)
(-9.88659e-09 1.32158e-07 -1.16315e-08)
(-1.19759e-08 1.77765e-07 -4.4679e-08)
(-9.05391e-09 2.23024e-07 -8.42921e-08)
(-5.15309e-09 2.67219e-07 -1.60212e-07)
(2.40121e-08 -3.16237e-08 9.79295e-08)
(3.40389e-08 8.35143e-09 4.43578e-08)
(2.90919e-08 4.90702e-08 3.60182e-09)
(2.1079e-08 9.06832e-08 -3.18697e-08)
(1.47288e-08 1.33263e-07 -6.51993e-08)
(1.46596e-08 1.77123e-07 -9.93333e-08)
(2.80973e-08 2.27243e-07 -1.38017e-07)
(5.53856e-08 2.91156e-07 -2.03547e-07)
(-1.18235e-07 -9.64864e-09 -3.96183e-08)
(-1.11088e-07 3.16928e-08 -9.2736e-08)
(-1.17313e-07 7.16332e-08 -1.3444e-07)
(-1.25638e-07 1.11462e-07 -1.7087e-07)
(-1.32121e-07 1.51939e-07 -2.05254e-07)
(-1.32967e-07 1.92869e-07 -2.41425e-07)
(-1.21849e-07 2.38779e-07 -2.83936e-07)
(-7.45559e-08 2.98382e-07 -3.30249e-07)
(-1.76911e-07 2.63944e-08 -1.99969e-08)
(-1.80129e-07 5.99723e-08 -6.47238e-08)
(-1.85657e-07 9.63663e-08 -1.06371e-07)
(-1.92353e-07 1.34783e-07 -1.43385e-07)
(-1.977e-07 1.73478e-07 -1.77874e-07)
(-1.97006e-07 2.10075e-07 -2.12591e-07)
(-1.82404e-07 2.44307e-07 -2.47198e-07)
(-1.23576e-07 2.80837e-07 -2.70504e-07)
(-1.90458e-07 4.06968e-08 -1.75674e-08)
(-2.03818e-07 7.3816e-08 -5.56241e-08)
(-2.10196e-07 1.10153e-07 -9.29449e-08)
(-2.15426e-07 1.48013e-07 -1.27375e-07)
(-2.19236e-07 1.84006e-07 -1.59101e-07)
(-2.16618e-07 2.143e-07 -1.88392e-07)
(-1.98981e-07 2.38578e-07 -2.12592e-07)
(-1.3664e-07 2.6728e-07 -2.24294e-07)
(-1.94072e-07 4.50193e-08 -1.63508e-08)
(-2.11382e-07 7.93672e-08 -4.89114e-08)
(-2.18554e-07 1.16561e-07 -8.03208e-08)
(-2.2298e-07 1.5401e-07 -1.09594e-07)
(-2.25546e-07 1.87651e-07 -1.36107e-07)
(-2.21447e-07 2.13669e-07 -1.58847e-07)
(-2.02097e-07 2.33489e-07 -1.7547e-07)
(-1.38332e-07 2.60928e-07 -1.82791e-07)
(-1.9426e-07 4.55986e-08 -1.34652e-08)
(-2.11985e-07 8.09039e-08 -3.95561e-08)
(-2.19192e-07 1.18724e-07 -6.43451e-08)
(-2.23126e-07 1.55855e-07 -8.73002e-08)
(-2.249e-07 1.88105e-07 -1.07683e-07)
(-2.19926e-07 2.12207e-07 -1.24383e-07)
(-1.99797e-07 2.30796e-07 -1.35955e-07)
(-1.35538e-07 2.58459e-07 -1.41232e-07)
(-1.93741e-07 4.51876e-08 -9.75022e-09)
(-2.10872e-07 8.08653e-08 -2.85427e-08)
(-2.17707e-07 1.18917e-07 -4.63089e-08)
(-2.21251e-07 1.55845e-07 -6.26293e-08)
(-2.2256e-07 1.87509e-07 -7.68969e-08)
(-2.1713e-07 2.11056e-07 -8.83241e-08)
(-1.96666e-07 2.29593e-07 -9.61362e-08)
(-1.32225e-07 2.57634e-07 -9.98917e-08)
(-1.93321e-07 4.47489e-08 -5.84241e-09)
(-2.09916e-07 8.04491e-08 -1.70939e-08)
(-2.16375e-07 1.18505e-07 -2.77237e-08)
(-2.19625e-07 1.55321e-07 -3.74418e-08)
(-2.20666e-07 1.86821e-07 -4.58616e-08)
(-2.15006e-07 2.10333e-07 -5.25441e-08)
(-1.94388e-07 2.29075e-07 -5.71168e-08)
(-1.29867e-07 2.57411e-07 -5.93931e-08)
(-1.93121e-07 4.45159e-08 -1.9419e-09)
(-2.09455e-07 8.01561e-08 -5.6804e-09)
(-2.15709e-07 1.18167e-07 -9.21267e-09)
(-2.18801e-07 1.54934e-07 -1.24359e-08)
(-2.19712e-07 1.86412e-07 -1.52182e-08)
(-2.1395e-07 2.09984e-07 -1.74203e-08)
(-1.93265e-07 2.28872e-07 -1.89312e-08)
(-1.28706e-07 2.57366e-07 -1.96953e-08)
(-1.19613e-07 1.51138e-07 -3.25184e-07)
(-8.30744e-08 1.14147e-07 -2.63589e-07)
(-6.13384e-08 1.04433e-07 -2.15757e-07)
(-5.3685e-08 1.00224e-07 -1.7435e-07)
(-5.22916e-08 9.87794e-08 -1.34316e-07)
(-5.25278e-08 9.85681e-08 -9.50509e-08)
(-5.27906e-08 9.87593e-08 -5.66007e-08)
(-5.28577e-08 9.89423e-08 -1.87878e-08)
(-5.76598e-08 1.19836e-07 -3.11785e-07)
(-4.45113e-08 7.27138e-08 -2.6827e-07)
(-3.34151e-08 6.20428e-08 -2.23952e-07)
(-2.82191e-08 5.8647e-08 -1.79669e-07)
(-2.63369e-08 5.80519e-08 -1.36776e-07)
(-2.55734e-08 5.82437e-08 -9.59867e-08)
(-2.51128e-08 5.85276e-08 -5.69189e-08)
(-2.48414e-08 5.86992e-08 -1.88645e-08)
(-5.97972e-09 1.258e-07 -3.16001e-07)
(-1.1627e-08 7.86319e-08 -2.71825e-07)
(-1.64362e-08 6.79215e-08 -2.26805e-07)
(-1.6528e-08 6.44572e-08 -1.81869e-07)
(-1.44231e-08 6.37726e-08 -1.38394e-07)
(-1.22411e-08 6.38743e-08 -9.70889e-08)
(-1.07351e-08 6.40851e-08 -5.75575e-08)
(-9.99153e-09 6.42143e-08 -1.90733e-08)
(5.454e-08 1.70817e-07 -3.38257e-07)
(2.55181e-08 1.34043e-07 -2.74304e-07)
(1.01295e-08 1.24298e-07 -2.2431e-07)
(7.63986e-09 1.19892e-07 -1.80944e-07)
(1.02861e-08 1.18172e-07 -1.39176e-07)
(1.35108e-08 1.17684e-07 -9.83757e-08)
(1.57717e-08 1.17651e-07 -5.85374e-08)
(1.68709e-08 1.17702e-07 -1.94239e-08)
)
;
        gradient        uniform (0 0 0);
    }
    symmetry
    {
        type            solidSymmetry;
        patchType       symmetry;
        secondOrder     false;
        value           nonuniform List<vector> 
32
(
(2.17965e-08 2.88478e-08 0)
(3.86117e-08 7.23134e-08 0)
(4.31462e-08 1.11965e-07 0)
(4.3194e-08 1.47799e-07 0)
(3.95493e-08 1.79111e-07 0)
(2.71818e-08 2.05804e-07 0)
(-2.72614e-09 2.29883e-07 0)
(-4.9889e-08 2.4888e-07 0)
(5.72971e-09 2.07759e-08 0)
(1.22644e-08 6.66507e-08 0)
(1.40601e-08 1.10696e-07 0)
(1.33615e-08 1.50442e-07 0)
(1.04719e-08 1.86113e-07 0)
(3.19276e-09 2.1701e-07 0)
(-1.1072e-08 2.3796e-07 0)
(-2.7159e-08 2.34233e-07 0)
(-4.88421e-09 2.10653e-08 0)
(-1.09369e-08 6.75195e-08 0)
(-1.35696e-08 1.12204e-07 0)
(-1.52459e-08 1.52659e-07 0)
(-1.64621e-08 1.89104e-07 0)
(-1.51316e-08 2.20819e-07 0)
(-8.67591e-09 2.42604e-07 0)
(-2.15967e-09 2.39629e-07 0)
(-2.14897e-08 2.96123e-08 0)
(-3.81311e-08 7.46232e-08 0)
(-4.36291e-08 1.16162e-07 0)
(-4.61574e-08 1.54166e-07 0)
(-4.67133e-08 1.87861e-07 0)
(-4.03743e-08 2.17081e-07 0)
(-1.83411e-08 2.43781e-07 0)
(1.92469e-08 2.6558e-07 0)
)
;
    }
    bottom
    {
        type            fixedDisplacement;
        value           uniform (0 0 0);
    }
}


// ************************************************************************* //
