/*--------------------------------*- C++ -*----------------------------------*\
| =========                 |                                                 |
| \\      /  F ield         | OpenFOAM: The Open Source CFD Toolbox           |
|  \\    /   O peration     | Version:  v1912                                 |
|   \\  /    A nd           | Website:  www.openfoam.com                      |
|    \\/     M anipulation  |                                                 |
\*---------------------------------------------------------------------------*/
FoamFile
{
    version     2.0;
    format      ascii;
    class       volVectorField;
    location    "0.04/solid";
    object      heatFlux;
}
// * * * * * * * * * * * * * * * * * * * * * * * * * * * * * * * * * * * * * //

dimensions      [1 0 -3 0 0 0 0];


internalField   nonuniform List<vector> 
256
(
(-213419 14032.4 -224077)
(-3413.25 7147.82 -211904)
(3592.5 7147.96 -211628)
(222669 14393.8 -223056)
(-213352 122.807 -224020)
(-3471.16 63.9341 -211910)
(3653.44 63.9048 -211625)
(222587 125.654 -222961)
(-213451 4.15738 -224102)
(-3472.15 1.76546 -211979)
(3654.22 1.75304 -211692)
(222655 3.6263 -223034)
(-213694 8.80702 -224304)
(-3473.57 3.76471 -212159)
(3655.3 3.76798 -211872)
(222844 7.90537 -223234)
(-214318 25.385 -224848)
(-3477.19 11.8615 -212667)
(3658.36 11.8832 -212380)
(223375 23.8393 -223777)
(-216021 109.883 -226398)
(-3487.07 71.3023 -214197)
(3667.28 71.3774 -213914)
(224924 107.662 -225332)
(-220967 3913.69 -231133)
(-3515.7 3782.19 -219145)
(3694.72 3781 -218874)
(229694 3907.31 -230094)
(-232459 242865 -242865)
(-3619.76 232271 -232271)
(3792.4 232028 -232028)
(241458 241910 -241910)
(-199879 6742.42 -3678.67)
(-3278.91 123.281 -3512.71)
(3467.42 126.743 -3511.06)
(209098 7119.36 -3669.06)
(-199896 60.5379 -3741.29)
(-3336.77 1.736 -3575)
(3528.66 1.78356 -3573.29)
(209094 63.7179 -3731.38)
(-199988 2.16352 -3742.17)
(-3337.66 0.030756 -3575.79)
(3529.4 0.0285745 -3574.07)
(209157 1.70489 -3732.2)
(-200219 4.68449 -3743.27)
(-3338.91 0.0432135 -3576.75)
(3530.33 0.0383463 -3575.02)
(209335 3.78055 -3733.28)
(-200834 13.8584 -3746.2)
(-3342.31 0.360355 -3579.53)
(3533.14 0.350893 -3577.81)
(209851 12.1219 -3736.24)
(-202585 75.0964 -3754.47)
(-3352.41 32.7333 -3588.31)
(3542.1 32.7084 -3586.61)
(211424 72.1144 -3744.72)
(-207887 3780.12 -3780.12)
(-3384.7 3618.45 -3618.45)
(3572.52 3616.84 -3616.84)
(216481 3771.08 -3771.08)
(-220967 231133 -3913.69)
(-3515.7 219145 -3782.19)
(3694.72 218874 -3781)
(229694 230094 -3907.31)
(-194356 6612.41 -75.2415)
(-3245.64 60.1113 -31.4217)
(3436.15 63.6129 -31.3949)
(203848 6993.32 -72.0426)
(-194374 59.3125 -76.5824)
(-3303.16 0.851154 -32.307)
(3497.06 0.899265 -32.2796)
(203843 62.5084 -73.3574)
(-194467 2.17626 -76.5769)
(-3304.05 0.0165652 -32.3171)
(3497.81 0.0144104 -32.2898)
(203906 1.72372 -73.3533)
(-194702 4.77705 -76.5248)
(-3305.32 0.0254096 -32.3212)
(3498.77 0.0204562 -32.2939)
(204088 3.87007 -73.3062)
(-195332 14.1863 -76.3763)
(-3308.81 0.302328 -32.334)
(3501.65 0.292461 -32.3069)
(204619 12.4064 -73.179)
(-197134 75.9584 -75.9579)
(-3319.21 32.3778 -32.3779)
(3510.87 32.3512 -32.3512)
(206236 72.8199 -72.8206)
(-202585 3754.47 -75.096)
(-3352.42 3588.31 -32.7334)
(3542.1 3586.62 -32.7085)
(211424 3744.72 -72.1152)
(-216021 226398 -109.88)
(-3487.07 214197 -71.3012)
(3667.28 213914 -71.3771)
(224924 225332 -107.663)
(-192505 6590.6 -14.4625)
(-3235.06 59.5526 -0.293792)
(3426.8 63.068 -0.283504)
(202189 6973.96 -12.6109)
(-192522 59.2025 -14.6216)
(-3292.47 0.8406 -0.304703)
(3487.61 0.888738 -0.294267)
(202183 62.4072 -12.7495)
(-192618 2.22112 -14.5994)
(-3293.38 0.0165658 -0.305037)
(3488.37 0.0142832 -0.294711)
(202248 1.75606 -12.7367)
(-192859 4.88512 -14.543)
(-3294.68 0.0263084 -0.304519)
(3489.35 0.0211982 -0.29433)
(202435 3.95491 -12.699)
(-193502 14.4253 -14.4234)
(-3298.24 0.303673 -0.303543)
(3492.3 0.293586 -0.293528)
(202977 12.6076 -12.6085)
(-195332 76.3768 -14.1844)
(-3308.81 32.3339 -0.302307)
(3501.65 32.3068 -0.292507)
(204619 73.1782 -12.4074)
(-200834 3746.2 -13.8567)
(-3342.31 3579.53 -0.360544)
(3533.14 3577.81 -0.351146)
(209851 3736.24 -12.1233)
(-214318 224848 -25.3796)
(-3477.2 212667 -11.8592)
(3658.36 212380 -11.8826)
(223375 223777 -23.8429)
(-191848 6583.32 -4.949)
(-3231.46 59.5128 -0.0260111)
(3423.83 63.0352 -0.0207686)
(201638 6967.96 -3.98574)
(-191866 59.1756 -4.99903)
(-3288.83 0.83991 -0.0267642)
(3484.61 0.888057 -0.021427)
(201632 62.3827 -4.02401)
(-191963 2.25483 -4.98187)
(-3289.75 0.0167494 -0.026722)
(3485.38 0.014347 -0.0214688)
(201698 1.77417 -4.01664)
(-192208 4.9531 -4.94418)
(-3291.07 0.0269035 -0.0263771)
(3486.37 0.0216395 -0.0212445)
(201888 3.99832 -3.99742)
(-192859 14.5449 -4.8759)
(-3294.68 0.30454 -0.0258083)
(3489.35 0.294284 -0.0208223)
(202435 12.698 -3.95403)
(-194703 76.525 -4.76768)
(-3305.32 32.3208 -0.0251289)
(3498.77 32.2935 -0.0202792)
(204088 73.305 -3.86932)
(-200220 3743.28 -4.67537)
(-3338.91 3576.75 -0.0432908)
(3530.33 3575.02 -0.0385296)
(209334 3733.28 -3.78007)
(-213695 224305 -8.78529)
(-3473.57 212160 -3.75503)
(3655.3 211872 -3.76355)
(222843 223234 -7.9083)
(-191601 6580.65 -1.84074)
(-3230.13 59.4998 -0.00879354)
(3422.84 63.0258 -0.0061049)
(201446 6965.95 -1.34285)
(-191618 59.1697 -1.85832)
(-3287.49 0.839889 -0.00887639)
(3483.61 0.888037 -0.00613502)
(201441 62.3763 -1.35454)
(-191717 2.27597 -1.84739)
(-3288.42 0.0169529 -0.00874051)
(3484.38 0.0144656 -0.00605285)
(201507 1.78266 -1.35106)
(-191964 4.99108 -1.82539)
(-3289.75 0.0272221 -0.00853762)
(3485.38 0.0218447 -0.00593381)
(201698 4.01752 -1.34266)
(-192619 14.6018 -1.78968)
(-3293.39 0.304922 -0.00826993)
(3488.37 0.294552 -0.00576685)
(202248 12.7357 -1.32414)
(-194469 76.5773 -1.74177)
(-3304.06 32.3164 -0.0080052)
(3497.81 32.2891 -0.00558309)
(203906 73.3522 -1.28968)
(-199990 3742.18 -1.71825)
(-3337.67 3575.8 -0.0142562)
(3529.4 3574.07 -0.0118331)
(209156 3732.2 -1.25721)
(-213452 224104 -3.25085)
(-3472.17 211981 -1.2929)
(3654.21 211692 -1.2985)
(222654 223033 -2.77038)
(-191504 6579.62 -0.691176)
(-3229.62 59.4951 -0.00315423)
(3422.5 63.0229 -0.00184884)
(201378 6965.26 -0.449036)
(-191521 59.1689 -0.696738)
(-3286.98 0.839963 -0.00312801)
(3483.27 0.888109 -0.00179605)
(201373 62.3745 -0.451776)
(-191621 2.28776 -0.690968)
(-3287.91 0.0170882 -0.00303363)
(3484.03 0.0145482 -0.00173145)
(201440 1.78605 -0.450494)
(-191869 5.01081 -0.679805)
(-3289.25 0.0273741 -0.00293375)
(3485.04 0.0219255 -0.00167966)
(201631 4.02524 -0.447352)
(-192527 14.6285 -0.662818)
(-3292.89 0.305073 -0.00282243)
(3488.03 0.294635 -0.0016258)
(202182 12.751 -0.44015)
(-194378 76.5965 -0.64261)
(-3303.58 32.3148 -0.0027309)
(3497.48 32.2875 -0.00157535)
(203842 73.3719 -0.426556)
(-199901 3741.77 -0.637114)
(-3337.2 3575.47 -0.0048991)
(3529.09 3573.73 -0.00372824)
(209094 3731.8 -0.412489)
(-213356 224029 -1.19764)
(-3471.62 211915 -0.446123)
(3653.82 211626 -0.450072)
(222586 222957 -0.955968)
(-191469 6579.26 -0.17925)
(-3229.45 59.4936 -0.00079013)
(3422.39 63.0222 -0.000395071)
(201357 6965.05 -0.106047)
(-191487 59.1699 -0.180071)
(-3286.8 0.84001 -0.000773539)
(3483.16 0.888155 -0.000370088)
(201351 62.3748 -0.105977)
(-191587 2.2929 -0.178322)
(-3287.73 0.0171472 -0.000743636)
(3483.93 0.014582 -0.000349623)
(201419 1.78708 -0.105694)
(-191836 5.01923 -0.174927)
(-3289.08 0.0274333 -0.000714568)
(3484.93 0.0219504 -0.000336278)
(201610 4.02786 -0.104944)
(-192494 14.639 -0.169899)
(-3292.72 0.305124 -0.000684469)
(3487.93 0.294656 -0.000324784)
(202161 12.7565 -0.103074)
(-194347 76.603 -0.1644)
(-3303.42 32.3143 -0.000663028)
(3497.38 32.287 -0.000315068)
(203821 73.3798 -0.0994408)
(-199869 3741.63 -0.163329)
(-3337.04 3575.36 -0.0011853)
(3529 3573.62 -0.000831576)
(209075 3731.67 -0.0951929)
(-213321 224004 -0.304222)
(-3471.43 211894 -0.107751)
(3653.7 211604 -0.109234)
(222565 222931 -0.229926)
)
;

boundaryField
{
    interface
    {
        type            calculated;
        value           nonuniform List<vector> 
192
(
(-420011 14032.4 -224077)
(-419762 122.807 -224020)
(-419958 4.15738 -224102)
(-420441 8.80702 -224304)
(-421681 25.385 -224848)
(-425067 109.883 -226398)
(-434903 3913.69 -231133)
(-457681 242865 -242865)
(-393196 6742.42 -3678.67)
(-393115 60.5379 -3741.29)
(-393298 2.16352 -3742.17)
(-393758 4.68449 -3743.27)
(-394980 13.8584 -3746.2)
(-398461 75.0964 -3754.47)
(-409001 3780.12 -3780.12)
(-434903 231133 -3913.69)
(-382217 6612.41 -75.2415)
(-382138 59.3125 -76.5824)
(-382323 2.17626 -76.5769)
(-382790 4.77705 -76.5248)
(-384043 14.1863 -76.3763)
(-387625 75.9584 -75.9579)
(-398461 3754.47 -75.096)
(-425067 226398 -109.88)
(-378537 6590.6 -14.4625)
(-378456 59.2025 -14.6216)
(-378646 2.22112 -14.5994)
(-379125 4.88512 -14.543)
(-380404 14.4253 -14.4234)
(-384043 76.3768 -14.1844)
(-394981 3746.2 -13.8567)
(-421682 224848 -25.3796)
(-377231 6583.32 -4.949)
(-377151 59.1756 -4.99903)
(-377344 2.25483 -4.98187)
(-377831 4.9531 -4.94418)
(-379125 14.5449 -4.8759)
(-382791 76.525 -4.76768)
(-393758 3743.28 -4.67537)
(-420442 224305 -8.78529)
(-376738 6580.65 -1.84074)
(-376658 59.1697 -1.85832)
(-376853 2.27597 -1.84739)
(-377345 4.99108 -1.82539)
(-378648 14.6018 -1.78968)
(-382325 76.5773 -1.74177)
(-393301 3742.18 -1.71825)
(-419961 224104 -3.25085)
(-376545 6579.62 -0.691176)
(-376465 59.1689 -0.696738)
(-376662 2.28776 -0.690968)
(-377157 5.01081 -0.679805)
(-378464 14.6285 -0.662818)
(-382146 76.5965 -0.64261)
(-393123 3741.77 -0.637114)
(-419768 224029 -1.19764)
(-376476 6579.26 -0.17925)
(-376397 59.1699 -0.180071)
(-376594 2.2929 -0.178322)
(-377090 5.01923 -0.174927)
(-378399 14.639 -0.169899)
(-382083 76.603 -0.1644)
(-393061 3741.63 -0.163329)
(-419700 224004 -0.304222)
(-213419 14032.4 -440925)
(-213352 122.807 -440689)
(-213451 4.15738 -440851)
(-213694 8.80702 -441253)
(-214318 25.385 -442334)
(-216021 109.883 -445417)
(-220967 3913.69 -454835)
(-232459 242865 -478084)
(-3413.25 7147.82 -416845)
(-3471.16 63.9341 -416735)
(-3472.15 1.76546 -416871)
(-3473.57 3.76471 -417230)
(-3477.19 11.8615 -418239)
(-3487.07 71.3023 -421281)
(-3515.7 3782.19 -431117)
(-3619.76 232271 -457103)
(3592.5 7147.96 -416297)
(3653.44 63.9048 -416168)
(3654.22 1.75304 -416300)
(3655.3 3.76798 -416658)
(3658.36 11.8832 -417669)
(3667.28 71.3774 -420719)
(3694.72 3781 -430579)
(3792.4 232028 -456618)
(222669 14393.8 -438899)
(222587 125.654 -438586)
(222655 3.6263 -438731)
(222844 7.90537 -439129)
(223375 23.8393 -440209)
(224924 107.662 -443302)
(229694 3907.31 -452772)
(241458 241910 -476185)
(438153 14393.8 -223056)
(437867 125.654 -222961)
(438001 3.6263 -223034)
(438377 7.90537 -223234)
(439433 23.8393 -223777)
(442514 107.662 -225332)
(451998 3907.31 -230094)
(475329 241910 -241910)
(411265 7119.36 -3669.06)
(411135 63.7179 -3731.38)
(411259 1.70489 -3732.2)
(411612 3.78055 -3733.28)
(412640 12.1219 -3736.24)
(415767 72.1144 -3744.72)
(425820 3771.08 -3771.08)
(451998 230094 -3907.31)
(400828 6993.32 -72.0426)
(400695 62.5084 -73.3574)
(400820 1.72372 -73.3533)
(401183 3.87007 -73.3062)
(402238 12.4064 -73.179)
(405454 72.8199 -72.8206)
(415766 3744.72 -72.1152)
(442513 225332 -107.663)
(397528 6973.96 -12.6109)
(397395 62.4072 -12.7495)
(397524 1.75606 -12.7367)
(397895 3.95491 -12.699)
(398972 12.6076 -12.6085)
(402238 73.1782 -12.4074)
(412640 3736.24 -12.1233)
(439433 223777 -23.8429)
(396432 6967.96 -3.98574)
(396299 62.3827 -4.02401)
(396430 1.77417 -4.01664)
(396806 3.99832 -3.99742)
(397895 12.698 -3.95403)
(401182 73.305 -3.86932)
(411612 3733.28 -3.78007)
(438376 223234 -7.9083)
(396050 6965.95 -1.34285)
(395918 62.3763 -1.35454)
(396050 1.78266 -1.35106)
(396429 4.01752 -1.34266)
(397523 12.7357 -1.32414)
(400819 73.3522 -1.28968)
(411258 3732.2 -1.25721)
(437999 223033 -2.77038)
(395915 6965.26 -0.449036)
(395783 62.3745 -0.451776)
(395915 1.78605 -0.450494)
(396296 4.02524 -0.447352)
(397391 12.751 -0.44015)
(400692 73.3719 -0.426556)
(411134 3731.8 -0.412489)
(437865 222957 -0.955968)
(395872 6965.05 -0.106047)
(395740 62.3748 -0.105977)
(395873 1.78708 -0.105694)
(396253 4.02786 -0.104944)
(397350 12.7565 -0.103074)
(400652 73.3798 -0.0994408)
(411095 3731.67 -0.0951929)
(437823 222931 -0.229926)
(-232459 478084 -242865)
(-220967 454835 -3913.69)
(-216021 445418 -109.88)
(-214318 442334 -25.3796)
(-213695 441254 -8.78529)
(-213452 440856 -3.25085)
(-213356 440706 -1.19764)
(-213321 440656 -0.304222)
(-3619.76 457103 -232271)
(-3515.7 431117 -3782.19)
(-3487.07 421282 -71.3012)
(-3477.2 418239 -11.8592)
(-3473.57 417230 -3.75503)
(-3472.17 416874 -1.2929)
(-3471.62 416744 -0.446123)
(-3471.43 416701 -0.107751)
(3792.4 456618 -232028)
(3694.72 430579 -3781)
(3667.28 420719 -71.3771)
(3658.36 417669 -11.8826)
(3655.3 416658 -3.76355)
(3654.21 416300 -1.2985)
(3653.82 416169 -0.450072)
(3653.7 416126 -0.109234)
(241458 476185 -241910)
(229694 452772 -3907.31)
(224924 443301 -107.663)
(223375 440208 -23.8429)
(222843 439128 -7.9083)
(222654 438729 -2.77038)
(222586 438578 -0.955968)
(222565 438527 -0.229926)
)
;
    }
    symmetry
    {
        type            symmetry;
    }
    bottom
    {
        type            calculated;
        value           nonuniform List<vector> 
32
(
(-213419 27822.7 -224077)
(-199879 13365.6 -3678.67)
(-194356 13108 -75.2415)
(-192505 13064.6 -14.4625)
(-191848 13050.1 -4.949)
(-191601 13044.8 -1.84074)
(-191504 13042.8 -0.691176)
(-191469 13042.1 -0.17925)
(-3413.25 14169.4 -211904)
(-3278.91 243.131 -3512.71)
(-3245.64 118.541 -31.4217)
(-3235.06 117.444 -0.293792)
(-3231.46 117.366 -0.0260111)
(-3230.13 117.34 -0.00879354)
(-3229.62 117.331 -0.00315423)
(-3229.45 117.328 -0.00079013)
(3592.5 14169.7 -211628)
(3467.42 249.957 -3511.06)
(3436.15 125.447 -31.3949)
(3426.8 124.378 -0.283504)
(3423.83 124.313 -0.0207686)
(3422.84 124.295 -0.0061049)
(3422.5 124.289 -0.00184884)
(3422.39 124.287 -0.000395071)
(222669 28539.4 -223056)
(209098 14112.8 -3669.06)
(203848 13863.1 -72.0426)
(202189 13824.6 -12.6109)
(201638 13812.7 -3.98574)
(201446 13808.7 -1.34285)
(201378 13807.3 -0.449036)
(201357 13806.9 -0.106047)
)
;
    }
}


// ************************************************************************* //
