/*--------------------------------*- C++ -*----------------------------------*\
| =========                 |                                                 |
| \\      /  F ield         | OpenFOAM: The Open Source CFD Toolbox           |
|  \\    /   O peration     | Version:  v1912                                 |
|   \\  /    A nd           | Website:  www.openfoam.com                      |
|    \\/     M anipulation  |                                                 |
\*---------------------------------------------------------------------------*/
FoamFile
{
    version     2.0;
    format      ascii;
    class       pointVectorField;
    location    "0.04/solid";
    object      pointDD;
}
// * * * * * * * * * * * * * * * * * * * * * * * * * * * * * * * * * * * * * //

dimensions      [0 1 0 0 0 0 0];


internalField   nonuniform List<vector> 
405
(
(-2.26496e-09 6.82912e-09 -1.38591e-09)
(2.73859e-09 4.92263e-09 -1.14816e-08)
(3.27371e-10 3.66353e-09 -1.51844e-08)
(-2.03467e-09 5.25295e-09 -1.09051e-08)
(4.20565e-09 6.71146e-09 -8.36564e-11)
(-1.21126e-09 4.35488e-09 4.85234e-09)
(7.40155e-09 5.0549e-09 -1.62081e-08)
(1.2429e-09 3.37888e-09 -2.36115e-08)
(-4.79064e-09 5.27751e-09 -1.44695e-08)
(5.22934e-09 3.64936e-09 7.82315e-09)
(1.13577e-09 -7.06575e-09 1.71005e-08)
(9.74499e-09 -5.03453e-09 -3.99311e-09)
(2.39343e-09 -5.666e-09 -1.11799e-08)
(-4.80392e-09 -5.61632e-09 -1.33001e-09)
(5.03996e-09 -8.77671e-09 2.16769e-08)
(1.21355e-09 -1.80079e-08 2.69882e-08)
(1.0319e-08 -1.59711e-08 6.09816e-09)
(3.53341e-09 -1.65418e-08 -7.70014e-10)
(-3.09394e-09 -1.72302e-08 9.31056e-09)
(7.12169e-09 -2.06424e-08 3.25235e-08)
(1.44812e-09 -2.88512e-08 3.58164e-08)
(1.08775e-08 -2.74135e-08 1.50061e-08)
(4.74129e-09 -2.83911e-08 8.27512e-09)
(-1.22984e-09 -2.92797e-08 1.85712e-08)
(9.23726e-09 -3.23905e-08 4.19785e-08)
(2.9927e-09 -3.97006e-08 4.45151e-08)
(1.23267e-08 -3.9006e-08 2.37927e-08)
(6.08498e-09 -4.0493e-08 1.71505e-08)
(2.04359e-11 -4.14785e-08 2.75995e-08)
(1.03592e-08 -4.41945e-08 5.11129e-08)
(7.18964e-09 -5.0845e-08 5.42519e-08)
(1.55897e-08 -5.05841e-08 3.39811e-08)
(7.61836e-09 -5.22022e-08 2.76612e-08)
(-1.66836e-10 -5.37022e-08 3.79498e-08)
(9.21918e-09 -5.6381e-08 6.11404e-08)
(1.65427e-08 -6.39216e-08 6.71907e-08)
(2.10782e-08 -6.3167e-08 5.03847e-08)
(9.37747e-09 -6.39188e-08 4.55432e-08)
(-2.14903e-09 -6.696e-08 5.44526e-08)
(3.29024e-09 -7.05698e-08 7.42326e-08)
(2.60043e-08 -6.52772e-08 7.9068e-08)
(2.4368e-08 -5.93626e-08 7.37997e-08)
(1.03377e-08 -5.75898e-08 7.19435e-08)
(-3.53397e-09 -6.35708e-08 7.78301e-08)
(-4.57681e-09 -7.22891e-08 8.57859e-08)
(-1.32664e-08 1.0627e-09 4.0828e-09)
(0 0 0)
(0 0 0)
(0 0 0)
(1.53067e-08 4.7894e-10 4.88215e-09)
(-2.56111e-08 -3.19034e-09 1.46049e-08)
(0 0 0)
(0 0 0)
(0 0 0)
(3.04361e-08 -4.76869e-09 1.72275e-08)
(-2.47358e-08 -1.36093e-08 2.63889e-08)
(0 0 0)
(0 0 0)
(0 0 0)
(3.11178e-08 -1.60126e-08 3.06753e-08)
(-2.48749e-08 -2.3781e-08 3.63466e-08)
(0 0 0)
(0 0 0)
(0 0 0)
(3.30189e-08 -2.70363e-08 4.16963e-08)
(-2.45897e-08 -3.39127e-08 4.52075e-08)
(0 0 0)
(0 0 0)
(0 0 0)
(3.4815e-08 -3.80865e-08 5.12807e-08)
(-2.27468e-08 -4.38422e-08 5.37947e-08)
(0 0 0)
(0 0 0)
(0 0 0)
(3.54572e-08 -4.90334e-08 6.0384e-08)
(-1.76312e-08 -5.34413e-08 6.29235e-08)
(0 0 0)
(0 0 0)
(0 0 0)
(3.32772e-08 -5.976e-08 6.98685e-08)
(-4.25754e-09 -6.40888e-08 7.23105e-08)
(0 0 0)
(0 0 0)
(0 0 0)
(2.32013e-08 -7.16108e-08 7.94566e-08)
(1.66112e-08 -5.89716e-08 7.84086e-08)
(2.11675e-08 -4.22269e-08 7.96947e-08)
(9.46978e-09 -3.74754e-08 8.0369e-08)
(-2.05811e-09 -4.64781e-08 8.33083e-08)
(3.35781e-09 -6.63289e-08 8.47372e-08)
(-2.00724e-08 -3.00963e-09 2.44591e-09)
(0 0 0)
(0 0 0)
(0 0 0)
(2.18707e-08 -3.39894e-09 2.96033e-09)
(-4.08265e-08 -1.06118e-08 1.03695e-08)
(0 0 0)
(0 0 0)
(0 0 0)
(4.47709e-08 -1.18254e-08 1.2173e-08)
(-4.17873e-08 -1.99246e-08 2.09723e-08)
(0 0 0)
(0 0 0)
(0 0 0)
(4.65995e-08 -2.19972e-08 2.4104e-08)
(-4.21237e-08 -2.94762e-08 3.06161e-08)
(0 0 0)
(0 0 0)
(0 0 0)
(4.81878e-08 -3.24233e-08 3.47013e-08)
(-4.17273e-08 -3.89879e-08 3.92367e-08)
(0 0 0)
(0 0 0)
(0 0 0)
(4.94923e-08 -4.28826e-08 4.40206e-08)
(-3.9555e-08 -4.7783e-08 4.73021e-08)
(0 0 0)
(0 0 0)
(0 0 0)
(4.95212e-08 -5.27292e-08 5.26076e-08)
(-3.3484e-08 -5.53021e-08 5.50732e-08)
(0 0 0)
(0 0 0)
(0 0 0)
(4.61812e-08 -6.14104e-08 6.07538e-08)
(-1.75489e-08 -6.30877e-08 6.16001e-08)
(0 0 0)
(0 0 0)
(0 0 0)
(3.34083e-08 -7.04342e-08 6.75017e-08)
(7.3519e-09 -5.44125e-08 6.53091e-08)
(1.57828e-08 -3.4212e-08 6.71257e-08)
(7.82527e-09 -2.79944e-08 6.86839e-08)
(4.6902e-11 -3.83791e-08 7.00625e-08)
(9.41396e-09 -6.16417e-08 7.04998e-08)
(-2.2116e-08 -4.58401e-09 2.25303e-09)
(0 0 0)
(0 0 0)
(0 0 0)
(2.37006e-08 -4.73722e-09 2.59972e-09)
(-4.60443e-08 -1.39132e-08 9.18302e-09)
(0 0 0)
(0 0 0)
(0 0 0)
(4.92995e-08 -1.46239e-08 1.04275e-08)
(-4.84214e-08 -2.34524e-08 1.83438e-08)
(0 0 0)
(0 0 0)
(0 0 0)
(5.2047e-08 -2.5001e-08 2.0575e-08)
(-4.90508e-08 -3.30078e-08 2.68848e-08)
(0 0 0)
(0 0 0)
(0 0 0)
(5.34924e-08 -3.54649e-08 2.9899e-08)
(-4.85984e-08 -4.2116e-08 3.45797e-08)
(0 0 0)
(0 0 0)
(0 0 0)
(5.43781e-08 -4.5575e-08 3.82187e-08)
(-4.61888e-08 -4.99137e-08 4.14815e-08)
(0 0 0)
(0 0 0)
(0 0 0)
(5.38792e-08 -5.44834e-08 4.56152e-08)
(-3.95693e-08 -5.59158e-08 4.74712e-08)
(0 0 0)
(0 0 0)
(0 0 0)
(4.97643e-08 -6.17018e-08 5.19755e-08)
(-2.26638e-08 -6.24205e-08 5.18585e-08)
(0 0 0)
(0 0 0)
(0 0 0)
(3.58494e-08 -6.94883e-08 5.65844e-08)
(3.18254e-09 -5.31494e-08 5.41239e-08)
(1.25927e-08 -3.25116e-08 5.5623e-08)
(6.446e-09 -2.59935e-08 5.70928e-08)
(4.67364e-10 -3.65581e-08 5.79285e-08)
(1.08195e-08 -6.01593e-08 5.82521e-08)
(-2.2768e-08 -5.1039e-09 1.97201e-09)
(0 0 0)
(0 0 0)
(0 0 0)
(2.42054e-08 -5.08564e-09 2.20788e-09)
(-4.77861e-08 -1.52239e-08 7.81913e-09)
(0 0 0)
(0 0 0)
(0 0 0)
(5.05721e-08 -1.55275e-08 8.67524e-09)
(-5.07939e-08 -2.52239e-08 1.53663e-08)
(0 0 0)
(0 0 0)
(0 0 0)
(5.35989e-08 -2.62855e-08 1.69302e-08)
(-5.16638e-08 -3.4984e-08 2.23846e-08)
(0 0 0)
(0 0 0)
(0 0 0)
(5.49417e-08 -3.695e-08 2.45506e-08)
(-5.12414e-08 -4.39116e-08 2.869e-08)
(0 0 0)
(0 0 0)
(0 0 0)
(5.55442e-08 -4.69149e-08 3.13726e-08)
(-4.87408e-08 -5.11559e-08 3.41595e-08)
(0 0 0)
(0 0 0)
(0 0 0)
(5.46851e-08 -5.53194e-08 3.72751e-08)
(-4.19139e-08 -5.64671e-08 3.85944e-08)
(0 0 0)
(0 0 0)
(0 0 0)
(5.01391e-08 -6.18942e-08 4.20475e-08)
(-2.46984e-08 -6.25973e-08 4.16664e-08)
(0 0 0)
(0 0 0)
(0 0 0)
(3.57293e-08 -6.93416e-08 4.53229e-08)
(1.47029e-09 -5.32257e-08 4.31981e-08)
(1.111e-08 -3.25197e-08 4.41754e-08)
(5.32389e-09 -2.59572e-08 4.52021e-08)
(-3.09156e-10 -3.64226e-08 4.59239e-08)
(1.02753e-08 -5.99721e-08 4.63718e-08)
(-2.29318e-08 -5.24245e-09 1.52376e-09)
(0 0 0)
(0 0 0)
(0 0 0)
(2.42748e-08 -5.1102e-09 1.68075e-09)
(-4.82019e-08 -1.56944e-08 6.00408e-09)
(0 0 0)
(0 0 0)
(0 0 0)
(5.06838e-08 -1.57081e-08 6.57808e-09)
(-5.13766e-08 -2.60433e-08 1.17429e-08)
(0 0 0)
(0 0 0)
(0 0 0)
(5.36366e-08 -2.67253e-08 1.28045e-08)
(-5.23714e-08 -3.60053e-08 1.70541e-08)
(0 0 0)
(0 0 0)
(0 0 0)
(5.48497e-08 -3.75616e-08 1.85507e-08)
(-5.2012e-08 -4.49106e-08 2.1791e-08)
(0 0 0)
(0 0 0)
(0 0 0)
(5.52655e-08 -4.75143e-08 2.36814e-08)
(-4.95255e-08 -5.19625e-08 2.58134e-08)
(0 0 0)
(0 0 0)
(0 0 0)
(5.41927e-08 -5.57558e-08 2.80498e-08)
(-4.26841e-08 -5.70778e-08 2.89719e-08)
(0 0 0)
(0 0 0)
(0 0 0)
(4.94324e-08 -6.21661e-08 3.1487e-08)
(-2.54406e-08 -6.3171e-08 3.11405e-08)
(0 0 0)
(0 0 0)
(0 0 0)
(3.482e-08 -6.96007e-08 3.38252e-08)
(7.93773e-10 -5.37968e-08 3.22363e-08)
(1.03998e-08 -3.3071e-08 3.2836e-08)
(4.44624e-09 -2.6492e-08 3.34747e-08)
(-1.3666e-09 -3.68307e-08 3.40939e-08)
(9.1952e-09 -6.02823e-08 3.45516e-08)
(-2.29627e-08 -5.26906e-09 1.01669e-09)
(0 0 0)
(0 0 0)
(0 0 0)
(2.42474e-08 -5.06389e-09 1.11351e-09)
(-4.82516e-08 -1.58522e-08 4.00709e-09)
(0 0 0)
(0 0 0)
(0 0 0)
(5.05434e-08 -1.56732e-08 4.36291e-09)
(-5.14327e-08 -2.64003e-08 7.83777e-09)
(0 0 0)
(0 0 0)
(0 0 0)
(5.33443e-08 -2.6816e-08 8.50161e-09)
(-5.2475e-08 -3.65045e-08 1.13776e-08)
(0 0 0)
(0 0 0)
(0 0 0)
(5.44286e-08 -3.7759e-08 1.23251e-08)
(-5.21715e-08 -4.54577e-08 1.45168e-08)
(0 0 0)
(0 0 0)
(0 0 0)
(5.47182e-08 -4.77545e-08 1.57307e-08)
(-4.97358e-08 -5.24975e-08 1.71531e-08)
(0 0 0)
(0 0 0)
(0 0 0)
(5.35218e-08 -5.59961e-08 1.86093e-08)
(-4.29447e-08 -5.76142e-08 1.92003e-08)
(0 0 0)
(0 0 0)
(0 0 0)
(4.86522e-08 -6.24243e-08 2.08568e-08)
(-2.57525e-08 -6.37601e-08 2.06151e-08)
(0 0 0)
(0 0 0)
(0 0 0)
(3.39462e-08 -6.99249e-08 2.2395e-08)
(4.59125e-10 -5.44019e-08 2.13542e-08)
(9.97674e-09 -3.36475e-08 2.17149e-08)
(3.80403e-09 -2.70328e-08 2.20835e-08)
(-2.23685e-09 -3.72837e-08 2.25296e-08)
(8.25126e-09 -6.06641e-08 2.28778e-08)
(-2.29674e-08 -5.27231e-09 5.05275e-10)
(0 0 0)
(0 0 0)
(0 0 0)
(2.42196e-08 -5.02533e-09 5.51794e-10)
(-4.82429e-08 -1.59049e-08 1.99332e-09)
(0 0 0)
(0 0 0)
(0 0 0)
(5.04277e-08 -1.56132e-08 2.16484e-09)
(-5.14073e-08 -2.65464e-08 3.90217e-09)
(0 0 0)
(0 0 0)
(0 0 0)
(5.31195e-08 -2.68015e-08 4.2239e-09)
(-5.2466e-08 -3.67308e-08 5.66636e-09)
(0 0 0)
(0 0 0)
(0 0 0)
(5.41136e-08 -3.77975e-08 6.12913e-09)
(-5.21983e-08 -4.57357e-08 7.2265e-09)
(0 0 0)
(0 0 0)
(0 0 0)
(5.43251e-08 -4.78357e-08 7.82477e-09)
(-4.98066e-08 -5.28114e-08 8.53064e-09)
(0 0 0)
(0 0 0)
(0 0 0)
(5.30601e-08 -5.61154e-08 9.25473e-09)
(-4.30638e-08 -5.79705e-08 9.54066e-09)
(0 0 0)
(0 0 0)
(0 0 0)
(4.81326e-08 -6.25923e-08 1.03708e-08)
(-2.59219e-08 -6.41692e-08 1.02433e-08)
(0 0 0)
(0 0 0)
(0 0 0)
(3.33771e-08 -7.01507e-08 1.11395e-08)
(2.53708e-10 -5.48269e-08 1.06219e-08)
(9.70491e-09 -3.40447e-08 1.07991e-08)
(3.39782e-09 -2.73926e-08 1.09696e-08)
(-2.78315e-09 -3.75934e-08 1.11996e-08)
(7.65129e-09 -6.0932e-08 1.13831e-08)
(-1.6999e-08 -5.81532e-09 0)
(-1.73166e-09 -3.14811e-09 0)
(-1.30576e-10 -2.85561e-09 0)
(1.47458e-09 -3.1394e-09 0)
(1.7658e-08 -5.61683e-09 0)
(-2.77624e-08 -1.46272e-08 0)
(-5.08068e-09 -1.27165e-08 0)
(-4.75607e-10 -1.21381e-08 0)
(4.16022e-09 -1.27801e-08 0)
(2.83922e-08 -1.44848e-08 0)
(-3.08589e-08 -2.60789e-08 0)
(-7.31632e-09 -2.51416e-08 0)
(-8.17587e-10 -2.48122e-08 0)
(5.75716e-09 -2.54407e-08 0)
(3.09401e-08 -2.63778e-08 0)
(-3.18991e-08 -3.66867e-08 0)
(-8.08308e-09 -3.65828e-08 0)
(-9.4908e-10 -3.67786e-08 0)
(6.30289e-09 -3.72532e-08 0)
(3.18403e-08 -3.76681e-08 0)
(-3.16975e-08 -4.60838e-08 0)
(-7.92671e-09 -4.68568e-08 0)
(-8.04011e-10 -4.76754e-08 0)
(6.47218e-09 -4.80115e-08 0)
(3.2039e-08 -4.79466e-08 0)
(-2.95322e-08 -5.38605e-08 0)
(-6.37071e-09 -5.58473e-08 0)
(-3.3117e-10 -5.73363e-08 0)
(5.89065e-09 -5.75758e-08 0)
(3.09187e-08 -5.67595e-08 0)
(-2.33645e-08 -6.01012e-08 0)
(-2.15548e-09 -6.31742e-08 0)
(5.0437e-10 -6.48418e-08 0)
(3.36258e-09 -6.55432e-08 0)
(2.64911e-08 -6.41458e-08 0)
(-9.57774e-09 -6.65185e-08 0)
(5.17477e-09 -6.81032e-08 0)
(1.71464e-09 -6.82328e-08 0)
(-1.56233e-09 -7.11436e-08 0)
(1.50742e-08 -7.17665e-08 0)
(4.5401e-09 -6.06296e-08 0)
(9.57243e-09 -5.20212e-08 0)
(2.83389e-09 -4.80589e-08 0)
(-3.76039e-09 -5.54681e-08 0)
(2.25949e-09 -6.63672e-08 0)
)
;

boundaryField
{
    interface
    {
        type            calculated;
    }
    symmetry
    {
        type            symmetry;
    }
    bottom
    {
        type            calculated;
    }
}


// ************************************************************************* //
