/*--------------------------------*- C++ -*----------------------------------*\
| =========                 |                                                 |
| \\      /  F ield         | OpenFOAM: The Open Source CFD Toolbox           |
|  \\    /   O peration     | Version:  v1912                                 |
|   \\  /    A nd           | Website:  www.openfoam.com                      |
|    \\/     M anipulation  |                                                 |
\*---------------------------------------------------------------------------*/
FoamFile
{
    version     2.0;
    format      ascii;
    class       volScalarField;
    location    "0.04/solid";
    object      sigmaHyd;
}
// * * * * * * * * * * * * * * * * * * * * * * * * * * * * * * * * * * * * * //

dimensions      [1 -1 -2 0 0 0 0];


internalField   nonuniform List<scalar> 
256
(
-1.33812e+06
-690293
-688439
-1.35708e+06
-1.29074e+06
-651193
-648913
-1.31076e+06
-1.27388e+06
-626108
-623870
-1.29408e+06
-1.26903e+06
-613968
-611888
-1.28943e+06
-1.26434e+06
-602191
-600256
-1.28477e+06
-1.24767e+06
-577434
-575650
-1.26794e+06
-1.2219e+06
-546392
-544889
-1.24177e+06
-1.81062e+06
-1.22657e+06
-1.22546e+06
-1.82871e+06
-612144
174763
177656
-635107
-621014
172152
174512
-646531
-609315
182809
185096
-634796
-600787
195647
197893
-626110
-592352
213435
215628
-617444
-573489
243128
245225
-598099
-548111
272718
274536
-571746
-1.22173e+06
-546531
-545135
-1.2418e+06
-600264
173315
176140
-626506
-631358
165194
167516
-659303
-622470
170665
172980
-649995
-613555
181182
183525
-640665
-606171
197335
199680
-632853
-591034
222997
225281
-617063
-572351
243905
245914
-597210
-1.24707e+06
-577708
-576145
-1.26786e+06
-595830
164874
167389
-624519
-636644
151276
153343
-666452
-629822
154140
156277
-658876
-621639
162797
165028
-650028
-615672
177031
179316
-643437
-603359
199686
201948
-630316
-588870
216235
218239
-614535
-1.26287e+06
-602259
-600706
-1.28427e+06
-590791
161950
164179
-621142
-633333
145218
147031
-664486
-627603
146533
148472
-657787
-620479
153852
155937
-649809
-615864
166613
168796
-644406
-605450
187472
189663
-633058
-593182
202382
204332
-619418
-1.26584e+06
-612016
-610526
-1.28777e+06
-588331
161160
163175
-619764
-630297
143148
144761
-662369
-624947
143615
145389
-655929
-618641
150064
152019
-648647
-615065
161856
163938
-644167
-605848
181720
183834
-633926
-594668
196053
197939
-621320
-1.26645e+06
-616029
-614609
-1.28877e+06
-587665
160853
162730
-619749
-629020
142467
143946
-661664
-623797
142524
144182
-655291
-617977
148470
150330
-648427
-615048
159696
161703
-644524
-606503
179040
181092
-634898
-595817
193150
194984
-622754
-1.26713e+06
-617945
-616582
-1.28974e+06
-587635
160680
162488
-620024
-628721
142227
143640
-661639
-623555
142122
143721
-655299
-617955
147843
149653
-648625
-615322
158812
160777
-644989
-607070
177931
179950
-635629
-596570
191957
193761
-623654
-1.26768e+06
-618808
-617475
-1.29044e+06
)
;

boundaryField
{
    interface
    {
        type            zeroGradient;
    }
    symmetry
    {
        type            symmetry;
    }
    bottom
    {
        type            zeroGradient;
    }
}


// ************************************************************************* //
