/*--------------------------------*- C++ -*----------------------------------*\
| =========                 |                                                 |
| \\      /  F ield         | OpenFOAM: The Open Source CFD Toolbox           |
|  \\    /   O peration     | Version:  v1912                                 |
|   \\  /    A nd           | Website:  www.openfoam.com                      |
|    \\/     M anipulation  |                                                 |
\*---------------------------------------------------------------------------*/
FoamFile
{
    version     2.0;
    format      ascii;
    class       volVectorField;
    location    "0.04/solid";
    object      U;
}
// * * * * * * * * * * * * * * * * * * * * * * * * * * * * * * * * * * * * * //

dimensions      [0 1 -1 0 0 0 0];


internalField   nonuniform List<vector> 
256
(
(9.27733e-07 2.09605e-07 1.33225e-06)
(2.80569e-07 -8.67431e-08 8.73385e-07)
(-2.004e-07 -8.55848e-08 9.18677e-07)
(-8.2458e-07 1.79713e-07 1.48997e-06)
(1.40676e-06 -5.42306e-07 2.85194e-06)
(5.26376e-07 -7.07687e-07 2.32749e-06)
(-2.70203e-07 -7.33271e-07 2.43141e-06)
(-1.11308e-06 -6.52883e-07 3.18782e-06)
(1.43563e-06 -1.51069e-06 3.93627e-06)
(6.10061e-07 -1.57992e-06 3.48112e-06)
(-1.62764e-07 -1.63529e-06 3.61932e-06)
(-9.49153e-07 -1.69976e-06 4.3731e-06)
(1.41714e-06 -2.56646e-06 4.84979e-06)
(6.69374e-07 -2.64217e-06 4.42524e-06)
(-1.20129e-08 -2.72596e-06 4.58431e-06)
(-7.20632e-07 -2.83202e-06 5.34963e-06)
(1.47642e-06 -3.67845e-06 5.69344e-06)
(7.68537e-07 -3.82309e-06 5.27159e-06)
(1.26579e-07 -3.93529e-06 5.44469e-06)
(-5.4103e-07 -4.02311e-06 6.23665e-06)
(1.70725e-06 -4.84208e-06 6.56092e-06)
(9.56872e-07 -5.06745e-06 6.14556e-06)
(2.13544e-07 -5.20976e-06 6.32843e-06)
(-4.94681e-07 -5.27267e-06 7.13461e-06)
(2.2537e-06 -6.09691e-06 7.56019e-06)
(1.28071e-06 -6.28486e-06 7.20806e-06)
(2.11418e-07 -6.4591e-06 7.3974e-06)
(-7.19187e-07 -6.62232e-06 8.15251e-06)
(3.12865e-06 -7.41935e-06 8.65751e-06)
(1.65419e-06 -7.24596e-06 8.47635e-06)
(2.10898e-07 -7.44838e-06 8.66961e-06)
(-1.22689e-06 -8.04554e-06 9.25672e-06)
(6.7049e-08 -4.18593e-07 8.33648e-07)
(5.23891e-08 -4.76979e-07 8.29236e-07)
(-3.45208e-08 -4.9198e-07 8.61676e-07)
(-2.35791e-08 -4.77255e-07 9.32602e-07)
(1.35531e-07 -1.30089e-06 2.20162e-06)
(1.22619e-07 -1.35246e-06 2.2763e-06)
(-2.0528e-08 -1.39402e-06 2.35695e-06)
(5.5843e-09 -1.43647e-06 2.44131e-06)
(1.28117e-07 -2.23048e-06 3.30407e-06)
(1.61957e-07 -2.27954e-06 3.44121e-06)
(6.5418e-08 -2.34465e-06 3.55315e-06)
(1.40865e-07 -2.43183e-06 3.63594e-06)
(1.21282e-07 -3.22946e-06 4.23304e-06)
(2.09747e-07 -3.31141e-06 4.39558e-06)
(1.80441e-07 -3.40018e-06 4.5278e-06)
(3.12097e-07 -3.49861e-06 4.62654e-06)
(1.93014e-07 -4.27514e-06 5.07806e-06)
(3.04177e-07 -4.43474e-06 5.24384e-06)
(2.89576e-07 -4.54906e-06 5.39017e-06)
(4.46103e-07 -4.61864e-06 5.51544e-06)
(4.66851e-07 -5.33127e-06 5.91226e-06)
(5.01828e-07 -5.57841e-06 6.07465e-06)
(3.42589e-07 -5.721e-06 6.23108e-06)
(4.2524e-07 -5.75797e-06 6.38138e-06)
(1.1442e-06 -6.34189e-06 6.73872e-06)
(8.64179e-07 -6.51704e-06 6.90693e-06)
(2.84974e-07 -6.69002e-06 7.06978e-06)
(5.29185e-08 -6.86175e-06 7.22831e-06)
(2.26368e-06 -7.15903e-06 7.33316e-06)
(1.29075e-06 -6.81555e-06 7.51484e-06)
(2.21029e-07 -7.01457e-06 7.6797e-06)
(-7.09959e-07 -7.77962e-06 7.8299e-06)
(-3.61605e-07 -5.88668e-07 6.0686e-07)
(-1.16602e-07 -5.34885e-07 6.90784e-07)
(1.02058e-07 -5.48764e-07 7.13865e-07)
(3.67229e-07 -6.29266e-07 6.73857e-07)
(-6.2636e-07 -1.67075e-06 1.73621e-06)
(-2.06798e-07 -1.62917e-06 1.92644e-06)
(2.1153e-07 -1.66813e-06 1.98508e-06)
(6.63974e-07 -1.78291e-06 1.90526e-06)
(-6.98455e-07 -2.67587e-06 2.73876e-06)
(-2.16336e-07 -2.68985e-06 2.98089e-06)
(2.89564e-07 -2.75098e-06 3.0649e-06)
(8.08848e-07 -2.85324e-06 2.98261e-06)
(-7.01016e-07 -3.66883e-06 3.6147e-06)
(-1.81393e-07 -3.74761e-06 3.87676e-06)
(3.71638e-07 -3.83141e-06 3.97892e-06)
(9.31756e-07 -3.91456e-06 3.91394e-06)
(-6.1466e-07 -4.64453e-06 4.39865e-06)
(-9.11284e-08 -4.81514e-06 4.66422e-06)
(4.49417e-07 -4.92407e-06 4.77987e-06)
(1.01688e-06 -4.96615e-06 4.73995e-06)
(-3.00461e-07 -5.55765e-06 5.11393e-06)
(1.15855e-07 -5.82056e-06 5.37283e-06)
(4.6614e-07 -5.95773e-06 5.49847e-06)
(9.29468e-07 -5.96456e-06 5.48696e-06)
(4.73689e-07 -6.35464e-06 5.71962e-06)
(5.11636e-07 -6.5247e-06 5.96389e-06)
(3.55025e-07 -6.69233e-06 6.0958e-06)
(4.40636e-07 -6.85692e-06 6.11368e-06)
(1.72584e-06 -6.99944e-06 6.07434e-06)
(9.77931e-07 -6.59387e-06 6.29828e-06)
(2.368e-07 -6.78755e-06 6.43116e-06)
(-4.69766e-07 -7.60467e-06 6.47436e-06)
(-4.92146e-07 -6.48449e-07 4.72316e-07)
(-1.77476e-07 -5.47644e-07 5.23536e-07)
(1.45625e-07 -5.58142e-07 5.39973e-07)
(4.73941e-07 -6.70951e-07 5.18884e-07)
(-9.04736e-07 -1.84169e-06 1.38046e-06)
(-3.46685e-07 -1.74884e-06 1.49922e-06)
(2.9118e-07 -1.77993e-06 1.5413e-06)
(8.74647e-07 -1.92235e-06 1.49981e-06)
(-1.03089e-06 -2.91971e-06 2.22116e-06)
(-3.93844e-07 -2.90622e-06 2.37558e-06)
(3.62764e-07 -2.95812e-06 2.43697e-06)
(1.03131e-06 -3.06312e-06 2.39736e-06)
(-1.04332e-06 -3.92535e-06 2.97518e-06)
(-3.75247e-07 -3.99609e-06 3.14565e-06)
(4.21474e-07 -4.07066e-06 3.22199e-06)
(1.1259e-06 -4.13863e-06 3.19715e-06)
(-9.51439e-07 -4.85418e-06 3.64081e-06)
(-2.92666e-07 -5.02768e-06 3.81632e-06)
(4.73644e-07 -5.12788e-06 3.90458e-06)
(1.17323e-06 -5.14625e-06 3.90006e-06)
(-6.17259e-07 -5.67368e-06 4.2106e-06)
(-8.52338e-08 -5.94439e-06 4.38327e-06)
(4.6312e-07 -6.07347e-06 4.48075e-06)
(1.03969e-06 -6.05421e-06 4.49935e-06)
(1.96022e-07 -6.37225e-06 4.64987e-06)
(3.20721e-07 -6.54688e-06 4.81283e-06)
(3.20618e-07 -6.70702e-06 4.91606e-06)
(4.90791e-07 -6.85084e-06 4.95857e-06)
(1.49256e-06 -6.98783e-06 4.90298e-06)
(7.98559e-07 -6.5773e-06 5.0544e-06)
(1.73878e-07 -6.76405e-06 5.15786e-06)
(-4.81292e-07 -7.57136e-06 5.2161e-06)
(-5.14229e-07 -6.73872e-07 3.59472e-07)
(-1.89065e-07 -5.57246e-07 3.79796e-07)
(1.47442e-07 -5.64981e-07 3.91277e-07)
(4.8114e-07 -6.83467e-07 3.91531e-07)
(-9.64645e-07 -1.92061e-06 1.0575e-06)
(-3.83673e-07 -1.80534e-06 1.10862e-06)
(2.90571e-07 -1.82905e-06 1.13817e-06)
(8.90828e-07 -1.97492e-06 1.14042e-06)
(-1.11687e-06 -3.04248e-06 1.71415e-06)
(-4.51914e-07 -3.0125e-06 1.78513e-06)
(3.51272e-07 -3.05511e-06 1.82874e-06)
(1.04294e-06 -3.15472e-06 1.83838e-06)
(-1.14198e-06 -4.06183e-06 2.30972e-06)
(-4.48304e-07 -4.12386e-06 2.39241e-06)
(3.93351e-07 -4.1889e-06 2.44754e-06)
(1.11981e-06 -4.24384e-06 2.46922e-06)
(-1.05379e-06 -4.97059e-06 2.83002e-06)
(-3.7604e-07 -5.14108e-06 2.91886e-06)
(4.27302e-07 -5.23219e-06 2.98369e-06)
(1.14309e-06 -5.23334e-06 3.01996e-06)
(-7.17399e-07 -5.75123e-06 3.25974e-06)
(-1.75233e-07 -6.02233e-06 3.35042e-06)
(3.99036e-07 -6.14291e-06 3.42304e-06)
(9.83489e-07 -6.10489e-06 3.47482e-06)
(1.01694e-07 -6.42228e-06 3.57906e-06)
(2.26882e-07 -6.59909e-06 3.66787e-06)
(2.40045e-07 -6.75124e-06 3.74534e-06)
(4.08658e-07 -6.87603e-06 3.81141e-06)
(1.40464e-06 -7.04312e-06 3.77187e-06)
(7.01947e-07 -6.63629e-06 3.8573e-06)
(7.88555e-08 -6.81554e-06 3.93454e-06)
(-5.87352e-07 -7.60326e-06 4.00723e-06)
(-5.11436e-07 -6.84517e-07 2.53198e-07)
(-1.88404e-07 -5.64101e-07 2.59557e-07)
(1.41076e-07 -5.69878e-07 2.67139e-07)
(4.69099e-07 -6.85403e-07 2.74199e-07)
(-9.62795e-07 -1.95629e-06 7.46678e-07)
(-3.88498e-07 -1.83289e-06 7.647e-07)
(2.71837e-07 -1.85105e-06 7.84307e-07)
(8.61039e-07 -1.99148e-06 8.01351e-07)
(-1.12288e-06 -3.10075e-06 1.21374e-06)
(-4.66783e-07 -3.06213e-06 1.24133e-06)
(3.20512e-07 -3.09735e-06 1.27051e-06)
(9.99818e-07 -3.18888e-06 1.29649e-06)
(-1.15697e-06 -4.13076e-06 1.63874e-06)
(-4.7411e-07 -4.18562e-06 1.67387e-06)
(3.50155e-07 -4.24273e-06 1.71118e-06)
(1.06314e-06 -4.28732e-06 1.74645e-06)
(-1.07593e-06 -5.03658e-06 2.00766e-06)
(-4.11792e-07 -5.20174e-06 2.04845e-06)
(3.71633e-07 -5.28504e-06 2.09288e-06)
(1.07179e-06 -5.27454e-06 2.13783e-06)
(-7.45361e-07 -5.80939e-06 2.30778e-06)
(-2.19726e-07 -6.07667e-06 2.35246e-06)
(3.31953e-07 -6.18975e-06 2.40279e-06)
(8.9824e-07 -6.1396e-06 2.45711e-06)
(6.79972e-08 -6.48028e-06 2.52919e-06)
(1.74506e-07 -6.6546e-06 2.57588e-06)
(1.63276e-07 -6.79953e-06 2.62987e-06)
(3.11722e-07 -6.91173e-06 2.69188e-06)
(1.36598e-06 -7.11055e-06 2.66867e-06)
(6.42862e-07 -6.70279e-06 2.71518e-06)
(-6.64047e-09 -6.8751e-06 2.76872e-06)
(-6.94991e-07 -7.64927e-06 2.83321e-06)
(-5.07584e-07 -6.88645e-07 1.50476e-07)
(-1.8705e-07 -5.6776e-07 1.52259e-07)
(1.3643e-07 -5.72274e-07 1.56587e-07)
(4.59714e-07 -6.84045e-07 1.62433e-07)
(-9.54713e-07 -1.97155e-06 4.44108e-07)
(-3.88266e-07 -1.84548e-06 4.49968e-07)
(2.57365e-07 -1.85997e-06 4.6119e-07)
(8.35902e-07 -1.99426e-06 4.75358e-07)
(-1.11625e-06 -3.12695e-06 7.22618e-07)
(-4.71407e-07 -3.08401e-06 7.32645e-07)
(2.96759e-07 -3.11417e-06 7.49432e-07)
(9.62505e-07 -3.19873e-06 7.70237e-07)
(-1.15541e-06 -4.16429e-06 9.76182e-07)
(-4.85669e-07 -4.2142e-06 9.90342e-07)
(3.17683e-07 -4.26568e-06 1.01197e-06)
(1.01579e-06 -4.30294e-06 1.03874e-06)
(-1.08062e-06 -5.07361e-06 1.1956e-06)
(-4.30823e-07 -5.23387e-06 1.21362e-06)
(3.30948e-07 -5.31144e-06 1.23959e-06)
(1.0154e-06 -5.29353e-06 1.27197e-06)
(-7.56647e-07 -5.84949e-06 1.37327e-06)
(-2.46074e-07 -6.11216e-06 1.39462e-06)
(2.83903e-07 -6.2196e-06 1.42427e-06)
(8.34033e-07 -6.16213e-06 1.46171e-06)
(4.99048e-08 -6.52638e-06 1.50462e-06)
(1.41235e-07 -6.69645e-06 1.52837e-06)
(1.08897e-07 -6.83582e-06 1.5603e-06)
(2.41151e-07 -6.94072e-06 1.60157e-06)
(1.34172e-06 -7.16418e-06 1.58951e-06)
(6.03493e-07 -6.75249e-06 1.6137e-06)
(-6.68747e-08 -6.91933e-06 1.64518e-06)
(-7.71546e-07 -7.68607e-06 1.68739e-06)
(-5.06058e-07 -6.90059e-07 4.99105e-08)
(-1.86606e-07 -5.69186e-07 5.03026e-08)
(1.34375e-07 -5.73059e-07 5.17118e-08)
(4.55457e-07 -6.82699e-07 5.38074e-08)
(-9.51169e-07 -1.97717e-06 1.47328e-07)
(-3.88439e-07 -1.85019e-06 1.48748e-07)
(2.50427e-07 -1.8628e-06 1.52406e-07)
(8.2383e-07 -1.99349e-06 1.57529e-07)
(-1.11303e-06 -3.13709e-06 2.39782e-07)
(-4.73891e-07 -3.09221e-06 2.42385e-07)
(2.84869e-07 -3.1197e-06 2.47871e-07)
(9.43738e-07 -3.20029e-06 2.55379e-07)
(-1.15462e-06 -4.17827e-06 3.23951e-07)
(-4.91698e-07 -4.22554e-06 3.27873e-07)
(3.01088e-07 -4.27399e-06 3.34967e-07)
(9.91462e-07 -4.30729e-06 3.44539e-07)
(-1.0834e-06 -5.09081e-06 3.96705e-07)
(-4.40964e-07 -5.24812e-06 4.01984e-07)
(3.0997e-07 -5.32253e-06 4.10539e-07)
(9.86352e-07 -5.30079e-06 4.21972e-07)
(-7.63487e-07 -5.87018e-06 4.55561e-07)
(-2.60427e-07 -6.12982e-06 4.62109e-07)
(2.58953e-07 -6.23407e-06 4.71909e-07)
(8.00984e-07 -6.17291e-06 4.84965e-07)
(3.889e-08 -6.55133e-06 4.99178e-07)
(1.22831e-07 -6.71833e-06 5.06705e-07)
(8.03908e-08 -6.85449e-06 5.17278e-07)
(2.04703e-07 -6.9558e-06 5.31526e-07)
(1.3268e-06 -7.19326e-06 5.27691e-07)
(5.81382e-07 -6.77834e-06 5.35425e-07)
(-9.87476e-08 -6.94195e-06 5.4581e-07)
(-8.11277e-07 -7.70522e-06 5.60315e-07)
)
;

boundaryField
{
    interface
    {
        type            calculated;
        value           nonuniform List<vector> 
192
(
(-1.59774e-06 7.93141e-07 1.12181e-06)
(-1.24891e-06 -4.15457e-07 2.51553e-06)
(-1.24261e-06 -1.50827e-06 3.57618e-06)
(-1.26562e-06 -2.55647e-06 4.48848e-06)
(-1.19667e-06 -3.60616e-06 5.33582e-06)
(-9.31719e-07 -4.64801e-06 6.21656e-06)
(-2.89438e-07 -5.74182e-06 7.24892e-06)
(1.37258e-06 -7.1571e-06 8.39924e-06)
(-3.70881e-06 -3.68062e-07 5.11308e-07)
(-3.68898e-06 -1.28576e-06 1.69331e-06)
(-3.71382e-06 -2.23422e-06 2.77051e-06)
(-3.72793e-06 -3.21345e-06 3.70345e-06)
(-3.64567e-06 -4.18899e-06 4.55524e-06)
(-3.32465e-06 -5.09373e-06 5.41028e-06)
(-2.50667e-06 -5.89294e-06 6.29366e-06)
(-2.79497e-07 -6.84364e-06 6.98239e-06)
(-4.32013e-06 -8.35791e-07 4.67055e-07)
(-4.6127e-06 -1.75512e-06 1.47612e-06)
(-4.69944e-06 -2.69472e-06 2.44897e-06)
(-4.70828e-06 -3.6481e-06 3.3235e-06)
(-4.60905e-06 -4.54464e-06 4.11249e-06)
(-4.24265e-06 -5.28582e-06 4.84285e-06)
(-3.31962e-06 -5.84833e-06 5.4825e-06)
(-9.13787e-07 -6.65019e-06 5.88149e-06)
(-4.52625e-06 -9.97814e-07 4.34156e-07)
(-4.95862e-06 -1.97654e-06 1.29587e-06)
(-5.09781e-06 -2.95456e-06 2.11653e-06)
(-5.11479e-06 -3.90572e-06 2.86491e-06)
(-5.00721e-06 -4.74792e-06 3.53098e-06)
(-4.6166e-06 -5.38708e-06 4.10631e-06)
(-3.64887e-06 -5.84508e-06 4.5568e-06)
(-1.18325e-06 -6.62463e-06 4.82261e-06)
(-4.58095e-06 -1.04374e-06 3.54647e-07)
(-5.04861e-06 -2.07144e-06 1.04298e-06)
(-5.21253e-06 -3.08702e-06 1.69114e-06)
(-5.24041e-06 -4.0463e-06 2.28127e-06)
(-5.13414e-06 -4.86471e-06 2.79886e-06)
(-4.73836e-06 -5.46263e-06 3.22767e-06)
(-3.76172e-06 -5.89206e-06 3.54699e-06)
(-1.28551e-06 -6.67717e-06 3.74016e-06)
(-4.59178e-06 -1.05324e-06 2.54857e-07)
(-5.05942e-06 -2.10934e-06 7.49152e-07)
(-5.2301e-06 -3.14952e-06 1.21388e-06)
(-5.26552e-06 -4.11927e-06 1.63536e-06)
(-5.16473e-06 -4.93395e-06 2.00092e-06)
(-4.77297e-06 -5.5237e-06 2.29792e-06)
(-3.80059e-06 -5.95274e-06 2.51619e-06)
(-1.32841e-06 -6.74643e-06 2.65288e-06)
(-4.59331e-06 -1.05439e-06 1.51819e-07)
(-5.05612e-06 -2.12391e-06 4.47008e-07)
(-5.22743e-06 -3.17735e-06 7.25068e-07)
(-5.26696e-06 -4.15564e-06 9.76752e-07)
(-5.17139e-06 -4.9742e-06 1.19371e-06)
(-4.78525e-06 -5.56715e-06 1.36871e-06)
(-3.81905e-06 -6.00209e-06 1.49731e-06)
(-1.35294e-06 -6.80279e-06 1.57967e-06)
(-4.59364e-06 -1.05454e-06 5.02912e-08)
(-5.05408e-06 -2.12911e-06 1.48211e-07)
(-5.22528e-06 -3.18818e-06 2.40581e-07)
(-5.26673e-06 -4.17113e-06 3.24142e-07)
(-5.17425e-06 -4.99331e-06 3.95999e-07)
(-4.79174e-06 -5.58991e-06 4.53838e-07)
(-3.82948e-06 -6.02907e-06 4.96408e-07)
(-1.36731e-06 -6.83372e-06 5.23943e-07)
(9.18249e-07 1.2556e-06 -1.53759e-06)
(1.4439e-06 1.08671e-07 -1.58821e-07)
(1.50193e-06 -1.01124e-06 9.07323e-07)
(1.49171e-06 -2.12717e-06 1.82329e-06)
(1.54982e-06 -3.25067e-06 2.67896e-06)
(1.77565e-06 -4.3754e-06 3.5747e-06)
(2.32137e-06 -5.57276e-06 4.66059e-06)
(3.21255e-06 -7.09695e-06 6.56753e-06)
(1.77188e-07 7.13455e-07 -3.05505e-06)
(4.21287e-07 -5.57604e-08 -1.73176e-06)
(5.30879e-07 -1.05548e-06 -6.13984e-07)
(6.03062e-07 -2.19455e-06 3.2263e-07)
(7.06409e-07 -3.39301e-06 1.17755e-06)
(8.9881e-07 -4.58333e-06 2.08586e-06)
(1.24007e-06 -5.70216e-06 3.2713e-06)
(1.65727e-06 -6.89493e-06 5.65446e-06)
(-4.62397e-08 7.51958e-07 -3.01872e-06)
(-5.50761e-08 -5.81007e-08 -1.63907e-06)
(6.02824e-08 -1.09706e-06 -4.87129e-07)
(2.19141e-07 -2.26962e-06 4.70477e-07)
(3.67904e-07 -3.49926e-06 1.33939e-06)
(4.60867e-07 -4.72158e-06 2.25741e-06)
(4.47591e-07 -5.87381e-06 3.4499e-06)
(4.0605e-07 -7.09661e-06 5.84164e-06)
(-7.67627e-07 1.34922e-06 -1.3433e-06)
(-1.04731e-06 6.79241e-08 2.13282e-07)
(-8.79463e-07 -1.15929e-06 1.38091e-06)
(-6.37536e-07 -2.36612e-06 2.35997e-06)
(-4.41445e-07 -3.57686e-06 3.25865e-06)
(-3.79152e-07 -4.7937e-06 4.18435e-06)
(-5.96041e-07 -6.0918e-06 5.28824e-06)
(-1.11721e-06 -7.7218e-06 7.20127e-06)
(2.02932e-06 6.64217e-07 1.31821e-06)
(1.87735e-06 -6.21616e-07 2.94107e-06)
(2.0654e-06 -1.7977e-06 4.13548e-06)
(2.30027e-06 -2.93384e-06 5.13305e-06)
(2.47361e-06 -4.07936e-06 6.03972e-06)
(2.49065e-06 -5.22788e-06 6.96246e-06)
(2.17221e-06 -6.43901e-06 8.02112e-06)
(8.57137e-07 -7.97532e-06 9.18239e-06)
(4.09336e-06 -4.72642e-07 6.34652e-07)
(4.17439e-06 -1.47744e-06 1.99707e-06)
(4.32995e-06 -2.50827e-06 3.19648e-06)
(4.51195e-06 -3.5747e-06 4.21349e-06)
(4.64018e-06 -4.64669e-06 5.12601e-06)
(4.57841e-06 -5.65942e-06 6.0254e-06)
(4.0696e-06 -6.57768e-06 6.93842e-06)
(2.18156e-06 -7.65232e-06 7.64069e-06)
(4.6549e-06 -8.86934e-07 5.49481e-07)
(4.98572e-06 -1.89316e-06 1.68801e-06)
(5.14972e-06 -2.92e-06 2.76003e-06)
(5.28351e-06 -3.96634e-06 3.71053e-06)
(5.36129e-06 -4.96533e-06 4.55822e-06)
(5.22859e-06 -5.82024e-06 5.33341e-06)
(4.59586e-06 -6.50684e-06 6.00428e-06)
(2.51629e-06 -7.43686e-06 6.41727e-06)
(4.82532e-06 -1.00795e-06 4.90409e-07)
(5.25388e-06 -2.06153e-06 1.44311e-06)
(5.42947e-06 -3.12573e-06 2.33886e-06)
(5.53426e-06 -4.17388e-06 3.15018e-06)
(5.57218e-06 -5.12444e-06 3.86855e-06)
(5.38961e-06 -5.88333e-06 4.4859e-06)
(4.69167e-06 -6.47031e-06 4.96663e-06)
(2.53593e-06 -7.38133e-06 5.24556e-06)
(4.85684e-06 -1.0263e-06 3.92743e-07)
(5.29279e-06 -2.11519e-06 1.14384e-06)
(5.46342e-06 -3.21176e-06 1.84627e-06)
(5.54953e-06 -4.26863e-06 2.48494e-06)
(5.56169e-06 -5.199e-06 3.04537e-06)
(5.35054e-06 -5.921e-06 3.51023e-06)
(4.62381e-06 -6.48303e-06 3.85624e-06)
(2.44031e-06 -7.40197e-06 4.06072e-06)
(4.85307e-06 -1.01778e-06 2.79558e-07)
(5.27083e-06 -2.12397e-06 8.15092e-07)
(5.4276e-06 -3.23919e-06 1.31661e-06)
(5.49932e-06 -4.30506e-06 1.77248e-06)
(5.49567e-06 -5.23304e-06 2.16979e-06)
(5.26916e-06 -5.9493e-06 2.49452e-06)
(4.52944e-06 -6.51313e-06 2.73381e-06)
(2.33442e-06 -7.44214e-06 2.87932e-06)
(4.84588e-06 -1.00778e-06 1.65845e-07)
(5.24758e-06 -2.11977e-06 4.84667e-07)
(5.39172e-06 -3.24347e-06 7.84269e-07)
(5.45281e-06 -4.3159e-06 1.05668e-06)
(5.43946e-06 -5.24781e-06 1.29336e-06)
(5.20443e-06 -5.96827e-06 1.48605e-06)
(4.45786e-06 -6.53902e-06 1.62836e-06)
(2.25675e-06 -7.47569e-06 1.71651e-06)
(4.84195e-06 -1.00235e-06 5.48724e-08)
(5.23565e-06 -2.11537e-06 1.60549e-07)
(5.37283e-06 -3.24197e-06 2.60076e-07)
(5.42808e-06 -4.31767e-06 3.50628e-07)
(5.40971e-06 -5.25288e-06 4.29245e-07)
(5.17042e-06 -5.9772e-06 4.9324e-07)
(4.42032e-06 -6.55242e-06 5.40653e-07)
(2.21592e-06 -7.49315e-06 5.70267e-07)
(3.21617e-06 -5.32912e-06 8.75363e-06)
(2.33524e-06 -4.25881e-06 7.22819e-06)
(1.7988e-06 -4.01238e-06 6.03156e-06)
(1.57125e-06 -3.97255e-06 4.91392e-06)
(1.48563e-06 -4.01593e-06 3.80256e-06)
(1.44581e-06 -4.0792e-06 2.69894e-06)
(1.41919e-06 -4.13234e-06 1.6102e-06)
(1.40254e-06 -4.16189e-06 5.34966e-07)
(1.6612e-06 -4.42403e-06 8.54426e-06)
(1.25438e-06 -2.87879e-06 7.35181e-06)
(9.24695e-07 -2.53481e-06 6.23872e-06)
(7.42343e-07 -2.48492e-06 5.06501e-06)
(6.44772e-07 -2.53448e-06 3.88867e-06)
(5.83712e-07 -2.5988e-06 2.74424e-06)
(5.41983e-07 -2.64866e-06 1.63259e-06)
(5.18253e-07 -2.67499e-06 5.41889e-07)
(4.10541e-07 -4.62032e-06 8.73704e-06)
(4.61792e-07 -3.06699e-06 7.51449e-06)
(4.89239e-07 -2.71715e-06 6.36853e-06)
(4.22122e-07 -2.66055e-06 5.16485e-06)
(3.20319e-07 -2.70293e-06 3.96229e-06)
(2.29693e-07 -2.76057e-06 2.79466e-06)
(1.66224e-07 -2.8051e-06 1.6619e-06)
(1.3267e-07 -2.82827e-06 5.51465e-07)
(-1.11297e-06 -5.9896e-06 9.3521e-06)
(-5.82609e-07 -4.91431e-06 7.71968e-06)
(-3.49661e-07 -4.65317e-06 6.42229e-06)
(-3.74755e-07 -4.59237e-06 5.21573e-06)
(-4.91348e-07 -4.61318e-06 4.0267e-06)
(-6.05304e-07 -4.65562e-06 2.8539e-06)
(-6.85352e-07 -4.69218e-06 1.70137e-06)
(-7.26801e-07 -4.71179e-06 5.65098e-07)
)
;
    }
    symmetry
    {
        type            symmetry;
    }
    bottom
    {
        type            calculated;
        value           uniform (0 0 0);
    }
}


// ************************************************************************* //
