/*--------------------------------*- C++ -*----------------------------------*\
| =========                 |                                                 |
| \\      /  F ield         | OpenFOAM: The Open Source CFD Toolbox           |
|  \\    /   O peration     | Version:  v1912                                 |
|   \\  /    A nd           | Website:  www.openfoam.com                      |
|    \\/     M anipulation  |                                                 |
\*---------------------------------------------------------------------------*/
FoamFile
{
    version     2.0;
    format      ascii;
    class       volVectorField;
    location    "0.53/solid";
    object      D;
}
// * * * * * * * * * * * * * * * * * * * * * * * * * * * * * * * * * * * * * //

dimensions      [0 1 0 0 0 0 0];


internalField   nonuniform List<vector> 
256
(
(2.20521e-08 3.36812e-08 2.36117e-08)
(2.3124e-09 1.95214e-08 2.13551e-08)
(-1.87474e-09 1.92874e-08 2.13941e-08)
(-2.11388e-08 3.26436e-08 2.38072e-08)
(3.51236e-08 2.62167e-08 4.32546e-08)
(6.63079e-09 1.80801e-08 4.03394e-08)
(-4.74367e-09 1.75997e-08 4.05444e-08)
(-3.2616e-08 2.45594e-08 4.39648e-08)
(3.68001e-08 1.51234e-08 5.28718e-08)
(7.909e-09 1.19592e-08 4.98089e-08)
(-4.26631e-09 1.12738e-08 5.01546e-08)
(-3.2554e-08 1.29332e-08 5.39923e-08)
(3.65793e-08 6.06169e-09 5.99812e-08)
(8.21615e-09 4.30734e-09 5.67022e-08)
(-2.586e-09 3.44187e-09 5.71495e-08)
(-3.03546e-08 3.37088e-09 6.14006e-08)
(3.74894e-08 -2.04355e-09 6.70116e-08)
(8.96267e-09 -4.34755e-09 6.34969e-08)
(-1.11886e-09 -5.38227e-09 6.40198e-08)
(-2.90469e-08 -5.20969e-09 6.86563e-08)
(4.08981e-08 -1.0604e-08 7.51715e-08)
(1.07982e-08 -1.40204e-08 7.14429e-08)
(-5.16597e-10 -1.52241e-08 7.20266e-08)
(-3.0021e-08 -1.42381e-08 7.69984e-08)
(4.84252e-08 -2.41555e-08 8.54936e-08)
(1.41392e-08 -2.70899e-08 8.17804e-08)
(-1.21487e-09 -2.84562e-08 8.24154e-08)
(-3.49406e-08 -2.82484e-08 8.74733e-08)
(5.97051e-08 -6.55055e-08 9.69679e-08)
(1.78364e-08 -6.30497e-08 9.38384e-08)
(-2.16151e-09 -6.43999e-08 9.4507e-08)
(-4.35071e-08 -6.96481e-08 9.90456e-08)
(1.58062e-08 1.59265e-08 3.42551e-09)
(1.10891e-09 4.25844e-09 4.40392e-09)
(-8.37036e-10 4.06338e-09 4.52812e-09)
(-1.50262e-08 1.5029e-08 3.78809e-09)
(2.53943e-08 1.22726e-08 1.52713e-08)
(4.25174e-09 5.40349e-09 1.71637e-08)
(-2.80665e-09 4.91089e-09 1.74527e-08)
(-2.33083e-08 1.06359e-08 1.6111e-08)
(2.63805e-08 5.6552e-09 2.4644e-08)
(5.20864e-09 2.86618e-09 2.68677e-08)
(-2.24041e-09 2.15483e-09 2.72797e-08)
(-2.2797e-08 3.44511e-09 2.58429e-08)
(2.59454e-08 -1.2281e-09 3.1725e-08)
(5.43059e-09 -2.86925e-09 3.40272e-08)
(-6.64238e-10 -3.75707e-09 3.45327e-08)
(-2.05703e-08 -3.93924e-09 3.32001e-08)
(2.66663e-08 -8.35216e-09 3.81358e-08)
(6.10686e-09 -1.06036e-08 4.04272e-08)
(7.20846e-10 -1.16547e-08 4.10051e-08)
(-1.92174e-08 -1.1532e-08 3.98265e-08)
(2.99279e-08 -1.59842e-08 4.48533e-08)
(7.8764e-09 -1.93928e-08 4.71098e-08)
(1.26597e-09 -2.06071e-08 4.77456e-08)
(-2.01563e-08 -1.9624e-08 4.6716e-08)
(3.74929e-08 -2.68022e-08 5.16514e-08)
(1.1184e-08 -2.97057e-08 5.39067e-08)
(5.0384e-10 -3.10735e-08 5.45845e-08)
(-2.52022e-08 -3.08835e-08 5.36412e-08)
(4.91642e-08 -6.0579e-08 5.56052e-08)
(1.48678e-08 -5.75668e-08 5.7906e-08)
(-4.96234e-10 -5.89005e-08 5.8598e-08)
(-3.42326e-08 -6.46676e-08 5.76437e-08)
(1.1736e-08 1.06682e-08 1.60939e-09)
(7.60108e-11 7.24461e-10 2.86878e-09)
(7.04598e-11 5.53199e-10 2.96117e-09)
(-1.10915e-08 9.88359e-09 1.87274e-09)
(1.89038e-08 5.11795e-09 9.34446e-09)
(2.13178e-09 -6.87573e-10 1.1719e-08)
(-1.04701e-09 -1.14926e-09 1.19426e-08)
(-1.7181e-08 3.61802e-09 9.98303e-09)
(1.94933e-08 -1.03059e-09 1.75012e-08)
(2.79242e-09 -3.46123e-09 2.02469e-08)
(-3.88215e-10 -4.14507e-09 2.05677e-08)
(-1.64725e-08 -3.1204e-09 1.84249e-08)
(1.90118e-08 -6.77471e-09 2.45066e-08)
(2.94778e-09 -8.33449e-09 2.73584e-08)
(1.08325e-09 -9.19826e-09 2.77564e-08)
(-1.43673e-08 -9.38332e-09 2.56604e-08)
(1.96804e-08 -1.25514e-08 3.06349e-08)
(3.56995e-09 -1.47957e-08 3.35137e-08)
(2.38143e-09 -1.58242e-08 3.39746e-08)
(-1.30977e-08 -1.56413e-08 3.19774e-08)
(2.29351e-08 -1.83896e-08 3.62128e-08)
(5.29061e-09 -2.18119e-08 3.90912e-08)
(2.86156e-09 -2.30032e-08 3.96024e-08)
(-1.41365e-08 -2.19456e-08 3.77066e-08)
(3.05923e-08 -2.65861e-08 4.06231e-08)
(8.57422e-09 -2.95079e-08 4.34927e-08)
(2.03277e-09 -3.08496e-08 4.40375e-08)
(-1.93581e-08 -3.05815e-08 4.22217e-08)
(4.23263e-08 -5.67711e-08 4.20123e-08)
(1.224e-08 -5.37775e-08 4.48949e-08)
(9.76754e-10 -5.50796e-08 4.5445e-08)
(-2.85197e-08 -6.0762e-08 4.36377e-08)
(9.90113e-09 9.10268e-09 1.6642e-09)
(-3.48185e-10 1.22831e-10 2.44811e-09)
(4.20907e-10 -3.37802e-11 2.51305e-09)
(-9.36314e-09 8.39602e-09 1.85059e-09)
(1.59019e-08 2.22043e-09 7.32905e-09)
(1.16067e-09 -2.96575e-09 8.83309e-09)
(-3.2115e-10 -3.39185e-09 8.99601e-09)
(-1.44592e-08 8.54618e-10 7.79553e-09)
(1.63715e-08 -4.58727e-09 1.38058e-08)
(1.66552e-09 -6.79661e-09 1.55514e-08)
(3.28247e-10 -7.43853e-09 1.57887e-08)
(-1.37882e-08 -6.5321e-09 1.44905e-08)
(1.59746e-08 -1.0117e-08 1.9898e-08)
(1.80067e-09 -1.16316e-08 2.1703e-08)
(1.67421e-09 -1.24546e-08 2.20008e-08)
(-1.19084e-08 -1.2589e-08 2.07648e-08)
(1.67045e-08 -1.50072e-08 2.52272e-08)
(2.40832e-09 -1.72549e-08 2.70403e-08)
(2.86365e-09 -1.82455e-08 2.73891e-08)
(-1.08201e-08 -1.79735e-08 2.62487e-08)
(2.00065e-08 -1.95436e-08 2.96308e-08)
(4.10507e-09 -2.29798e-08 3.14395e-08)
(3.26631e-09 -2.41354e-08 3.18295e-08)
(-1.20037e-08 -2.29877e-08 3.07783e-08)
(2.76829e-08 -2.63815e-08 3.26287e-08)
(7.3525e-09 -2.93603e-08 3.44361e-08)
(2.39035e-09 -3.0668e-08 3.48526e-08)
(-1.73221e-08 -3.02736e-08 3.38617e-08)
(3.93229e-08 -5.50759e-08 3.34831e-08)
(1.09787e-08 -5.23182e-08 3.53349e-08)
(1.30197e-09 -5.35889e-08 3.57537e-08)
(-2.64542e-08 -5.8971e-08 3.47342e-08)
(9.1686e-09 8.4458e-09 1.56106e-09)
(-4.52169e-10 -4.22186e-11 1.95274e-09)
(4.81878e-10 -1.87806e-10 1.99812e-09)
(-8.70289e-09 7.79582e-09 1.6913e-09)
(1.47236e-08 1.09086e-09 5.82244e-09)
(8.62079e-10 -3.78614e-09 6.58064e-09)
(-1.81971e-10 -4.18253e-09 6.6963e-09)
(-1.34761e-08 -1.68379e-10 6.15315e-09)
(1.52047e-08 -6.17424e-09 1.06591e-08)
(1.31068e-09 -8.27793e-09 1.15391e-08)
(4.0021e-10 -8.88167e-09 1.17092e-08)
(-1.29344e-08 -7.99373e-09 1.11499e-08)
(1.4917e-08 -1.17907e-08 1.53953e-08)
(1.44702e-09 -1.32897e-08 1.62972e-08)
(1.62943e-09 -1.40732e-08 1.65127e-08)
(-1.1275e-08 -1.41371e-08 1.6023e-08)
(1.57292e-08 -1.63185e-08 1.95721e-08)
(2.05364e-09 -1.85702e-08 2.04699e-08)
(2.71836e-09 -1.95232e-08 2.07244e-08)
(-1.03679e-08 -1.91676e-08 2.0319e-08)
(1.9066e-08 -2.02673e-08 2.28834e-08)
(3.73139e-09 -2.37063e-08 2.37782e-08)
(3.05398e-09 -2.48271e-08 2.40645e-08)
(-1.16698e-08 -2.36055e-08 2.37288e-08)
(2.67045e-08 -2.66055e-08 2.50348e-08)
(6.93502e-09 -2.96231e-08 2.59398e-08)
(2.14936e-09 -3.08995e-08 2.62465e-08)
(-1.70187e-08 -3.04037e-08 2.59473e-08)
(3.82217e-08 -5.45781e-08 2.58027e-08)
(1.05175e-08 -5.20174e-08 2.67553e-08)
(1.04206e-09 -5.32612e-08 2.70631e-08)
(-2.60856e-08 -5.83916e-08 2.67291e-08)
(8.86316e-09 8.10321e-09 1.23549e-09)
(-4.59877e-10 -1.35991e-10 1.41581e-09)
(4.64266e-10 -2.73501e-10 1.44599e-09)
(-8.44288e-09 7.49246e-09 1.32154e-09)
(1.42691e-08 6.29727e-10 4.25956e-09)
(7.97871e-10 -4.10215e-09 4.60725e-09)
(-2.18415e-10 -4.47667e-09 4.68462e-09)
(-1.3148e-08 -5.52851e-10 4.47956e-09)
(1.47964e-08 -6.80552e-09 7.60136e-09)
(1.23179e-09 -8.86632e-09 8.00214e-09)
(2.92848e-10 -9.44099e-09 8.11668e-09)
(-1.27347e-08 -8.53115e-09 7.93028e-09)
(1.45922e-08 -1.25194e-08 1.09057e-08)
(1.3719e-09 -1.40166e-08 1.13116e-08)
(1.43378e-09 -1.47689e-08 1.14576e-08)
(-1.12401e-08 -1.47681e-08 1.13296e-08)
(1.54632e-08 -1.69798e-08 1.38391e-08)
(1.97599e-09 -1.92326e-08 1.424e-08)
(2.44802e-09 -2.01554e-08 1.44134e-08)
(-1.04669e-08 -1.97356e-08 1.43472e-08)
(1.88121e-08 -2.07813e-08 1.61462e-08)
(3.63459e-09 -2.42133e-08 1.65486e-08)
(2.73541e-09 -2.53063e-08 1.67446e-08)
(-1.18463e-08 -2.40348e-08 1.67249e-08)
(2.63996e-08 -2.70072e-08 1.76575e-08)
(6.79906e-09 -3.00342e-08 1.80748e-08)
(1.81224e-09 -3.12858e-08 1.82852e-08)
(-1.71993e-08 -3.07312e-08 1.82847e-08)
(3.78146e-08 -5.45918e-08 1.83151e-08)
(1.03444e-08 -5.21352e-08 1.87677e-08)
(6.92471e-10 -5.33578e-08 1.89788e-08)
(-2.62106e-08 -5.8342e-08 1.89525e-08)
(8.71938e-09 7.92463e-09 7.81471e-10)
(-4.53622e-10 -1.88392e-10 8.5961e-10)
(4.43916e-10 -3.20669e-10 8.76911e-10)
(-8.3254e-09 7.33831e-09 8.30482e-10)
(1.40709e-08 4.37614e-10 2.59551e-09)
(7.86176e-10 -4.22714e-09 2.74458e-09)
(-2.65609e-10 -4.58748e-09 2.78905e-09)
(-1.30243e-08 -6.95989e-10 2.72125e-09)
(1.46348e-08 -7.03518e-09 4.55666e-09)
(1.21634e-09 -9.07972e-09 4.72683e-09)
(1.9609e-10 -9.63526e-09 4.79289e-09)
(-1.2699e-08 -8.6995e-09 4.74552e-09)
(1.44799e-08 -1.28045e-08 6.4924e-09)
(1.35754e-09 -1.4303e-08 6.66306e-09)
(1.28117e-09 -1.50345e-08 6.74758e-09)
(-1.13066e-08 -1.49881e-08 6.73708e-09)
(1.53822e-08 -1.72973e-08 8.21719e-09)
(1.95675e-09 -1.95488e-08 8.38536e-09)
(2.24863e-09 -2.04511e-08 8.48613e-09)
(-1.06149e-08 -1.99899e-08 8.51194e-09)
(1.87308e-08 -2.11188e-08 9.57966e-09)
(3.59952e-09 -2.45408e-08 9.75103e-09)
(2.5057e-09 -2.56148e-08 9.86528e-09)
(-1.20389e-08 -2.43144e-08 9.91677e-09)
(2.62786e-08 -2.73603e-08 1.0491e-08)
(6.73643e-09 -3.03811e-08 1.06743e-08)
(1.57009e-09 -3.16159e-08 1.07972e-08)
(-1.73904e-08 -3.10335e-08 1.08575e-08)
(3.7625e-08 -5.47438e-08 1.09353e-08)
(1.02557e-08 -5.23268e-08 1.1139e-08)
(4.42168e-10 -5.3535e-08 1.12623e-08)
(-2.63659e-08 -5.84507e-08 1.13081e-08)
(8.65689e-09 7.84826e-09 2.66421e-10)
(-4.50353e-10 -2.10296e-10 2.88555e-10)
(4.3437e-10 -3.40016e-10 2.94193e-10)
(-8.27495e-09 7.2736e-09 2.82334e-10)
(1.39862e-08 3.67405e-10 8.71339e-10)
(7.82244e-10 -4.27009e-09 9.13249e-10)
(-2.88777e-10 -4.62349e-09 9.27756e-10)
(-1.29741e-08 -7.42431e-10 9.12227e-10)
(1.45673e-08 -7.10692e-09 1.51791e-09)
(1.2108e-09 -9.14576e-09 1.56547e-09)
(1.49053e-10 -9.69188e-09 1.58706e-09)
(-1.26907e-08 -8.74114e-09 1.57946e-09)
(1.44341e-08 -1.28994e-08 2.15431e-09)
(1.3516e-09 -1.43987e-08 2.20179e-09)
(1.20773e-09 -1.51199e-08 2.22947e-09)
(-1.13458e-08 -1.50506e-08 2.23427e-09)
(1.53488e-08 -1.74257e-08 2.72222e-09)
(1.94712e-09 -1.96758e-08 2.7691e-09)
(2.15306e-09 -2.05678e-08 2.80215e-09)
(-1.06917e-08 -2.00867e-08 2.81879e-09)
(1.86948e-08 -2.12853e-08 3.17287e-09)
(3.58109e-09 -2.47007e-08 3.22125e-09)
(2.39555e-09 -2.57651e-08 3.2588e-09)
(-1.21357e-08 -2.44517e-08 3.28356e-09)
(2.62221e-08 -2.75553e-08 3.47843e-09)
(6.70412e-09 -3.05693e-08 3.53126e-09)
(1.4534e-09 -3.17956e-08 3.5717e-09)
(-1.74864e-08 -3.12029e-08 3.59897e-09)
(3.75347e-08 -5.48545e-08 3.635e-09)
(1.02101e-08 -5.24481e-08 3.69438e-09)
(3.21325e-10 -5.36491e-08 3.73495e-09)
(-2.64449e-08 -5.85395e-08 3.75766e-09)
)
;

boundaryField
{
    interface
    {
        type            solidTraction;
        traction        nonuniform List<vector> 
192
(
(45.8236 -0.35784 -2.96679)
(47.6654 -0.255728 -4.72831)
(49.074 0.0619178 -5.26829)
(49.9332 0.480951 -5.3684)
(50.1085 0.837852 -5.27289)
(50.9261 1.48764 -5.10196)
(49.2759 1.97209 -4.67768)
(52.7559 4.3628 -4.34243)
(44.5993 -0.255986 -1.46712)
(45.478 -0.169318 -2.51004)
(46.3146 0.119664 -2.76846)
(46.8969 0.551747 -2.76445)
(46.8517 0.933793 -2.64866)
(47.5896 1.65497 -2.4908)
(45.6782 2.19391 -2.21723)
(49.3133 4.71126 -1.99449)
(47.2614 -0.220392 -1.15911)
(48.041 -0.128304 -1.96222)
(48.8697 0.159628 -2.15732)
(49.4623 0.620263 -2.14962)
(49.324 1.04384 -2.05607)
(49.9679 1.84862 -1.92859)
(47.5952 2.46943 -1.72703)
(51.0034 5.16167 -1.55338)
(47.4527 -0.168299 -0.713712)
(48.0401 -0.0566536 -1.27587)
(48.6927 0.232572 -1.40539)
(49.1849 0.703317 -1.38784)
(48.9393 1.14663 -1.3112)
(49.5141 1.98904 -1.2136)
(46.9819 2.647 -1.08309)
(50.342 5.38703 -0.974844)
(48.2489 -0.143958 -0.523441)
(48.7778 -0.0132543 -0.935969)
(49.3531 0.285517 -1.03177)
(49.7988 0.768931 -1.01893)
(49.4793 1.23228 -0.962519)
(49.9804 2.10681 -0.889898)
(47.2713 2.79895 -0.797668)
(50.4985 5.58563 -0.718869)
(48.4513 -0.124853 -0.321475)
(48.9285 0.021468 -0.593198)
(49.4354 0.328323 -0.656742)
(49.8368 0.819358 -0.646896)
(49.4653 1.29417 -0.608336)
(49.9232 2.18551 -0.559601)
(47.1309 2.89578 -0.502057)
(50.3097 5.70673 -0.454185)
(48.7118 -0.115811 -0.189033)
(49.1701 0.0412072 -0.348316)
(49.6412 0.355148 -0.385927)
(50.018 0.852294 -0.38039)
(49.6128 1.33571 -0.35814)
(50.0371 2.23867 -0.329404)
(47.179 2.96179 -0.296694)
(50.3087 5.79054 -0.268104)
(48.7736 -0.110065 -0.056205)
(49.2187 0.0523246 -0.107255)
(49.6697 0.369234 -0.119463)
(50.0329 0.868512 -0.117488)
(49.6136 1.35549 -0.110267)
(50.0225 2.26287 -0.100923)
(47.1446 2.9919 -0.0910805)
(50.2496 5.82819 -0.0820609)
(4.2465 0.945175 17.6339)
(7.09253 1.05253 13.1629)
(8.06025 0.816915 9.52896)
(8.33353 0.571452 8.34674)
(8.37857 0.47428 8.37922)
(8.41921 0.518067 9.3618)
(8.48662 0.640001 11.5119)
(9.20403 0.856506 13.3805)
(2.63439 0.551272 22.374)
(4.94289 0.746451 21.3587)
(5.65411 0.572872 20.2029)
(5.81571 0.31328 19.9057)
(5.84259 0.155045 19.9548)
(5.92629 0.0773555 20.3562)
(6.16426 0.0931485 21.0728)
(7.13493 0.179188 21.566)
(2.71177 0.381297 19.4173)
(5.11493 0.550731 18.6393)
(5.89203 0.407504 17.5801)
(6.07833 0.141232 17.2736)
(6.09523 -0.0544447 17.3427)
(6.13625 -0.212715 17.7247)
(6.29913 -0.303695 18.5136)
(7.20609 -0.311596 19.4133)
(3.11471 0.301915 19.9169)
(5.96905 0.433085 19.4454)
(6.94818 0.290375 18.5686)
(7.19898 0.0133299 18.3726)
(7.21605 -0.194335 18.4957)
(7.25786 -0.391836 18.7905)
(7.34032 -0.543577 19.3436)
(8.26546 -0.694968 20.0133)
(-9.45303 0.89867 1.04982)
(-6.03823 0.940724 1.96755)
(-3.30058 0.478806 2.22816)
(-2.13213 -0.0986433 2.30844)
(-1.9609 -0.395904 2.3366)
(-0.789723 -0.825576 2.51548)
(-1.86487 -0.796221 2.62179)
(6.98846 -3.04804 3.14775)
(-14.9012 0.358679 -0.178778)
(-14.1915 0.376504 0.0199441)
(-13.4229 0.121697 -0.00336409)
(-12.8974 -0.235439 -0.0134784)
(-12.8254 -0.355041 0.0307269)
(-11.2579 -0.644399 0.242664)
(-11.5226 -0.372773 0.492312)
(-1.81285 -2.5364 0.938064)
(-15.1208 0.19831 0.0182712)
(-14.5923 0.16485 0.310188)
(-13.9723 -0.0031065 0.396167)
(-13.3527 -0.259547 0.438533)
(-13.16 -0.279732 0.493564)
(-11.1893 -0.497463 0.65071)
(-11.1291 -0.115131 0.804268)
(-0.544945 -2.42635 1.03038)
(-16.7131 0.0961406 -0.0496494)
(-16.4501 0.0263178 0.194883)
(-16.1188 -0.0849519 0.283779)
(-15.5247 -0.259802 0.326162)
(-15.2562 -0.192312 0.37179)
(-12.9579 -0.342497 0.485287)
(-12.5139 0.120115 0.587673)
(-1.3726 -2.24542 0.720653)
(-16.974 0.0797166 0.0502437)
(-16.71 -0.00435295 0.282781)
(-16.3915 -0.0965607 0.38063)
(-15.728 -0.2417 0.424779)
(-15.382 -0.135136 0.45812)
(-12.8973 -0.26001 0.525282)
(-12.3049 0.230164 0.570802)
(-0.856543 -2.21186 0.62249)
(-17.4483 0.0735738 0.0313201)
(-17.1968 -0.0153463 0.198002)
(-16.8939 -0.0967352 0.272452)
(-16.1901 -0.224513 0.305415)
(-15.7872 -0.0921241 0.328315)
(-13.1609 -0.200252 0.370344)
(-12.4396 0.307469 0.39561)
(-0.768287 -2.17949 0.422302)
(-17.5634 0.0761368 0.0361138)
(-17.2994 -0.0136238 0.140845)
(-16.9834 -0.0908611 0.188101)
(-16.245 -0.212368 0.208568)
(-15.8063 -0.0685373 0.221689)
(-13.1037 -0.170582 0.243002)
(-12.3247 0.343424 0.25366)
(-0.525622 -2.17655 0.262238)
(-17.6786 0.0762979 0.00708449)
(-17.4139 -0.0133472 0.0404918)
(-17.0941 -0.0879858 0.056098)
(-16.3407 -0.205914 0.0628682)
(-15.8819 -0.056288 0.067489)
(-13.1409 -0.154604 0.074617)
(-12.3229 0.362405 0.078911)
(-0.465165 -2.1721 0.0818423)
(9.24558 -12.9615 -0.756731)
(8.55167 -10.8737 -0.537113)
(8.52328 -8.26895 -0.371255)
(8.54271 -6.61022 -0.240116)
(8.62111 -5.32987 -0.174638)
(8.66987 -4.42931 -0.10737)
(8.71163 -3.85809 -0.0653524)
(8.72971 -3.58311 -0.0194823)
(7.15345 -21.2223 -0.0611644)
(6.1851 -20.6115 0.0295444)
(5.95196 -19.6095 0.0954185)
(5.87084 -18.8641 0.104341)
(5.8636 -18.2335 0.088421)
(5.85705 -17.772 0.0684837)
(5.86224 -17.4697 0.0408748)
(5.86322 -17.3114 0.0149604)
(7.22263 -19.0844 0.440124)
(6.3085 -18.062 0.438166)
(6.14493 -16.9909 0.39784)
(6.11055 -16.2631 0.321442)
(6.12992 -15.6198 0.249973)
(6.13904 -15.1895 0.174817)
(6.15258 -14.8921 0.103702)
(6.15668 -14.7551 0.0342251)
(8.25793 -19.7179 0.824803)
(7.32346 -18.9519 0.679569)
(7.23721 -18.1877 0.571871)
(7.2083 -17.6579 0.445841)
(7.25001 -17.1333 0.34504)
(7.26828 -16.81 0.237409)
(7.29118 -16.5695 0.142206)
(7.29924 -16.4603 0.0463398)
)
;
        pressure        uniform 0;
        secondOrder     false;
        setEffectiveTraction false;
        relaxationFactor 1;
        value           nonuniform List<vector> 
192
(
(7.97298e-08 4.79751e-08 2.19047e-08)
(8.91541e-08 2.99036e-08 4.04956e-08)
(9.19249e-08 1.54873e-08 4.99071e-08)
(9.3363e-08 6.2341e-09 5.69811e-08)
(9.63757e-08 -9.63705e-10 6.39876e-08)
(1.02688e-07 -7.86979e-09 7.21342e-08)
(1.13973e-07 -1.94535e-08 8.24664e-08)
(1.31593e-07 -6.21529e-08 9.39739e-08)
(6.4348e-08 2.62266e-08 8.46234e-10)
(7.1413e-08 1.49161e-08 1.12159e-08)
(7.30593e-08 5.793e-09 2.03169e-08)
(7.39441e-08 -1.15655e-09 2.73327e-08)
(7.66179e-08 -7.35637e-09 3.36831e-08)
(8.28629e-08 -1.32773e-08 4.03621e-08)
(9.47352e-08 -2.19928e-08 4.71928e-08)
(1.14737e-07 -5.71886e-08 5.12602e-08)
(5.44448e-08 1.83281e-08 1.32921e-10)
(6.03751e-08 7.05727e-09 6.97105e-09)
(6.16819e-08 -1.00354e-09 1.49986e-08)
(6.24388e-08 -6.72784e-09 2.20135e-08)
(6.50236e-08 -1.15705e-08 2.81441e-08)
(7.133e-08 -1.56613e-08 3.37321e-08)
(8.35621e-08 -2.17378e-08 3.81703e-08)
(1.04185e-07 -5.33567e-08 3.95517e-08)
(4.9063e-08 1.55534e-08 1.02224e-09)
(5.42324e-08 3.83801e-09 6.28379e-09)
(5.54994e-08 -4.56906e-09 1.27334e-08)
(5.63448e-08 -1.00336e-08 1.8874e-08)
(5.89932e-08 -1.39991e-08 2.42392e-08)
(6.53761e-08 -1.67987e-08 2.86634e-08)
(7.77184e-08 -2.15519e-08 3.16566e-08)
(9.83679e-08 -5.16534e-08 3.24568e-08)
(4.62458e-08 1.44188e-08 1.30148e-09)
(5.10844e-08 2.59988e-09 5.41409e-09)
(5.24076e-08 -6.12584e-09 1.02652e-08)
(5.3386e-08 -1.16594e-08 1.50495e-08)
(5.61337e-08 -1.5281e-08 1.92617e-08)
(6.25661e-08 -1.75231e-08 2.25846e-08)
(7.4886e-08 -2.18161e-08 2.47139e-08)
(9.53776e-08 -5.11637e-08 2.54256e-08)
(4.4715e-08 1.38863e-08 1.12313e-09)
(4.94455e-08 2.11305e-09 4.09629e-09)
(5.08375e-08 -6.72471e-09 7.45878e-09)
(5.19202e-08 -1.23525e-08 1.07963e-08)
(5.47424e-08 -1.59246e-08 1.37522e-08)
(6.1192e-08 -1.80469e-08 1.60623e-08)
(7.3449e-08 -2.22561e-08 1.75509e-08)
(9.37769e-08 -5.11941e-08 1.81658e-08)
(4.38812e-08 1.36222e-08 7.29873e-10)
(4.85757e-08 1.91647e-09 2.52472e-09)
(5.00156e-08 -6.93286e-09 4.49932e-09)
(5.11608e-08 -1.26175e-08 6.45282e-09)
(5.40244e-08 -1.62343e-08 8.18854e-09)
(6.04739e-08 -1.83943e-08 9.5503e-09)
(7.26751e-08 -2.26363e-08 1.04465e-08)
(9.28867e-08 -5.13623e-08 1.08653e-08)
(4.3506e-08 1.3509e-08 2.50789e-10)
(4.81863e-08 1.84503e-09 8.50154e-10)
(4.96481e-08 -6.99489e-09 1.50103e-09)
(5.08211e-08 -1.27038e-08 2.14285e-09)
(5.37017e-08 -1.63603e-08 2.71387e-09)
(6.01478e-08 -1.85666e-08 3.16387e-09)
(7.23185e-08 -2.28448e-08 3.46429e-09)
(9.24718e-08 -5.14825e-08 3.61243e-09)
(2.23422e-08 5.0398e-08 8.35486e-08)
(3.57754e-08 3.35319e-08 9.93427e-08)
(3.75181e-08 1.93052e-08 1.1007e-07)
(3.7261e-08 9.59672e-09 1.18932e-07)
(3.81242e-08 1.75409e-09 1.28139e-07)
(4.1486e-08 -5.98338e-09 1.39213e-07)
(4.90119e-08 -1.87063e-08 1.53292e-07)
(6.04212e-08 -6.25017e-08 1.71181e-07)
(1.75843e-09 3.49451e-08 7.54662e-08)
(5.95406e-09 2.51936e-08 9.0977e-08)
(7.23062e-09 1.605e-08 1.00863e-07)
(7.50917e-09 7.72941e-09 1.09087e-07)
(8.21569e-09 -6.6236e-10 1.17857e-07)
(1.00129e-08 -9.44947e-09 1.28699e-07)
(1.33707e-08 -2.1491e-08 1.43206e-07)
(1.72223e-08 -5.99441e-08 1.63683e-07)
(-1.26129e-09 3.47721e-08 7.48326e-08)
(-3.8365e-09 2.479e-08 9.05067e-08)
(-3.21948e-09 1.54251e-08 1.00507e-07)
(-1.41042e-09 6.9082e-09 1.08816e-07)
(1.71975e-10 -1.66302e-09 1.1765e-07)
(8.73289e-10 -1.06253e-08 1.28543e-07)
(2.09362e-10 -2.28361e-08 1.43092e-07)
(-8.5852e-10 -6.12859e-08 1.63635e-07)
(-2.13524e-08 4.95866e-08 8.18655e-08)
(-3.30257e-08 3.21058e-08 9.82209e-08)
(-3.28992e-08 1.72922e-08 1.09287e-07)
(-3.05665e-08 7.03687e-09 1.184e-07)
(-2.91379e-08 -1.31026e-09 1.27801e-07)
(-3.0006e-08 -9.53388e-09 1.39028e-07)
(-3.48758e-08 -2.27367e-08 1.53237e-07)
(-4.35378e-08 -6.66208e-08 1.71326e-07)
(-7.58563e-08 4.60825e-08 2.21724e-08)
(-8.36281e-08 2.74134e-08 4.14334e-08)
(-8.45983e-08 1.23679e-08 5.13808e-08)
(-8.39981e-08 2.49408e-09 5.88489e-08)
(-8.47431e-08 -5.29317e-09 6.61538e-08)
(-8.85897e-08 -1.27648e-08 7.45402e-08)
(-9.72864e-08 -2.4877e-08 8.50715e-08)
(-1.12264e-07 -6.76689e-08 9.67122e-08)
(-6.05419e-08 2.46127e-08 1.27622e-09)
(-6.63079e-08 1.25787e-08 1.22523e-08)
(-6.63985e-08 2.76063e-09 2.18225e-08)
(-6.54212e-08 -4.83419e-09 2.92032e-08)
(-6.59486e-08 -1.16356e-08 3.58392e-08)
(-6.98043e-08 -1.81279e-08 4.27449e-08)
(-7.91393e-08 -2.73645e-08 4.97456e-08)
(-9.65833e-08 -6.262e-08 5.3897e-08)
(-5.08654e-08 1.69517e-08 4.56982e-10)
(-5.57049e-08 4.96331e-09 7.77082e-09)
(-5.56504e-08 -3.82384e-09 1.61728e-08)
(-5.47072e-08 -1.02271e-08 2.3495e-08)
(-5.52686e-08 -1.5699e-08 2.98782e-08)
(-5.92697e-08 -2.03806e-08 3.56686e-08)
(-6.9014e-08 -2.69857e-08 4.02518e-08)
(-8.71118e-08 -5.86565e-08 4.16933e-08)
(-4.5686e-08 1.43516e-08 1.25344e-09)
(-4.99309e-08 1.96087e-09 6.86934e-09)
(-4.99896e-08 -7.16983e-09 1.36061e-08)
(-4.9271e-08 -1.33311e-08 1.99918e-08)
(-5.00077e-08 -1.79498e-08 2.55664e-08)
(-5.41687e-08 -2.13622e-08 3.01617e-08)
(-6.40768e-08 -2.66609e-08 3.32769e-08)
(-8.22312e-08 -5.68253e-08 3.41258e-08)
(-4.30102e-08 1.33406e-08 1.46124e-09)
(-4.70442e-08 8.89506e-10 5.82538e-09)
(-4.72739e-08 -8.54401e-09 1.08866e-08)
(-4.67957e-08 -1.47787e-08 1.5856e-08)
(-4.77249e-08 -1.9069e-08 2.02308e-08)
(-5.20097e-08 -2.19428e-08 2.36895e-08)
(-6.19489e-08 -2.67997e-08 2.59167e-08)
(-7.99797e-08 -5.62257e-08 2.66683e-08)
(-4.15682e-08 1.28902e-08 1.22717e-09)
(-4.55736e-08 5.20102e-10 4.36664e-09)
(-4.59523e-08 -9.00813e-09 7.87147e-09)
(-4.56569e-08 -1.53351e-08 1.13375e-08)
(-4.67318e-08 -1.95841e-08 1.4409e-08)
(-5.10934e-08 -2.23518e-08 1.68172e-08)
(-6.10153e-08 -2.71401e-08 1.83777e-08)
(-7.89145e-08 -5.61701e-08 1.90226e-08)
(-4.07858e-08 1.26757e-08 7.88506e-10)
(-4.48028e-08 3.97409e-10 2.67782e-09)
(-4.52796e-08 -9.12894e-09 4.73454e-09)
(-4.50978e-08 -1.55091e-08 6.76354e-09)
(-4.62619e-08 -1.98069e-08 8.56817e-09)
(-5.06647e-08 -2.26206e-08 9.98917e-09)
(-6.05637e-08 -2.74517e-08 1.09293e-08)
(-7.83707e-08 -5.62794e-08 1.13667e-08)
(-4.04342e-08 1.25859e-08 2.69724e-10)
(-4.44591e-08 3.61499e-10 8.997e-10)
(-4.4982e-08 -9.14824e-09 1.57739e-09)
(-4.4853e-08 -1.55504e-08 2.24408e-09)
(-4.60581e-08 -1.98893e-08 2.83798e-09)
(-5.04784e-08 -2.27531e-08 3.30779e-09)
(-6.03641e-08 -2.76255e-08 3.62297e-09)
(-7.81254e-08 -5.63697e-08 3.77741e-09)
(6.0769e-08 -1.39749e-07 9.72381e-08)
(5.01078e-08 -1.28421e-07 5.34215e-08)
(4.32865e-08 -1.2089e-07 4.06365e-08)
(4.03461e-08 -1.16384e-07 3.29348e-08)
(3.92902e-08 -1.13972e-07 2.56817e-08)
(3.89007e-08 -1.12758e-07 1.83565e-08)
(3.87129e-08 -1.12185e-07 1.1001e-08)
(3.86205e-08 -1.1196e-07 3.66268e-09)
(1.75611e-08 -1.32925e-07 9.40204e-08)
(1.44492e-08 -1.19041e-07 5.5588e-08)
(1.18181e-08 -1.11127e-07 4.35827e-08)
(1.06079e-08 -1.06868e-07 3.48949e-08)
(1.01893e-08 -1.04763e-07 2.67095e-08)
(1.00369e-08 -1.03741e-07 1.8845e-08)
(9.95452e-09 -1.03257e-07 1.12172e-08)
(9.90975e-09 -1.03063e-07 3.7247e-09)
(-5.10718e-10 -1.33555e-07 9.46892e-08)
(1.28e-09 -1.19619e-07 5.6268e-08)
(2.7239e-09 -1.11678e-07 4.41172e-08)
(2.96618e-09 -1.07393e-07 3.52991e-08)
(2.63662e-09 -1.05265e-07 2.70054e-08)
(2.24517e-09 -1.04224e-07 1.90473e-08)
(1.97415e-09 -1.03726e-07 1.13352e-08)
(1.84521e-09 -1.03525e-07 3.76347e-09)
(-4.31833e-08 -1.41943e-07 9.93143e-08)
(-3.38135e-08 -1.30451e-07 5.54223e-08)
(-2.81507e-08 -1.22836e-07 4.22137e-08)
(-2.61804e-08 -1.18249e-07 3.41417e-08)
(-2.58848e-08 -1.15764e-07 2.65719e-08)
(-2.60493e-08 -1.14492e-07 1.89672e-08)
(-2.62214e-08 -1.13879e-07 1.13575e-08)
(-2.6306e-08 -1.13633e-07 3.77989e-09)
)
;
        gradient        nonuniform List<vector> 
192
(
(4.61422e-06 1.14351e-06 -1.36558e-07)
(4.32244e-06 2.94957e-07 -2.20722e-07)
(4.40998e-06 2.91151e-08 -2.3718e-07)
(4.5427e-06 1.37929e-08 -2.40015e-07)
(4.7109e-06 8.6388e-08 -2.4192e-07)
(4.94318e-06 2.18734e-07 -2.42985e-07)
(5.24379e-06 3.76166e-07 -2.42174e-07)
(5.751e-06 2.6821e-07 -2.39518e-07)
(3.88334e-06 8.24007e-07 -2.06342e-07)
(3.6815e-06 2.11483e-07 -3.24429e-07)
(3.73431e-06 1.10243e-08 -3.46172e-07)
(3.8399e-06 5.72383e-09 -3.51385e-07)
(3.99613e-06 7.96628e-08 -3.56215e-07)
(4.2348e-06 2.16554e-07 -3.59293e-07)
(4.57938e-06 3.84755e-07 -3.56687e-07)
(5.24578e-06 2.7123e-07 -3.47603e-07)
(3.41671e-06 6.12792e-07 -1.18117e-07)
(3.31771e-06 1.55146e-07 -1.89873e-07)
(3.37509e-06 2.16368e-09 -2.00209e-07)
(3.47416e-06 3.75006e-09 -1.99445e-07)
(3.62746e-06 7.84784e-08 -1.99263e-07)
(3.87159e-06 2.18261e-07 -1.98455e-07)
(4.23759e-06 3.87857e-07 -1.96223e-07)
(4.94869e-06 2.73157e-07 -1.96847e-07)
(3.13295e-06 5.16059e-07 -5.13568e-08)
(3.06644e-06 1.29406e-07 -8.36206e-08)
(3.13023e-06 1.45648e-09 -8.57913e-08)
(3.22962e-06 6.67053e-09 -8.19157e-08)
(3.3831e-06 8.06527e-08 -7.90411e-08)
(3.62957e-06 2.19594e-07 -7.73975e-08)
(4.00284e-06 3.86363e-07 -7.77683e-08)
(4.7236e-06 2.73798e-07 -8.21037e-08)
(2.96618e-06 4.77842e-07 -2.07663e-08)
(2.90886e-06 1.20722e-07 -3.26681e-08)
(2.97623e-06 3.87162e-09 -3.15141e-08)
(3.07752e-06 1.0501e-08 -2.76618e-08)
(3.23236e-06 8.29969e-08 -2.48392e-08)
(3.48001e-06 2.19535e-07 -2.38995e-08)
(3.85452e-06 3.83152e-07 -2.56754e-08)
(4.57246e-06 2.73155e-07 -3.01753e-08)
(2.86815e-06 4.62644e-07 -8.98863e-09)
(2.81411e-06 1.18666e-07 -1.30622e-08)
(2.88329e-06 6.46506e-09 -1.1407e-08)
(2.98624e-06 1.3346e-08 -8.75033e-09)
(3.14234e-06 8.44153e-08 -6.94873e-09)
(3.3904e-06 2.18758e-07 -6.71161e-09)
(3.76395e-06 3.80088e-07 -8.52517e-09)
(4.47699e-06 2.71818e-07 -1.19416e-08)
(2.81294e-06 4.55803e-07 -4.12786e-09)
(2.76039e-06 1.18308e-07 -5.66352e-09)
(2.83047e-06 8.18509e-09 -4.58704e-09)
(2.93448e-06 1.49597e-08 -3.16678e-09)
(3.09138e-06 8.50358e-08 -2.29181e-09)
(3.33945e-06 2.17958e-07 -2.34911e-09)
(3.71172e-06 3.77923e-07 -3.55444e-09)
(4.42094e-06 2.70519e-07 -5.60082e-09)
(2.78793e-06 4.5286e-07 -1.25052e-09)
(2.73601e-06 1.1821e-07 -1.69481e-09)
(2.80646e-06 8.96274e-09 -1.35017e-09)
(2.91097e-06 1.56415e-08 -9.17477e-10)
(3.06823e-06 8.52331e-08 -6.68433e-10)
(3.31623e-06 2.17496e-07 -7.2018e-10)
(3.68771e-06 3.76837e-07 -1.1313e-09)
(4.39497e-06 2.69761e-07 -1.80617e-09)
(2.32029e-08 1.33734e-06 4.79495e-06)
(5.21502e-08 5.85216e-07 4.48705e-06)
(5.74362e-08 3.34543e-07 4.57583e-06)
(5.45357e-08 2.82803e-07 4.71608e-06)
(5.07763e-08 3.03811e-07 4.89023e-06)
(4.70297e-08 3.69647e-07 5.12332e-06)
(4.69342e-08 4.35937e-07 5.42389e-06)
(5.72875e-08 2.40303e-07 5.93701e-06)
(-4.43175e-08 1.2339e-06 4.32888e-06)
(-5.41387e-08 5.69084e-07 4.051e-06)
(-5.42706e-08 3.27263e-07 4.08436e-06)
(-5.65579e-08 2.73765e-07 4.19079e-06)
(-5.97587e-08 2.94815e-07 4.34879e-06)
(-6.28212e-08 3.65671e-07 4.5805e-06)
(-6.1483e-08 4.47911e-07 4.91402e-06)
(-4.91262e-08 2.48442e-07 5.58755e-06)
(4.90763e-08 1.23878e-06 4.27508e-06)
(7.25741e-08 5.75216e-07 3.99698e-06)
(8.37463e-08 3.32107e-07 4.02822e-06)
(9.40463e-08 2.77307e-07 4.13331e-06)
(1.03267e-07 2.9754e-07 4.29044e-06)
(1.11191e-07 3.67909e-07 4.52128e-06)
(1.13938e-07 4.49604e-07 4.85411e-06)
(1.04239e-07 2.49115e-07 5.53027e-06)
(-1.70898e-08 1.35544e-06 4.64467e-06)
(-3.27721e-08 6.03709e-07 4.34049e-06)
(-2.76131e-08 3.48719e-07 4.42356e-06)
(-1.69508e-08 2.9328e-07 4.55996e-06)
(-7.27558e-09 3.11954e-07 4.73158e-06)
(1.20133e-09 3.76334e-07 4.96236e-06)
(5.181e-09 4.40937e-07 5.26106e-06)
(-2.45721e-09 2.42185e-07 5.78244e-06)
(-4.3774e-06 1.07511e-06 -1.30784e-07)
(-4.08096e-06 2.28316e-07 -2.02515e-07)
(-4.16354e-06 -4.52225e-08 -2.08918e-07)
(-4.29148e-06 -7.01434e-08 -2.04131e-07)
(-4.4557e-06 -6.67819e-09 -2.00199e-07)
(-4.6855e-06 1.17861e-07 -1.96661e-07)
(-4.98767e-06 2.69711e-07 -1.92142e-07)
(-5.50053e-06 1.58338e-07 -1.86676e-07)
(-3.64126e-06 7.66694e-07 -2.00949e-07)
(-3.43996e-06 1.5542e-07 -3.087e-07)
(-3.48812e-06 -5.47582e-08 -3.21629e-07)
(-3.58807e-06 -7.15959e-08 -3.19747e-07)
(-3.7385e-06 -8.28647e-09 -3.18983e-07)
(-3.97185e-06 1.19688e-07 -3.17686e-07)
(-4.31497e-06 2.81522e-07 -3.11643e-07)
(-4.98806e-06 1.63809e-07 -2.99735e-07)
(-3.18191e-06 5.65452e-07 -1.1326e-07)
(-3.08192e-06 1.07624e-07 -1.76977e-07)
(-3.13423e-06 -5.62754e-08 -1.80171e-07)
(-3.22719e-06 -6.75001e-08 -1.73233e-07)
(-3.37367e-06 -4.61895e-09 -1.67938e-07)
(-3.61066e-06 1.252e-07 -1.63043e-07)
(-3.97247e-06 2.87662e-07 -1.57592e-07)
(-4.68737e-06 1.68439e-07 -1.55555e-07)
(-2.90583e-06 4.76449e-07 -4.77719e-08)
(-2.83773e-06 8.85003e-08 -7.40954e-08)
(-2.89611e-06 -5.10184e-08 -7.07581e-08)
(-2.98901e-06 -5.93649e-08 -6.18398e-08)
(-3.13501e-06 1.90313e-09 -5.45908e-08)
(-3.3732e-06 1.30035e-07 -4.93286e-08)
(-3.74037e-06 2.89011e-07 -4.67799e-08)
(-4.46216e-06 1.71659e-07 -4.86726e-08)
(-2.74458e-06 4.43581e-07 -1.84045e-08)
(-2.68545e-06 8.46307e-08 -2.62218e-08)
(-2.74716e-06 -4.40227e-08 -2.10637e-08)
(-2.84165e-06 -5.13336e-08 -1.33596e-08)
(-2.98856e-06 7.89204e-09 -7.05747e-09)
(-3.22719e-06 1.33011e-07 -3.14121e-09)
(-3.59442e-06 2.8832e-07 -2.44896e-09)
(-4.31153e-06 1.73276e-07 -4.86314e-09)
(-2.65002e-06 4.31818e-07 -7.54939e-09)
(-2.59405e-06 8.58362e-08 -9.03402e-09)
(-2.65741e-06 -3.81582e-08 -4.70504e-09)
(-2.75334e-06 -4.53592e-08 6.35273e-10)
(-2.90119e-06 1.21215e-08 4.94435e-09)
(-3.13977e-06 1.34643e-07 7.38679e-09)
(-3.50528e-06 2.8729e-07 7.44054e-09)
(-4.21631e-06 1.73746e-07 5.6113e-09)
(-2.59683e-06 4.26994e-07 -3.35809e-09)
(-2.54228e-06 8.74718e-08 -3.47471e-09)
(-2.60645e-06 -3.43548e-08 -8.77925e-10)
(-2.7033e-06 -4.16846e-08 2.11622e-09)
(-2.85176e-06 1.46436e-08 4.49823e-09)
(-3.09007e-06 1.35507e-07 5.79222e-09)
(-3.45386e-06 2.86545e-07 5.74634e-09)