/*--------------------------------*- C++ -*----------------------------------*\
| =========                 |                                                 |
| \\      /  F ield         | OpenFOAM: The Open Source CFD Toolbox           |
|  \\    /   O peration     | Version:  v1912                                 |
|   \\  /    A nd           | Website:  www.openfoam.com                      |
|    \\/     M anipulation  |                                                 |
\*---------------------------------------------------------------------------*/
FoamFile
{
    version     2.0;
    format      ascii;
    class       volVectorField;
    location    "0.53/solid";
    object      D_0;
}
// * * * * * * * * * * * * * * * * * * * * * * * * * * * * * * * * * * * * * //

dimensions      [0 1 0 0 0 0 0];


internalField   nonuniform List<vector> 
256
(
(2.17431e-08 3.33755e-08 2.32577e-08)
(2.24539e-09 1.9344e-08 2.10363e-08)
(-1.79657e-09 1.91148e-08 2.10807e-08)
(-2.08354e-08 3.23563e-08 2.34702e-08)
(3.45804e-08 2.59903e-08 4.24708e-08)
(6.49528e-09 1.7954e-08 3.96059e-08)
(-4.5857e-09 1.74761e-08 3.98215e-08)
(-3.20733e-08 2.43389e-08 4.32139e-08)
(3.62192e-08 1.5123e-08 5.17949e-08)
(7.76384e-09 1.20012e-08 4.8788e-08)
(-4.08573e-09 1.1314e-08 4.91471e-08)
(-3.19607e-08 1.29249e-08 5.29569e-08)
(3.60155e-08 6.30335e-09 5.86541e-08)
(8.0859e-09 4.57227e-09 5.54411e-08)
(-2.40225e-09 3.70085e-09 5.59037e-08)
(-2.97606e-08 3.59254e-09 6.01208e-08)
(3.6928e-08 -1.54287e-09 6.54318e-08)
(8.84369e-09 -3.8095e-09 6.19972e-08)
(-9.22848e-10 -4.85404e-09 6.25371e-08)
(-2.84321e-08 -4.74006e-09 6.71291e-08)
(4.02734e-08 -9.7914e-09 7.33082e-08)
(1.06652e-08 -1.31486e-08 6.96736e-08)
(-2.77428e-10 -1.43659e-08 7.02759e-08)
(-2.93142e-08 -1.34672e-08 7.51925e-08)
(4.76239e-08 -2.2875e-08 8.33024e-08)
(1.3954e-08 -2.57739e-08 7.96854e-08)
(-8.87577e-10 -2.71578e-08 8.03408e-08)
(-3.40229e-08 -2.70216e-08 8.53445e-08)
(5.86671e-08 -6.349e-08 9.44844e-08)
(1.75945e-08 -6.11107e-08 9.14282e-08)
(-1.733e-09 -6.24854e-08 9.2119e-08)
(-4.23129e-08 -6.77073e-08 9.66293e-08)
(1.56299e-08 1.58271e-08 3.29477e-09)
(1.07329e-09 4.25619e-09 4.25066e-09)
(-7.96993e-10 4.06286e-09 4.37711e-09)
(-1.48594e-08 1.49407e-08 3.6641e-09)
(2.50745e-08 1.2295e-08 1.48503e-08)
(4.17497e-09 5.5034e-09 1.66984e-08)
(-2.72274e-09 5.01087e-09 1.69936e-08)
(-2.29999e-08 1.06595e-08 1.5708e-08)
(2.60424e-08 5.87551e-09 2.39567e-08)
(5.12781e-09 3.11946e-09 2.61299e-08)
(-2.14535e-09 2.40506e-09 2.65506e-08)
(-2.24628e-08 3.65539e-09 2.51811e-08)
(2.56288e-08 -7.87057e-10 3.07975e-08)
(5.36396e-09 -2.40872e-09 3.30506e-08)
(-5.69737e-10 -3.30316e-09 3.35665e-08)
(-2.02439e-08 -3.51898e-09 3.23036e-08)
(2.63572e-08 -7.66848e-09 3.69733e-08)
(6.05091e-09 -9.88417e-09 3.922e-08)
(8.24549e-10 -1.09455e-08 3.981e-08)
(-1.88789e-08 -1.08796e-08 3.86998e-08)
(2.95617e-08 -1.50237e-08 4.34488e-08)
(7.80655e-09 -1.83724e-08 4.56653e-08)
(1.40955e-09 -1.96004e-08 4.63145e-08)
(-1.97351e-08 -1.87049e-08 4.53518e-08)
(3.6949e-08 -2.54713e-08 5.00201e-08)
(1.10609e-08 -2.83403e-08 5.22371e-08)
(7.3361e-10 -2.97254e-08 5.29298e-08)
(-2.45723e-08 -2.96049e-08 5.20544e-08)
(4.83663e-08 -5.8689e-08 5.38567e-08)
(1.4686e-08 -5.57762e-08 5.61184e-08)
(-1.65836e-10 -5.7133e-08 5.68259e-08)
(-3.33121e-08 -6.28484e-08 5.59419e-08)
(1.16548e-08 1.06445e-08 1.54444e-09)
(6.79585e-11 7.69092e-10 2.77087e-09)
(8.01198e-11 5.99153e-10 2.86482e-09)
(-1.10219e-08 9.87074e-09 1.81222e-09)
(1.87525e-08 5.26385e-09 9.07433e-09)
(2.10941e-09 -4.86374e-10 1.13874e-08)
(-1.02556e-09 -9.48302e-10 1.16152e-08)
(-1.70478e-08 3.76551e-09 9.72505e-09)
(1.93393e-08 -6.79229e-10 1.70034e-08)
(2.77206e-09 -3.08534e-09 1.96795e-08)
(-3.66405e-10 -3.77219e-09 2.00067e-08)
(-1.63337e-08 -2.7778e-09 1.79454e-08)
(1.88797e-08 -6.21558e-09 2.37879e-08)
(2.94077e-09 -7.75728e-09 2.65697e-08)
(1.10127e-09 -8.62731e-09 2.69757e-08)
(-1.42404e-08 -8.84304e-09 2.4965e-08)
(1.95554e-08 -1.17806e-08 2.97063e-08)
(3.57251e-09 -1.39881e-08 3.25169e-08)
(2.40624e-09 -1.50263e-08 3.29872e-08)
(-1.29619e-08 -1.48992e-08 3.10763e-08)
(2.27529e-08 -1.73988e-08 3.50929e-08)
(5.27889e-09 -2.07596e-08 3.79052e-08)
(2.92363e-09 -2.19637e-08 3.84271e-08)
(-1.39212e-08 -2.09933e-08 3.66183e-08)
(3.02313e-08 -2.53147e-08 3.93649e-08)
(8.50877e-09 -2.82005e-08 4.21702e-08)
(2.17889e-09 -2.95583e-08 4.27266e-08)
(-1.89357e-08 -2.93589e-08 4.09984e-08)
(4.17103e-08 -5.5042e-08 4.07318e-08)
(1.21151e-08 -5.21459e-08 4.35509e-08)
(1.22182e-09 -5.34697e-08 4.41129e-08)
(-2.78084e-08 -5.90998e-08 4.23931e-08)
(9.85967e-09 9.10564e-09 1.6105e-09)
(-3.44868e-10 1.76764e-10 2.37267e-09)
(4.17939e-10 2.16448e-11 2.43878e-09)
(-9.33466e-09 8.41078e-09 1.80011e-09)
(1.58233e-08 2.41359e-09 7.11658e-09)
(1.1622e-09 -2.73067e-09 8.58046e-09)
(-3.27953e-10 -3.15654e-09 8.7465e-09)
(-1.44031e-08 1.05139e-09 7.59174e-09)
(1.6296e-08 -4.17988e-09 1.34093e-08)
(1.67137e-09 -6.36928e-09 1.51101e-08)
(3.16062e-10 -7.01357e-09 1.5352e-08)
(-1.37355e-08 -6.13094e-09 1.41074e-08)
(1.59173e-08 -9.51045e-09 1.9316e-08)
(1.81777e-09 -1.10067e-08 2.10767e-08)
(1.65694e-09 -1.18351e-08 2.13806e-08)
(-1.18674e-08 -1.19984e-08 2.02002e-08)
(1.66493e-08 -1.42164e-08 2.44733e-08)
(2.43244e-09 -1.64257e-08 2.62441e-08)
(2.85267e-09 -1.74251e-08 2.66001e-08)
(-1.07681e-08 -1.72084e-08 2.55158e-08)
(1.98904e-08 -1.85764e-08 2.87356e-08)
(4.11332e-09 -2.19493e-08 3.05038e-08)
(3.29147e-09 -2.31167e-08 3.09021e-08)
(-1.18713e-08 -2.20557e-08 2.99074e-08)
(2.73887e-08 -2.51834e-08 3.16512e-08)
(7.30721e-09 -2.81221e-08 3.34192e-08)
(2.497e-09 -2.94449e-08 3.38448e-08)
(-1.69857e-08 -2.91208e-08 3.2911e-08)
(3.87802e-08 -5.34608e-08 3.25125e-08)
(1.08748e-08 -5.07876e-08 3.43236e-08)
(1.50461e-09 -5.2079e-08 3.47515e-08)
(-2.58378e-08 -5.74197e-08 3.37911e-08)
(9.13904e-09 8.45808e-09 1.51398e-09)
(-4.46742e-10 1.3045e-11 1.89487e-09)
(4.7614e-10 -1.30862e-10 1.94109e-09)
(-8.68711e-09 7.82068e-09 1.64652e-09)
(1.46655e-08 1.2965e-09 5.65233e-09)
(8.683e-10 -3.54423e-09 6.39128e-09)
(-1.96025e-10 -3.93986e-09 6.50915e-09)
(-1.34432e-08 4.2797e-11 5.98913e-09)
(1.5149e-08 -5.75422e-09 1.03487e-08)
(1.32058e-09 -7.83917e-09 1.12081e-08)
(3.7905e-10 -8.44453e-09 1.13816e-08)
(-1.29066e-08 -7.57746e-09 1.08489e-08)
(1.48746e-08 -1.11795e-08 1.49427e-08)
(1.46566e-09 -1.26588e-08 1.58254e-08)
(1.60314e-09 -1.34469e-08 1.60452e-08)
(-1.12565e-08 -1.3539e-08 1.55828e-08)
(1.56834e-08 -1.55412e-08 1.89907e-08)
(2.07659e-09 -1.77527e-08 1.98712e-08)
(2.6986e-09 -1.87135e-08 2.0131e-08)
(-1.03353e-08 -1.84131e-08 1.97527e-08)
(1.89557e-08 -1.93371e-08 2.2203e-08)
(3.73684e-09 -2.27113e-08 2.30822e-08)
(3.06974e-09 -2.38431e-08 2.33746e-08)
(-1.15554e-08 -2.27076e-08 2.30661e-08)
(2.64179e-08 -2.54651e-08 2.43044e-08)
(6.88741e-09 -2.84391e-08 2.51941e-08)
(2.24414e-09 -2.97297e-08 2.55074e-08)
(-1.67043e-08 -2.93059e-08 2.52365e-08)
(3.76934e-08 -5.30371e-08 2.50835e-08)
(1.04124e-08 -5.05495e-08 2.60188e-08)
(1.23005e-09 -5.18131e-08 2.63333e-08)
(-2.54997e-08 -5.69121e-08 2.603e-08)
(8.83607e-09 8.11833e-09 1.19868e-09)
(-4.55126e-10 -8.10937e-11 1.37427e-09)
(4.58834e-10 -2.1679e-10 1.40502e-09)
(-8.43009e-09 7.5207e-09 1.28626e-09)
(1.42135e-08 8.34522e-10 4.1341e-09)
(8.02482e-10 -3.86274e-09 4.47404e-09)
(-2.32399e-10 -4.23606e-09 4.55289e-09)
(-1.31192e-08 -3.41118e-10 4.35812e-09)
(1.47402e-08 -6.39131e-09 7.37769e-09)
(1.23847e-09 -8.43286e-09 7.77099e-09)
(2.71802e-10 -9.00855e-09 7.88776e-09)
(-1.27095e-08 -8.11876e-09 7.71282e-09)
(1.4545e-08 -1.19212e-08 1.05834e-08)
(1.38519e-09 -1.33973e-08 1.09834e-08)
(1.40797e-09 -1.41535e-08 1.11323e-08)
(-1.12217e-08 -1.41809e-08 1.10157e-08)
(1.54084e-08 -1.62257e-08 1.34291e-08)
(1.99152e-09 -1.84369e-08 1.38257e-08)
(2.42898e-09 -1.93667e-08 1.40026e-08)
(-1.0432e-08 -1.90021e-08 1.39475e-08)
(1.86906e-08 -1.98846e-08 1.56716e-08)
(3.63147e-09 -2.32507e-08 1.60706e-08)
(2.75132e-09 -2.43539e-08 1.62707e-08)
(-1.17291e-08 -2.31681e-08 1.62623e-08)
(2.61036e-08 -2.59072e-08 1.71524e-08)
(6.74328e-09 -2.88885e-08 1.75663e-08)
(1.90523e-09 -3.01537e-08 1.77812e-08)
(-1.68854e-08 -2.96717e-08 1.7793e-08)
(3.72817e-08 -5.30989e-08 1.78189e-08)
(1.02319e-08 -5.07082e-08 1.82666e-08)
(8.76575e-10 -5.19501e-08 1.84822e-08)
(-2.56317e-08 -5.69087e-08 1.847e-08)
(8.69252e-09 7.94022e-09 7.58148e-10)
(-4.49708e-10 -1.34271e-10 8.34381e-10)
(4.39125e-10 -2.64647e-10 8.52005e-10)
(-8.31312e-09 7.36734e-09 8.0803e-10)
(1.40139e-08 6.38198e-10 2.51858e-09)
(7.88722e-10 -3.99213e-09 2.66489e-09)
(-2.78403e-10 -4.35099e-09 2.7102e-09)
(-1.29952e-08 -4.87574e-10 2.64661e-09)
(1.45747e-08 -6.63057e-09 4.42173e-09)
(1.21962e-09 -8.65503e-09 4.5897e-09)
(1.76621e-10 -9.21119e-09 4.65704e-09)
(-1.26719e-08 -8.29545e-09 4.61413e-09)
(1.4426e-08 -1.22213e-08 6.29998e-09)
(1.366e-09 -1.36975e-08 6.46945e-09)
(1.25726e-09 -1.44325e-08 6.55565e-09)
(-1.12845e-08 -1.44145e-08 6.54941e-09)
(1.53181e-08 -1.65633e-08 7.97428e-09)
(1.96616e-09 -1.87723e-08 8.14222e-09)
(2.23159e-09 -1.96811e-08 8.24505e-09)
(-1.0575e-08 -1.9275e-08 8.27492e-09)
(1.85988e-08 -2.02458e-08 9.30023e-09)
(3.58959e-09 -2.36015e-08 9.47193e-09)
(2.52316e-09 -2.46852e-08 9.58858e-09)
(-1.19165e-08 -2.347e-08 9.6443e-09)
(2.59734e-08 -2.62859e-08 1.01949e-08)
(6.6741e-09 -2.92601e-08 1.03784e-08)
(1.66334e-09 -3.0508e-08 1.0504e-08)
(-1.70738e-08 -2.99982e-08 1.05691e-08)
(3.70861e-08 -5.32804e-08 1.06446e-08)
(1.01371e-08 -5.09256e-08 1.08476e-08)
(6.25147e-10 -5.21528e-08 1.09735e-08)
(-2.57883e-08 -5.70458e-08 1.10253e-08)
(8.62997e-09 7.86372e-09 2.58448e-10)
(-4.46862e-10 -1.56737e-10 2.80069e-10)
(4.29919e-10 -2.84515e-10 2.85812e-10)
(-8.26275e-09 7.30266e-09 2.74644e-10)
(1.39283e-08 5.64987e-10 8.45427e-10)
(7.83718e-10 -4.03799e-09 8.86664e-10)
(-3.00896e-10 -4.38977e-09 9.01446e-10)
(-1.29445e-08 -5.36588e-10 8.87059e-10)
(1.4505e-08 -6.70851e-09 1.47283e-09)
(1.21233e-09 -8.72675e-09 1.51995e-09)
(1.30492e-10 -9.27329e-09 1.54196e-09)
(-1.26622e-08 -8.34267e-09 1.53554e-09)
(1.43766e-08 -1.23252e-08 2.09038e-09)
(1.35761e-09 -1.38016e-08 2.13778e-09)
(1.18488e-09 -1.4526e-08 2.166e-09)
(-1.13215e-08 -1.44853e-08 2.17188e-09)
(1.52799e-08 -1.67029e-08 2.64184e-09)
(1.95349e-09 -1.89099e-08 2.68895e-09)
(2.13711e-09 -1.98082e-08 2.72268e-09)
(-1.06489e-08 -1.93822e-08 2.74033e-09)
(1.85575e-08 -2.04245e-08 3.08068e-09)
(3.56779e-09 -2.37734e-08 3.12948e-09)
(2.41385e-09 -2.48472e-08 3.1678e-09)
(-1.20107e-08 -2.36188e-08 3.19365e-09)
(2.59122e-08 -2.64935e-08 3.38093e-09)
(6.63855e-09 -2.94604e-08 3.43411e-09)
(1.54684e-09 -3.06997e-08 3.4754e-09)
(-1.71682e-08 -3.01794e-08 3.504e-09)
(3.69927e-08 -5.34054e-08 3.53928e-09)
(1.00885e-08 -5.10597e-08 3.5987e-09)
(5.03823e-10 -5.22794e-08 3.64014e-09)
(-2.58677e-08 -5.71483e-08 3.66454e-09)
)
;

boundaryField
{
    interface
    {
        type            solidTraction;
        traction        uniform (0 0 0);
        pressure        uniform 0;
        secondOrder     false;
        setEffectiveTraction false;
        relaxationFactor 1;
        value           nonuniform List<vector> 
192
(
(7.93938e-08 4.74564e-08 2.15891e-08)
(8.85913e-08 2.96092e-08 3.97778e-08)
(9.13229e-08 1.54818e-08 4.89018e-08)
(9.27742e-08 6.48063e-09 5.57252e-08)
(9.57893e-08 -4.78242e-10 6.24786e-08)
(1.02047e-07 -7.11718e-09 7.03414e-08)
(1.13168e-07 -1.82763e-08 8.0345e-08)
(1.30507e-07 -6.02035e-08 9.15582e-08)
(6.41983e-08 2.60032e-08 7.72444e-10)
(7.11242e-08 1.48981e-08 1.08929e-08)
(7.27545e-08 6.01411e-09 1.97363e-08)
(7.36622e-08 -7.08268e-10 2.65131e-08)
(7.63478e-08 -6.68511e-09 3.26297e-08)
(8.25472e-08 -1.23755e-08 3.90683e-08)
(9.42535e-08 -2.07698e-08 4.56716e-08)
(1.13935e-07 -5.53667e-08 4.96172e-08)
(5.4402e-08 1.82463e-08 1.01706e-10)
(6.02567e-08 7.18497e-09 6.7612e-09)
(6.15614e-08 -6.47411e-10 1.45664e-08)
(6.23412e-08 -6.16147e-09 2.13596e-08)
(6.49359e-08 -1.08121e-08 2.7279e-08)
(7.11927e-08 -1.47295e-08 3.26748e-08)
(8.32508e-08 -2.0575e-08 3.69745e-08)
(1.03551e-07 -5.16963e-08 3.8335e-08)
(4.90639e-08 1.55264e-08 9.81443e-10)
(5.41855e-08 4.02267e-09 6.09463e-09)
(5.5455e-08 -4.15634e-09 1.23615e-08)
(5.63188e-08 -9.422e-09 1.83145e-08)
(5.89704e-08 -1.3223e-08 2.35051e-08)
(6.52969e-08 -1.58912e-08 2.77861e-08)
(7.74614e-08 -2.04605e-08 3.06977e-08)
(9.77965e-08 -5.0107e-08 3.15081e-08)
(4.62612e-08 1.44092e-08 1.258e-09)
(5.10595e-08 2.799e-09 5.24972e-09)
(5.23835e-08 -5.7019e-09 9.95959e-09)
(5.33745e-08 -1.10457e-08 1.45995e-08)
(5.61186e-08 -1.45207e-08 1.86803e-08)
(6.24893e-08 -1.66532e-08 2.19029e-08)
(7.46309e-08 -2.07802e-08 2.3983e-08)
(9.48171e-08 -4.96911e-08 2.47087e-08)
(4.47338e-08 1.38807e-08 1.08699e-09)
(4.94239e-08 2.31057e-09 3.9711e-09)
(5.08133e-08 -6.30838e-09 7.23401e-09)
(5.19035e-08 -1.1754e-08 1.04712e-08)
(5.47172e-08 -1.51891e-08 1.33377e-08)
(6.11016e-08 -1.72104e-08 1.55823e-08)
(7.31809e-08 -2.12589e-08 1.70412e-08)
(9.32105e-08 -4.97691e-08 1.7667e-08)
(4.39002e-08 1.36168e-08 7.0659e-10)
(4.8553e-08 2.10876e-09 2.44723e-09)
(4.99874e-08 -6.52749e-09 4.36287e-09)
(5.11369e-08 -1.20353e-08 6.25781e-09)
(5.39888e-08 -1.55199e-08 7.94211e-09)
(6.03713e-08 -1.75816e-08 9.26692e-09)
(7.23955e-08 -2.16636e-08 1.0147e-08)
(9.23134e-08 -4.99664e-08 1.05723e-08)
(4.35248e-08 1.35033e-08 2.42802e-10)
(4.81625e-08 2.03377e-09 8.24006e-10)
(4.96175e-08 -6.59639e-09 1.45539e-09)
(5.07932e-08 -1.21313e-08 2.078e-09)
(5.36607e-08 -1.56575e-08 2.63228e-09)
(6.00389e-08 -1.77661e-08 3.07035e-09)
(7.20331e-08 -2.18842e-08 3.36561e-09)
(9.18949e-08 -5.01006e-08 3.51592e-09)
(2.20228e-08 4.98078e-08 8.32109e-08)
(3.52119e-08 3.31247e-08 9.85882e-08)
(3.69154e-08 1.9169e-08 1.09021e-07)
(3.6678e-08 9.71267e-09 1.17628e-07)
(3.75473e-08 2.12074e-09 1.26582e-07)
(4.08496e-08 -5.32367e-09 1.37383e-07)
(4.81997e-08 -1.75809e-08 1.51153e-07)
(5.93677e-08 -6.05627e-08 1.68714e-07)
(1.70158e-09 3.45046e-08 7.52003e-08)
(5.83377e-09 2.4892e-08 9.03181e-08)
(7.10281e-09 1.59601e-08 9.99252e-08)
(7.39928e-09 7.87461e-09 1.07912e-07)
(8.12095e-09 -2.51349e-10 1.1645e-07)
(9.90809e-09 -8.72653e-09 1.27041e-07)
(1.32146e-08 -2.03352e-08 1.41244e-07)
(1.70043e-08 -5.80854e-08 1.61344e-07)
(-1.18764e-09 3.43404e-08 7.458e-08)
(-3.68286e-09 2.44927e-08 8.98647e-08)
(-3.04255e-09 1.53346e-08 9.95891e-08)
(-1.23132e-09 7.04836e-09 1.07663e-07)
(3.61127e-10 -1.26101e-09 1.16268e-07)
(1.10329e-09 -9.91504e-09 1.2691e-07)
(5.28218e-10 -2.16971e-08 1.41158e-07)
(-4.31549e-10 -5.94514e-08 1.61327e-07)
(-2.10341e-08 4.90274e-08 8.15691e-08)
(-3.24532e-08 3.17107e-08 9.75204e-08)
(-3.2272e-08 1.71517e-08 1.08301e-07)
(-2.99392e-08 7.13559e-09 1.17166e-07)
(-2.84918e-08 -9.72183e-10 1.2632e-07)
(-2.927e-08 -8.91346e-09 1.3728e-07)
(-3.39282e-08 -2.16625e-08 1.51185e-07)
(-4.23075e-08 -6.47555e-08 1.68953e-07)
(-7.5582e-08 4.55836e-08 2.1877e-08)
(-8.3122e-08 2.71204e-08 4.07559e-08)
(-8.40415e-08 1.23468e-08 5.04271e-08)
(-8.34382e-08 2.71037e-09 5.76528e-08)
(-8.41643e-08 -4.85172e-09 6.47113e-08)
(-8.79296e-08 -1.20697e-08 7.28202e-08)
(-9.64317e-08 -2.3772e-08 8.30296e-08)
(-1.11097e-07 -6.58158e-08 9.43824e-08)
(-6.0452e-08 2.44056e-08 1.2107e-09)
(-6.60793e-08 1.25604e-08 1.19517e-08)
(-6.61472e-08 2.96641e-09 2.12743e-08)
(-6.51803e-08 -4.41501e-09 2.84235e-08)
(-6.57013e-08 -1.10068e-08 3.48322e-08)
(-6.94877e-08 -1.72817e-08 4.15036e-08)
(-7.86288e-08 -2.62107e-08 4.82827e-08)
(-9.57255e-08 -6.08891e-08 5.23159e-08)
(-5.08819e-08 1.68882e-08 4.31028e-10)
(-5.5651e-08 5.09347e-09 7.5759e-09)
(-5.55921e-08 -3.47966e-09 1.57637e-08)
(-5.46632e-08 -9.68603e-09 2.28709e-08)
(-5.52199e-08 -1.49791e-08 2.90488e-08)
(-5.91508e-08 -1.95e-08 3.46525e-08)
(-6.8696e-08 -2.58871e-08 3.91019e-08)
(-8.64466e-08 -5.70819e-08 4.05247e-08)
(-4.57466e-08 1.43452e-08 1.2164e-09)
(-4.99518e-08 2.1516e-09 6.69061e-09)
(-5.00138e-08 -6.76487e-09 1.32506e-08)
(-4.93082e-08 -1.27403e-08 1.94543e-08)
(-5.00366e-08 -1.72075e-08 2.48592e-08)
(-5.41235e-08 -2.05013e-08 2.9316e-08)
(-6.38315e-08 -2.56292e-08 3.23532e-08)
(-8.16492e-08 -5.53604e-08 3.3214e-08)
(-4.30855e-08 1.33533e-08 1.42039e-09)
(-4.70891e-08 1.09766e-09 5.6682e-09)
(-4.73228e-08 -8.12415e-09 1.05924e-08)
(-4.68543e-08 -1.41819e-08 1.54214e-08)
(-4.77709e-08 -1.83384e-08 1.96688e-08)
(-5.19786e-08 -2.11154e-08 2.30307e-08)
(-6.17193e-08 -2.58198e-08 2.52116e-08)
(-7.94243e-08 -5.48314e-08 2.59786e-08)
(-4.1647e-08 1.2908e-08 1.19277e-09)
(-4.56231e-08 7.28737e-10 4.24615e-09)
(-4.60038e-08 -8.59314e-09 7.65419e-09)
(-4.57149e-08 -1.47504e-08 1.10227e-08)
(-4.6774e-08 -1.88753e-08 1.40075e-08)
(-5.10569e-08 -2.15548e-08 1.63526e-08)
(-6.07827e-08 -2.6196e-08 1.78854e-08)
(-7.83644e-08 -5.4821e-08 1.85422e-08)
(-4.08651e-08 1.26944e-08 7.66202e-10)
(-4.4852e-08 6.02114e-10 2.60299e-09)
(-4.53289e-08 -8.72314e-09 4.60234e-09)
(-4.51513e-08 -1.49387e-08 6.57438e-09)
(-4.62977e-08 -1.9117e-08 8.32917e-09)
(-5.06213e-08 -2.18453e-08 9.71472e-09)
(-6.03259e-08 -2.65302e-08 1.06399e-08)
(-7.78209e-08 -5.49577e-08 1.10844e-08)
(-4.05134e-08 1.26045e-08 2.62052e-10)
(-4.45077e-08 5.63274e-10 8.7441e-10)
(-4.50296e-08 -8.74846e-09 1.53313e-09)
(-4.49039e-08 -1.49887e-08 2.18113e-09)
(-4.60903e-08 -1.92099e-08 2.75882e-09)
(-5.04312e-08 -2.1989e-08 3.21719e-09)
(-6.01235e-08 -2.67151e-08 3.52761e-09)
(-7.75755e-08 -5.50612e-08 3.6844e-09)
(5.9717e-08 -1.37749e-07 9.47476e-08)
(4.93007e-08 -1.26581e-07 5.17446e-08)
(4.26605e-08 -1.19191e-07 3.94247e-08)
(3.97902e-08 -1.14786e-07 3.20112e-08)
(3.87459e-08 -1.12444e-07 2.4993e-08)
(3.83504e-08 -1.11277e-07 1.78797e-08)
(3.81559e-08 -1.10733e-07 1.07212e-08)
(3.80601e-08 -1.10522e-07 3.57052e-09)
(1.73445e-08 -1.31056e-07 9.16072e-08)
(1.4298e-08 -1.17382e-07 5.38772e-08)
(1.1723e-08 -1.09603e-07 4.23037e-08)
(1.05304e-08 -1.05425e-07 3.39246e-08)
(1.01073e-08 -1.03374e-07 2.5999e-08)
(9.94563e-09 -1.02388e-07 1.83606e-08)
(9.85617e-09 -1.01928e-07 1.09354e-08)
(9.80795e-09 -1.01745e-07 3.63221e-09)
(-8.26635e-11 -1.31719e-07 9.2298e-08)
(1.60327e-09 -1.17991e-07 5.45721e-08)
(2.96132e-09 -1.10184e-07 4.28495e-08)
(3.16364e-09 -1.0598e-07 3.43374e-08)
(2.8217e-09 -1.03903e-07 2.63011e-08)
(2.42771e-09 -1.02898e-07 1.85672e-08)
(2.15619e-09 -1.02423e-07 1.10559e-08)
(2.027e-09 -1.02234e-07 3.67179e-09)
(-4.19518e-08 -1.40045e-07 9.68906e-08)
(-3.28617e-08 -1.28708e-07 5.37902e-08)
(-2.74086e-08 -1.2123e-07 4.1036e-08)
(-2.55311e-08 -1.16741e-07 3.32442e-08)
(-2.52641e-08 -1.14323e-07 2.59023e-08)
(-2.54347e-08 -1.13097e-07 1.85034e-08)
(-2.56079e-08 -1.12512e-07 1.10853e-08)
(-2.56928e-08 -1.12279e-07 3.69018e-09)
)
;
        gradient        uniform (0 0 0);
    }
    symmetry
    {
        type            solidSymmetry;
        patchType       symmetry;
        secondOrder     false;
        value           nonuniform List<vector> 
32
(
(8.62997e-09 7.86372e-09 0)
(1.39283e-08 5.64987e-10 0)
(1.4505e-08 -6.70851e-09 0)
(1.43766e-08 -1.23252e-08 0)
(1.52799e-08 -1.67029e-08 0)
(1.85575e-08 -2.04245e-08 0)
(2.59122e-08 -2.64935e-08 0)
(3.69927e-08 -5.34054e-08 0)
(-4.46862e-10 -1.56737e-10 0)
(7.83718e-10 -4.03799e-09 0)
(1.21233e-09 -8.72675e-09 0)
(1.35761e-09 -1.38016e-08 0)
(1.95349e-09 -1.89099e-08 0)
(3.56779e-09 -2.37734e-08 0)
(6.63855e-09 -2.94604e-08 0)
(1.00885e-08 -5.10597e-08 0)
(4.29919e-10 -2.84515e-10 0)
(-3.00896e-10 -4.38977e-09 0)
(1.30492e-10 -9.27329e-09 0)
(1.18488e-09 -1.4526e-08 0)
(2.13711e-09 -1.98082e-08 0)
(2.41385e-09 -2.48472e-08 0)
(1.54684e-09 -3.06997e-08 0)
(5.03823e-10 -5.22794e-08 0)
(-8.26275e-09 7.30266e-09 0)
(-1.29445e-08 -5.36588e-10 0)
(-1.26622e-08 -8.34267e-09 0)
(-1.13215e-08 -1.44853e-08 0)
(-1.06489e-08 -1.93822e-08 0)
(-1.20107e-08 -2.36188e-08 0)
(-1.71682e-08 -3.01794e-08 0)
(-2.58677e-08 -5.71483e-08 0)
)
;
    }
    bottom
    {
        type            fixedDisplacement;
        value           uniform (0 0 0);
    }
}


// ************************************************************************* //
