/*--------------------------------*- C++ -*----------------------------------*\
| =========                 |                                                 |
| \\      /  F ield         | OpenFOAM: The Open Source CFD Toolbox           |
|  \\    /   O peration     | Version:  v1912                                 |
|   \\  /    A nd           | Website:  www.openfoam.com                      |
|    \\/     M anipulation  |                                                 |
\*---------------------------------------------------------------------------*/
FoamFile
{
    version     2.0;
    format      ascii;
    class       volVectorField;
    location    "0.53/solid";
    object      DD;
}
// * * * * * * * * * * * * * * * * * * * * * * * * * * * * * * * * * * * * * //

dimensions      [0 1 0 0 0 0 0];


internalField   nonuniform List<vector> 
256
(
(3.08997e-10 3.05687e-10 3.54012e-10)
(6.7009e-11 1.77433e-10 3.18858e-10)
(-7.81692e-11 1.72609e-10 3.13418e-10)
(-3.03373e-10 2.87301e-10 3.36947e-10)
(5.43131e-10 2.26426e-10 7.83824e-10)
(1.35509e-10 1.26106e-10 7.33533e-10)
(-1.57975e-10 1.23687e-10 7.22969e-10)
(-5.4274e-10 2.20469e-10 7.50904e-10)
(5.80926e-10 3.97169e-13 1.07688e-09)
(1.45159e-10 -4.19685e-11 1.02082e-09)
(-1.80582e-10 -4.01925e-11 1.00748e-09)
(-5.93291e-10 8.28355e-12 1.03544e-09)
(5.63799e-10 -2.41655e-10 1.32719e-09)
(1.30244e-10 -2.64932e-10 1.2611e-09)
(-1.83753e-10 -2.58984e-10 1.2458e-09)
(-5.94044e-10 -2.21662e-10 1.27974e-09)
(5.61421e-10 -5.00681e-10 1.57973e-09)
(1.18983e-10 -5.3805e-10 1.49974e-09)
(-1.96011e-10 -5.28228e-10 1.48277e-09)
(-6.14789e-10 -4.69629e-10 1.5272e-09)
(6.24676e-10 -8.12576e-10 1.86328e-09)
(1.32967e-10 -8.7176e-10 1.76926e-09)
(-2.39168e-10 -8.58198e-10 1.75066e-09)
(-7.06743e-10 -7.70804e-10 1.80593e-09)
(8.01271e-10 -1.28052e-09 2.19116e-09)
(1.85218e-10 -1.31606e-09 2.09501e-09)
(-3.27291e-10 -1.2984e-09 2.07465e-09)
(-9.1762e-10 -1.22685e-09 2.12876e-09)
(1.03801e-09 -2.01551e-09 2.48356e-09)
(2.41861e-10 -1.939e-09 2.41012e-09)
(-4.28515e-10 -1.91448e-09 2.38794e-09)
(-1.19417e-09 -1.94086e-09 2.41631e-09)
(1.76363e-10 9.93214e-11 1.30739e-10)
(3.56271e-11 2.2576e-12 1.53257e-10)
(-4.00433e-11 5.19353e-13 1.51002e-10)
(-1.66743e-10 8.82389e-11 1.23983e-10)
(3.19753e-10 -2.24533e-11 4.20914e-10)
(7.67789e-11 -9.99076e-11 4.65236e-10)
(-8.39114e-11 -9.99866e-11 4.59104e-10)
(-3.08421e-10 -2.36105e-11 4.02972e-10)
(3.38055e-10 -2.20317e-10 6.87291e-10)
(8.08265e-11 -2.53275e-10 7.37801e-10)
(-9.50645e-11 -2.5023e-10 7.29107e-10)
(-3.34173e-10 -2.10283e-10 6.61777e-10)
(3.16593e-10 -4.41039e-10 9.27552e-10)
(6.6624e-11 -4.60529e-10 9.7661e-10)
(-9.45003e-11 -4.53916e-10 9.66111e-10)
(-3.26418e-10 -4.20257e-10 8.96516e-10)
(3.09096e-10 -6.83677e-10 1.16248e-09)
(5.59577e-11 -7.19405e-10 1.20715e-09)
(-1.03703e-10 -7.09223e-10 1.19511e-09)
(-3.385e-10 -6.52497e-10 1.1267e-09)
(3.6623e-10 -9.60475e-10 1.40447e-09)
(6.98495e-11 -1.02037e-09 1.44457e-09)
(-1.4358e-10 -1.00668e-09 1.43105e-09)
(-4.21104e-10 -9.19086e-10 1.36414e-09)
(5.43846e-10 -1.33086e-09 1.63129e-09)
(1.23087e-10 -1.36542e-09 1.66958e-09)
(-2.2977e-10 -1.34809e-09 1.65469e-09)
(-6.29862e-10 -1.27864e-09 1.58677e-09)
(7.97889e-10 -1.88998e-09 1.74851e-09)
(1.81796e-10 -1.79063e-09 1.78762e-09)
(-3.30398e-10 -1.76754e-09 1.77208e-09)
(-9.20519e-10 -1.81918e-09 1.70179e-09)
(8.11946e-11 2.37132e-11 6.4941e-11)
(8.05236e-12 -4.46303e-11 9.79062e-11)
(-9.66007e-12 -4.59537e-11 9.63506e-11)
(-6.95173e-11 1.28507e-11 6.05208e-11)
(1.51267e-10 -1.45899e-10 2.70136e-10)
(2.23667e-11 -2.01198e-10 3.3166e-10)
(-2.14471e-11 -2.00953e-10 3.27358e-10)
(-1.33164e-10 -1.47498e-10 2.5798e-10)
(1.53983e-10 -3.51362e-10 4.9777e-10)
(2.03561e-11 -3.75891e-10 5.67404e-10)
(-2.18101e-11 -3.72874e-10 5.61004e-10)
(-1.38849e-10 -3.42597e-10 4.79479e-10)
(1.32185e-10 -5.59132e-10 7.18719e-10)
(7.01449e-12 -5.77214e-10 7.8869e-10)
(-1.80114e-11 -5.70945e-10 7.80663e-10)
(-1.2682e-10 -5.40273e-10 6.95479e-10)
(1.25037e-10 -7.70881e-10 9.28662e-10)
(-2.55951e-12 -8.07554e-10 9.96767e-10)
(-2.48075e-11 -7.97947e-10 9.87332e-10)
(-1.358e-10 -7.42085e-10 9.01073e-10)
(1.82136e-10 -9.90829e-10 1.11987e-09)
(1.17235e-11 -1.05233e-09 1.18593e-09)
(-6.20625e-11 -1.03943e-09 1.17521e-09)
(-2.1527e-10 -9.52289e-10 1.08828e-09)
(3.60969e-10 -1.27133e-09 1.25818e-09)
(6.5458e-11 -1.30746e-09 1.32257e-09)
(-1.46115e-10 -1.29122e-09 1.31085e-09)
(-4.22368e-10 -1.22256e-09 1.22333e-09)
(6.16022e-10 -1.72916e-09 1.28051e-09)
(1.24909e-10 -1.63163e-09 1.34401e-09)
(-2.45069e-10 -1.6099e-09 1.33208e-09)
(-7.11308e-10 -1.66223e-09 1.24458e-09)
(4.14534e-11 -2.96108e-12 5.37087e-11)
(-3.31783e-12 -5.39331e-11 7.54368e-11)
(2.96791e-12 -5.5425e-11 7.42714e-11)
(-2.84883e-11 -1.47583e-11 5.04772e-11)
(7.8596e-11 -1.9315e-10 2.12467e-10)
(-1.53051e-12 -2.35088e-10 2.52626e-10)
(6.80283e-12 -2.35311e-10 2.49508e-10)
(-5.61829e-11 -1.96768e-10 2.03795e-10)
(7.54302e-11 -4.07394e-10 3.9646e-10)
(-5.84758e-12 -4.27329e-10 4.41359e-10)
(1.21846e-11 -4.24966e-10 4.3666e-10)
(-5.26569e-11 -4.01165e-10 3.8319e-10)
(5.72704e-11 -6.06583e-10 5.81918e-10)
(-1.71018e-11 -6.24911e-10 6.26252e-10)
(1.72656e-11 -6.19443e-10 6.20224e-10)
(-4.09778e-11 -5.9059e-10 5.64616e-10)
(5.51731e-11 -7.90789e-10 7.53894e-10)
(-2.41132e-11 -8.29143e-10 7.96216e-10)
(1.09781e-11 -8.20462e-10 7.89003e-10)
(-5.19589e-11 -7.65107e-10 7.32936e-10)
(1.16027e-10 -9.67228e-10 8.95188e-10)
(-8.24476e-12 -1.0305e-09 9.35633e-10)
(-2.51574e-11 -1.01864e-09 9.27378e-10)
(-1.32416e-10 -9.32009e-10 8.70949e-10)
(2.94197e-10 -1.19809e-09 9.77463e-10)
(4.5287e-11 -1.2382e-09 1.01688e-09)
(-1.0665e-10 -1.22306e-09 1.00788e-09)
(-3.36343e-10 -1.15272e-09 9.50717e-10)
(5.42672e-10 -1.61513e-09 9.70566e-10)
(1.03887e-10 -1.53056e-09 1.01123e-09)
(-2.02644e-10 -1.50987e-09 1.00215e-09)
(-6.16416e-10 -1.5513e-09 9.43116e-10)
(2.95592e-11 -1.22828e-11 4.70747e-11)
(-5.42695e-12 -5.52636e-11 5.78702e-11)
(5.73879e-12 -5.69431e-11 5.7029e-11)
(-1.57762e-11 -2.48616e-11 4.47719e-11)
(5.80455e-11 -2.05643e-10 1.70116e-10)
(-6.22175e-12 -2.41903e-10 1.89361e-10)
(1.40543e-11 -2.42676e-10 1.87147e-10)
(-3.29065e-11 -2.11176e-10 1.64026e-10)
(5.56406e-11 -4.20016e-10 3.10391e-10)
(-9.89141e-12 -4.38765e-10 3.31024e-10)
(2.11595e-11 -4.37146e-10 3.27677e-10)
(-2.78393e-11 -4.16273e-10 3.01027e-10)
(4.23561e-11 -6.11249e-10 4.52559e-10)
(-1.86425e-11 -6.30871e-10 4.71815e-10)
(2.62833e-11 -6.26249e-10 4.6747e-10)
(-1.85429e-11 -5.98014e-10 4.40178e-10)
(4.58338e-11 -7.77301e-10 5.81491e-10)
(-2.29442e-11 -8.17443e-10 5.98706e-10)
(1.97566e-11 -8.09671e-10 5.93447e-10)
(-3.26437e-11 -7.54507e-10 5.66289e-10)
(1.10243e-10 -9.30153e-10 6.80372e-10)
(-5.44653e-12 -9.94939e-10 6.96019e-10)
(-1.57542e-11 -9.84017e-10 6.89963e-10)
(-1.1437e-10 -8.97857e-10 6.62646e-10)
(2.86607e-10 -1.14037e-09 7.30408e-10)
(4.76113e-11 -1.18398e-09 7.45695e-10)
(-9.4783e-11 -1.16975e-09 7.39088e-10)
(-3.14418e-10 -1.0978e-09 7.10787e-10)
(5.28373e-10 -1.541e-09 7.19271e-10)
(1.05172e-10 -1.46792e-09 7.36461e-10)
(-1.87992e-10 -1.44803e-09 7.29804e-10)
(-5.85924e-10 -1.47959e-09 6.99138e-10)
(2.70844e-11 -1.51232e-11 3.6814e-11)
(-4.7508e-12 -5.4897e-11 4.15351e-11)
(5.43127e-12 -5.67114e-11 4.0971e-11)
(-1.27958e-11 -2.82356e-11 3.52819e-11)
(5.56343e-11 -2.04795e-10 1.2547e-10)
(-4.61125e-12 -2.39411e-10 1.33208e-10)
(1.39839e-11 -2.40609e-10 1.31731e-10)
(-2.87992e-11 -2.11732e-10 1.2144e-10)
(5.61964e-11 -4.1421e-10 2.23673e-10)
(-6.67672e-12 -4.33457e-10 2.31159e-10)
(2.10465e-11 -4.3244e-10 2.28924e-10)
(-2.51836e-11 -4.1239e-10 2.17463e-10)
(4.71646e-11 -5.98189e-10 3.22214e-10)
(-1.32892e-11 -6.19338e-10 3.28248e-10)
(2.58118e-11 -6.15407e-10 3.25327e-10)
(-1.83965e-11 -5.87133e-10 3.13941e-10)
(5.48238e-11 -7.54071e-10 4.09929e-10)
(-1.553e-11 -7.95684e-10 4.1436e-10)
(1.90399e-11 -7.88638e-10 4.108e-10)
(-3.48758e-11 -7.33547e-10 3.99683e-10)
(1.21506e-10 -8.96777e-10 4.74607e-10)
(3.12847e-12 -9.62561e-10 4.77993e-10)
(-1.59162e-11 -9.52364e-10 4.73872e-10)
(-1.17147e-10 -8.66725e-10 4.6258e-10)
(2.96063e-10 -1.10004e-09 5.0504e-10)
(5.57758e-11 -1.14573e-09 5.08442e-10)
(-9.2995e-11 -1.13218e-09 5.03937e-10)
(-3.13807e-10 -1.05956e-09 4.91681e-10)
(5.32839e-10 -1.49291e-09 4.96197e-10)
(1.12574e-10 -1.42698e-09 5.01145e-10)
(-1.84104e-10 -1.40768e-09 4.96607e-10)
(-5.78911e-10 -1.43328e-09 4.8248e-10)
(2.68596e-11 -1.55845e-11 2.33233e-11)
(-3.91404e-12 -5.41215e-11 2.52289e-11)
(4.79051e-12 -5.60216e-11 2.4906e-11)
(-1.22789e-11 -2.90292e-11 2.24513e-11)
(5.69186e-11 -2.00585e-10 7.69304e-11)
(-2.54558e-12 -2.35016e-10 7.96898e-11)
(1.27942e-11 -2.36489e-10 7.88449e-11)
(-2.90938e-11 -2.08414e-10 7.46361e-11)
(6.00316e-11 -4.0461e-10 1.34928e-10)
(-3.27934e-12 -4.24689e-10 1.37132e-10)
(1.94692e-11 -4.24072e-10 1.35851e-10)
(-2.71119e-11 -4.04049e-10 1.31386e-10)
(5.38707e-11 -5.83192e-10 1.92415e-10)
(-8.45504e-12 -6.05536e-10 1.9361e-10)
(2.3914e-11 -6.02072e-10 1.9193e-10)
(-2.21018e-11 -5.73591e-10 1.87677e-10)
(6.40805e-11 -7.33946e-10 2.42917e-10)
(-9.41397e-12 -7.76533e-10 2.43141e-10)
(1.70387e-11 -7.69979e-10 2.41085e-10)
(-3.9963e-11 -7.14946e-10 2.37017e-10)
(1.3198e-10 -8.73004e-10 2.79428e-10)
(9.93331e-12 -9.39318e-10 2.79094e-10)
(-1.74626e-11 -9.29605e-10 2.76706e-10)
(-1.22304e-10 -8.44448e-10 2.72471e-10)
(3.05247e-10 -1.0744e-09 2.9607e-10)
(6.23249e-11 -1.12105e-09 2.95852e-10)
(-9.3245e-11 -1.10795e-09 2.93236e-10)
(-3.16613e-10 -1.03529e-09 2.88322e-10)
(5.38827e-10 -1.46335e-09 2.90714e-10)
(1.18651e-10 -1.40111e-09 2.91423e-10)
(-1.8298e-10 -1.38219e-09 2.88788e-10)
(-5.77575e-10 -1.40489e-09 2.82752e-10)
(2.69208e-11 -1.54595e-11 7.97239e-12)
(-3.49073e-12 -5.35584e-11 8.48613e-12)
(4.45135e-12 -5.55003e-11 8.38123e-12)
(-1.2206e-11 -2.90654e-11 7.69015e-12)
(5.78624e-11 -1.97582e-10 2.59123e-11)
(-1.47412e-12 -2.32108e-10 2.65855e-11)
(1.21194e-11 -2.33714e-10 2.63107e-11)
(-2.95805e-11 -2.05843e-10 2.51679e-11)
(6.22828e-11 -3.9841e-10 4.50783e-11)
(-1.5296e-12 -4.19006e-10 4.55138e-11)
(1.85608e-11 -4.18587e-10 4.50968e-11)
(-2.84734e-11 -3.98465e-10 4.39275e-11)
(5.75125e-11 -5.74171e-10 6.39334e-11)
(-6.00906e-12 -5.9714e-10 6.40166e-11)
(2.28455e-11 -5.93909e-10 6.34687e-11)
(-2.43281e-11 -5.6529e-10 6.23908e-11)
(6.88976e-11 -7.22805e-10 8.03861e-11)
(-6.3683e-12 -7.65863e-10 8.01499e-11)
(1.59477e-11 -7.59554e-10 7.94779e-11)
(-4.27925e-11 -7.04564e-10 7.84608e-11)
(1.37315e-10 -8.60791e-10 9.21866e-11)
(1.32948e-11 -9.2732e-10 9.17785e-11)
(-1.83003e-11 -9.17848e-10 9.09965e-11)
(-1.25081e-10 -8.32981e-10 8.99113e-11)
(3.09933e-10 -1.06183e-09 9.75045e-11)
(6.55702e-11 -1.10883e-09 9.71517e-11)
(-9.34437e-11 -1.09595e-09 9.62942e-11)
(-3.1821e-10 -1.02341e-09 9.49665e-11)
(5.41957e-10 -1.44912e-09 9.57248e-11)
(1.21668e-10 -1.38839e-09 9.56757e-11)
(-1.82499e-10 -1.36966e-09 9.48119e-11)
(-5.77143e-10 -1.39124e-09 9.31157e-11)
)
;

boundaryField
{
    interface
    {
        type            calculated;
        value           nonuniform List<vector> 
192
(
(3.36041e-10 5.18719e-10 3.15667e-10)
(5.62793e-10 2.94408e-10 7.17756e-10)
(6.02058e-10 5.56295e-12 1.00528e-09)
(5.88786e-10 -2.46532e-10 1.25581e-09)
(5.86358e-10 -4.85463e-10 1.50896e-09)
(6.40784e-10 -7.52614e-10 1.7928e-09)
(8.04501e-10 -1.17718e-09 2.12138e-09)
(1.08598e-09 -1.94935e-09 2.41576e-09)
(1.49648e-10 2.2335e-10 7.37899e-11)
(2.8879e-10 1.79689e-11 3.2295e-10)
(3.04773e-10 -2.21109e-10 5.80557e-10)
(2.81958e-10 -4.4828e-10 8.19649e-10)
(2.70181e-10 -6.71269e-10 1.05339e-09)
(3.15779e-10 -9.01789e-10 1.29384e-09)
(4.81652e-10 -1.22295e-09 1.52122e-09)
(8.01879e-10 -1.82185e-09 1.64302e-09)
(4.28343e-11 8.18285e-11 3.12151e-11)
(1.18477e-10 -1.27703e-10 2.09849e-10)
(1.20479e-10 -3.56134e-10 4.32115e-10)
(9.75824e-11 -5.6637e-10 6.5389e-10)
(8.76674e-11 -7.58394e-10 8.65183e-10)
(1.37293e-10 -9.31847e-10 1.05732e-09)
(3.11321e-10 -1.16286e-09 1.19577e-09)
(6.34025e-10 -1.6604e-09 1.21671e-09)
(-9.40298e-13 2.70511e-11 4.08009e-11)
(4.68405e-11 -1.84657e-10 1.89163e-10)
(4.44092e-11 -4.12727e-10 3.71876e-10)
(2.60769e-11 -6.11649e-10 5.59461e-10)
(2.2811e-11 -7.76102e-10 7.34094e-10)
(7.91965e-11 -9.07473e-10 8.77215e-10)
(2.57012e-10 -1.09143e-09 9.58873e-10)
(5.71352e-10 -1.54641e-09 9.48655e-10)
(-1.53405e-11 9.61821e-12 4.34832e-11)
(2.49023e-11 -1.99124e-10 1.64376e-10)
(2.40665e-11 -4.2394e-10 3.05583e-10)
(1.15051e-11 -6.13702e-10 4.50033e-10)
(1.50573e-11 -7.6033e-10 5.81404e-10)
(7.68335e-11 -8.69961e-10 6.81742e-10)
(2.55163e-10 -1.03584e-09 7.30876e-10)
(5.60461e-10 -1.4726e-09 7.16813e-10)
(-1.87332e-11 5.55641e-12 3.61396e-11)
(2.16236e-11 -1.97518e-10 1.25189e-10)
(2.42374e-11 -4.16329e-10 2.24771e-10)
(1.66213e-11 -5.98533e-10 3.25093e-10)
(2.52374e-11 -7.35487e-10 4.14492e-10)
(9.03814e-11 -8.36469e-10 4.80042e-10)
(2.68077e-10 -9.9721e-10 5.097e-10)
(5.66374e-10 -1.42498e-09 4.98811e-10)
(-1.9038e-11 5.35995e-12 2.32827e-11)
(2.27298e-11 -1.92292e-10 7.74878e-11)
(2.81723e-11 -4.05373e-10 1.3645e-10)
(2.3876e-11 -5.82181e-10 1.95003e-10)
(3.559e-11 -7.1442e-10 2.46436e-10)
(1.02558e-10 -8.12714e-10 2.83381e-10)
(2.79537e-10 -9.72687e-10 2.99538e-10)
(5.73286e-10 -1.39587e-09 2.92993e-10)
(-1.88659e-11 5.73616e-12 7.98778e-12)
(2.37246e-11 -1.88742e-10 2.61484e-11)
(3.06045e-11 -3.98499e-10 4.56413e-11)
(2.79154e-11 -5.72518e-10 6.4844e-11)
(4.10621e-11 -7.02856e-10 8.15905e-11)
(1.08816e-10 -8.00534e-10 9.35204e-11)
(2.85383e-10 -9.60671e-10 9.86761e-11)
(5.76911e-10 -1.38191e-09 9.65072e-11)
(3.19376e-10 5.90146e-10 3.37696e-10)
(5.63586e-10 4.07145e-10 7.54492e-10)
(6.02709e-10 1.36239e-10 1.04895e-09)
(5.82965e-10 -1.15943e-10 1.30453e-09)
(5.76808e-10 -3.66658e-10 1.55765e-09)
(6.36405e-10 -6.59717e-10 1.8303e-09)
(8.12121e-10 -1.12545e-09 2.13918e-09)
(1.05355e-09 -1.93897e-09 2.46692e-09)
(5.68556e-11 4.40531e-10 2.65879e-10)
(1.20288e-10 3.01599e-10 6.58883e-10)
(1.27802e-10 8.99256e-11 9.38084e-10)
(1.09891e-10 -1.452e-10 1.17527e-09)
(9.47385e-11 -4.11011e-10 1.40696e-09)
(1.04809e-10 -7.22944e-10 1.65823e-09)
(1.56086e-10 -1.15584e-09 1.96188e-09)
(2.17955e-10 -1.85869e-09 2.33877e-09)
(-7.36526e-11 4.31706e-10 2.52644e-10)
(-1.5364e-10 2.97204e-10 6.42009e-10)
(-1.76936e-10 9.05169e-11 9.18239e-10)
(-1.791e-10 -1.4016e-10 1.15309e-09)
(-1.89152e-10 -4.02012e-10 1.38278e-09)
(-2.30005e-10 -7.10228e-10 1.63215e-09)
(-3.18857e-10 -1.13908e-09 1.93372e-09)
(-4.26971e-10 -1.83454e-09 2.30792e-09)
(-3.18314e-10 5.59265e-10 2.96422e-10)
(-5.725e-10 3.95093e-10 7.00454e-10)
(-6.27175e-10 1.40495e-10 9.85451e-10)
(-6.2735e-10 -9.87201e-11 1.23395e-09)
(-6.46039e-10 -3.3808e-10 1.48116e-09)
(-7.35939e-10 -6.20414e-10 1.74831e-09)
(-9.47551e-10 -1.07425e-09 2.05165e-09)
(-1.23033e-09 -1.86529e-09 2.37343e-09)
(-2.74259e-10 4.98829e-10 2.95315e-10)
(-5.06076e-10 2.92949e-10 6.77438e-10)
(-5.56832e-10 2.1112e-11 9.53712e-10)
(-5.59823e-10 -2.16286e-10 1.19618e-09)
(-5.7888e-10 -4.41452e-10 1.4425e-09)
(-6.60109e-10 -6.95094e-10 1.71992e-09)
(-8.54727e-10 -1.10499e-09 2.04185e-09)
(-1.16718e-09 -1.85306e-09 2.32981e-09)
(-8.99624e-11 2.0703e-10 6.55177e-11)
(-2.28546e-10 1.82479e-11 3.00574e-10)
(-2.51256e-10 -2.05782e-10 5.48162e-10)
(-2.40888e-10 -4.19173e-10 7.79706e-10)
(-2.47252e-10 -6.28822e-10 1.00694e-09)
(-3.16622e-10 -8.46242e-10 1.24127e-09)
(-5.10519e-10 -1.15378e-09 1.46295e-09)
(-8.57822e-10 -1.73089e-09 1.58107e-09)
(1.65605e-11 6.3521e-11 2.59548e-11)
(-5.39274e-11 -1.30164e-10 1.94916e-10)
(-5.82967e-11 -3.44181e-10 4.09095e-10)
(-4.3998e-11 -5.41033e-10 6.24115e-10)
(-4.87562e-11 -7.19969e-10 8.29434e-10)
(-1.18934e-10 -8.80644e-10 1.01611e-09)
(-3.17985e-10 -1.09855e-09 1.14995e-09)
(-6.65249e-10 -1.57463e-09 1.16856e-09)
(6.06354e-11 6.40953e-12 3.70403e-11)
(2.09322e-11 -1.90725e-10 1.78728e-10)
(2.4235e-11 -4.04965e-10 3.55434e-10)
(3.72135e-11 -5.90762e-10 5.37544e-10)
(2.88965e-11 -7.42244e-10 7.07144e-10)
(-4.52041e-11 -8.60909e-10 8.45722e-10)
(-2.45275e-10 -1.03172e-09 9.23728e-10)
(-5.81982e-10 -1.46484e-09 9.11768e-10)
(7.5291e-11 -1.2691e-11 4.08475e-11)
(4.49408e-11 -2.08159e-10 1.57178e-10)
(4.88938e-11 -4.19863e-10 2.94156e-10)
(5.85763e-11 -5.96811e-10 4.3453e-10)
(4.59523e-11 -7.30547e-10 5.62016e-10)
(-3.10611e-11 -8.27409e-10 6.58827e-10)
(-2.29524e-10 -9.79904e-10 7.05152e-10)
(-5.55377e-10 -1.39433e-09 6.89761e-10)
(7.8848e-11 -1.78368e-11 3.44067e-11)
(4.9527e-11 -2.08635e-10 1.20486e-10)
(5.15201e-11 -4.1499e-10 2.1728e-10)
(5.80001e-11 -5.84707e-10 3.1483e-10)
(4.21538e-11 -7.08856e-10 4.01512e-10)
(-3.64192e-11 -7.96987e-10 4.64562e-10)
(-2.32599e-10 -9.44111e-10 4.92228e-10)
(-5.50073e-10 -1.34917e-09 4.80392e-10)
(7.92738e-11 -1.8686e-11 2.23033e-11)
(4.92052e-11 -2.04705e-10 7.48305e-11)
(4.92758e-11 -4.05796e-10 1.32207e-10)
(5.35344e-11 -5.70376e-10 1.89159e-10)
(3.57833e-11 -6.89892e-10 2.38995e-10)
(-4.34256e-11 -7.75281e-10 2.74454e-10)
(-2.37788e-10 -9.21471e-10 2.89422e-10)
(-5.49789e-10 -1.32167e-09 2.82309e-10)
(7.91882e-11 -1.86188e-11 7.67176e-12)
(4.85807e-11 -2.01775e-10 2.52893e-11)
(4.76406e-11 -3.99776e-10 4.42676e-11)
(5.08213e-11 -5.61708e-10 6.29471e-11)
(3.22214e-11 -6.79372e-10 7.91679e-11)
(-4.71859e-11 -7.64121e-10 9.06055e-11)
(-2.40588e-10 -9.10393e-10 9.53656e-11)
(-5.49906e-10 -1.30851e-09 9.30075e-11)
(1.05196e-09 -1.99981e-09 2.49044e-09)
(8.0711e-10 -1.8395e-09 1.67692e-09)
(6.26019e-10 -1.6988e-09 1.2118e-09)
(5.5589e-10 -1.59797e-09 9.23527e-10)
(5.44303e-10 -1.52767e-09 6.88716e-10)
(5.50319e-10 -1.48074e-09 4.76785e-10)
(5.57005e-10 -1.45181e-09 2.79766e-10)
(5.60376e-10 -1.43795e-09 9.2168e-11)
(2.166e-10 -1.86854e-09 2.41318e-09)
(1.51183e-10 -1.65901e-09 1.71078e-09)
(9.50892e-11 -1.5232e-09 1.279e-09)
(7.75661e-11 -1.44227e-09 9.70307e-10)
(8.19237e-11 -1.38924e-09 7.10565e-10)
(9.12596e-11 -1.35314e-09 4.84441e-10)
(9.83554e-11 -1.32983e-09 2.81775e-10)
(1.01797e-10 -1.31827e-09 9.24951e-11)
(-4.28054e-10 -1.83519e-09 2.39118e-09)
(-3.23265e-10 -1.62786e-09 1.69593e-09)
(-2.37425e-10 -1.49358e-09 1.26766e-09)
(-1.97465e-10 -1.41377e-09 9.61683e-10)
(-1.85081e-10 -1.36158e-09 7.04255e-10)
(-1.82535e-10 -1.32607e-09 4.80147e-10)
(-1.82041e-10 -1.30315e-09 2.79284e-10)
(-1.81791e-10 -1.29178e-09 9.16792e-11)
(-1.23147e-09 -1.89849e-09 2.42367e-09)
(-9.51759e-10 -1.74282e-09 1.63213e-09)
(-7.42032e-10 -1.60601e-09 1.17762e-09)
(-6.49297e-10 -1.50833e-09 8.97455e-10)
(-6.2067e-10 -1.44042e-09 6.69632e-10)
(-6.14576e-10 -1.3952e-09 4.63805e-10)
(-6.13519e-10 -1.36737e-09 2.72242e-10)
(-6.1312e-10 -1.35405e-09 8.97041e-11)
)
;
    }
    symmetry
    {
        type            symmetry;
    }
    bottom
    {
        type            calculated;
        value           uniform (0 0 0);
    }
}


// ************************************************************************* //
