/*--------------------------------*- C++ -*----------------------------------*\
| =========                 |                                                 |
| \\      /  F ield         | OpenFOAM: The Open Source CFD Toolbox           |
|  \\    /   O peration     | Version:  v1912                                 |
|   \\  /    A nd           | Website:  www.openfoam.com                      |
|    \\/     M anipulation  |                                                 |
\*---------------------------------------------------------------------------*/
FoamFile
{
    version     2.0;
    format      ascii;
    class       volScalarField;
    location    "0.53/solid";
    object      epsilonEq;
}
// * * * * * * * * * * * * * * * * * * * * * * * * * * * * * * * * * * * * * //

dimensions      [0 0 0 0 0 0 0];


internalField   nonuniform List<scalar> 
256
(
2.64591e-06
1.90786e-06
1.8843e-06
2.54235e-06
1.60087e-06
1.3952e-06
1.37498e-06
1.51742e-06
1.61384e-06
1.34047e-06
1.32043e-06
1.53063e-06
1.69587e-06
1.35639e-06
1.3365e-06
1.61232e-06
1.76507e-06
1.39837e-06
1.37848e-06
1.68102e-06
1.79084e-06
1.4414e-06
1.42141e-06
1.70631e-06
1.50994e-06
1.35687e-06
1.33922e-06
1.4318e-06
2.03198e-07
1.52488e-06
1.51256e-06
2.18757e-07
1.64245e-06
3.72923e-07
3.62897e-07
1.53403e-06
1.24702e-06
3.65728e-07
3.56293e-07
1.14844e-06
1.2301e-06
2.81047e-07
2.73497e-07
1.13189e-06
1.25086e-06
1.9921e-07
1.93732e-07
1.15143e-06
1.29229e-06
1.65275e-07
1.61616e-07
1.19104e-06
1.34799e-06
1.73758e-07
1.70425e-07
1.24497e-06
1.28905e-06
1.07448e-07
1.12052e-07
1.18855e-06
1.50977e-06
1.35847e-06
1.34097e-06
1.43193e-06
1.4049e-06
2.0931e-07
2.051e-07
1.30159e-06
1.20179e-06
2.19446e-07
2.10491e-07
1.10502e-06
1.19818e-06
1.62852e-07
1.53801e-07
1.09968e-06
1.21795e-06
9.91464e-08
9.1259e-08
1.11723e-06
1.26214e-06
7.89594e-08
7.35301e-08
1.15883e-06
1.33331e-06
9.9234e-08
9.30792e-08
1.22746e-06
1.34655e-06
1.68162e-07
1.65748e-07
1.24351e-06
1.79173e-06
1.44485e-06
1.42519e-06
1.70826e-06
1.26622e-06
1.86436e-07
1.84096e-07
1.1686e-06
1.11437e-06
1.84368e-07
1.78389e-07
1.02289e-06
1.11702e-06
1.37672e-07
1.31554e-07
1.02257e-06
1.13793e-06
9.14128e-08
8.76888e-08
1.04039e-06
1.18388e-06
7.5997e-08
7.46394e-08
1.0831e-06
1.25923e-06
8.43297e-08
8.00024e-08
1.15528e-06
1.28842e-06
1.48221e-07
1.46511e-07
1.18692e-06
1.77335e-06
1.4063e-06
1.38698e-06
1.69134e-06
1.1863e-06
1.61745e-07
1.58943e-07
1.09226e-06
1.04887e-06
1.63463e-07
1.58362e-07
9.60708e-07
1.05659e-06
1.26349e-07
1.21302e-07
9.65036e-07
1.08066e-06
8.7386e-08
8.43695e-08
9.85501e-07
1.12967e-06
7.29901e-08
7.13558e-08
1.03088e-06
1.20777e-06
7.79808e-08
7.25941e-08
1.10547e-06
1.24275e-06
1.46658e-07
1.44877e-07
1.14276e-06
1.72725e-06
1.36864e-06
1.34962e-06
1.64673e-06
1.14078e-06
1.42791e-07
1.39107e-07
1.04891e-06
1.0082e-06
1.47535e-07
1.42157e-07
9.21856e-07
1.0193e-06
1.14985e-07
1.0954e-07
9.29402e-07
1.04643e-06
7.62548e-08
7.2065e-08
9.52683e-07
1.09818e-06
6.04914e-08
5.67433e-08
1.0006e-06
1.1783e-06
7.07999e-08
6.30873e-08
1.07704e-06
1.21659e-06
1.55075e-07
1.52971e-07
1.11768e-06
1.6947e-06
1.34331e-06
1.32448e-06
1.6152e-06
1.11569e-06
1.29763e-07
1.2527e-07
1.02505e-06
9.85085e-07
1.35772e-07
1.29844e-07
8.997e-07
9.98087e-07
1.04314e-07
9.8042e-08
9.09074e-07
1.0273e-06
6.36172e-08
5.76114e-08
9.34327e-07
1.08084e-06
4.66628e-08
3.98801e-08
9.83941e-07
1.16223e-06
6.58438e-08
5.61987e-08
1.06159e-06
1.20263e-06
1.62744e-07
1.60475e-07
1.10442e-06
1.67611e-06
1.32803e-06
1.30931e-06
1.59726e-06
1.10443e-06
1.22865e-07
1.17878e-07
1.01436e-06
9.74603e-07
1.29274e-07
1.22958e-07
8.89643e-07
9.88449e-07
9.77488e-08
9.08537e-08
8.99831e-07
1.01866e-06
5.51507e-08
4.75384e-08
9.26048e-07
1.07305e-06
3.738e-08
2.7276e-08
9.76472e-07
1.15503e-06
6.34413e-08
5.27908e-08
1.05469e-06
1.19649e-06
1.66673e-07
1.64357e-07
1.09863e-06
1.66788e-06
1.32088e-06
1.30221e-06
1.58935e-06
)
;

boundaryField
{
    interface
    {
        type            calculated;
        value           nonuniform List<scalar> 
192
(
3.43864e-06
2.30149e-06
2.33243e-06
2.44554e-06
2.54937e-06
2.61825e-06
2.39985e-06
1.30926e-06
2.69379e-06
2.17697e-06
2.17842e-06
2.2438e-06
2.33677e-06
2.45283e-06
2.45837e-06
2.40036e-06
2.38042e-06
2.08241e-06
2.09932e-06
2.16101e-06
2.25562e-06
2.38721e-06
2.45362e-06
2.62115e-06
2.16919e-06
1.93538e-06
1.96186e-06
2.02428e-06
2.12e-06
2.25604e-06
2.33954e-06
2.56208e-06
2.04275e-06
1.82825e-06
1.86046e-06
1.92562e-06
2.02376e-06
2.1624e-06
2.25239e-06
2.48699e-06
1.96903e-06
1.76158e-06
1.79693e-06
1.86468e-06
1.96505e-06
2.10534e-06
2.19828e-06
2.43524e-06
1.92794e-06
1.72361e-06
1.76057e-06
1.83004e-06
1.93189e-06
2.0731e-06
2.16747e-06
2.40503e-06
1.90944e-06
1.70641e-06
1.74407e-06
1.81435e-06
1.91691e-06
2.05851e-06
2.15348e-06
2.39134e-06
3.51598e-06
2.38484e-06
2.41722e-06
2.53304e-06
2.63926e-06
2.70967e-06
2.49885e-06
1.45944e-06
3.06133e-06
2.41373e-06
2.37843e-06
2.43844e-06
2.5305e-06
2.6348e-06
2.61842e-06
2.513e-06
3.022e-06
2.37757e-06
2.34141e-06
2.40087e-06
2.49252e-06
2.59633e-06
2.58124e-06
2.48607e-06
3.39053e-06
2.28361e-06
2.31432e-06
2.42854e-06
2.5337e-06
2.60327e-06
2.39887e-06
1.42898e-06
3.27737e-06
2.15349e-06
2.18287e-06
2.29421e-06
2.39627e-06
2.46351e-06
2.24856e-06
1.19416e-06
2.51343e-06
2.00632e-06
2.00586e-06
2.06793e-06
2.1572e-06
2.26975e-06
2.27684e-06
2.24882e-06
2.20641e-06
1.91484e-06
1.92835e-06
1.98589e-06
2.07589e-06
2.20271e-06
2.26961e-06
2.46612e-06
2.00255e-06
1.77436e-06
1.79647e-06
1.85403e-06
1.94446e-06
2.07485e-06
2.15776e-06
2.40866e-06
1.88111e-06
1.67174e-06
1.69917e-06
1.75901e-06
1.85139e-06
1.98384e-06
2.07263e-06
2.33509e-06
1.8105e-06
1.60779e-06
1.63817e-06
1.70032e-06
1.79465e-06
1.92843e-06
2.01985e-06
2.28434e-06
1.77122e-06
1.57136e-06
1.60324e-06
1.66697e-06
1.76263e-06
1.89714e-06
1.98984e-06
2.25476e-06
1.75355e-06
1.55486e-06
1.5874e-06
1.65189e-06
1.74817e-06
1.883e-06
1.97623e-06
2.24136e-06
1.46137e-06
2.50017e-06
2.71308e-06
2.65282e-06
2.57659e-06
2.52353e-06
2.49236e-06
2.47819e-06
2.51435e-06
2.62145e-06
2.6414e-06
2.54529e-06
2.46632e-06
2.41356e-06
2.38165e-06
2.36666e-06
2.48723e-06
2.58413e-06
2.60279e-06
2.50715e-06
2.42851e-06
2.37593e-06
2.34412e-06
2.32918e-06
1.42991e-06
2.39981e-06
2.60683e-06
2.54799e-06
2.47311e-06
2.42096e-06
2.39037e-06
2.37648e-06
)
;
    }
    symmetry
    {
        type            symmetry;
    }
    bottom
    {
        type            calculated;
        value           nonuniform List<scalar> 
32
(
3.70333e-06
2.06118e-06
1.66798e-06
1.49927e-06
1.41025e-06
1.35995e-06
1.33216e-06
1.31968e-06
2.39141e-06
4.70082e-07
2.22137e-07
2.02957e-07
1.84068e-07
1.68036e-07
1.56803e-07
1.5092e-07
2.3649e-06
4.56394e-07
2.11767e-07
1.93948e-07
1.74158e-07
1.57038e-07
1.44886e-07
1.38453e-07
3.58113e-06
1.94289e-06
1.55563e-06
1.39351e-06
1.309e-06
1.26155e-06
1.23541e-06
1.2237e-06
)
;
    }
}


// ************************************************************************* //
