/*--------------------------------*- C++ -*----------------------------------*\
| =========                 |                                                 |
| \\      /  F ield         | OpenFOAM: The Open Source CFD Toolbox           |
|  \\    /   O peration     | Version:  v1912                                 |
|   \\  /    A nd           | Website:  www.openfoam.com                      |
|    \\/     M anipulation  |                                                 |
\*---------------------------------------------------------------------------*/
FoamFile
{
    version     2.0;
    format      ascii;
    class       volSymmTensorField;
    location    "0.53/solid";
    object      epsilon;
}
// * * * * * * * * * * * * * * * * * * * * * * * * * * * * * * * * * * * * * //

dimensions      [0 0 0 0 0 0 0];


internalField   nonuniform List<symmTensor> 
256
(
(-2.7019e-06 1.44281e-07 -5.6686e-08 1.19796e-06 1.56781e-07 -2.8012e-06)
(-4.78537e-07 -5.45059e-08 -2.31315e-08 7.5203e-07 1.55842e-07 -2.50347e-06)
(-4.69024e-07 6.50378e-08 2.26283e-08 7.37744e-07 1.57451e-07 -2.47486e-06)
(-2.57398e-06 -1.3521e-07 5.68334e-08 1.14406e-06 1.62713e-07 -2.72272e-06)
(-2.73107e-06 -7.62517e-09 -8.43015e-08 -3.71156e-07 6.85592e-09 -2.80319e-06)
(-7.97345e-07 -3.02034e-08 -3.73576e-08 -1.51243e-07 1.55003e-08 -2.48902e-06)
(-7.84937e-07 4.08776e-08 3.74802e-08 -1.60273e-07 1.6912e-08 -2.46032e-06)
(-2.59793e-06 1.25237e-08 8.48452e-08 -3.94208e-07 1.16893e-08 -2.72732e-06)
(-2.78281e-06 -2.43636e-08 -8.989e-08 -4.031e-07 -1.10516e-08 -2.85247e-06)
(-8.21329e-07 -2.26426e-08 -4.06082e-08 -2.75455e-07 -9.11829e-09 -2.501e-06)
(-8.0926e-07 3.13164e-08 4.1157e-08 -2.83158e-07 -8.16541e-09 -2.47161e-06)
(-2.64753e-06 2.79026e-08 9.06216e-08 -4.23771e-07 -7.70288e-09 -2.77477e-06)
(-2.83861e-06 -1.40986e-08 -9.27588e-08 -3.43339e-07 -2.20086e-09 -2.92316e-06)
(-7.83305e-07 -1.56615e-08 -4.2033e-08 -3.26135e-07 -3.32647e-09 -2.54889e-06)
(-7.71415e-07 2.21099e-08 4.26895e-08 -3.33121e-07 -2.66359e-09 -2.519e-06)
(-2.70111e-06 1.68251e-08 9.35582e-08 -3.62858e-07 2.18735e-10 -2.84399e-06)
(-2.92598e-06 -1.44853e-09 -9.55919e-08 -3.33313e-07 1.28637e-08 -3.02263e-06)
(-7.72166e-07 -7.56689e-09 -4.35359e-08 -3.66554e-07 1.11425e-08 -2.63579e-06)
(-7.60192e-07 1.20726e-08 4.41739e-08 -3.7332e-07 1.16611e-08 -2.60551e-06)
(-2.78641e-06 3.39249e-09 9.64297e-08 -3.52179e-07 1.47664e-08 -2.94239e-06)
(-3.07359e-06 2.05099e-08 -9.79991e-08 -4.4224e-07 3.86064e-08 -3.16803e-06)
(-8.28294e-07 5.56357e-09 -4.49617e-08 -4.54848e-07 3.76931e-08 -2.77691e-06)
(-8.16383e-07 -3.137e-09 4.55833e-08 -4.61479e-07 3.81489e-08 -2.74626e-06)
(-2.93284e-06 -1.96101e-08 9.89003e-08 -4.60774e-07 4.02265e-08 -3.08683e-06)
(-3.30762e-06 6.46848e-08 -9.76446e-08 -1.09803e-06 8.25136e-08 -3.38879e-06)
(-9.92801e-07 2.73755e-08 -4.49631e-08 -9.80586e-07 8.58196e-08 -3.01449e-06)
(-9.81595e-07 -2.8034e-08 4.56306e-08 -9.83515e-07 8.62299e-08 -2.98367e-06)
(-3.16835e-06 -6.53554e-08 9.86309e-08 -1.1082e-06 8.38869e-08 -3.30717e-06)
(-3.71287e-06 9.15824e-08 -9.11469e-08 -3.79675e-06 1.09336e-07 -3.79576e-06)
(-1.23733e-06 4.25233e-08 -4.20135e-08 -3.5142e-06 1.16938e-07 -3.51242e-06)
(-1.22687e-06 -4.24351e-08 4.26656e-08 -3.48506e-06 1.17274e-07 -3.48331e-06)
(-3.57718e-06 -9.20872e-08 9.20762e-08 -3.71979e-06 1.10356e-07 -3.71926e-06)
(-2.23562e-06 8.93233e-08 -4.17919e-08 5.63981e-07 -4.31628e-08 -4.40047e-07)
(-3.32865e-07 -6.50243e-08 -1.13378e-08 1.93239e-07 2.77067e-08 -3.69727e-07)
(-3.22702e-07 7.12685e-08 1.32937e-08 1.79485e-07 3.24654e-08 -3.68659e-07)
(-2.10441e-06 -8.20153e-08 4.2836e-08 5.13298e-07 -2.86089e-08 -4.38688e-07)
(-2.2636e-06 -1.5819e-08 -6.21665e-08 -2.05425e-07 1.19752e-09 -6.78203e-07)
(-5.64019e-07 -3.26196e-08 -2.3176e-08 -2.78452e-08 3.69609e-08 -5.72408e-07)
(-5.51201e-07 3.82903e-08 2.64401e-08 -3.8171e-08 4.00256e-08 -5.72037e-07)
(-2.13002e-06 1.83974e-08 6.37589e-08 -2.31677e-07 1.11339e-08 -6.79635e-07)
(-2.29059e-06 -2.5135e-08 -6.42883e-08 -2.70013e-07 2.99785e-09 -7.07413e-07)
(-5.72418e-07 -2.32152e-08 -2.48091e-08 -1.65455e-07 1.44309e-08 -5.9124e-07)
(-5.60112e-07 2.72134e-08 2.8533e-08 -1.73359e-07 1.66112e-08 -5.91737e-07)
(-2.15519e-06 2.6593e-08 6.60394e-08 -2.91503e-07 1.03547e-08 -7.11349e-07)
(-2.33024e-06 -1.49843e-08 -6.48062e-08 -2.80147e-07 6.55348e-09 -7.09493e-07)
(-5.32193e-07 -1.63075e-08 -2.46075e-08 -2.69395e-07 9.1767e-09 -5.86877e-07)
(-5.20018e-07 1.89127e-08 2.84212e-08 -2.7619e-07 1.08529e-08 -5.87863e-07)
(-2.19216e-06 1.60756e-08 6.66113e-08 -2.99543e-07 1.22942e-08 -7.14803e-07)
(-2.40925e-06 -2.60469e-09 -6.61224e-08 -2.95122e-07 2.62039e-08 -7.27533e-07)
(-5.18909e-07 -8.5672e-09 -2.52339e-08 -3.30471e-07 2.6345e-08 -5.99665e-07)
(-5.06484e-07 1.00174e-08 2.89959e-08 -3.37001e-07 2.77094e-08 -6.00905e-07)
(-2.26801e-06 3.29552e-09 6.79601e-08 -3.13695e-07 3.08428e-08 -7.33578e-07)
(-2.55843e-06 2.00415e-08 -6.72417e-08 -3.69001e-07 5.73003e-08 -7.79175e-07)
(-5.73239e-07 4.54175e-09 -2.61528e-08 -3.82042e-07 5.68798e-08 -6.47035e-07)
(-5.60653e-07 -4.48237e-09 2.9843e-08 -3.88376e-07 5.80039e-08 -6.48484e-07)
(-2.41437e-06 -2.00954e-08 6.91272e-08 -3.87029e-07 6.10714e-08 -7.85836e-07)
(-2.81587e-06 6.71394e-08 -6.66046e-08 -8.91895e-07 8.3214e-08 -8.97411e-07)
(-7.39781e-07 2.7201e-08 -2.63186e-08 -7.63481e-07 8.37815e-08 -7.65754e-07)
(-7.27724e-07 -2.94005e-08 2.98211e-08 -7.65869e-07 8.45904e-08 -7.67559e-07)
(-2.67161e-06 -6.84833e-08 6.84807e-08 -9.00872e-07 8.59467e-08 -9.05031e-07)
(-3.30882e-06 9.78983e-08 -6.388e-08 -3.3892e-06 8.32082e-08 -1.09911e-06)
(-9.93209e-07 4.52508e-08 -2.6036e-08 -3.01619e-06 8.63538e-08 -9.7887e-07)
(-9.82009e-07 -4.54842e-08 2.87598e-08 -2.98529e-06 8.67374e-08 -9.81239e-07)
(-3.16876e-06 -9.86398e-08 6.53969e-08 -3.30701e-06 8.44578e-08 -1.10816e-06)
(-1.94155e-06 5.37622e-08 -1.69278e-08 3.15723e-07 4.13006e-08 -3.52262e-08)
(-2.3331e-07 -7.9072e-08 -1.05315e-09 7.37773e-10 1.04522e-07 -3.91161e-08)
(-2.23349e-07 8.18259e-08 2.61901e-09 -1.19211e-08 1.08066e-07 -4.03014e-08)
(-1.8142e-06 -4.80578e-08 1.7431e-08 2.70032e-07 5.22281e-08 -3.875e-08)
(-1.99429e-06 -1.92681e-08 -2.37097e-08 -2.33975e-07 5.83965e-08 -1.58844e-07)
(-3.99016e-07 -3.5508e-08 -4.92924e-09 -8.37139e-08 9.00883e-08 -1.66612e-07)
(-3.86256e-07 3.84691e-08 7.49494e-09 -9.39653e-08 9.30383e-08 -1.69133e-07)
(-1.86364e-06 2.07678e-08 2.46506e-08 -2.6008e-07 6.77088e-08 -1.6631e-07)
(-2.02156e-06 -2.37667e-08 -2.25813e-08 -2.37853e-07 4.91966e-08 -2.16765e-07)
(-3.97631e-07 -2.29847e-08 -4.76553e-09 -1.52938e-07 5.97657e-08 -2.26325e-07)
(-3.85299e-07 2.4711e-08 7.46701e-09 -1.6098e-07 6.22041e-08 -2.2982e-07)
(-1.8888e-06 2.43154e-08 2.36171e-08 -2.60027e-07 5.70019e-08 -2.27046e-07)
(-2.05836e-06 -1.46645e-08 -2.13291e-08 -2.30417e-07 4.24482e-08 -2.36542e-07)
(-3.58572e-07 -1.64601e-08 -3.80119e-09 -2.26688e-07 4.50447e-08 -2.46485e-07)
(-3.46301e-07 1.72082e-08 6.40488e-09 -2.33584e-07 4.70931e-08 -2.50637e-07)
(-1.92261e-06 1.50225e-08 2.23518e-08 -2.50418e-07 4.90273e-08 -2.48705e-07)
(-2.13594e-06 -2.82956e-09 -2.10147e-08 -2.32298e-07 5.05111e-08 -2.58172e-07)
(-3.4598e-07 -9.29982e-09 -3.58904e-09 -2.69548e-07 5.08145e-08 -2.67738e-07)
(-3.33353e-07 9.32667e-09 6.06537e-09 -2.76098e-07 5.25512e-08 -2.72319e-07)
(-1.99642e-06 2.98221e-09 2.20165e-08 -2.51246e-07 5.60469e-08 -2.71555e-07)
(-2.28869e-06 2.03301e-08 -2.08172e-08 -2.80693e-07 6.42869e-08 -3.04449e-07)
(-4.0147e-07 3.90706e-09 -3.81737e-09 -2.94246e-07 6.39205e-08 -3.13408e-07)
(-3.88542e-07 -4.82346e-09 6.158e-09 -3.00506e-07 6.53464e-08 -3.18321e-07)
(-2.14529e-06 -2.07277e-08 2.18077e-08 -2.98804e-07 6.88064e-08 -3.18753e-07)
(-2.55916e-06 6.77293e-08 -2.03478e-08 -7.6763e-07 6.22025e-08 -3.80454e-07)
(-5.7119e-07 2.68587e-08 -4.17068e-09 -6.39312e-07 6.14905e-08 -3.89413e-07)
(-5.58646e-07 -2.95835e-08 6.15505e-09 -6.41529e-07 6.24819e-08 -3.94637e-07)
(-2.41405e-06 -6.92356e-08 2.12458e-08 -7.76329e-07 6.54104e-08 -3.95589e-07)
(-3.07607e-06 9.81917e-08 -2.0376e-08 -3.16845e-06 4.14063e-08 -4.42443e-07)
(-8.26991e-07 4.51346e-08 -4.56365e-09 -2.77935e-06 4.02649e-08 -4.51423e-07)
(-8.15194e-07 -4.54628e-08 5.41061e-09 -2.74853e-06 4.06349e-08 -4.56886e-07)
(-2.93361e-06 -9.89501e-08 2.08228e-08 -3.08656e-06 4.2645e-08 -4.5819e-07)
(-1.77146e-06 3.92173e-08 -4.99547e-09 2.26462e-07 6.77087e-08 -9.66575e-10)
(-1.89604e-07 -8.32397e-08 3.20662e-09 -5.68584e-08 1.05145e-07 -1.83208e-08)
(-1.80299e-07 8.37295e-08 -1.86102e-09 -6.85125e-08 1.07681e-07 -1.9261e-08)
(-1.6486e-06 -3.48136e-08 5.31813e-09 1.85013e-07 7.55834e-08 -3.62885e-09)
(-1.82804e-06 -1.95101e-08 -5.85647e-09 -2.73799e-07 8.11447e-08 -7.04404e-08)
(-3.24461e-07 -3.59858e-08 3.97256e-09 -1.38389e-07 1.00048e-07 -1.02768e-07)
(-3.12398e-07 3.72771e-08 -1.72518e-09 -1.48095e-07 1.02423e-07 -1.04926e-07)
(-1.70163e-06 2.03396e-08 6.52048e-09 -2.98563e-07 8.85356e-08 -7.65976e-08)
(-1.85924e-06 -2.17309e-08 -3.98206e-09 -2.46749e-07 7.42525e-08 -1.36841e-07)
(-3.20864e-07 -2.21127e-08 5.01176e-09 -1.73317e-07 8.05321e-08 -1.74156e-07)
(-3.09073e-07 2.25986e-08 -2.72452e-09 -1.81255e-07 8.26819e-08 -1.7717e-07)
(-1.73038e-06 2.18182e-08 4.71021e-09 -2.68873e-07 8.09596e-08 -1.455e-07)
(-1.89829e-06 -1.34828e-08 -2.41947e-09 -2.08399e-07 6.40541e-08 -1.82226e-07)
(-2.86007e-07 -1.59475e-08 6.0209e-09 -2.09166e-07 6.53363e-08 -2.21225e-07)
(-2.74181e-07 1.57799e-08 -3.91996e-09 -2.1614e-07 6.72551e-08 -2.24874e-07)
(-1.76616e-06 1.3495e-08 3.10238e-09 -2.28829e-07 7.00445e-08 -1.92749e-07)
(-1.97747e-06 -2.32108e-09 -1.62071e-09 -1.88532e-07 5.96581e-08 -2.21256e-07)
(-2.76817e-07 -9.33915e-09 6.45652e-09 -2.26963e-07 5.96196e-08 -2.60875e-07)
(-2.64568e-07 8.73445e-09 -4.54603e-09 -2.33616e-07 6.12978e-08 -2.65002e-07)
(-1.84118e-06 2.24269e-09 2.24633e-09 -2.07973e-07 6.48719e-08 -2.33168e-07)
(-2.13281e-06 2.05239e-08 -1.25523e-09 -2.27485e-07 5.52383e-08 -2.66588e-07)
(-3.34803e-07 3.52417e-09 6.39468e-09 -2.42109e-07 5.50145e-08 -3.06259e-07)
(-3.22175e-07 -4.81193e-09 -4.68696e-09 -2.48449e-07 5.63955e-08 -3.10756e-07)
(-1.992e-06 -2.1034e-08 1.82352e-09 -2.46e-07 5.95308e-08 -2.79557e-07)
(-2.40803e-06 6.67848e-08 -1.36132e-09 -7.10645e-07 3.83281e-08 -3.11765e-07)
(-5.05851e-07 2.58715e-08 5.84738e-09 -5.86768e-07 3.78021e-08 -3.51058e-07)
(-4.93491e-07 -2.87759e-08 -4.57794e-09 -5.8907e-07 3.87425e-08 -3.55819e-07)
(-2.26444e-06 -6.83082e-08 1.78937e-09 -7.19667e-07 4.13362e-08 -3.25488e-07)
(-2.92868e-06 9.59916e-08 -2.00162e-09 -3.02622e-06 1.95078e-08 -3.24191e-07)
(-7.60418e-07 4.37166e-08 5.48159e-09 -2.64114e-06 1.77885e-08 -3.62792e-07)
(-7.48659e-07 -4.4128e-08 -5.35338e-09 -2.6106e-06 1.81037e-08 -3.67638e-07)
(-2.7862e-06 -9.67508e-08 1.97822e-09 -2.94508e-06 2.05786e-08 -3.38172e-07)
(-1.67551e-06 3.45811e-08 -1.27133e-09 1.90733e-07 6.38403e-08 -8.57426e-09)
(-1.73734e-07 -8.2237e-08 3.25371e-09 -7.65671e-08 8.27456e-08 -2.0646e-08)
(-1.65014e-07 8.13794e-08 -2.18083e-09 -8.74068e-08 8.4547e-08 -2.13412e-08)
(-1.55599e-06 -3.10585e-08 1.53326e-09 1.52549e-07 6.94088e-08 -1.0581e-08)
(-1.73166e-06 -1.85896e-08 -5.78943e-10 -2.92401e-07 7.50734e-08 -6.13897e-08)
(-2.98111e-07 -3.51054e-08 5.11052e-09 -1.64714e-07 8.44995e-08 -8.45168e-08)
(-2.86764e-07 3.53609e-08 -3.24752e-09 -1.73877e-07 8.6263e-08 -8.62278e-08)
(-1.60861e-06 1.89837e-08 1.1259e-09 -3.15791e-07 8.05111e-08 -6.63194e-08)
(-1.766e-06 -2.0071e-08 9.28005e-10 -2.57631e-07 7.35459e-08 -1.24088e-07)
(-2.96089e-07 -2.12249e-08 6.16411e-09 -1.90072e-07 7.64681e-08 -1.50986e-07)
(-2.84903e-07 2.0956e-08 -4.24598e-09 -1.97813e-07 7.81391e-08 -1.5344e-07)
(-1.64027e-06 1.98843e-08 -3.25162e-10 -2.79373e-07 7.87077e-08 -1.31205e-07)
(-1.80816e-06 -1.237e-08 2.11001e-09 -2.02885e-07 6.51072e-08 -1.79846e-07)
(-2.65751e-07 -1.53952e-08 6.88615e-09 -2.05844e-07 6.54587e-08 -2.07827e-07)
(-2.54441e-07 1.47081e-08 -5.14621e-09 -2.1283e-07 6.70084e-08 -2.10865e-07)
(-1.67892e-06 1.21931e-08 -1.55425e-09 -2.23478e-07 6.99008e-08 -1.88705e-07)
(-1.88969e-06 -1.77556e-09 2.77433e-09 -1.69532e-07 5.51555e-08 -2.27762e-07)
(-2.60217e-07 -9.20315e-09 7.19958e-09 -2.08331e-07 5.50334e-08 -2.56005e-07)
(-2.48432e-07 8.27095e-09 -5.66548e-09 -2.15079e-07 5.64204e-08 -2.59515e-07)
(-1.75601e-06 1.58149e-09 -2.28683e-09 -1.89369e-07 5.94371e-08 -2.38031e-07)
(-2.0467e-06 2.04802e-08 2.97924e-09 -2.0574e-07 4.22494e-08 -2.69692e-07)
(-3.2024e-07 3.21537e-09 7.10684e-09 -2.21059e-07 4.23638e-08 -2.97816e-07)
(-3.08023e-07 -4.68222e-09 -5.80331e-09 -2.27526e-07 4.35115e-08 -3.01699e-07)
(-1.90807e-06 -2.10381e-08 -2.56884e-09 -2.24722e-07 4.58116e-08 -2.8107e-07)
(-2.32265e-06 6.55932e-08 2.63684e-09 -6.86216e-07 2.29359e-08 -2.99425e-07)
(-4.91104e-07 2.49214e-08 6.58265e-09 -5.66224e-07 2.30317e-08 -3.27226e-07)
(-4.79074e-07 -2.79253e-08 -5.70633e-09 -5.6868e-07 2.3807e-08 -3.3135e-07)
(-2.18057e-06 -6.71212e-08 -2.3757e-09 -6.95723e-07 2.54269e-08 -3.11541e-07)
(-2.84032e-06 9.3859e-08 1.98594e-09 -2.9352e-06 1.00991e-08 -3.03359e-07)
(-7.43594e-07 4.2429e-08 6.26061e-09 -2.55772e-06 9.06936e-09 -3.31343e-07)
(-7.32063e-07 -4.2924e-08 -6.35615e-09 -2.52739e-06 9.32221e-09 -3.35497e-07)
(-2.69832e-06 -9.46386e-08 -2.11978e-09 -2.85465e-06 1.09644e-08 -3.15635e-07)
(-1.62054e-06 3.32699e-08 -4.41885e-10 1.74659e-07 4.97389e-08 -1.55917e-08)
(-1.67978e-07 -8.03871e-08 2.09042e-09 -8.47627e-08 5.87688e-08 -2.18626e-08)
(-1.5966e-07 7.8743e-08 -1.32229e-09 -9.50034e-08 5.99774e-08 -2.24242e-08)
(-1.50315e-06 -3.02944e-08 6.43134e-10 1.38792e-07 5.34359e-08 -1.72163e-08)
(-1.67648e-06 -1.76525e-08 2.15142e-10 -2.98175e-07 5.71263e-08 -6.45386e-08)
(-2.89751e-07 -3.41473e-08 3.49151e-09 -1.74607e-07 6.14533e-08 -7.67213e-08)
(-2.78917e-07 3.37788e-08 -2.11323e-09 -1.8335e-07 6.26575e-08 -7.81451e-08)
(-1.55562e-06 1.77789e-08 2.09276e-10 -3.20472e-07 6.08113e-08 -6.8638e-08)
(-1.71294e-06 -1.8994e-08 1.16035e-09 -2.62982e-07 5.78516e-08 -1.22049e-07)
(-2.90072e-07 -2.06144e-08 4.20977e-09 -1.98289e-07 5.90259e-08 -1.36245e-07)
(-2.7933e-07 1.98736e-08 -2.75982e-09 -2.05845e-07 6.01937e-08 -1.38327e-07)
(-1.58926e-06 1.86371e-08 -6.8593e-10 -2.84305e-07 6.14426e-08 -1.28087e-07)
(-1.75753e-06 -1.16413e-08 1.87629e-09 -2.03485e-07 5.22395e-08 -1.78058e-07)
(-2.63167e-07 -1.50538e-08 4.62442e-09 -2.07325e-07 5.22456e-08 -1.92682e-07)
(-2.52241e-07 1.40368e-08 -3.30287e-09 -2.14287e-07 5.33534e-08 -1.95302e-07)
(-1.63015e-06 1.13468e-08 -1.43666e-09 -2.2409e-07 5.56589e-08 -1.85718e-07)
(-1.84091e-06 -1.43303e-09 2.27613e-09 -1.65239e-07 4.26179e-08 -2.27099e-07)
(-2.60303e-07 -9.12913e-09 4.77396e-09 -2.03934e-07 4.25836e-08 -2.41691e-07)
(-2.48858e-07 7.98573e-09 -3.62559e-09 -2.10747e-07 4.3591e-08 -2.44766e-07)
(-1.7089e-06 1.16603e-09 -1.89573e-09 -1.85335e-07 4.57296e-08 -2.36141e-07)
(-1.99875e-06 2.03555e-08 2.34995e-09 -2.0055e-07 2.96688e-08 -2.66074e-07)
(-3.21533e-07 2.98116e-09 4.66482e-09 -2.16032e-07 3.00019e-08 -2.80543e-07)
(-3.09618e-07 -4.57311e-09 -3.72064e-09 -2.2261e-07 3.08414e-08 -2.83985e-07)
(-1.86152e-06 -2.09478e-08 -2.04133e-09 -2.19912e-07 3.22851e-08 -2.7624e-07)
(-2.27399e-06 6.47334e-08 2.04496e-09 -6.7621e-07 1.41406e-08 -2.90877e-07)
(-4.91748e-07 2.43124e-08 4.29103e-09 -5.58438e-07 1.46107e-08 -3.05312e-07)
(-4.79966e-07 -2.73997e-08 -3.69376e-09 -5.61031e-07 1.5178e-08 -3.08986e-07)
(-2.13287e-06 -6.62748e-08 -1.86259e-09 -6.86143e-07 1.5978e-08 -3.01797e-07)
(-2.7879e-06 9.24838e-08 1.54368e-09 -2.87834e-06 5.74745e-09 -2.97349e-07)
(-7.42442e-07 4.16431e-08 4.01944e-09 -2.50627e-06 5.38295e-09 -3.12325e-07)
(-7.31101e-07 -4.22114e-08 -4.1514e-09 -2.47607e-06 5.5677e-09 -3.16015e-07)
(-2.64621e-06 -9.32924e-08 -1.66371e-09 -2.79822e-06 6.38364e-09 -3.08421e-07)
(-1.58993e-06 3.28213e-08 -2.4934e-10 1.67245e-07 3.12204e-08 -1.93814e-08)
(-1.65509e-07 -7.91275e-08 1.04964e-09 -8.83107e-08 3.52988e-08 -2.25451e-08)
(-1.57436e-07 7.70501e-08 -5.90234e-10 -9.81629e-08 3.59944e-08 -2.30359e-08)
(-1.4738e-06 -3.01583e-08 3.75483e-10 1.32846e-07 3.33287e-08 -2.07841e-08)
(-1.64589e-06 -1.70709e-08 7.70371e-11 -2.99196e-07 3.51286e-08 -6.77645e-08)
(-2.86729e-07 -3.35513e-08 1.77907e-09 -1.77827e-07 3.69927e-08 -7.38799e-08)
(-2.76209e-07 3.28333e-08 -9.36881e-10 -1.86292e-07 3.76917e-08 -7.51372e-08)
(-1.52631e-06 1.70467e-08 1.91667e-10 -3.20756e-07 3.72545e-08 -7.13467e-08)
(-1.6836e-06 -1.84016e-08 5.57469e-10 -2.64842e-07 3.59549e-08 -1.21669e-07)
(-2.88773e-07 -2.02872e-08 2.15248e-09 -2.01518e-07 3.63904e-08 -1.28734e-07)
(-2.78307e-07 1.927e-08 -1.25106e-09 -2.08941e-07 3.70765e-08 -1.30593e-07)
(-1.56113e-06 1.79455e-08 -2.53031e-10 -2.85841e-07 3.80585e-08 -1.27016e-07)
(-1.72968e-06 -1.12513e-08 9.17414e-10 -2.05242e-07 3.28053e-08 -1.75027e-07)
(-2.63974e-07 -1.48965e-08 2.34883e-09 -2.09382e-07 3.27639e-08 -1.82197e-07)
(-2.53283e-07 1.3675e-08 -1.52032e-09 -2.16316e-07 3.3423e-08 -1.84562e-07)
(-1.6034e-06 1.08842e-08 -6.32667e-10 -2.25808e-07 3.4839e-08 -1.81906e-07)
(-1.8142e-06 -1.26538e-09 1.11107e-09 -1.66287e-07 2.64127e-08 -2.22337e-07)
(-2.62671e-07 -9.1182e-09 2.40075e-09 -2.04756e-07 2.64477e-08 -2.29418e-07)
(-2.51434e-07 7.83406e-09 -1.68386e-09 -2.11605e-07 2.70531e-08 -2.32224e-07)
(-1.68315e-06 9.49728e-10 -8.6503e-10 -1.86528e-07 2.8286e-08 -2.30568e-07)
(-1.97235e-06 2.02548e-08 1.12854e-09 -2.01261e-07 1.76981e-08 -2.59467e-07)
(-3.24501e-07 2.83695e-09 2.32112e-09 -2.16646e-07 1.80151e-08 -2.66548e-07)
(-3.12767e-07 -4.52153e-09 -1.74116e-09 -2.23298e-07 1.85226e-08 -2.69715e-07)
(-1.83592e-06 -2.08747e-08 -9.31585e-10 -2.20872e-07 1.92861e-08 -2.68826e-07)
(-2.2467e-06 6.4253e-08 9.46273e-10 -6.72499e-07 8.07607e-09 -2.83581e-07)
(-4.9417e-07 2.40058e-08 2.1129e-09 -5.55719e-07 8.5289e-09 -2.9087e-07)
(-4.82538e-07 -2.71594e-08 -1.75623e-09 -5.58405e-07 8.8728e-09 -2.94269e-07)
(-2.10614e-06 -6.58103e-08 -8.32119e-10 -6.82724e-07 9.19702e-09 -2.93714e-07)
(-2.75785e-06 9.17622e-08 6.38223e-10 -2.84532e-06 3.13005e-09 -2.93602e-07)
(-7.43656e-07 4.12561e-08 1.92716e-09 -2.47614e-06 3.08306e-09 -3.01467e-07)
(-7.32433e-07 -4.18786e-08 -2.02039e-09 -2.44603e-06 3.19538e-09 -3.04877e-07)
(-2.61635e-06 -9.25962e-08 -7.12688e-10 -2.76548e-06 3.51874e-09 -3.03896e-07)
(-1.57611e-06 3.26301e-08 -9.09177e-11 1.64313e-07 1.06139e-08 -2.09578e-08)
(-1.6445e-07 -7.85638e-08 3.10416e-10 -8.96078e-08 1.1799e-08 -2.29633e-08)
(-1.56492e-07 7.62949e-08 -1.57672e-10 -9.927e-08 1.2026e-08 -2.34221e-08)
(-1.46056e-06 -3.01091e-08 1.33655e-10 1.30623e-07 1.12985e-08 -2.22563e-08)
(-1.63208e-06 -1.68231e-08 -3.90168e-12 -2.99104e-07 1.18128e-08 -6.93371e-08)
(-2.85499e-07 -3.32974e-08 5.2485e-10 -1.78709e-07 1.23396e-08 -7.31565e-08)
(-2.75127e-07 3.24235e-08 -2.41901e-10 -1.87037e-07 1.25686e-08 -7.43361e-08)
(-1.51311e-06 1.67317e-08 9.55342e-11 -3.20295e-07 1.25069e-08 -7.26696e-08)
(-1.67036e-06 -1.81503e-08 1.38805e-10 -2.65335e-07 1.21123e-08 -1.21491e-07)
(-2.88365e-07 -2.0156e-08 6.36041e-10 -2.02573e-07 1.2225e-08 -1.25846e-07)
(-2.7803e-07 1.90113e-08 -3.30426e-10 -2.09928e-07 1.2451e-08 -1.27599e-07)
(-1.54845e-06 1.76487e-08 -3.41816e-11 -2.86163e-07 1.28041e-08 -1.265e-07)
(-1.71713e-06 -1.10892e-08 2.46186e-10 -2.06377e-07 1.10942e-08 -1.72934e-07)
(-2.64527e-07 -1.48419e-08 6.92117e-10 -2.106e-07 1.10791e-08 -1.77297e-07)
(-2.53948e-07 1.35214e-08 -4.09688e-10 -2.17518e-07 1.12974e-08 -1.79541e-07)
(-1.59136e-06 1.06871e-08 -1.47758e-10 -2.26912e-07 1.17678e-08 -1.79427e-07)
(-1.80215e-06 -1.20106e-09 3.02338e-10 -1.67718e-07 8.90063e-09 -2.18788e-07)
(-2.63915e-07 -9.12523e-09 7.03064e-10 -2.06039e-07 8.92483e-09 -2.23089e-07)
(-2.52776e-07 7.76879e-09 -4.58771e-10 -2.12904e-07 9.12633e-09 -2.25766e-07)
(-1.67155e-06 8.60285e-10 -2.17201e-10 -1.88023e-07 9.52488e-09 -2.26615e-07)
(-1.96039e-06 2.02052e-08 3.04474e-10 -2.02591e-07 5.89738e-09 -2.55051e-07)
(-3.25985e-07 2.77201e-09 6.74944e-10 -2.1787e-07 6.02318e-09 -2.59446e-07)
(-3.14336e-07 -4.50727e-09 -4.7846e-10 -2.24557e-07 6.19265e-09 -2.62482e-07)
(-1.82433e-06 -2.08408e-08 -2.36597e-10 -2.22323e-07 6.42892e-09 -2.64007e-07)
(-2.23422e-06 6.40498e-08 2.4604e-10 -6.71385e-07 2.67141e-09 -2.79388e-07)
(-4.95374e-07 2.38874e-08 6.09552e-10 -5.54948e-07 2.84972e-09 -2.8411e-07)
(-4.8381e-07 -2.70781e-08 -4.89843e-10 -5.5768e-07 2.96481e-09 -2.87378e-07)
(-2.0939e-06 -6.56171e-08 -2.06819e-10 -6.81756e-07 3.04775e-09 -2.89129e-07)
(-2.74398e-06 9.14667e-08 1.42715e-10 -2.83019e-06 1.012e-09 -2.91406e-07)
(-7.44268e-07 4.11066e-08 5.4343e-10 -2.46219e-06 1.02473e-09 -2.96667e-07)
(-7.331e-07 -4.1758e-08 -5.75611e-10 -2.43212e-06 1.06237e-09 -2.99945e-07)
(-2.60255e-06 -9.23151e-08 -1.67443e-10 -2.75049e-06 1.14263e-09 -3.01315e-07)
)
;

boundaryField
{
    interface
    {
        type            calculated;
        value           nonuniform List<symmTensor> 
192
(
(-4.61422e-06 2.28099e-12 1.93863e-11 1.19796e-06 1.56781e-07 -2.8012e-06)
(-4.32244e-06 1.57272e-12 3.08522e-11 -3.71156e-07 6.85592e-09 -2.80319e-06)
(-4.40998e-06 -5.26099e-13 3.43225e-11 -4.031e-07 -1.10516e-08 -2.85247e-06)
(-4.5427e-06 -3.26e-12 3.49437e-11 -3.43339e-07 -2.20086e-09 -2.92316e-06)
(-4.7109e-06 -5.58417e-12 3.43021e-11 -3.33313e-07 1.28637e-08 -3.02263e-06)
(-4.94318e-06 -9.80896e-12 3.31754e-11 -4.4224e-07 3.86064e-08 -3.16803e-06)
(-5.24379e-06 -1.29512e-11 3.04e-11 -1.09803e-06 8.25136e-08 -3.38879e-06)
(-5.751e-06 -2.84768e-11 2.82036e-11 -3.79675e-06 1.09336e-07 -3.79576e-06)
(-3.88334e-06 1.60543e-12 9.59306e-12 5.63981e-07 -4.31628e-08 -4.40047e-07)
(-3.6815e-06 9.99246e-13 1.63862e-11 -2.05425e-07 1.19752e-09 -6.78203e-07)
(-3.73431e-06 -9.11408e-13 1.80437e-11 -2.70013e-07 2.99785e-09 -7.07413e-07)
(-3.8399e-06 -3.73105e-12 1.80008e-11 -2.80147e-07 6.55348e-09 -7.09493e-07)
(-3.99613e-06 -6.21938e-12 1.72362e-11 -2.95122e-07 2.62039e-08 -7.27533e-07)
(-4.2348e-06 -1.09092e-11 1.62006e-11 -3.69001e-07 5.73003e-08 -7.79175e-07)
(-4.57938e-06 -1.44055e-11 1.44095e-11 -8.91895e-07 8.3214e-08 -8.97411e-07)
(-5.24578e-06 -3.0758e-11 1.29489e-11 -3.3892e-06 8.32082e-08 -1.09911e-06)
(-3.41671e-06 1.36682e-12 7.58365e-12 3.15723e-07 4.13006e-08 -3.52262e-08)
(-3.31771e-06 7.25095e-13 1.2819e-11 -2.33975e-07 5.83965e-08 -1.58844e-07)
(-3.37509e-06 -1.17988e-12 1.40702e-11 -2.37853e-07 4.91966e-08 -2.16765e-07)
(-3.47416e-06 -4.18716e-12 1.40063e-11 -2.30417e-07 4.24482e-08 -2.36542e-07)
(-3.62746e-06 -6.94651e-12 1.33875e-11 -2.32298e-07 5.05111e-08 -2.58172e-07)
(-3.87159e-06 -1.21807e-11 1.25496e-11 -2.80693e-07 6.42869e-08 -3.04449e-07)
(-4.23759e-06 -1.62091e-11 1.12268e-11 -7.6763e-07 6.22025e-08 -3.80454e-07)
(-4.94869e-06 -3.37012e-11 1.00849e-11 -3.16845e-06 4.14063e-08 -4.42443e-07)
(-3.13295e-06 1.02357e-12 4.67381e-12 2.26462e-07 6.77087e-08 -9.66575e-10)
(-3.06644e-06 2.55711e-13 8.33974e-12 -2.73799e-07 8.11447e-08 -7.04404e-08)
(-3.13023e-06 -1.65817e-12 9.16933e-12 -2.46749e-07 7.42525e-08 -1.36841e-07)
(-3.22962e-06 -4.73297e-12 9.0446e-12 -2.08399e-07 6.40541e-08 -1.82226e-07)
(-3.3831e-06 -7.62155e-12 8.53778e-12 -1.88532e-07 5.96581e-08 -2.21256e-07)
(-3.62957e-06 -1.31011e-11 7.89549e-12 -2.27485e-07 5.52383e-08 -2.66588e-07)
(-4.00284e-06 -1.7371e-11 7.03638e-12 -7.10645e-07 3.83281e-08 -3.11765e-07)
(-4.7236e-06 -3.51765e-11 6.32134e-12 -3.02622e-06 1.95078e-08 -3.24191e-07)
(-2.96618e-06 8.62066e-13 3.42929e-12 1.90733e-07 6.38403e-08 -8.57426e-09)
(-2.90886e-06 -2.91725e-14 6.12006e-12 -2.92401e-07 7.50734e-08 -6.13897e-08)
(-2.97623e-06 -2.00594e-12 6.73337e-12 -2.57631e-07 7.35459e-08 -1.24088e-07)
(-3.07752e-06 -5.16481e-12 6.64114e-12 -2.02885e-07 6.51072e-08 -1.79846e-07)
(-3.23236e-06 -8.18456e-12 6.26707e-12 -1.69532e-07 5.51555e-08 -2.27762e-07)
(-3.48001e-06 -1.38738e-11 5.78787e-12 -2.0574e-07 4.22494e-08 -2.69692e-07)
(-3.85452e-06 -1.83658e-11 5.17898e-12 -6.86216e-07 2.29359e-08 -2.99425e-07)
(-4.57246e-06 -3.64764e-11 4.65677e-12 -2.9352e-06 1.00991e-08 -3.03359e-07)
(-2.86815e-06 7.35115e-13 2.10733e-12 1.74659e-07 4.97389e-08 -1.55917e-08)
(-2.81411e-06 -2.57178e-13 3.87958e-12 -2.98175e-07 5.71263e-08 -6.45386e-08)
(-2.88329e-06 -2.28699e-12 4.28578e-12 -2.62982e-07 5.78516e-08 -1.22049e-07)
(-2.98624e-06 -5.49664e-12 4.21515e-12 -2.03485e-07 5.22395e-08 -1.78058e-07)
(-3.14234e-06 -8.59173e-12 3.95866e-12 -1.65239e-07 4.26179e-08 -2.27099e-07)
(-3.3904e-06 -1.43907e-11 3.63608e-12 -2.0055e-07 2.96688e-08 -2.66074e-07)
(-3.76395e-06 -1.90009e-11 3.25465e-12 -6.7621e-07 1.41406e-08 -2.90877e-07)
(-4.47699e-06 -3.72706e-11 2.9355e-12 -2.87834e-06 5.74745e-09 -2.97349e-07)
(-2.81294e-06 6.74237e-13 1.2394e-12 1.67245e-07 3.12204e-08 -1.93814e-08)
(-2.76039e-06 -3.87372e-13 2.2781e-12 -2.99196e-07 3.51286e-08 -6.77645e-08)
(-2.83047e-06 -2.46375e-12 2.51814e-12 -2.64842e-07 3.59549e-08 -1.21669e-07)
(-2.93448e-06 -5.71408e-12 2.47767e-12 -2.05242e-07 3.28053e-08 -1.75027e-07)
(-3.09138e-06 -8.8657e-12 2.32893e-12 -1.66287e-07 2.64127e-08 -2.22337e-07)
(-3.33945e-06 -1.47408e-11 2.13796e-12 -2.01261e-07 1.76981e-08 -2.59467e-07)
(-3.71172e-06 -1.94347e-11 1.92016e-12 -6.72499e-07 8.07607e-09 -2.83581e-07)
(-4.42094e-06 -3.7821e-11 1.7287e-12 -2.84532e-06 3.13005e-09 -2.93602e-07)
(-2.78793e-06 6.35444e-13 3.68616e-13 1.64313e-07 1.06139e-08 -2.09578e-08)
(-2.73601e-06 -4.60957e-13 7.01448e-13 -2.99104e-07 1.18128e-08 -6.93371e-08)
(-2.80646e-06 -2.5569e-12 7.79202e-13 -2.65335e-07 1.21123e-08 -1.21491e-07)
(-2.91097e-06 -5.82162e-12 7.64706e-13 -2.06377e-07 1.10942e-08 -1.72934e-07)
(-3.06823e-06 -8.99681e-12 7.16219e-13 -1.67718e-07 8.90063e-09 -2.18788e-07)
(-3.31623e-06 -1.49009e-11 6.53891e-13 -2.02591e-07 5.89738e-09 -2.55051e-07)
(-3.68771e-06 -1.96335e-11 5.87985e-13 -6.71385e-07 2.67141e-09 -2.79388e-07)
(-4.39497e-06 -3.80692e-11 5.27259e-13 -2.83019e-06 1.012e-09 -2.91406e-07)
(-2.7019e-06 1.44281e-07 -2.7791e-11 1.19796e-06 -6.17621e-12 -4.79495e-06)
(-2.73107e-06 -7.62517e-09 -4.63396e-11 -3.71156e-07 -6.82338e-12 -4.48705e-06)
(-2.78281e-06 -2.43636e-08 -5.25679e-11 -4.031e-07 -5.25961e-12 -4.57583e-06)
(-2.83861e-06 -1.40986e-08 -5.42963e-11 -3.43339e-07 -3.66928e-12 -4.71608e-06)
(-2.92598e-06 -1.44853e-09 -5.45592e-11 -3.33313e-07 -3.04371e-12 -4.89023e-06)
(-3.07359e-06 2.05099e-08 -5.48004e-11 -4.4224e-07 -3.33143e-12 -5.12332e-06)
(-3.30762e-06 6.46848e-08 -5.52074e-11 -1.09803e-06 -4.11598e-12 -5.42389e-06)
(-3.71287e-06 9.15824e-08 -5.98251e-11 -3.79675e-06 -5.52352e-12 -5.93701e-06)
(-4.78537e-07 -5.45059e-08 -1.72915e-11 7.5203e-07 -3.58689e-12 -4.32888e-06)
(-7.97345e-07 -3.02034e-08 -3.23757e-11 -1.51243e-07 -4.81075e-12 -4.051e-06)
(-8.21329e-07 -2.26426e-08 -3.69592e-11 -2.75455e-07 -3.65782e-12 -4.08436e-06)
(-7.83305e-07 -1.56615e-08 -3.79754e-11 -3.26135e-07 -1.98432e-12 -4.19079e-06)
(-7.72166e-07 -7.56689e-09 -3.81319e-11 -3.66554e-07 -9.68694e-13 -4.34879e-06)
(-8.28294e-07 5.56357e-09 -3.86609e-11 -4.54848e-07 -4.72686e-13 -4.5805e-06)
(-9.92801e-07 2.73755e-08 -4.01777e-11 -9.80586e-07 -5.731e-13 -4.91402e-06)
(-1.23733e-06 4.25233e-08 -4.64367e-11 -3.5142e-06 -1.13211e-12 -5.58755e-06)
(-4.69024e-07 6.50378e-08 -1.78329e-11 7.37744e-07 -2.45508e-12 -4.27508e-06)
(-7.84937e-07 4.08776e-08 -3.35525e-11 -1.60273e-07 -3.52034e-12 -3.99698e-06)
(-8.0926e-07 3.13164e-08 -3.85694e-11 -2.83158e-07 -2.57477e-12 -4.02822e-06)
(-7.71415e-07 2.21099e-08 -3.97444e-11 -3.33121e-07 -8.64845e-13 -4.13331e-06)
(-7.60192e-07 1.20726e-08 -3.98325e-11 -3.7332e-07 3.89198e-13 -4.29044e-06)
(-8.16383e-07 -3.137e-09 -4.00794e-11 -4.61479e-07 1.40488e-12 -4.52128e-06)
(-9.81595e-07 -2.8034e-08 -4.11012e-11 -9.83515e-07 1.99197e-12 -4.85411e-06)
(-1.22687e-06 -4.24351e-08 -4.69378e-11 -3.48506e-06 2.04346e-12 -5.53027e-06)
(-2.57398e-06 -1.3521e-07 -2.05247e-11 1.14406e-06 -1.91949e-12 -4.64467e-06)
(-2.59793e-06 1.25237e-08 -3.91942e-11 -3.94208e-07 -2.74408e-12 -4.34049e-06)
(-2.64753e-06 2.79026e-08 -4.55114e-11 -4.23771e-07 -1.80901e-12 -4.42356e-06)
(-2.70111e-06 1.68251e-08 -4.70943e-11 -3.62858e-07 -3.3514e-14 -4.55996e-06)
(-2.78641e-06 3.39249e-09 -4.71747e-11 -3.52179e-07 1.29578e-12 -4.73158e-06)
(-2.93284e-06 -1.96101e-08 -4.74173e-11 -4.60774e-07 2.56582e-12 -4.96236e-06)
(-3.16835e-06 -6.53554e-08 -4.79031e-11 -1.1082e-06 3.54425e-12 -5.26106e-06)
(-3.57718e-06 -9.20872e-08 -5.38459e-11 -3.71979e-06 4.526e-12 -5.78244e-06)
(-4.3774e-06 5.8343e-12 6.9811e-12 1.14406e-06 1.62713e-07 -2.72272e-06)
(-4.08096e-06 6.02302e-12 1.30271e-11 -3.94208e-07 1.16893e-08 -2.72732e-06)
(-4.16354e-06 2.94266e-12 1.47218e-11 -4.23771e-07 -7.70288e-09 -2.77477e-06)
(-4.29148e-06 -8.33054e-13 1.52278e-11 -3.62858e-07 2.18735e-10 -2.84399e-06)
(-4.4557e-06 -2.78122e-12 1.53904e-11 -3.52179e-07 1.47664e-08 -2.94239e-06)
(-4.6855e-06 -5.59669e-12 1.65284e-11 -4.60774e-07 4.02265e-08 -3.08683e-06)
(-4.98767e-06 -5.41368e-12 1.71808e-11 -1.1082e-06 8.38869e-08 -3.30717e-06)
(-5.50053e-06 -2.00777e-11 2.05707e-11 -3.71979e-06 1.10356e-07 -3.71926e-06)
(-3.64126e-06 2.28634e-12 -1.09939e-12 5.13298e-07 -2.86089e-08 -4.38688e-07)
(-3.43996e-06 2.34631e-12 2.57349e-13 -2.31677e-07 1.11339e-08 -6.79635e-07)
(-3.48812e-06 6.35583e-13 1.17869e-13 -2.91503e-07 1.03547e-08 -7.11349e-07)
(-3.58807e-06 -1.71148e-12 4.66971e-14 -2.99543e-07 1.22942e-08 -7.14803e-07)
(-3.7385e-06 -2.51485e-12 3.23553e-13 -3.13695e-07 3.08428e-08 -7.33578e-07)
(-3.97185e-06 -4.42886e-12 1.68792e-12 -3.87029e-07 6.10714e-08 -7.85836e-07)
(-4.31497e-06 -2.66585e-12 3.28699e-12 -9.00872e-07 8.59467e-08 -9.05031e-07)
(-4.98806e-06 -1.67792e-11 6.17495e-12 -3.30701e-06 8.44578e-08 -1.10816e-06)
(-3.18191e-06 1.23081e-12 2.02607e-13 2.70032e-07 5.22281e-08 -3.875e-08)
(-3.08192e-06 9.67973e-13 2.16418e-12 -2.6008e-07 6.77088e-08 -1.6631e-07)
(-3.13423e-06 -1.70847e-13 2.7292e-12 -2.60027e-07 5.70019e-08 -2.27046e-07)
(-3.22719e-06 -1.87227e-12 2.9934e-12 -2.50418e-07 4.90273e-08 -2.48705e-07)
(-3.37367e-06 -2.0388e-12 3.33607e-12 -2.51246e-07 5.60469e-08 -2.71555e-07)
(-3.61066e-06 -3.49686e-12 4.33908e-12 -2.98804e-07 6.88064e-08 -3.18753e-07)