/*--------------------------------*- C++ -*----------------------------------*\
| =========                 |                                                 |
| \\      /  F ield         | OpenFOAM: The Open Source CFD Toolbox           |
|  \\    /   O peration     | Version:  v1912                                 |
|   \\  /    A nd           | Website:  www.openfoam.com                      |
|    \\/     M anipulation  |                                                 |
\*---------------------------------------------------------------------------*/
FoamFile
{
    version     2.0;
    format      ascii;
    class       volVectorField;
    location    "0.53/solid";
    object      heatFlux;
}
// * * * * * * * * * * * * * * * * * * * * * * * * * * * * * * * * * * * * * //

dimensions      [1 0 -3 0 0 0 0];


internalField   nonuniform List<vector> 
256
(
(-70414.1 62564.9 -74805.4)
(-12735.4 34846.8 -72069)
(12026.2 34595.9 -71080.4)
(65798.6 61282.6 -71783.1)
(-68749.3 7047.39 -73349.4)
(-15233.6 4205.57 -72700.5)
(14409.6 4175.88 -71654.5)
(63888 6926.97 -70193.2)
(-70014.3 1534.36 -74689.1)
(-15606.9 859.721 -74167.1)
(14747.6 848.675 -73074.6)
(65042.9 1485.93 -71409.1)
(-71949.7 1696.19 -76649.9)
(-15919.3 925.302 -76155.8)
(15035.8 918.801 -75034.9)
(66875.4 1662.13 -73290.4)
(-74800.4 2903.41 -79514.8)
(-16384.3 1709.81 -79153.6)
(15484.5 1705.52 -78014.8)
(69641 2882.44 -76103.2)
(-79135.4 6844.32 -83892)
(-17117.2 5040.83 -83985.1)
(16208.5 5028.4 -82830.2)
(73919.6 6818.42 -80435.1)
(-84831.9 25994.1 -89789.6)
(-18200.2 24344.7 -91134.2)
(17262 24204.7 -89958.3)
(79597.9 25627.4 -86274.7)
(-82954.8 88652.3 -88598.9)
(-18906.6 92309.5 -92268.2)
(17491.2 91158 -91125.4)
(77563.8 85234 -85212)
(-65264.3 31716.4 -16716.7)
(-11100.1 7101.63 -14056.1)
(10785.2 7077.98 -13945.3)
(60822.8 31083.3 -16397.1)
(-65858 3875.96 -20153.5)
(-13538.4 1078.5 -17270.1)
(13196.4 1077.49 -17133.9)
(61255.7 3836.03 -19761.3)
(-67266.1 834.174 -20621.1)
(-13898.6 180.707 -17710.4)
(13542.8 178.306 -17567.8)
(62556.7 807.137 -20212.1)
(-69233.2 927.192 -20969.1)
(-14194.2 170.787 -18034.2)
(13822.8 168.139 -17888.8)
(64411.4 899.155 -20554.6)
(-72224.9 1707.9 -21481.6)
(-14657.6 458.044 -18538.4)
(14271.1 455.185 -18391.9)
(67292.4 1682.65 -21068.8)
(-77036.2 4956.53 -22302)
(-15446.9 2857.37 -19417.5)
(15047.4 2844.8 -19271.1)
(72002.9 4918.44 -21898.1)
(-84050.2 23690.1 -23676.3)
(-16769.3 21078.3 -21072.8)
(16332.2 20931.2 -20927.5)
(78948.3 23289.9 -23288)
(-84874.8 89875.9 -25976.7)
(-18205.8 91201.7 -24336.5)
(17259.1 90010.8 -24199.1)
(79599.1 86310.5 -25624.3)
(-58005.9 25694.7 -3515.21)
(-9964.02 3520.68 -1737.89)
(9685.18 3516.65 -1728.08)
(53684.5 25124.3 -3476.37)
(-58856.8 3143.02 -4345.89)
(-12214.1 551.198 -2266.76)
(11918.4 553.32 -2253.92)
(54386.4 3112 -4296.81)
(-60200.7 718.788 -4439.48)
(-12553.7 95.5284 -2329.35)
(12246 93.7976 -2315.94)
(55623.2 692.643 -4388.96)
(-62096.4 835.698 -4484.05)
(-12839.1 97.289 -2360.31)
(12515.5 94.7148 -2346.76)
(57400.5 805.361 -4434.19)
(-65034.3 1570.5 -4542)
(-13294.7 326.511 -2408.14)
(12954.1 323.251 -2394.72)
(60210.2 1538.9 -4495.14)
(-69850.5 4649.57 -4638.82)
(-14086.3 2506.5 -2505.45)
(13727.9 2492.84 -2492.53)
(64891 4599.23 -4598.66)
(-77090 22319.4 -4945.18)
(-15451.4 19425.8 -2856.04)
(15046.8 19276.7 -2844.29)
(72007.4 21901.2 -4917.73)
(-79234.3 84027.9 -6823.26)
(-17129 84092.4 -5032.13)
(16203.3 82912.7 -5022.52)
(73924.9 80491.8 -6814.26)
(-53417.4 23855.3 -1249.65)
(-9312.95 3096.98 -228.475)
(9046.77 3095.99 -226.385)
(49201.4 23310.1 -1229.77)
(-54243.9 2951.69 -1501.27)
(-11446.4 487.046 -298.896)
(11166.4 489.63 -296.151)
(49886 2923.44 -1476.86)
(-55542.4 696.01 -1524.81)
(-11775 87.1539 -306.232)
(11483.2 85.4614 -303.413)
(51078.4 669.752 -1499.98)
(-57403.6 824.679 -1531.2)
(-12056.9 91.9976 -308.442)
(11749 89.3509 -305.641)
(52817.6 792.975 -1506.88)
(-60313.8 1553.13 -1537.29)
(-12510.3 312.907 -311.815)
(12184.1 309.424 -309.104)
(55588.8 1518.18 -1514.53)
(-65106.8 4553.34 -1554.26)
(-13300.6 2409.47 -325.36)
(12954.2 2395.23 -322.889)
(60224.9 4495.85 -1535.05)
(-72354.5 21505.6 -1689.67)
(-14668.4 18551.6 -455.947)
(14270.5 18401.2 -454.117)
(67312 21074.3 -1678.09)
(-74979.4 79724.9 -2868.3)
(-16405.1 79322.4 -1694.25)
(15477 78146.1 -1693.93)
(69660.5 76195.3 -2870.54)
(-50688 22943.8 -655.971)
(-8940.75 2993.31 -67.8825)
(8683.88 2994.11 -66.5812)
(46545.5 22417.6 -641.865)
(-51490.8 2867.86 -775.927)
(-11008.9 473.441 -86.0566)
(10740.5 476.291 -84.344)
(47211.2 2841.79 -758.458)
(-52768.2 688.854 -785.161)
(-11332.3 85.983 -87.5271)
(11052.2 84.3085 -85.7705)
(48383.4 662.632 -767.332)
(-54615.7 823.221 -785.992)
(-11613.5 91.7065 -87.5754)
(11317.1 89.0243 -85.8286)
(50106.3 790.81 -768.426)
(-57513.5 1547.44 -786.724)
(-12066.5 309.593 -87.7785)
(11751.3 306.003 -86.0762)
(52858.3 1510.72 -770.013)
(-62283.3 4497.19 -795.609)
(-12854.9 2362.36 -92.579)
(12518.2 2347.83 -90.9974)
(57457.9 4435.67 -780.851)
(-69485.4 21005.4 -879.972)
(-14215.9 18056.9 -161.789)
(13824.6 17905.7 -160.551)
(64476.8 20565.7 -869.638)
(-72256.5 76984.3 -1607.62)
(-15954.7 76432.8 -879.119)
(15027.1 75256.5 -878.819)
(66937.7 73451.5 -1606.3)
(-49051 22423.4 -372.997)
(-8723.56 2943.04 -34.4185)
(8472.78 2945.06 -33.5723)
(44952.2 21909.8 -364.136)
(-49841.7 2822.5 -438.625)
(-10754.8 467.401 -43.0399)
(10494 470.441 -41.9163)
(45608.9 2797.97 -427.518)
(-51109.5 685.946 -443.003)
(-11075.6 85.6351 -43.6241)
(10803.4 83.9768 -42.4677)
(46771.8 659.784 -431.629)
(-52951.2 823.116 -442.841)
(-11356.8 91.7462 -43.5336)
(11068.1 89.0452 -42.3814)
(48487.1 790.293 -431.616)
(-55841.6 1543.52 -443.115)
(-11809.7 307.903 -43.5452)
(11501.9 304.255 -42.4176)
(51227.2 1505.76 -432.385)
(-60590.1 4460.09 -449.6)
(-12596 2335.46 -46.1895)
(12266 2320.76 -45.1277)
(55797.5 4396.22 -439.985)
(-67740.2 20693.6 -503.241)
(-13949 17765 -85.6094)
(13562.7 17613.3 -84.7292)
(62750.5 20248.9 -496.17)
(-70541.6 75251.5 -945.428)
(-15676.3 74660.2 -504.764)
(14749.8 73483.4 -504.396)
(65220.1 71714.6 -943.766)
(-48111.5 22132.2 -194.693)
(-8601.33 2915.85 -17.5091)
(8354.17 2918.63 -17.0345)
(44036.9 21626 -189.873)
(-48896.1 2797.85 -228.257)
(-10612.2 464.235 -21.7989)
(10356 467.396 -21.1644)
(44689.2 2774.3 -222.158)
(-50159.4 684.637 -230.31)
(-10931.8 85.4893 -22.0661)
(10664.2 83.8434 -21.411)
(45847.8 658.534 -224.043)
(-51998.3 823.109 -230.096)
(-11213 91.7854 -22.0018)
(10929 89.0743 -21.3485)
(47559.1 790.055 -223.904)
(-54883.6 1540.69 -230.345)
(-11665.8 306.937 -22.0094)
(11362.5 303.257 -21.3691)
(50291.5 1502.35 -224.417)
(-59615.9 4437.06 -234.426)
(-12450.5 2320.3 -23.4179)
(12124.4 2305.52 -22.8116)
(54840.9 4371.88 -229.084)
(-66725.7 20509.6 -264.445)
(-13797.4 17598.3 -44.0604)
(13414.1 17446.4 -43.543)
(61745.8 20062 -260.428)
(-69523.4 74217.6 -504.377)
(-15513.6 73620.4 -266.565)
(14588.1 72442.9 -266.3)
(64199 70677.3 -503.243)
(-47680.3 22000.5 -60.6789)
(-8545.9 2903.73 -5.40466)
(8300.42 2906.86 -5.2519)
(43616.5 21497.7 -59.153)
(-48462.3 2786.88 -71.0386)
(-10547.7 462.844 -6.71688)
(10293.6 466.064 -6.51194)
(44267 2763.81 -69.097)
(-49723.7 684.107 -71.6483)
(-10866.7 85.4321 -6.79573)
(10601.4 83.7928 -6.58375)
(45423.7 658.038 -69.6485)
(-51561.4 823.082 -71.5695)
(-11148 91.8029 -6.77413)
(10866.2 89.0871 -6.56261)
(47133.2 789.92 -69.5927)
(-54444.1 1539.19 -71.6757)
(-11600.7 306.487 -6.77828)
(11299.5 302.792 -6.57103)
(49861.7 1500.58 -69.7837)
(-59167.7 4425.99 -73.0692)
(-12384.4 2313.4 -7.2238)
(12060.3 2298.58 -7.02723)
(54400.4 4360.21 -71.3631)
(-66256.1 20423.7 -82.7438)
(-13728.1 17521.9 -13.6735)
(13346.3 17369.9 -13.5038)
(61280.2 19974.7 -81.4538)
(-69046.7 73731.7 -158.958)
(-15438.2 73135.9 -83.6656)
(14513.1 71958.1 -83.5719)
(63720.3 70189.6 -158.577)
)
;

boundaryField
{
    interface
    {
        type            calculated;
        value           nonuniform List<vector> 
192
(
(-115586 62564.9 -74805.4)
(-107305 7047.39 -73349.4)
(-109102 1534.36 -74689.1)
(-112356 1696.19 -76649.9)
(-117133 2903.41 -79514.8)
(-124341 6844.32 -83892)
(-133589 25994.1 -89789.6)
(-128681 88652.3 -88598.9)
(-108352 31716.4 -16716.7)
(-104663 3875.96 -20153.5)
(-106761 834.174 -20621.1)
(-110106 927.192 -20969.1)
(-115166 1707.9 -21481.6)
(-123213 4956.53 -22302)
(-134618 23690.1 -23676.3)
(-133666 89875.9 -25976.7)
(-96090.4 25694.7 -3515.21)
(-93286.9 3143.02 -4345.89)
(-95296.5 718.788 -4439.48)
(-98519.6 835.698 -4484.05)
(-103487 1570.5 -4542)
(-111540 4649.57 -4638.82)
(-123312 22319.4 -4945.18)
(-124520 84027.9 -6823.26)
(-88212.9 23855.3 -1249.65)
(-85593 2951.69 -1501.27)
(-87533.7 696.01 -1524.81)
(-90694.6 824.679 -1531.2)
(-95611.1 1553.13 -1537.29)
(-103621 4553.34 -1554.26)
(-115405 21505.6 -1689.67)
(-117458 79724.9 -2868.3)
(-83496.9 22943.8 -655.971)
(-80959.6 2867.86 -775.927)
(-82868.5 688.854 -785.161)
(-86003.6 823.221 -785.992)
(-90896.2 1547.44 -786.724)
(-98863.1 4497.19 -795.609)
(-110570 21005.4 -879.972)
(-112913 76984.3 -1607.62)
(-80656.3 22423.4 -372.997)
(-78168.3 2822.5 -438.625)
(-80063.2 685.946 -443.003)
(-83186.7 823.116 -442.841)
(-88064.7 1543.52 -443.115)
(-95993.2 4460.09 -449.6)
(-107612 20693.6 -503.241)
(-110039 75251.5 -945.428)
(-79021.1 22132.2 -194.693)
(-76561.3 2797.85 -228.257)
(-78449.7 684.637 -230.31)
(-81567.5 823.109 -230.096)
(-86435.5 1540.69 -230.345)
(-94335.1 4437.06 -234.426)
(-105886 20509.6 -264.445)
(-108328 74217.6 -504.377)
(-78269.4 22000.5 -60.6789)
(-75822.4 2786.88 -71.0386)
(-77708.1 684.107 -71.6483)
(-80823.3 823.082 -71.5695)
(-85686.2 1539.19 -71.6757)
(-93570.4 4425.99 -73.0692)
(-105085 20423.7 -82.7438)
(-107525 73731.7 -158.958)
(-70414.1 62564.9 -121542)
(-68749.3 7047.39 -113070)
(-70014.3 1534.36 -114967)
(-71949.7 1696.19 -118271)
(-74800.4 2903.41 -123080)
(-79135.4 6844.32 -130364)
(-84831.9 25994.1 -139854)
(-82954.8 88652.3 -135170)
(-12735.4 34846.8 -119136)
(-15233.6 4205.57 -114913)
(-15606.9 859.721 -117078)
(-15919.3 925.302 -120465)
(-16384.3 1709.81 -125542)
(-17117.2 5040.83 -133620)
(-18200.2 24344.7 -145136)
(-18906.6 92309.5 -143654)
(12026.2 34595.9 -117363)
(14409.6 4175.88 -113071)
(14747.6 848.675 -115155)
(15035.8 918.801 -118491)
(15484.5 1705.52 -123534)
(16208.5 5028.4 -131581)
(17262 24204.7 -143054)
(17491.2 91158 -141624)
(65798.6 61282.6 -116082)
(63888 6926.97 -107472)
(65042.9 1485.93 -109152)
(66875.4 1662.13 -112309)
(69641 2882.44 -117014)
(73919.6 6818.42 -124198)
(79597.9 25627.4 -133558)
(77563.8 85234 -129077)
(107316 61282.6 -71783.1)
(98683.2 6926.97 -70193.2)
(100303 1485.93 -71409.1)
(103383 1662.13 -73290.4)
(108012 2882.44 -76103.2)
(115118 6818.42 -80435.1)
(124346 25627.4 -86274.7)
(119561 85234 -85212)
(100051 31083.3 -16397.1)
(96095 3836.03 -19761.3)
(98002.2 807.137 -20212.1)
(101149 899.155 -20554.6)
(106011 1682.65 -21068.8)
(113877 4918.44 -21898.1)
(125176 23289.9 -23288)
(124352 86310.5 -25624.3)
(87991.9 25124.3 -3476.37)
(84934.6 3112 -4296.81)
(86751.9 692.643 -4388.96)
(89765.1 805.361 -4434.19)
(94504.7 1538.9 -4495.14)
(102315 4599.23 -4598.66)
(113886 21901.2 -4917.73)
(115134 80491.8 -6814.26)
(80305.3 23310.1 -1229.77)
(77441.3 2923.44 -1476.86)
(79191.7 669.752 -1499.98)
(82136 792.975 -1506.88)
(86805.1 1518.18 -1514.53)
(94533.1 4495.85 -1535.05)
(106050 21074.3 -1678.09)
(108058 76195.3 -2870.54)
(75720.7 22417.6 -641.865)
(72945.7 2841.79 -758.458)
(74665.5 662.632 -767.332)
(77579.2 790.81 -768.426)
(82211.7 1510.72 -770.013)
(89872.9 4435.67 -780.851)
(101273 20565.7 -869.638)
(103512 73451.5 -1606.3)
(72957.4 21909.8 -364.136)
(70235.5 2797.97 -427.518)
(71941.6 659.784 -431.629)
(74840.3 790.293 -431.616)
(79449.9 1505.76 -432.385)
(87057.9 4396.22 -439.985)
(98345.5 20248.9 -496.17)
(100632 71714.6 -943.766)
(71364.7 21626 -189.873)
(68672.9 2774.3 -222.158)
(70372.6 658.534 -224.043)
(73263.3 790.055 -223.904)
(77858.1 1502.35 -224.417)
(85428.7 4371.88 -229.084)
(96634 20062 -260.428)
(98913.6 70677.3 -503.243)
(70631.6 21497.7 -59.153)
(67953.6 2763.81 -69.097)
(69650.5 658.038 -69.6485)
(72537.6 789.92 -69.5927)
(77124.9 1500.58 -69.7837)
(84676.2 4360.21 -71.3631)
(95838.7 19974.7 -81.4538)
(98106.3 70189.6 -158.577)
(-82954.8 135258 -88598.9)
(-84874.8 140009 -25976.7)
(-79234.3 130610 -6823.26)
(-74979.4 123463 -2868.3)
(-72256.5 118880 -1607.62)
(-70541.6 115972 -945.428)
(-69523.4 114231 -504.377)
(-69046.7 113412 -158.958)
(-18906.6 143727 -92268.2)
(-18205.8 145262 -24336.5)
(-17129 133820 -5032.13)
(-16405.1 125855 -1694.25)
(-15954.7 120977 -879.119)
(-15676.3 117965 -504.764)
(-15513.6 116191 -266.565)
(-15438.2 115362 -83.6656)
(17491.2 141682 -91125.4)
(17259.1 143152 -24199.1)
(16203.3 131735 -5022.52)
(15477 123779 -1693.93)
(15027.1 118902 -878.819)
(14749.8 115890 -504.396)
(14588.1 114115 -266.3)
(14513.1 113285 -83.5719)
(77563.8 129117 -85212)
(79599.1 133625 -25624.3)
(73924.9 124306 -6814.26)
(69660.5 117188 -2870.54)
(66937.7 112610 -1606.3)
(65220.1 109700 -943.766)
(64199 107957 -503.243)
(63720.3 107135 -158.577)
)
;
    }
    symmetry
    {
        type            symmetry;
    }
    bottom
    {
        type            calculated;
        value           nonuniform List<vector> 
32
(
(-70414.1 112772 -74805.4)
(-65264.3 56635 -16716.7)
(-58005.9 45904.8 -3515.21)
(-53417.4 42574.2 -1249.65)
(-50688 40906.2 -655.971)
(-49051 39950.3 -372.997)
(-48111.5 39414.2 -194.693)
(-47680.3 39171.5 -60.6789)
(-12735.4 62286.4 -72069)
(-11100.1 12282.1 -14056.1)
(-9964.02 6062.13 -1737.89)
(-9312.95 5330.51 -228.475)
(-8940.75 5148.23 -67.8825)
(-8723.56 5058.98 -34.4185)
(-8601.33 5010.56 -17.5091)
(-8545.9 4988.94 -5.40466)
(12026.2 61829.9 -71080.4)
(10785.2 12234.7 -13945.3)
(9685.18 6048.76 -1728.08)
(9046.77 5322.39 -226.385)
(8683.88 5143.22 -66.5812)
(8472.78 5056.06 -33.5723)
(8354.17 5008.93 -17.0345)
(8300.42 4987.93 -5.2519)
(65798.6 110391 -71783.1)
(60822.8 55423 -16397.1)
(53684.5 44802.9 -3476.37)
(49201.4 41517.6 -1229.77)
(46545.5 39883.8 -641.865)
(44952.2 38950.1 -364.136)
(44036.9 38427.2 -189.873)
(43616.5 38190.6 -59.153)
)
;
    }
}


// ************************************************************************* //
