/*--------------------------------*- C++ -*----------------------------------*\
| =========                 |                                                 |
| \\      /  F ield         | OpenFOAM: The Open Source CFD Toolbox           |
|  \\    /   O peration     | Version:  v1912                                 |
|   \\  /    A nd           | Website:  www.openfoam.com                      |
|    \\/     M anipulation  |                                                 |
\*---------------------------------------------------------------------------*/
FoamFile
{
    version     2.0;
    format      ascii;
    class       pointVectorField;
    location    "0.53/solid";
    object      pointDD;
}
// * * * * * * * * * * * * * * * * * * * * * * * * * * * * * * * * * * * * * //

dimensions      [0 1 0 0 0 0 0];


internalField   nonuniform List<vector> 
405
(
(2.18472e-10 3.69622e-10 2.17788e-10)
(9.4058e-11 2.57669e-10 1.50894e-10)
(-4.19924e-12 2.18059e-10 1.29631e-10)
(-9.79917e-11 2.47743e-10 1.37267e-10)
(-1.97524e-10 3.52698e-10 1.97246e-10)
(4.45449e-10 4.52604e-10 5.31403e-10)
(2.65027e-10 4.34855e-10 5.04237e-10)
(-1.25372e-11 3.6776e-10 4.54854e-10)
(-2.79527e-10 4.20817e-10 4.72882e-10)
(-4.17787e-10 4.36534e-10 4.92407e-10)
(5.82786e-10 2.10839e-10 8.81619e-10)
(3.53596e-10 2.33727e-10 8.50102e-10)
(-2.06215e-11 1.94811e-10 7.89304e-10)
(-3.82563e-10 2.30827e-10 8.11539e-10)
(-5.65646e-10 2.12412e-10 8.29264e-10)
(5.94129e-10 -5.5168e-11 1.15364e-09)
(3.55842e-10 -8.74448e-12 1.11671e-09)
(-2.95858e-11 -2.62295e-11 1.04617e-09)
(-4.0264e-10 -1.96712e-12 1.07268e-09)
(-5.92795e-10 -3.83497e-11 1.09232e-09)
(5.83729e-10 -3.03649e-10 1.40673e-09)
(3.41101e-10 -2.59703e-10 1.3611e-09)
(-4.09056e-11 -2.74596e-10 1.27952e-09)
(-4.1041e-10 -2.44743e-10 1.31275e-09)
(-6.03023e-10 -2.73634e-10 1.33845e-09)
(6.10089e-10 -5.66113e-10 1.67243e-09)
(3.5319e-10 -5.40082e-10 1.61328e-09)
(-5.49025e-11 -5.61549e-10 1.52003e-09)
(-4.50284e-10 -5.17684e-10 1.5611e-09)
(-6.55242e-10 -5.2376e-10 1.59797e-09)
(7.23453e-10 -9.2874e-10 1.97092e-09)
(4.27355e-10 -9.15987e-10 1.8974e-09)
(-7.19919e-11 -9.32023e-10 1.7965e-09)
(-5.58088e-10 -8.85993e-10 1.84146e-09)
(-7.99581e-10 -8.73687e-10 1.89043e-09)
(9.39038e-10 -1.54774e-09 2.28581e-09)
(5.59928e-10 -1.51974e-09 2.22669e-09)
(-9.29466e-11 -1.49704e-09 2.13557e-09)
(-7.30926e-10 -1.47829e-09 2.16668e-09)
(-1.04995e-09 -1.4744e-09 2.19919e-09)
(1.06383e-09 -1.96271e-09 2.45771e-09)
(6.35017e-10 -1.9165e-09 2.42733e-09)
(-1.05117e-10 -1.84924e-09 2.36276e-09)
(-8.29206e-10 -1.85838e-09 2.37405e-09)
(-1.20966e-09 -1.87228e-09 2.37564e-09)
(1.21422e-10 1.85517e-10 9.73642e-11)
(0 0 0)
(0 0 0)
(0 0 0)
(-9.10554e-11 1.76465e-10 9.02082e-11)
(3.34318e-10 2.63611e-10 3.57541e-10)
(0 0 0)
(0 0 0)
(0 0 0)
(-2.74711e-10 2.54264e-10 3.34711e-10)
(4.39603e-10 2.42077e-11 6.56635e-10)
(0 0 0)
(0 0 0)
(0 0 0)
(-3.85677e-10 3.16318e-11 6.19971e-10)
(4.44394e-10 -2.27589e-10 9.15323e-10)
(0 0 0)
(0 0 0)
(0 0 0)
(-4.022e-10 -2.05032e-10 8.69439e-10)
(4.31821e-10 -4.62886e-10 1.15945e-09)
(0 0 0)
(0 0 0)
(0 0 0)
(-4.06711e-10 -4.26433e-10 1.10633e-09)
(4.53276e-10 -7.02784e-10 1.41225e-09)
(0 0 0)
(0 0 0)
(0 0 0)
(-4.50716e-10 -6.52903e-10 1.35266e-09)
(5.60679e-10 -1.01363e-09 1.68231e-09)
(0 0 0)
(0 0 0)
(0 0 0)
(-5.85494e-10 -9.50026e-10 1.6165e-09)
(7.93503e-10 -1.54284e-09 1.92534e-09)
(0 0 0)
(0 0 0)
(0 0 0)
(-8.47562e-10 -1.46068e-09 1.85392e-09)
(9.36733e-10 -1.90263e-09 2.05653e-09)
(5.56714e-10 -1.84171e-09 2.07283e-09)
(-9.58839e-11 -1.74765e-09 2.05277e-09)
(-7.33638e-10 -1.77609e-09 2.03573e-09)
(-1.05206e-09 -1.80632e-09 1.99167e-09)
(4.81206e-11 7.62947e-11 2.62512e-11)
(0 0 0)
(0 0 0)
(0 0 0)
(-1.83505e-11 6.76377e-11 2.28681e-11)
(1.49937e-10 4.88613e-11 1.59451e-10)
(0 0 0)
(0 0 0)
(0 0 0)
(-8.89688e-11 3.96587e-11 1.46741e-10)
(2.08129e-10 -1.71744e-10 3.86368e-10)
(0 0 0)
(0 0 0)
(0 0 0)
(-1.48007e-10 -1.6547e-10 3.63187e-10)
(2.01198e-10 -3.97973e-10 6.21553e-10)
(0 0 0)
(0 0 0)
(0 0 0)
(-1.4861e-10 -3.77542e-10 5.9027e-10)
(1.84347e-10 -6.11078e-10 8.48027e-10)
(0 0 0)
(0 0 0)
(0 0 0)
(-1.45224e-10 -5.7725e-10 8.1005e-10)
(2.0273e-10 -8.15825e-10 1.06743e-09)
(0 0 0)
(0 0 0)
(0 0 0)
(-1.82891e-10 -7.68919e-10 1.02344e-09)
(3.11511e-10 -1.05486e-09 1.26704e-09)
(0 0 0)
(0 0 0)
(0 0 0)
(-3.16015e-10 -9.94803e-10 1.21757e-09)
(5.57219e-10 -1.46702e-09 1.39418e-09)
(0 0 0)
(0 0 0)
(0 0 0)
(-5.87894e-10 -1.38946e-09 1.34063e-09)
(7.17258e-10 -1.75514e-09 1.43711e-09)
(4.1985e-10 -1.68012e-09 1.46963e-09)
(-7.86044e-11 -1.57591e-09 1.48834e-09)
(-5.6362e-10 -1.61757e-09 1.44334e-09)
(-8.04216e-10 -1.66359e-09 1.38984e-09)
(1.04735e-11 2.72199e-11 1.8004e-11)
(0 0 0)
(0 0 0)
(0 0 0)
(1.9299e-11 1.74826e-11 1.57488e-11)
(5.18028e-11 -5.087e-11 1.17757e-10)
(0 0 0)
(0 0 0)
(0 0 0)
(1.10502e-11 -6.27397e-11 1.0916e-10)
(8.25513e-11 -2.70305e-10 3.00751e-10)
(0 0 0)
(0 0 0)
(0 0 0)
(-1.67642e-11 -2.67509e-10 2.84543e-10)
(7.21368e-11 -4.8672e-10 5.04336e-10)
(0 0 0)
(0 0 0)
(0 0 0)
(-1.02116e-11 -4.70235e-10 4.81547e-10)
(5.85344e-11 -6.78129e-10 7.03157e-10)
(0 0 0)
(0 0 0)
(0 0 0)
(-6.66108e-12 -6.48502e-10 6.74559e-10)
(8.17419e-11 -8.43454e-10 8.83454e-10)
(0 0 0)
(0 0 0)
(0 0 0)
(-4.59996e-11 -8.00941e-10 8.49602e-10)
(1.96205e-10 -1.0234e-09 1.02229e-09)
(0 0 0)
(0 0 0)
(0 0 0)
(-1.81849e-10 -9.67955e-10 9.83877e-10)
(4.43427e-10 -1.36527e-09 1.08e-09)
(0 0 0)
(0 0 0)
(0 0 0)
(-4.52622e-10 -1.29243e-09 1.0385e-09)
(5.96821e-10 -1.62589e-09 1.07517e-09)
(3.38641e-10 -1.56556e-09 1.09616e-09)
(-6.55587e-11 -1.46821e-09 1.11966e-09)
(-4.56555e-10 -1.50542e-09 1.0761e-09)
(-6.5964e-10 -1.53845e-09 1.03885e-09)
(-4.07021e-12 9.16733e-12 2.1071e-11)
(0 0 0)
(0 0 0)
(0 0 0)
(3.39816e-11 -1.57036e-12 1.94719e-11)
(1.38655e-11 -8.67779e-11 1.09456e-10)
(0 0 0)
(0 0 0)
(0 0 0)
(5.04499e-11 -1.01291e-10 1.03448e-10)
(3.50546e-11 -3.05112e-10 2.5775e-10)
(0 0 0)
(0 0 0)
(0 0 0)
(3.47505e-11 -3.05928e-10 2.46374e-10)
(2.65144e-11 -5.15505e-10 4.21738e-10)
(0 0 0)
(0 0 0)
(0 0 0)
(4.22296e-11 -5.031e-10 4.05416e-10)
(1.88626e-11 -6.90446e-10 5.81248e-10)
(0 0 0)
(0 0 0)
(0 0 0)
(4.26596e-11 -6.65091e-10 5.60309e-10)
(4.84746e-11 -8.28467e-10 7.18614e-10)
(0 0 0)
(0 0 0)
(0 0 0)
(-3.54092e-13 -7.90277e-10 6.93427e-10)
(1.67051e-10 -9.76176e-10 8.12177e-10)
(0 0 0)
(0 0 0)
(0 0 0)
(-1.37766e-10 -9.24985e-10 7.83357e-10)
(4.10997e-10 -1.28657e-09 8.38804e-10)
(0 0 0)
(0 0 0)
(0 0 0)
(-4.03039e-10 -1.2177e-09 8.07602e-10)
(5.58001e-10 -1.53616e-09 8.19428e-10)
(3.14921e-10 -1.48929e-09 8.23279e-10)
(-5.57641e-11 -1.40172e-09 8.36703e-10)
(-4.13128e-10 -1.43103e-09 8.08257e-10)
(-6.01832e-10 -1.45198e-09 7.92154e-10)
(-8.51843e-12 3.79365e-12 1.99057e-11)
(0 0 0)
(0 0 0)
(0 0 0)
(3.85348e-11 -7.63194e-12 1.88135e-11)
(3.11303e-12 -9.53668e-11 9.22969e-11)
(0 0 0)
(0 0 0)
(0 0 0)
(6.21517e-11 -1.1183e-10 8.82295e-11)
(2.37074e-11 -3.09228e-10 2.0498e-10)
(0 0 0)
(0 0 0)
(0 0 0)
(4.87204e-11 -3.12911e-10 1.97275e-10)
(1.91075e-11 -5.13126e-10 3.2637e-10)
(0 0 0)
(0 0 0)
(0 0 0)
(5.42475e-11 -5.04093e-10 3.15199e-10)
(1.71053e-11 -6.77013e-10 4.42755e-10)
(0 0 0)
(0 0 0)
(0 0 0)
(5.11706e-11 -6.5523e-10 4.28222e-10)
(5.18774e-11 -8.00562e-10 5.3942e-10)
(0 0 0)
(0 0 0)
(0 0 0)
(5.15648e-12 -7.6595e-10 5.21729e-10)
(1.72614e-10 -9.3487e-10 6.0059e-10)
(0 0 0)
(0 0 0)
(0 0 0)
(-1.32401e-10 -8.87103e-10 5.80192e-10)
(4.12519e-10 -1.23266e-09 6.1405e-10)
(0 0 0)
(0 0 0)
(0 0 0)
(-3.91893e-10 -1.16688e-09 5.91883e-10)
(5.55364e-10 -1.4765e-09 5.95281e-10)
(3.16951e-10 -1.4377e-09 5.90127e-10)
(-4.86083e-11 -1.3575e-09 5.94852e-10)
(-4.00716e-10 -1.38082e-09 5.7946e-10)
(-5.85174e-10 -1.39478e-09 5.75898e-10)
(-9.44279e-12 2.72909e-12 1.48556e-11)
(0 0 0)
(0 0 0)
(0 0 0)
(3.95304e-11 -9.1307e-12 1.41775e-11)
(1.64555e-12 -9.47235e-11 6.55247e-11)
(0 0 0)
(0 0 0)
(0 0 0)
(6.42135e-11 -1.12466e-10 6.30065e-11)
(2.41907e-11 -3.02878e-10 1.40974e-10)
(0 0 0)
(0 0 0)
(0 0 0)
(4.9882e-11 -3.08531e-10 1.36201e-10)
(2.32267e-11 -5.00604e-10 2.20329e-10)
(0 0 0)
(0 0 0)
(0 0 0)
(5.30826e-11 -4.93967e-10 2.13369e-10)
(2.53312e-11 -6.57655e-10 2.95256e-10)
(0 0 0)
(0 0 0)
(0 0 0)
(4.73679e-11 -6.38458e-10 2.86124e-10)
(6.34418e-11 -7.74772e-10 3.56087e-10)
(0 0 0)
(0 0 0)
(0 0 0)
(-4.769e-13 -7.42754e-10 3.44881e-10)
(1.85138e-10 -9.0477e-10 3.93165e-10)
(0 0 0)
(0 0 0)
(0 0 0)
(-1.37558e-10 -8.59463e-10 3.80167e-10)
(4.21819e-10 -1.19769e-09 4.00261e-10)
(0 0 0)
(0 0 0)
(0 0 0)
(-3.92562e-10 -1.1341e-09 3.86088e-10)
(5.61746e-10 -1.43835e-09 3.87089e-10)
(3.24235e-10 -1.40388e-09 3.80692e-10)
(-4.37403e-11 -1.32805e-09 3.81412e-10)
(-3.98168e-10 -1.34794e-09 3.7387e-10)
(-5.81989e-10 -1.35835e-09 3.74687e-10)
(-9.47597e-12 2.77403e-12 7.81761e-12)
(0 0 0)
(0 0 0)
(0 0 0)
(3.96155e-11 -9.32619e-12 7.49376e-12)
(2.13761e-12 -9.24846e-11 3.37267e-11)
(0 0 0)
(0 0 0)
(0 0 0)
(6.4062e-11 -1.10946e-10 3.25237e-11)
(2.63078e-11 -2.96227e-10 7.14319e-11)
(0 0 0)
(0 0 0)
(0 0 0)
(4.86756e-11 -3.03013e-10 6.91487e-11)
(2.7642e-11 -4.89643e-10 1.10485e-10)
(0 0 0)
(0 0 0)
(0 0 0)
(5.0318e-11 -4.84414e-10 1.07145e-10)
(3.21109e-11 -6.42994e-10 1.46968e-10)
(0 0 0)
(0 0 0)
(0 0 0)
(4.30901e-11 -6.25337e-10 1.42567e-10)
(7.20066e-11 -7.57631e-10 1.76232e-10)
(0 0 0)
(0 0 0)
(0 0 0)
(-5.65169e-12 -7.27167e-10 1.70806e-10)
(1.94074e-10 -8.86651e-10 1.93779e-10)
(0 0 0)
(0 0 0)
(0 0 0)
(-1.42247e-10 -8.42817e-10 1.87462e-10)
(4.28779e-10 -1.17778e-09 1.96929e-10)
(0 0 0)
(0 0 0)
(0 0 0)
(-3.94518e-10 -1.11551e-09 1.90026e-10)
(5.66895e-10 -1.41688e-09 1.90359e-10)
(3.29383e-10 -1.38447e-09 1.86551e-10)
(-4.09199e-11 -1.31076e-09 1.86308e-10)
(-3.97618e-10 -1.32908e-09 1.83227e-10)
(-5.81583e-10 -1.3379e-09 1.84316e-10)
(2.68495e-12 -3.24111e-12 0)
(5.85751e-12 -1.72545e-11 0)
(2.40156e-13 -2.72647e-11 0)
(-1.93865e-12 -2.11414e-11 0)
(2.23274e-11 -1.58947e-11 0)
(2.24105e-11 -9.90117e-11 0)
(1.99546e-11 -1.24677e-10 0)
(2.90148e-12 -1.4372e-10 0)
(-6.30391e-12 -1.31031e-10 0)
(2.14956e-11 -1.13826e-10 0)
(4.36186e-11 -2.95808e-10 0)
(2.92854e-11 -3.11777e-10 0)
(6.91913e-12 -3.25854e-10 0)
(-6.84341e-12 -3.14152e-10 0)
(9.54184e-12 -3.01465e-10 0)
(4.45788e-11 -4.859e-10 0)
(2.80642e-11 -4.97182e-10 0)
(8.46692e-12 -5.07161e-10 0)
(-2.8488e-12 -4.94063e-10 0)
(1.14151e-11 -4.8131e-10 0)
(4.88469e-11 -6.43087e-10 0)
(2.85082e-11 -6.64995e-10 0)
(6.60396e-12 -6.79116e-10 0)
(-7.08184e-12 -6.55829e-10 0)
(3.98054e-12 -6.27734e-10 0)
(8.90228e-11 -7.71747e-10 0)
(5.32848e-11 -8.19195e-10 0)
(1.14348e-12 -8.42646e-10 0)
(-4.25566e-11 -8.03737e-10 0)
(-4.57096e-11 -7.4526e-10 0)
(2.10362e-10 -9.20957e-10 0)
(1.31528e-10 -9.89693e-10 0)
(-8.21973e-12 -1.01249e-09 0)
(-1.38759e-10 -9.67548e-10 0)
(-1.82766e-10 -8.82727e-10 0)
(4.28546e-10 -1.21338e-09 0)
(2.59782e-10 -1.25204e-09 0)
(-2.21759e-11 -1.24071e-09 0)
(-2.92824e-10 -1.22007e-09 0)
(-4.21461e-10 -1.15839e-09 0)
(5.59748e-10 -1.42299e-09 0)
(3.3145e-10 -1.39843e-09 0)
(-3.52061e-11 -1.34202e-09 0)
(-3.88638e-10 -1.35168e-09 0)
(-5.80056e-10 -1.35127e-09 0)
)
;

boundaryField
{
    interface
    {
        type            calculated;
    }
    symmetry
    {
        type            symmetry;
    }
    bottom
    {
        type            calculated;
    }
}


// ************************************************************************* //
