/*--------------------------------*- C++ -*----------------------------------*\
| =========                 |                                                 |
| \\      /  F ield         | OpenFOAM: The Open Source CFD Toolbox           |
|  \\    /   O peration     | Version:  v1912                                 |
|   \\  /    A nd           | Website:  www.openfoam.com                      |
|    \\/     M anipulation  |                                                 |
\*---------------------------------------------------------------------------*/
FoamFile
{
    version     2.0;
    format      ascii;
    class       volVectorField;
    location    "0.53/solid";
    object      U;
}
// * * * * * * * * * * * * * * * * * * * * * * * * * * * * * * * * * * * * * //

dimensions      [0 1 -1 0 0 0 0];


internalField   nonuniform List<vector> 
256
(
(3.08997e-08 3.05687e-08 3.54012e-08)
(6.7009e-09 1.77433e-08 3.18858e-08)
(-7.81692e-09 1.72609e-08 3.13418e-08)
(-3.03373e-08 2.87301e-08 3.36947e-08)
(5.43131e-08 2.26426e-08 7.83824e-08)
(1.35509e-08 1.26106e-08 7.33533e-08)
(-1.57975e-08 1.23687e-08 7.22969e-08)
(-5.4274e-08 2.20469e-08 7.50904e-08)
(5.80926e-08 3.97169e-11 1.07688e-07)
(1.45159e-08 -4.19685e-09 1.02082e-07)
(-1.80582e-08 -4.01925e-09 1.00748e-07)
(-5.93291e-08 8.28355e-10 1.03544e-07)
(5.63799e-08 -2.41655e-08 1.32719e-07)
(1.30244e-08 -2.64932e-08 1.2611e-07)
(-1.83753e-08 -2.58984e-08 1.2458e-07)
(-5.94044e-08 -2.21662e-08 1.27974e-07)
(5.61421e-08 -5.00681e-08 1.57973e-07)
(1.18983e-08 -5.3805e-08 1.49974e-07)
(-1.96011e-08 -5.28228e-08 1.48277e-07)
(-6.14789e-08 -4.69629e-08 1.5272e-07)
(6.24676e-08 -8.12576e-08 1.86328e-07)
(1.32967e-08 -8.7176e-08 1.76926e-07)
(-2.39168e-08 -8.58198e-08 1.75066e-07)
(-7.06743e-08 -7.70804e-08 1.80593e-07)
(8.01271e-08 -1.28052e-07 2.19116e-07)
(1.85218e-08 -1.31606e-07 2.09501e-07)
(-3.27291e-08 -1.2984e-07 2.07465e-07)
(-9.1762e-08 -1.22685e-07 2.12876e-07)
(1.03801e-07 -2.01551e-07 2.48356e-07)
(2.41861e-08 -1.939e-07 2.41012e-07)
(-4.28515e-08 -1.91448e-07 2.38794e-07)
(-1.19417e-07 -1.94086e-07 2.41631e-07)
(1.76363e-08 9.93214e-09 1.30739e-08)
(3.56271e-09 2.2576e-10 1.53257e-08)
(-4.00433e-09 5.19353e-11 1.51002e-08)
(-1.66743e-08 8.82389e-09 1.23983e-08)
(3.19753e-08 -2.24533e-09 4.20914e-08)
(7.67789e-09 -9.99076e-09 4.65236e-08)
(-8.39114e-09 -9.99866e-09 4.59104e-08)
(-3.08421e-08 -2.36105e-09 4.02972e-08)
(3.38055e-08 -2.20317e-08 6.87291e-08)
(8.08265e-09 -2.53275e-08 7.37801e-08)
(-9.50645e-09 -2.5023e-08 7.29107e-08)
(-3.34173e-08 -2.10283e-08 6.61777e-08)
(3.16593e-08 -4.41039e-08 9.27552e-08)
(6.6624e-09 -4.60529e-08 9.7661e-08)
(-9.45003e-09 -4.53916e-08 9.66111e-08)
(-3.26418e-08 -4.20257e-08 8.96516e-08)
(3.09096e-08 -6.83677e-08 1.16248e-07)
(5.59577e-09 -7.19405e-08 1.20715e-07)
(-1.03703e-08 -7.09223e-08 1.19511e-07)
(-3.385e-08 -6.52497e-08 1.1267e-07)
(3.6623e-08 -9.60475e-08 1.40447e-07)
(6.98495e-09 -1.02037e-07 1.44457e-07)
(-1.4358e-08 -1.00668e-07 1.43105e-07)
(-4.21104e-08 -9.19086e-08 1.36414e-07)
(5.43846e-08 -1.33086e-07 1.63129e-07)
(1.23087e-08 -1.36542e-07 1.66958e-07)
(-2.2977e-08 -1.34809e-07 1.65469e-07)
(-6.29862e-08 -1.27864e-07 1.58677e-07)
(7.97889e-08 -1.88998e-07 1.74851e-07)
(1.81796e-08 -1.79063e-07 1.78762e-07)
(-3.30398e-08 -1.76754e-07 1.77208e-07)
(-9.20519e-08 -1.81918e-07 1.70179e-07)
(8.11946e-09 2.37132e-09 6.4941e-09)
(8.05236e-10 -4.46303e-09 9.79062e-09)
(-9.66007e-10 -4.59537e-09 9.63506e-09)
(-6.95173e-09 1.28507e-09 6.05208e-09)
(1.51267e-08 -1.45899e-08 2.70136e-08)
(2.23667e-09 -2.01198e-08 3.3166e-08)
(-2.14471e-09 -2.00953e-08 3.27358e-08)
(-1.33164e-08 -1.47498e-08 2.5798e-08)
(1.53983e-08 -3.51362e-08 4.9777e-08)
(2.03561e-09 -3.75891e-08 5.67404e-08)
(-2.18101e-09 -3.72874e-08 5.61004e-08)
(-1.38849e-08 -3.42597e-08 4.79479e-08)
(1.32185e-08 -5.59132e-08 7.18719e-08)
(7.01449e-10 -5.77214e-08 7.8869e-08)
(-1.80114e-09 -5.70945e-08 7.80663e-08)
(-1.2682e-08 -5.40273e-08 6.95479e-08)
(1.25037e-08 -7.70881e-08 9.28662e-08)
(-2.55951e-10 -8.07554e-08 9.96767e-08)
(-2.48075e-09 -7.97947e-08 9.87332e-08)
(-1.358e-08 -7.42085e-08 9.01073e-08)
(1.82136e-08 -9.90829e-08 1.11987e-07)
(1.17235e-09 -1.05233e-07 1.18593e-07)
(-6.20625e-09 -1.03943e-07 1.17521e-07)
(-2.1527e-08 -9.52289e-08 1.08828e-07)
(3.60969e-08 -1.27133e-07 1.25818e-07)
(6.5458e-09 -1.30746e-07 1.32257e-07)
(-1.46115e-08 -1.29122e-07 1.31085e-07)
(-4.22368e-08 -1.22256e-07 1.22333e-07)
(6.16022e-08 -1.72916e-07 1.28051e-07)
(1.24909e-08 -1.63163e-07 1.34401e-07)
(-2.45069e-08 -1.6099e-07 1.33208e-07)
(-7.11308e-08 -1.66223e-07 1.24458e-07)
(4.14534e-09 -2.96108e-10 5.37087e-09)
(-3.31783e-10 -5.39331e-09 7.54368e-09)
(2.96791e-10 -5.5425e-09 7.42714e-09)
(-2.84883e-09 -1.47583e-09 5.04772e-09)
(7.8596e-09 -1.9315e-08 2.12467e-08)
(-1.53051e-10 -2.35088e-08 2.52626e-08)
(6.80283e-10 -2.35311e-08 2.49508e-08)
(-5.61829e-09 -1.96768e-08 2.03795e-08)
(7.54302e-09 -4.07394e-08 3.9646e-08)
(-5.84758e-10 -4.27329e-08 4.41359e-08)
(1.21846e-09 -4.24966e-08 4.3666e-08)
(-5.26569e-09 -4.01165e-08 3.8319e-08)
(5.72704e-09 -6.06583e-08 5.81918e-08)
(-1.71018e-09 -6.24911e-08 6.26252e-08)
(1.72656e-09 -6.19443e-08 6.20224e-08)
(-4.09778e-09 -5.9059e-08 5.64616e-08)
(5.51731e-09 -7.90789e-08 7.53894e-08)
(-2.41132e-09 -8.29143e-08 7.96216e-08)
(1.09781e-09 -8.20462e-08 7.89003e-08)
(-5.19589e-09 -7.65107e-08 7.32936e-08)
(1.16027e-08 -9.67228e-08 8.95188e-08)
(-8.24476e-10 -1.0305e-07 9.35633e-08)
(-2.51574e-09 -1.01864e-07 9.27378e-08)
(-1.32416e-08 -9.32009e-08 8.70949e-08)
(2.94197e-08 -1.19809e-07 9.77463e-08)
(4.5287e-09 -1.2382e-07 1.01688e-07)
(-1.0665e-08 -1.22306e-07 1.00788e-07)
(-3.36343e-08 -1.15272e-07 9.50717e-08)
(5.42672e-08 -1.61513e-07 9.70566e-08)
(1.03887e-08 -1.53056e-07 1.01123e-07)
(-2.02644e-08 -1.50987e-07 1.00215e-07)
(-6.16416e-08 -1.5513e-07 9.43116e-08)
(2.95592e-09 -1.22828e-09 4.70747e-09)
(-5.42695e-10 -5.52636e-09 5.78702e-09)
(5.73879e-10 -5.69431e-09 5.7029e-09)
(-1.57762e-09 -2.48616e-09 4.47719e-09)
(5.80455e-09 -2.05643e-08 1.70116e-08)
(-6.22175e-10 -2.41903e-08 1.89361e-08)
(1.40543e-09 -2.42676e-08 1.87147e-08)
(-3.29065e-09 -2.11176e-08 1.64026e-08)
(5.56406e-09 -4.20016e-08 3.10391e-08)
(-9.89141e-10 -4.38765e-08 3.31024e-08)
(2.11595e-09 -4.37146e-08 3.27677e-08)
(-2.78393e-09 -4.16273e-08 3.01027e-08)
(4.23561e-09 -6.11249e-08 4.52559e-08)
(-1.86425e-09 -6.30871e-08 4.71815e-08)
(2.62833e-09 -6.26249e-08 4.6747e-08)
(-1.85429e-09 -5.98014e-08 4.40178e-08)
(4.58338e-09 -7.77301e-08 5.81491e-08)
(-2.29442e-09 -8.17443e-08 5.98706e-08)
(1.97566e-09 -8.09671e-08 5.93447e-08)
(-3.26437e-09 -7.54507e-08 5.66289e-08)
(1.10243e-08 -9.30153e-08 6.80372e-08)
(-5.44653e-10 -9.94939e-08 6.96019e-08)
(-1.57542e-09 -9.84017e-08 6.89963e-08)
(-1.1437e-08 -8.97857e-08 6.62646e-08)
(2.86607e-08 -1.14037e-07 7.30408e-08)
(4.76113e-09 -1.18398e-07 7.45695e-08)
(-9.4783e-09 -1.16975e-07 7.39088e-08)
(-3.14418e-08 -1.0978e-07 7.10787e-08)
(5.28373e-08 -1.541e-07 7.19271e-08)
(1.05172e-08 -1.46792e-07 7.36461e-08)
(-1.87992e-08 -1.44803e-07 7.29804e-08)
(-5.85924e-08 -1.47959e-07 6.99138e-08)
(2.70844e-09 -1.51232e-09 3.6814e-09)
(-4.7508e-10 -5.4897e-09 4.15351e-09)
(5.43127e-10 -5.67114e-09 4.0971e-09)
(-1.27958e-09 -2.82356e-09 3.52819e-09)
(5.56343e-09 -2.04795e-08 1.2547e-08)
(-4.61125e-10 -2.39411e-08 1.33208e-08)
(1.39839e-09 -2.40609e-08 1.31731e-08)
(-2.87992e-09 -2.11732e-08 1.2144e-08)
(5.61964e-09 -4.1421e-08 2.23673e-08)
(-6.67672e-10 -4.33457e-08 2.31159e-08)
(2.10465e-09 -4.3244e-08 2.28924e-08)
(-2.51836e-09 -4.1239e-08 2.17463e-08)
(4.71646e-09 -5.98189e-08 3.22214e-08)
(-1.32892e-09 -6.19338e-08 3.28248e-08)
(2.58118e-09 -6.15407e-08 3.25327e-08)
(-1.83965e-09 -5.87133e-08 3.13941e-08)
(5.48238e-09 -7.54071e-08 4.09929e-08)
(-1.553e-09 -7.95684e-08 4.1436e-08)
(1.90399e-09 -7.88638e-08 4.108e-08)
(-3.48758e-09 -7.33547e-08 3.99683e-08)
(1.21506e-08 -8.96777e-08 4.74607e-08)
(3.12847e-10 -9.62561e-08 4.77993e-08)
(-1.59162e-09 -9.52364e-08 4.73872e-08)
(-1.17147e-08 -8.66725e-08 4.6258e-08)
(2.96063e-08 -1.10004e-07 5.0504e-08)
(5.57758e-09 -1.14573e-07 5.08442e-08)
(-9.2995e-09 -1.13218e-07 5.03937e-08)
(-3.13807e-08 -1.05956e-07 4.91681e-08)
(5.32839e-08 -1.49291e-07 4.96197e-08)
(1.12574e-08 -1.42698e-07 5.01145e-08)
(-1.84104e-08 -1.40768e-07 4.96607e-08)
(-5.78911e-08 -1.43328e-07 4.8248e-08)
(2.68596e-09 -1.55845e-09 2.33233e-09)
(-3.91404e-10 -5.41215e-09 2.52289e-09)
(4.79051e-10 -5.60216e-09 2.4906e-09)
(-1.22789e-09 -2.90292e-09 2.24513e-09)
(5.69186e-09 -2.00585e-08 7.69304e-09)
(-2.54558e-10 -2.35016e-08 7.96898e-09)
(1.27942e-09 -2.36489e-08 7.88449e-09)
(-2.90938e-09 -2.08414e-08 7.46361e-09)
(6.00316e-09 -4.0461e-08 1.34928e-08)
(-3.27934e-10 -4.24689e-08 1.37132e-08)
(1.94692e-09 -4.24072e-08 1.35851e-08)
(-2.71119e-09 -4.04049e-08 1.31386e-08)
(5.38707e-09 -5.83192e-08 1.92415e-08)
(-8.45504e-10 -6.05536e-08 1.9361e-08)
(2.3914e-09 -6.02072e-08 1.9193e-08)
(-2.21018e-09 -5.73591e-08 1.87677e-08)
(6.40805e-09 -7.33946e-08 2.42917e-08)
(-9.41397e-10 -7.76533e-08 2.43141e-08)
(1.70387e-09 -7.69979e-08 2.41085e-08)
(-3.9963e-09 -7.14946e-08 2.37017e-08)
(1.3198e-08 -8.73004e-08 2.79428e-08)
(9.93331e-10 -9.39318e-08 2.79094e-08)
(-1.74626e-09 -9.29605e-08 2.76706e-08)
(-1.22304e-08 -8.44448e-08 2.72471e-08)
(3.05247e-08 -1.0744e-07 2.9607e-08)
(6.23249e-09 -1.12105e-07 2.95852e-08)
(-9.3245e-09 -1.10795e-07 2.93236e-08)
(-3.16613e-08 -1.03529e-07 2.88322e-08)
(5.38827e-08 -1.46335e-07 2.90714e-08)
(1.18651e-08 -1.40111e-07 2.91423e-08)
(-1.8298e-08 -1.38219e-07 2.88788e-08)
(-5.77575e-08 -1.40489e-07 2.82752e-08)
(2.69208e-09 -1.54595e-09 7.97239e-10)
(-3.49073e-10 -5.35584e-09 8.48613e-10)
(4.45135e-10 -5.55003e-09 8.38123e-10)
(-1.2206e-09 -2.90654e-09 7.69015e-10)
(5.78624e-09 -1.97582e-08 2.59123e-09)
(-1.47412e-10 -2.32108e-08 2.65855e-09)
(1.21194e-09 -2.33714e-08 2.63107e-09)
(-2.95805e-09 -2.05843e-08 2.51679e-09)
(6.22828e-09 -3.9841e-08 4.50783e-09)
(-1.5296e-10 -4.19006e-08 4.55138e-09)
(1.85608e-09 -4.18587e-08 4.50968e-09)
(-2.84734e-09 -3.98465e-08 4.39275e-09)
(5.75125e-09 -5.74171e-08 6.39334e-09)
(-6.00906e-10 -5.9714e-08 6.40166e-09)
(2.28455e-09 -5.93909e-08 6.34687e-09)
(-2.43281e-09 -5.6529e-08 6.23908e-09)
(6.88976e-09 -7.22805e-08 8.03861e-09)
(-6.3683e-10 -7.65863e-08 8.01499e-09)
(1.59477e-09 -7.59554e-08 7.94779e-09)
(-4.27925e-09 -7.04564e-08 7.84608e-09)
(1.37315e-08 -8.60791e-08 9.21866e-09)
(1.32948e-09 -9.2732e-08 9.17785e-09)
(-1.83003e-09 -9.17848e-08 9.09965e-09)
(-1.25081e-08 -8.32981e-08 8.99113e-09)
(3.09933e-08 -1.06183e-07 9.75045e-09)
(6.55702e-09 -1.10883e-07 9.71517e-09)
(-9.34437e-09 -1.09595e-07 9.62942e-09)
(-3.1821e-08 -1.02341e-07 9.49665e-09)
(5.41957e-08 -1.44912e-07 9.57248e-09)
(1.21668e-08 -1.38839e-07 9.56757e-09)
(-1.82499e-08 -1.36966e-07 9.48119e-09)
(-5.77143e-08 -1.39124e-07 9.31157e-09)
)
;

boundaryField
{
    interface
    {
        type            calculated;
        value           nonuniform List<vector> 
192
(
(3.36041e-08 5.18719e-08 3.15667e-08)
(5.62793e-08 2.94408e-08 7.17756e-08)
(6.02058e-08 5.56295e-10 1.00528e-07)
(5.88786e-08 -2.46532e-08 1.25581e-07)
(5.86358e-08 -4.85463e-08 1.50896e-07)
(6.40784e-08 -7.52614e-08 1.7928e-07)
(8.04501e-08 -1.17718e-07 2.12138e-07)
(1.08598e-07 -1.94935e-07 2.41576e-07)
(1.49648e-08 2.2335e-08 7.37899e-09)
(2.8879e-08 1.79689e-09 3.2295e-08)
(3.04773e-08 -2.21109e-08 5.80557e-08)
(2.81958e-08 -4.4828e-08 8.19649e-08)
(2.70181e-08 -6.71269e-08 1.05339e-07)
(3.15779e-08 -9.01789e-08 1.29384e-07)
(4.81652e-08 -1.22295e-07 1.52122e-07)
(8.01879e-08 -1.82185e-07 1.64302e-07)
(4.28343e-09 8.18285e-09 3.12151e-09)
(1.18477e-08 -1.27703e-08 2.09849e-08)
(1.20479e-08 -3.56134e-08 4.32115e-08)
(9.75824e-09 -5.6637e-08 6.5389e-08)
(8.76674e-09 -7.58394e-08 8.65183e-08)
(1.37293e-08 -9.31847e-08 1.05732e-07)
(3.11321e-08 -1.16286e-07 1.19577e-07)
(6.34025e-08 -1.6604e-07 1.21671e-07)
(-9.40298e-11 2.70511e-09 4.08009e-09)
(4.68405e-09 -1.84657e-08 1.89163e-08)
(4.44092e-09 -4.12727e-08 3.71876e-08)
(2.60769e-09 -6.11649e-08 5.59461e-08)
(2.2811e-09 -7.76102e-08 7.34094e-08)
(7.91965e-09 -9.07473e-08 8.77215e-08)
(2.57012e-08 -1.09143e-07 9.58873e-08)
(5.71352e-08 -1.54641e-07 9.48655e-08)
(-1.53405e-09 9.61821e-10 4.34832e-09)
(2.49023e-09 -1.99124e-08 1.64376e-08)
(2.40665e-09 -4.2394e-08 3.05583e-08)
(1.15051e-09 -6.13702e-08 4.50033e-08)
(1.50573e-09 -7.6033e-08 5.81404e-08)
(7.68335e-09 -8.69961e-08 6.81742e-08)
(2.55163e-08 -1.03584e-07 7.30876e-08)
(5.60461e-08 -1.4726e-07 7.16813e-08)
(-1.87332e-09 5.55641e-10 3.61396e-09)
(2.16236e-09 -1.97518e-08 1.25189e-08)
(2.42374e-09 -4.16329e-08 2.24771e-08)
(1.66213e-09 -5.98533e-08 3.25093e-08)
(2.52374e-09 -7.35487e-08 4.14492e-08)
(9.03814e-09 -8.36469e-08 4.80042e-08)
(2.68077e-08 -9.9721e-08 5.097e-08)
(5.66374e-08 -1.42498e-07 4.98811e-08)
(-1.9038e-09 5.35995e-10 2.32827e-09)
(2.27298e-09 -1.92292e-08 7.74878e-09)
(2.81723e-09 -4.05373e-08 1.3645e-08)
(2.3876e-09 -5.82181e-08 1.95003e-08)
(3.559e-09 -7.1442e-08 2.46436e-08)
(1.02558e-08 -8.12714e-08 2.83381e-08)
(2.79537e-08 -9.72687e-08 2.99538e-08)
(5.73286e-08 -1.39587e-07 2.92993e-08)
(-1.88659e-09 5.73616e-10 7.98778e-10)
(2.37246e-09 -1.88742e-08 2.61484e-09)
(3.06045e-09 -3.98499e-08 4.56413e-09)
(2.79154e-09 -5.72518e-08 6.4844e-09)
(4.10621e-09 -7.02856e-08 8.15905e-09)
(1.08816e-08 -8.00534e-08 9.35204e-09)
(2.85383e-08 -9.60671e-08 9.86761e-09)
(5.76911e-08 -1.38191e-07 9.65072e-09)
(3.19376e-08 5.90146e-08 3.37696e-08)
(5.63586e-08 4.07145e-08 7.54492e-08)
(6.02709e-08 1.36239e-08 1.04895e-07)
(5.82965e-08 -1.15943e-08 1.30453e-07)
(5.76808e-08 -3.66658e-08 1.55765e-07)
(6.36405e-08 -6.59717e-08 1.8303e-07)
(8.12121e-08 -1.12545e-07 2.13918e-07)
(1.05355e-07 -1.93897e-07 2.46692e-07)
(5.68556e-09 4.40531e-08 2.65879e-08)
(1.20288e-08 3.01599e-08 6.58883e-08)
(1.27802e-08 8.99256e-09 9.38084e-08)
(1.09891e-08 -1.452e-08 1.17527e-07)
(9.47385e-09 -4.11011e-08 1.40696e-07)
(1.04809e-08 -7.22944e-08 1.65823e-07)
(1.56086e-08 -1.15584e-07 1.96188e-07)
(2.17955e-08 -1.85869e-07 2.33877e-07)
(-7.36526e-09 4.31706e-08 2.52644e-08)
(-1.5364e-08 2.97204e-08 6.42009e-08)
(-1.76936e-08 9.05169e-09 9.18239e-08)
(-1.791e-08 -1.4016e-08 1.15309e-07)
(-1.89152e-08 -4.02012e-08 1.38278e-07)
(-2.30005e-08 -7.10228e-08 1.63215e-07)
(-3.18857e-08 -1.13908e-07 1.93372e-07)
(-4.26971e-08 -1.83454e-07 2.30792e-07)
(-3.18314e-08 5.59265e-08 2.96422e-08)
(-5.725e-08 3.95093e-08 7.00454e-08)
(-6.27175e-08 1.40495e-08 9.85451e-08)
(-6.2735e-08 -9.87201e-09 1.23395e-07)
(-6.46039e-08 -3.3808e-08 1.48116e-07)
(-7.35939e-08 -6.20414e-08 1.74831e-07)
(-9.47551e-08 -1.07425e-07 2.05165e-07)
(-1.23033e-07 -1.86529e-07 2.37343e-07)
(-2.74259e-08 4.98829e-08 2.95315e-08)
(-5.06076e-08 2.92949e-08 6.77438e-08)
(-5.56832e-08 2.1112e-09 9.53712e-08)
(-5.59823e-08 -2.16286e-08 1.19618e-07)
(-5.7888e-08 -4.41452e-08 1.4425e-07)
(-6.60109e-08 -6.95094e-08 1.71992e-07)
(-8.54727e-08 -1.10499e-07 2.04185e-07)
(-1.16718e-07 -1.85306e-07 2.32981e-07)
(-8.99624e-09 2.0703e-08 6.55177e-09)
(-2.28546e-08 1.82479e-09 3.00574e-08)
(-2.51256e-08 -2.05782e-08 5.48162e-08)
(-2.40888e-08 -4.19173e-08 7.79706e-08)
(-2.47252e-08 -6.28822e-08 1.00694e-07)
(-3.16622e-08 -8.46242e-08 1.24127e-07)
(-5.10519e-08 -1.15378e-07 1.46295e-07)
(-8.57822e-08 -1.73089e-07 1.58107e-07)
(1.65605e-09 6.3521e-09 2.59548e-09)
(-5.39274e-09 -1.30164e-08 1.94916e-08)
(-5.82967e-09 -3.44181e-08 4.09095e-08)
(-4.3998e-09 -5.41033e-08 6.24115e-08)
(-4.87562e-09 -7.19969e-08 8.29434e-08)
(-1.18934e-08 -8.80644e-08 1.01611e-07)
(-3.17985e-08 -1.09855e-07 1.14995e-07)
(-6.65249e-08 -1.57463e-07 1.16856e-07)
(6.06354e-09 6.40953e-10 3.70403e-09)
(2.09322e-09 -1.90725e-08 1.78728e-08)
(2.4235e-09 -4.04965e-08 3.55434e-08)
(3.72135e-09 -5.90762e-08 5.37544e-08)
(2.88965e-09 -7.42244e-08 7.07144e-08)
(-4.52041e-09 -8.60909e-08 8.45722e-08)
(-2.45275e-08 -1.03172e-07 9.23728e-08)
(-5.81982e-08 -1.46484e-07 9.11768e-08)
(7.5291e-09 -1.2691e-09 4.08475e-09)
(4.49408e-09 -2.08159e-08 1.57178e-08)
(4.88938e-09 -4.19863e-08 2.94156e-08)
(5.85763e-09 -5.96811e-08 4.3453e-08)
(4.59523e-09 -7.30547e-08 5.62016e-08)
(-3.10611e-09 -8.27409e-08 6.58827e-08)
(-2.29524e-08 -9.79904e-08 7.05152e-08)
(-5.55377e-08 -1.39433e-07 6.89761e-08)
(7.8848e-09 -1.78368e-09 3.44067e-09)
(4.9527e-09 -2.08635e-08 1.20486e-08)
(5.15201e-09 -4.1499e-08 2.1728e-08)
(5.80001e-09 -5.84707e-08 3.1483e-08)
(4.21538e-09 -7.08856e-08 4.01512e-08)
(-3.64192e-09 -7.96987e-08 4.64562e-08)
(-2.32599e-08 -9.44111e-08 4.92228e-08)
(-5.50073e-08 -1.34917e-07 4.80392e-08)
(7.92738e-09 -1.8686e-09 2.23033e-09)
(4.92052e-09 -2.04705e-08 7.48305e-09)
(4.92758e-09 -4.05796e-08 1.32207e-08)
(5.35344e-09 -5.70376e-08 1.89159e-08)
(3.57833e-09 -6.89892e-08 2.38995e-08)
(-4.34256e-09 -7.75281e-08 2.74454e-08)
(-2.37788e-08 -9.21471e-08 2.89422e-08)
(-5.49789e-08 -1.32167e-07 2.82309e-08)
(7.91882e-09 -1.86188e-09 7.67176e-10)
(4.85807e-09 -2.01775e-08 2.52893e-09)
(4.76406e-09 -3.99776e-08 4.42676e-09)
(5.08213e-09 -5.61708e-08 6.29471e-09)
(3.22214e-09 -6.79372e-08 7.91679e-09)
(-4.71859e-09 -7.64121e-08 9.06055e-09)
(-2.40588e-08 -9.10393e-08 9.53656e-09)
(-5.49906e-08 -1.30851e-07 9.30075e-09)
(1.05196e-07 -1.99981e-07 2.49044e-07)
(8.0711e-08 -1.8395e-07 1.67692e-07)
(6.26019e-08 -1.6988e-07 1.2118e-07)
(5.5589e-08 -1.59797e-07 9.23527e-08)
(5.44303e-08 -1.52767e-07 6.88716e-08)
(5.50319e-08 -1.48074e-07 4.76785e-08)
(5.57005e-08 -1.45181e-07 2.79766e-08)
(5.60376e-08 -1.43795e-07 9.2168e-09)
(2.166e-08 -1.86854e-07 2.41318e-07)
(1.51183e-08 -1.65901e-07 1.71078e-07)
(9.50892e-09 -1.5232e-07 1.279e-07)
(7.75661e-09 -1.44227e-07 9.70307e-08)
(8.19237e-09 -1.38924e-07 7.10565e-08)
(9.12596e-09 -1.35314e-07 4.84441e-08)
(9.83554e-09 -1.32983e-07 2.81775e-08)
(1.01797e-08 -1.31827e-07 9.24951e-09)
(-4.28054e-08 -1.83519e-07 2.39118e-07)
(-3.23265e-08 -1.62786e-07 1.69593e-07)
(-2.37425e-08 -1.49358e-07 1.26766e-07)
(-1.97465e-08 -1.41377e-07 9.61683e-08)
(-1.85081e-08 -1.36158e-07 7.04255e-08)
(-1.82535e-08 -1.32607e-07 4.80147e-08)
(-1.82041e-08 -1.30315e-07 2.79284e-08)
(-1.81791e-08 -1.29178e-07 9.16792e-09)
(-1.23147e-07 -1.89849e-07 2.42367e-07)
(-9.51759e-08 -1.74282e-07 1.63213e-07)
(-7.42032e-08 -1.60601e-07 1.17762e-07)
(-6.49297e-08 -1.50833e-07 8.97455e-08)
(-6.2067e-08 -1.44042e-07 6.69632e-08)
(-6.14576e-08 -1.3952e-07 4.63805e-08)
(-6.13519e-08 -1.36737e-07 2.72242e-08)
(-6.1312e-08 -1.35405e-07 8.97041e-09)
)
;
    }
    symmetry
    {
        type            symmetry;
    }
    bottom
    {
        type            calculated;
        value           uniform (0 0 0);
    }
}


// ************************************************************************* //
