/*--------------------------------*- C++ -*----------------------------------*\
| =========                 |                                                 |
| \\      /  F ield         | OpenFOAM: The Open Source CFD Toolbox           |
|  \\    /   O peration     | Version:  v1912                                 |
|   \\  /    A nd           | Website:  www.openfoam.com                      |
|    \\/     M anipulation  |                                                 |
\*---------------------------------------------------------------------------*/
FoamFile
{
    version     2.0;
    format      ascii;
    class       volVectorField;
    location    "0.33/solid";
    object      D;
}
// * * * * * * * * * * * * * * * * * * * * * * * * * * * * * * * * * * * * * //

dimensions      [0 1 0 0 0 0 0];


internalField   nonuniform List<vector> 
256
(
(1.46171e-08 2.65482e-08 1.53026e-08)
(7.9582e-10 1.56074e-08 1.41521e-08)
(-1.59743e-10 1.54608e-08 1.42842e-08)
(-1.38279e-08 2.58598e-08 1.57988e-08)
(2.24796e-08 2.14469e-08 2.54147e-08)
(3.56944e-09 1.5625e-08 2.40021e-08)
(-1.30843e-09 1.51912e-08 2.43827e-08)
(-2.0029e-08 1.99123e-08 2.66817e-08)
(2.34978e-08 1.56046e-08 2.86519e-08)
(4.66009e-09 1.33624e-08 2.71786e-08)
(-4.42156e-10 1.26521e-08 2.77426e-08)
(-1.91081e-08 1.32977e-08 3.04599e-08)
(2.37577e-08 1.20025e-08 3.02445e-08)
(5.3068e-09 1.07813e-08 2.87633e-08)
(1.18732e-09 9.82031e-09 2.94583e-08)
(-1.71033e-08 8.98989e-09 3.24418e-08)
(2.47425e-08 9.70184e-09 3.16345e-08)
(6.27264e-09 8.34079e-09 3.02342e-08)
(2.81374e-09 7.14611e-09 3.10294e-08)
(-1.54979e-08 6.02974e-09 3.41321e-08)
(2.66453e-08 8.06634e-09 3.33761e-08)
(7.69615e-09 6.21438e-09 3.21024e-08)
(4.29782e-09 4.79034e-09 3.29819e-08)
(-1.45035e-08 3.75292e-09 3.61251e-08)
(2.97832e-08 4.91021e-09 3.60442e-08)
(9.63826e-09 2.99771e-09 3.49002e-08)
(5.57619e-09 1.34853e-09 3.58576e-08)
(-1.44842e-08 -4.50404e-11 3.90193e-08)
(3.4694e-08 -1.89427e-08 4.01926e-08)
(1.1788e-08 -1.86708e-08 3.91919e-08)
(6.90124e-09 -2.04148e-08 4.02139e-08)
(-1.60509e-08 -2.42864e-08 4.33445e-08)
(1.18709e-08 1.37841e-08 5.71888e-10)
(3.70662e-10 4.4126e-09 9.65109e-10)
(-2.09087e-11 4.24933e-09 1.1273e-09)
(-1.1276e-08 1.30999e-08 1.05016e-09)
(1.84717e-08 1.31431e-08 5.91188e-09)
(2.64203e-09 7.98569e-09 6.67542e-09)
(-1.08736e-09 7.49965e-09 7.06645e-09)
(-1.6614e-08 1.15449e-08 7.05198e-09)
(1.92115e-08 1.10422e-08 9.35473e-09)
(3.54294e-09 8.95085e-09 1.0287e-08)
(-3.57432e-10 8.19418e-09 1.08415e-08)
(-1.574e-08 8.68067e-09 1.09732e-08)
(1.9332e-08 9.15476e-09 1.10858e-08)
(4.08721e-09 7.95724e-09 1.21179e-08)
(1.11566e-09 6.96417e-09 1.2793e-08)
(-1.38483e-08 6.11146e-09 1.30647e-08)
(2.02474e-08 7.51516e-09 1.22175e-08)
(4.9748e-09 6.15154e-09 1.33292e-08)
(2.6123e-09 4.93608e-09 1.40997e-08)
(-1.23726e-08 3.83081e-09 1.44835e-08)
(2.21871e-08 6.0742e-09 1.34226e-08)
(6.35239e-09 4.21317e-09 1.45925e-08)
(3.97153e-09 2.77798e-09 1.54428e-08)
(-1.15766e-08 1.76512e-09 1.59286e-08)
(2.54712e-08 3.36028e-09 1.49847e-08)
(8.28053e-09 1.4443e-09 1.61837e-08)
(5.12299e-09 -1.99664e-10 1.70971e-08)
(-1.18409e-08 -1.55697e-09 1.76822e-08)
(3.05784e-08 -1.76535e-08 1.63293e-08)
(1.04235e-08 -1.7265e-08 1.75408e-08)
(6.34668e-09 -1.89666e-08 1.84795e-08)
(-1.37278e-08 -2.28774e-08 1.9112e-08)
(1.00994e-08 1.02672e-08 1.54479e-10)
(8.74857e-12 1.89476e-09 5.81791e-10)
(1.68429e-10 1.74747e-09 7.01036e-10)
(-9.67192e-09 9.68932e-09 4.94684e-10)
(1.59878e-08 8.75685e-09 3.21057e-09)
(1.84127e-09 4.12499e-09 4.06442e-09)
(-7.80697e-10 3.66337e-09 4.36096e-09)
(-1.46014e-08 7.29911e-09 4.05565e-09)
(1.66615e-08 7.27259e-09 6.22438e-09)
(2.5874e-09 5.34142e-09 7.25856e-09)
(-1.76554e-10 4.61205e-09 7.68624e-09)
(-1.39333e-08 5.05005e-09 7.45354e-09)
(1.67231e-08 6.22201e-09 8.25568e-09)
(3.04541e-09 5.07146e-09 9.38457e-09)
(1.14601e-09 4.10782e-09 9.91458e-09)
(-1.22135e-08 3.31161e-09 9.7922e-09)
(1.75744e-08 5.22374e-09 9.63586e-09)
(3.8601e-09 3.87817e-09 1.08272e-08)
(2.51932e-09 2.69448e-09 1.14415e-08)
(-1.08641e-08 1.66751e-09 1.14276e-08)
(1.95284e-08 4.25789e-09 1.08556e-08)
(5.19735e-09 2.39878e-09 1.20805e-08)
(3.75798e-09 9.99389e-10 1.27645e-08)
(-1.02384e-08 7.8038e-11 1.28597e-08)
(2.29467e-08 2.04217e-09 1.21218e-08)
(7.12642e-09 1.34875e-10 1.33529e-08)
(4.77715e-09 -1.46573e-09 1.4086e-08)
(-1.07656e-08 -2.73484e-09 1.42815e-08)
(2.82246e-08 -1.78054e-08 1.3136e-08)
(9.27461e-09 -1.73248e-08 1.43644e-08)
(5.88535e-09 -1.89742e-08 1.5107e-08)
(-1.29344e-08 -2.2875e-08 1.53424e-08)
(9.15617e-09 9.28286e-09 4.2363e-10)
(-1.57344e-10 1.46815e-09 6.79823e-10)
(2.40426e-10 1.33815e-09 7.64879e-10)
(-8.85601e-09 8.79802e-09 6.66144e-10)
(1.46115e-08 6.89755e-09 2.44085e-09)
(1.4208e-09 2.57925e-09 2.98572e-09)
(-6.76557e-10 2.16031e-09 3.20167e-09)
(-1.35753e-08 5.60557e-09 3.05503e-09)
(1.52929e-08 4.95131e-09 4.7325e-09)
(2.06897e-09 3.13608e-09 5.40971e-09)
(-1.95891e-10 2.45857e-09 5.72573e-09)
(-1.31266e-08 2.91326e-09 5.63988e-09)
(1.5355e-08 3.90593e-09 6.62575e-09)
(2.46484e-09 2.80362e-09 7.37233e-09)
(9.88414e-10 1.89307e-09 7.76985e-09)
(-1.16015e-08 1.17677e-09 7.77899e-09)
(1.61555e-08 3.14434e-09 8.05903e-09)
(3.21414e-09 1.82701e-09 8.85421e-09)
(2.25447e-09 6.95495e-10 9.32099e-09)
(-1.03701e-08 -2.40071e-10 9.42371e-09)
(1.80807e-08 2.46049e-09 9.25756e-09)
(4.50241e-09 6.16136e-10 1.00828e-08)
(3.3976e-09 -7.31772e-10 1.06068e-08)
(-9.85725e-09 -1.55628e-09 1.07988e-08)
(2.15551e-08 4.6791e-10 1.04098e-08)
(6.41645e-09 -1.41528e-09 1.12432e-08)
(4.31161e-09 -2.96536e-09 1.18054e-08)
(-1.0558e-08 -4.15434e-09 1.20761e-08)
(2.69342e-08 -1.8783e-08 1.14987e-08)
(8.56e-09 -1.82179e-08 1.23249e-08)
(5.32132e-09 -1.98209e-08 1.28916e-08)
(-1.29279e-08 -2.37133e-08 1.31969e-08)
(8.6666e-09 8.82403e-09 4.68769e-10)
(-2.24747e-10 1.32081e-09 6.04194e-10)
(2.54105e-10 1.20486e-09 6.64021e-10)
(-8.45214e-09 8.40867e-09 6.38789e-10)
(1.38494e-08 6.02889e-09 1.8958e-09)
(1.21368e-09 1.89528e-09 2.20512e-09)
(-6.70714e-10 1.51475e-09 2.35834e-09)
(-1.30531e-08 4.87415e-09 2.32997e-09)
(1.45246e-08 3.62567e-09 3.53131e-09)
(1.79545e-09 1.88899e-09 3.93042e-09)
(-2.86022e-10 1.26128e-09 4.15665e-09)
(-1.27537e-08 1.75219e-09 4.17908e-09)
(1.45919e-08 2.30058e-09 5.04026e-09)
(2.14305e-09 1.23991e-09 5.48935e-09)
(7.89386e-10 3.81933e-10 5.77678e-09)
(-1.13857e-08 -2.59853e-10 5.87301e-09)
(1.5355e-08 1.47006e-09 6.29684e-09)
(2.83732e-09 1.84313e-10 6.78379e-09)
(1.96886e-09 -8.95668e-10 7.12444e-09)
(-1.02555e-08 -1.75246e-09 7.29299e-09)
(1.7239e-08 8.24829e-10 7.37419e-09)
(4.07646e-09 -9.94738e-10 7.88909e-09)
(3.03893e-09 -2.29371e-09 8.27393e-09)
(-9.82146e-09 -3.04135e-09 8.50825e-09)
(2.072e-08 -1.12113e-09 8.41074e-09)
(5.96381e-09 -2.97039e-09 8.93754e-09)
(3.87602e-09 -4.47566e-09 9.35145e-09)
(-1.06299e-08 -5.6075e-09 9.64197e-09)
(2.6141e-08 -1.99988e-08 9.47221e-09)
(8.09174e-09 -1.93606e-08 9.99201e-09)
(4.8127e-09 -2.09251e-08 1.04086e-08)
(-1.3128e-08 -2.4813e-08 1.07272e-08)
(8.40129e-09 8.53981e-09 3.81871e-10)
(-2.5561e-10 1.21406e-09 4.50878e-10)
(2.53633e-10 1.10836e-09 4.90701e-10)
(-8.24062e-09 8.17244e-09 4.94278e-10)
(1.34179e-08 5.53472e-09 1.36195e-09)
(1.10159e-09 1.51233e-09 1.53141e-09)
(-6.84561e-10 1.16045e-09 1.63375e-09)
(-1.27758e-08 4.47925e-09 1.65021e-09)
(1.40721e-08 2.84535e-09 2.45893e-09)
(1.63541e-09 1.16227e-09 2.68692e-09)
(-3.63204e-10 5.7311e-10 2.83884e-09)
(-1.25625e-08 1.09625e-09 2.89177e-09)
(1.41331e-08 1.25032e-09 3.52372e-09)
(1.94435e-09 2.22878e-10 3.78715e-09)
(6.37211e-10 -5.93239e-10 3.98141e-09)
(-1.1298e-08 -1.17834e-09 4.08456e-09)
(1.48667e-08 2.46596e-10 4.47127e-09)
(2.59549e-09 -1.01083e-09 4.76271e-09)
(1.75307e-09 -2.04939e-09 4.9944e-09)
(-1.02427e-08 -2.84747e-09 5.1474e-09)
(1.67145e-08 -4.84739e-10 5.32037e-09)
(3.79393e-09 -2.27881e-09 5.63423e-09)
(2.76892e-09 -3.53887e-09 5.89726e-09)
(-9.86557e-09 -4.23178e-09 6.09499e-09)
(2.01849e-08 -2.46334e-09 6.1548e-09)
(5.65453e-09 -4.27905e-09 6.48022e-09)
(3.55092e-09 -5.74942e-09 6.76385e-09)
(-1.07435e-08 -6.84372e-09 6.99918e-09)
(2.56204e-08 -2.11203e-08 7.03453e-09)
(7.76423e-09 -2.04205e-08 7.35485e-09)
(4.43609e-09 -2.19552e-08 7.64011e-09)
(-1.33246e-08 -2.58449e-08 7.89583e-09)
(8.25572e-09 8.3687e-09 2.41131e-10)
(-2.71958e-10 1.14149e-09 2.74017e-10)
(2.5267e-10 1.04241e-09 2.96827e-10)
(-8.1262e-09 8.03119e-09 3.05137e-10)
(1.31761e-08 5.23898e-09 8.18954e-10)
(1.0381e-09 1.28116e-09 9.04386e-10)
(-6.94376e-10 9.47848e-10 9.6311e-10)
(-1.2625e-08 4.24682e-09 9.83484e-10)
(1.38093e-08 2.38717e-09 1.45325e-09)
(1.54e-09 7.38486e-10 1.57213e-09)
(-4.0995e-10 1.74769e-10 1.65958e-09)
(-1.24571e-08 7.19379e-10 1.70129e-09)
(1.38589e-08 6.10186e-10 2.08181e-09)
(1.82134e-09 -3.9381e-10 2.22237e-09)
(5.45017e-10 -1.1818e-09 2.33465e-09)
(-1.12518e-08 -1.73046e-09 2.40484e-09)
(1.45706e-08 -5.46115e-10 2.66353e-09)
(2.44265e-09 -1.78278e-09 2.82157e-09)
(1.61989e-09 -2.79323e-09 2.95602e-09)
(-1.02438e-08 -3.55325e-09 3.05499e-09)
(1.63927e-08 -1.38023e-09 3.2036e-09)
(3.61288e-09 -3.15483e-09 3.37597e-09)
(2.59948e-09 -4.38845e-09 3.52912e-09)
(-9.90436e-09 -5.0463e-09 3.65406e-09)
(1.98524e-08 -3.40995e-09 3.74471e-09)
(5.45373e-09 -5.20023e-09 3.92499e-09)
(3.34489e-09 -6.64696e-09 4.09047e-09)
(-1.08265e-08 -7.71833e-09 4.23722e-09)
(2.52934e-08 -2.19515e-08 4.32112e-09)
(7.54912e-09 -2.12066e-08 4.49819e-09)
(4.19643e-09 -2.27212e-08 4.66458e-09)
(-1.34606e-08 -2.66153e-08 4.82383e-09)
(8.18953e-09 8.28818e-09 8.17995e-11)
(-2.79583e-10 1.1055e-09 9.16109e-11)
(2.52628e-10 1.00964e-09 9.90382e-11)
(-8.07429e-09 7.96495e-09 1.02574e-10)
(1.30651e-08 5.09683e-09 2.72993e-10)
(1.00836e-09 1.16899e-09 2.99234e-10)
(-6.98279e-10 8.44753e-10 3.18373e-10)
(-1.25561e-08 4.13534e-09 3.26456e-10)
(1.36862e-08 2.1697e-09 4.8095e-10)
(1.49432e-09 5.37992e-10 5.18114e-10)
(-4.30698e-10 -1.31854e-11 5.46658e-10)
(-1.24077e-08 5.41804e-10 5.61707e-10)
(1.37279e-08 3.04021e-10 6.8852e-10)
(1.76132e-09 -6.87812e-10 7.33023e-10)
(5.03025e-10 -1.46181e-09 7.69744e-10)
(-1.12291e-08 -1.99294e-09 7.93958e-10)
(1.44276e-08 -9.35155e-10 8.84061e-10)
(2.36737e-09 -2.16093e-09 9.34527e-10)
(1.55798e-09 -3.1573e-09 9.7859e-10)
(-1.02434e-08 -3.89876e-09 1.01217e-09)
(1.62367e-08 -1.83125e-09 1.06896e-09)
(3.52328e-09 -3.59556e-09 1.12434e-09)
(2.51938e-09 -4.8159e-09 1.17462e-09)
(-9.92281e-09 -5.45657e-09 1.21672e-09)
(1.96905e-08 -3.89465e-09 1.25619e-09)
(5.35399e-09 -5.67154e-09 1.31432e-09)
(3.2463e-09 -7.10635e-09 1.36871e-09)
(-1.08672e-08 -8.1667e-09 1.41799e-09)
(2.51339e-08 -2.23884e-08 1.4563e-09)
(7.44183e-09 -2.16198e-08 1.51331e-09)
(4.081e-09 -2.31242e-08 1.56799e-09)
(-1.35278e-08 -2.70215e-08 1.62151e-09)
)
;

boundaryField
{
    interface
    {
        type            solidTraction;
        traction        nonuniform List<vector> 
192
(
(55.2061 -0.313546 -3.50666)
(57.1683 -0.116898 -5.32913)
(58.2472 0.230839 -5.71251)
(58.9435 0.623732 -5.71751)
(58.9431 0.960054 -5.55443)
(59.6659 1.60746 -5.33109)
(57.8208 2.06658 -4.83476)
(61.173 4.43995 -4.42786)
(53.5969 -0.204323 -1.77982)
(54.5818 -0.0142247 -2.87988)
(55.2118 0.3107 -3.05775)
(55.7077 0.726883 -3.00588)
(55.5393 1.09455 -2.85564)
(56.2475 1.82129 -2.66981)
(54.183 2.33462 -2.34844)
(57.8437 4.85479 -2.07992)
(56.4791 -0.17248 -1.42741)
(57.3675 0.0311869 -2.2895)
(57.9986 0.367943 -2.4265)
(58.4954 0.824484 -2.38278)
(58.2089 1.2413 -2.26187)
(58.8112 2.05914 -2.10984)
(56.2531 2.65638 -1.866)
(59.7168 5.36604 -1.64853)
(56.5897 -0.123629 -0.901044)
(57.2811 0.0981727 -1.50727)
(57.7729 0.441206 -1.59723)
(58.1911 0.916531 -1.55547)
(57.8105 1.35828 -1.46106)
(58.3644 2.21866 -1.34668)
(55.6493 2.85341 -1.18534)
(59.1164 5.62175 -1.04425)
(57.4294 -0.10296 -0.668929)
(58.0599 0.136836 -1.11611)
(58.4896 0.493948 -1.18347)
(58.8697 0.988812 -1.15253)
(58.415 1.45519 -1.08273)
(58.8993 2.35185 -0.996792)
(55.9985 3.02193 -0.880896)
(59.3534 5.84397 -0.776007)
(57.6014 -0.0853585 -0.418002)
(58.1786 0.168314 -0.713287)
(58.5514 0.53536 -0.757879)
(58.8964 1.0419 -0.735819)
(58.3948 1.52259 -0.688538)
(58.8444 2.43871 -0.630944)
(55.8599 3.12772 -0.557641)
(59.1853 5.97843 -0.492011)
(57.8745 -0.0777206 -0.247449)
(58.4337 0.185688 -0.42088)
(58.7771 0.561198 -0.447494)
(59.1024 1.0766 -0.434679)
(58.5685 1.56793 -0.407241)
(58.9868 2.49754 -0.373053)
(55.9333 3.20009 -0.330922)
(59.2169 6.07121 -0.291461)
(57.9269 -0.0723584 -0.0749836)
(58.4721 0.195652 -0.131001)
(58.7988 0.574558 -0.139613)
(59.1134 1.09339 -0.135209)
(58.5674 1.58927 -0.126317)
(58.9727 2.52419 -0.115192)
(55.8996 3.23303 -0.102301)
(59.1632 6.11293 -0.0897134)
(5.22429 0.911967 22.8618)
(8.23752 0.891892 17.922)
(8.95035 0.597053 15.0484)
(9.06746 0.414967 14.4538)
(9.01996 0.352034 15.0037)
(8.98376 0.411122 16.415)
(8.9274 0.497716 18.9823)
(9.44198 0.708544 21.334)
(3.57022 0.481658 29.3223)
(6.17939 0.54171 28.2367)
(6.71883 0.333086 27.4785)
(6.76983 0.157482 27.3887)
(6.74176 0.0527236 27.6315)
(6.77137 0.00898442 28.1633)
(6.88449 0.0135808 28.9846)
(7.61953 0.0895139 29.6211)
(3.80124 0.291236 26.0025)
(6.55953 0.330617 25.1972)
(7.16707 0.170031 24.5326)
(7.23046 -0.00609889 24.4234)
(7.17959 -0.139506 24.6843)
(7.15296 -0.253831 25.1796)
(7.17146 -0.330387 26.0827)
(7.81298 -0.344304 27.055)
(4.47178 0.209565 26.7025)
(7.69278 0.213197 26.2113)
(8.43877 0.0604191 25.6998)
(8.53074 -0.12556 25.6431)
(8.4541 -0.27124 25.8733)
(8.39883 -0.426736 26.1781)
(8.29492 -0.551879 26.7765)
(8.91896 -0.699641 27.4173)
(-11.5878 0.935316 1.86497)
(-7.12971 0.730965 3.1204)
(-4.72446 0.115152 3.36433)
(-3.83722 -0.436284 3.38406)
(-4.12181 -0.756404 3.33688)
(-3.30406 -1.26548 3.41085)
(-5.24565 -1.28596 3.3432)
(4.06935 -3.66071 3.7235)
(-19.5536 0.331807 0.226096)
(-18.6126 0.192496 0.730121)
(-18.0369 -0.161156 0.754463)
(-17.5265 -0.540079 0.726204)
(-17.5966 -0.726576 0.728509)
(-15.9235 -1.14701 0.870831)
(-16.5904 -0.917227 0.997527)
(-5.16991 -3.28807 1.37667)
(-19.4933 0.170816 0.4694)
(-18.7662 0.00933788 1.03012)
(-18.2386 -0.255579 1.13193)
(-17.5978 -0.582724 1.13819)
(-17.5302 -0.713768 1.13901)
(-15.417 -1.10976 1.21821)
(-15.8005 -0.784336 1.25668)
(-3.04842 -3.35475 1.39872)
(-21.4483 0.0740953 0.270157)
(-21.0375 -0.103892 0.709472)
(-20.7196 -0.31896 0.79809)
(-20.0494 -0.599681 0.805512)
(-19.8515 -0.673344 0.805553)
(-17.3121 -1.03176 0.859824)
(-17.279 -0.627983 0.883112)
(-3.53549 -3.28296 0.965527)
(-21.6467 0.0588874 0.299157)
(-21.2422 -0.131433 0.662293)
(-20.9143 -0.338365 0.746107)
(-20.166 -0.610012 0.756962)
(-19.8886 -0.663973 0.753028)
(-17.1306 -1.01441 0.775984)
(-16.9562 -0.58254 0.768771)
(-2.6492 -3.32883 0.786341)
(-22.1875 0.0515581 0.192971)
(-21.8041 -0.145095 0.442555)
(-21.4786 -0.348547 0.502908)
(-20.6783 -0.614581 0.511233)
(-20.3324 -0.65392 0.508666)
(-17.3957 -0.996448 0.522048)
(-17.0796 -0.543962 0.515719)
(-2.35622 -3.34423 0.523139)
(-22.2872 0.0527378 0.13078)
(-21.8944 -0.147616 0.281176)
(-21.5527 -0.351935 0.318335)
(-20.7145 -0.618006 0.32359)
(-20.3303 -0.652179 0.321707)
(-17.2997 -0.993077 0.326475)
(-16.9232 -0.532045 0.320007)
(-1.95949 -3.37043 0.317611)
(-22.4145 0.0519638 0.0376311)
(-22.0232 -0.149677 0.0863035)
(-21.6756 -0.353684 0.0985229)
(-20.8195 -0.618996 0.100206)
(-20.4116 -0.650281 0.0999179)
(-17.3324 -0.989232 0.101619)
(-16.9112 -0.524058 0.100547)
(-1.83417 -3.37962 0.0998781)
(9.46478 -21.0595 -0.650569)
(8.96466 -18.5498 -0.438892)
(9.04353 -15.6775 -0.327519)
(9.11422 -13.7948 -0.215096)
(9.22355 -12.368 -0.166139)
(9.2899 -11.3557 -0.103771)
(9.34286 -10.7227 -0.0649636)
(9.36617 -10.4136 -0.019493)
(7.62919 -29.3845 -0.0213139)
(6.89765 -28.649 0.0550502)
(6.78786 -27.6264 0.0857072)
(6.75802 -26.8421 0.0878231)
(6.78136 -26.1966 0.0682815)
(6.79229 -25.7143 0.0528908)
(6.80868 -25.4046 0.0304387)
(6.81494 -25.2384 0.0115621)
(7.82095 -26.8222 0.418858)
(7.17759 -25.7444 0.405937)
(7.16003 -24.6357 0.355554)
(7.18903 -23.8792 0.281908)
(7.24759 -23.2137 0.215924)
(7.28031 -22.7639 0.150192)
(7.30901 -22.4559 0.0883318)
(7.32042 -22.3125 0.0292374)
(8.91246 -27.2018 0.775567)
(8.28539 -26.4669 0.629037)
(8.38957 -25.7039 0.526527)
(8.4534 -25.2075 0.404586)
(8.55544 -24.6949 0.311989)
(8.61118 -24.3834 0.213663)
(8.65773 -24.1467 0.12783)
(8.67715 -24.0384 0.0417539)
)
;
        pressure        uniform 0;
        secondOrder     false;
        setEffectiveTraction false;
        relaxationFactor 1;
        value           nonuniform List<vector> 
192
(
(7.2153e-08 3.58223e-08 1.45776e-08)
(7.67246e-08 2.36671e-08 2.43121e-08)
(7.88129e-08 1.59242e-08 2.74664e-08)
(8.06429e-08 1.23138e-08 2.90139e-08)
(8.37328e-08 1.04239e-08 3.03674e-08)
(8.87602e-08 9.32679e-09 3.21001e-08)
(9.60955e-08 6.92271e-09 3.47955e-08)
(1.05864e-07 -1.73491e-08 3.89855e-08)
(6.18343e-08 2.13698e-08 -5.57831e-10)
(6.61599e-08 1.49783e-08 4.28847e-09)
(6.76332e-08 1.12573e-08 7.64515e-09)
(6.91158e-08 9.41388e-09 9.32664e-09)
(7.2099e-08 8.22913e-09 1.0425e-08)
(7.73282e-08 7.38045e-09 1.1643e-08)
(8.53803e-08 5.4585e-09 1.32752e-08)
(9.69015e-08 -1.60138e-08 1.47116e-08)
(5.43816e-08 1.6789e-08 -5.24431e-10)
(5.89944e-08 1.03974e-08 2.24515e-09)
(6.0424e-08 7.45646e-09 5.24435e-09)
(6.1763e-08 6.45037e-09 7.26104e-09)
(6.46115e-08 5.92528e-09 8.61251e-09)
(6.98286e-08 5.60131e-09 9.82869e-09)
(7.81081e-08 4.21664e-09 1.11425e-08)
(9.03731e-08 -1.61241e-08 1.22246e-08)
(4.99423e-08 1.52248e-08 6.52812e-11)
(5.44033e-08 8.43175e-09 1.906e-09)
(5.58907e-08 5.13725e-09 4.19802e-09)
(5.72161e-08 4.12172e-09 6.09271e-09)
(5.99832e-08 3.82599e-09 7.50396e-09)
(6.51368e-08 3.81076e-09 8.68498e-09)
(7.34602e-08 2.68177e-09 9.85291e-09)
(8.60131e-08 -1.70819e-08 1.09777e-08)
(4.74087e-08 1.4453e-08 2.79938e-10)
(5.16827e-08 7.49342e-09 1.59722e-09)
(5.31907e-08 3.81138e-09 3.22591e-09)
(5.45265e-08 2.50835e-09 4.73461e-09)
(5.72474e-08 2.13206e-09 5.97448e-09)
(6.23365e-08 2.16646e-09 7.03247e-09)
(7.06303e-08 1.10486e-09 8.06805e-09)
(8.32609e-08 -1.82959e-08 9.14363e-09)
(4.59309e-08 1.39946e-08 2.79081e-10)
(5.00754e-08 6.95245e-09 1.19351e-09)
(5.15744e-08 3.02423e-09 2.27998e-09)
(5.291e-08 1.44916e-09 3.34035e-09)
(5.5599e-08 8.92183e-10 4.27505e-09)
(6.06347e-08 8.45205e-10 5.1087e-09)
(6.88809e-08 -2.3634e-10 5.9378e-09)
(8.1521e-08 -1.94227e-08 6.82254e-09)
(4.50936e-08 1.37267e-08 1.8815e-10)
(4.91605e-08 6.62741e-09 7.30688e-10)
(5.06437e-08 2.55796e-09 1.3567e-09)
(5.19717e-08 8.00688e-10 1.98044e-09)
(5.46375e-08 8.75966e-11 2.55368e-09)
(5.96359e-08 -5.93794e-11 3.0841e-09)
(6.78432e-08 -1.18427e-09 3.62104e-09)
(8.04778e-08 -2.02596e-08 4.19944e-09)
(4.4711e-08 1.36018e-08 6.52399e-11)
(4.87413e-08 6.47102e-09 2.45221e-10)
(5.02143e-08 2.33549e-09 4.50142e-10)
(5.1536e-08 4.89562e-10 6.55741e-10)
(5.41892e-08 -3.07693e-10 8.48292e-10)
(5.91685e-08 -5.15114e-10 1.02993e-09)
(6.73553e-08 -1.66983e-09 1.2157e-09)
(7.99855e-08 -2.06997e-08 1.4164e-09)
(1.46929e-08 3.67277e-08 7.62153e-08)
(2.26791e-08 2.47844e-08 8.29681e-08)
(2.37237e-08 1.68121e-08 8.72873e-08)
(2.40042e-08 1.27482e-08 9.05008e-08)
(2.50275e-08 1.04848e-08 9.40433e-08)
(2.69663e-08 9.16883e-09 9.8954e-08)
(3.0123e-08 6.61441e-09 1.05945e-07)
(3.50489e-08 -1.77747e-08 1.15247e-07)
(5.41816e-10 2.51461e-08 7.03727e-08)
(3.31246e-09 1.88817e-08 7.74203e-08)
(4.43388e-09 1.45528e-08 8.12126e-08)
(5.11134e-09 1.15452e-08 8.4195e-08)
(6.12247e-09 9.17558e-09 8.78013e-08)
(7.59873e-09 7.38087e-09 9.30115e-08)
(9.59274e-09 4.77009e-09 1.00665e-07)
(1.17946e-08 -1.74745e-08 1.11519e-07)
(2.52556e-10 2.51275e-08 6.99681e-08)
(-6.37434e-10 1.85559e-08 7.72338e-08)
(3.79357e-10 1.3921e-08 8.11882e-08)
(2.10814e-09 1.0642e-08 8.42926e-08)
(3.7894e-09 8.027e-09 8.79945e-08)
(5.30466e-09 5.99734e-09 9.32846e-08)
(6.60714e-09 3.15648e-09 1.01015e-07)
(7.94067e-09 -1.92041e-08 1.11986e-07)
(-1.37472e-08 3.648e-08 7.52634e-08)
(-1.98298e-08 2.35776e-08 8.27673e-08)
(-1.87614e-08 1.47377e-08 8.75772e-08)
(-1.66491e-08 9.90791e-09 9.11534e-08)
(-1.49824e-08 6.95051e-09 9.49808e-08)
(-1.39414e-08 4.97463e-09 1.00128e-07)
(-1.38687e-08 1.75974e-09 1.07331e-07)
(-1.53922e-08 -2.30796e-08 1.16937e-07)
(-6.95202e-08 3.43242e-08 1.52015e-08)
(-7.23794e-08 2.12325e-08 2.59281e-08)
(-7.24938e-08 1.25663e-08 2.97918e-08)
(-7.20315e-08 8.08728e-09 3.18557e-08)
(-7.25141e-08 5.37964e-09 3.36091e-08)
(-7.46518e-08 3.49927e-09 3.5675e-08)
(-7.89206e-08 3.41605e-10 3.86668e-08)
(-8.56415e-08 -2.44112e-08 4.30937e-08)
(-5.91719e-08 2.00725e-08 1.11974e-11)
(-6.22175e-08 1.26609e-08 5.69521e-09)
(-6.2036e-08 7.98922e-09 9.67968e-09)
(-6.14619e-08 5.26952e-09 1.18424e-08)
(-6.20105e-08 3.26278e-09 1.33251e-08)
(-6.4473e-08 1.632e-09 1.48625e-08)
(-6.95517e-08 -1.01934e-09 1.67527e-08)
(-7.8167e-08 -2.29019e-08 1.83331e-08)
(-5.19246e-08 1.57577e-08 -1.10228e-10)
(-5.55396e-08 8.36445e-09 3.29616e-09)
(-5.55786e-08 4.45304e-09 6.8004e-09)
(-5.50846e-08 2.54421e-09 9.23069e-09)
(-5.56777e-08 1.1736e-09 1.09272e-08)
(-5.82652e-08 5.32257e-11 1.24301e-08)
(-6.36702e-08 -2.06098e-09 1.3961e-08)
(-7.30986e-08 -2.28039e-08 1.51426e-08)
(-4.76859e-08 1.44059e-08 3.61247e-10)
(-5.13613e-08 6.6732e-09 2.66807e-09)
(-5.16634e-08 2.41975e-09 5.34513e-09)
(-5.13446e-08 4.87546e-10 7.57215e-09)
(-5.20189e-08 -6.76241e-10 9.27169e-09)
(-5.46744e-08 -1.50949e-09 1.06947e-08)
(-6.02219e-08 -3.38679e-09 1.20423e-08)
(-7.00018e-08 -2.35737e-08 1.32454e-08)
(-4.52942e-08 1.3785e-08 4.84991e-10)
(-4.89316e-08 5.94952e-09 2.13022e-09)
(-4.94057e-08 1.33528e-09 4.03818e-09)
(-4.92454e-08 -8.84518e-10 5.79727e-09)
(-5.00079e-08 -2.14362e-09 7.26126e-09)
(-5.27129e-08 -2.94793e-09 8.51046e-09)
(-5.83207e-08 -4.78097e-09 9.68847e-09)
(-6.82408e-08 -2.46299e-08 1.08265e-08)
(-4.39064e-08 1.34266e-08 4.12825e-10)
(-4.75119e-08 5.55969e-09 1.54326e-09)
(-4.80817e-08 7.26725e-10 2.8177e-09)
(-4.80286e-08 -1.75839e-09 4.05119e-09)
(-4.88607e-08 -3.20568e-09 5.14457e-09)
(-5.16017e-08 -4.10677e-09 6.1158e-09)
(-5.72346e-08 -5.97906e-09 7.04843e-09)
(-6.72178e-08 -2.56345e-08 7.97908e-09)
(-4.31217e-08 1.3219e-08 2.63577e-10)
(-4.67081e-08 5.32952e-09 9.28592e-10)
(-4.73274e-08 3.76033e-10 1.66265e-09)
(-4.73358e-08 -2.28389e-09 2.38766e-09)
(-4.82122e-08 -3.89023e-09 3.05522e-09)
(-5.09768e-08 -4.90079e-09 3.66842e-09)
(-5.66217e-08 -6.82936e-09 4.2682e-09)
(-6.66379e-08 -2.6388e-08 4.87467e-09)
(-4.27634e-08 1.31225e-08 8.96037e-11)
(-4.63405e-08 5.21867e-09 3.09245e-10)
(-4.69808e-08 2.09988e-10 5.49385e-10)
(-4.70167e-08 -2.53412e-09 7.8828e-10)
(-4.79141e-08 -4.22543e-09 1.01209e-09)
(-5.06902e-08 -5.30081e-09 1.22135e-09)
(-5.63406e-08 -7.26555e-09 1.42817e-09)
(-6.63724e-08 -2.67859e-08 1.63832e-09)
(3.54243e-08 -9.40108e-08 4.04541e-08)
(3.13026e-08 -8.75695e-08 1.60449e-08)
(2.89466e-08 -8.34128e-08 1.34183e-08)
(2.7645e-08 -8.12793e-08 1.2047e-08)
(2.68344e-08 -8.05139e-08 1.00565e-08)
(2.62958e-08 -8.0399e-08 7.52269e-09)
(2.59546e-08 -8.05031e-08 4.63815e-09)
(2.57876e-08 -8.06019e-08 1.56552e-09)
(1.21573e-08 -9.10116e-08 3.94386e-08)
(1.0753e-08 -8.30509e-08 1.72043e-08)
(9.56791e-09 -7.82775e-08 1.46026e-08)
(8.82059e-09 -7.58869e-08 1.28339e-08)
(8.32444e-09 -7.50115e-08 1.05427e-08)
(7.97408e-09 -7.48307e-08 7.81634e-09)
(7.74265e-09 -7.48914e-08 4.79803e-09)
(7.62691e-09 -7.49679e-08 1.61662e-09)
(8.30643e-09 -9.21992e-08 4.04573e-08)
(7.75097e-09 -8.41437e-08 1.81195e-08)
(7.27407e-09 -7.93183e-08 1.53207e-08)
(6.69633e-09 -7.68848e-08 1.33794e-08)
(6.17698e-09 -7.59729e-08 1.09422e-08)
(5.79339e-09 -7.57639e-08 8.08914e-09)
(5.54981e-09 -7.58054e-08 4.95684e-09)
(5.43263e-09 -7.58722e-08 1.66875e-09)
(-1.50191e-08 -9.78851e-08 4.35958e-08)
(-1.27365e-08 -9.11978e-08 1.87593e-08)
(-1.19934e-08 -8.68995e-08 1.55514e-08)
(-1.20232e-08 -8.46401e-08 1.36814e-08)
(-1.22461e-08 -8.37677e-08 1.12601e-08)
(-1.2456e-08 -8.35704e-08 8.34645e-09)
(-1.25993e-08 -8.36185e-08 5.11801e-09)
(-1.26698e-08 -8.36891e-08 1.72307e-09)
)
;
        gradient        nonuniform List<vector> 
192
(
(4.60287e-06 7.4193e-07 -5.80011e-08)
(4.3396e-06 1.77613e-07 -8.82076e-08)
(4.42521e-06 2.5566e-08 -9.48366e-08)
(4.55081e-06 2.49028e-08 -9.84493e-08)
(4.71922e-06 5.77642e-08 -1.01373e-07)
(4.96919e-06 1.00836e-07 -1.02074e-07)
(5.30498e-06 1.61e-07 -9.98948e-08)
(5.69364e-06 1.27487e-07 -9.65642e-08)
(3.99707e-06 6.06849e-07 -9.03776e-08)
(3.81505e-06 1.46812e-07 -1.29873e-07)
(3.87374e-06 1.72099e-08 -1.36766e-07)
(3.98271e-06 2.07292e-08 -1.40732e-07)
(4.14813e-06 5.71175e-08 -1.43401e-07)
(4.41129e-06 1.045e-07 -1.42372e-07)
(4.79272e-06 1.67857e-07 -1.36762e-07)
(5.30585e-06 1.31175e-07 -1.29415e-07)
(3.54258e-06 5.21743e-07 -5.43128e-08)
(3.44053e-06 1.31243e-07 -7.72335e-08)
(3.501e-06 1.47102e-08 -7.84026e-08)
(3.60319e-06 1.82683e-08 -7.95708e-08)
(3.76297e-06 5.61232e-08 -8.18688e-08)
(4.02402e-06 1.07474e-07 -8.21565e-08)
(4.41291e-06 1.73957e-07 -7.83468e-08)
(4.97188e-06 1.34508e-07 -7.29059e-08)
(3.26289e-06 4.75352e-07 -2.86679e-08)
(3.18335e-06 1.22736e-07 -4.27881e-08)
(3.24782e-06 1.48754e-08 -4.27586e-08)
(3.34889e-06 1.72634e-08 -4.26434e-08)
(3.50621e-06 5.45316e-08 -4.44059e-08)
(3.76449e-06 1.08022e-07 -4.58062e-08)
(4.15241e-06 1.77109e-07 -4.45494e-08)
(4.72631e-06 1.36086e-07 -4.16848e-08)
(3.09936e-06 4.50319e-07 -1.51065e-08)
(3.02667e-06 1.17162e-07 -2.38863e-08)
(3.09329e-06 1.48572e-08 -2.44325e-08)
(3.19476e-06 1.66213e-08 -2.44525e-08)
(3.35139e-06 5.29604e-08 -2.5789e-08)
(3.6078e-06 1.0733e-07 -2.73373e-08)
(3.99283e-06 1.7808e-07 -2.74158e-08)
(4.56959e-06 1.36234e-07 -2.62864e-08)
(3.00237e-06 4.36384e-07 -8.22322e-09)
(2.93259e-06 1.13418e-07 -1.34749e-08)
(3.00018e-06 1.43109e-08 -1.43163e-08)
(3.10215e-06 1.59071e-08 -1.46698e-08)
(3.25858e-06 5.16469e-08 -1.56977e-08)
(3.51362e-06 1.06395e-07 -1.69334e-08)
(3.89568e-06 1.7816e-07 -1.73599e-08)
(4.47205e-06 1.35802e-07 -1.69589e-08)
(2.94703e-06 4.28637e-07 -4.23849e-09)
(2.87875e-06 1.11074e-07 -7.06132e-09)
(2.94675e-06 1.36634e-08 -7.72426e-09)
(3.04902e-06 1.52401e-08 -8.10987e-09)
(3.20535e-06 5.0697e-08 -8.78832e-09)
(3.45945e-06 1.05668e-07 -9.55987e-09)
(3.83927e-06 1.78055e-07 -9.89312e-09)
(4.41475e-06 1.35349e-07 -9.73499e-09)
(2.92172e-06 4.25093e-07 -1.32477e-09)
(2.85409e-06 1.09935e-07 -2.22175e-09)
(2.92225e-06 1.3263e-08 -2.4646e-09)
(3.02465e-06 1.48432e-08 -2.62234e-09)
(3.18093e-06 5.0197e-08 -2.86153e-09)
(3.43454e-06 1.05291e-07 -3.12236e-09)
(3.81318e-06 1.77985e-07 -3.23914e-09)
(4.38813e-06 1.35098e-07 -3.19158e-09)
(6.06047e-09 8.14358e-07 4.87301e-06)
(1.59586e-08 2.66998e-07 4.60427e-06)
(1.80699e-08 9.66033e-08 4.69083e-06)
(1.97181e-08 5.96582e-08 4.8205e-06)
(2.27982e-08 6.26353e-08 4.9927e-06)
(2.56813e-08 8.8199e-08 5.24623e-06)
(2.71829e-08 1.36336e-07 5.59202e-06)
(2.83923e-08 9.34391e-08 6.00439e-06)
(-2.03204e-08 7.6309e-07 4.49765e-06)
(-2.05585e-08 2.60537e-07 4.27346e-06)
(-1.80974e-08 9.52281e-08 4.32272e-06)
(-1.56362e-08 6.1114e-08 4.43454e-06)
(-1.20134e-08 6.67834e-08 4.60536e-06)
(-7.79366e-09 9.33192e-08 4.87273e-06)
(-3.64185e-09 1.41791e-07 5.26119e-06)
(5.27234e-10 9.5704e-08 5.78616e-06)
(3.29839e-08 7.73342e-07 4.45472e-06)
(5.368e-08 2.69173e-07 4.22809e-06)
(6.5721e-08 1.01513e-07 4.27565e-06)
(7.36656e-08 6.57365e-08 4.38675e-06)
(7.80527e-08 7.04716e-08 4.5572e-06)
(8.05472e-08 9.65603e-08 4.82421e-06)
(8.24762e-08 1.44636e-07 5.21257e-06)
(8.31546e-08 9.68579e-08 5.74174e-06)
(6.45967e-09 8.49613e-07 4.75717e-06)
(1.59357e-08 2.93226e-07 4.48685e-06)
(2.77321e-08 1.15202e-07 4.56938e-06)
(3.63392e-08 7.3442e-08 4.69693e-06)
(4.12446e-08 7.36619e-08 4.86789e-06)
(4.49697e-08 9.77373e-08 5.12023e-06)
(4.92411e-08 1.44382e-07 5.46497e-06)
(5.26956e-08 9.65486e-08 5.88739e-06)
(-4.45538e-06 6.77151e-07 -4.7784e-08)
(-4.18803e-06 1.05612e-07 -6.02917e-08)
(-4.27086e-06 -5.85125e-08 -5.34516e-08)
(-4.39425e-06 -7.22088e-08 -4.68868e-08)
(-4.56129e-06 -5.20078e-08 -4.18406e-08)
(-4.81187e-06 -2.02922e-08 -3.60064e-08)
(-5.15492e-06 3.09316e-08 -2.82016e-08)
(-5.56725e-06 -9.98453e-09 -2.00658e-08)
(-3.83167e-06 5.57803e-07 -8.31169e-08)
(-3.64829e-06 8.92814e-08 -1.08542e-07)
(-3.70368e-06 -5.53162e-08 -1.03485e-07)
(-3.80909e-06 -6.73549e-08 -9.77859e-08)
(-3.97103e-06 -4.54424e-08 -9.26668e-08)
(-4.23171e-06 -1.06498e-08 -8.52894e-08)
(-4.61687e-06 4.30102e-08 -7.43582e-08)
(-5.15514e-06 -1.95662e-09 -6.23116e-08)
(-3.38021e-06 4.85469e-07 -4.8393e-08)
(-3.27506e-06 8.52272e-08 -6.07595e-08)
(-3.33163e-06 -4.77612e-08 -5.22518e-08)
(-3.42969e-06 -6.1392e-08 -4.49208e-08)
(-3.58509e-06 -3.95126e-08 -4.00338e-08)
(-3.84215e-06 -1.98499e-09 -3.43717e-08)
(-4.23237e-06 5.39093e-08 -2.56411e-08)
(-4.81313e-06 5.69093e-09 -1.59794e-08)
(-3.10639e-06 4.48627e-07 -2.43918e-08)
(-3.02288e-06 8.541e-08 -3.0957e-08)
(-3.08294e-06 -3.94809e-08 -2.35806e-08)
(-3.17946e-06 -5.51378e-08 -1.65467e-08)
(-3.3319e-06 -3.48936e-08 -1.21614e-08)
(-3.58537e-06 3.74289e-09 -8.32745e-09)
(-3.97312e-06 6.14039e-08 -2.7029e-09)
(-4.56591e-06 1.11675e-08 3.884e-09)
(-2.94737e-06 4.30105e-07 -1.23038e-08)
(-2.87028e-06 8.60296e-08 -1.59801e-08)
(-2.93216e-06 -3.33532e-08 -1.12722e-08)
(-3.02878e-06 -4.99732e-08 -6.05963e-09)
(-3.18019e-06 -3.12934e-08 -2.53817e-09)
(-3.43132e-06 7.47372e-09 1.76819e-10)
(-3.81526e-06 6.6122e-08 3.72011e-09)
(-4.40903e-06 1.46439e-08 7.94507e-09)
(-2.85326e-06 4.20329e-07 -6.51619e-09)
(-2.77889e-06 8.64352e-08 -8.55615e-09)
(-2.84154e-06 -2.95621e-08 -5.92623e-09)
(-2.93845e-06 -4.6404e-08 -2.66963e-09)
(-3.08944e-06 -2.86571e-08 -2.26707e-10)
(-3.33889e-06 1.00014e-08 1.66494e-09)
(-3.71929e-06 6.91731e-08 3.94035e-09)
(-4.31145e-06 1.68335e-08 6.65953e-09)
(-2.79964e-06 4.15024e-07 -3.3248e-09)
(-2.72665e-06 8.66153e-08 -4.39131e-09)
(-2.78963e-06 -2.74677e-08 -3.0911e-09)
(-2.88672e-06 -4.42738e-08 -1.37393e-09)
(-3.03748e-06 -2.69588e-08 1.88873e-11)
(-3.28579e-06 1.1641e-08 1.149e-09)
(-3.66361e-06 7.11172e-08 2.47861e-09)
(-4.25418e-06 1.81837e-08 4.06737e-09)
(-2.77513e-06 4.12608e-07 -1.03765e-09)
(-2.70276e-06 8.66663e-08 -1.37688e-09)
(-2.76585e-06 -2.65453e-08 -9.85761e-10)