/*--------------------------------*- C++ -*----------------------------------*\
| =========                 |                                                 |
| \\      /  F ield         | OpenFOAM: The Open Source CFD Toolbox           |
|  \\    /   O peration     | Version:  v1912                                 |
|   \\  /    A nd           | Website:  www.openfoam.com                      |
|    \\/     M anipulation  |                                                 |
\*---------------------------------------------------------------------------*/
FoamFile
{
    version     2.0;
    format      ascii;
    class       pointVectorField;
    location    "0.33/solid";
    object      pointDD;
}
// * * * * * * * * * * * * * * * * * * * * * * * * * * * * * * * * * * * * * //

dimensions      [0 1 0 0 0 0 0];


internalField   nonuniform List<vector> 
405
(
(2.9958e-10 5.15563e-10 2.79319e-10)
(1.34334e-10 3.43525e-10 1.55084e-10)
(-3.01197e-12 2.77656e-10 1.09268e-10)
(-1.36257e-10 3.35688e-10 1.45195e-10)
(-2.76194e-10 5.00387e-10 2.64535e-10)
(5.92532e-10 5.88304e-10 6.70676e-10)
(3.67072e-10 5.45715e-10 5.53274e-10)
(-7.92069e-12 4.43133e-10 4.5274e-10)
(-3.73446e-10 5.34357e-10 5.31869e-10)
(-5.57943e-10 5.72781e-10 6.44573e-10)
(7.49782e-10 2.10234e-10 1.10064e-09)
(4.74835e-10 2.3989e-10 9.73073e-10)
(-1.14819e-11 1.89614e-10 8.5936e-10)
(-4.87117e-10 2.36293e-10 9.48369e-10)
(-7.1843e-10 2.07447e-10 1.06803e-09)
(7.47728e-10 -1.46661e-10 1.43875e-09)
(4.69379e-10 -8.46085e-11 1.30607e-09)
(-1.55157e-11 -1.0709e-10 1.18211e-09)
(-4.89793e-10 -8.20648e-11 1.27847e-09)
(-7.2329e-10 -1.39669e-10 1.40173e-09)
(7.27545e-10 -4.67652e-10 1.7623e-09)
(4.48073e-10 -4.13666e-10 1.61935e-09)
(-2.09998e-11 -4.38786e-10 1.48179e-09)
(-4.79436e-10 -4.06127e-10 1.58957e-09)
(-7.12882e-10 -4.52647e-10 1.72204e-09)
(7.64489e-10 -7.9744e-10 2.10963e-09)
(4.69182e-10 -7.75021e-10 1.94846e-09)
(-2.79626e-11 -8.17328e-10 1.79475e-09)
(-5.14391e-10 -7.63201e-10 1.91687e-09)
(-7.62429e-10 -7.75399e-10 2.06675e-09)
(9.34521e-10 -1.23883e-09 2.51215e-09)
(5.88235e-10 -1.2408e-09 2.32496e-09)
(-3.65723e-11 -1.28218e-09 2.15735e-09)
(-6.50326e-10 -1.22525e-09 2.29162e-09)
(-9.47318e-10 -1.2105e-09 2.46685e-09)
(1.30944e-09 -2.08482e-09 2.99183e-09)
(8.16142e-10 -2.04902e-09 2.83039e-09)
(-4.75169e-11 -2.02121e-09 2.67004e-09)
(-8.98669e-10 -2.02769e-09 2.79468e-09)
(-1.33632e-09 -2.04722e-09 2.94355e-09)
(1.55675e-09 -2.67288e-09 3.28369e-09)
(9.52198e-10 -2.56958e-09 3.19918e-09)
(-5.39844e-11 -2.45187e-09 3.083e-09)
(-1.04653e-09 -2.53699e-09 3.169e-09)
(-1.60593e-09 -2.62385e-09 3.2387e-09)
(1.25169e-10 2.49341e-10 1.2701e-10)
(0 0 0)
(0 0 0)
(0 0 0)
(-9.45056e-11 2.40145e-10 1.22233e-10)
(3.49187e-10 3.22369e-10 4.59712e-10)
(0 0 0)
(0 0 0)
(0 0 0)
(-2.87162e-10 3.10618e-10 4.45476e-10)
(4.54892e-10 -3.2508e-11 8.36524e-10)
(0 0 0)
(0 0 0)
(0 0 0)
(-3.93666e-10 -3.24142e-11 8.15026e-10)
(4.45273e-10 -3.67389e-10 1.1636e-09)
(0 0 0)
(0 0 0)
(0 0 0)
(-3.88645e-10 -3.57735e-10 1.13774e-09)
(4.22746e-10 -6.73423e-10 1.47747e-09)
(0 0 0)
(0 0 0)
(0 0 0)
(-3.73873e-10 -6.55453e-10 1.4484e-09)
(4.51063e-10 -9.77177e-10 1.80905e-09)
(0 0 0)
(0 0 0)
(0 0 0)
(-4.12858e-10 -9.51673e-10 1.77728e-09)
(6.02033e-10 -1.34983e-09 2.1739e-09)
(0 0 0)
(0 0 0)
(0 0 0)
(-5.76326e-10 -1.31754e-09 2.1396e-09)
(9.97359e-10 -2.05073e-09 2.51893e-09)
(0 0 0)
(0 0 0)
(0 0 0)
(-9.80181e-10 -2.00902e-09 2.48199e-09)
(1.30843e-09 -2.52309e-09 2.71325e-09)
(8.1461e-10 -2.36091e-09 2.73228e-09)
(-4.88455e-11 -2.19902e-09 2.7061e-09)
(-8.99814e-10 -2.32239e-09 2.71301e-09)
(-1.33722e-09 -2.47024e-09 2.67957e-09)
(9.7748e-13 8.32161e-11 2.63074e-11)
(0 0 0)
(0 0 0)
(0 0 0)
(2.69101e-11 7.49532e-11 2.41927e-11)
(4.81459e-11 1.66255e-11 1.9296e-10)
(0 0 0)
(0 0 0)
(0 0 0)
(9.32011e-12 5.99974e-12 1.85286e-10)
(9.03012e-11 -2.86412e-10 4.9025e-10)
(0 0 0)
(0 0 0)
(0 0 0)
(-3.14955e-11 -2.86522e-10 4.76765e-10)
(6.76968e-11 -5.82797e-10 7.97255e-10)
(0 0 0)
(0 0 0)
(0 0 0)
(-1.13631e-11 -5.74203e-10 7.79683e-10)
(4.04044e-11 -8.62186e-10 1.09366e-09)
(0 0 0)
(0 0 0)
(0 0 0)
(1.00416e-11 -8.45673e-10 1.07294e-09)
(6.23084e-11 -1.12391e-09 1.38471e-09)
(0 0 0)
(0 0 0)
(0 0 0)
(-2.07994e-11 -1.1001e-09 1.36128e-09)
(2.06676e-10 -1.4017e-09 1.6525e-09)
(0 0 0)
(0 0 0)
(0 0 0)
(-1.76053e-10 -1.3714e-09 1.62655e-09)
(6.00198e-10 -1.91885e-09 1.81531e-09)
(0 0 0)
(0 0 0)
(0 0 0)
(-5.76704e-10 -1.87951e-09 1.78728e-09)
(9.31399e-10 -2.25648e-09 1.86645e-09)
(5.84408e-10 -2.06898e-09 1.92465e-09)
(-3.95365e-11 -1.89982e-09 1.96804e-09)
(-6.52333e-10 -2.03239e-09 1.91069e-09)
(-9.48745e-10 -2.2061e-09 1.84146e-09)
(-4.79483e-11 1.61527e-11 2.44439e-11)
(0 0 0)
(0 0 0)
(0 0 0)
(7.51042e-11 7.42553e-12 2.29694e-11)
(-7.89146e-11 -1.15616e-10 1.60875e-10)
(0 0 0)
(0 0 0)
(0 0 0)
(1.35877e-10 -1.27434e-10 1.55478e-10)
(-7.14206e-11 -4.12027e-10 4.08044e-10)
(0 0 0)
(0 0 0)
(0 0 0)
(1.31704e-10 -4.13791e-10 3.9827e-10)
(-9.7508e-11 -6.93871e-10 6.78402e-10)
(0 0 0)
(0 0 0)
(0 0 0)
(1.57312e-10 -6.87235e-10 6.65152e-10)
(-1.20065e-10 -9.43612e-10 9.41498e-10)
(0 0 0)
(0 0 0)
(0 0 0)
(1.7588e-10 -9.29206e-10 9.25384e-10)
(-9.26794e-11 -1.15161e-09 1.18161e-09)
(0 0 0)
(0 0 0)
(0 0 0)
(1.41403e-10 -1.12998e-09 1.163e-09)
(5.64641e-11 -1.34865e-09 1.36679e-09)
(0 0 0)
(0 0 0)
(0 0 0)
(-1.68283e-11 -1.32057e-09 1.34599e-09)
(4.43436e-10 -1.76857e-09 1.43737e-09)
(0 0 0)
(0 0 0)
(0 0 0)
(-4.09504e-10 -1.73122e-09 1.41493e-09)
(7.5501e-10 -2.06916e-09 1.42464e-09)
(4.59595e-10 -1.90809e-09 1.46148e-09)
(-3.27381e-11 -1.7524e-09 1.50589e-09)
(-5.14083e-10 -1.87254e-09 1.45033e-09)
(-7.60228e-10 -2.02033e-09 1.40471e-09)
(-6.45656e-11 -5.79794e-12 3.07515e-11)
(0 0 0)
(0 0 0)
(0 0 0)
(9.14513e-11 -1.50698e-11 2.97026e-11)
(-1.22527e-10 -1.59383e-10 1.55083e-10)
(0 0 0)
(0 0 0)
(0 0 0)
(1.79577e-10 -1.72601e-10 1.51292e-10)
(-1.26411e-10 -4.54748e-10 3.57746e-10)
(0 0 0)
(0 0 0)
(0 0 0)
(1.88171e-10 -4.58369e-10 3.50837e-10)
(-1.50455e-10 -7.28314e-10 5.77168e-10)
(0 0 0)
(0 0 0)
(0 0 0)
(2.13306e-10 -7.23735e-10 5.67591e-10)
(-1.66035e-10 -9.54519e-10 7.89044e-10)
(0 0 0)
(0 0 0)
(0 0 0)
(2.26518e-10 -9.42222e-10 7.77118e-10)
(-1.31366e-10 -1.12404e-09 9.71599e-10)
(0 0 0)
(0 0 0)
(0 0 0)
(1.86367e-10 -1.10449e-09 9.57588e-10)
(2.19557e-11 -1.27777e-09 1.09579e-09)
(0 0 0)
(0 0 0)
(0 0 0)
(2.55047e-11 -1.25166e-09 1.07999e-09)
(4.01566e-10 -1.65838e-09 1.12863e-09)
(0 0 0)
(0 0 0)
(0 0 0)
(-3.58552e-10 -1.62268e-09 1.11154e-09)
(7.02734e-10 -1.94453e-09 1.09973e-09)
(4.25539e-10 -1.80165e-09 1.10788e-09)
(-2.76245e-11 -1.6605e-09 1.13248e-09)
(-4.69674e-10 -1.76683e-09 1.09942e-09)
(-6.97918e-10 -1.89691e-09 1.08459e-09)
(-6.86688e-11 -1.14274e-11 2.87372e-11)
(0 0 0)
(0 0 0)
(0 0 0)
(9.54559e-11 -2.10834e-11 2.80319e-11)
(-1.3188e-10 -1.6807e-10 1.30609e-10)
(0 0 0)
(0 0 0)
(0 0 0)
(1.8914e-10 -1.82347e-10 1.28069e-10)
(-1.3537e-10 -4.5814e-10 2.85223e-10)
(0 0 0)
(0 0 0)
(0 0 0)
(1.9828e-10 -4.6327e-10 2.80574e-10)
(-1.54905e-10 -7.23065e-10 4.48319e-10)
(0 0 0)
(0 0 0)
(0 0 0)
(2.20047e-10 -7.20208e-10 4.41784e-10)
(-1.64193e-10 -9.33445e-10 6.03166e-10)
(0 0 0)
(0 0 0)
(0 0 0)
(2.28211e-10 -9.22923e-10 5.9489e-10)
(-1.23776e-10 -1.08246e-09 7.31401e-10)
(0 0 0)
(0 0 0)
(0 0 0)
(1.83569e-10 -1.06464e-09 7.21538e-10)
(3.18451e-11 -1.2188e-09 8.12545e-10)
(0 0 0)
(0 0 0)
(0 0 0)
(2.1608e-11 -1.1943e-09 8.0132e-10)
(4.05114e-10 -1.58476e-09 8.29808e-10)
(0 0 0)
(0 0 0)
(0 0 0)
(-3.55115e-10 -1.55043e-09 8.17629e-10)
(7.00828e-10 -1.86268e-09 8.03731e-10)
(4.28492e-10 -1.72961e-09 7.97828e-10)
(-2.38437e-11 -1.59882e-09 8.0764e-10)
(-4.64948e-10 -1.69533e-09 7.91848e-10)
(-6.88413e-10 -1.81604e-09 7.92976e-10)
(-6.9073e-11 -1.20771e-11 2.11904e-11)
(0 0 0)
(0 0 0)
(0 0 0)
(9.58426e-11 -2.19774e-11 2.07598e-11)
(-1.31362e-10 -1.65777e-10 9.22322e-11)
(0 0 0)
(0 0 0)
(0 0 0)
(1.88844e-10 -1.80755e-10 9.06809e-11)
(-1.31537e-10 -4.48562e-10 1.95878e-10)
(0 0 0)
(0 0 0)
(0 0 0)
(1.95271e-10 -4.54736e-10 1.93025e-10)
(-1.46798e-10 -7.05332e-10 3.02763e-10)
(0 0 0)
(0 0 0)
(0 0 0)
(2.13522e-10 -7.03712e-10 2.98716e-10)
(-1.51587e-10 -9.06122e-10 4.0257e-10)
(0 0 0)
(0 0 0)
(0 0 0)
(2.18043e-10 -8.96898e-10 3.97387e-10)
(-1.07578e-10 -1.0461e-09 4.83239e-10)
(0 0 0)
(0 0 0)
(0 0 0)
(1.70694e-10 -1.02955e-09 4.76997e-10)
(4.89708e-11 -1.17713e-09 5.32505e-10)
(0 0 0)
(0 0 0)
(0 0 0)
(8.65288e-12 -1.15383e-09 5.25349e-10)
(4.1761e-10 -1.53773e-09 5.42002e-10)
(0 0 0)
(0 0 0)
(0 0 0)
(-3.62728e-10 -1.50445e-09 5.34215e-10)
(7.09863e-10 -1.81062e-09 5.24323e-10)
(4.38066e-10 -1.68228e-09 5.16323e-10)
(-2.12437e-11 -1.55738e-09 5.1924e-10)
(-4.69242e-10 -1.6484e-09 5.12528e-10)
(-6.92175e-10 -1.76475e-09 5.17468e-10)
(-6.88452e-11 -1.16949e-11 1.10785e-11)
(0 0 0)
(0 0 0)
(0 0 0)
(9.56255e-11 -2.17313e-11 1.08751e-11)
(-1.29786e-10 -1.62157e-10 4.73085e-11)
(0 0 0)
(0 0 0)
(0 0 0)
(1.8743e-10 -1.77529e-10 4.65743e-11)
(-1.27486e-10 -4.39173e-10 9.91142e-11)
(0 0 0)
(0 0 0)
(0 0 0)
(1.91718e-10 -4.4595e-10 9.77595e-11)
(-1.40018e-10 -6.90269e-10 1.51786e-10)
(0 0 0)
(0 0 0)
(0 0 0)
(2.07673e-10 -6.8938e-10 1.49854e-10)
(-1.42228e-10 -8.85988e-10 2.00428e-10)
(0 0 0)
(0 0 0)
(0 0 0)
(2.10113e-10 -8.77547e-10 1.97938e-10)
(-9.63626e-11 -1.02253e-09 2.39247e-10)
(0 0 0)
(0 0 0)
(0 0 0)
(1.61427e-10 -1.00676e-09 2.36229e-10)
(6.04506e-11 -1.15252e-09 2.62605e-10)
(0 0 0)
(0 0 0)
(0 0 0)
(-3.74661e-13 -1.12995e-09 2.59128e-10)
(4.26309e-10 -1.51125e-09 2.66946e-10)
(0 0 0)
(0 0 0)
(0 0 0)
(-3.68543e-10 -1.47864e-09 2.63155e-10)
(7.16496e-10 -1.78147e-09 2.58305e-10)
(4.44489e-10 -1.6551e-09 2.53543e-10)
(-1.9723e-11 -1.53297e-09 2.54143e-10)
(-4.72577e-10 -1.62146e-09 2.51707e-10)
(-6.95704e-10 -1.73609e-09 2.54976e-10)
(-4.03153e-11 -1.88859e-11 0)
(3.70009e-14 -2.96746e-11 0)
(8.06571e-16 -4.28782e-11 0)
(2.93172e-12 -3.29736e-11 0)
(6.21306e-11 -2.95066e-11 0)
(-5.38723e-11 -1.63298e-10 0)
(1.58961e-13 -1.87767e-10 0)
(1.90361e-12 -2.10373e-10 0)
(1.02033e-11 -1.93258e-10 0)
(9.11822e-11 -1.75776e-10 0)
(-5.25249e-11 -4.33972e-10 0)
(-4.04838e-12 -4.46391e-10 0)
(5.13278e-12 -4.60867e-10 0)
(2.12677e-11 -4.49136e-10 0)
(9.68109e-11 -4.39724e-10 0)
(-6.44237e-11 -6.82936e-10 0)
(-1.38274e-11 -6.93453e-10 0)
(6.69454e-12 -7.05416e-10 0)
(3.38711e-11 -6.9272e-10 0)
(1.11754e-10 -6.82135e-10 0)
(-6.58339e-11 -8.84875e-10 0)
(-1.66473e-11 -9.13928e-10 0)
(6.08201e-12 -9.35724e-10 0)
(3.54394e-11 -9.09482e-10 0)
(1.12722e-10 -8.77493e-10 0)
(-1.7488e-11 -1.04187e-09 0)
(1.61335e-11 -1.11128e-09 0)
(3.33636e-12 -1.15123e-09 0)
(-2.63317e-12 -1.1032e-09 0)
(6.05055e-11 -1.02808e-09 0)
(1.45462e-10 -1.20488e-09 0)
(1.29057e-10 -1.31243e-09 0)
(-1.63542e-12 -1.35658e-09 0)
(-1.24851e-10 -1.30093e-09 0)
(-1.09177e-10 -1.18511e-09 0)
(4.85475e-10 -1.56917e-09 0)
(3.30378e-10 -1.62818e-09 0)
(-9.39031e-12 -1.61662e-09 0)
(-3.3972e-10 -1.61134e-09 0)
(-4.56065e-10 -1.54021e-09 0)
(7.2334e-10 -1.81236e-09 0)
(4.47716e-10 -1.74137e-09 0)
(-1.66469e-11 -1.65002e-09 0)
(-4.69873e-10 -1.71432e-09 0)
(-7.10908e-10 -1.77179e-09 0)
)
;

boundaryField
{
    interface
    {
        type            calculated;
    }
    symmetry
    {
        type            symmetry;
    }
    bottom
    {
        type            calculated;
    }
}


// ************************************************************************* //
