/*--------------------------------*- C++ -*----------------------------------*\
| =========                 |                                                 |
| \\      /  F ield         | OpenFOAM: The Open Source CFD Toolbox           |
|  \\    /   O peration     | Version:  v1912                                 |
|   \\  /    A nd           | Website:  www.openfoam.com                      |
|    \\/     M anipulation  |                                                 |
\*---------------------------------------------------------------------------*/
FoamFile
{
    version     2.0;
    format      ascii;
    class       pointVectorField;
    location    "0.33/solid";
    object      pointD;
}
// * * * * * * * * * * * * * * * * * * * * * * * * * * * * * * * * * * * * * //

dimensions      [0 1 0 0 0 0 0];


internalField   nonuniform List<vector> 
405
(
(2.89486e-08 2.41833e-08 3.02643e-08)
(3.80867e-09 1.54684e-08 3.6647e-08)
(1.98593e-10 1.25684e-08 3.50852e-08)
(-3.37366e-09 1.54019e-08 3.63079e-08)
(-2.77558e-08 2.36014e-08 3.0155e-08)
(4.65624e-08 3.02504e-08 4.95183e-08)
(1.03066e-08 2.6385e-08 7.67441e-08)
(8.67349e-10 2.19278e-08 7.37487e-08)
(-8.49047e-09 2.59353e-08 7.63082e-08)
(-4.38691e-08 2.89036e-08 4.97901e-08)
(5.04851e-08 2.0297e-08 5.55085e-08)
(1.35373e-08 1.87578e-08 8.22221e-08)
(1.87206e-09 1.64778e-08 7.92637e-08)
(-9.71233e-09 1.76981e-08 8.21916e-08)
(-4.58661e-08 1.80285e-08 5.65161e-08)
(5.17959e-08 1.44496e-08 5.85671e-08)
(1.43183e-08 1.39146e-08 8.57989e-08)
(3.00818e-09 1.26653e-08 8.27221e-08)
(-8.23076e-09 1.23022e-08 8.60529e-08)
(-4.4984e-08 1.13248e-08 6.00945e-08)
(5.33519e-08 1.14927e-08 6.09813e-08)
(1.50664e-08 1.09884e-08 8.91351e-08)
(4.28284e-09 9.84745e-09 8.60709e-08)
(-6.43349e-09 8.88186e-09 8.96053e-08)
(-4.40443e-08 7.58134e-09 6.28998e-08)
(5.61217e-08 9.85108e-09 6.38662e-08)
(1.64288e-08 9.05252e-09 9.34525e-08)
(5.70381e-09 7.6452e-09 9.0523e-08)
(-4.95742e-09 6.48737e-09 9.4097e-08)
(-4.40224e-08 5.20101e-09 6.60982e-08)
(6.04863e-08 8.00819e-09 6.79485e-08)
(1.85702e-08 6.98355e-09 9.96437e-08)
(7.27582e-09 5.3262e-09 9.6994e-08)
(-3.97455e-09 3.97205e-09 1.0044e-07)
(-4.53456e-08 2.64381e-09 7.04503e-08)
(6.6783e-08 -5.39667e-09 7.37432e-08)
(2.16398e-08 -5.96618e-09 1.08344e-07)
(8.98379e-09 -7.188e-09 1.06296e-07)
(-3.67827e-09 -9.34185e-09 1.09317e-07)
(-4.84558e-08 -1.13474e-08 7.65072e-08)
(5.87792e-08 -4.30449e-08 6.48957e-08)
(2.36063e-08 -5.50679e-08 7.66648e-08)
(1.00498e-08 -5.49723e-08 7.58501e-08)
(-3.54107e-09 -5.8092e-08 7.82439e-08)
(-3.86843e-08 -4.84586e-08 6.78755e-08)
(3.34968e-08 1.4298e-08 3.50493e-09)
(0 0 0)
(0 0 0)
(0 0 0)
(-3.2173e-08 1.35992e-08 3.80317e-09)
(6.92179e-08 2.39594e-08 1.06551e-08)
(9.35215e-09 1.48191e-08 1.16245e-08)
(6.00188e-10 1.0754e-08 1.15819e-08)
(-8.04042e-09 1.41022e-08 1.21804e-08)
(-6.58222e-08 2.20725e-08 1.1709e-08)
(7.23326e-08 1.64567e-08 1.5928e-08)
(1.22594e-08 1.33951e-08 1.71845e-08)
(1.40239e-09 1.11826e-08 1.7272e-08)
(-9.3358e-09 1.21216e-08 1.815e-08)
(-6.72817e-08 1.36122e-08 1.77737e-08)
(7.40512e-08 1.22273e-08 1.8363e-08)
(1.29245e-08 1.1107e-08 1.97105e-08)
(2.38755e-09 9.83532e-09 1.98978e-08)
(-8.03703e-09 9.33881e-09 2.09719e-08)
(-6.70058e-08 8.47808e-09 2.07924e-08)
(7.63976e-08 1.00952e-08 1.97832e-08)
(1.35901e-08 8.95064e-09 2.12034e-08)
(3.54631e-09 7.76219e-09 2.14781e-08)
(-6.38664e-09 6.72857e-09 2.26878e-08)
(-6.70045e-08 5.4998e-09 2.26581e-08)
(8.04801e-08 8.84007e-09 2.11339e-08)
(1.48898e-08 7.03468e-09 2.26136e-08)
(4.87392e-09 5.5713e-09 2.29765e-08)
(-5.03191e-09 4.37864e-09 2.42779e-08)
(-6.84124e-08 3.44342e-09 2.43679e-08)
(8.68911e-08 7.27211e-09 2.29534e-08)
(1.70068e-08 4.66007e-09 2.44508e-08)
(6.36698e-09 2.94834e-09 2.48948e-08)
(-4.17958e-09 1.57915e-09 2.62668e-08)
(-7.18993e-08 1.11338e-09 2.64892e-08)
(9.60605e-08 -5.24542e-09 2.5442e-08)
(2.00822e-08 -7.47743e-09 2.69209e-08)
(8.00968e-09 -8.71579e-09 2.74331e-08)
(-4.01958e-09 -1.08748e-08 2.88508e-08)
(-7.80702e-08 -1.19977e-08 2.92116e-08)
(6.73732e-08 -5.37358e-08 2.7549e-08)
(2.24093e-08 -8.89107e-08 2.82855e-08)
(9.74191e-09 -8.76014e-08 2.88049e-08)
(-2.92456e-09 -9.13564e-08 3.0233e-08)
(-4.7891e-08 -5.9099e-08 3.09455e-08)
(2.9054e-08 9.53969e-09 -2.70566e-10)
(0 0 0)
(0 0 0)
(0 0 0)
(-2.77741e-08 8.95754e-09 -2.47578e-11)
(6.03426e-08 1.58836e-08 1.36284e-09)
(7.66156e-09 8.04618e-09 2.76694e-09)
(3.92771e-10 4.44723e-09 3.19281e-09)
(-6.73548e-09 7.34913e-09 3.23853e-09)
(-5.72134e-08 1.42139e-08 2.22308e-09)
(6.33029e-08 1.10224e-08 4.85578e-09)
(1.01183e-08 8.32722e-09 6.62337e-09)
(1.02645e-09 6.29652e-09 7.28007e-09)
(-7.91133e-09 7.068e-09 7.43619e-09)
(-5.88429e-08 8.3669e-09 6.36786e-09)
(6.4734e-08 8.64451e-09 7.3693e-09)
(1.06489e-08 7.62657e-09 9.24607e-09)
(1.87383e-09 6.3999e-09 1.00354e-08)
(-6.75092e-09 5.879e-09 1.03149e-08)
(-5.85403e-08 5.064e-09 9.38829e-09)
(6.68973e-08 7.50466e-09 8.90629e-09)
(1.12305e-08 6.39676e-09 1.08567e-08)
(2.9201e-09 5.22012e-09 1.17384e-08)
(-5.23815e-09 4.20299e-09 1.21271e-08)
(-5.85587e-08 3.06253e-09 1.13314e-08)
(7.09668e-08 6.78404e-09 1.01273e-08)
(1.24902e-08 4.96408e-09 1.21201e-08)
(4.15572e-09 3.5062e-09 1.30722e-08)
(-4.02382e-09 2.34367e-09 1.3556e-08)
(-6.01066e-08 1.5304e-09 1.28862e-08)
(7.76613e-08 5.66422e-09 1.14723e-08)
(1.46363e-08 2.99071e-09 1.34493e-08)
(5.57329e-09 1.28789e-09 1.445e-08)
(-3.34898e-09 -4.20859e-11 1.50178e-08)
(-6.399e-08 -3.48773e-10 1.45016e-08)
(8.76908e-08 -5.61568e-09 1.28385e-08)
(1.77907e-08 -7.88339e-09 1.47517e-08)
(7.15465e-09 -9.07711e-09 1.57764e-08)
(-3.39207e-09 -1.12063e-08 1.63985e-08)
(-7.11219e-08 -1.21965e-08 1.60474e-08)
(6.1881e-08 -5.078e-08 1.40999e-08)
(2.01425e-08 -8.30777e-08 1.53175e-08)
(8.83648e-09 -8.11976e-08 1.63118e-08)
(-2.42622e-09 -8.53898e-08 1.69377e-08)
(-4.39989e-08 -5.59508e-08 1.69466e-08)
(2.6081e-08 8.00345e-09 -1.14788e-10)
(0 0 0)
(0 0 0)
(0 0 0)
(-2.49026e-08 7.54088e-09 6.27546e-11)
(5.44304e-08 1.27107e-08 9.23e-10)
(6.62105e-09 5.65896e-09 1.81766e-09)
(2.58134e-10 2.37206e-09 2.16754e-09)
(-5.96913e-09 5.03766e-09 2.16251e-09)
(-5.16279e-08 1.13003e-08 1.55381e-09)
(5.74281e-08 7.85571e-09 3.39838e-09)
(8.80903e-09 5.3825e-09 4.54084e-09)
(7.61093e-10 3.5095e-09 5.08663e-09)
(-7.13329e-09 4.22029e-09 5.14734e-09)
(-5.35358e-08 5.47761e-09 4.52744e-09)
(5.88235e-08 5.79145e-09 5.69903e-09)
(9.27489e-09 4.83805e-09 6.90794e-09)
(1.49108e-09 3.67801e-09 7.5652e-09)
(-6.13911e-09 3.1904e-09 7.72013e-09)
(-5.34178e-08 2.47614e-09 7.23709e-09)
(6.08934e-08 5.08084e-09 7.36755e-09)
(9.79905e-09 4.00954e-09 8.62683e-09)
(2.43659e-09 2.87139e-09 9.36065e-09)
(-4.76762e-09 1.91333e-09 9.60867e-09)
(-5.35315e-08 8.8228e-10 9.25043e-09)
(6.489e-08 4.79083e-09 8.65753e-09)
(1.10141e-08 2.97582e-09 9.95661e-09)
(3.58792e-09 1.54721e-09 1.07473e-08)
(-3.67506e-09 4.50848e-10 1.10804e-08)
(-5.51591e-08 -2.39726e-10 1.08309e-08)
(7.16334e-08 4.07762e-09 9.87726e-09)
(1.31692e-08 1.37037e-09 1.11755e-08)
(4.93587e-09 -3.03622e-10 1.20028e-08)
(-3.14686e-09 -1.56636e-09 1.24099e-08)
(-5.92079e-08 -1.72601e-09 1.2282e-08)
(8.19886e-08 -6.5769e-09 1.10494e-08)
(1.63798e-08 -8.86269e-09 1.23065e-08)
(6.45911e-09 -1.00062e-08 1.31469e-08)
(-3.36131e-09 -1.2088e-08 1.35984e-08)
(-6.67481e-08 -1.29563e-08 1.35978e-08)
(5.82444e-08 -4.94745e-08 1.21669e-08)
(1.8745e-08 -7.97141e-08 1.32254e-08)
(8.08973e-09 -7.75919e-08 1.40341e-08)
(-2.51155e-09 -8.19357e-08 1.44832e-08)
(-4.17792e-08 -5.44793e-08 1.44052e-08)
(2.43377e-08 7.41945e-09 8.63048e-11)
(0 0 0)
(0 0 0)
(0 0 0)
(-2.3245e-08 7.04771e-09 2.1156e-10)
(5.08592e-08 1.14007e-08 9.6211e-10)
(6.06701e-09 4.7871e-09 1.46299e-09)
(1.74956e-10 1.68519e-09 1.68297e-09)
(-5.59866e-09 4.23806e-09 1.70986e-09)
(-4.83183e-08 1.02034e-08 1.41113e-09)
(5.37919e-08 6.21845e-09 2.73179e-09)
(8.09717e-09 3.87538e-09 3.39143e-09)
(5.83715e-10 2.11181e-09 3.74667e-09)
(-6.79223e-09 2.81751e-09 3.8308e-09)
(-5.03405e-08 4.09444e-09 3.5454e-09)
(5.5206e-08 3.89468e-09 4.56281e-09)
(8.5296e-09 2.98151e-09 5.26646e-09)
(1.22103e-09 1.88293e-09 5.70386e-09)
(-5.94644e-09 1.44715e-09 5.8625e-09)
(-5.04148e-08 8.39513e-10 5.68818e-09)
(5.72433e-08 3.14703e-09 6.07644e-09)
(9.0146e-09 2.10947e-09 6.8152e-09)
(2.08256e-09 1.01621e-09 7.31147e-09)
(-4.70145e-09 1.24902e-10 7.54509e-09)
(-5.06542e-08 -8.04209e-10 7.47559e-09)
(6.11759e-08 2.98382e-09 7.29897e-09)
(1.01826e-08 1.19155e-09 8.0747e-09)
(3.16127e-09 -1.99117e-10 8.61701e-09)
(-3.70555e-09 -1.22698e-09 8.91874e-09)
(-5.23535e-08 -1.81932e-09 8.93454e-09)
(6.78909e-08 2.44096e-09 8.4096e-09)
(1.23192e-08 -2.66522e-10 9.20062e-09)
(4.44791e-09 -1.90385e-09 9.77379e-09)
(-3.2803e-09 -3.10325e-09 1.01328e-08)
(-5.64825e-08 -3.1563e-09 1.0234e-08)
(7.83411e-08 -7.89779e-09 9.51056e-09)
(1.55478e-08 -1.01749e-08 1.02861e-08)
(5.9192e-09 -1.12689e-08 1.08693e-08)
(-3.61526e-09 -1.33094e-08 1.12624e-08)
(-6.41963e-08 -1.40928e-08 1.14507e-08)
(5.59383e-08 -4.92928e-08 1.05562e-08)
(1.79061e-08 -7.81729e-08 1.137e-08)
(7.50459e-09 -7.5939e-08 1.19245e-08)
(-2.84901e-09 -8.03164e-08 1.23158e-08)
(-4.0628e-08 -5.41529e-08 1.22534e-08)
(2.33349e-08 7.11191e-09 1.39755e-10)
(0 0 0)
(0 0 0)
(0 0 0)
(-2.23002e-08 6.80289e-09 2.24454e-10)
(4.87744e-08 1.07234e-08 8.37437e-10)
(5.77127e-09 4.35874e-09 1.1125e-09)
(1.23423e-10 1.36636e-09 1.2423e-09)
(-5.42115e-09 3.86537e-09 1.28251e-09)
(-4.6411e-08 9.68019e-09 1.14283e-09)
(5.16308e-08 5.32037e-09 2.07415e-09)
(7.70127e-09 3.06169e-09 2.45023e-09)
(4.67705e-10 1.37106e-09 2.66768e-09)
(-6.6437e-09 2.08893e-09 2.75483e-09)
(-4.84827e-08 3.3928e-09 2.63234e-09)
(5.30504e-08 2.69828e-09 3.39521e-09)
(8.105e-09 1.817e-09 3.80601e-09)
(1.03695e-09 7.67141e-10 4.08094e-09)
(-5.90281e-09 3.79166e-10 4.22276e-09)
(-4.86903e-08 -1.45226e-10 4.17608e-09)
(5.50707e-08 1.74544e-09 4.58112e-09)
(8.55838e-09 7.37978e-10 5.01939e-09)
(1.83359e-09 -3.15012e-10 5.3375e-09)
(-4.75416e-09 -1.14931e-09 5.53437e-09)
(-4.90356e-08 -1.99805e-09 5.56357e-09)
(5.89544e-08 1.50898e-09 5.59768e-09)
(9.6848e-09 -2.55414e-10 6.06656e-09)
(2.85412e-09 -1.60971e-09 6.41998e-09)
(-3.83193e-09 -2.58134e-09 6.66671e-09)
(-5.07958e-08 -3.101e-09 6.75802e-09)
(6.56206e-08 9.70046e-10 6.53676e-09)
(1.17934e-08 -1.72092e-09 7.02515e-09)
(4.09044e-09 -3.32258e-09 7.40345e-09)
(-3.4782e-09 -4.47275e-09 7.69136e-09)
(-5.49675e-08 -4.45368e-09 7.84079e-09)
(7.60733e-08 -9.21252e-09 7.493e-09)
(1.50176e-08 -1.14668e-08 7.97961e-09)
(5.51875e-09 -1.2517e-08 8.36608e-09)
(-3.89378e-09 -1.45268e-08 8.67852e-09)
(-6.27534e-08 -1.52561e-08 8.88562e-09)
(5.4478e-08 -4.96579e-08 8.38634e-09)
(1.73572e-08 -7.76888e-08 8.98455e-09)
(7.06722e-09 -7.53948e-08 9.34758e-09)
(-3.18294e-09 -7.97687e-08 9.65947e-09)
(-4.00402e-08 -5.44006e-08 9.60304e-09)
(2.27561e-08 6.93031e-09 1.16808e-10)
(0 0 0)
(0 0 0)
(0 0 0)
(-2.1757e-08 6.66139e-09 1.69101e-10)
(4.75651e-08 1.03253e-08 5.97857e-10)
(5.6079e-09 4.10391e-09 7.45574e-10)
(9.24358e-11 1.17601e-09 8.18135e-10)
(-5.33003e-09 3.6486e-09 8.52188e-10)
(-4.53121e-08 9.38369e-09 7.87064e-10)
(5.03635e-08 4.79051e-09 1.39022e-09)
(7.47382e-09 2.58756e-09 1.59849e-09)
(3.95376e-10 9.43803e-10 1.72377e-09)
(-6.57156e-09 1.67474e-09 1.79026e-09)
(-4.74073e-08 2.99799e-09 1.73805e-09)
(5.17749e-08 1.95801e-09 2.23937e-09)
(7.85182e-09 1.10286e-09 2.47329e-09)
(9.18773e-10 8.78334e-11 2.63538e-09)
(-5.89504e-09 -2.65041e-10 2.73712e-09)
(-4.76934e-08 -7.34879e-10 2.7298e-09)
(5.37795e-08 8.07406e-10 3.03738e-09)
(8.27915e-09 -1.75444e-10 3.29177e-09)
(1.66988e-09 -1.19777e-09 3.48253e-09)
(-4.81014e-09 -1.9909e-09 3.61978e-09)
(-4.81093e-08 -2.78455e-09 3.65966e-09)
(5.76268e-08 4.41401e-10 3.75538e-09)
(9.37368e-09 -1.29897e-09 4.03166e-09)
(2.64829e-09 -2.62465e-09 4.24641e-09)
(-3.93939e-09 -3.55609e-09 4.41603e-09)
(-4.99129e-08 -4.02587e-09 4.49601e-09)
(6.42487e-08 -1.58697e-10 4.43791e-09)
(1.14574e-08 -2.8314e-09 4.72986e-09)
(3.84741e-09 -4.40458e-09 4.96201e-09)
(-3.63447e-09 -5.52048e-09 5.15827e-09)
(-5.41087e-08 -5.454e-09 5.27522e-09)
(7.46807e-08 -1.02757e-08 5.1452e-09)
(1.46716e-08 -1.25064e-08 5.43918e-09)
(5.24374e-09 -1.35224e-08 5.67716e-09)
(-4.10337e-09 -1.55119e-08 5.88938e-09)
(-6.1928e-08 -1.62077e-08 6.0426e-09)
(5.35623e-08 -5.01461e-08 5.7957e-09)
(1.69918e-08 -7.76561e-08 6.1938e-09)
(6.76499e-09 -7.53229e-08 6.41509e-09)
(-3.42802e-09 -7.96896e-08 6.62761e-09)
(-3.97277e-08 -5.48028e-08 6.57955e-09)
(2.24512e-08 6.83212e-09 6.33475e-11)
(0 0 0)
(0 0 0)
(0 0 0)
(-2.14713e-08 6.58538e-09 8.82951e-11)
(4.69266e-08 1.01067e-08 3.07325e-10)
(5.52268e-09 3.96123e-09 3.73016e-10)
(7.59442e-11 1.06772e-09 4.05825e-10)
(-5.28361e-09 3.52787e-09 4.24375e-10)
(-4.47335e-08 9.22243e-09 3.97755e-10)
(4.969e-08 4.49797e-09 6.95687e-10)
(7.35219e-09 2.32741e-09 7.90001e-10)
(3.55933e-10 7.10102e-10 8.47698e-10)
(-6.53489e-09 1.44969e-09 8.82582e-10)
(-4.68392e-08 2.78355e-09 8.62469e-10)
(5.10914e-08 1.54593e-09 1.11075e-09)
(7.71241e-09 7.08242e-10 1.21877e-09)
(8.53048e-10 -2.85896e-10 1.29453e-09)
(-5.89229e-09 -6.1803e-10 1.34655e-09)
(-4.71652e-08 -1.058e-09 1.347e-09)
(5.30836e-08 2.67538e-10 1.50954e-09)
(8.12221e-09 -6.99049e-10 1.62868e-09)
(1.57732e-09 -1.70243e-09 1.71881e-09)
(-4.84278e-09 -2.47119e-09 1.78812e-09)
(-4.76197e-08 -3.23342e-09 1.81081e-09)
(5.69078e-08 -1.98647e-10 1.879e-09)
(9.19672e-09 -1.92336e-09 2.00957e-09)
(2.53036e-09 -3.23112e-09 2.11184e-09)
(-4.00221e-09 -4.13872e-09 2.19704e-09)
(-4.94483e-08 -4.57932e-09 2.23927e-09)
(6.35007e-08 -8.57149e-10 2.23769e-09)
(1.12645e-08 -3.51728e-09 2.37663e-09)
(3.70674e-09 -5.07248e-09 2.48782e-09)
(-3.72636e-09 -6.1682e-09 2.58611e-09)
(-5.36573e-08 -6.07413e-09 2.64654e-09)
(7.39154e-08 -1.09534e-08 2.61315e-09)
(1.44711e-08 -1.31678e-08 2.75364e-09)
(5.08341e-09 -1.41621e-08 2.86782e-09)
(-4.22669e-09 -1.61401e-08 2.97404e-09)
(-6.14931e-08 -1.68172e-08 3.05234e-09)
(5.30514e-08 -5.05161e-08 2.95488e-09)
(1.67779e-08 -7.77411e-08 3.15458e-09)
(6.588e-09 -7.53842e-08 3.26006e-09)
(-3.57167e-09 -7.97463e-08 3.36667e-09)
(-3.95699e-08 -5.51204e-08 3.33852e-09)
(1.76335e-08 7.29667e-09 0)
(1.97749e-09 2.34842e-09 0)
(-6.73858e-12 5.28784e-10 0)
(-1.95541e-09 2.24365e-09 0)
(-1.69459e-08 7.02916e-09 0)
(2.86768e-08 8.36447e-09 0)
(5.49586e-09 3.91488e-09 0)
(7.07805e-11 1.03222e-09 0)
(-5.269e-09 3.48867e-09 0)
(-2.74336e-08 7.61038e-09 0)
(3.14267e-08 4.01826e-09 0)
(7.31349e-09 2.24338e-09 0)
(3.43424e-10 6.34638e-10 0)
(-6.52319e-09 1.37718e-09 0)
(-2.95713e-08 2.52645e-09 0)
(3.22911e-08 1.32469e-09 0)
(7.66743e-09 5.80976e-10 0)
(8.31993e-10 -4.06203e-10 0)
(-5.89111e-09 -7.31532e-10 0)
(-2.94086e-08 -9.43816e-10 0)
(3.34702e-08 -1.12316e-10 0)
(8.07105e-09 -8.6997e-10 0)
(1.54743e-09 -1.86696e-09 0)
(-4.85287e-09 -2.6277e-09 0)
(-2.91008e-08 -3.16281e-09 0)
(3.60055e-08 -8.97302e-10 0)
(9.13874e-09 -2.13072e-09 0)
(2.492e-09 -3.43243e-09 0)
(-4.02222e-09 -4.33213e-09 0)
(-2.96926e-08 -4.72039e-09 0)
(4.06127e-08 -1.97771e-09 0)
(1.12011e-08 -3.74825e-09 0)
(3.66074e-09 -5.29734e-09 0)
(-3.75608e-09 -6.38638e-09 0)
(-3.19552e-08 -6.54741e-09 0)
(4.80413e-08 -1.21631e-08 0)
(1.4405e-08 -1.33936e-08 0)
(5.03078e-09 -1.43805e-08 0)
(-4.26692e-09 -1.63547e-08 0)
(-3.6777e-08 -1.73099e-08 0)
(4.36356e-08 -4.123e-08 0)
(1.64975e-08 -4.98945e-08 0)
(6.14559e-09 -4.8896e-08 0)
(-4.171e-09 -5.24267e-08 0)
(-3.08567e-08 -4.58322e-08 0)
)
;

boundaryField
{
    interface
    {
        type            calculated;
    }
    symmetry
    {
        type            symmetry;
    }
    bottom
    {
        type            calculated;
    }
}


// ************************************************************************* //
