/*--------------------------------*- C++ -*----------------------------------*\
| =========                 |                                                 |
| \\      /  F ield         | OpenFOAM: The Open Source CFD Toolbox           |
|  \\    /   O peration     | Version:  v1912                                 |
|   \\  /    A nd           | Website:  www.openfoam.com                      |
|    \\/     M anipulation  |                                                 |
\*---------------------------------------------------------------------------*/
FoamFile
{
    version     2.0;
    format      ascii;
    class       volScalarField;
    location    "0.33/solid";
    object      sigmaEq;
}
// * * * * * * * * * * * * * * * * * * * * * * * * * * * * * * * * * * * * * //

dimensions      [1 -1 -2 0 0 0 0];


internalField   nonuniform List<scalar> 
256
(
557215
430618
426484
540176
370087
346867
342604
354900
380901
344076
339758
365997
400783
353043
348762
386115
420358
368456
364194
405810
438639
388773
384508
424145
400172
386832
382879
386841
31352.9
426413
423136
33298.2
379233
81011
79195.4
360788
308461
75264
73299.4
291095
309693
61194
59509.6
292445
318013
49895
48425.7
300661
331468
46047.3
44687.5
313899
350521
44695.2
43419.8
332785
348361
3988.86
5654.73
331501
400046
386990
383127
386984
336748
46577.1
45235.8
319422
298275
55151.3
52962.9
281232
301705
48495.2
46310.3
284338
309360
39651.1
37460.1
291667
322333
35929.2
33696.1
304259
342370
35999.6
33786
323977
350334
43348.9
42399.7
332761
438539
389132
385041
424684
308157
40438.3
39233.6
292055
276945
48608.5
46679
260862
281809
44158.1
42130.1
265161
289577
36940.9
34854.2
272447
302226
33678.8
31520.1
284608
321911
33948
31794.7
303882
330998
42231.9
41403.4
313732
421323
369503
365517
407905
291478
37039
35784.5
276252
262332
44561.3
42818.8
246992
267946
41079
39238
251935
275984
34785.9
32856.6
259383
288584
31889.5
29857.9
271415
308017
32245
30202.1
290372
317135
39814.7
39165.5
300220
405680
355152
351264
392703
281666
34990.1
33692.6
267022
253405
42193
40565
238563
259364
39206.9
37500.7
243800
267590
33390.3
31588.5
251372
280205
30680
28753.7
263362
299486
31139.2
29186.2
282118
308485
38357.4
37850.8
291829
395386
346020
342200
382744
276072
33785.5
32466
261784
248284
40842
39283.3
233749
254388
38097.2
36473.6
239106
262711
32519.1
30801.7
246740
275334
29872
28018.2
258702
294521
30390.3
28497.4
277332
303420
37552.8
37142
286933
389291
340640
336863
376873
273509
33218.3
31890.3
259389
245937
40215.2
38690.2
231549
252092
37568.2
35984.2
236948
260454
32090.3
30414.8
244605
273078
29459.2
27642.6
256551
292217
29999.3
28136.5
275117
301066
37195.2
36832.6
284663
386465
338145
334390
374159
)
;

boundaryField
{
    interface
    {
        type            calculated;
        value           nonuniform List<scalar> 
192
(
754523
552704
568216
594814
622777
653657
636472
340755
643438
551097
557553
575628
601732
639502
664035
636449
576329
519366
527641
544384
569549
607790
639629
653863
529065
481144
490922
507503
532089
569690
602260
624421
501204
456138
466681
483420
507842
545018
577393
601272
484718
440936
451823
468706
493087
529988
562025
586332
475315
432208
443242
460206
484569
521291
553052
577494
471010
428208
439295
456293
480645
517276
548891
573387
783266
584675
600271
627110
655387
686853
673106
402630
727885
620100
622842
641496
669356
708500
733891
697281
720557
612453
614954
633552
661386
700480
726052
691251
761241
564564
579991
606825
635098
666467
653454
393466
729308
528421
543974
570632
598610
629589
613876
329187
613546
521976
528157
545803
571423
608818
634319
614008
547539
490579
498231
514340
538822
576439
608954
630192
501771
453537
462474
478271
502049
538882
571933
600966
475008
429456
439045
454895
478419
514733
547470
578140
459244
414871
424745
440673
464092
500065
532388
563449
450278
406523
416513
432485
455846
491597
523599
554782
446179
402704
412735
428724
452055
487695
519528
550761
402813
673145
687062
657051
633731
618669
609749
605600
697420
734200
709263
671369
645947
630010
620625
616259
691379
726403
701332
663549
638207
622325
612974
608625
393572
653641
667133
637611
614706
599955
591243
587198
)
;
    }
    symmetry
    {
        type            symmetry;
    }
    bottom
    {
        type            calculated;
        value           nonuniform List<scalar> 
32
(
743267
451382
386087
354123
336271
325656
319558
316756
509089
99542.8
51946.6
46154.1
43557.6
41753.2
40606.4
40054
504930
97246.3
49919.3
44277
41667.7
39852.4
38705.2
38154.8
724783
431818
367987
337590
320851
310971
305317
302725
)
;
    }
}


// ************************************************************************* //
