/*--------------------------------*- C++ -*----------------------------------*\
| =========                 |                                                 |
| \\      /  F ield         | OpenFOAM: The Open Source CFD Toolbox           |
|  \\    /   O peration     | Version:  v1912                                 |
|   \\  /    A nd           | Website:  www.openfoam.com                      |
|    \\/     M anipulation  |                                                 |
\*---------------------------------------------------------------------------*/
FoamFile
{
    version     2.0;
    format      ascii;
    class       volScalarField;
    location    "0.33/solid";
    object      sigmaHyd;
}
// * * * * * * * * * * * * * * * * * * * * * * * * * * * * * * * * * * * * * //

dimensions      [1 -1 -2 0 0 0 0];


internalField   nonuniform List<scalar> 
256
(
-724847
-363909
-361655
-709861
-909844
-500654
-498085
-892615
-918268
-512477
-509771
-900270
-925984
-517003
-514167
-907384
-948737
-528450
-525535
-929756
-996933
-556729
-553806
-977917
-1.13546e+06
-664462
-661341
-1.11645e+06
-1.7107e+06
-1.20149e+06
-1.19483e+06
-1.6833e+06
-332159
-43546
-44936.1
-325687
-453840
-116528
-117776
-445930
-463093
-131725
-132916
-454715
-467761
-134648
-135791
-458969
-480183
-135954
-137072
-471039
-509307
-143149
-144274
-499980
-615530
-211245
-212125
-605886
-1.13568e+06
-664468
-661264
-1.11639e+06
-265931
-13988.3
-15440.9
-259138
-355418
-56705.3
-58142.9
-347778
-362521
-69229.7
-70639.9
-354561
-367555
-72619.5
-73999
-359234
-379704
-74008.9
-75371
-371014
-407594
-80077.8
-81439.9
-398607
-509271
-142779
-143858
-499704
-997133
-556400
-553312
-977508
-247970
-16153.2
-17457.4
-240695
-328069
-51598.2
-52927.6
-320271
-333681
-61975.2
-63308
-325692
-338782
-65236.2
-66557.3
-330496
-351271
-67106.4
-68420.3
-342632
-379494
-73722.6
-75036.8
-370516
-479678
-134977
-135994
-469980
-948131
-527086
-523899
-928082
-238548
-18084.5
-19273.2
-230932
-315265
-51354.2
-52594.2
-307336
-320211
-60629.3
-61896.2
-312179
-325252
-63641.4
-64913.7
-316978
-337887
-65707.7
-66983.5
-329290
-366286
-72677.9
-73958.2
-357340
-465518
-133243
-134222
-455787
-922204
-513301
-510054
-901941
-232897
-19171.5
-20278
-225026
-308008
-51516.7
-52693
-299954
-312679
-60276.7
-61495.5
-304577
-317666
-63120
-64356.5
-309361
-330347
-65258.6
-66507.5
-321744
-358805
-72422.9
-73681.1
-349857
-457413
-132627
-133584
-447648
-906743
-505467
-502187
-886342
-229653
-19798.9
-20852.2
-221612
-303924
-51685.7
-52820.3
-295775
-308483
-60210.1
-61396.3
-300317
-313439
-62964.3
-64176.1
-305094
-326131
-65133
-66363
-317505
-354605
-72402.1
-73645.4
-345640
-452834
-132417
-133360
-443039
-897787
-501048
-497748
-877298
-228167
-20093.5
-21120.6
-220042
-302065
-51781.8
-52895.8
-293866
-306584
-60213
-61382.8
-298382
-311527
-62930.7
-64129.6
-303156
-324221
-65111.5
-66331.7
-315578
-352697
-72427.4
-73662.9
-343719
-450747
-132359
-133296
-440935
-893644
-499029
-495720
-873111
)
;

boundaryField
{
    interface
    {
        type            zeroGradient;
    }
    symmetry
    {
        type            symmetry;
    }
    bottom
    {
        type            zeroGradient;
    }
}


// ************************************************************************* //
