/*--------------------------------*- C++ -*----------------------------------*\
| =========                 |                                                 |
| \\      /  F ield         | OpenFOAM: The Open Source CFD Toolbox           |
|  \\    /   O peration     | Version:  v1912                                 |
|   \\  /    A nd           | Website:  www.openfoam.com                      |
|    \\/     M anipulation  |                                                 |
\*---------------------------------------------------------------------------*/
FoamFile
{
    version     2.0;
    format      ascii;
    class       volVectorField;
    location    "1/solid";
    object      D_0_0;
}
// * * * * * * * * * * * * * * * * * * * * * * * * * * * * * * * * * * * * * //

dimensions      [0 1 0 0 0 0 0];


internalField   nonuniform List<vector> 
256
(
(3.21883e-08 4.4265e-08 3.60156e-08)
(4.66385e-09 2.62066e-08 3.3121e-08)
(-4.89646e-09 2.57115e-08 3.283e-08)
(-3.10962e-08 4.23179e-08 3.52158e-08)
(5.38616e-08 3.52255e-08 7.21725e-08)
(1.14365e-08 2.36685e-08 6.82526e-08)
(-1.10571e-08 2.30868e-08 6.77848e-08)
(-5.16675e-08 3.33831e-08 7.08413e-08)
(5.73709e-08 1.61552e-08 9.35334e-08)
(1.30645e-08 1.14673e-08 8.91634e-08)
(-1.18914e-08 1.0947e-08 8.86381e-08)
(-5.43739e-08 1.46318e-08 9.20082e-08)
(5.66878e-08 -2.04566e-09 1.10506e-07)
(1.27131e-08 -4.47251e-09 1.05497e-07)
(-1.08354e-08 -4.90738e-09 1.04931e-07)
(-5.29789e-08 -3.30273e-09 1.08848e-07)
(5.74007e-08 -2.01007e-08 1.27199e-07)
(1.2785e-08 -2.32542e-08 1.21452e-07)
(-1.03274e-08 -2.36071e-08 1.20842e-07)
(-5.30828e-08 -2.11169e-08 1.25402e-07)
(6.25975e-08 -4.07721e-08 1.45825e-07)
(1.46297e-08 -4.54032e-08 1.39428e-07)
(-1.17421e-08 -4.56742e-08 1.38763e-07)
(-5.78215e-08 -4.15393e-08 1.43864e-07)
(7.49188e-08 -7.19795e-08 1.67415e-07)
(1.89391e-08 -7.53213e-08 1.61101e-07)
(-1.58519e-08 -7.54688e-08 1.6037e-07)
(-6.98932e-08 -7.23813e-08 1.65263e-07)
(9.15726e-08 -1.3759e-07 1.87722e-07)
(2.35234e-08 -1.3315e-07 1.82825e-07)
(-2.06563e-08 -1.32846e-07 1.82025e-07)
(-8.6583e-08 -1.36735e-07 1.85386e-07)
(2.23171e-08 1.97008e-08 8.67018e-09)
(2.55724e-09 4.81938e-09 1.02641e-08)
(-2.55951e-09 4.5362e-09 1.02423e-08)
(-2.10833e-08 1.8279e-08 8.60101e-09)
(3.78278e-08 1.21751e-08 3.17074e-08)
(7.374e-09 2.49044e-09 3.48203e-08)
(-6.49604e-09 2.0375e-09 3.47091e-08)
(-3.53075e-08 1.06288e-08 3.13815e-08)
(3.99748e-08 -1.7124e-09 5.14114e-08)
(8.54086e-09 -5.73905e-09 5.49823e-08)
(-6.70956e-09 -6.20237e-09 5.48173e-08)
(-3.65294e-08 -3.11861e-09 5.0923e-08)
(3.89244e-08 -1.69011e-08 6.77839e-08)
(8.16652e-09 -1.91095e-08 7.13179e-08)
(-5.51489e-09 -1.95187e-08 7.11177e-08)
(-3.46672e-08 -1.81173e-08 6.71816e-08)
(3.93491e-08 -3.31891e-08 8.30991e-08)
(8.24336e-09 -3.62988e-08 8.64079e-08)
(-4.91139e-09 -3.66386e-08 8.61706e-08)
(-3.4384e-08 -3.41964e-08 8.23783e-08)
(4.441e-08 -5.14686e-08 9.87171e-08)
(1.01136e-08 -5.62121e-08 1.01763e-07)
(-6.25403e-09 -5.64796e-08 1.01481e-07)
(-3.88795e-08 -5.22521e-08 9.78562e-08)
(5.7263e-08 -7.67567e-08 1.13639e-07)
(1.45864e-08 -8.0074e-08 1.16553e-07)
(-1.04283e-08 -8.02387e-08 1.16223e-07)
(-5.13634e-08 -7.72255e-08 1.12629e-07)
(7.54073e-08 -1.3045e-07 1.22101e-07)
(1.94109e-08 -1.24603e-07 1.25038e-07)
(-1.53737e-08 -1.24358e-07 1.24684e-07)
(-6.9417e-08 -1.29753e-07 1.21006e-07)
(1.52165e-08 1.18216e-08 4.22596e-09)
(6.60418e-10 -5.10744e-10 6.42801e-09)
(-6.07585e-10 -7.49683e-10 6.42117e-09)
(-1.39706e-08 1.0505e-08 4.20694e-09)
(2.58287e-08 4.41545e-10 1.96769e-08)
(3.55442e-09 -7.50261e-09 2.38573e-08)
(-2.51265e-09 -7.91118e-09 2.3804e-08)
(-2.32071e-08 -1.01979e-09 1.95303e-08)
(2.69889e-08 -1.33632e-08 3.64193e-08)
(4.25003e-09 -1.67713e-08 4.12087e-08)
(-2.14482e-09 -1.7213e-08 4.1112e-08)
(-2.33429e-08 -1.47447e-08 3.61465e-08)
(2.58619e-08 -2.69715e-08 5.17814e-08)
(3.87033e-09 -2.90823e-08 5.66494e-08)
(-8.42144e-10 -2.94909e-08 5.65175e-08)
(-2.13083e-08 -2.82147e-08 5.13995e-08)
(2.62831e-08 -4.08016e-08 6.57716e-08)
(3.98015e-09 -4.40012e-08 7.05479e-08)
(-1.77744e-10 -4.43553e-08 7.03813e-08)
(-2.09267e-08 -4.18733e-08 6.52799e-08)
(3.14622e-08 -5.53183e-08 7.84185e-08)
(5.90039e-09 -6.02285e-08 8.30458e-08)
(-1.48255e-09 -6.05233e-08 8.2842e-08)
(-2.54423e-08 -5.61998e-08 7.78087e-08)
(4.47427e-08 -7.50353e-08 8.80416e-08)
(1.05099e-08 -7.84849e-08 9.24977e-08)
(-5.70881e-09 -7.86922e-08 9.22621e-08)
(-3.82492e-08 -7.56397e-08 8.73246e-08)
(6.3441e-08 -1.21999e-07 9.08588e-08)
(1.54973e-08 -1.16077e-07 9.51902e-08)
(-1.073e-08 -1.15887e-07 9.49501e-08)
(-5.67465e-08 -1.21464e-07 9.01081e-08)
(1.19268e-08 9.23121e-09 3.68856e-09)
(-1.728e-10 -1.56276e-09 5.14145e-09)
(2.37804e-10 -1.79891e-09 5.13253e-09)
(-1.0697e-08 7.92731e-09 3.66992e-09)
(2.01328e-08 -4.28541e-09 1.52141e-08)
(1.74978e-09 -1.11538e-08 1.79838e-08)
(-6.60161e-10 -1.15607e-08 1.7947e-08)
(-1.74984e-08 -5.75408e-09 1.51234e-08)
(2.09412e-08 -1.9093e-08 2.85341e-08)
(2.23523e-09 -2.21319e-08 3.16924e-08)
(-2.01966e-11 -2.25781e-08 3.16252e-08)
(-1.72196e-08 -2.05052e-08 2.83571e-08)
(2.00373e-08 -3.22276e-08 4.15604e-08)
(1.94332e-09 -3.43287e-08 4.47319e-08)
(1.27093e-09 -3.47516e-08 4.46353e-08)
(-1.53322e-08 -3.35287e-08 4.12941e-08)
(2.07283e-08 -4.42563e-08 5.33154e-08)
(2.17035e-09 -4.75662e-08 5.63858e-08)
(1.89689e-09 -4.79449e-08 5.62595e-08)
(-1.51398e-08 -4.54125e-08 5.29565e-08)
(2.61471e-08 -5.60008e-08 6.30205e-08)
(4.17732e-09 -6.10582e-08 6.59676e-08)
(5.81812e-10 -6.13868e-08 6.58121e-08)
(-1.98114e-08 -5.69909e-08 6.25679e-08)
(3.95524e-08 -7.26097e-08 6.92696e-08)
(8.82285e-09 -7.63125e-08 7.21059e-08)
(-3.60698e-09 -7.65606e-08 7.19288e-08)
(-3.26562e-08 -7.33402e-08 6.874e-08)
(5.81533e-08 -1.16575e-07 7.03248e-08)
(1.38234e-08 -1.11264e-07 7.31665e-08)
(-8.56691e-09 -1.11117e-07 7.29903e-08)
(-5.0967e-08 -1.16168e-07 6.97792e-08)
(1.06844e-08 8.19358e-09 3.29144e-09)
(-3.84994e-10 -1.8238e-09 4.02934e-09)
(4.52312e-10 -2.06146e-09 4.02149e-09)
(-9.47046e-09 6.89338e-09 3.27614e-09)
(1.80537e-08 -5.9503e-09 1.20586e-08)
(1.23969e-09 -1.23007e-08 1.34487e-08)
(-1.36998e-10 -1.27153e-08 1.34227e-08)
(-1.54301e-08 -7.44179e-09 1.19992e-08)
(1.88934e-08 -2.12406e-08 2.20795e-08)
(1.7115e-09 -2.41397e-08 2.36302e-08)
(5.49264e-10 -2.45988e-08 2.35842e-08)
(-1.51488e-08 -2.26959e-08 2.19645e-08)
(1.82967e-08 -3.42214e-08 3.21091e-08)
(1.54192e-09 -3.63756e-08 3.36128e-08)
(1.76888e-09 -3.68169e-08 3.35452e-08)
(-1.35167e-08 -3.55835e-08 3.19296e-08)
(1.92986e-08 -4.52986e-08 4.11166e-08)
(1.89842e-09 -4.87107e-08 4.25166e-08)
(2.32499e-09 -4.91136e-08 4.24263e-08)
(-1.35738e-08 -4.65326e-08 4.0867e-08)
(2.49106e-08 -5.56473e-08 4.81908e-08)
(3.97926e-09 -6.08081e-08 4.94993e-08)
(9.97648e-10 -6.11661e-08 4.93873e-08)
(-1.83725e-08 -5.67291e-08 4.78713e-08)
(3.82655e-08 -7.09654e-08 5.2387e-08)
(8.60483e-09 -7.48731e-08 5.36503e-08)
(-3.11071e-09 -7.51532e-08 5.35233e-08)
(-3.10986e-08 -7.17944e-08 5.20124e-08)
(5.66064e-08 -1.13562e-07 5.30404e-08)
(1.35652e-08 -1.08826e-07 5.43703e-08)
(-7.97061e-09 -1.08711e-07 5.42449e-08)
(-4.90808e-08 -1.13251e-07 5.26562e-08)
(1.02401e-08 7.72723e-09 2.57986e-09)
(-3.91136e-10 -1.92366e-09 2.91135e-09)
(4.57965e-10 -2.16228e-09 2.90587e-09)
(-9.03725e-09 6.43033e-09 2.56942e-09)
(1.74127e-08 -6.43298e-09 8.83966e-09)
(1.20137e-09 -1.25736e-08 9.44166e-09)
(-9.66988e-11 -1.29949e-08 9.42475e-09)
(-1.48016e-08 -7.94192e-09 8.80234e-09)
(1.84041e-08 -2.17346e-08 1.58007e-08)
(1.72998e-09 -2.46157e-08 1.644e-08)
(5.49571e-10 -2.50864e-08 1.64105e-08)
(-1.46547e-08 -2.32253e-08 1.57292e-08)
(1.80658e-08 -3.45831e-08 2.27711e-08)
(1.6654e-09 -3.68081e-08 2.33492e-08)
(1.69564e-09 -3.72652e-08 2.33054e-08)
(-1.32486e-08 -3.59944e-08 2.26575e-08)
(1.93014e-08 -4.52613e-08 2.90028e-08)
(2.11909e-09 -4.87517e-08 2.95002e-08)
(2.19554e-09 -4.9174e-08 2.94408e-08)
(-1.3497e-08 -4.65556e-08 2.88416e-08)
(2.50275e-08 -5.51062e-08 3.37956e-08)
(4.24635e-09 -6.0326e-08 3.42368e-08)
(8.66914e-10 -6.07059e-08 3.41626e-08)
(-1.83622e-08 -5.62559e-08 3.35864e-08)
(3.82917e-08 -7.00204e-08 3.65753e-08)
(8.84204e-09 -7.40402e-08 3.70079e-08)
(-3.16601e-09 -7.43431e-08 3.69236e-08)
(-3.09477e-08 -7.09196e-08 3.63289e-08)
(5.64041e-08 -1.11933e-07 3.70944e-08)
(1.37609e-08 -1.07547e-07 3.75908e-08)
(-7.94004e-09 -1.07454e-07 3.75079e-08)
(-4.86518e-08 -1.1169e-07 3.68418e-08)
(1.00668e-08 7.52163e-09 1.63151e-09)
(-3.65351e-10 -1.95845e-09 1.76825e-09)
(4.311e-10 -2.19755e-09 1.76515e-09)
(-8.87072e-09 6.22704e-09 1.62564e-09)
(1.72166e-08 -6.50389e-09 5.39941e-09)
(1.25072e-09 -1.25688e-08 5.63479e-09)
(-1.4722e-10 -1.29942e-08 5.62537e-09)
(-1.46146e-08 -8.02326e-09 5.37894e-09)
(1.83382e-08 -2.16627e-08 9.49567e-09)
(1.83292e-09 -2.45632e-08 9.72789e-09)
(4.53807e-10 -2.50417e-08 9.71153e-09)
(-1.45891e-08 -2.31762e-08 9.45662e-09)
(1.81677e-08 -3.43895e-08 1.35708e-08)
(1.83701e-09 -3.66709e-08 1.37586e-08)
(1.54907e-09 -3.71388e-08 1.37341e-08)
(-1.33323e-08 -3.58334e-08 1.35082e-08)
(1.95434e-08 -4.49302e-08 1.71999e-08)
(2.34907e-09 -4.84702e-08 1.73395e-08)
(2.01569e-09 -4.89054e-08 1.73062e-08)
(-1.36949e-08 -4.62642e-08 1.711e-08)
(2.5327e-08 -5.46633e-08 1.99735e-08)
(4.50119e-09 -5.99109e-08 2.0085e-08)
(6.91253e-10 -6.03051e-08 2.0043e-08)
(-1.8587e-08 -5.5857e-08 1.98559e-08)
(3.85203e-08 -6.95042e-08 2.15859e-08)
(9.07543e-09 -7.35708e-08 2.17006e-08)
(-3.29021e-09 -7.38881e-08 2.16528e-08)
(-3.10692e-08 -7.04483e-08 2.14467e-08)
(5.64802e-08 -1.11075e-07 2.19383e-08)
(1.39657e-08 -1.06858e-07 2.20929e-08)
(-8.00655e-09 -1.06778e-07 2.20458e-08)
(-4.8589e-08 -1.10873e-07 2.17954e-08)
(9.99933e-09 7.44527e-09 5.56789e-10)
(-3.50587e-10 -1.96522e-09 5.94045e-10)
(4.15613e-10 -2.20454e-09 5.93047e-10)
(-8.8065e-09 6.1518e-09 5.54907e-10)
(1.71513e-08 -6.48019e-09 1.81525e-09)
(1.28168e-09 -1.2521e-08 1.87683e-09)
(-1.7934e-10 -1.29484e-08 1.87382e-09)
(-1.45538e-08 -8.00434e-09 1.80875e-09)
(1.83389e-08 -2.15321e-08 3.16715e-09)
(1.89157e-09 -2.44486e-08 3.22429e-09)
(3.97474e-10 -2.49309e-08 3.21906e-09)
(-1.45907e-08 -2.30565e-08 3.15475e-09)
(1.82476e-08 -3.41874e-08 4.50548e-09)
(1.92803e-09 -3.64984e-08 4.54697e-09)
(1.46841e-09 -3.69716e-08 4.53914e-09)
(-1.34046e-08 -3.56473e-08 4.48554e-09)
(1.96866e-08 -4.46905e-08 5.69466e-09)
(2.46649e-09 -4.82537e-08 5.72049e-09)
(1.92046e-09 -4.86953e-08 5.70976e-09)
(-1.38183e-08 -4.6044e-08 5.66586e-09)
(2.54935e-08 -5.4422e-08 6.60257e-09)
(4.62924e-09 -5.96797e-08 6.62006e-09)
(5.99487e-10 -6.00809e-08 6.6065e-09)
(-1.8719e-08 -5.56372e-08 6.56472e-09)
(3.86507e-08 -6.92702e-08 7.13323e-09)
(9.19325e-09 -7.33514e-08 7.15302e-09)
(-3.35693e-09 -7.36758e-08 7.13756e-09)
(-3.11493e-08 -7.02361e-08 7.08829e-09)
(5.65363e-08 -1.10698e-07 7.25841e-09)
(1.40695e-08 -1.06546e-07 7.29132e-09)
(-8.04487e-09 -1.06473e-07 7.2761e-09)
(-4.85792e-08 -1.10517e-07 7.21226e-09)
)
;

boundaryField
{
    interface
    {
        type            solidTraction;
        traction        uniform (0 0 0);
        pressure        uniform 0;
        secondOrder     false;
        setEffectiveTraction false;
        relaxationFactor 1;
        value           nonuniform List<vector> 
192
(
(9.17375e-08 6.57774e-08 3.32067e-08)
(1.09803e-07 4.15211e-08 6.74796e-08)
(1.14534e-07 1.68617e-08 8.84611e-08)
(1.15681e-07 -2.03815e-09 1.05417e-07)
(1.18542e-07 -1.86231e-08 1.22138e-07)
(1.26448e-07 -3.63923e-08 1.40826e-07)
(1.42408e-07 -6.47354e-08 1.6258e-07)
(1.65977e-07 -1.32777e-07 1.83148e-07)
(7.14407e-08 3.4737e-08 4.42701e-09)
(8.46511e-08 1.65895e-08 2.46988e-08)
(8.74954e-08 -1.43829e-09 4.38156e-08)
(8.77898e-08 -1.70575e-08 6.0077e-08)
(9.01104e-08 -3.18176e-08 7.53193e-08)
(9.79388e-08 -4.69899e-08 9.09329e-08)
(1.15164e-07 -6.9007e-08 1.06094e-07)
(1.4296e-07 -1.25375e-07 1.15068e-07)
(5.78963e-08 2.20828e-08 1.6282e-09)
(6.76696e-08 3.38461e-09 1.52529e-08)
(6.96267e-08 -1.33549e-08 3.16606e-08)
(6.9771e-08 -2.7148e-08 4.70593e-08)
(7.20963e-08 -3.94014e-08 6.11161e-08)
(8.02325e-08 -5.07032e-08 7.38525e-08)
(9.83478e-08 -6.70402e-08 8.36137e-08)
(1.27457e-07 -1.16751e-07 8.65451e-08)
(5.07957e-08 1.72461e-08 2.55544e-09)
(5.87131e-08 -2.03182e-09 1.32702e-08)
(6.04493e-08 -1.91169e-08 2.651e-08)
(6.08558e-08 -3.22807e-08 3.96689e-08)
(6.35114e-08 -4.27287e-08 5.15691e-08)
(7.20215e-08 -5.12945e-08 6.13825e-08)
(9.04893e-08 -6.46078e-08 6.76502e-08)
(1.19639e-07 -1.11258e-07 6.86161e-08)
(4.73192e-08 1.53781e-08 2.86971e-09)
(5.4545e-08 -3.89808e-09 1.13784e-08)
(5.63864e-08 -2.11798e-08 2.1445e-08)
(5.7157e-08 -3.412e-08 3.16161e-08)
(6.01866e-08 -4.3645e-08 4.07597e-08)
(6.89719e-08 -5.09053e-08 4.79108e-08)
(8.748e-08 -6.3041e-08 5.20717e-08)
(1.16306e-07 -1.08235e-07 5.2603e-08)
(4.55794e-08 1.46404e-08 2.42541e-09)
(5.26433e-08 -4.392e-09 8.63031e-09)
(5.4675e-08 -2.15713e-08 1.56618e-08)
(5.575e-08 -3.43587e-08 2.27387e-08)
(5.90618e-08 -4.35207e-08 2.90639e-08)
(6.80071e-08 -5.03583e-08 3.38996e-08)
(8.64507e-08 -6.21758e-08 3.6639e-08)
(1.14949e-07 -1.06625e-07 3.70628e-08)
(4.46912e-08 1.43425e-08 1.57129e-09)
(5.17416e-08 -4.43605e-09 5.33403e-09)
(5.39238e-08 -2.14249e-08 9.47932e-09)
(5.51959e-08 -3.40881e-08 1.36162e-08)
(5.86784e-08 -4.31403e-08 1.72961e-08)
(6.77041e-08 -4.99188e-08 2.00899e-08)
(8.60791e-08 -6.17154e-08 2.16756e-08)
(1.14348e-07 -1.05789e-07 2.19713e-08)
(4.4305e-08 1.42329e-08 5.3992e-10)
(5.13604e-08 -4.39531e-09 1.79891e-09)
(5.36175e-08 -2.1258e-08 3.16731e-09)
(5.49828e-08 -3.38504e-08 4.52543e-09)
(5.85428e-08 -4.28788e-08 5.73043e-09)
(6.76012e-08 -4.96806e-08 6.64418e-09)
(8.59376e-08 -6.15091e-08 7.16584e-09)
(1.14093e-07 -1.05427e-07 7.27243e-09)
(3.28697e-08 7.13121e-08 9.65144e-08)
(5.52291e-08 4.96052e-08 1.28681e-07)
(5.88157e-08 2.57386e-08 1.51276e-07)
(5.7981e-08 6.37085e-09 1.70215e-07)
(5.8496e-08 -1.12708e-08 1.89144e-07)
(6.34987e-08 -3.07179e-08 2.10414e-07)
(7.57592e-08 -6.1505e-08 2.35428e-07)
(9.26368e-08 -1.32011e-07 2.62452e-07)
(3.86777e-09 5.15501e-08 8.70495e-08)
(1.03403e-08 3.76792e-08 1.18356e-07)
(1.18415e-08 2.07785e-08 1.39514e-07)
(1.13204e-08 3.59975e-09 1.57126e-07)
(1.11966e-08 -1.47714e-08 1.74896e-07)
(1.28652e-08 -3.54909e-08 1.95321e-07)
(1.71789e-08 -6.4472e-08 2.20879e-07)
(2.21002e-08 -1.27333e-07 2.52111e-07)
(-4.37243e-09 5.08652e-08 8.5664e-08)
(-1.04093e-08 3.70389e-08 1.16864e-07)
(-1.11795e-08 2.02337e-08 1.37934e-07)
(-9.99662e-09 3.14364e-09 1.55474e-07)
(-9.33908e-09 -1.51491e-08 1.73173e-07)
(-1.06321e-08 -3.57921e-08 1.93521e-07)
(-1.48104e-08 -6.46534e-08 2.18992e-07)
(-2.0015e-08 -1.27042e-07 2.50152e-07)
(-3.19692e-08 6.88323e-08 9.25664e-08)
(-5.33743e-08 4.75813e-08 1.24371e-07)
(-5.62233e-08 2.41337e-08 1.46661e-07)
(-5.47238e-08 5.0458e-09 1.65371e-07)
(-5.46778e-08 -1.23629e-08 1.84091e-07)
(-5.92766e-08 -3.1574e-08 2.05137e-07)
(-7.13489e-08 -6.20011e-08 2.29913e-07)
(-8.83219e-08 -1.31191e-07 2.56808e-07)
(-8.50264e-08 6.3009e-08 3.22762e-08)
(-1.01941e-07 3.92027e-08 6.5898e-08)
(-1.05753e-07 1.49598e-08 8.66226e-08)
(-1.06061e-07 -3.62542e-09 1.03398e-07)
(-1.08195e-07 -1.99062e-08 1.1993e-07)
(-1.15535e-07 -3.73367e-08 1.38402e-07)
(-1.31133e-07 -6.5191e-08 1.59903e-07)
(-1.54555e-07 -1.31821e-07 1.80225e-07)
(-6.47236e-08 3.23768e-08 4.31956e-09)
(-7.66937e-08 1.44904e-08 2.42664e-08)
(-7.85268e-08 -3.27861e-09 4.31652e-08)
(-7.78881e-08 -1.86536e-08 5.92638e-08)
(-7.93695e-08 -3.31434e-08 7.43392e-08)
(-8.64958e-08 -4.80073e-08 8.97613e-08)
(-1.032e-07 -6.95911e-08 1.04718e-07)
(-1.30677e-07 -1.24635e-07 1.13547e-07)
(-5.13454e-08 1.97995e-08 1.61033e-09)
(-5.97831e-08 1.32333e-09 1.50779e-08)
(-6.06318e-08 -1.52194e-08 3.1319e-08)
(-5.97472e-08 -2.88188e-08 4.65657e-08)
(-6.11275e-08 -4.08398e-08 6.04689e-08)
(-6.84359e-08 -5.18692e-08 7.30417e-08)
(-8.58848e-08 -6.78136e-08 8.26479e-08)
(-1.14524e-07 -1.16229e-07 8.54957e-08)
(-4.43893e-08 1.49762e-08 2.54484e-09)
(-5.09405e-08 -4.1234e-09 1.31791e-08)
(-5.15058e-08 -2.10467e-08 2.63085e-08)
(-5.08063e-08 -3.40486e-08 3.93462e-08)
(-5.24275e-08 -4.42927e-08 5.11182e-08)
(-6.00075e-08 -5.26118e-08 6.08004e-08)
(-7.76904e-08 -6.55512e-08 6.69524e-08)
(-1.06249e-07 -1.10908e-07 6.78628e-08)
(-4.10135e-08 1.31185e-08 2.86118e-09)
(-4.68689e-08 -6.02219e-09 1.1325e-08)
(-4.75053e-08 -2.31742e-08 2.13233e-08)
(-4.7116e-08 -3.59773e-08 3.14088e-08)
(-4.90438e-08 -4.53186e-08 4.04563e-08)
(-5.68207e-08 -5.23478e-08 4.7509e-08)
(-7.44559e-08 -6.41172e-08 5.15854e-08)
(-1.026e-07 -1.08014e-07 5.20775e-08)
(-3.93371e-08 1.23901e-08 2.41947e-09)
(-4.50324e-08 -6.53755e-09 8.59846e-09)
(-4.58412e-08 -2.36135e-08 1.55893e-08)
(-4.5722e-08 -3.62838e-08 2.26114e-08)
(-4.78853e-08 -4.52772e-08 2.88719e-08)
(-5.57667e-08 -5.18931e-08 3.36401e-08)
(-7.32761e-08 -6.33471e-08 3.63216e-08)
(-1.01029e-07 -1.06495e-07 3.67189e-08)
(-3.84857e-08 1.20984e-08 1.56794e-09)
(-4.41698e-08 -6.59365e-09 5.31698e-09)
(-4.51198e-08 -2.34968e-08 9.44061e-09)
(-4.51778e-08 -3.60569e-08 1.35473e-08)
(-4.7483e-08 -4.49505e-08 1.71904e-08)
(-5.54099e-08 -5.15133e-08 1.99451e-08)
(-7.28118e-08 -6.29476e-08 2.14972e-08)
(-1.00295e-07 -1.05717e-07 2.17773e-08)
(-3.81163e-08 1.19919e-08 5.38851e-10)
(-4.38067e-08 -6.55828e-09 1.79354e-09)
(-4.48277e-08 -2.33438e-08 3.15514e-09)
(-4.49697e-08 -3.58403e-08 4.50362e-09)
(-4.73388e-08 -4.47153e-08 5.69671e-09)
(-5.52816e-08 -5.13043e-08 6.59772e-09)
(-7.26262e-08 -6.27709e-08 7.10833e-09)
(-9.99761e-08 -1.05382e-07 7.20981e-09)
(9.28706e-08 -2.12396e-07 1.88727e-07)
(7.64847e-08 -1.98584e-07 1.18203e-07)
(6.45857e-08 -1.868e-07 8.73899e-08)
(5.94855e-08 -1.78944e-07 6.82154e-08)
(5.8087e-08 -1.74145e-07 5.188e-08)
(5.79631e-08 -1.71328e-07 3.64727e-08)
(5.80703e-08 -1.69763e-07 2.16295e-08)
(5.81355e-08 -1.69061e-07 7.16431e-09)
(2.23384e-08 -2.0251e-07 1.83597e-07)
(1.78888e-08 -1.84505e-07 1.2077e-07)
(1.39703e-08 -1.72189e-07 9.18553e-08)
(1.24599e-08 -1.65109e-07 7.13537e-08)
(1.23534e-08 -1.61144e-07 5.3441e-08)
(1.26419e-08 -1.58863e-07 3.70989e-08)
(1.28925e-08 -1.57571e-07 2.18426e-08)
(1.3014e-08 -1.56977e-07 7.21336e-09)
(-1.97589e-08 -2.01036e-07 1.82805e-07)
(-1.40855e-08 -1.83086e-07 1.20444e-07)
(-9.38232e-09 -1.70837e-07 9.164e-08)
(-7.33988e-09 -1.63807e-07 7.11962e-08)
(-6.86344e-09 -1.59876e-07 5.3329e-08)
(-6.90345e-09 -1.57618e-07 3.70248e-08)
(-7.00182e-09 -1.5634e-07 2.18007e-08)
(-7.05119e-09 -1.55753e-07 7.19979e-09)
(-8.80663e-08 -2.08201e-07 1.86412e-07)
(-7.06261e-08 -1.94469e-07 1.17189e-07)
(-5.7969e-08 -1.82862e-07 8.67122e-08)
(-5.23337e-08 -1.7515e-07 6.7726e-08)
(-5.05631e-08 -1.70452e-07 5.15366e-08)
(-5.01891e-08 -1.67703e-07 3.62474e-08)
(-5.01427e-08 -1.66181e-07 2.15023e-08)
(-5.01348e-08 -1.65499e-07 7.12326e-09)
)
;
        gradient        uniform (0 0 0);
    }
    symmetry
    {
        type            solidSymmetry;
        patchType       symmetry;
        secondOrder     false;
        value           nonuniform List<vector> 
32
(
(9.99933e-09 7.44527e-09 0)
(1.71513e-08 -6.48019e-09 0)
(1.83389e-08 -2.15321e-08 0)
(1.82476e-08 -3.41874e-08 0)
(1.96866e-08 -4.46905e-08 0)
(2.54935e-08 -5.4422e-08 0)
(3.86507e-08 -6.92702e-08 0)
(5.65363e-08 -1.10698e-07 0)
(-3.50587e-10 -1.96522e-09 0)
(1.28168e-09 -1.2521e-08 0)
(1.89157e-09 -2.44486e-08 0)
(1.92803e-09 -3.64984e-08 0)
(2.46649e-09 -4.82537e-08 0)
(4.62924e-09 -5.96797e-08 0)
(9.19325e-09 -7.33514e-08 0)
(1.40695e-08 -1.06546e-07 0)
(4.15613e-10 -2.20454e-09 0)
(-1.7934e-10 -1.29484e-08 0)
(3.97474e-10 -2.49309e-08 0)
(1.46841e-09 -3.69716e-08 0)
(1.92046e-09 -4.86953e-08 0)
(5.99487e-10 -6.00809e-08 0)
(-3.35693e-09 -7.36758e-08 0)
(-8.04487e-09 -1.06473e-07 0)
(-8.8065e-09 6.1518e-09 0)
(-1.45538e-08 -8.00434e-09 0)
(-1.45907e-08 -2.30565e-08 0)
(-1.34046e-08 -3.56473e-08 0)
(-1.38183e-08 -4.6044e-08 0)
(-1.8719e-08 -5.56372e-08 0)
(-3.11493e-08 -7.02361e-08 0)
(-4.85792e-08 -1.10517e-07 0)
)
;
    }
    bottom
    {
        type            fixedDisplacement;
        value           uniform (0 0 0);
    }
}


// ************************************************************************* //
