/*--------------------------------*- C++ -*----------------------------------*\
| =========                 |                                                 |
| \\      /  F ield         | OpenFOAM: The Open Source CFD Toolbox           |
|  \\    /   O peration     | Version:  v1912                                 |
|   \\  /    A nd           | Website:  www.openfoam.com                      |
|    \\/     M anipulation  |                                                 |
\*---------------------------------------------------------------------------*/
FoamFile
{
    version     2.0;
    format      ascii;
    class       volVectorField;
    location    "1/solid";
    object      DD;
}
// * * * * * * * * * * * * * * * * * * * * * * * * * * * * * * * * * * * * * //

dimensions      [0 1 0 0 0 0 0];


internalField   nonuniform List<vector> 
256
(
(1.65785e-10 1.8526e-10 2.21995e-10)
(3.94035e-11 1.26367e-10 2.19054e-10)
(-5.90267e-11 1.19771e-10 2.09597e-10)
(-1.64558e-10 1.64167e-10 1.9396e-10)
(3.20515e-10 1.76988e-10 5.42936e-10)
(8.11638e-11 1.20445e-10 5.36325e-10)
(-1.29067e-10 1.18989e-10 5.16347e-10)
(-3.38349e-10 1.77016e-10 4.83121e-10)
(3.5958e-10 3.48389e-11 7.8149e-10)
(8.48594e-11 9.85488e-12 7.67671e-10)
(-1.65394e-10 1.64744e-11 7.4138e-10)
(-4.09044e-10 6.0035e-11 7.02563e-10)
(3.51407e-10 -1.40966e-10 9.79803e-10)
(6.74414e-11 -1.46827e-10 9.56831e-10)
(-1.90172e-10 -1.32201e-10 9.26038e-10)
(-4.42539e-10 -9.27418e-11 8.87235e-10)
(3.41939e-10 -3.36714e-10 1.16836e-09)
(4.61291e-11 -3.38427e-10 1.13597e-09)
(-2.21645e-10 -3.16167e-10 1.1014e-09)
(-4.85152e-10 -2.66752e-10 1.06436e-09)
(3.59159e-10 -5.7674e-10 1.36393e-09)
(3.18067e-11 -5.76336e-10 1.32473e-09)
(-2.7147e-10 -5.46348e-10 1.28661e-09)
(-5.65644e-10 -4.84719e-10 1.24925e-09)
(4.08243e-10 -9.11777e-10 1.55749e-09)
(2.56337e-11 -8.97451e-10 1.52103e-09)
(-3.42433e-10 -8.5858e-10 1.47944e-09)
(-6.89722e-10 -7.94288e-10 1.43259e-09)
(4.41515e-10 -1.31216e-09 1.68925e-09)
(1.22404e-11 -1.28041e-09 1.66523e-09)
(-4.21189e-10 -1.22898e-09 1.62088e-09)
(-8.09999e-10 -1.15754e-09 1.55669e-09)
(1.19776e-10 7.0881e-11 1.06378e-10)
(2.82953e-11 1.83153e-11 1.13832e-10)
(-3.65417e-11 1.63868e-11 1.09346e-10)
(-1.10097e-10 5.96966e-11 9.31837e-11)
(2.39492e-10 8.87617e-12 3.27438e-10)
(6.12384e-11 -4.0383e-11 3.41577e-10)
(-8.15286e-11 -3.78372e-11 3.29311e-10)
(-2.3421e-10 1.64249e-11 2.91781e-10)
(2.68976e-10 -1.26654e-10 5.32082e-10)
(6.46339e-11 -1.47632e-10 5.45951e-10)
(-1.05534e-10 -1.38544e-10 5.28152e-10)
(-2.83991e-10 -9.74875e-11 4.80121e-10)
(2.59159e-10 -2.86366e-10 7.15508e-10)
(4.97921e-11 -2.9104e-10 7.25528e-10)
(-1.23449e-10 -2.74921e-10 7.03661e-10)
(-3.06912e-10 -2.36231e-10 6.51266e-10)
(2.50424e-10 -4.63905e-10 8.8769e-10)
(3.14989e-11 -4.67003e-10 8.92302e-10)
(-1.50131e-10 -4.43799e-10 8.67006e-10)
(-3.42758e-10 -3.93132e-10 8.13038e-10)
(2.73177e-10 -6.73873e-10 1.05421e-09)
(2.12178e-11 -6.77074e-10 1.05311e-09)
(-1.97248e-10 -6.46614e-10 1.02467e-09)
(-4.22104e-10 -5.82047e-10 9.70033e-10)
(3.39726e-10 -9.588e-10 1.20163e-09)
(2.19807e-11 -9.45416e-10 1.19657e-09)
(-2.69296e-10 -9.06931e-10 1.16548e-09)
(-5.57447e-10 -8.43456e-10 1.1093e-09)
(3.99364e-10 -1.3146e-09 1.289e-09)
(1.6489e-11 -1.26981e-09 1.28248e-09)
(-3.51231e-10 -1.2203e-09 1.25029e-09)
(-6.9839e-10 -1.16551e-09 1.19285e-09)
(7.31596e-11 2.60031e-11 5.45828e-11)
(1.55615e-11 -1.55929e-11 6.68302e-11)
(-1.83414e-11 -1.70516e-11 6.37819e-11)
(-5.87186e-11 1.4081e-11 4.5877e-11)
(1.5271e-10 -7.62099e-11 2.04011e-10)
(3.66994e-11 -1.15922e-10 2.2773e-10)
(-4.10204e-11 -1.1314e-10 2.19256e-10)
(-1.32834e-10 -7.07335e-11 1.79906e-10)
(1.71989e-10 -2.21401e-10 3.69525e-10)
(3.85039e-11 -2.38918e-10 3.9575e-10)
(-5.38186e-11 -2.3011e-10 3.82936e-10)
(-1.63206e-10 -1.95423e-10 3.32725e-10)
(1.61998e-10 -3.73765e-10 5.30757e-10)
(2.59551e-11 -3.79163e-10 5.55183e-10)
(-6.56286e-11 -3.63786e-10 5.38874e-10)
(-1.77855e-10 -3.27652e-10 4.83435e-10)
(1.55538e-10 -5.31253e-10 6.80919e-10)
(1.06803e-11 -5.37618e-10 7.01736e-10)
(-8.81469e-11 -5.15516e-10 6.82407e-10)
(-2.08943e-10 -4.65125e-10 6.24402e-10)
(1.83754e-10 -7.0726e-10 8.143e-10)
(4.28801e-12 -7.15267e-10 8.30546e-10)
(-1.33028e-10 -6.8629e-10 8.08556e-10)
(-2.87562e-10 -6.20808e-10 7.49611e-10)
(2.62552e-10 -9.45122e-10 9.15005e-10)
(1.10315e-11 -9.35179e-10 9.26116e-10)
(-2.05784e-10 -8.987e-10 9.02184e-10)
(-4.29551e-10 -8.36259e-10 8.44021e-10)
(3.39551e-10 -1.25533e-09 9.54305e-10)
(1.2009e-11 -1.20692e-09 9.61249e-10)
(-2.89402e-10 -1.15997e-09 9.37057e-10)
(-5.82553e-10 -1.1139e-09 8.81619e-10)
(4.68956e-11 6.53832e-12 3.96415e-11)
(8.40248e-12 -2.59669e-11 4.92945e-11)
(-8.48374e-12 -2.78092e-11 4.70397e-11)
(-2.95237e-11 -7.49992e-12 3.33536e-11)
(1.03433e-10 -1.11686e-10 1.50695e-10)
(2.27355e-11 -1.44061e-10 1.69179e-10)
(-1.7912e-11 -1.42379e-10 1.63078e-10)
(-7.43124e-11 -1.10715e-10 1.33618e-10)
(1.18383e-10 -2.63844e-10 2.80586e-10)
(2.45e-11 -2.7937e-10 3.00797e-10)
(-2.36915e-11 -2.7204e-10 2.91485e-10)
(-9.36004e-11 -2.43385e-10 2.54157e-10)
(1.11355e-10 -4.12548e-10 4.1272e-10)
(1.49251e-11 -4.1943e-10 4.31226e-10)
(-3.17057e-11 -4.05768e-10 4.1914e-10)
(-1.046e-10 -3.72438e-10 3.77948e-10)
(1.09549e-10 -5.55047e-10 5.35143e-10)
(3.16297e-12 -5.64598e-10 5.50615e-10)
(-5.16039e-11 -5.44402e-10 5.3605e-10)
(-1.34261e-10 -4.9524e-10 4.92801e-10)
(1.42802e-10 -7.06392e-10 6.36858e-10)
(1.67873e-13 -7.18535e-10 6.4883e-10)
(-9.45043e-11 -6.91652e-10 6.32124e-10)
(-2.12466e-10 -6.26571e-10 5.87859e-10)
(2.26729e-10 -9.13677e-10 7.03063e-10)
(1.01541e-11 -9.0857e-10 7.11394e-10)
(-1.65759e-10 -8.74348e-10 6.93253e-10)
(-3.54658e-10 -8.11725e-10 6.49223e-10)
(3.08979e-10 -1.19664e-09 7.16994e-10)
(1.41427e-11 -1.15337e-09 7.23063e-10)
(-2.47926e-10 -1.10871e-09 7.04935e-10)
(-5.08269e-10 -1.06217e-09 6.62269e-10)
(3.6213e-11 -1.20085e-12 3.27378e-11)
(5.92257e-12 -2.87565e-11 3.80138e-11)
(-4.57054e-12 -3.09882e-11 3.63929e-11)
(-1.7017e-11 -1.69178e-11 2.82916e-11)
(8.42159e-11 -1.23037e-10 1.17167e-10)
(1.8348e-11 -1.51796e-10 1.26872e-10)
(-8.11684e-12 -1.51279e-10 1.22553e-10)
(-4.92709e-11 -1.26096e-10 1.05232e-10)
(9.94376e-11 -2.7613e-10 2.14867e-10)
(2.14715e-11 -2.91428e-10 2.2479e-10)
(-1.04536e-11 -2.85683e-10 2.18188e-10)
(-6.41696e-11 -2.60887e-10 1.9632e-10)
(9.65872e-11 -4.21426e-10 3.15302e-10)
(1.49386e-11 -4.30216e-10 3.23374e-10)
(-1.64439e-11 -4.1834e-10 3.14717e-10)
(-7.43814e-11 -3.87051e-10 2.90588e-10)
(9.96676e-11 -5.54568e-10 4.07637e-10)
(6.43369e-12 -5.6684e-10 4.13163e-10)
(-3.47216e-11 -5.48539e-10 4.02618e-10)
(-1.04081e-10 -5.00707e-10 3.77146e-10)
(1.3668e-10 -6.92096e-10 4.80989e-10)
(6.05971e-12 -7.0728e-10 4.84029e-10)
(-7.57822e-11 -6.82352e-10 4.71857e-10)
(-1.81547e-10 -6.18275e-10 4.45392e-10)
(2.2196e-10 -8.8419e-10 5.24121e-10)
(1.76156e-11 -8.83101e-10 5.25101e-10)
(-1.44567e-10 -8.50822e-10 5.11877e-10)
(-3.2097e-10 -7.88122e-10 4.8488e-10)
(3.04428e-10 -1.15449e-09 5.28737e-10)
(2.28538e-11 -1.11742e-09 5.29066e-10)
(-2.24204e-10 -1.07459e-09 5.15908e-10)
(-4.70951e-10 -1.02558e-09 4.88927e-10)
(3.27369e-11 -3.86403e-12 2.51412e-11)
(5.54528e-12 -2.92952e-11 2.74288e-11)
(-3.41211e-12 -3.18077e-11 2.63458e-11)
(-1.24382e-11 -2.07178e-11 2.22046e-11)
(7.89285e-11 -1.24443e-10 8.54703e-11)
(1.83123e-11 -1.52055e-10 8.9304e-11)
(-4.87335e-12 -1.52421e-10 8.64321e-11)
(-4.03991e-11 -1.30417e-10 7.76135e-11)
(9.60919e-11 -2.75087e-10 1.53472e-10)
(2.31358e-11 -2.91109e-10 1.5673e-10)
(-5.76032e-12 -2.8662e-10 1.52335e-10)
(-5.41786e-11 -2.63821e-10 1.4123e-10)
(9.6943e-11 -4.16868e-10 2.23e-10)
(1.90772e-11 -4.27478e-10 2.24639e-10)
(-1.06949e-11 -4.17045e-10 2.18844e-10)
(-6.46311e-11 -3.86993e-10 2.06567e-10)
(1.03814e-10 -5.44698e-10 2.86331e-10)
(1.30585e-11 -5.59042e-10 2.86092e-10)
(-2.78803e-11 -5.42263e-10 2.78986e-10)
(-9.45691e-11 -4.95526e-10 2.65879e-10)
(1.43285e-10 -6.75899e-10 3.35324e-10)
(1.45368e-11 -6.93101e-10 3.33479e-10)
(-6.73886e-11 -6.69702e-10 3.25236e-10)
(-1.71078e-10 -6.0674e-10 3.11283e-10)
(2.28706e-10 -8.61866e-10 3.62619e-10)
(2.69736e-11 -8.63376e-10 3.59712e-10)
(-1.33907e-10 -8.32566e-10 3.50739e-10)
(-3.07461e-10 -7.70249e-10 3.36019e-10)
(3.10344e-10 -1.12654e-09 3.64304e-10)
(3.28525e-11 -1.09378e-09 3.61349e-10)
(-2.11269e-10 -1.05231e-09 3.52435e-10)
(-4.53663e-10 -1.00174e-09 3.37312e-10)
(3.17783e-11 -4.55292e-12 1.58312e-11)
(5.70761e-12 -2.91935e-11 1.66574e-11)
(-3.16784e-12 -3.1884e-11 1.60387e-11)
(-1.08582e-11 -2.21041e-11 1.41661e-11)
(7.81335e-11 -1.22832e-10 5.21804e-11)
(1.9222e-11 -1.50322e-10 5.33357e-11)
(-3.98707e-12 -1.51254e-10 5.16963e-11)
(-3.75451e-11 -1.30644e-10 4.77252e-11)
(9.70753e-11 -2.70506e-10 9.22523e-11)
(2.53573e-11 -2.87368e-10 9.27965e-11)
(-4.2912e-12 -2.83708e-10 9.02842e-11)
(-5.12579e-11 -2.61826e-10 8.52953e-11)
(1.00446e-10 -4.09427e-10 1.32857e-10)
(2.29438e-11 -4.21381e-10 1.32337e-10)
(-8.65938e-12 -4.11918e-10 1.29013e-10)
(-6.20608e-11 -3.82545e-10 1.23475e-10)
(1.09727e-10 -5.34465e-10 1.6955e-10)
(1.85267e-11 -5.50169e-10 1.67906e-10)
(-2.51202e-11 -5.34416e-10 1.63813e-10)
(-9.21014e-11 -4.88439e-10 1.57811e-10)
(1.50657e-10 -6.63226e-10 1.97547e-10)
(2.11846e-11 -6.81629e-10 1.95015e-10)
(-6.35288e-11 -6.59254e-10 1.90251e-10)
(-1.6779e-10 -5.97186e-10 1.83685e-10)
(2.36025e-10 -8.47125e-10 2.12788e-10)
(3.41832e-11 -8.50076e-10 2.0975e-10)
(-1.28469e-10 -8.20237e-10 2.04556e-10)
(-3.01972e-10 -7.58458e-10 1.97404e-10)
(3.16991e-10 -1.10926e-09 2.13466e-10)
(4.04637e-11 -1.0789e-09 2.10491e-10)
(-2.04265e-10 -1.03831e-09 2.05332e-10)
(-4.45516e-10 -9.87161e-10 1.97843e-10)
(3.15485e-11 -4.63569e-12 5.39979e-12)
(5.84942e-12 -2.90248e-11 5.59551e-12)
(-3.13717e-12 -3.18015e-11 5.39455e-12)
(-1.0349e-11 -2.25184e-11 4.8609e-12)
(7.82155e-11 -1.21402e-10 1.75481e-11)
(1.9813e-11 -1.4898e-10 1.77664e-11)
(-3.77398e-12 -1.50187e-10 1.72339e-11)
(-3.66888e-11 -1.30096e-10 1.61056e-11)
(9.81068e-11 -2.67251e-10 3.07814e-11)
(2.66193e-11 -2.84614e-10 3.07584e-11)
(-3.86049e-12 -2.81361e-10 2.99415e-11)
(-5.04841e-11 -2.59832e-10 2.85258e-11)
(1.02709e-10 -4.04601e-10 4.41118e-11)
(2.50067e-11 -4.1725e-10 4.37231e-11)
(-7.9676e-12 -4.08268e-10 4.26405e-11)
(-6.14753e-11 -3.79198e-10 4.10634e-11)
(1.13133e-10 -5.2844e-10 5.61049e-11)
(2.13618e-11 -5.44811e-10 5.53448e-11)
(-2.4059e-11 -5.2957e-10 5.40091e-11)
(-9.15282e-11 -4.8398e-10 5.22805e-11)
(1.54745e-10 -6.5644e-10 6.52044e-11)
(2.45955e-11 -6.75401e-10 6.41606e-11)
(-6.19052e-11 -6.53535e-10 6.26033e-11)
(-1.66763e-10 -5.91953e-10 6.06775e-11)
(2.40089e-10 -8.39773e-10 7.01189e-11)
(3.78861e-11 -8.43354e-10 6.89248e-11)
(-1.26059e-10 -8.13997e-10 6.72251e-11)
(-2.9984e-10 -7.52574e-10 6.50871e-11)
(3.2073e-10 -1.1009e-09 7.03085e-11)
(4.43754e-11 -1.07157e-09 6.9143e-11)
(-2.01075e-10 -1.03142e-09 6.74546e-11)
(-4.42063e-10 -9.80143e-10 6.51958e-11)
)
;

boundaryField
{
    interface
    {
        type            calculated;
        value           nonuniform List<vector> 
192
(
(2.15794e-10 3.06835e-10 2.0715e-10)
(3.74021e-10 2.25437e-10 5.17032e-10)
(4.16983e-10 4.25611e-11 7.53594e-10)
(4.12617e-10 -1.45377e-10 9.52884e-10)
(4.05e-10 -3.34776e-10 1.14325e-09)
(4.21295e-10 -5.60164e-10 1.3418e-09)
(4.73039e-10 -8.91188e-10 1.54072e-09)
(5.01458e-10 -1.30636e-09 1.67921e-09)
(1.54908e-10 1.60698e-10 8.32218e-11)
(2.84436e-10 4.61758e-11 2.85487e-10)
(3.17321e-10 -1.21738e-10 4.85185e-10)
(3.09491e-10 -2.91004e-10 6.68156e-10)
(3.01674e-10 -4.60401e-10 8.4109e-10)
(3.24583e-10 -6.51548e-10 1.01035e-09)
(3.99599e-10 -9.27253e-10 1.16521e-09)
(4.65125e-10 -1.30219e-09 1.26351e-09)
(9.50765e-11 8.24707e-11 3.63629e-11)
(1.84697e-10 -5.15027e-11 1.69997e-10)
(2.0769e-10 -2.19079e-10 3.31877e-10)
(1.99784e-10 -3.77879e-10 4.93807e-10)
(1.9487e-10 -5.25815e-10 6.45701e-10)
(2.24949e-10 -6.80507e-10 7.81706e-10)
(3.14986e-10 -9.06173e-10 8.86756e-10)
(4.04039e-10 -1.23773e-09 9.31709e-10)
(6.19902e-11 4.41205e-11 3.0405e-11)
(1.30359e-10 -9.38149e-11 1.33572e-10)
(1.49797e-10 -2.61864e-10 2.62448e-10)
(1.45493e-10 -4.14757e-10 3.96368e-10)
(1.46247e-10 -5.47186e-10 5.21176e-10)
(1.83096e-10 -6.77098e-10 6.2509e-10)
(2.80283e-10 -8.72133e-10 6.92915e-10)
(3.7652e-10 -1.17644e-09 7.08213e-10)
(4.75155e-11 2.89065e-11 2.91982e-11)
(1.07743e-10 -1.07231e-10 1.11041e-10)
(1.27925e-10 -2.73038e-10 2.09294e-10)
(1.2839e-10 -4.21369e-10 3.11699e-10)
(1.34866e-10 -5.44545e-10 4.06203e-10)
(1.76663e-10 -6.61523e-10 4.8111e-10)
(2.76397e-10 -8.42253e-10 5.24615e-10)
(3.73367e-10 -1.13318e-09 5.29079e-10)
(4.20789e-11 2.40524e-11 2.40326e-11)
(1.00275e-10 -1.08604e-10 8.39499e-11)
(1.22641e-10 -2.70584e-10 1.52882e-10)
(1.27248e-10 -4.14938e-10 2.23965e-10)
(1.38109e-10 -5.33113e-10 2.88846e-10)
(1.83098e-10 -6.44677e-10 3.38818e-10)
(2.83587e-10 -8.20102e-10 3.66135e-10)
(3.7969e-10 -1.10478e-09 3.67445e-10)
(4.02595e-11 2.29251e-11 1.55341e-11)
(9.83535e-11 -1.06508e-10 5.20023e-11)
(1.22627e-10 -2.64928e-10 9.27562e-11)
(1.30037e-10 -4.06265e-10 1.34298e-10)
(1.43679e-10 -5.21913e-10 1.7188e-10)
(1.90541e-10 -6.31652e-10 2.00412e-10)
(2.91265e-10 -8.05541e-10 2.15633e-10)
(3.8654e-10 -1.08733e-09 2.16063e-10)
(3.97274e-11 2.28054e-11 5.34236e-12)
(9.79891e-11 -1.04762e-10 1.75687e-11)
(1.23274e-10 -2.61128e-10 3.10393e-11)
(1.32051e-10 -4.00846e-10 4.46775e-11)
(1.47013e-10 -5.15432e-10 5.69566e-11)
(1.94742e-10 -6.24701e-10 6.62267e-11)
(2.95551e-10 -7.98277e-10 7.11349e-11)
(3.90401e-10 -1.07891e-09 7.12433e-11)
(1.72471e-10 3.76492e-10 2.52353e-10)
(3.31812e-10 3.16862e-10 5.73957e-10)
(3.70072e-10 1.44056e-10 8.16388e-10)
(3.59123e-10 -4.42481e-11 1.0192e-09)
(3.46395e-10 -2.40682e-10 1.2098e-09)
(3.60423e-10 -4.79458e-10 1.40317e-09)
(4.07512e-10 -8.30445e-10 1.59595e-09)
(4.40533e-10 -1.26783e-09 1.71922e-09)
(3.63031e-11 3.15212e-10 2.4372e-10)
(7.45147e-11 2.576e-10 5.61017e-10)
(7.48301e-11 1.14982e-10 7.92129e-10)
(5.39988e-11 -5.475e-11 9.81762e-10)
(2.93877e-11 -2.46451e-10 1.15998e-09)
(1.24751e-11 -4.80071e-10 1.34512e-09)
(6.12248e-12 -8.12326e-10 1.54419e-09)
(-4.85195e-12 -1.23411e-09 1.68902e-09)
(-6.53012e-11 3.01257e-10 2.24092e-10)
(-1.4237e-10 2.51935e-10 5.32602e-10)
(-1.81673e-10 1.18898e-10 7.57353e-10)
(-2.07573e-10 -4.21953e-11 9.42189e-10)
(-2.39551e-10 -2.26025e-10 1.11633e-09)
(-2.90341e-10 -4.51836e-10 1.29764e-09)
(-3.64544e-10 -7.7501e-10 1.49299e-09)
(-4.48323e-10 -1.18328e-09 1.63425e-09)
(-1.7885e-10 3.33437e-10 1.94157e-10)
(-3.66787e-10 3.04167e-10 4.86362e-10)
(-4.42831e-10 1.61065e-10 7.08749e-10)
(-4.78083e-10 -2.29245e-12 8.96842e-10)
(-5.21237e-10 -1.76246e-10 1.07512e-09)
(-6.02023e-10 -3.92659e-10 1.25715e-09)
(-7.27389e-10 -7.17427e-10 1.43917e-09)
(-8.49999e-10 -1.11484e-09 1.55376e-09)
(-1.55177e-10 2.89893e-10 1.73198e-10)
(-3.32934e-10 2.38137e-10 4.42865e-10)
(-4.0634e-10 8.6083e-11 6.54404e-10)
(-4.42226e-10 -7.37135e-11 8.35554e-10)
(-4.85272e-10 -2.35974e-10 1.01071e-09)
(-5.63329e-10 -4.33574e-10 1.19518e-09)
(-6.87673e-10 -7.33198e-10 1.38068e-09)
(-7.99547e-10 -1.10554e-09 1.50879e-09)
(-8.94306e-11 1.45773e-10 6.67237e-11)
(-2.23929e-10 5.98983e-11 2.40402e-10)
(-2.76473e-10 -7.93114e-11 4.18661e-10)
(-3.00358e-10 -2.21538e-10 5.85094e-10)
(-3.3594e-10 -3.64333e-10 7.43985e-10)
(-4.13981e-10 -5.28374e-10 9.00512e-10)
(-5.55099e-10 -7.74383e-10 1.04425e-09)
(-6.96826e-10 -1.10939e-09 1.13599e-09)
(-2.6316e-11 6.19688e-11 2.57334e-11)
(-1.11462e-10 -4.46116e-11 1.39931e-10)
(-1.45152e-10 -1.84168e-10 2.85127e-10)
(-1.61016e-10 -3.16216e-10 4.32856e-10)
(-1.92519e-10 -4.37697e-10 5.72276e-10)
(-2.71497e-10 -5.65654e-10 6.97201e-10)
(-4.21825e-10 -7.6251e-10 7.93322e-10)
(-5.81403e-10 -1.05522e-09 8.34088e-10)
(9.30997e-12 1.84589e-11 2.2928e-11)
(-4.84598e-11 -9.46957e-11 1.12726e-10)
(-7.19637e-11 -2.35813e-10 2.29397e-10)
(-8.49123e-11 -3.62273e-10 3.52078e-10)
(-1.16024e-10 -4.68273e-10 4.66584e-10)
(-1.96243e-10 -5.7147e-10 5.61354e-10)
(-3.48688e-10 -7.37773e-10 6.22077e-10)
(-5.10748e-10 -1.0032e-09 6.34367e-10)
(2.55157e-11 -3.45914e-13 2.402e-11)
(-2.02266e-11 -1.14307e-10 9.67532e-11)
(-3.98942e-11 -2.54609e-10 1.86464e-10)
(-5.27076e-11 -3.77072e-10 2.80595e-10)
(-8.47025e-11 -4.73915e-10 3.67222e-10)
(-1.65334e-10 -5.64052e-10 4.35044e-10)
(-3.16135e-10 -7.1577e-10 4.7308e-10)
(-4.75058e-10 -9.67413e-10 4.75275e-10)
(3.20352e-11 -7.50866e-12 2.06647e-11)
(-9.25692e-12 -1.19982e-10 7.46816e-11)
(-2.80902e-11 -2.57763e-10 1.38002e-10)
(-4.16211e-11 -3.76895e-10 2.03486e-10)
(-7.44621e-11 -4.68913e-10 2.62883e-10)
(-1.54856e-10 -5.53516e-10 3.07843e-10)
(-3.03235e-10 -6.99602e-10 3.31268e-10)
(-4.58247e-10 -9.44573e-10 3.30953e-10)
(3.44893e-11 -1.00034e-11 1.36437e-11)
(-5.30337e-12 -1.20544e-10 4.67973e-11)
(-2.42213e-11 -2.55697e-10 8.43713e-11)
(-3.84044e-11 -3.72333e-10 1.22685e-10)
(-7.17252e-11 -4.62006e-10 1.5705e-10)
(-1.51705e-10 -5.44717e-10 1.82606e-10)
(-2.98159e-10 -6.89026e-10 1.95498e-10)
(-4.5035e-10 -9.30783e-10 1.94943e-10)
(3.5312e-11 -1.07591e-11 4.73359e-12)
(-4.00759e-12 -1.20062e-10 1.58914e-11)
(-2.30758e-11 -2.53635e-10 2.83323e-11)
(-3.75917e-11 -3.68936e-10 4.09169e-11)
(-7.11031e-11 -4.57658e-10 5.21371e-11)
(-1.50811e-10 -5.39874e-10 6.04207e-11)
(-2.96267e-10 -6.83748e-10 6.45541e-11)
(-4.47041e-10 -9.24184e-10 6.43325e-11)
(4.36479e-10 -1.34316e-09 1.71203e-09)
(3.94374e-10 -1.35495e-09 1.27479e-09)
(3.3625e-10 -1.29789e-09 9.24814e-10)
(3.08264e-10 -1.24392e-09 6.91784e-10)
(3.05817e-10 -1.20373e-09 5.1121e-10)
(3.13032e-10 -1.17628e-09 3.52996e-10)
(3.20365e-10 -1.15919e-09 2.07058e-10)
(3.24392e-10 -1.15093e-09 6.82202e-11)
(-8.55402e-12 -1.30518e-09 1.68573e-09)
(-7.08585e-12 -1.29477e-09 1.26411e-09)
(-1.18305e-11 -1.23033e-09 9.32139e-10)
(-7.84091e-12 -1.1823e-09 7.00687e-10)
(2.87938e-12 -1.14979e-09 5.14168e-10)
(1.42952e-11 -1.1278e-09 3.51718e-10)
(2.27262e-11 -1.11375e-09 2.04938e-10)
(2.70039e-11 -1.10679e-09 6.73113e-11)
(-4.51907e-10 -1.24321e-09 1.64156e-09)
(-3.77307e-10 -1.2354e-09 1.23304e-09)
(-3.12657e-10 -1.17358e-09 9.09158e-10)
(-2.70729e-10 -1.12783e-09 6.8359e-10)
(-2.47165e-10 -1.09712e-09 5.01807e-10)
(-2.3428e-10 -1.07646e-09 3.43363e-10)
(-2.272e-10 -1.06326e-09 2.00109e-10)
(-2.23933e-10 -1.05672e-09 6.57322e-11)
(-8.5386e-10 -1.15536e-09 1.58003e-09)
(-7.40148e-10 -1.17334e-09 1.18194e-09)
(-6.23412e-10 -1.12393e-09 8.55783e-10)
(-5.4939e-10 -1.07681e-09 6.40187e-10)
(-5.12291e-10 -1.04206e-09 4.7382e-10)
(-4.94891e-10 -1.01861e-09 3.27707e-10)
(-4.86495e-10 -1.00411e-09 1.92444e-10)
(-4.82865e-10 -9.97138e-10 6.34414e-11)
)
;
    }
    symmetry
    {
        type            symmetry;
    }
    bottom
    {
        type            calculated;
        value           uniform (0 0 0);
    }
}


// ************************************************************************* //
