/*--------------------------------*- C++ -*----------------------------------*\
| =========                 |                                                 |
| \\      /  F ield         | OpenFOAM: The Open Source CFD Toolbox           |
|  \\    /   O peration     | Version:  v1912                                 |
|   \\  /    A nd           | Website:  www.openfoam.com                      |
|    \\/     M anipulation  |                                                 |
\*---------------------------------------------------------------------------*/
FoamFile
{
    version     2.0;
    format      ascii;
    class       volVectorField;
    location    "1/solid";
    object      DD_0_0;
}
// * * * * * * * * * * * * * * * * * * * * * * * * * * * * * * * * * * * * * //

dimensions      [0 1 0 0 0 0 0];


internalField   nonuniform List<vector> 
256
(
(1.6929e-10 1.88174e-10 2.25026e-10)
(4.03191e-11 1.27771e-10 2.21662e-10)
(-5.9521e-11 1.21222e-10 2.12382e-10)
(-1.67773e-10 1.67077e-10 1.97494e-10)
(3.26572e-10 1.78636e-10 5.48784e-10)
(8.30527e-11 1.20809e-10 5.4155e-10)
(-1.29637e-10 1.19251e-10 5.22e-10)
(-3.43335e-10 1.78197e-10 4.90204e-10)
(3.66015e-10 3.43858e-11 7.88657e-10)
(8.71952e-11 8.68065e-12 7.74241e-10)
(-1.65362e-10 1.50067e-11 7.48545e-10)
(-4.13397e-10 5.85663e-11 7.11458e-10)
(3.57926e-10 -1.43021e-10 9.88127e-10)
(7.0161e-11 -1.49638e-10 9.64561e-10)
(-1.89261e-10 -1.35491e-10 9.34479e-10)
(-4.45727e-10 -9.63392e-11 8.97636e-10)
(3.4902e-10 -3.40173e-10 1.17819e-09)
(4.94889e-11 -3.4317e-10 1.14512e-09)
(-2.19868e-10 -3.2157e-10 1.11135e-09)
(-4.87412e-10 -2.72266e-10 1.07654e-09)
(3.67968e-10 -5.81854e-10 1.376e-09)
(3.63578e-11 -5.83359e-10 1.33597e-09)
(-2.69119e-10 -5.54219e-10 1.29873e-09)
(-5.67876e-10 -4.9242e-10 1.26391e-09)
(4.20919e-10 -9.20505e-10 1.573e-09)
(3.22171e-11 -9.07876e-10 1.53575e-09)
(-3.40072e-10 -8.70065e-10 1.49511e-09)
(-6.93791e-10 -8.06205e-10 1.45089e-09)
(4.59391e-10 -1.32893e-09 1.70828e-09)
(2.12231e-11 -1.29722e-09 1.68399e-09)
(-4.18915e-10 -1.24708e-09 1.64063e-09)
(-8.16974e-10 -1.17812e-09 1.57861e-09)
(1.214e-10 7.17658e-11 1.06998e-10)
(2.86274e-11 1.80614e-11 1.1482e-10)
(-3.66789e-11 1.6115e-11 1.10446e-10)
(-1.11629e-10 6.04737e-11 9.41281e-11)
(2.42085e-10 8.43562e-12 3.29595e-10)
(6.19433e-11 -4.17894e-11 3.44554e-10)
(-8.14996e-11 -3.94163e-11 3.32586e-10)
(-2.36289e-10 1.54067e-11 2.94803e-10)
(2.71488e-10 -1.28658e-10 5.35643e-10)
(6.55457e-11 -1.50212e-10 5.50561e-10)
(-1.04947e-10 -1.41469e-10 5.33201e-10)
(-2.85262e-10 -1.00581e-10 4.84956e-10)
(2.61574e-10 -2.89794e-10 7.20373e-10)
(5.09663e-11 -2.95154e-10 7.31554e-10)
(-1.2209e-10 -2.79549e-10 7.10229e-10)
(-3.07059e-10 -2.41245e-10 6.57717e-10)
(2.53174e-10 -4.6877e-10 8.94035e-10)
(3.31929e-11 -4.73096e-10 8.9987e-10)
(-1.47972e-10 -4.50574e-10 8.75201e-10)
(-3.41927e-10 -4.00073e-10 8.21221e-10)
(2.77311e-10 -6.80194e-10 1.06239e-09)
(2.39567e-11 -6.85283e-10 1.06257e-09)
(-1.94519e-10 -6.55682e-10 1.03483e-09)
(-4.21052e-10 -5.90952e-10 9.80271e-10)
(3.4742e-10 -9.67428e-10 1.21179e-09)
(2.66024e-11 -9.55693e-10 1.20808e-09)
(-2.66525e-10 -9.18263e-10 1.17774e-09)
(-5.58054e-10 -8.55237e-10 1.12167e-09)
(4.12366e-10 -1.32856e-09 1.29998e-09)
(2.341e-11 -1.28328e-09 1.29487e-09)
(-3.48527e-10 -1.23504e-09 1.26345e-09)
(-7.02107e-10 -1.18322e-09 1.20611e-09)
(7.35045e-11 2.60394e-11 5.47251e-11)
(1.54757e-11 -1.627e-11 6.7492e-11)
(-1.81886e-11 -1.77459e-11 6.45205e-11)
(-5.91033e-11 1.40659e-11 4.62416e-11)
(1.53005e-10 -7.77217e-11 2.05335e-10)
(3.65215e-11 -1.18049e-10 2.30095e-10)
(-4.04876e-11 -1.15433e-10 2.21828e-10)
(-1.32992e-10 -7.27365e-11 1.81827e-10)
(1.71944e-10 -2.24388e-10 3.72286e-10)
(3.83423e-11 -2.42315e-10 3.9977e-10)
(-5.2768e-11 -2.33837e-10 3.8727e-10)
(-1.62521e-10 -1.99403e-10 3.36394e-10)
(1.61772e-10 -3.78014e-10 5.3493e-10)
(2.59594e-11 -3.84012e-10 5.60721e-10)
(-6.39081e-11 -3.69129e-10 5.44812e-10)
(-1.76156e-10 -3.33385e-10 4.88773e-10)
(1.55533e-10 -5.36648e-10 6.86511e-10)
(1.11069e-11 -5.44162e-10 7.08779e-10)
(-8.56964e-11 -5.22718e-10 6.89922e-10)
(-2.06313e-10 -4.72489e-10 6.31377e-10)
(1.84935e-10 -7.13497e-10 8.2126e-10)
(5.6348e-12 -7.2331e-10 8.39052e-10)
(-1.30021e-10 -6.9516e-10 8.17592e-10)
(-2.84652e-10 -6.29518e-10 7.58136e-10)
(2.67007e-10 -9.52505e-10 9.22819e-10)
(1.4112e-11 -9.44145e-10 9.35567e-10)
(-2.027e-10 -9.08684e-10 9.12206e-10)
(-4.28132e-10 -8.46671e-10 8.53529e-10)
(3.49011e-10 -1.26654e-09 9.61649e-10)
(1.72482e-11 -1.21764e-09 9.7026e-10)
(-2.86338e-10 -1.17191e-09 9.46645e-10)
(-5.84048e-10 -1.12872e-09 8.90691e-10)
(4.68253e-11 6.34093e-12 3.9907e-11)
(8.17906e-12 -2.6636e-11 4.98878e-11)
(-8.26321e-12 -2.84846e-11 4.76886e-11)
(-2.95772e-11 -7.68768e-12 3.37772e-11)
(1.02988e-10 -1.13542e-10 1.52027e-10)
(2.22312e-11 -1.46331e-10 1.71151e-10)
(-1.72862e-11 -1.44783e-10 1.65199e-10)
(-7.39767e-11 -1.12941e-10 1.35372e-10)
(1.17524e-10 -2.67204e-10 2.83199e-10)
(2.39145e-11 -2.83036e-10 3.04176e-10)
(-2.26197e-11 -2.75998e-10 2.95091e-10)
(-9.25099e-11 -2.47596e-10 2.57419e-10)
(1.10301e-10 -4.17038e-10 4.16613e-10)
(1.44463e-11 -4.24458e-10 4.3595e-10)
(-3.00645e-11 -4.11248e-10 4.24157e-10)
(-1.02636e-10 -3.78268e-10 3.82688e-10)
(1.08691e-10 -5.60356e-10 5.40218e-10)
(3.04893e-12 -5.7099e-10 5.56579e-10)
(-4.93165e-11 -5.51408e-10 5.42365e-10)
(-1.31481e-10 -5.02376e-10 4.98899e-10)
(1.43058e-10 -7.12052e-10 6.4285e-10)
(8.97583e-13 -7.25914e-10 6.55781e-10)
(-9.17057e-11 -6.99813e-10 6.39473e-10)
(-2.09455e-10 -6.34561e-10 5.95023e-10)
(2.30059e-10 -9.19947e-10 7.09354e-10)
(1.25e-11 -9.16386e-10 7.18724e-10)
(-1.6287e-10 -8.83133e-10 7.01013e-10)
(-3.53044e-10 -8.20878e-10 6.5679e-10)
(3.1697e-10 -1.20629e-09 7.2266e-10)
(1.85161e-11 -1.16271e-09 7.29836e-10)
(-2.45025e-10 -1.11922e-09 7.12135e-10)
(-5.09328e-10 -1.07528e-09 6.69225e-10)
(3.60854e-11 -1.44951e-12 3.30532e-11)
(5.6929e-12 -2.93821e-11 3.84851e-11)
(-4.38176e-12 -3.16103e-11 3.69037e-11)
(-1.70654e-11 -1.71114e-11 2.87169e-11)
(8.36884e-11 -1.24936e-10 1.18377e-10)
(1.77998e-11 -1.54027e-10 1.28381e-10)
(-7.58772e-12 -1.53615e-10 1.24166e-10)
(-4.90086e-11 -1.28263e-10 1.06735e-10)
(9.84996e-11 -2.79508e-10 2.17095e-10)
(2.0803e-11 -2.95064e-10 2.27375e-10)
(-9.55718e-12 -2.89571e-10 2.20933e-10)
(-6.32695e-11 -2.64987e-10 1.99001e-10)
(9.54585e-11 -4.25816e-10 3.18534e-10)
(1.43407e-11 -4.35106e-10 3.26996e-10)
(-1.50614e-11 -4.23639e-10 3.18548e-10)
(-7.27297e-11 -3.92644e-10 2.94419e-10)
(9.87346e-11 -5.59549e-10 4.11739e-10)
(6.16367e-12 -5.72855e-10 4.17689e-10)
(-3.27679e-11 -5.55125e-10 4.07397e-10)
(-1.01724e-10 -5.0738e-10 3.8198e-10)
(1.36829e-10 -6.97175e-10 4.85666e-10)
(6.58332e-12 -7.14014e-10 4.89176e-10)
(-7.33679e-11 -6.89824e-10 4.77294e-10)
(-1.79025e-10 -6.25552e-10 4.50916e-10)
(2.25051e-10 -8.89723e-10 5.28883e-10)
(1.96724e-11 -8.90149e-10 5.30394e-10)
(-1.42071e-10 -8.58796e-10 5.17481e-10)
(-3.19805e-10 -7.96404e-10 4.90568e-10)
(3.1195e-10 -1.16328e-09 5.33025e-10)
(2.6845e-11 -1.12602e-09 5.33945e-10)
(-2.21689e-10 -1.08433e-09 5.21096e-10)
(-4.72315e-10 -1.0377e-09 4.94149e-10)
(3.26287e-11 -4.11967e-12 2.54123e-11)
(5.33637e-12 -2.98941e-11 2.77689e-11)
(-3.26455e-12 -3.23959e-11 2.67119e-11)
(-1.25373e-11 -2.08877e-11 2.25468e-11)
(7.84603e-11 -1.2629e-10 8.64083e-11)
(1.77902e-11 -1.54208e-10 9.0371e-11)
(-4.45336e-12 -1.54657e-10 8.75683e-11)
(-4.02917e-11 -1.3246e-10 7.87429e-11)
(9.5234e-11 -2.78345e-10 1.55134e-10)
(2.2478e-11 -2.94606e-10 1.58545e-10)
(-5.03509e-12 -2.90339e-10 1.54256e-10)
(-5.35291e-11 -2.67707e-10 1.4319e-10)
(9.59e-11 -4.21043e-10 2.25359e-10)
(1.84663e-11 -4.3213e-10 2.27168e-10)
(-9.54334e-12 -4.22073e-10 2.21512e-10)
(-6.3317e-11 -3.92265e-10 2.09321e-10)
(1.02964e-10 -5.49341e-10 2.89264e-10)
(1.27482e-11 -5.64685e-10 2.89217e-10)
(-2.62126e-11 -5.48441e-10 2.8228e-10)
(-9.26277e-11 -5.01752e-10 2.693e-10)
(1.43491e-10 -6.80545e-10 3.386e-10)
(1.49838e-11 -6.99355e-10 3.36977e-10)
(-6.53012e-11 -6.7666e-10 3.28929e-10)
(-1.69024e-10 -6.13477e-10 3.15129e-10)
(2.31769e-10 -8.66944e-10 3.65911e-10)
(2.88979e-11 -8.6994e-10 3.63267e-10)
(-1.31754e-10 -8.40021e-10 3.54505e-10)
(-3.0675e-10 -7.77971e-10 3.39937e-10)
(3.17697e-10 -1.13482e-09 3.67285e-10)
(3.66503e-11 -1.10193e-09 3.64633e-10)
(-2.09106e-10 -1.06155e-09 3.55926e-10)
(-4.55408e-10 -1.01325e-09 3.40924e-10)
(3.16876e-11 -4.80448e-12 1.60082e-11)
(5.51359e-12 -2.97745e-11 1.68652e-11)
(-3.04561e-12 -3.24497e-11 1.62613e-11)
(-1.09921e-11 -2.22509e-11 1.43835e-11)
(7.77129e-11 -1.24617e-10 5.27672e-11)
(1.87219e-11 -1.52402e-10 5.39778e-11)
(-3.63515e-12 -1.53403e-10 5.23778e-11)
(-3.75397e-11 -1.32579e-10 4.84199e-11)
(9.62799e-11 -2.73638e-10 9.32691e-11)
(2.47138e-11 -2.9073e-10 9.38788e-11)
(-3.67279e-12 -2.87273e-10 9.14268e-11)
(-5.07705e-11 -2.65523e-10 8.64801e-11)
(9.9468e-11 -4.1341e-10 1.34277e-10)
(2.23319e-11 -4.25827e-10 1.33832e-10)
(-7.65164e-12 -4.16717e-10 1.30587e-10)
(-6.09623e-11 -3.87555e-10 1.2512e-10)
(1.08936e-10 -5.38857e-10 1.71292e-10)
(1.81962e-11 -5.5554e-10 1.69735e-10)
(-2.36308e-11 -5.40299e-10 1.65739e-10)
(-9.0423e-11 -4.94342e-10 1.59833e-10)
(1.50902e-10 -6.67596e-10 1.99473e-10)
(2.15865e-11 -6.87577e-10 1.97044e-10)
(-6.16471e-11 -6.65881e-10 1.92393e-10)
(-1.66031e-10 -6.03574e-10 1.85938e-10)
(2.39075e-10 -8.51933e-10 2.14712e-10)
(3.60272e-11 -8.56347e-10 2.11803e-10)
(-1.26537e-10 -8.27376e-10 2.06731e-10)
(-3.01553e-10 -7.65842e-10 1.9969e-10)
(3.24247e-10 -1.11723e-09 2.15215e-10)
(4.41434e-11 -1.08676e-09 2.12389e-10)
(-2.02332e-10 -1.04725e-09 2.0735e-10)
(-4.47515e-10 -9.98294e-10 1.99955e-10)
(3.14648e-11 -4.88235e-12 5.46062e-12)
(5.6616e-12 -2.95956e-11 5.6657e-12)
(-3.02561e-12 -3.2355e-11 5.4696e-12)
(-1.04977e-11 -2.26518e-11 4.93512e-12)
(7.78142e-11 -1.23147e-10 1.77471e-11)
(1.93219e-11 -1.51019e-10 1.79816e-11)
(-3.45146e-12 -1.52288e-10 1.74618e-11)
(-3.67274e-11 -1.31971e-10 1.63395e-11)
(9.73372e-11 -2.70309e-10 3.11228e-11)
(2.59808e-11 -2.87898e-10 3.11188e-11)
(-3.28929e-12 -2.84837e-10 3.03215e-11)
(-5.0068e-11 -2.63425e-10 2.89216e-11)
(1.01756e-10 -4.08478e-10 4.4585e-11)
(2.43921e-11 -4.21583e-10 4.42181e-11)
(-7.02446e-12 -4.12943e-10 4.31613e-11)
(-6.04731e-11 -3.84067e-10 4.16096e-11)
(1.12364e-10 -5.32704e-10 5.66817e-11)
(2.10185e-11 -5.50043e-10 5.59474e-11)
(-2.26507e-11 -5.35301e-10 5.46434e-11)
(-8.9968e-11 -4.89719e-10 5.29483e-11)
(1.55002e-10 -6.60676e-10 6.58385e-11)
(2.49719e-11 -6.81199e-10 6.48263e-11)
(-6.0118e-11 -6.6e-10 6.33059e-11)
(-1.65137e-10 -5.98171e-10 6.14186e-11)
(2.43125e-10 -8.44455e-10 7.07513e-11)
(3.96873e-11 -8.49485e-10 6.95967e-11)
(-1.24229e-10 -8.20984e-10 6.79369e-11)
(-2.99554e-10 -7.59795e-10 6.58377e-11)
(3.27932e-10 -1.10874e-09 7.0884e-11)
(4.79939e-11 -1.0793e-09 6.97648e-11)
(-1.9925e-10 -1.04021e-09 6.81155e-11)
(-4.44179e-10 -9.91098e-10 6.58902e-11)
)
;

boundaryField
{
    interface
    {
        type            calculated;
        value           nonuniform List<vector> 
192
(
(2.1888e-10 3.1214e-10 2.09625e-10)
(3.79695e-10 2.27817e-10 5.2183e-10)
(4.22979e-10 4.22235e-11 7.59553e-10)
(4.18698e-10 -1.4727e-10 9.59939e-10)
(4.11599e-10 -3.37663e-10 1.15175e-09)
(4.29427e-10 -5.63879e-10 1.35245e-09)
(4.84856e-10 -8.97649e-10 1.55471e-09)
(5.19185e-10 -1.32139e-09 1.69665e-09)
(1.55542e-10 1.62637e-10 8.30523e-11)
(2.85873e-10 4.59572e-11 2.86204e-10)
(3.18515e-10 -1.23786e-10 4.87126e-10)
(3.10505e-10 -2.94373e-10 6.71335e-10)
(3.02901e-10 -4.64837e-10 8.45663e-10)
(3.2691e-10 -6.56633e-10 1.01663e-09)
(4.05244e-10 -9.33664e-10 1.17331e-09)
(4.7726e-10 -1.31446e-09 1.27238e-09)
(9.43117e-11 8.26668e-11 3.60815e-11)
(1.83882e-10 -5.3112e-11 1.70562e-10)
(2.06417e-10 -2.22196e-10 3.33795e-10)
(1.98252e-10 -3.82118e-10 4.97112e-10)
(1.93455e-10 -5.30858e-10 6.50391e-10)
(2.24489e-10 -6.85629e-10 7.87697e-10)
(3.17626e-10 -9.11487e-10 8.93479e-10)
(4.12805e-10 -1.24735e-09 9.378e-10)
(6.08401e-11 4.37943e-11 3.05524e-11)
(1.28924e-10 -9.5868e-11 1.34698e-10)
(1.47857e-10 -2.65376e-10 2.64838e-10)
(1.4329e-10 -4.19248e-10 4.00035e-10)
(1.44156e-10 -5.52167e-10 5.26019e-10)
(1.81929e-10 -6.8171e-10 6.30824e-10)
(2.8207e-10 -8.7647e-10 6.98865e-10)
(3.84004e-10 -1.18459e-09 7.13395e-10)
(4.63255e-11 2.8494e-11 2.95042e-11)
(1.06258e-10 -1.09333e-10 1.12245e-10)
(1.25952e-10 -2.76566e-10 2.11522e-10)
(1.26167e-10 -4.25758e-10 3.14934e-10)
(1.32767e-10 -5.49207e-10 4.10307e-10)
(1.75476e-10 -6.65597e-10 4.85774e-10)
(2.78059e-10 -8.45943e-10 5.29311e-10)
(3.80431e-10 -1.14053e-09 5.33207e-10)
(4.09247e-11 2.36527e-11 2.43129e-11)
(9.88674e-11 -1.10639e-10 8.49146e-11)
(1.20774e-10 -2.73986e-10 1.54579e-10)
(1.25145e-10 -4.19111e-10 2.26361e-10)
(1.36136e-10 -5.37444e-10 2.91814e-10)
(1.82023e-10 -6.48345e-10 3.42118e-10)
(2.85289e-10 -8.23393e-10 3.69417e-10)
(3.86607e-10 -1.11166e-09 3.7036e-10)
(3.91291e-11 2.25457e-11 1.57173e-11)
(9.70091e-11 -1.08469e-10 5.26058e-11)
(1.20844e-10 -2.682e-10 9.3795e-11)
(1.28026e-10 -4.10247e-10 1.35741e-10)
(1.41797e-10 -5.25999e-10 1.73642e-10)
(1.89544e-10 -6.35062e-10 2.0235e-10)
(2.92997e-10 -8.08597e-10 2.17551e-10)
(3.93377e-10 -1.09392e-09 2.17774e-10)
(3.86216e-11 2.24375e-11 5.40494e-12)
(9.66745e-11 -1.06679e-10 1.77725e-11)
(1.21528e-10 -2.64324e-10 3.13871e-11)
(1.3008e-10 -4.04722e-10 4.51571e-11)
(1.45169e-10 -5.19394e-10 5.75388e-11)
(1.93776e-10 -6.27986e-10 6.68635e-11)
(2.97292e-10 -8.01223e-10 7.17638e-11)
(3.97192e-10 -1.08537e-09 7.18051e-11)
(1.76148e-10 3.81627e-10 2.54427e-10)
(3.38239e-10 3.19544e-10 5.78815e-10)
(3.76962e-10 1.44222e-10 8.22505e-10)
(3.66127e-10 -4.56375e-11 1.02649e-09)
(3.53972e-10 -2.43205e-10 1.21855e-09)
(3.69736e-10 -4.8315e-10 1.41393e-09)
(4.20752e-10 -8.37435e-10 1.60989e-09)
(4.59136e-10 -1.2839e-09 1.73724e-09)
(3.71571e-11 3.18574e-10 2.4493e-10)
(7.63548e-11 2.58954e-10 5.64526e-10)
(7.71655e-11 1.14434e-10 7.96762e-10)
(5.67476e-11 -5.69173e-11 9.87455e-10)
(3.27783e-11 -2.50316e-10 1.16693e-09)
(1.70404e-11 -4.85702e-10 1.3538e-09)
(1.27438e-11 -8.20869e-10 1.55597e-09)
(4.31282e-12 -1.25013e-09 1.70601e-09)
(-6.55643e-11 3.04817e-10 2.25491e-10)
(-1.42476e-10 2.53293e-10 5.36547e-10)
(-1.8106e-10 1.18127e-10 7.62589e-10)
(-2.05994e-10 -4.47888e-11 9.48599e-10)
(-2.37015e-10 -2.30506e-10 1.12404e-09)
(-2.87135e-10 -4.58279e-10 1.30719e-09)
(-3.61286e-10 -7.84588e-10 1.50572e-09)
(-4.45262e-10 -1.20057e-09 1.65224e-09)
(-1.82096e-10 3.39002e-10 1.96748e-10)
(-3.7178e-10 3.06689e-10 4.92501e-10)
(-4.47121e-10 1.60425e-10 7.16651e-10)
(-4.81125e-10 -5.06816e-12 9.06267e-10)
(-5.23268e-10 -1.80695e-10 1.08628e-09)
(-6.03956e-10 -3.9883e-10 1.27057e-09)
(-7.31155e-10 -7.2753e-10 1.45596e-09)
(-8.56796e-10 -1.1347e-09 1.57472e-09)
(-1.57785e-10 2.94854e-10 1.76295e-10)
(-3.37337e-10 2.39603e-10 4.49218e-10)
(-4.10059e-10 8.41652e-11 6.6256e-10)
(-4.44779e-10 -7.78341e-11 8.45268e-10)
(-4.86841e-10 -2.41727e-10 1.02224e-09)
(-5.64659e-10 -4.40824e-10 1.20917e-09)
(-6.90614e-10 -7.43929e-10 1.39828e-09)
(-8.05986e-10 -1.12557e-09 1.52998e-09)
(-8.98274e-11 1.47453e-10 6.69605e-11)
(-2.24739e-10 5.8815e-11 2.42217e-10)
(-2.7632e-10 -8.28877e-11 4.22236e-10)
(-2.98992e-10 -2.27078e-10 5.90323e-10)
(-3.33463e-10 -3.71573e-10 7.50946e-10)
(-4.11e-10 -5.36919e-10 9.09464e-10)
(-5.53497e-10 -7.84972e-10 1.05525e-09)
(-6.99406e-10 -1.12656e-09 1.14788e-09)
(-2.54904e-11 6.20896e-11 2.57283e-11)
(-1.10436e-10 -4.68819e-11 1.41248e-10)
(-1.43165e-10 -1.88612e-10 2.88205e-10)
(-1.57927e-10 -3.22436e-10 4.37666e-10)
(-1.8838e-10 -4.45364e-10 5.78765e-10)
(-2.66822e-10 -5.74062e-10 7.05236e-10)
(-4.18454e-10 -7.71821e-10 8.02276e-10)
(-5.81979e-10 -1.06955e-09 8.42495e-10)
(1.04056e-11 1.82006e-11 2.32675e-11)
(-4.70832e-11 -9.72076e-11 1.14375e-10)
(-6.97403e-11 -2.40431e-10 2.32605e-10)
(-8.17372e-11 -3.68524e-10 3.5683e-10)
(-1.11931e-10 -4.7567e-10 4.72751e-10)
(-1.91711e-10 -5.79169e-10 5.68615e-10)
(-3.45408e-10 -7.45909e-10 6.29707e-10)
(-5.11093e-10 -1.01585e-09 6.41291e-10)
(2.65736e-11 -5.9302e-13 2.44567e-11)
(-1.89771e-11 -1.16712e-10 9.83132e-11)
(-3.79246e-11 -2.59056e-10 1.89255e-10)
(-4.99121e-11 -3.8303e-10 2.84588e-10)
(-8.1114e-11 -4.80805e-10 3.72266e-10)
(-1.61395e-10 -5.7103e-10 4.40807e-10)
(-3.13432e-10 -7.23081e-10 4.78994e-10)
(-4.75773e-10 -9.79089e-10 4.80668e-10)
(3.30072e-11 -7.6806e-12 2.10284e-11)
(-8.19687e-12 -1.22212e-10 7.58752e-11)
(-2.64123e-11 -2.6195e-10 1.40064e-10)
(-3.92122e-11 -3.8249e-10 2.06379e-10)
(-7.13447e-11 -4.75324e-10 2.66474e-10)
(-1.51451e-10 -5.59945e-10 3.1188e-10)
(-3.01064e-10 -7.06374e-10 3.35373e-10)
(-4.59373e-10 -9.55637e-10 3.34724e-10)
(3.54001e-11 -1.0118e-11 1.38735e-11)
(-4.37154e-12 -1.22634e-10 4.75285e-11)
(-2.27361e-11 -2.59667e-10 8.56145e-11)
(-3.62463e-11 -3.77641e-10 1.24409e-10)
(-6.89101e-11 -4.68074e-10 1.59168e-10)
(-1.4864e-10 -5.5079e-10 1.84966e-10)
(-2.96331e-10 -6.9547e-10 1.9789e-10)
(-4.51752e-10 -9.41475e-10 1.97148e-10)
(3.61938e-11 -1.08457e-11 4.81149e-12)
(-3.13381e-12 -1.22078e-10 1.61364e-11)
(-2.16784e-11 -2.57488e-10 2.87459e-11)
(-3.55483e-11 -3.74091e-10 4.14872e-11)
(-6.84268e-11 -4.63552e-10 5.28345e-11)
(-1.47902e-10 -5.45774e-10 6.11952e-11)
(-2.94597e-10 -6.90034e-10 6.53379e-11)
(-4.48571e-10 -9.34699e-10 6.50559e-11)
(4.55236e-10 -1.35893e-09 1.7307e-09)
(4.08099e-10 -1.36733e-09 1.28438e-09)
(3.4638e-10 -1.30777e-09 9.31082e-10)
(3.16927e-10 -1.25246e-09 6.96847e-10)
(3.14013e-10 -1.21147e-09 5.15156e-10)
(3.21056e-10 -1.18353e-09 3.55772e-10)
(3.28286e-10 -1.16614e-09 2.08694e-10)
(3.32254e-10 -1.15775e-09 6.87595e-11)
(7.59869e-13 -1.32022e-09 1.70406e-09)
(3.05857e-14 -1.3053e-09 1.27497e-09)
(-6.40901e-12 -1.23847e-09 9.40116e-10)
(-3.25395e-12 -1.18943e-09 7.06932e-10)
(7.10465e-12 -1.15634e-09 5.18751e-10)
(1.83336e-11 -1.13399e-09 3.54818e-10)
(2.66464e-11 -1.11969e-09 2.06731e-10)
(3.08616e-11 -1.11262e-09 6.78984e-11)
(-4.4869e-10 -1.25954e-09 1.66088e-09)
(-3.73543e-10 -1.2472e-09 1.24466e-09)
(-3.08568e-10 -1.18295e-09 9.17687e-10)
(-2.66884e-10 -1.13614e-09 6.90239e-10)
(-2.43772e-10 -1.10482e-09 5.0668e-10)
(-2.31279e-10 -1.08375e-09 3.46657e-10)
(-2.24451e-10 -1.07029e-09 2.02014e-10)
(-2.21302e-10 -1.06363e-09 6.63557e-11)
(-8.6049e-10 -1.17499e-09 1.60159e-09)
(-7.43394e-10 -1.18952e-09 1.19376e-09)
(-6.24433e-10 -1.13749e-09 8.63704e-10)
(-5.50026e-10 -1.08888e-09 6.46469e-10)
(-5.1328e-10 -1.05321e-09 4.78641e-10)
(-4.96292e-10 -1.02916e-09 3.31072e-10)
(-4.88167e-10 -1.01431e-09 1.94418e-10)
(-4.84659e-10 -1.00717e-09 6.40911e-11)
)
;
    }
    symmetry
    {
        type            symmetry;
    }
    bottom
    {
        type            calculated;
        value           uniform (0 0 0);
    }
}


// ************************************************************************* //
