/*--------------------------------*- C++ -*----------------------------------*\
| =========                 |                                                 |
| \\      /  F ield         | OpenFOAM: The Open Source CFD Toolbox           |
|  \\    /   O peration     | Version:  v1912                                 |
|   \\  /    A nd           | Website:  www.openfoam.com                      |
|    \\/     M anipulation  |                                                 |
\*---------------------------------------------------------------------------*/
FoamFile
{
    version     2.0;
    format      ascii;
    class       volVectorField;
    location    "1/solid";
    object      heatFlux;
}
// * * * * * * * * * * * * * * * * * * * * * * * * * * * * * * * * * * * * * //

dimensions      [1 0 -3 0 0 0 0];


internalField   nonuniform List<vector> 
256
(
(-62221.8 77648.9 -65142.3)
(-13448.9 47865.2 -64507.3)
(11453.5 47127.8 -62974.6)
(53715.3 73895.4 -60720.2)
(-57938.6 13523.7 -61342.4)
(-17072.2 9308.36 -64193.4)
(14576.6 9190.98 -62627.3)
(49056.7 13031.4 -56972.7)
(-58874.4 3463.3 -62447.9)
(-17781.7 2307.21 -65848.2)
(15176.6 2272.17 -64225.1)
(49820.7 3322.3 -57946.6)
(-60659.9 3005.39 -64268)
(-18263.4 1914.54 -67925.4)
(15591.7 1892.63 -66258.7)
(51424.1 2906.29 -59654.7)
(-63074 4941.44 -66676)
(-18894.4 3456.15 -70745)
(16168.3 3435.36 -69043)
(53655.9 4849.58 -61973.3)
(-66223.9 11052.2 -69829.1)
(-19769.4 9366.14 -74728.1)
(16985.1 9310.58 -72992.2)
(56621.5 10877.1 -65042.1)
(-68487.6 30020.3 -72178.2)
(-20636.1 30217.1 -78482.2)
(17679.3 29900 -76716.8)
(58638.7 29159.3 -67325.2)
(-61467.3 65462.5 -65317)
(-19889.8 72609.1 -72491.4)
(15927.3 70934.2 -70834.2)
(51115 60885.1 -60801.5)
(-60298.1 43892.2 -18812)
(-12408.4 15399.7 -16812.3)
(11195.4 15125.8 -16580.1)
(52270.8 41438.9 -18136.9)
(-59862 8523.25 -24689)
(-16358 3829.48 -22841.5)
(14843.7 3781.22 -22542.2)
(51570.2 8209.72 -23833.3)
(-61385.6 2175.15 -25785.6)
(-17150.5 881.117 -24006.2)
(15575.7 867.339 -23690)
(52929.8 2085.13 -24888.5)
(-63442.9 1881.01 -26395.4)
(-17665.8 668.445 -24647.1)
(16047.7 657.859 -24323)
(54800.2 1805.71 -25481.2)
(-66301.8 3412.09 -27164.2)
(-18373.6 1643.04 -25501)
(16712.9 1629.52 -25172.7)
(57459.1 3330.03 -26245.7)
(-70356.9 9201.43 -28268.4)
(-19448.4 6875.53 -26847.5)
(17734.7 6823.75 -26517)
(61296.8 9023.19 -27355.6)
(-74220.5 29688 -29627.5)
(-20751.3 28817.8 -28788.4)
(18860.6 28480.7 -28458.7)
(64871.3 28755.4 -28732.6)
(-68577.7 72389.7 -29946.5)
(-20655.7 78660.1 -30176.2)
(17672.3 76868.5 -29868.6)
(58661.9 67452 -29129)
(-54738.2 34147.9 -5385.53)
(-11217 8211.35 -3410.08)
(10129 8005.49 -3376.89)
(47003.7 31925.2 -5255.6)
(-55266.3 6550.13 -7587.25)
(-14925.4 2114.48 -5154.25)
(13584.8 2081.03 -5106.38)
(47301.1 6279.77 -7409.86)
(-56837 1756.97 -7975.48)
(-15686.1 501.659 -5478.94)
(14294.3 491.333 -5427.96)
(48707.3 1674.4 -7789.97)
(-58872.9 1626.75 -8121.53)
(-16191 419.765 -5605.64)
(14757.6 409.933 -5553.88)
(50550.4 1549.1 -7935.94)
(-61772.1 3068.44 -8281.34)
(-16902.9 1255.7 -5765.72)
(15423.6 1241.35 -5714.32)
(53230.8 2975.26 -8101.89)
(-66020.4 8588.97 -8540.87)
(-18018.1 6078.78 -6069.58)
(16477.1 6024.62 -6019.73)
(57223 8390.19 -8375.4)
(-70478.7 28342.2 -9149.94)
(-19467.3 26888.5 -6864.04)
(17735 26548.4 -6817.06)
(61335.8 27385.8 -9006.84)
(-66435.5 70148.3 -10965.2)
(-19811.9 75003 -9323.43)
(16974.5 73226.5 -9278.04)
(56681.9 65237.2 -10840.1)
(-50644.7 30919.5 -1987.56)
(-10399.8 6835.39 -682.739)
(9349.91 6642.58 -675.151)
(43105.6 28773.4 -1935.1)
(-51262.3 5933.3 -2735.01)
(-13877.1 1760.61 -1056.82)
(12588.1 1730.15 -1045.63)
(43505 5675.35 -2665.62)
(-52776 1640.87 -2857.88)
(-14602.9 429.727 -1124.14)
(13264.6 419.842 -1112.33)
(44854.8 1559.05 -2786.26)
(-54770.1 1575.15 -2892.51)
(-15098.1 381.67 -1144.08)
(13717.4 371.496 -1132.35)
(46651.4 1493.79 -2822.27)
(-57656.1 2992.74 -2923.43)
(-15806.6 1179.1 -1168.75)
(14376.8 1163.67 -1157.56)
(49303.9 2890.57 -2858.12)
(-61936.8 8332.83 -2996.51)
(-16927.2 5777.2 -1244.36)
(15428.9 5721.02 -1234.39)
(53300.5 8118.24 -2941.03)
(-66594.8 27263.7 -3327.91)
(-18418.4 25563.9 -1623.22)
(16717.8 25222.4 -1615.33)
(57569.1 26290.7 -3288.46)
(-63457.2 67155.9 -4794.43)
(-18968.6 71168.9 -3377.86)
(16155.7 69405.7 -3370.7)
(53782.1 62274.4 -4767.55)
(-48098.9 29425.3 -994.911)
(-9904.59 6471.8 -209.248)
(8876.65 6284.71 -205.506)
(40689.5 27324.5 -963.119)
(-48696.6 5679.81 -1331.09)
(-13236 1673.08 -315.317)
(11976 1643.85 -309.841)
(41075.8 5428.61 -1289.53)
(-50169.4 1599.47 -1381.14)
(-13940.5 414.392 -332.531)
(12632.2 404.611 -326.796)
(42385.4 1517.75 -1338.41)
(-52139.7 1561.2 -1391.99)
(-14430.9 375.156 -336.048)
(13079.4 364.701 -330.417)
(44154.3 1477.23 -1350.4)
(-55014.5 2964.44 -1401.06)
(-15137 1155.42 -341.056)
(13734.3 1139.31 -335.786)
(46785.4 2856.51 -1362.71)
(-59293.2 8184.49 -1437.31)
(-16256 5624.31 -371.663)
(14780.5 5566.85 -367.13)
(50761.5 7959.85 -1405.09)
(-64007.8 26544.3 -1645.09)
(-17754.7 24755 -582.743)
(16069.8 24412.1 -579.52)
(55058.9 25559.3 -1622.9)
(-61308 65009.7 -2617.53)
(-18388.2 68607.3 -1669.96)
(15584.8 66849.9 -1667.69)
(51681.8 60139.9 -2605.11)
(-46561.9 28593.5 -558.434)
(-9610.37 6310.83 -99.589)
(8596.04 6127.23 -97.3539)
(39233.3 26520.8 -539.221)
(-47143.1 5547.08 -738.535)
(-12855.9 1637.33 -146.725)
(11613.9 1608.86 -143.441)
(39606.8 5300.06 -713.365)
(-48594.4 1579.96 -763.544)
(-13548.6 408.997 -153.696)
(12258.8 399.266 -150.257)
(40894.8 1498.18 -737.697)
(-50552.5 1555.22 -768.122)
(-14036.6 373.145 -154.713)
(12703.1 362.506 -151.346)
(42648.7 1469.48 -743.085)
(-53419.6 2947.42 -772.784)
(-14741.3 1143.48 -156.686)
(13355.1 1126.95 -153.54)
(45265 2835.88 -749.795)
(-57687.8 8088.81 -796.027)
(-15857 5535.52 -173.417)
(14395.5 5477.29 -170.701)
(49218.9 7858.05 -776.706)
(-62409 26083.5 -927.206)
(-17352.8 24265.6 -296.384)
(15677.6 23921.8 -294.443)
(53506.5 25090.7 -913.826)
(-59919.9 63617.7 -1532.73)
(-18018.7 67010.6 -945.868)
(15220.5 65255.9 -944.667)
(50321.1 58752.7 -1525.84)
(-45681.3 28128.3 -291.843)
(-9443.5 6225.48 -50.1783)
(8437.02 6043.92 -48.9764)
(38399.2 26071.9 -281.611)
(-46253.8 5474.71 -384.296)
(-12640.9 1618.97 -73.3657)
(11409.4 1590.95 -71.5889)
(38766.2 5230.14 -370.842)
(-47694.3 1569.88 -396.679)
(-13327.3 406.405 -76.6604)
(12048.2 396.705 -74.7973)
(40043.2 1488.03 -382.865)
(-49646.1 1551.96 -398.8)
(-13814.1 372.165 -77.0793)
(12491 361.418 -75.2562)
(41788.8 1465.14 -385.457)
(-52507.8 2936.53 -401.484)
(-14517.8 1136.72 -78.0851)
(13141.2 1119.95 -76.381)
(44395.4 2822.89 -389.268)
(-56765.6 8030.07 -415.095)
(-15630.7 5484.61 -86.9874)
(14177.2 5425.94 -85.5109)
(48332.1 7795.82 -404.841)
(-61479.8 25807.6 -488.316)
(-17121.9 23982.6 -152.446)
(15452.4 23638.2 -151.379)
(52603.3 24810.2 -481.218)
(-59092.3 62782.6 -820.719)
(-17800.1 66073.9 -500.815)
(15004.8 64320.5 -500.191)
(49508.1 57919.5 -817.273)
(-45278 27917.3 -91.1554)
(-9367.51 6187.29 -15.5352)
(8364.6 6006.66 -15.1566)
(38017 25868.3 -87.9523)
(-45846.8 5442.24 -119.835)
(-12543.2 1610.85 -22.6612)
(11316.4 1583.04 -22.0993)
(38381.4 5198.81 -115.613)
(-47282.6 1565.46 -123.621)
(-13226.7 405.283 -23.66)
(11952.6 395.599 -23.0702)
(39653.6 1483.57 -119.284)
(-49231.6 1550.42 -124.26)
(-13713 371.72 -23.7829)
(12394.7 360.922 -23.2058)
(41395.5 1463.08 -120.077)
(-52090.5 2931.12 -125.164)
(-14416.2 1133.58 -24.1046)
(13043.9 1116.7 -23.5653)
(43997.2 2816.49 -121.342)
(-56342.3 8001.98 -129.672)
(-15527.4 5461.16 -26.9244)
(14077.6 5402.29 -26.4568)
(47924.6 7766.1 -126.471)
(-61050.3 25677.9 -153.26)
(-17015.9 23851.8 -47.5586)
(15348.9 23507.1 -47.2198)
(52185.3 24678.3 -151.055)
(-58704.6 62389.6 -259.423)
(-17698.2 65638 -157.688)
(14904.1 63885.1 -157.494)
(49126.8 57527.1 -258.396)
)
;

boundaryField
{
    interface
    {
        type            calculated;
        value           nonuniform List<vector> 
192
(
(-98188.3 77648.9 -65142.3)
(-82565 13523.7 -61342.4)
(-83062.8 3463.3 -62447.9)
(-85695.5 3005.39 -64268)
(-89280.4 4941.44 -66676)
(-93852.9 11052.2 -69829.1)
(-96735.4 30020.3 -72178.2)
(-84733.2 65462.5 -65317)
(-96013.3 43892.2 -18812)
(-87321.8 8523.25 -24689)
(-88800.8 2175.15 -25785.6)
(-91895.5 1881.01 -26395.4)
(-96208.1 3412.09 -27164.2)
(-102185 9201.43 -28268.4)
(-107394 29688 -29627.5)
(-96886.6 72389.7 -29946.5)
(-87220.6 34147.9 -5385.53)
(-80915.4 6550.13 -7587.25)
(-82546.8 1756.97 -7975.48)
(-85618 1626.75 -8121.53)
(-90003 3068.44 -8281.34)
(-96287.6 8588.97 -8540.87)
(-102396 28342.2 -9149.94)
(-94210.4 70148.3 -10965.2)
(-80657.5 30919.5 -1987.56)
(-74988.5 5933.3 -2735.01)
(-76574.6 1640.87 -2857.88)
(-79581.8 1575.15 -2892.51)
(-83948 2992.74 -2923.43)
(-90287.8 8332.83 -2996.51)
(-96714 27263.7 -3327.91)
(-89929 67155.9 -4794.43)
(-76551.5 29425.3 -994.911)
(-71132.4 5679.81 -1331.09)
(-72679.1 1599.47 -1381.14)
(-75648.4 1561.2 -1391.99)
(-79997.1 2964.44 -1401.06)
(-86337.4 8184.49 -1437.31)
(-92863.5 26544.3 -1645.09)
(-86788.4 65009.7 -2617.53)
(-74063.3 28593.5 -558.434)
(-68781.6 5547.08 -738.535)
(-70308.7 1579.96 -763.544)
(-73258.4 1555.22 -768.122)
(-77594.8 2947.42 -772.784)
(-83921.1 8088.81 -796.027)
(-90467.2 26083.5 -927.206)
(-84749.6 63617.7 -1532.73)
(-72634.1 28128.3 -291.843)
(-67430.5 5474.71 -384.296)
(-68948.6 1569.88 -396.679)
(-71888 1551.96 -398.8)
(-76216 2936.53 -401.484)
(-82527.5 8030.07 -415.095)
(-89069 25807.6 -488.316)
(-83530.7 62782.6 -820.719)
(-71978.7 27917.3 -91.1554)
(-66810.8 5442.24 -119.835)
(-68325.2 1565.46 -123.621)
(-71260.1 1550.42 -124.26)
(-75583.6 2931.12 -125.164)
(-81886.4 8001.98 -129.672)
(-88421.4 25677.9 -153.26)
(-82958.9 62389.6 -259.423)
(-62221.8 77648.9 -100731)
(-57938.6 13523.7 -84725.2)
(-58874.4 3463.3 -85341.2)
(-60659.9 3005.39 -88000)
(-63074 4941.44 -91548.4)
(-66223.9 11052.2 -96063.5)
(-68487.6 30020.3 -98851.4)
(-61467.3 65462.5 -86374.7)
(-13448.9 47865.2 -101133)
(-17072.2 9308.36 -91337.3)
(-17781.7 2307.21 -92857.2)
(-18263.4 1914.54 -95949)
(-18894.4 3456.15 -100159)
(-19769.4 9366.14 -105928)
(-20636.1 30217.1 -110652)
(-19889.8 72609.1 -98656)
(11453.5 47127.8 -98476.5)
(14576.6 9190.98 -88723.4)
(15176.6 2272.17 -90158)
(15591.7 1892.63 -93176.6)
(16168.3 3435.36 -97324.2)
(16985.1 9310.58 -103032)
(17679.3 29900 -107698)
(15927.3 70934.2 -95877.2)
(53715.3 73895.4 -93042.8)
(49056.7 13031.4 -77430)
(49820.7 3322.3 -77852.2)
(51424.1 2906.29 -80319.6)
(53655.9 4849.58 -83704.5)
(56621.5 10877.1 -88055.4)
(58638.7 29159.3 -90700.4)
(51115 60885.1 -78766.4)
(83880.9 73895.4 -60720.2)
(68127.9 13031.4 -56972.7)
(68410.8 3322.3 -57946.6)
(70762.4 2906.29 -59654.7)
(74054 4849.58 -61973.3)
(78328.8 10877.1 -65042.1)
(80886.3 29159.3 -67325.2)
(68797.3 60885.1 -60801.5)
(81916.7 41438.9 -18136.9)
(73139.2 8209.72 -23833.3)
(74377.8 2085.13 -24888.5)
(77163.6 1805.71 -25481.2)
(81140.7 3330.03 -26245.7)
(86755.8 9023.19 -27355.6)
(91566.2 28755.4 -28732.6)
(80936.5 67452 -29129)
(73571.3 31925.2 -5255.6)
(67199.1 6279.77 -7409.86)
(68580.9 1674.4 -7789.97)
(71331.4 1549.1 -7935.94)
(75349.7 2975.26 -8101.89)
(81208.7 8390.19 -8375.4)
(86828.5 27385.8 -9006.84)
(78451.8 65237.2 -10840.1)
(67343.8 28773.4 -1935.1)
(61615.8 5675.35 -2665.62)
(62951.8 1559.05 -2786.26)
(65630.2 1493.79 -2822.27)
(69605.4 2890.57 -2858.12)
(75474.5 8118.24 -2941.03)
(81341.3 26290.7 -3288.46)
(74301.1 62274.4 -4767.55)
(63462.8 27324.5 -963.119)
(57988.3 5428.61 -1289.53)
(59285 1517.75 -1338.41)
(61919.1 1477.23 -1350.4)
(65859.9 2856.51 -1362.71)
(71699.1 7959.85 -1405.09)
(77621 25559.3 -1622.9)
(71245.4 60139.9 -2605.11)
(61114.4 26520.8 -539.221)
(55778.8 5300.06 -713.365)
(57055.1 1498.18 -737.697)
(59664.7 1469.48 -743.085)
(63581.4 2835.88 -749.795)
(69387.3 7858.05 -776.706)
(75303 25090.7 -913.826)
(69253.9 58752.7 -1525.84)
(59765.8 26071.9 -281.611)
(54509 5230.14 -370.842)
(55775.5 1488.03 -382.865)
(58371.6 1465.14 -385.457)
(62272.5 2822.89 -389.268)
(68052.3 7795.82 -404.841)
(73948.5 24810.2 -481.218)
(68060.4 57919.5 -817.273)
(59147.1 25868.3 -87.9523)
(53926.4 5198.81 -115.613)
(55188.8 1483.57 -119.284)
(57778.6 1463.08 -120.077)
(61671.6 2816.49 -121.342)
(67437.4 7766.1 -126.471)
(73320.3 24678.3 -151.055)
(67499.4 57527.1 -258.396)
(-61467.3 86589.2 -65317)
(-68577.7 99197.8 -29946.5)
(-66435.5 96598.8 -10965.2)
(-63457.2 92360.8 -4794.43)
(-61308 89254.6 -2617.53)
(-59919.9 87229.2 -1532.73)
(-59092.3 86011.5 -820.719)
(-58704.6 85437.8 -259.423)
(-19889.8 98844 -72491.4)
(-20655.7 110960 -30176.2)
(-19811.9 106407 -9323.43)
(-18968.6 100897 -3377.86)
(-18388.2 97125.2 -1669.96)
(-18018.7 94754.3 -945.868)
(-17800.1 93357.5 -500.815)
(-17698.2 92706 -157.688)
(15927.3 96040 -70834.2)
(17672.3 107964 -29868.6)
(16974.5 103445 -9278.04)
(16155.7 97960.8 -3370.7)
(15584.8 94202.1 -1667.69)
(15220.5 91837.4 -944.667)
(15004.8 90443.6 -500.191)
(14904.1 89793.4 -157.494)
(51115 78900.2 -60801.5)
(58661.9 90920.6 -29129)
(56681.9 88397 -10840.1)
(53782.1 84231.8 -4767.55)
(51681.8 81160.7 -2605.11)
(50321.1 79152.7 -1525.84)
(49508.1 77943.8 -817.273)
(49126.8 77373.8 -258.396)
)
;
    }
    symmetry
    {
        type            symmetry;
    }
    bottom
    {
        type            calculated;
        value           nonuniform List<vector> 
32
(
(-62221.8 132650 -65142.3)
(-60298.1 73542.1 -18812)
(-54738.2 57401.5 -5385.53)
(-50644.7 51999.9 -1987.56)
(-48098.9 49451.3 -994.911)
(-46561.9 48020.3 -558.434)
(-45681.3 47217.5 -291.843)
(-45278 46852.9 -91.1554)
(-13448.9 80139.2 -64507.3)
(-12408.4 24376.4 -16812.3)
(-11217 12889.8 -3410.08)
(-10399.8 10736.1 -682.739)
(-9904.59 10158.8 -209.248)
(-9610.37 9899.06 -99.589)
(-9443.5 9760.49 -50.1783)
(-9367.51 9698.35 -15.5352)
(11453.5 78853.8 -62974.6)
(11195.4 23908.4 -16580.1)
(10129 12533.5 -3376.89)
(9349.91 10400.8 -675.151)
(8876.65 9832.94 -205.506)
(8596.04 9578.8 -97.3539)
(8437.02 9443.52 -48.9764)
(8364.6 9382.89 -15.1566)
(53715.3 125953 -60720.2)
(52270.8 69158.1 -18136.9)
(47003.7 53405.9 -5255.6)
(43105.6 48135.7 -1935.1)
(40689.5 45665.5 -963.119)
(39233.3 44283.2 -539.221)
(38399.2 43508.6 -281.611)
(38017 43156.8 -87.9523)
)
;
    }
}


// ************************************************************************* //
