/*--------------------------------*- C++ -*----------------------------------*\
| =========                 |                                                 |
| \\      /  F ield         | OpenFOAM: The Open Source CFD Toolbox           |
|  \\    /   O peration     | Version:  v1912                                 |
|   \\  /    A nd           | Website:  www.openfoam.com                      |
|    \\/     M anipulation  |                                                 |
\*---------------------------------------------------------------------------*/
FoamFile
{
    version     2.0;
    format      ascii;
    class       pointVectorField;
    location    "1/solid";
    object      pointDD;
}
// * * * * * * * * * * * * * * * * * * * * * * * * * * * * * * * * * * * * * //

dimensions      [0 1 0 0 0 0 0];


internalField   nonuniform List<vector> 
405
(
(1.29422e-10 2.27776e-10 1.53168e-10)
(5.21935e-11 1.72926e-10 1.24018e-10)
(-7.24951e-12 1.54117e-10 1.16953e-10)
(-6.10378e-11 1.58673e-10 1.04562e-10)
(-1.11342e-10 2.07777e-10 1.22452e-10)
(2.73525e-10 3.06407e-10 3.87623e-10)
(1.53775e-10 3.16541e-10 4.07762e-10)
(-2.42133e-11 2.81501e-10 3.90358e-10)
(-1.88327e-10 2.97699e-10 3.59303e-10)
(-2.58437e-10 2.91408e-10 3.24146e-10)
(3.73222e-10 1.82229e-10 6.65243e-10)
(2.12807e-10 2.08375e-10 6.85873e-10)
(-4.36746e-11 1.85854e-10 6.60775e-10)
(-2.83415e-10 2.09016e-10 6.21267e-10)
(-3.87223e-10 1.97363e-10 5.73095e-10)
(3.89699e-10 -7.52068e-13 8.85517e-10)
(2.14506e-10 4.001e-11 9.02371e-10)
(-6.51044e-11 3.42337e-11 8.68358e-10)
(-3.2754e-10 5.88687e-11 8.26283e-10)
(-4.4237e-10 4.27854e-11 7.73887e-10)
(3.80784e-10 -1.91271e-10 1.08128e-09)
(1.97226e-10 -1.46533e-10 1.09269e-09)
(-9.09345e-11 -1.42355e-10 1.05006e-09)
(-3.61611e-10 -1.1169e-10 1.00762e-09)
(-4.81704e-10 -1.22056e-10 9.54558e-10)
(3.83279e-10 -4.0377e-10 1.2745e-09)
(1.8717e-10 -3.61666e-10 1.27952e-09)
(-1.22007e-10 -3.51096e-10 1.22977e-09)
(-4.13288e-10 -3.11692e-10 1.18656e-09)
(-5.42965e-10 -3.09613e-10 1.13454e-09)
(4.15567e-10 -6.90314e-10 1.47041e-09)
(1.96633e-10 -6.50575e-10 1.47211e-09)
(-1.59072e-10 -6.29811e-10 1.41999e-09)
(-4.96074e-10 -5.84233e-10 1.37174e-09)
(-6.45104e-10 -5.69215e-10 1.31805e-09)
(4.55635e-10 -1.07396e-09 1.63377e-09)
(2.12329e-10 -1.03618e-09 1.6371e-09)
(-2.02899e-10 -1.00118e-09 1.59011e-09)
(-5.97564e-10 -9.4764e-10 1.53004e-09)
(-7.66152e-10 -9.17752e-10 1.4706e-09)
(4.5949e-10 -1.30578e-09 1.70349e-09)
(2.15902e-10 -1.28757e-09 1.7015e-09)
(-2.28409e-10 -1.24145e-09 1.66264e-09)
(-6.51022e-10 -1.17417e-09 1.6024e-09)
(-8.34469e-10 -1.12525e-09 1.54753e-09)
(9.26755e-11 1.16883e-10 7.25929e-11)
(0 0 0)
(0 0 0)
(0 0 0)
(-6.11518e-11 1.08916e-10 5.99805e-11)
(2.5729e-10 1.84786e-10 2.73223e-10)
(0 0 0)
(0 0 0)
(0 0 0)
(-2.00367e-10 1.83425e-10 2.30797e-10)
(3.4819e-10 4.81088e-11 5.10325e-10)
(0 0 0)
(0 0 0)
(0 0 0)
(-3.09919e-10 7.62017e-11 4.39083e-10)
(3.64103e-10 -1.2889e-10 7.14955e-10)
(0 0 0)
(0 0 0)
(0 0 0)
(-3.56349e-10 -7.212e-11 6.23428e-10)
(3.57196e-10 -3.0789e-10 9.01346e-10)
(0 0 0)
(0 0 0)
(0 0 0)
(-3.90949e-10 -2.2389e-10 7.93836e-10)
(3.63138e-10 -5.01722e-10 1.08413e-09)
(0 0 0)
(0 0 0)
(0 0 0)
(-4.4963e-10 -3.90564e-10 9.62596e-10)
(4.04629e-10 -7.57538e-10 1.26452e-09)
(0 0 0)
(0 0 0)
(0 0 0)
(-5.5502e-10 -6.17382e-10 1.13016e-09)
(4.59805e-10 -1.10675e-09 1.41216e-09)
(0 0 0)
(0 0 0)
(0 0 0)
(-6.84786e-10 -9.30628e-10 1.26743e-09)
(4.49359e-10 -1.32667e-09 1.48238e-09)
(2.03803e-10 -1.32451e-09 1.48416e-09)
(-2.11214e-10 -1.26964e-09 1.45611e-09)
(-6.05806e-10 -1.20183e-09 1.40915e-09)
(-7.72595e-10 -1.13591e-09 1.35169e-09)
(6.24961e-11 6.07922e-11 2.98962e-11)
(0 0 0)
(0 0 0)
(0 0 0)
(-2.89366e-11 5.19355e-11 2.31143e-11)
(1.79779e-10 5.94605e-11 1.43767e-10)
(0 0 0)
(0 0 0)
(0 0 0)
(-1.12784e-10 5.57571e-11 1.18197e-10)
(2.48536e-10 -8.65361e-11 3.18137e-10)
(0 0 0)
(0 0 0)
(0 0 0)
(-1.89254e-10 -6.20481e-11 2.7103e-10)
(2.58571e-10 -2.52425e-10 4.94756e-10)
(0 0 0)
(0 0 0)
(0 0 0)
(-2.2075e-10 -2.00308e-10 4.30434e-10)
(2.51455e-10 -4.13775e-10 6.62189e-10)
(0 0 0)
(0 0 0)
(0 0 0)
(-2.47458e-10 -3.34946e-10 5.83553e-10)
(2.61519e-10 -5.79568e-10 8.19713e-10)
(0 0 0)
(0 0 0)
(0 0 0)
(-3.03484e-10 -4.74014e-10 7.28493e-10)
(3.16029e-10 -7.9137e-10 9.61007e-10)
(0 0 0)
(0 0 0)
(0 0 0)
(-4.156e-10 -6.5773e-10 8.58822e-10)
(3.95937e-10 -1.09334e-09 1.0618e-09)
(0 0 0)
(0 0 0)
(0 0 0)
(-5.63788e-10 -9.25377e-10 9.51914e-10)
(3.99947e-10 -1.29819e-09 1.09871e-09)
(1.77927e-10 -1.29448e-09 1.09896e-09)
(-1.7722e-10 -1.23352e-09 1.08461e-09)
(-5.13381e-10 -1.17656e-09 1.04498e-09)
(-6.60447e-10 -1.11547e-09 1.00195e-09)
(3.92667e-11 3.16478e-11 1.6692e-11)
(0 0 0)
(0 0 0)
(0 0 0)
(-4.2515e-12 2.01069e-11 1.21654e-11)
(1.18031e-10 -4.6816e-12 9.25842e-11)
(0 0 0)
(0 0 0)
(0 0 0)
(-4.4232e-11 -1.47199e-11 7.53296e-11)
(1.68136e-10 -1.56565e-10 2.24474e-10)
(0 0 0)
(0 0 0)
(0 0 0)
(-9.42593e-11 -1.39822e-10 1.91795e-10)
(1.75691e-10 -3.18395e-10 3.71125e-10)
(0 0 0)
(0 0 0)
(0 0 0)
(-1.15761e-10 -2.74617e-10 3.24865e-10)
(1.71599e-10 -4.66409e-10 5.14263e-10)
(0 0 0)
(0 0 0)
(0 0 0)
(-1.38618e-10 -3.96115e-10 4.55949e-10)
(1.87291e-10 -6.07651e-10 6.43418e-10)
(0 0 0)
(0 0 0)
(0 0 0)
(-1.94071e-10 -5.10774e-10 5.74354e-10)
(2.50828e-10 -7.83978e-10 7.46617e-10)
(0 0 0)
(0 0 0)
(0 0 0)
(-3.09563e-10 -6.59352e-10 6.68489e-10)
(3.43957e-10 -1.04812e-09 8.04898e-10)
(0 0 0)
(0 0 0)
(0 0 0)
(-4.65666e-10 -8.89677e-10 7.20964e-10)
(3.56268e-10 -1.23899e-09 8.1413e-10)
(1.56211e-10 -1.23861e-09 8.12356e-10)
(-1.50764e-10 -1.17851e-09 8.06394e-10)
(-4.39047e-10 -1.12554e-09 7.7218e-10)
(-5.66238e-10 -1.06479e-09 7.41106e-10)
(2.73764e-11 1.82568e-11 1.49008e-11)
(0 0 0)
(0 0 0)
(0 0 0)
(8.70642e-12 4.52826e-12 1.1737e-11)
(8.69019e-11 -3.20048e-11 7.60541e-11)
(0 0 0)
(0 0 0)
(0 0 0)
(-8.46518e-12 -4.77225e-11 6.41069e-11)
(1.28956e-10 -1.83987e-10 1.79089e-10)
(0 0 0)
(0 0 0)
(0 0 0)
(-4.51361e-11 -1.74856e-10 1.56335e-10)
(1.37901e-10 -3.42757e-10 2.94952e-10)
(0 0 0)
(0 0 0)
(0 0 0)
(-6.23695e-11 -3.07442e-10 2.62134e-10)
(1.38749e-10 -4.81964e-10 4.08861e-10)
(0 0 0)
(0 0 0)
(0 0 0)
(-8.45867e-11 -4.20383e-10 3.6662e-10)
(1.60218e-10 -6.07588e-10 5.08395e-10)
(0 0 0)
(0 0 0)
(0 0 0)
(-1.40576e-10 -5.19427e-10 4.57551e-10)
(2.2911e-10 -7.63252e-10 5.80932e-10)
(0 0 0)
(0 0 0)
(0 0 0)
(-2.566e-10 -6.47266e-10 5.22889e-10)
(3.26642e-10 -1.006e-09 6.13705e-10)
(0 0 0)
(0 0 0)
(0 0 0)
(-4.12657e-10 -8.5604e-10 5.512e-10)
(3.40992e-10 -1.18932e-09 6.10072e-10)
(1.5228e-10 -1.19493e-09 6.04462e-10)
(-1.30714e-10 -1.13926e-09 6.00063e-10)
(-3.94894e-10 -1.08596e-09 5.74851e-10)
(-5.11872e-10 -1.02237e-09 5.55912e-10)
(2.23986e-11 1.32397e-11 1.33077e-11)
(0 0 0)
(0 0 0)
(0 0 0)
(1.43877e-11 -1.96364e-12 1.11712e-11)
(7.4403e-11 -4.07192e-11 6.20555e-11)
(0 0 0)
(0 0 0)
(0 0 0)
(7.01684e-12 -6.0536e-11 5.40299e-11)
(1.14646e-10 -1.89864e-10 1.39292e-10)
(0 0 0)
(0 0 0)
(0 0 0)
(-2.4367e-11 -1.86665e-10 1.23975e-10)
(1.26551e-10 -3.44982e-10 2.2446e-10)
(0 0 0)
(0 0 0)
(0 0 0)
(-4.05783e-11 -3.16585e-10 2.02137e-10)
(1.32153e-10 -4.78491e-10 3.07678e-10)
(0 0 0)
(0 0 0)
(0 0 0)
(-6.33733e-11 -4.24199e-10 2.78547e-10)
(1.58184e-10 -5.95965e-10 3.78744e-10)
(0 0 0)
(0 0 0)
(0 0 0)
(-1.19839e-10 -5.15099e-10 3.43248e-10)
(2.29936e-10 -7.42139e-10 4.27669e-10)
(0 0 0)
(0 0 0)
(0 0 0)
(-2.3489e-10 -6.33235e-10 3.86809e-10)
(3.2826e-10 -9.75079e-10 4.46818e-10)
(0 0 0)
(0 0 0)
(0 0 0)
(-3.88169e-10 -8.3184e-10 4.02644e-10)
(3.42976e-10 -1.15449e-09 4.40182e-10)
(1.59006e-10 -1.1644e-09 4.32523e-10)
(-1.16068e-10 -1.11279e-09 4.27764e-10)
(-3.72157e-10 -1.05856e-09 4.11674e-10)
(-4.85122e-10 -9.93164e-10 4.01939e-10)
(2.05846e-11 1.17444e-11 9.89168e-12)
(0 0 0)
(0 0 0)
(0 0 0)
(1.66311e-11 -4.37802e-12 8.57709e-12)
(7.02417e-11 -4.20337e-11 4.38797e-11)
(0 0 0)
(0 0 0)
(0 0 0)
(1.2991e-11 -6.45095e-11 3.89468e-11)
(1.10974e-10 -1.87656e-10 9.53975e-11)
(0 0 0)
(0 0 0)
(0 0 0)
(-1.67179e-11 -1.88496e-10 8.59631e-11)
(1.25638e-10 -3.39179e-10 1.50975e-10)
(0 0 0)
(0 0 0)
(0 0 0)
(-3.30842e-11 -3.15672e-10 1.37136e-10)
(1.34768e-10 -4.69057e-10 2.04747e-10)
(0 0 0)
(0 0 0)
(0 0 0)
(-5.65532e-11 -4.20037e-10 1.86526e-10)
(1.63857e-10 -5.82839e-10 2.49989e-10)
(0 0 0)
(0 0 0)
(0 0 0)
(-1.13187e-10 -5.07288e-10 2.27595e-10)
(2.37123e-10 -7.25493e-10 2.8025e-10)
(0 0 0)
(0 0 0)
(0 0 0)
(-2.26989e-10 -6.21715e-10 2.54304e-10)
(3.35271e-10 -9.54438e-10 2.91319e-10)
(0 0 0)
(0 0 0)
(0 0 0)
(-3.77498e-10 -8.15996e-10 2.63165e-10)
(3.49907e-10 -1.13189e-09 2.8589e-10)
(1.67605e-10 -1.14426e-09 2.79178e-10)
(-1.06115e-10 -1.09532e-09 2.75032e-10)
(-3.60717e-10 -1.04061e-09 2.65906e-10)
(-4.72496e-10 -9.74518e-10 2.61511e-10)
(1.99967e-11 1.14326e-11 5.21912e-12)
(0 0 0)
(0 0 0)
(0 0 0)
(1.74503e-11 -5.19062e-12 4.59432e-12)
(6.90824e-11 -4.13849e-11 2.26119e-11)
(0 0 0)
(0 0 0)
(0 0 0)
(1.51226e-11 -6.53422e-11 2.02665e-11)
(1.10561e-10 -1.84332e-10 4.83416e-11)
(0 0 0)
(0 0 0)
(0 0 0)
(-1.4152e-11 -1.87485e-10 4.38481e-11)
(1.26997e-10 -3.33292e-10 7.56927e-11)
(0 0 0)
(0 0 0)
(0 0 0)
(-3.08233e-11 -3.1265e-10 6.90765e-11)
(1.38195e-10 -4.61114e-10 1.01953e-10)
(0 0 0)
(0 0 0)
(0 0 0)
(-5.47061e-11 -4.15233e-10 9.31974e-11)
(1.68994e-10 -5.73424e-10 1.23869e-10)
(0 0 0)
(0 0 0)
(0 0 0)
(-1.11336e-10 -5.01063e-10 1.13053e-10)
(2.43025e-10 -7.15043e-10 1.38352e-10)
(0 0 0)
(0 0 0)
(0 0 0)
(-2.24236e-10 -6.14341e-10 1.2577e-10)
(3.40939e-10 -9.42515e-10 1.43519e-10)
(0 0 0)
(0 0 0)
(0 0 0)
(-3.72954e-10 -8.06935e-10 1.29832e-10)
(3.55425e-10 -1.11909e-09 1.40646e-10)
(1.73622e-10 -1.13266e-09 1.36882e-10)
(-1.00351e-10 -1.08513e-09 1.34523e-10)
(-3.55123e-10 -1.03031e-09 1.30432e-10)
(-4.66688e-10 -9.64053e-10 1.2879e-10)
(2.37586e-11 6.05658e-12 0)
(9.34948e-12 -8.41512e-12 0)
(6.78064e-13 -1.52066e-11 0)
(-3.37155e-12 -1.358e-11 0)
(8.32097e-12 -1.10925e-11 0)
(6.18701e-11 -5.19985e-11 0)
(3.38566e-11 -7.60106e-11 0)
(4.68783e-12 -8.99983e-11 0)
(-1.34873e-11 -8.36507e-11 0)
(-3.93337e-12 -7.0859e-11 0)
(9.93963e-11 -1.88636e-10 0)
(5.56887e-11 -2.05562e-10 0)
(9.69946e-12 -2.16285e-10 0)
(-2.37018e-11 -2.05369e-10 0)
(-2.85641e-11 -1.90906e-10 0)
(1.14035e-10 -3.33457e-10 0)
(6.31103e-11 -3.43429e-10 0)
(9.94948e-12 -3.47873e-10 0)
(-3.09469e-11 -3.32165e-10 0)
(-4.31568e-11 -3.154e-10 0)
(1.23726e-10 -4.6233e-10 0)
(6.55525e-11 -4.73776e-10 0)
(3.58547e-12 -4.74975e-10 0)
(-4.62576e-11 -4.50254e-10 0)
(-6.54246e-11 -4.22443e-10 0)
(1.52408e-10 -5.81253e-10 0)
(7.84589e-11 -6.01273e-10 0)
(-1.00017e-11 -6.00829e-10 0)
(-8.60638e-11 -5.6476e-10 0)
(-1.20051e-10 -5.18366e-10 0)
(2.21282e-10 -7.29798e-10 0)
(1.14329e-10 -7.53742e-10 0)
(-3.13707e-11 -7.46571e-10 0)
(-1.63642e-10 -7.03014e-10 0)
(-2.2842e-10 -6.42037e-10 0)
(3.11693e-10 -9.54467e-10 0)
(1.6077e-10 -9.639e-10 0)
(-6.12182e-11 -9.40085e-10 0)
(-2.67259e-10 -8.94533e-10 0)
(-3.71303e-10 -8.35162e-10 0)
(3.45174e-10 -1.11025e-09 0)
(1.79125e-10 -1.10755e-09 0)
(-8.84072e-11 -1.06663e-09 0)
(-3.37484e-10 -1.01636e-09 0)
(-4.57323e-10 -9.67155e-10 0)
)
;

boundaryField
{
    interface
    {
        type            calculated;
    }
    symmetry
    {
        type            symmetry;
    }
    bottom
    {
        type            calculated;
    }
}


// ************************************************************************* //
