/*--------------------------------*- C++ -*----------------------------------*\
| =========                 |                                                 |
| \\      /  F ield         | OpenFOAM: The Open Source CFD Toolbox           |
|  \\    /   O peration     | Version:  v1912                                 |
|   \\  /    A nd           | Website:  www.openfoam.com                      |
|    \\/     M anipulation  |                                                 |
\*---------------------------------------------------------------------------*/
FoamFile
{
    version     2.0;
    format      ascii;
    class       pointVectorField;
    location    "1/solid";
    object      pointD;
}
// * * * * * * * * * * * * * * * * * * * * * * * * * * * * * * * * * * * * * //

dimensions      [0 1 0 0 0 0 0];


internalField   nonuniform List<vector> 
405
(
(4.17957e-08 4.61538e-08 4.35475e-08)
(9.28932e-09 3.10625e-08 4.61394e-08)
(-1.4059e-10 2.59129e-08 4.34126e-08)
(-9.20792e-09 3.02429e-08 4.47672e-08)
(-3.92222e-08 4.43644e-08 4.186e-08)
(7.29592e-08 5.76687e-08 8.22475e-08)
(2.58859e-08 5.31713e-08 1.08467e-07)
(-1.91566e-10 4.48476e-08 1.02765e-07)
(-2.5409e-08 5.16764e-08 1.05587e-07)
(-6.85964e-08 5.52409e-08 7.94285e-08)
(8.5345e-08 3.37967e-08 1.10308e-07)
(3.44844e-08 3.38676e-08 1.35831e-07)
(6.14849e-11 2.93045e-08 1.29491e-07)
(-3.33645e-08 3.26653e-08 1.32703e-07)
(-8.00994e-08 3.18643e-08 1.07038e-07)
(8.75354e-08 1.17313e-08 1.30617e-07)
(3.5421e-08 1.42015e-08 1.5634e-07)
(3.67148e-10 1.20066e-08 1.49252e-07)
(-3.36865e-08 1.32561e-08 1.53016e-07)
(-8.15767e-08 1.02129e-08 1.27066e-07)
(8.84398e-08 -6.77392e-09 1.48895e-07)
(3.51455e-08 -4.3122e-09 1.75034e-07)
(6.1472e-10 -6.08063e-09 1.67271e-07)
(-3.29077e-08 -5.0558e-09 1.71547e-07)
(-8.18788e-08 -7.95842e-09 1.45112e-07)
(9.25167e-08 -2.50602e-08 1.68184e-07)
(3.68916e-08 -2.3788e-08 1.95007e-07)
(7.80348e-10 -2.60056e-08 1.86691e-07)
(-3.43077e-08 -2.43456e-08 1.91359e-07)
(-8.55077e-08 -2.59171e-08 1.64165e-07)
(1.02865e-07 -4.97209e-08 1.90259e-07)
(4.27229e-08 -4.93507e-08 2.1846e-07)
(8.34448e-10 -5.13654e-08 2.10023e-07)
(-4.0009e-08 -4.96776e-08 2.14641e-07)
(-9.56148e-08 -5.01684e-08 1.85982e-07)
(1.20114e-07 -9.99106e-08 2.14177e-07)
(5.23493e-08 -9.84085e-08 2.45999e-07)
(7.1038e-10 -9.78839e-08 2.38721e-07)
(-4.98197e-08 -9.81243e-08 2.42035e-07)
(-1.12874e-07 -9.93942e-08 2.09663e-07)
(1.1809e-07 -1.61681e-07 2.14858e-07)
(5.79252e-08 -1.71145e-07 2.25134e-07)
(7.12449e-10 -1.66971e-07 2.20501e-07)
(-5.53434e-08 -1.69225e-07 2.22259e-07)
(-1.11986e-07 -1.59332e-07 2.1092e-07)
(4.09804e-08 2.53633e-08 9.5539e-09)
(0 0 0)
(0 0 0)
(0 0 0)
(-3.75602e-08 2.40651e-08 9.26931e-09)
(8.9924e-08 4.0027e-08 3.30004e-08)
(2.17933e-08 2.12359e-08 3.74818e-08)
(1.03964e-10 1.41801e-08 3.70984e-08)
(-2.08096e-08 2.01565e-08 3.70091e-08)
(-8.24978e-08 3.76374e-08 3.21531e-08)
(9.9819e-08 1.84797e-08 5.71361e-08)
(2.9053e-08 1.1725e-08 6.31016e-08)
(4.85688e-10 7.6942e-09 6.27252e-08)
(-2.71916e-08 1.07024e-08 6.24089e-08)
(-9.13495e-08 1.64954e-08 5.58687e-08)
(1.02105e-07 -1.17678e-09 7.58749e-08)
(2.98084e-08 -3.06957e-09 8.20286e-08)
(8.62892e-10 -4.96955e-09 8.15352e-08)
(-2.71947e-08 -3.92402e-09 8.12169e-08)
(-9.27705e-08 -2.79558e-09 7.43627e-08)
(1.03747e-07 -1.80014e-08 9.25434e-08)
(2.96349e-08 -2.00412e-08 9.8527e-08)
(1.16817e-09 -2.15808e-08 9.77982e-08)
(-2.64034e-08 -2.07172e-08 9.76169e-08)
(-9.36601e-08 -1.92827e-08 9.08247e-08)
(1.08988e-07 -3.44612e-08 1.09476e-07)
(3.15321e-08 -3.93677e-08 1.15211e-07)
(1.39096e-09 -4.14523e-08 1.14215e-07)
(-2.7839e-08 -3.98615e-08 1.14194e-07)
(-9.82976e-08 -3.53831e-08 1.07538e-07)
(1.21302e-07 -5.57989e-08 1.27642e-07)
(3.75557e-08 -6.38068e-08 1.33129e-07)
(1.50589e-09 -6.58774e-08 1.31979e-07)
(-3.36078e-08 -6.40782e-08 1.31992e-07)
(-1.10201e-07 -5.62709e-08 1.25463e-07)
(1.42553e-07 -1.00192e-07 1.44553e-07)
(4.73738e-08 -1.05969e-07 1.49907e-07)
(1.44407e-09 -1.05416e-07 1.48905e-07)
(-4.34811e-08 -1.05677e-07 1.48658e-07)
(-1.31262e-07 -9.96781e-08 1.42141e-07)
(1.2048e-07 -1.69943e-07 1.54258e-07)
(5.28093e-08 -2.02154e-07 1.558e-07)
(1.17619e-09 -1.9533e-07 1.54824e-07)
(-4.93461e-08 -1.9911e-07 1.54539e-07)
(-1.12529e-07 -1.67062e-07 1.52055e-07)
(3.24592e-08 1.43268e-08 1.57354e-09)
(0 0 0)
(0 0 0)
(0 0 0)
(-2.90751e-08 1.31482e-08 1.52873e-09)
(7.0774e-08 1.93174e-08 1.17894e-08)
(1.45991e-08 5.39809e-09 1.78176e-08)
(2.37463e-10 -4.25719e-10 1.91871e-08)
(-1.33966e-08 4.50475e-09 1.7696e-08)
(-6.33619e-08 1.71088e-08 1.15554e-08)
(7.78579e-08 1.1213e-09 2.94939e-08)
(1.95514e-08 -3.98825e-09 3.74979e-08)
(7.12041e-10 -7.36831e-09 3.94084e-08)
(-1.73053e-08 -4.91092e-09 3.72408e-08)
(-6.92871e-08 -7.96575e-10 2.90004e-08)
(7.91878e-08 -1.52561e-08 4.66439e-08)
(1.98329e-08 -1.67242e-08 5.50391e-08)
(1.16007e-09 -1.84089e-08 5.7062e-08)
(-1.67022e-08 -1.75457e-08 5.46798e-08)
(-6.96391e-08 -1.68957e-08 4.59414e-08)
(8.04447e-08 -2.96858e-08 6.22192e-08)
(1.95716e-08 -3.16294e-08 7.05952e-08)
(1.5251e-09 -3.3133e-08 7.25588e-08)
(-1.57067e-08 -3.23087e-08 7.01477e-08)
(-7.00266e-08 -3.10371e-08 6.13294e-08)
(8.56178e-08 -4.33896e-08 7.69473e-08)
(2.14513e-08 -4.83863e-08 8.52038e-08)
(1.80229e-09 -5.05183e-08 8.70492e-08)
(-1.70136e-08 -4.89071e-08 8.46639e-08)
(-7.44624e-08 -4.44169e-08 7.58635e-08)
(9.85541e-08 -6.00205e-08 9.05487e-08)
(2.76548e-08 -6.83408e-08 9.85867e-08)
(1.96933e-09 -7.04742e-08 1.00315e-07)
(-2.28505e-08 -6.86665e-08 9.79518e-08)
(-8.68338e-08 -6.06403e-08 8.92644e-08)
(1.21778e-07 -9.67342e-08 9.99574e-08)
(3.79614e-08 -1.02648e-07 1.07676e-07)
(1.95887e-09 -1.01943e-07 1.09335e-07)
(-3.30976e-08 -1.0245e-07 1.06975e-07)
(-1.09699e-07 -9.64242e-08 9.8511e-08)
(1.03677e-07 -1.59479e-07 1.04003e-07)
(4.35928e-08 -1.88114e-07 1.06757e-07)
(1.74592e-09 -1.80126e-07 1.08351e-07)
(-3.9042e-08 -1.85173e-07 1.06091e-07)
(-9.47709e-08 -1.56787e-07 1.02745e-07)
(2.72513e-08 9.8955e-09 1.07928e-09)
(0 0 0)
(0 0 0)
(0 0 0)
(-2.3942e-08 8.73411e-09 1.06316e-09)
(5.90042e-08 1.01606e-08 8.36205e-09)
(9.97692e-09 -5.54927e-10 1.2268e-08)
(2.80598e-10 -5.49502e-09 1.35917e-08)
(-8.70968e-09 -1.41472e-09 1.22015e-08)
(-5.17025e-08 7.96384e-09 8.25411e-09)
(6.44503e-08 -8.09415e-09 2.21231e-08)
(1.33772e-08 -1.20966e-08 2.73491e-08)
(8.03069e-10 -1.49883e-08 2.91929e-08)
(-1.09755e-08 -1.30069e-08 2.71964e-08)
(-5.5903e-08 -1.00479e-08 2.18559e-08)
(6.55262e-08 -2.36138e-08 3.69683e-08)
(1.34327e-08 -2.48953e-08 4.23933e-08)
(1.30286e-09 -2.64428e-08 4.43527e-08)
(-1.00453e-08 -2.57334e-08 4.21583e-08)
(-5.5903e-08 -2.53353e-08 3.65366e-08)
(6.69009e-08 -3.63248e-08 5.08839e-08)
(1.32575e-08 -3.83504e-08 5.61952e-08)
(1.71892e-09 -3.98757e-08 5.81204e-08)
(-9.0345e-09 -3.90721e-08 5.58822e-08)
(-5.63026e-08 -3.77956e-08 5.02894e-08)
(7.23394e-08 -4.72497e-08 6.32695e-08)
(1.52588e-08 -5.24161e-08 6.84121e-08)
(2.04439e-09 -5.46302e-08 7.02566e-08)
(-1.0364e-08 -5.30011e-08 6.80206e-08)
(-6.08856e-08 -4.84288e-08 6.25095e-08)
(8.57748e-08 -5.99818e-08 7.31209e-08)
(2.16258e-08 -6.85221e-08 7.80961e-08)
(2.25708e-09 -7.07672e-08 7.98501e-08)
(-1.62665e-08 -6.89328e-08 7.76316e-08)
(-7.36218e-08 -6.07843e-08 7.22015e-08)
(1.09674e-07 -9.20139e-08 7.8219e-08)
(3.21166e-08 -9.81777e-08 8.30884e-08)
(2.29139e-09 -9.76157e-08 8.47804e-08)
(-2.65991e-08 -9.80807e-08 8.25832e-08)
(-9.70176e-08 -9.19101e-08 7.71856e-08)
(9.35087e-08 -1.50921e-07 7.93227e-08)
(3.79413e-08 -1.78242e-07 8.13314e-08)
(2.1277e-09 -1.70347e-07 8.31277e-08)
(-3.26335e-08 -1.75421e-07 8.08666e-08)
(-8.39016e-08 -1.48423e-07 7.8435e-08)
(2.45832e-08 8.19247e-09 1.38614e-09)
(0 0 0)
(0 0 0)
(0 0 0)
(-2.1333e-08 7.03267e-09 1.37507e-09)
(5.30164e-08 6.60895e-09 7.6709e-09)
(7.98505e-09 -2.60211e-09 9.53838e-09)
(2.94665e-10 -7.04867e-09 1.03296e-08)
(-6.70255e-09 -3.46804e-09 9.49199e-09)
(-4.58194e-08 4.39116e-09 7.60624e-09)
(5.77805e-08 -1.1926e-08 1.851e-08)
(1.07425e-08 -1.54486e-08 2.09775e-08)
(8.40286e-10 -1.80784e-08 2.20722e-08)
(-8.28066e-09 -1.63809e-08 2.08753e-08)
(-4.92945e-08 -1.39431e-08 1.83478e-08)
(5.89869e-08 -2.73619e-08 3.04013e-08)
(1.08251e-08 -2.86704e-08 3.28713e-08)
(1.37366e-09 -3.0168e-08 3.40149e-08)
(-7.31015e-09 -2.95461e-08 3.27094e-08)
(-4.93568e-08 -2.91792e-08 3.01228e-08)
(6.07042e-08 -3.91598e-08 4.17231e-08)
(1.08532e-08 -4.13569e-08 4.4018e-08)
(1.82857e-09 -4.29285e-08 4.51143e-08)
(-6.42454e-09 -4.21317e-08 4.37944e-08)
(-5.00159e-08 -4.07533e-08 4.13181e-08)
(6.64925e-08 -4.83608e-08 5.14247e-08)
(1.30399e-08 -5.36876e-08 5.35435e-08)
(2.19379e-09 -5.59788e-08 5.45695e-08)
(-7.858e-09 -5.43401e-08 5.32579e-08)
(-5.4854e-08 -4.96852e-08 5.08891e-08)
(8.0199e-08 -5.89907e-08 5.84183e-08)
(1.94988e-08 -6.7641e-08 6.04429e-08)
(2.44512e-09 -6.99978e-08 6.14071e-08)
(-1.3771e-08 -6.81302e-08 6.01027e-08)
(-6.7755e-08 -5.99553e-08 5.77609e-08)
(1.04134e-07 -8.88003e-08 6.14651e-08)
(2.99581e-08 -9.51801e-08 6.35326e-08)
(2.51717e-09 -9.48492e-08 6.44793e-08)
(-2.39909e-08 -9.5166e-08 6.31654e-08)
(-9.10734e-08 -8.88646e-08 6.07251e-08)
(8.90654e-08 -1.45528e-07 6.1551e-08)
(3.59042e-08 -1.72229e-07 6.24339e-08)
(2.39307e-09 -1.64766e-07 6.35329e-08)
(-3.00641e-08 -1.69498e-07 6.20994e-08)
(-7.89604e-08 -1.43182e-07 6.09154e-08)
(2.32692e-08 7.531e-09 1.35047e-09)
(0 0 0)
(0 0 0)
(0 0 0)
(-2.00586e-08 6.37317e-09 1.3426e-09)
(5.01699e-08 5.35005e-09 6.45041e-09)
(7.32686e-09 -3.28975e-09 7.21099e-09)
(2.99464e-10 -7.50227e-09 7.58951e-09)
(-6.04279e-09 -4.16505e-09 7.17945e-09)
(-4.30484e-08 3.11552e-09 6.40953e-09)
(5.47909e-08 -1.31414e-08 1.45582e-08)
(9.94047e-09 -1.65461e-08 1.55103e-08)
(8.56488e-10 -1.90702e-08 1.60205e-08)
(-7.4553e-09 -1.75033e-08 1.54431e-08)
(-4.636e-08 -1.52118e-08 1.44579e-08)
(5.62442e-08 -2.84993e-08 2.33155e-08)
(1.01551e-08 -2.99243e-08 2.41843e-08)
(1.41044e-09 -3.14274e-08 2.46944e-08)
(-6.57532e-09 -3.08372e-08 2.40768e-08)
(-4.66262e-08 -3.03979e-08 2.31389e-08)
(5.83021e-08 -3.98703e-08 3.16615e-08)
(1.03857e-08 -4.2234e-08 3.23688e-08)
(1.89245e-09 -4.38572e-08 3.28294e-08)
(-5.8374e-09 -4.30565e-08 3.22173e-08)
(-4.7567e-08 -4.15657e-08 3.13961e-08)
(6.43724e-08 -4.83013e-08 3.86678e-08)
(1.27285e-08 -5.37398e-08 3.9241e-08)
(2.28764e-09 -5.609e-08 3.96472e-08)
(-7.36575e-09 -5.44485e-08 3.90447e-08)
(-5.26171e-08 -4.97427e-08 3.83081e-08)
(7.81874e-08 -5.81062e-08 4.34876e-08)
(1.92206e-08 -6.67915e-08 4.40213e-08)
(2.56931e-09 -6.9226e-08 4.43916e-08)
(-1.32488e-08 -6.73418e-08 4.37861e-08)
(-6.55481e-08 -5.91962e-08 4.30401e-08)
(1.01955e-07 -8.6972e-08 4.54896e-08)
(2.95861e-08 -9.34706e-08 4.61053e-08)
(2.67111e-09 -9.33143e-08 4.64811e-08)
(-2.3312e-08 -9.3518e-08 4.58517e-08)
(-8.8616e-08 -8.71617e-08 4.49835e-08)
(8.7516e-08 -1.42396e-07 4.53867e-08)
(3.55824e-08 -1.68702e-07 4.559e-08)
(2.57679e-09 -1.61604e-07 4.60809e-08)
(-2.93736e-08 -1.66034e-07 4.53598e-08)
(-7.70659e-08 -1.40158e-07 4.49511e-08)
(2.26085e-08 7.26911e-09 1.01902e-09)
(0 0 0)
(0 0 0)
(0 0 0)
(-1.94222e-08 6.11332e-09 1.01408e-09)
(4.88038e-08 4.95405e-09 4.57827e-09)
(7.14641e-09 -3.4938e-09 4.86741e-09)
(3.00906e-10 -7.60443e-09 5.02675e-09)
(-5.864e-09 -4.37552e-09 4.84804e-09)
(-4.17298e-08 2.70972e-09 4.55392e-09)
(5.34671e-08 -1.33327e-08 9.9677e-09)
(9.78209e-09 -1.67517e-08 1.02919e-08)
(8.63573e-10 -1.92449e-08 1.04959e-08)
(-7.28795e-09 -1.77271e-08 1.02512e-08)
(-4.50736e-08 -1.54389e-08 9.9089e-09)
(5.51365e-08 -2.85409e-08 1.56768e-08)
(1.0125e-08 -3.00802e-08 1.59171e-08)
(1.42951e-09 -3.16074e-08 1.61048e-08)
(-6.51204e-09 -3.1021e-08 1.58518e-08)
(-4.55304e-08 -3.04965e-08 1.55724e-08)
(5.74401e-08 -3.97171e-08 2.10893e-08)
(1.05019e-08 -4.22013e-08 2.12183e-08)
(1.92884e-09 -4.38666e-08 2.13683e-08)
(-5.88535e-09 -4.30589e-08 2.11253e-08)
(-4.66788e-08 -4.14851e-08 2.09296e-08)
(6.36898e-08 -4.79021e-08 2.55886e-08)
(1.29455e-08 -5.34056e-08 2.56357e-08)
(2.34444e-09 -5.57941e-08 2.57508e-08)
(-7.47293e-09 -5.41544e-08 2.55139e-08)
(-5.1861e-08 -4.94262e-08 2.53686e-08)
(7.75347e-08 -5.74947e-08 2.86378e-08)
(1.94435e-08 -6.61795e-08 2.8673e-08)
(2.64756e-09 -6.8657e-08 2.87702e-08)
(-1.33176e-08 -6.67725e-08 2.85263e-08)
(-6.47688e-08 -5.86719e-08 2.83612e-08)
(1.01129e-07 -8.59876e-08 2.9921e-08)
(2.97262e-08 -9.25297e-08 3.00232e-08)
(2.77052e-09 -9.24711e-08 3.01303e-08)
(-2.32538e-08 -9.26189e-08 2.98647e-08)
(-8.76077e-08 -8.62629e-08 2.96066e-08)
(8.70361e-08 -1.40643e-07 2.9857e-08)
(3.57301e-08 -1.66673e-07 2.98204e-08)
(2.69677e-09 -1.59792e-07 2.9993e-08)
(-2.92804e-08 -1.64046e-07 2.96769e-08)
(-7.63595e-08 -1.38478e-07 2.95859e-08)
(2.22888e-08 7.16662e-09 5.38272e-10)
(0 0 0)
(0 0 0)
(0 0 0)
(-1.91154e-08 6.01216e-09 5.35925e-10)
(4.81621e-08 4.85267e-09 2.35639e-09)
(7.09874e-09 -3.53215e-09 2.45582e-09)
(3.0118e-10 -7.6011e-09 2.51249e-09)
(-5.81803e-09 -4.4174e-09 2.44666e-09)
(-4.11139e-08 2.60337e-09 2.34502e-09)
(5.28812e-08 -1.32485e-08 5.04185e-09)
(9.7731e-09 -1.66997e-08 5.13979e-09)
(8.66451e-10 -1.91879e-08 5.20794e-09)
(-7.27574e-09 -1.76856e-08 5.12061e-09)
(-4.45087e-08 -1.53746e-08 5.01459e-09)
(5.46831e-08 -2.83237e-08 7.84885e-09)
(1.01969e-08 -2.99365e-08 7.89992e-09)
(1.43861e-09 -3.1484e-08 7.95601e-09)
(-6.56813e-09 -3.08938e-08 7.86915e-09)
(-4.50845e-08 -3.0312e-08 7.8003e-09)
(5.71254e-08 -3.94136e-08 1.04965e-08)
(1.06564e-08 -4.19662e-08 1.04931e-08)
(1.94747e-09 -4.36575e-08 1.05296e-08)
(-6.00468e-09 -4.28447e-08 1.0449e-08)
(-4.63505e-08 -4.1224e-08 1.04215e-08)
(6.34689e-08 -4.75533e-08 1.26885e-08)
(1.3153e-08 -5.30887e-08 1.26478e-08)
(2.37479e-09 -5.54978e-08 1.26677e-08)
(-7.62142e-09 -5.38612e-08 1.25897e-08)
(-5.15996e-08 -4.9126e-08 1.25843e-08)
(7.73167e-08 -5.71376e-08 1.41712e-08)
(1.96494e-08 -6.58134e-08 1.41283e-08)
(2.69055e-09 -6.83104e-08 1.41411e-08)
(-1.34385e-08 -6.64312e-08 1.4058e-08)
(-6.44797e-08 -5.83658e-08 1.40394e-08)
(1.00798e-07 -8.54974e-08 1.48089e-08)
(2.98811e-08 -9.20477e-08 1.48011e-08)
(2.82608e-09 -9.20333e-08 1.48201e-08)
(-2.32977e-08 -9.21611e-08 1.47251e-08)
(-8.71731e-08 -8.58223e-08 1.46586e-08)
(8.68761e-08 -1.39751e-07 1.47912e-08)
(3.58783e-08 -1.65612e-07 1.47368e-08)
(2.76431e-09 -1.58834e-07 1.47838e-08)
(-2.92926e-08 -1.63008e-07 1.4668e-08)
(-7.60713e-08 -1.37628e-07 1.46614e-08)
(1.81488e-08 7.23808e-09 0)
(2.43085e-09 1.35308e-09 0)
(1.76032e-11 -1.07299e-09 0)
(-2.10447e-09 9.59572e-10 0)
(-1.56242e-08 6.02568e-09 0)
(3.08274e-08 2.59615e-09 0)
(7.08801e-09 -3.53289e-09 0)
(3.01187e-10 -7.59045e-09 0)
(-5.80795e-09 -4.41925e-09 0)
(-2.63285e-08 7.5304e-10 0)
(3.53153e-08 -1.37949e-08 0)
(9.77697e-09 -1.66579e-08 0)
(8.67215e-10 -1.91462e-08 0)
(-7.27883e-09 -1.76472e-08 0)
(-2.95015e-08 -1.56239e-08 0)
(3.65241e-08 -2.83756e-08 0)
(1.02274e-08 -2.98553e-08 0)
(1.4413e-09 -3.14101e-08 0)
(-6.59388e-09 -3.0818e-08 0)
(-2.95339e-08 -3.01049e-08 0)
(3.81117e-08 -3.98284e-08 0)
(1.07129e-08 -4.18572e-08 0)
(1.95319e-09 -4.35572e-08 0)
(-6.05042e-09 -4.27426e-08 0)
(-3.00128e-08 -4.14093e-08 0)
(4.31354e-08 -4.90824e-08 0)
(1.32258e-08 -5.29664e-08 0)
(2.38432e-09 -5.53819e-08 0)
(-7.67567e-09 -5.37468e-08 0)
(-3.40284e-08 -5.04649e-08 0)
(5.48638e-08 -6.01819e-08 0)
(1.9721e-08 -6.56909e-08 0)
(2.70425e-09 -6.81932e-08 0)
(-1.3483e-08 -6.63168e-08 0)
(-4.49001e-08 -6.12744e-08 0)
(7.44301e-08 -8.86377e-08 0)
(2.99359e-08 -9.18975e-08 0)
(2.84393e-09 -9.18954e-08 0)
(-2.33169e-08 -9.20188e-08 0)
(-6.38255e-08 -8.89012e-08 0)
(7.69488e-08 -1.30619e-07 0)
(3.57999e-08 -1.38039e-07 0)
(2.82153e-09 -1.33574e-07 0)
(-2.91274e-08 -1.36598e-07 0)
(-6.71455e-08 -1.29072e-07 0)
)
;

boundaryField
{
    interface
    {
        type            calculated;
    }
    symmetry
    {
        type            symmetry;
    }
    bottom
    {
        type            calculated;
    }
}


// ************************************************************************* //
