/*--------------------------------*- C++ -*----------------------------------*\
| =========                 |                                                 |
| \\      /  F ield         | OpenFOAM: The Open Source CFD Toolbox           |
|  \\    /   O peration     | Version:  v1912                                 |
|   \\  /    A nd           | Website:  www.openfoam.com                      |
|    \\/     M anipulation  |                                                 |
\*---------------------------------------------------------------------------*/
FoamFile
{
    version     2.0;
    format      ascii;
    class       volScalarField;
    location    "1/solid";
    object      sigmaHyd;
}
// * * * * * * * * * * * * * * * * * * * * * * * * * * * * * * * * * * * * * //

dimensions      [1 -1 -2 0 0 0 0];


internalField   nonuniform List<scalar> 
256
(
-718517
-393964
-384691
-664559
-1.12484e+06
-716402
-701972
-1.05456e+06
-1.18523e+06
-781384
-766101
-1.1127e+06
-1.20867e+06
-806759
-791147
-1.1348e+06
-1.25354e+06
-843876
-827973
-1.17826e+06
-1.35556e+06
-929551
-913213
-1.27851e+06
-1.60316e+06
-1.15427e+06
-1.13627e+06
-1.52122e+06
-2.16705e+06
-1.69532e+06
-1.66902e+06
-2.06186e+06
-394735
-149746
-146966
-360384
-665406
-336242
-329667
-618273
-715617
-394123
-386816
-666661
-736284
-420190
-412620
-686214
-770061
-449041
-441275
-718779
-850433
-512371
-504293
-797548
-1.06761e+06
-694290
-684685
-1.00989e+06
-1.60436e+06
-1.15472e+06
-1.13657e+06
-1.52175e+06
-310236
-98456.3
-96457
-279143
-496145
-208730
-203623
-453965
-532712
-251577
-245815
-488835
-550401
-273875
-267841
-505348
-579596
-298244
-291994
-533203
-650730
-351543
-344952
-602515
-851007
-512137
-503983
-797640
-1.35723e+06
-929594
-912976
-1.27888e+06
-287392
-91046.9
-89187.1
-257452
-441568
-175744
-170954
-401059
-470763
-209642
-204225
-428597
-486365
-228528
-222827
-442952
-513487
-250303
-244359
-468610
-580433
-299049
-292731
-533546
-770813
-448907
-440989
-718514
-1.25431e+06
-842564
-826225
-1.17695e+06
-278626
-90248.1
-88474
-249403
-421708
-166400
-161763
-382162
-447646
-195791
-190539
-406467
-461833
-212242
-206699
-419368
-487603
-232149
-226348
-443592
-552098
-278318
-272120
-505951
-736443
-422505
-414679
-684711
-1.20573e+06
-803745
-787500
-1.12883e+06
-273526
-90065.3
-88354.3
-244760
-412245
-162850
-158317
-373305
-436776
-190037
-184896
-396222
-450050
-204982
-199547
-408191
-474853
-223623
-217921
-431398
-537783
-268242
-262128
-492113
-718485
-409295
-401534
-667121
-1.1791e+06
-783469
-767282
-1.10248e+06
-270223
-89847.2
-88175.8
-241723
-406973
-161195
-156726
-368389
-430868
-187334
-182263
-390684
-443599
-201448
-196082
-402099
-467775
-219333
-213695
-424652
-529771
-263070
-257011
-484388
-708401
-402401
-394683
-657260
-1.16393e+06
-772423
-756271
-1.08746e+06
-268544
-89678.3
-88025.8
-240167
-404471
-160482
-156042
-366050
-428105
-186199
-181161
-388091
-440581
-199949
-194614
-399248
-464452
-217485
-211877
-421484
-526014
-260822
-254790
-480764
-703701
-399374
-391678
-652664
-1.15685e+06
-767417
-751281
-1.08045e+06
)
;

boundaryField
{
    interface
    {
        type            zeroGradient;
    }
    symmetry
    {
        type            symmetry;
    }
    bottom
    {
        type            zeroGradient;
    }
}


// ************************************************************************* //
