/*--------------------------------*- C++ -*----------------------------------*\
| =========                 |                                                 |
| \\      /  F ield         | OpenFOAM: The Open Source CFD Toolbox           |
|  \\    /   O peration     | Version:  v1912                                 |
|   \\  /    A nd           | Website:  www.openfoam.com                      |
|    \\/     M anipulation  |                                                 |
\*---------------------------------------------------------------------------*/
FoamFile
{
    version     2.0;
    format      ascii;
    class       volVectorField;
    location    "1/solid";
    object      U;
}
// * * * * * * * * * * * * * * * * * * * * * * * * * * * * * * * * * * * * * //

dimensions      [0 1 -1 0 0 0 0];


internalField   nonuniform List<vector> 
256
(
(1.65785e-08 1.8526e-08 2.21995e-08)
(3.94035e-09 1.26367e-08 2.19054e-08)
(-5.90267e-09 1.19771e-08 2.09597e-08)
(-1.64558e-08 1.64167e-08 1.9396e-08)
(3.20515e-08 1.76988e-08 5.42936e-08)
(8.11638e-09 1.20445e-08 5.36325e-08)
(-1.29067e-08 1.18989e-08 5.16347e-08)
(-3.38349e-08 1.77016e-08 4.83121e-08)
(3.5958e-08 3.48389e-09 7.8149e-08)
(8.48594e-09 9.85488e-10 7.67671e-08)
(-1.65394e-08 1.64744e-09 7.4138e-08)
(-4.09044e-08 6.0035e-09 7.02563e-08)
(3.51407e-08 -1.40966e-08 9.79803e-08)
(6.74414e-09 -1.46827e-08 9.56831e-08)
(-1.90172e-08 -1.32201e-08 9.26038e-08)
(-4.42539e-08 -9.27418e-09 8.87235e-08)
(3.41939e-08 -3.36714e-08 1.16836e-07)
(4.61291e-09 -3.38427e-08 1.13597e-07)
(-2.21645e-08 -3.16167e-08 1.1014e-07)
(-4.85152e-08 -2.66752e-08 1.06436e-07)
(3.59159e-08 -5.7674e-08 1.36393e-07)
(3.18067e-09 -5.76336e-08 1.32473e-07)
(-2.7147e-08 -5.46348e-08 1.28661e-07)
(-5.65644e-08 -4.84719e-08 1.24925e-07)
(4.08243e-08 -9.11777e-08 1.55749e-07)
(2.56337e-09 -8.97451e-08 1.52103e-07)
(-3.42433e-08 -8.5858e-08 1.47944e-07)
(-6.89722e-08 -7.94288e-08 1.43259e-07)
(4.41515e-08 -1.31216e-07 1.68925e-07)
(1.22404e-09 -1.28041e-07 1.66523e-07)
(-4.21189e-08 -1.22898e-07 1.62088e-07)
(-8.09999e-08 -1.15754e-07 1.55669e-07)
(1.19776e-08 7.0881e-09 1.06378e-08)
(2.82953e-09 1.83153e-09 1.13832e-08)
(-3.65417e-09 1.63868e-09 1.09346e-08)
(-1.10097e-08 5.96966e-09 9.31837e-09)
(2.39492e-08 8.87617e-10 3.27438e-08)
(6.12384e-09 -4.0383e-09 3.41577e-08)
(-8.15286e-09 -3.78372e-09 3.29311e-08)
(-2.3421e-08 1.64249e-09 2.91781e-08)
(2.68976e-08 -1.26654e-08 5.32082e-08)
(6.46339e-09 -1.47632e-08 5.45951e-08)
(-1.05534e-08 -1.38544e-08 5.28152e-08)
(-2.83991e-08 -9.74875e-09 4.80121e-08)
(2.59159e-08 -2.86366e-08 7.15508e-08)
(4.97921e-09 -2.9104e-08 7.25528e-08)
(-1.23449e-08 -2.74921e-08 7.03661e-08)
(-3.06912e-08 -2.36231e-08 6.51266e-08)
(2.50424e-08 -4.63905e-08 8.8769e-08)
(3.14989e-09 -4.67003e-08 8.92302e-08)
(-1.50131e-08 -4.43799e-08 8.67006e-08)
(-3.42758e-08 -3.93132e-08 8.13038e-08)
(2.73177e-08 -6.73873e-08 1.05421e-07)
(2.12178e-09 -6.77074e-08 1.05311e-07)
(-1.97248e-08 -6.46614e-08 1.02467e-07)
(-4.22104e-08 -5.82047e-08 9.70033e-08)
(3.39726e-08 -9.588e-08 1.20163e-07)
(2.19807e-09 -9.45416e-08 1.19657e-07)
(-2.69296e-08 -9.06931e-08 1.16548e-07)
(-5.57447e-08 -8.43456e-08 1.1093e-07)
(3.99364e-08 -1.3146e-07 1.289e-07)
(1.6489e-09 -1.26981e-07 1.28248e-07)
(-3.51231e-08 -1.2203e-07 1.25029e-07)
(-6.9839e-08 -1.16551e-07 1.19285e-07)
(7.31596e-09 2.60031e-09 5.45828e-09)
(1.55615e-09 -1.55929e-09 6.68302e-09)
(-1.83414e-09 -1.70516e-09 6.37819e-09)
(-5.87186e-09 1.4081e-09 4.5877e-09)
(1.5271e-08 -7.62099e-09 2.04011e-08)
(3.66994e-09 -1.15922e-08 2.2773e-08)
(-4.10204e-09 -1.1314e-08 2.19256e-08)
(-1.32834e-08 -7.07335e-09 1.79906e-08)
(1.71989e-08 -2.21401e-08 3.69525e-08)
(3.85039e-09 -2.38918e-08 3.9575e-08)
(-5.38186e-09 -2.3011e-08 3.82936e-08)
(-1.63206e-08 -1.95423e-08 3.32725e-08)
(1.61998e-08 -3.73765e-08 5.30757e-08)
(2.59551e-09 -3.79163e-08 5.55183e-08)
(-6.56286e-09 -3.63786e-08 5.38874e-08)
(-1.77855e-08 -3.27652e-08 4.83435e-08)
(1.55538e-08 -5.31253e-08 6.80919e-08)
(1.06803e-09 -5.37618e-08 7.01736e-08)
(-8.81469e-09 -5.15516e-08 6.82407e-08)
(-2.08943e-08 -4.65125e-08 6.24402e-08)
(1.83754e-08 -7.0726e-08 8.143e-08)
(4.28801e-10 -7.15267e-08 8.30546e-08)
(-1.33028e-08 -6.8629e-08 8.08556e-08)
(-2.87562e-08 -6.20808e-08 7.49611e-08)
(2.62552e-08 -9.45122e-08 9.15005e-08)
(1.10315e-09 -9.35179e-08 9.26116e-08)
(-2.05784e-08 -8.987e-08 9.02184e-08)
(-4.29551e-08 -8.36259e-08 8.44021e-08)
(3.39551e-08 -1.25533e-07 9.54305e-08)
(1.2009e-09 -1.20692e-07 9.61249e-08)
(-2.89402e-08 -1.15997e-07 9.37057e-08)
(-5.82553e-08 -1.1139e-07 8.81619e-08)
(4.68956e-09 6.53832e-10 3.96415e-09)
(8.40248e-10 -2.59669e-09 4.92945e-09)
(-8.48374e-10 -2.78092e-09 4.70397e-09)
(-2.95237e-09 -7.49992e-10 3.33536e-09)
(1.03433e-08 -1.11686e-08 1.50695e-08)
(2.27355e-09 -1.44061e-08 1.69179e-08)
(-1.7912e-09 -1.42379e-08 1.63078e-08)
(-7.43124e-09 -1.10715e-08 1.33618e-08)
(1.18383e-08 -2.63844e-08 2.80586e-08)
(2.45e-09 -2.7937e-08 3.00797e-08)
(-2.36915e-09 -2.7204e-08 2.91485e-08)
(-9.36004e-09 -2.43385e-08 2.54157e-08)
(1.11355e-08 -4.12548e-08 4.1272e-08)
(1.49251e-09 -4.1943e-08 4.31226e-08)
(-3.17057e-09 -4.05768e-08 4.1914e-08)
(-1.046e-08 -3.72438e-08 3.77948e-08)
(1.09549e-08 -5.55047e-08 5.35143e-08)
(3.16297e-10 -5.64598e-08 5.50615e-08)
(-5.16039e-09 -5.44402e-08 5.3605e-08)
(-1.34261e-08 -4.9524e-08 4.92801e-08)
(1.42802e-08 -7.06392e-08 6.36858e-08)
(1.67873e-11 -7.18535e-08 6.4883e-08)
(-9.45043e-09 -6.91652e-08 6.32124e-08)
(-2.12466e-08 -6.26571e-08 5.87859e-08)
(2.26729e-08 -9.13677e-08 7.03063e-08)
(1.01541e-09 -9.0857e-08 7.11394e-08)
(-1.65759e-08 -8.74348e-08 6.93253e-08)
(-3.54658e-08 -8.11725e-08 6.49223e-08)
(3.08979e-08 -1.19664e-07 7.16994e-08)
(1.41427e-09 -1.15337e-07 7.23063e-08)
(-2.47926e-08 -1.10871e-07 7.04935e-08)
(-5.08269e-08 -1.06217e-07 6.62269e-08)
(3.6213e-09 -1.20085e-10 3.27378e-09)
(5.92257e-10 -2.87565e-09 3.80138e-09)
(-4.57054e-10 -3.09882e-09 3.63929e-09)
(-1.7017e-09 -1.69178e-09 2.82916e-09)
(8.42159e-09 -1.23037e-08 1.17167e-08)
(1.8348e-09 -1.51796e-08 1.26872e-08)
(-8.11684e-10 -1.51279e-08 1.22553e-08)
(-4.92709e-09 -1.26096e-08 1.05232e-08)
(9.94376e-09 -2.7613e-08 2.14867e-08)
(2.14715e-09 -2.91428e-08 2.2479e-08)
(-1.04536e-09 -2.85683e-08 2.18188e-08)
(-6.41696e-09 -2.60887e-08 1.9632e-08)
(9.65872e-09 -4.21426e-08 3.15302e-08)
(1.49386e-09 -4.30216e-08 3.23374e-08)
(-1.64439e-09 -4.1834e-08 3.14717e-08)
(-7.43814e-09 -3.87051e-08 2.90588e-08)
(9.96676e-09 -5.54568e-08 4.07637e-08)
(6.43369e-10 -5.6684e-08 4.13163e-08)
(-3.47216e-09 -5.48539e-08 4.02618e-08)
(-1.04081e-08 -5.00707e-08 3.77146e-08)
(1.3668e-08 -6.92096e-08 4.80989e-08)
(6.05971e-10 -7.0728e-08 4.84029e-08)
(-7.57822e-09 -6.82352e-08 4.71857e-08)
(-1.81547e-08 -6.18275e-08 4.45392e-08)
(2.2196e-08 -8.8419e-08 5.24121e-08)
(1.76156e-09 -8.83101e-08 5.25101e-08)
(-1.44567e-08 -8.50822e-08 5.11877e-08)
(-3.2097e-08 -7.88122e-08 4.8488e-08)
(3.04428e-08 -1.15449e-07 5.28737e-08)
(2.28538e-09 -1.11742e-07 5.29066e-08)
(-2.24204e-08 -1.07459e-07 5.15908e-08)
(-4.70951e-08 -1.02558e-07 4.88927e-08)
(3.27369e-09 -3.86403e-10 2.51412e-09)
(5.54528e-10 -2.92952e-09 2.74288e-09)
(-3.41211e-10 -3.18077e-09 2.63458e-09)
(-1.24382e-09 -2.07178e-09 2.22046e-09)
(7.89285e-09 -1.24443e-08 8.54703e-09)
(1.83123e-09 -1.52055e-08 8.9304e-09)
(-4.87335e-10 -1.52421e-08 8.64321e-09)
(-4.03991e-09 -1.30417e-08 7.76135e-09)
(9.60919e-09 -2.75087e-08 1.53472e-08)
(2.31358e-09 -2.91109e-08 1.5673e-08)
(-5.76032e-10 -2.8662e-08 1.52335e-08)
(-5.41786e-09 -2.63821e-08 1.4123e-08)
(9.6943e-09 -4.16868e-08 2.23e-08)
(1.90772e-09 -4.27478e-08 2.24639e-08)
(-1.06949e-09 -4.17045e-08 2.18844e-08)
(-6.46311e-09 -3.86993e-08 2.06567e-08)
(1.03814e-08 -5.44698e-08 2.86331e-08)
(1.30585e-09 -5.59042e-08 2.86092e-08)
(-2.78803e-09 -5.42263e-08 2.78986e-08)
(-9.45691e-09 -4.95526e-08 2.65879e-08)
(1.43285e-08 -6.75899e-08 3.35324e-08)
(1.45368e-09 -6.93101e-08 3.33479e-08)
(-6.73886e-09 -6.69702e-08 3.25236e-08)
(-1.71078e-08 -6.0674e-08 3.11283e-08)
(2.28706e-08 -8.61866e-08 3.62619e-08)
(2.69736e-09 -8.63376e-08 3.59712e-08)
(-1.33907e-08 -8.32566e-08 3.50739e-08)
(-3.07461e-08 -7.70249e-08 3.36019e-08)
(3.10344e-08 -1.12654e-07 3.64304e-08)
(3.28525e-09 -1.09378e-07 3.61349e-08)
(-2.11269e-08 -1.05231e-07 3.52435e-08)
(-4.53663e-08 -1.00174e-07 3.37312e-08)
(3.17783e-09 -4.55292e-10 1.58312e-09)
(5.70761e-10 -2.91935e-09 1.66574e-09)
(-3.16784e-10 -3.1884e-09 1.60387e-09)
(-1.08582e-09 -2.21041e-09 1.41661e-09)
(7.81335e-09 -1.22832e-08 5.21804e-09)
(1.9222e-09 -1.50322e-08 5.33357e-09)
(-3.98707e-10 -1.51254e-08 5.16963e-09)
(-3.75451e-09 -1.30644e-08 4.77252e-09)
(9.70753e-09 -2.70506e-08 9.22523e-09)
(2.53573e-09 -2.87368e-08 9.27965e-09)
(-4.2912e-10 -2.83708e-08 9.02842e-09)
(-5.12579e-09 -2.61826e-08 8.52953e-09)
(1.00446e-08 -4.09427e-08 1.32857e-08)
(2.29438e-09 -4.21381e-08 1.32337e-08)
(-8.65938e-10 -4.11918e-08 1.29013e-08)
(-6.20608e-09 -3.82545e-08 1.23475e-08)
(1.09727e-08 -5.34465e-08 1.6955e-08)
(1.85267e-09 -5.50169e-08 1.67906e-08)
(-2.51202e-09 -5.34416e-08 1.63813e-08)
(-9.21014e-09 -4.88439e-08 1.57811e-08)
(1.50657e-08 -6.63226e-08 1.97547e-08)
(2.11846e-09 -6.81629e-08 1.95015e-08)
(-6.35288e-09 -6.59254e-08 1.90251e-08)
(-1.6779e-08 -5.97186e-08 1.83685e-08)
(2.36025e-08 -8.47125e-08 2.12788e-08)
(3.41832e-09 -8.50076e-08 2.0975e-08)
(-1.28469e-08 -8.20237e-08 2.04556e-08)
(-3.01972e-08 -7.58458e-08 1.97404e-08)
(3.16991e-08 -1.10926e-07 2.13466e-08)
(4.04637e-09 -1.0789e-07 2.10491e-08)
(-2.04265e-08 -1.03831e-07 2.05332e-08)
(-4.45516e-08 -9.87161e-08 1.97843e-08)
(3.15485e-09 -4.63569e-10 5.39979e-10)
(5.84942e-10 -2.90248e-09 5.59551e-10)
(-3.13717e-10 -3.18015e-09 5.39455e-10)
(-1.0349e-09 -2.25184e-09 4.8609e-10)
(7.82155e-09 -1.21402e-08 1.75481e-09)
(1.9813e-09 -1.4898e-08 1.77664e-09)
(-3.77398e-10 -1.50187e-08 1.72339e-09)
(-3.66888e-09 -1.30096e-08 1.61056e-09)
(9.81068e-09 -2.67251e-08 3.07814e-09)
(2.66193e-09 -2.84614e-08 3.07584e-09)
(-3.86049e-10 -2.81361e-08 2.99415e-09)
(-5.04841e-09 -2.59832e-08 2.85258e-09)
(1.02709e-08 -4.04601e-08 4.41118e-09)
(2.50067e-09 -4.1725e-08 4.37231e-09)
(-7.9676e-10 -4.08268e-08 4.26405e-09)
(-6.14753e-09 -3.79198e-08 4.10634e-09)
(1.13133e-08 -5.2844e-08 5.61049e-09)
(2.13618e-09 -5.44811e-08 5.53448e-09)
(-2.4059e-09 -5.2957e-08 5.40091e-09)
(-9.15282e-09 -4.8398e-08 5.22805e-09)
(1.54745e-08 -6.5644e-08 6.52044e-09)
(2.45955e-09 -6.75401e-08 6.41606e-09)
(-6.19052e-09 -6.53535e-08 6.26033e-09)
(-1.66763e-08 -5.91953e-08 6.06775e-09)
(2.40089e-08 -8.39773e-08 7.01189e-09)
(3.78861e-09 -8.43354e-08 6.89248e-09)
(-1.26059e-08 -8.13997e-08 6.72251e-09)
(-2.9984e-08 -7.52574e-08 6.50871e-09)
(3.2073e-08 -1.1009e-07 7.03085e-09)
(4.43754e-09 -1.07157e-07 6.9143e-09)
(-2.01075e-08 -1.03142e-07 6.74546e-09)
(-4.42063e-08 -9.80143e-08 6.51958e-09)
)
;

boundaryField
{
    interface
    {
        type            calculated;
        value           nonuniform List<vector> 
192
(
(2.15794e-08 3.06835e-08 2.0715e-08)
(3.74021e-08 2.25437e-08 5.17032e-08)
(4.16983e-08 4.25611e-09 7.53594e-08)
(4.12617e-08 -1.45377e-08 9.52884e-08)
(4.05e-08 -3.34776e-08 1.14325e-07)
(4.21295e-08 -5.60164e-08 1.3418e-07)
(4.73039e-08 -8.91188e-08 1.54072e-07)
(5.01458e-08 -1.30636e-07 1.67921e-07)
(1.54908e-08 1.60698e-08 8.32218e-09)
(2.84436e-08 4.61758e-09 2.85487e-08)
(3.17321e-08 -1.21738e-08 4.85185e-08)
(3.09491e-08 -2.91004e-08 6.68156e-08)
(3.01674e-08 -4.60401e-08 8.4109e-08)
(3.24583e-08 -6.51548e-08 1.01035e-07)
(3.99599e-08 -9.27253e-08 1.16521e-07)
(4.65125e-08 -1.30219e-07 1.26351e-07)
(9.50765e-09 8.24707e-09 3.63629e-09)
(1.84697e-08 -5.15027e-09 1.69997e-08)
(2.0769e-08 -2.19079e-08 3.31877e-08)
(1.99784e-08 -3.77879e-08 4.93807e-08)
(1.9487e-08 -5.25815e-08 6.45701e-08)
(2.24949e-08 -6.80507e-08 7.81706e-08)
(3.14986e-08 -9.06173e-08 8.86756e-08)
(4.04039e-08 -1.23773e-07 9.31709e-08)
(6.19902e-09 4.41205e-09 3.0405e-09)
(1.30359e-08 -9.38149e-09 1.33572e-08)
(1.49797e-08 -2.61864e-08 2.62448e-08)
(1.45493e-08 -4.14757e-08 3.96368e-08)
(1.46247e-08 -5.47186e-08 5.21176e-08)
(1.83096e-08 -6.77098e-08 6.2509e-08)
(2.80283e-08 -8.72133e-08 6.92915e-08)
(3.7652e-08 -1.17644e-07 7.08213e-08)
(4.75155e-09 2.89065e-09 2.91982e-09)
(1.07743e-08 -1.07231e-08 1.11041e-08)
(1.27925e-08 -2.73038e-08 2.09294e-08)
(1.2839e-08 -4.21369e-08 3.11699e-08)
(1.34866e-08 -5.44545e-08 4.06203e-08)
(1.76663e-08 -6.61523e-08 4.8111e-08)
(2.76397e-08 -8.42253e-08 5.24615e-08)
(3.73367e-08 -1.13318e-07 5.29079e-08)
(4.20789e-09 2.40524e-09 2.40326e-09)
(1.00275e-08 -1.08604e-08 8.39499e-09)
(1.22641e-08 -2.70584e-08 1.52882e-08)
(1.27248e-08 -4.14938e-08 2.23965e-08)
(1.38109e-08 -5.33113e-08 2.88846e-08)
(1.83098e-08 -6.44677e-08 3.38818e-08)
(2.83587e-08 -8.20102e-08 3.66135e-08)
(3.7969e-08 -1.10478e-07 3.67445e-08)
(4.02595e-09 2.29251e-09 1.55341e-09)
(9.83535e-09 -1.06508e-08 5.20023e-09)
(1.22627e-08 -2.64928e-08 9.27562e-09)
(1.30037e-08 -4.06265e-08 1.34298e-08)
(1.43679e-08 -5.21913e-08 1.7188e-08)
(1.90541e-08 -6.31652e-08 2.00412e-08)
(2.91265e-08 -8.05541e-08 2.15633e-08)
(3.8654e-08 -1.08733e-07 2.16063e-08)
(3.97274e-09 2.28054e-09 5.34236e-10)
(9.79891e-09 -1.04762e-08 1.75687e-09)
(1.23274e-08 -2.61128e-08 3.10393e-09)
(1.32051e-08 -4.00846e-08 4.46775e-09)
(1.47013e-08 -5.15432e-08 5.69566e-09)
(1.94742e-08 -6.24701e-08 6.62267e-09)
(2.95551e-08 -7.98277e-08 7.11349e-09)
(3.90401e-08 -1.07891e-07 7.12433e-09)
(1.72471e-08 3.76492e-08 2.52353e-08)
(3.31812e-08 3.16862e-08 5.73957e-08)
(3.70072e-08 1.44056e-08 8.16388e-08)
(3.59123e-08 -4.42481e-09 1.0192e-07)
(3.46395e-08 -2.40682e-08 1.2098e-07)
(3.60423e-08 -4.79458e-08 1.40317e-07)
(4.07512e-08 -8.30445e-08 1.59595e-07)
(4.40533e-08 -1.26783e-07 1.71922e-07)
(3.63031e-09 3.15212e-08 2.4372e-08)
(7.45147e-09 2.576e-08 5.61017e-08)
(7.48301e-09 1.14982e-08 7.92129e-08)
(5.39988e-09 -5.475e-09 9.81762e-08)
(2.93877e-09 -2.46451e-08 1.15998e-07)
(1.24751e-09 -4.80071e-08 1.34512e-07)
(6.12248e-10 -8.12326e-08 1.54419e-07)
(-4.85195e-10 -1.23411e-07 1.68902e-07)
(-6.53012e-09 3.01257e-08 2.24092e-08)
(-1.4237e-08 2.51935e-08 5.32602e-08)
(-1.81673e-08 1.18898e-08 7.57353e-08)
(-2.07573e-08 -4.21953e-09 9.42189e-08)
(-2.39551e-08 -2.26025e-08 1.11633e-07)
(-2.90341e-08 -4.51836e-08 1.29764e-07)
(-3.64544e-08 -7.7501e-08 1.49299e-07)
(-4.48323e-08 -1.18328e-07 1.63425e-07)
(-1.7885e-08 3.33437e-08 1.94157e-08)
(-3.66787e-08 3.04167e-08 4.86362e-08)
(-4.42831e-08 1.61065e-08 7.08749e-08)
(-4.78083e-08 -2.29245e-10 8.96842e-08)
(-5.21237e-08 -1.76246e-08 1.07512e-07)
(-6.02023e-08 -3.92659e-08 1.25715e-07)
(-7.27389e-08 -7.17427e-08 1.43917e-07)
(-8.49999e-08 -1.11484e-07 1.55376e-07)
(-1.55177e-08 2.89893e-08 1.73198e-08)
(-3.32934e-08 2.38137e-08 4.42865e-08)
(-4.0634e-08 8.6083e-09 6.54404e-08)
(-4.42226e-08 -7.37135e-09 8.35554e-08)
(-4.85272e-08 -2.35974e-08 1.01071e-07)
(-5.63329e-08 -4.33574e-08 1.19518e-07)
(-6.87673e-08 -7.33198e-08 1.38068e-07)
(-7.99547e-08 -1.10554e-07 1.50879e-07)
(-8.94306e-09 1.45773e-08 6.67237e-09)
(-2.23929e-08 5.98983e-09 2.40402e-08)
(-2.76473e-08 -7.93114e-09 4.18661e-08)
(-3.00358e-08 -2.21538e-08 5.85094e-08)
(-3.3594e-08 -3.64333e-08 7.43985e-08)
(-4.13981e-08 -5.28374e-08 9.00512e-08)
(-5.55099e-08 -7.74383e-08 1.04425e-07)
(-6.96826e-08 -1.10939e-07 1.13599e-07)
(-2.6316e-09 6.19688e-09 2.57334e-09)
(-1.11462e-08 -4.46116e-09 1.39931e-08)
(-1.45152e-08 -1.84168e-08 2.85127e-08)
(-1.61016e-08 -3.16216e-08 4.32856e-08)
(-1.92519e-08 -4.37697e-08 5.72276e-08)
(-2.71497e-08 -5.65654e-08 6.97201e-08)
(-4.21825e-08 -7.6251e-08 7.93322e-08)
(-5.81403e-08 -1.05522e-07 8.34088e-08)
(9.30997e-10 1.84589e-09 2.2928e-09)
(-4.84598e-09 -9.46957e-09 1.12726e-08)
(-7.19637e-09 -2.35813e-08 2.29397e-08)
(-8.49123e-09 -3.62273e-08 3.52078e-08)
(-1.16024e-08 -4.68273e-08 4.66584e-08)
(-1.96243e-08 -5.7147e-08 5.61354e-08)
(-3.48688e-08 -7.37773e-08 6.22077e-08)
(-5.10748e-08 -1.0032e-07 6.34367e-08)
(2.55157e-09 -3.45914e-11 2.402e-09)
(-2.02266e-09 -1.14307e-08 9.67532e-09)
(-3.98942e-09 -2.54609e-08 1.86464e-08)
(-5.27076e-09 -3.77072e-08 2.80595e-08)
(-8.47025e-09 -4.73915e-08 3.67222e-08)
(-1.65334e-08 -5.64052e-08 4.35044e-08)
(-3.16135e-08 -7.1577e-08 4.7308e-08)
(-4.75058e-08 -9.67413e-08 4.75275e-08)
(3.20352e-09 -7.50866e-10 2.06647e-09)
(-9.25692e-10 -1.19982e-08 7.46816e-09)
(-2.80902e-09 -2.57763e-08 1.38002e-08)
(-4.16211e-09 -3.76895e-08 2.03486e-08)
(-7.44621e-09 -4.68913e-08 2.62883e-08)
(-1.54856e-08 -5.53516e-08 3.07843e-08)
(-3.03235e-08 -6.99602e-08 3.31268e-08)
(-4.58247e-08 -9.44573e-08 3.30953e-08)
(3.44893e-09 -1.00034e-09 1.36437e-09)
(-5.30337e-10 -1.20544e-08 4.67973e-09)
(-2.42213e-09 -2.55697e-08 8.43713e-09)
(-3.84044e-09 -3.72333e-08 1.22685e-08)
(-7.17252e-09 -4.62006e-08 1.5705e-08)
(-1.51705e-08 -5.44717e-08 1.82606e-08)
(-2.98159e-08 -6.89026e-08 1.95498e-08)
(-4.5035e-08 -9.30783e-08 1.94943e-08)
(3.5312e-09 -1.07591e-09 4.73359e-10)
(-4.00759e-10 -1.20062e-08 1.58914e-09)
(-2.30758e-09 -2.53635e-08 2.83323e-09)
(-3.75917e-09 -3.68936e-08 4.09169e-09)
(-7.11031e-09 -4.57658e-08 5.21371e-09)
(-1.50811e-08 -5.39874e-08 6.04207e-09)
(-2.96267e-08 -6.83748e-08 6.45541e-09)
(-4.47041e-08 -9.24184e-08 6.43325e-09)
(4.36479e-08 -1.34316e-07 1.71203e-07)
(3.94374e-08 -1.35495e-07 1.27479e-07)
(3.3625e-08 -1.29789e-07 9.24814e-08)
(3.08264e-08 -1.24392e-07 6.91784e-08)
(3.05817e-08 -1.20373e-07 5.1121e-08)
(3.13032e-08 -1.17628e-07 3.52996e-08)
(3.20365e-08 -1.15919e-07 2.07058e-08)
(3.24392e-08 -1.15093e-07 6.82202e-09)
(-8.55402e-10 -1.30518e-07 1.68573e-07)
(-7.08585e-10 -1.29477e-07 1.26411e-07)
(-1.18305e-09 -1.23033e-07 9.32139e-08)
(-7.84091e-10 -1.1823e-07 7.00687e-08)
(2.87938e-10 -1.14979e-07 5.14168e-08)
(1.42952e-09 -1.1278e-07 3.51718e-08)
(2.27262e-09 -1.11375e-07 2.04938e-08)
(2.70039e-09 -1.10679e-07 6.73113e-09)
(-4.51907e-08 -1.24321e-07 1.64156e-07)
(-3.77307e-08 -1.2354e-07 1.23304e-07)
(-3.12657e-08 -1.17358e-07 9.09158e-08)
(-2.70729e-08 -1.12783e-07 6.8359e-08)
(-2.47165e-08 -1.09712e-07 5.01807e-08)
(-2.3428e-08 -1.07646e-07 3.43363e-08)
(-2.272e-08 -1.06326e-07 2.00109e-08)
(-2.23933e-08 -1.05672e-07 6.57322e-09)
(-8.5386e-08 -1.15536e-07 1.58003e-07)
(-7.40148e-08 -1.17334e-07 1.18194e-07)
(-6.23412e-08 -1.12393e-07 8.55783e-08)
(-5.4939e-08 -1.07681e-07 6.40187e-08)
(-5.12291e-08 -1.04206e-07 4.7382e-08)
(-4.94891e-08 -1.01861e-07 3.27707e-08)
(-4.86495e-08 -1.00411e-07 1.92444e-08)
(-4.82865e-08 -9.97138e-08 6.34414e-09)
)
;
    }
    symmetry
    {
        type            symmetry;
    }
    bottom
    {
        type            calculated;
        value           uniform (0 0 0);
    }
}


// ************************************************************************* //
