/*--------------------------------*- C++ -*----------------------------------*\
| =========                 |                                                 |
| \\      /  F ield         | OpenFOAM: The Open Source CFD Toolbox           |
|  \\    /   O peration     | Version:  v1912                                 |
|   \\  /    A nd           | Website:  www.openfoam.com                      |
|    \\/     M anipulation  |                                                 |
\*---------------------------------------------------------------------------*/
FoamFile
{
    version     2.0;
    format      ascii;
    class       volVectorField;
    location    "0.27/fluid";
    object      cellMotionU;
}
// * * * * * * * * * * * * * * * * * * * * * * * * * * * * * * * * * * * * * //

dimensions      [0 1 -1 0 0 0 0];


internalField   nonuniform List<vector> 
14592
(
(2.00692e-10 -5.55147e-10 4.16531e-10)
(5.57802e-10 -1.55397e-09 1.17813e-09)
(8.82628e-10 -2.48504e-09 1.92577e-09)
(1.18246e-09 -3.38393e-09 2.70505e-09)
(1.46705e-09 -4.27888e-09 3.56521e-09)
(1.74312e-09 -5.17721e-09 4.54239e-09)
(2.01877e-09 -6.07579e-09 5.67412e-09)
(2.30331e-09 -6.95567e-09 6.99637e-09)
(2.61229e-09 -7.76855e-09 8.54148e-09)
(2.9761e-09 -8.42165e-09 1.0342e-08)
(3.46816e-09 -8.73369e-09 1.24356e-08)
(4.26321e-09 -8.34408e-09 1.48935e-08)
(5.82984e-09 -6.4131e-09 1.79338e-08)
(9.40246e-09 -7.48906e-10 2.22656e-08)
(1.80569e-08 1.44315e-08 2.99698e-08)
(3.50829e-08 4.65636e-08 4.2935e-08)
(5.98403e-10 -1.64963e-09 1.23881e-09)
(1.66463e-09 -4.61725e-09 3.50514e-09)
(2.63142e-09 -7.3867e-09 5.72513e-09)
(3.52772e-09 -1.00678e-08 8.04865e-09)
(4.37658e-09 -1.27274e-08 1.05985e-08)
(5.20111e-09 -1.54031e-08 1.34941e-08)
(6.02436e-09 -1.80934e-08 1.68467e-08)
(6.87348e-09 -2.07467e-08 2.07588e-08)
(7.78809e-09 -2.32392e-08 2.53246e-08)
(8.84319e-09 -2.53263e-08 3.06248e-08)
(1.02036e-08 -2.65711e-08 3.67318e-08)
(1.22272e-08 -2.61968e-08 4.37161e-08)
(1.57705e-08 -2.27921e-08 5.17269e-08)
(2.2589e-08 -1.39202e-08 6.11967e-08)
(3.57084e-08 3.73144e-09 7.29791e-08)
(5.51302e-08 2.78451e-08 8.59569e-08)
(9.87312e-10 -2.69527e-09 2.03114e-09)
(2.74629e-09 -7.54586e-09 5.74535e-09)
(4.34276e-09 -1.20827e-08 9.38717e-09)
(5.82292e-09 -1.64729e-08 1.31869e-08)
(7.22795e-09 -2.0843e-08 1.73562e-08)
(8.59608e-09 -2.52615e-08 2.20865e-08)
(9.96601e-09 -2.97428e-08 2.75596e-08)
(1.13808e-08 -3.42308e-08 3.39456e-08)
(1.28964e-08 -3.85671e-08 4.13959e-08)
(1.46072e-08 -4.24448e-08 5.00399e-08)
(1.6685e-08 -4.53361e-08 5.9959e-08)
(1.94728e-08 -4.64019e-08 7.11638e-08)
(2.37604e-08 -4.43637e-08 8.35978e-08)
(3.10013e-08 -3.77658e-08 9.72418e-08)
(4.36133e-08 -2.60926e-08 1.12272e-07)
(6.14069e-08 -1.39271e-08 1.27415e-07)
(1.36175e-09 -3.65729e-09 2.77427e-09)
(3.78678e-09 -1.02461e-08 7.84604e-09)
(5.98975e-09 -1.64153e-08 1.28151e-08)
(8.03499e-09 -2.24045e-08 1.79962e-08)
(9.98018e-09 -2.83849e-08 2.36674e-08)
(1.18812e-08 -3.4474e-08 3.00937e-08)
(1.37939e-08 -4.07205e-08 3.75241e-08)
(1.57788e-08 -4.70916e-08 4.61917e-08)
(1.79076e-08 -5.34489e-08 5.63105e-08)
(2.02799e-08 -5.9503e-08 6.80606e-08)
(2.30131e-08 -6.47717e-08 8.15418e-08)
(2.63765e-08 -6.84691e-08 9.67347e-08)
(3.07809e-08 -6.95291e-08 1.13376e-07)
(3.7037e-08 -6.68054e-08 1.30969e-07)
(4.66107e-08 -5.99343e-08 1.48721e-07)
(5.96462e-08 -5.17395e-08 1.64231e-07)
(1.71479e-09 -4.50373e-09 3.45128e-09)
(4.77005e-09 -1.26225e-08 9.76067e-09)
(7.54645e-09 -2.0239e-08 1.59347e-08)
(1.01261e-08 -2.76501e-08 2.23551e-08)
(1.25858e-08 -3.50902e-08 2.93702e-08)
(1.49987e-08 -4.27254e-08 3.73033e-08)
(1.74412e-08 -5.06535e-08 4.64632e-08)
(1.99966e-08 -5.8894e-08 5.71436e-08)
(2.2761e-08 -6.73708e-08 6.96218e-08)
(2.58449e-08 -7.58872e-08 8.41436e-08)
(2.93767e-08 -8.40748e-08 1.00882e-07)
(3.34991e-08 -9.13058e-08 1.19845e-07)
(3.83787e-08 -9.65955e-08 1.40766e-07)
(4.41752e-08 -9.851e-08 1.6286e-07)
(5.13873e-08 -9.53442e-08 1.84466e-07)
(6.03715e-08 -8.75937e-08 2.01557e-07)
(2.04159e-09 -5.2027e-09 4.05096e-09)
(5.67866e-09 -1.45863e-08 1.14508e-08)
(8.9841e-09 -2.34039e-08 1.86775e-08)
(1.20579e-08 -3.20156e-08 2.61751e-08)
(1.49921e-08 -4.07053e-08 3.43388e-08)
(1.78796e-08 -4.96958e-08 4.35445e-08)
(2.08188e-08 -5.91421e-08 5.41495e-08)
(2.39215e-08 -6.91316e-08 6.6498e-08)
(2.73231e-08 -7.96826e-08 8.09284e-08)
(3.11818e-08 -9.07351e-08 9.77622e-08)
(3.56927e-08 -1.02119e-07 1.17282e-07)
(4.10774e-08 -1.13487e-07 1.39673e-07)
(4.75466e-08 -1.24117e-07 1.64919e-07)
(5.51277e-08 -1.3245e-07 1.92489e-07)
(6.35646e-08 -1.35084e-07 2.20514e-07)
(7.15519e-08 -1.27955e-07 2.42744e-07)
(2.33533e-09 -5.72335e-09 4.56063e-09)
(6.49599e-09 -1.60521e-08 1.28861e-08)
(1.02762e-08 -2.57782e-08 2.09981e-08)
(1.37893e-08 -3.5309e-08 2.93812e-08)
(1.71434e-08 -4.498e-08 3.8474e-08)
(2.04471e-08 -5.50626e-08 4.86846e-08)
(2.38196e-08 -6.57676e-08 6.04026e-08)
(2.74023e-08 -7.72533e-08 7.40074e-08)
(3.13748e-08 -8.96383e-08 8.9881e-08)
(3.59699e-08 -1.03016e-07 1.08412e-07)
(4.15141e-08 -1.17468e-07 1.30002e-07)
(4.84816e-08 -1.33062e-07 1.55071e-07)
(5.75877e-08 -1.49826e-07 1.84097e-07)
(6.97973e-08 -1.67464e-07 2.17492e-07)
(8.61358e-08 -1.84209e-07 2.54806e-07)
(1.03909e-07 -1.93937e-07 2.88851e-07)
(2.59164e-09 -6.04077e-09 4.97577e-09)
(7.20765e-09 -1.69507e-08 1.40502e-08)
(1.13978e-08 -2.72463e-08 2.28663e-08)
(1.52866e-08 -3.73738e-08 3.19397e-08)
(1.89906e-08 -4.7704e-08 4.17273e-08)
(2.26305e-08 -5.85473e-08 5.26561e-08)
(2.63398e-08 -7.01593e-08 6.51283e-08)
(3.02794e-08 -8.27551e-08 7.9533e-08)
(3.46616e-08 -9.65314e-08 9.62651e-08)
(3.97739e-08 -1.11698e-07 1.15734e-07)
(4.60481e-08 -1.28521e-07 1.38392e-07)
(5.41849e-08 -1.47422e-07 1.64803e-07)
(6.54136e-08 -1.69171e-07 1.95815e-07)
(8.20138e-08 -1.95275e-07 2.32847e-07)
(1.0827e-07 -2.284e-07 2.78144e-07)
(1.44931e-07 -2.66961e-07 3.27705e-07)
(1.9529e-10 -5.66224e-10 3.96084e-10)
(5.42381e-10 -1.5848e-09 1.12067e-09)
(8.54504e-10 -2.53529e-09 1.82894e-09)
(1.13948e-09 -3.45403e-09 2.56838e-09)
(1.40235e-09 -4.36768e-09 3.37884e-09)
(1.64734e-09 -5.28811e-09 4.29715e-09)
(1.87701e-09 -6.21398e-09 5.35625e-09)
(2.09211e-09 -7.12986e-09 6.58674e-09)
(2.29357e-09 -7.99504e-09 8.01313e-09)
(2.48554e-09 -8.73354e-09 9.65418e-09)
(2.68507e-09 -9.20462e-09 1.15171e-08)
(2.96374e-09 -9.14182e-09 1.36025e-08)
(3.47079e-09 -8.00978e-09 1.59052e-08)
(4.54474e-09 -4.59738e-09 1.84713e-08)
(6.5057e-09 3.52433e-09 2.13021e-08)
(8.2147e-09 1.72882e-08 2.30928e-08)
(5.8297e-10 -1.68188e-09 1.17839e-09)
(1.61839e-09 -4.70771e-09 3.33105e-09)
(2.55089e-09 -7.53303e-09 5.43864e-09)
(3.40187e-09 -1.0267e-08 7.63528e-09)
(4.1885e-09 -1.2985e-08 1.00407e-08)
(4.92358e-09 -1.57267e-08 1.27629e-08)
(5.61496e-09 -1.84962e-08 1.59007e-08)
(6.2657e-09 -2.12515e-08 1.95415e-08)
(6.87532e-09 -2.38896e-08 2.37583e-08)
(7.44817e-09 -2.62069e-08 2.85943e-08)
(8.01683e-09 -2.7859e-08 3.4048e-08)
(8.69162e-09 -2.82764e-08 4.00308e-08)
(9.75936e-09 -2.65544e-08 4.62976e-08)
(1.16907e-08 -2.14573e-08 5.22812e-08)
(1.46989e-08 -1.22693e-08 5.6604e-08)
(1.68839e-08 -2.74604e-09 5.66454e-08)
(9.62837e-10 -2.74696e-09 1.93135e-09)
(2.67349e-09 -7.69146e-09 5.45955e-09)
(4.21538e-09 -1.23151e-08 8.91331e-09)
(5.62531e-09 -1.6795e-08 1.25095e-08)
(6.93356e-09 -2.12589e-08 1.64432e-08)
(8.16336e-09 -2.57826e-08 2.08906e-08)
(9.33066e-09 -3.03874e-08 2.60142e-08)
(1.04429e-08 -3.503e-08 3.19598e-08)
(1.14988e-08 -3.95766e-08 3.8846e-08)
(1.24898e-08 -4.37737e-08 4.67471e-08)
(1.34151e-08 -4.72008e-08 5.56495e-08)
(1.43303e-08 -4.92408e-08 6.53858e-08)
(1.53677e-08 -4.91276e-08 7.5466e-08)
(1.67883e-08 -4.6356e-08 8.49233e-08)
(1.86032e-08 -4.195e-08 9.19114e-08)
(1.93856e-08 -4.01192e-08 9.39212e-08)
(1.32962e-09 -3.72706e-09 2.63695e-09)
(3.69345e-09 -1.044e-08 7.45623e-09)
(5.826e-09 -1.67273e-08 1.21684e-08)
(7.78151e-09 -2.28334e-08 1.70703e-08)
(9.60461e-09 -2.89394e-08 2.24221e-08)
(1.13324e-08 -3.5166e-08 2.84648e-08)
(1.29936e-08 -4.15691e-08 3.54213e-08)
(1.46068e-08 -4.81275e-08 4.34934e-08)
(1.6176e-08 -5.47262e-08 5.28523e-08)
(1.76794e-08 -6.11234e-08 6.36086e-08)
(1.90782e-08 -6.69221e-08 7.57778e-08)
(2.02601e-08 -7.15521e-08 8.91105e-08)
(2.10688e-08 -7.43478e-08 1.03005e-07)
(2.1183e-08 -7.49541e-08 1.16112e-07)
(2.0042e-08 -7.42656e-08 1.25967e-07)
(1.70251e-08 -7.49745e-08 1.29288e-07)
(1.67821e-09 -4.58856e-09 3.28162e-09)
(4.6623e-09 -1.28586e-08 9.27526e-09)
(7.35812e-09 -2.06173e-08 1.51303e-08)
(9.83645e-09 -2.81727e-08 2.12074e-08)
(1.21589e-08 -3.5763e-08 2.78274e-08)
(1.43794e-08 -4.356e-08 3.52872e-08)
(1.65459e-08 -5.16662e-08 4.38638e-08)
(1.86983e-08 -6.01091e-08 5.38127e-08)
(2.08617e-08 -6.88263e-08 6.5358e-08)
(2.30349e-08 -7.76497e-08 7.86729e-08)
(2.51533e-08 -8.627e-08 9.38079e-08)
(2.70307e-08 -9.41945e-08 1.10578e-07)
(2.82012e-08 -1.00732e-07 1.28332e-07)
(2.77183e-08 -1.05102e-07 1.45527e-07)
(2.41277e-08 -1.06984e-07 1.59051e-07)
(1.72718e-08 -1.07801e-07 1.64361e-07)
(2.00226e-09 -5.29933e-09 3.85128e-09)
(5.56365e-09 -1.48555e-08 1.08816e-08)
(8.784e-09 -2.38364e-08 1.77364e-08)
(1.17512e-08 -3.26105e-08 2.48319e-08)
(1.45438e-08 -4.14694e-08 3.25367e-08)
(1.72352e-08 -5.06382e-08 4.11935e-08)
(1.98972e-08 -6.02738e-08 5.11236e-08)
(2.2601e-08 -7.04654e-08 6.2627e-08)
(2.54159e-08 -8.12345e-08 7.59807e-08)
(2.8399e-08 -9.25244e-08 9.14215e-08)
(3.15639e-08 -1.04183e-07 1.09088e-07)
(3.48054e-08 -1.15897e-07 1.28923e-07)
(3.7684e-08 -1.27063e-07 1.5044e-07)
(3.89965e-08 -1.36489e-07 1.7221e-07)
(3.62187e-08 -1.42014e-07 1.90837e-07)
(2.73153e-08 -1.41728e-07 2.00229e-07)
(2.29601e-09 -5.82861e-09 4.33684e-09)
(6.3803e-09 -1.63457e-08 1.22465e-08)
(1.00755e-08 -2.62491e-08 1.9941e-08)
(1.34843e-08 -3.59571e-08 2.78769e-08)
(1.6701e-08 -4.581e-08 3.64589e-08)
(1.98177e-08 -5.60806e-08 4.60612e-08)
(2.29305e-08 -6.69787e-08 5.70342e-08)
(2.61466e-08 -7.86586e-08 6.97088e-08)
(2.95893e-08 -9.12294e-08 8.43978e-08)
(3.34081e-08 -1.04767e-07 1.01394e-07)
(3.77742e-08 -1.1932e-07 1.20923e-07)
(4.28713e-08 -1.34901e-07 1.43095e-07)
(4.87828e-08 -1.51423e-07 1.67719e-07)
(5.51587e-08 -1.68414e-07 1.93812e-07)
(6.01904e-08 -1.84087e-07 2.18219e-07)
(5.93716e-08 -1.93517e-07 2.33111e-07)
(2.55372e-09 -6.15099e-09 4.73138e-09)
(7.09671e-09 -1.72582e-08 1.33536e-08)
(1.12064e-08 -2.77399e-08 2.17178e-08)
(1.49972e-08 -3.80523e-08 3.03071e-08)
(1.85749e-08 -4.85707e-08 3.95462e-08)
(2.20461e-08 -5.96058e-08 4.98249e-08)
(2.55256e-08 -7.14096e-08 6.15052e-08)
(2.9148e-08 -8.41883e-08 7.49264e-08)
(3.30821e-08 -9.81199e-08 9.04108e-08)
(3.75532e-08 -1.1338e-07 1.08266e-07)
(4.28772e-08 -1.30172e-07 1.28758e-07)
(4.95236e-08 -1.48786e-07 1.52085e-07)
(5.82025e-08 -1.69698e-07 1.78277e-07)
(6.99994e-08 -1.93698e-07 2.06835e-07)
(8.60972e-08 -2.21517e-07 2.35305e-07)
(1.03905e-07 -2.49037e-07 2.55076e-07)
(1.89122e-10 -5.75615e-10 3.61248e-10)
(5.23951e-10 -1.61109e-09 1.02086e-09)
(8.22745e-10 -2.5775e-09 1.66645e-09)
(1.08975e-09 -3.51214e-09 2.33688e-09)
(1.32804e-09 -4.44274e-09 3.07051e-09)
(1.53756e-09 -5.38234e-09 3.89803e-09)
(1.71442e-09 -6.33366e-09 4.84789e-09)
(1.85024e-09 -7.28289e-09 5.94218e-09)
(1.92861e-09 -8.20418e-09 7.19922e-09)
(1.92476e-09 -9.03855e-09 8.62001e-09)
(1.8026e-09 -9.69657e-09 1.01877e-08)
(1.4998e-09 -1.00339e-08 1.18342e-08)
(9.03966e-10 -9.80963e-09 1.34158e-08)
(-3.53806e-10 -8.63015e-09 1.45914e-08)
(-3.3775e-09 -5.95617e-09 1.45743e-08)
(-9.72169e-09 -2.11949e-09 1.18997e-08)
(5.64732e-10 -1.70931e-09 1.07397e-09)
(1.56531e-09 -4.7843e-09 3.03589e-09)
(2.45766e-09 -7.65617e-09 4.9527e-09)
(3.25731e-09 -1.04364e-08 6.947e-09)
(3.97283e-09 -1.32034e-08 9.12406e-09)
(4.60532e-09 -1.6002e-08 1.1578e-08)
(5.14554e-09 -1.88406e-08 1.43906e-08)
(5.569e-09 -2.16933e-08 1.76325e-08)
(5.8304e-09 -2.44774e-08 2.13474e-08)
(5.85682e-09 -2.70485e-08 2.55427e-08)
(5.53924e-09 -2.91739e-08 3.01475e-08)
(4.72172e-09 -3.05298e-08 3.49405e-08)
(3.15732e-09 -3.07242e-08 3.94045e-08)
(3.7468e-10 -2.94789e-08 4.24573e-08)
(-4.48323e-09 -2.72152e-08 4.20591e-08)
(-1.13442e-08 -2.59938e-08 3.65398e-08)
(9.33974e-10 -2.79113e-09 1.76025e-09)
(2.58961e-09 -7.81461e-09 4.97615e-09)
(4.06831e-09 -1.25128e-08 8.11757e-09)
(5.39767e-09 -1.70666e-08 1.13828e-08)
(6.59482e-09 -2.16086e-08 1.49432e-08)
(7.66537e-09 -2.62192e-08 1.89519e-08)
(8.59942e-09 -3.09288e-08 2.35464e-08)
(9.36396e-09 -3.57071e-08 2.88399e-08)
(9.89278e-09 -4.04558e-08 3.49133e-08)
(1.00715e-08 -4.49808e-08 4.17826e-08)
(9.7184e-09 -4.8997e-08 4.93466e-08)
(8.55009e-09 -5.21473e-08 5.72607e-08)
(6.17737e-09 -5.41342e-08 6.48059e-08)
(2.02671e-09 -5.51331e-08 7.05575e-08)
(-4.431e-09 -5.64497e-08 7.23079e-08)
(-1.20218e-08 -5.98881e-08 6.88432e-08)
(1.2926e-09 -3.786e-09 2.40506e-09)
(3.58439e-09 -1.06048e-08 6.79503e-09)
(5.63598e-09 -1.69908e-08 1.10836e-08)
(7.48807e-09 -2.31944e-08 1.5534e-08)
(9.16972e-09 -2.94013e-08 2.0378e-08)
(1.06964e-08 -3.57372e-08 2.58249e-08)
(1.20654e-08 -4.22636e-08 3.20625e-08)
(1.3248e-08 -4.89749e-08 3.92525e-08)
(1.4172e-08 -5.57785e-08 4.75107e-08)
(1.47023e-08 -6.24896e-08 5.6884e-08)
(1.45797e-08 -6.88235e-08 6.72486e-08)
(1.34059e-08 -7.4417e-08 7.82539e-08)
(1.04879e-08 -7.89841e-08 8.90153e-08)
(4.87262e-09 -8.26836e-08 9.79499e-08)
(-4.2208e-09 -8.66012e-08 1.02615e-07)
(-1.47615e-08 -9.1623e-08 1.01359e-07)
(1.63487e-09 -4.66019e-09 2.99223e-09)
(4.53586e-09 -1.30581e-08 8.4548e-09)
(7.13796e-09 -2.09358e-08 1.37831e-08)
(9.49786e-09 -2.86076e-08 1.93011e-08)
(1.16597e-08 -3.63156e-08 2.5293e-08)
(1.36541e-08 -4.42343e-08 3.2017e-08)
(1.54959e-08 -5.24702e-08 3.97081e-08)
(1.71741e-08 -6.10549e-08 4.85695e-08)
(1.86388e-08 -6.9941e-08 5.87625e-08)
(1.97627e-08 -7.89869e-08 7.03638e-08)
(2.02879e-08 -8.7947e-08 8.32986e-08)
(1.97089e-08 -9.64579e-08 9.71945e-08)
(1.70856e-08 -1.04077e-07 1.11173e-07)
(1.08876e-08 -1.10451e-07 1.23513e-07)
(-4.53734e-10 -1.15666e-07 1.31451e-07)
(-1.44928e-08 -1.20195e-07 1.32538e-07)
(1.95555e-09 -5.38061e-09 3.51243e-09)
(5.42722e-09 -1.5082e-08 9.92009e-09)
(8.54725e-09 -2.41977e-08 1.6159e-08)
(1.13888e-08 -3.31016e-08 2.26019e-08)
(1.40128e-08 -4.20887e-08 2.95759e-08)
(1.64697e-08 -5.13844e-08 3.73793e-08)
(1.87985e-08 -6.11432e-08 4.62838e-08)
(2.10233e-08 -7.14516e-08 5.65307e-08)
(2.31394e-08 -8.23234e-08 6.83183e-08)
(2.5086e-08 -9.36985e-08 8.17673e-08)
(2.66885e-08 -1.05421e-07 9.68529e-08)
(2.75289e-08 -1.17189e-07 1.13261e-07)
(2.66776e-08 -1.2846e-07 1.30159e-07)
(2.2293e-08 -1.3824e-07 1.45781e-07)
(1.16557e-08 -1.44832e-07 1.57081e-07)
(-4.54612e-09 -1.46511e-07 1.60815e-07)
(2.24813e-09 -5.91679e-09 3.95503e-09)
(6.24115e-09 -1.65911e-08 1.11656e-08)
(9.83486e-09 -2.66398e-08 1.81695e-08)
(1.31179e-08 -3.64868e-08 2.53765e-08)
(1.6168e-08 -4.64732e-08 3.31453e-08)
(1.90558e-08 -5.68699e-08 4.18016e-08)
(2.18485e-08 -6.78797e-08 5.16424e-08)
(2.46094e-08 -7.96429e-08 6.2932e-08)
(2.73988e-08 -9.22444e-08 7.58969e-08)
(3.0257e-08 -1.0572e-07 9.06887e-08)
(3.31843e-08 -1.2005e-07 1.07329e-07)
(3.60587e-08 -1.35127e-07 1.25567e-07)
(3.84458e-08 -1.50655e-07 1.44632e-07)
(3.92112e-08 -1.65864e-07 1.62699e-07)
(3.60218e-08 -1.78766e-07 1.76222e-07)
(2.70657e-08 -1.85284e-07 1.80734e-07)
(2.50702e-09 -6.24281e-09 4.3157e-09)
(6.96097e-09 -1.75139e-08 1.21765e-08)
(1.09726e-08 -2.81471e-08 1.97911e-08)
(1.46432e-08 -3.86023e-08 2.75926e-08)
(1.8064e-08 -4.92556e-08 3.59574e-08)
(2.13228e-08 -6.04127e-08 4.52253e-08)
(2.45094e-08 -7.2315e-08 5.57023e-08)
(2.77228e-08 -8.51465e-08 6.76598e-08)
(3.10771e-08 -9.90488e-08 8.13288e-08)
(3.47084e-08 -1.14131e-07 9.68679e-08)
(3.87829e-08 -1.30482e-07 1.14307e-07)
(4.34968e-08 -1.48174e-07 1.33421e-07)
(4.90536e-08 -1.67265e-07 1.53469e-07)
(5.56417e-08 -1.8774e-07 1.72555e-07)
(6.33634e-08 -2.09091e-07 1.86481e-07)
(7.12837e-08 -2.27541e-07 1.88802e-07)
(1.8268e-10 -5.83145e-10 3.13314e-10)
(5.05342e-10 -1.63213e-09 8.85748e-10)
(7.89749e-10 -2.61123e-09 1.44346e-09)
(1.03913e-09 -3.55846e-09 2.02416e-09)
(1.25257e-09 -4.50279e-09 2.6563e-09)
(1.42647e-09 -5.45857e-09 3.36677e-09)
(1.55147e-09 -6.42967e-09 4.17711e-09)
(1.61038e-09 -7.40875e-09 5.10432e-09)
(1.5736e-09 -8.37606e-09 6.15747e-09)
(1.39391e-09 -9.29369e-09 7.33011e-09)
(9.93637e-10 -1.01102e-08 8.59056e-09)
(2.50937e-10 -1.07546e-08 9.86859e-09)
(-1.07801e-09 -1.11489e-08 1.10108e-08)
(-3.54192e-09 -1.11933e-08 1.17872e-08)
(-8.38358e-09 -1.07478e-08 1.18981e-08)
(-1.63685e-08 -9.58804e-09 1.12e-08)
(5.46072e-10 -1.73141e-09 9.31909e-10)
(1.51043e-09 -4.84616e-09 2.63242e-09)
(2.36213e-09 -7.75525e-09 4.29349e-09)
(3.10931e-09 -1.05728e-08 6.01686e-09)
(3.75282e-09 -1.33791e-08 7.89329e-09)
(4.28236e-09 -1.62225e-08 9.99921e-09)
(4.67284e-09 -1.91178e-08 1.23997e-08)
(4.87588e-09 -2.20482e-08 1.51452e-08)
(4.80963e-09 -2.49562e-08 1.826e-08)
(4.34149e-09 -2.77412e-08 2.17249e-08)
(3.26868e-09 -3.02585e-08 2.54412e-08)
(1.29307e-09 -3.2343e-08 2.91753e-08)
(-2.01853e-09 -3.38554e-08 3.24657e-08)
(-7.24365e-09 -3.47826e-08 3.45274e-08)
(-1.47123e-08 -3.53288e-08 3.43683e-08)
(-2.22651e-08 -3.56851e-08 3.20675e-08)
(9.04442e-10 -2.82684e-09 1.52792e-09)
(2.50262e-09 -7.91468e-09 4.3156e-09)
(3.91689e-09 -1.26726e-08 7.03749e-09)
(5.16382e-09 -1.72852e-08 9.86011e-09)
(6.24799e-09 -2.18879e-08 1.29284e-08)
(7.15801e-09 -2.65656e-08 1.63685e-08)
(7.86006e-09 -3.13546e-08 2.02889e-08)
(8.2861e-09 -3.62397e-08 2.47736e-08)
(8.31727e-09 -4.1147e-08 2.98683e-08)
(7.75705e-09 -4.59378e-08 3.55474e-08)
(6.3049e-09 -5.04231e-08 4.16707e-08)
(3.54094e-09 -5.44037e-08 4.79149e-08)
(-1.08978e-09 -5.78008e-08 5.36172e-08)
(-8.04796e-09 -6.08917e-08 5.78241e-08)
(-1.6914e-08 -6.44769e-08 5.95549e-08)
(-2.43067e-08 -6.87222e-08 5.92454e-08)
(1.25377e-09 -3.83406e-09 2.08642e-09)
(3.47166e-09 -1.07384e-08 5.89626e-09)
(5.43939e-09 -1.7204e-08 9.61091e-09)
(7.18516e-09 -2.34837e-08 1.3458e-08)
(8.72214e-09 -2.97668e-08 1.76321e-08)
(1.00448e-08 -3.6182e-08 2.23055e-08)
(1.11216e-08 -4.2797e-08 2.76283e-08)
(1.18819e-08 -4.96142e-08 3.37196e-08)
(1.21928e-08 -5.65633e-08 4.06483e-08)
(1.18253e-08 -6.35006e-08 4.83982e-08)
(1.04222e-08 -7.02115e-08 5.68359e-08)
(7.42343e-09 -7.64592e-08 6.55409e-08)
(2.09334e-09 -8.20966e-08 7.38333e-08)
(-6.26486e-09 -8.73231e-08 8.06564e-08)
(-1.72554e-08 -9.28056e-08 8.49972e-08)
(-2.67826e-08 -9.83187e-08 8.6918e-08)
(1.58981e-09 -4.71817e-09 2.59776e-09)
(4.40413e-09 -1.32198e-08 7.3371e-09)
(6.90885e-09 -2.11922e-08 1.19537e-08)
(9.14615e-09 -2.89531e-08 1.6724e-08)
(1.11424e-08 -3.67466e-08 2.18869e-08)
(1.29055e-08 -4.47486e-08 2.76559e-08)
(1.44189e-08 -5.30659e-08 3.42182e-08)
(1.56284e-08 -6.17325e-08 4.17252e-08)
(1.64191e-08 -7.0706e-08 5.02738e-08)
(1.65786e-08 -7.98597e-08 5.98738e-08)
(1.57373e-08 -8.89777e-08 7.03798e-08)
(1.32788e-08 -9.77462e-08 8.13971e-08)
(8.24253e-09 -1.05786e-07 9.21774e-08)
(-5.44801e-10 -1.12751e-07 1.01626e-07)
(-1.33782e-08 -1.18481e-07 1.08599e-07)
(-2.58575e-08 -1.22775e-07 1.12643e-07)
(1.90643e-09 -5.4464e-09 3.04934e-09)
(5.2841e-09 -1.52647e-08 8.60991e-09)
(8.29911e-09 -2.44866e-08 1.40162e-08)
(1.10093e-08 -3.34881e-08 1.95864e-08)
(1.34578e-08 -4.25647e-08 2.55956e-08)
(1.56718e-08 -5.194e-08 3.22904e-08)
(1.76601e-08 -6.17636e-08 3.9888e-08)
(1.94032e-08 -7.21122e-08 4.8567e-08)
(2.08353e-08 -8.29865e-08 5.84479e-08)
(2.18147e-08 -9.43061e-08 6.9565e-08)
(2.20616e-08 -1.05887e-07 8.17862e-08)
(2.10531e-08 -1.17389e-07 9.47168e-08)
(1.78422e-08 -1.28208e-07 1.07574e-07)
(1.09496e-08 -1.37282e-07 1.19163e-07)
(-1.0262e-09 -1.42801e-07 1.28145e-07)
(-1.53346e-08 -1.42976e-07 1.33765e-07)
(2.19766e-09 -5.98757e-09 3.43476e-09)
(6.09393e-09 -1.6788e-08 9.69211e-09)
(9.58031e-09 -2.69503e-08 1.57622e-08)
(1.27305e-08 -3.68993e-08 2.19936e-08)
(1.56048e-08 -4.69753e-08 2.86882e-08)
(1.82525e-08 -5.74438e-08 3.61154e-08)
(2.07118e-08 -6.84965e-08 4.45122e-08)
(2.30073e-08 -8.02537e-08 5.40739e-08)
(2.51421e-08 -9.2768e-08 6.49364e-08)
(2.70837e-08 -1.06021e-07 7.71472e-08)
(2.87317e-08 -1.19909e-07 9.05794e-08)
(2.98527e-08 -1.34183e-07 1.04823e-07)
(2.99583e-08 -1.48344e-07 1.19013e-07)
(2.81822e-08 -1.61373e-07 1.31708e-07)
(2.34109e-08 -1.71174e-07 1.41043e-07)
(1.61101e-08 -1.74459e-07 1.45964e-07)
(2.45715e-09 -6.31628e-09 3.748e-09)
(6.81585e-09 -1.77181e-08 1.0571e-08)
(1.07226e-08 -2.84684e-08 1.71715e-08)
(1.42647e-08 -3.90272e-08 2.3918e-08)
(1.75175e-08 -4.97673e-08 3.11274e-08)
(2.05494e-08 -6.09872e-08 3.90809e-08)
(2.34253e-08 -7.29119e-08 4.80228e-08)
(2.62099e-08 -8.56982e-08 5.81526e-08)
(2.89682e-08 -9.94399e-08 6.96058e-08)
(3.17713e-08 -1.14171e-07 8.24258e-08)
(3.46941e-08 -1.29855e-07 9.64753e-08)
(3.78162e-08 -1.46361e-07 1.11308e-07)
(4.12361e-08 -1.63433e-07 1.25959e-07)
(4.52415e-08 -1.80668e-07 1.38677e-07)
(5.07919e-08 -1.97411e-07 1.46754e-07)
(5.91032e-08 -2.11464e-07 1.48173e-07)
(1.76665e-10 -5.88894e-10 2.54533e-10)
(4.87546e-10 -1.648e-09 7.18417e-10)
(7.59255e-10 -2.63605e-09 1.17234e-09)
(9.9157e-10 -3.59405e-09 1.64137e-09)
(1.18249e-09 -4.5479e-09 2.15237e-09)
(1.32427e-09 -5.51587e-09 2.72434e-09)
(1.40368e-09 -6.50144e-09 3.37286e-09)
(1.39707e-09 -7.50245e-09 4.11046e-09)
(1.26732e-09 -8.5021e-09 4.94008e-09)
(9.55026e-10 -9.47764e-09 5.8544e-09)
(3.71244e-10 -1.03929e-08 6.82691e-09)
(-6.27762e-10 -1.12145e-08 7.79539e-09)
(-2.29438e-09 -1.19067e-08 8.67797e-09)
(-5.16641e-09 -1.24145e-08 9.37492e-09)
(-1.03839e-08 -1.25651e-08 9.90878e-09)
(-1.8433e-08 -1.17919e-08 1.03741e-08)
(5.28351e-10 -1.7483e-09 7.56623e-10)
(1.45899e-09 -4.89303e-09 2.13847e-09)
(2.27212e-09 -7.83136e-09 3.4848e-09)
(2.97098e-09 -1.06762e-08 4.88153e-09)
(3.54814e-09 -1.3514e-08 6.39789e-09)
(3.9847e-09 -1.63907e-08 8.09267e-09)
(4.24302e-09 -1.93271e-08 1.00148e-08)
(4.25824e-09 -2.23126e-08 1.21976e-08)
(3.92613e-09 -2.53078e-08 1.46539e-08)
(3.08618e-09 -2.82355e-08 1.73561e-08)
(1.50538e-09 -3.09991e-08 2.02196e-08)
(-1.13756e-09 -3.34935e-08 2.30637e-08)
(-5.2495e-09 -3.56308e-08 2.55768e-08)
(-1.12271e-08 -3.73486e-08 2.73383e-08)
(-1.88912e-08 -3.84606e-08 2.79609e-08)
(-2.55431e-08 -3.84582e-08 2.75318e-08)
(8.76247e-10 -2.8545e-09 1.24092e-09)
(2.42077e-09 -7.99178e-09 3.50676e-09)
(3.77433e-09 -1.27955e-08 5.71498e-09)
(4.94451e-09 -1.74534e-08 8.00195e-09)
(5.92483e-09 -2.20998e-08 1.04808e-08)
(6.68976e-09 -2.68243e-08 1.3249e-08)
(7.18661e-09 -3.16675e-08 1.6387e-08)
(7.32357e-09 -3.66238e-08 1.99541e-08)
(6.94937e-09 -4.16342e-08 2.39705e-08)
(5.83372e-09 -4.65916e-08 2.84041e-08)
(3.64673e-09 -5.13505e-08 3.31321e-08)
(-4.37219e-11 -5.57681e-08 3.78754e-08)
(-5.67401e-09 -5.97823e-08 4.2237e-08)
(-1.33658e-08 -6.353e-08 4.56694e-08)
(-2.19753e-08 -6.73431e-08 4.78357e-08)
(-2.77486e-08 -7.09166e-08 4.89743e-08)
(1.21723e-09 -3.87119e-09 1.6968e-09)
(3.36465e-09 -1.08426e-08 4.79115e-09)
(5.25358e-09 -1.73691e-08 7.80735e-09)
(6.90023e-09 -2.37047e-08 1.09243e-08)
(8.30372e-09 -3.0042e-08 1.42962e-08)
(9.441e-09 -3.65101e-08 1.80561e-08)
(1.02583e-08 -4.318e-08 2.23168e-08)
(1.06555e-08 -5.00582e-08 2.716e-08)
(1.04656e-08 -5.70868e-08 3.26237e-08)
(9.42666e-09 -6.41381e-08 3.868e-08)
(7.14829e-09 -7.10281e-08 4.51645e-08)
(3.12028e-09 -7.75403e-08 5.18117e-08)
(-3.23168e-09 -8.35103e-08 5.81111e-08)
(-1.21292e-08 -8.89887e-08 6.3524e-08)
(-2.2374e-08 -9.42736e-08 6.76963e-08)
(-2.97371e-08 -9.89601e-08 7.05085e-08)
(1.54673e-09 -4.76362e-09 2.11188e-09)
(4.27868e-09 -1.33453e-08 5.96436e-09)
(6.69156e-09 -2.139e-08 9.71288e-09)
(8.81386e-09 -2.92158e-08 1.3578e-08)
(1.06565e-08 -3.70659e-08 1.7748e-08)
(1.22082e-08 -4.5118e-08 2.23889e-08)
(1.34278e-08 -5.34763e-08 2.76407e-08)
(1.42315e-08 -6.21733e-08 3.36092e-08)
(1.44694e-08 -7.11627e-08 4.03486e-08)
(1.38964e-08 -8.03169e-08 4.78327e-08)
(1.2132e-08 -8.94141e-08 5.59133e-08)
(8.61635e-09 -9.8126e-08 6.42633e-08)
(2.61345e-09 -1.0602e-07 7.23702e-08)
(-6.51283e-09 -1.12622e-07 7.96433e-08)
(-1.82203e-08 -1.17544e-07 8.56702e-08)
(-2.81418e-08 -1.2064e-07 8.9966e-08)
(1.85939e-09 -5.49751e-09 2.48004e-09)
(5.14731e-09 -1.54068e-08 7.00048e-09)
(8.06253e-09 -2.47087e-08 1.13908e-08)
(1.06489e-08 -3.37786e-08 1.59041e-08)
(1.29334e-08 -4.29125e-08 2.07578e-08)
(1.49237e-08 -5.23295e-08 2.61432e-08)
(1.66043e-08 -6.21728e-08 3.22235e-08)
(1.79262e-08 -7.25059e-08 3.91215e-08)
(1.87922e-08 -8.33119e-08 4.69069e-08)
(1.90291e-08 -9.44818e-08 5.55576e-08)
(1.8353e-08 -1.05788e-07 6.49203e-08)
(1.63049e-08 -1.16826e-07 7.46364e-08)
(1.21757e-08 -1.26905e-07 8.4125e-08)
(5.0446e-09 -1.34859e-07 9.26909e-08)
(-5.62126e-09 -1.38843e-07 9.9815e-08)
(-1.71143e-08 -1.37469e-07 1.04925e-07)
(2.14888e-09 -6.04273e-09 2.79316e-09)
(5.95229e-09 -1.69402e-08 7.88177e-09)
(9.33623e-09 -2.7187e-08 1.28116e-08)
(1.23602e-08 -3.72067e-08 1.78614e-08)
(1.50688e-08 -4.73359e-08 2.32689e-08)
(1.74926e-08 -5.78346e-08 2.9244e-08)
(1.96472e-08 -6.88815e-08 3.59637e-08)
(2.15302e-08 -8.05752e-08 4.35625e-08)
(2.31147e-08 -9.29344e-08 5.21159e-08)
(2.43405e-08 -1.05888e-07 6.16008e-08)
(2.51007e-08 -1.19251e-07 7.18462e-08)
(2.52179e-08 -1.32668e-07 8.24409e-08)
(2.44148e-08 -1.45505e-07 9.26772e-08)
(2.23406e-08 -1.5666e-07 1.01612e-07)
(1.87431e-08 -1.64222e-07 1.08407e-07)
(1.41413e-08 -1.65807e-07 1.12639e-07)
(2.40868e-09 -6.3731e-09 3.04885e-09)
(6.67549e-09 -1.78754e-08 8.59796e-09)
(1.04813e-08 -2.8712e-08 1.39596e-08)
(1.38999e-08 -3.93405e-08 1.94274e-08)
(1.69929e-08 -5.01295e-08 2.52518e-08)
(1.9811e-08 -6.13684e-08 3.16514e-08)
(2.23991e-08 -7.32651e-08 3.88092e-08)
(2.4797e-08 -8.59482e-08 4.68605e-08)
(2.70445e-08 -9.94657e-08 5.58788e-08)
(2.91852e-08 -1.13783e-07 6.58287e-08)
(3.12836e-08 -1.2876e-07 7.6513e-08)
(3.34536e-08 -1.4413e-07 8.74608e-08)
(3.59534e-08 -1.59484e-07 9.78281e-08)
(3.94865e-08 -1.74351e-07 1.06357e-07)
(4.58017e-08 -1.88402e-07 1.11624e-07)
(5.64256e-08 -2.0069e-07 1.12972e-07)
(1.71601e-10 -5.92649e-10 1.87151e-10)
(4.7301e-10 -1.65846e-09 5.29377e-10)
(7.33525e-10 -2.65359e-09 8.61179e-10)
(9.52777e-10 -3.61541e-09 1.20676e-09)
(1.12467e-09 -4.58033e-09 1.58149e-09)
(1.24084e-09 -5.55686e-09 1.99954e-09)
(1.28465e-09 -6.55285e-09 2.47166e-09)
(1.22948e-09 -7.56652e-09 3.00522e-09)
(1.0344e-09 -8.58696e-09 3.60217e-09)
(6.38658e-10 -9.59335e-09 4.25549e-09)
(-4.59476e-11 -1.05598e-08 4.94427e-09)
(-1.15319e-09 -1.14597e-08 5.63894e-09)
(-2.90214e-09 -1.2243e-08 6.28879e-09)
(-5.79852e-09 -1.28446e-08 6.87657e-09)
(-1.0937e-08 -1.30195e-08 7.4871e-09)
(-1.88331e-08 -1.21251e-08 8.14993e-09)
(5.1364e-10 -1.75998e-09 5.57413e-10)
(1.41578e-09 -4.92597e-09 1.57328e-09)
(2.19752e-09 -7.88179e-09 2.56412e-09)
(2.85536e-09 -1.07531e-08 3.5901e-09)
(3.37873e-09 -1.36089e-08 4.70157e-09)
(3.74089e-09 -1.65077e-08 5.94005e-09)
(3.89621e-09 -1.94695e-08 7.33829e-09)
(3.77118e-09 -2.24894e-08 8.91836e-09)
(3.25233e-09 -2.55333e-08 1.06847e-08)
(2.1758e-09 -2.85386e-08 1.2615e-08)
(3.19173e-10 -3.14196e-08 1.46473e-08)
(-2.59392e-09 -3.40702e-08 1.66698e-08)
(-6.88901e-09 -3.6393e-08 1.85091e-08)
(-1.28048e-08 -3.81967e-08 1.99401e-08)
(-2.00052e-08 -3.90855e-08 2.07562e-08)
(-2.59593e-08 -3.84884e-08 2.08218e-08)
(8.52747e-10 -2.87404e-09 9.14376e-10)
(2.352e-09 -8.04644e-09 2.58099e-09)
(3.65474e-09 -1.28857e-08 4.20631e-09)
(4.76154e-09 -1.75707e-08 5.88604e-09)
(5.65656e-09 -2.22509e-08 7.70314e-09)
(6.30478e-09 -2.70059e-08 9.72533e-09)
(6.64143e-09 -3.18821e-08 1.20083e-08)
(6.56109e-09 -3.68775e-08 1.45893e-08)
(5.90187e-09 -4.19421e-08 1.74786e-08)
(4.43134e-09 -4.6978e-08 2.06426e-08)
(1.84244e-09 -5.1849e-08 2.3989e-08)
(-2.21483e-09 -5.64079e-08 2.73743e-08)
(-8.02671e-09 -6.05187e-08 3.05127e-08)
(-1.54726e-08 -6.41815e-08 3.31399e-08)
(-2.32049e-08 -6.74819e-08 3.50494e-08)
(-2.78407e-08 -7.01926e-08 3.61531e-08)
(1.18624e-09 -3.8986e-09 1.24904e-09)
(3.27453e-09 -1.09181e-08 3.52905e-09)
(5.09737e-09 -1.7487e-08 5.74775e-09)
(6.66125e-09 -2.38663e-08 8.03799e-09)
(7.95517e-09 -3.02355e-08 1.05087e-08)
(8.94295e-09 -3.67347e-08 1.32548e-08)
(9.55635e-09 -4.34323e-08 1.63535e-08)
(9.68015e-09 -5.03372e-08 1.98581e-08)
(9.13571e-09 -5.7392e-08 2.37861e-08)
(7.66257e-09 -6.44718e-08 2.80975e-08)
(4.91755e-09 -7.13885e-08 3.27102e-08)
(4.87955e-10 -7.7897e-08 3.73981e-08)
(-5.98274e-09 -8.37659e-08 4.18877e-08)
(-1.44194e-08 -8.88917e-08 4.58686e-08)
(-2.34258e-08 -9.33985e-08 4.91124e-08)
(-2.93435e-08 -9.70905e-08 5.12605e-08)
(1.51031e-09 -4.79635e-09 1.55622e-09)
(4.17273e-09 -1.34377e-08 4.39382e-09)
(6.50811e-09 -2.15355e-08 7.15257e-09)
(8.53423e-09 -2.94015e-08 9.99173e-09)
(1.02503e-08 -3.72893e-08 1.30474e-08)
(1.16307e-08 -4.5367e-08 1.64364e-08)
(1.26187e-08 -5.37391e-08 2.02556e-08)
(1.31144e-08 -6.24321e-08 2.45728e-08)
(1.2958e-08 -7.13934e-08 2.94128e-08)
(1.19131e-08 -8.04827e-08 3.47445e-08)
(9.65045e-09 -8.94585e-08 4.04576e-08)
(5.7387e-09 -9.79422e-08 4.63252e-08)
(-3.10003e-10 -1.05438e-07 5.20115e-08)
(-8.79696e-09 -1.11362e-07 5.71919e-08)
(-1.89963e-08 -1.15244e-07 6.15868e-08)
(-2.72483e-08 -1.17237e-07 6.46046e-08)
(1.8195e-09 -5.5356e-09 1.82738e-09)
(5.03107e-09 -1.5511e-08 5.15817e-09)
(7.86188e-09 -2.48688e-08 8.38939e-09)
(1.03448e-08 -3.3987e-08 1.17053e-08)
(1.24929e-08 -4.31517e-08 1.52614e-08)
(1.43008e-08 -5.25846e-08 1.91939e-08)
(1.57367e-08 -6.24198e-08 2.36149e-08)
(1.67368e-08 -7.2709e-08 2.86032e-08)
(1.71941e-08 -8.34163e-08 3.4189e-08)
(1.69477e-08 -9.44033e-08 4.0342e-08)
(1.5768e-08 -1.054e-07 4.6937e-08)
(1.33361e-08 -1.15952e-07 5.37063e-08)
(9.20029e-09 -1.25303e-07 6.02463e-08)
(2.7894e-09 -1.32248e-07 6.61565e-08)
(-6.23035e-09 -1.35004e-07 7.10979e-08)
(-1.59058e-08 -1.3261e-07 7.44864e-08)
(2.10727e-09 -6.08312e-09 2.0591e-09)
(5.83173e-09 -1.70519e-08 5.80836e-09)
(9.12873e-09 -2.7359e-08 9.43743e-09)
(1.20456e-08 -3.74227e-08 1.31473e-08)
(1.46164e-08 -4.75806e-08 1.71095e-08)
(1.68565e-08 -5.80835e-08 2.14727e-08)
(1.87668e-08 -6.90994e-08 2.63587e-08)
(2.03308e-08 -8.07077e-08 3.18524e-08)
(2.15133e-08 -9.28973e-08 3.79848e-08)
(2.22656e-08 -1.05554e-07 4.47196e-08)
(2.25329e-08 -1.18435e-07 5.19089e-08)
(2.22628e-08 -1.31116e-07 5.92253e-08)
(2.14266e-08 -1.42922e-07 6.61543e-08)
(2.00159e-08 -1.52778e-07 7.21224e-08)
(1.79943e-08 -1.59005e-07 7.66223e-08)