/*--------------------------------*- C++ -*----------------------------------*\
| =========                 |                                                 |
| \\      /  F ield         | OpenFOAM: The Open Source CFD Toolbox           |
|  \\    /   O peration     | Version:  v1912                                 |
|   \\  /    A nd           | Website:  www.openfoam.com                      |
|    \\/     M anipulation  |                                                 |
\*---------------------------------------------------------------------------*/
FoamFile
{
    version     2.0;
    format      ascii;
    class       volScalarField;
    location    "0.27/fluid";
    object      p;
}
// * * * * * * * * * * * * * * * * * * * * * * * * * * * * * * * * * * * * * //

dimensions      [0 2 -2 0 0 0 0];


internalField   nonuniform List<scalar> 
14592
(
0.0717388
0.0662721
0.0644196
0.0627984
0.061707
0.0607496
0.059891
0.0591152
0.0583629
0.0577469
0.0570715
0.0567353
0.0560667
0.0564318
0.055574
0.0583687
0.0674572
0.0657627
0.0641431
0.0627963
0.0617396
0.0608008
0.059946
0.0591777
0.0584362
0.0578407
0.0571909
0.0569078
0.0562933
0.0568355
0.0560254
0.0598367
0.0655684
0.0649124
0.0636673
0.0626174
0.0616338
0.0607386
0.0598951
0.0591328
0.0583938
0.0578049
0.057167
0.0569189
0.0563485
0.0570252
0.0562937
0.0605581
0.064306
0.0640932
0.0631899
0.0623633
0.0614764
0.0606356
0.0598125
0.0590584
0.0583209
0.0577358
0.0571068
0.0568907
0.0563669
0.0571667
0.0565556
0.0610822
0.0635541
0.0634717
0.0627669
0.0620778
0.061266
0.060467
0.0596558
0.0588959
0.0581377
0.0575201
0.0568472
0.0565845
0.0560033
0.0567955
0.0561654
0.0609036
0.063021
0.0629877
0.0624151
0.0618166
0.0610626
0.0602942
0.0594903
0.058722
0.0579452
0.0573023
0.0566062
0.056335
0.0557698
0.0566767
0.0562051
0.0613889
0.062676
0.0626586
0.0621513
0.0615961
0.0608681
0.0601056
0.0592873
0.0584837
0.0576497
0.0569176
0.0560964
0.0556377
0.0548051
0.0553616
0.0543105
0.0594491
0.0624664
0.0624554
0.0619754
0.0614357
0.0607127
0.0599419
0.0591027
0.0582641
0.0573854
0.0565928
0.0557118
0.0551887
0.054337
0.0550425
0.0542593
0.061647
0.0716029
0.0661379
0.0643233
0.062745
0.0617102
0.0608168
0.0600317
0.0593401
0.0586833
0.0581756
0.0576218
0.05739
0.0568471
0.057072
0.0562571
0.05737
0.0673216
0.065627
0.0640465
0.0627432
0.061744
0.0608701
0.0600895
0.0594064
0.0587614
0.0582751
0.0577468
0.0575642
0.0570644
0.057411
0.056584
0.0581503
0.0654301
0.0647728
0.0635666
0.0625602
0.0616343
0.0608038
0.0600341
0.0593563
0.0587125
0.0582313
0.0577112
0.0575592
0.0570908
0.0575452
0.0567582
0.0585765
0.0641657
0.0639514
0.0630862
0.0623026
0.0614729
0.0606962
0.059946
0.0592755
0.0586319
0.0581537
0.0576403
0.0575202
0.0570916
0.0576609
0.0569652
0.0589695
0.0634106
0.0633267
0.0626591
0.0620121
0.0612562
0.0605196
0.0597787
0.0590991
0.0584299
0.0579136
0.0573468
0.0571719
0.0566656
0.0572191
0.0564555
0.0586522
0.0628742
0.0628395
0.0623034
0.061746
0.0610462
0.0603384
0.0596024
0.0589117
0.0582201
0.0576757
0.0570812
0.0569006
0.0564052
0.0570984
0.0564762
0.0591447
0.062525
0.0625064
0.0620347
0.0615193
0.0608435
0.0601386
0.0593841
0.058652
0.0578945
0.0572496
0.056511
0.0561242
0.0553159
0.0556464
0.0543131
0.0569837
0.0623109
0.062299
0.0618537
0.0613527
0.06068
0.0599643
0.0591852
0.0584139
0.0576061
0.0568957
0.0560911
0.0556461
0.0548206
0.055383
0.0543277
0.0594683
0.0715117
0.0660478
0.0642626
0.0627194
0.0617338
0.0608994
0.060187
0.0595855
0.0590437
0.0586839
0.0583357
0.058363
0.058242
0.05889
0.0590129
0.0602933
0.0672307
0.0655358
0.0639855
0.0627182
0.061769
0.060955
0.0602484
0.059657
0.0591291
0.0587939
0.0584754
0.0585563
0.0584858
0.0592522
0.0594028
0.061033
0.0653365
0.0646781
0.0635018
0.0625313
0.0616555
0.060885
0.060189
0.0596025
0.059075
0.0587445
0.0584328
0.0585451
0.0585056
0.0593839
0.0595937
0.061465
0.06407
0.0638543
0.0630185
0.0622703
0.0614901
0.0607729
0.0600955
0.0595155
0.0589869
0.0586589
0.0583525
0.0584989
0.0584984
0.0594994
0.0598023
0.0618578
0.0633117
0.0632263
0.0625874
0.0619748
0.0612671
0.0605882
0.0599177
0.0593252
0.0587659
0.0583938
0.0580237
0.0581066
0.0580077
0.0589849
0.0591752
0.0614147
0.0627718
0.0627358
0.0622276
0.0617036
0.0610507
0.0603986
0.0597301
0.059123
0.0585363
0.0581309
0.0577239
0.0577958
0.0576889
0.0588076
0.0590879
0.0618002
0.0624185
0.0623987
0.0619541
0.0614707
0.0608397
0.0601875
0.0594959
0.0588409
0.0581778
0.0576573
0.057081
0.0569159
0.0564275
0.057126
0.056494
0.0591554
0.0622001
0.0621871
0.0617681
0.061298
0.060668
0.0600021
0.0592818
0.0585816
0.0578596
0.0572625
0.0566016
0.0563603
0.0558104
0.0567312
0.0562486
0.061434
0.0714515
0.065988
0.0642249
0.0627087
0.0617611
0.0609717
0.0603128
0.0597721
0.0592995
0.0590116
0.0587445
0.058825
0.0587791
0.0593579
0.0595179
0.0604921
0.0671708
0.0654751
0.0639478
0.062708
0.0617976
0.0610292
0.0603766
0.0598468
0.0593889
0.059126
0.0588883
0.0590197
0.0590187
0.0596934
0.0598632
0.0610858
0.0652741
0.0646142
0.0634605
0.0625176
0.0616805
0.0609556
0.0603134
0.0597879
0.0593291
0.0590695
0.058835
0.058993
0.0590128
0.0597822
0.0599885
0.0614106
0.0640054
0.0637882
0.0629745
0.0622534
0.0615116
0.0608396
0.0602152
0.0596954
0.0592344
0.0589764
0.0587449
0.0589356
0.0589878
0.0598734
0.0601537
0.0617436
0.0632442
0.0631572
0.0625397
0.0619534
0.061283
0.060648
0.0600286
0.059494
0.0589987
0.0586929
0.058391
0.0585132
0.0584533
0.0593088
0.0594469
0.0612144
0.0627011
0.0626636
0.0621762
0.0616777
0.0610609
0.0604512
0.059832
0.0592807
0.0587552
0.0584139
0.0580711
0.058183
0.0581078
0.0591122
0.0593187
0.0615629
0.062344
0.0623228
0.0618983
0.0614394
0.0608429
0.0602309
0.0595854
0.0589822
0.0583744
0.0579114
0.057388
0.0572545
0.0567734
0.0573522
0.0565814
0.0587683
0.0621216
0.0621074
0.0617078
0.0612613
0.0606643
0.0600366
0.0593597
0.0587081
0.0580371
0.057494
0.0568807
0.056673
0.0561245
0.0569522
0.0563134
0.0610619
0.0714139
0.0659507
0.0642046
0.0627099
0.0617933
0.0610419
0.0604305
0.0599469
0.0595452
0.05934
0.05918
0.0593687
0.0594824
0.0601505
0.0605166
0.0614025
0.0671334
0.0654373
0.0639274
0.0627097
0.0618309
0.0611013
0.060497
0.0600254
0.0596398
0.0594616
0.0593336
0.0595751
0.0597363
0.0604947
0.0608737
0.0619636
0.0652347
0.0645737
0.0634373
0.0625163
0.061711
0.0610249
0.0604308
0.0599632
0.0595761
0.0594006
0.059274
0.0595403
0.0597173
0.0605629
0.0609689
0.0622397
0.0639642
0.0637457
0.062949
0.0622494
0.061539
0.0609054
0.0603285
0.0598661
0.0594758
0.0593012
0.0591759
0.0594744
0.0596799
0.0606396
0.0611096
0.0625417
0.0632003
0.063112
0.0625109
0.0619455
0.0613056
0.0607078
0.0601343
0.0596549
0.0592271
0.0590011
0.0587992
0.0590243
0.0591059
0.0600297
0.0603343
0.0619395
0.0626544
0.0626158
0.0621442
0.0616658
0.0610785
0.0605046
0.0599295
0.0594311
0.0589697
0.058705
0.0584563
0.0586677
0.0587227
0.0597938
0.0601417
0.0622222
0.062294
0.0622718
0.0618624
0.0614228
0.0608543
0.0602762
0.0596717
0.0591175
0.0585677
0.0581739
0.0577322
0.0576861
0.057308
0.057937
0.0572427
0.0592464
0.0620681
0.062053
0.0616681
0.06124
0.0606696
0.0600738
0.0594351
0.0588288
0.0582105
0.0577303
0.0571886
0.0570601
0.0565946
0.0574693
0.0568618
0.0614348
0.0713914
0.0659283
0.0641941
0.0627146
0.0618199
0.0610948
0.0605149
0.0600664
0.0597043
0.0595373
0.0594189
0.0596296
0.0597732
0.0604083
0.0607792
0.0615879
0.0671111
0.0654144
0.063917
0.0627148
0.0618583
0.0611553
0.060583
0.060147
0.0598016
0.059662
0.0595754
0.0598377
0.0600265
0.0607445
0.0611225
0.0621088
0.0652108
0.0645487
0.0634246
0.0625191
0.0617361
0.0610767
0.0605143
0.0600821
0.0597343
0.0595964
0.0595093
0.0597934
0.0599924
0.0607894
0.0611833
0.0623382
0.0639389
0.0637193
0.0629344
0.0622501
0.0615618
0.0609545
0.060409
0.0599815
0.0596298
0.0594923
0.0594048
0.0597202
0.0599435
0.060851
0.0612991
0.0626112
0.0631728
0.0630834
0.0624938
0.0619431
0.0613247
0.0607525
0.0602092
0.0597634
0.0593722
0.0591814
0.0590138
0.0592533
0.059346
0.0602142
0.0604827
0.0619655
0.0626247
0.0625851
0.0621246
0.0616604
0.0610938
0.0605447
0.0599986
0.0595326
0.059106
0.0588751
0.0586584
0.0588839
0.0589451
0.0599615
0.0602605
0.0622189
0.0622617
0.0622385
0.0618398
0.0614138
0.060865
0.0603103
0.0597331
0.059209
0.058691
0.058328
0.0579131
0.0578779
0.0574958
0.058067
0.0572956
0.0591661
0.0620331
0.0620172
0.0616425
0.0612274
0.0606758
0.0601022
0.059489
0.058911
0.058322
0.0578706
0.0573525
0.0572351
0.0567611
0.0575844
0.0568868
0.0613334
0.0713793
0.0659162
0.0641899
0.0627206
0.0618407
0.0611339
0.0605767
0.0601549
0.0598248
0.0596925
0.0596163
0.0598633
0.0600559
0.0607056
0.0611163
0.0618872
0.0670991
0.065402
0.0639128
0.0627211
0.0618798
0.0611955
0.0606463
0.0602375
0.0599247
0.0598207
0.0597776
0.0600771
0.0603159
0.0610465
0.0614644
0.0623989
0.0651977
0.0645349
0.0634189
0.0625237
0.0617561
0.0611153
0.060576
0.0601708
0.0598555
0.0597529
0.0597082
0.0600284
0.0602746
0.0610804
0.0615086
0.0626051
0.0639247
0.0637044
0.0629275
0.0622534
0.0615802
0.0609914
0.0604687
0.0600679
0.059748
0.0596454
0.0595995
0.0599504
0.0602187
0.0611331
0.06161
0.0628615
0.0631572
0.0630671
0.0624851
0.0619443
0.0613405
0.0607862
0.0602649
0.0598449
0.0594841
0.0593266
0.0591979
0.0594709
0.0596035
0.060476
0.0607639
0.0621846
0.0626075
0.0625672
0.0621141
0.0616594
0.0611069
0.060575
0.06005
0.0596087
0.059211
0.059012
0.0588315
0.0590889
0.0591851
0.0602043
0.0605123
0.0624083
0.0622427
0.0622189
0.0618272
0.0614103
0.0608749
0.0603365
0.059779
0.0592778
0.0587861
0.0584521
0.0580686
0.0580614
0.057705
0.0582738
0.0574898
0.0592892
0.0620123
0.0619958
0.0616278
0.0612213
0.0606824
0.0601242
0.0595294
0.0589726
0.0584075
0.0579825
0.0574917
0.0573992
0.0569437
0.0577634
0.0570386
0.061417
0.0713737
0.0659112
0.0641881
0.0627239
0.0618509
0.0611526
0.0606054
0.0601944
0.0598763
0.0597546
0.0596895
0.0599401
0.0601379
0.0607757
0.0611845
0.0619405
0.0670941
0.0653965
0.0639112
0.0627245
0.0618903
0.0612145
0.0606753
0.0602774
0.0599766
0.059883
0.0598504
0.0601525
0.060395
0.0611111
0.0615254
0.0624402
0.0651917
0.0645287
0.0634165
0.0625263
0.0617658
0.0611335
0.0606042
0.0602097
0.0599059
0.0598133
0.0597782
0.0601001
0.0603479
0.0611367
0.061558
0.0626324
0.0639184
0.0636976
0.0629245
0.0622552
0.061589
0.0610086
0.0604957
0.0601055
0.059797
0.0597042
0.0596675
0.0600195
0.0602883
0.0611845
0.0616516
0.0628799
0.0631501
0.0630595
0.0624812
0.061945
0.0613481
0.0608019
0.0602902
0.0598804
0.0595305
0.0593824
0.0592621
0.0595358
0.0596674
0.060521
0.0607957
0.0621921
0.0625997
0.0625589
0.0621094
0.0616591
0.0611132
0.0605892
0.0600734
0.0596419
0.0592546
0.0590648
0.058892
0.0591502
0.059244
0.0602441
0.0605345
0.062405
0.0622339
0.0622097
0.0618215
0.0614088
0.0608797
0.0603488
0.0597999
0.0593081
0.058826
0.0585005
0.0581237
0.0581171
0.0577566
0.0583062
0.0574985
0.0592687
0.0620025
0.0619857
0.061621
0.0612186
0.0606857
0.0601345
0.0595479
0.0589998
0.0584437
0.0580266
0.0575418
0.0574498
0.0569889
0.0577892
0.057035
0.061381
0.0814856
0.0709238
0.0673564
0.0643561
0.0624482
0.0608196
0.0593946
0.058039
0.0566843
0.0553058
0.0538146
0.0522506
0.0504334
0.048542
0.0462267
0.0439519
0.0771563
0.0700897
0.0669181
0.0642347
0.0624046
0.0608156
0.0594049
0.0580598
0.0567129
0.0553429
0.0538606
0.0523084
0.0505025
0.0486259
0.0463202
0.0440534
0.0752362
0.0691107
0.0663271
0.0639556
0.0622413
0.0607248
0.0593464
0.0580211
0.0566856
0.0553245
0.0538515
0.0523098
0.0505187
0.0486583
0.0463719
0.0441198
0.0739383
0.0682505
0.0658007
0.0636581
0.0620599
0.0606141
0.0592703
0.0579639
0.0566382
0.0552827
0.0538153
0.0522798
0.0505002
0.0486527
0.0463872
0.0441532
0.0731668
0.0676164
0.0653606
0.0633617
0.061854
0.0604672
0.0591553
0.0578657
0.0565475
0.0551938
0.0537278
0.0521927
0.0504213
0.0485828
0.0463436
0.044134
0.0726307
0.0671361
0.0650101
0.0631063
0.0616669
0.0603247
0.0590372
0.0577589
0.0564443
0.0550893
0.0536232
0.0520874
0.0503265
0.0484994
0.046295
0.0441155
0.0722939
0.0668186
0.0647595
0.0629058
0.0615052
0.0601879
0.0589124
0.0576362
0.0563182
0.0549546
0.0534814
0.0519362
0.0501793
0.0483555
0.0461884
0.0440414
0.0721012
0.0666327
0.0646032
0.0627709
0.0613859
0.0600768
0.058802
0.0575201
0.0561941
0.0548197
0.0533398
0.0517875
0.0500408
0.0482268
0.0461068
0.0439977
0.0771447
0.0700729
0.0668945
0.0642055
0.0623696
0.0607781
0.0593638
0.0580086
0.0566474
0.0552616
0.0537575
0.0521842
0.0503448
0.0484465
0.0460921
0.0438279
0.0728379
0.069503
0.0665446
0.0641319
0.0623498
0.0607881
0.0593824
0.0580316
0.0566731
0.055291
0.0537912
0.0522245
0.050392
0.0485036
0.0461563
0.0439004
0.0709214
0.0685916
0.0660024
0.0638928
0.0622084
0.0607089
0.0593294
0.0579941
0.0566444
0.0552691
0.053777
0.0522195
0.0504007
0.0485271
0.0461983
0.0439569
0.0696314
0.0677383
0.065492
0.0636106
0.0620371
0.0606048
0.0592575
0.0579398
0.0565991
0.0552292
0.053743
0.0521919
0.0503853
0.0485252
0.0462178
0.0439942
0.0688657
0.067102
0.0650573
0.0633202
0.0618357
0.0604607
0.0591443
0.0578434
0.0565103
0.0551425
0.0536583
0.0521082
0.0503107
0.04846
0.0461801
0.0439805
0.0683313
0.0666174
0.0647079
0.0630673
0.0616513
0.0603204
0.0590282
0.0577395
0.0564109
0.0550429
0.0535602
0.0520111
0.0502267
0.0483893
0.0461473
0.0439778
0.067996
0.0662983
0.0644584
0.0628685
0.0614916
0.0601849
0.0589047
0.057619
0.0562876
0.0549118
0.0534229
0.0518652
0.0500863
0.0482527
0.0460512
0.0439135
0.0678039
0.066112
0.064303
0.0627352
0.0613744
0.0600753
0.0587961
0.0575061
0.0561679
0.0547825
0.0532891
0.0517264
0.0499613
0.0481403
0.0459915
0.043892
0.0752272
0.0690965
0.0663115
0.0639416
0.0622341
0.060732
0.0593687
0.0580557
0.0567286
0.0553805
0.053901
0.0523641
0.0505094
0.0486244
0.0461198
0.0438105
0.0709269
0.0685975
0.0660149
0.0639131
0.0622423
0.0607599
0.0593992
0.0580881
0.0567632
0.0554193
0.0539453
0.0524168
0.0505706
0.0486982
0.0461996
0.0439004
0.0690225
0.0677329
0.0655187
0.063715
0.0621266
0.0606959
0.0593547
0.0580551
0.056737
0.0553991
0.0539328
0.0524139
0.0505824
0.0487257
0.0462448
0.0439583
0.0677443
0.0668974
0.0650284
0.0634516
0.0619679
0.0605996
0.0592871
0.058003
0.0566926
0.0553594
0.053899
0.0523873
0.0505698
0.0487288
0.0462719
0.0440051
0.066986
0.0662689
0.0646035
0.0631704
0.0617722
0.0604584
0.0591743
0.0579044
0.0565995
0.0552663
0.0538062
0.0522933
0.0504841
0.0486514
0.0462261
0.043986
0.0664547
0.0657863
0.0642575
0.0629208
0.0615896
0.0603184
0.059057
0.0577976
0.0564958
0.0551608
0.0537015
0.052189
0.0503955
0.0485785
0.0462016
0.0439976
0.0661204
0.0654675
0.0640088
0.0627225
0.0614292
0.0601808
0.0589297
0.0576708
0.0563634
0.0550166
0.0535473
0.0520203
0.0502296
0.0484109
0.0460849
0.0439157
0.0659276
0.0652803
0.0638528
0.0625883
0.0613103
0.0600685
0.058817
0.057552
0.0562358
0.054877
0.0534016
0.0518674
0.0500935
0.0482887
0.0460337
0.043911
0.073925
0.0682313
0.0657905
0.0636627
0.0620912
0.0606836
0.0593832
0.0581239
0.0568408
0.0555417
0.0540934
0.0526044
0.0507243
0.0488587
0.0461197
0.0437563
0.0696335
0.0677395
0.0655108
0.0636507
0.0621113
0.0607198
0.0594195
0.0581613
0.0568801
0.0555859
0.0541439
0.0526659
0.0507969
0.048951
0.0462211
0.0438757
0.0677401
0.0668915
0.0650335
0.0634704
0.0620073
0.0606629
0.0593785
0.0581297
0.056854
0.0555649
0.0541307
0.052663
0.0508102
0.0489819
0.0462672
0.0439309
0.0664707
0.0660665
0.0645533
0.0632163
0.061855
0.0605705
0.0593126
0.0580775
0.0568085
0.0555237
0.0540958
0.0526365
0.0508002
0.048991
0.046303
0.0439888
0.0657183
0.0654444
0.0641342
0.0629401
0.0616621
0.0604299
0.059198
0.0579749
0.0567091
0.0554216
0.0539913
0.0525276
0.0506979
0.0488946
0.0462428
0.0439588
0.0651899
0.0649645
0.0637906
0.0626924
0.0614801
0.0602891
0.0590782
0.0578636
0.0565994
0.0553084
0.0538785
0.0524149
0.0506047
0.0488213
0.0462336
0.0439954
0.0648565
0.0646464
0.0635422
0.0624938
0.0613181
0.0601483
0.0589454
0.0577285
0.056455
0.0551472
0.0537017
0.0522151
0.0504028
0.048608
0.0460857
0.0438852
0.064663
0.0644585
0.0633852
0.0623581
0.0611968
0.0600324
0.0588276
0.0576022
0.0563178
0.054995
0.0535423
0.0520463
0.0502563
0.0484792
0.0460577
0.0439196
0.0731486
0.0675929
0.0653649
0.063405
0.0619583
0.0606518
0.0594347
0.058257
0.0570526
0.0558481
0.0544833
0.0531136
0.0512668
0.0495048
0.0464779
0.0440542
0.0688632
0.0670981
0.0650906
0.0633998
0.0619841
0.0606928
0.0594758
0.0582999
0.0570988
0.0559017
0.0545464
0.0531934
0.0513641
0.0496348
0.0466228
0.0442243
0.0669766
0.0662568
0.0646221
0.0632279
0.061886
0.0606394
0.0594363
0.0582684
0.0570721
0.0558802
0.0545335
0.053193
0.0513827
0.049675
0.0466731
0.0442758
0.0657133
0.0654382
0.0641477
0.0629791
0.061737
0.0605484
0.05937
0.0582145
0.0570238
0.0558358
0.054496
0.0531661
0.0513761
0.0496944
0.0467235
0.0443545
0.064965
0.0648205
0.0637321
0.0627053
0.0615445
0.0604059
0.0592506
0.058104
0.056913
0.055718
0.0543711
0.0530314
0.0512439
0.0495652
0.0466368
0.0443087
0.0644382
0.0643424
0.0633896
0.0624576
0.0613611
0.0602617
0.059125
0.0579839
0.0567915
0.0555896
0.0542406
0.0528991
0.0511346
0.0494825
0.0466421
0.0443841
0.0641045
0.0640241
0.0631401
0.0622568
0.0611952
0.0601146
0.0589823
0.0578339
0.0566258
0.0553975
0.0540217
0.0526406
0.0508601
0.0491765
0.0464175
0.0442067
0.0639092
0.0638344
0.0629809
0.0621179
0.0610691
0.0599919
0.0588546
0.0576936
0.0564699
0.0552201
0.0538315
0.0524336
0.0506772
0.049014
0.0463974
0.0442901
0.0725894
0.0670895
0.0650153
0.0631806
0.0618444
0.0606339
0.0595022
0.0584102
0.0572893
0.0561842
0.0549044
0.0536541
0.0518215
0.0501408
0.0466583
0.0440777
0.0683055
0.0665887
0.0647408
0.0631771
0.0618725
0.0606777
0.0595466
0.0584573
0.0573409
0.0562454
0.0549782
0.0537514
0.051944
0.0503132
0.0468384
0.0442438
0.0664208
0.0657473
0.0642736
0.0630068
0.0617752
0.0606242
0.0595059
0.0584238
0.0573115
0.0562213
0.0549631
0.0537515
0.0519645
0.0503575
0.0468688
0.0442345
0.0651601
0.0649309
0.0638009
0.0627591
0.0616263
0.0605321
0.0594372
0.0583664
0.0572588
0.0561722
0.0549215
0.0537233
0.0519604
0.0503877
0.0469306
0.0443278
0.0644132
0.0643145
0.0633858
0.0624848
0.0614318
0.0603855
0.0593112
0.0582461
0.0571342
0.0560357
0.0547719
0.0535568
0.0517897
0.0502159
0.0468097
0.0442703
0.0638866
0.0638367
0.0630426
0.0622356
0.0612455
0.0602364
0.0591783
0.0581159
0.0569996
0.055891
0.054623
0.0534057
0.0516673
0.0501346
0.0468561
0.0444383
0.0635514
0.0635171
0.0627911
0.0620316
0.0610745
0.0600814
0.0590241
0.0579489
0.0568097
0.0556641
0.0543556
0.0530784
0.0513046
0.0497144
0.0465442
0.0442043
0.0633536
0.0633252
0.0626288
0.0618886
0.0609429
0.0599509
0.0588854
0.0577936
0.0566342
0.0554612
0.0541354
0.0528372
0.051096
0.0495465
0.0465964
0.0444742
0.072209
0.0667297
0.0647553
0.0630105
0.0617691
0.0606515
0.0596148
0.0586297
0.0576289
0.0566819
0.055581
0.0545974
0.0530002
0.0517267
0.0480694
0.0455273
0.0679266
0.0662254
0.0644806
0.0630078
0.0617989
0.060698
0.059663
0.0586823
0.0576883
0.056755
0.0556718
0.0547224
0.0531625
0.0519651
0.0483007
0.0456059
0.0660419
0.0653821
0.064012
0.0628361
0.0617001
0.0606427
0.0596198
0.0586459
0.0576557
0.0567282
0.0556555
0.0547263
0.0531914
0.0520291
0.0483274
0.0455261
0.064782
0.0645661
0.063539
0.0625875
0.0615494
0.060548
0.0595474
0.0585836
0.0575972
0.0566733
0.0556088
0.054698
0.0531938
0.0520834
0.0484204
0.0456589
0.0640346
0.0639492
0.0631224
0.0623107
0.0613508
0.0603951
0.0594121
0.0584502
0.0574544
0.0565119
0.0554255
0.0544885
0.0529686
0.0518549
0.0482524
0.0456092
0.0635068
0.0634703
0.0627772
0.0620585
0.0611596
0.0602388
0.0592691
0.0583062
0.0573012
0.0563435
0.0552474
0.0543053
0.0528155
0.051763
0.0483378
0.0459316
0.0631691
0.0631482
0.0625222
0.0618497
0.0609816
0.0600734
0.0590995
0.0581164
0.0570778
0.0560666
0.0549061
0.0538682
0.0522956
0.0511277
0.0478022
0.0455631
0.0629678
0.062953
0.0623558
0.0617015
0.0608426
0.0599323
0.0589461
0.0579402
0.0568733
0.0558235
0.0546328
0.0535582
0.0520094
0.050896
0.0478691
0.0461299
0.0719316
0.0664608
0.0645574
0.0628816
0.0617203
0.0606845
0.0597342
0.0588453
0.0579496
0.0571318
0.0561675
0.0553613
0.0538899
0.0527421
0.0485822
0.0449211
0.0676496
0.0659534
0.0642815
0.0628789
0.0617513
0.0607332
0.0597853
0.0589021
0.0580147
0.0572133
0.0562699
0.0555054
0.054075
0.0530054
0.0487046
0.0441814
0.0657631
0.0651067
0.0638096
0.0627039
0.0616493
0.0606746
0.0597385
0.0588615
0.0579771
0.0571814
0.056248
0.055506
0.0540971
0.0530533
0.0486265
0.043641
0.0645023
0.0642894
0.0633347
0.0624529
0.0614956
0.0605761
0.0596613
0.0587935
0.0579117
0.0571195
0.0561943
0.0554746
0.0540989
0.0531181
0.0487228
0.0437244
0.0637531
0.0636706
0.0629153
0.0621722
0.0612916
0.0604159
0.059516
0.0586464
0.0577501
0.056933
0.0559763
0.0552209
0.0538145
0.0528281
0.0485043
0.0437105
0.0632229
0.0631895
0.0625673
0.061916
0.0610948
0.060252
0.0593626
0.0584889
0.0575796
0.0567435
0.0557735
0.0550148
0.0536446
0.0527576
0.0486914
0.0443148
0.0628819
0.0628642
0.0623083
0.0617018
0.060909
0.0600758
0.0591776
0.0582769
0.0573242
0.0564201
0.0553632
0.0544772
0.0529756
0.0519246
0.0479572
0.0438948
0.0626767
0.0626652
0.0621373
0.061548
0.0607624
0.0599242
0.05901
0.0580816
0.0570945
0.0561447
0.0550509
0.054128
0.0526632
0.0517511
0.0482609
0.0452423
0.0623863
0.0623769
0.0618886
0.0613362
0.0605919
0.0597904
0.0589082
0.0580067
0.0570413
0.0561087
0.0550266
0.0541109
0.0526454
0.051727
0.048211
0.0451562
0.0624434
0.062432
0.0619021
0.0613112
0.0605252
0.059681
0.0587534
0.0577971
0.0567707
0.0557533
0.0545856
0.0535264
0.0519809
0.0508629
0.0478099
0.0460424
0.0626407
0.0626162
0.0620068
0.06135
0.0605001
0.0595968
0.0586111
0.0575872
0.0564836
0.0553551
0.0540614
0.0527846
0.0510501
0.0494976
0.0465232
0.0443751
0.063049
0.0629784
0.0622251
0.0614616
0.060527
0.0595553
0.0585142
0.0574355
0.0562798
0.0550844
0.0537357
0.0523649
0.0506198
0.0489567
0.0463209
0.0441912
0.063688
0.063488
0.0625244
0.0616076
0.060575
0.0595295
0.0584332
0.057301
0.0560942
0.0548335
0.0534268
0.0519626
0.0501877
0.0484137
0.0459778
0.0438206
0.0648757
0.0642343
0.0629241
0.061778
0.060638
0.0595244
0.0583892
0.0572243
0.0559919
0.0547001
0.0532748
0.0517754
0.0500196
0.0482201
0.0459545
0.0438151
0.066695
0.0650115
0.063326
0.0618827
0.0606653
0.0595012
0.058345
0.0571596
0.0559093
0.0545944
0.0531539
0.0516282
0.0498834
0.0480694
0.0459129
0.0437986
0.0709886
0.0655359
0.0636302
0.0619219
0.0606802
0.0595032
0.0583513
0.0571769
0.0559389
0.0546347
0.0532076
0.0516919
0.0499652
0.0481581
0.0460305
0.0439065
0.0622259
0.0622157
0.0617614
0.0612462
0.06055
0.0598001
0.0589731
0.0581313
0.057226
0.05636
0.0553302
0.0544629
0.0529637
0.0519053
0.0478914
0.0437679
0.0622783
0.0622663
0.0617695
0.0612147
0.0604749
0.0596796
0.0588033
0.0579017
0.0569292
0.0559709
0.0548484
0.0538367
0.05227
0.0510961
0.0477246
0.0454377
0.0624708
0.0624459
0.061869
0.061247
0.0604412
0.0595838
0.0586451
0.0576696
0.0566115
0.0555304
0.0542684
0.0530227
0.0512578
0.0496626
0.0464518
0.0440709
0.0628747
0.062804
0.062083
0.0613535
0.0604613
0.0595333
0.0585361
0.0575016
0.0563867
0.0552327
0.0539111
0.052567
0.0508007
0.049116
0.0463256
0.04408
0.06351
0.06331
0.0623781
0.0614947
0.0605032
0.0594992
0.0584439
0.0573518
0.0561809
0.0549548
0.0535696
0.0521246
0.0503311
0.048539
0.0459935
0.0437643
0.064695
0.064054
0.0627755
0.0616623
0.0605628
0.0594894
0.0583936
0.0572667
0.0560681
0.054808
0.053403
0.0519207
0.0501525
0.0483395
0.0459967
0.043803
0.0665126
0.0648301
0.0631761
0.0617652
0.060587
0.0594624
0.0583446
0.0571951
0.0559767
0.0546909
0.0532693
0.0517586
0.0500049
0.0481795
0.0459658
0.0438071
0.0708066
0.0653566
0.0634822
0.0618064
0.060604
0.0594657
0.0583525
0.0572154
0.0560106
0.0547369
0.0533307
0.0518323
0.0501005
0.0482848
0.046106
0.0439379
0.0621104
0.0620992
0.0616702
0.0611846
0.0605287
0.059825
0.059051
0.0582716
0.0574379
0.0566629
0.0557369
0.05501
0.0536442
0.052746
0.048598
0.0441124
0.0621581
0.0621454
0.0616731
0.0611468
0.0604453
0.059693
0.0588651
0.058019
0.0571079
0.0562257
0.0551841
0.0542806
0.0527985
0.0517368
0.0482341
0.0457475
0.0623462
0.0623208
0.0617677
0.0611727
0.0604033
0.0595856
0.0586903
0.0577627
0.0567548
0.0557326
0.0545267
0.0533521
0.0516242
0.0500832
0.0467391
0.0442578
0.0627462
0.0626752
0.0619776
0.0612743
0.0604166
0.0595258
0.0585684
0.0575764
0.0565044
0.0553983
0.054119
0.0528257
0.051078
0.0494232
0.0465335
0.044224
0.063378
0.0631779
0.0622689
0.0614111
0.0604526
0.0594835
0.0584646
0.0574101
0.0562756
0.0550877
0.0537334
0.0523222
0.0505344
0.0487533
0.0461303
0.0438512
0.0645608
0.0639198
0.0626642
0.061576
0.0605088
0.059469
0.0584076
0.0573155
0.0561498
0.0549228
0.0535433
0.0520865
0.05032
0.0485096
0.0461077
0.0438699
0.0663769
0.0646949
0.0630635
0.0616772
0.0605302
0.0594383
0.0583536
0.0572365
0.0560484
0.0547918
0.0533918
0.0519008
0.0501469
0.0483193
0.0460596
0.0438618
0.0706712
0.065223
0.0633712
0.06172
0.0605488
0.0594427
0.058363
0.0572593
0.0560855
0.0548417
0.0534583
0.0519803
0.0502501
0.0484327
0.0462118
0.044004
0.0620276
0.0620154
0.0616052
0.0611421
0.0605174
0.0598493
0.059115
0.0583792
0.0575894
0.0568598
0.055968
0.0552629
0.053866
0.0528672
0.0484088
0.0434276
0.0620713
0.0620578
0.0616036
0.0610989
0.0604271
0.0597082
0.0589171
0.0581108
0.0572391
0.0563975
0.055385
0.0545032
0.0529949
0.0518707
0.0481458
0.0453744
0.0622555
0.0622295
0.0616938
0.0611195
0.0603781
0.0595916
0.0587298
0.0578376
0.0568635
0.0558752
0.0546911
0.0535326
0.0517782
0.0501934
0.0466866
0.0440523
0.0626522
0.0625806
0.0619002
0.0612169
0.0603859
0.0595246
0.0585983
0.0576387
0.0565971
0.0555208
0.0542605
0.0529819
0.0512145
0.0495318
0.04653
0.0441283
0.063281
0.0630805
0.0621882
0.06135
0.0604172
0.0594756
0.0584857
0.0574605
0.0563531
0.055191
0.0538526
0.0524534
0.0506499
0.0488488
0.0461454
0.0438048
0.0644618
0.0638208
0.0625818
0.0615126
0.0604707
0.0594576
0.0584238
0.0573594
0.0562192
0.0550161
0.053652
0.0522066
0.0504295
0.0486042
0.0461431
0.0438574
0.0662766
0.0645949
0.06298
0.0616125
0.06049
0.0594239
0.0583659
0.0572752
0.0561112
0.0548769
0.0534916
0.0520114
0.0502501
0.0484109
0.0461062
0.0438692
0.0705712
0.0651244
0.0632891
0.0616567
0.0605096
0.0594295
0.0583772
0.0573006
0.056152
0.0549317
0.0535647
0.0520994
0.0503645
0.0485378
0.0462757
0.044029
0.0619705
0.0619575
0.0615613
0.0611157
0.060516
0.0598774
0.0591777
0.0584821
0.0577373
0.0570602
0.0562228
0.0555762
0.0542172
0.0532222
0.0486084
0.0432809
0.0620108
0.0619965
0.0615558
0.0610677
0.0604195
0.0597281
0.0589685
0.0581982
0.0573655
0.0565685
0.0555991
0.0547639
0.0532775
0.0521576
0.0483077
0.0453436
0.0621917
0.0621652
0.0616424
0.0610837
0.0603645
0.0596032
0.0587698
0.057909
0.0569676
0.0560153
0.054863
0.0537379
0.0519915
0.0504063
0.0468013
0.0440594
0.0625855
0.0625135
0.0618459
0.0611775
0.0603674
0.0595297
0.0586293
0.0576977
0.0566843
0.0556382
0.0544027
0.0531491
0.0513841
0.0496993
0.0466255
0.0441558
0.063212
0.0630111
0.0621311
0.0613075
0.0603946
0.0594749
0.0585087
0.0575085
0.0564255
0.0552882
0.053969
0.0525879
0.0507834
0.0489782
0.0462204
0.0438322
0.0643912
0.0637499
0.0625231
0.0614682
0.0604457
0.0594537
0.0584422
0.0574011
0.0562832
0.055102
0.0537543
0.0523235
0.0505445
0.0487139
0.0462107
0.0438865
0.0662048
0.0645233
0.0629204
0.0615669
0.0604631
0.0594174
0.0583808
0.0573119
0.0561687
0.0549542
0.0535834
0.0521153
0.0503521
0.0485073
0.0461692
0.0438998
0.0704997
0.0650537
0.0632305
0.0616123
0.0604836
0.0594238
0.0583937
0.0573394
0.056212
0.0550122
0.0536606
0.0522081
0.0504727
0.0486412
0.0463479
0.0440688
0.0619327
0.0619189
0.0615326
0.0610992
0.0605172
0.0598993
0.0592231
0.058553
0.0578339
0.0571818
0.0563621
0.0557229
0.0543423
0.0532878
0.0485129
0.0429281
0.0619703
0.0619554
0.061524
0.0610478
0.0604163
0.0597442
0.0590063
0.0582594
0.0574497
0.0566752
0.0557208
0.0548931
0.0533874
0.0522251
0.0482539
0.0451401
0.0621486
0.0621216
0.0616079
0.0610603
0.0603569
0.0596135
0.0587999
0.0579601
0.0570388
0.0561059
0.0549656
0.053847
0.0520834
0.0504682
0.0467739
0.0439432
0.0625403
0.0624679
0.0618091
0.0611515
0.0603562
0.0595354
0.0586534
0.057741
0.0567458
0.0557169
0.0544921
0.0532449
0.0514666
0.0497611
0.0466235
0.0440963
0.0631649
0.0629636
0.0620922
0.0612791
0.0603804
0.0594765
0.0585273
0.0575447
0.056478
0.055356
0.0540462
0.052671
0.0508566
0.0490365
0.046232
0.0438037
0.0643428
0.0637014
0.062483
0.0614384
0.0604299
0.059453
0.0584578
0.0574333
0.0563308
0.0551641
0.0538255
0.0524008
0.0506148
0.048773
0.0462342
0.043878
0.0661556
0.0644741
0.0628796
0.0615361
0.0604459
0.0594149
0.0583939
0.0573409
0.0562125
0.0550116
0.0536499
0.0521878
0.0504197
0.0485662
0.0462005
0.0439046
0.0704506
0.0650054
0.0631906
0.0615825
0.060467
0.0594221
0.0584082
0.0573702
0.0562583
0.0550728
0.0537312
0.0522861
0.0505474
0.0487084
0.0463894
0.0440839
0.0619099
0.0618956
0.0615157
0.0610905
0.0605204
0.0599167
0.0592572
0.0586062
0.0579078
0.0572782
0.0564799
0.0558595
0.0544841
0.0534128
0.0485532
0.042799
0.0619456
0.0619303
0.0615051
0.0610366
0.0604162
0.0597574
0.0590347
0.058305
0.0575134
0.0567583
0.0558211
0.0550087
0.0535043
0.05233
0.0482929
0.0450832
0.0621223
0.0620949
0.061587
0.0610467
0.0603537
0.0596226
0.0588227
0.057998
0.0570922
0.0561755
0.0550485
0.0539415
0.0521766
0.0505524
0.0468085
0.0439204
0.0625124
0.0624398
0.0617867
0.061136
0.0603506
0.0595411
0.0586717
0.0577729
0.0567913
0.0557762
0.054562
0.0533239
0.0515435
0.0498309
0.046657
0.0440924
0.0631357
0.0629343
0.0620683
0.061262
0.0603726
0.0594794
0.0585417
0.0575713
0.0565165
0.0554063
0.054105
0.052737
0.0509202
0.0490944
0.0462626
0.0438077
0.0643128
0.0636713
0.0624583
0.0614203
0.0604209
0.0594542
0.0584699
0.0574568
0.0563654
0.0552092
0.0538783
0.0524596
0.0506715
0.0488246
0.0462643
0.0438868
0.0661249
0.0644435
0.0628544
0.0615174
0.060436
0.0594148
0.0584043
0.0573621
0.056244
0.0550528
0.0536981
0.0522414
0.0504716
0.0486137
0.0462307
0.0439169
0.0704202
0.0649753
0.0631659
0.0615644
0.0604576
0.0594225
0.0584194
0.0573925
0.0562912
0.0551159
0.0537818
0.0523424
0.0506027
0.0487599
0.0464244
0.0441011
0.0618991
0.0618846
0.0615078