/*--------------------------------*- C++ -*----------------------------------*\
| =========                 |                                                 |
| \\      /  F ield         | OpenFOAM: The Open Source CFD Toolbox           |
|  \\    /   O peration     | Version:  v1912                                 |
|   \\  /    A nd           | Website:  www.openfoam.com                      |
|    \\/     M anipulation  |                                                 |
\*---------------------------------------------------------------------------*/
FoamFile
{
    version     2.0;
    format      ascii;
    class       volVectorField;
    location    "0.27/fluid";
    object      U;
}
// * * * * * * * * * * * * * * * * * * * * * * * * * * * * * * * * * * * * * //

dimensions      [0 1 -1 0 0 0 0];


internalField   nonuniform List<vector> 
14592
(
(0.0883006 0.015939 0.000437954)
(0.0762953 0.00939956 0.000312438)
(0.0660953 0.00511909 -0.000193898)
(0.0615294 0.0022392 -0.000843954)
(0.0588872 0.00104017 -0.00167089)
(0.0573367 0.000541724 -0.00269757)
(0.0561082 0.000363164 -0.00398056)
(0.0549585 0.000302949 -0.0056013)
(0.0536124 0.000293815 -0.00767598)
(0.052156 0.000286036 -0.0104018)
(0.0500157 0.000277263 -0.0140446)
(0.0478428 0.000165687 -0.0190769)
(0.043615 1.49646e-05 -0.0262932)
(0.0396678 -0.000620227 -0.0366236)
(0.0283061 -0.00108086 -0.0513851)
(0.0162205 -0.00392782 -0.053573)
(0.104073 0.0151673 0.000417289)
(0.104837 0.0122031 0.000122421)
(0.103695 0.00829837 -0.00063873)
(0.101925 0.00490231 -0.00160673)
(0.100125 0.00308261 -0.00283206)
(0.0984975 0.00219624 -0.00436805)
(0.0968682 0.00186647 -0.00630409)
(0.0951329 0.00183039 -0.00876575)
(0.0930243 0.00197294 -0.0119308)
(0.0906074 0.00221749 -0.0160919)
(0.0871561 0.00253977 -0.0216492)
(0.0832902 0.0028274 -0.0292942)
(0.0763817 0.00311013 -0.0401307)
(0.0688832 0.00292693 -0.0555165)
(0.0500913 0.00264119 -0.0765483)
(0.0293944 -0.00078876 -0.0790623)
(0.103641 0.00944883 0.000409672)
(0.106816 0.0106911 8.49472e-05)
(0.108626 0.00872459 -0.000709577)
(0.108543 0.00625052 -0.00171262)
(0.10781 0.00464138 -0.00298087)
(0.10671 0.00377214 -0.00457275)
(0.105362 0.00347845 -0.00658103)
(0.103759 0.00357164 -0.00913666)
(0.101692 0.003951 -0.0124241)
(0.0992342 0.00454408 -0.0167509)
(0.0956333 0.00531692 -0.0225338)
(0.0914697 0.00617151 -0.030513)
(0.083962 0.00709783 -0.0418324)
(0.0755164 0.00769413 -0.0580099)
(0.0547989 0.00783507 -0.0801283)
(0.03159 0.00413982 -0.0834255)
(0.101876 0.00640139 0.000432672)
(0.1047 0.00875729 0.000129392)
(0.10719 0.00802227 -0.000647741)
(0.108023 0.00651708 -0.00163112)
(0.108111 0.0053804 -0.00287374)
(0.107593 0.00477585 -0.0044302)
(0.106668 0.00468272 -0.00638905)
(0.105376 0.00500638 -0.00887754)
(0.103553 0.00569071 -0.012074)
(0.101296 0.00669967 -0.0162843)
(0.097837 0.00802362 -0.0219149)
(0.0937463 0.00961235 -0.0297247)
(0.0861389 0.0114598 -0.0408398)
(0.0774088 0.0131879 -0.0569084)
(0.0559653 0.0142546 -0.0790217)
(0.0315967 0.00953377 -0.08301)
(0.101054 0.00446664 0.000473293)
(0.103336 0.00694934 0.00021352)
(0.105801 0.00701488 -0.000528915)
(0.107035 0.00629983 -0.0014771)
(0.107626 0.00568015 -0.00267392)
(0.107571 0.00542853 -0.00416599)
(0.107057 0.0056116 -0.00603362)
(0.106134 0.00621333 -0.00839521)
(0.104662 0.00722396 -0.0114154)
(0.102756 0.00865169 -0.0153873)
(0.0996497 0.0105131 -0.0206892)
(0.0959018 0.012815 -0.0280805)
(0.0885199 0.0155565 -0.0386249)
(0.079823 0.0183786 -0.0541212)
(0.0577174 0.0204 -0.0755834)
(0.0319672 0.0142145 -0.0803709)
(0.1007 0.00327492 0.000522416)
(0.10262 0.00549219 0.000317063)
(0.104964 0.00595341 -0.000382163)
(0.106418 0.00576863 -0.00128761)
(0.107354 0.00558738 -0.00242881)
(0.107675 0.0056868 -0.00384223)
(0.107539 0.00616842 -0.00559804)
(0.106989 0.00707063 -0.00780341)
(0.105901 0.00843038 -0.010606)
(0.104398 0.0103223 -0.0142816)
(0.101714 0.0128287 -0.0191729)
(0.0983864 0.0161084 -0.0260331)
(0.0913215 0.0202953 -0.0358377)
(0.0827566 0.025319 -0.0505602)
(0.0600063 0.0301658 -0.0710793)
(0.0327635 0.0234398 -0.0769358)
(0.100568 0.00232772 0.000579372)
(0.102322 0.00416486 0.000436724)
(0.104616 0.00484289 -0.00021252)
(0.106228 0.00504311 -0.00106862)
(0.107426 0.00523422 -0.00214495)
(0.108069 0.00565372 -0.00346536)
(0.108297 0.00641125 -0.00508645)
(0.10816 0.007578 -0.00709808)
(0.107568 0.00922264 -0.00962068)
(0.106676 0.0114734 -0.0128928)
(0.104796 0.0144542 -0.0171865)
(0.10251 0.0184585 -0.0231865)
(0.0967744 0.0236986 -0.0316587)
(0.0897987 0.0304255 -0.0446578)
(0.0675421 0.0375454 -0.0625962)
(0.0394112 0.0298029 -0.0694655)
(0.100527 0.00149899 0.000640759)
(0.10225 0.00290371 0.00056548)
(0.104587 0.00367291 -3.01099e-05)
(0.106353 0.00414667 -0.000833707)
(0.107774 0.00464031 -0.00184119)
(0.108691 0.00533213 -0.00306309)
(0.109243 0.00632422 -0.0045421)
(0.109487 0.00770808 -0.00635033)
(0.109364 0.00958063 -0.00858177)
(0.109044 0.012138 -0.0114371)
(0.107917 0.015584 -0.0151222)
(0.106577 0.0205234 -0.0202483)
(0.102092 0.0275302 -0.027381)
(0.0968153 0.0387199 -0.0386443)
(0.0756873 0.0541812 -0.0540936)
(0.0502296 0.0633978 -0.0632636)
(0.0882648 0.0159412 0.000208503)
(0.0761114 0.00940986 -2.43799e-05)
(0.0657028 0.00512812 -0.000500126)
(0.0609529 0.00224713 -0.00107353)
(0.0581182 0.00104989 -0.00180807)
(0.0563588 0.000554781 -0.00273901)
(0.0548752 0.000381272 -0.00392065)
(0.0534021 0.000327918 -0.00542026)
(0.0516331 0.000329281 -0.00733456)
(0.04962 0.000336917 -0.00979823)
(0.0467647 0.000355489 -0.013005)
(0.043621 0.000291538 -0.017133)
(0.0383474 0.000234015 -0.022635)
(0.0327173 -0.00019116 -0.0289864)
(0.0211247 -0.000392446 -0.0362082)
(0.00755332 -0.00236478 -0.0275386)
(0.104023 0.0151814 0.00012713)
(0.104586 0.0122364 -0.00031635)
(0.103148 0.0083395 -0.00105193)
(0.10109 0.00495014 -0.00192268)
(0.0989834 0.00314307 -0.00302152)
(0.0970184 0.00227587 -0.00442137)
(0.0949805 0.00197344 -0.0062111)
(0.0927276 0.0019744 -0.0084985)
(0.0899412 0.00216788 -0.0114336)
(0.0866291 0.00248006 -0.0152269)
(0.0820086 0.00289738 -0.0201733)
(0.0765693 0.00331037 -0.0265803)
(0.0678569 0.00377799 -0.0350717)
(0.0577218 0.00385175 -0.0450869)
(0.038182 0.00382524 -0.0560344)
(0.015461 0.000726637 -0.0429579)
(0.103592 0.00947628 0.000110721)
(0.106559 0.0107501 -0.000369628)
(0.108066 0.00880371 -0.00113921)
(0.107683 0.00634742 -0.00204231)
(0.106632 0.00476379 -0.00317991)
(0.105181 0.00393182 -0.00463075)
(0.10341 0.00369122 -0.00648748)
(0.101271 0.00385681 -0.00886296)
(0.0984998 0.00433466 -0.0119129)
(0.0951124 0.00505638 -0.0158598)
(0.0902886 0.00600213 -0.0210099)
(0.0844795 0.00706811 -0.0277023)
(0.0750567 0.0082758 -0.0365742)
(0.0638342 0.00915829 -0.047106)
(0.0422573 0.00953145 -0.0585975)
(0.0168836 0.00538615 -0.0449056)
(0.101829 0.00643812 0.000132827)
(0.104447 0.00883606 -0.000328384)
(0.10664 0.00813164 -0.00108079)
(0.107181 0.00665463 -0.00196447)
(0.106961 0.00555585 -0.00307718)
(0.106105 0.00500582 -0.00449392)
(0.104772 0.00499028 -0.00630324)
(0.102965 0.00542092 -0.00861453)
(0.100464 0.00625217 -0.0115776)
(0.0973083 0.00745604 -0.0154135)
(0.0926602 0.00904421 -0.0204178)
(0.0869658 0.0109603 -0.0269439)
(0.0774673 0.0132438 -0.0356065)
(0.0659805 0.0153965 -0.0459665)
(0.0436385 0.0168345 -0.0573127)
(0.0169944 0.0111684 -0.0439268)
(0.101008 0.00451274 0.000173125)
(0.10309 0.00704755 -0.000246259)
(0.105268 0.00715282 -0.000964796)
(0.106223 0.0064751 -0.00181443)
(0.106522 0.00590462 -0.00288324)
(0.106151 0.00572334 -0.00423851)
(0.105258 0.00600663 -0.00596092)
(0.103856 0.00674755 -0.00815187)
(0.101754 0.00795062 -0.0109487)
(0.0990155 0.00963643 -0.0145623)
(0.0947957 0.0118506 -0.0192636)
(0.089546 0.0145955 -0.0254126)
(0.0803529 0.0179358 -0.0335708)
(0.0689954 0.0213412 -0.0434357)
(0.0459017 0.0239139 -0.0542678)
(0.0176875 0.0163285 -0.0416285)
(0.100656 0.00332836 0.000221603)
(0.102382 0.00560562 -0.000145122)
(0.10445 0.00611353 -0.000821721)
(0.105642 0.0059733 -0.00163021)
(0.106307 0.00585058 -0.0026457)
(0.106338 0.00603379 -0.00392584)
(0.105856 0.00663557 -0.00554172)
(0.104873 0.00770695 -0.00758467)
(0.103213 0.00930449 -0.0101766)
(0.100954 0.0115239 -0.0135152)
(0.097249 0.0144913 -0.0178402)
(0.092545 0.018379 -0.0235175)
(0.0837679 0.023431 -0.0310359)
(0.0726833 0.029381 -0.0402704)
(0.0488504 0.0352813 -0.0504211)
(0.0189174 0.0267356 -0.0388499)
(0.100525 0.00238694 0.000277396)
(0.102094 0.00428982 -2.86074e-05)
(0.104126 0.00501948 -0.000656885)
(0.105495 0.00526937 -0.00141798)
(0.106446 0.00552568 -0.00237141)
(0.10683 0.00603859 -0.00356295)
(0.106755 0.00693048 -0.00505117)
(0.106245 0.00828788 -0.00691235)
(0.105164 0.0102026 -0.00924477)
(0.103638 0.0128309 -0.0122186)
(0.100899 0.01635 -0.0160178)
(0.0974814 0.0210837 -0.0209795)
(0.0902899 0.0273868 -0.0274479)
(0.081207 0.0353054 -0.0354863)
(0.0578121 0.0439005 -0.0441129)
(0.0268539 0.0338542 -0.0340119)
(0.100485 0.00156145 0.000337167)
(0.102033 0.00303481 9.63706e-05)
(0.104123 0.00385816 -0.00048017)
(0.105665 0.00438429 -0.00119082)
(0.106864 0.0049467 -0.0020783)
(0.107555 0.00573724 -0.00317587)
(0.107849 0.00687191 -0.00452918)
(0.10778 0.00846003 -0.00619907)
(0.107252 0.0106251 -0.00826064)
(0.106417 0.0136013 -0.0108559)
(0.104588 0.0176591 -0.0141157)
(0.102352 0.0234777 -0.0183467)
(0.0966632 0.0318327 -0.023751)
(0.0897413 0.0447728 -0.0305971)
(0.0675309 0.0627504 -0.0377476)
(0.0394362 0.0696889 -0.0299554)
(0.088237 0.0159431 5.50169e-05)
(0.0759609 0.00941873 -0.000233687)
(0.0653717 0.00513627 -0.00066868)
(0.0604506 0.00225436 -0.00116587)
(0.0574296 0.00105849 -0.00180276)
(0.0554623 0.000565886 -0.00262009)
(0.0537225 0.000395835 -0.00366755)
(0.051919 0.000346462 -0.00499953)
(0.0497128 0.000352726 -0.00669619)
(0.0471049 0.000365642 -0.00885153)
(0.0434734 0.000391526 -0.0116214)
(0.0392475 0.000338347 -0.0150739)
(0.0328141 0.000297272 -0.0195581)
(0.0255985 -7.33635e-05 -0.0244118)
(0.0142887 -0.000295 -0.0294904)
(0.00220189 -0.00196773 -0.0222551)
(0.103984 0.0151947 -5.96807e-05)
(0.104377 0.0122674 -0.000573605)
(0.102683 0.00837848 -0.00125855)
(0.100358 0.00499564 -0.00202519)
(0.0979585 0.0032002 -0.00298557)
(0.0956631 0.00235044 -0.00422003)
(0.0932218 0.0020726 -0.00581149)
(0.0904531 0.00210629 -0.00784956)
(0.0869886 0.00234349 -0.0104585)
(0.0827645 0.00271136 -0.0137901)
(0.0769525 0.00320217 -0.0180754)
(0.0698963 0.00370341 -0.02346)
(0.0594045 0.0042841 -0.0303927)
(0.0470026 0.00448461 -0.0380688)
(0.0276759 0.00450273 -0.04572)
(0.00696401 0.00137657 -0.0344164)
(0.103553 0.00950275 -8.08715e-05)
(0.106346 0.0108063 -0.000634171)
(0.107589 0.00887923 -0.00135185)
(0.106929 0.00643989 -0.00214761)
(0.105574 0.00488015 -0.00314218)
(0.10378 0.00408296 -0.00442185)
(0.101591 0.00389175 -0.00607332)
(0.0989185 0.00412447 -0.00819077)
(0.0954438 0.00469301 -0.010903)
(0.09111 0.00553171 -0.014372)
(0.085042 0.00663175 -0.0188361)
(0.0775451 0.0078797 -0.0244641)
(0.0662358 0.00931781 -0.0317091)
(0.0526183 0.0104086 -0.0397839)
(0.0311652 0.0109136 -0.0478059)
(0.00783497 0.00630172 -0.0359295)
(0.101792 0.00647365 -6.0707e-05)
(0.104238 0.0089114 -0.000597404)
(0.106172 0.00823611 -0.00129906)
(0.106445 0.0067858 -0.00207666)
(0.10593 0.0057227 -0.00304826)
(0.104743 0.00522389 -0.00429671)
(0.103007 0.00528125 -0.00590502)
(0.100684 0.00581234 -0.00796435)
(0.0975021 0.00678142 -0.0105985)
(0.0934285 0.00816713 -0.0139683)
(0.0875623 0.0100003 -0.0183034)
(0.0802084 0.0122146 -0.0237863)
(0.0688241 0.0148885 -0.0308515)
(0.0549278 0.0174054 -0.0387828)
(0.032632 0.0191582 -0.0466911)
(0.00794632 0.0127207 -0.0351179)
(0.100972 0.00455717 -2.29223e-05)
(0.102887 0.0071414 -0.000521126)
(0.104816 0.00728433 -0.00119137)
(0.105515 0.00664197 -0.00193756)
(0.105536 0.00611794 -0.00286898)
(0.104853 0.00600305 -0.00406145)
(0.103583 0.00638111 -0.00559092)
(0.101701 0.00725385 -0.00754177)
(0.0989629 0.00863973 -0.0100271)
(0.0953655 0.0105707 -0.0132005)
(0.0899944 0.0131206 -0.0172715)
(0.0831701 0.0162848 -0.0224331)
(0.072143 0.0201906 -0.0290788)
(0.0584266 0.0241449 -0.036617)
(0.0352523 0.0272627 -0.0441501)
(0.00878876 0.0186207 -0.0332608)
(0.100621 0.00337963 2.24622e-05)
(0.102187 0.00571374 -0.00042702)
(0.104018 0.00626586 -0.00105851)
(0.104968 0.00616781 -0.00176685)
(0.105374 0.00610043 -0.00264948)
(0.105119 0.00636295 -0.00377348)
(0.104292 0.00707872 -0.00520622)
(0.102871 0.008311 -0.00702349)
(0.100631 0.0101358 -0.00932504)
(0.0975895 0.0126687 -0.0122548)
(0.0928206 0.0160794 -0.0159962)
(0.0866593 0.0205497 -0.0207535)
(0.0761305 0.0264303 -0.0268623)
(0.0627902 0.033266 -0.033893)
(0.038737 0.0402016 -0.0409184)
(0.010272 0.0303752 -0.0309685)
(0.100491 0.0024435 7.44844e-05)
(0.101908 0.00440861 -0.000318811)
(0.103717 0.00518712 -0.000905725)
(0.104862 0.00548405 -0.00157058)
(0.105576 0.00580212 -0.00239656)
(0.105703 0.00640365 -0.00344007)
(0.105325 0.00742352 -0.00475747)
(0.104435 0.0089632 -0.00641204)
(0.102853 0.011138 -0.00848382)
(0.100661 0.014132 -0.0110965)
(0.09701 0.0181778 -0.0143892)
(0.0923597 0.0236279 -0.0185564)
(0.0836329 0.0309816 -0.0238257)
(0.0726104 0.0400955 -0.0299561)
(0.0488359 0.0502159 -0.0359262)
(0.0189309 0.0386945 -0.0272569)
(0.100453 0.00162082 0.000130015)
(0.101857 0.00315911 -0.000202987)
(0.103737 0.00403368 -0.000742182)
(0.105075 0.00460942 -0.00136076)
(0.106061 0.00523705 -0.00212646)
(0.106528 0.0061214 -0.00308443)
(0.106561 0.00739219 -0.00427962)
(0.106173 0.00917623 -0.00576225)
(0.105227 0.0116244 -0.00759259)
(0.103847 0.0150089 -0.00987297)
(0.101268 0.0196709 -0.0126988)
(0.0980446 0.0263599 -0.0162509)
(0.0910757 0.0360632 -0.0206468)
(0.0826271 0.0507518 -0.025844)
(0.0599798 0.071359 -0.0307497)
(0.0328072 0.0773246 -0.0239198)
(0.0882154 0.0159449 -3.57438e-05)
(0.0758392 0.00942647 -0.00033488)
(0.065099 0.00514362 -0.000715202)
(0.0600301 0.0022611 -0.0011316)
(0.0568482 0.00106668 -0.00166218)
(0.0547047 0.000576806 -0.00234619)
(0.0527581 0.000410903 -0.00322406)
(0.0507059 0.000367325 -0.00433324)
(0.048203 0.000382277 -0.00572811)
(0.0452357 0.000408412 -0.00745412)
(0.0412221 0.000455928 -0.00959962)
(0.036555 0.000440509 -0.0121182)
(0.0298815 0.000460918 -0.0151769)
(0.0224567 0.000215975 -0.0180549)
(0.0119669 0.000121604 -0.0204414)
(0.00138387 -0.00130826 -0.0141813)
(0.103952 0.0152068 -0.000160674)
(0.104207 0.0122953 -0.000676487)
(0.102297 0.00841378 -0.00128268)
(0.0997415 0.00503703 -0.00193248)
(0.0970868 0.00325212 -0.00273835)
(0.0945081 0.00241825 -0.00377659)
(0.0917341 0.00216304 -0.00511666)
(0.0885633 0.00222742 -0.00682382)
(0.0846127 0.00250654 -0.00898469)
(0.0797967 0.00293006 -0.0116825)
(0.0733277 0.0034974 -0.0150505)
(0.0655208 0.00409935 -0.0190701)
(0.0545142 0.00481863 -0.0239383)
(0.0417221 0.00520338 -0.0287324)
(0.0235481 0.00539404 -0.0325654)
(0.00514951 0.00229366 -0.0227175)
(0.103523 0.00952689 -0.00018304)
(0.106172 0.0108572 -0.000736734)
(0.107193 0.00894765 -0.00137259)
(0.106294 0.00652363 -0.00204754)
(0.104674 0.00498523 -0.00288246)
(0.102586 0.00421897 -0.00395915)
(0.100052 0.00407166 -0.0053505)
(0.096962 0.00436396 -0.00712554)
(0.0929818 0.00501294 -0.00937427)
(0.0880324 0.00595564 -0.0121872)
(0.0812753 0.00719335 -0.0157012)
(0.0729928 0.00860746 -0.0199113)
(0.0611279 0.0102601 -0.0250093)
(0.0470944 0.0115704 -0.0300674)
(0.0268165 0.0122647 -0.0340867)
(0.00591745 0.00735289 -0.0236954)
(0.101762 0.00650609 -0.000165575)
(0.104068 0.00897977 -0.000705407)
(0.105785 0.00833071 -0.00132717)
(0.105825 0.00690432 -0.00198613)
(0.105054 0.00587286 -0.00280104)
(0.103583 0.00541919 -0.00385075)
(0.101514 0.00554039 -0.00520503)
(0.0987907 0.00615858 -0.0069305)
(0.0951224 0.00724576 -0.00911311)
(0.0904573 0.00878482 -0.0118428)
(0.0839259 0.0108209 -0.0152493)
(0.0758149 0.0132774 -0.0193386)
(0.0638883 0.0162613 -0.0242866)
(0.0495862 0.0190677 -0.0292169)
(0.0284262 0.0210708 -0.0331246)
(0.00612086 0.0140841 -0.0229735)
(0.100944 0.00459763 -0.000132144)
(0.102723 0.00722646 -0.000638339)
(0.104443 0.00740323 -0.00123253)
(0.10492 0.00679239 -0.00186408)
(0.104699 0.0063094 -0.00264421)
(0.103749 0.00625269 -0.00364575)
(0.102169 0.00671295 -0.00493265)
(0.0999148 0.00769835 -0.0065662)
(0.0967257 0.00923762 -0.0086241)
(0.0925823 0.0113688 -0.0111917)
(0.0865943 0.0141849 -0.0143842)
(0.0790717 0.0176675 -0.0182193)
(0.0675347 0.0219842 -0.0228438)
(0.0534402 0.0263137 -0.0274801)
(0.031313 0.0297709 -0.0311276)
(0.00708642 0.0203642 -0.0215432)
(0.100594 0.00342618 -9.202e-05)
(0.102029 0.00581155 -0.000555464)
(0.103662 0.00640333 -0.0011157)
(0.104404 0.00634277 -0.00171431)
(0.104584 0.00632413 -0.00245225)
(0.104083 0.00665572 -0.00339493)
(0.102972 0.00746949 -0.00459921)
(0.101214 0.00883733 -0.00611976)
(0.0985658 0.0108488 -0.00802402)
(0.0950335 0.0136296 -0.0103915)
(0.089706 0.0173762 -0.0133184)
(0.0829198 0.0222596 -0.0168374)
(0.0719217 0.0286909 -0.0210553)
(0.0582472 0.0360517 -0.0253248)
(0.0351388 0.0435209 -0.0286427)
(0.00871644 0.0327519 -0.0198287)
(0.100465 0.00249469 -4.61453e-05)
(0.101759 0.00451586 -0.000460264)
(0.103381 0.00533815 -0.000981534)
(0.104332 0.00567682 -0.0015424)
(0.10484 0.00604914 -0.00223149)
(0.104748 0.00672758 -0.0031053)
(0.104118 0.00785677 -0.00421178)
(0.102935 0.00954856 -0.00559626)
(0.101003 0.0119341 -0.00731168)
(0.0983981 0.015211 -0.00942531)
(0.0942799 0.0196441 -0.012004)
(0.0891276 0.0255807 -0.0150859)
(0.0800205 0.0335951 -0.0187121)
(0.0687781 0.0433637 -0.022399)
(0.0458084 0.0542028 -0.02512)
(0.0176567 0.0415987 -0.0173637)
(0.100429 0.0016744 2.71218e-06)
(0.101716 0.00327112 -0.000358487)
(0.103423 0.00419154 -0.000838062)
(0.104583 0.00481125 -0.00135876)
(0.105384 0.00549606 -0.00199587)
(0.105657 0.00646155 -0.00279642)
(0.105474 0.00784794 -0.00379914)
(0.104838 0.00979387 -0.00503959)
(0.103602 0.0124678 -0.00655612)
(0.101889 0.0161602 -0.00840306)
(0.0989368 0.0212497 -0.0106183)
(0.0953391 0.0284949 -0.0132439)
(0.0880907 0.0389769 -0.0162556)
(0.0795685 0.054499 -0.0193454)
(0.0576275 0.0761575 -0.0214932)
(0.031987 0.0811245 -0.0151803)
(0.0881987 0.0159464 -7.76027e-05)
(0.0757428 0.00943281 -0.00034986)
(0.0648803 0.00514967 -0.000661965)
(0.0596885 0.00226663 -0.000992858)
(0.0563708 0.00107323 -0.00141213)
(0.0540771 0.000585297 -0.00195419)
(0.0519544 0.000422121 -0.00265095)
(0.0496896 0.000381926 -0.00352874)
(0.0469333 0.000401215 -0.00462634)
(0.0436575 0.000432963 -0.00596776)
(0.0393163 0.000488334 -0.00761208)
(0.0342759 0.000486516 -0.00949582)
(0.0274029 0.000527016 -0.011724)
(0.0198643 0.000333073 -0.0137323)
(0.0101251 0.000271978 -0.0152369)
(0.000807484 -0.00105095 -0.0105748)
(0.103928 0.0152171 -0.000194197)
(0.104071 0.0123189 -0.000655343)
(0.101986 0.00844371 -0.00115686)
(0.0992386 0.00507214 -0.00167772)
(0.0963696 0.00329596 -0.00231796)
(0.0935509 0.00247513 -0.00314356)
(0.0904956 0.00223826 -0.00421014)
(0.0869854 0.00232706 -0.0055651)
(0.0826276 0.00263861 -0.00727028)
(0.0773179 0.00310366 -0.00937437)
(0.0703092 0.00372541 -0.0119639)
(0.0619008 0.00439482 -0.0149826)
(0.0505144 0.00520078 -0.0185406)
(0.0375301 0.0056917 -0.0218966)
(0.0204357 0.00596232 -0.0243138)
(0.00397878 0.00281412 -0.0168826)
(0.103499 0.00954753 -0.000214743)
(0.106033 0.0109005 -0.000708945)
(0.106874 0.00900593 -0.00123545)
(0.105776 0.00659491 -0.00177676)
(0.103934 0.00507443 -0.00244035)
(0.101596 0.00433403 -0.00329685)
(0.09877 0.00422321 -0.00440477)
(0.0953277 0.0045647 -0.00581447)
(0.0909239 0.00527942 -0.0075903)
(0.0854605 0.00630595 -0.00978615)
(0.0781371 0.00765257 -0.0124907)
(0.0692248 0.0091947 -0.0156564)
(0.0569483 0.0110074 -0.0193867)
(0.0427068 0.0124725 -0.0229324)
(0.023535 0.0132878 -0.0254673)
(0.00468145 0.00811069 -0.0176183)
(0.101739 0.00653389 -0.0002006)
(0.103932 0.00903815 -0.000683839)
(0.105473 0.0084114 -0.00119879)
(0.10532 0.00700526 -0.00172696)
(0.104333 0.00600046 -0.00237427)
(0.102621 0.00558469 -0.00320895)
(0.100271 0.00575928 -0.00428708)
(0.0972084 0.00645002 -0.00565722)
(0.0931317 0.00763499 -0.00738069)
(0.0879713 0.00929995 -0.00951125)
(0.0808907 0.0115008 -0.0121325)
(0.0721688 0.0141509 -0.015206)
(0.0598353 0.0173774 -0.0188238)
(0.0453258 0.0204036 -0.0222766)
(0.0252359 0.022587 -0.0247346)
(0.0049401 0.0151561 -0.0170805)
(0.100922 0.0046323 -0.000173025)
(0.102592 0.0072991 -0.000628745)
(0.104143 0.00750463 -0.00112109)
(0.104436 0.00692047 -0.0016269)
(0.104011 0.00647211 -0.00224601)
(0.102835 0.00646435 -0.00304183)
(0.100991 0.00699362 -0.00406586)
(0.0984215 0.00807334 -0.00536272)
(0.0948525 0.0097406 -0.00698759)
(0.0902499 0.012038 -0.00899156)
(0.0837496 0.0150737 -0.0114477)
(0.0756592 0.0188168 -0.0143288)
(0.0637339 0.023465 -0.0177072)
(0.0494432 0.028094 -0.0209487)
(0.0283095 0.0318148 -0.0232326)
(0.00598748 0.0218089 -0.0160204)
(0.100572 0.003466 -0.000139946)
(0.101904 0.00589501 -0.000560585)
(0.103376 0.00652048 -0.00102512)
(0.103946 0.00649165 -0.00150407)
(0.103935 0.00651413 -0.00208897)
(0.103226 0.00690388 -0.00283726)
(0.101874 0.00779999 -0.0037949)
(0.0998296 0.00928142 -0.00500149)
(0.0968367 0.0114488 -0.00650458)
(0.0928905 0.0144357 -0.00835143)
(0.0870982 0.01846 -0.0106018)
(0.0798015 0.0236822 -0.0132414)
(0.068444 0.0305581 -0.0163157)
(0.0545984 0.0383392 -0.0192891)
(0.0323918 0.0462228 -0.0213479)
(0.00772527 0.0347348 -0.0147261)
(0.100445 0.0025384 -0.000102173)
(0.10164 0.00460729 -0.000482324)
(0.103112 0.00546674 -0.000914978)
(0.103904 0.00584074 -0.00136324)
(0.104238 0.00625886 -0.00190862)
(0.103958 0.0070021 -0.00260149)
(0.103115 0.00822327 -0.00348092)
(0.101682 0.0100428 -0.00457964)
(0.0994526 0.0126048 -0.00593461)
(0.0964967 0.0161183 -0.0075854)
(0.0919855 0.0208738 -0.00957141)
(0.0864157 0.0272134 -0.0118871)
(0.0770111 0.0357685 -0.0145348)
(0.065667 0.0460726 -0.0171026)
(0.0434744 0.0574858 -0.0187768)
(0.0168599 0.0440839 -0.0129463)
(0.10041 0.00172007 -6.2005e-05)
(0.101605 0.00336649 -0.000398718)
(0.103172 0.00432583 -0.000797265)
(0.104186 0.00498276 -0.00121285)
(0.104831 0.00571585 -0.00171614)
(0.104938 0.00674971 -0.00234997)
(0.104571 0.00823339 -0.00314622)
(0.103725 0.0103153 -0.00413036)
(0.10224 0.0131785 -0.00532847)
(0.100244 0.0171283 -0.0067716)
(0.096978 0.0225739 -0.00847854)
(0.093068 0.0302792 -0.0104508)
(0.0856034 0.0413974 -0.0126471)
(0.0770837 0.0575977 -0.0147876)
(0.0558222 0.0800982 -0.016084)
(0.0315391 0.0844081 -0.0113101)
(0.0881864 0.0159474 -8.17955e-05)
(0.0756712 0.00943775 -0.000297587)
(0.0647167 0.00515438 -0.000529411)
(0.0594315 0.00227106 -0.000769436)
(0.0560113 0.00107857 -0.00107157)
(0.0536061 0.000592385 -0.00146192)
(0.0513571 0.000431823 -0.00196244)
(0.0489472 0.000395266 -0.00258855)
(0.046031 0.000419808 -0.00336266)
(0.0425776 0.00045941 -0.00429073)
(0.0380789 0.00052679 -0.00540118)
(0.0328914 0.00054488 -0.00662571)
(0.0260201 0.000614743 -0.00801137)
(0.0185701 0.000473298 -0.00916546)
(0.00929451 0.000458725 -0.00986486)
(0.00067569 -0.000814954 -0.00665379)
(0.10391 0.0152252 -0.000175505)
(0.103969 0.0123375 -0.000537213)
(0.101751 0.0084672 -0.000911882)
(0.0988584 0.00509978 -0.00129218)
(0.0958265 0.00333046 -0.00175573)
(0.0928279 0.00251993 -0.00235253)
(0.0895674 0.0022976 -0.00312177)
(0.0858194 0.00240595 -0.00409312)
(0.0811934 0.00274379 -0.00530358)
(0.0755821 0.00324316 -0.00677281)
(0.0682846 0.00391066 -0.00854266)
(0.0596039 0.00463828 -0.0105399)
(0.0481471 0.00551999 -0.0128018)
(0.0352698 0.006102 -0.0148015)
(0.0188977 0.00644914 -0.0159943)
(0.0035826 0.00324484 -0.0108232)
(0.103481 0.00956381 -0.000191865)
(0.105929 0.0109346 -0.000579152)
(0.106633 0.0090517 -0.000972744)
(0.105384 0.00665089 -0.00136814)
(0.103373 0.00514433 -0.00184881)
(0.100848 0.004424 -0.0024682)
(0.0978086 0.0043414 -0.00326769)
(0.0941191 0.00472081 -0.00427904)
(0.0894354 0.00548605 -0.00554088)
(0.0836574 0.00657684 -0.00707613)
(0.0760291 0.00800661 -0.00892742)
(0.0668301 0.00964665 -0.0110261)
(0.0544704 0.0115813 -0.0134031)
(0.040338 0.0131655 -0.0155228)
(0.0219136 0.0140763 -0.0167761)
(0.00426757 0.00869934 -0.0113068)
(0.101722 0.00655579 -0.000181485)
(0.103831 0.00908409 -0.000560832)
(0.105238 0.0084748 -0.000945869)
(0.104938 0.00708445 -0.00133151)
(0.103788 0.00610026 -0.00180019)
(0.101895 0.00571367 -0.00240359)
(0.0993392 0.00592911 -0.0031814)
(0.0960393 0.0066749 -0.0041641)
(0.091694 0.00793331 -0.00538827)
(0.0862327 0.00969162 -0.00687692)
(0.0788599 0.0120128 -0.00866927)
(0.0698655 0.014802 -0.0107031)
(0.0574532 0.0181999 -0.0130016)
(0.043055 0.0213794 -0.0150562)
(0.0236863 0.0236846 -0.016256)
(0.00456879 0.0159333 -0.0109268)
(0.100906 0.00465961 -0.000160941)
(0.102494 0.00735624 -0.000519902)
(0.103917 0.00758426 -0.000888191)
(0.104071 0.00702083 -0.00125731)
(0.10349 0.00659918 -0.0017053)
(0.102145 0.00662893 -0.00228033)
(0.100109 0.00721065 -0.00301885)
(0.0973191 0.00836124 -0.00394871)
(0.0935016 0.0101233 -0.00510244)
(0.0886226 0.0125415 -0.00650168)
(0.0818541 0.0157334 -0.00817912)
(0.0735178 0.0196567 -0.0100812)
(0.0615233 0.0245279 -0.012219)
(0.0473471 0.029352 -0.0141349)
(0.0268833 0.0332336 -0.0152278)
(0.00567041 0.0228042 -0.0102107)
(0.100557 0.00349733 -0.000136318)
(0.101811 0.00596061 -0.000469231)
(0.103162 0.0066124 -0.000816905)
(0.1036 0.00660818 -0.00116622)
(0.103446 0.00666231 -0.00158913)
(0.10258 0.00709643 -0.00212947)
(0.101052 0.00805472 -0.0028198)
(0.0988078 0.00962069 -0.00368465)
(0.0955908 0.011902 -0.00475148)
(0.0913983 0.0150358 -0.00604004)
(0.0853673 0.019252 -0.00757464)
(0.0778587 0.0246995 -0.00931234)
(0.0664453 0.0318595 -0.0112477)
(0.0527229 0.0398949 -0.0129897)
(0.0311264 0.0480079 -0.0139478)
(0.00747595 0.0360218 -0.00934372)
(0.100431 0.00257277 -0.000108217)
(0.101553 0.0046791 -0.000411062)
(0.102911 0.00556757 -0.00073514)
(0.103581 0.00596893 -0.00106188)
(0.103784 0.00642223 -0.00145588)
(0.103362 0.00721478 -0.00195592)
(0.102363 0.00850513 -0.00258981)
(0.100756 0.0104191 -0.0033776)
(0.098334 0.013109 -0.00434002)
(0.0951715 0.0167887 -0.00549283)
(0.0904631 0.0217631 -0.00684834)
(0.0847317 0.028364 -0.00837274)
(0.0752966 0.0372534 -0.0100362)
(0.0641001 0.0478681 -0.0115303)
(0.042443 0.0595838 -0.0122756)
(0.0167233 0.0456407 -0.00821486)
(0.100396 0.00175592 -7.83642e-05)
(0.101523 0.00344132 -0.000348953)
(0.102985 0.00443105 -0.000647789)
(0.103888 0.00511678 -0.000950486)
(0.104414 0.00588691 -0.00131369)
(0.104397 0.00697268 -0.00177079)
(0.103894 0.00852927 -0.0023446)
(0.102901 0.0107111 -0.00305046)
(0.101257 0.0137101 -0.00390214)
(0.0990958 0.0178384 -0.00491095)
(0.0956776 0.0235209 -0.00607702)
(0.0916619 0.0315156 -0.00737494)
(0.0842027 0.0430113 -0.00875074)
(0.0758718 0.0595834 -0.00998467)
(0.055089 0.0825005 -0.0105288)
(0.0315945 0.0863936 -0.00718343)
(0.0881783 0.0159481 -5.93116e-05)
(0.0756234 0.00944112 -0.000198075)
(0.0646071 0.00515753 -0.000340123)
(0.0592585 0.00227404 -0.00048604)
(0.0557684 0.0010821 -0.000668412)
(0.053287 0.000596988 -0.00090427)
(0.0509517 0.000437948 -0.00120657)
(0.0484427 0.000403354 -0.00158388)
(0.045417 0.000430464 -0.00204897)
(0.041842 0.00047355 -0.00260311)
(0.0372346 0.000545751 -0.00326197)
(0.0319473 0.000571718 -0.00398084)
(0.0250766 0.000652554 -0.00478466)
(0.0176971 0.00053316 -0.00544381)
(0.00874922 0.000534074 -0.00581877)
(0.000590928 -0.000716244 -0.00393819)
(0.103898 0.0152308 -0.000120222)
(0.103901 0.0123502 -0.000350195)
(0.101594 0.0084833 -0.000581533)
(0.0986019 0.00511876 -0.000813229)
(0.095459 0.00335407 -0.00109399)
(0.0923377 0.00255047 -0.00145531)
(0.0889373 0.00233783 -0.0019208)
(0.0850279 0.00245905 -0.00250736)
(0.0802205 0.00281384 -0.00323599)
(0.0744064 0.00333483 -0.0041151)
(0.0669162 0.00403026 -0.00516695)
(0.0580588 0.00479207 -0.0063413)
(0.0465641 0.00571653 -0.00765457)
(0.0337826 0.00634754 -0.00879525)
(0.0179174 0.00673101 -0.00943285)
(0.00334783 0.00348115 -0.0063853)
(0.103469 0.00957502 -0.000130368)
(0.10586 0.010958 -0.000376676)
(0.106472 0.00908319 -0.000620078)
(0.10512 0.00668938 -0.000860933)
(0.102993 0.00519232 -0.00115221)
(0.100341 0.00448563 -0.00152728)
(0.0971557 0.00442214 -0.00201127)
(0.0932982 0.00482711 -0.00262224)
(0.0884251 0.00562614 -0.0033822)
(0.0824352 0.00675951 -0.00430142)
(0.0746033 0.00824366 -0.00540252)
(0.0652178 0.00994668 -0.00663767)
(0.0528119 0.0119582 -0.0080191)
(0.0387778 0.0136149 -0.00922963)
(0.0208789 0.0145802 -0.00990048)
(0.00402198 0.0090669 -0.00667513)
(0.101711 0.00657091 -0.000124208)
(0.103763 0.00911575 -0.000365547)
(0.105081 0.00851845 -0.000603718)
(0.104681 0.00713893 -0.000838504)
(0.103418 0.00616883 -0.00112245)
(0.101402 0.00580213 -0.00148776)
(0.0987064 0.00604534 -0.00195856)
(0.095245 0.00682843 -0.00255218)
(0.0907177 0.00813639 -0.00328944)
(0.0850532 0.00995734 -0.00418072)
(0.0774846 0.0123586 -0.00524675)
(0.0683119 0.0152396 -0.00644356)
(0.0558552 0.0187488 -0.00777928)
(0.0415549 0.0220262 -0.00895226)
(0.0226943 0.0244057 -0.00959367)
(0.00434791 0.0164411 -0.00645326)
(0.100895 0.00467846 -0.000111483)
(0.102429 0.00739563 -0.00034031)
(0.103766 0.0076391 -0.00056823)
(0.103825 0.00708988 -0.000792907)
(0.103138 0.00668649 -0.00106425)
(0.101677 0.00674185 -0.00141229)
(0.0995101 0.0073593 -0.00185926)
(0.0965699 0.00855807 -0.00242096)
(0.0925836 0.0103844 -0.00311591)
(0.0875175 0.0128843 -0.00395379)
(0.0805686 0.0161812 -0.00495181)
(0.0720705 0.0202251 -0.00607133)
(0.0600361 0.025244 -0.00731414)
(0.0459576 0.0301967 -0.00840784)
(0.0259673 0.0341812 -0.00899135)
(0.00548231 0.0234725 -0.00603731)
(0.100547 0.00351895 -9.63481e-05)
(0.101749 0.00600582 -0.000309147)
(0.103018 0.0066757 -0.000524365)
(0.103367 0.00668835 -0.000736904)
(0.103114 0.00676411 -0.000992921)
(0.102142 0.00722852 -0.00131982)
(0.100494 0.00822918 -0.00173753)
(0.0981134 0.00985264 -0.00225985)
(0.0947442 0.0122112 -0.00290237)
(0.0903848 0.0154444 -0.00367377)
(0.0841931 0.0197899 -0.00458655)
(0.0765447 0.0253885 -0.00560838)