/*--------------------------------*- C++ -*----------------------------------*\
| =========                 |                                                 |
| \\      /  F ield         | OpenFOAM: The Open Source CFD Toolbox           |
|  \\    /   O peration     | Version:  v1912                                 |
|   \\  /    A nd           | Website:  www.openfoam.com                      |
|    \\/     M anipulation  |                                                 |
\*---------------------------------------------------------------------------*/
FoamFile
{
    version     2.0;
    format      ascii;
    class       volVectorField;
    location    "0.38/solid";
    object      D;
}
// * * * * * * * * * * * * * * * * * * * * * * * * * * * * * * * * * * * * * //

dimensions      [0 1 0 0 0 0 0];


internalField   nonuniform List<vector> 
256
(
(1.67685e-08 2.85638e-08 1.76709e-08)
(1.21507e-09 1.66656e-08 1.61451e-08)
(-6.22925e-10 1.64989e-08 1.62574e-08)
(-1.59447e-08 2.77911e-08 1.81014e-08)
(2.60519e-08 2.2684e-08 3.03873e-08)
(4.41609e-09 1.62144e-08 2.84798e-08)
(-2.23066e-09 1.57689e-08 2.88245e-08)
(-2.35737e-08 2.11162e-08 3.15384e-08)
(2.72115e-08 1.53565e-08 3.53455e-08)
(5.55279e-09 1.28681e-08 3.33634e-08)
(-1.44668e-09 1.2161e-08 3.38837e-08)
(-2.28309e-08 1.30676e-08 3.70138e-08)
(2.73191e-08 1.02407e-08 3.84404e-08)
(6.10547e-09 8.87215e-09 3.63971e-08)
(2.22222e-10 7.92909e-09 3.70432e-08)
(-2.07282e-08 7.2889e-09 4.04818e-08)
(2.8278e-08 6.33833e-09 4.13801e-08)
(7.01796e-09 4.69907e-09 3.93303e-08)
(1.82916e-09 3.5355e-09 4.00724e-08)
(-1.91685e-08 2.76479e-09 4.37089e-08)
(3.06096e-08 2.80737e-09 4.49004e-08)
(8.57432e-09 4.80216e-10 4.2879e-08)
(3.08964e-09 -9.00872e-10 4.37015e-08)
(-1.86923e-08 -1.37325e-09 4.74693e-08)
(3.50349e-08 -3.18497e-09 4.97338e-08)
(1.09458e-08 -5.42215e-09 4.77971e-08)
(3.82681e-09 -7.01697e-09 4.86928e-08)
(-2.00661e-08 -7.97377e-09 5.25168e-08)
(4.19084e-08 -3.20472e-08 5.6057e-08)
(1.35743e-08 -3.10743e-08 5.43671e-08)
(4.53094e-09 -3.2742e-08 5.53209e-08)
(-2.37151e-08 -3.71581e-08 5.90015e-08)
(1.29458e-08 1.43497e-08 1.34556e-09)
(5.60569e-10 4.32375e-09 1.91634e-09)
(-2.27954e-10 4.1529e-09 2.07069e-09)
(-1.23053e-08 1.36129e-08 1.79939e-09)
(2.03199e-08 1.28169e-08 8.48378e-09)
(3.06191e-09 7.19625e-09 9.58515e-09)
(-1.52646e-09 6.70691e-09 9.95538e-09)
(-1.84026e-08 1.12039e-08 9.56217e-09)
(2.1095e-08 9.45314e-09 1.35549e-08)
(3.97188e-09 7.1793e-09 1.48744e-08)
(-8.23674e-10 6.42984e-09 1.54004e-08)
(-1.75844e-08 7.11653e-09 1.5089e-08)
(2.10487e-08 6.17684e-09 1.67544e-08)
(4.42755e-09 4.85684e-09 1.81699e-08)
(6.9645e-10 3.88336e-09 1.88117e-08)
(-1.55679e-08 3.19587e-09 1.86337e-08)
(2.19061e-08 3.01484e-09 1.93438e-08)
(5.26343e-09 1.39115e-09 2.08154e-08)
(2.18206e-09 2.07296e-10 2.15486e-08)
(-1.40955e-08 -5.72127e-10 2.14976e-08)
(2.42171e-08 -1.30458e-10 2.20855e-08)
(6.76545e-09 -2.4559e-09 2.3591e-08)
(3.33444e-09 -3.84843e-09 2.44003e-08)
(-1.37512e-08 -4.30973e-09 2.44674e-08)
(2.87348e-08 -5.03242e-09 2.51214e-08)
(9.11001e-09 -7.26156e-09 2.66489e-08)
(3.96512e-09 -8.85286e-09 2.75175e-08)
(-1.53456e-08 -9.78922e-09 2.76832e-08)
(3.58192e-08 -2.95932e-08 2.71834e-08)
(1.172e-08 -2.84009e-08 2.8735e-08)
(4.58712e-09 -3.0032e-08 2.96266e-08)
(-1.93192e-08 -3.45978e-08 2.98231e-08)
(1.05079e-08 1.03458e-08 5.59756e-10)
(2.7663e-12 1.53486e-09 1.23474e-09)
(1.67026e-10 1.38186e-09 1.34827e-09)
(-1.0029e-08 9.71748e-09 8.83417e-10)
(1.66868e-08 7.66939e-09 4.92616e-09)
(1.87716e-09 2.73043e-09 6.22636e-09)
(-8.08546e-10 2.26716e-09 6.50767e-09)
(-1.522e-08 6.19717e-09 5.72803e-09)
(1.73091e-08 4.88567e-09 9.36754e-09)
(2.59245e-09 2.82801e-09 1.09021e-08)
(-1.76462e-10 2.1061e-09 1.13079e-08)
(-1.45068e-08 2.68493e-09 1.05341e-08)
(1.72121e-08 2.53174e-09 1.2775e-08)
(2.96764e-09 1.26819e-09 1.44079e-08)
(1.20004e-09 3.23157e-10 1.49114e-08)
(-1.26582e-08 -3.22022e-10 1.42345e-08)
(1.80103e-08 2.07887e-10 1.54727e-08)
(3.73499e-09 -1.39941e-09 1.71591e-08)
(2.56841e-09 -2.55328e-09 1.7743e-08)
(-1.13066e-08 -3.25825e-09 1.71754e-08)
(2.0327e-08 -2.09122e-09 1.79089e-08)
(5.19137e-09 -4.41587e-09 1.96212e-08)
(3.61429e-09 -5.77503e-09 2.02715e-08)
(-1.11146e-08 -6.14991e-09 1.98131e-08)
(2.49556e-08 -5.89093e-09 2.00534e-08)
(7.52352e-09 -8.11795e-09 2.17715e-08)
(4.13349e-09 -9.66913e-09 2.24679e-08)
(-1.29401e-08 -1.05176e-08 2.21038e-08)
(3.21571e-08 -2.85914e-08 2.1152e-08)
(1.01251e-08 -2.73518e-08 2.28783e-08)
(4.65991e-09 -2.89343e-08 2.35834e-08)
(-1.71341e-08 -3.34511e-08 2.32446e-08)
(9.31949e-09 9.2054e-09 7.76119e-10)
(-2.35153e-10 1.06694e-09 1.18534e-09)
(3.14859e-10 9.30745e-10 1.26611e-09)
(-8.96387e-09 8.66723e-09 1.00659e-09)
(1.48638e-08 5.52857e-09 3.82017e-09)
(1.30172e-09 9.88326e-10 4.64013e-09)
(-5.35292e-10 5.66499e-10 4.84499e-09)
(-1.37333e-08 4.21621e-09 4.40341e-09)
(1.54591e-08 2.22811e-09 7.2792e-09)
(1.90179e-09 3.15738e-10 8.26211e-09)
(1.78339e-12 -3.56081e-10 8.56195e-09)
(-1.31941e-08 2.04561e-10 8.14082e-09)
(1.53862e-08 -6.00558e-11 1.0339e-08)
(2.22536e-09 -1.27596e-09 1.13889e-08)
(1.24026e-09 -2.17012e-09 1.17663e-08)
(-1.15532e-08 -2.74084e-09 1.14343e-08)
(1.61643e-08 -1.96247e-09 1.2855e-08)
(2.94004e-09 -3.5495e-09 1.39431e-08)
(2.49826e-09 -4.65377e-09 1.43864e-08)
(-1.0341e-08 -5.26566e-09 1.41513e-08)
(1.84719e-08 -3.6908e-09 1.49461e-08)
(4.35244e-09 -6.00705e-09 1.60558e-08)
(3.45189e-09 -7.31756e-09 1.65535e-08)
(-1.0273e-08 -7.59569e-09 1.64098e-08)
(2.31435e-08 -6.95142e-09 1.66112e-08)
(6.66093e-09 -9.17558e-09 1.77285e-08)
(3.88143e-09 -1.06791e-08 1.82622e-08)
(-1.22513e-08 -1.14325e-08 1.81925e-08)
(3.03855e-08 -2.88154e-08 1.7626e-08)
(9.24582e-09 -2.75848e-08 1.87543e-08)
(4.32677e-09 -2.91233e-08 1.92919e-08)
(-1.65791e-08 -3.35426e-08 1.92359e-08)
(8.768e-09 8.69432e-09 7.79454e-10)
(-3.10489e-10 9.17007e-10 9.87915e-10)
(3.38576e-10 7.94279e-10 1.04469e-09)
(-8.49541e-09 8.22309e-09 9.41002e-10)
(1.3996e-08 4.59154e-09 3.00569e-09)
(1.07201e-09 2.69599e-10 3.44149e-09)
(-4.98532e-10 -1.15472e-10 3.58689e-09)
(-1.30966e-08 3.41053e-09 3.4183e-09)
(1.45898e-08 8.3399e-10 5.53634e-09)
(1.60741e-09 -9.92266e-10 6.07094e-09)
(-5.14151e-11 -1.61644e-09 6.28568e-09)
(-1.27038e-08 -1.03238e-09 6.15194e-09)
(1.45493e-08 -1.67833e-09 7.94374e-09)
(1.89483e-09 -2.85924e-09 8.52118e-09)
(1.07429e-09 -3.70321e-09 8.7941e-09)
(-1.12392e-08 -4.19838e-09 8.73512e-09)
(1.53217e-08 -3.52666e-09 1.00122e-08)
(2.56788e-09 -5.09122e-09 1.06166e-08)
(2.24018e-09 -6.14646e-09 1.09402e-08)
(-1.0152e-08 -6.67613e-09 1.09587e-08)
(1.76084e-08 -5.06177e-09 1.17106e-08)
(3.9382e-09 -7.36001e-09 1.23351e-08)
(3.12068e-09 -8.62411e-09 1.27005e-08)
(-1.01761e-08 -8.82414e-09 1.27878e-08)
(2.22743e-08 -8.15356e-09 1.30568e-08)
(6.21433e-09 -1.0363e-08 1.36935e-08)
(3.4848e-09 -1.18241e-08 1.40864e-08)
(-1.22437e-08 -1.25062e-08 1.42255e-08)
(2.95118e-08 -2.95533e-08 1.40342e-08)
(8.77542e-09 -2.83258e-08 1.46806e-08)
(3.86986e-09 -2.98277e-08 1.50757e-08)
(-1.66481e-08 -3.41701e-08 1.52243e-08)
(8.4948e-09 8.39505e-09 6.24292e-10)
(-3.33391e-10 8.14642e-10 7.24768e-10)
(3.31332e-10 7.01747e-10 7.62569e-10)
(-8.27433e-09 7.97009e-09 7.31135e-10)
(1.35644e-08 4.10879e-09 2.18098e-09)
(9.75345e-10 -9.32191e-11 2.40004e-09)
(-5.22784e-10 -4.50929e-10 2.49722e-09)
(-1.28136e-08 3.02269e-09 2.45511e-09)
(1.41555e-08 9.74976e-11 3.90652e-09)
(1.47129e-09 -1.67797e-09 4.1827e-09)
(-1.4237e-10 -2.26537e-09 4.327e-09)
(-1.25204e-08 -1.65028e-09 4.31818e-09)
(1.41321e-08 -2.63574e-09 5.59549e-09)
(1.73047e-09 -3.7915e-09 5.89929e-09)
(9.03691e-10 -4.5956e-09 6.08384e-09)
(-1.1177e-08 -5.03039e-09 6.1288e-09)
(1.48979e-08 -4.58897e-09 7.09527e-09)
(2.37033e-09 -6.13275e-09 7.41856e-09)
(2.00182e-09 -7.1486e-09 7.63866e-09)
(-1.01819e-08 -7.61647e-09 7.73802e-09)
(1.71612e-08 -6.14512e-09 8.34958e-09)
(3.70498e-09 -8.42246e-09 8.68989e-09)
(2.8284e-09 -9.64962e-09 8.9397e-09)
(-1.02703e-08 -9.79462e-09 9.08559e-09)
(2.18061e-08 -9.23211e-09 9.37249e-09)
(5.95052e-09 -1.14193e-08 9.72552e-09)
(3.14581e-09 -1.28473e-08 9.99477e-09)
(-1.23922e-08 -1.34845e-08 1.01742e-08)
(2.90262e-08 -3.03671e-08 1.01904e-08)
(8.48815e-09 -2.91242e-08 1.05502e-08)
(3.48819e-09 -3.05979e-08 1.08208e-08)
(-1.68436e-08 -3.48989e-08 1.10075e-08)
(8.3511e-09 8.22241e-09 3.94406e-10)
(-3.42772e-10 7.48078e-10 4.40092e-10)
(3.24032e-10 6.41528e-10 4.61756e-10)
(-8.16081e-09 7.82624e-09 4.55273e-10)
(1.33375e-08 3.84303e-09 1.32099e-09)
(9.27124e-10 -2.94041e-10 1.42404e-09)
(-5.45015e-10 -6.34024e-10 1.47984e-09)
(-1.26744e-08 2.81748e-09 1.47754e-09)
(1.39234e-08 -2.95893e-10 2.32707e-09)
(1.39849e-09 -2.04182e-09 2.46022e-09)
(-2.05784e-10 -2.60497e-09 2.54333e-09)
(-1.24394e-08 -1.96617e-09 2.5631e-09)
(1.39044e-08 -3.17551e-09 3.32019e-09)
(1.63718e-09 -4.31422e-09 3.46952e-09)
(7.91352e-10 -5.09154e-09 3.57623e-09)
(-1.11676e-08 -5.48644e-09 3.62752e-09)
(1.4662e-08 -5.24748e-09 4.21986e-09)
(2.25323e-09 -6.77545e-09 4.38153e-09)
(1.84623e-09 -7.76458e-09 4.5093e-09)
(-1.02298e-08 -8.19244e-09 4.59214e-09)
(1.69063e-08 -6.88361e-09 4.98855e-09)
(3.56246e-09 -9.1438e-09 5.16168e-09)
(2.63729e-09 -1.03459e-08 5.30718e-09)
(-1.03589e-08 -1.04564e-08 5.41671e-09)
(2.15327e-08 -1.00134e-08 5.63304e-09)
(5.78583e-09 -1.21801e-08 5.81528e-09)
(2.92362e-09 -1.35857e-08 5.97241e-09)
(-1.25142e-08 -1.41977e-08 6.10083e-09)
(2.87383e-08 -3.10103e-08 6.17326e-09)
(8.3059e-09 -2.97457e-08 6.35909e-09)
(3.23812e-09 -3.12004e-08 6.517e-09)
(-1.69957e-08 -3.54845e-08 6.6504e-09)
(8.2864e-09 8.14327e-09 1.34142e-10)
(-3.47134e-10 7.16198e-10 1.47451e-10)
(3.20997e-10 6.12744e-10 1.54508e-10)
(-8.10994e-09 7.76086e-09 1.53904e-10)
(1.32348e-08 3.72138e-09 4.42054e-10)
(9.04798e-10 -3.86575e-10 4.72641e-10)
(-5.55041e-10 -7.17895e-10 4.90831e-10)
(-1.26123e-08 2.72517e-09 4.92939e-10)
(1.38166e-08 -4.72326e-10 7.72948e-10)
(1.36396e-09 -2.2043e-09 8.13025e-10)
(-2.3494e-10 -2.75549e-09 8.4016e-10)
(-1.24035e-08 -2.10457e-09 8.49818e-10)
(1.37974e-08 -3.42232e-09 1.10015e-09)
(1.59177e-09 -4.55223e-09 1.14563e-09)
(7.39225e-10 -5.31623e-09 1.18054e-09)
(-1.11642e-08 -5.69169e-09 1.20049e-09)
(1.45493e-08 -5.5634e-09 1.39929e-09)
(2.19534e-09 -7.08285e-09 1.44905e-09)
(1.77324e-09 -8.0586e-09 1.49093e-09)
(-1.02533e-08 -8.46703e-09 1.52115e-09)
(1.67831e-08 -7.25499e-09 1.65808e-09)
(3.49145e-09 -9.50577e-09 1.71188e-09)
(2.54667e-09 -1.06953e-08 1.75966e-09)
(-1.04021e-08 -1.07892e-08 1.79855e-09)
(2.13999e-08 -1.04177e-08 1.87841e-09)
(5.70349e-09 -1.25726e-08 1.93546e-09)
(2.81725e-09 -1.39669e-08 1.98711e-09)
(-1.25741e-08 -1.45676e-08 2.03213e-09)
(2.8598e-08 -3.13572e-08 2.06668e-09)
(8.21441e-09 -3.00783e-08 2.1248e-09)
(3.1178e-09 -3.15233e-08 2.1767e-09)
(-1.7071e-08 -3.58023e-08 2.22353e-09)
)
;

boundaryField
{
    interface
    {
        type            solidTraction;
        traction        nonuniform List<vector> 
192
(
(52.1753 -0.332442 -3.31997)
(54.114 -0.159807 -5.13457)
(55.2894 0.183314 -5.56849)
(56.0236 0.583405 -5.59986)
(56.0724 0.923968 -5.45547)
(56.8154 1.56828 -5.24705)
(55.038 2.03322 -4.7737)
(58.4226 4.40386 -4.38961)
(50.7008 -0.225042 -1.67026)
(51.6614 -0.0614017 -2.76123)
(52.3495 0.256636 -2.96576)
(52.8615 0.677015 -2.92739)
(52.7279 1.04704 -2.78697)
(53.4348 1.76784 -2.60932)
(51.4245 2.28715 -2.30316)
(55.0638 4.7972 -2.04864)
(53.5084 -0.191431 -1.33283)
(54.3699 -0.017002 -2.18361)
(55.0588 0.308478 -2.34022)
(55.5738 0.765683 -2.30689)
(55.33 1.18249 -2.19401)
(55.9332 1.99164 -2.0494)
(53.4395 2.59399 -1.81901)
(56.8711 5.28819 -1.61516)
(53.6509 -0.141397 -0.835182)
(54.3167 0.0513329 -1.43357)
(54.8559 0.381181 -1.53704)
(55.2858 0.854644 -1.50232)
(54.9442 1.29489 -1.41317)
(55.4917 2.14502 -1.30388)
(52.8395 2.78484 -1.15213)
(56.2567 5.53441 -1.02102)
(54.4746 -0.119279 -0.617713)
(55.079 0.0914133 -1.05866)
(55.5526 0.433532 -1.13575)
(55.9415 0.924498 -1.11014)
(55.5263 1.38802 -1.04434)
(56.0025 2.2731 -0.962492)
(53.1675 2.94793 -0.853952)
(56.4658 5.74912 -0.757056)
(54.6599 -0.101095 -0.384119)
(55.2103 0.123677 -0.675079)
(55.6244 0.474968 -0.726228)
(55.9754 0.976397 -0.707789)
(55.512 1.45341 -0.663104)
(55.9504 2.35715 -0.608229)
(53.0314 3.05071 -0.539769)
(56.2934 5.87933 -0.479535)
(54.9283 -0.0929792 -0.227103)
(55.4599 0.141618 -0.397964)
(55.8427 0.500848 -0.428414)
(56.1725 1.01031 -0.417763)
(55.6765 1.49739 -0.391864)
(56.0828 2.41406 -0.359352)
(53.0958 3.12101 -0.320099)
(56.3137 5.96934 -0.283945)
(54.9845 -0.0874668 -0.0683013)
(55.5023 0.151866 -0.12332)
(55.8674 0.514293 -0.133193)
(56.1858 1.02678 -0.129513)
(55.6771 1.51812 -0.12112)
(56.0695 2.43984 -0.110553)
(53.0627 3.15298 -0.0986007)
(56.2589 6.00975 -0.0871118)
(4.88406 0.935803 21.2293)
(7.86427 0.949657 16.4082)
(8.65884 0.663064 13.2777)
(8.81781 0.456375 12.5157)
(8.79442 0.382422 12.9206)
(8.77956 0.437032 14.207)
(8.76127 0.53537 16.6482)
(9.34227 0.74995 18.8475)
(3.23506 0.512878 27.0955)
(5.76911 0.607665 26.0159)
(6.36617 0.398487 25.1323)
(6.44627 0.194102 24.9883)
(6.43217 0.0736084 25.182)
(6.47756 0.0202764 25.681)
(6.62941 0.0286436 26.478)
(7.44282 0.10941 27.077)
(3.42133 0.324412 23.9077)
(6.0944 0.395135 23.0951)
(6.76252 0.230317 22.3103)
(6.85943 0.0265599 22.1504)
(6.82584 -0.123625 22.3617)
(6.81788 -0.249726 22.8286)
(6.87894 -0.330439 23.7024)
(7.60663 -0.342031 24.6593)
(4.0146 0.241807 24.5567)
(7.15771 0.274481 24.0592)
(7.98535 0.116506 23.4427)
(8.12029 -0.0956068 23.3572)
(8.06762 -0.256824 23.5618)
(8.03889 -0.423033 23.8686)
(7.9886 -0.555866 24.4552)
(8.7081 -0.704578 25.1103)
(-10.9983 0.945734 1.58084)
(-6.83222 0.807904 2.74061)
(-4.28659 0.222417 2.99769)
(-3.32111 -0.34405 3.03682)
(-3.46536 -0.656009 3.01258)
(-2.54231 -1.13795 3.12059)
(-4.21112 -1.13726 3.11058)
(4.97076 -3.47071 3.54282)
(-18.1182 0.351058 0.072532)
(-17.2361 0.254309 0.483361)
(-16.5988 -0.0793984 0.4986)
(-16.0914 -0.454241 0.477782)
(-16.1224 -0.618913 0.494995)
(-14.4867 -0.995097 0.663294)
(-15.0243 -0.74355 0.834254)
(-4.14181 -3.04761 1.24108)
(-18.1615 0.185681 0.309365)
(-17.4864 0.0595524 0.793714)
(-16.9281 -0.180835 0.897048)
(-16.297 -0.488144 0.915698)
(-16.1929 -0.583466 0.934459)
(-14.1255 -0.919896 1.04065)
(-14.3627 -0.56561 1.1181)
(-2.2895 -3.05583 1.28968)
(-20.0007 0.0850837 0.157995)
(-19.6306 -0.0623296 0.544967)
(-19.3078 -0.247753 0.638299)
(-18.6629 -0.497556 0.657078)
(-18.444 -0.525703 0.671623)
(-15.9791 -0.815001 0.746186)
(-15.8083 -0.38066 0.795842)
(-2.88007 -2.9489 0.895605)
(-20.2166 0.0690098 0.21439)
(-19.8529 -0.0905652 0.544142)
(-19.526 -0.263772 0.635443)
(-18.8052 -0.498508 0.65656)
(-18.5077 -0.500861 0.663993)
(-15.8325 -0.776754 0.701777)
(-15.517 -0.31361 0.711791)
(-2.10518 -2.97066 0.740698)
(-20.736 0.0619107 0.137794)
(-20.3908 -0.103216 0.366484)
(-20.0703 -0.270427 0.433093)
(-19.3012 -0.496074 0.448868)
(-18.939 -0.480081 0.453998)
(-16.0958 -0.745145 0.47709)
(-15.6415 -0.261762 0.4812)
(-1.87394 -2.97135 0.495159)
(-20.8403 0.0635132 0.0988975)
(-20.4848 -0.104373 0.238051)
(-20.1493 -0.270878 0.279333)
(-19.3433 -0.494733 0.289124)
(-18.9438 -0.471476 0.291722)
(-16.0114 -0.733394 0.302071)
(-15.4966 -0.24181 0.30125)
(-1.52319 -2.98887 0.302539)
(-20.9639 0.0629866 0.0270617)
(-20.6092 -0.105723 0.0718796)
(-20.2685 -0.271158 0.0854725)
(-19.4455 -0.493394 0.0886837)
(-19.0235 -0.466227 0.089885)
(-16.0453 -0.72556 0.0934579)
(-15.4873 -0.229999 0.0942035)
(-1.41762 -2.99384 0.0947863)
(9.36957 -18.5366 -0.681463)
(8.80525 -16.1633 -0.465367)
(8.85001 -13.3785 -0.337183)
(8.90528 -11.5673 -0.219792)
(9.00494 -10.1848 -0.16659)
(9.06569 -9.20803 -0.103365)
(9.11513 -8.5931 -0.064295)
(9.13674 -8.29484 -0.0191506)
(7.45442 -26.8133 -0.0288654)
(6.64426 -26.1102 0.0533086)
(6.49592 -25.0902 0.0936888)
(6.45016 -24.315 0.0966602)
(6.46346 -23.6702 0.0771335)
(6.46829 -23.1928 0.0594649)
(6.48084 -22.8834 0.0346272)
(6.48521 -22.7192 0.012968)
(7.61647 -24.402 0.429884)
(6.88565 -23.3347 0.420348)
(6.825 -22.2357 0.371705)
(6.83569 -21.4859 0.296281)
(6.88247 -20.8246 0.227931)
(6.90767 -20.3794 0.158765)
(6.93162 -20.0731 0.0936261)
(6.94064 -19.9311 0.0309687)
(8.70107 -24.8744 0.793727)
(7.97697 -24.1242 0.647258)
(8.02647 -23.3611 0.542026)
(8.06433 -22.8531 0.418208)
(8.14933 -22.3362 0.322697)
(8.194 -22.0206 0.221238)
(8.23372 -21.7822 0.132414)
(8.24972 -21.6734 0.0431968)
)
;
        pressure        uniform 0;
        secondOrder     false;
        setEffectiveTraction false;
        relaxationFactor 1;
        value           nonuniform List<vector> 
192
(
(7.42229e-08 3.92688e-08 1.66497e-08)
(8.00738e-08 2.52948e-08 2.87926e-08)
(8.23099e-08 1.56734e-08 3.36348e-08)
(8.40139e-08 1.05074e-08 3.66886e-08)
(8.70788e-08 7.16111e-09 3.95956e-08)
(9.2472e-08 4.49683e-09 4.31043e-08)
(1.00943e-07 -3.59937e-10 4.79546e-08)
(1.13186e-07 -2.99162e-08 5.43069e-08)
(6.23166e-08 2.26661e-08 -2.19848e-10)
(6.73156e-08 1.48542e-08 6.14205e-09)
(6.88013e-08 9.63538e-09 1.10788e-08)
(7.01048e-08 6.37973e-09 1.42271e-08)
(7.29965e-08 3.8071e-09 1.67764e-08)
(7.85058e-08 1.57701e-09 1.95144e-08)
(8.76247e-08 -2.13152e-09 2.26012e-08)
(1.01741e-07 -2.74284e-08 2.47452e-08)
(5.41814e-08 1.71444e-08 -3.47028e-10)
(5.90763e-08 9.36968e-09 3.56175e-09)
(6.04405e-08 5.01705e-09 7.95818e-09)
(6.16085e-08 2.70717e-09 1.13589e-08)
(6.43793e-08 9.86809e-10 1.40369e-08)
(6.98939e-08 -3.5457e-10 1.64723e-08)
(7.92679e-08 -2.93297e-09 1.86553e-08)
(9.40613e-08 -2.63954e-08 1.97933e-08)
(4.94905e-08 1.52512e-08 3.41003e-10)
(5.40686e-08 7.06349e-09 3.14724e-09)
(5.54634e-08 2.35878e-09 6.59912e-09)
(5.66456e-08 1.16383e-10 9.67302e-09)
(5.93738e-08 -1.19081e-09 1.21826e-08)
(6.4861e-08 -1.94565e-09 1.42662e-08)
(7.4294e-08 -3.97258e-09 1.59407e-08)
(8.92913e-08 -2.66044e-08 1.69645e-08)
(4.68863e-08 1.43853e-08 5.73178e-10)
(5.12426e-08 6.04701e-09 2.68068e-09)
(5.26673e-08 9.72391e-10 5.21026e-09)
(5.38917e-08 -1.4952e-09 7.63003e-09)
(5.66118e-08 -2.76166e-09 9.69544e-09)
(6.20643e-08 -3.32323e-09 1.13828e-08)
(7.14691e-08 -5.17721e-09 1.27224e-08)
(8.64746e-08 -2.73432e-08 1.36943e-08)
(4.53979e-08 1.39098e-08 5.20004e-10)
(4.96342e-08 5.524e-09 2.01625e-09)
(5.10711e-08 2.39493e-10 3.73982e-09)
(5.23224e-08 -2.44998e-09 5.43415e-09)
(5.50381e-08 -3.83145e-09 6.93024e-09)
(6.04554e-08 -4.41769e-09 8.17395e-09)
(6.98083e-08 -6.26536e-09 9.187e-09)
(8.47738e-08 -2.81653e-08 9.99693e-09)
(4.4563e-08 1.36446e-08 3.42269e-10)
(4.87351e-08 5.23614e-09 1.23851e-09)
(5.01736e-08 -1.54083e-10 2.24227e-09)
(5.14356e-08 -2.9907e-09 3.23645e-09)
(5.41445e-08 -4.49677e-09 4.13264e-09)
(5.95338e-08 -5.16553e-09 4.89398e-09)
(6.88432e-08 -7.05485e-09 5.53144e-09)
(8.37719e-08 -2.88169e-08 6.06617e-09)
(4.41828e-08 1.35235e-08 1.17954e-10)
(4.83252e-08 5.10396e-09 4.16347e-10)
(4.97623e-08 -3.31582e-10 7.46214e-10)
(5.10268e-08 -3.23898e-09 1.07337e-09)
(5.37307e-08 -4.81671e-09 1.37109e-09)
(5.91047e-08 -5.54195e-09 1.62729e-09)
(6.83908e-08 -7.46342e-09 1.84518e-09)
(8.32998e-08 -2.91686e-08 2.0316e-09)
(1.68984e-08 4.05785e-08 7.81625e-08)
(2.63737e-08 2.71028e-08 8.73403e-08)
(2.75727e-08 1.73699e-08 9.33896e-08)
(2.76856e-08 1.17494e-08 9.81467e-08)
(2.86593e-08 7.95338e-09 1.03251e-07)
(3.10038e-08 4.89587e-09 1.09872e-07)
(3.54417e-08 -3.95737e-10 1.18845e-07)
(4.23626e-08 -3.03484e-08 1.30772e-07)
(8.62245e-10 2.78219e-08 7.15624e-08)
(4.02635e-09 2.05191e-08 8.08714e-08)
(5.1884e-09 1.48475e-08 8.63149e-08)
(5.75724e-09 1.03639e-08 9.0731e-08)
(6.69208e-09 6.31956e-09 9.57579e-08)
(8.27566e-09 2.59691e-09 1.02523e-07)
(1.06866e-08 -2.55012e-09 1.12071e-07)
(1.33915e-08 -2.93299e-08 1.25815e-07)
(-1.33282e-10 2.77694e-08 7.11081e-08)
(-1.46499e-09 2.01755e-08 8.06254e-08)
(-5.32967e-10 1.42157e-08 8.62218e-08)
(1.24451e-09 9.47626e-09 9.07527e-08)
(2.92493e-09 5.20004e-09 9.58693e-08)
(4.23832e-09 1.25419e-09 1.02709e-07)
(5.00786e-09 -4.11216e-09 1.12327e-07)
(5.69077e-09 -3.09843e-08 1.26176e-07)
(-1.59355e-08 4.02011e-08 7.70487e-08)
(-2.35291e-08 2.58444e-08 8.69448e-08)
(-2.26599e-08 1.53035e-08 9.3455e-08)
(-2.04399e-08 8.96267e-09 9.85535e-08)
(-1.87998e-08 4.51163e-09 1.03926e-07)
(-1.82578e-08 8.28646e-10 1.10768e-07)
(-1.95761e-08 -5.09081e-09 1.19939e-07)
(-2.32186e-08 -3.54233e-08 1.32148e-07)
(-7.12718e-08 3.76709e-08 1.71964e-08)
(-7.54148e-08 2.28379e-08 3.02684e-08)
(-7.57066e-08 1.23563e-08 3.57882e-08)
(-7.51649e-08 6.37325e-09 3.93363e-08)
(-7.56862e-08 2.25572e-09 4.26255e-08)
(-7.82696e-08 -1.14906e-09 4.64518e-08)
(-8.37611e-08 -6.71828e-09 5.15822e-08)
(-9.30082e-08 -3.66794e-08 5.81514e-08)
(-5.93734e-08 2.12899e-08 3.20491e-10)
(-6.30847e-08 1.25237e-08 7.47382e-09)
(-6.29314e-08 6.40783e-09 1.30081e-08)
(-6.22136e-08 2.32356e-09 1.66163e-08)
(-6.27249e-08 -1.02642e-09 1.95322e-08)
(-6.55387e-08 -3.99736e-09 2.25731e-08)
(-7.17642e-08 -8.39733e-09 2.59018e-08)
(-8.30172e-08 -3.40358e-08 2.8178e-08)
(-5.14529e-08 1.60298e-08 4.81114e-11)
(-5.53279e-08 7.31661e-09 4.56084e-09)
(-5.53037e-08 2.04445e-09 9.43672e-09)
(-5.46621e-08 -1.12216e-09 1.3231e-08)
(-5.52206e-08 -3.64426e-09 1.6237e-08)
(-5.81661e-08 -5.7417e-09 1.89437e-08)
(-6.47353e-08 -9.01283e-09 2.13304e-08)
(-7.67282e-08 -3.28074e-08 2.25598e-08)
(-4.69648e-08 1.43415e-08 6.2322e-10)
(-5.07266e-08 5.27376e-09 3.87264e-09)
(-5.09281e-08 -3.40497e-10 7.69019e-09)
(-5.04792e-08 -3.45421e-09 1.10797e-08)
(-5.11474e-08 -5.58581e-09 1.38628e-08)
(-5.41872e-08 -7.11824e-09 1.61753e-08)
(-6.09047e-08 -9.85601e-09 1.80185e-08)
(-7.31589e-08 -3.28381e-08 1.91146e-08)
(-4.45035e-08 1.36211e-08 7.68652e-10)
(-4.81868e-08 4.46262e-09 3.18848e-09)
(-4.85624e-08 -1.49676e-09 5.98362e-09)
(-4.82955e-08 -4.83643e-09 8.64116e-09)
(-4.90818e-08 -6.942e-09 1.09191e-08)
(-5.21928e-08 -8.30135e-09 1.27872e-08)
(-5.89646e-08 -1.08882e-08 1.42608e-08)
(-7.12842e-08 -3.34272e-08 1.52905e-08)
(-4.31054e-08 1.32421e-08 6.47509e-10)
(-4.67627e-08 4.0842e-09 2.34964e-09)
(-4.72502e-08 -2.05949e-09 4.25215e-09)
(-4.71118e-08 -5.6151e-09 6.11097e-09)
(-4.79892e-08 -7.84322e-09 7.75753e-09)
(-5.11483e-08 -9.24219e-09 9.13136e-09)
(-5.79355e-08 -1.18412e-08 1.02419e-08)
(-7.02646e-08 -3.41335e-08 1.10945e-08)
(-4.23231e-08 1.30351e-08 4.14192e-10)
(-4.59725e-08 3.88711e-09 1.42723e-09)
(-4.65238e-08 -2.34292e-09 2.53391e-09)
(-4.64616e-08 -6.03894e-09 3.62437e-09)
(-4.73958e-08 -8.39471e-09 4.61002e-09)
(-5.05839e-08 -9.88542e-09 5.44969e-09)
(-5.73748e-08 -1.25385e-08 6.14637e-09)
(-6.97028e-08 -3.47062e-08 6.70729e-09)
(-4.1967e-08 1.29414e-08 1.4119e-10)
(-4.5613e-08 3.79853e-09 4.77412e-10)
(-4.61927e-08 -2.46663e-09 8.40838e-10)
(-4.61651e-08 -6.22933e-09 1.19966e-09)
(-4.71258e-08 -8.65766e-09 1.52703e-09)
(-5.03274e-08 -1.02091e-08 1.80937e-09)
(-5.71192e-08 -1.29005e-08 2.04711e-09)
(-6.94462e-08 -3.50181e-08 2.24235e-09)
(4.27323e-08 -1.0678e-07 5.62927e-08)
(3.66049e-08 -9.87263e-08 2.63194e-08)
(3.29467e-08 -9.3603e-08 2.09575e-08)
(3.11848e-08 -9.07957e-08 1.78664e-08)
(3.03115e-08 -8.95639e-08 1.44221e-08)
(2.98179e-08 -8.9138e-08 1.05546e-08)
(2.95203e-08 -8.90506e-08 6.42076e-09)
(2.93741e-08 -8.90577e-08 2.15339e-09)
(1.37492e-08 -1.0254e-07 5.4571e-08)
(1.18308e-08 -9.27027e-08 2.78044e-08)
(1.02119e-08 -8.7051e-08 2.26743e-08)
(9.32386e-09 -8.41357e-08 1.89978e-08)
(8.84509e-09 -8.29139e-08 1.50655e-08)
(8.54692e-09 -8.24953e-08 1.09052e-08)
(8.35447e-09 -8.24016e-08 6.59762e-09)
(8.25701e-09 -8.24015e-08 2.20794e-09)
(6.05311e-09 -1.03612e-07 5.55224e-08)
(6.13746e-09 -9.36909e-08 2.86747e-08)
(6.18584e-09 -8.79924e-08 2.33563e-08)
(5.81735e-09 -8.50373e-08 1.95153e-08)
(5.33206e-09 -8.37813e-08 1.54444e-08)
(4.933e-09 -8.3336e-08 1.1164e-08)
(4.67395e-09 -8.32241e-08 6.74836e-09)
(4.54994e-09 -8.32147e-08 2.25744e-09)
(-2.28489e-08 -1.10313e-07 5.9229e-08)
(-1.84575e-08 -1.02031e-07 2.88964e-08)
(-1.63254e-08 -9.67757e-08 2.29809e-08)
(-1.58252e-08 -9.38499e-08 1.94158e-08)
(-1.59326e-08 -9.25166e-08 1.55634e-08)
(-1.61497e-08 -9.20124e-08 1.13362e-08)
(-1.63125e-08 -9.18718e-08 6.87627e-09)
(-1.6392e-08 -9.18521e-08 2.30299e-09)
)
;
        gradient        nonuniform List<vector> 
192
(
(4.59636e-06 8.56403e-07 -8.1696e-08)
(4.32176e-06 2.08859e-07 -1.27577e-07)
(4.40788e-06 2.5347e-08 -1.36851e-07)
(4.53558e-06 2.13388e-08 -1.40141e-07)
(4.70406e-06 6.58229e-08 -1.4276e-07)
(4.94899e-06 1.35157e-07 -1.43685e-07)
(5.27262e-06 2.26003e-07 -1.42337e-07)
(5.70218e-06 1.70482e-07 -1.40007e-07)
(3.94967e-06 6.65311e-07 -1.25233e-07)
(3.75966e-06 1.62984e-07 -1.87338e-07)
(3.81651e-06 1.45795e-08 -1.98087e-07)
(3.92449e-06 1.62308e-08 -2.02178e-07)
(4.08723e-06 6.33809e-08 -2.05392e-07)
(4.34309e-06 1.36598e-07 -2.05687e-07)
(4.71119e-06 2.32072e-07 -2.01616e-07)
(5.27375e-06 1.7318e-07 -1.95053e-07)
(3.49388e-06 5.43892e-07 -7.25428e-08)
(3.39116e-06 1.36023e-07 -1.09152e-07)
(3.45051e-06 1.05108e-08 -1.12748e-07)
(3.55171e-06 1.40338e-08 -1.13281e-07)
(3.70952e-06 6.23138e-08 -1.14864e-07)
(3.96535e-06 1.38932e-07 -1.1493e-07)
(4.34498e-06 2.36637e-07 -1.1185e-07)
(4.95234e-06 1.75683e-07 -1.08695e-07)
(3.21368e-06 4.83663e-07 -3.48093e-08)
(3.13639e-06 1.22793e-07 -5.38345e-08)
(3.20035e-06 1.04539e-08 -5.44062e-08)
(3.30076e-06 1.41151e-08 -5.32757e-08)
(3.45676e-06 6.17322e-08 -5.37902e-08)
(3.71113e-06 1.39612e-07 -5.43895e-08)
(4.09204e-06 2.38307e-07 -5.36395e-08)
(4.71247e-06 1.76885e-07 -5.29191e-08)
(3.04947e-06 4.55279e-07 -1.65021e-08)
(2.97973e-06 1.16437e-07 -2.60007e-08)
(3.0462e-06 1.10721e-08 -2.60861e-08)
(3.1474e-06 1.46502e-08 -2.50969e-08)
(3.30321e-06 6.12001e-08 -2.53409e-08)
(3.55647e-06 1.39083e-07 -2.62278e-08)
(3.93558e-06 2.38108e-07 -2.67592e-08)
(4.55702e-06 1.76812e-07 -2.71952e-08)
(2.95225e-06 4.41183e-07 -8.34307e-09)
(2.88558e-06 1.13217e-07 -1.31787e-08)
(2.95325e-06 1.13596e-08 -1.33362e-08)
(3.05523e-06 1.48606e-08 -1.29073e-08)
(3.21121e-06 6.06014e-08 -1.32019e-08)
(3.46354e-06 1.38194e-07 -1.40506e-08)
(3.84018e-06 2.3734e-07 -1.48391e-08)
(4.45981e-06 1.76146e-07 -1.5477e-08)
(2.89695e-06 4.33771e-07 -4.17101e-09)
(2.83181e-06 1.11449e-07 -6.59828e-09)
(2.90001e-06 1.13448e-08 -6.78449e-09)
(3.00249e-06 1.47847e-08 -6.6991e-09)
(3.1586e-06 6.00569e-08 -6.97785e-09)
(3.41021e-06 1.37446e-07 -7.5655e-09)
(3.78484e-06 2.36682e-07 -8.12794e-09)
(4.40269e-06 1.75471e-07 -8.56683e-09)
(2.87171e-06 4.30422e-07 -1.29502e-09)
(2.80724e-06 1.10606e-07 -2.05661e-09)
(2.87565e-06 1.12596e-08 -2.1387e-09)
(2.97835e-06 1.46674e-08 -2.14211e-09)
(3.13451e-06 5.97351e-08 -2.25605e-09)
(3.38573e-06 1.37044e-07 -2.46389e-09)
(3.75927e-06 2.3634e-07 -2.65856e-09)
(4.37614e-06 1.75084e-07 -2.80658e-09)
(1.03969e-08 9.61175e-07 4.83933e-06)
(2.57412e-08 3.53504e-07 4.55625e-06)
(2.88974e-08 1.6107e-07 4.64353e-06)
(2.93208e-08 1.20699e-07 4.77651e-06)
(3.04988e-08 1.29205e-07 4.94966e-06)
(3.15302e-08 1.67081e-07 5.19769e-06)
(3.25476e-08 2.23139e-07 5.5289e-06)
(3.63283e-08 1.35903e-07 5.97721e-06)
(-2.82259e-08 8.92504e-07 4.43339e-06)
(-3.11793e-08 3.44374e-07 4.19133e-06)
(-2.91517e-08 1.58352e-07 4.23612e-06)
(-2.78582e-08 1.19341e-07 4.34671e-06)
(-2.60697e-08 1.29639e-07 4.5142e-06)
(-2.38924e-08 1.69336e-07 4.77152e-06)
(-2.07343e-08 2.29762e-07 5.14194e-06)
(-1.46233e-08 1.39558e-07 5.71582e-06)
(3.91714e-08 9.01643e-07 4.38805e-06)
(6.12533e-08 3.5253e-07 4.14407e-06)
(7.30966e-08 1.64377e-07 4.18704e-06)
(8.17831e-08 1.23774e-07 4.29675e-06)
(8.76614e-08 1.33164e-07 4.46375e-06)
(9.18945e-08 1.72405e-07 4.72057e-06)
(9.44838e-08 2.32385e-07 5.09071e-06)
(9.27868e-08 1.40616e-07 5.66836e-06)
(7.32991e-10 9.92799e-07 4.71578e-06)
(3.57199e-09 3.78251e-07 4.43251e-06)
(1.36821e-08 1.78869e-07 4.5153e-06)
(2.30595e-08 1.33901e-07 4.64574e-06)
(2.95003e-08 1.39747e-07 4.81733e-06)
(3.47599e-08 1.76152e-07 5.06388e-06)
(3.92005e-08 2.30637e-07 5.39381e-06)
(3.97195e-08 1.38784e-07 5.85175e-06)
(-4.42617e-06 7.90381e-07 -7.23995e-08)
(-4.14729e-06 1.37735e-07 -1.016e-07)
(-4.23005e-06 -5.69087e-08 -9.8049e-08)
(-4.35493e-06 -7.32522e-08 -9.16358e-08)
(-4.52141e-06 -4.0726e-08 -8.66712e-08)
(-4.76618e-06 1.79349e-08 -8.14023e-08)
(-5.0956e-06 1.00439e-07 -7.47671e-08)
(-5.54345e-06 3.82892e-08 -6.80104e-08)
(-3.76545e-06 6.14163e-07 -1.18312e-07)
(-3.57457e-06 1.05585e-07 -1.67069e-07)
(-3.62776e-06 -5.66954e-08 -1.66475e-07)
(-3.73166e-06 -6.9785e-08 -1.61393e-07)
(-3.89035e-06 -3.63431e-08 -1.57232e-07)
(-4.14301e-06 2.49896e-08 -1.51547e-07)
(-4.51348e-06 1.11351e-07 -1.42508e-07)
(-5.09583e-06 4.4962e-08 -1.31603e-07)
(-3.31391e-06 5.04982e-07 -6.68244e-08)
(-3.20863e-06 8.9556e-08 -9.33751e-08)
(-3.26375e-06 -5.12388e-08 -8.77941e-08)
(-3.36031e-06 -6.40111e-08 -8.02806e-08)
(-3.51312e-06 -3.08806e-08 -7.50778e-08)
(-3.76412e-06 3.26573e-08 -6.95486e-08)
(-4.14362e-06 1.20383e-07 -6.1872e-08)
(-4.76753e-06 5.14929e-08 -5.47855e-08)
(-3.04008e-06 4.53945e-07 -3.067e-08)
(-2.95946e-06 8.46037e-08 -4.24609e-08)
(-3.01872e-06 -4.36047e-08 -3.60503e-08)
(-3.11407e-06 -5.70697e-08 -2.83702e-08)
(-3.26452e-06 -2.56115e-08 -2.30822e-08)
(-3.51313e-06 3.81954e-08 -1.87586e-08)
(-3.89227e-06 1.26116e-07 -1.39162e-08)
(-4.52638e-06 5.6362e-08 -9.70894e-09)
(-2.88065e-06 4.3184e-07 -1.3788e-08)
(-2.80722e-06 8.41673e-08 -1.83859e-08)
(-2.86868e-06 -3.71506e-08 -1.34655e-08)
(-2.9645e-06 -5.10435e-08 -7.51637e-09)
(-3.11439e-06 -2.12691e-08 -3.17226e-09)
(-3.36134e-06 4.18236e-08 -4.45333e-11)
(-3.73767e-06 1.29434e-07 2.82667e-09)
(-4.37089e-06 5.94269e-08 5.2996e-09)
(-2.78648e-06 4.2176e-07 -6.69012e-09)
(-2.71592e-06 8.49201e-08 -8.43799e-09)
(-2.77839e-06 -3.27369e-08 -5.28238e-09)
(-2.87479e-06 -4.67769e-08 -1.4264e-09)
(-3.02458e-06 -1.81397e-08 1.56108e-09)
(-3.27024e-06 4.41946e-08 3.66146e-09)
(-3.64347e-06 1.31461e-07 5.41611e-09)
(-4.27368e-06 6.12344e-08 6.95981e-09)
(-2.73298e-06 4.16705e-07 -3.28645e-09)
(-2.66384e-06 8.5571e-08 -4.02441e-09)
(-2.72675e-06 -3.01401e-08 -2.33521e-09)
(-2.82352e-06 -4.42003e-08 -2.51426e-10)
(-2.97328e-06 -1.61812e-08 1.43066e-09)
(-3.218e-06 4.56788e-08 2.63831e-09)
(-3.58884e-06 1.32733e-07 3.64277e-09)
(-4.21656e-06 6.22598e-08 4.55101e-09)