/*--------------------------------*- C++ -*----------------------------------*\
| =========                 |                                                 |
| \\      /  F ield         | OpenFOAM: The Open Source CFD Toolbox           |
|  \\    /   O peration     | Version:  v1912                                 |
|   \\  /    A nd           | Website:  www.openfoam.com                      |
|    \\/     M anipulation  |                                                 |
\*---------------------------------------------------------------------------*/
FoamFile
{
    version     2.0;
    format      ascii;
    class       volVectorField;
    location    "0.38/solid";
    object      D_0;
}
// * * * * * * * * * * * * * * * * * * * * * * * * * * * * * * * * * * * * * //

dimensions      [0 1 0 0 0 0 0];


internalField   nonuniform List<vector> 
256
(
(1.63572e-08 2.81753e-08 1.72166e-08)
(1.13379e-09 1.64587e-08 1.57591e-08)
(-5.32471e-10 1.62961e-08 1.58756e-08)
(-1.554e-08 2.74196e-08 1.76609e-08)
(2.5364e-08 2.24386e-08 2.9427e-08)
(4.25209e-09 1.60942e-08 2.76104e-08)
(-2.05026e-09 1.5651e-08 2.79629e-08)
(-2.28902e-08 2.08771e-08 3.06029e-08)
(2.64938e-08 1.53966e-08 3.40497e-08)
(5.3796e-09 1.29566e-08 3.21619e-08)
(-1.24879e-09 1.22485e-08 3.26917e-08)
(-2.21093e-08 1.31032e-08 3.57481e-08)
(2.66298e-08 1.05734e-08 3.68525e-08)
(5.95056e-09 9.23354e-09 3.49142e-08)
(4.14018e-10 8.28642e-09 3.55709e-08)
(-2.00228e-08 7.60796e-09 3.89276e-08)
(2.75934e-08 6.98115e-09 3.94916e-08)
(6.87388e-09 5.39498e-09 3.75637e-08)
(2.02625e-09 4.22452e-09 3.83174e-08)
(-1.8452e-08 3.38584e-09 4.1857e-08)
(2.98424e-08 3.81823e-09 4.26675e-08)
(8.4056e-09 1.58097e-09 4.0787e-08)
(3.3314e-09 1.90429e-10 4.16219e-08)
(-1.78735e-08 -3.91592e-10 4.52757e-08)
(3.40219e-08 -1.62209e-09 4.7084e-08)
(1.06962e-08 -3.7986e-09 4.52961e-08)
(4.17404e-09 -5.40542e-09 4.62053e-08)
(-1.89781e-08 -6.44759e-09 4.9909e-08)
(4.05261e-08 -2.95224e-08 5.29944e-08)
(1.32347e-08 -2.86796e-08 5.1432e-08)
(4.99932e-09 -3.0364e-08 5.24008e-08)
(-2.22313e-08 -3.46844e-08 5.59844e-08)
(1.27364e-08 1.4238e-08 1.1952e-09)
(5.22908e-10 4.33793e-09 1.73247e-09)
(-1.86707e-10 4.16859e-09 1.8885e-09)
(-1.2105e-08 1.35117e-08 1.65423e-09)
(1.99576e-08 1.28742e-08 7.98569e-09)
(2.97912e-09 7.34405e-09 9.02301e-09)
(-1.4392e-09 6.85521e-09 9.39773e-09)
(-1.80518e-08 1.12636e-08 9.07733e-09)
(2.0724e-08 9.75394e-09 1.27411e-08)
(3.88704e-09 7.51611e-09 1.39873e-08)
(-7.30059e-10 6.76488e-09 1.45194e-08)
(-1.72202e-08 7.4113e-09 1.42935e-08)
(2.07094e-08 6.74591e-09 1.56558e-08)
(4.36003e-09 5.44969e-09 1.69988e-08)
(7.82077e-10 4.47178e-09 1.76479e-08)
(-1.5226e-08 3.75091e-09 1.75568e-08)
(2.15779e-08 3.87818e-09 1.79629e-08)
(5.20641e-09 2.30415e-09 1.93666e-08)
(2.27104e-09 1.11328e-09 2.0108e-08)
(-1.37511e-08 2.69638e-10 2.01413e-08)
(2.38173e-08 1.06323e-09 2.04078e-08)
(6.68532e-09 -1.17412e-09 2.18501e-08)
(3.46466e-09 -2.57608e-09 2.26684e-08)
(-1.33175e-08 -3.14467e-09 2.28169e-08)
(2.80985e-08 -3.41173e-09 2.31598e-08)
(8.95119e-09 -5.58236e-09 2.46255e-08)
(4.19694e-09 -7.18533e-09 2.5504e-08)
(-1.46541e-08 -8.20399e-09 2.57514e-08)
(3.48086e-08 -2.72854e-08 2.50829e-08)
(1.14729e-08 -2.62444e-08 2.65706e-08)
(4.93662e-09 -2.7891e-08 2.74725e-08)
(-1.82291e-08 -3.23382e-08 2.7754e-08)
(1.04259e-08 1.03283e-08 4.81857e-10)
(2.41361e-12 1.60222e-09 1.10984e-09)
(1.68877e-10 1.45035e-09 1.22458e-09)
(-9.95737e-09 9.71002e-09 8.09016e-10)
(1.65447e-08 7.87443e-09 4.59592e-09)
(1.86758e-09 2.99614e-09 5.81106e-09)
(-8.00366e-10 2.53304e-09 6.09563e-09)
(-1.5094e-08 6.40468e-09 5.40702e-09)
(1.71754e-08 5.34152e-09 8.76142e-09)
(2.58853e-09 3.30907e-09 1.02005e-08)
(-1.72921e-10 2.58535e-09 1.0611e-08)
(-1.43876e-08 3.1355e-09 9.94148e-09)
(1.71089e-08 3.2394e-09 1.19025e-08)
(2.97993e-09 1.99774e-09 1.34393e-08)
(1.19389e-09 1.04851e-09 1.39485e-08)
(-1.25627e-08 3.72868e-10 1.33788e-08)
(1.79173e-08 1.17176e-09 1.43455e-08)
(3.75692e-09 -3.85539e-10 1.59375e-08)
(2.56418e-09 -1.54603e-09 1.6528e-08)
(-1.12101e-08 -2.31435e-09 1.60676e-08)
(2.01641e-08 -8.68602e-10 1.65469e-08)
(5.19109e-09 -3.10484e-09 1.81663e-08)
(3.64846e-09 -4.47288e-09 1.88239e-08)
(-1.09324e-08 -4.95401e-09 1.84729e-08)
(2.45602e-08 -4.35755e-09 1.85221e-08)
(7.44684e-09 -6.5248e-09 2.01475e-08)
(4.2653e-09 -8.08693e-09 2.0852e-08)
(-1.25061e-08 -9.01745e-09 2.05965e-08)
(3.13968e-08 -2.65045e-08 1.96038e-08)
(9.96248e-09 -2.54082e-08 2.12357e-08)
(4.90565e-09 -2.70054e-08 2.1949e-08)
(-1.63126e-08 -3.14102e-08 2.17213e-08)
(9.28504e-09 9.2184e-09 7.08696e-10)
(-2.21635e-10 1.14271e-09 1.08863e-09)
(3.01967e-10 1.00775e-09 1.17032e-09)
(-8.9407e-09 8.69094e-09 9.41723e-10)
(1.48083e-08 5.78845e-09 3.5553e-09)
(1.32197e-09 1.2924e-09 4.32246e-09)
(-5.60007e-10 8.7103e-10 4.52969e-09)
(-1.3697e-08 4.47988e-09 4.14515e-09)
(1.54188e-08 2.74936e-09 6.78906e-09)
(1.93094e-09 8.56513e-10 7.71327e-09)
(-3.32614e-11 1.83286e-10 8.01659e-09)
(-1.31736e-08 7.22149e-10 7.66052e-09)
(1.53718e-08 7.01374e-10 9.62337e-09)
(2.26862e-09 -4.92512e-10 1.06151e-08)
(1.19529e-09 -1.39038e-09 1.09969e-08)
(-1.15542e-08 -1.99033e-09 1.07312e-08)
(1.61542e-08 -9.80386e-10 1.19301e-08)
(2.99041e-09 -2.51587e-09 1.29621e-08)
(2.45564e-09 -3.62618e-09 1.34105e-08)
(-1.03371e-08 -4.30157e-09 1.32413e-08)
(1.8388e-08 -2.5056e-09 1.38489e-08)
(4.37953e-09 -4.73217e-09 1.49042e-08)
(3.44691e-09 -6.05094e-09 1.54076e-08)
(-1.01815e-08 -6.43513e-09 1.53296e-08)
(2.28296e-08 -5.51666e-09 1.54152e-08)
(6.61319e-09 -7.67691e-09 1.64782e-08)
(3.971e-09 -9.19075e-09 1.70181e-08)
(-1.19121e-08 -1.00288e-08 1.70151e-08)
(2.97182e-08 -2.68741e-08 1.64444e-08)
(9.11438e-09 -2.57689e-08 1.7515e-08)
(4.5268e-09 -2.73216e-08 1.80589e-08)
(-1.58654e-08 -3.16457e-08 1.80736e-08)
(8.74585e-09 8.71758e-09 7.19992e-10)
(-2.95316e-10 9.93387e-10 9.14393e-10)
(3.2357e-10 8.72032e-10 9.71821e-10)
(-8.48513e-09 8.25762e-09 8.83344e-10)
(1.39615e-08 4.86484e-09 2.79262e-09)
(1.09676e-09 5.80526e-10 3.204e-09)
(-5.29566e-10 1.96278e-10 3.35107e-09)
(-1.30832e-08 3.68892e-09 3.20985e-09)
(1.45695e-08 1.36863e-09 5.15066e-09)
(1.64066e-09 -4.39561e-10 5.65911e-09)
(-9.40504e-11 -1.06466e-09 5.87633e-09)
(-1.2707e-08 -4.99766e-10 5.77319e-09)
(1.45495e-08 -9.142e-10 7.38455e-09)
(1.93974e-09 -2.07177e-09 7.93726e-09)
(1.02239e-09 -2.91892e-09 8.21333e-09)
(-1.12601e-08 -3.44339e-09 8.18488e-09)
(1.532e-08 -2.56555e-09 9.29616e-09)
(2.6172e-09 -4.07677e-09 9.87802e-09)
(2.1916e-09 -5.1375e-09 1.02053e-08)
(-1.01635e-08 -5.73119e-09 1.02535e-08)
(1.75289e-08 -3.92739e-09 1.08747e-08)
(3.96281e-09 -6.13463e-09 1.14781e-08)
(3.10965e-09 -7.40641e-09 1.18478e-08)
(-1.00976e-08 -7.71259e-09 1.19643e-08)
(2.19674e-08 -6.79351e-09 1.21614e-08)
(6.16517e-09 -8.93527e-09 1.2777e-08)
(3.56596e-09 -1.04061e-08 1.31744e-08)
(-1.19213e-08 -1.11756e-08 1.33437e-08)
(2.88606e-08 -2.77047e-08 1.31553e-08)
(8.64416e-09 -2.65879e-08 1.37775e-08)
(4.05884e-09 -2.81036e-08 1.41772e-08)
(-1.59614e-08 -3.23646e-08 1.43596e-08)
(8.47436e-09 8.42128e-09 5.77852e-10)
(-3.19677e-10 8.90204e-10 6.72245e-10)
(3.17523e-10 7.78774e-10 7.1048e-10)
(-8.26612e-09 8.00797e-09 6.85887e-10)
(1.35303e-08 4.37995e-09 2.02372e-09)
(9.97217e-10 2.1385e-10 2.23315e-09)
(-5.52035e-10 -1.42752e-10 2.33144e-09)
(-1.28018e-08 3.29991e-09 2.3009e-09)
(1.41321e-08 6.23699e-10 3.62812e-09)
(1.49996e-09 -1.13314e-09 3.89496e-09)
(-1.8264e-10 -1.72108e-09 4.0409e-09)
(-1.25226e-08 -1.12482e-09 4.04435e-09)
(1.41244e-08 -1.88952e-09 5.19659e-09)
(1.7687e-09 -3.02034e-09 5.49261e-09)
(8.55003e-10 -3.82717e-09 5.67926e-09)
(-1.11936e-08 -4.29189e-09 5.73588e-09)
(1.48839e-08 -3.65895e-09 6.58972e-09)
(2.41095e-09 -5.14789e-09 6.9069e-09)
(1.9572e-09 -6.16877e-09 7.12953e-09)
(-1.01858e-08 -6.70116e-09 7.23974e-09)
(1.70668e-08 -5.05443e-09 7.76584e-09)
(3.71987e-09 -7.23987e-09 8.1011e-09)
(2.82119e-09 -8.47427e-09 8.3538e-09)
(-1.01829e-08 -8.72536e-09 8.51029e-09)
(2.14863e-08 -7.92317e-09 8.7526e-09)
(5.89238e-09 -1.00405e-08 9.10034e-09)
(3.22905e-09 -1.14778e-08 9.37274e-09)
(-1.2064e-08 -1.22037e-08 9.56365e-09)
(2.83685e-08 -2.85784e-08 9.58282e-09)
(8.34895e-09 -2.74372e-08 9.93503e-09)
(3.6774e-09 -2.89243e-08 1.02089e-08)
(-1.61584e-08 -3.31522e-08 1.04096e-08)
(8.33038e-09 8.24896e-09 3.65027e-10)
(-3.30371e-10 8.22491e-10 4.08233e-10)
(3.11397e-10 7.17464e-10 4.30144e-10)
(-8.15253e-09 7.86467e-09 4.26569e-10)
(1.33007e-08 4.10842e-09 1.22458e-09)
(9.46081e-10 7.16603e-12 1.3242e-09)
(-5.71978e-10 -3.31525e-10 1.38063e-09)
(-1.26606e-08 3.08952e-09 1.38285e-09)
(1.38942e-08 2.17772e-10 2.15903e-09)
(1.42279e-09 -1.50858e-09 2.2894e-09)
(-2.42984e-10 -2.07199e-09 2.37345e-09)
(-1.24372e-08 -1.45241e-09 2.39766e-09)
(1.38878e-08 -2.44871e-09 3.08179e-09)
(1.6696e-09 -3.56122e-09 3.22943e-09)
(7.46375e-10 -4.34097e-09 3.33735e-09)
(-1.11774e-08 -4.76642e-09 3.39253e-09)
(1.46363e-08 -4.34343e-09 3.92007e-09)
(2.28683e-09 -5.81559e-09 4.08107e-09)
(1.80572e-09 -6.80944e-09 4.2103e-09)
(-1.02249e-08 -7.30213e-09 4.29653e-09)
(1.67989e-08 -5.82334e-09 4.64467e-09)
(3.56975e-09 -7.99118e-09 4.81769e-09)
(2.63399e-09 -9.2002e-09 4.96486e-09)
(-1.02621e-08 -9.41661e-09 5.0777e-09)
(2.12015e-08 -8.73657e-09 5.26937e-09)
(5.72056e-09 -1.08324e-08 5.45126e-09)
(3.00962e-09 -1.22471e-08 5.61022e-09)
(-1.2179e-08 -1.29482e-08 5.74257e-09)
(2.80731e-08 -2.92582e-08 5.81684e-09)
(8.16021e-09 -2.80908e-08 6.001e-09)
(3.4289e-09 -2.95586e-08 6.16076e-09)
(-1.63081e-08 -3.37738e-08 6.29957e-09)
(8.26541e-09 8.16956e-09 1.24106e-10)
(-3.35352e-10 7.8982e-10 1.36738e-10)
(3.08922e-10 6.87918e-10 1.43875e-10)
(-8.10149e-09 7.79914e-09 1.44087e-10)
(1.31964e-08 3.98281e-09 4.09586e-10)
(9.2233e-10 -8.91646e-11 4.39324e-10)
(-5.80861e-10 -4.19103e-10 4.57719e-10)
(-1.25972e-08 2.99355e-09 4.61028e-10)
(1.37842e-08 3.33909e-11 7.16794e-10)
(1.3861e-09 -1.67841e-09 7.56303e-10)
(-2.70575e-10 -2.22975e-09 7.83744e-10)
(-1.23987e-08 -1.59835e-09 7.94507e-10)
(1.37762e-08 -2.70703e-09 1.02091e-09)
(1.62133e-09 -3.81007e-09 1.06621e-09)
(6.9613e-10 -4.57635e-09 1.10151e-09)
(-1.11704e-08 -4.9827e-09 1.12236e-09)
(1.45177e-08 -4.67353e-09 1.30005e-09)
(2.22551e-09 -6.13671e-09 1.34996e-09)
(1.73478e-09 -7.11701e-09 1.39232e-09)
(-1.02439e-08 -7.59041e-09 1.42328e-09)
(1.66694e-08 -6.21018e-09 1.5446e-09)
(3.49506e-09 -8.36843e-09 1.59872e-09)
(2.54528e-09 -9.5647e-09 1.64704e-09)
(-1.03007e-08 -9.76438e-09 1.68666e-09)
(2.1063e-08 -9.1565e-09 1.7586e-09)
(5.63476e-09 -1.12403e-08 1.81587e-09)
(2.9046e-09 -1.26436e-08 1.86812e-09)
(-1.22354e-08 -1.33333e-08 1.91409e-09)
(2.79291e-08 -2.96226e-08 1.94925e-09)
(8.06559e-09 -2.84391e-08 2.00716e-09)
(3.30933e-09 -2.98971e-08 2.05967e-09)
(-1.6382e-08 -3.41088e-08 2.10793e-09)
)
;

boundaryField
{
    interface
    {
        type            solidTraction;
        traction        uniform (0 0 0);
        pressure        uniform 0;
        secondOrder     false;
        setEffectiveTraction false;
        relaxationFactor 1;
        value           nonuniform List<vector> 
192
(
(7.38182e-08 3.86056e-08 1.62513e-08)
(7.9417e-08 2.49727e-08 2.79256e-08)
(8.16222e-08 1.57131e-08 3.24389e-08)
(8.33497e-08 1.08484e-08 3.51999e-08)
(8.64194e-08 7.78446e-09 3.78055e-08)
(9.17423e-08 5.42561e-09 4.09704e-08)
(9.9995e-08 1.04917e-09 4.54056e-08)
(1.11776e-07 -2.74928e-08 5.1347e-08)
(6.22076e-08 2.24115e-08 -2.87908e-10)
(6.70712e-08 1.4871e-08 5.78041e-09)
(6.85527e-08 9.94195e-09 1.0411e-08)
(6.98904e-08 6.9595e-09 1.32751e-08)
(7.27997e-08 4.65532e-09 1.55434e-08)
(7.8255e-08 2.69368e-09 1.79878e-08)
(8.71676e-08 -6.63517e-10 2.0794e-08)
(1.00795e-07 -2.52201e-08 2.28002e-08)
(5.42045e-08 1.70709e-08 -3.81203e-10)
(5.90399e-08 9.56182e-09 3.30825e-09)
(6.04152e-08 5.48263e-09 7.43475e-09)
(6.1616e-08 3.42501e-09 1.05677e-08)
(6.44019e-08 1.93576e-09 1.29892e-08)
(6.9859e-08 7.92451e-10 1.51893e-08)
(7.90208e-08 -1.54895e-09 1.72046e-08)
(9.33369e-08 -2.44062e-08 1.8331e-08)
(4.95629e-08 1.52417e-08 2.88551e-10)
(5.41135e-08 7.32191e-09 2.90928e-09)
(5.55246e-08 2.89029e-09 6.13734e-09)
(5.67342e-08 8.85368e-10 8.98329e-09)
(5.94698e-08 -2.26105e-10 1.12806e-08)
(6.48924e-08 -8.36398e-10 1.31899e-08)
(7.41102e-08 -2.68364e-09 1.47668e-08)
(8.86459e-08 -2.47599e-08 1.58102e-08)
(4.69728e-08 1.43944e-08 5.17218e-10)
(5.13085e-08 6.32078e-09 2.47295e-09)
(5.27477e-08 1.51571e-09 4.82879e-09)
(5.39932e-08 -7.26422e-10 7.07253e-09)
(5.67132e-08 -1.82047e-09 8.9784e-09)
(6.20951e-08 -2.26518e-09 1.05442e-08)
(7.12845e-08 -3.96011e-09 1.18254e-08)
(8.58418e-08 -2.55909e-08 1.28177e-08)
(4.54865e-08 1.39224e-08 4.7392e-10)
(4.97007e-08 5.79441e-09 1.8584e-09)
(5.11479e-08 7.72317e-10 3.45916e-09)
(5.24149e-08 -1.7014e-09 5.03105e-09)
(5.5125e-08 -2.92311e-09 6.41867e-09)
(6.04681e-08 -3.40343e-09 7.58324e-09)
(6.96064e-08 -5.09726e-09 8.56104e-09)
(8.41334e-08 -2.64722e-08 9.38587e-09)
(4.46512e-08 1.36567e-08 3.12752e-10)
(4.87987e-08 5.49939e-09 1.14103e-09)
(5.0244e-08 3.6465e-10 2.07199e-09)
(5.15181e-08 -2.26301e-09 2.99465e-09)
(5.42182e-08 -3.61542e-09 3.82846e-09)
(5.95314e-08 -4.18163e-09 4.54525e-09)
(6.86271e-08 -5.91751e-09 5.1635e-09)
(8.31233e-08 -2.71599e-08 5.70696e-09)
(4.42706e-08 1.3535e-08 1.07853e-10)
(4.8387e-08 5.36254e-09 3.83491e-10)
(4.98292e-08 1.7843e-10 6.89281e-10)
(5.1104e-08 -2.52349e-09 9.92975e-10)
(5.37976e-08 -3.94997e-09 1.27038e-09)
(5.90947e-08 -4.57343e-09 1.5122e-09)
(6.81677e-08 -6.34104e-09 1.72396e-09)
(8.26473e-08 -2.75288e-08 1.91324e-09)
(1.64763e-08 3.98364e-08 7.77787e-08)
(2.56618e-08 2.6647e-08 8.64825e-08)
(2.68287e-08 1.72531e-08 9.21947e-08)
(2.6973e-08 1.19339e-08 9.66522e-08)
(2.79559e-08 8.43495e-09 1.01454e-07)
(3.02223e-08 5.71642e-09 1.07744e-07)
(3.44156e-08 9.59726e-10 1.16335e-07)
(4.09608e-08 -2.7925e-08 1.27768e-07)
(7.99094e-10 2.73012e-08 7.13165e-08)
(3.88702e-09 2.01951e-08 8.01833e-08)
(5.04116e-09 1.47826e-08 8.53056e-08)
(5.63124e-09 1.0584e-08 8.94436e-08)
(6.5814e-09 6.86318e-09 9.41954e-08)
(8.14529e-09 3.51406e-09 1.0066e-07)
(1.04776e-08 -1.13732e-09 1.09841e-07)
(1.30875e-08 -2.70401e-08 1.23038e-07)
(-5.64348e-11 2.72558e-08 7.08726e-08)
(-1.30112e-09 1.9855e-08 7.99499e-08)
(-3.51129e-10 1.41505e-08 8.52271e-08)
(1.41851e-09 9.69286e-09 8.94815e-08)
(3.10071e-09 5.73724e-09 9.43243e-08)
(4.4547e-09 2.16237e-09 1.00864e-07)
(5.32842e-09 -2.71076e-09 1.10116e-07)
(6.13865e-09 -2.8711e-08 1.23421e-07)
(-1.55163e-08 3.94856e-08 7.66985e-08)
(-2.28147e-08 2.53989e-08 8.61282e-08)
(-2.19032e-08 1.51844e-08 9.23078e-08)
(-1.97013e-08 9.13518e-09 9.71114e-08)
(-1.80535e-08 4.97281e-09 1.02185e-07)
(-1.74128e-08 1.62134e-09 1.087e-07)
(-1.84621e-08 -3.7705e-09 1.17492e-07)
(-2.17015e-08 -3.30504e-08 1.29212e-07)
(-7.09296e-08 3.70273e-08 1.68143e-08)
(-7.48189e-08 2.25195e-08 2.94315e-08)
(-7.50728e-08 1.23864e-08 3.46293e-08)
(-7.45441e-08 6.69358e-09 3.78897e-08)
(-7.5056e-08 2.84839e-09 4.08816e-08)
(-7.75513e-08 -2.60269e-10 4.43675e-08)
(-8.28051e-08 -5.35833e-09 4.90866e-08)
(-9.15763e-08 -3.43218e-08 5.52493e-08)
(-5.93205e-08 2.10509e-08 2.58589e-10)
(-6.28975e-08 1.25424e-08 7.12836e-09)
(-6.27361e-08 6.70483e-09 1.23632e-08)
(-6.20445e-08 2.88355e-09 1.56919e-08)
(-6.25613e-08 -2.07599e-10 1.83309e-08)
(-6.53052e-08 -2.91908e-09 2.10818e-08)
(-7.13063e-08 -6.9762e-09 2.41336e-08)
(-8.2059e-08 -3.18893e-08 2.62745e-08)
(-5.15305e-08 1.59729e-08 1.79934e-11)
(-5.53502e-08 7.51224e-09 4.31847e-09)
(-5.53362e-08 2.50263e-09 8.93001e-09)
(-5.47221e-08 -4.21589e-10 1.2461e-08)
(-5.5286e-08 -2.72201e-09 1.52143e-08)
(-5.81603e-08 -4.63017e-09 1.76891e-08)
(-6.45016e-08 -7.67252e-09 1.99111e-08)
(-7.6007e-08 -3.0877e-08 2.11306e-08)
(-4.70913e-08 1.43504e-08 5.73694e-10)
(-5.08318e-08 5.5381e-09 3.64254e-09)
(-5.1051e-08 1.86404e-10 7.24048e-09)
(-5.06263e-08 -2.69956e-09 1.04057e-08)
(-5.12945e-08 -4.64484e-09 1.29798e-08)
(-5.42581e-08 -6.04152e-09 1.5121e-08)
(-6.07466e-08 -8.60794e-09 1.6869e-08)
(-7.25305e-08 -3.10502e-08 1.7986e-08)
(-4.46439e-08 1.36497e-08 7.14738e-10)
(-4.83142e-08 4.74436e-09 2.98616e-09)
(-4.87071e-08 -9.55573e-10 5.61054e-09)
(-4.84599e-08 -4.07934e-09 8.09484e-09)
(-4.92405e-08 -6.02191e-09 1.02158e-08)
(-5.22712e-08 -7.27329e-09 1.19647e-08)
(-5.88153e-08 -9.70968e-09 1.33817e-08)
(-7.06791e-08 -3.17297e-08 1.44329e-08)
(-4.3248e-08 1.3275e-08 6.02763e-10)
(-4.68914e-08 4.364e-09 2.19531e-09)
(-4.73932e-08 -1.52694e-09 3.97697e-09)
(-4.72704e-08 -4.87618e-09 5.71526e-09)
(-4.81378e-08 -6.95393e-09 7.25516e-09)
(-5.12143e-08 -8.25596e-09 8.5515e-09)
(-5.77758e-08 -1.07099e-08 9.62815e-09)
(-6.96596e-08 -3.24937e-08 1.04964e-08)
(-4.24652e-08 1.3068e-08 3.8543e-10)
(-4.60988e-08 4.16066e-09 1.33174e-09)
(-4.66616e-08 -1.82326e-09 2.36674e-09)
(-4.66121e-08 -5.31957e-09 3.38678e-09)
(-4.75339e-08 -7.53103e-09 4.31111e-09)
(-5.06383e-08 -8.92824e-09 5.10721e-09)
(-5.72053e-08 -1.14368e-08 5.78547e-09)
(-6.90947e-08 -3.31015e-08 6.35554e-09)
(-4.21087e-08 1.29738e-08 1.31332e-10)
(-4.57378e-08 4.06783e-09 4.45197e-10)
(-4.63276e-08 -1.95511e-09 7.84908e-10)
(-4.63113e-08 -5.52149e-09 1.12063e-09)
(-4.72586e-08 -7.80791e-09 1.42804e-09)
(-5.03761e-08 -9.26665e-09 1.69632e-09)
(-5.69449e-08 -1.18131e-08 1.9282e-09)
(-6.88366e-08 -3.34301e-08 2.12644e-09)
(4.13318e-08 -1.04313e-07 5.32337e-08)
(3.55824e-08 -9.65566e-08 2.43283e-08)
(3.21733e-08 -9.16191e-08 1.9501e-08)
(3.05005e-08 -8.89415e-08 1.67445e-08)
(2.96398e-08 -8.77996e-08 1.35814e-08)
(2.91377e-08 -8.74336e-08 9.97117e-09)
(2.88319e-08 -8.73831e-08 6.07789e-09)
(2.86816e-08 -8.74079e-08 2.04035e-09)
(1.34463e-08 -1.00302e-07 5.1643e-08)
(1.16254e-08 -9.08154e-08 2.57527e-08)
(1.00888e-08 -8.53337e-08 2.11168e-08)
(9.22733e-09 -8.25196e-08 1.781e-08)
(8.74495e-09 -8.13646e-08 1.41946e-08)
(8.43651e-09 -8.09918e-08 1.03108e-08)
(8.23638e-09 -8.09278e-08 6.25148e-09)
(8.13529e-09 -8.09424e-08 2.09424e-09)
(6.50178e-09 -1.01399e-07 5.26091e-08)
(6.46122e-09 -9.18261e-08 2.6633e-08)
(6.40727e-09 -8.62965e-08 2.18067e-08)
(5.99714e-09 -8.34419e-08 1.83335e-08)
(5.50416e-09 -8.22521e-08 1.45779e-08)
(5.10731e-09 -8.18523e-08 1.05726e-08)
(4.8508e-09 -8.17699e-08 6.40398e-09)
(4.7279e-09 -8.17752e-08 2.14431e-09)
(-2.13311e-08 -1.07919e-07 5.6215e-08)
(-1.73405e-08 -9.99309e-08 2.69356e-08)
(-1.54766e-08 -9.48593e-08 2.15483e-08)
(-1.50808e-08 -9.20615e-08 1.83123e-08)
(-1.52123e-08 -9.08168e-08 1.47362e-08)
(-1.54293e-08 -9.03716e-08 1.07619e-08)
(-1.5589e-08 -9.02673e-08 6.53873e-09)
(-1.56671e-08 -9.02649e-08 2.19169e-09)
)
;
        gradient        uniform (0 0 0);
    }
    symmetry
    {
        type            solidSymmetry;
        patchType       symmetry;
        secondOrder     false;
        value           nonuniform List<vector> 
32
(
(8.26541e-09 8.16956e-09 0)
(1.31964e-08 3.98281e-09 0)
(1.37842e-08 3.33909e-11 0)
(1.37762e-08 -2.70703e-09 0)
(1.45177e-08 -4.67353e-09 0)
(1.66694e-08 -6.21018e-09 0)
(2.1063e-08 -9.1565e-09 0)
(2.79291e-08 -2.96226e-08 0)
(-3.35352e-10 7.8982e-10 0)
(9.2233e-10 -8.91646e-11 0)
(1.3861e-09 -1.67841e-09 0)
(1.62133e-09 -3.81007e-09 0)
(2.22551e-09 -6.13671e-09 0)
(3.49506e-09 -8.36843e-09 0)
(5.63476e-09 -1.12403e-08 0)
(8.06559e-09 -2.84391e-08 0)
(3.08922e-10 6.87918e-10 0)
(-5.80861e-10 -4.19103e-10 0)
(-2.70575e-10 -2.22975e-09 0)
(6.9613e-10 -4.57635e-09 0)
(1.73478e-09 -7.11701e-09 0)
(2.54528e-09 -9.5647e-09 0)
(2.9046e-09 -1.26436e-08 0)
(3.30933e-09 -2.98971e-08 0)
(-8.10149e-09 7.79914e-09 0)
(-1.25972e-08 2.99355e-09 0)
(-1.23987e-08 -1.59835e-09 0)
(-1.11704e-08 -4.9827e-09 0)
(-1.02439e-08 -7.59041e-09 0)
(-1.03007e-08 -9.76438e-09 0)
(-1.22354e-08 -1.33333e-08 0)
(-1.6382e-08 -3.41088e-08 0)
)
;
    }
    bottom
    {
        type            fixedDisplacement;
        value           uniform (0 0 0);
    }
}


// ************************************************************************* //
