/*--------------------------------*- C++ -*----------------------------------*\
| =========                 |                                                 |
| \\      /  F ield         | OpenFOAM: The Open Source CFD Toolbox           |
|  \\    /   O peration     | Version:  v1912                                 |
|   \\  /    A nd           | Website:  www.openfoam.com                      |
|    \\/     M anipulation  |                                                 |
\*---------------------------------------------------------------------------*/
FoamFile
{
    version     2.0;
    format      ascii;
    class       volScalarField;
    location    "0.38/solid";
    object      epsilonEq;
}
// * * * * * * * * * * * * * * * * * * * * * * * * * * * * * * * * * * * * * //

dimensions      [0 0 0 0 0 0 0];


internalField   nonuniform List<scalar> 
256
(
2.47509e-06
1.86858e-06
1.84944e-06
2.394e-06
1.5966e-06
1.46327e-06
1.4445e-06
1.52646e-06
1.63527e-06
1.44024e-06
1.42132e-06
1.56608e-06
1.72067e-06
1.47347e-06
1.45469e-06
1.65217e-06
1.80143e-06
1.53383e-06
1.5151e-06
1.73318e-06
1.86611e-06
1.60964e-06
1.59085e-06
1.79787e-06
1.66436e-06
1.57848e-06
1.56125e-06
1.60139e-06
1.46998e-07
1.75087e-06
1.73718e-06
1.60839e-07
1.63586e-06
3.52301e-07
3.44001e-07
1.54881e-06
1.30395e-06
3.33847e-07
3.25191e-07
1.2228e-06
1.30342e-06
2.66282e-07
2.58984e-07
1.22272e-06
1.33524e-06
2.07563e-07
2.01413e-07
1.25389e-06
1.3888e-06
1.84647e-07
1.79181e-07
1.30628e-06
1.46393e-06
1.81739e-07
1.76631e-07
1.38039e-06
1.4392e-06
3.70763e-08
4.34025e-08
1.35905e-06
1.66388e-06
1.57938e-06
1.56248e-06
1.60187e-06
1.43824e-06
1.9606e-07
1.90836e-07
1.35631e-06
1.26075e-06
2.26921e-07
2.17502e-07
1.18132e-06
1.27065e-06
1.90533e-07
1.80956e-07
1.18966e-06
1.30015e-06
1.43712e-07
1.33999e-07
1.21752e-06
1.35301e-06
1.23149e-07
1.13217e-07
1.26847e-06
1.43556e-06
1.28751e-07
1.18921e-07
1.3493e-06
1.46294e-06
1.75693e-07
1.71883e-07
1.37994e-06
1.86594e-06
1.61166e-06
1.59353e-06
1.80007e-06
1.31033e-06
1.69438e-07
1.64993e-07
1.23383e-06
1.16924e-06
1.93636e-07
1.85568e-07
1.09428e-06
1.18543e-06
1.66184e-07
1.57468e-07
1.10783e-06
1.21575e-06
1.27724e-07
1.18641e-07
1.13579e-06
1.26819e-06
1.09934e-07
1.00395e-07
1.1858e-06
1.35089e-06
1.16268e-07
1.0658e-07
1.26632e-06
1.38622e-06
1.67389e-07
1.64088e-07
1.30465e-06
1.80654e-06
1.53926e-06
1.52158e-06
1.74252e-06
1.23606e-06
1.52413e-07
1.47466e-07
1.16331e-06
1.10537e-06
1.7498e-07
1.67622e-07
1.03365e-06
1.12532e-06
1.53014e-07
1.45079e-07
1.05054e-06
1.15742e-06
1.19882e-07
1.11443e-07
1.07979e-06
1.21055e-06
1.04852e-07
9.57647e-08
1.13012e-06
1.29323e-06
1.11905e-07
1.02543e-07
1.21031e-06
1.33017e-06
1.60922e-07
1.58262e-07
1.25013e-06
1.74438e-06
1.48355e-06
1.46627e-06
1.6822e-06
1.19288e-06
1.41815e-07
1.36355e-07
1.12258e-06
1.06643e-06
1.64475e-07
1.57398e-07
9.96791e-07
1.0884e-06
1.45914e-07
1.38395e-07
1.0155e-06
1.1219e-06
1.15745e-07
1.07667e-07
1.04588e-06
1.17578e-06
1.02278e-07
9.34229e-08
1.09672e-06
1.25847e-06
1.10409e-07
1.01277e-07
1.17672e-06
1.29582e-06
1.59713e-07
1.5752e-07
1.21689e-06
1.7029e-06
1.44756e-06
1.43056e-06
1.64208e-06
1.16854e-06
1.35515e-07
1.29711e-07
1.09971e-06
1.04424e-06
1.58444e-07
1.51482e-07
9.75851e-07
1.06719e-06
1.41641e-07
1.3431e-07
9.95441e-07
1.10154e-06
1.13068e-07
1.05171e-07
1.02653e-06
1.15588e-06
1.00364e-07
9.16392e-08
1.07768e-06
1.23855e-06
1.09308e-07
1.00333e-07
1.15753e-06
1.27604e-06
1.59789e-07
1.5791e-07
1.19783e-06
1.67852e-06
1.42617e-06
1.40935e-06
1.6186e-06
1.15747e-06
1.32508e-07
1.26534e-07
1.08933e-06
1.03412e-06
1.55576e-07
1.48657e-07
9.66329e-07
1.05747e-06
1.39495e-07
1.32237e-07
9.86272e-07
1.09219e-06
1.11631e-07
1.0381e-07
1.01767e-06
1.14673e-06
9.9257e-08
9.05963e-08
1.06895e-06
1.22937e-06
1.08592e-07
9.97005e-08
1.14872e-06
1.26694e-06
1.59932e-07
1.58215e-07
1.18908e-06
1.66732e-06
1.41621e-06
1.39949e-06
1.60785e-06
)
;

boundaryField
{
    interface
    {
        type            calculated;
        value           nonuniform List<scalar> 
192
(
3.30997e-06
2.35962e-06
2.41829e-06
2.53347e-06
2.6502e-06
2.76636e-06
2.64824e-06
1.42551e-06
2.74983e-06
2.31648e-06
2.33771e-06
2.41264e-06
2.52026e-06
2.6708e-06
2.74665e-06
2.64827e-06
2.45496e-06
2.19337e-06
2.2243e-06
2.29394e-06
2.39903e-06
2.55537e-06
2.67139e-06
2.7677e-06
2.24866e-06
2.03283e-06
2.07106e-06
2.14043e-06
2.24402e-06
2.39956e-06
2.52259e-06
2.65863e-06
2.12648e-06
1.92488e-06
1.96707e-06
2.03769e-06
2.1414e-06
2.29628e-06
2.4204e-06
2.56481e-06
2.05453e-06
1.85897e-06
1.90309e-06
1.97485e-06
2.079e-06
2.23339e-06
2.35714e-06
2.50337e-06
2.01377e-06
1.82126e-06
1.86627e-06
1.93873e-06
2.04319e-06
2.1972e-06
2.32038e-06
2.46713e-06
1.9952e-06
1.80405e-06
1.84941e-06
1.92218e-06
2.02677e-06
2.18058e-06
2.3034e-06
2.45038e-06
3.41971e-06
2.4811e-06
2.54054e-06
2.65742e-06
2.77602e-06
2.8947e-06
2.78992e-06
1.66003e-06
3.11433e-06
2.59597e-06
2.59583e-06
2.67167e-06
2.78502e-06
2.93695e-06
3.00957e-06
2.87007e-06
3.08092e-06
2.56223e-06
2.56107e-06
2.63658e-06
2.74973e-06
2.90135e-06
2.97483e-06
2.84376e-06
3.31733e-06
2.39095e-06
2.44935e-06
2.56581e-06
2.68411e-06
2.80221e-06
2.70128e-06
1.62327e-06
3.1875e-06
2.24325e-06
2.30164e-06
2.41659e-06
2.53294e-06
2.649e-06
2.53643e-06
1.35765e-06
2.6077e-06
2.17919e-06
2.19901e-06
2.27171e-06
2.37682e-06
2.52523e-06
2.60452e-06
2.53689e-06
2.31821e-06
2.05816e-06
2.08614e-06
2.15266e-06
2.25434e-06
2.40739e-06
2.5256e-06
2.65156e-06
2.11866e-06
1.90315e-06
1.93749e-06
2.00307e-06
2.10267e-06
2.25422e-06
2.37854e-06
2.54363e-06
2.00133e-06
1.79936e-06
1.8372e-06
1.90357e-06
2.00287e-06
2.1533e-06
2.27816e-06
2.45124e-06
1.93252e-06
1.73615e-06
1.77568e-06
1.84289e-06
1.94234e-06
2.09199e-06
2.21614e-06
2.39085e-06
1.89364e-06
1.70007e-06
1.74036e-06
1.80811e-06
1.90769e-06
2.05678e-06
2.18017e-06
2.35531e-06
1.87595e-06
1.68362e-06
1.72421e-06
1.79221e-06
1.89184e-06
2.04062e-06
2.16356e-06
2.33891e-06
1.66108e-06
2.79034e-06
2.89616e-06
2.78473e-06
2.68986e-06
2.62752e-06
2.59064e-06
2.57357e-06
2.87084e-06
3.01131e-06
2.94107e-06
2.79529e-06
2.69327e-06
2.62826e-06
2.58966e-06
2.57164e-06
2.84445e-06
2.97667e-06
2.90572e-06
2.76045e-06
2.65878e-06
2.594e-06
2.55554e-06
2.53759e-06
1.62381e-06
2.70208e-06
2.8052e-06
2.69581e-06
2.60266e-06
2.54158e-06
2.50554e-06
2.48888e-06
)
;
    }
    symmetry
    {
        type            symmetry;
    }
    bottom
    {
        type            calculated;
        value           nonuniform List<scalar> 
32
(
3.35361e-06
1.97755e-06
1.6654e-06
1.519e-06
1.43861e-06
1.39156e-06
1.36485e-06
1.35267e-06
2.24779e-06
4.36899e-07
2.18201e-07
1.94633e-07
1.82045e-07
1.72916e-07
1.67072e-07
1.64232e-07
2.22788e-06
4.26111e-07
2.09115e-07
1.86201e-07
1.73219e-07
1.63742e-07
1.57683e-07
1.54739e-07
3.26334e-06
1.88448e-06
1.57875e-06
1.43915e-06
1.36354e-06
1.31961e-06
1.29477e-06
1.28346e-06
)
;
    }
}


// ************************************************************************* //
