/*--------------------------------*- C++ -*----------------------------------*\
| =========                 |                                                 |
| \\      /  F ield         | OpenFOAM: The Open Source CFD Toolbox           |
|  \\    /   O peration     | Version:  v1912                                 |
|   \\  /    A nd           | Website:  www.openfoam.com                      |
|    \\/     M anipulation  |                                                 |
\*---------------------------------------------------------------------------*/
FoamFile
{
    version     2.0;
    format      ascii;
    class       pointVectorField;
    location    "0.38/solid";
    object      pointDD;
}
// * * * * * * * * * * * * * * * * * * * * * * * * * * * * * * * * * * * * * //

dimensions      [0 1 0 0 0 0 0];


internalField   nonuniform List<vector> 
405
(
(2.75626e-10 4.68456e-10 2.60749e-10)
(1.21316e-10 3.15707e-10 1.57441e-10)
(-3.42412e-12 2.58592e-10 1.2036e-10)
(-1.24005e-10 3.0729e-10 1.46411e-10)
(-2.5379e-10 4.53019e-10 2.44084e-10)
(5.48881e-10 5.45811e-10 6.2676e-10)
(3.34112e-10 5.10677e-10 5.43943e-10)
(-9.55986e-12 4.1972e-10 4.6128e-10)
(-3.43563e-10 4.98764e-10 5.19455e-10)
(-5.17914e-10 5.30725e-10 5.96448e-10)
(7.00094e-10 2.13725e-10 1.02891e-09)
(4.35615e-10 2.40411e-10 9.37548e-10)
(-1.47858e-11 1.93656e-10 8.41913e-10)
(-4.54184e-10 2.37532e-10 9.0851e-10)
(-6.75178e-10 2.13203e-10 9.89891e-10)
(7.02133e-10 -1.12131e-10 1.34352e-09)
(4.32477e-10 -5.57215e-11 1.24652e-09)
(-2.06495e-11 -7.66466e-11 1.14063e-09)
(-4.62789e-10 -5.12189e-11 1.21379e-09)
(-6.87457e-10 -1.00968e-10 1.2987e-09)
(6.84887e-10 -4.07615e-10 1.64257e-09)
(4.13169e-10 -3.57458e-10 1.53534e-09)
(-2.82742e-11 -3.7938e-10 1.41652e-09)
(-4.58675e-10 -3.46874e-10 1.49979e-09)
(-6.83975e-10 -3.86675e-10 1.59339e-09)
(7.1847e-10 -7.13558e-10 1.96213e-09)
(4.31476e-10 -6.90718e-10 1.83762e-09)
(-3.77763e-11 -7.26538e-10 1.70391e-09)
(-4.95869e-10 -6.74817e-10 1.79965e-09)
(-7.34952e-10 -6.83838e-10 1.90927e-09)
(8.71238e-10 -1.12847e-09 2.33025e-09)
(5.36743e-10 -1.12649e-09 2.18297e-09)
(-4.94008e-11 -1.15988e-09 2.03719e-09)
(-6.23986e-10 -1.10565e-09 2.14266e-09)
(-9.0831e-10 -1.09044e-09 2.27389e-09)
(1.19636e-09 -1.90284e-09 2.75585e-09)
(7.35216e-10 -1.87036e-09 2.63048e-09)
(-6.38694e-11 -1.84432e-09 2.49304e-09)
(-8.49866e-10 -1.84197e-09 2.58725e-09)
(-1.25472e-09 -1.8527e-09 2.6955e-09)
(1.40404e-09 -2.43795e-09 3.00765e-09)
(8.52289e-10 -2.35445e-09 2.94203e-09)
(-7.24094e-11 -2.25339e-09 2.8432e-09)
(-9.82868e-10 -2.31318e-09 2.9046e-09)
(-1.48893e-09 -2.37471e-09 2.95091e-09)
(1.2843e-10 2.2947e-10 1.16615e-10)
(0 0 0)
(0 0 0)
(0 0 0)
(-9.87944e-11 2.20637e-10 1.11009e-10)
(3.5373e-10 3.05766e-10 4.23757e-10)
(0 0 0)
(0 0 0)
(0 0 0)
(-2.94578e-10 2.95552e-10 4.066e-10)
(4.59376e-10 -1.02888e-11 7.7307e-10)
(0 0 0)
(0 0 0)
(0 0 0)
(-4.03039e-10 -6.86252e-12 7.46524e-10)
(4.53721e-10 -3.16778e-10 1.07612e-09)
(0 0 0)
(0 0 0)
(0 0 0)
(-4.04728e-10 -3.01857e-10 1.0437e-09)
(4.33675e-10 -5.98085e-10 1.36595e-09)
(0 0 0)
(0 0 0)
(0 0 0)
(-3.95924e-10 -5.72952e-10 1.3291e-09)
(4.59144e-10 -8.79252e-10 1.6709e-09)
(0 0 0)
(0 0 0)
(0 0 0)
(-4.36405e-10 -8.4464e-10 1.63022e-09)
(5.96312e-10 -1.23064e-09 2.0042e-09)
(0 0 0)
(0 0 0)
(0 0 0)
(-5.91411e-10 -1.18704e-09 1.95985e-09)
(9.40137e-10 -1.87719e-09 2.31528e-09)
(0 0 0)
(0 0 0)
(0 0 0)
(-9.50967e-10 -1.8213e-09 2.26735e-09)
(1.19468e-09 -2.31711e-09 2.48874e-09)
(7.32815e-10 -2.19041e-09 2.50743e-09)
(-6.60349e-11 -2.05066e-09 2.48366e-09)
(-8.51829e-10 -2.14283e-09 2.48247e-09)
(-1.25623e-09 -2.24941e-09 2.44511e-09)
(2.14408e-11 8.20481e-11 2.55587e-11)
(0 0 0)
(0 0 0)
(0 0 0)
(6.14696e-12 7.39713e-11 2.3005e-11)
(9.16505e-11 2.97944e-11 1.79347e-10)
(0 0 0)
(0 0 0)
(0 0 0)
(-3.50651e-11 2.03813e-11 1.69961e-10)
(1.38696e-10 -2.4529e-10 4.51587e-10)
(0 0 0)
(0 0 0)
(0 0 0)
(-8.18871e-11 -2.42383e-10 4.34861e-10)
(1.20212e-10 -5.17439e-10 7.33611e-10)
(0 0 0)
(0 0 0)
(0 0 0)
(-6.7965e-11 -5.03933e-10 7.11521e-10)
(9.52545e-11 -7.73697e-10 1.00597e-09)
(0 0 0)
(0 0 0)
(0 0 0)
(-5.18474e-11 -7.50406e-10 9.79631e-10)
(1.14968e-10 -1.01522e-09 1.27258e-09)
(0 0 0)
(0 0 0)
(0 0 0)
(-8.43881e-11 -9.82715e-10 1.2425e-09)
(2.47479e-10 -1.27893e-09 1.51688e-09)
(0 0 0)
(0 0 0)
(0 0 0)
(-2.32725e-10 -1.23781e-09 1.48337e-09)
(5.93627e-10 -1.76237e-09 1.6663e-09)
(0 0 0)
(0 0 0)
(0 0 0)
(-5.9274e-10 -1.70957e-09 1.63006e-09)
(8.66547e-10 -2.08777e-09 1.71372e-09)
(5.31082e-10 -1.93956e-09 1.76416e-09)
(-5.4176e-11 -1.79135e-09 1.8001e-09)
(-6.27753e-10 -1.89427e-09 1.74621e-09)
(-9.11302e-10 -2.02329e-09 1.68155e-09)
(-2.38935e-11 2.07637e-11 2.16566e-11)
(0 0 0)
(0 0 0)
(0 0 0)
(5.10163e-11 1.20111e-11 1.99111e-11)
(-2.60117e-11 -9.18772e-11 1.44522e-10)
(0 0 0)
(0 0 0)
(0 0 0)
(8.29219e-11 -1.02981e-10 1.38029e-10)
(-1.10794e-11 -3.61913e-10 3.69172e-10)
(0 0 0)
(0 0 0)
(0 0 0)
(7.07699e-11 -3.61263e-10 3.57224e-10)
(-3.29853e-11 -6.20979e-10 6.16534e-10)
(0 0 0)
(0 0 0)
(0 0 0)
(9.06415e-11 -6.10075e-10 6.00105e-10)
(-5.36977e-11 -8.50123e-10 8.57649e-10)
(0 0 0)
(0 0 0)
(0 0 0)
(1.04891e-10 -8.29609e-10 8.37422e-10)
(-2.87759e-11 -1.04249e-09 1.07725e-09)
(0 0 0)
(0 0 0)
(0 0 0)
(6.93972e-11 -1.01286e-09 1.05366e-09)
(1.08601e-10 -1.23231e-09 1.24597e-09)
(0 0 0)
(0 0 0)
(0 0 0)
(-8.16645e-11 -1.19416e-09 1.21944e-09)
(4.50159e-10 -1.62665e-09 1.3103e-09)
(0 0 0)
(0 0 0)
(0 0 0)
(-4.35346e-10 -1.57666e-09 1.28166e-09)
(7.06867e-10 -1.91793e-09 1.29879e-09)
(4.1932e-10 -1.79287e-09 1.33096e-09)
(-4.53949e-11 -1.65619e-09 1.36917e-09)
(-4.9861e-10 -1.74903e-09 1.31686e-09)
(-7.35704e-10 -1.85576e-09 1.27348e-09)
(-3.9705e-11 9.40294e-14 2.71028e-11)
(0 0 0)
(0 0 0)
(0 0 0)
(6.67252e-11 -9.36136e-12 2.58602e-11)
(-6.74154e-11 -1.32956e-10 1.38526e-10)
(0 0 0)
(0 0 0)
(0 0 0)
(1.24896e-10 -1.45882e-10 1.33966e-10)
(-6.30931e-11 -4.01757e-10 3.22239e-10)
(0 0 0)
(0 0 0)
(0 0 0)
(1.25082e-10 -4.03544e-10 3.13803e-10)
(-8.28873e-11 -6.53149e-10 5.22621e-10)
(0 0 0)
(0 0 0)
(0 0 0)
(1.44803e-10 -6.44956e-10 5.10771e-10)
(-9.68706e-11 -8.60915e-10 7.16571e-10)
(0 0 0)
(0 0 0)
(0 0 0)
(1.5433e-10 -8.43197e-10 7.01646e-10)
(-6.49007e-11 -1.0183e-09 8.83477e-10)
(0 0 0)
(0 0 0)
(0 0 0)
(1.13749e-10 -9.91458e-10 8.65783e-10)
(7.65704e-11 -1.16834e-09 9.96422e-10)
(0 0 0)
(0 0 0)
(0 0 0)
(-3.95581e-11 -1.13285e-09 9.76354e-10)
(4.11656e-10 -1.52569e-09 1.02541e-09)
(0 0 0)
(0 0 0)
(0 0 0)
(-3.85239e-10 -1.47801e-09 1.0037e-09)
(6.58549e-10 -1.80382e-09 9.98379e-10)
(3.88164e-10 -1.69599e-09 1.00538e-09)
(-3.88049e-11 -1.5725e-09 1.02676e-09)
(-4.54146e-10 -1.65319e-09 9.94715e-10)
(-6.74545e-10 -1.74341e-09 9.79215e-10)
(-4.37715e-11 -5.4258e-12 2.55109e-11)
(0 0 0)
(0 0 0)
(0 0 0)
(7.07459e-11 -1.53694e-11 2.4665e-11)
(-7.68774e-11 -1.4147e-10 1.16908e-10)
(0 0 0)
(0 0 0)
(0 0 0)
(1.34782e-10 -1.55756e-10 1.13827e-10)
(-7.2381e-11 -4.0508e-10 2.56933e-10)
(0 0 0)
(0 0 0)
(0 0 0)
(1.35971e-10 -4.08822e-10 2.51224e-10)
(-8.77474e-11 -6.48376e-10 4.05684e-10)
(0 0 0)
(0 0 0)
(0 0 0)
(1.5268e-10 -6.42438e-10 3.97571e-10)
(-9.55534e-11 -8.41721e-10 5.47302e-10)
(0 0 0)
(0 0 0)
(0 0 0)
(1.57562e-10 -8.26346e-10 5.36927e-10)
(-5.7956e-11 -9.80459e-10 6.64468e-10)
(0 0 0)
(0 0 0)
(0 0 0)
(1.12887e-10 -9.55915e-10 6.52009e-10)
(8.5755e-11 -1.11438e-09 7.38045e-10)
(0 0 0)
(0 0 0)
(0 0 0)
(-4.12142e-11 -1.08103e-09 7.23799e-10)
(4.14953e-10 -1.45764e-09 7.52624e-10)
(0 0 0)
(0 0 0)
(0 0 0)
(-3.79802e-10 -1.4118e-09 7.37157e-10)
(6.56287e-10 -1.72852e-09 7.27944e-10)
(3.90599e-10 -1.63041e-09 7.22397e-10)
(-3.39676e-11 -1.51643e-09 7.30809e-10)
(-4.4678e-10 -1.58836e-09 7.14816e-10)
(-6.62695e-10 -1.66949e-09 7.14303e-10)
(-4.4214e-11 -6.18989e-12 1.89003e-11)
(0 0 0)
(0 0 0)
(0 0 0)
(7.11806e-11 -1.64425e-11 1.83771e-11)
(-7.6719e-11 -1.39604e-10 8.27332e-11)
(0 0 0)
(0 0 0)
(0 0 0)
(1.34932e-10 -1.54782e-10 8.08322e-11)
(-6.92946e-11 -3.96303e-10 1.76569e-10)
(0 0 0)
(0 0 0)
(0 0 0)
(1.33947e-10 -4.01392e-10 1.73041e-10)
(-8.05272e-11 -6.31957e-10 2.7396e-10)
(0 0 0)
(0 0 0)
(0 0 0)
(1.47462e-10 -6.27627e-10 2.68913e-10)
(-8.38926e-11 -8.1649e-10 3.65162e-10)
(0 0 0)
(0 0 0)
(0 0 0)
(1.48959e-10 -8.02818e-10 3.58647e-10)
(-4.2731e-11 -9.46965e-10 4.38798e-10)
(0 0 0)
(0 0 0)
(0 0 0)
(1.01799e-10 -9.24096e-10 4.30904e-10)
(1.01915e-10 -1.0759e-09 4.83335e-10)
(0 0 0)
(0 0 0)
(0 0 0)
(-5.22155e-11 -1.04411e-09 4.74251e-10)
(4.26743e-10 -1.41387e-09 4.91044e-10)
(0 0 0)
(0 0 0)
(0 0 0)
(-3.8557e-10 -1.36938e-09 4.81152e-10)
(6.64406e-10 -1.68048e-09 4.74152e-10)
(3.9928e-10 -1.58731e-09 4.66727e-10)
(-3.06652e-11 -1.47882e-09 4.69083e-10)
(-4.48769e-10 -1.5458e-09 4.61888e-10)
(-6.64227e-10 -1.62244e-09 4.65433e-10)
(-4.39831e-11 -5.90406e-12 9.90461e-12)
(0 0 0)
(0 0 0)
(0 0 0)
(7.09568e-11 -1.63279e-11 9.65514e-12)
(-7.53082e-11 -1.36362e-10 4.24885e-11)
(0 0 0)
(0 0 0)
(0 0 0)
(1.33713e-10 -1.52042e-10 4.15824e-11)
(-6.56573e-11 -3.87644e-10 8.93868e-11)
(0 0 0)
(0 0 0)
(0 0 0)
(1.30921e-10 -3.93507e-10 8.77034e-11)
(-7.42663e-11 -6.17981e-10 1.37352e-10)
(0 0 0)
(0 0 0)
(0 0 0)
(1.42347e-10 -6.14598e-10 1.34935e-10)
(-7.50842e-11 -7.97817e-10 1.81772e-10)
(0 0 0)
(0 0 0)
(0 0 0)
(1.41908e-10 -7.85162e-10 1.78636e-10)
(-3.20579e-11 -9.25126e-10 2.17177e-10)
(0 0 0)
(0 0 0)
(0 0 0)
(9.35179e-11 -9.03267e-10 2.13357e-10)
(1.12885e-10 -1.05303e-09 2.38247e-10)
(0 0 0)
(0 0 0)
(0 0 0)
(-6.01863e-11 -1.02219e-09 2.33833e-10)
(4.35076e-10 -1.38912e-09 2.41683e-10)
(0 0 0)
(0 0 0)
(0 0 0)
(-3.90386e-10 -1.34545e-09 2.36867e-10)
(6.70516e-10 -1.65351e-09 2.33369e-10)
(4.05187e-10 -1.56254e-09 2.28941e-10)
(-2.87481e-11 -1.45667e-09 2.2934e-10)
(-4.5079e-10 -1.52134e-09 2.26588e-10)
(-6.66496e-10 -1.59607e-09 2.29125e-10)
(-2.22472e-11 -1.25821e-11 0)
(2.3007e-12 -2.49789e-11 0)
(7.34161e-14 -3.71991e-11 0)
(9.07327e-13 -2.83645e-11 0)
(4.44122e-11 -2.35649e-11 0)
(-2.25313e-11 -1.39439e-10 0)
(7.51208e-12 -1.64689e-10 0)
(2.14559e-12 -1.8625e-10 0)
(3.60112e-12 -1.70158e-10 0)
(6.07342e-11 -1.52095e-10 0)
(-1.44764e-11 -3.83935e-10 0)
(7.77673e-12 -3.97611e-10 0)
(5.44721e-12 -4.11959e-10 0)
(1.04163e-11 -3.99786e-10 0)
(5.99542e-11 -3.88857e-10 0)
(-2.26391e-11 -6.11629e-10 0)
(4.7628e-13 -6.22264e-10 0)
(6.75774e-12 -6.33418e-10 0)
(2.00292e-11 -6.20211e-10 0)
(7.06135e-11 -6.08644e-10 0)
(-2.28353e-11 -7.96847e-10 0)
(-1.73015e-12 -8.23367e-10 0)
(5.45384e-12 -8.42444e-10 0)
(1.95901e-11 -8.16772e-10 0)
(6.89394e-11 -7.85802e-10 0)
(2.21015e-11 -9.42483e-10 0)
(2.78959e-11 -1.00454e-09 0)
(1.51562e-12 -1.03891e-09 0)
(-1.77095e-11 -9.93396e-10 0)
(1.76901e-11 -9.2341e-10 0)
(1.70908e-10 -1.09921e-09 0)
(1.28928e-10 -1.1939e-09 0)
(-5.21124e-12 -1.23089e-09 0)
(-1.31514e-10 -1.17825e-09 0)
(-1.41442e-10 -1.07223e-09 0)
(4.70352e-10 -1.43947e-09 0)
(3.05824e-10 -1.49181e-09 0)
(-1.53313e-11 -1.48027e-09 0)
(-3.26635e-10 -1.46934e-09 0)
(-4.52909e-10 -1.40079e-09 0)
(6.71316e-10 -1.67471e-09 0)
(4.07978e-10 -1.62066e-09 0)
(-2.47356e-11 -1.54101e-09 0)
(-4.45822e-10 -1.5866e-09 0)
(-6.74467e-10 -1.62287e-09 0)
)
;

boundaryField
{
    interface
    {
        type            calculated;
    }
    symmetry
    {
        type            symmetry;
    }
    bottom
    {
        type            calculated;
    }
}


// ************************************************************************* //
