/*--------------------------------*- C++ -*----------------------------------*\
| =========                 |                                                 |
| \\      /  F ield         | OpenFOAM: The Open Source CFD Toolbox           |
|  \\    /   O peration     | Version:  v1912                                 |
|   \\  /    A nd           | Website:  www.openfoam.com                      |
|    \\/     M anipulation  |                                                 |
\*---------------------------------------------------------------------------*/
FoamFile
{
    version     2.0;
    format      ascii;
    class       volScalarField;
    location    "0.38/solid";
    object      sigmaHyd;
}
// * * * * * * * * * * * * * * * * * * * * * * * * * * * * * * * * * * * * * //

dimensions      [1 -1 -2 0 0 0 0];


internalField   nonuniform List<scalar> 
256
(
-721744
-365249
-362600
-704217
-928989
-519193
-515996
-908460
-940593
-534642
-531276
-919234
-949067
-540536
-537032
-927060
-973576
-554036
-550447
-951132
-1.0268e+06
-587391
-583782
-1.00425e+06
-1.17865e+06
-708197
-704320
-1.15582e+06
-1.7584e+06
-1.24829e+06
-1.24053e+06
-1.72599e+06
-336905
-55213.5
-56384.1
-328716
-472024
-137481
-138348
-461824
-483846
-155731
-156519
-473141
-489457
-160432
-161166
-478306
-503460
-164027
-164734
-491918
-536892
-175977
-176689
-525113
-655159
-255801
-256214
-642829
-1.17892e+06
-708212
-704246
-1.15578e+06
-268021
-22688.7
-23957.8
-259740
-365708
-70490.7
-71611
-356062
-374642
-85200.2
-86272.2
-364638
-380435
-90068.2
-91102
-370029
-393750
-93327.3
-94339.8
-382924
-425026
-103221
-104229
-413830
-536890
-175595
-176261
-524853
-1.02707e+06
-587034
-583251
-1.00384e+06
-249810
-23987.3
-25116.9
-241132
-336231
-63117.1
-64142.1
-326523
-343286
-75175.8
-76182.6
-333344
-349005
-79659.4
-80645.2
-338717
-362448
-83131.9
-84104.4
-351746
-393616
-93107.5
-94072.5
-382485
-503016
-163059
-163665
-490883
-972979
-552558
-548683
-949368
-240604
-25678
-26698.9
-231640
-323056
-62146.3
-63090.2
-313274
-329267
-72831.5
-73779.8
-319337
-334812
-76878.7
-77821.9
-324585
-348258
-80356
-81295.2
-337636
-379351
-90418.1
-91352.4
-368282
-487266
-159194
-159764
-475115
-945062
-536617
-532684
-921253
-235052
-26632.9
-27576.8
-225869
-315703
-61990.8
-62877.2
-305834
-321564
-72023
-72929
-311599
-326975
-75782.7
-76695.2
-316747
-340365
-79207.3
-80123.8
-329764
-371366
-89309
-90224.5
-360312
-478353
-157468
-158017
-466179
-928570
-527689
-523724
-904630
-231808
-27167.8
-28062
-222476
-311543
-61999.4
-62848.1
-301600
-317258
-71730.3
-72607.6
-307249
-322588
-75334.5
-76225.6
-312338
-335926
-78716.3
-79616.9
-325316
-366854
-88838.7
-89741.6
-355795
-473295
-156670
-157207
-461097
-919002
-522677
-518693
-894978
-230301
-27411.1
-28280.7
-220894
-309632
-62023.3
-62853.2
-299649
-315292
-71634.8
-72497.5
-305256
-320586
-75172.9
-76052.9
-310319
-333895
-78533.9
-79426.2
-323275
-364786
-88665.9
-89562.3
-353717
-470973
-156353
-156884
-458759
-914559
-520387
-516394
-890491
)
;

boundaryField
{
    interface
    {
        type            zeroGradient;
    }
    symmetry
    {
        type            symmetry;
    }
    bottom
    {
        type            zeroGradient;
    }
}


// ************************************************************************* //
