/*--------------------------------*- C++ -*----------------------------------*\
| =========                 |                                                 |
| \\      /  F ield         | OpenFOAM: The Open Source CFD Toolbox           |
|  \\    /   O peration     | Version:  v1912                                 |
|   \\  /    A nd           | Website:  www.openfoam.com                      |
|    \\/     M anipulation  |                                                 |
\*---------------------------------------------------------------------------*/
FoamFile
{
    version     2.0;
    format      ascii;
    class       volScalarField;
    location    "0.38/solid";
    object      sigmaEq;
}
// * * * * * * * * * * * * * * * * * * * * * * * * * * * * * * * * * * * * * //

dimensions      [1 -1 -2 0 0 0 0];


internalField   nonuniform List<scalar> 
256
(
571175
431212
426795
552461
368445
337679
333346
352260
377370
332364
327996
361404
397077
340031
335697
381269
415714
353960
349638
399964
430640
371455
367119
414893
384084
364265
360287
369552
33922.7
404047
400889
37116.7
377506
81300.2
79384.9
357417
300910
77041.7
75044.1
282185
300789
61449.7
59765.5
282166
308132
47899.1
46479.9
289360
320491
42610.9
41349.5
301450
337830
41939.7
40760.9
318551
332124
8556.07
10016
313626
383971
364472
360572
369661
331901
45244.5
44039
312995
290942
52366.3
50192.7
272612
293226
43969.2
41759
274538
300034
33164.2
30923
280967
312232
28418.9
26126.9
292723
331283
29711.7
27443.3
311376
337601
40544.6
39665.3
318447
430601
371922
367737
415402
302385
39101.2
38075.2
284730
269824
44685.2
42823.4
252525
273560
38350.3
36338.8
255653
280559
29474.8
27378.6
262106
292659
25369.4
23168
273646
311745
26831
24595.3
292227
319898
38628.1
37866.4
301072
416893
355214
351133
402121
285245
35172.3
34030.5
268457
255084
40380.1
38681.9
238535
259690
35311
33479.8
242431
267097
27665.1
25717.6
249182
279358
24196.6
22099.6
260798
298437
25824.3
23663.8
279303
306963
37135.9
36521.9
288492
402549
342357
338371
388200
275280
32726.6
31466.5
259056
246098
37955.7
36322.6
230029
251170
33672.4
31937.3
234345
258901
26710.5
24846.3
241358
271335
23602.5
21559.1
253089
290417
25479.1
23371.5
271551
299036
36856.8
36350.7
280822
392977
334052
330130
378942
269664
31272.8
29933.4
253780
240977
36564
34957.3
225196
246276
32686.3
30994.6
229717
254201
26092.7
24270.2
236890
266741
23161
21147.5
248695
285819
25225
23153.8
267123
294472
36874.4
36440.8
276423
387350
329116
325236
373524
267108
30578.8
29200.1
251384
238643
35902.2
34305.4
222999
244032
32191.2
30516.3
227601
252044
25761.1
23956.2
234846
264631
22905.5
20906.8
246682
283702
25059.8
23007.8
265089
292370
36907.4
36511.2
274403
384765
326818
322958
371042
)
;

boundaryField
{
    interface
    {
        type            calculated;
        value           nonuniform List<scalar> 
192
(
763840
544528
558067
584647
611585
638392
611133
328964
634577
534573
539472
556763
581597
616338
633842
611139
566528
506163
513301
529372
553623
589701
616474
638700
518921
469114
477937
493945
517851
553745
582136
613530
490727
444203
453939
470237
494170
529911
558554
591879
474123
428994
439175
455735
479769
515398
543956
577701
464716
420291
430679
447399
471504
507047
535473
569339
460430
416318
426787
443580
467716
503210
531555
565472
789164
572562
586278
613251
640621
668009
643829
383083
718691
599069
599038
616540
642696
677758
694517
662323
710982
591284
591016
608441
634552
669542
686500
656253
765538
551757
565234
592110
619411
646663
623372
374600
735578
517672
531147
557675
584525
611307
585329
313303
601777
502891
507463
524240
548497
582744
601042
585437
534971
474959
481416
496767
520233
555553
582831
611899
488921
439188
447114
462247
485231
520204
548893
586992
461846
415238
423969
439284
462200
496916
525730
565671
445967
400651
409771
425282
448232
482767
511418
551735
436994
392323
401621
417257
440237
474641
503115
543534
432911
388528
397894
413586
436578
470912
499284
539748
383326
643925
668345
642630
620736
606350
597841
593901
662503
694918
678708
645068
621523
606521
597614
593456
656412
686924
670551
637027
613564
598615
589740
585598
374726
623557
647355
622109
600613
586519
578202
574358
)
;
    }
    symmetry
    {
        type            symmetry;
    }
    bottom
    {
        type            calculated;
        value           nonuniform List<scalar> 
32
(
773911
456357
384323
350537
331986
321129
314966
312154
518720
100823
50354
44915.2
42010.4
39903.6
38555.1
37899.7
514127
98333.2
48257.3
42969.5
39973.5
37786.6
36388.4
35709.1
753079
434881
364328
332111
314662
304524
298793
296183
)
;
    }
}


// ************************************************************************* //
