/*--------------------------------*- C++ -*----------------------------------*\
| =========                 |                                                 |
| \\      /  F ield         | OpenFOAM: The Open Source CFD Toolbox           |
|  \\    /   O peration     | Version:  v1912                                 |
|   \\  /    A nd           | Website:  www.openfoam.com                      |
|    \\/     M anipulation  |                                                 |
\*---------------------------------------------------------------------------*/
FoamFile
{
    version     2.0;
    format      ascii;
    class       volSymmTensorField;
    location    "0.38/solid";
    object      sigma;
}
// * * * * * * * * * * * * * * * * * * * * * * * * * * * * * * * * * * * * * //

dimensions      [1 -1 -2 0 0 0 0];


internalField   nonuniform List<symmTensor> 
256
(
(-274049 14634 -5486.13 285060 15099.5 -295114)
(26889.6 -9898.1 -2095.83 181571 15339.1 -304409)
(27746.1 12726 2110.75 179831 15684.4 -300649)
(-255538 -13025.6 5623.11 282565 16371.7 -280832)
(-310240 -1920.06 -7836.28 48136.7 -1584.9 -329101)
(-53689.2 -3965.3 -3288.4 21649.4 -629.606 -347213)
(-52544 6273.92 3433.1 20231.2 -383.01 -343255)
(-289932 2930.01 8085.74 49458.4 -701.964 -313820)
(-312232 -2853.62 -8307.26 55189.7 -2887.75 -330766)
(-58685.3 -2317.17 -3559.83 6901.96 -2661.94 -353251)
(-57580.9 4080.59 3763.04 5631.15 -2495.14 -349199)
(-291563 3583.83 8589.69 57077.7 -2276.07 -315168)
(-315040 -1285.26 -8527.87 71375.8 -1610.21 -335026)
(-52133.5 -1302.16 -3659.38 6106.02 -1587.56 -359204)
(-51023.6 2603.97 3868.16 5001.59 -1463.67 -355075)
(-294048 1832.12 8817.62 73709 -1146.82 -319179)
(-326540 8.77855 -8638.8 77854.7 -144.02 -347821)
(-49832.4 -513.818 -3708.44 5727.42 -103.073 -372667)
(-48698.1 1435.59 3907.63 4706.65 1.49639 -368486)
(-305299 380 8931.2 80457.3 241.406 -331796)
(-350845 1616.54 -8630.82 68344.7 1906.01 -372375)
(-57062.9 337.79 -3708.34 -3528.2 1995.78 -398774)
(-55957.3 221.83 3904.14 -4529.06 2096.49 -394569)
(-329586 -1417.72 8930.62 71023 2257.83 -356239)
(-396443 5248.55 -8449.36 -23981.3 5739.52 -417767)
(-85072.2 1796.84 -3628.38 -86138.4 6007.13 -449653)
(-84067.1 -1708.18 3839.84 -86618.8 6113.75 -445394)
(-375609 -5336.23 8761.85 -20230.5 6078.21 -401443)
(-371283 8049.3 -7980.25 -394172 9001.75 -394099)
(-31348.4 3513.15 -3422.59 -435058 9480.41 -434887)
(-30144.2 -3592.68 3647.51 -430687 9577.83 -430495)
(-351150 -8270.12 8281.74 -377801 9277.42 -377734)
(-272101 10164.6 -3936.83 153418 -12905.6 17178.7)
(-27966.6 -10114.3 -749.502 48014.1 -5583.5 -33310.1)
(-27714.9 11591.9 1035.38 45287.2 -4755.31 -34001.9)
(-253673 -9067.47 4133.16 149498 -10326.3 20160)
(-311126 -2378.44 -5508.13 16113.6 -4315.93 -47162.1)
(-99793.8 -4151.78 -1642.05 -23787.9 -809.183 -101046)
(-99040.3 5249.07 2152.52 -25989.7 -264.656 -101663)
(-290813 2857.66 5821.3 16091.5 -2506.8 -43336.3)
(-316635 -2937.74 -5585.69 9197.96 -3385.04 -50303.3)
(-111499 -2550.24 -1715.12 -51254.7 -2239.01 -113168)
(-110761 3323.29 2284.41 -53121.3 -1843.88 -113897)
(-295929 3236.93 5924.47 10061 -2017.12 -46774.8)
(-321365 -1407.21 -5595.38 11850.6 -2953.79 -47309.8)
(-109219 -1541.43 -1662.24 -64406.1 -2558.46 -114256)
(-108478 2068.87 2217.91 -66100.1 -2242.62 -115052)
(-300285 1625.89 5934.11 13152 -1849.74 -43951.4)
(-333819 -61.3274 -5632.96 12384.4 -1229.69 -47923.6)
(-108495 -722.54 -1658.73 -70306.2 -1042.19 -116024)
(-107728 1038.01 2186.97 -71952.2 -769.589 -116868)
(-312363 198.046 5969.52 13885.8 -291.317 -44661.5)
(-359855 1674.35 -5592.3 3165.59 1352.26 -55124.2)
(-116123 197.854 -1643.34 -78492 1442.16 -123431)
(-115376 -108.869 2155.56 -80125.2 1684.16 -124340)
(-338156 -1671.86 5932.72 4747.56 2167.53 -51988.1)
(-410879 5494.08 -5402.17 -78750.2 3679.89 -79420.1)
(-144932 1744.81 -1578.68 -148548 3766.49 -148796)
(-144271 -1961.52 2063.11 -149588 3960.19 -149714)
(-389348 -5724.09 5736.92 -75934 4325.83 -76318.2)
(-396653 8490.14 -5112.91 -417835 5830.38 -24229)
(-85109.5 3681.17 -1547.64 -449758 6072.93 -85899.6)
(-84068.7 -3806.41 1872.39 -445477 6173.96 -86217.3)
(-375630 -8756.68 5365.22 -401391 6143.95 -20105.4)
(-233972 7363.82 -1750.31 122543 525.589 65359.3)
(-22891.9 -10898.5 -11.0897 22050.3 6468.15 6677.04)
(-22592.6 11601.7 294.595 19502.2 7128.91 5798.9)
(-215496 -6598.19 1855.35 119761 2562.75 68353.6)
(-261033 -2366.73 -2195.65 28593.2 2337.67 31044)
(-72100.4 -4326.99 -274.875 -14289.7 5322.18 -33484)
(-71332.3 4804.99 758.21 -16497.3 5875.77 -34450.1)
(-240868 2601.75 2392.73 28654.4 4097.04 34419.9)
(-265705 -2761.7 -1973.27 29193.2 959.636 25691.6)
(-81662.4 -2598.59 -199.527 -32359.9 2027.58 -48206.2)
(-80902.9 2870.01 703.875 -34271.4 2488.87 -49331.1)
(-245171 2861.03 2187.2 29921.3 2453.12 28601.2)
(-270632 -1404.97 -1842.49 32013 -202.676 26666.5)
(-80118.4 -1640.08 -101.206 -43857.9 191.123 -51715)
(-79348.5 1776.41 569.955 -45605.7 587.127 -52947.3)
(-249703 1468.86 2047.37 33136.4 1083.95 29271.1)
(-282958 -77.2811 -1821.17 32088.9 241.023 26347.7)
(-79894.8 -826.82 -81.6102 -49870.9 419.564 -53526.9)
(-79085.9 854.474 511.561 -51567.8 767.726 -54841.7)
(-261573 102.517 2015.33 33427.7 1361.59 28755.6)
(-308778 1765.15 -1784.01 24055.1 1569.82 20853.3)
(-87550.6 161.113 -77.6699 -56799.3 1632.61 -59311.8)
(-86741.4 -259.941 475.874 -58464.2 1931.96 -60713.3)
(-286984 -1833.76 1970.84 25547.4 2526.85 23091.2)
(-359889 5672.61 -1656.98 -53561.8 2037.05 1792.02)
(-115667 1777.76 -53.1601 -122171 2066.26 -79045.8)
(-114914 -2083.17 382.597 -123209 2285.63 -80427.3)
(-337992 -5936.11 1820.66 -50722 2751.24 4079.36)
(-351094 8658.83 -1523.1 -372273 2288.21 68238)
(-56664.4 3741.99 -65.886 -398618 2330.74 -2767.17)
(-55515.1 -3878.43 163.009 -394353 2415.21 -3439.59)
(-329434 -8932.49 1587.27 -355897 2567.01 71781.6)
(-212378 6081.85 -708.403 109562 4530.49 64903)
(-22055.9 -11089.4 271.906 11974.6 8011.7 4891.24)
(-21744 11353.6 -11.0665 9720.49 8497.72 4179.49)
(-194035 -5557.04 780.533 108008 6024.01 68543.9)
(-234935 -2262.25 -807.644 26586.5 5269.59 42146)
(-63469.6 -4346.35 337.95 -18399.4 7101.45 -24656.8)
(-62718.7 4484.32 112.76 -20416.5 7558.78 -25444.1)
(-215048 2360.87 954.329 27173 6688.6 46105.2)
(-239095 -2540.44 -578.822 31604.2 3795.56 37011.7)
(-71450.3 -2554.7 458.02 -30856.3 4505.44 -38754.4)
(-70699.7 2560.57 5.7763 -32671.1 4921.23 -39703.8)
(-218860 2539.36 739.321 32545.6 5097.86 40468.2)
(-244193 -1328.61 -432.207 37312.3 2101.06 35341.1)
(-70154.5 -1648.95 545.473 -38521.6 2390.07 -44741.4)
(-69387.2 1587.08 -123.617 -40215.1 2766.29 -45813.8)
(-223555 1316.44 581.077 38522.4 3283.29 38432.6)
(-256610 -68.5921 -393.412 38813.4 1342.44 33183.4)
(-70381.5 -868.035 560.525 -42889.3 1500.13 -48462.8)
(-69569.9 762.258 -184.606 -44543.5 1836.88 -49637.2)
(-235476 43.115 526.799 40207.9 2396.29 36017.6)
(-282443 1804.06 -383.292 31121.8 1208.69 27400.8)
(-78441.9 144.819 544.954 -49537.4 1294.3 -54645.1)
(-77620.6 -316.118 -214.841 -51158.7 1579.5 -55914.2)
(-260809 -1897.81 501.202 32687.5 2102.95 30045.9)
(-333267 5741.06 -342.897 -45086.1 641.982 10692.5)
(-106393 1793.36 525.877 -113519 697.661 -71980.8)
(-105611 -2126.14 -284.209 -114514 897.64 -73209.1)
(-311356 -6010.01 428.824 -42147.6 1288.64 13447.8)
(-326076 8691.06 -298.431 -347224 821.303 79565.9)
(-47471.7 3743.18 486.413 -371940 829.051 7485.34)
(-46276.6 -3894.34 -474.528 -367653 897.068 7007.36)
(-304149 -8969.63 288.281 -330794 1052.49 83681.8)
(-199820 5545.73 -313.36 103567 4576.6 62220.6)
(-22035.9 -10982.3 256.921 7551.91 6426.31 2483.67)
(-21733.1 10994 -46.8319 5539.91 6773.2 1901.91)
(-181587 -5180.24 371.014 102978 5634.1 66334.9)
(-220740 -2170.91 -328.507 24050.1 5134.01 43192)
(-60705.4 -4290.95 392.027 -21981.5 6156.12 -22999.4)
(-60000 4232.22 -16.4217 -23822 6497.78 -23628.3)
(-201073 2187.31 448.356 25152 6180.64 47635.6)
(-224758 -2384.23 -179.711 30219.5 4319.14 39133.9)
(-68013.1 -2504.01 490.52 -32590.5 4747.68 -35515.3)
(-67303.5 2358.01 -97.1594 -34308 5073.74 -36299.4)
(-204754 2327.13 312.8 31432.6 5326.11 43082.6)
(-230000 -1254.26 -75.7812 37626.6 2923.35 36448.7)
(-66861.1 -1637.55 546.889 -38011.6 3123.34 -42290.7)
(-66129.9 1465.3 -188.656 -39656 3429.25 -43202.1)
(-209589 1200.87 199.019 38972.2 3872.67 40012.9)
(-242502 -54.5838 -43.6825 40423.7 1754.43 33112.1)
(-67356.2 -886.822 551.151 -40954 1893.36 -47180.9)
(-66578.4 709.958 -237.486 -42581.5 2171.71 -48202.6)
(-221575 2.61403 151.243 41889.6 2618.22 36389.5)
(-268300 1811.31 -47.0506 33100.1 908.202 27039.8)
(-75661.7 129.4 526.872 -47304.9 1017.66 -53748.6)
(-74869.8 -337.708 -262.809 -48910.6 1252.56 -54868.1)
(-246824 -1917.17 136.616 34715.2 1642.79 30117.7)
(-318727 5755.92 -48.8212 -41933.1 65.9734 11152.7)
(-103533 1794.95 490.982 -110229 156.72 -70343.5)
(-102769 -2144.61 -313.357 -111217 318.547 -71413.2)
(-296872 -6027.98 105.973 -38950.9 591.534 14365.1)
(-311866 8683.18 -50.6747 -332663 309.932 79599.3)
(-44699.4 3732.29 436.691 -356998 334.473 8955.49)
(-43509.6 -3899.73 -453.765 -352701 387.845 8651.71)
(-289825 -8969.2 25.4641 -316184 493.472 84211.6)
(-192239 5306.5 -165.92 100494 3589.8 60835.4)
(-22167.9 -10848.2 163.068 5170.25 4547.5 1264.88)
(-21870.8 10713.8 -12.5796 3334.61 4780.06 769.218)
(-174050 -5039.42 209.099 100598 4291.38 65279.8)
(-212447 -2110.28 -169.184 22726 3898.02 43073.2)
(-59684.7 -4238.53 263.62 -24009.1 4452.76 -22547)
(-59014.2 4064.94 13.2204 -25716.2 4685.96 -23069.8)
(-192894 2077.76 260.143 24240.6 4606.13 47870.2)
(-216447 -2295.07 -87.3118 29002.2 3514.81 39879.9)
(-66739.5 -2473.44 325.464 -34125.2 3768.77 -33855.7)
(-66062.5 2237.17 -29.0677 -35764 3997.08 -34526)
(-196564 2205.1 190.042 30465.5 4215.23 44201.7)
(-221783 -1207.53 -28.3283 36973.2 2602.4 37166.8)
(-65684.2 -1632.02 354.931 -38688.5 2739.8 -40525.1)
(-64982.6 1392.78 -82.2 -40292.7 2958.97 -41322.4)
(-201490 1129.67 124.49 38461.1 3279.67 41102.9)
(-234329 -45.6981 -9.72681 40435.8 1589.65 33411.3)
(-66329.9 -900.186 351.911 -40898.7 1702.1 -45834.6)
(-65580.1 678.439 -114.603 -42508.7 1904.21 -46745.1)
(-213510 -22.6508 93.2771 41979.1 2216.12 37048.8)
(-260063 1809.16 -16.2497 33479.7 700.586 27083)
(-74769.7 116.445 329.814 -46935.1 804.87 -52741)
(-74003.3 -351.05 -134.899 -48536.6 975.895 -53751.1)
(-238667 -1923.68 84.1107 35138.4 1236.84 30513.6)
(-310140 5760.57 -27.0706 -40484.2 -29.2341 11202.5)
(-102600 1796.97 298.125 -108881 66.4621 -69424.6)
(-101856 -2162.2 -173.043 -109873 183.857 -70382.7)
(-288305 -6036.85 68.2575 -37472.7 354.53 14772.2)
(-303160 8681.12 -41.2627 -323601 137.482 78909.1)
(-43668.2 3729.75 247.542 -348004 176.47 9305.48)
(-42488.9 -3911.83 -268.268 -343704 215.059 9120.47)
(-281028 -8975.06 20.0918 -307083 271.058 83894.2)
(-187834 5184.61 -89.9078 98883.1 2251.72 60250.5)
(-22273.9 -10763.9 82.4732 3821.79 2716.45 648.396)
(-21978.5 10549.5 7.45669 2100.11 2850.14 206.066)
(-169654 -4973.67 116.532 99431.9 2651.66 64905.9)
(-207688 -2078.38 -94.8355 22119.1 2377.32 42978.7)
(-59243 -4208.91 135.848 -25111.8 2656.58 -22458)
(-58592.6 3971.85 32.6742 -26730.9 2791.71 -22915.2)
(-188187 2018.68 151.493 23914.6 2785.08 48007.7)
(-211697 -2250.23 -55.6613 28324.3 2199.04 40278)
(-66200.6 -2460.03 167.588 -35095.8 2337.14 -33094.2)
(-65542.8 2172.34 15.8565 -36679.9 2471.18 -33693.2)
(-191870 2141.7 120.515 29971.6 2608.75 44850.2)
(-217083 -1184.26 -27.4991 36387.9 1701.86 37791.7)
(-65200.9 -1632.75 180.523 -39418 1785.51 -39479.6)
(-64516.5 1353.53 -9.95243 -40992.9 1915.91 -40204.3)
(-196844 1091.94 88.8652 37989.2 2104.21 41982.9)
(-229643 -42.3635 -19.2655 40097.7 1067.59 33981.1)
(-65923.8 -910.484 176.081 -41350.9 1141.63 -44858.4)
(-65190.3 659.91 -27.6429 -42948.3 1263 -45697.2)
(-208872 -36.4222 72.7141 41706.2 1444.05 37869.5)
(-255319 1806.74 -24.2601 33397.8 466.615 27472.8)
(-74436.3 108.193 161.698 -47161.4 539.134 -52002.5)
(-73684.7 -361.861 -41.0818 -48760.8 642.271 -52942.2)
(-233956 -1927.7 67.3331 35092.9 790.959 31148.9)
(-305152 5766.62 -31.9246 -39794.7 -1.29272 11382.7)
(-102249 1801.76 142.06 -108381 67.7843 -68959.6)
(-101516 -2179.62 -66.1686 -109376 138.669 -69847.4)
(-283317 -6046.95 57.7661 -36760.9 231.583 15196)
(-297967 8688.4 -43.311 -318206 69.4941 78574.4)
(-43153.9 3734.11 107.703 -342776 102.729 9383.99)
(-41980.7 -3927.06 -121.657 -338474 126.06 9273.23)
(-275771 -8988.63 30.493 -301658 150.625 83810.3)
(-185792 5128.5 -29.2632 98180.6 764.699 60047.7)
(-22321.3 -10727.5 24.6229 3201.89 904.942 379.841)
(-22026 10477.9 5.25812 1535.95 948.546 -36.7013)
(-167612 -4943.02 38.219 98945.3 894.558 64806.2)
(-205488 -2066.02 -31.9194 21882 795.632 42966.8)
(-59054.5 -4197.21 40.6941 -25610.5 881.599 -22460.3)
(-58413.3 3932.01 15.8041 -27186.1 925.817 -22885.9)
(-186007 1994.24 51.0942 23818.6 928.624 48110.7)
(-209503 -2232.05 -20.4661 28036.3 741.019 40478.4)
(-65976 -2455.69 50.2804 -35557.9 785.407 -32812)
(-65326.8 2144.6 11.7479 -37114.2 829.519 -33376.3)
(-189698 2115.14 42.5749 29779.7 875.613 45176.4)
(-214909 -1175.24 -12.2834 36085.7 583.891 38149.5)
(-65000.2 -1634.66 53.8263 -39832.2 612.332 -39021.7)
(-64323.6 1336.49 4.20046 -41391.6 655.511 -39710.6)
(-194690 1076.1 33.3317 37748.8 717.044 42470.2)
(-227472 -41.6704 -10.0974 39863.9 372.338 34367)
(-65755 -916.194 51.9231 -41685.8 398.22 -44384.3)
(-65028.8 651.184 -1.35171 -43276.3 438.598 -45187.7)
(-206719 -42.3332 28.4745 41509.2 497.653 38383.7)
(-253116 1805.72 -11.8862 33286.2 165.763 27771.2)
(-74299.9 104.449 47.026 -47386.9 191.459 -51644.8)
(-73554.9 -368.337 -6.07118 -48985.1 225.867 -52549.7)
(-231763 -1930.18 26.6683 35002.4 274.146 31572.7)
(-302826 5771.5 -14.3918 -39514.9 6.63393 11533.5)
(-102107 1805.68 40.5442 -108230 31.3741 -68778.2)
(-101380 -2190.61 -14.924 -109227 55.0562 -69631.6)
(-280987 -6054.22 23.2494 -36468.5 84.6325 15470.4)
(-295508 8695.44 -18.4386 -315672 22.8232 78483.5)
(-42901.5 3738.44 28.5232 -340353 35.484 9394.98)
(-41730.9 -3937.16 -33.2153 -336050 43.2845 9320.35)
(-273278 -8999.11 14.2238 -299108 50.0148 83846.3)
)
;

boundaryField
{
    interface
    {
        type            calculated;
        value           nonuniform List<symmTensor> 
192
(
(-52.7369 0.323981 3.35251 864765 15099.5 284591)
(-54.6803 0.144504 5.16832 624193 -1584.9 246955)
(-55.8369 -0.202255 5.59228 639791 -2887.75 253836)
(-56.563 -0.603115 5.61829 669977 -1610.21 263576)
(-56.6023 -0.944254 5.47018 700773 -144.02 275097)
(-57.3406 -1.58976 5.25886 732023 1906.01 291303)
(-55.5511 -2.05377 4.78125 703873 5739.52 310087)
(-58.9289 -4.42437 4.39292 328500 9001.75 328572)
(-51.2387 0.214866 1.68925 691179 -12905.6 554940)
(-52.2037 0.044435 2.78168 563290 -4315.93 500014)
(-52.8803 -0.277284 2.98069 566671 -3385.04 507170)
(-53.3882 -0.698787 2.93934 583903 -2953.79 524743)
(-53.2478 -1.06963 2.79678 609344 -1229.69 549036)
(-53.954 -1.79208 2.61741 643354 1352.26 585064)
(-51.9339 -2.31045 2.30828 634092 3679.89 633422)
(-55.5761 -4.82178 2.05097 310285 5830.38 703891)
(-54.0599 0.180668 1.34935 592896 525.589 535713)
(-54.9263 -0.000870648 2.20212 504862 2337.67 507313)
(-55.6036 -0.330656 2.35456 514984 959.636 511483)
(-56.1142 -0.789515 2.31878 531968 -202.676 526622)
(-55.862 -1.20749 2.204 556415 241.023 550674)
(-56.464 -2.01872 2.05769 591233 1569.82 588031)
(-53.9586 -2.62025 1.82454 586866 2037.05 642220)
(-57.395 -5.31669 1.61788 291922 2288.21 732433)
(-54.1972 0.130258 0.846724 539694 4530.49 495035)
(-54.8676 -0.0694978 1.44653 460997 5269.59 476557)
(-55.3973 -0.403946 1.54702 475110 3795.56 480517)
(-55.8238 -0.879488 1.51048 494859 2101.06 492887)
(-55.4746 -1.32113 1.41989 520582 1342.44 514952)
(-56.022 -2.17357 1.30925 555536 1208.69 551815)
(-53.3584 -2.81256 1.15536 552185 641.982 607963)
(-56.7835 -5.56497 1.02202 276247 821.303 703037)
(-55.0239 0.107965 0.626706 509973 4576.6 468626)
(-55.6327 -0.10975 1.06877 434178 5134.01 453320)
(-56.0975 -0.456809 1.14366 449299 4319.14 458213)
(-56.4836 -0.950237 1.11658 470741 2923.35 469563)
(-56.0606 -1.41539 1.04958 497720 1754.43 490409)
(-56.5371 -2.30299 0.966547 532856 908.202 526796)
(-53.6901 -2.97703 0.856231 530062 65.9734 583148)
(-56.9975 -5.78144 0.757444 265882 309.932 678144)
(-55.2072 0.0895512 0.390054 492610 3589.8 452952)
(-55.7619 -0.142212 0.681729 418349 3898.02 438696)
(-56.1678 -0.498627 0.731337 433537 3514.81 444415)
(-56.5164 -1.00277 0.711818 455559 2602.4 455752)
(-56.0454 -1.48156 0.666235 483179 1589.65 476154)
(-56.4846 -2.38796 0.610453 518509 700.586 512112)
(-53.5537 -3.08076 0.540691 516214 -29.2341 567901)
(-56.826 -5.91283 0.479048 259370 137.482 661880)
(-55.4764 0.0812676 0.230665 482754 2251.72 444122)
(-56.0125 -0.160327 0.401917 409397 2377.32 430256)
(-56.3873 -0.524818 0.431413 424504 2199.04 436458)
(-56.7151 -1.03718 0.420053 446629 1701.86 448033)
(-56.2116 -1.52616 0.393545 474473 1067.59 468357)
(-56.6188 -2.4456 0.360397 509926 466.615 504001)
(-53.6196 -3.15182 0.320278 507993 -1.29272 559170)
(-56.8483 -6.00374 0.283171 255503 69.4941 652283)
(-55.532 0.0756143 0.0694508 478253 764.699 440120)
(-56.0543 -0.170709 0.124609 405317 795.632 426402)
(-56.4116 -0.538462 0.13415 420371 741.019 432813)
(-56.728 -1.05395 0.130213 442487 583.891 444550)
(-56.2118 -1.54726 0.121597 470384 372.338 464887)
(-56.6053 -2.4718 0.110793 505888 165.763 500373)
(-53.5864 -3.18423 0.0985306 504135 6.63393 555184)
(-56.7937 -6.04467 0.086697 253687 22.8232 647843)
(343069 14634 -4.94383 902177 -0.935459 -21.5372)
(301930 -1920.06 -7.93044 660306 -0.940572 -16.6911)
(308666 -2853.62 -8.70932 676088 -0.650859 -13.6074)
(320671 -1285.26 -8.85989 707086 -0.448218 -12.8772)
(334207 8.77855 -8.83172 738602 -0.376209 -13.3099)
(351138 1616.54 -8.81278 770328 -0.431645 -14.6197)
(370876 5248.55 -8.78741 743338 -0.527776 -17.0845)
(393740 8049.3 -9.35627 370852 -0.741737 -19.3118)
(628520 -9898.1 -3.29312 783201 -0.508706 -27.5089)
(557770 -3965.3 -5.84141 633109 -0.595789 -26.4269)
(563507 -2317.17 -6.42745 629094 -0.385711 -25.5668)
(585324 -1302.16 -6.5017 643563 -0.186557 -25.4335)
(613086 -513.818 -6.48489 668646 -0.0690516 -25.6369)
(649377 337.79 -6.52741 702911 -0.017565 -26.1424)
(695015 1796.84 -6.67212 693949 -0.0252058 -26.9444)
(764321 3513.15 -7.47133 360611 -0.105136 -27.5507)
(622262 12726 -3.4881 774346 -0.317345 -24.2966)
(551404 6273.92 -6.17778 624179 -0.382258 -23.4844)
(556804 4080.59 -6.83453 620016 -0.218053 -22.7226)
(578451 2603.97 -6.92477 634477 -0.0197392 -22.5729)
(606135 1435.59 -6.88779 659539 0.127088 -22.7941)
(642322 221.83 -6.87633 693750 0.250855 -23.2667)
(687742 -1708.18 -6.92937 685190 0.330762 -24.1463)
(757295 -3592.68 -7.64128 356752 0.342776 -25.1064)
(337861 -13025.6 -4.09647 875964 -0.232726 -24.9542)
(297207 2930.01 -7.25555 636598 -0.261225 -24.4577)
(303451 3583.83 -8.06782 652092 -0.104712 -23.8618)
(315247 1832.12 -8.19412 683004 0.101913 -23.7826)
(328695 380 -8.13666 714451 0.259888 -23.9927)
(345383 -1417.72 -8.10281 745992 0.423912 -24.2996)
(364307 -5336.23 -8.04224 719685 0.555241 -24.8887)
(386913 -8270.12 -8.74404 360263 0.703744 -25.5415)
(-11.1127 0.939987 1.6307 831422 16371.7 268026)
(-6.88999 0.786934 2.80798 592734 -701.964 229456)
(-4.36902 0.192112 3.06256 608228 -2276.07 235982)
(-3.41874 -0.373965 3.09783 638286 -1146.82 245397)
(-3.5897 -0.688911 3.06917 668945 241.406 256692)
(-2.68662 -1.17663 3.17088 700214 2257.83 272952)
(-4.40631 -1.17981 3.1503 673827 6078.21 292615)
(4.80106 -3.52066 3.57329 312862 9277.42 312929)
(-18.3859 0.341526 0.0986854 655641 -10326.3 526303)
(-17.4921 0.234904 0.526352 529928 -2506.8 470500)
(-16.867 -0.105347 0.543112 533460 -2017.12 476624)
(-16.3597 -0.483003 0.520615 550427 -1849.74 493324)
(-16.3986 -0.653091 0.53491 575405 -291.317 516858)
(-14.7565 -1.03815 0.698424 609010 2167.53 552275)
(-15.3182 -0.790361 0.861299 601172 4325.83 600788)
(-4.33586 -3.1066 1.26323 292664 6143.95 673949)
(-18.4104 0.175825 0.337567 558782 2562.75 507375)
(-17.7254 0.0414733 0.83623 471979 4097.04 477745)
(-17.1734 -0.205801 0.939113 482039 2453.12 480719)
(-16.541 -0.518765 0.955034 498668 1083.95 494803)
(-16.4441 -0.622007 0.970118 522532 1361.59 517860)
(-14.3686 -0.970096 1.0711 556745 2526.85 554289)
(-14.6329 -0.620715 1.14114 553461 2751.24 608262)
(-2.43356 -3.12575 1.30713 273209 2567.01 700888)
(-20.2705 0.0752307 0.177891 507325 6024.01 467861)
(-19.8932 -0.0793565 0.574794 429243 6688.6 448175)
(-19.5718 -0.272425 0.66702 442993 5097.86 450916)
(-18.9226 -0.529915 0.683208 462238 3283.29 462148)
(-18.7082 -0.567737 0.69461 487276 2396.29 483086)
(-16.2298 -0.870428 0.765084 521491 2102.95 518850)
(-16.0844 -0.441199 0.809524 518959 1288.64 574554)
(-3.00475 -3.0256 0.905798 257210 1052.49 671685)
(-20.4828 0.0588776 0.22958 478952 5634.1 442309)
(-20.1121 -0.107877 0.565715 403381 6180.64 425865)
(-19.7854 -0.289494 0.655366 417904 5326.11 429554)
(-19.0601 -0.533067 0.674096 438693 3872.67 439734)
(-18.7667 -0.546209 0.678936 464884 2618.22 459384)
(-16.0765 -0.83647 0.713577 499174 1642.79 494577)
(-15.787 -0.378491 0.720002 497023 591.534 550339)
(-2.20893 -3.05227 0.746451 246729 493.472 647125)
(-21.006 0.0513944 0.147639 462493 4291.38 427174)
(-20.6543 -0.121072 0.380281 388213 4606.13 411842)
(-20.3334 -0.297194 0.445471 402645 4215.23 416381)
(-19.559 -0.532363 0.459443 423898 3279.67 426540)
(-19.2004 -0.52784 0.462711 450642 2216.12 445711)
(-16.3402 -0.807794 0.483627 485042 1236.84 480417)
(-15.9113 -0.32945 0.485419 483274 354.53 535519)
(-1.96618 -3.0561 0.497805 240129 271.058 631106)
(-21.1093 0.0526599 0.104599 453187 2651.66 418661)
(-20.7475 -0.122771 0.245844 379671 2785.08 403764)
(-20.4114 -0.298526 0.286148 393929 2608.75 408808)
(-19.6 -0.532286 0.294777 415210 2104.21 419204)
(-19.2039 -0.520895 0.296206 442116 1444.05 438280)
(-16.2536 -0.797981 0.30521 476583 790.959 472639)
(-15.7643 -0.311346 0.303019 475105 231.583 527062)
(-1.6068 -3.07564 0.303304 236204 150.625 621673)
(-21.2335 0.0519176 0.0289239 448946 894.558 414807)
(-20.8728 -0.124446 0.0744403 375787 928.624 400079)
(-20.5313 -0.299302 0.0876899 389949 875.613 405346)
(-19.7027 -0.531631 0.0904912 411183 717.044 415905)
(-19.284 -0.51653 0.0912814 438113 497.653 434987)
(-16.2873 -0.791153 0.0943801 472601 274.146 469171)
(-15.7545 -0.300507 0.0946557 471269 84.6325 523207)
(-1.4976 -3.08168 0.0948686 234358 50.0148 617312)
(393956 9.40002 -7980.25 -19.0081 -0.67582 371140)
(371028 8.84759 -5112.91 -16.6097 -0.46049 743453)
(351389 8.89888 -1523.1 -13.8088 -0.33557 770721)
(335279 8.95734 -298.431 -11.9845 -0.219255 740921)
(324237 9.05915 -50.6747 -10.5935 -0.166973 715703)
(317068 9.12132 -41.2627 -9.61022 -0.103954 699137)
(312796 9.17179 -43.311 -8.99177 -0.0648828 689337)
(310806 9.19399 -18.4386 -8.69147 -0.0194053 684798)
(764540 7.49935 -3422.59 -27.2923 -0.027257 361002)
(695281 6.70377 -1547.64 -26.5829 0.0538766 694491)
(650127 6.56286 -65.886 -25.5622 0.0923221 704024)
(615806 6.52034 486.413 -24.7851 0.0950265 670763)
(592931 6.53583 436.691 -24.14 0.0754115 646586)
(578273 6.54214 247.542 -23.6616 0.0581228 631247)
(569587 6.55576 107.703 -23.352 0.0337209 622125)
(565554 6.56074 28.5232 -23.1873 0.012653 617850)
(757490 7.66755 3647.51 -24.8541 0.428132 357138)
(687965 6.95309 1872.39 -23.7845 0.417949 685816)
(642972 6.9009 163.009 -22.6837 0.368928 695047)
(608689 6.91539 -474.528 -21.9325 0.293821 661973)
(585796 6.96475 -453.765 -21.2704 0.225911 637957)
(571119 6.99173 -268.268 -20.8243 0.157376 622728)
(562420 7.01694 -121.657 -20.5176 0.0928073 613674)
(558381 7.02667 -33.2153 -20.3753 0.0307164 609432)
(387010 8.75447 8281.74 -25.3098 0.790692 360426)
(364375 8.04858 5365.22 -24.5622 0.644232 719899)
(345564 8.10882 1587.27 -23.7992 0.539546 746780)
(329712 8.15199 288.281 -23.2933 0.416149 717543)
(318734 8.24064 25.4641 -22.7773 0.321247 692771)
(311609 8.2878 20.0918 -22.4625 0.220387 676532)
(307366 8.32921 30.493 -22.2245 0.132041 666947)
(305393 8.34614 14.2238 -22.1158 0.0431306 662517)
)
;
    }
    symmetry
    {
        type            symmetry;
    }
    bottom
    {
        type            calculated;
        value           nonuniform List<symmTensor> 
32
(
(-755690 51947 -5486.13 -2712.71 49907.6 -776755)
(-505404 38652.8 -3936.83 13136.4 -19747.3 -216125)
(-432710 30189.9 -1750.31 -4294.1 -4469.62 -133379)
(-398579 26227.6 -708.403 -8676.77 2235.39 -121298)
(-379484 24481.1 -313.36 -9969.23 3549.94 -117443)
(-368350 23644.9 -165.92 -10766.8 3115.79 -115275)
(-362020 23208.9 -89.9078 -11227.8 2039.76 -113935)
(-359116 23012.2 -29.2632 -11425.6 703.733 -113277)
(-228417 -11084.1 -2095.83 30210.2 46039.9 -559716)
(-65432.3 -12237.7 -749.502 28317.6 -11485.2 -70775.8)
(-43200.7 -13773.6 -11.0897 7508.11 2587.95 -13631.8)
(-39207.4 -14177.3 271.906 1630.79 6343.84 -12260.3)
(-37987.4 -14064.6 256.921 -764.459 5691.32 -13467.8)
(-37701.6 -13887.5 163.068 -2556.84 4200.22 -14268.8)
(-37649.6 -13772.3 82.4732 -3743.83 2556.8 -14727.3)
(-37635.4 -13721.6 24.6229 -4311.77 858.346 -14934.3)
(-225997 13282.8 2110.75 29865.6 46373.3 -554392)
(-65349.1 12888.2 1035.38 25350.8 -10514.3 -71636.1)
(-43118.4 13616.5 294.595 4756.13 3339.89 -14727)
(-39109.9 13630.3 -11.0665 -796.962 6887.5 -13186.4)
(-37902.9 13323.7 -46.8319 -2942.76 6076.56 -14267.9)
(-37626.5 13047.3 -12.5796 -4555.92 4457.73 -14986.4)
(-37578.6 12883.5 7.45669 -5627.33 2704.65 -15394)
(-37565.8 12813.3 5.25812 -6138.75 906.538 -15576.4)
(-731483 -50349.1 5623.11 -1819.92 51396 -756777)
(-485996 -37549.5 4133.16 8358.54 -16732.5 -212163)
(-413135 -29470.6 1855.35 -7246.42 -2172.29 -129286)
(-379065 -25800.6 780.533 -9989.82 3895.36 -116486)
(-360078 -24241.3 371.014 -10100.4 4718.26 -112155)
(-348993 -23515.3 209.099 -10075.3 3888.75 -109663)
(-342679 -23139.8 116.532 -10019.2 2479.78 -108118)
(-339779 -22970 38.219 -9968.26 846.516 -107361)
)
;
    }
}


// ************************************************************************* //
