/*--------------------------------*- C++ -*----------------------------------*\
| =========                 |                                                 |
| \\      /  F ield         | OpenFOAM: The Open Source CFD Toolbox           |
|  \\    /   O peration     | Version:  v1912                                 |
|   \\  /    A nd           | Website:  www.openfoam.com                      |
|    \\/     M anipulation  |                                                 |
\*---------------------------------------------------------------------------*/
FoamFile
{
    version     2.0;
    format      ascii;
    class       volVectorField;
    location    "0.39/solid";
    object      D;
}
// * * * * * * * * * * * * * * * * * * * * * * * * * * * * * * * * * * * * * //

dimensions      [0 1 0 0 0 0 0];


internalField   nonuniform List<vector> 
256
(
(1.7171e-08 2.89454e-08 1.81164e-08)
(1.29516e-09 1.68702e-08 1.65254e-08)
(-7.12369e-10 1.66993e-08 1.66334e-08)
(-1.63407e-08 2.81557e-08 1.85329e-08)
(2.67276e-08 2.29284e-08 3.13321e-08)
(4.57767e-09 1.63355e-08 2.93373e-08)
(-2.40919e-09 1.58877e-08 2.96741e-08)
(-2.42455e-08 2.13544e-08 3.24578e-08)
(2.79177e-08 1.53205e-08 3.6622e-08)
(5.72358e-09 1.27842e-08 3.45489e-08)
(-1.64314e-09 1.20781e-08 3.50595e-08)
(-2.35419e-08 1.30365e-08 3.82592e-08)
(2.79979e-08 9.91651e-09 4.00052e-08)
(6.25823e-09 8.51974e-09 3.78604e-08)
(3.10441e-11 7.58091e-09 3.84955e-08)
(-2.14244e-08 6.97905e-09 4.20118e-08)
(2.89523e-08 5.70867e-09 4.32414e-08)
(7.15983e-09 4.01755e-09 4.10733e-08)
(1.63206e-09 2.86112e-09 4.18033e-08)
(-1.98768e-08 2.15777e-09 4.55322e-08)
(3.1365e-08 1.81463e-09 4.71009e-08)
(8.73996e-09 -5.99987e-10 4.49427e-08)
(2.84794e-09 -1.97125e-09 4.57522e-08)
(-1.95022e-08 -2.33564e-09 4.9629e-08)
(3.60305e-08 -4.72273e-09 5.23438e-08)
(1.11899e-08 -7.01857e-09 5.02627e-08)
(3.481e-09 -8.60089e-09 5.11443e-08)
(-2.11405e-08 -9.47334e-09 5.5083e-08)
(4.32626e-08 -3.45283e-08 5.90695e-08)
(1.39058e-08 -3.343e-08 5.72569e-08)
(4.06545e-09 -3.50803e-08 5.81952e-08)
(-2.51756e-08 -3.9586e-08 6.19668e-08)
(1.31525e-08 1.44606e-08 1.49403e-09)
(5.98081e-10 4.31115e-09 2.0974e-09)
(-2.69122e-10 4.13878e-09 2.25001e-09)
(-1.2503e-08 1.37133e-08 1.94252e-09)
(2.06789e-08 1.2763e-08 8.97473e-09)
(3.14417e-09 7.05288e-09 1.01385e-08)
(-1.61345e-09 6.5631e-09 1.05041e-08)
(-1.87501e-08 1.11477e-08 1.00395e-08)
(2.14633e-08 9.15981e-09 1.4357e-08)
(4.05631e-09 6.85018e-09 1.5748e-08)
(-9.17433e-10 6.10264e-09 1.62676e-08)
(-1.79464e-08 6.82965e-09 1.58724e-08)
(2.13862e-08 5.6195e-09 1.78374e-08)
(4.4949e-09 4.27604e-09 1.93235e-08)
(6.10044e-10 3.3072e-09 1.99578e-08)
(-1.59088e-08 2.65322e-09 1.96943e-08)
(2.22327e-08 2.16781e-09 2.0705e-08)
(5.32022e-09 4.95555e-10 2.22425e-08)
(2.0918e-09 -6.80993e-10 2.29673e-08)
(-1.44397e-08 -1.3967e-09 2.28333e-08)
(2.46141e-08 -1.3031e-09 2.37387e-08)
(6.84456e-09 -3.7144e-09 2.53055e-08)
(3.203e-09 -5.09712e-09 2.61054e-08)
(-1.41841e-08 -5.4526e-09 2.60924e-08)
(2.93635e-08 -6.62724e-09 2.70535e-08)
(9.2657e-09 -8.91296e-09 2.86409e-08)
(3.73331e-09 -1.04921e-08 2.94992e-08)
(-1.60325e-08 -1.13471e-08 2.95843e-08)
(3.68123e-08 -3.18647e-08 2.92524e-08)
(1.19616e-08 -3.05256e-08 3.0866e-08)
(4.23892e-09 -3.21405e-08 3.17468e-08)
(-2.03959e-08 -3.68192e-08 3.18594e-08)
(1.059e-08 1.03641e-08 6.36322e-10)
(3.81456e-12 1.46957e-09 1.35715e-09)
(1.6447e-10 1.31542e-09 1.46943e-09)
(-1.01007e-08 9.72567e-09 9.56405e-10)
(1.68299e-08 7.46982e-09 5.25075e-09)
(1.88783e-09 2.47056e-09 6.63408e-09)
(-8.17896e-10 2.00718e-09 6.91204e-09)
(-1.53469e-08 5.99527e-09 6.04314e-09)
(1.74446e-08 4.43933e-09 9.9637e-09)
(2.59774e-09 2.35652e-09 1.15916e-08)
(-1.816e-10 1.63655e-09 1.19926e-08)
(-1.4628e-08 2.24427e-09 1.11164e-08)
(1.73178e-08 1.83757e-09 1.36334e-08)
(2.95689e-09 5.52423e-10 1.53603e-08)
(1.20408e-09 -3.88197e-10 1.58579e-08)
(-1.27566e-08 -1.00284e-09 1.50758e-08)
(1.81059e-08 -7.38519e-10 1.6582e-08)
(3.71455e-09 -2.39473e-09 1.83607e-08)
(2.57014e-09 -3.5417e-09 1.89378e-08)
(-1.14066e-08 -4.18387e-09 1.82647e-08)
(2.04914e-08 -3.29286e-09 1.92492e-08)
(5.19244e-09 -5.70374e-09 2.10522e-08)
(3.57771e-09 -7.05366e-09 2.16948e-08)
(-1.12997e-08 -7.32377e-09 2.11307e-08)
(2.5348e-08 -7.40064e-09 2.15602e-08)
(7.59907e-09 -9.68549e-09 2.33686e-08)
(4.00038e-09 -1.12253e-08 2.40568e-08)
(-1.33734e-08 -1.19928e-08 2.35857e-08)
(3.29054e-08 -3.06468e-08 2.26758e-08)
(1.02845e-08 -2.92677e-08 2.44941e-08)
(4.41402e-09 -3.08349e-08 2.51907e-08)
(-1.79469e-08 -3.54586e-08 2.47426e-08)
(9.35469e-09 9.19346e-09 8.42215e-10)
(-2.47755e-10 9.93166e-10 1.2801e-09)
(3.26858e-10 8.55715e-10 1.35994e-09)
(-8.98769e-09 8.64453e-09 1.07008e-09)
(1.49214e-08 5.27483e-09 4.0802e-09)
(1.2831e-09 6.90504e-10 4.95191e-09)
(-5.12164e-10 2.68261e-10 5.15434e-09)
(-1.37716e-08 3.95876e-09 4.65664e-09)
(1.55025e-08 1.71721e-09 7.76083e-09)
(1.8746e-09 -2.14726e-10 8.80132e-09)
(3.48161e-11 -8.85029e-10 9.09757e-09)
(-1.32176e-08 -3.02375e-10 8.61232e-09)
(1.54043e-08 -8.07411e-10 1.10425e-08)
(2.18425e-09 -2.04501e-09 1.21496e-08)
(1.2828e-09 -2.9353e-09 1.25225e-08)
(-1.15561e-08 -3.47676e-09 1.2125e-08)
(1.61782e-08 -2.92714e-09 1.37645e-08)
(2.89178e-09 -4.56463e-09 1.49077e-08)
(2.53813e-09 -5.66261e-09 1.53457e-08)
(-1.03492e-08 -6.21163e-09 1.50455e-08)
(1.85585e-08 -4.85606e-09 1.60251e-08)
(4.32677e-09 -7.25981e-09 1.71883e-08)
(3.45425e-09 -8.56175e-09 1.768e-08)
(-1.03683e-08 -8.73535e-09 1.74713e-08)
(2.34556e-08 -8.3645e-09 1.77874e-08)
(6.70828e-09 -1.06506e-08 1.8958e-08)
(3.79032e-09 -1.21434e-08 1.94851e-08)
(-1.25906e-08 -1.28131e-08 1.93495e-08)
(3.10422e-08 -3.07276e-08 1.87882e-08)
(9.37479e-09 -2.9375e-08 1.9973e-08)
(4.12636e-09 -3.08988e-08 2.05039e-08)
(-1.7285e-08 -3.54087e-08 2.03782e-08)
(8.79093e-09 8.67218e-09 8.37749e-10)
(-3.24779e-10 8.42561e-10 1.06001e-09)
(3.52741e-10 7.18446e-10 1.11612e-09)
(-8.50636e-09 8.18963e-09 9.97447e-10)
(1.40327e-08 4.32449e-09 3.21483e-09)
(1.04887e-09 -3.50461e-11 3.67463e-09)
(-4.69017e-10 -4.20913e-10 3.81831e-09)
(-1.31119e-08 3.13842e-09 3.62269e-09)
(1.46132e-08 3.09821e-10 5.91521e-09)
(1.57616e-09 -1.53457e-09 6.47551e-09)
(-1.06923e-11 -2.15773e-09 6.6877e-09)
(-1.27037e-08 -1.5543e-09 6.52366e-09)
(1.45528e-08 -2.42848e-09 8.49336e-09)
(1.85211e-09 -3.6324e-09 9.09508e-09)
(1.12393e-09 -4.47305e-09 9.36475e-09)
(-1.1222e-08 -4.93897e-09 9.27548e-09)
(1.53271e-08 -4.47089e-09 1.07162e-08)
(2.52071e-09 -6.08769e-09 1.13428e-08)
(2.28622e-09 -7.13723e-09 1.16624e-08)
(-1.01445e-08 -7.60357e-09 1.16515e-08)
(1.76904e-08 -6.17725e-09 1.25326e-08)
(3.91507e-09 -8.56431e-09 1.31777e-08)
(3.12936e-09 -9.82044e-09 1.35387e-08)
(-1.02579e-08 -9.91593e-09 1.35969e-08)
(2.25796e-08 -9.49322e-09 1.39374e-08)
(6.26318e-09 -1.17683e-08 1.45947e-08)
(3.4024e-09 -1.32192e-08 1.49828e-08)
(-1.25658e-08 -1.38152e-08 1.50918e-08)
(3.01527e-08 -3.13742e-08 1.48983e-08)
(8.90431e-09 -3.00391e-08 1.55685e-08)
(3.68081e-09 -3.15269e-08 1.59588e-08)
(-1.73265e-08 -3.59462e-08 1.60737e-08)
(8.51595e-09 8.36996e-09 6.69836e-10)
(-3.46287e-10 7.40983e-10 7.76291e-10)
(3.44371e-10 6.26606e-10 8.13648e-10)
(-8.28312e-09 7.93328e-09 7.75456e-10)
(1.36006e-08 3.84379e-09 2.33534e-09)
(9.54991e-10 -3.94096e-10 2.56388e-09)
(-4.94913e-10 -7.529e-10 2.65992e-09)
(-1.28272e-08 2.75163e-09 2.60634e-09)
(1.4182e-08 -4.18409e-10 4.17999e-09)
(1.44451e-09 -2.21256e-09 4.46536e-09)
(-1.03831e-10 -2.79936e-09 4.60796e-09)
(-1.25209e-08 -2.16528e-09 4.58691e-09)
(1.41432e-08 -3.36832e-09 5.9875e-09)
(1.69434e-09 -4.54869e-09 6.29896e-09)
(9.50333e-10 -5.34993e-09 6.48133e-09)
(-1.11637e-08 -5.75488e-09 6.51464e-09)
(1.49155e-08 -5.50269e-09 7.59224e-09)
(2.33176e-09 -7.10018e-09 7.9215e-09)
(2.04417e-09 -8.11082e-09 8.13899e-09)
(-1.01816e-08 -8.51492e-09 8.22745e-09)
(1.72579e-08 -7.21767e-09 8.92348e-09)
(3.6915e-09 -9.58473e-09 9.26871e-09)
(2.83356e-09 -1.08044e-08 9.51553e-09)
(-1.03607e-08 -1.0845e-08 9.65075e-09)
(2.21238e-08 -1.05215e-08 9.98191e-09)
(6.0083e-09 -1.27764e-08 1.03401e-08)
(3.06165e-09 -1.41947e-08 1.06061e-08)
(-1.27195e-08 -1.47445e-08 1.0774e-08)
(2.96733e-08 -3.2129e-08 1.07876e-08)
(8.62493e-09 -3.07874e-08 1.11548e-08)
(3.29927e-09 -3.22473e-08 1.14221e-08)
(-1.75201e-08 -3.66171e-08 1.15948e-08)
(8.3725e-09 8.197e-09 4.23226e-10)
(-3.54393e-10 6.75542e-10 4.71349e-10)
(3.35942e-10 5.67449e-10 4.9276e-10)
(-8.16963e-09 7.78886e-09 4.83398e-10)
(1.33763e-08 3.58368e-09 1.41563e-09)
(9.09618e-10 -5.89161e-10 1.52207e-09)
(-5.19343e-10 -9.30429e-10 1.57721e-09)
(-1.26899e-08 2.55144e-09 1.5704e-09)
(1.39556e-08 -7.99476e-10 2.49213e-09)
(1.37601e-09 -2.56504e-09 2.62802e-09)
(-1.70193e-10 -3.12786e-09 2.71016e-09)
(-1.24442e-08 -2.46972e-09 2.72547e-09)
(1.39243e-08 -3.88899e-09 3.55446e-09)
(1.60678e-09 -5.05357e-09 3.70544e-09)
(8.34431e-10 -5.82834e-09 3.8109e-09)
(-1.11609e-08 -6.19283e-09 3.85825e-09)
(1.46911e-08 -6.13566e-09 4.51454e-09)
(2.22162e-09 -7.71832e-09 4.67685e-09)
(1.88463e-09 -8.70255e-09 4.80311e-09)
(-1.02379e-08 -9.06637e-09 4.88249e-09)
(1.70157e-08 -7.92624e-09 5.32661e-09)
(3.55652e-09 -1.02766e-08 5.49982e-09)
(2.63873e-09 -1.14715e-08 5.64359e-09)
(-1.04581e-08 -1.14778e-08 5.74971e-09)
(2.18617e-08 -1.12711e-08 5.99052e-09)
(5.8507e-09 -1.35065e-08 6.17309e-09)
(2.8369e-09 -1.49027e-08 6.32832e-09)
(-1.28482e-08 -1.5427e-08 6.4527e-09)
(2.93927e-08 -3.27361e-08 6.52353e-09)
(8.44913e-09 -3.13774e-08 6.71099e-09)
(3.04787e-09 -3.28184e-08 6.86698e-09)
(-1.76744e-08 -3.71673e-08 6.99487e-09)
(8.30804e-09 8.1181e-09 1.43987e-10)
(-3.5815e-10 6.44436e-10 1.57963e-10)
(3.32365e-10 5.3941e-10 1.64938e-10)
(-8.11889e-09 7.72361e-09 1.63524e-10)
(1.3275e-08 3.46593e-09 4.73928e-10)
(8.88691e-10 -6.77963e-10 5.05351e-10)
(-5.30472e-10 -1.01066e-09 5.23329e-10)
(-1.26289e-08 2.46272e-09 5.24237e-10)
(1.38518e-08 -9.6809e-10 8.28103e-10)
(1.34361e-09 -2.72028e-09 8.68741e-10)
(-2.00861e-10 -3.27129e-09 8.95561e-10)
(-1.24106e-08 -2.60073e-09 9.04102e-10)
(1.38218e-08 -4.12448e-09 1.17801e-09)
(1.5642e-09 -5.28092e-09 1.22368e-09)
(7.80487e-10 -6.04253e-09 1.25818e-09)
(-1.1161e-08 -6.38725e-09 1.27721e-09)
(1.45842e-08 -6.43762e-09 1.49683e-09)
(2.16713e-09 -8.01224e-09 1.54643e-09)
(1.80968e-09 -8.98325e-09 1.58782e-09)
(-1.02658e-08 -9.32751e-09 1.61728e-09)
(1.68989e-08 -8.28241e-09 1.76964e-09)
(3.48917e-09 -1.06235e-08 1.82312e-09)
(2.54629e-09 -1.1806e-08 1.87032e-09)
(-1.05058e-08 -1.17959e-08 1.90846e-09)
(2.17344e-08 -1.16599e-08 1.99618e-09)
(5.77179e-09 -1.3884e-08 2.053e-09)
(2.72929e-09 -1.5269e-08 2.10403e-09)
(-1.29114e-08 -1.5782e-08 2.14806e-09)
(2.92561e-08 -3.30656e-08 2.18208e-09)
(8.36077e-09 -3.16944e-08 2.2404e-09)
(2.92692e-09 -3.31259e-08 2.29167e-09)
(-1.77507e-08 -3.74682e-08 2.33703e-09)
)
;

boundaryField
{
    interface
    {
        type            solidTraction;
        traction        nonuniform List<vector> 
192
(
(51.6367 -0.335408 -3.28802)
(53.5699 -0.16764 -5.10002)
(54.7633 0.174318 -5.54303)
(55.5055 0.575792 -5.57943)
(55.5634 0.917304 -5.43861)
(56.3108 1.56137 -5.23299)
(54.5449 2.0275 -4.76372)
(57.9361 4.39839 -4.3837)
(50.1849 -0.228379 -1.6516)
(51.1403 -0.0700696 -2.73999)
(51.8394 0.246408 -2.94926)
(52.3553 0.667622 -2.91346)
(52.228 1.03825 -2.7749)
(52.9357 1.75832 -2.59876)
(50.9345 2.27886 -2.2953)
(54.5713 4.78791 -2.04335)
(52.9797 -0.194506 -1.31678)
(53.8357 -0.0258913 -2.16476)
(54.5354 0.29727 -2.32482)
(55.0547 0.754664 -2.29344)
(54.8187 1.17165 -2.18206)
(55.4232 1.97961 -2.0388)
(52.9403 2.58304 -1.81081)
(56.3677 5.27537 -1.60942)
(53.1272 -0.144271 -0.823983)
(53.7877 0.0426965 -1.42033)
(54.3357 0.369915 -1.52617)
(54.7687 0.843091 -1.49277)
(54.4343 1.28324 -1.40459)
(54.9818 2.1319 -1.29623)
(52.3403 2.77279 -1.14622)
(55.7502 5.51989 -1.01693)
(53.9483 -0.121921 -0.609002)
(54.5475 0.0830411 -1.04835)
(55.0291 0.422236 -1.12714)
(55.4206 0.912536 -1.10253)
(55.0126 1.37571 -1.03746)
(55.4886 2.25909 -0.956353)
(52.6647 2.93493 -0.849145)
(55.9546 5.73326 -0.753707)
(54.1355 -0.103643 -0.378344)
(54.6808 0.115476 -0.66823)
(55.1023 0.463709 -0.72051)
(55.4554 0.964252 -0.702744)
(54.9989 1.44076 -0.658538)
(55.4366 2.34266 -0.604156)
(52.5288 3.03719 -0.536577)
(55.7812 5.86272 -0.47733)
(54.4031 -0.0954361 -0.223617)
(54.9294 0.133535 -0.39383)
(55.3193 0.48962 -0.42494)
(55.651 0.998046 -0.414692)
(55.1619 1.4845 -0.389078)
(55.5674 2.39924 -0.356869)
(52.5917 3.10712 -0.318142)
(55.7996 5.95224 -0.282595)
(54.46 -0.0898984 -0.0671748)
(54.9724 0.14384 -0.121958)
(55.3445 0.503092 -0.132047)
(55.6646 1.01447 -0.128502)
(55.1626 1.50514 -0.120201)
(55.5541 2.42487 -0.109733)
(52.5587 3.13892 -0.0979515)
(55.7446 5.99241 -0.0866616)
(4.82608 0.938818 20.933)
(7.79834 0.959472 16.1364)
(8.6076 0.675349 12.961)
(8.77472 0.464518 12.1674)
(8.75604 0.388563 12.5447)
(8.7452 0.442313 13.8081)
(8.73381 0.542732 16.2263)
(9.3265 0.757809 18.3983)
(3.17875 0.517713 26.6975)
(5.69716 0.619554 25.6206)
(6.30438 0.411264 24.7141)
(6.39021 0.201733 24.5595)
(6.37885 0.0782703 24.7433)
(6.42712 0.0231056 25.2358)
(6.58598 0.032158 26.0277)
(7.41312 0.113679 26.6195)
(3.35645 0.33007 23.5319)
(6.01138 0.407329 22.7194)
(6.6899 0.242473 21.9122)
(6.79333 0.0335129 21.7423)
(6.76315 -0.119964 21.9438)
(6.75873 -0.248366 22.4052)
(6.82773 -0.329849 23.2731)
(7.57074 -0.341023 24.2267)
(3.93515 0.247436 24.1708)
(7.06054 0.286315 23.6734)
(7.90239 0.127977 23.0369)
(8.04571 -0.0891997 22.9449)
(7.99778 -0.253543 23.1443)
(7.9741 -0.421886 23.4512)
(7.93393 -0.556151 24.0355)
(8.67056 -0.705018 24.6929)
(-10.8832 0.945568 1.53251)
(-6.7735 0.82089 2.67391)
(-4.20533 0.242484 2.93268)
(-3.22519 -0.326325 2.97532)
(-3.3437 -0.636854 2.95526)
(-2.40146 -1.11406 3.06928)
(-4.02129 -1.11004 3.06939)
(5.13548 -3.4364 3.51036)
(-17.8564 0.353591 0.047412)
(-16.9866 0.265188 0.440949)
(-16.3378 -0.0639948 0.453963)
(-15.8306 -0.43796 0.434361)
(-15.8539 -0.598758 0.454105)
(-14.2247 -0.967181 0.626751)
(-14.7391 -0.71251 0.805237)
(-3.95325 -3.00487 1.21645)
(-17.9172 0.187812 0.282258)
(-17.2528 0.068557 0.751835)
(-16.6889 -0.166967 0.85487)
(-16.0593 -0.470509 0.875687)
(-15.9484 -0.559443 0.897622)
(-13.889 -0.885382 1.00849)
(-14.1004 -0.526915 1.09277)
(-2.14926 -3.00283 1.26943)
(-19.7362 0.0867092 0.138846)
(-19.3739 -0.0548622 0.515456)
(-19.0503 -0.23473 0.609249)
(-18.4098 -0.478739 0.630063)
(-18.1871 -0.498745 0.647223)
(-15.7355 -0.775832 0.725319)
(-15.5405 -0.337121 0.779641)
(-2.75868 -2.88966 0.882405)
(-19.9555 0.0705047 0.199712)
(-19.5994 -0.0832649 0.52269)
(-19.2729 -0.250212 0.615091)
(-18.557 -0.478019 0.63809)
(-18.2556 -0.471128 0.647614)
(-15.5953 -0.733838 0.688007)
(-15.2551 -0.266275 0.701092)
(-2.00419 -2.90701 0.731982)
(-20.4711 0.0634584 0.128265)
(-20.1331 -0.0957455 0.352688)
(-19.8137 -0.256259 0.420281)
(-19.05 -0.47433 0.437432)
(-18.6848 -0.44844 0.443982)
(-15.8585 -0.699808 0.468773)
(-15.3799 -0.212137 0.474732)
(-1.78418 -2.90506 0.48982)
(-20.5763 0.0651377 0.0933483)
(-20.2278 -0.0966587 0.230175)
(-19.8936 -0.256182 0.272127)
(-19.0933 -0.472116 0.282761)
(-18.6908 -0.43859 0.28619)
(-15.7762 -0.686549 0.297519)
(-15.2373 -0.190777 0.297701)
(-1.4419 -2.92098 0.299631)
(-20.6992 0.0646606 0.0252522)
(-20.3515 -0.0978781 0.0692831)
(-20.0121 -0.256198 0.0830994)
(-19.1949 -0.470355 0.0865936)
(-18.7702 -0.432745 0.0880687)
(-15.8102 -0.678011 0.0919662)
(-15.2284 -0.178312 0.0930299)
(-1.3399 -2.92519 0.0938255)
(9.35471 -18.0801 -0.687217)
(8.77914 -15.731 -0.470494)
(8.81782 -12.9615 -0.339233)
(8.87029 -11.163 -0.220873)
(8.96824 -9.78852 -0.166825)
(9.02801 -8.81805 -0.103401)
(9.07682 -8.20645 -0.0642253)
(9.09814 -7.9101 -0.0191148)
(7.42514 -26.3503 -0.0306488)
(6.60118 -25.6536 0.0524882)
(6.44588 -24.6344 0.0947552)
(6.39727 -23.8609 0.0979907)
(6.40882 -23.2167 0.078556)
(6.41263 -22.7402 0.0605358)
(6.42452 -22.431 0.0353241)
(6.42858 -22.2671 0.0131973)
(7.58098 -23.9646 0.431557)
(6.83457 -22.8996 0.422669)
(6.76587 -21.8026 0.374457)
(6.77316 -21.0541 0.29878)
(6.81778 -20.3937 0.230042)
(6.84165 -19.9494 0.16028)
(6.86474 -19.6435 0.0945654)
(6.87334 -19.5019 0.0312741)
(8.66345 -24.453 0.796835)
(7.92189 -23.7004 0.650433)
(7.96106 -22.9372 0.544793)
(7.994 -22.4271 0.420677)
(8.07578 -21.9094 0.324652)
(8.11841 -21.5931 0.222632)
(8.15686 -21.3545 0.133257)
(8.17223 -21.2456 0.0434643)
)
;
        pressure        uniform 0;
        secondOrder     false;
        setEffectiveTraction false;
        relaxationFactor 1;
        value           nonuniform List<vector> 
192
(
(7.46229e-08 3.992e-08 1.70408e-08)
(8.0724e-08 2.5615e-08 2.96464e-08)
(8.29916e-08 1.56381e-08 3.48139e-08)
(8.46729e-08 1.01753e-08 3.81566e-08)
(8.77331e-08 6.55061e-09 4.13607e-08)
(9.31953e-08 3.58444e-09 4.52081e-08)
(1.0188e-07 -1.748e-09 5.04663e-08)
(1.1457e-07 -3.22987e-08 5.72195e-08)
(6.24305e-08 2.29184e-08 -1.51469e-10)
(6.75654e-08 1.48407e-08 6.49984e-09)
(6.90561e-08 9.33668e-09 1.17383e-08)
(7.03262e-08 5.81195e-09 1.51669e-08)
(7.32006e-08 2.97495e-09 1.79929e-08)
(7.87631e-08 4.79894e-10 2.10199e-08)
(8.80851e-08 -3.57732e-09 2.43825e-08)
(1.02676e-07 -2.9603e-08 2.66628e-08)
(5.41652e-08 1.7219e-08 -3.1334e-10)
(5.91212e-08 9.18346e-09 3.81102e-09)
(6.04752e-08 4.56137e-09 8.47312e-09)
(6.16111e-08 2.00301e-09 1.21376e-08)
(6.43671e-08 5.50775e-11 1.5068e-08)
(6.99385e-08 -1.482e-09 1.7735e-08)
(7.95214e-08 -4.29671e-09 2.00829e-08)
(9.47793e-08 -2.83554e-08 2.1233e-08)
(4.94256e-08 1.52625e-08 3.92301e-10)
(5.4033e-08 6.81179e-09 3.38067e-09)
(5.54127e-08 1.83801e-09 7.05274e-09)
(5.65681e-08 -6.3836e-10 1.0351e-08)
(5.92889e-08 -2.13838e-09 1.30696e-08)
(6.48401e-08 -3.03635e-09 1.53247e-08)
(7.44851e-08 -5.24312e-09 1.70951e-08)
(8.99315e-08 -2.84221e-08 1.80998e-08)
(4.68074e-08 1.43781e-08 6.27964e-10)
(5.11859e-08 5.78008e-09 2.88446e-09)
(5.25973e-08 4.39917e-10 5.5849e-09)
(5.38013e-08 -2.24986e-09 8.1779e-09)
(5.65216e-08 -3.68625e-09 1.04004e-08)
(6.20438e-08 -4.36377e-09 1.22073e-08)
(7.1661e-08 -6.37718e-09 1.36043e-08)
(8.71024e-08 -2.90701e-08 1.4556e-08)
(4.53167e-08 1.38991e-08 5.65166e-10)
(4.95768e-08 5.26032e-09 2.17113e-09)
(5.10045e-08 -2.82679e-10 4.01546e-09)
(5.22407e-08 -3.18479e-09 5.83026e-09)
(5.4962e-08 -4.72379e-09 7.43312e-09)
(6.04527e-08 -5.41521e-09 8.75471e-09)
(7.00171e-08 -7.4171e-09 9.80237e-09)
(8.54091e-08 -2.98338e-08 1.05975e-08)
(4.44822e-08 1.36342e-08 3.71211e-10)
(4.86806e-08 4.97947e-09 1.33418e-09)
(5.01132e-08 -6.6239e-10 2.4095e-09)
(5.13636e-08 -3.70494e-09 3.47406e-09)
(5.40815e-08 -5.36256e-09 4.43164e-09)
(5.95461e-08 -6.13318e-09 5.23682e-09)
(6.90661e-08 -8.1763e-09 5.89313e-09)
(8.44152e-08 -3.04499e-08 6.41918e-09)
(4.41025e-08 1.35139e-08 1.27861e-10)
(4.82724e-08 4.85188e-09 4.48595e-10)
(4.97053e-08 -8.31303e-10 8.02132e-10)
(5.096e-08 -3.94121e-09 1.15238e-09)
(5.36744e-08 -5.6681e-09 1.47008e-09)
(5.91244e-08 -6.49444e-09 1.74043e-09)
(6.86206e-08 -8.57011e-09 1.96434e-09)
(8.39472e-08 -3.07846e-08 2.1479e-09)
(1.73118e-08 4.13077e-08 7.85434e-08)
(2.70731e-08 2.75549e-08 8.81903e-08)
(2.83049e-08 1.74889e-08 9.45726e-08)
(2.83874e-08 1.15714e-08 9.96254e-08)
(2.93521e-08 7.48263e-09 1.05028e-07)
(3.17733e-08 4.0903e-09 1.11974e-07)
(3.64504e-08 -1.73048e-09 1.21324e-07)
(4.37359e-08 -3.27302e-08 1.3373e-07)
(9.24947e-10 2.8336e-08 7.18114e-08)
(4.1641e-09 2.08415e-08 8.15582e-08)
(5.33399e-09 1.4915e-08 8.73189e-08)
(5.88184e-09 1.01509e-08 9.20092e-08)
(6.80136e-09 5.78812e-09 9.73072e-08)
(8.40384e-09 1.69738e-09 1.04369e-07)
(1.08911e-08 -3.94001e-09 1.14279e-07)
(1.36884e-08 -3.15827e-08 1.28554e-07)
(-2.09948e-10 2.82763e-08 7.13465e-08)
(-1.62806e-09 2.04942e-08 8.12993e-08)
(-7.14462e-10 1.42834e-08 8.72107e-08)
(1.07e-09 9.26688e-09 9.20142e-08)
(2.74792e-09 4.67526e-09 9.74007e-08)
(4.02063e-09 3.63959e-10 1.04535e-07)
(4.68718e-09 -5.49019e-09 1.14513e-07)
(5.24416e-09 -3.322e-08 1.28892e-07)
(-1.63462e-08 4.09034e-08 7.73952e-08)
(-2.42317e-08 2.6286e-08 8.77525e-08)
(-2.34058e-08 1.5425e-08 9.45891e-08)
(-2.11695e-08 8.79729e-09 9.99783e-08)
(-1.9538e-08 4.06204e-09 1.05644e-07)
(-1.90942e-08 5.1968e-11 1.12809e-07)
(-2.06769e-08 -6.38899e-09 1.22353e-07)
(-2.47128e-08 -3.77526e-08 1.35037e-07)
(-7.16096e-08 3.83025e-08 1.75709e-08)
(-7.60048e-08 2.31548e-08 3.10913e-08)
(-7.63355e-08 1.23312e-08 3.69289e-08)
(-7.57821e-08 6.06272e-09 4.07608e-08)
(-7.63137e-08 1.67712e-09 4.43429e-08)
(-7.89846e-08 -2.0199e-09 4.8504e-08)
(-8.47105e-08 -8.05517e-09 5.40383e-08)
(-9.44199e-08 -3.89936e-08 6.10038e-08)
(-5.94314e-08 2.15267e-08 3.8253e-10)
(-6.32774e-08 1.25087e-08 7.81489e-09)
(-6.31332e-08 6.11929e-09 1.3644e-08)
(-6.23906e-08 1.77646e-09 1.75274e-08)
(-6.28972e-08 -1.82796e-09 2.07159e-08)
(-6.57809e-08 -5.05454e-09 2.40418e-08)
(-7.22283e-08 -9.79431e-09 2.76427e-08)
(-8.39689e-08 -3.6146e-08 3.00524e-08)
(-5.13822e-08 1.60876e-08 7.76387e-11)
(-5.53138e-08 7.1271e-09 4.79864e-09)
(-5.52805e-08 1.59666e-09 9.9344e-09)
(-5.46125e-08 -1.80826e-09 1.39877e-08)
(-5.51664e-08 -4.54819e-09 1.72422e-08)
(-5.81829e-08 -6.83221e-09 2.01769e-08)
(-6.49777e-08 -1.03311e-08 2.27254e-08)
(-7.74464e-08 -3.47063e-08 2.3965e-08)
(-4.68456e-08 1.43344e-08 6.71519e-10)
(-5.06303e-08 5.01623e-09 4.09799e-09)
(-5.08154e-08 -8.56291e-10 8.13135e-09)
(-5.03431e-08 -4.19396e-09 1.17414e-08)
(-5.10119e-08 -6.50868e-09 1.47301e-08)
(-5.41277e-08 -8.17513e-09 1.7211e-08)
(-6.10719e-08 -1.1084e-08 1.91477e-08)
(-7.3785e-08 -3.4597e-08 2.02232e-08)
(-4.43704e-08 1.35942e-08 8.21339e-10)
(-4.80683e-08 4.18774e-09 3.38668e-09)
(-4.84276e-08 -2.02684e-09 6.34958e-09)
(-4.81419e-08 -5.57884e-09 9.17748e-09)
(-4.89345e-08 -7.84466e-09 1.16098e-08)
(-5.21254e-08 -9.31074e-09 1.35951e-08)
(-5.91226e-08 -1.20481e-08 1.51241e-08)
(-7.18868e-08 -3.50974e-08 1.61326e-08)
(-4.297e-08 1.32109e-08 6.91295e-10)
(-4.66427e-08 3.81106e-09 2.50089e-09)
(-4.7117e-08 -2.5812e-09 4.52211e-09)
(-4.69637e-08 -6.33979e-09 6.49944e-09)
(-4.78514e-08 -8.71576e-09 8.25088e-09)
(-5.10928e-08 -1.02106e-08 9.70086e-09)
(-5.81033e-08 -1.29547e-08 1.08447e-08)
(-7.08666e-08 -3.57467e-08 1.16818e-08)
(-4.21881e-08 1.30037e-08 4.42358e-10)
(-4.58547e-08 3.62006e-09 1.52085e-09)
(-4.63955e-08 -2.85201e-09 2.69794e-09)
(-4.63212e-08 -6.74447e-09 3.85763e-09)
(-4.72682e-08 -9.24214e-09 4.90357e-09)
(-5.05395e-08 -1.08253e-08 5.78603e-09)
(-5.75521e-08 -1.36229e-08 6.50074e-09)
(-7.03076e-08 -3.6285e-08 7.05255e-09)
(-4.18325e-08 1.29106e-08 1.50846e-10)
(-4.54968e-08 3.53563e-09 5.08999e-10)
(-4.60673e-08 -2.96774e-09 8.95719e-10)
(-4.6029e-08 -6.92354e-09 1.27726e-09)
(-4.70035e-08 -9.49141e-09 1.62425e-09)
(-5.02887e-08 -1.11346e-08 1.92039e-09)
(-5.73012e-08 -1.39708e-08 2.16388e-09)
(-7.00525e-08 -3.65804e-08 2.35612e-09)
(4.41043e-08 -1.09207e-07 5.93025e-08)
(3.76098e-08 -1.00868e-07 2.8282e-08)
(3.37078e-08 -9.55623e-08 2.23914e-08)
(3.18582e-08 -9.26277e-08 1.897e-08)
(3.09724e-08 -9.13077e-08 1.52486e-08)
(3.0487e-08 -9.08229e-08 1.11281e-08)
(3.01976e-08 -9.06992e-08 6.75767e-09)
(3.00553e-08 -9.06889e-08 2.26445e-09)
(1.4045e-08 -1.04746e-07 5.74545e-08)
(1.20316e-08 -9.45705e-08 2.98254e-08)
(1.03325e-08 -8.87515e-08 2.42065e-08)
(9.41865e-09 -8.57366e-08 2.01658e-08)
(8.94354e-09 -8.44493e-08 1.59217e-08)
(8.65556e-09 -8.39857e-08 1.14894e-08)
(8.47076e-09 -8.38629e-08 6.93774e-09)
(8.3769e-09 -8.38482e-08 2.31966e-09)
(5.60568e-09 -1.05793e-07 5.83905e-08)
(5.81343e-09 -9.55355e-08 3.06855e-08)
(5.96286e-09 -8.96709e-08 2.48803e-08)
(5.63589e-09 -8.6617e-08 2.06769e-08)
(5.1587e-09 -8.52959e-08 1.62959e-08)
(4.75781e-09 -8.48059e-08 1.1745e-08)
(4.49649e-09 -8.46651e-08 7.08664e-09)
(4.37149e-09 -8.46414e-08 2.36856e-09)
(-2.4344e-08 -1.12664e-07 6.21919e-08)
(-1.95615e-08 -1.041e-07 3.08277e-08)
(-1.71658e-08 -9.86654e-08 2.439e-08)
(-1.65621e-08 -9.56141e-08 2.05001e-08)
(-1.66448e-08 -9.4194e-08 1.63759e-08)
(-1.68615e-08 -9.36318e-08 1.19001e-08)
(-1.70269e-08 -9.34556e-08 7.20766e-09)
(-1.71077e-08 -9.34188e-08 2.41225e-09)
)
;
        gradient        nonuniform List<vector> 
192
(
(4.59616e-06 8.77968e-07 -8.60462e-08)
(4.31971e-06 2.14932e-07 -1.34859e-07)
(4.40592e-06 2.54071e-08 -1.44647e-07)
(4.534e-06 2.07005e-08 -1.47887e-07)
(4.70246e-06 6.73555e-08 -1.50453e-07)
(4.94642e-06 1.41585e-07 -1.51417e-07)
(5.26794e-06 2.37978e-07 -1.50198e-07)
(5.70458e-06 1.78369e-07 -1.47997e-07)
(3.94224e-06 6.76624e-07 -1.3164e-07)
(3.75092e-06 1.66216e-07 -1.97991e-07)
(3.80742e-06 1.41493e-08 -2.095e-07)
(3.9152e-06 1.53957e-08 -2.13638e-07)
(4.07743e-06 6.45716e-08 -2.16966e-07)
(4.33192e-06 1.4264e-07 -2.17505e-07)
(4.69773e-06 2.43994e-07 -2.1368e-07)
(5.26912e-06 1.80939e-07 -2.07169e-07)
(3.48601e-06 5.48396e-07 -7.5973e-08)
(3.38331e-06 1.37091e-07 -1.15178e-07)
(3.44245e-06 9.76328e-09 -1.19246e-07)
(3.54346e-06 1.32353e-08 -1.19667e-07)
(3.7009e-06 6.34878e-08 -1.21119e-07)
(3.95576e-06 1.44869e-07 -1.21138e-07)
(4.33387e-06 2.48314e-07 -1.18181e-07)
(4.94991e-06 1.83312e-07 -1.15423e-07)
(3.20568e-06 4.8552e-07 -3.59931e-08)
(3.12893e-06 1.22957e-07 -5.59622e-08)
(3.19281e-06 9.66352e-09 -5.66476e-08)
(3.2931e-06 1.35241e-08 -5.53203e-08)
(3.44886e-06 6.31007e-08 -5.55934e-08)
(3.70253e-06 1.45577e-07 -5.60373e-08)
(4.08236e-06 2.4971e-07 -5.5384e-08)
(4.71114e-06 1.84446e-07 -5.5069e-08)
(3.04132e-06 4.56471e-07 -1.67828e-08)
(2.97226e-06 1.16447e-07 -2.64298e-08)
(3.03873e-06 1.04077e-08 -2.6425e-08)
(3.13988e-06 1.42899e-08 -2.52368e-08)
(3.29556e-06 6.27708e-08 -2.52666e-08)
(3.54827e-06 1.45079e-07 -2.60251e-08)
(3.92651e-06 2.49283e-07 -2.66473e-08)
(4.55598e-06 1.84327e-07 -2.73874e-08)
(2.94406e-06 4.4233e-07 -8.37362e-09)
(2.8781e-06 1.13323e-07 -1.31369e-08)
(2.9458e-06 1.08584e-08 -1.31625e-08)
(3.0478e-06 1.46829e-08 -1.25791e-08)
(3.20372e-06 6.23125e-08 -1.27289e-08)
(3.45558e-06 1.44197e-07 -1.3502e-08)
(3.83147e-06 2.48348e-07 -1.43633e-08)
(4.45887e-06 1.83613e-07 -1.5205e-08)
(2.88878e-06 4.34975e-07 -4.16116e-09)
(2.82434e-06 1.11663e-07 -6.51597e-09)
(2.89261e-06 1.09668e-08 -6.6104e-09)
(2.99514e-06 1.47238e-08 -6.43223e-09)
(3.15124e-06 6.1848e-08 -6.63175e-09)
(3.40243e-06 1.43445e-07 -7.18315e-09)
(3.77634e-06 2.47581e-07 -7.79143e-09)
(4.4018e-06 1.82893e-07 -8.34781e-09)
(2.86356e-06 4.31661e-07 -1.29009e-09)
(2.79979e-06 1.10877e-07 -2.0266e-09)
(2.86828e-06 1.09429e-08 -2.07773e-09)
(2.97105e-06 1.46617e-08 -2.05077e-09)
(3.12722e-06 6.15616e-08 -2.13985e-09)
(3.37804e-06 1.43037e-07 -2.33718e-09)
(3.75089e-06 2.47184e-07 -2.54738e-09)
(4.37529e-06 1.82478e-07 -2.73391e-09)
(1.12663e-08 9.88983e-07 4.83416e-06)
(2.76347e-08 3.70124e-07 4.54865e-06)
(3.09751e-08 1.73471e-07 4.63605e-06)
(3.11619e-08 1.32395e-07 4.76961e-06)
(3.19782e-08 1.41917e-07 4.94289e-06)
(3.26587e-08 1.82054e-07 5.18982e-06)
(3.3591e-08 2.3938e-07 5.5184e-06)
(3.78677e-08 1.43845e-07 5.97285e-06)
(-2.96173e-08 9.1726e-07 4.42288e-06)
(-3.30857e-08 3.60478e-07 4.17767e-06)
(-3.11676e-08 1.70468e-07 4.2216e-06)
(-3.01105e-08 1.30489e-07 4.3319e-06)
(-2.8678e-08 1.41646e-07 4.49872e-06)
(-2.68898e-08 1.83789e-07 4.75409e-06)
(-2.39038e-08 2.46285e-07 5.12128e-06)
(-1.73896e-08 1.47788e-07 5.70381e-06)
(4.01937e-08 9.26155e-07 4.37704e-06)
(6.24898e-08 3.68525e-07 4.13002e-06)
(7.42943e-08 1.76432e-07 4.1721e-06)
(8.31164e-08 1.34878e-07 4.2815e-06)
(8.92682e-08 1.45131e-07 4.44779e-06)
(9.38153e-08 1.86816e-07 4.70264e-06)
(9.64945e-08 2.48856e-07 5.06952e-06)
(9.42966e-08 1.48824e-07 5.65574e-06)
(-4.35869e-10 1.01982e-06 4.70899e-06)
(1.10851e-09 3.94531e-07 4.42358e-06)
(1.08851e-08 1.91081e-07 4.50639e-06)
(2.03928e-08 1.45459e-07 4.63732e-06)
(2.71083e-08 1.52341e-07 4.80897e-06)
(3.26414e-08 1.91009e-07 5.05437e-06)
(3.70897e-08 2.46748e-07 5.38163e-06)
(3.70279e-08 1.46672e-07 5.84561e-06)
(-4.42151e-06 8.11737e-07 -7.69527e-08)
(-4.14075e-06 1.44034e-07 -1.09318e-07)
(-4.22349e-06 -5.64199e-08 -1.06429e-07)
(-4.34862e-06 -7.33067e-08 -1.00076e-07)
(-4.51495e-06 -3.84519e-08 -9.51496e-08)
(-4.75859e-06 2.52593e-08 -9.00001e-08)
(-5.0856e-06 1.13453e-07 -8.35745e-08)
(-5.53954e-06 4.7391e-08 -7.70341e-08)
(-3.75427e-06 6.25066e-07 -1.24799e-07)
(-3.56218e-06 1.08872e-07 -1.77966e-07)
(-3.61495e-06 -5.68281e-08 -1.78272e-07)
(-3.71854e-06 -7.01409e-08 -1.7335e-07)
(-3.8766e-06 -3.4501e-08 -1.69398e-07)
(-4.12774e-06 3.18443e-08 -1.64042e-07)
(-4.49566e-06 1.24226e-07 -1.55331e-07)
(-5.08584e-06 5.38526e-08 -1.44559e-07)
(-3.30252e-06 5.08954e-07 -7.03013e-08)
(-3.19735e-06 9.05461e-08 -9.95599e-08)
(-3.2522e-06 -5.18087e-08 -9.45638e-08)
(-3.34848e-06 -6.44338e-08 -8.70414e-08)
(-3.50079e-06 -2.91458e-08 -8.17975e-08)
(-3.75066e-06 3.93244e-08 -7.63042e-08)
(-4.12834e-06 1.32936e-07 -6.88243e-08)
(-4.75996e-06 6.01858e-08 -6.2202e-08)
(-3.02863e-06 4.55187e-07 -3.18847e-08)
(-2.9487e-06 8.45979e-08 -4.46919e-08)
(-3.00782e-06 -4.43133e-08 -3.84772e-08)
(-3.10296e-06 -5.73756e-08 -3.06838e-08)
(-3.25302e-06 -2.37643e-08 -2.52329e-08)
(-3.50075e-06 4.48175e-08 -2.0825e-08)
(-3.8785e-06 1.3833e-07 -1.61423e-08)
(-4.52e-06 6.49318e-08 -1.23954e-08)
(-2.86912e-06 4.32367e-07 -1.40886e-08)
(-2.79651e-06 8.39454e-08 -1.88807e-08)
(-2.85791e-06 -3.78031e-08 -1.39261e-08)
(-2.95359e-06 -5.119e-08 -7.8396e-09)
(-3.1032e-06 -1.92871e-08 -3.34243e-09)
(-3.3494e-06 4.84151e-08 -1.43069e-10)
(-3.72454e-06 1.41367e-07 2.58714e-09)
(-4.36483e-06 6.79058e-08 4.71254e-09)
(-2.77495e-06 4.22208e-07 -6.73283e-09)
(-2.70523e-06 8.47544e-08 -8.43635e-09)
(-2.76768e-06 -3.3274e-08 -5.18458e-09)
(-2.864e-06 -4.67923e-08 -1.21555e-09)
(-3.01358e-06 -1.60678e-08 1.87397e-09)
(-3.25857e-06 5.07473e-08 4.00929e-09)
(-3.63071e-06 1.43186e-07 5.65478e-09)
(-4.26772e-06 6.96302e-08 6.96316e-09)
(-2.72147e-06 4.17191e-07 -3.28316e-09)
(-2.65319e-06 8.54896e-08 -3.96385e-09)
(-2.71611e-06 -3.05835e-08 -2.20272e-09)
(-2.81283e-06 -4.41317e-08 -4.97854e-11)
(-2.96242e-06 -1.40623e-08 1.68647e-09)
(-3.20651e-06 5.21961e-08 2.90611e-09)
(-3.57631e-06 1.44322e-07 3.84276e-09)
(-4.21066e-06 7.05868e-08 4.6144e-09)
(-2.69709e-06 4.14956e-07 -1.01425e-09)
(-2.62943e-06 8.58325e-08 -1.21903e-09)