/*--------------------------------*- C++ -*----------------------------------*\
| =========                 |                                                 |
| \\      /  F ield         | OpenFOAM: The Open Source CFD Toolbox           |
|  \\    /   O peration     | Version:  v1912                                 |
|   \\  /    A nd           | Website:  www.openfoam.com                      |
|    \\/     M anipulation  |                                                 |
\*---------------------------------------------------------------------------*/
FoamFile
{
    version     2.0;
    format      ascii;
    class       volVectorField;
    location    "0.39/solid";
    object      D_0;
}
// * * * * * * * * * * * * * * * * * * * * * * * * * * * * * * * * * * * * * //

dimensions      [0 1 0 0 0 0 0];


internalField   nonuniform List<vector> 
256
(
(1.67685e-08 2.85638e-08 1.76709e-08)
(1.21507e-09 1.66656e-08 1.61451e-08)
(-6.22925e-10 1.64989e-08 1.62574e-08)
(-1.59447e-08 2.77911e-08 1.81014e-08)
(2.60519e-08 2.2684e-08 3.03873e-08)
(4.41609e-09 1.62144e-08 2.84798e-08)
(-2.23066e-09 1.57689e-08 2.88245e-08)
(-2.35737e-08 2.11162e-08 3.15384e-08)
(2.72115e-08 1.53565e-08 3.53455e-08)
(5.55279e-09 1.28681e-08 3.33634e-08)
(-1.44668e-09 1.2161e-08 3.38837e-08)
(-2.28309e-08 1.30676e-08 3.70138e-08)
(2.73191e-08 1.02407e-08 3.84404e-08)
(6.10547e-09 8.87215e-09 3.63971e-08)
(2.22222e-10 7.92909e-09 3.70432e-08)
(-2.07282e-08 7.2889e-09 4.04818e-08)
(2.8278e-08 6.33833e-09 4.13801e-08)
(7.01796e-09 4.69907e-09 3.93303e-08)
(1.82916e-09 3.5355e-09 4.00724e-08)
(-1.91685e-08 2.76479e-09 4.37089e-08)
(3.06096e-08 2.80737e-09 4.49004e-08)
(8.57432e-09 4.80216e-10 4.2879e-08)
(3.08964e-09 -9.00872e-10 4.37015e-08)
(-1.86923e-08 -1.37325e-09 4.74693e-08)
(3.50349e-08 -3.18497e-09 4.97338e-08)
(1.09458e-08 -5.42215e-09 4.77971e-08)
(3.82681e-09 -7.01697e-09 4.86928e-08)
(-2.00661e-08 -7.97377e-09 5.25168e-08)
(4.19084e-08 -3.20472e-08 5.6057e-08)
(1.35743e-08 -3.10743e-08 5.43671e-08)
(4.53094e-09 -3.2742e-08 5.53209e-08)
(-2.37151e-08 -3.71581e-08 5.90015e-08)
(1.29458e-08 1.43497e-08 1.34556e-09)
(5.60569e-10 4.32375e-09 1.91634e-09)
(-2.27954e-10 4.1529e-09 2.07069e-09)
(-1.23053e-08 1.36129e-08 1.79939e-09)
(2.03199e-08 1.28169e-08 8.48378e-09)
(3.06191e-09 7.19625e-09 9.58515e-09)
(-1.52646e-09 6.70691e-09 9.95538e-09)
(-1.84026e-08 1.12039e-08 9.56217e-09)
(2.1095e-08 9.45314e-09 1.35549e-08)
(3.97188e-09 7.1793e-09 1.48744e-08)
(-8.23674e-10 6.42984e-09 1.54004e-08)
(-1.75844e-08 7.11653e-09 1.5089e-08)
(2.10487e-08 6.17684e-09 1.67544e-08)
(4.42755e-09 4.85684e-09 1.81699e-08)
(6.9645e-10 3.88336e-09 1.88117e-08)
(-1.55679e-08 3.19587e-09 1.86337e-08)
(2.19061e-08 3.01484e-09 1.93438e-08)
(5.26343e-09 1.39115e-09 2.08154e-08)
(2.18206e-09 2.07296e-10 2.15486e-08)
(-1.40955e-08 -5.72127e-10 2.14976e-08)
(2.42171e-08 -1.30458e-10 2.20855e-08)
(6.76545e-09 -2.4559e-09 2.3591e-08)
(3.33444e-09 -3.84843e-09 2.44003e-08)
(-1.37512e-08 -4.30973e-09 2.44674e-08)
(2.87348e-08 -5.03242e-09 2.51214e-08)
(9.11001e-09 -7.26156e-09 2.66489e-08)
(3.96512e-09 -8.85286e-09 2.75175e-08)
(-1.53456e-08 -9.78922e-09 2.76832e-08)
(3.58192e-08 -2.95932e-08 2.71834e-08)
(1.172e-08 -2.84009e-08 2.8735e-08)
(4.58712e-09 -3.0032e-08 2.96266e-08)
(-1.93192e-08 -3.45978e-08 2.98231e-08)
(1.05079e-08 1.03458e-08 5.59756e-10)
(2.7663e-12 1.53486e-09 1.23474e-09)
(1.67026e-10 1.38186e-09 1.34827e-09)
(-1.0029e-08 9.71748e-09 8.83417e-10)
(1.66868e-08 7.66939e-09 4.92616e-09)
(1.87716e-09 2.73043e-09 6.22636e-09)
(-8.08546e-10 2.26716e-09 6.50767e-09)
(-1.522e-08 6.19717e-09 5.72803e-09)
(1.73091e-08 4.88567e-09 9.36754e-09)
(2.59245e-09 2.82801e-09 1.09021e-08)
(-1.76462e-10 2.1061e-09 1.13079e-08)
(-1.45068e-08 2.68493e-09 1.05341e-08)
(1.72121e-08 2.53174e-09 1.2775e-08)
(2.96764e-09 1.26819e-09 1.44079e-08)
(1.20004e-09 3.23157e-10 1.49114e-08)
(-1.26582e-08 -3.22022e-10 1.42345e-08)
(1.80103e-08 2.07887e-10 1.54727e-08)
(3.73499e-09 -1.39941e-09 1.71591e-08)
(2.56841e-09 -2.55328e-09 1.7743e-08)
(-1.13066e-08 -3.25825e-09 1.71754e-08)
(2.0327e-08 -2.09122e-09 1.79089e-08)
(5.19137e-09 -4.41587e-09 1.96212e-08)
(3.61429e-09 -5.77503e-09 2.02715e-08)
(-1.11146e-08 -6.14991e-09 1.98131e-08)
(2.49556e-08 -5.89093e-09 2.00534e-08)
(7.52352e-09 -8.11795e-09 2.17715e-08)
(4.13349e-09 -9.66913e-09 2.24679e-08)
(-1.29401e-08 -1.05176e-08 2.21038e-08)
(3.21571e-08 -2.85914e-08 2.1152e-08)
(1.01251e-08 -2.73518e-08 2.28783e-08)
(4.65991e-09 -2.89343e-08 2.35834e-08)
(-1.71341e-08 -3.34511e-08 2.32446e-08)
(9.31949e-09 9.2054e-09 7.76119e-10)
(-2.35153e-10 1.06694e-09 1.18534e-09)
(3.14859e-10 9.30745e-10 1.26611e-09)
(-8.96387e-09 8.66723e-09 1.00659e-09)
(1.48638e-08 5.52857e-09 3.82017e-09)
(1.30172e-09 9.88326e-10 4.64013e-09)
(-5.35292e-10 5.66499e-10 4.84499e-09)
(-1.37333e-08 4.21621e-09 4.40341e-09)
(1.54591e-08 2.22811e-09 7.2792e-09)
(1.90179e-09 3.15738e-10 8.26211e-09)
(1.78339e-12 -3.56081e-10 8.56195e-09)
(-1.31941e-08 2.04561e-10 8.14082e-09)
(1.53862e-08 -6.00558e-11 1.0339e-08)
(2.22536e-09 -1.27596e-09 1.13889e-08)
(1.24026e-09 -2.17012e-09 1.17663e-08)
(-1.15532e-08 -2.74084e-09 1.14343e-08)
(1.61643e-08 -1.96247e-09 1.2855e-08)
(2.94004e-09 -3.5495e-09 1.39431e-08)
(2.49826e-09 -4.65377e-09 1.43864e-08)
(-1.0341e-08 -5.26566e-09 1.41513e-08)
(1.84719e-08 -3.6908e-09 1.49461e-08)
(4.35244e-09 -6.00705e-09 1.60558e-08)
(3.45189e-09 -7.31756e-09 1.65535e-08)
(-1.0273e-08 -7.59569e-09 1.64098e-08)
(2.31435e-08 -6.95142e-09 1.66112e-08)
(6.66093e-09 -9.17558e-09 1.77285e-08)
(3.88143e-09 -1.06791e-08 1.82622e-08)
(-1.22513e-08 -1.14325e-08 1.81925e-08)
(3.03855e-08 -2.88154e-08 1.7626e-08)
(9.24582e-09 -2.75848e-08 1.87543e-08)
(4.32677e-09 -2.91233e-08 1.92919e-08)
(-1.65791e-08 -3.35426e-08 1.92359e-08)
(8.768e-09 8.69432e-09 7.79454e-10)
(-3.10489e-10 9.17007e-10 9.87915e-10)
(3.38576e-10 7.94279e-10 1.04469e-09)
(-8.49541e-09 8.22309e-09 9.41002e-10)
(1.3996e-08 4.59154e-09 3.00569e-09)
(1.07201e-09 2.69599e-10 3.44149e-09)
(-4.98532e-10 -1.15472e-10 3.58689e-09)
(-1.30966e-08 3.41053e-09 3.4183e-09)
(1.45898e-08 8.3399e-10 5.53634e-09)
(1.60741e-09 -9.92266e-10 6.07094e-09)
(-5.14151e-11 -1.61644e-09 6.28568e-09)
(-1.27038e-08 -1.03238e-09 6.15194e-09)
(1.45493e-08 -1.67833e-09 7.94374e-09)
(1.89483e-09 -2.85924e-09 8.52118e-09)
(1.07429e-09 -3.70321e-09 8.7941e-09)
(-1.12392e-08 -4.19838e-09 8.73512e-09)
(1.53217e-08 -3.52666e-09 1.00122e-08)
(2.56788e-09 -5.09122e-09 1.06166e-08)
(2.24018e-09 -6.14646e-09 1.09402e-08)
(-1.0152e-08 -6.67613e-09 1.09587e-08)
(1.76084e-08 -5.06177e-09 1.17106e-08)
(3.9382e-09 -7.36001e-09 1.23351e-08)
(3.12068e-09 -8.62411e-09 1.27005e-08)
(-1.01761e-08 -8.82414e-09 1.27878e-08)
(2.22743e-08 -8.15356e-09 1.30568e-08)
(6.21433e-09 -1.0363e-08 1.36935e-08)
(3.4848e-09 -1.18241e-08 1.40864e-08)
(-1.22437e-08 -1.25062e-08 1.42255e-08)
(2.95118e-08 -2.95533e-08 1.40342e-08)
(8.77542e-09 -2.83258e-08 1.46806e-08)
(3.86986e-09 -2.98277e-08 1.50757e-08)
(-1.66481e-08 -3.41701e-08 1.52243e-08)
(8.4948e-09 8.39505e-09 6.24292e-10)
(-3.33391e-10 8.14642e-10 7.24768e-10)
(3.31332e-10 7.01747e-10 7.62569e-10)
(-8.27433e-09 7.97009e-09 7.31135e-10)
(1.35644e-08 4.10879e-09 2.18098e-09)
(9.75345e-10 -9.32191e-11 2.40004e-09)
(-5.22784e-10 -4.50929e-10 2.49722e-09)
(-1.28136e-08 3.02269e-09 2.45511e-09)
(1.41555e-08 9.74976e-11 3.90652e-09)
(1.47129e-09 -1.67797e-09 4.1827e-09)
(-1.4237e-10 -2.26537e-09 4.327e-09)
(-1.25204e-08 -1.65028e-09 4.31818e-09)
(1.41321e-08 -2.63574e-09 5.59549e-09)
(1.73047e-09 -3.7915e-09 5.89929e-09)
(9.03691e-10 -4.5956e-09 6.08384e-09)
(-1.1177e-08 -5.03039e-09 6.1288e-09)
(1.48979e-08 -4.58897e-09 7.09527e-09)
(2.37033e-09 -6.13275e-09 7.41856e-09)
(2.00182e-09 -7.1486e-09 7.63866e-09)
(-1.01819e-08 -7.61647e-09 7.73802e-09)
(1.71612e-08 -6.14512e-09 8.34958e-09)
(3.70498e-09 -8.42246e-09 8.68989e-09)
(2.8284e-09 -9.64962e-09 8.9397e-09)
(-1.02703e-08 -9.79462e-09 9.08559e-09)
(2.18061e-08 -9.23211e-09 9.37249e-09)
(5.95052e-09 -1.14193e-08 9.72552e-09)
(3.14581e-09 -1.28473e-08 9.99477e-09)
(-1.23922e-08 -1.34845e-08 1.01742e-08)
(2.90262e-08 -3.03671e-08 1.01904e-08)
(8.48815e-09 -2.91242e-08 1.05502e-08)
(3.48819e-09 -3.05979e-08 1.08208e-08)
(-1.68436e-08 -3.48989e-08 1.10075e-08)
(8.3511e-09 8.22241e-09 3.94406e-10)
(-3.42772e-10 7.48078e-10 4.40092e-10)
(3.24032e-10 6.41528e-10 4.61756e-10)
(-8.16081e-09 7.82624e-09 4.55273e-10)
(1.33375e-08 3.84303e-09 1.32099e-09)
(9.27124e-10 -2.94041e-10 1.42404e-09)
(-5.45015e-10 -6.34024e-10 1.47984e-09)
(-1.26744e-08 2.81748e-09 1.47754e-09)
(1.39234e-08 -2.95893e-10 2.32707e-09)
(1.39849e-09 -2.04182e-09 2.46022e-09)
(-2.05784e-10 -2.60497e-09 2.54333e-09)
(-1.24394e-08 -1.96617e-09 2.5631e-09)
(1.39044e-08 -3.17551e-09 3.32019e-09)
(1.63718e-09 -4.31422e-09 3.46952e-09)
(7.91352e-10 -5.09154e-09 3.57623e-09)
(-1.11676e-08 -5.48644e-09 3.62752e-09)
(1.4662e-08 -5.24748e-09 4.21986e-09)
(2.25323e-09 -6.77545e-09 4.38153e-09)
(1.84623e-09 -7.76458e-09 4.5093e-09)
(-1.02298e-08 -8.19244e-09 4.59214e-09)
(1.69063e-08 -6.88361e-09 4.98855e-09)
(3.56246e-09 -9.1438e-09 5.16168e-09)
(2.63729e-09 -1.03459e-08 5.30718e-09)
(-1.03589e-08 -1.04564e-08 5.41671e-09)
(2.15327e-08 -1.00134e-08 5.63304e-09)
(5.78583e-09 -1.21801e-08 5.81528e-09)
(2.92362e-09 -1.35857e-08 5.97241e-09)
(-1.25142e-08 -1.41977e-08 6.10083e-09)
(2.87383e-08 -3.10103e-08 6.17326e-09)
(8.3059e-09 -2.97457e-08 6.35909e-09)
(3.23812e-09 -3.12004e-08 6.517e-09)
(-1.69957e-08 -3.54845e-08 6.6504e-09)
(8.2864e-09 8.14327e-09 1.34142e-10)
(-3.47134e-10 7.16198e-10 1.47451e-10)
(3.20997e-10 6.12744e-10 1.54508e-10)
(-8.10994e-09 7.76086e-09 1.53904e-10)
(1.32348e-08 3.72138e-09 4.42054e-10)
(9.04798e-10 -3.86575e-10 4.72641e-10)
(-5.55041e-10 -7.17895e-10 4.90831e-10)
(-1.26123e-08 2.72517e-09 4.92939e-10)
(1.38166e-08 -4.72326e-10 7.72948e-10)
(1.36396e-09 -2.2043e-09 8.13025e-10)
(-2.3494e-10 -2.75549e-09 8.4016e-10)
(-1.24035e-08 -2.10457e-09 8.49818e-10)
(1.37974e-08 -3.42232e-09 1.10015e-09)
(1.59177e-09 -4.55223e-09 1.14563e-09)
(7.39225e-10 -5.31623e-09 1.18054e-09)
(-1.11642e-08 -5.69169e-09 1.20049e-09)
(1.45493e-08 -5.5634e-09 1.39929e-09)
(2.19534e-09 -7.08285e-09 1.44905e-09)
(1.77324e-09 -8.0586e-09 1.49093e-09)
(-1.02533e-08 -8.46703e-09 1.52115e-09)
(1.67831e-08 -7.25499e-09 1.65808e-09)
(3.49145e-09 -9.50577e-09 1.71188e-09)
(2.54667e-09 -1.06953e-08 1.75966e-09)
(-1.04021e-08 -1.07892e-08 1.79855e-09)
(2.13999e-08 -1.04177e-08 1.87841e-09)
(5.70349e-09 -1.25726e-08 1.93546e-09)
(2.81725e-09 -1.39669e-08 1.98711e-09)
(-1.25741e-08 -1.45676e-08 2.03213e-09)
(2.8598e-08 -3.13572e-08 2.06668e-09)
(8.21441e-09 -3.00783e-08 2.1248e-09)
(3.1178e-09 -3.15233e-08 2.1767e-09)
(-1.7071e-08 -3.58023e-08 2.22353e-09)
)
;

boundaryField
{
    interface
    {
        type            solidTraction;
        traction        uniform (0 0 0);
        pressure        uniform 0;
        secondOrder     false;
        setEffectiveTraction false;
        relaxationFactor 1;
        value           nonuniform List<vector> 
192
(
(7.42229e-08 3.92688e-08 1.66497e-08)
(8.00738e-08 2.52948e-08 2.87926e-08)
(8.23099e-08 1.56734e-08 3.36348e-08)
(8.40139e-08 1.05074e-08 3.66886e-08)
(8.70788e-08 7.16111e-09 3.95956e-08)
(9.2472e-08 4.49683e-09 4.31043e-08)
(1.00943e-07 -3.59937e-10 4.79546e-08)
(1.13186e-07 -2.99162e-08 5.43069e-08)
(6.23166e-08 2.26661e-08 -2.19848e-10)
(6.73156e-08 1.48542e-08 6.14205e-09)
(6.88013e-08 9.63538e-09 1.10788e-08)
(7.01048e-08 6.37973e-09 1.42271e-08)
(7.29965e-08 3.8071e-09 1.67764e-08)
(7.85058e-08 1.57701e-09 1.95144e-08)
(8.76247e-08 -2.13152e-09 2.26012e-08)
(1.01741e-07 -2.74284e-08 2.47452e-08)
(5.41814e-08 1.71444e-08 -3.47028e-10)
(5.90763e-08 9.36968e-09 3.56175e-09)
(6.04405e-08 5.01705e-09 7.95818e-09)
(6.16085e-08 2.70717e-09 1.13589e-08)
(6.43793e-08 9.86809e-10 1.40369e-08)
(6.98939e-08 -3.5457e-10 1.64723e-08)
(7.92679e-08 -2.93297e-09 1.86553e-08)
(9.40613e-08 -2.63954e-08 1.97933e-08)
(4.94905e-08 1.52512e-08 3.41003e-10)
(5.40686e-08 7.06349e-09 3.14724e-09)
(5.54634e-08 2.35878e-09 6.59912e-09)
(5.66456e-08 1.16383e-10 9.67302e-09)
(5.93738e-08 -1.19081e-09 1.21826e-08)
(6.4861e-08 -1.94565e-09 1.42662e-08)
(7.4294e-08 -3.97258e-09 1.59407e-08)
(8.92913e-08 -2.66044e-08 1.69645e-08)
(4.68863e-08 1.43853e-08 5.73178e-10)
(5.12426e-08 6.04701e-09 2.68068e-09)
(5.26673e-08 9.72391e-10 5.21026e-09)
(5.38917e-08 -1.4952e-09 7.63003e-09)
(5.66118e-08 -2.76166e-09 9.69544e-09)
(6.20643e-08 -3.32323e-09 1.13828e-08)
(7.14691e-08 -5.17721e-09 1.27224e-08)
(8.64746e-08 -2.73432e-08 1.36943e-08)
(4.53979e-08 1.39098e-08 5.20004e-10)
(4.96342e-08 5.524e-09 2.01625e-09)
(5.10711e-08 2.39493e-10 3.73982e-09)
(5.23224e-08 -2.44998e-09 5.43415e-09)
(5.50381e-08 -3.83145e-09 6.93024e-09)
(6.04554e-08 -4.41769e-09 8.17395e-09)
(6.98083e-08 -6.26536e-09 9.187e-09)
(8.47738e-08 -2.81653e-08 9.99693e-09)
(4.4563e-08 1.36446e-08 3.42269e-10)
(4.87351e-08 5.23614e-09 1.23851e-09)
(5.01736e-08 -1.54083e-10 2.24227e-09)
(5.14356e-08 -2.9907e-09 3.23645e-09)
(5.41445e-08 -4.49677e-09 4.13264e-09)
(5.95338e-08 -5.16553e-09 4.89398e-09)
(6.88432e-08 -7.05485e-09 5.53144e-09)
(8.37719e-08 -2.88169e-08 6.06617e-09)
(4.41828e-08 1.35235e-08 1.17954e-10)
(4.83252e-08 5.10396e-09 4.16347e-10)
(4.97623e-08 -3.31582e-10 7.46214e-10)
(5.10268e-08 -3.23898e-09 1.07337e-09)
(5.37307e-08 -4.81671e-09 1.37109e-09)
(5.91047e-08 -5.54195e-09 1.62729e-09)
(6.83908e-08 -7.46342e-09 1.84518e-09)
(8.32998e-08 -2.91686e-08 2.0316e-09)
(1.68984e-08 4.05785e-08 7.81625e-08)
(2.63737e-08 2.71028e-08 8.73403e-08)
(2.75727e-08 1.73699e-08 9.33896e-08)
(2.76856e-08 1.17494e-08 9.81467e-08)
(2.86593e-08 7.95338e-09 1.03251e-07)
(3.10038e-08 4.89587e-09 1.09872e-07)
(3.54417e-08 -3.95737e-10 1.18845e-07)
(4.23626e-08 -3.03484e-08 1.30772e-07)
(8.62245e-10 2.78219e-08 7.15624e-08)
(4.02635e-09 2.05191e-08 8.08714e-08)
(5.1884e-09 1.48475e-08 8.63149e-08)
(5.75724e-09 1.03639e-08 9.0731e-08)
(6.69208e-09 6.31956e-09 9.57579e-08)
(8.27566e-09 2.59691e-09 1.02523e-07)
(1.06866e-08 -2.55012e-09 1.12071e-07)
(1.33915e-08 -2.93299e-08 1.25815e-07)
(-1.33282e-10 2.77694e-08 7.11081e-08)
(-1.46499e-09 2.01755e-08 8.06254e-08)
(-5.32967e-10 1.42157e-08 8.62218e-08)
(1.24451e-09 9.47626e-09 9.07527e-08)
(2.92493e-09 5.20004e-09 9.58693e-08)
(4.23832e-09 1.25419e-09 1.02709e-07)
(5.00786e-09 -4.11216e-09 1.12327e-07)
(5.69077e-09 -3.09843e-08 1.26176e-07)
(-1.59355e-08 4.02011e-08 7.70487e-08)
(-2.35291e-08 2.58444e-08 8.69448e-08)
(-2.26599e-08 1.53035e-08 9.3455e-08)
(-2.04399e-08 8.96267e-09 9.85535e-08)
(-1.87998e-08 4.51163e-09 1.03926e-07)
(-1.82578e-08 8.28646e-10 1.10768e-07)
(-1.95761e-08 -5.09081e-09 1.19939e-07)
(-2.32186e-08 -3.54233e-08 1.32148e-07)
(-7.12718e-08 3.76709e-08 1.71964e-08)
(-7.54148e-08 2.28379e-08 3.02684e-08)
(-7.57066e-08 1.23563e-08 3.57882e-08)
(-7.51649e-08 6.37325e-09 3.93363e-08)
(-7.56862e-08 2.25572e-09 4.26255e-08)
(-7.82696e-08 -1.14906e-09 4.64518e-08)
(-8.37611e-08 -6.71828e-09 5.15822e-08)
(-9.30082e-08 -3.66794e-08 5.81514e-08)
(-5.93734e-08 2.12899e-08 3.20491e-10)
(-6.30847e-08 1.25237e-08 7.47382e-09)
(-6.29314e-08 6.40783e-09 1.30081e-08)
(-6.22136e-08 2.32356e-09 1.66163e-08)
(-6.27249e-08 -1.02642e-09 1.95322e-08)
(-6.55387e-08 -3.99736e-09 2.25731e-08)
(-7.17642e-08 -8.39733e-09 2.59018e-08)
(-8.30172e-08 -3.40358e-08 2.8178e-08)
(-5.14529e-08 1.60298e-08 4.81114e-11)
(-5.53279e-08 7.31661e-09 4.56084e-09)
(-5.53037e-08 2.04445e-09 9.43672e-09)
(-5.46621e-08 -1.12216e-09 1.3231e-08)
(-5.52206e-08 -3.64426e-09 1.6237e-08)
(-5.81661e-08 -5.7417e-09 1.89437e-08)
(-6.47353e-08 -9.01283e-09 2.13304e-08)
(-7.67282e-08 -3.28074e-08 2.25598e-08)
(-4.69648e-08 1.43415e-08 6.2322e-10)
(-5.07266e-08 5.27376e-09 3.87264e-09)
(-5.09281e-08 -3.40497e-10 7.69019e-09)
(-5.04792e-08 -3.45421e-09 1.10797e-08)
(-5.11474e-08 -5.58581e-09 1.38628e-08)
(-5.41872e-08 -7.11824e-09 1.61753e-08)
(-6.09047e-08 -9.85601e-09 1.80185e-08)
(-7.31589e-08 -3.28381e-08 1.91146e-08)
(-4.45035e-08 1.36211e-08 7.68652e-10)
(-4.81868e-08 4.46262e-09 3.18848e-09)
(-4.85624e-08 -1.49676e-09 5.98362e-09)
(-4.82955e-08 -4.83643e-09 8.64116e-09)
(-4.90818e-08 -6.942e-09 1.09191e-08)
(-5.21928e-08 -8.30135e-09 1.27872e-08)
(-5.89646e-08 -1.08882e-08 1.42608e-08)
(-7.12842e-08 -3.34272e-08 1.52905e-08)
(-4.31054e-08 1.32421e-08 6.47509e-10)
(-4.67627e-08 4.0842e-09 2.34964e-09)
(-4.72502e-08 -2.05949e-09 4.25215e-09)
(-4.71118e-08 -5.6151e-09 6.11097e-09)
(-4.79892e-08 -7.84322e-09 7.75753e-09)
(-5.11483e-08 -9.24219e-09 9.13136e-09)
(-5.79355e-08 -1.18412e-08 1.02419e-08)
(-7.02646e-08 -3.41335e-08 1.10945e-08)
(-4.23231e-08 1.30351e-08 4.14192e-10)
(-4.59725e-08 3.88711e-09 1.42723e-09)
(-4.65238e-08 -2.34292e-09 2.53391e-09)
(-4.64616e-08 -6.03894e-09 3.62437e-09)
(-4.73958e-08 -8.39471e-09 4.61002e-09)
(-5.05839e-08 -9.88542e-09 5.44969e-09)
(-5.73748e-08 -1.25385e-08 6.14637e-09)
(-6.97028e-08 -3.47062e-08 6.70729e-09)
(-4.1967e-08 1.29414e-08 1.4119e-10)
(-4.5613e-08 3.79853e-09 4.77412e-10)
(-4.61927e-08 -2.46663e-09 8.40838e-10)
(-4.61651e-08 -6.22933e-09 1.19966e-09)
(-4.71258e-08 -8.65766e-09 1.52703e-09)
(-5.03274e-08 -1.02091e-08 1.80937e-09)
(-5.71192e-08 -1.29005e-08 2.04711e-09)
(-6.94462e-08 -3.50181e-08 2.24235e-09)
(4.27323e-08 -1.0678e-07 5.62927e-08)
(3.66049e-08 -9.87263e-08 2.63194e-08)
(3.29467e-08 -9.3603e-08 2.09575e-08)
(3.11848e-08 -9.07957e-08 1.78664e-08)
(3.03115e-08 -8.95639e-08 1.44221e-08)
(2.98179e-08 -8.9138e-08 1.05546e-08)
(2.95203e-08 -8.90506e-08 6.42076e-09)
(2.93741e-08 -8.90577e-08 2.15339e-09)
(1.37492e-08 -1.0254e-07 5.4571e-08)
(1.18308e-08 -9.27027e-08 2.78044e-08)
(1.02119e-08 -8.7051e-08 2.26743e-08)
(9.32386e-09 -8.41357e-08 1.89978e-08)
(8.84509e-09 -8.29139e-08 1.50655e-08)
(8.54692e-09 -8.24953e-08 1.09052e-08)
(8.35447e-09 -8.24016e-08 6.59762e-09)
(8.25701e-09 -8.24015e-08 2.20794e-09)
(6.05311e-09 -1.03612e-07 5.55224e-08)
(6.13746e-09 -9.36909e-08 2.86747e-08)
(6.18584e-09 -8.79924e-08 2.33563e-08)
(5.81735e-09 -8.50373e-08 1.95153e-08)
(5.33206e-09 -8.37813e-08 1.54444e-08)
(4.933e-09 -8.3336e-08 1.1164e-08)
(4.67395e-09 -8.32241e-08 6.74836e-09)
(4.54994e-09 -8.32147e-08 2.25744e-09)
(-2.28489e-08 -1.10313e-07 5.9229e-08)
(-1.84575e-08 -1.02031e-07 2.88964e-08)
(-1.63254e-08 -9.67757e-08 2.29809e-08)
(-1.58252e-08 -9.38499e-08 1.94158e-08)
(-1.59326e-08 -9.25166e-08 1.55634e-08)
(-1.61497e-08 -9.20124e-08 1.13362e-08)
(-1.63125e-08 -9.18718e-08 6.87627e-09)
(-1.6392e-08 -9.18521e-08 2.30299e-09)
)
;
        gradient        uniform (0 0 0);
    }
    symmetry
    {
        type            solidSymmetry;
        patchType       symmetry;
        secondOrder     false;
        value           nonuniform List<vector> 
32
(
(8.2864e-09 8.14327e-09 0)
(1.32348e-08 3.72138e-09 0)
(1.38166e-08 -4.72326e-10 0)
(1.37974e-08 -3.42232e-09 0)
(1.45493e-08 -5.5634e-09 0)
(1.67831e-08 -7.25499e-09 0)
(2.13999e-08 -1.04177e-08 0)
(2.8598e-08 -3.13572e-08 0)
(-3.47134e-10 7.16198e-10 0)
(9.04798e-10 -3.86575e-10 0)
(1.36396e-09 -2.2043e-09 0)
(1.59177e-09 -4.55223e-09 0)
(2.19534e-09 -7.08285e-09 0)
(3.49145e-09 -9.50577e-09 0)
(5.70349e-09 -1.25726e-08 0)
(8.21441e-09 -3.00783e-08 0)
(3.20997e-10 6.12744e-10 0)
(-5.55041e-10 -7.17895e-10 0)
(-2.3494e-10 -2.75549e-09 0)
(7.39225e-10 -5.31623e-09 0)
(1.77324e-09 -8.0586e-09 0)
(2.54667e-09 -1.06953e-08 0)
(2.81725e-09 -1.39669e-08 0)
(3.1178e-09 -3.15233e-08 0)
(-8.10994e-09 7.76086e-09 0)
(-1.26123e-08 2.72517e-09 0)
(-1.24035e-08 -2.10457e-09 0)
(-1.11642e-08 -5.69169e-09 0)
(-1.02533e-08 -8.46703e-09 0)
(-1.04021e-08 -1.07892e-08 0)
(-1.25741e-08 -1.45676e-08 0)
(-1.7071e-08 -3.58023e-08 0)
)
;
    }
    bottom
    {
        type            fixedDisplacement;
        value           uniform (0 0 0);
    }
}


// ************************************************************************* //
