/*--------------------------------*- C++ -*----------------------------------*\
| =========                 |                                                 |
| \\      /  F ield         | OpenFOAM: The Open Source CFD Toolbox           |
|  \\    /   O peration     | Version:  v1912                                 |
|   \\  /    A nd           | Website:  www.openfoam.com                      |
|    \\/     M anipulation  |                                                 |
\*---------------------------------------------------------------------------*/
FoamFile
{
    version     2.0;
    format      ascii;
    class       volVectorField;
    location    "0.39/solid";
    object      DD_0_0;
}
// * * * * * * * * * * * * * * * * * * * * * * * * * * * * * * * * * * * * * //

dimensions      [0 1 0 0 0 0 0];


internalField   nonuniform List<vector> 
256
(
(4.20338e-10 3.95532e-10 4.63484e-10)
(8.25049e-11 2.09207e-10 3.9201e-10)
(-9.15022e-11 2.0515e-10 3.87941e-10)
(-4.13596e-10 3.7863e-10 4.49991e-10)
(7.00631e-10 2.46509e-10 9.76481e-10)
(1.66536e-10 1.19196e-10 8.81743e-10)
(-1.82343e-10 1.16879e-10 8.74282e-10)
(-6.95724e-10 2.40073e-10 9.52467e-10)
(7.29688e-10 -4.44857e-11 1.31608e-09)
(1.75726e-10 -9.32601e-11 1.21822e-09)
(-1.99348e-10 -9.24741e-11 1.20911e-09)
(-7.3267e-10 -4.03676e-11 1.287e-09)
(7.0029e-10 -3.4188e-10 1.61211e-09)
(1.57178e-10 -3.70928e-10 1.50362e-09)
(-1.92411e-10 -3.6709e-10 1.4934e-09)
(-7.14811e-10 -3.28885e-10 1.5796e-09)
(6.95377e-10 -6.56801e-10 1.91717e-09)
(1.46414e-10 -7.11126e-10 1.79143e-09)
(-1.97053e-10 -7.04548e-10 1.7803e-09)
(-7.25051e-10 -6.35971e-10 1.88189e-09)
(7.79501e-10 -1.03007e-09 2.26697e-09)
(1.71973e-10 -1.12246e-09 2.12198e-09)
(-2.41767e-10 -1.1134e-09 2.11e-09)
(-8.28052e-10 -1.00208e-09 2.22924e-09)
(1.03093e-09 -1.58937e-09 2.69161e-09)
(2.55226e-10 -1.65211e-09 2.53815e-09)
(-3.48596e-10 -1.64063e-09 2.52517e-09)
(-1.1018e-09 -1.55426e-09 2.65127e-09)
(1.41148e-09 -2.57056e-09 3.11501e-09)
(3.48027e-10 -2.43566e-09 2.98258e-09)
(-4.71254e-10 -2.41961e-09 2.96826e-09)
(-1.50762e-09 -2.52156e-09 3.07145e-09)
(2.12082e-10 1.12438e-10 1.52377e-10)
(3.78157e-11 -1.58478e-11 1.86854e-10)
(-4.13282e-11 -1.73589e-11 1.85223e-10)
(-2.02998e-10 1.01963e-10 1.47319e-10)
(3.65891e-10 -6.09651e-11 5.05698e-10)
(8.33487e-11 -1.52512e-10 5.71439e-10)
(-8.75343e-11 -1.5308e-10 5.67107e-10)
(-3.54194e-10 -6.36268e-11 4.9287e-10)
(3.7375e-10 -3.08748e-10 8.26063e-10)
(8.52675e-11 -3.44995e-10 9.01389e-10)
(-9.3454e-11 -3.43369e-10 8.95443e-10)
(-3.66539e-10 -3.03188e-10 8.08463e-10)
(3.41248e-10 -5.81494e-10 1.11506e-09)
(6.77498e-11 -6.05622e-10 1.18959e-09)
(-8.47965e-11 -6.01425e-10 1.18261e-09)
(-3.42964e-10 -5.68172e-10 1.09422e-09)
(3.29868e-10 -8.80591e-10 1.40175e-09)
(5.73029e-11 -9.31389e-10 1.47161e-09)
(-8.76105e-11 -9.24693e-10 1.46378e-09)
(-3.44576e-10 -8.59978e-10 1.37822e-09)
(4.0274e-10 -1.21592e-09 1.70356e-09)
(8.12521e-11 -1.30633e-09 1.76864e-09)
(-1.28934e-10 -1.29731e-09 1.75999e-09)
(-4.34389e-10 -1.18852e-09 1.67749e-09)
(6.44143e-10 -1.64797e-09 1.9926e-09)
(1.62136e-10 -1.70847e-09 2.05628e-09)
(-2.3178e-10 -1.69733e-09 2.04683e-09)
(-6.96198e-10 -1.61408e-09 1.96405e-09)
(1.0286e-09 -2.34583e-09 2.13364e-09)
(2.52872e-10 -2.19002e-09 2.19956e-09)
(-3.50773e-10 -2.17514e-09 2.18963e-09)
(-1.10385e-09 -2.29964e-09 2.10355e-09)
(8.19213e-11 1.67202e-11 7.93429e-11)
(-3.79734e-13 -6.95275e-11 1.27567e-10)
(-1.10956e-12 -7.06616e-11 1.26385e-10)
(-7.15911e-11 6.66284e-12 7.59315e-11)
(1.41059e-10 -2.10861e-10 3.3624e-10)
(8.43331e-12 -2.71906e-10 4.23331e-10)
(-6.94702e-12 -2.72145e-10 4.20173e-10)
(-1.24983e-10 -2.13514e-10 3.27284e-10)
(1.31719e-10 -4.65951e-10 6.16663e-10)
(2.52322e-12 -4.91199e-10 7.14353e-10)
(-1.8604e-12 -4.89531e-10 7.09807e-10)
(-1.17143e-10 -4.61071e-10 6.03651e-10)
(1.00656e-10 -7.21925e-10 8.87177e-10)
(-1.38787e-11 -7.4416e-10 9.85579e-10)
(8.34354e-12 -7.40173e-10 9.80046e-10)
(-9.24429e-11 -7.09812e-10 8.71117e-10)
(9.01669e-11 -9.82338e-10 1.1461e-09)
(-2.34567e-11 -1.03346e-09 1.24273e-09)
(6.86795e-12 -1.02714e-09 1.23639e-09)
(-9.27475e-11 -9.63262e-10 1.12747e-09)
(1.61344e-10 -1.24481e-09 1.38492e-09)
(-4.91549e-13 -1.33548e-09 1.48004e-09)
(-3.16157e-11 -1.32698e-09 1.47296e-09)
(-1.78908e-10 -1.21923e-09 1.36396e-09)
(3.98387e-10 -1.55841e-09 1.55721e-09)
(7.79116e-11 -1.62019e-09 1.65217e-09)
(-1.30398e-10 -1.60973e-09 1.64449e-09)
(-4.34537e-10 -1.52666e-09 1.53426e-09)
(7.72854e-10 -2.12017e-09 1.574e-09)
(1.6613e-10 -1.97276e-09 1.67097e-09)
(-2.45523e-10 -1.95867e-09 1.66308e-09)
(-8.30511e-10 -2.07601e-09 1.55014e-09)
(3.36399e-11 -1.4129e-11 6.88459e-11)
(-1.44835e-11 -7.78636e-11 9.87666e-11)
(1.38335e-11 -7.91013e-11 9.78813e-11)
(-2.24567e-11 -2.481e-11 6.63604e-11)
(5.31227e-11 -2.66392e-10 2.7001e-10)
(-2.19406e-11 -3.10694e-10 3.23875e-10)
(2.63857e-11 -3.11202e-10 3.21575e-10)
(-3.4147e-11 -2.70298e-10 2.63594e-10)
(3.69606e-11 -5.32221e-10 4.99154e-10)
(-3.12005e-11 -5.51699e-10 5.59029e-10)
(3.71643e-11 -5.50409e-10 5.55663e-10)
(-1.72332e-11 -5.28892e-10 4.89636e-10)
(1.05363e-11 -7.76335e-10 7.28317e-10)
(-4.54964e-11 -7.98681e-10 7.87727e-10)
(4.75169e-11 -7.95168e-10 7.83528e-10)
(5.01834e-12 -7.65971e-10 7.16246e-10)
(6.09578e-12 -1.00051e-09 9.41017e-10)
(-5.25335e-11 -1.0532e-09 9.98357e-10)
(4.55158e-11 -1.04743e-09 9.93453e-10)
(6.61729e-13 -9.83319e-10 9.26728e-10)
(8.11809e-11 -1.20632e-09 1.11626e-09)
(-2.85394e-11 -1.29826e-09 1.17192e-09)
(7.74275e-12 -1.29036e-09 1.16641e-09)
(-8.76191e-11 -1.18272e-09 1.10001e-09)
(3.15635e-10 -1.45777e-09 1.21681e-09)
(4.82182e-11 -1.52373e-09 1.27235e-09)
(-8.79421e-11 -1.5139e-09 1.26637e-09)
(-3.39069e-10 -1.42797e-09 1.19899e-09)
(6.782e-10 -1.97203e-09 1.20213e-09)
(1.34096e-10 -1.8429e-09 1.26119e-09)
(-1.99577e-10 -1.82935e-09 1.25508e-09)
(-7.21765e-10 -1.92937e-09 1.18365e-09)
(2.12995e-11 -2.44834e-11 6.07061e-11)
(-1.61038e-11 -7.84315e-11 7.50325e-11)
(1.58956e-11 -7.9793e-11 7.44e-11)
(-9.55703e-12 -3.56951e-11 5.89521e-11)
(3.20718e-11 -2.79922e-10 2.17245e-10)
(-2.64508e-11 -3.17587e-10 2.42086e-10)
(3.26371e-11 -3.18443e-10 2.40463e-10)
(-1.1234e-11 -2.8507e-10 2.12765e-10)
(1.68537e-11 -5.45741e-10 3.92877e-10)
(-3.53245e-11 -5.63735e-10 4.19483e-10)
(4.46537e-11 -5.62902e-10 4.17092e-10)
(6.30275e-12 -5.43975e-10 3.86177e-10)
(-4.16127e-12 -7.78958e-10 5.69313e-10)
(-4.71822e-11 -8.02625e-10 5.94493e-10)
(5.4294e-11 -7.9962e-10 5.91465e-10)
(2.48239e-11 -7.70289e-10 5.60675e-10)
(-2.31459e-12 -9.79007e-10 7.28774e-10)
(-5.15315e-11 -1.0335e-09 7.51799e-10)
(5.12532e-11 -1.02826e-09 7.48214e-10)
(1.58097e-11 -9.63551e-10 7.18389e-10)
(7.67765e-11 -1.15445e-09 8.50693e-10)
(-2.61151e-11 -1.24772e-09 8.72156e-10)
(1.35259e-11 -1.24036e-09 8.68089e-10)
(-7.49892e-11 -1.13257e-09 8.38764e-10)
(3.08798e-10 -1.38174e-09 9.11334e-10)
(4.95385e-11 -1.45149e-09 9.32863e-10)
(-7.98234e-11 -1.44215e-09 9.28445e-10)
(-3.22697e-10 -1.35352e-09 8.98204e-10)
(6.62166e-10 -1.87788e-09 8.94558e-10)
(1.33791e-10 -1.76374e-09 9.19367e-10)
(-1.88864e-10 -1.7506e-09 9.14865e-10)
(-6.9508e-10 -1.83644e-09 8.80957e-10)
(1.96515e-11 -2.74705e-11 4.73931e-11)
(-1.45806e-11 -7.75828e-11 5.35803e-11)
(1.46221e-11 -7.90326e-11 5.31605e-11)
(-7.55856e-12 -3.90436e-11 4.62376e-11)
(3.18749e-11 -2.77709e-10 1.60329e-10)
(-2.34702e-11 -3.1364e-10 1.70099e-10)
(3.07106e-11 -3.1477e-10 1.69024e-10)
(-9.87005e-12 -2.83775e-10 1.57387e-10)
(2.02967e-11 -5.37132e-10 2.83627e-10)
(-3.06464e-11 -5.55687e-10 2.93114e-10)
(4.21006e-11 -5.5523e-10 2.91524e-10)
(5.06072e-12 -5.36588e-10 2.79207e-10)
(3.92362e-12 -7.60713e-10 4.06171e-10)
(-4.04048e-11 -7.85991e-10 4.14101e-10)
(5.08525e-11 -7.83405e-10 4.12071e-10)
(2.01194e-11 -7.53393e-10 4.00415e-10)
(1.03388e-11 -9.4735e-10 5.14612e-10)
(-4.27554e-11 -1.00334e-09 5.20847e-10)
(4.70292e-11 -9.98533e-10 5.18421e-10)
(7.73834e-12 -9.33266e-10 5.0762e-10)
(9.19662e-11 -1.10999e-09 5.94135e-10)
(-1.63211e-11 -1.20416e-09 5.99301e-10)
(9.40212e-12 -1.19723e-09 5.9653e-10)
(-8.44704e-11 -1.08944e-09 5.86038e-10)
(3.21866e-10 -1.32982e-09 6.30988e-10)
(5.85771e-11 -1.40179e-09 6.36394e-10)
(-8.22358e-11 -1.39284e-09 6.33376e-10)
(-3.29058e-10 -1.30282e-09 6.22039e-10)
(6.68886e-10 -1.81721e-09 6.186e-10)
(1.41785e-10 -1.71218e-09 6.26344e-10)
(-1.89466e-10 -1.69935e-09 6.23274e-10)
(-6.94236e-10 -1.77673e-09 6.09338e-10)
(1.99807e-11 -2.77831e-11 2.9975e-11)
(-1.32286e-11 -7.64078e-11 3.24951e-11)
(1.34033e-11 -7.79134e-11 3.22565e-11)
(-7.68356e-12 -3.95812e-11 2.93214e-11)
(3.47243e-11 -2.71825e-10 9.82848e-11)
(-2.04869e-11 -3.07673e-10 1.01765e-10)
(2.83282e-11 -3.08979e-10 1.01154e-10)
(-1.20358e-11 -2.78472e-10 9.66199e-11)
(2.6266e-11 -5.24384e-10 1.71204e-10)
(-2.62021e-11 -5.43902e-10 1.74022e-10)
(3.8904e-11 -5.43696e-10 1.73115e-10)
(4.01063e-13 -5.24643e-10 1.68695e-10)
(1.30458e-11 -7.40963e-10 2.42765e-10)
(-3.45344e-11 -7.67513e-10 2.44487e-10)
(4.69883e-11 -7.65213e-10 2.43322e-10)
(1.30467e-11 -7.34549e-10 2.39479e-10)
(2.21984e-11 -9.20942e-10 3.0519e-10)
(-3.56687e-11 -9.77916e-10 3.05889e-10)
(4.27366e-11 -9.73404e-10 3.0449e-10)
(-1.29326e-12 -9.07788e-10 3.01172e-10)
(1.05127e-10 -1.07908e-09 3.50044e-10)
(-8.66626e-12 -1.17371e-09 3.50177e-10)
(5.28531e-12 -1.16706e-09 3.48571e-10)
(-9.4056e-11 -1.05943e-09 3.45364e-10)
(3.33507e-10 -1.29722e-09 3.70233e-10)
(6.57544e-11 -1.37017e-09 3.70608e-10)
(-8.5226e-11 -1.36148e-09 3.68855e-10)
(-3.36452e-10 -1.27104e-09 3.65044e-10)
(6.76522e-10 -1.78008e-09 3.62955e-10)
(1.48312e-10 -1.67968e-09 3.64674e-10)
(-1.91277e-10 -1.66708e-09 3.62894e-10)
(-6.97043e-10 -1.74028e-09 3.57588e-10)
(2.02595e-11 -2.75164e-11 1.02378e-11)
(-1.25927e-11 -7.5601e-11 1.09269e-11)
(1.28247e-11 -7.71338e-11 1.08496e-11)
(-7.86813e-12 -3.94232e-11 1.00266e-11)
(3.6322e-11 -2.67795e-10 3.3099e-11)
(-1.90332e-11 -3.03812e-10 3.39583e-11)
(2.71466e-11 -3.05203e-10 3.37603e-11)
(-1.33171e-11 -2.74722e-10 3.25606e-11)
(2.94511e-11 -5.16307e-10 5.72096e-11)
(-2.40045e-11 -5.36422e-10 5.77855e-11)
(3.72827e-11 -5.36341e-10 5.74911e-11)
(-2.17266e-12 -5.16958e-10 5.63967e-11)
(1.77664e-11 -7.29275e-10 8.06908e-11)
(-3.16424e-11 -7.56494e-10 8.08822e-11)
(4.5036e-11 -7.54337e-10 8.05033e-11)
(9.29255e-12 -7.23312e-10 7.96233e-11)
(2.81691e-11 -9.06541e-10 1.01028e-10)
(-3.22158e-11 -9.63987e-10 1.00884e-10)
(4.06083e-11 -9.59623e-10 1.00427e-10)
(-5.91709e-12 -8.93853e-10 9.97186e-11)
(1.11626e-10 -1.06339e-09 1.15524e-10)
(-4.9682e-12 -1.15819e-09 1.15208e-10)
(3.28151e-12 -1.15168e-09 1.14682e-10)
(-9.88374e-11 -1.04419e-09 1.13994e-10)
(3.39225e-10 -1.28135e-09 1.21984e-10)
(6.92214e-11 -1.35463e-09 1.21767e-10)
(-8.66713e-11 -1.34607e-09 1.21192e-10)
(-3.40115e-10 -1.25559e-09 1.20285e-10)
(6.80288e-10 -1.76229e-09 1.19598e-10)
(1.51458e-10 -1.66375e-09 1.19815e-10)
(-1.92131e-10 -1.65126e-09 1.19232e-10)
(-6.9846e-10 -1.72283e-09 1.17841e-10)
)
;

boundaryField
{
    interface
    {
        type            calculated;
        value           nonuniform List<vector> 
192
(
(4.09497e-10 6.75774e-10 4.05993e-10)
(6.63396e-10 3.23845e-10 8.80708e-10)
(6.93634e-10 -4.45724e-11 1.21375e-09)
(6.69291e-10 -3.50459e-10 1.51052e-09)
(6.64374e-10 -6.36999e-10 1.8163e-09)
(7.36011e-10 -9.46181e-10 2.16555e-09)
(9.58413e-10 -1.43138e-09 2.58827e-09)
(1.4363e-09 -2.4662e-09 3.00946e-09)
(1.03401e-10 2.56931e-10 6.77761e-11)
(2.3849e-10 -2.05496e-11 3.65809e-10)
(2.41829e-10 -3.1491e-10 6.76574e-10)
(2.06808e-10 -5.92466e-10 9.65151e-10)
(1.88788e-10 -8.6522e-10 1.25045e-09)
(2.43755e-10 -1.13735e-09 1.54902e-09)
(4.53448e-10 -1.4915e-09 1.83446e-09)
(9.56742e-10 -2.24365e-09 1.97398e-09)
(-3.08433e-11 7.24647e-11 3.47356e-11)
(2.72661e-11 -1.98414e-10 2.58051e-10)
(1.51881e-11 -4.76054e-10 5.32469e-10)
(-1.83421e-11 -7.32315e-10 8.04502e-10)
(-3.37043e-11 -9.67168e-10 1.06515e-09)
(2.47405e-11 -1.16776e-09 1.30453e-09)
(2.40075e-10 -1.40553e-09 1.47508e-09)
(7.31034e-10 -2.01992e-09 1.4864e-09)
(-8.05445e-11 7.5611e-12 5.36925e-11)
(-5.49939e-11 -2.65563e-10 2.42765e-10)
(-7.23604e-11 -5.42869e-10 4.70439e-10)
(-1.00393e-10 -7.84053e-10 7.02115e-10)
(-1.08071e-10 -9.82853e-10 9.17898e-10)
(-4.24385e-11 -1.12894e-09 1.09512e-09)
(1.75916e-10 -1.30852e-09 1.19442e-09)
(6.50542e-10 -1.87271e-09 1.17446e-09)
(-9.46162e-11 -1.1141e-11 5.72107e-11)
(-7.60327e-11 -2.81035e-10 2.11935e-10)
(-9.15333e-11 -5.54801e-10 3.88713e-10)
(-1.13215e-10 -7.83753e-10 5.67662e-10)
(-1.13311e-10 -9.58775e-10 7.29836e-10)
(-4.17611e-11 -1.07668e-09 8.53391e-10)
(1.76882e-10 -1.23539e-09 9.12893e-10)
(6.37851e-10 -1.77913e-09 8.9223e-10)
(-9.67764e-11 -1.45894e-11 4.70645e-11)
(-7.63934e-11 -2.7755e-10 1.60993e-10)
(-8.77079e-11 -5.44122e-10 2.85981e-10)
(-1.03997e-10 -7.63205e-10 4.10473e-10)
(-9.86046e-11 -9.25342e-10 5.20741e-10)
(-2.34311e-11 -1.03211e-09 6.01223e-10)
(1.94376e-10 -1.18559e-09 6.37166e-10)
(6.45574e-10 -1.71905e-09 6.2219e-10)
(-9.63071e-11 -1.41073e-11 3.01277e-11)
(-7.33374e-11 -2.70255e-10 9.93974e-11)
(-8.12162e-11 -5.29806e-10 1.73493e-10)
(-9.38658e-11 -7.41982e-10 2.46226e-10)
(-8.51728e-11 -8.97924e-10 3.09648e-10)
(-8.12473e-12 -1.00126e-09 3.5496e-10)
(2.08748e-10 -1.15437e-09 3.74574e-10)
(6.5375e-10 -1.68248e-09 3.65806e-10)
(-9.5822e-11 -1.33715e-11 1.03078e-11)
(-7.15155e-11 -2.65498e-10 3.34987e-11)
(-7.76599e-11 -5.20948e-10 5.80061e-11)
(-8.85406e-11 -7.29598e-10 8.18711e-11)
(-7.83362e-11 -8.83078e-10 1.02521e-10)
(-5.16345e-13 -9.85629e-10 1.17149e-10)
(2.15803e-10 -1.13918e-09 1.23414e-10)
(6.57795e-10 -1.66503e-09 1.20539e-10)
(4.31204e-10 7.55524e-10 3.86765e-10)
(7.24821e-10 4.59659e-10 8.65967e-10)
(7.56377e-10 1.14424e-10 1.20718e-09)
(7.23954e-10 -1.91605e-10 1.5111e-09)
(7.1437e-10 -4.93086e-10 1.81819e-09)
(7.93954e-10 -8.36458e-10 2.15419e-09)
(1.04424e-09 -1.37736e-09 2.54361e-09)
(1.43114e-09 -2.46688e-09 3.05208e-09)
(6.36082e-11 5.27646e-10 2.42426e-10)
(1.40973e-10 3.25751e-10 6.89352e-10)
(1.48973e-10 6.22125e-11 1.01475e-09)
(1.27489e-10 -2.27625e-10 1.29686e-09)
(1.12186e-10 -5.56536e-10 1.57622e-09)
(1.32722e-10 -9.35779e-10 1.88188e-09)
(2.13607e-10 -1.43696e-09 2.25455e-09)
(3.11335e-10 -2.32846e-09 2.81617e-09)
(-7.70193e-11 5.20707e-10 2.3225e-10)
(-1.64677e-10 3.22174e-10 6.77095e-10)
(-1.82169e-10 6.23078e-11 1.00054e-09)
(-1.73429e-10 -2.24292e-10 1.28115e-09)
(-1.74451e-10 -5.50397e-10 1.55928e-09)
(-2.14963e-10 -9.27183e-10 1.86374e-09)
(-3.20326e-10 -1.42607e-09 2.235e-09)
(-4.49044e-10 -2.31266e-09 2.79423e-09)
(-4.28038e-10 7.29245e-10 3.53662e-10)
(-7.26615e-10 4.49326e-10 8.25811e-10)
(-7.67758e-10 1.16417e-10 1.16083e-09)
(-7.48079e-10 -1.80161e-10 1.46023e-09)
(-7.54624e-10 -4.7356e-10 1.76375e-09)
(-8.53939e-10 -8.09737e-10 2.09659e-09)
(-1.12739e-09 -1.34371e-09 2.48286e-09)
(-1.54053e-09 -2.41849e-09 2.987e-09)
(-3.46476e-10 6.5596e-10 3.90111e-10)
(-6.01715e-10 3.19844e-10 8.51627e-10)
(-6.38417e-10 -3.55922e-11 1.17791e-09)
(-6.24034e-10 -3.30787e-10 1.46999e-09)
(-6.3268e-10 -6.07657e-10 1.77197e-09)
(-7.21257e-10 -9.07891e-10 2.11787e-09)
(-9.62297e-10 -1.38437e-09 2.53707e-09)
(-1.45234e-09 -2.40327e-09 2.95404e-09)
(-4.74071e-11 2.41261e-10 6.18126e-11)
(-1.81124e-10 -2.27394e-11 3.50177e-10)
(-1.88008e-10 -3.05993e-10 6.54573e-10)
(-1.60608e-10 -5.7366e-10 9.38615e-10)
(-1.54125e-10 -8.37119e-10 1.22014e-09)
(-2.24213e-10 -1.10061e-09 1.5152e-09)
(-4.50971e-10 -1.44671e-09 1.79723e-09)
(-9.64387e-10 -2.18449e-09 1.93427e-09)
(8.51076e-11 5.58069e-11 3.07911e-11)
(3.14179e-11 -2.02125e-10 2.47265e-10)
(4.28083e-11 -4.69204e-10 5.16317e-10)
(7.12446e-11 -7.15908e-10 7.84114e-10)
(7.73811e-11 -9.41641e-10 1.04116e-09)
(6.0429e-12 -1.13378e-09 1.27727e-09)
(-2.24246e-10 -1.36376e-09 1.44498e-09)
(-7.23959e-10 -1.96356e-09 1.45461e-09)
(1.34482e-10 -1.06587e-11 5.08482e-11)
(1.15107e-10 -2.71603e-10 2.35151e-10)
(1.33928e-10 -5.38681e-10 4.58769e-10)
(1.59052e-10 -7.70442e-10 6.86924e-10)
(1.59627e-10 -9.60155e-10 8.99584e-10)
(8.31452e-11 -1.09778e-09 1.07402e-09)
(-1.48256e-10 -1.26942e-09 1.17103e-09)
(-6.30311e-10 -1.81845e-09 1.14979e-09)
(1.48383e-10 -3.04971e-11 5.52248e-11)
(1.37175e-10 -2.89033e-10 2.06692e-10)
(1.5565e-10 -5.52987e-10 3.806e-10)
(1.7612e-10 -7.72662e-10 5.56896e-10)
(1.70844e-10 -9.38592e-10 7.16617e-10)
(9.0119e-11 -1.04793e-09 8.37975e-10)
(-1.40038e-10 -1.19849e-09 8.95699e-10)
(-6.07314e-10 -1.7266e-09 8.74074e-10)
(1.50488e-10 -3.46861e-11 4.57674e-11)
(1.38259e-10 -2.86928e-10 1.57585e-10)
(1.53574e-10 -5.44083e-10 2.8068e-10)
(1.69859e-10 -7.54059e-10 4.03358e-10)
(1.60369e-10 -9.07113e-10 5.11894e-10)
(7.7266e-11 -1.00523e-09 5.90803e-10)
(-1.5092e-10 -1.15037e-09 6.25476e-10)
(-6.07568e-10 -1.66788e-09 6.09828e-10)
(1.50027e-10 -3.4651e-11 2.93977e-11)
(1.35676e-10 -2.80492e-10 9.74803e-11)
(1.48186e-10 -5.30911e-10 1.70502e-10)
(1.61593e-10 -7.34121e-10 2.42185e-10)
(1.49627e-10 -8.81006e-10 3.04584e-10)
(6.54673e-11 -9.75629e-10 3.48955e-10)
(-1.61035e-10 -1.12029e-09 3.67808e-10)
(-6.10907e-10 -1.63226e-09 3.58643e-10)
(1.49559e-10 -3.41265e-11 1.00724e-11)
(1.34088e-10 -2.76144e-10 3.28805e-11)
(1.45163e-10 -5.22608e-10 5.70397e-11)
(1.57168e-10 -7.22372e-10 8.05615e-11)
(1.44095e-10 -8.66814e-10 1.00874e-10)
(5.95662e-11 -9.60631e-10 1.15189e-10)
(-1.6601e-10 -1.10568e-09 1.21201e-10)
(-6.12579e-10 -1.61529e-09 1.18195e-10)
(1.42993e-09 -2.50847e-09 3.11066e-09)
(1.04073e-09 -2.19908e-09 2.02104e-09)
(7.86118e-10 -2.0096e-09 1.48055e-09)
(6.95574e-10 -1.87748e-09 1.14156e-09)
(6.83003e-10 -1.78596e-09 8.55851e-10)
(6.91701e-10 -1.72493e-09 5.94149e-10)
(7.00214e-10 -1.68732e-09 3.49226e-10)
(7.04274e-10 -1.66933e-09 1.1515e-10)
(3.10284e-10 -2.27005e-09 2.97477e-09)
(2.10193e-10 -1.90773e-09 2.08383e-09)
(1.25747e-10 -1.73502e-09 1.58419e-09)
(9.84153e-11 -1.63199e-09 1.20894e-09)
(1.01959e-10 -1.56404e-09 8.86685e-10)
(1.1231e-10 -1.51739e-09 6.05328e-10)
(1.20051e-10 -1.48712e-09 3.52568e-10)
(1.2369e-10 -1.47208e-09 1.15832e-10)
(-4.49786e-10 -2.2462e-09 2.96062e-09)
(-3.23377e-10 -1.886e-09 2.07439e-09)
(-2.19719e-10 -1.71434e-09 1.57663e-09)
(-1.77973e-10 -1.61199e-09 1.20306e-09)
(-1.70701e-10 -1.5445e-09 8.82366e-10)
(-1.73339e-10 -1.49817e-09 6.02395e-10)
(-1.7614e-10 -1.46811e-09 3.50872e-10)
(-1.77372e-10 -1.45318e-09 1.15278e-10)
(-1.54128e-09 -2.43745e-09 3.0675e-09)
(-1.13031e-09 -2.13168e-09 1.99216e-09)
(-8.57415e-10 -1.94431e-09 1.45757e-09)
(-7.52231e-10 -1.81378e-09 1.12376e-09)
(-7.28554e-10 -1.72345e-09 8.42799e-10)
(-7.29331e-10 -1.66328e-09 5.85297e-10)
(-7.32768e-10 -1.62627e-09 3.44114e-10)
(-7.34352e-10 -1.60857e-09 1.1348e-10)
)
;
    }
    symmetry
    {
        type            symmetry;
    }
    bottom
    {
        type            calculated;
        value           uniform (0 0 0);
    }
}


// ************************************************************************* //
