/*--------------------------------*- C++ -*----------------------------------*\
| =========                 |                                                 |
| \\      /  F ield         | OpenFOAM: The Open Source CFD Toolbox           |
|  \\    /   O peration     | Version:  v1912                                 |
|   \\  /    A nd           | Website:  www.openfoam.com                      |
|    \\/     M anipulation  |                                                 |
\*---------------------------------------------------------------------------*/
FoamFile
{
    version     2.0;
    format      ascii;
    class       volScalarField;
    location    "0.39/solid";
    object      epsilonEq;
}
// * * * * * * * * * * * * * * * * * * * * * * * * * * * * * * * * * * * * * //

dimensions      [0 0 0 0 0 0 0];


internalField   nonuniform List<scalar> 
256
(
2.48703e-06
1.86996e-06
1.85056e-06
2.40449e-06
1.59588e-06
1.45663e-06
1.43778e-06
1.52488e-06
1.63289e-06
1.43143e-06
1.41245e-06
1.56278e-06
1.7181e-06
1.4635e-06
1.44467e-06
1.64862e-06
1.79806e-06
1.52259e-06
1.5038e-06
1.72877e-06
1.85992e-06
1.59603e-06
1.57717e-06
1.79061e-06
1.65176e-06
1.56064e-06
1.54339e-06
1.58777e-06
1.50162e-07
1.73303e-06
1.71944e-06
1.64633e-07
1.63516e-06
3.52985e-07
3.4459e-07
1.5467e-06
1.29848e-06
3.35632e-07
3.26942e-07
1.21618e-06
1.2968e-06
2.668e-07
2.59498e-07
1.21494e-06
1.32781e-06
2.06262e-07
2.0016e-07
1.24526e-06
1.38046e-06
1.82267e-07
1.76902e-07
1.29669e-06
1.45416e-06
1.80018e-07
1.75012e-07
1.36931e-06
1.42663e-06
4.20342e-08
4.81152e-08
1.34509e-06
1.65129e-06
1.56159e-06
1.54465e-06
1.58822e-06
1.43484e-06
1.95714e-07
1.90599e-07
1.35154e-06
1.25535e-06
2.25211e-07
2.15815e-07
1.17481e-06
1.26429e-06
1.87324e-07
1.77743e-07
1.18217e-06
1.29308e-06
1.38902e-07
1.29178e-07
1.20928e-06
1.3453e-06
1.17612e-07
1.07683e-07
1.25952e-06
1.42702e-06
1.2433e-07
1.14517e-07
1.33946e-06
1.45314e-06
1.73956e-07
1.70222e-07
1.36879e-06
1.85981e-06
1.59814e-06
1.57992e-06
1.79279e-06
1.30617e-06
1.69194e-07
1.64911e-07
1.22831e-06
1.16407e-06
1.91215e-07
1.83239e-07
1.08805e-06
1.17929e-06
1.62158e-07
1.53501e-07
1.10061e-06
1.20897e-06
1.22374e-07
1.13355e-07
1.12787e-06
1.26094e-06
1.03947e-07
9.44656e-08
1.17735e-06
1.34313e-06
1.11216e-07
1.01535e-07
1.25728e-06
1.37779e-06
1.64914e-07
1.6169e-07
1.29488e-06
1.80336e-06
1.52819e-06
1.51042e-06
1.73817e-06
1.23151e-06
1.51656e-07
1.46832e-07
1.1574e-06
1.10008e-06
1.72339e-07
1.65059e-07
1.02732e-06
1.11918e-06
1.49034e-07
1.41157e-07
1.04332e-06
1.15073e-06
1.14816e-07
1.06437e-07
1.07197e-06
1.20358e-06
9.93288e-08
9.02745e-08
1.12195e-06
1.28594e-06
1.07288e-07
9.78847e-08
1.20175e-06
1.32251e-06
1.59097e-07
1.56478e-07
1.24114e-06
1.74232e-06
1.47376e-06
1.45639e-06
1.67895e-06
1.18819e-06
1.40608e-07
1.35213e-07
1.11651e-06
1.06107e-06
1.61664e-07
1.54619e-07
9.90373e-07
1.08229e-06
1.41982e-07
1.34477e-07
1.00829e-06
1.11537e-06
1.10843e-07
1.02762e-07
1.0382e-06
1.16909e-06
9.7021e-08
8.8116e-08
1.08882e-06
1.25161e-06
1.06204e-07
9.69711e-08
1.16857e-06
1.28877e-06
1.58785e-07
1.56596e-07
1.20851e-06
1.70146e-06
1.43849e-06
1.4214e-06
1.63943e-06
1.16382e-06
1.33992e-07
1.28205e-07
1.0936e-06
1.03886e-06
1.55476e-07
1.48501e-07
9.69397e-07
1.06113e-06
1.37657e-07
1.30294e-07
9.88274e-07
1.09513e-06
1.08176e-07
1.00214e-07
1.01896e-06
1.14941e-06
9.52005e-08
8.6355e-08
1.06999e-06
1.23198e-06
1.05368e-07
9.62543e-08
1.14968e-06
1.26941e-06
1.59503e-07
1.57604e-07
1.18987e-06
1.67749e-06
1.4175e-06
1.40059e-06
1.61634e-06
1.15274e-06
1.30815e-07
1.2483e-07
1.08321e-06
1.02875e-06
1.52506e-07
1.4555e-07
9.59864e-07
1.05145e-06
1.35449e-07
1.28132e-07
9.79129e-07
1.08586e-06
1.06707e-07
9.87861e-08
1.01017e-06
1.14038e-06
9.41143e-08
8.52968e-08
1.06137e-06
1.22296e-06
1.04774e-07
9.57261e-08
1.14101e-06
1.26051e-06
1.59955e-07
1.58207e-07
1.18133e-06
1.66649e-06
1.40773e-06
1.3909e-06
1.60579e-06
)
;

boundaryField
{
    interface
    {
        type            calculated;
        value           nonuniform List<scalar> 
192
(
3.31837e-06
2.35383e-06
2.41073e-06
2.52585e-06
2.64169e-06
2.75443e-06
2.62828e-06
1.41622e-06
2.74374e-06
2.30412e-06
2.32401e-06
2.39826e-06
2.50481e-06
2.65282e-06
2.72305e-06
2.62833e-06
2.44789e-06
2.18354e-06
2.2135e-06
2.28257e-06
2.38689e-06
2.54142e-06
2.65342e-06
2.75586e-06
2.24129e-06
2.02398e-06
2.0614e-06
2.13027e-06
2.23329e-06
2.38741e-06
2.50716e-06
2.65039e-06
2.11883e-06
1.91611e-06
1.95761e-06
2.02785e-06
2.13115e-06
2.28483e-06
2.40606e-06
2.55786e-06
2.04678e-06
1.85019e-06
1.8937e-06
1.96518e-06
2.06904e-06
2.22238e-06
2.34346e-06
2.49709e-06
2.00601e-06
1.81249e-06
1.85694e-06
1.92919e-06
2.03344e-06
2.18649e-06
2.30712e-06
2.46126e-06
1.98745e-06
1.79529e-06
1.84012e-06
1.91272e-06
2.01713e-06
2.17001e-06
2.29035e-06
2.44472e-06
3.42544e-06
2.4722e-06
2.52994e-06
2.64687e-06
2.76465e-06
2.87988e-06
2.76673e-06
1.64435e-06
3.10812e-06
2.58007e-06
2.57754e-06
2.65235e-06
2.76422e-06
2.91271e-06
2.97836e-06
2.84209e-06
3.07437e-06
2.5462e-06
2.54265e-06
2.61711e-06
2.72877e-06
2.87693e-06
2.94346e-06
2.81575e-06
3.32163e-06
2.38141e-06
2.43805e-06
2.55448e-06
2.67191e-06
2.78653e-06
2.67737e-06
1.60812e-06
3.19331e-06
2.23529e-06
2.29182e-06
2.40661e-06
2.52198e-06
2.63451e-06
2.51375e-06
1.34497e-06
2.59911e-06
2.16464e-06
2.18307e-06
2.25502e-06
2.35898e-06
2.50476e-06
2.57829e-06
2.5142e-06
2.30874e-06
2.04624e-06
2.0732e-06
2.13907e-06
2.23991e-06
2.39104e-06
2.50509e-06
2.63707e-06
2.10894e-06
1.89229e-06
1.92577e-06
1.99078e-06
2.08971e-06
2.23971e-06
2.3606e-06
2.53278e-06
1.99134e-06
1.78861e-06
1.82571e-06
1.89162e-06
1.99041e-06
2.13952e-06
2.26133e-06
2.44169e-06
1.92243e-06
1.72539e-06
1.76427e-06
1.83113e-06
1.93019e-06
2.07865e-06
2.19998e-06
2.38196e-06
1.88354e-06
1.68931e-06
1.72901e-06
1.79648e-06
1.89575e-06
2.04373e-06
2.16442e-06
2.34683e-06
1.86586e-06
1.67288e-06
1.7129e-06
1.78065e-06
1.88001e-06
2.02772e-06
2.14803e-06
2.33063e-06
1.64546e-06
2.76719e-06
2.88146e-06
2.77367e-06
2.68005e-06
2.61832e-06
2.58182e-06
2.56494e-06
2.84291e-06
2.98018e-06
2.91699e-06
2.7748e-06
2.67439e-06
2.61021e-06
2.57205e-06
2.55423e-06
2.81647e-06
2.94537e-06
2.88144e-06
2.73976e-06
2.6397e-06
2.57575e-06
2.53773e-06
2.51997e-06
1.60869e-06
2.67817e-06
2.78955e-06
2.68377e-06
2.59186e-06
2.53137e-06
2.49569e-06
2.47922e-06
)
;
    }
    symmetry
    {
        type            symmetry;
    }
    bottom
    {
        type            calculated;
        value           nonuniform List<scalar> 
32
(
3.37914e-06
1.98244e-06
1.66458e-06
1.51663e-06
1.43565e-06
1.38839e-06
1.36162e-06
1.34942e-06
2.25671e-06
4.38435e-07
2.1747e-07
1.94216e-07
1.81286e-07
1.7181e-07
1.65719e-07
1.62747e-07
2.23641e-06
4.27472e-07
2.08319e-07
1.85735e-07
1.72351e-07
1.62468e-07
1.56117e-07
1.53017e-07
3.28681e-06
1.88773e-06
1.57628e-06
1.43512e-06
1.35891e-06
1.31475e-06
1.28985e-06
1.27852e-06
)
;
    }
}


// ************************************************************************* //
