/*--------------------------------*- C++ -*----------------------------------*\
| =========                 |                                                 |
| \\      /  F ield         | OpenFOAM: The Open Source CFD Toolbox           |
|  \\    /   O peration     | Version:  v1912                                 |
|   \\  /    A nd           | Website:  www.openfoam.com                      |
|    \\/     M anipulation  |                                                 |
\*---------------------------------------------------------------------------*/
FoamFile
{
    version     2.0;
    format      ascii;
    class       volVectorField;
    location    "0.39/solid";
    object      heatFlux;
}
// * * * * * * * * * * * * * * * * * * * * * * * * * * * * * * * * * * * * * //

dimensions      [1 0 -3 0 0 0 0];


internalField   nonuniform List<vector> 
256
(
(-75961.9 54993.8 -81079.2)
(-11902.2 29466.3 -76830.6)
(11515.4 29313.8 -75978.7)
(72443 54325.9 -78391.5)
(-75043.7 4862.17 -80300.1)
(-13777.9 2754.09 -77544.8)
(13344.2 2738.11 -76635.4)
(71336.5 4809.67 -77450.4)
(-76354.2 1006.47 -81665.9)
(-14026.2 528.959 -78920.5)
(13571 522.393 -77971.3)
(72560 976.385 -78705.3)
(-78367.6 1238.16 -83702.8)
(-14262 639.778 -80905.8)
(13791.6 636.084 -79934.7)
(74500.2 1216.87 -80678.5)
(-81423.2 2150.99 -86775.1)
(-14628.3 1189.55 -83991.8)
(14148.1 1187.59 -83008.3)
(77504.7 2140.56 -83714)
(-86221 5113.59 -91620.2)
(-15225.4 3553.33 -89097.2)
(14742.6 3547.94 -88104.3)
(82291.2 5111.06 -88532.8)
(-93314.1 22822.1 -98932.7)
(-16193.9 20842 -97413.3)
(15705.8 20748 -96407.2)
(89453.8 22589.6 -95808.6)
(-94842.6 101309 -101278)
(-17299.5 102341 -102318)
(16490.2 101350 -101332)
(91034.2 98251 -98240.4)
(-68731.4 26824.2 -15121.7)
(-10170.6 4701.38 -12480.1)
(10066.7 4711.49 -12401.2)
(65243.2 26615.2 -14899.9)
(-69428.6 2552.11 -17555.5)
(-11942.1 549.839 -14696.5)
(11847 551.888 -14602.2)
(65815 2550.94 -17289)
(-70764.7 522.518 -17845.3)
(-12170.8 80.1286 -14958.6)
(12067.8 78.9395 -14860.3)
(67063.6 505.517 -17568.4)
(-72730.1 649.67 -18096.6)
(-12385.7 84.7792 -15183.8)
(12272.4 83.2975 -15083.7)
(68942.6 630.592 -17816.9)
(-75805.2 1200.51 -18484.5)
(-12737.2 232.924 -15551.3)
(12613.7 231.367 -15450.8)
(71936.8 1183.98 -18207)
(-80878.2 3510.45 -19123.9)
(-13354.9 1776.83 -16210.6)
(13223.5 1770.37 -16110.4)
(76947.5 3494.21 -18854.4)
(-89003.8 20277.4 -20271.2)
(-14477.3 17535.3 -17533.1)
(14331 17435.6 -17434.2)
(85080.9 20016.1 -20015.9)
(-93341.7 98985.4 -22814.2)
(-16196.6 97453 -20838.5)
(15704.2 96436.5 -20745.8)
(89451.4 95825.7 -22589)
(-60677.2 22316.6 -2699.93)
(-9181.69 2289.62 -1181.08)
(9095.7 2310.33 -1175.62)
(57244.7 22137.1 -2679.26)
(-61487.8 2138.62 -3172.56)
(-10824.6 275.591 -1454.85)
(10751.8 279.052 -1448.02)
(57935.9 2141.12 -3147.34)
(-62754.3 465.4 -3215.6)
(-11041.3 41.7313 -1480.97)
(10961.2 40.8358 -1473.91)
(59114.5 448.515 -3189.88)
(-64643.1 598.96 -3238.96)
(-11249.1 47.0857 -1495.89)
(11158.5 45.6283 -1488.77)
(60910.9 578.29 -3213.73)
(-67645.7 1123.67 -3270.31)
(-11594.6 162.696 -1520.45)
(11492.4 160.923 -1513.39)
(63817.1 1103.02 -3246.85)
(-72680.6 3326.8 -3321.85)
(-12211.9 1571.58 -1571.24)
(12098.9 1564.48 -1564.42)
(68758.5 3302.16 -3302.47)
(-80912.8 19131.9 -3505.26)
(-13356.9 16214.1 -1776.39)
(13223 16112.6 -1770.25)
(76946.1 18855 -3494.49)
(-86285.1 91705.1 -5103.61)
(-15231.1 89161.7 -3549.47)
(14739.7 88150.7 -3545.51)
(82287.2 88559.9 -5110.16)
(-55838.2 20951.7 -958.894)
(-8646.26 2065.46 -124.721)
(8568.56 2087.85 -123.458)
(52479.3 20788.6 -944.935)
(-56621.5 2036.44 -1097.29)
(-10217.6 249.939 -153.253)
(10154.6 253.595 -151.689)
(53147.9 2040.33 -1080.78)
(-57853.2 456.119 -1106.74)
(-10429.1 39.0813 -155.492)
(10358.9 38.196 -153.903)
(54292.2 439.126 -1090.06)
(-59712.5 594.957 -1108.74)
(-10635.5 45.3006 -156.145)
(10554.6 43.8166 -154.563)
(56056.3 573.616 -1092.27)
(-62687.9 1117.63 -1110.09)
(-10980.3 157.576 -157.213)
(10887.3 155.717 -155.661)
(58927.1 1095.23 -1094.34)
(-67693.1 3275.5 -1115.97)
(-11597.4 1520.89 -162.318)
(11492.3 1513.52 -160.858)
(63821.3 3246.57 -1102.05)
(-75889.4 18495.6 -1192.03)
(-12742.2 15557.1 -232.232)
(12612.9 15454.5 -231.087)
(71939.8 18208.4 -1182.83)
(-81540.4 86909.4 -2134.11)
(-14638.5 84095.1 -1182.56)
(14143.5 83083.8 -1182.68)
(77504.5 83759.8 -2136.68)
(-52987.2 20260.4 -508.835)
(-8346.25 2011.64 -36.6961)
(8275.48 2035.18 -35.8273)
(49682.5 20111.4 -498.048)
(-53753.5 1990.78 -575.697)
(-9878.98 244.819 -43.7619)
(9824.22 248.608 -42.6818)
(50337.1 1996 -562.776)
(-54971.2 453.954 -578.959)
(-10088.4 38.8392 -44.1262)
(10026.7 37.9619 -43.0281)
(51467.9 437.025 -565.819)
(-56820.8 595.611 -578.295)
(-10295 45.3643 -44.0325)
(10222.4 43.8707 -42.9363)
(53220.7 574.011 -565.22)
(-59785.7 1116.43 -577.356)
(-10640.2 156.523 -43.947)
(10555.3 154.628 -42.863)
(56076.3 1093.24 -564.602)
(-64766.4 3244.86 -580.552)
(-11256.8 1496.56 -45.6099)
(11159.1 1489.06 -44.5674)
(60936.2 3213.67 -568.719)
(-72895.4 18113.7 -628.575)
(-12396 15193.9 -81.9176)
(12272.4 15090.8 -81.0263)
(68967.9 17820.3 -619.366)
(-78570.9 83920.8 -1196.77)
(-14279.7 81078.4 -619.733)
(13785.6 80065.6 -619.466)
(74520.5 80763.2 -1194.61)
(-51278.7 19867.2 -287.688)
(-8173.26 1985 -18.7806)
(8107.21 2009.34 -18.2003)
(48005.7 19727.7 -280.647)
(-52037 1966.32 -323.926)
(-9684.57 242.509 -22.162)
(9635.54 246.394 -21.4358)
(48654.1 1972.55 -315.388)
(-53249.1 453.521 -325.224)
(-9893.18 38.8107 -22.2867)
(9837.26 37.9415 -21.5461)
(49779.7 436.682 -316.499)
(-55095.5 596.56 -324.367)
(-10100.2 45.4799 -22.1854)
(10033.4 43.9817 -21.4452)
(51528.2 574.834 -315.659)
(-58054.4 1115.37 -323.671)
(-10445.8 155.999 -22.0981)
(10366.6 154.085 -21.3646)
(54375 1091.74 -315.136)
(-63013.6 3224.28 -326.405)
(-11061.4 1482.92 -23.0083)
(10969.1 1475.35 -22.2966)
(59207.6 3191.8 -318.38)
(-71078.6 17879.4 -357.133)
(-12194.7 14983 -43.2884)
(12075.5 14879.6 -42.6489)
(67163.5 17582.5 -350.582)
(-76710.3 82042 -697.479)
(-14061.2 79233.5 -352.956)
(13568.7 78219.4 -352.579)
(72649 78877.9 -694.919)
(-50298 19648.8 -149.132)
(-8076.77 1970.7 -9.47522)
(8013.62 1995.55 -9.14442)
(47042.2 19515.3 -145.191)
(-51052.3 1953.24 -167.446)
(-9576.48 241.313 -11.1396)
(9531 245.262 -10.724)
(47687.9 1960.15 -162.624)
(-52262.1 453.513 -167.965)
(-9784.74 38.8157 -11.1895)
(9732.45 37.9525 -10.7646)
(48811.5 436.754 -163.018)
(-54107.2 597.164 -167.411)
(-9992.05 45.5529 -11.1284)
(9928.94 44.0521 -10.7035)
(50558.1 575.375 -162.465)
(-57062.1 1114.4 -167.095)
(-10337.9 155.7 -11.0833)
(10262.3 153.777 -10.6623)
(53399.1 1090.52 -162.239)
(-62005.1 3211.4 -168.964)
(-10952.7 1475.37 -11.5664)
(10863.8 1467.77 -11.1565)
(58212.3 3178.22 -164.376)
(-70023.3 17742.7 -186.188)
(-12081.5 14864 -22.0252)
(11965.1 14760.5 -21.6476)
(66114.7 17443.8 -182.357)
(-75607.8 80924.3 -369.047)
(-13934.8 78152.7 -184.732)
(13443.6 77137.8 -184.455)
(71539.5 77755.7 -367.258)
(-49847.9 19550.6 -46.2974)
(-8033.27 1964.38 -2.90669)
(7971.49 1989.47 -2.79929)
(46599.6 19419.9 -45.0298)
(-50600.5 1947.48 -51.9115)
(-9527.85 240.795 -3.41159)
(9484.06 244.774 -3.27641)
(47244.3 1954.73 -50.3538)
(-51809.4 453.556 -52.0523)
(-9735.98 38.8219 -3.42521)
(9685.43 37.962 -3.28677)
(48367.2 436.841 -50.4501)
(-53654 597.43 -51.8685)
(-9943.44 45.5861 -3.40534)
(9882.08 44.084 -3.26691)
(50113 575.612 -50.266)
(-56606.7 1113.82 -51.7857)
(-10289.3 155.561 -3.39203)
(10215.5 153.632 -3.25492)
(52951.1 1089.83 -50.2126)
(-61541.1 3205.19 -52.4457)
(-10903.6 1471.98 -3.54455)
(10816.3 1464.37 -3.411)
(57754.2 3171.69 -50.9577)
(-69535 17679.3 -57.9972)
(-12030.1 14809.8 -6.78575)
(11915.2 14706.3 -6.66148)
(65629.1 17379.6 -56.7456)
(-75092.4 80399.8 -115.785)
(-13876.6 77649.6 -57.693)
(13386.1 76634.3 -57.5935)
(71020.2 77229 -115.164)
)
;

boundaryField
{
    interface
    {
        type            calculated;
        value           nonuniform List<vector> 
192
(
(-128260 54993.8 -81079.2)
(-122696 4862.17 -80300.1)
(-124829 1006.47 -81665.9)
(-128389 1238.16 -83702.8)
(-133770 2150.99 -86775.1)
(-142173 5113.59 -91620.2)
(-154431 22822.1 -98932.7)
(-155456 101309 -101278)
(-117114 26824.2 -15121.7)
(-114960 2552.11 -17555.5)
(-117176 522.518 -17845.3)
(-120679 649.67 -18096.6)
(-126127 1200.51 -18484.5)
(-135040 3510.45 -19123.9)
(-149057 20277.4 -20271.2)
(-154482 98985.4 -22814.2)
(-102974 22316.6 -2699.93)
(-101302 2138.62 -3172.56)
(-103402 465.4 -3215.6)
(-106765 598.96 -3238.96)
(-112081 1123.67 -3270.31)
(-120918 3326.8 -3321.85)
(-135105 19131.9 -3505.26)
(-142292 91705.1 -5103.61)
(-94365.3 20951.7 -958.894)
(-92781.5 2036.44 -1097.29)
(-94822.3 456.119 -1106.74)
(-98129.5 594.957 -1108.74)
(-103392 1117.63 -1110.09)
(-112171 3275.5 -1115.97)
(-126286 18495.6 -1192.03)
(-133988 86909.4 -2134.11)
(-89262.4 20260.4 -508.835)
(-87721.6 1990.78 -575.697)
(-89738.4 453.954 -578.959)
(-93025.9 595.611 -578.295)
(-98267 1116.43 -577.356)
(-106997 3244.86 -580.552)
(-120990 18113.7 -628.575)
(-128767 83920.8 -1196.77)
(-86190.6 19867.2 -287.688)
(-84676.4 1966.32 -323.926)
(-86683.8 453.521 -325.224)
(-89964 596.56 -324.367)
(-95192.3 1115.37 -323.671)
(-103881 3224.28 -326.405)
(-117758 17879.4 -357.133)
(-125482 82042 -697.479)
(-84421.7 19648.8 -149.132)
(-82922.6 1953.24 -167.446)
(-84926.1 453.513 -167.965)
(-88203 597.164 -167.411)
(-93422.8 1114.4 -167.095)
(-102081 3211.4 -168.964)
(-115873 17742.7 -186.188)
(-123530 80924.3 -369.047)
(-83608.3 19550.6 -46.2974)
(-82116.1 1947.48 -51.9115)
(-84118 453.556 -52.0523)
(-87393.6 597.43 -51.8685)
(-92608.8 1113.82 -51.7857)
(-101251 3205.19 -52.4457)
(-114999 17679.3 -57.9972)
(-122615 80399.8 -115.785)
(-75961.9 54993.8 -136045)
(-75043.7 4862.17 -130374)
(-76354.2 1006.47 -132598)
(-78367.6 1238.16 -136212)
(-81423.2 2150.99 -141640)
(-86221 5113.59 -150146)
(-93314.1 22822.1 -162749)
(-94842.6 101309 -164372)
(-11902.2 29466.3 -130863)
(-13777.9 2754.09 -128358)
(-14026.2 528.959 -130634)
(-14262 639.778 -134183)
(-14628.3 1189.55 -139666)
(-15225.4 3553.33 -148652)
(-16193.9 20842 -162956)
(-17299.5 102341 -168480)
(11515.4 29313.8 -129307)
(13344.2 2738.11 -126717)
(13571 522.393 -128920)
(13791.6 636.084 -132428)
(14148.1 1187.59 -137888)
(14742.6 3547.94 -146855)
(15705.8 20748 -161131)
(16490.2 101350 -166685)
(72443 54325.9 -131087)
(71336.5 4809.67 -125175)
(72560 976.385 -127197)
(74500.2 1216.87 -130690)
(77504.7 2140.56 -136042)
(82291.2 5111.06 -144485)
(89453.8 22589.6 -156998)
(91034.2 98251 -158753)
(121714 54325.9 -78391.5)
(115820 4809.67 -77450.4)
(117805 976.385 -78705.3)
(121240 1216.87 -80678.5)
(126533 2140.56 -83714)
(134916 5111.06 -88532.8)
(147305 22589.6 -95808.6)
(148719 98251 -98240.4)
(110361 26615.2 -14899.9)
(107949 2550.94 -17289)
(110003 505.517 -17568.4)
(113350 630.592 -17816.9)
(118655 1183.98 -18207)
(127455 3494.21 -18854.4)
(141496 20016.1 -20015.9)
(147302 95825.7 -22589)
(96315.1 22137.1 -2679.26)
(94392.8 2141.12 -3147.34)
(96330.4 448.515 -3189.88)
(99527.3 578.29 -3213.73)
(104670 1103.02 -3246.85)
(113338 3302.16 -3302.47)
(127453 18855 -3494.49)
(134911 88559.9 -5110.16)
(87840 20788.6 -944.935)
(86012.9 2040.33 -1080.78)
(87892.2 439.126 -1090.06)
(91027.9 573.616 -1092.27)
(96102.5 1095.23 -1094.34)
(104679 3246.57 -1102.05)
(118662 18208.4 -1182.83)
(126538 83759.8 -2136.68)
(82833.7 20111.4 -498.048)
(81053.3 1996 -562.776)
(82909.6 437.025 -565.819)
(86022.3 574.011 -565.22)
(91066.1 1093.24 -564.602)
(99576.1 3213.67 -568.719)
(113400 17820.3 -619.366)
(121286 80763.2 -1194.61)
(79817.3 19727.7 -280.647)
(78065.6 1972.55 -315.388)
(79913 436.682 -316.499)
(83016.3 574.834 -315.659)
(88041.8 1091.74 -315.136)
(96499.7 3191.8 -318.38)
(110186 17582.5 -350.582)
(117977 78877.9 -694.919)
(78077.8 19515.3 -145.191)
(76342.8 1960.15 -162.624)
(78186.7 436.754 -163.018)
(81285.6 575.375 -162.465)
(86299.3 1090.52 -162.239)
(94720.6 3178.22 -164.376)
(108310 17443.8 -182.357)
(116008 77755.7 -367.258)
(77277.1 19419.9 -45.0298)
(75549.7 1954.73 -50.3538)
(77392.3 436.841 -50.4501)
(80489.3 575.612 -50.266)
(85497.1 1089.83 -50.2126)
(93899.3 3171.69 -50.9577)
(107439 17379.6 -56.7456)
(115085 77229 -115.164)
(-94842.6 164426 -101278)
(-93341.7 162846 -22814.2)
(-86285.1 150304 -5103.61)
(-81540.4 141891 -2134.11)
(-78570.9 136619 -1196.77)
(-76710.3 133292 -697.479)
(-75607.8 131307 -369.047)
(-75092.4 130374 -115.785)
(-17299.5 168522 -102318)
(-16196.6 163032 -20838.5)
(-15231.1 148775 -3549.47)
(-14638.5 139862 -1182.56)
(-14279.7 134509 -619.733)
(-14061.2 131215 -352.956)
(-13934.8 129277 -184.732)
(-13876.6 128372 -57.693)
(16490.2 166718 -101332)
(15704.2 161187 -20745.8)
(14739.7 146943 -3545.51)
(14143.5 138032 -1182.68)
(13785.6 132676 -619.466)
(13568.7 129380 -352.579)
(13443.6 127441 -184.455)
(13386.1 126536 -57.5935)
(91034.2 158774 -98240.4)
(89451.4 157031 -22589)
(82287.2 144538 -5110.16)
(77504.5 136130 -2136.68)
(74520.5 130852 -1194.61)
(72649 127517 -694.919)
(71539.5 125526 -367.258)
(71020.2 124589 -115.164)
)
;
    }
    symmetry
    {
        type            symmetry;
    }
    bottom
    {
        type            calculated;
        value           nonuniform List<vector> 
32
(
(-75961.9 101327 -81079.2)
(-68731.4 49100 -15121.7)
(-60677.2 40839.9 -2699.93)
(-55838.2 38300.2 -958.894)
(-52987.2 37004.3 -508.835)
(-51278.7 36264.9 -287.688)
(-50298 35853.6 -149.132)
(-49847.9 35668.4 -46.2974)
(-11902.2 53999.7 -76830.6)
(-10170.6 8402.44 -12480.1)
(-9181.69 4079.09 -1181.08)
(-8646.26 3678.14 -124.721)
(-8346.25 3580.2 -36.6961)
(-8173.26 3531.36 -18.7806)
(-8076.77 3505.08 -9.47522)
(-8033.27 3493.46 -2.90669)
(11515.4 53718.1 -75978.7)
(10066.7 8417.66 -12401.2)
(9095.7 4113.14 -1175.62)
(8568.56 3715.19 -123.458)
(8275.48 3619.3 -35.8273)
(8107.21 3571.88 -18.2003)
(8013.62 3546.5 -9.14442)
(7971.49 3535.3 -2.79929)
(72443 100061 -78391.5)
(65243.2 48669.4 -14899.9)
(57244.7 40461.9 -2679.26)
(52479.3 37952.4 -944.935)
(49682.5 36682.1 -498.048)
(48005.7 35960.2 -280.647)
(47042.2 35559.6 -145.191)
(46599.6 35379.4 -45.0298)
)
;
    }
}


// ************************************************************************* //
