/*--------------------------------*- C++ -*----------------------------------*\
| =========                 |                                                 |
| \\      /  F ield         | OpenFOAM: The Open Source CFD Toolbox           |
|  \\    /   O peration     | Version:  v1912                                 |
|   \\  /    A nd           | Website:  www.openfoam.com                      |
|    \\/     M anipulation  |                                                 |
\*---------------------------------------------------------------------------*/
FoamFile
{
    version     2.0;
    format      ascii;
    class       pointVectorField;
    location    "0.39/solid";
    object      pointDD;
}
// * * * * * * * * * * * * * * * * * * * * * * * * * * * * * * * * * * * * * //

dimensions      [0 1 0 0 0 0 0];


internalField   nonuniform List<vector> 
405
(
(2.7112e-10 4.60147e-10 2.57339e-10)
(1.19022e-10 3.10824e-10 1.5746e-10)
(-3.4909e-12 2.55228e-10 1.21845e-10)
(-1.2183e-10 3.02296e-10 1.46228e-10)
(-2.49476e-10 4.44631e-10 2.40355e-10)
(5.40729e-10 5.38188e-10 6.18947e-10)
(3.28311e-10 5.0444e-10 5.41642e-10)
(-9.82197e-12 4.15515e-10 4.62001e-10)
(-3.38236e-10 4.92392e-10 5.16613e-10)
(-5.10245e-10 5.23101e-10 5.87918e-10)
(6.90865e-10 2.13992e-10 1.01646e-09)
(4.28731e-10 2.40234e-10 9.30928e-10)
(-1.53077e-11 1.94104e-10 8.38382e-10)
(-4.4827e-10 2.37413e-10 9.01131e-10)
(-6.66856e-10 2.13747e-10 9.76345e-10)
(6.93664e-10 -1.06603e-10 1.32719e-09)
(4.26034e-10 -5.1132e-11 1.23596e-09)
(-2.14543e-11 -7.17911e-11 1.13317e-09)
(-4.57872e-10 -4.63744e-11 1.20233e-09)
(-6.80407e-10 -9.48599e-11 1.28101e-09)
(6.76977e-10 -3.97832e-10 1.62211e-09)
(4.07108e-10 -3.48297e-10 1.52072e-09)
(-2.94117e-11 -3.69662e-10 1.40513e-09)
(-4.54801e-10 -3.37282e-10 1.48414e-09)
(-6.78103e-10 -3.76025e-10 1.57137e-09)
(7.09988e-10 -6.99805e-10 1.93694e-09)
(4.24932e-10 -6.76823e-10 1.81849e-09)
(-3.93127e-11 -7.11494e-10 1.68827e-09)
(-4.92303e-10 -6.60318e-10 1.77939e-09)
(-7.29259e-10 -6.68926e-10 1.88233e-09)
(8.59646e-10 -1.11019e-09 2.29911e-09)
(5.27726e-10 -1.10744e-09 2.15853e-09)
(-5.14165e-11 -1.13942e-09 2.01658e-09)
(-6.18894e-10 -1.08578e-09 2.11697e-09)
(-9.00416e-10 -1.07065e-09 2.24079e-09)
(1.17583e-09 -1.87178e-09 2.71527e-09)
(7.20895e-10 -1.83981e-09 2.59595e-09)
(-6.64508e-11 -1.8141e-09 2.46252e-09)
(-8.40589e-10 -1.8103e-09 2.55137e-09)
(-1.23905e-09 -1.81963e-09 2.65277e-09)
(1.37654e-09 -2.39723e-09 2.96014e-09)
(8.34563e-10 -2.3171e-09 2.89772e-09)
(-7.53128e-11 -2.21899e-09 2.8019e-09)
(-9.70827e-10 -2.27441e-09 2.859e-09)
(-1.46699e-09 -2.33167e-09 2.90132e-09)
(1.28477e-10 2.25884e-10 1.14886e-10)
(0 0 0)
(0 0 0)
(0 0 0)
(-9.89272e-11 2.17077e-10 1.09145e-10)
(3.53454e-10 3.02581e-10 4.17788e-10)
(0 0 0)
(0 0 0)
(0 0 0)
(-2.94585e-10 2.92539e-10 4.00144e-10)
(4.59109e-10 -6.80359e-12 7.62543e-10)
(0 0 0)
(0 0 0)
(0 0 0)
(-4.03345e-10 -2.93133e-12 7.35141e-10)
(4.54238e-10 -3.08477e-10 1.06159e-09)
(0 0 0)
(0 0 0)
(0 0 0)
(-4.0623e-10 -2.92803e-10 1.02804e-09)
(4.34725e-10 -5.8564e-10 1.34735e-09)
(0 0 0)
(0 0 0)
(0 0 0)
(-3.98492e-10 -5.59445e-10 1.30915e-09)
(4.59787e-10 -8.63041e-10 1.64774e-09)
(0 0 0)
(0 0 0)
(0 0 0)
(-4.39238e-10 -8.27041e-10 1.6055e-09)
(5.94546e-10 -1.21084e-09 1.9756e-09)
(0 0 0)
(0 0 0)
(0 0 0)
(-5.92674e-10 -1.16547e-09 1.92948e-09)
(9.29217e-10 -1.84773e-09 2.28082e-09)
(0 0 0)
(0 0 0)
(0 0 0)
(-9.44242e-10 -1.78956e-09 2.23095e-09)
(1.17408e-09 -2.28151e-09 2.45067e-09)
(7.18401e-10 -2.16081e-09 2.46923e-09)
(-6.87045e-11 -2.02498e-09 2.44585e-09)
(-8.42637e-10 -2.11172e-09 2.44327e-09)
(-1.24063e-09 -2.21139e-09 2.40527e-09)
(2.44404e-11 8.17245e-11 2.55169e-11)
(0 0 0)
(0 0 0)
(0 0 0)
(3.19634e-12 7.36429e-11 2.28918e-11)
(9.80972e-11 3.18051e-11 1.7728e-10)
(0 0 0)
(0 0 0)
(0 0 0)
(-4.14428e-11 2.25063e-11 1.6761e-10)
(1.46047e-10 -2.38515e-10 4.45374e-10)
(0 0 0)
(0 0 0)
(0 0 0)
(-8.93147e-11 -2.35218e-10 4.28101e-10)
(1.28399e-10 -5.06579e-10 7.23204e-10)
(0 0 0)
(0 0 0)
(0 0 0)
(-7.65248e-11 -4.92382e-10 7.0034e-10)
(1.03982e-10 -7.58954e-10 9.91496e-10)
(0 0 0)
(0 0 0)
(0 0 0)
(-6.13802e-11 -7.3467e-10 9.64181e-10)
(1.23449e-10 -9.97107e-10 1.25394e-09)
(0 0 0)
(0 0 0)
(0 0 0)
(-9.42622e-11 -9.63295e-10 1.2227e-09)
(2.53963e-10 -1.25852e-09 1.49428e-09)
(0 0 0)
(0 0 0)
(0 0 0)
(-2.41364e-10 -1.21573e-09 1.45943e-09)
(5.91771e-10 -1.73603e-09 1.64155e-09)
(0 0 0)
(0 0 0)
(0 0 0)
(-5.94113e-10 -1.68109e-09 1.60387e-09)
(8.54784e-10 -2.05889e-09 1.68845e-09)
(5.21861e-10 -1.91731e-09 1.73746e-09)
(-5.63916e-11 -1.77283e-09 1.77203e-09)
(-6.22853e-10 -1.87059e-09 1.71881e-09)
(-9.03582e-10 -1.99212e-09 1.65501e-09)
(-2.02678e-11 2.14567e-11 2.12466e-11)
(0 0 0)
(0 0 0)
(0 0 0)
(4.74862e-11 1.26636e-11 1.94565e-11)
(-1.79431e-11 -8.80219e-11 1.41921e-10)
(0 0 0)
(0 0 0)
(0 0 0)
(7.5066e-11 -9.9097e-11 1.35244e-10)
(-1.68377e-12 -3.53591e-10 3.62813e-10)
(0 0 0)
(0 0 0)
(0 0 0)
(6.15423e-11 -3.52656e-10 3.50498e-10)
(-2.27492e-11 -6.08837e-10 6.06293e-10)
(0 0 0)
(0 0 0)
(0 0 0)
(8.03722e-11 -5.97356e-10 5.89321e-10)
(-4.3006e-11 -8.3455e-10 8.43679e-10)
(0 0 0)
(0 0 0)
(0 0 0)
(9.38185e-11 -8.13163e-10 8.2274e-10)
(-1.83706e-11 -1.02436e-09 1.0598e-09)
(0 0 0)
(0 0 0)
(0 0 0)
(5.80997e-11 -9.93552e-10 1.03535e-09)
(1.17047e-10 -1.2131e-09 1.22579e-09)
(0 0 0)
(0 0 0)
(0 0 0)
(-9.16991e-11 -1.17341e-09 1.19826e-09)
(4.50681e-10 -1.603e-09 1.28925e-09)
(0 0 0)
(0 0 0)
(0 0 0)
(-4.38467e-10 -1.55102e-09 1.25952e-09)
(6.98175e-10 -1.89227e-09 1.2781e-09)
(4.12503e-10 -1.7732e-09 1.30941e-09)
(-4.7254e-11 -1.63988e-09 1.34647e-09)
(-4.95404e-10 -1.728e-09 1.2948e-09)
(-7.30371e-10 -1.82795e-09 1.25186e-09)
(-3.59582e-11 1.00849e-12 2.65211e-11)
(0 0 0)
(0 0 0)
(0 0 0)
(6.3095e-11 -8.5137e-12 2.52463e-11)
(-5.90115e-11 -1.28647e-10 1.35824e-10)
(0 0 0)
(0 0 0)
(0 0 0)
(1.16781e-10 -1.41616e-10 1.31134e-10)
(-5.32462e-11 -3.92967e-10 3.16364e-10)
(0 0 0)
(0 0 0)
(0 0 0)
(1.15549e-10 -3.94571e-10 3.07669e-10)
(-7.21991e-11 -6.40661e-10 5.13527e-10)
(0 0 0)
(0 0 0)
(0 0 0)
(1.34299e-10 -6.32008e-10 5.01288e-10)
(-8.57777e-11 -8.45391e-10 7.04439e-10)
(0 0 0)
(0 0 0)
(0 0 0)
(1.43143e-10 -8.26925e-10 6.88995e-10)
(-5.41387e-11 -1.00085e-09 8.6871e-10)
(0 0 0)
(0 0 0)
(0 0 0)
(1.02445e-10 -9.72954e-10 8.50372e-10)
(8.53662e-11 -1.15043e-09 9.79826e-10)
(0 0 0)
(0 0 0)
(0 0 0)
(-4.95352e-11 -1.11354e-09 9.59007e-10)
(4.1273e-10 -1.50377e-09 1.00834e-09)
(0 0 0)
(0 0 0)
(0 0 0)
(-3.88452e-10 -1.45424e-09 9.85812e-10)
(6.50591e-10 -1.78009e-09 9.81771e-10)
(3.81905e-10 -1.67803e-09 9.88549e-10)
(-4.03952e-11 -1.55764e-09 1.00932e-09)
(-4.5096e-10 -1.63394e-09 9.77501e-10)
(-6.69433e-10 -1.71766e-09 9.61904e-10)
(-4.00382e-11 -4.49533e-12 2.49872e-11)
(0 0 0)
(0 0 0)
(0 0 0)
(6.714e-11 -1.45234e-11 2.41183e-11)
(-6.85379e-11 -1.37148e-10 1.14653e-10)
(0 0 0)
(0 0 0)
(0 0 0)
(1.26773e-10 -1.51528e-10 1.11482e-10)
(-6.26473e-11 -3.96314e-10 2.52233e-10)
(0 0 0)
(0 0 0)
(0 0 0)
(1.26637e-10 -3.99951e-10 2.46345e-10)
(-7.71962e-11 -6.36026e-10 3.98562e-10)
(0 0 0)
(0 0 0)
(0 0 0)
(1.42446e-10 -6.29722e-10 3.90178e-10)
(-8.46259e-11 -8.26598e-10 5.37944e-10)
(0 0 0)
(0 0 0)
(0 0 0)
(1.46726e-10 -8.10579e-10 5.27205e-10)
(-4.73864e-11 -9.63748e-10 6.53261e-10)
(0 0 0)
(0 0 0)
(0 0 0)
(1.02012e-10 -9.38257e-10 6.40347e-10)
(9.43504e-11 -1.09744e-09 7.2563e-10)
(0 0 0)
(0 0 0)
(0 0 0)
(-5.07082e-11 -1.06279e-09 7.10851e-10)
(4.15939e-10 -1.43679e-09 7.39898e-10)
(0 0 0)
(0 0 0)
(0 0 0)
(-3.82599e-10 -1.3892e-09 7.23849e-10)
(6.4828e-10 -1.70603e-09 7.15572e-10)
(3.84275e-10 -1.61361e-09 7.10076e-10)
(-3.53626e-11 -1.50258e-09 7.18214e-10)
(-4.43138e-10 -1.57032e-09 7.02221e-10)
(-6.57163e-10 -1.64504e-09 7.01427e-10)
(-4.05045e-11 -5.28185e-12 1.85262e-11)
(0 0 0)
(0 0 0)
(0 0 0)
(6.76027e-11 -1.56301e-11 1.79881e-11)
(-6.84787e-11 -1.35369e-10 8.11645e-11)
(0 0 0)
(0 0 0)
(0 0 0)
(1.27043e-10 -1.50675e-10 7.92057e-11)
(-5.97331e-11 -3.87707e-10 1.73356e-10)
(0 0 0)
(0 0 0)
(0 0 0)
(1.24833e-10 -3.92744e-10 1.69715e-10)
(-7.0179e-11 -6.19881e-10 2.69147e-10)
(0 0 0)
(0 0 0)
(0 0 0)
(1.37512e-10 -6.15254e-10 2.63929e-10)
(-7.31844e-11 -8.01793e-10 3.589e-10)
(0 0 0)
(0 0 0)
(0 0 0)
(1.38458e-10 -7.87551e-10 3.52154e-10)
(-3.239e-11 -9.30825e-10 4.31369e-10)
(0 0 0)
(0 0 0)
(0 0 0)
(9.1304e-11 -9.07084e-10 4.23184e-10)
(1.10285e-10 -1.05959e-09 4.75162e-10)
(0 0 0)
(0 0 0)
(0 0 0)
(-6.12978e-11 -1.02657e-09 4.65736e-10)
(4.2757e-10 -1.39368e-09 4.8267e-10)
(0 0 0)
(0 0 0)
(0 0 0)
(-3.87992e-10 -1.3475e-09 4.72402e-10)
(6.56247e-10 -1.65875e-09 4.65992e-10)
(3.9282e-10 -1.57128e-09 4.58661e-10)
(-3.19279e-11 -1.46565e-09 4.60901e-10)
(-4.44725e-10 -1.52855e-09 4.53644e-10)
(-6.58293e-10 -1.59882e-09 4.56946e-10)
(-4.0284e-11 -5.01441e-12 9.71235e-12)
(0 0 0)
(0 0 0)
(0 0 0)
(6.73905e-11 -1.55402e-11 9.45547e-12)
(-6.71201e-11 -1.32201e-10 4.16914e-11)
(0 0 0)
(0 0 0)
(0 0 0)
(1.25885e-10 -1.48028e-10 4.07571e-11)
(-5.61943e-11 -3.79194e-10 8.77676e-11)
(0 0 0)
(0 0 0)
(0 0 0)
(1.21929e-10 -3.85037e-10 8.60287e-11)
(-6.40379e-11 -6.06125e-10 1.34941e-10)
(0 0 0)
(0 0 0)
(0 0 0)
(1.32558e-10 -6.02483e-10 1.3244e-10)
(-6.45045e-11 -7.83413e-10 1.78651e-10)
(0 0 0)
(0 0 0)
(0 0 0)
(1.31598e-10 -7.70233e-10 1.75402e-10)
(-2.18465e-11 -9.09332e-10 2.13493e-10)
(0 0 0)
(0 0 0)
(0 0 0)
(8.32372e-11 -8.86646e-10 2.09531e-10)
(1.21131e-10 -1.03707e-09 2.34206e-10)
(0 0 0)
(0 0 0)
(0 0 0)
(-6.90407e-11 -1.00504e-09 2.29625e-10)
(4.35818e-10 -1.36928e-09 2.37541e-10)
(0 0 0)
(0 0 0)
(0 0 0)
(-3.926e-10 -1.32396e-09 2.32541e-10)
(6.62272e-10 -1.6322e-09 2.29323e-10)
(3.9865e-10 -1.54695e-09 2.24951e-10)
(-2.99344e-11 -1.44391e-09 2.25307e-10)
(-4.46515e-10 -1.50456e-09 2.2251e-10)
(-6.60334e-10 -1.5729e-09 2.24919e-10)
(-1.9563e-11 -1.16185e-11 0)
(2.65669e-12 -2.42327e-11 0)
(8.79783e-14 -3.6274e-11 0)
(6.02453e-13 -2.76458e-11 0)
(4.18655e-11 -2.27004e-11 0)
(-1.78017e-11 -1.35598e-10 0)
(8.70202e-12 -1.60944e-10 0)
(2.20324e-12 -1.82313e-10 0)
(2.58742e-12 -1.66449e-10 0)
(5.63047e-11 -1.48363e-10 0)
(-8.58921e-12 -3.75755e-10 0)
(9.74863e-12 -3.89648e-10 0)
(5.54728e-12 -4.03983e-10 0)
(8.72238e-12 -3.91791e-10 0)
(5.44839e-11 -3.80653e-10 0)
(-1.60366e-11 -5.99968e-10 0)
(2.92677e-12 -6.10649e-10 0)
(6.85503e-12 -6.21693e-10 0)
(1.78492e-11 -6.08453e-10 0)
(6.44106e-11 -5.96758e-10 0)
(-1.59319e-11 -7.82501e-10 0)
(8.93441e-13 -8.08613e-10 0)
(5.48013e-12 -8.27256e-10 0)
(1.70926e-11 -8.01749e-10 0)
(6.2281e-11 -7.71001e-10 0)
(2.85169e-11 -9.26381e-10 0)
(3.00501e-11 -9.87193e-10 0)
(1.39025e-12 -1.02063e-09 0)
(-2.00402e-11 -9.75631e-10 0)
(1.12025e-11 -9.06594e-10 0)
(1.74956e-10 -1.08222e-09 0)
(1.29097e-10 -1.17469e-09 0)
(-5.58107e-12 -1.21047e-09 0)
(-1.32343e-10 -1.15845e-09 0)
(-1.46066e-10 -1.0542e-09 0)
(4.67427e-10 -1.41834e-09 0)
(3.01817e-10 -1.46953e-09 0)
(-1.60469e-11 -1.45803e-09 0)
(-3.2397e-10 -1.44622e-09 0)
(-4.51326e-10 -1.37821e-09 0)
(6.62182e-10 -1.65188e-09 0)
(4.01365e-10 -1.60063e-09 0)
(-2.57735e-11 -1.52302e-09 0)
(-4.41185e-10 -1.56547e-09 0)
(-6.67238e-10 -1.59831e-09 0)
)
;

boundaryField
{
    interface
    {
        type            calculated;
    }
    symmetry
    {
        type            symmetry;
    }
    bottom
    {
        type            calculated;
    }
}


// ************************************************************************* //
