/*--------------------------------*- C++ -*----------------------------------*\
| =========                 |                                                 |
| \\      /  F ield         | OpenFOAM: The Open Source CFD Toolbox           |
|  \\    /   O peration     | Version:  v1912                                 |
|   \\  /    A nd           | Website:  www.openfoam.com                      |
|    \\/     M anipulation  |                                                 |
\*---------------------------------------------------------------------------*/
FoamFile
{
    version     2.0;
    format      ascii;
    class       volScalarField;
    location    "0.39/solid";
    object      sigmaHyd;
}
// * * * * * * * * * * * * * * * * * * * * * * * * * * * * * * * * * * * * * //

dimensions      [1 -1 -2 0 0 0 0];


internalField   nonuniform List<scalar> 
256
(
-721274
-365592
-362861
-703236
-932805
-522878
-519549
-911607
-945067
-539058
-535555
-923026
-953699
-545226
-541582
-931000
-978549
-559129
-555399
-955402
-1.03275e+06
-593476
-589723
-1.00947e+06
-1.18711e+06
-716778
-712742
-1.1635e+06
-1.76758e+06
-1.25742e+06
-1.24943e+06
-1.73415e+06
-337890
-57419.4
-58543.9
-329353
-475633
-141522
-142308
-464965
-487981
-160383
-161085
-476800
-493784
-165436
-166083
-482149
-508101
-169480
-170099
-496066
-542381
-182367
-182990
-530098
-662954
-264452
-264764
-650070
-1.18739e+06
-716795
-712668
-1.16347e+06
-268515
-24342.5
-25573.3
-259932
-367813
-73158
-74211.2
-357757
-377122
-88303.5
-89303.8
-366699
-383067
-93463
-94423.3
-372234
-396615
-97089.1
-98027.2
-385351
-428563
-107739
-108670
-416912
-542386
-181982
-182559
-529840
-1.03303e+06
-593114
-589186
-1.00907e+06
-250249
-25471
-26564.2
-241287
-337912
-65336.3
-66297.3
-327814
-345263
-77731.1
-78669
-334921
-351107
-82455.5
-83370.4
-340408
-364741
-86242.5
-87142.5
-353615
-396496
-96882.5
-97773.1
-384922
-507669
-168515
-169033
-495036
-977956
-557630
-553611
-953622
-241081
-27114.9
-28101.1
-231846
-324658
-64222.9
-65104.7
-314499
-331130
-75190.7
-76072
-320812
-336778
-79442.1
-80315.8
-326151
-350388
-83196.5
-84064.5
-339352
-382020
-93870.8
-94731.4
-370515
-491605
-164233
-164715
-478959
-949655
-541271
-537194
-925127
-235548
-28044.5
-28954.9
-226101
-317286
-64005.3
-64831
-307047
-323392
-74293.1
-75133.3
-313046
-328890
-78233.7
-79077.9
-318270
-342426
-81911.1
-82757.3
-331415
-373936
-92594.6
-93437.2
-362451
-482534
-162288
-162751
-469867
-932967
-532131
-528022
-908310
-232305
-28561.7
-29423.1
-222714
-313111
-63982.5
-64771.3
-302803
-319065
-73956
-74768.3
-308679
-324473
-77728.1
-78551.7
-313834
-337943
-81348.6
-82179.6
-326927
-369364
-92036
-92866.6
-357875
-477384
-161376
-161826
-464694
-923284
-527004
-522877
-898544
-230794
-28795
-29632.3
-221130
-311190
-63992.2
-64762.7
-300844
-317086
-73841.1
-74639.3
-306675
-322453
-77541.4
-78354.3
-311799
-335889
-81134.6
-81957.6
-324864
-367264
-91824.4
-92648.6
-355768
-475016
-161007
-161452
-462311
-918785
-524662
-520527
-894002
)
;

boundaryField
{
    interface
    {
        type            zeroGradient;
    }
    symmetry
    {
        type            symmetry;
    }
    bottom
    {
        type            zeroGradient;
    }
}


// ************************************************************************* //
