/*--------------------------------*- C++ -*----------------------------------*\
| =========                 |                                                 |
| \\      /  F ield         | OpenFOAM: The Open Source CFD Toolbox           |
|  \\    /   O peration     | Version:  v1912                                 |
|   \\  /    A nd           | Website:  www.openfoam.com                      |
|    \\/     M anipulation  |                                                 |
\*---------------------------------------------------------------------------*/
FoamFile
{
    version     2.0;
    format      ascii;
    class       volScalarField;
    location    "0.39/solid";
    object      sigmaEq;
}
// * * * * * * * * * * * * * * * * * * * * * * * * * * * * * * * * * * * * * //

dimensions      [1 -1 -2 0 0 0 0];


internalField   nonuniform List<scalar> 
256
(
573931
431530
427053
554881
368280
336145
331796
351896
376820
330329
325949
360642
396485
337731
333385
380450
414936
351366
347030
398948
429213
368314
363962
413217
381176
360148
356166
366408
34652.8
399930
396794
37992.3
377344
81458
79520.8
356931
299649
77453.6
75448.1
280657
299262
61569.1
59884.1
280370
306417
47599
46190.8
287367
318568
42061.5
40823.5
299237
335576
41542.7
40387.3
315995
329222
9700.2
11103.5
310405
381067
360366
356458
366511
331117
45164.7
43984.3
311894
289697
51971.7
49803.6
271110
291759
43228.6
41017.6
272808
298404
32054.2
29810.3
279064
310453
27141.3
24849.9
290659
329313
28691.6
26427.1
309106
335339
40143.6
39281.9
315875
429188
368803
364597
413721
301423
39044.8
38056.3
283456
268631
44126.6
42285.9
251088
272145
37421.1
35423.4
253987
278992
28240.2
26158.9
260277
290985
23987.9
21799.8
271695
309953
25665.3
23431.1
290141
317951
38057.1
37313.1
298819
416161
352660
348559
401117
284194
34997.6
33884.2
267091
253866
39770.5
38090.5
237074
258273
34392.4
32574.7
240765
265554
26496
24562.3
247378
277748
22922
20832.6
258912
296756
24758.8
22588.8
277328
305194
36714.7
36110.4
286417
402074
340098
336090
387450
274197
32447.9
31202.9
257655
244863
37307.1
35681.3
228548
249760
32765.1
31033.2
232683
257392
25579.2
23714.4
239585
269790
22389.5
20334.5
251266
288832
24508.6
22377.9
269670
297408
36642.6
36137.5
278886
392645
331959
328015
378331
268574
30921.2
29585.7
252369
239738
35879
34269.5
223707
244877
31767
30067.8
228063
252722
24963.7
23126.3
235145
265248
21969.4
19928.1
246920
284304
24315.7
22212.5
265310
292940
36808.5
36370.2
274585
387112
327116
323213
373002
266018
30188.1
28806.8
249972
237403
35193.7
33588.5
221507
242641
31257.5
29568.8
225953
250582
24624.7
22796.8
233116
263164
21718.7
19683.9
244932
282222
24178.7
22090.6
263310
290888
36912.7
36509.3
272614
384575
324860
320977
370567
)
;

boundaryField
{
    interface
    {
        type            calculated;
        value           nonuniform List<scalar> 
192
(
765778
543191
556321
582887
609620
635638
606526
326821
633171
531721
536309
553444
578032
612189
628396
606538
564897
503895
510808
526747
550821
586481
612327
635968
517221
467073
475707
491601
515375
550940
578575
611627
488961
442180
451755
467965
491804
527269
555244
590275
472333
426966
437007
453502
477470
512857
540798
576251
462925
418267
428525
445198
469254
504574
532412
567984
458643
414298
424643
441396
465492
500771
528543
564166
790487
570509
583833
610815
637997
664589
638475
379466
717259
595401
594818
612080
637896
672164
687314
655868
709469
587585
586766
603949
629716
663908
679261
649789
766530
549556
562628
589494
616595
643045
617854
371104
736918
515836
528882
555372
581996
607964
580096
310377
599795
499533
503785
520388
544380
578021
594989
580200
532787
472209
478431
493633
516902
551778
578099
608555
486678
436683
444409
459411
482241
516857
544755
584487
459541
412757
421319
436528
459326
493736
521846
563466
443639
398167
407139
422567
445428
479688
507688
549682
434664
389841
399003
414572
437480
471630
499482
541576
430584
386049
395285
410918
433847
467936
495699
537837
379721
638583
664952
640078
618473
604228
595805
591909
656055
687734
673152
640339
617167
602357
593551
589437
649955
679701
664948
632252
609162
594404
585630
581532
371236
618040
643743
619331
598121
584163
575929
572127
)
;
    }
    symmetry
    {
        type            symmetry;
    }
    bottom
    {
        type            calculated;
        value           nonuniform List<scalar> 
32
(
779801
457486
384134
349991
331303
320397
314220
311406
520780
101177
50185.4
44819
41835.3
39648.4
38242.9
37557.1
516096
98647.3
48073.6
42862
39773.4
37492.7
36027
35311.6
758496
435629
363758
331183
313595
303405
297657
295043
)
;
    }
}


// ************************************************************************* //
