/*--------------------------------*- C++ -*----------------------------------*\
| =========                 |                                                 |
| \\      /  F ield         | OpenFOAM: The Open Source CFD Toolbox           |
|  \\    /   O peration     | Version:  v1912                                 |
|   \\  /    A nd           | Website:  www.openfoam.com                      |
|    \\/     M anipulation  |                                                 |
\*---------------------------------------------------------------------------*/
FoamFile
{
    version     2.0;
    format      ascii;
    class       volSymmTensorField;
    location    "0.39/solid";
    object      sigma;
}
// * * * * * * * * * * * * * * * * * * * * * * * * * * * * * * * * * * * * * //

dimensions      [1 -1 -2 0 0 0 0];


internalField   nonuniform List<symmTensor> 
256
(
(-268450 15191.1 -5753.86 293560 15752.5 -289055)
(29370.2 -9805.03 -2214.79 186567 15957 -300220)
(30262.4 12559.9 2224.41 184794 16297.1 -296426)
(-249676 -13594.5 5883.47 290866 17004.4 -274750)
(-304673 -1876.04 -8250.74 53843.3 -1404.44 -322922)
(-52484.4 -4018.87 -3483.67 24594.9 -417.051 -343265)
(-51269.1 6289.34 3621.57 23198.3 -171.846 -339261)
(-284056 2871.32 8489.91 55131.3 -528.497 -307602)
(-306637 -2924.96 -8747.1 60532.8 -2806.63 -324557)
(-57800.3 -2402.86 -3770.15 9107.54 -2573.17 -349431)
(-56625.8 4142.34 3967.19 7862.63 -2407.34 -345330)
(-285658 3644.71 9019.15 62374.9 -2199.81 -308921)
(-309198 -1353.29 -8982.09 76888.3 -1519.13 -328639)
(-51132.4 -1383.6 -3877.34 7945.08 -1510.14 -355341)
(-49953.3 2668.48 4080.7 6864.19 -1387.37 -351161)
(-287890 1893.19 9261.74 79162.6 -1060.47 -312751)
(-320438 -12.0642 -9116.81 83414.7 10.5049 -341222)
(-48807 -562.783 -3939.61 7194.67 29.4046 -368741)
(-47603.3 1472.5 4133.85 6195.06 132.68 -364508)
(-298871 396.172 9399.4 85953.9 391.119 -325149)
(-344599 1729.18 -9138.75 73414.2 2205.11 -365590)
(-56490 375.685 -3956.7 -2702.43 2277.38 -394867)
(-55313.8 174.27 4147.72 -3682.56 2376.46 -390608)
(-322993 -1533.28 9429.05 76034.2 2551.61 -349396)
(-389862 5618.88 -8973.77 -20027.8 6276.36 -410512)
(-85205.4 1981.05 -3886.33 -86068.4 6558.01 -445526)
(-84123.4 -1903.48 4092.63 -86519.1 6662.15 -441208)
(-368639 -5706.98 9276.98 -16296.4 6608.12 -394109)
(-361806 8545.56 -8476.45 -383935 9629.54 -383858)
(-27957.7 3757.43 -3667.36 -427486 10152.3 -427308)
(-26684.5 -3832.36 3886.07 -423067 10247.1 -422870)
(-341231 -8758.07 8768.84 -367507 9898.56 -367440)
(-268927 10409.7 -4133.16 156716 -12481 19166.3)
(-28533.8 -10122.4 -823.648 47729.7 -4868.89 -33908.1)
(-28230.9 11568.6 1110.71 45008.8 -4045.85 -34578.5)
(-250263 -9310.57 4327 152666 -9920.14 22088.6)
(-308039 -2391.82 -5821.87 18135.7 -3993.14 -45804.6)
(-101549 -4217.97 -1785.33 -25145 -329.771 -102813)
(-100711 5302.39 2295.79 -27301.6 210.931 -103381)
(-287446 2866.16 6130.5 18115.8 -2198.88 -41979.5)
(-313595 -3009.34 -5914.77 10864.3 -3105.39 -49181.1)
(-113637 -2625.3 -1869.63 -53317.3 -1911.81 -115411)
(-112813 3389.16 2439.82 -55130.9 -1519.75 -116088)
(-292604 3304.08 6249.03 11728.3 -1749.83 -45651)
(-318200 -1475.4 -5927.59 13428.7 -2663.08 -46201.6)
(-111437 -1612.91 -1816.8 -67063.1 -2265.89 -116741)
(-110611 2132.93 2375.13 -68702.9 -1953.04 -117484)
(-296831 1691.13 6262.4 14725.9 -1570.62 -42842.4)
(-330530 -90.2327 -5976.6 13856.8 -839.707 -46871.9)
(-110923 -767.915 -1819.99 -73537.3 -661.951 -118836)
(-110071 1078.01 2352.17 -75130.4 -392.626 -119626)
(-308775 225.248 6309.77 15350.7 86.8168 -43608.5)
(-356589 1774.68 -5952.59 4249.56 1909.31 -54386.2)
(-119289 233.024 -1816.72 -82357.7 1991.76 -126917)
(-118455 -148.736 2333.28 -83939.2 2230.08 -127774)
(-334575 -1772.68 6289.91 5825.21 2712.05 -51245.1)
(-407491 5865.59 -5774.03 -78323.5 4362.75 -79006.7)
(-149143 1926.42 -1761.76 -152777 4451.68 -153031)
(-148389 -2151.15 2250.41 -153759 4641.54 -153895)
(-385609 -6094.09 6106 -75483.7 4996.37 -75885.7)
(-390077 9014.52 -5483.6 -410586 6368.43 -20277.5)
(-85239.8 3938.71 -1733.87 -445637 6624.99 -85822.6)
(-84121.9 -4059.88 2064.59 -441294 6723.62 -86112.7)
(-368660 -9272.27 5734.52 -394056 6675.37 -16177.9)
(-231373 7408.52 -1811.74 124228 953.738 67348.9)
(-23436.9 -11010.7 -19.5817 20765.3 7189.6 6127.03)
(-23088.3 11696.4 300.363 18225.9 7843.71 5263.85)
(-212692 -6636.14 1914.93 121306 2970.35 70249.2)
(-258204 -2418.43 -2299.56 29795.9 2829.54 32965.7)
(-73202.6 -4413.41 -307.348 -16172.6 5957.04 -34860.4)
(-72355.7 4890.21 785.154 -18337.8 6505.13 -35786.6)
(-237793 2653.04 2493.24 29842.5 4570.85 36299.7)
(-262856 -2829.14 -2079.6 30300.5 1446.24 27334.4)
(-82983.6 -2667.27 -235.088 -34651.1 2555.91 -50123.6)
(-82144.4 2938.05 733.992 -36512.7 3012.61 -51204)
(-242074 2927.41 2290.04 31013.8 2924 30207.8)
(-267662 -1468.88 -1943.48 33168.2 294.427 28192.9)
(-81496.5 -1706.09 -132.539 -46534.9 689.288 -53989.2)
(-80647.1 1840.74 597.211 -48231 1081.06 -55175.8)
(-246478 1532.12 2145.35 34273.8 1566.54 30762.5)
(-279856 -107.369 -1919.75 33323 801.295 27753.6)
(-81456.6 -873.285 -111.761 -52904.1 971.891 -56223.1)
(-80567.5 899.2 538.945 -54550 1315.84 -57491.8)
(-258206 132.44 2111.43 34641.8 1907.73 30128.1)
(-305668 1860.84 -1883.19 25196.3 2192.63 21961)
(-89774 190.35 -111.01 -60164.8 2250.05 -62707.7)
(-88883.1 -291.974 507.244 -61779.9 2545.22 -64062.5)
(-283592 -1928.97 2067.95 26669.2 3135.86 24170.3)
(-356626 6032.78 -1761.33 -52805.1 2598.94 2849.91)
(-118822 1949.86 -93.49 -125641 2621.94 -82930.5)
(-117982 -2263.03 421.686 -126624 2837.74 -84263.6)
(-334409 -6294.29 1923.47 -49955.3 3301.33 5121.8)
(-344853 9166.88 -1640.24 -365494 2590.8 73314.5)
(-56073.3 3989.95 -110.619 -394714 2616.68 -1924.38)
(-54852.4 -4122.45 209.041 -390392 2699.68 -2580.19)
(-322838 -9431.33 1704.31 -349051 2865.03 76789.5)
(-210009 6058.14 -709.848 110645 4970.07 66747.1)
(-22423.3 -11234.5 290.971 10535.1 8623.09 4440.34)
(-22062.8 11486.2 -33.4599 8287.71 9103.54 3742.2)
(-191474 -5524.34 780.553 108937 6447.2 70283.9)
(-232174 -2323.73 -809.86 27472.9 5805.05 44212.4)
(-64072.7 -4437.24 361.82 -20301.4 7716.32 -25690.8)
(-63244.1 4578.79 82.4719 -22278 8168.52 -26441.1)
(-212058 2423.85 953.772 28034.7 7208.29 48116.1)
(-236274 -2600.93 -576.469 32544.7 4358.16 38802.4)
(-72169.9 -2617.07 484.863 -32993.9 5087.06 -40318.8)
(-71341 2626.64 -27.8331 -34760.4 5498.26 -41226.1)
(-215806 2600.49 733.984 33463.5 5645.77 42210.4)
(-241247 -1384.71 -423.014 38454.8 2673.23 36929.6)
(-70910.3 -1708.79 577.208 -40843.9 2956.18 -46737.3)
(-70064.8 1648.57 -161.205 -42487 3328.13 -47765.7)
(-220370 1373.22 569.228 39640.8 3841.58 39976.1)
(-253530 -93.5744 -378.069 40191 1923.48 34599.7)
(-71306.3 -912.222 595.978 -45382.5 2070.37 -50930.5)
(-70415.6 806.843 -224.774 -46986.4 2403.02 -52059.9)
(-232145 68.832 509.261 41560.1 2964.08 37392.3)
(-279337 1898.88 -364.534 32532.1 1751.6 28595.9)
(-79982.7 170.486 580.713 -52234.1 1830.36 -57737.5)
(-79080.5 -343.615 -254.339 -53805.9 2111.77 -58960.7)
(-257433 -1991.65 480.694 34074 2633.59 31205.2)
(-329972 6084.37 -328.161 -44018.7 1031.47 12131.3)
(-108781 1952.47 556.687 -116319 1079.82 -75269.1)
(-107911 -2292.98 -317.657 -117259 1276.89 -76450)
(-307751 -6351.1 412.91 -41073.5 1668.39 14863)
(-319960 9169.55 -294.305 -340629 980.077 85173.5)
(-46378 3973.85 516.237 -368015 968.186 8976.55)
(-45111.7 -4120.89 -504.565 -363671 1035.18 8512.56)
(-297693 -9438.51 284.246 -324140 1207.83 89206.7)
(-197621 5511.12 -302.936 104364 4967.83 63844.3)
(-22359.3 -11122.5 276.671 6089.06 6896.09 2054.22)
(-22008.1 11124.3 -69.3074 4081.51 7238.95 1485.12)
(-179206 -5135.3 359.514 103610 6013.69 67848.3)
(-218116 -2228.35 -308.095 24739.4 5609.87 45101)
(-61167.9 -4376.1 423.639 -23861.5 6662.92 -23895)
(-60385.3 4323.12 -53.3649 -25663.3 7000.64 -24488.7)
(-198227 2247.12 425.775 25808.7 6644.75 49481.4)
(-222060 -2437.67 -153.216 31023.9 4835.23 40784.3)
(-68555 -2560.48 526.759 -34627.1 5265.55 -36899.7)
(-67767.4 2420.33 -139.223 -36297.5 5587.87 -37643.6)
(-201832 2382.04 283.885 32209.2 5830.59 44676.8)
(-227180 -1303.5 -43.8159 38718.3 3446.26 37874.3)
(-67432.2 -1692.34 586.913 -40122.1 3636.32 -44114.5)
(-66623.2 1523.6 -233.953 -41716.8 3938.64 -44983.4)
(-206537 1251.54 164.827 40036.1 4384.24 41386.7)
(-239549 -74.5213 -6.75047 41825.7 2251.81 34368.8)
(-68092.5 -928.277 594.208 -43141.8 2380.08 -49462.5)
(-67235.8 753.141 -284.947 -44719.4 2655.02 -50440.4)
(-218378 23.8457 112.435 43263.9 3104.75 37599.1)
(-265312 1905.27 -7.5486 34564.2 1322.39 28166.2)
(-76991.9 152.749 570.571 -49667.3 1426.15 -56556.5)
(-76118.9 -362.209 -310.026 -51223.4 1658 -57631)
(-243571 -2009.81 95.6258 36154 2047.15 31203.3)
(-315528 6084.78 -12.7342 -40812.9 321.174 12699.1)
(-105661 1943.47 531.461 -112731 407.744 -73171.3)
(-104810 -2300.7 -356.277 -113663 567.329 -74194.5)
(-293368 -6354.42 68.9055 -37824.5 839.178 15882.5)
(-305956 9137.61 -21.4844 -326264 400.328 85266.1)
(-43531.3 3949.03 477.833 -353129 411.726 10787.8)
(-42269.9 -4112.1 -495.252 -348777 464.335 10496.4)
(-283581 -9413.7 -3.65955 -309730 581.22 89787.2)
(-190151 5275.87 -157.902 101165 3892.29 62308.4)
(-22487.8 -10976.4 175.689 3722.89 4881.78 844.285)
(-22142.5 10833.5 -27.1301 1889.93 5111.64 360.507)
(-171784 -4997.66 200.335 101096 4586.2 66638)
(-209938 -2161.38 -152.995 23323.1 4260.53 44828.3)
(-60128.2 -4316.75 285.107 -25845.3 4823.01 -23380.7)
(-59380.6 4150.04 -12.0967 -27515.2 5053.53 -23869.4)
(-190169 2131.69 242.421 24799.1 4960.74 49556.9)
(-213866 -2343.09 -66.484 29735.5 3912.09 41394.1)
(-67256.4 -2525.54 350.491 -36083.3 4160.94 -35138.4)
(-66501.8 2296.21 -58.3848 -37675.9 4386.59 -35769.8)
(-193765 2255.01 167.459 31166.8 4604.43 45654)
(-219082 -1252.21 -3.93451 38024.4 3002.67 38471.7)
(-66231 -1683.62 382.305 -40676.4 3130.72 -42221.1)
(-65451.7 1448.94 -113.57 -42231.4 3347.29 -42977.2)
(-198563 1176.18 98.4398 39481.7 3671.81 42350.7)
(-231496 -62.5139 17.6567 41819.3 1955.71 34581.5)
(-67041.1 -939.95 381.032 -42932.5 2060.19 -47947.6)
(-66212.6 720.758 -147.139 -44492.8 2259.82 -48815.5)
(-210437 -4.19535 64.4705 43333.1 2574.34 38167)
(-257189 1902.03 12.4246 34925 985.663 28195.1)
(-76062.2 138.19 359.235 -49145.1 1086.62 -55303.9)
(-75214.8 -373.45 -167.074 -50697 1255.44 -56270.1)
(-235531 -2014.99 54.2961 36557.5 1514.83 31580.4)
(-307042 6079.64 -0.832499 -39377.8 132.742 12820.7)
(-104663 1938.79 325.683 -111249 227.431 -71922.4)
(-103830 -2311.39 -202.501 -112184 343.226 -72835.1)
(-284904 -6353.36 41.2651 -36360.4 511.103 16356.8)
(-297423 9120.08 -19.3988 -317347 191.854 84562.3)
(-42550.5 3937.83 275.917 -344192 224.041 11346.3)
(-41299.3 -4115.35 -296.926 -339837 262.088 11172.4)
(-274961 -9403.87 -1.73961 -300775 323.529 89449.6)
(-185807 5158.42 -85.7818 99506.5 2441.53 61640.2)
(-22594.6 -10883.6 88.724 2399.08 2918.26 230.746)
(-22251.1 10661.4 0.0654705 678.947 3050.43 -200.222)
(-167454 -4935.89 111.971 99877.2 2837.12 66178.1)
(-205250 -2125.17 -86.4632 22684.9 2601.61 44638.9)
(-59690.6 -4282.63 146.588 -26905.8 2881.24 -23268.8)
(-58963.3 4053.03 19.6497 -28488.8 3014.83 -23692.8)
(-185536 2068.55 142.215 24437.9 3004.86 49596.3)
(-209190 -2294.96 -44.7558 29032.1 2444.84 41711.4)
(-66724.6 -2509.58 180.198 -36997.3 2577.93 -34327.2)
(-65989.2 2229.38 0.647625 -38536 2710.41 -34888.3)
(-189148 2188.53 108.556 30644.4 2849.84 46218.1)
(-214458 -1226.39 -14.6939 37419 1948.08 39039.6)
(-65757.1 -1682.67 194.311 -41336.9 2025.54 -41096.9)
(-64995.3 1408.56 -26.2078 -42863 2154.39 -41781.3)
(-193995 1136.12 75.0494 38987.8 2345.6 43170)
(-226886 -57.5999 -4.97206 41461.7 1288.03 35128.9)
(-66644.3 -949.453 190.685 -43310.7 1357.43 -46855.4)
(-65832.2 701.914 -44.3908 -44858.6 1477.3 -47652.5)
(-205878 -19.347 57.5392 43039.5 1659.78 38961.9)
(-252519 1898.73 -9.42964 34818.3 632.698 28607.7)
(-75730.5 128.958 176.391 -49303.5 703.773 -54403.1)
(-74897.9 -382.958 -57.5215 -50853.4 805.583 -55299.7)
(-230895 -2017.99 51.7894 36486.7 952.781 32235.3)
(-302120 6080.01 -18.4878 -38704.7 89.9514 13061.8)
(-104297 1939.96 155.838 -110684 159.425 -71257.7)
(-103476 -2325.06 -81.1532 -111623 229.348 -72100.8)
(-279983 -6357.67 43.855 -35665.2 319.579 16838.2)
(-292339 9118.69 -32.3895 -312040 99.5254 84224)
(-42087.4 3937.55 121.969 -339001 129.9 11544.7)
(-40842.2 -4125.79 -136.111 -334644 152.906 11444.1)
(-269815 -9408.63 19.5856 -295439 179.509 89357.9)
(-183792 5104.46 -28.0492 98789.9 829.263 61401.5)
(-22641.5 -10843.3 26.4514 1795.91 972.628 -37.2775)
(-22298.2 10586.3 3.0531 130.962 1015.73 -442.717)
(-165441 -4907.19 36.8623 99374 957.711 66040.9)
(-203082 -2110.89 -29.4787 22441 871.324 44584.5)
(-59505.3 -4268.97 43.8073 -27379.8 956.885 -23265)
(-58787.2 4011.47 11.9336 -28919.8 1000.6 -23657.8)
(-183390 2042.3 48.3546 24333.1 1002.85 49655.2)
(-207030 -2275.33 -17.2608 28738.3 823.802 41877.2)
(-66505.7 -2504.14 53.9397 -37429.8 866.276 -34026.1)
(-65779 2200.79 7.22031 -38941 909.877 -34552.9)
(-187011 2160.6 39.0199 30445.2 956.854 46507.9)
(-212319 -1216.26 -8.49509 37110 666.515 39377.9)
(-65563.8 -1683.89 57.8323 -41719.4 692.841 -40603)
(-64809.7 1391.08 -0.6374 -43230.4 735.505 -41252.3)
(-191878 1119.27 29.2048 38739.5 798.076 43635.9)
(-224750 -56.2663 -5.86538 41217.9 445.642 35515)
(-66482.6 -954.866 56.161 -43615.3 470.032 -46325)
(-65677.8 693.11 -6.31926 -45156.4 509.911 -47087.2)
(-203760 -25.8075 23.9448 42831.9 569.393 39474.5)
(-250348 1897.26 -7.50999 34693.4 220.294 28927.4)
(-75597.7 124.766 51.2812 -49502.5 245.621 -53967.8)
(-74771.7 -388.829 -10.9244 -51051.1 279.586 -54830.1)
(-228736 -2019.95 22.0498 36382.5 327.257 32678.8)
(-299823 6082.32 -10.4627 -38433.1 36.2801 13248.4)
(-104151 1942.34 44.5299 -110507 61.3288 -70984.4)
(-103335 -2334.43 -19.3239 -111448 84.6901 -71793.7)
(-277682 -6362.32 19.1588 -35381.1 113.195 17146.7)
(-289931 9121.89 -15.3412 -309546 32.508 84136.7)
(-41860.3 3939.9 32.659 -336595 44.4225 11609.8)
(-40617.7 -4133.85 -37.4181 -332238 52.1142 11544.7)
(-267372 -9415.19 11.1305 -292930 59.316 89395.2)
)
;

boundaryField
{
    interface
    {
        type            calculated;
        value           nonuniform List<symmTensor> 
192
(
(-52.1774 0.327157 3.3189 866660 15752.5 284045)
(-54.1154 0.152505 5.13235 622593 -1404.44 245828)
(-55.2905 -0.193211 5.5657 637741 -2806.63 252651)
(-56.0245 -0.595511 5.5968 667908 -1519.13 262381)
(-56.073 -0.937598 5.45229 698471 10.5049 273835)
(-56.8157 -1.58275 5.24381 728834 2205.11 289830)
(-55.0382 -2.04797 4.77043 698572 6276.36 308088)
(-58.4226 -4.41858 4.38631 326298 9629.54 326375)
(-50.703 0.218373 1.66958 690213 -12481 552664)
(-51.663 0.0532472 2.75961 560703 -3993.14 496762)
(-52.3507 -0.267009 2.96352 563725 -3105.39 503680)
(-52.8623 -0.689385 2.92475 580772 -2663.08 521142)
(-52.7284 -1.06082 2.78406 605944 -839.707 545216)
(-53.4351 -1.78242 2.60622 639335 1909.31 580699)
(-51.4246 -2.302 2.29989 628641 4362.75 627957)
(-55.0638 -4.81204 2.04521 308290 6368.43 698598)
(-53.5109 0.183854 1.33241 591129 953.738 534250)
(-54.3717 0.00812973 2.1825 502224 2829.54 505394)
(-55.0601 -0.319396 2.33852 512223 1446.24 509257)
(-55.5748 -0.778458 2.3047 529161 294.427 524186)
(-55.3306 -1.19658 2.19143 553527 801.295 547958)
(-55.9336 -2.00647 2.04649 588024 2192.63 584789)
(-53.4396 -2.60906 1.81581 582530 2598.94 638185)
(-56.8711 -5.30326 1.61168 290461 2590.8 729270)
(-53.6536 0.133208 0.834911 537645 4970.07 493747)
(-54.3187 -0.0607801 1.43278 458315 5805.05 475055)
(-54.8573 -0.392636 1.53572 472432 4358.16 478690)
(-55.2868 -0.867896 1.50051 492285 2673.23 490760)
(-54.9448 -1.3094 1.41089 518082 1923.48 512490)
(-55.492 -2.16021 1.30119 552833 1751.6 548897)
(-52.8396 -2.80025 1.14907 548397 1031.47 604547)
(-56.2566 -5.5498 1.01759 275002 980.077 700804)
(-54.4775 0.110644 0.617515 507830 4967.83 467310)
(-55.0811 -0.101326 1.05806 431485 5609.87 451847)
(-55.5541 -0.445477 1.13471 446663 4835.23 456423)
(-55.9425 -0.938235 1.10862 468292 3446.26 467448)
(-55.5269 -1.40299 1.04236 495419 2251.81 487962)
(-56.0028 -2.28872 0.960068 530378 1322.39 523980)
(-53.1675 -2.96375 0.851108 526497 321.174 580009)
(-56.4657 -5.76491 0.753802 264716 400.328 676247)
(-54.6629 0.0921095 0.383967 490458 3892.29 451602)
(-55.2124 -0.133973 0.674609 415688 4260.53 437193)
(-55.6259 -0.487341 0.725388 430953 3912.09 442612)
(-55.9764 -0.990584 0.706541 453193 3002.67 453640)
(-55.5125 -1.46882 0.661433 480981 1955.71 473743)
(-55.9506 -2.3732 0.606139 516130 985.663 509400)
(-53.0314 -3.06695 0.537268 512753 132.742 564951)
(-56.2932 -5.89554 0.476623 258246 191.854 660155)
(-54.9313 0.0837213 0.226994 480621 2441.53 442754)
(-55.462 -0.152218 0.397625 406777 2601.61 428731)
(-55.8442 -0.513571 0.427803 421968 2444.84 434648)
(-56.1735 -1.02488 0.416843 444316 1948.08 445937)
(-55.6771 -1.51319 0.390614 472328 1288.03 465995)
(-56.083 -2.43051 0.357766 507593 632.698 501382)
(-53.0957 -3.13765 0.318176 504585 89.9514 556352)
(-56.3135 -5.98596 0.281679 254401 99.5254 650665)
(-54.9876 0.0780337 0.0682589 476135 829.263 438747)
(-55.5045 -0.162665 0.123187 402724 871.324 424867)
(-55.8689 -0.527248 0.132952 417863 823.802 431002)
(-56.1868 -1.04161 0.129148 440200 666.515 442468)
(-55.6775 -1.5342 0.120622 468261 445.642 462558)
(-56.0696 -2.45656 0.109916 503573 220.294 497807)
(-53.0626 -3.1699 0.0978234 500751 36.2801 552432)
(-56.2587 -6.02666 0.0861897 252596 32.508 646278)
(341296 15191.1 -4.88277 903307 -0.93907 -21.2313)
(299338 -1876.04 -7.86176 657854 -0.950978 -16.4096)
(306019 -2924.96 -8.65582 673189 -0.663484 -13.2789)
(318113 -1353.29 -8.8146 704199 -0.456439 -12.5165)
(331650 -12.0642 -8.79115 735503 -0.382356 -12.9212)
(348311 1729.18 -8.77629 766323 -0.436912 -14.2074)
(367310 5618.88 -8.75803 737144 -0.535202 -16.6484)
(389738 8545.56 -9.33907 367609 -0.749726 -18.8475)
(625390 -9805.03 -3.23353 782588 -0.514004 -27.0961)
(553041 -4018.87 -5.76626 630120 -0.60812 -26.0163)
(558495 -2402.86 -6.36286 625403 -0.398618 -25.1326)
(580370 -1383.6 -6.44286 639447 -0.194107 -24.9886)
(608023 -562.783 -6.42879 664024 -0.073571 -25.1822)
(643628 375.685 -6.47426 697416 -0.0202208 -25.6811)
(687710 1981.05 -6.6262 686847 -0.028569 -26.4781)
(756875 3757.43 -7.43975 357347 -0.109318 -27.0771)
(619103 12559.9 -3.4198 773635 -0.323292 -23.9072)
(546677 6289.34 -6.09154 621145 -0.394682 -23.0947)
(551791 4142.34 -6.75922 616280 -0.230185 -22.31)
(573492 2668.48 -6.85603 630310 -0.0265517 -22.1501)
(601063 1472.5 -6.82246 654861 0.123591 -22.3615)
(636562 174.27 -6.81458 688193 0.249674 -22.8285)
(680424 -1903.48 -6.87573 678028 0.330368 -23.7023)
(749838 -3832.36 -7.60356 353456 0.341942 -24.6593)
(336232 -13594.5 -4.01331 876774 -0.238546 -24.5547)
(294818 2871.32 -7.1552 634005 -0.273163 -24.0578)
(301003 3644.71 -7.98233 649035 -0.116084 -23.4416)
(312885 1893.19 -8.11708 679937 0.0956734 -23.3563)
(326334 396.172 -8.06435 711158 0.25676 -23.5611)
(342756 -1533.28 -8.03562 741783 0.422915 -23.8682)
(360961 -5706.98 -7.98535 713303 0.555701 -24.455)
(383208 -8758.07 -8.70489 356932 0.704357 -25.1103)
(-10.9963 0.940449 1.57977 832560 17004.4 266944)
(-6.8308 0.800602 2.73838 590510 -528.497 227777)
(-4.28551 0.212519 2.9949 605531 -2199.81 234235)
(-3.3203 -0.356157 3.03377 635542 -1060.47 243629)
(-3.4648 -0.669639 3.0094 665944 391.119 254840)
(-2.54197 -1.15242 3.11735 696301 2551.61 270871)
(-4.21095 -1.15201 3.10732 667779 6608.12 289967)
(4.97081 -3.48542 3.53953 309875 9898.56 309941)
(-18.116 0.344389 0.0718612 654058 -9920.14 523481)
(-17.2344 0.246154 0.48174 526830 -2198.88 466735)
(-16.5976 -0.0897725 0.496359 529992 -1749.83 472613)
(-16.0905 -0.466612 0.47514 546755 -1570.62 489187)
(-16.1218 -0.632699 0.492085 571443 86.8168 512484)
(-14.4864 -1.00967 0.66019 604405 2712.05 547335)
(-15.0241 -0.758393 0.83099 595112 4996.37 594710)
(-4.14179 -3.06245 1.23765 290018 6675.37 667896)
(-18.159 0.178105 0.308955 556434 2970.35 505378)
(-17.4847 0.0506799 0.792606 468863 4570.85 475320)
(-16.9268 -0.191754 0.895346 478790 2924 477984)
(-16.2961 -0.50092 0.913509 495355 1566.54 491844)
(-16.1923 -0.597558 0.931876 519117 1907.73 514604)
(-14.1251 -0.934719 1.03774 552982 3135.86 550484)
(-14.3626 -0.580683 1.1149 548546 3301.33 603623)
(-2.28951 -3.0709 1.28621 271133 2865.03 696973)
(-19.998 0.076897 0.157724 504703 6447.2 466050)
(-19.6287 -0.0717768 0.544179 426097 7208.29 446179)
(-19.3064 -0.259209 0.636988 439844 5645.77 448591)
(-18.6619 -0.510808 0.655264 459177 3841.58 459512)
(-18.4434 -0.540208 0.669351 484266 2964.08 480098)
(-15.9788 -0.830188 0.743502 518249 2633.59 515380)
(-15.8082 -0.396071 0.79278 514605 1668.39 570541)
(-2.88013 -2.9643 0.892179 255362 1207.83 668708)
(-20.2138 0.060376 0.214193 476239 6013.69 440477)
(-19.8508 -0.100478 0.543543 400231 6644.75 423903)
(-19.5245 -0.275718 0.634397 414806 5830.59 427274)
(-18.8043 -0.512245 0.655043 435767 4384.24 437117)
(-18.5071 -0.515823 0.662013 462083 3104.75 456418)
(-15.8322 -0.792367 0.699355 496164 2047.15 491213)
(-15.5169 -0.329424 0.708949 492898 839.178 546605)
(-2.10529 -2.98645 0.737447 244966 581.22 644484)
(-20.733 0.0529272 0.137642 459771 4586.2 425313)
(-20.3887 -0.113511 0.366015 385097 4960.74 409855)
(-20.0689 -0.2828 0.432256 399604 4604.43 414091)
(-19.3002 -0.51026 0.447624 421058 3671.81 423927)
(-18.9384 -0.495492 0.452332 447947 2574.34 442781)
(-16.0956 -0.761194 0.475006 482134 1514.83 477157)
(-15.6415 -0.278001 0.478705 479256 511.103 531973)
(-1.8741 -2.98757 0.492255 238410 323.529 628635)
(-20.8373 0.0542589 0.0987896 450484 2837.12 416785)
(-20.4826 -0.114971 0.237714 376598 3004.86 401756)
(-20.1478 -0.283599 0.278725 390937 2849.84 406511)
(-19.3423 -0.509299 0.288206 412426 2345.6 416608)
(-18.9433 -0.487278 0.290475 439477 1659.78 435399)
(-16.0112 -0.749836 0.300488 473723 952.781 469471)
(-15.4967 -0.258445 0.299328 471141 319.579 523644)
(-1.52342 -3.00549 0.300267 234510 179.509 619307)
(-20.9608 0.0535585 0.0270198 446258 957.711 412925)
(-20.6071 -0.116519 0.0717477 372740 1002.85 398062)
(-20.267 -0.284112 0.0852326 386985 956.854 403048)
(-19.4445 -0.508219 0.0883193 408426 798.076 413323)
(-19.023 -0.482303 0.0893862 435496 569.393 432139)
(-16.0451 -0.742284 0.0928201 469760 327.257 466056)
(-15.4874 -0.246928 0.0934227 467328 113.195 519856)
(-1.41791 -3.01075 0.0938541 232675 59.316 615000)
(389964 9.3841 -8476.45 -18.5365 -0.681715 367912)
(367474 8.81993 -5483.6 -16.1632 -0.465689 737273)
(348581 8.86493 -1640.24 -13.3783 -0.337607 766749)
(332771 8.92053 -294.305 -11.5672 -0.22032 737905)
(321793 9.02058 -21.4844 -10.1845 -0.167192 713016)
(314623 9.08175 -19.3988 -9.20773 -0.103981 696608)
(310342 9.1316 -32.3895 -8.5927 -0.0648133 686905)
(308348 9.1535 -15.3412 -8.29438 -0.0193676 682415)
(757105 7.46853 -3667.36 -26.8133 -0.0289622 357754)
(687993 6.65856 -1733.87 -26.1102 0.0531959 687410)
(644417 6.51047 -110.619 -25.0902 0.0935475 698566)
(610840 6.46503 516.237 -24.3149 0.0964864 666194)
(588188 6.47871 477.833 -23.6701 0.0769356 642507)
(573574 6.48396 275.917 -23.1927 0.0592628 627471)
(564892 6.49691 121.969 -22.8833 0.0344566 618524)
(560858 6.50156 32.659 -22.719 0.0128962 614328)
(750041 7.63059 3886.07 -24.402 0.429978 353855)
(680661 6.89995 2064.59 -23.3347 0.420459 678671)
(637247 6.83954 209.041 -22.2358 0.371846 689519)
(603710 6.85056 -504.565 -21.486 0.296455 657334)
(581041 6.89772 -495.252 -20.8247 0.228129 633807)
(566409 6.92334 -296.926 -20.3795 0.158967 618880)
(557714 6.94768 -136.111 -20.0732 0.0937941 610000)
(553674 6.95699 -37.4181 -19.9313 0.0310383 605836)
(383310 8.71561 8768.84 -24.8745 0.793976 357100)
(361035 7.99166 5734.52 -24.1243 0.647579 713517)
(342952 8.04139 1704.31 -23.3612 0.54245 742579)
(327394 8.07958 284.246 -22.8533 0.418736 714294)
(316479 8.16497 -3.65955 -22.3364 0.323299 689847)
(309351 8.21006 -1.73961 -22.0209 0.221852 673762)
(305098 8.25018 19.5856 -21.7826 0.132932 664271)
(303121 8.26648 11.1305 -21.6739 0.0434144 659888)
)
;
    }
    symmetry
    {
        type            symmetry;
    }
    bottom
    {
        type            calculated;
        value           nonuniform List<symmTensor> 
32
(
(-754263 53322.3 -5753.86 4387.98 51163.4 -774868)
(-505144 39299.8 -4133.16 14711.5 -19392.7 -217050)
(-432109 30393.5 -1811.74 -3824.26 -4187.46 -133387)
(-397911 26277.7 -709.848 -8624.63 2579.99 -121155)
(-378839 24495.9 -302.936 -10109.1 3888.47 -117374)
(-367731 23656.3 -157.902 -10981.3 3391.01 -115272)
(-361414 23221.8 -85.7818 -11462.1 2216.99 -113966)
(-358515 23026.1 -28.0492 -11661.6 764.701 -113322)
(-229031 -10869.9 -2214.79 33628 47093.8 -558621)
(-67478.5 -12199.2 -823.648 26879 -10786.3 -72852.9)
(-44458.6 -13897.5 -19.5817 5707.08 3247.1 -14894.7)
(-40129.4 -14351.9 290.971 -127.902 6912.9 -13265.8)
(-38821.6 -14235.2 276.671 -2487.92 6135.16 -14408.1)
(-38519.4 -14043.9 175.689 -4256.3 4520.22 -15187.4)
(-38464.9 -13918.6 88.724 -5422.68 2752.07 -15639.6)
(-38449.6 -13863.5 26.4514 -5977.51 924.225 -15845.4)
(-226529 12978.5 2224.41 33265.7 47414.4 -553217)
(-67333.8 12808.8 1110.71 23915.9 -9821.34 -73681.4)
(-44320.5 13713.8 300.363 2960.08 3991.78 -15968.4)
(-39977.6 13782.8 -33.4599 -2553.63 7450.44 -14172.6)
(-38683.5 13473.9 -69.3074 -4667 6515.94 -15190.3)
(-38391.2 13184.3 -27.1301 -6258.15 4774.76 -15888.2)
(-38341.1 13010.9 0.0654705 -7310.2 2898.22 -16290.2)
(-38327.2 12936.4 3.0531 -7809.12 971.864 -16471.7)
(-729414 -51712.4 5883.47 5321.37 52605.6 -754488)
(-485234 -38170.1 4327 9978.58 -16400 -212882)
(-412082 -29644.1 1914.93 -6756.31 -1912.61 -129141)
(-377966 -25818.9 780.553 -9939.52 4221.96 -116207)
(-359014 -24223.2 359.514 -10258.2 5043.92 -111960)
(-347962 -23493.2 200.335 -10318.3 4155.47 -109540)
(-341666 -23118.9 111.971 -10288.4 2652.18 -108034)
(-338774 -22950 36.8623 -10242.2 905.92 -107293)
)
;
    }
}


// ************************************************************************* //
