/*--------------------------------*- C++ -*----------------------------------*\
| =========                 |                                                 |
| \\      /  F ield         | OpenFOAM: The Open Source CFD Toolbox           |
|  \\    /   O peration     | Version:  v1912                                 |
|   \\  /    A nd           | Website:  www.openfoam.com                      |
|    \\/     M anipulation  |                                                 |
\*---------------------------------------------------------------------------*/
FoamFile
{
    version     2.0;
    format      ascii;
    class       surfaceScalarField;
    location    "0.23/fluid";
    object      meshPhi;
}
// * * * * * * * * * * * * * * * * * * * * * * * * * * * * * * * * * * * * * //

dimensions      [0 3 -1 0 0 0 0];
oriented        oriented;


internalField   nonuniform List<scalar> 
41600
(
2.3883e-13
-8.5583e-13
3.13434e-13
-3.22941e-13
4.52263e-13
-2.49445e-12
9.22747e-13
-9.51207e-13
6.45409e-13
-4.01975e-12
1.51731e-12
-1.56552e-12
8.22515e-13
-5.48942e-12
2.13536e-12
-2.20579e-12
9.87359e-13
-6.94322e-12
2.81024e-12
-2.90688e-12
1.14343e-12
-8.39949e-12
3.57099e-12
-3.69944e-12
1.29418e-12
-9.85399e-12
4.4435e-12
-4.6114e-12
1.44392e-12
-1.12768e-11
5.45174e-12
-5.66942e-12
1.60054e-12
-1.26004e-11
6.61719e-12
-6.89901e-12
1.78264e-12
-1.36949e-11
7.95674e-12
-8.32407e-12
2.0366e-12
-1.43208e-11
9.48115e-12
-9.96834e-12
2.48164e-12
-1.40286e-11
1.11982e-11
-1.18675e-11
3.38742e-12
-1.1952e-11
1.31311e-11
-1.41122e-11
5.28353e-12
-6.45124e-12
1.53556e-11
-1.69469e-11
8.59789e-12
4.40243e-12
1.78952e-11
-2.06572e-11
2.43411e-11
2.30768e-11
-3.13081e-11
7.13828e-13
-1.68734e-12
9.32926e-13
-9.61423e-13
1.35187e-12
-4.91949e-12
2.74656e-12
-2.83187e-12
1.92973e-12
-7.93104e-12
4.51609e-12
-4.66042e-12
2.46054e-12
-1.08348e-11
6.35423e-12
-6.56464e-12
2.95589e-12
-1.37098e-11
8.35929e-12
-8.64733e-12
3.42654e-12
-1.65983e-11
1.06177e-11
-1.09999e-11
3.88296e-12
-1.95027e-11
1.32076e-11
-1.37064e-11
4.3377e-12
-2.23784e-11
1.62003e-11
-1.68463e-11
4.81167e-12
-2.51152e-11
1.96586e-11
-2.04939e-11
5.35006e-12
-2.7504e-11
2.3629e-11
-2.47142e-11
6.06283e-12
-2.91811e-11
2.81313e-11
-2.95607e-11
7.22302e-12
-2.95399e-11
3.31519e-11
-3.50865e-11
9.41203e-12
-2.76511e-11
3.86539e-11
-4.14013e-11
1.3675e-11
-2.23787e-11
4.45986e-11
-4.87852e-11
2.05976e-11
-1.36204e-11
5.07063e-11
-5.72987e-11
-3.45305e-12
5.63828e-11
-6.86451e-11
1.18102e-12
-2.46873e-12
1.53059e-12
-1.5777e-12
2.2372e-12
-7.19995e-12
4.50594e-12
-4.64689e-12
3.19532e-12
-1.16136e-11
7.40769e-12
-7.64579e-12
4.07821e-12
-1.58762e-11
1.04184e-11
-1.07646e-11
4.90626e-12
-2.01079e-11
1.36972e-11
-1.41699e-11
5.6985e-12
-2.43826e-11
1.73862e-11
-1.80121e-11
6.4736e-12
-2.87232e-11
2.1615e-11
-2.24307e-11
7.25252e-12
-3.30933e-11
2.65023e-11
-2.7557e-11
8.06472e-12
-3.73783e-11
3.21507e-11
-3.35112e-11
8.96196e-12
-4.13551e-11
3.86326e-11
-4.03922e-11
1.00619e-11
-4.46462e-11
4.59659e-11
-4.82608e-11
1.16351e-11
-4.66677e-11
5.40783e-11
-5.71226e-11
1.42098e-11
-4.66532e-11
6.27652e-11
-6.69212e-11
1.86488e-11
-4.39401e-11
7.16292e-11
-7.75235e-11
2.51892e-11
-3.89656e-11
7.98431e-11
-8.81851e-11
-3.31218e-11
8.71221e-11
-1.01359e-10
1.63502e-12
-3.17299e-12
2.09253e-12
-2.15725e-12
3.0984e-12
-9.25694e-12
6.15943e-12
-6.35289e-12
4.42877e-12
-1.49408e-11
1.01224e-11
-1.04487e-11
5.65959e-12
-2.04432e-11
1.42275e-11
-1.4701e-11
6.8215e-12
-2.59278e-11
1.86894e-11
-1.93347e-11
7.94387e-12
-3.15057e-11
2.37019e-11
-2.45548e-11
9.05639e-12
-3.7234e-11
2.94438e-11
-3.05537e-11
1.01915e-11
-4.31075e-11
3.60806e-11
-3.75133e-11
1.13879e-11
-4.90442e-11
4.37567e-11
-4.56005e-11
1.26965e-11
-5.48621e-11
5.25774e-11
-5.49513e-11
1.4209e-11
-6.02409e-11
6.25715e-11
-6.56413e-11
1.60984e-11
-6.46733e-11
7.36313e-11
-7.76382e-11
1.86507e-11
-6.74599e-11
8.54159e-11
-9.07292e-11
2.23108e-11
-6.7855e-11
9.72065e-11
-1.044e-10
2.71424e-11
-6.57194e-11
1.07649e-10
-1.17271e-10
-6.14036e-11
1.15773e-10
-1.31023e-10
2.06963e-12
-3.77386e-12
2.60607e-12
-2.68686e-12
3.92364e-12
-1.10137e-11
7.66914e-12
-7.91044e-12
5.61285e-12
-1.77887e-11
1.25966e-11
-1.30029e-11
7.18211e-12
-2.43667e-11
1.76897e-11
-1.82784e-11
8.67364e-12
-3.09544e-11
2.32117e-11
-2.40127e-11
1.01296e-11
-3.77044e-11
2.94015e-11
-3.04587e-11
1.15946e-11
-4.47162e-11
3.64827e-11
-3.78563e-11
1.31192e-11
-5.2033e-11
4.4665e-11
-4.64353e-11
1.47604e-11
-5.96338e-11
5.41377e-11
-5.64111e-11
1.65838e-11
-6.74205e-11
6.50507e-11
-6.79685e-11
1.86723e-11
-7.5188e-11
7.74756e-11
-8.12292e-11
2.11201e-11
-8.2564e-11
9.13343e-11
-9.61921e-11
2.39805e-11
-8.89065e-11
1.06258e-10
-1.12607e-10
2.723e-11
-9.31578e-11
1.21325e-10
-1.2973e-10
3.05643e-11
-9.40308e-11
1.34604e-10
-1.45531e-10
-9.02753e-11
1.44267e-10
-1.60753e-10
2.47779e-12
-4.24693e-12
3.06065e-12
-3.15557e-12
4.69912e-12
-1.2399e-11
9.00361e-12
-9.28692e-12
6.72671e-12
-2.00418e-11
1.47773e-11
-1.52539e-11
8.61681e-12
-2.74869e-11
2.07288e-11
-2.14181e-11
1.04237e-11
-3.49804e-11
2.71602e-11
-2.80965e-11
1.22038e-11
-4.27149e-11
3.4347e-11
-3.55806e-11
1.40202e-11
-5.08351e-11
4.25492e-11
-4.41493e-11
1.5948e-11
-5.94396e-11
5.20152e-11
-5.40738e-11
1.80769e-11
-6.85823e-11
6.29773e-11
-6.56159e-11
2.05168e-11
-7.82755e-11
7.56379e-11
-7.90176e-11
2.34059e-11
-8.84821e-11
9.01426e-11
-9.44833e-11
2.68936e-11
-9.90798e-11
1.06525e-10
-1.12137e-10
3.10465e-11
-1.09751e-10
1.24562e-10
-1.31897e-10
3.56871e-11
-1.19671e-10
1.43424e-10
-1.53149e-10
3.99382e-11
-1.26943e-10
1.60844e-10
-1.73506e-10
-1.25646e-10
1.74064e-10
-1.92698e-10
2.8519e-12
-4.57106e-12
3.4483e-12
-3.55517e-12
5.40987e-12
-1.33511e-11
1.01394e-11
-1.04581e-11
7.74728e-12
-2.15995e-11
1.66258e-11
-1.71613e-11
9.93058e-12
-2.96623e-11
2.32888e-11
-2.40621e-11
1.20251e-11
-3.78177e-11
3.04583e-11
-3.15066e-11
1.41009e-11
-4.62926e-11
3.84351e-11
-3.98133e-11
1.62393e-11
-5.52712e-11
4.75041e-11
-4.92877e-11
1.85416e-11
-6.49018e-11
5.79404e-11
-6.023e-11
2.11369e-11
-7.53075e-11
7.00079e-11
-7.29361e-11
2.42004e-11
-8.66033e-11
8.39534e-11
-8.76972e-11
2.7982e-11
-9.89204e-11
9.99993e-11
-1.04807e-10
3.28307e-11
-1.12438e-10
1.18329e-10
-1.24564e-10
3.9176e-11
-1.27409e-10
1.39001e-10
-1.4722e-10
4.74123e-11
-1.44081e-10
1.61636e-10
-1.72738e-10
5.67069e-11
-1.61662e-10
1.84217e-10
-1.99118e-10
-1.79815e-10
2.03463e-10
-2.27678e-10
3.18465e-12
3.7642e-12
-3.88071e-12
-4.72959e-12
6.0415e-12
1.10625e-11
-1.14097e-11
-1.38212e-11
8.65228e-12
1.81195e-11
-1.8702e-11
-2.23819e-11
1.10912e-11
2.5338e-11
-2.61775e-11
-3.07801e-11
1.34319e-11
3.30637e-11
-3.41988e-11
-3.93156e-11
1.57542e-11
4.1609e-11
-4.30973e-11
-4.82385e-11
1.81526e-11
5.12689e-11
-5.31895e-11
-5.77608e-11
2.07469e-11
6.23281e-11
-6.47857e-11
-6.80644e-11
2.36958e-11
7.50596e-11
-7.81917e-11
-7.93147e-11
2.72247e-11
8.97234e-11
-9.37156e-11
-9.16822e-11
3.16719e-11
1.06573e-10
-1.11691e-10
-1.05377e-10
3.75548e-11
1.25875e-10
-1.32514e-10
-1.20701e-10
4.56397e-11
1.47877e-10
-1.56666e-10
-1.38117e-10
5.69428e-11
1.72597e-10
-1.84623e-10
-1.58264e-10
7.08322e-11
1.98363e-10
-2.14901e-10
-1.80526e-10
2.24106e-10
-2.55547e-10
-2.12872e-10
2.29209e-13
-8.73027e-13
2.9215e-13
4.32684e-13
-2.54462e-12
8.59822e-13
6.14035e-13
-4.10098e-12
1.41295e-12
7.75752e-13
-5.60171e-12
1.98647e-12
9.19356e-13
-7.08869e-12
2.61065e-12
1.04516e-12
-8.58284e-12
3.31159e-12
1.15176e-12
-1.00833e-11
4.11209e-12
1.23554e-12
-1.15657e-11
5.03198e-12
1.291e-12
-1.29737e-11
6.08653e-12
1.31319e-12
-1.42007e-11
7.28202e-12
1.30677e-12
-1.50568e-11
8.6077e-12
1.30325e-12
-1.52072e-11
1.0023e-11
1.37864e-12
-1.40566e-11
1.14334e-11
1.64623e-12
-1.06061e-11
1.26316e-11
2.0963e-12
-3.92233e-12
1.32051e-11
5.54302e-12
1.18373e-11
6.85635e-13
-1.72082e-12
8.69518e-13
1.29456e-12
-5.01699e-12
2.559e-12
1.83802e-12
-8.08872e-12
4.20482e-12
2.32407e-12
-1.1053e-11
5.91031e-12
2.75792e-12
-1.39929e-11
7.76483e-12
3.14127e-12
-1.69549e-11
9.84611e-12
3.47083e-12
-1.99467e-11
1.22226e-11
3.737e-12
-2.29328e-11
1.49535e-11
3.92366e-12
-2.58211e-11
1.80841e-11
4.01387e-12
-2.84389e-11
2.16315e-11
4.01019e-12
-3.04971e-11
2.55602e-11
3.97607e-12
-3.15468e-11
2.97409e-11
4.07713e-12
-3.0976e-11
3.38736e-11
4.5841e-12
-2.82172e-11
3.73403e-11
5.55541e-12
-2.36212e-11
3.90818e-11
-2.06704e-11
3.57269e-11
1.13623e-12
-2.51715e-12
1.42647e-12
2.14628e-12
-7.34094e-12
4.19779e-12
3.05013e-12
-1.18416e-11
6.89618e-12
3.86292e-12
-1.61916e-11
9.68927e-12
4.59535e-12
-2.05166e-11
1.27221e-11
5.25287e-12
-2.4895e-11
1.61222e-11
5.83367e-12
-2.93558e-11
2.00033e-11
6.32621e-12
-3.38724e-11
2.44642e-11
6.70695e-12
-3.83492e-11
2.95802e-11
6.9433e-12
-4.26002e-11
3.53812e-11
7.01175e-12
-4.6323e-11
4.18118e-11
6.93258e-12
-4.90841e-11
4.86626e-11
6.80627e-12
-5.03963e-11
5.54504e-11
6.85943e-12
-5.00381e-11
6.12367e-11
7.27686e-12
-4.86891e-11
6.46076e-11
-4.85436e-11
6.26856e-11
1.5767e-12
-3.23467e-12
1.95016e-12
2.9802e-12
-9.43654e-12
5.73803e-12
4.24059e-12
-1.52311e-11
9.423e-12
5.38194e-12
-2.08442e-11
1.32312e-11
6.42308e-12
-2.64452e-11
1.73585e-11
7.37705e-12
-3.21503e-11
2.19788e-11
8.24927e-12
-3.80214e-11
2.7249e-11
9.03422e-12
-4.40609e-11
3.33077e-11
9.7103e-12
-5.02011e-11
4.02635e-11
1.02345e-11
-5.62882e-11
4.81684e-11
1.05453e-11
-6.20583e-11
5.69683e-11
1.05573e-11
-6.71169e-11
6.64141e-11
1.01518e-11
-7.09776e-11
7.59115e-11
9.24742e-12
-7.32537e-11
8.43075e-11
8.0223e-12
-7.40882e-11
8.9874e-11
-7.50554e-11
8.94804e-11
2.00154e-12
-3.84665e-12
2.42884e-12
3.78594e-12
-1.12256e-11
7.14463e-12
5.39451e-12
-1.81309e-11
1.17263e-11
6.86196e-12
-2.48382e-11
1.64511e-11
8.21789e-12
-3.15602e-11
2.15589e-11
9.48726e-12
-3.84535e-11
2.72646e-11
1.06897e-11
-4.56209e-11
3.37643e-11
1.1837e-11
-5.31088e-11
4.12341e-11
1.29261e-11
-6.09024e-11
4.98191e-11
1.39285e-11
-6.8916e-11
5.9605e-11
1.47725e-11
-7.69698e-11
7.05657e-11
1.52912e-11
-8.47455e-11
8.24655e-11
1.51284e-11
-9.17162e-11
9.46783e-11
1.37286e-11
-9.70661e-11
1.05904e-10
1.08989e-11
-9.98463e-11
1.14028e-10
-1.00924e-10
1.15418e-10
2.40396e-12
-4.32821e-12
2.85266e-12
4.55021e-12
-1.26355e-11
8.38826e-12
6.49178e-12
-2.04234e-11
1.37571e-11
8.27483e-12
-2.80113e-11
1.92782e-11
9.94143e-12
-3.56512e-11
2.52274e-11
1.15317e-11
-4.35388e-11
3.18521e-11
1.30853e-11
-5.18196e-11
3.93806e-11
1.4642e-11
-6.05905e-11
4.80217e-11
1.62372e-11
-6.99024e-11
5.79552e-11
1.78949e-11
-7.9762e-11
6.93056e-11
1.96077e-11
-9.01224e-11
8.20958e-11
2.12687e-11
-1.00847e-10
9.61531e-11
2.25173e-11
-1.11604e-10
1.1091e-10
2.25524e-11
-1.21589e-10
1.25034e-10
2.0451e-11
-1.29089e-10
1.36055e-10
-1.30441e-10
1.39857e-10
2.77623e-12
-4.65786e-12
3.21418e-12
5.25767e-12
-1.36036e-11
9.44701e-12
7.5085e-12
-2.20063e-11
1.54789e-11
9.58584e-12
-3.02203e-11
2.16605e-11
1.15441e-11
-3.8529e-11
2.82929e-11
1.34389e-11
-4.71615e-11
3.56462e-11
1.53318e-11
-5.63004e-11
4.39701e-11
1.72945e-11
-6.60881e-11
5.34963e-11
1.94122e-11
-7.66361e-11
6.44291e-11
2.17892e-11
-8.80387e-11
7.6924e-11
2.45513e-11
-1.00388e-10
9.1051e-11
2.78202e-11
-1.1379e-10
1.06718e-10
3.16222e-11
-1.28361e-10
1.23471e-10
3.56831e-11
-1.44095e-10
1.40049e-10
3.89693e-11
-1.60015e-10
1.5369e-10
-1.74503e-10
1.59287e-10
3.11048e-12
3.5089e-12
-4.81869e-12
5.89279e-12
1.03079e-11
-1.40803e-11
8.42037e-12
1.68711e-11
-2.27993e-11
1.07593e-11
2.35688e-11
-3.13518e-11
1.2974e-11
3.07166e-11
-4.00427e-11
1.51326e-11
3.85947e-11
-4.91235e-11
1.7314e-11
4.74619e-11
-5.88027e-11
1.96158e-11
5.75574e-11
-6.92533e-11
2.21645e-11
6.9092e-11
-8.06238e-11
2.51332e-11
8.2228e-11
-9.3054e-11
2.87676e-11
9.70516e-11
-1.06697e-10
3.34113e-11
1.13512e-10
-1.21751e-10
3.95162e-11
1.3124e-10
-1.38479e-10
4.75519e-11
1.49101e-10
-1.5713e-10
5.67769e-11
1.64247e-10
-1.76707e-10
1.70045e-10
-1.99561e-10
2.18636e-13
-8.87472e-13
2.60153e-13
4.11188e-13
-2.58684e-12
7.65422e-13
5.79572e-13
-4.16956e-12
1.25708e-12
7.24319e-13
-5.69677e-12
1.76576e-12
8.44429e-13
-7.21205e-12
2.31768e-12
9.36694e-13
-8.73888e-12
2.93507e-12
9.94296e-13
-1.02805e-11
3.63671e-12
1.00497e-12
-1.182e-11
4.4378e-12
9.48734e-13
-1.33157e-11
5.3476e-12
7.95363e-13
-1.46918e-11
6.36365e-12
5.02395e-13
-1.58244e-11
7.46195e-12
6.54012e-15
-1.65242e-11
8.57977e-12
-8.11504e-13
-1.65215e-11
9.58715e-12
-2.19857e-12
-1.5499e-11
1.02438e-11
-4.39486e-12
-1.34012e-11
1.02136e-11
-1.06286e-11
9.73792e-12
6.5463e-13
-1.74903e-12
7.74308e-13
1.23157e-12
-5.0993e-12
2.27809e-12
1.73713e-12
-8.22205e-12
3.741e-12
2.17376e-12
-1.12374e-11
5.25364e-12
2.53946e-12
-1.42318e-11
6.89348e-12
2.8259e-12
-1.72557e-11
8.72678e-12
3.01453e-12
-2.03233e-11
1.08099e-11
3.07155e-12
-2.34109e-11
1.31885e-11
2.94119e-12
-2.64499e-11
1.58902e-11
2.53925e-12
-2.93149e-11
1.89083e-11
1.74951e-12
-3.18118e-11
2.21731e-11
4.11391e-13
-3.3682e-11
2.55037e-11
-1.72281e-12
-3.46648e-11
2.85328e-11
-5.02671e-12
-3.47106e-11
3.06157e-11
-9.57934e-12
-3.43531e-11
3.09475e-11
-3.55817e-11
2.92347e-11
1.08684e-12
-2.55805e-12
1.27037e-12
2.04607e-12
-7.46007e-12
3.73724e-12
2.88996e-12
-1.20341e-11
6.13576e-12
3.62505e-12
-1.64568e-11
8.61295e-12
4.25113e-12
-2.08583e-11
1.12947e-11
4.7585e-12
-2.53212e-11
1.42899e-11
5.12263e-12
-2.98811e-11
1.76923e-11
5.29664e-12
-3.45233e-11
2.15782e-11
5.20064e-12
-3.91761e-11
2.59951e-11
4.71085e-12
-4.37002e-11
3.09374e-11
3.65272e-12
-4.78839e-11
3.63032e-11
1.78832e-12
-5.14651e-11
4.18252e-11
-1.1855e-12
-5.42415e-11
4.69745e-11
-5.50882e-12
-5.63333e-11
5.0878e-11
-1.0685e-11
-5.83689e-11
5.25558e-11
-6.1421e-11
5.23264e-11
1.51211e-12
-3.28675e-12
1.73699e-12
2.84934e-12
-9.588e-12
5.10907e-12
4.03206e-12
-1.54751e-11
8.38466e-12
5.07365e-12
-2.11788e-11
1.17622e-11
5.97959e-12
-2.68728e-11
1.54117e-11
6.74452e-12
-3.26769e-11
1.94818e-11
7.34676e-12
-3.86575e-11
2.41021e-11
7.73946e-12
-4.48251e-11
2.938e-11
7.83666e-12
-5.11282e-11
3.53864e-11
7.49564e-12
-5.74453e-11
4.21268e-11
6.49602e-12
-6.35762e-11
4.94901e-11
4.50188e-12
-6.9249e-11
5.71683e-11
1.05015e-12
-7.41888e-11
6.45522e-11
-4.24975e-12
-7.82955e-11
7.06562e-11
-1.07391e-11
-8.17855e-11
7.43557e-11
-8.55396e-11
7.58703e-11
1.92567e-12
-3.90792e-12
2.16365e-12
3.63254e-12
-1.14036e-11
6.36228e-12
5.151e-12
-1.84167e-11
1.04353e-11
6.504e-12
-2.52281e-11
1.46258e-11
7.70664e-12
-3.2054e-11
1.91425e-11
8.76422e-12
-3.90532e-11
2.41687e-11
9.66795e-12
-4.63292e-11
2.98665e-11
1.03868e-11
-5.39299e-11
3.6373e-11
1.08527e-11
-6.18439e-11
4.37849e-11
1.09371e-11
-6.99944e-11
5.21278e-11
1.04123e-11
-7.82226e-11
6.13011e-11
8.87034e-12
-8.62596e-11
7.09922e-11
5.63814e-12
-9.36903e-11
8.05569e-11
-9.50527e-14
-9.99252e-11
8.89195e-11
-7.99813e-12
-1.04283e-10
9.47375e-11
-1.07446e-10
9.80037e-11
2.32106e-12
-4.39633e-12
2.54152e-12
4.383e-12
-1.28332e-11
7.47063e-12
6.22755e-12
-2.07398e-11
1.22438e-11
7.88896e-12
-2.84407e-11
1.7141e-11
9.39487e-12
-3.61904e-11
2.24019e-11
1.07661e-11
-4.41847e-11
2.82378e-11
1.20153e-11
-5.25657e-11
3.48372e-11
1.31413e-11
-6.1424e-11
4.23624e-11
1.41187e-11
-7.07993e-11
5.09344e-11
1.48775e-11
-8.06802e-11
6.06009e-11
1.52596e-11
-9.09899e-11
7.1282e-11
1.49186e-11
-1.01549e-10
8.26783e-11
1.31586e-11
-1.11977e-10
9.41314e-11
8.86396e-12
-1.21478e-10
1.04467e-10
1.57611e-12
-1.28562e-10
1.12078e-10
-1.30097e-10
1.1687e-10
2.6904e-12
-4.73023e-12
2.86396e-12
5.08506e-12
-1.38133e-11
8.41456e-12
7.23711e-12
-2.23413e-11
1.37779e-11
9.1924e-12
-3.06728e-11
1.92616e-11
1.09919e-11
-3.90932e-11
2.51274e-11
1.26737e-11
-4.78294e-11
3.16055e-11
1.42749e-11
-5.70569e-11
3.89022e-11
1.58316e-11
-6.69049e-11
4.7197e-11
1.73756e-11
-7.74611e-11
5.66272e-11
1.89276e-11
-8.87779e-11
6.72554e-11
2.04735e-11
-1.00873e-10
7.9016e-11
2.18984e-11
-1.13721e-10
9.16218e-11
2.28577e-11
-1.27209e-10
1.04393e-10
2.26217e-11
-1.4097e-10
1.16009e-10
2.0388e-11
-1.53775e-10
1.2447e-10
-1.64136e-10
1.29339e-10
3.02535e-12
3.12693e-12
-4.89261e-12
5.72209e-12
9.18249e-12
-1.42944e-11
8.15348e-12
1.50191e-11
-2.31407e-11
1.03754e-11
2.09619e-11
-3.18115e-11
1.24404e-11
2.72846e-11
-4.06127e-11
1.44016e-11
3.42262e-11
-4.97923e-11
1.63174e-11
4.20003e-11
-5.95494e-11
1.8256e-11
5.07923e-11
-7.00387e-11
2.03005e-11
6.0742e-11
-8.13773e-11
2.25547e-11
7.1911e-11
-9.36496e-11
2.51444e-11
8.42306e-11
-1.06912e-10
2.82007e-11
9.74106e-11
-1.2119e-10
3.1818e-11
1.10752e-10
-1.36444e-10
3.59565e-11
1.22843e-10
-1.52421e-10
3.9959e-11
1.31394e-10
-1.67751e-10
1.34475e-10
-1.83306e-10
2.08074e-13
-8.98845e-13
2.18864e-13
3.89726e-13
-2.62006e-12
6.43774e-13
5.45163e-13
-4.22355e-12
1.05676e-12
6.72981e-13
-5.7719e-12
1.48323e-12
7.69757e-13
-7.3103e-12
1.94475e-12
8.29027e-13
-8.86427e-12
2.45916e-12
8.3918e-13
-1.04404e-11
3.04098e-12
7.80647e-13
-1.20285e-11
3.70121e-12
6.22091e-13
-1.36003e-11
4.4449e-12
3.1527e-13
-1.51063e-11
5.26622e-12
-2.12271e-13
-1.64739e-11
6.1399e-12
-1.0741e-12
-1.76126e-11
7.01e-12
-2.46476e-12
-1.84302e-11
7.78101e-12
-4.69429e-12
-1.88662e-11
8.32105e-12
-7.83064e-12
-1.8925e-11
8.51569e-12
-1.7883e-11
8.96452e-12
6.23622e-13
-1.77143e-12
6.51499e-13
1.16858e-12
-5.16469e-12
1.91627e-12
1.63624e-12
-8.32811e-12
3.1452e-12
2.02348e-12
-1.13844e-11
4.41348e-12
2.32144e-12
-1.44225e-11
5.78475e-12
2.51243e-12
-1.74962e-11
7.31224e-12
2.56437e-12
-2.06251e-11
9.03969e-12
2.42307e-12
-2.37961e-11
1.10002e-11
2.00192e-12
-2.69617e-11
1.3209e-11
1.1694e-12
-3.00361e-11
1.56497e-11
-2.64757e-13
-3.28981e-11
1.82496e-11
-2.57303e-12
-3.54141e-11
2.08495e-11
-6.13776e-12
-3.75031e-11
2.31795e-11
-1.13535e-11
-3.92476e-11
2.48723e-11
-1.77367e-11
-4.08893e-11
2.56291e-11
-4.30729e-11
2.54471e-11
1.03734e-12
-2.59073e-12
1.0691e-12
1.9456e-12
-7.55534e-12
3.14427e-12
2.72935e-12
-1.2188e-11
5.15943e-12
3.3866e-12
-1.66686e-11
7.23663e-12
3.90669e-12
-2.11299e-11
9.47923e-12
4.26577e-12
-2.56579e-11
1.19747e-11
4.41911e-12
-3.02936e-11
1.47961e-11
4.29013e-12
-3.50326e-11
1.79989e-11
3.75566e-12
-3.98233e-11
2.16104e-11
2.6292e-12
-4.45639e-11
2.56085e-11
6.46753e-13
-4.91085e-11
2.98869e-11
-2.54229e-12
-5.3301e-11
3.42135e-11
-7.31887e-12
-5.70691e-11
3.82026e-11
-1.3753e-11
-6.0573e-11
4.13511e-11
-2.05117e-11
-6.41096e-11
4.3271e-11
-6.78927e-11
4.43591e-11
1.44713e-12
-3.32847e-12
1.4621e-12
2.71769e-12
-9.70938e-12
4.2993e-12
3.82219e-12
-1.56702e-11
7.05179e-12
4.76347e-12
-2.14449e-11
9.88415e-12
5.53406e-12
-2.72095e-11
1.2936e-11
6.11138e-12
-3.3086e-11
1.6327e-11
6.4495e-12
-3.91435e-11
2.01581e-11
6.46696e-12
-4.53985e-11
2.45077e-11
6.02904e-12
-5.18113e-11
2.94177e-11
4.92628e-12
-5.82826e-11
3.48687e-11
2.85128e-12
-6.46519e-11
4.07403e-11
-6.20499e-13
-7.07123e-11
4.6764e-11
-5.95796e-12
-7.62688e-11
5.24982e-11
-1.32501e-11
-8.12478e-11
5.73836e-11
-2.09438e-11
-8.56634e-11
6.09521e-11
-8.9791e-11
6.34718e-11
1.84902e-12
-3.957e-12
1.8216e-12
3.47754e-12
-1.1546e-11
5.35492e-12
4.90484e-12
-1.86446e-11
8.77798e-12
6.14211e-12
-2.55361e-11
1.22925e-11
7.19031e-12
-3.24381e-11
1.60696e-11
8.0361e-12
-3.95094e-11
2.0257e-11
8.64505e-12
-4.68524e-11
2.49811e-11
8.95029e-12
-5.45133e-11
3.03417e-11
8.83449e-12
-6.24791e-11
3.63971e-11
8.10442e-12
-7.06714e-11
4.31363e-11
6.45228e-12
-7.89322e-11
5.0437e-11
3.40133e-12
-8.69995e-11
5.80135e-11
-1.68711e-12
-9.44744e-11
6.5388e-11
-9.26379e-12
-1.00782e-10
7.19441e-11
-1.80981e-11
-1.05198e-10
7.70854e-11
-1.07981e-10
8.0923e-11
2.23686e-12
-4.45075e-12
2.14012e-12
4.21315e-12
-1.29908e-11
6.28888e-12
5.95896e-12
-2.09908e-11
1.0301e-11
7.4965e-12
-2.8777e-11
1.44086e-11
8.83909e-12
-3.6604e-11
1.88084e-11
9.98913e-12
-4.4665e-11
2.36705e-11
1.09341e-11
-5.30965e-11
2.91415e-11
1.16387e-11
-6.19786e-11
3.53395e-11
1.20309e-11
-7.13342e-11
4.2337e-11
1.198e-11
-8.11237e-11
5.01317e-11
1.12529e-11
-9.12264e-11
5.85999e-11
9.43746e-12
-1.01398e-10
6.74388e-11
5.86917e-12
-1.11179e-10
7.61217e-11
-2.17152e-13
-1.19707e-10
8.39319e-11
-8.37295e-12
-1.25564e-10
9.0118e-11
-1.25629e-10
9.48002e-11
2.60269e-12
-4.78784e-12
2.41202e-12
4.90859e-12
-1.39799e-11
7.08465e-12
6.95941e-12
-2.26054e-11
1.15936e-11
8.78933e-12
-3.10241e-11
1.61939e-11
1.04257e-11
-3.952e-11
2.11003e-11
1.18895e-11
-4.83151e-11
2.64978e-11
1.31949e-11
-5.7575e-11
3.25468e-11
1.43469e-11
-6.7411e-11
3.93774e-11
1.53358e-11
-7.78809e-11
4.70705e-11
1.61265e-11
-8.89862e-11
5.56253e-11
1.66328e-11
-1.00663e-10
6.491e-11
1.66645e-11
-1.12755e-10
7.45928e-11
1.58693e-11
-1.24966e-10
8.40672e-11
1.37843e-11
-1.3673e-10
9.24367e-11
1.04649e-11
-1.46892e-10
9.86984e-11
-1.54451e-10
1.02988e-10
2.9377e-12
2.63389e-12
-4.95123e-12
5.54627e-12
7.73244e-12
-1.44637e-11
7.87823e-12
1.26403e-11
-2.34082e-11
9.97874e-12
1.76267e-11
-3.21653e-11
1.1888e-11
2.29163e-11
-4.10386e-11
1.3644e-11
2.87011e-11
-5.02694e-11
1.52854e-11
3.51473e-11
-6.0044e-11
1.68539e-11
4.23884e-11
-7.04946e-11
1.8397e-11
5.05047e-11
-8.17e-11
1.99699e-11
5.94878e-11
-9.36821e-11
2.16311e-11
6.9189e-11
-1.06397e-10
2.34302e-11
7.92428e-11
-1.19716e-10
2.54122e-11
8.89678e-11
-1.33381e-10
2.76837e-11
9.73027e-11
-1.4691e-10
3.02977e-11
1.02992e-10
-1.59075e-10
1.05469e-10
-1.71446e-10
1.98432e-13
-9.07175e-13
1.7011e-13
3.70138e-13
-2.64438e-12
5.00223e-13
5.13766e-13
-4.26321e-12
8.20725e-13
6.26182e-13
-5.82766e-12
1.15126e-12
7.01966e-13
-7.3841e-12
1.50825e-12
7.3209e-13
-8.95917e-12
1.90495e-12
7.01429e-13
-1.05617e-11
2.35184e-12
5.8562e-13
-1.21864e-11
2.85642e-12
3.4709e-13
-1.38142e-11
3.42154e-12
-7.01132e-14
-1.5412e-11
4.04171e-12
-7.47692e-13
-1.69344e-11
4.69703e-12
-1.80767e-12
-1.83312e-11
5.3486e-12
-3.44164e-12
-1.95584e-11
5.94096e-12
-5.91224e-12
-2.05663e-11
6.41485e-12
-9.15027e-12
-2.12068e-11
6.72823e-12
-2.02904e-11
7.39312e-12
5.95261e-13
-1.78807e-12
5.06448e-13
1.11096e-12
-5.21342e-12
1.48924e-12
1.54395e-12
-8.40756e-12
2.4432e-12
1.88623e-12
-1.1495e-11
3.4263e-12
2.12319e-12
-1.45665e-11
4.48702e-12
2.22981e-12
-1.76776e-11
5.66494e-12
2.16404e-12
-2.08516e-11
6.9917e-12
1.85838e-12
-2.40833e-11
8.48999e-12
1.20961e-12
-2.73389e-11
1.01684e-11
6.68542e-14
-3.05566e-11
1.20107e-11
-1.77982e-12
-3.36516e-11
1.39599e-11
-4.61153e-12
-3.65367e-11
1.59046e-11
-8.77086e-12
-3.91625e-11
1.76817e-11
-1.44757e-11
-4.15413e-11
1.91075e-11
-2.08859e-11
-4.3625e-11
2.00425e-11
-4.55849e-11
2.03199e-11
9.91916e-13
-2.61534e-12
8.31258e-13
1.85338e-12
-7.62727e-12
2.44419e-12
2.58195e-12
-1.23045e-11
4.00893e-12
3.16822e-12
-1.68288e-11
5.61934e-12
3.59276e-12
-2.13343e-11
7.35405e-12
3.82049e-12
-2.5909e-11
9.27832e-12
3.7918e-12
-3.05971e-11
1.14451e-11
3.41102e-12
-3.54013e-11
1.38925e-11
2.5324e-12
-4.02823e-11
1.66359e-11
9.46213e-13
-4.51583e-11
1.96519e-11
-1.62778e-12
-4.99122e-11
2.28567e-11
-5.52419e-12
-5.4419e-11
2.60859e-11
-1.10138e-11
-5.86095e-11
2.90986e-11
-1.78566e-11
-6.25418e-11
3.16253e-11
-2.4282e-11
-6.6259e-11
3.3452e-11
-6.97341e-11
3.46446e-11
1.38731e-12
-3.3601e-12
1.13709e-12
2.59641e-12
-9.80151e-12
3.3429e-12
3.62898e-12
-1.58183e-11
5.4807e-12
4.47853e-12
-2.16458e-11
7.67687e-12
5.12673e-12
-2.74608e-11
1.00376e-11
5.53721e-12
-3.33857e-11
1.26522e-11
5.64626e-12
-3.9491e-11
1.5594e-11
5.35042e-12
-4.57957e-11
1.89168e-11
4.49069e-12
-5.22649e-11
2.26442e-11
2.83629e-12
-5.88064e-11
2.67519e-11
7.43978e-14
-6.52693e-11
3.11422e-11
-4.17267e-12
-7.14527e-11
3.56204e-11
-1.02015e-11
-7.71431e-11
3.99042e-11
-1.7713e-11
-8.21778e-11
4.36861e-11
-2.47396e-11
-8.6413e-11
4.66886e-11
-9.0015e-11
4.8853e-11
1.77817e-12
-3.99426e-12
1.41701e-12
3.33423e-12
-1.16542e-11
4.16466e-12
4.67738e-12
-1.88171e-11
6.82383e-12
5.80843e-12
-2.5767e-11
9.54924e-12
6.7163e-12
-3.2721e-11
1.2471e-11
7.37267e-12
-3.98363e-11
1.56996e-11
7.72427e-12
-4.72127e-11
1.93265e-11
7.6817e-12
-5.48925e-11
2.34202e-11
7.10422e-12
-6.28555e-11
2.80131e-11
5.78106e-12
-7.10123e-11
3.30831e-11
3.4093e-12
-7.91878e-11
3.85247e-11
-4.19126e-13
-8.70945e-11
4.41205e-11
-6.13382e-12
-9.42928e-11
4.9553e-11
-1.37602e-11
-1.00145e-10
5.44712e-11
-2.16819e-11
-1.03885e-10
5.85127e-11
-1.05774e-10
6.1511e-11
2.1587e-12
-4.49204e-12
1.66512e-12
4.05545e-12
-1.31103e-11
4.89204e-12
5.70974e-12
-2.11799e-11
8.00941e-12
7.133e-12
-2.9027e-11
1.11952e-11
8.32624e-12
-3.69042e-11
1.4599e-11
9.27685e-12
-4.50008e-11
1.83476e-11
9.95385e-12
-5.34461e-11
2.25475e-11
1.03004e-11
-6.23088e-11
2.72787e-11
1.02232e-11
-7.15921e-11
3.25811e-11
9.5765e-12
-8.12251e-11
3.84329e-11
8.13679e-12
-9.10416e-11
4.47176e-11
5.56616e-12
-1.00736e-10
5.11888e-11
1.41575e-12
-1.0978e-10
5.74738e-11
-4.64627e-12
-1.17269e-10
6.31433e-11
-1.17836e-11
-1.21891e-10
6.77537e-11
-1.20811e-10
7.11752e-11
2.52086e-12
-4.83145e-12
1.87701e-12
4.74397e-12
-1.41057e-11
5.51207e-12
6.70047e-12
-2.28035e-11
9.01618e-12
8.41396e-12
-3.12831e-11
1.25848e-11
9.89995e-12
-3.98253e-11
1.63808e-11
1.11653e-11
-4.8646e-11
2.05426e-11
1.22071e-11
-5.79001e-11
2.51861e-11
1.30108e-11
-6.76804e-11
3.03989e-11
1.35471e-11
-7.80143e-11
3.62238e-11
1.37677e-11
-8.88561e-11
4.26341e-11
1.35933e-11
-1.00073e-10
4.94955e-11
1.2898e-11
-1.11418e-10
5.6519e-11
1.15217e-11
-1.22499e-10
6.32492e-11
9.40898e-12
-1.32719e-10
6.91183e-11
7.02504e-12
-1.41163e-10
7.35602e-11
-1.47438e-10
7.65764e-11
2.85548e-12
2.05e-12
-4.99549e-12
5.38135e-12
6.0171e-12
-1.45911e-11
7.62008e-12
9.83192e-12
-2.36078e-11
9.60697e-12
1.37008e-11
-3.24241e-11
1.13714e-11
1.77941e-11
-4.13393e-11
1.29385e-11
2.22553e-11
-5.05872e-11
1.4332e-11
2.72045e-11
-6.03403e-11
1.55765e-11
3.27312e-11
-7.07086e-11
1.67022e-11
3.88754e-11
-8.1734e-11
1.7751e-11
4.56006e-11
-9.33828e-11
1.87832e-11
5.27501e-11
-1.05533e-10
1.98932e-11
5.99932e-11
-1.17958e-10
2.1273e-11
6.6795e-11
-1.30304e-10
2.33641e-11
7.24523e-11
-1.42079e-10
2.66083e-11
7.62618e-11
-1.52371e-10
7.79331e-11
-1.63363e-10
1.90509e-13
-9.12644e-13
1.15901e-13
3.5402e-13
-2.66047e-12
3.40728e-13
4.87881e-13
-4.28997e-12
5.58854e-13
5.87638e-13
-5.86617e-12
7.83656e-13
6.46441e-13
-7.43587e-12
1.02614e-12
6.53531e-13
-9.02604e-12
1.29501e-12
5.91664e-13
-1.06468e-11
1.59697e-12
4.34193e-13
-1.22957e-11
1.93675e-12
1.4198e-13
-1.39588e-11
2.31606e-12
-3.40557e-13
-1.56103e-11
2.7311e-12
-1.09034e-12
-1.72134e-11
3.16979e-12
-2.21697e-12
-1.87225e-11
3.60995e-12
-3.88814e-12
-2.00854e-11
4.02167e-12
-6.33841e-12
-2.12089e-11
4.37578e-12
-9.5198e-12
-2.18534e-11
4.64432e-12
-2.07399e-11
5.17711e-12
5.71872e-13
-1.79945e-12
3.4512e-13
1.06336e-12
-5.24705e-12
1.01466e-12
1.46763e-12
-8.46308e-12
1.66418e-12
1.77296e-12
-1.15731e-11
2.33299e-12
1.96058e-12
-1.46685e-11
3.05355e-12
2.00048e-12
-1.78056e-11
3.8519e-12
1.84461e-12
-2.10096e-11
4.74843e-12
1.41931e-12
-2.42797e-11
5.75741e-12
6.17505e-13
-2.75896e-11
6.88372e-12
-7.09016e-13
-3.08867e-11
8.11644e-12
-2.75385e-12
-3.40947e-11
9.42065e-12
-5.75789e-12
-3.7126e-11
1.07308e-11
-9.98747e-12
-3.99021e-11
1.19548e-11
-1.5572e-11
-4.23426e-11
1.29915e-11
-2.17275e-11
-4.42655e-11
1.3738e-11
-4.57754e-11
1.40015e-11
9.54274e-13
-2.63261e-12
5.66616e-13
1.77684e-12
-7.67808e-12
1.66588e-12
2.45966e-12
-1.23874e-11
2.73175e-12
2.98757e-12
-1.69429e-11
3.82762e-12
3.33473e-12
-2.14792e-11
5.00613e-12
3.45844e-12
-2.60845e-11
6.31032e-12
3.29017e-12
-3.08049e-11
7.77444e-12
2.7257e-12
-3.56466e-11
9.42245e-12
1.6152e-12
-4.05753e-11
1.12628e-11
-2.43716e-13
-4.55144e-11
1.328e-11
-3.10072e-12
-5.03489e-11
1.54218e-11
-7.21939e-12
-5.49429e-11
1.75879e-11
-1.27422e-11
-5.9183e-11
1.96363e-11
-1.92905e-11
-6.30241e-11
2.14065e-11
-2.51921e-11
-6.6404e-11
2.27301e-11
-6.93264e-11
2.35501e-11
1.33751e-12
-3.38261e-12
7.75302e-13
2.4954e-12
-9.86731e-12
2.27914e-12
3.4682e-12
-1.59242e-11
3.73583e-12
4.24225e-12
-2.17888e-11
5.23059e-12
4.79119e-12
-2.76372e-11
6.83447e-12
5.06923e-12
-3.35914e-11
8.60646e-12
5.00204e-12
-3.97219e-11
1.05941e-11
4.47684e-12
-4.60476e-11
1.2831e-11
3.33192e-12
-5.25327e-11
1.53304e-11
1.34951e-12
-5.90811e-11
1.80754e-11
-1.73902e-12
-6.55329e-11
2.10034e-11
-6.21291e-12
-7.16663e-11
2.39909e-11
-1.22005e-11
-7.72205e-11
2.68653e-11
-1.92391e-11
-8.19486e-11
2.9436e-11
-2.55165e-11
-8.56542e-11
3.14837e-11
-8.85915e-11
3.2866e-11
1.71899e-12
-4.02095e-12
9.66396e-13
3.2145e-12
-1.17318e-11
2.84014e-12
4.48762e-12
-1.89403e-11
4.65256e-12
5.53106e-12
-2.59302e-11
6.50781e-12
6.32477e-12
-3.2917e-11
8.49298e-12
6.83014e-12
-4.00556e-11
1.0681e-11
6.98274e-12
-4.74429e-11
1.31313e-11
6.68408e-12
-5.51156e-11
1.58862e-11
5.79251e-12
-6.30444e-11
1.89638e-11
4.11492e-12
-7.11243e-11
2.23472e-11
1.40238e-12
-7.9158e-11
2.59652e-11
-2.63642e-12
-8.68275e-11
2.96738e-11
-8.2385e-12
-9.36523e-11
3.32706e-11
-1.52533e-11
-9.89491e-11
3.65324e-11
-2.22629e-11
-1.01968e-10
3.91841e-11
-1.03105e-10
4.10225e-11
2.09317e-12
-4.52163e-12
1.13585e-12
3.9233e-12
-1.31958e-11
3.33691e-12
5.50124e-12
-2.13145e-11
5.46207e-12
6.82991e-12
-2.92024e-11
7.63108e-12
7.90111e-12
-3.71093e-11
9.94385e-12
8.69182e-12
-4.52202e-11
1.24844e-11
9.16017e-12
-5.36581e-11
1.53214e-11
9.24097e-12
-6.24806e-11
1.85043e-11
8.84103e-12
-7.16725e-11
2.20543e-11
7.83443e-12
-8.11357e-11
2.59527e-11
6.05487e-12
-9.06687e-11
3.01165e-11
3.28698e-12
-9.99275e-11
3.43736e-11
-7.17364e-13
-1.08352e-10
3.84787e-11
-6.1059e-12
-1.15046e-10
4.21568e-11
-1.2251e-11
-1.18805e-10
4.5092e-11
-1.17069e-10
4.7121e-11
2.45202e-12
-4.86272e-12
1.28063e-12
4.60556e-12
-1.41957e-11
3.76056e-12
6.48309e-12
-2.29438e-11
6.14983e-12
8.09979e-12
-3.14632e-11
8.5798e-12
9.4622e-12
-4.00309e-11
1.11594e-11
1.05672e-11
-4.88566e-11
1.39801e-11
1.14019e-11
-5.80856e-11
1.71167e-11
1.1944e-11
-6.77948e-11
2.06227e-11
1.21648e-11
-7.79858e-11
2.452e-11
1.20339e-11
-8.85766e-11
2.8784e-11
1.15257e-11
-9.93893e-11
3.33138e-11
1.0629e-11
-1.10134e-10
3.79024e-11
9.37565e-12
-1.20395e-10
4.22437e-11
7.89963e-12
-1.29628e-10
4.59771e-11
6.49761e-12
-1.37107e-10
4.87315e-11
-1.42844e-10
5.04667e-11
2.78603e-12
1.39889e-12
-5.02719e-12
5.24216e-12
4.1058e-12
-1.46821e-11
7.40252e-12
6.70735e-12
-2.37487e-11
9.29441e-12
9.34218e-12
-3.2603e-11
1.09389e-11
1.21242e-11
-4.15393e-11
1.23522e-11
1.51483e-11
-5.07843e-11
1.35489e-11
1.84919e-11
-6.04987e-11
1.45465e-11
2.22091e-11
-7.07732e-11
1.5375e-11
2.63192e-11
-8.16202e-11
1.60906e-11
3.07886e-11
-9.29655e-11
1.67978e-11