/*--------------------------------*- C++ -*----------------------------------*\
| =========                 |                                                 |
| \\      /  F ield         | OpenFOAM: The Open Source CFD Toolbox           |
|  \\    /   O peration     | Version:  v1912                                 |
|   \\  /    A nd           | Website:  www.openfoam.com                      |
|    \\/     M anipulation  |                                                 |
\*---------------------------------------------------------------------------*/
FoamFile
{
    version     2.0;
    format      ascii;
    class       volScalarField;
    location    "0.23/fluid";
    object      p;
}
// * * * * * * * * * * * * * * * * * * * * * * * * * * * * * * * * * * * * * //

dimensions      [0 2 -2 0 0 0 0];


internalField   nonuniform List<scalar> 
14592
(
0.0755733
0.0701491
0.0682779
0.0666273
0.0654732
0.0644548
0.0635311
0.0626949
0.0618859
0.0612241
0.0604989
0.0601521
0.0594448
0.05987
0.0590088
0.0620375
0.0712724
0.0695913
0.0679709
0.0666048
0.0654936
0.0644987
0.0635822
0.0627558
0.0619589
0.061319
0.0606201
0.0603286
0.0596767
0.0602823
0.0594796
0.0635075
0.0693998
0.0687257
0.0674641
0.0663884
0.0653581
0.0644141
0.0635154
0.0626986
0.0619059
0.0612729
0.0605835
0.0603234
0.0597097
0.0604396
0.0597161
0.0641537
0.0681127
0.0678825
0.0669605
0.0661095
0.0651811
0.0642964
0.063422
0.0626161
0.0618263
0.0611975
0.0605167
0.0602884
0.0597209
0.0605725
0.0599713
0.0646587
0.0673441
0.0672461
0.0665173
0.0658028
0.0649516
0.0641116
0.0632521
0.0624423
0.0616325
0.0609702
0.0602426
0.0599615
0.0593285
0.0601602
0.0595278
0.0644204
0.0667936
0.0667482
0.0661507
0.0655277
0.0647355
0.0639275
0.0630767
0.0622593
0.0614313
0.0607437
0.0599938
0.059705
0.0590921
0.0600413
0.0595734
0.0649088
0.0664364
0.0664088
0.0658755
0.0652962
0.0645306
0.0637293
0.0628647
0.0620118
0.0611255
0.0603451
0.0594647
0.0589772
0.0580837
0.0586605
0.0575924
0.0628622
0.0662193
0.0661993
0.0656929
0.0651292
0.0643684
0.0635588
0.062673
0.0617846
0.0608533
0.0600118
0.0590736
0.0585226
0.0576168
0.0583458
0.0575566
0.0650638
0.0754287
0.0700062
0.0681736
0.0665667
0.0654707
0.0645181
0.0636701
0.0629204
0.0622088
0.0616564
0.0610507
0.0608042
0.0602102
0.0604734
0.0596196
0.0608634
0.0711281
0.0694469
0.0678664
0.0665448
0.0654925
0.0645642
0.0637242
0.0629852
0.0622866
0.0617571
0.0611772
0.0609819
0.0604315
0.0608201
0.0599624
0.0616513
0.0692529
0.0685778
0.0673559
0.0663245
0.0653532
0.0644757
0.0636529
0.0629228
0.0622268
0.0617024
0.061128
0.0609595
0.0604342
0.0609222
0.0601044
0.0620288
0.0679638
0.0677323
0.0668494
0.0660423
0.0651724
0.0643535
0.0635542
0.062834
0.0621396
0.0616188
0.061051
0.0609149
0.0604301
0.0610346
0.0603129
0.0624228
0.067192
0.0670927
0.0664022
0.0657307
0.0649367
0.0641607
0.0633737
0.0626462
0.0619267
0.0613666
0.0607421
0.0605449
0.0599737
0.0605512
0.0597508
0.0620564
0.066638
0.0665915
0.0660315
0.0654505
0.064714
0.0639682
0.0631873
0.0624495
0.0617083
0.0611206
0.0604703
0.0602699
0.0597165
0.0604409
0.0597941
0.06258
0.0662764
0.066248
0.0657513
0.0652127
0.0645006
0.0637585
0.0629596
0.0621803
0.0613718
0.0606797
0.0598797
0.0594616
0.0585822
0.0589231
0.0575489
0.0603268
0.0660547
0.066034
0.0655633
0.0650393
0.0643301
0.0635771
0.0627533
0.0619342
0.0610756
0.0603181
0.0594555
0.0589826
0.0580971
0.0586804
0.0576091
0.0628801
0.0753304
0.0699087
0.0681061
0.0665348
0.0654892
0.064597
0.0638238
0.0631669
0.0625742
0.0621761
0.0617854
0.0618127
0.0616605
0.0623712
0.0624882
0.0639037
0.0710302
0.0693484
0.0677988
0.0665137
0.0655125
0.0646457
0.0638816
0.0632371
0.0626598
0.062288
0.0619277
0.0620116
0.0619112
0.0627454
0.0628971
0.0646577
0.0691525
0.068476
0.0672848
0.0662898
0.0653697
0.0645535
0.0638063
0.0631703
0.0625947
0.0622275
0.0618712
0.0619825
0.0619061
0.0628433
0.0630488
0.0650365
0.0678613
0.0676284
0.0667756
0.0660045
0.0651852
0.0644271
0.0637025
0.0630754
0.0625
0.062136
0.0617849
0.0619309
0.0618941
0.0629561
0.0632578
0.06543
0.0670861
0.0669854
0.0663243
0.0656879
0.0649432
0.0642262
0.0635113
0.0628734
0.0622676
0.0618578
0.0614387
0.0615139
0.0613678
0.0623932
0.0625676
0.0649272
0.0665286
0.0664809
0.0659495
0.0654026
0.064714
0.0640251
0.0633136
0.0626618
0.0620291
0.0615863
0.061132
0.0611988
0.0610516
0.0622264
0.0625036
0.0653451
0.0661627
0.0661331
0.0656643
0.0651585
0.0644922
0.063804
0.0630697
0.0623695
0.0616585
0.061096
0.0604649
0.0602808
0.0597354
0.0604659
0.0598114
0.0625913
0.0659364
0.0659149
0.0654712
0.0649787
0.0643133
0.0636112
0.0628478
0.0621019
0.0613318
0.0606925
0.05998
0.0597228
0.0591271
0.0600912
0.059615
0.0649513
0.0752648
0.0698434
0.0680634
0.0665198
0.0655133
0.0646675
0.0639496
0.0633553
0.0628337
0.0625084
0.0621977
0.0622744
0.0621887
0.0628158
0.0629522
0.0640386
0.070965
0.0692823
0.0677561
0.0664992
0.0655379
0.0647181
0.06401
0.0634289
0.0629233
0.0626247
0.0623441
0.0624742
0.0624343
0.0631621
0.0633142
0.064648
0.0690849
0.068407
0.0672389
0.0662721
0.0653919
0.0646226
0.0639309
0.0633576
0.0628525
0.062557
0.0622767
0.0624295
0.0624033
0.063218
0.0634012
0.0649247
0.0677917
0.0675572
0.0667272
0.0659838
0.065204
0.0644923
0.0638225
0.0632575
0.0627514
0.0624583
0.062181
0.0623679
0.0623754
0.0633102
0.063572
0.0652656
0.0670135
0.0669112
0.0662722
0.0656627
0.0649565
0.0642846
0.0636226
0.0630443
0.0625041
0.0621615
0.0618095
0.0619206
0.0618051
0.0626979
0.0628037
0.06468
0.0664527
0.0664035
0.0658937
0.065373
0.0647215
0.0640763
0.0634158
0.0628215
0.0622516
0.0618743
0.0614837
0.0615886
0.0614664
0.0625188
0.0627094
0.0650737
0.0660829
0.066052
0.0656039
0.0651233
0.0644926
0.0638459
0.0631592
0.0625125
0.0618583
0.0613545
0.0607757
0.0606214
0.060077
0.0606809
0.0598765
0.0621742
0.0658525
0.0658297
0.0654062
0.064938
0.0643066
0.0636439
0.0629254
0.0622297
0.0615124
0.0609288
0.0602642
0.0600406
0.0594427
0.0603109
0.0596736
0.0645746
0.0752231
0.0698018
0.0680391
0.0665172
0.0655424
0.0647355
0.0640661
0.0635303
0.0630814
0.0628413
0.062642
0.0628326
0.0629152
0.0636389
0.0639925
0.0649811
0.0709236
0.0692402
0.0677319
0.0664972
0.0655683
0.064788
0.0641293
0.0636078
0.0631765
0.0629653
0.0627987
0.0630452
0.0631768
0.0639966
0.0643695
0.0655624
0.0690416
0.0683623
0.067212
0.0662674
0.0654195
0.0646898
0.0640473
0.0635333
0.0631017
0.062893
0.0627251
0.0629928
0.0631335
0.0640336
0.0644283
0.0657939
0.0677466
0.0675107
0.0666981
0.0659766
0.0652288
0.0645563
0.063935
0.0634286
0.0629951
0.0627883
0.0626218
0.0629233
0.0630941
0.064113
0.0645769
0.0661069
0.0669657
0.066862
0.0662399
0.0656517
0.0649765
0.0643426
0.0637274
0.0632057
0.0627347
0.0624746
0.0622268
0.0624472
0.0624825
0.0634535
0.0637381
0.0654468
0.066402
0.0663516
0.0658581
0.0653579
0.0647366
0.064128
0.0635124
0.0629723
0.0624682
0.0621702
0.0618779
0.0620889
0.0621064
0.063236
0.0635809
0.0657774
0.0660289
0.0659968
0.0655645
0.0651035
0.0645015
0.0638893
0.0632446
0.0626479
0.0620532
0.0616208
0.0611271
0.0610659
0.0606323
0.061296
0.0605798
0.062691
0.0657949
0.0657712
0.0653628
0.0649134
0.0643092
0.0636791
0.0629997
0.0623504
0.0616871
0.0611686
0.0605787
0.0604399
0.0599325
0.060858
0.0602648
0.0649929
0.0751978
0.0697764
0.0680259
0.0665195
0.0655673
0.0647876
0.064151
0.0636517
0.0632439
0.0630432
0.0628864
0.0630975
0.0632076
0.0638913
0.064243
0.0651458
0.0708985
0.0692144
0.0677188
0.0665
0.0655941
0.0648415
0.0642159
0.0637314
0.0633418
0.0631704
0.0630462
0.0633119
0.0634685
0.0642404
0.0646053
0.0656866
0.069015
0.0683345
0.0671969
0.0662681
0.0654433
0.0647411
0.0641315
0.0636542
0.0632636
0.0630937
0.0629661
0.0632503
0.0634104
0.0642551
0.0646308
0.0658738
0.0677186
0.0674815
0.0666812
0.0659753
0.0652504
0.064605
0.0640163
0.0635462
0.0631529
0.0629844
0.0628567
0.0631742
0.0633606
0.0643214
0.0647572
0.0661608
0.0669356
0.0668307
0.0662205
0.0656474
0.0649944
0.0643869
0.0638031
0.0633163
0.0628835
0.0626598
0.0624473
0.0626814
0.0627256
0.0636356
0.0638785
0.0654588
0.0663696
0.0663181
0.0658362
0.0653506
0.0647507
0.0641676
0.0635822
0.0630758
0.0626082
0.0623454
0.0620861
0.0623113
0.0623336
0.0634046
0.0636965
0.0657654
0.0659938
0.0659607
0.0655395
0.0650925
0.0645109
0.0639229
0.0633065
0.0627412
0.0621798
0.0617795
0.0613134
0.0612634
0.0608245
0.0614273
0.0606304
0.0626034
0.065757
0.0657324
0.0653347
0.0648987
0.0643139
0.0637068
0.063054
0.0624341
0.0618016
0.0613134
0.0607482
0.0606216
0.0601054
0.0609784
0.0602941
0.064894
0.0751838
0.0697623
0.0680198
0.0665238
0.0655867
0.0648257
0.0642122
0.0637398
0.0633646
0.0631991
0.0630855
0.0633339
0.0634954
0.0641949
0.0645894
0.0654509
0.0708847
0.0692
0.0677129
0.0665046
0.0656142
0.0648806
0.0642786
0.0638216
0.0634653
0.06333
0.0632503
0.0635543
0.0637635
0.0645497
0.0649576
0.0659839
0.0690001
0.0683189
0.0671895
0.0662712
0.065462
0.0647788
0.0641927
0.0637427
0.063385
0.063251
0.063167
0.0634887
0.0636988
0.0645546
0.0649683
0.0661503
0.0677027
0.0674648
0.0666726
0.0659771
0.0652675
0.064641
0.0640755
0.0636324
0.0632716
0.0631385
0.0630536
0.0634082
0.0636425
0.064613
0.0650816
0.0664223
0.0669182
0.0668125
0.0662102
0.0656471
0.065009
0.0644198
0.0638584
0.0633977
0.0629958
0.062806
0.0626335
0.0629027
0.0629897
0.0639068
0.0641733
0.0656894
0.0663507
0.0662984
0.0658241
0.0653482
0.0647627
0.0641972
0.0636332
0.0631519
0.0627136
0.0624834
0.0622615
0.0625202
0.0625804
0.0636574
0.0639629
0.0659678
0.065973
0.0659392
0.0655253
0.0650875
0.0645196
0.0639483
0.063352
0.0628099
0.0622752
0.0619045
0.0614708
0.0614502
0.0610394
0.0616428
0.0608377
0.062738
0.0657343
0.0657091
0.0653184
0.0648912
0.0643194
0.0637279
0.0630938
0.0624955
0.0618873
0.0614261
0.0608892
0.060789
0.0602937
0.0611663
0.0604594
0.0649919
0.0751774
0.0697563
0.0680171
0.0665264
0.0655965
0.0648441
0.064241
0.0637801
0.0634175
0.0632631
0.0631611
0.0634131
0.0635795
0.0642653
0.0646563
0.0655006
0.0708788
0.0691936
0.0677104
0.0665073
0.0656242
0.0648994
0.0643079
0.0638624
0.0635186
0.0633942
0.0633257
0.0636323
0.0638449
0.0646147
0.0650171
0.0660214
0.0689933
0.0683117
0.0671864
0.0662731
0.0654712
0.0647968
0.0642211
0.0637824
0.063437
0.0633135
0.0632399
0.0635632
0.0637749
0.0646119
0.065017
0.0661749
0.0676956
0.0674571
0.0666689
0.0659782
0.065276
0.0646581
0.0641029
0.063671
0.0633222
0.0631996
0.0631246
0.0634805
0.0637153
0.064666
0.0651234
0.0664388
0.0669103
0.0668041
0.0662056
0.0656472
0.0650163
0.0644355
0.0638841
0.0634341
0.0630438
0.062864
0.0627006
0.0629708
0.0630569
0.0639538
0.0642058
0.0656957
0.066342
0.0662892
0.0658186
0.0653473
0.0647686
0.0642113
0.0636569
0.063186
0.0627588
0.0625383
0.062325
0.0625849
0.0626431
0.0637
0.063987
0.0659647
0.0659633
0.0659292
0.0655188
0.0650854
0.064524
0.0639604
0.0633732
0.0628409
0.0623165
0.0619549
0.0615286
0.0615091
0.0610945
0.061678
0.0608485
0.062718
0.0657237
0.0656981
0.0653108
0.0648878
0.0643222
0.0637381
0.0631125
0.0625234
0.0619247
0.0614721
0.0609418
0.0608428
0.0603425
0.0611958
0.0604594
0.0649587
0.0854185
0.074917
0.0713301
0.0682964
0.06631
0.0646033
0.0630912
0.0616521
0.0602154
0.0587539
0.0571821
0.0555346
0.0536296
0.0516528
0.0492357
0.0468724
0.0810806
0.0740664
0.070886
0.0681739
0.066267
0.0646
0.0631024
0.061674
0.0602452
0.0587921
0.0572289
0.0555929
0.0536982
0.0517355
0.0493254
0.0469692
0.0791765
0.0730891
0.0702876
0.0678812
0.0660911
0.0644984
0.0630357
0.0616286
0.0602122
0.0587684
0.0572142
0.0555883
0.0537072
0.0517597
0.0493679
0.0470264
0.0778612
0.0722132
0.069746
0.0675698
0.0658983
0.0643783
0.0629523
0.0615657
0.06016
0.0587223
0.0571737
0.0555538
0.0536839
0.0517487
0.0493778
0.0470541
0.0770776
0.0715682
0.0692924
0.0672593
0.0656793
0.0642199
0.0628276
0.0614593
0.060062
0.0586269
0.0570801
0.0554607
0.0535993
0.0516732
0.0493298
0.0470309
0.076528
0.0710767
0.0689304
0.0669934
0.0654826
0.0640688
0.0627019
0.0613456
0.0599525
0.0585164
0.0569695
0.0553492
0.0534989
0.051584
0.0492772
0.0470084
0.0761815
0.0707506
0.0686708
0.0667843
0.0653128
0.0639245
0.0625702
0.0612167
0.0598204
0.0583759
0.0568221
0.0551926
0.053347
0.0514354
0.049168
0.0469314
0.075983
0.0705596
0.0685092
0.0666443
0.0651886
0.0638085
0.0624547
0.0610955
0.0596909
0.0582352
0.0566744
0.0550374
0.0532027
0.0513007
0.0490827
0.0468836
0.0810653
0.0740453
0.0708579
0.0681401
0.0662278
0.0645592
0.0630576
0.0616181
0.0601749
0.0587063
0.057121
0.0554647
0.0535359
0.0515533
0.0490934
0.0467431
0.0767386
0.0734338
0.0704878
0.0680576
0.066204
0.0645677
0.063076
0.0616414
0.0602015
0.058737
0.0571561
0.0555067
0.053584
0.0516109
0.0491559
0.046813
0.0748405
0.0725173
0.0699309
0.0677976
0.0660453
0.0644749
0.0630132
0.0615965
0.060167
0.0587102
0.0571372
0.0554967
0.0535869
0.051628
0.0491908
0.0468624
0.0735314
0.0716465
0.0694025
0.0674988
0.0658606
0.0643602
0.0629335
0.0615363
0.060117
0.0586663
0.0570992
0.0554652
0.0535673
0.0516214
0.0492058
0.0468951
0.0727534
0.0709999
0.0689538
0.0671934
0.0656452
0.064204
0.0628103
0.0614315
0.060021
0.0585732
0.0570086
0.0553757
0.0534873
0.0515509
0.0491641
0.0468777
0.0722053
0.0705045
0.068593
0.06693
0.0654512
0.0640551
0.0626866
0.0613208
0.0599153
0.0584676
0.0569045
0.0552725
0.0533979
0.0514747
0.049128
0.0468716
0.0718603
0.0701773
0.0683346
0.0667226
0.0652834
0.063912
0.0625562
0.0611942
0.0597862
0.0583308
0.0567618
0.0551211
0.0532529
0.0513332
0.0490293
0.0468039
0.0716623
0.069986
0.068174
0.0665842
0.0651612
0.0637975
0.0624425
0.0610762
0.059661
0.0581958
0.056622
0.054976
0.0531225
0.0512152
0.0489667
0.046779
0.0791609
0.0730672
0.0702637
0.067859
0.0660768
0.0644991
0.0630516
0.0616577
0.0602515
0.0588238
0.0572653
0.0556512
0.0537084
0.0517494
0.049137
0.0467562
0.0748433
0.0725199
0.0699394
0.0678138
0.0660758
0.0645217
0.0630793
0.0616888
0.0602858
0.0588631
0.0573102
0.055705
0.0537699
0.0518236
0.0492153
0.0468446
0.072958
0.0716434
0.0694184
0.067585
0.065936
0.0644398
0.0630222
0.0616468
0.0602527
0.0588371
0.0572921
0.0556963
0.0537751
0.0518443
0.0492537
0.0468971
0.0716592
0.0707876
0.068906
0.0673007
0.0657608
0.0643309
0.0629456
0.0615878
0.060203
0.0587929
0.057254
0.0556654
0.0537581
0.0518425
0.0492767
0.0469397
0.0708877
0.0701478
0.0684649
0.0670021
0.0655493
0.0641763
0.0628218
0.0614804
0.0601024
0.0586931
0.057155
0.055565
0.0536666
0.0517589
0.0492264
0.0469159
0.070342
0.0696539
0.0681067
0.066741
0.0653563
0.0640271
0.0626967
0.0613665
0.0599921
0.0585813
0.0570441
0.0554543
0.0535724
0.05168
0.0491988
0.0469233
0.0699976
0.0693267
0.0678486
0.0665337
0.0651872
0.0638818
0.0625624
0.0612334
0.0598537
0.0584313
0.0568842
0.0552793
0.0534009
0.0515051
0.0490771
0.0468337
0.0697989
0.0691345
0.0676873
0.0663942
0.065063
0.0637644
0.0624447
0.0611093
0.0597206
0.0582856
0.0567324
0.0551195
0.0532591
0.0513763
0.0490226
0.0468235
0.0778361
0.0721805
0.0697215
0.0675602
0.0659168
0.0644364
0.0630552
0.0617178
0.060358
0.0589824
0.0574558
0.0558941
0.0539228
0.0519912
0.0491352
0.046717
0.0735253
0.0716383
0.0694109
0.0675285
0.0659252
0.0644656
0.0630877
0.0617532
0.0603965
0.0590264
0.0575063
0.0559559
0.0539947
0.0520829
0.0492336
0.0468351
0.0716495
0.0707757
0.0689048
0.0673131
0.0657939
0.0643885
0.0630328
0.0617115
0.0603625
0.0589989
0.0574865
0.0559464
0.0540004
0.0521061
0.049273
0.0468871
0.0703577
0.0699286
0.0684004
0.0670362
0.0656236
0.0642825
0.0629571
0.0616522
0.0603115
0.058953
0.0574471
0.0559152
0.0539857
0.0521102
0.0493057
0.0469424
0.0695912
0.0692941
0.0679637
0.0667412
0.0654138
0.0641276
0.062831
0.0615402
0.0602043
0.0588439
0.0573362
0.0557995
0.0538772
0.0520069
0.0492411
0.0469071
0.0690475
0.0688023
0.0676072
0.0664813
0.0652209
0.0639773
0.0627031
0.0614218
0.0600879
0.0587244
0.0572174
0.0556806
0.0537794
0.0519285
0.0492313
0.0469411
0.0687036
0.0684755
0.0673491
0.0662732
0.0650499
0.0638285
0.0625632
0.0612802
0.0599376
0.0585571
0.0570348
0.055474
0.0535714
0.0517062
0.0490771
0.0468194
0.0685039
0.0682824
0.0671866
0.0661322
0.0649232
0.0637075
0.0624401
0.0611485
0.0597947
0.0583989
0.0568696
0.0552989
0.0534209
0.0515728
0.0490493
0.0468501
0.0770432
0.0715267
0.0692782
0.0672844
0.0657674
0.0643909
0.0630969
0.0618448
0.0605679
0.0592927
0.0578545
0.0564239
0.0544918
0.0526852
0.0495406
0.0470946
0.0727385
0.0709822
0.0689724
0.0672585
0.0657806
0.0644244
0.0631338
0.0618855
0.060613
0.0593462
0.0579176
0.0565045
0.0545889
0.0528156
0.049684
0.0472683
0.0708687
0.0701253
0.0684731
0.0670493
0.0656533
0.0643494
0.0630792
0.0618432
0.0605778
0.0593174
0.0578972
0.0564964
0.0545985
0.0528472
0.0497288
0.0473215
0.0695821
0.0692836
0.0679732
0.0667763
0.0654852
0.0642439
0.0630026
0.0617816
0.0605235
0.0592678
0.0578546
0.0564642
0.0545868
0.0528614
0.0497771
0.0473995
0.0688186
0.0686524
0.0675389
0.0664826
0.0652748
0.0640863
0.0628712
0.0616613
0.0604044
0.0591423
0.0577224
0.0563211
0.0544463
0.0527219
0.049683
0.0473445
0.0682759
0.0681618
0.0671827
0.0662221
0.0650799
0.063932
0.0627368
0.0615335
0.0602757
0.0590068
0.0575852
0.0561816
0.0543317
0.0526332
0.0496874
0.0474159
0.0679313
0.0678343
0.0669231
0.0660114
0.0649046
0.0637765
0.0625867
0.0613766
0.0601035
0.0588078
0.0573589
0.0559131
0.0540466
0.0523107
0.0494478
0.0472135
0.0677294
0.0676392
0.066758
0.0658668
0.064773
0.0636482
0.0624534
0.0612306
0.0599414
0.0586236
0.0571622
0.0556985
0.0538588
0.0521417
0.0494263
0.0472882
0.0764645
0.0710057
0.0689113
0.0670439
0.0656395
0.0643615
0.0631559
0.0619927
0.060802
0.0596302
0.0582777
0.056972
0.0550511
0.053335
0.0497266
0.0471472
0.072161
0.0704555
0.0686056
0.0670195
0.0656549
0.0643976
0.063196
0.0620375
0.0608524
0.0596912
0.0583511
0.0570696
0.0551727
0.0535075
0.0499078
0.0473303
0.0702926
0.0695983
0.0681069
0.0668111
0.0655277
0.0643219
0.0631397
0.0619926
0.0608139
0.0596588
0.0583273
0.0570601
0.0551822
0.0535418
0.0499371
0.0473383
0.0690079
0.0687582
0.0676081
0.0665387
0.0653592
0.0642151
0.0630605
0.0619273
0.0607549
0.0596042
0.0582802
0.0570262
0.055173
0.0535676
0.0500004
0.0474381
0.0682451
0.0681278
0.0671735
0.0662439
0.0651463
0.0640529
0.062922
0.0617968
0.0606216
0.0594595
0.0581224
0.05685
0.0549921
0.0533827
0.04987
0.0473693
0.0677021
0.0676369
0.0668163
0.0659816
0.064948
0.0638933
0.0627801
0.0616586
0.0604796
0.0593076
0.0579671
0.0566924
0.0548663
0.0532982
0.0499195
0.0475367
0.0673556
0.0673078
0.0665542
0.0657673
0.0647674
0.0637297
0.0626181
0.0614845
0.0602828
0.059073
0.0576913
0.0563532
0.0544899
0.0528562
0.0495849
0.0472644
0.067151
0.0671101
0.0663858
0.0656185
0.0646299
0.0635933
0.0624735
0.0613231
0.060101
0.0588633
0.0574655
0.0561061
0.0542798
0.0526865
0.0496402
0.0475267
0.0760682
0.0706309
0.0686365
0.0668599
0.0655524
0.0643697
0.0632624
0.0622101
0.0611446
0.0601393
0.0589748
0.0579538
0.0562846
0.055007
0.051235
0.0487186
0.0717663
0.0700777
0.0683306
0.0668364
0.0655698
0.0644087
0.0633064
0.0622606
0.0612031
0.0602126
0.059066
0.0580806
0.0564479
0.0552479
0.0514733
0.0488174
0.0698977
0.0692187
0.0678305
0.0666266
0.0654408
0.0643309
0.0632475
0.0622125
0.0611608
0.060177
0.0590398
0.0580731
0.0564636
0.0552993
0.0515018
0.0487704
0.0686134
0.0683787
0.0673312
0.0663531
0.0652704
0.0642212
0.0631642
0.0621421
0.0610958
0.0601161
0.0589871
0.0580386
0.0564603
0.0553493
0.0515992
0.0489207
0.0678497
0.0677474
0.0668948
0.0660554
0.0650529
0.0640524
0.0630162
0.0619981
0.0609436
0.0599454
0.0587936
0.057816
0.0562195
0.0551003
0.0514142
0.0488585
0.067305
0.0672549
0.0665353
0.0657896
0.0648494
0.0638854
0.0628637
0.0618456
0.0607824
0.0597688
0.058608
0.0576251
0.0560619
0.0550051
0.0515038
0.0491875
0.0669556
0.066923
0.0662694
0.0655703
0.0646614
0.0637109
0.0626859
0.0616479
0.0605509
0.0594821
0.0582546
0.0571696
0.0555183
0.0543336
0.0509262
0.0487632
0.0667473
0.0667218
0.0660967
0.065416
0.0645162
0.0635636
0.0625261
0.061465
0.0603394
0.0592311
0.0579745
0.0568524
0.0552293
0.054099
0.0509947
0.0493236
0.0757774
0.0703491
0.0684262
0.0667199
0.0654944
0.0643956
0.0633774
0.0624242
0.0614663
0.0605933
0.0595663
0.058725
0.057183
0.0560215
0.0517447
0.0478948
0.0714759
0.069793
0.0681195
0.0666968
0.065513
0.0644368
0.0634244
0.062479
0.0615306
0.0606751
0.0596691
0.0588711
0.0573708
0.056291
0.0518897
0.0471603
0.0696055
0.0689309
0.0676163
0.0664839
0.0653811
0.0643558
0.0633616
0.0624263
0.0614827
0.0606334
0.0596359
0.0588583
0.0573776
0.0563258
0.0518259
0.0466958
0.0683201
0.0680896
0.0671151
0.0662079
0.0652077
0.0642424
0.0632736
0.0623502
0.0614107
0.0605655
0.0595761
0.058821
0.0573748
0.0563894
0.0519377
0.0468289
0.0675543
0.067456
0.0666757
0.0659062
0.0649846
0.0640661
0.0631153
0.0621922
0.0612393
0.0603689
0.0593465
0.0585518
0.0570711
0.056075
0.0517001
0.0468232
0.067007
0.0669612
0.066313
0.0656361
0.0647753
0.0638911
0.0629523
0.062026
0.0610607
0.0601715
0.059137
0.0583401
0.0569
0.0560081
0.0519029
0.0474736
0.066654
0.0666258
0.0660428
0.0654111
0.0645793
0.0637056
0.0627587
0.0618057
0.0607965
0.0598371
0.0587126
0.0577809
0.0562014
0.0551325
0.0511176
0.047031
0.0664415
0.0664206
0.0658654
0.0652509
0.0644261
0.0635475
0.0625844
0.0616033
0.0605597
0.0595544
0.0583951
0.0574278
0.0558913
0.0549676
0.0514362
0.0484472
0.0661367
0.0661186
0.0656036
0.0650271
0.0642446
0.0634038
0.0624741
0.0615211
0.0605005
0.0595134
0.0583671
0.0574083
0.0558727
0.0549443
0.0513909
0.0483705
0.0661967
0.0661759
0.0656187
0.0650034
0.0641783
0.0632937
0.062317
0.0613077
0.0602249
0.059151
0.0579195
0.0568147
0.0551974
0.054065
0.0509388
0.0492433
0.0664023
0.0663672
0.0657308
0.0650487
0.0641586
0.0632133
0.0621762
0.0610966
0.0599334
0.058743
0.0573802
0.0560449
0.0542285
0.0526352
0.0495691
0.0474332
0.0668257
0.0667416
0.0659625
0.0651725
0.0641951
0.0631794
0.0620839
0.060947
0.0597295
0.0584694
0.0570513
0.055618
0.0537931
0.0520796
0.0493494
0.0471924
0.0674796
0.0672647
0.0662803
0.0653386
0.0642605
0.0631669
0.0620117
0.0608174
0.0595453
0.0582154
0.056736
0.0552007
0.0533418
0.0515003
0.0489667
0.0467518
0.0686935
0.0680372
0.066709
0.0655364
0.0643456
0.0631783
0.0619788
0.0607481
0.0594474
0.0580837
0.0565848
0.0550108
0.0531724
0.0512988
0.0489387
0.0467264
0.070497
0.0688309
0.0671438
0.0656805
0.0644035
0.0631783
0.0619502
0.060693
0.0593704
0.0579802
0.0564639
0.0548591
0.0530301
0.0511337
0.0488817
0.0466827
0.0748123
0.069406
0.0674805
0.0657417
0.0644318
0.0631881
0.0619618
0.0607141
0.0594024
0.0580218
0.0565183
0.0549224
0.053112
0.0512209
0.0489995
0.0467891
0.0659671
0.0659485
0.0654684
0.06493
0.0641968
0.063409
0.0625362
0.0616449
0.0606859
0.0597671
0.0586722
0.0577614
0.0561872
0.0551138
0.0510591
0.0469187
0.066022
0.066001
0.0654779
0.0648996
0.0641218
0.0632875
0.0623639
0.0614112
0.0603839
0.0593713
0.0581851
0.0571295
0.0554879
0.0543007
0.0508545
0.0486497
0.0662228
0.0661877
0.0655846
0.0649382
0.0640934
0.0631952
0.0622067
0.0611772
0.0600611
0.0589199
0.0575887
0.0562859
0.054436
0.0528016
0.0494963
0.04714
0.0666419
0.0665581
0.0658119
0.0650567
0.0641229
0.063152
0.0621021
0.061011
0.059836
0.0586191
0.057229
0.0558246
0.0539769
0.0522446
0.0493563
0.0470923
0.0672919
0.0670774
0.0661255
0.065218
0.0641821
0.063131
0.0620184
0.0608656
0.059631
0.0583373
0.0568803
0.0553656
0.0534868
0.051629
0.0489823
0.0467004
0.0685033
0.0678478
0.0665519
0.0654129
0.0642636
0.0631377
0.061979
0.0607878
0.0595226
0.0581921
0.0567148
0.0551594
0.0533084
0.0514231
0.0489836
0.0467202
0.0703049
0.0686403
0.0669853
0.0655552
0.0643188
0.0631339
0.0619453
0.0607257
0.0594366
0.058077
0.0565808
0.0549921
0.0531542
0.0512474
0.0489364
0.0466943
0.0746207
0.0692174
0.0673237
0.0656182
0.0643483
0.063145
0.0619591
0.0607499
0.0594729
0.0581241
0.056643
0.0550654
0.0532502
0.0513515
0.0490775
0.0468243
0.065844
0.0658246
0.0653706
0.0648625
0.0641706
0.0634301
0.0626117
0.0617844
0.0608991
0.0600748
0.0590879
0.058326
0.0568948
0.0559965
0.051821
0.0472963
0.0658942
0.0658727
0.0653748
0.0648256
0.0640871
0.0632968
0.0624228
0.0615271
0.0605632
0.0596297
0.0585279
0.0575876
0.0560375
0.0549769
0.0514095
0.0490235
0.0660905
0.066055
0.0654764
0.0648577
0.0640501
0.0631926
0.0622486
0.0612682
0.0602038
0.0591236
0.0578504
0.0566233
0.0548134
0.0532429
0.0498087
0.0473705
0.0665056
0.0664217
0.0656996
0.0649712
0.0640728
0.06314
0.0621309
0.0610835
0.0599528
0.0587856
0.0574393
0.0560891
0.0542619
0.0525666
0.0495801
0.0472643
0.0671522
0.0669377
0.0660092
0.065128
0.0641259
0.0631106
0.0620355
0.0609214
0.0597243
0.05847
0.0570447
0.0555659
0.0536931
0.0518502
0.0491249
0.0468001
0.0683613
0.0677061
0.0664335
0.0653203
0.0642041
0.0631126
0.0619894
0.060834
0.0596029
0.0583066
0.0568556
0.0553272
0.0534782
0.0515979
0.0490984
0.0467948
0.0701612
0.0684974
0.0668655
0.0654607
0.0642567
0.0631051
0.0619504
0.0607645
0.0595069
0.0581773
0.0567036
0.0551355
0.0532973
0.0513893
0.049031
0.0467516
0.0744774
0.0690761
0.0672055
0.0655253
0.0642872
0.0631174
0.0619663
0.0607912
0.0595464
0.0582284
0.0567708
0.0552145
0.0534007
0.0515012
0.049184
0.0468924
0.0657556
0.0657353
0.0653007
0.0648157
0.0641561
0.0634522
0.0626749
0.0618927
0.0610529
0.0602756
0.059323
0.058583
0.0571178
0.0561158
0.0516244
0.046582
0.0658017
0.0657793
0.0653002
0.0647733
0.0640653
0.0633095
0.0624737
0.0616193
0.0606963
0.0598052
0.0587332
0.0578161
0.056238
0.0551156
0.0513236
0.0486561
0.0659939
0.0659579
0.0653974
0.0647999
0.0640212
0.0631958
0.0622866
0.0613429
0.0603137
0.0592688
0.058018
0.0568083
0.0549702
0.0533573
0.0497576
0.0471737
0.0664056
0.0663213
0.065617
0.0649091
0.0640382
0.0631357
0.0621589
0.0611451
0.0600461
0.0589103
0.0575839
0.0562502
0.0544025
0.0526814
0.0495801
0.0471776
0.0670492
0.0668344
0.0659233
0.065062
0.0640864
0.0630996
0.0620544
0.0609708
0.0598019
0.0585747
0.0571661
0.0557005
0.0538113
0.0519498
0.0491414
0.0467584
0.0682563
0.0676011
0.0663457
0.0652521
0.0641619
0.0630978
0.0620033
0.0608768
0.0596724
0.0584011
0.0569664
0.0554507
0.0535909
0.0516971
0.0491366
0.0467873
0.0700549
0.0683914
0.0667765
0.065391
0.0642123
0.0630874
0.0619603
0.0608018
0.0595695
0.0582633
0.0568052
0.0552488
0.0534031
0.0514842
0.0490795
0.0467617
0.0743713
0.0689715
0.0671178
0.065457
0.0642438
0.0631008
0.0619782
0.0608312
0.0596127
0.0583192
0.056879
0.0553361
0.0535179
0.0516097
0.0492503
0.0469206
0.0656943
0.0656731
0.065253
0.0647859
0.0641518
0.0634782
0.0627363
0.0619951
0.0612014
0.0604782
0.059582
0.0589047
0.0574822
0.0564917
0.0518506
0.0464532
0.0657368
0.0657137
0.0652485
0.0647386
0.0640548
0.063327
0.0625235
0.0617059
0.0608229
0.0599779
0.0589505
0.0580836
0.0565307
0.0554196
0.0515077
0.0486553
0.0659256
0.0658891
0.0653419
0.0647605
0.0640045
0.063205
0.0623248
0.0614132
0.0604174
0.0594096
0.0581914
0.0570173
0.0551886
0.0535804
0.0498845
0.0472022
0.0663345
0.0662498
0.0655585
0.0648661
0.0640166
0.0631382
0.0621881
0.0612029
0.0601329
0.059028
0.0577271
0.05642
0.0545753
0.0528557
0.0496828
0.0472188
0.0669755
0.0667604
0.065862
0.0650158
0.0640605
0.0630962
0.0620754
0.0610174
0.0598736
0.0586718
0.0572827
0.0558362
0.0539458
0.0520821
0.0492184
0.0467917
0.068181
0.0675258
0.0662828
0.0652039
0.0641336
0.0630911
0.0620197
0.0609171
0.0597356
0.0584869
0.057069
0.0555685
0.0537067
0.0518087
0.0492052
0.0468196
0.0699783
0.0683151
0.0667127
0.0653416
0.0641822
0.0630781
0.0619732
0.0608372
0.0596263
0.0583404
0.0568972
0.0553532
0.0535054
0.0515814
0.0491423
0.046793
0.0742951
0.0688962
0.067055
0.0654087
0.0642145
0.0630925
0.0619927
0.0608686
0.0596721
0.0583996
0.0569752
0.0554455
0.0536265
0.0517137
0.0493222
0.0469609
0.0656535
0.0656315
0.0652217
0.0647673
0.0641515
0.0634992
0.0627817
0.0620672
0.0613004
0.0606035
0.0597261
0.0590571
0.0576127
0.056562
0.0517569
0.0460922
0.0656932
0.0656695
0.0652141
0.0647163
0.0640498
0.063342
0.0625611
0.0617678
0.060909
0.0600879
0.0590766
0.0582186
0.0566464
0.055494
0.0514597
0.0484589
0.0658794
0.0658423
0.0653046
0.0647347
0.0639949
0.0632139
0.0623543
0.0614646
0.0604899
0.0595026
0.0582972
0.0571309
0.0552849
0.053648
0.0498615
0.0470942
0.066286
0.066201
0.0655189
0.0648375
0.0640034
0.0631424
0.0622113
0.0612462
0.0601952
0.0591087
0.0578192
0.0565198
0.0546619
0.052923
0.0496851
0.0471664
0.0669251
0.0667098
0.0658202
0.0649847
0.0640441
0.0630961
0.062093
0.0610532
0.0599266
0.058741
0.0573619
0.0559222
0.0540218
0.0521443
0.0492326
0.0467674
0.0681294
0.067474
0.0662399
0.0651715
0.0641154
0.0630887
0.0620342
0.0609488
0.0597836
0.05855
0.0571419
0.0556483
0.0537795
0.0518712
0.0492312
0.0468148
0.0699258
0.0682626
0.0666689
0.0653081
0.0641627
0.0630739
0.0619851
0.0608657
0.0596703
0.0583986
0.056965
0.0554277
0.0535751
0.0516428
0.0491752
0.0467999
0.0742427
0.0688446
0.067012
0.0653761
0.0641956
0.063089
0.062006
0.0608989
0.0597185
0.0584609
0.0570472
0.0555253
0.0537032
0.0517834
0.0493655
0.0469783
0.0656287
0.0656063
0.0652031
0.0647571
0.0641534
0.0635156
0.0628152
0.0621201
0.0613743
0.0607004
0.0598449
0.0591959
0.0577583
0.0566932
0.0518054
0.0459679
0.0656665
0.0656424
0.0651933
0.0647035
0.0640485
0.0633542
0.0625888
0.061813
0.0609727
0.0601714
0.0591777
0.0583359
0.0567661
0.055604
0.0515055
0.0484119
0.065851
0.0658136
0.0652818
0.0647194
0.0639904
0.0632219
0.0623763
0.0615021
0.0605431
0.0595723
0.0583803
0.0572263
0.0553792
0.0537351
0.0498997
0.0470788
0.0662561
0.0661708
0.0654946
0.0648203
0.0639963
0.063147
0.0622289
0.0612776
0.0602405
0.059168
0.0578893
0.0565995
0.0547394
0.0529948
0.0497204
0.047167
0.0668938
0.0666783
0.0657944
0.0649658
0.0640348
0.0630977
0.0621065
0.0610792
0.0599648
0.0587911
0.0574207
0.0559885
0.0540853
0.0522029
0.0492632
0.0467731
0.0680973
0.0674418
0.0662132
0.0651516
0.064105
0.0630886
0.0620454
0.0609718
0.0598179
0.0585951
0.0571948
0.0557073
0.0538363
0.0519232
0.0492612
0.0468244
0.069893
0.0682299
0.0666417
0.0652876
0.0641513
0.0630726
0.0619946
0.0608863
0.0597015
0.0584399
0.0570134
0.0554815
0.053627
0.0516904
0.0492049
0.0468121
0.0742101
0.0688124
0.0669854
0.0653562
0.0641846
0.0630882
0.0620164
0.0609207
0.0597513
0.058504
0.057098
0.0555819
0.0537586
0.051835
0.0494003
0.0469954