/*--------------------------------*- C++ -*----------------------------------*\
| =========                 |                                                 |
| \\      /  F ield         | OpenFOAM: The Open Source CFD Toolbox           |
|  \\    /   O peration     | Version:  v1912                                 |
|   \\  /    A nd           | Website:  www.openfoam.com                      |
|    \\/     M anipulation  |                                                 |
\*---------------------------------------------------------------------------*/
FoamFile
{
    version     2.0;
    format      ascii;
    class       pointVectorField;
    location    "0.23/fluid";
    object      pointMotionU;
}
// * * * * * * * * * * * * * * * * * * * * * * * * * * * * * * * * * * * * * //

dimensions      [0 1 -1 0 0 0 0];


internalField   nonuniform List<vector> 
16859
(
(0 0 0)
(0 0 0)
(0 0 0)
(0 0 0)
(0 0 0)
(0 0 0)
(0 0 0)
(0 0 0)
(0 0 0)
(0 0 0)
(0 0 0)
(0 0 0)
(0 0 0)
(0 0 0)
(0 0 0)
(0 0 0)
(3.4736e-08 6.56435e-08 3.28433e-08)
(0 0 0)
(7.78505e-10 -2.40814e-09 1.83717e-09)
(1.47624e-09 -4.61088e-09 3.57413e-09)
(2.11175e-09 -6.69991e-09 5.33194e-09)
(2.70119e-09 -8.74439e-09 7.21654e-09)
(3.25991e-09 -1.07846e-08 9.32037e-09)
(3.80359e-09 -1.2829e-08 1.17253e-08)
(4.35015e-09 -1.48536e-08 1.45084e-08)
(4.92442e-09 -1.67919e-08 1.77443e-08)
(5.57014e-09 -1.85072e-08 2.15034e-08)
(6.3784e-09 -1.97437e-08 2.58513e-08)
(7.54749e-09 -2.00309e-08 3.08575e-08)
(9.55888e-09 -1.84627e-08 3.66555e-08)
(1.34857e-08 -1.32599e-08 4.36273e-08)
(2.14777e-08 -1.01761e-09 5.27816e-08)
(3.5361e-08 2.10915e-08 6.47351e-08)
(6.86417e-08 7.0756e-08 8.05299e-08)
(0 0 0)
(1.54746e-09 -4.74856e-09 3.63225e-09)
(2.93457e-09 -9.09634e-09 7.06661e-09)
(4.19904e-09 -1.32234e-08 1.05399e-08)
(5.37415e-09 -1.72637e-08 1.42571e-08)
(6.49086e-09 -2.13016e-08 1.83996e-08)
(7.58072e-09 -2.53672e-08 2.31319e-08)
(8.67886e-09 -2.94315e-08 2.86087e-08)
(9.83155e-09 -3.33872e-08 3.49756e-08)
(1.11137e-08 -3.70097e-08 4.23642e-08)
(1.26609e-08 -3.98929e-08 5.08776e-08)
(1.4758e-08 -4.13359e-08 6.05809e-08)
(1.80363e-08 -4.0165e-08 7.1509e-08)
(2.37257e-08 -3.4612e-08 8.37356e-08)
(3.38194e-08 -2.26441e-08 9.7389e-08)
(4.87313e-08 -5.53538e-09 1.1106e-07)
(8.62087e-08 1.76046e-08 1.34189e-07)
(0 0 0)
(2.29796e-09 -6.9484e-09 5.34312e-09)
(4.35879e-09 -1.33167e-08 1.03937e-08)
(6.24037e-09 -1.93699e-08 1.54959e-08)
(7.9936e-09 -2.53068e-08 2.09458e-08)
(9.66662e-09 -3.12626e-08 2.70086e-08)
(1.13081e-08 -3.73045e-08 3.39287e-08)
(1.29716e-08 -4.34239e-08 4.19364e-08)
(1.47237e-08 -4.95152e-08 5.12479e-08)
(1.66577e-08 -5.5338e-08 6.20539e-08)
(1.89155e-08 -6.04601e-08 7.44908e-08)
(2.17659e-08 -6.41628e-08 8.86007e-08)
(2.57338e-08 -6.53513e-08 1.04273e-07)
(3.17328e-08 -6.26493e-08 1.21189e-07)
(4.11254e-08 -5.50356e-08 1.38709e-07)
(5.39216e-08 -4.43963e-08 1.54518e-07)
(8.50585e-08 -2.91396e-08 1.76856e-07)
(0 0 0)
(3.02003e-09 -8.93131e-09 6.92923e-09)
(5.73021e-09 -1.71254e-08 1.34749e-08)
(8.20877e-09 -2.49285e-08 2.00771e-08)
(1.05252e-08 -3.26051e-08 2.71136e-08)
(1.27462e-08 -4.03463e-08 3.49247e-08)
(1.49403e-08 -4.827e-08 4.38273e-08)
(1.7183e-08 -5.64134e-08 5.4124e-08)
(1.95652e-08 -6.47153e-08 6.61008e-08)
(2.22001e-08 -7.29877e-08 8.00136e-08)
(2.52357e-08 -8.08706e-08 9.60537e-08)
(2.88932e-08 -8.7752e-08 1.14281e-07)
(3.35137e-08 -9.2686e-08 1.3452e-07)
(3.95529e-08 -9.44098e-08 1.56166e-07)
(4.75728e-08 -9.16772e-08 1.77856e-07)
(5.72611e-08 -8.49999e-08 1.9606e-07)
(8.24815e-08 -7.07497e-08 2.17942e-07)
(0 0 0)
(3.70267e-09 -1.06233e-08 8.35601e-09)
(7.02744e-09 -2.03802e-08 1.62415e-08)
(1.00724e-08 -2.96929e-08 2.41787e-08)
(1.29258e-08 -3.8889e-08 3.26146e-08)
(1.56739e-08 -4.8218e-08 4.19524e-08)
(1.84069e-08 -5.7857e-08 5.25715e-08)
(2.12272e-08 -6.79068e-08 6.48373e-08)
(2.4259e-08 -7.83829e-08 7.91034e-08)
(2.76531e-08 -8.92013e-08 9.56987e-08)
(3.15982e-08 -1.00151e-07 1.14899e-07)
(3.63375e-08 -1.10828e-07 1.36871e-07)
(4.21592e-08 -1.20523e-07 1.61554e-07)
(4.92729e-08 -1.2802e-07 1.88371e-07)
(5.76298e-08 -1.31349e-07 2.15626e-07)
(6.61726e-08 -1.28612e-07 2.38371e-07)
(8.74431e-08 -1.12635e-07 2.62135e-07)
(0 0 0)
(4.33389e-09 -1.19556e-08 9.59567e-09)
(8.22694e-09 -2.29494e-08 1.86391e-08)
(1.17954e-08 -3.34699e-08 2.77182e-08)
(1.51449e-08 -4.39017e-08 3.73339e-08)
(1.83799e-08 -5.45492e-08 4.79369e-08)
(2.1613e-08 -6.56488e-08 5.99533e-08)
(2.49752e-08 -7.73723e-08 7.37982e-08)
(2.863e-08 -8.98258e-08 8.98809e-08)
(3.27848e-08 -1.03056e-07 1.08598e-07)
(3.77131e-08 -1.1705e-07 1.30326e-07)
(4.37963e-08 -1.31713e-07 1.55409e-07)
(5.15371e-08 -1.46795e-07 1.84103e-07)
(6.14479e-08 -1.61655e-07 2.16321e-07)
(7.37447e-08 -1.74638e-07 2.5093e-07)
(8.65911e-08 -1.81994e-07 2.82128e-07)
(1.09485e-07 -1.66057e-07 3.13605e-07)
(0 0 0)
(4.90172e-09 -1.28687e-08 1.06293e-08)
(9.30502e-09 -2.47187e-08 2.06311e-08)
(1.33411e-08 -3.60901e-08 3.06404e-08)
(1.71297e-08 -4.7413e-08 4.11941e-08)
(2.07902e-08 -5.90381e-08 5.27729e-08)
(2.44528e-08 -7.12537e-08 6.58305e-08)
(2.82726e-08 -8.42936e-08 8.08102e-08)
(3.24472e-08 -9.83472e-08 9.81526e-08)
(3.72359e-08 -1.13581e-07 1.18293e-07)
(4.30091e-08 -1.30168e-07 1.41682e-07)
(5.03233e-08 -1.48328e-07 1.68819e-07)
(6.00324e-08 -1.68389e-07 2.00302e-07)
(7.33922e-08 -1.90803e-07 2.36793e-07)
(9.20639e-08 -2.15947e-07 2.78644e-07)
(1.15066e-07 -2.411e-07 3.21057e-07)
(1.61037e-07 -2.71641e-07 3.78444e-07)
(0 0 0)
(5.39555e-09 -1.33158e-08 1.14476e-08)
(1.02411e-08 -2.55975e-08 2.22007e-08)
(1.46783e-08 -3.74185e-08 3.29215e-08)
(1.88355e-08 -4.92392e-08 4.41648e-08)
(2.28409e-08 -6.14415e-08 5.64216e-08)
(2.68341e-08 -7.43497e-08 7.01507e-08)
(3.09815e-08 -8.82416e-08 8.57975e-08)
(3.54943e-08 -1.03362e-07 1.03798e-07)
(4.06545e-08 -1.19946e-07 1.2458e-07)
(4.68654e-08 -1.38265e-07 1.48582e-07)
(5.47359e-08 -1.58683e-07 1.76312e-07)
(6.52041e-08 -1.81759e-07 2.08422e-07)
(7.9663e-08 -2.08355e-07 2.45737e-07)
(9.9964e-08 -2.39662e-07 2.89124e-07)
(1.24489e-07 -2.72795e-07 3.33724e-07)
(1.97855e-07 -3.44224e-07 4.20557e-07)
(0 0 0)
(0 0 0)
(0 0 0)
(0 0 0)
(0 0 0)
(0 0 0)
(0 0 0)
(0 0 0)
(0 0 0)
(0 0 0)
(0 0 0)
(0 0 0)
(0 0 0)
(0 0 0)
(0 0 0)
(0 0 0)
(7.46627e-09 3.02552e-08 1.67148e-08)
(0 0 0)
(7.50009e-10 -2.46058e-09 1.78309e-09)
(1.41824e-09 -4.71106e-09 3.46632e-09)
(2.01886e-09 -6.84605e-09 5.16552e-09)
(2.56289e-09 -8.93834e-09 6.9823e-09)
(3.05918e-09 -1.10319e-08 9.00487e-09)
(3.51436e-09 -1.31383e-08 1.13101e-08)
(3.93261e-09 -1.52373e-08 1.39685e-08)
(4.31668e-09 -1.72697e-08 1.70458e-08)
(4.67328e-09 -1.91138e-08 2.05986e-08)
(5.03048e-09 -2.05443e-08 2.46664e-08)
(5.4867e-09 -2.11504e-08 2.92707e-08)
(6.32359e-09 -2.01634e-08 3.44345e-08)
(8.19375e-09 -1.61077e-08 4.02666e-08)
(1.23369e-08 -6.31512e-09 4.70897e-08)
(1.96655e-08 1.12862e-08 5.47137e-08)
(2.53719e-08 3.53403e-08 5.98525e-08)
(0 0 0)
(1.49252e-09 -4.85055e-09 3.52423e-09)
(2.82293e-09 -9.29099e-09 6.85127e-09)
(4.02061e-09 -1.35081e-08 1.02084e-08)
(5.10917e-09 -1.76428e-08 1.37923e-08)
(6.10774e-09 -2.17855e-08 1.77756e-08)
(7.03114e-09 -2.59716e-08 2.23126e-08)
(7.88931e-09 -3.01784e-08 2.75451e-08)
(8.68855e-09 -3.4311e-08 3.36021e-08)
(9.43748e-09 -3.81697e-08 4.05892e-08)
(1.01705e-08 -4.13951e-08 4.85683e-08)
(1.10097e-08 -4.33839e-08 5.753e-08)
(1.23084e-08 -4.31645e-08 6.73619e-08)
(1.48317e-08 -3.93628e-08 7.78348e-08)
(1.98859e-08 -3.06909e-08 8.8525e-08)
(2.80673e-08 -1.86146e-08 9.81338e-08)
(3.6149e-08 -1.30986e-08 1.08055e-07)
(0 0 0)
(2.22057e-09 -7.09592e-09 5.18313e-09)
(4.20177e-09 -1.35987e-08 1.00752e-08)
(5.99e-09 -1.97833e-08 1.50067e-08)
(7.62358e-09 -2.58577e-08 2.02616e-08)
(9.13478e-09 -3.19648e-08 2.60923e-08)
(1.05504e-08 -3.8178e-08 3.27276e-08)
(1.18912e-08 -4.44965e-08 4.03799e-08)
(1.31722e-08 -5.08284e-08 4.92414e-08)
(1.44051e-08 -5.69594e-08 5.94688e-08)
(1.56095e-08 -6.25072e-08 7.11502e-08)
(1.68623e-08 -6.68568e-08 8.42465e-08)
(1.83858e-08 -6.91165e-08 9.85068e-08)
(2.06527e-08 -6.82879e-08 1.13361e-07)
(2.45219e-08 -6.39978e-08 1.2777e-07)
(3.04911e-08 -5.82415e-08 1.3979e-07)
(3.45164e-08 -5.66489e-08 1.49649e-07)
(0 0 0)
(2.9256e-09 -9.11945e-09 6.72104e-09)
(5.53897e-09 -1.74856e-08 1.3061e-08)
(7.90501e-09 -2.54569e-08 1.94425e-08)
(1.0079e-08 -3.33086e-08 2.62279e-08)
(1.21099e-08 -4.12401e-08 3.37402e-08)
(1.40419e-08 -4.9376e-08 4.22772e-08)
(1.5915e-08 -5.77607e-08 5.21179e-08)
(1.77647e-08 -6.63444e-08 6.35192e-08)
(1.96194e-08 -7.49594e-08 7.66977e-08)
(2.14965e-08 -8.32869e-08 9.179e-08)
(2.34159e-08 -9.0794e-08 1.08776e-07)
(2.53959e-08 -9.66874e-08 1.27351e-07)
(2.7426e-08 -9.99887e-08 1.46703e-07)
(2.95693e-08 -9.99442e-08 1.65163e-07)
(3.20381e-08 -9.72494e-08 1.79681e-07)
(3.2158e-08 -9.63193e-08 1.895e-07)
(0 0 0)
(3.59736e-09 -1.08458e-08 8.10461e-09)
(6.81466e-09 -2.08065e-08 1.57423e-08)
(9.73607e-09 -3.03181e-08 2.34146e-08)
(1.24355e-08 -3.97196e-08 3.15497e-08)
(1.49812e-08 -4.92696e-08 4.05307e-08)
(1.744e-08 -5.91512e-08 5.07138e-08)
(1.98802e-08 -6.94706e-08 6.24371e-08)
(2.23741e-08 -8.02497e-08 7.60199e-08)
(2.49938e-08 -9.1416e-08 9.17467e-08)
(2.78058e-08 -1.0278e-07 1.09832e-07)
(3.0856e-08 -1.13977e-07 1.30352e-07)
(3.40994e-08 -1.24369e-07 1.53111e-07)
(3.72229e-08 -1.32868e-07 1.77326e-07)
(3.94999e-08 -1.37728e-07 2.01014e-07)
(4.01404e-08 -1.37242e-07 2.1989e-07)
(3.65405e-08 -1.35078e-07 2.31647e-07)
(0 0 0)
(4.22391e-09 -1.22047e-08 9.30707e-09)
(8.00532e-09 -2.34268e-08 1.80666e-08)
(1.14471e-08 -3.41693e-08 2.68431e-08)
(1.46414e-08 -4.48292e-08 3.61163e-08)
(1.76766e-08 -5.57197e-08 4.63144e-08)
(2.06444e-08 -6.70825e-08 5.78373e-08)
(2.36468e-08 -7.90917e-08 7.10697e-08)
(2.68042e-08 -9.18552e-08 8.63822e-08)
(3.02603e-08 -1.0542e-07 1.04122e-07)
(3.41899e-08 -1.19775e-07 1.24595e-07)
(3.88076e-08 -1.34826e-07 1.48032e-07)
(4.43232e-08 -1.50319e-07 1.74511e-07)
(5.07536e-08 -1.65592e-07 2.03668e-07)
(5.75229e-08 -1.78911e-07 2.33917e-07)
(6.27009e-08 -1.86619e-07 2.60205e-07)
(5.62208e-08 -1.80117e-07 2.78487e-07)
(0 0 0)
(4.79264e-09 -1.31355e-08 1.03099e-08)
(9.0859e-09 -2.52298e-08 1.99982e-08)
(1.29989e-08 -3.68384e-08 2.96746e-08)
(1.66397e-08 -4.8404e-08 3.98531e-08)
(2.0114e-08 -6.02856e-08 5.09902e-08)
(2.35356e-08 -7.27758e-08 6.35113e-08)
(2.70372e-08 -8.61086e-08 7.78272e-08)
(3.07847e-08 -1.0047e-07 9.43372e-08)
(3.49948e-08 -1.16018e-07 1.13426e-07)
(3.99702e-08 -1.3291e-07 1.35459e-07)
(4.61572e-08 -1.51341e-07 1.60799e-07)
(5.42233e-08 -1.7159e-07 1.89819e-07)
(6.51329e-08 -1.94036e-07 2.22765e-07)
(8.01076e-08 -2.18872e-07 2.59179e-07)
(9.85677e-08 -2.43755e-07 2.94688e-07)
(1.10963e-07 -2.66453e-07 3.241e-07)
(0 0 0)
(5.29186e-09 -1.35903e-08 1.11042e-08)
(1.00335e-08 -2.61235e-08 2.15209e-08)
(1.43562e-08 -3.81885e-08 3.18863e-08)
(1.83788e-08 -5.02583e-08 4.27312e-08)
(2.2219e-08 -6.27227e-08 5.45211e-08)
(2.60041e-08 -7.59093e-08 6.76862e-08)
(2.98851e-08 -9.00939e-08 8.26385e-08)
(3.40537e-08 -1.05514e-07 9.97744e-08)
(3.87675e-08 -1.22391e-07 1.19469e-07)
(4.43933e-08 -1.40968e-07 1.42073e-07)
(5.14837e-08 -1.61562e-07 1.67953e-07)
(6.08908e-08 -1.84652e-07 1.97519e-07)
(7.39062e-08 -2.10966e-07 2.31152e-07)
(9.22993e-08 -2.41365e-07 2.68792e-07)
(1.15205e-07 -2.73169e-07 3.05806e-07)
(1.61282e-07 -3.2082e-07 3.50321e-07)
(0 0 0)
(0 0 0)
(0 0 0)
(0 0 0)
(0 0 0)
(0 0 0)
(0 0 0)
(0 0 0)
(0 0 0)
(0 0 0)
(0 0 0)
(0 0 0)
(0 0 0)
(0 0 0)
(0 0 0)
(0 0 0)
(-1.06905e-08 7.79257e-09 3.59372e-09)
(0 0 0)
(7.16925e-10 -2.50597e-09 1.66201e-09)
(1.35093e-09 -4.79847e-09 3.22942e-09)
(1.91096e-09 -6.97446e-09 4.80867e-09)
(2.40192e-09 -9.10865e-09 6.49214e-09)
(2.82469e-09 -1.12479e-08 8.35956e-09)
(3.17468e-09 -1.34088e-08 1.04797e-08)
(3.43861e-09 -1.55784e-08 1.29135e-08)
(3.59073e-09 -1.77108e-08 1.57129e-08)
(3.58907e-09 -1.97119e-08 1.89127e-08)
(3.37392e-09 -2.14159e-08 2.25139e-08)
(2.87658e-09 -2.25457e-08 2.64543e-08)
(2.01718e-09 -2.26523e-08 3.05656e-08)
(6.29508e-10 -2.10427e-08 3.44777e-08)
(-1.80105e-09 -1.68716e-08 3.7382e-08)
(-6.24921e-09 -1.04131e-08 3.77406e-08)
(-1.75768e-08 -4.6798e-09 2.60066e-08)
(0 0 0)
(1.42861e-09 -4.93899e-09 3.28457e-09)
(2.69311e-09 -9.46055e-09 6.38183e-09)
(3.81288e-09 -1.37563e-08 9.50083e-09)
(4.80006e-09 -1.79721e-08 1.28215e-08)
(5.65907e-09 -2.22037e-08 1.65001e-08)
(6.38393e-09 -2.64937e-08 2.06741e-08)
(6.95278e-09 -3.08307e-08 2.54655e-08)
(7.32082e-09 -3.51418e-08 3.09771e-08)
(7.41151e-09 -3.9271e-08 3.72758e-08)
(7.11376e-09 -4.29501e-08 4.43566e-08)
(6.29208e-09 -4.57656e-08 5.20842e-08)
(4.79758e-09 -4.71524e-08 6.00883e-08)
(2.43854e-09 -4.65392e-08 6.75718e-08)
(-1.08356e-09 -4.39318e-08 7.29934e-08)
(-5.92902e-09 -4.1141e-08 7.42157e-08)
(-1.46057e-08 -4.47375e-08 6.52837e-08)
(0 0 0)
(2.13015e-09 -7.22384e-09 4.83042e-09)
(4.0184e-09 -1.38433e-08 9.38395e-09)
(5.69733e-09 -2.01405e-08 1.3965e-08)
(7.18983e-09 -2.63308e-08 1.88339e-08)
(8.50859e-09 -3.25632e-08 2.42191e-08)
(9.65289e-09 -3.89189e-08 3.03244e-08)
(1.06022e-08 -4.54086e-08 3.73326e-08)
(1.13061e-08 -5.1963e-08 4.53988e-08)
(1.16703e-08 -5.84134e-08 5.46268e-08)
(1.15433e-08 -6.4468e-08 6.50205e-08)
(1.07109e-08 -6.96943e-08 7.64015e-08)
(8.87656e-09 -7.35663e-08 8.82621e-08)
(5.63697e-09 -7.57283e-08 9.95288e-08)
(5.75997e-10 -7.66472e-08 1.08274e-07)
(-6.05743e-09 -7.81007e-08 1.12062e-07)
(-1.7479e-08 -8.31683e-08 1.0505e-07)
(0 0 0)
(2.81454e-09 -9.28221e-09 6.26381e-09)
(5.31415e-09 -1.77962e-08 1.21648e-08)
(7.54744e-09 -2.59094e-08 1.80927e-08)
(9.55196e-09 -3.39053e-08 2.43794e-08)
(1.13544e-08 -4.19898e-08 3.1318e-08)
(1.29679e-08 -5.02936e-08 3.91733e-08)
(1.43869e-08 -5.88693e-08 4.81865e-08)
(1.55759e-08 -6.76833e-08 5.85661e-08)
(1.6451e-08 -7.66013e-08 7.04627e-08)
(1.68515e-08 -8.53698e-08 8.39146e-08)
(1.65005e-08 -9.35918e-08 9.87493e-08)
(1.49081e-08 -1.00747e-07 1.14409e-07)
(1.12559e-08 -1.0636e-07 1.29652e-07)
(4.51617e-09 -1.10439e-07 1.42161e-07)
(-5.12901e-09 -1.13847e-07 1.48786e-07)
(-2.01072e-08 -1.19566e-07 1.43146e-07)
(0 0 0)
(3.47234e-09 -1.10374e-08 7.5536e-09)
(6.56219e-09 -2.11716e-08 1.46627e-08)
(9.33633e-09 -3.08485e-08 2.17896e-08)
(1.18501e-08 -4.04157e-08 2.93269e-08)
(1.4149e-08 -5.01373e-08 3.76221e-08)
(1.62685e-08 -6.01994e-08 4.69921e-08)
(1.8232e-08 -7.07109e-08 5.77293e-08)
(2.0042e-08 -8.16989e-08 7.00945e-08)
(2.1663e-08 -9.31024e-08 8.42919e-08)
(2.29881e-08 -1.04757e-07 1.00417e-07)
(2.37713e-08 -1.16358e-07 1.18359e-07)
(2.34602e-08 -1.27403e-07 1.37619e-07)
(2.09167e-08 -1.37124e-07 1.56935e-07)
(1.42774e-08 -1.44479e-07 1.7373e-07)
(2.70348e-09 -1.48566e-07 1.84015e-07)
(-1.63181e-08 -1.53262e-07 1.80655e-07)
(0 0 0)
(4.09174e-09 -1.2418e-08 8.67486e-09)
(7.73916e-09 -2.38327e-08 1.68286e-08)
(1.10278e-08 -3.47575e-08 2.49815e-08)
(1.4032e-08 -4.55972e-08 3.35735e-08)
(1.68183e-08 -5.66694e-08 4.2993e-08)
(1.94497e-08 -6.82158e-08 5.3596e-08)
(2.1987e-08 -8.04059e-08 6.57144e-08)
(2.44882e-08 -9.33398e-08 7.96521e-08)
(2.70007e-08 -1.07052e-07 9.56619e-08)
(2.95431e-08 -1.2151e-07 1.13901e-07)
(3.20541e-08 -1.36585e-07 1.34356e-07)
(3.42366e-08 -1.51977e-07 1.5667e-07)
(3.52177e-08 -1.67016e-07 1.79732e-07)
(3.30348e-08 -1.80185e-07 2.0091e-07)
(2.53417e-08 -1.88655e-07 2.15345e-07)
(2.52412e-09 -1.86674e-07 2.15616e-07)
(0 0 0)
(4.65957e-09 -1.33625e-08 9.61027e-09)
(8.81872e-09 -2.56613e-08 1.86292e-08)
(1.25804e-08 -3.74621e-08 2.76186e-08)
(1.60363e-08 -4.92153e-08 3.70504e-08)
(1.9273e-08 -6.12825e-08 4.73382e-08)
(2.23791e-08 -7.39527e-08 5.886e-08)
(2.54524e-08 -8.74495e-08 7.19707e-08)
(2.86074e-08 -1.0194e-07 8.69974e-08)
(3.19819e-08 -1.17547e-07 1.04219e-07)
(3.57472e-08 -1.34368e-07 1.2383e-07)
(4.01092e-08 -1.52477e-07 1.45892e-07)
(4.52661e-08 -1.7193e-07 1.70189e-07)
(5.12777e-08 -1.92678e-07 1.95823e-07)
(5.77071e-08 -2.14156e-07 2.2026e-07)
(6.27934e-08 -2.33522e-07 2.37809e-07)
(5.6485e-08 -2.48995e-07 2.37395e-07)
(0 0 0)
(5.16301e-09 -1.38226e-08 1.03515e-08)
(9.77568e-09 -2.65649e-08 2.00495e-08)
(1.39548e-08 -3.88256e-08 2.96803e-08)
(1.7805e-08 -5.10843e-08 3.97311e-08)
(2.14276e-08 -6.37329e-08 5.06234e-08)
(2.49298e-08 -7.7093e-08 6.27394e-08)
(2.84349e-08 -9.14257e-08 7.64351e-08)
(3.2095e-08 -1.06941e-07 9.20346e-08)
(3.61082e-08 -1.23814e-07 1.09806e-07)
(4.07418e-08 -1.42201e-07 1.29931e-07)
(4.63622e-08 -1.62259e-07 1.52463e-07)
(5.34521e-08 -1.84157e-07 1.77214e-07)
(6.25872e-08 -2.08018e-07 2.03386e-07)
(7.42184e-08 -2.33544e-07 2.28749e-07)
(8.68067e-08 -2.57189e-07 2.47567e-07)
(1.09985e-07 -2.84105e-07 2.44598e-07)
(0 0 0)
(0 0 0)
(0 0 0)
(0 0 0)
(0 0 0)
(0 0 0)
(0 0 0)
(0 0 0)
(0 0 0)
(0 0 0)
(0 0 0)
(0 0 0)
(0 0 0)
(0 0 0)
(0 0 0)
(0 0 0)
(-1.6873e-08 -7.22228e-10 3.8892e-09)
(0 0 0)
(6.82344e-10 -2.54276e-09 1.47999e-09)
(1.28067e-09 -4.86906e-09 2.87441e-09)
(1.7983e-09 -7.07819e-09 4.27698e-09)
(2.23372e-09 -9.24697e-09 5.76825e-09)
(2.57964e-09 -1.1425e-08 7.41679e-09)
(2.82015e-09 -1.36328e-08 9.28051e-09)
(2.92488e-09 -1.58647e-08 1.14083e-08)
(2.84108e-09 -1.80889e-08 1.38378e-08)
(2.48281e-09 -2.02402e-08 1.65841e-08)
(1.71638e-09 -2.22118e-08 1.96181e-08)
(3.38721e-10 -2.38495e-08 2.28321e-08)
(-1.97537e-09 -2.49568e-08 2.59772e-08)
(-5.82319e-09 -2.5337e-08 2.8563e-08)
(-1.22698e-08 -2.49207e-08 2.97128e-08)
(-2.1878e-08 -2.40321e-08 2.83911e-08)
(-3.36942e-08 -2.13398e-08 2.31175e-08)
(0 0 0)
(1.36175e-09 -5.01107e-09 2.92496e-09)
(2.55734e-09 -9.59875e-09 5.68042e-09)
(3.59549e-09 -1.39587e-08 8.45035e-09)
(4.47633e-09 -1.82411e-08 1.13918e-08)
(5.18914e-09 -2.25461e-08 1.46394e-08)
(5.70697e-09 -2.69223e-08 1.83089e-08)
(5.9767e-09 -3.13702e-08 2.24987e-08)
(5.90522e-09 -3.58392e-08 2.72833e-08)
(5.34015e-09 -4.02186e-08 3.26926e-08)
(4.04705e-09 -4.43293e-08 3.86727e-08)
(1.68939e-09 -4.79291e-08 4.50177e-08)
(-2.20659e-09 -5.07661e-08 5.12604e-08)
(-8.27098e-09 -5.27468e-08 5.65194e-08)
(-1.70166e-08 -5.42471e-08 5.93739e-08)
(-2.72517e-08 -5.61108e-08 5.85788e-08)
(-3.51654e-08 -6.04311e-08 5.62253e-08)
(0 0 0)
(2.03528e-09 -7.32861e-09 4.30206e-09)
(3.826e-09 -1.40437e-08 8.35332e-09)
(5.39004e-09 -2.04329e-08 1.24215e-08)
(6.73405e-09 -2.67168e-08 1.67344e-08)
(7.85042e-09 -3.30494e-08 2.14889e-08)
(8.71056e-09 -3.9518e-08 2.68565e-08)
(9.25315e-09 -4.61447e-08 3.29852e-08)
(9.36631e-09 -5.28831e-08 3.99886e-08)
(8.86205e-09 -5.96087e-08 4.79185e-08)
(7.44523e-09 -6.61154e-08 5.67153e-08)
(4.68485e-09 -7.21286e-08 6.61192e-08)
(-2.24971e-11 -7.73897e-08 7.55414e-08)
(-7.39188e-09 -8.18894e-08 8.39114e-08)
(-1.77324e-08 -8.6209e-08 8.96346e-08)
(-2.91462e-08 -9.10976e-08 9.13969e-08)
(-3.84544e-08 -9.70506e-08 9.14779e-08)
(0 0 0)
(2.69751e-09 -9.41573e-09 5.57948e-09)
(5.07724e-09 -1.8051e-08 1.08301e-08)
(7.17033e-09 -2.62794e-08 1.60945e-08)
(8.99546e-09 -3.43895e-08 2.16632e-08)
(1.05559e-08 -4.25916e-08 2.77891e-08)
(1.18335e-08 -5.10203e-08 3.46954e-08)
(1.2777e-08 -5.97352e-08 4.25772e-08)
(1.32841e-08 -6.87171e-08 5.15888e-08)
(1.31712e-08 -7.78606e-08 6.18135e-08)
(1.21319e-08 -8.6968e-08 7.32072e-08)
(9.678e-09 -9.57483e-08 8.55017e-08)
(5.0497e-09 -1.03863e-07 9.80619e-08)
(-2.78024e-09 -1.11082e-07 1.09715e-07)
(-1.45583e-08 -1.17533e-07 1.18694e-07)
(-2.83976e-08 -1.23449e-07 1.23276e-07)
(-4.04573e-08 -1.29763e-07 1.25467e-07)
(0 0 0)
(3.3399e-09 -1.11944e-08 6.72928e-09)
(6.29466e-09 -2.14704e-08 1.30554e-08)
(8.91226e-09 -3.128e-08 1.93851e-08)
(1.1228e-08 -4.09755e-08 2.60619e-08)
(1.32632e-08 -5.08232e-08 3.33855e-08)
(1.5021e-08 -6.10093e-08 4.16232e-08)
(1.64789e-08 -7.16422e-08 5.10116e-08)
(1.75735e-08 -8.27493e-08 6.17445e-08)
(1.81717e-08 -9.42727e-08 7.39409e-08)
(1.8026e-08 -1.06058e-07 8.75874e-08)
(1.66884e-08 -1.17826e-07 1.02439e-07)
(1.3352e-08 -1.29134e-07 1.17864e-07)
(6.69149e-09 -1.39333e-07 1.32638e-07)
(-4.84374e-09 -1.47528e-07 1.44807e-07)
(-2.03651e-08 -1.5268e-07 1.52174e-07)
(-3.5994e-08 -1.56739e-07 1.56614e-07)
(0 0 0)
(3.95079e-09 -1.25922e-08 7.72914e-09)
(7.45519e-09 -2.41635e-08 1.49857e-08)
(1.05798e-08 -3.52328e-08 2.22273e-08)
(1.33792e-08 -4.62085e-08 2.9839e-08)
(1.58966e-08 -5.7408e-08 3.81558e-08)
(1.8164e-08 -6.90685e-08 4.74774e-08)
(2.01997e-08 -8.13504e-08 5.80725e-08)
(2.20004e-08 -9.4338e-08 7.01663e-08)
(2.35243e-08 -1.0804e-07 8.39083e-08)
(2.46587e-08 -1.22379e-07 9.93154e-08)
(2.51477e-08 -1.37158e-07 1.16173e-07)
(2.443e-08 -1.51978e-07 1.33871e-07)
(2.13892e-08 -1.66054e-07 1.5113e-07)
(1.42607e-08 -1.77822e-07 1.65729e-07)
(2.40677e-09 -1.84712e-07 1.74889e-07)
(-1.6571e-08 -1.80065e-07 1.81181e-07)
(0 0 0)
(4.51648e-09 -1.35472e-08 8.56359e-09)
(8.53131e-09 -2.60112e-08 1.65911e-08)
(1.21294e-08 -3.79627e-08 2.45769e-08)
(1.53839e-08 -4.98542e-08 3.29339e-08)
(1.836e-08 -6.20451e-08 4.20184e-08)
(2.11187e-08 -7.48156e-08 5.21488e-08)
(2.37205e-08 -8.83725e-08 6.36115e-08)
(2.62264e-08 -1.02853e-07 7.66483e-08)
(2.8697e-08 -1.18328e-07 9.14229e-08)
(3.11872e-08 -1.34805e-07 1.07962e-07)
(3.37196e-08 -1.52207e-07 1.26063e-07)
(3.62166e-08 -1.70333e-07 1.45119e-07)
(3.84045e-08 -1.88738e-07 1.6376e-07)
(3.97761e-08 -2.06393e-07 1.79345e-07)
(3.99417e-08 -2.20735e-07 1.88133e-07)
(3.65611e-08 -2.30497e-07 1.91591e-07)
(0 0 0)
(5.02315e-09 -1.40109e-08 9.22514e-09)
(9.49564e-09 -2.69209e-08 1.78584e-08)
(1.35177e-08 -3.93333e-08 2.64158e-08)
(1.71776e-08 -5.17287e-08 3.53231e-08)
(2.0558e-08 -6.44949e-08 4.49435e-08)
(2.37425e-08 -7.79421e-08 5.55986e-08)
(2.68234e-08 -9.23089e-08 6.75763e-08)
(2.99094e-08 -1.07767e-07 8.11154e-08)
(3.31357e-08 -1.24424e-07 9.63679e-08)
(3.66736e-08 -1.42323e-07 1.13341e-07)
(4.07333e-08 -1.61428e-07 1.31813e-07)
(4.55497e-08 -1.81593e-07 1.51163e-07)
(5.13658e-08 -2.02446e-07 1.70014e-07)
(5.84202e-08 -2.23099e-07 1.85723e-07)
(6.61965e-08 -2.40487e-07 1.94286e-07)
(8.76688e-08 -2.61025e-07 1.91004e-07)
(0 0 0)
(0 0 0)
(0 0 0)
(0 0 0)
(0 0 0)
(0 0 0)
(0 0 0)
(0 0 0)
(0 0 0)
(0 0 0)
(0 0 0)
(0 0 0)
(0 0 0)
(0 0 0)
(0 0 0)
(0 0 0)
(-1.90108e-08 -3.36166e-09 4.63935e-09)
(0 0 0)
(6.49332e-10 -2.57067e-09 1.24509e-09)
(1.21358e-09 -4.92275e-09 2.41726e-09)
(1.69074e-09 -7.15733e-09 3.5945e-09)
(2.07335e-09 -9.35321e-09 4.84346e-09)
(2.3468e-09 -1.15623e-08 6.22e-09)
(2.48562e-09 -1.38077e-08 7.76985e-09)
(2.44586e-09 -1.60892e-08 9.52997e-09)
(2.15505e-09 -1.83861e-08 1.15258e-08)
(1.49856e-09 -2.06555e-08 1.37607e-08)
(3.01314e-10 -2.28304e-08 1.61982e-08)
(-1.6973e-09 -2.48268e-08 1.8731e-08)
(-4.89889e-09 -2.65633e-08 2.11481e-08)
(-9.95134e-09 -2.79904e-08 2.31172e-08)
(-1.77737e-08 -2.90798e-08 2.42203e-08)
(-2.82382e-08 -2.96297e-08 2.42245e-08)
(-3.92778e-08 -2.67327e-08 2.21343e-08)
(0 0 0)
(1.29775e-09 -5.0664e-09 2.46121e-09)
(2.42733e-09 -9.70512e-09 4.77788e-09)
(3.38738e-09 -1.41151e-08 7.10305e-09)
(4.16685e-09 -1.84494e-08 9.56676e-09)
(4.74158e-09 -2.28114e-08 1.22786e-08)
(5.06679e-09 -2.72542e-08 1.53301e-08)
(5.06451e-09 -3.1787e-08 1.87959e-08)
(4.60629e-09 -3.63772e-08 2.2727e-08)
(3.49073e-09 -4.09474e-08 2.7131e-08)
(1.41933e-09 -4.53765e-08 3.19393e-08)
(-2.02535e-09 -4.95185e-08 3.69514e-08)
(-7.38665e-09 -5.32531e-08 4.17798e-08)
(-1.52362e-08 -5.65851e-08 4.58203e-08)
(-2.56022e-08 -5.96962e-08 4.8338e-08)
(-3.61469e-08 -6.25605e-08 4.90181e-08)
(-4.22569e-08 -6.59347e-08 4.93889e-08)
(0 0 0)
(1.94417e-09 -7.40978e-09 3.62079e-09)
(3.64117e-09 -1.41994e-08 7.02752e-09)
(5.09489e-09 -2.06601e-08 1.0443e-08)
(6.29694e-09 -2.70158e-08 1.40556e-08)
(7.22163e-09 -3.34234e-08 1.80254e-08)
(7.8166e-09 -3.99744e-08 2.24889e-08)
(7.98788e-09 -4.66996e-08 2.75585e-08)
(7.57897e-09 -5.35691e-08 3.33123e-08)
(6.34319e-09 -6.04893e-08 3.97688e-08)
(3.91518e-09 -6.73054e-08 4.68445e-08)
(-2.09784e-10 -7.38236e-08 5.42879e-08)
(-6.65506e-09 -7.98818e-08 6.16176e-08)
(-1.59418e-08 -8.54991e-08 6.81122e-08)
(-2.76681e-08 -9.09954e-08 7.29714e-08)
(-3.87301e-08 -9.64103e-08 7.58364e-08)
(-4.54371e-08 -1.01675e-07 7.81105e-08)
(0 0 0)
(2.5847e-09 -9.51958e-09 4.69693e-09)
(4.84878e-09 -1.82493e-08 9.11302e-09)
(6.80676e-09 -2.65665e-08 1.35333e-08)
(8.45973e-09 -3.47623e-08 1.81979e-08)
(9.78998e-09 -4.30486e-08 2.33128e-08)
(1.07521e-08 -5.15619e-08 2.90554e-08)
(1.12587e-08 -6.03657e-08 3.55745e-08)
(1.11591e-08 -6.94491e-08 4.29762e-08)
(1.02093e-08 -7.87221e-08 5.12965e-08)
(8.03571e-09 -8.80125e-08 6.04542e-08)
(4.09498e-09 -9.70688e-08 7.01803e-08)
(-2.34349e-09 -1.05594e-07 7.99493e-08)
(-1.20172e-08 -1.13346e-07 8.89771e-08)
(-2.4842e-08 -1.20249e-07 9.63884e-08)
(-3.77666e-08 -1.26098e-07 1.01553e-07)
(-4.67093e-08 -1.31501e-07 1.05584e-07)
(0 0 0)
(3.21165e-09 -1.13165e-08 5.66597e-09)
(6.03556e-09 -2.17027e-08 1.09876e-08)
(8.50158e-09 -3.16136e-08 1.6303e-08)
(1.06263e-08 -4.14027e-08 2.18961e-08)
(1.24088e-08 -5.13356e-08 2.80111e-08)
(1.38244e-08 -6.15965e-08 3.48605e-08)
(1.48136e-08 -7.22902e-08 4.26243e-08)
(1.52651e-08 -8.34387e-08 5.14357e-08)
(1.49884e-08 -9.4976e-08 6.13505e-08)
(1.36745e-08 -1.06735e-07 7.22965e-08)
(1.08331e-08 -1.18417e-07 8.39994e-08)
(5.71009e-09 -1.29553e-07 9.59031e-08)
(-2.69172e-09 -1.39435e-07 1.07155e-07)
(-1.50444e-08 -1.47042e-07 1.16761e-07)
(-2.92985e-08 -1.51209e-07 1.23827e-07)
(-4.14599e-08 -1.53664e-07 1.29397e-07)
(0 0 0)
(3.81358e-09 -1.27276e-08 6.50896e-09)
(7.17871e-09 -2.44199e-08 1.26142e-08)
(1.01436e-08 -3.5598e-08 1.86964e-08)
(1.2744e-08 -4.66698e-08 2.50735e-08)
(1.50015e-08 -5.79498e-08 3.20182e-08)
(1.6921e-08 -6.96682e-08 3.97687e-08)
(1.84858e-08 -8.19729e-08 4.85291e-08)
(1.96483e-08 -9.49279e-08 5.84531e-08)
(2.03135e-08 -1.08507e-07 6.96113e-08)
(2.03126e-08 -1.22578e-07 8.19351e-08)
(1.93494e-08 -1.36862e-07 9.51371e-08)
(1.69074e-08 -1.50844e-07 1.08612e-07)
(1.21737e-08 -1.63607e-07 1.21377e-07)
(4.23752e-09 -1.73518e-07 1.32186e-07)
(-6.33027e-09 -1.78268e-07 1.39897e-07)
(-2.15468e-08 -1.71642e-07 1.46186e-07)
(0 0 0)
(4.37636e-09 -1.36902e-08 7.21278e-09)
(8.24978e-09 -2.62812e-08 1.39678e-08)
(1.16874e-08 -3.83447e-08 2.06764e-08)
(1.47445e-08 -5.03313e-08 2.76792e-08)
(1.74662e-08 -6.25946e-08 3.52661e-08)
(1.98888e-08 -7.54038e-08 4.36898e-08)
(2.20412e-08 -8.89457e-08 5.31677e-08)
(2.39452e-08 -1.03323e-07 6.38639e-08)
(2.56145e-08 -1.18552e-07 7.58505e-08)
(2.7051e-08 -1.34548e-07 8.90493e-08)
(2.82329e-08 -1.51099e-07 1.03144e-07)
(2.90984e-08 -1.67813e-07 1.17456e-07)
(2.95964e-08 -1.84034e-07 1.30803e-07)
(2.99451e-08 -1.98677e-07 1.41496e-07)
(3.09574e-08 -2.09847e-07 1.47905e-07)
(3.08412e-08 -2.17572e-07 1.51897e-07)
(0 0 0)
(4.88525e-09 -1.41561e-08 7.77111e-09)
(9.21941e-09 -2.71944e-08 1.50373e-08)
(1.30862e-08 -3.97181e-08 2.22275e-08)
(1.65579e-08 -5.22049e-08 2.96932e-08)
(1.9699e-08 -6.50352e-08 3.77295e-08)
(2.25717e-08 -7.85048e-08 4.65921e-08)
(2.52415e-08 -9.28276e-08 5.64994e-08)
(2.77839e-08 -1.08133e-07 6.76118e-08)
(3.02938e-08 -1.24459e-07 7.99892e-08)
(3.28957e-08 -1.41742e-07 9.35302e-08)
(3.57531e-08 -1.59788e-07 1.07884e-07)
(3.90884e-08 -1.7824e-07 1.22318e-07)
(4.32715e-08 -1.96511e-07 1.3555e-07)
(4.90348e-08 -2.137e-07 1.45695e-07)
(5.68105e-08 -2.27672e-07 1.50814e-07)
(8.11867e-08 -2.46153e-07 1.49383e-07)
(0 0 0)
(0 0 0)
(0 0 0)
(0 0 0)
(0 0 0)
(0 0 0)
(0 0 0)
(0 0 0)
(0 0 0)
(0 0 0)
(0 0 0)
(0 0 0)
(0 0 0)
(0 0 0)
(0 0 0)
(0 0 0)
(-1.96304e-08 -3.99685e-09 4.18966e-09)
(0 0 0)
(6.20634e-10 -2.59015e-09 9.67735e-10)
(1.15531e-09 -4.96003e-09 1.87798e-09)
(1.59735e-09 -7.21281e-09 2.79104e-09)
(1.93421e-09 -9.42953e-09 3.75836e-09)
(2.14577e-09 -1.16623e-08 4.82191e-09)
(2.19975e-09 -1.39354e-08 6.01515e-09)
(2.04328e-09 -1.62522e-08 7.3642e-09)
(1.5929e-09 -1.85995e-08 8.88567e-09)
(7.22788e-10 -2.09464e-08 1.05791e-08)
(-7.50066e-10 -2.32447e-08 1.24138e-08)
(-3.08795e-09 -2.54359e-08 1.43071e-08)
(-6.67024e-09 -2.74586e-08 1.61205e-08)
(-1.20752e-08 -2.92531e-08 1.7677e-08)
(-2.00647e-08 -3.06758e-08 1.88163e-08)
(-3.03236e-08 -3.12579e-08 1.94598e-08)
(-4.06197e-08 -2.78093e-08 1.84091e-08)
(0 0 0)
(1.24195e-09 -5.10572e-09 1.91339e-09)
(2.31391e-09 -9.78134e-09 3.713e-09)
(3.20578e-09 -1.42281e-08 5.51705e-09)
(3.89743e-09 -1.86012e-08 7.42539e-09)
(4.35424e-09 -2.3005e-08 9.52047e-09)
(4.51863e-09 -2.74951e-08 1.18697e-08)
(4.2962e-09 -3.20861e-08 1.4526e-08)
(3.53938e-09 -3.67567e-08 1.75227e-08)
(2.02935e-09 -4.14469e-08 2.08592e-08)
(-5.42771e-10 -4.60622e-08 2.44755e-08)
(-4.5803e-09 -5.04828e-08 2.82201e-08)
(-1.05581e-08 -5.45989e-08 3.18316e-08)
(-1.88708e-08 -5.83543e-08 3.49599e-08)
(-2.92042e-08 -6.16883e-08 3.7247e-08)
(-3.8961e-08 -6.42328e-08 3.84964e-08)
(-4.35718e-08 -6.65992e-08 3.92323e-08)
(0 0 0)
(1.86439e-09 -7.46859e-09 2.81554e-09)
(3.47918e-09 -1.43129e-08 5.4628e-09)
(4.8364e-09 -2.08266e-08 8.11352e-09)
(5.91538e-09 -2.72345e-08 1.09119e-08)
(6.67615e-09 -3.36947e-08 1.39786e-08)
(7.04906e-09 -4.03008e-08 1.74145e-08)
(6.91891e-09 -4.70885e-08 2.12996e-08)
(6.10581e-09 -5.40369e-08 2.56846e-08)
(4.34404e-09 -6.10662e-08 3.0573e-08)
(1.26394e-09 -6.80394e-08 3.58896e-08)
(-3.60246e-09 -7.47764e-08 4.14438e-08)
(-1.07551e-08 -8.11021e-08 4.69041e-08)
(-2.04399e-08 -8.69397e-08 5.18432e-08)
(-3.1808e-08 -9.23588e-08 5.5863e-08)
(-4.15666e-08 -9.71754e-08 5.86983e-08)
(-4.63391e-08 -1.01449e-07 6.06622e-08)
(0 0 0)
(2.4855e-09 -9.59565e-09 3.65325e-09)
(4.64787e-09 -1.83952e-08 7.08578e-09)
(6.48737e-09 -2.67775e-08 1.0517e-08)
(7.99049e-09 -3.50341e-08 1.41305e-08)
(9.12325e-09 -4.33763e-08 1.80817e-08)
(9.82031e-09 -5.19405e-08 2.25018e-08)
(9.97051e-09 -6.07916e-08 2.74966e-08)
(9.39877e-09 -6.99203e-08 3.31348e-08)
(7.84381e-09 -7.9238e-08 3.94278e-08)
(4.93731e-09 -8.85707e-08 4.62982e-08)
(1.93276e-10 -9.76576e-08 5.35331e-08)
(-6.95155e-09 -1.06166e-07 6.07596e-08)
(-1.68906e-08 -1.13752e-07 6.75035e-08)
(-2.90454e-08 -1.20153e-07 7.33156e-08)
(-4.02702e-08 -1.25094e-07 7.77294e-08)
(-4.69981e-08 -1.29393e-07 8.08294e-08)
(0 0 0)
(3.09846e-09 -1.14064e-08 4.40796e-09)
(5.80684e-09 -2.18739e-08 8.54529e-09)
(8.13952e-09 -3.1858e-08 1.2672e-08)
(1.00975e-08 -4.17111e-08 1.70051e-08)
(1.16622e-08 -5.16967e-08 2.1729e-08)
(1.27883e-08 -6.19953e-08 2.70005e-08)
(1.33924e-08 -7.27061e-08 3.29476e-08)
(1.33398e-08 -8.38422e-08 3.96558e-08)
(1.24253e-08 -9.53213e-08 4.71448e-08)
(1.03512e-08 -1.06949e-07 5.53354e-08)
(6.69804e-09 -1.18389e-07 6.3996e-08)