/*--------------------------------*- C++ -*----------------------------------*\
| =========                 |                                                 |
| \\      /  F ield         | OpenFOAM: The Open Source CFD Toolbox           |
|  \\    /   O peration     | Version:  v1912                                 |
|   \\  /    A nd           | Website:  www.openfoam.com                      |
|    \\/     M anipulation  |                                                 |
\*---------------------------------------------------------------------------*/
FoamFile
{
    version     2.0;
    format      ascii;
    class       volVectorField;
    location    "0.81/solid";
    object      D;
}
// * * * * * * * * * * * * * * * * * * * * * * * * * * * * * * * * * * * * * //

dimensions      [0 1 0 0 0 0 0];


internalField   nonuniform List<vector> 
256
(
(2.90369e-08 4.08375e-08 3.19497e-08)
(3.91178e-09 2.39278e-08 2.91526e-08)
(-3.84652e-09 2.35402e-08 2.90071e-08)
(-2.79889e-08 3.92472e-08 3.15832e-08)
(4.785e-08 3.20685e-08 6.23863e-08)
(9.88926e-09 2.15907e-08 5.86479e-08)
(-8.80618e-09 2.10416e-08 5.84831e-08)
(-4.54406e-08 3.02627e-08 6.19661e-08)
(5.06683e-08 1.56134e-08 7.95668e-08)
(1.14187e-08 1.14126e-08 7.54984e-08)
(-9.07467e-09 1.08038e-08 7.53692e-08)
(-4.70028e-08 1.37454e-08 7.92357e-08)
(5.0123e-08 5.53276e-10 9.30558e-08)
(1.13338e-08 -1.70891e-09 8.85044e-08)
(-7.67358e-09 -2.35256e-09 8.84018e-08)
(-4.51416e-08 -1.39517e-09 9.27947e-08)
(5.09516e-08 -1.40381e-08 1.064e-07)
(1.17157e-08 -1.70488e-08 1.01279e-07)
(-6.70458e-09 -1.7725e-08 1.01188e-07)
(-4.46012e-08 -1.60718e-08 1.06169e-07)
(5.57039e-08 -3.04705e-08 1.2149e-07)
(1.3701e-08 -3.49358e-08 1.1585e-07)
(-7.31807e-09 -3.56456e-08 1.15758e-07)
(-4.79673e-08 -3.2585e-08 1.21257e-07)
(6.68373e-08 -5.56463e-08 1.39465e-07)
(1.79344e-08 -5.90803e-08 1.33862e-07)
(-1.0213e-08 -5.97993e-08 1.33756e-07)
(-5.77473e-08 -5.77767e-08 1.39196e-07)
(8.24337e-08 -1.13681e-07 1.57189e-07)
(2.25316e-08 -1.09801e-07 1.52745e-07)
(-1.36597e-08 -1.10262e-07 1.52614e-07)
(-7.20949e-08 -1.1513e-07 1.56857e-07)
(2.01314e-08 1.84152e-08 6.80367e-09)
(2.04794e-09 4.53501e-09 8.23605e-09)
(-1.92644e-09 4.28577e-09 8.28109e-09)
(-1.90684e-08 1.7191e-08 6.93147e-09)
(3.35238e-08 1.20725e-08 2.59345e-08)
(6.27345e-09 3.31144e-09 2.87309e-08)
(-5.11134e-09 2.82924e-09 2.88029e-08)
(-3.11335e-08 1.04446e-08 2.61416e-08)
(3.51818e-08 6.36362e-10 4.20244e-08)
(7.3672e-09 -2.98501e-09 4.52629e-08)
(-4.96462e-09 -3.57426e-09 4.53633e-08)
(-3.15817e-08 -1.17554e-09 4.23112e-08)
(3.43117e-08 -1.17009e-08 5.51531e-08)
(7.22558e-09 -1.37716e-08 5.84108e-08)
(-3.53203e-09 -1.4412e-08 5.85363e-08)
(-2.94289e-08 -1.36373e-08 5.55083e-08)
(3.48596e-08 -2.48312e-08 6.73996e-08)
(7.57118e-09 -2.77804e-08 7.05188e-08)
(-2.54316e-09 -2.84576e-08 7.06583e-08)
(-2.8621e-08 -2.6868e-08 6.77917e-08)
(3.9414e-08 -3.93997e-08 8.0012e-08)
(9.52659e-09 -4.39192e-08 8.29608e-08)
(-3.13071e-09 -4.46324e-08 8.31027e-08)
(-3.17825e-08 -4.15272e-08 8.04073e-08)
(5.08144e-08 -5.96299e-08 9.22406e-08)
(1.382e-08 -6.30279e-08 9.51179e-08)
(-6.07587e-09 -6.37578e-08 9.52526e-08)
(-4.18042e-08 -6.17938e-08 9.26117e-08)
(6.74499e-08 -1.06774e-07 9.91421e-08)
(1.8534e-08 -1.01754e-07 1.02062e-07)
(-9.61338e-09 -1.02243e-07 1.02189e-07)
(-5.71524e-08 -1.08293e-07 9.94872e-08)
(1.39432e-08 1.13778e-08 3.28268e-09)
(4.06159e-10 -1.80607e-10 5.22727e-09)
(-3.11623e-10 -3.93593e-10 5.2658e-09)
(-1.2938e-08 1.02668e-08 3.393e-09)
(2.32122e-08 1.88429e-09 1.60776e-08)
(2.95164e-09 -5.33106e-09 1.97579e-08)
(-1.86501e-09 -5.77349e-09 1.98311e-08)
(-2.09368e-08 3.69494e-10 1.62903e-08)
(2.40786e-08 -9.31242e-09 2.98681e-08)
(3.61753e-09 -1.2389e-08 3.40958e-08)
(-1.32424e-09 -1.29531e-08 3.41904e-08)
(-2.06316e-08 -1.10536e-08 3.01441e-08)
(2.3141e-08 -2.02091e-08 4.23543e-08)
(3.43942e-09 -2.21774e-08 4.66822e-08)
(1.21729e-10 -2.28062e-08 4.67937e-08)
(-1.84365e-08 -2.21127e-08 4.26781e-08)
(2.36563e-08 -3.12493e-08 5.36561e-08)
(3.7749e-09 -3.424e-08 5.79464e-08)
(1.10686e-09 -3.49148e-08 5.80683e-08)
(-1.76068e-08 -3.32804e-08 5.40078e-08)
(2.82537e-08 -4.26893e-08 6.39046e-08)
(5.72534e-09 -4.73019e-08 6.81152e-08)
(5.19869e-10 -4.80198e-08 6.824e-08)
(-2.08065e-08 -4.48331e-08 6.42615e-08)
(3.99009e-08 -5.82567e-08 7.17337e-08)
(1.00679e-08 -6.17345e-08 7.58516e-08)
(-2.46956e-09 -6.24762e-08 7.59741e-08)
(-3.10556e-08 -6.0457e-08 7.20791e-08)
(5.68272e-08 -9.95876e-08 7.39272e-08)
(1.48485e-08 -9.4551e-08 7.79871e-08)
(-6.05955e-09 -9.50565e-08 7.81091e-08)
(-4.6665e-08 -1.01151e-07 7.4265e-08)
(1.11375e-08 9.13932e-09 2.98797e-09)
(-2.93068e-10 -1.05754e-09 4.2462e-09)
(3.59802e-10 -1.26213e-09 4.27094e-09)
(-1.01913e-08 8.07176e-09 3.06295e-09)
(1.84205e-08 -2.20818e-09 1.25224e-08)
(1.41349e-09 -8.49054e-09 1.49192e-08)
(-4.14746e-10 -8.91524e-09 1.49735e-08)
(-1.62687e-08 -3.66396e-09 1.26863e-08)
(1.90149e-08 -1.42862e-08 2.35117e-08)
(1.87827e-09 -1.70364e-08 2.62569e-08)
(2.84879e-10 -1.75832e-08 2.63288e-08)
(-1.57297e-08 -1.59762e-08 2.37292e-08)
(1.82507e-08 -2.47836e-08 3.41699e-08)
(1.74222e-09 -2.67221e-08 3.69518e-08)
(1.66352e-09 -2.73398e-08 3.70358e-08)
(-1.37313e-08 -2.66553e-08 3.44228e-08)
(1.89583e-08 -3.43079e-08 4.37308e-08)
(2.13996e-09 -3.73606e-08 4.64584e-08)
(2.57301e-09 -3.80313e-08 4.65499e-08)
(-1.31047e-08 -3.63285e-08 4.40047e-08)
(2.37157e-08 -4.34412e-08 5.16187e-08)
(4.12602e-09 -4.81383e-08 5.42765e-08)
(1.94585e-09 -4.88584e-08 5.4371e-08)
(-1.64631e-08 -4.55932e-08 5.18993e-08)
(3.54185e-08 -5.64696e-08 5.67123e-08)
(8.46007e-09 -6.01216e-08 5.93137e-08)
(-1.03314e-09 -6.08701e-08 5.94084e-08)
(-2.67555e-08 -5.86913e-08 5.69893e-08)
(5.21901e-08 -9.53046e-08 5.75883e-08)
(1.32144e-08 -9.07748e-08 6.02266e-08)
(-4.58985e-09 -9.12888e-08 6.03221e-08)
(-4.21912e-08 -9.68921e-08 5.78632e-08)
(1.00816e-08 8.23784e-09 2.70434e-09)
(-4.62868e-10 -1.27515e-09 3.33812e-09)
(5.10757e-10 -1.47548e-09 3.35449e-09)
(-9.17774e-09 7.1987e-09 2.75536e-09)
(1.66746e-08 -3.67638e-09 9.95033e-09)
(9.81313e-10 -9.50923e-09 1.11484e-08)
(-4.95521e-11 -9.92432e-09 1.1187e-08)
(-1.46196e-08 -5.0951e-09 1.00691e-08)
(1.72952e-08 -1.62235e-08 1.82132e-08)
(1.41261e-09 -1.88418e-08 1.95633e-08)
(6.44565e-10 -1.93778e-08 1.96161e-08)
(-1.41425e-08 -1.78789e-08 1.83753e-08)
(1.67666e-08 -2.66362e-08 2.64398e-08)
(1.35014e-09 -2.85985e-08 2.77716e-08)
(1.9245e-09 -2.92078e-08 2.78335e-08)
(-1.24022e-08 -2.84831e-08 2.66298e-08)
(1.77017e-08 -3.53894e-08 3.37946e-08)
(1.825e-09 -3.85021e-08 3.50632e-08)
(2.74312e-09 -3.91687e-08 3.51307e-08)
(-1.20146e-08 -3.73984e-08 3.40011e-08)
(2.25909e-08 -4.33855e-08 3.95664e-08)
(3.8446e-09 -4.814e-08 4.07818e-08)
(2.07683e-09 -4.88601e-08 4.08521e-08)
(-1.55067e-08 -4.55388e-08 3.97798e-08)
(3.42317e-08 -5.53957e-08 4.30198e-08)
(8.13923e-09 -5.91869e-08 4.42196e-08)
(-8.63074e-10 -5.99382e-08 4.42908e-08)
(-2.5731e-08 -5.76274e-08 4.32334e-08)
(5.07605e-08 -9.30879e-08 4.36383e-08)
(1.28403e-08 -8.90156e-08 4.49099e-08)
(-4.36336e-09 -8.95338e-08 4.4982e-08)
(-4.09132e-08 -9.46879e-08 4.38516e-08)
(9.69442e-09 7.81737e-09 2.12654e-09)
(-4.64683e-10 -1.36831e-09 2.41273e-09)
(5.00538e-10 -1.56541e-09 2.42346e-09)
(-8.81779e-09 6.79827e-09 2.15998e-09)
(1.61176e-08 -4.14018e-09 7.29697e-09)
(9.408e-10 -9.78507e-09 7.82219e-09)
(-5.4578e-11 -1.01937e-08 7.84823e-09)
(-1.41281e-08 -5.53293e-09 7.37701e-09)
(1.68548e-08 -1.67465e-08 1.3033e-08)
(1.40119e-09 -1.93361e-08 1.36033e-08)
(5.80266e-10 -1.9865e-08 1.36396e-08)
(-1.37959e-08 -1.83778e-08 1.31444e-08)
(1.6521e-08 -2.70957e-08 1.87551e-08)
(1.40361e-09 -2.90997e-08 1.92903e-08)
(1.77386e-09 -2.97032e-08 1.93332e-08)
(-1.227e-08 -2.89244e-08 1.88872e-08)
(1.76253e-08 -3.5552e-08 2.38553e-08)
(1.93564e-09 -3.87106e-08 2.434e-08)
(2.52248e-09 -3.93736e-08 2.43871e-08)
(-1.20627e-08 -3.75508e-08 2.40001e-08)
(2.25889e-08 -4.31607e-08 2.77818e-08)
(3.97323e-09 -4.7944e-08 2.82352e-08)
(1.8321e-09 -4.8663e-08 2.82845e-08)
(-1.56328e-08 -4.53118e-08 2.79328e-08)
(3.41439e-08 -5.48733e-08 3.0095e-08)
(8.22781e-09 -5.87349e-08 3.05542e-08)
(-1.06952e-09 -5.94869e-08 3.06045e-08)
(-2.57693e-08 -5.71085e-08 3.02475e-08)
(5.0471e-08 -9.19834e-08 3.06142e-08)
(1.28818e-08 -8.81811e-08 3.11342e-08)
(-4.52191e-09 -8.87009e-08 3.11851e-08)
(-4.07445e-08 -9.35891e-08 3.07668e-08)
(9.53571e-09 7.62304e-09 1.34549e-09)
(-4.43103e-10 -1.4065e-09 1.46534e-09)
(4.71857e-10 -1.60145e-09 1.4715e-09)
(-8.67499e-09 6.61653e-09 1.36452e-09)
(1.59305e-08 -4.24447e-09 4.45636e-09)
(9.72469e-10 -9.81643e-09 4.66715e-09)
(-1.14047e-10 -1.02207e-08 4.68226e-09)
(-1.39804e-08 -5.62029e-09 4.50249e-09)
(1.67661e-08 -1.67645e-08 7.83045e-09)
(1.46472e-09 -1.93598e-08 8.04767e-09)
(4.69019e-10 -1.98841e-08 8.0689e-09)
(-1.37654e-08 -1.838e-08 7.89539e-09)
(1.65569e-08 -2.70467e-08 1.11768e-08)
(1.50908e-09 -2.90855e-08 1.1367e-08)
(1.60538e-09 -2.96852e-08 1.13923e-08)
(-1.23782e-08 -2.88631e-08 1.12546e-08)
(1.77608e-08 -3.54185e-08 1.41512e-08)
(2.07386e-09 -3.86054e-08 1.43114e-08)
(2.31138e-09 -3.9266e-08 1.43394e-08)
(-1.22792e-08 -3.74098e-08 1.42372e-08)
(2.27586e-08 -4.29596e-08 1.64311e-08)
(4.11834e-09 -4.77528e-08 1.65768e-08)
(1.60886e-09 -4.84707e-08 1.66062e-08)
(-1.58874e-08 -4.51078e-08 1.65213e-08)
(3.42481e-08 -5.46334e-08 1.77839e-08)
(8.34497e-09 -5.85192e-08 1.79393e-08)
(-1.26688e-09 -5.92712e-08 1.79694e-08)
(-2.59583e-08 -5.68692e-08 1.78755e-08)
(5.04417e-08 -9.14477e-08 1.81411e-08)
(1.29668e-08 -8.77719e-08 1.83332e-08)
(-4.68743e-09 -8.82923e-08 1.83636e-08)
(-4.07979e-08 -9.30554e-08 1.82329e-08)
(9.47151e-09 7.54765e-09 4.59158e-10)
(-4.31357e-10 -1.4171e-09 4.92252e-10)
(4.56829e-10 -1.61097e-09 4.94265e-10)
(-8.61812e-09 6.54716e-09 4.65344e-10)
(1.58619e-08 -4.24875e-09 1.49795e-09)
(9.92477e-10 -9.7954e-09 1.55439e-09)
(-1.4715e-10 -1.01975e-08 1.55934e-09)
(-1.39302e-08 -5.6162e-09 1.51302e-09)
(1.67468e-08 -1.66962e-08 2.61133e-09)
(1.5013e-09 -1.92993e-08 2.66721e-09)
(4.09555e-10 -1.98214e-08 2.6742e-09)
(-1.37738e-08 -1.83038e-08 2.63265e-09)
(1.65957e-08 -2.69367e-08 3.71049e-09)
(1.56506e-09 -2.89937e-08 3.75671e-09)
(1.51865e-09 -2.95915e-08 3.76509e-09)
(-1.24519e-08 -2.87469e-08 3.73616e-09)
(1.78437e-08 -3.52934e-08 4.68585e-09)
(2.14393e-09 -3.8493e-08 4.72241e-09)
(2.20523e-09 -3.91524e-08 4.73168e-09)
(-1.24018e-08 -3.72806e-08 4.71432e-09)
(2.28541e-08 -4.28464e-08 5.43348e-09)
(4.19034e-09 -4.76416e-08 5.46601e-09)
(1.49777e-09 -4.83589e-08 5.4758e-09)
(-1.60249e-08 -4.49928e-08 5.46347e-09)
(3.43103e-08 -5.45365e-08 5.88056e-09)
(8.40326e-09 -5.84273e-08 5.91726e-09)
(-1.36563e-09 -5.91791e-08 5.9273e-09)
(-2.60629e-08 -5.67721e-08 5.91111e-09)
(5.04387e-08 -9.12271e-08 6.00782e-09)
(1.3009e-08 -8.75977e-08 6.0565e-09)
(-4.77057e-09 -8.81182e-08 6.06664e-09)
(-4.08366e-08 -9.28354e-08 6.03846e-09)
)
;

boundaryField
{
    interface
    {
        type            solidTraction;
        traction        nonuniform List<vector> 
192
(
(39.6586 -0.356345 -2.67546)
(41.3326 -0.358388 -4.34173)
(43.0001 -0.111036 -4.97229)
(44.1112 0.326027 -5.16466)
(44.5051 0.717191 -5.14048)
(45.4796 1.40482 -5.02486)
(43.9518 1.93185 -4.65509)
(47.5818 4.39881 -4.3711)
(38.6654 -0.26173 -1.31112)
(39.413 -0.285904 -2.2771)
(40.4271 -0.0718481 -2.57448)
(41.1741 0.37052 -2.61398)
(41.2908 0.781025 -2.53135)
(42.1356 1.53649 -2.40077)
(40.3149 2.11841 -2.162)
(44.0214 4.70383 -1.9743)
(41.195 -0.227558 -1.02674)
(41.8484 -0.250285 -1.75918)
(42.8456 -0.0437257 -1.97967)
(43.6056 0.417387 -2.00342)
(43.6483 0.862998 -1.93433)
(44.4172 1.69848 -1.82878)
(42.161 2.36251 -1.65792)
(45.6252 5.11604 -1.51665)
(41.4213 -0.175217 -0.621797)
(41.8929 -0.17549 -1.12722)
(42.6819 0.0330417 -1.27244)
(43.3185 0.496546 -1.27504)
(43.2363 0.956715 -1.21357)
(43.922 1.82545 -1.13051)
(41.5068 2.52554 -1.02326)
(44.8915 5.31703 -0.940553)
(42.196 -0.150035 -0.452343)
(42.6164 -0.128452 -0.820153)
(43.3116 0.0898697 -0.92707)
(43.8941 0.560289 -0.928773)
(43.7333 1.03635 -0.883561)
(44.3429 1.93355 -0.822029)
(41.7579 2.66646 -0.747751)
(44.9939 5.49738 -0.688979)
(42.408 -0.130453 -0.274014)
(42.7812 -0.0902175 -0.514547)
(43.3947 0.137022 -0.585266)
(43.9243 0.611696 -0.585029)
(43.7045 1.09644 -0.553782)
(44.2654 2.0076 -0.512413)
(41.5995 2.75734 -0.467167)
(44.7746 5.60717 -0.43326)
(42.664 -0.120979 -0.160133)
(43.0208 -0.0680008 -0.300463)
(43.5914 0.166788 -0.34215)
(44.0918 0.645439 -0.342274)
(43.8353 1.13684 -0.324375)
(44.3602 2.05765 -0.300091)
(41.6313 2.81921 -0.274753)
(44.751 5.68344 -0.254615)
(42.7286 -0.115183 -0.047131)
(43.0738 -0.0556194 -0.0918639)
(43.6205 0.182606 -0.105372)
(44.1045 0.662423 -0.105266)
(43.8316 1.15644 -0.0994519)
(44.3394 2.08066 -0.0915485)
(41.5912 2.84759 -0.0841143)
(44.6829 5.71767 -0.0778836)
(3.71925 0.896161 13.98)
(6.34867 1.10848 9.95872)
(7.46963 0.970286 5.95128)
(7.90964 0.732666 4.22277)
(8.07258 0.626131 3.73217)
(8.20403 0.663849 4.2823)
(8.37535 0.80564 6.07456)
(9.22864 1.01275 7.57046)
(2.18331 0.537036 17.7824)
(4.19819 0.856155 16.8942)
(4.98964 0.786406 15.5127)
(5.26803 0.517456 14.99)
(5.37312 0.328771 14.8151)
(5.5198 0.224163 15.0373)
(5.85664 0.24224 15.6137)
(6.97362 0.317588 15.9266)
(2.15595 0.396794 14.99)
(4.19277 0.706851 14.3214)
(5.02131 0.661601 13.0227)
(5.32017 0.367113 12.4868)
(5.42404 0.122018 12.3305)
(5.54428 -0.080264 12.5468)
(5.82985 -0.187309 13.1903)
(6.90787 -0.204239 13.9509)
(2.33783 0.328125 15.2405)
(4.73316 0.617599 14.8602)
(5.77956 0.571369 13.72)
(6.17604 0.252903 13.2982)
(6.31077 -0.0193094 13.2496)
(6.46559 -0.267612 13.4648)
(6.71696 -0.446759 13.9453)
(7.856 -0.612873 14.5628)
(-7.53888 0.740486 0.613919)
(-5.05075 0.996342 1.24339)
(-2.38645 0.770097 1.4559)
(-0.969345 0.263477 1.56418)
(-0.419146 -0.0194038 1.65081)
(1.06521 -0.414148 1.89723)
(0.623878 -0.38518 2.10811)
(9.08801 -2.55487 2.70667)
(-11.4548 0.303846 -0.313428)
(-10.9763 0.461388 -0.316605)
(-10.1411 0.360639 -0.400235)
(-9.53121 0.0686688 -0.415677)
(-9.30635 -0.0113572 -0.356812)
(-7.78586 -0.237628 -0.132603)
(-7.80093 0.0135541 0.155163)
(0.659542 -1.98377 0.597637)
(-11.7335 0.174627 -0.186095)
(-11.3926 0.254625 -0.101717)
(-10.7469 0.207897 -0.0678761)
(-10.1124 0.0285175 -0.0126646)
(-9.80449 0.0709365 0.0762727)
(-7.94443 -0.0573075 0.262421)
(-7.65394 0.306791 0.45933)
(1.31208 -1.76754 0.715485)
(-13.0321 0.0861687 -0.202217)
(-12.9046 0.110116 -0.126873)
(-12.5706 0.10111 -0.0718165)
(-12.0222 0.0160738 -0.0101296)
(-11.691 0.161425 0.0667328)
(-9.60485 0.122862 0.201127)
(-8.99854 0.559986 0.331521)
(0.205171 -1.51332 0.486827)
(-13.3198 0.0715025 -0.0844697)
(-13.1859 0.0763841 0.0192635)
(-12.8876 0.0865181 0.100659)
(-12.2935 0.0466959 0.167204)
(-11.8887 0.243508 0.229774)
(-9.6501 0.244203 0.315293)
(-8.91307 0.699951 0.38192)
(0.407654 -1.41464 0.453618)
(-13.7382 0.0669664 -0.0567391)
(-13.6089 0.0664504 0.0237001)
(-13.3359 0.0900343 0.0910545)
(-12.7165 0.0780032 0.141783)
(-12.2643 0.307179 0.185318)
(-9.92699 0.332249 0.238406)
(-9.09322 0.795164 0.275754)
(0.314488 -1.34111 0.314)
(-13.8594 0.0706656 -0.0174836)
(-13.7145 0.0708771 0.0377488)
(-13.43 0.10169 0.0828033)
(-12.7809 0.102112 0.114655)
(-12.2954 0.34593 0.140227)
(-9.9032 0.380434 0.168043)
(-9.02971 0.84342 0.185313)
(0.422665 -1.3116 0.200659)
(-13.9634 0.0716717 -0.00921115)
(-13.8158 0.07288 0.00817096)
(-13.5286 0.107642 0.0231677)
(-12.8674 0.114151 0.0336926)
(-12.3649 0.364889 0.0422683)
(-9.94644 0.404299 0.0513272)
(-9.04577 0.8674 0.0574212)
(0.426109 -1.2952 0.0624195)
(9.29801 -6.96525 -0.859775)
(8.48209 -5.16942 -0.650063)
(8.375 -2.73711 -0.445801)
(8.34641 -1.25705 -0.2939)
(8.3961 -0.106125 -0.208231)
(8.42747 0.697675 -0.129019)
(8.45848 1.20745 -0.0766326)
(8.47149 1.4519 -0.0233131)
(7.00828 -15.4427 -0.13233)
(5.8952 -14.9923 -0.0480807)
(5.56908 -14.0295 0.0498849)
(5.44246 -13.3519 0.0730809)
(5.41019 -12.7649 0.0706827)
(5.39013 -12.3406 0.0575487)
(5.3871 -12.0618 0.0355147)
(5.38433 -11.9162 0.0131029)
(6.94125 -13.497 0.407909)
(5.85119 -12.5961 0.404581)
(5.5672 -11.5729 0.382494)
(5.47101 -10.9041 0.31295)
(5.45423 -10.3077 0.247121)
(5.4432 -9.91496 0.173714)
(5.44435 -9.64329 0.103707)
(5.44275 -9.51904 0.0341799)
(7.85278 -14.1616 0.82039)
(6.6989 -13.4461 0.669977)
(6.44224 -12.6909 0.569217)
(6.31737 -12.1631 0.447539)
(6.29682 -11.6448 0.348614)
(6.27814 -11.3257 0.240838)
(6.27791 -11.0913 0.144514)
(6.27533 -10.9856 0.0470809)
)
;
        pressure        uniform 0;
        secondOrder     false;
        setEffectiveTraction false;
        relaxationFactor 1;
        value           nonuniform List<vector> 
192
(
(8.77779e-08 6.00592e-08 2.94464e-08)
(1.02926e-07 3.74763e-08 5.82324e-08)
(1.06905e-07 1.61816e-08 7.50808e-08)
(1.08125e-07 6.24159e-10 8.8542e-08)
(1.11075e-07 -1.26427e-08 1.01887e-07)
(1.18572e-07 -2.64989e-08 1.16998e-07)
(1.33319e-07 -4.89635e-08 1.35056e-07)
(1.55836e-07 -1.09127e-07 1.52933e-07)
(6.87608e-08 3.1829e-08 3.03001e-09)
(7.97057e-08 1.5835e-08 1.97747e-08)
(8.20185e-08 8.33328e-10 3.53765e-08)
(8.24675e-08 -1.17814e-08 4.84071e-08)
(8.49077e-08 -2.35555e-08 6.05754e-08)
(9.22544e-08 -3.54108e-08 7.3149e-08)
(1.07912e-07 -5.26205e-08 8.55061e-08)
(1.3398e-07 -1.02064e-07 9.27402e-08)
(5.63621e-08 2.06666e-08 1.03405e-09)
(6.46231e-08 4.41812e-09 1.23015e-08)
(6.62347e-08 -9.33021e-09 2.5826e-08)
(6.65404e-08 -2.03146e-08 3.83387e-08)
(6.89435e-08 -2.9971e-08 4.96804e-08)
(7.64886e-08 -3.86279e-08 5.99798e-08)
(9.28009e-08 -5.1113e-08 6.78845e-08)
(1.19821e-07 -9.4783e-08 7.0112e-08)
(4.98579e-08 1.65288e-08 2.02247e-09)
(5.66446e-08 -2.38868e-10 1.08878e-08)
(5.80994e-08 -1.43286e-08 2.18156e-08)
(5.8606e-08 -2.47976e-08 3.2576e-08)
(6.12429e-08 -3.29415e-08 4.22419e-08)
(6.9049e-08 -3.93258e-08 5.02028e-08)
(8.56047e-08 -4.93506e-08 5.52948e-08)
(1.12584e-07 -9.0467e-08 5.60715e-08)
(4.66302e-08 1.49269e-08 2.34348e-09)
(5.28642e-08 -1.873e-09 9.37448e-09)
(5.44098e-08 -1.62005e-08 1.76731e-08)
(5.51979e-08 -2.65344e-08 2.60073e-08)
(5.811e-08 -3.39332e-08 3.34612e-08)
(6.61078e-08 -3.92527e-08 3.92845e-08)
(8.26694e-08 -4.83529e-08 4.2701e-08)
(1.0934e-07 -8.82549e-08 4.32084e-08)
(4.4979e-08 1.42703e-08 1.99003e-09)
(5.10814e-08 -2.35009e-09 7.11086e-09)
(5.27775e-08 -1.66457e-08 1.29006e-08)
(5.3798e-08 -2.69029e-08 1.87026e-08)
(5.6917e-08 -3.40348e-08 2.387e-08)
(6.50215e-08 -3.90308e-08 2.78237e-08)
(8.15119e-08 -4.79023e-08 3.0099e-08)
(1.07886e-07 -8.71726e-08 3.05344e-08)
(4.41186e-08 1.39896e-08 1.28973e-09)
(5.02061e-08 -2.43687e-09 4.3924e-09)
(5.20182e-08 -1.66079e-08 7.80339e-09)
(5.31875e-08 -2.67979e-08 1.11954e-08)
(5.64297e-08 -3.38679e-08 1.42058e-08)
(6.45837e-08 -3.88374e-08 1.64974e-08)
(8.10053e-08 -4.77121e-08 1.78255e-08)
(1.07175e-07 -8.66603e-08 1.8133e-08)
(4.374e-08 1.3881e-08 4.43101e-10)
(4.98282e-08 -2.42993e-09 1.48079e-09)
(5.16972e-08 -1.65128e-08 2.60648e-09)
(5.29361e-08 -2.66624e-08 3.72016e-09)
(5.62335e-08 -3.37286e-08 4.70657e-09)
(6.4406e-08 -3.87294e-08 5.45735e-09)
(8.07896e-08 -4.76399e-08 5.89609e-09)
(1.06857e-07 -8.64538e-08 6.00705e-09)
(2.95899e-08 6.44217e-08 9.20258e-08)
(4.89935e-08 4.3973e-08 1.1847e-07)
(5.18955e-08 2.32809e-08 1.36824e-07)
(5.12433e-08 7.26159e-09 1.52202e-07)
(5.19291e-08 -6.92945e-09 1.67752e-07)
(5.65411e-08 -2.22041e-08 1.85544e-07)
(6.76424e-08 -4.67215e-08 2.06986e-07)
(8.3452e-08 -1.08924e-07 2.31507e-07)
(3.17647e-09 4.5878e-08 8.28025e-08)
(8.91413e-09 3.31773e-08 1.08507e-07)
(1.03701e-08 1.88768e-08 1.2563e-07)
(1.01711e-08 4.73633e-09 1.39916e-07)
(1.04136e-08 -1.02124e-08 1.54536e-07)
(1.22688e-08 -2.67901e-08 1.71653e-07)
(1.65083e-08 -4.98565e-08 1.93543e-07)
(2.1389e-08 -1.04847e-07 2.21806e-07)
(-3.23852e-09 4.54128e-08 8.1733e-08)
(-7.97595e-09 3.26322e-08 1.0746e-07)
(-8.13953e-09 1.82836e-08 1.24588e-07)
(-6.60013e-09 4.10217e-09 1.38875e-07)
(-5.4811e-09 -1.0886e-08 1.53486e-07)
(-5.96543e-09 -2.75035e-08 1.70584e-07)
(-8.87841e-09 -5.05853e-08 1.92444e-07)
(-1.26306e-08 -1.05312e-07 2.20692e-07)
(-2.86164e-08 6.26346e-08 8.90185e-08)
(-4.66629e-08 4.21759e-08 1.15535e-07)
(-4.82827e-08 2.14527e-08 1.33883e-07)
(-4.62946e-08 5.3383e-09 1.49252e-07)
(-4.56025e-08 -8.95636e-09 1.64777e-07)
(-4.88301e-08 -2.43283e-08 1.82519e-07)
(-5.85894e-08 -4.88768e-08 2.03888e-07)
(-7.3169e-08 -1.10383e-07 2.28418e-07)
(-8.21306e-08 5.76047e-08 2.90395e-08)
(-9.5861e-08 3.50163e-08 5.77784e-08)
(-9.84889e-08 1.36708e-08 7.47407e-08)
(-9.82899e-08 -1.99552e-09 8.82903e-08)
(-9.97775e-08 -1.53654e-08 1.01674e-07)
(-1.05807e-07 -2.92985e-08 1.16779e-07)
(-1.19134e-07 -5.17448e-08 1.3479e-07)
(-1.4029e-07 -1.1116e-07 1.52584e-07)
(-6.31691e-08 2.97415e-08 3.16868e-09)
(-7.28208e-08 1.3573e-08 2.00156e-08)
(-7.3848e-08 -1.60163e-09 3.57184e-08)
(-7.29109e-08 -1.43774e-08 4.8832e-08)
(-7.38852e-08 -2.62796e-08 6.1043e-08)
(-7.97275e-08 -3.82315e-08 7.36171e-08)
(-9.39027e-08 -5.54513e-08 8.59388e-08)
(-1.18552e-07 -1.04186e-07 9.31298e-08)
(-5.09776e-08 1.87355e-08 1.17367e-09)
(-5.79903e-08 2.29293e-09 1.25741e-08)
(-5.8353e-08 -1.16786e-08 2.61811e-08)
(-5.72957e-08 -2.28688e-08 3.87537e-08)
(-5.82318e-08 -3.26879e-08 5.01287e-08)
(-6.42418e-08 -4.1471e-08 6.04317e-08)
(-7.90143e-08 -5.39923e-08 6.8317e-08)
(-1.0455e-07 -9.69644e-08 7.05248e-08)
(-4.46513e-08 1.46868e-08 2.12285e-09)
(-5.02502e-08 -2.27934e-09 1.1107e-08)
(-5.04926e-08 -1.66106e-08 2.21069e-08)
(-4.96568e-08 -2.73116e-08 3.29143e-08)
(-5.08288e-08 -3.56455e-08 4.26067e-08)
(-5.70811e-08 -4.21805e-08 5.05743e-08)
(-7.20554e-08 -5.22592e-08 5.56582e-08)
(-9.74995e-08 -9.26817e-08 5.64253e-08)
(-4.15473e-08 1.31481e-08 2.41198e-09)
(-4.66469e-08 -3.8539e-09 9.53395e-09)
(-4.70145e-08 -1.84332e-08 1.78918e-08)
(-4.64799e-08 -2.9015e-08 2.62644e-08)
(-4.79326e-08 -3.66222e-08 3.37407e-08)
(-5.4367e-08 -4.21096e-08 3.95723e-08)
(-6.93227e-08 -5.12756e-08 4.29869e-08)
(-9.44247e-08 -9.04872e-08 4.349e-08)
(-3.99739e-08 1.25347e-08 2.03429e-09)
(-4.49795e-08 -4.2884e-09 7.2172e-09)
(-4.55248e-08 -1.88423e-08 1.30501e-08)
(-4.52397e-08 -2.93576e-08 1.88812e-08)
(-4.69059e-08 -3.671e-08 2.40663e-08)
(-5.34435e-08 -4.18851e-08 2.8028e-08)
(-6.8315e-08 -5.08304e-08 3.03044e-08)
(-9.3102e-08 -8.9413e-08 3.0738e-08)
(-3.91585e-08 1.22804e-08 1.3146e-09)
(-4.41725e-08 -4.34767e-09 4.45303e-09)
(-4.48519e-08 -1.87805e-08 7.88988e-09)
(-4.47277e-08 -2.92347e-08 1.13001e-08)
(-4.6523e-08 -3.65324e-08 1.4322e-08)
(-5.31098e-08 -4.1688e-08 1.66193e-08)
(-6.79062e-08 -5.06414e-08 1.7949e-08)
(-9.24783e-08 -8.89037e-08 1.8256e-08)
(-3.88005e-08 1.21842e-08 4.51125e-10)
(-4.38262e-08 -4.32728e-09 1.50047e-09)
(-4.45714e-08 -1.86733e-08 2.63474e-09)
(-4.45232e-08 -2.90899e-08 3.75458e-09)
(-4.6377e-08 -3.63873e-08 4.74498e-09)
(-5.29826e-08 -4.15775e-08 5.49787e-09)
(-6.77385e-08 -5.05691e-08 5.93727e-09)
(-9.22045e-08 -8.86979e-08 6.04815e-09)
(8.37422e-08 -1.88057e-07 1.57841e-07)
(6.85516e-08 -1.74385e-07 9.56188e-08)
(5.79717e-08 -1.638e-07 7.10597e-08)
(5.34779e-08 -1.56984e-07 5.59633e-08)
(5.21603e-08 -1.52943e-07 4.2808e-08)
(5.19271e-08 -1.50638e-07 3.02041e-08)
(5.19178e-08 -1.49392e-07 1.7952e-08)
(5.19194e-08 -1.48844e-07 5.95268e-09)
(2.16779e-08 -1.78919e-07 1.5321e-07)
(1.74021e-08 -1.6153e-07 9.82496e-08)
(1.37166e-08 -1.50524e-07 7.52422e-08)
(1.22114e-08 -1.44351e-07 5.88427e-08)
(1.19527e-08 -1.40991e-07 4.42615e-08)
(1.20621e-08 -1.39118e-07 3.08233e-08)
(1.21788e-08 -1.38088e-07 1.81874e-08)
(1.22327e-08 -1.37623e-07 6.01296e-09)
(-1.23263e-08 -1.78388e-07 1.53084e-07)
(-7.97787e-09 -1.61012e-07 9.83877e-08)
(-4.40871e-09 -1.50031e-07 7.53707e-08)
(-3.05965e-09 -1.43874e-07 5.89415e-08)
(-2.9444e-09 -1.40521e-07 4.4335e-08)
(-3.16902e-09 -1.38652e-07 3.08747e-08)
(-3.36566e-09 -1.37622e-07 1.8218e-08)
(-3.46027e-09 -1.37158e-07 6.02313e-09)
(-7.28614e-08 -1.86723e-07 1.57521e-07)
(-5.76922e-08 -1.73031e-07 9.59925e-08)
(-4.72335e-08 -1.62505e-07 7.14149e-08)
(-4.28945e-08 -1.55729e-07 5.62475e-08)
(-4.1724e-08 -1.51708e-07 4.30259e-08)
(-4.16095e-08 -1.49412e-07 3.03587e-08)
(-4.1682e-08 -1.4817e-07 1.80445e-08)
(-4.1725e-08 -1.47622e-07 5.98346e-09)
)
;
        gradient        nonuniform List<vector> 
192
(
(4.69928e-06 1.53774e-06 -2.00266e-07)
(4.40606e-06 4.32623e-07 -3.32318e-07)
(4.49894e-06 4.5457e-08 -3.5888e-07)
(4.64014e-06 5.67061e-09 -3.61106e-07)
(4.80987e-06 1.11628e-07 -3.61005e-07)
(5.02941e-06 3.17732e-07 -3.59352e-07)
(5.31854e-06 5.34622e-07 -3.52723e-07)
(5.8722e-06 3.64326e-07 -3.40466e-07)
(3.89036e-06 1.0731e-06 -3.01893e-07)
(3.69455e-06 3.01004e-07 -4.92787e-07)
(3.74694e-06 1.57573e-08 -5.31827e-07)
(3.85247e-06 -6.4382e-09 -5.39673e-07)
(4.00384e-06 1.02057e-07 -5.4594e-07)
(4.22724e-06 3.19116e-07 -5.49034e-07)
(4.56777e-06 5.60747e-07 -5.38757e-07)
(5.32239e-06 3.76837e-07 -5.12156e-07)
(3.39351e-06 7.43104e-07 -1.7989e-07)
(3.31288e-06 2.02706e-07 -3.02089e-07)
(3.37248e-06 -1.42336e-09 -3.23364e-07)
(3.47195e-06 -8.44105e-09 -3.21246e-07)
(3.62298e-06 1.02266e-07 -3.18051e-07)
(3.85879e-06 3.24914e-07 -3.13989e-07)
(4.232e-06 5.715e-07 -3.07939e-07)
(5.03952e-06 3.84375e-07 -3.05216e-07)
(3.09763e-06 5.91158e-07 -7.724e-08)
(3.05793e-06 1.57545e-07 -1.30765e-07)
(3.12676e-06 -3.39489e-09 -1.35686e-07)
(3.22843e-06 -1.12486e-09 -1.27506e-07)
(3.38277e-06 1.09314e-07 -1.19109e-07)
(3.62666e-06 3.29228e-07 -1.13272e-07)
(4.0149e-06 5.69522e-07 -1.13396e-07)
(4.83154e-06 3.87011e-07 -1.21345e-07)
(2.92389e-06 5.35123e-07 -2.88682e-08)
(2.89517e-06 1.44271e-07 -4.60684e-08)
(2.96917e-06 1.8398e-09 -4.32133e-08)
(3.0745e-06 8.13695e-09 -3.46055e-08)
(3.23267e-06 1.165e-07 -2.66709e-08)
(3.48135e-06 3.30627e-07 -2.25471e-08)
(3.87501e-06 5.63427e-07 -2.5501e-08)
(4.68633e-06 3.86639e-07 -3.43923e-08)
(2.82277e-06 5.16238e-07 -1.09209e-08)
(2.79711e-06 1.43207e-07 -1.48894e-08)
(2.87381e-06 8.07073e-09 -1.05886e-08)
(2.98216e-06 1.54185e-08 -4.20021e-09)
(3.14334e-06 1.21372e-07 1.17542e-09)
(3.39461e-06 3.30399e-07 3.34692e-09)
(3.78943e-06 5.57678e-07 3.2077e-10)
(4.5932e-06 3.8486e-07 -6.38201e-09)
(2.76663e-06 5.09323e-07 -4.46016e-09)
(2.74205e-06 1.44608e-07 -5.11691e-09)
(2.82016e-06 1.25309e-08 -2.16454e-09)
(2.93044e-06 1.99017e-08 1.4892e-09)
(3.09351e-06 1.24048e-07 4.36326e-09)
(3.34601e-06 3.29773e-07 5.30063e-09)
(3.74058e-06 5.53699e-07 3.32269e-09)
(4.53863e-06 3.82991e-07 -6.49537e-10)
(2.74148e-06 5.06667e-07 -1.2846e-09)
(2.7173e-06 1.45506e-07 -1.37289e-09)
(2.79603e-06 1.4678e-08 -3.87837e-10)
(2.90723e-06 2.19467e-08 7.7381e-10)
(3.07118e-06 1.25184e-07 1.65705e-09)
(3.32415e-06 3.29359e-07 1.90987e-09)
(3.71835e-06 5.51728e-07 1.24234e-09)
(4.51348e-06 3.81871e-07 -6.15534e-11)
(4.42393e-08 1.88673e-06 4.80608e-06)
(9.14733e-08 9.52356e-07 4.48667e-06)
(9.8169e-08 6.13403e-07 4.5806e-06)
(8.96266e-08 5.36665e-07 4.73168e-06)
(7.8195e-08 5.68689e-07 4.90815e-06)
(6.69788e-08 6.61312e-07 5.12435e-06)
(6.44068e-08 7.13988e-07 5.40172e-06)
(8.14684e-08 3.80565e-07 5.94546e-06)
(-5.8825e-08 1.75602e-06 4.29199e-06)
(-7.80105e-08 9.26926e-07 3.98871e-06)
(-8.38874e-08 5.97139e-07 4.01051e-06)
(-9.30126e-08 5.15619e-07 4.11292e-06)
(-1.04165e-07 5.46911e-07 4.26052e-06)
(-1.14574e-07 6.51656e-07 4.46425e-06)
(-1.14092e-07 7.379e-07 4.7745e-06)
(-9.14088e-08 3.96266e-07 5.52492e-06)
(4.86402e-08 1.74981e-06 4.21808e-06)
(6.64187e-08 9.27252e-07 3.91812e-06)
(7.48108e-08 5.98383e-07 3.93754e-06)
(8.58764e-08 5.16378e-07 4.03782e-06)
(9.78786e-08 5.47118e-07 4.18382e-06)
(1.08211e-07 6.5137e-07 4.38609e-06)
(1.06771e-07 7.37121e-07 4.69501e-06)
(8.23314e-08 3.95951e-07 5.44623e-06)
(-5.01956e-08 1.87099e-06 4.59482e-06)
(-9.77866e-08 9.53056e-07 4.28552e-06)
(-1.02395e-07 6.1658e-07 4.37178e-06)
(-9.2236e-08 5.38678e-07 4.51661e-06)
(-8.01047e-08 5.69239e-07 4.68863e-06)
(-6.90276e-08 6.60536e-07 4.90098e-06)
(-6.73728e-08 7.11993e-07 5.17532e-06)
(-8.59313e-08 3.79773e-07 5.72494e-06)
(-4.33134e-06 1.4686e-06 -2.03499e-07)
(-4.03364e-06 3.80289e-07 -3.35018e-07)
(-4.11889e-06 -5.96988e-09 -3.59599e-07)
(-4.25187e-06 -4.80278e-08 -3.60351e-07)
(-4.4141e-06 5.65131e-08 -3.59635e-07)
(-4.62718e-06 2.62915e-07 -3.58186e-07)
(-4.91093e-06 4.82546e-07 -3.5252e-07)
(-5.4556e-06 3.17578e-07 -3.4178e-07)
(-3.52805e-06 1.00404e-06 -3.01023e-07)
(-3.33498e-06 2.50271e-07 -4.90079e-07)
(-3.3813e-06 -3.40874e-08 -5.27429e-07)
(-3.47856e-06 -5.92143e-08 -5.34106e-07)
(-3.62113e-06 4.70701e-08 -5.39892e-07)
(-3.8356e-06 2.63662e-07 -5.43217e-07)
(-4.16788e-06 5.07398e-07 -5.33832e-07)
(-4.912e-06 3.2853e-07 -5.0859e-07)
(-3.04317e-06 6.77499e-07 -1.77546e-07)
(-2.96427e-06 1.53875e-07 -2.97297e-07)
(-3.01771e-06 -5.00034e-08 -3.17042e-07)
(-3.10873e-06 -6.04948e-08 -3.13952e-07)
(-3.25e-06 4.74005e-08 -3.10324e-07)
(-3.47482e-06 2.68974e-07 -3.06384e-07)
(-3.8367e-06 5.17172e-07 -3.00969e-07)
(-4.63084e-06 3.34906e-07 -2.99214e-07)
(-2.75681e-06 5.292e-07 -7.52079e-08)
(-2.71852e-06 1.10769e-07 -1.26345e-07)
(-2.78103e-06 -5.0747e-08 -1.29783e-07)
(-2.87404e-06 -5.24992e-08 -1.20686e-07)
(-3.01793e-06 5.46366e-08 -1.11844e-07)
(-3.24944e-06 2.73017e-07 -1.05995e-07)
(-3.62399e-06 5.1457e-07 -1.06487e-07)
(-4.42466e-06 3.36828e-07 -1.15029e-07)
(-2.58957e-06 4.75948e-07 -2.74706e-08)
(-2.56218e-06 9.92953e-08 -4.28129e-08)
(-2.62976e-06 -4.43475e-08 -3.8674e-08)
(-2.72622e-06 -4.25566e-08 -2.92245e-08)
(-2.87344e-06 6.20914e-08 -2.08371e-08)
(-3.10883e-06 2.74331e-07 -1.66006e-08)
(-3.48733e-06 5.08139e-07 -1.97178e-08)
(-4.28092e-06 3.36056e-07 -2.89279e-08)
(-2.49249e-06 4.58918e-07 -1.00557e-08)
(-2.46812e-06 9.95627e-08 -1.2785e-08)
(-2.53831e-06 -3.71606e-08 -7.53906e-09)
(-2.63758e-06 -3.4663e-08 -4.78978e-10)
(-2.78745e-06 6.72605e-08 5.29394e-09)
(-3.02485e-06 2.74137e-07 7.61684e-09)
(-3.40365e-06 5.02244e-07 4.54894e-09)
(-4.18859e-06 3.34084e-07 -2.30163e-09)
(-2.43868e-06 4.53108e-07 -3.99354e-09)
(-2.41537e-06 1.0181e-07 -3.95693e-09)
(-2.48691e-06 -3.20428e-08 -4.40987e-10)
(-2.58796e-06 -2.97241e-08 3.63928e-09)
(-2.7395e-06 7.01873e-08 6.78389e-09)
(-2.97779e-06 2.73586e-07 7.84439e-09)
(-3.35583e-06 4.98222e-07 5.87342e-09)