/*--------------------------------*- C++ -*----------------------------------*\
| =========                 |                                                 |
| \\      /  F ield         | OpenFOAM: The Open Source CFD Toolbox           |
|  \\    /   O peration     | Version:  v1912                                 |
|   \\  /    A nd           | Website:  www.openfoam.com                      |
|    \\/     M anipulation  |                                                 |
\*---------------------------------------------------------------------------*/
FoamFile
{
    version     2.0;
    format      ascii;
    class       volVectorField;
    location    "0.81/solid";
    object      D_0;
}
// * * * * * * * * * * * * * * * * * * * * * * * * * * * * * * * * * * * * * //

dimensions      [0 1 0 0 0 0 0];


internalField   nonuniform List<vector> 
256
(
(2.88311e-08 4.06188e-08 3.16923e-08)
(3.86287e-09 2.3786e-08 2.89045e-08)
(-3.78194e-09 2.34044e-08 2.87666e-08)
(-2.77868e-08 3.90491e-08 3.1349e-08)
(4.74629e-08 3.18744e-08 6.17765e-08)
(9.78889e-09 2.1467e-08 5.80537e-08)
(-8.67006e-09 2.09201e-08 5.79048e-08)
(-4.50451e-08 3.00724e-08 6.14043e-08)
(5.02396e-08 1.55852e-08 7.87034e-08)
(1.13108e-08 1.14164e-08 7.46576e-08)
(-8.90801e-09 1.08036e-08 7.4549e-08)
(-4.65433e-08 1.37011e-08 7.84347e-08)
(4.97027e-08 7.1916e-10 9.19805e-08)
(1.12403e-08 -1.52988e-09 8.74608e-08)
(-7.49073e-09 -2.18381e-09 8.73823e-08)
(-4.46604e-08 -1.26349e-09 9.17922e-08)
(5.05361e-08 -1.36599e-08 1.05118e-07)
(1.16379e-08 -1.66559e-08 1.0004e-07)
(-6.49849e-09 -1.73483e-08 9.99758e-08)
(-4.40864e-08 -1.57448e-08 1.0497e-07)
(5.52538e-08 -2.98331e-08 1.19988e-07)
(1.3626e-08 -3.42788e-08 1.14399e-07)
(-7.06698e-09 -3.50108e-08 1.14336e-07)
(-4.73709e-08 -3.20158e-08 1.19844e-07)
(6.62968e-08 -5.46341e-08 1.3773e-07)
(1.78448e-08 -5.8065e-08 1.32176e-07)
(-9.88926e-09 -5.8813e-08 1.32103e-07)
(-5.70044e-08 -5.68523e-08 1.3756e-07)
(8.18011e-08 -1.12175e-07 1.55281e-07)
(2.24306e-08 -1.08331e-07 1.50867e-07)
(-1.32541e-08 -1.08831e-07 1.50771e-07)
(-7.11943e-08 -1.13743e-07 1.55053e-07)
(1.9994e-08 1.83349e-08 6.69037e-09)
(2.0165e-09 4.52015e-09 8.11111e-09)
(-1.88855e-09 4.27294e-09 8.15961e-09)
(-1.89413e-08 1.71226e-08 6.82834e-09)
(3.32573e-08 1.20699e-08 2.55821e-08)
(6.20561e-09 3.36804e-09 2.83553e-08)
(-5.02984e-09 2.8848e-09 2.84368e-08)
(-3.08766e-08 1.04395e-08 2.58168e-08)
(3.48877e-08 7.8694e-10 4.14509e-08)
(7.29446e-09 -2.80807e-09 4.46642e-08)
(-4.86446e-09 -3.40331e-09 4.47784e-08)
(-3.12834e-08 -1.04433e-09 4.17778e-08)
(3.40293e-08 -1.13742e-08 5.4381e-08)
(7.16573e-09 -1.34337e-08 5.76163e-08)
(-3.42144e-09 -1.40855e-08 5.77585e-08)
(-2.91189e-08 -1.33462e-08 5.47856e-08)
(3.45835e-08 -2.43099e-08 6.64383e-08)
(7.52511e-09 -2.72437e-08 6.95399e-08)
(-2.41347e-09 -2.79379e-08 6.96988e-08)
(-2.82847e-08 -2.63984e-08 6.68877e-08)
(3.91016e-08 -3.86512e-08 7.88631e-08)
(9.48078e-09 -4.31478e-08 8.17996e-08)
(-2.95877e-09 -4.38836e-08 8.19632e-08)
(-3.13681e-08 -4.08467e-08 7.93232e-08)
(5.03982e-08 -5.8571e-08 9.09219e-08)
(1.37544e-08 -6.19656e-08 9.379e-08)
(-5.83073e-09 -6.27241e-08 9.39486e-08)
(-4.12349e-08 -6.0821e-08 9.13644e-08)
(6.69154e-08 -1.053e-07 9.77272e-08)
(1.84505e-08 -1.00334e-07 1.00639e-07)
(-9.28382e-09 -1.0086e-07 1.0079e-07)
(-5.64039e-08 -1.06932e-07 9.81467e-08)
(1.38667e-08 1.13517e-08 3.2261e-09)
(3.91992e-10 -1.57146e-10 5.15254e-09)
(-2.9528e-10 -3.68572e-10 5.19341e-09)
(-1.28753e-08 1.02528e-08 3.34308e-09)
(2.30575e-08 1.97847e-09 1.58574e-08)
(2.91779e-09 -5.19109e-09 1.95026e-08)
(-1.82988e-09 -5.63487e-09 1.95823e-08)
(-2.08028e-08 4.62411e-10 1.60886e-08)
(2.3909e-08 -9.05628e-09 2.94657e-08)
(3.58218e-09 -1.21117e-08 3.36536e-08)
(-1.28131e-09 -1.26816e-08 3.37581e-08)
(-2.04758e-08 -1.08145e-08 2.977e-08)
(2.29839e-08 -1.97859e-08 4.17743e-08)
(3.41553e-09 -2.17431e-08 4.60633e-08)
(1.70029e-10 -2.23828e-08 4.61873e-08)
(-1.82762e-08 -2.1722e-08 4.21346e-08)
(2.35041e-08 -3.06548e-08 5.29096e-08)
(3.76267e-09 -3.36276e-08 5.71637e-08)
(1.17078e-09 -3.43185e-08 5.73005e-08)
(-1.74244e-08 -3.2734e-08 5.33048e-08)
(2.80619e-08 -4.19083e-08 6.3009e-08)
(5.71076e-09 -4.64942e-08 6.71869e-08)
(6.2385e-10 -4.72335e-08 6.73287e-08)
(-2.05475e-08 -4.41158e-08 6.34158e-08)
(3.95963e-08 -5.72253e-08 7.07274e-08)
(1.00292e-08 -6.06968e-08 7.48167e-08)
(-2.29224e-09 -6.14656e-08 7.49578e-08)
(-3.0637e-08 -5.95063e-08 7.11278e-08)
(5.63909e-08 -9.82031e-08 7.2887e-08)
(1.47872e-08 -9.32237e-08 7.69218e-08)
(-5.79685e-09 -9.37646e-08 7.70626e-08)
(-4.60582e-08 -9.98738e-08 7.32811e-08)
(1.10917e-08 9.13514e-09 2.94501e-09)
(-2.98658e-10 -1.0239e-09 4.18996e-09)
(3.65523e-10 -1.22664e-09 4.21644e-09)
(-1.01614e-08 8.08124e-09 3.02482e-09)
(1.83228e-08 -2.07486e-09 1.23558e-08)
(1.39696e-09 -8.32083e-09 1.47273e-08)
(-4.03894e-10 -8.74606e-09 1.47862e-08)
(-1.61986e-08 -3.52852e-09 1.25329e-08)
(1.89072e-08 -1.39835e-08 2.32005e-08)
(1.86122e-09 -1.67155e-08 2.59173e-08)
(2.97162e-10 -1.72671e-08 2.59965e-08)
(-1.5648e-08 -1.56865e-08 2.34383e-08)
(1.81526e-08 -2.43189e-08 3.37118e-08)
(1.73417e-09 -2.62456e-08 3.64665e-08)
(1.67838e-09 -2.68728e-08 3.65599e-08)
(-1.36473e-08 -2.62187e-08 3.39916e-08)
(1.88607e-08 -3.36907e-08 4.31367e-08)
(2.14058e-09 -3.6723e-08 4.58397e-08)
(2.6017e-09 -3.74082e-08 4.59424e-08)
(-1.29989e-08 -3.57543e-08 4.34433e-08)
(2.3574e-08 -4.26675e-08 5.09123e-08)
(4.12163e-09 -4.73348e-08 5.35482e-08)
(2.01304e-09 -4.80746e-08 5.36556e-08)
(-1.62805e-08 -4.4878e-08 5.12307e-08)
(3.5161e-08 -5.5482e-08 5.59359e-08)
(8.42957e-09 -5.91233e-08 5.85183e-08)
(-8.94329e-10 -5.9897e-08 5.86269e-08)
(-2.64143e-08 -5.7779e-08 5.62547e-08)
(5.17995e-08 -9.39957e-08 5.68048e-08)
(1.31596e-08 -8.95158e-08 5.94253e-08)
(-4.36752e-09 -9.00636e-08 5.9535e-08)
(-4.1664e-08 -9.56853e-08 5.71222e-08)
(1.0047e-08 8.24193e-09 2.66788e-09)
(-4.65975e-10 -1.23919e-09 3.29469e-09)
(5.12917e-10 -1.43737e-09 3.31231e-09)
(-9.1604e-09 7.21771e-09 2.72233e-09)
(1.65969e-08 -3.53129e-09 9.81907e-09)
(9.69502e-10 -9.33217e-09 1.10043e-08)
(-4.75201e-11 -9.7469e-09 1.10462e-08)
(-1.45738e-08 -4.94481e-09 9.94703e-09)
(1.72071e-08 -1.59084e-08 1.79726e-08)
(1.39928e-09 -1.85092e-08 1.93091e-08)
(6.45337e-10 -1.90488e-08 1.93669e-08)
(-1.40884e-08 -1.75727e-08 1.81489e-08)
(1.66838e-08 -2.61638e-08 2.60872e-08)
(1.34309e-09 -2.81127e-08 2.7407e-08)
(1.92663e-09 -2.87302e-08 2.74755e-08)
(-1.23453e-08 -2.80343e-08 2.62962e-08)
(1.76144e-08 -3.47763e-08 3.33397e-08)
(1.82368e-09 -3.78665e-08 3.45984e-08)
(2.7582e-09 -3.85461e-08 3.46741e-08)
(-1.19347e-08 -3.68238e-08 3.35698e-08)
(2.2456e-08 -4.26327e-08 3.90313e-08)
(3.83613e-09 -4.7355e-08 4.0239e-08)
(2.12906e-09 -4.80932e-08 4.03187e-08)
(-1.53501e-08 -4.48397e-08 3.92724e-08)
(3.3981e-08 -5.44458e-08 4.24404e-08)
(8.1039e-09 -5.82226e-08 4.36339e-08)
(-7.41622e-10 -5.89976e-08 4.37153e-08)
(-2.5419e-08 -5.67482e-08 4.26845e-08)
(5.03789e-08 -9.18306e-08 4.30594e-08)
(1.27803e-08 -8.78006e-08 4.43246e-08)
(-4.16099e-09 -8.83511e-08 4.44069e-08)
(-4.04204e-08 -9.35285e-08 4.33036e-08)
(9.66302e-09 7.82418e-09 2.09827e-09)
(-4.67672e-10 -1.33209e-09 2.38141e-09)
(5.01991e-10 -1.52684e-09 2.39298e-09)
(-8.8045e-09 6.82086e-09 2.13398e-09)
(1.60444e-08 -3.99429e-09 7.20068e-09)
(9.28665e-10 -9.60861e-09 7.72072e-09)
(-5.46527e-11 -1.00162e-08 7.74898e-09)
(-1.40895e-08 -5.37962e-09 7.28678e-09)
(1.67691e-08 -1.64338e-08 1.28604e-08)
(1.38596e-09 -1.90053e-08 1.34259e-08)
(5.78086e-10 -1.95368e-08 1.34655e-08)
(-1.37492e-08 -1.80709e-08 1.29812e-08)
(1.64368e-08 -2.66303e-08 1.8505e-08)
(1.39239e-09 -2.86192e-08 1.90369e-08)
(1.77256e-09 -2.92298e-08 1.90843e-08)
(-1.22194e-08 -2.84791e-08 1.86498e-08)
(1.75328e-08 -3.49526e-08 2.35352e-08)
(1.92791e-09 -3.80868e-08 2.40183e-08)
(2.53358e-09 -3.87618e-08 2.40709e-08)
(-1.19881e-08 -3.69862e-08 2.36959e-08)
(2.24465e-08 -4.24291e-08 2.74087e-08)
(3.95683e-09 -4.71785e-08 2.78618e-08)
(1.8792e-09 -4.79145e-08 2.79175e-08)
(-1.5482e-08 -4.46303e-08 2.75783e-08)
(3.38864e-08 -5.39509e-08 2.96942e-08)
(8.18422e-09 -5.77958e-08 3.01537e-08)
(-9.5531e-10 -5.85704e-08 3.0211e-08)
(-2.54662e-08 -5.62533e-08 2.98674e-08)
(5.00848e-08 -9.07599e-08 3.02151e-08)
(1.28135e-08 -8.69948e-08 3.0735e-08)
(-4.32899e-09 -8.75459e-08 3.07929e-08)
(-4.02652e-08 -9.24604e-08 3.03888e-08)
(9.50508e-09 7.63049e-09 1.32762e-09)
(-4.46431e-10 -1.37059e-09 1.44631e-09)
(4.73342e-10 -1.56304e-09 1.45295e-09)
(-8.66292e-09 6.64028e-09 1.34794e-09)
(1.58576e-08 -4.10092e-09 4.39744e-09)
(9.59148e-10 -9.6425e-09 4.6065e-09)
(-1.14299e-10 -1.00453e-08 4.62287e-09)
(-1.39436e-08 -5.4679e-09 4.447e-09)
(1.66787e-08 -1.64579e-08 7.72652e-09)
(1.44705e-09 -1.90342e-08 7.94255e-09)
(4.66459e-10 -1.95605e-08 7.96572e-09)
(-1.372e-08 -1.80771e-08 7.79683e-09)
(1.64684e-08 -2.6591e-08 1.10277e-08)
(1.49391e-09 -2.86134e-08 1.12176e-08)
(1.60349e-09 -2.92194e-08 1.12455e-08)
(-1.2328e-08 -2.84251e-08 1.11127e-08)
(1.76616e-08 -3.48322e-08 1.39617e-08)
(2.06074e-09 -3.79935e-08 1.41227e-08)
(2.32151e-09 -3.86653e-08 1.41538e-08)
(-1.22044e-08 -3.68559e-08 1.40567e-08)
(2.26083e-08 -4.22437e-08 1.62114e-08)
(4.09561e-09 -4.70022e-08 1.63586e-08)
(1.65416e-09 -4.77363e-08 1.63917e-08)
(-1.57368e-08 -4.44397e-08 1.63123e-08)
(3.39831e-08 -5.37288e-08 1.75489e-08)
(8.29482e-09 -5.75966e-08 1.7706e-08)
(-1.15593e-09 -5.83704e-08 1.77402e-08)
(-2.56577e-08 -5.60296e-08 1.76524e-08)
(5.00497e-08 -9.0245e-08 1.79073e-08)
(1.28919e-08 -8.66037e-08 1.81008e-08)
(-4.49923e-09 -8.71547e-08 1.81353e-08)
(-4.03242e-08 -9.19454e-08 1.80113e-08)
(9.44103e-09 7.55514e-09 4.53056e-10)
(-4.349e-10 -1.38146e-09 4.85856e-10)
(4.58398e-10 -1.57278e-09 4.88025e-10)
(-8.60641e-09 6.57118e-09 4.59659e-10)
(1.57887e-08 -4.10706e-09 1.47812e-09)
(9.78453e-10 -9.62327e-09 1.53417e-09)
(-1.4731e-10 -1.00237e-08 1.53954e-09)
(-1.38938e-08 -5.46501e-09 1.4943e-09)
(1.6658e-08 -1.63937e-08 2.57663e-09)
(1.48228e-09 -1.89774e-08 2.63235e-09)
(4.07045e-10 -1.95011e-08 2.63997e-09)
(-1.37284e-08 -1.8004e-08 2.5997e-09)
(1.65046e-08 -2.6487e-08 3.66094e-09)
(1.5478e-09 -2.8527e-08 3.70734e-09)
(1.51673e-09 -2.91308e-08 3.71656e-09)
(-1.24013e-08 -2.83138e-08 3.68898e-09)
(1.77408e-08 -3.47146e-08 4.62312e-09)
(2.12806e-09 -3.78881e-08 4.66019e-09)
(2.21511e-09 -3.85582e-08 4.6705e-09)
(-1.23264e-08 -3.6733e-08 4.65455e-09)
(2.26995e-08 -4.21388e-08 5.36096e-09)
(4.16439e-09 -4.68989e-08 5.39424e-09)
(1.54238e-09 -4.7632e-08 5.40524e-09)
(-1.5874e-08 -4.43317e-08 5.39447e-09)
(3.40413e-08 -5.36407e-08 5.80311e-09)
(8.34977e-09 -5.75131e-08 5.84063e-09)
(-1.25607e-09 -5.82863e-08 5.85199e-09)
(-2.57631e-08 -5.59402e-08 5.83758e-09)
(5.00434e-08 -9.00345e-08 5.93081e-09)
(1.29308e-08 -8.64384e-08 5.9802e-09)
(-4.5845e-09 -8.69892e-08 5.99166e-09)
(-4.03652e-08 -9.17344e-08 5.96544e-09)
)
;

boundaryField
{
    interface
    {
        type            solidTraction;
        traction        uniform (0 0 0);
        pressure        uniform 0;
        secondOrder     false;
        setEffectiveTraction false;
        relaxationFactor 1;
        value           nonuniform List<vector> 
192
(
(8.75273e-08 5.96923e-08 2.92103e-08)
(1.02491e-07 3.72264e-08 5.76602e-08)
(1.06426e-07 1.61451e-08 7.42586e-08)
(1.0765e-07 7.93345e-10 8.75074e-08)
(1.10603e-07 -1.2272e-08 1.00645e-07)
(1.18069e-07 -2.58927e-08 1.15533e-07)
(1.32726e-07 -4.79969e-08 1.33355e-07)
(1.55146e-07 -1.07646e-07 1.51052e-07)
(6.86014e-08 3.16477e-08 2.94904e-09)
(7.94101e-08 1.57933e-08 1.94804e-08)
(8.16937e-08 9.7993e-10 3.48679e-08)
(8.21533e-08 -1.14501e-08 4.77009e-08)
(8.46003e-08 -2.30417e-08 5.96799e-08)
(9.1914e-08 -3.46973e-08 7.20648e-08)
(1.07463e-07 -5.16172e-08 8.42464e-08)
(1.33392e-07 -1.0062e-07 9.13744e-08)
(5.62776e-08 2.05828e-08 1.00035e-09)
(6.44509e-08 4.489e-09 1.21235e-08)
(6.60449e-08 -9.0747e-09 2.54702e-08)
(6.63621e-08 -1.9887e-08 3.78048e-08)
(6.87698e-08 -2.93851e-08 4.89786e-08)
(7.62761e-08 -3.7885e-08 5.91268e-08)
(9.24672e-08 -5.01427e-08 6.69179e-08)
(1.1933e-07 -9.34328e-08 6.91077e-08)
(4.98103e-08 1.64887e-08 1.98998e-09)
(5.65329e-08 -1.21007e-10 1.07405e-08)
(5.79742e-08 -1.40261e-08 2.15248e-08)
(5.84885e-08 -2.43305e-08 3.21366e-08)
(6.11242e-08 -3.23351e-08 4.16641e-08)
(6.88849e-08 -3.85922e-08 4.95107e-08)
(8.53138e-08 -4.84252e-08 5.4532e-08)
(1.12134e-07 -8.91941e-08 5.53016e-08)
(4.65974e-08 1.49029e-08 2.31064e-09)
(5.27753e-08 -1.74128e-09 9.24933e-09)
(5.43065e-08 -1.58867e-08 1.74379e-08)
(5.50973e-08 -2.60619e-08 2.56581e-08)
(5.80024e-08 -3.33331e-08 3.30075e-08)
(6.59499e-08 -3.85407e-08 3.87493e-08)
(8.23831e-08 -4.74646e-08 4.21216e-08)
(1.08896e-07 -8.70342e-08 4.26306e-08)
(4.49512e-08 1.4251e-08 1.96276e-09)
(5.0999e-08 -2.21779e-09 7.01576e-09)
(5.26781e-08 -1.63357e-08 1.27282e-08)
(5.3697e-08 -2.64393e-08 1.8451e-08)
(5.68046e-08 -3.345e-08 2.3547e-08)
(6.48555e-08 -3.83403e-08 2.74467e-08)
(8.12174e-08 -4.70408e-08 2.96947e-08)
(1.07437e-07 -8.59858e-08 3.01327e-08)
(4.40922e-08 1.39711e-08 1.2721e-09)
(5.01248e-08 -2.30753e-09 4.33346e-09)
(5.19178e-08 -1.63051e-08 7.6987e-09)
(5.30826e-08 -2.63451e-08 1.10446e-08)
(5.63105e-08 -3.32971e-08 1.40136e-08)
(6.44093e-08 -3.8163e-08 1.62746e-08)
(8.07026e-08 -4.68679e-08 1.75875e-08)
(1.06719e-07 -8.54942e-08 1.78969e-08)
(4.37139e-08 1.38626e-08 4.37037e-10)
(4.9747e-08 -2.30283e-09 1.46088e-09)
(5.15957e-08 -1.62147e-08 2.57145e-09)
(5.28286e-08 -2.62162e-08 3.66997e-09)
(5.61104e-08 -3.31657e-08 4.6429e-09)
(6.4227e-08 -3.80634e-08 5.38376e-09)
(8.04824e-08 -4.68043e-08 5.81763e-09)
(1.06398e-07 -8.52976e-08 5.92922e-09)
(2.93758e-08 6.39862e-08 9.17494e-08)
(4.85914e-08 4.36273e-08 1.17842e-07)
(5.14517e-08 2.31363e-08 1.3594e-07)
(5.08106e-08 7.32301e-09 1.51101e-07)
(5.15044e-08 -6.65796e-09 1.66443e-07)
(5.6085e-08 -2.168e-08 1.8402e-07)
(6.70973e-08 -4.58108e-08 2.05234e-07)
(8.28134e-08 -1.07471e-07 2.29581e-07)
(3.1318e-09 4.55256e-08 8.25472e-08)
(8.82164e-09 3.29054e-08 1.0791e-07)
(1.0273e-08 1.87683e-08 1.24789e-07)
(1.00916e-08 4.81581e-09 1.38873e-07)
(1.03531e-08 -9.92142e-09 1.533e-07)
(1.2214e-08 -2.62448e-08 1.70213e-07)
(1.64389e-08 -4.89478e-08 1.91871e-07)
(2.13045e-08 -1.03433e-07 2.19927e-07)
(-3.17044e-09 4.50723e-08 8.14953e-08)
(-7.83174e-09 3.23658e-08 1.06887e-07)
(-7.96289e-09 1.81731e-08 1.23777e-07)
(-6.40702e-09 4.17295e-09 1.37864e-07)
(-5.2652e-09 -1.06098e-08 1.52286e-07)
(-5.70462e-09 -2.6979e-08 1.69183e-07)
(-8.54224e-09 -4.97042e-08 1.90814e-07)
(-1.22066e-08 -1.03937e-07 2.18858e-07)
(-2.83997e-08 6.22375e-08 8.87946e-08)
(-4.62388e-08 4.18439e-08 1.14982e-07)
(-4.77899e-08 2.12982e-08 1.33088e-07)
(-4.57792e-08 5.37028e-09 1.48252e-07)
(-4.50538e-08 -8.73173e-09 1.63579e-07)
(-4.82004e-08 -2.38682e-08 1.81114e-07)
(-5.78119e-08 -4.80502e-08 2.02264e-07)
(-7.22302e-08 -1.09047e-07 2.26629e-07)
(-8.19438e-08 5.72572e-08 2.88313e-08)
(-9.54776e-08 3.47617e-08 5.72655e-08)
(-9.80395e-08 1.3605e-08 7.39967e-08)
(-9.78165e-08 -1.87767e-09 8.73477e-08)
(-9.92707e-08 -1.50672e-08 1.00536e-07)
(-1.05223e-07 -2.87863e-08 1.15429e-07)
(-1.18407e-07 -5.08965e-08 1.33214e-07)
(-1.39405e-07 -1.09833e-07 1.50838e-07)
(-6.30759e-08 2.95771e-08 3.10041e-09)
(-7.25897e-08 1.35251e-08 1.97561e-08)
(-7.35745e-08 -1.48368e-09 3.52609e-08)
(-7.26259e-08 -1.40959e-08 4.81894e-08)
(-7.35757e-08 -2.58361e-08 6.02221e-08)
(-7.93447e-08 -3.76092e-08 7.26173e-08)
(-9.33632e-08 -5.4562e-08 8.47726e-08)
(-1.17819e-07 -1.02889e-07 9.18627e-08)
(-5.09609e-08 1.86723e-08 1.14806e-09)
(-5.78914e-08 2.36257e-09 1.24191e-08)
(-5.82305e-08 -1.14461e-08 2.58612e-08)
(-5.71684e-08 -2.24849e-08 3.82667e-08)
(-5.80834e-08 -3.21661e-08 4.94834e-08)
(-6.40192e-08 -4.08126e-08 5.96439e-08)
(-7.8627e-08 -5.31286e-08 6.74227e-08)
(-1.03956e-07 -9.57527e-08 6.95962e-08)
(-4.46731e-08 1.46712e-08 2.09606e-09)
(-5.02181e-08 -2.15684e-09 1.09756e-08)
(-5.04458e-08 -1.63243e-08 2.18414e-08)
(-4.96066e-08 -2.6881e-08 3.25089e-08)
(-5.07566e-08 -3.5096e-08 4.20709e-08)
(-5.69325e-08 -4.15241e-08 4.99314e-08)
(-7.17403e-08 -5.1433e-08 5.49502e-08)
(-9.69781e-08 -9.15401e-08 5.57128e-08)
(-4.15849e-08 1.31513e-08 2.3831e-09)
(-4.66416e-08 -3.71281e-09 9.41976e-09)
(-4.69972e-08 -1.81298e-08 1.76742e-08)
(-4.64581e-08 -2.85727e-08 2.59393e-08)
(-4.78865e-08 -3.60726e-08 3.33171e-08)
(-5.42433e-08 -4.14686e-08 3.90728e-08)
(-6.90343e-08 -5.04805e-08 4.24475e-08)
(-9.39354e-08 -8.9392e-08 4.2954e-08)
(-4.0017e-08 1.25444e-08 2.0096e-09)
(-4.49832e-08 -4.14343e-09 7.12923e-09)
(-4.55162e-08 -1.85384e-08 1.28892e-08)
(-4.52249e-08 -2.89193e-08 1.86455e-08)
(-4.68651e-08 -3.61706e-08 2.37633e-08)
(-5.33247e-08 -4.12607e-08 2.7675e-08)
(-6.8034e-08 -5.00574e-08 2.99271e-08)
(-9.26252e-08 -8.83474e-08 3.03648e-08)
(-3.92035e-08 1.22919e-08 1.29842e-09)
(-4.41788e-08 -4.20361e-09 4.39809e-09)
(-4.48452e-08 -1.8481e-08 7.79164e-09)
(-4.47135e-08 -2.8804e-08 1.11582e-08)
(-4.64818e-08 -3.60036e-08 1.41413e-08)
(-5.29906e-08 -4.10763e-08 1.64103e-08)
(-6.76267e-08 -4.98826e-08 1.77266e-08)
(-9.20066e-08 -8.7856e-08 1.80363e-08)
(-3.8846e-08 1.21962e-08 4.4553e-10)
(-4.38332e-08 -4.1845e-09 1.48185e-09)
(-4.4565e-08 -1.83771e-08 2.6018e-09)
(-4.45086e-08 -2.86643e-08 3.7073e-09)
(-4.6335e-08 -3.58647e-08 4.68505e-09)
(-5.28627e-08 -4.09725e-08 5.42879e-09)
(-6.74593e-08 -4.98173e-08 5.86393e-09)
(-9.17348e-08 -8.76588e-08 5.9757e-09)
(8.31063e-08 -1.86533e-07 1.55914e-07)
(6.80153e-08 -1.72891e-07 9.42341e-08)
(5.75326e-08 -1.62389e-07 7.00608e-08)
(5.30817e-08 -1.55642e-07 5.52116e-08)
(5.17709e-08 -1.5165e-07 4.22504e-08)
(5.1532e-08 -1.49379e-07 2.98187e-08)
(5.15161e-08 -1.48153e-07 1.77259e-08)
(5.15142e-08 -1.47614e-07 5.87817e-09)
(2.15958e-08 -1.77447e-07 1.51317e-07)
(1.73416e-08 -1.60122e-07 9.68617e-08)
(1.36785e-08 -1.49205e-07 7.42173e-08)
(1.21775e-08 -1.43091e-07 5.80696e-08)
(1.19113e-08 -1.39769e-07 4.36943e-08)
(1.20109e-08 -1.37923e-07 3.04358e-08)
(1.21202e-08 -1.36909e-07 1.79618e-08)
(1.21704e-08 -1.36453e-07 5.93888e-09)
(-1.19e-08 -1.76966e-07 1.51226e-07)
(-7.63339e-09 -1.59651e-07 9.70238e-08)
(-4.13341e-09 -1.48757e-07 7.43635e-08)
(-2.82425e-09 -1.42657e-07 5.81816e-08)
(-2.72811e-09 -1.39341e-07 4.37775e-08)
(-2.9617e-09 -1.37497e-07 3.04938e-08)
(-3.16291e-09 -1.36484e-07 1.79961e-08)
(-3.25962e-09 -1.36027e-07 5.95028e-09)
(-7.19201e-08 -1.8535e-07 1.55698e-07)
(-5.69065e-08 -1.71682e-07 9.46795e-08)
(-4.65904e-08 -1.61233e-07 7.04695e-08)
(-4.23302e-08 -1.5452e-07 5.55359e-08)
(-4.11932e-08 -1.50544e-07 4.24975e-08)
(-4.1092e-08 -1.48279e-07 2.9993e-08)
(-4.11701e-08 -1.47054e-07 1.78298e-08)
(-4.12156e-08 -1.46516e-07 5.91269e-09)
)
;
        gradient        uniform (0 0 0);
    }
    symmetry
    {
        type            solidSymmetry;
        patchType       symmetry;
        secondOrder     false;
        value           nonuniform List<vector> 
32
(
(9.44103e-09 7.55514e-09 0)
(1.57887e-08 -4.10706e-09 0)
(1.6658e-08 -1.63937e-08 0)
(1.65046e-08 -2.6487e-08 0)
(1.77408e-08 -3.47146e-08 0)
(2.26995e-08 -4.21388e-08 0)
(3.40413e-08 -5.36407e-08 0)
(5.00434e-08 -9.00345e-08 0)
(-4.349e-10 -1.38146e-09 0)
(9.78453e-10 -9.62327e-09 0)
(1.48228e-09 -1.89774e-08 0)
(1.5478e-09 -2.8527e-08 0)
(2.12806e-09 -3.78881e-08 0)
(4.16439e-09 -4.68989e-08 0)
(8.34977e-09 -5.75131e-08 0)
(1.29308e-08 -8.64384e-08 0)
(4.58398e-10 -1.57278e-09 0)
(-1.4731e-10 -1.00237e-08 0)
(4.07045e-10 -1.95011e-08 0)
(1.51673e-09 -2.91308e-08 0)
(2.21511e-09 -3.85582e-08 0)
(1.54238e-09 -4.7632e-08 0)
(-1.25607e-09 -5.82863e-08 0)
(-4.5845e-09 -8.69892e-08 0)
(-8.60641e-09 6.57118e-09 0)
(-1.38938e-08 -5.46501e-09 0)
(-1.37284e-08 -1.8004e-08 0)
(-1.24013e-08 -2.83138e-08 0)
(-1.23264e-08 -3.6733e-08 0)
(-1.5874e-08 -4.43317e-08 0)
(-2.57631e-08 -5.59402e-08 0)
(-4.03652e-08 -9.17344e-08 0)
)
;
    }
    bottom
    {
        type            fixedDisplacement;
        value           uniform (0 0 0);
    }
}


// ************************************************************************* //
