/*--------------------------------*- C++ -*----------------------------------*\
| =========                 |                                                 |
| \\      /  F ield         | OpenFOAM: The Open Source CFD Toolbox           |
|  \\    /   O peration     | Version:  v1912                                 |
|   \\  /    A nd           | Website:  www.openfoam.com                      |
|    \\/     M anipulation  |                                                 |
\*---------------------------------------------------------------------------*/
FoamFile
{
    version     2.0;
    format      ascii;
    class       volVectorField;
    location    "0.81/solid";
    object      DD;
}
// * * * * * * * * * * * * * * * * * * * * * * * * * * * * * * * * * * * * * //

dimensions      [0 1 0 0 0 0 0];


internalField   nonuniform List<vector> 
256
(
(2.05798e-10 2.18739e-10 2.57379e-10)
(4.89102e-11 1.41844e-10 2.48175e-10)
(-6.45789e-11 1.35803e-10 2.40434e-10)
(-2.02097e-10 1.98034e-10 2.3419e-10)
(3.87179e-10 1.9415e-10 6.09824e-10)
(1.00376e-10 1.23743e-10 5.94189e-10)
(-1.36114e-10 1.21482e-10 5.78306e-10)
(-3.95511e-10 1.90282e-10 5.61829e-10)
(4.28784e-10 2.81927e-11 8.63386e-10)
(1.07868e-10 -3.80442e-12 8.40835e-10)
(-1.66658e-10 2.143e-13 8.20208e-10)
(-4.59507e-10 4.4323e-11 8.00936e-10)
(4.20257e-10 -1.65884e-10 1.07532e-09)
(9.34575e-11 -1.79024e-10 1.04354e-09)
(-1.82853e-10 -1.68745e-10 1.01951e-09)
(-4.81193e-10 -1.31681e-10 1.00254e-09)
(4.15581e-10 -3.78168e-10 1.28126e-09)
(7.7785e-11 -3.92895e-10 1.23897e-09)
(-2.06085e-10 -3.76676e-10 1.21206e-09)
(-5.1483e-10 -3.27036e-10 1.19972e-09)
(4.50078e-10 -6.37373e-10 1.50202e-09)
(7.50092e-11 -6.57021e-10 1.45108e-09)
(-2.51085e-10 -6.34842e-10 1.42141e-09)
(-5.96358e-10 -5.69214e-10 1.41218e-09)
(5.40518e-10 -1.01224e-09 1.73441e-09)
(8.96229e-11 -1.01533e-09 1.68589e-09)
(-3.23787e-10 -9.8631e-10 1.65342e-09)
(-7.4292e-10 -9.2439e-10 1.63635e-09)
(6.3262e-10 -1.50551e-09 1.90814e-09)
(1.00984e-10 -1.46945e-09 1.87721e-09)
(-4.05606e-10 -1.43012e-09 1.84235e-09)
(-9.00539e-10 -1.38684e-09 1.80347e-09)
(1.37379e-10 8.02901e-11 1.13298e-10)
(3.14459e-11 1.48592e-11 1.24935e-10)
(-3.78839e-11 1.28336e-11 1.21487e-10)
(-1.27118e-10 6.84251e-11 1.03123e-10)
(2.66436e-10 2.58853e-12 3.52384e-10)
(6.7833e-11 -5.66059e-11 3.75548e-10)
(-8.15063e-11 -5.55602e-11 3.66084e-10)
(-2.56956e-10 5.13378e-12 3.24833e-10)
(2.94097e-10 -1.50579e-10 5.73422e-10)
(7.27484e-11 -1.76938e-10 5.98648e-10)
(-1.0016e-10 -1.70952e-10 5.84969e-10)
(-2.98359e-10 -1.31206e-10 5.33438e-10)
(2.82345e-10 -3.26757e-10 7.72046e-10)
(5.98468e-11 -3.37904e-10 7.94473e-10)
(-1.10594e-10 -3.2647e-10 7.77715e-10)
(-3.09984e-10 -2.91066e-10 7.22735e-10)
(2.76135e-10 -5.21305e-10 9.61315e-10)
(4.60742e-11 -5.36673e-10 9.78902e-10)
(-1.29689e-10 -5.19734e-10 9.59519e-10)
(-3.36295e-10 -4.69582e-10 9.04014e-10)
(3.12379e-10 -7.48542e-10 1.14884e-09)
(4.5816e-11 -7.71347e-10 1.16126e-09)
(-1.71933e-10 -7.48811e-10 1.13942e-09)
(-4.14348e-10 -6.80578e-10 1.08409e-09)
(4.16209e-10 -1.05884e-09 1.31863e-09)
(6.5609e-11 -1.06234e-09 1.32789e-09)
(-2.4514e-10 -1.03366e-09 1.30392e-09)
(-5.69358e-10 -9.72801e-10 1.24734e-09)
(5.3453e-10 -1.47431e-09 1.41493e-09)
(8.34773e-11 -1.42022e-09 1.42339e-09)
(-3.29556e-10 -1.38262e-09 1.39851e-09)
(-7.48494e-10 -1.36053e-09 1.3405e-09)
(7.64816e-11 2.60717e-11 5.65774e-11)
(1.4167e-11 -2.34612e-11 7.47303e-11)
(-1.63432e-11 -2.50215e-11 7.23931e-11)
(-6.26895e-11 1.39645e-11 4.99253e-11)
(1.54615e-10 -9.41737e-11 2.20184e-10)
(3.38557e-11 -1.39969e-10 2.5537e-10)
(-3.51325e-11 -1.38626e-10 2.48836e-10)
(-1.34079e-10 -9.29167e-11 2.01647e-10)
(1.69678e-10 -2.56139e-10 4.02413e-10)
(3.53487e-11 -2.77317e-10 4.42264e-10)
(-4.29224e-11 -2.71483e-10 4.32391e-10)
(-1.55792e-10 -2.39063e-10 3.74111e-10)
(1.57142e-10 -4.23233e-10 5.79933e-10)
(2.38963e-11 -4.34253e-10 6.18975e-10)
(-4.82998e-11 -4.23374e-10 6.06424e-10)
(-1.60373e-10 -3.90615e-10 5.43551e-10)
(1.52165e-10 -5.94533e-10 7.46457e-10)
(1.22344e-11 -6.12344e-10 7.82696e-10)
(-6.3924e-11 -5.96272e-10 7.67815e-10)
(-1.82443e-10 -5.46458e-10 7.02964e-10)
(1.9184e-10 -7.81044e-10 8.9562e-10)
(1.45824e-11 -8.07682e-10 9.28266e-10)
(-1.03981e-10 -7.86335e-10 9.113e-10)
(-2.5906e-10 -7.17374e-10 8.45715e-10)
(3.04607e-10 -1.03144e-09 1.00626e-09)
(3.86695e-11 -1.03769e-09 1.03484e-09)
(-1.77316e-10 -1.01065e-09 1.01632e-09)
(-4.18553e-10 -9.50643e-10 9.51337e-10)
(4.36257e-10 -1.38454e-09 1.04026e-09)
(6.13416e-11 -1.32738e-09 1.06524e-09)
(-2.627e-10 -1.29186e-09 1.04651e-09)
(-6.06774e-10 -1.27697e-09 9.83938e-10)
(4.58379e-11 4.18152e-12 4.29585e-11)
(5.58937e-12 -3.3647e-11 5.62372e-11)
(-5.72077e-12 -3.549e-11 5.44989e-11)
(-2.98909e-11 -9.48006e-12 3.81326e-11)
(9.76395e-11 -1.33325e-10 1.66566e-10)
(1.65354e-11 -1.69704e-10 1.91932e-10)
(-1.08513e-11 -1.69174e-10 1.87221e-10)
(-7.01422e-11 -1.35442e-10 1.53421e-10)
(1.07693e-10 -3.02658e-10 3.11229e-10)
(1.7053e-11 -3.20835e-10 3.39543e-10)
(-1.22834e-11 -3.16109e-10 3.32352e-10)
(-8.16295e-11 -2.89766e-10 2.90866e-10)
(9.80859e-11 -4.64641e-10 4.58044e-10)
(8.05336e-12 -4.76564e-10 4.85241e-10)
(-1.48568e-11 -4.66999e-10 4.75909e-10)
(-8.40022e-11 -4.36646e-10 4.31234e-10)
(9.7629e-11 -6.17289e-10 5.94066e-10)
(-6.12798e-13 -6.37629e-10 6.18755e-10)
(-2.86907e-11 -6.23043e-10 6.07501e-10)
(-1.05839e-10 -5.74155e-10 5.61374e-10)
(1.41685e-10 -7.73641e-10 7.06428e-10)
(4.38486e-12 -8.0352e-10 7.28305e-10)
(-6.71823e-11 -7.83825e-10 7.15375e-10)
(-1.82546e-10 -7.15212e-10 6.68514e-10)
(2.57492e-10 -9.87641e-10 7.76366e-10)
(3.04908e-11 -9.98345e-10 7.95477e-10)
(-1.38809e-10 -9.73086e-10 7.81408e-10)
(-3.41181e-10 -9.12311e-10 7.34605e-10)
(3.90603e-10 -1.30889e-09 7.83514e-10)
(5.47988e-11 -1.25897e-09 8.01241e-10)
(-2.22332e-10 -1.22525e-09 7.87155e-10)
(-5.27208e-10 -1.20673e-09 7.40985e-10)
(3.46255e-11 -4.08651e-12 3.64563e-11)
(3.10721e-12 -3.59664e-11 4.34349e-11)
(-2.16007e-12 -3.81068e-11 4.21821e-11)
(-1.73353e-11 -1.90056e-11 3.30328e-11)
(7.7714e-11 -1.45096e-10 1.31269e-10)
(1.18107e-11 -1.77061e-10 1.44126e-10)
(-2.032e-12 -1.7742e-10 1.40788e-10)
(-4.58406e-11 -1.50287e-10 1.22074e-10)
(8.81203e-11 -3.15094e-10 2.40661e-10)
(1.33315e-11 -3.326e-10 2.54275e-10)
(-7.71572e-13 -3.29087e-10 2.49172e-10)
(-5.40876e-11 -3.06206e-10 2.26359e-10)
(8.2796e-11 -4.72345e-10 3.52602e-10)
(7.05498e-12 -4.85837e-10 3.6466e-10)
(-2.13128e-12 -4.7765e-10 3.57966e-10)
(-5.68825e-11 -4.48788e-10 3.3352e-10)
(8.72898e-11 -6.1308e-10 4.54944e-10)
(1.32002e-12 -6.35686e-10 4.64757e-10)
(-1.50835e-11 -6.22575e-10 4.56596e-10)
(-7.98772e-11 -5.74586e-10 4.31362e-10)
(1.34843e-10 -7.52783e-10 5.35033e-10)
(8.47083e-12 -7.85059e-10 5.42792e-10)
(-5.22314e-11 -7.66893e-10 5.33358e-10)
(-1.56543e-10 -6.99057e-10 5.07449e-10)
(2.50715e-10 -9.49906e-10 5.79421e-10)
(3.53291e-11 -9.64344e-10 5.85746e-10)
(-1.21452e-10 -9.40599e-10 5.75475e-10)
(-3.11999e-10 -8.79168e-10 5.48947e-10)
(3.81627e-10 -1.25725e-09 5.78907e-10)
(5.99663e-11 -1.215e-09 5.85301e-10)
(-2.02372e-10 -1.18268e-09 5.75056e-10)
(-4.92821e-10 -1.15935e-09 5.47912e-10)
(3.13945e-11 -6.81768e-12 2.8271e-11)
(2.98915e-12 -3.62182e-11 3.1316e-11)
(-1.45324e-12 -3.85728e-11 3.04776e-11)
(-1.32894e-11 -2.25893e-11 2.60041e-11)
(7.31534e-11 -1.45892e-10 9.62946e-11)
(1.21345e-11 -1.76462e-10 1.01473e-10)
(7.46915e-14 -1.77499e-10 9.9252e-11)
(-3.85847e-11 -1.53315e-10 9.02352e-11)
(8.57556e-11 -3.12696e-10 1.72602e-10)
(1.52325e-11 -3.30759e-10 1.77415e-10)
(2.1807e-12 -3.28215e-10 1.74016e-10)
(-4.66708e-11 -3.06878e-10 1.63154e-10)
(8.42281e-11 -4.65346e-10 2.50113e-10)
(1.12227e-11 -4.80462e-10 2.53452e-10)
(1.29748e-12 -4.73393e-10 2.48968e-10)
(-5.05718e-11 -4.45282e-10 2.3741e-10)
(9.25309e-11 -5.99369e-10 3.20068e-10)
(7.73086e-12 -6.23738e-10 3.21711e-10)
(-1.11008e-11 -6.11808e-10 3.16206e-10)
(-7.45965e-11 -5.64526e-10 3.04232e-10)
(1.4234e-10 -7.31665e-10 3.73119e-10)
(1.63981e-11 -7.65511e-10 3.73434e-10)
(-4.71e-11 -7.48534e-10 3.67039e-10)
(-1.50838e-10 -6.81574e-10 3.54473e-10)
(2.57534e-10 -9.22418e-10 4.00802e-10)
(4.35973e-11 -9.39186e-10 4.0047e-10)
(-1.14207e-10 -9.16576e-10 3.93496e-10)
(-3.03124e-10 -8.55131e-10 3.80129e-10)
(3.86147e-10 -1.22349e-09 3.99093e-10)
(6.82853e-11 -1.18628e-09 3.99178e-10)
(-1.92928e-10 -1.15499e-09 3.92226e-10)
(-4.79355e-10 -1.12872e-09 3.78054e-10)
(3.06363e-11 -7.45213e-12 1.78658e-11)
(3.32766e-12 -3.59168e-11 1.90283e-11)
(-1.48455e-12 -3.84068e-11 1.85488e-11)
(-1.20702e-11 -2.37466e-11 1.65781e-11)
(7.2913e-11 -1.43556e-10 5.8925e-11)
(1.33206e-11 -1.73929e-10 6.0653e-11)
(2.51961e-13 -1.75401e-10 5.93844e-11)
(-3.67922e-11 -1.52389e-10 5.54858e-11)
(8.74794e-11 -3.06678e-10 1.03927e-10)
(1.7675e-11 -3.25518e-10 1.05124e-10)
(2.56014e-12 -3.23615e-10 1.0318e-10)
(-4.54218e-11 -3.02861e-10 9.85524e-11)
(8.85227e-11 -4.55731e-10 1.49164e-10)
(1.51766e-11 -4.72077e-10 1.49369e-10)
(1.8834e-12 -4.6576e-10 1.46795e-10)
(-5.02074e-11 -4.37993e-10 1.41906e-10)
(9.92082e-11 -5.86298e-10 1.89585e-10)
(1.31133e-11 -6.11828e-10 1.8877e-10)
(-1.0127e-11 -6.00695e-10 1.85597e-10)
(-7.48118e-11 -5.53904e-10 1.8049e-10)
(1.50309e-10 -7.15837e-10 2.19754e-10)
(2.27286e-11 -7.5059e-10 2.18213e-10)
(-4.52928e-11 -7.34406e-10 2.14515e-10)
(-1.5056e-10 -6.68171e-10 2.08995e-10)
(2.64943e-10 -9.04593e-10 2.35098e-10)
(5.0149e-11 -9.22579e-10 2.33293e-10)
(-1.10957e-10 -9.00717e-10 2.29253e-10)
(-3.00607e-10 -8.39586e-10 2.23135e-10)
(3.92002e-10 -1.20271e-09 2.33845e-10)
(7.48722e-11 -1.16819e-09 2.32354e-10)
(-1.88199e-10 -1.13758e-09 2.28327e-10)
(-4.73748e-10 -1.10999e-09 2.2166e-10)
(3.04858e-11 -7.48142e-12 6.10168e-12)
(3.54311e-12 -3.56338e-11 6.39644e-12)
(-1.56945e-12 -3.81896e-11 6.24061e-12)
(-1.17119e-11 -2.40253e-11 5.68447e-12)
(7.32214e-11 -1.41686e-10 1.98337e-11)
(1.40244e-11 -1.72123e-10 2.02174e-11)
(1.59783e-13 -1.73806e-10 1.9805e-11)
(-3.63918e-11 -1.51196e-10 1.87191e-11)
(8.88188e-11 -3.0258e-10 3.46984e-11)
(1.90212e-11 -3.21895e-10 3.48627e-11)
(2.51002e-12 -3.20306e-10 3.42302e-11)
(-4.53844e-11 -2.99739e-10 3.29547e-11)
(9.11104e-11 -4.49701e-10 4.95423e-11)
(1.72562e-11 -4.66685e-10 4.93631e-11)
(1.92452e-12 -4.60741e-10 4.85244e-11)
(-5.0608e-11 -4.33111e-10 4.71827e-11)
(1.02913e-10 -5.7881e-10 6.27352e-11)
(1.58744e-11 -6.04906e-10 6.22193e-11)
(-9.87671e-12 -5.94171e-10 6.11836e-11)
(-7.54458e-11 -5.47634e-10 5.97709e-11)
(1.546e-10 -7.07517e-10 7.25182e-11)
(2.59458e-11 -7.42678e-10 7.17732e-11)
(-4.46102e-11 -7.26889e-10 7.05641e-11)
(-1.50893e-10 -6.61057e-10 6.90039e-11)
(2.6896e-10 -8.95778e-10 7.74508e-11)
(5.34902e-11 -9.14268e-10 7.66348e-11)
(-1.0956e-10 -8.92776e-10 7.53123e-11)
(-2.99823e-10 -8.31901e-10 7.35367e-11)
(3.9527e-10 -1.19269e-09 7.70122e-11)
(7.82419e-11 -1.1593e-09 7.63045e-11)
(-1.86073e-10 -1.12901e-09 7.49863e-11)
(-4.71444e-10 -1.10098e-09 7.30235e-11)
)
;

boundaryField
{
    interface
    {
        type            calculated;
        value           nonuniform List<vector> 
192
(
(2.50612e-10 3.66984e-10 2.36109e-10)
(4.34833e-10 2.49896e-10 5.72187e-10)
(4.79612e-10 3.64613e-11 8.22252e-10)
(4.74887e-10 -1.69186e-10 1.03465e-09)
(4.71507e-10 -3.70713e-10 1.24183e-09)
(5.02788e-10 -6.06139e-10 1.46461e-09)
(5.9302e-10 -9.666e-10 1.70106e-09)
(6.90344e-10 -1.48082e-09 1.8806e-09)
(1.5942e-10 1.81244e-10 8.09698e-11)
(2.95641e-10 4.17676e-11 2.94244e-10)
(3.24884e-10 -1.46602e-10 5.08646e-10)
(3.14149e-10 -3.31249e-10 7.06268e-10)
(3.07399e-10 -5.13797e-10 8.95462e-10)
(3.40462e-10 -7.13524e-10 1.08428e-09)
(4.48915e-10 -1.0033e-09 1.25966e-09)
(5.87921e-10 -1.44388e-09 1.36584e-09)
(8.44934e-11 8.38459e-11 3.36927e-11)
(1.7228e-10 -7.08751e-11 1.77986e-10)
(1.89706e-10 -2.55508e-10 3.55813e-10)
(1.78342e-10 -4.27612e-10 5.33869e-10)
(1.73694e-10 -5.8586e-10 7.01831e-10)
(2.12546e-10 -7.42934e-10 8.52947e-10)
(3.33638e-10 -9.70335e-10 9.66586e-10)
(4.91152e-10 -1.35019e-09 1.00428e-09)
(4.75416e-11 4.00509e-11 3.24947e-11)
(1.1176e-10 -1.17862e-10 1.47342e-10)
(1.25229e-10 -3.02547e-10 2.9084e-10)
(1.17543e-10 -4.67158e-10 4.39458e-10)
(1.18635e-10 -6.0639e-10 5.77848e-10)
(1.64038e-10 -7.33676e-10 6.92179e-10)
(2.90866e-10 -9.25412e-10 7.62893e-10)
(4.50751e-10 -1.27284e-09 7.69857e-10)
(3.28047e-11 2.39984e-11 3.28457e-11)
(8.88788e-11 -1.31723e-10 1.25148e-10)
(1.03305e-10 -3.13825e-10 2.35177e-10)
(1.00598e-10 -4.72554e-10 3.49138e-10)
(1.07614e-10 -6.0007e-10 4.5367e-10)
(1.57927e-10 -7.11927e-10 5.35197e-10)
(2.86332e-10 -8.8821e-10 5.79432e-10)
(4.43774e-10 -1.22065e-09 5.77793e-10)
(2.78562e-11 1.93193e-11 2.72738e-11)
(8.24163e-11 -1.32302e-10 9.50947e-11)
(9.93684e-11 -3.09928e-10 1.72442e-10)
(1.00981e-10 -4.63653e-10 2.51545e-10)
(1.12497e-10 -5.84842e-10 3.23048e-10)
(1.65926e-10 -6.90415e-10 3.76985e-10)
(2.9442e-10 -8.61467e-10 4.0436e-10)
(4.48993e-10 -1.18682e-09 4.01687e-10)
(2.64296e-11 1.84352e-11 1.76388e-11)
(8.12739e-11 -1.29346e-10 5.89422e-11)
(1.00372e-10 -3.02777e-10 1.04693e-10)
(1.04894e-10 -4.528e-10 1.50885e-10)
(1.19224e-10 -5.70853e-10 1.92181e-10)
(1.74428e-10 -6.74405e-10 2.22819e-10)
(3.02724e-10 -8.4417e-10 2.37955e-10)
(4.55265e-10 -1.16611e-09 2.36126e-10)
(2.60833e-11 1.84454e-11 6.0641e-12)
(8.12614e-11 -1.27103e-10 1.99108e-11)
(1.01474e-10 -2.98109e-10 3.50333e-11)
(1.0741e-10 -4.46178e-10 5.01893e-11)
(1.2306e-10 -5.62939e-10 6.36614e-11)
(1.79066e-10 -6.66006e-10 7.35912e-11)
(3.07232e-10 -8.35611e-10 7.84551e-11)
(4.5877e-10 -1.15615e-09 7.7829e-11)
(2.1413e-10 4.3554e-10 2.76346e-10)
(4.02086e-10 3.45652e-10 6.27999e-10)
(4.4371e-10 1.44567e-10 8.84674e-10)
(4.32645e-10 -6.14152e-11 1.10126e-09)
(4.24724e-10 -2.71493e-10 1.30872e-09)
(4.56047e-10 -5.24085e-10 1.52467e-09)
(5.45064e-10 -9.10705e-10 1.75246e-09)
(6.38659e-10 -1.4528e-09 1.92613e-09)
(4.46722e-11 3.52434e-10 2.55301e-10)
(9.24931e-11 2.71908e-10 5.96803e-10)
(9.70705e-11 1.08534e-10 8.40727e-10)
(7.95036e-11 -7.94895e-11 1.04277e-09)
(6.0483e-11 -2.91008e-10 1.23545e-09)
(5.48546e-11 -5.4529e-10 1.43962e-09)
(6.93753e-11 -9.08794e-10 1.67193e-09)
(8.45357e-11 -1.41388e-09 1.87859e-09)
(-6.80772e-11 3.40488e-10 2.37774e-10)
(-1.44208e-10 2.66426e-10 5.72804e-10)
(-1.76636e-10 1.10517e-10 8.11917e-10)
(-1.93105e-10 -7.07819e-11 1.01022e-09)
(-2.15899e-10 -2.76202e-10 1.1997e-09)
(-2.60812e-10 -5.24501e-10 1.40084e-09)
(-3.36174e-10 -8.81074e-10 1.63009e-09)
(-4.24042e-10 -1.37507e-09 1.83356e-09)
(-2.16679e-10 3.97039e-10 2.23889e-10)
(-4.24105e-10 3.31969e-10 5.53397e-10)
(-4.92798e-10 1.54503e-10 7.94755e-10)
(-5.15393e-10 -3.19824e-11 9.9994e-10)
(-5.48704e-10 -2.24625e-10 1.19777e-09)
(-6.29774e-10 -4.60057e-10 1.40472e-09)
(-7.77542e-10 -8.26567e-10 1.62374e-09)
(-9.38843e-10 -1.33552e-09 1.78977e-09)
(-1.8686e-10 3.47435e-10 2.08152e-10)
(-3.83405e-10 2.54635e-10 5.1289e-10)
(-4.49414e-10 6.57447e-11 7.44e-10)
(-4.73429e-10 -1.17848e-10 9.42638e-10)
(-5.06845e-10 -2.98242e-10 1.13815e-09)
(-5.83494e-10 -5.1219e-10 1.34997e-09)
(-7.27032e-10 -8.48343e-10 1.57564e-09)
(-8.84957e-10 -1.32709e-09 1.7463e-09)
(-9.32189e-11 1.64443e-10 6.82704e-11)
(-2.31043e-10 4.79442e-11 2.59474e-10)
(-2.73425e-10 -1.17948e-10 4.57508e-10)
(-2.84964e-10 -2.81581e-10 6.42529e-10)
(-3.0946e-10 -4.43489e-10 8.20915e-10)
(-3.82809e-10 -6.22311e-10 9.99768e-10)
(-5.39503e-10 -8.89263e-10 1.16624e-09)
(-7.32997e-10 -1.29713e-09 1.26705e-09)
(-1.66335e-11 6.31565e-11 2.56178e-11)
(-9.88338e-11 -6.96409e-11 1.54942e-10)
(-1.22474e-10 -2.32489e-10 3.19927e-10)
(-1.27279e-10 -3.83951e-10 4.87054e-10)
(-1.48429e-10 -5.21785e-10 6.45348e-10)
(-2.22588e-10 -6.58344e-10 7.87763e-10)
(-3.87287e-10 -8.63712e-10 8.94292e-10)
(-5.94887e-10 -1.21174e-09 9.28615e-10)
(2.17964e-11 1.55281e-11 2.67936e-11)
(-3.2162e-11 -1.22507e-10 1.3136e-10)
(-4.67556e-11 -2.863e-10 2.65439e-10)
(-5.01492e-11 -4.30592e-10 4.0536e-10)
(-7.22666e-11 -5.49518e-10 5.35731e-10)
(-1.48595e-10 -6.56375e-10 6.42884e-10)
(-3.15003e-10 -8.26144e-10 7.07965e-10)
(-5.21335e-10 -1.14163e-09 7.12496e-10)
(3.75597e-11 -3.21174e-12 2.88819e-11)
(-5.30581e-12 -1.41098e-10 1.14183e-10)
(-1.73132e-11 -3.03445e-10 2.17619e-10)
(-2.18738e-11 -4.4234e-10 3.25161e-10)
(-4.61279e-11 -5.49669e-10 4.2355e-10)
(-1.23765e-10 -6.41025e-10 4.99521e-10)
(-2.88415e-10 -7.95097e-10 5.39432e-10)
(-4.89318e-10 -1.09518e-09 5.35948e-10)
(4.31504e-11 -9.62086e-12 2.46875e-11)
(3.64338e-12 -1.44969e-10 8.79724e-11)
(-8.53375e-12 -3.0388e-10 1.60987e-10)
(-1.47882e-11 -4.38299e-10 2.3574e-10)
(-4.07648e-11 -5.39458e-10 3.02965e-10)
(-1.188e-10 -6.24439e-10 3.52977e-10)
(-2.80999e-10 -7.73e-10 3.77281e-10)
(-4.76761e-10 -1.06559e-09 3.73285e-10)
(4.49527e-11 -1.15311e-11 1.61835e-11)
(6.2634e-12 -1.44051e-10 5.49371e-11)
(-6.68416e-12 -2.99506e-10 9.82304e-11)
(-1.41812e-11 -4.30644e-10 1.41914e-10)
(-4.11648e-11 -5.28814e-10 1.80702e-10)
(-1.1917e-10 -6.1172e-10 2.09009e-10)
(-2.79471e-10 -7.58787e-10 2.22309e-10)
(-4.71679e-10 -1.04767e-09 2.19682e-10)
(4.54713e-11 -1.19994e-11 5.59484e-12)
(6.94321e-12 -1.42777e-10 1.86188e-11)
(-6.4622e-12 -2.96184e-10 3.29452e-11)
(-1.45656e-11 -4.25594e-10 4.72827e-11)
(-4.19835e-11 -5.22561e-10 5.99293e-11)
(-1.19894e-10 -6.0496e-10 6.9087e-11)
(-2.79216e-10 -7.51762e-10 7.33406e-11)
(-4.69659e-10 -1.0391e-09 7.24474e-11)
(6.35948e-10 -1.52452e-09 1.92669e-09)
(5.3622e-10 -1.49412e-09 1.38469e-09)
(4.39144e-10 -1.41028e-09 9.98909e-10)
(3.96148e-10 -1.34188e-09 7.5169e-10)
(3.89362e-10 -1.29283e-09 5.57555e-10)
(3.95179e-10 -1.25981e-09 3.85458e-10)
(4.01673e-10 -1.23938e-09 2.26146e-10)
(4.0519e-10 -1.22957e-09 7.45073e-11)
(8.21363e-11 -1.47179e-09 1.89268e-09)
(6.05542e-11 -1.40797e-09 1.38787e-09)
(3.81706e-11 -1.31879e-09 1.02493e-09)
(3.38858e-11 -1.26022e-09 7.73145e-10)
(4.13228e-11 -1.22153e-09 5.67128e-10)
(5.11604e-11 -1.19542e-09 3.87476e-10)
(5.85882e-11 -1.1787e-09 2.25608e-10)
(6.23214e-11 -1.17043e-09 7.40804e-11)
(-4.26258e-10 -1.42219e-09 1.858e-09)
(-3.44479e-10 -1.36075e-09 1.36395e-09)
(-2.75304e-10 -1.27377e-09 1.00716e-09)
(-2.35396e-10 -1.21701e-09 7.59859e-10)
(-2.16287e-10 -1.17972e-09 5.57492e-10)
(-2.07321e-10 -1.15463e-09 3.80951e-10)
(-2.02752e-10 -1.13857e-09 2.21832e-10)
(-2.00653e-10 -1.13061e-09 7.2845e-11)
(-9.41239e-10 -1.37384e-09 1.82255e-09)
(-7.85719e-10 -1.34902e-09 1.31303e-09)
(-6.43114e-10 -1.27143e-09 9.45488e-10)
(-5.64392e-10 -1.20842e-09 7.11579e-10)
(-5.30742e-10 -1.16357e-09 5.2841e-10)
(-5.17492e-10 -1.1336e-09 3.65715e-10)
(-5.11808e-10 -1.11514e-09 2.14726e-10)
(-5.09398e-10 -1.1063e-09 7.07716e-11)
)
;
    }
    symmetry
    {
        type            symmetry;
    }
    bottom
    {
        type            calculated;
        value           uniform (0 0 0);
    }
}


// ************************************************************************* //
