/*--------------------------------*- C++ -*----------------------------------*\
| =========                 |                                                 |
| \\      /  F ield         | OpenFOAM: The Open Source CFD Toolbox           |
|  \\    /   O peration     | Version:  v1912                                 |
|   \\  /    A nd           | Website:  www.openfoam.com                      |
|    \\/     M anipulation  |                                                 |
\*---------------------------------------------------------------------------*/
FoamFile
{
    version     2.0;
    format      ascii;
    class       volVectorField;
    location    "0.81/solid";
    object      heatFlux;
}
// * * * * * * * * * * * * * * * * * * * * * * * * * * * * * * * * * * * * * //

dimensions      [1 0 -3 0 0 0 0];


internalField   nonuniform List<vector> 
256
(
(-64348.7 72805.5 -67756.1)
(-13348.4 43299.9 -66619.6)
(11910.5 42787.1 -65311.9)
(57425.1 70125.3 -63914.1)
(-61113 11095.5 -64892)
(-16670 7252.86 -66790.1)
(14914.9 7179.15 -65434.6)
(53856.7 10778 -61011.6)
(-62210.9 2663.14 -66115.1)
(-17264.8 1666.29 -68395.9)
(15435.6 1642.74 -66985.8)
(54806.1 2564.98 -62101)
(-64041.3 2500.19 -67972.8)
(-17690.4 1503.09 -70424.5)
(15813.6 1488.47 -68975.2)
(56482.8 2430.59 -63856.3)
(-66594.5 4185.67 -70526.3)
(-18276.5 2751.38 -73296.5)
(16363.1 2738.91 -71818.5)
(58889.8 4127.77 -66332.8)
(-70168.1 9610.88 -74118.6)
(-19137.1 7762.71 -77612.9)
(17190 7727.95 -76107.6)
(62326.2 9505.78 -69852.4)
(-73607.7 29174.2 -77695.8)
(-20159.4 28621.6 -82631)
(18106.1 28379.1 -81096.4)
(65599.5 28515.3 -73357.1)
(-67867.6 72439.3 -72333.6)
(-19932.3 78833.6 -78749.4)
(17083.7 77358 -77288)
(59451.7 68294.2 -68239.2)
(-61565.4 39564.5 -18321.5)
(-12081.2 12078.6 -16016.3)
(11265.5 11930.3 -15835.9)
(55018.3 37918.8 -17794.5)
(-61647.9 6650.29 -23387.2)
(-15553.1 2571.71 -21033.4)
(14574.7 2550.34 -20804.1)
(54875.6 6472.96 -22724.8)
(-63154.5 1584.4 -24234.2)
(-16181.1 529.425 -21893.8)
(15166.8 521.953 -21652)
(56240.8 1525.62 -23540.5)
(-65165.6 1485.59 -24746.2)
(-16615.5 428.874 -22407.7)
(15570.9 422.363 -22160.3)
(58092.9 1432.34 -24040.4)
(-68060.1 2723.23 -25434.5)
(-17244.3 1097.16 -23137.8)
(16170.2 1089.32 -22887.6)
(60821.7 2668.88 -24727.2)
(-72410.6 7616.96 -26473.3)
(-18249.4 5240.55 -24342.9)
(17142.6 5208.14 -24091.6)
(64999.5 7505.81 -25773.6)
(-77440.6 27985.1 -27947.2)
(-19653.2 26317.1 -26299.9)
(18435.5 26061.6 -26049.2)
(69821.9 27275.1 -27263.8)
(-73679.7 77855.1 -29127.3)
(-20172.9 82762.1 -28597)
(18100.6 81205.2 -28360.9)
(65612.7 73443.2 -28499.7)
(-55453.6 31096.8 -4760.84)
(-10862.9 6250.13 -2785.79)
(10132.3 6147.09 -2763.58)
(49135.1 29605.9 -4671.89)
(-56190 5182.76 -6405.37)
(-14086.8 1375.41 -3995.98)
(13223.5 1363.03 -3964.97)
(49671.7 5031.94 -6287.17)
(-57682.7 1304.13 -6655.06)
(-14682.6 291.99 -4189.63)
(13788.8 286.553 -4156.82)
(51022.5 1249.44 -6532.12)
(-59647.9 1299.92 -6754.88)
(-15104.4 259.043 -4269.93)
(14181 252.895 -4236.68)
(52823.2 1243.93 -6632.38)
(-62542.4 2458.62 -6872.59)
(-15729.6 816.172 -4379.92)
(14773.7 807.593 -4346.96)
(55533.7 2394.58 -6755.17)
(-67009 7098.17 -7068.54)
(-16755.4 4600.64 -4596.08)
(15759.4 4566.31 -4564.24)
(59790.4 6969.14 -6962.51)
(-72504.6 26520.2 -7585.39)
(-18261.5 24367.5 -5234.83)
(17142.2 24109.8 -5205.19)
(65022.7 25789.2 -7498.5)
(-70335.3 74362.2 -9555.66)
(-19165.8 77816.9 -7737.24)
(17181 76276.5 -7709.25)
(62361.6 69986.4 -9486.44)
(-51201 28398.3 -1721.78)
(-10083.9 5296.86 -486.982)
(9379.41 5201.73 -482.156)
(45043.7 26959.8 -1684.34)
(-51961.6 4756.08 -2254.24)
(-13112.7 1167.87 -709.361)
(12283.5 1157.1 -702.513)
(45614.9 4612.73 -2206.06)
(-53396.6 1234.88 -2327.26)
(-13682.9 255.479 -742.876)
(12824.3 250.244 -735.718)
(46909.1 1180.41 -2277.78)
(-55321.7 1268.06 -2347.65)
(-14097.3 238.592 -752.777)
(13208.4 232.221 -745.674)
(48665.8 1209.29 -2299.22)
(-58195.7 2409.56 -2366.83)
(-14718.7 771.011 -766.098)
(13795 761.752 -759.32)
(51342.5 2338.75 -2321.96)
(-62668.7 6904.16 -2414.49)
(-15745.1 4385.64 -810.868)
(14776.2 4349.92 -804.841)
(55579.3 6762.48 -2376.96)
(-68285.8 25498 -2672.31)
(-17273 23175.9 -1087.69)
(16171.8 22916.6 -1083.15)
(60890.1 24751.2 -2647.81)
(-66896.5 70895.6 -4093.29)
(-18326.5 73612.6 -2705.37)
(16351.4 72082 -2702.1)
(58968.1 66542.8 -4082.66)
(-48608.2 27120.8 -876.87)
(-9623.25 5053.79 -146.871)
(8934.91 4962.42 -144.326)
(42559.5 25715.5 -853.135)
(-49341.5 4577.29 -1121.32)
(-12535.1 1119.51 -207.641)
(11726.8 1109.47 -204.038)
(43109.4 4438.51 -1090.85)
(-50742.9 1210.72 -1151.05)
(-13091.1 248.574 -215.607)
(12253.9 243.392 -211.861)
(44370.9 1156.28 -1119.79)
(-52648.2 1260.35 -1156.77)
(-13502.4 235.821 -216.946)
(12634.5 229.293 -213.257)
(46104.7 1199.75 -1126.32)
(-55510.3 2391.78 -1161.86)
(-14122.1 758.081 -219.12)
(13217.8 748.426 -215.629)
(48760.3 2316.83 -1133.67)
(-59971.2 6792.69 -1185.67)
(-15145.8 4279.05 -236.442)
(14193.3 4242.49 -233.381)
(52968 6643.29 -1161.88)
(-65602.1 24841.4 -1345.67)
(-16672.3 22473 -387.379)
(15582.1 22212.5 -385.206)
(58265.8 24083.5 -1329.83)
(-64554.6 68549.2 -2258.42)
(-17774.7 70935.9 -1360.63)
(15803.7 69408.8 -1359.59)
(56656.5 64203 -2252.72)
(-47049.4 26400.1 -496.062)
(-9351.35 4942.35 -71.7692)
(8673.15 4853.37 -70.2058)
(41067.3 25015.8 -481.615)
(-47765.9 4481.89 -628.76)
(-12195.4 1099.13 -99.5117)
(11400.3 1089.56 -97.2805)
(41603.9 4346.07 -610.081)
(-49150.5 1199.44 -643.645)
(-12743.7 246.173 -102.772)
(11920.1 241.025 -100.449)
(42848.7 1144.95 -624.478)
(-51046.4 1257.25 -645.808)
(-13153.8 235.079 -103.063)
(12299.1 228.454 -100.775)
(44570.4 1195.41 -627.202)
(-53900.9 2380.66 -648.447)
(-13772.5 751.516 -103.866)
(12880.4 741.628 -101.695)
(47212 2303.18 -631.242)
(-58346.2 6720.35 -664.233)
(-14792.8 4217.38 -113.372)
(13850.7 4180.34 -111.448)
(51393.5 6566.32 -649.627)
(-63959.2 24425.2 -765.337)
(-16312.5 22051.7 -200.752)
(15229.4 21790.4 -199.339)
(56657.6 23660.3 -755.4)
(-63062.4 67048.2 -1328.47)
(-17427.7 69283.5 -777.551)
(15459.3 67757.7 -776.905)
(55180.4 62703.4 -1325.04)
(-46156.1 25996 -259.613)
(-9197.4 4882.51 -36.4391)
(8525.07 4794.94 -35.5885)
(40212.1 24623.8 -251.911)
(-46864.1 4429.7 -327.871)
(-12003.6 1088.51 -50.2165)
(11216.2 1079.23 -48.9934)
(40742.1 4295.64 -317.85)
(-48240.3 1193.68 -335.203)
(-12547.9 245.023 -51.7638)
(11732.2 239.898 -50.4869)
(41978.7 1139.16 -324.912)
(-50131.4 1255.55 -336.139)
(-12957.4 234.728 -51.8613)
(12110.4 228.046 -50.6028)
(43693.5 1192.98 -326.16)
(-52980.6 2373.35 -337.724)
(-13575.4 747.773 -52.277)
(12690.5 737.753 -51.0811)
(46326 2294.41 -328.508)
(-57412.9 6675.8 -347.142)
(-14593 4182.16 -57.3445)
(13657 4144.84 -56.2776)
(50488.3 6519.13 -339.31)
(-63005 24177.1 -403.615)
(-16106.3 21808.9 -103.685)
(15027.4 21547 -102.885)
(55722.3 23408.1 -398.26)
(-62175 66150.4 -711.713)
(-17223.1 68315 -412.267)
(15256.2 66789.7 -411.899)
(54301 61805.5 -709.944)
(-45746.7 25812.6 -81.0905)
(-9127.33 4855.7 -11.2881)
(8457.67 4768.78 -11.0187)
(39819.9 24446 -78.6788)
(-46451 4406.3 -102.256)
(-11916.5 1083.8 -15.5245)
(11132.7 1074.66 -15.1353)
(40347.2 4273.07 -99.1065)
(-47823.6 1191.17 -104.489)
(-12459 244.528 -15.9924)
(11646.9 239.415 -15.5855)
(41580.3 1136.64 -101.252)
(-49712.7 1254.73 -104.765)
(-12868.3 234.566 -16.0187)
(12024.8 227.86 -15.6175)
(43291.9 1191.82 -101.627)
(-52559.2 2369.66 -105.312)
(-13485.8 746.032 -16.1537)
(12604.2 735.953 -15.7723)
(45919.8 2290.03 -102.418)
(-56984.2 6654.46 -108.456)
(-14502 4165.98 -17.7589)
(13568.8 4128.54 -17.4181)
(50071.9 6496.57 -106)
(-62563.8 24060.7 -126.651)
(-16011.8 21696.8 -32.3377)
(14934.8 21434.8 -32.0801)
(55289.3 23289.7 -124.978)
(-61759.5 65728.2 -224.917)
(-17127.8 67864.1 -129.788)
(15161.6 66339 -129.669)
(53888.7 61383.1 -224.392)
)
;

boundaryField
{
    interface
    {
        type            calculated;
        value           nonuniform List<vector> 
192
(
(-102455 72805.5 -67756.1)
(-89457.5 11095.5 -64892)
(-90493.7 2663.14 -66115.1)
(-93320.4 2500.19 -67972.8)
(-97266.7 4185.67 -70526.3)
(-102705 9610.88 -74118.6)
(-107597 29174.2 -77695.8)
(-96999.3 72439.3 -72333.6)
(-99099.7 39564.5 -18321.5)
(-92355.3 6650.29 -23387.2)
(-94120.7 1584.4 -24234.2)
(-97280.6 1485.59 -24746.2)
(-101818 2723.23 -25434.5)
(-108519 7616.96 -26473.3)
(-115827 27985.1 -27947.2)
(-107721 77855.1 -29127.3)
(-89274.7 31096.8 -4760.84)
(-84319.2 5182.76 -6405.37)
(-86118.2 1304.13 -6655.06)
(-89210.6 1299.92 -6754.88)
(-93755.8 2458.62 -6872.59)
(-100648 7098.17 -7068.54)
(-108685 26520.2 -7585.39)
(-102995 74362.2 -9555.66)
(-82320.9 28398.3 -1721.78)
(-77801.3 4756.08 -2254.24)
(-79535.8 1234.88 -2327.26)
(-82562.8 1268.06 -2347.65)
(-87075 2409.56 -2366.83)
(-93979.7 6904.16 -2414.49)
(-102218 25498 -2672.31)
(-97791.2 70895.6 -4093.29)
(-78053.5 27120.8 -876.87)
(-73711.9 4577.29 -1121.32)
(-75407.3 1210.72 -1151.05)
(-78401.1 1260.35 -1156.77)
(-82893.1 2391.78 -1161.86)
(-89779.7 6792.69 -1185.67)
(-98049.4 24841.4 -1345.67)
(-94209.8 68549.2 -2258.42)
(-75477.7 26400.1 -496.062)
(-71237.5 4481.89 -628.76)
(-72914.4 1199.44 -643.645)
(-75891.8 1257.25 -645.808)
(-80370.8 2380.66 -648.447)
(-87233.2 6720.35 -664.233)
(-95481.5 24425.2 -765.337)
(-91918.6 67048.2 -1328.47)
(-73997.9 25996 -259.613)
(-69815.6 4429.7 -327.871)
(-71483.8 1193.68 -335.203)
(-74452.9 1255.55 -336.139)
(-78922.9 2373.35 -337.724)
(-85764.8 6675.8 -347.142)
(-93984.3 24177.1 -403.615)
(-90552.3 66150.4 -711.713)
(-73318.7 25812.6 -81.0905)
(-69163 4406.3 -102.256)
(-70827.6 1191.17 -104.489)
(-73793 1254.73 -104.765)
(-78258.3 2369.66 -105.312)
(-85088.8 6654.46 -108.456)
(-93290.5 24060.7 -126.651)
(-89911.7 65728.2 -224.917)
(-64348.7 72805.5 -106066)
(-61113 11095.5 -92748)
(-62210.9 2663.14 -93893.6)
(-64041.3 2500.19 -96752.3)
(-66594.5 4185.67 -100687)
(-70168.1 9610.88 -106119)
(-73607.7 29174.2 -111038)
(-67867.6 72439.3 -100171)
(-13348.4 43299.9 -106005)
(-16670 7252.86 -98372.2)
(-17264.8 1666.29 -100195)
(-17690.4 1503.09 -103367)
(-18276.5 2751.38 -107848)
(-19137.1 7762.71 -114436)
(-20159.4 28621.6 -121472)
(-19932.3 78833.6 -112100)
(11910.5 42787.1 -103712)
(14914.9 7179.15 -96067.1)
(15435.6 1642.74 -97802.4)
(15813.6 1488.47 -100907)
(16363.1 2738.91 -105336)
(17190 7727.95 -111872)
(18106.1 28379.1 -118852)
(17083.7 77358 -109598)
(57425.1 70125.3 -99303.8)
(53856.7 10778 -86134.8)
(54806.1 2564.98 -87067.6)
(56482.8 2430.59 -89745.5)
(58889.8 4127.77 -93534.8)
(62326.2 9505.78 -98819.9)
(65599.5 28515.3 -103583)
(59451.7 68294.2 -93113.1)
(90575.2 70125.3 -63914.1)
(77312 10778 -61011.6)
(78139.6 2564.98 -62101)
(80719.8 2430.59 -63856.3)
(84422.8 4127.77 -66332.8)
(89628.9 9505.78 -69852.4)
(94286.5 28515.3 -73357.1)
(83607.4 68294.2 -68239.2)
(87374.5 37918.8 -17794.5)
(80436.2 6472.96 -22724.8)
(81974.2 1525.62 -23540.5)
(84863.4 1432.34 -24040.4)
(89116 2668.88 -24727.2)
(95517.5 7505.81 -25773.6)
(102521 27275.1 -27263.8)
(94317.2 73443.2 -28499.7)
(77912.5 29605.9 -4671.89)
(72783.5 5031.94 -6287.17)
(74349.4 1249.44 -6532.12)
(77160.8 1243.93 -6632.38)
(81389.8 2394.58 -6755.17)
(87921.1 6969.14 -6962.51)
(95562 25789.2 -7498.5)
(89704.7 69986.4 -9486.44)
(71242 26959.8 -1684.34)
(66559.3 4612.73 -2206.06)
(68061.5 1180.41 -2277.78)
(70800.7 1209.29 -2299.22)
(74974.1 2338.75 -2321.96)
(81473.8 6762.48 -2376.96)
(89244.1 24751.2 -2647.81)
(84582.1 66542.8 -4082.66)
(67165.6 25715.5 -853.135)
(62666.1 4438.51 -1090.85)
(64130.3 1156.28 -1119.79)
(66830.9 1199.75 -1126.32)
(70968.1 2316.83 -1133.67)
(77420.6 6643.29 -1161.88)
(85177.7 24083.5 -1329.83)
(81055.7 64203 -2252.72)
(64706.7 25015.8 -481.615)
(60310.8 4346.07 -610.081)
(61756.5 1144.95 -624.478)
(64436 1195.41 -627.202)
(68549.2 2303.18 -631.242)
(74959.2 6566.32 -649.627)
(82668.4 23660.3 -755.4)
(78793.1 62703.4 -1325.04)
(63293.5 24623.8 -251.911)
(58957 4295.64 -317.85)
(60394 1139.16 -324.912)
(63061.3 1192.98 -326.16)
(67158.8 2294.41 -328.508)
(73537.5 6519.13 -339.31)
(81202.8 23408.1 -398.26)
(77441 61805.5 -709.944)
(62644.5 24446 -78.6788)
(58335.2 4273.07 -99.1065)
(59768.4 1136.64 -101.252)
(62430.2 1191.82 -101.627)
(66519.7 2290.03 -102.418)
(72882 6496.57 -106)
(80522.5 23289.7 -124.978)
(76805.8 61383.1 -224.392)
(-67867.6 100333 -72333.6)
(-73679.7 111308 -29127.3)
(-70335.3 106540 -9555.66)
(-66896.5 101329 -4093.29)
(-64554.6 97755.6 -2258.42)
(-63062.4 95460.1 -1328.47)
(-62175 94084.3 -711.713)
(-61759.5 93436.4 -224.917)
(-19932.3 112239 -78749.4)
(-20172.9 121706 -28597)
(-19165.8 114800 -7737.24)
(-18326.5 108412 -2705.37)
(-17774.7 104273 -1360.63)
(-17427.7 101700 -777.551)
(-17223.1 100185 -412.267)
(-17127.8 99478.5 -129.788)
(17083.7 109716 -77288)
(18100.6 119048 -28360.9)
(17181 112177 -7709.25)
(16351.4 105809 -2702.1)
(15803.7 101679 -1359.59)
(15459.3 99109.6 -776.905)
(15256.2 97596.3 -411.899)
(15161.6 96890 -129.669)
(59451.7 93205.4 -68239.2)
(65612.7 103738 -28499.7)
(62361.6 99061.6 -9486.44)
(58968.1 93913 -4082.66)
(56656.5 90364.5 -2252.72)
(55180.4 88080 -1325.04)
(54301 86708.8 -709.944)
(53888.7 86062.7 -224.392)
)
;
    }
    symmetry
    {
        type            symmetry;
    }
    bottom
    {
        type            calculated;
        value           nonuniform List<vector> 
32
(
(-64348.7 126699 -67756.1)
(-61565.4 67806.5 -18321.5)
(-55453.6 53412.9 -4760.84)
(-51201 48763.1 -1721.78)
(-48608.2 46525.8 -876.87)
(-47049.4 45255.6 -496.062)
(-46156.1 44541.5 -259.613)
(-45746.7 44217.2 -81.0905)
(-13348.4 74213.1 -66619.6)
(-12081.2 19744.1 -16016.3)
(-10862.9 10147.9 -2785.79)
(-10083.9 8600.94 -486.982)
(-9623.25 8199.93 -146.871)
(-9351.35 8013.46 -71.7692)
(-9197.4 7912.85 -36.4391)
(-9127.33 7867.7 -11.2881)
(11910.5 73305 -65311.9)
(11265.5 19481.8 -15835.9)
(10132.3 9961.4 -2763.58)
(9379.41 8427.53 -482.156)
(8934.91 8032.77 -144.326)
(8673.15 7850.23 -70.2058)
(8525.07 7751.95 -35.5885)
(8457.67 7707.88 -11.0187)
(57425.1 121855 -63914.1)
(55018.3 64806.1 -17794.5)
(49135.1 50677 -4671.89)
(45043.7 46118.6 -1684.34)
(42559.5 43939.6 -853.135)
(41067.3 42706 -481.615)
(40212.1 42013.1 -251.911)
(39819.9 41698.4 -78.6788)
)
;
    }
}


// ************************************************************************* //
