/*--------------------------------*- C++ -*----------------------------------*\
| =========                 |                                                 |
| \\      /  F ield         | OpenFOAM: The Open Source CFD Toolbox           |
|  \\    /   O peration     | Version:  v1912                                 |
|   \\  /    A nd           | Website:  www.openfoam.com                      |
|    \\/     M anipulation  |                                                 |
\*---------------------------------------------------------------------------*/
FoamFile
{
    version     2.0;
    format      ascii;
    class       volScalarField;
    location    "0.81/solid";
    object      sigmaHyd;
}
// * * * * * * * * * * * * * * * * * * * * * * * * * * * * * * * * * * * * * //

dimensions      [1 -1 -2 0 0 0 0];


internalField   nonuniform List<scalar> 
256
(
-716664
-385271
-378323
-674794
-1.07318e+06
-662687
-652331
-1.0198e+06
-1.11765e+06
-711803
-700867
-1.06259e+06
-1.13546e+06
-730582
-719384
-1.07928e+06
-1.17403e+06
-760521
-749117
-1.11677e+06
-1.26311e+06
-831829
-820166
-1.20469e+06
-1.49115e+06
-1.0334e+06
-1.02059e+06
-1.4294e+06
-2.06726e+06
-1.57952e+06
-1.55974e+06
-1.98619e+06
-378406
-127122
-125809
-352993
-612339
-283484
-279730
-578130
-649867
-328773
-324563
-614410
-665223
-348204
-343820
-628900
-692756
-369610
-365107
-655526
-759841
-418422
-413756
-721542
-954315
-575785
-570057
-912693
-1.49201e+06
-1.03366e+06
-1.02071e+06
-1.42969e+06
-296428
-79187.7
-78404.7
-273126
-457283
-170324
-167592
-426514
-484597
-204184
-201054
-452714
-498068
-221097
-217794
-465296
-522017
-239115
-235680
-488237
-581329
-279709
-276084
-546272
-760198
-418079
-413348
-721479
-1.26425e+06
-831615
-819697
-1.20467e+06
-275062
-74049.9
-73289.6
-252337
-410027
-144745
-142158
-380287
-431786
-171647
-168689
-401002
-443851
-186073
-182939
-412154
-466355
-202282
-199003
-433568
-522520
-239548
-236053
-488298
-693027
-369067
-364431
-654889
-1.17416e+06
-758877
-747072
-1.11502e+06
-266472
-73962.3
-73207.1
-244090
-392531
-137960
-135429
-363372
-411834
-161311
-158426
-381680
-422866
-173879
-170819
-391791
-444394
-188728
-185516
-412180
-498744
-224134
-220691
-464999
-664292
-349100
-344493
-626474
-1.13151e+06
-726650
-714868
-1.07256e+06
-261367
-74066.8
-73317.2
-239187
-383875
-135404
-132911
-355064
-402124
-157016
-154179
-372351
-412466
-168421
-165411
-381771
-433272
-182330
-179165
-401410
-486458
-216621
-213217
-453008
-649035
-339103
-334522
-611421
-1.10779e+06
-709634
-697867
-1.04894e+06
-258112
-74024.2
-73277.5
-236041
-378986
-134219
-131748
-350370
-396764
-155008
-152200
-367206
-406692
-165769
-162791
-376212
-427024
-179114
-175980
-395362
-479512
-212776
-209399
-446233
-640401
-333903
-329340
-602904
-1.09417e+06
-700304
-688547
-1.03538e+06
-256485
-73949.2
-73203.5
-234462
-376667
-133709
-131249
-348138
-394253
-154168
-151374
-364791
-403986
-164648
-161684
-373603
-424087
-177734
-174614
-392516
-476251
-211111
-207747
-443048
-636370
-331629
-327074
-598925
-1.0878e+06
-696066
-684313
-1.02903e+06
)
;

boundaryField
{
    interface
    {
        type            zeroGradient;
    }
    symmetry
    {
        type            symmetry;
    }
    bottom
    {
        type            zeroGradient;
    }
}


// ************************************************************************* //
