/*--------------------------------*- C++ -*----------------------------------*\
| =========                 |                                                 |
| \\      /  F ield         | OpenFOAM: The Open Source CFD Toolbox           |
|  \\    /   O peration     | Version:  v1912                                 |
|   \\  /    A nd           | Website:  www.openfoam.com                      |
|    \\/     M anipulation  |                                                 |
\*---------------------------------------------------------------------------*/
FoamFile
{
    version     2.0;
    format      ascii;
    class       volScalarField;
    location    "0.81/solid";
    object      T;
}
// * * * * * * * * * * * * * * * * * * * * * * * * * * * * * * * * * * * * * //

dimensions      [0 0 0 1 0 0 0];


internalField   nonuniform List<scalar> 
256
(
291.416
292.072
292.084
291.477
290.943
291.763
291.777
291.017
290.861
291.71
291.725
290.938
290.81
291.679
291.695
290.889
290.736
291.635
291.65
290.816
290.601
291.542
291.558
290.682
290.256
291.246
291.264
290.341
289.142
290.111
290.139
289.257
292.152
292.753
292.756
292.19
291.869
292.643
292.647
291.914
291.82
292.625
292.629
291.866
291.79
292.616
292.621
291.838
291.746
292.603
292.608
291.795
291.654
292.562
292.566
291.704
291.365
292.341
292.347
291.419
290.255
291.246
291.263
290.341
292.332
292.873
292.875
292.367
292.113
292.814
292.817
292.153
292.073
292.804
292.807
292.115
292.048
292.8
292.803
292.091
292.008
292.791
292.795
292.053
291.925
292.759
292.762
291.971
291.653
292.561
292.566
291.704
290.599
291.541
291.557
290.682
292.39
292.892
292.895
292.424
292.19
292.843
292.845
292.228
292.153
292.834
292.837
292.193
292.128
292.83
292.833
292.169
292.089
292.822
292.825
292.132
292.007
292.791
292.795
292.053
291.744
292.603
292.608
291.794
290.733
291.633
291.649
290.815
292.418
292.898
292.9
292.451
292.226
292.85
292.852
292.263
292.19
292.842
292.844
292.229
292.165
292.837
292.84
292.206
292.127
292.83
292.833
292.169
292.045
292.799
292.803
292.09
291.787
292.616
292.621
291.837
290.803
291.676
291.692
290.886
292.434
292.9
292.902
292.466
292.246
292.853
292.855
292.283
292.21
292.845
292.847
292.249
292.186
292.841
292.843
292.226
292.147
292.833
292.836
292.189
292.067
292.803
292.806
292.111
291.811
292.622
292.627
291.861
290.845
291.701
291.717
290.928
292.443
292.901
292.903
292.475
292.257
292.855
292.857
292.294
292.222
292.847
292.849
292.26
292.197
292.843
292.845
292.237
292.159
292.835
292.838
292.2
292.079
292.805
292.808
292.122
291.825
292.626
292.63
291.874
290.87
291.715
291.731
290.952
292.447
292.902
292.904
292.479
292.262
292.856
292.858
292.299
292.227
292.847
292.85
292.265
292.203
292.843
292.846
292.242
292.164
292.836
292.839
292.206
292.084
292.806
292.809
292.128
291.832
292.627
292.632
291.881
290.881
291.721
291.737
290.963
)
;

boundaryField
{
    interface
    {
        type            fixedValue;
        value           nonuniform List<scalar> 
192
(
290.135
289.821
289.725
289.638
289.514
289.31
288.903
287.922
290.912
290.711
290.638
290.569
290.467
290.291
289.909
288.9
291.215
291.056
290.993
290.929
290.832
290.662
290.288
289.304
291.361
291.215
291.155
291.092
290.997
290.828
290.46
289.504
291.442
291.302
291.244
291.182
291.087
290.919
290.556
289.62
291.49
291.353
291.296
291.234
291.139
290.972
290.612
289.69
291.518
291.382
291.326
291.264
291.169
291.003
290.645
289.732
291.53
291.395
291.339
291.277
291.183
291.017
290.66
289.751
290.09
289.781
289.683
289.596
289.472
289.268
288.861
287.884
290.747
290.53
290.453
290.383
290.281
290.106
289.721
288.702
290.787
290.573
290.499
290.429
290.329
290.154
289.772
288.763
290.237
289.939
289.847
289.764
289.644
289.443
289.041
288.089
290.347
290.049
289.959
289.877
289.758
289.558
289.158
288.208
291.099
290.907
290.839
290.774
290.678
290.507
290.133
289.157
291.394
291.243
291.184
291.125
291.034
290.87
290.506
289.556
291.534
291.396
291.342
291.284
291.194
291.032
290.676
289.755
291.613
291.48
291.427
291.37
291.281
291.121
290.769
289.87
291.659
291.529
291.477
291.42
291.331
291.172
290.825
289.94
291.685
291.557
291.505
291.448
291.36
291.202
290.857
289.981
291.697
291.57
291.518
291.461
291.373
291.215
290.872
290
287.882
288.856
289.261
289.46
289.576
289.647
289.689
289.708
288.701
289.717
290.1
290.272
290.368
290.425
290.458
290.473
288.761
289.769
290.15
290.322
290.417
290.474
290.507
290.522
288.088
289.039
289.439
289.638
289.753
289.824
289.865
289.884
)
;
    }
    symmetry
    {
        type            symmetry;
    }
    bottom
    {
        type            fixedValue;
        value           uniform 293;
    }
}


// ************************************************************************* //
