/*--------------------------------*- C++ -*----------------------------------*\
| =========                 |                                                 |
| \\      /  F ield         | OpenFOAM: The Open Source CFD Toolbox           |
|  \\    /   O peration     | Version:  v1912                                 |
|   \\  /    A nd           | Website:  www.openfoam.com                      |
|    \\/     M anipulation  |                                                 |
\*---------------------------------------------------------------------------*/
FoamFile
{
    version     2.0;
    format      ascii;
    class       volVectorField;
    location    "0.68/fluid";
    object      cellMotionU;
}
// * * * * * * * * * * * * * * * * * * * * * * * * * * * * * * * * * * * * * //

dimensions      [0 1 -1 0 0 0 0];


internalField   nonuniform List<vector> 
14592
(
(1.40099e-10 -3.15084e-10 2.40084e-10)
(3.91152e-10 -8.80869e-10 6.79565e-10)
(6.23684e-10 -1.40654e-09 1.11215e-09)
(8.46632e-10 -1.91045e-09 1.56626e-09)
(1.06963e-09 -2.40593e-09 2.06937e-09)
(1.30119e-09 -2.89782e-09 2.64608e-09)
(1.55156e-09 -3.38292e-09 3.3211e-09)
(1.83396e-09 -3.84592e-09 4.11901e-09)
(2.16778e-09 -4.25348e-09 5.06492e-09)
(2.58519e-09 -4.54203e-09 6.18502e-09)
(3.14759e-09 -4.59371e-09 7.51125e-09)
(3.98637e-09 -4.17819e-09 9.09886e-09)
(5.40446e-09 -2.79891e-09 1.10911e-08)
(8.16877e-09 7.77238e-10 1.39325e-08)
(1.40247e-08 9.60339e-09 1.88e-08)
(2.42436e-08 2.70862e-08 2.65186e-08)
(4.16754e-10 -9.3556e-10 7.13676e-10)
(1.16375e-09 -2.61599e-09 2.02024e-09)
(1.85462e-09 -4.17808e-09 3.3049e-09)
(2.51757e-09 -5.67837e-09 4.65439e-09)
(3.17786e-09 -7.1543e-09 6.14609e-09)
(3.8619e-09 -8.62422e-09 7.8545e-09)
(4.59894e-09 -1.00816e-08 9.85189e-09)
(5.42567e-09 -1.14869e-08 1.22099e-08)
(6.3933e-09 -1.27517e-08 1.49994e-08)
(7.58196e-09 -1.37107e-08 1.82894e-08)
(9.13158e-09 -1.40724e-08 2.21475e-08)
(1.13014e-08 -1.33349e-08 2.66496e-08)
(1.46138e-08 -1.06236e-08 3.19307e-08)
(2.00119e-08 -4.50429e-09 3.82583e-08)
(2.87764e-08 6.82252e-09 4.60017e-08)
(3.96819e-08 2.15761e-08 5.40247e-08)
(6.8367e-10 -1.52842e-09 1.16931e-09)
(1.90861e-09 -4.27499e-09 3.30928e-09)
(3.04102e-09 -6.83246e-09 5.41277e-09)
(4.12457e-09 -9.29368e-09 7.61871e-09)
(5.20113e-09 -1.17253e-08 1.00546e-08)
(6.31209e-09 -1.41629e-08 1.28408e-08)
(7.50295e-09 -1.66065e-08 1.60948e-08)
(8.82815e-09 -1.90093e-08 1.99326e-08)
(1.03587e-08 -2.12582e-08 2.44682e-08)
(1.21954e-08 -2.3142e-08 2.98074e-08)
(1.44922e-08 -2.43043e-08 3.60386e-08)
(1.7502e-08 -2.41826e-08 4.32218e-08)
(2.16557e-08 -2.19657e-08 5.13899e-08)
(2.76345e-08 -1.67157e-08 6.05701e-08)
(3.61989e-08 -8.10951e-09 7.07668e-08)
(4.60742e-08 8.96879e-10 8.07627e-08)
(9.34681e-10 -2.07492e-09 1.59576e-09)
(2.60864e-09 -5.8062e-09 4.51516e-09)
(4.15384e-09 -9.28729e-09 7.3817e-09)
(5.6288e-09 -1.26497e-08 1.03835e-08)
(7.08795e-09 -1.59896e-08 1.36913e-08)
(8.58615e-09 -1.93675e-08 1.74678e-08)
(1.01817e-08 -2.28018e-08 2.18715e-08)
(1.19414e-08 -2.62594e-08 2.70599e-08)
(1.39461e-08 -2.96379e-08 3.31871e-08)
(1.62976e-08 -3.27377e-08 4.0396e-08)
(1.91254e-08 -3.52225e-08 4.87976e-08)
(2.25991e-08 -3.65788e-08 5.84385e-08)
(2.69425e-08 -3.61118e-08 6.9258e-08)
(3.24232e-08 -3.30964e-08 8.10231e-08)
(3.9251e-08 -2.73669e-08 9.32121e-08)
(4.63945e-08 -2.10431e-08 1.03877e-07)
(1.16435e-09 -2.55651e-09 1.98324e-09)
(3.2487e-09 -7.15762e-09 5.61004e-09)
(5.16898e-09 -1.14605e-08 9.16601e-09)
(6.99506e-09 -1.56335e-08 1.28808e-08)
(8.79295e-09 -1.98062e-08 1.69637e-08)
(1.06275e-08 -2.40682e-08 2.16127e-08)
(1.25669e-08 -2.84674e-08 2.7022e-08)
(1.46872e-08 -3.30034e-08 3.33849e-08)
(1.70755e-08 -3.76154e-08 4.08942e-08)
(1.98325e-08 -4.21617e-08 4.97333e-08)
(2.30658e-08 -4.6389e-08 6.00521e-08)
(2.68796e-08 -4.98892e-08 7.19282e-08)
(3.13401e-08 -5.20471e-08 8.52879e-08)
(3.64112e-08 -5.2011e-08 9.97661e-08)
(4.18957e-08 -4.8859e-08 1.14402e-07)
(4.69514e-08 -4.3181e-08 1.26314e-07)
(1.36862e-09 -2.95541e-09 2.32419e-09)
(3.81658e-09 -8.27882e-09 6.57176e-09)
(6.06613e-09 -1.327e-08 1.0728e-08)
(8.19645e-09 -1.81331e-08 1.50574e-08)
(1.02809e-08 -2.3029e-08 1.97985e-08)
(1.23922e-08 -2.80803e-08 2.51776e-08)
(1.46057e-08 -3.33704e-08 3.14159e-08)
(1.70049e-08 -3.89437e-08 3.87358e-08)
(1.96848e-08 -4.48014e-08 4.73626e-08)
(2.2754e-08 -5.08923e-08 5.75208e-08)
(2.63306e-08 -5.70962e-08 6.94182e-08)
(3.05288e-08 -6.31864e-08 8.32131e-08)
(3.54363e-08 -6.87407e-08 9.89645e-08)
(4.10174e-08 -7.29018e-08 1.16448e-07)
(4.69701e-08 -7.39317e-08 1.34676e-07)
(5.20607e-08 -6.99576e-08 1.49764e-07)
(1.54406e-09 -3.25467e-09 2.61299e-09)
(4.30332e-09 -9.12248e-09 7.3845e-09)
(6.83145e-09 -1.46393e-08 1.20423e-08)
(9.21291e-09 -2.00394e-08 1.68753e-08)
(1.15264e-08 -2.55135e-08 2.21439e-08)
(1.38486e-08 -3.12142e-08 2.80925e-08)
(1.62591e-08 -3.72614e-08 3.49593e-08)
(1.88462e-08 -4.37461e-08 4.2984e-08)
(2.17126e-08 -5.07358e-08 5.24127e-08)
(2.4983e-08 -5.82794e-08 6.35007e-08)
(2.88074e-08 -6.64131e-08 7.65053e-08)
(3.33913e-08 -7.51702e-08 9.17026e-08)
(3.90051e-08 -8.45528e-08 1.09362e-07)
(4.60208e-08 -9.43951e-08 1.29703e-07)
(5.47621e-08 -1.03776e-07 1.5238e-07)
(6.36971e-08 -1.095e-07 1.73014e-07)
(1.68888e-09 -3.43979e-09 2.84658e-09)
(4.70375e-09 -9.64764e-09 8.03995e-09)
(7.45675e-09 -1.55008e-08 1.30948e-08)
(1.00348e-08 -2.12571e-08 1.83162e-08)
(1.25172e-08 -2.71297e-08 2.39751e-08)
(1.49814e-08 -3.32965e-08 3.03241e-08)
(1.7507e-08 -3.99065e-08 3.76064e-08)
(2.01821e-08 -4.70892e-08 4.60642e-08)
(2.31113e-08 -5.4964e-08 5.5945e-08)
(2.64254e-08 -6.36548e-08 6.75061e-08)
(3.03012e-08 -7.33165e-08 8.10243e-08)
(3.49991e-08 -8.41787e-08 9.68166e-08)
(4.09572e-08 -9.66408e-08 1.15308e-07)
(4.89678e-08 -1.11423e-07 1.37135e-07)
(6.03998e-08 -1.29599e-07 1.63062e-07)
(7.47993e-08 -1.49512e-07 1.89865e-07)
(1.41093e-10 -3.2196e-10 2.27991e-10)
(3.93829e-10 -9.00202e-10 6.45175e-10)
(6.27181e-10 -1.43775e-09 1.05468e-09)
(8.50256e-10 -1.95387e-09 1.48377e-09)
(1.0714e-09 -2.46193e-09 1.95676e-09)
(1.29871e-09 -2.96809e-09 2.49649e-09)
(1.54085e-09 -3.47018e-09 3.12458e-09)
(1.80838e-09 -3.95474e-09 3.86138e-09)
(2.11613e-09 -4.39237e-09 4.7256e-09)
(2.48794e-09 -4.72784e-09 5.73232e-09)
(2.96885e-09 -4.86318e-09 6.89099e-09)
(3.65307e-09 -4.62042e-09 8.2049e-09)
(4.75745e-09 -3.65042e-09 9.68286e-09)
(6.76422e-09 -1.21204e-09 1.13576e-08)
(1.05739e-08 4.14132e-09 1.32454e-08)
(1.61516e-08 1.2866e-08 1.45744e-08)
(4.19793e-10 -9.55898e-10 6.7781e-10)
(1.17152e-09 -2.67303e-09 1.91751e-09)
(1.86545e-09 -4.27037e-09 3.13443e-09)
(2.52806e-09 -5.80581e-09 4.40831e-09)
(3.18369e-09 -7.31945e-09 5.81129e-09)
(3.85597e-09 -8.83161e-09 7.41054e-09)
(4.56978e-09 -1.03388e-08 9.26947e-09)
(5.35442e-09 -1.18066e-08 1.14478e-08)
(6.24807e-09 -1.31564e-08 1.39982e-08)
(7.30791e-09 -1.42446e-08 1.69594e-08)
(8.63004e-09 -1.48285e-08 2.03424e-08)
(1.03962e-08 -1.45164e-08 2.41096e-08)
(1.29382e-08 -1.27127e-08 2.81244e-08)
(1.68011e-08 -8.64046e-09 3.20452e-08)
(2.23985e-08 -1.91297e-09 3.49897e-08)
(2.80787e-08 4.91872e-09 3.52622e-08)
(6.8875e-10 -1.56146e-09 1.11044e-09)
(1.92184e-09 -4.36771e-09 3.14104e-09)
(3.05931e-09 -6.98204e-09 5.13313e-09)
(4.14362e-09 -9.50104e-09 7.21628e-09)
(5.21391e-09 -1.19939e-08 9.50776e-09)
(6.30787e-09 -1.44999e-08 1.21167e-08)
(7.46439e-09 -1.70231e-08 1.51465e-08)
(8.72666e-09 -1.95234e-08 1.86944e-08)
(1.01465e-08 -2.19008e-08 2.28467e-08)
(1.17907e-08 -2.39713e-08 2.76653e-08)
(1.37536e-08 -2.54371e-08 3.31629e-08)
(1.61789e-08 -2.58652e-08 3.92553e-08)
(1.92841e-08 -2.47318e-08 4.56797e-08)
(2.33296e-08 -2.16965e-08 5.18374e-08)
(2.82843e-08 -1.74556e-08 5.65404e-08)
(3.25907e-08 -1.49974e-08 5.8079e-08)
(9.41877e-10 -2.11954e-09 1.51535e-09)
(2.62775e-09 -5.93138e-09 4.28584e-09)
(4.18094e-09 -9.48948e-09 7.00078e-09)
(5.65821e-09 -1.29296e-08 9.83567e-09)
(7.1115e-09 -1.63523e-08 1.29481e-08)
(8.59072e-09 -1.98217e-08 1.64855e-08)
(1.01463e-08 -2.33608e-08 2.0588e-08)
(1.18316e-08 -2.69433e-08 2.53884e-08)
(1.37046e-08 -3.04791e-08 3.10062e-08)
(1.5827e-08 -3.37934e-08 3.75312e-08)
(1.82598e-08 -3.66028e-08 4.49882e-08)
(2.10502e-08 -3.8508e-08 5.32729e-08)
(2.41958e-08 -3.90577e-08 6.20354e-08)
(2.75581e-08 -3.80232e-08 7.04752e-08)
(3.06666e-08 -3.60701e-08 7.70386e-08)
(3.24409e-08 -3.53514e-08 7.95127e-08)
(1.17397e-09 -2.6113e-09 1.88355e-09)
(3.27421e-09 -7.31122e-09 5.32546e-09)
(5.20588e-09 -1.17084e-08 8.69377e-09)
(7.03751e-09 -1.59772e-08 1.22029e-08)
(8.83187e-09 -2.02511e-08 1.60457e-08)
(1.0649e-08 -2.46242e-08 2.0402e-08)
(1.2549e-08 -2.91486e-08 2.54439e-08)
(1.45939e-08 -3.38291e-08 3.1336e-08)
(1.68473e-08 -3.86136e-08 3.82309e-08)
(1.93683e-08 -4.33774e-08 4.6251e-08)
(2.21949e-08 -4.7902e-08 5.54537e-08)
(2.53039e-08 -5.18546e-08 6.57554e-08)
(2.85311e-08 -5.47899e-08 7.6797e-08)
(3.14275e-08 -5.62333e-08 8.76683e-08)
(3.31353e-08 -5.60456e-08 9.64663e-08)
(3.28467e-08 -5.53254e-08 1.00222e-07)
(1.38067e-09 -3.01848e-09 2.20763e-09)
(3.84891e-09 -8.45571e-09 6.2391e-09)
(6.11403e-09 -1.35558e-08 1.01768e-08)
(8.25371e-09 -1.85289e-08 1.42672e-08)
(1.0339e-08 -2.35414e-08 1.87307e-08)
(1.24377e-08 -2.87194e-08 2.3773e-08)
(1.46179e-08 -3.41501e-08 2.95908e-08)
(1.69503e-08 -3.98811e-08 3.63743e-08)
(1.95081e-08 -4.5917e-08 4.43043e-08)
(2.23624e-08 -5.22132e-08 5.35388e-08)
(2.55661e-08 -5.86612e-08 6.41804e-08)
(2.91189e-08 -6.5063e-08 7.62164e-08)
(3.2875e-08 -7.10606e-08 8.93701e-08)
(3.63729e-08 -7.59863e-08 1.02807e-07)
(3.85602e-08 -7.86732e-08 1.14496e-07)
(3.80885e-08 -7.81712e-08 1.20604e-07)
(1.55865e-09 -3.32397e-09 2.48228e-09)
(4.34272e-09 -9.31685e-09 7.01181e-09)
(6.89074e-09 -1.49533e-08 1.14254e-08)
(9.28653e-09 -2.04746e-08 1.59929e-08)
(1.16063e-08 -2.60766e-08 2.09546e-08)
(1.39232e-08 -3.1916e-08 2.65329e-08)
(1.63106e-08 -3.81149e-08 3.29402e-08)
(1.88462e-08 -4.47656e-08 4.03822e-08)
(2.16154e-08 -5.19345e-08 4.9058e-08)
(2.47108e-08 -5.96667e-08 5.91503e-08)
(2.82357e-08 -6.79924e-08 7.08099e-08)
(3.22879e-08 -7.69243e-08 8.40958e-08)
(3.69469e-08 -8.64321e-08 9.88939e-08)
(4.21675e-08 -9.6284e-08 1.14606e-07)
(4.74323e-08 -1.05525e-07 1.29379e-07)
(5.08169e-08 -1.1135e-07 1.38575e-07)
(1.70588e-09 -3.51292e-09 2.70462e-09)
(4.75003e-09 -9.85278e-09 7.63551e-09)
(7.52753e-09 -1.58324e-08 1.24266e-08)
(1.01247e-08 -2.17169e-08 1.73623e-08)
(1.26196e-08 -2.7725e-08 2.26932e-08)
(1.50868e-08 -3.40379e-08 2.86496e-08)
(1.76013e-08 -4.08068e-08 3.54483e-08)
(2.02437e-08 -4.81601e-08 4.32977e-08)
(2.31051e-08 -5.6213e-08 5.2398e-08)
(2.62948e-08 -6.50795e-08 6.29366e-08)
(2.99506e-08 -7.4893e-08 7.50726e-08)
(3.42619e-08 -8.58405e-08 8.8913e-08)
(3.95084e-08 -9.82219e-08 1.04444e-07)
(4.61183e-08 -1.12511e-07 1.21323e-07)
(5.45184e-08 -1.29123e-07 1.38131e-07)
(6.33106e-08 -1.45652e-07 1.50096e-07)
(1.41475e-10 -3.27925e-10 2.07725e-10)
(3.94587e-10 -9.16962e-10 5.8746e-10)
(6.2764e-10 -1.46488e-09 9.59767e-10)
(8.48933e-10 -1.9915e-09 1.34839e-09)
(1.06609e-09 -2.51078e-09 1.77512e-09)
(1.28585e-09 -3.02988e-09 2.25942e-09)
(1.5146e-09 -3.5478e-09 2.81887e-09)
(1.7593e-09 -4.05421e-09 3.46901e-09)
(2.02787e-09 -4.52472e-09 4.22076e-09)
(2.33198e-09 -4.91656e-09 5.07735e-09)
(2.69245e-09 -5.15881e-09 6.02659e-09)
(3.15359e-09 -5.1369e-09 7.02849e-09)
(3.80734e-09 -4.66158e-09 7.98849e-09)
(4.84434e-09 -3.39569e-09 8.71391e-09)
(6.5279e-09 -7.79218e-10 8.78422e-09)
(8.5166e-09 3.20648e-09 7.4919e-09)
(4.20938e-10 -9.73517e-10 6.17461e-10)
(1.17404e-09 -2.72255e-09 1.7462e-09)
(1.867e-09 -4.35041e-09 2.85199e-09)
(2.52472e-09 -5.91672e-09 4.00618e-09)
(3.16908e-09 -7.46344e-09 5.27206e-09)
(3.81982e-09 -9.01317e-09 6.70718e-09)
(4.49567e-09 -1.05664e-08 8.36377e-09)
(5.21504e-09 -1.20954e-08 1.02864e-08)
(5.99795e-09 -1.35361e-08 1.2507e-08)
(6.8683e-09 -1.47748e-08 1.50316e-08)
(7.86224e-09 -1.56332e-08 1.78172e-08)
(9.03827e-09 -1.5858e-08 2.07227e-08)
(1.04971e-08 -1.51365e-08 2.34283e-08)
(1.23309e-08 -1.32166e-08 2.52599e-08)
(1.4361e-08 -1.03129e-08 2.50032e-08)
(1.55111e-08 -8.00687e-09 2.17732e-08)
(6.90825e-10 -1.59006e-09 1.01159e-09)
(1.92658e-09 -4.44805e-09 2.86055e-09)
(3.0631e-09 -7.11185e-09 4.67083e-09)
(4.14038e-09 -9.68072e-09 6.55849e-09)
(5.19385e-09 -1.22267e-08 8.62641e-09)
(6.25536e-09 -1.47923e-08 1.09683e-08)
(7.35418e-09 -1.73863e-08 1.36693e-08)
(8.51798e-09 -1.99781e-08 1.68034e-08)
(9.77138e-09 -2.2485e-08 2.0424e-08)
(1.11349e-08 -2.47599e-08 2.45452e-08)
(1.26203e-08 -2.65808e-08 2.91035e-08)
(1.42225e-08 -2.76657e-08 3.38904e-08)
(1.58923e-08 -2.77705e-08 3.84366e-08)
(1.74546e-08 -2.69743e-08 4.18441e-08)
(1.84337e-08 -2.62119e-08 4.27268e-08)
(1.81279e-08 -2.71538e-08 4.0415e-08)
(9.45191e-10 -2.15808e-09 1.38073e-09)
(2.63555e-09 -6.03968e-09 3.90315e-09)
(4.18864e-09 -9.66419e-09 6.3709e-09)
(5.65821e-09 -1.31711e-08 8.94007e-09)
(7.0916e-09 -1.66642e-08 1.17496e-08)
(8.53158e-09 -2.0211e-08 1.4926e-08)
(1.00172e-08 -2.38395e-08 1.85853e-08)
(1.15829e-08 -2.75311e-08 2.28294e-08)
(1.32552e-08 -3.12117e-08 2.77357e-08)
(1.50428e-08 -3.47382e-08 3.33337e-08)
(1.69162e-08 -3.78925e-08 3.95586e-08)
(1.87672e-08 -4.04012e-08 4.61712e-08)
(2.03334e-08 -4.20399e-08 5.26278e-08)
(2.10893e-08 -4.29039e-08 5.79045e-08)
(2.02386e-08 -4.38176e-08 6.04571e-08)
(1.76298e-08 -4.58673e-08 5.93587e-08)
(1.1788e-09 -2.65848e-09 1.71629e-09)
(3.28603e-09 -7.44357e-09 4.85063e-09)
(5.21952e-09 -1.19219e-08 7.91256e-09)
(7.04439e-09 -1.62716e-08 1.10935e-08)
(8.8186e-09 -2.063e-08 1.45631e-08)
(1.05946e-08 -2.50941e-08 1.84765e-08)
(1.24201e-08 -2.97192e-08 2.29763e-08)
(1.43377e-08 -3.45153e-08 2.81901e-08)
(1.63783e-08 -3.9439e-08 3.42198e-08)
(1.85474e-08 -4.43845e-08 4.11175e-08)
(2.07922e-08 -4.91717e-08 4.88348e-08)
(2.29384e-08 -5.3546e-08 5.714e-08)
(2.45709e-08 -5.7209e-08 6.54689e-08)
(2.48785e-08 -5.99265e-08 7.27249e-08)
(2.27061e-08 -6.17712e-08 7.71622e-08)
(1.81359e-08 -6.32448e-08 7.73675e-08)
(1.38726e-09 -3.0726e-09 2.01179e-09)
(3.86577e-09 -8.60763e-09 5.68365e-09)
(6.13544e-09 -1.38005e-08 9.26386e-09)
(8.27094e-09 -1.88658e-08 1.29725e-08)
(1.03384e-08 -2.39735e-08 1.70039e-08)
(1.23984e-08 -2.92518e-08 2.15353e-08)
(1.45073e-08 -3.47893e-08 2.67306e-08)
(1.67167e-08 -4.06336e-08 3.27379e-08)
(1.90694e-08 -4.67898e-08 3.96808e-08)
(2.1586e-08 -5.32142e-08 4.76351e-08)
(2.42358e-08 -5.98033e-08 5.6582e-08)
(2.68712e-08 -6.63703e-08 6.63167e-08)
(2.91098e-08 -7.25953e-08 7.63101e-08)
(3.0121e-08 -7.78961e-08 8.54426e-08)
(2.8525e-08 -8.12696e-08 9.17983e-08)
(2.38129e-08 -8.17179e-08 9.34382e-08)
(1.56731e-09 -3.38324e-09 2.26253e-09)
(4.36522e-09 -9.4831e-09 6.38868e-09)
(6.92147e-09 -1.52209e-08 1.04024e-08)
(9.31685e-09 -2.08427e-08 1.45449e-08)
(1.16234e-08 -2.65473e-08 1.90277e-08)
(1.39076e-08 -3.24928e-08 2.40433e-08)
(1.62322e-08 -3.88004e-08 2.97685e-08)
(1.86587e-08 -4.55581e-08 3.63645e-08)
(2.1245e-08 -5.28241e-08 4.39681e-08)
(2.40415e-08 -6.0628e-08 5.26732e-08)
(2.70719e-08 -6.89695e-08 6.24797e-08)
(3.03113e-08 -7.78116e-08 7.32318e-08)
(3.36024e-08 -8.7025e-08 8.44292e-08)
(3.65303e-08 -9.62177e-08 9.49615e-08)
(3.82033e-08 -1.04262e-07 1.0271e-07)
(3.75181e-08 -1.08587e-07 1.05115e-07)
(1.71663e-09 -3.57526e-09 2.46564e-09)
(4.77867e-09 -1.00276e-08 6.95833e-09)
(7.56833e-09 -1.61139e-08 1.13165e-08)
(1.01697e-08 -2.21037e-08 1.5794e-08)
(1.26573e-08 -2.82187e-08 2.06125e-08)
(1.50999e-08 -3.46407e-08 2.59709e-08)
(1.75642e-08 -4.1518e-08 3.20505e-08)
(2.01166e-08 -4.89718e-08 3.90144e-08)
(2.28266e-08 -5.71024e-08 4.70005e-08)
(2.57668e-08 -6.59964e-08 5.61022e-08)
(2.90139e-08 -7.57364e-08 6.63303e-08)
(3.26448e-08 -8.64141e-08 7.75358e-08)
(3.67318e-08 -9.81431e-08 8.92553e-08)
(4.13302e-08 -1.11039e-07 1.00381e-07)
(4.64013e-08 -1.24976e-07 1.08595e-07)
(5.10772e-08 -1.37638e-07 1.10473e-07)
(1.41367e-10 -3.32895e-10 1.80182e-10)
(3.94038e-10 -9.30941e-10 5.09455e-10)
(6.25739e-10 -1.48747e-09 8.3148e-10)
(8.44286e-10 -2.02284e-09 1.16703e-09)
(1.05617e-09 -2.55161e-09 1.53375e-09)
(1.26662e-09 -3.08156e-09 1.94757e-09)
(1.47973e-09 -3.61328e-09 2.42207e-09)
(1.69848e-09 -4.13868e-09 2.96772e-09)
(1.92443e-09 -4.63884e-09 3.58947e-09)
(2.15802e-09 -5.08129e-09 4.28246e-09)
(2.4e-09 -5.4165e-09 5.02369e-09)
(2.65613e-09 -5.57369e-09 5.75896e-09)
(2.95011e-09 -5.4497e-09 6.388e-09)
(3.33289e-09 -4.87301e-09 6.73817e-09)
(3.87016e-09 -3.51911e-09 6.5857e-09)
(4.3852e-09 -1.15566e-09 5.81804e-09)
(4.20712e-10 -9.8821e-10 5.35641e-10)
(1.17253e-09 -2.76384e-09 1.51412e-09)
(1.8619e-09 -4.41715e-09 2.47131e-09)
(2.51163e-09 -6.00918e-09 3.46732e-09)
(3.1408e-09 -7.58344e-09 4.5553e-09)
(3.76489e-09 -9.1647e-09 5.78184e-09)
(4.39578e-09 -1.07568e-08 7.18701e-09)
(5.04118e-09 -1.23387e-08 8.80137e-09)
(5.70318e-09 -1.38594e-08 1.06393e-08)
(6.37602e-09 -1.52313e-08 1.26848e-08)
(7.04478e-09 -1.63264e-08 1.48673e-08)
(7.68781e-09 -1.69817e-08 1.70243e-08)
(8.27148e-09 -1.70326e-08 1.88344e-08)
(8.7408e-09 -1.63845e-08 1.97664e-08)
(8.95296e-09 -1.5152e-08 1.91425e-08)
(8.69463e-09 -1.39055e-08 1.70541e-08)
(6.90695e-10 -1.61387e-09 8.77634e-10)
(1.92491e-09 -4.51504e-09 2.48052e-09)
(3.05615e-09 -7.21989e-09 4.04752e-09)
(4.12137e-09 -9.83004e-09 5.6768e-09)
(5.15163e-09 -1.24197e-08 7.45437e-09)
(6.17222e-09 -1.50339e-08 9.4563e-09)
(7.20241e-09 -1.76864e-08 1.17484e-08)
(8.25365e-09 -2.03541e-08 1.43817e-08)
(9.325e-09 -2.29704e-08 1.7382e-08)
(1.03955e-08 -2.54189e-08 2.07296e-08)
(1.14121e-08 -2.75344e-08 2.43235e-08)
(1.22724e-08 -2.91306e-08 2.79266e-08)
(1.28012e-08 -3.00938e-08 3.10979e-08)
(1.27404e-08 -3.05792e-08 3.31581e-08)
(1.18432e-08 -3.12433e-08 3.34089e-08)
(1.04295e-08 -3.277e-08 3.21995e-08)
(9.45487e-10 -2.19018e-09 1.19778e-09)
(2.63478e-09 -6.12972e-09 3.38519e-09)
(4.18199e-09 -9.80926e-09 5.52134e-09)
(5.63698e-09 -1.33708e-08 7.73915e-09)
(7.04183e-09 -1.69207e-08 1.01546e-08)
(8.43136e-09 -2.05291e-08 1.28708e-08)
(9.83227e-09 -2.42277e-08 1.59775e-08)
(1.126e-08 -2.80047e-08 1.95462e-08)
(1.27113e-08 -3.17984e-08 2.36173e-08)
(1.41489e-08 -3.54905e-08 2.81757e-08)
(1.54753e-08 -3.89073e-08 3.31091e-08)
(1.64895e-08 -4.18485e-08 3.81477e-08)
(1.68293e-08 -4.41804e-08 4.27947e-08)
(1.59574e-08 -4.60298e-08 4.63156e-08)
(1.34223e-08 -4.7974e-08 4.79856e-08)
(1.00879e-08 -5.03949e-08 4.79889e-08)
(1.17994e-09 -2.69761e-09 1.48919e-09)
(3.28745e-09 -7.55339e-09 4.20738e-09)
(5.21553e-09 -1.20983e-08 6.85839e-09)
(7.02528e-09 -1.65136e-08 9.60483e-09)
(8.76879e-09 -2.09387e-08 1.25887e-08)
(1.04898e-08 -2.54726e-08 1.59362e-08)
(1.22233e-08 -3.01724e-08 1.97584e-08)
(1.39914e-08 -3.50503e-08 2.41456e-08)
(1.57947e-08 -4.00683e-08 2.91544e-08)
(1.75927e-08 -4.51306e-08 3.47803e-08)
(1.92682e-08 -5.00771e-08 4.09157e-08)
(2.05629e-08 -5.46852e-08 4.72814e-08)
(2.09854e-08 -5.86952e-08 5.33607e-08)
(1.97531e-08 -6.18757e-08 5.83786e-08)
(1.60984e-08 -6.41469e-08 6.15299e-08)
(1.10669e-08 -6.56118e-08 6.27087e-08)
(1.38969e-09 -3.11742e-09 1.74596e-09)
(3.87053e-09 -8.73318e-09 4.93073e-09)
(6.13658e-09 -1.40018e-08 8.0311e-09)
(8.25822e-09 -1.9141e-08 1.12339e-08)
(1.02958e-08 -2.43222e-08 1.47019e-08)
(1.23015e-08 -2.96746e-08 1.85797e-08)
(1.43186e-08 -3.52853e-08 2.29951e-08)
(1.63797e-08 -4.11994e-08 2.80536e-08)
(1.84984e-08 -4.7417e-08 3.38256e-08)
(2.06526e-08 -5.38863e-08 4.03194e-08)
(2.27513e-08 -6.04911e-08 4.74349e-08)
(2.45752e-08 -6.70269e-08 5.49002e-08)
(2.56701e-08 -7.31364e-08 6.21726e-08)
(2.52453e-08 -7.81814e-08 6.84269e-08)
(2.23084e-08 -8.10704e-08 7.2731e-08)
(1.72899e-08 -8.07973e-08 7.47592e-08)
(1.57128e-09 -3.43213e-09 1.96385e-09)
(4.37443e-09 -9.61998e-09 5.54341e-09)
(6.92975e-09 -1.54401e-08 9.01997e-09)
(9.31416e-09 -2.11412e-08 1.25983e-08)
(1.15943e-08 -2.69236e-08 1.6456e-08)
(1.38287e-08 -3.29444e-08 2.07502e-08)
(1.60685e-08 -3.93208e-08 2.56192e-08)
(1.83576e-08 -4.61331e-08 3.11778e-08)
(2.07281e-08 -5.34245e-08 3.75045e-08)
(2.31911e-08 -6.11991e-08 4.46137e-08)
(2.57214e-08 -6.94156e-08 5.2417e-08)
(2.82178e-08 -7.7961e-08 6.06242e-08)
(3.04603e-08 -8.65904e-08 6.86749e-08)
(3.20478e-08 -9.47448e-08 7.56154e-08)
(3.24297e-08 -1.01163e-07 8.0243e-08)
(3.14254e-08 -1.03654e-07 8.20175e-08)
(1.72241e-09 -3.62651e-09 2.14056e-09)
(4.79297e-09 -1.01711e-08 6.0389e-09)
(7.5852e-09 -1.63434e-08 9.81459e-09)
(1.01796e-08 -2.24156e-08 1.36836e-08)
(1.26459e-08 -2.86103e-08 1.78319e-08)
(1.50463e-08 -3.5107e-08 2.24224e-08)
(1.7437e-08 -4.20482e-08 2.7597e-08)
(1.98696e-08 -4.95431e-08 3.34718e-08)
(2.23912e-08 -5.76703e-08 4.01245e-08)
(2.50426e-08 -6.64797e-08 4.75696e-08)
(2.78535e-08 -7.59914e-08 5.57081e-08)
(3.08379e-08 -8.61922e-08 6.42506e-08)
(3.39937e-08 -9.70251e-08 7.25879e-08)
(3.73488e-08 -1.08363e-07 7.96308e-08)
(4.10621e-08 -1.1986e-07 8.37513e-08)
(4.50715e-08 -1.29797e-07 8.38588e-08)
(1.40964e-10 -3.36834e-10 1.46524e-10)
(3.92585e-10 -9.41985e-10 4.14022e-10)
(6.22521e-10 -1.50527e-09 6.75599e-10)
(8.37852e-10 -2.04764e-09 9.47026e-10)
(1.0441e-09 -2.5838e-09 1.24282e-09)
(1.24509e-09 -3.12228e-09 1.57477e-09)
(1.4429e-09 -3.66474e-09 1.95275e-09)
(1.63719e-09 -4.20477e-09 2.38315e-09)
(1.82486e-09 -4.72729e-09 2.86734e-09)
(1.99896e-09 -5.2063e-09 3.39722e-09)
(2.14957e-09 -5.60395e-09 3.95003e-09)
(2.26766e-09 -5.86839e-09 4.48147e-09)
(2.35312e-09 -5.92523e-09 4.91837e-09)
(2.43559e-09 -5.6371e-09 5.18109e-09)
(2.57661e-09 -4.69213e-09 5.23642e-09)
(2.7397e-09 -2.72514e-09 5.16089e-09)
(4.19568e-10 -9.99846e-10 4.35526e-10)
(1.16856e-09 -2.79651e-09 1.23099e-09)
(1.85286e-09 -4.46997e-09 2.00763e-09)
(2.49329e-09 -6.0822e-09 2.8141e-09)
(3.10632e-09 -7.67822e-09 3.6916e-09)
(3.70326e-09 -9.28404e-09 4.67568e-09)
(4.29002e-09 -1.09059e-08 5.79505e-09)
(4.86565e-09 -1.25281e-08 7.06911e-09)
(5.41892e-09 -1.41082e-08 8.50095e-09)
(5.92525e-09 -1.55747e-08 1.00667e-08)
(6.34464e-09 -1.68258e-08 1.16985e-08)
(6.62296e-09 -1.77365e-08 1.3258e-08)
(6.70778e-09 -1.81763e-08 1.45249e-08)
(6.57911e-09 -1.80269e-08 1.51935e-08)
(6.30219e-09 -1.71965e-08 1.50059e-08)
(6.06806e-09 -1.58556e-08 1.41801e-08)
(6.89087e-10 -1.63277e-09 7.13668e-10)
(1.91923e-09 -4.56811e-09 2.01678e-09)
(3.0428e-09 -7.30537e-09 3.28864e-09)
(4.09385e-09 -9.94793e-09 4.60782e-09)
(5.09901e-09 -1.25712e-08 6.04168e-09)
(6.0776e-09 -1.52225e-08 7.64809e-09)
(7.0401e-09 -1.79186e-08 9.47466e-09)
(7.98477e-09 -2.06418e-08 1.15537e-08)
(8.89216e-09 -2.33359e-08 1.38933e-08)
(9.71598e-09 -2.5902e-08 1.64601e-08)
(1.03725e-08 -2.82023e-08 1.91544e-08)
(1.07317e-08 -3.00842e-08 2.17807e-08)
(1.06254e-08 -3.14474e-08 2.40304e-08)
(9.91333e-09 -3.23661e-08 2.55252e-08)
(8.69127e-09 -3.32123e-08 2.60387e-08)
(7.67206e-09 -3.43555e-08 2.5952e-08)
(9.43839e-10 -2.2156e-09 9.74308e-10)
(2.62855e-09 -6.20107e-09 2.75245e-09)
(4.16663e-09 -9.92388e-09 4.48671e-09)
(5.60395e-09 -1.35278e-08 6.28268e-09)
(6.97756e-09 -1.71209e-08 8.23143e-09)
(8.31475e-09 -2.07749e-08 1.04116e-08)
(9.63142e-09 -2.45236e-08 1.28882e-08)
(1.09279e-08 -2.8359e-08 1.57074e-08)
(1.21794e-08 -3.2226e-08 1.88846e-08)
(1.33221e-08 -3.60181e-08 2.23847e-08)
(1.423e-08 -3.95783e-08 2.60931e-08)
(1.46872e-08 -4.27226e-08 2.97845e-08)
(1.43726e-08 -4.53076e-08 3.3114e-08)
(1.29322e-08 -4.7367e-08 3.56838e-08)
(1.03242e-08 -4.92453e-08 3.72783e-08)
(7.71999e-09 -5.11831e-08 3.81267e-08)
(1.17866e-09 -2.72862e-09 1.21142e-09)
(3.282e-09 -7.64017e-09 3.42158e-09)
(5.20057e-09 -1.22372e-08 5.57412e-09)
(6.99125e-09 -1.67028e-08 7.79858e-09)
(8.70022e-09 -2.11775e-08 1.02063e-08)
(1.03634e-08 -2.5761e-08 1.2894e-08)
(1.20041e-08 -3.05106e-08 1.59423e-08)
(1.36285e-08 -3.5438e-08 1.941e-08)
(1.52158e-08 -4.05051e-08 2.33213e-08)
(1.67004e-08 -4.56158e-08 2.76448e-08)
(1.79413e-08 -5.06083e-08 3.22601e-08)
(1.86784e-08 -5.52514e-08 3.69285e-08)
(1.84855e-08 -5.92536e-08 4.12805e-08)
(1.6801e-08 -6.23005e-08 4.48999e-08)
(1.32912e-08 -6.41755e-08 4.75415e-08)
(9.23121e-09 -6.50078e-08 4.92439e-08)
(1.38919e-09 -3.15282e-09 1.42045e-09)
(3.86719e-09 -8.83218e-09 4.01056e-09)
(6.12469e-09 -1.41597e-08 6.52844e-09)
(8.2275e-09 -1.93547e-08 9.12304e-09)
(1.02305e-08 -2.45895e-08 1.19222e-08)
(1.21775e-08 -2.99923e-08 1.50368e-08)
(1.41008e-08 -3.56474e-08 1.85597e-08)
(1.60172e-08 -4.15946e-08 2.25601e-08)
(1.79204e-08 -4.7825e-08 2.70698e-08)
(1.97657e-08 -5.42722e-08 3.20608e-08)
(2.14438e-08 -6.07964e-08 3.74116e-08)
(2.27374e-08 -6.71526e-08 4.28596e-08)
(2.32707e-08 -7.29271e-08 4.80094e-08)
(2.24804e-08 -7.74063e-08 5.23801e-08)
(1.98086e-08 -7.9472e-08 5.56573e-08)
(1.58869e-08 -7.83743e-08 5.78184e-08)
(1.57192e-09 -3.47064e-09 1.59807e-09)
(4.37435e-09 -9.72753e-09 4.50975e-09)
(6.92301e-09 -1.56112e-08 7.3337e-09)
(9.29075e-09 -2.13718e-08 1.02332e-08)
(1.15386e-08 -2.72094e-08 1.3348e-08)
(1.37175e-08 -3.32789e-08 1.67986e-08)
(1.58684e-08 -3.96922e-08 2.06858e-08)
(1.80208e-08 -4.65191e-08 2.50845e-08)
(2.01889e-08 -5.37855e-08 3.00304e-08)
(2.23645e-08 -6.14679e-08 3.54971e-08)
(2.45032e-08 -6.94784e-08 4.13481e-08)
(2.65133e-08 -7.76398e-08 4.73091e-08)
(2.82383e-08 -8.56154e-08 5.2907e-08)
(2.94857e-08 -9.27644e-08 5.75311e-08)
(3.0106e-08 -9.78801e-08 6.06723e-08)
(3.01211e-08 -9.92867e-08 6.23579e-08)
(1.72452e-09 -3.66677e-09 1.74218e-09)
(4.797e-09 -1.02835e-08 4.91377e-09)
(7.58541e-09 -1.65218e-08 7.98125e-09)
(1.01663e-08 -2.26552e-08 1.11173e-08)
(1.26047e-08 -2.89054e-08 1.4468e-08)
(1.49559e-08 -3.54484e-08 1.81589e-08)
(1.72669e-08 -4.24192e-08 2.22933e-08)
(1.95771e-08 -4.9913e-08 2.69469e-08)
(2.1918e-08 -5.79859e-08 3.21537e-08)
(2.43124e-08 -6.66502e-08 3.78803e-08)
(2.67755e-08 -7.58689e-08 4.39856e-08)
(2.93208e-08 -8.5546e-08 5.01602e-08)
(3.1995e-08 -9.5519e-08 5.58696e-08)
(3.49844e-08 -1.05572e-07 6.03299e-08)
(3.87849e-08 -1.15453e-07 6.26935e-08)
(4.35658e-08 -1.24089e-07 6.27834e-08)
(1.40428e-10 -3.39705e-10 1.08028e-10)
(3.90881e-10 -9.5006e-10 3.05359e-10)
(6.18999e-10 -1.51838e-09 4.97648e-10)
(8.31185e-10 -2.06549e-09 6.97261e-10)
(1.03263e-09 -2.60752e-09 9.13961e-10)
(1.22554e-09 -3.15228e-09 1.15611e-09)
(1.41048e-09 -3.70219e-09 1.43015e-09)
(1.58512e-09 -4.25226e-09 1.73987e-09)
(1.74342e-09 -4.78911e-09 2.08475e-09)
(1.87519e-09 -5.2899e-09 2.45755e-09)
(1.96736e-09 -5.72096e-09 2.84091e-09)
(2.00912e-09 -6.03474e-09 3.20441e-09)
(2.00537e-09 -6.15867e-09 3.5119e-09)
(1.99743e-09 -5.94541e-09 3.73284e-09)
(2.07274e-09 -5.06261e-09 3.90286e-09)
(2.22394e-09 -3.11405e-09 4.07961e-09)
(4.18103e-10 -1.00841e-09 3.21265e-10)
(1.16377e-09 -2.82059e-09 9.07495e-10)
(1.84276e-09 -4.50854e-09 1.47946e-09)
(2.47491e-09 -6.13644e-09 2.07209e-09)
(3.07324e-09 -7.74783e-09 2.71495e-09)
(3.6466e-09 -9.37103e-09 3.43274e-09)
(4.19638e-09 -1.10137e-08 4.24451e-09)
(4.71554e-09 -1.26625e-08 5.16132e-09)
(5.1854e-09 -1.42799e-08 6.1816e-09)
(5.57304e-09 -1.58013e-08 7.28351e-09)
(5.83202e-09 -1.71331e-08 8.41446e-09)
(5.91245e-09 -1.81555e-08 9.48538e-09)
(5.78867e-09 -1.87233e-08 1.03622e-08)
(5.51531e-09 -1.86585e-08 1.08978e-08)
(5.28867e-09 -1.77419e-08 1.09897e-08)
(5.34382e-09 -1.60921e-08 1.07159e-08)
(6.86957e-10 -1.64673e-09 5.26431e-10)
(1.91212e-09 -4.60724e-09 1.48695e-09)
(3.02807e-09 -7.36874e-09 2.42366e-09)
(4.06537e-09 -1.00344e-08 3.39312e-09)
(5.04823e-09 -1.26824e-08 4.4437e-09)
(5.99035e-09 -1.53597e-08 5.61561e-09)
(6.89574e-09 -1.80851e-08 6.94039e-09)
(7.75413e-09 -2.08439e-08 8.43705e-09)
(8.53543e-09 -2.35843e-08 1.01049e-08)
(9.18313e-09 -2.62138e-08 1.19122e-08)
(9.60951e-09 -2.86005e-08 1.37828e-08)
(9.70005e-09 -3.05891e-08 1.5585e-08)
(9.34611e-09 -3.20441e-08 1.71354e-08)
(8.54183e-09 -3.29446e-08 1.82464e-08)
(7.57342e-09 -3.35053e-08 1.88418e-08)
(7.11657e-09 -3.41199e-08 1.90775e-08)
(9.41397e-10 -2.23446e-09 7.18545e-10)
(2.62034e-09 -6.25388e-09 2.0298e-09)
(4.14864e-09 -1.00083e-08 3.30699e-09)
(5.56949e-09 -1.36434e-08 4.62713e-09)
(6.91445e-09 -1.72667e-08 6.05507e-09)
(8.20568e-09 -2.09517e-08 7.64573e-09)
(9.45105e-09 -2.47325e-08 9.44248e-09)
(1.06406e-08 -2.86022e-08 1.14725e-08)
(1.17381e-08 -3.25074e-08 1.37384e-08)
(1.26703e-08 -3.63426e-08 1.62041e-08)
(1.33122e-08 -3.99486e-08 1.87797e-08)
(1.34782e-08 -4.31271e-08 2.13117e-08)
(1.29371e-08 -4.56914e-08 2.35928e-08)
(1.15115e-08 -4.75767e-08 2.54279e-08)
(9.37259e-09 -4.90078e-08 2.67446e-08)
(7.55639e-09 -5.03361e-08 2.75767e-08)
(1.17627e-09 -2.75154e-09 8.93624e-10)
(3.27383e-09 -7.7044e-09 2.52355e-09)
(5.18219e-09 -1.23398e-08 4.10916e-09)
(6.95387e-09 -1.6841e-08 5.74437e-09)
(8.63135e-09 -2.13504e-08 7.50896e-09)
(1.02433e-08 -2.59664e-08 9.47037e-09)
(1.18048e-08 -3.07453e-08 1.16825e-08)
(1.33117e-08 -3.5697e-08 1.41803e-08)
(1.47318e-08 -4.07791e-08 1.69706e-08)
(1.5992e-08 -4.58886e-08 2.0016e-08)
(1.69583e-08 -5.08502e-08 2.32198e-08)
(1.74124e-08 -5.54078e-08 2.64111e-08)
(1.70371e-08 -5.92215e-08 2.93648e-08)
(1.54721e-08 -6.19063e-08 3.18727e-08)
(1.26006e-08 -6.31917e-08 3.38457e-08)
(9.49008e-09 -6.33858e-08 3.5197e-08)
(1.38734e-09 -3.17905e-09 1.04808e-09)
(3.86021e-09 -8.90527e-09 2.95843e-09)
(6.10757e-09 -1.42756e-08 4.81343e-09)
(8.19193e-09 -1.95106e-08 6.7211e-09)
(1.01623e-08 -2.47814e-08 8.77293e-09)
(1.20567e-08 -3.02154e-08 1.10465e-08)
(1.3899e-08 -3.58934e-08 1.3604e-08)
(1.56959e-08 -4.18489e-08 1.64866e-08)
(1.7431e-08 -4.80627e-08 1.97043e-08)
(1.90539e-08 -5.44513e-08 2.32192e-08)
(2.04651e-08 -6.08492e-08 2.69239e-08)
(2.14957e-08 -6.69759e-08 3.06299e-08)
(2.18839e-08 -7.23706e-08 3.40747e-08)
(2.12729e-08 -7.62835e-08 3.70054e-08)
(1.93207e-08 -7.76336e-08 3.92976e-08)
(1.64254e-08 -7.59412e-08 4.08684e-08)
(1.57085e-09 -3.49908e-09 1.17928e-09)
(4.36964e-09 -9.80678e-09 3.32719e-09)
(6.90975e-09 -1.57365e-08 5.40803e-09)
(9.2597e-09 -2.15387e-08 7.54027e-09)
(1.14768e-08 -2.7413e-08 9.82408e-09)
(1.36053e-08 -3.3511e-08 1.23439e-08)
(1.56784e-08 -3.99392e-08 1.51671e-08)
(1.77165e-08 -4.67572e-08 1.83383e-08)
(1.97247e-08 -5.39747e-08 2.18685e-08)
(2.169e-08 -6.15422e-08 2.57149e-08)
(2.35804e-08 -6.93371e-08 2.9762e-08)
(2.5345e-08 -7.71333e-08 3.37863e-08)
(2.69382e-08 -8.45498e-08 3.74693e-08)
(2.83579e-08 -9.09382e-08 4.04525e-08)
(2.96569e-08 -9.52116e-08 4.25029e-08)
(3.06318e-08 -9.60651e-08 4.36675e-08)
(1.72453e-09 -3.69648e-09 1.28582e-09)