/*--------------------------------*- C++ -*----------------------------------*\
| =========                 |                                                 |
| \\      /  F ield         | OpenFOAM: The Open Source CFD Toolbox           |
|  \\    /   O peration     | Version:  v1912                                 |
|   \\  /    A nd           | Website:  www.openfoam.com                      |
|    \\/     M anipulation  |                                                 |
\*---------------------------------------------------------------------------*/
FoamFile
{
    version     2.0;
    format      ascii;
    class       surfaceScalarField;
    location    "0.68/fluid";
    object      meshPhi;
}
// * * * * * * * * * * * * * * * * * * * * * * * * * * * * * * * * * * * * * //

dimensions      [0 3 -1 0 0 0 0];
oriented        oriented;


internalField   nonuniform List<scalar> 
41600
(
1.64776e-13
-4.17004e-13
1.5649e-13
-1.61663e-13
3.1469e-13
-1.21473e-12
4.61222e-13
-4.76711e-13
4.55801e-13
-1.95492e-12
7.5998e-13
-7.8625e-13
5.93659e-13
-2.66361e-12
1.0726e-12
-1.11116e-12
7.3364e-13
-3.35832e-12
1.41696e-12
-1.47038e-12
8.81443e-13
-4.04682e-12
1.8098e-12
-1.88193e-12
1.04384e-12
-4.72488e-12
2.26713e-12
-2.36349e-12
1.22986e-12
-5.37187e-12
2.8044e-12
-2.9328e-12
1.45297e-12
-5.94274e-12
3.43609e-12
-3.60785e-12
1.73585e-12
-6.35372e-12
4.17508e-12
-4.40733e-12
2.12051e-12
-6.4562e-12
5.03203e-12
-5.35259e-12
2.69059e-12
-5.98628e-12
6.01715e-12
-6.47577e-12
3.61302e-12
-4.46581e-12
7.14802e-12
-7.84392e-12
5.18065e-12
-1.04837e-12
8.46064e-12
-9.61194e-12
7.50833e-12
5.13603e-12
9.93268e-12
-1.19446e-11
1.54243e-11
1.24611e-11
-1.81664e-11
4.90373e-13
-8.217e-13
4.65411e-13
-4.80806e-13
9.36394e-13
-2.39415e-12
1.37161e-12
-1.41769e-12
1.35591e-12
-3.85475e-12
2.25975e-12
-2.33787e-12
1.7652e-12
-5.25579e-12
3.18857e-12
-3.30313e-12
2.18005e-12
-6.6334e-12
4.21099e-12
-4.36957e-12
2.61705e-12
-8.00574e-12
5.37656e-12
-5.59047e-12
3.09555e-12
-9.36921e-12
6.73269e-12
-7.01811e-12
3.64054e-12
-1.06913e-11
8.3249e-12
-8.70468e-12
4.28778e-12
-1.18978e-11
1.01956e-11
-1.07024e-11
5.09406e-12
-1.28528e-11
1.23807e-11
-1.30634e-11
6.15796e-12
-1.33268e-11
1.49052e-11
-1.58408e-11
7.66155e-12
-1.29542e-11
1.77789e-11
-1.90986e-11
9.93371e-12
-1.12017e-11
2.09951e-11
-2.29422e-11
1.34648e-11
-7.45534e-12
2.45192e-11
-2.75716e-11
1.81973e-11
-1.76282e-12
2.81137e-11
-3.30155e-11
4.9891e-12
3.08896e-11
-3.99922e-11
8.04361e-13
-1.20197e-12
7.62483e-13
-7.87715e-13
1.53555e-12
-3.50336e-12
2.2468e-12
-2.3223e-12
2.22232e-12
-5.64472e-12
3.7006e-12
-3.82845e-12
2.89075e-12
-7.70505e-12
5.21936e-12
-5.40658e-12
3.56606e-12
-9.74105e-12
6.88905e-12
-7.14781e-12
4.27447e-12
-1.17856e-11
8.79019e-12
-9.13869e-12
5.04563e-12
-1.38437e-11
1.09999e-11
-1.14641e-11
5.91595e-12
-1.58849e-11
1.35924e-11
-1.42084e-11
6.93365e-12
-1.78303e-11
1.6636e-11
-1.74551e-11
8.16745e-12
-1.95326e-11
2.01872e-11
-2.12837e-11
9.72197e-12
-2.07499e-11
2.42777e-11
-2.57639e-11
1.17636e-11
-2.11238e-11
2.88944e-11
-3.09501e-11
1.45416e-11
-2.02014e-11
3.39481e-11
-3.68753e-11
1.83202e-11
-1.76132e-11
3.92119e-11
-4.35267e-11
2.26971e-11
-1.36998e-11
4.41362e-11
-5.04697e-11
-9.38163e-12
4.80071e-11
-5.89426e-11
1.09962e-12
-1.54544e-12
1.04055e-12
-1.07496e-12
2.09833e-12
-4.50645e-12
3.06552e-12
-3.1684e-12
3.03443e-12
-7.26755e-12
5.04682e-12
-5.22083e-12
3.94253e-12
-9.93463e-12
7.11333e-12
-7.36776e-12
4.85597e-12
-1.25867e-11
9.38094e-12
-9.73197e-12
5.80893e-12
-1.52758e-11
1.19583e-11
-1.24301e-11
6.83893e-12
-1.8024e-11
1.49497e-11
-1.55765e-11
7.98968e-12
-2.08174e-11
1.84558e-11
-1.92851e-11
9.31422e-12
-2.3596e-11
2.25705e-11
-2.36684e-11
1.0878e-11
-2.62369e-11
2.7372e-11
-2.88317e-11
1.27622e-11
-2.85338e-11
3.2903e-11
-3.48604e-11
1.50635e-11
-3.01764e-11
3.91374e-11
-4.17973e-11
1.78762e-11
-3.07584e-11
4.59208e-11
-4.96024e-11
2.12124e-11
-2.98819e-11
5.28683e-11
-5.80755e-11
2.45891e-11
-2.75906e-11
5.91581e-11
-6.64448e-11
-2.42516e-11
6.37157e-11
-7.55467e-11
1.36986e-12
-1.83991e-12
1.2933e-12
-1.33598e-12
2.61247e-12
-5.3678e-12
3.80894e-12
-3.93648e-12
3.77403e-12
-8.66567e-12
6.26677e-12
-6.4822e-12
4.89614e-12
-1.18654e-11
8.82458e-12
-9.13902e-12
6.01864e-12
-1.50692e-11
1.1624e-11
-1.20569e-11
7.18198e-12
-1.8351e-11
1.47975e-11
-1.5378e-11
8.42965e-12
-2.17565e-11
1.84731e-11
-1.92421e-11
9.81057e-12
-2.52996e-11
2.27749e-11
-2.37887e-11
1.13805e-11
-2.89573e-11
2.78213e-11
-2.91572e-11
1.32008e-11
-3.26589e-11
3.37152e-11
-3.54806e-11
1.53326e-11
-3.62701e-11
4.05232e-11
-4.28694e-11
1.7819e-11
-3.95668e-11
4.82346e-11
-5.13818e-11
2.06405e-11
-4.21934e-11
5.66834e-11
-6.09592e-11
2.36274e-11
-4.3614e-11
6.53951e-11
-7.12964e-11
2.62232e-11
-4.32765e-11
7.32738e-11
-8.13142e-11
-4.04878e-11
7.88262e-11
-9.14127e-11
1.60997e-12
-2.07374e-12
1.51566e-12
-1.56553e-12
3.06807e-12
-6.0533e-12
4.46199e-12
-4.61088e-12
4.42651e-12
-9.78327e-12
7.33511e-12
-7.58627e-12
5.73206e-12
-1.34192e-11
1.03163e-11
-1.06822e-11
7.02932e-12
-1.70852e-11
1.35676e-11
-1.40702e-11
8.36327e-12
-2.08779e-11
1.72404e-11
-1.79124e-11
9.78182e-12
-2.48687e-11
2.14806e-11
-2.23679e-11
1.13384e-11
-2.91047e-11
2.64314e-11
-2.75966e-11
1.30935e-11
-3.36088e-11
3.22322e-11
-3.37606e-11
1.51135e-11
-3.83782e-11
3.90115e-11
-4.102e-11
1.74652e-11
-4.33798e-11
4.68706e-11
-4.95223e-11
2.02001e-11
-4.85349e-11
5.58481e-11
-5.93766e-11
2.33098e-11
-5.36704e-11
6.58436e-11
-7.05922e-11
2.66257e-11
-5.83801e-11
7.64317e-11
-8.29219e-11
2.95105e-11
-6.17829e-11
8.63758e-11
-9.51345e-11
-6.15103e-11
9.38299e-11
-1.07431e-10
1.8162e-12
-2.23646e-12
1.70404e-12
-1.75988e-12
3.458e-12
-6.53204e-12
5.01401e-12
-5.1806e-12
4.98148e-12
-1.05694e-11
8.23407e-12
-8.51466e-12
6.43663e-12
-1.45234e-11
1.15628e-11
-1.19707e-11
7.87079e-12
-1.85369e-11
1.51766e-11
-1.57354e-11
9.33142e-12
-2.27265e-11
1.92394e-11
-1.99841e-11
1.0869e-11
-2.71869e-11
2.39084e-11
-2.48879e-11
1.25404e-11
-3.1996e-11
2.93383e-11
-3.06189e-11
1.44116e-11
-3.72191e-11
3.56817e-11
-3.73531e-11
1.65607e-11
-4.29166e-11
4.30859e-11
-4.52705e-11
1.90812e-11
-4.91541e-11
5.16844e-11
-5.45524e-11
2.20855e-11
-5.60166e-11
6.1577e-11
-6.53727e-11
2.56956e-11
-6.36183e-11
7.27796e-11
-7.78675e-11
2.99769e-11
-7.20489e-11
8.50593e-11
-9.20115e-11
3.43911e-11
-8.08427e-11
9.72862e-11
-1.06703e-10
-8.95901e-11
1.07498e-10
-1.22695e-10
1.98636e-12
1.85648e-12
-1.91703e-12
-2.31931e-12
3.77831e-12
5.45942e-12
-5.63989e-12
-6.77839e-12
5.43354e-12
8.95469e-12
-9.25817e-12
-1.09817e-11
7.00306e-12
1.25515e-11
-1.29917e-11
-1.51174e-11
8.53473e-12
1.64343e-11
-1.70353e-11
-1.93414e-11
1.00761e-11
2.07722e-11
-2.15701e-11
-2.37849e-11
1.16776e-11
2.57262e-11
-2.67708e-11
-2.856e-11
1.33959e-11
3.14524e-11
-3.28109e-11
-3.37657e-11
1.52989e-11
3.81043e-11
-3.98672e-11
-3.9495e-11
1.74707e-11
4.58313e-11
-4.81209e-11
-4.58439e-11
2.00225e-11
5.47752e-11
-5.77608e-11
-5.29259e-11
2.3109e-11
6.5062e-11
-6.89865e-11
-6.08937e-11
2.69468e-11
7.67758e-11
-8.20058e-11
-6.99653e-11
3.17774e-11
8.98423e-11
-9.69686e-11
-8.04113e-11
3.71171e-11
1.03266e-10
-1.12934e-10
-9.18036e-11
1.16197e-10
-1.32684e-10
-1.06936e-10
1.65923e-13
-4.26064e-13
1.45621e-13
3.16649e-13
-1.24123e-12
4.29006e-13
4.5806e-13
-1.99801e-12
7.06306e-13
5.95456e-13
-2.72343e-12
9.95567e-13
7.33809e-13
-3.43598e-12
1.31288e-12
8.78129e-13
-4.14454e-12
1.67298e-12
1.03402e-12
-4.84635e-12
2.08942e-12
1.20849e-12
-5.52327e-12
2.57426e-12
1.41161e-12
-6.13523e-12
3.137e-12
1.65998e-12
-6.609e-12
3.78216e-12
1.98457e-12
-6.81929e-12
4.50485e-12
2.44711e-12
-6.55558e-12
5.28294e-12
3.16798e-12
-5.46503e-12
6.06204e-12
4.33831e-12
-2.99367e-12
6.72363e-12
5.97751e-12
1.29568e-12
7.04275e-12
7.02559e-12
6.67535e-12
4.93833e-13
-8.39473e-13
4.3308e-13
9.42332e-13
-2.44613e-12
1.27579e-12
1.36286e-12
-3.93929e-12
2.10015e-12
1.771e-12
-5.3732e-12
2.95962e-12
2.18135e-12
-6.78585e-12
3.90185e-12
2.60854e-12
-8.19738e-12
4.97046e-12
3.06857e-12
-9.60676e-12
6.20562e-12
3.58076e-12
-1.09856e-11
7.64311e-12
4.17115e-12
-1.22682e-11
9.31099e-12
4.87974e-12
-1.33353e-11
1.12222e-11
5.77535e-12
-1.39937e-11
1.33605e-11
6.98458e-12
-1.39552e-11
1.56552e-11
8.73042e-12
-1.28465e-11
1.79339e-11
1.13076e-11
-1.03514e-11
1.98392e-11
1.45687e-11
-6.76818e-12
2.07765e-11
-4.01034e-12
1.92992e-11
8.10218e-13
-1.22784e-12
7.09527e-13
1.54572e-12
-3.57905e-12
2.08989e-12
2.23454e-12
-5.76785e-12
3.43933e-12
2.90173e-12
-7.8761e-12
4.84486e-12
3.57074e-12
-9.96306e-12
6.38389e-12
4.26478e-12
-1.20642e-11
8.12738e-12
5.00847e-12
-1.41876e-11
1.01409e-11
5.8297e-12
-1.63076e-11
1.24831e-11
6.76228e-12
-1.83543e-11
1.52007e-11
7.85037e-12
-2.01983e-11
1.8316e-11
9.15662e-12
-2.16352e-11
2.1804e-11
1.07744e-11
-2.23835e-11
2.55503e-11
1.28312e-11
-2.21405e-11
2.92788e-11
1.54146e-11
-2.07924e-11
3.24441e-11
1.81676e-11
-1.88549e-11
3.42332e-11
-1.78685e-11
3.33722e-11
1.10804e-12
-1.57856e-12
9.68329e-13
2.11315e-12
-4.60336e-12
2.85159e-12
3.05284e-12
-7.42525e-12
4.69085e-12
3.96049e-12
-1.01537e-11
6.6036e-12
4.86729e-12
-1.28708e-11
8.69427e-12
5.80382e-12
-1.56315e-11
1.10587e-11
6.80159e-12
-1.8461e-11
1.37859e-11
7.89415e-12
-2.13496e-11
1.69565e-11
9.11739e-12
-2.42446e-11
2.06363e-11
1.0508e-11
-2.70374e-11
2.48614e-11
1.20983e-11
-2.95505e-11
2.96089e-11
1.39036e-11
-3.15323e-11
3.47435e-11
1.58901e-11
-3.26908e-11
3.99283e-11
1.79076e-11
-3.28282e-11
4.45004e-11
1.95644e-11
-3.21511e-11
4.74705e-11
-3.17545e-11
4.73991e-11
1.38104e-12
-1.87919e-12
1.20364e-12
2.63244e-12
-5.48277e-12
3.54349e-12
3.79964e-12
-8.85279e-12
5.82544e-12
4.923e-12
-1.21253e-11
8.19341e-12
6.04016e-12
-1.5406e-11
1.07751e-11
7.18782e-12
-1.87719e-11
1.36876e-11
8.40325e-12
-2.22712e-11
1.70404e-11
9.72487e-12
-2.59208e-11
2.0934e-11
1.11908e-11
-2.97018e-11
2.54535e-11
1.2833e-11
-3.35514e-11
3.06533e-11
1.46624e-11
-3.73499e-11
3.65255e-11
1.6638e-11
-4.09028e-11
4.29411e-11
1.86077e-11
-4.39143e-11
4.95469e-11
2.02341e-11
-4.59648e-11
5.56074e-11
2.10488e-11
-4.66437e-11
5.99327e-11
-4.62815e-11
6.07935e-11
1.62406e-12
-2.1179e-12
1.41077e-12
3.09358e-12
-6.18253e-12
4.15158e-12
4.46018e-12
-9.99366e-12
6.81958e-12
5.76952e-12
-1.37115e-11
9.58014e-12
7.0642e-12
-1.74638e-11
1.25795e-11
8.38575e-12
-2.13502e-11
1.59516e-11
9.77638e-12
-2.54441e-11
1.98218e-11
1.12799e-11
-2.97939e-11
2.43064e-11
1.29408e-11
-3.44236e-11
2.95078e-11
1.47986e-11
-3.93308e-11
3.54997e-11
1.68745e-11
-4.44829e-11
4.22981e-11
1.91415e-11
-4.98013e-11
4.98039e-11
2.14622e-11
-5.51132e-11
5.76925e-11
2.34909e-11
-6.00169e-11
6.52187e-11
2.46419e-11
-6.36773e-11
7.10253e-11
-6.45107e-11
7.30926e-11
1.83325e-12
-2.28399e-12
1.58636e-12
3.48924e-12
-6.67119e-12
4.66598e-12
5.02369e-12
-1.0796e-11
7.65676e-12
6.48575e-12
-1.48384e-11
1.074e-11
7.92114e-12
-1.89449e-11
1.40749e-11
9.3745e-12
-2.32349e-11
1.78068e-11
1.08916e-11
-2.78048e-11
2.2071e-11
1.25215e-11
-3.27323e-11
2.69936e-11
1.43171e-11
-3.8081e-11
3.26876e-11
1.63351e-11
-4.39064e-11
3.9241e-11
1.86324e-11
-5.02639e-11
4.66916e-11
2.12572e-11
-5.72186e-11
5.49766e-11
2.42226e-11
-6.48437e-11
6.38257e-11
2.74278e-11
-7.31449e-11
7.25406e-11
3.03585e-11
-8.16003e-11
7.96614e-11
-8.91833e-11
8.28067e-11
2.0063e-12
1.72859e-12
-2.36857e-12
3.81518e-12
5.08143e-12
-6.92264e-12
5.48425e-12
8.32858e-12
-1.12168e-11
7.06403e-12
1.16611e-11
-1.54443e-11
8.60125e-12
1.52456e-11
-1.97651e-11
1.01414e-11
1.92323e-11
-2.4313e-11
1.17313e-11
2.37599e-11
-2.92012e-11
1.34221e-11
2.89559e-11
-3.45277e-11
1.5272e-11
3.49341e-11
-4.03819e-11
1.73498e-11
4.1784e-11
-4.68516e-11
1.97406e-11
4.95495e-11
-5.40346e-11
2.25533e-11
5.81851e-11
-6.2054e-11
2.59239e-11
6.74606e-11
-7.10698e-11
2.99631e-11
7.67516e-11
-8.12364e-11
3.42103e-11
8.46024e-11
-9.20351e-11
8.82187e-11
-1.04823e-10
1.66347e-13
-4.33935e-13
1.296e-13
3.17162e-13
-1.26429e-12
3.81667e-13
4.58029e-13
-2.03559e-12
6.27874e-13
5.93827e-13
-2.77568e-12
8.8393e-13
7.28906e-13
-3.50398e-12
1.16361e-12
8.67271e-13
-4.23054e-12
1.4792e-12
1.01285e-12
-4.9545e-12
1.8414e-12
1.16982e-12
-5.66129e-12
2.25873e-12
1.34324e-12
-6.31808e-12
2.7359e-12
1.5407e-12
-6.86696e-12
3.27049e-12
1.77598e-12
-7.21554e-12
3.84698e-12
2.07623e-12
-7.22514e-12
4.42623e-12
2.49054e-12
-6.69946e-12
4.92827e-12
3.0774e-12
-5.39951e-12
5.20997e-12
3.76834e-12
-3.26219e-12
5.0899e-12
-5.1129e-13
4.58604e-12
4.95166e-13
-8.54899e-13
3.85443e-13
9.44019e-13
-2.49131e-12
1.13504e-12
1.36307e-12
-4.01286e-12
1.86699e-12
1.76669e-12
-5.47542e-12
2.62784e-12
2.16772e-12
-6.91865e-12
3.45841e-12
2.57788e-12
-8.36475e-12
4.39506e-12
3.00844e-12
-9.81588e-12
5.46959e-12
3.47067e-12
-1.12495e-11
6.70745e-12
3.9768e-12
-1.26115e-11
8.12291e-12
4.5423e-12
-1.38066e-11
9.7095e-12
5.19126e-12
-1.46906e-11
1.14227e-11
5.96551e-12
-1.50737e-11
1.31502e-11
6.92915e-12
-1.47655e-11
1.46663e-11
8.12138e-12
-1.37233e-11
1.5584e-11
9.31794e-12
-1.23571e-11
1.54617e-11
-1.19607e-11
1.40121e-11
8.12654e-13
-1.25026e-12
6.31513e-13
1.54903e-12
-3.64466e-12
1.85941e-12
2.23588e-12
-5.87461e-12
3.05768e-12
2.89644e-12
-8.02423e-12
4.30207e-12
3.55143e-12
-1.0155e-11
5.65894e-12
4.21968e-12
-1.23047e-11
7.18753e-12
4.91867e-12
-1.44851e-11
8.93994e-12
5.66442e-12
-1.66768e-11
1.09584e-11
6.47064e-12
-1.88217e-11
1.32678e-11
7.34715e-12
-2.08149e-11
1.58614e-11
8.29702e-12
-2.25003e-11
1.86743e-11
9.30983e-12
-2.36884e-11
2.15411e-11
1.03416e-11
-2.42345e-11
2.41361e-11
1.12595e-11
-2.42283e-11
2.59303e-11
1.17728e-11
-2.41973e-11
2.63754e-11
-2.51109e-11
2.54807e-11
1.11189e-12
-1.60717e-12
8.61932e-13
2.11882e-12
-4.68707e-12
2.53734e-12
3.0567e-12
-7.56132e-12
4.17075e-12
3.95674e-12
-1.03421e-11
5.86448e-12
4.84675e-12
-1.31141e-11
7.70811e-12
5.75202e-12
-1.59344e-11
9.7818e-12
6.69543e-12
-1.88313e-11
1.21566e-11
7.69644e-12
-2.17997e-11
1.4891e-11
8.7676e-12
-2.47957e-11
1.80228e-11
9.90673e-12
-2.77285e-11
2.15504e-11
1.10816e-11
-3.04555e-11
2.54024e-11
1.22012e-11
-3.27924e-11
2.93879e-11
1.30707e-11
-3.45642e-11
3.31313e-11
1.33609e-11
-3.57337e-11
3.60355e-11
1.28088e-11
-3.65528e-11
3.74713e-11
-3.77404e-11
3.74218e-11
1.38667e-12
-1.913e-12
1.07152e-12
2.6413e-12
-5.58167e-12
3.15338e-12
3.80764e-12
-9.01339e-12
5.18026e-12
4.92368e-12
-1.23473e-11
7.2775e-12
6.02347e-12
-1.56915e-11
9.55473e-12
7.13803e-12
-1.9125e-11
1.21101e-11
8.29555e-12
-2.26975e-11
1.50313e-11
9.51976e-12
-2.64279e-11
1.8392e-11
1.08248e-11
-3.03005e-11
2.22432e-11
1.22034e-11
-3.4259e-11
2.65938e-11
1.36025e-11
-3.81979e-11
3.13772e-11
1.48784e-11
-4.19523e-11
3.63979e-11
1.57266e-11
-4.52849e-11
4.12603e-11
1.56486e-11
-4.78817e-11
4.53189e-11
1.43153e-11
-4.94338e-11
4.7828e-11
-5.01503e-11
4.86513e-11
1.63182e-12
-2.15576e-12
1.25609e-12
3.10645e-12
-6.29323e-12
3.69511e-12
4.47384e-12
-1.01733e-11
6.06533e-12
5.77739e-12
-1.39593e-11
8.51086e-12
7.05617e-12
-1.77815e-11
1.11574e-11
8.34621e-12
-2.17407e-11
1.41173e-11
9.68101e-12
-2.59103e-11
1.74912e-11
1.10905e-11
-3.03376e-11
2.13652e-11
1.25964e-11
-3.50432e-11
2.58019e-11
1.4202e-11
-4.00194e-11
3.08217e-11
1.58686e-11
-4.52241e-11
3.63684e-11
1.74716e-11
-5.05644e-11
4.22535e-11
1.87253e-11
-5.58475e-11
4.80746e-11
1.9115e-11
-6.06621e-11
5.31396e-11
1.81685e-11
-6.42259e-11
5.65671e-11
-6.50501e-11
5.8128e-11
1.8434e-12
-2.32459e-12
1.41268e-12
3.50672e-12
-6.7899e-12
4.15369e-12
5.04422e-12
-1.09885e-11
6.81126e-12
6.50299e-12
-1.51038e-11
9.54337e-12
7.92559e-12
-1.92843e-11
1.24871e-11
9.35173e-12
-2.365e-11
1.57644e-11
1.08195e-11
-2.82961e-11
1.94844e-11
1.23655e-11
-3.32962e-11
2.37403e-11
1.40232e-11
-3.87054e-11
2.86021e-11
1.58174e-11
-4.45638e-11
3.40977e-11
1.77521e-11
-5.08986e-11
4.01795e-11
1.97859e-11
-5.77232e-11
4.66658e-11
2.1787e-11
-6.5017e-11
5.31479e-11
2.34644e-11
-7.26325e-11
5.88732e-11
2.43542e-11
-7.9928e-11
6.27845e-11
-8.57682e-11
6.4464e-11
2.01896e-12
1.53963e-12
-2.4105e-12
3.8376e-12
4.52442e-12
-7.04526e-12
5.51233e-12
7.41048e-12
-1.14156e-11
7.09195e-12
1.03645e-11
-1.57183e-11
8.62054e-12
1.35299e-11
-2.01151e-11
1.01395e-11
1.70332e-11
-2.474e-11
1.16892e-11
2.09861e-11
-2.97037e-11
1.33107e-11
2.54833e-11
-3.50987e-11
1.50461e-11
3.05947e-11
-4.10026e-11
1.69383e-11
3.6348e-11
-4.74825e-11
1.90285e-11
4.26959e-11
-5.45991e-11
2.13496e-11
4.94585e-11
-6.2409e-11
2.39081e-11
5.62246e-11
-7.0955e-11
2.66274e-11
6.2215e-11
-8.02003e-11
2.90654e-11
6.6259e-11
-8.94927e-11
6.72288e-11
-9.96916e-11
1.66211e-13
-4.40506e-13
1.09126e-13
3.16567e-13
-1.28354e-12
3.21263e-13
4.56288e-13
-2.06695e-12
5.28137e-13
5.8977e-13
-2.81932e-12
7.42686e-13
7.20636e-13
-3.56082e-12
9.76076e-13
8.51783e-13
-4.30258e-12
1.23794e-12
9.85367e-13
-5.04556e-12
1.53622e-12
1.12268e-12
-5.77863e-12
1.87639e-12
1.26401e-12
-6.47579e-12
2.25981e-12
1.40881e-12
-7.09268e-12
2.68064e-12
1.55681e-12
-7.5635e-12
3.12084e-12
1.71053e-12
-7.80014e-12
3.5431e-12
1.87785e-12
-7.69549e-12
3.8833e-12
2.06546e-12
-7.13605e-12
4.05164e-12
2.23456e-12
-6.08513e-12
3.97778e-12
-4.29721e-12
3.89572e-12
4.94854e-13
-8.67773e-13
3.24566e-13
9.42449e-13
-2.52901e-12
9.55447e-13
1.35824e-12
-4.07422e-12
1.57049e-12
1.75523e-12
-5.56061e-12
2.20804e-12
2.14414e-12
-7.0292e-12
2.90118e-12
2.53355e-12
-8.50403e-12
3.67848e-12
2.92969e-12
-9.9902e-12
4.56357e-12
3.33577e-12
-1.14707e-11
5.5729e-12
3.75082e-12
-1.29021e-11
6.711e-12
4.16859e-12
-1.421e-11
7.96159e-12
4.57731e-12
-1.52888e-11
9.27359e-12
4.96061e-12
-1.60155e-11
1.05416e-11
5.29794e-12
-1.6296e-11
1.15871e-11
5.55415e-12
-1.61616e-11
1.21677e-11
5.65268e-12
-1.58793e-11
1.21125e-11
-1.60769e-11
1.14822e-11
8.12444e-13
-1.26894e-12
5.31809e-13
1.54711e-12
-3.69934e-12
1.56533e-12
2.22912e-12
-5.96344e-12
2.5723e-12
2.87956e-12
-8.14715e-12
3.61515e-12
3.51599e-12
-1.03136e-11
4.74766e-12
4.15245e-12
-1.25027e-11
6.01647e-12
4.79888e-12
-1.47293e-11
7.4604e-12
5.45941e-12
-1.69793e-11
9.10714e-12
6.12891e-12
-1.92053e-11
1.09659e-11
6.78749e-12
-2.13224e-11
1.30144e-11
7.3925e-12
-2.32107e-11
1.5178e-11
7.86761e-12
-2.47393e-11
1.73036e-11
8.09333e-12
-2.58374e-11
1.91383e-11
7.92236e-12
-2.66241e-11
2.03573e-11
7.33226e-12
-2.74562e-11
2.07552e-11
-2.88109e-11
2.06312e-11
1.1122e-12
-1.63097e-12
7.25925e-13
2.11746e-12
-4.75664e-12
2.13627e-12
3.04968e-12
-7.67411e-12
3.50909e-12
3.93738e-12
-1.04976e-11
4.92872e-12
4.80452e-12
-1.33134e-11
6.46781e-12
5.6705e-12
-1.61805e-11
8.18958e-12
6.54916e-12
-1.9129e-11
1.01471e-11
7.44595e-12
-2.21576e-11
1.23795e-11
8.35182e-12
-2.52286e-11
1.49028e-11
9.23207e-12
-2.82641e-11
1.76942e-11
1.00076e-11
-3.11446e-11
2.06682e-11
1.05271e-11
-3.37227e-11
2.36472e-11
1.05427e-11
-3.58686e-11
2.63434e-11
9.76031e-12
-3.75607e-11
2.84009e-11
8.22328e-12
-3.89383e-11
2.95838e-11
-4.03813e-11
3.01688e-11
1.38797e-12
-1.94105e-12
9.02562e-13
2.64157e-12
-5.66357e-12
2.65531e-12
3.80231e-12
-9.14589e-12
4.3591e-12
4.90527e-12
-1.25292e-11
6.11727e-12
5.98027e-12
-1.59232e-11
8.01881e-12
7.05202e-12
-1.94076e-11
1.01413e-11
8.13911e-12
-2.30326e-11
1.25504e-11
9.25065e-12
-2.6817e-11
1.52958e-11
1.03789e-11
-3.07455e-11
1.84014e-11
1.14845e-11
-3.47626e-11
2.18481e-11
1.24706e-11
-3.87663e-11
2.55477e-11
1.3141e-11
-4.25974e-11
2.93115e-11
1.31551e-11
-4.60258e-11
3.2832e-11
1.20732e-11
-4.87366e-11
3.57252e-11
9.8741e-12
-5.03844e-11
3.76952e-11
-5.09904e-11
3.89565e-11
1.63457e-12
-2.18705e-12
1.05821e-12
3.1094e-12
-6.38455e-12
3.11199e-12
4.47214e-12
-1.03207e-11
5.10478e-12
5.76329e-12
-1.41611e-11
7.1554e-12
7.0177e-12
-1.80368e-11
9.36596e-12
8.26518e-12
-2.20487e-11
1.18254e-11
9.52987e-12
-2.62685e-11
1.46093e-11
1.08277e-11
-3.07395e-11
1.7776e-11
1.21598e-11
-3.54757e-11
2.13562e-11
1.34998e-11
-4.04577e-11
2.53351e-11
1.4769e-11
-4.56246e-11
2.96241e-11
1.57959e-11
-5.0853e-11
3.40257e-11
1.62639e-11
-5.59054e-11
3.82077e-11
1.57177e-11
-6.03202e-11
4.17355e-11
1.39808e-11
-6.33187e-11
4.4232e-11
-6.34435e-11
4.59091e-11
1.84801e-12
-2.35805e-12
1.19033e-12
3.51324e-12
-6.88746e-12
3.49885e-12
5.0478e-12
-1.11459e-11
5.73369e-12
6.49605e-12
-1.53184e-11
8.02522e-12
7.89665e-12
-1.95545e-11
1.04849e-11
9.28356e-12
-2.39731e-11
1.32095e-11
1.06864e-11
-2.86658e-11
1.62809e-11
1.21291e-11
-3.36991e-11
1.97625e-11
1.36268e-11
-3.91155e-11
2.36886e-11
1.5178e-11
-4.49331e-11
2.80463e-11
1.67507e-11
-5.11425e-11
3.27443e-11
1.82593e-11
-5.76966e-11
3.75721e-11
1.95368e-11
-6.44808e-11
4.2159e-11
2.03306e-11
-7.12302e-11
4.59797e-11
2.04423e-11
-7.72898e-11
4.85235e-11
-8.16259e-11
4.99865e-11
2.02568e-12
1.29754e-12
-2.44495e-12
3.84829e-12
3.81184e-12
-7.14571e-12
5.52232e-12
6.23939e-12
-1.15775e-11
7.09418e-12
8.71779e-12
-1.59388e-11
8.60452e-12
1.13639e-11
-2.03918e-11
1.00897e-11
1.42781e-11
-2.50687e-11
1.1583e-11
1.75447e-11
-3.00758e-11
1.31144e-11
2.12275e-11
-3.54962e-11
1.47105e-11
2.53603e-11
-4.13915e-11
1.6392e-11
2.99274e-11
-4.78019e-11
1.81688e-11
3.48324e-11
-5.47435e-11
2.00328e-11
3.98522e-11
-6.22026e-11
2.19509e-11
4.45833e-11
-7.01171e-11
2.38567e-11
4.84216e-11
-7.83262e-11
2.55275e-11
5.07273e-11
-8.61985e-11
5.12599e-11
-9.46132e-11
1.65726e-13
-4.45715e-13
8.50166e-14
3.15306e-13
-1.29879e-12
2.50212e-13
4.53603e-13
-2.0918e-12
4.11087e-13
5.84531e-13
-2.85389e-12
5.77543e-13
7.11018e-13
-3.60582e-12
7.57978e-13
8.34933e-13
-4.35951e-12
9.59423e-13
9.56918e-13
-5.11731e-12
1.18735e-12
1.07598e-12
-5.87068e-12
1.44501e-12
1.18896e-12
-6.59839e-12
1.73205e-12
1.2903e-12
-7.26474e-12
2.04232e-12
1.37264e-12
-7.81863e-12
2.36079e-12
1.42938e-12
-8.19437e-12
2.66044e-12
1.46003e-12
-8.31181e-12
2.90191e-12
1.47575e-12
-8.06834e-12
3.04239e-12
1.48839e-12
-7.36357e-12
3.06324e-12
-5.74444e-12
3.19275e-12
4.93513e-13
-8.77992e-13
2.52869e-13
9.38922e-13
-2.55892e-12
7.44173e-13
1.35063e-12
-4.12287e-12
1.2225e-12
1.74024e-12
-5.62803e-12
1.71717e-12
2.11649e-12
-7.11644e-12
2.25307e-12
2.48506e-12
-8.61346e-12
2.85107e-12
2.84785e-12
-1.01264e-11
3.5275e-12
3.20169e-12
-1.16422e-11
4.29218e-12
3.53625e-12
-1.31248e-11
5.14452e-12
3.83215e-12
-1.45123e-11
6.06719e-12
4.06043e-12
-1.57196e-11
7.01749e-12
4.18634e-12
-1.66506e-11
7.91897e-12
4.18263e-12
-1.72295e-11
8.66046e-12
4.05716e-12
-1.7453e-11
9.12123e-12
3.88507e-12
-1.74371e-11
9.24944e-12
-1.75429e-11
9.06224e-12
8.10562e-13
-1.28378e-12
4.14361e-13
1.542e-12
-3.74272e-12
1.2193e-12
2.21778e-12
-6.03377e-12
2.00252e-12
2.85684e-12
-8.24411e-12
2.81173e-12
3.47371e-12
-1.0438e-11
3.68742e-12
4.07803e-12
-1.26569e-11
4.66371e-12
4.67332e-12
-1.49174e-11
5.76751e-12
5.25436e-12
-1.72093e-11
7.01556e-12
5.8029e-12
-1.94915e-11
8.40848e-12
6.28186e-12
-2.16903e-11
9.92129e-12
6.62904e-12
-2.37023e-11
1.14912e-11
6.75477e-12
-2.54155e-11
1.30062e-11
6.55761e-12
-2.67615e-11
1.43079e-11
5.99323e-12
-2.78033e-11
1.52314e-11
5.25248e-12
-2.87531e-11
1.57097e-11
-2.99288e-11
1.59063e-11
1.11023e-12
-1.64984e-12
5.65669e-13
2.11175e-12
-4.81174e-12
1.66422e-12
3.03636e-12
-7.76314e-12
2.73214e-12
3.90989e-12
-1.06196e-11
3.83387e-12
4.75258e-12
-1.34685e-11
5.02413e-12
5.57847e-12
-1.63697e-11
6.34922e-12
6.39369e-12
-1.93542e-11
7.84612e-12
7.19277e-12
-2.24222e-11
9.53875e-12
7.95201e-12
-2.55388e-11
1.14307e-11
8.61902e-12
-2.86306e-11
1.34938e-11
9.09811e-12
-3.15846e-11
1.56541e-11
9.23569e-12
-3.42576e-11
1.77799e-11
8.82848e-12
-3.65089e-11
1.969e-11
7.72599e-12
-3.82658e-11
2.12052e-11
6.1923e-12
-3.95762e-11
2.22423e-11
-4.07457e-11
2.29309e-11
1.38643e-12
-1.96324e-12
7.0341e-13
2.63639e-12
-5.72827e-12
2.06887e-12
3.78902e-12
-9.25007e-12
3.39446e-12
4.87646e-12
-1.26712e-11
4.75915e-12
5.92444e-12
-1.61018e-11
6.22999e-12
6.95191e-12
-1.96218e-11
7.8639e-12
7.96922e-12
-2.32805e-11
9.70673e-12
8.97424e-12
-2.70949e-11
1.17892e-11
9.94468e-12
-3.10467e-11
1.41187e-11
1.0825e-11
-3.50756e-11
1.66669e-11
1.15063e-11
-3.90716e-11
1.93533e-11
1.17997e-11
-4.28614e-11
2.20337e-11
1.1427e-11
-4.61895e-11
2.45098e-11
1.01117e-11
-4.87011e-11
2.65851e-11
8.04425e-12
-5.00281e-11
2.8143e-11
-5.0207e-11
2.92735e-11
1.63396e-12
-2.21175e-12
8.24843e-13
3.10586e-12
-6.45644e-12
2.42509e-12
4.46091e-12
-1.04361e-11
3.97578e-12
5.73661e-12
-1.43174e-11
5.56778e-12
6.96372e-12
-1.82318e-11
7.27808e-12
8.16629e-12
-2.22788e-11
9.17204e-12
9.36043e-12
-2.65274e-11
1.13025e-11
1.05513e-11
-3.10155e-11
1.37056e-11
1.17266e-11
-3.57479e-11
1.6392e-11
1.28456e-11
-4.06903e-11
1.9333e-11
1.38211e-11
-4.57586e-11
2.24422e-11
1.44936e-11
-5.0795e-11
2.55603e-11
1.46137e-11
-5.55169e-11
2.84616e-11
1.38913e-11
-5.94249e-11
3.09093e-11
1.2351e-11
-6.17835e-11
3.27461e-11
-6.13125e-11
3.40878e-11
1.84876e-12
-2.38437e-12
9.27986e-13
3.51232e-12
-6.964e-12
2.72701e-12
5.04041e-12
-1.12685e-11
4.46638e-12
6.47453e-12
-1.54838e-11
6.24582e-12
7.84948e-12
-1.97591e-11
8.14949e-12
9.19386e-12
-2.42113e-11
1.02485e-11
1.05298e-11
-2.89273e-11
1.26003e-11
1.18717e-11
-3.39652e-11
1.52439e-11
1.32225e-11
-3.93533e-11
1.81912e-11
1.45683e-11
-4.50868e-11
2.14116e-11
1.58696e-11
-5.11213e-11
2.48105e-11
1.70523e-11
-5.73589e-11
2.82084e-11
1.8009e-11
-6.36221e-11
3.13357e-11
1.86359e-11
-6.9601e-11
3.38787e-11
1.89232e-11
-7.47237e-11
3.56064e-11
-7.82225e-11
3.66942e-11
2.02812e-12
1.01172e-12
-2.47199e-12
3.85071e-12
2.97143e-12
-7.22428e-12
5.5201e-12
4.86115e-12
-1.17031e-11
7.08009e-12
6.78623e-12
-1.61078e-11
8.56789e-12
8.835e-12
-2.05997e-11
1.00152e-11
1.10815e-11
-2.53084e-11
1.14485e-11
1.35845e-11
-3.03344e-11
1.28896e-11
1.63835e-11
-3.57505e-11
1.43547e-11
1.94888e-11
-4.16014e-11
1.58534e-11
2.28661e-11
-4.79005e-11
1.73885e-11
2.64125e-11
-5.46247e-11
1.89587e-11
2.99301e-11
-6.17057e-11
2.05752e-11
3.31091e-11
-6.90189e-11
2.22874e-11
3.55589e-11
-7.63677e-11
2.40349e-11
3.69627e-11
-8.3236e-11
3.72846e-11
-9.07411e-11
1.65109e-13
-4.4955e-13
5.81604e-14
3.13845e-13
-1.31003e-12
1.71135e-13
4.50759e-13
-2.11013e-12
2.81049e-13
5.7935e-13
-2.87941e-12
3.94583e-13
7.01966e-13
-3.63897e-12
5.17324e-13
8.19683e-13
-4.40124e-12
6.53834e-13
9.32037e-13
-5.16943e-12
8.07508e-13
1.03655e-12
-5.93654e-12
9.80095e-13
1.12821e-12
-6.68394e-12
1.17081e-12
1.19944e-12
-7.37991e-12
1.375e-12
1.24143e-12
-7.97863e-12
1.58273e-12
1.24829e-12
-8.41905e-12
1.77792e-12
1.22577e-12
-8.61904e-12
1.93979e-12
1.20109e-12
-8.45617e-12
2.04957e-12
1.20806e-12
-7.78644e-12
2.10074e-12
-6.1138e-12
2.25379e-12
4.91782e-13
-8.85549e-13
1.72998e-13
9.34793e-13
-2.58105e-12
5.0902e-13
1.34251e-12
-4.15884e-12
8.35854e-13
1.72535e-12
-5.67781e-12
1.17328e-12
2.09039e-12
-7.1806e-12
1.53784e-12
2.44104e-12
-8.69334e-12
1.94311e-12
2.77611e-12
-1.02247e-11
2.39921e-12
3.08828e-12
-1.17638e-11
2.91149e-12
3.36227e-12
-1.32782e-11
3.47789e-12
3.57374e-12
-1.47115e-11
4.08525e-12
3.69139e-12
-1.59846e-11
4.70519e-12
3.68638e-12
-1.7003e-11
5.29166e-12
3.55639e-12
-1.76763e-11
5.78458e-12
3.3642e-12
-1.79501e-11
6.12662e-12
3.24314e-12
-1.78628e-11
6.29296e-12
-1.77256e-11
6.25437e-12
8.08031e-13
-1.29478e-12
2.83507e-13
1.53587e-12
-3.77485e-12
8.34097e-13
2.2055e-12
-6.08579e-12
1.36933e-12
2.83403e-12
-8.31555e-12
1.92137e-12
3.43349e-12
-1.05291e-11
2.51714e-12
4.01008e-12
-1.27685e-11
3.17884e-12
4.56272e-12
-1.50516e-11
3.92324e-12
5.08023e-12
-1.73696e-11
4.75952e-12
5.53764e-12
-1.96842e-11
5.68539e-12
5.89226e-12
-2.19247e-11
6.68149e-12
6.08237e-12
-2.39904e-11
7.70557e-12
6.03495e-12
-2.57642e-11
8.68941e-12
5.69825e-12
-2.71523e-11
9.54551e-12
5.12102e-12
-2.81567e-11
1.01916e-11
4.56272e-12
-2.89231e-11
1.05885e-11
-2.97729e-11
1.07893e-11
1.10732e-12
-1.66384e-12
3.87077e-13
2.10451e-12
-4.85256e-12
1.1386e-12
3.02147e-12
-7.82888e-12
1.86849e-12
3.88174e-12
-1.07092e-11
2.62016e-12
4.7025e-12
-1.35813e-11
3.43004e-12
5.49361e-12
-1.65052e-11
4.32829e-12
6.25567e-12
-1.95122e-11
5.33799e-12
6.97638e-12
-2.26021e-11
6.47244e-12
7.62495e-12
-2.57396e-11
7.73028e-12
8.14458e-12
-2.88498e-11
9.08882e-12
8.4449e-12
-3.18154e-11
1.04972e-11
8.40086e-12
-3.44808e-11
1.18738e-11
7.88013e-12
-3.66766e-11
1.31172e-11
6.84866e-12
-3.82794e-11
1.41361e-11
5.62627e-12
-3.93044e-11
1.48778e-11
-4.00998e-11
1.53669e-11
1.38361e-12
-1.97969e-12
4.81397e-13
2.62904e-12
-5.7761e-12
1.41565e-12
3.77332e-12
-9.32674e-12
2.32177e-12
4.846e-12
-1.27748e-11
3.25297e-12
5.86949e-12
-1.62306e-11
4.2539e-12
6.8582e-12
-1.97734e-11
5.3617e-12
7.81667e-12
-2.3451e-11
6.60505e-12
8.73579e-12
-2.72777e-11
8.0011e-12
9.58668e-12
-3.12302e-11
9.55005e-12
1.03114e-11
-3.52407e-11
1.12274e-11
1.08106e-11
-3.91863e-11
1.29762e-11
1.09331e-11
-4.28743e-11
1.47045e-11
1.04846e-11
-4.60209e-11
1.62982e-11
9.31602e-12
-4.82421e-11
1.7654e-11
7.65838e-12
-4.91822e-11
1.86988e-11
-4.896e-11
1.9435e-11
1.63169e-12
-2.23002e-12
5.64587e-13
3.09942e-12
-6.50946e-12
1.65963e-12
4.4462e-12
-1.05208e-11
2.71978e-12
5.7069e-12
-1.4431e-11
3.80624e-12
6.90889e-12
-1.83712e-11
4.97035e-12
8.07171e-12
-2.24394e-11
6.2548e-12
9.20577e-12
-2.67015e-11
7.69265e-12
1.03096e-11
-3.11898e-11
9.30409e-12
1.13653e-11
-3.58995e-11
1.10904e-11
1.2331e-11
-4.07823e-11
1.30252e-11
1.31316e-11
-4.57332e-11
1.50448e-11
1.36487e-11
-5.05674e-11
1.7044e-11
1.37201e-11
-5.49748e-11
1.88868e-11
1.31839e-11
-5.84487e-11
2.04431e-11
1.20976e-11
-6.03163e-11
2.16209e-11
-5.94638e-11
2.24511e-11
1.84744e-12
-2.40379e-12
6.35275e-13
3.50768e-12
-7.02031e-12
1.86651e-12
5.0283e-12
-1.1358e-11
3.05582e-12
6.44827e-12
-1.56033e-11
4.27041e-12
7.79915e-12
-1.99042e-11
5.56647e-12
9.10533e-12
-2.43755e-11
6.9905e-12
1.03837e-11
-2.90994e-11
8.57834e-12
1.16425e-11
-3.4126e-11
1.03518e-11
1.28798e-11
-3.94707e-11
1.2312e-11
1.40813e-11
-4.51094e-11
1.44296e-11
1.52196e-11
-5.09708e-11
1.6633e-11
1.62588e-11
-5.69245e-11
1.87986e-11
1.71726e-11
-6.27656e-11
2.07575e-11
1.79769e-11
-6.81906e-11
2.23287e-11
1.86962e-11
-7.27274e-11
2.33843e-11
-7.58114e-11
2.40201e-11
2.02806e-12
6.92682e-13
-2.4919e-12
3.84857e-12
2.03406e-12
-7.28194e-12
5.51185e-12
3.32636e-12
-1.17947e-11
7.05939e-12
4.64065e-12
-1.62293e-11
8.5255e-12
6.03595e-12
-2.07462e-11
9.93801e-12
7.56068e-12
-2.5472e-11
1.13188e-11
9.25166e-12
-3.05015e-11
1.26843e-11
1.11306e-11
-3.58984e-11
1.40463e-11
1.31972e-11
-4.16923e-11
1.5414e-11
1.54188e-11
-4.78753e-11
1.67999e-11
1.77157e-11
-5.43956e-11
1.82341e-11