/*--------------------------------*- C++ -*----------------------------------*\
| =========                 |                                                 |
| \\      /  F ield         | OpenFOAM: The Open Source CFD Toolbox           |
|  \\    /   O peration     | Version:  v1912                                 |
|   \\  /    A nd           | Website:  www.openfoam.com                      |
|    \\/     M anipulation  |                                                 |
\*---------------------------------------------------------------------------*/
FoamFile
{
    version     2.0;
    format      ascii;
    class       volScalarField;
    location    "0.68/fluid";
    object      p;
}
// * * * * * * * * * * * * * * * * * * * * * * * * * * * * * * * * * * * * * //

dimensions      [0 2 -2 0 0 0 0];


internalField   nonuniform List<scalar> 
14592
(
0.0531782
0.0475656
0.0456732
0.0440864
0.0431825
0.0424849
0.0419424
0.0414756
0.0410367
0.0406808
0.0402761
0.0400836
0.0396054
0.039849
0.0390566
0.0409724
0.0490072
0.0472612
0.0455845
0.0442291
0.0433165
0.0426002
0.0420329
0.0415536
0.0411115
0.0407637
0.040374
0.0402184
0.0397771
0.0401672
0.0393422
0.0422324
0.0470241
0.0464127
0.0451803
0.0441815
0.0433406
0.0426484
0.0420689
0.0415795
0.041133
0.0407931
0.0404259
0.0403241
0.0399469
0.040521
0.0397616
0.0434181
0.0458432
0.0456965
0.0448359
0.0440811
0.0433282
0.0426661
0.0420765
0.0415704
0.0411085
0.0407639
0.0404049
0.0403429
0.0400229
0.040756
0.0401137
0.0441985
0.0451413
0.0451183
0.0444881
0.0438928
0.0432216
0.0425944
0.0420031
0.0414793
0.0409904
0.0406163
0.0402251
0.0401421
0.0397955
0.0405763
0.0399478
0.0443387
0.0446821
0.0446964
0.0442103
0.0437101
0.0430964
0.0424927
0.0418975
0.0413546
0.0408379
0.0404342
0.0400168
0.0399304
0.0396028
0.0405228
0.0400613
0.0449764
0.0443822
0.044403
0.0439913
0.0435394
0.0429554
0.0423572
0.0417451
0.041166
0.0405939
0.0401105
0.0395818
0.0393368
0.0387706
0.0393955
0.0383871
0.0433682
0.0442023
0.0442244
0.0438435
0.0434088
0.0428312
0.0422245
0.0415896
0.0409744
0.0403553
0.0398125
0.0392215
0.0389166
0.0383296
0.0391204
0.0383765
0.0457405
0.0530893
0.0474786
0.0456234
0.0440777
0.0432271
0.0425885
0.0421128
0.0417214
0.0413698
0.0411115
0.0408238
0.0407306
0.0403925
0.0405458
0.0398746
0.0405261
0.0489183
0.0471725
0.0455338
0.04422
0.0433613
0.0427048
0.0422051
0.0418019
0.041448
0.0411984
0.0409251
0.0408641
0.0405489
0.0407929
0.0400598
0.041123
0.0469313
0.0463184
0.045123
0.0441654
0.0433788
0.0427474
0.042236
0.0418233
0.0414649
0.0412234
0.0409707
0.0409608
0.0406993
0.04109
0.0403727
0.041858
0.045748
0.0455994
0.0447744
0.0440599
0.0433605
0.0427584
0.0422363
0.0418062
0.0414315
0.0411848
0.0409383
0.0409673
0.0407547
0.041286
0.0406498
0.0423956
0.0450431
0.0450179
0.0444221
0.0438659
0.0432466
0.0426779
0.0421518
0.0417013
0.0412958
0.0410154
0.0407289
0.0407306
0.0404722
0.0410363
0.0403574
0.0423257
0.0445811
0.0445931
0.0441406
0.0436783
0.0431146
0.0425673
0.0420346
0.0415621
0.0411247
0.0408113
0.0404928
0.0404914
0.0402418
0.040958
0.0404095
0.0428701
0.0442777
0.0442962
0.0439173
0.043502
0.042966
0.0424212
0.0418677
0.0413536
0.0408526
0.0404494
0.0400016
0.0398239
0.0392887
0.0396925
0.0384497
0.04098
0.0440939
0.0441139
0.0437651
0.0433659
0.0428344
0.0422782
0.0416984
0.0411436
0.0405895
0.0401206
0.039602
0.0393666
0.0388028
0.0394346
0.0384172
0.0434137
0.053036
0.0474271
0.0456002
0.0440881
0.0432832
0.0426981
0.0422868
0.0419727
0.0417195
0.0415839
0.0414709
0.0415893
0.0416154
0.042117
0.0422611
0.0430394
0.0488651
0.0471197
0.0455101
0.0442303
0.0434183
0.042816
0.0423814
0.0420567
0.0418027
0.041678
0.0415823
0.0417353
0.0417908
0.0423739
0.0425044
0.0435913
0.0468744
0.0462604
0.045093
0.0441692
0.0434296
0.042853
0.0424074
0.0420737
0.0418155
0.0416997
0.041625
0.0418319
0.0419457
0.0426849
0.0428757
0.0443369
0.0456883
0.0455383
0.0447403
0.0440584
0.0434052
0.0428575
0.0424005
0.0420489
0.0417736
0.0416528
0.0415838
0.0418334
0.0419991
0.0428904
0.0431826
0.0448931
0.04498
0.0449533
0.0443833
0.0438585
0.0432839
0.0427679
0.0423049
0.0419306
0.0416207
0.0414624
0.0413465
0.0415647
0.0416716
0.0425959
0.0428207
0.0447455
0.0445149
0.0445253
0.0440978
0.0436657
0.0431449
0.0426483
0.042176
0.0417765
0.0414302
0.0412344
0.0410785
0.0412904
0.0413898
0.0424715
0.0427842
0.0452045
0.0442078
0.0442247
0.0438699
0.0434836
0.0429884
0.0424916
0.0419945
0.0415478
0.0411292
0.0408319
0.0405251
0.0405355
0.0402871
0.0410076
0.0404367
0.042888
0.0440201
0.0440386
0.0437132
0.0433419
0.0428491
0.0423383
0.041811
0.0413182
0.0408385
0.0404654
0.0400705
0.0400065
0.0396847
0.0406211
0.0401346
0.0450738
0.0530058
0.047398
0.0455923
0.044106
0.0433365
0.0427925
0.0424297
0.0421701
0.0419807
0.0419111
0.041878
0.0420506
0.0421632
0.042621
0.042833
0.0433726
0.0488349
0.0470896
0.0455018
0.0442484
0.0434723
0.0429116
0.042526
0.0422564
0.0420668
0.0420085
0.0419928
0.0421974
0.0423351
0.0428514
0.0430374
0.043787
0.0468407
0.0462259
0.0450792
0.0441814
0.0434781
0.0429437
0.0425474
0.0422691
0.0420749
0.0420248
0.042027
0.0422806
0.0424655
0.0431139
0.0433355
0.0443771
0.045652
0.0455007
0.0447225
0.0440658
0.0434482
0.0429422
0.0425339
0.0422372
0.0420248
0.0419687
0.0419739
0.0422675
0.0424955
0.0432828
0.0435817
0.0448385
0.0449403
0.0449122
0.0443611
0.0438603
0.0433201
0.0428445
0.0424286
0.0421072
0.0418573
0.0417606
0.0417128
0.0419699
0.0421248
0.0429344
0.0431308
0.0445831
0.0444721
0.0444811
0.0440717
0.0436625
0.0431748
0.0427169
0.0422897
0.0419408
0.0416512
0.0415144
0.0414213
0.0416704
0.0418065
0.0427741
0.0430271
0.0449681
0.0441615
0.0441771
0.0438397
0.0434752
0.0430113
0.0425511
0.0420962
0.0416964
0.0413291
0.0410846
0.0408298
0.0408692
0.0406321
0.0412314
0.0405333
0.0424967
0.0439702
0.0439874
0.043679
0.0433285
0.0428655
0.0423893
0.0419013
0.041452
0.041019
0.0406943
0.0403443
0.0403084
0.0399862
0.0408172
0.0401664
0.0446157
0.0529915
0.0473846
0.0455952
0.0441294
0.0433887
0.0428792
0.0425584
0.0423481
0.0422196
0.0422185
0.0422759
0.0425346
0.0427825
0.0433108
0.0437035
0.0441842
0.0488206
0.0470756
0.0455045
0.0442721
0.0435254
0.0429996
0.0426567
0.0424372
0.0423095
0.0423212
0.0423977
0.0426896
0.0429647
0.0435459
0.043915
0.0445649
0.0468234
0.0462081
0.0450774
0.0442004
0.0435265
0.0430276
0.0426744
0.0424464
0.042314
0.0423335
0.0424262
0.0427646
0.0430812
0.0437829
0.0441796
0.0450853
0.0456323
0.0454803
0.0447172
0.0440806
0.043492
0.043021
0.0426553
0.0424085
0.0422571
0.0422701
0.042364
0.0427412
0.0430961
0.0439316
0.0443945
0.0455025
0.0449177
0.0448887
0.0443519
0.0438703
0.0433579
0.0429163
0.0425415
0.0422685
0.042077
0.0420468
0.0420827
0.0424197
0.0426908
0.0435423
0.0438796
0.0451752
0.0444466
0.0444548
0.0440591
0.0436681
0.043207
0.0427816
0.0423937
0.0420911
0.0418569
0.0417835
0.0417687
0.0420944
0.0423353
0.0433413
0.0437077
0.0454875
0.0441329
0.0441477
0.0438234
0.0434761
0.0430375
0.0426079
0.0421896
0.0418327
0.0415158
0.0413288
0.0411418
0.0412482
0.0410917
0.0417151
0.0410694
0.0428528
0.0439386
0.043955
0.0436591
0.043325
0.0428858
0.0424383
0.0419844
0.0415746
0.041187
0.0409143
0.0406228
0.0406464
0.0403846
0.0412328
0.0405828
0.0448372
0.0529855
0.0473793
0.0456013
0.04415
0.0434295
0.0429438
0.0426513
0.0424723
0.0423798
0.0424137
0.0425117
0.0427937
0.043077
0.0435847
0.0439936
0.04442
0.0488147
0.0470698
0.0455106
0.0442929
0.0435668
0.0430652
0.0427509
0.042563
0.0424718
0.0425188
0.0426361
0.0429506
0.0432598
0.0438141
0.0441953
0.0447646
0.0468152
0.0461994
0.04508
0.0442175
0.0435644
0.0430899
0.0427655
0.0425694
0.042473
0.0425271
0.0426585
0.0430159
0.0433595
0.0440223
0.0444178
0.0452203
0.0456222
0.0454695
0.0447171
0.0440946
0.0435262
0.0430793
0.0427421
0.0425268
0.0424106
0.0424575
0.042588
0.0429822
0.0433582
0.044148
0.0445966
0.0455926
0.0449052
0.0448754
0.0443486
0.0438804
0.0433875
0.0429692
0.0426219
0.0423793
0.0422213
0.0422232
0.0422923
0.0426433
0.0429277
0.0437273
0.044033
0.045212
0.0444319
0.0444393
0.0440531
0.0436748
0.0432323
0.0428292
0.0424676
0.0421939
0.0419914
0.0419485
0.0419635
0.0423015
0.0425486
0.0435004
0.0438176
0.0454789
0.0441157
0.0441297
0.0438144
0.0434792
0.0430582
0.0426497
0.0422559
0.0419259
0.0416378
0.0414783
0.0413162
0.0414315
0.0412707
0.0418357
0.0411128
0.0427674
0.0439189
0.0439346
0.0436474
0.0433247
0.0429022
0.0424745
0.0420434
0.0416587
0.0412972
0.0410496
0.0407789
0.0408101
0.040537
0.0413283
0.0405818
0.0446997
0.0529843
0.0473785
0.0456081
0.0441667
0.04346
0.0429909
0.0427186
0.0425627
0.0424978
0.0425606
0.042694
0.0430042
0.0433275
0.0438448
0.0442869
0.0446893
0.0488135
0.0470687
0.0455174
0.0443098
0.0435977
0.0431131
0.0428193
0.042655
0.042592
0.0426685
0.0428221
0.0431654
0.0435154
0.0440776
0.0444921
0.0450234
0.0468125
0.0461964
0.0450845
0.0442319
0.043593
0.0431357
0.042832
0.0426595
0.0425911
0.0426745
0.042841
0.0432254
0.043606
0.0442704
0.0446923
0.045445
0.0456181
0.045465
0.0447197
0.0441067
0.0435523
0.0431223
0.0428056
0.0426137
0.0425251
0.0426008
0.0427653
0.0431853
0.0435951
0.0443829
0.0448505
0.0457923
0.0448994
0.0448692
0.0443491
0.0438899
0.0434104
0.0430085
0.042681
0.042461
0.0423294
0.0423589
0.0424596
0.0428344
0.0431474
0.0439414
0.0442553
0.0453777
0.0444245
0.0444315
0.0440516
0.0436819
0.0432522
0.0428647
0.0425219
0.0422699
0.0420923
0.0420755
0.0421196
0.0424797
0.0427501
0.0436935
0.0440069
0.0456103
0.0441066
0.0441202
0.0438109
0.0434838
0.0430748
0.042681
0.0423048
0.041995
0.0417296
0.041594
0.041457
0.0415912
0.0414455
0.0419976
0.0412508
0.042839
0.043908
0.0439234
0.0436419
0.0433268
0.0429156
0.0425018
0.042087
0.0417209
0.0413799
0.0411538
0.0409046
0.0409519
0.040687
0.0414622
0.0406752
0.0447213
0.0529841
0.0473791
0.0456116
0.0441752
0.0434748
0.0430133
0.04275
0.0426037
0.0425495
0.0426219
0.0427658
0.0430804
0.0434107
0.0439204
0.0443649
0.0447578
0.0488137
0.0470687
0.0455211
0.0443183
0.0436128
0.0431358
0.042851
0.0426962
0.0426438
0.0427297
0.0428935
0.0432403
0.0435963
0.044149
0.0445652
0.045082
0.0468116
0.0461954
0.0450871
0.0442392
0.0436068
0.0431572
0.0428625
0.0426995
0.0426413
0.0427336
0.042909
0.0432952
0.0436788
0.0443297
0.0447499
0.0454835
0.0456166
0.0454633
0.0447214
0.0441128
0.0435648
0.0431425
0.0428345
0.042652
0.0425733
0.0426575
0.0428301
0.0432511
0.0436618
0.0444337
0.0448957
0.0458166
0.0448971
0.0448666
0.0443497
0.0438947
0.0434214
0.0430268
0.0427078
0.0424968
0.0423747
0.0424122
0.0425202
0.0428952
0.0432071
0.0439836
0.0442871
0.0453873
0.0444213
0.0444281
0.0440512
0.0436855
0.0432617
0.0428812
0.0425466
0.0423032
0.0421345
0.0421253
0.0421758
0.0425356
0.0428028
0.0437275
0.0440245
0.0456043
0.0441025
0.0441159
0.0438095
0.0434861
0.0430827
0.0426955
0.042327
0.0420253
0.0417682
0.0416396
0.041508
0.0416417
0.041491
0.0420236
0.0412539
0.0428151
0.0439031
0.0439182
0.0436395
0.043328
0.0429221
0.0425145
0.0421069
0.0417483
0.0414149
0.0411952
0.0409504
0.0409966
0.0407247
0.0414789
0.0406615
0.044674
0.0625064
0.0517627
0.0481212
0.0451409
0.0434279
0.0420927
0.041044
0.0400853
0.0391481
0.0381837
0.0371161
0.0359637
0.03459
0.0331142
0.0312801
0.0294205
0.0582376
0.0510104
0.0477449
0.0450478
0.0433908
0.0420854
0.0410471
0.0400959
0.0391668
0.0382119
0.0371544
0.0360152
0.034656
0.0331984
0.0313792
0.0295306
0.0562331
0.0499701
0.0471107
0.0447503
0.043222
0.0419992
0.0409963
0.0400657
0.0391501
0.038207
0.0371631
0.0360403
0.034705
0.033275
0.0314892
0.0296669
0.0549856
0.049163
0.0466405
0.0445118
0.0430979
0.0419404
0.0409624
0.040042
0.0391295
0.0381876
0.0371473
0.036031
0.0347095
0.0332966
0.031535
0.0297348
0.0542413
0.0485495
0.0462332
0.0442581
0.0429414
0.0418442
0.0408942
0.0399858
0.0390759
0.0381323
0.0370914
0.0359757
0.0346623
0.0332602
0.0315221
0.0297457
0.0537567
0.0481145
0.0459324
0.0440536
0.0428058
0.0417505
0.0408205
0.0399186
0.0390072
0.0380585
0.0370142
0.0358961
0.0345894
0.033197
0.0314861
0.0297379
0.0534511
0.0478235
0.0457132
0.0438872
0.0426809
0.0416504
0.0407318
0.0398306
0.038913
0.0379547
0.0369016
0.0357741
0.0344679
0.0330777
0.0313948
0.0296765
0.0532803
0.0476574
0.0455786
0.0437747
0.0425853
0.0415626
0.0406453
0.0397389
0.0388121
0.0378432
0.0367823
0.0356476
0.0343467
0.032964
0.0313178
0.0296361
0.0582382
0.0510089
0.0477405
0.0450391
0.0433768
0.0420644
0.0410202
0.0400631
0.0391213
0.0381497
0.0370709
0.0359099
0.034519
0.0330377
0.0311751
0.02933
0.0540413
0.0506141
0.047539
0.0450612
0.0434127
0.0421021
0.0410477
0.0400848
0.0391406
0.0381687
0.0370918
0.0359356
0.0345522
0.0330846
0.031239
0.0294076
0.0520347
0.0496663
0.0469804
0.044833
0.0432891
0.0420424
0.0410104
0.0400603
0.0391228
0.0381569
0.037089
0.0359447
0.0345814
0.0331356
0.0313174
0.0295097
0.0508016
0.048879
0.0465416
0.0446276
0.0431917
0.0420029
0.0409897
0.0400445
0.0391055
0.0381381
0.0370722
0.0359332
0.0345828
0.0331533
0.0313588
0.0295726
0.0500633
0.0482614
0.0461405
0.0443827
0.0430432
0.0419131
0.0409264
0.0399916
0.039054
0.0380846
0.0370184
0.0358803
0.0345387
0.0331201
0.0313491
0.0295861
0.0495819
0.0478206
0.0458404
0.0441807
0.0429107
0.0418226
0.0408558
0.0399274
0.0389886
0.0380153
0.036947
0.0358083
0.0344758
0.0330689
0.0313276
0.0295928
0.0492777
0.0475258
0.0456205
0.0440148
0.0427869
0.0417241
0.0407687
0.0398414
0.0388978
0.0379158
0.0368403
0.0356937
0.0343637
0.0329603
0.0312498
0.0295443
0.0491075
0.0473583
0.045486
0.0439031
0.0426928
0.0416384
0.0406845
0.0397526
0.0388015
0.0378105
0.0367295
0.0355782
0.0342572
0.0328644
0.0311956
0.0295267
0.0562542
0.0499902
0.0471368
0.0447821
0.0432617
0.0420468
0.0410586
0.0401433
0.0392282
0.0382821
0.0372171
0.036073
0.0346565
0.0331607
0.0311483
0.029219
0.0520568
0.0496899
0.0470147
0.044879
0.04335
0.0421199
0.0411115
0.0401851
0.0392634
0.038315
0.0372513
0.0361122
0.034704
0.033222
0.0312266
0.0293134
0.0500492
0.0488106
0.0465468
0.04475
0.0433011
0.0421102
0.0411064
0.0401821
0.0392606
0.0383141
0.037258
0.03613
0.0347417
0.0332799
0.031304
0.0294029
0.0488321
0.0480559
0.0461567
0.0446
0.0432494
0.0421042
0.0411077
0.0401802
0.039252
0.0383005
0.037245
0.0361218
0.0347471
0.0333018
0.0313484
0.0294676
0.0481042
0.0474514
0.0457799
0.0443839
0.0431258
0.0420327
0.0410556
0.0401327
0.0392015
0.0382448
0.0371865
0.0360621
0.0346949
0.0332592
0.0313298
0.0294729
0.0476296
0.0470151
0.0454897
0.0441941
0.0430043
0.0419501
0.0409885
0.0400683
0.0391335
0.0381705
0.0371089
0.0359832
0.0346268
0.0332054
0.0313143
0.029493
0.0473284
0.0467212
0.0452731
0.0440327
0.0428843
0.0418535
0.0408996
0.0399773
0.0390349
0.0380597
0.0369873
0.0358493
0.0344934
0.0330726
0.0312224
0.029438
0.0471587
0.0465533
0.0451392
0.0439219
0.0427904
0.0417667
0.0408113
0.039882
0.0389307
0.037944
0.0368644
0.03572
0.0343758
0.0329689
0.0311788
0.0294447
0.0550292
0.0492064
0.0467035
0.0445971
0.0432127
0.0420878
0.0411515
0.0402753
0.0393911
0.0384788
0.0374347
0.0363193
0.0348694
0.0333602
0.0311164
0.0290679
0.0508468
0.048926
0.0466143
0.04473
0.043332
0.0421859
0.0412233
0.0403309
0.0394368
0.0385212
0.0374785
0.0363695
0.03493
0.0334396
0.0312113
0.02918
0.0488546
0.0480783
0.0461947
0.0446568
0.0433303
0.042212
0.0412437
0.0403452
0.039446
0.0385298
0.0374943
0.0363968
0.0349774
0.0335044
0.031281
0.0292382
0.0476541
0.0473452
0.0458324
0.0445384
0.0433057
0.0422262
0.0412582
0.0403511
0.0394416
0.0385185
0.037483
0.0363907
0.0349859
0.0335302
0.0313244
0.0292966
0.0469379
0.0467535
0.0454718
0.0443406
0.0431977
0.0421654
0.0412116
0.0403046
0.0393884
0.0384568
0.0374159
0.0363198
0.0349204
0.0334717
0.0312891
0.0292854
0.0464707
0.046324
0.0451893
0.0441587
0.0430824
0.0420862
0.0411444
0.0402371
0.0393147
0.0383743
0.0373287
0.0362306
0.0348446
0.0334146
0.0312837
0.0293285
0.0461728
0.0460329
0.0449757
0.0439998
0.0429635
0.0419882
0.0410513
0.0401385
0.0392044
0.0382469
0.0371852
0.0360677
0.0346783
0.0332431
0.031169
0.029263
0.0460035
0.045865
0.0448416
0.0438885
0.042868
0.0418979
0.0409573
0.040035
0.0390892
0.0381167
0.0370456
0.0359193
0.0345464
0.0331313
0.0311488
0.0293201
0.0543089
0.0486184
0.0463418
0.0444147
0.0431624
0.042139
0.0412768
0.0404667
0.0396437
0.0388014
0.0378179
0.0367836
0.0353396
0.0338739
0.0313338
0.0291361
0.0501327
0.0483333
0.0462591
0.0445577
0.0432922
0.0422474
0.0413576
0.0405302
0.039698
0.038854
0.0378742
0.0368506
0.0354219
0.0339851
0.0314592
0.0292728
0.0481499
0.0474968
0.0458617
0.0445125
0.0433162
0.0422947
0.0413937
0.0405559
0.0397167
0.038872
0.0379007
0.0368913
0.0354843
0.0340632
0.0315168
0.0292788
0.0469609
0.0467762
0.0455153
0.044412
0.0433073
0.0423208
0.0414156
0.0405654
0.0397136
0.0388611
0.0378904
0.0368884
0.0354985
0.0340986
0.0315628
0.0293325
0.0462539
0.0461942
0.0451664
0.0442267
0.0432098
0.0422667
0.0413712
0.0405166
0.039654
0.038789
0.0378092
0.0367997
0.0354121
0.034017
0.0315037
0.0293006
0.0457928
0.0457706
0.04489
0.0440505
0.0430984
0.0421883
0.0413015
0.0404428
0.03957
0.0386925
0.0377053
0.0366924
0.0353212
0.0339529
0.0315123
0.0293836
0.0454974
0.0454819
0.0446787
0.0438931
0.0429792
0.0420869
0.0412013
0.0403319
0.039441
0.038538
0.037525
0.0364792
0.035094
0.0337069
0.0313431
0.029285
0.0453278
0.0453136
0.0445438
0.0437801
0.0428803
0.0419906
0.0410985
0.0402154
0.0393073
0.0383831
0.0373549
0.036294
0.0349279
0.0335677
0.0313415
0.0294166
0.0538369
0.0481973
0.0460792
0.044279
0.0431375
0.0422049
0.0414179
0.0406797
0.0399261
0.0391643
0.0382502
0.0373071
0.0358585
0.0344263
0.0314397
0.0290147
0.0496639
0.047905
0.045996
0.0444238
0.0432707
0.0423172
0.0415024
0.0407475
0.0399858
0.0392241
0.0383163
0.0373894
0.0359615
0.0345705
0.0315772
0.029105
0.0476858
0.0470698
0.0456048
0.0443874
0.0433037
0.0423729
0.0415448
0.0407779
0.040009
0.0392476
0.0383506
0.0374418
0.0360354
0.0346539
0.0315794
0.0289515
0.0465036
0.046355
0.0452646
0.0442935
0.0433001
0.0424023
0.0415677
0.0407863
0.0400036
0.0392342
0.0383386
0.0374401
0.0360526
0.0346954
0.0316089
0.0289556
0.045802
0.0457782
0.0449208
0.0441129
0.0432056
0.0423489
0.0415206
0.0407311
0.0399337
0.0391479
0.0382386
0.037328
0.0359371
0.0345808
0.0315101
0.0288837
0.0453444
0.045358
0.0446473
0.0439385
0.0430942
0.0422681
0.0414455
0.0406482
0.0398368
0.0390348
0.0381154
0.0372008
0.0358312
0.0345156
0.03155
0.0290424
0.0450501
0.0450702
0.0444363
0.0437802
0.042972
0.0421608
0.0413356
0.0405223
0.0396857
0.0388484
0.037891
0.0369263
0.0355267
0.0341731
0.0313152
0.0289183
0.0448792
0.0449006
0.0442995
0.0436643
0.0428685
0.0420574
0.0412225
0.0403908
0.0395316
0.0386666
0.0376885
0.0367041
0.0353324
0.0340287
0.0313937
0.02926
0.053526
0.0479029
0.0458881
0.0441796
0.0431328
0.0422874
0.041585
0.0409371
0.0402833
0.0396487
0.0388797
0.0381484
0.0368841
0.035776
0.0326275
0.0302917
0.0493543
0.047605
0.0458027
0.0443237
0.0432666
0.042401
0.0416718
0.0410087
0.0403487
0.0397173
0.0389581
0.0382509
0.0370143
0.0359677
0.0327868
0.0303266
0.0473767
0.0467669
0.04541
0.0442872
0.0433005
0.0424576
0.0417147
0.04104
0.0403735
0.0397447
0.039
0.0383191
0.0371102
0.0360871
0.0327818
0.030085
0.0461972
0.0460538
0.045071
0.044194
0.0432969
0.0424858
0.0417346
0.0410443
0.0403634
0.0397274
0.0389862
0.0383226
0.0371403
0.0361611
0.0328328
0.0300867
0.0454978
0.0454787
0.0447285
0.0440137
0.0432012
0.042429
0.041681
0.0409792
0.0402795
0.0396225
0.0388623
0.0381825
0.0369909
0.0360159
0.0326975
0.029984
0.0450414
0.0450596
0.0444554
0.0438384
0.0430869
0.0423431
0.0415974
0.0408838
0.0401656
0.0394878
0.0387128
0.0380278
0.0368603
0.0359467
0.0327669
0.0302373
0.0447465
0.0447712
0.044243
0.0436774
0.0429596
0.0422278
0.0414749
0.0407385
0.0399854
0.0392586
0.0384252
0.0376603
0.0364222
0.0354193
0.0323313
0.0299485
0.0445733
0.0445993
0.0441032
0.0435573
0.0428498
0.0421154
0.0413486
0.0405878
0.0398043
0.0390392
0.0381729
0.037374
0.0361564
0.0352172
0.0324224
0.0305321
0.053316
0.0476999
0.0457567
0.0441166
0.0431468
0.0423773
0.0417533
0.0411898
0.0406288
0.0401058
0.0394566
0.0388771
0.037714
0.0367319
0.0331619
0.0303374
0.0491448
0.0473981
0.0456693
0.0442598
0.0432805
0.0424914
0.0418416
0.0412642
0.0406983
0.0401804
0.0395429
0.0389914
0.0378515
0.036919
0.0331513
0.0297016
0.047165
0.0465551
0.0452715
0.0442185
0.0433105
0.0425448
0.0418819
0.0412934
0.0407218
0.0402085
0.0395875
0.0390677
0.0379507
0.0370309
0.0329965
0.0288724
0.0459857
0.0458411
0.0449306
0.0441225
0.0433034
0.0425684
0.0418963
0.0412916
0.0407049
0.0401849
0.0395681
0.0390707
0.0379812
0.0371107
0.033002
0.0286606
0.0452858
0.0452653
0.0445863
0.0439391
0.0432032
0.0425052
0.0418337
0.0412143
0.0406049
0.0400595
0.039417
0.0388983
0.0377881
0.0369199
0.0328044
0.0284708
0.0448287
0.0448454
0.0443115
0.0437608
0.0430842
0.0424123
0.04174
0.0411054
0.0404732
0.0399032
0.039242
0.0387196
0.0376381
0.0368626
0.0329402
0.0288599
0.0445318
0.044555
0.0440964
0.0435955
0.0429507
0.0422878
0.0416036
0.0409399
0.0402639
0.039632
0.0388925
0.0382622
0.0370661
0.0361507
0.0323037
0.0283645
0.0443555
0.04438
0.0439529
0.0434706
0.0428341
0.0421659
0.0414637
0.0407705
0.0400574
0.0393794
0.0385993
0.0379331
0.0367697
0.0359897
0.0325922
0.0294872
0.0441288
0.0441522
0.0437652
0.0433182
0.0427211
0.0420863
0.0414121
0.0407405
0.0400428
0.0393753
0.0385998
0.037933
0.036757
0.0359565
0.0324999
0.0293104
0.0441648
0.0441885
0.0437605
0.0432771
0.0426393
0.0419645
0.0412493
0.0405292
0.0397755
0.0390314
0.0381761
0.03738
0.0361487
0.0351868
0.0323303
0.030376
0.0443233
0.0443409
0.0438252
0.0432732
0.0425734
0.0418445
0.0410797
0.0403047
0.0394873
0.0386518
0.0376895
0.0367096
0.0353231
0.0339942
0.0312989
0.0291071
0.0446563
0.044638
0.0439655
0.0432988
0.0425146
0.0417285
0.040923
0.0401092
0.0392529
0.0383656
0.0373582
0.0363049
0.0349268
0.0335432
0.0312648
0.0292885
0.0452411
0.0450985
0.0441809
0.0433366
0.0424457
0.0415947
0.0407563
0.0399131
0.0390267
0.0380971
0.0370509
0.0359347
0.0345525
0.033116
0.0310885
0.0292134
0.0463336
0.0457254
0.0444246
0.0433257
0.0423353
0.0414395
0.0405983
0.0397571
0.0388691
0.0379285
0.0368762
0.0357431
0.0343917
0.0329648
0.0311351
0.0293578
0.0482417
0.0464935
0.0447418
0.0432839
0.0422201
0.0412975
0.040459
0.0396207
0.0387403
0.0377982
0.0367463
0.0356073
0.0342806
0.0328691
0.0311648
0.029455
0.0524149
0.046803
0.0448488
0.0431713
0.0421279
0.0412363
0.0404303
0.0396165
0.0387622
0.0378403
0.0368071
0.0356833
0.0343757
0.0329732
0.0312908
0.0295671
0.044016
0.0440373
0.0436816
0.0432689
0.0427161
0.0421286
0.0415049
0.0408867
0.0402437
0.0396357
0.0389089
0.0382837
0.03707
0.0361264
0.0321784
0.0281079
0.0440474
0.0440692
0.043672
0.0432219
0.0426265
0.0419964
0.0413279
0.0406562
0.0399505
0.0392578
0.0384431
0.0376857
0.0364282
0.0353935
0.0322038
0.029719
0.044201
0.0442168
0.0437315
0.0432122
0.0425532
0.0418656
0.0411436
0.0404112
0.0396339
0.0388389
0.0379045
0.0369479
0.0355277
0.0341389
0.0311878
0.0287047
0.0445293
0.0445093
0.0438668
0.043232
0.042488
0.0417414
0.040975
0.0401996
0.0393783
0.038525
0.0375404
0.036506
0.0351045
0.0336858
0.0312449
0.0291128
0.04511
0.0449658
0.044078
0.0432648
0.0424124
0.0415997
0.0407977
0.0399887
0.0391324
0.0382307
0.037202
0.0360986
0.0346974
0.0332345
0.0310975
0.0291277
0.0461994
0.0455902
0.044319
0.0432509
0.0422981
0.0414393
0.040633
0.0398237
0.0389633
0.0380475
0.0370107
0.0358887
0.0345245
0.033079
0.0311759
0.029334
0.0481065
0.0463583
0.0446364
0.0432088
0.0421813
0.0412928
0.040488
0.039681
0.038826
0.0379064
0.0368688
0.0357397
0.034404
0.0329785
0.0312224
0.029464
0.0522798
0.0466697
0.0447453
0.0430983
0.0420915
0.041235
0.040462
0.0396796
0.0388531
0.0379553
0.0369387
0.0358273
0.0345145
0.033101
0.0313718
0.0295992
0.043938
0.0439577
0.0436246
0.0432387
0.0427226
0.0421772
0.041601
0.0410374
0.0404565
0.0399251
0.0392861
0.0387758
0.0376686
0.0368501
0.0327514
0.0284359
0.0439651
0.0439856
0.0436105
0.0431861
0.0426253
0.0420346
0.0414095
0.040786
0.0401333
0.0395038
0.0387564
0.038085
0.0368898
0.03593
0.0325823
0.0298786
0.0441144
0.0441289
0.0436654
0.0431711
0.042545
0.0418932
0.0412104
0.0405197
0.0397858
0.0390396
0.0381513
0.0372492
0.0358506
0.0344853
0.0313747
0.0287315
0.0444386
0.0444174
0.0437962
0.0431855
0.0424737
0.0417608
0.0410299
0.0402913
0.0395065
0.0386923
0.037742
0.036745
0.0353522
0.0339414
0.0313875
0.0291501
0.0450159
0.0448707
0.0440037
0.0432141
0.0423922
0.0416116
0.040842
0.0400652
0.0392397
0.038369
0.0373652
0.0362863
0.0348857
0.0334206
0.0312024
0.0291593
0.0461028
0.0454928
0.0442425
0.0431976
0.0422744
0.0414463
0.0406707
0.0398909
0.0390578
0.0381684
0.0371519
0.036048
0.0346828
0.0332319
0.0312715
0.0293748
0.0480091
0.0462609
0.0445601
0.0431551
0.0421561
0.041296
0.0405201
0.0397413
0.0389113
0.0380151
0.0369946
0.0358799
0.0345429
0.0331113
0.0313133
0.0295119
0.0521825
0.0465737
0.0446705
0.0430464
0.0420684
0.0412404
0.0404965
0.039743
0.0389428
0.0380694
0.0370716
0.0359761
0.0346641
0.0332458
0.031478
0.0296614
0.0438843
0.0439029
0.043586
0.0432199
0.0427321
0.0422189
0.0416787
0.041154
0.0406132
0.0401222
0.0395151
0.0390222
0.0378835
0.0369625
0.0325702
0.0278497
0.0439079
0.0439272
0.0435679
0.0431626
0.0426283
0.042068
0.041476
0.0408878
0.0402702
0.039676
0.0389547
0.0382992
0.0370756
0.036044
0.0324752
0.0294941
0.0440535
0.044067
0.0436189
0.0431434
0.0425423
0.0419184
0.0412659
0.0406063
0.0399024
0.0391852
0.0383163
0.0374252
0.035999
0.0345797
0.0313001
0.028476
0.0443744
0.0443523
0.0437462
0.0431535
0.0424662
0.0417796
0.0410764
0.0403658
0.0396074
0.0388182
0.037884
0.0368968
0.0354838
0.0340371
0.0313688
0.0290172
0.0449489
0.0448029
0.0439508
0.0431787
0.04238
0.0416246
0.0408806
0.0401287
0.0393263
0.0384769
0.0374866
0.0364159
0.0350005
0.0335108
0.0312143
0.0290966
0.0460339
0.0454233
0.0441878
0.04316
0.0422595
0.0414555
0.0407044
0.0399479
0.0391361
0.038266
0.037262
0.0361662
0.0347911
0.0333231
0.0313081
0.0293577
0.0479395
0.0461913
0.0445055
0.0431173
0.0421401
0.0413023
0.0405497
0.0397935
0.0389834
0.0381052
0.0370968
0.0359899
0.0346467
0.0332028
0.0313651
0.0295224
0.052113
0.0465052
0.0446172
0.0430101
0.0420542
0.0412485
0.0405282
0.0397985
0.0390193
0.0381653
0.0371812
0.0360956
0.0347801
0.0333518
0.0315474
0.0296892
0.0438493
0.0438671
0.0435622
0.0432117
0.0427463
0.0422598
0.0417505
0.041261
0.0407591
0.0403116
0.0397485
0.0392984
0.0381809
0.037244
0.032695
0.0276895
0.0438698
0.0438885
0.0435408
0.0431502
0.0426368
0.0421014
0.0415377
0.0409808
0.0403968
0.0398393
0.0391525
0.03853
0.0373145
0.0362664
0.0325635
0.0293927
0.0440124
0.0440253
0.0435886
0.0431273
0.0425458
0.0419446
0.0413175
0.0406854
0.0400098
0.0393223
0.0384791
0.0376111
0.0361837
0.0347464
0.0313573
0.0284012
0.0443306
0.0443079
0.0437128
0.0431338
0.0424655
0.0418
0.04112
0.0404336
0.0396995
0.0389349
0.0380208
0.0370508
0.0356345
0.0341733
0.0314266
0.0289877
0.0449029
0.0447564
0.0439151
0.043156
0.0423753
0.0416399
0.040917
0.0401865
0.039405
0.0385761
0.0376016
0.0365438
0.0351249
0.0336237
0.031272
0.0290949
0.0459863
0.0453753
0.0441505
0.0431356
0.0422523
0.0414676
0.0407364
0.0399995
0.0392066
0.0383546
0.0373642
0.036279
0.0349014
0.0334243
0.0313693
0.029375
0.0478914
0.0461432
0.0444682
0.0430926
0.042132
0.0413117
0.0405779
0.0398406
0.039048
0.0381863
0.0371901
0.0360926
0.0347478
0.0332969
0.0314294
0.0295525
0.0520649
0.0464579
0.0445808
0.0429865
0.0420474
0.0412592
0.0405581
0.0398482
0.0390872
0.0382506
0.0372798
0.0362048
0.0348893
0.033455
0.0316227
0.0297298
0.0438271
0.0438442
0.0435476
0.0432079
0.0427582
0.0422902
0.0418018
0.0413349
0.0408558
0.0404298
0.0398823
0.0394363
0.0382962
0.0372982
0.0325991
0.027378
0.0438452
0.0438633
0.0435236
0.0431432
0.0426445
0.0421265
0.041582
0.0410456
0.0404818
0.0399432
0.0392691
0.0386503
0.0374139
0.0363184
0.0324974
0.0291845
0.0439856
0.043998
0.0435691
0.0431176
0.0425499
0.0419647
0.0413552
0.0407413
0.0400832
0.039412
0.0385788
0.0377141
0.0362686
0.0347959
0.031316
0.0282597
0.0443017
0.0442785
0.043691
0.0431215
0.0424667
0.041816
0.0411521
0.0404823
0.0397638
0.0390135
0.0381081
0.0371416
0.0357117
0.0342256
0.0314148
0.0289084
0.0448724
0.0447254
0.0438915
0.0431416
0.0423735
0.0416524
0.0409444
0.0402288
0.0394612
0.0386448
0.0376782
0.0366241
0.0351958
0.0336776
0.0312811
0.0290576
0.0459546
0.0453433
0.0441258
0.0431199
0.0422488
0.0414779
0.0407609
0.0400379
0.0392579
0.0384176
0.0374349
0.0363538
0.03497
0.0334808
0.0313934
0.0293646
0.0478593
0.0461111
0.0444435
0.0430767
0.0421278
0.0413202
0.0406
0.0398762
0.0390959
0.0382454
0.0372567
0.0361639
0.0348152
0.0333556
0.0314639
0.0295596
0.0520329
0.0464264
0.0445568
0.0429715
0.0420443
0.0412688
0.0405815
0.0398861
0.039138
0.0383133
0.0373512
0.0362821
0.0349642
0.0335224
0.0316673
0.0297468
0.0438145
0.0438312
0.04354
0.0432076
0.0427685
0.0423133
0.0418398
0.0413896
0.0409284
0.0405209
0.03999
0.0395558
0.0384136
0.0373902
0.0326071
0.0272424
0.043831
0.0438488
0.0435143
0.0431406
0.0426519
0.0421458
0.0416149
0.0410935
0.0405453
0.0400226
0.0393617
0.0387522
0.037511
0.0363947
0.0325052
0.0290996
0.0439698
0.0439819
0.0435581
0.0431131
0.0425546
0.0419803
0.0413831
0.0407826
0.0401379
0.03948
0.0386573
0.0377997
0.0363488
0.0348596
0.0313262
0.0282036
0.0442845
0.0442611
0.0436784
0.0431152
0.0424693
0.0418288
0.0411761
0.0405181
0.0398112
0.0390723
0.0381755
0.0372147
0.0357803
0.034282
0.0314326
0.0288812
0.0448541
0.0447069
0.0438777
0.0431338
0.0423741
0.0416626
0.0409648
0.0402597
0.0395024
0.0386958
0.0377364
0.0366872
0.0352557
0.0337289
0.0313051
0.0290503
0.0459355
0.0453241
0.0441112
0.0431112
0.0422481
0.0414865
0.0407792
0.0400658
0.0392953
0.0384638
0.0374876
0.0364111
0.0350251
0.0335296
0.031422
0.0293697
0.0478398
0.0460917
0.0444288
0.0430678
0.0421266
0.0413274
0.0406164
0.039902
0.0391306
0.0382883
0.0373057
0.0362172
0.0348673
0.033403
0.031496
0.0295731
0.0520135
0.0464073
0.0445426
0.0429632
0.0420438
0.0412767
0.0405988
0.0399133
0.0391744
0.0383585
0.037403
0.0363389
0.0350205
0.0335746
0.0317049
0.0297656
0.0438087
0.0438251
0.0435366
0.0432075
0.0427735