/*--------------------------------*- C++ -*----------------------------------*\
| =========                 |                                                 |
| \\      /  F ield         | OpenFOAM: The Open Source CFD Toolbox           |
|  \\    /   O peration     | Version:  v1912                                 |
|   \\  /    A nd           | Website:  www.openfoam.com                      |
|    \\/     M anipulation  |                                                 |
\*---------------------------------------------------------------------------*/
FoamFile
{
    version     2.0;
    format      ascii;
    class       pointVectorField;
    location    "0.68/fluid";
    object      pointMotionU;
}
// * * * * * * * * * * * * * * * * * * * * * * * * * * * * * * * * * * * * * //

dimensions      [0 1 -1 0 0 0 0];


internalField   nonuniform List<vector> 
16859
(
(0 0 0)
(0 0 0)
(0 0 0)
(0 0 0)
(0 0 0)
(0 0 0)
(0 0 0)
(0 0 0)
(0 0 0)
(0 0 0)
(0 0 0)
(0 0 0)
(0 0 0)
(0 0 0)
(0 0 0)
(0 0 0)
(1.79315e-08 3.06195e-08 1.88539e-08)
(0 0 0)
(5.24817e-10 -1.17247e-09 9.19683e-10)
(1.00262e-09 -2.2428e-09 1.79226e-09)
(1.45294e-09 -3.25298e-09 2.68063e-09)
(1.89378e-09 -4.23356e-09 3.64061e-09)
(2.34275e-09 -5.20235e-09 4.72423e-09)
(2.81887e-09 -6.16225e-09 5.98188e-09)
(3.34515e-09 -7.09674e-09 7.46376e-09)
(3.95262e-09 -7.96128e-09 9.22059e-09)
(4.68796e-09 -8.66792e-09 1.13041e-08)
(5.6293e-09 -9.05743e-09 1.37687e-08)
(6.91937e-09 -8.84737e-09 1.66815e-08)
(8.83841e-09 -7.52753e-09 2.01584e-08)
(1.19408e-08 -4.15287e-09 2.44648e-08)
(1.72162e-08 2.97515e-09 3.02165e-08)
(2.50622e-08 1.49712e-08 3.77349e-08)
(3.72688e-08 3.89611e-08 4.67578e-08)
(0 0 0)
(1.03698e-09 -2.31043e-09 1.81557e-09)
(1.98064e-09 -4.42114e-09 3.53757e-09)
(2.86892e-09 -6.41604e-09 5.28943e-09)
(3.73658e-09 -8.35687e-09 7.18047e-09)
(4.61769e-09 -1.02819e-08 9.31267e-09)
(5.54861e-09 -1.22019e-08 1.17848e-08)
(6.57203e-09 -1.40929e-08 1.46948e-08)
(7.74314e-09 -1.58823e-08 1.81408e-08)
(9.1399e-09 -1.74245e-08 2.22196e-08)
(1.08821e-08 -1.8463e-08 2.70241e-08)
(1.31664e-08 -1.85699e-08 3.26421e-08)
(1.63303e-08 -1.70657e-08 3.91675e-08)
(2.09188e-08 -1.29687e-08 4.67247e-08)
(2.7589e-08 -5.21842e-09 5.54456e-08)
(3.5649e-08 5.24917e-09 6.44248e-08)
(4.9783e-08 2.0237e-08 7.85941e-08)
(0 0 0)
(1.52461e-09 -3.3798e-09 2.66566e-09)
(2.9109e-09 -6.47092e-09 5.19249e-09)
(4.21338e-09 -9.39915e-09 7.76012e-09)
(5.48169e-09 -1.2259e-08 1.05274e-08)
(6.76433e-09 -1.51132e-08 1.36425e-08)
(8.11223e-09 -1.7989e-08 1.7249e-08)
(9.58324e-09 -2.08698e-08 2.14892e-08)
(1.12482e-08 -2.36804e-08 2.6505e-08)
(1.31992e-08 -2.62629e-08 3.24346e-08)
(1.55614e-08 -2.83394e-08 3.94021e-08)
(1.85108e-08 -2.94652e-08 4.74997e-08)
(2.22968e-08 -2.89927e-08 5.67625e-08)
(2.72361e-08 -2.6131e-08 6.71247e-08)
(3.35624e-08 -2.03272e-08 7.83237e-08)
(4.03648e-08 -1.28556e-08 8.89226e-08)
(5.1412e-08 -2.67434e-09 1.03377e-07)
(0 0 0)
(1.97672e-09 -4.34573e-09 3.44967e-09)
(3.77205e-09 -8.32587e-09 6.71687e-09)
(5.45453e-09 -1.21074e-08 1.00313e-08)
(7.08632e-09 -1.58189e-08 1.35956e-08)
(8.72774e-09 -1.95517e-08 1.75986e-08)
(1.04412e-08 -2.3358e-08 2.22233e-08)
(1.22957e-08 -2.72442e-08 2.76514e-08)
(1.43718e-08 -3.11595e-08 3.4065e-08)
(1.6766e-08 -3.49757e-08 4.16421e-08)
(1.95938e-08 -3.84579e-08 5.05416e-08)
(2.29869e-08 -4.12258e-08 6.08737e-08)
(2.7078e-08 -4.27212e-08 7.26445e-08)
(3.19397e-08 -4.22338e-08 8.56509e-08)
(3.74324e-08 -3.91263e-08 9.9286e-08)
(4.25702e-08 -3.39654e-08 1.11465e-07)
(5.07007e-08 -2.48152e-08 1.26012e-07)
(0 0 0)
(2.38413e-09 -5.17388e-09 4.15058e-09)
(4.54622e-09 -9.92006e-09 8.07706e-09)
(6.5659e-09 -1.44448e-08 1.20513e-08)
(8.51503e-09 -1.89102e-08 1.63127e-08)
(1.04629e-08 -2.3439e-08 2.10834e-08)
(1.24805e-08 -2.81144e-08 2.65787e-08)
(1.46448e-08 -3.29781e-08 3.30127e-08)
(1.70434e-08 -3.80239e-08 4.06021e-08)
(1.97776e-08 -4.31863e-08 4.95631e-08)
(2.29608e-08 -4.83208e-08 6.00981e-08)
(2.67082e-08 -5.31739e-08 7.2366e-08)
(3.11067e-08 -5.73332e-08 8.64212e-08)
(3.61296e-08 -6.01499e-08 1.02073e-07)
(4.14634e-08 -6.06638e-08 1.18587e-07)
(4.5997e-08 -5.81833e-08 1.33249e-07)
(5.26491e-08 -4.86406e-08 1.4931e-07)
(0 0 0)
(2.73974e-09 -5.8315e-09 4.75552e-09)
(5.21977e-09 -1.11902e-08 9.2476e-09)
(7.5275e-09 -1.63174e-08 1.37814e-08)
(9.7414e-09 -2.14065e-08 1.86243e-08)
(1.19366e-08 -2.66108e-08 2.40232e-08)
(1.41892e-08 -3.20467e-08 3.02163e-08)
(1.65817e-08 -3.77962e-08 3.74408e-08)
(1.92074e-08 -4.39074e-08 4.59385e-08)
(2.21754e-08 -5.03936e-08 5.59564e-08)
(2.56122e-08 -5.72289e-08 6.77407e-08)
(2.96618e-08 -6.43386e-08 8.15219e-08)
(3.44734e-08 -7.15666e-08 9.74776e-08)
(4.01462e-08 -7.85729e-08 1.15619e-07)
(4.65545e-08 -8.45666e-08 1.35454e-07)
(5.25087e-08 -8.78646e-08 1.5392e-07)
(6.09477e-08 -8.15885e-08 1.74686e-07)
(0 0 0)
(3.03884e-09 -6.28905e-09 5.25621e-09)
(5.78389e-09 -1.20789e-08 1.02125e-08)
(8.3268e-09 -1.76392e-08 1.51974e-08)
(1.07492e-08 -2.31896e-08 2.04968e-08)
(1.31285e-08 -2.89096e-08 2.63726e-08)
(1.55426e-08 -3.49458e-08 3.30751e-08)
(1.80753e-08 -4.14171e-08 4.08522e-08)
(2.08221e-08 -4.8422e-08 4.99558e-08)
(2.38975e-08 -5.60462e-08 6.06467e-08)
(2.74435e-08 -6.43737e-08 7.31951e-08)
(3.16454e-08 -7.35053e-08 8.78845e-08)
(3.67554e-08 -8.35809e-08 1.05014e-07)
(4.31142e-08 -9.47837e-08 1.24869e-07)
(5.10866e-08 -1.07207e-07 1.47502e-07)
(5.98292e-08 -1.19364e-07 1.70147e-07)
(7.50298e-08 -1.33126e-07 1.99248e-07)
(0 0 0)
(3.27936e-09 -6.522e-09 5.64954e-09)
(6.23525e-09 -1.25386e-08 1.09665e-08)
(8.95979e-09 -1.83387e-08 1.62923e-08)
(1.15342e-08 -2.416e-08 2.19215e-08)
(1.40345e-08 -3.02012e-08 2.81208e-08)
(1.65362e-08 -3.66308e-08 3.51413e-08)
(1.91192e-08 -4.3595e-08 4.32272e-08)
(2.18742e-08 -5.12266e-08 5.26225e-08)
(2.49101e-08 -5.9656e-08 6.35748e-08)
(2.83645e-08 -6.90265e-08 7.63379e-08)
(3.24206e-08 -7.95195e-08 9.11771e-08)
(3.73348e-08 -9.13916e-08 1.08381e-07)
(4.34579e-08 -1.05013e-07 1.28258e-07)
(5.11535e-08 -1.20817e-07 1.51016e-07)
(5.93817e-08 -1.37104e-07 1.73808e-07)
(8.21583e-08 -1.66486e-07 2.11624e-07)
(0 0 0)
(0 0 0)
(0 0 0)
(0 0 0)
(0 0 0)
(0 0 0)
(0 0 0)
(0 0 0)
(0 0 0)
(0 0 0)
(0 0 0)
(0 0 0)
(0 0 0)
(0 0 0)
(0 0 0)
(0 0 0)
(1.10708e-08 1.55868e-08 8.5971e-09)
(0 0 0)
(5.29749e-10 -1.19983e-09 8.90256e-10)
(1.0114e-09 -2.29536e-09 1.73358e-09)
(1.46418e-09 -3.33016e-09 2.58986e-09)
(1.90564e-09 -4.33626e-09 3.51203e-09)
(2.35254e-09 -5.33292e-09 4.54889e-09)
(2.82236e-09 -6.32439e-09 5.74683e-09)
(3.33545e-09 -7.29595e-09 7.15064e-09)
(3.91846e-09 -8.20601e-09 8.80327e-09)
(4.61104e-09 -8.97237e-09 1.07443e-08)
(5.48013e-09 -9.44786e-09 1.30073e-08)
(6.65189e-09 -9.37596e-09 1.56194e-08)
(8.38137e-09 -8.30444e-09 1.86115e-08)
(1.11825e-08 -5.42065e-09 2.20528e-08)
(1.59399e-08 6.34339e-10 2.60788e-08)
(2.29912e-08 1.06377e-08 3.04271e-08)
(3.07034e-08 2.31773e-08 3.18658e-08)
(0 0 0)
(1.04684e-09 -2.36413e-09 1.75741e-09)
(1.99827e-09 -4.52433e-09 3.42166e-09)
(2.89178e-09 -6.56773e-09 5.11036e-09)
(3.7613e-09 -8.55898e-09 6.92718e-09)
(4.6393e-09 -1.05389e-08 8.96778e-09)
(5.55924e-09 -1.25211e-08 1.13231e-08)
(6.55887e-09 -1.44845e-08 1.40809e-08)
(7.6852e-09 -1.63617e-08 1.73246e-08)
(9.00284e-09 -1.8017e-08 2.11292e-08)
(1.06104e-08 -1.92139e-08 2.55516e-08)
(1.26732e-08 -1.95677e-08 3.0616e-08)
(1.54838e-08 -1.84916e-08 3.62951e-08)
(1.95336e-08 -1.51989e-08 4.24795e-08)
(2.54294e-08 -9.02657e-09 4.88762e-08)
(3.27605e-08 -1.03266e-09 5.45534e-08)
(4.09724e-08 3.92893e-09 5.88811e-08)
(0 0 0)
(1.53948e-09 -3.45808e-09 2.58027e-09)
(2.93775e-09 -6.62144e-09 5.02246e-09)
(4.24879e-09 -9.62066e-09 7.49782e-09)
(5.52121e-09 -1.25544e-08 1.0157e-08)
(6.80142e-09 -1.54891e-08 1.31391e-08)
(8.13651e-09 -1.84555e-08 1.65764e-08)
(9.57789e-09 -2.14409e-08 2.0597e-08)
(1.11855e-08 -2.43764e-08 2.53229e-08)
(1.30333e-08 -2.7115e-08 3.08635e-08)
(1.52177e-08 -2.94014e-08 3.72984e-08)
(1.78702e-08 -3.08377e-08 4.4647e-08)
(2.1176e-08 -3.08752e-08 5.28189e-08)
(2.53779e-08 -2.89249e-08 6.15336e-08)
(3.06683e-08 -2.48167e-08 7.0183e-08)
(3.64877e-08 -1.99372e-08 7.74736e-08)
(4.21295e-08 -1.79041e-08 8.2199e-08)
(0 0 0)
(1.99677e-09 -4.44609e-09 3.3393e-09)
(3.80862e-09 -8.51902e-09 6.49735e-09)
(5.50365e-09 -1.2392e-08 9.69314e-09)
(7.14298e-09 -1.61987e-08 1.3119e-08)
(8.78471e-09 -2.00351e-08 1.69521e-08)
(1.04872e-08 -2.39575e-08 2.13617e-08)
(1.23122e-08 -2.79767e-08 2.65118e-08)
(1.43285e-08 -3.20477e-08 3.2561e-08)
(1.66124e-08 -3.6052e-08 3.96538e-08)
(1.92464e-08 -3.97733e-08 4.79004e-08)
(2.23099e-08 -4.28684e-08 5.73358e-08)
(2.58553e-08 -4.48546e-08 6.78467e-08)
(2.98537e-08 -4.51713e-08 7.90389e-08)
(3.40961e-08 -4.34632e-08 9.00065e-08)
(3.79477e-08 -4.04053e-08 9.88807e-08)
(4.13358e-08 -3.87789e-08 1.03918e-07)
(0 0 0)
(2.4095e-09 -5.29313e-09 4.01812e-09)
(4.59293e-09 -1.01498e-08 7.81387e-09)
(6.62972e-09 -1.47834e-08 1.16466e-08)
(8.59093e-09 -1.93625e-08 1.57434e-08)
(1.05439e-08 -2.4015e-08 2.0313e-08)
(1.25558e-08 -2.88286e-08 2.55547e-08)
(1.4697e-08 -3.38492e-08 3.1663e-08)
(1.7044e-08 -3.90756e-08 3.88279e-08)
(1.96791e-08 -4.4449e-08 4.72295e-08)
(2.26843e-08 -4.98366e-08 5.70185e-08)
(2.61236e-08 -5.50052e-08 6.82772e-08)
(3.00017e-08 -5.95789e-08 8.09416e-08)
(3.41764e-08 -6.29713e-08 9.46387e-08)
(3.82238e-08 -6.43302e-08 1.08341e-07)
(4.13136e-08 -6.30181e-08 1.19618e-07)
(4.312e-08 -6.04893e-08 1.26016e-07)
(0 0 0)
(2.77044e-09 -5.9658e-09 4.60428e-09)
(5.27674e-09 -1.1449e-08 8.94746e-09)
(7.6065e-09 -1.66993e-08 1.33207e-08)
(9.83778e-09 -2.19171e-08 1.79776e-08)
(1.20443e-08 -2.72613e-08 2.31505e-08)
(1.42994e-08 -3.28533e-08 2.90603e-08)
(1.66801e-08 -3.87792e-08 3.59228e-08)
(1.92711e-08 -4.50907e-08 4.39517e-08)
(2.21664e-08 -5.1805e-08 5.3356e-08)
(2.54688e-08 -5.89018e-08 6.43281e-08)
(2.92833e-08 -6.63134e-08 7.70177e-08)
(3.36988e-08 -7.38913e-08 9.14773e-08)
(3.87303e-08 -8.12942e-08 1.07519e-07)
(4.41629e-08 -8.76842e-08 1.24312e-07)
(4.90485e-08 -9.13606e-08 1.39111e-07)
(5.15262e-08 -8.91122e-08 1.49043e-07)
(0 0 0)
(3.07466e-09 -6.43389e-09 5.08978e-09)
(5.85079e-09 -1.23582e-08 9.8826e-09)
(8.42067e-09 -1.80517e-08 1.4692e-08)
(1.08661e-08 -2.37416e-08 1.97892e-08)
(1.32637e-08 -2.96137e-08 2.54207e-08)
(1.56898e-08 -3.58193e-08 3.18191e-08)
(1.82245e-08 -4.24813e-08 3.92103e-08)
(2.09578e-08 -4.9701e-08 4.78177e-08)
(2.39948e-08 -5.7566e-08 5.78634e-08)
(2.74636e-08 -6.61619e-08 6.95632e-08)
(3.15294e-08 -7.55911e-08 8.31175e-08)
(3.64197e-08 -8.59952e-08 9.8692e-08)
(4.24615e-08 -9.75576e-08 1.16347e-07)
(5.00484e-08 -1.10329e-07 1.35715e-07)
(5.8717e-08 -1.23005e-07 1.54313e-07)
(6.72845e-08 -1.34174e-07 1.69079e-07)
(0 0 0)
(3.31986e-09 -6.6723e-09 5.47155e-09)
(6.31125e-09 -1.28286e-08 1.06141e-08)
(9.0674e-09 -1.87676e-08 1.57536e-08)
(1.16701e-08 -2.47347e-08 2.11696e-08)
(1.41956e-08 -3.09352e-08 2.71132e-08)
(1.67186e-08 -3.75426e-08 3.38179e-08)
(1.93174e-08 -4.47064e-08 4.15063e-08)
(2.20798e-08 -5.25615e-08 5.03951e-08)
(2.51104e-08 -6.12386e-08 6.06949e-08)
(2.85409e-08 -7.088e-08 7.26078e-08)
(3.25486e-08 -8.16639e-08 8.63216e-08)
(3.7388e-08 -9.38429e-08 1.01999e-07)
(4.34259e-08 -1.07778e-07 1.19731e-07)
(5.10872e-08 -1.23844e-07 1.3931e-07)
(5.96224e-08 -1.40496e-07 1.58131e-07)
(7.47246e-08 -1.64263e-07 1.7951e-07)
(0 0 0)
(0 0 0)
(0 0 0)
(0 0 0)
(0 0 0)
(0 0 0)
(0 0 0)
(0 0 0)
(0 0 0)
(0 0 0)
(0 0 0)
(0 0 0)
(0 0 0)
(0 0 0)
(0 0 0)
(0 0 0)
(5.75199e-09 7.06191e-09 2.76124e-09)
(0 0 0)
(5.32159e-10 -1.22401e-09 8.28416e-10)
(1.01515e-09 -2.34202e-09 1.61215e-09)
(1.4674e-09 -3.39891e-09 2.40594e-09)
(1.90528e-09 -4.42794e-09 3.25773e-09)
(2.34383e-09 -5.4498e-09 4.21111e-09)
(2.79766e-09 -6.47074e-09 5.30629e-09)
(3.28226e-09 -7.47926e-09 6.58016e-09)
(3.8159e-09 -8.44006e-09 8.06451e-09)
(4.42327e-09 -9.28417e-09 9.78152e-09)
(5.14371e-09 -9.89344e-09 1.17347e-08)
(6.04934e-09 -1.00769e-08 1.38929e-08)
(7.28015e-09 -9.53662e-09 1.61612e-08)
(9.09258e-09 -7.82825e-09 1.83251e-08)
(1.18252e-08 -4.41607e-09 1.99249e-08)
(1.52649e-08 5.15066e-10 2.01405e-08)
(1.708e-08 5.63774e-09 1.50735e-08)
(0 0 0)
(1.05179e-09 -2.41153e-09 1.63533e-09)
(2.0061e-09 -4.61575e-09 3.18196e-09)
(2.89895e-09 -6.70237e-09 4.74745e-09)
(3.76216e-09 -8.73848e-09 6.42585e-09)
(4.62494e-09 -1.07676e-08 8.30253e-09)
(5.51538e-09 -1.28064e-08 1.04565e-08)
(6.46227e-09 -1.48398e-08 1.29601e-08)
(7.49726e-09 -1.68102e-08 1.5876e-08)
(8.65822e-09 -1.86036e-08 1.92472e-08)
(9.996e-09 -2.00288e-08 2.30784e-08)
(1.15878e-08 -2.07981e-08 2.73005e-08)
(1.35559e-08 -2.05321e-08 3.17059e-08)
(1.6066e-08 -1.88599e-08 3.58319e-08)
(1.91742e-08 -1.58027e-08 3.87808e-08)
(2.22232e-08 -1.26416e-08 3.93487e-08)
(2.35588e-08 -1.30691e-08 3.52282e-08)
(0 0 0)
(1.5473e-09 -3.52699e-09 2.40109e-09)
(2.95046e-09 -6.7543e-09 4.67078e-09)
(4.26155e-09 -9.81625e-09 6.96577e-09)
(5.52641e-09 -1.2815e-08 9.4228e-09)
(6.78705e-09 -1.58203e-08 1.2166e-08)
(8.08345e-09 -1.88668e-08 1.53107e-08)
(9.45515e-09 -2.19482e-08 1.89631e-08)
(1.09421e-08 -2.50066e-08 2.3216e-08)
(1.25841e-08 -2.79174e-08 2.8136e-08)
(1.44182e-08 -3.0472e-08 3.37361e-08)
(1.64711e-08 -3.23692e-08 3.99254e-08)
(1.87406e-08 -3.3255e-08 4.64212e-08)
(2.11422e-08 -3.28997e-08 5.26051e-08)
(2.33819e-08 -3.16441e-08 5.7353e-08)
(2.48016e-08 -3.08656e-08 5.92661e-08)
(2.37023e-08 -3.29453e-08 5.60077e-08)
(0 0 0)
(2.00792e-09 -4.53415e-09 3.10762e-09)
(3.82732e-09 -8.68873e-09 6.04289e-09)
(5.52416e-09 -1.26417e-08 9.00626e-09)
(7.15649e-09 -1.65309e-08 1.21723e-08)
(8.77744e-09 -2.04561e-08 1.56996e-08)
(1.04373e-08 -2.44774e-08 1.97354e-08)
(1.21849e-08 -2.86109e-08 2.44172e-08)
(1.40665e-08 -3.28203e-08 2.98671e-08)
(1.61214e-08 -3.70046e-08 3.61783e-08)
(1.83686e-08 -4.09828e-08 4.33836e-08)
(2.07779e-08 -4.44848e-08 5.13968e-08)
(2.32114e-08 -4.71758e-08 5.99086e-08)
(2.53231e-08 -4.87729e-08 6.82128e-08)
(2.64625e-08 -4.93489e-08 7.49872e-08)
(2.5975e-08 -4.96867e-08 7.84482e-08)
(2.2596e-08 -5.17774e-08 7.5926e-08)
(0 0 0)
(2.42445e-09 -5.39737e-09 3.73976e-09)
(4.61873e-09 -1.03506e-08 7.26823e-09)
(6.66018e-09 -1.50788e-08 1.08229e-08)
(8.6168e-09 -1.97549e-08 1.46099e-08)
(1.05509e-08 -2.45107e-08 1.88163e-08)
(1.25218e-08 -2.94371e-08 2.36161e-08)
(1.45866e-08 -3.45833e-08 2.91725e-08)
(1.68002e-08 -3.99523e-08 3.56343e-08)
(1.92084e-08 -4.54936e-08 4.31223e-08)
(2.18316e-08 -5.10909e-08 5.16992e-08)
(2.46277e-08 -5.65465e-08 6.13099e-08)
(2.74149e-08 -6.15611e-08 7.16718e-08)
(2.97358e-08 -6.57121e-08 8.20737e-08)
(3.07158e-08 -6.84752e-08 9.10708e-08)
(2.94763e-08 -6.95274e-08 9.64444e-08)
(2.43349e-08 -7.02559e-08 9.5029e-08)
(0 0 0)
(2.78956e-09 -6.0827e-09 4.28593e-09)
(5.31054e-09 -1.16742e-08 8.32397e-09)
(7.64871e-09 -1.70303e-08 1.23807e-08)
(9.8794e-09 -2.23563e-08 1.66868e-08)
(1.20718e-08 -2.78149e-08 2.14502e-08)
(1.42919e-08 -3.35294e-08 2.68643e-08)
(1.6605e-08 -3.95866e-08 3.31111e-08)
(1.90762e-08 -4.6038e-08 4.03587e-08)
(2.17673e-08 -5.28984e-08 4.87511e-08)
(2.47263e-08 -6.01436e-08 5.83812e-08)
(2.79623e-08 -6.76995e-08 6.92391e-08)
(3.13904e-08 -7.54103e-08 8.1108e-08)
(3.47157e-08 -8.29371e-08 9.33526e-08)
(3.72391e-08 -8.95142e-08 1.04525e-07)
(3.78697e-08 -9.36945e-08 1.12015e-07)
(3.33731e-08 -9.28275e-08 1.12328e-07)
(0 0 0)
(3.09814e-09 -6.55947e-09 4.73867e-09)
(5.89309e-09 -1.26001e-08 9.19565e-09)
(8.47573e-09 -1.84073e-08 1.36581e-08)
(1.09255e-08 -2.42132e-08 1.83727e-08)
(1.33155e-08 -3.02069e-08 2.35606e-08)
(1.57157e-08 -3.65409e-08 2.94255e-08)
(1.81967e-08 -4.3337e-08 3.61583e-08)
(2.08322e-08 -5.06912e-08 4.39354e-08)
(2.37007e-08 -5.86806e-08 5.29109e-08)
(2.68857e-08 -6.73702e-08 6.31944e-08)
(3.04722e-08 -7.68227e-08 7.48086e-08)
(3.45369e-08 -8.71016e-08 8.75998e-08)
(3.9117e-08 -9.82343e-08 1.01037e-07)
(4.40877e-08 -1.09992e-07 1.13761e-07)
(4.86598e-08 -1.20889e-07 1.22884e-07)
(5.10837e-08 -1.29286e-07 1.23851e-07)
(0 0 0)
(3.34763e-09 -6.80219e-09 5.09508e-09)
(6.36202e-09 -1.3079e-08 9.87829e-09)
(9.13543e-09 -1.91356e-08 1.46483e-08)
(1.17481e-08 -2.52229e-08 1.96596e-08)
(1.42732e-08 -3.15488e-08 2.51374e-08)
(1.67809e-08 -3.82875e-08 3.12869e-08)
(1.93419e-08 -4.55858e-08 3.82964e-08)
(2.20317e-08 -5.35707e-08 4.63368e-08)
(2.49346e-08 -6.23571e-08 5.55533e-08)
(2.81484e-08 -7.20578e-08 6.60461e-08)
(3.17897e-08 -8.27955e-08 7.78325e-08)
(3.59962e-08 -9.4716e-08 9.07677e-08)
(4.09087e-08 -1.07971e-07 1.04372e-07)
(4.65407e-08 -1.22552e-07 1.17462e-07)
(5.19471e-08 -1.36686e-07 1.27186e-07)
(6.01494e-08 -1.54885e-07 1.27945e-07)
(0 0 0)
(0 0 0)
(0 0 0)
(0 0 0)
(0 0 0)
(0 0 0)
(0 0 0)
(0 0 0)
(0 0 0)
(0 0 0)
(0 0 0)
(0 0 0)
(0 0 0)
(0 0 0)
(0 0 0)
(0 0 0)
(2.55467e-09 2.98463e-09 1.68277e-09)
(0 0 0)
(5.32461e-10 -1.2446e-09 7.37281e-10)
(1.01468e-09 -2.38178e-09 1.43397e-09)
(1.46398e-09 -3.45752e-09 2.13793e-09)
(1.89521e-09 -4.50619e-09 2.89064e-09)
(2.32117e-09 -5.54982e-09 3.72903e-09)
(2.75287e-09 -6.5967e-09 4.68597e-09)
(3.19997e-09 -7.6389e-09 5.78953e-09)
(3.67093e-09 -8.64825e-09 7.06012e-09)
(4.17347e-09 -9.57039e-09 8.50409e-09)
(4.71672e-09 -1.03174e-08 1.01014e-08)
(5.31691e-09 -1.07607e-08 1.17837e-08)
(6.00773e-09 -1.07288e-08 1.33967e-08)
(6.84687e-09 -1.00188e-08 1.46397e-08)
(7.87012e-09 -8.45412e-09 1.49992e-08)
(8.85244e-09 -6.2031e-09 1.39566e-08)
(8.6797e-09 -2.85838e-09 1.04501e-08)
(0 0 0)
(1.05265e-09 -2.45189e-09 1.45546e-09)
(2.00578e-09 -4.6936e-09 2.83038e-09)
(2.89328e-09 -6.817e-09 4.2188e-09)
(3.74418e-09 -8.89124e-09 5.70212e-09)
(4.58346e-09 -1.09622e-08 7.35273e-09)
(5.43254e-09 -1.305e-08 9.23526e-09)
(6.30949e-09 -1.51453e-08 1.14052e-08)
(7.22817e-09 -1.72021e-08 1.39031e-08)
(8.19652e-09 -1.91295e-08 1.67429e-08)
(9.21426e-09 -2.07825e-08 1.98879e-08)
(1.02701e-08 -2.19639e-08 2.32094e-08)
(1.13354e-08 -2.24587e-08 2.64201e-08)
(1.23411e-08 -2.21485e-08 2.89782e-08)
(1.31072e-08 -2.12593e-08 3.00387e-08)
(1.32942e-08 -2.05945e-08 2.89654e-08)
(1.27257e-08 -2.17377e-08 2.63409e-08)
(0 0 0)
(1.54925e-09 -3.58558e-09 2.13714e-09)
(2.95146e-09 -6.86721e-09 4.155e-09)
(4.25585e-09 -9.98223e-09 6.19064e-09)
(5.50448e-09 -1.30355e-08 8.36243e-09)
(6.73368e-09 -1.60997e-08 1.07758e-08)
(7.97457e-09 -1.92133e-08 1.35252e-08)
(9.25258e-09 -2.2376e-08 1.66926e-08)
(1.05847e-08 -2.55417e-08 2.034e-08)
(1.19731e-08 -2.86091e-08 2.44929e-08)
(1.33933e-08 -3.14153e-08 2.91099e-08)
(1.47719e-08 -3.37451e-08 3.40288e-08)
(1.5951e-08 -3.53913e-08 3.88866e-08)
(1.66372e-08 -3.63215e-08 4.30224e-08)
(1.63974e-08 -3.69668e-08 4.54751e-08)
(1.50266e-08 -3.81791e-08 4.55676e-08)
(1.25247e-08 -4.0863e-08 4.40832e-08)
(0 0 0)
(2.01166e-09 -4.60884e-09 2.76629e-09)
(3.83119e-09 -8.8325e-09 5.37619e-09)
(5.52132e-09 -1.28526e-08 8.00509e-09)
(7.13571e-09 -1.68101e-08 1.08042e-08)
(8.72103e-09 -2.08076e-08 1.39082e-08)
(1.03175e-08 -2.49082e-08 1.74384e-08)
(1.19581e-08 -2.91325e-08 2.15011e-08)
(1.36639e-08 -3.34524e-08 2.61798e-08)
(1.54339e-08 -3.77827e-08 3.15168e-08)
(1.7223e-08 -4.1974e-08 3.74782e-08)
(1.89013e-08 -4.58162e-08 4.38948e-08)
(2.01846e-08 -4.90757e-08 5.03741e-08)
(2.05497e-08 -5.16076e-08 5.6197e-08)
(1.9268e-08 -5.35557e-08 6.03073e-08)
(1.61733e-08 -5.53536e-08 6.18198e-08)
(1.16962e-08 -5.78835e-08 6.14179e-08)
(0 0 0)
(2.43069e-09 -5.48549e-09 3.32945e-09)
(4.62711e-09 -1.052e-08 6.46729e-09)
(6.66324e-09 -1.53268e-08 9.62133e-09)
(8.60256e-09 -2.0082e-08 1.29703e-08)
(1.05008e-08 -2.49197e-08 1.66732e-08)
(1.24067e-08 -2.99324e-08 2.08735e-08)
(1.43619e-08 -3.51706e-08 2.56984e-08)
(1.63958e-08 -4.06391e-08 3.1251e-08)
(1.85149e-08 -4.62912e-08 3.75916e-08)
(2.06783e-08 -5.20198e-08 4.47025e-08)
(2.27494e-08 -5.76465e-08 5.24257e-08)
(2.44105e-08 -6.2908e-08 6.03688e-08)
(2.50418e-08 -6.74395e-08 6.77857e-08)
(2.37045e-08 -7.07672e-08 7.35243e-08)
(1.9993e-08 -7.24537e-08 7.64369e-08)
(1.39167e-08 -7.30624e-08 7.70972e-08)
(0 0 0)
(2.79894e-09 -6.18116e-09 3.81633e-09)
(5.3249e-09 -1.18634e-08 7.40798e-09)
(7.66043e-09 -1.73067e-08 1.10084e-08)
(9.87653e-09 -2.27197e-08 1.48174e-08)
(1.2036e-08 -2.82663e-08 1.90123e-08)
(1.41954e-08 -3.40699e-08 2.37527e-08)
(1.64049e-08 -4.0215e-08 2.91809e-08)
(1.87067e-08 -4.67475e-08 3.54141e-08)
(2.11265e-08 -5.36729e-08 4.25275e-08)
(2.36565e-08 -6.09509e-08 5.05194e-08)
(2.62195e-08 -6.84812e-08 5.92483e-08)
(2.86023e-08 -7.60646e-08 6.83325e-08)
(3.03484e-08 -8.32984e-08 7.70041e-08)
(3.06764e-08 -8.93506e-08 8.39911e-08)
(2.89391e-08 -9.28151e-08 8.78516e-08)
(2.36271e-08 -9.07259e-08 8.92984e-08)
(0 0 0)
(3.11112e-09 -6.66487e-09 4.22024e-09)
(5.91451e-09 -1.28025e-08 8.18535e-09)
(8.49813e-09 -1.87027e-08 1.21468e-08)
(1.09377e-08 -2.46004e-08 1.63186e-08)
(1.33004e-08 -3.06856e-08 2.08894e-08)
(1.56481e-08 -3.7109e-08 2.60278e-08)
(1.80381e-08 -4.39867e-08 3.1883e-08)
(2.05242e-08 -5.14034e-08 3.85782e-08)
(2.31541e-08 -5.94156e-08 4.61945e-08)
(2.59628e-08 -6.8052e-08 5.47367e-08)
(2.89591e-08 -7.73115e-08 6.40722e-08)
(3.21e-08 -8.71453e-08 7.38237e-08)
(3.52557e-08 -9.73936e-08 8.3192e-08)
(3.81692e-08 -1.07578e-07 9.07361e-08)
(4.03986e-08 -1.16242e-07 9.45956e-08)
(4.19883e-08 -1.21509e-07 9.4983e-08)
(0 0 0)
(3.36443e-09 -6.91088e-09 4.53853e-09)
(6.39102e-09 -1.32876e-08 8.7948e-09)
(9.16961e-09 -1.944e-08 1.30305e-08)
(1.17772e-08 -2.56212e-08 1.74665e-08)
(1.42823e-08 -3.20398e-08 2.22954e-08)
(1.6748e-08 -3.88668e-08 2.76872e-08)
(1.92344e-08 -4.62412e-08 3.37895e-08)
(2.18005e-08 -5.42751e-08 4.0721e-08)
(2.45056e-08 -6.30564e-08 4.85561e-08)
(2.7408e-08 -7.26515e-08 5.72921e-08)
(3.05617e-08 -8.31036e-08 6.67912e-08)
(3.40041e-08 -9.44231e-08 7.6677e-08)
(3.77307e-08 -1.06545e-07 8.6163e-08)
(4.1618e-08 -1.19182e-07 9.38434e-08)
(4.50135e-08 -1.30694e-07 9.77652e-08)
(5.10876e-08 -1.44871e-07 9.51141e-08)
(0 0 0)
(0 0 0)
(0 0 0)
(0 0 0)
(0 0 0)
(0 0 0)
(0 0 0)
(0 0 0)
(0 0 0)
(0 0 0)
(0 0 0)
(0 0 0)
(0 0 0)
(0 0 0)
(0 0 0)
(0 0 0)
(1.18956e-09 1.36077e-09 1.79732e-09)
(0 0 0)
(5.31291e-10 -1.26138e-09 6.20808e-10)
(1.01134e-09 -2.41414e-09 1.20683e-09)
(1.45626e-09 -3.50522e-09 1.79769e-09)
(1.87931e-09 -4.56987e-09 2.42737e-09)
(2.29091e-09 -5.63121e-09 3.12542e-09)
(2.69854e-09 -6.69916e-09 3.91709e-09)
(3.10636e-09 -7.76886e-09 4.82228e-09)
(3.51424e-09 -8.81799e-09 5.8523e-09)
(3.9162e-09 -9.80342e-09 7.00353e-09)
(4.29965e-09 -1.06583e-08 8.24634e-09)
(4.64669e-09 -1.12916e-08 9.50778e-09)
(4.93963e-09 -1.1593e-08 1.06485e-08)
(5.17136e-09 -1.14382e-08 1.14431e-08)
(5.34879e-09 -1.06852e-08 1.16062e-08)
(5.44869e-09 -9.27521e-09 1.1023e-08)
(5.11686e-09 -6.10965e-09 9.34202e-09)
(0 0 0)
(1.05066e-09 -2.48477e-09 1.22561e-09)
(1.99987e-09 -4.75698e-09 2.38219e-09)
(2.87923e-09 -6.91022e-09 3.54764e-09)
(3.71474e-09 -9.01524e-09 4.78862e-09)
(4.52697e-09 -1.11197e-08 6.16311e-09)
(5.33078e-09 -1.32466e-08 7.72087e-09)
(6.13419e-09 -1.53913e-08 9.50137e-09)
(6.93556e-09 -1.75171e-08 1.15277e-08)
(7.719e-09 -1.95501e-08 1.37946e-08)
(8.44834e-09 -2.1377e-08 1.62481e-08)
(9.06112e-09 -2.28527e-08 1.87542e-08)
(9.4651e-09 -2.38354e-08 2.10596e-08)
(9.54744e-09 -2.42633e-08 2.27664e-08)
(9.2204e-09 -2.42701e-08 2.34049e-08)
(8.58174e-09 -2.42113e-08 2.28727e-08)
(8.25625e-09 -2.49164e-08 2.20833e-08)
(0 0 0)
(1.54707e-09 -3.63329e-09 1.79979e-09)
(2.94438e-09 -6.95904e-09 3.49739e-09)
(4.23797e-09 -1.01169e-08 5.20633e-09)
(5.46577e-09 -1.32136e-08 7.02357e-09)
(6.65825e-09 -1.63241e-08 9.03361e-09)
(7.83777e-09 -1.94896e-08 1.13094e-08)
(9.01656e-09 -2.27145e-08 1.39097e-08)
(1.01918e-08 -2.59613e-08 1.68708e-08)
(1.13363e-08 -2.9145e-08 2.01909e-08)
(1.23841e-08 -3.21315e-08 2.38038e-08)
(1.32088e-08 -3.4751e-08 2.754e-08)
(1.36012e-08 -3.68519e-08 3.10846e-08)
(1.32715e-08 -3.84214e-08 3.3965e-08)
(1.1978e-08 -3.97521e-08 3.56743e-08)
(1.00238e-08 -4.12973e-08 3.61223e-08)
(8.21142e-09 -4.35627e-08 3.62905e-08)
(0 0 0)
(2.01009e-09 -4.66954e-09 2.32991e-09)
(3.82469e-09 -8.94912e-09 4.52589e-09)
(5.50277e-09 -1.30229e-08 6.73322e-09)
(7.09323e-09 -1.70341e-08 9.07579e-09)
(8.63597e-09 -2.10869e-08 1.16617e-08)
(1.01613e-08 -2.52465e-08 1.45849e-08)
(1.16873e-08 -2.95358e-08 1.79219e-08)
(1.32136e-08 -3.39312e-08 2.17233e-08)
(1.47082e-08 -3.83566e-08 2.59954e-08)
(1.60849e-08 -4.26783e-08 3.06704e-08)
(1.71666e-08 -4.67098e-08 3.5565e-08)
(1.76363e-08 -5.02431e-08 4.03365e-08)
(1.70146e-08 -5.31262e-08 4.44785e-08)
(1.48225e-08 -5.53893e-08 4.74517e-08)
(1.14053e-08 -5.72174e-08 4.90504e-08)
(7.91929e-09 -5.92705e-08 5.01639e-08)
(0 0 0)
(2.43058e-09 -5.55692e-09 2.80466e-09)
(4.62307e-09 -1.0657e-08 5.44529e-09)
(6.64745e-09 -1.55261e-08 8.09405e-09)
(8.5622e-09 -2.03425e-08 1.08974e-08)
(1.04159e-08 -2.52411e-08 1.39832e-08)
(1.22474e-08 -3.03145e-08 1.74628e-08)
(1.40829e-08 -3.56122e-08 2.14281e-08)
(1.59308e-08 -4.11372e-08 2.59425e-08)
(1.77676e-08 -4.684e-08 3.1022e-08)
(1.95145e-08 -5.26097e-08 3.66034e-08)
(2.09948e-08 -5.82611e-08 4.2499e-08)
(2.18707e-08 -6.3516e-08 4.83491e-08)
(2.15865e-08 -6.7972e-08 5.36136e-08)
(1.94733e-08 -7.10786e-08 5.76932e-08)
(1.56227e-08 -7.2332e-08 6.02487e-08)
(1.07355e-08 -7.22309e-08 6.21559e-08)
(0 0 0)
(2.80107e-09 -6.26074e-09 3.21535e-09)
(5.32507e-09 -1.20157e-08 6.23846e-09)
(7.65058e-09 -1.75277e-08 9.26272e-09)
(9.84373e-09 -2.30067e-08 1.24521e-08)
(1.19606e-08 -2.86169e-08 1.59492e-08)
(1.40477e-08 -3.44795e-08 1.98781e-08)
(1.61414e-08 -4.0674e-08 2.4342e-08)
(1.82639e-08 -4.72373e-08 2.94133e-08)
(2.04137e-08 -5.41597e-08 3.51152e-08)
(2.25492e-08 -6.13759e-08 4.13878e-08)
(2.45579e-08 -6.87452e-08 4.80381e-08)
(2.62104e-08 -7.60062e-08 5.46821e-08)
(2.71123e-08 -8.26708e-08 6.07147e-08)
(2.6739e-08 -8.78353e-08 6.54071e-08)
(2.4922e-08 -9.02122e-08 6.82821e-08)
(2.08803e-08 -8.71701e-08 7.04853e-08)
(0 0 0)
(3.11611e-09 -6.74978e-09 3.55631e-09)
(5.92026e-09 -1.29648e-08 6.89442e-09)
(8.49677e-09 -1.89375e-08 1.02227e-08)
(1.09168e-08 -2.49041e-08 1.37171e-08)
(1.32415e-08 -3.10534e-08 1.75293e-08)
(1.55237e-08 -3.75324e-08 2.17907e-08)
(1.78082e-08 -4.44486e-08 2.66095e-08)
(2.01314e-08 -5.18718e-08 3.20618e-08)
(2.25171e-08 -5.98329e-08 3.81717e-08)
(2.49705e-08 -6.83189e-08 4.48774e-08)
(2.74679e-08 -7.72617e-08 5.19754e-08)
(2.99471e-08 -8.65111e-08 5.90479e-08)
(3.23193e-08 -9.57742e-08 6.53933e-08)
(3.45312e-08 -1.04475e-07 7.00584e-08)
(3.65708e-08 -1.11398e-07 7.22972e-08)
(3.92061e-08 -1.15212e-07 7.33033e-08)
(0 0 0)
(3.37267e-09 -6.99818e-09 3.82522e-09)
(6.40325e-09 -1.34544e-08 7.40917e-09)
(9.17836e-09 -1.96809e-08 1.09688e-08)
(1.17711e-08 -2.59318e-08 1.46859e-08)
(1.42447e-08 -3.24138e-08 1.87157e-08)
(1.66546e-08 -3.92927e-08 2.3191e-08)
(1.90502e-08 -4.66972e-08 2.82186e-08)
(2.14757e-08 -5.47206e-08 3.38711e-08)
(2.39704e-08 -6.34199e-08 4.01672e-08)
(2.65675e-08 -7.28117e-08 4.70373e-08)
(2.92918e-08 -8.28631e-08 5.42678e-08)
(3.21587e-08 -9.34742e-08 6.14239e-08)
(3.51803e-08 -1.04446e-07 6.77643e-08)
(3.83648e-08 -1.15415e-07 7.22493e-08)
(4.13937e-08 -1.25082e-07 7.39769e-08)
(4.80042e-08 -1.37598e-07 7.20349e-08)
(0 0 0)
(0 0 0)
(0 0 0)
(0 0 0)
(0 0 0)
(0 0 0)
(0 0 0)
(0 0 0)
(0 0 0)
(0 0 0)
(0 0 0)
(0 0 0)
(0 0 0)
(0 0 0)
(0 0 0)
(0 0 0)
(7.12324e-10 8.32901e-10 1.68016e-09)
(0 0 0)
(5.29357e-10 -1.27424e-09 4.83652e-10)
(1.00662e-09 -2.43891e-09 9.39776e-10)
(1.4468e-09 -3.54174e-09 1.39885e-09)
(1.86169e-09 -4.61864e-09 1.88673e-09)
(2.2596e-09 -5.69337e-09 2.42533e-09)
(2.64503e-09 -6.77702e-09 3.03272e-09)
(3.01791e-09 -7.86676e-09 3.72199e-09)
(3.37201e-09 -8.94401e-09 4.49851e-09)
(3.69313e-09 -9.97209e-09 5.35495e-09)
(3.95825e-09 -1.08945e-08 6.26361e-09)
(4.13822e-09 -1.16349e-08 7.16664e-09)
(4.20839e-09 -1.20973e-08 7.96833e-09)
(4.1728e-09 -1.21564e-08 8.54031e-09)
(4.09596e-09 -1.16201e-08 8.76751e-09)
(4.07697e-09 -1.031e-08 8.65893e-09)
(3.94004e-09 -6.9846e-09 7.82408e-09)
(0 0 0)
(1.04717e-09 -2.51003e-09 9.54888e-10)
(1.99127e-09 -4.80563e-09 1.8552e-09)
(2.86174e-09 -6.9817e-09 2.76082e-09)
(3.68178e-09 -9.11008e-09 3.72238e-09)
(4.46808e-09 -1.12396e-08 4.78301e-09)
(5.23001e-09 -1.33951e-08 5.97834e-09)
(5.96779e-09 -1.55749e-08 7.33448e-09)
(6.669e-09 -1.77481e-08 8.86274e-09)
(7.30366e-09 -1.985e-08 1.05504e-08)
(7.8195e-09 -2.17817e-08 1.23466e-08)
(8.14073e-09 -2.34159e-08 1.41449e-08)
(8.1794e-09 -2.46196e-08 1.57703e-08)
(7.8772e-09 -2.52984e-08 1.69895e-08)
(7.30064e-09 -2.54565e-08 1.75924e-08)
(6.75701e-09 -2.52599e-08 1.76002e-08)
(6.95908e-09 -2.54119e-08 1.74709e-08)
(0 0 0)
(1.54269e-09 -3.66998e-09 1.40237e-09)
(2.9333e-09 -7.02957e-09 2.724e-09)
(4.21485e-09 -1.022e-08 4.05209e-09)
(5.42149e-09 -1.33493e-08 5.46033e-09)
(6.57845e-09 -1.64938e-08 7.01161e-09)
(7.70084e-09 -1.96961e-08 8.75834e-09)
(8.7907e-09 -2.29633e-08 1.07396e-08)
(9.83156e-09 -2.62626e-08 1.2974e-08)
(1.07796e-08 -2.95163e-08 1.54478e-08)
(1.1552e-08 -3.26008e-08 1.80964e-08)
(1.20152e-08 -3.53566e-08 2.0784e-08)
(1.19848e-08 -3.76267e-08 2.32918e-08)
(1.12725e-08 -3.93431e-08 2.53445e-08)
(9.85755e-09 -4.06531e-08 2.67233e-08)
(8.25331e-09 -4.18707e-08 2.74545e-08)
(7.2615e-09 -4.3531e-08 2.79634e-08)
(0 0 0)
(2.00561e-09 -4.71622e-09 1.81566e-09)
(3.81284e-09 -9.03858e-09 3.52555e-09)
(5.47707e-09 -1.3153e-08 5.24122e-09)
(7.04277e-09 -1.72038e-08 7.05682e-09)
(8.54384e-09 -2.12962e-08 9.05293e-09)
(1.00023e-08 -2.54958e-08 1.12971e-08)
(1.1425e-08 -2.9826e-08 1.38407e-08)
(1.27967e-08 -3.42642e-08 1.67106e-08)
(1.40687e-08 -3.87353e-08 1.98956e-08)
(1.51408e-08 -4.31063e-08 2.33253e-08)
(1.58372e-08 -4.71868e-08 2.68486e-08)
(1.5886e-08 -5.07479e-08 3.02235e-08)
(1.49436e-08 -5.35781e-08 3.31546e-08)
(1.27882e-08 -5.55963e-08 3.54118e-08)
(9.94829e-09 -5.69416e-08 3.69443e-08)
(7.48775e-09 -5.83683e-08 3.8089e-08)
(0 0 0)
(2.42684e-09 -5.61176e-09 2.18596e-09)
(4.61228e-09 -1.07618e-08 4.24241e-09)
(6.62245e-09 -1.56777e-08 6.30153e-09)
(8.51111e-09 -2.05385e-08 8.47469e-09)
(1.03207e-08 -2.54793e-08 1.08573e-08)
(1.20812e-08 -3.05915e-08 1.35295e-08)
(1.38077e-08 -3.59219e-08 1.65532e-08)
(1.5494e-08 -4.14688e-08 1.99629e-08)
(1.71014e-08 -4.7175e-08 2.37509e-08)
(1.85401e-08 -5.29165e-08 2.78445e-08)
(1.96415e-08 -5.84865e-08 3.20806e-08)
(2.01251e-08 -6.357e-08 3.61948e-08)
(1.9588e-08 -6.77087e-08 3.98609e-08)
(1.7631e-08 -7.02962e-08 4.28126e-08)