/*--------------------------------*- C++ -*----------------------------------*\
| =========                 |                                                 |
| \\      /  F ield         | OpenFOAM: The Open Source CFD Toolbox           |
|  \\    /   O peration     | Version:  v1912                                 |
|   \\  /    A nd           | Website:  www.openfoam.com                      |
|    \\/     M anipulation  |                                                 |
\*---------------------------------------------------------------------------*/
FoamFile
{
    version     2.0;
    format      ascii;
    class       volVectorField;
    location    "0.65/solid";
    object      D_0;
}
// * * * * * * * * * * * * * * * * * * * * * * * * * * * * * * * * * * * * * //

dimensions      [0 1 0 0 0 0 0];


internalField   nonuniform List<vector> 
256
(
(2.514e-08 3.67828e-08 2.72092e-08)
(3.0011e-09 2.13716e-08 2.46541e-08)
(-2.69479e-09 2.10814e-08 2.46282e-08)
(-2.41676e-08 3.5536e-08 2.72042e-08)
(4.06431e-08 2.8624e-08 5.13503e-08)
(8.02779e-09 1.94678e-08 4.79961e-08)
(-6.41269e-09 1.896e-08 4.80735e-08)
(-3.81456e-08 2.69018e-08 5.16664e-08)
(4.27553e-08 1.52241e-08 6.407e-08)
(9.41163e-09 1.16181e-08 6.05002e-08)
(-6.20204e-09 1.09555e-08 6.06836e-08)
(-3.8677e-08 1.31335e-08 6.46899e-08)
(4.23781e-08 3.64632e-09 7.38134e-08)
(9.56287e-09 1.65869e-09 6.99199e-08)
(-4.58821e-09 8.66121e-10 7.01801e-08)
(-3.65409e-08 1.20037e-09 7.46565e-08)
(4.32637e-08 -7.16251e-09 8.34792e-08)
(1.01806e-08 -9.81971e-09 7.92077e-08)
(-3.28044e-09 -1.07346e-08 7.95223e-08)
(-3.54921e-08 -9.95e-09 8.44835e-08)
(4.72961e-08 -1.89908e-08 9.4571e-08)
(1.21307e-08 -2.29513e-08 8.99474e-08)
(-3.15001e-09 -2.39894e-08 9.03024e-08)
(-3.74412e-08 -2.2115e-08 9.56964e-08)
(5.65278e-08 -3.74197e-08 1.08218e-07)
(1.59477e-08 -4.06585e-08 1.03603e-07)
(-4.76323e-09 -4.1808e-08 1.03988e-07)
(-4.44858e-08 -4.08546e-08 1.09433e-07)
(6.99864e-08 -8.61317e-08 1.22544e-07)
(2.01495e-08 -8.29812e-08 1.18756e-07)
(-6.75754e-09 -8.40311e-08 1.19152e-07)
(-5.57213e-08 -8.93618e-08 1.23799e-07)
(1.76356e-08 1.69681e-08 4.81049e-09)
(1.49175e-09 4.32534e-09 6.00345e-09)
(-1.27225e-09 4.11e-09 6.10051e-09)
(-1.67467e-08 1.59451e-08 5.09218e-09)
(2.87659e-08 1.21111e-08 1.96879e-08)
(5.07557e-09 4.43778e-09 2.2006e-08)
(-3.72012e-09 3.94563e-09 2.22208e-08)
(-2.65546e-08 1.0466e-08 2.0311e-08)
(2.99845e-08 3.45191e-09 3.18503e-08)
(6.08313e-09 3.13983e-10 3.45569e-08)
(-3.2938e-09 -3.59053e-10 3.48631e-08)
(-2.63681e-08 1.3676e-09 3.27389e-08)
(2.93459e-08 -5.72219e-09 4.14458e-08)
(6.15768e-09 -7.55982e-09 4.42121e-08)
(-1.73753e-09 -8.3663e-09 4.45889e-08)
(-2.4106e-08 -8.17807e-09 4.25415e-08)
(2.99943e-08 -1.53659e-08 5.03012e-08)
(6.71416e-09 -1.79593e-08 5.3008e-08)
(-4.75317e-10 -1.88858e-08 5.3438e-08)
(-2.29199e-08 -1.81645e-08 5.1553e-08)
(3.38332e-08 -2.5888e-08 5.95159e-08)
(8.60364e-09 -2.98567e-08 6.21367e-08)
(-3.67546e-10 -3.09034e-08 6.2606e-08)
(-2.47474e-08 -2.90214e-08 6.08831e-08)
(4.31511e-08 -4.06039e-08 6.86374e-08)
(1.24098e-08 -4.38051e-08 7.12339e-08)
(-2.03099e-09 -4.49598e-08 7.17284e-08)
(-3.19281e-08 -4.40437e-08 7.008e-08)
(5.72257e-08 -8.01123e-08 7.38188e-08)
(1.66345e-08 -7.61598e-08 7.6465e-08)
(-4.08261e-09 -7.72096e-08 7.69659e-08)
(-4.38135e-08 -8.33334e-08 7.52838e-08)
(1.2619e-08 1.09394e-08 2.29425e-09)
(1.8537e-10 2.9849e-10 3.87225e-09)
(-5.74258e-11 1.1167e-10 3.94607e-09)
(-1.184e-08 1.00309e-08 2.50489e-09)
(2.05853e-08 3.67578e-09 1.21553e-08)
(2.41543e-09 -2.71538e-09 1.51308e-08)
(-1.32282e-09 -3.17305e-09 1.53027e-08)
(-1.8654e-08 2.16082e-09 1.26478e-08)
(2.12422e-08 -4.6007e-09 2.26764e-08)
(3.06628e-09 -7.29617e-09 2.61037e-08)
(-6.85724e-10 -7.94222e-09 2.63472e-08)
(-1.80505e-08 -6.58082e-09 2.33789e-08)
(2.05504e-08 -1.25043e-08 3.19795e-08)
(3.08413e-09 -1.4248e-08 3.55145e-08)
(8.06203e-10 -1.50346e-08 3.58149e-08)
(-1.58546e-08 -1.48813e-08 3.28509e-08)
(2.11512e-08 -2.04835e-08 4.02849e-08)
(3.60038e-09 -2.30837e-08 4.38245e-08)
(2.01068e-09 -2.39946e-08 4.41702e-08)
(-1.47144e-08 -2.3221e-08 4.12908e-08)
(2.49912e-08 -2.86335e-08 4.78376e-08)
(5.45083e-09 -3.26396e-08 5.13509e-08)
(2.08074e-09 -3.36729e-08 5.1731e-08)
(-1.66117e-08 -3.17177e-08 4.89455e-08)
(3.4436e-08 -3.98259e-08 5.36829e-08)
(9.24903e-09 -4.30655e-08 5.71626e-08)
(3.67096e-10 -4.42072e-08 5.7564e-08)
(-2.39676e-08 -4.32218e-08 5.48557e-08)
(4.86215e-08 -7.47393e-08 5.53485e-08)
(1.34753e-08 -7.0808e-08 5.88224e-08)
(-1.73016e-09 -7.18428e-08 5.92269e-08)
(-3.59989e-08 -7.7911e-08 5.65356e-08)
(1.03724e-08 9.09354e-09 2.21986e-09)
(-3.56156e-10 -4.08326e-10 3.2183e-09)
(4.2579e-10 -5.82574e-10 3.26934e-09)
(-9.68415e-09 8.25152e-09 2.36775e-09)
(1.68281e-08 2.81862e-10 9.52176e-09)
(1.19971e-09 -5.35358e-09 1.14259e-08)
(-2.9918e-10 -5.78155e-09 1.15514e-08)
(-1.51241e-08 -1.124e-09 9.88419e-09)
(1.73024e-08 -8.74575e-09 1.79022e-08)
(1.67256e-09 -1.11733e-08 2.00958e-08)
(3.92583e-10 -1.17856e-08 2.02764e-08)
(-1.44549e-08 -1.06123e-08 1.84269e-08)
(1.67325e-08 -1.63508e-08 2.59168e-08)
(1.69347e-09 -1.80531e-08 2.81627e-08)
(1.77681e-09 -1.88089e-08 2.83875e-08)
(-1.24818e-08 -1.86265e-08 2.6574e-08)
(1.74479e-08 -2.31664e-08 3.30281e-08)
(2.22394e-09 -2.57903e-08 3.52593e-08)
(2.88131e-09 -2.66747e-08 3.55204e-08)
(-1.15387e-08 -2.58188e-08 3.37948e-08)
(2.13773e-08 -2.95753e-08 3.88968e-08)
(4.0703e-09 -3.36181e-08 4.1101e-08)
(2.8871e-09 -3.46285e-08 4.13904e-08)
(-1.35893e-08 -3.25884e-08 3.9749e-08)
(3.08432e-08 -3.89011e-08 4.27588e-08)
(7.83574e-09 -4.22422e-08 4.49459e-08)
(1.15183e-09 -4.33636e-08 4.52528e-08)
(-2.10131e-08 -4.2236e-08 4.36659e-08)
(4.48838e-08 -7.18991e-08 4.35742e-08)
(1.20193e-08 -6.83293e-08 4.58117e-08)
(-9.48261e-10 -6.93459e-08 4.61201e-08)
(-3.29357e-08 -7.50145e-08 4.44918e-08)
(9.5106e-09 8.33707e-09 2.04544e-09)
(-4.84735e-10 -5.90708e-10 2.54497e-09)
(5.19475e-10 -7.56222e-10 2.58031e-09)
(-8.88459e-09 7.54219e-09 2.14824e-09)
(1.54248e-08 -9.83101e-10 7.57321e-09)
(8.488e-10 -6.25002e-09 8.52552e-09)
(-7.64438e-11 -6.65505e-09 8.61462e-09)
(-1.38828e-08 -2.30584e-09 7.8309e-09)
(1.59178e-08 -1.04709e-08 1.38587e-08)
(1.27318e-09 -1.27808e-08 1.49467e-08)
(5.69115e-10 -1.33641e-08 1.50766e-08)
(-1.33222e-08 -1.22427e-08 1.42366e-08)
(1.55087e-08 -1.80845e-08 2.00667e-08)
(1.323e-09 -1.97858e-08 2.11614e-08)
(1.83978e-09 -2.05126e-08 2.13244e-08)
(-1.15908e-08 -2.02686e-08 2.05446e-08)
(1.63656e-08 -2.43563e-08 2.55805e-08)
(1.88243e-09 -2.70046e-08 2.66486e-08)
(2.84382e-09 -2.78627e-08 2.68393e-08)
(-1.08582e-08 -2.69272e-08 2.61429e-08)
(2.03681e-08 -2.99385e-08 2.99208e-08)
(3.72869e-09 -3.40026e-08 3.09679e-08)
(2.79116e-09 -3.49899e-08 3.11805e-08)
(-1.30374e-08 -3.28819e-08 3.05506e-08)
(2.97804e-08 -3.85484e-08 3.26022e-08)
(7.44796e-09 -4.19669e-08 3.3653e-08)
(1.05407e-09 -4.30684e-08 3.38793e-08)
(-2.04506e-08 -4.18242e-08 3.32761e-08)
(4.36358e-08 -7.06508e-08 3.32755e-08)
(1.15794e-08 -6.73931e-08 3.43895e-08)
(-1.03466e-09 -6.83929e-08 3.46166e-08)
(-3.22226e-08 -7.37154e-08 3.39578e-08)
(9.17559e-09 7.96352e-09 1.61391e-09)
(-4.87468e-10 -6.82164e-10 1.84142e-09)
(5.01386e-10 -8.41246e-10 1.86486e-09)
(-8.58887e-09 7.2014e-09 1.6817e-09)
(1.49372e-08 -1.43975e-09 5.54981e-09)
(7.98221e-10 -6.5439e-09 5.97578e-09)
(-1.078e-10 -6.93226e-09 6.03544e-09)
(-1.3501e-08 -2.703e-09 5.7215e-09)
(1.55068e-08 -1.10482e-08 9.90505e-09)
(1.22522e-09 -1.33206e-08 1.03814e-08)
(4.68455e-10 -1.38822e-08 1.0469e-08)
(-1.30806e-08 -1.27497e-08 1.01592e-08)
(1.52264e-08 -1.86871e-08 1.42292e-08)
(1.3024e-09 -2.04034e-08 1.46949e-08)
(1.64881e-09 -2.11076e-08 1.48056e-08)
(-1.15382e-08 -2.08004e-08 1.45531e-08)
(1.61867e-08 -2.47898e-08 1.80729e-08)
(1.88215e-09 -2.74558e-08 1.8516e-08)
(2.57734e-09 -2.82926e-08 1.86462e-08)
(-1.09622e-08 -2.72954e-08 1.84568e-08)
(2.02258e-08 -3.01213e-08 2.10548e-08)
(3.72268e-09 -3.41905e-08 2.14875e-08)
(2.48395e-09 -3.51589e-08 2.16334e-08)
(-1.32224e-08 -3.30078e-08 2.14874e-08)
(2.95697e-08 -3.85441e-08 2.289e-08)
(7.39993e-09 -4.19951e-08 2.33362e-08)
(7.50132e-10 -4.30804e-08 2.34919e-08)
(-2.06028e-08 -4.17717e-08 2.3355e-08)
(4.32747e-08 -7.01772e-08 2.34691e-08)
(1.14877e-08 -6.70958e-08 2.39645e-08)
(-1.32765e-09 -6.8082e-08 2.41207e-08)
(-3.22536e-08 -7.32011e-08 2.39403e-08)
(9.02773e-09 7.77934e-09 1.02117e-09)
(-4.73524e-10 -7.27395e-10 1.11819e-09)
(4.75732e-10 -8.82283e-10 1.13162e-09)
(-8.46378e-09 7.03762e-09 1.05976e-09)
(1.47485e-08 -1.59108e-09 3.38642e-09)
(8.06511e-10 -6.62587e-09 3.56317e-09)
(-1.6437e-10 -7.00338e-09 3.5975e-09)
(-1.33748e-08 -2.81621e-09 3.48464e-09)
(1.53808e-08 -1.11827e-08 5.94588e-09)
(1.244e-09 -1.34476e-08 6.1379e-09)
(3.59485e-10 -1.39951e-08 6.18854e-09)
(-1.30576e-08 -1.28383e-08 6.09211e-09)
(1.51804e-08 -1.88229e-08 8.47656e-09)
(1.33808e-09 -2.05535e-08 8.65818e-09)
(1.48168e-09 -2.12426e-08 8.72241e-09)
(-1.16346e-08 -2.08889e-08 8.66402e-09)
(1.61994e-08 -2.49065e-08 1.07258e-08)
(1.92725e-09 -2.75822e-08 1.08943e-08)
(2.36343e-09 -2.84046e-08 1.09702e-08)
(-1.11534e-08 -2.73677e-08 1.09491e-08)
(2.02515e-08 -3.02205e-08 1.24697e-08)
(3.76001e-09 -3.42863e-08 1.2635e-08)
(2.24561e-09 -3.52418e-08 1.27203e-08)
(-1.34574e-08 -3.30677e-08 1.27224e-08)
(2.95431e-08 -3.8638e-08 1.35586e-08)
(7.40795e-09 -4.20939e-08 1.37362e-08)
(5.1393e-10 -4.3168e-08 1.38274e-08)
(-2.08108e-08 -4.1832e-08 1.38311e-08)
(4.31484e-08 -7.00295e-08 1.39548e-08)
(1.14655e-08 -6.70253e-08 1.41613e-08)
(-1.55661e-09 -6.8002e-08 1.42528e-08)
(-3.2383e-08 -7.30251e-08 1.42312e-08)
(8.96528e-09 7.70388e-09 3.48353e-10)
(-4.66228e-10 -7.43915e-10 3.75526e-10)
(4.63186e-10 -8.96751e-10 3.79906e-10)
(-8.41176e-09 6.9719e-09 3.6088e-10)
(1.46722e-08 -1.6316e-09 1.13772e-09)
(8.13218e-10 -6.64e-09 1.1863e-09)
(-1.93382e-10 -7.01219e-09 1.19751e-09)
(-1.33276e-08 -2.83818e-09 1.16967e-09)
(1.53353e-08 -1.11924e-08 1.98199e-09)
(1.25636e-09 -1.34571e-08 2.03372e-09)
(3.04708e-10 -1.39975e-08 2.05028e-09)
(-1.30605e-08 -1.28254e-08 2.02969e-09)
(1.51714e-08 -1.88273e-08 2.81353e-09)
(1.3577e-09 -2.05656e-08 2.86139e-09)
(1.39933e-09 -2.12471e-08 2.88245e-09)
(-1.16935e-08 -2.08698e-08 2.87486e-09)
(1.62154e-08 -2.49231e-08 3.55234e-09)
(1.9499e-09 -2.76026e-08 3.5961e-09)
(2.25923e-09 -2.84177e-08 3.62102e-09)
(-1.12555e-08 -2.7362e-08 3.6256e-09)
(2.02707e-08 -3.02641e-08 4.12634e-09)
(3.7776e-09 -3.4326e-08 4.16963e-09)
(2.13002e-09 -3.52749e-08 4.19769e-09)
(-1.35785e-08 -3.30913e-08 4.20944e-09)
(2.95354e-08 -3.87057e-08 4.48873e-09)
(7.41092e-09 -4.2159e-08 4.53678e-09)
(3.98979e-10 -4.32273e-08 4.56682e-09)
(-2.09181e-08 -4.18827e-08 4.57849e-09)
(4.3092e-08 -6.9996e-08 4.62924e-09)
(1.14533e-08 -6.70177e-08 4.68663e-09)
(-1.6681e-09 -6.79896e-08 4.71676e-09)
(-3.24523e-08 -7.29771e-08 4.72033e-09)
)
;

boundaryField
{
    interface
    {
        type            solidTraction;
        traction        uniform (0 0 0);
        pressure        uniform 0;
        secondOrder     false;
        setEffectiveTraction false;
        relaxationFactor 1;
        value           nonuniform List<vector> 
192
(
(8.31778e-08 5.32286e-08 2.51326e-08)
(9.49929e-08 3.30278e-08 4.79485e-08)
(9.82198e-08 1.56579e-08 6.04061e-08)
(9.95432e-08 3.7735e-09 7.01162e-08)
(1.02534e-07 -5.93286e-09 7.97659e-08)
(1.09389e-07 -1.56746e-08 9.0852e-08)
(1.22279e-07 -3.17469e-08 1.04527e-07)
(1.42437e-07 -8.21687e-08 1.1892e-07)
(6.60514e-08 2.85684e-08 1.68001e-09)
(7.46503e-08 1.51983e-08 1.46731e-08)
(7.65137e-08 3.59692e-09 2.64717e-08)
(7.71866e-08 -5.71967e-09 3.59884e-08)
(7.97515e-08 -1.42439e-08 4.47726e-08)
(8.64706e-08 -2.25985e-08 5.39393e-08)
(1.00021e-07 -3.47554e-08 6.31141e-08)
(1.23011e-07 -7.60775e-08 6.84772e-08)
(5.50612e-08 1.92404e-08 4.78289e-10)
(6.18667e-08 5.83156e-09 9.17059e-09)
(6.32414e-08 -4.60941e-09 1.95056e-08)
(6.37822e-08 -1.2527e-08 2.88259e-08)
(6.62777e-08 -1.93731e-08 3.7148e-08)
(7.3106e-08 -2.5312e-08 4.47234e-08)
(8.71175e-08 -3.39179e-08 5.06056e-08)
(1.10804e-07 -7.0664e-08 5.22628e-08)
(4.92157e-08 1.58937e-08 1.44265e-09)
(5.49658e-08 2.01434e-09 8.23143e-09)
(5.62533e-08 -8.76962e-09 1.65709e-08)
(5.69298e-08 -1.63143e-08 2.46561e-08)
(5.95588e-08 -2.20051e-08 3.18315e-08)
(6.65369e-08 -2.62262e-08 3.77409e-08)
(8.07044e-08 -3.30241e-08 4.15947e-08)
(1.04355e-07 -6.78119e-08 4.23276e-08)
(4.62385e-08 1.45709e-08 1.74614e-09)
(5.15727e-08 6.18697e-10 7.10035e-09)
(5.29321e-08 -1.04499e-08 1.34096e-08)
(5.38026e-08 -1.79724e-08 1.969e-08)
(5.6603e-08 -2.31413e-08 2.5265e-08)
(6.36882e-08 -2.65845e-08 2.96328e-08)
(7.78408e-08 -3.2731e-08 3.22837e-08)
(1.01252e-07 -6.65731e-08 3.28731e-08)
(4.46656e-08 1.39917e-08 1.49315e-09)
(4.9888e-08 1.43034e-10 5.38063e-09)
(5.13514e-08 -1.09759e-08 9.7707e-09)
(5.23786e-08 -1.8517e-08 1.4147e-08)
(5.53075e-08 -2.35397e-08 1.80312e-08)
(6.24459e-08 -2.67752e-08 2.10256e-08)
(7.65299e-08 -3.27814e-08 2.28306e-08)
(9.97118e-08 -6.61203e-08 2.33472e-08)
(4.38251e-08 1.37234e-08 9.68568e-10)
(4.90235e-08 -2.80856e-12 3.32011e-09)
(5.05639e-08 -1.10747e-08 5.90297e-09)
(5.1689e-08 -1.86181e-08 8.46274e-09)
(5.46923e-08 -2.36385e-08 1.07329e-08)
(6.18503e-08 -2.68842e-08 1.24809e-08)
(7.58717e-08 -3.29132e-08 1.355e-08)
(9.88941e-08 -6.59929e-08 1.39091e-08)
(4.34503e-08 1.36132e-08 3.32732e-10)
(4.8642e-08 -3.90765e-11 1.11864e-09)
(5.02192e-08 -1.10676e-08 1.9706e-09)
(5.13891e-08 -1.86071e-08 2.81125e-09)
(5.44248e-08 -2.3648e-08 3.55634e-09)
(6.15879e-08 -2.69337e-08 4.13113e-09)
(7.5575e-08 -3.29999e-08 4.4868e-09)
(9.85179e-08 -6.59714e-08 4.61511e-09)
(2.55402e-08 5.64229e-08 8.70852e-08)
(4.15065e-08 3.78394e-08 1.07281e-07)
(4.36961e-08 2.084e-08 1.21129e-07)
(4.32546e-08 8.4987e-09 1.32681e-07)
(4.40538e-08 -1.973e-09 1.44532e-07)
(4.80011e-08 -1.28059e-08 1.58434e-07)
(5.72213e-08 -3.04265e-08 1.75676e-07)
(7.0853e-08 -8.23597e-08 1.96683e-07)
(2.35624e-09 3.95342e-08 7.83863e-08)
(7.20935e-09 2.84294e-08 9.80728e-08)
(8.56588e-09 1.70992e-08 1.10919e-07)
(8.65545e-09 6.33561e-09 1.21641e-07)
(9.19229e-09 -4.81279e-09 1.32838e-07)
(1.10644e-08 -1.68523e-08 1.46302e-07)
(1.4891e-08 -3.34564e-08 1.63947e-07)
(1.93028e-08 -7.90673e-08 1.88051e-07)
(-2.05686e-09 3.92569e-08 7.75959e-08)
(-5.49436e-09 2.79739e-08 9.73998e-08)
(-5.15371e-09 1.64822e-08 1.10324e-07)
(-3.40312e-09 5.57584e-09 1.21102e-07)
(-1.96053e-09 -5.70408e-09 1.32339e-07)
(-1.71182e-09 -1.78731e-08 1.45829e-07)
(-3.30481e-09 -3.45955e-08 1.63492e-07)
(-5.49563e-09 -8.01131e-08 1.87632e-07)
(-2.45451e-08 5.52537e-08 8.49195e-08)
(-3.88784e-08 3.62733e-08 1.05515e-07)
(-3.93914e-08 1.88811e-08 1.19587e-07)
(-3.71196e-08 6.14878e-09 1.31302e-07)
(-3.5932e-08 -4.69006e-09 1.43273e-07)
(-3.77571e-08 -1.58777e-08 1.57259e-07)
(-4.47619e-08 -3.38291e-08 1.74562e-07)
(-5.61551e-08 -8.55781e-08 1.95701e-07)
(-7.86152e-08 5.11145e-08 2.51604e-08)
(-8.88464e-08 3.05293e-08 4.84025e-08)
(-9.0417e-08 1.27324e-08 6.12558e-08)
(-8.99044e-08 4.04142e-10 7.12588e-08)
(-9.08934e-08 -9.72498e-09 8.11208e-08)
(-9.56132e-08 -1.98667e-08 9.23654e-08)
(-1.063e-07 -3.62847e-08 1.06156e-07)
(-1.24221e-07 -8.65067e-08 1.20605e-07)
(-6.15667e-08 2.67705e-08 2.01024e-09)
(-6.88619e-08 1.28714e-08 1.54381e-08)
(-6.92547e-08 7.55469e-10 2.75822e-08)
(-6.82202e-08 -9.04015e-09 3.73698e-08)
(-6.88626e-08 -1.80042e-08 4.63585e-08)
(-7.34856e-08 -2.67694e-08 5.56757e-08)
(-8.48468e-08 -3.92772e-08 6.49505e-08)
(-1.05636e-07 -8.03935e-08 7.03533e-08)
(-5.08018e-08 1.76544e-08 7.39231e-10)
(-5.64561e-08 3.71348e-09 9.79017e-09)
(-5.65012e-08 -7.28065e-09 2.04006e-08)
(-5.54495e-08 -1.57154e-08 2.99448e-08)
(-5.61039e-08 -2.30318e-08 3.84455e-08)
(-6.0881e-08 -2.94044e-08 4.6156e-08)
(-7.27153e-08 -3.8375e-08 5.2127e-08)
(-9.42017e-08 -7.49131e-08 5.38163e-08)
(-4.5153e-08 1.44536e-08 1.62887e-09)
(-4.98824e-08 6.86992e-11 8.6914e-09)
(-4.99537e-08 -1.12729e-08 1.72448e-08)
(-4.91346e-08 -1.93556e-08 2.5508e-08)
(-4.99968e-08 -2.55419e-08 3.28308e-08)
(-5.49716e-08 -3.02198e-08 3.88555e-08)
(-6.69827e-08 -3.73993e-08 4.27867e-08)
(-8.84359e-08 -7.19862e-08 4.35478e-08)
(-4.23128e-08 1.32341e-08 1.87442e-09)
(-4.67239e-08 -1.19645e-09 7.42514e-09)
(-4.69546e-08 -1.28157e-08 1.38931e-08)
(-4.64066e-08 -2.08846e-08 2.03088e-08)
(-4.75032e-08 -2.65655e-08 2.59988e-08)
(-5.26306e-08 -3.04838e-08 3.04589e-08)
(-6.46534e-08 -3.70278e-08 3.31736e-08)
(-8.5879e-08 -7.06797e-08 3.37873e-08)
(-4.0826e-08 1.27239e-08 1.57649e-09)
(-4.51908e-08 -1.58006e-09 5.59451e-09)
(-4.55876e-08 -1.32404e-08 1.00931e-08)
(-4.52536e-08 -2.133e-08 1.45641e-08)
(-4.65272e-08 -2.68743e-08 1.85307e-08)
(-5.17458e-08 -3.05976e-08 2.15925e-08)
(-6.37255e-08 -3.70138e-08 2.34451e-08)
(-8.47367e-08 -7.01719e-08 2.39805e-08)
(-4.00354e-08 1.24973e-08 1.01549e-09)
(-4.44156e-08 -1.66776e-09 3.44132e-09)
(-4.49285e-08 -1.32734e-08 6.08709e-09)
(-4.47302e-08 -2.1365e-08 8.70286e-09)
(-4.61114e-08 -2.6912e-08 1.10224e-08)
(-5.13765e-08 -3.06533e-08 1.28115e-08)
(-6.33131e-08 -3.71006e-08 1.391e-08)
(-8.41774e-08 -7.00061e-08 1.42809e-08)
(-3.96834e-08 1.24068e-08 3.47875e-10)
(-4.40752e-08 -1.676e-09 1.15788e-09)
(-4.46439e-08 -1.32339e-08 2.03042e-09)
(-4.4509e-08 -2.1321e-08 2.88958e-09)
(-4.59395e-08 -2.68907e-08 3.65113e-09)
(-5.12236e-08 -3.06756e-08 4.23971e-09)
(-6.31362e-08 -3.71641e-08 4.60531e-09)
(-8.39281e-08 -6.99648e-08 4.73767e-09)
(7.11818e-08 -1.60313e-07 1.22925e-07)
(5.82564e-08 -1.4763e-07 7.09706e-08)
(4.96777e-08 -1.38709e-07 5.32952e-08)
(4.60363e-08 -1.33188e-07 4.2552e-08)
(4.48616e-08 -1.30065e-07 3.2845e-08)
(4.45341e-08 -1.28376e-07 2.33138e-08)
(4.44171e-08 -1.2751e-07 1.39095e-08)
(4.43611e-08 -1.27144e-07 4.62086e-09)
(1.96255e-08 -1.52317e-07 1.19007e-07)
(1.59098e-08 -1.3657e-07 7.34217e-08)
(1.2752e-08 -1.27285e-07 5.68647e-08)
(1.13819e-08 -1.222e-07 4.4958e-08)
(1.10159e-08 -1.19554e-07 3.40812e-08)
(1.09648e-08 -1.18165e-07 2.38725e-08)
(1.09596e-08 -1.17444e-07 1.41418e-08)
(1.09526e-08 -1.17133e-07 4.68473e-09)
(-5.16122e-09 -1.52545e-07 1.19406e-07)
(-2.28821e-09 -1.36771e-07 7.39189e-08)
(4.65411e-11 -1.27477e-07 5.7261e-08)
(7.23989e-10 -1.2238e-07 4.52577e-08)
(5.46861e-10 -1.19721e-07 3.43007e-08)
(1.99633e-10 -1.1832e-07 2.4023e-08)
(-5.56935e-11 -1.17591e-07 1.42297e-08)
(-1.77283e-10 -1.17275e-07 4.71365e-09)
(-5.58149e-08 -1.61284e-07 1.24184e-07)
(-4.37514e-08 -1.48492e-07 7.24212e-08)
(-3.59796e-08 -1.39535e-07 5.4456e-08)
(-3.30316e-08 -1.33973e-07 4.34429e-08)
(-3.24088e-08 -1.30807e-07 3.35045e-08)
(-3.24874e-08 -1.29082e-07 2.37678e-08)
(-3.26356e-08 -1.28191e-07 1.41752e-08)
(-3.27105e-08 -1.27812e-07 4.70834e-09)
)
;
        gradient        uniform (0 0 0);
    }
    symmetry
    {
        type            solidSymmetry;
        patchType       symmetry;
        secondOrder     false;
        value           nonuniform List<vector> 
32
(
(8.96528e-09 7.70388e-09 0)
(1.46722e-08 -1.6316e-09 0)
(1.53353e-08 -1.11924e-08 0)
(1.51714e-08 -1.88273e-08 0)
(1.62154e-08 -2.49231e-08 0)
(2.02707e-08 -3.02641e-08 0)
(2.95354e-08 -3.87057e-08 0)
(4.3092e-08 -6.9996e-08 0)
(-4.66228e-10 -7.43915e-10 0)
(8.13218e-10 -6.64e-09 0)
(1.25636e-09 -1.34571e-08 0)
(1.3577e-09 -2.05656e-08 0)
(1.9499e-09 -2.76026e-08 0)
(3.7776e-09 -3.4326e-08 0)
(7.41092e-09 -4.2159e-08 0)
(1.14533e-08 -6.70177e-08 0)
(4.63186e-10 -8.96751e-10 0)
(-1.93382e-10 -7.01219e-09 0)
(3.04708e-10 -1.39975e-08 0)
(1.39933e-09 -2.12471e-08 0)
(2.25923e-09 -2.84177e-08 0)
(2.13002e-09 -3.52749e-08 0)
(3.98979e-10 -4.32273e-08 0)
(-1.6681e-09 -6.79896e-08 0)
(-8.41176e-09 6.9719e-09 0)
(-1.33276e-08 -2.83818e-09 0)
(-1.30605e-08 -1.28254e-08 0)
(-1.16935e-08 -2.08698e-08 0)
(-1.12555e-08 -2.7362e-08 0)
(-1.35785e-08 -3.30913e-08 0)
(-2.09181e-08 -4.18827e-08 0)
(-3.24523e-08 -7.29771e-08 0)
)
;
    }
    bottom
    {
        type            fixedDisplacement;
        value           uniform (0 0 0);
    }
}


// ************************************************************************* //
