/*--------------------------------*- C++ -*----------------------------------*\
| =========                 |                                                 |
| \\      /  F ield         | OpenFOAM: The Open Source CFD Toolbox           |
|  \\    /   O peration     | Version:  v1912                                 |
|   \\  /    A nd           | Website:  www.openfoam.com                      |
|    \\/     M anipulation  |                                                 |
\*---------------------------------------------------------------------------*/
FoamFile
{
    version     2.0;
    format      ascii;
    class       volVectorField;
    location    "0.65/solid";
    object      DD;
}
// * * * * * * * * * * * * * * * * * * * * * * * * * * * * * * * * * * * * * //

dimensions      [0 1 0 0 0 0 0];


internalField   nonuniform List<vector> 
256
(
(2.55637e-10 2.60824e-10 3.03333e-10)
(5.8484e-11 1.59747e-10 2.8292e-10)
(-7.1283e-11 1.54351e-10 2.76556e-10)
(-2.50568e-10 2.41221e-10 2.83896e-10)
(4.64539e-10 2.11533e-10 6.93614e-10)
(1.19043e-10 1.25847e-10 6.62582e-10)
(-1.46264e-10 1.23319e-10 6.49904e-10)
(-4.6696e-10 2.05831e-10 6.54767e-10)
(5.05475e-10 1.63767e-11 9.66015e-10)
(1.28422e-10 -2.15852e-11 9.28502e-10)
(-1.72153e-10 -1.91455e-11 9.12269e-10)
(-5.24013e-10 2.68315e-11 9.16283e-10)
(4.93653e-10 -2.00648e-10 1.19599e-09)
(1.147e-10 -2.19746e-10 1.14891e-09)
(-1.80991e-10 -2.12343e-10 1.13014e-09)
(-5.34466e-10 -1.75818e-10 1.13851e-09)
(4.91275e-10 -4.34883e-10 1.42417e-09)
(1.02329e-10 -4.61949e-10 1.36499e-09)
(-1.97728e-10 -4.49877e-10 1.34404e-09)
(-5.60711e-10 -3.96733e-10 1.36009e-09)
(5.41642e-10 -7.18999e-10 1.67554e-09)
(1.09201e-10 -7.59376e-10 1.60513e-09)
(-2.40642e-10 -7.42693e-10 1.58208e-09)
(-6.46516e-10 -6.67658e-10 1.60516e-09)
(6.7657e-10 -1.14019e-09 1.95484e-09)
(1.43993e-10 -1.16048e-09 1.88506e-09)
(-3.1964e-10 -1.13859e-09 1.85981e-09)
(-8.23882e-10 -1.07378e-09 1.87803e-09)
(8.39836e-10 -1.75073e-09 2.18479e-09)
(1.79667e-10 -1.69859e-09 2.13627e-09)
(-4.09732e-10 -1.66837e-09 2.10896e-09)
(-1.03676e-09 -1.65908e-09 2.10235e-09)
(1.57108e-10 9.03024e-11 1.21676e-10)
(3.39482e-11 9.29983e-12 1.38526e-10)
(-3.90916e-11 7.36798e-12 1.35829e-10)
(-1.4699e-10 7.86167e-11 1.13669e-10)
(2.94205e-10 -8.20933e-12 3.84651e-10)
(7.30275e-11 -7.72011e-11 4.18284e-10)
(-8.23469e-11 -7.69944e-11 4.1089e-10)
(-2.82935e-10 -8.44157e-12 3.63078e-10)
(3.17778e-10 -1.82993e-10 6.27098e-10)
(7.80299e-11 -2.13402e-10 6.65016e-10)
(-9.66327e-11 -2.09406e-10 6.54409e-10)
(-3.16009e-10 -1.69925e-10 5.96038e-10)
(3.01817e-10 -3.80322e-10 8.45451e-10)
(6.51977e-11 -3.96495e-10 8.81386e-10)
(-1.00778e-10 -3.8822e-10 8.68461e-10)
(-3.17092e-10 -3.54393e-10 8.07341e-10)
(2.95848e-10 -5.97514e-10 1.05652e-09)
(5.38949e-11 -6.24126e-10 1.08797e-09)
(-1.13957e-10 -6.11536e-10 1.07306e-09)
(-3.35294e-10 -5.59014e-10 1.01234e-09)
(3.43809e-10 -8.47976e-10 1.27029e-09)
(6.18329e-11 -8.90461e-10 1.29698e-09)
(-1.53876e-10 -8.7354e-10 1.28017e-09)
(-4.14646e-10 -7.96901e-10 1.22035e-09)
(4.86181e-10 -1.18794e-09 1.46767e-09)
(9.96748e-11 -1.20797e-09 1.49196e-09)
(-2.32257e-10 -1.1864e-09 1.47347e-09)
(-5.95566e-10 -1.1231e-09 1.41254e-09)
(6.72395e-10 -1.67457e-09 1.57426e-09)
(1.39737e-10 -1.6009e-09 1.59855e-09)
(-3.23533e-10 -1.57222e-09 1.5793e-09)
(-8.27556e-10 -1.58723e-09 1.51655e-09)
(7.92891e-11 2.53409e-11 6.00784e-11)
(1.15303e-11 -3.35443e-11 8.54639e-11)
(-1.33113e-11 -3.50347e-11 8.36291e-11)
(-6.65471e-11 1.37205e-11 5.48701e-11)
(1.54005e-10 -1.18294e-10 2.43026e-10)
(2.87313e-11 -1.69484e-10 2.91394e-10)
(-2.83311e-11 -1.68957e-10 2.86266e-10)
(-1.34311e-10 -1.19282e-10 2.28515e-10)
(1.63177e-10 -3.01151e-10 4.46835e-10)
(2.87948e-11 -3.24656e-10 5.01792e-10)
(-3.18854e-11 -3.20731e-10 4.94079e-10)
(-1.47484e-10 -2.89747e-10 4.24771e-10)
(1.4641e-10 -4.87462e-10 6.451e-10)
(1.69406e-11 -5.02762e-10 6.99971e-10)
(-3.19555e-11 -4.94913e-10 6.90209e-10)
(-1.42905e-10 -4.6391e-10 6.16829e-10)
(1.41013e-10 -6.77648e-10 8.32402e-10)
(7.09357e-12 -7.05869e-10 8.85073e-10)
(-4.22536e-11 -6.93969e-10 8.73526e-10)
(-1.57418e-10 -6.42038e-10 7.98654e-10)
(1.90462e-10 -8.79418e-10 1.00166e-09)
(1.64152e-11 -9.24575e-10 1.05164e-09)
(-7.9819e-11 -9.08609e-10 1.03847e-09)
(-2.34441e-10 -8.31779e-10 9.62917e-10)
(3.37808e-10 -1.14452e-09 1.12529e-09)
(5.66022e-11 -1.16664e-09 1.17244e-09)
(-1.57278e-10 -1.14639e-09 1.15805e-09)
(-4.16811e-10 -1.08388e-09 1.08256e-09)
(5.31434e-10 -1.5492e-09 1.15313e-09)
(9.94135e-11 -1.47444e-09 1.19788e-09)
(-2.48283e-10 -1.44743e-09 1.18328e-09)
(-6.52855e-10 -1.46675e-09 1.10922e-09)
(4.39833e-11 9.58455e-13 4.78042e-11)
(1.50907e-12 -4.3333e-11 6.52943e-11)
(-1.73183e-12 -4.50348e-11 6.39226e-11)
(-2.96354e-11 -1.18247e-11 4.40065e-11)
(8.89897e-11 -1.61505e-10 1.87965e-10)
(8.01262e-12 -2.01198e-10 2.20867e-10)
(-2.26657e-12 -2.01274e-10 2.1716e-10)
(-6.39888e-11 -1.65036e-10 1.77649e-10)
(9.2656e-11 -3.52364e-10 3.51416e-10)
(6.33885e-12 -3.7198e-10 3.88288e-10)
(1.06679e-13 -3.6889e-10 3.82651e-10)
(-6.75946e-11 -3.44149e-10 3.35482e-10)
(7.90755e-11 -5.31847e-10 5.16751e-10)
(-3.34933e-12 -5.47628e-10 5.52887e-10)
(1.98329e-12 -5.40787e-10 5.45594e-10)
(-6.21872e-11 -5.11869e-10 4.95818e-10)
(7.83549e-11 -6.98995e-10 6.69985e-10)
(-1.0515e-11 -7.29217e-10 7.03961e-10)
(-7.24305e-12 -7.18472e-10 6.95183e-10)
(-7.76483e-11 -6.67242e-10 6.4449e-10)
(1.31745e-10 -8.64028e-10 7.96073e-10)
(8.32057e-13 -9.11579e-10 8.27808e-10)
(-4.35243e-11 -8.96904e-10 8.17727e-10)
(-1.55231e-10 -8.20498e-10 7.66503e-10)
(2.80082e-10 -1.0861e-09 8.71497e-10)
(4.18281e-11 -1.11235e-09 9.01404e-10)
(-1.1888e-10 -1.09349e-09 8.9042e-10)
(-3.35517e-10 -1.02973e-09 8.38879e-10)
(4.70945e-10 -1.45421e-09 8.71206e-10)
(8.49099e-11 -1.38948e-09 9.00998e-10)
(-2.07465e-10 -1.36382e-09 8.89962e-10)
(-5.65945e-10 -1.37584e-09 8.37876e-10)
(3.23673e-11 -7.85127e-12 4.14074e-11)
(-8.31702e-13 -4.51387e-11 5.03092e-11)
(1.42831e-12 -4.70703e-11 4.93181e-11)
(-1.7012e-11 -2.15912e-11 3.87027e-11)
(6.86491e-11 -1.7365e-10 1.49608e-10)
(3.21519e-12 -2.08226e-10 1.65774e-10)
(5.66986e-12 -2.08984e-10 1.63143e-10)
(-4.03101e-11 -1.79545e-10 1.42376e-10)
(7.2858e-11 -3.64885e-10 2.73777e-10)
(2.31363e-12 -3.83512e-10 2.91089e-10)
(1.015e-11 -3.81353e-10 2.87082e-10)
(-4.16591e-11 -3.59759e-10 2.62561e-10)
(6.38194e-11 -5.3804e-10 4.00207e-10)
(-4.8236e-12 -5.55185e-10 4.16116e-10)
(1.25641e-11 -5.49407e-10 4.10874e-10)
(-3.77652e-11 -5.21498e-10 3.85274e-10)
(6.8305e-11 -6.90194e-10 5.15248e-10)
(-9.2345e-12 -7.22359e-10 5.29081e-10)
(3.58396e-12 -7.12755e-10 5.227e-10)
(-5.54468e-11 -6.62044e-10 4.9681e-10)
(1.25134e-10 -8.35162e-10 6.04165e-10)
(3.93069e-12 -8.84572e-10 6.16264e-10)
(-3.17659e-11 -8.71078e-10 6.08891e-10)
(-1.3368e-10 -7.95285e-10 5.82602e-10)
(2.72432e-10 -1.03847e-09 6.5086e-10)
(4.49704e-11 -1.06827e-09 6.62131e-10)
(-1.04704e-10 -1.05056e-09 6.54093e-10)
(-3.10379e-10 -9.85629e-10 6.27002e-10)
(4.58643e-10 -1.39135e-09 6.44718e-10)
(8.75816e-11 -1.33616e-09 6.56976e-10)
(-1.90582e-10 -1.31156e-09 6.48922e-10)
(-5.33825e-10 -1.31617e-09 6.20356e-10)
(2.94906e-11 -1.06411e-11 3.2303e-11)
(-5.76889e-13 -4.50734e-11 3.61977e-11)
(1.62521e-12 -4.717e-11 3.55326e-11)
(-1.35192e-11 -2.50314e-11 3.05039e-11)
(6.51071e-11 -1.73643e-10 1.10145e-10)
(4.12889e-12 -2.0666e-10 1.16677e-10)
(6.6307e-12 -2.07941e-10 1.14924e-10)
(-3.47042e-11 -1.81264e-10 1.05364e-10)
(7.18787e-11 -3.608e-10 1.96931e-10)
(4.78082e-12 -3.79915e-10 2.03201e-10)
(1.14466e-11 -3.78503e-10 2.00528e-10)
(-3.67783e-11 -3.58048e-10 1.89506e-10)
(6.68391e-11 -5.28039e-10 2.8451e-10)
(-1.96753e-13 -5.46715e-10 2.89357e-10)
(1.38531e-11 -5.41798e-10 2.8584e-10)
(-3.47706e-11 -5.14204e-10 2.74554e-10)
(7.52816e-11 -6.71776e-10 3.62917e-10)
(-2.50227e-12 -7.05498e-10 3.66159e-10)
(4.96933e-12 -6.96807e-10 3.61848e-10)
(-5.42205e-11 -6.46462e-10 3.5052e-10)
(1.34314e-10 -8.07999e-10 4.21378e-10)
(1.19477e-11 -8.58621e-10 4.23486e-10)
(-2.95712e-11 -8.46044e-10 4.18481e-10)
(-1.32547e-10 -7.70936e-10 4.06782e-10)
(2.80256e-10 -1.00465e-09 4.50078e-10)
(5.28836e-11 -1.03659e-09 4.51921e-10)
(-1.00496e-10 -1.01975e-09 4.46453e-10)
(-3.05941e-10 -9.54454e-10 4.33867e-10)
(4.62694e-10 -1.35049e-09 4.44593e-10)
(9.50583e-11 -1.30136e-09 4.47423e-10)
(-1.84226e-10 -1.27753e-09 4.41947e-10)
(-5.23845e-10 -1.27766e-09 4.28027e-10)
(2.89896e-11 -1.11941e-11 2.04541e-11)
(-3.681e-16 -4.45348e-11 2.19949e-11)
(1.2872e-12 -4.67359e-11 2.16136e-11)
(-1.26662e-11 -2.59858e-11 1.9428e-11)
(6.55976e-11 -1.7039e-10 6.74942e-11)
(5.72638e-12 -2.03191e-10 6.97799e-11)
(6.09236e-12 -2.0481e-10 6.87761e-11)
(-3.39986e-11 -1.791e-10 6.47726e-11)
(7.46079e-11 -3.53013e-10 1.18715e-10)
(7.64678e-12 -3.72906e-10 1.20484e-10)
(1.07781e-11 -3.71989e-10 1.18952e-10)
(-3.72024e-11 -3.51809e-10 1.14483e-10)
(7.22677e-11 -5.15763e-10 1.69808e-10)
(4.11378e-12 -5.3562e-10 1.70599e-10)
(1.30871e-11 -5.31285e-10 1.68579e-10)
(-3.65706e-11 -5.0373e-10 1.64112e-10)
(8.31497e-11 -6.55221e-10 2.15012e-10)
(3.13188e-12 -6.89973e-10 2.14834e-10)
(4.30759e-12 -6.81897e-10 2.12348e-10)
(-5.7041e-11 -6.31806e-10 2.07886e-10)
(1.43396e-10 -7.8826e-10 2.48111e-10)
(1.8365e-11 -8.39554e-10 2.47321e-10)
(-2.96183e-11 -8.27588e-10 2.44425e-10)
(-1.3518e-10 -7.53073e-10 2.39682e-10)
(2.88346e-10 -9.82978e-10 2.63894e-10)
(5.92409e-11 -1.01597e-09 2.6306e-10)
(-9.91907e-11 -9.99703e-10 2.59889e-10)
(-3.06271e-10 -9.34532e-10 2.54504e-10)
(4.68335e-10 -1.32537e-09 2.60469e-10)
(1.01147e-10 -1.2794e-09 2.6026e-10)
(-1.815e-10 -1.25607e-09 2.57084e-10)
(-5.20541e-10 -1.25407e-09 2.50865e-10)
(2.89413e-11 -1.11497e-11 6.99053e-12)
(3.14641e-13 -4.41127e-11 7.39701e-12)
(1.07453e-12 -4.63645e-11 7.2729e-12)
(-1.24577e-11 -2.61333e-11 6.65734e-12)
(6.62091e-11 -1.67965e-10 2.27296e-11)
(6.60165e-12 -2.00834e-10 2.32717e-11)
(5.69477e-12 -2.02615e-10 2.29451e-11)
(-3.40609e-11 -1.77199e-10 2.18464e-11)
(7.63776e-11 -3.47877e-10 3.96522e-11)
(9.16937e-12 -3.68254e-10 3.99745e-11)
(1.02681e-11 -3.6758e-10 3.94759e-11)
(-3.79007e-11 -3.47428e-10 3.82779e-11)
(7.53444e-11 -5.08255e-10 5.64119e-11)
(6.33589e-12 -5.28729e-10 5.63942e-11)
(1.25239e-11 -5.24682e-10 5.57355e-11)
(-3.79403e-11 -4.9711e-10 5.4559e-11)
(8.73579e-11 -6.45931e-10 7.11489e-11)
(5.97824e-12 -6.81182e-10 7.08115e-11)
(3.81881e-12 -6.73412e-10 6.99999e-11)
(-5.88476e-11 -6.23459e-10 6.88264e-11)
(1.48137e-10 -7.78026e-10 8.18607e-11)
(2.15799e-11 -8.29609e-10 8.13328e-11)
(-2.97792e-11 -8.17947e-10 8.03855e-11)
(-1.36823e-10 -7.43773e-10 7.91067e-11)
(2.92594e-10 -9.72319e-10 8.69165e-11)
(6.24395e-11 -1.00572e-09 8.63905e-11)
(-9.8685e-11 -9.89733e-10 8.53521e-11)
(-3.06764e-10 -9.24742e-10 8.38433e-11)
(4.71395e-10 -1.31328e-09 8.5768e-11)
(1.04223e-10 -1.26859e-09 8.54492e-11)
(-1.80294e-10 -1.24552e-09 8.44088e-11)
(-5.19253e-10 -1.24272e-09 8.26226e-11)
)
;

boundaryField
{
    interface
    {
        type            calculated;
        value           nonuniform List<vector> 
192
(
(2.929e-10 4.40869e-10 2.73897e-10)
(5.00978e-10 2.73992e-10 6.42014e-10)
(5.4416e-10 2.36541e-11 9.09706e-10)
(5.36111e-10 -2.04199e-10 1.13989e-09)
(5.34307e-10 -4.22886e-10 1.3689e-09)
(5.786e-10 -6.72675e-10 1.62133e-09)
(7.07867e-10 -1.06564e-09 1.90301e-09)
(8.93622e-10 -1.705e-09 2.13707e-09)
(1.58207e-10 2.03131e-10 7.75898e-11)
(2.97497e-10 3.19575e-11 3.07019e-10)
(3.20586e-10 -1.81091e-10 5.41524e-10)
(3.0443e-10 -3.85806e-10 7.58641e-10)
(2.96044e-10 -5.87017e-10 9.68959e-10)
(3.36629e-10 -8.00393e-10 1.1825e-09)
(4.76462e-10 -1.10579e-09 1.38298e-09)
(7.04511e-10 -1.62477e-09 1.49716e-09)
(6.6804e-11 8.36644e-11 3.1798e-11)
(1.49612e-10 -9.73231e-11 1.91724e-10)
(1.59557e-10 -3.03051e-10 3.90556e-10)
(1.42815e-10 -4.93004e-10 5.89415e-10)
(1.362e-10 -6.66636e-10 7.7803e-10)
(1.81491e-10 -8.3022e-10 9.48645e-10)
(3.31497e-10 -1.05928e-09 1.07376e-09)
(5.70417e-10 -1.49712e-09 1.10277e-09)
(2.61871e-11 3.42017e-11 3.60743e-11)
(8.32144e-11 -1.49338e-10 1.66627e-10)
(8.89489e-11 -3.54844e-10 3.28837e-10)
(7.6249e-11 -5.35424e-10 4.96105e-10)
(7.57449e-11 -6.85829e-10 6.51809e-10)
(1.2761e-10 -8.13597e-10 7.79742e-10)
(2.82187e-10 -1.0013e-09 8.55154e-10)
(5.1794e-10 -1.40137e-09 8.53008e-10)
(1.15129e-11 1.74028e-11 3.77847e-11)
(6.06368e-11 -1.63528e-10 1.43638e-10)
(6.76477e-11 -3.66093e-10 2.68584e-10)
(6.02963e-11 -5.39179e-10 3.97148e-10)
(6.61216e-11 -6.74866e-10 5.1448e-10)
(1.23076e-10 -7.84131e-10 6.04808e-10)
(2.78539e-10 -9.55092e-10 6.50904e-10)
(5.08396e-10 -1.33848e-09 6.42655e-10)
(7.3019e-12 1.30083e-11 3.14588e-11)
(5.56744e-11 -1.63047e-10 1.09382e-10)
(6.56601e-11 -3.60368e-10 1.97369e-10)
(6.29244e-11 -5.27189e-10 2.86622e-10)
(7.35039e-11 -6.54908e-10 3.66629e-10)
(1.33656e-10 -7.56757e-10 4.25944e-10)
(2.88739e-10 -9.22554e-10 4.54056e-10)
(5.13559e-10 -1.29787e-09 4.47016e-10)
(6.42405e-12 1.24527e-11 2.0317e-11)
(5.56112e-11 -1.58986e-10 6.777e-11)
(6.80704e-11 -3.51346e-10 1.1984e-10)
(6.84338e-11 -5.13629e-10 1.71934e-10)
(8.19489e-11 -6.3744e-10 2.18031e-10)
(1.43871e-10 -7.36962e-10 2.51567e-10)
(2.98437e-10 -9.01744e-10 2.66979e-10)
(5.19906e-10 -1.27304e-09 2.62645e-10)
(6.33471e-12 1.26379e-11 6.97849e-12)
(5.60845e-11 -1.56107e-10 2.28826e-11)
(6.98114e-11 -3.45595e-10 4.00947e-11)
(7.16748e-11 -5.05511e-10 5.71812e-11)
(8.65558e-11 -6.27734e-10 7.2201e-11)
(1.49259e-10 -7.26718e-10 8.3046e-11)
(3.03525e-10 -8.91505e-10 8.79787e-11)
(5.23354e-10 -1.26112e-09 8.65332e-11)
(2.65249e-10 5.10061e-10 3.06676e-10)
(4.82577e-10 3.77204e-10 6.91509e-10)
(5.24248e-10 1.41971e-10 9.66054e-10)
(5.09928e-10 -8.61079e-11 1.20087e-09)
(5.04115e-10 -3.14994e-10 1.42998e-09)
(5.51141e-10 -5.8633e-10 1.67335e-09)
(6.8504e-10 -1.01287e-09 1.94161e-09)
(8.5157e-10 -1.68677e-09 2.18671e-09)
(5.17868e-11 3.96122e-10 2.63806e-10)
(1.08111e-10 2.87243e-10 6.31311e-10)
(1.14981e-10 9.99978e-11 8.91664e-10)
(9.82341e-11 -1.10622e-10 1.11008e-09)
(8.22939e-11 -3.47894e-10 1.3212e-09)
(8.58332e-11 -6.29357e-10 1.54813e-09)
(1.20232e-10 -1.02769e-09 1.81671e-09)
(1.60707e-10 -1.63114e-09 2.10469e-09)
(-7.10426e-11 3.85966e-10 2.48567e-10)
(-1.48223e-10 2.82248e-10 6.11332e-10)
(-1.75213e-10 1.00914e-10 8.68001e-10)
(-1.83596e-10 -1.04398e-10 1.08352e-09)
(-1.98957e-10 -3.36891e-10 1.29215e-09)
(-2.40637e-10 -6.13751e-10 1.51671e-09)
(-3.21402e-10 -1.00687e-09 1.78279e-09)
(-4.18215e-10 -1.60134e-09 2.0679e-09)
(-2.65392e-10 4.75887e-10 2.60281e-10)
(-4.96023e-10 3.63929e-10 6.28589e-10)
(-5.57355e-10 1.47768e-10 8.91376e-10)
(-5.67916e-10 -6.48644e-11 1.11737e-09)
(-5.92941e-10 -2.80068e-10 1.33903e-09)
(-6.77476e-10 -5.38173e-10 1.57543e-09)
(-8.55868e-10 -9.49484e-10 1.83673e-09)
(-1.07383e-09 -1.59629e-09 2.07514e-09)
(-2.29488e-10 4.20602e-10 2.50587e-10)
(-4.45099e-10 2.74193e-10 5.94225e-10)
(-5.03209e-10 4.37097e-11 8.47606e-10)
(-5.15886e-10 -1.66641e-10 1.06743e-09)
(-5.41129e-10 -3.68718e-10 1.28762e-09)
(-6.19055e-10 -6.01863e-10 1.53171e-09)
(-7.87615e-10 -9.76218e-10 1.80495e-09)
(-1.01623e-09 -1.58657e-09 2.03151e-09)
(-9.46933e-11 1.86098e-10 6.76634e-11)
(-2.33837e-10 3.38137e-11 2.79914e-10)
(-2.658e-10 -1.61385e-10 5.01903e-10)
(-2.65497e-10 -3.4957e-10 7.09448e-10)
(-2.79929e-10 -5.34623e-10 9.1151e-10)
(-3.50279e-10 -7.3183e-10 1.11733e-09)
(-5.25604e-10 -1.01987e-09 1.31077e-09)
(-7.91574e-10 -1.51239e-09 1.42057e-09)
(-2.75416e-12 6.39348e-11 2.553e-11)
(-7.98342e-11 -9.90474e-11 1.73776e-10)
(-9.32933e-11 -2.87597e-10 3.62664e-10)
(-8.7681e-11 -4.61425e-10 5.531e-10)
(-9.96763e-11 -6.19152e-10 7.34239e-10)
(-1.7082e-10 -7.66928e-10 8.98061e-10)
(-3.52641e-10 -9.79279e-10 1.01755e-09)
(-6.26162e-10 -1.39128e-09 1.04381e-09)
(3.86182e-11 1.15813e-11 3.16217e-11)
(-9.10684e-12 -1.55546e-10 1.54147e-10)
(-1.43575e-11 -3.44598e-10 3.09023e-10)
(-8.89907e-12 -5.09354e-10 4.69531e-10)
(-2.32253e-11 -6.43979e-10 6.18995e-10)
(-9.74645e-11 -7.56028e-10 7.41311e-10)
(-2.80528e-10 -9.27047e-10 8.12269e-10)
(-5.48138e-10 -1.30103e-09 8.08117e-10)
(5.38337e-11 -7.26069e-12 3.46728e-11)
(1.62899e-11 -1.73383e-10 1.35053e-10)
(1.24792e-11 -3.60394e-10 2.54855e-10)
(1.55774e-11 -5.1805e-10 3.78418e-10)
(-2.09021e-12 -6.38063e-10 4.90952e-10)
(-7.85056e-11 -7.31549e-10 5.7693e-10)
(-2.59791e-10 -8.8559e-10 6.19607e-10)
(-5.19222e-10 -1.24245e-09 6.09831e-10)
(5.83769e-11 -1.29756e-11 2.94169e-11)
(2.29932e-11 -1.75449e-10 1.03785e-10)
(1.80205e-11 -3.5803e-10 1.8839e-10)
(1.86653e-11 -5.09842e-10 2.74255e-10)
(-1.60654e-12 -6.22015e-10 3.50917e-10)
(-7.90506e-11 -7.08002e-10 4.07156e-10)
(-2.5795e-10 -8.56627e-10 4.3284e-10)
(-5.10609e-10 -1.20503e-09 4.24706e-10)
(5.94499e-11 -1.43197e-11 1.91623e-11)
(2.40723e-11 -1.72966e-10 6.46111e-11)
(1.77278e-11 -3.51164e-10 1.14763e-10)
(1.66024e-11 -4.98768e-10 1.64904e-10)
(-5.1567e-12 -6.07151e-10 2.09043e-10)
(-8.29457e-11 -6.90762e-10 2.40751e-10)
(-2.59995e-10 -8.38189e-10 2.5471e-10)
(-5.08142e-10 -1.1823e-09 2.49716e-10)
(5.96289e-11 -1.45037e-11 6.60512e-12)
(2.40696e-11 -1.70838e-10 2.18618e-11)
(1.69763e-11 -3.46457e-10 3.84523e-11)
(1.49867e-11 -4.91871e-10 5.49012e-11)
(-7.39785e-12 -5.98735e-10 6.92779e-11)
(-8.52757e-11 -6.81791e-10 7.95172e-11)
(-2.6137e-10 -8.29131e-10 8.39665e-11)
(-5.07298e-10 -1.17142e-09 8.23004e-11)
(8.49668e-10 -1.75362e-09 2.19773e-09)
(6.78874e-10 -1.66297e-09 1.52388e-09)
(5.38785e-10 -1.54985e-09 1.09804e-09)
(4.81178e-10 -1.46522e-09 8.31743e-10)
(4.7128e-10 -1.4057e-09 6.1879e-10)
(4.76718e-10 -1.36589e-09 4.28099e-10)
(4.83004e-10 -1.34134e-09 2.51164e-10)
(4.86299e-10 -1.32956e-09 8.27431e-11)
(1.59075e-10 -1.66793e-09 2.14558e-09)
(1.1415e-10 -1.53415e-09 1.54251e-09)
(7.39693e-11 -1.42018e-09 1.14502e-09)
(6.2312e-11 -1.35032e-09 8.66427e-10)
(6.76326e-11 -1.30456e-09 6.34946e-10)
(7.68143e-11 -1.27356e-09 4.33232e-10)
(8.38187e-11 -1.25364e-09 2.52069e-10)
(8.72807e-11 -1.24376e-09 8.27486e-11)
(-4.1961e-10 -1.6281e-09 2.11843e-09)
(-3.26954e-10 -1.49657e-09 1.52406e-09)
(-2.5021e-10 -1.3844e-09 1.13118e-09)
(-2.10878e-10 -1.31596e-09 8.55995e-10)
(-1.95583e-10 -1.27127e-09 6.27348e-10)
(-1.90155e-10 -1.24104e-09 4.28074e-10)
(-1.87837e-10 -1.22161e-09 2.49081e-10)
(-1.86766e-10 -1.21198e-09 8.17704e-11)
(-1.07534e-09 -1.63248e-09 2.11578e-09)
(-8.61227e-10 -1.54687e-09 1.46847e-09)
(-6.85765e-10 -1.43868e-09 1.05637e-09)
(-6.00354e-10 -1.35815e-09 8.00232e-10)
(-5.6954e-10 -1.3018e-09 5.9581e-10)
(-5.60132e-10 -1.26425e-09 4.12501e-10)
(-5.56933e-10 -1.24116e-09 2.42132e-10)
(-5.55611e-10 -1.2301e-09 7.97867e-11)
)
;
    }
    symmetry
    {
        type            symmetry;
    }
    bottom
    {
        type            calculated;
        value           uniform (0 0 0);
    }
}


// ************************************************************************* //
