/*--------------------------------*- C++ -*----------------------------------*\
| =========                 |                                                 |
| \\      /  F ield         | OpenFOAM: The Open Source CFD Toolbox           |
|  \\    /   O peration     | Version:  v1912                                 |
|   \\  /    A nd           | Website:  www.openfoam.com                      |
|    \\/     M anipulation  |                                                 |
\*---------------------------------------------------------------------------*/
FoamFile
{
    version     2.0;
    format      ascii;
    class       volScalarField;
    location    "0.65/solid";
    object      epsilonEq;
}
// * * * * * * * * * * * * * * * * * * * * * * * * * * * * * * * * * * * * * //

dimensions      [0 0 0 0 0 0 0];


internalField   nonuniform List<scalar> 
256
(
2.76909e-06
1.95599e-06
1.92826e-06
2.64627e-06
1.61776e-06
1.37339e-06
1.35148e-06
1.52286e-06
1.60971e-06
1.29489e-06
1.27352e-06
1.51464e-06
1.68827e-06
1.29735e-06
1.27615e-06
1.59204e-06
1.74906e-06
1.32602e-06
1.30482e-06
1.65176e-06
1.74838e-06
1.34693e-06
1.32569e-06
1.65039e-06
1.42471e-06
1.23226e-06
1.21414e-06
1.33436e-06
2.43979e-07
1.39231e-06
1.38089e-06
2.56444e-07
1.66363e-06
3.99931e-07
3.88144e-07
1.53714e-06
1.22699e-06
3.95586e-07
3.85124e-07
1.11379e-06
1.19819e-06
2.99845e-07
2.91735e-07
1.08545e-06
1.21165e-06
2.04666e-07
1.99458e-07
1.09728e-06
1.24537e-06
1.67747e-07
1.65447e-07
1.12873e-06
1.28831e-06
1.85353e-07
1.83236e-07
1.16946e-06
1.21168e-06
1.54418e-07
1.58501e-07
1.09501e-06
1.4249e-06
1.23445e-06
1.21631e-06
1.33431e-06
1.39557e-06
2.35292e-07
2.30878e-07
1.27355e-06
1.17668e-06
2.32121e-07
2.2329e-07
1.06468e-06
1.16366e-06
1.64743e-07
1.56595e-07
1.05004e-06
1.17685e-06
1.01964e-07
9.81093e-08
1.0607e-06
1.21547e-06
9.74806e-08
9.84524e-08
1.09633e-06
1.27907e-06
1.18515e-07
1.17005e-07
1.15696e-06
1.2866e-06
1.80653e-07
1.7921e-07
1.16723e-06
1.75033e-06
1.3515e-06
1.33031e-06
1.65226e-06
1.24903e-06
2.16103e-07
2.14598e-07
1.13284e-06
1.09324e-06
2.04452e-07
2.00147e-07
9.87169e-07
1.08639e-06
1.52001e-07
1.48945e-07
9.77268e-07
1.10041e-06
1.16746e-07
1.18656e-07
9.87738e-07
1.14181e-06
1.13312e-07
1.18229e-07
1.02543e-06
1.21189e-06
1.09628e-07
1.11363e-07
1.09173e-06
1.24069e-06
1.52325e-07
1.52e-07
1.12276e-06
1.76016e-06
1.33576e-06
1.3147e-06
1.66298e-06
1.16477e-06
1.86537e-07
1.85193e-07
1.05203e-06
1.02645e-06
1.83446e-07
1.80532e-07
9.23804e-07
1.02547e-06
1.43354e-07
1.41751e-07
9.19292e-07
1.04336e-06
1.13771e-07
1.16336e-07
9.33053e-07
1.08933e-06
1.06533e-07
1.11302e-07
9.7491e-07
1.164e-06
9.4608e-08
9.55208e-08
1.04541e-06
1.20165e-06
1.4933e-07
1.48318e-07
1.08511e-06
1.72582e-06
1.31076e-06
1.28986e-06
1.62971e-06
1.11704e-06
1.60974e-07
1.59094e-07
1.0062e-06
9.83642e-07
1.61765e-07
1.58637e-07
8.82566e-07
9.86883e-07
1.25071e-07
1.23002e-07
8.82104e-07
1.00899e-06
9.1995e-08
9.38858e-08
8.99846e-07
1.05919e-06
8.06868e-08
8.46556e-08
9.45785e-07
1.13741e-06
7.18965e-08
7.01076e-08
1.01973e-06
1.18074e-06
1.60998e-07
1.5884e-07
1.0652e-06
1.6997e-06
1.29328e-06
1.27244e-06
1.60427e-06
1.0909e-06
1.41915e-07
1.39381e-07
9.81065e-07
9.58998e-07
1.43279e-07
1.39494e-07
8.58596e-07
9.64709e-07
1.04813e-07
1.01698e-07
8.6053e-07
9.89831e-07
6.46545e-08
6.56693e-08
8.81219e-07
1.0429e-06
5.00701e-08
5.36408e-08
9.29987e-07
1.12351e-06
5.29207e-08
4.74231e-08
1.00631e-06
1.17061e-06
1.7243e-07
1.69616e-07
1.05573e-06
1.68521e-06
1.28273e-06
1.2619e-06
1.59018e-06
1.07924e-06
1.31252e-07
1.28263e-07
9.69824e-07
9.47773e-07
1.32327e-07
1.28031e-07
8.47623e-07
9.54613e-07
9.12623e-08
8.72445e-08
8.50657e-07
9.81232e-07
4.26579e-08
4.2925e-08
8.7283e-07
1.03569e-06
2.20272e-08
2.68721e-08
9.22985e-07
1.11746e-06
4.20825e-08
3.29404e-08
1.00049e-06
1.16648e-06
1.78456e-07
1.75388e-07
1.05192e-06
1.67907e-06
1.27779e-06
1.25698e-06
1.58423e-06
)
;

boundaryField
{
    interface
    {
        type            calculated;
        value           nonuniform List<scalar> 
192
(
3.53957e-06
2.28318e-06
2.29099e-06
2.40116e-06
2.49553e-06
2.53231e-06
2.25818e-06
1.24175e-06
2.68329e-06
2.11248e-06
2.09899e-06
2.15768e-06
2.241e-06
2.33434e-06
2.30077e-06
2.25916e-06
2.35167e-06
2.03011e-06
2.03681e-06
2.09305e-06
2.18077e-06
2.29591e-06
2.33537e-06
2.53665e-06
2.13588e-06
1.8922e-06
1.9102e-06
1.9677e-06
2.05817e-06
2.18117e-06
2.2443e-06
2.5119e-06
2.0059e-06
1.78524e-06
1.81025e-06
1.87144e-06
1.96588e-06
2.09376e-06
2.16719e-06
2.45058e-06
1.93037e-06
1.71727e-06
1.74627e-06
1.81108e-06
1.90909e-06
2.04024e-06
2.11913e-06
2.40586e-06
1.88861e-06
1.67844e-06
1.70955e-06
1.77685e-06
1.87725e-06
2.01037e-06
2.09228e-06
2.37996e-06
1.86994e-06
1.66091e-06
1.69294e-06
1.76145e-06
1.86301e-06
1.99704e-06
2.08032e-06
2.36843e-06
3.59891e-06
2.34514e-06
2.35465e-06
2.46786e-06
2.56455e-06
2.60174e-06
2.33039e-06
1.33941e-06
3.05811e-06
2.32655e-06
2.2647e-06
2.31226e-06
2.38909e-06
2.46132e-06
2.39342e-06
2.29999e-06
3.01309e-06
2.28781e-06
2.22535e-06
2.27223e-06
2.34853e-06
2.42022e-06
2.3541e-06
2.27243e-06
3.45273e-06
2.23316e-06
2.24073e-06
2.35143e-06
2.44651e-06
2.48287e-06
2.2204e-06
1.31217e-06
3.34621e-06
2.10987e-06
2.11521e-06
2.22237e-06
2.31388e-06
2.34794e-06
2.07592e-06
1.09234e-06
2.47035e-06
1.91353e-06
1.89794e-06
1.95251e-06
2.03127e-06
2.1202e-06
2.08695e-06
2.07609e-06
2.14522e-06
1.83442e-06
1.83762e-06
1.88907e-06
1.9714e-06
2.08085e-06
2.11971e-06
2.35073e-06
1.93714e-06
1.7037e-06
1.71719e-06
1.76915e-06
1.85351e-06
1.96978e-06
2.0311e-06
2.32777e-06
1.81222e-06
1.60148e-06
1.62157e-06
1.67673e-06
1.76461e-06
1.88517e-06
1.9561e-06
2.26796e-06
1.73972e-06
1.53617e-06
1.56006e-06
1.61859e-06
1.70977e-06
1.83329e-06
1.90938e-06
2.22416e-06
1.69967e-06
1.49876e-06
1.52467e-06
1.58557e-06
1.67901e-06
1.80435e-06
1.88334e-06
2.19882e-06
1.68177e-06
1.48185e-06
1.50864e-06
1.57072e-06
1.66524e-06
1.79143e-06
1.87175e-06
2.18755e-06
1.34208e-06
2.33258e-06
2.60693e-06
2.58224e-06
2.52008e-06
2.47407e-06
2.44719e-06
2.43518e-06
2.30184e-06
2.39756e-06
2.46993e-06
2.40734e-06
2.34457e-06
2.30069e-06
2.27382e-06
2.26115e-06
2.27401e-06
2.35789e-06
2.42836e-06
2.36612e-06
2.3036e-06
2.25982e-06
2.23299e-06
2.22034e-06
1.3135e-06
2.22159e-06
2.48704e-06
2.46297e-06
2.4017e-06
2.35623e-06
2.32966e-06
2.3178e-06
)
;
    }
    symmetry
    {
        type            symmetry;
    }
    bottom
    {
        type            calculated;
        value           nonuniform List<scalar> 
32
(
3.93993e-06
2.13496e-06
1.68402e-06
1.49852e-06
1.40284e-06
1.34977e-06
1.32085e-06
1.30796e-06
2.51112e-06
5.0684e-07
2.38677e-07
2.21623e-07
1.97469e-07
1.75023e-07
1.58201e-07
1.48915e-07
2.47843e-06
4.9047e-07
2.26756e-07
2.12096e-07
1.8721e-07
1.6345e-07
1.45272e-07
1.35056e-07
3.79015e-06
1.99509e-06
1.54921e-06
1.36992e-06
1.27845e-06
1.22795e-06
1.20047e-06
1.18823e-06
)
;
    }
}


// ************************************************************************* //
