/*--------------------------------*- C++ -*----------------------------------*\
| =========                 |                                                 |
| \\      /  F ield         | OpenFOAM: The Open Source CFD Toolbox           |
|  \\    /   O peration     | Version:  v1912                                 |
|   \\  /    A nd           | Website:  www.openfoam.com                      |
|    \\/     M anipulation  |                                                 |
\*---------------------------------------------------------------------------*/
FoamFile
{
    version     2.0;
    format      ascii;
    class       pointVectorField;
    location    "0.65/solid";
    object      pointD;
}
// * * * * * * * * * * * * * * * * * * * * * * * * * * * * * * * * * * * * * //

dimensions      [0 1 0 0 0 0 0];


internalField   nonuniform List<vector> 
405
(
(3.64254e-08 3.68674e-08 3.75994e-08)
(7.05338e-09 2.42158e-08 4.15105e-08)
(7.00324e-11 1.98933e-08 3.91236e-08)
(-6.73459e-09 2.38431e-08 4.07561e-08)
(-3.45517e-08 3.57549e-08 3.68636e-08)
(6.16898e-08 4.55302e-08 6.73402e-08)
(1.938e-08 4.09491e-08 9.31796e-08)
(4.88752e-10 3.41365e-08 8.83025e-08)
(-1.79889e-08 4.00665e-08 9.17948e-08)
(-5.80803e-08 4.36764e-08 6.64329e-08)
(7.01168e-08 2.70455e-08 8.49935e-08)
(2.55519e-08 2.62786e-08 1.10146e-07)
(1.2567e-09 2.26888e-08 1.04929e-07)
(-2.25737e-08 2.51264e-08 1.08956e-07)
(-6.48837e-08 2.48114e-08 8.44305e-08)
(7.1707e-08 1.21614e-08 9.71373e-08)
(2.63548e-08 1.32047e-08 1.22635e-07)
(2.12973e-09 1.13697e-08 1.16985e-07)
(-2.1638e-08 1.17918e-08 1.21569e-07)
(-6.47442e-08 9.53162e-09 9.68317e-08)
(7.28676e-08 8.34539e-10 1.08059e-07)
(2.65877e-08 1.79723e-09 1.34189e-07)
(3.07052e-09 1.23694e-10 1.28182e-07)
(-1.99897e-08 1.36065e-10 1.33212e-07)
(-6.40168e-08 -2.1856e-09 1.07941e-07)
(7.65365e-08 -9.59581e-09 1.19919e-07)
(2.83838e-08 -9.58066e-09 1.4702e-07)
(4.07822e-09 -1.17925e-08 1.40747e-07)
(-1.97679e-08 -1.14785e-08 1.46106e-07)
(-6.56566e-08 -1.29871e-08 1.19938e-07)
(8.48532e-08 -2.34978e-08 1.34157e-07)
(3.3155e-08 -2.41993e-08 1.62835e-07)
(5.1457e-09 -2.65138e-08 1.56559e-07)
(-2.24077e-08 -2.63209e-08 1.61963e-07)
(-7.18432e-08 -2.7231e-08 1.34273e-07)
(9.89823e-08 -5.8043e-08 1.50993e-07)
(4.10214e-08 -5.76671e-08 1.83102e-07)
(6.23367e-09 -5.81248e-08 1.77724e-07)
(-2.80967e-08 -5.98174e-08 1.82287e-07)
(-8.3793e-08 -6.18268e-08 1.51193e-07)
(9.5689e-08 -1.09995e-07 1.4835e-07)
(4.5746e-08 -1.20199e-07 1.58825e-07)
(6.93836e-09 -1.17643e-07 1.55633e-07)
(-3.14034e-08 -1.21495e-07 1.58825e-07)
(-7.97855e-08 -1.12728e-07 1.48904e-07)
(3.74201e-08 2.06102e-08 6.79101e-09)
(0 0 0)
(0 0 0)
(0 0 0)
(-3.51265e-08 1.96229e-08 6.87223e-09)
(8.00305e-08 3.27433e-08 2.26837e-08)
(1.64046e-08 1.81076e-08 2.58404e-08)
(4.30234e-10 1.22656e-08 2.55823e-08)
(-1.51501e-08 1.72089e-08 2.60232e-08)
(-7.47233e-08 3.05501e-08 2.30509e-08)
(8.651e-08 1.69074e-08 3.79749e-08)
(2.15909e-08 1.18874e-08 4.21705e-08)
(1.10882e-09 8.62139e-09 4.20253e-08)
(-1.89327e-08 1.06554e-08 4.25506e-08)
(-7.9707e-08 1.42697e-08 3.87256e-08)
(8.82922e-08 4.1403e-09 4.9083e-08)
(2.22105e-08 2.62904e-09 5.34534e-08)
(1.90369e-09 9.30865e-10 5.33367e-08)
(-1.79695e-08 1.13966e-09 5.39957e-08)
(-7.98367e-08 1.05451e-09 5.01483e-08)
(9.01716e-08 -5.93072e-09 5.87199e-08)
(2.24395e-08 -7.70002e-09 6.30491e-08)
(2.78456e-09 -9.27064e-09 6.2872e-08)
(-1.64352e-08 -9.4201e-09 6.37122e-08)
(-7.98708e-08 -9.44618e-09 6.0021e-08)
(9.49726e-08 -1.52332e-08 6.86179e-08)
(2.4252e-08 -1.91662e-08 7.28686e-08)
(3.7471e-09 -2.13142e-08 7.26004e-08)
(-1.63172e-08 -2.11078e-08 7.36202e-08)
(-8.26613e-08 -1.91506e-08 7.00921e-08)
(1.05065e-07 -2.7105e-08 7.96305e-08)
(2.90454e-08 -3.35109e-08 8.38139e-08)
(4.78103e-09 -3.58615e-08 8.35026e-08)
(-1.90427e-08 -3.56623e-08 8.46286e-08)
(-9.06322e-08 -3.13819e-08 8.12281e-08)
(1.22633e-07 -5.75624e-08 9.04894e-08)
(3.69088e-08 -6.24117e-08 9.46962e-08)
(5.84813e-09 -6.28558e-08 9.45032e-08)
(-2.4769e-08 -6.45764e-08 9.55451e-08)
(-1.06031e-07 -6.18893e-08 9.21583e-08)
(9.95033e-08 -1.18234e-07 9.7162e-08)
(4.16938e-08 -1.50862e-07 9.84335e-08)
(6.90314e-09 -1.46132e-07 9.82712e-08)
(-2.74247e-08 -1.51349e-07 9.92892e-08)
(-8.32919e-08 -1.20739e-07 9.865e-08)
(3.03344e-08 1.20239e-08 5.66922e-10)
(0 0 0)
(0 0 0)
(0 0 0)
(-2.81165e-08 1.11687e-08 7.10666e-10)
(6.45754e-08 1.7265e-08 6.65253e-09)
(1.12007e-08 6.21986e-09 1.09629e-08)
(3.47457e-10 1.34949e-09 1.20541e-08)
(-1.01202e-08 5.411e-09 1.12253e-08)
(-5.95244e-08 1.52986e-08 7.13116e-09)
(6.92998e-08 4.86697e-09 1.78129e-08)
(1.47945e-08 9.97868e-10 2.34682e-08)
(9.48415e-10 -1.79367e-09 2.50317e-08)
(-1.24712e-08 -1.84828e-10 2.39085e-08)
(-6.29367e-08 2.38636e-09 1.86323e-08)
(7.04128e-08 -5.15553e-09 2.82679e-08)
(1.5079e-08 -6.36932e-09 3.42065e-08)
(1.67601e-09 -7.91785e-09 3.59321e-08)
(-1.13094e-08 -7.83326e-09 3.47845e-08)
(-6.25345e-08 -8.13517e-09 2.93562e-08)
(7.19694e-08 -1.3499e-08 3.74575e-08)
(1.52033e-08 -1.51624e-08 4.3438e-08)
(2.50182e-09 -1.66938e-08 4.52038e-08)
(-9.77906e-09 -1.68668e-08 4.41236e-08)
(-6.23422e-08 -1.69391e-08 3.87568e-08)
(7.6639e-08 -2.1103e-08 4.61153e-08)
(1.69311e-08 -2.50072e-08 5.20928e-08)
(3.42086e-09 -2.71536e-08 5.38565e-08)
(-9.65957e-09 -2.69373e-08 5.28596e-08)
(-6.50585e-08 -2.49656e-08 4.75742e-08)
(8.70104e-08 -3.00949e-08 5.42426e-08)
(2.17147e-08 -3.6571e-08 6.01795e-08)
(4.42174e-09 -3.89269e-08 6.19346e-08)
(-1.24363e-08 -3.87123e-08 6.10028e-08)
(-7.3332e-08 -3.4331e-08 5.58132e-08)
(1.05759e-07 -5.51755e-08 5.98791e-08)
(2.97033e-08 -6.00158e-08 6.57441e-08)
(5.46575e-09 -6.03575e-08 6.7503e-08)
(-1.83299e-08 -6.21678e-08 6.65944e-08)
(-8.99239e-08 -5.94654e-08 6.151e-08)
(8.60605e-08 -1.09854e-07 6.25569e-08)
(3.45004e-08 -1.3909e-07 6.49654e-08)
(6.50779e-09 -1.33484e-07 6.67023e-08)
(-2.10242e-08 -1.39535e-07 6.58093e-08)
(-7.06333e-08 -1.12306e-07 6.4009e-08)
(2.60925e-08 8.81299e-09 4.97203e-10)
(0 0 0)
(0 0 0)
(0 0 0)
(-2.39797e-08 8.04589e-09 6.06313e-10)
(5.53588e-08 1.07128e-08 4.9373e-09)
(8.03316e-09 1.88884e-09 7.63004e-09)
(2.74358e-10 -2.31277e-09 8.62884e-09)
(-7.11201e-09 1.14513e-09 7.82876e-09)
(-5.05866e-08 8.92779e-09 5.30869e-09)
(5.92021e-08 -1.60942e-09 1.3639e-08)
(1.06103e-08 -4.74099e-09 1.72054e-08)
(8.06042e-10 -7.16851e-09 1.8627e-08)
(-8.58431e-09 -5.85211e-09 1.75452e-08)
(-5.32475e-08 -3.91455e-09 1.42816e-08)
(6.01686e-08 -1.09767e-08 2.28408e-08)
(1.07343e-08 -1.2049e-08 2.65568e-08)
(1.47416e-09 -1.34768e-08 2.81198e-08)
(-7.37924e-09 -1.34509e-08 2.70052e-08)
(-5.28108e-08 -1.38069e-08 2.36981e-08)
(6.17449e-08 -1.81501e-08 3.12442e-08)
(1.08674e-08 -1.98202e-08 3.49346e-08)
(2.25095e-09 -2.13277e-08 3.65376e-08)
(-5.95427e-09 -2.14742e-08 3.54705e-08)
(-5.27261e-08 -2.14696e-08 3.22763e-08)
(6.65001e-08 -2.39782e-08 3.86505e-08)
(1.26086e-08 -2.79227e-08 4.2294e-08)
(3.13078e-09 -3.0074e-08 4.39052e-08)
(-5.92399e-09 -2.9812e-08 4.28987e-08)
(-5.55861e-08 -2.7746e-08 3.98201e-08)
(7.70969e-08 -3.05461e-08 4.45805e-08)
(1.74137e-08 -3.70738e-08 4.81855e-08)
(4.1011e-09 -3.94498e-08 4.97946e-08)
(-8.77956e-09 -3.91809e-08 4.88387e-08)
(-6.4113e-08 -3.4707e-08 4.58486e-08)
(9.6171e-08 -5.25942e-08 4.76689e-08)
(2.54084e-08 -5.75234e-08 5.12876e-08)
(5.12134e-09 -5.79248e-08 5.29001e-08)
(-1.47222e-08 -5.96438e-08 5.19629e-08)
(-8.10358e-08 -5.68181e-08 4.89899e-08)
(7.82456e-08 -1.04072e-07 4.85808e-08)
(3.0251e-08 -1.31792e-07 5.04028e-08)
(6.14492e-09 -1.26203e-07 5.2085e-08)
(-1.7497e-08 -1.32216e-07 5.10653e-08)
(-6.35273e-08 -1.06474e-07 4.97429e-08)
(2.3873e-08 7.62904e-09 8.15663e-10)
(0 0 0)
(0 0 0)
(0 0 0)
(-2.18433e-08 6.923e-09 8.92396e-10)
(5.05436e-08 8.20908e-09 4.72618e-09)
(6.69868e-09 4.10849e-10 6.0005e-09)
(2.24034e-10 -3.42229e-09 6.59077e-09)
(-5.89424e-09 -2.86487e-10 6.14288e-09)
(-4.59931e-08 6.55883e-09 4.99383e-09)
(5.40061e-08 -4.40506e-09 1.1555e-08)
(8.8513e-09 -7.21162e-09 1.32348e-08)
(7.01732e-10 -9.43369e-09 1.40786e-08)
(-7.04974e-09 -8.26003e-09 1.34832e-08)
(-4.83773e-08 -6.56258e-09 1.20269e-08)
(5.50527e-08 -1.38254e-08 1.89543e-08)
(8.96657e-09 -1.48863e-08 2.06627e-08)
(1.32072e-09 -1.62454e-08 2.15883e-08)
(-5.93197e-09 -1.62249e-08 2.0994e-08)
(-4.81112e-08 -1.65153e-08 1.95916e-08)
(5.67932e-08 -2.04671e-08 2.58755e-08)
(9.1799e-09 -2.22007e-08 2.7516e-08)
(2.05594e-09 -2.36961e-08 2.846e-08)
(-4.66874e-09 -2.3798e-08 2.79156e-08)
(-4.8265e-08 -2.36643e-08 2.66511e-08)
(6.16949e-08 -2.52289e-08 3.17553e-08)
(1.09816e-08 -2.92235e-08 3.33332e-08)
(2.90185e-09 -3.13773e-08 3.42786e-08)
(-4.76515e-09 -3.10645e-08 3.37879e-08)
(-5.13259e-08 -2.88952e-08 3.26431e-08)
(7.23954e-08 -3.053e-08 3.60357e-08)
(1.57941e-08 -3.70742e-08 3.75971e-08)
(3.84494e-09 -3.94711e-08 3.85437e-08)
(-7.67999e-09 -3.91405e-08 3.80913e-08)
(-5.99886e-08 -3.46077e-08 3.70062e-08)
(9.1435e-08 -5.12091e-08 3.80202e-08)
(2.37209e-08 -5.62259e-08 3.96463e-08)
(4.84289e-09 -5.67285e-08 4.06092e-08)
(-1.35958e-08 -5.8311e-08 4.01585e-08)
(-7.68897e-08 -5.53623e-08 3.90363e-08)
(7.46211e-08 -1.00812e-07 3.8386e-08)
(2.85945e-08 -1.27633e-07 3.9347e-08)
(5.84804e-09 -1.22274e-07 4.03956e-08)
(-1.64365e-08 -1.28032e-07 3.98463e-08)
(-6.04981e-08 -1.03162e-07 3.92741e-08)
(2.27307e-08 7.14826e-09 8.27133e-10)
(0 0 0)
(0 0 0)
(0 0 0)
(-2.07566e-08 6.48442e-09 8.7875e-10)
(4.8125e-08 7.25704e-09 4.01063e-09)
(6.24057e-09 -1.32493e-10 4.54656e-09)
(1.91591e-10 -3.78348e-09 4.83935e-09)
(-5.51386e-09 -7.9608e-10 4.64468e-09)
(-4.37255e-08 5.70309e-09 4.19337e-09)
(5.14984e-08 -5.42926e-09 9.09506e-09)
(8.27812e-09 -8.13607e-09 9.77792e-09)
(6.30884e-10 -1.02605e-08 1.01959e-08)
(-6.63161e-09 -9.13629e-09 9.95116e-09)
(-4.60968e-08 -7.47497e-09 9.42198e-09)
(5.26803e-08 -1.4927e-08 1.45417e-08)
(8.44512e-09 -1.60298e-08 1.51999e-08)
(1.2125e-09 -1.73592e-08 1.56555e-08)
(-5.63857e-09 -1.73166e-08 1.54332e-08)
(-4.60344e-08 -1.75043e-08 1.49887e-08)
(5.45887e-08 -2.13916e-08 1.96745e-08)
(8.74185e-09 -2.31906e-08 2.02667e-08)
(1.91474e-09 -2.46819e-08 2.07273e-08)
(-4.52335e-09 -2.4739e-08 2.05502e-08)
(-4.6415e-08 -2.44856e-08 2.02242e-08)
(5.96102e-08 -2.57278e-08 2.39666e-08)
(1.05962e-08 -2.97544e-08 2.4511e-08)
(2.73295e-09 -3.19069e-08 2.49708e-08)
(-4.72657e-09 -3.15522e-08 2.48357e-08)
(-4.9642e-08 -2.93052e-08 2.46017e-08)
(7.03322e-08 -3.05726e-08 2.69771e-08)
(1.53961e-08 -3.71052e-08 2.75241e-08)
(3.65322e-09 -3.9511e-08 2.79889e-08)
(-7.67287e-09 -3.91346e-08 2.7879e-08)
(-5.83576e-08 -3.45762e-08 2.76767e-08)
(8.9231e-08 -5.068e-08 2.83823e-08)
(2.32413e-08 -5.57373e-08 2.89986e-08)
(4.63217e-09 -5.63096e-08 2.94827e-08)
(-1.35427e-08 -5.77912e-08 2.93673e-08)
(-7.51355e-08 -5.47707e-08 2.91184e-08)
(7.30824e-08 -9.91355e-08 2.86289e-08)
(2.81172e-08 -1.25377e-07 2.90569e-08)
(5.62147e-09 -1.20213e-07 2.96002e-08)
(-1.64163e-08 -1.25752e-07 2.94149e-08)
(-5.94178e-08 -1.01439e-07 2.92707e-08)
(2.21261e-08 6.93514e-09 6.28372e-10)
(0 0 0)
(0 0 0)
(0 0 0)
(-2.01859e-08 6.29846e-09 6.6014e-10)
(4.68818e-08 6.88968e-09 2.84785e-09)
(6.0914e-09 -3.41579e-10 3.06811e-09)
(1.717e-10 -3.90558e-09 3.20169e-09)
(-5.41284e-09 -9.82175e-10 3.12974e-09)
(-4.25757e-08 5.39941e-09 2.9612e-09)
(5.02679e-08 -5.73601e-09 6.21719e-09)
(8.11834e-09 -8.42753e-09 6.4811e-09)
(5.85869e-10 -1.05096e-08 6.67025e-09)
(-6.57075e-09 -9.39421e-09 6.59065e-09)
(-4.50099e-08 -7.7048e-09 6.42189e-09)
(5.1562e-08 -1.52345e-08 9.76479e-09)
(8.33825e-09 -1.63823e-08 9.99782e-09)
(1.14171e-09 -1.77014e-08 1.02019e-08)
(-5.68109e-09 -1.7632e-08 1.01463e-08)
(-4.51072e-08 -1.77316e-08 1.00474e-08)
(5.35886e-08 -2.16616e-08 1.31043e-08)
(8.6931e-09 -2.35062e-08 1.32926e-08)
(1.82024e-09 -2.49965e-08 1.34972e-08)
(-4.67044e-09 -2.50185e-08 1.34741e-08)
(-4.56485e-08 -2.46798e-08 1.34548e-08)
(5.86822e-08 -2.59059e-08 1.58832e-08)
(1.05778e-08 -2.99462e-08 1.60444e-08)
(2.61793e-09 -3.20948e-08 1.6249e-08)
(-4.94426e-09 -3.17114e-08 1.62535e-08)
(-4.89824e-08 -2.94163e-08 1.62912e-08)
(6.93906e-08 -3.0668e-08 1.78214e-08)
(1.53587e-08 -3.7178e-08 1.79922e-08)
(3.52097e-09 -3.95823e-08 1.82029e-08)
(-7.90483e-09 -3.91793e-08 1.82216e-08)
(-5.77102e-08 -3.46147e-08 1.82736e-08)
(8.8157e-08 -5.05508e-08 1.87669e-08)
(2.31381e-08 -5.5612e-08 1.89891e-08)
(4.48547e-09 -5.62161e-08 1.92149e-08)
(-1.37365e-08 -5.7642e-08 1.92279e-08)
(-7.43724e-08 -5.45936e-08 1.92446e-08)
(7.23876e-08 -9.83194e-08 1.89671e-08)
(2.7999e-08 -1.24183e-07 1.91505e-08)
(5.46273e-09 -1.19128e-07 1.94074e-08)
(-1.66185e-08 -1.24538e-07 1.93819e-08)
(-5.90432e-08 -1.00586e-07 1.93834e-08)
(2.18221e-08 6.84043e-09 3.32149e-10)
(0 0 0)
(0 0 0)
(0 0 0)
(-1.98999e-08 6.2188e-09 3.47282e-10)
(4.62664e-08 6.75118e-09 1.4645e-09)
(6.03701e-09 -4.1625e-10 1.54712e-09)
(1.60992e-10 -3.94062e-09 1.5991e-09)
(-5.38448e-09 -1.04355e-09 1.57685e-09)
(-4.20106e-08 5.29691e-09 1.5187e-09)
(4.96745e-08 -5.79903e-09 3.14073e-09)
(8.07111e-09 -8.4941e-09 3.2344e-09)
(5.61064e-10 -1.05589e-08 3.30732e-09)
(-6.57805e-09 -9.4411e-09 3.28743e-09)
(-4.44951e-08 -7.72312e-09 3.2391e-09)
(5.10348e-08 -1.52709e-08 4.88415e-09)
(8.32374e-09 -1.64474e-08 4.96015e-09)
(1.10191e-09 -1.77634e-08 5.03813e-09)
(-5.75049e-09 -1.7675e-08 5.03232e-09)
(-4.46863e-08 -1.77204e-08 5.02074e-09)
(5.3126e-08 -2.1699e-08 6.52065e-09)
(8.70964e-09 -2.3568e-08 6.5754e-09)
(1.76624e-09 -2.50578e-08 6.65316e-09)
(-4.79874e-09 -2.50585e-08 6.66396e-09)
(-4.53178e-08 -2.46713e-08 6.69104e-09)
(5.82542e-08 -2.59583e-08 7.88152e-09)
(1.06079e-08 -3.00024e-08 7.92495e-09)
(2.55135e-09 -3.21471e-08 8.0032e-09)
(-5.11071e-09 -3.17476e-08 8.02729e-09)
(-4.8708e-08 -2.94275e-08 8.08083e-09)
(6.8945e-08 -3.0747e-08 8.83459e-09)
(1.53739e-08 -3.72382e-08 8.88498e-09)
(3.44367e-09 -3.96379e-08 8.96725e-09)
(-8.07733e-09 -3.92221e-08 8.9976e-09)
(-5.74348e-08 -3.46584e-08 9.05635e-09)
(8.7626e-08 -5.05512e-08 9.31628e-09)
(2.3113e-08 -5.56036e-08 9.39307e-09)
(4.39916e-09 -5.62179e-08 9.48333e-09)
(-1.38861e-08 -5.76189e-08 9.51044e-09)
(-7.40229e-08 -5.45641e-08 9.55114e-09)
(7.20507e-08 -9.7956e-08 9.43441e-09)
(2.79577e-08 -1.236e-07 9.5064e-09)
(5.36892e-09 -1.18594e-07 9.60888e-09)
(-1.67666e-08 -1.23943e-07 9.61992e-09)
(-5.88949e-08 -1.002e-07 9.63903e-09)
(1.74836e-08 7.1062e-09 0)
(2.13208e-09 1.72618e-09 0)
(-4.1312e-13 -4.32786e-10 0)
(-1.98999e-09 1.50066e-09 0)
(-1.6016e-08 6.44601e-09 0)
(2.89719e-08 4.83097e-09 0)
(6.02164e-09 -4.33922e-10 0)
(1.5762e-10 -3.94669e-09 0)
(-5.37733e-09 -1.05688e-09 0)
(-2.63652e-08 3.61895e-09 0)
(3.22843e-08 -6.23704e-09 0)
(8.05888e-09 -8.5015e-09 0)
(5.5316e-10 -1.05615e-08 0)
(-6.58319e-09 -9.44202e-09 0)
(-2.87845e-08 -7.90386e-09 0)
(3.3102e-08 -1.53504e-08 0)
(8.322e-09 -1.64489e-08 0)
(1.0891e-09 -1.77641e-08 0)
(-5.77574e-09 -1.76692e-08 0)
(-2.84877e-08 -1.74833e-08 0)
(3.43804e-08 -2.20732e-08 0)
(8.71734e-09 -2.35707e-08 0)
(1.7487e-09 -2.50603e-08 0)
(-4.84271e-09 -2.50538e-08 0)
(-2.83717e-08 -2.46637e-08 0)
(3.82426e-08 -2.71368e-08 0)
(1.06192e-08 -3.00126e-08 0)
(2.52959e-09 -3.21558e-08 0)
(-5.16658e-09 -3.17511e-08 0)
(-3.05714e-08 -3.01668e-08 0)
(4.69656e-08 -3.3068e-08 0)
(1.53799e-08 -3.72601e-08 0)
(3.41827e-09 -3.96575e-08 0)
(-8.1349e-09 -3.92381e-08 0)
(-3.74117e-08 -3.64983e-08 0)
(6.20778e-08 -5.30278e-08 0)
(2.31056e-08 -5.56096e-08 0)
(4.37069e-09 -5.62258e-08 0)
(-1.39361e-08 -5.76199e-08 0)
(-5.05073e-08 -5.65392e-08 0)
(6.2484e-08 -8.90052e-08 0)
(2.7752e-08 -9.66116e-08 0)
(5.09623e-09 -9.35963e-08 0)
(-1.71125e-08 -9.77459e-08 0)
(-5.02243e-08 -9.14659e-08 0)
)
;

boundaryField
{
    interface
    {
        type            calculated;
    }
    symmetry
    {
        type            symmetry;
    }
    bottom
    {
        type            calculated;
    }
}


// ************************************************************************* //
