/*--------------------------------*- C++ -*----------------------------------*\
| =========                 |                                                 |
| \\      /  F ield         | OpenFOAM: The Open Source CFD Toolbox           |
|  \\    /   O peration     | Version:  v1912                                 |
|   \\  /    A nd           | Website:  www.openfoam.com                      |
|    \\/     M anipulation  |                                                 |
\*---------------------------------------------------------------------------*/
FoamFile
{
    version     2.0;
    format      ascii;
    class       volSymmTensorField;
    location    "0.65/solid";
    object      sigma;
}
// * * * * * * * * * * * * * * * * * * * * * * * * * * * * * * * * * * * * * //

dimensions      [1 -1 -2 0 0 0 0];


internalField   nonuniform List<symmTensor> 
256
(
(-173360 27291.4 -10439.8 455456 30450.2 -185216)
(76978.8 -7079.3 -4366.97 290168 30155.4 -224743)
(78702.6 7570.65 4199.23 287308 30301 -219975)
(-147730 -26113.1 10366.3 447316 31001.5 -169762)
(-205110 -475.855 -15829.1 163906 3121.16 -211555)
(-26608.3 -5033.52 -7169.14 89489.6 4634.69 -268635)
(-23591.4 6009.07 7055.66 88593.3 4816.36 -263307)
(-176817 974.187 15765.6 164089 3705.8 -194913)
(-206418 -4249.09 -16991.5 160773 -752.528 -212420)
(-39617.7 -4266.79 -7847.3 57244.7 -447.934 -277573)
(-36618.3 5159.3 7801.12 56648.1 -325.508 -272092)
(-177802 4604.25 16949.6 161220 -347.481 -195494)
(-204245 -2707.29 -17605.6 179667 592.696 -213026)
(-31413 -3152.33 -8163.14 47856.9 271.634 -282794)
(-28431.8 3817.89 8141.79 47359.2 349.054 -277201)
(-175202 2992.17 17575 180149 864.063 -195811)
(-210339 -309.993 -18252.9 186411 3465.24 -221302)
(-28985.2 -1576.69 -8515.7 38964.3 2984.61 -294884)
(-25966.7 2020.73 8496.17 38494.2 3037.33 -289196)
(-180786 510.09 18229.1 187002 3656.18 -203789)
(-231209 4189.82 -18826.6 165388 8628.61 -241438)
(-45367.4 1209.87 -8857.38 15220.6 8340.45 -320709)
(-42326.4 -1041.13 8833.61 14798.2 8378.21 -314924)
(-201186 -4121.92 18811.5 166212 8766.54 -223579)
(-266168 12668.5 -18721.1 55388 16936.6 -273178)
(-81682.2 5696.37 -8841.4 -77626.4 17654.7 -361764)
(-78582.6 -5978.47 8813.89 -77247 17675.3 -355810)
(-235661 -12795.6 18716 58324.2 17017.8 -254769)
(-193723 17257.5 -17196 -200442 21179.8 -200220)
(34163.8 8202.04 -8139.59 -284230 22895 -283874)
(37210.8 -8081.02 8097.52 -278522 22904.3 -278191)
(-163297 -17198.1 17184.6 -182789 21221.3 -182683)
(-212695 16465.8 -7905.28 225035 -1652.54 57898.1)
(-33983.5 -9641.1 -2397.7 51552.7 11230.6 -39753.6)
(-32479.1 10115.7 2706.47 48768.4 11859.9 -40035)
(-187489 -15321.9 8038.82 217431 226.69 59247.2)
(-249744 -2288.46 -12048.8 63786.2 3487.99 -15770.9)
(-129942 -5536.67 -4836.28 -41854.3 10156.1 -131093)
(-126945 6181.3 5319.47 -42943.7 10547.4 -130478)
(-221739 2605.88 12237.7 63570 4712.31 -12180.3)
(-256349 -4422.38 -12588.2 48265.9 3194.26 -24679.8)
(-151595 -4250.91 -5238.41 -85823 5310.45 -155073)
(-148545 4709.62 5799.35 -86322.7 5579.11 -154419)
(-227901 4574.55 12798.3 48949.3 4067.32 -21243.3)
(-258663 -2861.6 -12745.2 48657.6 3758.11 -22580.4)
(-151975 -3146.31 -5246.63 -112584 4129.74 -162339)
(-148919 3423.11 5844.32 -112867 4323.49 -161717)
(-229719 2979.22 12969.6 49630.9 4400.87 -19311.2)
(-268565 -547.184 -13065 46522 7586.61 -24717)
(-156330 -1678.98 -5418.57 -131442 7434.37 -171664)
(-153226 1810.51 6024.47 -131685 7576.38 -171070)
(-239012 621.996 13299.5 47617.8 8058.89 -21515.5)
(-294694 4095.1 -13353.6 28209.4 13760.4 -38187.1)
(-179462 1077.61 -5650.3 -154019 13502 -193159)
(-176327 -1146.3 6248.11 -154239 13602.3 -192596)
(-264519 -4116.6 13597 29465.7 14093 -34995.5)
(-338635 13290.2 -13221.2 -62334.6 18763.6 -63301.1)
(-222688 5775.98 -5675.7 -226113 18794.8 -226543)
(-219494 -6212.94 6245.13 -225560 18849.3 -225932)
(-307827 -13477.1 13466.8 -59040.9 18953.2 -59873.4)
(-266472 18757.1 -12562.3 -273393 17053.4 55163.3)
(-81621 8875.72 -5542.04 -362021 17748.2 -77213.3)
(-78484.1 -8801.37 6039.45 -355995 17766.3 -76748.4)
(-235716 -18722.7 12782.4 -254738 17122.5 58287.1)
(-187861 9260.13 -3206.78 156395 10444.3 103513)
(-32596.7 -12687.8 -315.361 -1368.65 22451.7 -2102.39)
(-31078 12858.1 519.16 -3883.85 22882.5 -2769.08)
(-163221 -8275.97 3261.56 149757 11772.4 103972)
(-208044 -3213.42 -4687.82 53441.1 13517.5 70375.6)
(-94392.9 -6155.89 -1154.31 -50686.1 19588.3 -59583.8)
(-91510.1 6583.89 1469.44 -51839.7 19938.6 -59604.5)
(-180886 3442.92 4787.86 53013.4 14611.3 72407)
(-212410 -4215.78 -4570.27 51442.4 12091.2 58597.6)
(-110164 -4160.3 -1175.76 -78603.8 14071.3 -87440.5)
(-107236 4424.1 1509.68 -79218.7 14353.9 -87436.8)
(-184827 4288.91 4681.92 51747.2 12980.4 60406.2)
(-214951 -2793.43 -4350.17 55181.2 11098.4 56416.7)
(-110653 -3115.92 -1003.61 -99102.9 11476.4 -99746.2)
(-107713 3217.79 1339.02 -99488.1 11703.5 -99791.8)
(-186847 2842.13 4465 55795.1 11815.2 57990.4)
(-224720 -594.464 -4290.72 56531.8 12788.7 53028.9)
(-115054 -1786.68 -966.365 -113484 12695.5 -111389)
(-112049 1774.14 1297.22 -113811 12874.7 -111484)
(-195928 617.223 4407.92 57301.7 13351 54465.6)
(-250402 4136.81 -4261.72 45342.4 15365.3 41391.5)
(-137113 968.646 -1021.8 -128688 15142.9 -131956)
(-134048 -1144.38 1339.73 -128976 15276.6 -132093)
(-220820 -4191.38 4381.26 46305.1 15781.9 42781.4)
(-294780 13420.1 -4199.33 -36185.9 14564.6 26278)
(-178744 5729.54 -1104.73 -191526 14271.1 -155096)
(-175579 -6235.24 1383.72 -191022 14353.5 -155175)
(-264309 -13622.9 4313.8 -33130.7 14827.1 27917.1)
(-231535 18857.7 -4234.85 -241495 9092.51 165618)
(-44479.5 8877.05 -1171.63 -320677 8778.78 16383.5)
(-41371.5 -8821.54 1346.21 -314765 8806.67 16139.9)
(-200963 -18823.9 4314.94 -223233 9187.63 166899)
(-171022 6339.46 -863.855 129399 14372.1 100223)
(-28649.5 -13644.7 589.438 -16385.1 21583.9 -2095.79)
(-27142.7 13559.9 -431.085 -18685.1 21879.8 -2653.21)
(-146862 -5513.28 893.728 123568 15307 101035)
(-183424 -3362.73 -1054.65 43593.4 17341.1 85184.4)
(-75403.2 -6260.98 717.971 -56557.4 20964.8 -43133.6)
(-72582.6 6514.43 -468.514 -57601.2 21236.5 -43091.2)
(-156894 3522.22 1116.72 43405.8 18190.2 87384.7)
(-186264 -3846.14 -732.983 49451.5 16599.8 74104.3)
(-87043 -3960.04 901.316 -74869.4 17731.3 -69705.4)
(-84173.3 4106.25 -653.654 -75451.7 17972.3 -69638.6)
(-159321 3877.14 800.65 49777.2 17347.8 76069.1)
(-188891 -2542.7 -430.175 59549.5 15098.2 67579)
(-87161.3 -2973.19 1102.55 -86981 15213.8 -85943)
(-84272.1 2990.37 -873.436 -87363.1 15421.8 -85920.6)
(-161410 2560.53 494.276 60104.5 15741.7 69309.8)
(-198718 -470.272 -251.691 65813.3 14421.5 61306.2)
(-91620.3 -1764.2 1204.96 -95548.7 14270.5 -100481)
(-88656.2 1689.63 -992.25 -95874.2 14443.5 -100508)
(-170491 472.1 312.102 66516.2 14953.2 62887.7)
(-224103 4165.46 -166.018 57826.4 13340.6 51080)
(-113122 889.376 1200.98 -107490 13170.9 -119746)
(-110079 -1108.14 -1007.37 -107766 13304.7 -119816)
(-194969 -4230.23 223.148 58746.7 13750.3 52606.7)
(-267865 13161 -220.15 -21531.7 9440.08 44188)
(-153295 5481.84 1077.3 -168983 9201.32 -134616)
(-150123 -6015.98 -927.619 -168455 9286.93 -134622)
(-237653 -13364.7 266.839 -18486.2 9707.72 45964.1)
(-209516 18325.1 -402.563 -220831 4520.43 189581)
(-24982.7 8538.95 1010.71 -294264 4064.59 41284)
(-21857.2 -8496.27 -968.976 -288380 4091.96 41100.6)
(-179037 -18289.3 411.469 -202713 4612.4 190945)
(-161826 5466.45 -149.356 116990 13335.5 93008.4)
(-27716 -13486.3 629.826 -21783.8 16940 -4281.88)
(-26233.3 13240.9 -506.747 -23929.6 17148.6 -4746.6)
(-137994 -4751.49 173.854 111767 13995.2 94122)
(-171875 -3196.35 17.5182 36605.3 15864.4 83113.7)
(-69344 -6071.12 999.337 -60003.2 17610.4 -38544.2)
(-66585.1 6201.88 -796.517 -60945.2 17810.2 -38409.8)
(-145770 3303.91 33.5215 36686.4 16487.7 85572.8)
(-174269 -3521.66 303.787 45016 16051.1 73675)
(-79333.6 -3759.33 1203.56 -74630 16509.3 -62374)
(-76522.9 3823.07 -1002.2 -75164.8 16694.2 -62215.8)
(-147759 3523.61 -248.998 45456.5 16623.6 75890.6)
(-177069 -2303.24 541.245 58698.3 14816.6 65747.2)
(-79377.8 -2833.52 1354.53 -81969.8 14754.6 -79412.1)
(-76541.8 2798.53 -1175.1 -82336.3 14921 -79295.5)
(-150004 2303.04 -491.945 59286.2 15329.7 67731.3)
(-187038 -339.17 692.453 67977 13018.3 58404.4)
(-83989.8 -1714.55 1434.55 -86942.7 12868.9 -94742.4)
(-81072.5 1607.36 -1276.55 -87263.8 13012.2 -94674.8)
(-159187 330.678 -649.537 68681.3 13457.6 60235.5)
(-212239 4146.67 746.167 61164.8 10257.5 49852.8)
(-105222 819.129 1427.63 -97758.5 10181.6 -112250)
(-102215 -1058.54 -1292.48 -98029.7 10295.1 -112223)
(-183408 -4215.22 -709.655 62086.8 10605.6 51622.9)
(-255326 12848.3 654.791 -17096.5 5898.21 47451.9)
(-144456 5234.29 1316.22 -159037 5823.49 -122781)
(-141301 -5783.47 -1223.51 -158500 5897.16 -122688)
(-225301 -13051.4 -630.93 -14038.2 6129.96 49464.7)
(-199575 17800.4 488.879 -210504 2430.73 191896)
(-20294.7 8222.7 1267.36 -280705 2141.88 50532.8)
(-17174.1 -8190.6 -1268.48 -274830 2165.16 50444.5)
(-169166 -17765.1 -500.208 -192432 2509.05 193460)
(-156486 5267.12 -17.8875 111109 10377.1 88386.9)
(-27797.2 -13118.5 409.567 -24030.2 12052.3 -5498.84)
(-26331 12777.6 -322 -26067.2 12192.3 -5906.5)
(-132842 -4621.9 37.5167 106321 10815.5 89705.7)
(-165971 -3000.59 143.066 33169.5 12078.5 79609.4)
(-67802.6 -5859.63 693.283 -61248 12824.8 -36894.3)
(-65088.1 5912.6 -543.229 -62116.7 12961.5 -36698.7)
(-140117 3074.5 -101.995 33466.2 12502.4 82267)
(-168364 -3301.78 330.992 42170.2 12544.3 71505.2)
(-77338.3 -3618.3 836.423 -74571.6 12670.1 -58509.8)
(-74571.2 3625.51 -684.375 -75068.9 12799.2 -58290.5)
(-142110 3283.62 -286.475 42725 12943.4 73917.9)
(-171327 -2143.95 478.222 57088.7 11719.5 63956.5)
(-77473.7 -2745.53 925.746 -80028.2 11614.6 -74760.5)
(-74677.7 2673.75 -790.972 -80380.9 11733.3 -74582.7)
(-144503 2131.15 -438.389 57729.1 12086.3 66136.4)
(-181388 -256.431 570.559 67554.4 9918.91 56967.4)
(-82207.8 -1685.32 968.371 -83498 9817.69 -89558.3)
(-79326.5 1555.58 -853.062 -83817.2 9922.14 -89429.2)
(-153750 240.881 -536.964 68278.9 10240.3 58991.1)
(-206428 4113.08 593.56 61193.8 7183.33 49747.7)
(-103265 765.385 956.038 -93925.3 7180.43 -105714)
(-100287 -1018.94 -861.833 -94198.1 7264.53 -105626)
(-177766 -4184.48 -566.666 62125.8 7442.89 51704.7)
(-248987 12622.6 519.254 -15952.6 3697.59 49179.4)
(-141918 5071.83 880.863 -154680 3732.67 -114581)
(-138780 -5631.86 -821.476 -154144 3787.77 -114425)
(-219062 -12826.3 -503.817 -12884 3872.89 51370)
(-194634 17455.3 399.251 -204716 1411.08 191292)
(-20236.4 8024.34 843.919 -273157 1286.27 55530.7)
(-17124.9 -8000.67 -856.04 -267286 1303.82 55504.3)
(-164252 -17421.9 -411.804 -186660 1470.46 193008)
(-153365 5223.61 -10.4936 108440 6515.98 85985.8)
(-27950.9 -12859.2 205.754 -24939.5 7249.76 -6150.9)
(-26493 12465.1 -153.452 -26906.2 7330.49 -6524.69)
(-129821 -4618.39 23.1387 103929 6766.16 87433.3)
(-162734 -2874.21 72.6172 31813.7 7441.23 77365.6)
(-67435.1 -5725.46 353.599 -61516 7735.28 -36390.7)
(-64746.2 5733.84 -261.627 -62337 7814.85 -36158.1)
(-137015 2928.79 -45.8915 32259.1 7686.59 80155.8)
(-165212 -3177.89 169.924 40879 7786.45 70100.1)
(-76905.1 -3540.61 428.358 -74366.5 7801.51 -56676.5)
(-74163.3 3513.06 -333.41 -74838 7877.47 -56419.6)
(-139094 3147.34 -140.521 41520.6 8021.02 72648.6)
(-168280 -2057.27 245.024 56008.6 7316.58 63338.6)
(-77144.6 -2702.34 471.462 -79279.1 7240.85 -71940.2)
(-74371.9 2606.15 -386.861 -79621.1 7311.61 -71725.2)
(-141585 2036.04 -218.501 56695.5 7535.49 65652.7)
(-178378 -214.98 290.526 66747 6098.39 57078.8)
(-81944 -1674.75 489.116 -82319.2 6047.75 -85945.5)
(-79083.7 1529.03 -417.538 -82636.4 6110.74 -85779.8)
(-150852 194.287 -268.31 67494.1 6292.95 59233.2)
(-203296 4087.17 298.44 60568.2 4259.79 50695.1)
(-102885 732.685 479.13 -92604.3 4282.54 -101288)
(-99924.4 -996.77 -422.086 -92878.9 4333.77 -101164)
(-174719 -4161.12 -281.063 61511.8 4418.86 52777.8)
(-245511 12493.9 255.299 -15678.8 2104.87 50726.4)
(-141198 4987 439.058 -152774 2163.5 -109654)
(-138071 -5555.06 -404.681 -152239 2197.31 -109462)
(-215634 -12698.7 -245.705 -12601.4 2213.37 53035.3)
(-191882 17268.2 183.667 -201367 772.287 191028)
(-20831.1 7922.62 414.393 -268913 734.977 58292.2)
(-17724.7 -7904.94 -424.625 -263044 745.821 58302.2)
(-161505 -17236.8 -191.922 -183315 809.233 192847)
(-151893 5208.63 -5.62243 107425 2215.95 84993.5)
(-28008.7 -12741.4 60.6868 -25236.1 2425.22 -6449.19)
(-26554.2 12323.6 -43.299 -27168.4 2451.59 -6806.85)
(-128392 -4621.61 9.9569 103048 2297.21 86503.3)
(-161233 -2819.26 17.4624 31397.5 2504.93 76377.9)
(-67321.8 -5667.38 103.982 -61510.1 2583.08 -36295.3)
(-64644.3 5655.64 -73.0158 -62307.3 2609.19 -36045)
(-135572 2865.14 -8.23316 31918.4 2585.17 79234.2)
(-163762 -3124.72 46.5164 40437 2622.99 69513.1)
(-76799.1 -3508.65 126.162 -74204.4 2620.62 -55984.7)
(-74068.6 3464.74 -93.8664 -74662.8 2645.68 -55709.7)
(-137703 3088.35 -36.2685 41124.8 2700.29 72130.8)
(-166879 -2020.75 69.0667 55527.7 2469.19 63258.3)
(-77095.7 -2686.05 138.584 -79014.3 2443.23 -70670.2)
(-74333.3 2577.65 -109.67 -79350.6 2466.7 -70437.1)
(-140239 1995.27 -59.7643 56241 2541.87 65641.1)
(-176985 -198.581 82.4335 66269.1 2047.61 57476.1)
(-81920.3 -1672.27 143.106 -81986.7 2033.17 -84185.9)
(-79069.3 1518.07 -118.715 -82302.5 2054.18 -84002.6)
(-149506 175.099 -74.6457 67030.1 2112.64 59697.1)
(-201839 4074.48 84.2573 60153.1 1413.6 51485.4)
(-102803 718.127 139.494 -92225.1 1425.43 -99155.5)
(-99849.9 -988.04 -120.241 -92500.4 1442.6 -99013.8)
(-173298 -4149.98 -78.2093 61104.2 1467.09 53631.5)
(-243888 12437.9 70.5412 -15615.5 691.851 51673.8)
(-140958 4952.78 127.226 -152044 717.434 -107403)
(-137836 -5525.24 -115.819 -151510 728.808 -107194)
(-214028 -12643.6 -67.2278 -12532.7 728.522 54042.1)
(-190567 17189 46.7542 -199794 249.498 191068)
(-21148.9 7881.6 118.433 -266967 243.271 59522.2)
(-18044.6 -7867.06 -122.174 -261099 246.932 59549.3)
(-160187 -17158.7 -49.553 -181742 262.019 192938)
)
;

boundaryField
{
    interface
    {
        type            calculated;
        value           nonuniform List<symmTensor> 
192
(
(-42.8085 0.354228 2.81597 917432 30450.2 276760)
(-44.5793 0.29487 4.53407 602238 3121.16 226778)
(-46.1104 -0.000425363 5.12026 604947 -752.528 231754)
(-47.0682 -0.432523 5.26134 633776 592.696 241083)
(-47.3299 -0.805032 5.19631 658717 3465.24 251004)
(-48.2069 -1.46834 5.04866 669352 8628.61 262526)
(-46.6144 -1.96925 4.6494 599826 16936.6 271260)
(-50.1564 -4.38704 4.33832 284039 21179.8 284261)
(-41.6976 0.253808 1.38395 685586 -1652.54 518449)
(-42.5186 0.213969 2.3907 522300 3487.99 442743)
(-43.4383 -0.0502029 2.66986 516642 3194.26 443696)
(-44.082 -0.491442 2.68529 529621 3758.11 458383)
(-44.0997 -0.886419 2.58372 548867 7586.61 477628)
(-44.8748 -1.61911 2.43736 568239 13760.4 501843)
(-43.0066 -2.1746 2.17984 530390 18763.6 529424)
(-46.6628 -4.71446 1.97332 271527 17053.4 600083)
(-44.2935 0.217057 1.08871 566851 10444.3 513969)
(-45.0172 0.174384 1.85828 459159 13517.5 476093)
(-45.9246 -0.0853221 2.06734 465901 12091.2 473056)
(-46.5809 -0.550244 2.07345 481964 11098.4 483200)
(-46.5142 -0.98378 1.99027 504462 12788.7 500959)
(-47.2026 -1.79815 1.872 531074 15365.3 527123)
(-44.885 -2.43539 1.68444 504340 14564.6 566804)
(-48.3063 -5.14653 1.5257 263424 9092.51 670537)
(-44.5027 0.163504 0.664634 506161 14372.1 476984)
(-45.038 0.100255 1.20017 413294 17341.1 454885)
(-45.7536 -0.160361 1.33854 426987 16599.8 451640)
(-46.301 -0.631685 1.32971 449217 15098.2 457247)
(-46.1195 -1.08266 1.25932 476496 14421.5 471989)
(-46.7326 -1.93271 1.16763 506108 13340.6 499361)
(-44.2556 -2.6067 1.04745 481614 9440.08 547334)
(-47.6137 -5.36131 0.95064 252597 4520.43 663009)
(-45.2881 0.137901 0.485489 473803 13335.5 449821)
(-45.7679 0.0543404 0.877164 385783 15864.4 432291)
(-46.3983 -0.215285 0.979105 401709 16051.1 430368)
(-46.8961 -0.696683 0.972476 427494 14816.6 434543)
(-46.6395 -1.16581 0.920539 457768 13018.3 448196)
(-47.1778 -2.0464 0.852286 488358 10257.5 477046)
(-44.5271 -2.75399 0.767822 464563 5898.21 529112)
(-47.7452 -5.55219 0.697814 244116 2430.73 646516)
(-45.4957 0.117946 0.296145 455988 10377.1 433266)
(-45.9256 0.0174868 0.553362 370426 12078.5 416866)
(-46.4817 -0.26033 0.620828 386883 12544.3 416218)
(-46.9314 -0.747822 0.61499 413925 11719.5 420792)
(-46.6201 -1.22721 0.579178 445375 9918.91 434788)
(-47.1128 -2.12342 0.53317 476231 7183.33 464785)
(-44.3798 -2.84865 0.480738 453114 3697.59 518246)
(-47.5438 -5.66897 0.438778 238551 1411.08 634559)
(-45.7536 0.108211 0.173574 446434 6515.98 423980)
(-46.1657 -0.0038076 0.323999 362282 7441.23 407833)
(-46.6827 -0.28877 0.363769 378812 7786.45 408033)
(-47.1059 -0.781389 0.360505 406085 7316.58 413415)
(-46.7598 -1.26854 0.339782 437790 6098.39 428122)
(-47.2179 -2.17556 0.312591 468684 4259.79 458811)
(-44.4204 -2.91324 0.282818 446136 2104.87 512542)
(-47.5326 -5.75003 0.257683 235219 772.287 627614)
(-45.8171 0.102152 0.0513487 442240 2215.95 419809)
(-46.2165 -0.0157751 0.0994284 358740 2504.93 403721)
(-46.7117 -0.303855 0.112306 375255 2622.99 404331)
(-47.1201 -0.798173 0.111053 402499 2469.19 410230)
(-46.759 -1.28849 0.104285 434193 2047.61 425400)
(-47.2009 -2.19953 0.0953985 465074 1413.6 456406)
(-44.3838 -2.94294 0.0864665 442832 691.851 510122)
(-47.4698 -5.78662 0.078536 233648 249.498 624510)
(310850 27291.4 -3.97597 939666 -0.932812 -15.8644)
(252234 -475.855 -6.72506 621249 -1.08933 -11.6016)
(256949 -4249.09 -7.77069 624140 -0.894627 -7.76326)
(270396 -2707.29 -8.1162 654308 -0.644048 -6.33379)
(283483 -309.993 -8.20902 680233 -0.538452 -6.13779)
(294099 4189.82 -8.28659 690697 -0.577545 -6.9348)
(298757 12668.5 -8.40061 620313 -0.709367 -8.92368)
(310939 17257.5 -9.18291 304220 -0.922863 -10.6203)
(574412 -7079.3 -2.39567 787602 -0.553197 -20.1235)
(469258 -5033.52 -4.56637 585356 -0.806708 -19.1632)
(467344 -4266.79 -5.32229 564206 -0.673647 -17.8867)
(489484 -3152.33 -5.53539 568754 -0.399529 -17.4898)
(514181 -1576.69 -5.59306 582130 -0.22338 -17.4427)
(535253 1209.87 -5.70195 595841 -0.132209 -17.7717)
(550182 5696.37 -5.98519 554238 -0.150027 -18.4301)
(612478 8202.04 -7.02739 294084 -0.233824 -18.849)
(567001 7570.65 -2.41945 775607 -0.394263 -17.2525)
(462726 6009.07 -4.65231 574911 -0.628908 -16.5188)
(460423 5159.3 -5.46362 553690 -0.521291 -15.3323)
(482284 3817.89 -5.70202 558075 -0.232005 -14.9265)
(506828 2020.73 -5.75472 571289 -0.0108663 -14.9)
(527737 -1041.13 -5.82833 584861 0.167424 -15.2171)
(542469 -5978.47 -6.04735 543805 0.264956 -15.9466)
(605109 -8081.02 -7.03808 289376 0.274147 -16.7944)
(308479 -26113.1 -2.71788 903525 -0.316441 -17.6444)
(251920 974.187 -5.36835 592826 -0.519854 -17.2093)
(256053 4604.25 -6.39536 595075 -0.410511 -16.1981)
(269214 2992.17 -6.7143 624564 -0.105328 -15.9121)
(282241 510.09 -6.78012 650029 0.13266 -15.9695)
(292738 -4121.92 -6.86869 660137 0.351493 -16.2399)
(297111 -12795.6 -7.0272 591097 0.514707 -16.7672)
(310596 -17198.1 -8.05405 291103 0.669901 -17.426)
(-8.57125 0.829793 0.824631 863348 31001.5 246270)
(-5.58658 0.971351 1.6064 554145 3705.8 195143)
(-2.83959 0.603355 1.85101 556285 -347.481 199572)
(-1.55257 0.0413005 1.94777 584222 864.063 208262)
(-1.2102 -0.252696 2.00388 608368 3656.18 217577)
(0.103553 -0.663494 2.21621 618451 8766.54 228660)
(-0.672206 -0.630822 2.37493 550384 17017.8 237291)
(7.99826 -2.84318 2.93851 249340 21221.3 249446)
(-13.262 0.332351 -0.26096 632454 226.69 474271)
(-12.6555 0.41461 -0.165722 474469 4712.31 398719)
(-11.8392 0.219918 -0.217469 468775 4067.32 398582)
(-11.2837 -0.119043 -0.227886 481002 4400.87 412060)
(-11.1439 -0.220418 -0.17429 499262 8058.89 430128)
(-9.60226 -0.476175 0.0493348 517689 14093 453228)
(-9.74406 -0.209921 0.324474 480891 18953.2 480058)
(-0.629623 -2.29869 0.775291 237400 17122.5 550425)
(-13.5304 0.182159 -0.0950013 515919 11772.4 470133)
(-13.091 0.199751 0.0949341 412527 14611.3 431920)
(-12.4503 0.0801139 0.159544 419062 12980.4 427721)
(-11.8284 -0.146794 0.209215 434345 11815.2 436540)
(-11.5821 -0.135725 0.280988 455751 13351 452915)
(-9.65643 -0.306463 0.456693 481159 15781.9 477636)
(-9.47092 0.0726922 0.637107 455086 14827.1 516134)
(0.344902 -2.13566 0.881825 229050 9187.63 619182)
(-14.9898 0.0832446 -0.13256 457071 15307 434538)
(-14.7904 0.0552089 0.0303689 368039 18190.2 412018)
(-14.4584 -0.0138247 0.106439 381317 17347.8 407609)
(-13.8899 -0.14989 0.15849 402659 15741.7 411864)
(-13.5942 -0.0427991 0.219592 428737 14953.2 425109)
(-11.3829 -0.135638 0.346464 456969 13750.3 450828)
(-10.8316 0.323089 0.466893 432841 9707.72 497292)
(-0.612165 -1.9195 0.612299 218228 4612.4 611885)
(-15.2683 0.0668089 -0.0199367 426029 13995.2 408384)
(-15.0634 0.0225019 0.152608 341569 16487.7 390456)
(-14.7544 -0.026319 0.245721 356935 16623.6 387369)
(-14.126 -0.124823 0.300383 381719 15329.7 390165)
(-13.7552 0.028032 0.347408 410692 13457.6 402246)
(-11.373 -0.0327084 0.425102 439778 10605.6 429314)
(-10.6813 0.449713 0.482977 416156 6129.96 479659)
(-0.237366 -1.85635 0.544886 209818 2509.05 595709)
(-15.7182 0.060859 -0.0142935 409070 10815.5 392456)
(-15.5222 0.0114816 0.112843 326890 12502.4 375691)
(-15.2331 -0.0247819 0.186067 342687 12943.4 373880)
(-14.5665 -0.101212 0.227196 368644 12086.3 377051)
(-14.1415 0.0815782 0.259229 398710 10240.3 389422)
(-11.6422 0.0416164 0.307487 427973 7442.89 417552)
(-10.8391 0.536082 0.339777 404909 3872.89 469163)
(-0.228712 -1.80598 0.372199 204281 1470.46 583948)
(-15.8378 0.063591 0.00861073 400028 6766.16 383533)
(-15.6275 0.0141083 0.0907993 319150 7686.59 367047)
(-15.3261 -0.0164208 0.138148 334959 8021.02 366087)
(-14.6249 -0.0840113 0.16373 361093 7535.49 370051)
(-14.1628 0.112096 0.182164 391360 6292.95 383099)
(-11.5986 0.0799119 0.207038 420604 4418.86 411870)
(-10.7489 0.57776 0.221359 398037 2213.37 463674)
(-0.0456054 -1.79178 0.233097 200955 809.233 577117)
(-15.9482 0.0639052 -0.00136961 396072 2297.21 379527)
(-15.7363 0.0149285 0.0246947 315798 2585.17 363114)
(-15.4316 -0.0123517 0.0403499 331562 2700.29 362568)
(-14.7162 -0.0753256 0.0487798 357641 2541.87 367041)
(-14.2343 0.127222 0.0550451 387869 2112.64 380536)
(-11.6377 0.0993846 0.0632287 417072 1467.09 409600)
(-10.7558 0.598911 0.0685137 394777 728.522 461352)
(-0.0101156 -1.78245 0.0723733 199382 262.019 574062)
(311463 9.25965 -17196 -10.1249 -0.801711 304966)
(299274 8.5064 -12562.3 -8.1765 -0.584684 620910)
(294948 8.44143 -4234.85 -5.65645 -0.400335 692100)
(285874 8.44047 -402.563 -4.07839 -0.260389 684971)
(276776 8.5073 488.879 -2.8553 -0.186636 668247)
(269925 8.54959 399.251 -1.99669 -0.115143 655850)
(265666 8.58752 183.667 -1.45159 -0.0694192 648576)
(263682 8.60397 46.7542 -1.18957 -0.0209414 645316)
(612990 7.07528 -8139.59 -18.4484 -0.08886 294951)
(550964 6.03593 -5542.04 -17.9032 0.00173212 555372)
(537089 5.75969 -1171.63 -16.9171 0.0823191 597952)
(519414 5.65924 1010.71 -16.1975 0.0968487 585681)
(502133 5.64183 1267.36 -15.5829 0.0856102 572961)
(488959 5.63023 843.919 -15.1351 0.0671499 564726)
(480657 5.63248 414.393 -14.8413 0.0405478 559780)
(476756 5.63228 118.433 -14.6878 0.0147826 557427)
(605546 7.08405 8097.52 -16.4148 0.43289 290145)
(543142 6.08415 6039.45 -15.4369 0.432755 544878)
(529397 5.86502 1346.21 -14.3854 0.399815 586909)
(511804 5.80418 -968.976 -13.6786 0.325414 574762)
(494537 5.8085 -1268.48 -13.0525 0.254835 562156)
(481360 5.80956 -856.04 -12.6357 0.178763 553989)
(473054 5.81823 -424.625 -12.3475 0.106426 549081)
(469151 5.82024 -122.174 -12.2151 0.0351176 546745)
(310858 8.07162 17184.6 -17.0885 0.830856 291472)
(297410 7.03286 12782.4 -16.333 0.685332 591413)
(293392 6.86952 4314.94 -15.5704 0.579509 661253)
(284449 6.79963 411.469 -15.0357 0.454414 654431)
(275351 6.81529 -500.208 -14.5105 0.352888 637977)
(268495 6.81844 -411.804 -14.1863 0.243622 625754)
(264235 6.83197 -191.922 -13.9468 0.146231 618586)
(262252 6.83587 -49.553 -13.8384 0.0477204 615378)
)
;
    }
    symmetry
    {
        type            symmetry;
    }
    bottom
    {
        type            calculated;
        value           nonuniform List<symmTensor> 
32
(
(-732228 81259.7 -10439.8 149805 77363.7 -744083)
(-509600 53878.1 -7905.28 48351.8 -9769.59 -239007)
(-429186 35961 -3206.78 5336 2236.08 -137813)
(-392787 28389 -863.855 -8786.49 9900.2 -121542)
(-373855 25674.9 -149.356 -14595.3 11085.8 -119021)
(-363156 24671.6 -17.8875 -17185.6 9267.38 -118283)
(-357088 24233 -10.4936 -18157 6009.79 -117737)
(-354287 24045.9 -5.62243 -18422.7 2070.7 -117401)
(-244169 -5491.75 -4366.97 107483 70389.9 -545891)
(-111270 -10520.3 -2397.7 861.44 5079.31 -117040)
(-72906.9 -15539.2 -315.361 -30356.7 16991.6 -42412.6)
(-61118.3 -17139.5 589.438 -35931.4 18820.9 -34564.6)
(-57694.3 -17038.1 629.826 -37759.9 15547 -34260.2)
(-56928.2 -16605.4 409.567 -39103.2 11345.2 -34629.8)
(-56773.2 -16294.3 205.754 -39874.8 6922.99 -34973.2)
(-56719.5 -16153.1 60.6868 -40172.3 2331.68 -35160)
(-239353 4894.86 4199.23 106556 70287.1 -538030)
(-109348 9913.35 2706.47 -1997.88 5825.08 -116904)
(-71164.5 14610.4 519.16 -32979.9 17498.2 -42855.6)
(-59419.6 15980.9 -431.085 -38346.7 19158.7 -34930.1)
(-56038.8 15753.9 -506.747 -40029.9 15781.1 -34552.1)
(-55300.4 15254.8 -322 -41267.6 11501.3 -34876)
(-55160.2 14910.2 -153.452 -41969.9 7012.69 -35191.9)
(-55112.9 14755.1 -43.299 -42233.4 2360.95 -35365.6)
(-690158 -79408.5 10366.3 151731 77375.8 -712191)
(-475635 -52004.4 8038.82 45019.1 -7552.65 -228898)
(-396361 -34324.2 3261.56 3055.47 3777.02 -129168)
(-360627 -26979.8 893.728 -10172.5 10958.4 -112731)
(-342163 -24415.6 173.854 -15333.4 11822.2 -110047)
(-331737 -23501.1 37.5167 -17455.9 9753.62 -109189)
(-325817 -23111.5 23.1387 -18127.3 6286.4 -108562)
(-323080 -22946.2 9.9569 -18247.4 2160.43 -108185)
)
;
    }
}


// ************************************************************************* //
