/*--------------------------------*- C++ -*----------------------------------*\
| =========                 |                                                 |
| \\      /  F ield         | OpenFOAM: The Open Source CFD Toolbox           |
|  \\    /   O peration     | Version:  v1912                                 |
|   \\  /    A nd           | Website:  www.openfoam.com                      |
|    \\/     M anipulation  |                                                 |
\*---------------------------------------------------------------------------*/
FoamFile
{
    version     2.0;
    format      ascii;
    class       volVectorField;
    location    "0.65/solid";
    object      U;
}
// * * * * * * * * * * * * * * * * * * * * * * * * * * * * * * * * * * * * * //

dimensions      [0 1 -1 0 0 0 0];


internalField   nonuniform List<vector> 
256
(
(2.55637e-08 2.60824e-08 3.03333e-08)
(5.8484e-09 1.59747e-08 2.8292e-08)
(-7.1283e-09 1.54351e-08 2.76556e-08)
(-2.50568e-08 2.41221e-08 2.83896e-08)
(4.64539e-08 2.11533e-08 6.93614e-08)
(1.19043e-08 1.25847e-08 6.62582e-08)
(-1.46264e-08 1.23319e-08 6.49904e-08)
(-4.6696e-08 2.05831e-08 6.54767e-08)
(5.05475e-08 1.63767e-09 9.66015e-08)
(1.28422e-08 -2.15852e-09 9.28502e-08)
(-1.72153e-08 -1.91455e-09 9.12269e-08)
(-5.24013e-08 2.68315e-09 9.16283e-08)
(4.93653e-08 -2.00648e-08 1.19599e-07)
(1.147e-08 -2.19746e-08 1.14891e-07)
(-1.80991e-08 -2.12343e-08 1.13014e-07)
(-5.34466e-08 -1.75818e-08 1.13851e-07)
(4.91275e-08 -4.34883e-08 1.42417e-07)
(1.02329e-08 -4.61949e-08 1.36499e-07)
(-1.97728e-08 -4.49877e-08 1.34404e-07)
(-5.60711e-08 -3.96733e-08 1.36009e-07)
(5.41642e-08 -7.18999e-08 1.67554e-07)
(1.09201e-08 -7.59376e-08 1.60513e-07)
(-2.40642e-08 -7.42693e-08 1.58208e-07)
(-6.46516e-08 -6.67658e-08 1.60516e-07)
(6.7657e-08 -1.14019e-07 1.95484e-07)
(1.43993e-08 -1.16048e-07 1.88506e-07)
(-3.1964e-08 -1.13859e-07 1.85981e-07)
(-8.23882e-08 -1.07378e-07 1.87803e-07)
(8.39836e-08 -1.75073e-07 2.18479e-07)
(1.79667e-08 -1.69859e-07 2.13627e-07)
(-4.09732e-08 -1.66837e-07 2.10896e-07)
(-1.03676e-07 -1.65908e-07 2.10235e-07)
(1.57108e-08 9.03024e-09 1.21676e-08)
(3.39482e-09 9.29983e-10 1.38526e-08)
(-3.90916e-09 7.36798e-10 1.35829e-08)
(-1.4699e-08 7.86167e-09 1.13669e-08)
(2.94205e-08 -8.20933e-10 3.84651e-08)
(7.30275e-09 -7.72011e-09 4.18284e-08)
(-8.23469e-09 -7.69944e-09 4.1089e-08)
(-2.82935e-08 -8.44157e-10 3.63078e-08)
(3.17778e-08 -1.82993e-08 6.27098e-08)
(7.80299e-09 -2.13402e-08 6.65016e-08)
(-9.66327e-09 -2.09406e-08 6.54409e-08)
(-3.16009e-08 -1.69925e-08 5.96038e-08)
(3.01817e-08 -3.80322e-08 8.45451e-08)
(6.51977e-09 -3.96495e-08 8.81386e-08)
(-1.00778e-08 -3.8822e-08 8.68461e-08)
(-3.17092e-08 -3.54393e-08 8.07341e-08)
(2.95848e-08 -5.97514e-08 1.05652e-07)
(5.38949e-09 -6.24126e-08 1.08797e-07)
(-1.13957e-08 -6.11536e-08 1.07306e-07)
(-3.35294e-08 -5.59014e-08 1.01234e-07)
(3.43809e-08 -8.47976e-08 1.27029e-07)
(6.18329e-09 -8.90461e-08 1.29698e-07)
(-1.53876e-08 -8.7354e-08 1.28017e-07)
(-4.14646e-08 -7.96901e-08 1.22035e-07)
(4.86181e-08 -1.18794e-07 1.46767e-07)
(9.96748e-09 -1.20797e-07 1.49196e-07)
(-2.32257e-08 -1.1864e-07 1.47347e-07)
(-5.95566e-08 -1.1231e-07 1.41254e-07)
(6.72395e-08 -1.67457e-07 1.57426e-07)
(1.39737e-08 -1.6009e-07 1.59855e-07)
(-3.23533e-08 -1.57222e-07 1.5793e-07)
(-8.27556e-08 -1.58723e-07 1.51655e-07)
(7.92891e-09 2.53409e-09 6.00784e-09)
(1.15303e-09 -3.35443e-09 8.54639e-09)
(-1.33113e-09 -3.50347e-09 8.36291e-09)
(-6.65471e-09 1.37205e-09 5.48701e-09)
(1.54005e-08 -1.18294e-08 2.43026e-08)
(2.87313e-09 -1.69484e-08 2.91394e-08)
(-2.83311e-09 -1.68957e-08 2.86266e-08)
(-1.34311e-08 -1.19282e-08 2.28515e-08)
(1.63177e-08 -3.01151e-08 4.46835e-08)
(2.87948e-09 -3.24656e-08 5.01792e-08)
(-3.18854e-09 -3.20731e-08 4.94079e-08)
(-1.47484e-08 -2.89747e-08 4.24771e-08)
(1.4641e-08 -4.87462e-08 6.451e-08)
(1.69406e-09 -5.02762e-08 6.99971e-08)
(-3.19555e-09 -4.94913e-08 6.90209e-08)
(-1.42905e-08 -4.6391e-08 6.16829e-08)
(1.41013e-08 -6.77648e-08 8.32402e-08)
(7.09357e-10 -7.05869e-08 8.85073e-08)
(-4.22536e-09 -6.93969e-08 8.73526e-08)
(-1.57418e-08 -6.42038e-08 7.98654e-08)
(1.90462e-08 -8.79418e-08 1.00166e-07)
(1.64152e-09 -9.24575e-08 1.05164e-07)
(-7.9819e-09 -9.08609e-08 1.03847e-07)
(-2.34441e-08 -8.31779e-08 9.62917e-08)
(3.37808e-08 -1.14452e-07 1.12529e-07)
(5.66022e-09 -1.16664e-07 1.17244e-07)
(-1.57278e-08 -1.14639e-07 1.15805e-07)
(-4.16811e-08 -1.08388e-07 1.08256e-07)
(5.31434e-08 -1.5492e-07 1.15313e-07)
(9.94135e-09 -1.47444e-07 1.19788e-07)
(-2.48283e-08 -1.44743e-07 1.18328e-07)
(-6.52855e-08 -1.46675e-07 1.10922e-07)
(4.39833e-09 9.58455e-11 4.78042e-09)
(1.50907e-10 -4.3333e-09 6.52943e-09)
(-1.73183e-10 -4.50348e-09 6.39226e-09)
(-2.96354e-09 -1.18247e-09 4.40065e-09)
(8.89897e-09 -1.61505e-08 1.87965e-08)
(8.01262e-10 -2.01198e-08 2.20867e-08)
(-2.26657e-10 -2.01274e-08 2.1716e-08)
(-6.39888e-09 -1.65036e-08 1.77649e-08)
(9.2656e-09 -3.52364e-08 3.51416e-08)
(6.33885e-10 -3.7198e-08 3.88288e-08)
(1.06679e-11 -3.6889e-08 3.82651e-08)
(-6.75946e-09 -3.44149e-08 3.35482e-08)
(7.90755e-09 -5.31847e-08 5.16751e-08)
(-3.34933e-10 -5.47628e-08 5.52887e-08)
(1.98329e-10 -5.40787e-08 5.45594e-08)
(-6.21872e-09 -5.11869e-08 4.95818e-08)
(7.83549e-09 -6.98995e-08 6.69985e-08)
(-1.0515e-09 -7.29217e-08 7.03961e-08)
(-7.24305e-10 -7.18472e-08 6.95183e-08)
(-7.76483e-09 -6.67242e-08 6.4449e-08)
(1.31745e-08 -8.64028e-08 7.96073e-08)
(8.32057e-11 -9.11579e-08 8.27808e-08)
(-4.35243e-09 -8.96904e-08 8.17727e-08)
(-1.55231e-08 -8.20498e-08 7.66503e-08)
(2.80082e-08 -1.0861e-07 8.71497e-08)
(4.18281e-09 -1.11235e-07 9.01404e-08)
(-1.1888e-08 -1.09349e-07 8.9042e-08)
(-3.35517e-08 -1.02973e-07 8.38879e-08)
(4.70945e-08 -1.45421e-07 8.71206e-08)
(8.49099e-09 -1.38948e-07 9.00998e-08)
(-2.07465e-08 -1.36382e-07 8.89962e-08)
(-5.65945e-08 -1.37584e-07 8.37876e-08)
(3.23673e-09 -7.85127e-10 4.14074e-09)
(-8.31702e-11 -4.51387e-09 5.03092e-09)
(1.42831e-10 -4.70703e-09 4.93181e-09)
(-1.7012e-09 -2.15912e-09 3.87027e-09)
(6.86491e-09 -1.7365e-08 1.49608e-08)
(3.21519e-10 -2.08226e-08 1.65774e-08)
(5.66986e-10 -2.08984e-08 1.63143e-08)
(-4.03101e-09 -1.79545e-08 1.42376e-08)
(7.2858e-09 -3.64885e-08 2.73777e-08)
(2.31363e-10 -3.83512e-08 2.91089e-08)
(1.015e-09 -3.81353e-08 2.87082e-08)
(-4.16591e-09 -3.59759e-08 2.62561e-08)
(6.38194e-09 -5.3804e-08 4.00207e-08)
(-4.8236e-10 -5.55185e-08 4.16116e-08)
(1.25641e-09 -5.49407e-08 4.10874e-08)
(-3.77652e-09 -5.21498e-08 3.85274e-08)
(6.8305e-09 -6.90194e-08 5.15248e-08)
(-9.2345e-10 -7.22359e-08 5.29081e-08)
(3.58396e-10 -7.12755e-08 5.227e-08)
(-5.54468e-09 -6.62044e-08 4.9681e-08)
(1.25134e-08 -8.35162e-08 6.04165e-08)
(3.93069e-10 -8.84572e-08 6.16264e-08)
(-3.17659e-09 -8.71078e-08 6.08891e-08)
(-1.3368e-08 -7.95285e-08 5.82602e-08)
(2.72432e-08 -1.03847e-07 6.5086e-08)
(4.49704e-09 -1.06827e-07 6.62131e-08)
(-1.04704e-08 -1.05056e-07 6.54093e-08)
(-3.10379e-08 -9.85629e-08 6.27002e-08)
(4.58643e-08 -1.39135e-07 6.44718e-08)
(8.75816e-09 -1.33616e-07 6.56976e-08)
(-1.90582e-08 -1.31156e-07 6.48922e-08)
(-5.33825e-08 -1.31617e-07 6.20356e-08)
(2.94906e-09 -1.06411e-09 3.2303e-09)
(-5.76889e-11 -4.50734e-09 3.61977e-09)
(1.62521e-10 -4.717e-09 3.55326e-09)
(-1.35192e-09 -2.50314e-09 3.05039e-09)
(6.51071e-09 -1.73643e-08 1.10145e-08)
(4.12889e-10 -2.0666e-08 1.16677e-08)
(6.6307e-10 -2.07941e-08 1.14924e-08)
(-3.47042e-09 -1.81264e-08 1.05364e-08)
(7.18787e-09 -3.608e-08 1.96931e-08)
(4.78082e-10 -3.79915e-08 2.03201e-08)
(1.14466e-09 -3.78503e-08 2.00528e-08)
(-3.67783e-09 -3.58048e-08 1.89506e-08)
(6.68391e-09 -5.28039e-08 2.8451e-08)
(-1.96753e-11 -5.46715e-08 2.89357e-08)
(1.38531e-09 -5.41798e-08 2.8584e-08)
(-3.47706e-09 -5.14204e-08 2.74554e-08)
(7.52816e-09 -6.71776e-08 3.62917e-08)
(-2.50227e-10 -7.05498e-08 3.66159e-08)
(4.96933e-10 -6.96807e-08 3.61848e-08)
(-5.42205e-09 -6.46462e-08 3.5052e-08)
(1.34314e-08 -8.07999e-08 4.21378e-08)
(1.19477e-09 -8.58621e-08 4.23486e-08)
(-2.95712e-09 -8.46044e-08 4.18481e-08)
(-1.32547e-08 -7.70936e-08 4.06782e-08)
(2.80256e-08 -1.00465e-07 4.50078e-08)
(5.28836e-09 -1.03659e-07 4.51921e-08)
(-1.00496e-08 -1.01975e-07 4.46453e-08)
(-3.05941e-08 -9.54454e-08 4.33867e-08)
(4.62694e-08 -1.35049e-07 4.44593e-08)
(9.50583e-09 -1.30136e-07 4.47423e-08)
(-1.84226e-08 -1.27753e-07 4.41947e-08)
(-5.23845e-08 -1.27766e-07 4.28027e-08)
(2.89896e-09 -1.11941e-09 2.04541e-09)
(-3.681e-14 -4.45348e-09 2.19949e-09)
(1.2872e-10 -4.67359e-09 2.16136e-09)
(-1.26662e-09 -2.59858e-09 1.9428e-09)
(6.55976e-09 -1.7039e-08 6.74942e-09)
(5.72638e-10 -2.03191e-08 6.97799e-09)
(6.09236e-10 -2.0481e-08 6.87761e-09)
(-3.39986e-09 -1.791e-08 6.47726e-09)
(7.46079e-09 -3.53013e-08 1.18715e-08)
(7.64678e-10 -3.72906e-08 1.20484e-08)
(1.07781e-09 -3.71989e-08 1.18952e-08)
(-3.72024e-09 -3.51809e-08 1.14483e-08)
(7.22677e-09 -5.15763e-08 1.69808e-08)
(4.11378e-10 -5.3562e-08 1.70599e-08)
(1.30871e-09 -5.31285e-08 1.68579e-08)
(-3.65706e-09 -5.0373e-08 1.64112e-08)
(8.31497e-09 -6.55221e-08 2.15012e-08)
(3.13188e-10 -6.89973e-08 2.14834e-08)
(4.30759e-10 -6.81897e-08 2.12348e-08)
(-5.7041e-09 -6.31806e-08 2.07886e-08)
(1.43396e-08 -7.8826e-08 2.48111e-08)
(1.8365e-09 -8.39554e-08 2.47321e-08)
(-2.96183e-09 -8.27588e-08 2.44425e-08)
(-1.3518e-08 -7.53073e-08 2.39682e-08)
(2.88346e-08 -9.82978e-08 2.63894e-08)
(5.92409e-09 -1.01597e-07 2.6306e-08)
(-9.91907e-09 -9.99703e-08 2.59889e-08)
(-3.06271e-08 -9.34532e-08 2.54504e-08)
(4.68335e-08 -1.32537e-07 2.60469e-08)
(1.01147e-08 -1.2794e-07 2.6026e-08)
(-1.815e-08 -1.25607e-07 2.57084e-08)
(-5.20541e-08 -1.25407e-07 2.50865e-08)
(2.89413e-09 -1.11497e-09 6.99053e-10)
(3.14641e-11 -4.41127e-09 7.39701e-10)
(1.07453e-10 -4.63645e-09 7.2729e-10)
(-1.24577e-09 -2.61333e-09 6.65734e-10)
(6.62091e-09 -1.67965e-08 2.27296e-09)
(6.60165e-10 -2.00834e-08 2.32717e-09)
(5.69477e-10 -2.02615e-08 2.29451e-09)
(-3.40609e-09 -1.77199e-08 2.18464e-09)
(7.63776e-09 -3.47877e-08 3.96522e-09)
(9.16937e-10 -3.68254e-08 3.99745e-09)
(1.02681e-09 -3.6758e-08 3.94759e-09)
(-3.79007e-09 -3.47428e-08 3.82779e-09)
(7.53444e-09 -5.08255e-08 5.64119e-09)
(6.33589e-10 -5.28729e-08 5.63942e-09)
(1.25239e-09 -5.24682e-08 5.57355e-09)
(-3.79403e-09 -4.9711e-08 5.4559e-09)
(8.73579e-09 -6.45931e-08 7.11489e-09)
(5.97824e-10 -6.81182e-08 7.08115e-09)
(3.81881e-10 -6.73412e-08 6.99999e-09)
(-5.88476e-09 -6.23459e-08 6.88264e-09)
(1.48137e-08 -7.78026e-08 8.18607e-09)
(2.15799e-09 -8.29609e-08 8.13328e-09)
(-2.97792e-09 -8.17947e-08 8.03855e-09)
(-1.36823e-08 -7.43773e-08 7.91067e-09)
(2.92594e-08 -9.72319e-08 8.69165e-09)
(6.24395e-09 -1.00572e-07 8.63905e-09)
(-9.8685e-09 -9.89733e-08 8.53521e-09)
(-3.06764e-08 -9.24742e-08 8.38433e-09)
(4.71395e-08 -1.31328e-07 8.5768e-09)
(1.04223e-08 -1.26859e-07 8.54492e-09)
(-1.80294e-08 -1.24552e-07 8.44088e-09)
(-5.19253e-08 -1.24272e-07 8.26226e-09)
)
;

boundaryField
{
    interface
    {
        type            calculated;
        value           nonuniform List<vector> 
192
(
(2.929e-08 4.40869e-08 2.73897e-08)
(5.00978e-08 2.73992e-08 6.42014e-08)
(5.4416e-08 2.36541e-09 9.09706e-08)
(5.36111e-08 -2.04199e-08 1.13989e-07)
(5.34307e-08 -4.22886e-08 1.3689e-07)
(5.786e-08 -6.72675e-08 1.62133e-07)
(7.07867e-08 -1.06564e-07 1.90301e-07)
(8.93622e-08 -1.705e-07 2.13707e-07)
(1.58207e-08 2.03131e-08 7.75898e-09)
(2.97497e-08 3.19575e-09 3.07019e-08)
(3.20586e-08 -1.81091e-08 5.41524e-08)
(3.0443e-08 -3.85806e-08 7.58641e-08)
(2.96044e-08 -5.87017e-08 9.68959e-08)
(3.36629e-08 -8.00393e-08 1.1825e-07)
(4.76462e-08 -1.10579e-07 1.38298e-07)
(7.04511e-08 -1.62477e-07 1.49716e-07)
(6.6804e-09 8.36644e-09 3.1798e-09)
(1.49612e-08 -9.73231e-09 1.91724e-08)
(1.59557e-08 -3.03051e-08 3.90556e-08)
(1.42815e-08 -4.93004e-08 5.89415e-08)
(1.362e-08 -6.66636e-08 7.7803e-08)
(1.81491e-08 -8.3022e-08 9.48645e-08)
(3.31497e-08 -1.05928e-07 1.07376e-07)
(5.70417e-08 -1.49712e-07 1.10277e-07)
(2.61871e-09 3.42017e-09 3.60743e-09)
(8.32144e-09 -1.49338e-08 1.66627e-08)
(8.89489e-09 -3.54844e-08 3.28837e-08)
(7.6249e-09 -5.35424e-08 4.96105e-08)
(7.57449e-09 -6.85829e-08 6.51809e-08)
(1.2761e-08 -8.13597e-08 7.79742e-08)
(2.82187e-08 -1.0013e-07 8.55154e-08)
(5.1794e-08 -1.40137e-07 8.53008e-08)
(1.15129e-09 1.74028e-09 3.77847e-09)
(6.06368e-09 -1.63528e-08 1.43638e-08)
(6.76477e-09 -3.66093e-08 2.68584e-08)
(6.02963e-09 -5.39179e-08 3.97148e-08)
(6.61216e-09 -6.74866e-08 5.1448e-08)
(1.23076e-08 -7.84131e-08 6.04808e-08)
(2.78539e-08 -9.55092e-08 6.50904e-08)
(5.08396e-08 -1.33848e-07 6.42655e-08)
(7.3019e-10 1.30083e-09 3.14588e-09)
(5.56744e-09 -1.63047e-08 1.09382e-08)
(6.56601e-09 -3.60368e-08 1.97369e-08)
(6.29244e-09 -5.27189e-08 2.86622e-08)
(7.35039e-09 -6.54908e-08 3.66629e-08)
(1.33656e-08 -7.56757e-08 4.25944e-08)
(2.88739e-08 -9.22554e-08 4.54056e-08)
(5.13559e-08 -1.29787e-07 4.47016e-08)
(6.42405e-10 1.24527e-09 2.0317e-09)
(5.56112e-09 -1.58986e-08 6.777e-09)
(6.80704e-09 -3.51346e-08 1.1984e-08)
(6.84338e-09 -5.13629e-08 1.71934e-08)
(8.19489e-09 -6.3744e-08 2.18031e-08)
(1.43871e-08 -7.36962e-08 2.51567e-08)
(2.98437e-08 -9.01744e-08 2.66979e-08)
(5.19906e-08 -1.27304e-07 2.62645e-08)
(6.33471e-10 1.26379e-09 6.97849e-10)
(5.60845e-09 -1.56107e-08 2.28826e-09)
(6.98114e-09 -3.45595e-08 4.00947e-09)
(7.16748e-09 -5.05511e-08 5.71812e-09)
(8.65558e-09 -6.27734e-08 7.2201e-09)
(1.49259e-08 -7.26718e-08 8.3046e-09)
(3.03525e-08 -8.91505e-08 8.79787e-09)
(5.23354e-08 -1.26112e-07 8.65332e-09)
(2.65249e-08 5.10061e-08 3.06676e-08)
(4.82577e-08 3.77204e-08 6.91509e-08)
(5.24248e-08 1.41971e-08 9.66054e-08)
(5.09928e-08 -8.61079e-09 1.20087e-07)
(5.04115e-08 -3.14994e-08 1.42998e-07)
(5.51141e-08 -5.8633e-08 1.67335e-07)
(6.8504e-08 -1.01287e-07 1.94161e-07)
(8.5157e-08 -1.68677e-07 2.18671e-07)
(5.17868e-09 3.96122e-08 2.63806e-08)
(1.08111e-08 2.87243e-08 6.31311e-08)
(1.14981e-08 9.99978e-09 8.91664e-08)
(9.82341e-09 -1.10622e-08 1.11008e-07)
(8.22939e-09 -3.47894e-08 1.3212e-07)
(8.58332e-09 -6.29357e-08 1.54813e-07)
(1.20232e-08 -1.02769e-07 1.81671e-07)
(1.60707e-08 -1.63114e-07 2.10469e-07)
(-7.10426e-09 3.85966e-08 2.48567e-08)
(-1.48223e-08 2.82248e-08 6.11332e-08)
(-1.75213e-08 1.00914e-08 8.68001e-08)
(-1.83596e-08 -1.04398e-08 1.08352e-07)
(-1.98957e-08 -3.36891e-08 1.29215e-07)
(-2.40637e-08 -6.13751e-08 1.51671e-07)
(-3.21402e-08 -1.00687e-07 1.78279e-07)
(-4.18215e-08 -1.60134e-07 2.0679e-07)
(-2.65392e-08 4.75887e-08 2.60281e-08)
(-4.96023e-08 3.63929e-08 6.28589e-08)
(-5.57355e-08 1.47768e-08 8.91376e-08)
(-5.67916e-08 -6.48644e-09 1.11737e-07)
(-5.92941e-08 -2.80068e-08 1.33903e-07)
(-6.77476e-08 -5.38173e-08 1.57543e-07)
(-8.55868e-08 -9.49484e-08 1.83673e-07)
(-1.07383e-07 -1.59629e-07 2.07514e-07)
(-2.29488e-08 4.20602e-08 2.50587e-08)
(-4.45099e-08 2.74193e-08 5.94225e-08)
(-5.03209e-08 4.37097e-09 8.47606e-08)
(-5.15886e-08 -1.66641e-08 1.06743e-07)
(-5.41129e-08 -3.68718e-08 1.28762e-07)
(-6.19055e-08 -6.01863e-08 1.53171e-07)
(-7.87615e-08 -9.76218e-08 1.80495e-07)
(-1.01623e-07 -1.58657e-07 2.03151e-07)
(-9.46933e-09 1.86098e-08 6.76634e-09)
(-2.33837e-08 3.38137e-09 2.79914e-08)
(-2.658e-08 -1.61385e-08 5.01903e-08)
(-2.65497e-08 -3.4957e-08 7.09448e-08)
(-2.79929e-08 -5.34623e-08 9.1151e-08)
(-3.50279e-08 -7.3183e-08 1.11733e-07)
(-5.25604e-08 -1.01987e-07 1.31077e-07)
(-7.91574e-08 -1.51239e-07 1.42057e-07)
(-2.75416e-10 6.39348e-09 2.553e-09)
(-7.98342e-09 -9.90474e-09 1.73776e-08)
(-9.32933e-09 -2.87597e-08 3.62664e-08)
(-8.7681e-09 -4.61425e-08 5.531e-08)
(-9.96763e-09 -6.19152e-08 7.34239e-08)
(-1.7082e-08 -7.66928e-08 8.98061e-08)
(-3.52641e-08 -9.79279e-08 1.01755e-07)
(-6.26162e-08 -1.39128e-07 1.04381e-07)
(3.86182e-09 1.15813e-09 3.16217e-09)
(-9.10684e-10 -1.55546e-08 1.54147e-08)
(-1.43575e-09 -3.44598e-08 3.09023e-08)
(-8.89907e-10 -5.09354e-08 4.69531e-08)
(-2.32253e-09 -6.43979e-08 6.18995e-08)
(-9.74645e-09 -7.56028e-08 7.41311e-08)
(-2.80528e-08 -9.27047e-08 8.12269e-08)
(-5.48138e-08 -1.30103e-07 8.08117e-08)
(5.38337e-09 -7.26069e-10 3.46728e-09)
(1.62899e-09 -1.73383e-08 1.35053e-08)
(1.24792e-09 -3.60394e-08 2.54855e-08)
(1.55774e-09 -5.1805e-08 3.78418e-08)
(-2.09021e-10 -6.38063e-08 4.90952e-08)
(-7.85056e-09 -7.31549e-08 5.7693e-08)
(-2.59791e-08 -8.8559e-08 6.19607e-08)
(-5.19222e-08 -1.24245e-07 6.09831e-08)
(5.83769e-09 -1.29756e-09 2.94169e-09)
(2.29932e-09 -1.75449e-08 1.03785e-08)
(1.80205e-09 -3.5803e-08 1.8839e-08)
(1.86653e-09 -5.09842e-08 2.74255e-08)
(-1.60654e-10 -6.22015e-08 3.50917e-08)
(-7.90506e-09 -7.08002e-08 4.07156e-08)
(-2.5795e-08 -8.56627e-08 4.3284e-08)
(-5.10609e-08 -1.20503e-07 4.24706e-08)
(5.94499e-09 -1.43197e-09 1.91623e-09)
(2.40723e-09 -1.72966e-08 6.46111e-09)
(1.77278e-09 -3.51164e-08 1.14763e-08)
(1.66024e-09 -4.98768e-08 1.64904e-08)
(-5.1567e-10 -6.07151e-08 2.09043e-08)
(-8.29457e-09 -6.90762e-08 2.40751e-08)
(-2.59995e-08 -8.38189e-08 2.5471e-08)
(-5.08142e-08 -1.1823e-07 2.49716e-08)
(5.96289e-09 -1.45037e-09 6.60512e-10)
(2.40696e-09 -1.70838e-08 2.18618e-09)
(1.69763e-09 -3.46457e-08 3.84523e-09)
(1.49867e-09 -4.91871e-08 5.49012e-09)
(-7.39785e-10 -5.98735e-08 6.92779e-09)
(-8.52757e-09 -6.81791e-08 7.95172e-09)
(-2.6137e-08 -8.29131e-08 8.39665e-09)
(-5.07298e-08 -1.17142e-07 8.23004e-09)
(8.49668e-08 -1.75362e-07 2.19773e-07)
(6.78874e-08 -1.66297e-07 1.52388e-07)
(5.38785e-08 -1.54985e-07 1.09804e-07)
(4.81178e-08 -1.46522e-07 8.31743e-08)
(4.7128e-08 -1.4057e-07 6.1879e-08)
(4.76718e-08 -1.36589e-07 4.28099e-08)
(4.83004e-08 -1.34134e-07 2.51164e-08)
(4.86299e-08 -1.32956e-07 8.27431e-09)
(1.59075e-08 -1.66793e-07 2.14558e-07)
(1.1415e-08 -1.53415e-07 1.54251e-07)
(7.39693e-09 -1.42018e-07 1.14502e-07)
(6.2312e-09 -1.35032e-07 8.66427e-08)
(6.76326e-09 -1.30456e-07 6.34946e-08)
(7.68143e-09 -1.27356e-07 4.33232e-08)
(8.38187e-09 -1.25364e-07 2.52069e-08)
(8.72807e-09 -1.24376e-07 8.27486e-09)
(-4.1961e-08 -1.6281e-07 2.11843e-07)
(-3.26954e-08 -1.49657e-07 1.52406e-07)
(-2.5021e-08 -1.3844e-07 1.13118e-07)
(-2.10878e-08 -1.31596e-07 8.55995e-08)
(-1.95583e-08 -1.27127e-07 6.27348e-08)
(-1.90155e-08 -1.24104e-07 4.28074e-08)
(-1.87837e-08 -1.22161e-07 2.49081e-08)
(-1.86766e-08 -1.21198e-07 8.17704e-09)
(-1.07534e-07 -1.63248e-07 2.11578e-07)
(-8.61227e-08 -1.54687e-07 1.46847e-07)
(-6.85765e-08 -1.43868e-07 1.05637e-07)
(-6.00354e-08 -1.35815e-07 8.00232e-08)
(-5.6954e-08 -1.3018e-07 5.9581e-08)
(-5.60132e-08 -1.26425e-07 4.12501e-08)
(-5.56933e-08 -1.24116e-07 2.42132e-08)
(-5.55611e-08 -1.2301e-07 7.97867e-09)
)
;
    }
    symmetry
    {
        type            symmetry;
    }
    bottom
    {
        type            calculated;
        value           uniform (0 0 0);
    }
}


// ************************************************************************* //
