/*--------------------------------*- C++ -*----------------------------------*\
| =========                 |                                                 |
| \\      /  F ield         | OpenFOAM: The Open Source CFD Toolbox           |
|  \\    /   O peration     | Version:  v1912                                 |
|   \\  /    A nd           | Website:  www.openfoam.com                      |
|    \\/     M anipulation  |                                                 |
\*---------------------------------------------------------------------------*/
FoamFile
{
    version     2.0;
    format      ascii;
    class       surfaceScalarField;
    location    "0.18/fluid";
    object      meshPhi;
}
// * * * * * * * * * * * * * * * * * * * * * * * * * * * * * * * * * * * * * //

dimensions      [0 3 -1 0 0 0 0];
oriented        oriented;


internalField   nonuniform List<scalar> 
41600
(
2.38275e-13
-1.11199e-12
4.21427e-13
-4.33655e-13
4.47187e-13
-3.23972e-12
1.23744e-12
-1.27386e-12
6.2817e-13
-5.21825e-12
2.02533e-12
-2.08662e-12
7.81769e-13
-7.12717e-12
2.83441e-12
-2.92326e-12
9.08645e-13
-9.02468e-12
3.70867e-12
-3.8293e-12
1.00913e-12
-1.09361e-11
4.68407e-12
-4.84219e-12
1.08339e-12
-1.28524e-11
5.78968e-12
-5.99292e-12
1.13071e-12
-1.47334e-11
7.05201e-12
-7.31074e-12
1.15026e-12
-1.65028e-11
8.49749e-12
-8.82553e-12
1.14737e-12
-1.80211e-11
1.01507e-11
-1.05678e-11
1.14984e-12
-1.90245e-11
1.20298e-11
-1.25669e-11
1.2602e-12
-1.89922e-11
1.41465e-11
-1.48584e-11
1.72544e-12
-1.68972e-11
1.65314e-11
-1.75322e-11
3.04625e-12
-1.07882e-11
1.92871e-11
-2.08411e-11
5.74318e-12
1.67409e-12
2.246e-11
-2.50558e-11
2.52682e-11
2.94528e-11
-3.65992e-11
7.14502e-13
-2.19709e-12
1.25604e-12
-1.29248e-12
1.34128e-12
-6.40282e-12
3.6878e-12
-3.79657e-12
1.88551e-12
-1.03174e-11
6.03516e-12
-6.21846e-12
2.35037e-12
-1.40947e-11
8.44358e-12
-8.70916e-12
2.73856e-12
-1.78464e-11
1.10417e-11
-1.14015e-11
3.0521e-12
-2.16301e-11
1.39369e-11
-1.44075e-11
3.29233e-12
-2.54461e-11
1.72187e-11
-1.78229e-11
3.45873e-12
-2.92364e-11
2.0968e-11
-2.17364e-11
3.5509e-12
-3.28755e-11
2.52612e-11
-2.62347e-11
3.58194e-12
-3.61373e-11
3.0164e-11
-3.13993e-11
3.62377e-12
-3.86192e-11
3.5712e-11
-3.72938e-11
3.93223e-12
-3.96156e-11
4.18948e-11
-4.39644e-11
5.09211e-12
-3.80118e-11
4.86772e-11
-5.15005e-11
8.22396e-12
-3.24196e-11
5.60452e-11
-6.01616e-11
1.42969e-11
-2.26075e-11
6.37102e-11
-6.99007e-11
-1.09779e-11
7.16375e-11
-8.21888e-11
1.1903e-12
-3.22048e-12
2.06424e-12
-2.12414e-12
2.23591e-12
-9.38867e-12
6.06022e-12
-6.23932e-12
3.14811e-12
-1.51369e-11
9.91587e-12
-1.02178e-11
3.93597e-12
-2.06878e-11
1.38662e-11
-1.4303e-11
4.60677e-12
-2.62059e-11
1.81176e-11
-1.87079e-11
5.16729e-12
-3.17913e-11
2.28469e-11
-2.36175e-11
5.62376e-12
-3.74733e-11
2.82072e-11
-2.91956e-11
5.98134e-12
-4.32055e-11
3.4336e-11
-3.55922e-11
6.24589e-12
-4.88567e-11
4.13571e-11
-4.29472e-11
6.43272e-12
-5.41845e-11
4.93673e-11
-5.13789e-11
6.63284e-12
-5.87691e-11
5.83991e-11
-6.09551e-11
7.13683e-12
-6.19276e-11
6.83723e-11
-7.16594e-11
8.55709e-12
-6.27354e-11
7.90582e-11
-8.3382e-11
1.20156e-11
-6.03551e-11
9.00256e-11
-9.58989e-11
1.8321e-11
-5.5174e-11
1.0034e-10
-1.08237e-10
-4.86789e-11
1.10349e-10
-1.22894e-10
1.6651e-12
-4.14435e-12
2.82597e-12
-2.90801e-12
3.13108e-12
-1.20867e-11
8.29595e-12
-8.54131e-12
4.4186e-12
-1.94984e-11
1.35709e-11
-1.39841e-11
5.54554e-12
-2.66671e-11
1.89663e-11
-1.95626e-11
6.52816e-12
-3.38106e-11
2.47575e-11
-2.55621e-11
7.383e-12
-4.10778e-11
3.11864e-11
-3.22361e-11
8.12809e-12
-4.85438e-11
3.84686e-11
-3.98148e-11
8.78404e-12
-5.62025e-11
4.68e-11
-4.8511e-11
9.37098e-12
-6.39603e-11
5.63546e-11
-5.85184e-11
9.91558e-12
-7.16169e-11
6.72632e-11
-6.99931e-11
1.0508e-11
-7.88091e-11
7.95647e-11
-8.30119e-11
1.13697e-11
-8.49453e-11
9.31365e-11
-9.75119e-11
1.28996e-11
-8.91921e-11
1.07592e-10
-1.13203e-10
1.58143e-11
-9.06282e-11
1.2211e-10
-1.2941e-10
2.06591e-11
-8.89632e-11
1.35115e-10
-1.44412e-10
-8.446e-11
1.46076e-10
-1.59767e-10
2.13586e-12
-4.93174e-12
3.52227e-12
-3.62469e-12
4.02158e-12
-1.43884e-11
1.03393e-11
-1.06452e-11
5.68993e-12
-2.32266e-11
1.69083e-11
-1.74224e-11
7.17039e-12
-3.1794e-11
2.36141e-11
-2.43544e-11
8.49247e-12
-4.03603e-11
3.07906e-11
-3.17879e-11
9.68807e-12
-4.91269e-11
3.87354e-11
-4.00364e-11
1.07956e-11
-5.8224e-11
4.77217e-11
-4.9391e-11
1.18623e-11
-6.77049e-11
5.80034e-11
-6.01255e-11
1.29383e-11
-7.75453e-11
6.98083e-11
-7.24901e-11
1.40902e-11
-8.76313e-11
8.33137e-11
-8.66914e-11
1.54241e-11
-9.77234e-11
9.86012e-11
-1.02854e-10
1.70944e-11
-1.07391e-10
1.15586e-10
-1.20954e-10
1.92442e-11
-1.15886e-10
1.33849e-10
-1.40662e-10
2.20099e-11
-1.21952e-10
1.52306e-10
-1.61019e-10
2.53721e-11
-1.23977e-10
1.68656e-10
-1.79504e-10
-1.20409e-10
1.813e-10
-1.96513e-10
2.59642e-12
-5.54936e-12
4.13795e-12
-4.2585e-12
4.89544e-12
-1.61961e-11
1.2145e-11
-1.25046e-11
6.94332e-12
-2.61625e-11
1.98529e-11
-2.04556e-11
8.78336e-12
-3.58491e-11
2.77022e-11
-2.8568e-11
1.04606e-11
-4.55734e-11
3.60724e-11
-3.72375e-11
1.20267e-11
-5.55858e-11
4.53046e-11
-4.68243e-11
1.3547e-11
-6.60722e-11
5.57198e-11
-5.767e-11
1.5105e-11
-7.71519e-11
6.76236e-11
-7.01023e-11
1.68019e-11
-8.88827e-11
8.12962e-11
-8.44265e-11
1.87766e-11
-1.01268e-10
9.69729e-11
-1.00913e-10
2.12199e-11
-1.14254e-10
1.14822e-10
-1.19783e-10
2.43618e-11
-1.27699e-10
1.34896e-10
-1.4117e-10
2.83423e-11
-1.41245e-10
1.56953e-10
-1.64951e-10
3.30348e-11
-1.53941e-10
1.80002e-10
-1.90312e-10
3.75909e-11
-1.63514e-10
2.01303e-10
-2.14269e-10
-1.62862e-10
2.18046e-10
-2.35865e-10
3.03748e-12
-5.9689e-12
4.66228e-12
-4.79828e-12
5.73391e-12
-1.74268e-11
1.36809e-11
-1.4086e-11
8.14927e-12
-2.81712e-11
2.23501e-11
-2.30277e-11
1.03407e-11
-3.86443e-11
3.11513e-11
-3.21227e-11
1.23687e-11
-4.92027e-11
4.04948e-11
-4.18004e-11
1.43055e-11
-6.0138e-11
5.07503e-11
-5.2452e-11
1.62448e-11
-7.1682e-11
6.22716e-11
-6.44539e-11
1.83082e-11
-8.40099e-11
7.54016e-11
-7.81719e-11
2.0657e-11
-9.72542e-11
9.04611e-11
-9.39544e-11
2.35219e-11
-1.11528e-10
1.07738e-10
-1.12132e-10
2.72407e-11
-1.26963e-10
1.27497e-10
-1.33037e-10
3.22876e-11
-1.43759e-10
1.49977e-10
-1.57022e-10
3.92176e-11
-1.62209e-10
1.75281e-10
-1.84375e-10
4.85362e-11
-1.82603e-10
2.02966e-10
-2.14987e-10
5.93393e-11
-2.03987e-10
2.30592e-10
-2.46345e-10
-2.26328e-10
2.54605e-10
-2.79331e-10
3.44768e-12
5.08871e-12
-5.2373e-12
-6.16831e-12
6.51426e-12
1.49276e-11
-1.53697e-11
-1.80171e-11
9.27214e-12
2.43675e-11
-2.51056e-11
-2.91505e-11
1.179e-11
3.39148e-11
-3.4971e-11
-4.0038e-11
1.41413e-11
4.3995e-11
-4.54123e-11
-5.10621e-11
1.64147e-11
5.49897e-11
-5.68342e-11
-6.25405e-11
1.87262e-11
6.72669e-11
-6.96277e-11
-7.47353e-11
2.12267e-11
8.11853e-11
-8.41742e-11
-8.78575e-11
2.41219e-11
9.70807e-11
-1.00838e-10
-1.02083e-10
2.7712e-11
1.1526e-10
-1.19975e-10
-1.17584e-10
3.24507e-11
1.3603e-10
-1.41971e-10
-1.34573e-10
3.90198e-11
1.5973e-10
-1.67306e-10
-1.53375e-10
4.83856e-11
1.86699e-10
-1.96555e-10
-1.74495e-10
6.18209e-11
2.16996e-10
-2.30259e-10
-1.98632e-10
7.86556e-11
2.48609e-10
-2.6657e-10
-2.24977e-10
2.80651e-10
-3.1488e-10
-2.62718e-10
2.17771e-13
-1.13535e-12
3.92577e-13
4.06169e-13
-3.30837e-12
1.15264e-12
5.64274e-13
-5.33057e-12
1.88613e-12
6.89819e-13
-7.28405e-12
2.63814e-12
7.79677e-13
-9.23019e-12
3.44847e-12
8.29527e-13
-1.11982e-11
4.34976e-12
8.32588e-13
-1.31829e-11
5.36814e-12
7.76691e-13
-1.51507e-11
6.52625e-12
6.4107e-13
-1.7039e-11
7.84444e-12
3.96174e-13
-1.87381e-11
9.33646e-12
1.13725e-14
-2.00446e-11
1.09969e-11
-5.35991e-13
-2.0577e-11
1.27852e-11
-1.27655e-12
-1.96427e-11
1.46031e-11
-2.29587e-12
-1.60809e-11
1.62341e-11
-3.69512e-12
-8.78922e-12
1.72168e-11
1.74604e-12
1.60604e-11
6.54013e-13
-2.24332e-12
1.16998e-12
1.22064e-12
-6.53797e-12
3.43469e-12
1.69812e-12
-1.05371e-11
5.61927e-12
2.08129e-12
-1.44008e-11
7.85716e-12
2.36231e-12
-1.82474e-11
1.02654e-11
2.52987e-12
-2.21409e-11
1.29413e-11
2.56567e-12
-2.60873e-11
1.59647e-11
2.43725e-12
-3.00388e-11
1.94047e-11
2.08946e-12
-3.38929e-11
2.33206e-11
1.44605e-12
-3.74684e-11
2.77483e-11
4.30857e-13
-4.04522e-11
3.26629e-11
-9.94549e-13
-4.2327e-11
3.79294e-11
-2.83052e-12
-4.23608e-11
4.32254e-11
-5.02823e-12
-3.98469e-11
4.78789e-11
-7.37284e-12
-3.50987e-11
5.06757e-11
-3.21552e-11
4.73332e-11
1.09313e-12
-3.28835e-12
1.9228e-12
2.04289e-12
-9.58644e-12
5.64392e-12
2.84955e-12
-1.54572e-11
9.23115e-12
3.50907e-12
-2.1133e-11
1.2901e-11
4.01314e-12
-2.67877e-11
1.68419e-11
4.34837e-12
-3.2528e-11
2.12139e-11
4.49187e-12
-3.83893e-11
2.61525e-11
4.40228e-12
-4.43363e-11
3.17755e-11
4.00859e-12
-5.02614e-11
3.81808e-11
3.21074e-12
-5.59673e-11
4.54213e-11
1.9096e-12
-6.11225e-11
5.34499e-11
5.36107e-14
-6.52217e-11
6.20411e-11
-2.32502e-12
-6.76676e-11
7.06623e-11
-4.95111e-12
-6.81312e-11
7.82618e-11
-7.10955e-12
-6.72719e-11
8.31837e-11
-6.75164e-11
8.17728e-11
1.53695e-12
-4.23146e-12
2.63253e-12
2.87746e-12
-1.23403e-11
7.72633e-12
4.028e-12
-1.99087e-11
1.26337e-11
4.99037e-12
-2.72362e-11
1.76458e-11
5.76183e-12
-3.45506e-11
2.30145e-11
6.33468e-12
-4.20074e-11
2.89576e-11
6.69267e-12
-4.9686e-11
3.56659e-11
6.80247e-12
-5.75886e-11
4.33082e-11
6.60101e-12
-6.56388e-11
5.2024e-11
5.9907e-12
-7.36701e-11
6.18891e-11
4.86042e-12
-8.13866e-11
7.28539e-11
3.08821e-12
-8.83273e-11
8.4647e-11
5.42216e-13
-9.39022e-11
9.6605e-11
-2.73859e-12
-9.75945e-11
1.0741e-10
-6.09147e-12
-9.943e-11
1.15014e-10
-1.01095e-10
1.15458e-10
1.98421e-12
-5.03482e-12
3.28164e-12
3.72241e-12
-1.46885e-11
9.63051e-12
5.23128e-12
-2.3712e-11
1.57423e-11
6.52303e-12
-3.24656e-11
2.19721e-11
7.60674e-12
-4.1229e-11
2.86248e-11
8.48899e-12
-5.02086e-11
3.5968e-11
9.17298e-12
-5.95365e-11
4.42436e-11
9.65248e-12
-6.92687e-11
5.36713e-11
9.89891e-12
-7.93877e-11
6.44347e-11
9.85574e-12
-8.97957e-11
7.66453e-11
9.43075e-12
-1.00284e-10
9.02823e-11
8.43685e-12
-1.10481e-10
1.05091e-10
6.48919e-12
-1.19768e-10
1.20369e-10
3.04652e-12
-1.27157e-10
1.34607e-10
-1.81413e-12
-1.31423e-10
1.45268e-10
-1.3346e-10
1.47809e-10
2.4295e-12
-5.66445e-12
3.85603e-12
4.56705e-12
-1.65311e-11
1.13145e-11
6.44244e-12
-2.6704e-11
1.84867e-11
8.08175e-12
-3.65966e-11
2.5779e-11
9.51025e-12
-4.65353e-11
3.35375e-11
1.07557e-11
-5.67742e-11
4.20685e-11
1.18511e-11
-6.74977e-11
5.16564e-11
1.28329e-11
-7.88214e-11
6.2566e-11
1.37337e-11
-9.0799e-11
7.5024e-11
1.45819e-11
-1.03428e-10
8.91856e-11
1.53825e-11
-1.16644e-10
1.05087e-10
1.60319e-11
-1.30282e-10
1.22555e-10
1.61233e-11
-1.43963e-10
1.40959e-10
1.47313e-11
-1.5675e-10
1.58741e-10
1.08857e-11
-1.666e-10
1.72921e-10
-1.69032e-10
1.78374e-10
2.86328e-12
-6.09157e-12
4.3455e-12
5.39206e-12
-1.7784e-11
1.27476e-11
7.63065e-12
-2.87481e-11
2.08149e-11
9.62011e-12
-3.94389e-11
2.89913e-11
1.14034e-11
-5.02212e-11
3.76504e-11
1.3032e-11
-6.13882e-11
4.71244e-11
1.45725e-11
-7.31672e-11
5.77272e-11
1.61096e-11
-8.57246e-11
6.97558e-11
1.77496e-11
-9.91786e-11
8.34695e-11
1.96342e-11
-1.13618e-10
9.90608e-11
2.19436e-11
-1.29124e-10
1.16626e-10
2.48571e-11
-1.45803e-10
1.36092e-10
2.8419e-11
-1.63778e-10
1.56977e-10
3.22806e-11
-1.83027e-10
1.77825e-10
3.52187e-11
-2.02376e-10
1.95318e-10
-2.20352e-10
2.03141e-10
3.27311e-12
4.74375e-12
-6.294e-12
6.17258e-12
1.39112e-11
-1.8383e-11
8.75654e-12
2.26957e-11
-2.97413e-11
1.10797e-11
3.15641e-11
-4.08506e-11
1.32008e-11
4.0904e-11
-5.21007e-11
1.51921e-11
5.10589e-11
-6.38095e-11
1.71486e-11
6.23555e-11
-7.62323e-11
1.91948e-11
7.51048e-11
-8.95678e-11
2.14973e-11
8.9577e-11
-1.03971e-10
2.42925e-11
1.05975e-10
-1.19575e-10
2.79173e-11
1.24414e-10
-1.36521e-10
3.28327e-11
1.44874e-10
-1.54998e-10
3.96161e-11
1.6698e-10
-1.7526e-10
4.88615e-11
1.89452e-10
-1.97513e-10
5.97437e-11
2.08881e-10
-2.20465e-10
2.17308e-10
-2.46255e-10
1.95944e-13
-1.15548e-12
3.48786e-13
3.62571e-13
-3.36789e-12
1.02402e-12
4.96392e-13
-5.42891e-12
1.67549e-12
5.92146e-13
-7.42263e-12
2.34285e-12
6.42808e-13
-9.4124e-12
3.06061e-12
6.39042e-13
-1.14307e-11
3.85673e-12
5.66565e-13
-1.3478e-11
4.75301e-12
4.01168e-13
-1.55298e-11
5.76725e-12
1.02069e-13
-1.75421e-11
6.91343e-12
-3.94471e-13
-1.94423e-11
8.19518e-12
-1.18142e-12
-2.11055e-11
9.59155e-12
-2.4066e-12
-2.23252e-11
1.10357e-11
-4.35661e-12
-2.28049e-11
1.23854e-11
-7.5796e-12
-2.22164e-11
1.33746e-11
-1.24534e-11
-2.05375e-11
1.36025e-11
-1.81656e-11
1.35398e-11
5.89691e-13
-2.28296e-12
1.03952e-12
1.09247e-12
-6.65464e-12
3.05161e-12
1.49905e-12
-1.07286e-11
4.99202e-12
1.79552e-12
-1.46692e-11
6.97803e-12
1.96297e-12
-1.85995e-11
9.1113e-12
1.97574e-12
-2.2589e-11
1.14751e-11
1.79445e-12
-2.66514e-11
1.4136e-11
1.35317e-12
-3.07538e-11
1.71487e-11
5.42485e-13
-3.48229e-11
2.05541e-11
-8.03929e-13
-3.87348e-11
2.43606e-11
-2.91688e-12
-4.22878e-11
2.85034e-11
-6.12768e-12
-4.51902e-11
3.27854e-11
-1.09696e-11
-4.71317e-11
3.67987e-11
-1.81984e-11
-4.80249e-11
3.98114e-11
-2.77113e-11
-4.83982e-11
4.08399e-11
-5.04245e-11
3.9415e-11
9.89883e-13
-3.34626e-12
1.70865e-12
1.83787e-12
-9.75612e-12
5.01522e-12
2.53236e-12
-1.5734e-11
8.20197e-12
3.05558e-12
-2.15191e-11
1.14592e-11
3.38252e-12
-2.72915e-11
1.49505e-11
3.47815e-12
-3.31636e-11
1.88125e-11
3.2884e-12
-3.9178e-11
2.31584e-11
2.72354e-12
-4.53145e-11
2.80824e-11
1.63655e-12
-5.14958e-11
3.3653e-11
-1.91485e-13
-5.75803e-11
3.98835e-11
-3.05254e-12
-6.33411e-11
4.66721e-11
-7.33007e-12
-6.84741e-11
5.37212e-11
-1.34951e-11
-7.27174e-11
6.04358e-11
-2.18148e-11
-7.61381e-11
6.58038e-11
-3.10874e-11
-7.93211e-11
6.85976e-11
-8.33473e-11
6.90831e-11
1.40069e-12
-4.30548e-12
2.34e-12
2.60789e-12
-1.25565e-11
6.86755e-12
3.61268e-12
-2.02599e-11
1.1228e-11
4.3997e-12
-2.77235e-11
1.56773e-11
4.94579e-12
-3.51815e-11
2.04337e-11
5.21714e-12
-4.27936e-11
2.56829e-11
5.16063e-12
-5.06439e-11
3.15844e-11
4.68719e-12
-5.87444e-11
3.82745e-11
3.64913e-12
-6.70398e-11
4.58529e-11
1.82277e-12
-7.54019e-11
5.43449e-11
-1.10302e-12
-8.36088e-11
6.36322e-11
-5.56656e-12
-9.1341e-11
7.33688e-11
-1.21143e-11
-9.82525e-11
8.28646e-11
-2.10364e-11
-1.04153e-10
9.09605e-11
-3.09846e-11
-1.09144e-10
9.62332e-11
-1.14094e-10
9.88009e-11
1.82264e-12
-5.12204e-12
2.91807e-12
3.40375e-12
-1.49428e-11
8.56312e-12
4.74245e-12
-2.41235e-11
1.39952e-11
5.83205e-12
-3.30334e-11
1.9526e-11
6.65955e-12
-4.19578e-11
2.54197e-11
7.20394e-12
-5.11046e-11
3.19039e-11
7.43018e-12
-6.06056e-11
3.91813e-11
7.27557e-12
-7.05187e-11
4.74298e-11
6.62878e-12
-8.08315e-11
5.67832e-11
5.30936e-12
-9.14578e-11
6.7287e-11
3.03002e-12
-1.02214e-10
7.88303e-11
-6.96163e-13
-1.12783e-10
9.1063e-11
-6.62948e-12
-1.22671e-10
1.03253e-10
-1.55748e-11
-1.31148e-10
1.14119e-10
-2.67368e-11
-1.37294e-10
1.21953e-10
-1.41777e-10
1.2658e-10
2.25108e-12
-5.76137e-12
3.43019e-12
4.21598e-12
-1.68133e-11
1.00641e-11
5.90626e-12
-2.71593e-11
1.64399e-11
7.3289e-12
-3.72214e-11
2.29143e-11
8.48749e-12
-4.73303e-11
2.97864e-11
9.38321e-12
-5.77387e-11
3.73171e-11
1.0013e-11
-6.86254e-11
4.5745e-11
1.0361e-11
-8.00976e-11
5.52845e-11
1.03848e-11
-9.21973e-11
6.61008e-11
9.9974e-12
-1.04902e-10
7.82641e-11
9.01747e-12
-1.18112e-10
9.16883e-11
7.04509e-12
-1.31609e-10
1.06045e-10
3.276e-12
-1.44954e-10
1.20589e-10
-3.55959e-12
-1.57217e-10
1.33919e-10
-1.38083e-11
-1.66615e-10
1.43999e-10
-1.69273e-10
1.50497e-10
2.67611e-12
-6.19443e-12
3.86698e-12
5.02455e-12
-1.80832e-11
1.13422e-11
7.07188e-12
-2.92297e-11
1.85144e-11
8.84124e-12
-4.00968e-11
2.57729e-11
1.03558e-11
-5.1052e-11
3.34409e-11
1.16434e-11
-6.23842e-11
4.18018e-11
1.27387e-11
-7.43105e-11
5.11193e-11
1.36819e-11
-8.69808e-11
6.16333e-11
1.45153e-11
-1.00486e-10
7.35308e-11
1.52792e-11
-1.14866e-10
8.69007e-11
1.59826e-11
-1.30115e-10
1.01678e-10
1.65148e-11
-1.46179e-10
1.17557e-10
1.64824e-11
-1.62907e-10
1.33779e-10
1.50174e-11
-1.79854e-10
1.48796e-10
1.12244e-11
-1.95547e-10
1.60122e-10
-2.08756e-10
1.66993e-10
3.08423e-12
4.22245e-12
-6.39902e-12
5.80246e-12
1.23799e-11
-1.86883e-11
8.19643e-12
2.01895e-11
-3.0232e-11
1.0305e-11
2.80606e-11
-4.15186e-11
1.217e-11
3.63294e-11
-5.2939e-11
1.38438e-11
4.52899e-11
-6.48052e-11
1.53951e-11
5.52172e-11
-7.7359e-11
1.69127e-11
6.63616e-11
-9.07773e-11
1.85122e-11
7.89155e-11
-1.05178e-10
2.03475e-11
9.2967e-11
-1.20629e-10
2.26114e-11
1.0845e-10
-1.37154e-10
2.55085e-11
1.25056e-10
-1.54733e-10
2.91991e-11
1.42017e-10
-1.73257e-10
3.36993e-11
1.57707e-10
-1.92332e-10
3.8333e-11
1.69328e-10
-2.10213e-10
1.74525e-10
-2.27338e-10
1.74614e-13
-1.17182e-12
2.9219e-13
3.20056e-13
-3.41627e-12
8.57875e-13
4.30303e-13
-5.5091e-12
1.40363e-12
4.97207e-13
-7.53634e-12
1.96252e-12
5.10174e-13
-9.5634e-12
2.5631e-12
4.55309e-13
-1.16254e-11
3.22793e-12
3.11811e-13
-1.3727e-11
3.97387e-12
4.57126e-14
-1.58525e-11
4.81412e-12
-3.98618e-13
-1.79744e-11
5.75791e-12
-1.10787e-12
-2.00513e-11
6.80448e-12
-2.21318e-12
-2.20184e-11
7.92978e-12
-3.92682e-12
-2.3787e-11
9.07189e-12
-6.62958e-12
-2.52749e-11
1.01254e-11
-1.09394e-11
-2.64645e-11
1.09456e-11
-1.69857e-11
-2.74001e-11
1.13922e-11
-2.70739e-11
1.23207e-11
5.26884e-13
-2.31522e-12
8.70998e-13
9.67496e-13
-6.74992e-12
2.55704e-12
1.30513e-12
-1.0886e-11
4.18309e-12
1.51753e-12
-1.48914e-11
5.84689e-12
1.57565e-12
-1.88926e-11
7.63225e-12
1.44077e-12
-2.29627e-11
9.60617e-12
1.05514e-12
-2.71228e-11
1.18205e-11
3.25737e-13
-3.13539e-11
1.43162e-11
-8.96811e-13
-3.56088e-11
1.71208e-11
-2.83843e-12
-3.981e-11
2.02301e-11
-5.82323e-12
-4.38404e-11
2.35706e-11
-1.03241e-11
-4.7556e-11
2.69626e-11
-1.70366e-11
-5.08615e-11
3.01029e-11
-2.67093e-11
-5.38266e-11
3.25717e-11
-3.84558e-11
-5.66217e-11
3.3979e-11
-5.97971e-11
3.41963e-11
8.89155e-13
-3.39333e-12
1.43213e-12
1.63798e-12
-9.89475e-12
4.20394e-12
2.22315e-12
-1.59618e-11
6.8757e-12
2.61393e-12
-2.18387e-11
9.60571e-12
2.76998e-12
-2.77087e-11
1.25282e-11
2.63657e-12
-3.36878e-11
1.57529e-11
2.13236e-12
-3.98258e-11
1.93685e-11
1.1286e-12
-4.61168e-11
2.34469e-11
-5.76809e-13
-5.25086e-11
2.80353e-11
-3.28022e-12
-5.89032e-11
3.31259e-11
-7.38461e-12
-6.51488e-11
3.86022e-11
-1.34123e-11
-7.10655e-11
4.41973e-11
-2.19148e-11
-7.65456e-11
4.94726e-11
-3.28936e-11
-8.17014e-11
5.3832e-11
-4.40142e-11
-8.67174e-11
5.67408e-11
-9.16576e-11
5.85535e-11
1.26781e-12
-4.36558e-12
1.96216e-12
2.34494e-12
-1.2733e-11
5.7593e-12
3.20738e-12
-2.05483e-11
9.41701e-12
3.82353e-12
-2.81245e-11
1.31476e-11
4.15138e-12
-3.56987e-11
1.71295e-11
4.13331e-12
-4.34321e-11
2.15113e-11
3.68391e-12
-5.1413e-11
2.64195e-11
2.66923e-12
-5.96624e-11
3.19589e-11
8.81042e-13
-6.81405e-11
3.81993e-11
-1.98485e-12
-7.67448e-11
4.51336e-11
-6.34602e-12
-8.52979e-11
5.26205e-11
-1.27462e-11
-9.35559e-11
6.0349e-11
-2.17168e-11
-1.01267e-10
6.78138e-11
-3.31173e-11
-1.08271e-10
7.43356e-11
-4.44128e-11
-1.14423e-10
7.92588e-11
-1.19879e-10
8.2761e-11
1.66494e-12
-5.1927e-12
2.44816e-12
3.09247e-12
-1.51497e-11
7.18491e-12
4.26445e-12
-2.44598e-11
1.17436e-11
5.15622e-12
-3.34969e-11
1.63823e-11
5.73433e-12
-4.25476e-11
2.13158e-11
5.95244e-12
-5.18186e-11
2.67269e-11
5.74175e-12
-6.14409e-11
3.27766e-11
4.99393e-12
-7.1472e-11
3.96027e-11
3.53832e-12
-8.18993e-11
4.72977e-11
1.11742e-12
-9.2635e-11
5.58612e-11
-2.65221e-12
-1.03495e-10
6.51448e-11
-8.33674e-12
-1.14172e-10
7.4818e-11
-1.66322e-11
-1.24191e-10
8.4331e-11
-2.78502e-11
-1.32837e-10
9.29213e-11
-4.00232e-11
-1.3913e-10
9.97552e-11
-1.4323e-10
1.04798e-10
2.07649e-12
-5.83971e-12
2.87927e-12
3.87209e-12
-1.70422e-11
8.44833e-12
5.38025e-12
-2.75294e-11
1.38006e-11
6.58971e-12
-3.77269e-11
1.92309e-11
7.48384e-12
-4.79651e-11
2.49822e-11
8.0391e-12
-5.84923e-11
3.12644e-11
8.21995e-12
-6.94804e-11
3.82676e-11
7.9679e-12
-8.10261e-11
4.61569e-11
7.18569e-12
-9.31527e-11
5.50444e-11
5.71498e-12
-1.05806e-10
6.49396e-11
3.28587e-12
-1.18834e-10
7.5695e-11
-5.75897e-13
-1.31946e-10
8.69631e-11
-6.61741e-12
-1.4461e-10
9.81387e-11
-1.56389e-11
-1.55826e-10
1.0834e-10
-2.68267e-11
-1.63887e-10
1.16531e-10
-1.64881e-10
1.22632e-10
2.49226e-12
-6.27743e-12
3.24734e-12
4.66308e-12
-1.83252e-11
9.52491e-12
6.52128e-12
-2.96192e-11
1.55464e-11
8.0727e-12
-4.06248e-11
2.16332e-11
9.32192e-12
-5.17071e-11
2.80487e-11
1.02741e-11
-6.31477e-11
3.50216e-11
1.09349e-11
-7.5152e-11
4.27623e-11
1.13065e-11
-8.78499e-11
5.14539e-11
1.1383e-11
-1.01298e-10
6.12199e-11
1.11406e-11
-1.15478e-10
7.20748e-11
1.05045e-11
-1.30289e-10
8.38668e-11
9.27998e-12
-1.45526e-10
9.622e-11
7.08211e-12
-1.60827e-10
1.08447e-10
3.40549e-12
-1.75527e-10
1.19479e-10
-1.55855e-12
-1.88251e-10
1.27995e-10
-1.98384e-10
1.33895e-10
2.89777e-12
3.54694e-12
-6.48358e-12
5.43656e-12
1.03987e-11
-1.89346e-11
7.64153e-12
1.69547e-11
-3.0627e-11
9.53609e-12
2.35532e-11
-4.20507e-11
1.1146e-11
3.04693e-11
-5.35928e-11
1.25041e-11
3.79418e-11
-6.55559e-11
1.3654e-11
4.61901e-11
-7.81667e-11
1.46526e-11
5.54036e-11
-9.15763e-11
1.5575e-11
6.57053e-11
-1.05859e-10
1.65204e-11
7.7102e-11
-1.21009e-10
1.76055e-11
8.94259e-11
-1.36933e-10
1.89448e-11
1.02265e-10
-1.53431e-10
2.0657e-11
1.14855e-10
-1.70144e-10
2.29742e-11
1.25964e-10
-1.86416e-10
2.61167e-11
1.34004e-10
-2.00676e-10
1.38185e-10
-2.14294e-10
1.55434e-13
-1.18439e-12
2.25742e-13
2.81892e-13
-3.45346e-12
6.6272e-13
3.71064e-13
-5.57094e-12
1.0842e-12
4.12265e-13
-7.625e-12
1.51597e-12
3.92036e-13
-9.68268e-12
1.98017e-12
2.92976e-13
-1.17804e-11
2.49347e-12
8.9602e-14
-1.39258e-11
3.0679e-12
-2.58231e-13
-1.61099e-11
3.71274e-12
-8.13536e-13
-1.83166e-11
4.4344e-12
-1.6716e-12
-2.0523e-11
5.23149e-12
-2.97479e-12
-2.26949e-11
6.08382e-12
-4.94698e-12
-2.4791e-11
6.94689e-12
-7.96856e-12
-2.67872e-11
7.75933e-12
-1.26026e-11
-2.86793e-11
8.45643e-12
-1.88073e-11
-3.03223e-11
8.98145e-12
-3.01283e-11
1.0047e-11
4.70406e-13
-2.34011e-12
6.73103e-13
8.55187e-13
-6.82385e-12
1.97597e-12
1.13098e-12
-1.10092e-11
3.2325e-12
1.26836e-12
-1.50671e-11
4.51876e-12
1.23014e-12
-1.91255e-11
5.89904e-12
9.67539e-13
-2.32598e-11
7.42292e-12
4.09521e-13
-2.74963e-11
9.1278e-12
-5.53909e-13
-3.18272e-11
1.1043e-11
-2.09135e-12
-3.62227e-11
1.31878e-11
-4.45013e-12
-4.0632e-11
1.55553e-11
-7.97757e-12
-4.49775e-11
1.80837e-11
-1.31591e-11
-4.91693e-11
2.06429e-11
-2.06468e-11
-5.31522e-11
2.30485e-11
-3.09738e-11
-5.69149e-11
2.50853e-11
-4.28035e-11
-6.02772e-11
2.65527e-11
-6.32248e-11
2.716e-11
7.98576e-13
-3.42967e-12
1.10715e-12
1.45813e-12
-1.00027e-11
3.25017e-12
1.94484e-12
-1.61412e-11
5.31654e-12
2.21723e-12
-2.2092e-11
7.42876e-12
2.22254e-12
-2.80392e-11
9.6888e-12
1.89074e-12
-3.41004e-11
1.21778e-11
1.1208e-12
-4.03313e-11
1.49607e-11
-2.3995e-13
-4.67367e-11
1.80901e-11
-2.41889e-12
-5.32803e-11
2.15989e-11
-5.73739e-12
-5.98855e-11
2.54726e-11
-1.06165e-11
-6.64312e-11
2.96116e-11
-1.75596e-11
-7.27734e-11
3.38222e-11
-2.69856e-11
-7.88124e-11
3.78265e-11
-3.85116e-11
-8.45445e-11
4.12916e-11
-4.92511e-11
-8.98495e-11
4.38974e-11
-9.45029e-11
4.56445e-11
1.14823e-12
-4.41205e-12
1.51755e-12
2.10801e-12
-1.28705e-11
4.45506e-12
2.84193e-12
-2.07751e-11
7.28631e-12
3.3049e-12
-2.84409e-11
1.01745e-11
3.43978e-12
-3.61044e-11
1.3254e-11
3.17034e-12
-4.39269e-11
1.66352e-11
2.38786e-12
-5.2e-11
2.04115e-11
9.31671e-13
-6.03509e-11
2.46605e-11
-1.43288e-12
-6.89464e-11
2.94297e-11
-5.03179e-12
-7.76909e-11
3.46997e-11
-1.0287e-11
-8.64153e-11
4.03472e-11
-1.76848e-11
-9.48847e-11
4.61403e-11
-2.75468e-11
-1.02831e-10
5.17497e-11
-3.92568e-11
-1.09991e-10
5.67828e-11
-4.97646e-11
-1.16028e-10
6.08239e-11
-1.20964e-10
6.37124e-11
1.52275e-12
-5.24738e-12
1.89438e-12
2.81139e-12
-1.53108e-11
5.56098e-12
3.83251e-12
-2.47232e-11
9.09186e-12
4.54637e-12
-3.38594e-11
1.26843e-11
4.90313e-12
-4.3004e-11
1.64994e-11
4.83654e-12
-5.23615e-11
2.06733e-11
4.25354e-12
-6.20612e-11
2.53259e-11
3.01909e-12
-7.21587e-11
3.05586e-11
9.37798e-13
-8.26343e-11
3.64324e-11
-2.26462e-12
-9.33866e-11
4.29291e-11
-6.96305e-12
-1.04212e-10
4.99123e-11
-1.36393e-11
-1.14775e-10
5.71199e-11
-2.27378e-11
-1.2456e-10
6.41782e-11
-3.40579e-11
-1.32779e-10
7.06319e-11
-4.51638e-11
-1.3839e-10
7.59429e-11
-1.41543e-10
7.98044e-11
1.9186e-12
-5.90034e-12
2.22918e-12
3.56064e-12
-1.72201e-11
6.54233e-12
4.90352e-12
-2.78178e-11
1.06895e-11
5.92057e-12
-3.8119e-11
1.48949e-11
6.57875e-12
-4.84501e-11
1.93413e-11
6.83505e-12
-5.90542e-11
2.41855e-11
6.63053e-12
-7.00964e-11
2.95691e-11
5.88174e-12
-8.16619e-11
3.56123e-11
4.46914e-12
-9.37519e-11
4.23881e-11
2.22135e-12
-1.06277e-10
4.98807e-11
-1.11673e-12
-1.19034e-10
5.79411e-11
-5.92795e-12
-1.31666e-10
6.62722e-11
-1.27031e-11
-1.43567e-10
7.44374e-11
-2.17291e-11
-1.53692e-10
8.18888e-11
-3.17348e-11
-1.60446e-10
8.79766e-11
-1.60205e-10
9.23907e-11
2.32534e-12
-6.34162e-12
2.51532e-12
4.3345e-12
-1.85129e-11
7.37902e-12
6.02042e-12
-2.99214e-11
1.2045e-11
7.37422e-12
-4.10309e-11
1.67577e-11
8.38524e-12
-5.22012e-11
2.17159e-11
9.04066e-12
-6.3706e-11
2.70914e-11
9.32464e-12
-7.57391e-11
3.3041e-11
9.21701e-12
-8.84107e-11
3.96957e-11
8.69192e-12
-1.01743e-10
4.71345e-11
7.71437e-12
-1.15664e-10
5.53397e-11
6.22327e-12
-1.29995e-10
6.4144e-11
4.10406e-12
-1.44434e-10
7.32049e-11
1.20029e-12
-1.58516e-10
8.19976e-11
-2.51132e-12
-1.71549e-10
8.98314e-11
-6.36054e-12
-1.82437e-10
9.59216e-11
-1.91289e-10
1.00077e-10
2.72775e-12
2.74826e-12
-6.54887e-12
5.10258e-12
8.05774e-12
-1.91251e-11
7.13471e-12
1.31371e-11
-3.09321e-11
8.83431e-12
1.8244e-11
-4.24572e-11
1.02137e-11
2.35874e-11
-5.40807e-11
1.12899e-11
2.93481e-11
-6.60954e-11
1.20874e-11
3.5689e-11
-7.87134e-11
1.26437e-11
4.27435e-11
-9.20611e-11
1.30162e-11
5.05874e-11
-1.06171e-10
1.32935e-11
5.9193e-11
-1.20973e-10
1.36015e-11
6.83724e-11
-1.36288e-10
1.41127e-11
7.77375e-11
-1.51807e-10
1.51228e-11
8.66788e-11
-1.67068e-10
1.72668e-11
9.43727e-11
-1.81412e-10
2.12246e-11
9.9896e-11
-1.93634e-10
1.02813e-10
-2.05817e-10
1.39868e-13
-1.19334e-12
1.52717e-13
2.50939e-13
-3.47991e-12
4.4809e-13
3.22928e-13
-5.61546e-12
7.32791e-13
3.43221e-13
-7.69021e-12
1.02489e-12
2.96451e-13
-9.77167e-12
1.33939e-12
1.62934e-13
-1.18964e-11
1.68703e-12
-8.56052e-14
-1.40742e-11
2.0754e-12
-4.91954e-13
-1.63004e-11
2.51045e-12
-1.11976e-12
-1.85651e-11
2.99655e-12
-2.06215e-12
-2.08533e-11
3.53274e-12
-3.45398e-12
-2.31383e-11
4.10696e-12
-5.50395e-12
-2.53818e-11
4.69369e-12
-8.56779e-12
-2.75524e-11
5.25866e-12
-1.31917e-11
-2.95965e-11
5.76832e-12
-1.94018e-11
-3.12578e-11
6.18325e-12
-3.08259e-11
6.98765e-12
4.24517e-13
-2.35801e-12
4.55395e-13
7.63827e-13
-6.87749e-12
1.33653e-12
9.89001e-13
-1.11001e-11
2.18633e-12
1.06532e-12
-1.51988e-11
3.05735e-12
9.50072e-13
-1.93013e-11
3.99288e-12
5.87891e-13
-2.34832e-11
5.02502e-12
-1.00135e-13
-2.77746e-11
6.17766e-12
-1.23084e-12
-3.21753e-11
7.4699e-12
-2.97401e-12
-3.66647e-11
8.91469e-12
-5.56908e-12
-4.1201e-11
1.05073e-11
-9.3391e-12
-4.57118e-11
1.22097e-11
-1.47207e-11
-5.01045e-11
1.3945e-11
-2.22833e-11
-5.42952e-11
1.56051e-11
-3.24914e-11
-5.81684e-11
1.7064e-11
-4.4167e-11
-6.13819e-11
1.81735e-11
-6.38363e-11
1.86475e-11
7.24838e-13
-3.456e-12
7.49176e-13
1.31131e-12
-1.00819e-11
2.19951e-12
1.71721e-12
-1.62749e-11
3.599e-12
1.89311e-12
-2.22828e-11
5.03098e-12
1.77786e-12
-2.82879e-11
6.5634e-12
1.29136e-12
-3.44079e-11
8.2491e-12
3.21038e-13
-4.07028e-11
1.01304e-11
-1.29454e-12
-4.71844e-11
1.2242e-11
-3.78279e-12
-5.38232e-11
1.46051e-11
-7.44988e-12
-6.05464e-11
1.72099e-11
-1.26743e-11
-6.72298e-11
1.99947e-11
-1.98736e-11
-7.37173e-11
2.28383e-11
-2.9323e-11
-7.98652e-11
2.55698e-11
-4.05175e-11
-8.55547e-11
2.79806e-11
-5.07872e-11
-9.05357e-11
2.98241e-11
-9.46085e-11
3.09901e-11
1.05065e-12
-4.44593e-12
1.02722e-12
1.91406e-12
-1.29719e-11
3.01662e-12
2.54221e-12
-2.09445e-11
4.9362e-12
2.88028e-12
-2.86781e-11
6.89573e-12
2.86079e-12
-3.64064e-11
8.98415e-12
2.39513e-12
-4.42898e-11
1.12737e-11
1.3613e-12
-5.24223e-11
1.38258e-11
-4.10249e-13
-6.08341e-11
1.66921e-11
-3.15177e-12
-6.94917e-11
1.99027e-11
-7.16703e-12
-7.82922e-11
2.34452e-11
-1.28196e-11
-8.7054e-11
2.72394e-11
-2.04767e-11
-9.55214e-11
3.11322e-11
-3.02702e-11
-1.03379e-10
3.49127e-11
-4.1437e-11
-1.10268e-10
3.8327e-11
-5.12148e-11
-1.1578e-10
4.10558e-11
-1.20025e-10
4.28818e-11
1.40635e-12
-5.28756e-12
1.2829e-12
2.58067e-12
-1.54301e-11
3.76773e-12
3.47746e-12
-2.49193e-11
6.16339e-12
4.04618e-12
-3.41288e-11
8.60157e-12
4.22557e-12
-4.33393e-11
1.11887e-11
3.93616e-12
-5.27524e-11
1.40142e-11
3.07137e-12
-6.24962e-11
1.71577e-11
1.48801e-12
-7.26223e-11
2.06858e-11
-1.00474e-12
-8.31006e-11
2.46389e-11
-4.65367e-12
-9.38111e-11
2.90041e-11
-9.76406e-12
-1.04526e-10
3.36847e-11
-1.66772e-11
-1.1488e-10
3.84985e-11
-2.56202e-11
-1.24317e-10
4.31977e-11
-3.6237e-11
-1.31996e-10
4.74832e-11
-4.6434e-11
-1.36874e-10
5.09563e-11
-1.39241e-10
5.33156e-11
1.78887e-12
-5.94509e-12
1.51043e-12
3.30424e-12
-1.7352e-11
4.43499e-12
4.51079e-12
-2.8032e-11
7.24988e-12
5.37062e-12
-3.84081e-11
1.01042e-11
5.83921e-12
-4.88018e-11
1.31185e-11
5.86049e-12
-5.94511e-11
1.63969e-11
5.36266e-12
-7.05155e-11
2.00335e-11
4.25494e-12
-8.20688e-11
2.41071e-11
2.42326e-12
-9.40915e-11
2.86661e-11
-2.74362e-13
-1.06464e-10
3.36964e-11
-4.01896e-12
-1.18947e-10
3.90838e-11
-9.0457e-12
-1.31148e-10
4.46107e-11
-1.56199e-11
-1.4243e-10
4.99811e-11
-2.38666e-11
-1.51757e-10
5.48377e-11
-3.28722e-11
-1.57639e-10
5.87225e-11
-1.56728e-10
6.13478e-11
2.18767e-12
-6.3891e-12
1.70511e-12
4.06318e-12
-1.8652e-11
5.00416e-12
5.60681e-12
-3.01448e-11
8.1714e-12
6.79882e-12
-4.13281e-11
1.13692e-11
7.61769e-12
-5.25556e-11
1.47294e-11
8.03838e-12
-6.40936e-11
1.8367e-11
8.03313e-12
-7.61264e-11
2.23857e-11
7.57496e-12
-8.87469e-11
2.68713e-11
6.64298e-12
-1.01948e-10
3.18752e-11
5.22986e-12
-1.15618e-10
3.73776e-11
3.3453e-12
-1.29534e-10
4.3245e-11
1.01384e-12
-1.43352e-10
4.92203e-11
-1.70494e-12
-1.56591e-10
5.49441e-11
-4.65934e-12
-1.68619e-10
5.99744e-11
-7.48101e-12
-1.78539e-10
6.37922e-11
-1.86935e-10
6.62276e-11
2.58702e-12
1.86358e-12
-6.5972e-12
4.82598e-12
5.46557e-12
-1.92662e-11
6.71517e-12
8.91281e-12
-3.11571e-11
8.25477e-12
1.23768e-11
-4.27531e-11
9.4473e-12
1.59974e-11
-5.44271e-11
1.02987e-11
1.98959e-11
-6.64637e-11
1.08229e-11
2.41796e-11
-7.90628e-11
1.10502e-11