/*--------------------------------*- C++ -*----------------------------------*\
| =========                 |                                                 |
| \\      /  F ield         | OpenFOAM: The Open Source CFD Toolbox           |
|  \\    /   O peration     | Version:  v1912                                 |
|   \\  /    A nd           | Website:  www.openfoam.com                      |
|    \\/     M anipulation  |                                                 |
\*---------------------------------------------------------------------------*/
FoamFile
{
    version     2.0;
    format      ascii;
    class       volScalarField;
    location    "0.18/fluid";
    object      p;
}
// * * * * * * * * * * * * * * * * * * * * * * * * * * * * * * * * * * * * * //

dimensions      [0 2 -2 0 0 0 0];


internalField   nonuniform List<scalar> 
14592
(
0.0814012
0.0760482
0.0741254
0.0724256
0.0711681
0.0700594
0.0690399
0.0681123
0.0672251
0.0664921
0.0656995
0.0653484
0.064583
0.0651417
0.0642786
0.0677247
0.0770768
0.0754161
0.073777
0.0723754
0.0711721
0.0700936
0.0690859
0.0681707
0.0672973
0.0665881
0.0658217
0.0655289
0.064818
0.0655601
0.0647686
0.0691706
0.0752216
0.0745164
0.0732185
0.072102
0.070994
0.0699774
0.0689965
0.0680962
0.0672293
0.0665273
0.0657678
0.0655027
0.0648218
0.0656747
0.0649595
0.0697149
0.0738959
0.0736388
0.0726788
0.0717903
0.0707918
0.0698404
0.0688891
0.0680025
0.0671396
0.0664415
0.0656884
0.0654528
0.0648157
0.0657888
0.0651986
0.0701923
0.073098
0.0729758
0.0722035
0.071452
0.070535
0.0696327
0.0687006
0.0678127
0.066931
0.0661986
0.0653953
0.0650989
0.0643836
0.0653155
0.0646693
0.0698547
0.0725212
0.0724575
0.0718153
0.0711568
0.0703007
0.0694322
0.0685101
0.0676149
0.0667142
0.0659551
0.0651293
0.0648255
0.0641386
0.0651979
0.064735
0.0703693
0.072144
0.0721011
0.0715223
0.0709088
0.0700805
0.0692202
0.0682853
0.0673549
0.0663943
0.0655375
0.0645726
0.0640497
0.0630549
0.0636942
0.0625793
0.0681075
0.0719151
0.0718816
0.071329
0.0707314
0.0699075
0.0690384
0.0680811
0.067114
0.0661068
0.0651871
0.0641675
0.0635837
0.062596
0.0634022
0.0626036
0.0703682
0.0812437
0.0758923
0.0740096
0.072355
0.0711582
0.0701186
0.0691789
0.068342
0.067556
0.0669344
0.0662567
0.065994
0.0653088
0.0656527
0.0647117
0.0661879
0.0769199
0.0752591
0.0736612
0.0723056
0.0711639
0.0701552
0.0692281
0.0684046
0.0676333
0.0670361
0.0663833
0.0661739
0.0655295
0.0660019
0.0650662
0.0669664
0.0750622
0.0743562
0.0730995
0.0720288
0.0709823
0.0700352
0.0691343
0.0683247
0.0675581
0.0669663
0.0663159
0.0661294
0.0655013
0.066062
0.0651623
0.0672774
0.0737346
0.0734765
0.0725572
0.0717141
0.0707766
0.069894
0.0690217
0.0682248
0.0674608
0.0668724
0.0662266
0.0660715
0.0654829
0.0661644
0.0653688
0.0676763
0.0729332
0.0728101
0.0720778
0.0713707
0.0705134
0.0696781
0.0688223
0.0680207
0.0672327
0.0666042
0.065898
0.0656739
0.0649856
0.0656203
0.0647224
0.0672269
0.0723527
0.0722883
0.0716853
0.0710703
0.0702723
0.0694688
0.0686204
0.0678087
0.0669984
0.0663416
0.065611
0.0653883
0.0647321
0.065534
0.0648223
0.0678317
0.0719708
0.0719274
0.0713869
0.0708156
0.0700434
0.069245
0.0683794
0.0675262
0.0666469
0.0658805
0.0649911
0.06453
0.0635206
0.0638942
0.0624102
0.0653898
0.0717369
0.0717033
0.071188
0.0706314
0.0698615
0.0690516
0.06816
0.0672656
0.0663349
0.0655027
0.0645572
0.0640501
0.0630647
0.0637111
0.0625946
0.0681231
0.081135
0.0757841
0.0739323
0.0723144
0.0711699
0.0701928
0.0693307
0.0685901
0.0679284
0.0674701
0.0670225
0.0670595
0.0668569
0.0676985
0.0678025
0.0694553
0.0768117
0.0751501
0.0735842
0.072266
0.0711773
0.0702321
0.0693838
0.0686584
0.0680139
0.0675838
0.0671667
0.067264
0.0671126
0.0680849
0.0682319
0.0702215
0.0749517
0.0742442
0.0730193
0.071986
0.0709925
0.0701086
0.069286
0.0685739
0.0679333
0.0675081
0.0670918
0.0672129
0.067076
0.0681401
0.0683305
0.0705271
0.0736219
0.0733623
0.0724745
0.0716684
0.0707833
0.0699634
0.0691685
0.0684681
0.0678286
0.0674061
0.0669926
0.0671478
0.0670489
0.0682436
0.068536
0.070925
0.0728172
0.0726927
0.071991
0.0713201
0.0705139
0.0697394
0.0689584
0.0682496
0.0675805
0.0671109
0.0666245
0.0666991
0.0664736
0.0676085
0.0677433
0.0703214
0.0722329
0.0721673
0.0715943
0.0710145
0.0702661
0.0695214
0.0687449
0.0680223
0.0673253
0.0668218
0.066301
0.066372
0.0661592
0.0674662
0.0677375
0.0708252
0.0718465
0.0718021
0.0712907
0.0707534
0.0700286
0.069286
0.0684874
0.0677161
0.0669384
0.0663085
0.0655987
0.0653934
0.0647466
0.0655558
0.0648392
0.0678443
0.0716078
0.0715734
0.0710864
0.0705626
0.069838
0.0690809
0.0682517
0.0674331
0.0665949
0.0658875
0.0651022
0.0648322
0.0641651
0.0652407
0.0647732
0.0704079
0.0810617
0.0757107
0.0738825
0.0722933
0.0711899
0.0702617
0.0694581
0.068784
0.0681973
0.0678146
0.0674474
0.067526
0.0673736
0.0680967
0.068178
0.0694533
0.0767389
0.075076
0.0735346
0.0722456
0.0711988
0.0703032
0.0695141
0.068856
0.0682873
0.0679332
0.0675957
0.0677309
0.0676223
0.0684522
0.0685545
0.0700731
0.0748767
0.0741675
0.0729669
0.0719627
0.071011
0.0701765
0.0694126
0.0687671
0.0682009
0.0678502
0.0675099
0.0676645
0.06756
0.0684673
0.0685902
0.0702846
0.073545
0.0732836
0.0724198
0.0716424
0.0707988
0.0700277
0.0692908
0.0686561
0.0680899
0.0677413
0.0674018
0.067591
0.0675196
0.0685559
0.0687658
0.0706416
0.0727371
0.0726108
0.0719325
0.0712897
0.0705238
0.0697968
0.0690718
0.0684263
0.0678267
0.0674273
0.0670079
0.0671121
0.0669003
0.0678731
0.0678977
0.0699609
0.0721494
0.0720822
0.071532
0.0709795
0.0702702
0.0695714
0.0688488
0.0681873
0.0675571
0.0671225
0.0666663
0.0667717
0.0665708
0.0677328
0.0678836
0.0704667
0.0717588
0.0717131
0.0712238
0.0707127
0.0700253
0.0693263
0.0685783
0.0678637
0.0671466
0.0665785
0.0659214
0.0657427
0.0650835
0.0657465
0.0648491
0.0673485
0.0715157
0.0714802
0.0710146
0.070516
0.0698272
0.0691114
0.06833
0.0675648
0.0667831
0.0661352
0.0653999
0.0651644
0.0644879
0.0654578
0.0648119
0.0700039
0.0810142
0.0756629
0.0738526
0.0722856
0.0712151
0.0703271
0.0695733
0.0689591
0.0684469
0.0681516
0.0679003
0.0680991
0.068129
0.0689621
0.0692848
0.0704499
0.0766919
0.0750277
0.073505
0.0722387
0.0712254
0.0703706
0.0696322
0.0690352
0.0685426
0.0682781
0.0680596
0.0683182
0.0683964
0.0693336
0.0696829
0.0710508
0.0748278
0.0741169
0.0729349
0.0719534
0.0710351
0.0702413
0.0695279
0.068943
0.0684522
0.0681906
0.0679678
0.068245
0.0683233
0.0693332
0.0696947
0.0712242
0.0734944
0.0732313
0.0723857
0.0716308
0.0708202
0.0700895
0.0694024
0.0688278
0.068336
0.0680759
0.0678523
0.0681643
0.0682723
0.0694116
0.0698516
0.071558
0.0726837
0.0725559
0.0718953
0.0712743
0.0705406
0.0698527
0.0691758
0.0685881
0.0680595
0.0677448
0.0674344
0.0676558
0.0676098
0.0686795
0.0689098
0.0708008
0.0720931
0.0720245
0.0714914
0.0709601
0.070282
0.0696209
0.0689445
0.0683384
0.0677758
0.0674226
0.0670695
0.0672896
0.0672432
0.0685026
0.0688358
0.0712488
0.0716989
0.0716519
0.0711792
0.0706884
0.0700308
0.0693674
0.0686627
0.0679993
0.0673433
0.0668485
0.0662799
0.0662013
0.0656645
0.066405
0.0656199
0.0679324
0.0714521
0.0714155
0.0709658
0.0704868
0.0698262
0.0691441
0.068403
0.0676852
0.0669592
0.0663784
0.0657211
0.0655778
0.0650028
0.0660491
0.0654725
0.070501
0.0809848
0.0756331
0.0738356
0.0722847
0.0712379
0.0703786
0.0696597
0.0690847
0.068617
0.0683643
0.0681592
0.0683785
0.0684351
0.0692154
0.0695254
0.0705853
0.0766628
0.0749976
0.0734882
0.0722384
0.0712492
0.0704237
0.0697206
0.0691634
0.0687159
0.0684946
0.0683223
0.0686
0.0687022
0.0695783
0.0699076
0.0711451
0.0747973
0.0740851
0.0729163
0.0719512
0.071057
0.0702923
0.0696139
0.0690685
0.0686221
0.0684028
0.0682243
0.0685183
0.0686153
0.0695574
0.0698885
0.0712782
0.0734626
0.0731981
0.0723655
0.0716268
0.0708402
0.0701382
0.0694857
0.06895
0.0685019
0.0682838
0.0681031
0.0684318
0.0685554
0.0696254
0.0700268
0.0715904
0.0726497
0.0725205
0.0718726
0.0712673
0.0705569
0.0698969
0.0692534
0.0687033
0.0682163
0.0679416
0.0676705
0.0679067
0.0678693
0.0688681
0.0690468
0.070794
0.0720567
0.0719869
0.0714661
0.0709501
0.0702944
0.0696603
0.0690161
0.0684461
0.0679234
0.0676091
0.0672932
0.0675296
0.0674888
0.0686825
0.0689556
0.0712272
0.0716598
0.0716116
0.0711507
0.0706746
0.0700384
0.0694006
0.0687261
0.0680964
0.0674768
0.0670174
0.0664802
0.066415
0.065873
0.0665472
0.0656749
0.0678367
0.07141
0.0713725
0.0709341
0.0704691
0.069829
0.069171
0.0684583
0.0677721
0.0670798
0.0665326
0.065904
0.0657763
0.0651945
0.0661872
0.0655174
0.0704119
0.0809682
0.0756162
0.073827
0.0722867
0.0712556
0.0704156
0.0697203
0.0691727
0.0687377
0.0685199
0.068358
0.0686133
0.0687224
0.0695177
0.069874
0.0708879
0.0766465
0.0749805
0.0734798
0.0722408
0.0712677
0.0704617
0.0697827
0.0692535
0.0688395
0.0686539
0.0685261
0.0688409
0.0689971
0.0698872
0.0702637
0.0714424
0.07478
0.0740667
0.0729065
0.0719522
0.0710741
0.070329
0.0696745
0.0691569
0.0687437
0.0685598
0.0684251
0.0687556
0.0689046
0.0698584
0.0702323
0.0715584
0.0734443
0.0731788
0.0723547
0.0716267
0.0708559
0.0701732
0.0695445
0.0690363
0.0686209
0.0684379
0.0683002
0.0686653
0.0688389
0.0699201
0.0703598
0.0718584
0.0726299
0.0724997
0.0718601
0.0712651
0.0705701
0.0699289
0.0693084
0.0687847
0.068329
0.0680879
0.067857
0.0681278
0.0681353
0.0691429
0.0693509
0.0710322
0.0720353
0.0719646
0.0714518
0.0709457
0.070305
0.069689
0.0690668
0.0685223
0.0680293
0.0677474
0.0674691
0.0677391
0.0677386
0.0689412
0.0692342
0.0714408
0.0716364
0.0715875
0.0711342
0.0706677
0.0700458
0.0694251
0.0687712
0.0681652
0.0675726
0.0671427
0.066638
0.0666022
0.06609
0.0667675
0.0658926
0.0679813
0.0713846
0.0713464
0.0709154
0.0704595
0.0698329
0.0691911
0.0684977
0.0678335
0.0671659
0.0666458
0.0660457
0.065945
0.0653858
0.0663819
0.065696
0.0705261
0.0809605
0.0756089
0.0738231
0.0722882
0.0712646
0.0704338
0.0697496
0.0692144
0.0687932
0.0685878
0.0684394
0.0686991
0.0688148
0.0695942
0.0699458
0.0709373
0.0766393
0.0749727
0.0734761
0.0722424
0.071277
0.0704804
0.0698126
0.0692958
0.0688956
0.0687223
0.0686077
0.0689261
0.0690875
0.0699589
0.0703287
0.0714802
0.074772
0.0740583
0.0729023
0.0719532
0.0710828
0.0703469
0.0697036
0.0691982
0.0687986
0.0686268
0.0685046
0.068838
0.0689906
0.0699238
0.0702882
0.0715851
0.073436
0.0731699
0.07235
0.071627
0.0708639
0.0701904
0.0695727
0.0690766
0.0686745
0.0685035
0.0683779
0.0687458
0.068922
0.0699821
0.0704097
0.0718782
0.0726208
0.07249
0.0718544
0.0712644
0.0705769
0.0699446
0.0693347
0.0688228
0.06838
0.0681504
0.0679309
0.0682042
0.0682129
0.0691994
0.0693922
0.0710427
0.0720254
0.0719541
0.0714453
0.070944
0.0703105
0.0697031
0.0690912
0.0685579
0.0680773
0.0678066
0.067539
0.067812
0.0678116
0.0689938
0.0692684
0.0714437
0.0716255
0.0715761
0.0711266
0.0706646
0.0700496
0.0694371
0.068793
0.0681976
0.0676165
0.067197
0.0667017
0.0666687
0.0661546
0.0668123
0.065913
0.0679672
0.0713727
0.0713341
0.0709067
0.0704551
0.0698352
0.0692011
0.0685168
0.0678625
0.0672055
0.0666953
0.0661037
0.0660061
0.0654439
0.0664216
0.0657071
0.0705023
0.0914011
0.0810052
0.0773572
0.0742644
0.0721434
0.0703181
0.0686736
0.0671088
0.0655506
0.0639627
0.0622728
0.0604943
0.0584616
0.0563479
0.0537789
0.0512726
0.0870554
0.0801309
0.0769061
0.0741392
0.0720991
0.0703145
0.0686859
0.0671317
0.0655814
0.0640019
0.0623203
0.0605526
0.0585287
0.0564276
0.0538624
0.0513616
0.08517
0.0791453
0.0762875
0.0738194
0.0719011
0.0701949
0.0686058
0.0670753
0.0655391
0.0639694
0.0622964
0.0605383
0.0585263
0.0564396
0.0538915
0.051406
0.0838269
0.0782456
0.0757235
0.0734879
0.0716919
0.0700614
0.0685121
0.0670041
0.0654799
0.0639171
0.0622497
0.0604972
0.0584956
0.0564206
0.0538933
0.0514256
0.0830208
0.07758
0.0752467
0.0731547
0.0714531
0.0698858
0.0683729
0.0668854
0.065371
0.0638117
0.0621463
0.060395
0.0584024
0.056337
0.0538393
0.0513971
0.0824501
0.0770713
0.0748675
0.0728732
0.0712426
0.069722
0.0682356
0.0667614
0.0652517
0.0636917
0.0620259
0.0602736
0.0582921
0.0562378
0.053779
0.051367
0.0820874
0.0767308
0.0745935
0.0726509
0.071061
0.0695667
0.0680936
0.0666232
0.0651105
0.0635428
0.0618701
0.0601092
0.0581335
0.0560831
0.0536665
0.0512866
0.0818794
0.0765315
0.0744234
0.0725029
0.0709291
0.0694427
0.0679697
0.0664937
0.0649719
0.0633926
0.0617118
0.0599431
0.0579784
0.0559373
0.0535732
0.0512306
0.0870339
0.0801026
0.0768709
0.0740986
0.0720549
0.0702681
0.0686332
0.0670678
0.0655035
0.0639089
0.0622053
0.0604195
0.0583603
0.0562442
0.0536258
0.0511385
0.0826837
0.0794278
0.0764749
0.0740037
0.0720258
0.0702736
0.0686499
0.0670908
0.0655308
0.0639409
0.062242
0.060463
0.0584088
0.0563016
0.053685
0.0512041
0.0808076
0.0784918
0.0758864
0.0737065
0.0718388
0.0701592
0.0685717
0.0670343
0.0654869
0.063906
0.0622149
0.0604448
0.0584022
0.0563089
0.0537092
0.0512438
0.0794677
0.077595
0.0753321
0.0733842
0.0716358
0.0700301
0.0684812
0.0669657
0.0654302
0.0638563
0.0621712
0.0604074
0.0583762
0.0562952
0.0537174
0.0512695
0.078667
0.0769287
0.0748592
0.0730549
0.0713992
0.069856
0.0683435
0.0668486
0.0653233
0.0637534
0.0620711
0.060309
0.058288
0.0562169
0.0536704
0.0512471
0.0780975
0.0764169
0.0744814
0.0727757
0.0711908
0.0696943
0.0682089
0.0667278
0.065208
0.0636385
0.0619575
0.0601961
0.0581892
0.056131
0.0536276
0.051234
0.0777362
0.0760758
0.0742086
0.072555
0.0710104
0.0695402
0.0680689
0.0665921
0.0650701
0.0634934
0.0618066
0.0600369
0.0580376
0.0559829
0.0535257
0.0511621
0.0775289
0.0758766
0.0740397
0.0724086
0.07088
0.0694178
0.0679474
0.0664658
0.0649358
0.0633488
0.0616563
0.0598808
0.0578969
0.0558541
0.0534566
0.0511298
0.0851445
0.0791116
0.0762519
0.0737862
0.0718783
0.0701871
0.068613
0.0670979
0.0655754
0.0640254
0.0623521
0.0606158
0.0585433
0.0564683
0.053691
0.0512004
0.0808068
0.0784895
0.0758896
0.0737177
0.0718644
0.070202
0.0686364
0.0671269
0.065609
0.0640649
0.0623974
0.0606704
0.0586041
0.0565423
0.0537656
0.0512862
0.0789434
0.0775836
0.0753247
0.07344
0.0716885
0.0700936
0.068561
0.0670714
0.0655652
0.0640297
0.0623701
0.0606526
0.0585993
0.0565529
0.0537941
0.0513311
0.0776115
0.0766983
0.0747812
0.0731274
0.0714915
0.069968
0.0684722
0.0670032
0.0655082
0.0639791
0.0623257
0.060615
0.058575
0.056543
0.0538101
0.0513665
0.0768159
0.076037
0.0743132
0.072802
0.0712568
0.069794
0.0683328
0.0668828
0.0653962
0.0638692
0.0622171
0.0605055
0.0584753
0.0564509
0.0537547
0.0513365
0.0762478
0.0755262
0.0739369
0.0725241
0.0710487
0.0696315
0.068196
0.0667583
0.0652758
0.0637475
0.062096
0.0603839
0.0583709
0.0563603
0.0537199
0.0513346
0.0758866
0.0751847
0.0736639
0.0723027
0.0708668
0.0694747
0.0680515
0.0666159
0.0651286
0.0635892
0.0619279
0.0602005
0.0581922
0.0561759
0.0535925
0.0512343
0.0756782
0.0749844
0.073494
0.072155
0.0707343
0.0693493
0.0679255
0.0664833
0.0649859
0.0634333
0.0617649
0.0600284
0.0580392
0.056034
0.0535305
0.0512125
0.0837835
0.078192
0.0756782
0.0734583
0.0716936
0.0701037
0.0686011
0.0671463
0.0656751
0.0641817
0.062543
0.0608675
0.0587599
0.0567281
0.0536834
0.0511865
0.0794493
0.0775724
0.0753256
0.0733994
0.0716863
0.0701233
0.0686282
0.0671787
0.0657121
0.0642252
0.0625928
0.0609291
0.0588291
0.0568176
0.0537744
0.0513006
0.077593
0.0766768
0.0747703
0.0731302
0.0715153
0.0700174
0.0685534
0.0671225
0.0656666
0.0641877
0.062563
0.0609094
0.0588234
0.0568296
0.053804
0.0513473
0.0762659
0.075798
0.0742324
0.0728227
0.0713215
0.0698935
0.0684648
0.0670534
0.0656078
0.064135
0.0625167
0.0608707
0.0588007
0.0568246
0.0538303
0.0513961
0.0754737
0.0751404
0.0737671
0.0724993
0.0710873
0.0697183
0.0683225
0.0669281
0.065489
0.0640157
0.0623962
0.0607457
0.0586844
0.0567122
0.0537617
0.051354
0.0749068
0.0746309
0.0733917
0.0722218
0.0708787
0.0695541
0.0681824
0.0667987
0.0653622
0.0638857
0.0622667
0.0606151
0.0585769
0.0566225
0.0537484
0.0513809
0.0745454
0.0742893
0.0731181
0.0719993
0.0706946
0.0693937
0.0680322
0.0666478
0.065203
0.06371
0.0620761
0.0603994
0.0583616
0.0563883
0.053588
0.0512427
0.0743358
0.074088
0.0729469
0.0718497
0.0705595
0.0692644
0.0679006
0.0665073
0.0650502
0.0635411
0.0618997
0.0602117
0.0582023
0.0562441
0.0535595
0.0512663
0.0829626
0.0775117
0.0752066
0.0731552
0.0715214
0.0700403
0.068631
0.0672667
0.0658845
0.0644992
0.0629558
0.061431
0.0593695
0.0575062
0.0541664
0.0517113
0.0786344
0.0768907
0.0748582
0.0731008
0.0715178
0.0700636
0.0686622
0.0673043
0.0659282
0.0645523
0.0630184
0.0615122
0.0594644
0.0576363
0.0543039
0.0518884
0.076783
0.0759994
0.0743072
0.0728352
0.0713487
0.0699582
0.0685866
0.0672463
0.0658805
0.0645125
0.0629868
0.0614928
0.0594614
0.0576559
0.0543405
0.0519426
0.0754595
0.0751245
0.0737722
0.07253
0.0711558
0.0698339
0.0684963
0.0671745
0.0658178
0.0644553
0.0629362
0.0614515
0.0594401
0.0576592
0.0543825
0.052015
0.074669
0.0744688
0.0733077
0.0722064
0.0709197
0.0696549
0.0683479
0.0670402
0.0656866
0.0643189
0.0627935
0.0612972
0.0592895
0.0575062
0.0542805
0.0519462
0.0741022
0.0739595
0.0729316
0.0719275
0.0707083
0.0694859
0.0682007
0.0669007
0.0655464
0.0641715
0.062644
0.0611432
0.0591629
0.0574024
0.05428
0.0520058
0.0737393
0.0736166
0.0726559
0.0717018
0.0705193
0.0693182
0.0680397
0.0667341
0.0653648
0.063963
0.0624079
0.0608615
0.0588643
0.0570555
0.0540196
0.0517618
0.0735272
0.0734129
0.0724816
0.0715483
0.0703788
0.0691812
0.0678972
0.0665783
0.0651918
0.0637664
0.0621982
0.0606311
0.0586654
0.056871
0.0539951
0.0518205
0.0823543
0.0769644
0.0748143
0.0728914
0.071374
0.0699952
0.0686796
0.0674091
0.066119
0.0648434
0.0633867
0.0619964
0.059932
0.0581744
0.0543382
0.0517914
0.078027
0.0763386
0.0744659
0.0728383
0.0713725
0.070021
0.0687139
0.0674507
0.0661677
0.0649037
0.0634586
0.0620933
0.0600487
0.0583436
0.0545134
0.0519959
0.0761763
0.0754466
0.073915
0.0725726
0.0712027
0.0699141
0.0686359
0.0673895
0.0661158
0.0648594
0.063422
0.0620703
0.0600428
0.0583638
0.0545392
0.0520228
0.0748537
0.0745725
0.0733804
0.0722675
0.071009
0.0697881
0.0685428
0.0673136
0.0660481
0.0647965
0.063366
0.062026
0.0600229
0.0583782
0.0545998
0.0521247
0.0740631
0.0739168
0.0729149
0.071942
0.0707695
0.069604
0.0683867
0.0671686
0.0659022
0.0646403
0.0631971
0.0618374
0.0598303
0.0581765
0.054459
0.052037
0.0734951
0.0734066
0.0725372
0.0716607
0.0705541
0.0694292
0.0682313
0.0670181
0.0657479
0.0644755
0.063029
0.0616654
0.0596953
0.0580819
0.054513
0.0522016
0.0731299
0.0730615
0.0722584
0.071431
0.0703593
0.069253
0.0680581
0.0668337
0.0655412
0.0642306
0.0627424
0.0613102
0.059302
0.0576075
0.0541468
0.0518657
0.0729147
0.0728549
0.0720806
0.071273
0.0702125
0.0691072
0.0679036
0.0666618
0.0653476
0.0640078
0.0625046
0.0610499
0.0590885
0.057434
0.054215
0.0521255
0.081933
0.0765661
0.074517
0.0726874
0.0712707
0.0699909
0.0687787
0.0676246
0.0664673
0.0653709
0.0641169
0.0630462
0.0612632
0.0600145
0.0560413
0.0536426
0.0776074
0.0759379
0.0741689
0.0726355
0.0712712
0.0700197
0.0688171
0.0676721
0.0665245
0.0654443
0.0642077
0.0631743
0.0614244
0.0602559
0.0562837
0.0537799
0.0757561
0.0750442
0.0736163
0.0723682
0.0710994
0.0699104
0.068736
0.0676073
0.0664682
0.0653958
0.0641674
0.0631516
0.0614222
0.0602908
0.0563134
0.0537774
0.0744335
0.0741698
0.0730809
0.0720616
0.0709035
0.0697813
0.0686387
0.067526
0.0663938
0.0653257
0.0641043
0.0631048
0.061406
0.0603279
0.0564106
0.0539438
0.0736413
0.0735125
0.0726129
0.0717326
0.0706591
0.0695901
0.0684726
0.0673669
0.0662282
0.0651421
0.0638972
0.0628651
0.0611458
0.0600504
0.0562001
0.0538517
0.0730711
0.0730003
0.0722324
0.0714474
0.070438
0.0694073
0.068306
0.067201
0.0660535
0.0649507
0.0636963
0.0626565
0.0609757
0.0599433
0.0562937
0.0541847
0.0727024
0.0726519
0.0719495
0.0712122
0.0702353
0.0692199
0.0681165
0.0669925
0.0658108
0.0646508
0.0633267
0.0621743
0.0603966
0.0592093
0.0556412
0.053645
0.0724831
0.0724414
0.071767
0.0710483
0.0700803
0.0690626
0.067946
0.0667979
0.065586
0.0643845
0.063032
0.0618402
0.0601014
0.0589693
0.055721
0.0542006
0.0816222
0.076265
0.0742889
0.0725318
0.0712001
0.070008
0.0688898
0.0678397
0.0667952
0.0658363
0.0647189
0.0638288
0.0621642
0.0610027
0.056526
0.0523857
0.0772972
0.0756344
0.0739405
0.0724807
0.0712023
0.0700393
0.0689314
0.0678918
0.0668581
0.0659181
0.0648207
0.0639752
0.0623501
0.0612744
0.0567003
0.051679
0.0754441
0.0747378
0.0733851
0.0722105
0.0710275
0.0699267
0.0688463
0.067822
0.0667956
0.0658625
0.0647716
0.0639446
0.0623362
0.0612918
0.0566564
0.0513315
0.0741202
0.073862
0.0728477
0.0719016
0.0708287
0.0697939
0.0687442
0.0677348
0.066714
0.0657849
0.0647007
0.0638946
0.062321
0.061347
0.0567831
0.0515311
0.0733254
0.0732022
0.0723765
0.0715683
0.0705785
0.0695948
0.0685675
0.0675614
0.0665287
0.0655745
0.0644561
0.0636061
0.0619929
0.0609983
0.056514
0.051526
0.0727522
0.0726872
0.0719924
0.0712784
0.0703511
0.0694037
0.0683898
0.0673811
0.0663357
0.065362
0.064232
0.06338
0.0618162
0.0609355
0.0567443
0.0522562
0.0723795
0.0723351
0.0717048
0.0710371
0.0701402
0.0692047
0.068184
0.0671492
0.0660594
0.0650128
0.0637889
0.0627895
0.0610726
0.0599868
0.0558624
0.0517495
0.0721556
0.0721203
0.0715171
0.0708667
0.0699766
0.069036
0.0679981
0.0669342
0.0658087
0.064715
0.0634597
0.0624274
0.0607701
0.059846
0.0562244
0.0533057
0.0718285
0.0717974
0.0712357
0.0706251
0.0697789
0.0688781
0.0678755
0.0668417
0.0657411
0.0646673
0.0634268
0.0624046
0.0607504
0.059824
0.0561854
0.0532412
0.0718918
0.0718569
0.0712523
0.0706023
0.0697119
0.0687655
0.067713
0.0666201
0.0654543
0.0642901
0.0629658
0.0617941
0.0600645
0.0589336
0.0556692
0.0541291
0.0721105
0.0720594
0.071375
0.0706567
0.0696989
0.0686893
0.0675728
0.0664065
0.0651556
0.0638672
0.0624032
0.0609765
0.0590294
0.057379
0.0541464
0.0520391
0.0725559
0.0724513
0.0716249
0.0707966
0.069748
0.0686647
0.0674855
0.0662579
0.0649484
0.0635859
0.062066
0.0605338
0.0585879
0.0568016
0.053917
0.0517282
0.0732348
0.0729971
0.0719707
0.0709906
0.0698356
0.0686684
0.0674227
0.066133
0.0647636
0.0633262
0.0617403
0.060093
0.0581081
0.0561616
0.0534729
0.0511686
0.0744893
0.0738074
0.0724389
0.0712248
0.0699491
0.0687012
0.0674042
0.0660735
0.0646708
0.0631958
0.0615878
0.0598956
0.0579345
0.0559436
0.0534396
0.0511132
0.0762753
0.0746368
0.0729275
0.0714271
0.0700501
0.0687317
0.0673939
0.0660295
0.0645992
0.063094
0.0614655
0.0597373
0.0577839
0.0557577
0.0533623
0.0510292
0.0806179
0.0752895
0.0733087
0.0715188
0.0700953
0.0687531
0.0674152
0.0660571
0.0646355
0.0631382
0.0615216
0.0598002
0.0578662
0.0558416
0.0534801
0.0511311
0.071645
0.071614
0.0710887
0.0705178
0.069723
0.0688778
0.0679354
0.0669665
0.065931
0.0649284
0.0637376
0.0627623
0.0610549
0.0599686
0.0558132
0.0516558
0.071703
0.0716685
0.0710994
0.0704879
0.0696468
0.068753
0.0677567
0.0667236
0.065617
0.0645179
0.06324
0.0621211
0.0603584
0.0591738
0.0555764
0.0535461
0.0719167
0.0718662
0.0712165
0.0705353
0.0696247
0.0686644
0.0675994
0.0664859
0.0652854
0.0640493
0.0626177
0.0612261
0.0592376
0.0575482
0.0540628
0.0517525
0.0723577
0.0722541
0.0714618
0.0706697
0.0696666
0.06863
0.0674989
0.0663199
0.0650562
0.06374
0.0622503
0.0607511
0.0587796
0.0569805
0.0539278
0.0516468
0.0730327
0.0727961
0.0718033
0.0708588
0.0697475
0.0686249
0.0674242
0.0661784
0.0648496
0.0634508
0.0618894
0.0602654
0.0582584
0.0562989
0.0534889
0.0511256
0.0742848
0.0736044
0.0722692
0.0710902
0.0698575
0.0686528
0.067399
0.06611
0.0647457
0.0633062
0.0617222
0.0600513
0.0580777
0.0560785
0.053491
0.0511188
0.0760688
0.0744323
0.0727561
0.0712903
0.0699557
0.0686795
0.0673834
0.0660588
0.0646647
0.0631921
0.0615862
0.0598759
0.0579142
0.055879
0.053422
0.0510476
0.0804118
0.0750871
0.073139
0.0713837
0.070002
0.0687023
0.067407
0.0660895
0.0647052
0.0632418
0.0616501
0.0599486
0.0580108
0.05598
0.0535642
0.0511739
0.0715107
0.0714792
0.0709813
0.0704417
0.0696899
0.0688935
0.0680076
0.0671049
0.066146
0.0652424
0.0641652
0.0633527
0.061804
0.0609232
0.0566771
0.0521107
0.0715638
0.071529
0.0709864
0.0704051
0.0696048
0.0687565
0.0678119
0.0668377
0.0657971
0.064781
0.063592
0.0626005
0.06094
0.059911
0.0562105
0.0540453
0.0717728
0.0717222
0.0710981
0.0704459
0.0695738
0.0686557
0.0676371
0.0665744
0.0654277
0.0642548
0.0628832
0.0615739
0.0596283
0.0580203
0.0544093
0.052053
0.0722098
0.0721063
0.0713392
0.070575
0.0696087
0.0686118
0.0675233
0.0663894
0.0651719
0.0639072
0.0624633
0.0610232
0.059074
0.0573247
0.0541734
0.0518643
0.0728811
0.0726449
0.0716768
0.0707594
0.0696834
0.0685981
0.0674365
0.0662309
0.0649413
0.0635833
0.0620548
0.0604689
0.0584676
0.056529
0.0536372
0.0512432
0.074131
0.0734513
0.0721405
0.0709883
0.06979
0.0686212
0.0674047
0.0661531
0.0648246
0.0634204
0.0618641
0.0602215
0.05825
0.0562593
0.0536098
0.0512042
0.0759132
0.0742779
0.0726258
0.0711864
0.0698856
0.0686443
0.0673838
0.0660944
0.0647336
0.0632921
0.06171
0.0600208
0.0580589
0.0560236
0.0535173
0.051108
0.0802566
0.0749342
0.0730101
0.0712814
0.0699329
0.0686683
0.0674095
0.0661278
0.0647775
0.0633459
0.0617791
0.0600992
0.0581631
0.0561319
0.0536713
0.0512441
0.0714141
0.0713817
0.0709043
0.0703889
0.0696709
0.0689131
0.0680709
0.067216
0.066306
0.0654527
0.0644113
0.0636221
0.0620329
0.0610415
0.0564647
0.0513395
0.0714627
0.0714272
0.0709045
0.0703464
0.0695782
0.0687661
0.0678619
0.0669315
0.0659352
0.0649651
0.0638084
0.0628441
0.0611526
0.0600639
0.0561299
0.0536909
0.0716675
0.0716164
0.0710115
0.0703815
0.0695397
0.0686552
0.0676735
0.0666497
0.0655411
0.0644064
0.0630591
0.0617704
0.0597934
0.0581463
0.0543602
0.0518698
0.0721009
0.0719973
0.0712487
0.070506
0.0695686
0.0686034
0.0675492
0.0664508
0.0652677
0.064037
0.0626153
0.0611953
0.0592248
0.0574547
0.0541819
0.0517961
0.0727691
0.0725329
0.071583
0.0706864
0.0696379
0.0685825
0.0674527
0.0662793
0.0650203
0.0636913
0.0621816
0.0606113
0.058593
0.0566389
0.0536583
0.051212
0.0740171
0.0733376
0.0720447
0.0709131
0.0697418
0.0686018
0.0674156
0.0661945
0.0648949
0.0635174
0.0619795
0.0603515
0.0583697
0.0563679
0.0536547
0.051207
0.0757977
0.0741629
0.0725287
0.0711094
0.0698351
0.0686218
0.0673905
0.0661302
0.0647966
0.06338
0.0618154
0.0601392
0.0581704
0.0561254
0.0535707
0.0511244
0.0801415
0.0748207
0.0729143
0.0712057
0.0698834
0.068647
0.0674183
0.0661663
0.0648442
0.0634385
0.061891
0.0602257
0.0582861
0.0562471
0.0537431
0.0512787
0.0713465
0.0713132
0.0708511
0.0703543
0.0696629
0.0689363
0.0681307
0.0673179
0.0664552
0.0656573
0.064674
0.0639523
0.0624115
0.0614446
0.0567301
0.0512422
0.0713913
0.0713552
0.0708472
0.0703068
0.0695636
0.0687806
0.0679099
0.0670172
0.0660621
0.0651392
0.0640287
0.0631186
0.0614556
0.0603904
0.0563442
0.0537409
0.0715926
0.071541
0.0709501
0.070337
0.0695188
0.0686611
0.0677096
0.0667188
0.0656446
0.0645477
0.0632335
0.0619827
0.060015
0.0583804
0.0544988
0.0519279
0.072023
0.0719192
0.0711842
0.0704576
0.0695426
0.0686024
0.0675759
0.0665072
0.0653541
0.0641549
0.0627593
0.0613677
0.0593998
0.0576366
0.0542909
0.0518557
0.0726885
0.0724522
0.0715156
0.0706346
0.0696074
0.0685755
0.0674712
0.0663243
0.0650914
0.0637884
0.0622986
0.060748
0.0587276
0.0567738
0.0537354
0.0512518
0.0739349
0.0732555
0.0719758
0.0708596
0.0697089
0.0685915
0.0674295
0.0662333
0.0649577
0.0636033
0.0620829
0.0604703
0.0584861
0.0564814
0.0537234
0.0512429
0.0757142
0.0740798
0.0724586
0.0710544
0.0698003
0.068609
0.0674008
0.0661641
0.064853
0.0634573
0.0619083
0.0602446
0.0582735
0.0562233
0.0536327
0.0511561
0.0800583
0.0747386
0.0728452
0.0711518
0.0698495
0.0686351
0.0674303
0.0662023
0.0649033
0.0635192
0.0619884
0.0603362
0.0583957
0.056352
0.0538148
0.0513193
0.0713013
0.0712673
0.070816
0.0703325
0.0696604
0.0689563
0.0681767
0.0673924
0.0665592
0.0657905
0.064829
0.064119
0.0625574
0.0615307
0.0566471
0.050874
0.0713432
0.0713064
0.0708089
0.0702811
0.0695561
0.0687941
0.0679474
0.0670808
0.0661522
0.0652558
0.0641642
0.0632669
0.0615861
0.0604832
0.0563122
0.0535648
0.0715417
0.0714896
0.0709086
0.0703076
0.0695065
0.0686683
0.0677386
0.0667711
0.06572
0.0646456
0.0633464
0.0621063
0.0601219
0.0584623
0.0544867
0.0518375
0.0719698
0.0718657
0.0711403
0.0704252
0.0695265
0.0686046
0.0675983
0.0665508
0.0654184
0.0642393
0.062857
0.0614756
0.0594954
0.0577165
0.0543032
0.0518188
0.0726333
0.0723967
0.0714695
0.0705996
0.0695878
0.0685731
0.0674875
0.0663599
0.0651456
0.06386
0.0623818
0.0608397
0.0588098
0.0568445
0.0537557
0.051237
0.0738784
0.0731989
0.0719285
0.0708233
0.0696875
0.0685866
0.0674426
0.0662646
0.0650065
0.0636683
0.0621591
0.0605545
0.058564
0.0565505
0.0537548
0.0512453
0.0756567
0.0740224
0.0724103
0.0710169
0.0697775
0.0686023
0.0674112
0.0661919
0.0648975
0.0635169
0.0619787
0.0603224
0.0583471
0.0562893
0.0536694
0.0511674
0.080001
0.074682
0.0727977
0.0711153
0.0698274
0.0686292
0.0674421
0.0662319
0.0649502
0.0635819
0.0620629
0.0604191
0.0584762
0.056426
0.0538619
0.0513408
0.0712738
0.0712392
0.070795
0.0703201
0.0696607
0.0689716
0.0682096
0.0674451
0.0666334
0.0658877
0.0649482
0.0642584
0.062704
0.0616656
0.0567018
0.0507524
0.0713137
0.0712764
0.0707856
0.0702661
0.0695531
0.068805
0.0679744
0.0671257
0.066216
0.0653396
0.0642656
0.0633851
0.0617065
0.0605969
0.0563635
0.0535306
0.0715102
0.0714578
0.0708832
0.0702901
0.0695002
0.0686748
0.0677598
0.0668081
0.0657732
0.0647155
0.0634296
0.062202
0.0602157
0.0585509
0.0545255
0.0518297
0.0719368
0.0718324
0.0711132
0.0704056
0.0695175
0.0686076
0.0676148
0.0665816
0.0654636
0.0642987
0.0629274
0.0615557
0.0595726
0.0577894
0.0543385
0.051824
0.0725988
0.0723621
0.071441
0.0705782
0.0695765
0.0685731
0.0674999
0.0663853
0.0651837
0.0639102
0.0624409
0.0609062
0.0588729
0.0569032
0.053785
0.0512438
0.0738431
0.0731636
0.071899
0.070801
0.069675
0.0685849
0.0674528
0.066287
0.0650407
0.0637136
0.0622124
0.060614
0.0586208
0.0566028
0.053784
0.0512555
0.0756206
0.0739865
0.0723802
0.0709938
0.069764
0.0685993
0.0674196
0.066212
0.0649287
0.0635584
0.0620277
0.0603767
0.0583994
0.0563371
0.0536986
0.0511794
0.0799652
0.0746467
0.0727682
0.0710928
0.0698143
0.0686267
0.0674514
0.0662532
0.0649831
0.0636254
0.0621145
0.0604765
0.0585324
0.056478
0.0538964
0.051358
0.0712608
0.0712259
0.0707851
0.0703144