/*--------------------------------*- C++ -*----------------------------------*\
| =========                 |                                                 |
| \\      /  F ield         | OpenFOAM: The Open Source CFD Toolbox           |
|  \\    /   O peration     | Version:  v1912                                 |
|   \\  /    A nd           | Website:  www.openfoam.com                      |
|    \\/     M anipulation  |                                                 |
\*---------------------------------------------------------------------------*/
FoamFile
{
    version     2.0;
    format      ascii;
    class       volVectorField;
    location    "0.18/fluid";
    object      U;
}
// * * * * * * * * * * * * * * * * * * * * * * * * * * * * * * * * * * * * * //

dimensions      [0 1 -1 0 0 0 0];


internalField   nonuniform List<vector> 
14592
(
(0.0893139 0.0140912 9.1807e-05)
(0.079974 0.00746394 -0.000302315)
(0.0724388 0.00382894 -0.000838084)
(0.0692033 0.00166896 -0.00145697)
(0.0672674 0.000845032 -0.00226235)
(0.0659499 0.000518259 -0.00328958)
(0.0648094 0.000411494 -0.00460047)
(0.0636281 0.000392039 -0.00628219)
(0.0622268 0.000416005 -0.00846475)
(0.0606412 0.000449401 -0.0113578)
(0.0583237 0.000496393 -0.015253)
(0.0559357 0.000462942 -0.0206828)
(0.0511629 0.000435056 -0.0284845)
(0.0467855 -2.31618e-05 -0.039986)
(0.0336207 -0.000308749 -0.0571757)
(0.0198183 -0.00271774 -0.0637848)
(0.103909 0.0128018 -6.83262e-05)
(0.104621 0.00917972 -0.000688768)
(0.103884 0.00589412 -0.00144402)
(0.102477 0.00348779 -0.00230092)
(0.101074 0.00234887 -0.00340656)
(0.0996699 0.0018508 -0.00482711)
(0.0982218 0.00171925 -0.00665151)
(0.0965931 0.00179342 -0.00900325)
(0.0946057 0.00200696 -0.0120646)
(0.0922795 0.00231367 -0.0161257)
(0.0889428 0.00270467 -0.0215934)
(0.0852641 0.00308309 -0.0291939)
(0.078364 0.00349986 -0.0400427)
(0.0713028 0.00353205 -0.0559447)
(0.0519852 0.00353496 -0.0790704)
(0.031214 0.000806223 -0.0877906)
(0.103214 0.00788606 -7.99812e-05)
(0.105305 0.0081933 -0.000718006)
(0.106452 0.00643835 -0.00148631)
(0.106082 0.00467366 -0.00235495)
(0.105383 0.0036652 -0.00347494)
(0.104359 0.00320503 -0.00491396)
(0.103145 0.00315419 -0.00676158)
(0.101659 0.00339436 -0.009143)
(0.0997568 0.00386729 -0.012243)
(0.0974692 0.00453185 -0.016359)
(0.0940978 0.00537236 -0.0219052)
(0.0903003 0.006309 -0.0296403)
(0.0830612 0.00734283 -0.0406981)
(0.0754524 0.00812693 -0.0570182)
(0.0548865 0.00861304 -0.0807739)
(0.0324666 0.00572141 -0.0902032)
(0.101662 0.00559249 -4.76711e-05)
(0.103492 0.00697808 -0.00065986)
(0.105163 0.00613138 -0.00140844)
(0.105455 0.00502077 -0.00225573)
(0.105335 0.00433133 -0.00334635)
(0.104726 0.0040771 -0.0047436)
(0.103827 0.00421068 -0.00653252)
(0.102592 0.00467142 -0.00883334)
(0.100905 0.00543159 -0.0118237)
(0.0988107 0.00647823 -0.0157956)
(0.095594 0.00781589 -0.0211505)
(0.0919041 0.00940917 -0.0286569)
(0.0846244 0.0112568 -0.0394193)
(0.0768278 0.0130547 -0.055489)
(0.0557007 0.0144681 -0.0789876)
(0.032396 0.0108728 -0.0889479)
(0.101003 0.00407641 3.34786e-06)
(0.102507 0.0057748 -0.000566247)
(0.104221 0.00559593 -0.00128432)
(0.104831 0.00505323 -0.00209943)
(0.105086 0.0047238 -0.00314509)
(0.104824 0.0047307 -0.00447774)
(0.104245 0.00509305 -0.00617508)
(0.103312 0.00580279 -0.0083483)
(0.101927 0.0068658 -0.0111617)
(0.100147 0.00830274 -0.0148924)
(0.0972533 0.0101399 -0.0199135)
(0.0938849 0.0123931 -0.0269862)
(0.0868291 0.0150545 -0.0371429)
(0.0790905 0.0178613 -0.0525587)
(0.0573695 0.0202273 -0.0751945)
(0.0328794 0.0155896 -0.0857097)
(0.100715 0.00313316 6.40839e-05)
(0.10201 0.0047714 -0.000453816)
(0.1037 0.00495396 -0.00113538)
(0.104518 0.00480519 -0.00191211)
(0.105055 0.00478943 -0.00290365)
(0.105096 0.00505449 -0.00415815)
(0.104828 0.00565172 -0.00574412)
(0.104217 0.00661225 -0.0077612)
(0.103176 0.00797967 -0.0103568)
(0.101768 0.00982995 -0.0137887)
(0.0992747 0.012251 -0.0183941)
(0.0963007 0.0154051 -0.0249221)
(0.0895417 0.0194109 -0.0343103)
(0.0819088 0.0243379 -0.0488825)
(0.0595543 0.0295652 -0.0703676)
(0.0337128 0.025162 -0.0816549)
(0.100608 0.00236095 0.000133338)
(0.101821 0.00382446 -0.000325783)
(0.103527 0.00423996 -0.000965864)
(0.104506 0.00439027 -0.0016988)
(0.105273 0.00464471 -0.00262805)
(0.105587 0.00514233 -0.00379167)
(0.105632 0.00594935 -0.00524618)
(0.105385 0.00712198 -0.00707442)
(0.104789 0.00872962 -0.00939736)
(0.103942 0.0108907 -0.0124339)
(0.102202 0.0137272 -0.0164507)
(0.100216 0.0175238 -0.0221169)
(0.0947632 0.022445 -0.0301492)
(0.0886999 0.0289104 -0.0428885)
(0.0669095 0.0362232 -0.0614597)
(0.0402721 0.0314073 -0.0731246)
(0.100579 0.001662 0.000207453)
(0.101804 0.00288505 -0.000188834)
(0.103586 0.003436 -0.000784663)
(0.104718 0.00380797 -0.00147095)
(0.105689 0.00428328 -0.00233379)
(0.10625 0.00497467 -0.0034006)
(0.106587 0.00595175 -0.00471541)
(0.106688 0.00728825 -0.00634386)
(0.106525 0.00907941 -0.00838124)
(0.106207 0.0115029 -0.0110085)
(0.105165 0.01476 -0.0144293)
(0.104024 0.0194388 -0.0192357)
(0.0997011 0.0260661 -0.0259509)
(0.0950757 0.0369797 -0.0369174)
(0.0742316 0.0528351 -0.0527735)
(0.0501413 0.0659745 -0.0658896)
(0.0892712 0.0140941 -0.000109093)
(0.0797831 0.00747414 -0.000563926)
(0.0720455 0.00383876 -0.00105772)
(0.0686277 0.00167955 -0.00160867)
(0.0664912 0.000858503 -0.00233626)
(0.0649469 0.000536135 -0.00328158)
(0.0635249 0.000435784 -0.00450185)
(0.0619835 0.000425392 -0.00607091)
(0.0601121 0.000462926 -0.00809614)
(0.0579137 0.000516595 -0.0107257)
(0.0548104 0.000597749 -0.0141663)
(0.0513921 0.000621245 -0.0186385)
(0.0454999 0.000699393 -0.0245863)
(0.0394355 0.000456393 -0.0316871)
(0.0260409 0.000473008 -0.0402829)
(0.0106614 -0.00114653 -0.0334903)
(0.103851 0.0128184 -0.000307384)
(0.104369 0.00921384 -0.0010054)
(0.103361 0.00593575 -0.00171311)
(0.101693 0.00353793 -0.00248473)
(0.100002 0.00241298 -0.00348964)
(0.0982696 0.0019352 -0.00480209)
(0.096415 0.00183221 -0.00650585)
(0.0942656 0.0019455 -0.0087076)
(0.0915961 0.00221275 -0.0115599)
(0.0883748 0.00259171 -0.0152746)
(0.0838744 0.00308363 -0.0201443)
(0.0786661 0.00359612 -0.0265012)
(0.0700208 0.00420964 -0.0349373)
(0.0604875 0.0045099 -0.045153)
(0.0405322 0.00483711 -0.0572459)
(0.0176993 0.00240584 -0.0479067)
(0.103157 0.00791878 -0.000323155)
(0.105052 0.00825508 -0.0010411)
(0.105924 0.00651756 -0.00176135)
(0.10529 0.00477098 -0.0025433)
(0.1043 0.00378928 -0.00356091)
(0.102945 0.00336786 -0.00489011)
(0.101322 0.0033716 -0.0066154)
(0.0993112 0.00368652 -0.00884492)
(0.0967202 0.00426095 -0.0117332)
(0.0935283 0.00505944 -0.0154979)
(0.088974 0.00607943 -0.0204361)
(0.0836211 0.00723772 -0.0269005)
(0.0745845 0.00856756 -0.0354865)
(0.0644386 0.00965811 -0.0459418)
(0.0431634 0.0104658 -0.0583162)
(0.0185879 0.00719213 -0.0487867)
(0.101607 0.0056371 -0.000291836)
(0.103243 0.00706176 -0.000985282)
(0.104647 0.00624072 -0.00168622)
(0.104684 0.00515664 -0.00244743)
(0.104284 0.00450532 -0.00343673)
(0.103358 0.00430618 -0.00472576)
(0.102067 0.00451763 -0.00639471)
(0.100331 0.00508593 -0.00854709)
(0.0979846 0.0059935 -0.0113308)
(0.0950242 0.00723704 -0.0149587)
(0.090666 0.00884111 -0.0197161)
(0.0854739 0.0107675 -0.0259643)
(0.0764328 0.0130617 -0.0342715)
(0.0661429 0.0153087 -0.0444667)
(0.0442719 0.0172061 -0.0565628)
(0.0187176 0.0128506 -0.0473767)
(0.10095 0.00413261 -0.000242019)
(0.102267 0.00587957 -0.000894345)
(0.103724 0.00573366 -0.00156572)
(0.104092 0.00522519 -0.00229591)
(0.104084 0.00494454 -0.003242)
(0.103525 0.005022 -0.00446908)
(0.102582 0.0054845 -0.00605044)
(0.101185 0.00633348 -0.00808136)
(0.099188 0.00758854 -0.0106978)
(0.0966063 0.00928432 -0.0141006)
(0.0926482 0.0114742 -0.018551)
(0.0878822 0.0141728 -0.0244114)
(0.0791489 0.0174372 -0.032194)
(0.0690281 0.0208493 -0.0418518)
(0.046479 0.0238937 -0.053318)
(0.0195747 0.0181368 -0.0447542)
(0.100663 0.00319806 -0.000182855)
(0.101779 0.00489214 -0.000785177)
(0.103226 0.00511317 -0.00142127)
(0.103816 0.0050046 -0.00211451)
(0.10411 0.00504613 -0.00300861)
(0.10388 0.00539441 -0.00416078)
(0.103281 0.00611072 -0.00563575)
(0.102251 0.00723895 -0.00751839)
(0.100657 0.00884163 -0.00992964)
(0.0985262 0.0110173 -0.0130549)
(0.0950596 0.0138955 -0.0171257)
(0.0908121 0.0176564 -0.0225054)
(0.0824704 0.022527 -0.0296334)
(0.0725975 0.0284101 -0.038626)
(0.0493234 0.034852 -0.0492918)
(0.0208718 0.0290506 -0.0416123)
(0.100558 0.00243238 -0.000115576)
(0.101602 0.00395689 -0.000661038)
(0.103078 0.00441478 -0.00125712)
(0.103847 0.00460954 -0.00190823)
(0.104394 0.00492737 -0.00274256)
(0.104468 0.00551728 -0.00380784)
(0.104224 0.00645686 -0.00515779)
(0.103615 0.00781738 -0.00686255)
(0.102549 0.00969042 -0.00902041)
(0.101098 0.012223 -0.0117874)
(0.098547 0.0155866 -0.0153405)
(0.0955326 0.0200989 -0.0200056)
(0.0887606 0.0260572 -0.0260747)
(0.0808819 0.0337153 -0.0338128)
(0.0581382 0.0426304 -0.0427543)
(0.0287575 0.0360252 -0.0361273)
(0.100531 0.00173675 -4.37367e-05)
(0.101597 0.00302332 -0.00052843)
(0.103164 0.0036186 -0.00108186)
(0.104106 0.00403715 -0.0016881)
(0.104881 0.00457895 -0.00245868)
(0.105233 0.00536738 -0.00343135)
(0.105325 0.00648456 -0.00464835)
(0.105125 0.00802142 -0.00616472)
(0.104573 0.010099 -0.00805654)
(0.103766 0.012933 -0.0104512)
(0.102061 0.0167879 -0.0134764)
(0.100109 0.0223296 -0.0174249)
(0.094688 0.030279 -0.022456)
(0.0886599 0.0429738 -0.029001)
(0.0669 0.0615604 -0.0363394)
(0.0402844 0.0732638 -0.0315044)
(0.0892371 0.0140968 -0.000227758)
(0.0796223 0.00748343 -0.00069746)
(0.071706 0.00384793 -0.00114148)
(0.068118 0.00168948 -0.00162187)
(0.0657898 0.000870983 -0.00226063)
(0.0640253 0.00055239 -0.00309985)
(0.0623285 0.000457198 -0.00419039)
(0.0604306 0.000453371 -0.00559363)
(0.0580852 0.0004991 -0.00739857)
(0.0552399 0.000562227 -0.0097152)
(0.0512773 0.000654165 -0.0127113)
(0.0466577 0.000689286 -0.0164953)
(0.039419 0.000777934 -0.0214243)
(0.0315366 0.00056527 -0.0269714)
(0.0182843 0.000550397 -0.0333036)
(0.00445051 -0.00088634 -0.0274641)
(0.103805 0.0128342 -0.000439156)
(0.104155 0.00924598 -0.00114969)
(0.102906 0.00597521 -0.0017933)
(0.100995 0.00358547 -0.00247205)
(0.0990301 0.00247352 -0.00335861)
(0.0969814 0.00201452 -0.00452749)
(0.0947335 0.00193768 -0.00605389)
(0.092076 0.00208615 -0.0080273)
(0.0887334 0.00240017 -0.0105741)
(0.0846011 0.00283918 -0.0138535)
(0.0788918 0.00340845 -0.018098)
(0.0720241 0.00401272 -0.0234844)
(0.06149 0.00473923 -0.0304628)
(0.049521 0.00515839 -0.0384281)
(0.0296153 0.00555628 -0.0472629)
(0.00878911 0.00305934 -0.0389618)
(0.103111 0.00795 -0.00045673)
(0.104836 0.00831373 -0.00118765)
(0.105465 0.0065928 -0.00184291)
(0.104585 0.00486331 -0.00253064)
(0.103319 0.00390674 -0.00342826)
(0.101645 0.00352163 -0.00461198)
(0.0996243 0.00357636 -0.00615776)
(0.0971014 0.0039608 -0.00815638)
(0.0938301 0.00462892 -0.0107359)
(0.0897158 0.00554962 -0.0140601)
(0.0839303 0.00673015 -0.018365)
(0.0768847 0.00808069 -0.0238425)
(0.0658972 0.00965546 -0.0309435)
(0.0532375 0.0109763 -0.0390924)
(0.0319389 0.0119973 -0.0481257)
(0.00937501 0.0083346 -0.0396526)
(0.101563 0.00567966 -0.0004278)
(0.103033 0.00714129 -0.0011364)
(0.1042 0.00634455 -0.00177369)
(0.103999 0.0052855 -0.00244226)
(0.103333 0.00467004 -0.00331387)
(0.1021 0.00452267 -0.00446084)
(0.10043 0.00480728 -0.00595527)
(0.0982028 0.00547652 -0.00788389)
(0.0952026 0.00652223 -0.0103691)
(0.0913537 0.0079498 -0.013571)
(0.0857989 0.00980197 -0.0177159)
(0.0789555 0.0120358 -0.0230049)
(0.0679791 0.0147378 -0.0298683)
(0.0551848 0.0173854 -0.037803)
(0.0332159 0.0197129 -0.0466237)
(0.00956918 0.0147496 -0.0384836)
(0.100907 0.00418614 -0.000381471)
(0.102064 0.00597908 -0.00105211)
(0.103295 0.00586433 -0.00166207)
(0.103436 0.00538814 -0.00230211)
(0.103177 0.00515344 -0.00313413)
(0.102332 0.00529735 -0.00422451)
(0.101035 0.00585423 -0.00563923)
(0.0991817 0.00683458 -0.00745796)
(0.0965761 0.0082714 -0.00979299)
(0.0931664 0.010213 -0.012795)
(0.088082 0.0127401 -0.0166712)
(0.0817576 0.0158667 -0.021628)
(0.0711532 0.019715 -0.0280527)
(0.0586009 0.0237213 -0.0355573)
(0.0358319 0.0274536 -0.0439067)
(0.0106164 0.0208762 -0.0363381)
(0.100622 0.00325977 -0.000326506)
(0.101586 0.00500667 -0.000950921)
(0.102817 0.00526406 -0.00152833)
(0.103196 0.00519339 -0.00213441)
(0.103258 0.00528892 -0.00291881)
(0.102766 0.00571564 -0.00394077)
(0.101845 0.00654431 -0.0052587)
(0.100401 0.0078311 -0.00694327)
(0.0982552 0.00965734 -0.00909387)
(0.0953738 0.0121439 -0.0118491)
(0.0908726 0.0154633 -0.0153911)
(0.0851915 0.0198141 -0.0199327)
(0.0750716 0.0255346 -0.0258024)
(0.0628889 0.0323683 -0.0327628)
(0.039258 0.0400377 -0.0404943)
(0.0121989 0.0332933 -0.0336986)
(0.100519 0.00250017 -0.000264102)
(0.101419 0.00408237 -0.000835947)
(0.102694 0.0045803 -0.00137648)
(0.103269 0.00481699 -0.0019439)
(0.103605 0.00519461 -0.00267362)
(0.103445 0.00587158 -0.00361642)
(0.102918 0.00693651 -0.00482106)
(0.101952 0.00847533 -0.00634579)
(0.100412 0.0106023 -0.00827109)
(0.0983271 0.0134938 -0.010713)
(0.0948981 0.0173758 -0.0138104)
(0.0906873 0.0226033 -0.0177572)
(0.0823791 0.0296209 -0.0227701)
(0.0725461 0.0385331 -0.0287707)
(0.0493094 0.0491728 -0.035262)
(0.0208746 0.0415126 -0.0294076)
(0.100494 0.00180758 -0.00019756)
(0.101425 0.00315419 -0.000713233)
(0.102806 0.00379133 -0.00121446)
(0.103571 0.00425383 -0.00174071)
(0.104159 0.00485835 -0.00241209)
(0.104307 0.00573838 -0.00327043)
(0.104158 0.00698812 -0.00435441)
(0.103659 0.0087154 -0.00570931)
(0.102716 0.0110678 -0.00739661)
(0.101394 0.0143003 -0.00950968)
(0.0989732 0.0187481 -0.0121459)
(0.0960701 0.0251578 -0.0154814)
(0.0893757 0.0344728 -0.0196243)
(0.081818 0.0490155 -0.0246649)
(0.0595306 0.0705455 -0.0299353)
(0.0337312 0.0818974 -0.025489)
(0.0892099 0.0140993 -0.000278068)
(0.0794888 0.00749165 -0.000721472)
(0.07142 0.00385617 -0.00110466)
(0.0676829 0.0016985 -0.00150841)
(0.0651865 0.000882357 -0.00204588)
(0.063232 0.000567384 -0.00275505)
(0.0613068 0.000477398 -0.00367649)
(0.0591297 0.000480884 -0.00485404)
(0.0564456 0.000537111 -0.00634818)
(0.0531883 0.000615851 -0.008218)
(0.0487781 0.000731589 -0.0105564)
(0.0436477 0.000806122 -0.0133409)
(0.0361073 0.000955182 -0.0167343)
(0.027969 0.00085704 -0.0200744)
(0.0155935 0.000962786 -0.0232805)
(0.00334823 -0.000287553 -0.0177675)
(0.103767 0.0128485 -0.00048106)
(0.103976 0.00927491 -0.00114596)
(0.102521 0.00601083 -0.00170577)
(0.100396 0.00362842 -0.00228018)
(0.0981906 0.00252815 -0.00302938)
(0.095867 0.00208608 -0.00402045)
(0.0932887 0.00203292 -0.00531441)
(0.0902253 0.00221363 -0.00697699)
(0.0863863 0.00257121 -0.00909589)
(0.0816468 0.00306811 -0.0117625)
(0.0752587 0.0037151 -0.0151079)
(0.0676179 0.00442032 -0.0191342)
(0.0565517 0.00528135 -0.0240342)
(0.0441668 0.00587067 -0.0290001)
(0.0254185 0.00643949 -0.0336555)
(0.00684245 0.00394237 -0.0258108)
(0.103073 0.0079783 -0.000498376)
(0.104656 0.00836672 -0.00118242)
(0.105076 0.00666077 -0.00175256)
(0.10398 0.00494664 -0.00233455)
(0.102471 0.00401252 -0.00309306)
(0.10052 0.00365974 -0.00409676)
(0.0981661 0.00375977 -0.00540735)
(0.0952341 0.00420577 -0.00709153)
(0.0914618 0.00495648 -0.00923822)
(0.0867343 0.00598458 -0.0119419)
(0.0802595 0.00730561 -0.0153353)
(0.0724301 0.00882561 -0.0194291)
(0.0608916 0.0106161 -0.0244123)
(0.0478046 0.0121528 -0.0294874)
(0.0276632 0.0133853 -0.0342325)
(0.00739656 0.00945519 -0.0261993)
(0.101526 0.00571824 -0.000473035)
(0.102857 0.0072132 -0.00113771)
(0.103822 0.00643833 -0.00169203)
(0.103412 0.00540168 -0.00225727)
(0.102513 0.00481816 -0.00299318)
(0.101014 0.00471669 -0.00396509)
(0.0990244 0.00506571 -0.0052315)
(0.0964067 0.00582298 -0.00685587)
(0.092928 0.00698757 -0.00892271)
(0.0884939 0.00857062 -0.0115237)
(0.0822785 0.0106275 -0.0147846)
(0.0746852 0.0131074 -0.0187241)
(0.0631743 0.0161241 -0.0235158)
(0.0499664 0.0190696 -0.0284172)
(0.0291054 0.0216964 -0.0329933)
(0.00768205 0.0162728 -0.0252323)
(0.100872 0.00423461 -0.000432223)
(0.101895 0.00606901 -0.00106362)
(0.102932 0.00598226 -0.00159401)
(0.102876 0.00553491 -0.0021344)
(0.102397 0.00534105 -0.00283599)
(0.101303 0.00554365 -0.00375908)
(0.0997088 0.00618313 -0.00495715)
(0.0974932 0.00727692 -0.00648812)
(0.0944447 0.00886775 -0.00842885)
(0.0904958 0.0110119 -0.0108648)
(0.0848001 0.0138074 -0.0139084)
(0.0777864 0.0172579 -0.0175866)
(0.0666808 0.0215243 -0.0220445)
(0.0537462 0.0259213 -0.0266327)
(0.0319922 0.0300612 -0.0308902)
(0.00884766 0.0228473 -0.0236104)
(0.100589 0.00331559 -0.000383839)
(0.101425 0.0051101 -0.000974672)
(0.102473 0.00540012 -0.00147658)
(0.102668 0.00536328 -0.00198743)
(0.102525 0.00550669 -0.00264778)
(0.101804 0.00600242 -0.00351192)
(0.100614 0.0069288 -0.00462716)
(0.0988427 0.00835106 -0.00604444)
(0.0962979 0.0103635 -0.0078309)
(0.0929334 0.0130995 -0.0100641)
(0.0878806 0.0167566 -0.0128395)
(0.0815851 0.0215278 -0.0161949)
(0.0710031 0.0278111 -0.0202369)
(0.0584822 0.0351989 -0.0244393)
(0.0357595 0.0435013 -0.0282951)
(0.0105707 0.0359851 -0.0216572)
(0.100487 0.00256142 -0.000328958)
(0.101268 0.0041956 -0.000873656)
(0.102372 0.00472945 -0.00134334)
(0.102776 0.00500351 -0.00182062)
(0.102927 0.00543406 -0.00243372)
(0.102563 0.00618744 -0.00322988)
(0.101799 0.00736089 -0.00424872)
(0.10055 0.00905092 -0.0055318)
(0.0986688 0.011387 -0.00713254)
(0.0961793 0.0145613 -0.00911435)
(0.0922926 0.0188296 -0.0115446)
(0.0875956 0.0245468 -0.0144607)
(0.0789223 0.0322309 -0.0179021)
(0.068879 0.0418219 -0.0214887)
(0.0464132 0.0532831 -0.0246236)
(0.0195478 0.044734 -0.0188029)
(0.100464 0.00187148 -0.000270493)
(0.101284 0.00327219 -0.0007659)
(0.102507 0.00394688 -0.00120125)
(0.103117 0.00444851 -0.00164278)
(0.10354 0.00510849 -0.00220546)
(0.10351 0.0060687 -0.0029291)
(0.103158 0.00743272 -0.00384522)
(0.102422 0.0093202 -0.00498563)
(0.101197 0.011896 -0.00638985)
(0.0995499 0.0154351 -0.00810716)
(0.0967641 0.0203091 -0.010178)
(0.0935 0.027279 -0.0126412)
(0.0865356 0.0373854 -0.0154717)
(0.0789123 0.0528072 -0.0184473)
(0.0573018 0.0755529 -0.0208943)
(0.0328788 0.0861824 -0.0162164)
(0.0891884 0.0141014 -0.000273224)
(0.0793816 0.00749853 -0.000655554)
(0.071188 0.00386311 -0.000966806)
(0.0673268 0.0017061 -0.00128806)
(0.0646898 0.000891875 -0.00171535)
(0.0625762 0.000579798 -0.00228046)
(0.0604615 0.000493814 -0.00301452)
(0.058054 0.000502583 -0.00394888)
(0.0550926 0.000565618 -0.00512604)
(0.0514967 0.000653211 -0.00658122)
(0.0467184 0.000779807 -0.00837585)
(0.0411634 0.000869825 -0.0104644)
(0.0333657 0.00103624 -0.0129528)
(0.0250445 0.000976243 -0.0153077)
(0.013443 0.00109902 -0.017435)
(0.00250715 -8.31199e-05 -0.0132915)
(0.103737 0.0128607 -0.000450019)
(0.103832 0.00929947 -0.00102009)
(0.102206 0.00604112 -0.00147732)
(0.0999043 0.0036649 -0.00193668)
(0.0974975 0.00257441 -0.00253425)
(0.0949443 0.00214645 -0.00332592)
(0.092092 0.00211283 -0.00435898)
(0.0886951 0.00231975 -0.00568102)
(0.0844528 0.00271187 -0.00735381)
(0.0792221 0.00325314 -0.0094336)
(0.072291 0.00395653 -0.0120052)
(0.0640351 0.00473008 -0.01503)
(0.0525602 0.00567339 -0.0186226)
(0.0399137 0.00635558 -0.0221195)
(0.0222075 0.0069958 -0.0251923)
(0.00547591 0.00443886 -0.0192325)
(0.103044 0.00800244 -0.000465318)
(0.104511 0.00841185 -0.00105187)
(0.10476 0.00671862 -0.0015177)
(0.103484 0.00501749 -0.00198313)
(0.101772 0.00410223 -0.00258817)
(0.0995878 0.00377656 -0.00339002)
(0.0969579 0.00391432 -0.00443659)
(0.0936895 0.00441125 -0.00577621)
(0.0895095 0.00522954 -0.00747159)
(0.0842852 0.00634437 -0.00958118)
(0.0772579 0.00777653 -0.0121909)
(0.0688023 0.00942719 -0.0152679)
(0.0568381 0.0113778 -0.0189233)
(0.0434786 0.0130663 -0.0224986)
(0.0243825 0.0144348 -0.0256304)
(0.00600346 0.0102717 -0.0195289)
(0.101498 0.00575116 -0.000444584)
(0.102716 0.0072745 -0.00101535)
(0.103514 0.00651818 -0.0014682)
(0.102931 0.00550045 -0.00191993)
(0.101836 0.0049438 -0.00250662)
(0.100114 0.0048808 -0.00328275)
(0.0978601 0.00528357 -0.00429378)
(0.0949208 0.00611391 -0.00558557)
(0.0910523 0.00737639 -0.00721763)
(0.0861432 0.00908638 -0.00924652)
(0.0793963 0.0113083 -0.0117535)
(0.0712003 0.013984 -0.0147124)
(0.0592713 0.0172457 -0.0182245)
(0.0457937 0.0204178 -0.0216729)
(0.025934 0.0232621 -0.0246879)
(0.00634403 0.0174687 -0.0188043)
(0.100845 0.00427597 -0.000411001)
(0.101759 0.00614565 -0.000954477)
(0.102638 0.00608264 -0.00138774)
(0.102417 0.00565963 -0.00181924)
(0.101753 0.00550013 -0.0023781)
(0.100451 0.00575193 -0.00311479)
(0.0986102 0.00646038 -0.00407091)
(0.0960962 0.00764842 -0.00528816)
(0.0926866 0.00936651 -0.00682045)
(0.0882986 0.0116771 -0.00872024)
(0.0821091 0.0146915 -0.0110597)
(0.0745374 0.0184045 -0.0138207)
(0.0630346 0.023006 -0.0170856)
(0.0498454 0.0277152 -0.0203084)
(0.0290135 0.0321727 -0.0231057)
(0.00758958 0.0244651 -0.0175969)
(0.100562 0.00336318 -0.000371217)
(0.101296 0.00519821 -0.000881395)
(0.102195 0.00551589 -0.00129136)
(0.102236 0.00550758 -0.00169881)
(0.101922 0.00569124 -0.00222424)
(0.10101 0.00624476 -0.00291334)
(0.0995946 0.00725263 -0.00380291)
(0.0975539 0.00878728 -0.00492941)
(0.0946836 0.0109534 -0.00633959)
(0.0909256 0.0138938 -0.00808048)
(0.0854275 0.017826 -0.0102122)
(0.0786333 0.0229375 -0.0127266)
(0.0676844 0.0296712 -0.0156798)
(0.0549379 0.0375013 -0.0186186)
(0.0330428 0.046296 -0.0211333)
(0.00942001 0.0381972 -0.0161141)
(0.100463 0.0026136 -0.00032611)
(0.101147 0.00429201 -0.000798423)
(0.102111 0.00485629 -0.00118205)
(0.102374 0.00516187 -0.00156222)
(0.10237 0.00563689 -0.0020494)
(0.101835 0.00645424 -0.00268375)
(0.100873 0.00771817 -0.00349619)
(0.0993895 0.00953369 -0.00451625)
(0.0972295 0.0120426 -0.00578077)
(0.0944091 0.0154493 -0.00732744)
(0.0901504 0.0200343 -0.0091972)
(0.0850524 0.0261518 -0.0113858)
(0.0760822 0.0343776 -0.0139051)
(0.065897 0.0445241 -0.0164133)
(0.0441373 0.0566451 -0.0184488)
(0.0186116 0.0474534 -0.0140434)
(0.100441 0.00192589 -0.00027809)
(0.101171 0.00337261 -0.000709948)
(0.102266 0.0040791 -0.00106552)
(0.102748 0.00461372 -0.00141663)
(0.103032 0.00532028 -0.001863)
(0.102853 0.00634758 -0.00243891)
(0.102331 0.00780678 -0.00316904)
(0.101398 0.00982704 -0.00407567)
(0.0999435 0.0125871 -0.00518535)
(0.0980314 0.0163777 -0.00652609)
(0.0949513 0.0216002 -0.00811962)
(0.0913912 0.0290261 -0.00996588)
(0.0842125 0.0397729 -0.0120324)
(0.0765601 0.0559064 -0.0140971)
(0.0555649 0.0796249 -0.0156566)
(0.0323219 0.0897977 -0.0120838)
(0.0891724 0.0141029 -0.000225625)
(0.0793008 0.00750391 -0.000519107)
(0.0710123 0.00386851 -0.00074871)
(0.0670558 0.00171208 -0.000982071)
(0.0643111 0.000899382 -0.00129174)
(0.0620773 0.000589639 -0.00170127)
(0.0598227 0.000506937 -0.00223187)
(0.0572513 0.000520221 -0.00290297)
(0.0541039 0.000589431 -0.0037396)
(0.050298 0.000685866 -0.00475624)
(0.0453231 0.00082473 -0.00598203)
(0.0395783 0.000934028 -0.00735871)
(0.0317544 0.00112614 -0.00893242)
(0.0234984 0.00111116 -0.0103166)
(0.0124241 0.00127196 -0.0114224)
(0.00226089 0.000126162 -0.00850039)
(0.103714 0.0128703 -0.00036215)
(0.103722 0.00931879 -0.000798149)
(0.101968 0.00606486 -0.00113678)
(0.099529 0.00369354 -0.00147169)
(0.0969676 0.00261067 -0.00190593)
(0.0942401 0.00219371 -0.00248094)
(0.0911842 0.00217532 -0.00322948)
(0.0875473 0.00240271 -0.0041818)
(0.0830292 0.00282192 -0.00537511)
(0.0774848 0.00339841 -0.00683573)
(0.0702472 0.00414715 -0.0086044)
(0.0616948 0.00497725 -0.0106191)
(0.050133 0.00599047 -0.0129212)
(0.0375592 0.00675328 -0.0150226)
(0.0205966 0.00746334 -0.0166658)
(0.00499272 0.0048532 -0.0124401)
(0.103021 0.00802145 -0.00037405)
(0.1044 0.00844735 -0.000822697)
(0.104519 0.00676405 -0.00116783)
(0.103105 0.00507307 -0.00150716)
(0.101236 0.00417247 -0.00194688)
(0.0988767 0.0038678 -0.00252936)
(0.0960413 0.0040347 -0.00328783)
(0.0925308 0.00457077 -0.00425305)
(0.0880723 0.0054407 -0.00546283)
(0.0825311 0.00662147 -0.0069448)
(0.0751924 0.00813749 -0.00874015)
(0.0664362 0.00988647 -0.0107899)
(0.0543791 0.0119566 -0.0131321)
(0.0410931 0.0137589 -0.0152802)
(0.0227455 0.0152294 -0.0169516)
(0.00551931 0.0108934 -0.0126244)
(0.101476 0.00577706 -0.000358708)
(0.102608 0.00732269 -0.000795672)
(0.10328 0.00658088 -0.00113117)
(0.102564 0.00557791 -0.00146036)
(0.101318 0.0050421 -0.00188658)
(0.0994276 0.00500883 -0.00245021)
(0.0969771 0.0054529 -0.00318275)
(0.093807 0.00633894 -0.00411325)
(0.0896731 0.00767531 -0.0052774)
(0.0844626 0.00947989 -0.00670167)
(0.0774194 0.0118228 -0.00842434)
(0.0689392 0.0146393 -0.0103913)
(0.0569222 0.0180731 -0.0126345)
(0.0435196 0.0214008 -0.0146956)
(0.0243762 0.0243886 -0.016289)
(0.00589965 0.018326 -0.0121177)
(0.100824 0.00430851 -0.000333713)
(0.101657 0.00620589 -0.000750426)
(0.102414 0.00616145 -0.00107142)
(0.102067 0.00575739 -0.00138569)
(0.101261 0.00562449 -0.00179147)
(0.0998009 0.00591422 -0.00232624)
(0.0977774 0.00667547 -0.00301881)
(0.0950495 0.00793501 -0.00389542)
(0.0913947 0.00974836 -0.0049881)
(0.0867303 0.0121814 -0.00632097)
(0.0802689 0.0153534 -0.00792684)
(0.0724405 0.0192501 -0.00975835)
(0.0608591 0.0240787 -0.0118362)
(0.047749 0.0289909 -0.0137503)
(0.0275791 0.0336437 -0.0152088)
(0.00719541 0.0255806 -0.0113029)
(0.100543 0.00340059 -0.000304137)
(0.101199 0.00526744 -0.000696116)
(0.101983 0.00560676 -0.000999854)
(0.101906 0.00562061 -0.00129641)
(0.101461 0.00583541 -0.00167764)
(0.100404 0.00643338 -0.0021776)
(0.0988222 0.0075034 -0.00282179)
(0.0965884 0.00912277 -0.00363289)
(0.0934981 0.0114029 -0.00463827)
(0.0894945 0.0144916 -0.00585895)
(0.0837551 0.0186176 -0.0073205)
(0.0767394 0.0239598 -0.00898403)
(0.0657246 0.0309861 -0.0108545)
(0.0530667 0.0390866 -0.0125852)
(0.0317701 0.0481626 -0.0138706)
(0.0090905 0.0396476 -0.0103079)
(0.100444 0.0026546 -0.000270605)
(0.101056 0.00436774 -0.00063446)
(0.101914 0.00495581 -0.000918717)
(0.102069 0.00528586 -0.00119519)
(0.101945 0.00579526 -0.00154839)
(0.10128 0.00666172 -0.00200843)
(0.100171 0.00799449 -0.00259675)
(0.0985196 0.00990421 -0.00333151)
(0.0961711 0.0125405 -0.00423378)
(0.0931457 0.0161142 -0.00531938)
(0.0886892 0.0209193 -0.00660276)
(0.0834235 0.0273027 -0.00805117)
(0.0744168 0.0358712 -0.00964455)
(0.0643522 0.0463452 -0.0111122)
(0.0431142 0.0588289 -0.0121224)
(0.0184022 0.0491831 -0.00898564)
(0.100424 0.00196863 -0.000234925)
(0.101087 0.00345147 -0.000568733)
(0.102084 0.00418281 -0.000832234)
(0.102468 0.00474305 -0.00108732)
(0.102645 0.00548557 -0.00141061)
(0.102352 0.0065643 -0.00182803)
(0.101704 0.00809574 -0.00235673)
(0.10063 0.0102153 -0.00301007)
(0.0990202 0.0131102 -0.00380257)
(0.0969455 0.0170794 -0.00474464)
(0.0937133 0.0225402 -0.00583955)
(0.0900428 0.0302608 -0.00706106)
(0.0828632 0.0413982 -0.00836414)
(0.0753777 0.0579307 -0.00956031)
(0.0548477 0.0821571 -0.0103012)
(0.0323238 0.0920193 -0.00773302)
(0.0891619 0.0141039 -0.000147283)
(0.0792465 0.00750761 -0.000332305)
(0.070894 0.00387217 -0.000472312)
(0.0668728 0.00171619 -0.000614127)
(0.0640553 0.000904498 -0.000801487)
(0.0617404 0.000596322 -0.00104933)
(0.0593923 0.000515775 -0.00136995)
(0.0567125 0.000531949 -0.00177407)
(0.0534437 0.00060492 -0.00227541)
(0.0495019 0.000706417 -0.00287995)
(0.0444022 0.000851599 -0.00360303)
(0.0385387 0.000970057 -0.004405)
(0.0307016 0.00117257 -0.00531124)
(0.0224994 0.00117624 -0.00609462)
(0.0117766 0.00134772 -0.00669788)
(0.00210355 0.000215523 -0.00498896)
(0.103699 0.0128768 -0.000233861)
(0.103648 0.00933209 -0.00050704)
(0.101806 0.00608117 -0.000714841)
(0.099275 0.00371323 -0.000918482)
(0.0966089 0.00263554 -0.00118178)
(0.0937636 0.00222607 -0.00153031)
(0.0905714 0.00221797 -0.00198337)
(0.0867756 0.00245909 -0.00255785)
(0.0820774 0.00289623 -0.00327427)
(0.0763308 0.0034956 -0.00414466)
(0.0689 0.00427298 -0.0051899)
(0.0601655 0.00513751 -0.00636576)
(0.04856 0.00619109 -0.00769258)
(0.0360563 0.00699755 -0.00888132)
(0.0195915 0.00774072 -0.00977517)
(0.0047014 0.00508711 -0.00729032)
(0.103007 0.00803454 -0.000240999)
(0.104326 0.00847178 -0.000522348)
(0.104356 0.00679529 -0.000734475)
(0.102849 0.00511129 -0.000940739)
(0.100874 0.00422069 -0.00120744)
(0.0983954 0.00393032 -0.00156051)
(0.0954224 0.00411696 -0.00201967)
(0.0917515 0.00467945 -0.00260207)
(0.0871109 0.00558397 -0.00332861)
(0.0813652 0.00680852 -0.00421204)
(0.0738298 0.00837949 -0.00527356)
(0.0648884 0.0101919 -0.00647051)
(0.0527833 0.0123374 -0.00782133)
(0.0395676 0.0142094 -0.00903737)
(0.0217222 0.0157389 -0.00994745)
(0.00522663 0.0112856 -0.00740291)
(0.101462 0.0057949 -0.000231795)
(0.102536 0.00735588 -0.000505787)
(0.103122 0.00662403 -0.000711987)
(0.102315 0.00563116 -0.000911948)
(0.100968 0.00510957 -0.00117041)
(0.0989631 0.00509653 -0.00151197)
(0.096381 0.00556859 -0.00195537)
(0.0930578 0.00649223 -0.00251675)
(0.0887503 0.00787816 -0.00321581)
(0.0833454 0.00974575 -0.00406466)
(0.0761148 0.0121684 -0.005083)
(0.0674591 0.0150769 -0.00623108)
(0.0553961 0.0186214 -0.00752421)
(0.0420631 0.0220477 -0.00868998)
(0.0234007 0.0251233 -0.00955648)
(0.00563009 0.0188828 -0.00710588)
(0.100811 0.00433094 -0.000216323)
(0.101588 0.00624739 -0.00047788)
(0.102263 0.00621569 -0.000675234)
(0.101831 0.00582458 -0.000866085)
(0.100929 0.00570983 -0.0011121)
(0.0993612 0.00602536 -0.00143611)
(0.0972151 0.00682238 -0.00185528)
(0.0943453 0.00813015 -0.00238413)
(0.0905304 0.0100074 -0.00304033)
(0.0856874 0.0125221 -0.00383473)
(0.0790541 0.0157985 -0.00478418)
(0.0710668 0.0198161 -0.00585309)
(0.059444 0.0247924 -0.00705113)
(0.046404 0.0298362 -0.00813324)
(0.0266793 0.0346123 -0.00892599)
(0.00695622 0.0263174 -0.00663331)
(0.10053 0.00342637 -0.000198154)
(0.101133 0.00531511 -0.00044448)
(0.101841 0.00566927 -0.000631204)
(0.101684 0.00569829 -0.000811203)
(0.10115 0.00593431 -0.00104223)
(0.0999943 0.00656247 -0.00134506)
(0.0983008 0.00767454 -0.00173489)
(0.095939 0.00935096 -0.00222417)
(0.092705 0.0117074 -0.00282789)
(0.088543 0.0148947 -0.0035552)
(0.0826514 0.0191487 -0.00441895)