/*--------------------------------*- C++ -*----------------------------------*\
| =========                 |                                                 |
| \\      /  F ield         | OpenFOAM: The Open Source CFD Toolbox           |
|  \\    /   O peration     | Version:  v1912                                 |
|   \\  /    A nd           | Website:  www.openfoam.com                      |
|    \\/     M anipulation  |                                                 |
\*---------------------------------------------------------------------------*/
FoamFile
{
    version     2.0;
    format      ascii;
    class       volVectorField;
    location    "0.02/solid";
    object      D;
}
// * * * * * * * * * * * * * * * * * * * * * * * * * * * * * * * * * * * * * //

dimensions      [0 1 0 0 0 0 0];


internalField   nonuniform List<vector> 
256
(
(-4.30053e-08 2.85566e-09 -6.44209e-08)
(-1.3438e-08 1.26687e-08 -3.98424e-08)
(1.25563e-08 1.20395e-08 -4.21324e-08)
(4.15115e-08 1.57977e-09 -7.21688e-08)
(-6.32636e-08 4.23524e-08 -1.42182e-07)
(-2.20096e-08 4.66145e-08 -1.13768e-07)
(1.99912e-08 4.59751e-08 -1.18708e-07)
(5.9938e-08 4.10248e-08 -1.57893e-07)
(-6.0497e-08 9.34508e-08 -2.00344e-07)
(-2.17408e-08 9.32095e-08 -1.75325e-07)
(1.91168e-08 9.30083e-08 -1.81591e-07)
(5.62516e-08 9.31538e-08 -2.19952e-07)
(-5.44989e-08 1.49978e-07 -2.5105e-07)
(-1.9738e-08 1.50167e-07 -2.27184e-07)
(1.64278e-08 1.50622e-07 -2.34114e-07)
(4.93959e-08 1.51424e-07 -2.72692e-07)
(-5.23677e-08 2.10248e-07 -2.99287e-07)
(-1.96189e-08 2.14491e-07 -2.74891e-07)
(1.47729e-08 2.15784e-07 -2.8219e-07)
(4.55882e-08 2.14084e-07 -3.22103e-07)
(-6.07139e-08 2.74789e-07 -3.50207e-07)
(-2.47302e-08 2.83989e-07 -3.25222e-07)
(1.6802e-08 2.86295e-07 -3.32738e-07)
(5.07168e-08 2.81624e-07 -3.73722e-07)
(-8.9514e-08 3.48035e-07 -4.0994e-07)
(-3.81609e-08 3.54207e-07 -3.86852e-07)
(2.50909e-08 3.57671e-07 -3.94491e-07)
(7.42609e-08 3.58414e-07 -4.33797e-07)
(-1.38899e-07 4.23984e-07 -4.74988e-07)
(-5.39418e-08 4.04765e-07 -4.58984e-07)
(3.34142e-08 4.09346e-07 -4.66688e-07)
(1.16201e-07 4.3845e-07 -4.98884e-07)
(3.66855e-09 3.07353e-08 -4.26287e-08)
(-1.66294e-09 2.79541e-08 -4.3786e-08)
(3.61278e-09 2.81043e-08 -4.53054e-08)
(-2.19402e-09 3.08431e-08 -4.72476e-08)
(5.96195e-09 7.98512e-08 -1.13004e-07)
(-1.04975e-09 7.79767e-08 -1.18734e-07)
(5.94857e-09 7.80436e-08 -1.22403e-07)
(-2.11334e-09 7.96363e-08 -1.23893e-07)
(1.04719e-08 1.30887e-07 -1.71698e-07)
(1.2924e-09 1.29484e-07 -1.80506e-07)
(5.72504e-09 1.2966e-07 -1.85443e-07)
(-4.88395e-09 1.31051e-07 -1.86327e-07)
(1.54639e-08 1.85594e-07 -2.22994e-07)
(3.54004e-09 1.86019e-07 -2.32786e-07)
(4.55776e-09 1.86625e-07 -2.38437e-07)
(-9.05896e-09 1.87101e-07 -2.3982e-07)
(1.67694e-08 2.4306e-07 -2.71151e-07)
(3.6213e-09 2.47913e-07 -2.80743e-07)
(4.0825e-09 2.49241e-07 -2.86822e-07)
(-1.09557e-08 2.46778e-07 -2.89345e-07)
(6.66657e-09 3.01847e-07 -3.19691e-07)
(-2.00442e-09 3.11954e-07 -3.28759e-07)
(7.35954e-09 3.14241e-07 -3.35108e-07)
(-3.36365e-09 3.08504e-07 -3.38762e-07)
(-2.71732e-08 3.59753e-07 -3.67525e-07)
(-1.70231e-08 3.65473e-07 -3.76543e-07)
(1.76877e-08 3.68888e-07 -3.83047e-07)
(2.56552e-08 3.69957e-07 -3.87099e-07)
(-8.62605e-08 4.01963e-07 -3.98939e-07)
(-3.49044e-08 3.75662e-07 -4.08411e-07)
(2.83592e-08 3.80155e-07 -4.14957e-07)
(7.75264e-08 4.16328e-07 -4.1866e-07)
(2.68988e-08 3.84677e-08 -3.06938e-08)
(7.38781e-09 2.97954e-08 -3.62537e-08)
(-3.99302e-09 2.99033e-08 -3.73022e-08)
(-2.36307e-08 3.7772e-08 -3.37584e-08)
(4.74202e-08 9.76442e-08 -8.92211e-08)
(1.65059e-08 9.0854e-08 -1.00808e-07)
(-7.29072e-09 9.08333e-08 -1.0342e-07)
(-3.8833e-08 9.64777e-08 -9.67809e-08)
(5.5288e-08 1.52895e-07 -1.42593e-07)
(2.12299e-08 1.49703e-07 -1.56755e-07)
(-7.48912e-09 1.4974e-07 -1.60411e-07)
(-4.26494e-08 1.52148e-07 -1.53237e-07)
(5.97213e-08 2.07471e-07 -1.9069e-07)
(2.38557e-08 2.07831e-07 -2.05621e-07)
(-7.21858e-09 2.08263e-07 -2.09954e-07)
(-4.45501e-08 2.08134e-07 -2.03417e-07)
(6.00179e-08 2.60942e-07 -2.34934e-07)
(2.39153e-08 2.66428e-07 -2.49791e-07)
(-6.3736e-09 2.67574e-07 -2.54574e-07)
(-4.42106e-08 2.63921e-07 -2.49094e-07)
(4.80147e-08 3.10953e-07 -2.75755e-07)
(1.7792e-08 3.21894e-07 -2.90096e-07)
(-1.69901e-09 3.24012e-07 -2.95184e-07)
(-3.3863e-08 3.16998e-07 -2.90902e-07)
(1.0195e-08 3.55058e-07 -3.09293e-07)
(1.38995e-09 3.60821e-07 -3.22848e-07)
(1.06205e-08 3.64086e-07 -3.28116e-07)
(-2.8224e-10 3.64779e-07 -3.25051e-07)
(-5.39808e-08 3.85447e-07 -3.25558e-07)
(-1.81009e-08 3.57236e-07 -3.38258e-07)
(2.33005e-08 3.61596e-07 -3.43558e-07)
(5.70699e-08 3.9945e-07 -3.41491e-07)
(3.37226e-08 4.1236e-08 -2.41965e-08)
(1.05957e-08 3.01335e-08 -2.74148e-08)
(-6.42628e-09 3.00993e-08 -2.81492e-08)
(-2.93737e-08 3.97575e-08 -2.62929e-08)
(6.21014e-08 1.05527e-07 -7.17208e-08)
(2.3798e-08 9.61077e-08 -7.86594e-08)
(-1.19314e-08 9.57749e-08 -8.05075e-08)
(-5.05055e-08 1.03073e-07 -7.6982e-08)
(7.27212e-08 1.64046e-07 -1.16625e-07)
(3.0325e-08 1.59538e-07 -1.25292e-07)
(-1.20682e-08 1.5923e-07 -1.27935e-07)
(-5.52964e-08 1.61992e-07 -1.24229e-07)
(7.74014e-08 2.1873e-07 -1.57851e-07)
(3.35615e-08 2.18838e-07 -1.67135e-07)
(-1.08076e-08 2.18946e-07 -1.70349e-07)
(-5.59218e-08 2.18222e-07 -1.67212e-07)
(7.71125e-08 2.68913e-07 -1.9496e-07)
(3.37816e-08 2.74705e-07 -2.04287e-07)
(-8.86336e-09 2.75563e-07 -2.07918e-07)
(-5.37914e-08 2.70896e-07 -2.05645e-07)
(6.39511e-08 3.1279e-07 -2.26745e-07)
(2.74993e-08 3.24264e-07 -2.35763e-07)
(-3.09064e-09 3.26135e-07 -2.39695e-07)
(-4.13821e-08 3.18015e-07 -2.38407e-07)
(2.43667e-08 3.50404e-07 -2.50088e-07)
(1.06078e-08 3.56671e-07 -2.58554e-07)
(1.03971e-08 3.59727e-07 -2.62669e-07)
(-5.37752e-09 3.59457e-07 -2.6238e-07)
(-4.15231e-08 3.787e-07 -2.60801e-07)
(-9.4207e-09 3.51039e-07 -2.68819e-07)
(2.41034e-08 3.5522e-07 -2.72956e-07)
(5.41818e-08 3.92149e-07 -2.73257e-07)
(3.46508e-08 4.2303e-08 -1.87307e-08)
(1.11128e-08 3.04358e-08 -1.99507e-08)
(-6.50913e-09 3.02889e-08 -2.04551e-08)
(-2.9646e-08 4.02841e-08 -2.01472e-08)
(6.48154e-08 1.08777e-07 -5.55963e-08)
(2.54885e-08 9.82883e-08 -5.84086e-08)
(-1.19964e-08 9.76638e-08 -5.96876e-08)
(-5.13276e-08 1.05261e-07 -5.91909e-08)
(7.6643e-08 1.68874e-07 -9.0787e-08)
(3.29492e-08 1.63651e-07 -9.44966e-08)
(-1.17391e-08 1.62994e-07 -9.63503e-08)
(-5.606e-08 1.65626e-07 -9.60674e-08)
(8.17547e-08 2.23505e-07 -1.23231e-07)
(3.67619e-08 2.23339e-07 -1.27371e-07)
(-9.7923e-09 2.23109e-07 -1.29666e-07)
(-5.59113e-08 2.21863e-07 -1.29867e-07)
(8.13742e-08 2.71802e-07 -1.51898e-07)
(3.7295e-08 2.77624e-07 -1.56168e-07)
(-7.08039e-09 2.78181e-07 -1.58809e-07)
(-5.26481e-08 2.72792e-07 -1.59628e-07)
(6.78543e-08 3.12843e-07 -1.75377e-07)
(3.11599e-08 3.24518e-07 -1.79578e-07)
(-5.93691e-10 3.26128e-07 -1.82482e-07)
(-3.90455e-08 3.17225e-07 -1.83959e-07)
(2.78701e-08 3.48503e-07 -1.91836e-07)
(1.43329e-08 3.55132e-07 -1.95844e-07)
(1.34876e-08 3.57962e-07 -1.98911e-07)
(-1.99641e-09 3.56843e-07 -2.00985e-07)
(-3.83221e-08 3.77032e-07 -1.99813e-07)
(-5.68488e-09 3.50086e-07 -2.03707e-07)
(2.76853e-08 3.54072e-07 -2.06787e-07)
(5.83749e-08 3.89867e-07 -2.09099e-07)
(3.42996e-08 4.26326e-08 -1.33751e-08)
(1.09887e-08 3.06341e-08 -1.37144e-08)
(-6.14019e-09 3.04093e-08 -1.40415e-08)
(-2.88996e-08 4.02595e-08 -1.42835e-08)
(6.42871e-08 1.09902e-07 -3.9626e-08)
(2.54947e-08 9.90966e-08 -4.04865e-08)
(-1.10216e-08 9.82566e-08 -4.13214e-08)
(-4.9631e-08 1.05634e-07 -4.19505e-08)
(7.63547e-08 1.70552e-07 -6.47153e-08)
(3.33272e-08 1.65016e-07 -6.59523e-08)
(-1.02515e-08 1.64084e-07 -6.71743e-08)
(-5.37563e-08 1.66395e-07 -6.81687e-08)
(8.17384e-08 2.2507e-07 -8.7796e-08)
(3.75384e-08 2.24694e-07 -8.92865e-08)
(-7.79847e-09 2.24184e-07 -9.08184e-08)
(-5.30127e-08 2.22518e-07 -9.21978e-08)
(8.14944e-08 2.72589e-07 -1.0793e-07)
(3.83975e-08 2.78311e-07 -1.09566e-07)
(-4.58556e-09 2.7861e-07 -1.11353e-07)
(-4.90867e-08 2.72748e-07 -1.13136e-07)
(6.80381e-08 3.12762e-07 -1.24075e-07)
(3.2524e-08 3.24422e-07 -1.25773e-07)
(2.33597e-09 3.25803e-07 -1.2776e-07)
(-3.48702e-08 3.16418e-07 -1.2993e-07)
(2.81634e-08 3.48221e-07 -1.35271e-07)
(1.59316e-08 3.54941e-07 -1.36973e-07)
(1.674e-08 3.5757e-07 -1.39087e-07)
(2.61714e-09 3.5593e-07 -1.41567e-07)
(-3.79074e-08 3.77255e-07 -1.41025e-07)
(-3.91557e-09 3.50613e-07 -1.42735e-07)
(3.1208e-08 3.54422e-07 -1.44855e-07)
(6.33141e-08 3.89539e-07 -1.47421e-07)
(3.39638e-08 4.26794e-08 -8.02233e-09)
(1.08583e-08 3.07087e-08 -8.0891e-09)
(-5.87865e-09 3.0435e-08 -8.27264e-09)
(-2.83391e-08 4.00915e-08 -8.52843e-09)
(6.35664e-08 1.10153e-07 -2.37189e-08)
(2.53075e-08 9.92948e-08 -2.39218e-08)
(-1.02794e-08 9.83171e-08 -2.43927e-08)
(-4.8236e-08 1.05413e-07 -2.50216e-08)
(7.55729e-08 1.70926e-07 -3.87012e-08)
(3.32743e-08 1.65274e-07 -3.9038e-08)
(-9.10918e-09 1.64159e-07 -3.97319e-08)
(-5.17862e-08 1.66175e-07 -4.06508e-08)
(8.10693e-08 2.25369e-07 -5.24412e-08)
(3.77135e-08 2.24861e-07 -5.29032e-08)
(-6.31111e-09 2.2416e-07 -5.37803e-08)
(-5.06048e-08 2.222e-07 -5.49492e-08)
(8.09748e-08 2.72681e-07 -6.43419e-08)
(3.88128e-08 2.78287e-07 -6.49079e-08)
(-2.79012e-09 2.78404e-07 -6.594e-08)
(-4.62975e-08 2.72257e-07 -6.73367e-08)
(6.76769e-08 3.12767e-07 -7.38078e-08)
(3.31643e-08 3.24337e-07 -7.44524e-08)
(4.3871e-09 3.25553e-07 -7.56092e-08)
(-3.1771e-08 3.15901e-07 -7.7205e-08)
(2.79885e-08 3.48452e-07 -8.03808e-08)
(1.67795e-08 3.55123e-07 -8.10786e-08)
(1.8981e-08 3.57604e-07 -8.23144e-08)
(5.92074e-09 3.55702e-07 -8.40549e-08)
(-3.79087e-08 3.7788e-07 -8.3884e-08)
(-2.90635e-09 3.51265e-07 -8.46072e-08)
(3.36092e-08 3.54944e-07 -8.58462e-08)
(6.67694e-08 3.89761e-07 -8.76198e-08)
(3.38164e-08 4.26612e-08 -2.67329e-09)
(1.08043e-08 3.07207e-08 -2.68082e-09)
(-5.76804e-09 3.04236e-08 -2.73993e-09)
(-2.80904e-08 3.9972e-08 -2.8357e-09)
(6.32253e-08 1.10151e-07 -7.89403e-09)
(2.52194e-08 9.9297e-08 -7.92619e-09)
(-9.9425e-09 9.82527e-08 -8.07822e-09)
(-4.75881e-08 1.05185e-07 -8.31327e-09)
(7.5167e-08 1.70927e-07 -1.28711e-08)
(3.32333e-08 1.65238e-07 -1.29354e-08)
(-8.57002e-09 1.64034e-07 -1.31602e-08)
(-5.0833e-08 1.65886e-07 -1.35009e-08)
(8.06971e-08 2.2534e-07 -1.74271e-08)
(3.77733e-08 2.24772e-07 -1.75285e-08)
(-5.59839e-09 2.23974e-07 -1.78139e-08)
(-4.94213e-08 2.21864e-07 -1.8241e-08)
(8.06832e-08 2.72634e-07 -2.13614e-08)
(3.89933e-08 2.78173e-07 -2.14994e-08)
(-1.9288e-09 2.78197e-07 -2.18368e-08)
(-4.49337e-08 2.71915e-07 -2.23379e-08)
(6.74852e-08 3.12791e-07 -2.44834e-08)
(3.34653e-08 3.24296e-07 -2.46537e-08)
(5.36959e-09 3.25426e-07 -2.50333e-08)
(-3.02717e-08 3.15657e-07 -2.55957e-08)
(2.79076e-08 3.48659e-07 -2.66565e-08)
(1.71915e-08 3.55273e-07 -2.68518e-08)
(2.00558e-08 3.57678e-07 -2.72582e-08)
(7.5092e-09 3.5567e-07 -2.78629e-08)
(-3.78866e-08 3.78296e-07 -2.78336e-08)
(-2.40511e-09 3.51642e-07 -2.80394e-08)
(3.47606e-08 3.55254e-07 -2.84468e-08)
(6.84224e-08 3.89969e-07 -2.90608e-08)
)
;

boundaryField
{
    interface
    {
        type            solidTraction;
        traction        nonuniform List<vector> 
192
(
(171.586 0.133623 -7.98505)
(174.794 0.313399 -8.39116)
(174.73 0.62751 -8.25871)
(174.17 0.953319 -8.02226)
(173.153 1.36145 -7.66757)
(171.513 1.91856 -7.14663)
(170.051 2.77159 -6.37372)
(174.816 5.15432 -5.15345)
(148.553 0.196234 -4.76118)
(151.631 0.41142 -5.00213)
(151.764 0.793714 -4.89141)
(151.751 1.20575 -4.70506)
(151.7 1.72854 -4.4324)
(151.878 2.44113 -4.04735)
(154.695 3.51366 -3.51419)
(170.047 6.37446 -2.77172)
(139.468 0.234573 -3.41627)
(143.065 0.484826 -3.5899)
(143.427 0.92997 -3.49956)
(143.865 1.41025 -3.3487)
(144.634 2.01669 -3.13256)
(146.309 2.83439 -2.83695)
(151.9 4.04665 -2.44327)
(171.527 7.14753 -1.92)
(135.181 0.264212 -2.47736)
(139.222 0.543281 -2.601)
(139.79 1.03907 -2.52935)
(140.605 1.57173 -2.41113)
(142.011 2.23927 -2.24447)
(144.694 3.12982 -2.02154)
(151.779 4.43181 -1.7328)
(173.213 7.66906 -1.36472)
(132.586 0.286928 -1.7584)
(136.99 0.588339 -1.84493)
(137.733 1.12292 -1.79092)
(138.847 1.69451 -1.70258)
(140.712 2.40573 -1.57954)
(144.032 3.34591 -1.41768)
(151.934 4.70476 -1.21266)
(174.323 8.025 -0.959259)
(130.981 0.303374 -1.17706)
(135.66 0.621041 -1.23443)
(136.539 1.18363 -1.19688)
(137.868 1.78271 -1.13581)
(140.036 2.52384 -1.05149)
(143.742 3.4967 -0.941923)
(152.107 4.89129 -0.805375)
(175.051 8.26386 -0.639386)
(130.049 0.314086 -0.677285)
(134.913 0.642304 -0.709988)
(135.884 1.22302 -0.687974)
(137.347 1.83964 -0.652154)
(139.698 2.5994 -0.602984)
(143.624 3.59203 -0.539634)
(152.254 5.00801 -0.461631)
(175.509 8.41183 -0.36578)
(129.618 0.319552 -0.221347)
(134.574 0.652831 -0.231964)
(135.594 1.24235 -0.224728)
(137.119 1.86757 -0.212897)
(139.552 2.63625 -0.19671)
(143.578 3.63803 -0.175956)
(152.357 5.06551 -0.150612)
(175.679 8.48246 -0.118481)
(13.9683 0.0905215 23.9041)
(14.7359 0.136315 23.7115)
(14.6187 0.217671 24.7023)
(14.4021 0.307611 26.9563)
(14.0914 0.409214 30.5312)
(13.6662 0.517283 35.9272)
(13.098 0.622804 43.98)
(12.3636 0.679428 54.8812)
(12.2896 0.0257131 52.7207)
(12.9923 0.0405207 52.9288)
(12.8963 0.064843 53.4393)
(12.7266 0.0889653 54.4768)
(12.4926 0.115205 56.0869)
(12.1892 0.141615 58.3991)
(11.8155 0.166739 61.5103)
(11.3927 0.164276 64.8948)
(12.2642 -0.0195425 70.3724)
(12.9654 -0.0382791 70.1556)
(12.8711 -0.0710917 70.2293)
(12.703 -0.1039 70.3481)
(12.4711 -0.138978 70.4465)
(12.1706 -0.175449 70.4187)
(11.8003 -0.210786 70.1957)
(11.3764 -0.209931 70.2055)
(13.9647 -0.073573 91.8846)
(14.7405 -0.125414 91.4894)
(14.6234 -0.216546 91.1294)
(14.4073 -0.312746 90.3357)
(14.0976 -0.419 88.9439)
(13.6737 -0.532088 86.5166)
(13.1065 -0.647295 82.3464)
(12.3594 -0.700945 76.7804)
(45.531 -0.132426 9.12786)
(49.2935 -0.338221 9.59685)
(48.7446 -0.695296 9.44678)
(47.0931 -1.06046 9.18064)
(44.5493 -1.51505 8.78139)
(41.1287 -2.12882 8.19533)
(38.9071 -3.09995 7.33537)
(45.6507 -5.93392 5.93711)
(5.22877 -0.214532 5.26574)
(8.27561 -0.45575 5.5399)
(8.17593 -0.883105 5.41562)
(7.7868 -1.34226 5.21005)
(7.38641 -1.92277 4.9102)
(7.70637 -2.70088 4.48834)
(13.6418 -3.91035 3.91434)
(38.9588 -7.33268 3.10407)
(-12.0183 -0.26096 3.74816)
(-8.52777 -0.539487 3.944)
(-8.1849 -1.03326 3.84473)
(-7.64891 -1.56517 3.68049)
(-6.4415 -2.23473 3.44586)
(-3.34291 -3.12098 3.12633)
(7.78341 -4.48486 2.70647)
(41.2534 -8.19356 2.13424)
(-19.2353 -0.293084 2.73496)
(-15.2335 -0.60396 2.87502)
(-14.545 -1.15358 2.79653)
(-13.3742 -1.74247 2.66731)
(-11.1134 -2.478 2.48525)
(-6.33198 -3.44094 2.24228)
(7.57445 -4.90748 1.93051)
(44.7796 -8.78106 1.5224)
(-23.2372 -0.317342 1.94469)
(-18.8227 -0.653363 2.04248)
(-17.8577 -1.24592 1.98338)
(-16.2169 -1.8774 1.88676)
(-13.2309 -2.66039 1.7521)
(-7.39012 -3.67599 1.57516)
(8.13624 -5.20812 1.35283)
(47.488 -9.18243 1.07104)
(-25.5682 -0.334863 1.30284)
(-20.8435 -0.689156 1.36753)
(-19.6726 -1.31272 1.32647)
(-17.7036 -1.97434 1.25967)
(-14.2403 -2.78994 1.16731)
(-7.74442 -3.8403 1.04737)
(8.75504 -5.41383 0.899038)
(49.4275 -9.45183 0.714236)
(-26.8698 -0.346289 0.749912)
(-21.9395 -0.712429 0.786715)
(-20.6335 -1.35606 0.762628)
(-18.46 -2.03694 0.723435)
(-14.7106 -2.87288 0.669541)
(-7.83316 -3.94427 0.600169)
(9.23922 -5.54265 0.515366)
(50.6807 -9.61877 0.408468)
(-27.4673 -0.352178 0.245085)
(-22.4377 -0.723956 0.256984)
(-21.063 -1.37733 0.249065)
(-18.794 -2.06768 0.236115)
(-14.9134 -2.91336 0.218362)
(-7.85888 -3.99451 0.195638)
(9.51112 -5.60639 0.168078)
(51.2174 -9.69873 0.132135)
(12.3642 -54.8454 -0.677452)
(13.0991 -43.9263 -0.621559)
(13.6679 -35.8651 -0.516515)
(14.0942 -30.4602 -0.408615)
(14.4066 -26.8563 -0.306176)
(14.6261 -24.486 -0.211959)
(14.766 -23.0371 -0.12581)
(14.834 -22.4032 -0.0423615)
(11.3932 -64.8493 -0.161758)
(11.8164 -61.4405 -0.164884)
(12.1906 -58.3128 -0.140031)
(12.4949 -55.9821 -0.113578)
(12.7297 -54.338 -0.0867174)
(12.8998 -53.222 -0.0606968)
(13.0101 -52.5214 -0.0359089)
(13.0651 -52.1713 -0.0119123)
(11.3767 -70.1539 0.212885)
(11.801 -70.1136 0.213178)
(12.1719 -70.3124 0.177705)
(12.4732 -70.3149 0.141284)
(12.7059 -70.1856 0.106316)
(12.8745 -70.03 0.0736159)
(12.9839 -69.914 0.0429811)
(13.0383 -69.8771 0.0140471)
(12.3592 -76.7279 0.704185)
(13.1066 -82.2564 0.65021)
(13.6747 -86.3913 0.535107)
(14.0998 -88.78 0.422228)
(14.4112 -90.1302 0.315873)
(14.63 -90.9001 0.218304)
(14.7694 -91.3314 0.129078)
(14.8371 -91.503 0.0432061)
)
;
        pressure        uniform 0;
        secondOrder     false;
        setEffectiveTraction false;
        relaxationFactor 1;
        value           nonuniform List<vector> 
192
(
(1.40052e-07 -2.37119e-08 -5.29629e-08)
(1.24346e-07 3.7979e-08 -1.23846e-07)
(1.28615e-07 9.56413e-08 -1.80862e-07)
(1.35451e-07 1.5201e-07 -2.31711e-07)
(1.38345e-07 2.08694e-07 -2.80311e-07)
(1.3133e-07 2.65502e-07 -3.31914e-07)
(1.04499e-07 3.28488e-07 -3.93011e-07)
(2.02502e-08 4.10725e-07 -4.60113e-07)
(2.38189e-07 3.31425e-08 -2.51536e-08)
(2.41425e-07 8.15514e-08 -8.53337e-08)
(2.47046e-07 1.33261e-07 -1.42753e-07)
(2.53005e-07 1.87168e-07 -1.9444e-07)
(2.55173e-07 2.40859e-07 -2.43056e-07)
(2.46196e-07 2.90861e-07 -2.9251e-07)
(2.13381e-07 3.36521e-07 -3.42599e-07)
(1.0775e-07 3.86651e-07 -3.77711e-07)
(2.62524e-07 5.70469e-08 -2.3181e-08)
(2.8317e-07 1.04741e-07 -7.5187e-08)
(2.92021e-07 1.5597e-07 -1.27032e-07)
(2.9734e-07 2.08653e-07 -1.75206e-07)
(2.98329e-07 2.58015e-07 -2.19849e-07)
(2.87113e-07 2.98497e-07 -2.61434e-07)
(2.49808e-07 3.29558e-07 -2.96409e-07)
(1.38083e-07 3.68757e-07 -3.14374e-07)
(2.69802e-07 6.51914e-08 -2.2259e-08)
(2.97934e-07 1.15276e-07 -6.73725e-08)
(3.09471e-07 1.6787e-07 -1.11287e-07)
(3.14933e-07 2.19827e-07 -1.52344e-07)
(3.15152e-07 2.6555e-07 -1.89621e-07)
(3.02497e-07 2.99603e-07 -2.21786e-07)
(2.63066e-07 3.24035e-07 -2.4567e-07)
(1.49305e-07 3.61348e-07 -2.56887e-07)
(2.71074e-07 6.71689e-08 -1.85868e-08)
(3.00891e-07 1.19274e-07 -5.50503e-08)
(3.13571e-07 1.73108e-07 -8.9879e-08)
(3.19361e-07 2.24687e-07 -1.22148e-07)
(3.19339e-07 2.68326e-07 -1.50803e-07)
(3.06136e-07 2.99466e-07 -1.74356e-07)
(2.66105e-07 3.21958e-07 -1.90888e-07)
(1.51995e-07 3.59459e-07 -1.9891e-07)
(2.70869e-07 6.72786e-08 -1.35471e-08)
(3.00487e-07 1.20415e-07 -3.99385e-08)
(3.13352e-07 1.74914e-07 -6.49831e-08)
(3.1933e-07 2.26354e-07 -8.79677e-08)
(3.19342e-07 2.69163e-07 -1.0803e-07)
(3.06089e-07 2.99429e-07 -1.2412e-07)
(2.66072e-07 3.21734e-07 -1.35242e-07)
(1.52095e-07 3.59672e-07 -1.40922e-07)
(2.70566e-07 6.70613e-08 -8.14325e-09)
(2.99787e-07 1.20554e-07 -2.39845e-08)
(3.12551e-07 1.75301e-07 -3.89983e-08)
(3.18587e-07 2.26718e-07 -5.27017e-08)
(3.18686e-07 2.69332e-07 -6.45449e-08)
(3.05532e-07 2.9952e-07 -7.39462e-08)
(2.6566e-07 3.22055e-07 -8.0445e-08)
(1.51873e-07 3.6035e-07 -8.3879e-08)
(2.70417e-07 6.69209e-08 -2.71017e-09)
(2.99436e-07 1.20487e-07 -7.97933e-09)
(3.12114e-07 1.75294e-07 -1.29727e-08)
(3.18157e-07 2.26718e-07 -1.75202e-08)
(3.18308e-07 2.6933e-07 -2.14344e-08)
(3.05229e-07 2.99596e-07 -2.45314e-08)
(2.65453e-07 3.22315e-07 -2.66769e-08)
(1.51778e-07 3.60808e-07 -2.78282e-08)
(-4.25872e-08 -4.87952e-08 1.37028e-07)
(-6.53253e-08 8.37145e-09 6.4407e-08)
(-6.39809e-08 6.62336e-08 7.47916e-09)
(-5.81993e-08 1.25243e-07 -4.28522e-08)
(-5.57542e-08 1.85459e-07 -9.06099e-08)
(-6.36113e-08 2.47126e-07 -1.40079e-07)
(-9.2204e-08 3.1684e-07 -1.97366e-07)
(-1.42333e-07 4.05971e-07 -2.97277e-07)
(-7.86361e-09 -2.57339e-08 2.05105e-07)
(-1.61386e-08 1.27437e-08 1.36424e-07)
(-1.705e-08 6.48554e-08 7.69417e-08)
(-1.55016e-08 1.25276e-07 2.60518e-08)
(-1.53423e-08 1.89982e-07 -2.07181e-08)
(-2.03606e-08 2.55999e-07 -6.93056e-08)
(-3.42963e-08 3.20766e-07 -1.28991e-07)
(-5.18644e-08 3.85572e-07 -2.47733e-07)
(4.47701e-09 -2.81704e-08 2.02592e-07)
(8.96238e-09 1.11105e-08 1.31369e-07)
(7.96261e-09 6.41566e-08 7.05988e-08)
(5.05316e-09 1.25472e-07 1.90687e-08)
(2.97251e-09 1.91128e-07 -2.80459e-08)
(4.67934e-09 2.5822e-07 -7.68303e-08)
(1.33569e-08 3.24184e-07 -1.36639e-07)
(2.34415e-08 3.90146e-07 -2.55545e-07)
(3.8788e-08 -5.59353e-08 1.25803e-07)
(5.72229e-08 4.07902e-09 4.54158e-08)
(5.36585e-08 6.44539e-08 -1.52893e-08)
(4.62837e-08 1.25886e-07 -6.75499e-08)
(4.17126e-08 1.88826e-07 -1.16381e-07)
(4.60734e-08 2.537e-07 -1.66458e-07)
(6.92641e-08 3.27124e-07 -2.23999e-07)
(1.11919e-07 4.20441e-07 -3.23796e-07)
(-1.55862e-07 -2.37822e-08 -6.26026e-08)
(-1.42512e-07 3.73403e-08 -1.43736e-07)
(-1.47886e-07 9.579e-08 -2.05963e-07)
(-1.55688e-07 1.54091e-07 -2.59633e-07)
(-1.60354e-07 2.13754e-07 -3.09903e-07)
(-1.56648e-07 2.74457e-07 -3.62522e-07)
(-1.35161e-07 3.42044e-07 -4.24142e-07)
(-5.85056e-08 4.2932e-07 -4.91356e-07)
(-2.50696e-07 3.19204e-08 -3.0961e-08)
(-2.51947e-07 8.03094e-08 -9.91989e-08)
(-2.56097e-07 1.32788e-07 -1.616e-07)
(-2.61433e-07 1.88619e-07 -2.16333e-07)
(-2.6434e-07 2.45355e-07 -2.66894e-07)
(-2.57993e-07 2.99352e-07 -3.17616e-07)
(-2.30113e-07 3.49735e-07 -3.68463e-07)
(-1.31909e-07 4.05065e-07 -4.03876e-07)
(-2.72801e-07 5.33885e-08 -2.69627e-08)
(-2.88655e-07 1.01233e-07 -8.46821e-08)
(-2.93809e-07 1.53578e-07 -1.40633e-07)
(-2.9685e-07 2.08526e-07 -1.91701e-07)
(-2.9739e-07 2.6125e-07 -2.38385e-07)
(-2.87974e-07 3.06017e-07 -2.81396e-07)
(-2.55038e-07 3.42047e-07 -3.17292e-07)
(-1.5036e-07 3.86641e-07 -3.35654e-07)
(-2.7867e-07 5.97279e-08 -2.47885e-08)
(-3.00165e-07 1.09554e-07 -7.38577e-08)
(-3.06296e-07 1.63347e-07 -1.20875e-07)
(-3.0801e-07 2.17846e-07 -1.64371e-07)
(-3.06612e-07 2.67262e-07 -2.03535e-07)
(-2.94877e-07 3.05912e-07 -2.3711e-07)
(-2.59168e-07 3.35566e-07 -2.61951e-07)
(-1.51964e-07 3.7845e-07 -2.73583e-07)
(-2.79058e-07 6.05281e-08 -2.02654e-08)
(-3.01042e-07 1.11866e-07 -5.94091e-08)
(-3.07093e-07 1.66772e-07 -9.6452e-08)
(-3.07966e-07 2.21011e-07 -1.30594e-07)
(-3.05317e-07 2.68576e-07 -1.60804e-07)
(-2.92218e-07 3.04563e-07 -1.85587e-07)
(-2.55276e-07 3.32488e-07 -2.02984e-07)
(-1.47214e-07 3.75708e-07 -2.11381e-07)
(-2.78304e-07 5.98928e-08 -1.46099e-08)
(-2.99336e-07 1.11849e-07 -4.27231e-08)
(-3.04748e-07 1.67241e-07 -6.92368e-08)
(-3.04968e-07 2.21352e-07 -9.35241e-08)
(-3.01573e-07 2.68213e-07 -1.14723e-07)
(-2.87763e-07 3.03493e-07 -1.31748e-07)
(-2.50296e-07 3.31385e-07 -1.43546e-07)
(-1.4192e-07 3.75159e-07 -1.4952e-07)
(-2.77682e-07 5.9236e-08 -8.73057e-09)
(-2.97876e-07 1.11275e-07 -2.55321e-08)
(-3.02685e-07 1.66768e-07 -4.13815e-08)
(-3.02426e-07 2.20828e-07 -5.58468e-08)
(-2.98601e-07 2.67549e-07 -6.83747e-08)
(-2.84432e-07 3.02847e-07 -7.83543e-08)
(-2.46725e-07 3.31067e-07 -8.52777e-08)
(-1.38214e-07 3.7528e-07 -8.88966e-08)
(-2.77386e-07 5.88924e-08 -2.89783e-09)
(-2.97177e-07 1.10871e-07 -8.47518e-09)
(-3.01665e-07 1.66345e-07 -1.37392e-08)
(-3.01154e-07 2.2039e-07 -1.85368e-08)
(-2.97126e-07 2.67129e-07 -2.26787e-08)
(-2.82801e-07 3.02547e-07 -2.59705e-08)
(-2.44993e-07 3.30997e-07 -2.826e-08)
(-1.36427e-07 3.75449e-07 -2.9474e-08)
(-1.40723e-07 2.46259e-07 -4.78489e-07)
(-8.73405e-08 1.89363e-07 -3.89305e-07)
(-5.5272e-08 1.75297e-07 -3.19742e-07)
(-4.32828e-08 1.70017e-07 -2.58697e-07)
(-4.03709e-08 1.68821e-07 -1.99452e-07)
(-4.00372e-08 1.69243e-07 -1.41237e-07)
(-4.00187e-08 1.70005e-07 -8.41443e-08)
(-3.99663e-08 1.70503e-07 -2.79377e-08)
(-5.02816e-08 1.93512e-07 -4.61305e-07)
(-2.94516e-08 1.17805e-07 -3.96529e-07)
(-1.21372e-08 1.01359e-07 -3.32102e-07)
(-3.54974e-09 9.69496e-08 -2.67031e-07)
(5.59649e-11 9.68629e-08 -2.03601e-07)
(1.79354e-09 9.78048e-08 -1.43029e-07)
(2.82847e-09 9.86715e-08 -8.48645e-08)
(3.3564e-09 9.91469e-08 -2.81337e-08)
(2.49938e-08 1.98196e-07 -4.6899e-07)
(1.81937e-08 1.22294e-07 -4.03019e-07)
(1.27481e-08 1.05705e-07 -3.37324e-07)
(1.38268e-08 1.0113e-07 -2.71075e-07)
(1.7741e-08 1.00862e-07 -2.06588e-07)
(2.14773e-08 1.01639e-07 -1.45073e-07)
(2.39862e-08 1.02385e-07 -8.60541e-08)
(2.51797e-08 1.02798e-07 -2.85242e-08)
(1.13491e-07 2.63336e-07 -5.02358e-07)
(7.41152e-08 2.06472e-07 -4.0891e-07)
(5.4012e-08 1.92101e-07 -3.35446e-07)
(5.18003e-08 1.86315e-07 -2.70861e-07)
(5.65066e-08 1.84551e-07 -2.08446e-07)
(6.1726e-08 1.84463e-07 -1.47395e-07)
(6.53068e-08 1.84852e-07 -8.77273e-08)
(6.70043e-08 1.85158e-07 -2.91129e-08)
)
;
        gradient        nonuniform List<vector> 
192
(
(1.46446e-05 -2.12541e-06 9.16641e-07)
(1.50088e-05 -3.49877e-07 1.46686e-06)
(1.5129e-05 1.7524e-07 1.55861e-06)
(1.5196e-05 1.62522e-07 1.54715e-06)
(1.5257e-05 -1.24371e-07 1.51808e-06)
(1.53635e-05 -7.42996e-07 1.46339e-06)
(1.5521e-05 -1.56375e-06 1.35431e-06)
(1.27319e-05 -1.06068e-06 1.19006e-06)
(1.87617e-05 1.92571e-07 1.39801e-06)
(1.8837e-05 1.36021e-07 2.21359e-06)
(1.89259e-05 1.89982e-07 2.31561e-06)
(1.90033e-05 1.25886e-07 2.28432e-06)
(1.90723e-05 -1.76013e-07 2.24763e-06)
(1.91623e-05 -8.78915e-07 2.17449e-06)
(1.92443e-05 -1.85859e-06 1.99411e-06)
(1.55209e-05 -1.22496e-06 1.69829e-06)
(1.885e-05 1.48634e-06 6.01029e-07)
(1.886e-05 5.67732e-07 1.12273e-06)
(1.89386e-05 2.45963e-07 1.24492e-06)
(1.90095e-05 9.45343e-08 1.23869e-06)
(1.90649e-05 -2.34195e-07 1.2068e-06)
(1.91278e-05 -9.96517e-07 1.14563e-06)
(1.9169e-05 -2.03995e-06 1.03074e-06)
(1.53651e-05 -1.33517e-06 8.94696e-07)
(1.88863e-05 1.91643e-06 1.55002e-07)
(1.88666e-05 7.79917e-07 3.47862e-07)
(1.894e-05 3.05938e-07 4.27055e-07)
(1.90025e-05 8.77604e-08 4.40623e-07)
(1.90432e-05 -2.69071e-07 4.27078e-07)
(1.90837e-05 -1.05497e-06 3.96743e-07)
(1.90959e-05 -2.10952e-06 3.53456e-07)
(1.52663e-05 -1.38819e-06 3.13129e-07)
(1.89139e-05 1.98927e-06 1.15134e-08)
(1.88861e-05 8.39786e-07 4.36832e-08)
(1.89543e-05 3.38724e-07 7.26391e-08)
(1.90085e-05 9.45574e-08 8.67057e-08)
(1.90372e-05 -2.78075e-07 8.76029e-08)
(1.90625e-05 -1.07014e-06 8.17038e-08)
(1.90588e-05 -2.12357e-06 7.58961e-08)
(1.52254e-05 -1.4058e-06 7.22764e-08)
(1.89256e-05 1.97168e-06 -1.37582e-08)
(1.8896e-05 8.41043e-07 -2.50005e-08)
(1.89598e-05 3.48961e-07 -2.14233e-08)
(1.90073e-05 1.02724e-07 -1.37334e-08)
(1.90278e-05 -2.74073e-07 -8.01478e-09)
(1.90441e-05 -1.06668e-06 -3.57583e-09)
(1.90327e-05 -2.11895e-06 2.33807e-09)
(1.52002e-05 -1.40661e-06 8.23752e-09)
(1.89282e-05 1.95055e-06 -9.67409e-09)
(1.88977e-05 8.32121e-07 -2.12466e-08)
(1.89582e-05 3.49991e-07 -2.3769e-08)
(1.90014e-05 1.07966e-07 -2.08426e-08)
(1.90169e-05 -2.67918e-07 -1.62431e-08)
(1.90284e-05 -1.05979e-06 -1.10782e-08)
(1.90137e-05 -2.11175e-06 -5.13669e-09)
(1.51826e-05 -1.40235e-06 3.93087e-10)
(1.89281e-05 1.94078e-06 -2.95072e-09)
(1.88969e-05 8.26948e-07 -6.82449e-09)
(1.89557e-05 3.49365e-07 -8.12373e-09)
(1.89968e-05 1.1025e-07 -7.45084e-09)
(1.901e-05 -2.64309e-07 -5.83951e-09)
(1.90195e-05 -1.05557e-06 -3.84179e-09)
(1.90036e-05 -2.10748e-06 -1.6266e-09)
(1.51731e-05 -1.39908e-06 4.33148e-10)
(3.34481e-08 -4.13207e-06 1.61159e-05)
(-1.64938e-07 -2.71848e-06 1.65271e-05)
(-2.78708e-07 -2.17737e-06 1.66259e-05)
(-2.9603e-07 -1.97885e-06 1.66558e-05)
(-2.70923e-07 -1.98312e-06 1.66942e-05)
(-2.31788e-07 -2.21305e-06 1.68102e-05)
(-2.15194e-07 -2.49562e-06 1.70059e-05)
(-2.74767e-07 -1.441e-06 1.42169e-05)
(4.45954e-07 -3.07221e-06 1.95958e-05)
(4.69677e-07 -2.70966e-06 2.00153e-05)
(3.75268e-07 -2.26832e-06 2.01814e-05)
(3.38915e-07 -1.99132e-06 2.02588e-05)
(3.42125e-07 -1.96076e-06 2.03339e-05)
(3.49567e-07 -2.2392e-06 2.04733e-05)
(3.09171e-07 -2.67525e-06 2.06288e-05)
(1.6619e-07 -1.53549e-06 1.69001e-05)
(-6.46344e-07 -3.21679e-06 1.9578e-05)
(-8.82303e-07 -2.78917e-06 2.00061e-05)
(-8.92339e-07 -2.30814e-06 2.01752e-05)
(-9.09974e-07 -2.01199e-06 2.02547e-05)
(-9.44032e-07 -1.97247e-06 2.03316e-05)
(-9.69816e-07 -2.24601e-06 2.04726e-05)
(-9.38716e-07 -2.679e-06 2.06281e-05)
(-7.9782e-07 -1.53604e-06 1.68914e-05)
(-2.1788e-07 -4.60121e-06 1.58377e-05)
(-2.17208e-07 -2.95566e-06 1.62647e-05)
(-2.07445e-07 -2.296e-06 1.6373e-05)
(-2.48971e-07 -2.04302e-06 1.64114e-05)
(-3.10043e-07 -2.0206e-06 1.64577e-05)
(-3.71475e-07 -2.23389e-06 1.65811e-05)
(-3.99745e-07 -2.50326e-06 1.67838e-05)
(-3.42601e-07 -1.44071e-06 1.4007e-05)
(-1.57899e-05 -2.02896e-06 7.65299e-07)
(-1.6196e-05 -2.94761e-07 1.13256e-06)
(-1.6331e-05 2.10896e-07 1.11913e-06)
(-1.64067e-05 2.13333e-07 1.04475e-06)
(-1.64754e-05 -2.63506e-08 9.75991e-07)
(-1.65892e-05 -5.7339e-07 8.96e-07)
(-1.67538e-05 -1.30963e-06 7.7236e-07)
(-1.39765e-05 -7.30369e-07 6.02293e-07)
(-1.98801e-05 8.61856e-08 1.30293e-06)
(-1.99867e-05 5.38443e-08 1.97551e-06)
(-2.0097e-05 1.38968e-07 1.97812e-06)
(-2.01899e-05 1.21496e-07 1.87902e-06)
(-2.02708e-05 -1.13843e-07 1.79607e-06)
(-2.03704e-05 -7.32158e-07 1.69168e-06)
(-2.04614e-05 -1.61776e-06 1.49094e-06)
(-1.67548e-05 -9.00971e-07 1.18269e-06)
(-1.99336e-05 1.24932e-06 5.43652e-07)
(-1.99858e-05 3.80423e-07 9.67907e-07)
(-2.00927e-05 1.14399e-07 1.00832e-06)
(-2.0184e-05 3.12875e-08 9.37327e-07)
(-2.02544e-05 -2.13681e-07 8.56783e-07)
(-2.03289e-05 -8.78515e-07 7.60435e-07)
(-2.03804e-05 -1.81862e-06 6.20716e-07)
(-1.65944e-05 -1.02473e-06 4.66947e-07)
(-1.99437e-05 1.59763e-06 1.20348e-07)
(-1.99728e-05 5.18507e-07 2.49937e-07)
(-2.008e-05 1.08387e-07 2.68261e-07)
(-2.01671e-05 -3.00367e-08 2.27274e-07)
(-2.02257e-05 -2.90734e-07 1.68801e-07)
(-2.02796e-05 -9.68226e-07 1.03702e-07)
(-2.03032e-05 -1.91125e-06 3.43331e-08)
(-1.64917e-05 -1.09594e-06 -2.60521e-08)
(-1.9953e-05 1.61952e-06 -9.4535e-09)
(-1.99772e-05 5.28335e-07 -1.74567e-08)
(-2.00826e-05 9.17361e-08 -3.07663e-08)
(-2.01644e-05 -6.81718e-08 -5.8146e-08)
(-2.02135e-05 -3.37254e-07 -9.40536e-08)
(-2.02538e-05 -1.01298e-06 -1.30198e-07)
(-2.02624e-05 -1.94838e-06 -1.59853e-07)
(-1.64471e-05 -1.13271e-06 -1.82607e-07)
(-1.99524e-05 1.57066e-06 -2.61182e-08)
(-1.99764e-05 4.97193e-07 -6.18097e-08)
(-2.00793e-05 6.76976e-08 -8.54507e-08)
(-2.01564e-05 -9.33239e-08 -1.06104e-07)
(-2.01989e-05 -3.62786e-07 -1.26984e-07)
(-2.02314e-05 -1.03403e-06 -1.45459e-07)
(-2.02331e-05 -1.96366e-06 -1.58312e-07)
(-1.64187e-05 -1.15043e-06 -1.6786e-07)
(-1.99474e-05 1.53156e-06 -1.61715e-08)
(-1.99712e-05 4.69002e-07 -4.0844e-08)
(-2.00719e-05 4.74419e-08 -5.845e-08)
(-2.01457e-05 -1.09705e-07 -7.18103e-08)
(-2.01843e-05 -3.76609e-07 -8.3042e-08)
(-2.02128e-05 -1.04431e-06 -9.19498e-08)
(-2.02116e-05 -1.97078e-06 -9.78197e-08)
(-1.63987e-05 -1.15848e-06 -1.02144e-07)