/*--------------------------------*- C++ -*----------------------------------*\
| =========                 |                                                 |
| \\      /  F ield         | OpenFOAM: The Open Source CFD Toolbox           |
|  \\    /   O peration     | Version:  v1912                                 |
|   \\  /    A nd           | Website:  www.openfoam.com                      |
|    \\/     M anipulation  |                                                 |
\*---------------------------------------------------------------------------*/
FoamFile
{
    version     2.0;
    format      ascii;
    class       volVectorField;
    location    "0.02/solid";
    object      D_0;
}
// * * * * * * * * * * * * * * * * * * * * * * * * * * * * * * * * * * * * * //

dimensions      [0 1 0 0 0 0 0];


internalField   nonuniform List<vector> 
256
(
(-1.5104e-24 4.65668e-22 6.78614e-23)
(-3.19568e-22 2.21538e-23 -5.73762e-22)
(3.66054e-23 -2.18018e-22 -4.03308e-22)
(5.35924e-22 -4.89502e-22 -5.30137e-22)
(4.4779e-22 -4.89036e-22 1.58134e-22)
(-6.24616e-22 3.03807e-22 -8.82011e-23)
(-5.00763e-22 5.4451e-22 -7.88677e-22)
(7.06944e-22 6.49744e-22 -8.7255e-22)
(-2.59877e-22 6.65648e-23 -3.65145e-22)
(1.41858e-22 8.98776e-23 -2.06428e-22)
(-2.99837e-22 4.92146e-22 1.2326e-22)
(-3.9156e-22 1.04301e-21 -7.8759e-22)
(1.21928e-22 5.93717e-22 7.1368e-22)
(-8.19046e-22 5.67895e-22 3.87179e-22)
(-7.01174e-22 3.40799e-22 -1.18837e-22)
(-4.28588e-22 7.95019e-22 -4.49417e-22)
(1.70371e-22 -1.06533e-21 9.91782e-22)
(-8.77978e-22 -5.0271e-24 1.09293e-21)
(-1.33514e-21 7.58256e-22 3.67391e-22)
(-1.20351e-21 6.44696e-22 -5.38477e-22)
(-1.20759e-21 -1.19997e-21 3.93102e-22)
(-7.26158e-22 -4.68213e-22 4.85686e-22)
(-1.39186e-21 2.38294e-22 -2.48241e-23)
(-1.71657e-21 5.62423e-22 -1.17891e-21)
(-1.82955e-21 3.86401e-22 5.79288e-22)
(-1.32372e-21 6.32272e-23 2.63586e-22)
(-1.64089e-21 1.21286e-22 5.34793e-23)
(-1.84407e-21 8.85341e-22 -1.30442e-21)
(-1.51776e-21 3.09405e-22 1.47661e-21)
(-2.05677e-21 2.46456e-22 5.7316e-22)
(-1.84077e-21 2.83968e-22 -2.44131e-22)
(-2.4109e-21 4.80007e-22 -1.26781e-21)
(-4.13927e-22 -6.81466e-23 -6.65062e-22)
(-7.72311e-23 -2.09057e-22 -2.69382e-22)
(3.21909e-22 -1.76294e-22 -3.26419e-22)
(3.24465e-22 -7.50412e-23 5.69568e-23)
(-2.65185e-22 -2.13762e-22 -3.3903e-22)
(-2.8572e-22 9.4325e-23 -3.52448e-22)
(1.09893e-22 4.01108e-22 -1.35989e-22)
(5.61482e-22 7.29621e-23 -3.71449e-23)
(-5.96485e-22 7.00663e-23 4.9833e-22)
(2.23085e-22 2.47377e-22 -1.13301e-22)
(-4.83933e-24 5.52255e-22 -4.29653e-22)
(6.83047e-23 5.65448e-22 -4.53601e-22)
(-8.76422e-23 3.0214e-22 1.98429e-22)
(-1.7897e-22 6.71039e-22 2.92726e-22)
(-3.61764e-22 3.97961e-22 1.38844e-22)
(-3.46539e-22 7.6147e-22 -2.63596e-22)
(7.08048e-23 -3.87772e-22 2.70535e-22)
(-2.74969e-22 -3.05509e-23 3.7362e-22)
(-8.93348e-22 2.79635e-23 -1.74543e-22)
(-8.06602e-22 1.24874e-22 -4.76331e-22)
(-8.45258e-22 -4.94969e-22 6.27875e-22)
(-9.48644e-22 -5.03533e-22 3.67067e-22)
(-1.00959e-21 1.70363e-22 -4.65007e-22)
(-2.42757e-22 2.13345e-22 -9.56954e-22)
(-1.41325e-21 -3.69476e-23 1.13216e-21)
(-9.77355e-22 1.15333e-22 5.53051e-22)
(-1.06509e-21 5.9898e-22 -2.53004e-22)
(-7.75375e-22 9.19648e-22 -9.67628e-22)
(-1.39334e-21 7.10994e-23 1.00259e-21)
(-1.466e-21 4.27266e-22 5.92463e-22)
(-1.54982e-21 4.66607e-22 -3.53073e-22)
(-1.00043e-21 1.5808e-21 -1.17003e-21)
(-7.97833e-22 -2.22751e-22 -1.149e-22)
(-7.86726e-23 -2.54219e-22 -5.48776e-23)
(3.79865e-22 -2.1085e-22 -2.59561e-23)
(4.51306e-22 -4.18282e-23 2.72951e-23)
(-3.65482e-22 5.57118e-22 1.76277e-22)
(-1.90479e-22 1.85046e-22 -1.59462e-22)
(1.82802e-22 1.65694e-22 -1.011e-23)
(3.86769e-22 -3.16126e-23 1.21494e-22)
(-1.43861e-22 9.57815e-23 5.10831e-22)
(-3.69545e-22 2.70359e-22 5.55306e-22)
(1.43317e-23 2.89145e-22 1.32816e-22)
(4.57472e-22 3.09334e-22 5.61359e-22)
(6.00083e-24 -2.87616e-22 2.65648e-22)
(-1.38047e-22 4.74012e-22 3.89292e-22)
(-1.979e-22 1.96294e-22 9.7628e-23)
(-5.44397e-23 4.31302e-22 -8.18006e-25)
(-4.29382e-23 -4.79087e-22 8.19647e-23)
(-4.33482e-22 -9.49035e-23 -2.09028e-22)
(-4.95826e-22 -1.76801e-22 -2.03994e-22)
(1.08258e-22 -1.63188e-22 -1.96573e-22)
(-8.05521e-22 -1.29328e-22 7.22702e-22)
(-6.47322e-22 -1.56638e-22 2.60945e-22)
(-5.70687e-22 2.08928e-22 3.83947e-23)
(5.08196e-22 1.81255e-22 -1.73627e-22)
(-7.96464e-22 2.43869e-22 1.20599e-21)
(-9.20442e-22 2.20243e-22 1.07055e-21)
(-7.5777e-22 6.08399e-22 3.17259e-22)
(1.54517e-22 1.07833e-21 3.41296e-22)
(-9.92955e-22 1.89663e-23 1.40581e-21)
(-1.25404e-21 2.63167e-22 8.75769e-22)
(-9.0564e-22 1.05319e-21 2.70862e-22)
(-1.8456e-22 1.43689e-21 -1.56346e-22)
(-5.45411e-22 1.13809e-22 1.75381e-23)
(-9.58847e-23 -3.01519e-22 2.16148e-22)
(3.26906e-22 -1.59751e-22 2.22402e-22)
(2.35225e-22 4.88472e-23 7.01176e-24)
(-2.76706e-22 3.23377e-22 -3.72634e-22)
(-4.22647e-22 6.24494e-22 3.4812e-23)
(2.72452e-22 4.58638e-22 8.74943e-23)
(3.49604e-22 4.77509e-22 7.91493e-23)
(3.22192e-22 -6.86852e-23 -2.28513e-22)
(1.78402e-22 5.72725e-22 2.45775e-22)
(-7.1933e-23 4.27151e-22 2.53224e-22)
(-4.882e-22 1.90387e-22 3.21331e-22)
(2.61919e-22 -3.90511e-22 6.10934e-23)
(4.85558e-23 -3.60298e-22 -4.28742e-23)
(-2.5071e-22 -2.14049e-22 9.46401e-23)
(-9.5808e-23 -2.69929e-22 -1.4084e-22)
(-5.34205e-22 -1.29907e-22 4.31343e-22)
(4.22845e-23 -3.90136e-22 9.49481e-23)
(1.41502e-22 -2.87437e-22 3.39167e-22)
(2.22042e-22 -2.87994e-22 1.06312e-22)
(-5.16846e-22 3.68264e-22 1.13583e-21)
(-4.19691e-22 5.35051e-22 7.13698e-22)
(-1.09148e-22 4.87575e-22 3.43425e-22)
(6.33165e-22 5.80629e-22 1.67501e-22)
(2.25481e-23 1.4458e-22 1.29383e-21)
(-1.00469e-22 3.6582e-22 8.56896e-22)
(-3.47681e-22 6.18498e-22 6.48071e-22)
(-4.92774e-22 7.08026e-22 4.91046e-22)
(-3.13831e-22 -2.01208e-22 1.84458e-21)
(-5.8891e-22 -1.94305e-22 1.00074e-21)
(-6.68821e-22 2.12251e-22 5.60791e-22)
(8.00478e-23 5.92367e-22 2.5969e-22)
(-5.15878e-22 -3.93525e-22 -3.33652e-23)
(8.84722e-23 -4.98532e-23 6.74334e-23)
(1.22272e-22 -1.61189e-23 1.60213e-23)
(1.74506e-22 2.49099e-24 -2.46169e-22)
(-5.78347e-22 4.20342e-22 -4.18848e-22)
(7.94938e-24 2.34927e-22 1.17175e-22)
(1.10739e-22 1.55303e-22 -4.95847e-23)
(2.28051e-22 1.93621e-22 -1.27781e-22)
(-1.0607e-22 4.64732e-22 -2.65331e-22)
(-2.82612e-23 1.06441e-22 -2.99594e-22)
(-5.9484e-24 1.7761e-22 -4.93496e-22)
(4.5695e-23 -6.23701e-23 -3.42212e-22)
(-1.24797e-22 1.96236e-22 -1.49896e-22)
(5.14302e-23 1.34485e-22 7.7477e-23)
(-2.08648e-23 7.63631e-23 4.83653e-23)
(2.41582e-22 -3.77655e-24 1.19575e-22)
(7.56865e-23 2.95371e-22 7.14245e-22)
(9.56951e-23 3.68654e-22 6.89453e-22)
(2.91529e-23 -2.08139e-22 4.70797e-22)
(1.45428e-22 -1.31357e-22 4.99866e-22)
(2.94099e-22 2.55248e-22 1.09641e-21)
(-2.0177e-22 1.74134e-22 5.69388e-22)
(-3.09482e-22 1.35966e-22 3.7214e-22)
(6.75876e-22 2.13443e-22 2.92382e-22)
(3.43996e-22 1.2173e-22 1.17232e-21)
(6.41213e-23 -1.2942e-22 7.18177e-22)
(-1.05638e-22 2.58198e-22 4.4513e-22)
(-9.38582e-24 5.6633e-22 2.24094e-22)
(3.91657e-22 -6.26606e-22 1.45652e-21)
(-5.57016e-22 -2.33351e-22 9.67053e-22)
(-2.36476e-22 3.16806e-22 6.22749e-22)
(3.80041e-22 3.0119e-22 3.2478e-22)
(-4.88724e-22 -1.43406e-22 6.83295e-23)
(-8.98944e-23 -1.77721e-22 1.13592e-22)
(8.4086e-23 -2.14967e-22 4.80733e-23)
(3.84318e-22 -2.00301e-22 2.18623e-23)
(-4.76317e-22 1.98188e-22 -2.39927e-23)
(-3.56239e-22 2.83802e-22 1.07714e-23)
(8.94703e-23 -7.27299e-23 4.69446e-24)
(5.37005e-22 3.27125e-22 3.45408e-24)
(-2.62228e-22 1.83445e-22 -1.34695e-22)
(-3.32593e-22 4.92947e-22 -2.79432e-22)
(3.90514e-23 4.47082e-22 -2.73938e-22)
(4.56534e-22 3.25022e-22 -4.88676e-24)
(1.24116e-22 4.34849e-22 -1.71687e-23)
(2.18784e-22 4.67053e-22 2.62704e-22)
(-1.80702e-22 5.78592e-22 3.92209e-23)
(-2.63974e-23 3.83843e-22 5.77056e-22)
(5.04815e-22 7.95402e-22 2.03263e-22)
(3.85426e-22 -2.07076e-22 -9.34278e-23)
(4.98155e-23 -2.59417e-22 -9.70139e-23)
(-3.50856e-22 -4.09718e-22 1.82146e-22)
(4.28756e-22 2.98891e-22 5.26728e-22)
(-7.36399e-23 6.61477e-23 1.63311e-22)
(1.51283e-22 -1.37706e-24 4.13208e-22)
(6.19762e-22 -1.29027e-22 3.89976e-22)
(8.85625e-22 -2.7858e-22 1.10508e-21)
(5.42376e-22 3.72361e-23 5.22792e-22)
(8.54812e-23 1.94866e-22 3.18064e-22)
(-2.51695e-22 1.269e-22 -1.17824e-22)
(7.29776e-22 -6.60046e-22 1.26125e-21)
(1.79924e-22 -6.22721e-22 1.06411e-21)
(-2.02749e-22 -2.81947e-22 8.37143e-22)
(3.53254e-22 8.60377e-23 3.5689e-22)
(-3.0372e-22 -4.20262e-22 2.19373e-22)
(1.31459e-22 -5.74992e-23 5.49579e-22)
(5.14978e-24 -4.63161e-23 1.78883e-22)
(8.33723e-23 -1.76272e-23 3.12776e-22)
(-5.1279e-22 2.61331e-22 1.49544e-22)
(2.66294e-23 -1.31132e-22 1.64921e-22)
(8.84318e-23 -1.81502e-22 3.13746e-22)
(2.323e-22 1.33077e-22 1.55431e-22)
(-5.19036e-22 4.77789e-22 -5.08773e-23)
(-3.2462e-22 3.54095e-22 -6.03161e-23)
(2.60424e-22 1.7126e-22 2.12263e-22)
(4.3173e-22 4.45107e-22 5.64361e-23)
(3.28017e-23 4.12237e-22 -2.08772e-22)
(1.35822e-23 2.01097e-22 -5.58147e-22)
(1.18911e-22 1.22047e-22 -1.07201e-22)
(-7.78945e-23 3.68003e-23 -5.06547e-23)
(-1.10603e-22 5.50082e-22 -1.22507e-22)
(4.88845e-24 -1.38577e-23 -5.15139e-22)
(4.50521e-22 -1.08784e-22 -2.90435e-22)
(4.4118e-22 -5.94067e-22 -3.35786e-22)
(4.21031e-22 6.74111e-22 5.7693e-23)
(3.09634e-22 3.04837e-22 4.29742e-22)
(3.77303e-22 8.92273e-23 3.07013e-22)
(5.35766e-22 -5.18017e-22 1.71532e-22)
(1.04595e-21 1.50215e-22 7.06516e-22)
(3.63717e-22 1.35338e-23 -7.62759e-23)
(1.53247e-22 -5.08196e-23 -7.0489e-23)
(5.19422e-22 1.88141e-23 -4.52595e-22)
(1.53812e-21 -1.20194e-21 1.02918e-21)
(2.91425e-22 -7.13566e-22 5.29622e-22)
(-1.79867e-22 -1.9891e-22 6.88532e-22)
(-1.89219e-23 5.14551e-22 5.08362e-22)
(3.59853e-22 -1.95461e-23 3.04415e-22)
(4.54455e-23 1.98684e-22 3.18016e-22)
(-3.14436e-22 2.71262e-23 8.10448e-23)
(-9.89804e-23 1.40413e-23 7.00751e-23)
(-3.64976e-23 -3.17756e-23 2.8535e-22)
(-1.86758e-23 -2.39592e-22 1.21631e-22)
(-5.49327e-23 -2.93145e-23 8.87605e-23)
(9.82449e-24 5.58028e-23 5.09572e-23)
(-3.09077e-22 -1.10371e-22 6.80231e-24)
(-1.0763e-22 -1.56116e-22 1.28788e-22)
(9.43348e-23 3.55398e-23 1.8576e-22)
(1.51733e-22 1.03073e-22 -1.27929e-23)
(-6.63078e-22 2.88523e-22 -2.85205e-22)
(1.15979e-22 -3.45484e-23 -3.89091e-22)
(4.00467e-22 -1.6732e-24 -5.34076e-23)
(2.38836e-22 -9.48395e-23 -2.89484e-22)
(-2.88347e-22 7.77134e-22 -7.48827e-23)
(1.54282e-22 4.99371e-22 -7.86652e-23)
(5.75016e-22 -5.48481e-23 8.95202e-23)
(4.83484e-22 -3.75853e-22 -1.19607e-22)
(5.69339e-22 6.93181e-22 5.35786e-23)
(4.23363e-22 1.01243e-22 1.94544e-22)
(3.6656e-22 -1.39298e-22 6.67481e-23)
(5.97942e-22 -5.46136e-22 -1.94584e-23)
(8.38534e-22 1.44269e-22 1.33467e-22)
(4.77744e-22 -3.41549e-22 -1.0015e-22)
(4.95546e-22 -4.33372e-23 2.09625e-23)
(6.76123e-22 1.30254e-23 -5.1867e-23)
(1.37362e-21 -1.05444e-21 1.40408e-22)
(7.49331e-22 -3.40793e-22 -1.62112e-23)
(1.47194e-22 -4.39529e-22 3.6784e-22)
(-4.81376e-22 5.84578e-22 1.5718e-22)
)
;

boundaryField
{
    interface
    {
        type            solidTraction;
        traction        uniform (0 0 0);
        pressure        uniform 0;
        secondOrder     false;
        setEffectiveTraction false;
        relaxationFactor 1;
        value           nonuniform List<vector> 
192
(
(4.00615e-24 5.76072e-22 3.55011e-23)
(3.79965e-22 -5.12835e-22 1.60339e-23)
(-3.22319e-22 3.0425e-24 -4.48841e-22)
(7.39801e-24 5.90595e-22 7.10942e-22)
(1.54794e-22 -1.37005e-21 1.02238e-21)
(-1.18069e-21 -1.58984e-21 5.07675e-22)
(-1.80434e-21 2.53977e-22 7.80485e-22)
(-1.47242e-21 3.30979e-22 1.69817e-21)
(-4.09139e-22 -1.75109e-22 -8.35009e-22)
(-2.79765e-22 -2.11495e-22 -5.00472e-22)
(-6.18884e-22 1.04511e-22 5.16149e-22)
(-1.79383e-22 3.92749e-22 1.84722e-22)
(-4.24544e-24 -5.62752e-22 3.12692e-22)
(-8.44761e-22 -8.12117e-22 7.60517e-22)
(-1.38702e-21 -1.85418e-22 1.38258e-21)
(-1.38507e-21 -1.45092e-23 1.18425e-21)
(-7.05661e-22 -4.43737e-22 -1.42584e-22)
(-3.47345e-22 7.21084e-22 2.01411e-22)
(-2.22317e-22 1.79995e-22 6.86895e-22)
(-2.87719e-23 -2.66399e-22 3.65698e-22)
(-7.70668e-23 -6.3746e-22 1.19291e-23)
(-8.05639e-22 -3.10934e-22 8.39359e-22)
(-7.99725e-22 1.60457e-22 1.53377e-21)
(-9.65786e-22 -9.27954e-23 1.67574e-21)
(-4.9211e-22 4.29745e-24 8.1738e-23)
(-3.65322e-22 5.2939e-22 -4.34269e-22)
(2.41033e-22 4.06745e-23 -2.34936e-22)
(2.35339e-22 -5.46001e-22 5.79669e-23)
(-5.24221e-22 -2.88279e-22 4.53242e-22)
(-5.26143e-22 4.4894e-22 1.3406e-21)
(-4.01929e-23 1.49386e-22 1.54808e-21)
(-3.55217e-22 -3.15158e-22 2.17421e-21)
(-5.22639e-22 -6.11946e-22 -2.50545e-23)
(-4.41715e-22 5.13686e-22 -4.99571e-22)
(-9.95912e-23 6.07454e-22 -4.10309e-22)
(-1.79746e-22 2.45774e-22 -1.714e-22)
(4.02373e-23 3.44893e-22 9.0921e-22)
(2.53318e-22 3.05996e-22 1.28288e-21)
(2.16391e-22 1.63185e-22 1.36122e-21)
(2.54272e-22 -6.64372e-22 1.69112e-21)
(-4.54315e-22 -3.2533e-22 1.18903e-22)
(-3.75916e-22 2.50914e-22 1.37909e-23)
(-2.23463e-22 3.52024e-22 -2.1034e-22)
(1.01425e-22 6.19302e-22 -3.06909e-23)
(4.37922e-22 8.45012e-22 1.75282e-22)
(3.26061e-22 3.73499e-22 5.66368e-22)
(7.42951e-22 -2.25647e-22 1.23472e-21)
(6.21413e-22 -7.14653e-22 1.48114e-21)
(-2.88988e-22 -5.50326e-22 4.01535e-22)
(-4.88058e-22 2.28455e-22 2.40404e-22)
(-4.89565e-22 5.69205e-22 -8.03019e-23)
(3.89883e-23 5.0944e-22 -4.05592e-22)
(-1.34145e-22 6.52766e-22 -3.14029e-22)
(3.4939e-22 8.82482e-22 5.66536e-23)
(8.61191e-22 3.71925e-22 6.86327e-22)
(1.38333e-21 -1.12553e-21 1.16518e-21)
(3.18204e-22 7.15502e-23 4.44213e-22)
(-6.79655e-23 -1.90636e-22 3.66712e-22)
(-2.7236e-22 -2.29471e-22 2.06155e-23)
(-5.75775e-22 3.10879e-22 -4.14359e-22)
(-2.59379e-22 1.02252e-21 -1.35916e-22)
(4.91606e-22 9.39122e-22 6.71307e-23)
(6.64979e-22 3.34239e-22 1.10003e-22)
(1.27449e-21 -9.88583e-22 1.22222e-22)
(-8.2596e-23 5.3703e-22 1.19604e-22)
(4.52855e-22 -4.95994e-22 6.45139e-23)
(-2.00346e-22 2.01547e-22 -4.57928e-22)
(4.55883e-23 8.25415e-22 5.69542e-22)
(1.94862e-22 -1.10517e-21 9.47563e-22)
(-1.26332e-21 -1.22546e-21 4.15055e-22)
(-2.00206e-21 5.8601e-22 5.95623e-22)
(-1.80828e-21 5.53821e-22 1.51146e-21)
(-4.02658e-22 -7.54738e-23 -5.43359e-22)
(-7.94136e-22 4.11796e-22 -1.32512e-22)
(2.04507e-22 2.15402e-22 -2.55854e-22)
(-9.93668e-22 8.18574e-22 2.77881e-22)
(-9.84709e-22 3.56746e-23 9.73527e-22)
(-8.28914e-22 -6.0067e-22 4.33832e-22)
(-1.44944e-21 7.74548e-23 2.47805e-22)
(-2.41949e-21 2.91734e-22 5.40741e-22)
(3.66904e-23 -3.99265e-22 -3.25159e-22)
(-6.35204e-22 6.8329e-22 -7.17966e-22)
(-4.32816e-22 6.22027e-22 9.54002e-23)
(-8.92859e-22 4.03117e-22 -1.30236e-22)
(-1.69369e-21 7.90279e-22 2.97411e-22)
(-1.74498e-21 1.93816e-22 -1.14673e-22)
(-1.98784e-21 6.09314e-23 -2.60932e-23)
(-2.25418e-21 1.63122e-22 -3.01633e-22)
(5.3782e-22 -7.21486e-22 -4.83385e-22)
(6.73647e-22 6.24668e-22 -8.3152e-22)
(-6.79275e-22 1.11129e-21 -7.87845e-22)
(-5.78779e-22 8.20128e-22 -4.56709e-22)
(-1.54739e-21 5.23964e-22 -5.58696e-22)
(-2.23765e-21 4.4157e-22 -1.22759e-21)
(-2.38291e-21 8.39274e-22 -1.36921e-21)
(-2.91187e-21 3.31097e-22 -1.30763e-21)
(4.86451e-22 -6.6363e-22 -4.96489e-22)
(6.7542e-22 8.48942e-22 -8.74496e-22)
(-4.30581e-22 1.28468e-21 -9.93229e-22)
(-4.32808e-22 1.00031e-21 -5.61001e-22)
(-1.20622e-21 9.1129e-22 -7.87159e-22)
(-1.73052e-21 7.38721e-22 -1.70734e-21)
(-1.84777e-21 1.05821e-21 -1.7846e-21)
(-2.44746e-21 6.6762e-22 -1.78743e-21)
(2.55527e-22 -2.01315e-22 7.38025e-23)
(4.85415e-22 1.79849e-22 -5.77396e-24)
(-1.28368e-23 7.55895e-22 -5.81539e-22)
(-3.67993e-22 9.48819e-22 -3.68075e-22)
(-8.24623e-22 1.63683e-22 -7.39609e-22)
(-3.07717e-22 2.58433e-22 -1.37979e-21)
(-8.67195e-22 1.08986e-21 -1.368e-21)
(-1.03178e-21 1.7955e-21 -1.6165e-21)
(4.0891e-22 -1.6774e-22 4.32628e-23)
(3.52469e-22 2.28013e-23 1.6117e-22)
(4.43497e-22 4.15156e-22 6.70152e-22)
(-7.04835e-23 5.01258e-22 -6.58771e-23)
(5.25041e-23 -2.14955e-22 -4.37129e-22)
(4.29584e-22 2.2046e-22 -3.70195e-22)
(1.00572e-22 1.22757e-21 2.50283e-22)
(-1.95778e-22 1.58323e-21 -4.16932e-22)
(1.7195e-22 -2.17839e-23 4.82811e-23)
(3.61597e-22 6.77221e-22 9.94695e-23)
(-3.39664e-22 2.761e-22 3.59706e-22)
(-1.00324e-22 -4.3193e-22 -2.02086e-22)
(7.23023e-23 -3.80694e-22 6.13054e-23)
(5.79708e-22 7.75259e-22 1.01281e-22)
(-3.99621e-22 8.14222e-22 4.56404e-22)
(1.34321e-22 4.72568e-22 9.46527e-23)
(1.38977e-22 -6.18309e-23 -2.69374e-22)
(2.18226e-22 2.45141e-22 -1.78809e-22)
(6.69979e-23 -3.81145e-23 -5.54424e-22)
(2.17908e-22 -1.72018e-23 9.91733e-23)
(1.3045e-22 -1.88097e-22 6.28614e-22)
(6.65716e-22 2.63012e-22 2.70559e-22)
(4.56306e-23 6.16748e-22 1.3735e-22)
(4.23225e-22 2.09168e-22 2.29221e-22)
(3.38231e-22 -3.45164e-22 4.19095e-23)
(4.85357e-22 3.37831e-22 -2.4833e-24)
(3.9862e-22 4.41361e-22 -7.74629e-23)
(3.76144e-23 5.62802e-22 6.25222e-22)
(-2.02917e-22 -5.0384e-22 1.2127e-22)
(6.53987e-22 -1.49889e-22 3.51107e-22)
(-1.61291e-22 1.59361e-22 -2.585e-22)
(4.15849e-22 -4.98849e-23 3.91809e-22)
(5.84772e-23 -6.78393e-23 4.03448e-22)
(1.82307e-22 9.19729e-23 2.37406e-22)
(4.43568e-22 5.23466e-22 8.06698e-23)
(8.96596e-23 3.5075e-23 -1.38842e-22)
(5.06247e-22 -7.37842e-22 -5.71028e-22)
(5.00845e-22 -5.48248e-22 8.65387e-23)
(4.83403e-22 1.43019e-22 -6.99723e-22)
(-2.42492e-23 7.52224e-22 6.60267e-22)
(-8.86175e-23 4.18247e-23 1.09445e-22)
(1.08027e-23 7.06086e-26 8.95825e-23)
(1.60744e-22 4.9249e-23 1.19488e-23)
(2.42459e-22 -1.75357e-22 -3.83042e-22)
(4.517e-22 -4.6678e-22 -1.73657e-22)
(5.37398e-22 -5.78883e-22 -6.0168e-23)
(5.51462e-22 2.82384e-22 -1.08434e-22)
(-5.18322e-22 1.10043e-21 2.61623e-22)
(-1.49352e-21 3.16332e-22 1.66234e-21)
(-1.49411e-21 7.60195e-23 1.06918e-21)
(-1.09498e-21 -1.14846e-23 1.45556e-21)
(-3.584e-22 -1.71228e-22 1.97416e-21)
(2.86356e-22 -4.89605e-22 1.53612e-21)
(7.13517e-22 -5.54092e-22 1.34177e-21)
(1.48357e-21 -1.06303e-21 1.08828e-21)
(1.29341e-21 -1.02066e-21 1.09636e-22)
(-2.06465e-21 2.87496e-22 5.87464e-22)
(-1.53662e-21 4.3523e-22 6.0418e-22)
(-1.4228e-21 2.61046e-22 9.98614e-22)
(-6.47587e-22 -1.50385e-22 1.09127e-21)
(-7.29487e-22 -1.31979e-22 1.0453e-21)
(1.35497e-22 -5.0459e-22 1.13643e-21)
(1.18623e-22 -5.40083e-22 4.62846e-22)
(6.5709e-22 -1.87581e-22 -6.80759e-23)
(-1.91937e-21 3.32769e-22 -3.08651e-22)
(-1.7729e-21 4.73162e-22 -4.47364e-22)
(-1.11828e-21 1.03251e-21 3.32555e-22)
(-7.96941e-22 2.16645e-22 6.86657e-22)
(-3.21927e-22 3.09655e-22 7.16601e-22)
(-3.07968e-22 -2.47383e-22 9.17335e-22)
(-3.8865e-22 -1.30532e-22 6.99822e-22)
(-5.90824e-23 -1.90362e-22 4.17629e-22)
(-2.57051e-21 4.62995e-22 -1.49461e-21)
(-1.32174e-21 1.56859e-21 -1.29235e-21)
(-3.50523e-22 1.41053e-21 6.14534e-23)
(8.44119e-23 5.70844e-22 4.77413e-22)
(4.29403e-22 2.85906e-22 4.25928e-22)
(3.72938e-22 1.04581e-22 3.05884e-22)
(-2.69978e-22 5.61667e-22 3.40528e-22)
(-9.70299e-22 6.98097e-22 1.07821e-22)
)
;
        gradient        uniform (0 0 0);
    }
    symmetry
    {
        type            solidSymmetry;
        patchType       symmetry;
        secondOrder     false;
        value           nonuniform List<vector> 
32
(
(3.59853e-22 -1.95461e-23 0)
(-3.64976e-23 -3.17756e-23 0)
(-3.09077e-22 -1.10371e-22 0)
(-6.63078e-22 2.88523e-22 0)
(-2.88347e-22 7.77134e-22 0)
(5.69339e-22 6.93181e-22 0)
(8.38534e-22 1.44269e-22 0)
(1.37362e-21 -1.05444e-21 0)
(4.54455e-23 1.98684e-22 0)
(-1.86758e-23 -2.39592e-22 0)
(-1.0763e-22 -1.56116e-22 0)
(1.15979e-22 -3.45484e-23 0)
(1.54282e-22 4.99371e-22 0)
(4.23363e-22 1.01243e-22 0)
(4.77744e-22 -3.41549e-22 0)
(7.49331e-22 -3.40793e-22 0)
(-3.14436e-22 2.71262e-23 0)
(-5.49327e-23 -2.93145e-23 0)
(9.43348e-23 3.55398e-23 0)
(4.00467e-22 -1.6732e-24 0)
(5.75016e-22 -5.48481e-23 0)
(3.6656e-22 -1.39298e-22 0)
(4.95546e-22 -4.33372e-23 0)
(1.47194e-22 -4.39529e-22 0)
(-9.89804e-23 1.40413e-23 0)
(9.82449e-24 5.58028e-23 0)
(1.51733e-22 1.03073e-22 0)
(2.38836e-22 -9.48395e-23 0)
(4.83484e-22 -3.75853e-22 0)
(5.97942e-22 -5.46136e-22 0)
(6.76123e-22 1.30254e-23 0)
(-4.81376e-22 5.84578e-22 0)
)
;
    }
    bottom
    {
        type            fixedDisplacement;
        value           uniform (0 0 0);
    }
}


// ************************************************************************* //
