/*--------------------------------*- C++ -*----------------------------------*\
| =========                 |                                                 |
| \\      /  F ield         | OpenFOAM: The Open Source CFD Toolbox           |
|  \\    /   O peration     | Version:  v1912                                 |
|   \\  /    A nd           | Website:  www.openfoam.com                      |
|    \\/     M anipulation  |                                                 |
\*---------------------------------------------------------------------------*/
FoamFile
{
    version     2.0;
    format      ascii;
    class       volVectorField;
    location    "0.02/solid";
    object      heatFlux;
}
// * * * * * * * * * * * * * * * * * * * * * * * * * * * * * * * * * * * * * //

dimensions      [1 0 -3 0 0 0 0];


internalField   nonuniform List<vector> 
256
(
(-371760 6218.03 -395384)
(-1482.29 3241.02 -398373)
(1576.5 3241.77 -398373)
(395195 6406.45 -395195)
(-371722 24.8119 -395347)
(-1493.97 13.0782 -398360)
(1588.93 13.0845 -398359)
(395157 25.5648 -395157)
(-371722 0.0970725 -395346)
(-1494.02 0.052108 -398360)
(1588.98 0.0521099 -398359)
(395156 0.0998889 -395157)
(-371722 -0.00158327 -395346)
(-1494.02 -0.00081867 -398360)
(1588.98 -0.000923394 -398359)
(395156 -0.00193613 -395157)
(-371722 0.027065 -395346)
(-1494.02 0.0260983 -398360)
(1588.98 0.0260016 -398359)
(395156 0.0268251 -395157)
(-371722 6.30247 -395346)
(-1494.02 6.44405 -398360)
(1588.98 6.44401 -398359)
(395156 6.29966 -395156)
(-371709 1570.48 -395334)
(-1493.87 1594.91 -398347)
(1588.84 1594.9 -398346)
(395144 1569.73 -395144)
(-368557 392180 -392180)
(-1469.6 395144 -395144)
(1563.81 395144 -395144)
(391992 391992 -391992)
(-374938 3051.8 -1583.22)
(-1506.77 25.4365 -1607.84)
(1601.73 26.2025 -1607.84)
(398373 3241.72 -1582.47)
(-374926 12.3199 -1595.76)
(-1518.83 0.206552 -1620.77)
(1614.55 0.212771 -1620.76)
(398359 13.0834 -1595.01)
(-374926 0.0480609 -1595.81)
(-1518.87 0.000169746 -1620.82)
(1614.6 0.000117466 -1620.82)
(398359 0.0508377 -1595.06)
(-374926 -0.00151457 -1595.81)
(-1518.87 -0.00210907 -1620.82)
(1614.6 -0.00224617 -1620.82)
(398359 -0.00185964 -1595.05)
(-374926 0.02709 -1595.81)
(-1518.88 0.0248452 -1620.82)
(1614.6 0.0247263 -1620.82)
(398359 0.0268834 -1595.05)
(-374926 6.45008 -1595.81)
(-1518.88 6.59266 -1620.82)
(1614.61 6.59265 -1620.82)
(398359 6.44739 -1595.05)
(-374913 1595.66 -1595.66)
(-1518.73 1620.67 -1620.67)
(1614.46 1620.67 -1620.67)
(398346 1594.9 -1594.9)
(-371709 395334 -1570.48)
(-1493.87 398347 -1594.91)
(1588.84 398346 -1594.9)
(395144 395144 -1569.73)
(-374951 3039.05 -6.34921)
(-1506.91 12.4021 -6.48991)
(1601.87 13.1683 -6.48959)
(398385 3228.97 -6.3459)
(-374939 12.2145 -6.4564)
(-1518.97 0.1005 -6.59753)
(1614.7 0.106531 -6.59741)
(398372 12.9774 -6.4538)
(-374939 0.0480112 -6.45749)
(-1519.02 7.29392e-05 -6.59844)
(1614.75 -6.57178e-05 -6.59844)
(398372 0.0506536 -6.45513)
(-374939 -0.000126723 -6.45647)
(-1519.02 -0.00115018 -6.59778)
(1614.75 -0.00132818 -6.59784)
(398372 -0.000485686 -6.45417)
(-374939 0.02877 -6.45528)
(-1519.02 0.0262454 -6.59686)
(1614.75 0.0261144 -6.59694)
(398372 0.0286232 -6.45297)
(-374939 6.45366 -6.45374)
(-1519.02 6.59544 -6.59551)
(1614.75 6.59544 -6.59558)
(398372 6.45114 -6.45133)
(-374926 1595.81 -6.45031)
(-1518.88 1620.82 -6.59281)
(1614.61 1620.82 -6.59285)
(398359 1595.05 -6.44773)
(-371722 395346 -6.30255)
(-1494.02 398360 -6.44392)
(1588.98 398359 -6.44392)
(395156 395156 -6.29981)
(-374951 3038.99 -0.0271817)
(-1506.91 12.349 -0.0249729)
(1601.87 13.1155 -0.024686)
(398385 3228.92 -0.0265612)
(-374939 12.2117 -0.0300861)
(-1518.97 0.0980274 -0.027416)
(1614.7 0.103925 -0.0272234)
(398372 12.9742 -0.02986)
(-374939 0.0479952 -0.0305952)
(-1519.02 -8.42056e-05 -0.0279181)
(1614.75 -0.000311611 -0.0278165)
(398372 0.050465 -0.0305841)
(-374939 0.000693949 -0.0301635)
(-1519.02 -0.000533435 -0.027559)
(1614.75 -0.00074936 -0.0275038)
(398372 0.000302843 -0.0302302)
(-374939 0.0298223 -0.029494)
(-1519.02 0.0271242 -0.0269542)
(1614.75 0.0269875 -0.0269135)
(398372 0.0297254 -0.0295526)
(-374939 6.45506 -0.028698)
(-1519.02 6.59672 -0.0262346)
(1614.75 6.59674 -0.0261909)
(398372 6.45263 -0.0287034)
(-374926 1595.81 -0.0276031)
(-1518.88 1620.82 -0.0251625)
(1614.6 1620.82 -0.0251106)
(398359 1595.05 -0.0275482)
(-371722 395346 -0.0275135)
(-1494.02 398360 -0.0259747)
(1588.98 398359 -0.025916)
(395156 395157 -0.0273974)
(-374951 3038.99 0.000396764)
(-1506.91 12.3497 0.00097952)
(1601.87 13.1164 0.0011587)
(398385 3228.92 0.00088386)
(-374939 12.2111 0.000117292)
(-1518.97 0.0975548 0.000667187)
(1614.7 0.103401 0.000823394)
(398372 12.9734 0.000468767)
(-374939 0.0479338 -1.22247e-05)
(-1519.02 -7.00561e-05 0.000601981)
(1614.75 -0.000346159 0.000714136)
(398372 0.0502834 0.000218384)
(-374939 0.000974518 0.000110925)
(-1519.02 -0.000186222 0.000816852)
(1614.75 -0.000425168 0.000902966)
(398372 0.000545808 0.000283394)
(-374939 0.0302355 0.000344769)
(-1519.02 0.0275698 0.00112197)
(1614.75 0.0274273 0.00119875)
(398372 0.03015 0.000509323)
(-374939 6.45555 0.000625126)
(-1519.02 6.59723 0.00141157)
(1614.75 6.59725 0.00148518)
(398372 6.45314 0.000798499)
(-374926 1595.81 0.000932033)
(-1518.87 1620.82 0.00169619)
(1614.6 1620.82 0.00176582)
(398359 1595.05 0.00110622)
(-371722 395346 0.000763267)
(-1494.01 398360 0.00106595)
(1588.98 398359 0.00113122)
(395156 395157 0.000947141)
(-374951 3038.99 0.000797369)
(-1506.91 12.3507 0.000749304)
(1601.87 13.1175 0.000854191)
(398385 3228.92 0.00110777)
(-374939 12.2112 0.00102784)
(-1518.97 0.0976499 0.000869059)
(1614.7 0.10348 0.000971228)
(398372 12.9735 0.00130598)
(-374939 0.0479888 0.0011154)
(-1519.02 6.54597e-05 0.00098418)
(1614.75 -0.000232039 0.00106823)
(398372 0.0502796 0.00134275)
(-374939 0.00105094 0.0011657)
(-1519.02 -1.34457e-05 0.00111108)
(1614.75 -0.000264748 0.00118275)
(398372 0.000593782 0.00136125)
(-374939 0.0303365 0.00121527)
(-1519.02 0.0277189 0.00122653)
(1614.75 0.0275697 0.00129163)
(398372 0.0302405 0.00139762)
(-374939 6.45564 0.00126863)
(-1519.02 6.59729 0.00128517)
(1614.75 6.5973 0.00134444)
(398372 6.45323 0.00144079)
(-374926 1595.81 0.00128925)
(-1518.87 1620.82 0.00124019)
(1614.6 1620.82 0.00129311)
(398359 1595.05 0.00144695)
(-371722 395346 0.00116608)
(-1494.01 398360 0.000913281)
(1588.98 398359 0.000962543)
(395156 395157 0.00132193)
(-374951 3038.99 0.000543562)
(-1506.91 12.3513 0.000445918)
(1601.87 13.1182 0.000502254)
(398385 3228.92 0.000708524)
(-374939 12.2114 0.000732027)
(-1518.97 0.0977897 0.000559427)
(1614.7 0.103615 0.000616424)
(398372 12.9737 0.000893117)
(-374939 0.0480717 0.000830864)
(-1519.02 0.000171963 0.000652514)
(1614.75 -0.000134637 0.000702339)
(398372 0.0503387 0.000974257)
(-374939 0.00107439 0.000862121)
(-1519.02 5.61249e-05 0.000712054)
(1614.75 -0.000201775 0.000756432)
(398372 0.000600679 0.000991571)
(-374939 0.0303385 0.0008629)
(-1519.02 0.0277439 0.000742994)
(1614.75 0.027589 0.000783251)
(398372 0.0302295 0.000982597)
(-374939 6.45562 0.000854199)
(-1519.02 6.59724 0.000734024)
(1614.75 6.59725 0.000769575)
(398372 6.45319 0.000963367)
(-374926 1595.81 0.000823272)
(-1518.87 1620.82 0.000657925)
(1614.6 1620.82 0.00068889)
(398359 1595.05 0.000920919)
(-371722 395346 0.000737054)
(-1494.02 398360 0.000505004)
(1588.98 398359 0.000533938)
(395156 395157 0.000831605)
(-374951 3038.99 0.000183983)
(-1506.91 12.3517 0.000149996)
(1601.87 13.1186 0.000167921)
(398385 3228.92 0.000235057)
(-374939 12.2115 0.000244549)
(-1518.97 0.0978565 0.000186799)
(1614.7 0.10368 0.00020513)
(398372 12.9738 0.000295946)
(-374939 0.0481189 0.000280637)
(-1519.02 0.000218087 0.000216819)
(1614.75 -9.20306e-05 0.000233196)
(398372 0.050378 0.000327891)
(-374939 0.00108298 0.000291816)
(-1519.02 7.70342e-05 0.000232923)
(1614.75 -0.000183836 0.000247736)
(398372 0.000602122 0.000335297)
(-374939 0.0303285 0.000289226)
(-1519.02 0.0277408 0.000237728)
(1614.75 0.0275828 0.000251134)
(398372 0.0302123 0.000329334)
(-374939 6.4556 0.000281913)
(-1519.02 6.5972 0.000229899)
(1614.75 6.59721 0.000241577)
(398372 6.45316 0.000318083)
(-374926 1595.81 0.000267978)
(-1518.87 1620.82 0.000201774)
(1614.6 1620.82 0.000211853)
(398359 1595.05 0.000300134)
(-371722 395346 0.000238267)
(-1494.02 398360 0.000158871)
(1588.98 398359 0.000168308)
(395156 395157 0.000269138)
)
;

boundaryField
{
    interface
    {
        type            calculated;
        value           nonuniform List<vector> 
192
(
(-740554 6218.03 -395384)
(-740456 24.8119 -395347)
(-740455 0.0970725 -395346)
(-740455 -0.00158327 -395346)
(-740455 0.027065 -395346)
(-740455 6.30247 -395346)
(-740430 1570.48 -395334)
(-734173 392180 -392180)
(-746862 3051.8 -1583.22)
(-746813 12.3199 -1595.76)
(-746813 0.0480609 -1595.81)
(-746813 -0.00151457 -1595.81)
(-746813 0.02709 -1595.81)
(-746813 6.45008 -1595.81)
(-746787 1595.66 -1595.66)
(-740430 395334 -1570.48)
(-746887 3039.05 -6.34921)
(-746839 12.2145 -6.4564)
(-746838 0.0480112 -6.45749)
(-746838 -0.000126723 -6.45647)
(-746838 0.02877 -6.45528)
(-746838 6.45366 -6.45374)
(-746813 1595.81 -6.45031)
(-740455 395346 -6.30255)
(-746887 3038.99 -0.0271817)
(-746839 12.2117 -0.0300861)
(-746839 0.0479952 -0.0305952)
(-746839 0.000693949 -0.0301635)
(-746839 0.0298223 -0.029494)
(-746838 6.45506 -0.028698)
(-746813 1595.81 -0.0276031)
(-740455 395346 -0.0275135)
(-746887 3038.99 0.000396764)
(-746839 12.2111 0.000117292)
(-746839 0.0479338 -1.22247e-05)
(-746839 0.000974518 0.000110925)
(-746839 0.0302355 0.000344769)
(-746838 6.45555 0.000625126)
(-746813 1595.81 0.000932033)
(-740455 395346 0.000763267)
(-746887 3038.99 0.000797369)
(-746839 12.2112 0.00102784)
(-746839 0.0479888 0.0011154)
(-746839 0.00105094 0.0011657)
(-746839 0.0303365 0.00121527)
(-746838 6.45564 0.00126863)
(-746813 1595.81 0.00128925)
(-740455 395346 0.00116608)
(-746887 3038.99 0.000543562)
(-746839 12.2114 0.000732027)
(-746839 0.0480717 0.000830864)
(-746839 0.00107439 0.000862121)
(-746839 0.0303385 0.0008629)
(-746838 6.45562 0.000854199)
(-746813 1595.81 0.000823272)
(-740455 395346 0.000737054)
(-746887 3038.99 0.000183983)
(-746839 12.2115 0.000244549)
(-746839 0.0481189 0.000280637)
(-746839 0.00108298 0.000291816)
(-746839 0.0303285 0.000289226)
(-746838 6.4556 0.000281913)
(-746813 1595.81 0.000267978)
(-740455 395346 0.000238267)
(-371760 6218.03 -787613)
(-371722 24.8119 -787514)
(-371722 0.0970725 -787514)
(-371722 -0.00158327 -787514)
(-371722 0.027065 -787514)
(-371722 6.30247 -787514)
(-371709 1570.48 -787489)
(-368557 392180 -781232)
(-1482.29 3241.02 -793544)
(-1493.97 13.0782 -793492)
(-1494.02 0.052108 -793492)
(-1494.02 -0.00081867 -793492)
(-1494.02 0.0260983 -793492)
(-1494.02 6.44405 -793492)
(-1493.87 1594.91 -793466)
(-1469.6 395144 -787112)
(1576.5 3241.77 -793543)
(1588.93 13.0845 -793490)
(1588.98 0.0521099 -793490)
(1588.98 -0.000923394 -793490)
(1588.98 0.0260016 -793490)
(1588.98 6.44401 -793490)
(1588.84 1594.9 -793464)
(1563.81 395144 -787110)
(395195 6406.45 -787238)
(395157 25.5648 -787136)
(395156 0.0998889 -787136)
(395156 -0.00193613 -787136)
(395156 0.0268251 -787136)
(395156 6.29966 -787136)
(395144 1569.73 -787111)
(391992 391992 -780857)
(787238 6406.45 -395195)
(787136 25.5648 -395157)
(787136 0.0998889 -395157)
(787136 -0.00193613 -395157)
(787136 0.0268251 -395157)
(787136 6.29966 -395156)
(787111 1569.73 -395144)
(780857 391992 -391992)
(793543 3241.72 -1582.47)
(793491 13.0834 -1595.01)
(793490 0.0508377 -1595.06)
(793490 -0.00185964 -1595.05)
(793490 0.0268834 -1595.05)
(793490 6.44739 -1595.05)
(793465 1594.9 -1594.9)
(787111 395144 -1569.73)
(793568 3228.97 -6.3459)
(793516 12.9774 -6.4538)
(793516 0.0506536 -6.45513)
(793516 -0.000485686 -6.45417)
(793516 0.0286232 -6.45297)
(793516 6.45114 -6.45133)
(793490 1595.05 -6.44773)
(787136 395156 -6.29981)
(793568 3228.92 -0.0265612)
(793516 12.9742 -0.02986)
(793516 0.050465 -0.0305841)
(793516 0.000302843 -0.0302302)
(793516 0.0297254 -0.0295526)
(793516 6.45263 -0.0287034)
(793490 1595.05 -0.0275482)
(787136 395157 -0.0273974)
(793568 3228.92 0.00088386)
(793516 12.9734 0.000468767)
(793516 0.0502834 0.000218384)
(793516 0.000545808 0.000283394)
(793516 0.03015 0.000509323)
(793516 6.45314 0.000798499)
(793490 1595.05 0.00110622)
(787136 395157 0.000947141)
(793568 3228.92 0.00110777)
(793516 12.9735 0.00130598)
(793516 0.0502796 0.00134275)
(793516 0.000593782 0.00136125)
(793516 0.0302405 0.00139762)
(793516 6.45323 0.00144079)
(793490 1595.05 0.00144695)
(787136 395157 0.00132193)
(793568 3228.92 0.000708524)
(793516 12.9737 0.000893117)
(793516 0.0503387 0.000974257)
(793516 0.000600679 0.000991571)
(793516 0.0302295 0.000982597)
(793516 6.45319 0.000963367)
(793490 1595.05 0.000920919)
(787136 395157 0.000831605)
(793568 3228.92 0.000235057)
(793516 12.9738 0.000295946)
(793516 0.050378 0.000327891)
(793516 0.000602122 0.000335297)
(793516 0.0302123 0.000329334)
(793516 6.45316 0.000318083)
(793490 1595.05 0.000300134)
(787136 395157 0.000269138)
(-368557 781232 -392180)
(-371709 787489 -1570.48)
(-371722 787514 -6.30255)
(-371722 787514 -0.0275135)
(-371722 787514 0.000763267)
(-371722 787514 0.00116608)
(-371722 787514 0.000737054)
(-371722 787514 0.000238267)
(-1469.6 787112 -395144)
(-1493.87 793466 -1594.91)
(-1494.02 793492 -6.44392)
(-1494.02 793492 -0.0259747)
(-1494.01 793492 0.00106595)
(-1494.01 793492 0.000913281)
(-1494.02 793492 0.000505004)
(-1494.02 793492 0.000158871)
(1563.81 787110 -395144)
(1588.84 793464 -1594.9)
(1588.98 793490 -6.44392)
(1588.98 793490 -0.025916)
(1588.98 793490 0.00113122)
(1588.98 793490 0.000962543)
(1588.98 793490 0.000533938)
(1588.98 793490 0.000168308)
(391992 780857 -391992)
(395144 787111 -1569.73)
(395156 787136 -6.29981)
(395156 787136 -0.0273974)
(395156 787136 0.000947141)
(395156 787136 0.00132193)
(395156 787136 0.000831605)
(395156 787136 0.000269138)
)
;
    }
    symmetry
    {
        type            symmetry;
    }
    bottom
    {
        type            calculated;
        value           nonuniform List<vector> 
32
(
(-371760 12386.6 -395384)
(-374938 6079.05 -1583.22)
(-374951 6053.76 -6.34921)
(-374951 6053.66 -0.0271817)
(-374951 6053.66 0.000396764)
(-374951 6053.66 0.000797369)
(-374951 6053.66 0.000543562)
(-374951 6053.66 0.000183983)
(-1482.29 6455.98 -398373)
(-1506.77 50.4621 -1607.84)
(-1506.91 24.6044 -6.48991)
(-1506.91 24.5024 -0.0249729)
(-1506.91 24.5045 0.00097952)
(-1506.91 24.5064 0.000749304)
(-1506.91 24.5075 0.000445918)
(-1506.91 24.5081 0.000149996)
(1576.5 6457.48 -398373)
(1601.73 51.9818 -1607.84)
(1601.87 26.1247 -6.48959)
(1601.87 26.0234 -0.024686)
(1601.87 26.026 0.0011587)
(1601.87 26.028 0.000854191)
(1601.87 26.0294 0.000502254)
(1601.87 26.0301 0.000167921)
(395195 12762 -395195)
(398373 6457.37 -1582.47)
(398385 6432.09 -6.3459)
(398385 6431.99 -0.0265612)
(398385 6431.99 0.00088386)
(398385 6431.99 0.00110777)
(398385 6431.99 0.000708524)
(398385 6431.99 0.000235057)
)
;
    }
}


// ************************************************************************* //
