/*--------------------------------*- C++ -*----------------------------------*\
| =========                 |                                                 |
| \\      /  F ield         | OpenFOAM: The Open Source CFD Toolbox           |
|  \\    /   O peration     | Version:  v1912                                 |
|   \\  /    A nd           | Website:  www.openfoam.com                      |
|    \\/     M anipulation  |                                                 |
\*---------------------------------------------------------------------------*/
FoamFile
{
    version     2.0;
    format      ascii;
    class       pointVectorField;
    location    "0.02/solid";
    object      pointDD;
}
// * * * * * * * * * * * * * * * * * * * * * * * * * * * * * * * * * * * * * //

dimensions      [0 1 0 0 0 0 0];


internalField   nonuniform List<vector> 
405
(
(3.24882e-08 -2.41691e-08 2.80218e-08)
(-1.26127e-08 -1.86323e-08 8.55332e-08)
(-8.46649e-10 -1.34761e-08 1.01924e-07)
(1.08163e-08 -2.10264e-08 8.20987e-08)
(-3.90248e-08 -2.65725e-08 2.10668e-08)
(3.91213e-08 -6.53919e-09 6.15668e-09)
(-3.29787e-08 -1.33535e-08 1.35741e-07)
(-2.6407e-09 -7.51252e-09 1.68872e-07)
(2.73626e-08 -1.72291e-08 1.26295e-07)
(-5.0591e-08 -9.57457e-09 -8.77988e-09)
(3.09137e-08 5.20563e-08 -5.82053e-08)
(-4.06237e-08 3.80511e-08 7.1313e-08)
(-4.06589e-09 3.82166e-08 1.03833e-07)
(3.19516e-08 3.595e-08 5.80236e-08)
(-4.48792e-08 5.04158e-08 -7.98931e-08)
(3.54714e-08 1.09782e-07 -1.11986e-07)
(-3.86829e-08 9.54018e-08 1.69051e-08)
(-4.88394e-09 9.494e-08 4.81653e-08)
(2.82395e-08 9.49923e-08 1.70706e-09)
(-5.09079e-08 1.10055e-07 -1.37109e-07)
(3.99606e-08 1.67851e-07 -1.61371e-07)
(-3.61994e-08 1.5649e-07 -3.20321e-08)
(-5.70456e-09 1.57964e-07 -9.10879e-10)
(2.40055e-08 1.57828e-07 -4.82271e-08)
(-5.70115e-08 1.7064e-07 -1.88367e-07)
(3.75774e-08 2.26695e-07 -2.10729e-07)
(-3.87671e-08 2.19642e-07 -8.01782e-08)
(-7.01277e-09 2.23832e-07 -4.8725e-08)
(2.38595e-08 2.22969e-07 -9.69288e-08)
(-5.7304e-08 2.32684e-07 -2.38816e-07)
(2.00035e-08 2.89489e-07 -2.65593e-07)
(-5.2618e-08 2.85183e-07 -1.33936e-07)
(-9.15516e-09 2.89792e-07 -1.02942e-07)
(3.33434e-08 2.90807e-07 -1.50982e-07)
(-4.41179e-08 2.99331e-07 -2.9428e-07)
(-2.7447e-08 3.65506e-07 -3.36942e-07)
(-8.01745e-08 3.57287e-07 -2.17842e-07)
(-1.23406e-08 3.55167e-07 -1.92227e-07)
(5.44953e-08 3.65474e-07 -2.34995e-07)
(-3.12099e-09 3.79732e-07 -3.65823e-07)
(-8.76019e-08 3.54319e-07 -4.1196e-07)
(-9.63005e-08 3.07829e-07 -3.71201e-07)
(-1.34277e-08 2.91857e-07 -3.58393e-07)
(6.84612e-08 3.1803e-07 -3.87672e-07)
(5.56347e-08 3.71033e-07 -4.3917e-07)
(9.45603e-08 2.35763e-09 -1.95291e-08)
(0 0 0)
(0 0 0)
(0 0 0)
(-1.0164e-07 2.03454e-09 -2.33909e-08)
(1.86003e-07 3.22402e-08 -7.1824e-08)
(0 0 0)
(0 0 0)
(0 0 0)
(-2.00254e-07 3.1447e-08 -8.41245e-08)
(1.85358e-07 8.71083e-08 -1.33199e-07)
(0 0 0)
(0 0 0)
(0 0 0)
(-1.99611e-07 8.65569e-08 -1.52625e-07)
(1.91029e-07 1.4202e-07 -1.87441e-07)
(0 0 0)
(0 0 0)
(0 0 0)
(-2.05276e-07 1.42822e-07 -2.10882e-07)
(1.95493e-07 1.97183e-07 -2.37379e-07)
(0 0 0)
(0 0 0)
(0 0 0)
(-2.10454e-07 2.00455e-07 -2.63191e-07)
(1.92761e-07 2.51479e-07 -2.86948e-07)
(0 0 0)
(0 0 0)
(0 0 0)
(-2.09834e-07 2.5823e-07 -3.14234e-07)
(1.73851e-07 3.05343e-07 -3.40009e-07)
(0 0 0)
(0 0 0)
(0 0 0)
(-1.94979e-07 3.16397e-07 -3.68186e-07)
(1.1147e-07 3.65596e-07 -3.93358e-07)
(0 0 0)
(0 0 0)
(0 0 0)
(-1.38922e-07 3.81541e-07 -4.21959e-07)
(-2.50156e-08 3.08249e-07 -4.26404e-07)
(-7.69491e-08 1.86735e-07 -4.31407e-07)
(-9.13642e-09 1.57952e-07 -4.32461e-07)
(5.76984e-08 1.97575e-07 -4.45819e-07)
(-7.02167e-10 3.26049e-07 -4.51625e-07)
(1.25178e-07 2.25473e-08 -1.20836e-08)
(0 0 0)
(0 0 0)
(0 0 0)
(-1.30874e-07 2.13272e-08 -1.44809e-08)
(2.56327e-07 6.91204e-08 -5.22138e-08)
(0 0 0)
(0 0 0)
(0 0 0)
(-2.66025e-07 6.67128e-08 -6.04512e-08)
(2.65915e-07 1.18881e-07 -1.07576e-07)
(0 0 0)
(0 0 0)
(0 0 0)
(-2.72627e-07 1.16977e-07 -1.21529e-07)
(2.72353e-07 1.71263e-07 -1.59858e-07)
(0 0 0)
(0 0 0)
(0 0 0)
(-2.77047e-07 1.70878e-07 -1.77567e-07)
(2.75962e-07 2.23674e-07 -2.08138e-07)
(0 0 0)
(0 0 0)
(0 0 0)
(-2.80003e-07 2.25938e-07 -2.28328e-07)
(2.71702e-07 2.72058e-07 -2.54212e-07)
(0 0 0)
(0 0 0)
(0 0 0)
(-2.76924e-07 2.77994e-07 -2.76073e-07)
(2.49124e-07 3.13859e-07 -2.98238e-07)
(0 0 0)
(0 0 0)
(0 0 0)
(-2.57779e-07 3.24288e-07 -3.21192e-07)
(1.77255e-07 3.55372e-07 -3.32773e-07)
(0 0 0)
(0 0 0)
(0 0 0)
(-1.91855e-07 3.70872e-07 -3.56321e-07)
(2.58051e-08 2.80017e-07 -3.50283e-07)
(-4.60503e-08 1.45956e-07 -3.5942e-07)
(-2.66176e-09 1.11791e-07 -3.67244e-07)
(3.97672e-08 1.56643e-07 -3.71175e-07)
(-3.85356e-08 2.9757e-07 -3.70971e-07)
(1.33081e-07 3.05596e-08 -1.136e-08)
(0 0 0)
(0 0 0)
(0 0 0)
(-1.37868e-07 2.82791e-08 -1.29378e-08)
(2.78357e-07 8.55637e-08 -4.69999e-08)
(0 0 0)
(0 0 0)
(0 0 0)
(-2.85073e-07 8.09759e-08 -5.25728e-08)
(2.95649e-07 1.35964e-07 -9.52194e-08)
(0 0 0)
(0 0 0)
(0 0 0)
(-2.97231e-07 1.31928e-07 -1.05012e-07)
(3.03441e-07 1.8808e-07 -1.41467e-07)
(0 0 0)
(0 0 0)
(0 0 0)
(-3.01241e-07 1.85824e-07 -1.54395e-07)
(3.06438e-07 2.38011e-07 -1.84255e-07)
(0 0 0)
(0 0 0)
(0 0 0)
(-3.02216e-07 2.38721e-07 -1.99498e-07)
(3.00773e-07 2.80416e-07 -2.23173e-07)
(0 0 0)
(0 0 0)
(0 0 0)
(-2.96713e-07 2.8511e-07 -2.40107e-07)
(2.75621e-07 3.12924e-07 -2.56325e-07)
(0 0 0)
(0 0 0)
(0 0 0)
(-2.74264e-07 3.22385e-07 -2.74437e-07)
(2.00065e-07 3.45925e-07 -2.78335e-07)
(0 0 0)
(0 0 0)
(0 0 0)
(-2.04133e-07 3.60676e-07 -2.9712e-07)
(4.72083e-08 2.68855e-07 -2.87425e-07)
(-2.85604e-08 1.35906e-07 -2.94393e-07)
(2.72197e-09 1.01286e-07 -3.01883e-07)
(3.30968e-08 1.46313e-07 -3.03677e-07)
(-4.91281e-08 2.85876e-07 -3.03886e-07)
(1.35219e-07 3.30901e-08 -1.02114e-08)
(0 0 0)
(0 0 0)
(0 0 0)
(-1.39432e-07 3.0064e-08 -1.12635e-08)
(2.84925e-07 9.17276e-08 -4.08171e-08)
(0 0 0)
(0 0 0)
(0 0 0)
(-2.89734e-07 8.5419e-08 -4.45802e-08)
(3.05467e-07 1.43882e-07 -8.08971e-08)
(0 0 0)
(0 0 0)
(0 0 0)
(-3.03649e-07 1.37885e-07 -8.76486e-08)
(3.14334e-07 1.96373e-07 -1.18914e-07)
(0 0 0)
(0 0 0)
(0 0 0)
(-3.07341e-07 1.92244e-07 -1.28073e-07)
(3.17196e-07 2.44597e-07 -1.53729e-07)
(0 0 0)
(0 0 0)
(0 0 0)
(-3.06976e-07 2.43674e-07 -1.64826e-07)
(3.10781e-07 2.83236e-07 -1.84141e-07)
(0 0 0)
(0 0 0)
(0 0 0)
(-2.99756e-07 2.86578e-07 -1.96759e-07)
(2.84451e-07 3.11266e-07 -2.08175e-07)
(0 0 0)
(0 0 0)
(0 0 0)
(-2.75385e-07 3.19632e-07 -2.21908e-07)
(2.07618e-07 3.417e-07 -2.23088e-07)
(0 0 0)
(0 0 0)
(0 0 0)
(-2.03406e-07 3.55553e-07 -2.37475e-07)
(5.44116e-08 2.64911e-07 -2.28486e-07)
(-2.17869e-08 1.33163e-07 -2.32195e-07)
(7.01849e-09 9.89511e-08 -2.37074e-07)
(3.49687e-08 1.43215e-07 -2.39243e-07)
(-4.77178e-08 2.81256e-07 -2.41068e-07)
(1.35486e-07 3.36119e-08 -8.03347e-09)
(0 0 0)
(0 0 0)
(0 0 0)
(-1.39341e-07 3.01052e-08 -8.71884e-09)
(2.8583e-07 9.35342e-08 -3.17807e-08)
(0 0 0)
(0 0 0)
(0 0 0)
(-2.89435e-07 8.60339e-08 -3.42519e-08)
(3.07075e-07 1.46928e-07 -6.24627e-08)
(0 0 0)
(0 0 0)
(0 0 0)
(-3.03055e-07 1.39432e-07 -6.69552e-08)
(3.16403e-07 1.99766e-07 -9.12443e-08)
(0 0 0)
(0 0 0)
(0 0 0)
(-3.06194e-07 1.94094e-07 -9.74517e-08)
(3.19343e-07 2.47132e-07 -1.17237e-07)
(0 0 0)
(0 0 0)
(0 0 0)
(-3.04956e-07 2.44788e-07 -1.24911e-07)
(3.12726e-07 2.84096e-07 -1.39327e-07)
(0 0 0)
(0 0 0)
(0 0 0)
(-2.96718e-07 2.86211e-07 -1.48215e-07)
(2.861e-07 3.10647e-07 -1.56151e-07)
(0 0 0)
(0 0 0)
(0 0 0)
(-2.71388e-07 3.17982e-07 -1.65966e-07)
(2.09067e-07 3.40706e-07 -1.6649e-07)
(0 0 0)
(0 0 0)
(0 0 0)
(-1.98676e-07 3.53685e-07 -1.76857e-07)
(5.59205e-08 2.64299e-07 -1.7013e-07)
(-1.96396e-08 1.33183e-07 -1.7183e-07)
(1.0267e-08 9.92923e-08 -1.74573e-07)
(3.93627e-08 1.42879e-07 -1.76875e-07)
(-4.27253e-08 2.7997e-07 -1.79185e-07)
(1.35359e-07 3.3585e-08 -5.42258e-09)
(0 0 0)
(0 0 0)
(0 0 0)
(-1.38997e-07 2.97822e-08 -5.83513e-09)
(2.85428e-07 9.38272e-08 -2.14033e-08)
(0 0 0)
(0 0 0)
(0 0 0)
(-2.883e-07 8.55632e-08 -2.28989e-08)
(3.06544e-07 1.47796e-07 -4.19761e-08)
(0 0 0)
(0 0 0)
(0 0 0)
(-3.01161e-07 1.39283e-07 -4.47184e-08)
(3.15955e-07 2.00822e-07 -6.11627e-08)
(0 0 0)
(0 0 0)
(0 0 0)
(-3.03707e-07 1.94047e-07 -6.49973e-08)
(3.18986e-07 2.47892e-07 -7.83112e-08)
(0 0 0)
(0 0 0)
(0 0 0)
(-3.01892e-07 2.44486e-07 -8.31172e-08)
(3.12412e-07 2.84361e-07 -9.26604e-08)
(0 0 0)
(0 0 0)
(0 0 0)
(-2.93092e-07 2.85526e-07 -9.83e-08)
(2.85838e-07 3.10684e-07 -1.03438e-07)
(0 0 0)
(0 0 0)
(0 0 0)
(-2.67304e-07 3.17198e-07 -1.09731e-07)
(2.08925e-07 3.40953e-07 -1.10122e-07)
(0 0 0)
(0 0 0)
(0 0 0)
(-1.94289e-07 3.53222e-07 -1.1681e-07)
(5.59782e-08 2.64818e-07 -1.12546e-07)
(-1.88585e-08 1.33931e-07 -1.13319e-07)
(1.25214e-08 1.00125e-07 -1.14755e-07)
(4.31241e-08 1.43335e-07 -1.16562e-07)
(-3.82754e-08 2.79938e-07 -1.18385e-07)
(1.35246e-07 3.34955e-08 -2.71336e-09)
(0 0 0)
(0 0 0)
(0 0 0)
(-1.38767e-07 2.95321e-08 -2.9071e-09)
(2.85052e-07 9.37559e-08 -1.07043e-08)
(0 0 0)
(0 0 0)
(0 0 0)
(-2.8753e-07 8.50686e-08 -1.14089e-08)
(3.05972e-07 1.47909e-07 -2.09837e-08)
(0 0 0)
(0 0 0)
(0 0 0)
(-2.99851e-07 1.38815e-07 -2.2282e-08)
(3.15352e-07 2.01008e-07 -3.05482e-08)
(0 0 0)
(0 0 0)
(0 0 0)
(-3.01983e-07 1.93583e-07 -3.2376e-08)
(3.18435e-07 2.48025e-07 -3.90503e-08)
(0 0 0)
(0 0 0)
(0 0 0)
(-2.99827e-07 2.43974e-07 -4.13593e-08)
(3.11939e-07 2.84444e-07 -4.61142e-08)
(0 0 0)
(0 0 0)
(0 0 0)
(-2.9074e-07 2.85018e-07 -4.88446e-08)
(2.85469e-07 3.10872e-07 -5.13999e-08)
(0 0 0)
(0 0 0)
(0 0 0)
(-2.64737e-07 3.16864e-07 -5.44656e-08)
(2.08691e-07 3.41382e-07 -5.47073e-08)
(0 0 0)
(0 0 0)
(0 0 0)
(-1.9159e-07 3.53198e-07 -5.79771e-08)
(5.59165e-08 2.65417e-07 -5.59473e-08)
(-1.845e-08 1.34582e-07 -5.627e-08)
(1.38377e-08 1.0075e-07 -5.68941e-08)
(4.53693e-08 1.43798e-07 -5.78546e-08)
(-3.55826e-08 2.80185e-07 -5.88027e-08)
(1.01411e-07 3.65273e-08 0)
(1.11552e-08 1.83455e-08 0)
(1.25907e-09 1.52861e-08 0)
(-8.46461e-09 1.75989e-08 0)
(-1.01826e-07 3.29548e-08 0)
(1.66724e-07 8.5055e-08 0)
(3.32664e-08 7.07074e-08 0)
(5.07831e-09 6.46735e-08 0)
(-2.28473e-08 6.84583e-08 0)
(-1.6256e-07 7.87301e-08 0)
(1.87486e-07 1.44215e-07 0)
(4.92113e-08 1.36403e-07 0)
(9.98506e-09 1.31706e-07 0)
(-2.92334e-08 1.33339e-07 0)
(-1.74316e-07 1.37072e-07 0)
(1.96534e-07 1.9957e-07 0)
(5.67177e-08 1.96569e-07 0)
(1.42096e-08 1.94505e-07 0)
(-2.86057e-08 1.93939e-07 0)
(-1.75768e-07 1.93621e-07 0)
(1.99461e-07 2.48506e-07 0)
(5.95367e-08 2.5023e-07 0)
(1.73099e-08 2.51279e-07 0)
(-2.54706e-08 2.48987e-07 0)
(-1.73159e-07 2.45324e-07 0)
(1.92926e-07 2.88588e-07 0)
(5.51567e-08 2.96974e-07 0)
(1.89748e-08 3.01523e-07 0)
(-1.79411e-08 2.97799e-07 0)
(-1.63783e-07 2.89312e-07 0)
(1.66519e-07 3.2084e-07 0)
(3.65124e-08 3.35255e-07 0)
(1.90205e-08 3.40668e-07 0)
(6.65733e-10 3.38608e-07 0)
(-1.37639e-07 3.26218e-07 0)
(1.01813e-07 3.52519e-07 0)
(1.20183e-09 3.58467e-07 0)
(1.74007e-08 3.54962e-07 0)
(3.2687e-08 3.64643e-07 0)
(-7.63722e-08 3.63021e-07 0)
(2.46416e-08 3.03202e-07 0)
(-1.92254e-08 2.49897e-07 0)
(1.52229e-08 2.2721e-07 0)
(4.88418e-08 2.58295e-07 0)
(-3.33589e-10 3.16859e-07 0)
)
;

boundaryField
{
    interface
    {
        type            calculated;
    }
    symmetry
    {
        type            symmetry;
    }
    bottom
    {
        type            calculated;
    }
}


// ************************************************************************* //
