/*--------------------------------*- C++ -*----------------------------------*\
| =========                 |                                                 |
| \\      /  F ield         | OpenFOAM: The Open Source CFD Toolbox           |
|  \\    /   O peration     | Version:  v1912                                 |
|   \\  /    A nd           | Website:  www.openfoam.com                      |
|    \\/     M anipulation  |                                                 |
\*---------------------------------------------------------------------------*/
FoamFile
{
    version     2.0;
    format      ascii;
    class       volScalarField;
    location    "0.02/solid";
    object      T;
}
// * * * * * * * * * * * * * * * * * * * * * * * * * * * * * * * * * * * * * //

dimensions      [0 0 0 1 0 0 0];


internalField   nonuniform List<scalar> 
256
(
292.845
292.919
292.919
292.84
292.844
292.919
292.919
292.839
292.844
292.919
292.919
292.839
292.844
292.919
292.919
292.839
292.844
292.919
292.919
292.839
292.844
292.919
292.919
292.839
292.844
292.918
292.918
292.839
292.765
292.839
292.839
292.761
292.924
292.999
292.999
292.919
292.923
292.999
292.999
292.919
292.923
292.999
292.999
292.919
292.923
292.999
292.999
292.919
292.923
292.999
292.999
292.919
292.923
292.999
292.999
292.919
292.923
292.999
292.999
292.918
292.844
292.918
292.918
292.839
292.924
293
293
292.92
292.924
293
293
292.919
292.924
293
293
292.919
292.924
293
293
292.919
292.924
293
293
292.919
292.924
293
293
292.919
292.923
292.999
292.999
292.919
292.844
292.919
292.919
292.839
292.924
293
293
292.92
292.924
293
293
292.919
292.924
293
293
292.919
292.924
293
293
292.919
292.924
293
293
292.919
292.924
293
293
292.919
292.923
292.999
292.999
292.919
292.844
292.919
292.919
292.839
292.924
293
293
292.92
292.924
293
293
292.919
292.924
293
293
292.919
292.924
293
293
292.919
292.924
293
293
292.919
292.924
293
293
292.919
292.923
292.999
292.999
292.919
292.844
292.919
292.919
292.839
292.924
293
293
292.92
292.924
293
293
292.919
292.924
293
293
292.919
292.924
293
293
292.919
292.924
293
293
292.919
292.924
293
293
292.919
292.923
292.999
292.999
292.919
292.844
292.919
292.919
292.839
292.924
293
293
292.92
292.924
293
293
292.919
292.924
293
293
292.919
292.924
293
293
292.919
292.924
293
293
292.919
292.924
293
293
292.919
292.923
292.999
292.999
292.919
292.844
292.919
292.919
292.839
292.924
293
293
292.92
292.924
293
293
292.919
292.924
293
293
292.919
292.924
293
293
292.919
292.924
293
293
292.919
292.924
293
293
292.919
292.923
292.999
292.999
292.919
292.844
292.919
292.919
292.839
)
;

boundaryField
{
    interface
    {
        type            fixedValue;
        value           nonuniform List<scalar> 
192
(
286.088
286.087
286.086
286.084
286.078
286.061
285.998
285.708
286.404
286.404
286.403
286.401
286.396
286.377
286.31
285.998
286.474
286.474
286.473
286.471
286.465
286.446
286.377
286.061
286.494
286.493
286.492
286.49
286.484
286.465
286.396
286.078
286.5
286.499
286.498
286.496
286.49
286.471
286.401
286.084
286.502
286.501
286.5
286.498
286.492
286.473
286.403
286.086
286.502
286.502
286.501
286.499
286.493
286.474
286.404
286.087
286.503
286.502
286.501
286.499
286.493
286.474
286.404
286.087
285.717
285.715
285.715
285.713
285.709
285.693
285.635
285.347
286.009
286.008
286.008
286.006
286.002
285.987
285.926
285.619
286.012
286.011
286.011
286.01
286.005
285.99
285.929
285.622
285.724
285.723
285.723
285.721
285.716
285.701
285.642
285.353
285.723
285.722
285.722
285.72
285.716
285.701
285.642
285.353
286.035
286.035
286.034
286.033
286.029
286.013
285.951
285.642
286.1
286.099
286.099
286.098
286.093
286.077
286.013
285.701
286.116
286.116
286.115
286.114
286.11
286.093
286.029
285.716
286.121
286.121
286.12
286.119
286.114
286.098
286.033
285.72
286.122
286.122
286.122
286.12
286.115
286.099
286.034
285.722
286.123
286.122
286.122
286.121
286.116
286.099
286.035
285.722
286.123
286.122
286.122
286.121
286.116
286.099
286.035
285.722
285.347
285.635
285.693
285.709
285.713
285.715
285.715
285.716
285.619
285.926
285.987
286.002
286.006
286.008
286.008
286.008
285.622
285.929
285.99
286.005
286.01
286.011
286.011
286.012
285.353
285.642
285.701
285.716
285.721
285.723
285.723
285.723
)
;
    }
    symmetry
    {
        type            symmetry;
    }
    bottom
    {
        type            fixedValue;
        value           uniform 293;
    }
}


// ************************************************************************* //
