/*--------------------------------*- C++ -*----------------------------------*\
| =========                 |                                                 |
| \\      /  F ield         | OpenFOAM: The Open Source CFD Toolbox           |
|  \\    /   O peration     | Version:  v1912                                 |
|   \\  /    A nd           | Website:  www.openfoam.com                      |
|    \\/     M anipulation  |                                                 |
\*---------------------------------------------------------------------------*/
FoamFile
{
    version     2.0;
    format      ascii;
    class       volVectorField;
    location    "0.02/solid";
    object      U;
}
// * * * * * * * * * * * * * * * * * * * * * * * * * * * * * * * * * * * * * //

dimensions      [0 1 -1 0 0 0 0];


internalField   nonuniform List<vector> 
256
(
(-4.30053e-06 2.85566e-07 -6.44209e-06)
(-1.3438e-06 1.26687e-06 -3.98424e-06)
(1.25563e-06 1.20395e-06 -4.21324e-06)
(4.15115e-06 1.57977e-07 -7.21688e-06)
(-6.32636e-06 4.23524e-06 -1.42182e-05)
(-2.20096e-06 4.66145e-06 -1.13768e-05)
(1.99912e-06 4.59751e-06 -1.18708e-05)
(5.9938e-06 4.10248e-06 -1.57893e-05)
(-6.0497e-06 9.34508e-06 -2.00344e-05)
(-2.17408e-06 9.32095e-06 -1.75325e-05)
(1.91168e-06 9.30083e-06 -1.81591e-05)
(5.62516e-06 9.31538e-06 -2.19952e-05)
(-5.44989e-06 1.49978e-05 -2.5105e-05)
(-1.9738e-06 1.50167e-05 -2.27184e-05)
(1.64278e-06 1.50622e-05 -2.34114e-05)
(4.93959e-06 1.51424e-05 -2.72692e-05)
(-5.23677e-06 2.10248e-05 -2.99287e-05)
(-1.96189e-06 2.14491e-05 -2.74891e-05)
(1.47729e-06 2.15784e-05 -2.8219e-05)
(4.55882e-06 2.14084e-05 -3.22103e-05)
(-6.07139e-06 2.74789e-05 -3.50207e-05)
(-2.47302e-06 2.83989e-05 -3.25222e-05)
(1.6802e-06 2.86295e-05 -3.32738e-05)
(5.07168e-06 2.81624e-05 -3.73722e-05)
(-8.9514e-06 3.48035e-05 -4.0994e-05)
(-3.81609e-06 3.54207e-05 -3.86852e-05)
(2.50909e-06 3.57671e-05 -3.94491e-05)
(7.42609e-06 3.58414e-05 -4.33797e-05)
(-1.38899e-05 4.23984e-05 -4.74988e-05)
(-5.39418e-06 4.04765e-05 -4.58984e-05)
(3.34142e-06 4.09346e-05 -4.66688e-05)
(1.16201e-05 4.3845e-05 -4.98884e-05)
(3.66855e-07 3.07353e-06 -4.26287e-06)
(-1.66294e-07 2.79541e-06 -4.3786e-06)
(3.61278e-07 2.81043e-06 -4.53054e-06)
(-2.19402e-07 3.08431e-06 -4.72476e-06)
(5.96195e-07 7.98512e-06 -1.13004e-05)
(-1.04975e-07 7.79767e-06 -1.18734e-05)
(5.94857e-07 7.80436e-06 -1.22403e-05)
(-2.11334e-07 7.96363e-06 -1.23893e-05)
(1.04719e-06 1.30887e-05 -1.71698e-05)
(1.2924e-07 1.29484e-05 -1.80506e-05)
(5.72504e-07 1.2966e-05 -1.85443e-05)
(-4.88395e-07 1.31051e-05 -1.86327e-05)
(1.54639e-06 1.85594e-05 -2.22994e-05)
(3.54004e-07 1.86019e-05 -2.32786e-05)
(4.55776e-07 1.86625e-05 -2.38437e-05)
(-9.05896e-07 1.87101e-05 -2.3982e-05)
(1.67694e-06 2.4306e-05 -2.71151e-05)
(3.6213e-07 2.47913e-05 -2.80743e-05)
(4.0825e-07 2.49241e-05 -2.86822e-05)
(-1.09557e-06 2.46778e-05 -2.89345e-05)
(6.66657e-07 3.01847e-05 -3.19691e-05)
(-2.00442e-07 3.11954e-05 -3.28759e-05)
(7.35954e-07 3.14241e-05 -3.35108e-05)
(-3.36365e-07 3.08504e-05 -3.38762e-05)
(-2.71732e-06 3.59753e-05 -3.67525e-05)
(-1.70231e-06 3.65473e-05 -3.76543e-05)
(1.76877e-06 3.68888e-05 -3.83047e-05)
(2.56552e-06 3.69957e-05 -3.87099e-05)
(-8.62605e-06 4.01963e-05 -3.98939e-05)
(-3.49044e-06 3.75662e-05 -4.08411e-05)
(2.83592e-06 3.80155e-05 -4.14957e-05)
(7.75264e-06 4.16328e-05 -4.1866e-05)
(2.68988e-06 3.84677e-06 -3.06938e-06)
(7.38781e-07 2.97954e-06 -3.62537e-06)
(-3.99302e-07 2.99033e-06 -3.73022e-06)
(-2.36307e-06 3.7772e-06 -3.37584e-06)
(4.74202e-06 9.76442e-06 -8.92211e-06)
(1.65059e-06 9.0854e-06 -1.00808e-05)
(-7.29072e-07 9.08333e-06 -1.0342e-05)
(-3.8833e-06 9.64777e-06 -9.67809e-06)
(5.5288e-06 1.52895e-05 -1.42593e-05)
(2.12299e-06 1.49703e-05 -1.56755e-05)
(-7.48912e-07 1.4974e-05 -1.60411e-05)
(-4.26494e-06 1.52148e-05 -1.53237e-05)
(5.97213e-06 2.07471e-05 -1.9069e-05)
(2.38557e-06 2.07831e-05 -2.05621e-05)
(-7.21858e-07 2.08263e-05 -2.09954e-05)
(-4.45501e-06 2.08134e-05 -2.03417e-05)
(6.00179e-06 2.60942e-05 -2.34934e-05)
(2.39153e-06 2.66428e-05 -2.49791e-05)
(-6.3736e-07 2.67574e-05 -2.54574e-05)
(-4.42106e-06 2.63921e-05 -2.49094e-05)
(4.80147e-06 3.10953e-05 -2.75755e-05)
(1.7792e-06 3.21894e-05 -2.90096e-05)
(-1.69901e-07 3.24012e-05 -2.95184e-05)
(-3.3863e-06 3.16998e-05 -2.90902e-05)
(1.0195e-06 3.55058e-05 -3.09293e-05)
(1.38995e-07 3.60821e-05 -3.22848e-05)
(1.06205e-06 3.64086e-05 -3.28116e-05)
(-2.8224e-08 3.64779e-05 -3.25051e-05)
(-5.39808e-06 3.85447e-05 -3.25558e-05)
(-1.81009e-06 3.57236e-05 -3.38258e-05)
(2.33005e-06 3.61596e-05 -3.43558e-05)
(5.70699e-06 3.9945e-05 -3.41491e-05)
(3.37226e-06 4.1236e-06 -2.41965e-06)
(1.05957e-06 3.01335e-06 -2.74148e-06)
(-6.42628e-07 3.00993e-06 -2.81492e-06)
(-2.93737e-06 3.97575e-06 -2.62929e-06)
(6.21014e-06 1.05527e-05 -7.17208e-06)
(2.3798e-06 9.61077e-06 -7.86594e-06)
(-1.19314e-06 9.57749e-06 -8.05075e-06)
(-5.05055e-06 1.03073e-05 -7.6982e-06)
(7.27212e-06 1.64046e-05 -1.16625e-05)
(3.0325e-06 1.59538e-05 -1.25292e-05)
(-1.20682e-06 1.5923e-05 -1.27935e-05)
(-5.52964e-06 1.61992e-05 -1.24229e-05)
(7.74014e-06 2.1873e-05 -1.57851e-05)
(3.35615e-06 2.18838e-05 -1.67135e-05)
(-1.08076e-06 2.18946e-05 -1.70349e-05)
(-5.59218e-06 2.18222e-05 -1.67212e-05)
(7.71125e-06 2.68913e-05 -1.9496e-05)
(3.37816e-06 2.74705e-05 -2.04287e-05)
(-8.86336e-07 2.75563e-05 -2.07918e-05)
(-5.37914e-06 2.70896e-05 -2.05645e-05)
(6.39511e-06 3.1279e-05 -2.26745e-05)
(2.74993e-06 3.24264e-05 -2.35763e-05)
(-3.09064e-07 3.26135e-05 -2.39695e-05)
(-4.13821e-06 3.18015e-05 -2.38407e-05)
(2.43667e-06 3.50404e-05 -2.50088e-05)
(1.06078e-06 3.56671e-05 -2.58554e-05)
(1.03971e-06 3.59727e-05 -2.62669e-05)
(-5.37752e-07 3.59457e-05 -2.6238e-05)
(-4.15231e-06 3.787e-05 -2.60801e-05)
(-9.4207e-07 3.51039e-05 -2.68819e-05)
(2.41034e-06 3.5522e-05 -2.72956e-05)
(5.41818e-06 3.92149e-05 -2.73257e-05)
(3.46508e-06 4.2303e-06 -1.87307e-06)
(1.11128e-06 3.04358e-06 -1.99507e-06)
(-6.50913e-07 3.02889e-06 -2.04551e-06)
(-2.9646e-06 4.02841e-06 -2.01472e-06)
(6.48154e-06 1.08777e-05 -5.55963e-06)
(2.54885e-06 9.82883e-06 -5.84086e-06)
(-1.19964e-06 9.76638e-06 -5.96876e-06)
(-5.13276e-06 1.05261e-05 -5.91909e-06)
(7.6643e-06 1.68874e-05 -9.0787e-06)
(3.29492e-06 1.63651e-05 -9.44966e-06)
(-1.17391e-06 1.62994e-05 -9.63503e-06)
(-5.606e-06 1.65626e-05 -9.60674e-06)
(8.17547e-06 2.23505e-05 -1.23231e-05)
(3.67619e-06 2.23339e-05 -1.27371e-05)
(-9.7923e-07 2.23109e-05 -1.29666e-05)
(-5.59113e-06 2.21863e-05 -1.29867e-05)
(8.13742e-06 2.71802e-05 -1.51898e-05)
(3.7295e-06 2.77624e-05 -1.56168e-05)
(-7.08039e-07 2.78181e-05 -1.58809e-05)
(-5.26481e-06 2.72792e-05 -1.59628e-05)
(6.78543e-06 3.12843e-05 -1.75377e-05)
(3.11599e-06 3.24518e-05 -1.79578e-05)
(-5.93691e-08 3.26128e-05 -1.82482e-05)
(-3.90455e-06 3.17225e-05 -1.83959e-05)
(2.78701e-06 3.48503e-05 -1.91836e-05)
(1.43329e-06 3.55132e-05 -1.95844e-05)
(1.34876e-06 3.57962e-05 -1.98911e-05)
(-1.99641e-07 3.56843e-05 -2.00985e-05)
(-3.83221e-06 3.77032e-05 -1.99813e-05)
(-5.68488e-07 3.50086e-05 -2.03707e-05)
(2.76853e-06 3.54072e-05 -2.06787e-05)
(5.83749e-06 3.89867e-05 -2.09099e-05)
(3.42996e-06 4.26326e-06 -1.33751e-06)
(1.09887e-06 3.06341e-06 -1.37144e-06)
(-6.14019e-07 3.04093e-06 -1.40415e-06)
(-2.88996e-06 4.02595e-06 -1.42835e-06)
(6.42871e-06 1.09902e-05 -3.9626e-06)
(2.54947e-06 9.90966e-06 -4.04865e-06)
(-1.10216e-06 9.82566e-06 -4.13214e-06)
(-4.9631e-06 1.05634e-05 -4.19505e-06)
(7.63547e-06 1.70552e-05 -6.47153e-06)
(3.33272e-06 1.65016e-05 -6.59523e-06)
(-1.02515e-06 1.64084e-05 -6.71743e-06)
(-5.37563e-06 1.66395e-05 -6.81687e-06)
(8.17384e-06 2.2507e-05 -8.7796e-06)
(3.75384e-06 2.24694e-05 -8.92865e-06)
(-7.79847e-07 2.24184e-05 -9.08184e-06)
(-5.30127e-06 2.22518e-05 -9.21978e-06)
(8.14944e-06 2.72589e-05 -1.0793e-05)
(3.83975e-06 2.78311e-05 -1.09566e-05)
(-4.58556e-07 2.7861e-05 -1.11353e-05)
(-4.90867e-06 2.72748e-05 -1.13136e-05)
(6.80381e-06 3.12762e-05 -1.24075e-05)
(3.2524e-06 3.24422e-05 -1.25773e-05)
(2.33597e-07 3.25803e-05 -1.2776e-05)
(-3.48702e-06 3.16418e-05 -1.2993e-05)
(2.81634e-06 3.48221e-05 -1.35271e-05)
(1.59316e-06 3.54941e-05 -1.36973e-05)
(1.674e-06 3.5757e-05 -1.39087e-05)
(2.61714e-07 3.5593e-05 -1.41567e-05)
(-3.79074e-06 3.77255e-05 -1.41025e-05)
(-3.91557e-07 3.50613e-05 -1.42735e-05)
(3.1208e-06 3.54422e-05 -1.44855e-05)
(6.33141e-06 3.89539e-05 -1.47421e-05)
(3.39638e-06 4.26794e-06 -8.02233e-07)
(1.08583e-06 3.07087e-06 -8.0891e-07)
(-5.87865e-07 3.0435e-06 -8.27264e-07)
(-2.83391e-06 4.00915e-06 -8.52843e-07)
(6.35664e-06 1.10153e-05 -2.37189e-06)
(2.53075e-06 9.92948e-06 -2.39218e-06)
(-1.02794e-06 9.83171e-06 -2.43927e-06)
(-4.8236e-06 1.05413e-05 -2.50216e-06)
(7.55729e-06 1.70926e-05 -3.87012e-06)
(3.32743e-06 1.65274e-05 -3.9038e-06)
(-9.10918e-07 1.64159e-05 -3.97319e-06)
(-5.17862e-06 1.66175e-05 -4.06508e-06)
(8.10693e-06 2.25369e-05 -5.24412e-06)
(3.77135e-06 2.24861e-05 -5.29032e-06)
(-6.31111e-07 2.2416e-05 -5.37803e-06)
(-5.06048e-06 2.222e-05 -5.49492e-06)
(8.09748e-06 2.72681e-05 -6.43419e-06)
(3.88128e-06 2.78287e-05 -6.49079e-06)
(-2.79012e-07 2.78404e-05 -6.594e-06)
(-4.62975e-06 2.72257e-05 -6.73367e-06)
(6.76769e-06 3.12767e-05 -7.38078e-06)
(3.31643e-06 3.24337e-05 -7.44524e-06)
(4.3871e-07 3.25553e-05 -7.56092e-06)
(-3.1771e-06 3.15901e-05 -7.7205e-06)
(2.79885e-06 3.48452e-05 -8.03808e-06)
(1.67795e-06 3.55123e-05 -8.10786e-06)
(1.8981e-06 3.57604e-05 -8.23144e-06)
(5.92074e-07 3.55702e-05 -8.40549e-06)
(-3.79087e-06 3.7788e-05 -8.3884e-06)
(-2.90635e-07 3.51265e-05 -8.46072e-06)
(3.36092e-06 3.54944e-05 -8.58462e-06)
(6.67694e-06 3.89761e-05 -8.76198e-06)
(3.38164e-06 4.26612e-06 -2.67329e-07)
(1.08043e-06 3.07207e-06 -2.68082e-07)
(-5.76804e-07 3.04236e-06 -2.73993e-07)
(-2.80904e-06 3.9972e-06 -2.8357e-07)
(6.32253e-06 1.10151e-05 -7.89403e-07)
(2.52194e-06 9.9297e-06 -7.92619e-07)
(-9.9425e-07 9.82527e-06 -8.07822e-07)
(-4.75881e-06 1.05185e-05 -8.31327e-07)
(7.5167e-06 1.70927e-05 -1.28711e-06)
(3.32333e-06 1.65238e-05 -1.29354e-06)
(-8.57002e-07 1.64034e-05 -1.31602e-06)
(-5.0833e-06 1.65886e-05 -1.35009e-06)
(8.06971e-06 2.2534e-05 -1.74271e-06)
(3.77733e-06 2.24772e-05 -1.75285e-06)
(-5.59839e-07 2.23974e-05 -1.78139e-06)
(-4.94213e-06 2.21864e-05 -1.8241e-06)
(8.06832e-06 2.72634e-05 -2.13614e-06)
(3.89933e-06 2.78173e-05 -2.14994e-06)
(-1.9288e-07 2.78197e-05 -2.18368e-06)
(-4.49337e-06 2.71915e-05 -2.23379e-06)
(6.74852e-06 3.12791e-05 -2.44834e-06)
(3.34653e-06 3.24296e-05 -2.46537e-06)
(5.36959e-07 3.25426e-05 -2.50333e-06)
(-3.02717e-06 3.15657e-05 -2.55957e-06)
(2.79076e-06 3.48659e-05 -2.66565e-06)
(1.71915e-06 3.55273e-05 -2.68518e-06)
(2.00558e-06 3.57678e-05 -2.72582e-06)
(7.5092e-07 3.5567e-05 -2.78629e-06)
(-3.78866e-06 3.78296e-05 -2.78336e-06)
(-2.40511e-07 3.51642e-05 -2.80394e-06)
(3.47606e-06 3.55254e-05 -2.84468e-06)
(6.84224e-06 3.89969e-05 -2.90608e-06)
)
;

boundaryField
{
    interface
    {
        type            calculated;
        value           nonuniform List<vector> 
192
(
(1.40052e-05 -2.37119e-06 -5.29629e-06)
(1.24346e-05 3.7979e-06 -1.23846e-05)
(1.28615e-05 9.56413e-06 -1.80862e-05)
(1.35451e-05 1.5201e-05 -2.31711e-05)
(1.38345e-05 2.08694e-05 -2.80311e-05)
(1.3133e-05 2.65502e-05 -3.31914e-05)
(1.04499e-05 3.28488e-05 -3.93011e-05)
(2.02502e-06 4.10725e-05 -4.60113e-05)
(2.38189e-05 3.31425e-06 -2.51536e-06)
(2.41425e-05 8.15514e-06 -8.53337e-06)
(2.47046e-05 1.33261e-05 -1.42753e-05)
(2.53005e-05 1.87168e-05 -1.9444e-05)
(2.55173e-05 2.40859e-05 -2.43056e-05)
(2.46196e-05 2.90861e-05 -2.9251e-05)
(2.13381e-05 3.36521e-05 -3.42599e-05)
(1.0775e-05 3.86651e-05 -3.77711e-05)
(2.62524e-05 5.70469e-06 -2.3181e-06)
(2.8317e-05 1.04741e-05 -7.5187e-06)
(2.92021e-05 1.5597e-05 -1.27032e-05)
(2.9734e-05 2.08653e-05 -1.75206e-05)
(2.98329e-05 2.58015e-05 -2.19849e-05)
(2.87113e-05 2.98497e-05 -2.61434e-05)
(2.49808e-05 3.29558e-05 -2.96409e-05)
(1.38083e-05 3.68757e-05 -3.14374e-05)
(2.69802e-05 6.51914e-06 -2.2259e-06)
(2.97934e-05 1.15276e-05 -6.73725e-06)
(3.09471e-05 1.6787e-05 -1.11287e-05)
(3.14933e-05 2.19827e-05 -1.52344e-05)
(3.15152e-05 2.6555e-05 -1.89621e-05)
(3.02497e-05 2.99603e-05 -2.21786e-05)
(2.63066e-05 3.24035e-05 -2.4567e-05)
(1.49305e-05 3.61348e-05 -2.56887e-05)
(2.71074e-05 6.71689e-06 -1.85868e-06)
(3.00891e-05 1.19274e-05 -5.50503e-06)
(3.13571e-05 1.73108e-05 -8.9879e-06)
(3.19361e-05 2.24687e-05 -1.22148e-05)
(3.19339e-05 2.68326e-05 -1.50803e-05)
(3.06136e-05 2.99466e-05 -1.74356e-05)
(2.66105e-05 3.21958e-05 -1.90888e-05)
(1.51995e-05 3.59459e-05 -1.9891e-05)
(2.70869e-05 6.72786e-06 -1.35471e-06)
(3.00487e-05 1.20415e-05 -3.99385e-06)
(3.13352e-05 1.74914e-05 -6.49831e-06)
(3.1933e-05 2.26354e-05 -8.79677e-06)
(3.19342e-05 2.69163e-05 -1.0803e-05)
(3.06089e-05 2.99429e-05 -1.2412e-05)
(2.66072e-05 3.21734e-05 -1.35242e-05)
(1.52095e-05 3.59672e-05 -1.40922e-05)
(2.70566e-05 6.70613e-06 -8.14325e-07)
(2.99787e-05 1.20554e-05 -2.39845e-06)
(3.12551e-05 1.75301e-05 -3.89983e-06)
(3.18587e-05 2.26718e-05 -5.27017e-06)
(3.18686e-05 2.69332e-05 -6.45449e-06)
(3.05532e-05 2.9952e-05 -7.39462e-06)
(2.6566e-05 3.22055e-05 -8.0445e-06)
(1.51873e-05 3.6035e-05 -8.3879e-06)
(2.70417e-05 6.69209e-06 -2.71017e-07)
(2.99436e-05 1.20487e-05 -7.97933e-07)
(3.12114e-05 1.75294e-05 -1.29727e-06)
(3.18157e-05 2.26718e-05 -1.75202e-06)
(3.18308e-05 2.6933e-05 -2.14344e-06)
(3.05229e-05 2.99596e-05 -2.45314e-06)
(2.65453e-05 3.22315e-05 -2.66769e-06)
(1.51778e-05 3.60808e-05 -2.78282e-06)
(-4.25872e-06 -4.87952e-06 1.37028e-05)
(-6.53253e-06 8.37145e-07 6.4407e-06)
(-6.39809e-06 6.62336e-06 7.47916e-07)
(-5.81993e-06 1.25243e-05 -4.28522e-06)
(-5.57542e-06 1.85459e-05 -9.06099e-06)
(-6.36113e-06 2.47126e-05 -1.40079e-05)
(-9.2204e-06 3.1684e-05 -1.97366e-05)
(-1.42333e-05 4.05971e-05 -2.97277e-05)
(-7.86361e-07 -2.57339e-06 2.05105e-05)
(-1.61386e-06 1.27437e-06 1.36424e-05)
(-1.705e-06 6.48554e-06 7.69417e-06)
(-1.55016e-06 1.25276e-05 2.60518e-06)
(-1.53423e-06 1.89982e-05 -2.07181e-06)
(-2.03606e-06 2.55999e-05 -6.93056e-06)
(-3.42963e-06 3.20766e-05 -1.28991e-05)
(-5.18644e-06 3.85572e-05 -2.47733e-05)
(4.47701e-07 -2.81704e-06 2.02592e-05)
(8.96238e-07 1.11105e-06 1.31369e-05)
(7.96261e-07 6.41566e-06 7.05988e-06)
(5.05316e-07 1.25472e-05 1.90687e-06)
(2.97251e-07 1.91128e-05 -2.80459e-06)
(4.67934e-07 2.5822e-05 -7.68303e-06)
(1.33569e-06 3.24184e-05 -1.36639e-05)
(2.34415e-06 3.90146e-05 -2.55545e-05)
(3.8788e-06 -5.59353e-06 1.25803e-05)
(5.72229e-06 4.07902e-07 4.54158e-06)
(5.36585e-06 6.44539e-06 -1.52893e-06)
(4.62837e-06 1.25886e-05 -6.75499e-06)
(4.17126e-06 1.88826e-05 -1.16381e-05)
(4.60734e-06 2.537e-05 -1.66458e-05)
(6.92641e-06 3.27124e-05 -2.23999e-05)
(1.11919e-05 4.20441e-05 -3.23796e-05)
(-1.55862e-05 -2.37822e-06 -6.26026e-06)
(-1.42512e-05 3.73403e-06 -1.43736e-05)
(-1.47886e-05 9.579e-06 -2.05963e-05)
(-1.55688e-05 1.54091e-05 -2.59633e-05)
(-1.60354e-05 2.13754e-05 -3.09903e-05)
(-1.56648e-05 2.74457e-05 -3.62522e-05)
(-1.35161e-05 3.42044e-05 -4.24142e-05)
(-5.85056e-06 4.2932e-05 -4.91356e-05)
(-2.50696e-05 3.19204e-06 -3.0961e-06)
(-2.51947e-05 8.03094e-06 -9.91989e-06)
(-2.56097e-05 1.32788e-05 -1.616e-05)
(-2.61433e-05 1.88619e-05 -2.16333e-05)
(-2.6434e-05 2.45355e-05 -2.66894e-05)
(-2.57993e-05 2.99352e-05 -3.17616e-05)
(-2.30113e-05 3.49735e-05 -3.68463e-05)
(-1.31909e-05 4.05065e-05 -4.03876e-05)
(-2.72801e-05 5.33885e-06 -2.69627e-06)
(-2.88655e-05 1.01233e-05 -8.46821e-06)
(-2.93809e-05 1.53578e-05 -1.40633e-05)
(-2.9685e-05 2.08526e-05 -1.91701e-05)
(-2.9739e-05 2.6125e-05 -2.38385e-05)
(-2.87974e-05 3.06017e-05 -2.81396e-05)
(-2.55038e-05 3.42047e-05 -3.17292e-05)
(-1.5036e-05 3.86641e-05 -3.35654e-05)
(-2.7867e-05 5.97279e-06 -2.47885e-06)
(-3.00165e-05 1.09554e-05 -7.38577e-06)
(-3.06296e-05 1.63347e-05 -1.20875e-05)
(-3.0801e-05 2.17846e-05 -1.64371e-05)
(-3.06612e-05 2.67262e-05 -2.03535e-05)
(-2.94877e-05 3.05912e-05 -2.3711e-05)
(-2.59168e-05 3.35566e-05 -2.61951e-05)
(-1.51964e-05 3.7845e-05 -2.73583e-05)
(-2.79058e-05 6.05281e-06 -2.02654e-06)
(-3.01042e-05 1.11866e-05 -5.94091e-06)
(-3.07093e-05 1.66772e-05 -9.6452e-06)
(-3.07966e-05 2.21011e-05 -1.30594e-05)
(-3.05317e-05 2.68576e-05 -1.60804e-05)
(-2.92218e-05 3.04563e-05 -1.85587e-05)
(-2.55276e-05 3.32488e-05 -2.02984e-05)
(-1.47214e-05 3.75708e-05 -2.11381e-05)
(-2.78304e-05 5.98928e-06 -1.46099e-06)
(-2.99336e-05 1.11849e-05 -4.27231e-06)
(-3.04748e-05 1.67241e-05 -6.92368e-06)
(-3.04968e-05 2.21352e-05 -9.35241e-06)
(-3.01573e-05 2.68213e-05 -1.14723e-05)
(-2.87763e-05 3.03493e-05 -1.31748e-05)
(-2.50296e-05 3.31385e-05 -1.43546e-05)
(-1.4192e-05 3.75159e-05 -1.4952e-05)
(-2.77682e-05 5.9236e-06 -8.73057e-07)
(-2.97876e-05 1.11275e-05 -2.55321e-06)
(-3.02685e-05 1.66768e-05 -4.13815e-06)
(-3.02426e-05 2.20828e-05 -5.58468e-06)
(-2.98601e-05 2.67549e-05 -6.83747e-06)
(-2.84432e-05 3.02847e-05 -7.83543e-06)
(-2.46725e-05 3.31067e-05 -8.52777e-06)
(-1.38214e-05 3.7528e-05 -8.88966e-06)
(-2.77386e-05 5.88924e-06 -2.89783e-07)
(-2.97177e-05 1.10871e-05 -8.47518e-07)
(-3.01665e-05 1.66345e-05 -1.37392e-06)
(-3.01154e-05 2.2039e-05 -1.85368e-06)
(-2.97126e-05 2.67129e-05 -2.26787e-06)
(-2.82801e-05 3.02547e-05 -2.59705e-06)
(-2.44993e-05 3.30997e-05 -2.826e-06)
(-1.36427e-05 3.75449e-05 -2.9474e-06)
(-1.40723e-05 2.46259e-05 -4.78489e-05)
(-8.73405e-06 1.89363e-05 -3.89305e-05)
(-5.5272e-06 1.75297e-05 -3.19742e-05)
(-4.32828e-06 1.70017e-05 -2.58697e-05)
(-4.03709e-06 1.68821e-05 -1.99452e-05)
(-4.00372e-06 1.69243e-05 -1.41237e-05)
(-4.00187e-06 1.70005e-05 -8.41443e-06)
(-3.99663e-06 1.70503e-05 -2.79377e-06)
(-5.02816e-06 1.93512e-05 -4.61305e-05)
(-2.94516e-06 1.17805e-05 -3.96529e-05)
(-1.21372e-06 1.01359e-05 -3.32102e-05)
(-3.54974e-07 9.69496e-06 -2.67031e-05)
(5.59649e-09 9.68629e-06 -2.03601e-05)
(1.79354e-07 9.78048e-06 -1.43029e-05)
(2.82847e-07 9.86715e-06 -8.48645e-06)
(3.3564e-07 9.91469e-06 -2.81337e-06)
(2.49938e-06 1.98196e-05 -4.6899e-05)
(1.81937e-06 1.22294e-05 -4.03019e-05)
(1.27481e-06 1.05705e-05 -3.37324e-05)
(1.38268e-06 1.0113e-05 -2.71075e-05)
(1.7741e-06 1.00862e-05 -2.06588e-05)
(2.14773e-06 1.01639e-05 -1.45073e-05)
(2.39862e-06 1.02385e-05 -8.60541e-06)
(2.51797e-06 1.02798e-05 -2.85242e-06)
(1.13491e-05 2.63336e-05 -5.02358e-05)
(7.41152e-06 2.06472e-05 -4.0891e-05)
(5.4012e-06 1.92101e-05 -3.35446e-05)
(5.18003e-06 1.86315e-05 -2.70861e-05)
(5.65066e-06 1.84551e-05 -2.08446e-05)
(6.1726e-06 1.84463e-05 -1.47395e-05)
(6.53068e-06 1.84852e-05 -8.77273e-06)
(6.70043e-06 1.85158e-05 -2.91129e-06)
)
;
    }
    symmetry
    {
        type            symmetry;
    }
    bottom
    {
        type            calculated;
        value           uniform (0 0 0);
    }
}


// ************************************************************************* //
