/*--------------------------------*- C++ -*----------------------------------*\
| =========                 |                                                 |
| \\      /  F ield         | OpenFOAM: The Open Source CFD Toolbox           |
|  \\    /   O peration     | Version:  v1912                                 |
|   \\  /    A nd           | Website:  www.openfoam.com                      |
|    \\/     M anipulation  |                                                 |
\*---------------------------------------------------------------------------*/
FoamFile
{
    version     2.0;
    format      ascii;
    class       volVectorField;
    location    "0.12/fluid";
    object      cellMotionU;
}
// * * * * * * * * * * * * * * * * * * * * * * * * * * * * * * * * * * * * * //

dimensions      [0 1 -1 0 0 0 0];


internalField   nonuniform List<vector> 
14592
(
(2.86841e-10 -1.72384e-09 1.48661e-09)
(7.72457e-10 -4.81776e-09 4.1662e-09)
(1.13174e-09 -7.66037e-09 6.67222e-09)
(1.41799e-09 -1.03444e-08 9.15686e-09)
(1.48253e-09 -1.29703e-08 1.16471e-08)
(1.42063e-09 -1.56428e-08 1.43814e-08)
(1.12026e-09 -1.82465e-08 1.73088e-08)
(5.38694e-10 -2.07391e-08 2.04932e-08)
(-3.77352e-10 -2.30774e-08 2.40258e-08)
(-1.69461e-09 -2.51339e-08 2.79759e-08)
(-3.42073e-09 -2.66052e-08 3.24049e-08)
(-5.97651e-09 -2.70409e-08 3.74945e-08)
(-8.73296e-09 -2.45878e-08 4.35349e-08)
(-1.21311e-08 -1.54905e-08 5.19447e-08)
(-1.56361e-08 1.13467e-08 6.61636e-08)
(-1.43449e-08 7.18214e-08 8.83024e-08)
(8.82602e-10 -5.15387e-09 4.4446e-09)
(2.37074e-09 -1.43888e-08 1.24364e-08)
(3.60528e-09 -2.28594e-08 1.99708e-08)
(4.34995e-09 -3.09097e-08 2.72752e-08)
(4.73642e-09 -3.88774e-08 3.48912e-08)
(4.54844e-09 -4.67226e-08 4.28875e-08)
(3.69495e-09 -5.4452e-08 5.15114e-08)
(2.06487e-09 -6.19834e-08 6.09804e-08)
(-4.7414e-10 -6.91315e-08 7.14791e-08)
(-3.97746e-09 -7.55123e-08 8.31429e-08)
(-9.08456e-09 -8.06427e-08 9.60584e-08)
(-1.48237e-08 -8.27916e-08 1.10403e-07)
(-2.09864e-08 -7.95135e-08 1.2639e-07)
(-2.57082e-08 -6.61246e-08 1.45054e-07)
(-2.33994e-08 -3.53928e-08 1.67791e-07)
(-3.59413e-09 1.05055e-08 1.91939e-07)
(1.53541e-09 -8.47508e-09 7.34152e-09)
(4.20533e-09 -2.36266e-08 2.0555e-08)
(6.27595e-09 -3.75768e-08 3.28898e-08)
(7.78484e-09 -5.08919e-08 4.50585e-08)
(8.52937e-09 -6.38339e-08 5.74054e-08)
(8.42537e-09 -7.66994e-08 7.04585e-08)
(7.30597e-09 -8.94876e-08 8.45615e-08)
(5.03839e-09 -1.02115e-07 1.00069e-07)
(1.53343e-09 -1.14346e-07 1.17291e-07)
(-3.52516e-09 -1.25784e-07 1.3636e-07)
(-9.97888e-09 -1.35521e-07 1.57478e-07)
(-1.74431e-08 -1.41952e-07 1.8036e-07)
(-2.42802e-08 -1.42706e-07 2.05297e-07)
(-2.77338e-08 -1.34929e-07 2.32586e-07)
(-2.00757e-08 -1.16637e-07 2.62955e-07)
(8.32551e-09 -9.48041e-08 2.93874e-07)
(2.27901e-09 -1.15589e-08 1.01099e-08)
(6.23e-09 -3.22115e-08 2.82583e-08)
(9.42087e-09 -5.131e-08 4.52824e-08)
(1.17524e-08 -6.93972e-08 6.18716e-08)
(1.31439e-08 -8.70883e-08 7.87751e-08)
(1.341e-08 -1.04625e-07 9.64922e-08)
(1.24405e-08 -1.22228e-07 1.15638e-07)
(1.016e-08 -1.39895e-07 1.36761e-07)
(6.50983e-09 -1.57399e-07 1.60227e-07)
(1.28633e-09 -1.74345e-07 1.86262e-07)
(-5.09086e-09 -1.89814e-07 2.14866e-07)
(-1.20362e-08 -2.0237e-07 2.45905e-07)
(-1.78249e-08 -2.10091e-07 2.793e-07)
(-2.02073e-08 -2.10818e-07 3.14411e-07)
(-1.28554e-08 -2.02918e-07 3.50106e-07)
(1.14056e-08 -1.89706e-07 3.81438e-07)
(3.1279e-09 -1.42593e-08 1.26768e-08)
(8.49242e-09 -3.98147e-08 3.53916e-08)
(1.29332e-08 -6.33612e-08 5.6654e-08)
(1.63396e-08 -8.57414e-08 7.7376e-08)
(1.85655e-08 -1.0751e-07 9.82618e-08)
(1.95655e-08 -1.29244e-07 1.2015e-07)
(1.92543e-08 -1.51262e-07 1.43787e-07)
(1.76511e-08 -1.73662e-07 1.69869e-07)
(1.47743e-08 -1.96343e-07 1.98892e-07)
(1.08017e-08 -2.18994e-07 2.31183e-07)
(6.11096e-09 -2.40833e-07 2.66682e-07)
(1.65897e-09 -2.60816e-07 3.0553e-07)
(-1.20531e-09 -2.77285e-07 3.475e-07)
(-1.43408e-09 -2.87847e-07 3.91278e-07)
(4.79091e-09 -2.88875e-07 4.33728e-07)
(2.31222e-08 -2.79181e-07 4.66589e-07)
(4.00976e-09 -1.64908e-08 1.49535e-08)
(1.09805e-08 -4.60155e-08 4.17801e-08)
(1.68264e-08 -7.32629e-08 6.68479e-08)
(2.14212e-08 -9.90903e-08 9.11138e-08)
(2.4768e-08 -1.24317e-07 1.15532e-07)
(2.67939e-08 -1.49576e-07 1.40952e-07)
(2.75519e-08 -1.75381e-07 1.68342e-07)
(2.7209e-08 -2.01962e-07 1.98572e-07)
(2.59329e-08 -2.29348e-07 2.3223e-07)
(2.41235e-08 -2.57354e-07 2.69692e-07)
(2.25721e-08 -2.85657e-07 3.11247e-07)
(2.24385e-08 -3.13619e-07 3.57281e-07)
(2.51427e-08 -3.40234e-07 4.08116e-07)
(3.10448e-08 -3.63231e-07 4.6281e-07)
(4.11814e-08 -3.7654e-07 5.17228e-07)
(5.66037e-08 -3.70584e-07 5.58246e-07)
(4.96926e-09 -1.8114e-08 1.69452e-08)
(1.36125e-08 -5.0549e-08 4.73073e-08)
(2.09271e-08 -8.04652e-08 7.55978e-08)
(2.68879e-08 -1.08871e-07 1.02905e-07)
(3.14473e-08 -1.36631e-07 1.30145e-07)
(3.47115e-08 -1.6458e-07 1.58372e-07)
(3.68076e-08 -1.93348e-07 1.88675e-07)
(3.80485e-08 -2.2327e-07 2.22049e-07)
(3.87928e-08 -2.54511e-07 2.59188e-07)
(3.96992e-08 -2.87148e-07 3.00602e-07)
(4.18963e-08 -3.21129e-07 3.46718e-07)
(4.71912e-08 -3.56578e-07 3.98521e-07)
(5.79059e-08 -3.9382e-07 4.57454e-07)
(7.57601e-08 -4.33041e-07 5.24521e-07)
(1.0308e-07 -4.72007e-07 5.98328e-07)
(1.35565e-07 -4.99197e-07 6.63236e-07)
(5.91685e-09 -1.90475e-08 1.85758e-08)
(1.62653e-08 -5.31494e-08 5.18835e-08)
(2.51232e-08 -8.46412e-08 8.28503e-08)
(3.24494e-08 -1.14579e-07 1.12565e-07)
(3.83366e-08 -1.43935e-07 1.42008e-07)
(4.28766e-08 -1.73623e-07 1.72258e-07)
(4.6341e-08 -2.04353e-07 2.04524e-07)
(4.91768e-08 -2.36545e-07 2.39929e-07)
(5.18561e-08 -2.70482e-07 2.7919e-07)
(5.52087e-08 -3.06351e-07 3.22853e-07)
(6.0846e-08 -3.44306e-07 3.71501e-07)
(7.0737e-08 -3.85062e-07 4.26274e-07)
(8.85501e-08 -4.29904e-07 4.89693e-07)
(1.18952e-07 -4.81752e-07 5.65135e-07)
(1.7179e-07 -5.45674e-07 6.57567e-07)
(2.49844e-07 -6.18198e-07 7.58716e-07)
(2.03396e-10 -1.78544e-09 1.42329e-09)
(5.45107e-10 -4.98796e-09 3.99382e-09)
(7.92521e-10 -7.93978e-09 6.42735e-09)
(8.67802e-10 -1.07448e-08 8.77239e-09)
(7.92877e-10 -1.34805e-08 1.11973e-08)
(4.73802e-10 -1.62221e-08 1.37495e-08)
(-1.41818e-10 -1.89239e-08 1.64967e-08)
(-1.13546e-09 -2.15571e-08 1.9505e-08)
(-2.62016e-09 -2.40706e-08 2.28464e-08)
(-4.79403e-09 -2.6398e-08 2.65745e-08)
(-8.00308e-09 -2.8371e-08 3.07297e-08)
(-1.24794e-08 -2.9539e-08 3.55027e-08)
(-1.96525e-08 -2.91393e-08 4.09277e-08)
(-3.25407e-08 -2.53174e-08 4.77454e-08)
(-5.96481e-08 -1.46027e-08 5.71963e-08)
(-1.10749e-07 3.66739e-09 6.85006e-08)
(6.4236e-10 -5.32779e-09 4.25462e-09)
(1.7335e-09 -1.48745e-08 1.19384e-08)
(2.47002e-09 -2.36768e-08 1.91081e-08)
(2.82887e-09 -3.20168e-08 2.61625e-08)
(2.63597e-09 -4.02126e-08 3.33413e-08)
(1.76295e-09 -4.83299e-08 4.08902e-08)
(3.38357e-11 -5.6388e-08 4.90271e-08)
(-2.75109e-09 -6.43002e-08 5.79604e-08)
(-6.91049e-09 -7.19612e-08 6.78691e-08)
(-1.29819e-08 -7.91448e-08 7.88527e-08)
(-2.11075e-08 -8.52518e-08 9.11721e-08)
(-3.25741e-08 -8.95232e-08 1.04439e-07)
(-4.8277e-08 -9.0314e-08 1.19011e-07)
(-7.0645e-08 -8.54126e-08 1.34497e-07)
(-1.02674e-07 -7.33021e-08 1.49665e-07)
(-1.40865e-07 -5.99508e-08 1.60021e-07)
(1.16302e-09 -8.74758e-09 7.03711e-09)
(3.10123e-09 -2.44026e-08 1.96544e-08)
(4.53555e-09 -3.8821e-08 3.15e-08)
(5.28306e-09 -5.25475e-08 4.30616e-08)
(5.18047e-09 -6.59374e-08 5.48018e-08)
(4.01944e-09 -7.92585e-08 6.71384e-08)
(1.56511e-09 -9.25531e-08 8.0441e-08)
(-2.46043e-09 -1.05787e-07 9.50752e-08)
(-8.49677e-09 -1.18806e-07 1.11306e-07)
(-1.67756e-08 -1.31201e-07 1.29421e-07)
(-2.8168e-08 -1.42461e-07 1.49173e-07)
(-4.27109e-08 -1.51348e-07 1.70696e-07)
(-6.13753e-08 -1.56612e-07 1.9358e-07)
(-8.44093e-08 -1.57006e-07 2.17048e-07)
(-1.10811e-07 -1.53608e-07 2.39115e-07)
(-1.35534e-07 -1.5289e-07 2.55332e-07)
(1.77626e-09 -1.1908e-08 9.67444e-09)
(4.77321e-09 -3.32219e-08 2.70052e-08)
(7.06915e-09 -5.28761e-08 4.32514e-08)
(8.45139e-09 -7.15396e-08 5.90622e-08)
(8.73712e-09 -8.978e-08 7.50786e-08)
(7.68952e-09 -1.07928e-07 9.18378e-08)
(5.07877e-09 -1.26197e-07 1.09911e-07)
(6.36182e-10 -1.4461e-07 1.29824e-07)
(-5.91904e-09 -1.63014e-07 1.5198e-07)
(-1.50039e-08 -1.81071e-07 1.76543e-07)
(-2.67106e-08 -1.98061e-07 2.035e-07)
(-4.14109e-08 -2.12973e-07 2.32622e-07)
(-5.95822e-08 -2.24696e-07 2.6346e-07)
(-8.13693e-08 -2.32216e-07 2.94448e-07)
(-1.06206e-07 -2.36262e-07 3.22254e-07)
(-1.31106e-07 -2.40171e-07 3.40789e-07)
(2.49158e-09 -1.46948e-08 1.20966e-08)
(6.77635e-09 -4.09743e-08 3.3816e-08)
(1.01337e-08 -6.52132e-08 5.4071e-08)
(1.24113e-08 -8.82392e-08 7.37641e-08)
(1.3399e-08 -1.10703e-07 9.35913e-08)
(1.29208e-08 -1.33153e-07 1.1428e-07)
(1.08067e-08 -1.55923e-07 1.36582e-07)
(6.88928e-09 -1.7915e-07 1.61169e-07)
(1.03155e-09 -2.02733e-07 1.88551e-07)
(-6.88371e-09 -2.26422e-07 2.18952e-07)
(-1.6837e-08 -2.49586e-07 2.52363e-07)
(-2.89545e-08 -2.71399e-07 2.88711e-07)
(-4.39093e-08 -2.90758e-07 3.27426e-07)
(-6.29149e-08 -3.06184e-07 3.66429e-07)
(-8.7866e-08 -3.16547e-07 4.00827e-07)
(-1.16915e-07 -3.22471e-07 4.22111e-07)
(3.3298e-09 -1.69624e-08 1.42899e-08)
(9.05683e-09 -4.73114e-08 3.9872e-08)
(1.37039e-08 -7.52994e-08 6.37309e-08)
(1.70918e-08 -1.01862e-07 8.67985e-08)
(1.90944e-08 -1.27825e-07 1.09917e-07)
(1.95958e-08 -1.53858e-07 1.33941e-07)
(1.85416e-08 -1.80461e-07 1.59783e-07)
(1.59213e-08 -2.07864e-07 1.88256e-07)
(1.1829e-08 -2.36092e-07 2.19986e-07)
(6.4057e-09 -2.65006e-07 2.55238e-07)
(4.12606e-11 -2.94249e-07 2.94219e-07)
(-7.08834e-09 -3.23254e-07 3.37043e-07)
(-1.5512e-08 -3.51223e-07 3.8355e-07)
(-2.74966e-08 -3.76361e-07 4.31797e-07)
(-4.84114e-08 -3.94886e-07 4.76009e-07)
(-8.1361e-08 -4.01093e-07 5.04429e-07)
(4.23659e-09 -1.86149e-08 1.61676e-08)
(1.15707e-08 -5.19141e-08 4.51105e-08)
(1.76397e-08 -8.26207e-08 7.20244e-08)
(2.23343e-08 -1.11788e-07 9.79386e-08)
(2.55641e-08 -1.40336e-07 1.23743e-07)
(2.73265e-08 -1.6909e-07 1.50407e-07)
(2.76944e-08 -1.98651e-07 1.78984e-07)
(2.68401e-08 -2.29355e-07 2.10401e-07)
(2.50715e-08 -2.61334e-07 2.45365e-07)
(2.28847e-08 -2.94626e-07 2.84264e-07)
(2.10703e-08 -3.29114e-07 3.2737e-07)
(2.05579e-08 -3.64737e-07 3.75229e-07)
(2.18461e-08 -4.01589e-07 4.284e-07)
(2.39339e-08 -4.39453e-07 4.86041e-07)
(2.13659e-08 -4.76269e-07 5.42946e-07)
(3.10593e-09 -5.02831e-07 5.83508e-07)
(5.18288e-09 -1.9552e-08 1.77291e-08)
(1.41811e-08 -5.45414e-08 4.9429e-08)
(2.17675e-08 -8.68351e-08 7.88563e-08)
(2.78526e-08 -1.17552e-07 1.07044e-07)
(3.24249e-08 -1.47699e-07 1.34898e-07)
(3.55562e-08 -1.78178e-07 1.63471e-07)
(3.74529e-08 -2.09667e-07 1.93897e-07)
(3.84364e-08 -2.42575e-07 2.27196e-07)
(3.90266e-08 -2.77117e-07 2.64162e-07)
(3.99497e-08 -3.1342e-07 3.0513e-07)
(4.23463e-08 -3.51545e-07 3.50342e-07)
(4.79939e-08 -3.91675e-07 4.00745e-07)
(5.88324e-08 -4.34604e-07 4.57331e-07)
(7.74481e-08 -4.81712e-07 5.2065e-07)
(1.06377e-07 -5.34015e-07 5.87525e-07)
(1.41138e-07 -5.82641e-07 6.41249e-07)
(1.22924e-10 -1.83602e-09 1.30216e-09)
(3.11344e-10 -5.13967e-09 3.6524e-09)
(3.83854e-10 -8.1953e-09 5.8586e-09)
(3.3261e-10 -1.10666e-08 8.03855e-09)
(4.08865e-11 -1.39143e-08 1.02251e-08)
(-5.15709e-10 -1.67339e-08 1.25351e-08)
(-1.44244e-09 -1.95511e-08 1.50152e-08)
(-2.83899e-09 -2.23135e-08 1.77292e-08)
(-4.89366e-09 -2.50258e-08 2.07391e-08)
(-7.85686e-09 -2.76284e-08 2.41096e-08)
(-1.21207e-08 -3.00559e-08 2.78916e-08)
(-1.87191e-08 -3.22303e-08 3.18938e-08)
(-2.9344e-08 -3.38827e-08 3.62995e-08)
(-4.92195e-08 -3.5001e-08 4.07863e-08)
(-9.0389e-08 -3.62792e-08 4.46163e-08)
(-1.62077e-07 -3.97392e-08 4.46608e-08)
(3.9845e-10 -5.48253e-09 3.88931e-09)
(1.01219e-09 -1.53187e-08 1.08839e-08)
(1.34859e-09 -2.43535e-08 1.74825e-08)
(1.19565e-09 -3.29809e-08 2.38854e-08)
(4.54355e-10 -4.13958e-08 3.04166e-08)
(-1.10402e-09 -4.97997e-08 3.72551e-08)
(-3.70025e-09 -5.81685e-08 4.46048e-08)
(-7.64082e-09 -6.64795e-08 5.26637e-08)
(-1.33501e-08 -7.4639e-08 6.16235e-08)
(-2.14004e-08 -8.25256e-08 7.16436e-08)
(-3.30413e-08 -9.00066e-08 8.23857e-08)
(-4.92724e-08 -9.64852e-08 9.41133e-08)
(-7.31749e-08 -1.01624e-07 1.05923e-07)
(-1.09148e-07 -1.05119e-07 1.16498e-07)
(-1.61719e-07 -1.07801e-07 1.22165e-07)
(-2.19075e-07 -1.11811e-07 1.17493e-07)
(7.52633e-10 -8.99328e-09 6.41371e-09)
(1.97569e-09 -2.50727e-08 1.79464e-08)
(2.67931e-09 -3.99195e-08 2.87389e-08)
(2.67868e-09 -5.40058e-08 3.92878e-08)
(1.71332e-09 -6.78115e-08 4.99673e-08)
(-4.99183e-10 -8.15547e-08 6.11397e-08)
(-4.28311e-09 -9.53405e-08 7.3154e-08)
(-1.00304e-08 -1.09137e-07 8.63713e-08)
(-1.82533e-08 -1.22854e-07 1.01104e-07)
(-2.9872e-08 -1.36351e-07 1.17287e-07)
(-4.55462e-08 -1.49161e-07 1.35114e-07)
(-6.68722e-08 -1.6082e-07 1.53816e-07)
(-9.57481e-08 -1.7084e-07 1.72864e-07)
(-1.34103e-07 -1.79331e-07 1.90102e-07)
(-1.80507e-07 -1.8778e-07 2.01565e-07)
(-2.20441e-07 -1.9764e-07 2.02554e-07)
(1.22734e-09 -1.22273e-08 8.80856e-09)
(3.27733e-09 -3.41001e-08 2.46555e-08)
(4.6166e-09 -5.42635e-08 3.94437e-08)
(5.02489e-09 -7.34446e-08 5.38535e-08)
(4.19994e-09 -9.21864e-08 6.83988e-08)
(1.82778e-09 -1.10891e-07 8.35635e-08)
(-2.42081e-09 -1.29757e-07 9.98937e-08)
(-8.92594e-09 -1.48844e-07 1.17897e-07)
(-1.82176e-08 -1.68059e-07 1.37905e-07)
(-3.09092e-08 -1.87181e-07 1.60042e-07)
(-4.77332e-08 -2.05758e-07 1.84095e-07)
(-6.98001e-08 -2.23184e-07 2.09621e-07)
(-9.86626e-08 -2.38976e-07 2.35673e-07)
(-1.35511e-07 -2.53112e-07 2.59682e-07)
(-1.78545e-07 -2.66516e-07 2.7715e-07)
(-2.1586e-07 -2.79041e-07 2.82442e-07)
(1.86143e-09 -1.50614e-08 1.10559e-08)
(4.95914e-09 -4.20073e-08 3.08098e-08)
(7.22354e-09 -6.68576e-08 4.9298e-08)
(8.34707e-09 -9.04595e-08 6.72134e-08)
(8.06071e-09 -1.13531e-07 8.5195e-08)
(6.09604e-09 -1.36602e-07 1.03918e-07)
(2.1811e-09 -1.60031e-07 1.24065e-07)
(-3.96148e-09 -1.83943e-07 1.4629e-07)
(-1.26853e-08 -2.08309e-07 1.70986e-07)
(-2.43677e-08 -2.32915e-07 1.9832e-07)
(-3.94719e-08 -2.57317e-07 2.28098e-07)
(-5.8902e-08 -2.80873e-07 2.59905e-07)
(-8.42711e-08 -3.02913e-07 2.92722e-07)
(-1.17698e-07 -3.22759e-07 3.23632e-07)
(-1.59748e-07 -3.3985e-07 3.47346e-07)
(-2.00219e-07 -3.53042e-07 3.56709e-07)
(2.60423e-09 -1.73766e-08 1.302e-08)
(7.05048e-09 -4.84559e-08 3.63465e-08)
(1.0462e-08 -7.71042e-08 5.80704e-08)
(1.25984e-08 -1.04315e-07 7.90278e-08)
(1.32367e-08 -1.30918e-07 9.99879e-08)
(1.21875e-08 -1.57611e-07 1.21709e-07)
(9.29869e-09 -1.84873e-07 1.45053e-07)
(4.47868e-09 -2.12925e-07 1.7078e-07)
(-2.40417e-09 -2.418e-07 1.99353e-07)
(-1.13856e-08 -2.7137e-07 2.31003e-07)
(-2.25709e-08 -3.01271e-07 2.6559e-07)
(-3.64683e-08 -3.30932e-07 3.02855e-07)
(-5.46268e-08 -3.59651e-07 3.41931e-07)
(-8.03669e-08 -3.86042e-07 3.79817e-07)
(-1.18127e-07 -4.07008e-07 4.10588e-07)
(-1.62767e-07 -4.17044e-07 4.25285e-07)
(3.47337e-09 -1.90516e-08 1.47374e-08)
(9.43266e-09 -5.31211e-08 4.10948e-08)
(1.42116e-08 -8.45308e-08 6.55748e-08)
(1.76019e-08 -1.14368e-07 8.91146e-08)
(1.9451e-08 -1.43582e-07 1.12478e-07)
(1.96819e-08 -1.72989e-07 1.36596e-07)
(1.82895e-08 -2.03177e-07 1.624e-07)
(1.53697e-08 -2.34438e-07 1.9077e-07)
(1.10764e-08 -2.66891e-07 2.22231e-07)
(5.71291e-09 -3.00501e-07 2.57025e-07)
(-2.89724e-10 -3.35021e-07 2.95116e-07)
(-6.67069e-09 -3.70116e-07 3.36426e-07)
(-1.3992e-08 -4.05532e-07 3.80401e-07)
(-2.4674e-08 -4.40611e-07 4.24203e-07)
(-4.40577e-08 -4.72929e-07 4.61369e-07)
(-7.56135e-08 -4.94867e-07 4.80133e-07)
(4.38828e-09 -2.00018e-08 1.61309e-08)
(1.19887e-08 -5.57748e-08 4.49818e-08)
(1.82532e-08 -8.87841e-08 7.17363e-08)
(2.30353e-08 -1.20181e-07 9.7285e-08)
(2.62605e-08 -1.50984e-07 1.22528e-07)
(2.79392e-08 -1.82092e-07 1.48353e-07)
(2.82161e-08 -2.14148e-07 1.75836e-07)
(2.73713e-08 -2.4751e-07 2.05913e-07)
(2.5754e-08 -2.82356e-07 2.391e-07)
(2.39852e-08 -3.1869e-07 2.75647e-07)
(2.30711e-08 -3.56278e-07 3.15658e-07)
(2.39187e-08 -3.94947e-07 3.58779e-07)
(2.77154e-08 -4.34663e-07 4.04991e-07)
(3.54292e-08 -4.75436e-07 4.51708e-07)
(4.87366e-08 -5.16082e-07 4.92245e-07)
(6.80399e-08 -5.48723e-07 5.11497e-07)
(3.87253e-11 -1.88254e-09 1.12137e-09)
(8.07114e-11 -5.26521e-09 3.15767e-09)
(3.00105e-11 -8.37186e-09 5.08058e-09)
(-2.03955e-10 -1.13385e-08 6.92661e-09)
(-6.44528e-10 -1.42373e-08 8.84729e-09)
(-1.41739e-09 -1.71597e-08 1.0833e-08)
(-2.61052e-09 -2.00787e-08 1.29615e-08)
(-4.35461e-09 -2.29705e-08 1.5287e-08)
(-6.86395e-09 -2.5849e-08 1.78812e-08)
(-1.04762e-08 -2.87145e-08 2.07536e-08)
(-1.57915e-08 -3.1628e-08 2.38512e-08)
(-2.36762e-08 -3.45287e-08 2.7304e-08)
(-3.6542e-08 -3.76226e-08 3.07582e-08)
(-5.98325e-08 -4.14157e-08 3.4282e-08)
(-1.05955e-07 -4.7396e-08 3.78451e-08)
(-1.81961e-07 -5.62344e-08 4.09894e-08)
(1.56552e-10 -5.6128e-09 3.36015e-09)
(3.57254e-10 -1.56546e-08 9.42178e-09)
(2.33025e-10 -2.49234e-08 1.50648e-08)
(-3.24979e-10 -3.37194e-08 2.0657e-08)
(-1.57493e-09 -4.23738e-08 2.62844e-08)
(-3.74097e-09 -5.10294e-08 3.2171e-08)
(-7.09935e-09 -5.96926e-08 3.84779e-08)
(-1.20137e-08 -6.83503e-08 4.54067e-08)
(-1.90258e-08 -7.69751e-08 5.30853e-08)
(-2.90199e-08 -8.56335e-08 6.15124e-08)
(-4.29451e-08 -9.41477e-08 7.09496e-08)
(-6.29249e-08 -1.02537e-07 8.03951e-08)
(-9.18896e-08 -1.10732e-07 8.99189e-08)
(-1.34432e-07 -1.18984e-07 9.81594e-08)
(-1.93325e-07 -1.27606e-07 1.03147e-07)
(-2.51185e-07 -1.3476e-07 1.03225e-07)
(3.71333e-10 -9.18733e-09 5.54495e-09)
(8.85795e-10 -2.56322e-08 1.54869e-08)
(9.34749e-10 -4.07821e-08 2.48455e-08)
(2.29205e-10 -5.52047e-08 3.39448e-08)
(-1.52488e-09 -6.93553e-08 4.31591e-08)
(-4.67766e-09 -8.34859e-08 5.27662e-08)
(-9.62137e-09 -9.76988e-08 6.3084e-08)
(-1.68494e-08 -1.12004e-07 7.44266e-08)
(-2.7099e-08 -1.26418e-07 8.69862e-08)
(-4.12048e-08 -1.40811e-07 1.01046e-07)
(-6.05593e-08 -1.55103e-07 1.15933e-07)
(-8.6701e-08 -1.68968e-07 1.31564e-07)
(-1.21914e-07 -1.82384e-07 1.46962e-07)
(-1.67449e-07 -1.95573e-07 1.60655e-07)
(-2.19019e-07 -2.09018e-07 1.70471e-07)
(-2.56685e-07 -2.20863e-07 1.75338e-07)
(7.26291e-10 -1.24839e-08 7.6286e-09)
(1.83105e-09 -3.48204e-08 2.12741e-08)
(2.30129e-09 -5.54133e-08 3.40764e-08)
(1.7915e-09 -7.50151e-08 4.65173e-08)
(-5.07711e-11 -9.41992e-08 5.90426e-08)
(-3.60897e-09 -1.13371e-07 7.20757e-08)
(-9.29735e-09 -1.32751e-07 8.60964e-08)
(-1.76345e-08 -1.5243e-07 1.01529e-07)
(-2.92763e-08 -1.72363e-07 1.18676e-07)
(-4.50404e-08 -1.92451e-07 1.37594e-07)
(-6.59237e-08 -2.12384e-07 1.57993e-07)
(-9.32785e-08 -2.3177e-07 1.79245e-07)
(-1.28702e-07 -2.5039e-07 2.00424e-07)
(-1.72269e-07 -2.68205e-07 2.198e-07)
(-2.18948e-07 -2.85386e-07 2.34903e-07)
(-2.52121e-07 -2.99562e-07 2.43864e-07)
(1.23412e-09 -1.5372e-08 9.52182e-09)
(3.25948e-09 -4.28596e-08 2.66441e-08)
(4.45998e-09 -6.822e-08 4.25845e-08)
(4.50438e-09 -9.23165e-08 5.80274e-08)
(3.04652e-09 -1.15885e-07 7.35015e-08)
(-2.57254e-10 -1.39473e-07 8.95822e-08)
(-5.7709e-09 -1.63442e-07 1.06878e-07)
(-1.39112e-08 -1.87944e-07 1.25912e-07)
(-2.51395e-08 -2.12969e-07 1.47068e-07)
(-4.00245e-08 -2.38351e-07 1.7038e-07)
(-5.92366e-08 -2.63714e-07 1.95567e-07)
(-8.38956e-08 -2.88503e-07 2.21975e-07)
(-1.15557e-07 -3.12178e-07 2.48577e-07)
(-1.5508e-07 -3.33986e-07 2.73457e-07)
(-1.99805e-07 -3.52971e-07 2.9367e-07)
(-2.35253e-07 -3.66536e-07 3.06269e-07)
(1.9257e-09 -1.77165e-08 1.12587e-08)
(5.14007e-09 -4.94076e-08 3.13992e-08)
(7.38253e-09 -7.86205e-08 5.01385e-08)
(8.33908e-09 -1.06368e-07 6.81972e-08)
(7.71779e-09 -1.33499e-07 8.62107e-08)
(5.26011e-09 -1.60714e-07 1.04863e-07)
(7.32368e-10 -1.88497e-07 1.24899e-07)
(-6.10188e-09 -2.17074e-07 1.46921e-07)
(-1.54522e-08 -2.46446e-07 1.71365e-07)
(-2.7506e-08 -2.76481e-07 1.98291e-07)
(-4.25479e-08 -3.06759e-07 2.27438e-07)
(-6.12989e-08 -3.36647e-07 2.58157e-07)
(-8.52669e-08 -3.6537e-07 2.89437e-07)
(-1.16616e-07 -3.91379e-07 3.19231e-07)
(-1.56704e-07 -4.11406e-07 3.44068e-07)
(-1.96103e-07 -4.19385e-07 3.59935e-07)
(2.74094e-09 -1.94172e-08 1.27229e-08)
(7.39647e-09 -5.41355e-08 3.54754e-08)
(1.09385e-08 -8.61419e-08 5.65859e-08)
(1.3097e-08 -1.16537e-07 7.6835e-08)
(1.36631e-08 -1.4628e-07 9.69156e-08)
(1.24938e-08 -1.76193e-07 1.17621e-07)
(9.50674e-09 -2.06847e-07 1.39772e-07)
(4.67646e-09 -2.38523e-07 1.64039e-07)
(-1.90055e-09 -2.71281e-07 1.90914e-07)
(-1.0029e-08 -3.04991e-07 2.20484e-07)
(-1.94318e-08 -3.39256e-07 2.5245e-07)
(-3.009e-08 -3.73519e-07 2.86202e-07)
(-4.25937e-08 -4.07212e-07 3.20786e-07)
(-5.84622e-08 -4.3931e-07 3.54051e-07)
(-8.0305e-08 -4.67371e-07 3.8178e-07)
(-1.0713e-07 -4.8481e-07 3.98809e-07)
(3.63943e-09 -2.03744e-08 1.39282e-08)
(9.88422e-09 -5.68195e-08 3.87908e-08)
(1.48804e-08 -9.0439e-08 6.18157e-08)
(1.84271e-08 -1.22396e-07 8.37926e-08)
(2.03884e-08 -1.53717e-07 1.05469e-07)
(2.07297e-08 -1.8529e-07 1.27654e-07)
(1.95283e-08 -2.17743e-07 1.51258e-07)
(1.69477e-08 -2.51408e-07 1.76975e-07)
(1.33271e-08 -2.86361e-07 2.05354e-07)
(9.23218e-09 -3.22468e-07 2.36433e-07)
(5.35784e-09 -3.59313e-07 2.69659e-07)
(2.71975e-09 -3.96304e-07 3.04877e-07)
(2.10575e-09 -4.32983e-07 3.40737e-07)
(5.14551e-09 -4.68792e-07 3.75121e-07)
(1.57149e-08 -5.02665e-07 4.03066e-07)
(3.86641e-08 -5.2955e-07 4.18184e-07)
(-3.1778e-11 -1.91657e-09 9.06047e-10)
(-1.24365e-10 -5.35397e-09 2.53161e-09)
(-3.20918e-10 -8.51335e-09 4.03963e-09)
(-6.61681e-10 -1.15152e-08 5.57493e-09)
(-1.26866e-09 -1.44947e-08 7.08337e-09)
(-2.21468e-09 -1.74947e-08 8.68803e-09)
(-3.61936e-09 -2.04993e-08 1.03925e-08)
(-5.6367e-09 -2.35153e-08 1.22648e-08)
(-8.48494e-09 -2.65182e-08 1.43409e-08)
(-1.2527e-08 -2.96095e-08 1.66738e-08)
(-1.83228e-08 -3.27965e-08 1.93169e-08)
(-2.69896e-08 -3.61738e-08 2.18712e-08)
(-4.08233e-08 -3.99865e-08 2.47047e-08)
(-6.54478e-08 -4.48254e-08 2.76435e-08)
(-1.13379e-07 -5.21378e-08 3.11584e-08)
(-1.91086e-07 -6.17359e-08 3.53242e-08)
(-5.78677e-11 -5.70772e-09 2.69699e-09)
(-2.66714e-10 -1.59177e-08 7.51957e-09)
(-7.35268e-10 -2.53176e-08 1.2121e-08)
(-1.70905e-09 -3.42829e-08 1.65453e-08)
(-3.38541e-09 -4.31313e-08 2.10922e-08)
(-6.0626e-09 -5.20386e-08 2.5826e-08)
(-1.00427e-08 -6.09795e-08 3.08929e-08)
(-1.57264e-08 -6.99282e-08 3.64453e-08)
(-2.37039e-08 -7.8984e-08 4.26563e-08)
(-3.47944e-08 -8.81397e-08 4.9717e-08)
(-5.03462e-08 -9.75006e-08 5.69275e-08)
(-7.21233e-08 -1.06995e-07 6.46749e-08)
(-1.03272e-07 -1.16691e-07 7.21468e-08)
(-1.48159e-07 -1.2685e-07 7.88434e-08)
(-2.08524e-07 -1.36956e-07 8.38019e-08)
(-2.65225e-07 -1.4354e-07 8.5913e-08)
(1.63549e-11 -9.34027e-09 4.43411e-09)
(-8.71841e-11 -2.60452e-08 1.24369e-08)
(-6.58749e-10 -4.14436e-08 1.99004e-08)
(-1.97728e-09 -5.61379e-08 2.7239e-08)
(-4.41003e-09 -7.05931e-08 3.46518e-08)
(-8.34594e-09 -8.50467e-08 4.23608e-08)
(-1.42287e-08 -9.96147e-08 5.06361e-08)
(-2.26121e-08 -1.14366e-07 5.97635e-08)
(-3.42268e-08 -1.29282e-07 7.00251e-08)
(-5.01342e-08 -1.44443e-07 8.12e-08)
(-7.15433e-08 -1.59737e-07 9.33707e-08)
(-1.00207e-07 -1.74945e-07 1.05686e-07)
(-1.38096e-07 -1.90078e-07 1.17818e-07)
(-1.85881e-07 -2.0516e-07 1.28731e-07)
(-2.37695e-07 -2.19767e-07 1.37438e-07)
(-2.72214e-07 -2.30895e-07 1.43116e-07)
(2.52228e-10 -1.26895e-08 6.09747e-09)
(5.36538e-10 -3.53739e-08 1.7086e-08)
(2.02098e-10 -5.63223e-08 2.73448e-08)
(-1.11802e-09 -7.62693e-08 3.73463e-08)
(-3.8344e-09 -9.58169e-08 4.73953e-08)
(-8.38088e-09 -1.1539e-07 5.7856e-08)
(-1.52388e-08 -1.35203e-07 6.91092e-08)
(-2.49814e-08 -1.55346e-07 8.15339e-08)
(-3.83062e-08 -1.75863e-07 9.53829e-08)
(-5.60977e-08 -1.96656e-07 1.10682e-07)
(-7.93813e-08 -2.17473e-07 1.27046e-07)
(-1.09458e-07 -2.38018e-07 1.43863e-07)
(-1.47538e-07 -2.57996e-07 1.60488e-07)
(-1.92847e-07 -2.7717e-07 1.75713e-07)
(-2.38669e-07 -2.94985e-07 1.88429e-07)
(-2.67638e-07 -3.08466e-07 1.97068e-07)
(6.84787e-10 -1.56097e-08 7.6669e-09)
(1.69918e-09 -4.35537e-08 2.13637e-08)
(1.95601e-09 -6.93203e-08 3.41914e-08)
(1.05113e-09 -9.38226e-08 4.65843e-08)
(-1.41298e-09 -1.17799e-07 5.90022e-08)
(-5.8418e-09 -1.41786e-07 7.18901e-08)
(-1.26609e-08 -1.66172e-07 8.57657e-08)
(-2.23235e-08 -1.91133e-07 1.011e-07)
(-3.53745e-08 -2.16636e-07 1.18132e-07)
(-5.23737e-08 -2.42548e-07 1.36925e-07)
(-7.40146e-08 -2.68519e-07 1.57098e-07)
(-1.01335e-07 -2.93943e-07 1.77922e-07)
(-1.35405e-07 -3.18222e-07 1.98617e-07)
(-1.76175e-07 -3.40421e-07 2.17833e-07)
(-2.19331e-07 -3.59093e-07 2.34194e-07)
(-2.50069e-07 -3.71424e-07 2.45304e-07)
(1.29828e-09 -1.79981e-08 9.0249e-09)
(3.39448e-09 -5.01818e-08 2.52046e-08)
(4.59464e-09 -7.98638e-08 4.0252e-08)
(4.50991e-09 -1.08052e-07 5.47465e-08)
(2.80035e-09 -1.35591e-07 6.91726e-08)
(-8.36462e-10 -1.63214e-07 8.41302e-08)
(-6.70958e-09 -1.91397e-07 1.00207e-07)
(-1.51011e-08 -2.20344e-07 1.17934e-07)
(-2.62391e-08 -2.50063e-07 1.37587e-07)
(-4.03485e-08 -2.80356e-07 1.5924e-07)
(-5.77022e-08 -3.10748e-07 1.82486e-07)
(-7.88754e-08 -3.40565e-07 2.06548e-07)
(-1.04963e-07 -3.68889e-07 2.3057e-07)
(-1.37206e-07 -3.94059e-07 2.53026e-07)
(-1.75416e-07 -4.126e-07 2.72231e-07)
(-2.09955e-07 -4.18728e-07 2.85138e-07)
(2.06985e-09 -1.97165e-08 1.02094e-08)
(5.54004e-09 -5.49782e-08 2.84591e-08)
(7.96868e-09 -8.7478e-08 4.54075e-08)
(9.03894e-09 -1.1832e-07 6.16213e-08)
(8.49814e-09 -1.48477e-07 7.77216e-08)
(6.13488e-09 -1.78756e-07 9.43141e-08)
(1.81972e-09 -2.09741e-07 1.12091e-07)
(-4.49012e-09 -2.41692e-07 1.31631e-07)
(-1.27615e-08 -2.74603e-07 1.53225e-07)
(-2.27787e-08 -3.08265e-07 1.769e-07)
(-3.42327e-08 -3.42183e-07 2.02278e-07)
(-4.70135e-08 -3.75645e-07 2.2855e-07)
(-6.13228e-08 -4.07932e-07 2.54756e-07)
(-7.79013e-08 -4.38004e-07 2.79151e-07)
(-9.78218e-08 -4.63663e-07 2.99745e-07)
(-1.19986e-07 -4.79566e-07 3.13106e-07)
(2.9414e-09 -2.06892e-08 1.11404e-08)
(7.95341e-09 -5.76936e-08 3.10884e-08)
(1.18138e-08 -9.18169e-08 4.95202e-08)
(1.4264e-08 -1.24228e-07 6.71358e-08)
(1.51203e-08 -1.55936e-07 8.44754e-08)
(1.43288e-08 -1.87838e-07 1.02289e-07)
(1.18909e-08 -2.20559e-07 1.21248e-07)
(7.95174e-09 -2.54385e-07 1.4198e-07)
(2.81753e-09 -2.89328e-07 1.64714e-07)
(-2.97679e-09 -3.25136e-07 1.89462e-07)
(-8.55491e-09 -3.61211e-07 2.16064e-07)
(-1.30393e-08 -3.96849e-07 2.43122e-07)
(-1.51844e-08 -4.3138e-07 2.70034e-07)
(-1.27348e-08 -4.64295e-07 2.94725e-07)
(-1.71586e-10 -4.9512e-07 3.14897e-07)
(2.80234e-08 -5.20727e-07 3.26765e-07)
(-9.36574e-11 -1.9389e-09 6.48644e-10)
(-2.92273e-10 -5.40001e-09 1.81913e-09)
(-5.77301e-10 -8.58217e-09 2.94018e-09)
(-1.03818e-09 -1.16188e-08 3.99066e-09)
(-1.73442e-09 -1.45972e-08 5.11734e-09)
(-2.82533e-09 -1.77346e-08 6.28227e-09)
(-4.38985e-09 -2.08389e-08 7.52258e-09)
(-6.59077e-09 -2.39377e-08 8.88094e-09)
(-9.65208e-09 -2.70756e-08 1.04064e-08)
(-1.39351e-08 -3.03221e-08 1.21352e-08)
(-1.99841e-08 -3.371e-08 1.39175e-08)
(-2.89282e-08 -3.7408e-08 1.59609e-08)
(-4.28515e-08 -4.13685e-08 1.79824e-08)
(-6.7755e-08 -4.64779e-08 2.02412e-08)
(-1.16348e-07 -5.39338e-08 2.31228e-08)
(-1.95607e-07 -6.33296e-08 2.65492e-08)
(-2.34969e-10 -5.76275e-09 1.94005e-09)
(-7.42659e-10 -1.60669e-08 5.45972e-09)
(-1.53241e-09 -2.55521e-08 8.69426e-09)
(-2.78677e-09 -3.45818e-08 1.1951e-08)
(-4.8242e-09 -4.37179e-08 1.52466e-08)
(-7.87428e-09 -5.27562e-08 1.86786e-08)
(-1.22996e-08 -6.19024e-08 2.23539e-08)
(-1.8512e-08 -7.11182e-08 2.64059e-08)
(-2.7095e-08 -8.04679e-08 3.09693e-08)
(-3.88757e-08 -9.00539e-08 3.59385e-08)
(-5.50559e-08 -1.00011e-07 4.14875e-08)
(-7.7292e-08 -1.0996e-07 4.69945e-08)
(-1.08754e-07 -1.20262e-07 5.25365e-08)
(-1.53795e-07 -1.30826e-07 5.76244e-08)
(-2.14182e-07 -1.40772e-07 6.16832e-08)
(-2.71413e-07 -1.46365e-07 6.35547e-08)
(-2.60788e-10 -9.43519e-09 3.21323e-09)
(-8.76563e-10 -2.63014e-08 8.9565e-09)
(-1.91712e-09 -4.18426e-08 1.43779e-08)
(-3.73505e-09 -5.68059e-08 1.96774e-08)
(-6.68868e-09 -7.14163e-08 2.50405e-08)
(-1.12185e-08 -8.62196e-08 3.06383e-08)
(-1.77802e-08 -1.01097e-07 3.66515e-08)
(-2.69564e-08 -1.16175e-07 4.32986e-08)
(-3.94851e-08 -1.31535e-07 5.06856e-08)
(-5.63221e-08 -1.47284e-07 5.9004e-08)
(-7.8652e-08 -1.63136e-07 6.78173e-08)
(-1.0796e-07 -1.79015e-07 7.68816e-08)
(-1.4603e-07 -1.9473e-07 8.57415e-08)
(-1.93549e-07 -2.10161e-07 9.38482e-08)
(-2.44481e-07 -2.24384e-07 1.00499e-07)
(-2.78503e-07 -2.34368e-07 1.04701e-07)
(-1.16281e-10 -1.2817e-08 4.4209e-09)
(-5.08101e-10 -3.57532e-08 1.23192e-08)
(-1.47449e-09 -5.69759e-08 1.97571e-08)
(-3.44356e-09 -7.71418e-08 2.69825e-08)
(-6.83692e-09 -9.70805e-08 3.42707e-08)
(-1.21309e-08 -1.16895e-07 4.1847e-08)
(-1.98375e-08 -1.37019e-07 5.00125e-08)
(-3.05518e-08 -1.57537e-07 5.90275e-08)
(-4.49534e-08 -1.78464e-07 6.91008e-08)
(-6.38253e-08 -1.9967e-07 8.02971e-08)
(-8.81023e-08 -2.21113e-07 9.23293e-08)
(-1.18854e-07 -2.42193e-07 1.0465e-07)
(-1.56949e-07 -2.62628e-07 1.16646e-07)
(-2.01558e-07 -2.81918e-07 1.27755e-07)
(-2.45819e-07 -2.99151e-07 1.37067e-07)
(-2.73794e-07 -3.11489e-07 1.4309e-07)
(2.32722e-10 -1.5791e-08 5.51369e-09)
(4.49973e-10 -4.40425e-08 1.54521e-08)
(-5.55331e-11 -7.01121e-08 2.47069e-08)
(-1.70664e-09 -9.49898e-08 3.36783e-08)
(-4.96878e-09 -1.192e-07 4.26532e-08)
(-1.02276e-08 -1.43539e-07 5.19932e-08)
(-1.79861e-08 -1.68241e-07 6.20648e-08)
(-2.87291e-08 -1.93525e-07 7.31661e-08)
(-4.29227e-08 -2.19368e-07 8.55538e-08)
(-6.10416e-08 -2.45649e-07 9.93432e-08)
(-8.3713e-08 -2.71858e-07 1.14175e-07)
(-1.11614e-07 -2.97546e-07 1.29317e-07)
(-1.45531e-07 -3.21931e-07 1.44095e-07)
(-1.85236e-07 -3.43872e-07 1.57878e-07)
(-2.2641e-07 -3.61693e-07 1.69498e-07)
(-2.55903e-07 -3.7281e-07 1.76949e-07)
(7.91944e-10 -1.81943e-08 6.526e-09)
(2.00023e-09 -5.07666e-08 1.82141e-08)
(2.3586e-09 -8.08278e-08 2.90951e-08)
(1.43029e-09 -1.09317e-07 3.95623e-08)
(-1.09283e-09 -1.37229e-07 5.00033e-08)
(-5.64338e-09 -1.65103e-07 6.08307e-08)
(-1.25093e-08 -1.93552e-07 7.24962e-08)
(-2.19937e-08 -2.22764e-07 8.53283e-08)
(-3.4295e-08 -2.52687e-07 9.96128e-08)
(-4.95519e-08 -2.8305e-07 1.15478e-07)
(-6.77983e-08 -3.13471e-07 1.32547e-07)
(-8.94761e-08 -3.43141e-07 1.49932e-07)
(-1.15234e-07 -3.71121e-07 1.66903e-07)
(-1.46218e-07 -3.95622e-07 1.82744e-07)
(-1.82198e-07 -4.13146e-07 1.96036e-07)
(-2.15386e-07 -4.18242e-07 2.04417e-07)
(1.53388e-09 -1.99474e-08 7.36299e-09)
(4.03388e-09 -5.56251e-08 2.05574e-08)
(5.56581e-09 -8.8502e-08 3.27879e-08)
(5.79633e-09 -1.19724e-07 4.4507e-08)
(4.35322e-09 -1.5015e-07 5.61298e-08)
(1.11467e-09 -1.807e-07 6.8157e-08)
(-4.16904e-09 -2.11902e-07 8.10669e-08)