/*--------------------------------*- C++ -*----------------------------------*\
| =========                 |                                                 |
| \\      /  F ield         | OpenFOAM: The Open Source CFD Toolbox           |
|  \\    /   O peration     | Version:  v1912                                 |
|   \\  /    A nd           | Website:  www.openfoam.com                      |
|    \\/     M anipulation  |                                                 |
\*---------------------------------------------------------------------------*/
FoamFile
{
    version     2.0;
    format      ascii;
    class       surfaceScalarField;
    location    "0.12/fluid";
    object      meshPhi;
}
// * * * * * * * * * * * * * * * * * * * * * * * * * * * * * * * * * * * * * //

dimensions      [0 3 -1 0 0 0 0];
oriented        oriented;


internalField   nonuniform List<scalar> 
41600
(
3.36017e-13
-2.29146e-12
9.6996e-13
-9.89686e-13
6.12753e-13
-6.66028e-12
2.83134e-12
-2.88791e-12
8.15033e-13
-1.06775e-11
4.576e-12
-4.66841e-12
9.29203e-13
-1.44929e-11
6.28395e-12
-6.41884e-12
9.40653e-13
-1.82216e-11
8.02946e-12
-8.21827e-12
8.24298e-13
-2.19052e-11
9.87096e-12
-1.01248e-11
5.53624e-13
-2.55257e-11
1.1855e-11
-1.21823e-11
1.00478e-13
-2.90357e-11
1.40283e-11
-1.44354e-11
-5.69665e-13
-3.23462e-11
1.64339e-11
-1.69279e-11
-1.51163e-12
-3.52858e-11
1.91091e-11
-1.96941e-11
-2.75039e-12
-3.74966e-11
2.20851e-11
-2.27585e-11
-4.24789e-12
-3.82316e-11
2.53984e-11
-2.61537e-11
-5.95727e-12
-3.60375e-11
2.91535e-11
-2.99867e-11
-7.72125e-12
-2.81284e-11
3.35998e-11
-3.45284e-11
-8.80444e-12
-1.09899e-11
3.88837e-11
-3.98864e-11
2.35163e-11
5.26798e-11
-5.16476e-11
1.0357e-12
-4.53556e-12
2.89613e-12
-2.95546e-12
1.89099e-12
-1.31843e-11
8.45007e-12
-8.62322e-12
2.52381e-12
-2.11462e-11
1.36524e-11
-1.3939e-11
2.89719e-12
-2.87083e-11
1.8743e-11
-1.91602e-11
2.96484e-12
-3.60759e-11
2.39335e-11
-2.45105e-11
2.66039e-12
-4.33507e-11
2.93987e-11
-3.0165e-11
1.91744e-12
-5.05467e-11
3.52898e-11
-3.62705e-11
6.65966e-13
-5.76044e-11
4.17502e-11
-4.29671e-11
-1.18158e-12
-6.43761e-11
4.89041e-11
-5.03768e-11
-3.74338e-12
-7.05729e-11
5.68445e-11
-5.85843e-11
-7.01692e-12
-7.56201e-11
6.56225e-11
-6.76257e-11
-1.07991e-11
-7.8487e-11
7.52754e-11
-7.75236e-11
-1.47037e-11
-7.75833e-11
8.59229e-11
-8.83893e-11
-1.76989e-11
-7.08302e-11
9.78077e-11
-1.00454e-10
-1.74141e-11
-5.75459e-11
1.10721e-10
-1.13186e-10
-4.06683e-11
1.27347e-10
-1.26059e-10
1.80677e-12
-6.66228e-12
4.77461e-12
-4.8749e-12
3.30755e-12
-1.9372e-11
1.39251e-11
-1.42216e-11
4.44321e-12
-3.10797e-11
2.2488e-11
-2.29826e-11
5.15936e-12
-4.21877e-11
3.08522e-11
-3.15683e-11
5.38298e-12
-5.29946e-11
3.93512e-11
-4.03272e-11
5.02988e-12
-6.36919e-11
4.82783e-11
-4.95578e-11
4.02083e-12
-7.43611e-11
5.79046e-11
-5.953e-11
2.27861e-12
-8.49725e-11
6.84772e-11
-7.04869e-11
-2.98785e-13
-9.53737e-11
8.01931e-11
-8.2618e-11
-3.78796e-12
-1.05234e-10
9.31722e-11
-9.60324e-11
-8.07261e-12
-1.13928e-10
1.07438e-10
-1.10736e-10
-1.27322e-11
-1.20467e-10
1.22954e-10
-1.26663e-10
-1.69537e-11
-1.23542e-10
1.39636e-10
-1.43696e-10
-1.8856e-11
-1.21871e-10
1.57219e-10
-1.61465e-10
-1.52813e-11
-1.1567e-10
1.74643e-10
-1.7828e-10
-1.06498e-10
1.95265e-10
-1.95965e-10
2.67098e-12
-8.58965e-12
6.56246e-12
-6.70472e-12
4.90877e-12
-2.49798e-11
1.91336e-11
-1.95562e-11
6.64837e-12
-4.00768e-11
3.08812e-11
-3.15872e-11
7.82395e-12
-5.43904e-11
4.23239e-11
-4.33391e-11
8.35821e-12
-6.83196e-11
5.39066e-11
-5.5276e-11
8.175e-12
-8.21583e-11
6.60413e-11
-6.78217e-11
7.21274e-12
-9.60817e-11
7.91231e-11
-8.13735e-11
5.42421e-12
-1.10128e-10
9.35074e-11
-9.62805e-11
2.75247e-12
-1.24188e-10
1.09463e-10
-1.12802e-10
-7.68545e-13
-1.37968e-10
1.27132e-10
-1.3107e-10
-4.90034e-12
-1.50918e-10
1.4653e-10
-1.51085e-10
-9.11655e-12
-1.62202e-10
1.67573e-10
-1.72733e-10
-1.25982e-11
-1.70693e-10
1.89977e-10
-1.95669e-10
-1.37164e-11
-1.75089e-10
2.12932e-10
-2.18929e-10
-9.94455e-12
-1.74698e-10
2.34451e-10
-2.39812e-10
-1.69354e-10
2.56378e-10
-2.58649e-10
3.63192e-12
-1.02323e-11
8.2157e-12
-8.39907e-12
6.70375e-12
-2.97566e-11
2.39458e-11
-2.44912e-11
9.1538e-12
-4.77378e-11
3.86188e-11
-3.95296e-11
1.09184e-11
-6.4784e-11
5.28624e-11
-5.41659e-11
1.19401e-11
-8.13923e-11
6.72193e-11
-6.8967e-11
1.21739e-11
-9.79665e-11
8.22125e-11
-8.44728e-11
1.16061e-11
-1.14785e-10
9.83582e-11
-1.01203e-10
1.0252e-11
-1.31971e-10
1.16119e-10
-1.19612e-10
8.15805e-12
-1.49496e-10
1.35837e-10
-1.40037e-10
5.49449e-12
-1.67175e-10
1.57703e-10
-1.62663e-10
2.63409e-12
-1.84638e-10
1.81784e-10
-1.87556e-10
1.39157e-13
-2.01295e-10
2.08056e-10
-2.14678e-10
-1.45965e-12
-2.16215e-10
2.36179e-10
-2.43624e-10
-1.44354e-12
-2.27786e-10
2.64919e-10
-2.72999e-10
1.38541e-12
-2.3359e-10
2.91151e-10
-2.98905e-10
-2.30946e-10
3.1499e-10
-3.19765e-10
4.67752e-12
-1.1511e-11
9.69659e-12
-9.91968e-12
8.66764e-12
-3.34749e-11
2.82511e-11
-2.89144e-11
1.1921e-11
-5.37032e-11
4.55218e-11
-4.66268e-11
1.43928e-11
-7.28896e-11
6.22213e-11
-6.3797e-11
1.60599e-11
-9.16226e-11
7.89715e-11
-8.10748e-11
1.69273e-11
-1.10404e-10
9.6392e-11
-9.90991e-11
1.70508e-11
-1.29607e-10
1.15108e-10
-1.185e-10
1.6534e-11
-1.49443e-10
1.35681e-10
-1.39833e-10
1.55518e-11
-1.69985e-10
1.5853e-10
-1.63514e-10
1.44453e-11
-1.91193e-10
1.83916e-10
-1.89815e-10
1.37812e-11
-2.12945e-10
2.12028e-10
-2.18951e-10
1.42806e-11
-2.35058e-10
2.43049e-10
-2.51122e-10
1.6426e-11
-2.57189e-10
2.76907e-10
-2.86237e-10
2.03101e-11
-2.78322e-10
3.12482e-10
-3.231e-10
2.54004e-11
-2.95403e-10
3.45913e-10
-3.57065e-10
-2.98153e-10
3.75232e-10
-3.84176e-10
5.77833e-12
-1.23604e-11
1.0977e-11
-1.12379e-11
1.07427e-11
-3.59469e-11
3.19681e-11
-3.27428e-11
1.48647e-11
-5.76809e-11
5.14615e-11
-5.27477e-11
1.81265e-11
-7.83227e-11
7.02264e-11
-7.20527e-11
2.05446e-11
-9.85298e-11
8.89377e-11
-9.13637e-11
2.2182e-11
-1.18881e-10
1.08289e-10
-1.11395e-10
2.3172e-11
-1.39823e-10
1.28996e-10
-1.3287e-10
2.37132e-11
-1.6164e-10
1.51705e-10
-1.56431e-10
2.41067e-11
-1.84491e-10
1.76899e-10
-1.82562e-10
2.48791e-11
-2.08465e-10
2.04905e-10
-2.11621e-10
2.68493e-11
-2.33659e-10
2.3604e-10
-2.43985e-10
3.11107e-11
-2.60317e-10
2.70782e-10
-2.80196e-10
3.87257e-11
-2.88939e-10
3.0962e-10
-3.20828e-10
5.05722e-11
-3.20173e-10
3.52316e-10
-3.65796e-10
6.56764e-11
-3.5282e-10
3.95494e-10
-4.1119e-10
-3.88585e-10
4.35695e-10
-4.55427e-10
6.88904e-12
1.20373e-11
-1.23339e-11
-1.27355e-11
1.28427e-11
3.50427e-11
-3.5921e-11
-3.70491e-11
1.78571e-11
5.63556e-11
-5.78075e-11
-5.94822e-11
2.19397e-11
7.67698e-11
-7.882e-11
-8.08336e-11
2.51434e-11
9.69823e-11
-9.96888e-11
-1.01801e-10
2.75852e-11
1.17733e-10
-1.21177e-10
-1.23005e-10
2.9467e-11
1.39803e-10
-1.44075e-10
-1.44937e-10
3.1064e-11
1.63898e-10
-1.69088e-10
-1.67926e-10
3.2777e-11
1.90534e-10
-1.9674e-10
-1.92179e-10
3.52537e-11
2.2005e-10
-2.27413e-10
-2.17839e-10
3.94994e-11
2.528e-10
-2.6155e-10
-2.45073e-10
4.69297e-11
2.8942e-10
-2.99902e-10
-2.74214e-10
5.92561e-11
3.30814e-10
-3.43548e-10
-3.05921e-10
7.8603e-11
3.77592e-10
-3.93502e-10
-3.41128e-10
1.04352e-10
4.27085e-10
-4.47004e-10
-3.78504e-10
4.80003e-10
-5.16299e-10
-4.29281e-10
2.4231e-13
-2.36893e-12
9.08303e-13
4.30049e-13
-6.88852e-12
2.65173e-12
5.40706e-13
-1.10483e-11
4.28644e-12
5.51983e-13
-1.49962e-11
5.88372e-12
4.374e-13
-1.88507e-11
7.50695e-12
1.61711e-13
-2.26668e-11
9.21059e-12
-3.1626e-13
-2.64401e-11
1.10429e-11
-1.05089e-12
-3.01342e-11
1.30504e-11
-2.12182e-12
-3.36839e-11
1.52753e-11
-3.64002e-12
-3.69638e-11
1.77455e-11
-5.75755e-12
-3.97193e-11
2.04673e-11
-8.73038e-12
-4.14496e-11
2.34281e-11
-1.30991e-11
-4.12404e-11
2.65825e-11
-1.98899e-11
-3.75478e-11
2.97698e-11
-2.96505e-11
-2.8847e-11
3.24644e-11
-1.57041e-11
3.31437e-11
7.58195e-13
-4.68493e-12
2.71046e-12
1.35102e-12
-1.36205e-11
7.90913e-12
1.71558e-12
-2.18471e-11
1.27784e-11
1.7883e-12
-2.96578e-11
1.75326e-11
1.49213e-12
-3.72724e-11
2.23577e-11
7.31071e-13
-4.48123e-11
2.74171e-11
-6.04835e-13
-5.2306e-11
3.28606e-11
-2.65927e-12
-5.97132e-11
3.88303e-11
-5.63057e-12
-6.69235e-11
4.54455e-11
-9.78242e-12
-7.37181e-11
5.27733e-11
-1.54291e-11
-7.96766e-11
6.08082e-11
-2.30365e-11
-8.40866e-11
6.94686e-11
-3.34174e-11
-8.59395e-11
7.85252e-11
-4.7614e-11
-8.41696e-11
8.73422e-11
-6.48117e-11
-7.89397e-11
9.43958e-11
-7.58123e-11
9.24498e-11
1.35788e-12
-6.87361e-12
4.46513e-12
2.43737e-12
-1.99852e-11
1.30223e-11
3.14581e-12
-3.20603e-11
2.10251e-11
3.38733e-12
-4.35201e-11
2.88251e-11
3.04699e-12
-5.46848e-11
3.67232e-11
1.99344e-12
-6.57631e-11
4.49913e-11
8.10443e-14
-7.68505e-11
5.389e-11
-2.87136e-12
-8.79385e-11
6.36614e-11
-7.09931e-12
-9.89118e-11
7.44901e-11
-1.28745e-11
-1.09512e-10
8.64606e-11
-2.04625e-11
-1.19263e-10
9.95311e-11
-3.01816e-11
-1.27452e-10
1.13518e-10
-4.23406e-11
-1.33244e-10
1.2795e-10
-5.65351e-11
-1.36057e-10
1.41689e-10
-6.98461e-11
-1.36475e-10
1.52515e-10
-1.37635e-10
1.54239e-10
2.07421e-12
-8.85143e-12
6.13295e-12
3.75581e-12
-2.57374e-11
1.78783e-11
4.93557e-12
-4.12881e-11
2.88436e-11
5.49929e-12
-5.60402e-11
3.9503e-11
5.31966e-12
-7.04155e-11
5.02615e-11
4.26288e-12
-8.47232e-11
6.14997e-11
2.18996e-12
-9.91499e-11
7.35937e-11
-1.05631e-12
-1.13749e-10
8.68857e-11
-5.66784e-12
-1.28441e-10
1.01622e-10
-1.1815e-11
-1.42986e-10
1.17904e-10
-1.96404e-11
-1.56938e-10
1.35673e-10
-2.93277e-11
-1.69654e-10
1.54688e-10
-4.10138e-11
-1.80344e-10
1.74305e-10
-5.41611e-11
-1.88232e-10
1.92996e-10
-6.61712e-11
-1.93033e-10
2.07948e-10
-1.9671e-10
2.12513e-10
2.91962e-12
-1.0533e-11
7.67349e-12
5.33061e-12
-3.06264e-11
2.23593e-11
7.12153e-12
-4.91286e-11
3.60417e-11
8.17896e-12
-6.66773e-11
4.92975e-11
8.39174e-12
-8.37933e-11
6.26232e-11
7.65637e-12
-1.00893e-10
7.6504e-11
5.88249e-12
-1.18261e-10
9.1428e-11
2.98672e-12
-1.36028e-10
1.07833e-10
-1.10938e-12
-1.5418e-10
1.26027e-10
-6.42532e-12
-1.72555e-10
1.46148e-10
-1.2957e-11
-1.90822e-10
1.68165e-10
-2.08187e-11
-2.08474e-10
1.91865e-10
-3.03798e-11
-2.2475e-10
2.16542e-10
-4.20245e-11
-2.38384e-10
2.40359e-10
-5.46166e-11
-2.47461e-10
2.59742e-10
-2.52658e-10
2.6723e-10
3.88507e-12
-1.18384e-11
9.05154e-12
7.14287e-12
-3.44219e-11
2.63625e-11
9.67401e-12
-5.5216e-11
4.24532e-11
1.1385e-11
-7.49457e-11
5.79805e-11
1.22018e-11
-9.42217e-11
7.35166e-11
1.20762e-11
-1.13556e-10
8.9638e-11
1.09967e-11
-1.33323e-10
1.06932e-10
8.98764e-12
-1.53731e-10
1.25923e-10
6.1228e-12
-1.74847e-10
1.46983e-10
2.5748e-12
-1.96622e-10
1.70298e-10
-1.42668e-12
-2.18902e-10
1.95913e-10
-5.79359e-12
-2.4146e-10
2.23739e-10
-1.09637e-11
-2.63925e-10
2.532e-10
-1.81858e-11
-2.8531e-10
2.82407e-10
-2.84963e-11
-3.02908e-10
3.07107e-10
-3.09786e-10
3.18937e-10
4.93965e-12
-1.27014e-11
1.02397e-11
9.13238e-12
-3.69337e-11
2.98093e-11
1.2503e-11
-5.9257e-11
4.7955e-11
1.49884e-11
-8.04616e-11
6.53882e-11
1.65603e-11
-1.01226e-10
8.27334e-11
1.72376e-11
-1.22135e-10
1.00636e-10
1.71e-11
-1.4363e-10
1.19765e-10
1.62895e-11
-1.65983e-10
1.40715e-10
1.50368e-11
-1.89332e-10
1.63909e-10
1.37343e-11
-2.13723e-10
1.89575e-10
1.29277e-11
-2.3916e-10
2.17834e-10
1.31708e-11
-2.65724e-10
2.48767e-10
1.46778e-11
-2.93671e-10
2.82085e-10
1.69117e-11
-3.23216e-10
3.16172e-10
1.80978e-11
-3.52872e-10
3.46381e-10
-3.82575e-10
3.6266e-10
6.03322e-12
1.12185e-11
-1.30777e-11
1.12033e-11
3.26454e-11
-3.804e-11
1.54647e-11
5.24657e-11
-6.10664e-11
1.8785e-11
7.14163e-11
-8.29826e-11
2.11799e-11
9.01454e-11
-1.04504e-10
2.27327e-11
1.09341e-10
-1.26254e-10
2.36061e-11
1.29728e-10
-1.48712e-10
2.40406e-11
1.51949e-10
-1.72191e-10
2.43933e-11
1.76448e-10
-1.96865e-10
2.52286e-11
2.03452e-10
-2.2281e-10
2.73623e-11
2.33093e-10
-2.50056e-10
3.18182e-11
2.65531e-10
-2.78705e-10
3.96927e-11
3.00704e-10
-3.09019e-10
5.20761e-11
3.37375e-10
-3.41175e-10
6.80416e-11
3.70864e-10
-3.73069e-10
3.89738e-10
-4.04979e-10
1.45458e-13
-2.43775e-12
8.08347e-13
2.41292e-13
-7.08955e-12
2.35967e-12
2.58101e-13
-1.13738e-11
3.81437e-12
1.64536e-13
-1.54416e-11
5.23553e-12
-7.73643e-14
-1.94144e-11
6.67636e-12
-5.12971e-13
-2.33583e-11
8.18308e-12
-1.19761e-12
-2.72816e-11
9.7998e-12
-2.20942e-12
-3.11624e-11
1.157e-11
-3.6659e-12
-3.49658e-11
1.353e-11
-5.74135e-12
-3.86303e-11
1.56983e-11
-8.70719e-12
-4.20294e-11
1.80589e-11
-1.30671e-11
-4.49443e-11
2.0553e-11
-1.98356e-11
-4.7078e-11
2.30544e-11
-3.08594e-11
-4.81779e-11
2.52713e-11
-4.71266e-11
-4.84252e-11
2.6623e-11
-4.8087e-11
2.85469e-11
4.71415e-13
-4.81583e-12
2.41119e-12
7.93689e-13
-1.40025e-11
7.03584e-12
8.82986e-13
-2.24628e-11
1.13681e-11
6.49243e-13
-3.04973e-11
1.55958e-11
-1.46777e-14
-3.83393e-11
1.98767e-11
-1.23428e-12
-4.61265e-11
2.43508e-11
-3.1606e-12
-5.39031e-11
2.91542e-11
-6.00151e-12
-6.16519e-11
3.44184e-11
-1.00578e-11
-6.9313e-11
4.02477e-11
-1.57507e-11
-7.67622e-11
4.66832e-11
-2.36907e-11
-8.37626e-11
5.36577e-11
-3.49128e-11
-8.99613e-11
6.09789e-11
-5.11782e-11
-9.49835e-11
6.82442e-11
-7.48773e-11
-9.86884e-11
7.45746e-11
-1.05204e-10
-1.01572e-10
7.84504e-11
-1.06194e-10
7.85435e-11
8.94203e-13
-7.05741e-12
3.97059e-12
1.53931e-12
-2.05196e-11
1.15806e-11
1.80838e-12
-3.29183e-11
1.86977e-11
1.56539e-12
-4.46911e-11
2.56286e-11
6.53476e-13
-5.6177e-11
3.26304e-11
-1.10417e-12
-6.75996e-11
3.99397e-11
-3.91422e-12
-7.9069e-11
4.7792e-11
-8.04899e-12
-9.06022e-11
5.64083e-11
-1.38786e-11
-1.02134e-10
6.59507e-11
-2.18747e-11
-1.13499e-10
7.64627e-11
-3.26664e-11
-1.24395e-10
8.78165e-11
-4.71942e-11
-1.34422e-10
9.96982e-11
-6.65988e-11
-1.43226e-10
1.11467e-10
-9.12407e-11
-1.50784e-10
1.21824e-10
-1.17084e-10
-1.57554e-10
1.28789e-10
-1.64647e-10
1.32176e-10
1.45729e-12
-9.0775e-12
5.45267e-12
2.56421e-12
-2.63932e-11
1.58953e-11
3.16684e-12
-4.234e-11
2.56416e-11
3.10326e-12
-5.74762e-11
3.51045e-11
2.19714e-12
-7.22425e-11
4.46333e-11
2.60304e-13
-8.69615e-11
5.45633e-11
-2.91718e-12
-1.0183e-10
6.52337e-11
-7.59484e-12
-1.16919e-10
7.6952e-11
-1.41003e-11
-1.32184e-10
8.9929e-11
-2.2815e-11
-1.47452e-10
1.04212e-10
-3.42466e-11
-1.62401e-10
1.19643e-10
-4.91485e-11
-1.76599e-10
1.35839e-10
-6.82966e-11
-1.89595e-10
1.52017e-10
-9.15092e-11
-2.01058e-10
1.66643e-10
-1.14807e-10
-2.10785e-10
1.77421e-10
-2.19563e-10
1.83865e-10
2.18132e-12
-1.07908e-11
6.82151e-12
3.90744e-12
-3.13738e-11
1.9875e-11
5.01633e-12
-5.03254e-11
3.20284e-11
5.34465e-12
-6.83076e-11
4.37845e-11
4.73017e-12
-8.58599e-11
5.55767e-11
3.01341e-12
-1.03408e-10
6.78359e-11
3.21425e-14
-1.21238e-10
8.1e-11
-4.39414e-12
-1.39485e-10
9.54557e-11
-1.04695e-11
-1.58149e-10
1.1146e-10
-1.84141e-11
-1.77091e-10
1.29079e-10
-2.85684e-11
-1.96023e-10
1.48159e-10
-4.15738e-11
-2.14518e-10
1.68306e-10
-5.83583e-11
-2.31993e-10
1.88668e-10
-7.95749e-11
-2.47527e-10
2.07515e-10
-1.02756e-10
-2.5959e-10
2.22092e-10
-2.68523e-10
2.31414e-10
3.06022e-12
-1.21177e-11
8.04443e-12
5.55558e-12
-3.52302e-11
2.34248e-11
7.33523e-12
-5.65081e-11
3.77068e-11
8.25719e-12
-7.67007e-11
5.1465e-11
8.19863e-12
-9.64348e-11
6.52034e-11
7.05906e-12
-1.16227e-10
7.94363e-11
4.76147e-12
-1.36444e-10
9.46871e-11
1.24705e-12
-1.57284e-10
1.11412e-10
-3.51797e-12
-1.78802e-10
1.29913e-10
-9.53824e-12
-2.00922e-10
1.50282e-10
-1.69029e-11
-2.23441e-10
1.72395e-10
-2.60347e-11
-2.46055e-10
1.95899e-10
-3.79642e-11
-2.68321e-10
2.19955e-10
-5.43735e-11
-2.89274e-10
2.42701e-10
-7.52112e-11
-3.06549e-10
2.60876e-10
-3.13892e-10
2.73062e-10
4.06088e-12
-1.29917e-11
9.09486e-12
7.44479e-12
-3.7774e-11
2.64696e-11
1.00277e-11
-6.05986e-11
4.25616e-11
1.17017e-11
-8.22783e-11
5.79961e-11
1.23954e-11
-1.03505e-10
7.33267e-11
1.20822e-11
-1.24861e-10
8.91299e-11
1.07864e-11
-1.46773e-10
1.05996e-10
8.58389e-12
-1.6949e-10
1.24437e-10
5.62352e-12
-1.93114e-10
1.44789e-10
2.15161e-12
-2.17621e-10
1.67162e-10
-1.56644e-12
-2.42884e-10
1.91454e-10
-5.46184e-12
-2.68755e-10
2.17371e-10
-9.96633e-12
-2.95121e-10
2.44144e-10
-1.63099e-11
-3.21632e-10
2.69835e-10
-2.5655e-11
-3.464e-10
2.90648e-10
-3.6996e-10
3.04387e-10
5.12798e-12
9.95402e-12
-1.337e-11
9.46865e-12
2.89573e-11
-3.88861e-11
1.29327e-11
4.65155e-11
-6.24165e-11
1.5449e-11
6.32801e-11
-8.48067e-11
1.6997e-11
7.98292e-11
-1.0678e-10
1.76232e-11
9.67766e-11
-1.28953e-10
1.74448e-11
1.14757e-10
-1.51786e-10
1.66532e-11
1.34314e-10
-1.75561e-10
1.55491e-11
1.55797e-10
-2.00401e-10
1.45919e-11
1.793e-10
-2.26283e-10
1.43745e-11
2.04709e-10
-2.53058e-10
1.5505e-11
2.31743e-10
-2.80526e-10
1.84817e-11
2.59693e-10
-3.08436e-10
2.36638e-11
2.86666e-10
-3.36129e-10
3.05152e-11
3.08564e-10
-3.60842e-10
3.21645e-10
-3.80781e-10
5.13805e-14
-2.49397e-12
6.74895e-13
5.88041e-14
-7.25193e-12
1.96989e-12
-1.36314e-14
-1.16339e-11
3.18486e-12
-2.05039e-13
-1.57995e-11
4.37302e-12
-5.62722e-13
-1.98792e-11
5.57746e-12
-1.14137e-12
-2.39456e-11
6.83499e-12
-2.00789e-12
-2.80108e-11
8.18199e-12
-3.25764e-12
-3.2065e-11
9.6569e-12
-5.03481e-12
-3.61034e-11
1.12937e-11
-7.55614e-12
-4.01204e-11
1.31028e-11
-1.11643e-11
-4.40868e-11
1.50511e-11
-1.64801e-11
-4.79627e-11
1.70742e-11
-2.46871e-11
-5.17764e-11
1.90773e-11
-3.77553e-11
-5.57505e-11
2.09034e-11
-5.61783e-11
-6.0156e-11
2.23305e-11
-6.29681e-11
2.52247e-11
1.93674e-13
-4.92302e-12
2.01306e-12
2.55865e-13
-1.43135e-11
5.87439e-12
8.33613e-14
-2.29631e-11
9.49352e-12
-4.36107e-13
-3.11868e-11
1.30278e-11
-1.4353e-12
-3.92323e-11
1.66052e-11
-3.06607e-12
-4.7246e-11
2.03378e-11
-5.51241e-12
-5.52802e-11
2.43395e-11
-9.0295e-12
-6.33399e-11
2.87276e-11
-1.39886e-11
-7.14124e-11
3.35965e-11
-2.09182e-11
-7.94564e-11
3.89621e-11
-3.0602e-11
-8.73724e-11
4.47176e-11
-4.43244e-11
-9.50291e-11
5.0663e-11
-6.41197e-11
-1.02365e-10
5.64836e-11
-9.23292e-11
-1.09471e-10
6.16513e-11
-1.26605e-10
-1.16275e-10
6.54781e-11
-1.2281e-10
6.72925e-11
4.46588e-13
-7.20901e-12
3.31546e-12
6.74553e-13
-2.09603e-11
9.67101e-12
5.25923e-13
-3.36286e-11
1.56177e-11
-1.69204e-13
-4.56691e-11
2.14102e-11
-1.6041e-12
-5.7435e-11
2.72568e-11
-3.99462e-12
-6.91595e-11
3.33505e-11
-7.59683e-12
-8.09646e-11
3.98916e-11
-1.27498e-11
-9.28907e-11
4.70749e-11
-1.99158e-11
-1.04918e-10
5.50402e-11
-2.97033e-11
-1.16961e-10
6.37942e-11
-4.29429e-11
-1.28843e-10
7.31628e-11
-6.08047e-11
-1.40349e-10
8.28241e-11
-8.45313e-11
-1.5134e-10
9.22641e-11
-1.13932e-10
-1.6185e-10
1.00661e-10
-1.42792e-10
-1.71715e-10
1.07017e-10
-1.80479e-10
1.1146e-10
8.62886e-13
-9.26576e-12
4.55431e-12
1.41839e-12
-2.69411e-11
1.32778e-11
1.47225e-12
-4.32227e-11
2.14212e-11
8.21668e-13
-5.86857e-11
2.93247e-11
-7.51555e-13
-7.37847e-11
3.72737e-11
-3.48216e-12
-8.88523e-11
4.55469e-11
-7.63837e-12
-1.04095e-10
5.44338e-11
-1.35541e-11
-1.196e-10
6.41988e-11
-2.16514e-11
-1.35351e-10
7.50166e-11
-3.24506e-11
-1.51229e-10
8.68927e-11
-4.66451e-11
-1.66992e-10
9.96144e-11
-6.51526e-11
-1.82321e-10
1.12776e-10
-8.86792e-11
-1.96895e-10
1.25742e-10
-1.16208e-10
-2.10412e-10
1.37541e-10
-1.41552e-10
-2.22283e-10
1.46964e-10
-2.32213e-10
1.53825e-10
1.47013e-12
-1.10073e-11
5.69897e-12
2.53902e-12
-3.20035e-11
1.66049e-11
2.99868e-12
-5.1337e-11
2.67569e-11
2.64276e-12
-6.96856e-11
3.65681e-11
1.2656e-12
-8.7601e-11
4.63965e-11
-1.34107e-12
-1.05516e-10
5.66053e-11
-5.39959e-12
-1.23721e-10
6.75661e-11
-1.11624e-11
-1.42355e-10
7.96045e-11
-1.89202e-11
-1.61422e-10
9.29263e-11
-2.90168e-11
-1.80794e-10
1.07546e-10
-4.19543e-11
-2.00194e-10
1.23236e-10
-5.84985e-11
-2.19217e-10
1.39544e-10
-7.9435e-11
-2.37308e-10
1.55755e-10
-1.04516e-10
-2.53567e-10
1.70758e-10
-1.29174e-10
-2.66324e-10
1.83037e-10
-2.75132e-10
1.92028e-10
2.26446e-12
-1.23538e-11
6.72008e-12
4.02722e-12
-3.59156e-11
1.95675e-11
5.09014e-12
-5.76055e-11
3.14913e-11
5.26908e-12
-7.81865e-11
4.29647e-11
4.39939e-12
-9.82946e-11
5.44079e-11
2.33392e-12
-1.1845e-10
6.62567e-11
-1.06087e-12
-1.39015e-10
7.89526e-11
-5.90714e-12
-1.60178e-10
9.28727e-11
-1.2311e-11
-1.8197e-10
1.08251e-10
-2.03806e-11
-2.04278e-10
1.25112e-10
-3.03488e-11
-2.26835e-10
1.43224e-10
-4.276e-11
-2.49249e-10
1.62117e-10
-5.85289e-11
-2.70967e-10
1.81023e-10
-7.852e-11
-2.90942e-10
1.98693e-10
-1.00695e-10
-3.06874e-10
2.1328e-10
-3.12242e-10
2.23946e-10
3.21054e-12
-1.3239e-11
7.59307e-12
5.81507e-12
-3.8491e-11
2.20965e-11
7.64403e-12
-6.17428e-11
3.55202e-11
8.55061e-12
-8.38185e-11
4.83813e-11
8.42557e-12
-1.05415e-10
6.11454e-11
7.20062e-12
-1.27113e-10
7.43017e-11
4.85004e-12
-1.49329e-10
8.8344e-11
1.39776e-12
-1.72288e-10
1.03688e-10
-3.06275e-12
-1.96047e-10
1.20585e-10
-8.36773e-12
-2.20502e-10
1.3906e-10
-1.43801e-11
-2.45399e-10
1.58876e-10
-2.11667e-11
-2.70398e-10
1.79547e-10
-2.91251e-11
-2.95127e-10
2.00268e-10
-3.8843e-11
-3.18974e-10
2.19643e-10
-4.96718e-11
-3.402e-10
2.35481e-10
-3.6027e-10
2.46733e-10
4.24809e-12
8.30079e-12
-1.36205e-11
7.78622e-12
2.41448e-11
-3.96121e-11
1.04837e-11
3.87743e-11
-6.35728e-11
1.22354e-11
5.27318e-11
-8.63553e-11
1.29893e-11
6.6508e-11
-1.08684e-10
1.27555e-11
8.06231e-11
-1.31169e-10
1.16083e-11
9.5601e-11
-1.54258e-10
9.69794e-12
1.11875e-10
-1.78201e-10
7.28621e-12
1.29699e-10
-2.03058e-10
4.77254e-12
1.4908e-10
-2.28704e-10
2.64309e-12
1.69753e-10
-2.5483e-10
1.36319e-12
1.91206e-10
-2.81002e-10
1.39014e-12
2.12592e-10
-3.06649e-10
3.5156e-12
2.32427e-10
-3.3079e-10
8.68884e-12
2.48259e-10
-3.5091e-10
2.58571e-10
-3.66732e-10
-3.3042e-14
-2.53511e-12
5.16836e-13
-1.04261e-13
-7.36957e-12
1.50835e-12
-2.54967e-13
-1.18206e-11
2.43857e-12
-5.30888e-13
-1.60616e-11
3.34991e-12
-9.863e-13
-2.02359e-11
4.27623e-12
-1.68234e-12
-2.44147e-11
5.2438e-12
-2.69376e-12
-2.86073e-11
6.27969e-12
-4.12522e-12
-3.28133e-11
7.4164e-12
-6.13211e-12
-3.7051e-11
8.68376e-12
-8.94656e-12
-4.13505e-11
1.00844e-11
-1.29328e-11
-4.5729e-11
1.15854e-11
-1.87358e-11
-5.02069e-11
1.31402e-11
-2.75636e-11
-5.48988e-11
1.46908e-11
-4.13407e-11
-6.00589e-11
1.61684e-11
-6.02813e-11
-6.56562e-11
1.74732e-11
-6.87e-11
2.01024e-11
-5.52068e-14
-5.00262e-12
1.54202e-12
-2.24449e-13
-1.45432e-11
4.49934e-12
-6.27231e-13
-2.33345e-11
7.27194e-12
-1.39404e-12
-3.17119e-11
9.98455e-12
-2.67638e-12
-3.9934e-11
1.27352e-11
-4.64467e-12
-4.81468e-11
1.56055e-11
-7.50531e-12
-5.64051e-11
1.86829e-11
-1.15388e-11
-6.4731e-11
2.20655e-11
-1.71447e-11
-7.31478e-11
2.58322e-11
-2.48893e-11
-8.16657e-11
2.99841e-11
-3.55994e-11
-9.02428e-11
3.44216e-11
-5.05886e-11
-9.88162e-11
3.8987e-11
-7.18727e-11
-1.07385e-10
4.34699e-11
-1.01512e-10
-1.15928e-10
4.7584e-11
-1.36377e-10
-1.23821e-10
5.09415e-11
-1.30215e-10
5.27856e-11
4.59724e-14
-7.32411e-12
2.54051e-12
-9.74919e-14
-2.12963e-11
7.41064e-12
-6.14787e-13
-3.41767e-11
1.19702e-11
-1.7018e-12
-4.64366e-11
1.64175e-11
-3.57835e-12
-5.84378e-11
2.09101e-11
-6.48891e-12
-7.04172e-11
2.55925e-11
-1.07227e-11
-8.25034e-11
3.06218e-11
-1.6653e-11
-9.47551e-11
3.61571e-11
-2.4777e-11
-1.07185e-10
4.23114e-11
-3.57463e-11
-1.19752e-10
4.90821e-11
-5.04246e-11
-1.32332e-10
5.63092e-11
-6.9958e-11
-1.4476e-10
6.3715e-11
-9.54252e-11
-1.56906e-10
7.0934e-11
-1.26055e-10
-1.68635e-10
7.74752e-11
-1.54647e-10
-1.79306e-10
8.27065e-11
-1.87983e-10
8.64019e-11
3.30925e-13
-9.41294e-12
3.49111e-12
3.94795e-13
-2.7372e-11
1.01796e-11
-3.62819e-14
-4.39231e-11
1.64271e-11
-1.19591e-12
-5.96535e-11
2.24941e-11
-3.33308e-12
-7.5025e-11
2.85971e-11
-6.71721e-12
-9.03749e-11
3.49501e-11
-1.16558e-11
-1.05918e-10
4.17802e-11
-1.85185e-11
-1.21754e-10
4.92984e-11
-2.7759e-11
-1.37884e-10
5.76476e-11
-3.99333e-11
-1.5421e-10
6.68284e-11
-5.57462e-11
-1.7052e-10
7.66338e-11
-7.6032e-11
-1.86514e-10
8.66913e-11
-1.0121e-10
-2.01846e-10
9.6529e-11
-1.2954e-10
-2.16063e-10
1.05548e-10
-1.53931e-10
-2.28253e-10
1.12958e-10
-2.37867e-10
1.18273e-10
8.3286e-13
-1.11805e-11
4.37005e-12
1.31515e-12
-3.25093e-11
1.27351e-11
1.20109e-12
-5.2154e-11
2.05249e-11
2.51455e-13
-7.08008e-11
2.8053e-11
-1.7719e-12
-8.90058e-11
3.55935e-11
-5.11444e-12
-1.07207e-10
4.34289e-11
-1.00388e-11
-1.25702e-10
5.18501e-11
-1.68303e-11
-1.4463e-10
6.11115e-11
-2.58033e-11
-1.63989e-10
7.13825e-11
-3.7323e-11
-1.83645e-10
8.26715e-11
-5.18834e-11
-2.0331e-10
9.47376e-11
-7.01344e-11
-2.22558e-10
1.07137e-10
-9.25205e-11
-2.40783e-10
1.19316e-10
-1.18041e-10
-2.56972e-10
1.30573e-10
-1.41343e-10
-2.69304e-10
1.39904e-10
-2.77237e-10
1.46561e-10
1.54992e-12
-1.25455e-11
5.15313e-12
2.65812e-12
-3.64744e-11
1.50069e-11
3.08729e-12
-5.85021e-11
2.41535e-11
2.62043e-12
-7.9397e-11
3.29516e-11
1.06082e-12
-9.97981e-11
4.17261e-11
-1.7753e-12
-1.20227e-10
5.08185e-11
-6.05921e-12
-1.41048e-10
6.05719e-11
-1.19404e-11
-1.62438e-10
7.12758e-11
-1.95407e-11
-1.844e-10
8.31192e-11
-2.89758e-11
-2.06781e-10
9.61158e-11
-4.04596e-11
-2.29263e-10
1.1e-10
-5.44192e-11
-2.51386e-10
1.24273e-10
-7.14357e-11
-2.72517e-10
1.38313e-10
-9.1652e-11
-2.9155e-10
1.51312e-10
-1.12317e-10
-3.0627e-10
1.62064e-10
-3.10378e-10
1.69656e-10
2.44498e-12
-1.34423e-11
5.81915e-12
4.35182e-12
-3.90816e-11
1.69359e-11
5.51272e-12
-6.26848e-11
2.72245e-11
5.74997e-12
-8.50785e-11
3.70788e-11
4.92478e-12
-1.06959e-10
4.68626e-11
2.93513e-12
-1.28906e-10
5.69603e-11
-2.78606e-13
-1.51332e-10
6.77517e-11
-4.71467e-12
-1.74441e-10
7.95486e-11
-1.02877e-11
-1.98243e-10
9.25494e-11
-1.68325e-11
-2.22567e-10
1.06763e-10
-2.41898e-11
-2.47072e-10
1.219e-10
-3.23291e-11
-2.71315e-10
1.37424e-10
-4.13598e-11
-2.94817e-10
1.52644e-10
-5.11967e-11
-3.16959e-10
1.66637e-10
-6.04824e-11
-3.36344e-10
1.7804e-10
-3.55452e-10
1.8596e-10
3.45375e-12
6.3538e-12
-1.38282e-11
6.27169e-12
1.84829e-11
-4.02147e-11
8.2875e-12
2.96818e-11
-6.45293e-11
9.36962e-12
4.03665e-11
-8.76243e-11
9.44043e-12
5.09251e-11
-1.1022e-10
8.47953e-12
6.17659e-11
-1.32925e-10
6.53071e-12
7.32853e-11
-1.56177e-10
3.72577e-12
8.58012e-11
-1.80199e-10
3.2308e-13
9.95059e-11
-2.04993e-10
-3.26997e-12
1.14391e-10
-2.30352e-10
-6.54519e-12
1.30148e-10
-2.55866e-10
-8.9714e-12
1.46203e-10
-2.80985e-10
-9.87196e-12
1.61796e-10
-3.05035e-10
-7.87352e-12
1.75919e-10
-3.27052e-10
-1.34255e-12
1.871e-10
-3.44973e-10
1.94452e-10
-3.595e-10
-1.01261e-13
-2.56027e-12
3.44767e-13
-2.35495e-13
-7.43852e-12
1.00492e-12
-4.48941e-13
-1.19302e-11
1.62329e-12
-7.92544e-13
-1.62287e-11
2.2317e-12
-1.32413e-12
-2.04839e-11
2.8531e-12
-2.10826e-12
-2.47592e-11
3.50302e-12
-3.22374e-12
-2.9059e-11
4.19942e-12
-4.77684e-12
-3.3389e-11
4.96614e-12
-6.9211e-12
-3.77853e-11
5.82334e-12
-9.88272e-12
-4.22961e-11
6.77643e-12
-1.4007e-11
-4.6934e-11
7.80946e-12
-1.99161e-11
-5.17075e-11
8.8865e-12
-2.88075e-11
-5.673e-11
9.96558e-12
-4.2658e-11
-6.22027e-11
1.10086e-11
-6.19477e-11
-6.79232e-11
1.19474e-11
-7.06384e-11
1.37873e-11
-2.563e-13
-5.05205e-12
1.02835e-12
-6.11682e-13
-1.4687e-11
2.99863e-12
-1.20008e-12
-2.35761e-11
4.84582e-12
-2.16479e-12
-3.20741e-11
6.6594e-12
-3.66733e-12
-4.04441e-11
8.50465e-12
-5.8887e-12
-4.88234e-11
1.04327e-11
-9.04619e-12
-5.72638e-11
1.25026e-11
-1.34243e-11
-6.58014e-11
1.47839e-11
-1.94158e-11
-7.4485e-11
1.73337e-11
-2.75652e-11
-8.33404e-11
2.01653e-11
-3.86458e-11
-9.23188e-11
2.3219e-11
-5.38998e-11
-1.01343e-10
2.63716e-11
-7.52776e-11
-1.10382e-10
2.94721e-11
-1.04907e-10
-1.1928e-10
3.23423e-11
-1.40236e-10
-1.27156e-10
3.47087e-11
-1.32987e-10
3.59498e-11
-2.78022e-13
-7.40106e-12
1.69396e-12
-7.21878e-13
-2.15251e-11
4.94171e-12
-1.5371e-12
-3.45618e-11
7.98634e-12
-2.93698e-12
-4.69953e-11
1.09633e-11
-5.15633e-12
-5.91879e-11
1.39768e-11
-8.45602e-12
-7.13702e-11
1.71218e-11
-1.3141e-11
-8.36742e-11
2.05049e-11
-1.95872e-11
-9.61731e-11
2.42378e-11
-2.82774e-11
-1.08897e-10
2.84106e-11
-3.98262e-11
-1.21818e-10
3.30396e-11
-5.50183e-11
-1.3481e-10
3.80099e-11
-7.48741e-11
-1.47687e-10
4.31013e-11
-1.00323e-10
-1.60266e-10
4.80475e-11
-1.30604e-10
-1.72254e-10
5.25288e-11
-1.59188e-10
-1.82783e-10
5.60938e-11
-1.90889e-10
5.84594e-11
-1.00561e-13
-9.51794e-12
2.32849e-12
-4.35444e-13
-2.76834e-11
6.79294e-12
-1.25844e-12
-4.44405e-11
1.09701e-11
-2.82314e-12
-6.03819e-11
1.50331e-11
-5.39659e-12
-7.5966e-11
1.91259e-11
-9.26928e-12
-9.15298e-11
2.33916e-11
-1.47662e-11
-1.07295e-10
2.79852e-11
-2.22549e-11
-1.23369e-10
3.30571e-11
-3.21654e-11
-1.39756e-10
3.87261e-11
-4.50086e-11
-1.56361e-10
4.50113e-11
-6.13931e-11
-1.72972e-10
5.1748e-11
-8.1981e-11
-1.89272e-10
5.86268e-11
-1.06978e-10
-2.04849e-10
6.5299e-11
-1.34627e-10
-2.1911e-10
7.13751e-11
-1.58621e-10
-2.30976e-10
7.62917e-11
-2.39951e-10
7.95967e-11
3.14317e-13
-1.13093e-11
2.916e-12
3.20171e-13
-3.28896e-11
8.50326e-12
-2.56843e-13
-5.27757e-11
1.37147e-11
-1.67742e-12
-7.16545e-11
1.87563e-11
-4.20014e-12
-9.00802e-11
2.38111e-11
-8.09393e-12
-1.08491e-10
2.90708e-11
-1.36381e-11
-1.2719e-10
3.4734e-11
-2.11116e-11
-1.46315e-10
4.09836e-11
-3.0798e-11
-1.65854e-10
4.79626e-11
-4.30097e-11
-1.85656e-10
5.56932e-11
-5.81333e-11
-2.0543e-10
6.39672e-11
-7.66225e-11
-2.24734e-10
7.23988e-11
-9.86742e-11
-2.42909e-10
8.05792e-11
-1.23272e-10
-2.58848e-10
8.80546e-11
-1.45931e-10
-2.70637e-10
9.41199e-11
-2.77844e-10
9.81681e-11
9.66788e-13
-1.26926e-11
3.43889e-12
1.54284e-12
-3.69048e-11
1.00215e-11
1.46125e-12
-5.9196e-11
1.61406e-11
4.82678e-13
-8.03341e-11
2.20305e-11
-1.61107e-12
-1.00953e-10
2.79104e-11
-5.02721e-12
-1.21574e-10
3.40138e-11
-9.95198e-12
-1.42566e-10
4.0574e-11
-1.65266e-11
-1.64093e-10
4.77973e-11
-2.48388e-11
-1.86133e-10
5.58443e-11
-3.49454e-11
-2.08505e-10
6.47372e-11
-4.69477e-11
-2.30872e-10
7.42311e-11
-6.10746e-11
-2.52761e-10
8.38855e-11
-7.76539e-11
-2.73515e-10
9.32398e-11
-9.68072e-11
-2.92017e-10
1.0177e-10
-1.16683e-10
-3.06088e-10
1.08656e-10
-3.09656e-10
1.13201e-10
1.81851e-12
-1.36007e-11
3.88159e-12
3.15748e-12
-3.95428e-11
1.1304e-11
3.77964e-12
-6.34209e-11
1.81828e-11
3.48586e-12
-8.60583e-11
2.47754e-11
2.11675e-12
-1.08146e-10
3.13303e-11
-4.52222e-13
-1.30264e-10
3.81111e-11
-4.29436e-12
-1.5282e-10
4.53729e-11
-9.40008e-12
-1.76004e-10
5.33342e-11
-1.56515e-11
-1.99784e-10
6.21612e-11
-2.28233e-11
-2.2395e-10
7.18671e-11
-3.0645e-11
-2.48133e-10
8.21874e-11
-3.89042e-11
-2.7188e-10
9.2651e-11
-4.74686e-11
-2.94722e-10
1.02739e-10
-5.61882e-11
-3.16109e-10
1.11856e-10
-6.44941e-11
-3.34797e-10
1.19112e-10
-3.53895e-10
1.23875e-10
2.80274e-12
4.23403e-12
-1.39922e-11
5.0336e-12
1.2324e-11
-4.06891e-11