/*--------------------------------*- C++ -*----------------------------------*\
| =========                 |                                                 |
| \\      /  F ield         | OpenFOAM: The Open Source CFD Toolbox           |
|  \\    /   O peration     | Version:  v1912                                 |
|   \\  /    A nd           | Website:  www.openfoam.com                      |
|    \\/     M anipulation  |                                                 |
\*---------------------------------------------------------------------------*/
FoamFile
{
    version     2.0;
    format      ascii;
    class       volScalarField;
    location    "0.12/fluid";
    object      p;
}
// * * * * * * * * * * * * * * * * * * * * * * * * * * * * * * * * * * * * * //

dimensions      [0 2 -2 0 0 0 0];


internalField   nonuniform List<scalar> 
14592
(
0.0904162
0.0851918
0.0831244
0.0813564
0.0799232
0.0786823
0.0775226
0.0764568
0.0754659
0.0746083
0.0737533
0.0734008
0.0725606
0.0734882
0.0726318
0.0769528
0.0860748
0.0844453
0.0827214
0.081268
0.0799056
0.0787037
0.0775625
0.0765128
0.0755388
0.0747064
0.0738771
0.0735867
0.0727933
0.0739077
0.0731332
0.0783099
0.0842225
0.0834692
0.0820791
0.0809118
0.0796691
0.0785432
0.0774403
0.0764101
0.0754445
0.0746184
0.0737923
0.0735269
0.0727543
0.073969
0.0732645
0.0787235
0.0828406
0.0825457
0.081493
0.0805577
0.0794355
0.078382
0.077316
0.0763033
0.0753431
0.0745183
0.0736915
0.073445
0.0727
0.0740222
0.0734319
0.0791239
0.0819874
0.0818333
0.0809667
0.080173
0.0791407
0.0781422
0.0771006
0.0760895
0.0751123
0.0742546
0.0733776
0.0730678
0.0722353
0.0734885
0.0727996
0.0786366
0.081371
0.0812846
0.0805461
0.0798473
0.0788785
0.0779157
0.0768852
0.0758657
0.0748647
0.073973
0.0730632
0.0727355
0.0719351
0.0733348
0.0728794
0.079228
0.08096
0.0809
0.0802256
0.0795749
0.0786366
0.0776842
0.0766426
0.0755891
0.0745275
0.073536
0.072477
0.071899
0.0707381
0.0715943
0.0703263
0.0764279
0.0807116
0.0806642
0.0800145
0.0793802
0.0784453
0.0774829
0.076416
0.075322
0.0742066
0.0731465
0.0720318
0.0713964
0.0702956
0.0713817
0.0705909
0.0790255
0.0902399
0.0850167
0.0829923
0.0812722
0.0799046
0.0787387
0.0776665
0.0767006
0.0758213
0.0750827
0.0743376
0.0740428
0.0731905
0.0737307
0.0725043
0.0744243
0.0858993
0.0842696
0.0825899
0.0811851
0.0798892
0.0787631
0.0777104
0.0767617
0.0759002
0.0751871
0.0744653
0.0742247
0.0733987
0.0740664
0.0728392
0.0751394
0.0840448
0.0832907
0.0819447
0.0808257
0.0796492
0.0785986
0.0775833
0.0766529
0.075798
0.075089
0.0743661
0.0741465
0.0733274
0.0740786
0.0728819
0.0753696
0.0826608
0.0823653
0.0813563
0.0804691
0.0794125
0.0784337
0.0774543
0.0765401
0.0756892
0.0749806
0.0742549
0.0740574
0.0732623
0.0741316
0.0730366
0.0757433
0.0818038
0.0816493
0.0808257
0.0800791
0.079111
0.0781851
0.0772274
0.0763113
0.0754385
0.0746915
0.0739065
0.0736403
0.0727374
0.0735383
0.0723017
0.0751798
0.0811832
0.0810968
0.0804004
0.0797478
0.0788415
0.0779491
0.0769995
0.0760714
0.075171
0.0743882
0.0735703
0.073303
0.0724496
0.0734698
0.0725104
0.0759969
0.080767
0.0807073
0.0800741
0.0794684
0.0785903
0.0777052
0.0767398
0.0757713
0.0748008
0.073906
0.0729189
0.0723826
0.0711223
0.0715974
0.0697148
0.0730725
0.0805131
0.0804664
0.0798568
0.0792662
0.0783892
0.0774909
0.076496
0.0754818
0.0744528
0.0734882
0.0724506
0.0718895
0.0707398
0.0716037
0.070336
0.0764371
0.0901164
0.084893
0.0829018
0.0812202
0.0799081
0.0788083
0.0778173
0.0769518
0.0762013
0.075634
0.0751364
0.0751809
0.0748941
0.0760604
0.0761023
0.0782607
0.0857767
0.0841455
0.0825001
0.0811344
0.0798947
0.0788357
0.0778654
0.0770188
0.076289
0.0757513
0.0752837
0.0753922
0.0751481
0.0764547
0.0765412
0.079016
0.0839198
0.0831639
0.0818522
0.0807721
0.0796516
0.0786676
0.0777339
0.0769048
0.0761805
0.0756463
0.0751763
0.0753077
0.075069
0.0764657
0.0765847
0.0792422
0.0825339
0.0822366
0.0812616
0.080413
0.079412
0.0784991
0.0776005
0.0767865
0.0760646
0.0755295
0.0750541
0.0752093
0.0749901
0.0765161
0.0767285
0.0796095
0.0816732
0.081517
0.0807267
0.0800179
0.079104
0.0782423
0.0773627
0.076543
0.0757938
0.0752133
0.0746658
0.0747397
0.0743802
0.0758203
0.0758213
0.0788655
0.0810485
0.0809607
0.0802969
0.0796813
0.0788276
0.0779971
0.0771226
0.0762867
0.075504
0.0748808
0.074289
0.0743559
0.074022
0.0756911
0.0759161
0.0795874
0.0806273
0.0805667
0.079965
0.0793953
0.0785676
0.0777413
0.0768463
0.0759628
0.0750986
0.0743453
0.0735508
0.0733027
0.0724611
0.0734905
0.07253
0.0760143
0.0803681
0.0803208
0.0797418
0.0791859
0.0783571
0.0775145
0.0765853
0.0756496
0.0747174
0.073882
0.0730171
0.0727257
0.0719487
0.0733666
0.0729113
0.0792597
0.0900321
0.0848078
0.0828423
0.081191
0.0799235
0.0788771
0.0779504
0.0771596
0.0764942
0.0760151
0.075609
0.0756934
0.0754404
0.0764016
0.0763193
0.0779424
0.0856931
0.0840599
0.0824412
0.0811063
0.079912
0.0789071
0.0780021
0.0772313
0.0765877
0.076139
0.0757625
0.0759066
0.0756871
0.0767612
0.0766934
0.0785435
0.0838342
0.083076
0.0817908
0.0807414
0.079666
0.0787357
0.0778666
0.0771123
0.0764731
0.0760262
0.0756442
0.0758077
0.075584
0.0767373
0.0766795
0.0786888
0.0824465
0.082147
0.0811982
0.0803801
0.0794238
0.0785641
0.0777294
0.0769894
0.0763514
0.0759029
0.0755136
0.0757022
0.0754932
0.0767797
0.0768029
0.0790316
0.0815823
0.0814241
0.0806594
0.0799804
0.0791101
0.0783
0.0774823
0.0767338
0.0760649
0.0755671
0.0750993
0.075204
0.0748414
0.0760441
0.0758299
0.078226
0.0809539
0.0808644
0.0802256
0.079639
0.0788275
0.078047
0.077232
0.0764644
0.0757587
0.075216
0.0747014
0.0748071
0.0744728
0.0759397
0.0759561
0.079006
0.0805283
0.0804661
0.0798887
0.079347
0.0785598
0.077781
0.076942
0.076122
0.0753281
0.0746474
0.0739171
0.0736993
0.0728297
0.0736616
0.0724313
0.0753082
0.0802643
0.0802158
0.0796602
0.0791313
0.0783411
0.0775434
0.0766667
0.0757904
0.0749239
0.0741583
0.0733565
0.0731113
0.0723227
0.0736158
0.0729336
0.0787757
0.0899766
0.0847511
0.0828051
0.081177
0.0799446
0.0789405
0.0780658
0.0773367
0.0767455
0.0763521
0.0760582
0.076256
0.0761923
0.077268
0.0774693
0.0789834
0.0856382
0.084003
0.0824045
0.0810933
0.0799347
0.0789728
0.0781206
0.0774127
0.0768449
0.0764841
0.0762231
0.0764841
0.07646
0.0776497
0.0778758
0.0795847
0.0837776
0.083017
0.081752
0.0807262
0.0796862
0.0787987
0.077982
0.07729
0.0767258
0.0763661
0.0760985
0.0763787
0.0763477
0.0776158
0.0778459
0.0797054
0.0823882
0.0820865
0.0811577
0.080363
0.0794418
0.0786246
0.0778417
0.0771633
0.0765996
0.0762376
0.0759613
0.0762673
0.0762473
0.0776516
0.0779544
0.0800322
0.0815211
0.0813608
0.0806156
0.0799594
0.0791233
0.0783544
0.0775868
0.0768978
0.0763001
0.0758853
0.0755244
0.0757421
0.0755545
0.0768704
0.0769097
0.0791541
0.0808895
0.0807982
0.0801783
0.079614
0.0788356
0.0780949
0.0773279
0.0766173
0.0759795
0.0755165
0.0751032
0.0753209
0.0751504
0.0767366
0.0769847
0.0798902
0.0804601
0.0803963
0.0798372
0.0793169
0.0785614
0.0778204
0.0770266
0.0762595
0.0755275
0.0749186
0.0742754
0.0741547
0.0734121
0.07434
0.0732598
0.0759773
0.0801919
0.0801421
0.0796041
0.0790958
0.0783358
0.0775737
0.0767393
0.075912
0.0751023
0.0744028
0.0736789
0.0735259
0.0728453
0.0742388
0.0736674
0.0793884
0.0899417
0.0847151
0.0827831
0.0811719
0.0799651
0.0789922
0.0781554
0.0774702
0.0769291
0.0765875
0.0763515
0.0765802
0.0765605
0.0775732
0.0777632
0.079121
0.0856039
0.0839669
0.082383
0.081089
0.0799565
0.0790263
0.0782126
0.0775495
0.0770328
0.0767246
0.0765224
0.0768137
0.0768322
0.0779506
0.0781581
0.0796861
0.0837418
0.0829792
0.0817288
0.0807201
0.0797062
0.0788501
0.0780715
0.0774238
0.0769101
0.0766022
0.0763921
0.0767012
0.0767084
0.0779009
0.0781029
0.0797744
0.0823511
0.0820475
0.0811332
0.0803554
0.0794601
0.078674
0.077929
0.0772944
0.0767806
0.07647
0.0762499
0.0765852
0.0766003
0.0779298
0.0781973
0.080086
0.0814818
0.0813197
0.0805884
0.0799488
0.0791379
0.0783993
0.0776681
0.0770214
0.0764716
0.0761061
0.075798
0.0760435
0.0758838
0.0771257
0.0771168
0.0791735
0.0808477
0.0807548
0.0801485
0.0796002
0.0788462
0.0781347
0.0774029
0.0767327
0.0761407
0.0757252
0.075362
0.0756091
0.0754633
0.0769857
0.0771796
0.0799055
0.0804152
0.0803501
0.079804
0.0792992
0.078567
0.0778537
0.077093
0.0763637
0.0756739
0.0751082
0.0745081
0.0744127
0.0736807
0.0745452
0.0733799
0.075914
0.0801438
0.0800929
0.0795674
0.079074
0.0783361
0.0776001
0.0767967
0.0760046
0.0752338
0.0745748
0.0738907
0.0737661
0.0730951
0.0744466
0.0737919
0.0793622
0.0899216
0.0846942
0.0827712
0.081171
0.0799811
0.0790287
0.0782168
0.0775603
0.077052
0.0767444
0.0765483
0.0768041
0.0768304
0.0778388
0.0780694
0.0793707
0.0855841
0.0839458
0.0823715
0.0810887
0.0799734
0.079064
0.0782757
0.0776419
0.0771587
0.0768854
0.0767243
0.0770436
0.0771094
0.0782226
0.0784722
0.0799329
0.083721
0.0829571
0.0817161
0.0807186
0.0797218
0.0788864
0.0781329
0.0775142
0.0770337
0.0767603
0.0765907
0.0769274
0.0769804
0.0781667
0.0784074
0.0800089
0.0823296
0.0820246
0.0811196
0.0803529
0.0794746
0.0787091
0.0779889
0.077383
0.0769021
0.0766257
0.0764456
0.0768087
0.0768678
0.078192
0.078494
0.0803125
0.0814586
0.0812952
0.0805731
0.0799443
0.0791499
0.0784311
0.0777241
0.0771051
0.0765869
0.0762542
0.0759839
0.0762562
0.0761359
0.0773722
0.0773895
0.0793762
0.0808228
0.0807287
0.0801313
0.0795935
0.0788555
0.0781631
0.0774545
0.0768109
0.0762491
0.0758651
0.0755376
0.0758117
0.0757014
0.0772217
0.0774343
0.0800935
0.0803882
0.0803221
0.0797845
0.0792898
0.0785729
0.0778778
0.0771389
0.0764345
0.0757725
0.0752356
0.0746666
0.0745949
0.0738877
0.0747464
0.0735761
0.076037
0.0801146
0.0800628
0.0795455
0.0790617
0.0783383
0.0776196
0.0768366
0.0760675
0.0753224
0.0746902
0.0740339
0.0739328
0.0732814
0.0746325
0.0739633
0.0794752
0.0899122
0.084685
0.0827657
0.0811712
0.0799894
0.079047
0.0782469
0.0776041
0.0771109
0.0768179
0.0766385
0.0769017
0.0769415
0.0779344
0.0781665
0.0794361
0.0855753
0.0839362
0.0823663
0.0810891
0.0799821
0.0790828
0.0783065
0.0776864
0.0772186
0.0769601
0.0768158
0.077142
0.0772208
0.0783165
0.078566
0.0799902
0.0837114
0.0829469
0.0817105
0.0807184
0.0797299
0.0789044
0.078163
0.0775578
0.0770925
0.0768337
0.0766805
0.0770238
0.0770888
0.0782567
0.0784952
0.0800588
0.0823197
0.082014
0.0811135
0.0803521
0.0794821
0.0787264
0.0780182
0.0774258
0.0769599
0.0766981
0.0765342
0.076904
0.0769742
0.07828
0.0785774
0.0803575
0.0814478
0.0812837
0.0805661
0.0799425
0.0791561
0.078447
0.0777516
0.0771456
0.0766419
0.0763234
0.0760686
0.0763477
0.0762372
0.077456
0.077466
0.0794144
0.0808112
0.0807165
0.0801233
0.0795906
0.0788604
0.0781773
0.0774798
0.0768488
0.0763009
0.0759306
0.0756178
0.0758988
0.0757967
0.0773011
0.077503
0.0801248
0.0803755
0.0803088
0.0797754
0.0792856
0.0785762
0.0778899
0.0771616
0.0764689
0.07582
0.0752958
0.07474
0.0746749
0.073973
0.0748164
0.0736283
0.0760496
0.0801008
0.0800486
0.0795352
0.0790561
0.0783398
0.0776294
0.0768564
0.0760983
0.0753652
0.0747447
0.0741003
0.0740059
0.0733581
0.0746966
0.0740062
0.0794819
0.100665
0.090469
0.0866365
0.0834533
0.0810952
0.0790879
0.0772433
0.0754871
0.0737445
0.0719651
0.0700977
0.0681068
0.0658922
0.0635398
0.0607524
0.0579897
0.0963229
0.0895582
0.0861744
0.0833189
0.0810454
0.079081
0.0772546
0.0755098
0.0737758
0.0720046
0.0701453
0.0681635
0.0659559
0.0636131
0.0608255
0.0580663
0.0944468
0.0885332
0.0855095
0.0829492
0.0808107
0.0789321
0.0771525
0.075435
0.0737169
0.0719558
0.0701043
0.0681309
0.0659333
0.0636042
0.0608328
0.058091
0.0930612
0.0875995
0.0849134
0.0825876
0.0805778
0.0787788
0.0770438
0.0753518
0.0736481
0.0718952
0.0700493
0.0680816
0.065893
0.0635752
0.0608243
0.0581006
0.0922101
0.0868931
0.084397
0.0822188
0.0803098
0.0785782
0.0768838
0.0752145
0.0735218
0.0717732
0.0699291
0.0679638
0.0657842
0.0634787
0.0607597
0.0580647
0.0916065
0.0863578
0.0839912
0.0819125
0.0800769
0.078394
0.0767284
0.0750739
0.0733865
0.0716376
0.0697919
0.0678262
0.0656558
0.0633626
0.060684
0.0580213
0.0912153
0.0859927
0.0836941
0.08167
0.0798774
0.0782225
0.0765715
0.0749214
0.0732313
0.0714754
0.0696222
0.0676504
0.0654858
0.0632004
0.0605668
0.057939
0.0909916
0.0857796
0.0835099
0.0815086
0.0797322
0.0780851
0.0764339
0.0747777
0.0730771
0.071309
0.069445
0.0674659
0.0653095
0.063035
0.0604558
0.0578674
0.0962897
0.0895173
0.0861274
0.083267
0.0809917
0.079023
0.0771872
0.0754309
0.0736833
0.0718967
0.0700175
0.06802
0.0657788
0.0634327
0.0605875
0.0578603
0.0919244
0.0887435
0.0856965
0.0831515
0.0809519
0.0790217
0.0772003
0.0754524
0.0737108
0.0719297
0.0700557
0.0680645
0.065827
0.0634886
0.060641
0.0579195
0.0900605
0.0877505
0.0850463
0.0827918
0.0807212
0.0788743
0.0770982
0.0753767
0.0736506
0.0718792
0.0700128
0.06803
0.0658027
0.0634783
0.0606473
0.0579437
0.0886741
0.0868183
0.0844562
0.0824364
0.0804927
0.0787245
0.0769927
0.0752966
0.0735849
0.0718222
0.069962
0.0679857
0.0657684
0.0634557
0.0606466
0.0579603
0.0878276
0.0861118
0.0839421
0.0820697
0.0802258
0.0785249
0.0768339
0.075161
0.073461
0.0717032
0.0698458
0.0678726
0.0656659
0.0633655
0.0605909
0.0579314
0.0872249
0.0855752
0.0835379
0.0817656
0.079995
0.078343
0.0766814
0.0750239
0.07333
0.0715731
0.0697157
0.0677435
0.0655491
0.0632619
0.0605329
0.0579036
0.086835
0.0852101
0.0832421
0.0815247
0.0797968
0.078173
0.0765269
0.0748745
0.0731786
0.0714156
0.0695517
0.0675738
0.0653874
0.0631064
0.0604274
0.0578285
0.0866121
0.0849976
0.0830594
0.081365
0.0796532
0.0780375
0.0763921
0.0747343
0.073029
0.0712549
0.0693824
0.0673987
0.0652252
0.0629564
0.0603409
0.0577791
0.0944066
0.0884828
0.0854594
0.0829035
0.080779
0.0789164
0.0771538
0.0754555
0.0737583
0.0720196
0.0701798
0.0682337
0.065981
0.0636938
0.06067
0.0579824
0.0900564
0.0877434
0.085046
0.0828012
0.0807462
0.0789198
0.0771712
0.0754816
0.0737912
0.0720593
0.0702259
0.0682887
0.0660404
0.0637662
0.0607377
0.0580637
0.0882032
0.0867676
0.0844062
0.0824496
0.0805193
0.0787738
0.0770691
0.075405
0.0737295
0.0720071
0.0701812
0.0682531
0.0660159
0.063758
0.0607482
0.0580946
0.0868215
0.0858423
0.0838215
0.0820988
0.0802935
0.0786255
0.0769639
0.0753245
0.0736629
0.0719487
0.0701289
0.0682074
0.065982
0.0637369
0.0607541
0.0581188
0.0859778
0.0851385
0.0833091
0.081733
0.0800263
0.0784243
0.0768022
0.0751845
0.073533
0.0718221
0.0700035
0.068083
0.0658686
0.0636332
0.0606929
0.0580828
0.0853754
0.0846019
0.0829051
0.0814288
0.0797945
0.0782405
0.0766465
0.0750428
0.0733957
0.0716838
0.0698638
0.0679422
0.0657432
0.0635196
0.0606406
0.05806
0.0849847
0.0842359
0.0826082
0.0811864
0.0795942
0.0780673
0.076487
0.0748863
0.0732346
0.0715129
0.0696828
0.0677489
0.0655559
0.0633273
0.0605114
0.0579514
0.0847602
0.084022
0.0824239
0.0810248
0.0794479
0.077928
0.0763467
0.0747386
0.0730751
0.0713393
0.0694984
0.0675547
0.0653793
0.0631588
0.0604312
0.0579055
0.0929887
0.087513
0.0848382
0.0825297
0.0805558
0.0788001
0.0771162
0.0754838
0.0738472
0.0721703
0.0703798
0.0685067
0.0662208
0.0640153
0.0606724
0.058047
0.0886376
0.086774
0.0844301
0.0824328
0.0805269
0.0788064
0.077136
0.0755122
0.0738826
0.0722132
0.0704295
0.0685679
0.066286
0.0641011
0.0607494
0.058153
0.0867881
0.085804
0.0837945
0.0820847
0.0803014
0.0786605
0.0770328
0.0754336
0.073818
0.0721576
0.070381
0.0685292
0.0662591
0.0640931
0.0607614
0.0581881
0.0854085
0.0848824
0.0832126
0.0817367
0.0800773
0.0785128
0.0769275
0.0753522
0.0737498
0.072097
0.0703263
0.0684814
0.0662251
0.0640737
0.0607762
0.0582227
0.0845663
0.0841802
0.0827011
0.0813712
0.0798091
0.0783095
0.0767622
0.075207
0.0736128
0.0719611
0.0701894
0.0683421
0.066097
0.0639507
0.060707
0.0581759
0.083964
0.0836441
0.082297
0.0810667
0.0795763
0.0781236
0.0766029
0.07506
0.0734683
0.0718132
0.0700389
0.0681883
0.0659649
0.0638309
0.0606759
0.0581763
0.0835725
0.0832775
0.0819991
0.0808228
0.0793735
0.0779466
0.0764378
0.0748954
0.0732956
0.0716259
0.0698361
0.0679628
0.0657425
0.0635857
0.060516
0.0580207
0.0833465
0.0830624
0.0818132
0.0806593
0.0792245
0.0778032
0.0762916
0.0747393
0.0731248
0.0714373
0.0696352
0.0677484
0.0655576
0.0634101
0.0604772
0.0580224
0.092117
0.0867854
0.0843227
0.0821879
0.0803552
0.0787168
0.0771355
0.0756005
0.074063
0.0724982
0.0708153
0.0691114
0.0668733
0.0649221
0.0612495
0.0588405
0.0877713
0.0860462
0.0839175
0.082094
0.0803291
0.0787263
0.0771594
0.0756342
0.0741054
0.0725508
0.0708777
0.0691928
0.0669633
0.0650514
0.061372
0.0590217
0.0859247
0.0850783
0.0832833
0.0817467
0.0801033
0.0785791
0.077054
0.0755526
0.074037
0.0724912
0.0708251
0.0691521
0.0669368
0.0650501
0.0613936
0.0590719
0.0845468
0.0841587
0.0827026
0.0813994
0.0798789
0.0784303
0.0769464
0.0754679
0.0739643
0.0724252
0.0707644
0.0690986
0.0669002
0.0650324
0.0614206
0.059125
0.0837045
0.0834565
0.08219
0.0810319
0.0796073
0.0782219
0.0767739
0.0753127
0.073814
0.0722714
0.0706049
0.0689295
0.0667387
0.0648668
0.0613196
0.0590439
0.0831009
0.0829194
0.0817842
0.0807249
0.0793705
0.0780301
0.0766064
0.0751542
0.0736541
0.0721034
0.0704302
0.0687457
0.066581
0.06472
0.0612955
0.0590608
0.0827069
0.0825505
0.0814832
0.0804771
0.0791621
0.0778451
0.0764298
0.0749735
0.0734587
0.0718833
0.0701821
0.0684523
0.0662734
0.0643475
0.0610208
0.0587568
0.0824777
0.0823324
0.0812937
0.0803089
0.0790067
0.0776929
0.0762714
0.0748006
0.0732652
0.0716641
0.0699442
0.0681883
0.0660447
0.0641184
0.0609824
0.0587723
0.0914648
0.0861993
0.0838933
0.0818906
0.0801808
0.0786515
0.0771733
0.0757414
0.0743108
0.0728667
0.0712843
0.0697357
0.0674548
0.0656537
0.0613331
0.0589283
0.0871199
0.0854567
0.0834885
0.0817981
0.0801567
0.0786635
0.0772003
0.0757792
0.0743583
0.0729267
0.0713551
0.0698313
0.0675593
0.0658139
0.0614801
0.0591488
0.0852729
0.0844878
0.0828534
0.0814497
0.0799292
0.0785139
0.0770915
0.0756931
0.0742844
0.0728606
0.071295
0.0697841
0.0675259
0.0658097
0.0614946
0.0591887
0.0838951
0.0835683
0.0822725
0.0811018
0.0797036
0.078363
0.076981
0.0756042
0.0742062
0.0727879
0.0712268
0.0697239
0.067486
0.0657966
0.0615393
0.059272
0.0830513
0.0828649
0.0817578
0.0807314
0.0794278
0.0781486
0.0768
0.0754375
0.0740403
0.0726136
0.0710409
0.0695205
0.0672851
0.0655831
0.0614057
0.0591688
0.0824456
0.0823261
0.0813496
0.0804212
0.0791862
0.0779501
0.0766231
0.0752663
0.0738637
0.0724243
0.0708428
0.069312
0.0671169
0.065444
0.0614517
0.0593055
0.0820485
0.0819544
0.081045
0.0801687
0.0789713
0.077756
0.0764336
0.0750672
0.0736424
0.0721669
0.0705436
0.0689425
0.0667145
0.0649335
0.0610652
0.0588737
0.0818157
0.0817329
0.0808514
0.0799954
0.0788088
0.0775941
0.0762617
0.0748759
0.0734249
0.0719172
0.0702742
0.0686461
0.0664837
0.0647371
0.0611718
0.0591501
0.0910031
0.0857631
0.0835626
0.0816583
0.0800555
0.0786314
0.0772638
0.0759547
0.0746684
0.0734163
0.0720604
0.070897
0.0689494
0.0678622
0.0634684
0.0615635
0.0866598
0.0850189
0.0831586
0.0815674
0.0800337
0.0786466
0.0772952
0.0759987
0.0747248
0.07349
0.072151
0.0710272
0.0691024
0.0681052
0.0637021
0.0617842
0.0848117
0.0840482
0.0825217
0.0812169
0.0798036
0.0784939
0.0771825
0.0759077
0.074645
0.0734179
0.0720847
0.0709779
0.0690703
0.0681156
0.0637298
0.0618344
0.0834331
0.083128
0.0819395
0.0808674
0.0795758
0.07834
0.0770678
0.0758133
0.0745596
0.0733365
0.0720065
0.0709096
0.0690256
0.0681148
0.0638032
0.0619873
0.0825868
0.0824222
0.0814216
0.0804928
0.0792942
0.0781178
0.076876
0.0756318
0.0743733
0.0731339
0.0717813
0.0706521
0.0687515
0.0678122
0.0635783
0.0618468
0.0819781
0.0818806
0.0810097
0.0801779
0.0790464
0.0779105
0.076687
0.0754437
0.0741736
0.0729135
0.0715435
0.0703952
0.0685343
0.0676424
0.0636466
0.0621383
0.0815769
0.081505
0.0807004
0.0799194
0.0788231
0.0777047
0.0764808
0.0752202
0.0739159
0.0725997
0.0711575
0.0698851
0.0679187
0.0668112
0.0628772
0.0613455
0.0813393
0.0812793
0.0805014
0.0797394
0.0786516
0.0775304
0.0762914
0.0750043
0.0736642
0.0723016
0.0708251
0.0695036
0.067597
0.0665356
0.0629899
0.0619029
0.0906625
0.0854336
0.0833096
0.0814814
0.0799694
0.07864
0.0773755
0.0761804
0.0750201
0.0739162
0.0726962
0.0717151
0.069817
0.0687342
0.0637682
0.0592302
0.0863201
0.084688
0.0829061
0.0813917
0.0799496
0.0786582
0.0774108
0.0762296
0.075083
0.0739985
0.0727963
0.0718599
0.0699872
0.0689952
0.0639633
0.0586145
0.0844701
0.0837147
0.0822666
0.0810384
0.0797165
0.0785017
0.0772934
0.0761327
0.0749956
0.0739175
0.0727187
0.0717996
0.0699397
0.0689884
0.0639452
0.0584448
0.08309
0.082793
0.0816826
0.0806868
0.0794859
0.0783443
0.077174
0.0760323
0.0749026
0.0738274
0.0726302
0.0717247
0.0698912
0.069006
0.0640601
0.0587103
0.0822405
0.0820841
0.0811607
0.0803074
0.079198
0.0781135
0.0769709
0.0758355
0.0746957
0.0735975
0.0723678
0.0714195
0.0695496
0.0686339
0.0637721
0.0587104
0.0816281
0.0815392
0.0807447
0.0799873
0.0789432
0.077897
0.0767694
0.0756309
0.0744749
0.073352
0.0721035
0.0711452
0.0693348
0.0685419
0.0640299
0.0595722
0.0812222
0.0811593
0.08043
0.0797221
0.0787109
0.0776789
0.076546
0.075383
0.0741823
0.0729873
0.0716422
0.0705223
0.0685451
0.0674808
0.0629832
0.0588866
0.0809794
0.0809287
0.0802251
0.079535
0.0785299
0.0774917
0.0763391
0.0751438
0.0739014
0.0726549
0.0712785
0.0701274
0.0682567
0.0673956
0.0634914
0.0608039
0.0806177
0.0805739
0.0799139
0.0792667
0.0783083
0.0773132
0.076199
0.0750368
0.073822
0.072598
0.071239
0.0701003
0.0682361
0.0673758
0.0634611
0.060755
0.0806841
0.0806351
0.0799309
0.0792433
0.0782376
0.0771933
0.0760239
0.0747972
0.0735079
0.072187
0.0707431
0.0694455
0.0675529
0.066497
0.062943
0.061842
0.0809242
0.0808552
0.0800681
0.0793093
0.0782316
0.0771201
0.075882
0.0745787
0.0731976
0.0717474
0.0701496
0.0685549
0.0664132
0.0646763
0.0611059
0.0590724
0.0813997
0.0812704
0.0803411
0.0794698
0.0782963
0.0771058
0.0757975
0.0744266
0.0729763
0.0714455
0.0697811
0.0680667
0.0659501
0.0640382
0.0609019
0.0586837
0.082124
0.0818571
0.0807282
0.0797
0.0784083
0.0771251
0.0757412
0.0743021
0.0727844
0.0711772
0.0694388
0.0676001
0.0654417
0.0633129
0.0603842
0.0579247
0.0834383
0.0827191
0.0812484
0.0799835
0.0785596
0.0771876
0.0757437
0.0742577
0.0726989
0.0710501
0.0692786
0.0673875
0.0652485
0.0630498
0.0603299
0.0578023
0.0852182
0.0836241
0.0818182
0.080264
0.0787123
0.0772514
0.0757499
0.0742205
0.0726257
0.0709435
0.0691446
0.0672169
0.0650828
0.0628382
0.0602332
0.0576717
0.0895848
0.0843978
0.0822602
0.0803995
0.0787831
0.077292
0.0757868
0.0742601
0.0726709
0.0709954
0.0692055
0.0672828
0.0651661
0.0629162
0.0603479
0.0577601
0.0804134
0.0803706
0.0797496
0.0791448
0.0782417
0.0773067
0.0762587
0.0751678
0.0740272
0.072881
0.0715741
0.0704823
0.0685204
0.0674608
0.0629441
0.0588148
0.080474
0.0804264
0.0797603
0.0791137
0.0781608
0.0771733
0.0760653
0.074904
0.0736826
0.0724341
0.0710447
0.0698113
0.0678673
0.0667689
0.0628185
0.0612621
0.0807087
0.0806414
0.0798914
0.0791723
0.0781451
0.0770868
0.0759049
0.0746596
0.0733365
0.071944
0.0703857
0.0688324
0.0666331
0.064865
0.0609849
0.0587728
0.0811797
0.0810525
0.0801595
0.0793269
0.0782019
0.0770618
0.0758059
0.0744879
0.0730896
0.0716097
0.0699835
0.0683092
0.0661655
0.0642576
0.0609262
0.0586474
0.0818999
0.0816353
0.0805421
0.0795516
0.0783067
0.0770714
0.0757364
0.0743454
0.0728737
0.071309
0.0696021
0.0677909
0.0656114
0.0634772
0.0604092
0.0579043
0.0832118
0.0824953
0.08106
0.0798326
0.0784545
0.0771291
0.0757321
0.0742917
0.0727758
0.0711658
0.0694242
0.0675567
0.0654087
0.0632062
0.0603971
0.0578315
0.0849894
0.0833986
0.0816278
0.0801106
0.0786039
0.0771885
0.0757322
0.0742462
0.0726918
0.0710452
0.0692739
0.0673659
0.0652276
0.0629755
0.060307
0.0577057
0.0893566
0.0841741
0.0820713
0.0802476
0.0786761
0.0772309
0.0757717
0.0742893
0.0727413
0.0711027
0.0693425
0.067441
0.0653251
0.0630689
0.0604465
0.0578168
0.0802628
0.0802198
0.0796285
0.079057
0.0781996
0.0773164
0.0763281
0.0753059
0.0742456
0.0732003
0.0720123
0.0710993
0.0693128
0.0685281
0.0639812
0.059466
0.080318
0.0802706
0.0796331
0.0790186
0.0781091
0.0771699
0.0761165
0.0750164
0.0738646
0.0727003
0.0714049
0.0703121
0.0684819
0.0676025
0.0635761
0.0620272
0.0805476
0.0804808
0.0797585
0.0790703
0.0780841
0.0770708
0.0759383
0.0747462
0.0734801
0.0721513
0.0706557
0.0691882
0.0670295
0.0653723
0.0613565
0.0591778
0.0810144
0.080888
0.0800219
0.0792193
0.0781335
0.0770357
0.0758253
0.0745547
0.0732056
0.0717775
0.0701998
0.0685859
0.0664646
0.0646249
0.0611882
0.0589301
0.0817307
0.0814672
0.0804004
0.079439
0.0782316
0.0770362
0.0757431
0.0743947
0.0729653
0.0714421
0.069771
0.0679971
0.0658228
0.0637152
0.0605573
0.0580419
0.0830404
0.0823253
0.0809162
0.0797176
0.0783761
0.0770893
0.0757324
0.074332
0.0728548
0.0712811
0.0695698
0.0677292
0.065584
0.0633908
0.0605162
0.0579254
0.0848161
0.0832271
0.081482
0.0799933
0.0785225
0.0771447
0.0757268
0.0742788
0.0727602
0.0711463
0.0694014
0.0675136
0.0653765
0.0631228
0.0604034
0.0577684
0.0891838
0.0840041
0.0819269
0.0801317
0.078596
0.0771887
0.0757688
0.0743249
0.0728138
0.0712086
0.0694759
0.067595
0.0654825
0.0632233
0.0605554
0.0578876
0.0801539
0.0801101
0.0795413
0.0789957
0.0781748
0.0773335
0.0763934
0.0754244
0.074421
0.0734341
0.0722922
0.0714127
0.0695789
0.0686786
0.0637561
0.0585932
0.0802043
0.0801563
0.0795405
0.0789508
0.0780759
0.0771759
0.0761668
0.075115
0.0740144
0.0729033
0.0716511
0.0705988
0.0687396
0.0678194
0.0635321
0.0617353
0.0804293
0.0803623
0.0796608
0.0789964
0.0780429
0.0770659
0.0759737
0.0748245
0.0736023
0.072317
0.0708542
0.0694158
0.0672255
0.0655433
0.0613234
0.0590359
0.0808923
0.080766
0.0799201
0.0791405
0.0780858
0.0770222
0.075849
0.0746173
0.0733072
0.071917
0.0703688
0.0687815
0.0666427
0.0647964
0.061224
0.0589123
0.0816052
0.081342
0.0802948
0.0793557
0.0781779
0.0770148
0.0757562
0.074443
0.073048
0.0715569
0.0699104
0.0681559
0.0659687
0.0638527
0.0605975
0.0580408
0.082913
0.0821985
0.0808088
0.0796322
0.0783196
0.077064
0.0757401
0.0743729
0.0729278
0.0713835
0.069695
0.067871
0.0657194
0.0635184
0.0605773
0.0579495
0.0846868
0.0830988
0.0813729
0.079906
0.0784634
0.0771158
0.0757296
0.0743132
0.0728248
0.0712379
0.0695142
0.0676405
0.0655002
0.0632376
0.0604694
0.057798
0.089055
0.0838772
0.0818191
0.0800455
0.0785381
0.0771616
0.0757738
0.0743623
0.0728821
0.071305
0.0695951
0.0677296
0.0656171
0.0633499
0.0606392
0.0579333
0.0800773
0.0800325
0.0794805
0.0789546
0.0781622
0.0773541
0.0764525
0.0755272
0.0745726
0.0736402
0.0725553
0.0717412
0.0699528
0.0690906
0.0640429
0.0585243
0.0801235
0.0800749
0.0794752
0.0789044
0.0780562
0.0771871
0.0762134
0.0752009
0.0741432
0.0730788
0.0718728
0.0708741
0.0690405
0.0681583
0.0637609
0.0618528
0.0803447
0.0802772
0.0795912
0.0789448
0.0780165
0.0770682
0.0760081
0.0748935
0.0737077
0.0724599
0.0710305
0.0696278
0.0674415
0.065778
0.0614519
0.0591174
0.0808045
0.080678
0.079847
0.0790847
0.0780539
0.0770172
0.0758736
0.0746731
0.0733949
0.0720362
0.0705152
0.0689544
0.0668156
0.06498
0.0613269
0.0589859
0.0815145
0.0812513
0.0802186
0.0792962
0.0781412
0.0770032
0.075772
0.0744869
0.0731199
0.0716553
0.0700303
0.0682938
0.0661032
0.0639876
0.0606685
0.058083
0.0828207
0.0821065
0.0807311
0.079571
0.0782805
0.0770493
0.0757515
0.074411
0.0729918
0.0714713
0.0698019
0.0679921
0.0658379
0.0636327
0.0606437
0.0579861
0.084593
0.0830055
0.0812937
0.0798431
0.0784222
0.077098
0.075737
0.0743459
0.0728818
0.0713169
0.0696104
0.0677484
0.0656064
0.0633368
0.0605315
0.0578295
0.0889615
0.083785
0.0817409
0.0799835
0.0784978
0.0771453
0.0757832
0.0743975
0.0729424
0.071388
0.0696965
0.0678435
0.0657312
0.0634569
0.0607124
0.0579739
0.0800259
0.0799801
0.0794402
0.0789285
0.0781568
0.0773731
0.0765
0.0756063
0.0746858
0.0737879
0.0727336
0.0719412
0.070142
0.0692318
0.0640121
0.0581808
0.0800688
0.0800195
0.0794313
0.078874
0.0780454
0.077199
0.0762514
0.0752676
0.0742402
0.0732065
0.0720269
0.0710497
0.0692069
0.068303
0.0637793
0.0617469
0.080287
0.0802189
0.0795439
0.0789105
0.0780005
0.0770733
0.076037
0.0749479
0.0737884
0.0725661
0.0711574
0.0697709
0.0675731
0.065896
0.0614697
0.0590736
0.0807443
0.0806175
0.0797971
0.0790472
0.0780339
0.0770168
0.0758951
0.0747177
0.0734628
0.0721264
0.070623
0.0690759
0.0669291
0.0650858
0.0613619
0.0589839
0.081452
0.0811887
0.0801662
0.0792557
0.0781173
0.0769979
0.0757869
0.0745228
0.0731764
0.0717309
0.0701208
0.0683947
0.066198
0.0640748
0.0607037
0.0580886
0.082757
0.0820429
0.0806776
0.0795292
0.0782548
0.0770415
0.0757631
0.0744424
0.0730426
0.0715397
0.0698839
0.068083
0.0659251
0.0637124
0.0606854
0.058001
0.0845281
0.0829409
0.081239
0.0798001
0.0783949
0.0770879
0.0757455
0.0743733
0.0729276
0.0713789
0.0696852
0.067831
0.0656868
0.0634097
0.0605753
0.0578479
0.0888969
0.0837212
0.081687
0.0799412
0.0784713
0.0771365
0.0757933
0.074427
0.0729907
0.0714534
0.0697754
0.0679312
0.0658183
0.063537
0.0607661
0.0580012
0.0799944
0.079948
0.0794158
0.0789133
0.0781552
0.0773876
0.0765332
0.0756604
0.0747624
0.0738874
0.0728546
0.0720796
0.0702835
0.0693594
0.064056
0.0580427
0.0800351
0.0799852
0.0794045
0.0788559
0.0780402
0.0772087
0.0762783
0.0753134
0.0743059
0.0732923
0.0721306
0.0711688
0.0693253
0.0684156
0.0638256
0.0617235
0.0802511
0.0801827
0.0795148
0.0788897
0.0779918
0.0770784
0.0760578
0.0749855
0.0738433
0.0726379
0.0712432
0.0698679
0.0676656
0.0659834
0.0615009
0.0590688
0.0807067
0.0805797
0.0797661
0.0790242
0.0780223
0.0770182
0.075911
0.0747488
0.0735093
0.0721874
0.0706957
0.0691575
0.0670067
0.0651592
0.0613933
0.0589918
0.0814129
0.0811495
0.0801336
0.0792308
0.0781031
0.0769959
0.0757983
0.0745481
0.0732154
0.0717825
0.0701822
0.0684628
0.0662625
0.0641344
0.060731
0.0580962
0.082717
0.0820029
0.0806441
0.0795034
0.0782395
0.0770379
0.0757724
0.0744648
0.0730779
0.0715865
0.0699397
0.0681445
0.0659841
0.0637661
0.0607146
0.0580117
0.0844873
0.0829003
0.0812047
0.0797734
0.0783784
0.0770828
0.0757527
0.0743931
0.0729595
0.0714217
0.0697363
0.0678871
0.0657414
0.0634588
0.0606052
0.0578603
0.0888564
0.0836812
0.0816532
0.079915
0.0784554
0.0771322
0.0758016
0.0744482
0.0730244
0.0714984
0.0698295
0.0679908
0.0658774
0.0635909
0.0608023
0.058019
0.0799794
0.0799326
0.0794042
0.0789062