/*--------------------------------*- C++ -*----------------------------------*\
| =========                 |                                                 |
| \\      /  F ield         | OpenFOAM: The Open Source CFD Toolbox           |
|  \\    /   O peration     | Version:  v1912                                 |
|   \\  /    A nd           | Website:  www.openfoam.com                      |
|    \\/     M anipulation  |                                                 |
\*---------------------------------------------------------------------------*/
FoamFile
{
    version     2.0;
    format      ascii;
    class       surfaceScalarField;
    location    "0.12/fluid";
    object      phi;
}
// * * * * * * * * * * * * * * * * * * * * * * * * * * * * * * * * * * * * * //

dimensions      [0 3 -1 0 0 0 0];
oriented        oriented;


internalField   nonuniform List<scalar> 
41600
(
5.47957e-05
7.8501e-06
-3.27501e-07
1.81713e-07
5.07038e-05
4.26862e-06
-7.18042e-07
5.41329e-07
4.84414e-05
2.40969e-06
-1.05848e-06
9.11164e-07
4.72279e-05
1.32176e-06
-1.45235e-06
1.34409e-06
4.64028e-05
8.93888e-07
-1.98688e-06
1.91812e-06
4.56989e-05
7.35673e-07
-2.68931e-06
2.65747e-06
4.49785e-05
7.15985e-07
-3.603e-06
3.60748e-06
4.41588e-05
7.73565e-07
-4.78942e-06
4.83549e-06
4.31699e-05
8.84032e-07
-6.33843e-06
6.44339e-06
4.19274e-05
1.03238e-06
-8.38037e-06
8.59047e-06
4.03041e-05
1.21512e-06
-1.11008e-05
1.1509e-05
3.80534e-05
1.38418e-06
-1.47784e-05
1.56449e-05
3.47257e-05
1.5798e-06
-1.9859e-05
2.16069e-05
2.91486e-05
1.5351e-06
-2.68206e-05
3.08625e-05
1.92288e-05
1.56574e-06
-3.67547e-05
4.51087e-05
1.54131e-07
-3.88733e-05
5.7948e-05
6.48076e-05
5.71038e-06
-5.0516e-07
3.37255e-07
6.47705e-05
4.5121e-06
-1.03686e-06
8.30463e-07
6.42022e-05
3.15165e-06
-1.48256e-06
1.30891e-06
6.34716e-05
2.17987e-06
-1.98895e-06
1.86152e-06
6.27179e-05
1.72747e-06
-2.6724e-06
2.59245e-06
6.19217e-05
1.56721e-06
-3.57482e-06
3.53957e-06
6.10291e-05
1.5999e-06
-4.75323e-06
4.7619e-06
5.99753e-05
1.76883e-06
-6.28804e-06
6.34653e-06
5.86833e-05
2.04795e-06
-8.29637e-06
8.42445e-06
5.70429e-05
2.42172e-06
-1.09483e-05
1.11994e-05
5.48918e-05
2.883e-06
-1.44863e-05
1.49695e-05
5.1866e-05
3.38866e-06
-1.92756e-05
2.0297e-05
4.74267e-05
3.94837e-06
-2.5886e-05
2.79567e-05
3.97989e-05
4.33672e-06
-3.49643e-05
3.97905e-05
2.66476e-05
4.66374e-06
-4.77296e-05
5.77828e-05
3.24089e-06
-5.04539e-05
7.40147e-05
6.44747e-05
3.90528e-06
-5.05608e-07
3.35995e-07
6.51029e-05
4.09277e-06
-1.03909e-06
8.30189e-07
6.50965e-05
3.33394e-06
-1.48466e-06
1.30877e-06
6.47423e-05
2.6633e-06
-1.98977e-06
1.86053e-06
6.4226e-05
2.32523e-06
-2.67089e-06
2.58951e-06
6.35812e-05
2.24829e-06
-3.56947e-06
3.53311e-06
6.27921e-05
2.38122e-06
-4.74182e-06
4.74962e-06
6.18142e-05
2.689e-06
-6.26775e-06
6.32556e-06
6.05781e-05
3.15626e-06
-8.26392e-06
8.39164e-06
5.89716e-05
3.77648e-06
-1.0901e-05
1.11527e-05
5.68196e-05
4.54884e-06
-1.44224e-05
1.49086e-05
5.37314e-05
5.44465e-06
-1.92022e-05
2.02344e-05
4.91236e-05
6.45774e-06
-2.58116e-05
2.791e-05
4.1154e-05
7.3968e-06
-3.49448e-05
3.98544e-05
2.73903e-05
8.19153e-06
-4.78054e-05
5.80413e-05
6.56828e-06
-5.06928e-05
7.47557e-05
6.36501e-05
2.9251e-06
-4.76415e-07
3.06519e-07
6.43738e-05
3.57856e-06
-9.92048e-07
7.82534e-07
6.46432e-05
3.24115e-06
-1.42491e-06
1.24834e-06
6.45676e-05
2.86892e-06
-1.91516e-06
1.78508e-06
6.42704e-05
2.70493e-06
-2.57465e-06
2.49217e-06
6.37961e-05
2.76044e-06
-3.44218e-06
3.40435e-06
6.31476e-05
3.02386e-06
-4.57099e-06
4.5768e-06
6.22952e-05
3.4863e-06
-6.03697e-06
6.09206e-06
6.11771e-05
4.15055e-06
-7.95173e-06
8.07562e-06
5.96797e-05
5.02765e-06
-1.04801e-05
1.07264e-05
5.76164e-05
6.13409e-06
-1.38574e-05
1.43355e-05
5.4571e-05
7.46979e-06
-1.8457e-05
1.94772e-05
4.99158e-05
9.03352e-06
-2.48312e-05
2.69106e-05
4.17614e-05
1.0666e-05
-3.37272e-05
3.86124e-05
2.76056e-05
1.21617e-05
-4.62938e-05
5.64794e-05
1.02036e-05
-4.93874e-05
7.33577e-05
6.32848e-05
2.31052e-06
-4.34361e-07
2.64125e-07
6.39717e-05
3.1019e-06
-9.23977e-07
7.13772e-07
6.43482e-05
3.04207e-06
-1.33902e-06
1.16157e-06
6.44428e-05
2.90556e-06
-1.80835e-06
1.6771e-06
6.43197e-05
2.9121e-06
-2.43703e-06
2.35299e-06
6.40118e-05
3.10832e-06
-3.26017e-06
3.22019e-06
6.35245e-05
3.50834e-06
-4.32635e-06
4.32912e-06
6.28351e-05
4.12513e-06
-5.70539e-06
5.756e-06
6.18874e-05
4.98129e-06
-7.50051e-06
7.61748e-06
6.05691e-05
6.11119e-06
-9.86622e-06
1.0101e-05
5.86865e-05
7.55872e-06
-1.3022e-05
1.34799e-05
5.57967e-05
9.37701e-06
-1.73332e-05
1.83158e-05
5.12187e-05
1.16037e-05
-2.33128e-05
2.53206e-05
4.2932e-05
1.42033e-05
-3.17745e-05
3.65239e-05
2.82759e-05
1.69132e-05
-4.37576e-05
5.36623e-05
1.49993e-05
-4.71116e-05
7.05917e-05
6.31198e-05
1.86147e-06
-3.84599e-07
2.13893e-07
6.37775e-05
2.65518e-06
-8.43119e-07
6.32046e-07
6.42259e-05
2.77227e-06
-1.23707e-06
1.05849e-06
6.44506e-05
2.81356e-06
-1.68147e-06
1.54877e-06
6.44786e-05
2.97007e-06
-2.27324e-06
2.18724e-06
6.43325e-05
3.29714e-06
-3.04284e-06
3.00015e-06
6.40183e-05
3.82371e-06
-4.03297e-06
4.03181e-06
6.35188e-05
4.58007e-06
-5.3054e-06
5.35002e-06
6.27836e-05
5.60924e-06
-6.9522e-06
7.05943e-06
6.17013e-05
6.97573e-06
-9.1135e-06
9.33121e-06
6.0069e-05
8.7638e-06
-1.19873e-05
1.24145e-05
5.74045e-05
1.11181e-05
-1.59266e-05
1.685e-05
5.29598e-05
1.4152e-05
-2.13912e-05
2.32876e-05
4.4524e-05
1.81004e-05
-2.92837e-05
3.38225e-05
2.92615e-05
2.26898e-05
-4.04816e-05
4.99674e-05
2.14688e-05
-4.42334e-05
6.70253e-05
6.30656e-05
1.46719e-06
-3.28537e-07
1.57234e-07
6.3729e-05
2.20394e-06
-7.52047e-07
5.39921e-07
6.42446e-05
2.43655e-06
-1.12225e-06
9.42307e-07
6.45804e-05
2.61218e-06
-1.53845e-06
1.40401e-06
6.47463e-05
2.89251e-06
-2.08822e-06
1.9999e-06
6.47606e-05
3.32882e-06
-2.79656e-06
2.7506e-06
6.46337e-05
3.95667e-06
-3.69877e-06
3.69273e-06
6.43601e-05
4.81696e-06
-4.84603e-06
4.88275e-06
6.39089e-05
5.96706e-06
-6.31431e-06
6.40767e-06
6.31976e-05
7.49614e-06
-8.21985e-06
8.4107e-06
6.20658e-05
9.52274e-06
-1.07207e-05
1.10936e-05
6.0072e-05
1.23071e-05
-1.41224e-05
1.49272e-05
5.64948e-05
1.60864e-05
-1.87645e-05
2.04073e-05
4.88023e-05
2.18089e-05
-2.55668e-05
2.95508e-05
3.35077e-05
2.96992e-05
-3.50588e-05
4.3344e-05
3.42007e-05
-3.89219e-05
5.96978e-05
6.30702e-05
-2.68767e-07
9.67659e-08
1.069e-06
6.37744e-05
-6.54973e-07
4.41657e-07
1.71301e-06
6.43664e-05
-9.99889e-07
8.18415e-07
2.02606e-06
6.48068e-05
-1.38601e-06
1.24964e-06
2.30816e-06
6.51012e-05
-1.89088e-06
1.8e-06
2.68901e-06
6.52697e-05
-2.53363e-06
2.48406e-06
3.20991e-06
6.53295e-05
-3.3416e-06
3.33013e-06
3.90834e-06
6.52864e-05
-4.35459e-06
4.3825e-06
4.83207e-06
6.51253e-05
-5.63188e-06
5.70983e-06
6.05026e-06
6.47832e-05
-7.26548e-06
7.42688e-06
7.67688e-06
6.41208e-05
-9.37636e-06
9.69214e-06
9.86933e-06
6.27129e-05
-1.2227e-05
1.29105e-05
1.30314e-05
5.98605e-05
-1.60541e-05
1.74557e-05
1.75373e-05
5.28678e-05
-2.18084e-05
2.5276e-05
2.5334e-05
3.8346e-05
-2.97084e-05
3.69374e-05
3.69921e-05
-3.42046e-05
5.33443e-05
5.34067e-05
5.47197e-05
7.85856e-06
-4.05791e-07
5.0517e-05
4.28476e-06
-8.00025e-07
4.81385e-05
2.42835e-06
-1.10841e-06
4.68019e-05
1.34444e-06
-1.46012e-06
4.58357e-05
9.22997e-07
-1.94372e-06
4.49591e-05
7.74065e-07
-2.58682e-06
4.40177e-05
7.67401e-07
-3.42893e-06
4.29091e-05
8.42944e-07
-4.5238e-06
4.15404e-05
9.78184e-07
-5.94786e-06
3.98038e-05
1.16078e-06
-7.80465e-06
3.75489e-05
1.39236e-06
-1.02382e-05
3.45419e-05
1.63144e-06
-1.34029e-05
3.03308e-05
1.93589e-06
-1.75837e-05
2.40618e-05
2.06272e-06
-2.26143e-05
1.38299e-05
2.33674e-06
-2.88595e-05
1.28063e-06
-2.6324e-05
6.47117e-05
5.73129e-06
-5.89563e-07
6.45361e-05
4.54711e-06
-1.12362e-06
6.38181e-05
3.19455e-06
-1.53073e-06
6.29264e-05
2.2326e-06
-1.98541e-06
6.19876e-05
1.79511e-06
-2.60576e-06
6.09644e-05
1.6563e-06
-3.43382e-06
5.97813e-05
1.71903e-06
-4.52175e-06
5.83471e-05
1.92915e-06
-5.94005e-06
5.6553e-05
2.26419e-06
-7.78834e-06
5.42546e-05
2.71283e-06
-1.02019e-05
5.12534e-05
3.27465e-06
-1.33674e-05
4.7191e-05
3.90982e-06
-1.74916e-05
4.15238e-05
4.64604e-06
-2.29289e-05
3.29009e-05
5.24034e-06
-2.9519e-05
1.92638e-05
5.82458e-06
-3.75803e-05
4.37974e-06
-3.42891e-05
6.43795e-05
3.93731e-06
-5.91118e-07
6.48695e-05
4.14542e-06
-1.12741e-06
6.47141e-05
3.39955e-06
-1.53428e-06
6.42001e-05
2.74436e-06
-1.98751e-06
6.35004e-05
2.4294e-06
-2.60544e-06
6.26311e-05
2.38578e-06
-3.42973e-06
6.15547e-05
2.56551e-06
-4.51187e-06
6.02001e-05
2.93783e-06
-5.92183e-06
5.84662e-05
3.49299e-06
-7.75883e-06
5.62055e-05
4.23108e-06
-1.01585e-05
5.32052e-05
5.16092e-06
-1.33084e-05
4.9078e-05
6.256e-06
-1.74212e-05
4.32317e-05
7.53247e-06
-2.28518e-05
3.42473e-05
8.74634e-06
-2.94663e-05
1.99656e-05
9.86631e-06
-3.75655e-05
7.94763e-06
-3.4295e-05
6.35574e-05
2.96696e-06
-5.63466e-07
6.41468e-05
3.64695e-06
-1.08295e-06
6.42723e-05
3.32688e-06
-1.47775e-06
6.40432e-05
2.9752e-06
-1.91695e-06
6.35707e-05
2.84183e-06
-2.51449e-06
6.28822e-05
2.94161e-06
-3.30956e-06
6.196e-05
3.26756e-06
-4.35085e-06
6.07488e-05
3.8169e-06
-5.70477e-06
5.91554e-05
4.6007e-06
-7.46604e-06
5.70316e-05
5.64001e-06
-9.76533e-06
5.41527e-05
6.966e-06
-1.27835e-05
5.01022e-05
8.58339e-06
-1.67339e-05
4.4237e-05
1.05242e-05
-2.19576e-05
3.50753e-05
1.25491e-05
-2.83682e-05
2.03605e-05
1.45213e-05
-3.6234e-05
1.20836e-05
-3.31627e-05
6.31957e-05
2.36047e-06
-5.23566e-07
6.37538e-05
3.18337e-06
-1.01846e-06
6.39935e-05
3.14447e-06
-1.39641e-06
6.39435e-05
3.03279e-06
-1.81587e-06
6.36564e-05
3.07633e-06
-2.38442e-06
6.31493e-05
3.32628e-06
-3.13777e-06
6.24082e-05
3.80269e-06
-4.12036e-06
6.13862e-05
4.5266e-06
-5.39313e-06
5.9998e-05
5.53186e-06
-7.04346e-06
5.80978e-05
6.86723e-06
-9.19326e-06
5.54544e-05
8.59812e-06
-1.20107e-05
5.16202e-05
1.07898e-05
-1.57054e-05
4.58894e-05
1.35319e-05
-2.05897e-05
3.66148e-05
1.6695e-05
-2.66458e-05
2.13214e-05
2.0135e-05
-3.40779e-05
1.75965e-05
-3.13031e-05
6.30347e-05
1.91751e-06
-4.76385e-07
6.35704e-05
2.74643e-06
-9.41862e-07
6.38906e-05
2.88711e-06
-1.2999e-06
6.39813e-05
2.95647e-06
-1.69587e-06
6.38592e-05
3.15488e-06
-2.22966e-06
6.35324e-05
3.54304e-06
-2.93275e-06
6.29891e-05
4.15711e-06
-3.84415e-06
6.21905e-05
5.0374e-06
-5.01759e-06
6.10593e-05
6.24153e-06
-6.53062e-06
5.9452e-05
7.854e-06
-8.49304e-06
5.71286e-05
9.98951e-06
-1.10553e-05
5.35939e-05
1.28185e-05
-1.44206e-05
4.80653e-05
1.65307e-05
-1.88614e-05
3.86617e-05
2.12686e-05
-2.44537e-05
2.26666e-05
2.69501e-05
-3.13016e-05
2.49778e-05
-2.8948e-05
6.29853e-05
1.52697e-06
-4.23272e-07
6.35341e-05
2.30115e-06
-8.55636e-07
6.39313e-05
2.55898e-06
-1.19125e-06
6.41454e-05
2.7646e-06
-1.56066e-06
6.41772e-05
3.08979e-06
-2.05496e-06
6.40326e-05
3.59166e-06
-2.7006e-06
6.37072e-05
4.31372e-06
-3.52993e-06
6.31776e-05
5.30825e-06
-4.58727e-06
6.23918e-05
6.6493e-06
-5.93634e-06
6.12432e-05
8.4503e-06
-7.66753e-06
5.9545e-05
1.08669e-05
-9.89982e-06
5.68461e-05
1.42025e-05
-1.28075e-05
5.23938e-05
1.87972e-05
-1.65787e-05
4.38885e-05
2.55686e-05
-2.13616e-05
2.77888e-05
3.5053e-05
-2.70619e-05
3.89243e-05
-2.50797e-05
6.29949e-05
-3.66686e-07
1.12998e-06
6.35928e-05
-7.63767e-07
1.81209e-06
6.40766e-05
-1.07552e-06
2.15082e-06
6.44083e-05
-1.4166e-06
2.46347e-06
6.45859e-05
-1.8687e-06
2.89e-06
6.4619e-05
-2.45285e-06
3.47776e-06
6.45127e-05
-3.19417e-06
4.27258e-06
6.42589e-05
-4.1269e-06
5.3344e-06
6.38257e-05
-5.30014e-06
6.75078e-06
6.31306e-05
-6.78427e-06
8.6642e-06
6.20135e-05
-8.66784e-06
1.12754e-05
6.00339e-05
-1.10994e-05
1.50544e-05
5.64703e-05
-1.41909e-05
2.04977e-05
4.87918e-05
-1.8183e-05
2.96216e-05
3.35074e-05
-2.27895e-05
4.34186e-05
-2.15605e-05
5.97876e-05
5.46544e-05
7.8666e-06
-4.26791e-07
5.03533e-05
4.29995e-06
-7.98865e-07
4.78683e-05
2.44601e-06
-1.0694e-06
4.64158e-05
1.3659e-06
-1.3735e-06
4.53158e-05
9.50481e-07
-1.79428e-06
4.42757e-05
8.10205e-07
-2.35686e-06
4.31253e-05
8.15551e-07
-3.09413e-06
4.17424e-05
9.07312e-07
-4.04819e-06
4.00061e-05
1.064e-06
-5.27558e-06
3.77726e-05
1.27427e-06
-6.84539e-06
3.48424e-05
1.54033e-06
-8.84839e-06
3.09587e-05
1.82024e-06
-1.13394e-05
2.56836e-05
2.16923e-06
-1.44778e-05
1.86429e-05
2.34379e-06
-1.79174e-05
8.97366e-06
2.62995e-06
-2.18202e-05
1.5743e-06
-1.89245e-05
6.46285e-05
5.75115e-06
-6.02603e-07
6.43295e-05
4.58025e-06
-1.10493e-06
6.34738e-05
3.23519e-06
-1.46417e-06
6.24307e-05
2.28252e-06
-1.85898e-06
6.13166e-05
1.85906e-06
-2.40022e-06
6.00788e-05
1.74039e-06
-3.12618e-06
5.8622e-05
1.83119e-06
-4.0806e-06
5.68289e-05
2.07958e-06
-5.31924e-06
5.45554e-05
2.4659e-06
-6.91669e-06
5.16108e-05
2.98189e-06
-8.96497e-06
4.77364e-05
3.63087e-06
-1.15835e-05
4.2547e-05
4.37247e-06
-1.48545e-05
3.55192e-05
5.24013e-06
-1.89719e-05
2.59202e-05
5.96517e-06
-2.35414e-05
1.29383e-05
6.67642e-06
-2.86449e-05
5.09812e-06
-2.48745e-05
6.42971e-05
3.96771e-06
-6.04741e-07
6.4664e-05
4.19532e-06
-1.10946e-06
6.43717e-05
3.4617e-06
-1.46843e-06
6.37074e-05
2.8211e-06
-1.86182e-06
6.28339e-05
2.52789e-06
-2.40079e-06
6.17523e-05
2.51558e-06
-3.12328e-06
6.04049e-05
2.7392e-06
-4.07251e-06
5.86946e-05
3.17182e-06
-5.30374e-06
5.64841e-05
3.80872e-06
-6.89118e-06
5.35788e-05
4.65571e-06
-8.92697e-06
4.97028e-05
5.72955e-06
-1.1531e-05
4.44387e-05
7.00467e-06
-1.47893e-05
3.72092e-05
8.51361e-06
-1.88957e-05
2.7217e-05
9.96294e-06
-2.34719e-05
1.35621e-05
1.13514e-05
-2.85857e-05
9.18265e-06
-2.48172e-05
6.34774e-05
3.00666e-06
-5.79787e-07
6.39474e-05
3.71175e-06
-1.06939e-06
6.39407e-05
3.40806e-06
-1.41747e-06
6.35674e-05
3.07577e-06
-1.79825e-06
6.29285e-05
2.9712e-06
-2.31896e-06
6.20374e-05
3.11259e-06
-3.0154e-06
6.08568e-05
3.4972e-06
-3.92832e-06
5.9306e-05
4.12787e-06
-5.11003e-06
5.72565e-05
5.02329e-06
-6.6311e-06
5.45129e-05
6.21383e-06
-8.57979e-06
5.07857e-05
7.74438e-06
-1.10712e-05
4.56241e-05
9.62488e-06
-1.41926e-05
3.83905e-05
1.19185e-05
-1.81289e-05
2.821e-05
1.43162e-05
-2.2541e-05
1.40595e-05
1.67461e-05
-2.74782e-05
1.39685e-05
-2.38889e-05
6.3119e-05
2.40782e-06
-5.43723e-07
6.35629e-05
3.26053e-06
-1.01115e-06
6.36773e-05
3.2414e-06
-1.34408e-06
6.34912e-05
3.15311e-06
-1.70716e-06
6.30485e-05
3.23147e-06
-2.20195e-06
6.23526e-05
3.5319e-06
-2.8612e-06
6.13716e-05
4.07995e-06
-3.72209e-06
6.00345e-05
4.90415e-06
-4.83238e-06
5.82223e-05
6.0489e-06
-6.25679e-06
5.57431e-05
7.57675e-06
-8.07704e-06
5.23015e-05
9.5745e-06
-1.03992e-05
4.74101e-05
1.21212e-05
-1.33103e-05
4.0356e-05
1.53597e-05
-1.69768e-05
3.00648e-05
1.90808e-05
-2.11193e-05
1.52252e-05
2.3257e-05
-2.57491e-05
2.03241e-05
-2.24334e-05
6.29619e-05
1.97059e-06
-5.01099e-07
6.33898e-05
2.8328e-06
-9.42e-07
6.35926e-05
2.99576e-06
-1.25701e-06
6.35573e-05
3.09155e-06
-1.59905e-06
6.32925e-05
3.32937e-06
-2.06279e-06
6.27941e-05
3.77491e-06
-2.67733e-06
6.20342e-05
4.47097e-06
-3.47524e-06
6.09519e-05
5.46726e-06
-4.4984e-06
5.94387e-05
6.83519e-06
-5.80375e-06
5.73078e-05
8.67868e-06
-7.46399e-06
5.42557e-05
1.11438e-05
-9.57259e-06
4.97416e-05
1.44299e-05
-1.22153e-05
4.29608e-05
1.88109e-05
-1.55317e-05
3.25549e-05
2.43571e-05
-1.9324e-05
1.68668e-05
3.11845e-05
-2.3541e-05
2.88401e-05
-2.05971e-05
6.29169e-05
1.58356e-06
-4.53138e-07
6.33651e-05
2.39314e-06
-8.64175e-07
6.36539e-05
2.67475e-06
-1.15905e-06
6.37535e-05
2.90863e-06
-1.47732e-06
6.36577e-05
3.276e-06
-1.90582e-06
6.3362e-05
3.83942e-06
-2.46935e-06
6.28481e-05
4.64978e-06
-3.19493e-06
6.2075e-05
5.77002e-06
-4.11686e-06
6.0965e-05
7.2903e-06
-5.28145e-06
5.93756e-05
9.34799e-06
-6.74749e-06
5.70678e-05
1.21387e-05
-8.58688e-06
5.35481e-05
1.60134e-05
-1.08713e-05
4.8034e-05
2.14327e-05
-1.36865e-05
3.86467e-05
2.92973e-05
-1.69145e-05
2.26622e-05
4.0493e-05
-2.03859e-05
4.42567e-05
-1.7834e-05
6.29313e-05
-4.02064e-07
1.18768e-06
6.34361e-05
-7.81284e-07
1.9058e-06
6.38213e-05
-1.05473e-06
2.26876e-06
6.40508e-05
-1.34765e-06
2.61017e-06
6.4117e-05
-1.73851e-06
3.07964e-06
6.40209e-05
-2.24749e-06
3.73014e-06
6.37568e-05
-2.89557e-06
4.61523e-06
6.33026e-05
-3.70891e-06
5.80625e-06
6.26068e-05
-4.72251e-06
7.4085e-06
6.15587e-05
-5.98073e-06
9.59254e-06
5.99568e-05
-7.53398e-06
1.26067e-05
5.73215e-05
-9.44188e-06
1.69912e-05
5.29049e-05
-1.17386e-05
2.3397e-05
4.44994e-05
-1.44006e-05
3.39204e-05
2.9258e-05
-1.71386e-05
5.00834e-05
-1.52168e-05
6.7171e-05
5.45992e-05
7.87386e-06
-3.99837e-07
5.02135e-05
4.3136e-06
-7.26811e-07
4.76351e-05
2.46193e-06
-9.52868e-07
4.608e-05
1.38525e-06
-1.20372e-06
4.48622e-05
9.75233e-07
-1.55171e-06
4.36806e-05
8.42735e-07
-2.01795e-06
4.23557e-05
8.58903e-07
-2.6282e-06
4.07558e-05
9.65405e-07
-3.41366e-06
3.87524e-05
1.14195e-06
-4.41409e-06
3.62014e-05
1.3789e-06
-5.67336e-06
3.29178e-05
1.68048e-06
-7.24521e-06
2.87025e-05
2.00874e-06
-9.13291e-06
2.32173e-05
2.42127e-06
-1.14139e-05
1.63312e-05
2.68659e-06
-1.3718e-05
7.53427e-06
3.06696e-06
-1.60902e-05
2.064e-06
-1.34541e-05
6.45578e-05
5.76909e-06
-5.55612e-07
6.41523e-05
4.61016e-06
-9.96024e-07
6.31757e-05
3.27186e-06
-1.29745e-06
6.19986e-05
2.32752e-06
-1.62417e-06
6.07297e-05
1.91662e-06
-2.07276e-06
5.93058e-05
1.81594e-06
-2.67547e-06
5.76191e-05
1.93176e-06
-3.46677e-06
5.55394e-05
2.21414e-06
-4.48824e-06
5.29114e-05
2.64592e-06
-5.79268e-06
4.95429e-05
3.22167e-06
-7.43922e-06
4.51905e-05
3.94812e-06
-9.49874e-06
3.95434e-05
4.78621e-06
-1.19848e-05
3.22037e-05
5.77493e-06
-1.49859e-05
2.27824e-05
6.63137e-06
-1.8065e-05
1.09061e-05
7.48038e-06
-2.1182e-05
5.8236e-06
-1.77278e-05
6.4227e-05
3.99518e-06
-5.57876e-07
6.44879e-05
4.24037e-06
-1.00056e-06
6.40753e-05
3.51778e-06
-1.30177e-06
6.3278e-05
2.89025e-06
-1.62723e-06
6.22512e-05
2.61649e-06
-2.07385e-06
6.09854e-05
2.63209e-06
-2.67363e-06
5.94106e-05
2.89463e-06
-3.46061e-06
5.74167e-05
3.38037e-06
-4.47599e-06
5.48551e-05
4.08858e-06
-5.77227e-06
5.1529e-05
5.02944e-06
-7.40863e-06
4.71772e-05
6.2252e-06
-9.45635e-06
4.14558e-05
7.6497e-06
-1.19314e-05
3.39114e-05
9.34546e-06
-1.49219e-05
2.40917e-05
1.09794e-05
-1.80001e-05
1.15361e-05
1.25657e-05
-2.11154e-05
1.01993e-05
-1.76567e-05
6.34095e-05
3.04254e-06
-5.36641e-07
6.37767e-05
3.77026e-06
-9.66483e-07
6.36541e-05
3.4813e-06
-1.25844e-06
6.3153e-05
3.16636e-06
-1.57322e-06
6.23675e-05
3.08753e-06
-2.00445e-06
6.13006e-05
3.2659e-06
-2.58233e-06
5.99035e-05
3.70234e-06
-3.33896e-06
5.80828e-05
4.4042e-06
-4.31321e-06
5.56992e-05
5.39598e-06
-5.55483e-06
5.25546e-05
6.71448e-06
-7.12021e-06
4.83728e-05
8.41322e-06
-9.07747e-06
4.27728e-05
1.05015e-05
-1.14443e-05
3.52336e-05
1.30593e-05
-1.43037e-05
2.52149e-05
1.57152e-05
-1.72581e-05
1.21162e-05
1.84329e-05
-2.02467e-05
1.53633e-05
-1.69365e-05
6.30541e-05
2.45059e-06
-5.05899e-07
6.33999e-05
3.33017e-06
-9.16871e-07
6.34043e-05
3.3288e-06
-1.19597e-06
6.30979e-05
3.26145e-06
-1.49581e-06
6.25178e-05
3.37087e-06
-1.9052e-06
6.16583e-05
3.71608e-06
-2.45189e-06
6.04764e-05
4.32721e-06
-3.16509e-06
5.88897e-05
5.23868e-06
-4.08016e-06
5.67687e-05
6.50269e-06
-5.24249e-06
5.39191e-05
8.19084e-06
-6.70382e-06
5.00569e-05
1.04026e-05
-8.52637e-06
4.4759e-05
1.32184e-05
-1.07293e-05
3.74179e-05
1.68082e-05
-1.33846e-05
2.72745e-05
2.08816e-05
-1.61423e-05
1.34044e-05
2.54734e-05
-1.89195e-05
2.21704e-05
-1.5836e-05
6.29006e-05
2.01852e-06
-4.69579e-07
6.3236e-05
2.91074e-06
-8.57972e-07
6.33359e-05
3.0937e-06
-1.12189e-06
6.31892e-05
3.21312e-06
-1.40395e-06
6.27984e-05
3.48605e-06
-1.78722e-06
6.21512e-05
3.98239e-06
-2.29643e-06
6.121e-05
4.75038e-06
-2.95718e-06
5.99035e-05
5.84698e-06
-3.80025e-06
5.81141e-05
7.35353e-06
-4.8652e-06
5.56523e-05
9.38613e-06
-6.19743e-06
5.22241e-05
1.21088e-05
-7.85065e-06
4.73453e-05
1.57272e-05
-9.84521e-06
4.03025e-05
2.05558e-05
-1.22365e-05
3.00284e-05
2.65709e-05
-1.47393e-05
1.52032e-05
3.39902e-05
-1.72326e-05
3.12258e-05
-1.44492e-05
6.28595e-05
1.63462e-06
-4.28724e-07
6.32216e-05
2.4761e-06
-7.91701e-07
6.34158e-05
2.77907e-06
-1.03856e-06
6.34139e-05
3.03822e-06
-1.30057e-06
6.32053e-05
3.44312e-06
-1.65422e-06
6.27781e-05
4.06095e-06
-2.12077e-06
6.21065e-05
4.94858e-06
-2.72145e-06
6.11408e-05
6.17705e-06
-3.48128e-06
5.97971e-05
7.84781e-06
-4.43206e-06
5.79327e-05
1.01127e-05
-5.60965e-06
5.53193e-05
1.3189e-05
-7.05369e-06
5.15138e-05
1.74405e-05
-8.779e-06
4.58104e-05
2.33812e-05
-1.08084e-05
3.65707e-05
3.18236e-05
-1.29276e-05
2.13011e-05
4.38192e-05
-1.49454e-05
4.7193e-05
-1.25001e-05
6.28781e-05
-3.8523e-07
1.23973e-06
6.33037e-05
-7.21134e-07
1.99029e-06
6.36029e-05
-9.49835e-07
2.37501e-06
6.37418e-05
-1.19048e-06
2.74213e-06
6.37091e-05
-1.5125e-06
3.24979e-06
6.35004e-05
-1.93346e-06
3.95568e-06
6.31036e-05
-2.46981e-06
4.91958e-06
6.24908e-05
-3.14037e-06
6.22138e-06
6.16061e-05
-3.9686e-06
7.97855e-06
6.03403e-05
-4.98032e-06
1.03781e-05
5.85028e-05
-6.20072e-06
1.36932e-05
5.56562e-05
-7.64033e-06
1.84856e-05
5.11193e-05
-9.28986e-06
2.54694e-05
4.28818e-05
-1.10174e-05
3.66779e-05
2.82595e-05
-1.25609e-05
5.38639e-05
-1.06146e-05
7.08502e-05
5.45543e-05
7.88004e-06
-3.34151e-07
5.00992e-05
4.3252e-06
-5.96897e-07
4.74431e-05
2.47546e-06
-7.72276e-07
4.58026e-05
1.40169e-06
-9.64895e-07
4.44869e-05
9.96218e-07
-1.23221e-06
4.31891e-05
8.70244e-07
-1.59042e-06
4.17236e-05
8.9542e-07
-2.05815e-06
3.99526e-05
1.01405e-06
-2.65664e-06
3.77434e-05
1.20657e-06
-3.41146e-06
3.49533e-05
1.46429e-06
-4.34755e-06
3.14088e-05
1.79177e-06
-5.49253e-06
2.69511e-05
2.15235e-06
-6.82751e-06
2.13222e-05
2.60088e-06
-8.38589e-06
1.45672e-05
2.91017e-06
-9.87315e-06
6.46111e-06
3.31879e-06
-1.13029e-05
2.3081e-06
-9.30099e-06
6.45e-05
5.78437e-06
-4.59971e-07
6.40069e-05
4.63562e-06
-8.13275e-07
6.29297e-05
3.30306e-06
-1.04785e-06
6.16407e-05
2.36577e-06
-1.2993e-06
6.02432e-05
1.96545e-06
-1.64449e-06
5.86664e-05
1.87987e-06
-2.10824e-06
5.6794e-05
2.01657e-06
-2.71561e-06
5.44879e-05
2.32713e-06
-3.49519e-06
5.15869e-05
2.79614e-06
-4.48126e-06
4.79001e-05
3.42004e-06
-5.70817e-06
4.31988e-05
4.20733e-06
-7.21291e-06
3.72261e-05
5.11863e-06
-8.97846e-06
2.96859e-05
6.19396e-06
-1.10388e-05
2.04359e-05
7.13714e-06
-1.30418e-05
9.44148e-06
8.06533e-06
-1.49342e-05
6.32176e-06
-1.22999e-05
6.41699e-05
4.0186e-06
-4.61972e-07
6.43434e-05
4.27874e-06
-8.17207e-07
6.38308e-05
3.5655e-06
-1.05166e-06
6.29225e-05
2.94902e-06
-1.30209e-06
6.17682e-05
2.69163e-06
-1.64574e-06
6.0351e-05
2.73064e-06
-2.10722e-06
5.85926e-05
3.02565e-06
-2.71129e-06
5.63746e-05
3.5554e-06
-3.48624e-06
5.35424e-05
4.32214e-06
-4.46615e-06
4.99001e-05
5.33911e-06
-5.68535e-06
4.52001e-05
6.63206e-06
-7.18112e-06
3.91518e-05
8.17344e-06
-8.93786e-06
3.14021e-05
1.00111e-05
-1.09893e-05
2.17476e-05
1.17808e-05
-1.29893e-05
1.00699e-05
1.35044e-05
-1.48768e-05
1.09748e-05
-1.22396e-05
6.33542e-05
3.07311e-06
-4.45309e-07
6.36368e-05
3.82008e-06
-7.90453e-07
6.34179e-05
3.54361e-06
-1.01764e-06
6.28101e-05
3.24332e-06
-1.25973e-06
6.19025e-05
3.18614e-06
-1.5914e-06
6.06912e-05
3.39551e-06
-2.03589e-06
5.91193e-05
3.87513e-06
-2.61652e-06
5.70856e-05
4.63585e-06
-3.35991e-06
5.44445e-05
5.70655e-06
-4.29819e-06
5.09986e-05
7.12867e-06
-5.46385e-06
4.64838e-05
8.96166e-06
-6.89224e-06
4.05689e-05
1.12134e-05
-8.56944e-06
3.2828e-05
1.39749e-05
-1.05266e-05
2.29623e-05
1.68272e-05
-1.24389e-05
1.07045e-05
1.9756e-05
-1.42405e-05
1.64593e-05
-1.17163e-05
6.30013e-05
2.48703e-06
-4.21123e-07
6.32665e-05
3.38947e-06
-7.51447e-07
6.31796e-05
3.40314e-06
-9.68588e-07
6.27726e-05
3.35346e-06
-1.19901e-06
6.20783e-05
3.48898e-06
-1.51371e-06
6.10843e-05
3.87167e-06
-1.93404e-06
5.97403e-05
4.53524e-06
-2.4812e-06
5.79565e-05
5.51871e-06
-3.17928e-06
5.55979e-05
6.88012e-06
-4.05741e-06
5.24701e-05
8.69765e-06
-5.14505e-06
4.82996e-05
1.10798e-05
-6.47399e-06
4.27089e-05
1.41072e-05
-8.03231e-06
3.51759e-05
1.79685e-05
-9.84515e-06
2.51707e-05
2.23122e-05
-1.16221e-05
1.20782e-05
2.72139e-05
-1.32848e-05
2.36334e-05
-1.09319e-05
6.28507e-05
2.05934e-06
-3.92567e-07
6.31102e-05
2.97708e-06
-7.0515e-07
6.31249e-05
3.17699e-06
-9.10403e-07
6.28851e-05
3.31633e-06
-1.12698e-06
6.23895e-05
3.61874e-06
-1.42138e-06
6.16199e-05
4.15752e-06
-1.81271e-06
6.05323e-05
4.98519e-06
-2.3195e-06
5.9049e-05
6.1643e-06
-2.9626e-06
5.70474e-05
7.78361e-06
-3.7671e-06
5.43378e-05
9.96812e-06
-4.75829e-06
5.0635e-05
1.28947e-05
-5.96275e-06
4.54945e-05
1.67731e-05
-7.37064e-06
3.82772e-05
2.19468e-05
-8.99742e-06
2.81266e-05
2.83226e-05
-1.0599e-05
1.39958e-05
3.61867e-05
-1.20746e-05
3.31238e-05
-9.94367e-06
6.2813e-05
1.67811e-06
-3.60449e-07
6.31047e-05
2.54672e-06
-6.53066e-07
6.32203e-05
2.86777e-06
-8.44977e-07
6.31338e-05
3.14819e-06
-1.04594e-06
6.28311e-05
3.58459e-06
-1.31735e-06
6.22958e-05
4.24784e-06
-1.67573e-06
6.14964e-05
5.19951e-06
-2.13644e-06
6.03789e-05
6.51684e-06
-2.71624e-06
5.88556e-05
8.3098e-06
-3.435e-06
5.67852e-05
1.07408e-05
-4.31197e-06
5.39484e-05
1.40431e-05
-5.36524e-06
4.99372e-05
1.85889e-05
-6.58372e-06
4.41071e-05
2.49327e-05
-7.96421e-06
3.49957e-05
3.38213e-05
-9.31498e-06
2.03081e-05
4.64228e-05
-1.04939e-05
4.95481e-05
-8.61622e-06
6.28351e-05
-3.26264e-07
1.28403e-06
6.31961e-05
-5.97613e-07
2.06219e-06
6.34241e-05
-7.7533e-07
2.46533e-06
6.34873e-05
-9.59655e-07
2.85409e-06
6.33722e-05
-1.20654e-06
3.39378e-06
6.30704e-05
-1.52972e-06
4.14587e-06
6.25662e-05
-1.94109e-06
5.17499e-06
6.18282e-05
-2.45305e-06
6.56756e-06
6.0799e-05
-3.07977e-06
8.45012e-06
5.93719e-05
-3.83405e-06
1.10216e-05
5.73659e-05
-4.72505e-06
1.45734e-05
5.43737e-05
-5.7411e-06
1.96819e-05
4.97664e-05
-6.85969e-06
2.71098e-05
4.16757e-05
-7.94919e-06
3.88438e-05
2.75556e-05
-8.82592e-06
5.68078e-05
-7.30525e-06
7.37944e-05
5.45201e-05
7.88487e-06
-2.39107e-07
5.00118e-05
4.33432e-06
-4.22962e-07
4.7296e-05
2.48606e-06
-5.42532e-07
4.55897e-05
1.41459e-06
-6.73122e-07
4.4199e-05
1.01266e-06
-8.54178e-07
4.28135e-05
8.91757e-07
-1.09668e-06
4.1244e-05
9.23914e-07
-1.41258e-06
3.93503e-05
1.05191e-06
-1.81487e-06
3.70005e-05
1.25678e-06
-2.31842e-06
3.40585e-05
1.53057e-06
-2.93609e-06
3.03683e-05
1.87831e-06
-3.68062e-06
2.58067e-05
2.26481e-06
-4.53077e-06
2.01761e-05
2.74353e-06
-5.49879e-06
1.35973e-05
3.09133e-06
-6.38568e-06
5.95482e-06
3.53115e-06
-7.19155e-06
2.51424e-06
-5.86029e-06
6.4456e-05
5.79639e-06
-3.27485e-07
6.38956e-05
4.65565e-06
-5.74167e-07
6.27408e-05
3.32755e-06
-7.34606e-07
6.13656e-05
2.39578e-06
-9.05257e-07
5.98694e-05
2.00367e-06
-1.13937e-06
5.81768e-05
1.92981e-06
-1.45367e-06
5.61668e-05
2.08265e-06
-1.86437e-06
5.36978e-05
2.41485e-06
-2.38905e-06
5.06088e-05
2.91229e-06
-3.04785e-06
4.67173e-05
3.57274e-06
-3.85885e-06
4.18162e-05
4.40585e-06
-4.83935e-06
3.56971e-05
5.37213e-06
-5.96663e-06
2.81397e-05
6.5121e-06
-7.24994e-06
1.91179e-05
7.52073e-06
-8.44943e-06
8.72547e-06
8.50922e-06
-9.51983e-06
6.70133e-06
-7.76131e-06
6.41263e-05
4.03701e-06
-3.28844e-07
6.42328e-05
4.3089e-06
-5.77002e-07
6.36432e-05
3.60297e-06
-7.37466e-07
6.26491e-05
2.99511e-06
-9.07395e-07
6.13971e-05
2.75045e-06
-1.14047e-06
5.98653e-05
2.80759e-06
-1.45323e-06
5.79707e-05
3.12764e-06
-1.86171e-06
5.55916e-05
3.6911e-06
-2.3833e-06
5.25734e-05
4.50229e-06
-3.03803e-06
4.87283e-05
5.5765e-06
-3.84392e-06
4.38299e-05
6.94159e-06
-4.81852e-06
3.76355e-05
8.56856e-06
-5.93986e-06
2.98674e-05
1.0508e-05
-7.21718e-06
2.04388e-05
1.23738e-05
-8.41372e-06
9.35962e-06
1.41914e-05
-9.4798e-06
1.15411e-05
-7.71963e-06
6.3312e-05
3.09714e-06
-3.17447e-07
6.35298e-05
3.85925e-06
-5.58592e-07
6.32367e-05
3.59253e-06
-7.14058e-07
6.25466e-05
3.30366e-06
-8.7824e-07
6.15455e-05
3.26329e-06
-1.10313e-06
6.02249e-05
3.49663e-06
-1.40431e-06
5.85234e-05
4.00946e-06
-1.79688e-06
5.63366e-05
4.81514e-06
-2.29715e-06
5.35191e-05
5.9455e-06
-2.92392e-06
4.98809e-05
7.44499e-06
-3.69413e-06
4.51781e-05
9.37648e-06
-4.62427e-06
3.9125e-05
1.17458e-05
-5.69362e-06
3.1367e-05
1.46497e-05
-6.91027e-06
2.17176e-05
1.76353e-05
-8.05107e-06
1.00318e-05
2.07009e-05
-9.06409e-06
1.72362e-05
-7.37946e-06
6.29611e-05
2.51567e-06
-3.00758e-07
6.31645e-05
3.43607e-06
-5.31712e-07
6.30073e-05
3.46151e-06
-6.80301e-07
6.25229e-05
3.42557e-06
-8.36512e-07
6.17409e-05
3.58134e-06
-1.04983e-06
6.06451e-05
3.99298e-06
-1.33456e-06
5.9181e-05
4.69682e-06
-1.70445e-06
5.7256e-05
5.73508e-06
-2.17418e-06
5.4735e-05
7.16979e-06
-2.7607e-06
5.14308e-05
9.08323e-06
-3.47914e-06
4.70883e-05
1.15891e-05
-4.3441e-06
4.13722e-05
1.47661e-05
-5.33653e-06
3.38254e-05
1.8813e-05
-6.46164e-06
2.40233e-05
2.33334e-05
-7.5181e-06
1.14597e-05
2.84274e-05
-8.44769e-06
2.4641e-05
-6.87685e-06
6.28128e-05
2.09142e-06
-2.81097e-07
6.30143e-05
3.02921e-06
-4.99829e-07
6.29633e-05
3.24236e-06
-6.4025e-07
6.26517e-05
3.3972e-06
-7.86986e-07
6.20757e-05
3.72246e-06
-9.8645e-07
6.12134e-05
4.29397e-06
-1.25147e-06
6.00174e-05
5.16735e-06
-1.59403e-06
5.84076e-05
6.40905e-06
-2.02674e-06
5.62616e-05
8.11276e-06
-2.56407e-06
5.33963e-05
1.04089e-05
-3.21865e-06
4.95429e-05
1.34818e-05
-4.00213e-06
4.42951e-05
1.75406e-05
-4.89728e-06
3.70706e-05
2.29442e-05
-5.90418e-06
2.71083e-05
2.95473e-05
-6.85069e-06
1.3451e-05
3.76767e-05
-7.66665e-06
3.43895e-05
-6.24095e-06
6.27777e-05
1.71227e-06
-2.58971e-07
6.30156e-05
2.60219e-06
-4.6396e-07
6.30708e-05
2.93737e-06
-5.95231e-07
6.2919e-05
3.23434e-06
-7.31297e-07
6.25441e-05
3.69514e-06
-9.15099e-07
6.19267e-05
4.39338e-06
-1.15774e-06
6.10328e-05
5.39403e-06
-1.46917e-06
5.98064e-05
6.77864e-06
-1.85944e-06
5.81612e-05
8.66274e-06
-2.33979e-06
5.59624e-05
1.12152e-05
-2.9194e-06
5.30061e-05
1.46781e-05
-3.60524e-06
4.89181e-05
1.94253e-05
-4.38041e-06
4.31014e-05
2.60319e-05
-5.23518e-06
3.41723e-05
3.51924e-05
-6.03097e-06
1.98875e-05
4.81431e-05
-6.67542e-06
5.1077e-05
-5.41623e-06
6.28026e-05
-2.35429e-07
1.31883e-06
6.31143e-05
-4.25775e-07
2.11867e-06
6.32874e-05
-5.47311e-07
2.53619e-06
6.32924e-05
-6.72009e-07
2.94178e-06
6.31138e-05
-8.39098e-07
3.50628e-06
6.27414e-05
-1.05785e-06
4.29394e-06
6.21574e-05
-1.33596e-06
5.37288e-06
6.13297e-05
-1.68072e-06
6.83399e-06
6.02028e-05
-2.09987e-06
8.80974e-06
5.86765e-05
-2.59878e-06
1.15062e-05
5.65843e-05
-3.17932e-06
1.52246e-05
5.35479e-05
-3.82514e-06
2.05458e-05
4.8979e-05
-4.5159e-06
2.82571e-05
4.10715e-05
-5.15113e-06
4.03018e-05
2.73033e-05
-5.6167e-06
5.87021e-05
-4.58508e-06
7.56601e-05