/*--------------------------------*- C++ -*----------------------------------*\
| =========                 |                                                 |
| \\      /  F ield         | OpenFOAM: The Open Source CFD Toolbox           |
|  \\    /   O peration     | Version:  v1912                                 |
|   \\  /    A nd           | Website:  www.openfoam.com                      |
|    \\/     M anipulation  |                                                 |
\*---------------------------------------------------------------------------*/
FoamFile
{
    version     2.0;
    format      ascii;
    class       pointVectorField;
    location    "0.12/fluid";
    object      pointMotionU;
}
// * * * * * * * * * * * * * * * * * * * * * * * * * * * * * * * * * * * * * //

dimensions      [0 1 -1 0 0 0 0];


internalField   nonuniform List<vector> 
16859
(
(0 0 0)
(0 0 0)
(0 0 0)
(0 0 0)
(0 0 0)
(0 0 0)
(0 0 0)
(0 0 0)
(0 0 0)
(0 0 0)
(0 0 0)
(0 0 0)
(0 0 0)
(0 0 0)
(0 0 0)
(0 0 0)
(2.51669e-08 1.1268e-07 4.19031e-08)
(0 0 0)
(1.22088e-09 -6.40336e-09 5.63022e-09)
(2.24395e-09 -1.22031e-08 1.07988e-08)
(3.03318e-09 -1.76204e-08 1.57593e-08)
(3.55784e-09 -2.28645e-08 2.07568e-08)
(3.78846e-09 -2.80442e-08 2.5996e-08)
(3.66135e-09 -3.31486e-08 3.1603e-08)
(3.11512e-09 -3.81244e-08 3.77005e-08)
(2.10115e-09 -4.288e-08 4.44207e-08)
(5.82866e-10 -4.72278e-08 5.188e-08)
(-1.54153e-09 -5.0823e-08 6.01575e-08)
(-4.16889e-09 -5.28877e-08 6.9313e-08)
(-6.74879e-09 -5.1831e-08 7.94726e-08)
(-8.29241e-09 -4.46386e-08 9.11182e-08)
(-6.61824e-09 -2.53564e-08 1.0531e-07)
(2.51548e-09 1.16113e-08 1.21599e-07)
(6.36362e-08 1.04997e-07 1.30315e-07)
(0 0 0)
(2.52369e-09 -1.26777e-08 1.1183e-08)
(4.64351e-09 -2.41733e-08 2.14445e-08)
(6.29447e-09 -3.49343e-08 3.12949e-08)
(7.42899e-09 -4.53183e-08 4.11895e-08)
(7.97494e-09 -5.55263e-08 5.1495e-08)
(7.83145e-09 -6.56209e-08 6.25112e-08)
(6.91692e-09 -7.55638e-08 7.45239e-08)
(5.17607e-09 -8.52038e-08 8.77897e-08)
(2.53465e-09 -9.4235e-08 1.02497e-07)
(-1.08343e-09 -1.02071e-07 1.18744e-07)
(-5.31961e-09 -1.07497e-07 1.365e-07)
(-9.11921e-09 -1.08475e-07 1.55737e-07)
(-1.05505e-08 -1.01965e-07 1.76508e-07)
(-5.67508e-09 -8.41007e-08 1.98537e-07)
(1.09768e-08 -5.59603e-08 2.18459e-07)
(9.17484e-08 -1.39915e-08 2.46764e-07)
(0 0 0)
(3.95245e-09 -1.86319e-08 1.65497e-08)
(7.28615e-09 -3.55485e-08 3.1728e-08)
(9.92871e-09 -5.13846e-08 4.62783e-08)
(1.18169e-08 -6.66194e-08 6.08257e-08)
(1.28543e-08 -8.159e-08 7.59065e-08)
(1.29483e-08 -9.64802e-08 9.20158e-08)
(1.20342e-08 -1.11321e-07 1.09609e-07)
(1.00887e-08 -1.25973e-07 1.2907e-07)
(7.05272e-09 -1.40105e-07 1.50648e-07)
(3.03584e-09 -1.53029e-07 1.74427e-07)
(-1.41546e-09 -1.635e-07 2.00293e-07)
(-4.97572e-09 -1.69664e-07 2.28043e-07)
(-5.42872e-09 -1.69173e-07 2.57179e-07)
(1.13698e-09 -1.59954e-07 2.86332e-07)
(1.9409e-08 -1.44155e-07 3.10886e-07)
(9.2999e-08 -1.1711e-07 3.38714e-07)
(0 0 0)
(5.51551e-09 -2.40351e-08 2.15927e-08)
(1.02e-08 -4.58687e-08 4.13823e-08)
(1.39852e-08 -6.62911e-08 6.03071e-08)
(1.67985e-08 -8.59204e-08 7.91401e-08)
(1.85673e-08 -1.05239e-07 9.85867e-08)
(1.92339e-08 -1.24577e-07 1.19321e-07)
(1.87919e-08 -1.44086e-07 1.41979e-07)
(1.72841e-08 -1.63703e-07 1.67071e-07)
(1.4787e-08 -1.8315e-07 1.94928e-07)
(1.15818e-08 -2.01807e-07 2.25642e-07)
(8.40534e-09 -2.18628e-07 2.59144e-07)
(6.62037e-09 -2.3209e-07 2.95179e-07)
(7.95355e-09 -2.4018e-07 3.32738e-07)
(1.50446e-08 -2.40688e-07 3.69211e-07)
(3.10074e-08 -2.33428e-07 3.97832e-07)
(9.54896e-08 -2.11073e-07 4.23995e-07)
(0 0 0)
(7.20226e-09 -2.8645e-08 2.61887e-08)
(1.33625e-08 -5.46649e-08 5.01642e-08)
(1.84274e-08 -7.89948e-08 7.30256e-08)
(2.23426e-08 -1.02384e-07 9.56711e-08)
(2.50822e-08 -1.25463e-07 1.18948e-07)
(2.66544e-08 -1.48727e-07 1.43701e-07)
(2.71444e-08 -1.72456e-07 1.70731e-07)
(2.67071e-08 -1.96708e-07 2.00681e-07)
(2.55977e-08 -2.21328e-07 2.33975e-07)
(2.43316e-08 -2.45913e-07 2.70827e-07)
(2.38685e-08 -2.6978e-07 3.11374e-07)
(2.56066e-08 -2.91867e-07 3.5558e-07)
(3.0796e-08 -3.10442e-07 4.02454e-07)
(4.0613e-08 -3.22458e-07 4.48657e-07)
(5.59208e-08 -3.23827e-07 4.84736e-07)
(1.12876e-07 -3.02348e-07 5.12544e-07)
(0 0 0)
(8.97995e-09 -3.22385e-08 3.02432e-08)
(1.67078e-08 -6.15202e-08 5.78945e-08)
(2.3155e-08 -8.89042e-08 8.41705e-08)
(2.83084e-08 -1.15259e-07 1.10067e-07)
(3.22005e-08 -1.41355e-07 1.3654e-07)
(3.49235e-08 -1.67825e-07 1.64575e-07)
(3.66756e-08 -1.95088e-07 1.95126e-07)
(3.77496e-08 -2.23325e-07 2.28958e-07)
(3.8589e-08 -2.52554e-07 2.66599e-07)
(3.99895e-08 -2.82657e-07 3.08438e-07)
(4.32535e-08 -3.13437e-07 3.54948e-07)
(5.01572e-08 -3.44609e-07 4.06702e-07)
(6.22879e-08 -3.75513e-07 4.63636e-07)
(8.07034e-08 -4.0399e-07 5.23335e-07)
(1.03859e-07 -4.23378e-07 5.74578e-07)
(1.6003e-07 -4.04497e-07 6.13675e-07)
(0 0 0)
(1.07887e-08 -3.46316e-08 3.36878e-08)
(2.01199e-08 -6.60917e-08 6.44443e-08)
(2.80021e-08 -9.55399e-08 9.35664e-08)
(3.44626e-08 -1.23936e-07 1.22096e-07)
(3.95918e-08 -1.52156e-07 1.51055e-07)
(4.35677e-08 -1.80949e-07 1.81544e-07)
(4.66983e-08 -2.10831e-07 2.14637e-07)
(4.94029e-08 -2.42101e-07 2.51195e-07)
(5.22899e-08 -2.74927e-07 2.91821e-07)
(5.64123e-08 -3.09429e-07 3.37032e-07)
(6.34167e-08 -3.4586e-07 3.87586e-07)
(7.56894e-08 -3.84791e-07 4.4477e-07)
(9.6075e-08 -4.27221e-07 5.10045e-07)
(1.28065e-07 -4.74233e-07 5.83956e-07)
(1.71047e-07 -5.21079e-07 6.57348e-07)
(2.62871e-07 -5.83131e-07 7.45275e-07)
(0 0 0)
(1.25507e-08 -3.5697e-08 3.64782e-08)
(2.34529e-08 -6.81546e-08 6.97403e-08)
(3.27491e-08 -9.85872e-08 1.01109e-07)
(4.04993e-08 -1.28012e-07 1.31627e-07)
(4.68402e-08 -1.57366e-07 1.62341e-07)
(5.20194e-08 -1.8746e-07 1.9442e-07)
(5.64281e-08 -2.18878e-07 2.29027e-07)
(6.05657e-08 -2.5199e-07 2.67066e-07)
(6.51526e-08 -2.87035e-07 3.09148e-07)
(7.1291e-08 -3.24251e-07 3.55727e-07)
(8.07358e-08 -3.64018e-07 4.07582e-07)
(9.60139e-08 -4.07115e-07 4.66169e-07)
(1.20284e-07 -4.54941e-07 5.33421e-07)
(1.57632e-07 -5.09348e-07 6.11167e-07)
(2.06175e-07 -5.6505e-07 6.90487e-07)
(3.50467e-07 -6.82156e-07 8.44063e-07)
(0 0 0)
(0 0 0)
(0 0 0)
(0 0 0)
(0 0 0)
(0 0 0)
(0 0 0)
(0 0 0)
(0 0 0)
(0 0 0)
(0 0 0)
(0 0 0)
(0 0 0)
(0 0 0)
(0 0 0)
(0 0 0)
(-5.33952e-08 4.16967e-08 4.01257e-08)
(0 0 0)
(9.29626e-10 -6.6325e-09 5.51799e-09)
(1.67767e-09 -1.26507e-08 1.05892e-08)
(2.18302e-09 -1.8269e-08 1.54432e-08)
(2.38905e-09 -2.36946e-08 2.03055e-08)
(2.2317e-09 -2.90573e-08 2.53732e-08)
(1.61413e-09 -3.4366e-08 3.07816e-08)
(4.28029e-10 -3.95738e-08 3.66604e-08)
(-1.45814e-09 -4.46026e-08 4.31449e-08)
(-4.22877e-09 -4.93037e-08 5.03458e-08)
(-8.13299e-09 -5.33825e-08 5.83639e-08)
(-1.34337e-08 -5.62207e-08 6.72756e-08)
(-2.04378e-08 -5.65562e-08 7.72129e-08)
(-2.98342e-08 -5.19875e-08 8.86381e-08)
(-4.27978e-08 -3.8037e-08 1.02507e-07)
(-5.88638e-08 -1.07384e-08 1.18697e-07)
(-9.27875e-08 2.79119e-08 1.40866e-07)
(0 0 0)
(1.95427e-09 -1.31246e-08 1.09578e-08)
(3.5372e-09 -2.50283e-08 2.10066e-08)
(4.64169e-09 -3.61625e-08 3.06283e-08)
(5.16612e-09 -4.69034e-08 4.02497e-08)
(4.9798e-09 -5.7484e-08 5.02268e-08)
(3.91951e-09 -6.79864e-08 6.08645e-08)
(1.81145e-09 -7.83833e-08 7.24533e-08)
(-1.55703e-09 -8.85537e-08 8.52538e-08)
(-6.45101e-09 -9.82358e-08 9.94652e-08)
(-1.31999e-08 -1.0694e-07 1.15207e-07)
(-2.19863e-08 -1.13686e-07 1.32472e-07)
(-3.28088e-08 -1.16845e-07 1.51272e-07)
(-4.54269e-08 -1.14077e-07 1.71683e-07)
(-5.8182e-08 -1.02802e-07 1.93589e-07)
(-6.60784e-08 -8.45099e-08 2.15087e-07)
(-7.69737e-08 -7.68955e-08 2.49811e-07)
(0 0 0)
(3.13293e-09 -1.9269e-08 1.62045e-08)
(5.70141e-09 -3.67558e-08 3.10496e-08)
(7.57165e-09 -5.312e-08 4.52472e-08)
(8.60782e-09 -6.8877e-08 5.93894e-08)
(8.6419e-09 -8.43938e-08 7.39985e-08)
(7.49183e-09 -9.9872e-08 8.95599e-08)
(4.97056e-09 -1.15359e-07 1.06535e-07)
(8.75193e-10 -1.30746e-07 1.25317e-07)
(-5.04885e-09 -1.45746e-07 1.46174e-07)
(-1.29958e-08 -1.59782e-07 1.692e-07)
(-2.29437e-08 -1.71813e-07 1.94325e-07)
(-3.4583e-08 -1.80344e-07 2.21402e-07)
(-4.70978e-08 -1.83634e-07 2.50016e-07)
(-5.79584e-08 -1.80549e-07 2.79115e-07)
(-6.21072e-08 -1.73375e-07 3.05733e-07)
(-7.44717e-08 -1.7122e-07 3.40208e-07)
(0 0 0)
(4.49334e-09 -2.48304e-08 2.11286e-08)
(8.22861e-09 -4.73729e-08 4.04662e-08)
(1.10639e-08 -6.84597e-08 5.89166e-08)
(1.285e-08 -8.87498e-08 7.72226e-08)
(1.34289e-08 -1.08754e-07 9.60583e-08)
(1.26458e-08 -1.2882e-07 1.16085e-07)
(1.03646e-08 -1.49116e-07 1.37943e-07)
(6.46664e-09 -1.69601e-07 1.62159e-07)
(8.24633e-10 -1.9004e-07 1.89074e-07)
(-6.54088e-09 -2.09891e-07 2.18794e-07)
(-1.54088e-08 -2.28231e-07 2.51272e-07)
(-2.54081e-08 -2.43799e-07 2.86307e-07)
(-3.60559e-08 -2.54987e-07 3.23031e-07)
(-4.60077e-08 -2.60208e-07 3.59185e-07)
(-5.19537e-08 -2.59516e-07 3.8973e-07)
(-6.83944e-08 -2.59421e-07 4.22836e-07)
(0 0 0)
(6.03315e-09 -2.95654e-08 2.56096e-08)
(1.11129e-08 -5.64066e-08 4.90204e-08)
(1.51076e-08 -8.15087e-08 7.12945e-08)
(1.78864e-08 -1.05661e-07 9.32943e-08)
(1.93379e-08 -1.29523e-07 1.15828e-07)
(1.93788e-08 -1.53607e-07 1.39727e-07)
(1.79782e-08 -1.78208e-07 1.65795e-07)
(1.51548e-08 -2.03394e-07 1.94691e-07)
(1.10019e-08 -2.29037e-07 2.2684e-07)
(5.79182e-09 -2.54763e-07 2.62447e-07)
(-7.25152e-12 -2.79927e-07 3.01634e-07)
(-5.92866e-09 -3.03574e-07 3.44394e-07)
(-1.20356e-08 -3.2414e-07 3.89863e-07)
(-1.88882e-08 -3.38809e-07 4.35013e-07)
(-2.61069e-08 -3.43772e-07 4.72396e-07)
(-4.74829e-08 -3.43882e-07 5.06983e-07)
(0 0 0)
(7.72074e-09 -3.32465e-08 2.95533e-08)
(1.42897e-08 -6.34298e-08 5.65339e-08)
(1.9604e-08 -9.16574e-08 8.21196e-08)
(2.35761e-08 -1.1884e-07 1.07262e-07)
(2.61627e-08 -1.45777e-07 1.32876e-07)
(2.73779e-08 -1.73118e-07 1.59932e-07)
(2.73268e-08 -2.01287e-07 1.89383e-07)
(2.62056e-08 -2.30467e-07 2.22006e-07)
(2.43424e-08 -2.60677e-07 2.58321e-07)
(2.23367e-08 -2.91785e-07 2.98669e-07)
(2.10849e-08 -3.23542e-07 3.43453e-07)
(2.15603e-08 -3.55632e-07 3.93199e-07)
(2.40781e-08 -3.87369e-07 4.47836e-07)
(2.75572e-08 -4.16474e-07 5.0496e-07)
(2.88912e-08 -4.36676e-07 5.55491e-07)
(9.91546e-10 -4.31607e-07 5.99783e-07)
(0 0 0)
(9.49189e-09 -3.56853e-08 3.28935e-08)
(1.76359e-08 -6.80895e-08 6.28824e-08)
(2.43727e-08 -9.84191e-08 9.12227e-08)
(2.96621e-08 -1.27674e-07 1.18906e-07)
(3.35305e-08 -1.56759e-07 1.46913e-07)
(3.60958e-08 -1.86436e-07 1.76323e-07)
(3.75997e-08 -2.17221e-07 2.08207e-07)
(3.84061e-08 -2.49399e-07 2.43435e-07)
(3.90612e-08 -2.83124e-07 2.82594e-07)
(4.04877e-08 -3.18455e-07 3.26097e-07)
(4.40799e-08 -3.55518e-07 3.74588e-07)
(5.17018e-08 -3.94746e-07 4.29206e-07)
(6.54036e-08 -4.36984e-07 4.91153e-07)
(8.73382e-08 -4.8299e-07 5.60339e-07)
(1.16533e-07 -5.28854e-07 6.29134e-07)
(1.18369e-07 -5.77552e-07 6.9421e-07)
(0 0 0)
(1.12586e-08 -3.6754e-08 3.55853e-08)
(2.09848e-08 -7.01624e-08 6.79928e-08)
(2.91616e-08 -1.01483e-07 9.85025e-08)
(3.57901e-08 -1.3177e-07 1.28104e-07)
(4.09551e-08 -1.61987e-07 1.57799e-07)
(4.48624e-08 -1.92951e-07 1.88733e-07)
(4.78623e-08 -2.2524e-07 2.22058e-07)
(5.04346e-08 -2.59205e-07 2.58694e-07)
(5.32687e-08 -2.95053e-07 2.99202e-07)
(5.74326e-08 -3.3292e-07 3.43945e-07)
(6.45636e-08 -3.73002e-07 3.93521e-07)
(7.69449e-08 -4.1584e-07 4.49162e-07)
(9.74773e-08 -4.62456e-07 5.12444e-07)
(1.30026e-07 -5.13896e-07 5.84141e-07)
(1.74101e-07 -5.64975e-07 6.56026e-07)
(2.67669e-07 -6.29954e-07 7.51315e-07)
(0 0 0)
(0 0 0)
(0 0 0)
(0 0 0)
(0 0 0)
(0 0 0)
(0 0 0)
(0 0 0)
(0 0 0)
(0 0 0)
(0 0 0)
(0 0 0)
(0 0 0)
(0 0 0)
(0 0 0)
(0 0 0)
(-9.92973e-08 -3.40412e-09 1.52138e-08)
(0 0 0)
(6.21159e-10 -6.84408e-09 5.16724e-09)
(1.07464e-09 -1.30608e-08 9.91813e-09)
(1.27749e-09 -1.88718e-08 1.44669e-08)
(1.14363e-09 -2.44765e-08 1.90049e-08)
(5.67638e-10 -3.00111e-08 2.37013e-08)
(-5.79207e-10 -3.55146e-08 2.86967e-08)
(-2.45213e-09 -4.09602e-08 3.41253e-08)
(-5.2676e-09 -4.62934e-08 4.01171e-08)
(-9.35095e-09 -5.14242e-08 4.67823e-08)
(-1.51632e-08 -5.61728e-08 5.41699e-08)
(-2.34147e-08 -6.01829e-08 6.2266e-08)
(-3.54367e-08 -6.28422e-08 7.10139e-08)
(-5.40002e-08 -6.32262e-08 8.02111e-08)
(-8.44979e-08 -6.03544e-08 8.91462e-08)
(-1.309e-07 -5.49774e-08 9.55398e-08)
(-1.97516e-07 -5.1535e-08 7.77972e-08)
(0 0 0)
(1.34739e-09 -1.35275e-08 1.02522e-08)
(2.35701e-09 -2.58049e-08 1.96566e-08)
(2.87747e-09 -3.72902e-08 2.86533e-08)
(2.7463e-09 -4.83635e-08 3.76155e-08)
(1.77041e-09 -5.92875e-08 4.68688e-08)
(-2.75654e-10 -7.01741e-08 5.67063e-08)
(-3.6584e-09 -8.10192e-08 6.74122e-08)
(-8.73668e-09 -9.17455e-08 7.92467e-08)
(-1.60051e-08 -1.02185e-07 9.23883e-08)
(-2.61116e-08 -1.12013e-07 1.06881e-07)
(-3.99116e-08 -1.20632e-07 1.22614e-07)
(-5.87506e-08 -1.27196e-07 1.39305e-07)
(-8.46101e-08 -1.30782e-07 1.5619e-07)
(-1.19252e-07 -1.3117e-07 1.71332e-07)
(-1.58953e-07 -1.30598e-07 1.80989e-07)
(-1.96182e-07 -1.39285e-07 1.71611e-07)
(0 0 0)
(2.25584e-09 -1.98342e-08 1.51494e-08)
(4.00351e-09 -3.78347e-08 2.90244e-08)
(5.04233e-09 -5.46772e-08 4.22749e-08)
(5.15861e-09 -7.09066e-08 5.5439e-08)
(4.10855e-09 -8.69184e-08 6.89907e-08)
(1.62219e-09 -1.02935e-07 8.33849e-08)
(-2.60508e-09 -1.19028e-07 9.90709e-08)
(-8.95841e-09 -1.35139e-07 1.16433e-07)
(-1.79309e-08 -1.51067e-07 1.35698e-07)
(-3.00898e-08 -1.66406e-07 1.56897e-07)
(-4.6119e-08 -1.80471e-07 1.7983e-07)
(-6.70203e-08 -1.92431e-07 2.04041e-07)
(-9.3845e-08 -2.01599e-07 2.28357e-07)
(-1.26433e-07 -2.08229e-07 2.50171e-07)
(-1.59876e-07 -2.14239e-07 2.6515e-07)
(-1.94509e-07 -2.24158e-07 2.597e-07)
(0 0 0)
(3.39283e-09 -2.55244e-08 1.97402e-08)
(6.10362e-09 -4.86892e-08 3.77938e-08)
(7.9097e-09 -7.03617e-08 5.49947e-08)
(8.57893e-09 -9.12354e-08 7.20196e-08)
(7.86637e-09 -1.11847e-07 8.94828e-08)
(5.52249e-09 -1.3256e-07 1.08006e-07)
(1.28548e-09 -1.53557e-07 1.28204e-07)
(-5.14404e-09 -1.74833e-07 1.50575e-07)
(-1.41194e-08 -1.96213e-07 1.7541e-07)
(-2.59897e-08 -2.17289e-07 2.02739e-07)
(-4.12275e-08 -2.37394e-07 2.32364e-07)
(-6.06866e-08 -2.55722e-07 2.63767e-07)
(-8.54898e-08 -2.71452e-07 2.95434e-07)
(-1.16232e-07 -2.84181e-07 3.23971e-07)
(-1.49558e-07 -2.94238e-07 3.43703e-07)
(-1.87051e-07 -3.05887e-07 3.40411e-07)
(0 0 0)
(4.76623e-09 -3.03555e-08 2.39133e-08)
(8.67074e-09 -5.79029e-08 4.57518e-08)
(1.14965e-08 -8.36687e-08 6.64968e-08)
(1.30299e-08 -1.08481e-07 8.69369e-08)
(1.30739e-08 -1.33025e-07 1.07817e-07)
(1.14535e-08 -1.57814e-07 1.29916e-07)
(8.01948e-09 -1.83146e-07 1.53997e-07)
(2.63735e-09 -2.09102e-07 1.80671e-07)
(-4.80754e-09 -2.35581e-07 2.10299e-07)
(-1.43837e-08 -2.62267e-07 2.42973e-07)
(-2.62815e-08 -2.8861e-07 2.78598e-07)
(-4.12166e-08 -3.13876e-07 3.16768e-07)
(-6.08495e-08 -3.36986e-07 3.55913e-07)
(-8.78287e-08 -3.56205e-07 3.92056e-07)
(-1.21927e-07 -3.68993e-07 4.17913e-07)
(-1.64732e-07 -3.80695e-07 4.18213e-07)
(0 0 0)
(6.34433e-09 -3.4101e-08 2.75798e-08)
(1.1641e-08 -6.50447e-08 5.2728e-08)
(1.57055e-08 -9.3986e-08 7.6535e-08)
(1.83716e-08 -1.21874e-07 9.98757e-08)
(1.95172e-08 -1.49526e-07 1.23597e-07)
(1.9077e-08 -1.77589e-07 1.48609e-07)
(1.70542e-08 -2.06468e-07 1.75803e-07)
(1.35228e-08 -2.36337e-07 2.05893e-07)
(8.64881e-09 -2.67202e-07 2.39308e-07)
(2.73359e-09 -2.98895e-07 2.76228e-07)
(-3.92732e-09 -3.31087e-07 3.16731e-07)
(-1.14943e-08 -3.63379e-07 3.60729e-07)
(-2.13611e-08 -3.95058e-07 4.07017e-07)
(-3.72293e-08 -4.24195e-07 4.51596e-07)
(-6.32332e-08 -4.45866e-07 4.85533e-07)
(-1.14221e-07 -4.48186e-07 4.92735e-07)
(0 0 0)
(8.05679e-09 -3.65715e-08 3.06726e-08)
(1.48806e-08 -6.97653e-08 5.8601e-08)
(2.0337e-08 -1.00833e-07 8.49468e-08)
(2.43156e-08 -1.30811e-07 1.10629e-07)
(2.67755e-08 -1.60619e-07 1.36559e-07)
(2.77696e-08 -1.90999e-07 1.63743e-07)
(2.74588e-08 -2.2244e-07 1.93175e-07)
(2.61182e-08 -2.55197e-07 2.25642e-07)
(2.41826e-08 -2.89367e-07 2.61615e-07)
(2.23413e-08 -3.24899e-07 3.01319e-07)
(2.14997e-08 -3.61679e-07 3.44958e-07)
(2.25252e-08 -3.99733e-07 3.92788e-07)
(2.58174e-08 -4.392e-07 4.44216e-07)
(3.05698e-08 -4.79564e-07 4.95836e-07)
(3.36365e-08 -5.16045e-07 5.37559e-07)
(7.284e-09 -5.53977e-07 5.47303e-07)
(0 0 0)
(9.80538e-09 -3.76435e-08 3.31481e-08)
(1.81998e-08 -7.18456e-08 6.32945e-08)
(2.51028e-08 -1.03908e-07 9.16292e-08)
(3.04558e-08 -1.34916e-07 1.19074e-07)
(3.42899e-08 -1.65837e-07 1.46565e-07)
(3.67615e-08 -1.97467e-07 1.75163e-07)
(3.81583e-08 -2.30347e-07 2.05929e-07)
(3.89005e-08 -2.64782e-07 2.39676e-07)
(3.96041e-08 -3.00903e-07 2.76858e-07)
(4.12011e-08 -3.38667e-07 3.17626e-07)
(4.49756e-08 -3.77952e-07 3.62136e-07)
(5.24646e-08 -4.1873e-07 4.10693e-07)
(6.53356e-08 -4.60949e-07 4.62978e-07)
(8.53543e-08 -5.03606e-07 5.16257e-07)
(1.11198e-07 -5.39874e-07 5.60151e-07)
(1.7123e-07 -5.69082e-07 5.72167e-07)
(0 0 0)
(0 0 0)
(0 0 0)
(0 0 0)
(0 0 0)
(0 0 0)
(0 0 0)
(0 0 0)
(0 0 0)
(0 0 0)
(0 0 0)
(0 0 0)
(0 0 0)
(0 0 0)
(0 0 0)
(0 0 0)
(-1.14665e-07 -1.96722e-08 1.5375e-08)
(0 0 0)
(3.09769e-10 -7.02401e-09 4.59859e-09)
(4.69622e-10 -1.34028e-08 8.82527e-09)
(3.74351e-10 -1.93687e-08 1.28742e-08)
(-9.06111e-11 -2.51283e-08 1.69101e-08)
(-1.06279e-09 -3.08305e-08 2.10709e-08)
(-2.70383e-09 -3.65267e-08 2.54817e-08)
(-5.21258e-09 -4.22006e-08 3.02682e-08)
(-8.8727e-09 -4.78253e-08 3.5552e-08)
(-1.41109e-08 -5.33739e-08 4.14185e-08)
(-2.15815e-08 -5.87925e-08 4.78871e-08)
(-3.23114e-08 -6.39524e-08 5.4848e-08)
(-4.81929e-08 -6.87053e-08 6.20758e-08)
(-7.29478e-08 -7.30477e-08 6.90782e-08)
(-1.13003e-07 -7.74504e-08 7.46874e-08)
(-1.70711e-07 -8.27034e-08 7.67677e-08)
(-2.3683e-07 -8.43456e-08 7.02575e-08)
(0 0 0)
(7.38737e-10 -1.38693e-08 9.11839e-09)
(1.17833e-09 -2.64571e-08 1.74838e-08)
(1.12178e-09 -3.82362e-08 2.54883e-08)
(3.55802e-10 -4.96059e-08 3.34503e-08)
(-1.36925e-09 -6.08508e-08 4.16449e-08)
(-4.34074e-09 -7.20963e-08 5.03316e-08)
(-8.9048e-09 -8.33589e-08 5.97736e-08)
(-1.55328e-08 -9.46071e-08 7.02084e-08)
(-2.49032e-08 -1.05776e-07 8.17859e-08)
(-3.79486e-08 -1.16717e-07 9.44839e-08)
(-5.59828e-08 -1.27154e-07 1.08034e-07)
(-8.10622e-08 -1.36799e-07 1.21944e-07)
(-1.15982e-07 -1.45573e-07 1.35135e-07)
(-1.62463e-07 -1.53902e-07 1.45345e-07)
(-2.12745e-07 -1.6216e-07 1.49495e-07)
(-2.45773e-07 -1.72081e-07 1.50305e-07)
(0 0 0)
(1.38093e-09 -2.03147e-08 1.34698e-08)
(2.31273e-09 -3.87505e-08 2.58084e-08)
(2.53203e-09 -5.60061e-08 3.75885e-08)
(1.75774e-09 -7.26528e-08 4.92714e-08)
(-3.27553e-10 -8.9107e-08 6.12641e-08)
(-4.07258e-09 -1.05606e-07 7.39716e-08)
(-9.88287e-09 -1.22245e-07 8.78065e-08)
(-1.82858e-08 -1.39014e-07 1.03112e-07)
(-2.99841e-08 -1.55811e-07 1.2008e-07)
(-4.58486e-08 -1.724e-07 1.38638e-07)
(-6.70518e-08 -1.88393e-07 1.58423e-07)
(-9.52099e-08 -2.03416e-07 1.78771e-07)
(-1.31795e-07 -2.17351e-07 1.9827e-07)
(-1.75794e-07 -2.30615e-07 2.14291e-07)
(-2.17766e-07 -2.43226e-07 2.23536e-07)
(-2.45301e-07 -2.55037e-07 2.28598e-07)
(0 0 0)
(2.29702e-09 -2.61165e-08 1.75498e-08)
(3.99105e-09 -4.98177e-08 3.35983e-08)
(4.78366e-09 -7.19988e-08 4.88768e-08)
(4.36553e-09 -9.33797e-08 6.39687e-08)
(2.41425e-09 -1.14517e-07 7.94096e-08)
(-1.40629e-09 -1.3579e-07 9.57591e-08)
(-7.46764e-09 -1.57393e-07 1.1357e-07)
(-1.6219e-08 -1.79358e-07 1.33283e-07)
(-2.82076e-08 -2.01575e-07 1.55121e-07)
(-4.40884e-08 -2.23759e-07 1.79011e-07)
(-6.47802e-08 -2.45438e-07 2.04562e-07)
(-9.16337e-08 -2.66098e-07 2.31018e-07)
(-1.25969e-07 -2.85315e-07 2.56746e-07)
(-1.672e-07 -3.02848e-07 2.78705e-07)
(-2.07562e-07 -3.17863e-07 2.92794e-07)
(-2.3658e-07 -3.31082e-07 3.01058e-07)
(0 0 0)
(3.50433e-09 -3.10321e-08 2.1257e-08)
(6.24215e-09 -5.91916e-08 4.06614e-08)
(7.91462e-09 -8.55326e-08 5.90697e-08)
(8.23133e-09 -1.10912e-07 7.71701e-08)
(6.91851e-09 -1.36029e-07 9.5621e-08)
(3.71595e-09 -1.61405e-07 1.15121e-07)
(-1.63183e-09 -1.87341e-07 1.3635e-07)
(-9.39712e-09 -2.13926e-07 1.59834e-07)
(-1.98706e-08 -2.4108e-07 1.85846e-07)
(-3.33889e-08 -2.68522e-07 2.14336e-07)
(-5.0549e-08 -2.95752e-07 2.44948e-07)
(-7.25359e-08 -3.22133e-07 2.76945e-07)
(-1.01185e-07 -3.46785e-07 3.086e-07)
(-1.38018e-07 -3.68175e-07 3.36476e-07)
(-1.78591e-07 -3.83405e-07 3.55484e-07)
(-2.12514e-07 -3.94504e-07 3.67152e-07)
(0 0 0)
(4.97049e-09 -3.48352e-08 2.45069e-08)
(9.00179e-09 -6.64397e-08 4.68357e-08)
(1.18289e-08 -9.59981e-08 6.79431e-08)
(1.32131e-08 -1.24483e-07 8.85958e-08)
(1.29615e-08 -1.52723e-07 1.09548e-07)
(1.09313e-08 -1.81363e-07 1.31614e-07)
(7.03129e-09 -2.10794e-07 1.55579e-07)
(1.21782e-09 -2.41172e-07 1.82047e-07)
(-6.48602e-09 -2.7247e-07 2.11333e-07)
(-1.6006e-08 -3.04456e-07 2.43424e-07)
(-2.7421e-08 -3.3669e-07 2.78029e-07)
(-4.13759e-08 -3.68622e-07 3.14524e-07)
(-5.95748e-08 -3.99388e-07 3.51232e-07)
(-8.49142e-08 -4.27007e-07 3.84388e-07)
(-1.17601e-07 -4.46852e-07 4.07746e-07)
(-1.59601e-07 -4.44792e-07 4.23039e-07)
(0 0 0)
(6.61801e-09 -3.7337e-08 2.72328e-08)
(1.21232e-08 -7.12183e-08 5.2007e-08)
(1.63056e-08 -1.02922e-07 7.53425e-08)
(1.89905e-08 -1.33506e-07 9.80521e-08)
(2.0076e-08 -1.63891e-07 1.20952e-07)
(1.95482e-08 -1.9481e-07 1.44936e-07)
(1.74882e-08 -2.26724e-07 1.7087e-07)
(1.40778e-08 -2.59846e-07 1.99412e-07)
(9.64479e-09 -2.94192e-07 2.30898e-07)
(4.70109e-09 -3.29565e-07 2.65309e-07)
(-1.76853e-10 -3.65594e-07 3.02396e-07)
(-4.61085e-09 -4.01909e-07 3.4165e-07)
(-8.66576e-09 -4.38067e-07 3.815e-07)
(-1.28091e-08 -4.72899e-07 4.17943e-07)
(-1.69938e-08 -5.02125e-07 4.43385e-07)
(-3.59161e-08 -5.32514e-07 4.57455e-07)
(0 0 0)
(8.33889e-09 -3.84168e-08 2.93945e-08)
(1.53956e-08 -7.33126e-08 5.61008e-08)
(2.10239e-08 -1.06014e-07 8.11714e-08)
(2.51113e-08 -1.37617e-07 1.05428e-07)
(2.76394e-08 -1.69088e-07 1.29708e-07)
(2.87093e-08 -2.01205e-07 1.54955e-07)
(2.85413e-08 -2.34475e-07 1.82075e-07)
(2.74835e-08 -2.69145e-07 2.11742e-07)
(2.60824e-08 -3.05232e-07 2.44259e-07)
(2.51441e-08 -3.42499e-07 2.79554e-07)
(2.56983e-08 -3.80501e-07 3.1731e-07)
(2.88528e-08 -4.18698e-07 3.57007e-07)
(3.5796e-08 -4.56281e-07 3.97206e-07)
(4.83341e-08 -4.91362e-07 4.3416e-07)
(6.74583e-08 -5.17946e-07 4.599e-07)
(1.29561e-07 -5.39318e-07 4.69063e-07)
(0 0 0)
(0 0 0)
(0 0 0)
(0 0 0)
(0 0 0)
(0 0 0)
(0 0 0)
(0 0 0)
(0 0 0)
(0 0 0)
(0 0 0)
(0 0 0)
(0 0 0)
(0 0 0)
(0 0 0)
(0 0 0)
(-1.21869e-07 -2.4796e-08 1.51347e-08)
(0 0 0)
(1.90648e-11 -7.16389e-09 3.8394e-09)
(-9.3283e-11 -1.36647e-08 7.36707e-09)
(-4.61601e-10 -1.97478e-08 1.07512e-08)
(-1.22165e-09 -2.56366e-08 1.41264e-08)
(-2.53865e-09 -3.14949e-08 1.76032e-08)
(-4.60094e-09 -3.73716e-08 2.12804e-08)
(-7.63791e-09 -4.32518e-08 2.52661e-08)
(-1.19762e-08 -4.91363e-08 2.96709e-08)
(-1.8112e-08 -5.50529e-08 3.45776e-08)
(-2.67779e-08 -6.10213e-08 3.99628e-08)
(-3.914e-08 -6.70384e-08 4.56613e-08)
(-5.72801e-08 -7.31583e-08 5.14717e-08)
(-8.50497e-08 -7.96385e-08 5.70571e-08)
(-1.28632e-07 -8.70214e-08 6.186e-08)
(-1.8883e-07 -9.50456e-08 6.51755e-08)
(-2.54481e-07 -9.6124e-08 6.31904e-08)
(0 0 0)
(1.7194e-10 -1.41372e-08 7.61267e-09)
(8.28635e-11 -2.69646e-08 1.45996e-08)
(-5.01042e-10 -3.89765e-08 2.12897e-08)
(-1.83467e-09 -5.05998e-08 2.79467e-08)
(-4.2153e-09 -6.21318e-08 3.47889e-08)
(-7.97741e-09 -7.36983e-08 4.20269e-08)
(-1.35242e-08 -8.53293e-08 4.98916e-08)
(-2.14071e-08 -9.70384e-08 5.85994e-08)
(-3.24011e-08 -1.08836e-07 6.82786e-08)
(-4.75684e-08 -1.20689e-07 7.8832e-08)
(-6.84188e-08 -1.32492e-07 8.99374e-08)
(-9.71411e-08 -1.44166e-07 1.01146e-07)
(-1.36387e-07 -1.55807e-07 1.11654e-07)
(-1.8681e-07 -1.67489e-07 1.20156e-07)
(-2.37984e-07 -1.77925e-07 1.25306e-07)
(-2.67658e-07 -1.86488e-07 1.29147e-07)
(0 0 0)
(5.66551e-10 -2.06966e-08 1.12486e-08)
(7.43199e-10 -3.94791e-08 2.15564e-08)
(2.13101e-10 -5.70736e-08 3.14018e-08)
(-1.36183e-09 -7.40739e-08 4.1162e-08)
(-4.35419e-09 -9.09073e-08 5.11634e-08)
(-9.17496e-09 -1.0782e-07 6.1748e-08)
(-1.6308e-08 -1.24927e-07 7.32724e-08)
(-2.63732e-08 -1.42259e-07 8.60405e-08)
(-4.01732e-08 -1.59786e-07 1.00199e-07)
(-5.87356e-08 -1.77382e-07 1.15608e-07)
(-8.33816e-08 -1.948e-07 1.31838e-07)
(-1.15737e-07 -2.11818e-07 1.48256e-07)
(-1.56837e-07 -2.28369e-07 1.63824e-07)
(-2.04097e-07 -2.44408e-07 1.77018e-07)
(-2.45374e-07 -2.58618e-07 1.86328e-07)
(-2.68009e-07 -2.69845e-07 1.933e-07)
(0 0 0)
(1.27796e-09 -2.65953e-08 1.46603e-08)
(2.0307e-09 -5.07354e-08 2.80706e-08)
(1.89355e-09 -7.33374e-08 4.0834e-08)
(4.97171e-10 -9.51405e-08 5.34271e-08)
(-2.54257e-09 -1.16715e-07 6.62932e-08)
(-7.6321e-09 -1.38449e-07 7.99067e-08)
(-1.52273e-08 -1.60553e-07 9.47406e-08)
(-2.58684e-08 -1.83086e-07 1.11167e-07)
(-4.02041e-08 -2.0598e-07 1.29355e-07)
(-5.90116e-08 -2.29012e-07 1.49161e-07)
(-8.33154e-08 -2.5179e-07 1.70089e-07)
(-1.14396e-07 -2.73877e-07 1.91389e-07)
(-1.52947e-07 -2.94821e-07 2.11864e-07)
(-1.9664e-07 -3.14027e-07 2.2975e-07)
(-2.35229e-07 -3.29803e-07 2.42963e-07)
(-2.58593e-07 -3.42285e-07 2.52502e-07)
(0 0 0)
(2.32951e-09 -3.15874e-08 1.77605e-08)
(3.98579e-09 -6.02534e-08 3.39722e-08)
(4.59971e-09 -8.70729e-08 4.93402e-08)
(3.81952e-09 -1.12917e-07 6.44303e-08)
(1.30954e-09 -1.38495e-07 7.97941e-08)
(-3.26055e-09 -1.64337e-07 9.6027e-08)
(-1.02308e-08 -1.9075e-07 1.13702e-07)
(-1.99554e-08 -2.17826e-07 1.33252e-07)
(-3.28073e-08 -2.45482e-07 1.54873e-07)
(-4.92193e-08 -2.73435e-07 1.78428e-07)
(-6.98633e-08 -3.01175e-07 2.03399e-07)
(-9.58246e-08 -3.28039e-07 2.28975e-07)
(-1.28284e-07 -3.53063e-07 2.53844e-07)
(-1.67042e-07 -3.74489e-07 2.75964e-07)
(-2.05329e-07 -3.89018e-07 2.92601e-07)
(-2.33324e-07 -3.98271e-07 3.04363e-07)
(0 0 0)
(3.68823e-09 -3.54439e-08 2.04693e-08)
(6.54443e-09 -6.76009e-08 3.91153e-08)
(8.23366e-09 -9.76726e-08 5.6723e-08)
(8.45804e-09 -1.2664e-07 7.39276e-08)
(6.96646e-09 -1.5534e-07 9.13687e-08)
(3.55019e-09 -1.8442e-07 1.09737e-07)
(-1.95843e-09 -2.14264e-07 1.29687e-07)
(-9.67125e-09 -2.45003e-07 1.51702e-07)
(-1.96269e-08 -2.76561e-07 1.76001e-07)
(-3.18221e-08 -3.0863e-07 2.02446e-07)
(-4.63991e-08 -3.40665e-07 2.30514e-07)
(-6.39281e-08 -3.71972e-07 2.59376e-07)
(-8.55415e-08 -4.01519e-07 2.87626e-07)
(-1.12554e-07 -4.27224e-07 3.1291e-07)
(-1.42928e-07 -4.44691e-07 3.31852e-07)
(-1.78972e-07 -4.39973e-07 3.45187e-07)
(0 0 0)
(5.27072e-09 -3.7978e-08 2.27268e-08)
(9.54695e-09 -7.24378e-08 4.33929e-08)
(1.25536e-08 -1.0467e-07 6.28393e-08)
(1.40621e-08 -1.35736e-07 8.17457e-08)
(1.39196e-08 -1.66561e-07 1.00807e-07)
(1.20541e-08 -1.97871e-07 1.20781e-07)
(8.47893e-09 -2.30112e-07 1.42374e-07)
(3.32106e-09 -2.63448e-07 1.66104e-07)
(-3.13371e-09 -2.97804e-07 1.92186e-07)
(-1.04267e-08 -3.32853e-07 2.20466e-07)
(-1.80356e-08 -3.68035e-07 2.504e-07)
(-2.55523e-08 -4.02728e-07 2.81133e-07)
(-3.26185e-08 -4.36238e-07 3.1117e-07)
(-3.8317e-08 -4.67402e-07 3.37817e-07)
(-4.03765e-08 -4.92934e-07 3.57044e-07)
(-5.40318e-08 -5.2196e-07 3.69555e-07)
(0 0 0)
(6.96017e-09 -3.90687e-08 2.44954e-08)
(1.2766e-08 -7.45509e-08 4.67419e-08)
(1.72123e-08 -1.07781e-07 6.76087e-08)
(2.01425e-08 -1.39853e-07 8.77915e-08)
(2.14966e-08 -1.71731e-07 1.08012e-07)
(2.13238e-08 -2.04184e-07 1.29056e-07)
(1.97845e-08 -2.37696e-07 1.51652e-07)
(1.71842e-08 -2.72449e-07 1.76316e-07)
(1.4038e-08 -3.08349e-07 2.03238e-07)
(1.11255e-08 -3.44991e-07 2.32209e-07)
(9.42981e-09 -3.81709e-07 2.62633e-07)
(1.00349e-08 -4.17681e-07 2.93584e-07)
(1.43857e-08 -4.51833e-07 3.23528e-07)
(2.52927e-08 -4.82348e-07 3.49734e-07)
(4.55219e-08 -5.0463e-07 3.67721e-07)
(1.15043e-07 -5.24406e-07 3.76665e-07)
(0 0 0)
(0 0 0)
(0 0 0)
(0 0 0)
(0 0 0)
(0 0 0)
(0 0 0)
(0 0 0)
(0 0 0)
(0 0 0)
(0 0 0)
(0 0 0)
(0 0 0)
(0 0 0)
(0 0 0)
(0 0 0)
(-1.25578e-07 -2.62129e-08 1.25081e-08)
(0 0 0)
(-2.30535e-10 -7.25807e-09 2.94022e-09)
(-5.73988e-10 -1.3838e-08 5.64063e-09)
(-1.1702e-09 -1.99955e-08 8.2321e-09)
(-2.17605e-09 -2.59925e-08 1.08252e-08)
(-3.7737e-09 -3.19956e-08 1.35018e-08)
(-6.16604e-09 -3.80305e-08 1.63296e-08)
(-9.60216e-09 -4.40899e-08 1.93948e-08)
(-1.44252e-08 -5.01931e-08 2.27962e-08)
(-2.11335e-08 -5.63964e-08 2.66047e-08)
(-3.04802e-08 -6.27679e-08 3.07642e-08)
(-4.36303e-08 -6.93194e-08 3.51439e-08)
(-6.26293e-08 -7.61055e-08 3.9609e-08)
(-9.13572e-08 -8.34109e-08 4.39654e-08)
(-1.35949e-07 -9.15974e-08 4.80148e-08)
(-1.9697e-07 -9.98462e-08 5.13884e-08)
(-2.62418e-07 -9.98106e-08 5.04636e-08)
(0 0 0)
(-3.13799e-10 -1.43221e-08 5.83214e-09)
(-8.52083e-10 -2.73109e-08 1.11833e-08)
(-1.88146e-09 -3.94956e-08 1.63133e-08)
(-3.68956e-09 -5.13334e-08 2.14305e-08)
(-6.60121e-09 -6.31149e-08 2.66918e-08)
(-1.09816e-08 -7.49569e-08 3.22548e-08)
(-1.72698e-08 -8.68977e-08 3.8306e-08)
(-2.60397e-08 -9.8982e-08 4.50312e-08)
(-3.80797e-08 -1.11274e-07 5.25245e-08)
(-5.44655e-08 -1.23788e-07 6.06828e-08)
(-7.66475e-08 -1.36412e-07 6.923e-08)
(-1.06717e-07 -1.49084e-07 7.781e-08)
(-1.47192e-07 -1.61845e-07 8.59113e-08)
(-1.98283e-07 -1.7436e-07 9.28087e-08)
(-2.4903e-07 -1.84631e-07 9.75884e-08)
(-2.76343e-07 -1.91736e-07 1.00851e-07)
(0 0 0)
(-1.30475e-10 -2.09695e-08 8.62055e-09)
(-5.97947e-10 -4.00073e-08 1.65224e-08)
(-1.76527e-09 -5.78674e-08 2.40782e-08)
(-4.00549e-09 -7.51577e-08 3.15754e-08)
(-7.73079e-09 -9.23073e-08 3.92575e-08)
(-1.33952e-08 -1.09561e-07 4.73889e-08)
(-2.15234e-08 -1.27045e-07 5.62541e-08)
(-3.27591e-08 -1.44821e-07 6.61022e-08)
(-4.79189e-08 -1.629e-07 7.70472e-08)
(-6.80073e-08 -1.81189e-07 8.89683e-08)
(-9.42698e-08 -1.99454e-07 1.01456e-07)
(-1.28137e-07 -2.1745e-07 1.13972e-07)
(-1.70306e-07 -2.3498e-07 1.25843e-07)
(-2.17562e-07 -2.51587e-07 1.36185e-07)
(-2.57352e-07 -2.65438e-07 1.43926e-07)
(-2.76848e-07 -2.75512e-07 1.49166e-07)
(0 0 0)
(4.03881e-10 -2.69538e-08 1.124e-08)
(3.50709e-10 -5.14317e-08 2.15277e-08)
(-5.73625e-10 -7.43692e-08 3.1324e-08)
(-2.78377e-09 -9.6515e-08 4.09891e-08)
(-6.70429e-09 -1.18438e-07 5.08635e-08)
(-1.27881e-08 -1.40531e-07 6.13173e-08)
(-2.15386e-08 -1.63022e-07 7.27225e-08)
(-3.35178e-08 -1.85984e-07 8.53746e-08)
(-4.93619e-08 -2.09357e-07 9.9427e-08)
(-6.98187e-08 -2.32936e-07 1.14737e-07)
(-9.58091e-08 -2.56333e-07 1.308e-07)
(-1.28335e-07 -2.7906e-07 1.4695e-07)
(-1.67655e-07 -3.0052e-07 1.62378e-07)
(-2.10756e-07 -3.19788e-07 1.76046e-07)
(-2.47204e-07 -3.34889e-07 1.8645e-07)
(-2.67103e-07 -3.46223e-07 1.93303e-07)
(0 0 0)
(1.31895e-09 -3.20172e-08 1.36207e-08)
(2.0497e-09 -6.10836e-08 2.606e-08)
(1.7673e-09 -8.82882e-08 3.78521e-08)
(7.63068e-11 -1.145e-07 4.94253e-08)
(-3.40294e-09 -1.40433e-07 6.12094e-08)