/*--------------------------------*- C++ -*----------------------------------*\
| =========                 |                                                 |
| \\      /  F ield         | OpenFOAM: The Open Source CFD Toolbox           |
|  \\    /   O peration     | Version:  v1912                                 |
|   \\  /    A nd           | Website:  www.openfoam.com                      |
|    \\/     M anipulation  |                                                 |
\*---------------------------------------------------------------------------*/
FoamFile
{
    version     2.0;
    format      ascii;
    class       volScalarField;
    location    "0.12/fluid";
    object      T;
}
// * * * * * * * * * * * * * * * * * * * * * * * * * * * * * * * * * * * * * //

dimensions      [0 0 0 1 0 0 0];


internalField   nonuniform List<scalar> 
14592
(
273.027
273.084
273.147
273.223
273.324
273.466
273.673
273.977
274.418
275.047
275.922
277.111
278.689
280.745
283.411
286.979
273.027
273.083
273.146
273.221
273.321
273.462
273.666
273.967
274.403
275.026
275.894
277.076
278.648
280.701
283.37
286.946
273.027
273.082
273.144
273.218
273.315
273.453
273.653
273.946
274.374
274.985
275.84
277.007
278.566
280.613
283.288
286.891
273.026
273.08
273.141
273.213
273.307
273.44
273.633
273.917
274.331
274.924
275.757
276.899
278.435
280.468
283.149
286.795
273.026
273.078
273.137
273.206
273.296
273.423
273.606
273.877
274.272
274.841
275.641
276.745
278.241
280.243
282.923
286.631
273.025
273.076
273.132
273.198
273.283
273.402
273.574
273.828
274.199
274.733
275.489
276.536
277.968
279.908
282.559
286.342
273.024
273.073
273.127
273.189
273.268
273.378
273.536
273.769
274.111
274.603
275.299
276.268
277.599
279.423
281.975
285.793
273.023
273.07
273.121
273.179
273.252
273.351
273.494
273.704
274.01
274.452
275.076
275.942
277.13
278.756
281.048
284.634
273.028
273.088
273.155
273.238
273.348
273.504
273.733
274.069
274.559
275.256
276.226
277.544
279.293
281.562
284.463
288.15
273.028
273.087
273.154
273.235
273.344
273.499
273.725
274.058
274.542
275.233
276.196
277.506
279.249
281.517
284.423
288.121
273.028
273.086
273.151
273.231
273.338
273.489
273.71
274.036
274.51
275.189
276.137
277.433
279.162
281.425
284.341
288.071
273.027
273.084
273.148
273.226
273.329
273.475
273.688
274.003
274.463
275.122
276.047
277.317
279.023
281.273
284.202
287.984
273.027
273.082
273.144
273.219
273.317
273.456
273.66
273.96
274.399
275.03
275.92
277.149
278.814
281.036
283.972
287.83
273.026
273.079
273.139
273.21
273.303
273.434
273.624
273.906
274.318
274.912
275.754
276.922
278.518
280.678
283.596
287.55
273.025
273.077
273.133
273.2
273.286
273.407
273.583
273.841
274.221
274.769
275.545
276.627
278.115
280.154
282.977
286.999
273.024
273.073
273.127
273.189
273.268
273.378
273.536
273.769
274.11
274.602
275.299
276.268
277.599
279.423
281.975
285.792
273.03
273.092
273.162
273.25
273.369
273.538
273.786
274.151
274.681
275.435
276.482
277.898
279.762
282.15
285.122
288.701
273.029
273.091
273.161
273.248
273.365
273.532
273.778
274.139
274.663
275.41
276.45
277.858
279.717
282.103
285.081
288.675
273.029
273.09
273.159
273.244
273.359
273.522
273.762
274.115
274.629
275.363
276.387
277.78
279.626
282.008
284.998
288.626
273.028
273.088
273.155
273.238
273.349
273.507
273.738
274.08
274.578
275.292
276.291
277.657
279.479
281.851
284.857
288.539
273.028
273.085
273.151
273.23
273.336
273.487
273.707
274.033
274.509
275.194
276.156
277.479
279.259
281.604
284.622
288.387
273.027
273.083
273.145
273.221
273.321
273.462
273.669
273.975
274.422
275.067
275.977
277.236
278.946
281.229
284.234
288.106
273.026
273.079
273.139
273.21
273.303
273.433
273.624
273.905
274.318
274.912
275.753
276.921
278.518
280.678
283.595
287.55
273.025
273.076
273.132
273.198
273.283
273.402
273.574
273.827
274.198
274.733
275.488
276.536
277.967
279.907
282.559
286.341
273.031
273.095
273.169
273.262
273.387
273.567
273.831
274.22
274.783
275.581
276.686
278.17
280.107
282.551
285.524
288.985
273.03
273.094
273.168
273.259
273.383
273.561
273.822
274.206
274.764
275.555
276.652
278.129
280.06
282.503
285.483
288.959
273.03
273.093
273.165
273.255
273.376
273.55
273.805
274.181
274.728
275.506
276.586
278.047
279.965
282.406
285.4
288.91
273.029
273.091
273.161
273.248
273.366
273.534
273.781
274.144
274.674
275.431
276.485
277.918
279.813
282.243
285.255
288.823
273.029
273.088
273.156
273.24
273.352
273.513
273.748
274.095
274.601
275.327
276.343
277.732
279.585
281.989
285.015
288.669
273.028
273.085
273.151
273.23
273.336
273.486
273.707
274.033
274.509
275.193
276.155
277.478
279.258
281.603
284.621
288.386
273.027
273.082
273.144
273.219
273.317
273.456
273.659
273.959
274.398
275.03
275.919
277.148
278.813
281.035
283.971
287.83
273.026
273.078
273.137
273.206
273.296
273.422
273.606
273.876
274.272
274.84
275.64
276.744
278.24
280.242
282.922
286.631
273.031
273.098
273.174
273.271
273.402
273.591
273.868
274.274
274.862
275.694
276.839
278.369
280.348
282.816
285.77
289.141
273.031
273.097
273.173
273.268
273.398
273.585
273.858
274.26
274.843
275.667
276.804
278.326
280.299
282.767
285.728
289.114
273.031
273.096
273.17
273.264
273.391
273.573
273.841
274.234
274.805
275.616
276.736
278.242
280.203
282.668
285.644
289.065
273.03
273.094
273.166
273.257
273.38
273.556
273.815
274.196
274.749
275.537
276.631
278.109
280.046
282.502
285.497
288.977
273.029
273.091
273.161
273.248
273.366
273.534
273.78
274.144
274.673
275.43
276.484
277.917
279.812
282.242
285.254
288.822
273.028
273.088
273.155
273.238
273.349
273.506
273.738
274.079
274.577
275.29
276.289
277.655
279.477
281.848
284.855
288.538
273.027
273.084
273.148
273.226
273.329
273.474
273.688
274.002
274.462
275.12
276.045
277.314
279.02
281.27
284.2
287.982
273.026
273.08
273.14
273.213
273.307
273.439
273.632
273.916
274.33
274.923
275.755
276.897
278.432
280.465
283.146
286.794
273.032
273.1
273.178
273.278
273.413
273.609
273.895
274.315
274.92
275.775
276.947
278.505
280.507
282.983
285.917
289.228
273.032
273.099
273.177
273.275
273.409
273.602
273.885
274.3
274.9
275.747
276.911
278.462
280.458
282.934
285.875
289.201
273.031
273.098
273.174
273.27
273.402
273.59
273.867
274.273
274.862
275.694
276.842
278.376
280.36
282.833
285.79
289.151
273.031
273.095
273.17
273.263
273.39
273.573
273.84
274.234
274.804
275.614
276.734
278.24
280.2
282.665
285.641
289.063
273.03
273.093
273.165
273.254
273.376
273.549
273.805
274.18
274.726
275.503
276.583
278.044
279.962
282.402
285.396
288.907
273.029
273.09
273.158
273.244
273.358
273.521
273.761
274.113
274.627
275.361
276.384
277.776
279.621
282.004
284.994
288.623
273.028
273.086
273.151
273.231
273.338
273.488
273.709
274.034
274.508
275.186
276.133
277.428
279.157
281.42
284.337
288.068
273.027
273.082
273.143
273.217
273.315
273.452
273.651
273.945
274.372
274.983
275.836
277.003
278.561
280.608
283.283
286.887
273.033
273.101
273.181
273.282
273.421
273.62
273.913
274.341
274.958
275.827
277.015
278.59
280.604
283.082
286
289.275
273.032
273.1
273.18
273.28
273.417
273.614
273.903
274.327
274.938
275.799
276.979
278.545
280.554
283.032
285.958
289.249
273.032
273.099
273.177
273.275
273.409
273.601
273.884
274.299
274.899
275.745
276.908
278.458
280.455
282.93
285.872
289.198
273.031
273.097
273.173
273.268
273.397
273.584
273.857
274.258
274.84
275.663
276.799
278.321
280.293
282.761
285.723
289.11
273.03
273.094
273.167
273.259
273.383
273.56
273.821
274.204
274.76
275.551
276.646
278.122
280.052
282.495
285.476
288.954
273.029
273.091
273.161
273.248
273.364
273.531
273.776
274.136
274.659
275.405
276.444
277.851
279.708
282.094
285.073
288.669
273.028
273.087
273.153
273.235
273.343
273.498
273.723
274.055
274.538
275.228
276.189
277.499
279.241
281.508
284.415
288.115
273.027
273.083
273.145
273.221
273.32
273.46
273.664
273.964
274.4
275.021
275.888
277.068
278.639
280.693
283.362
286.939
273.033
273.102
273.183
273.285
273.425
273.626
273.922
274.354
274.977
275.852
277.048
278.63
280.649
283.127
286.038
289.296
273.033
273.101
273.181
273.282
273.421
273.62
273.912
274.34
274.956
275.824
277.012
278.585
280.599
283.077
285.996
289.269
273.032
273.1
273.178
273.277
273.413
273.607
273.893
274.312
274.917
275.77
276.941
278.498
280.499
282.975
285.909
289.219
273.031
273.097
273.174
273.27
273.401
273.589
273.865
274.271
274.857
275.687
276.831
278.359
280.337
282.805
285.76
289.13
273.031
273.095
273.168
273.261
273.386
273.565
273.829
274.216
274.777
275.574
276.676
278.159
280.095
282.538
285.512
288.974
273.03
273.091
273.162
273.25
273.368
273.536
273.783
274.147
274.675
275.427
276.472
277.887
279.749
282.136
285.109
288.689
273.028
273.088
273.154
273.237
273.346
273.502
273.73
274.065
274.553
275.248
276.216
277.533
279.28
281.548
284.45
288.136
273.027
273.083
273.146
273.222
273.323
273.464
273.671
273.973
274.413
275.04
275.913
277.1
278.676
280.732
283.397
286.962
273.019
273.058
273.097
273.136
273.179
273.23
273.297
273.387
273.511
273.676
273.887
274.146
274.446
274.771
275.097
275.387
273.019
273.058
273.096
273.135
273.177
273.228
273.294
273.383
273.505
273.668
273.877
274.133
274.429
274.752
275.074
275.362
273.019
273.057
273.095
273.134
273.175
273.225
273.289
273.376
273.495
273.653
273.857
274.107
274.398
274.714
275.03
275.313
273.019
273.057
273.094
273.132
273.172
273.219
273.281
273.365
273.479
273.632
273.828
274.07
274.351
274.656
274.963
275.238
273.019
273.056
273.092
273.129
273.168
273.213
273.271
273.351
273.459
273.604
273.79
274.02
274.287
274.579
274.872
275.135
273.018
273.055
273.091
273.126
273.162
273.205
273.26
273.333
273.434
273.569
273.743
273.958
274.208
274.482
274.756
275.004
273.018
273.054
273.088
273.122
273.157
273.196
273.246
273.314
273.406
273.529
273.688
273.885
274.115
274.366
274.618
274.846
273.018
273.053
273.086
273.118
273.15
273.186
273.231
273.292
273.374
273.485
273.627
273.804
274.01
274.235
274.462
274.665
273.02
273.059
273.098
273.139
273.184
273.238
273.31
273.408
273.543
273.724
273.957
274.245
274.583
274.953
275.326
275.663
273.02
273.059
273.098
273.138
273.182
273.236
273.307
273.404
273.537
273.716
273.946
274.231
274.565
274.931
275.302
275.636
273.019
273.058
273.097
273.137
273.18
273.233
273.302
273.396
273.526
273.7
273.925
274.204
274.531
274.89
275.254
275.583
273.019
273.058
273.096
273.134
273.177
273.227
273.294
273.385
273.509
273.677
273.894
274.164
274.48
274.828
275.182
275.501
273.019
273.057
273.094
273.132
273.172
273.22
273.283
273.369
273.488
273.647
273.853
274.11
274.411
274.744
275.082
275.389
273.019
273.056
273.092
273.128
273.167
273.212
273.271
273.351
273.461
273.609
273.802
274.042
274.325
274.637
274.955
275.244
273.018
273.054
273.09
273.124
273.161
273.203
273.256
273.33
273.43
273.566
273.743
273.963
274.222
274.509
274.801
275.067
273.018
273.053
273.087
273.12
273.154
273.192
273.241
273.306
273.396
273.518
273.676
273.873
274.106
274.363
274.625
274.863
273.02
273.061
273.102
273.145
273.194
273.255
273.337
273.45
273.607
273.82
274.097
274.445
274.858
275.32
275.794
276.228
273.02
273.06
273.101
273.144
273.193
273.253
273.334
273.445
273.6
273.81
274.085
274.429
274.839
275.296
275.766
276.198
273.02
273.06
273.1
273.143
273.19
273.249
273.327
273.436
273.588
273.793
274.061
274.398
274.8
275.249
275.713
276.138
273.02
273.059
273.099
273.14
273.186
273.243
273.319
273.423
273.569
273.767
274.026
274.352
274.742
275.178
275.63
276.046
273.019
273.058
273.097
273.137
273.181
273.235
273.307
273.406
273.544
273.732
273.979
274.29
274.662
275.081
275.514
275.915
273.019
273.057
273.095
273.133
273.175
273.226
273.293
273.386
273.514
273.69
273.92
274.212
274.561
274.955
275.364
275.742
273.019
273.056
273.092
273.129
273.168
273.215
273.277
273.362
273.479
273.64
273.851
274.119
274.439
274.801
275.177
275.526
273.018
273.054
273.09
273.124
273.161
273.204
273.259
273.335
273.441
273.584
273.774
274.013
274.3
274.624
274.96
275.272
273.021
273.063
273.107
273.154
273.209
273.279
273.376
273.511
273.7
273.96
274.304
274.741
275.272
275.877
276.513
277.11
273.021
273.063
273.106
273.153
273.207
273.277
273.372
273.505
273.693
273.949
274.289
274.723
275.249
275.849
276.482
277.076
273.021
273.062
273.105
273.151
273.204
273.272
273.365
273.495
273.678
273.929
274.262
274.687
275.204
275.795
276.42
277.008
273.02
273.062
273.104
273.148
273.2
273.265
273.355
273.48
273.656
273.898
274.22
274.633
275.135
275.712
276.323
276.9
273.02
273.061
273.102
273.145
273.194
273.257
273.341
273.46
273.628
273.858
274.165
274.559
275.04
275.595
276.185
276.743
273.02
273.059
273.099
273.141
273.188
273.246
273.325
273.436
273.592
273.808
274.095
274.465
274.918
275.441
275.999
276.531
273.019
273.058
273.096
273.136
273.18
273.234
273.307
273.408
273.551
273.748
274.012
274.351
274.768
275.249
275.764
276.255
273.019
273.056
273.093
273.131
273.171
273.221
273.286
273.377
273.505
273.682
273.918
274.222
274.594
275.023
275.483
275.92
273.022
273.067
273.114
273.166
273.228
273.31
273.425
273.588
273.819
274.14
274.57
275.127
275.816
276.622
277.497
278.343
273.022
273.066
273.113
273.164
273.226
273.307
273.421
273.582
273.81
274.127
274.553
275.105
275.789
276.591
277.462
278.306
273.022
273.066
273.112
273.162
273.223
273.302
273.412
273.57
273.793
274.103
274.52
275.063
275.736
276.528
277.391
278.229
273.021
273.065
273.11
273.159
273.218
273.294
273.401
273.552
273.768
274.067
274.472
274.998
275.655
276.43
277.278
278.105
273.021
273.063
273.107
273.155
273.211
273.284
273.385
273.529
273.734
274.019
274.406
274.91
275.541
276.289
277.113
277.92
273.021
273.062
273.105
273.15
273.203
273.272
273.366
273.501
273.692
273.959
274.322
274.796
275.391
276.1
276.884
277.658
273.02
273.06
273.101
273.145
273.194
273.258
273.344
273.468
273.643
273.888
274.221
274.656
275.204
275.858
276.583
277.303
273.019
273.058
273.098
273.139
273.185
273.242
273.32
273.431
273.588
273.808
274.105
274.495
274.984
275.566
276.211
276.851
273.023
273.071
273.121
273.179
273.25
273.346
273.482
273.678
273.958
274.35
274.884
275.586
276.473
277.543
278.749
279.967
273.023
273.07
273.12
273.177
273.248
273.343
273.477
273.671
273.948
274.336
274.864
275.56
276.443
277.508
278.71
279.928
273.023
273.069
273.119
273.175
273.244
273.337
273.468
273.657
273.928
274.308
274.826
275.511
276.382
277.436
278.631
279.846
273.022
273.068
273.117
273.171
273.238
273.328
273.454
273.636
273.898
274.266
274.769
275.436
276.287
277.323
278.503
279.71
273.022
273.067
273.114
273.167
273.231
273.316
273.436
273.609
273.858
274.209
274.691
275.331
276.152
277.157
278.311
279.5
273.022
273.065
273.111
273.161
273.222
273.302
273.414
273.576
273.809
274.138
274.59
275.194
275.97
276.927
278.034
279.187
273.021
273.063
273.107
273.155
273.211
273.285
273.389
273.537
273.751
274.053
274.468
275.023
275.739
276.624
277.654
278.737
273.02
273.061
273.103
273.148
273.2
273.267
273.36
273.494
273.685
273.956
274.328
274.824
275.462
276.249
277.163
278.124
273.024
273.075
273.13
273.193
273.274
273.386
273.545
273.777
274.11
274.581
275.229
276.093
277.211
278.6
280.239
282.011
273.024
273.074
273.129
273.192
273.272
273.382
273.539
273.768
274.098
274.564
275.206
276.065
277.176
278.56
280.198
281.972
273.024
273.073
273.127
273.189
273.267
273.375
273.528
273.752
274.075
274.532
275.163
276.009
277.107
278.482
280.115
281.891
273.024
273.072
273.125
273.185
273.261
273.364
273.513
273.729
274.041
274.483
275.097
275.922
276.999
278.355
279.977
281.754
273.023
273.071
273.121
273.18
273.252
273.351
273.492
273.697
273.995
274.418
275.005
275.8
276.842
278.165
279.762
281.533
273.023
273.069
273.118
273.173
273.242
273.334
273.466
273.659
273.937
274.334
274.887
275.637
276.628
277.894
279.442
281.185
273.022
273.067
273.114
273.166
273.23
273.315
273.437
273.613
273.869
274.234
274.742
275.434
276.349
277.525
278.978
280.641
273.021
273.064
273.109
273.158
273.217
273.295
273.404
273.563
273.792
274.119
274.574
275.192
276.007
277.052
278.341
279.822
273.026
273.079
273.138
273.208
273.299
273.426
273.61
273.878
274.266
274.818
275.583
276.615
277.973
279.71
281.87
284.444
273.026
273.079
273.137
273.207
273.297
273.422
273.603
273.868
274.253
274.799
275.557
276.583
277.935
279.668
281.829
284.408
273.025
273.078
273.135
273.203
273.291
273.414
273.591
273.85
274.227
274.762
275.508
276.52
277.859
279.584
281.745
284.336
273.025
273.076
273.133
273.199
273.284
273.402
273.573
273.824
274.188
274.708
275.433
276.423
277.739
279.446
281.604
284.213
273.024
273.074
273.129
273.193
273.274
273.387
273.55
273.788
274.135
274.633
275.329
276.284
277.562
279.236
281.378
284.008
273.024
273.072
273.125
273.186
273.263
273.368
273.521
273.744
274.07
274.537
275.194
276.097
277.316
278.929
281.028
283.664
273.023
273.07
273.12
273.178
273.249
273.347
273.487
273.692
273.991
274.421
275.026
275.86
276.989
278.497
280.49
283.07
273.022
273.067
273.115
273.169
273.234
273.323
273.449
273.634
273.902
274.288
274.829
275.574
276.581
277.922
279.695
282.028
273.022
273.067
273.115
273.169
273.234
273.323
273.449
273.634
273.902
274.288
274.829
275.574
276.581
277.922
279.695
282.028
273.021
273.064
273.109
273.158
273.217
273.295
273.404
273.562
273.792
274.119
274.574
275.191
276.007
277.052
278.34
279.822
273.02
273.061
273.103
273.148
273.2
273.267
273.36
273.494
273.685
273.956
274.328
274.824
275.462
276.249
277.163
278.124
273.019
273.058
273.098
273.139
273.185
273.242
273.32
273.431
273.588
273.807
274.105
274.495
274.984
275.566
276.211
276.85
273.019
273.056
273.093
273.131
273.171
273.221
273.286
273.377
273.505
273.682
273.918
274.222
274.594
275.023
275.482
275.92
273.018
273.054
273.09
273.124
273.161
273.204
273.259
273.335
273.44
273.584
273.774
274.013
274.3
274.624
274.96
275.272
273.018
273.053
273.087
273.12
273.154
273.192
273.241
273.306
273.396
273.518
273.676
273.873
274.106
274.363
274.624
274.863
273.018
273.053
273.086
273.118
273.15
273.186
273.231
273.292
273.374
273.484
273.627
273.804
274.01
274.235
274.461
274.665
273.023
273.07
273.12
273.178
273.249
273.347
273.487
273.692
273.991
274.421
275.025
275.859
276.989
278.497
280.489
283.07
273.022
273.067
273.113
273.166
273.23
273.315
273.437
273.613
273.869
274.233
274.742
275.433
276.348
277.525
278.977
280.641
273.021
273.063
273.107
273.155
273.211
273.285
273.388
273.537
273.751
274.052
274.468
275.023
275.739
276.624
277.654
278.737
273.02
273.06
273.101
273.145
273.194
273.258
273.344
273.467
273.643
273.888
274.22
274.656
275.204
275.857
276.583
277.302
273.019
273.058
273.096
273.136
273.18
273.234
273.306
273.408
273.551
273.748
274.012
274.351
274.767
275.249
275.764
276.255
273.019
273.056
273.092
273.129
273.168
273.215
273.277
273.361
273.479
273.64
273.851
274.118
274.439
274.801
275.177
275.526
273.018
273.054
273.09
273.124
273.161
273.203
273.256
273.33
273.43
273.566
273.742
273.962
274.222
274.509
274.801
275.067
273.018
273.054
273.088
273.122
273.157
273.196
273.246
273.313
273.405
273.529
273.688
273.885
274.115
274.365
274.618
274.845
273.024
273.072
273.125
273.186
273.263
273.368
273.52
273.744
274.069
274.536
275.193
276.097
277.315
278.929
281.027
283.663
273.023
273.069
273.118
273.173
273.242
273.334
273.466
273.658
273.937
274.334
274.887
275.637
276.627
277.893
279.441
281.184
273.022
273.065
273.111
273.161
273.222
273.302
273.414
273.576
273.809
274.137
274.59
275.193
275.97
276.926
278.033
279.186
273.021
273.062
273.105
273.15
273.203
273.272
273.366
273.5
273.692
273.959
274.321
274.795
275.39
276.099
276.883
277.657
273.02
273.059
273.099
273.141
273.188
273.246
273.325
273.436
273.592
273.807
274.095
274.464
274.917
275.44
275.999
276.53
273.019
273.057
273.095
273.133
273.175
273.226
273.293
273.385
273.514
273.689
273.92
274.211
274.561
274.954
275.363
275.742
273.019
273.056
273.092
273.128
273.167
273.212
273.271
273.351
273.461
273.609
273.802
274.042
274.324
274.637
274.955
275.243
273.018
273.055
273.091
273.126
273.162
273.205
273.26
273.333
273.434
273.569
273.743
273.957
274.208
274.481
274.756
275.003
273.024
273.074
273.129
273.193
273.274
273.387
273.549
273.788
274.135
274.632
275.328
276.282
277.56
279.235
281.377
284.007
273.023
273.071
273.121
273.179
273.252
273.351
273.492
273.697
273.994
274.417
275.004
275.798
276.841
278.163
279.761
281.532
273.022
273.067
273.114
273.167
273.231
273.316
273.436
273.609
273.858
274.208
274.69
275.33
276.15
277.155
278.309
279.498
273.021
273.063
273.107
273.155
273.211
273.284
273.385
273.529
273.733
274.019
274.405
274.909
275.54
276.288
277.111
277.919
273.02
273.06
273.102
273.145
273.194
273.257
273.341
273.46
273.627
273.857
274.164
274.558
275.039
275.593
276.183
276.742
273.019
273.058
273.097
273.137
273.181
273.235
273.307
273.406
273.544
273.732
273.978
274.289
274.661
275.08
275.513
275.914
273.019
273.057
273.094
273.132
273.172
273.22
273.283
273.369
273.487
273.646
273.852
274.109
274.41
274.743
275.081
275.388
273.019
273.056
273.092
273.129
273.167
273.213
273.271
273.35
273.459
273.603
273.79
274.019
274.286
274.578
274.871
275.134
273.025
273.076
273.132
273.199
273.284
273.402
273.573
273.823
274.186
274.706
275.431
276.42
277.736
279.443
281.601
284.211
273.024
273.072
273.124
273.185
273.26
273.364
273.512
273.728
274.039
274.482
275.095
275.92
276.997
278.352
279.974
281.751
273.022
273.068
273.117
273.171
273.238
273.327
273.454
273.636
273.897
274.264
274.767
275.434
276.285
277.32
278.501
279.708
273.021
273.065
273.11
273.159
273.217
273.294
273.4
273.552
273.767
274.066
274.47
274.997
275.653
276.428
277.276
278.103
273.02
273.062
273.104
273.148
273.2
273.265
273.354
273.479
273.655
273.897
274.219
274.631
275.133
275.71
276.321
276.898
273.02
273.059
273.099
273.14
273.186
273.243
273.318
273.423
273.568
273.766
274.025
274.351
274.74
275.177
275.628
276.044
273.019
273.057
273.096
273.134
273.176
273.227
273.293
273.384
273.509
273.676
273.893
274.162
274.479
274.827
275.18
275.5
273.019
273.057
273.094
273.131
273.172
273.219
273.281
273.365
273.479
273.631
273.827
274.069
274.349
274.655
274.961
275.236
273.025
273.078
273.135
273.203
273.291
273.413
273.59
273.849
274.224
274.76
275.505
276.516
277.854
279.579
281.74
284.332
273.024
273.073
273.127
273.189
273.267
273.374
273.527
273.751
274.073
274.529
275.159
276.005
277.103
278.477
280.11
281.887
273.023
273.069
273.119
273.175
273.244
273.336
273.467
273.656
273.926
274.305
274.823
275.508
276.378
277.432
278.627
279.842
273.022
273.066
273.111
273.162
273.222
273.301
273.412
273.569
273.791
274.101
274.518
275.06
275.733
276.525
277.388
278.226
273.021
273.062
273.105
273.151
273.204
273.272
273.364
273.494
273.677
273.927
274.26
274.684
275.201
275.792
276.417
277.005
273.02
273.06
273.1
273.142
273.19
273.248
273.327
273.436
273.586
273.791
274.059
274.396
274.797
275.247
275.71
276.136
273.019
273.058
273.097
273.136
273.18
273.232
273.301
273.395
273.525
273.699
273.924
274.202
274.529
274.888
275.252
275.581
273.019
273.057
273.095
273.134
273.175
273.224
273.288
273.375
273.494
273.652
273.856
274.105
274.396
274.711
275.027
275.311
273.026
273.079
273.137
273.206
273.296
273.421
273.602
273.866
274.249
274.795
275.552
276.576
277.927
279.66
281.821
284.4
273.024
273.074
273.128
273.191
273.271
273.381
273.538
273.766
274.095
274.56
275.201
276.059
277.169
278.553
280.191
281.965
273.023
273.07
273.12
273.177
273.247
273.342
273.476
273.669
273.945
274.332
274.86
275.555
276.436
277.501
278.703
279.921
273.022
273.066
273.113
273.164
273.226
273.307
273.419
273.58
273.808
274.124
274.549
275.1
275.784
276.585
277.456
278.3
273.021
273.063
273.106
273.153
273.207
273.276
273.371
273.504
273.691
273.946
274.286
274.719
275.244
275.844
276.477
277.071
273.02
273.06
273.101
273.144
273.192
273.252
273.333
273.444
273.599
273.808
274.082
274.426
274.835
275.292
275.762
276.194
273.02
273.059
273.098
273.138
273.182
273.236
273.306
273.403
273.536
273.714
273.944
274.228
274.562
274.928
275.298
275.632
273.019
273.058
273.096
273.135
273.177
273.228
273.293
273.382
273.504
273.666
273.874
274.13
274.426
274.748
275.071
275.359
273.026
273.079
273.138
273.208
273.298
273.425
273.607
273.875
274.262
274.812
275.574
276.605
277.961
279.698
281.858
284.431
273.024
273.075
273.129
273.193
273.273
273.384
273.543
273.773
274.106
274.575
275.221
276.084
277.201
278.589
280.228
282.001
273.023
273.07
273.121
273.178
273.249
273.345
273.48
273.675
273.954
274.345
274.877
275.578
276.464
277.534
278.739
279.958
273.022
273.067
273.113
273.165
273.227
273.309
273.423
273.586
273.816
274.135
274.564
275.12
275.808
276.614
277.489
278.335
273.021
273.063
273.107
273.154
273.208
273.278
273.374
273.509
273.698
273.956
274.299
274.736
275.265
275.869
276.506
277.103
273.02
273.061
273.102
273.145
273.193
273.254
273.336
273.448
273.605
273.816
274.093
274.44
274.853
275.314
275.788
276.222
273.02
273.059
273.098
273.139
273.183
273.238
273.309
273.407
273.541
273.721
273.954
274.241
274.578
274.947
275.32
275.658
273.019
273.058
273.097
273.136
273.178
273.229
273.296
273.386
273.509
273.673
273.884
274.142
274.441
274.766
275.092
275.383
273.017
273.051
273.084
273.114
273.144
273.176
273.216
273.269
273.341
273.438
273.563
273.717
273.898
274.095
274.293
274.47
273.017
273.05
273.081
273.11
273.137
273.166
273.201
273.246
273.308
273.39
273.498
273.63
273.784
273.952
274.12
274.271
273.016
273.049
273.079
273.106
273.131
273.156
273.186
273.224
273.276
273.345
273.435
273.546
273.674
273.814
273.954
274.079
273.016
273.048
273.077
273.102
273.125
273.147
273.172
273.204
273.246
273.303
273.378
273.469
273.575
273.689
273.803
273.905
273.016
273.047
273.075
273.099
273.12
273.14
273.161
273.187
273.221
273.268
273.329
273.403
273.49
273.583
273.676
273.758
273.016
273.046
273.074
273.097
273.116
273.134
273.151
273.173
273.202
273.24
273.29
273.352
273.423
273.5
273.576
273.643
273.015
273.046
273.073
273.095
273.114
273.13
273.145
273.164
273.188
273.221
273.264
273.317
273.378
273.443
273.508
273.565
273.015
273.045
273.072
273.095
273.113
273.128
273.142
273.159
273.181
273.211
273.251
273.299
273.355
273.415
273.473
273.525
273.017
273.052
273.085
273.116
273.147
273.181
273.224
273.282
273.361
273.467
273.606
273.778
273.981
274.206
274.433
274.64
273.017
273.05
273.082
273.112
273.14
273.171
273.208
273.257
273.324
273.416
273.534
273.681
273.855
274.045
274.237
274.412
273.017
273.049
273.08
273.107
273.133
273.16
273.192
273.233
273.29
273.366
273.465
273.588
273.732
273.89
274.049
274.192
273.016
273.048
273.077
273.104
273.127
273.151
273.177
273.212
273.258
273.321
273.403
273.504
273.621
273.75
273.878
273.994
273.016
273.047
273.076
273.1
273.122
273.143
273.165
273.193
273.231
273.283
273.349
273.431
273.527
273.631
273.734
273.827
273.016
273.046
273.074
273.098
273.118
273.136
273.155
273.179
273.21
273.252
273.307
273.375
273.453
273.538
273.622
273.697
273.016
273.046
273.073
273.096
273.115
273.132
273.149
273.169
273.195
273.232
273.278
273.336
273.403
273.475
273.546
273.609
273.015
273.046
273.073
273.095
273.114
273.13
273.145
273.164
273.188
273.221
273.264
273.317
273.378
273.443
273.508
273.565
273.018
273.053
273.087
273.12
273.153
273.192
273.241
273.307
273.4
273.525
273.691
273.9
274.15
274.431
274.722
274.99
273.017
273.051
273.084
273.115
273.146
273.18
273.222
273.279
273.358
273.466
273.607
273.785
273.997
274.233
274.477
274.701
273.017
273.05
273.081
273.11
273.138
273.168
273.204
273.252
273.318
273.408
273.526
273.674
273.849
274.043
274.241
274.422
273.016
273.049
273.079
273.106
273.131
273.157
273.188
273.228
273.282
273.356
273.453
273.573
273.715
273.871
274.029
274.173
273.016
273.048
273.077
273.103
273.126
273.148
273.174
273.207
273.251
273.311
273.39
273.487
273.601
273.726
273.852
273.965
273.016
273.047
273.075
273.1
273.121
273.141
273.163
273.19
273.227
273.276
273.341
273.421
273.513
273.614
273.715
273.805
273.016
273.046
273.074
273.098
273.118
273.136
273.155
273.179
273.21
273.252
273.307
273.375
273.453
273.538
273.622
273.697
273.016
273.046
273.074
273.097
273.116
273.134
273.151
273.173
273.202
273.24
273.29
273.352
273.423
273.5
273.576
273.643
273.018
273.055
273.09
273.125
273.163
273.207
273.264
273.345
273.457
273.611
273.817
274.082
274.404
274.775
275.168
275.542
273.018
273.053
273.087
273.12
273.154
273.193
273.243
273.311
273.407
273.539
273.715
273.938
274.209
274.519
274.844
275.149
273.017
273.051
273.084
273.115
273.145
273.179
273.222
273.28
273.36
273.47
273.616
273.8
274.022
274.273
274.534
274.775
273.017
273.05
273.081
273.11
273.138
273.167
273.203
273.251
273.317
273.407
273.526
273.675
273.854
274.052
274.257
274.444
273.016
273.049
273.079
273.106
273.131
273.157
273.187
273.226
273.28
273.353
273.449
273.57
273.711
273.868
274.027
274.172
273.016
273.048
273.077
273.103
273.126
273.148
273.174
273.207
273.251
273.311
273.39
273.487
273.601
273.726
273.852
273.965
273.016
273.047
273.076
273.1
273.122
273.143
273.165
273.193
273.231
273.283
273.349
273.431
273.527
273.631
273.734
273.827
273.016
273.047
273.075
273.099
273.12
273.14
273.161
273.186
273.221
273.268
273.329
273.403
273.49
273.583
273.676
273.758
273.019
273.057
273.094
273.132
273.174
273.226
273.295
273.392
273.53
273.721
273.981
274.319
274.741
275.239
275.786
276.322
273.018
273.055
273.09
273.126
273.164
273.209
273.269
273.353
273.47
273.634
273.854
274.138
274.49
274.901
275.345
275.773
273.018
273.053
273.087
273.12
273.154
273.194
273.245
273.315
273.413
273.549
273.731
273.965
274.25
274.578
274.927
275.257
273.017
273.051
273.084
273.115
273.145
273.179
273.222
273.28
273.361
273.472
273.62
273.808
274.034
274.291
274.558
274.808
273.017
273.05
273.081
273.11
273.138
273.167
273.203
273.251
273.317
273.407
273.526
273.675
273.854
274.052
274.257
274.444
273.016
273.049
273.079
273.106
273.131
273.157
273.188
273.228
273.282
273.356
273.453
273.573
273.715
273.871
274.029
274.173
273.016
273.048
273.077
273.104
273.127
273.151
273.177
273.212
273.258
273.321
273.403
273.504
273.621
273.75