/*--------------------------------*- C++ -*----------------------------------*\
| =========                 |                                                 |
| \\      /  F ield         | OpenFOAM: The Open Source CFD Toolbox           |
|  \\    /   O peration     | Version:  v1912                                 |
|   \\  /    A nd           | Website:  www.openfoam.com                      |
|    \\/     M anipulation  |                                                 |
\*---------------------------------------------------------------------------*/
FoamFile
{
    version     2.0;
    format      ascii;
    class       volVectorField;
    location    "0.12/fluid";
    object      U;
}
// * * * * * * * * * * * * * * * * * * * * * * * * * * * * * * * * * * * * * //

dimensions      [0 1 -1 0 0 0 0];


internalField   nonuniform List<vector> 
14592
(
(0.090851 0.0116603 -0.000386386)
(0.0840015 0.00555647 -0.000929771)
(0.0786973 0.00275483 -0.00143544)
(0.0763096 0.00125406 -0.00202429)
(0.0748419 0.00071303 -0.00281693)
(0.0736644 0.000511443 -0.00385126)
(0.0725703 0.0004598 -0.00519196)
(0.0713638 0.000476383 -0.00693372)
(0.0699353 0.000531214 -0.00921923)
(0.0682288 0.000605684 -0.0122678)
(0.0658606 0.000698061 -0.0164049)
(0.0632673 0.000741895 -0.0222063)
(0.0581514 0.000809877 -0.0305716)
(0.0535247 0.000516444 -0.0431677)
(0.0386679 0.00040355 -0.0627142)
(0.0236681 -0.00148034 -0.0752224)
(0.10355 0.010233 -0.000629355)
(0.103849 0.00662617 -0.00137137)
(0.103359 0.00414184 -0.00203018)
(0.102116 0.00255314 -0.00278491)
(0.100982 0.00186844 -0.0037965)
(0.0997311 0.00161339 -0.00512351)
(0.0984133 0.00160553 -0.00685055)
(0.0968821 0.0017521 -0.00910065)
(0.0950285 0.00201298 -0.0120582)
(0.0927799 0.00236381 -0.0160055)
(0.089673 0.00279517 -0.0213622)
(0.0861445 0.0032387 -0.0288618)
(0.0794486 0.00373165 -0.0396411)
(0.072911 0.00391306 -0.0558176)
(0.0532221 0.00411503 -0.0805212)
(0.0329773 0.00208348 -0.0962803)
(0.102686 0.00636336 -0.000629024)
(0.103733 0.00615824 -0.00137313)
(0.104461 0.00477047 -0.00203188)
(0.103895 0.00359949 -0.00278499)
(0.10325 0.00300589 -0.00379343)
(0.102288 0.00281233 -0.00511509)
(0.101164 0.00291693 -0.00683352)
(0.0997717 0.00325186 -0.00907091)
(0.0980218 0.00378395 -0.0120111)
(0.09585 0.00449384 -0.0159378)
(0.0927712 0.00537129 -0.0212726)
(0.089219 0.0063607 -0.0287654)
(0.082331 0.00745411 -0.0395589)
(0.0754749 0.00836094 -0.0558695)
(0.0549592 0.00907945 -0.0808136)
(0.0336479 0.00697275 -0.0971223)
(0.101441 0.00473471 -0.000586857)
(0.102359 0.00545535 -0.00130509)
(0.103499 0.0047121 -0.0019455)
(0.103407 0.00398194 -0.00267712)
(0.103169 0.00361946 -0.00365424)
(0.102509 0.0035966 -0.00493092)
(0.101628 0.00387208 -0.00658622)
(0.100444 0.00441504 -0.00873657)
(0.0988875 0.0052155 -0.0115583)
(0.0969007 0.00627497 -0.0153263)
(0.0939829 0.00760243 -0.0204494)
(0.0905585 0.00917445 -0.0276764)
(0.0836676 0.010984 -0.0381187)
(0.0766839 0.0127803 -0.0540777)
(0.0556783 0.0143671 -0.078565)
(0.0336351 0.0118624 -0.0951922)
(0.100939 0.00363681 -0.000526165)
(0.101685 0.00473206 -0.00120675)
(0.102901 0.00449908 -0.00182141)
(0.103063 0.00416264 -0.00252272)
(0.103112 0.00405795 -0.00345524)
(0.102723 0.00423904 -0.00466756)
(0.102103 0.00471297 -0.00623192)
(0.101175 0.0054844 -0.00825568)
(0.0998835 0.00657057 -0.0109025)
(0.098178 0.00800014 -0.014431)
(0.0955512 0.00980812 -0.0192248)
(0.0924163 0.0120131 -0.0260162)
(0.0857259 0.0146103 -0.0358493)
(0.0788016 0.0173891 -0.0511143)
(0.0572657 0.0199621 -0.0746017)
(0.0342293 0.0168192 -0.0914921)
(0.10072 0.00294086 -0.00045431)
(0.101366 0.00409109 -0.00108992)
(0.102613 0.00415493 -0.00167407)
(0.102958 0.00410311 -0.00233929)
(0.10324 0.00422752 -0.0032183)
(0.103103 0.00460563 -0.00435294)
(0.102748 0.00527111 -0.00580672)
(0.102109 0.00625684 -0.00767496)
(0.101137 0.00761133 -0.0101042)
(0.0997906 0.00940708 -0.0133302)
(0.0975597 0.0117401 -0.0177018)
(0.0948262 0.0147559 -0.0239252)
(0.0884514 0.018582 -0.0329526)
(0.0816514 0.0233555 -0.0472898)
(0.0594825 0.0287299 -0.0694066)
(0.035208 0.0266213 -0.0867276)
(0.100642 0.00236153 -0.000373321)
(0.101265 0.00346414 -0.000958293)
(0.102567 0.00372899 -0.00150807)
(0.103065 0.00389562 -0.00213244)
(0.103549 0.00421534 -0.00295056)
(0.103651 0.00476668 -0.00399624)
(0.103571 0.00559757 -0.00532198)
(0.103256 0.00675992 -0.00700698)
(0.102684 0.00832512 -0.00917278)
(0.101846 0.0103992 -0.0120163)
(0.1003 0.0131154 -0.0158198)
(0.0984764 0.0167217 -0.0211988)
(0.0933491 0.0213833 -0.0288876)
(0.0880777 0.0275861 -0.0413356)
(0.0666206 0.034861 -0.0602862)
(0.0417431 0.0329231 -0.0772015)
(0.100628 0.0018133 -0.000286942)
(0.101292 0.00280548 -0.000817947)
(0.102689 0.00320146 -0.00133112)
(0.103333 0.00353392 -0.00191191)
(0.104005 0.00401157 -0.00266493)
(0.104331 0.00470171 -0.00361532)
(0.10452 0.00565807 -0.00480369)
(0.104533 0.0069465 -0.00629197)
(0.104371 0.008662 -0.00817566)
(0.104047 0.0109596 -0.0106121)
(0.103176 0.0140574 -0.0138216)
(0.102158 0.0184831 -0.018334)
(0.0981102 0.0247888 -0.0247008)
(0.0940743 0.0353758 -0.0353252)
(0.0733895 0.0513897 -0.0513451)
(0.0507394 0.0688816 -0.0688254)
(0.0907989 0.0116649 -0.000542193)
(0.083804 0.00556758 -0.00110993)
(0.0783027 0.00276633 -0.0015733)
(0.075733 0.00126767 -0.00210536)
(0.0740565 0.000730453 -0.00283366)
(0.0726346 0.000534437 -0.00379816)
(0.0712326 0.000490695 -0.00505836)
(0.069627 0.000518357 -0.00669656)
(0.0676736 0.000589067 -0.00883035)
(0.0652786 0.000686946 -0.0116217)
(0.0620221 0.00081655 -0.0152918)
(0.0582922 0.000921835 -0.0201012)
(0.0519366 0.00110088 -0.0264764)
(0.0456163 0.00102103 -0.0342801)
(0.0306126 0.00123677 -0.0440607)
(0.0141349 2.65953e-05 -0.0399811)
(0.103484 0.0102531 -0.00080454)
(0.103601 0.00666135 -0.00157517)
(0.102863 0.00418406 -0.00218483)
(0.101381 0.00260483 -0.00287107)
(0.0999738 0.00193481 -0.00380403)
(0.0984017 0.00170085 -0.00504473)
(0.0966794 0.00172247 -0.0066717)
(0.0946232 0.00190948 -0.00879288)
(0.0920777 0.00222545 -0.0115619)
(0.0889167 0.00265072 -0.0151913)
(0.0846208 0.00318415 -0.0199713)
(0.0795579 0.00376476 -0.0262525)
(0.0711263 0.00445513 -0.0345805)
(0.0622825 0.00490352 -0.0448668)
(0.0421478 0.00546167 -0.0576096)
(0.0200504 0.00370175 -0.0524645)
(0.102621 0.00640214 -0.000806175)
(0.103487 0.00622211 -0.00157977)
(0.103967 0.00484954 -0.00218913)
(0.103163 0.0036969 -0.00287336)
(0.102248 0.00313087 -0.00380285)
(0.100968 0.002977 -0.00503802)
(0.0994442 0.0031372 -0.00665641)
(0.0975323 0.00354845 -0.0087651)
(0.095097 0.00418396 -0.0115171)
(0.09202 0.00503172 -0.0151254)
(0.0877562 0.00609232 -0.0198813)
(0.0826736 0.0073124 -0.0261451)
(0.0740354 0.00870972 -0.0344616)
(0.0648581 0.00993792 -0.0447857)
(0.0438499 0.0110346 -0.0575853)
(0.0206178 0.00864533 -0.0524576)
(0.101377 0.0047874 -0.000765332)
(0.102119 0.00554172 -0.00151404)
(0.103019 0.00482014 -0.00210558)
(0.102698 0.00411569 -0.00276903)
(0.102201 0.00379151 -0.00366829)
(0.101237 0.00382394 -0.00486012)
(0.0999754 0.00417727 -0.00641777)
(0.098297 0.00482791 -0.00844297)
(0.0960866 0.00577563 -0.0110818)
(0.0932356 0.00703351 -0.0145396)
(0.0891799 0.00862745 -0.0190968)
(0.0842854 0.0105384 -0.0251139)
(0.0756872 0.0127982 -0.0331125)
(0.0664395 0.0150616 -0.0431183)
(0.0448985 0.017206 -0.0555427)
(0.0208499 0.0141513 -0.0506999)
(0.100878 0.00370293 -0.000706443)
(0.101454 0.00483996 -0.00141879)
(0.10244 0.00463454 -0.00198542)
(0.102386 0.00433077 -0.00261963)
(0.102192 0.00427472 -0.0034759)
(0.10152 0.00452625 -0.00460579)
(0.100546 0.00509995 -0.00607617)
(0.0991602 0.00601047 -0.00798042)
(0.0972626 0.00728864 -0.0104534)
(0.0947567 0.00897976 -0.0136868)
(0.0910689 0.0111429 -0.017941)
(0.0865666 0.0138046 -0.0235693)
(0.0782517 0.0170144 -0.0310469)
(0.0691794 0.0204274 -0.0405003)
(0.0470265 0.0237764 -0.0522339)
(0.0218445 0.0198125 -0.0478309)
(0.100661 0.00301692 -0.000636792)
(0.101146 0.00421507 -0.00130566)
(0.102176 0.00431091 -0.00184281)
(0.10232 0.00429708 -0.00244222)
(0.102378 0.00447817 -0.00324695)
(0.101983 0.00493878 -0.00430218)
(0.101308 0.00572204 -0.00566664)
(0.100256 0.00687391 -0.00742279)
(0.0987394 0.00846162 -0.00969048)
(0.0966742 0.0105828 -0.0126427)
(0.0934804 0.0133718 -0.0165125)
(0.0895093 0.0170031 -0.0216423)
(0.0816067 0.0217006 -0.0284451)
(0.0728037 0.0274694 -0.0371866)
(0.0499118 0.0341892 -0.0480104)
(0.0233138 0.0311375 -0.0442575)
(0.100586 0.00244477 -0.000558359)
(0.101058 0.0035996 -0.00117828)
(0.102157 0.00389955 -0.00168226)
(0.102471 0.00410795 -0.00224229)
(0.102753 0.00449009 -0.00298842)
(0.102626 0.00513257 -0.00395828)
(0.102266 0.00609419 -0.00520049)
(0.101596 0.00744216 -0.00678318)
(0.10056 0.00927003 -0.00880493)
(0.0991204 0.0117145 -0.0114083)
(0.0967728 0.014955 -0.0147773)
(0.093955 0.0192807 -0.0192054)
(0.0875688 0.0249715 -0.0249713)
(0.0807286 0.0323828 -0.0324359)
(0.0585342 0.0413452 -0.041419)
(0.0312034 0.038158 -0.0382242)
(0.100575 0.00190007 -0.000474774)
(0.101098 0.00294653 -0.00104254)
(0.102307 0.00337913 -0.00151119)
(0.102786 0.00375516 -0.00202924)
(0.103279 0.00429801 -0.00271274)
(0.103408 0.00508361 -0.00359121)
(0.103361 0.00617759 -0.00470237)
(0.103079 0.00766308 -0.00609901)
(0.102537 0.00966118 -0.00785755)
(0.101727 0.0123666 -0.0100898)
(0.100205 0.0160594 -0.0129338)
(0.0984045 0.0213532 -0.0166414)
(0.0932988 0.0289835 -0.0213773)
(0.0880504 0.0413985 -0.0276326)
(0.0666134 0.060352 -0.0349272)
(0.0417491 0.0772885 -0.0329827)
(0.0907557 0.0116692 -0.000609708)
(0.083633 0.00557793 -0.00116345)
(0.0779544 0.00277719 -0.00157762)
(0.0752146 0.00128053 -0.00204618)
(0.0733404 0.00074686 -0.00269334)
(0.0716865 0.00055596 -0.00355745)
(0.069993 0.00051929 -0.00469067)
(0.0680096 0.000556373 -0.0061622)
(0.0655553 0.000639284 -0.00806829)
(0.062482 0.000752367 -0.0105346)
(0.0583161 0.000899551 -0.0137349)
(0.0533166 0.00102394 -0.0178247)
(0.0454708 0.00121689 -0.0231459)
(0.0371216 0.00115643 -0.0293258)
(0.0220254 0.00133038 -0.0367735)
(0.0070231 0.00019446 -0.0330482)
(0.103428 0.0102721 -0.000870062)
(0.103385 0.0066946 -0.00161863)
(0.102423 0.00422405 -0.00216732)
(0.100718 0.00265377 -0.00277458)
(0.0990521 0.00199753 -0.00360606)
(0.0971755 0.00178333 -0.00472001)
(0.0950711 0.00183239 -0.0061856)
(0.0925203 0.00205659 -0.00809385)
(0.0893203 0.00242205 -0.0105707)
(0.0852762 0.00291172 -0.0137812)
(0.0797986 0.00352705 -0.0179506)
(0.0731044 0.0042062 -0.0232915)
(0.0627455 0.00501254 -0.0302219)
(0.0513538 0.00557852 -0.0383338)
(0.0310195 0.00622084 -0.0479459)
(0.0107609 0.00437762 -0.0430524)
(0.102566 0.00643896 -0.000872871)
(0.103272 0.00628261 -0.00162483)
(0.103529 0.00492445 -0.00217315)
(0.102504 0.00378912 -0.00277831)
(0.101332 0.00324903 -0.00360637)
(0.0997501 0.00313247 -0.00471509)
(0.0978487 0.00334477 -0.00617278)
(0.095447 0.00382723 -0.00806972)
(0.0923623 0.00455853 -0.0105313)
(0.0884067 0.00553269 -0.013723)
(0.0829608 0.00675815 -0.0178711)
(0.076241 0.00818094 -0.0231956)
(0.0656468 0.00983353 -0.0301152)
(0.0538817 0.0113139 -0.0382524)
(0.0326099 0.0126816 -0.0479053)
(0.0111896 0.0100046 -0.0430346)
(0.101324 0.0048374 -0.000835082)
(0.101911 0.00562356 -0.00156412)
(0.102594 0.00492248 -0.00209593)
(0.10206 0.00424227 -0.00268194)
(0.101317 0.00395416 -0.00348223)
(0.100065 0.00403855 -0.00455124)
(0.098443 0.00446491 -0.00595346)
(0.0962976 0.00521628 -0.00777454)
(0.0934668 0.00630131 -0.010134)
(0.0897741 0.0077435 -0.013191)
(0.0845773 0.00958376 -0.0171635)
(0.078095 0.0118067 -0.022273)
(0.0675687 0.0144769 -0.0289226)
(0.0557621 0.0171642 -0.0367973)
(0.0338825 0.0198112 -0.0461613)
(0.0115282 0.0163368 -0.0415681)
(0.100826 0.00376563 -0.000780511)
(0.101254 0.00494216 -0.00147595)
(0.102034 0.00476279 -0.00198477)
(0.101778 0.00448981 -0.00254388)
(0.101353 0.00447954 -0.00330471)
(0.100413 0.00479728 -0.00431701)
(0.099103 0.00546456 -0.00563966)
(0.0972843 0.00650531 -0.00735105)
(0.0948107 0.00796308 -0.00956127)
(0.0915219 0.00989894 -0.0124183)
(0.0867636 0.0123955 -0.0161246)
(0.0807669 0.0154899 -0.0208987)
(0.0705949 0.0192862 -0.0271099)
(0.0590528 0.0233252 -0.0345364)
(0.0364502 0.0274586 -0.0433716)
(0.0127484 0.0229398 -0.0391907)
(0.100613 0.00308901 -0.000715998)
(0.100956 0.00433246 -0.00137125)
(0.101793 0.0044585 -0.00185288)
(0.101749 0.00448047 -0.00238)
(0.101593 0.00471488 -0.00309355)
(0.100953 0.00525298 -0.00403759)
(0.0999748 0.00614663 -0.0052638)
(0.0985323 0.00745397 -0.00684113)
(0.0964971 0.0092598 -0.00886694)
(0.093727 0.0116857 -0.0114739)
(0.0895593 0.0149045 -0.0148423)
(0.0842251 0.0191213 -0.0191846)
(0.0745715 0.02466 -0.0248216)
(0.0634429 0.0314141 -0.031657)
(0.0399667 0.0394856 -0.0397701)
(0.0145464 0.0358868 -0.0361535)
(0.10054 0.0025236 -0.000643396)
(0.10088 0.00372779 -0.0012534)
(0.101798 0.00406088 -0.00170447)
(0.10194 0.00430862 -0.00219542)
(0.10203 0.00474946 -0.00285527)
(0.101685 0.00547752 -0.00372137)
(0.10106 0.00656168 -0.00483659)
(0.100053 0.00808349 -0.00625767)
(0.098573 0.0101578 -0.00806431)
(0.0965389 0.0129517 -0.0103651)
(0.093371 0.0166937 -0.0133019)
(0.0894246 0.021722 -0.0170561)
(0.0815444 0.0284503 -0.0218481)
(0.0727671 0.037139 -0.0276933)
(0.0498992 0.0479427 -0.0344476)
(0.0233123 0.0441964 -0.0313764)
(0.100532 0.00198218 -0.000566067)
(0.100932 0.00307996 -0.00112787)
(0.101976 0.0035471 -0.00154639)
(0.102299 0.00396417 -0.00199878)
(0.102623 0.00456832 -0.00260125)
(0.102563 0.0054435 -0.00338396)
(0.102291 0.00666637 -0.00438021)
(0.101729 0.00833627 -0.00563357)
(0.100825 0.0105994 -0.00720494)
(0.0995369 0.0136894 -0.00917775)
(0.0973566 0.0179532 -0.0116555)
(0.094671 0.0240956 -0.0147907)
(0.0883399 0.0330705 -0.0187077)
(0.0815888 0.0473841 -0.0235544)
(0.0594638 0.0695213 -0.028959)
(0.0352152 0.0868806 -0.0268351)
(0.0907199 0.0116731 -0.000602449)
(0.0834879 0.00558719 -0.00110711)
(0.0776557 0.00278696 -0.00146269)
(0.0747655 0.00129212 -0.00185936)
(0.0727161 0.000761647 -0.00240927)
(0.0708589 0.000575387 -0.00314572)
(0.0689164 0.000545214 -0.00411041)
(0.0666235 0.000591231 -0.00535487)
(0.0637855 0.000686416 -0.00694582)
(0.0602398 0.000816801 -0.00895898)
(0.0555391 0.00098837 -0.0114874)
(0.049928 0.00115078 -0.0145491)
(0.0416756 0.00139797 -0.0182765)
(0.0329755 0.0014369 -0.0220842)
(0.0188501 0.00171589 -0.0260579)
(0.00552894 0.000722359 -0.0217544)
(0.103381 0.0102894 -0.000842158)
(0.103201 0.00672455 -0.0015225)
(0.102044 0.00426011 -0.00199587)
(0.100141 0.00269789 -0.00251185)
(0.0982467 0.002054 -0.00322012)
(0.0961026 0.0018575 -0.00417145)
(0.0936706 0.00193113 -0.0054215)
(0.0907117 0.00218869 -0.00703886)
(0.0870037 0.0025988 -0.00911202)
(0.0823322 0.00314752 -0.0117429)
(0.0761341 0.00384001 -0.0150552)
(0.0686153 0.00461853 -0.0190885)
(0.0576609 0.00555158 -0.0239994)
(0.0457772 0.00627344 -0.0291028)
(0.0266397 0.00707744 -0.0343501)
(0.00856501 0.00523003 -0.0287453)
(0.10252 0.00647223 -0.000845447)
(0.10309 0.00633724 -0.00152919)
(0.103152 0.00499205 -0.0020022)
(0.101931 0.00387226 -0.00251623)
(0.100532 0.00335538 -0.00322143)
(0.0986852 0.00327209 -0.00416815)
(0.0964597 0.00353071 -0.00541137)
(0.0936543 0.00407614 -0.00701902)
(0.0900669 0.00489162 -0.00907909)
(0.0854896 0.00597609 -0.0116936)
(0.0793274 0.00734402 -0.0149865)
(0.071787 0.00894118 -0.0190016)
(0.0605927 0.0108103 -0.0238944)
(0.0483333 0.0125088 -0.0289955)
(0.02824 0.014106 -0.034238)
(0.00900349 0.0112182 -0.0286218)
(0.101279 0.00488259 -0.000812274)
(0.101733 0.00569747 -0.00147595)
(0.102229 0.00501482 -0.00193449)
(0.101507 0.00435634 -0.00243179)
(0.100546 0.00410044 -0.00311284)
(0.0990411 0.0042311 -0.00402514)
(0.0971098 0.0047221 -0.00522054)
(0.0945802 0.00556194 -0.00676321)
(0.0912711 0.00676613 -0.0087366)
(0.0869867 0.00836571 -0.011238)
(0.0811061 0.0104113 -0.0143859)
(0.0738407 0.0128864 -0.0182264)
(0.0627335 0.0158741 -0.0229055)
(0.0504496 0.0188714 -0.0278029)
(0.0296892 0.0218563 -0.0328325)
(0.00943179 0.0180326 -0.0274504)
(0.100784 0.00382228 -0.000764291)
(0.101085 0.00503443 -0.00139849)
(0.101686 0.00487846 -0.00183691)
(0.101252 0.00463306 -0.00231078)
(0.100622 0.00466364 -0.00295755)
(0.0994457 0.00504019 -0.0038208)
(0.0978487 0.00579004 -0.00494774)
(0.0956742 0.0069445 -0.00639684)
(0.0927584 0.00855668 -0.00824434)
(0.0889236 0.0106983 -0.0105798)
(0.0835323 0.0134664 -0.0135114)
(0.0768136 0.016897 -0.017087)
(0.0660954 0.0211228 -0.021433)
(0.0541113 0.0255795 -0.0260067)
(0.032532 0.0301845 -0.0306817)
(0.0107738 0.0251819 -0.0256623)
(0.100572 0.0031541 -0.000707592)
(0.100796 0.00443841 -0.00130652)
(0.101464 0.00459158 -0.00172117)
(0.101254 0.00464557 -0.00216718)
(0.100911 0.00492751 -0.00277292)
(0.100055 0.00553428 -0.00357721)
(0.0988162 0.00652494 -0.00462141)
(0.0970534 0.00796712 -0.00595656)
(0.0946219 0.00995841 -0.00764936)
(0.0913646 0.0126358 -0.00977872)
(0.0866297 0.0161944 -0.0124386)
(0.0806542 0.0208456 -0.0156782)
(0.0704988 0.0269626 -0.0195952)
(0.0589795 0.0343128 -0.0237534)
(0.0364067 0.0431142 -0.0279594)
(0.0127201 0.038953 -0.0234279)
(0.100502 0.00259475 -0.000643806)
(0.10073 0.00384344 -0.00120303)
(0.101492 0.00420627 -0.00159097)
(0.101482 0.00448919 -0.00200552)
(0.101402 0.00498231 -0.00256473)
(0.100865 0.00578607 -0.00330184)
(0.100012 0.00697759 -0.00425117)
(0.0987274 0.00864946 -0.00545434)
(0.0969095 0.0109316 -0.00696519)
(0.094467 0.01401 -0.0088466)
(0.0908295 0.0181405 -0.0111685)
(0.0863748 0.0236724 -0.0139692)
(0.078101 0.0310822 -0.0172905)
(0.0690807 0.0404903 -0.0208105)
(0.0469815 0.0522152 -0.024213)
(0.0218233 0.0478182 -0.0202319)
(0.100496 0.00205628 -0.000575893)
(0.100794 0.0032003 -0.00109282)
(0.101694 0.00369844 -0.00145234)
(0.101881 0.00415218 -0.00183336)
(0.102053 0.00481086 -0.00234287)
(0.101827 0.00576516 -0.00300817)
(0.101362 0.00710063 -0.0038559)
(0.100569 0.00892881 -0.00491756)
(0.0993876 0.0114132 -0.00623327)
(0.0977735 0.0148107 -0.00784925)
(0.0952225 0.0195032 -0.00981154)
(0.0921589 0.026223 -0.0121505)
(0.0855311 0.0360169 -0.0148545)
(0.0786829 0.0512789 -0.0177375)
(0.057219 0.0748238 -0.02036)
(0.034223 0.0917855 -0.0172124)
(0.0906912 0.0116764 -0.000533466)
(0.0833695 0.00559502 -0.0009589)
(0.0774107 0.00279524 -0.00124645)
(0.0743949 0.00130197 -0.00156344)
(0.0721995 0.000774166 -0.0020034)
(0.070174 0.000591782 -0.00259308)
(0.0680286 0.000566975 -0.00336393)
(0.0654883 0.00062021 -0.0043528)
(0.0623505 0.000724915 -0.00560521)
(0.0584437 0.000867823 -0.00716837)
(0.053345 0.00105484 -0.00909768)
(0.0472819 0.00123796 -0.0113778)
(0.0387405 0.00150626 -0.0140851)
(0.0298089 0.00158095 -0.0167427)
(0.0164595 0.00187201 -0.019391)
(0.00442399 0.000911781 -0.0161142)
(0.103344 0.010304 -0.000736838)
(0.103051 0.00675003 -0.00130925)
(0.101732 0.00429079 -0.0016934)
(0.0996644 0.00273539 -0.00210688)
(0.0975788 0.0021019 -0.00267464)
(0.0952132 0.00192026 -0.0034376)
(0.0925137 0.00201439 -0.00443801)
(0.0892279 0.00229955 -0.00572522)
(0.0851228 0.00274603 -0.00735996)
(0.0799723 0.0033418 -0.00940642)
(0.0732412 0.00409335 -0.0119379)
(0.0651228 0.00494378 -0.0149462)
(0.0537625 0.00595974 -0.0185137)
(0.041579 0.00677137 -0.0220726)
(0.023425 0.00764663 -0.0255543)
(0.00702463 0.00573962 -0.0212418)
(0.102483 0.0065006 -0.000739996)
(0.10294 0.00638376 -0.00131547)
(0.102842 0.00504957 -0.00169938)
(0.101457 0.00394291 -0.0021112)
(0.0998686 0.00344559 -0.00267644)
(0.0978024 0.00339024 -0.00343567)
(0.0953123 0.00368752 -0.00443063)
(0.0921835 0.00428517 -0.00571019)
(0.0882029 0.00516976 -0.00733473)
(0.0831506 0.00634363 -0.00936849)
(0.0764577 0.00782483 -0.0118854)
(0.0683187 0.00955746 -0.0148797)
(0.0567118 0.0115886 -0.0184339)
(0.0441459 0.0134429 -0.0219906)
(0.0250215 0.0151914 -0.0254688)
(0.0074618 0.0121193 -0.0211525)
(0.101244 0.0049211 -0.000712784)
(0.101589 0.00576042 -0.0012718)
(0.101929 0.0050934 -0.00164384)
(0.101049 0.00445326 -0.00204202)
(0.0999069 0.00422449 -0.00258762)
(0.0981922 0.00439395 -0.00331899)
(0.0960087 0.00493885 -0.00427543)
(0.0931715 0.00585194 -0.00550299)
(0.0894885 0.00715388 -0.00705874)
(0.0847523 0.00888107 -0.00900371)
(0.0783648 0.0110907 -0.0114083)
(0.0705267 0.0137639 -0.0142695)
(0.0590171 0.016995 -0.0176646)
(0.0464323 0.0202251 -0.021073)
(0.0265904 0.0234523 -0.0244037)
(0.00794595 0.0193497 -0.0202748)
(0.10075 0.00387054 -0.000673343)
(0.100946 0.00511301 -0.00120817)
(0.1014 0.00497687 -0.00156377)
(0.100817 0.00475473 -0.00194286)
(0.100017 0.00481967 -0.00246064)
(0.0986445 0.00524547 -0.00315234)
(0.0968131 0.00606405 -0.00405373)
(0.0943539 0.00731247 -0.00520657)
(0.0910927 0.00905103 -0.00666274)
(0.086841 0.0113592 -0.00847793)
(0.0809808 0.0143442 -0.010716)
(0.0737332 0.0180401 -0.0133768)
(0.0626342 0.0225993 -0.016526)
(0.0503675 0.0273783 -0.0197011)
(0.0296279 0.0323368 -0.0227879)
(0.00937119 0.026966 -0.0189428)
(0.10054 0.00320955 -0.000626758)
(0.100665 0.00452861 -0.00113263)
(0.101195 0.00470476 -0.0014688)
(0.100847 0.00478575 -0.00182522)
(0.100346 0.00510762 -0.00230971)
(0.0993108 0.00577181 -0.00295379)
(0.0978599 0.00684304 -0.00378874)
(0.0958408 0.00839626 -0.00485079)
(0.0931 0.0105387 -0.00618491)
(0.0894715 0.0134184 -0.00783942)
(0.0843181 0.0172465 -0.00986871)
(0.0778742 0.0222373 -0.0122751)
(0.0673709 0.0287985 -0.0151062)
(0.055603 0.0366031 -0.0179779)
(0.0337725 0.045945 -0.0207351)
(0.0114325 0.0413683 -0.0172593)
(0.100471 0.00265533 -0.000574362)
(0.100608 0.00394188 -0.00104764)
(0.101243 0.0043299 -0.001362)
(0.101106 0.00464246 -0.00169284)
(0.100883 0.00517945 -0.00213963)
(0.100187 0.00604643 -0.00272956)
(0.0991471 0.007327 -0.00348856)
(0.0976402 0.0091222 -0.00444592)
(0.0955583 0.0115734 -0.00563749)
(0.0928044 0.0148802 -0.00710078)
(0.0888208 0.019319 -0.00887455)
(0.0839936 0.0252462 -0.010957)
(0.0754462 0.0331853 -0.0133606)
(0.0662725 0.0431541 -0.0157888)
(0.0448051 0.0555843 -0.0180106)
(0.020775 0.0507397 -0.0149537)
(0.100468 0.00211935 -0.00051859)
(0.100681 0.00330271 -0.000957154)
(0.101465 0.00382709 -0.0012483)
(0.101537 0.00431172 -0.00155189)
(0.101583 0.00501613 -0.00195844)
(0.101219 0.00603643 -0.00249051)
(0.100594 0.00746512 -0.00316819)
(0.0996161 0.00942304 -0.00401333)
(0.0982195 0.0120866 -0.00505186)
(0.0963585 0.0157296 -0.0063098)
(0.0935383 0.0207598 -0.00780956)
(0.0902048 0.0279275 -0.00954621)
(0.0833845 0.0383497 -0.011496)
(0.0764982 0.0543374 -0.0134628)
(0.0555802 0.0789438 -0.0151382)
(0.0335745 0.095705 -0.0126786)
(0.0906695 0.0116789 -0.000415998)
(0.0832794 0.00560116 -0.000737937)
(0.0772234 0.00280171 -0.000949353)
(0.0741107 0.00130971 -0.00118034)
(0.071803 0.000783991 -0.00150082)
(0.0696491 0.000604634 -0.00193018)
(0.0673515 0.000584002 -0.00248993)
(0.0646305 0.000642869 -0.0032039)
(0.0612818 0.000755049 -0.0040997)
(0.0571345 0.000908008 -0.00520209)
(0.0517959 0.00110792 -0.00653607)
(0.045495 0.00130951 -0.0080671)
(0.0368839 0.00159946 -0.00981878)
(0.0279735 0.0017107 -0.0114337)
(0.0152216 0.00202849 -0.0129144)
(0.00401934 0.001092 -0.0105221)
(0.103315 0.0103156 -0.000570488)
(0.102936 0.00677008 -0.00100305)
(0.101493 0.00431485 -0.00128625)
(0.0992981 0.0027648 -0.0015881)
(0.0970653 0.00213941 -0.0020023)
(0.0945305 0.0019693 -0.00255856)
(0.0916299 0.0020793 -0.00328598)
(0.0881045 0.00238572 -0.00421672)
(0.0837184 0.00286012 -0.00538805)
(0.078246 0.0034919 -0.00683458)
(0.0711879 0.0042886 -0.00859016)
(0.0627459 0.00519451 -0.0106189)
(0.0512661 0.00627524 -0.0129401)
(0.0391019 0.0071592 -0.0151243)
(0.0217177 0.00809692 -0.0170927)
(0.00641538 0.00614528 -0.013939)
(0.102455 0.00652291 -0.000573041)
(0.102826 0.00642034 -0.00100804)
(0.102604 0.00509473 -0.00129111)
(0.101093 0.00399833 -0.00159172)
(0.0993586 0.00351621 -0.00200406)
(0.0971248 0.00348252 -0.00255759)
(0.0944358 0.00380964 -0.00328107)
(0.0910701 0.00444736 -0.00420631)
(0.0868116 0.0053846 -0.00537034)
(0.0814405 0.00662603 -0.00680772)
(0.0744231 0.00819189 -0.00855264)
(0.0659628 0.0100249 -0.0105706)
(0.0542345 0.0121744 -0.0128807)
(0.0416875 0.0141422 -0.0150593)
(0.0233237 0.0159989 -0.0170191)
(0.00686184 0.0127906 -0.0138616)
(0.101217 0.00495136 -0.000552861)
(0.101478 0.00580989 -0.00097562)
(0.1017 0.0051551 -0.0012499)
(0.100698 0.00452927 -0.00154041)
(0.0994156 0.00432157 -0.0019383)
(0.0975408 0.00452106 -0.00247138)
(0.0951678 0.00510749 -0.00316672)
(0.0921055 0.00607661 -0.00405417)
(0.0881587 0.00745264 -0.00516859)
(0.0831203 0.00927547 -0.00654246)
(0.0764252 0.0116061 -0.008208)
(0.0682831 0.0144231 -0.0101329)
(0.0566578 0.0178264 -0.0123338)
(0.0440936 0.0212174 -0.0144117)
(0.0249755 0.0246055 -0.0162747)
(0.00738433 0.0202963 -0.0132513)
(0.100724 0.0039085 -0.000523522)
(0.100841 0.00517477 -0.00092832)
(0.101181 0.00505413 -0.00119044)
(0.100483 0.0048501 -0.00146688)
(0.0995514 0.00494172 -0.00184432)
(0.0980298 0.00540558 -0.00234832)
(0.0960224 0.00627699 -0.0030035)
(0.0933548 0.00759706 -0.0038368)
(0.0898505 0.009431 -0.00487965)
(0.0853214 0.0118632 -0.00616125)
(0.0791789 0.0150068 -0.00771015)
(0.071655 0.0188924 -0.0094969)
(0.0604505 0.0236828 -0.0115324)
(0.0482104 0.0286779 -0.0134573)
(0.028138 0.0338621 -0.015167)
(0.00886062 0.0282193 -0.0123465)
(0.100516 0.00325313 -0.000488901)
(0.100566 0.00459948 -0.000872185)
(0.10099 0.0047936 -0.00111993)
(0.100535 0.0048956 -0.00137965)
(0.0999117 0.00524844 -0.00173262)
(0.0987403 0.00595694 -0.00220176)
(0.0971298 0.00708995 -0.00280855)
(0.0949234 0.00872754 -0.00357619)
(0.0919655 0.0109833 -0.00453158)
(0.0880912 0.0140124 -0.00569935)
(0.0826889 0.0180347 -0.00710258)
(0.0760064 0.0232632 -0.00871503)
(0.0654131 0.0301237 -0.0105378)
(0.0536849 0.0382191 -0.0122651)
(0.0324521 0.0478888 -0.013769)
(0.0109907 0.0430016 -0.0112094)
(0.100449 0.00270295 -0.000449958)
(0.100516 0.00401921 -0.000809038)
(0.101052 0.00442692 -0.00104065)
(0.100817 0.00476253 -0.00128153)
(0.100485 0.00533352 -0.00160683)
(0.0996666 0.00624925 -0.00203639)
(0.0984864 0.00759796 -0.002588)
(0.0968172 0.00948662 -0.00328024)
(0.0945499 0.0120641 -0.00413413)
(0.0915908 0.0155386 -0.00516784)
(0.0874041 0.0201977 -0.00639563)
(0.0823948 0.026398 -0.00779144)
(0.0737926 0.0346873 -0.00933762)
(0.0647005 0.0450055 -0.0107898)
(0.0437526 0.0578511 -0.0119768)
(0.020467 0.05267 -0.0097162)
(0.100447 0.00216891 -0.000408516)
(0.100596 0.00338315 -0.000741812)
(0.10129 0.00392804 -0.000956258)
(0.101274 0.00443668 -0.00117707)
(0.101223 0.00517651 -0.00147284)
(0.100752 0.00624764 -0.00186013)
(0.100008 0.00774755 -0.00235271)
(0.0988942 0.00980351 -0.00296415)
(0.0973466 0.0126004 -0.0037091)
(0.0953238 0.016422 -0.00459877)
(0.0923493 0.0216905 -0.00563804)
(0.0888941 0.0291611 -0.0068018)
(0.0820572 0.0399869 -0.00805285)
(0.0753046 0.056408 -0.00921719)
(0.0548432 0.0816152 -0.0100813)
(0.0334946 0.0982101 -0.00823606)
(0.090655 0.0116806 -0.000263409)
(0.0832185 0.00560541 -0.000464566)
(0.0770966 0.00280612 -0.000593174)
(0.0739181 0.00131503 -0.000733737)
(0.0715342 0.000790725 -0.000928275)
(0.0692942 0.000613433 -0.00118872)
(0.0668956 0.000595631 -0.00152754)
(0.0640565 0.000658292 -0.00195786)
(0.0605734 0.000775454 -0.00249434)
(0.0562772 0.000934986 -0.00314858)
(0.050797 0.00114302 -0.00393141)
(0.0443633 0.00135568 -0.00481574)
(0.0357309 0.00165727 -0.00581141)
(0.0268617 0.00178695 -0.00670667)
(0.0144877 0.00211432 -0.00750178)
(0.00378913 0.00118391 -0.00609443)
(0.103296 0.0103235 -0.000360393)
(0.102858 0.0067839 -0.00062947)
(0.101331 0.00433138 -0.000802643)
(0.0990494 0.00278503 -0.00098624)
(0.0967168 0.00216516 -0.00123798)
(0.0940681 0.00200292 -0.00157574)
(0.0910338 0.0021237 -0.00201652)
(0.0873516 0.00244449 -0.00257816)
(0.0827857 0.00293763 -0.00328065)
(0.0771132 0.00359336 -0.00414056)
(0.0698607 0.00441963 -0.00517273)
(0.0612371 0.00536111 -0.00634715)
(0.0497134 0.00648185 -0.00766914)
(0.0376007 0.00740825 -0.00888266)
(0.0207088 0.00837935 -0.00994034)
(0.00607281 0.00639107 -0.00807732)
(0.102436 0.00653828 -0.000361636)
(0.102748 0.00644553 -0.000632538)
(0.102443 0.00512579 -0.000805939)
(0.100846 0.00403644 -0.00098871)
(0.0990124 0.00356469 -0.00123937)
(0.0966658 0.00354575 -0.00157546)
(0.0938445 0.00389313 -0.00201386)
(0.0903237 0.00455792 -0.00257223)
(0.0858874 0.00553049 -0.00327039)
(0.0803183 0.0068169 -0.0041249)
(0.0731081 0.0084385 -0.00515085)
(0.0644674 0.0103368 -0.00631896)
(0.0526936 0.0125616 -0.00763468)
(0.0401972 0.0146002 -0.00884489)
(0.0223199 0.0165215 -0.00989799)
(0.00652412 0.0132209 -0.00803364)
(0.101199 0.00497221 -0.000349446)
(0.101403 0.00584397 -0.000612601)
(0.101544 0.00519754 -0.00078058)
(0.100459 0.00458152 -0.000957092)
(0.0990822 0.0043882 -0.00119892)
(0.0970997 0.00460813 -0.00152253)
(0.0946007 0.0052227 -0.00194383)
(0.0913909 0.00622959 -0.00247931)
(0.0872756 0.00765523 -0.00314759)
(0.0820497 0.00954157 -0.00396407)
(0.0751723 0.0119517 -0.00494293)
(0.0668602 0.0148619 -0.00605621)
(0.0551918 0.018375 -0.00730853)
(0.0426778 0.0218669 -0.00846073)
(0.0240219 0.0253527 -0.00945956)
(0.00706915 0.0209072 -0.00767575)
(0.100707 0.00393465 -0.000331312)
(0.10077 0.0052173 -0.00058345)
(0.101033 0.00510729 -0.000744029)
(0.100257 0.00491565 -0.000911947)
(0.0992358 0.00502545 -0.00114131)
(0.0976136 0.0055152 -0.00144721)
(0.0954891 0.00642236 -0.00184416)
(0.0926853 0.00779065 -0.00234695)
(0.0890258 0.00968829 -0.0029723)
(0.0843248 0.0122026 -0.00373385)
(0.0780156 0.01545 -0.004644)
(0.070338 0.0194583 -0.00567674)
(0.0590952 0.024396 -0.00683432)
(0.0469065 0.0295271 -0.0079)
(0.02726 0.0348496 -0.00881514)
(0.00857586 0.0290303 -0.00715229)
(0.1005 0.00328315 -0.000310028)
(0.100499 0.00464828 -0.000548911)
(0.10085 0.00485472 -0.000700636)
(0.100323 0.00497108 -0.000858319)
(0.0996174 0.00534502 -0.00107275)
(0.098354 0.00608361 -0.00135743)
(0.0966373 0.00725837 -0.00172504)
(0.0943085 0.00895258 -0.00218821)
(0.0912122 0.0112838 -0.00276111)
(0.0871862 0.0144112 -0.00345488)
(0.081638 0.0185598 -0.00427908)
(0.0748243 0.0239407 -0.00520971)