/*--------------------------------*- C++ -*----------------------------------*\
| =========                 |                                                 |
| \\      /  F ield         | OpenFOAM: The Open Source CFD Toolbox           |
|  \\    /   O peration     | Version:  v1912                                 |
|   \\  /    A nd           | Website:  www.openfoam.com                      |
|    \\/     M anipulation  |                                                 |
\*---------------------------------------------------------------------------*/
FoamFile
{
    version     2.0;
    format      ascii;
    class       surfaceScalarField;
    location    "0.13/fluid";
    object      phi;
}
// * * * * * * * * * * * * * * * * * * * * * * * * * * * * * * * * * * * * * //

dimensions      [0 3 -1 0 0 0 0];
oriented        oriented;


internalField   nonuniform List<scalar> 
41600
(
5.44482e-05
8.20433e-06
-2.60102e-07
1.07596e-07
5.00834e-05
4.55314e-06
-6.3966e-07
4.5133e-07
4.76606e-05
2.58115e-06
-9.85878e-07
8.27449e-07
4.63769e-05
1.40111e-06
-1.38263e-06
1.26524e-06
4.55225e-05
9.30139e-07
-1.91768e-06
1.84201e-06
4.48087e-05
7.50484e-07
-2.61817e-06
2.58142e-06
4.40871e-05
7.20209e-07
-3.52711e-06
3.52853e-06
4.32709e-05
7.71248e-07
-4.7048e-06
4.74975e-06
4.22882e-05
8.76912e-07
-6.23969e-06
6.34551e-06
4.10544e-05
1.01998e-06
-8.26064e-06
8.47446e-06
3.94436e-05
1.19779e-06
-1.09503e-05
1.13633e-05
3.72138e-05
1.35767e-06
-1.45831e-05
1.54553e-05
3.39257e-05
1.54376e-06
-1.96032e-05
2.13475e-05
2.84372e-05
1.47923e-06
-2.64561e-05
3.04654e-05
1.86989e-05
1.48771e-06
-3.61786e-05
4.44292e-05
-6.46946e-09
-3.7683e-05
5.63884e-05
6.48926e-05
5.98902e-06
-4.31288e-07
2.54023e-07
6.48696e-05
4.79842e-06
-9.59333e-07
7.36999e-07
6.42846e-05
3.35533e-06
-1.41991e-06
1.23073e-06
6.35295e-05
2.29645e-06
-1.93773e-06
1.79749e-06
6.27553e-05
1.79391e-06
-2.63144e-06
2.54188e-06
6.19432e-05
1.60444e-06
-3.54436e-06
3.5025e-06
6.10375e-05
1.62104e-06
-4.73407e-06
4.73893e-06
5.9971e-05
1.78024e-06
-6.28085e-06
6.33842e-06
5.86645e-05
2.05314e-06
-8.30177e-06
8.43204e-06
5.70049e-05
2.42172e-06
-1.09675e-05
1.12254e-05
5.48301e-05
2.87893e-06
-1.45205e-05
1.50141e-05
5.17718e-05
3.37764e-06
-1.93257e-05
2.0364e-05
4.72967e-05
3.93065e-06
-2.59567e-05
2.8045e-05
3.96346e-05
4.30289e-06
-3.50297e-05
3.98681e-05
2.64798e-05
4.60559e-06
-4.76892e-05
5.77261e-05
3.08476e-06
-4.96504e-05
7.3039e-05
6.46028e-05
4.06547e-06
-4.33934e-07
2.54665e-07
6.53095e-05
4.31702e-06
-9.65625e-07
7.40309e-07
6.5336e-05
3.52074e-06
-1.42738e-06
1.23552e-06
6.49861e-05
2.78869e-06
-1.94528e-06
1.80287e-06
6.44646e-05
2.40665e-06
-2.63853e-06
2.5473e-06
6.38114e-05
2.30078e-06
-3.5502e-06
3.50709e-06
6.30119e-05
2.41655e-06
-4.73733e-06
4.74128e-06
6.2021e-05
2.71424e-06
-6.27988e-06
6.33685e-06
6.0768e-05
3.17597e-06
-8.29483e-06
8.42493e-06
5.91378e-05
3.79311e-06
-1.09541e-05
1.1213e-05
5.69548e-05
4.56449e-06
-1.45016e-05
1.4999e-05
5.38226e-05
5.45879e-06
-1.93126e-05
2.03637e-05
4.91613e-05
6.47177e-06
-2.59633e-05
2.80834e-05
4.11263e-05
7.40491e-06
-3.51197e-05
4.00526e-05
2.73081e-05
8.1787e-06
-4.79119e-05
5.8157e-05
6.43317e-06
-5.00369e-05
7.39966e-05
6.37303e-05
3.01465e-06
-4.06022e-07
2.26498e-07
6.45313e-05
3.74205e-06
-9.19655e-07
6.93714e-07
6.48504e-05
3.39412e-06
-1.36842e-06
1.1759e-06
6.47988e-05
2.98357e-06
-1.87147e-06
1.72825e-06
6.45112e-05
2.78654e-06
-2.5433e-06
2.45099e-06
6.4038e-05
2.81852e-06
-3.42425e-06
3.37967e-06
6.33852e-05
3.06746e-06
-4.56828e-06
4.57022e-06
6.25233e-05
3.52192e-06
-6.05152e-06
6.10571e-06
6.139e-05
4.18305e-06
-7.9859e-06
8.11211e-06
5.98692e-05
5.06061e-06
-1.05379e-05
1.07913e-05
5.77738e-05
6.17054e-06
-1.3943e-05
1.44324e-05
5.46815e-05
7.51174e-06
-1.85777e-05
1.96171e-05
4.99676e-05
9.08296e-06
-2.49978e-05
2.71004e-05
4.17412e-05
1.07184e-05
-3.39262e-05
3.88392e-05
2.75201e-05
1.21936e-05
-4.64415e-05
5.66476e-05
1.00622e-05
-4.87929e-05
7.2684e-05
6.33389e-05
2.3556e-06
-3.65199e-07
1.85392e-07
6.40935e-05
3.214e-06
-8.51984e-07
6.25395e-07
6.4522e-05
3.159e-06
-1.28235e-06
1.08897e-06
6.46486e-05
3.0013e-06
-1.76428e-06
1.61993e-06
6.45435e-05
2.98548e-06
-2.40528e-06
2.31142e-06
6.42439e-05
3.16494e-06
-3.2418e-06
3.19505e-06
6.37577e-05
3.55478e-06
-4.32312e-06
4.32194e-06
6.30631e-05
4.16694e-06
-5.71927e-06
5.76884e-06
6.21041e-05
5.02308e-06
-7.53376e-06
7.65277e-06
6.07661e-05
6.1573e-06
-9.92287e-06
1.01642e-05
5.88554e-05
7.6126e-06
-1.31057e-05
1.35742e-05
5.59227e-05
9.4437e-06
-1.74518e-05
1.84526e-05
5.12885e-05
1.16871e-05
-2.34761e-05
2.55061e-05
4.2927e-05
1.43031e-05
-3.19723e-05
3.67491e-05
2.81907e-05
1.70016e-05
-4.39132e-05
5.38415e-05
1.48414e-05
-4.65576e-05
6.9969e-05
6.31597e-05
1.87615e-06
-3.16877e-07
1.36655e-07
6.38768e-05
2.72428e-06
-7.71504e-07
5.44092e-07
6.43763e-05
2.85401e-06
-1.18006e-06
9.85592e-07
6.46373e-05
2.88607e-06
-1.63686e-06
1.49108e-06
6.46888e-05
3.02978e-06
-2.24088e-06
2.14507e-06
6.4556e-05
3.34722e-06
-3.02382e-06
2.97431e-06
6.42471e-05
3.86893e-06
-4.02898e-06
4.02377e-06
6.37455e-05
4.62514e-06
-5.31842e-06
5.3618e-06
6.3001e-05
5.65865e-06
-6.98455e-06
7.09352e-06
6.18995e-05
7.0349e-06
-9.16969e-06
9.39354e-06
6.0238e-05
8.83673e-06
-1.20712e-05
1.25086e-05
5.75274e-05
1.1213e-05
-1.60484e-05
1.69898e-05
5.30217e-05
1.42733e-05
-2.15614e-05
2.34809e-05
4.45082e-05
1.82472e-05
-2.94983e-05
3.40677e-05
2.91589e-05
2.28316e-05
-4.06757e-05
5.0195e-05
2.12587e-05
-4.37592e-05
6.65009e-05
6.30989e-05
1.45805e-06
-2.62338e-07
8.15667e-08
6.38164e-05
2.23516e-06
-6.80698e-07
4.52269e-07
6.4382e-05
2.4843e-06
-1.06467e-06
8.6886e-07
6.47562e-05
2.65937e-06
-1.49299e-06
1.34547e-06
6.4949e-05
2.93514e-06
-2.05488e-06
1.95671e-06
6.49805e-05
3.3685e-06
-2.77633e-06
2.72348e-06
6.48631e-05
3.99663e-06
-3.69318e-06
3.68292e-06
6.45922e-05
4.86092e-06
-4.85679e-06
4.89195e-06
6.41375e-05
6.01883e-06
-6.34329e-06
6.43778e-06
6.34148e-05
7.56173e-06
-8.27103e-06
8.46689e-06
6.22638e-05
9.60636e-06
-1.07966e-05
1.11779e-05
6.02353e-05
1.24218e-05
-1.42332e-05
1.50529e-05
5.66056e-05
1.6241e-05
-1.89179e-05
2.058e-05
4.88297e-05
2.20125e-05
-2.57658e-05
2.97764e-05
3.34246e-05
2.99181e-05
-3.52528e-05
4.35715e-05
3.39367e-05
-3.85365e-05
5.9283e-05
6.31001e-05
-2.04167e-07
2.27361e-08
1.03943e-06
6.3856e-05
-5.83861e-07
3.54268e-07
1.7088e-06
6.44975e-05
-9.41654e-07
7.44319e-07
2.04009e-06
6.49778e-05
-1.3396e-06
1.19013e-06
2.32862e-06
6.53012e-05
-1.85645e-06
1.75568e-06
2.71244e-06
6.54894e-05
-2.51212e-06
2.45558e-06
3.23684e-06
6.55611e-05
-3.33443e-06
3.31859e-06
3.94083e-06
6.55229e-05
-4.36342e-06
4.38947e-06
4.87306e-06
6.53599e-05
-5.65857e-06
5.73721e-06
6.10315e-06
6.50075e-05
-7.31432e-06
7.48004e-06
7.74846e-06
6.43269e-05
-9.44996e-06
9.7735e-06
9.96344e-06
6.28864e-05
-1.2337e-05
1.3035e-05
1.31643e-05
5.99903e-05
-1.62077e-05
1.76289e-05
1.77159e-05
5.29358e-05
-2.20138e-05
2.55094e-05
2.55713e-05
3.83346e-05
-2.99293e-05
3.71948e-05
3.72538e-05
-3.39415e-05
5.30725e-05
5.31402e-05
5.43732e-05
8.21241e-06
-3.45688e-07
4.9897e-05
4.56914e-06
-7.32643e-07
4.73579e-05
2.59966e-06
-1.0464e-06
4.59515e-05
1.4235e-06
-1.39975e-06
4.49575e-05
9.58857e-07
-1.88254e-06
4.40736e-05
7.88359e-07
-2.52265e-06
4.31349e-05
7.7095e-07
-3.35932e-06
4.20356e-05
8.3975e-07
-4.44524e-06
4.06816e-05
9.69973e-07
-5.85568e-06
3.8966e-05
1.14703e-06
-7.69214e-06
3.67393e-05
1.37357e-06
-1.00972e-05
3.37712e-05
1.60326e-06
-1.32182e-05
2.96119e-05
1.89839e-06
-1.73424e-05
2.34267e-05
2.00608e-06
-2.2277e-05
1.3357e-05
2.25528e-06
-2.83641e-05
1.12626e-06
-2.54523e-05
6.47968e-05
6.00925e-06
-5.24964e-07
6.46332e-05
4.83324e-06
-1.05982e-06
6.38958e-05
3.39821e-06
-1.4811e-06
6.29777e-05
2.34909e-06
-1.94514e-06
6.20171e-05
1.86136e-06
-2.57336e-06
6.09775e-05
1.69324e-06
-3.40963e-06
5.97813e-05
1.73974e-06
-4.50674e-06
5.83353e-05
1.93997e-06
-5.93501e-06
5.6529e-05
2.26859e-06
-7.79408e-06
5.42155e-05
2.71171e-06
-1.02188e-05
5.11957e-05
3.2693e-06
-1.33964e-05
4.71054e-05
3.8969e-06
-1.7529e-05
4.13971e-05
4.62642e-06
-2.29764e-05
3.27179e-05
5.20408e-06
-2.95484e-05
1.90458e-05
5.75974e-06
-3.75216e-05
4.21057e-06
-3.36889e-05
6.45076e-05
4.09654e-06
-5.28812e-07
6.50736e-05
4.36944e-06
-1.06782e-06
6.4948e-05
3.58648e-06
-1.49008e-06
6.44358e-05
2.86991e-06
-1.95392e-06
6.37292e-05
2.51093e-06
-2.58142e-06
6.28502e-05
2.43832e-06
-3.4163e-06
6.17626e-05
2.60085e-06
-4.51088e-06
6.03949e-05
2.96299e-06
-5.93515e-06
5.86448e-05
3.51252e-06
-7.78869e-06
5.63625e-05
4.24718e-06
-1.02072e-05
5.33336e-05
5.17581e-06
-1.33792e-05
4.91636e-05
6.26825e-06
-1.75139e-05
4.32544e-05
7.54403e-06
-2.29717e-05
3.41786e-05
8.74964e-06
-2.95894e-05
1.98094e-05
9.84127e-06
-3.76243e-05
7.7782e-06
-3.37951e-05
6.36376e-05
3.05529e-06
-5.02372e-07
6.43016e-05
3.81017e-06
-1.02439e-06
6.44738e-05
3.48014e-06
-1.43432e-06
6.42661e-05
3.09026e-06
-1.88412e-06
6.38014e-05
2.92384e-06
-2.49144e-06
6.31128e-05
3.0001e-06
-3.29743e-06
6.21853e-05
3.31161e-06
-4.35158e-06
6.09642e-05
3.85301e-06
-5.72042e-06
5.93562e-05
4.63371e-06
-7.49905e-06
5.72107e-05
5.67322e-06
-9.81855e-06
5.43015e-05
7.00249e-06
-1.28605e-05
5.02043e-05
8.62383e-06
-1.6836e-05
4.42702e-05
1.05709e-05
-2.20906e-05
3.501e-05
1.25945e-05
-2.85108e-05
2.01977e-05
1.45348e-05
-3.63228e-05
1.18876e-05
-3.27046e-05
6.32496e-05
2.40415e-06
-4.63614e-07
6.38728e-05
3.29521e-06
-9.60256e-07
6.41615e-05
3.26184e-06
-1.35277e-06
6.4141e-05
3.12915e-06
-1.78267e-06
6.38702e-05
3.15038e-06
-2.36098e-06
6.33701e-05
3.38364e-06
-3.12523e-06
6.26292e-05
3.84999e-06
-4.12063e-06
6.16018e-05
4.56939e-06
-5.40822e-06
6.02027e-05
5.57474e-06
-7.07572e-06
5.82845e-05
6.91414e-06
-9.24562e-06
5.56151e-05
8.65254e-06
-1.20862e-05
5.17383e-05
1.08551e-05
-1.58063e-05
4.59413e-05
1.36124e-05
-2.07206e-05
3.65651e-05
1.67866e-05
-2.67882e-05
2.11581e-05
2.02012e-05
-3.41726e-05
1.73641e-05
-3.08759e-05
6.30744e-05
1.93065e-06
-4.17776e-07
6.36668e-05
2.81529e-06
-8.83998e-07
6.40351e-05
2.96943e-06
-1.25592e-06
6.41597e-05
3.02979e-06
-1.66214e-06
6.40594e-05
3.2155e-06
-2.20565e-06
6.37446e-05
3.5942e-06
-2.9196e-06
6.32057e-05
4.20362e-06
-3.84371e-06
6.24045e-05
5.08406e-06
-5.03191e-06
6.12639e-05
6.29283e-06
-6.56206e-06
5.96384e-05
7.91499e-06
-8.54498e-06
5.72866e-05
1.00641e-05
-1.1131e-05
5.37048e-05
1.29129e-05
-1.45244e-05
4.81046e-05
1.66497e-05
-1.89984e-05
3.85972e-05
2.14061e-05
-2.46104e-05
2.24828e-05
2.70661e-05
-3.14261e-05
2.46716e-05
-2.8584e-05
6.30182e-05
1.51623e-06
-3.66089e-07
6.36186e-05
2.33217e-06
-7.98006e-07
6.40627e-05
2.60741e-06
-1.14673e-06
6.43128e-05
2.81276e-06
-1.52613e-06
6.437e-05
3.13352e-06
-2.03003e-06
6.42415e-05
3.63263e-06
-2.68634e-06
6.39248e-05
4.35527e-06
-3.52804e-06
6.33975e-05
5.35415e-06
-4.59958e-06
6.26085e-05
6.70338e-06
-5.96484e-06
6.14494e-05
8.51828e-06
-7.71531e-06
5.97332e-05
1.09529e-05
-9.96904e-06
5.69981e-05
1.4318e-05
-1.29032e-05
5.2482e-05
1.89518e-05
-1.67039e-05
4.3865e-05
2.57664e-05
-2.15091e-05
2.76215e-05
3.5246e-05
-2.71893e-05
3.85392e-05
-2.47826e-05
6.30242e-05
-3.11004e-07
1.09882e-06
6.36712e-05
-7.06351e-07
1.80772e-06
6.42017e-05
-1.03037e-06
2.16561e-06
6.4571e-05
-1.38117e-06
2.485e-06
6.47762e-05
-1.84274e-06
2.91467e-06
6.48279e-05
-2.43739e-06
3.50618e-06
6.47326e-05
-3.19083e-06
4.30695e-06
6.4483e-05
-4.13742e-06
5.37782e-06
6.40476e-05
-5.32651e-06
6.80666e-06
6.33423e-05
-6.82992e-06
8.73917e-06
6.22073e-05
-8.73502e-06
1.1373e-05
6.01941e-05
-1.11951e-05
1.51892e-05
5.65791e-05
-1.43178e-05
2.06768e-05
4.88184e-05
-1.83393e-05
2.98526e-05
3.34244e-05
-2.29421e-05
4.36529e-05
-2.13593e-05
5.93813e-05
5.4309e-05
8.22008e-06
-3.74817e-07
4.97345e-05
4.58418e-06
-7.423e-07
4.70886e-05
2.61717e-06
-1.01769e-06
4.55668e-05
1.44469e-06
-1.32263e-06
4.44402e-05
9.85958e-07
-1.74181e-06
4.33944e-05
8.23971e-07
-2.30083e-06
4.2249e-05
8.18368e-07
-3.03231e-06
4.0878e-05
9.03078e-07
-3.9773e-06
3.91594e-05
1.0543e-06
-5.19136e-06
3.69503e-05
1.25835e-06
-6.74143e-06
3.40528e-05
1.5185e-06
-8.71817e-06
3.0217e-05
1.78779e-06
-1.11702e-05
2.50105e-05
2.12656e-06
-1.42624e-05
1.80835e-05
2.28196e-06
-1.76319e-05
8.59709e-06
2.54274e-06
-2.14204e-05
1.4219e-06
-1.8277e-05
6.47142e-05
6.02848e-06
-5.47591e-07
6.44257e-05
4.86622e-06
-1.05336e-06
6.35485e-05
3.43885e-06
-1.42552e-06
6.2477e-05
2.39893e-06
-1.82793e-06
6.13396e-05
1.92513e-06
-2.37506e-06
6.0084e-05
1.77703e-06
-3.10715e-06
5.86127e-05
1.85145e-06
-4.0685e-06
5.68056e-05
2.08972e-06
-5.31453e-06
5.45163e-05
2.46932e-06
-6.91978e-06
5.15518e-05
2.97925e-06
-8.97526e-06
4.76522e-05
3.6234e-06
-1.16017e-05
4.24311e-05
4.35618e-06
-1.48762e-05
3.53652e-05
5.21617e-06
-1.90002e-05
2.57333e-05
5.92269e-06
-2.35572e-05
1.27445e-05
6.60088e-06
-2.85909e-05
4.91126e-06
-2.44337e-05
6.44256e-05
4.12604e-06
-5.51937e-07
6.48667e-05
4.41913e-06
-1.06191e-06
6.46017e-05
3.64878e-06
-1.43493e-06
6.39368e-05
2.94682e-06
-1.837e-06
6.30544e-05
2.60952e-06
-2.38335e-06
6.1961e-05
2.56818e-06
-3.11409e-06
6.06002e-05
2.77454e-06
-4.07313e-06
5.88734e-05
3.19692e-06
-5.3156e-06
5.66418e-05
3.82812e-06
-6.91591e-06
5.3708e-05
4.67143e-06
-8.96558e-06
4.97943e-05
5.74398e-06
-1.15861e-05
4.44802e-05
7.01547e-06
-1.48591e-05
3.71872e-05
8.52324e-06
-1.89857e-05
2.71243e-05
9.96143e-06
-2.35652e-05
1.34115e-05
1.13145e-05
-2.86251e-05
8.98087e-06
-2.4453e-05
6.35579e-05
3.09386e-06
-5.2808e-07
6.41007e-05
3.87474e-06
-1.0228e-06
6.41382e-05
3.56162e-06
-1.38467e-06
6.37838e-05
3.19123e-06
-1.77414e-06
6.31507e-05
3.05361e-06
-2.30242e-06
6.22573e-05
3.17149e-06
-3.00739e-06
6.10691e-05
3.54173e-06
-3.93052e-06
5.9505e-05
4.16457e-06
-5.12403e-06
5.74357e-05
5.05713e-06
-6.65871e-06
5.4663e-05
6.248e-06
-8.62244e-06
5.08958e-05
7.78243e-06
-1.11317e-05
4.56791e-05
9.66647e-06
-1.42704e-05
3.83744e-05
1.19669e-05
-1.82296e-05
2.81147e-05
1.43599e-05
-2.26496e-05
1.38972e-05
1.67489e-05
-2.75398e-05
1.37297e-05
-2.35561e-05
6.31731e-05
2.45019e-06
-4.93036e-07
6.36803e-05
3.37214e-06
-9.64872e-07
6.3841e-05
3.35921e-06
-1.31108e-06
6.36822e-05
3.25008e-06
-1.68271e-06
6.32537e-05
3.30617e-06
-2.18506e-06
6.25629e-05
3.59e-06
-2.85286e-06
6.15797e-05
4.12817e-06
-3.72393e-06
6.02339e-05
4.94815e-06
-4.84598e-06
5.84057e-05
6.09348e-06
-6.28391e-06
5.59015e-05
7.6259e-06
-8.11922e-06
5.24242e-05
9.63241e-06
-1.04589e-05
4.74818e-05
1.21903e-05
-1.33877e-05
4.03584e-05
1.54461e-05
-1.70764e-05
2.9983e-05
1.91754e-05
-2.12283e-05
1.50592e-05
2.33158e-05
-2.58157e-05
2.00385e-05
-2.21254e-05
6.30017e-05
1.98231e-06
-4.51613e-07
6.34844e-05
2.90145e-06
-8.96012e-07
6.37328e-05
3.07864e-06
-1.2237e-06
6.37292e-05
3.16566e-06
-1.57412e-06
6.34842e-05
3.39089e-06
-2.0454e-06
6.29959e-05
3.82712e-06
-2.66846e-06
6.2238e-05
4.51887e-06
-3.47652e-06
6.11499e-05
5.51583e-06
-4.51141e-06
5.96223e-05
6.88929e-06
-5.8303e-06
5.74656e-05
8.74364e-06
-7.50601e-06
5.4375e-05
1.12247e-05
-9.63263e-06
4.9804e-05
1.45321e-05
-1.22952e-05
4.29465e-05
1.89411e-05
-1.56359e-05
3.24521e-05
2.45028e-05
-1.94435e-05
1.66743e-05
3.12965e-05
-2.3629e-05
2.84659e-05
-2.03369e-05
6.29498e-05
1.57133e-06
-4.04931e-07
6.34477e-05
2.42397e-06
-8.18391e-07
6.3781e-05
2.72384e-06
-1.12524e-06
6.39145e-05
2.95772e-06
-1.45165e-06
6.38422e-05
3.3208e-06
-1.88762e-06
6.35608e-05
3.88168e-06
-2.45954e-06
6.30536e-05
4.69303e-06
-3.19501e-06
6.22799e-05
5.81831e-06
-4.1283e-06
6.11622e-05
7.34792e-06
-5.30579e-06
5.95559e-05
9.42118e-06
-6.78659e-06
5.7221e-05
1.2233e-05
-8.64244e-06
5.36555e-05
1.61404e-05
-1.09459e-05
4.80709e-05
2.16046e-05
-1.37828e-05
3.85814e-05
2.95114e-05
-1.70282e-05
2.24785e-05
4.06873e-05
-2.0477e-05
4.37846e-05
-1.76228e-05
6.29605e-05
-3.55208e-07
1.15502e-06
6.35125e-05
-7.3569e-07
1.90127e-06
6.39421e-05
-1.02035e-06
2.28427e-06
6.42071e-05
-1.32118e-06
2.63273e-06
6.42991e-05
-1.71941e-06
3.10551e-06
6.422e-05
-2.23666e-06
3.76005e-06
6.3965e-05
-2.89444e-06
4.65162e-06
6.35122e-05
-3.71892e-06
5.85258e-06
6.28101e-05
-4.7452e-06
7.46877e-06
6.17454e-05
-6.01829e-06
9.67421e-06
6.01167e-05
-7.58809e-06
1.27148e-05
5.74376e-05
-9.51682e-06
1.71411e-05
5.29622e-05
-1.18364e-05
2.35985e-05
4.44819e-05
-1.4521e-05
3.41734e-05
2.91555e-05
-1.72502e-05
5.03217e-05
-1.50792e-05
6.666e-05
5.42551e-05
8.22702e-06
-3.56897e-07
4.95962e-05
4.59769e-06
-6.81152e-07
4.6857e-05
2.63295e-06
-9.11393e-07
4.52332e-05
1.46379e-06
-1.16262e-06
4.39898e-05
1.01037e-06
-1.50878e-06
4.28044e-05
8.56049e-07
-1.97154e-06
4.14875e-05
8.61121e-07
-2.57651e-06
3.99039e-05
9.60393e-07
-3.35405e-06
3.79245e-05
1.13128e-06
-4.34326e-06
3.54074e-05
1.36184e-06
-5.5862e-06
3.21689e-05
1.65753e-06
-7.13717e-06
2.8017e-05
1.97547e-06
-8.99378e-06
2.26147e-05
2.37892e-06
-1.1239e-05
1.58455e-05
2.62726e-06
-1.349e-05
7.21827e-06
2.98452e-06
-1.57777e-05
1.91901e-06
-1.29776e-05
6.46443e-05
6.04585e-06
-5.10694e-07
6.42483e-05
4.89597e-06
-9.55669e-07
6.32485e-05
3.47551e-06
-1.26825e-06
6.20414e-05
2.44387e-06
-1.60098e-06
6.07481e-05
1.98254e-06
-2.05389e-06
5.93058e-05
1.85231e-06
-2.66111e-06
5.76044e-05
1.95163e-06
-3.45762e-06
5.55112e-05
2.22374e-06
-4.48472e-06
5.28694e-05
2.64861e-06
-5.79523e-06
4.94851e-05
3.21804e-06
-7.44716e-06
4.51141e-05
3.9396e-06
-9.5129e-06
3.94452e-05
4.76866e-06
-1.20005e-05
3.20783e-05
5.75031e-06
-1.50047e-05
2.26295e-05
6.58901e-06
-1.80702e-05
1.07466e-05
7.4049e-06
-2.11283e-05
5.63241e-06
-1.74004e-05
6.43561e-05
4.15272e-06
-5.14922e-07
6.46899e-05
4.464e-06
-9.63768e-07
6.43026e-05
3.70501e-06
-1.27709e-06
6.35028e-05
3.01613e-06
-1.60946e-06
6.24654e-05
2.69823e-06
-2.06167e-06
6.11867e-05
2.68472e-06
-2.66772e-06
5.95976e-05
2.92993e-06
-3.46233e-06
5.75869e-05
3.40534e-06
-4.48656e-06
5.5005e-05
4.10774e-06
-5.79311e-06
5.16532e-05
5.04463e-06
-7.44036e-06
4.7269e-05
6.23891e-06
-9.5012e-06
4.15061e-05
7.65895e-06
-1.19865e-05
3.39078e-05
9.35333e-06
-1.49904e-05
2.40232e-05
1.09747e-05
-1.80664e-05
1.14134e-05
1.25222e-05
-2.11327e-05
9.97866e-06
-1.73857e-05
6.34905e-05
3.12873e-06
-4.94625e-07
6.39292e-05
3.93305e-06
-9.30519e-07
6.38488e-05
3.63513e-06
-1.23436e-06
6.33646e-05
3.28218e-06
-1.55606e-06
6.25832e-05
3.17027e-06
-1.99304e-06
6.15129e-05
3.32513e-06
-2.57745e-06
6.01071e-05
3.7472e-06
-3.34205e-06
5.82728e-05
4.44122e-06
-4.32562e-06
5.58699e-05
5.4301e-06
-5.57814e-06
5.26988e-05
6.74866e-06
-7.15535e-06
4.84817e-05
8.45106e-06
-9.12682e-06
4.28348e-05
1.05415e-05
-1.15059e-05
3.52339e-05
1.31052e-05
-1.43805e-05
2.51419e-05
1.57529e-05
-1.73358e-05
1.19814e-05
1.84228e-05
-2.02798e-05
1.50923e-05
-1.66882e-05
6.31087e-05
2.49178e-06
-4.64747e-07
6.35164e-05
3.44158e-06
-8.81176e-07
6.35652e-05
3.44701e-06
-1.17173e-06
6.32841e-05
3.35896e-06
-1.47836e-06
6.27167e-05
3.44613e-06
-1.8935e-06
6.18609e-05
3.77477e-06
-2.44673e-06
6.0676e-05
4.37609e-06
-3.1679e-06
5.90801e-05
5.28339e-06
-4.09227e-06
5.69437e-05
6.54802e-06
-5.26545e-06
5.40714e-05
8.24039e-06
-6.73867e-06
5.01782e-05
1.04605e-05
-8.57522e-06
4.48372e-05
1.32856e-05
-1.07908e-05
3.7436e-05
1.68908e-05
-1.34609e-05
2.72142e-05
2.09669e-05
-1.62206e-05
1.32651e-05
2.55127e-05
-1.89565e-05
2.1839e-05
-1.56068e-05
6.29407e-05
2.02895e-06
-4.29446e-07
6.33296e-05
2.9792e-06
-8.22522e-07
6.34731e-05
3.17709e-06
-1.09737e-06
6.33561e-05
3.28794e-06
-1.3861e-06
6.29836e-05
3.54833e-06
-1.7751e-06
6.23453e-05
4.03546e-06
-2.29085e-06
6.14052e-05
4.79928e-06
-2.95952e-06
6.00923e-05
5.89673e-06
-3.81188e-06
5.82887e-05
7.40899e-06
-4.88768e-06
5.58029e-05
9.45224e-06
-6.23207e-06
5.23399e-05
1.21904e-05
-7.89954e-06
4.74108e-05
1.58278e-05
-9.90834e-06
4.02996e-05
2.06819e-05
-1.23157e-05
2.99427e-05
2.67049e-05
-1.48246e-05
1.50349e-05
3.40759e-05
-1.72844e-05
3.07919e-05
-1.42548e-05
6.28926e-05
1.62105e-06
-3.89677e-07
6.33031e-05
2.50677e-06
-7.56423e-07
6.35398e-05
2.82875e-06
-1.01362e-06
6.35701e-05
3.08812e-06
-1.2821e-06
6.33834e-05
3.48883e-06
-1.64142e-06
6.29695e-05
4.10425e-06
-2.11442e-06
6.23035e-05
4.99308e-06
-2.72284e-06
6.13368e-05
6.22683e-06
-3.49167e-06
5.99857e-05
7.90715e-06
-4.45283e-06
5.81059e-05
1.01875e-05
-5.6421e-06
5.54686e-05
1.32846e-05
-7.0993e-06
5.16228e-05
1.75662e-05
-8.83851e-06
4.58555e-05
2.35489e-05
-1.08825e-05
3.65172e-05
3.20249e-05
-1.30098e-05
2.11363e-05
4.39809e-05
-1.50011e-05
4.66474e-05
-1.2342e-05
6.29075e-05
-3.47333e-07
1.20572e-06
6.33789e-05
-6.86016e-07
1.98562e-06
6.37206e-05
-9.24415e-07
2.39116e-06
6.38933e-05
-1.17133e-06
2.76557e-06
6.3885e-05
-1.49895e-06
3.27667e-06
6.36921e-05
-1.92626e-06
3.98679e-06
6.33034e-05
-2.47019e-06
4.95746e-06
6.26913e-05
-3.14957e-06
6.26957e-06
6.18001e-05
-3.98795e-06
8.0411e-06
6.05185e-05
-5.01138e-06
1.04622e-05
5.86564e-05
-6.24489e-06
1.38035e-05
5.57702e-05
-7.69974e-06
1.86353e-05
5.11805e-05
-9.36477e-06
2.5667e-05
4.28725e-05
-1.11049e-05
3.69168e-05
2.81732e-05
-1.2633e-05
5.4063e-05
-1.0511e-05
7.02524e-05
5.42113e-05
8.23293e-06
-3.01098e-07
4.94833e-05
4.60917e-06
-5.6235e-07
4.66666e-05
2.64635e-06
-7.41058e-07
4.49578e-05
1.48002e-06
-9.33794e-07
4.36173e-05
1.03107e-06
-1.19941e-06
4.23173e-05
8.83156e-07
-1.55463e-06
4.08616e-05
8.9709e-07
-2.01795e-06
3.91093e-05
1.00828e-06
-2.60996e-06
3.69269e-05
1.19485e-06
-3.35574e-06
3.41737e-05
1.44578e-06
-4.27879e-06
3.06771e-05
1.76686e-06
-5.40747e-06
2.62855e-05
2.11644e-06
-6.71862e-06
2.07421e-05
2.55534e-06
-8.25097e-06
1.41068e-05
2.84748e-06
-9.70221e-06
6.17202e-06
3.23272e-06
-1.10756e-05
2.16114e-06
-8.96666e-06
6.45873e-05
6.06066e-06
-4.25691e-07
6.41029e-05
4.92129e-06
-7.83471e-07
6.30012e-05
3.50671e-06
-1.02691e-06
6.16811e-05
2.48207e-06
-1.28285e-06
6.02581e-05
2.03123e-06
-1.63106e-06
5.8662e-05
1.91601e-06
-2.09792e-06
5.67743e-05
2.03609e-06
-2.70892e-06
5.44541e-05
2.3362e-06
-3.49238e-06
5.15381e-05
2.79808e-06
-4.48254e-06
4.78341e-05
3.41534e-06
-5.71272e-06
4.31119e-05
4.19741e-06
-7.22126e-06
3.71155e-05
5.09905e-06
-8.98666e-06
2.95476e-05
6.16704e-06
-1.10486e-05
2.02756e-05
7.092e-06
-1.30426e-05
9.2885e-06
7.98584e-06
-1.48944e-05
6.12243e-06
-1.2073e-05
6.42996e-05
4.17546e-06
-4.29283e-07
6.45452e-05
4.50222e-06
-7.90285e-07
6.40563e-05
3.75285e-06
-1.03435e-06
6.31438e-05
3.07504e-06
-1.28997e-06
6.19776e-05
2.77345e-06
-1.63762e-06
6.05461e-05
2.78329e-06
-2.10359e-06
5.87721e-05
3.06092e-06
-2.71315e-06
5.6536e-05
3.58025e-06
-3.49446e-06
5.36815e-05
4.34108e-06
-4.48168e-06
5.0011e-05
5.35386e-06
-5.70832e-06
4.5275e-05
6.64526e-06
-7.21305e-06
3.9182e-05
8.1816e-06
-8.97609e-06
3.13772e-05
1.00179e-05
-1.10365e-05
2.16639e-05
1.17742e-05
-1.30352e-05
9.94915e-06
1.34566e-05
-1.48886e-05
1.07396e-05
-1.20536e-05
6.34357e-05
3.15845e-06
-4.13361e-07
6.37889e-05
3.98271e-06
-7.6419e-07
6.36106e-05
3.69768e-06
-1.00082e-06
6.30182e-05
3.35945e-06
-1.2481e-06
6.21133e-05
3.26917e-06
-1.58389e-06
6.08972e-05
3.45501e-06
-2.03307e-06
5.93153e-05
3.92026e-06
-2.61947e-06
5.72663e-05
4.67316e-06
-3.36958e-06
5.46039e-05
5.74102e-06
-4.31566e-06
5.11288e-05
7.16315e-06
-5.48947e-06
4.65749e-05
9e-06
-6.92764e-06
4.06096e-05
1.12535e-05
-8.61252e-06
3.28055e-05
1.40212e-05
-1.05798e-05
2.28728e-05
1.68642e-05
-1.2493e-05
1.05709e-05
1.97419e-05
-1.42633e-05
1.61689e-05
-1.15464e-05
6.30563e-05
2.52722e-06
-3.89851e-07
6.33825e-05
3.50072e-06
-7.25394e-07
6.33384e-05
3.5217e-06
-9.51634e-07
6.29552e-05
3.45143e-06
-1.18716e-06
6.22722e-05
3.56472e-06
-1.50598e-06
6.12806e-05
3.93086e-06
-1.93102e-06
5.99322e-05
4.58469e-06
-2.48395e-06
5.81378e-05
5.56409e-06
-3.18876e-06
5.57617e-05
6.92631e-06
-4.07468e-06
5.26086e-05
8.74816e-06
-5.17054e-06
4.84033e-05
1.11392e-05
-6.50917e-06
4.2766e-05
1.41756e-05
-8.07556e-06
3.51715e-05
1.80532e-05
-9.8983e-06
2.50937e-05
2.23984e-05
-1.16771e-05
1.19399e-05
2.72499e-05
-1.33108e-05
2.32782e-05
-1.07761e-05
6.28912e-05
2.06868e-06
-3.62096e-07
6.32033e-05
3.0454e-06
-6.79289e-07
6.326e-05
3.26081e-06
-8.93238e-07
6.30484e-05
3.39174e-06
-1.1148e-06
6.25697e-05
3.68166e-06
-1.41332e-06
6.18078e-05
4.21131e-06
-1.80936e-06
6.07199e-05
5.03497e-06
-2.32191e-06
5.92287e-05
6.21515e-06
-2.97173e-06
5.72108e-05
7.84057e-06
-3.78402e-06
5.44744e-05
1.00361e-05
-4.78365e-06
5.07329e-05
1.29792e-05
-5.99796e-06
4.55383e-05
1.68768e-05
-7.41502e-06
3.82508e-05
2.20776e-05
-9.05245e-06
2.80228e-05
2.84602e-05
-1.06586e-05
1.38273e-05
3.62712e-05
-1.21102e-05
3.26628e-05
-9.81201e-06
6.28464e-05
1.66339e-06
-3.3083e-07
6.31855e-05
2.57724e-06
-6.27339e-07
6.33422e-05
2.91795e-06
-8.27477e-07
6.32864e-05
3.19878e-06
-1.03329e-06
6.30043e-05
3.63107e-06
-1.30878e-06
6.2481e-05
4.29202e-06
-1.6718e-06
6.16862e-05
5.24509e-06
-2.13814e-06
6.05661e-05
6.56803e-06
-2.72449e-06
5.90336e-05
8.37107e-06
-3.45076e-06
5.69454e-05
1.08181e-05
-4.33591e-06
5.40811e-05
1.41425e-05
-5.39839e-06
5.0026e-05
1.87194e-05
-6.62602e-06
4.41296e-05
2.51077e-05
-8.01625e-06
3.49236e-05
3.40294e-05
-9.37294e-06
2.01412e-05
4.65853e-05
-1.05328e-05
4.8972e-05
-8.50998e-06
6.28647e-05
-2.9755e-07
1.24887e-06
6.32706e-05
-5.72014e-07
2.0574e-06
6.35396e-05
-7.57455e-07
2.48201e-06
6.36352e-05
-9.46478e-07
2.87828e-06
6.35432e-05
-1.19738e-06
3.42152e-06
6.32561e-05
-1.52514e-06
4.17799e-06
6.27589e-05
-1.94204e-06
5.21417e-06
6.20203e-05
-2.46042e-06
6.61748e-06
6.09828e-05
-3.0945e-06
8.51511e-06
5.95374e-05
-3.85701e-06
1.11091e-05
5.75034e-05
-4.75718e-06
1.46888e-05
5.44681e-05
-5.78332e-06
1.98383e-05
4.98061e-05
-6.91222e-06
2.73172e-05
4.16484e-05
-8.0105e-06
3.90927e-05
2.74666e-05
-8.87587e-06
5.701e-05
-7.23673e-06
7.31643e-05
5.4178e-05
8.23754e-06
-2.16647e-07
4.93972e-05
4.61818e-06
-3.99765e-07
4.6521e-05
2.65686e-06
-5.21647e-07
4.47467e-05
1.49275e-06
-6.52248e-07
4.3332e-05
1.04728e-06
-8.32023e-07
4.19454e-05
9.04359e-07
-1.07235e-06
4.03874e-05
9.25171e-07
-1.38512e-06
3.85147e-05
1.0456e-06
-1.78289e-06
3.61948e-05
1.24436e-06
-2.28025e-06
3.32939e-05
1.51121e-06
-2.88909e-06
2.96569e-05
1.85246e-06
-3.62286e-06
2.51676e-05
2.22805e-06
-4.45742e-06
1.96278e-05
2.69767e-06
-5.40879e-06
1.31692e-05
3.02936e-06
-6.27299e-06
5.68979e-06
3.44709e-06
-7.04329e-06
2.3695e-06
-5.64628e-06
6.45439e-05
6.07231e-06
-3.04327e-07
6.39919e-05
4.94121e-06
-5.54495e-07
6.28117e-05
3.5312e-06
-7.21092e-07
6.14043e-05
2.51204e-06
-8.94736e-07
5.98819e-05
2.06935e-06
-1.13076e-06
5.81696e-05
1.96577e-06
-1.44702e-06
5.6144e-05
2.10189e-06
-1.86001e-06
5.36608e-05
2.42353e-06
-2.38716e-06
5.05575e-05
2.91372e-06
-3.04858e-06
4.66503e-05
3.56735e-06
-3.86161e-06
4.17309e-05
4.39515e-06
-4.84456e-06
3.55922e-05
5.35165e-06
-5.97152e-06
2.80122e-05
6.48464e-06
-7.25558e-06
1.89722e-05
7.47548e-06
-8.4487e-06
8.58695e-06
8.42973e-06
-9.49181e-06
6.49867e-06
-7.61512e-06
6.42565e-05
4.19334e-06
-3.06803e-07
6.44345e-05
4.53226e-06
-5.59348e-07
6.38674e-05
3.79042e-06
-7.26489e-07
6.28681e-05
3.12124e-06
-8.99889e-07
6.16031e-05
2.83233e-06
-1.13554e-06
6.00562e-05
2.86025e-06
-1.45119e-06
5.81453e-05
3.16286e-06
-1.86325e-06
5.57475e-05
3.71584e-06
-2.38899e-06
5.2707e-05
4.52105e-06
-3.04851e-06
4.88344e-05
5.59091e-06
-3.85923e-06
4.39018e-05
6.95438e-06
-4.83971e-06
3.76665e-05
8.57591e-06
-5.96497e-06
2.98483e-05
1.05141e-05
-7.24771e-06
2.03655e-05
1.23659e-05
-8.44277e-06
9.25105e-06
1.41408e-05
-9.48533e-06
1.12961e-05
-7.5998e-06
6.33941e-05
3.18182e-06
-2.95919e-07
6.36818e-05
4.02175e-06
-5.41399e-07
6.3428e-05
3.74679e-06
-7.03423e-07
6.27522e-05
3.42004e-06
-8.71075e-07
6.17527e-05
3.34655e-06
-1.09863e-06
6.04264e-05
3.55633e-06
-1.40285e-06
5.87142e-05
4.05479e-06
-1.79918e-06
5.65117e-05
4.85263e-06
-2.30384e-06
5.36727e-05
5.98014e-06
-2.93574e-06
5.00059e-05
7.4795e-06
-3.71125e-06
4.52656e-05
9.41483e-06
-4.64781e-06
3.91657e-05
1.17853e-05
-5.72196e-06
3.13494e-05
1.46953e-05
-6.94478e-06
2.16377e-05
1.76699e-05
-8.08534e-06
9.91023e-06
2.06815e-05
-9.07653e-06
1.693e-05
-7.26997e-06
6.30166e-05
2.55509e-06
-2.79694e-07
6.32804e-05
3.54719e-06
-5.14662e-07
6.31648e-05
3.58032e-06
-6.69573e-07
6.2703e-05
3.5239e-06
-8.29192e-07
6.19313e-05
3.65745e-06
-1.04518e-06
6.0837e-05
4.05254e-06
-1.33296e-06
5.93678e-05
4.74667e-06
-1.70662e-06
5.74315e-05
5.78091e-06
-2.18075e-06
5.48929e-05
7.21646e-06
-2.7724e-06
5.1564e-05
9.1341e-06
-3.49621e-06
4.71883e-05
1.16488e-05
-4.36754e-06
4.14291e-05
1.4834e-05
-5.36504e-06
3.38257e-05
1.88966e-05
-6.4962e-06
2.39555e-05
2.34161e-05
-7.55304e-06
1.13332e-05
2.84553e-05
-8.46233e-06
2.42639e-05
-6.77667e-06
6.28537e-05
2.0999e-06
-2.60585e-07
6.31071e-05
3.0974e-06
-4.82912e-07
6.3097e-05
3.32651e-06
-6.29377e-07
6.28125e-05
3.47306e-06
-7.79447e-07
6.22524e-05
3.78587e-06
-9.81578e-07
6.13969e-05
4.34829e-06
-1.24965e-06
6.01999e-05
5.21775e-06
-1.59597e-06
5.85815e-05
6.46063e-06
-2.03309e-06
5.64189e-05
8.17059e-06
-2.57554e-06
5.35272e-05
1.04778e-05
-3.2356e-06
4.96364e-05
1.35672e-05
-4.02553e-06
4.43375e-05
1.76442e-05
-4.9264e-06
3.70471e-05
2.30742e-05
-5.93974e-06
2.7012e-05
2.96809e-05
-6.88824e-06
1.32933e-05
3.77508e-05
-7.687e-06
3.39012e-05
-6.15593e-06
6.28115e-05
1.69665e-06
-2.39047e-07
6.30961e-05
2.6326e-06
-4.47136e-07
6.31913e-05
2.98793e-06
-5.84129e-07
6.3069e-05
3.28546e-06
-7.23435e-07
6.27138e-05
3.7422e-06
-9.09876e-07
6.21076e-05
4.43822e-06
-1.15554e-06
6.12175e-05
5.4404e-06
-1.47065e-06
5.99881e-05
6.83076e-06
-1.86521e-06
5.83333e-05
8.72515e-06
-2.35052e-06
5.6117e-05
1.12936e-05
-2.93547e-06
5.31343e-05
1.47788e-05
-3.62738e-06
4.90048e-05
1.95561e-05
-4.40833e-06
4.31255e-05
2.62063e-05
-5.26903e-06
3.41053e-05
3.5396e-05
-6.06779e-06
1.97293e-05
4.82922e-05
-6.69817e-06
5.04681e-05
-5.34745e-06
6.28325e-05
-2.16128e-07
1.28277e-06
6.31883e-05
-4.0904e-07
2.11377e-06
6.34015e-05
-5.35951e-07
2.55329e-06
6.34377e-05
-6.63787e-07
2.96655e-06
6.32813e-05
-8.33482e-07
3.53467e-06
6.29228e-05
-1.0552e-06
4.32681e-06
6.23451e-05
-1.33693e-06
5.41299e-06
6.15162e-05
-1.6859e-06
6.88508e-06
6.03806e-05
-2.1099e-06
8.87621e-06
5.88361e-05
-2.61416e-06
1.15953e-05
5.67165e-05
-3.2007e-06
1.53419e-05
5.36388e-05
-3.85287e-06
2.07034e-05
4.90183e-05
-4.54992e-06
2.84645e-05
4.10473e-05
-5.19002e-06
4.05465e-05
2.72213e-05
-5.64665e-06
5.8889e-05
-4.54051e-06