/*--------------------------------*- C++ -*----------------------------------*\
| =========                 |                                                 |
| \\      /  F ield         | OpenFOAM: The Open Source CFD Toolbox           |
|  \\    /   O peration     | Version:  v1912                                 |
|   \\  /    A nd           | Website:  www.openfoam.com                      |
|    \\/     M anipulation  |                                                 |
\*---------------------------------------------------------------------------*/
FoamFile
{
    version     2.0;
    format      ascii;
    class       pointVectorField;
    location    "0.13/fluid";
    object      pointMotionU;
}
// * * * * * * * * * * * * * * * * * * * * * * * * * * * * * * * * * * * * * //

dimensions      [0 1 -1 0 0 0 0];


internalField   nonuniform List<vector> 
16859
(
(0 0 0)
(0 0 0)
(0 0 0)
(0 0 0)
(0 0 0)
(0 0 0)
(0 0 0)
(0 0 0)
(0 0 0)
(0 0 0)
(0 0 0)
(0 0 0)
(0 0 0)
(0 0 0)
(0 0 0)
(0 0 0)
(2.86515e-08 1.03605e-07 4.12012e-08)
(0 0 0)
(1.11215e-09 -5.49086e-09 4.75657e-09)
(2.05157e-09 -1.04611e-08 9.12972e-09)
(2.79393e-09 -1.50978e-08 1.33321e-08)
(3.31304e-09 -1.95788e-08 1.75637e-08)
(3.58765e-09 -2.40091e-08 2.20057e-08)
(3.58248e-09 -2.83965e-08 2.67966e-08)
(3.26499e-09 -3.26996e-08 3.20737e-08)
(2.60967e-09 -3.68289e-08 3.79721e-08)
(1.60441e-09 -4.06011e-08 4.46078e-08)
(2.44458e-10 -4.36661e-08 5.2068e-08)
(-1.36863e-09 -4.53267e-08 6.04221e-08)
(-2.7697e-09 -4.41631e-08 6.97904e-08)
(-2.92132e-09 -3.73859e-08 8.06005e-08)
(4.59504e-10 -1.9545e-08 9.39389e-08)
(1.11471e-08 1.44007e-08 1.09678e-07)
(6.66749e-08 9.87181e-08 1.21059e-07)
(0 0 0)
(2.27023e-09 -1.08489e-08 9.42562e-09)
(4.19115e-09 -2.06823e-08 1.809e-08)
(5.71814e-09 -2.98814e-08 2.64226e-08)
(6.81492e-09 -3.87562e-08 3.47995e-08)
(7.43549e-09 -4.74987e-08 4.35496e-08)
(7.52319e-09 -5.61838e-08 5.29786e-08)
(7.03554e-09 -6.47812e-08 6.33829e-08)
(5.94607e-09 -7.31457e-08 7.50221e-08)
(4.25438e-09 -8.09663e-08 8.80962e-08)
(1.96497e-09 -8.76833e-08 1.02709e-07)
(-6.09019e-10 -9.2224e-08 1.18881e-07)
(-2.58229e-09 -9.27567e-08 1.36585e-07)
(-2.20169e-09 -8.64967e-08 1.55814e-07)
(4.13433e-09 -6.9937e-08 1.76379e-07)
(2.07555e-08 -4.41902e-08 1.95329e-07)
(9.20829e-08 -6.53062e-09 2.23275e-07)
(0 0 0)
(3.50538e-09 -1.59086e-08 1.39105e-08)
(6.4805e-09 -3.03533e-08 2.66972e-08)
(8.87852e-09 -4.3879e-08 3.89877e-08)
(1.06586e-08 -5.69056e-08 5.13036e-08)
(1.17635e-08 -6.97437e-08 6.41256e-08)
(1.21449e-08 -8.25699e-08 7.79348e-08)
(1.1776e-08 -9.54108e-08 9.3186e-08)
(1.06713e-08 -1.08123e-07 1.10262e-07)
(8.84263e-09 -1.20374e-07 1.2942e-07)
(6.43011e-09 -1.3153e-07 1.50776e-07)
(3.89242e-09 -1.40501e-07 1.74289e-07)
(2.27319e-09 -1.45646e-07 1.99771e-07)
(3.45889e-09 -1.44809e-07 2.26695e-07)
(1.0873e-08 -1.36074e-07 2.53771e-07)
(2.81323e-08 -1.21499e-07 2.76807e-07)
(9.22643e-08 -9.72046e-08 3.04125e-07)
(0 0 0)
(4.82569e-09 -2.04848e-08 1.81026e-08)
(8.94469e-09 -3.9103e-08 3.47389e-08)
(1.23183e-08 -5.65373e-08 5.0703e-08)
(1.49067e-08 -7.33307e-08 6.66471e-08)
(1.66753e-08 -8.99188e-08 8.31996e-08)
(1.76056e-08 -1.06601e-07 1.00999e-07)
(1.77202e-08 -1.23503e-07 1.20659e-07)
(1.71001e-08 -1.40544e-07 1.42682e-07)
(1.58454e-08 -1.57455e-07 1.67398e-07)
(1.42464e-08 -1.73675e-07 1.94963e-07)
(1.28726e-08 -1.88316e-07 2.25379e-07)
(1.27412e-08 -2.00042e-07 2.58408e-07)
(1.52919e-08 -2.06952e-07 2.93065e-07)
(2.27455e-08 -2.06936e-07 3.26877e-07)
(3.74269e-08 -1.99888e-07 3.53663e-07)
(9.30505e-08 -1.79337e-07 3.79609e-07)
(0 0 0)
(6.22583e-09 -2.43844e-08 2.19094e-08)
(1.15707e-08 -4.65539e-08 4.20276e-08)
(1.60138e-08 -6.732e-08 6.12897e-08)
(1.95358e-08 -8.73438e-08 8.04603e-08)
(2.21411e-08 -1.07189e-07 1.00292e-07)
(2.38654e-08 -1.27292e-07 1.21567e-07)
(2.48096e-08 -1.47889e-07 1.4504e-07)
(2.5144e-08 -1.69008e-07 1.71327e-07)
(2.51314e-08 -1.90498e-07 2.00864e-07)
(2.52171e-08 -2.12027e-07 2.33917e-07)
(2.61496e-08 -2.33043e-07 2.70686e-07)
(2.90065e-08 -2.52603e-07 3.11147e-07)
(3.4784e-08 -2.69027e-07 3.54316e-07)
(4.44136e-08 -2.79349e-07 3.97057e-07)
(5.82893e-08 -2.79835e-07 4.30749e-07)
(1.07127e-07 -2.59382e-07 4.5846e-07)
(0 0 0)
(7.68043e-09 -2.74273e-08 2.52581e-08)
(1.43094e-08 -5.2365e-08 4.84264e-08)
(1.98885e-08 -7.57388e-08 7.05436e-08)
(2.44348e-08 -9.83193e-08 9.24647e-08)
(2.80005e-08 -1.20793e-07 1.15037e-07)
(3.06896e-08 -1.43714e-07 1.39159e-07)
(3.26977e-08 -1.67433e-07 1.65705e-07)
(3.43109e-08 -1.92095e-07 1.95399e-07)
(3.59479e-08 -2.17717e-07 2.28776e-07)
(3.82882e-08 -2.44243e-07 2.66278e-07)
(4.23884e-08 -2.71575e-07 3.08416e-07)
(4.96835e-08 -2.99475e-07 3.55708e-07)
(6.15075e-08 -3.27224e-07 4.08002e-07)
(7.87517e-08 -3.52604e-07 4.63012e-07)
(9.97417e-08 -3.6941e-07 5.10533e-07)
(1.48317e-07 -3.50558e-07 5.48807e-07)
(0 0 0)
(9.14579e-09 -2.94603e-08 2.80987e-08)
(1.70723e-08 -5.62498e-08 5.38367e-08)
(2.38136e-08 -8.13887e-08 7.83288e-08)
(2.94214e-08 -1.05739e-07 1.02479e-07)
(3.3994e-08 -1.30084e-07 1.2719e-07)
(3.77048e-08 -1.55073e-07 1.53445e-07)
(4.08403e-08 -1.8114e-07 1.82213e-07)
(4.37939e-08 -2.08534e-07 2.14291e-07)
(4.7122e-08 -2.37419e-07 2.50287e-07)
(5.17276e-08 -2.67972e-07 2.90776e-07)
(5.89881e-08 -3.00522e-07 3.36533e-07)
(7.09075e-08 -3.35639e-07 3.88707e-07)
(8.99747e-08 -3.74166e-07 4.48505e-07)
(1.19301e-07 -4.16908e-07 5.16306e-07)
(1.58131e-07 -4.59414e-07 5.83736e-07)
(2.40179e-07 -5.1469e-07 6.66352e-07)
(0 0 0)
(1.05616e-08 -3.03719e-08 3.03957e-08)
(1.97466e-08 -5.80095e-08 5.82016e-08)
(2.76207e-08 -8.39921e-08 8.45685e-08)
(3.42613e-08 -1.09247e-07 1.10407e-07)
(3.98033e-08 -1.34617e-07 1.36637e-07)
(4.44751e-08 -1.608e-07 1.64281e-07)
(4.86309e-08 -1.88281e-07 1.94367e-07)
(5.27299e-08 -2.17373e-07 2.27721e-07)
(5.74185e-08 -2.48305e-07 2.64964e-07)
(6.36547e-08 -2.8137e-07 3.06629e-07)
(7.29212e-08 -3.17036e-07 3.53516e-07)
(8.73601e-08 -3.56103e-07 4.06914e-07)
(1.09737e-07 -3.9984e-07 4.68437e-07)
(1.43653e-07 -4.49885e-07 5.39587e-07)
(1.87205e-07 -5.01354e-07 6.12153e-07)
(3.1674e-07 -6.1025e-07 7.52789e-07)
(0 0 0)
(0 0 0)
(0 0 0)
(0 0 0)
(0 0 0)
(0 0 0)
(0 0 0)
(0 0 0)
(0 0 0)
(0 0 0)
(0 0 0)
(0 0 0)
(0 0 0)
(0 0 0)
(0 0 0)
(0 0 0)
(-3.83436e-08 3.9929e-08 3.49131e-08)
(0 0 0)
(8.95279e-10 -5.6713e-09 4.65348e-09)
(1.62961e-09 -1.08107e-08 8.93391e-09)
(2.16161e-09 -1.56e-08 1.30343e-08)
(2.44536e-09 -2.0218e-08 1.714e-08)
(2.42925e-09 -2.47906e-08 2.14279e-08)
(2.04643e-09 -2.93453e-08 2.6043e-08)
(1.22434e-09 -3.38479e-08 3.11261e-08)
(-1.26632e-10 -3.8221e-08 3.68138e-08)
(-2.1294e-09 -4.23062e-08 4.32139e-08)
(-4.95965e-09 -4.5801e-08 5.0403e-08)
(-8.82074e-09 -4.81365e-08 5.84487e-08)
(-1.38998e-08 -4.81787e-08 6.74575e-08)
(-2.05229e-08 -4.3695e-08 7.77652e-08)
(-2.92373e-08 -3.05581e-08 9.01838e-08)
(-3.94318e-08 -5.17877e-09 1.04582e-07)
(-6.36454e-08 3.05939e-08 1.22738e-07)
(0 0 0)
(1.84763e-09 -1.11981e-08 9.21857e-09)
(3.37024e-09 -2.13461e-08 1.76837e-08)
(4.49301e-09 -3.08289e-08 2.5801e-08)
(5.13752e-09 -3.99749e-08 3.39261e-08)
(5.20634e-09 -4.90094e-08 4.23815e-08)
(4.58597e-09 -5.80285e-08 5.14746e-08)
(3.1585e-09 -6.70141e-08 6.15032e-08)
(7.85749e-10 -7.5842e-08 7.27288e-08)
(-2.71067e-09 -8.42377e-08 8.53348e-08)
(-7.57155e-09 -9.17146e-08 9.94256e-08)
(-1.39629e-08 -9.74069e-08 1.15013e-07)
(-2.18156e-08 -9.9851e-08 1.32054e-07)
(-3.07318e-08 -9.68963e-08 1.50498e-07)
(-3.91091e-08 -8.62248e-08 1.70117e-07)
(-4.29718e-08 -6.93131e-08 1.89075e-07)
(-4.93057e-08 -6.23183e-08 2.17967e-07)
(0 0 0)
(2.89961e-09 -1.64029e-08 1.35944e-08)
(5.30889e-09 -3.12862e-08 2.60725e-08)
(7.1354e-09 -4.52149e-08 3.80354e-08)
(8.28128e-09 -5.86423e-08 4.99815e-08)
(8.62651e-09 -7.19113e-08 6.23809e-08)
(8.04551e-09 -8.52189e-08 7.57042e-08)
(6.41534e-09 -9.86073e-08 9.04076e-08)
(3.61365e-09 -1.11955e-07 1.06873e-07)
(-5.27144e-10 -1.24961e-07 1.25353e-07)
(-6.16541e-09 -1.37083e-07 1.45947e-07)
(-1.33248e-08 -1.4742e-07 1.68607e-07)
(-2.17536e-08 -1.5466e-07 1.93161e-07)
(-3.0704e-08 -1.57202e-07 2.19092e-07)
(-3.80066e-08 -1.54021e-07 2.45233e-07)
(-3.9659e-08 -1.47305e-07 2.68726e-07)
(-4.81463e-08 -1.45433e-07 2.97358e-07)
(0 0 0)
(4.07247e-09 -2.10988e-08 1.76804e-08)
(7.49066e-09 -4.02626e-08 3.39026e-08)
(1.01604e-08 -5.82083e-08 4.94323e-08)
(1.1981e-08 -7.55142e-08 6.48994e-08)
(1.28456e-08 -9.26463e-08 8.09068e-08)
(1.26526e-08 -1.09924e-07 9.80782e-08)
(1.13228e-08 -1.27488e-07 1.17027e-07)
(8.80131e-09 -1.45275e-07 1.38254e-07)
(5.02422e-09 -1.63038e-07 1.62091e-07)
(-8.83675e-12 -1.80293e-07 1.88658e-07)
(-6.18986e-09 -1.96274e-07 2.17944e-07)
(-1.32703e-08 -2.09871e-07 2.4974e-07)
(-2.08836e-08 -2.19573e-07 2.83107e-07)
(-2.79652e-08 -2.23872e-07 3.15751e-07)
(-3.19063e-08 -2.22888e-07 3.42916e-07)
(-4.44763e-08 -2.22732e-07 3.70472e-07)
(0 0 0)
(5.36529e-09 -2.50946e-08 2.13868e-08)
(9.9126e-09 -4.78993e-08 4.09945e-08)
(1.35611e-08 -6.92651e-08 5.97259e-08)
(1.62311e-08 -8.98858e-08 7.83173e-08)
(1.78559e-08 -1.10356e-07 9.74879e-08)
(1.83922e-08 -1.3113e-07 1.18004e-07)
(1.78449e-08 -1.52458e-07 1.40616e-07)
(1.62726e-08 -1.74373e-07 1.65943e-07)
(1.37888e-08 -1.96741e-07 1.94402e-07)
(1.06014e-08 -2.19258e-07 2.26223e-07)
(7.03011e-09 -2.41414e-07 2.61567e-07)
(3.37709e-09 -2.6237e-07 3.00394e-07)
(-4.97378e-10 -2.80602e-07 3.41763e-07)
(-5.19022e-09 -2.93371e-07 3.82693e-07)
(-1.05973e-08 -2.97209e-07 4.16245e-07)
(-2.78768e-08 -2.96869e-07 4.45444e-07)
(0 0 0)
(6.75359e-09 -2.82089e-08 2.46435e-08)
(1.25259e-08 -5.38484e-08 4.72127e-08)
(1.72621e-08 -7.78823e-08 6.87131e-08)
(2.09209e-08 -1.01115e-07 8.9962e-08)
(2.34917e-08 -1.24262e-07 1.11772e-07)
(2.50103e-08 -1.47897e-07 1.35021e-07)
(2.5592e-08 -1.72376e-07 1.60579e-07)
(2.54406e-08 -1.9784e-07 1.89165e-07)
(2.4868e-08 -2.24303e-07 2.21292e-07)
(2.43704e-08 -2.51698e-07 2.57339e-07)
(2.46489e-08 -2.79894e-07 2.97732e-07)
(2.64572e-08 -3.08631e-07 3.42899e-07)
(3.00265e-08 -3.37158e-07 3.92602e-07)
(3.43855e-08 -3.63128e-07 4.44437e-07)
(3.6652e-08 -3.80652e-07 4.90004e-07)
(1.34556e-08 -3.74959e-07 5.28327e-07)
(0 0 0)
(8.18993e-09 -3.02845e-08 2.74001e-08)
(1.52372e-08 -5.78139e-08 5.24609e-08)
(2.11243e-08 -8.36463e-08 7.62606e-08)
(2.58509e-08 -1.08677e-07 9.96593e-08)
(2.94627e-08 -1.33718e-07 1.23525e-07)
(3.20787e-08 -1.59435e-07 1.48819e-07)
(3.39261e-08 -1.8626e-07 1.76495e-07)
(3.53479e-08 -2.14429e-07 2.07351e-07)
(3.68431e-08 -2.44085e-07 2.41966e-07)
(3.9195e-08 -2.75357e-07 2.80812e-07)
(4.35551e-08 -3.08479e-07 3.24538e-07)
(5.14819e-08 -3.43906e-07 3.74108e-07)
(6.47778e-08 -3.82336e-07 4.30412e-07)
(8.53942e-08 -4.24258e-07 4.93112e-07)
(1.12403e-07 -4.65942e-07 5.55085e-07)
(1.1685e-07 -5.0893e-07 6.12255e-07)
(0 0 0)
(9.60722e-09 -3.12075e-08 2.96203e-08)
(1.79197e-08 -5.95945e-08 5.66816e-08)
(2.49566e-08 -8.62777e-08 8.22912e-08)
(3.0752e-08 -1.12219e-07 1.07317e-07)
(3.53988e-08 -1.38286e-07 1.32641e-07)
(3.90851e-08 -1.6519e-07 1.59262e-07)
(4.21257e-08 -1.93408e-07 1.88189e-07)
(4.49594e-08 -2.2323e-07 2.20253e-07)
(4.82063e-08 -2.54854e-07 2.56023e-07)
(5.27861e-08 -2.88489e-07 2.95944e-07)
(6.00719e-08 -3.24462e-07 3.4063e-07)
(7.19985e-08 -3.63373e-07 3.91123e-07)
(9.11057e-08 -4.06161e-07 4.48634e-07)
(1.20787e-07 -4.53743e-07 5.13602e-07)
(1.60392e-07 -5.01354e-07 5.78381e-07)
(2.43736e-07 -5.63994e-07 6.62579e-07)
(0 0 0)
(0 0 0)
(0 0 0)
(0 0 0)
(0 0 0)
(0 0 0)
(0 0 0)
(0 0 0)
(0 0 0)
(0 0 0)
(0 0 0)
(0 0 0)
(0 0 0)
(0 0 0)
(0 0 0)
(0 0 0)
(-7.78742e-08 -4.83514e-10 1.23209e-08)
(0 0 0)
(6.63146e-10 -5.83062e-09 4.34894e-09)
(1.17588e-09 -1.11188e-08 8.34815e-09)
(1.48064e-09 -1.60524e-08 1.21781e-08)
(1.51092e-09 -2.08055e-08 1.6001e-08)
(1.18138e-09 -2.55129e-08 1.99734e-08)
(3.9184e-10 -3.0229e-08 2.42395e-08)
(-9.73628e-10 -3.49391e-08 2.89377e-08)
(-3.07292e-09 -3.95863e-08 3.41947e-08)
(-6.14498e-09 -4.40537e-08 4.01003e-08)
(-1.05677e-08 -4.81368e-08 4.66868e-08)
(-1.69331e-08 -5.14989e-08 5.39253e-08)
(-2.62626e-08 -5.35766e-08 6.17169e-08)
(-4.06754e-08 -5.34897e-08 6.97891e-08)
(-6.44083e-08 -5.02676e-08 7.73721e-08)
(-1.00714e-07 -4.45292e-08 8.22947e-08)
(-1.54162e-07 -4.04602e-08 6.55263e-08)
(0 0 0)
(1.39368e-09 -1.15012e-08 8.60938e-09)
(2.48679e-09 -2.19308e-08 1.65125e-08)
(3.17269e-09 -3.16777e-08 2.40817e-08)
(3.32858e-09 -4.10758e-08 3.16354e-08)
(2.80272e-09 -5.03795e-08 3.94739e-08)
(1.42108e-09 -5.97151e-08 4.78875e-08)
(-1.01511e-09 -6.90892e-08 5.71593e-08)
(-4.76283e-09 -7.84117e-08 6.75339e-08)
(-1.01949e-08 -8.74775e-08 7.91647e-08)
(-1.78583e-08 -9.59387e-08 9.20684e-08)
(-2.85047e-08 -1.03264e-07 1.06135e-07)
(-4.31813e-08 -1.08699e-07 1.21048e-07)
(-6.34151e-08 -1.11398e-07 1.35977e-07)
(-9.06479e-08 -1.11175e-07 1.49006e-07)
(-1.22073e-07 -1.10152e-07 1.56665e-07)
(-1.52709e-07 -1.17821e-07 1.47019e-07)
(0 0 0)
(2.24722e-09 -1.68286e-08 1.26899e-08)
(4.04455e-09 -3.21005e-08 2.4329e-08)
(5.25081e-09 -4.6392e-08 3.54682e-08)
(5.70915e-09 -6.01806e-08 4.65696e-08)
(5.23318e-09 -7.38381e-08 5.80662e-08)
(3.61649e-09 -8.75867e-08 7.03945e-08)
(6.3473e-10 -1.01493e-07 8.3986e-08)
(-3.98487e-09 -1.15475e-07 9.91995e-08)
(-1.06191e-08 -1.29295e-07 1.16234e-07)
(-1.97844e-08 -1.42555e-07 1.35097e-07)
(-3.21277e-08 -1.54675e-07 1.55616e-07)
(-4.84804e-08 -1.64935e-07 1.77317e-07)
(-6.97302e-08 -1.72708e-07 1.98976e-07)
(-9.58698e-08 -1.78252e-07 2.18025e-07)
(-1.23064e-07 -1.83398e-07 2.30435e-07)
(-1.52409e-07 -1.92331e-07 2.2429e-07)
(0 0 0)
(3.25759e-09 -2.16218e-08 1.64981e-08)
(5.91432e-09 -4.12593e-08 3.16179e-08)
(7.81641e-09 -5.96536e-08 4.60688e-08)
(8.79942e-09 -7.74099e-08 6.0434e-08)
(8.68159e-09 -9.502e-08 7.52682e-08)
(7.27484e-09 -1.12824e-07 9.11522e-08)
(4.39057e-09 -1.30978e-07 1.0866e-07)
(-1.78892e-10 -1.49446e-07 1.28258e-07)
(-6.70182e-09 -1.68025e-07 1.50202e-07)
(-1.55338e-08 -1.86349e-07 1.74527e-07)
(-2.71631e-08 -2.03876e-07 2.01067e-07)
(-4.2368e-08 -2.199e-07 2.2929e-07)
(-6.22196e-08 -2.33647e-07 2.57664e-07)
(-8.74227e-08 -2.44711e-07 2.82885e-07)
(-1.15315e-07 -2.53458e-07 2.9969e-07)
(-1.47718e-07 -2.63881e-07 2.95554e-07)
(0 0 0)
(4.42909e-09 -2.56916e-08 1.99506e-08)
(8.1041e-09 -4.90371e-08 3.8217e-08)
(1.08801e-08 -7.09165e-08 5.56368e-08)
(1.26133e-08 -9.20519e-08 7.28914e-08)
(1.31637e-08 -1.13059e-07 9.0647e-08)
(1.24045e-08 -1.34403e-07 1.09614e-07)
(1.02358e-08 -1.56338e-07 1.30494e-07)
(6.58138e-09 -1.78905e-07 1.5385e-07)
(1.36239e-09 -2.0199e-07 1.80018e-07)
(-5.52586e-09 -2.25335e-07 2.09109e-07)
(-1.43339e-08 -2.48515e-07 2.41058e-07)
(-2.57751e-08 -2.70881e-07 2.75433e-07)
(-4.14203e-08 -2.91364e-07 3.1064e-07)
(-6.3754e-08 -3.08233e-07 3.42838e-07)
(-9.27648e-08 -3.19204e-07 3.65306e-07)
(-1.30244e-07 -3.29433e-07 3.6453e-07)
(0 0 0)
(5.7369e-09 -2.88581e-08 2.29811e-08)
(1.05642e-08 -5.5084e-08 4.39963e-08)
(1.4366e-08 -7.96749e-08 6.39791e-08)
(1.70401e-08 -1.03462e-07 8.36879e-08)
(1.8509e-08 -1.27175e-07 1.03875e-07)
(1.87347e-08 -1.5139e-07 1.25359e-07)
(1.77406e-08 -1.76453e-07 1.48941e-07)
(1.56194e-08 -2.02492e-07 1.75273e-07)
(1.25301e-08 -2.29505e-07 2.0477e-07)
(8.69782e-09 -2.57392e-07 2.37645e-07)
(4.29825e-09 -2.85948e-07 2.73996e-07)
(-8.99099e-10 -3.14831e-07 3.13661e-07)
(-8.19822e-09 -3.43254e-07 3.55346e-07)
(-2.09316e-08 -3.69191e-07 3.95173e-07)
(-4.28407e-08 -3.88012e-07 4.2492e-07)
(-8.77611e-08 -3.89163e-07 4.30383e-07)
(0 0 0)
(7.12836e-09 -3.09636e-08 2.55383e-08)
(1.31937e-08 -5.91056e-08 4.8861e-08)
(1.81216e-08 -8.55173e-08 7.09662e-08)
(2.18577e-08 -1.1112e-07 9.26554e-08)
(2.43917e-08 -1.36735e-07 1.14737e-07)
(2.57808e-08 -1.63017e-07 1.381e-07)
(2.61767e-08 -1.90379e-07 1.63624e-07)
(2.58388e-08 -2.19024e-07 1.92021e-07)
(2.5158e-08 -2.49045e-07 2.23756e-07)
(2.47028e-08 -2.80471e-07 2.59105e-07)
(2.51897e-08 -3.13318e-07 2.98285e-07)
(2.7305e-08 -3.47665e-07 3.4142e-07)
(3.1355e-08 -3.83544e-07 3.87732e-07)
(3.65874e-08 -4.20251e-07 4.33813e-07)
(4.01132e-08 -4.53263e-07 4.7032e-07)
(1.80986e-08 -4.86015e-07 4.77461e-07)
(0 0 0)
(8.53026e-09 -3.18954e-08 2.7588e-08)
(1.58504e-08 -6.09019e-08 5.27504e-08)
(2.19302e-08 -8.81699e-08 7.65167e-08)
(2.67602e-08 -1.14682e-07 9.97e-08)
(3.0389e-08 -1.41312e-07 1.23124e-07)
(3.29562e-08 -1.68751e-07 1.47714e-07)
(3.47158e-08 -1.97451e-07 1.74388e-07)
(3.60485e-08 -2.27656e-07 2.03883e-07)
(3.75012e-08 -2.59496e-07 2.36659e-07)
(3.98586e-08 -2.93023e-07 2.72942e-07)
(4.41755e-08 -3.28276e-07 3.12909e-07)
(5.17313e-08 -3.65333e-07 3.56723e-07)
(6.39395e-08 -4.04138e-07 4.03843e-07)
(8.22312e-08 -4.43716e-07 4.51459e-07)
(1.0513e-07 -4.77809e-07 4.89996e-07)
(1.56598e-07 -5.07359e-07 4.98023e-07)
(0 0 0)
(0 0 0)
(0 0 0)
(0 0 0)
(0 0 0)
(0 0 0)
(0 0 0)
(0 0 0)
(0 0 0)
(0 0 0)
(0 0 0)
(0 0 0)
(0 0 0)
(0 0 0)
(0 0 0)
(0 0 0)
(-9.09016e-08 -1.50571e-08 1.26316e-08)
(0 0 0)
(4.29282e-10 -5.9619e-09 3.86378e-09)
(7.20885e-10 -1.13703e-08 7.41351e-09)
(8.01554e-10 -1.64192e-08 1.08135e-08)
(5.8411e-10 -2.12884e-08 1.42078e-08)
(-4.49339e-11 -2.6126e-08 1.77284e-08)
(-1.21847e-09 -3.10015e-08 2.15021e-08)
(-3.09295e-09 -3.59134e-08 2.5653e-08)
(-5.88269e-09 -4.08256e-08 3.0291e-08)
(-9.91672e-09 -4.56661e-08 3.54761e-08)
(-1.57311e-08 -5.0328e-08 4.11992e-08)
(-2.41955e-08 -5.46829e-08 4.73677e-08)
(-3.68248e-08 -5.85976e-08 5.37412e-08)
(-5.65725e-08 -6.2033e-08 5.97859e-08)
(-8.85802e-08 -6.53256e-08 6.43775e-08)
(-1.34723e-07 -6.91269e-08 6.56008e-08)
(-1.87657e-07 -6.96695e-08 5.92717e-08)
(0 0 0)
(9.38508e-10 -1.1752e-08 7.64639e-09)
(1.60388e-09 -2.24131e-08 1.46628e-08)
(1.85687e-09 -3.23805e-08 2.1382e-08)
(1.53658e-09 -4.20024e-08 2.80836e-08)
(4.41898e-10 -5.15549e-08 3.50275e-08)
(-1.66085e-09 -6.11852e-08 4.24682e-08)
(-5.04324e-09 -7.09231e-08 5.0658e-08)
(-1.00625e-08 -8.07138e-08 5.98073e-08)
(-1.72451e-08 -9.0422e-08 7.00157e-08)
(-2.73904e-08 -9.98465e-08 8.12427e-08)
(-4.1642e-08 -1.08743e-07 9.32694e-08)
(-6.16727e-08 -1.16878e-07 1.05593e-07)
(-8.97488e-08 -1.24183e-07 1.17114e-07)
(-1.27298e-07 -1.31056e-07 1.25714e-07)
(-1.68068e-07 -1.37938e-07 1.28687e-07)
(-1.95086e-07 -1.46693e-07 1.28715e-07)
(0 0 0)
(1.59594e-09 -1.71823e-08 1.12709e-08)
(2.78304e-09 -3.27814e-08 2.16051e-08)
(3.37464e-09 -4.73867e-08 3.14906e-08)
(3.16303e-09 -6.14923e-08 4.13329e-08)
(1.8979e-09 -7.54924e-08 5.15099e-08)
(-7.02598e-10 -8.96331e-08 6.2406e-08)
(-4.95577e-09 -1.04006e-07 7.44057e-08)
(-1.1261e-08 -1.18564e-07 8.78114e-08)
(-2.0179e-08 -1.33142e-07 1.0276e-07)
(-3.24942e-08 -1.47483e-07 1.19182e-07)
(-4.92658e-08 -1.61269e-07 1.36774e-07)
(-7.1872e-08 -1.74199e-07 1.54879e-07)
(-1.01605e-07 -1.86185e-07 1.7209e-07)
(-1.37752e-07 -1.97633e-07 1.8593e-07)
(-1.72578e-07 -2.08656e-07 1.93487e-07)
(-1.95763e-07 -2.19231e-07 1.97396e-07)
(0 0 0)
(2.44476e-09 -2.20586e-08 1.46564e-08)
(4.34257e-09 -4.21024e-08 2.80812e-08)
(5.48435e-09 -6.08869e-08 4.09005e-08)
(5.64717e-09 -7.90317e-08 5.36259e-08)
(4.5812e-09 -9.70494e-08 6.67455e-08)
(2.0165e-09 -1.15301e-07 8.07749e-08)
(-2.33759e-09 -1.33959e-07 9.62211e-08)
(-8.82123e-09 -1.53014e-07 1.13474e-07)
(-1.78869e-08 -1.72313e-07 1.32716e-07)
(-3.01448e-08 -1.91587e-07 1.53881e-07)
(-4.64645e-08 -2.10458e-07 1.7664e-07)
(-6.80824e-08 -2.28495e-07 2.00264e-07)
(-9.62615e-08 -2.45292e-07 2.23145e-07)
(-1.30712e-07 -2.60599e-07 2.4242e-07)
(-1.6495e-07 -2.73732e-07 2.54438e-07)
(-1.89936e-07 -2.85472e-07 2.61344e-07)
(0 0 0)
(3.4948e-09 -2.61922e-08 1.77261e-08)
(6.29982e-09 -5.00039e-08 3.39438e-08)
(8.21004e-09 -7.2329e-08 4.93883e-08)
(9.02291e-09 -9.39016e-08 6.46613e-08)
(8.53128e-09 -1.15353e-07 8.03525e-08)
(6.52792e-09 -1.37161e-07 9.70937e-08)
(2.81433e-09 -1.59584e-07 1.15499e-07)
(-2.81255e-09 -1.8267e-07 1.3604e-07)
(-1.05938e-08 -2.06318e-07 1.58955e-07)
(-2.08697e-08 -2.30291e-07 1.84219e-07)
(-3.42436e-08 -2.542e-07 2.11534e-07)
(-5.18471e-08 -2.77483e-07 2.40177e-07)
(-7.54239e-08 -2.99249e-07 2.68451e-07)
(-1.06494e-07 -3.17962e-07 2.93123e-07)
(-1.41365e-07 -3.31033e-07 3.09653e-07)
(-1.7099e-07 -3.40593e-07 3.1976e-07)
(0 0 0)
(4.71999e-09 -2.9404e-08 2.04172e-08)
(8.60368e-09 -5.61363e-08 3.90687e-08)
(1.14753e-08 -8.12083e-08 5.67766e-08)
(1.31773e-08 -1.05459e-07 7.42102e-08)
(1.35706e-08 -1.29628e-07 9.20394e-08)
(1.25442e-08 -1.54293e-07 1.10991e-07)
(1.00325e-08 -1.79791e-07 1.31763e-07)
(6.01819e-09 -2.06233e-07 1.54897e-07)
(5.24552e-10 -2.33585e-07 1.8069e-07)
(-6.42909e-09 -2.61684e-07 2.09163e-07)
(-1.49962e-08 -2.90211e-07 2.40076e-07)
(-2.58356e-08 -3.18676e-07 2.72787e-07)
(-4.05384e-08 -3.46143e-07 3.05611e-07)
(-6.17521e-08 -3.7053e-07 3.34988e-07)
(-8.97606e-08 -3.87509e-07 3.55332e-07)
(-1.26615e-07 -3.84586e-07 3.68718e-07)
(0 0 0)
(6.06274e-09 -3.15372e-08 2.2679e-08)
(1.11437e-08 -6.02088e-08 4.33663e-08)
(1.5112e-08 -8.71187e-08 6.294e-08)
(1.78649e-08 -1.13193e-07 8.21126e-08)
(1.93395e-08 -1.39256e-07 1.01608e-07)
(1.953e-08 -1.65954e-07 1.22213e-07)
(1.85115e-08 -1.9368e-07 1.44688e-07)
(1.64538e-08 -2.22599e-07 1.6962e-07)
(1.36414e-08 -2.52729e-07 1.97339e-07)
(1.04751e-08 -2.83962e-07 2.27878e-07)
(7.37853e-09 -3.16072e-07 2.61029e-07)
(4.60553e-09 -3.4876e-07 2.96228e-07)
(2.03407e-09 -3.81497e-07 3.31841e-07)
(-8.38888e-10 -4.12956e-07 3.64007e-07)
(-4.0993e-09 -4.39073e-07 3.85849e-07)
(-1.94975e-08 -4.6456e-07 3.97565e-07)
(0 0 0)
(7.44332e-09 -3.24806e-08 2.44787e-08)
(1.37629e-08 -6.20241e-08 4.67744e-08)
(1.88799e-08 -8.97924e-08 6.77976e-08)
(2.27459e-08 -1.16771e-07 8.82777e-08)
(2.53679e-08 -1.43827e-07 1.08956e-07)
(2.68329e-08 -1.71641e-07 1.30651e-07)
(2.73292e-08 -2.00633e-07 1.54147e-07)
(2.71667e-08 -2.30998e-07 1.80047e-07)
(2.68162e-08 -2.62764e-07 2.08661e-07)
(2.69368e-08 -2.95806e-07 2.39982e-07)
(2.83536e-08 -3.29855e-07 2.73742e-07)
(3.1968e-08 -3.64506e-07 3.09363e-07)
(3.87549e-08 -3.98988e-07 3.45307e-07)
(5.01218e-08 -4.31483e-07 3.77913e-07)
(6.6624e-08 -4.56509e-07 3.9994e-07)
(1.19294e-07 -4.78474e-07 4.06079e-07)
(0 0 0)
(0 0 0)
(0 0 0)
(0 0 0)
(0 0 0)
(0 0 0)
(0 0 0)
(0 0 0)
(0 0 0)
(0 0 0)
(0 0 0)
(0 0 0)
(0 0 0)
(0 0 0)
(0 0 0)
(0 0 0)
(-9.6815e-08 -1.95995e-08 1.26902e-08)
(0 0 0)
(2.11611e-10 -6.06094e-09 3.22273e-09)
(2.98679e-10 -1.15583e-08 6.18079e-09)
(1.73911e-10 -1.6694e-08 9.01674e-09)
(-2.66024e-10 -2.16598e-08 1.18522e-08)
(-1.158e-09 -2.6617e-08 1.47976e-08)
(-2.66163e-09 -3.16397e-08 1.79531e-08)
(-4.96227e-09 -3.67316e-08 2.14191e-08)
(-8.31202e-09 -4.18742e-08 2.52845e-08)
(-1.30971e-08 -4.70309e-08 2.95902e-08)
(-1.99281e-08 -5.21589e-08 3.43099e-08)
(-2.97877e-08 -5.72499e-08 3.93375e-08)
(-4.43591e-08 -6.23613e-08 4.44499e-08)
(-6.67118e-08 -6.76929e-08 4.92608e-08)
(-1.01733e-07 -7.36383e-08 5.3239e-08)
(-1.49925e-07 -7.99044e-08 5.5783e-08)
(-2.02255e-07 -7.99348e-08 5.37419e-08)
(0 0 0)
(5.15271e-10 -1.19435e-08 6.3792e-09)
(7.83869e-10 -2.27815e-08 1.22319e-08)
(6.39557e-10 -3.2924e-08 1.78386e-08)
(-1.09408e-10 -4.27358e-08 2.34381e-08)
(-1.70544e-09 -5.25079e-08 2.92432e-08)
(-4.42902e-09 -6.2398e-08 3.54583e-08)
(-8.60536e-09 -7.2451e-08 4.2293e-08)
(-1.46621e-08 -8.26421e-08 4.99162e-08)
(-2.32183e-08 -9.28897e-08 5.83938e-08)
(-3.5177e-08 -1.03087e-07 6.7653e-08)
(-5.18454e-08 -1.13153e-07 7.74699e-08)
(-7.50275e-08 -1.23058e-07 8.73783e-08)
(-1.06856e-07 -1.32888e-07 9.65431e-08)
(-1.47796e-07 -1.4272e-07 1.03762e-07)
(-1.89263e-07 -1.51501e-07 1.07915e-07)
(-2.13249e-07 -1.58964e-07 1.10958e-07)
(0 0 0)
(9.89369e-10 -1.74577e-08 9.40851e-09)
(1.61005e-09 -3.33165e-08 1.80338e-08)
(1.63689e-09 -4.81789e-08 2.62866e-08)
(8.19592e-10 -6.2551e-08 3.45073e-08)
(-1.14171e-09 -7.68404e-08 4.30047e-08)
(-4.5894e-09 -9.13101e-08 5.20979e-08)
(-9.91409e-09 -1.06072e-07 6.21051e-08)
(-1.76031e-08 -1.21111e-07 7.32693e-08)
(-2.83125e-08 -1.36311e-07 8.56764e-08)
(-4.29473e-08 -1.51505e-07 9.92249e-08)
(-6.2693e-08 -1.66502e-07 1.13598e-07)
(-8.89478e-08 -1.81149e-07 1.28171e-07)
(-1.22612e-07 -1.95402e-07 1.41891e-07)
(-1.61571e-07 -2.0925e-07 1.5335e-07)
(-1.95723e-07 -2.21607e-07 1.6127e-07)
(-2.14508e-07 -2.31554e-07 1.67195e-07)
(0 0 0)
(1.687e-09 -2.24061e-08 1.22419e-08)
(2.87945e-09 -4.27812e-08 2.34543e-08)
(3.32034e-09 -6.18885e-08 3.41574e-08)
(2.74118e-09 -8.03538e-08 4.47775e-08)
(8.36753e-10 -9.87028e-08 5.5721e-08)
(-2.73085e-09 -1.17314e-07 6.74184e-08)
(-8.33155e-09 -1.36376e-07 8.02894e-08)
(-1.63973e-08 -1.55902e-07 9.46454e-08)
(-2.7469e-08 -1.75766e-07 1.10605e-07)
(-4.22632e-08 -1.95751e-07 1.2806e-07)
(-6.17327e-08 -2.15535e-07 1.46626e-07)
(-8.70443e-08 -2.34754e-07 1.65585e-07)
(-1.1891e-07 -2.52988e-07 1.83757e-07)
(-1.55479e-07 -2.69665e-07 1.99507e-07)
(-1.88082e-07 -2.83337e-07 2.11025e-07)
(-2.07965e-07 -2.94266e-07 2.19367e-07)
(0 0 0)
(2.62213e-09 -2.65966e-08 1.48137e-08)
(4.61721e-09 -5.07932e-08 2.83625e-08)
(5.72877e-09 -7.34882e-08 4.12554e-08)
(5.70731e-09 -9.54155e-08 5.39931e-08)
(4.29023e-09 -1.17215e-07 6.70699e-08)
(1.20294e-09 -1.39378e-07 8.10172e-08)
(-3.83279e-09 -1.62172e-07 9.6342e-08)
(-1.11017e-08 -1.85646e-07 1.13418e-07)
(-2.09265e-08 -2.09693e-07 1.32406e-07)
(-3.37284e-08 -2.34067e-07 1.53205e-07)
(-5.01679e-08 -2.58352e-07 1.7539e-07)
(-7.1281e-08 -2.81955e-07 1.98199e-07)
(-9.82164e-08 -3.0391e-07 2.20346e-07)
(-1.30941e-07 -3.22476e-07 2.3994e-07)
(-1.63699e-07 -3.34728e-07 2.54592e-07)
(-1.87922e-07 -3.4244e-07 2.65039e-07)
(0 0 0)
(3.76803e-09 -2.98494e-08 1.70643e-08)
(6.77153e-09 -5.70034e-08 3.26459e-08)
(8.78338e-09 -8.24738e-08 4.74221e-08)
(9.60068e-09 -1.07095e-07 6.19512e-08)
(9.03296e-09 -1.3161e-07 7.68009e-08)
(6.90629e-09 -1.56604e-07 9.25816e-08)
(3.08227e-09 -1.82409e-07 1.09868e-07)
(-2.52627e-09 -2.09114e-07 1.29086e-07)
(-9.9622e-09 -2.36642e-07 1.5043e-07)
(-1.92722e-08 -2.64751e-07 1.73806e-07)
(-3.06587e-08 -2.93011e-07 1.9877e-07)
(-4.46994e-08 -3.20785e-07 2.24528e-07)
(-6.24572e-08 -3.46974e-07 2.49689e-07)
(-8.51397e-08 -3.69397e-07 2.72047e-07)
(-1.11013e-07 -3.8398e-07 2.88655e-07)
(-1.42364e-07 -3.78489e-07 3.00513e-07)
(0 0 0)
(5.0625e-09 -3.20095e-08 1.89479e-08)
(9.22195e-09 -6.1124e-08 3.62185e-08)
(1.23e-08 -8.84442e-08 5.25373e-08)
(1.41535e-08 -1.1489e-07 6.85047e-08)
(1.46752e-08 -1.41284e-07 8.47366e-08)
(1.38038e-08 -1.68269e-07 1.01896e-07)
(1.15493e-08 -1.96224e-07 1.206e-07)
(8.02333e-09 -2.25272e-07 1.41305e-07)
(3.45888e-09 -2.55352e-07 1.64215e-07)
(-1.79837e-09 -2.86229e-07 1.89225e-07)
(-7.36865e-09 -3.17488e-07 2.15865e-07)
(-1.2955e-08 -3.48579e-07 2.4329e-07)
(-1.82831e-08 -3.78723e-07 2.69993e-07)
(-2.2602e-08 -4.06582e-07 2.93387e-07)
(-2.3994e-08 -4.29037e-07 3.09898e-07)
(-3.45397e-08 -4.52954e-07 3.20572e-07)
(0 0 0)
(6.41907e-09 -3.29655e-08 2.04314e-08)
(1.17994e-08 -6.29589e-08 3.90225e-08)
(1.60192e-08 -9.11388e-08 5.65284e-08)
(1.89986e-08 -1.18479e-07 7.3572e-08)
(2.07092e-08 -1.45841e-07 9.07928e-08)
(2.1189e-08 -1.73896e-07 1.08872e-07)
(2.0569e-08 -2.03043e-07 1.28441e-07)
(1.91106e-08 -2.33424e-07 1.49953e-07)
(1.7242e-08 -2.64967e-07 1.73597e-07)
(1.55864e-08 -2.97388e-07 1.99221e-07)
(1.49294e-08 -3.302e-07 2.26304e-07)
(1.61697e-08 -3.62719e-07 2.53934e-07)
(2.05272e-08 -3.93907e-07 2.80544e-07)
(3.03101e-08 -4.22e-07 3.03472e-07)
(4.76694e-08 -4.42836e-07 3.18712e-07)
(1.06774e-07 -4.63038e-07 3.25246e-07)
(0 0 0)
(0 0 0)
(0 0 0)
(0 0 0)
(0 0 0)
(0 0 0)
(0 0 0)
(0 0 0)
(0 0 0)
(0 0 0)
(0 0 0)
(0 0 0)
(0 0 0)
(0 0 0)
(0 0 0)
(0 0 0)
(-9.97728e-08 -2.08189e-08 1.05969e-08)
(0 0 0)
(2.56966e-11 -6.12519e-09 2.46811e-09)
(-6.00392e-11 -1.16786e-08 4.73069e-09)
(-3.55839e-10 -1.68686e-08 6.89905e-09)
(-9.81868e-10 -2.19144e-08 9.07631e-09)
(-2.09028e-09 -2.69818e-08 1.13481e-08)
(-3.85419e-09 -3.21308e-08 1.37831e-08)
(-6.47765e-09 -3.73714e-08 1.64552e-08)
(-1.02309e-08 -4.26966e-08 1.94315e-08)
(-1.55084e-08 -4.80889e-08 2.27391e-08)
(-2.29286e-08 -5.35427e-08 2.63572e-08)
(-3.34807e-08 -5.90907e-08 3.02187e-08)
(-4.88179e-08 -6.47976e-08 3.41553e-08)
(-7.19987e-08 -7.08573e-08 3.79281e-08)
(-1.07826e-07 -7.74961e-08 4.13452e-08)
(-1.56579e-07 -8.39298e-08 4.41064e-08)
(-2.08572e-07 -8.29602e-08 4.31465e-08)
(0 0 0)
(1.53558e-10 -1.2072e-08 4.88788e-09)
(8.58318e-11 -2.30275e-08 9.36771e-09)
(-3.94115e-10 -3.32985e-08 1.36626e-08)
(-1.50356e-09 -4.32702e-08 1.79669e-08)
(-3.50966e-09 -5.32317e-08 2.24394e-08)
(-6.72166e-09 -6.33384e-08 2.72303e-08)
(-1.15005e-08 -7.36446e-08 3.24966e-08)
(-1.83026e-08 -8.41464e-08 3.83642e-08)
(-2.7757e-08 -9.47933e-08 4.48751e-08)
(-4.07837e-08 -1.05538e-07 5.19856e-08)
(-5.86374e-08 -1.16312e-07 5.95309e-08)
(-8.30227e-08 -1.27086e-07 6.71277e-08)
(-1.1592e-07 -1.37882e-07 7.42188e-08)
(-1.57353e-07 -1.48398e-07 8.01505e-08)
(-1.98282e-07 -1.56961e-07 8.41664e-08)
(-2.20102e-07 -1.63052e-07 8.68624e-08)
(0 0 0)
(4.70089e-10 -1.76512e-08 7.21283e-09)
(6.07505e-10 -3.36993e-08 1.38234e-08)
(1.53111e-10 -4.87622e-08 2.01545e-08)
(-1.1708e-09 -6.33516e-08 2.64725e-08)
(-3.69899e-09 -7.78785e-08 3.3012e-08)
(-7.81551e-09 -9.26114e-08 4.00142e-08)
(-1.39539e-08 -1.07675e-07 4.77193e-08)
(-2.26325e-08 -1.23077e-07 5.63064e-08)
(-3.45238e-08 -1.38732e-07 6.58389e-08)
(-5.05158e-08 -1.54511e-07 7.62616e-08)
(-7.17099e-08 -1.7022e-07 8.7297e-08)
(-9.93172e-08 -1.85676e-07 9.84089e-08)
(-1.3391e-07 -2.00726e-07 1.08891e-07)
(-1.72767e-07 -2.14975e-07 1.17939e-07)
(-2.05446e-07 -2.26896e-07 1.24643e-07)
(-2.21367e-07 -2.35709e-07 1.29163e-07)
(0 0 0)
(1.03545e-09 -2.2664e-08 9.39202e-09)
(1.62262e-09 -4.32928e-08 1.79959e-08)
(1.46791e-09 -6.26556e-08 2.62127e-08)
(2.67741e-10 -8.1378e-08 3.43712e-08)
(-2.31991e-09 -9.99864e-08 4.27847e-08)
(-6.67882e-09 -1.18868e-07 5.17828e-08)
(-1.32287e-08 -1.38231e-07 6.16846e-08)
(-2.24295e-08 -1.58098e-07 7.27216e-08)
(-3.48294e-08 -1.78362e-07 8.49929e-08)
(-5.11024e-08 -1.98798e-07 9.84227e-08)
(-7.20914e-08 -2.19065e-07 1.12633e-07)
(-9.87132e-08 -2.3876e-07 1.26987e-07)
(-1.31244e-07 -2.57332e-07 1.40687e-07)
(-1.67183e-07 -2.73911e-07 1.5277e-07)
(-1.97717e-07 -2.86822e-07 1.6193e-07)
(-2.14421e-07 -2.96589e-07 1.67975e-07)
(0 0 0)
(1.86895e-09 -2.69085e-08 1.13732e-08)
(3.16829e-09 -5.14078e-08 2.17777e-08)
(3.60052e-09 -7.43969e-08 3.16781e-08)
(2.88217e-09 -9.66008e-08 4.14581e-08)
(7.10747e-10 -1.18662e-07 5.15023e-08)
(-3.23776e-09 -1.41083e-07 6.2223e-08)