/*--------------------------------*- C++ -*----------------------------------*\
| =========                 |                                                 |
| \\      /  F ield         | OpenFOAM: The Open Source CFD Toolbox           |
|  \\    /   O peration     | Version:  v1912                                 |
|   \\  /    A nd           | Website:  www.openfoam.com                      |
|    \\/     M anipulation  |                                                 |
\*---------------------------------------------------------------------------*/
FoamFile
{
    version     2.0;
    format      ascii;
    class       volScalarField;
    location    "0.13/fluid";
    object      T;
}
// * * * * * * * * * * * * * * * * * * * * * * * * * * * * * * * * * * * * * //

dimensions      [0 0 0 1 0 0 0];


internalField   nonuniform List<scalar> 
14592
(
273.03
273.092
273.164
273.253
273.372
273.539
273.776
274.116
274.597
275.267
276.18
277.396
278.985
281.027
283.645
287.123
273.029
273.091
273.162
273.251
273.368
273.533
273.767
274.103
274.58
275.243
276.149
277.358
278.941
280.981
283.602
287.088
273.029
273.09
273.16
273.246
273.361
273.522
273.752
274.08
274.547
275.199
276.09
277.284
278.855
280.888
283.516
287.029
273.028
273.088
273.156
273.24
273.351
273.507
273.728
274.046
274.498
275.131
276
277.17
278.716
280.736
283.372
286.93
273.028
273.085
273.151
273.232
273.339
273.487
273.698
274.001
274.433
275.04
275.875
277.006
278.514
280.504
283.14
286.762
273.027
273.082
273.145
273.222
273.323
273.462
273.661
273.945
274.352
274.923
275.713
276.787
278.23
280.16
282.77
286.468
273.026
273.079
273.139
273.211
273.305
273.434
273.617
273.88
274.255
274.782
275.511
276.507
277.851
279.668
282.182
285.918
273.024
273.075
273.132
273.199
273.285
273.403
273.569
273.806
274.145
274.619
275.276
276.169
277.372
278.995
281.256
284.765
273.031
273.097
273.174
273.27
273.4
273.582
273.844
274.218
274.75
275.489
276.498
277.843
279.598
281.846
284.69
288.28
273.031
273.096
273.172
273.268
273.396
273.576
273.834
274.205
274.731
275.464
276.465
277.802
279.552
281.798
284.648
288.25
273.03
273.095
273.169
273.263
273.388
273.564
273.817
274.18
274.695
275.415
276.401
277.723
279.46
281.702
284.562
288.198
273.03
273.093
273.165
273.256
273.377
273.548
273.792
274.143
274.642
275.342
276.304
277.6
279.313
281.543
284.418
288.107
273.029
273.09
273.16
273.247
273.363
273.526
273.758
274.093
274.571
275.242
276.168
277.423
279.096
281.299
284.182
287.95
273.028
273.087
273.154
273.237
273.346
273.499
273.718
274.032
274.482
275.115
275.991
277.185
278.79
280.934
283.801
287.667
273.027
273.083
273.147
273.224
273.326
273.468
273.67
273.96
274.375
274.96
275.77
276.878
278.377
280.403
283.18
287.115
273.026
273.079
273.139
273.211
273.305
273.434
273.617
273.88
274.254
274.781
275.511
276.506
277.851
279.667
282.182
285.917
273.033
273.102
273.183
273.286
273.425
273.622
273.904
274.309
274.883
275.682
276.767
278.209
280.077
282.438
285.348
288.83
273.032
273.101
273.181
273.283
273.421
273.615
273.894
274.295
274.863
275.654
276.732
278.166
280.029
282.389
285.305
288.801
273.032
273.099
273.178
273.278
273.413
273.603
273.876
274.268
274.825
275.603
276.665
278.083
279.933
282.29
285.219
288.75
273.031
273.097
273.174
273.271
273.401
273.585
273.848
274.228
274.768
275.524
276.561
277.952
279.779
282.126
285.073
288.661
273.03
273.094
273.168
273.261
273.386
273.561
273.813
274.175
274.692
275.418
276.416
277.765
279.55
281.872
284.833
288.505
273.029
273.091
273.161
273.25
273.367
273.532
273.769
274.11
274.596
275.281
276.227
277.511
279.227
281.49
284.441
288.222
273.028
273.087
273.154
273.236
273.346
273.499
273.717
274.032
274.482
275.114
275.99
277.184
278.789
280.933
283.801
287.667
273.027
273.082
273.145
273.222
273.323
273.462
273.66
273.945
274.351
274.922
275.712
276.786
278.229
280.159
282.77
286.468
273.034
273.106
273.191
273.299
273.447
273.656
273.956
274.386
274.995
275.839
276.983
278.493
280.431
282.846
285.754
289.115
273.034
273.105
273.189
273.296
273.442
273.649
273.945
274.371
274.974
275.811
276.946
278.448
280.381
282.795
285.711
289.087
273.033
273.103
273.186
273.291
273.434
273.635
273.926
274.342
274.933
275.756
276.876
278.361
280.282
282.694
285.624
289.035
273.032
273.101
273.181
273.283
273.421
273.616
273.897
274.3
274.874
275.674
276.767
278.225
280.122
282.525
285.475
288.946
273.031
273.098
273.175
273.273
273.405
273.591
273.859
274.244
274.793
275.561
276.615
278.029
279.885
282.264
285.23
288.789
273.03
273.094
273.168
273.261
273.386
273.561
273.812
274.175
274.692
275.417
276.416
277.764
279.549
281.871
284.832
288.505
273.029
273.09
273.16
273.247
273.363
273.525
273.758
274.093
274.57
275.241
276.167
277.422
279.094
281.298
284.181
287.949
273.028
273.085
273.151
273.232
273.338
273.486
273.697
274.001
274.432
275.038
275.874
277.005
278.512
280.502
283.138
286.761
273.035
273.11
273.198
273.311
273.465
273.683
273.997
274.447
275.083
275.961
277.146
278.702
280.681
283.117
286.004
289.273
273.035
273.109
273.196
273.307
273.46
273.676
273.986
274.432
275.061
275.932
277.109
278.656
280.63
283.066
285.96
289.245
273.034
273.107
273.192
273.302
273.451
273.662
273.966
274.402
275.019
275.875
277.035
278.566
280.528
282.962
285.872
289.193
273.033
273.104
273.188
273.294
273.438
273.642
273.936
274.358
274.957
275.79
276.923
278.425
280.364
282.791
285.721
289.103
273.032
273.101
273.181
273.283
273.421
273.616
273.896
274.3
274.873
275.673
276.765
278.223
280.121
282.524
285.473
288.945
273.031
273.097
273.174
273.27
273.401
273.584
273.848
274.227
274.767
275.523
276.559
277.95
279.776
282.123
285.071
288.66
273.03
273.093
273.165
273.256
273.377
273.547
273.791
274.141
274.641
275.34
276.301
277.597
279.31
281.54
284.415
288.105
273.028
273.088
273.156
273.24
273.351
273.506
273.727
274.045
274.497
275.129
275.997
277.167
278.713
280.733
283.369
286.928
273.036
273.112
273.203
273.319
273.478
273.704
274.029
274.493
275.147
276.05
277.262
278.846
280.848
283.291
286.155
289.363
273.036
273.111
273.201
273.316
273.473
273.697
274.017
274.477
275.125
276.019
277.224
278.799
280.796
283.239
286.111
289.334
273.035
273.109
273.197
273.31
273.464
273.682
273.996
274.446
275.082
275.961
277.148
278.707
280.692
283.134
286.022
289.282
273.034
273.107
273.192
273.302
273.451
273.662
273.965
274.401
275.018
275.873
277.033
278.564
280.525
282.96
285.87
289.192
273.033
273.103
273.186
273.291
273.433
273.635
273.924
274.341
274.931
275.753
276.872
278.357
280.278
282.69
285.62
289.033
273.032
273.099
273.178
273.277
273.412
273.602
273.874
274.266
274.822
275.599
276.661
278.078
279.928
282.285
285.215
288.747
273.03
273.095
273.169
273.262
273.388
273.563
273.815
274.178
274.692
275.412
276.397
277.718
279.454
281.696
284.557
288.194
273.029
273.09
273.159
273.246
273.361
273.521
273.75
274.078
274.544
275.195
276.086
277.279
278.849
280.882
283.511
287.025
273.036
273.114
273.206
273.325
273.487
273.718
274.049
274.523
275.189
276.107
277.336
278.936
280.949
283.393
286.241
289.412
273.036
273.113
273.204
273.322
273.482
273.71
274.038
274.506
275.166
276.076
277.297
278.888
280.897
283.341
286.197
289.383
273.036
273.111
273.201
273.316
273.473
273.696
274.016
274.475
275.123
276.017
277.22
278.795
280.792
283.235
286.108
289.331
273.035
273.108
273.195
273.307
273.459
273.675
273.985
274.429
275.057
275.927
277.103
278.65
280.623
283.059
285.954
289.24
273.034
273.105
273.189
273.296
273.441
273.647
273.943
274.368
274.969
275.805
276.94
278.441
280.373
282.787
285.703
289.081
273.032
273.101
273.181
273.282
273.42
273.613
273.892
274.292
274.859
275.649
276.725
278.158
280.02
282.38
285.297
288.795
273.031
273.096
273.172
273.267
273.395
273.574
273.832
274.201
274.726
275.458
276.458
277.794
279.542
281.788
284.638
288.243
273.029
273.091
273.162
273.25
273.367
273.531
273.765
274.1
274.575
275.238
276.142
277.35
278.932
280.971
283.593
287.08
273.037
273.115
273.208
273.328
273.492
273.725
274.06
274.538
275.21
276.134
277.372
278.978
280.997
283.441
286.281
289.434
273.036
273.114
273.206
273.324
273.487
273.717
274.048
274.521
275.187
276.103
277.332
278.931
280.944
283.388
286.236
289.405
273.036
273.112
273.202
273.318
273.477
273.702
274.026
274.49
275.143
276.044
277.255
278.837
280.839
283.282
286.146
289.353
273.035
273.109
273.197
273.31
273.463
273.681
273.994
274.443
275.077
275.954
277.137
278.691
280.669
283.106
285.992
289.261
273.034
273.106
273.19
273.298
273.445
273.653
273.952
274.381
274.988
275.831
276.973
278.481
280.418
282.832
285.741
289.102
273.033
273.102
273.182
273.285
273.423
273.619
273.901
274.304
274.877
275.673
276.757
278.196
280.063
282.424
285.334
288.816
273.031
273.097
273.173
273.269
273.398
273.58
273.84
274.213
274.743
275.481
276.487
277.83
279.584
281.831
284.675
288.265
273.029
273.092
273.163
273.252
273.371
273.536
273.773
274.111
274.591
275.259
276.169
277.384
278.971
281.013
283.63
287.104
273.02
273.06
273.102
273.148
273.2
273.265
273.349
273.461
273.609
273.802
274.043
274.334
274.665
275.019
275.37
275.682
273.02
273.06
273.102
273.147
273.199
273.263
273.346
273.456
273.603
273.793
274.031
274.318
274.646
274.997
275.345
275.654
273.02
273.059
273.101
273.145
273.196
273.258
273.339
273.447
273.59
273.775
274.009
274.289
274.61
274.954
275.295
275.598
273.019
273.058
273.099
273.142
273.191
273.252
273.33
273.433
273.571
273.75
273.975
274.246
274.556
274.889
275.22
275.515
273.019
273.057
273.097
273.139
273.186
273.244
273.318
273.416
273.547
273.717
273.931
274.189
274.484
274.803
275.119
275.401
273.019
273.056
273.094
273.134
273.179
273.234
273.303
273.395
273.517
273.676
273.876
274.118
274.395
274.694
274.991
275.257
273.018
273.054
273.091
273.13
273.172
273.222
273.287
273.371
273.483
273.629
273.813
274.035
274.291
274.565
274.839
275.084
273.018
273.053
273.088
273.125
273.164
273.21
273.268
273.345
273.446
273.577
273.743
273.943
274.173
274.421
274.667
274.887
273.02
273.061
273.105
273.152
273.206
273.275
273.364
273.484
273.645
273.854
274.118
274.438
274.806
275.205
275.603
275.959
273.02
273.061
273.104
273.15
273.205
273.272
273.361
273.479
273.637
273.844
274.105
274.422
274.786
275.181
275.576
275.93
273.02
273.06
273.103
273.148
273.202
273.267
273.354
273.469
273.624
273.826
274.081
274.39
274.748
275.135
275.523
275.871
273.02
273.059
273.101
273.146
273.197
273.261
273.344
273.455
273.604
273.798
274.045
274.344
274.69
275.066
275.442
275.781
273.019
273.058
273.099
273.142
273.191
273.252
273.331
273.437
273.578
273.763
273.997
274.283
274.613
274.972
275.333
275.658
273.019
273.057
273.096
273.138
273.185
273.242
273.316
273.415
273.547
273.72
273.939
274.207
274.516
274.854
275.193
275.5
273.018
273.055
273.093
273.133
273.177
273.23
273.298
273.389
273.51
273.669
273.871
274.117
274.402
274.713
275.026
275.308
273.018
273.054
273.09
273.127
273.168
273.217
273.279
273.361
273.47
273.614
273.795
274.017
274.273
274.553
274.834
275.088
273.021
273.064
273.109
273.159
273.219
273.294
273.395
273.531
273.715
273.957
274.266
274.647
275.091
275.58
276.077
276.529
273.021
273.063
273.108
273.158
273.217
273.291
273.391
273.525
273.706
273.946
274.252
274.628
275.068
275.553
276.047
276.496
273.021
273.062
273.107
273.156
273.213
273.286
273.383
273.514
273.691
273.925
274.225
274.593
275.025
275.502
275.987
276.43
273.02
273.061
273.105
273.152
273.208
273.279
273.372
273.499
273.669
273.895
274.184
274.541
274.96
275.423
275.896
276.329
273.02
273.06
273.102
273.148
273.202
273.269
273.358
273.478
273.64
273.855
274.131
274.471
274.872
275.316
275.771
276.187
273.019
273.059
273.1
273.144
273.195
273.258
273.341
273.453
273.605
273.806
274.065
274.384
274.761
275.179
275.608
276.002
273.019
273.057
273.096
273.138
273.186
273.245
273.322
273.425
273.564
273.749
273.987
274.281
274.627
275.012
275.408
275.772
273.018
273.055
273.093
273.132
273.177
273.231
273.3
273.394
273.519
273.686
273.9
274.164
274.475
274.821
275.176
275.503
273.022
273.067
273.115
273.17
273.236
273.322
273.439
273.599
273.816
274.108
274.485
274.955
275.516
276.146
276.802
277.412
273.022
273.066
273.114
273.168
273.234
273.319
273.434
273.592
273.807
274.095
274.468
274.934
275.49
276.116
276.768
277.375
273.022
273.066
273.113
273.166
273.23
273.313
273.426
273.58
273.79
274.071
274.437
274.894
275.44
276.057
276.701
277.301
273.021
273.064
273.111
273.162
273.225
273.305
273.413
273.562
273.765
274.037
274.39
274.833
275.364
275.966
276.595
277.185
273.021
273.063
273.108
273.158
273.218
273.294
273.397
273.538
273.732
273.99
274.328
274.752
275.261
275.839
276.447
277.018
273.02
273.061
273.105
273.153
273.209
273.281
273.378
273.51
273.691
273.933
274.25
274.648
275.128
275.674
276.25
276.794
273.02
273.059
273.101
273.147
273.2
273.267
273.356
273.477
273.643
273.866
274.157
274.524
274.966
275.469
276.002
276.505
273.019
273.057
273.097
273.14
273.189
273.25
273.331
273.441
273.591
273.792
274.053
274.383
274.779
275.23
275.706
276.156
273.023
273.071
273.123
273.184
273.259
273.358
273.495
273.684
273.946
274.3
274.765
275.354
276.072
276.901
277.789
278.64
273.023
273.07
273.122
273.182
273.256
273.355
273.489
273.677
273.936
274.285
274.745
275.33
276.043
276.866
277.751
278.6
273.023
273.07
273.12
273.179
273.252
273.348
273.48
273.663
273.916
274.258
274.709
275.283
275.985
276.798
277.674
278.518
273.022
273.068
273.118
273.175
273.246
273.338
273.465
273.642
273.886
274.217
274.655
275.213
275.897
276.692
277.553
278.386
273.022
273.067
273.115
273.17
273.238
273.326
273.447
273.615
273.848
274.163
274.581
275.116
275.774
276.542
277.378
278.191
273.021
273.065
273.111
273.164
273.228
273.311
273.425
273.582
273.8
274.096
274.489
274.992
275.613
276.342
277.139
277.918
273.021
273.063
273.107
273.157
273.217
273.294
273.399
273.544
273.744
274.017
274.378
274.842
275.414
276.088
276.826
277.552
273.02
273.06
273.103
273.15
273.205
273.275
273.37
273.501
273.682
273.927
274.252
274.668
275.181
275.783
276.441
277.089
273.025
273.076
273.132
273.2
273.285
273.4
273.56
273.784
274.097
274.525
275.094
275.828
276.742
277.827
279.036
280.248
273.024
273.075
273.131
273.198
273.282
273.396
273.554
273.776
274.085
274.508
275.072
275.801
276.708
277.789
278.994
280.205
273.024
273.074
273.129
273.195
273.277
273.388
273.542
273.759
274.062
274.477
275.03
275.747
276.642
277.712
278.911
280.119
273.024
273.073
273.127
273.19
273.27
273.377
273.526
273.736
274.028
274.43
274.967
275.665
276.54
277.591
278.775
279.976
273.023
273.071
273.123
273.184
273.261
273.363
273.505
273.704
273.983
274.367
274.881
275.551
276.396
277.416
278.574
279.757
273.022
273.069
273.119
273.177
273.25
273.346
273.479
273.666
273.927
274.287
274.771
275.404
276.204
277.176
278.287
279.435
273.022
273.066
273.114
273.17
273.237
273.326
273.449
273.621
273.862
274.193
274.639
275.222
275.961
276.862
277.897
278.976
273.021
273.064
273.109
273.161
273.223
273.305
273.416
273.572
273.789
274.087
274.487
275.01
275.672
276.475
277.396
278.356
273.026
273.081
273.143
273.217
273.313
273.445
273.631
273.893
274.262
274.771
275.455
276.351
277.49
278.885
280.514
282.26
273.026
273.08
273.141
273.215
273.31
273.44
273.624
273.884
274.248
274.752
275.43
276.32
277.452
278.843
280.47
282.218
273.026
273.079
273.139
273.211
273.305
273.432
273.611
273.865
274.222
274.716
275.382
276.259
277.379
278.76
280.382
282.133
273.025
273.078
273.136
273.206
273.297
273.419
273.592
273.838
274.183
274.662
275.31
276.165
277.263
278.625
280.237
281.989
273.025
273.076
273.132
273.2
273.286
273.403
273.568
273.802
274.132
274.589
275.21
276.034
277.097
278.426
280.015
281.762
273.024
273.073
273.128
273.192
273.274
273.384
273.538
273.758
274.067
274.497
275.083
275.862
276.872
278.146
279.686
281.406
273.023
273.07
273.122
273.183
273.259
273.361
273.504
273.706
273.991
274.387
274.927
275.646
276.582
277.767
279.214
280.857
273.022
273.067
273.117
273.173
273.243
273.337
273.466
273.648
273.905
274.262
274.747
275.392
276.228
277.284
278.57
280.036
273.028
273.087
273.153
273.235
273.343
273.492
273.704
274.006
274.432
275.023
275.825
276.887
278.261
279.994
282.125
284.644
273.028
273.086
273.152
273.233
273.339
273.487
273.696
273.995
274.416
275.002
275.797
276.852
278.22
279.949
282.081
284.605
273.027
273.085
273.149
273.229
273.333
273.477
273.682
273.974
274.387
274.961
275.743
276.785
278.139
279.86
281.993
284.53
273.027
273.083
273.146
273.223
273.324
273.463
273.661
273.943
274.343
274.9
275.662
276.68
278.011
279.716
281.846
284.402
273.026
273.08
273.142
273.216
273.312
273.445
273.634
273.903
274.284
274.818
275.549
276.532
277.826
279.498
281.614
284.192
273.025
273.078
273.137
273.207
273.298
273.423
273.6
273.852
274.211
274.713
275.403
276.335
277.569
279.182
281.256
283.842
273.024
273.075
273.131
273.197
273.282
273.398
273.561
273.794
274.124
274.587
275.224
276.086
277.232
278.741
280.712
283.245
273.023
273.071
273.124
273.186
273.264
273.37
273.518
273.728
274.026
274.443
275.016
275.788
276.813
278.157
279.915
282.208
273.023
273.071
273.124
273.186
273.264
273.37
273.518
273.728
274.026
274.443
275.016
275.788
276.812
278.157
279.915
282.208
273.022
273.067
273.117
273.173
273.243
273.337
273.466
273.648
273.905
274.262
274.747
275.392
276.228
277.284
278.57
280.036
273.021
273.064
273.109
273.161
273.223
273.305
273.416
273.571
273.788
274.087
274.487
275.01
275.671
276.474
277.396
278.356
273.02
273.06
273.103
273.15
273.205
273.275
273.37
273.501
273.682
273.927
274.252
274.668
275.181
275.783
276.441
277.088
273.019
273.057
273.097
273.14
273.189
273.25
273.331
273.441
273.591
273.791
274.053
274.383
274.779
275.23
275.706
276.156
273.018
273.055
273.093
273.132
273.177
273.231
273.3
273.394
273.519
273.686
273.899
274.164
274.475
274.821
275.176
275.502
273.018
273.054
273.09
273.127
273.168
273.217
273.279
273.361
273.47
273.613
273.795
274.017
274.273
274.552
274.834
275.087
273.018
273.053
273.088
273.125
273.164
273.21
273.268
273.345
273.446
273.577
273.743
273.943
274.173
274.42
274.667
274.887
273.024
273.075
273.131
273.197
273.282
273.398
273.561
273.794
274.124
274.587
275.224
276.085
277.232
278.74
280.712
283.245
273.023
273.07
273.122
273.183
273.259
273.361
273.504
273.706
273.991
274.387
274.926
275.646
276.581
277.766
279.213
280.857
273.022
273.066
273.114
273.169
273.237
273.326
273.449
273.621
273.862
274.193
274.638
275.222
275.961
276.861
277.896
278.976
273.021
273.063
273.107
273.157
273.217
273.294
273.399
273.543
273.744
274.016
274.377
274.841
275.414
276.087
276.825
277.552
273.02
273.059
273.101
273.147
273.2
273.266
273.355
273.477
273.643
273.866
274.157
274.524
274.965
275.469
276.001
276.505
273.019
273.057
273.096
273.138
273.186
273.245
273.321
273.425
273.564
273.749
273.986
274.28
274.627
275.012
275.408
275.772
273.018
273.055
273.093
273.133
273.177
273.23
273.298
273.389
273.51
273.669
273.871
274.117
274.402
274.712
275.025
275.308
273.018
273.054
273.091
273.13
273.172
273.222
273.286
273.371
273.483
273.629
273.813
274.035
274.29
274.565
274.839
275.083
273.025
273.078
273.136
273.207
273.298
273.423
273.6
273.852
274.211
274.713
275.403
276.334
277.569
279.181
281.255
283.842
273.024
273.073
273.128
273.192
273.273
273.384
273.538
273.757
274.067
274.496
275.082
275.861
276.871
278.145
279.685
281.405
273.022
273.069
273.119
273.177
273.25
273.346
273.479
273.666
273.927
274.287
274.77
275.403
276.203
277.175
278.286
279.434
273.021
273.065
273.111
273.164
273.228
273.311
273.424
273.582
273.799
274.096
274.488
274.991
275.612
276.341
277.137
277.917
273.02
273.061
273.105
273.153
273.209
273.281
273.378
273.51
273.69
273.933
274.249
274.647
275.127
275.673
276.249
276.793
273.019
273.059
273.1
273.144
273.195
273.258
273.341
273.453
273.605
273.806
274.064
274.383
274.76
275.178
275.607
276.001
273.019
273.057
273.096
273.137
273.184
273.242
273.316
273.414
273.546
273.719
273.939
274.206
274.516
274.853
275.193
275.499
273.019
273.056
273.094
273.134
273.179
273.234
273.303
273.395
273.517
273.676
273.876
274.117
274.395
274.693
274.99
275.256
273.026
273.08
273.142
273.216
273.312
273.445
273.633
273.902
274.283
274.817
275.548
276.53
277.824
279.496
281.612
284.19
273.025
273.076
273.132
273.2
273.286
273.403
273.568
273.801
274.131
274.588
275.209
276.032
277.095
278.425
280.013
281.76
273.023
273.071
273.123
273.184
273.261
273.363
273.504
273.704
273.982
274.365
274.879
275.55
276.394
277.414
278.572
279.755
273.022
273.067
273.115
273.17
273.238
273.326
273.447
273.614
273.847
274.162
274.58
275.115
275.772
276.541
277.377
278.19
273.021
273.063
273.108
273.158
273.218
273.294
273.397
273.538
273.731
273.99
274.327
274.75
275.259
275.837
276.446
277.017
273.02
273.06
273.102
273.148
273.202
273.269
273.358
273.478
273.64
273.854
274.13
274.47
274.871
275.315
275.769
276.186
273.019
273.058
273.099
273.142
273.191
273.252
273.331
273.436
273.577
273.762
273.997
274.282
274.612
274.971
275.331
275.657
273.019
273.057
273.097
273.139
273.186
273.243
273.317
273.416
273.546
273.716
273.93
274.188
274.483
274.801
275.118
275.4
273.027
273.083
273.146
273.223
273.324
273.463
273.66
273.942
274.341
274.898
275.659
276.677
278.008
279.712
281.842
284.4
273.025
273.078
273.136
273.206
273.296
273.419
273.592
273.837
274.182
274.66
275.307
276.162
277.26
278.622
280.234
281.986
273.024
273.073
273.127
273.19
273.27
273.377
273.525
273.735
274.027
274.428
274.965
275.662
276.538
277.588
278.772
279.973
273.022
273.068
273.118
273.175
273.245
273.338
273.465
273.641
273.885
274.216
274.653
275.21
275.894
276.69
277.551
278.383
273.021
273.064
273.111
273.162
273.225
273.305
273.413
273.561
273.764
274.035
274.388
274.831
275.362
275.963
276.593
277.182
273.02
273.061
273.105
273.152
273.208
273.278
273.372
273.498
273.668
273.894
274.183
274.539
274.958
275.421
275.894
276.327
273.02
273.059
273.101
273.145
273.197
273.26
273.343
273.455
273.603
273.797
274.043
274.343
274.688
275.064
275.44
275.779
273.019
273.058
273.099
273.142
273.191
273.251
273.329
273.433
273.57
273.749
273.974
274.244
274.554
274.887
275.218
275.513
273.027
273.084
273.149
273.229
273.333
273.476
273.68
273.972
274.384
274.958
275.739
276.78
278.134
279.855
281.987
284.525
273.026
273.079
273.139
273.211
273.304
273.431
273.61
273.863
274.22
274.712
275.378
276.254
277.373
278.754
280.377
282.128
273.024
273.074
273.129
273.194
273.277
273.387
273.541
273.758
274.06
274.474
275.027
275.743
276.638
277.707
278.906
280.114
273.023
273.069
273.12
273.179
273.251
273.347
273.479
273.661
273.914
274.256
274.706
275.28
275.981
276.794
277.67
278.513
273.021
273.065
273.113
273.166
273.23
273.313
273.425
273.578
273.788
274.069
274.434
274.89
275.436
276.053
276.697
277.297
273.021
273.062
273.107
273.155
273.213
273.286
273.382
273.513
273.69
273.923
274.222
274.59
275.022
275.498
275.984
276.427
273.02
273.06
273.102
273.148
273.201
273.267
273.353
273.468
273.622
273.824
274.079
274.388
274.745
275.132
275.52
275.868
273.02
273.059
273.1
273.145
273.195
273.258
273.338
273.446
273.588
273.774
274.007
274.287
274.607
274.951
275.292
275.596
273.028
273.086
273.151
273.232
273.338
273.485
273.694
273.992
274.412
274.996
275.79
276.845
278.211
279.94
282.072
284.597
273.026
273.08
273.141
273.214
273.309
273.439
273.622
273.881
274.245
274.747
275.424
276.313
277.444
278.835
280.462
282.21
273.024
273.075
273.131
273.197
273.281
273.394
273.552
273.773
274.082
274.504
275.067
275.794
276.701
277.781
278.987
280.198
273.023
273.07
273.122
273.181
273.256
273.353
273.488
273.675
273.933
274.282
274.741
275.325
276.036
276.859
277.744
278.593
273.022
273.066
273.114
273.168
273.233
273.318
273.433
273.59
273.805
274.092
274.464
274.929
275.484
276.11
276.762
277.369
273.021
273.063
273.108
273.157
273.216
273.29
273.389
273.523
273.704
273.943
274.248
274.624
275.064
275.548
276.042
276.491
273.02
273.061
273.104
273.15
273.204
273.271
273.36
273.478
273.635
273.841
274.102
274.418
274.782
275.177
275.571
275.926
273.02
273.06
273.101
273.146
273.198
273.262
273.345
273.455
273.601
273.79
274.028
274.315
274.642
274.993
275.341
275.65
273.028
273.086
273.153
273.234
273.341
273.49
273.701
274.001
274.426
275.015
275.815
276.876
278.248
279.98
282.111
284.629
273.026
273.081
273.142
273.216
273.312
273.443
273.628
273.89
274.257
274.764
275.446
276.341
277.478
278.873
280.502
282.248
273.025
273.075
273.132
273.199
273.284
273.398
273.557
273.781
274.093
274.519
275.086
275.819
276.732
277.816
279.025
280.237
273.023
273.071
273.123
273.183
273.258
273.357
273.492
273.681
273.942
274.295
274.758
275.346
276.063
276.891
277.779
278.631
273.022
273.067
273.115
273.169
273.235
273.321
273.437
273.596
273.813
274.103
274.479
274.948
275.508
276.138
276.794
277.404
273.021
273.063
273.108
273.158
273.218
273.293
273.393
273.529
273.711
273.953
274.261
274.64
275.084
275.573
276.07
276.522
273.02
273.061
273.104
273.151
273.206
273.274
273.363
273.482
273.642
273.85
274.114
274.433
274.8
275.199
275.597
275.954
273.02
273.06
273.102
273.147
273.2
273.264
273.348
273.459
273.607
273.799
274.039
274.329
274.659
275.014
275.365
275.676
273.017
273.051
273.085
273.119
273.156
273.198
273.25
273.317
273.407
273.523
273.669
273.846
274.048
274.266
274.482
274.675
273.017
273.049
273.082
273.114
273.147
273.185
273.231
273.29
273.367
273.468
273.594
273.747
273.921
274.108
274.294
274.459
273.016
273.048
273.079
273.109
273.139
273.173
273.212
273.263
273.329
273.415
273.522
273.652
273.799
273.956
274.112
274.25
273.016
273.046
273.076
273.104
273.132
273.162
273.196
273.239
273.295
273.367
273.457
273.565
273.687
273.818
273.946
274.06
273.015
273.045
273.074
273.1
273.126
273.152
273.182
273.218
273.265
273.325
273.401
273.49
273.592
273.7
273.806
273.899
273.015
273.044
273.072
273.097
273.121
273.145
273.171
273.202
273.242
273.293
273.356
273.432
273.517
273.608
273.696
273.773
273.015
273.044
273.071
273.095
273.118
273.139
273.163
273.191
273.226
273.271
273.326
273.392
273.466
273.544
273.62
273.687
273.015
273.043
273.07
273.094
273.116
273.137
273.159
273.185
273.218
273.259
273.311
273.372
273.44
273.512
273.582
273.643
273.017
273.052
273.086
273.122
273.16
273.204
273.259
273.332
273.428
273.555
273.715
273.91
274.135
274.381
274.627
274.848
273.017
273.05
273.083
273.116
273.151
273.19
273.239
273.302
273.386
273.495
273.634
273.802
273.995
274.205
274.415
274.603
273.016
273.048
273.08
273.111
273.142
273.177
273.22
273.274
273.345
273.438
273.556
273.697
273.86
274.036
274.211
274.367
273.016
273.047
273.077
273.106
273.135
273.166
273.202
273.248
273.308
273.386
273.484
273.602
273.737
273.882
274.025
274.153
273.015
273.046
273.075
273.102
273.128
273.156
273.187
273.226
273.277
273.342
273.423
273.521
273.633
273.751
273.868
273.972
273.015
273.044
273.073
273.099
273.123
273.148
273.175
273.209
273.252
273.307
273.376
273.458
273.551
273.649
273.746
273.831
273.015
273.044
273.071
273.096
273.12
273.142
273.167
273.197
273.234
273.283
273.343
273.414
273.495
273.579
273.662
273.735
273.015
273.044
273.071
273.095
273.118
273.139
273.163
273.191
273.226
273.271
273.326
273.392
273.466
273.544
273.62
273.687
273.018
273.053
273.089
273.126
273.167
273.216
273.278
273.361
273.472
273.618
273.807
274.039
274.312
274.613
274.922
275.205
273.017
273.051
273.085
273.12
273.158
273.201
273.255
273.328
273.424
273.55
273.713
273.912
274.145
274.401
274.661
274.899
273.017
273.049
273.082
273.114
273.148
273.187
273.234
273.296
273.378
273.485
273.622
273.789
273.984
274.196
274.41
274.605
273.016
273.048
273.079
273.109
273.14
273.174
273.214
273.267
273.336
273.425
273.539
273.678
273.837
274.011
274.184
274.34
273.016
273.046
273.076
273.105
273.133
273.162
273.197
273.242
273.299
273.374
273.469
273.583
273.713
273.854
273.993
274.118
273.015
273.045
273.074
273.101
273.127
273.154
273.184
273.222
273.271
273.334
273.413
273.508
273.617
273.732
273.846
273.947
273.015
273.044
273.073
273.099
273.123
273.148
273.175
273.209
273.252
273.307
273.376
273.458
273.551
273.649
273.746
273.831
273.015
273.044
273.072
273.097
273.121
273.145
273.171
273.202
273.242
273.293
273.356
273.432
273.517
273.608
273.696
273.773
273.018
273.055
273.093
273.133
273.178
273.233
273.305
273.403
273.535
273.712
273.942
274.23
274.576
274.967
275.378
275.763
273.018
273.053
273.089
273.126
273.167
273.216
273.28
273.364
273.479
273.631
273.829
274.075
274.368
274.697
275.038
275.356
273.017
273.051
273.085
273.12
273.157
273.2
273.255
273.327
273.424
273.553
273.719
273.925
274.167
274.436
274.713
274.968
273.016
273.049
273.082
273.114
273.147
273.185
273.232
273.293
273.375
273.482
273.62
273.789
273.986
274.202
274.422
274.622
273.016
273.048
273.079
273.109
273.139
273.172
273.213
273.265
273.333
273.422
273.535
273.673
273.832
274.006
274.179
274.336
273.016
273.046
273.076
273.105
273.133
273.162
273.197
273.242
273.299
273.374
273.469
273.583
273.713
273.854
273.993
274.118
273.015
273.046
273.075
273.102
273.128
273.156
273.187
273.226
273.277
273.342
273.423
273.521
273.633
273.751
273.868
273.972
273.015
273.045
273.074
273.1
273.126
273.152
273.182
273.218
273.265
273.325
273.401
273.49
273.592
273.7
273.806
273.899
273.019
273.058
273.098
273.142
273.192
273.256
273.34
273.456
273.616
273.832
274.116
274.48
274.925
275.442
276.004
276.549
273.018
273.055
273.094
273.134
273.18
273.236
273.31
273.411
273.549
273.734
273.978
274.286
274.661
275.091
275.55
275.989
273.018
273.053
273.089
273.126
273.168
273.217
273.281
273.367
273.484
273.641
273.844
274.1
274.406
274.754
275.118
275.46
273.017
273.051
273.085
273.12
273.157
273.2
273.255
273.328
273.425
273.555
273.723
273.931
274.178
274.453
274.736
274.998
273.016
273.049
273.082
273.114
273.147
273.185
273.232
273.293
273.375
273.482
273.62
273.789
273.986
274.202
274.422
274.622
273.016
273.048
273.079
273.109
273.14
273.174
273.214
273.267
273.336
273.425
273.539
273.678
273.837
274.011
274.184
274.34
273.016
273.047
273.077
273.106
273.135
273.166
273.202
273.248
273.308
273.386
273.484