/*--------------------------------*- C++ -*----------------------------------*\
| =========                 |                                                 |
| \\      /  F ield         | OpenFOAM: The Open Source CFD Toolbox           |
|  \\    /   O peration     | Version:  v1912                                 |
|   \\  /    A nd           | Website:  www.openfoam.com                      |
|    \\/     M anipulation  |                                                 |
\*---------------------------------------------------------------------------*/
FoamFile
{
    version     2.0;
    format      ascii;
    class       volVectorField;
    location    "0.13/fluid";
    object      U;
}
// * * * * * * * * * * * * * * * * * * * * * * * * * * * * * * * * * * * * * //

dimensions      [0 1 -1 0 0 0 0];


internalField   nonuniform List<vector> 
14592
(
(0.0905161 0.0121651 -0.000285663)
(0.0832148 0.00591255 -0.000810402)
(0.0775118 0.00294462 -0.00132459)
(0.0749893 0.00132418 -0.00191864)
(0.0734443 0.000734941 -0.0027133)
(0.0722433 0.000511879 -0.00374604)
(0.0711428 0.000450448 -0.00508105)
(0.0699399 0.000460376 -0.0068115)
(0.0685157 0.000509319 -0.00907786)
(0.0668308 0.00057603 -0.0120975)
(0.0644624 0.000660406 -0.0161894)
(0.0619105 0.000689364 -0.0219217)
(0.056838 0.000741499 -0.0301811)
(0.052249 0.000417172 -0.0425709)
(0.0377103 0.000273088 -0.0616723)
(0.0229007 -0.00171349 -0.0729321)
(0.103634 0.0107356 -0.00051782)
(0.104033 0.00708026 -0.00125077)
(0.1035 0.00443866 -0.00193108)
(0.102234 0.00270729 -0.00270371)
(0.101055 0.00194848 -0.0037319)
(0.0997766 0.00165405 -0.00507583)
(0.098437 0.00162595 -0.00682092)
(0.0968867 0.00176055 -0.00909018)
(0.0950078 0.00201354 -0.0120679)
(0.0927443 0.00235699 -0.016038)
(0.0895847 0.00278214 -0.0214177)
(0.0860331 0.00321422 -0.0289405)
(0.0792765 0.00369597 -0.0397388)
(0.0726371 0.00385156 -0.0558767)
(0.0530105 0.00402136 -0.0803143)
(0.0326256 0.00185952 -0.0946628)
(0.102792 0.00665205 -0.00052048)
(0.104035 0.00651921 -0.00125809)
(0.104825 0.00505553 -0.00194025)
(0.104292 0.00377974 -0.00271326)
(0.103637 0.00311687 -0.00374105)
(0.102663 0.0028793 -0.00508341)
(0.101525 0.0029582 -0.00682496)
(0.100115 0.00327752 -0.0090883)
(0.0983379 0.00379996 -0.0120577)
(0.0961459 0.00450263 -0.0160195)
(0.0930047 0.00537478 -0.0213936)
(0.0894157 0.00635571 -0.028933)
(0.0824444 0.00744074 -0.0397776)
(0.0754519 0.00832724 -0.056098)
(0.0549324 0.00900842 -0.0808449)
(0.0333868 0.00675335 -0.0957799)
(0.101482 0.00490272 -0.000480171)
(0.102572 0.00573036 -0.00119158)
(0.103795 0.00495668 -0.00185502)
(0.103769 0.00415685 -0.00260656)
(0.10355 0.00373896 -0.00360333)
(0.102897 0.00367796 -0.00490118)
(0.102014 0.00393029 -0.00658022)
(0.10082 0.00446005 -0.0087574)
(0.0992394 0.00525436 -0.0116096)
(0.0972343 0.00631241 -0.0154147)
(0.0942534 0.00764285 -0.0205799)
(0.0907893 0.00922001 -0.0278595)
(0.0838088 0.011039 -0.0383613)
(0.0766784 0.0128396 -0.0543474)
(0.0556585 0.0144044 -0.0786722)
(0.033356 0.0116965 -0.0939707)
(0.100951 0.00372448 -0.00042128)
(0.101843 0.00492322 -0.00109384)
(0.103138 0.00469049 -0.00173067)
(0.103376 0.00431449 -0.00245164)
(0.10346 0.00417106 -0.00340375)
(0.103091 0.0043233 -0.00463716)
(0.102478 0.00477919 -0.0062251)
(0.101548 0.00554104 -0.00827544)
(0.100238 0.00662424 -0.0109523)
(0.0985205 0.00805599 -0.0145175)
(0.0958367 0.00986988 -0.0193522)
(0.0926686 0.0120839 -0.0261962)
(0.0858947 0.014692 -0.0360877)
(0.0788258 0.0174756 -0.0513853)
(0.0572647 0.0200153 -0.074731)
(0.033933 0.01659 -0.0903513)
(0.100719 0.00298086 -0.000351528)
(0.101492 0.00421808 -0.000977577)
(0.10281 0.00429569 -0.00158286)
(0.103237 0.00422338 -0.00226742)
(0.103562 0.00432316 -0.00316593)
(0.103453 0.00468257 -0.00432156)
(0.103114 0.00533729 -0.00579873)
(0.102477 0.00631967 -0.00769335)
(0.101492 0.00767758 -0.0101524)
(0.100135 0.00948424 -0.0134158)
(0.0978472 0.0118345 -0.0178296)
(0.0950771 0.0148783 -0.0241107)
(0.0886119 0.0187398 -0.0332044)
(0.0816591 0.0235488 -0.0475933)
(0.0594638 0.0289129 -0.0696133)
(0.0348723 0.0263708 -0.0857356)
(0.100635 0.00236361 -0.000272759)
(0.101376 0.00353402 -0.000846347)
(0.102742 0.00382083 -0.00141605)
(0.103324 0.00398149 -0.00205935)
(0.103856 0.00428932 -0.00289674)
(0.103992 0.00483188 -0.00396306)
(0.103934 0.0056595 -0.00531155)
(0.103629 0.00682446 -0.00702186)
(0.103052 0.00839802 -0.00921575)
(0.102214 0.0104882 -0.0120939)
(0.100625 0.013226 -0.015935)
(0.0987826 0.0168677 -0.0213669)
(0.0935817 0.0215742 -0.0291147)
(0.0881713 0.0278273 -0.0416202)
(0.0666555 0.0351214 -0.0605119)
(0.041416 0.0326386 -0.0763899)
(0.100617 0.00178512 -0.000188702)
(0.101395 0.00282435 -0.000706354)
(0.102853 0.0032455 -0.00123815)
(0.103583 0.00358244 -0.00183744)
(0.104306 0.00405912 -0.00260951)
(0.104669 0.00474977 -0.00358022)
(0.104884 0.00571042 -0.00479088)
(0.104911 0.00700793 -0.00630388)
(0.104748 0.00873772 -0.00821509)
(0.104425 0.0110589 -0.010686)
(0.103514 0.0141859 -0.0139336)
(0.102479 0.0186611 -0.0185024)
(0.0983597 0.0250254 -0.0249324)
(0.0942151 0.0356816 -0.0356287)
(0.0735016 0.0516837 -0.0516362)
(0.0505663 0.0683132 -0.0682524)
(0.090466 0.0121693 -0.000451264)
(0.0830185 0.00592343 -0.0010064)
(0.0771175 0.00295574 -0.00147772)
(0.0744129 0.00133718 -0.00201278)
(0.0726607 0.000751583 -0.0027406)
(0.0712186 0.000533855 -0.0037013)
(0.0698151 0.00048002 -0.00495389)
(0.0682206 0.000500638 -0.00657897)
(0.0662825 0.000565037 -0.00869218)
(0.0639252 0.000654672 -0.0114527)
(0.0606915 0.000775985 -0.0150789)
(0.0570293 0.000866094 -0.0198231)
(0.0507484 0.0010294 -0.0261161)
(0.0444736 0.000920033 -0.0337848)
(0.0297675 0.00110157 -0.0433504)
(0.013441 -0.000188655 -0.0386904)
(0.103569 0.010755 -0.000706016)
(0.103784 0.00711526 -0.00147531)
(0.102998 0.00448079 -0.00210578)
(0.101489 0.00275875 -0.00280665)
(0.100034 0.00201449 -0.00375227)
(0.0984339 0.00174102 -0.00500607)
(0.0966892 0.00174224 -0.00664739)
(0.0946148 0.00191707 -0.00878384)
(0.0920462 0.00222495 -0.0115689)
(0.088875 0.00264256 -0.0152149)
(0.0845346 0.00316982 -0.0200125)
(0.0794561 0.0037388 -0.0263087)
(0.0709707 0.00441874 -0.0346585)
(0.062001 0.00484238 -0.0449348)
(0.0418884 0.00536469 -0.0575825)
(0.0195872 0.00347838 -0.0516063)
(0.102729 0.00668963 -0.000710912)
(0.103787 0.00658275 -0.00148591)
(0.104324 0.00513465 -0.00211791)
(0.103549 0.00387715 -0.00281861)
(0.10262 0.00324171 -0.00376332)
(0.101326 0.00304368 -0.00501515)
(0.0997866 0.00317802 -0.00665273)
(0.0978565 0.00357341 -0.00878317)
(0.0953937 0.00419895 -0.0115598)
(0.0922986 0.00503883 -0.0151963)
(0.087977 0.00609357 -0.0199849)
(0.0828601 0.00730345 -0.0262842)
(0.0741397 0.00869127 -0.0346491)
(0.064794 0.00989615 -0.0449969)
(0.0437383 0.0109463 -0.0577407)
(0.0202049 0.00838751 -0.0517562)
(0.10142 0.00495386 -0.000671858)
(0.10233 0.00581636 -0.00142169)
(0.103308 0.00506504 -0.00203548)
(0.103049 0.00429101 -0.00271541)
(0.102567 0.00391139 -0.0036302)
(0.101608 0.00390566 -0.00483915)
(0.100342 0.00423585 -0.00641662)
(0.0986525 0.0048733 -0.00846446)
(0.0964181 0.0058149 -0.0111292)
(0.0935505 0.00707108 -0.0146171)
(0.0894352 0.00866802 -0.0192095)
(0.0845024 0.0105828 -0.0252669)
(0.0758144 0.0128516 -0.0333196)
(0.0663858 0.0151157 -0.0433589)
(0.044789 0.0172261 -0.0557434)
(0.0204126 0.0139261 -0.0500609)
(0.100892 0.00378872 -0.000614669)
(0.10161 0.00503074 -0.00132698)
(0.10267 0.00482649 -0.00191502)
(0.102688 0.00448338 -0.00256547)
(0.102525 0.00438861 -0.00343723)
(0.101871 0.00461135 -0.00458422)
(0.100902 0.0051671 -0.00607431)
(0.0995128 0.00606811 -0.00800105)
(0.0975974 0.00734331 -0.0104996)
(0.0950809 0.009036 -0.0137629)
(0.0913393 0.0112043 -0.0180514)
(0.0868059 0.0138719 -0.02372)
(0.0784077 0.0170898 -0.0312499)
(0.0691562 0.0205 -0.0407385)
(0.0469366 0.0237972 -0.0524402)
(0.0213863 0.0194917 -0.047235)
(0.100661 0.00305481 -0.000547012)
(0.10127 0.0043417 -0.00121436)
(0.102366 0.00445239 -0.00177193)
(0.102588 0.00441837 -0.00238728)
(0.102684 0.00457493 -0.00320744)
(0.102316 0.005017 -0.0042797)
(0.101654 0.00578977 -0.00566376)
(0.100604 0.00693862 -0.00744229)
(0.0990735 0.00853013 -0.0097355)
(0.0969989 0.0106621 -0.0127183)
(0.0937494 0.0134684 -0.0166234)
(0.0897419 0.0171251 -0.0217977)
(0.0817474 0.0218559 -0.0286571)
(0.0727554 0.0276504 -0.0374451)
(0.0497999 0.0343351 -0.0482581)
(0.0228106 0.0307588 -0.0437527)
(0.10058 0.00244461 -0.000470694)
(0.101166 0.00366917 -0.00108733)
(0.102325 0.00399231 -0.00161056)
(0.102718 0.00419513 -0.00218616)
(0.103045 0.00456554 -0.00294753)
(0.10295 0.00519948 -0.00393415)
(0.102611 0.00615818 -0.00519544)
(0.10195 0.0075092 -0.00679967)
(0.100908 0.00934585 -0.00884555)
(0.0994693 0.0118064 -0.0114777)
(0.0970809 0.0150682 -0.0148782)
(0.0942448 0.0194268 -0.0193476)
(0.0877822 0.0251616 -0.0251635)
(0.0807651 0.0326165 -0.0326762)
(0.0584709 0.0415815 -0.041663)
(0.0307033 0.0377429 -0.0378149)
(0.100566 0.00186961 -0.000389333)
(0.101198 0.00296515 -0.000951916)
(0.102464 0.0034242 -0.00143857)
(0.103024 0.00380514 -0.00197177)
(0.103565 0.00434724 -0.00267033)
(0.10373 0.00513368 -0.00356531)
(0.103707 0.00623243 -0.00469517)
(0.103438 0.00772765 -0.00611292)
(0.102893 0.00974066 -0.00789514)
(0.102084 0.0124698 -0.0101562)
(0.100523 0.0161915 -0.013032)
(0.0987048 0.0215315 -0.0167835)
(0.0935272 0.0292166 -0.0215702)
(0.0881418 0.0416871 -0.0278803)
(0.0666479 0.0605834 -0.0351953)
(0.041423 0.0764853 -0.0327042)
(0.0904247 0.0121732 -0.0005297)
(0.0828494 0.00593355 -0.00107532)
(0.0767708 0.00296624 -0.00149683)
(0.0738962 0.00134947 -0.00196702)
(0.0719474 0.000767226 -0.00261229)
(0.0702757 0.000554353 -0.00347157)
(0.0685839 0.000507216 -0.00459672)
(0.0666155 0.000536704 -0.00605544)
(0.0641812 0.000612507 -0.00794268)
(0.0611502 0.000716176 -0.0103813)
(0.057014 0.000853528 -0.0135443)
(0.0520899 0.000960783 -0.0175779)
(0.0443402 0.00113632 -0.0228296)
(0.0360698 0.00104685 -0.0288931)
(0.0213231 0.00118722 -0.0361426)
(0.00649934 -9.30703e-06 -0.0319604)
(0.103515 0.0107734 -0.000784858)
(0.103568 0.00714832 -0.00153704)
(0.102554 0.00452069 -0.0021052)
(0.100819 0.00280746 -0.00272445)
(0.0991034 0.00207687 -0.00356557)
(0.0971962 0.00182299 -0.00468965)
(0.0950673 0.00185143 -0.00616676)
(0.0924955 0.00206312 -0.00808764)
(0.0892682 0.00241999 -0.0105784)
(0.085207 0.0029012 -0.0138033)
(0.0796765 0.0035094 -0.0179896)
(0.0729546 0.00417533 -0.0233428)
(0.0625414 0.00497015 -0.0302903)
(0.051035 0.00551058 -0.0383835)
(0.0307765 0.00611426 -0.0478789)
(0.0103631 0.00414653 -0.0423091)
(0.102676 0.00672533 -0.000790927)
(0.103572 0.00664296 -0.00154919)
(0.103882 0.00520964 -0.00211866)
(0.102881 0.00396939 -0.00273747)
(0.101693 0.00335976 -0.00357748)
(0.100094 0.00319888 -0.00469956)
(0.098173 0.00338512 -0.00617317)
(0.0957488 0.00385144 -0.00808863)
(0.0926305 0.00457242 -0.010572)
(0.0886472 0.00553799 -0.0137884)
(0.0831313 0.00675688 -0.0179667)
(0.0763607 0.00816747 -0.0233213)
(0.0656779 0.00980888 -0.03028)
(0.053749 0.0112615 -0.0384251)
(0.0324822 0.012573 -0.0479895)
(0.0108151 0.00970541 -0.042418)
(0.101369 0.00500241 -0.000754796)
(0.102121 0.00589789 -0.00148991)
(0.102879 0.0051677 -0.0020425)
(0.102402 0.00441802 -0.00264217)
(0.101672 0.00407442 -0.00345469)
(0.100421 0.00412063 -0.0045375)
(0.0987911 0.00452388 -0.00595623)
(0.0966301 0.00526213 -0.00779665)
(0.0937688 0.00634119 -0.010179)
(0.0900495 0.00778172 -0.0132624)
(0.0847799 0.00962552 -0.0172674)
(0.0782416 0.0118517 -0.0224111)
(0.0676169 0.0145314 -0.0291044)
(0.0556306 0.0172157 -0.0369952)
(0.0337475 0.0198182 -0.0462835)
(0.0111217 0.0160612 -0.041005)
(0.100842 0.00384967 -0.000701776)
(0.101409 0.00513263 -0.00140222)
(0.10226 0.00495528 -0.00193104)
(0.102072 0.00464315 -0.00250359)
(0.101674 0.0045942 -0.00327664)
(0.100748 0.0048832 -0.00430273)
(0.0994406 0.0055327 -0.00564183)
(0.0976142 0.0065642 -0.00737246)
(0.0951165 0.00801941 -0.00960527)
(0.0918074 0.00995715 -0.0124887)
(0.0869823 0.0124599 -0.0162268)
(0.0809373 0.0155595 -0.0210355)
(0.0706725 0.0193646 -0.0272894)
(0.05895 0.0233953 -0.0347346)
(0.0363307 0.027462 -0.0435022)
(0.0123147 0.0225487 -0.0386687)
(0.100614 0.00312492 -0.000639087)
(0.101079 0.00445876 -0.00129797)
(0.101978 0.00460069 -0.00179869)
(0.102007 0.00460276 -0.00233898)
(0.101888 0.00481275 -0.0030647)
(0.101271 0.00533249 -0.00402248)
(0.100303 0.00621601 -0.00526504)
(0.0988581 0.00752093 -0.00686152)
(0.0968023 0.00933163 -0.00890986)
(0.0940133 0.0117697 -0.0115437)
(0.0897759 0.0150084 -0.0149445)
(0.0843871 0.0192524 -0.0193249)
(0.0746292 0.0248288 -0.0250079)
(0.0633059 0.0316045 -0.0318726)
(0.0398153 0.0396245 -0.0399377)
(0.0140575 0.0354216 -0.0357125)
(0.100535 0.00252134 -0.000568425)
(0.100987 0.00379709 -0.00118043)
(0.101961 0.00415453 -0.00164951)
(0.102179 0.00439705 -0.0021533)
(0.10231 0.00482634 -0.00282517)
(0.101995 0.00554613 -0.00370478)
(0.101387 0.0066279 -0.00483592)
(0.100385 0.0081536 -0.00627546)
(0.098894 0.0102381 -0.00810344)
(0.0968528 0.0130499 -0.0104296)
(0.0936313 0.016817 -0.0133957)
(0.0896505 0.0218812 -0.0171859)
(0.0816802 0.0286601 -0.0220191)
(0.0727163 0.0373907 -0.0278969)
(0.0497869 0.0481825 -0.0346187)
(0.0228096 0.0436852 -0.0310182)
(0.100523 0.00194958 -0.000493144)
(0.101031 0.00309834 -0.00105519)
(0.102128 0.00359316 -0.00149058)
(0.102528 0.00401556 -0.00195543)
(0.102897 0.00461919 -0.00256977)
(0.102871 0.00549557 -0.00336577)
(0.10262 0.00672391 -0.00437759)
(0.102067 0.00840468 -0.00564897)
(0.101155 0.0106846 -0.00724118)
(0.0998611 0.0138012 -0.00923933)
(0.0976276 0.0180987 -0.0117462)
(0.0949093 0.0242925 -0.0149198)
(0.0884912 0.03333 -0.0188799)
(0.0815917 0.0476941 -0.0237689)
(0.0594441 0.0697382 -0.0291656)
(0.0348811 0.0859031 -0.0266044)
(0.0903908 0.0121768 -0.000534642)
(0.0827065 0.00594257 -0.00103436)
(0.0764745 0.00297568 -0.00139644)
(0.0734497 0.00136055 -0.00179386)
(0.071327 0.000781337 -0.00234117)
(0.0694544 0.000572894 -0.0030724)
(0.0675174 0.000531984 -0.00402891)
(0.0652451 0.000570069 -0.0052608)
(0.0624357 0.000657769 -0.00683345)
(0.0589441 0.000778416 -0.00881937)
(0.0542912 0.000940063 -0.0113116)
(0.0487772 0.00108582 -0.0143188)
(0.0406465 0.00131717 -0.0179819)
(0.0320497 0.00133065 -0.0216959)
(0.0182547 0.00158025 -0.0255245)
(0.00509536 0.000534075 -0.0209541)
(0.103471 0.0107901 -0.00077091)
(0.103385 0.0071781 -0.00145743)
(0.102174 0.00455669 -0.00194811)
(0.100238 0.0028514 -0.00247372)
(0.0982913 0.00213304 -0.00318912)
(0.0961152 0.00189673 -0.00414785)
(0.093658 0.00194958 -0.00540632)
(0.0906782 0.00219443 -0.00703256)
(0.086945 0.00259575 -0.00911479)
(0.0822601 0.00313583 -0.011753)
(0.0760184 0.00382133 -0.0150723)
(0.0684839 0.00458702 -0.0191035)
(0.0574931 0.00551027 -0.024013)
(0.0455156 0.00620948 -0.0290878)
(0.0264458 0.00697745 -0.0342339)
(0.00823074 0.00500526 -0.0281845)
(0.102632 0.00675761 -0.000777217)
(0.103389 0.00669733 -0.0014696)
(0.103503 0.00527731 -0.00196142)
(0.102302 0.00405256 -0.0024865)
(0.100884 0.00346601 -0.00320081)
(0.0990178 0.00333825 -0.00415772)
(0.0967712 0.00357063 -0.00541315)
(0.0939423 0.00409969 -0.00703473)
(0.0903216 0.00490456 -0.00911051)
(0.0857185 0.00597994 -0.011741)
(0.0794932 0.00734095 -0.0150519)
(0.0719117 0.0089249 -0.0190791)
(0.0606445 0.0107828 -0.023987)
(0.0482407 0.0124526 -0.0290782)
(0.0281475 0.0139905 -0.0342365)
(0.00868603 0.0108997 -0.0281525)
(0.101326 0.00504631 -0.000745505)
(0.101944 0.00597152 -0.00141764)
(0.102511 0.00526035 -0.00189464)
(0.101842 0.00453247 -0.00240301)
(0.100891 0.00422104 -0.00309342)
(0.0993854 0.00431347 -0.00401631)
(0.0974447 0.00478133 -0.00522445)
(0.0948982 0.00560799 -0.00678179)
(0.0915587 0.00680617 -0.00877188)
(0.0872494 0.00840375 -0.0112908)
(0.0813021 0.0104528 -0.0144585)
(0.0739899 0.0129298 -0.0183142)
(0.0627992 0.0159267 -0.0230116)
(0.0503544 0.0189181 -0.0279042)
(0.0295876 0.0218518 -0.0328569)
(0.0090823 0.0177228 -0.0270181)
(0.100801 0.00390475 -0.000698875)
(0.10124 0.00522462 -0.0013406)
(0.101908 0.00507145 -0.00179681)
(0.101539 0.00478706 -0.00228155)
(0.100934 0.00477896 -0.00293768)
(0.0997694 0.00512678 -0.00381153)
(0.0981732 0.00585889 -0.0049512)
(0.0959897 0.0070041 -0.00641495)
(0.0930498 0.00861369 -0.00827908)
(0.0891964 0.0107566 -0.0106321)
(0.083744 0.0135302 -0.0135833)
(0.0769862 0.0169632 -0.0171749)
(0.0661897 0.0211954 -0.0215387)
(0.0540434 0.0256371 -0.0261094)
(0.0324448 0.030163 -0.0307131)
(0.0103958 0.0247343 -0.0252612)
(0.100575 0.00318824 -0.000643769)
(0.100919 0.00456442 -0.00124901)
(0.101646 0.00473441 -0.00168065)
(0.101507 0.00476873 -0.00213731)
(0.101196 0.00502631 -0.00275239)
(0.100361 0.00561481 -0.00356726)
(0.0991309 0.00659551 -0.00462415)
(0.0973648 0.00803546 -0.00597395)
(0.0949122 0.0100318 -0.00768344)
(0.091637 0.0127211 -0.00983102)
(0.0868367 0.0162993 -0.0125111)
(0.0808143 0.0209746 -0.0157697)
(0.0705672 0.0271264 -0.0197072)
(0.0588691 0.0344886 -0.0238697)
(0.0362824 0.0432201 -0.0280173)
(0.0122835 0.0384108 -0.0230852)
(0.100498 0.00259061 -0.00058168)
(0.100836 0.00391249 -0.00114579)
(0.101652 0.00430072 -0.00154978)
(0.101714 0.00457872 -0.0019747)
(0.101673 0.0050604 -0.00254313)
(0.101164 0.00585605 -0.00329068)
(0.100326 0.00704544 -0.00425241)
(0.0990456 0.00872147 -0.0054698)
(0.097216 0.0110141 -0.00699665)
(0.0947677 0.01411 -0.00889559)
(0.0910801 0.018265 -0.0112362)
(0.086598 0.0238295 -0.0140558)
(0.0782441 0.0312863 -0.0173955)
(0.0690489 0.040726 -0.0209237)
(0.046888 0.0524193 -0.0242801)
(0.021364 0.0472213 -0.0199515)
(0.100489 0.00202173 -0.000515562)
(0.100892 0.00321846 -0.00103583)
(0.101843 0.00374539 -0.00141039)
(0.102103 0.0042048 -0.00180147)
(0.102318 0.00486311 -0.00232009)
(0.102124 0.00581885 -0.00299568)
(0.101678 0.00716014 -0.00385558)
(0.100893 0.00899961 -0.00493121)
(0.0997029 0.0115012 -0.0062627)
(0.0980833 0.0149252 -0.00789654)
(0.0954806 0.0196509 -0.00987792)
(0.0923896 0.0264179 -0.0122385)
(0.0856831 0.0362682 -0.0149633)
(0.0786968 0.051564 -0.0178619)
(0.0572143 0.0749754 -0.0204563)
(0.0339272 0.0906741 -0.0170219)
(0.0903637 0.0121798 -0.000479151)
(0.0825903 0.00595019 -0.000901786)
(0.076232 0.00298367 -0.00119474)
(0.0730819 0.00136995 -0.00151201)
(0.0708142 0.000793271 -0.00194936)
(0.0687751 0.000588514 -0.00253432)
(0.0666378 0.000552705 -0.00329817)
(0.0641215 0.000597641 -0.00427677)
(0.0610167 0.000694343 -0.00551491)
(0.0571682 0.000826826 -0.00705771)
(0.052123 0.00100299 -0.00896204)
(0.0461606 0.00116834 -0.011206)
(0.037745 0.00141968 -0.0138745)
(0.0289231 0.00146859 -0.0164766)
(0.0159032 0.00173011 -0.0190344)
(0.00403794 0.000723004 -0.0155686)
(0.103434 0.0108042 -0.000680337)
(0.103235 0.00720343 -0.00125956)
(0.101861 0.0045873 -0.00165811)
(0.0997585 0.00288873 -0.00207903)
(0.0976186 0.00218068 -0.00265193)
(0.0952195 0.0019591 -0.00342025)
(0.0924936 0.00203229 -0.00442691)
(0.0891859 0.00230451 -0.00572095)
(0.0850545 0.00274189 -0.00736317)
(0.0798881 0.00332855 -0.00941648)
(0.0731114 0.00407258 -0.0119568)
(0.0649725 0.00490941 -0.0149691)
(0.0535731 0.00591513 -0.0185455)
(0.0412995 0.00670396 -0.0220965)
(0.0232236 0.00754251 -0.0255175)
(0.00671904 0.00550953 -0.0208819)
(0.102596 0.00678513 -0.000686064)
(0.10324 0.00674363 -0.00127043)
(0.103191 0.0053349 -0.00166996)
(0.101824 0.00412324 -0.00209039)
(0.100214 0.00355613 -0.00266237)
(0.0981262 0.00345616 -0.00342921)
(0.095613 0.00372705 -0.00443349)
(0.0924585 0.00430811 -0.00572395)
(0.0884423 0.00518181 -0.0073613)
(0.0833601 0.00634613 -0.00940882)
(0.0766001 0.00781998 -0.0119431)
(0.0684132 0.00953839 -0.0149524)
(0.0567289 0.0115578 -0.018528)
(0.0440216 0.0133821 -0.0220903)
(0.0249107 0.0150686 -0.0255193)
(0.00716874 0.0117829 -0.0208618)
(0.101292 0.00508373 -0.000660058)
(0.101799 0.00603425 -0.00122783)
(0.10221 0.00533919 -0.00161522)
(0.10138 0.00462973 -0.00202199)
(0.100245 0.00434537 -0.00257456)
(0.0985275 0.00447654 -0.00331386)
(0.0963324 0.00499828 -0.00428006)
(0.0934761 0.00589817 -0.00551912)
(0.0897601 0.0071941 -0.00708848)
(0.0849946 0.00891915 -0.00904839)
(0.0785361 0.0111324 -0.0114717)
(0.0706441 0.013807 -0.0143502)
(0.059046 0.0170477 -0.0177689)
(0.0463026 0.0202707 -0.0211864)
(0.0264688 0.0234431 -0.024473)
(0.00762042 0.0190167 -0.0200115)
(0.100769 0.00395169 -0.000621723)
(0.101102 0.00530296 -0.00116454)
(0.101621 0.00517029 -0.00153493)
(0.1011 0.0049093 -0.00192247)
(0.100321 0.00493555 -0.00244721)
(0.0989591 0.00533262 -0.00314686)
(0.0971265 0.00613351 -0.00405801)
(0.094656 0.00737276 -0.00522234)
(0.0913681 0.00910885 -0.00669207)
(0.0870938 0.0114183 -0.00852228)
(0.081168 0.0144092 -0.0107789)
(0.0738746 0.0181067 -0.0134574)
(0.0626922 0.0226728 -0.0166295)
(0.0502651 0.0274347 -0.0198151)
(0.0295207 0.0323085 -0.0228616)
(0.00901621 0.0264864 -0.0187024)
(0.100544 0.00324218 -0.000576443)
(0.100788 0.00465438 -0.00108931)
(0.101375 0.00484814 -0.00143961)
(0.101094 0.00490966 -0.0018043)
(0.100624 0.00520722 -0.00229575)
(0.0996081 0.0058532 -0.00294777)
(0.0981635 0.00691464 -0.00379245)
(0.0961389 0.00846587 -0.00486597)
(0.0933744 0.0106138 -0.00621362)
(0.0897239 0.0135058 -0.00788342)
(0.0845001 0.0173546 -0.00993136)
(0.0780024 0.0223696 -0.0123572)
(0.0674016 0.0289675 -0.0152122)
(0.0554557 0.0367822 -0.0180986)
(0.0336266 0.0460474 -0.0208238)
(0.0110169 0.0407891 -0.0170584)
(0.100469 0.00264959 -0.000525439)
(0.100715 0.00401072 -0.00100454)
(0.1014 0.00442503 -0.00133227)
(0.101333 0.00473292 -0.00167114)
(0.101147 0.00525857 -0.00212481)
(0.100476 0.00611758 -0.00272258)
(0.0994501 0.00739627 -0.00349108)
(0.0979457 0.00919602 -0.00445958)
(0.0958496 0.0116583 -0.00566412)
(0.0930865 0.0149834 -0.0071421)
(0.089048 0.0194482 -0.00893314)
(0.0841875 0.0254087 -0.0110345)
(0.0755538 0.0333978 -0.0134598)
(0.0662045 0.0433979 -0.0159044)
(0.044688 0.0557908 -0.0181016)
(0.0203319 0.0501059 -0.0147934)
(0.100462 0.00208316 -0.000471141)
(0.100779 0.00332067 -0.000914264)
(0.101611 0.00387479 -0.00121795)
(0.101755 0.00436537 -0.00152933)
(0.101842 0.00506956 -0.00194266)
(0.101507 0.00609149 -0.00248245)
(0.1009 0.00752635 -0.00316945)
(0.099928 0.00949611 -0.00402547)
(0.09852 0.0121778 -0.00507665)
(0.0966503 0.0158483 -0.00634922)
(0.0937737 0.0209138 -0.0078659)
(0.0904073 0.0281301 -0.0096225)
(0.0835024 0.038612 -0.0115942)
(0.0764773 0.054632 -0.0135815)
(0.0555528 0.0790915 -0.0152444)
(0.0332919 0.0945373 -0.0125798)
(0.0903433 0.0121821 -0.000376312)
(0.0825019 0.00595617 -0.000696799)
(0.0760468 0.00298991 -0.00091228)
(0.0728001 0.00137734 -0.00114332)
(0.070421 0.000802639 -0.0014616)
(0.0682551 0.000600766 -0.00188719)
(0.0659678 0.000568944 -0.00244146)
(0.0632738 0.000619273 -0.00314745)
(0.0599627 0.000723158 -0.00403217)
(0.055879 0.00086541 -0.00511856)
(0.0506022 0.00105424 -0.00643252)
(0.0444108 0.00123814 -0.00793403)
(0.035935 0.00151177 -0.00965294)
(0.0271442 0.00159886 -0.0112228)
(0.0147093 0.00188936 -0.0126346)
(0.00366859 0.000908522 -0.0101229)
(0.103407 0.0108154 -0.000529498)
(0.103121 0.00722335 -0.000967992)
(0.101622 0.00461131 -0.001262)
(0.0993903 0.00291802 -0.00156917)
(0.0971017 0.00221799 -0.00198681)
(0.0945325 0.00200785 -0.00254661)
(0.091605 0.00209679 -0.00327817)
(0.0880573 0.00239012 -0.0042133)
(0.0836456 0.00285525 -0.00538917)
(0.0781583 0.00347777 -0.00683898)
(0.0710583 0.00426691 -0.00859802)
(0.0626003 0.00515934 -0.0106244)
(0.0510889 0.00623067 -0.012944)
(0.0388461 0.00709323 -0.0151124)
(0.0215363 0.00799566 -0.0170267)
(0.00613852 0.00591614 -0.0136599)
(0.102569 0.00680678 -0.000534008)
(0.103127 0.00678003 -0.000976517)
(0.102953 0.00538011 -0.00127131)
(0.101457 0.00417868 -0.00157808)
(0.0996989 0.00362667 -0.00199504)
(0.0974424 0.00354826 -0.00255377)
(0.0947291 0.00384886 -0.00328364)
(0.0913366 0.00446983 -0.00421624)
(0.0870422 0.00539598 -0.00538867)
(0.0816412 0.00662756 -0.00683428)
(0.0745593 0.0081859 -0.00858875)
(0.0660546 0.0100042 -0.0106119)
(0.0542556 0.0121422 -0.0129287)
(0.0415789 0.0140797 -0.0151001)
(0.0232273 0.0158733 -0.0170128)
(0.00659586 0.0124438 -0.0136292)
(0.101266 0.00511314 -0.000514728)
(0.101689 0.00608355 -0.0009449)
(0.101979 0.0054011 -0.00123069)
(0.101026 0.00470599 -0.00152736)
(0.0997488 0.00444267 -0.00193004)
(0.0978697 0.00460382 -0.00246856)
(0.0954839 0.00516705 -0.00317061)
(0.0924012 0.00612292 -0.00406587)
(0.088421 0.0074929 -0.00518927)
(0.0833532 0.00931343 -0.00657222)
(0.0765892 0.0116477 -0.00824827)
(0.0683967 0.0144654 -0.01018)
(0.0566894 0.0178785 -0.0123889)
(0.0439783 0.0212611 -0.014462)
(0.0248677 0.0245914 -0.0162809)
(0.00708593 0.0199458 -0.0130375)
(0.100744 0.0039886 -0.000486209)
(0.100997 0.00536454 -0.000897854)
(0.101401 0.00524788 -0.00117108)
(0.100763 0.00500512 -0.00145356)
(0.0998513 0.00505802 -0.00183579)
(0.0983381 0.00549316 -0.00234526)
(0.0963281 0.00634689 -0.00300716)
(0.0936482 0.00765779 -0.00384828)
(0.0901166 0.00948926 -0.00490012)
(0.0855647 0.0119225 -0.00619091)
(0.0793587 0.0150718 -0.00775025)
(0.0717924 0.0189579 -0.00954433)
(0.0605108 0.0237546 -0.0115876)
(0.0481216 0.0287296 -0.013509)
(0.0280442 0.0338237 -0.0151775)
(0.00853224 0.0277124 -0.0121498)
(0.100521 0.00328458 -0.000452558)
(0.100689 0.00472506 -0.000841953)
(0.101168 0.0049374 -0.0011003)
(0.100779 0.0050201 -0.00136594)
(0.100185 0.00534864 -0.0017237)
(0.0990312 0.00603898 -0.00219831)
(0.0974258 0.00716228 -0.00281181)
(0.0952126 0.00879799 -0.00358727)
(0.0922304 0.0110594 -0.00455166)
(0.0883339 0.0141006 -0.00572888)
(0.0828625 0.0181438 -0.00714277)
(0.0761292 0.0233952 -0.00876387)
(0.0654438 0.0302916 -0.0105954)
(0.053548 0.0383929 -0.0123224)
(0.0323175 0.0479778 -0.013791)
(0.0106001 0.0423868 -0.011041)
(0.100447 0.00269594 -0.000414648)
(0.100622 0.0040879 -0.000778969)
(0.101208 0.00452257 -0.00102062)
(0.101041 0.00485371 -0.00126725)
(0.100744 0.00541342 -0.00159728)
(0.0999498 0.00632126 -0.00203225)
(0.098782 0.00766825 -0.00259044)
(0.097114 0.00956165 -0.00329031)
(0.094832 0.0121505 -0.0041529)
(0.0918634 0.0156432 -0.00519584)
(0.0876228 0.0203284 -0.00643369)
(0.082583 0.0265606 -0.00783842)
(0.0738986 0.0348988 -0.00939283)
(0.0646395 0.0452436 -0.0108469)
(0.0436434 0.0580426 -0.0120048)
(0.0200455 0.0519963 -0.00957898)
(0.100442 0.00213142 -0.000374302)
(0.100694 0.00340096 -0.000711897)
(0.101434 0.00397631 -0.000935776)
(0.101489 0.00449113 -0.00116216)
(0.101476 0.00523083 -0.0014626)
(0.101034 0.00630371 -0.00185522)
(0.100306 0.00781002 -0.00235425)
(0.0991977 0.0098781 -0.00297317)
(0.0976379 0.0126935 -0.00372666)
(0.0956059 0.0165427 -0.00462566)
(0.0925752 0.0218467 -0.00567504)
(0.0890892 0.0293644 -0.00684903)
(0.082171 0.0402479 -0.00810939)
(0.0752868 0.0566941 -0.00927954)
(0.0548213 0.0817369 -0.0101244)
(0.0332302 0.0969849 -0.00814419)
(0.0903297 0.0121837 -0.000239216)
(0.0824423 0.0059603 -0.000439728)
(0.0759216 0.00299417 -0.000570848)
(0.0726093 0.00138243 -0.000711394)
(0.0701547 0.000809057 -0.000904475)
(0.0679036 0.00060915 -0.00116251)
(0.0655167 0.000580025 -0.00149787)
(0.0627066 0.000633975 -0.00192324)
(0.0592636 0.000742607 -0.00245302)
(0.0550336 0.000891159 -0.00309779)
(0.0496189 0.00108777 -0.0038693)
(0.0432973 0.0012824 -0.00473753)
(0.034802 0.00156738 -0.00571672)
(0.0260546 0.00167286 -0.00659038)
(0.0139915 0.00197297 -0.00735127)
(0.00345242 0.000999331 -0.00587739)
(0.103389 0.010823 -0.000335517)
(0.103044 0.00723709 -0.000608583)
(0.10146 0.0046278 -0.00078846)
(0.0991404 0.00293817 -0.000975255)
(0.0967511 0.00224359 -0.00122897)
(0.0940674 0.00204127 -0.00156875)
(0.0910057 0.0021409 -0.00201191)
(0.0873009 0.00244849 -0.0025761)
(0.0827094 0.00293222 -0.0032813)
(0.0770216 0.00357852 -0.00414331)
(0.069728 0.00439706 -0.00517819)
(0.0610883 0.00532485 -0.00635265)
(0.0495333 0.0064362 -0.00767643)
(0.0373451 0.00734124 -0.0088854)
(0.0205275 0.00827686 -0.00991731)
(0.0058055 0.006159 -0.00793259)
(0.102552 0.0068217 -0.000337983)
(0.10305 0.0068051 -0.000613853)
(0.102791 0.00541121 -0.000794522)
(0.101208 0.00421681 -0.000981005)
(0.0993497 0.0036751 -0.00123435)
(0.0969794 0.00361137 -0.00157348)
(0.0941329 0.00393214 -0.00201564)
(0.0905845 0.00458006 -0.00257835)
(0.0861117 0.00554141 -0.00328157)
(0.0805116 0.00681776 -0.00414117)
(0.0732368 0.00843166 -0.00517349)
(0.0645509 0.0103149 -0.00634613)
(0.0527063 0.0125281 -0.00766856)
(0.0400834 0.014536 -0.00887935)
(0.0222198 0.0163932 -0.0099106)
(0.0062666 0.0128661 -0.00791692)
(0.101249 0.0051334 -0.000326352)
(0.101615 0.0061175 -0.000594422)
(0.101823 0.00544369 -0.000769542)
(0.100785 0.00475842 -0.000949762)
(0.0994123 0.00450945 -0.00119438)
(0.0974243 0.004691 -0.00152117)
(0.0949116 0.00528234 -0.00194642)
(0.0916806 0.00627596 -0.00248653)
(0.0875312 0.00769552 -0.00316022)
(0.0822748 0.00957946 -0.0039823)
(0.0753282 0.0119932 -0.00496809)
(0.0669647 0.0149038 -0.00608681)
(0.0552141 0.0184269 -0.00734662)
(0.0425563 0.0219098 -0.00850066)
(0.0239101 0.0253362 -0.00947937)
(0.00677919 0.0205459 -0.0075699)
(0.100728 0.00401403 -0.000308718)
(0.100926 0.00540695 -0.000565422)
(0.101252 0.00530127 -0.000732888)
(0.100535 0.00507096 -0.000904448)
(0.0995326 0.00514205 -0.0011366)
(0.0979177 0.00560306 -0.00144571)
(0.0957897 0.00649256 -0.00184662)
(0.0929726 0.00785168 -0.00235405)
(0.0892852 0.00974688 -0.00298482)
(0.0845604 0.0122621 -0.00375203)
(0.0781872 0.0155153 -0.00466909)
(0.0704664 0.0195236 -0.00570758)
(0.0591462 0.0244676 -0.00687252)
(0.0468114 0.0295774 -0.00794066)
(0.0271622 0.0348073 -0.00883722)
(0.00825575 0.0285084 -0.00705616)
(0.100505 0.00331378 -0.000288035)
(0.100622 0.00477373 -0.00053103)
(0.101028 0.00499882 -0.000689338)
(0.100565 0.00509598 -0.000850584)
(0.0998878 0.00544564 -0.00106781)
(0.0986407 0.00616608 -0.0013557)
(0.0969282 0.00733119 -0.00172726)
(0.0945917 0.0090236 -0.00219507)
(0.0914703 0.0113606 -0.00277339)
(0.087421 0.0145002 -0.00347294)
(0.081803 0.0186699 -0.00430409)