/*--------------------------------*- C++ -*----------------------------------*\
| =========                 |                                                 |
| \\      /  F ield         | OpenFOAM: The Open Source CFD Toolbox           |
|  \\    /   O peration     | Version:  v1912                                 |
|   \\  /    A nd           | Website:  www.openfoam.com                      |
|    \\/     M anipulation  |                                                 |
\*---------------------------------------------------------------------------*/
FoamFile
{
    version     2.0;
    format      ascii;
    class       surfaceScalarField;
    location    "0.25/fluid";
    object      phi;
}
// * * * * * * * * * * * * * * * * * * * * * * * * * * * * * * * * * * * * * //

dimensions      [0 3 -1 0 0 0 0];
oriented        oriented;


internalField   nonuniform List<scalar> 
41600
(
5.18561e-05
1.08374e-05
1.91025e-07
-3.84472e-07
4.48935e-05
7.24477e-06
2.81863e-08
-3.10434e-07
4.07134e-05
4.43878e-06
-3.24207e-07
6.55683e-08
3.85682e-05
2.34748e-06
-7.50981e-07
5.48696e-07
3.7341e-05
1.36731e-06
-1.29711e-06
1.15698e-06
3.64976e-05
9.25744e-07
-1.98515e-06
1.90287e-06
3.57568e-05
7.68922e-07
-2.85452e-06
2.82639e-06
3.49799e-05
7.4654e-07
-3.95763e-06
3.988e-06
3.40766e-05
8.00723e-07
-5.36982e-06
5.47239e-06
3.29628e-05
8.90409e-07
-7.20754e-06
7.43089e-06
3.15334e-05
1.00899e-06
-9.63097e-06
1.00514e-05
2.95893e-05
1.08172e-06
-1.28668e-05
1.37292e-05
2.67855e-05
1.14636e-06
-1.73439e-05
1.90013e-05
2.22233e-05
8.8385e-07
-2.31966e-05
2.68749e-05
1.42482e-05
6.54879e-07
-3.09149e-05
3.82352e-05
-1.51957e-06
-2.83495e-05
4.41172e-05
6.52857e-05
8.29649e-06
1.36361e-07
-3.81197e-07
6.52124e-05
7.68697e-06
-1.71625e-07
-1.97241e-07
6.43522e-05
5.64989e-06
-7.03031e-07
3.5212e-07
6.32846e-05
3.6967e-06
-1.33628e-06
1.05468e-06
6.22632e-05
2.58748e-06
-2.1376e-06
1.93884e-06
6.12755e-05
2.03232e-06
-3.15442e-06
3.03548e-06
6.02396e-05
1.84849e-06
-4.44923e-06
4.40558e-06
5.90607e-05
1.88915e-06
-6.1032e-06
6.13947e-06
5.7642e-05
2.08611e-06
-8.231e-06
8.36428e-06
5.58498e-05
2.39169e-06
-1.10075e-05
1.12984e-05
5.35201e-05
2.78851e-06
-1.46736e-05
1.52238e-05
5.02724e-05
3.2048e-06
-1.95755e-05
2.07001e-05
4.55862e-05
3.65033e-06
-2.63078e-05
2.84901e-05
3.77797e-05
3.8296e-06
-3.51443e-05
4.00051e-05
2.48537e-05
3.82704e-06
-4.63435e-05
5.60974e-05
1.44273e-06
-4.24194e-05
6.43108e-05
6.56344e-05
5.41392e-06
1.26529e-07
-3.78311e-07
6.71537e-05
6.54903e-06
-2.03785e-07
-1.77632e-07
6.75852e-05
5.58237e-06
-7.5596e-07
3.91959e-07
6.73196e-05
4.25526e-06
-1.40932e-06
1.11639e-06
6.67493e-05
3.36536e-06
-2.23507e-06
2.02751e-06
6.60015e-05
2.90514e-06
-3.28391e-06
3.15884e-06
6.50916e-05
2.8057e-06
-4.62042e-06
4.57314e-06
6.39715e-05
2.97415e-06
-6.32889e-06
6.36395e-06
6.25621e-05
3.36068e-06
-8.52767e-06
8.66259e-06
6.07257e-05
3.93095e-06
-1.14002e-05
1.16973e-05
5.82763e-05
4.67225e-06
-1.51957e-05
1.57613e-05
5.47844e-05
5.53414e-06
-2.02862e-05
2.14488e-05
4.96524e-05
6.51246e-06
-2.72824e-05
2.95523e-05
4.10484e-05
7.3438e-06
-3.65229e-05
4.16127e-05
2.68062e-05
7.81095e-06
-4.82305e-05
5.84887e-05
4.98456e-06
-4.4322e-05
6.75863e-05
6.44381e-05
3.72781e-06
1.43491e-07
-3.95452e-07
6.60551e-05
5.31485e-06
-1.71724e-07
-2.11127e-07
6.69568e-05
5.04586e-06
-7.11121e-07
3.45907e-07
6.72048e-05
4.30122e-06
-1.35036e-06
1.05638e-06
6.70414e-05
3.73751e-06
-2.15772e-06
1.94897e-06
6.65895e-05
3.48367e-06
-3.18108e-06
3.05446e-06
6.58966e-05
3.54804e-06
-4.48201e-06
4.43262e-06
6.49444e-05
3.89422e-06
-6.14208e-06
6.17423e-06
6.36713e-05
4.5027e-06
-8.27528e-06
8.40633e-06
6.19432e-05
5.36702e-06
-1.10633e-05
1.13554e-05
5.95634e-05
6.49221e-06
-1.47478e-05
1.53076e-05
5.60733e-05
7.86595e-06
-1.9711e-05
2.08692e-05
5.08266e-05
9.48679e-06
-2.65476e-05
2.88201e-05
4.19369e-05
1.11099e-05
-3.56671e-05
4.07907e-05
2.71275e-05
1.22714e-05
-4.72862e-05
5.76351e-05
8.62779e-06
-4.3702e-05
6.71862e-05
6.37906e-05
2.68867e-06
1.73269e-07
-4.24737e-07
6.52406e-05
4.24773e-06
-1.11793e-07
-2.71037e-07
6.62656e-05
4.3861e-06
-6.2751e-07
2.62255e-07
6.67833e-05
4.07771e-06
-1.24284e-06
9.48567e-07
6.69036e-05
3.8269e-06
-2.01882e-06
1.80915e-06
6.67109e-05
3.80495e-06
-2.99788e-06
2.86936e-06
6.62503e-05
4.06132e-06
-4.23605e-06
4.18336e-06
6.55151e-05
4.60267e-06
-5.80898e-06
5.83569e-06
6.4456e-05
5.43947e-06
-7.82145e-06
7.94377e-06
6.29444e-05
6.60123e-06
-1.0447e-05
1.07244e-05
6.07786e-05
8.12219e-06
-1.39082e-05
1.4444e-05
5.74687e-05
1.00596e-05
-1.85893e-05
1.97056e-05
5.22994e-05
1.24552e-05
-2.50432e-05
2.72439e-05
4.32332e-05
1.51717e-05
-3.37771e-05
3.87815e-05
2.77787e-05
1.75883e-05
-4.49654e-05
5.5103e-05
1.32546e-05
-4.19047e-05
6.50565e-05
6.34778e-05
1.96201e-06
2.0906e-07
-4.60184e-07
6.47837e-05
3.32464e-06
-3.8444e-08
-3.44418e-07
6.58527e-05
3.68266e-06
-5.2507e-07
1.595e-07
6.6543e-05
3.6825e-06
-1.1116e-06
8.16594e-07
6.68798e-05
3.70121e-06
-1.84956e-06
1.63842e-06
6.69132e-05
3.90264e-06
-2.77467e-06
2.64352e-06
6.66788e-05
4.3528e-06
-3.93617e-06
3.87913e-06
6.61737e-05
5.08824e-06
-5.40227e-06
5.42182e-06
6.53554e-05
6.14699e-06
-7.2664e-06
7.37719e-06
6.40973e-05
7.60149e-06
-9.69126e-06
9.94905e-06
6.21908e-05
9.5258e-06
-1.28761e-05
1.33791e-05
5.91098e-05
1.20837e-05
-1.72046e-05
1.82614e-05
5.40711e-05
1.53972e-05
-2.31728e-05
2.52695e-05
4.48567e-05
1.95668e-05
-3.14084e-05
3.62276e-05
2.87205e-05
2.39239e-05
-4.20116e-05
5.18123e-05
1.93463e-05
-3.96777e-05
6.23065e-05
6.33541e-05
1.35899e-06
2.50274e-07
-5.01336e-07
6.45972e-05
2.46473e-06
4.59387e-08
-4.29179e-07
6.57091e-05
2.93722e-06
-4.07242e-07
4.085e-08
6.65289e-05
3.15902e-06
-9.6065e-07
6.64262e-07
6.70429e-05
3.40066e-06
-1.65443e-06
1.44102e-06
6.7284e-05
3.79647e-06
-2.51601e-06
2.38113e-06
6.72859e-05
4.41403e-06
-3.58573e-06
3.52252e-06
6.70581e-05
5.30712e-06
-4.92052e-06
4.92947e-06
6.65802e-05
6.53258e-06
-6.59612e-06
6.68838e-06
6.57576e-05
8.20136e-06
-8.75243e-06
8.97514e-06
6.44228e-05
1.04243e-05
-1.15445e-05
1.19808e-05
6.20788e-05
1.35082e-05
-1.53216e-05
1.6241e-05
5.79428e-05
1.77125e-05
-2.04559e-05
2.22767e-05
4.9422e-05
2.38373e-05
-2.76664e-05
3.19167e-05
3.3107e-05
3.15936e-05
-3.68285e-05
4.54737e-05
3.16302e-05
-3.53418e-05
5.61648e-05
6.33239e-05
2.94499e-07
-5.4578e-07
7.8637e-07
6.45734e-05
1.3648e-07
-5.20461e-07
1.59918e-06
6.5751e-05
-2.80913e-07
-8.67433e-08
2.12735e-06
6.66876e-05
-7.99073e-07
5.00828e-07
2.52058e-06
6.73541e-05
-1.44592e-06
1.22975e-06
2.9504e-06
6.77781e-05
-2.24012e-06
2.10101e-06
3.51159e-06
6.79962e-05
-3.2129e-06
3.14304e-06
4.26577e-06
6.80285e-05
-4.40969e-06
4.40756e-06
5.27697e-06
6.78713e-05
-5.88904e-06
5.96257e-06
6.6162e-06
6.74545e-05
-7.76793e-06
7.956e-06
8.43013e-06
6.66425e-05
-1.01603e-05
1.05331e-05
1.08634e-05
6.49729e-05
-1.33794e-05
1.4169e-05
1.43882e-05
6.17275e-05
-1.76788e-05
1.9246e-05
1.93908e-05
5.4154e-05
-2.38674e-05
2.75876e-05
2.76905e-05
3.88327e-05
-3.16324e-05
3.92187e-05
3.93286e-05
-3.16421e-05
5.09851e-05
5.11197e-05
5.17885e-05
1.08431e-05
5.94615e-08
4.47115e-05
7.25995e-06
-1.54726e-07
4.04112e-05
4.45623e-06
-4.80171e-07
3.81473e-05
2.36713e-06
-8.54199e-07
3.67936e-05
1.39218e-06
-1.33566e-06
3.58026e-05
9.5863e-07
-1.95276e-06
3.48775e-05
8.1329e-07
-2.74272e-06
3.38629e-05
8.06541e-07
-3.74952e-06
3.2648e-05
8.82627e-07
-5.03753e-06
3.11288e-05
1.00208e-06
-6.69051e-06
2.9169e-05
1.1645e-06
-8.83565e-06
2.65718e-05
1.29937e-06
-1.15689e-05
2.29452e-05
1.46359e-06
-1.51809e-05
1.7666e-05
1.3686e-06
-1.92859e-05
9.32256e-06
1.33193e-06
-2.39034e-05
-4.02435e-07
-1.86245e-05
6.51931e-05
8.31173e-06
-2.53857e-08
6.49625e-05
7.71985e-06
-4.00922e-07
6.39252e-05
5.69247e-06
-9.01981e-07
6.26737e-05
3.7481e-06
-1.46572e-06
6.14533e-05
2.65253e-06
-2.1776e-06
6.02333e-05
2.11744e-06
-3.09323e-06
5.8908e-05
1.96215e-06
-4.27272e-06
5.73553e-05
2.04172e-06
-5.78572e-06
5.5445e-05
2.29184e-06
-7.72995e-06
5.30072e-05
2.66742e-06
-1.0235e-05
4.98268e-05
3.15984e-06
-1.34886e-05
4.55124e-05
3.69635e-06
-1.76582e-05
3.94884e-05
4.30858e-06
-2.31288e-05
3.04953e-05
4.68101e-06
-2.94636e-05
1.69265e-05
4.86292e-06
-3.63057e-05
2.42258e-06
-2.83179e-05
6.55404e-05
5.43719e-06
-3.93448e-08
6.68985e-05
6.59789e-06
-4.3987e-07
6.71477e-05
5.64854e-06
-9.61283e-07
6.66922e-05
4.3375e-06
-1.54326e-06
6.59166e-05
3.47e-06
-2.27692e-06
6.49294e-05
3.04217e-06
-3.22142e-06
6.37214e-05
2.98875e-06
-4.43903e-06
6.22162e-05
3.22035e-06
-6.00228e-06
6.02991e-05
3.69323e-06
-8.01199e-06
5.77936e-05
4.37743e-06
-1.06048e-05
5.44593e-05
5.27259e-06
-1.39741e-05
4.98508e-05
6.32427e-06
-1.83057e-05
4.33112e-05
7.55566e-06
-2.39899e-05
3.34436e-05
8.63937e-06
-3.06136e-05
1.8498e-05
9.33229e-06
-3.77542e-05
6.02601e-06
-2.94274e-05
6.43459e-05
3.75813e-06
-2.33981e-08
6.58045e-05
5.37804e-06
-4.10392e-07
6.65284e-05
5.13299e-06
-9.19529e-07
6.65925e-05
4.41103e-06
-1.48797e-06
6.62311e-05
3.87796e-06
-2.20425e-06
6.55488e-05
3.66815e-06
-3.12482e-06
6.45695e-05
3.79518e-06
-4.30913e-06
6.32469e-05
4.22814e-06
-5.82728e-06
6.14847e-05
4.95627e-06
-7.77612e-06
5.91093e-05
5.98052e-06
-1.0291e-05
5.58688e-05
7.32369e-06
-1.35583e-05
5.12852e-05
8.97005e-06
-1.77732e-05
4.46463e-05
1.0958e-05
-2.3311e-05
3.44898e-05
1.29417e-05
-2.98129e-05
1.89346e-05
1.44496e-05
-3.68484e-05
1.00102e-05
-2.87515e-05
6.37011e-05
2.72503e-06
5.24563e-09
6.49975e-05
4.32323e-06
-3.53334e-07
6.5852e-05
4.49094e-06
-8.39955e-07
6.61952e-05
4.21071e-06
-1.3858e-06
6.61294e-05
3.99758e-06
-2.07263e-06
6.57218e-05
4.02974e-06
-2.95178e-06
6.49951e-05
4.3634e-06
-4.07759e-06
6.39163e-05
5.01284e-06
-5.51491e-06
6.24033e-05
6.00027e-06
-7.35241e-06
6.0289e-05
7.36697e-06
-9.71914e-06
5.73176e-05
9.17241e-06
-1.27855e-05
5.29736e-05
1.1477e-05
-1.67522e-05
4.64649e-05
1.4384e-05
-2.19604e-05
3.61416e-05
1.76305e-05
-2.81427e-05
1.98507e-05
2.06231e-05
-3.48479e-05
1.51991e-05
-2.72429e-05
6.33913e-05
2.0032e-06
3.95769e-08
6.45498e-05
3.40973e-06
-2.83447e-07
6.54571e-05
3.80113e-06
-7.42518e-07
6.59841e-05
3.83332e-06
-1.26123e-06
6.61492e-05
3.8953e-06
-1.91239e-06
6.59863e-05
4.159e-06
-2.74105e-06
6.55103e-05
4.69861e-06
-3.79531e-06
6.46937e-05
5.56054e-06
-5.13342e-06
6.34637e-05
6.79784e-06
-6.83397e-06
6.16566e-05
8.50049e-06
-9.01765e-06
5.90109e-05
1.07767e-05
-1.18347e-05
5.49683e-05
1.38064e-05
-1.54914e-05
4.86597e-05
1.78018e-05
-2.0282e-05
3.82115e-05
2.27274e-05
-2.60571e-05
2.1134e-05
2.80127e-05
-3.23236e-05
2.20571e-05
-2.54017e-05
6.32712e-05
1.40336e-06
7.89266e-08
6.43741e-05
2.55598e-06
-2.03222e-07
6.53343e-05
3.06433e-06
-6.30691e-07
6.60042e-05
3.32108e-06
-1.11825e-06
6.63637e-05
3.60941e-06
-1.72802e-06
6.64315e-05
4.07249e-06
-2.49739e-06
6.62238e-05
4.78697e-06
-3.46637e-06
6.57293e-05
5.81812e-06
-4.68352e-06
6.49032e-05
7.23996e-06
-6.21217e-06
6.36206e-05
9.18644e-06
-8.15582e-06
6.16724e-05
1.18096e-05
-1.06291e-05
5.85281e-05
1.54527e-05
-1.38236e-05
5.33225e-05
2.04939e-05
-1.79424e-05
4.37035e-05
2.76446e-05
-2.29645e-05
2.63648e-05
3.68053e-05
-2.82825e-05
3.53525e-05
-2.22725e-05
6.32448e-05
1.20985e-07
8.32072e-07
6.43618e-05
-1.17325e-07
1.69276e-06
6.53986e-05
-5.11006e-07
2.25769e-06
6.61991e-05
-9.65417e-07
2.68684e-06
6.67292e-05
-1.53115e-06
3.16462e-06
6.70041e-05
-2.23753e-06
3.795e-06
6.70452e-05
-3.11622e-06
4.64914e-06
6.68557e-05
-4.20577e-06
5.80372e-06
6.64128e-05
-5.55444e-06
7.34822e-06
6.56219e-05
-7.2481e-06
9.45754e-06
6.43163e-05
-9.36735e-06
1.23223e-05
6.20009e-05
-1.20874e-05
1.6476e-05
5.78933e-05
-1.55217e-05
2.24444e-05
4.94025e-05
-1.97856e-05
3.20537e-05
3.31102e-05
-2.4172e-05
4.56373e-05
-1.95478e-05
5.63684e-05
5.17333e-05
1.08484e-05
-2.22492e-08
4.45588e-05
7.27389e-06
-2.54117e-07
4.01503e-05
4.47262e-06
-5.44318e-07
3.77739e-05
2.3857e-06
-8.63456e-07
3.62965e-05
1.41547e-06
-1.27372e-06
3.51585e-05
9.89052e-07
-1.80382e-06
3.40474e-05
8.53687e-07
-2.48538e-06
3.27889e-05
8.60032e-07
-3.35102e-06
3.12464e-05
9.53409e-07
-4.44845e-06
2.92887e-05
1.09455e-06
-5.82731e-06
2.67407e-05
1.28542e-06
-7.57307e-06
2.34112e-05
1.45493e-06
-9.69434e-06
1.8936e-05
1.66369e-06
-1.23694e-05
1.3142e-05
1.63069e-06
-1.51227e-05
5.45167e-06
1.60314e-06
-1.78161e-05
-3.98247e-08
-1.3133e-05
6.51164e-05
8.32632e-06
-1.19674e-07
6.47509e-05
7.75096e-06
-5.12464e-07
6.3554e-05
5.73299e-06
-9.65526e-07
6.21296e-05
3.79703e-06
-1.45259e-06
6.07168e-05
2.71418e-06
-2.06357e-06
5.92689e-05
2.1977e-06
-2.85393e-06
5.76572e-05
2.06871e-06
-3.87609e-06
5.57316e-05
2.18383e-06
-5.1839e-06
5.33244e-05
2.4818e-06
-6.85113e-06
5.02252e-05
2.91897e-06
-8.96019e-06
4.61671e-05
3.49258e-06
-1.16376e-05
4.07667e-05
4.12534e-06
-1.49281e-05
3.34972e-05
4.86002e-06
-1.90556e-05
2.37453e-05
5.35127e-06
-2.34323e-05
1.09825e-05
5.60425e-06
-2.7544e-05
2.98587e-06
-2.03612e-05
6.54627e-05
5.45959e-06
-1.35271e-07
6.66824e-05
6.64448e-06
-5.53104e-07
6.67675e-05
5.71165e-06
-1.02507e-06
6.61336e-05
4.41583e-06
-1.52816e-06
6.51595e-05
3.56937e-06
-2.15798e-06
6.39373e-05
3.17192e-06
-2.97346e-06
6.24345e-05
3.16158e-06
-4.02906e-06
6.05449e-05
3.4522e-06
-5.38105e-06
5.81148e-05
4.0055e-06
-7.10562e-06
5.49245e-05
4.79499e-06
-9.29053e-06
5.0678e-05
5.83078e-06
-1.20658e-05
4.49337e-05
7.0519e-06
-1.54879e-05
3.70813e-05
8.5028e-06
-1.97803e-05
2.63893e-05
9.79076e-06
-2.43612e-05
1.22349e-05
1.06533e-05
-2.86489e-05
6.92465e-06
-2.11312e-05
6.42699e-05
3.78731e-06
-1.2102e-07
6.55928e-05
5.43836e-06
-5.27151e-07
6.61569e-05
5.21602e-06
-9.87975e-07
6.6048e-05
4.51551e-06
-1.47879e-06
6.54949e-05
4.01131e-06
-2.09304e-06
6.45862e-05
3.84298e-06
-2.88721e-06
6.33229e-05
4.02909e-06
-3.91331e-06
6.16295e-05
4.54392e-06
-5.2256e-06
5.93707e-05
5.38511e-06
-6.89693e-06
5.63286e-05
6.56021e-06
-9.01419e-06
5.21938e-05
8.10888e-06
-1.17016e-05
4.64863e-05
1.001e-05
-1.50239e-05
3.85312e-05
1.23387e-05
-1.91918e-05
2.75248e-05
1.46515e-05
-2.36672e-05
1.2709e-05
1.64839e-05
-2.78631e-05
1.14268e-05
-2.05447e-05
6.36276e-05
2.7599e-06
-9.49399e-08
6.4793e-05
4.39518e-06
-4.75534e-07
6.54944e-05
4.59067e-06
-9.16026e-07
6.56736e-05
4.33708e-06
-1.38657e-06
6.54273e-05
4.15954e-06
-1.97458e-06
6.48077e-05
4.24284e-06
-2.73204e-06
6.38161e-05
4.6497e-06
-3.70656e-06
6.23915e-05
5.40174e-06
-4.94813e-06
6.04144e-05
6.5328e-06
-6.52298e-06
5.76739e-05
8.09528e-06
-8.5137e-06
5.38554e-05
1.01739e-05
-1.10321e-05
4.84336e-05
1.28303e-05
-1.41507e-05
4.06392e-05
1.62275e-05
-1.80549e-05
2.94502e-05
1.99821e-05
-2.22842e-05
1.37873e-05
2.35449e-05
-2.62461e-05
1.73291e-05
-1.93578e-05
6.33207e-05
2.04254e-06
-6.37203e-08
6.4354e-05
3.49063e-06
-4.1224e-07
6.51165e-05
3.91361e-06
-8.2792e-07
6.54901e-05
3.97642e-06
-1.27417e-06
6.54883e-05
4.07932e-06
-1.83042e-06
6.51313e-05
4.40198e-06
-2.54316e-06
6.44138e-05
5.02656e-06
-3.45465e-06
6.32825e-05
6.00907e-06
-4.60952e-06
6.16295e-05
7.41771e-06
-6.06584e-06
5.92481e-05
9.35955e-06
-7.9005e-06
5.58188e-05
1.19782e-05
-1.02098e-05
5.07643e-05
1.54682e-05
-1.30749e-05
4.32243e-05
2.01323e-05
-1.66469e-05
3.19091e-05
2.58065e-05
-2.05663e-05
1.53191e-05
3.20351e-05
-2.42239e-05
2.51667e-05
-1.79201e-05
6.32039e-05
1.44558e-06
-2.80363e-08
6.41885e-05
2.64255e-06
-3.39672e-07
6.50135e-05
3.18482e-06
-7.26949e-07
6.55424e-05
3.47464e-06
-1.14538e-06
6.57514e-05
3.8072e-06
-1.66488e-06
6.56472e-05
4.3341e-06
-2.3253e-06
6.52286e-05
5.14095e-06
-3.16213e-06
6.44622e-05
6.30427e-06
-4.21238e-06
6.32741e-05
7.91586e-06
-5.52219e-06
6.15022e-05
1.01326e-05
-7.15696e-06
5.88876e-05
1.31508e-05
-9.18714e-06
5.48757e-05
1.73485e-05
-1.1692e-05
4.85987e-05
2.32283e-05
-1.47614e-05
3.81865e-05
3.14109e-05
-1.81568e-05
2.11328e-05
4.20267e-05
-2.12204e-05
3.97348e-05
-1.57079e-05
6.31811e-05
1.00102e-08
8.75409e-07
6.41871e-05
-2.62084e-07
1.78136e-06
6.50989e-05
-6.19004e-07
2.38104e-06
6.57718e-05
-1.00784e-06
2.84418e-06
6.61686e-05
-1.48822e-06
3.36743e-06
6.62947e-05
-2.09301e-06
4.06353e-06
6.6157e-05
-2.85066e-06
5.01305e-06
6.57406e-05
-3.79029e-06
6.30519e-06
6.49993e-05
-4.9461e-06
8.0488e-06
6.38082e-05
-6.3715e-06
1.04471e-05
6.19618e-05
-8.11178e-06
1.37417e-05
5.89399e-05
-1.02429e-05
1.85258e-05
5.39608e-05
-1.27933e-05
2.54791e-05
4.48123e-05
-1.5652e-05
3.64259e-05
2.87235e-05
-1.81292e-05
5.20727e-05
-1.37261e-05
6.26366e-05
5.16887e-05
1.08533e-05
-6.42125e-08
4.44333e-05
7.28635e-06
-2.85076e-07
3.99324e-05
4.48745e-06
-5.30918e-07
3.74585e-05
2.40261e-06
-7.92147e-07
3.58748e-05
1.43672e-06
-1.12673e-06
3.4615e-05
1.01694e-06
-1.56093e-06
3.33588e-05
8.91059e-07
-2.12029e-06
3.19255e-05
9.1036e-07
-2.82807e-06
3.01736e-05
1.02167e-06
-3.71814e-06
2.79759e-05
1.18726e-06
-4.81692e-06
2.51681e-05
1.41277e-06
-6.17798e-06
2.16085e-05
1.63107e-06
-7.76588e-06
1.70079e-05
1.9097e-06
-9.67845e-06
1.13706e-05
1.98429e-06
-1.14697e-05
4.45261e-06
2.06142e-06
-1.29596e-05
5.1004e-07
-9.19041e-06
6.50537e-05
8.33961e-06
-1.59673e-07
6.45753e-05
7.77905e-06
-5.26813e-07
6.32418e-05
5.76967e-06
-9.1418e-07
6.1667e-05
3.84136e-06
-1.31656e-06
6.00878e-05
2.76991e-06
-1.81755e-06
5.84479e-05
2.2701e-06
-2.46721e-06
5.66067e-05
2.16473e-06
-3.30855e-06
5.44025e-05
2.31192e-06
-4.38126e-06
5.16578e-05
2.65335e-06
-5.73811e-06
4.81645e-05
3.14725e-06
-7.42696e-06
4.36691e-05
3.79683e-06
-9.52625e-06
3.78607e-05
4.524e-06
-1.20127e-05
3.03287e-05
5.38327e-06
-1.49973e-05
2.07739e-05
6.01545e-06
-1.79086e-05
9.13714e-06
6.39774e-06
-2.02436e-05
3.67942e-06
-1.43934e-05
6.53991e-05
5.48001e-06
-1.74777e-07
6.65031e-05
6.6867e-06
-5.64766e-07
6.64475e-05
5.76878e-06
-9.6862e-07
6.56585e-05
4.48663e-06
-1.38442e-06
6.45126e-05
3.65889e-06
-1.90103e-06
6.30924e-05
3.28833e-06
-2.57153e-06
6.13529e-05
3.31596e-06
-3.44075e-06
5.91758e-05
3.65827e-06
-4.55031e-06
5.63969e-05
4.28146e-06
-5.95481e-06
5.2798e-05
5.16155e-06
-7.70595e-06
4.8096e-05
6.31709e-06
-9.88403e-06
4.19235e-05
7.68164e-06
-1.24731e-05
3.37902e-05
9.31659e-06
-1.55803e-05
2.32936e-05
1.07829e-05
-1.86321e-05
1.03043e-05
1.1804e-05
-2.10658e-05
7.78229e-06
-1.49298e-05
6.42079e-05
3.81387e-06
-1.62766e-07
6.54175e-05
5.49301e-06
-5.4311e-07
6.58447e-05
5.29111e-06
-9.37463e-07
6.55856e-05
4.60975e-06
-1.34281e-06
6.48666e-05
4.13113e-06
-1.84627e-06
6.37673e-05
3.99928e-06
-2.4989e-06
6.22766e-05
4.23689e-06
-3.34353e-06
6.03073e-05
4.82221e-06
-4.4202e-06
5.77136e-05
5.75916e-06
-5.78094e-06
5.42788e-05
7.05913e-06
-7.47699e-06
4.97051e-05
8.77349e-06
-9.58426e-06
4.35838e-05
1.08728e-05
-1.20937e-05
3.53547e-05
1.34566e-05
-1.51028e-05
2.45357e-05
1.60056e-05
-1.80708e-05
1.08535e-05
1.8055e-05
-2.04318e-05
1.25487e-05
-1.44576e-05
6.35678e-05
2.79156e-06
-1.40444e-07
6.46241e-05
4.46028e-06
-4.99118e-07
6.51947e-05
4.68072e-06
-8.76179e-07
6.52314e-05
4.45085e-06
-1.26437e-06
6.4829e-05
4.30474e-06
-1.74578e-06
6.40311e-05
4.43278e-06
-2.3677e-06
6.28279e-05
4.90295e-06
-3.16941e-06
6.11475e-05
5.74217e-06
-4.18768e-06
5.88606e-05
6.99255e-06
-5.4695e-06
5.57572e-05
8.71231e-06
-7.0634e-06
5.15329e-05
1.10021e-05
-9.03644e-06
4.57272e-05
1.39151e-05
-1.13874e-05
3.76755e-05
1.76498e-05
-1.41963e-05
2.66587e-05
2.17218e-05
-1.69835e-05
1.20522e-05
2.55992e-05
-1.91838e-05
1.87997e-05
-1.35567e-05
6.32634e-05
2.07818e-06
-1.1374e-07
6.41928e-05
3.56372e-06
-4.4512e-07
6.48317e-05
4.01501e-06
-8.01104e-07
6.50722e-05
4.10503e-06
-1.16877e-06
6.4926e-05
4.24396e-06
-1.62349e-06
6.44056e-05
4.61797e-06
-2.20798e-06
6.34957e-05
5.3155e-06
-2.95723e-06
6.21329e-05
6.39925e-06
-3.90386e-06
6.02005e-05
7.94774e-06
-5.08863e-06
5.74921e-05
1.00767e-05
-6.55646e-06
5.36972e-05
1.29504e-05
-8.36315e-06
4.82961e-05
1.67583e-05
-1.0517e-05
4.05217e-05
2.18516e-05
-1.30742e-05
2.93651e-05
2.7947e-05
-1.5635e-05
1.37343e-05
3.4636e-05
-1.76299e-05
2.7081e-05
-1.24672e-05
6.31497e-05
1.48373e-06
-8.32649e-08
6.40363e-05
2.72063e-06
-3.83249e-07
6.47463e-05
3.29329e-06
-7.15143e-07
6.51528e-05
3.61247e-06
-1.05936e-06
6.52312e-05
3.9839e-06
-1.48326e-06
6.49818e-05
4.56622e-06
-2.02414e-06
6.43948e-05
5.45192e-06
-2.71158e-06
6.34289e-05
6.72528e-06
-3.57251e-06
6.20037e-05
8.48967e-06
-4.63888e-06
5.99585e-05
1.09134e-05
-5.94838e-06
5.70442e-05
1.42167e-05
-7.53919e-06
5.27554e-05
1.87792e-05
-9.42404e-06
4.6303e-05
2.51628e-05
-1.16202e-05
3.6052e-05
3.38685e-05
-1.38272e-05
1.98139e-05
4.51119e-05
-1.54582e-05
4.21057e-05
-1.09186e-05
6.31301e-05
-5.08242e-08
9.14473e-07
6.40446e-05
-3.17154e-07
1.86114e-06
6.48503e-05
-6.23306e-07
2.49194e-06
6.54123e-05
-9.42566e-07
2.98523e-06
6.56932e-05
-1.33364e-06
3.54839e-06
6.56931e-05
-1.82808e-06
4.30141e-06
6.54121e-05
-2.44984e-06
5.33205e-06
6.48291e-05
-3.2199e-06
6.73791e-06
6.38939e-05
-4.16126e-06
8.64003e-06
6.24841e-05
-5.30392e-06
1.12556e-05
6.04058e-05
-6.66859e-06
1.48518e-05
5.71806e-05
-8.27165e-06
2.00331e-05
5.20974e-05
-1.00913e-05
2.7544e-05
4.31342e-05
-1.19331e-05
3.91127e-05
2.77555e-05
-1.32096e-05
5.5571e-05
-9.51315e-06
6.56481e-05
5.16533e-05
1.08574e-05
-7.49419e-08
4.43329e-05
7.29683e-06
-2.61413e-07
3.9756e-05
4.49998e-06
-4.5408e-07
3.72005e-05
2.4169e-06
-6.53559e-07
3.5527e-05
1.45456e-06
-9.07719e-07
3.41638e-05
1.04014e-06
-1.23786e-06
3.27844e-05
9.2176e-07
-1.6627e-06
3.12026e-05
9.50981e-07
-2.19722e-06
2.92723e-05
1.07536e-06
-2.86317e-06
2.68693e-05
1.2577e-06
-3.67171e-06
2.38399e-05
1.50506e-06
-4.65362e-06
2.00857e-05
1.75157e-06
-5.76323e-06
1.53948e-05
2.06647e-06
-7.05397e-06
9.92456e-06
2.19399e-06
-8.19351e-06
3.67877e-06
2.30818e-06
-9.02199e-06
7.75698e-07
-6.28732e-06
6.50036e-05
8.35094e-06
-1.56808e-07
6.4434e-05
7.80293e-06
-4.63313e-07
6.29878e-05
5.80087e-06
-7.68881e-07
6.12874e-05
3.87905e-06
-1.0783e-06
5.95679e-05
2.81714e-06
-1.46069e-06
5.77661e-05
2.33119e-06
-1.95644e-06
5.57318e-05
2.24532e-06
-2.59779e-06
5.32943e-05
2.41871e-06
-3.41149e-06
5.02686e-05
2.79505e-06
-4.43211e-06
4.64497e-05
3.33355e-06
-5.68392e-06
4.15992e-05
4.04109e-06
-7.21175e-06
3.54714e-05
4.83739e-06
-8.97072e-06
2.77707e-05
5.78347e-06
-1.10135e-05
1.8454e-05
6.50638e-06
-1.29043e-05
7.79741e-06
6.96034e-06
-1.42392e-05
4.13153e-06
-9.95178e-06
6.53483e-05
5.49749e-06
-1.69664e-07
6.63588e-05
6.72271e-06
-4.94985e-07
6.61873e-05
5.81747e-06
-8.13772e-07
6.52687e-05
4.54689e-06
-1.13363e-06
6.3978e-05
3.7349e-06
-1.52807e-06
6.23907e-05
3.38687e-06
-2.0399e-06
6.04519e-05
3.44619e-06
-2.7028e-06
5.80338e-05
3.8314e-06
-3.54497e-06
5.49642e-05
4.51212e-06
-4.60223e-06
5.10272e-05
5.46602e-06
-5.90148e-06
4.5955e-05
6.71769e-06
-7.48841e-06
3.94467e-05
8.19515e-06
-9.32255e-06
3.1131e-05
9.97125e-06
-1.14523e-05
2.08747e-05
1.15688e-05
-1.34382e-05
8.90114e-06
1.26984e-05
-1.48303e-05
8.43253e-06
-1.03296e-05
6.41584e-05
3.83661e-06
-1.60322e-07
6.52766e-05
5.53966e-06
-4.78232e-07
6.55911e-05
5.35511e-06
-7.89562e-07
6.52064e-05
4.68997e-06
-1.10121e-06
6.43475e-05
4.2329e-06
-1.48542e-06
6.30872e-05
4.13169e-06
-1.98341e-06
6.14048e-05
4.41244e-06
-2.62737e-06
5.92038e-05
5.05657e-06
-3.44436e-06
5.63303e-05
6.07306e-06
-4.46837e-06
5.25693e-05
7.47608e-06
-5.72609e-06
4.7637e-05
9.326e-06
-7.2602e-06
4.11883e-05
1.15857e-05
-9.0355e-06
3.27779e-05
1.43726e-05
-1.10938e-05
2.21889e-05
1.71064e-05
-1.30194e-05
9.49734e-06
1.93193e-05
-1.43611e-05
1.34565e-05
-9.98418e-06
6.35202e-05
2.81864e-06
-1.42723e-07
6.44886e-05
4.51583e-06
-4.43648e-07
6.49515e-05
4.75745e-06
-7.41422e-07
6.48691e-05
4.54764e-06
-1.03968e-06
6.4335e-05
4.42803e-06
-1.40678e-06
6.33864e-05
4.59369e-06
-1.88106e-06
6.20045e-05
5.11699e-06
-2.49206e-06
6.01087e-05
6.02914e-06
-3.2645e-06
5.75621e-05
7.37904e-06
-4.22886e-06
5.41557e-05
9.22938e-06
-5.41028e-06
4.95973e-05
1.16935e-05
-6.84554e-06
4.3485e-05
1.48168e-05
-8.50619e-06
3.52597e-05
1.88243e-05
-1.04228e-05
2.44555e-05
2.31507e-05
-1.22236e-05
1.07791e-05
2.72734e-05
-1.34615e-05
2.00229e-05
-9.34398e-06
6.3218e-05
2.10861e-06
-1.21688e-07
6.40638e-05
3.62603e-06
-4.01177e-07
6.46013e-05
4.10136e-06
-6.82431e-07
6.47304e-05
4.21438e-06
-9.64688e-07
6.44624e-05
4.38369e-06
-1.31108e-06
6.38037e-05
4.80089e-06
-1.75647e-06
6.2731e-05
5.55965e-06
-2.32718e-06
6.11731e-05
6.72818e-06
-3.04501e-06
5.9006e-05
8.39348e-06
-3.93602e-06
5.60241e-05
1.06781e-05
-5.02327e-06
5.19272e-05
1.37631e-05
-6.33596e-06
4.6248e-05
1.78329e-05
-7.85385e-06
3.83148e-05
2.32754e-05
-9.59204e-06
2.73541e-05
2.97125e-05
-1.12362e-05
1.25739e-05
3.67653e-05
-1.23416e-05
2.86965e-05
-8.5668e-06
6.31068e-05
1.51626e-06
-9.77007e-08
6.3915e-05
2.78713e-06
-3.52526e-07
6.45305e-05
3.38558e-06
-6.14926e-07
6.48349e-05
3.72959e-06
-8.78942e-07
6.4803e-05
4.13381e-06
-1.2015e-06
6.44303e-05
4.76276e-06
-1.61333e-06
6.37005e-05
5.71472e-06
-2.13683e-06
6.25657e-05
7.08033e-06
-2.78984e-06
6.094e-05
8.97264e-06
-3.5924e-06
5.86641e-05
1.15691e-05
-4.56336e-06
5.5499e-05
1.51097e-05
-5.72062e-06
5.09833e-05
1.99745e-05
-7.04992e-06
4.44101e-05
2.67708e-05
-8.54239e-06
3.43462e-05
3.5904e-05
-9.95486e-06
1.88436e-05
4.76504e-05
-1.08407e-05
4.41388e-05
-7.51733e-06
6.30899e-05
-7.21943e-08
9.47732e-07
6.39314e-05
-3.00585e-07
1.92904e-06
6.46503e-05
-5.42838e-07
2.58623e-06
6.51198e-05
-7.87437e-07
3.10501e-06
6.53027e-05
-1.08458e-06
3.70183e-06
6.51953e-05
-1.46066e-06
4.50275e-06
6.47925e-05
-1.93393e-06
5.60155e-06
6.40683e-05
-2.51807e-06
7.10272e-06
6.29691e-05
-3.22694e-06
9.13758e-06
6.13745e-05
-4.07481e-06
1.19345e-05
5.91019e-05
-5.06817e-06
1.57819e-05
5.57105e-05
-6.19812e-06
2.12924e-05
5.05609e-05
-7.43172e-06
2.92609e-05
4.17956e-05
-8.60173e-06
4.13379e-05
2.70595e-05
-9.27401e-06
5.84509e-05
-6.55023e-06
6.82354e-05
5.1627e-05
1.08606e-05
-6.25823e-08
4.42577e-05
7.30504e-06
-1.97095e-07
3.96232e-05
4.50979e-06
-3.29423e-07
3.70058e-05
2.42817e-06
-4.64302e-07
3.52647e-05
1.46863e-06
-6.35259e-07
3.38258e-05
1.05851e-06
-8.5742e-07
3.23599e-05
9.46207e-07
-1.14301e-06
3.06799e-05
9.83644e-07
-1.50085e-06
2.86413e-05
1.11914e-06
-1.94377e-06
2.61284e-05
1.31637e-06
-2.47518e-06
2.3002e-05
1.58392e-06
-3.11116e-06
1.91939e-05
1.85765e-06
-3.8128e-06
1.45374e-05
2.2087e-06
-4.60613e-06
9.23104e-06
2.38546e-06
-5.27261e-06
3.36584e-06
2.54164e-06
-5.69843e-06
1.00676e-06
-3.92823e-06
6.49661e-05
8.35987e-06
-1.22212e-07
6.43277e-05
7.8217e-06
-3.41505e-07
6.27957e-05
5.82536e-06
-5.52528e-07
6.09996e-05
3.90866e-06
-7.62608e-07
5.9174e-05
2.85418e-06
-1.0207e-06
5.72521e-05
2.37905e-06
-1.35511e-06
5.50795e-05
2.30834e-06
-1.78724e-06
5.24829e-05
2.50215e-06
-2.33344e-06
4.92785e-05
2.90571e-06
-3.01429e-06
4.52722e-05
3.47915e-06
-3.84037e-06
4.02468e-05
4.23222e-06
-4.83469e-06
3.4005e-05
5.08349e-06
-5.95475e-06
2.63225e-05
6.09881e-06
-7.22104e-06
1.72517e-05
6.8947e-06
-8.34279e-06
7.18958e-06
7.40951e-06
-9.04492e-06
4.49164e-06
-6.24707e-06
6.53104e-05
5.51125e-06
-1.31413e-07
6.62502e-05
6.75103e-06
-3.64114e-07
6.59905e-05
5.85571e-06
-5.84457e-07
6.4973e-05
4.59417e-06
-8.01653e-07
6.35727e-05
3.79439e-06
-1.06797e-06
6.18614e-05
3.46378e-06
-1.41332e-06
5.97796e-05
3.54746e-06
-1.86015e-06
5.71971e-05
3.96544e-06
-2.42573e-06
5.39423e-05
4.68978e-06
-3.13146e-06
4.98103e-05
5.69916e-06
-3.98952e-06
4.45551e-05
7.02229e-06
-5.02325e-06
3.79256e-05
8.58288e-06
-6.19252e-06
2.9625e-05
1.04616e-05
-7.51439e-06
1.96219e-05
1.21541e-05
-8.69454e-06
8.26689e-06
1.33616e-05
-9.42735e-06
8.91685e-06
-6.48793e-06
6.41215e-05
3.85452e-06
-1.25085e-07
6.51707e-05
5.57635e-06
-3.52712e-07
6.53994e-05
5.40538e-06
-5.67933e-07
6.49189e-05
4.75286e-06
-7.79459e-07
6.39543e-05
4.31244e-06
-1.03879e-06
6.25746e-05
4.23478e-06
-1.37471e-06
6.07549e-05
4.54844e-06
-1.8087e-06
5.83963e-05
5.237e-06
-2.35729e-06
5.53456e-05
6.31282e-06
-3.04072e-06
5.13983e-05
7.79145e-06
-3.87109e-06
4.62913e-05
9.73894e-06
-4.86991e-06
3.97279e-05
1.21114e-05
-6.00056e-06
3.13341e-05
1.50376e-05
-7.27607e-06
2.09914e-05
1.78947e-05
-8.41733e-06
8.899e-06
2.02113e-05
-9.11842e-06
1.40938e-05
-6.26215e-06
6.34848e-05
2.83996e-06
-1.12923e-07
6.43868e-05
4.5595e-06
-3.28878e-07
6.47679e-05
4.81768e-06
-5.34797e-07
6.45948e-05
4.62345e-06
-7.37158e-07
6.3961e-05
4.52428e-06
-9.84828e-07
6.29006e-05
4.71875e-06
-1.30463e-06
6.1391e-05
5.28235e-06
-1.71632e-06
5.93492e-05
6.24915e-06
-2.23494e-06
5.66393e-05
7.67238e-06
-2.8785e-06
5.3062e-05
9.61682e-06
-3.65833e-06
4.83446e-05
1.22032e-05
-4.59241e-06
4.21295e-05
1.54692e-05
-5.64896e-06
3.39237e-05
1.96551e-05
-6.83444e-06
2.33525e-05
2.41401e-05
-7.89782e-06
1.02352e-05
2.84045e-05
-8.53754e-06
2.08379e-05
-5.85276e-06
6.31842e-05
2.13254e-06
-9.84304e-08
6.39671e-05
3.67498e-06
-2.99629e-07
6.44275e-05
4.16909e-06
-4.94183e-07
6.44719e-05
4.29995e-06
-6.85587e-07
6.41116e-05
4.49265e-06
-9.19138e-07
6.33503e-05
4.94281e-06
-1.21931e-06
6.21614e-05
5.7478e-06
-1.60372e-06
6.04718e-05
6.97935e-06
-2.08554e-06
5.81584e-05
8.72978e-06
-2.68003e-06
5.50245e-05
1.11248e-05
-3.39736e-06
5.07879e-05
1.43548e-05
-4.25097e-06
4.50216e-05
1.85966e-05
-5.21494e-06
3.7113e-05
2.42584e-05
-6.2867e-06
2.63716e-05
3.08971e-05
-7.25176e-06
1.21004e-05
3.81467e-05
-7.81268e-06
2.97239e-05
-5.35242e-06
6.30749e-05
1.54181e-06
-8.18935e-08
6.38241e-05
2.83935e-06
-2.66115e-07
6.43681e-05
3.45794e-06
-4.47724e-07
6.45946e-05
3.82118e-06
-6.26666e-07
6.44791e-05
4.2506e-06
-8.43993e-07
6.4015e-05
4.91507e-06
-1.12142e-06
6.3183e-05
5.91691e-06
-1.474e-06
6.19342e-05
7.35074e-06
-1.91244e-06
6.01843e-05
9.33555e-06
-2.44826e-06
5.77823e-05
1.20529e-05
-3.08944e-06
5.45057e-05
1.57536e-05
-3.84285e-06
4.99281e-05
2.08119e-05
-4.68765e-06
4.33933e-05
2.78587e-05
-5.60792e-06
3.35371e-05
3.72327e-05
-6.43424e-06
1.84788e-05
4.92367e-05
-6.8724e-06
4.5389e-05
-4.7036e-06
6.30601e-05
-6.43266e-08
9.73833e-07
6.38469e-05
-2.30349e-07
1.9823e-06
6.45e-05
-3.98123e-07
2.6601e-06
6.48989e-05
-5.63792e-07
3.19863e-06
6.50075e-05
-7.63816e-07
3.8213e-06
6.48202e-05
-1.01699e-06
4.65864e-06
6.43303e-05
-1.33565e-06
5.8086e-06
6.35108e-05
-1.72788e-06
7.37997e-06
6.23106e-05
-2.20136e-06
9.51019e-06
6.06175e-05
-2.76154e-06
1.24328e-05
5.82644e-05
-3.4086e-06
1.64472e-05
5.4841e-05
-4.12636e-06
2.21635e-05
4.9752e-05
-4.8855e-06
3.04015e-05
4.11935e-05
-5.56468e-06
4.27541e-05
2.68486e-05
-5.88333e-06
6.0191e-05