/*--------------------------------*- C++ -*----------------------------------*\
| =========                 |                                                 |
| \\      /  F ield         | OpenFOAM: The Open Source CFD Toolbox           |
|  \\    /   O peration     | Version:  v1912                                 |
|   \\  /    A nd           | Website:  www.openfoam.com                      |
|    \\/     M anipulation  |                                                 |
\*---------------------------------------------------------------------------*/
FoamFile
{
    version     2.0;
    format      ascii;
    class       volScalarField;
    location    "0.25/fluid";
    object      T;
}
// * * * * * * * * * * * * * * * * * * * * * * * * * * * * * * * * * * * * * //

dimensions      [0 0 0 1 0 0 0];


internalField   nonuniform List<scalar> 
14592
(
273.096
273.297
273.522
273.787
274.106
274.496
274.978
275.57
276.297
277.182
278.253
279.538
281.074
282.909
285.133
287.964
273.095
273.294
273.517
273.779
274.094
274.481
274.958
275.545
276.265
277.143
278.206
279.484
281.015
282.849
285.076
287.907
273.093
273.288
273.507
273.764
274.074
274.454
274.922
275.498
276.206
277.07
278.119
279.383
280.903
282.735
284.971
287.831
273.091
273.281
273.495
273.745
274.046
274.416
274.871
275.432
276.122
276.965
277.991
279.232
280.734
282.556
284.805
287.715
273.088
273.272
273.478
273.72
274.011
274.367
274.806
275.348
276.013
276.828
277.82
279.027
280.496
282.298
284.554
287.531
273.085
273.261
273.459
273.691
273.97
274.31
274.73
275.246
275.881
276.658
277.607
278.763
280.179
281.935
284.177
287.228
273.081
273.249
273.438
273.658
273.923
274.246
274.642
275.13
275.728
276.46
277.352
278.439
279.773
281.439
283.606
286.689
273.077
273.236
273.415
273.623
273.872
274.176
274.547
275.003
275.56
276.239
277.062
278.061
279.279
280.789
282.751
285.618
273.101
273.313
273.551
273.831
274.17
274.586
275.099
275.733
276.512
277.464
278.618
280.007
281.672
283.664
286.061
289
273.1
273.31
273.546
273.823
274.158
274.569
275.078
275.706
276.478
277.422
278.568
279.951
281.612
283.604
286.007
288.953
273.098
273.304
273.536
273.808
274.137
274.541
275.04
275.656
276.416
277.345
278.477
279.846
281.496
283.487
285.905
288.886
273.096
273.297
273.522
273.787
274.107
274.5
274.986
275.587
276.327
277.234
278.342
279.687
281.32
283.306
285.743
288.782
273.093
273.287
273.505
273.761
274.07
274.449
274.917
275.497
276.211
277.088
278.161
279.471
281.071
283.04
285.493
288.614
273.089
273.276
273.485
273.73
274.026
274.388
274.836
275.389
276.07
276.908
277.934
279.191
280.737
282.661
285.111
288.328
273.085
273.263
273.462
273.695
273.976
274.319
274.743
275.265
275.908
276.696
277.662
278.845
280.304
282.136
284.517
287.795
273.081
273.249
273.438
273.658
273.922
274.245
274.642
275.129
275.727
276.459
277.351
278.438
279.772
281.437
283.605
286.688
273.106
273.328
273.578
273.873
274.229
274.667
275.21
275.88
276.705
277.713
278.934
280.403
282.155
284.229
286.669
289.511
273.105
273.325
273.572
273.864
274.216
274.65
275.187
275.851
276.669
277.669
278.883
280.345
282.093
284.168
286.615
289.468
273.103
273.319
273.562
273.848
274.194
274.62
275.147
275.8
276.604
277.589
278.787
280.235
281.974
284.051
286.515
289.405
273.1
273.311
273.547
273.826
274.163
274.578
275.091
275.726
276.51
277.472
278.646
280.071
281.792
283.866
286.353
289.305
273.097
273.301
273.529
273.798
274.124
274.524
275.019
275.632
276.389
277.319
278.457
279.845
281.535
283.593
286.103
289.141
273.093
273.289
273.508
273.766
274.077
274.46
274.933
275.518
276.241
277.129
278.219
279.552
281.187
283.204
285.715
288.859
273.089
273.275
273.484
273.729
274.025
274.387
274.835
275.387
276.069
276.906
277.932
279.189
280.735
282.659
285.109
288.327
273.084
273.261
273.459
273.69
273.969
274.309
274.728
275.244
275.879
276.656
277.604
278.76
280.176
281.931
284.174
287.226
273.11
273.342
273.602
273.909
274.281
274.739
275.306
276.007
276.869
277.922
279.196
280.72
282.525
284.633
287.059
289.786
273.109
273.338
273.596
273.9
274.268
274.721
275.283
275.977
276.832
277.877
279.143
280.661
282.461
284.572
287.006
289.745
273.107
273.332
273.585
273.883
274.245
274.69
275.241
275.924
276.765
277.794
279.044
280.548
282.34
284.453
286.906
289.683
273.105
273.323
273.57
273.86
274.212
274.646
275.182
275.847
276.667
277.673
278.898
280.378
282.154
284.265
286.744
289.584
273.101
273.313
273.551
273.832
274.171
274.589
275.107
275.749
276.541
277.514
278.702
280.145
281.89
283.988
286.491
289.421
273.097
273.3
273.529
273.798
274.123
274.523
275.017
275.63
276.387
277.317
278.455
279.842
281.532
283.591
286.101
289.14
273.093
273.287
273.504
273.76
274.068
274.447
274.915
275.494
276.208
277.084
278.157
279.466
281.066
283.035
285.49
288.612
273.088
273.272
273.478
273.719
274.009
274.365
274.804
275.344
276.009
276.823
277.815
279.021
280.49
282.292
284.549
287.528
273.114
273.353
273.622
273.939
274.324
274.799
275.386
276.111
277.003
278.09
279.4
280.962
282.795
284.914
287.31
289.946
273.113
273.349
273.616
273.93
274.311
274.78
275.362
276.081
276.965
278.043
279.346
280.901
282.731
284.852
287.257
289.906
273.111
273.343
273.604
273.913
274.287
274.748
275.319
276.025
276.895
277.958
279.245
280.786
282.608
284.732
287.156
289.844
273.108
273.334
273.589
273.889
274.253
274.702
275.258
275.946
276.795
277.834
279.095
280.612
282.419
284.542
286.993
289.745
273.104
273.323
273.569
273.859
274.211
274.644
275.18
275.845
276.664
277.67
278.894
280.374
282.15
284.261
286.74
289.582
273.1
273.31
273.547
273.824
274.161
274.575
275.087
275.722
276.505
277.467
278.64
280.064
281.785
283.859
286.347
289.301
273.096
273.296
273.521
273.785
274.104
274.497
274.982
275.581
276.32
277.227
278.333
279.678
281.311
283.297
285.735
288.778
273.091
273.28
273.493
273.743
274.043
274.412
274.866
275.426
276.115
276.957
277.981
279.222
280.723
282.546
284.796
287.709
273.117
273.361
273.638
273.963
274.358
274.844
275.446
276.19
277.103
278.214
279.55
281.134
282.983
285.101
287.469
290.041
273.115
273.358
273.631
273.953
274.344
274.826
275.422
276.159
277.065
278.167
279.495
281.073
282.919
285.039
287.416
290.001
273.113
273.351
273.619
273.936
274.319
274.792
275.378
276.102
276.993
278.08
279.392
280.956
282.794
284.918
287.315
289.939
273.111
273.342
273.604
273.911
274.285
274.745
275.316
276.022
276.891
277.953
279.239
280.78
282.602
284.726
287.151
289.84
273.107
273.331
273.584
273.881
274.242
274.686
275.236
275.918
276.757
277.786
279.035
280.538
282.33
284.443
286.897
289.677
273.103
273.318
273.56
273.845
274.19
274.615
275.141
275.792
276.595
277.578
278.775
280.223
281.961
284.038
286.503
289.397
273.098
273.303
273.534
273.805
274.132
274.535
275.033
275.648
276.405
277.333
278.463
279.831
281.481
283.473
285.891
288.877
273.093
273.287
273.505
273.761
274.07
274.448
274.914
275.489
276.195
277.058
278.104
279.368
280.887
282.719
284.956
287.82
273.119
273.367
273.648
273.979
274.381
274.875
275.487
276.243
277.17
278.297
279.648
281.245
283.101
285.215
287.563
290.095
273.117
273.364
273.641
273.969
274.366
274.856
275.463
276.212
277.131
278.249
279.592
281.183
283.036
285.153
287.51
290.055
273.115
273.357
273.63
273.951
274.341
274.822
275.418
276.154
277.059
278.161
279.488
281.065
282.911
285.031
287.408
289.993
273.112
273.348
273.613
273.927
274.307
274.775
275.355
276.072
276.955
278.032
279.333
280.887
282.718
284.838
287.244
289.894
273.109
273.337
273.593
273.896
274.263
274.714
275.274
275.967
276.82
277.862
279.126
280.643
282.443
284.554
286.989
289.731
273.104
273.323
273.569
273.859
274.21
274.642
275.177
275.839
276.654
277.652
278.864
280.325
282.072
284.147
286.595
289.452
273.1
273.308
273.543
273.818
274.151
274.561
275.067
275.692
276.462
277.404
278.548
279.929
281.589
283.581
285.985
288.934
273.094
273.292
273.514
273.774
274.088
274.472
274.947
275.531
276.249
277.124
278.185
279.462
280.992
282.825
285.052
287.885
273.12
273.37
273.653
273.987
274.392
274.891
275.508
276.27
277.204
278.337
279.696
281.299
283.158
285.269
287.606
290.12
273.118
273.367
273.647
273.977
274.378
274.872
275.483
276.238
277.164
278.289
279.64
281.237
283.093
285.207
287.554
290.08
273.116
273.36
273.635
273.959
274.353
274.838
275.438
276.18
277.092
278.201
279.535
281.118
282.967
285.085
287.452
290.018
273.113
273.351
273.619
273.934
274.317
274.79
275.374
276.097
276.987
278.071
279.38
280.94
282.773
284.892
287.287
289.919
273.11
273.339
273.598
273.903
274.273
274.729
275.293
275.991
276.851
277.901
279.171
280.694
282.498
284.607
287.032
289.756
273.105
273.326
273.574
273.866
274.22
274.656
275.195
275.863
276.684
277.689
278.908
280.375
282.125
284.199
286.638
289.477
273.1
273.311
273.547
273.825
274.161
274.574
275.084
275.715
276.491
277.439
278.59
279.977
281.641
283.632
286.028
288.961
273.095
273.294
273.518
273.78
274.097
274.485
274.963
275.553
276.276
277.158
278.225
279.508
281.042
282.876
285.097
287.916
273.065
273.201
273.35
273.521
273.721
273.957
274.235
274.562
274.941
275.372
275.852
276.37
276.91
277.446
277.947
278.374
273.065
273.199
273.347
273.516
273.714
273.947
274.223
274.547
274.922
275.349
275.824
276.338
276.873
277.405
277.902
278.326
273.063
273.195
273.341
273.507
273.701
273.931
274.201
274.519
274.887
275.306
275.773
276.277
276.803
277.326
277.815
278.233
273.062
273.191
273.333
273.495
273.684
273.907
274.17
274.479
274.837
275.245
275.699
276.19
276.701
277.211
277.687
278.095
273.06
273.185
273.322
273.479
273.662
273.877
274.131
274.429
274.774
275.167
275.604
276.077
276.57
277.061
277.521
277.915
273.058
273.178
273.31
273.461
273.636
273.842
274.085
274.37
274.699
275.074
275.49
275.941
276.411
276.879
277.317
277.693
273.055
273.17
273.296
273.44
273.607
273.803
274.033
274.303
274.614
274.968
275.362
275.786
276.228
276.669
277.081
277.434
273.053
273.162
273.282
273.418
273.576
273.761
273.978
274.231
274.523
274.854
275.222
275.617
276.029
276.438
276.82
277.147
273.066
273.204
273.356
273.53
273.734
273.975
274.261
274.597
274.989
275.436
275.937
276.481
277.051
277.622
278.159
278.621
273.066
273.202
273.353
273.525
273.727
273.965
274.248
274.581
274.969
275.412
275.908
276.447
277.012
277.579
278.112
278.571
273.064
273.198
273.346
273.516
273.714
273.948
274.226
274.553
274.933
275.368
275.855
276.384
276.94
277.498
278.023
278.475
273.063
273.194
273.338
273.503
273.696
273.924
274.194
274.512
274.882
275.305
275.778
276.294
276.835
277.379
277.891
278.334
273.061
273.188
273.327
273.487
273.673
273.893
274.154
274.461
274.817
275.224
275.681
276.177
276.699
277.223
277.718
278.146
273.059
273.18
273.315
273.468
273.647
273.858
274.107
274.4
274.74
275.129
275.563
276.036
276.534
277.033
277.505
277.913
273.056
273.173
273.301
273.447
273.617
273.818
274.054
274.331
274.653
275.02
275.43
275.875
276.343
276.813
277.257
277.64
273.053
273.164
273.286
273.425
273.586
273.775
273.997
274.257
274.559
274.902
275.284
275.699
276.134
276.569
276.98
277.335
273.068
273.21
273.368
273.549
273.761
274.013
274.313
274.668
275.085
275.565
276.106
276.701
277.334
277.976
278.59
279.124
273.068
273.208
273.364
273.543
273.753
274.003
274.3
274.652
275.064
275.539
276.075
276.665
277.293
277.931
278.54
279.072
273.066
273.205
273.358
273.533
273.739
273.984
274.276
274.621
275.026
275.492
276.019
276.599
277.216
277.844
278.446
278.971
273.065
273.2
273.349
273.52
273.721
273.959
274.243
274.579
274.972
275.426
275.939
276.503
277.105
277.718
278.306
278.821
273.063
273.193
273.338
273.503
273.697
273.927
274.201
274.525
274.904
275.341
275.835
276.379
276.959
277.552
278.121
278.619
273.06
273.186
273.325
273.484
273.67
273.89
274.152
274.461
274.823
275.239
275.71
276.229
276.782
277.346
277.889
278.366
273.058
273.178
273.311
273.462
273.639
273.848
274.096
274.389
274.731
275.124
275.567
276.055
276.575
277.106
277.616
278.064
273.055
273.169
273.295
273.439
273.606
273.803
274.036
274.311
274.631
274.998
275.412
275.865
276.347
276.837
277.307
277.72
273.071
273.22
273.385
273.575
273.8
274.068
274.389
274.772
275.225
275.752
276.354
277.025
277.752
278.505
279.241
279.894
273.071
273.218
273.381
273.57
273.792
274.057
274.375
274.754
275.203
275.724
276.321
276.987
277.708
278.457
279.188
279.84
273.069
273.214
273.375
273.559
273.777
274.038
274.35
274.722
275.162
275.674
276.261
276.916
277.626
278.364
279.088
279.733
273.068
273.209
273.365
273.545
273.758
274.011
274.315
274.677
275.105
275.603
276.174
276.812
277.505
278.228
278.938
279.573
273.066
273.202
273.354
273.528
273.733
273.977
274.27
274.619
275.031
275.512
276.062
276.678
277.347
278.046
278.735
279.353
273.063
273.195
273.34
273.507
273.703
273.938
274.217
274.551
274.944
275.402
275.926
276.513
277.151
277.819
278.477
279.07
273.06
273.186
273.325
273.484
273.671
273.893
274.158
274.473
274.845
275.277
275.77
276.322
276.921
277.548
278.166
278.723
273.057
273.177
273.309
273.459
273.636
273.845
274.094
274.39
274.737
275.14
275.599
276.11
276.664
277.241
277.808
278.317
273.075
273.233
273.408
273.61
273.85
274.138
274.486
274.904
275.403
275.99
276.67
277.441
278.293
279.2
280.113
280.949
273.075
273.23
273.403
273.604
273.841
274.126
274.471
274.885
275.379
275.96
276.634
277.4
278.246
279.148
280.058
280.892
273.073
273.226
273.396
273.593
273.826
274.106
274.444
274.85
275.335
275.906
276.569
277.322
278.158
279.05
279.951
280.781
273.071
273.221
273.386
273.578
273.805
274.077
274.406
274.801
275.273
275.829
276.475
277.21
278.027
278.902
279.79
280.61
273.069
273.214
273.374
273.559
273.778
274.041
274.358
274.739
275.193
275.729
276.352
277.062
277.852
278.702
279.567
280.371
273.067
273.205
273.359
273.537
273.747
273.998
274.301
274.665
275.098
275.609
276.203
276.88
277.634
278.447
279.277
280.053
273.064
273.196
273.343
273.512
273.712
273.951
274.237
274.581
274.99
275.471
276.03
276.666
277.374
278.136
278.916
279.646
273.06
273.186
273.326
273.486
273.674
273.899
274.168
274.49
274.872
275.32
275.838
276.426
277.078
277.776
278.488
279.152
273.08
273.247
273.434
273.65
273.908
274.22
274.599
275.058
275.61
276.267
277.038
277.93
278.937
280.042
281.197
282.305
273.079
273.245
273.429
273.643
273.899
274.207
274.582
275.037
275.584
276.235
277
277.885
278.886
279.987
281.14
282.248
273.078
273.24
273.421
273.632
273.882
274.185
274.553
274.999
275.536
276.176
276.929
277.801
278.791
279.882
281.029
282.136
273.076
273.234
273.411
273.616
273.86
274.154
274.512
274.946
275.469
276.092
276.827
277.679
278.649
279.723
280.859
281.96
273.073
273.227
273.397
273.595
273.831
274.115
274.461
274.879
275.382
275.983
276.692
277.516
278.457
279.504
280.618
281.706
273.071
273.218
273.382
273.572
273.797
274.069
274.399
274.798
275.279
275.851
276.527
277.314
278.213
279.218
280.293
281.353
273.067
273.208
273.365
273.545
273.76
274.018
274.33
274.707
275.16
275.699
276.335
277.073
277.917
278.86
279.872
280.876
273.064
273.198
273.346
273.517
273.719
273.962
274.255
274.608
275.03
275.532
276.12
276.801
277.575
278.435
279.353
280.26
273.085
273.263
273.462
273.694
273.972
274.31
274.722
275.225
275.835
276.569
277.441
278.465
279.649
280.991
282.464
283.976
273.084
273.26
273.457
273.687
273.962
274.296
274.705
275.203
275.807
276.534
277.399
278.417
279.595
280.934
282.407
283.921
273.083
273.256
273.449
273.674
273.944
274.272
274.673
275.162
275.756
276.471
277.323
278.327
279.494
280.824
282.295
283.813
273.081
273.249
273.438
273.657
273.92
274.239
274.629
275.105
275.683
276.379
277.211
278.194
279.341
280.656
282.12
283.643
273.078
273.241
273.424
273.636
273.889
274.197
274.573
275.032
275.589
276.261
277.065
278.017
279.132
280.42
281.866
283.388
273.075
273.232
273.407
273.61
273.853
274.147
274.506
274.944
275.476
276.116
276.883
277.793
278.862
280.103
281.511
283.015
273.072
273.221
273.388
273.582
273.812
274.091
274.431
274.845
275.346
275.949
276.669
277.523
278.527
279.695
281.027
282.47
273.068
273.21
273.368
273.551
273.769
274.031
274.35
274.736
275.203
275.763
276.429
277.215
278.133
279.194
280.397
281.696
273.09
273.28
273.492
273.74
274.039
274.403
274.85
275.399
276.068
276.879
277.853
279.013
280.381
281.981
283.834
285.933
273.09
273.277
273.487
273.733
274.028
274.389
274.831
275.375
276.038
276.842
277.809
278.962
280.325
281.922
283.777
285.879
273.088
273.272
273.478
273.719
274.009
274.363
274.798
275.331
275.983
276.774
277.727
278.866
280.217
281.809
283.667
285.784
273.086
273.265
273.466
273.701
273.983
274.327
274.75
275.269
275.904
276.676
277.607
278.724
280.055
281.635
283.495
285.634
273.083
273.257
273.451
273.678
273.95
274.282
274.69
275.191
275.803
276.547
277.448
278.532
279.831
281.385
283.238
285.403
273.08
273.247
273.433
273.65
273.911
274.229
274.618
275.096
275.68
276.39
277.25
278.287
279.536
281.042
282.865
285.044
273.076
273.235
273.413
273.62
273.868
274.169
274.537
274.988
275.538
276.207
277.015
277.989
279.163
280.586
282.327
284.463
273.072
273.223
273.392
273.587
273.82
274.103
274.449
274.87
275.382
276.003
276.749
277.645
278.717
280.006
281.576
283.511
273.072
273.223
273.391
273.587
273.82
274.103
274.448
274.869
275.382
276.002
276.749
277.644
278.716
280.005
281.575
283.511
273.068
273.21
273.368
273.551
273.768
274.03
274.349
274.735
275.202
275.762
276.428
277.214
278.132
279.193
280.396
281.695
273.064
273.198
273.346
273.516
273.719
273.961
274.254
274.606
275.029
275.53
276.118
276.799
277.573
278.433
279.351
280.259
273.06
273.186
273.325
273.485
273.674
273.898
274.167
274.489
274.871
275.319
275.836
276.424
277.076
277.774
278.486
279.15
273.057
273.177
273.308
273.459
273.635
273.844
274.093
274.389
274.736
275.138
275.597
276.108
276.661
277.238
277.805
278.315
273.055
273.169
273.295
273.438
273.605
273.802
274.035
274.31
274.629
274.996
275.409
275.863
276.344
276.835
277.305
277.718
273.053
273.164
273.286
273.424
273.585
273.774
273.996
274.256
274.557
274.9
275.282
275.697
276.131
276.567
276.978
277.333
273.053
273.162
273.282
273.417
273.575
273.76
273.977
274.23
274.521
274.852
275.219
275.615
276.026
276.435
276.817
277.145
273.076
273.235
273.413
273.619
273.867
274.168
274.536
274.987
275.537
276.205
277.013
277.987
279.161
280.583
282.325
284.462
273.072
273.221
273.388
273.581
273.812
274.09
274.43
274.843
275.344
275.947
276.667
277.521
278.524
279.692
281.024
282.467
273.067
273.208
273.364
273.545
273.759
274.016
274.328
274.705
275.158
275.697
276.332
277.07
277.914
278.857
279.869
280.873
273.064
273.196
273.343
273.511
273.711
273.949
274.236
274.579
274.988
275.469
276.027
276.662
277.37
278.132
278.912
279.643
273.06
273.186
273.324
273.483
273.67
273.892
274.157
274.471
274.842
275.274
275.767
276.318
276.918
277.544
278.162
278.72
273.058
273.178
273.31
273.461
273.638
273.847
274.094
274.387
274.728
275.121
275.564
276.052
276.572
277.102
277.612
278.061
273.056
273.172
273.3
273.446
273.616
273.816
274.052
274.329
274.65
275.017
275.427
275.872
276.34
276.809
277.253
277.637
273.055
273.17
273.296
273.439
273.606
273.801
274.032
274.301
274.612
274.966
275.358
275.783
276.225
276.665
277.077
277.431
273.08
273.246
273.432
273.65
273.91
274.227
274.616
275.093
275.677
276.387
277.246
278.283
279.531
281.038
282.861
285.041
273.075
273.232
273.406
273.609
273.852
274.146
274.504
274.942
275.472
276.113
276.879
277.788
278.857
280.098
281.506
283.011
273.071
273.218
273.381
273.571
273.796
274.068
274.397
274.795
275.275
275.847
276.523
277.309
278.208
279.213
280.288
281.349
273.066
273.205
273.359
273.536
273.745
273.996
274.299
274.662
275.095
275.605
276.198
276.875
277.629
278.441
279.272
280.048
273.063
273.194
273.339
273.506
273.702
273.936
274.215
274.548
274.94
275.398
275.922
276.508
277.146
277.814
278.472
279.065
273.06
273.186
273.324
273.483
273.668
273.888
274.149
274.458
274.819
275.235
275.705
276.224
276.776
277.341
277.884
278.362
273.058
273.18
273.314
273.467
273.645
273.856
274.104
274.397
274.736
275.124
275.559
276.031
276.528
277.028
277.5
277.909
273.058
273.177
273.309
273.46
273.634
273.84
274.083
274.367
274.696
275.07
275.486
275.936
276.406
276.874
277.312
277.688
273.083
273.256
273.45
273.676
273.948
274.28
274.687
275.186
275.798
276.542
277.442
278.525
279.824
281.378
283.232
285.398
273.078
273.241
273.423
273.634
273.887
274.194
274.57
275.027
275.584
276.255
277.058
278.009
279.125
280.412
281.859
283.382
273.073
273.226
273.397
273.594
273.829
274.113
274.457
274.874
275.377
275.977
276.685
277.509
278.45
279.496
280.61
281.699
273.069
273.213
273.373
273.557
273.776
274.038
274.354
274.735
275.188
275.723
276.345
277.055
277.845
278.694
279.56
280.364
273.065
273.202
273.353
273.526
273.731
273.975
274.267
274.615
275.026
275.506
276.055
276.67
277.34
278.039
278.728
279.346
273.063
273.193
273.337
273.502
273.695
273.925
274.198
274.521
274.899
275.335
275.828
276.372
276.952
277.544
278.114
278.613
273.061
273.187
273.326
273.485
273.671
273.891
274.151
274.456
274.812
275.219
275.674
276.17
276.692
277.216
277.711
278.14
273.06
273.184
273.321
273.478
273.66
273.874
274.128
274.425
274.769
275.161
275.598
276.07
276.563
277.054
277.514
277.909
273.086
273.264
273.465
273.699
273.98
274.324
274.745
275.263
275.897
276.667
277.597
278.713
280.045
281.624
283.485
285.626
273.08
273.249
273.436
273.655
273.917
274.235
274.624
275.099
275.675
276.371
277.201
278.184
279.33
280.645
282.109
283.633
273.076
273.233
273.409
273.613
273.857
274.15
274.507
274.94
275.461
276.083
276.817
277.668
278.638
279.712
280.848
281.95
273.071
273.22
273.385
273.576
273.802
274.073
274.401
274.795
275.265
275.82
276.465
277.2
278.016
278.891
279.779
280.601
273.067
273.208
273.364
273.543
273.755
274.007
274.31
274.671
275.097
275.595
276.165
276.802
277.495
278.218
278.928
279.564
273.065
273.199
273.348
273.518
273.718
273.955
274.238
274.573
274.965
275.418
275.93
276.493
277.095
277.708
278.297
278.812
273.063
273.193
273.337
273.501
273.693
273.92
274.189
274.506
274.875
275.297
275.77
276.284
276.825
277.369
277.882
278.325
273.062
273.19
273.331
273.493
273.681
273.903
274.166
274.474
274.831
275.237
275.69
276.18
276.692
277.201
277.679
278.088
273.088
273.271
273.476
273.716
274.005
274.357
274.79
275.322
275.972
276.761
277.713
278.85
280.201
281.793
283.652
285.77
273.082
273.255
273.447
273.671
273.94
274.266
274.666
275.153
275.745
276.458
277.308
278.311
279.477
280.808
282.279
283.798
273.077
273.239
273.419
273.629
273.878
274.18
274.546
274.99
275.525
276.164
276.915
277.786
278.775
279.866
281.014
282.121
273.073
273.225
273.394
273.59
273.822
274.1
274.437
274.841
275.324
275.894
276.555
277.308
278.142
279.034
279.936
280.767
273.069
273.213
273.373
273.556
273.773
274.032
274.343
274.714
275.152
275.663
276.248
276.902
277.611
278.35
279.074
279.721
273.066
273.204
273.356
273.53
273.736
273.979
274.269
274.613
275.016
275.481
276.007
276.586
277.202
277.831
278.433
278.959
273.064
273.197
273.345
273.513
273.71
273.943
274.219
274.545
274.924
275.357
275.843
276.371
276.927
277.484
278.01
278.465
273.063
273.194
273.339
273.505
273.698
273.926
274.195
274.511
274.878
275.296
275.762
276.265
276.79
277.313
277.803
278.222
273.089
273.275
273.484
273.728
274.022
274.38
274.821
275.361
276.022
276.824
277.788
278.939
280.301
281.898
283.754
285.856
273.084
273.259
273.454
273.682
273.956
274.288
274.694
275.19
275.792
276.516
277.379
278.395
279.572
280.911
282.384
283.899
273.079
273.243
273.426
273.639
273.893
274.199
274.572
275.024
275.569
276.217
276.981
277.864
278.864
279.965
281.119
282.228
273.074
273.229
273.4
273.599
273.835
274.119
274.461
274.873
275.364
275.944
276.616
277.38
278.225
279.128
280.037
280.874
273.07
273.216
273.379
273.565
273.786
274.05
274.366
274.743
275.189
275.709
276.304
276.968
277.688
278.437
279.169
279.823
273.067
273.207
273.362
273.539
273.748
273.996
274.291
274.641
275.051
275.524
276.059
276.648
277.274
277.912
278.523
279.056
273.065
273.2
273.35
273.521
273.722
273.959
274.24
274.571
274.957
275.398
275.892
276.43
276.995
277.562
278.096
278.557
273.064
273.197
273.345
273.513
273.709
273.941
274.215
274.537
274.91
275.336
275.81
276.322
276.857
277.389
277.886
278.312
273.09
273.278
273.488
273.734
274.03
274.392
274.836
275.381
276.047
276.855
277.826
278.983
280.35
281.949
283.802
285.896
273.084
273.261
273.458
273.688
273.964
274.299
274.708
275.208
275.815
276.545
277.414
278.436
279.619
280.961
282.435
283.946
273.079
273.245
273.43
273.644
273.9
274.209
274.585
275.041
275.59
276.244
277.013
277.902
278.908
280.013
281.17
282.279
273.075
273.23
273.404
273.604
273.842
274.128
274.473
274.889
275.385
275.969
276.646
277.415
278.266
279.173
280.087
280.925
273.071
273.218
273.382
273.57
273.793
274.058
274.377
274.758
275.208
275.732
276.332
277.001
277.727
278.48
279.217
279.873
273.068
273.209
273.364
273.543
273.754
274.004
274.302
274.655
275.069
275.546
276.085
276.679
277.31
277.953
278.567
279.104
273.066
273.202
273.353
273.525
273.728
273.967
274.25
274.585
274.974
275.419
275.917
276.46
277.029
277.6
278.139
278.603
273.065
273.199
273.347
273.517
273.715
273.949
274.225
274.55
274.927
275.356
275.834
276.351
276.89
277.426
277.928
278.357
273.05
273.153
273.267
273.395
273.544
273.717
273.921
274.157
274.429
274.736
275.076
275.44
275.819
276.194
276.544
276.843
273.047
273.145
273.252
273.373
273.512
273.675
273.864
274.083
274.335
274.618
274.929
275.263
275.608
275.949
276.265
276.535
273.045
273.137
273.238
273.352
273.482
273.634
273.81
274.013
274.245
274.505
274.79
275.094
275.406
275.713
275.997
276.239
273.042
273.13
273.226
273.333
273.455
273.597
273.761
273.949
274.163
274.402
274.663
274.939
275.222
275.498
275.753
275.969
273.04
273.124
273.215
273.316
273.432
273.566
273.719
273.895
274.093
274.314
274.554
274.806
275.064
275.314
275.543
275.738
273.039
273.119
273.206
273.304
273.414
273.541
273.686
273.852
274.039
274.245
274.468
274.702
274.939
275.169
275.379
275.556
273.038
273.116
273.201
273.295
273.402
273.524
273.664
273.823
274.001
274.198
274.409
274.631
274.854
275.07
275.266
275.431
273.037
273.115
273.198
273.291
273.396
273.516
273.653
273.808
273.983
274.174
274.38
274.595
274.811
275.019
275.209
275.368
273.051
273.156
273.271
273.402
273.553
273.73
273.938
274.181
274.461
274.779
275.133
275.515
275.914
276.312
276.686
277.009
273.048
273.147
273.256
273.379
273.521
273.686
273.88
274.105
274.364
274.657
274.981
275.329
275.692
276.052
276.389
276.679
273.045
273.139
273.242
273.357
273.49
273.645
273.825
274.033
274.272
274.54
274.835
275.152
275.479
275.802
276.103
276.361
273.043
273.132
273.229
273.338
273.462
273.607
273.774
273.967
274.187
274.433
274.703
274.99
275.285
275.574
275.843
276.071
273.041
273.126
273.218
273.321
273.439
273.575
273.731
273.911
274.115
274.342
274.59
274.851
275.119
275.38
275.62
275.824
273.039
273.121
273.209
273.308
273.42
273.549
273.698
273.867
274.059
274.271
274.5
274.742
274.988
275.227
275.446
275.63
273.038
273.117
273.203
273.299
273.408
273.532
273.675
273.838
274.02
274.222
274.44
274.668
274.899
275.122
275.326
275.498
273.038
273.116
273.201
273.295
273.402
273.524
273.664
273.823
274.001
274.198
274.409
274.631
274.854
275.069
275.266
275.431
273.052
273.16
273.279
273.415
273.572
273.757
273.975
274.231
274.528
274.867
275.248
275.665
276.105
276.551
276.977
277.349
273.049
273.151
273.264
273.391
273.538
273.711
273.913
274.15
274.424
274.736
275.084
275.463
275.86
276.261
276.64
276.97
273.047
273.143
273.249
273.368
273.506
273.667
273.855
274.074
274.326
274.611
274.927
275.269
275.626
275.982
276.317
276.607
273.044
273.136
273.235
273.348
273.477
273.627
273.802
274.005
274.236
274.497
274.784
275.093
275.412
275.728
276.024
276.277
273.042
273.129
273.224
273.33
273.453
273.594
273.757
273.945
274.16
274.4
274.662
274.942
275.229
275.512
275.774
275.997
273.04
273.124
273.215
273.317
273.433
273.567
273.722
273.899
274.1
274.323
274.566
274.823
275.086
275.342
275.579
275.779
273.039
273.121
273.209
273.308
273.42
273.549
273.698
273.867
274.059
274.271
274.5
274.742
274.988
275.227
275.445
275.63
273.039
273.119
273.206
273.304
273.414
273.541
273.686
273.852
274.039
274.245
274.468
274.702
274.939
275.169
275.379
275.556
273.054
273.167
273.292
273.434
273.6
273.796
274.028
274.303
274.625
274.997
275.418
275.886
276.389
276.91
277.418
277.872
273.051
273.158
273.275
273.409
273.564
273.747
273.963
274.217
274.513
274.853
275.237
275.659
276.11
276.573
277.02
277.415
273.049
273.149
273.26
273.385
273.53
273.7
273.9
274.134
274.406
274.716
275.063
275.442
275.842
276.249
276.637
276.977
273.046
273.141
273.245
273.363
273.499
273.658
273.843
274.059
274.308
274.591
274.904
275.243
275.599
275.955
276.292
276.584
273.044
273.134
273.233
273.345
273.473
273.622
273.795
273.995
274.225
274.483
274.768
275.074
275.391
275.706
276
276.253
273.042
273.129
273.224
273.33
273.452
273.594
273.757
273.945
274.16
274.399
274.662
274.942
275.229
275.512
275.774
275.997
273.041
273.126
273.218
273.321
273.439
273.575
273.731
273.911
274.115
274.342
274.589
274.851
275.118
275.38
275.62
275.824
273.04
273.124
273.215
273.316
273.432
273.565
273.719
273.895
274.093
274.314
274.553
274.806
275.063
275.314
275.543
275.737
273.057
273.176
273.308
273.459
273.635
273.846
274.097
274.396
274.749
275.162
275.636
276.171
276.759
277.384
278.013
278.593
273.054
273.166
273.29
273.432
273.597
273.793
274.026
274.302
274.626
275.002
275.432
275.912
276.434
276.982
277.525
278.017
273.051
273.157
273.273
273.406
273.56
273.742
273.958
274.211
274.508
274.849
275.235
275.663
276.122
276.596
277.058
277.47
273.048
273.148
273.258
273.383
273.527
273.697
273.896
274.129
274.4
274.71
275.057
275.436
275.839
276.248
276.641
276.985
273.046
273.141
273.245
273.363
273.499
273.658
273.843
274.059
274.308
274.59
274.904
275.243
275.599
275.955
276.292
276.584
273.044
273.135
273.235
273.348
273.477
273.627
273.802
274.004
274.236
274.497
274.784
275.092
275.411
275.728
276.023
276.277
273.043
273.132
273.229
273.337
273.462
273.607
273.774
273.967
274.187
274.433
274.703