/*--------------------------------*- C++ -*----------------------------------*\
| =========                 |                                                 |
| \\      /  F ield         | OpenFOAM: The Open Source CFD Toolbox           |
|  \\    /   O peration     | Version:  v1912                                 |
|   \\  /    A nd           | Website:  www.openfoam.com                      |
|    \\/     M anipulation  |                                                 |
\*---------------------------------------------------------------------------*/
FoamFile
{
    version     2.0;
    format      ascii;
    class       volVectorField;
    location    "0.7/solid";
    object      D;
}
// * * * * * * * * * * * * * * * * * * * * * * * * * * * * * * * * * * * * * //

dimensions      [0 1 0 0 0 0 0];


internalField   nonuniform List<vector> 
256
(
(2.66199e-08 3.83022e-08 2.89788e-08)
(3.34242e-09 2.23112e-08 2.63146e-08)
(-3.11532e-09 2.1988e-08 2.62493e-08)
(-2.56181e-08 3.69365e-08 2.8854e-08)
(4.33485e-08 2.98759e-08 5.54211e-08)
(8.72353e-09 2.02213e-08 5.18987e-08)
(-7.27883e-09 1.96984e-08 5.18972e-08)
(-4.08701e-08 2.81205e-08 5.54961e-08)
(4.57082e-08 1.53365e-08 6.97547e-08)
(1.01625e-08 1.15083e-08 6.59773e-08)
(-7.22773e-09 1.08614e-08 6.60593e-08)
(-4.17509e-08 1.3313e-08 7.0065e-08)
(4.52645e-08 2.48149e-09 8.0858e-08)
(1.02316e-08 3.84704e-10 7.66999e-08)
(-5.67381e-09 -3.61147e-10 7.68428e-08)
(-3.96886e-08 1.92086e-10 8.13427e-08)
(4.61346e-08 -9.70847e-09 9.18686e-08)
(1.07727e-08 -1.2516e-08 8.72616e-08)
(-4.47227e-09 -1.33551e-08 8.74453e-08)
(-3.88039e-08 -1.22564e-08 9.2473e-08)
(5.04539e-08 -2.32141e-08 1.04436e-07)
(1.27551e-08 -2.73959e-08 9.94121e-08)
(-4.60033e-09 -2.83293e-08 9.96229e-08)
(-4.12624e-08 -2.60162e-08 1.05122e-07)
(6.04496e-08 -4.41211e-08 1.19709e-07)
(1.6761e-08 -4.74645e-08 1.147e-07)
(-6.67945e-09 -4.84767e-08 1.14926e-07)
(-4.93372e-08 -4.71394e-08 1.20444e-07)
(7.48117e-08 -9.63694e-08 1.35352e-07)
(2.11528e-08 -9.29269e-08 1.31295e-07)
(-9.20405e-09 -9.37875e-08 1.31521e-07)
(-6.17876e-08 -9.90262e-08 1.36092e-07)
(1.85577e-08 1.74997e-08 5.53151e-09)
(1.69319e-09 4.3876e-09 6.81991e-09)
(-1.50564e-09 4.1605e-09 6.90014e-09)
(-1.76077e-08 1.64061e-08 5.76332e-09)
(3.05029e-08 1.20746e-08 2.19604e-08)
(5.50902e-09 3.99704e-09 2.44691e-08)
(-4.21297e-09 3.50672e-09 2.46378e-08)
(-2.8225e-08 1.043e-08 2.24489e-08)
(3.18679e-08 2.39003e-09 3.55539e-08)
(6.54705e-09 -9.26815e-10 3.84747e-08)
(-3.87635e-09 -1.57431e-09 3.87145e-08)
(-2.82452e-08 3.89084e-10 3.62483e-08)
(3.11387e-08 -7.94488e-09 4.64378e-08)
(6.54528e-09 -9.87509e-09 4.94057e-08)
(-2.35077e-09 -1.06294e-08 4.97017e-08)
(-2.59998e-08 -1.02372e-08 4.72951e-08)
(3.17519e-08 -1.88667e-08 5.65358e-08)
(7.03227e-09 -2.1609e-08 5.94171e-08)
(-1.17289e-09 -2.24564e-08 5.97537e-08)
(-2.49305e-08 -2.14234e-08 5.7511e-08)
(3.58675e-08 -3.08658e-08 6.70048e-08)
(8.96189e-09 -3.50698e-08 6.97711e-08)
(-1.30593e-09 -3.60103e-08 7.01351e-08)
(-2.72318e-08 -3.36786e-08 6.80592e-08)
(4.60006e-08 -4.759e-08 7.72807e-08)
(1.29774e-08 -5.0895e-08 8.00076e-08)
(-3.43288e-09 -5.19143e-08 8.03863e-08)
(-3.54697e-08 -5.06227e-08 7.83782e-08)
(6.11211e-08 -8.99424e-08 8.30907e-08)
(1.74208e-08 -8.55716e-08 8.58664e-08)
(-6.02361e-09 -8.64416e-08 8.62469e-08)
(-4.86884e-08 -9.26167e-08 8.41947e-08)
(1.30921e-08 1.10925e-08 2.65053e-09)
(2.577e-10 1.08236e-10 4.37306e-09)
(-1.40746e-10 -8.76578e-11 4.43545e-09)
(-1.22355e-08 1.01136e-08 2.82871e-09)
(2.15109e-08 2.99279e-09 1.35878e-08)
(2.59382e-09 -3.70041e-09 1.68395e-08)
(-1.49997e-09 -4.15434e-09 1.69795e-08)
(-1.94601e-08 1.4734e-09 1.39897e-08)
(2.22294e-08 -6.35817e-09 2.53081e-08)
(3.2469e-09 -9.19286e-09 2.90494e-08)
(-8.88131e-10 -9.81386e-09 2.92448e-08)
(-1.89441e-08 -8.26543e-09 2.58728e-08)
(2.14419e-08 -1.53585e-08 3.57781e-08)
(3.19462e-09 -1.71902e-08 3.9626e-08)
(5.98502e-10 -1.79273e-08 3.98654e-08)
(-1.67296e-08 -1.75869e-08 3.64728e-08)
(2.20115e-08 -2.44577e-08 4.51847e-08)
(3.65068e-09 -2.72173e-08 4.90235e-08)
(1.73649e-09 -2.80534e-08 4.9297e-08)
(-1.56834e-08 -2.69714e-08 4.59796e-08)
(2.61389e-08 -3.38011e-08 5.3731e-08)
(5.55074e-09 -3.80598e-08 5.75265e-08)
(1.57961e-09 -3.89927e-08 5.78243e-08)
(-1.80415e-08 -3.65861e-08 5.45967e-08)
(3.6433e-08 -4.65684e-08 6.03037e-08)
(9.57442e-09 -4.9925e-08 6.40474e-08)
(-5.93219e-10 -5.09394e-08 6.43588e-08)
(-2.64665e-08 -4.95835e-08 6.12095e-08)
(5.17153e-08 -8.38549e-08 6.21428e-08)
(1.4038e-08 -7.94961e-08 6.58647e-08)
(-3.22937e-09 -8.03614e-08 6.6178e-08)
(-3.98612e-08 -8.65102e-08 6.30555e-08)
(1.06386e-08 9.10292e-09 2.50117e-09)
(-3.42488e-10 -6.57778e-10 3.60011e-09)
(4.10903e-10 -8.42429e-10 3.64261e-09)
(-9.86254e-09 8.18317e-09 2.62542e-09)
(1.73719e-08 -6.56152e-10 1.06258e-08)
(1.25724e-09 -6.52674e-09 1.27195e-08)
(-3.21986e-10 -6.95477e-09 1.28219e-08)
(-1.55151e-08 -2.08242e-09 1.09239e-08)
(1.78752e-08 -1.08055e-08 1.99664e-08)
(1.72259e-09 -1.33498e-08 2.23725e-08)
(3.80412e-10 -1.39423e-08 2.2518e-08)
(-1.48755e-08 -1.26192e-08 2.03917e-08)
(1.72283e-08 -1.94681e-08 2.89529e-08)
(1.68656e-09 -2.12618e-08 3.14066e-08)
(1.77183e-09 -2.19743e-08 3.15858e-08)
(-1.28773e-08 -2.16176e-08 2.94794e-08)
(1.79403e-08 -2.72704e-08 3.69649e-08)
(2.17316e-09 -3.0066e-08 3.93906e-08)
(2.81694e-09 -3.08828e-08 3.95969e-08)
(-1.20329e-08 -2.97229e-08 3.75724e-08)
(2.21812e-08 -3.46592e-08 4.35751e-08)
(4.08187e-09 -3.89696e-08 4.59598e-08)
(2.60373e-09 -3.98878e-08 4.61863e-08)
(-1.4547e-08 -3.73987e-08 4.42426e-08)
(3.25043e-08 -4.53087e-08 4.78833e-08)
(8.07883e-09 -4.87918e-08 5.02391e-08)
(4.21434e-10 -4.97946e-08 5.04774e-08)
(-2.30288e-08 -4.82893e-08 4.85867e-08)
(4.76294e-08 -8.0465e-08 4.87046e-08)
(1.25027e-08 -7.65248e-08 5.11086e-08)
(-2.20363e-09 -7.73805e-08 5.13481e-08)
(-3.62847e-08 -8.30898e-08 4.94141e-08)
(9.70737e-09 8.29414e-09 2.2884e-09)
(-4.85308e-10 -8.51522e-10 2.83933e-09)
(5.23965e-10 -1.02888e-09 2.86851e-09)
(-8.98732e-09 7.41554e-09 2.37438e-09)
(1.58468e-08 -1.99362e-09 8.45071e-09)
(8.77515e-10 -7.46565e-09 9.49664e-09)
(-5.07962e-11 -7.87502e-09 9.56936e-09)
(-1.41312e-08 -3.35156e-09 8.66336e-09)
(1.63719e-08 -1.26057e-08 1.54651e-08)
(1.29922e-09 -1.50267e-08 1.66533e-08)
(6.1856e-10 -1.55961e-08 1.67582e-08)
(-1.35856e-08 -1.4344e-08 1.57731e-08)
(1.59127e-08 -2.12406e-08 2.24159e-08)
(1.30753e-09 -2.30416e-08 2.36023e-08)
(1.90026e-09 -2.37318e-08 2.37326e-08)
(-1.18373e-08 -2.332e-08 2.28007e-08)
(1.67971e-08 -2.84123e-08 2.86061e-08)
(1.83972e-09 -3.12443e-08 2.97533e-08)
(2.847e-09 -3.20419e-08 2.99042e-08)
(-1.12155e-08 -3.08059e-08 2.90534e-08)
(2.11317e-08 -3.48578e-08 3.34702e-08)
(3.75953e-09 -3.92011e-08 3.45857e-08)
(2.5813e-09 -4.01036e-08 3.47523e-08)
(-1.38616e-08 -3.75505e-08 3.39654e-08)
(3.1396e-08 -4.46807e-08 3.6429e-08)
(7.71124e-09 -4.82627e-08 3.75426e-08)
(4.11658e-10 -4.92528e-08 3.77187e-08)
(-2.23116e-08 -4.76245e-08 3.6954e-08)
(4.63105e-08 -7.88514e-08 3.70712e-08)
(1.2081e-08 -7.52786e-08 3.8253e-08)
(-2.18592e-09 -7.61242e-08 3.84299e-08)
(-3.53769e-08 -8.14456e-08 3.76015e-08)
(9.3547e-09 7.90391e-09 1.8033e-09)
(-4.8693e-10 -9.42915e-10 2.0533e-09)
(5.07589e-10 -1.11487e-09 2.0726e-09)
(-8.67008e-09 7.05399e-09 1.85991e-09)
(1.53369e-08 -2.45111e-09 6.19552e-09)
(8.31738e-10 -7.75114e-09 6.65934e-09)
(-7.52385e-11 -8.14711e-09 6.70808e-09)
(-1.3714e-08 -3.76035e-09 6.33746e-09)
(1.59534e-08 -1.31603e-08 1.10601e-08)
(1.26537e-09 -1.55468e-08 1.15726e-08)
(5.27303e-10 -1.60991e-08 1.16435e-08)
(-1.33123e-08 -1.48432e-08 1.1268e-08)
(1.56467e-08 -2.17864e-08 1.58987e-08)
(1.31407e-09 -2.36116e-08 1.63921e-08)
(1.7191e-09 -2.42846e-08 1.64808e-08)
(-1.17634e-08 -2.38119e-08 1.61606e-08)
(1.6658e-08 -2.87403e-08 2.02037e-08)
(1.87932e-09 -3.15996e-08 2.06647e-08)
(2.59132e-09 -3.23817e-08 2.0768e-08)
(-1.13082e-08 -3.10864e-08 2.05102e-08)
(2.10425e-08 -3.4884e-08 2.35303e-08)
(3.80129e-09 -3.92401e-08 2.3974e-08)
(2.29007e-09 -4.01294e-08 2.40886e-08)
(-1.40353e-08 -3.75375e-08 2.38718e-08)
(3.12308e-08 -4.44802e-08 2.55364e-08)
(7.71076e-09 -4.81077e-08 2.59917e-08)
(1.35853e-10 -4.90871e-08 2.61132e-08)
(-2.24328e-08 -4.73924e-08 2.59002e-08)
(4.59737e-08 -7.81403e-08 2.60865e-08)
(1.20346e-08 -7.47789e-08 2.65962e-08)
(-2.43784e-09 -7.56158e-08 2.67182e-08)
(-3.53446e-08 -8.07085e-08 2.64544e-08)
(9.20355e-09 7.71632e-09 1.14107e-09)
(-4.6979e-10 -9.85166e-10 1.24693e-09)
(4.80228e-10 -1.15358e-09 1.258e-09)
(-8.53951e-09 6.8843e-09 1.17328e-09)
(1.51503e-08 -2.58391e-09 3.78203e-09)
(8.49151e-10 -7.81329e-09 3.97195e-09)
(-1.34317e-10 -8.20052e-09 4.00003e-09)
(-1.35825e-08 -3.86186e-09 3.86332e-09)
(1.58427e-08 -1.325e-08 6.64204e-09)
(1.30085e-09 -1.56336e-08 6.84414e-09)
(4.15358e-10 -1.61749e-08 6.88524e-09)
(-1.32901e-08 -1.48966e-08 6.7619e-09)
(1.56321e-08 -2.18514e-08 9.47291e-09)
(1.37515e-09 -2.36981e-08 9.65875e-09)
(1.5487e-09 -2.43596e-08 9.71037e-09)
(-1.18685e-08 -2.38409e-08 9.62484e-09)
(1.67166e-08 -2.87614e-08 1.19881e-08)
(1.95784e-09 -3.16367e-08 1.2155e-08)
(2.37502e-09 -3.24082e-08 1.22153e-08)
(-1.15137e-08 -3.1075e-08 1.2167e-08)
(2.11214e-08 -3.4869e-08 1.39273e-08)
(3.87688e-09 -3.92259e-08 1.40873e-08)
(2.05323e-09 -4.01061e-08 1.41544e-08)
(-1.42833e-08 -3.74949e-08 1.41275e-08)
(3.12518e-08 -4.44482e-08 1.51103e-08)
(7.75694e-09 -4.80871e-08 1.52821e-08)
(-9.066e-11 -4.90589e-08 1.53535e-08)
(-2.264e-08 -4.73379e-08 1.53243e-08)
(4.58813e-08 -7.78465e-08 1.54882e-08)
(1.20492e-08 -7.45808e-08 1.56923e-08)
(-2.64854e-09 -7.54114e-08 1.5764e-08)
(-3.54519e-08 -8.0396e-08 1.57048e-08)
(9.1407e-09 7.64104e-09 3.89326e-10)
(-4.60713e-10 -9.99302e-10 4.18821e-10)
(4.66539e-10 -1.16598e-09 4.2243e-10)
(-8.48608e-09 6.81756e-09 3.99784e-10)
(1.50774e-08 -2.61047e-09 1.27094e-09)
(8.60915e-10 -7.81385e-09 1.32262e-09)
(-1.65408e-10 -8.19678e-09 1.33179e-09)
(-1.35352e-08 -3.87315e-09 1.2974e-09)
(1.58074e-08 -1.323e-08 2.2145e-09)
(1.32214e-09 -1.56163e-08 2.26802e-09)
(3.57975e-10 -1.6152e-08 2.28148e-09)
(-1.32965e-08 -1.48588e-08 2.25364e-09)
(1.56409e-08 -2.18124e-08 3.14451e-09)
(1.40791e-09 -2.36703e-08 3.19213e-09)
(1.46355e-09 -2.43262e-08 3.20907e-09)
(-1.19346e-08 -2.37839e-08 3.19429e-09)
(1.67573e-08 -2.87242e-08 3.97006e-09)
(1.99742e-09 -3.16063e-08 4.01164e-09)
(2.26861e-09 -3.23725e-08 4.03149e-09)
(-1.16255e-08 -3.10214e-08 4.02882e-09)
(2.11685e-08 -3.48532e-08 4.60729e-09)
(3.91369e-09 -3.92081e-08 4.64723e-09)
(1.93749e-09 -4.00836e-08 4.66937e-09)
(-1.44128e-08 -3.7465e-08 4.6732e-09)
(3.12693e-08 -4.4454e-08 4.99983e-09)
(7.77916e-09 -4.80927e-08 5.04447e-09)
(-2.0173e-10 -4.90606e-08 5.06803e-09)
(-2.2749e-08 -4.7332e-08 5.07042e-09)
(4.58433e-08 -7.77426e-08 5.13419e-09)
(1.20557e-08 -7.45104e-08 5.1893e-09)
(-2.75193e-09 -7.53377e-08 5.21294e-09)
(-3.55125e-08 -8.02824e-08 5.20566e-09)
)
;

boundaryField
{
    interface
    {
        type            solidTraction;
        traction        nonuniform List<vector> 
192
(
(41.5281 -0.360198 -2.75801)
(43.2634 -0.325787 -4.45713)
(44.8495 -0.0493148 -5.06274)
(45.8622 0.383669 -5.22393)
(46.171 0.76157 -5.17441)
(47.0819 1.4321 -5.03873)
(45.5148 1.94178 -4.65099)
(49.0889 4.37631 -4.35067)
(40.4646 -0.26327 -1.35332)
(41.2583 -0.249053 -2.34489)
(42.2161 -0.00422252 -2.6328)
(42.8961 0.436587 -2.65811)
(42.9489 0.835882 -2.56407)
(43.7475 1.57518 -2.42387)
(41.8981 2.13956 -2.1739)
(45.5704 4.69452 -1.975)
(43.0329 -0.228183 -1.06254)
(43.7303 -0.211674 -1.81801)
(44.6742 0.027563 -2.03295)
(45.3671 0.490224 -2.04652)
(45.3397 0.92685 -1.96914)
(46.0556 1.74719 -1.85605)
(43.7622 2.39344 -1.67537)
(47.1965 5.11831 -1.52385)
(43.2487 -0.175522 -0.646466)
(43.7603 -0.137853 -1.17055)
(44.5056 0.102732 -1.31284)
(45.0849 0.570142 -1.30902)
(44.9389 1.02321 -1.24255)
(45.5765 1.87836 -1.15457)
(43.1239 2.56117 -1.03985)
(46.4885 5.32744 -0.948969)
(44.0295 -0.15046 -0.471436)
(44.4874 -0.0918361 -0.854105)
(45.1437 0.157752 -0.958893)
(45.672 0.634041 -0.956043)
(45.4498 1.10443 -0.90718)
(46.0123 1.98939 -0.841943)
(43.3875 2.70554 -0.761883)
(46.6088 5.51388 -0.696706)
(44.2388 -0.130951 -0.286787)
(44.6478 -0.0548061 -0.537768)
(45.2271 0.203091 -0.607189)
(45.7055 0.684745 -0.60399)
(45.4272 1.1648 -0.570359)
(45.943 2.0648 -0.526536)
(43.2364 2.79832 -0.477303)
(46.401 5.62762 -0.438897)
(44.4958 -0.121553 -0.167903)
(44.8875 -0.0334458 -0.31459)
(45.4263 0.231652 -0.355557)
(45.8772 0.717941 -0.353946)
(45.5635 1.20533 -0.334629)
(46.0442 2.11572 -0.308873)
(43.2737 2.86146 -0.281147)
(46.3851 5.70648 -0.258295)
(44.5597 -0.11575 -0.04958)
(44.9391 -0.0215054 -0.0964345)
(45.4554 0.246774 -0.109724)
(45.8909 0.734522 -0.109048)
(45.5617 1.22486 -0.102773)
(46.0259 2.13904 -0.0943924)
(43.236 2.89038 -0.0861722)
(46.3205 5.74192 -0.0790403)
(3.87018 0.916954 15.1016)
(6.57446 1.09816 10.935)
(7.65238 0.925905 7.02193)
(8.03387 0.678379 5.4767)
(8.15222 0.571196 5.16956)
(8.2493 0.609129 5.87477)
(8.38523 0.745054 7.78841)
(9.19566 0.956488 9.40706)
(2.30682 0.547606 19.1711)
(4.4171 0.828315 18.2386)
(5.18979 0.718672 16.9161)
(5.4281 0.443643 16.4708)
(5.50275 0.261235 16.3759)
(5.62507 0.164348 16.6664)
(5.92894 0.182547 17.2945)
(7.00106 0.263864 17.6748)
(2.3089 0.398192 16.3344)
(4.46565 0.662133 15.6247)
(5.28726 0.575999 14.389)
(5.54978 0.281166 13.9337)
(5.62132 0.0493858 13.8585)
(5.71189 -0.138415 14.1398)
(5.95664 -0.239433 14.8377)
(6.98249 -0.250722 15.6553)
(2.56031 0.32575 16.6743)
(5.1138 0.560827 16.2585)
(6.15401 0.471901 15.192)
(6.50434 0.157753 14.8568)
(6.5958 -0.0946189 14.8764)
(6.70866 -0.32447 15.1286)
(6.90292 -0.493624 15.6402)
(7.97428 -0.652106 16.2869)
(-8.17029 0.801512 0.737091)
(-5.38079 0.990993 1.45974)
(-2.6535 0.677666 1.69428)
(-1.31332 0.134679 1.79714)
(-0.891079 -0.15463 1.86599)
(0.490296 -0.557308 2.0925)
(-0.152943 -0.524919 2.27286)
(8.43563 -2.7201 2.85125)
(-12.5449 0.328524 -0.285766)
(-11.9871 0.442472 -0.231119)
(-11.1572 0.284123 -0.29504)
(-10.5808 -0.0377449 -0.306246)
(-10.4087 -0.129384 -0.249128)
(-8.87707 -0.371433 -0.0229702)
(-8.96707 -0.109843 0.259658)
(-0.11354 -2.16349 0.709365)
(-12.8239 0.186602 -0.135439)
(-12.4229 0.22998 0.0119553)
(-11.7783 0.139226 0.0661335)
(-11.1512 -0.0687924 0.119019)
(-10.8802 -0.0433899 0.198947)
(-8.97727 -0.195173 0.380617)
(-8.74518 0.179848 0.569825)
(0.732458 -1.97819 0.820892)
(-14.2223 0.0918227 -0.162964)
(-14.0497 0.0850766 -0.0348701)
(-13.7173 0.0406967 0.0340725)
(-13.1559 -0.0743362 0.0913927)
(-12.8457 0.0503749 0.159706)
(-10.6803 -0.0187948 0.291311)
(-10.1004 0.433842 0.417383)
(-0.282595 -1.74618 0.568076)
(-14.5064 0.0764301 -0.0471826)
(-14.3283 0.05256 0.0985105)
(-14.0226 0.0281612 0.188411)
(-13.4088 -0.0460409 0.248766)
(-13.0216 0.126976 0.302798)
(-10.6917 0.0929256 0.38474)
(-9.97543 0.56698 0.447121)
(0.0262118 -1.66861 0.514005)
(-14.9445 0.0713674 -0.0320613)
(-14.7732 0.0423199 0.0771571)
(-14.4889 0.0309991 0.149202)
(-13.8423 -0.0184942 0.194621)
(-13.405 0.185513 0.231888)
(-10.9629 0.173852 0.282901)
(-10.1412 0.657654 0.318007)
(-0.00362661 -1.60888 0.353561)
(-15.0653 0.074756 -0.00220962)
(-14.8791 0.0459593 0.0697514)
(-14.5829 0.0411044 0.1169)
(-13.9024 0.00182031 0.145345)
(-13.4299 0.219892 0.167008)
(-10.9264 0.216737 0.193598)
(-10.061 0.702461 0.209639)
(0.151095 -1.58843 0.223378)
(-15.1734 0.0755115 -0.00463014)
(-14.9852 0.0474405 0.0181515)
(-14.6858 0.046157 0.0337943)
(-13.9918 0.0120663 0.0431948)
(-13.5005 0.23688 0.0505259)
(-10.9668 0.238326 0.0592665)
(-10.0712 0.725069 0.0650863)
(0.174553 -1.57612 0.0696201)
(9.25408 -8.87176 -0.82322)
(8.47542 -6.98426 -0.608335)
(8.39361 -4.5 -0.415816)
(8.38194 -2.95961 -0.271258)
(8.44206 -1.76395 -0.193071)
(8.48002 -0.925873 -0.118965)
(8.51507 -0.39395 -0.0711383)
(8.53001 -0.138481 -0.0214675)
(7.0289 -17.2441 -0.104156)
(5.95953 -16.7335 -0.0151112)
(5.66344 -15.756 0.0723276)
(5.55287 -15.0511 0.0900396)
(5.52961 -14.4461 0.0818126)
(5.51456 -14.0065 0.0649086)
(5.5145 -13.7178 0.0395302)
(5.5131 -13.5671 0.0144511)
(7.00855 -15.2487 0.425383)
(5.97202 -14.2974 0.424826)
(5.72716 -13.2562 0.395824)
(5.65267 -12.5623 0.322947)
(5.64876 -11.9464 0.25364)
(5.64495 -11.5377 0.178035)
(5.65043 -11.2551 0.106066)
(5.65083 -11.1255 0.0349704)
(7.96846 -15.9266 0.829109)
(6.88372 -15.1826 0.682342)
(6.68393 -14.4219 0.577965)
(6.59304 -13.8878 0.453724)
(6.59485 -13.364 0.352572)
(6.5895 -13.0406 0.24333)
(6.59752 -12.8024 0.145898)
(6.59873 -12.6946 0.0475423)
)
;
        pressure        uniform 0;
        secondOrder     false;
        setEffectiveTraction false;
        relaxationFactor 1;
        value           nonuniform List<vector> 
192
(
(8.489e-08 5.57942e-08 2.67345e-08)
(9.79307e-08 3.46479e-08 5.17246e-08)
(1.0142e-07 1.58155e-08 6.57689e-08)
(1.02699e-07 2.58816e-09 7.68403e-08)
(1.05679e-07 -8.41099e-09 8.78401e-08)
(1.12787e-07 -1.96351e-08 1.00409e-07)
(1.26414e-07 -3.80314e-08 1.15725e-07)
(1.4759e-07 -9.21538e-08 1.31462e-07)
(6.70047e-08 2.97648e-08 2.14935e-09)
(7.64376e-08 1.54022e-08 1.65006e-08)
(7.84466e-08 2.54896e-09 2.96838e-08)
(7.9029e-08 -7.97382e-09 4.04817e-08)
(8.15461e-08 -1.76844e-08 5.05046e-08)
(8.85022e-08 -2.73033e-08 6.09256e-08)
(1.02861e-07 -4.12762e-08 7.12762e-08)
(1.27124e-07 -8.56288e-08 7.73163e-08)
(5.54829e-08 1.97433e-08 6.70571e-10)
(6.27915e-08 5.27708e-09 1.03047e-08)
(6.4234e-08 -6.37542e-09 2.18095e-08)
(6.46806e-08 -1.54129e-08 3.23002e-08)
(6.71391e-08 -2.32833e-08 4.17314e-08)
(7.42336e-08 -3.01955e-08 5.03092e-08)
(8.9117e-08 -4.01739e-08 5.69293e-08)
(1.14151e-07 -7.94852e-08 5.87696e-08)
(4.93974e-08 1.61055e-08 1.65487e-09)
(5.54981e-08 1.15298e-09 9.20957e-09)
(5.68284e-08 -1.08414e-08 1.85018e-08)
(5.74344e-08 -1.94518e-08 2.75704e-08)
(6.00626e-08 -2.6032e-08 3.56611e-08)
(6.73462e-08 -3.10179e-08 4.23231e-08)
(8.24141e-08 -3.89462e-08 4.66239e-08)
(1.07399e-07 -7.60779e-08 4.73532e-08)
(4.63319e-08 1.46827e-08 1.96736e-09)
(5.1969e-08 -3.27504e-10 7.94182e-09)
(5.33785e-08 -1.25892e-08 1.49845e-08)
(5.42101e-08 -2.11342e-08 2.20204e-08)
(5.70474e-08 -2.71074e-08 2.82854e-08)
(6.44682e-08 -3.12077e-08 3.31854e-08)
(7.95272e-08 -3.83855e-08 3.61105e-08)
(1.0424e-07 -7.44732e-08 3.66572e-08)
(4.47329e-08 1.40768e-08 1.6773e-09)
(5.02528e-08 -8.01442e-10 6.02129e-09)
(5.17837e-08 -1.30828e-08 1.09277e-08)
(5.27994e-08 -2.16101e-08 1.58284e-08)
(5.57933e-08 -2.73912e-08 2.01834e-08)
(6.32865e-08 -3.12405e-08 2.35276e-08)
(7.82749e-08 -3.8247e-08 2.55003e-08)
(1.02731e-07 -7.37841e-08 2.59791e-08)
(4.38866e-08 1.38048e-08 1.08754e-09)
(4.93868e-08 -9.2412e-10 3.71709e-09)
(5.10091e-08 -1.31295e-08 6.60549e-09)
(5.2141e-08 -2.16329e-08 9.47139e-09)
(5.52269e-08 -2.73889e-08 1.20129e-08)
(6.27502e-08 -3.12349e-08 1.39588e-08)
(7.76732e-08 -3.82578e-08 1.51199e-08)
(1.01951e-07 -7.35122e-08 1.54556e-08)
(4.3511e-08 1.36955e-08 3.73604e-10)
(4.90076e-08 -9.43799e-10 1.2527e-09)
(5.06741e-08 -1.30891e-08 2.20565e-09)
(5.18598e-08 -2.15748e-08 3.14671e-09)
(5.49862e-08 -2.73421e-08 3.98022e-09)
(6.25193e-08 -3.12249e-08 4.61906e-09)
(7.74064e-08 -3.82849e-08 5.0042e-09)
(1.01595e-07 -7.34212e-08 5.12467e-09)
(2.70767e-08 5.94023e-08 8.88926e-08)
(4.43172e-08 4.007e-08 1.11363e-07)
(4.6758e-08 2.16959e-08 1.26839e-07)
(4.62351e-08 8.01006e-09 1.39779e-07)
(4.69984e-08 -3.81393e-09 1.52981e-07)
(5.12128e-08 -1.6254e-08 1.68314e-07)
(6.11905e-08 -3.6392e-08 1.87123e-07)
(7.57436e-08 -9.22261e-08 2.0952e-07)
(2.6604e-09 4.18646e-08 7.99624e-08)
(7.84328e-09 3.01371e-08 1.01827e-07)
(9.23947e-09 1.77087e-08 1.16217e-07)
(9.2287e-09 5.70586e-09 1.28231e-07)
(9.66781e-09 -6.83792e-09 1.40675e-07)
(1.15528e-08 -2.05363e-08 1.55476e-07)
(1.55663e-08 -3.94939e-08 1.74695e-07)
(2.01962e-08 -8.86211e-08 2.00438e-07)
(-2.4801e-09 4.15246e-08 7.90783e-08)
(-6.37877e-09 2.9651e-08 1.0103e-07)
(-6.20492e-09 1.70979e-08 1.15475e-07)
(-4.51219e-09 4.98539e-09 1.27527e-07)
(-3.16851e-09 -7.6601e-09 1.39996e-07)
(-3.17205e-09 -2.14591e-08 1.54808e-07)
(-5.24255e-09 -4.05023e-08 1.74029e-07)
(-8.0035e-09 -8.94804e-08 1.9979e-07)
(-2.60843e-08 5.8024e-08 8.64425e-08)
(-4.17767e-08 3.84234e-08 1.09209e-07)
(-4.26651e-08 1.97747e-08 1.24834e-07)
(-4.04684e-08 5.7941e-09 1.37883e-07)
(-3.94386e-08 -6.31169e-09 1.51158e-07)
(-4.17663e-08 -1.90236e-08 1.66531e-07)
(-4.98077e-08 -3.93968e-08 1.85358e-07)
(-6.24449e-08 -9.48783e-08 2.07846e-07)
(-7.99456e-08 5.35587e-08 2.66184e-08)
(-9.14514e-08 3.21539e-08 5.18817e-08)
(-9.33788e-08 1.30177e-08 6.62318e-08)
(-9.29534e-08 -5.44635e-10 7.75309e-08)
(-9.41015e-08 -1.1863e-08 8.86876e-08)
(-9.92864e-08 -2.3383e-08 1.01362e-07)
(-1.10958e-07 -4.20082e-08 1.16742e-07)
(-1.3017e-07 -9.57507e-08 1.32489e-07)
(-6.21351e-08 2.78644e-08 2.41764e-09)
(-7.02646e-08 1.30895e-08 1.70963e-08)
(-7.08596e-08 -1.6717e-10 3.05466e-08)
(-6.9835e-08 -1.10659e-08 4.15553e-08)
(-7.05737e-08 -2.11154e-08 5.17308e-08)
(-7.56209e-08 -3.10439e-08 6.2254e-08)
(-8.80143e-08 -4.52586e-08 7.26606e-08)
(-1.10318e-07 -8.92408e-08 7.87132e-08)
(-5.08346e-08 1.80376e-08 8.92387e-10)
(-5.69575e-08 3.15058e-09 1.08122e-08)
(-5.70935e-08 -8.94804e-09 2.25304e-08)
(-5.60182e-08 -1.84021e-08 3.31922e-08)
(-5.67531e-08 -2.66434e-08 4.27552e-08)
(-6.19594e-08 -3.38904e-08 5.14255e-08)
(-7.48665e-08 -4.41286e-08 5.80993e-08)
(-9.79209e-08 -8.30712e-08 5.99548e-08)
(-4.49406e-08 1.45276e-08 1.81334e-09)
(-4.99637e-08 -8.29174e-10 9.59171e-09)
(-5.00758e-08 -1.32787e-08 1.90521e-08)
(-4.92326e-08 -2.23283e-08 2.82564e-08)
(-5.0188e-08 -2.93054e-08 3.64555e-08)
(-5.56096e-08 -3.46497e-08 4.31977e-08)
(-6.87013e-08 -4.28548e-08 4.75481e-08)
(-9.16921e-08 -7.96238e-08 4.82931e-08)
(-4.20084e-08 1.31952e-08 2.07626e-09)
(-4.66512e-08 -2.20198e-09 8.21311e-09)
(-4.69131e-08 -1.49175e-08 1.53824e-08)
(-4.6354e-08 -2.39125e-08 2.25223e-08)
(-4.75627e-08 -3.02998e-08 2.88723e-08)
(-5.31491e-08 -3.47764e-08 3.38375e-08)
(-6.62418e-08 -4.22455e-08 3.68051e-08)
(-8.89587e-08 -7.79785e-08 3.73665e-08)
(-4.04932e-08 1.265e-08 1.74795e-09)
(-4.50755e-08 -2.5998e-09 6.20031e-09)
(-4.55096e-08 -1.53308e-08 1.11941e-08)
(-4.51785e-08 -2.43129e-08 1.61684e-08)
(-4.6579e-08 -3.05185e-08 2.05848e-08)
(-5.2262e-08 -3.47563e-08 2.39773e-08)
(-6.52973e-08 -4.2065e-08 2.59823e-08)
(-8.77609e-08 -7.72544e-08 2.64732e-08)
(-3.96955e-08 1.24148e-08 1.12728e-09)
(-4.42922e-08 -2.6742e-09 3.81863e-09)
(-4.48501e-08 -1.53251e-08 6.75796e-09)
(-4.46647e-08 -2.4285e-08 9.66766e-09)
(-4.61814e-08 -3.04713e-08 1.22463e-08)
(-5.19126e-08 -3.47133e-08 1.42219e-08)
(-6.48937e-08 -4.20456e-08 1.54033e-08)
(-8.71843e-08 -7.69572e-08 1.57468e-08)
(-3.93421e-08 1.23229e-08 3.86428e-10)
(-4.39512e-08 -2.67056e-09 1.28558e-09)
(-4.4569e-08 -1.52589e-08 2.25523e-09)
(-4.4452e-08 -2.42016e-08 3.21082e-09)
(-4.60216e-08 -3.04018e-08 4.05677e-09)
(-5.17722e-08 -3.46841e-08 4.70561e-09)
(-6.47234e-08 -4.2057e-08 5.09767e-09)
(-8.69288e-08 -7.68531e-08 5.22083e-09)
(7.60604e-08 -1.70586e-07 1.35817e-07)
(6.21865e-08 -1.57427e-07 7.9962e-08)
(5.28118e-08 -1.47857e-07 5.97734e-08)
(4.88392e-08 -1.41845e-07 4.74537e-08)
(4.76077e-08 -1.38376e-07 3.649e-08)
(4.73129e-08 -1.36456e-07 2.58352e-08)
(4.72335e-08 -1.35447e-07 1.53888e-08)
(4.71974e-08 -1.35013e-07 5.10821e-09)
(2.05085e-08 -1.62116e-07 1.31609e-07)
(1.65466e-08 -1.45643e-07 8.25087e-08)
(1.31656e-08 -1.35699e-07 6.3603e-08)
(1.17325e-08 -1.30206e-07 5.00543e-08)
(1.14001e-08 -1.27294e-07 3.78165e-08)
(1.14043e-08 -1.25724e-07 2.64218e-08)
(1.14414e-08 -1.24887e-07 1.56252e-08)
(1.14553e-08 -1.24518e-07 5.1717e-09)
(-7.67806e-09 -1.62097e-07 1.31838e-07)
(-4.26135e-09 -1.4561e-07 8.28905e-08)
(-1.4749e-09 -1.35668e-07 6.39128e-08)
(-5.61466e-10 -1.30173e-07 5.02889e-08)
(-6.43263e-10 -1.27253e-07 3.79887e-08)
(-9.54534e-10 -1.25676e-07 2.654e-08)
(-1.1938e-09 -1.24834e-07 1.56944e-08)
(-1.30799e-09 -1.24462e-07 5.19453e-09)
(-6.21144e-08 -1.70804e-07 1.36564e-07)
(-4.88314e-08 -1.57566e-07 8.10658e-08)
(-4.00424e-08 -1.47991e-07 6.06739e-08)
(-3.65893e-08 -1.41964e-07 4.8148e-08)
(-3.5779e-08 -1.38473e-07 3.70062e-08)
(-3.57974e-08 -1.36531e-07 2.6192e-08)
(-3.59241e-08 -1.35505e-07 1.55983e-08)
(-3.59899e-08 -1.35062e-07 5.17727e-09)
)
;
        gradient        nonuniform List<vector> 
192
(
(4.6616e-06 1.39936e-06 -1.79551e-07)
(4.36658e-06 3.81762e-07 -2.95718e-07)
(4.45691e-06 3.83201e-08 -3.18863e-07)
(4.59477e-06 8.53343e-09 -3.21409e-07)
(4.76353e-06 1.03798e-07 -3.22275e-07)
(4.98662e-06 2.86318e-07 -3.22149e-07)
(5.27715e-06 4.87181e-07 -3.18675e-07)
(5.82228e-06 3.37246e-07 -3.11144e-07)
(3.87576e-06 9.81209e-07 -2.70573e-07)
(3.67477e-06 2.66202e-07 -4.36782e-07)
(3.72629e-06 1.27145e-08 -4.6961e-07)
(3.83122e-06 -2.31513e-09 -4.76487e-07)
(3.98354e-06 9.45879e-08 -4.82497e-07)
(4.21077e-06 2.84996e-07 -4.86332e-07)
(4.54885e-06 5.051e-07 -4.8036e-07)
(5.28024e-06 3.45089e-07 -4.61954e-07)
(3.39126e-06 6.92059e-07 -1.58396e-07)
(3.30245e-06 1.82743e-07 -2.62645e-07)
(3.36037e-06 -1.38036e-09 -2.79881e-07)
(3.45909e-06 -4.35253e-09 -2.78234e-07)
(3.61021e-06 9.39528e-08 -2.76258e-07)
(3.84758e-06 2.88453e-07 -2.73751e-07)
(4.21472e-06 5.11559e-07 -2.69949e-07)
(4.99484e-06 3.49573e-07 -2.69854e-07)
(3.1007e-06 5.60206e-07 -6.77039e-08)
(3.0501e-06 1.44731e-07 -1.13297e-07)
(3.11626e-06 -2.86989e-09 -1.17168e-07)
(3.21649e-06 1.30931e-09 -1.106e-07)
(3.36979e-06 9.90709e-08 -1.04304e-07)
(3.61321e-06 2.91305e-07 -1.00159e-07)
(3.99279e-06 5.08998e-07 -1.00753e-07)
(4.78155e-06 3.50966e-07 -1.08108e-07)
(2.92996e-06 5.11083e-07 -2.56832e-08)
(2.88977e-06 1.33289e-07 -4.07105e-08)
(2.96053e-06 1.32041e-09 -3.84484e-08)
(3.06379e-06 8.51266e-09 -3.16433e-08)
(3.22002e-06 1.04394e-07 -2.5656e-08)
(3.46692e-06 2.92004e-07 -2.27836e-08)
(3.8505e-06 5.03611e-07 -2.54788e-08)
(4.6344e-06 3.50252e-07 -3.31221e-08)
(2.83026e-06 4.9383e-07 -1.00801e-08)
(2.79327e-06 1.31973e-07 -1.39386e-08)
(2.86643e-06 6.19991e-09 -1.05911e-08)
(2.97221e-06 1.41025e-08 -5.62162e-09)
(3.13082e-06 1.07931e-07 -1.61749e-09)
(3.37952e-06 2.91483e-07 -2.13198e-10)
(3.76353e-06 4.98661e-07 -2.88963e-09)
(4.54055e-06 3.48498e-07 -8.58889e-09)
(2.77464e-06 4.87075e-07 -4.28221e-09)
(2.73892e-06 1.32783e-07 -5.19454e-09)
(2.81331e-06 9.63922e-09 -2.92471e-09)
(2.92072e-06 1.74869e-08 -1.21115e-10)
(3.08082e-06 1.09803e-07 1.98072e-09)
(3.33031e-06 2.90733e-07 2.516e-09)
(3.71371e-06 4.95236e-07 7.6665e-10)
(4.48554e-06 3.4675e-07 -2.61142e-09)
(2.74962e-06 4.8436e-07 -1.25773e-09)
(2.71442e-06 1.33333e-07 -1.45905e-09)
(2.78934e-06 1.12744e-08 -7.08214e-10)
(2.89751e-06 1.90083e-08 1.75772e-10)
(3.05831e-06 1.10568e-07 8.13107e-10)
(3.30806e-06 2.90269e-07 9.41127e-10)
(3.69096e-06 4.93534e-07 3.49004e-10)
(4.46014e-06 3.45717e-07 -7.61213e-10)
(3.65405e-08 1.68801e-06 4.7931e-06)
(7.7498e-08 8.15532e-07 4.47532e-06)
(8.39818e-08 5.0875e-07 4.56676e-06)
(7.76471e-08 4.42286e-07 4.71371e-06)
(6.9104e-08 4.71564e-07 4.889e-06)
(6.07094e-08 5.5681e-07 5.11023e-06)
(5.92702e-08 6.18329e-07 5.39313e-06)
(7.45492e-08 3.31464e-07 5.9335e-06)
(-5.45611e-08 1.56427e-06 4.29183e-06)
(-7.04199e-08 7.93265e-07 3.99426e-06)
(-7.3841e-08 4.96032e-07 4.01919e-06)
(-8.02326e-08 4.25693e-07 4.12253e-06)
(-8.83947e-08 4.54249e-07 4.2731e-06)
(-9.61837e-08 5.48768e-07 4.48514e-06)
(-9.55713e-08 6.37652e-07 4.79963e-06)
(-7.6531e-08 3.44459e-07 5.53146e-06)
(5.08181e-08 1.56293e-06 4.22632e-06)
(7.20051e-08 7.96209e-07 3.93064e-06)
(8.18245e-08 4.98919e-07 3.95326e-06)
(9.293e-08 4.27723e-07 4.05476e-06)
(1.04301e-07 4.55603e-07 4.20403e-06)
(1.14262e-07 5.49619e-07 4.41483e-06)
(1.14952e-07 6.37951e-07 4.72823e-06)
(9.60437e-08 3.4457e-07 5.46157e-06)
(-3.72951e-08 1.687e-06 4.60708e-06)
(-7.25294e-08 8.24229e-07 4.29701e-06)
(-7.31339e-08 5.1694e-07 4.38154e-06)
(-6.23889e-08 4.48161e-07 4.52318e-06)
(-5.07762e-08 4.75574e-07 4.69478e-06)
(-4.03106e-08 5.59409e-07 4.91277e-06)
(-3.76327e-08 6.19409e-07 5.19312e-06)
(-5.25826e-08 3.31832e-07 5.74028e-06)
(-4.3462e-06 1.32977e-06 -1.78845e-07)
(-4.04651e-06 3.22669e-07 -2.89148e-07)
(-4.13023e-06 -2.36227e-08 -3.06658e-07)
(-4.26118e-06 -5.89376e-08 -3.04946e-07)
(-4.4238e-06 3.14737e-08 -3.02833e-07)
(-4.64192e-06 2.10658e-07 -3.0074e-07)
(-4.92965e-06 4.10497e-07 -2.96138e-07)
(-5.47056e-06 2.62043e-07 -2.88238e-07)
(-3.56219e-06 9.16659e-07 -2.67654e-07)
(-3.36316e-06 2.12755e-07 -4.28204e-07)
(-3.40915e-06 -4.45004e-08 -4.56139e-07)
(-3.50681e-06 -6.62957e-08 -4.59183e-07)
(-3.65146e-06 2.46364e-08 -4.62415e-07)
(-3.87113e-06 2.10778e-07 -4.64418e-07)
(-4.20358e-06 4.29131e-07 -4.57412e-07)
(-4.9304e-06 2.70068e-07 -4.38519e-07)
(-3.08792e-06 6.33915e-07 -1.54906e-07)
(-2.99979e-06 1.34174e-07 -2.54197e-07)
(-3.05195e-06 -5.46084e-08 -2.67394e-07)
(-3.14309e-06 -6.52165e-08 -2.62448e-07)
(-3.28558e-06 2.62362e-08 -2.5795e-07)
(-3.51343e-06 2.15659e-07 -2.53689e-07)
(-3.872e-06 4.36397e-07 -2.4881e-07)
(-4.64477e-06 2.75115e-07 -2.48063e-07)
(-2.80624e-06 5.07555e-07 -6.49665e-08)
(-2.75588e-06 1.00259e-07 -1.06578e-07)
(-2.81603e-06 -5.2756e-08 -1.07169e-07)
(-2.90842e-06 -5.68534e-08 -9.78452e-08)
(-3.05241e-06 3.33945e-08 -8.93547e-08)
(-3.285e-06 2.19918e-07 -8.35939e-08)
(-3.6538e-06 4.34759e-07 -8.30923e-08)
(-4.43259e-06 2.7728e-07 -8.96788e-08)
(-2.64168e-06 4.62371e-07 -2.38497e-08)
(-2.6016e-06 9.19667e-08 -3.60205e-08)
(-2.6662e-06 -4.58784e-08 -3.12608e-08)
(-2.76134e-06 -4.74032e-08 -2.22743e-08)
(-2.90777e-06 4.04871e-08 -1.44885e-08)
(-3.143e-06 2.21922e-07 -1.02297e-08)
(-3.51442e-06 4.30313e-07 -1.19142e-08)
(-4.28655e-06 2.77369e-07 -1.87956e-08)
(-2.54585e-06 4.47683e-07 -8.95676e-09)
(-2.50891e-06 9.28445e-08 -1.09719e-08)
(-2.57578e-06 -3.90118e-08 -5.90844e-09)
(-2.6732e-06 -4.00819e-08 6.27899e-10)
(-2.82166e-06 4.54391e-08 5.96748e-09)
(-3.05814e-06 2.22493e-07 8.43743e-09)
(-3.42916e-06 4.26194e-07 6.57206e-09)
(-4.1933e-06 2.76327e-07 1.50534e-09)
(-2.49248e-06 4.42442e-07 -3.67998e-09)
(-2.45677e-06 9.50125e-08 -3.57495e-09)
(-2.5248e-06 -3.428e-08 -3.15248e-10)
(-2.62369e-06 -3.55278e-08 3.42541e-09)
(-2.77341e-06 4.82967e-08 6.34778e-09)
(-3.01035e-06 2.22527e-07 7.55332e-09)