/*--------------------------------*- C++ -*----------------------------------*\
| =========                 |                                                 |
| \\      /  F ield         | OpenFOAM: The Open Source CFD Toolbox           |
|  \\    /   O peration     | Version:  v1912                                 |
|   \\  /    A nd           | Website:  www.openfoam.com                      |
|    \\/     M anipulation  |                                                 |
\*---------------------------------------------------------------------------*/
FoamFile
{
    version     2.0;
    format      ascii;
    class       volVectorField;
    location    "0.7/solid";
    object      D_0;
}
// * * * * * * * * * * * * * * * * * * * * * * * * * * * * * * * * * * * * * //

dimensions      [0 1 0 0 0 0 0];


internalField   nonuniform List<vector> 
256
(
(2.6382e-08 3.80563e-08 2.8692e-08)
(3.2871e-09 2.21577e-08 2.60438e-08)
(-3.04639e-09 2.184e-08 2.59853e-08)
(-2.53848e-08 3.67106e-08 2.85877e-08)
(4.29109e-08 2.96701e-08 5.47572e-08)
(8.61062e-09 2.0096e-08 5.12601e-08)
(-7.1363e-09 1.95756e-08 5.12722e-08)
(-4.04285e-08 2.792e-08 5.48738e-08)
(4.52291e-08 1.53155e-08 6.88252e-08)
(1.00406e-08 1.15234e-08 6.50796e-08)
(-7.0579e-09 1.08738e-08 6.51792e-08)
(-4.12499e-08 1.32801e-08 6.9189e-08)
(4.47958e-08 2.66939e-09 7.9705e-08)
(1.01234e-08 5.89883e-10 7.55882e-08)
(-5.49285e-09 -1.64154e-10 7.57514e-08)
(-3.91734e-08 3.52583e-10 8.02518e-08)
(4.56687e-08 -9.29428e-09 9.04954e-08)
(1.06777e-08 -1.20788e-08 8.59412e-08)
(-4.27262e-09 -1.29311e-08 8.61476e-08)
(-3.82603e-08 -1.1884e-08 9.11691e-08)
(4.99427e-08 -2.25247e-08 1.02822e-07)
(1.26562e-08 -2.66731e-08 9.78615e-08)
(-4.35739e-09 -2.76248e-08 9.80973e-08)
(-4.06347e-08 -2.53829e-08 1.03584e-07)
(5.98185e-08 -4.30267e-08 1.17832e-07)
(1.66339e-08 -4.63555e-08 1.12885e-07)
(-6.36013e-09 -4.73915e-08 1.13139e-07)
(-4.85433e-08 -4.61175e-08 1.1865e-07)
(7.40423e-08 -9.47061e-08 1.33265e-07)
(2.0998e-08 -9.1309e-08 1.2925e-07)
(-8.79795e-09 -9.22025e-08 1.29505e-07)
(-6.08012e-08 -9.74624e-08 1.34095e-07)
(1.84073e-08 1.74128e-08 5.4128e-09)
(1.66e-09 4.3762e-09 6.6862e-09)
(-1.46693e-09 4.15109e-09 6.76935e-09)
(-1.74676e-08 1.6331e-08 5.65324e-09)
(3.0218e-08 1.20787e-08 2.15873e-08)
(5.43757e-09 4.06688e-09 2.40661e-08)
(-4.13102e-09 3.57615e-09 2.42427e-08)
(-2.7951e-08 1.04336e-08 2.20991e-08)
(3.15578e-08 2.56124e-09 3.49461e-08)
(6.47047e-09 -7.26392e-10 3.78334e-08)
(-3.77878e-09 -1.37842e-09 3.80847e-08)
(-2.79354e-08 5.45527e-10 3.56742e-08)
(3.08429e-08 -7.58393e-09 4.56187e-08)
(6.48133e-09 -9.49947e-09 4.85553e-08)
(-2.24711e-09 -1.02629e-08 4.88654e-08)
(-2.56856e-08 -9.90493e-09 4.65174e-08)
(3.14619e-08 -1.82968e-08 5.55135e-08)
(6.98021e-09 -2.1016e-08 5.8368e-08)
(-1.05428e-09 -2.18772e-08 5.87209e-08)
(-2.45955e-08 -2.08956e-08 5.65367e-08)
(3.55332e-08 -3.00538e-08 6.5778e-08)
(8.9044e-09 -3.42218e-08 6.85224e-08)
(-1.14694e-09 -3.51808e-08 6.89047e-08)
(-2.68181e-08 -3.29225e-08 6.68868e-08)
(4.55369e-08 -4.64484e-08 7.58663e-08)
(1.2888e-08 -4.97388e-08 7.8574e-08)
(-3.19769e-09 -5.07817e-08 7.89728e-08)
(-3.48844e-08 -4.95521e-08 7.70238e-08)
(6.04946e-08 -8.83391e-08 8.15733e-08)
(1.72985e-08 -8.40342e-08 8.43301e-08)
(-5.6999e-09 -8.49355e-08 8.47315e-08)
(-4.78904e-08 -9.11083e-08 8.274e-08)
(1.30137e-08 1.10669e-08 2.59181e-09)
(2.45148e-10 1.38174e-10 4.29151e-09)
(-1.26309e-10 -5.61883e-11 4.35588e-09)
(-1.21702e-08 1.00998e-08 2.77561e-09)
(2.13565e-08 3.10233e-09 1.33531e-08)
(2.56314e-09 -3.54138e-09 1.65611e-08)
(-1.46928e-09 -3.99604e-09 1.67066e-08)
(-1.93257e-08 1.58341e-09 1.37707e-08)
(2.20636e-08 -6.07319e-09 2.48774e-08)
(3.21556e-09 -8.885e-09 2.85689e-08)
(-8.52578e-10 -9.51044e-09 2.87726e-08)
(-1.87938e-08 -7.99338e-09 2.5466e-08)
(2.12913e-08 -1.48942e-08 3.51566e-08)
(3.17482e-09 -1.67118e-08 3.89549e-08)
(6.35755e-10 -1.74576e-08 3.92049e-08)
(-1.65809e-08 -1.71485e-08 3.58819e-08)
(2.18659e-08 -2.38101e-08 4.43832e-08)
(3.64112e-09 -2.65448e-08 4.81749e-08)
(1.78562e-09 -2.73939e-08 4.8461e-08)
(-1.55178e-08 -2.63628e-08 4.52148e-08)
(2.59469e-08 -3.29573e-08 5.27675e-08)
(5.53398e-09 -3.71769e-08 5.65188e-08)
(1.66685e-09 -3.81273e-08 5.68309e-08)
(-1.77993e-08 -3.57945e-08 5.36752e-08)
(3.61052e-08 -4.54646e-08 5.92212e-08)
(9.52266e-09 -4.88044e-08 6.2924e-08)
(-4.30301e-10 -4.9841e-08 6.3251e-08)
(-2.60502e-08 -4.85461e-08 6.01733e-08)
(5.12152e-08 -8.23645e-08 6.10304e-08)
(1.39499e-08 -7.80736e-08 6.47143e-08)
(-2.97775e-09 -7.89685e-08 6.50434e-08)
(-3.92261e-08 -8.51096e-08 6.19907e-08)
(1.05939e-08 9.10078e-09 2.45516e-09)
(-3.45503e-10 -6.179e-10 3.53808e-09)
(4.14102e-10 -8.00788e-10 3.58205e-09)
(-9.83273e-09 8.19414e-09 2.5835e-09)
(1.72797e-08 -5.04795e-10 1.04456e-08)
(1.24613e-09 -6.3367e-09 1.2509e-08)
(-3.16699e-10 -6.76479e-09 1.26154e-08)
(-1.54489e-08 -1.92781e-09 1.07549e-08)
(1.7777e-08 -1.0471e-08 1.96295e-08)
(1.71233e-09 -1.2996e-08 2.20016e-08)
(3.84526e-10 -1.3592e-08 2.21531e-08)
(-1.4803e-08 -1.22941e-08 2.0072e-08)
(1.71422e-08 -1.89604e-08 2.84572e-08)
(1.68561e-09 -2.07394e-08 3.08778e-08)
(1.77543e-09 -2.14596e-08 3.10649e-08)
(-1.28077e-08 -2.1132e-08 2.90064e-08)
(1.78547e-08 -2.66008e-08 3.63221e-08)
(2.1797e-09 -2.93694e-08 3.8717e-08)
(2.83112e-09 -3.0198e-08 3.89328e-08)
(-1.19459e-08 -2.90882e-08 3.69572e-08)
(2.20451e-08 -3.38279e-08 4.28112e-08)
(4.07898e-09 -3.80967e-08 4.51674e-08)
(2.65466e-09 -3.90309e-08 4.54048e-08)
(-1.43831e-08 -3.66152e-08 4.35107e-08)
(3.22307e-08 -4.42582e-08 4.7046e-08)
(8.03974e-09 -4.77202e-08 4.93754e-08)
(5.46086e-10 -4.87437e-08 4.96256e-08)
(-2.26923e-08 -4.73006e-08 4.77847e-08)
(4.71849e-08 -7.9063e-08 4.78651e-08)
(1.24266e-08 -7.51817e-08 5.02433e-08)
(-1.9925e-09 -7.60654e-08 5.04948e-08)
(-3.57339e-08 -8.1773e-08 4.86106e-08)
(9.67417e-09 8.30063e-09 2.24878e-09)
(-4.85919e-10 -8.09664e-10 2.79148e-09)
(5.23867e-10 -9.85005e-10 2.82172e-09)
(-8.97011e-09 7.43619e-09 2.33767e-09)
(1.57749e-08 -1.83024e-09 8.30769e-09)
(8.71213e-10 -7.26848e-09 9.33857e-09)
(-5.37234e-11 -7.67717e-09 9.41412e-09)
(-1.40888e-08 -3.18237e-09 8.52814e-09)
(1.62935e-08 -1.22587e-08 1.52032e-08)
(1.29293e-09 -1.46613e-08 1.63753e-08)
(6.12178e-10 -1.52332e-08 1.64845e-08)
(-1.35396e-08 -1.4003e-08 1.55233e-08)
(1.5842e-08 -2.07262e-08 2.20327e-08)
(1.30796e-09 -2.25111e-08 2.32045e-08)
(1.89262e-09 -2.32077e-08 2.33404e-08)
(-1.1793e-08 -2.2824e-08 2.24336e-08)
(1.67217e-08 -2.775e-08 2.81124e-08)
(1.84484e-09 -3.05529e-08 2.92471e-08)
(2.84949e-09 -3.13611e-08 2.94048e-08)
(-1.11519e-08 -3.01746e-08 2.85797e-08)
(2.10025e-08 -3.40526e-08 3.28908e-08)
(3.7533e-09 -3.83522e-08 3.39955e-08)
(2.61949e-09 -3.92695e-08 3.41701e-08)
(-1.37205e-08 -3.6789e-08 3.34093e-08)
(3.113e-08 -4.36744e-08 3.58038e-08)
(7.66855e-09 -4.72317e-08 3.69077e-08)
(5.21158e-10 -4.82413e-08 3.70925e-08)
(-2.20015e-08 -4.66761e-08 3.63546e-08)
(4.58774e-08 -7.75083e-08 3.64503e-08)
(1.20015e-08 -7.39855e-08 3.76217e-08)
(-1.99261e-09 -7.4858e-08 3.78072e-08)
(-3.48589e-08 -8.01842e-08 3.70068e-08)
(9.3245e-09 7.91317e-09 1.77245e-09)
(-4.87659e-10 -9.01014e-10 2.01884e-09)
(5.07119e-10 -1.07078e-09 2.03886e-09)
(-8.65655e-09 7.07812e-09 1.83098e-09)
(1.52688e-08 -2.28744e-09 6.09034e-09)
(8.24745e-10 -7.55521e-09 6.54807e-09)
(-7.95057e-11 -7.94992e-09 6.59869e-09)
(-1.36778e-08 -3.589e-09 6.23741e-09)
(1.58765e-08 -1.28168e-08 1.08718e-08)
(1.25684e-09 -1.51843e-08 1.13786e-08)
(5.19087e-10 -1.57384e-08 1.14524e-08)
(-1.32719e-08 -1.45031e-08 1.10877e-08)
(1.55736e-08 -2.12809e-08 1.56265e-08)
(1.31007e-09 -2.30885e-08 1.61155e-08)
(1.70948e-09 -2.3767e-08 1.6208e-08)
(-1.17232e-08 -2.33219e-08 1.58991e-08)
(1.65763e-08 -2.80947e-08 1.9856e-08)
(1.87787e-09 -3.09233e-08 2.03144e-08)
(2.5916e-09 -3.1715e-08 2.04223e-08)
(-1.12472e-08 -3.04688e-08 2.0176e-08)
(2.09047e-08 -3.41038e-08 2.31262e-08)
(3.78715e-09 -3.84149e-08 2.35683e-08)
(2.32513e-09 -3.9318e-08 2.36884e-08)
(-1.38969e-08 -3.6798e-08 2.34835e-08)
(3.09574e-08 -4.35056e-08 2.5104e-08)
(7.66012e-09 -4.71061e-08 2.55581e-08)
(2.40183e-10 -4.8104e-08 2.56856e-08)
(-2.21286e-08 -4.64728e-08 2.54853e-08)
(4.55365e-08 -7.68356e-08 2.56583e-08)
(1.19474e-08 -7.35185e-08 2.61661e-08)
(-2.25186e-09 -7.43814e-08 2.6294e-08)
(-3.48377e-08 -7.94829e-08 2.60441e-08)
(9.17395e-09 7.72616e-09 1.12154e-09)
(-4.71009e-10 -9.4372e-10 1.22599e-09)
(4.79991e-10 -1.10983e-09 1.23747e-09)
(-8.52694e-09 6.90944e-09 1.15485e-09)
(1.5082e-08 -2.42317e-09 3.71759e-09)
(8.40712e-10 -7.62049e-09 3.90541e-09)
(-1.38284e-10 -8.00611e-09 3.93457e-09)
(-1.35474e-08 -3.69224e-09 3.80181e-09)
(1.57634e-08 -1.29136e-08 6.52861e-09)
(1.28961e-09 -1.52776e-08 6.72911e-09)
(4.07469e-10 -1.582e-08 6.77186e-09)
(-1.32499e-08 -1.45621e-08 6.65303e-09)
(1.55539e-08 -2.13573e-08 9.31047e-09)
(1.36699e-09 -2.31851e-08 9.49569e-09)
(1.53941e-09 -2.38515e-08 9.5495e-09)
(-1.18272e-08 -2.33603e-08 9.46855e-09)
(1.66275e-08 -2.81312e-08 1.17822e-08)
(1.95088e-09 -3.09746e-08 1.19494e-08)
(2.37544e-09 -3.1755e-08 1.20125e-08)
(-1.14507e-08 -3.04706e-08 1.19687e-08)
(2.0975e-08 -3.41072e-08 1.36894e-08)
(3.8564e-09 -3.84184e-08 1.38503e-08)
(2.08774e-09 -3.93117e-08 1.39206e-08)
(-1.41432e-08 -3.67718e-08 1.38986e-08)
(3.09706e-08 -4.34939e-08 1.48568e-08)
(7.69993e-09 -4.71047e-08 1.50297e-08)
(1.17474e-11 -4.80943e-08 1.51045e-08)
(-2.23364e-08 -4.64366e-08 1.50809e-08)
(4.54385e-08 -7.65654e-08 1.52374e-08)
(1.19559e-08 -7.3341e-08 1.5442e-08)
(-2.46592e-09 -7.4197e-08 1.55171e-08)
(-3.49491e-08 -7.91924e-08 1.54643e-08)
(9.11118e-09 7.65087e-09 3.82653e-10)
(-4.62212e-10 -9.5823e-10 4.1178e-10)
(4.66471e-10 -1.12255e-09 4.15522e-10)
(-8.47378e-09 6.84289e-09 3.93467e-10)
(1.50086e-08 -2.45196e-09 1.24924e-09)
(8.51665e-10 -7.62323e-09 1.30043e-09)
(-1.69078e-10 -8.00436e-09 1.30996e-09)
(-1.35001e-08 -3.7052e-09 1.27665e-09)
(1.57265e-08 -1.28984e-08 2.17662e-09)
(1.30945e-09 -1.52645e-08 2.22986e-09)
(3.50445e-10 -1.58012e-08 2.24386e-09)
(-1.32558e-08 -1.45281e-08 2.21724e-09)
(1.55599e-08 -2.13252e-08 3.09055e-09)
(1.39759e-09 -2.31637e-08 3.13823e-09)
(1.45463e-09 -2.38241e-08 3.15589e-09)
(-1.18922e-08 -2.33093e-08 3.14233e-09)
(1.66642e-08 -2.81026e-08 3.90192e-09)
(1.98766e-09 -3.09524e-08 3.94388e-09)
(2.26928e-09 -3.17272e-08 3.96461e-09)
(-1.15611e-08 -3.04246e-08 3.96319e-09)
(2.10175e-08 -3.4101e-08 4.52878e-09)
(3.89001e-09 -3.84098e-08 4.5693e-09)
(1.97189e-09 -3.92981e-08 4.59247e-09)
(-1.42716e-08 -3.67504e-08 4.59766e-09)
(3.0984e-08 -4.35097e-08 4.91632e-09)
(7.71894e-09 -4.71199e-08 4.96157e-09)
(-1.0011e-10 -4.81053e-08 4.98625e-09)
(-2.24453e-08 -4.64398e-08 4.99022e-09)
(4.53974e-08 -7.64729e-08 5.05158e-09)
(1.19591e-08 -7.32807e-08 5.10713e-09)
(-2.5708e-09 -7.41332e-08 5.1319e-09)
(-3.50113e-08 -7.90893e-08 5.12645e-09)
)
;

boundaryField
{
    interface
    {
        type            solidTraction;
        traction        uniform (0 0 0);
        pressure        uniform 0;
        secondOrder     false;
        setEffectiveTraction false;
        relaxationFactor 1;
        value           nonuniform List<vector> 
192
(
(8.46119e-08 5.53795e-08 2.64741e-08)
(9.74522e-08 3.43818e-08 5.11075e-08)
(1.00897e-07 1.57868e-08 6.48905e-08)
(1.02183e-07 2.77937e-09 7.57382e-08)
(1.05165e-07 -8.00741e-09 8.65168e-08)
(1.12233e-07 -1.89871e-08 9.88436e-08)
(1.25743e-07 -3.70015e-08 1.13894e-07)
(1.46766e-07 -9.0529e-08 1.29417e-07)
(6.68453e-08 2.95691e-08 2.07052e-09)
(7.61395e-08 1.53663e-08 1.61983e-08)
(7.81231e-08 2.71745e-09 2.91543e-08)
(7.87196e-08 -7.60785e-09 3.97422e-08)
(8.12443e-08 -1.71241e-08 4.95624e-08)
(8.81619e-08 -2.65348e-08 5.97786e-08)
(1.02391e-07 -4.02077e-08 6.99376e-08)
(1.26457e-07 -8.40687e-08 7.58662e-08)
(5.54093e-08 1.96594e-08 6.38261e-10)
(6.26331e-08 5.36478e-09 1.01182e-08)
(6.4063e-08 -6.08948e-09 2.14318e-08)
(6.45243e-08 -1.49435e-08 3.17311e-08)
(6.69886e-08 -2.2646e-08 4.09811e-08)
(7.40397e-08 -2.93972e-08 4.93952e-08)
(8.87824e-08 -3.91472e-08 5.58944e-08)
(1.13606e-07 -7.8041e-08 5.77027e-08)
(4.93632e-08 1.60691e-08 1.62017e-09)
(5.54042e-08 1.29098e-09 9.05e-09)
(5.6726e-08 -1.05053e-08 1.81867e-08)
(5.73428e-08 -1.89409e-08 2.70947e-08)
(5.99708e-08 -2.53749e-08 3.50359e-08)
(6.72045e-08 -3.02336e-08 4.15749e-08)
(8.21267e-08 -3.79729e-08 4.5802e-08)
(1.06902e-07 -7.4723e-08 4.65304e-08)
(4.63125e-08 1.46629e-08 1.93137e-09)
(5.18978e-08 -1.75418e-10 7.80485e-09)
(5.32977e-08 -1.22418e-08 1.47279e-08)
(5.41349e-08 -2.0619e-08 2.16404e-08)
(5.69657e-08 -2.64597e-08 2.77927e-08)
(6.43317e-08 -3.04502e-08 3.26055e-08)
(7.9244e-08 -3.74552e-08 3.54853e-08)
(1.03753e-07 -7.31775e-08 3.6038e-08)
(4.4718e-08 1.40615e-08 1.64735e-09)
(5.01871e-08 -6.49456e-10 5.91703e-09)
(5.17056e-08 -1.27405e-08 1.07392e-08)
(5.27224e-08 -2.11058e-08 1.55544e-08)
(5.57052e-08 -2.67618e-08 1.98324e-08)
(6.31403e-08 -3.05082e-08 2.31192e-08)
(7.79823e-08 -3.73471e-08 2.50641e-08)
(1.02238e-07 -7.25265e-08 2.55485e-08)
(4.38727e-08 1.37901e-08 1.06818e-09)
(4.93216e-08 -7.75801e-10 3.65248e-09)
(5.09291e-08 -1.27956e-08 6.49106e-09)
(5.20591e-08 -2.11412e-08 9.30698e-09)
(5.5131e-08 -2.67757e-08 1.18041e-08)
(6.25945e-08 -3.05211e-08 1.37175e-08)
(7.73715e-08 -3.73775e-08 1.48634e-08)
(1.01452e-07 -7.2278e-08 1.52026e-08)
(4.34973e-08 1.36808e-08 3.66953e-10)
(4.8942e-08 -7.98134e-10 1.23088e-09)
(5.05926e-08 -1.27605e-08 2.16736e-09)
(5.17749e-08 -2.10907e-08 3.09203e-09)
(5.48859e-08 -2.6738e-08 3.91108e-09)
(6.23585e-08 -3.05207e-08 4.5394e-09)
(7.70997e-08 -3.74142e-08 4.91965e-09)
(1.01093e-07 -7.21983e-08 5.04129e-09)
(2.68295e-08 5.89188e-08 8.85966e-08)
(4.38625e-08 3.97036e-08 1.10693e-07)
(4.62613e-08 2.15526e-08 1.25902e-07)
(4.57513e-08 8.08704e-09 1.38614e-07)
(4.65208e-08 -3.51493e-09 1.51594e-07)
(5.06931e-08 -1.56905e-08 1.66693e-07)
(6.05521e-08 -3.54157e-08 1.85248e-07)
(7.49642e-08 -9.06226e-08 2.07426e-07)
(2.61081e-09 4.14837e-08 7.97009e-08)
(7.74008e-09 2.98551e-08 1.01207e-07)
(9.12995e-09 1.76056e-08 1.15343e-07)
(9.13591e-09 5.80536e-09 1.27144e-07)
(9.59169e-09 -6.5104e-09 1.39384e-07)
(1.1476e-08 -1.99371e-08 1.53966e-07)
(1.54615e-08 -3.85084e-08 1.72929e-07)
(2.00591e-08 -8.70665e-08 1.98412e-07)
(-2.41005e-09 4.11545e-08 7.88328e-08)
(-6.23214e-09 2.93742e-08 1.00431e-07)
(-6.02967e-09 1.69937e-08 1.14626e-07)
(-4.32603e-09 5.07799e-09 1.26469e-07)
(-2.96474e-09 -7.34464e-09 1.38735e-07)
(-2.92584e-09 -2.0877e-08 1.53332e-07)
(-4.91785e-09 -3.95395e-08 1.72299e-07)
(-7.58548e-09 -8.79581e-08 1.97804e-07)
(-2.58363e-08 5.7576e-08 8.61949e-08)
(-4.13062e-08 3.80705e-08 1.08606e-07)
(-4.21308e-08 1.96246e-08 1.23976e-07)
(-3.99197e-08 5.84761e-09 1.36806e-07)
(-3.88623e-08 -6.05093e-09 1.49868e-07)
(-4.11069e-08 -1.85127e-08 1.65015e-07)
(-4.89809e-08 -3.84898e-08 1.83595e-07)
(-6.1421e-08 -9.33732e-08 2.05871e-07)
(-7.97314e-08 5.31641e-08 2.63828e-08)
(-9.10279e-08 3.18865e-08 5.13158e-08)
(-9.28945e-08 1.29664e-08 6.54202e-08)
(-9.24527e-08 -3.94795e-10 7.6507e-08)
(-9.3573e-08 -1.15187e-08 8.74522e-08)
(-9.86808e-08 -2.28123e-08 9.98941e-08)
(-1.10193e-07 -4.1076e-08 1.15017e-07)
(-1.29202e-07 -9.42546e-08 1.30558e-07)
(-6.20404e-08 2.76857e-08 2.34954e-09)
(-7.0031e-08 1.30507e-08 1.68234e-08)
(-7.05906e-08 -2.08041e-11 3.00602e-08)
(-6.95624e-08 -1.07399e-08 4.08692e-08)
(-7.02834e-08 -2.06125e-08 5.08511e-08)
(-7.52596e-08 -3.03503e-08 6.11779e-08)
(-8.74842e-08 -4.4284e-08 7.14005e-08)
(-1.09549e-07 -8.78031e-08 7.73463e-08)
(-5.08265e-08 1.79738e-08 8.6686e-10)
(-5.68704e-08 3.23933e-09 1.06452e-08)
(-5.69895e-08 -8.67957e-09 2.21829e-08)
(-5.59165e-08 -1.79676e-08 3.26625e-08)
(-5.66366e-08 -2.60582e-08 4.20524e-08)
(-6.17709e-08 -3.31614e-08 5.05665e-08)
(-7.45022e-08 -4.31894e-08 5.71254e-08)
(-9.7307e-08 -8.17423e-08 5.89517e-08)
(-4.49729e-08 1.45146e-08 1.78344e-09)
(-4.99459e-08 -6.85244e-10 9.44562e-09)
(-5.00497e-08 -1.29544e-08 1.87584e-08)
(-4.92091e-08 -2.18463e-08 2.78094e-08)
(-5.01477e-08 -2.86944e-08 3.58658e-08)
(-5.54946e-08 -3.39286e-08 4.24911e-08)
(-6.84091e-08 -4.19629e-08 4.67726e-08)
(-9.11545e-08 -7.83782e-08 4.75189e-08)
(-4.20561e-08 1.32009e-08 2.04362e-09)
(-4.66593e-08 -2.04e-09 8.08539e-09)
(-4.69147e-08 -1.4577e-08 1.51406e-08)
(-4.63562e-08 -2.34209e-08 2.21625e-08)
(-4.75452e-08 -2.96927e-08 2.84051e-08)
(-5.3055e-08 -3.40766e-08 3.32878e-08)
(-6.59722e-08 -4.13914e-08 3.62137e-08)
(-8.84511e-08 -7.67872e-08 3.67829e-08)
(-4.05459e-08 1.26617e-08 1.72019e-09)
(-4.50911e-08 -2.43515e-09 6.10207e-09)
(-4.55178e-08 -1.49918e-08 1.10153e-08)
(-4.51851e-08 -2.38281e-08 1.59077e-08)
(-4.65636e-08 -2.99253e-08 2.02508e-08)
(-5.21692e-08 -3.40776e-08 2.35892e-08)
(-6.50315e-08 -4.12375e-08 2.55691e-08)
(-8.72631e-08 -7.60979e-08 2.60667e-08)
(-3.97495e-08 1.2428e-08 1.10916e-09)
(-4.43095e-08 -2.51151e-09 3.75741e-09)
(-4.48587e-08 -1.49921e-08 6.64901e-09)
(-4.46702e-08 -2.38101e-08 9.51083e-09)
(-4.61634e-08 -2.98916e-08 1.20472e-08)
(-5.18171e-08 -3.40503e-08 1.39923e-08)
(-6.46269e-08 -4.1235e-08 1.51601e-08)
(-8.66899e-08 -7.58218e-08 1.55077e-08)
(-3.93964e-08 1.23364e-08 3.80176e-10)
(-4.39687e-08 -2.5097e-09 1.26485e-09)
(-4.45772e-08 -1.49301e-08 2.21872e-09)
(-4.44563e-08 -2.3733e-08 3.15859e-09)
(-4.60019e-08 -2.98297e-08 3.99078e-09)
(-5.16748e-08 -3.40293e-08 4.62977e-09)
(-6.44558e-08 -4.12547e-08 5.01746e-09)
(-8.64356e-08 -7.57277e-08 5.14202e-09)
(7.52831e-08 -1.68914e-07 1.33715e-07)
(6.1555e-08 -1.55823e-07 7.84878e-08)
(5.23057e-08 -1.46357e-07 5.87113e-08)
(4.83859e-08 -1.40424e-07 4.6651e-08)
(4.71635e-08 -1.37011e-07 3.58934e-08)
(4.68631e-08 -1.35128e-07 2.54225e-08)
(4.67774e-08 -1.34142e-07 1.51467e-08)
(4.6738e-08 -1.33719e-07 5.02844e-09)
(2.03733e-08 -1.60517e-07 1.29552e-07)
(1.64486e-08 -1.44152e-07 8.10213e-08)
(1.31018e-08 -1.34314e-07 6.25012e-08)
(1.16781e-08 -1.28887e-07 4.92213e-08)
(1.13398e-08 -1.26018e-07 3.72059e-08)
(1.13347e-08 -1.24477e-07 2.60049e-08)
(1.13647e-08 -1.23659e-07 1.53826e-08)
(1.13751e-08 -1.233e-07 5.09207e-09)
(-7.25844e-09 -1.6054e-07 1.29811e-07)
(-3.93039e-09 -1.44159e-07 8.14231e-08)
(-1.21782e-09 -1.34322e-07 6.28259e-08)
(-3.43741e-10 -1.28891e-07 4.94672e-08)
(-4.42021e-10 -1.26014e-07 3.73863e-08)
(-7.59848e-10 -1.24465e-07 2.61288e-08)
(-1.00215e-09 -1.23641e-07 1.54551e-08)
(-1.11773e-09 -1.23278e-07 5.11595e-09)
(-6.10888e-08 -1.69262e-07 1.34551e-07)
(-4.79986e-08 -1.56087e-07 7.96519e-08)
(-3.93734e-08 -1.4661e-07 5.9657e-08)
(-3.60033e-08 -1.40658e-07 4.73794e-08)
(-3.52247e-08 -1.37218e-07 3.64344e-08)
(-3.52537e-08 -1.35311e-07 2.57962e-08)
(-3.53844e-08 -1.34308e-07 1.53659e-08)
(-3.5452e-08 -1.33875e-07 5.10069e-09)
)
;
        gradient        uniform (0 0 0);
    }
    symmetry
    {
        type            solidSymmetry;
        patchType       symmetry;
        secondOrder     false;
        value           nonuniform List<vector> 
32
(
(9.11118e-09 7.65087e-09 0)
(1.50086e-08 -2.45196e-09 0)
(1.57265e-08 -1.28984e-08 0)
(1.55599e-08 -2.13252e-08 0)
(1.66642e-08 -2.81026e-08 0)
(2.10175e-08 -3.4101e-08 0)
(3.0984e-08 -4.35097e-08 0)
(4.53974e-08 -7.64729e-08 0)
(-4.62212e-10 -9.5823e-10 0)
(8.51665e-10 -7.62323e-09 0)
(1.30945e-09 -1.52645e-08 0)
(1.39759e-09 -2.31637e-08 0)
(1.98766e-09 -3.09524e-08 0)
(3.89001e-09 -3.84098e-08 0)
(7.71894e-09 -4.71199e-08 0)
(1.19591e-08 -7.32807e-08 0)
(4.66471e-10 -1.12255e-09 0)
(-1.69078e-10 -8.00436e-09 0)
(3.50445e-10 -1.58012e-08 0)
(1.45463e-09 -2.38241e-08 0)
(2.26928e-09 -3.17272e-08 0)
(1.97189e-09 -3.92981e-08 0)
(-1.0011e-10 -4.81053e-08 0)
(-2.5708e-09 -7.41332e-08 0)
(-8.47378e-09 6.84289e-09 0)
(-1.35001e-08 -3.7052e-09 0)
(-1.32558e-08 -1.45281e-08 0)
(-1.18922e-08 -2.33093e-08 0)
(-1.15611e-08 -3.04246e-08 0)
(-1.42716e-08 -3.67504e-08 0)
(-2.24453e-08 -4.64398e-08 0)
(-3.50113e-08 -7.90893e-08 0)
)
;
    }
    bottom
    {
        type            fixedDisplacement;
        value           uniform (0 0 0);
    }
}


// ************************************************************************* //
