/*--------------------------------*- C++ -*----------------------------------*\
| =========                 |                                                 |
| \\      /  F ield         | OpenFOAM: The Open Source CFD Toolbox           |
|  \\    /   O peration     | Version:  v1912                                 |
|   \\  /    A nd           | Website:  www.openfoam.com                      |
|    \\/     M anipulation  |                                                 |
\*---------------------------------------------------------------------------*/
FoamFile
{
    version     2.0;
    format      ascii;
    class       volVectorField;
    location    "0.7/solid";
    object      D_0_0;
}
// * * * * * * * * * * * * * * * * * * * * * * * * * * * * * * * * * * * * * //

dimensions      [0 1 0 0 0 0 0];


internalField   nonuniform List<vector> 
256
(
(2.61406e-08 3.78076e-08 2.8402e-08)
(3.23117e-09 2.20029e-08 2.57707e-08)
(-2.97701e-09 2.16909e-08 2.57189e-08)
(-2.51483e-08 3.64819e-08 2.8318e-08)
(4.24681e-08 2.94632e-08 5.40878e-08)
(8.4965e-09 1.99706e-08 5.06169e-08)
(-6.99307e-09 1.94527e-08 5.06424e-08)
(-3.9982e-08 2.77185e-08 5.42453e-08)
(4.47448e-08 1.52954e-08 6.78888e-08)
(9.91743e-09 1.15398e-08 6.41761e-08)
(-6.88765e-09 1.08874e-08 6.42929e-08)
(-4.07445e-08 1.32483e-08 6.83053e-08)
(4.43222e-08 2.85968e-09 7.85439e-08)
(1.00139e-08 7.97822e-10 7.44694e-08)
(-5.31193e-09 3.5765e-11 7.46527e-08)
(-3.86547e-08 5.16017e-10 7.91518e-08)
(4.51979e-08 -8.87619e-09 8.91125e-08)
(1.05812e-08 -1.16368e-08 8.46123e-08)
(-4.07342e-09 -1.25021e-08 8.48411e-08)
(-3.77135e-08 -1.15069e-08 8.98544e-08)
(4.94256e-08 -2.18298e-08 1.01197e-07)
(1.25552e-08 -2.59433e-08 9.63004e-08)
(-4.115e-09 -2.69129e-08 9.65608e-08)
(-4.00036e-08 -2.47431e-08 1.02033e-07)
(5.91786e-08 -4.19236e-08 1.15941e-07)
(1.65034e-08 -4.52367e-08 1.11057e-07)
(-6.04088e-09 -4.62962e-08 1.11338e-07)
(-4.77438e-08 -4.50857e-08 1.16841e-07)
(7.32593e-08 -9.30261e-08 1.31161e-07)
(2.08383e-08 -8.96757e-08 1.27188e-07)
(-8.39132e-09 -9.06015e-08 1.27472e-07)
(-5.98053e-08 -9.58804e-08 1.32078e-07)
(1.82557e-08 1.73252e-08 5.29352e-09)
(1.62665e-09 4.36519e-09 6.55158e-09)
(-1.42815e-09 4.14205e-09 6.6376e-09)
(-1.73262e-08 1.62552e-08 5.54246e-09)
(2.99313e-08 1.20835e-08 2.12121e-08)
(5.3658e-09 4.13812e-09 2.36602e-08)
(-4.049e-09 3.64702e-09 2.38447e-08)
(-2.76754e-08 1.04382e-08 2.17469e-08)
(3.12463e-08 2.73466e-09 3.43347e-08)
(6.39358e-09 -5.23505e-10 3.71876e-08)
(-3.68141e-09 -1.17995e-09 3.74502e-08)
(-2.76245e-08 7.04553e-10 3.50959e-08)
(3.05459e-08 -7.21933e-09 4.47947e-08)
(6.41711e-09 -9.11988e-09 4.76991e-08)
(-2.14404e-09 -9.89225e-09 4.80229e-08)
(-2.53708e-08 -9.56838e-09 4.57341e-08)
(3.11707e-08 -1.77216e-08 5.44847e-08)
(6.92774e-09 -2.04171e-08 5.73116e-08)
(-9.36631e-10 -2.12919e-08 5.76804e-08)
(-2.42605e-08 -2.03619e-08 5.55552e-08)
(3.5197e-08 -2.9235e-08 6.4543e-08)
(8.84598e-09 -3.33658e-08 6.72646e-08)
(-9.89014e-10 -3.43429e-08 6.76649e-08)
(-2.64044e-08 -3.21586e-08 6.57052e-08)
(4.50687e-08 -4.5298e-08 7.44418e-08)
(1.27964e-08 -4.85728e-08 7.71293e-08)
(-2.96318e-09 -4.96388e-08 7.75479e-08)
(-3.42973e-08 -4.84713e-08 7.56582e-08)
(5.98592e-08 -8.67222e-08 8.00451e-08)
(1.71727e-08 -8.24847e-08 8.2782e-08)
(-5.37638e-09 -8.34168e-08 8.32039e-08)
(-4.70868e-08 -8.95849e-08 8.12735e-08)
(1.29351e-08 1.10412e-08 2.53284e-09)
(2.32784e-10 1.68795e-10 4.20922e-09)
(-1.12083e-10 -2.40419e-11 4.27553e-09)
(-1.21047e-08 1.0086e-08 2.72217e-09)
(2.1202e-08 3.21352e-09 1.31169e-08)
(2.53282e-09 -3.38035e-09 1.62802e-08)
(-1.43905e-09 -3.8357e-09 1.64311e-08)
(-1.91914e-08 1.69518e-09 1.355e-08)
(2.18983e-08 -5.78516e-09 2.44436e-08)
(3.18468e-09 -8.57395e-09 2.80844e-08)
(-8.17741e-10 -9.20372e-09 2.82963e-08)
(-1.8644e-08 -7.71794e-09 2.50557e-08)
(2.11414e-08 -1.44254e-08 3.45306e-08)
(3.15554e-09 -1.62288e-08 3.82784e-08)
(6.71962e-10 -1.69831e-08 3.85388e-08)
(-1.64333e-08 -1.67053e-08 3.52861e-08)
(2.17211e-08 -2.31567e-08 4.35759e-08)
(3.63199e-09 -2.58659e-08 4.73194e-08)
(1.83338e-09 -2.67278e-08 4.76178e-08)
(-1.53539e-08 -2.57478e-08 4.44435e-08)
(2.57552e-08 -3.21068e-08 5.17968e-08)
(5.51721e-09 -3.62861e-08 5.55028e-08)
(1.7526e-09 -3.72537e-08 5.58289e-08)
(-1.75587e-08 -3.49951e-08 5.27458e-08)
(3.57754e-08 -4.43532e-08 5.81307e-08)
(9.46987e-09 -4.7675e-08 6.17914e-08)
(-2.68569e-10 -4.87334e-08 6.21337e-08)
(-2.56339e-08 -4.74999e-08 5.91284e-08)
(5.0709e-08 -8.0863e-08 5.99103e-08)
(1.38595e-08 -7.66413e-08 6.35549e-08)
(-2.7269e-09 -7.75651e-08 6.38995e-08)
(-3.85878e-08 -8.36963e-08 6.09174e-08)
(1.05493e-08 9.09886e-09 2.40882e-09)
(-3.48235e-10 -5.77366e-10 3.47542e-09)
(4.17026e-10 -7.58501e-10 3.52085e-09)
(-9.80294e-09 8.20528e-09 2.54118e-09)
(1.71881e-08 -3.51521e-10 1.02639e-08)
(1.23561e-09 -6.14454e-09 1.22965e-08)
(-3.11987e-10 -6.57266e-09 1.24069e-08)
(-1.5383e-08 -1.77122e-09 1.05841e-08)
(1.76799e-08 -1.0133e-08 1.92898e-08)
(1.70281e-09 -1.26387e-08 2.16274e-08)
(3.87825e-10 -1.32382e-08 2.17849e-08)
(-1.47314e-08 -1.19654e-08 1.97493e-08)
(1.70575e-08 -1.84481e-08 2.79575e-08)
(1.68547e-09 -2.02123e-08 3.03444e-08)
(1.77793e-09 -2.09399e-08 3.05393e-08)
(-1.27396e-08 -2.06415e-08 2.8529e-08)
(1.77704e-08 -2.59257e-08 3.56742e-08)
(2.18695e-09 -2.86666e-08 3.80375e-08)
(2.84393e-09 -2.95068e-08 3.82627e-08)
(-1.18607e-08 -2.84474e-08 3.63365e-08)
(2.19098e-08 -3.29905e-08 4.20412e-08)
(4.07642e-09 -3.72164e-08 4.43683e-08)
(2.70411e-09 -3.81665e-08 4.46164e-08)
(-1.42208e-08 -3.58246e-08 4.27722e-08)
(3.19559e-08 -4.32011e-08 4.62022e-08)
(8.00004e-09 -4.66409e-08 4.85046e-08)
(6.69541e-10 -4.76847e-08 4.87665e-08)
(-2.23561e-08 -4.63041e-08 4.69757e-08)
(4.67353e-08 -7.76511e-08 4.70196e-08)
(1.23486e-08 -7.38297e-08 4.93713e-08)
(-1.78219e-09 -7.47409e-08 4.96345e-08)
(-3.51803e-08 -8.04449e-08 4.78006e-08)
(9.64112e-09 8.30737e-09 2.20883e-09)
(-4.86259e-10 -7.67184e-10 2.74316e-09)
(5.2352e-10 -9.40528e-10 2.77445e-09)
(-8.95292e-09 7.45701e-09 2.30058e-09)
(1.57035e-08 -1.66491e-09 8.16343e-09)
(8.65497e-10 -7.06921e-09 9.17904e-09)
(-5.71704e-11 -7.4772e-09 9.25739e-09)
(-1.40467e-08 -3.0112e-09 8.39155e-09)
(1.62161e-08 -1.19082e-08 1.4939e-08)
(1.28739e-09 -1.42924e-08 1.60948e-08)
(6.05073e-10 -1.48667e-08 1.62083e-08)
(-1.34943e-08 -1.36585e-08 1.52711e-08)
(1.57726e-08 -2.02073e-08 2.16463e-08)
(1.30921e-09 -2.19759e-08 2.28032e-08)
(1.88402e-09 -2.26788e-08 2.29447e-08)
(-1.17499e-08 -2.23231e-08 2.20631e-08)
(1.66477e-08 -2.70824e-08 2.76147e-08)
(1.85071e-09 -2.98556e-08 2.87365e-08)
(2.85079e-09 -3.06741e-08 2.89011e-08)
(-1.10899e-08 -2.95374e-08 2.81015e-08)
(2.08739e-08 -3.32418e-08 3.23067e-08)
(3.74746e-09 -3.74966e-08 3.34005e-08)
(2.65639e-09 -3.84284e-08 3.35829e-08)
(-1.3581e-08 -3.60211e-08 3.28482e-08)
(3.08626e-08 -4.26621e-08 3.51737e-08)
(7.62534e-09 -4.61936e-08 3.62676e-08)
(6.29658e-10 -4.72223e-08 3.6461e-08)
(-2.16915e-08 -4.57206e-08 3.57499e-08)
(4.54393e-08 -7.61561e-08 3.58248e-08)
(1.19203e-08 -7.26843e-08 3.69855e-08)
(-1.79994e-09 -7.35831e-08 3.71796e-08)
(-3.43379e-08 -7.89124e-08 3.64073e-08)
(9.29444e-09 7.92269e-09 1.74132e-09)
(-4.88143e-10 -8.58512e-10 1.98405e-09)
(5.06434e-10 -1.0261e-09 2.00477e-09)
(-8.643e-09 7.10241e-09 1.80176e-09)
(1.52013e-08 -2.1219e-09 5.98421e-09)
(8.18296e-10 -7.35723e-09 6.43577e-09)
(-8.42193e-11 -7.75069e-09 6.48826e-09)
(-1.36418e-08 -3.41576e-09 6.13636e-09)
(1.58005e-08 -1.24699e-08 1.0682e-08)
(1.24901e-09 -1.48186e-08 1.11828e-08)
(5.10252e-10 -1.53742e-08 1.12595e-08)
(-1.32322e-08 -1.41596e-08 1.09057e-08)
(1.55016e-08 -2.07712e-08 1.53519e-08)
(1.30686e-09 -2.25609e-08 1.58365e-08)
(1.69904e-09 -2.32448e-08 1.59327e-08)
(-1.1684e-08 -2.28272e-08 1.56352e-08)
(1.64958e-08 -2.74442e-08 1.95055e-08)
(1.87714e-09 -3.02415e-08 1.9961e-08)
(2.59085e-09 -3.10425e-08 2.00736e-08)
(-1.11875e-08 -2.98456e-08 1.98387e-08)
(2.07676e-08 -3.33185e-08 2.27188e-08)
(3.77338e-09 -3.75833e-08 2.31593e-08)
(2.35909e-09 -3.85001e-08 2.32847e-08)
(-1.37597e-08 -3.60525e-08 2.30916e-08)
(3.06826e-08 -4.25252e-08 2.46683e-08)
(7.60898e-09 -4.60979e-08 2.51211e-08)
(3.43704e-10 -4.71139e-08 2.52544e-08)
(-2.18242e-08 -4.55465e-08 2.50669e-08)
(4.50943e-08 -7.55222e-08 2.5227e-08)
(1.18586e-08 -7.22504e-08 2.57327e-08)
(-2.06632e-09 -7.31387e-08 2.58664e-08)
(-3.43277e-08 -7.82474e-08 2.56304e-08)
(9.14446e-09 7.73626e-09 1.10184e-09)
(-4.72e-10 -9.0169e-10 1.20486e-09)
(4.79559e-10 -1.06551e-09 1.21673e-09)
(-8.51435e-09 6.93474e-09 1.13623e-09)
(1.50142e-08 -2.26062e-09 3.65258e-09)
(8.32788e-10 -7.42573e-09 3.83826e-09)
(-1.42651e-10 -7.80972e-09 3.86849e-09)
(-1.35124e-08 -3.52083e-09 3.73968e-09)
(1.56851e-08 -1.25741e-08 6.41418e-09)
(1.27906e-09 -1.49183e-08 6.61305e-09)
(3.99027e-10 -1.54618e-08 6.65743e-09)
(-1.32102e-08 -1.42242e-08 6.54309e-09)
(1.54768e-08 -2.0859e-08 9.14663e-09)
(1.35959e-09 -2.26679e-08 9.33121e-09)
(1.52938e-09 -2.3339e-08 9.38716e-09)
(-1.17868e-08 -2.28752e-08 9.31077e-09)
(1.65394e-08 -2.74962e-08 1.15745e-08)
(1.94462e-09 -3.03073e-08 1.17421e-08)
(2.37492e-09 -3.10965e-08 1.18078e-08)
(-1.13889e-08 -2.9861e-08 1.17687e-08)
(2.08291e-08 -3.33405e-08 1.34495e-08)
(3.83627e-09 -3.76047e-08 1.36114e-08)
(2.12127e-09 -3.8511e-08 1.36848e-08)
(-1.40041e-08 -3.60429e-08 1.36677e-08)
(3.06879e-08 -4.25341e-08 1.46013e-08)
(7.64243e-09 -4.6116e-08 1.47753e-08)
(1.13469e-10 -4.71231e-08 1.48535e-08)
(-2.20324e-08 -4.5529e-08 1.48353e-08)
(4.49907e-08 -7.52759e-08 1.49847e-08)
(1.18609e-08 -7.20937e-08 1.51899e-08)
(-2.28361e-09 -7.29747e-08 1.52684e-08)
(-3.44429e-08 -7.79791e-08 1.52218e-08)
(9.08177e-09 7.66094e-09 3.7592e-10)
(-4.63488e-10 -9.16583e-10 4.04672e-10)
(4.66216e-10 -1.07856e-09 4.08545e-10)
(-8.46144e-09 6.86838e-09 3.87087e-10)
(1.49403e-08 -2.29167e-09 1.22735e-09)
(8.42917e-10 -7.43066e-09 1.27804e-09)
(-1.7313e-10 -7.81e-09 1.28791e-09)
(-1.34652e-08 -3.53549e-09 1.2557e-09)
(1.56465e-08 -1.25637e-08 2.1384e-09)
(1.29742e-09 -1.49096e-08 2.19136e-09)
(3.42392e-10 -1.54471e-08 2.20589e-09)
(-1.32156e-08 -1.41943e-08 2.18048e-09)
(1.54799e-08 -2.0834e-08 3.03613e-09)
(1.38802e-09 -2.2653e-08 3.08386e-09)
(1.44501e-09 -2.33178e-08 3.10222e-09)
(-1.18507e-08 -2.28304e-08 3.08987e-09)
(1.65721e-08 -2.74765e-08 3.8332e-09)
(1.97859e-09 -3.02934e-08 3.87555e-09)
(2.26906e-09 -3.10765e-08 3.89714e-09)
(-1.14977e-08 -2.98227e-08 3.89695e-09)
(2.0867e-08 -3.33439e-08 4.44963e-09)
(3.86669e-09 -3.76055e-08 4.49073e-09)
(2.00537e-09 -3.85064e-08 4.51491e-09)
(-1.41312e-08 -3.60302e-08 4.52145e-09)
(3.06972e-08 -4.256e-08 4.83216e-09)
(7.65822e-09 -4.61409e-08 4.878e-09)
(8.80395e-13 -4.71434e-08 4.90379e-09)
(-2.21411e-08 -4.55414e-08 4.90933e-09)
(4.49465e-08 -7.51949e-08 4.96837e-09)
(1.1861e-08 -7.20437e-08 5.02434e-09)
(-2.38993e-09 -7.29209e-08 5.05021e-09)
(-3.45067e-08 -7.78867e-08 5.04659e-09)
)
;

boundaryField
{
    interface
    {
        type            solidTraction;
        traction        uniform (0 0 0);
        pressure        uniform 0;
        secondOrder     false;
        setEffectiveTraction false;
        relaxationFactor 1;
        value           nonuniform List<vector> 
192
(
(8.4331e-08 5.49597e-08 2.62112e-08)
(9.69693e-08 3.41142e-08 5.04856e-08)
(1.0037e-07 1.5759e-08 6.40061e-08)
(1.01663e-07 2.973e-09 7.46289e-08)
(1.04647e-07 -7.60021e-09 8.51848e-08)
(1.11673e-07 -1.83344e-08 9.72677e-08)
(1.25066e-07 -3.59649e-08 1.12049e-07)
(1.45927e-07 -8.8889e-08 1.27354e-07)
(6.6686e-08 2.93719e-08 1.99192e-09)
(7.58414e-08 1.53311e-08 1.58952e-08)
(7.78001e-08 2.88831e-09 2.86226e-08)
(7.8411e-08 -7.23814e-09 3.89991e-08)
(8.09434e-08 -1.65587e-08 4.86151e-08)
(8.78222e-08 -2.57603e-08 5.8625e-08)
(1.0192e-07 -3.91321e-08 6.85907e-08)
(1.25783e-07 -8.24963e-08 7.44073e-08)
(5.5337e-08 1.95755e-08 6.06062e-10)
(6.24763e-08 5.45429e-09 9.93082e-09)
(6.38941e-08 -5.80031e-09 2.10517e-08)
(6.43705e-08 -1.44696e-08 3.11582e-08)
(6.68406e-08 -2.20031e-08 4.02255e-08)
(7.38479e-08 -2.8593e-08 4.84747e-08)
(8.84481e-08 -3.81143e-08 5.48522e-08)
(1.13056e-07 -7.65867e-08 5.66291e-08)
(4.93305e-08 1.60332e-08 1.58521e-09)
(5.53122e-08 1.43112e-09 8.88911e-09)
(5.6626e-08 -1.01657e-08 1.78691e-08)
(5.72541e-08 -1.84254e-08 2.66151e-08)
(5.9882e-08 -2.47125e-08 3.44056e-08)
(6.70653e-08 -2.94438e-08 4.08207e-08)
(8.18402e-08 -3.69943e-08 4.49738e-08)
(1.06401e-07 -7.33594e-08 4.5702e-08)
(4.62945e-08 1.46435e-08 1.89504e-09)
(5.18285e-08 -2.11694e-11 7.66661e-09)
(5.32193e-08 -1.18909e-08 1.4469e-08)
(5.40625e-08 -2.00993e-08 2.12572e-08)
(5.6887e-08 -2.58069e-08 2.72959e-08)
(6.41976e-08 -2.96877e-08 3.2021e-08)
(7.89615e-08 -3.65203e-08 3.48552e-08)
(1.03261e-07 -7.18737e-08 3.54145e-08)
(4.47044e-08 1.40466e-08 1.61711e-09)
(5.01233e-08 -4.9538e-10 5.81179e-09)
(5.16297e-08 -1.23948e-08 1.05491e-08)
(5.2648e-08 -2.05972e-08 1.52779e-08)
(5.56199e-08 -2.61275e-08 1.94784e-08)
(6.29964e-08 -2.97714e-08 2.27075e-08)
(7.76903e-08 -3.64431e-08 2.46245e-08)
(1.01741e-07 -7.12614e-08 2.51148e-08)
(4.38602e-08 1.37759e-08 1.04864e-09)
(4.92581e-08 -6.25467e-10 3.58727e-09)
(5.08512e-08 -1.24584e-08 6.3756e-09)
(5.19797e-08 -2.06453e-08 9.14114e-09)
(5.50377e-08 -2.6158e-08 1.15936e-08)
(6.24409e-08 -2.9803e-08 1.34743e-08)
(7.70702e-08 -3.64932e-08 1.46049e-08)
(1.00948e-07 -7.10366e-08 1.49477e-08)
(4.34849e-08 1.36664e-08 3.60239e-10)
(4.88783e-08 -6.50496e-10 1.20885e-09)
(5.05132e-08 -1.24287e-08 2.12873e-09)
(5.16924e-08 -2.06025e-08 3.03687e-09)
(5.47883e-08 -2.61295e-08 3.84135e-09)
(6.21997e-08 -2.98123e-08 4.4591e-09)
(7.67935e-08 -3.65397e-08 4.83445e-09)
(1.00586e-07 -7.09682e-08 4.95731e-09)
(2.65789e-08 5.84302e-08 8.82987e-08)
(4.34025e-08 3.9335e-08 1.10019e-07)
(4.57592e-08 2.14096e-08 1.24959e-07)
(4.52624e-08 8.16572e-09 1.37441e-07)
(4.6038e-08 -3.21294e-09 1.50199e-07)
(5.01673e-08 -1.51227e-08 1.65062e-07)
(5.99045e-08 -3.44325e-08 1.8336e-07)
(7.41708e-08 -8.90034e-08 2.05315e-07)
(2.56077e-09 4.10999e-08 7.94389e-08)
(7.6359e-09 2.9572e-08 1.00585e-07)
(9.01931e-09 1.7503e-08 1.14465e-07)
(9.042e-09 5.90696e-09 1.26053e-07)
(9.51428e-09 -6.17903e-09 1.38087e-07)
(1.13972e-08 -1.93322e-08 1.52448e-07)
(1.53536e-08 -3.75148e-08 1.71152e-07)
(1.99173e-08 -8.54972e-08 1.96372e-07)
(-2.33981e-09 4.07813e-08 7.85866e-08)
(-6.08522e-09 2.90963e-08 9.983e-08)
(-5.85447e-09 1.689e-08 1.13773e-07)
(-4.14043e-09 5.17285e-09 1.25405e-07)
(-2.76198e-09 -7.02509e-09 1.37469e-07)
(-2.68081e-09 -2.02889e-08 1.51847e-07)
(-4.59393e-09 -3.85684e-08 1.70559e-07)
(-7.16759e-09 -8.64207e-08 1.95802e-07)
(-2.5585e-08 5.71227e-08 8.59449e-08)
(-4.08309e-08 3.77154e-08 1.07998e-07)
(-4.15922e-08 1.9475e-08 1.23111e-07)
(-3.93673e-08 5.90331e-09 1.35721e-07)
(-3.82829e-08 -5.78648e-09 1.48568e-07)
(-4.04442e-08 -1.79966e-08 1.63488e-07)
(-4.81488e-08 -3.75746e-08 1.81818e-07)
(-6.03878e-08 -9.18506e-08 2.03877e-07)
(-7.95142e-08 5.27646e-08 2.61443e-08)
(-9.06002e-08 3.16177e-08 5.07445e-08)
(-9.24065e-08 1.29166e-08 6.46018e-08)
(-9.19491e-08 -2.41723e-10 7.54748e-08)
(-9.30422e-08 -1.11697e-08 8.62068e-08)
(-9.80726e-08 -2.22356e-08 9.84137e-08)
(-1.09423e-07 -4.01353e-08 1.13277e-07)
(-1.28225e-07 -9.27412e-08 1.28608e-07)
(-6.19457e-08 2.75057e-08 2.2815e-09)
(-6.97973e-08 1.30128e-08 1.65492e-08)
(-7.03222e-08 1.28447e-10 2.95708e-08)
(-6.92911e-08 -1.04094e-08 4.01787e-08)
(-6.99951e-08 -2.01035e-08 4.99653e-08)
(-7.49004e-08 -2.96494e-08 6.0094e-08)
(-8.69549e-08 -4.33008e-08 7.01308e-08)
(-1.08775e-07 -8.6351e-08 7.59692e-08)
(-5.08195e-08 1.791e-08 8.41334e-10)
(-5.67846e-08 3.33004e-09 1.04769e-08)
(-5.68876e-08 -8.40743e-09 2.18325e-08)
(-5.58175e-08 -1.75279e-08 3.21283e-08)
(-5.65233e-08 -2.54665e-08 4.13436e-08)
(-6.15859e-08 -3.24252e-08 4.96999e-08)
(-7.41402e-08 -4.22426e-08 5.61432e-08)
(-9.66908e-08 -8.04014e-08 5.7941e-08)
(-4.50064e-08 1.45018e-08 1.75322e-09)
(-4.99298e-08 -5.391e-10 9.298e-09)
(-5.00258e-08 -1.26262e-08 1.84619e-08)
(-4.91883e-08 -2.13591e-08 2.73582e-08)
(-5.01107e-08 -2.80771e-08 3.52705e-08)
(-5.5383e-08 -3.32008e-08 4.17778e-08)
(-6.81192e-08 -4.10642e-08 4.59902e-08)
(-9.06151e-08 -7.71219e-08 4.67382e-08)
(-4.21051e-08 1.32069e-08 2.01059e-09)
(-4.6669e-08 -1.87585e-09 7.95627e-09)
(-4.69183e-08 -1.42327e-08 1.48963e-08)
(-4.6361e-08 -2.29242e-08 2.17993e-08)
(-4.75306e-08 -2.90796e-08 2.79333e-08)
(-5.29638e-08 -3.33707e-08 3.27329e-08)
(-6.57046e-08 -4.05313e-08 3.5617e-08)
(-8.79413e-08 -7.55862e-08 3.61942e-08)
(-4.05997e-08 1.26736e-08 1.69211e-09)
(-4.51081e-08 -2.26845e-09 6.00278e-09)
(-4.55278e-08 -1.46491e-08 1.08347e-08)
(-4.5194e-08 -2.33384e-08 1.56444e-08)
(-4.65508e-08 -2.93267e-08 1.99135e-08)
(-5.2079e-08 -3.33933e-08 2.31975e-08)
(-6.47671e-08 -4.04044e-08 2.51521e-08)
(-8.6763e-08 -7.49321e-08 2.56567e-08)
(-3.98045e-08 1.24414e-08 1.09084e-09)
(-4.43279e-08 -2.34686e-09 3.69555e-09)
(-4.48691e-08 -1.46556e-08 6.53895e-09)
(-4.46777e-08 -2.33306e-08 9.35247e-09)
(-4.61479e-08 -2.93066e-08 1.18463e-08)
(-5.17239e-08 -3.3382e-08 1.37606e-08)
(-6.43615e-08 -4.04192e-08 1.49146e-08)
(-8.61929e-08 -7.46774e-08 1.52666e-08)
(-3.94516e-08 1.23501e-08 3.73858e-10)
(-4.39873e-08 -2.34695e-09 1.24391e-09)
(-4.4587e-08 -1.45979e-08 2.18183e-09)
(-4.44625e-08 -2.32598e-08 3.10586e-09)
(-4.59845e-08 -2.92526e-08 3.92417e-09)
(-5.15797e-08 -3.33694e-08 4.55322e-09)
(-6.41894e-08 -4.04474e-08 4.93653e-09)
(-8.59397e-08 -7.45935e-08 5.06254e-09)
(7.44918e-08 -1.67226e-07 1.31596e-07)
(6.09142e-08 -1.54208e-07 7.70043e-08)
(5.17931e-08 -1.44847e-07 5.76425e-08)
(4.79271e-08 -1.38994e-07 4.58428e-08)
(4.67139e-08 -1.35638e-07 3.52926e-08)
(4.64081e-08 -1.33793e-07 2.50069e-08)
(4.63162e-08 -1.3283e-07 1.49029e-08)
(4.62734e-08 -1.32418e-07 4.94811e-09)
(2.02332e-08 -1.58904e-07 1.27479e-07)
(1.63473e-08 -1.42653e-07 7.95234e-08)
(1.3036e-08 -1.32922e-07 6.13911e-08)
(1.1622e-08 -1.27562e-07 4.8382e-08)
(1.12779e-08 -1.24737e-07 3.65907e-08)
(1.12636e-08 -1.23226e-07 2.5585e-08)
(1.12865e-08 -1.22427e-07 1.51382e-08)
(1.12934e-08 -1.22077e-07 5.01184e-09)
(-6.83899e-09 -1.5897e-07 1.27767e-07)
(-3.60035e-09 -1.427e-07 7.99449e-08)
(-9.62207e-10 -1.32968e-07 6.17306e-08)
(-1.27459e-10 -1.27602e-07 4.8639e-08)
(-2.41984e-10 -1.24768e-07 3.67791e-08)
(-5.66142e-10 -1.23248e-07 2.57143e-08)
(-8.11331e-10 -1.22442e-07 1.52139e-08)
(-9.28247e-10 -1.22089e-07 5.03677e-09)
(-6.00539e-08 -1.67703e-07 1.32519e-07)
(-4.71606e-08 -1.54595e-07 7.82275e-08)
(-3.87014e-08 -1.45218e-07 5.86325e-08)
(-3.54147e-08 -1.39341e-07 4.66047e-08)
(-3.46676e-08 -1.35955e-07 3.5858e-08)
(-3.47071e-08 -1.34084e-07 2.53971e-08)
(-3.48416e-08 -1.33102e-07 1.51317e-08)
(-3.49107e-08 -1.32679e-07 5.0235e-09)
)
;
        gradient        uniform (0 0 0);
    }
    symmetry
    {
        type            solidSymmetry;
        patchType       symmetry;
        secondOrder     false;
        value           nonuniform List<vector> 
32
(
(9.08177e-09 7.66094e-09 0)
(1.49403e-08 -2.29167e-09 0)
(1.56465e-08 -1.25637e-08 0)
(1.54799e-08 -2.0834e-08 0)
(1.65721e-08 -2.74765e-08 0)
(2.0867e-08 -3.33439e-08 0)
(3.06972e-08 -4.256e-08 0)
(4.49465e-08 -7.51949e-08 0)
(-4.63488e-10 -9.16583e-10 0)
(8.42917e-10 -7.43066e-09 0)
(1.29742e-09 -1.49096e-08 0)
(1.38802e-09 -2.2653e-08 0)
(1.97859e-09 -3.02934e-08 0)
(3.86669e-09 -3.76055e-08 0)
(7.65822e-09 -4.61409e-08 0)
(1.1861e-08 -7.20437e-08 0)
(4.66216e-10 -1.07856e-09 0)
(-1.7313e-10 -7.81e-09 0)
(3.42392e-10 -1.54471e-08 0)
(1.44501e-09 -2.33178e-08 0)
(2.26906e-09 -3.10765e-08 0)
(2.00537e-09 -3.85064e-08 0)
(8.80395e-13 -4.71434e-08 0)
(-2.38993e-09 -7.29209e-08 0)
(-8.46144e-09 6.86838e-09 0)
(-1.34652e-08 -3.53549e-09 0)
(-1.32156e-08 -1.41943e-08 0)
(-1.18507e-08 -2.28304e-08 0)
(-1.14977e-08 -2.98227e-08 0)
(-1.41312e-08 -3.60302e-08 0)
(-2.21411e-08 -4.55414e-08 0)
(-3.45067e-08 -7.78867e-08 0)
)
;
    }
    bottom
    {
        type            fixedDisplacement;
        value           uniform (0 0 0);
    }
}


// ************************************************************************* //
