/*--------------------------------*- C++ -*----------------------------------*\
| =========                 |                                                 |
| \\      /  F ield         | OpenFOAM: The Open Source CFD Toolbox           |
|  \\    /   O peration     | Version:  v1912                                 |
|   \\  /    A nd           | Website:  www.openfoam.com                      |
|    \\/     M anipulation  |                                                 |
\*---------------------------------------------------------------------------*/
FoamFile
{
    version     2.0;
    format      ascii;
    class       volSymmTensorField;
    location    "0.7/solid";
    object      epsilon;
}
// * * * * * * * * * * * * * * * * * * * * * * * * * * * * * * * * * * * * * //

dimensions      [0 0 0 0 0 0 0];


internalField   nonuniform List<symmTensor> 
256
(
(-2.79635e-06 1.89933e-07 -7.15125e-08 1.36356e-06 2.13972e-07 -2.8655e-06)
(-5.94705e-07 -4.24828e-08 -3.01476e-08 8.50651e-07 2.11828e-07 -2.53581e-06)
(-5.7921e-07 4.23111e-08 2.87863e-08 8.33728e-07 2.12456e-07 -2.50014e-06)
(-2.62316e-06 -1.82953e-07 7.07628e-08 1.30114e-06 2.16446e-07 -2.76535e-06)
(-2.87579e-06 -1.10315e-09 -1.09124e-07 -4.59314e-07 2.58633e-08 -2.90687e-06)
(-1.01255e-06 -3.35739e-08 -4.97789e-08 -2.16059e-07 3.60681e-08 -2.54572e-06)
(-9.91873e-07 3.7868e-08 4.86307e-08 -2.2253e-07 3.71308e-08 -2.51051e-06)
(-2.69508e-06 3.55997e-09 1.08285e-07 -4.7247e-07 2.91485e-08 -2.80945e-06)
(-2.93937e-06 -2.8702e-08 -1.17458e-07 -5.47888e-07 -2.28301e-09 -2.9674e-06)
(-1.05872e-06 -2.96695e-08 -5.46485e-08 -3.96732e-07 -3.47354e-10 -2.55964e-06)
(-1.03827e-06 3.40973e-08 5.39354e-08 -4.01192e-07 3.68557e-10 -2.52353e-06)
(-2.75558e-06 3.04251e-08 1.16733e-07 -5.58569e-07 -6.9285e-12 -2.8671e-06)
(-2.99804e-06 -1.88372e-08 -1.21899e-07 -5.00899e-07 6.30332e-09 -3.04526e-06)
(-1.01877e-06 -2.23238e-08 -5.69569e-08 -4.80486e-07 3.82235e-09 -2.60715e-06)
(-9.98404e-07 2.56284e-08 5.64267e-08 -4.84332e-07 4.24691e-09 -2.5702e-06)
(-2.81089e-06 2.02674e-08 1.21248e-07 -5.11387e-07 7.74588e-09 -2.94255e-06)
(-3.089e-06 -2.13114e-09 -1.26605e-07 -5.13911e-07 2.63045e-08 -3.15115e-06)
(-1.01214e-06 -1.12316e-08 -5.95392e-08 -5.55611e-07 2.26309e-08 -2.69344e-06)
(-9.91534e-07 1.33314e-08 5.90324e-08 -5.59364e-07 2.28882e-08 -2.65584e-06)
(-2.89853e-06 3.11804e-09 1.25998e-07 -5.24166e-07 2.72242e-08 -3.04663e-06)
(-3.24729e-06 2.97522e-08 -1.30741e-07 -6.88253e-07 6.26816e-08 -3.30373e-06)
(-1.10109e-06 8.72964e-09 -6.20149e-08 -6.9897e-07 6.04514e-08 -2.83539e-06)
(-1.08035e-06 -8.27508e-09 6.14722e-08 -7.0243e-07 6.05964e-08 -2.79717e-06)
(-3.0542e-06 -2.9537e-08 1.30185e-07 -6.9766e-07 6.32298e-08 -3.19763e-06)
(-3.51235e-06 8.83485e-08 -1.29727e-07 -1.46311e-06 1.19889e-07 -3.54512e-06)
(-1.34258e-06 4.04219e-08 -6.17666e-08 -1.31062e-06 1.25107e-07 -3.09366e-06)
(-1.32196e-06 -4.27854e-08 6.11649e-08 -1.30916e-06 1.25113e-07 -3.05492e-06)
(-3.31798e-06 -8.92551e-08 1.29223e-07 -1.4602e-06 1.20022e-07 -3.43787e-06)
(-3.98432e-06 1.18708e-07 -1.18329e-07 -4.01361e-06 1.4713e-07 -4.01197e-06)
(-1.68032e-06 5.6851e-08 -5.64981e-08 -3.67683e-06 1.59666e-07 -3.67429e-06)
(-1.65881e-06 -5.57199e-08 5.57699e-08 -3.63858e-06 1.59603e-07 -3.63626e-06)
(-3.78695e-06 -1.17916e-07 1.17794e-07 -3.90886e-06 1.47058e-07 -3.90809e-06)
(-2.27517e-06 1.14183e-07 -5.47505e-08 5.91487e-07 2.82231e-09 -5.26566e-07)
(-4.01266e-07 -6.13699e-08 -1.71609e-08 1.67693e-07 9.08604e-08 -4.3883e-07)
(-3.86019e-07 6.29992e-08 1.91799e-08 1.53344e-07 9.46229e-08 -4.36277e-07)
(-2.10314e-06 -1.06706e-07 5.55435e-08 5.36723e-07 1.38933e-08 -5.20505e-07)
(-2.33726e-06 -1.42239e-08 -8.40927e-08 -3.02194e-07 3.13927e-08 -8.36666e-07)
(-6.94318e-07 -3.71406e-08 -3.45229e-08 -1.06288e-07 7.73308e-08 -7.01184e-07)
(-6.74681e-07 4.06226e-08 3.75862e-08 -1.14696e-07 7.96162e-08 -6.98354e-07)
(-2.16182e-06 1.6047e-08 8.51604e-08 -3.20341e-07 3.83791e-08 -8.30127e-07)
(-2.36956e-06 -2.999e-08 -8.81772e-08 -4.0039e-07 2.78277e-08 -8.88934e-07)
(-7.14885e-07 -2.92809e-08 -3.75494e-08 -2.77443e-07 4.23545e-08 -7.38558e-07)
(-6.95845e-07 3.1781e-08 4.11322e-08 -2.82721e-07 4.38861e-08 -7.36291e-07)
(-2.19195e-06 3.07608e-08 8.9371e-08 -4.13345e-07 3.26779e-08 -8.83845e-07)
(-2.40748e-06 -1.98839e-08 -8.94255e-08 -4.25135e-07 3.14189e-08 -9.01596e-07)
(-6.69788e-07 -2.19925e-08 -3.77308e-08 -4.13644e-07 3.36744e-08 -7.41478e-07)
(-6.50902e-07 2.3413e-08 4.16169e-08 -4.17641e-07 3.47299e-08 -7.39548e-07)
(-2.22639e-06 2.04945e-08 9.07275e-08 -4.36249e-07 3.48373e-08 -8.97398e-07)
(-2.48616e-06 -3.78131e-09 -9.17947e-08 -4.58418e-07 5.8177e-08 -9.33679e-07)
(-6.58495e-07 -1.17302e-08 -3.90417e-08 -5.03894e-07 5.66407e-08 -7.64762e-07)
(-6.39255e-07 1.23046e-08 4.30269e-08 -5.07618e-07 5.73508e-08 -7.62965e-07)
(-2.30088e-06 4.16978e-09 9.31752e-08 -4.68828e-07 6.04916e-08 -9.29868e-07)
(-2.6435e-06 2.91984e-08 -9.39043e-08 -5.74465e-07 1.01578e-07 -1.01409e-06)
(-7.43468e-07 8.00708e-09 -4.07408e-08 -5.8572e-07 9.92663e-08 -8.37713e-07)
(-7.23873e-07 -8.68816e-09 4.46811e-08 -5.89158e-07 9.96928e-08 -8.35973e-07)
(-2.45408e-06 -2.9381e-08 9.53462e-08 -5.83987e-07 1.02973e-07 -1.0105e-06)
(-2.93489e-06 9.32107e-08 -9.28065e-08 -1.18153e-06 1.36387e-07 -1.1881e-06)
(-9.8867e-07 4.13466e-08 -4.08088e-08 -1.01003e-06 1.36349e-07 -1.01305e-06)
(-9.68942e-07 -4.4454e-08 4.45684e-08 -1.00863e-06 1.36491e-07 -1.01135e-06)
(-2.74252e-06 -9.43683e-08 9.42735e-08 -1.17876e-06 1.36913e-07 -1.18468e-06)
(-3.51412e-06 1.2995e-07 -8.77183e-08 -3.54643e-06 1.20671e-07 -1.46418e-06)
(-1.34289e-06 6.19577e-08 -3.9586e-08 -3.09639e-06 1.25742e-07 -1.3086e-06)
(-1.32218e-06 -6.11133e-08 4.30294e-08 -3.05727e-06 1.25738e-07 -1.30685e-06)
(-3.31849e-06 -1.29282e-07 8.91123e-08 -3.43784e-06 1.20747e-07 -1.46073e-06)
(-1.95232e-06 6.31731e-08 -2.23668e-08 2.81707e-07 7.84149e-08 -6.06069e-08)
(-2.64658e-07 -8.32868e-08 -2.50756e-09 -7.18435e-08 1.61672e-07 -6.43959e-08)
(-2.49865e-07 8.36468e-08 3.72186e-09 -8.484e-08 1.6412e-07 -6.51506e-08)
(-1.78586e-06 -5.64647e-08 2.26581e-08 2.31741e-07 8.59544e-08 -6.27579e-08)
(-2.02957e-06 -2.12449e-08 -3.31315e-08 -3.49014e-07 9.92674e-08 -2.26692e-07)
(-4.60218e-07 -4.15793e-08 -8.6007e-09 -1.86022e-07 1.41525e-07 -2.34992e-07)
(-4.41078e-07 4.42643e-08 1.04113e-08 -1.94524e-07 1.43478e-07 -2.36317e-07)
(-1.8591e-06 2.27353e-08 3.36517e-08 -3.67581e-07 1.05316e-07 -2.30499e-07)
(-2.05984e-06 -2.86923e-08 -3.25438e-08 -3.67026e-07 8.99483e-08 -3.11749e-07)
(-4.62351e-07 -2.8549e-08 -8.87762e-09 -2.69796e-07 1.03634e-07 -3.22044e-07)
(-4.43821e-07 3.0259e-08 1.08016e-08 -2.7546e-07 1.05179e-07 -3.23932e-07)
(-1.88709e-06 2.91371e-08 3.31293e-08 -3.81205e-07 9.47481e-08 -3.17132e-07)
(-2.09449e-06 -1.94085e-08 -3.10669e-08 -3.61992e-07 8.35336e-08 -3.49698e-07)
(-4.16868e-07 -2.16502e-08 -7.7147e-09 -3.60489e-07 8.58743e-08 -3.59981e-07)
(-3.98484e-07 2.22799e-08 9.69455e-09 -3.64791e-07 8.7073e-08 -3.62317e-07)
(-1.9181e-06 1.97082e-08 3.16873e-08 -3.74119e-07 8.72648e-08 -3.56313e-07)
(-2.17232e-06 -4.11385e-09 -3.06633e-08 -3.68852e-07 9.54927e-08 -3.91418e-07)
(-4.055e-07 -1.23956e-08 -7.46723e-09 -4.17391e-07 9.44355e-08 -4.00529e-07)
(-3.86681e-07 1.22706e-08 9.45946e-09 -4.21307e-07 9.53245e-08 -4.03135e-07)
(-1.99119e-06 4.26093e-09 3.13144e-08 -3.79985e-07 9.82434e-08 -3.98772e-07)
(-2.33555e-06 2.95156e-08 -3.0471e-08 -4.42213e-07 1.13257e-07 -4.68593e-07)
(-4.91186e-07 7.32194e-09 -7.86776e-09 -4.54154e-07 1.11241e-07 -4.76224e-07)
(-4.71844e-07 -8.56039e-09 9.79823e-09 -4.5772e-07 1.11842e-07 -4.78975e-07)
(-2.14914e-06 -2.98504e-08 3.11486e-08 -4.52243e-07 1.15098e-07 -4.76332e-07)
(-2.64453e-06 9.43076e-08 -3.00397e-08 -1.00107e-06 1.06931e-07 -5.87948e-07)
(-7.40524e-07 4.11623e-08 -8.43522e-09 -8.28726e-07 1.04414e-07 -5.95371e-07)
(-7.20818e-07 -4.46745e-08 1.01641e-08 -8.27374e-07 1.04734e-07 -5.98179e-07)
(-2.45346e-06 -9.55389e-08 3.07129e-08 -9.98482e-07 1.07923e-07 -5.9583e-07)
(-3.25097e-06 1.30948e-07 -3.02347e-08 -3.30583e-06 6.5777e-08 -6.87722e-07)
(-1.09889e-06 6.21218e-08 -8.82921e-09 -2.83953e-06 6.34073e-08 -6.95157e-07)
(-1.07798e-06 -6.14134e-08 1.01082e-08 -2.80071e-06 6.34987e-08 -6.97976e-07)
(-3.05502e-06 -1.3028e-07 3.07966e-08 -3.19778e-06 6.60972e-08 -6.95611e-07)
(-1.76997e-06 4.24456e-08 -5.93234e-09 1.68935e-07 1.03286e-07 -7.2426e-09)
(-2.04553e-07 -9.03061e-08 3.98436e-09 -1.4369e-07 1.53599e-07 -3.06746e-08)
(-1.90401e-07 8.92986e-08 -3.09977e-09 -1.55944e-07 1.55233e-07 -3.13389e-08)
(-1.60859e-06 -3.66322e-08 6.0687e-09 1.22015e-07 1.08513e-07 -9.08651e-09)
(-1.84734e-06 -2.25224e-08 -7.37929e-09 -3.98169e-07 1.24788e-07 -1.02741e-07)
(-3.53877e-07 -4.23353e-08 4.7985e-09 -2.53841e-07 1.50072e-07 -1.46858e-07)
(-3.35447e-07 4.41384e-08 -3.46416e-09 -2.61998e-07 1.51547e-07 -1.48202e-07)
(-1.6818e-06 2.36591e-08 7.66431e-09 -4.16048e-07 1.29413e-07 -1.06527e-07)
(-1.88118e-06 -2.61614e-08 -5.22243e-09 -3.7624e-07 1.20795e-07 -1.96859e-07)
(-3.49895e-07 -2.7075e-08 6.03858e-09 -2.947e-07 1.28532e-07 -2.47921e-07)
(-3.31961e-07 2.8244e-08 -4.74116e-09 -3.00392e-07 1.29817e-07 -2.49731e-07)
(-1.71313e-06 2.64201e-08 5.53028e-09 -3.90704e-07 1.24769e-07 -2.01993e-07)
(-1.91908e-06 -1.76129e-08 -3.10422e-09 -3.29297e-07 1.11164e-07 -2.67244e-07)
(-3.09129e-07 -2.05565e-08 7.45865e-09 -3.34323e-07 1.11667e-07 -3.20473e-07)
(-2.91278e-07 2.08071e-08 -6.25417e-09 -3.38809e-07 1.12745e-07 -3.22657e-07)
(-1.74719e-06 1.77802e-08 3.39784e-09 -3.42073e-07 1.14476e-07 -2.73443e-07)
(-2.00024e-06 -3.19542e-09 -1.81074e-09 -3.03821e-07 1.06676e-07 -3.31571e-07)
(-3.02466e-07 -1.21714e-08 8.21079e-09 -3.54157e-07 1.05262e-07 -3.85403e-07)
(-2.8412e-07 1.17502e-08 -7.07704e-09 -3.58269e-07 1.0612e-07 -3.87858e-07)
(-1.8232e-06 3.25093e-09 2.09455e-09 -3.15622e-07 1.09286e-07 -3.38523e-07)
(-2.16859e-06 2.97091e-08 -1.18488e-09 -3.60766e-07 9.86178e-08 -4.05217e-07)
(-3.91548e-07 6.77046e-09 8.19992e-09 -3.74517e-07 9.70709e-08 -4.58817e-07)
(-3.72578e-07 -8.24565e-09 -7.15531e-09 -3.78236e-07 9.7695e-08 -4.6144e-07)
(-1.98552e-06 -3.00889e-08 1.46346e-09 -3.71329e-07 1.00499e-07 -4.12626e-07)
(-2.4849e-06 9.24013e-08 -1.62363e-09 -9.16117e-07 7.01721e-08 -4.77495e-07)
(-6.41656e-07 3.93492e-08 7.30906e-09 -7.51103e-07 6.81115e-08 -5.30096e-07)
(-6.22152e-07 -4.30486e-08 -6.47469e-09 -7.49855e-07 6.84842e-08 -5.32802e-07)
(-2.29591e-06 -9.36341e-08 1.86946e-09 -9.13821e-07 7.13057e-08 -4.8511e-07)
(-3.09331e-06 1.27109e-07 -2.98068e-09 -3.15833e-06 3.32295e-08 -5.01432e-07)
(-9.9666e-07 5.96796e-08 6.86509e-09 -2.70192e-06 2.97828e-08 -5.52235e-07)
(-9.75749e-07 -5.90569e-08 -6.5104e-09 -2.66341e-06 2.98945e-08 -5.54963e-07)
(-2.89792e-06 -1.26424e-07 3.08345e-09 -3.05099e-06 3.35985e-08 -5.09081e-07)
(-1.66883e-06 3.63149e-08 -9.08378e-10 1.26011e-07 9.54009e-08 -1.39573e-08)
(-1.83668e-07 -8.93081e-08 4.35669e-09 -1.66344e-07 1.20508e-07 -3.09363e-08)
(-1.7004e-07 8.74023e-08 -3.68262e-09 -1.78078e-07 1.21654e-07 -3.14003e-08)
(-1.51107e-06 -3.11483e-08 1.0209e-09 8.12795e-08 9.90857e-08 -1.53102e-08)
(-1.74427e-06 -2.13976e-08 2.87239e-10 -4.17997e-07 1.13817e-07 -8.86053e-08)
(-3.17953e-07 -4.09687e-08 6.93156e-09 -2.83504e-07 1.25896e-07 -1.21204e-07)
(-3.00174e-07 4.20868e-08 -5.86523e-09 -2.91344e-07 1.26973e-07 -1.22277e-07)
(-1.58241e-06 2.22431e-08 -5.4125e-11 -4.35191e-07 1.17208e-07 -9.17296e-08)
(-1.78172e-06 -2.38811e-08 2.27641e-09 -3.8494e-07 1.16104e-07 -1.78127e-07)
(-3.15066e-07 -2.56035e-08 8.35873e-09 -3.11519e-07 1.19088e-07 -2.15999e-07)
(-2.97697e-07 2.63377e-08 -7.33307e-09 -3.17135e-07 1.20064e-07 -2.17488e-07)
(-1.61718e-06 2.39903e-08 -2.03414e-09 -3.99368e-07 1.19134e-07 -1.82475e-07)
(-1.824e-06 -1.58857e-08 3.95948e-09 -3.16133e-07 1.08227e-07 -2.61083e-07)
(-2.8025e-07 -1.95067e-08 9.44139e-09 -3.24352e-07 1.07502e-07 -3.0029e-07)
(-2.62896e-07 1.95005e-08 -8.54385e-09 -3.28917e-07 1.08357e-07 -3.02101e-07)
(-1.65542e-06 1.59685e-08 -3.74857e-09 -3.29238e-07 1.1086e-07 -2.66377e-07)
(-1.90916e-06 -2.22873e-09 5.06385e-09 -2.72343e-07 9.58428e-08 -3.35225e-07)
(-2.79002e-07 -1.17759e-08 1.00419e-08 -3.23191e-07 9.44975e-08 -3.74517e-07)
(-2.61105e-07 1.11945e-08 -9.25513e-09 -3.27437e-07 9.52087e-08 -3.76578e-07)
(-1.73514e-06 2.23897e-09 -4.88312e-09 -2.8461e-07 9.80112e-08 -3.41244e-07)
(-2.0809e-06 2.95542e-08 5.46448e-09 -3.25367e-07 7.598e-08 -4.00896e-07)
(-3.71008e-07 6.25635e-09 1.00153e-08 -3.40367e-07 7.51883e-08 -4.39717e-07)
(-3.52422e-07 -7.84675e-09 -9.33945e-09 -3.44218e-07 7.57289e-08 -4.41953e-07)
(-1.90036e-06 -2.99486e-08 -5.30909e-09 -3.36371e-07 7.76178e-08 -4.07416e-07)
(-2.39894e-06 9.0065e-08 4.77159e-09 -8.79873e-07 4.42948e-08 -4.46938e-07)
(-6.19687e-07 3.74929e-08 9.21668e-09 -7.2155e-07 4.3514e-08 -4.84948e-07)
(-6.00457e-07 -4.12902e-08 -8.74193e-09 -7.20412e-07 4.38506e-08 -4.87283e-07)
(-2.21167e-06 -9.1291e-08 -4.66571e-09 -8.77902e-07 4.533e-08 -4.53731e-07)
(-3.00179e-06 1.23255e-07 3.54161e-09 -3.0644e-06 1.80455e-08 -4.52363e-07)
(-9.69928e-07 5.73515e-08 8.90474e-09 -2.62092e-06 1.58334e-08 -4.90248e-07)
(-9.49157e-07 -5.6792e-08 -8.85698e-09 -2.5826e-06 1.59359e-08 -4.92598e-07)
(-2.80709e-06 -1.22567e-07 -3.5814e-09 -2.9575e-06 1.83827e-08 -4.59195e-07)
(-1.61196e-06 3.49901e-08 -1.8237e-11 1.09056e-07 7.42101e-08 -2.29465e-08)
(-1.76942e-07 -8.67398e-08 2.84814e-09 -1.73881e-07 8.57899e-08 -3.18479e-08)
(-1.63663e-07 8.42925e-08 -2.37122e-09 -1.8524e-07 8.65597e-08 -3.22101e-08)
(-1.45648e-06 -3.02318e-08 1.1211e-10 6.58727e-08 7.66613e-08 -2.4022e-08)
(-1.68674e-06 -2.00069e-08 1.15701e-09 -4.21285e-07 8.66649e-08 -9.33736e-08)
(-3.08243e-07 -3.9437e-08 4.84192e-09 -2.92077e-07 9.17165e-08 -1.10494e-07)
(-2.90916e-07 4.0105e-08 -4.05402e-09 -2.99685e-07 9.24544e-08 -1.11387e-07)
(-1.52723e-06 2.06566e-08 -9.62688e-10 -4.37944e-07 8.89776e-08 -9.6001e-08)
(-1.72697e-06 -2.23158e-08 2.48121e-09 -3.86706e-07 9.05891e-08 -1.76461e-07)
(-3.08522e-07 -2.45647e-08 5.85091e-09 -3.17209e-07 9.12587e-08 -1.96184e-07)
(-2.91553e-07 2.49789e-08 -5.07828e-09 -3.2275e-07 9.19394e-08 -1.97459e-07)
(-1.56468e-06 2.23122e-08 -2.27773e-09 -4.01031e-07 9.2705e-08 -1.80224e-07)
(-1.77276e-06 -1.47307e-08 3.53237e-09 -3.116e-07 8.53275e-08 -2.5886e-07)
(-2.78553e-07 -1.88423e-08 6.49721e-09 -3.21056e-07 8.43568e-08 -2.78872e-07)
(-2.6155e-07 1.86373e-08 -5.83076e-09 -3.25651e-07 8.49667e-08 -2.80444e-07)
(-1.60625e-06 1.47472e-08 -3.35791e-09 -3.24865e-07 8.72133e-08 -2.63517e-07)
(-1.86099e-06 -1.61743e-09 4.21025e-09 -2.61951e-07 7.28249e-08 -3.3236e-07)
(-2.81334e-07 -1.15411e-08 6.82499e-09 -3.12569e-07 7.18958e-08 -3.51967e-07)
(-2.63751e-07 1.0841e-08 -6.26488e-09 -3.16897e-07 7.24161e-08 -3.53776e-07)
(-1.68882e-06 1.59336e-09 -4.06841e-09 -2.74511e-07 7.44213e-08 -3.3773e-07)
(-2.03458e-06 2.92963e-08 4.38707e-09 -3.14798e-07 5.32147e-08 -3.90857e-07)
(-3.75049e-07 5.86e-09 6.75677e-09 -3.30163e-07 5.30212e-08 -4.09968e-07)
(-3.56732e-07 -7.52859e-09 -6.30269e-09 -3.34109e-07 5.34268e-08 -4.11957e-07)
(-1.85558e-06 -2.97026e-08 -4.27575e-09 -3.2612e-07 5.44553e-08 -3.96758e-07)
(-2.35217e-06 8.83719e-08 3.83363e-09 -8.65126e-07 2.78858e-08 -4.26372e-07)
(-6.21899e-07 3.62638e-08 6.22551e-09 -7.10778e-07 2.79775e-08 -4.45209e-07)
(-6.02871e-07 -4.01261e-08 -5.93805e-09 -7.09727e-07 2.82355e-08 -4.47303e-07)
(-2.16596e-06 -8.95975e-08 -3.77136e-09 -8.6342e-07 2.86915e-08 -4.32594e-07)
(-2.94906e-06 1.20701e-07 2.95313e-09 -3.00583e-06 1.05246e-08 -4.31659e-07)
(-9.68231e-07 5.58785e-08 6.00047e-09 -2.57122e-06 9.5347e-09 -4.51214e-07)
(-9.47584e-07 -5.5366e-08 -6.04451e-09 -2.53299e-06 9.61482e-09 -4.53318e-07)
(-2.75479e-06 -1.20019e-07 -3.01267e-09 -2.8992e-06 1.07902e-08 -4.37934e-07)
(-1.58079e-06 3.47545e-08 -1.0812e-11 1.02648e-07 4.66022e-08 -2.82796e-08)
(-1.74466e-07 -8.49054e-08 1.43147e-09 -1.75969e-07 5.1625e-08 -3.26895e-08)
(-1.61394e-07 8.21537e-08 -1.14703e-09 -1.87082e-07 5.20692e-08 -3.30034e-08)
(-1.42663e-06 -3.02313e-08 7.28099e-11 6.04488e-08 4.80016e-08 -2.92026e-08)
(-1.65548e-06 -1.9098e-08 6.02651e-10 -4.19326e-07 5.34161e-08 -9.84917e-08)
(-3.05692e-07 -3.84597e-08 2.47182e-09 -2.92969e-07 5.5345e-08 -1.06734e-07)
(-2.88634e-07 3.88656e-08 -1.98802e-09 -3.00426e-07 5.57757e-08 -1.07526e-07)
(-1.49735e-06 1.96337e-08 -4.7294e-10 -4.35619e-07 5.47582e-08 -1.00801e-07)
(-1.69749e-06 -2.14281e-08 1.29208e-09 -3.85351e-07 5.62122e-08 -1.76912e-07)
(-3.08547e-07 -2.39887e-08 2.99959e-09 -3.17696e-07 5.61729e-08 -1.86091e-07)
(-2.91819e-07 2.41999e-08 -2.51564e-09 -3.23182e-07 5.65744e-08 -1.87241e-07)
(-1.53651e-06 2.13523e-08 -1.15375e-09 -3.99581e-07 5.74596e-08 -1.80286e-07)
(-1.7455e-06 -1.40993e-08 1.83042e-09 -3.10229e-07 5.32014e-08 -2.55084e-07)
(-2.81667e-07 -1.85118e-08 3.31307e-09 -3.20061e-07 5.25213e-08 -2.64e-07)
(-2.64874e-07 1.81681e-08 -2.89453e-09 -3.24666e-07 5.28854e-08 -2.65435e-07)
(-1.58019e-06 1.40687e-08 -1.71069e-09 -3.23567e-07 5.43306e-08 -2.59326e-07)
(-1.83559e-06 -1.30937e-09 2.1661e-09 -2.60351e-07 4.47053e-08 -3.24672e-07)
(-2.86831e-07 -1.14497e-08 3.45324e-09 -3.10558e-07 4.42179e-08 -3.33062e-07)
(-2.69432e-07 1.06616e-08 -3.10754e-09 -3.14931e-07 4.45327e-08 -3.34731e-07)
(-1.66448e-06 1.25831e-09 -2.06974e-09 -2.7308e-07 4.56768e-08 -3.29628e-07)
(-2.01004e-06 2.91e-08 2.23011e-09 -3.13736e-07 3.153e-08 -3.7846e-07)
(-3.81363e-07 5.61972e-09 3.39501e-09 -3.29009e-07 3.15909e-08 -3.86536e-07)
(-3.63203e-07 -7.34641e-09 -3.12385e-09 -3.33015e-07 3.18398e-08 -3.88385e-07)
(-1.8319e-06 -2.95183e-08 -2.15698e-09 -3.25257e-07 3.22977e-08 -3.83972e-07)
(-2.32675e-06 8.74014e-08 1.91129e-09 -8.5955e-07 1.5871e-08 -4.10731e-07)
(-6.26849e-07 3.56172e-08 3.11595e-09 -7.07097e-07 1.62006e-08 -4.18944e-07)
(-6.07939e-07 -3.95252e-08 -2.95451e-09 -7.06104e-07 1.63609e-08 -4.20904e-07)
(-2.14113e-06 -8.8631e-08 -1.87293e-09 -8.58023e-07 1.63775e-08 -4.16596e-07)
(-2.91941e-06 1.19308e-07 1.38932e-09 -2.97199e-06 5.76696e-09 -4.19045e-07)
(-9.70597e-07 5.51171e-08 2.96802e-09 -2.54212e-06 5.44466e-09 -4.28138e-07)
(-9.50023e-07 -5.46366e-08 -3.01612e-09 -2.50395e-06 5.49514e-09 -4.30106e-07)
(-2.72536e-06 -1.18633e-07 -1.43083e-09 -2.86553e-06 5.93578e-09 -4.24974e-07)
(-1.56684e-06 3.46872e-08 -1.91532e-11 1.00612e-07 1.58498e-08 -3.06079e-08)
(-1.73483e-07 -8.40683e-08 4.21809e-10 -1.76263e-07 1.7273e-08 -3.33151e-08)
(-1.60507e-07 8.11799e-08 -3.27266e-10 -1.87255e-07 1.74182e-08 -3.36086e-08)
(-1.41329e-06 -3.02711e-08 4.06216e-11 5.88881e-08 1.63044e-08 -3.14613e-08)
(-1.64154e-06 -1.87005e-08 1.52673e-10 -4.17421e-07 1.79862e-08 -1.01059e-07)
(-3.04856e-07 -3.80346e-08 7.2621e-10 -2.92339e-07 1.84863e-08 -1.05891e-07)
(-2.87923e-07 3.83214e-08 -5.63084e-10 -2.99721e-07 1.86279e-08 -1.06636e-07)
(-1.48403e-06 1.91845e-08 -1.07374e-10 -4.33526e-07 1.84256e-08 -1.03214e-07)
(-1.68438e-06 -2.10459e-08 3.58855e-10 -3.84038e-07 1.89359e-08 -1.77131e-07)
(-3.08988e-07 -2.37504e-08 8.82651e-10 -3.17129e-07 1.88687e-08 -1.82243e-07)
(-2.92372e-07 2.38645e-08 -7.17628e-10 -3.22588e-07 1.90014e-08 -1.83334e-07)
(-1.52399e-06 2.09357e-08 -3.09989e-10 -3.98215e-07 1.93478e-08 -1.80311e-07)
(-1.73342e-06 -1.38324e-08 5.20771e-10 -3.09885e-07 1.79464e-08 -2.52348e-07)
(-2.83547e-07 -1.83852e-08 9.73197e-10 -3.19801e-07 1.77136e-08 -2.57017e-07)
(-2.66851e-07 1.79707e-08 -8.2985e-10 -3.24409e-07 1.78346e-08 -2.58389e-07)
(-1.56866e-06 1.37775e-08 -4.78132e-10 -3.23252e-07 1.83221e-08 -2.56383e-07)
(-1.82435e-06 -1.18662e-09 6.19714e-10 -2.60817e-07 1.49998e-08 -3.19164e-07)
(-2.89774e-07 -1.14244e-08 1.01013e-09 -3.10756e-07 1.48545e-08 -3.23333e-07)
(-2.72459e-07 1.05886e-08 -8.92324e-10 -3.15149e-07 1.49598e-08 -3.24937e-07)
(-1.65373e-06 1.12041e-09 -5.85413e-10 -2.73622e-07 1.53255e-08 -3.23915e-07)
(-1.99913e-06 2.90042e-08 6.35237e-10 -3.14596e-07 1.04557e-08 -3.70693e-07)
(-3.84621e-07 5.51324e-09 9.88862e-10 -3.29728e-07 1.05067e-08 -3.7469e-07)
(-3.66531e-07 -7.27222e-09 -8.97669e-10 -3.33762e-07 1.05904e-08 -3.76476e-07)
(-1.82138e-06 -2.94301e-08 -6.09457e-10 -3.26212e-07 1.07151e-08 -3.76013e-07)
(-2.31528e-06 8.69777e-08 5.34183e-10 -8.57788e-07 5.21099e-09 -4.02204e-07)
(-6.29421e-07 3.53544e-08 9.04245e-10 -7.06045e-07 5.36486e-09 -4.06532e-07)
(-6.10563e-07 -3.9287e-08 -8.51274e-10 -7.05081e-07 5.41911e-09 -4.08431e-07)
(-2.12992e-06 -8.82107e-08 -5.20835e-10 -8.56349e-07 5.38341e-09 -4.07894e-07)
(-2.90582e-06 1.18714e-07 3.61362e-10 -2.95658e-06 1.86293e-09 -4.12449e-07)
(-9.71905e-07 5.48077e-08 8.51587e-10 -2.52866e-06 1.80035e-09 -4.17632e-07)
(-9.51364e-07 -5.43437e-08 -8.7026e-10 -2.49052e-06 1.81753e-09 -4.19538e-07)
(-2.71186e-06 -1.18044e-07 -3.75699e-10 -2.8502e-06 1.92068e-09 -4.18209e-07)
)
;

boundaryField
{
    interface
    {
        type            calculated;
        value           nonuniform List<symmTensor> 
192
(
(-4.6616e-06 2.29692e-12 1.7976e-11 1.36356e-06 2.13972e-07 -2.8655e-06)
(-4.36658e-06 2.0317e-12 2.90306e-11 -4.59314e-07 2.58633e-08 -2.90687e-06)
(-4.45691e-06 1.94255e-13 3.29428e-11 -5.47888e-07 -2.28301e-09 -2.9674e-06)
(-4.59477e-06 -2.63661e-12 3.39669e-11 -5.00899e-07 6.30332e-09 -3.04526e-06)
(-4.76353e-06 -5.09895e-12 3.36271e-11 -5.13911e-07 2.63045e-08 -3.15115e-06)
(-4.98662e-06 -9.45582e-12 3.27315e-11 -6.88253e-07 6.26816e-08 -3.30373e-06)
(-5.27715e-06 -1.27615e-11 3.01986e-11 -1.46311e-06 1.19889e-07 -3.54512e-06)
(-5.82228e-06 -2.85672e-11 2.82351e-11 -4.01361e-06 1.4713e-07 -4.01197e-06)
(-3.87576e-06 1.65204e-12 8.82114e-12 5.91487e-07 2.82231e-09 -5.26566e-07)
(-3.67477e-06 1.52147e-12 1.52741e-11 -3.02194e-07 3.13927e-08 -8.36666e-07)
(-3.72629e-06 -1.07983e-13 1.71316e-11 -4.0039e-07 2.78277e-08 -8.88934e-07)
(-3.83122e-06 -2.98942e-12 1.72823e-11 -4.25135e-07 3.14189e-08 -9.01596e-07)
(-3.98354e-06 -5.59106e-12 1.66604e-11 -4.58418e-07 5.8177e-08 -9.33679e-07)
(-4.21077e-06 -1.0395e-11 1.57406e-11 -5.74465e-07 1.01578e-07 -1.01409e-06)
(-4.54885e-06 -1.40559e-11 1.41064e-11 -1.18153e-06 1.36387e-07 -1.1881e-06)
(-5.28024e-06 -3.06462e-11 1.28041e-11 -3.54643e-06 1.20671e-07 -1.46418e-06)
(-3.39126e-06 1.4146e-12 6.92868e-12 2.81707e-07 7.84149e-08 -6.06069e-08)
(-3.30245e-06 1.27009e-12 1.18478e-11 -3.49014e-07 9.92674e-08 -2.26692e-07)
(-3.36037e-06 -3.22814e-13 1.32341e-11 -3.67026e-07 8.99483e-08 -3.11749e-07)
(-3.45909e-06 -3.34707e-12 1.33103e-11 -3.61992e-07 8.35336e-08 -3.49698e-07)
(-3.61021e-06 -6.19185e-12 1.27977e-11 -3.68852e-07 9.54927e-08 -3.91418e-07)
(-3.84758e-06 -1.15227e-11 1.20541e-11 -4.42213e-07 1.13257e-07 -4.68593e-07)
(-4.21472e-06 -1.57154e-11 1.08699e-11 -1.00107e-06 1.06931e-07 -5.87948e-07)
(-4.99484e-06 -3.34114e-11 9.87503e-12 -3.30583e-06 6.5777e-08 -6.87722e-07)
(-3.1007e-06 1.06602e-12 4.21744e-12 1.68935e-07 1.03286e-07 -7.2426e-09)
(-3.0501e-06 7.84959e-13 7.63124e-12 -3.98169e-07 1.24788e-07 -1.02741e-07)
(-3.11626e-06 -8.15983e-13 8.54791e-12 -3.7624e-07 1.20795e-07 -1.96859e-07)
(-3.21649e-06 -3.87227e-12 8.51351e-12 -3.29297e-07 1.11164e-07 -2.67244e-07)
(-3.36979e-06 -6.8245e-12 8.0733e-12 -3.03821e-07 1.06676e-07 -3.31571e-07)
(-3.61321e-06 -1.23822e-11 7.49385e-12 -3.60766e-07 9.86178e-08 -4.05217e-07)
(-3.99279e-06 -1.68125e-11 6.73912e-12 -9.16117e-07 7.01721e-08 -4.77495e-07)
(-4.78155e-06 -3.47796e-11 6.13901e-12 -3.15833e-06 3.32295e-08 -5.01432e-07)
(-2.92996e-06 8.98605e-13 3.07632e-12 1.26011e-07 9.54009e-08 -1.39573e-08)
(-2.88977e-06 4.81794e-13 5.56943e-12 -4.17997e-07 1.13817e-07 -8.86053e-08)
(-2.96053e-06 -1.1777e-12 6.24395e-12 -3.8494e-07 1.16104e-07 -1.78127e-07)
(-3.06379e-06 -4.29295e-12 6.21743e-12 -3.16133e-07 1.08227e-07 -2.61083e-07)
(-3.22002e-06 -7.35841e-12 5.89258e-12 -2.72343e-07 9.58428e-08 -3.35225e-07)
(-3.46692e-06 -1.31104e-11 5.46152e-12 -3.25367e-07 7.598e-08 -4.00896e-07)
(-3.8505e-06 -1.77575e-11 4.93287e-12 -8.79873e-07 4.42948e-08 -4.46938e-07)
(-4.6344e-06 -3.59997e-11 4.50059e-12 -3.0644e-06 1.80455e-08 -4.52363e-07)
(-2.83026e-06 7.68201e-13 1.87192e-12 1.09056e-07 7.42101e-08 -2.29465e-08)
(-2.79327e-06 2.37917e-13 3.50693e-12 -4.21285e-07 8.66649e-08 -9.33736e-08)
(-2.86643e-06 -1.47578e-12 3.95311e-12 -3.86706e-07 9.05891e-08 -1.76461e-07)
(-2.97221e-06 -4.62684e-12 3.92608e-12 -3.116e-07 8.53275e-08 -2.5886e-07)
(-3.13082e-06 -7.75576e-12 3.70156e-12 -2.61951e-07 7.28249e-08 -3.3236e-07)
(-3.37952e-06 -1.3606e-11 3.41082e-12 -3.14798e-07 5.32147e-08 -3.90857e-07)
(-3.76353e-06 -1.83663e-11 3.08393e-12 -8.65126e-07 2.78858e-08 -4.26372e-07)
(-4.54055e-06 -3.6746e-11 2.82703e-12 -3.00583e-06 1.05246e-08 -4.31659e-07)
(-2.77464e-06 7.04345e-13 1.09596e-12 1.02648e-07 4.66022e-08 -2.82796e-08)
(-2.73892e-06 9.64887e-14 2.05127e-12 -4.19326e-07 5.34161e-08 -9.84917e-08)
(-2.81331e-06 -1.6643e-12 2.31407e-12 -3.85351e-07 5.62122e-08 -1.76912e-07)
(-2.92072e-06 -4.84623e-12 2.29927e-12 -3.10229e-07 5.32014e-08 -2.55084e-07)
(-3.08082e-06 -8.02333e-12 2.16944e-12 -2.60351e-07 4.47053e-08 -3.24672e-07)
(-3.33031e-06 -1.39416e-11 1.99768e-12 -3.13736e-07 3.153e-08 -3.7846e-07)
(-3.71371e-06 -1.87816e-11 1.81247e-12 -8.5955e-07 1.5871e-08 -4.10731e-07)
(-4.48554e-06 -3.72644e-11 1.65863e-12 -2.97199e-06 5.76696e-09 -4.19045e-07)
(-2.74962e-06 6.64832e-13 3.2363e-13 1.00612e-07 1.58498e-08 -3.06079e-08)
(-2.71442e-06 1.7141e-14 6.28668e-13 -4.17421e-07 1.79862e-08 -1.01059e-07)
(-2.78934e-06 -1.76451e-12 7.13733e-13 -3.84038e-07 1.89359e-08 -1.77131e-07)
(-2.89751e-06 -4.95638e-12 7.07699e-13 -3.09885e-07 1.79464e-08 -2.52348e-07)
(-3.05831e-06 -8.15299e-12 6.65275e-13 -2.60817e-07 1.49998e-08 -3.19164e-07)
(-3.30806e-06 -1.40962e-11 6.0911e-13 -3.14596e-07 1.04557e-08 -3.70693e-07)
(-3.69096e-06 -1.89728e-11 5.53757e-13 -8.57788e-07 5.21099e-09 -4.02204e-07)
(-4.46014e-06 -3.74984e-11 5.05347e-13 -2.95658e-06 1.86293e-09 -4.12449e-07)
(-2.79635e-06 1.89933e-07 -2.52512e-11 1.36356e-06 -6.00329e-12 -4.7931e-06)
(-2.87579e-06 -1.10315e-09 -4.28657e-11 -4.59314e-07 -7.14148e-12 -4.47532e-06)
(-2.93937e-06 -2.8702e-08 -4.98356e-11 -5.47888e-07 -5.99148e-12 -4.56676e-06)
(-2.99804e-06 -1.88372e-08 -5.22754e-11 -5.00899e-07 -4.37531e-12 -4.71371e-06)
(-3.089e-06 -2.13114e-09 -5.30162e-11 -5.13911e-07 -3.67846e-12 -4.889e-06)
(-3.24729e-06 2.97522e-08 -5.36258e-11 -6.88253e-07 -3.92529e-12 -5.11023e-06)
(-3.51235e-06 8.83485e-08 -5.44863e-11 -1.46311e-06 -4.80403e-12 -5.39313e-06)
(-3.98432e-06 1.18708e-07 -5.97254e-11 -4.01361e-06 -6.17994e-12 -5.9335e-06)
(-5.94705e-07 -4.24828e-08 -1.50696e-11 8.50651e-07 -3.57517e-12 -4.29183e-06)
(-1.01255e-06 -3.35739e-08 -2.88377e-11 -2.16059e-07 -5.36707e-12 -3.99426e-06)
(-1.05872e-06 -2.96695e-08 -3.38401e-11 -3.96732e-07 -4.62678e-12 -4.01919e-06)
(-1.01877e-06 -2.23238e-08 -3.53614e-11 -4.80486e-07 -2.83739e-12 -4.12253e-06)
(-1.01214e-06 -1.12316e-08 -3.58279e-11 -5.55611e-07 -1.65713e-12 -4.2731e-06)
(-1.10109e-06 8.72964e-09 -3.66085e-11 -6.9897e-07 -1.03285e-12 -4.48514e-06)
(-1.34258e-06 4.04219e-08 -3.85628e-11 -1.31062e-06 -1.15067e-12 -4.79963e-06)
(-1.68032e-06 5.6851e-08 -4.55022e-11 -3.67683e-06 -1.68199e-12 -5.53146e-06)
(-5.7921e-07 4.23111e-08 -1.51046e-11 8.33728e-07 -2.57646e-12 -4.22632e-06)
(-9.91873e-07 3.7868e-08 -2.9191e-11 -2.2253e-07 -4.26701e-12 -3.93064e-06)
(-1.03827e-06 3.40973e-08 -3.45185e-11 -4.01192e-07 -3.68593e-12 -3.95326e-06)
(-9.98404e-07 2.56284e-08 -3.61987e-11 -4.84332e-07 -1.77446e-12 -4.05476e-06)
(-9.91534e-07 1.33314e-08 -3.66432e-11 -5.59364e-07 -2.78693e-13 -4.20403e-06)
(-1.08035e-06 -8.27508e-09 -3.72138e-11 -7.0243e-07 9.31994e-13 -4.41483e-06)
(-1.32196e-06 -4.27854e-08 -3.87785e-11 -1.30916e-06 1.58463e-12 -4.72823e-06)
(-1.65881e-06 -5.57199e-08 -4.5412e-11 -3.63858e-06 1.65513e-12 -5.46157e-06)
(-2.62316e-06 -1.82953e-07 -1.67886e-11 1.30114e-06 -2.08298e-12 -4.60708e-06)
(-2.69508e-06 3.55997e-09 -3.34773e-11 -4.7247e-07 -3.59272e-12 -4.29701e-06)
(-2.75558e-06 3.04251e-08 -4.02233e-11 -5.58569e-07 -2.99857e-12 -4.38154e-06)
(-2.81089e-06 2.02674e-08 -4.24662e-11 -5.11387e-07 -9.66999e-13 -4.52318e-06)
(-2.89853e-06 3.11804e-09 -4.30324e-11 -5.24166e-07 6.57766e-13 -4.69478e-06)
(-3.0542e-06 -2.9537e-08 -4.37395e-11 -6.9766e-07 2.13948e-12 -4.91277e-06)
(-3.31798e-06 -8.92551e-08 -4.49648e-11 -1.4602e-06 3.23203e-12 -5.19312e-06)
(-3.78695e-06 -1.17916e-07 -5.18833e-11 -3.90886e-06 4.25751e-12 -5.74028e-06)
(-4.3462e-06 5.20171e-12 4.86938e-12 1.30114e-06 2.16446e-07 -2.76535e-06)
(-4.04651e-06 6.36923e-12 9.61767e-12 -4.7247e-07 2.91485e-08 -2.80945e-06)
(-4.13023e-06 4.25466e-12 1.11486e-11 -5.58569e-07 -6.9285e-12 -2.8671e-06)
(-4.26118e-06 6.86169e-13 1.18088e-11 -5.11387e-07 7.74588e-09 -2.94255e-06)
(-4.4238e-06 -1.21127e-12 1.22419e-11 -5.24166e-07 2.72242e-08 -3.04663e-06)
(-4.64192e-06 -3.84316e-12 1.36989e-11 -6.9766e-07 6.32298e-08 -3.19763e-06)
(-4.92965e-06 -3.63413e-12 1.4849e-11 -1.4602e-06 1.20022e-07 -3.43787e-06)
(-5.47056e-06 -1.79201e-11 1.85933e-11 -3.90886e-06 1.47058e-07 -3.90809e-06)
(-3.56219e-06 2.09047e-12 -1.84021e-12 5.36723e-07 1.38933e-08 -5.20505e-07)
(-3.36316e-06 2.78755e-12 -1.45273e-12 -3.20341e-07 3.83791e-08 -8.30127e-07)
(-3.40915e-06 1.70249e-12 -1.86118e-12 -4.13345e-07 3.26779e-08 -8.83845e-07)
(-3.50681e-06 -4.24232e-13 -1.93644e-12 -4.36249e-07 3.48373e-08 -8.97398e-07)
(-3.65146e-06 -1.04061e-12 -1.57084e-12 -4.68828e-07 6.04916e-08 -9.29868e-07)
(-3.87113e-06 -2.6334e-12 -1.04472e-13 -5.83987e-07 1.02973e-07 -1.0105e-06)
(-4.20358e-06 -9.29819e-13 1.72448e-12 -1.17876e-06 1.36913e-07 -1.18468e-06)
(-4.9304e-06 -1.4315e-11 4.64812e-12 -3.43784e-06 1.20747e-07 -1.46073e-06)
(-3.08792e-06 1.15143e-12 -8.45008e-13 2.31741e-07 8.59544e-08 -6.27579e-08)
(-2.99979e-06 1.39692e-12 1.49956e-13 -3.67581e-07 1.05316e-07 -2.30499e-07)
(-3.05195e-06 7.608e-13 5.0841e-13 -3.81205e-07 9.47481e-08 -3.17132e-07)
(-3.14309e-06 -6.25673e-13 8.44613e-13 -3.74119e-07 8.72648e-08 -3.56313e-07)
(-3.28558e-06 -4.84945e-13 1.35255e-12 -3.79985e-07 9.82434e-08 -3.98772e-07)
(-3.51343e-06 -1.49571e-12 2.52514e-12 -4.52243e-07 1.15098e-07 -4.76332e-07)