/*--------------------------------*- C++ -*----------------------------------*\
| =========                 |                                                 |
| \\      /  F ield         | OpenFOAM: The Open Source CFD Toolbox           |
|  \\    /   O peration     | Version:  v1912                                 |
|   \\  /    A nd           | Website:  www.openfoam.com                      |
|    \\/     M anipulation  |                                                 |
\*---------------------------------------------------------------------------*/
FoamFile
{
    version     2.0;
    format      ascii;
    class       volVectorField;
    location    "0.7/solid";
    object      heatFlux;
}
// * * * * * * * * * * * * * * * * * * * * * * * * * * * * * * * * * * * * * //

dimensions      [1 0 -3 0 0 0 0];


internalField   nonuniform List<vector> 
256
(
(-66189.5 69348.8 -69934.6)
(-13208.4 40271.6 -68329.8)
(12070.7 39872 -67152.2)
(60188.5 67245.4 -66429.6)
(-63572.9 9569.5 -67623.9)
(-16268.4 6048.74 -68722.9)
(14903.1 5995.13 -67492.1)
(57269.5 9338.44 -64037.1)
(-64746.9 2210.42 -68900.9)
(-16782.8 1327.92 -70281.5)
(15360.4 1309.88 -68998.5)
(58309.4 2133.76 -65182.2)
(-66610.5 2196.55 -70790.1)
(-17169 1273.27 -72287.7)
(15709 1262.24 -70969.3)
(60037.8 2142.23 -66976.5)
(-69263.9 3710.49 -73448.7)
(-17717.1 2342.14 -75199.9)
(16229.4 2333.47 -73856.8)
(62567.8 3669.26 -69567.2)
(-73113 8625.34 -77325.9)
(-18546 6741.65 -79713)
(17036.1 6716.92 -78346.9)
(66309.9 8555.53 -73380.9)
(-77357.9 28286.2 -81735.3)
(-19625.5 27278.9 -85530.6)
(18043.2 27078.1 -84137.4)
(70442.3 27744.2 -77719.8)
(-72779.8 77744.1 -77660)
(-19754 83360.3 -83294)
(17501.4 82010.6 -81956.4)
(65535.7 73879.9 -73839.4)
(-62679 36729.4 -17861.8)
(-11792 10120.7 -15387.6)
(11185.7 10030.1 -15235.6)
(56983.3 35507.9 -17418.3)
(-63004.4 5554.16 -22351.8)
(-14907.3 1925.02 -19737.1)
(14201.5 1914.2 -19545.9)
(57108.2 5440.04 -21798.3)
(-64481.1 1270.88 -23049.1)
(-15432 368.236 -20425.5)
(14700.7 363.274 -20224.4)
(58456.8 1226.52 -22470.1)
(-66469.2 1263.93 -23500.3)
(-15814.9 313.917 -20865.5)
(15059.8 309.202 -20659.8)
(60303.3 1221.67 -22911.8)
(-69392.6 2324.06 -24129.1)
(-16386.7 819.334 -21513.6)
(15608.5 813.888 -21305.9)
(63081.7 2282.91 -23540.7)
(-73917.5 6615.62 -25101.9)
(-17325.1 4287.8 -22608.1)
(16523.4 4264.43 -22399.9)
(67461.4 6537.33 -24522)
(-79688.7 26610.5 -26583.4)
(-18737.9 24510.8 -24499.1)
(17858 24299.9 -24291.7)
(73077.3 26026.1 -26019.5)
(-77418.7 81865.3 -28252.4)
(-19635.6 85635.8 -27261.9)
(18038.7 84222.9 -27065.9)
(70450.2 77784.5 -27734.8)
(-56172.7 29135.1 -4324.65)
(-10582.2 5146.95 -2390.18)
(10040 5090.44 -2373.41)
(50664.9 28028.9 -4257.13)
(-56983.7 4382.19 -5642.74)
(-13462.5 1010.82 -3312.01)
(12841.9 1006.31 -3289.1)
(51294.7 4286.58 -5554.65)
(-58420.7 1061.98 -5823.2)
(-13958.1 199.522 -3444.88)
(13315.8 195.955 -3420.75)
(52603.3 1020.2 -5731.89)
(-60351.2 1116.62 -5899.4)
(-14328.5 185.247 -3503.06)
(13662.6 180.743 -3478.65)
(54386.6 1071.64 -5808.71)
(-63252.3 2108.84 -5993.05)
(-14893.9 599.518 -3586.6)
(14202.2 593.45 -3562.42)
(57125.4 2059.13 -5906.68)
(-67848.2 6170.99 -6149.95)
(-15843.9 3756.14 -3753.36)
(15122.2 3731.16 -3730.04)
(61539.9 6076.73 -6073.26)
(-73995.6 25135.7 -6593.28)
(-17333.8 22625.1 -4284.31)
(16522.8 22412.1 -4262.79)
(67476.4 24531.4 -6533.46)
(-73253.8 77526.5 -8585.4)
(-18567.5 79877.7 -6723.95)
(17028.5 78480.1 -6704.28)
(66332.1 73482.3 -8543.64)
(-51806.8 26762 -1549.98)
(-9840.76 4418.47 -379.523)
(9318.78 4367.58 -375.959)
(46439 25696.1 -1520.2)
(-52615.8 4055.61 -1965.49)
(-12553.7 870.321 -531.414)
(11958.9 866.851 -526.487)
(47076 3965.28 -1927.79)
(-53998.5 1014.21 -2015.61)
(-13029.5 177.182 -551.614)
(12413.7 173.73 -546.496)
(48331.2 972.457 -1977.02)
(-55890.8 1094.09 -2029.58)
(-13394.2 172.196 -557.617)
(12754.2 167.534 -552.54)
(50073.1 1046.87 -1991.85)
(-58767.9 2073.51 -2043.03)
(-13956.1 569.035 -566.105)
(13288.4 562.491 -561.244)
(52775.4 2018.35 -2008.07)
(-63357 6015.39 -2077.46)
(-14905.2 3590.1 -596.382)
(14203.5 3564.07 -592.042)
(57158.4 5910.55 -2048.35)
(-69579.9 24175 -2288.21)
(-16407.4 21540.2 -813.682)
(15608.9 21325.7 -810.476)
(63129 23555.7 -2270.09)
(-69517.9 73754.7 -3643.92)
(-17754.5 75456.1 -2310.38)
(16219 74066 -2308.64)
(62620.6 69727.9 -3640.11)
(-49173 25619.7 -798.679)
(-9408.16 4236.01 -113.679)
(8899.36 4187.99 -111.693)
(43900.5 24580.9 -779.11)
(-49954.2 3916.57 -992.22)
(-12023.5 838.728 -154.31)
(11445.5 835.769 -151.565)
(44515.4 3829.76 -967.379)
(-51308 997.894 -1012.54)
(-12489 173.318 -158.867)
(11890.4 169.903 -156.027)
(45742.8 956.142 -987.104)
(-53182.9 1089.2 -1016)
(-12851.5 170.756 -159.486)
(12228.4 165.995 -156.679)
(47464.2 1040.59 -991.16)
(-56047.8 2060.96 -1019.2)
(-13412.2 560.753 -160.615)
(12760.2 553.948 -157.932)
(50145.8 2002.63 -996.058)
(-60619.8 5925.82 -1036.62)
(-14358.5 3508.56 -171.991)
(13670.2 3481.93 -169.594)
(54495.9 5814.7 -1016.88)
(-66832.2 23569.2 -1167.22)
(-15856.1 20911.1 -289.174)
(15066.4 20695.5 -287.433)
(60430.4 22939.6 -1154.09)
(-67043.5 71270.6 -2024.19)
(-17232.2 72704.1 -1176.13)
(15698.7 71316.1 -1175.52)
(60164.9 67246.7 -2021.1)
(-47591.8 24971.1 -453.377)
(-9153.77 4150.48 -56.421)
(8653.35 4104.32 -55.1759)
(42377.5 23949.7 -441.377)
(-48357.5 3841.75 -559.02)
(-11713 825.133 -75.2727)
(11145.8 822.517 -73.5356)
(42980.5 3757.28 -543.639)
(-49697.2 990.435 -569.115)
(-12173 172.006 -77.1388)
(11585.5 168.617 -75.3368)
(44194.1 948.675 -553.347)
(-51564.2 1087.42 -570.208)
(-12534.8 170.448 -77.2038)
(11922.5 165.629 -75.4206)
(45904.3 1037.91 -554.822)
(-54421.5 2052.88 -571.848)
(-13094.8 556.53 -77.5815)
(12453 549.576 -75.87)
(48572.5 1992.63 -557.499)
(-58975.3 5867.37 -583.721)
(-14038.1 3461.54 -83.8398)
(13358.6 3434.57 -82.2894)
(52894.7 5752.52 -571.363)
(-65155.9 23187.5 -666.391)
(-15527.6 20536.1 -151.365)
(14743.9 20319.8 -150.184)
(58782.1 22551.5 -657.894)
(-65475.6 69690.4 -1192.38)
(-16905.8 71011 -674.59)
(15374 69623.5 -674.12)
(58605.7 65665.8 -1190.17)
(-46685.3 24607.3 -237.256)
(-9009.96 4104.32 -28.72)
(8514.41 4059.28 -28.0357)
(41503.8 23595.9 -230.837)
(-47443 3800.83 -291.566)
(-11538 818.011 -38.111)
(10977.2 815.608 -37.1488)
(42100.9 3717.78 -283.277)
(-48775.9 986.707 -296.492)
(-11995.2 171.387 -38.9927)
(11414.2 168.018 -37.9916)
(43307.7 944.96 -287.979)
(-50638.9 1086.47 -296.9)
(-12356.7 170.313 -38.9915)
(11750.8 165.462 -37.9998)
(45012.2 1036.44 -288.588)
(-53491 2047.44 -297.928)
(-12916.2 554.117 -39.1895)
(12280.3 547.079 -38.2357)
(47671.4 1986.09 -290.173)
(-58030.4 5831.27 -305.12)
(-13857.1 3434.78 -42.5271)
(13182.7 3407.61 -41.6571)
(51973.4 5714.31 -298.421)
(-64182 22960.5 -351.325)
(-15339.8 20320.4 -78.2153)
(14559.8 20103.7 -77.5346)
(57823.4 22320.8 -346.669)
(-64543.9 68746.3 -638.407)
(-16713.9 70018.4 -357.548)
(15183.2 68630.9 -357.254)
(57677.7 64720.2 -637.184)
(-46269.6 24442.3 -74.0776)
(-8944.55 4083.65 -8.89188)
(8451.23 4039.14 -8.67396)
(41103 23435.5 -72.0639)
(-47024 3782.51 -90.9012)
(-11458.6 814.86 -11.7768)
(10900.7 812.561 -11.469)
(41697.5 3700.14 -88.2893)
(-48353.9 985.101 -92.3939)
(-11914.5 171.125 -12.0422)
(11336.5 167.766 -11.7214)
(42901.4 943.365 -89.7072)
(-50215.1 1085.99 -92.5072)
(-12275.9 170.251 -12.039)
(11672.9 165.384 -11.7211)
(44603.4 1035.72 -89.8841)
(-53064.5 2044.66 -92.8714)
(-12835.1 552.994 -12.1046)
(12202 545.918 -11.7987)
(47258.1 1982.79 -90.425)
(-57596 5813.97 -95.2876)
(-13774.7 3422.51 -13.1615)
(13102.7 3395.27 -12.8819)
(51549.5 5696.03 -93.1754)
(-63731.6 22854.2 -110.176)
(-15253.8 20221.1 -24.3679)
(14475.5 20004.2 -24.147)
(57379.3 22212.7 -108.71)
(-64107.7 68302.3 -201.637)
(-16624.7 69556.1 -112.493)
(15094.4 68168.6 -112.394)
(57242.6 64275.5 -201.265)
)
;

boundaryField
{
    interface
    {
        type            calculated;
        value           nonuniform List<vector> 
192
(
(-106320 69348.8 -69934.6)
(-95050.7 9569.5 -67623.9)
(-96393 2210.42 -68900.9)
(-99361.1 2196.55 -70790.1)
(-103580 3710.49 -73448.7)
(-109629 8625.34 -77325.9)
(-116001 28286.2 -81735.3)
(-106948 77744.1 -77660)
(-101856 36729.4 -17861.8)
(-96293.1 5554.16 -22351.8)
(-98202.3 1270.88 -23049.1)
(-101417 1263.93 -23500.3)
(-106125 2324.06 -24129.1)
(-113304 6615.62 -25101.9)
(-122062 26610.5 -26583.4)
(-116108 81865.3 -28252.4)
(-91234.5 29135.1 -4324.65)
(-87101.9 4382.19 -5642.74)
(-88987.8 1061.98 -5823.2)
(-92112.1 1116.62 -5899.4)
(-96788.2 2108.84 -5993.05)
(-104087 6170.99 -6149.95)
(-113445 25135.7 -6593.28)
(-109877 77526.5 -8585.4)
(-83980.9 26762 -1549.98)
(-80177.2 4055.61 -1965.49)
(-81993.6 1014.21 -2015.61)
(-85053.1 1094.09 -2029.58)
(-89688.6 2073.51 -2043.03)
(-96976.6 6015.39 -2077.46)
(-106462 24175 -2288.21)
(-104029 73754.7 -3643.92)
(-79576.1 25619.7 -798.679)
(-75911.1 3916.57 -992.22)
(-77690.3 997.894 -1012.54)
(-80719.3 1089.2 -1016)
(-85333 2060.96 -1019.2)
(-92592.7 5925.82 -1036.62)
(-102067 23569.2 -1167.22)
(-100124 71270.6 -2024.19)
(-76920.9 24971.1 -453.377)
(-73336.5 3841.75 -559.02)
(-75098.4 990.435 -569.115)
(-78113 1087.42 -570.208)
(-82712.9 2052.88 -571.848)
(-89942.6 5867.37 -583.721)
(-99370.1 23187.5 -666.391)
(-97640.3 69690.4 -1192.38)
(-75394.5 24607.3 -237.256)
(-71856.2 3800.83 -291.566)
(-73610 986.707 -296.492)
(-76617.3 1086.47 -296.9)
(-81207.9 2047.44 -297.928)
(-88413.6 5831.27 -305.12)
(-97797.1 22960.5 -351.325)
(-96160.3 68746.3 -638.407)
(-74693.6 24442.3 -74.0776)
(-71176.4 3782.51 -90.9012)
(-72926.8 985.101 -92.3939)
(-75930.8 1085.99 -92.5072)
(-80516.5 2044.66 -92.8714)
(-87709.2 5813.97 -95.2876)
(-97067.8 22854.2 -110.176)
(-95466.2 68302.3 -201.637)
(-66189.5 69348.8 -110712)
(-63572.9 9569.5 -99166.4)
(-64746.9 2210.42 -100614)
(-66610.5 2196.55 -103620)
(-69263.9 3710.49 -107844)
(-73113 8625.34 -113918)
(-77357.9 28286.2 -120398)
(-72779.8 77744.1 -111235)
(-13208.4 40271.6 -110060)
(-16268.4 6048.74 -103744)
(-16782.8 1327.92 -105716)
(-17169 1273.27 -108954)
(-17717.1 2342.14 -113634)
(-18546 6741.65 -120759)
(-19625.5 27278.9 -129388)
(-19754 83360.3 -122385)
(12070.7 39872 -107980)
(14903.1 5995.13 -101625)
(15360.4 1309.88 -103511)
(15709 1262.24 -106686)
(16229.4 2333.47 -111321)
(17036.1 6716.92 -118402)
(18043.2 27078.1 -126977)
(17501.4 82010.6 -120065)
(60188.5 67245.4 -104489)
(57269.5 9338.44 -92968.9)
(58309.4 2133.76 -94197.9)
(60037.8 2142.23 -97033.2)
(62567.8 3669.26 -101127)
(66309.9 8555.53 -107069)
(70442.3 27744.2 -113396)
(65535.7 73879.9 -104550)
(95878.1 67245.4 -66429.6)
(84291 9338.44 -64037.1)
(85433.3 2133.76 -65182.2)
(88179.8 2142.23 -66976.5)
(92190.1 3669.26 -69567.2)
(98052.3 8555.53 -73380.9)
(104262 27744.2 -77719.8)
(95171.7 73879.9 -73839.4)
(91512.9 35507.9 -17418.3)
(85714.5 5440.04 -21798.3)
(87408.1 1226.52 -22470.1)
(90378.3 1221.67 -22911.8)
(94833.1 2282.91 -23540.7)
(101756 6537.33 -24522)
(110278 26026.1 -26019.5)
(104282 77784.5 -27734.8)
(81196.2 28028.9 -4257.13)
(76845.9 4286.58 -5554.65)
(78512.5 1020.2 -5731.89)
(81381.3 1071.64 -5808.71)
(85775 2059.13 -5906.68)
(92756.6 6076.73 -6073.26)
(101786 24531.4 -6533.46)
(98102.4 73482.3 -8543.64)
(74191.7 25696.1 -1520.2)
(70181.1 3965.28 -1927.79)
(71779.2 972.457 -1977.02)
(74578 1046.87 -1991.85)
(78909 2018.35 -2008.07)
(85836.8 5910.55 -2048.35)
(94923.2 23555.7 -2270.09)
(92301.2 69727.9 -3640.11)
(69956 24580.9 -779.11)
(66090.1 3829.76 -967.379)
(67652.6 956.142 -987.104)
(70415.1 1040.59 -991.16)
(74709.3 2002.63 -996.058)
(81581.1 5814.7 -1016.88)
(90613 22939.6 -1154.09)
(88430.9 67246.7 -2021.1)
(67403.5 23949.7 -441.377)
(63621.7 3757.28 -543.639)
(65167.2 948.675 -553.347)
(67909.3 1037.91 -554.822)
(72179.4 1992.63 -557.499)
(79003.9 5752.52 -571.363)
(87962.8 22551.5 -657.894)
(85962.5 65665.8 -1190.17)
(65935 23595.9 -230.837)
(62201.3 3717.78 -283.277)
(63738.4 944.96 -287.979)
(66470 1036.44 -288.588)
(70723.9 1986.09 -290.173)
(77514.4 5714.31 -298.421)
(86414.4 22320.8 -346.669)
(84488.6 64720.2 -637.184)
(65260 23435.5 -72.0639)
(61548.1 3700.14 -88.2893)
(63081.8 943.365 -89.7072)
(65808.6 1035.72 -89.8841)
(70054.4 1982.79 -90.425)
(76827.1 5696.03 -93.1754)
(85695.3 22212.7 -108.71)
(83796.1 64275.5 -201.265)
(-72779.8 111368 -77660)
(-77418.7 120623 -28252.4)
(-73253.8 114271 -8585.4)
(-69517.9 108386 -3643.92)
(-67043.5 104471 -2024.19)
(-65475.6 101971 -1192.38)
(-64543.9 100474 -638.407)
(-64107.7 99769.3 -201.637)
(-19754 122497 -83294)
(-19635.6 129578 -27261.9)
(-18567.5 121058 -6723.95)
(-17754.5 114098 -2310.38)
(-17232.2 109704 -1176.13)
(-16905.8 106982 -674.59)
(-16713.9 105379 -357.548)
(-16624.7 104631 -112.493)
(17501.4 120158 -81956.4)
(18038.7 127133 -27065.9)
(17028.5 118646 -6704.28)
(16219 111703 -2308.64)
(15698.7 107314 -1175.52)
(15374 104594 -674.12)
(15183.2 102992 -357.254)
(15094.4 102244 -112.394)
(65535.7 104620 -73839.4)
(70450.2 113514 -27734.8)
(66332.1 107255 -8543.64)
(62620.6 101421 -3640.11)
(60164.9 97524.4 -2021.1)
(58605.7 95031 -1190.17)
(57677.7 93535.9 -637.184)
(57242.6 92831.5 -201.265)
)
;
    }
    symmetry
    {
        type            symmetry;
    }
    bottom
    {
        type            calculated;
        value           nonuniform List<vector> 
32
(
(-66189.5 122209 -69934.6)
(-62679 63894.5 -17861.8)
(-56172.7 50761.9 -4324.65)
(-51806.8 46595.8 -1549.98)
(-49173 44561.9 -798.679)
(-47591.8 43401.1 -453.377)
(-46685.3 42748.4 -237.256)
(-46269.6 42452.1 -74.0776)
(-13208.4 70090.5 -68329.8)
(-11792 16891 -15387.6)
(-10582.2 8540.05 -2390.18)
(-9840.76 7330.3 -379.523)
(-9408.16 7021.96 -113.679)
(-9153.77 6875.59 -56.421)
(-9009.96 6796.27 -28.72)
(-8944.55 6760.71 -8.89188)
(12070.7 69375.6 -67152.2)
(11185.7 16726.4 -15235.6)
(10040 8433.13 -2373.41)
(9318.78 7232.81 -375.959)
(8899.36 6929.3 -111.693)
(8653.35 6786.04 -55.1759)
(8514.41 6708.59 -28.0357)
(8451.23 6673.9 -8.67396)
(60188.5 118373 -66429.6)
(56983.3 61633.9 -17418.3)
(50664.9 48700.2 -4257.13)
(46439 44605.4 -1520.2)
(43900.5 42619.4 -779.11)
(42377.5 41489 -441.377)
(41503.8 40853.9 -230.837)
(41103 40565.6 -72.0639)
)
;
    }
}


// ************************************************************************* //
