/*--------------------------------*- C++ -*----------------------------------*\
| =========                 |                                                 |
| \\      /  F ield         | OpenFOAM: The Open Source CFD Toolbox           |
|  \\    /   O peration     | Version:  v1912                                 |
|   \\  /    A nd           | Website:  www.openfoam.com                      |
|    \\/     M anipulation  |                                                 |
\*---------------------------------------------------------------------------*/
FoamFile
{
    version     2.0;
    format      ascii;
    class       pointVectorField;
    location    "0.7/solid";
    object      pointD;
}
// * * * * * * * * * * * * * * * * * * * * * * * * * * * * * * * * * * * * * //

dimensions      [0 1 0 0 0 0 0];


internalField   nonuniform List<vector> 
405
(
(3.73222e-08 3.83989e-08 3.85423e-08)
(7.43427e-09 2.53167e-08 4.22137e-08)
(4.50759e-11 2.08473e-08 3.97602e-08)
(-7.14109e-09 2.48872e-08 4.13802e-08)
(-3.53433e-08 3.71942e-08 3.7687e-08)
(6.35536e-08 4.74786e-08 6.96786e-08)
(2.04744e-08 4.28685e-08 9.55111e-08)
(4.11203e-10 3.57944e-08 9.04745e-08)
(-1.918e-08 4.19058e-08 9.39399e-08)
(-5.98145e-08 4.554e-08 6.85378e-08)
(7.26064e-08 2.80573e-08 8.89238e-08)
(2.70395e-08 2.74029e-08 1.14061e-07)
(1.12477e-09 2.36487e-08 1.08637e-07)
(-2.42564e-08 2.62368e-08 1.12637e-07)
(-6.7318e-08 2.58424e-08 8.80391e-08)
(7.4278e-08 1.20274e-08 1.02307e-07)
(2.78653e-08 1.32801e-08 1.27767e-07)
(1.93777e-09 1.13745e-08 1.21863e-07)
(-2.34627e-08 1.1913e-08 1.2643e-07)
(-6.73664e-08 9.51046e-09 1.0162e-07)
(7.54029e-08 -4.06673e-10 1.1436e-07)
(2.80325e-08 7.66019e-10 1.40417e-07)
(2.80395e-09 -9.51694e-10 1.34107e-07)
(-2.18969e-08 -7.98078e-10 1.39141e-07)
(-6.67405e-08 -3.2313e-09 1.13815e-07)
(7.91692e-08 -1.20285e-08 1.27386e-07)
(2.9858e-08 -1.18605e-08 1.54362e-07)
(3.72002e-09 -1.41233e-08 1.47739e-07)
(-2.18864e-08 -1.36136e-08 1.53123e-07)
(-6.86482e-08 -1.51453e-08 1.26935e-07)
(8.7901e-08 -2.75781e-08 1.42893e-07)
(3.48806e-08 -2.8169e-08 1.71402e-07)
(4.67613e-09 -3.04979e-08 1.64752e-07)
(-2.49971e-08 -3.00954e-08 1.70182e-07)
(-7.54545e-08 -3.09529e-08 1.42498e-07)
(1.02735e-07 -6.47008e-08 1.60958e-07)
(4.31741e-08 -6.41833e-08 1.92944e-07)
(5.62911e-09 -6.45244e-08 1.87238e-07)
(-3.13746e-08 -6.60644e-08 1.91756e-07)
(-8.8345e-08 -6.80085e-08 1.60609e-07)
(9.97981e-08 -1.18322e-07 1.58933e-07)
(4.81272e-08 -1.28387e-07 1.69346e-07)
(6.25578e-09 -1.25579e-07 1.65919e-07)
(-3.50602e-08 -1.29315e-07 1.69009e-07)
(-8.49096e-08 -1.20478e-07 1.58966e-07)
(3.79737e-08 2.13898e-08 7.22095e-09)
(0 0 0)
(0 0 0)
(0 0 0)
(-3.55202e-08 2.03558e-08 7.25901e-09)
(8.15657e-08 3.39023e-08 2.42772e-08)
(1.72871e-08 1.85837e-08 2.76743e-08)
(3.94423e-10 1.25338e-08 2.73983e-08)
(-1.60542e-08 1.76558e-08 2.77808e-08)
(-7.59492e-08 3.16666e-08 2.45035e-08)
(8.85586e-08 1.71036e-08 4.09195e-08)
(2.27962e-08 1.18096e-08 4.54387e-08)
(1.04328e-09 8.41151e-09 4.52661e-08)
(-2.02109e-08 1.05931e-08 4.56959e-08)
(-8.14886e-08 1.45235e-08 4.14391e-08)
(9.03986e-08 3.2447e-09 5.31937e-08)
(2.34332e-08 1.66927e-09 5.78952e-08)
(1.79472e-09 -7.65392e-11 5.77345e-08)
(-1.93516e-08 2.4419e-10 5.82837e-08)
(-8.17567e-08 3.09983e-10 5.39662e-08)
(9.22383e-08 -7.87026e-09 6.39167e-08)
(2.36089e-08 -9.70675e-09 6.85605e-08)
(2.61402e-09 -1.13022e-08 6.8316e-08)
(-1.78866e-08 -1.13159e-08 6.90457e-08)
(-8.18659e-08 -1.11472e-08 6.48761e-08)
(9.71284e-08 -1.82585e-08 7.49198e-08)
(2.54662e-08 -2.24057e-08 7.94634e-08)
(3.49632e-09 -2.45927e-08 7.91024e-08)
(-1.79725e-08 -2.41907e-08 8.00152e-08)
(-8.48956e-08 -2.18513e-08 7.60087e-08)
(1.07641e-07 -3.15615e-08 8.7084e-08)
(3.05284e-08 -3.8327e-08 9.15401e-08)
(4.4296e-09 -4.06945e-08 9.11202e-08)
(-2.1165e-08 -4.02734e-08 9.21342e-08)
(-9.34699e-08 -3.54234e-08 8.82547e-08)
(1.25997e-07 -6.42726e-08 9.8945e-08)
(3.88369e-08 -6.93601e-08 1.03413e-07)
(5.37151e-09 -6.96848e-08 1.03119e-07)
(-2.75779e-08 -7.12531e-08 1.04024e-07)
(-1.09865e-07 -6.80646e-08 1.00151e-07)
(1.0324e-07 -1.26449e-07 1.06139e-07)
(4.38255e-08 -1.58943e-07 1.07474e-07)
(6.27892e-09 -1.53866e-07 1.07211e-07)
(-3.07213e-08 -1.59019e-07 1.0809e-07)
(-8.78585e-08 -1.2834e-07 1.07208e-07)
(3.06219e-08 1.2377e-08 7.04981e-10)
(0 0 0)
(0 0 0)
(0 0 0)
(-2.82424e-08 1.14755e-08 8.27507e-10)
(6.54292e-08 1.75468e-08 7.4063e-09)
(1.17147e-08 6.05652e-09 1.2029e-08)
(3.36802e-10 1.02721e-09 1.31818e-08)
(-1.0611e-08 5.23105e-09 1.22479e-08)
(-6.0048e-08 1.55355e-08 7.80464e-09)
(7.04774e-08 4.2132e-09 1.95746e-08)
(1.5501e-08 1.59531e-10 2.56554e-08)
(9.27422e-10 -2.73236e-09 2.73012e-08)
(-1.3169e-08 -1.00109e-09 2.6017e-08)
(-6.37938e-08 1.78121e-09 2.02464e-08)
(7.15975e-08 -6.8033e-09 3.10688e-08)
(1.57765e-08 -8.05707e-09 3.74542e-08)
(1.62714e-09 -9.64123e-09 3.92603e-08)
(-1.20544e-08 -9.45566e-09 3.79269e-08)
(-6.34516e-08 -9.6458e-09 3.19561e-08)
(7.30987e-08 -1.60886e-08 4.12545e-08)
(1.58458e-08 -1.78149e-08 4.76761e-08)
(2.40427e-09 -1.93698e-08 4.95113e-08)
(-1.05665e-08 -1.94107e-08 4.82345e-08)
(-6.3295e-08 -1.93067e-08 4.23084e-08)
(7.78553e-08 -2.46166e-08 5.08677e-08)
(1.76207e-08 -2.87434e-08 5.72743e-08)
(3.25411e-09 -3.09336e-08 5.90935e-08)
(-1.06312e-08 -3.05215e-08 5.78946e-08)
(-6.62268e-08 -2.81733e-08 5.20414e-08)
(8.86785e-08 -3.47372e-08 5.98601e-08)
(2.26881e-08 -4.15969e-08 6.62091e-08)
(4.16401e-09 -4.39758e-08 6.80071e-08)
(-1.38702e-08 -4.3541e-08 6.68685e-08)
(-7.51153e-08 -3.85804e-08 6.11099e-08)
(1.08313e-07 -6.1641e-08 6.60729e-08)
(3.11601e-08 -6.67304e-08 7.23255e-08)
(5.09145e-09 -6.6943e-08 7.41195e-08)
(-2.04706e-08 -6.86237e-08 7.3001e-08)
(-9.278e-08 -6.54248e-08 6.7357e-08)
(8.90683e-08 -1.176e-07 6.89553e-08)
(3.61776e-08 -1.46656e-07 7.14618e-08)
(5.99398e-09 -1.40655e-07 7.32288e-08)
(-2.36525e-08 -1.46709e-07 7.21357e-08)
(-7.42783e-08 -1.19467e-07 7.01019e-08)
(2.62201e-08 8.9622e-09 5.8136e-10)
(0 0 0)
(0 0 0)
(0 0 0)
(-2.39438e-08 8.14129e-09 6.76432e-10)
(5.57925e-08 1.05697e-08 5.45992e-09)
(8.29747e-09 1.46943e-09 8.36218e-09)
(2.76809e-10 -2.85199e-09 9.42647e-09)
(-7.32814e-09 7.06074e-10 8.5309e-09)
(-5.06741e-08 8.72164e-09 5.77742e-09)
(5.9838e-08 -2.69669e-09 1.49564e-08)
(1.0976e-08 -5.94961e-09 1.88086e-08)
(8.1136e-10 -8.45439e-09 2.03181e-08)
(-8.89056e-09 -7.04487e-09 1.90928e-08)
(-5.35226e-08 -4.97633e-09 1.54966e-08)
(6.07943e-08 -1.30204e-08 2.50455e-08)
(1.10782e-08 -1.41231e-08 2.90575e-08)
(1.46416e-09 -1.55816e-08 3.07086e-08)
(-7.69549e-09 -1.54684e-08 2.94288e-08)
(-5.3105e-08 -1.57393e-08 2.57578e-08)
(6.23292e-08 -2.1045e-08 3.43158e-08)
(1.11659e-08 -2.27863e-08 3.82909e-08)
(2.2036e-09 -2.43217e-08 3.9974e-08)
(-6.29992e-09 -2.43421e-08 3.87312e-08)
(-5.3048e-08 -2.41698e-08 3.51648e-08)
(6.71954e-08 -2.76322e-08 4.25062e-08)
(1.2966e-08 -3.18126e-08 4.64195e-08)
(3.02415e-09 -3.40162e-08 4.81006e-08)
(-6.44599e-09 -3.3562e-08 4.6912e-08)
(-5.61275e-08 -3.11222e-08 4.34585e-08)
(7.82777e-08 -3.50834e-08 4.90464e-08)
(1.80679e-08 -4.20105e-08 5.29082e-08)
(3.91218e-09 -4.44201e-08 5.45774e-08)
(-9.75903e-09 -4.3934e-08 5.34353e-08)
(-6.52842e-08 -3.88809e-08 5.00677e-08)
(9.82702e-08 -5.86708e-08 5.2419e-08)
(2.65595e-08 -6.38668e-08 5.62868e-08)
(4.82365e-09 -6.41517e-08 5.79528e-08)
(-1.64057e-08 -6.57436e-08 5.68285e-08)
(-8.32952e-08 -6.24196e-08 5.34738e-08)
(8.08002e-08 -1.11316e-07 5.33375e-08)
(3.16373e-08 -1.38902e-07 5.52211e-08)
(5.71543e-09 -1.32937e-07 5.69647e-08)
(-1.9667e-08 -1.38949e-07 5.57559e-08)
(-6.65612e-08 -1.13163e-07 5.42675e-08)
(2.39323e-08 7.69704e-09 9.05556e-10)
(0 0 0)
(0 0 0)
(0 0 0)
(-2.17372e-08 6.93069e-09 9.72401e-10)
(5.07991e-08 7.90341e-09 5.1934e-09)
(6.85895e-09 -9.43e-11 6.56521e-09)
(2.3363e-10 -4.02535e-09 7.19475e-09)
(-5.99176e-09 -8.17046e-10 6.68619e-09)
(-4.58909e-08 6.17291e-09 5.4236e-09)
(5.44185e-08 -5.65128e-09 1.26594e-08)
(9.07779e-09 -8.55374e-09 1.44688e-08)
(7.22844e-10 -1.08421e-08 1.53637e-08)
(-7.18516e-09 -9.59568e-09 1.46774e-08)
(-4.84009e-08 -7.80683e-09 1.30598e-08)
(5.54629e-08 -1.60041e-08 2.07693e-08)
(9.1755e-09 -1.71e-08 2.26044e-08)
(1.33587e-09 -1.84906e-08 2.35787e-08)
(-6.06308e-09 -1.83932e-08 2.28799e-08)
(-4.81439e-08 -1.86092e-08 2.13033e-08)
(5.71886e-08 -2.34313e-08 2.83843e-08)
(9.36067e-09 -2.52506e-08 3.01366e-08)
(2.04287e-09 -2.67806e-08 3.11215e-08)
(-4.82837e-09 -2.67622e-08 3.04657e-08)
(-4.83343e-08 -2.64615e-08 2.90266e-08)
(6.22311e-08 -2.88412e-08 3.48638e-08)
(1.12381e-08 -3.30851e-08 3.65382e-08)
(2.83791e-09 -3.52997e-08 3.75161e-08)
(-5.101e-09 -3.47993e-08 3.69092e-08)
(-5.16273e-08 -3.22579e-08 3.55908e-08)
(7.3439e-08 -3.48893e-08 3.95607e-08)
(1.63556e-08 -4.18414e-08 4.12106e-08)
(3.7062e-09 -4.4283e-08 4.21827e-08)
(-8.46636e-09 -4.37377e-08 4.16104e-08)
(-6.09254e-08 -3.86316e-08 4.03471e-08)
(9.33951e-08 -5.69707e-08 4.16862e-08)
(2.47767e-08 -6.22705e-08 4.34039e-08)
(4.60216e-09 -6.26763e-08 4.43897e-08)
(-1.50698e-08 -6.41252e-08 4.38163e-08)
(-7.88985e-08 -6.06756e-08 4.25032e-08)
(7.70216e-08 -1.07693e-07 4.19885e-08)
(2.98949e-08 -1.3443e-07 4.29536e-08)
(5.48197e-09 -1.28732e-07 4.40371e-08)
(-1.83933e-08 -1.34466e-07 4.3358e-08)
(-6.32548e-08 -1.0951e-07 4.27035e-08)
(2.27662e-08 7.18987e-09 9.11165e-10)
(0 0 0)
(0 0 0)
(0 0 0)
(-2.06254e-08 6.4613e-09 9.56053e-10)
(4.83216e-08 6.90763e-09 4.40194e-09)
(6.37285e-09 -6.57237e-10 4.97332e-09)
(2.05317e-10 -4.39714e-09 5.28339e-09)
(-5.57464e-09 -1.35103e-09 5.05671e-09)
(-4.35571e-08 5.26086e-09 4.55941e-09)
(5.1846e-08 -6.70024e-09 9.96882e-09)
(8.47286e-09 -9.50013e-09 1.06942e-08)
(6.6171e-10 -1.16884e-08 1.11326e-08)
(-6.71542e-09 -1.05021e-08 1.08401e-08)
(-4.60373e-08 -8.76253e-09 1.02475e-08)
(5.30429e-08 -1.71041e-08 1.59403e-08)
(8.63387e-09 -1.82525e-08 1.66325e-08)
(1.24393e-09 -1.96173e-08 1.71044e-08)
(-5.71668e-09 -1.95038e-08 1.68272e-08)
(-4.59888e-08 -1.96184e-08 1.63168e-08)
(5.49626e-08 -2.43107e-08 2.15794e-08)
(8.91941e-09 -2.62096e-08 2.21921e-08)
(1.92479e-09 -2.77421e-08 2.26623e-08)
(-4.63335e-09 -2.7683e-08 2.24263e-08)
(-4.64186e-08 -2.72609e-08 2.2037e-08)
(6.01489e-08 -2.92367e-08 2.62955e-08)
(1.08637e-08 -3.35224e-08 2.68485e-08)
(2.69869e-09 -3.57427e-08 2.73114e-08)
(-5.01387e-09 -3.52046e-08 2.71142e-08)
(-4.98882e-08 -3.25878e-08 2.6818e-08)
(7.13892e-08 -3.47702e-08 2.95809e-08)
(1.5973e-08 -4.17143e-08 3.01325e-08)
(3.55021e-09 -4.41731e-08 3.05958e-08)
(-8.4028e-09 -4.35847e-08 3.04205e-08)
(-5.92376e-08 -3.84608e-08 3.01505e-08)
(9.11933e-08 -5.62225e-08 3.10618e-08)
(2.43061e-08 -6.15726e-08 3.16883e-08)
(4.43266e-09 -6.20635e-08 3.21704e-08)
(-1.49428e-08 -6.34064e-08 3.19863e-08)
(-7.70647e-08 -5.98858e-08 3.16568e-08)
(7.54729e-08 -1.05772e-07 3.12404e-08)
(2.94313e-08 -1.31962e-07 3.16409e-08)
(5.30166e-09 -1.26487e-07 3.21918e-08)
(-1.82936e-08 -1.31983e-07 3.19318e-08)
(-6.2074e-08 -1.07559e-07 3.17595e-08)
(2.21549e-08 6.97039e-09 6.91211e-10)
(0 0 0)
(0 0 0)
(0 0 0)
(-2.00472e-08 6.26621e-09 7.18808e-10)
(4.70648e-08 6.539e-09 3.12581e-09)
(6.2212e-09 -8.63411e-10 3.35668e-09)
(1.87804e-10 -4.51357e-09 3.49628e-09)
(-5.46599e-09 -1.5375e-09 3.40908e-09)
(-4.23891e-08 4.94771e-09 3.22354e-09)
(5.06081e-08 -6.98447e-09 6.81789e-09)
(8.3163e-09 -9.77377e-09 7.09096e-09)
(6.22528e-10 -1.19208e-08 7.28561e-09)
(-6.64574e-09 -1.0748e-08 7.18344e-09)
(-4.49318e-08 -8.9825e-09 6.99275e-09)
(5.19333e-08 -1.73638e-08 1.07083e-08)
(8.54129e-09 -1.85673e-08 1.09427e-08)
(1.18324e-09 -1.9926e-08 1.11484e-08)
(-5.75299e-09 -1.97889e-08 1.10669e-08)
(-4.50507e-08 -1.98135e-08 1.0947e-08)
(5.39902e-08 -2.45058e-08 1.4374e-08)
(8.89747e-09 -2.64607e-08 1.45542e-08)
(1.84506e-09 -2.79975e-08 1.47556e-08)
(-4.77748e-09 -2.7906e-08 1.47046e-08)
(-4.56509e-08 -2.73969e-08 1.46668e-08)
(5.92642e-08 -2.93139e-08 1.74207e-08)
(1.08817e-08 -3.36196e-08 1.75663e-08)
(2.60312e-09 -3.5841e-08 1.77634e-08)
(-5.22886e-09 -3.52774e-08 1.77379e-08)
(-4.92337e-08 -3.26148e-08 1.77576e-08)
(7.04962e-08 -3.4745e-08 1.95267e-08)
(1.59741e-08 -4.16678e-08 1.96799e-08)
(3.4418e-09 -4.41303e-08 1.98806e-08)
(-8.62536e-09 -4.3518e-08 1.98667e-08)
(-5.85914e-08 -3.83951e-08 1.98962e-08)
(9.01573e-08 -5.59502e-08 2.05137e-08)
(2.42361e-08 -6.13087e-08 2.0723e-08)
(4.31379e-09 -6.1841e-08 2.09389e-08)
(-1.51138e-08 -6.3126e-08 2.09166e-08)
(-7.62841e-08 -5.95806e-08 2.09014e-08)
(7.48069e-08 -1.048e-07 2.06647e-08)
(2.9348e-08 -1.30628e-07 2.08177e-08)
(5.17434e-09 -1.2528e-07 2.10704e-08)
(-1.84675e-08 -1.30637e-07 2.10062e-08)
(-6.16667e-08 -1.06562e-07 2.10026e-08)
(2.18494e-08 6.87508e-09 3.65286e-10)
(0 0 0)
(0 0 0)
(0 0 0)
(-1.97594e-08 6.18443e-09 3.78427e-10)
(4.6448e-08 6.4081e-09 1.60773e-09)
(6.16893e-09 -9.31077e-10 1.69296e-09)
(1.78326e-10 -4.54106e-09 1.74657e-09)
(-5.43704e-09 -1.59375e-09 1.71825e-09)
(-4.18202e-08 4.84824e-09 1.65448e-09)
(5.00194e-08 -7.02162e-09 3.44523e-09)
(8.27635e-09 -9.81892e-09 3.53953e-09)
(6.00833e-10 -1.19502e-08 3.61316e-09)
(-6.65384e-09 -1.07768e-08 3.58435e-09)
(-4.44156e-08 -8.98221e-09 3.52935e-09)
(5.1421e-08 -1.73565e-08 5.35731e-09)
(8.54114e-09 -1.85953e-08 5.42962e-09)
(1.14895e-09 -1.99539e-08 5.50615e-09)
(-5.82552e-09 -1.97991e-08 5.4901e-09)
(-4.46339e-08 -1.97677e-08 5.47292e-09)
(5.35535e-08 -2.44847e-08 7.1528e-09)
(8.93565e-09 -2.64701e-08 7.19914e-09)
(1.79928e-09 -2.80097e-08 7.27297e-09)
(-4.91082e-09 -2.78985e-08 7.27265e-09)
(-4.53299e-08 -2.73399e-08 7.29539e-09)
(5.88706e-08 -2.92977e-08 8.64274e-09)
(1.09387e-08 -3.36106e-08 8.67424e-09)
(2.54752e-09 -3.58309e-08 8.74647e-09)
(-5.40013e-09 -3.52533e-08 8.75839e-09)
(-4.89719e-08 -3.25676e-08 8.80764e-09)
(7.00873e-08 -3.47506e-08 9.6755e-09)
(1.60172e-08 -4.16548e-08 9.71324e-09)
(3.37813e-09 -4.41154e-08 9.78831e-09)
(-8.79834e-09 -4.34924e-08 9.80509e-09)
(-5.83254e-08 -3.8375e-08 9.85712e-09)
(8.96563e-08 -5.5869e-08 1.01761e-08)
(2.42358e-08 -6.12203e-08 1.02426e-08)
(4.24352e-09 -6.17674e-08 1.03258e-08)
(-1.52558e-08 -6.30271e-08 1.03379e-08)
(-7.59325e-08 -5.94782e-08 1.03672e-08)
(7.44941e-08 -1.04348e-07 1.02693e-08)
(2.93319e-08 -1.29966e-07 1.03235e-08)
(5.09872e-09 -1.24675e-07 1.04215e-08)
(-1.8604e-08 -1.29966e-07 1.04161e-08)
(-6.15068e-08 -1.06094e-07 1.04358e-08)
(1.75506e-08 7.1122e-09 0)
(2.17e-09 1.66044e-09 0)
(1.45648e-12 -5.41321e-10 0)
(-2.00489e-09 1.41289e-09 0)
(-1.59427e-08 6.38015e-09 0)
(2.91842e-08 4.44558e-09 0)
(6.15457e-09 -9.45645e-10 0)
(1.75333e-10 -4.54398e-09 0)
(-5.43005e-09 -1.60459e-09 0)
(-2.63287e-08 3.14919e-09 0)
(3.26416e-08 -7.46833e-09 0)
(8.26695e-09 -9.81764e-09 0)
(5.93905e-10 -1.19447e-08 0)
(-6.65978e-09 -1.07702e-08 0)
(-2.8838e-08 -9.16535e-09 0)
(3.34956e-08 -1.74265e-08 0)
(8.54459e-09 -1.85822e-08 0)
(1.13789e-09 -1.99412e-08 0)
(-5.85239e-09 -1.97802e-08 0)
(-2.8563e-08 -1.95258e-08 0)
(3.48111e-08 -2.48634e-08 0)
(8.95089e-09 -2.64533e-08 0)
(1.78437e-09 -2.79938e-08 0)
(-4.95699e-09 -2.7876e-08 0)
(-2.85084e-08 -2.73522e-08 0)
(3.88578e-08 -3.05361e-08 0)
(1.09592e-08 -3.3598e-08 0)
(2.5293e-09 -3.58176e-08 0)
(-5.45806e-09 -3.52356e-08 0)
(-3.0958e-08 -3.33931e-08 0)
(4.80909e-08 -3.72042e-08 0)
(1.60327e-08 -4.1652e-08 0)
(3.35715e-09 -4.41113e-08 0)
(-8.85651e-09 -4.34853e-08 0)
(-3.84143e-08 -4.03845e-08 0)
(6.40285e-08 -5.84757e-08 0)
(2.42369e-08 -6.11999e-08 0)
(4.22029e-09 -6.17503e-08 0)
(-1.53038e-08 -6.30032e-08 0)
(-5.24784e-08 -6.16311e-08 0)
(6.48786e-08 -9.53922e-08 0)
(2.91379e-08 -1.02946e-07 0)
(4.86276e-09 -9.97071e-08 0)
(-1.88906e-08 -1.03786e-07 0)
(-5.28104e-08 -9.73993e-08 0)
)
;

boundaryField
{
    interface
    {
        type            calculated;
    }
    symmetry
    {
        type            symmetry;
    }
    bottom
    {
        type            calculated;
    }
}


// ************************************************************************* //
