/*--------------------------------*- C++ -*----------------------------------*\
| =========                 |                                                 |
| \\      /  F ield         | OpenFOAM: The Open Source CFD Toolbox           |
|  \\    /   O peration     | Version:  v1912                                 |
|   \\  /    A nd           | Website:  www.openfoam.com                      |
|    \\/     M anipulation  |                                                 |
\*---------------------------------------------------------------------------*/
FoamFile
{
    version     2.0;
    format      ascii;
    class       volScalarField;
    location    "0.7/solid";
    object      sigmaHyd;
}
// * * * * * * * * * * * * * * * * * * * * * * * * * * * * * * * * * * * * * //

dimensions      [1 -1 -2 0 0 0 0];


internalField   nonuniform List<scalar> 
256
(
-716381
-379977
-374271
-681228
-1.04033e+06
-629055
-620819
-996167
-1.07578e+06
-669183
-660498
-1.03021e+06
-1.0907e+06
-684400
-675490
-1.04414e+06
-1.12568e+06
-710198
-701124
-1.07822e+06
-1.20655e+06
-772574
-763325
-1.15825e+06
-1.4201e+06
-957811
-947674
-1.36934e+06
-2.00165e+06
-1.50524e+06
-1.48894e+06
-1.93398e+06
-368375
-112067
-111492
-347820
-579354
-250298
-247955
-552049
-609815
-288481
-285810
-581524
-622369
-304152
-301349
-593339
-646377
-321192
-318306
-616596
-705343
-361150
-358167
-674761
-884087
-501959
-498153
-850994
-1.42079e+06
-957980
-947717
-1.36951e+06
-288537
-66816.2
-66642.6
-269479
-434212
-146872
-145320
-409530
-456435
-175699
-173869
-430905
-467697
-189556
-187599
-441423
-488765
-203903
-201854
-461657
-541060
-236927
-234757
-512952
-705593
-360770
-357729
-674629
-1.20742e+06
-772264
-762778
-1.15807e+06
-268047
-63153
-62947.3
-249277
-391375
-125763
-124275
-367397
-409046
-148753
-147014
-384305
-419270
-160654
-158791
-393785
-439271
-173671
-171708
-412891
-489095
-204147
-202042
-461579
-646419
-320476
-317468
-615806
-1.12551e+06
-708469
-699021
-1.07633e+06
-259464
-63491.3
-63253.1
-240850
-375146
-120443
-118966
-351555
-390798
-140431
-138720
-366504
-400203
-150815
-148986
-375173
-419454
-162785
-160853
-393499
-467861
-191849
-189766
-440691
-620959
-304364
-301358
-590551
-1.08643e+06
-680183
-670725
-1.0373e+06
-254309
-63778.6
-63518.8
-235771
-366900
-118469
-116998
-343530
-381690
-136986
-135294
-357656
-390537
-146414
-144607
-365773
-409216
-157645
-155737
-383510
-456706
-185863
-183800
-429742
-607277
-296314
-293317
-576995
-1.06442e+06
-665110
-655649
-1.01532e+06
-251070
-63854.2
-63580
-232564
-362217
-117566
-116098
-338962
-376626
-135389
-133707
-352729
-385135
-144288
-142496
-360514
-403435
-155075
-153182
-377865
-450373
-182818
-180767
-423522
-599506
-292148
-289158
-569292
-1.05174e+06
-656809
-647347
-1.00265e+06
-249473
-63843.6
-63561.9
-230978
-360003
-117181
-115713
-336796
-374257
-134727
-133049
-350419
-382608
-143394
-141608
-358049
-400722
-153977
-152091
-375211
-447403
-181506
-179461
-420601
-595879
-290333
-287346
-565694
-1.04581e+06
-653033
-643571
-996712
)
;

boundaryField
{
    interface
    {
        type            zeroGradient;
    }
    symmetry
    {
        type            symmetry;
    }
    bottom
    {
        type            zeroGradient;
    }
}


// ************************************************************************* //
