/*--------------------------------*- C++ -*----------------------------------*\
| =========                 |                                                 |
| \\      /  F ield         | OpenFOAM: The Open Source CFD Toolbox           |
|  \\    /   O peration     | Version:  v1912                                 |
|   \\  /    A nd           | Website:  www.openfoam.com                      |
|    \\/     M anipulation  |                                                 |
\*---------------------------------------------------------------------------*/
FoamFile
{
    version     2.0;
    format      ascii;
    class       volVectorField;
    location    "0.7/solid";
    object      U;
}
// * * * * * * * * * * * * * * * * * * * * * * * * * * * * * * * * * * * * * //

dimensions      [0 1 -1 0 0 0 0];


internalField   nonuniform List<vector> 
256
(
(2.37953e-08 2.45876e-08 2.86839e-08)
(5.53134e-09 1.5355e-08 2.70746e-08)
(-6.89315e-09 1.47937e-08 2.63968e-08)
(-2.33226e-08 2.25853e-08 2.66296e-08)
(4.37644e-08 2.05792e-08 6.63829e-08)
(1.12911e-08 1.25316e-08 6.38639e-08)
(-1.42532e-08 1.22819e-08 6.25005e-08)
(-4.41635e-08 2.00476e-08 6.22272e-08)
(4.79164e-08 2.09466e-09 9.29507e-08)
(1.21878e-08 -1.51655e-09 8.97663e-08)
(-1.6983e-08 -1.23178e-09 8.80122e-08)
(-5.01012e-08 3.28977e-09 8.76006e-08)
(4.68773e-08 -1.87897e-08 1.15296e-07)
(1.08195e-08 -2.0518e-08 1.11169e-07)
(-1.80963e-08 -1.96993e-08 1.09136e-07)
(-5.15118e-08 -1.60497e-08 1.09094e-07)
(4.65925e-08 -4.14194e-08 1.37319e-07)
(9.50018e-09 -4.37267e-08 1.3204e-07)
(-1.99648e-08 -4.2404e-08 1.29767e-07)
(-5.43631e-08 -3.7242e-08 1.30391e-07)
(5.1121e-08 -6.89345e-08 1.61377e-07)
(9.89005e-09 -7.22803e-08 1.55068e-07)
(-2.42934e-08 -7.04568e-08 1.52565e-07)
(-6.27651e-08 -6.33251e-08 1.53758e-07)
(6.3109e-08 -1.09443e-07 1.8766e-07)
(1.27093e-08 -1.10906e-07 1.81491e-07)
(-3.19325e-08 -1.08512e-07 1.78748e-07)
(-7.93895e-08 -1.02188e-07 1.79342e-07)
(7.69391e-08 -1.66333e-07 2.08626e-07)
(1.54804e-08 -1.6179e-07 2.04482e-07)
(-4.06097e-08 -1.58502e-07 2.01524e-07)
(-9.86418e-08 -1.5638e-07 1.99714e-07)
(1.50333e-08 8.69373e-09 1.18713e-08)
(3.31953e-09 1.13991e-09 1.33707e-08)
(-3.87055e-09 9.41686e-10 1.30793e-08)
(-1.40099e-08 7.51114e-09 1.10083e-08)
(2.84901e-08 -4.06797e-10 3.7304e-08)
(7.14507e-09 -6.98425e-09 4.03029e-08)
(-8.19551e-09 -6.94306e-09 3.95032e-08)
(-2.7397e-08 -3.62371e-10 3.49724e-08)
(3.10075e-08 -1.71203e-08 6.07779e-08)
(7.65833e-09 -2.00423e-08 6.41331e-08)
(-9.75728e-09 -1.95894e-08 6.29825e-08)
(-3.09785e-08 -1.56443e-08 5.74108e-08)
(2.95768e-08 -3.60948e-08 8.19044e-08)
(6.39426e-09 -3.75625e-08 8.5037e-08)
(-1.03663e-08 -3.66478e-08 8.36321e-08)
(-3.14271e-08 -3.32324e-08 7.77649e-08)
(2.8998e-08 -5.69957e-08 1.02232e-07)
(5.20572e-09 -5.92974e-08 1.04907e-07)
(-1.18606e-08 -5.79165e-08 1.03284e-07)
(-3.3499e-08 -5.27751e-08 9.74279e-08)
(3.34257e-08 -8.11996e-08 1.22677e-07)
(5.74888e-09 -8.47977e-08 1.24864e-07)
(-1.58996e-08 -8.29465e-08 1.23035e-07)
(-4.13601e-08 -7.56136e-08 1.17246e-07)
(4.63736e-08 -1.1416e-07 1.41437e-07)
(8.94682e-09 -1.1562e-07 1.43361e-07)
(-2.35194e-08 -1.1326e-07 1.41349e-07)
(-5.85233e-08 -1.07069e-07 1.35446e-07)
(6.2644e-08 -1.60336e-07 1.51738e-07)
(1.2234e-08 -1.53735e-07 1.53633e-07)
(-3.23705e-08 -1.50607e-07 1.51541e-07)
(-7.98059e-08 -1.50832e-07 1.45472e-07)
(7.84243e-09 2.56897e-09 5.8718e-09)
(1.25523e-09 -2.99377e-09 8.15542e-09)
(-1.44367e-09 -3.14694e-09 7.95766e-09)
(-6.5301e-09 1.38438e-09 5.30996e-09)
(1.54495e-08 -1.09542e-08 2.34627e-08)
(3.06847e-09 -1.59033e-08 2.78435e-08)
(-3.06842e-09 -1.58305e-08 2.72902e-08)
(-1.3437e-08 -1.10005e-08 2.18955e-08)
(1.65804e-08 -2.84971e-08 4.30699e-08)
(3.1346e-09 -3.07857e-08 4.80486e-08)
(-3.55527e-09 -3.0342e-08 4.72147e-08)
(-1.50351e-08 -2.72052e-08 4.06824e-08)
(1.50631e-08 -4.64365e-08 6.21551e-08)
(1.97959e-09 -4.784e-08 6.71045e-08)
(-3.72522e-09 -4.69716e-08 6.6047e-08)
(-1.48701e-08 -4.38314e-08 5.90918e-08)
(1.45586e-08 -6.47683e-08 8.01437e-08)
(9.55244e-10 -6.7258e-08 8.48556e-08)
(-4.91314e-09 -6.59512e-08 8.36034e-08)
(-1.65542e-08 -6.08586e-08 7.64839e-08)
(1.91976e-08 -8.43813e-08 9.63516e-08)
(1.67621e-09 -8.82864e-08 1.00766e-07)
(-8.72452e-09 -8.65376e-08 9.93378e-08)
(-2.42135e-08 -7.91647e-08 9.21496e-08)
(3.27796e-08 -1.10376e-07 1.08246e-07)
(5.17547e-09 -1.12066e-07 1.12335e-07)
(-1.62918e-08 -1.09847e-07 1.10774e-07)
(-4.16303e-08 -1.03736e-07 1.03614e-07)
(5.00058e-08 -1.49035e-07 1.1124e-07)
(8.80901e-09 -1.42243e-07 1.15042e-07)
(-2.51619e-08 -1.39294e-07 1.13461e-07)
(-6.35058e-08 -1.40061e-07 1.06483e-07)
(4.46985e-09 2.14212e-10 4.60069e-09)
(3.01472e-10 -3.98783e-09 6.20355e-09)
(-3.19879e-10 -4.16417e-09 6.05606e-09)
(-2.98125e-09 -1.09771e-09 4.19221e-09)
(9.21966e-09 -1.51357e-08 1.80198e-08)
(1.11036e-09 -1.90041e-08 2.1053e-08)
(-5.28711e-10 -1.89977e-08 2.06536e-08)
(-6.62867e-09 -1.54605e-08 1.69078e-08)
(9.81476e-09 -3.34551e-08 3.36938e-08)
(1.02615e-09 -3.53829e-08 3.70924e-08)
(-4.11401e-10 -3.50307e-08 3.64839e-08)
(-7.25113e-09 -3.25112e-08 3.19732e-08)
(8.60428e-09 -5.07717e-08 4.95673e-08)
(9.45666e-11 -5.22355e-08 5.2882e-08)
(-3.59864e-10 -5.14768e-08 5.20936e-08)
(-6.95837e-09 -4.85551e-08 4.73039e-08)
(8.559e-09 -6.69534e-08 6.42768e-08)
(-6.53592e-10 -6.96589e-08 6.73661e-08)
(-1.4181e-09 -6.84775e-08 6.6416e-08)
(-8.69848e-09 -6.3462e-08 6.15173e-08)
(1.3604e-08 -8.31232e-08 7.63932e-08)
(2.8905e-10 -8.72946e-08 7.92412e-08)
(-5.09322e-09 -8.56858e-08 7.81495e-08)
(-1.63985e-08 -7.83517e-08 7.31916e-08)
(2.73516e-08 -1.05045e-07 8.3731e-08)
(3.90876e-09 -1.07157e-07 8.6365e-08)
(-1.24652e-08 -1.05089e-07 8.51758e-08)
(-3.36486e-08 -9.8868e-08 8.02004e-08)
(4.44445e-08 -1.40203e-07 8.39528e-08)
(7.61386e-09 -1.34315e-07 8.65293e-08)
(-2.11131e-08 -1.31515e-07 8.53362e-08)
(-5.50811e-08 -1.31679e-07 8.03499e-08)
(3.32031e-09 -6.48548e-10 3.96135e-09)
(6.10944e-11 -4.18581e-09 4.78535e-09)
(9.81565e-12 -4.38711e-09 4.67894e-09)
(-1.72152e-09 -2.06479e-09 3.67109e-09)
(7.19647e-09 -1.63381e-08 1.43012e-08)
(6.30156e-10 -1.9717e-08 1.58065e-08)
(2.92722e-10 -1.9785e-08 1.55234e-08)
(-4.24202e-09 -1.692e-08 1.35228e-08)
(7.83844e-09 -3.47048e-08 2.61911e-08)
(6.29453e-10 -3.65429e-08 2.77997e-08)
(6.3818e-10 -3.62922e-08 2.73676e-08)
(-4.60832e-09 -3.40969e-08 2.49814e-08)
(7.0719e-09 -5.14445e-08 3.83179e-08)
(-4.2954e-11 -5.305e-08 3.97828e-08)
(7.64359e-10 -5.2407e-08 3.92165e-08)
(-4.43219e-09 -4.96017e-08 3.67047e-08)
(7.53665e-09 -6.62348e-08 4.93685e-08)
(-5.11456e-10 -6.91437e-08 5.06218e-08)
(-2.49366e-10 -6.80864e-08 4.99318e-08)
(-6.35984e-09 -6.31351e-08 4.73749e-08)
(1.29252e-08 -8.05181e-08 5.79418e-08)
(6.22566e-10 -8.48916e-08 5.90124e-08)
(-3.81864e-09 -8.34116e-08 5.82147e-08)
(-1.41022e-08 -7.61439e-08 5.5609e-08)
(2.66029e-08 -1.00628e-07 6.25207e-08)
(4.26872e-09 -1.031e-07 6.3489e-08)
(-1.095e-08 -1.01158e-07 6.26196e-08)
(-3.10067e-08 -9.48369e-08 5.99406e-08)
(4.33114e-08 -1.34309e-07 6.20964e-08)
(7.95158e-09 -1.29308e-07 6.31312e-08)
(-1.93308e-08 -1.26625e-07 6.22616e-08)
(-5.18014e-08 -1.26136e-07 5.94658e-08)
(3.01963e-09 -9.25693e-10 3.08544e-09)
(7.28831e-11 -4.19012e-09 3.4458e-09)
(4.7005e-11 -4.40937e-09 3.37447e-09)
(-1.35373e-09 -2.41266e-09 2.89268e-09)
(6.80515e-09 -1.63661e-08 1.05183e-08)
(6.99307e-10 -1.95936e-08 1.11268e-08)
(4.26719e-10 -1.97185e-08 1.09382e-08)
(-3.62649e-09 -1.71355e-08 1.00044e-08)
(7.68999e-09 -3.43558e-08 1.88234e-08)
(8.53628e-10 -3.62439e-08 1.94034e-08)
(8.21582e-10 -3.60746e-08 1.91153e-08)
(-4.03682e-09 -3.40063e-08 1.80231e-08)
(7.31547e-09 -5.055e-08 2.72224e-08)
(3.99622e-10 -5.23104e-08 2.76595e-08)
(9.61945e-10 -5.17615e-08 2.72798e-08)
(-4.0244e-09 -4.90015e-08 2.61474e-08)
(8.1696e-09 -6.45585e-08 3.47607e-08)
(1.4507e-10 -6.76286e-08 3.50353e-08)
(-2.78943e-11 -6.66708e-08 3.45694e-08)
(-6.10506e-09 -6.1767e-08 3.34207e-08)
(1.37785e-08 -7.80146e-08 4.04106e-08)
(1.41408e-09 -8.252e-08 4.05664e-08)
(-3.50571e-09 -8.11398e-08 4.00252e-08)
(-1.38398e-08 -7.39465e-08 3.88322e-08)
(2.73414e-08 -9.74686e-08 4.32381e-08)
(5.06343e-09 -1.0016e-07 4.33553e-08)
(-1.0433e-08 -9.83132e-08 4.27643e-08)
(-3.04182e-08 -9.19666e-08 4.1486e-08)
(4.37209e-08 -1.30472e-07 4.28174e-08)
(8.71745e-09 -1.2604e-07 4.30135e-08)
(-1.85976e-08 -1.23442e-07 4.24226e-08)
(-5.06914e-08 -1.22557e-07 4.10297e-08)
(2.96031e-09 -9.84007e-10 1.95274e-09)
(1.21917e-10 -4.14454e-09 2.09388e-09)
(2.37197e-11 -4.37514e-09 2.05299e-09)
(-1.25623e-09 -2.51456e-09 1.84287e-09)
(6.82787e-09 -1.60733e-08 6.44303e-09)
(8.4385e-10 -1.92793e-08 6.65344e-09)
(3.96662e-10 -1.94408e-08 6.54556e-09)
(-3.51964e-09 -1.69612e-08 6.15062e-09)
(7.92647e-09 -3.36393e-08 1.13434e-08)
(1.12384e-09 -3.56045e-08 1.15024e-08)
(7.88969e-10 -3.5489e-08 1.13374e-08)
(-4.02377e-09 -3.34582e-08 1.08875e-08)
(7.81677e-09 -4.9416e-08 1.62438e-08)
(8.15764e-10 -5.12954e-08 1.63052e-08)
(9.29009e-10 -5.08097e-08 1.60871e-08)
(-4.13315e-09 -4.80635e-08 1.5629e-08)
(8.91207e-09 -6.30256e-08 2.05928e-08)
(6.96314e-10 -6.62022e-08 2.05562e-08)
(-4.1593e-11 -6.53115e-08 2.02875e-08)
(-6.30168e-09 -6.04406e-08 1.98226e-08)
(1.46439e-08 -7.61786e-08 2.3796e-08)
(2.04836e-09 -8.07582e-08 2.3695e-08)
(-3.45122e-09 -7.94447e-08 2.33819e-08)
(-1.40077e-08 -7.23147e-08 2.28847e-08)
(2.81209e-08 -9.54374e-08 2.53549e-08)
(5.7003e-09 -9.82391e-08 2.52426e-08)
(-1.02407e-08 -9.64543e-08 2.49e-08)
(-3.03582e-08 -9.01262e-08 2.43403e-08)
(4.42851e-08 -1.28113e-07 2.50861e-08)
(9.33672e-09 -1.23979e-07 2.50254e-08)
(-1.82617e-08 -1.21437e-07 2.46828e-08)
(-5.02869e-08 -1.20367e-07 2.405e-08)
(2.95182e-09 -9.82235e-10 6.67268e-10)
(1.49818e-10 -4.10722e-09 7.04098e-10)
(6.84041e-12 -4.34332e-09 6.90794e-10)
(-1.23043e-09 -2.53361e-09 6.31605e-10)
(6.87807e-09 -1.58505e-08 2.16949e-09)
(9.25023e-10 -1.90628e-08 2.21858e-09)
(3.67047e-10 -1.9242e-08 2.18349e-09)
(-3.51045e-09 -1.67952e-08 2.07462e-09)
(8.08774e-09 -3.31623e-08 3.78838e-09)
(1.26919e-09 -3.51752e-08 3.81576e-09)
(7.52976e-10 -3.50862e-08 3.76206e-09)
(-4.06922e-09 -3.30632e-08 3.64037e-09)
(8.10634e-09 -4.87172e-08 5.39598e-09)
(1.03182e-09 -5.06586e-08 5.38945e-09)
(8.92196e-10 -5.02043e-08 5.31836e-09)
(-4.23819e-09 -4.74614e-08 5.19602e-09)
(9.31385e-09 -6.216e-08 6.81428e-09)
(9.76332e-10 -6.53883e-08 6.77543e-09)
(-6.67603e-11 -6.45311e-08 6.6877e-09)
(-6.44385e-09 -5.96777e-08 6.56317e-09)
(1.51003e-08 -7.52228e-08 7.85157e-09)
(2.36778e-09 -7.98349e-08 7.79258e-09)
(-3.44043e-09 -7.85544e-08 7.69015e-09)
(-1.41291e-08 -7.14605e-08 7.55379e-09)
(2.85349e-08 -9.44367e-08 8.35153e-09)
(6.02239e-09 -9.72819e-08 8.29042e-09)
(-1.0162e-08 -9.5528e-08 8.17823e-09)
(-3.03659e-08 -8.92201e-08 8.01948e-09)
(4.45947e-08 -1.26977e-07 8.26078e-09)
(9.65114e-09 -1.22966e-07 8.21694e-09)
(-1.81122e-08 -1.20451e-07 8.10475e-09)
(-5.01257e-08 -1.19313e-07 7.92149e-09)
)
;

boundaryField
{
    interface
    {
        type            calculated;
        value           nonuniform List<vector> 
192
(
(2.78051e-08 4.14775e-08 2.60318e-08)
(4.78531e-08 2.66094e-08 6.17118e-08)
(5.22615e-08 2.87279e-09 8.78455e-08)
(5.16001e-08 -1.91208e-08 1.10218e-07)
(5.13979e-08 -4.03585e-08 1.32334e-07)
(5.54185e-08 -6.48054e-08 1.5653e-07)
(6.70525e-08 -1.02989e-07 1.8311e-07)
(8.2471e-08 -1.62481e-07 2.04551e-07)
(1.59405e-08 1.95746e-08 7.8832e-09)
(2.98086e-08 3.58669e-09 3.02254e-08)
(3.23475e-08 -1.68487e-08 5.2944e-08)
(3.09396e-08 -3.65973e-08 7.39509e-08)
(3.01854e-08 -5.60336e-08 9.42238e-08)
(3.40225e-08 -7.68558e-08 1.14696e-07)
(4.69925e-08 -1.06856e-07 1.33855e-07)
(6.66717e-08 -1.56013e-07 1.45005e-07)
(7.35888e-09 8.39196e-09 3.23101e-09)
(1.58413e-08 -8.76978e-09 1.86452e-08)
(1.71041e-08 -2.85938e-08 3.77718e-08)
(1.56295e-08 -4.6942e-08 5.69121e-08)
(1.50579e-08 -6.37347e-08 7.5034e-08)
(1.93978e-08 -7.98262e-08 9.13962e-08)
(3.34658e-08 -1.02674e-07 1.0349e-07)
(5.4511e-08 -1.44425e-07 1.0669e-07)
(3.41677e-09 3.63659e-09 3.4702e-09)
(9.39471e-09 -1.37995e-08 1.59566e-08)
(1.02436e-08 -3.3609e-08 3.15084e-08)
(9.15814e-09 -5.10858e-08 4.75696e-08)
(9.18206e-09 -6.57036e-08 6.25213e-08)
(1.41761e-08 -7.84252e-08 7.48251e-08)
(2.87365e-08 -9.73345e-08 8.21869e-08)
(4.96546e-08 -1.35487e-07 8.22792e-08)
(1.94382e-09 1.98065e-09 3.59884e-09)
(7.12072e-09 -1.52086e-08 1.36977e-08)
(8.08605e-09 -3.4736e-08 2.566e-08)
(7.52137e-09 -5.15201e-08 3.79958e-08)
(8.16263e-09 -6.47716e-08 4.92712e-08)
(1.36573e-08 -7.57516e-08 5.79854e-08)
(2.8326e-08 -9.30313e-08 6.25181e-08)
(4.87712e-08 -1.29573e-07 6.19155e-08)
(1.49562e-09 1.5305e-09 2.99547e-09)
(6.56937e-09 -1.51986e-08 1.04262e-08)
(7.81596e-09 -3.42283e-08 1.88455e-08)
(7.7019e-09 -5.04302e-08 2.74086e-08)
(8.80872e-09 -6.29428e-08 3.51046e-08)
(1.46188e-08 -7.32217e-08 4.08403e-08)
(2.92629e-08 -8.99831e-08 4.36176e-08)
(4.92775e-08 -1.25751e-07 4.30609e-08)
(1.38813e-09 1.46304e-09 1.9358e-09)
(6.52396e-09 -1.48319e-08 6.46128e-09)
(8.00602e-09 -3.33922e-08 1.14429e-08)
(8.19474e-09 -4.91697e-08 1.64415e-08)
(9.59018e-09 -6.13189e-08 2.08788e-08)
(1.55765e-08 -7.13765e-08 2.41264e-08)
(3.01782e-08 -8.80272e-08 2.56533e-08)
(4.99023e-08 -1.23414e-07 2.53046e-08)
(1.37002e-09 1.47524e-09 6.65148e-10)
(6.55371e-09 -1.45665e-08 2.18205e-09)
(8.15695e-09 -3.28554e-08 3.82871e-09)
(8.49233e-09 -4.84107e-08 5.46837e-09)
(1.00224e-08 -6.04116e-08 6.91473e-09)
(1.60871e-08 -7.04177e-08 7.96568e-09)
(3.06639e-08 -8.70632e-08 8.45501e-09)
(5.02456e-08 -1.22292e-07 8.33819e-09)
(2.47188e-08 4.83543e-08 2.95946e-08)
(4.54697e-08 3.66459e-08 6.69449e-08)
(4.96726e-08 1.43231e-08 9.37598e-08)
(4.83846e-08 -7.69764e-09 1.16581e-07)
(4.77651e-08 -2.98992e-08 1.38716e-07)
(5.19672e-08 -5.63491e-08 1.62084e-07)
(6.38417e-08 -9.76307e-08 1.87508e-07)
(7.79404e-08 -1.60344e-07 2.09401e-07)
(4.95932e-09 3.80897e-08 2.61492e-08)
(1.03201e-08 2.82046e-08 6.20123e-08)
(1.09528e-08 1.03099e-08 8.74543e-08)
(9.27906e-09 -9.94945e-09 1.08703e-07)
(7.61211e-09 -3.27518e-08 1.29154e-07)
(7.68701e-09 -5.99176e-08 1.51044e-07)
(1.04813e-08 -9.85519e-08 1.76665e-07)
(1.37049e-08 -1.55469e-07 2.02546e-07)
(-7.00469e-09 3.7018e-08 2.45487e-08)
(-1.46629e-08 2.76858e-08 5.98868e-08)
(-1.75249e-08 1.04271e-08 8.49272e-08)
(-1.86155e-08 -9.26037e-09 1.05861e-07)
(-2.03773e-08 -3.15465e-08 1.26041e-07)
(-2.46213e-08 -5.82114e-08 1.47675e-07)
(-3.247e-08 -9.62723e-08 1.73029e-07)
(-4.1802e-08 -1.52226e-07 1.98613e-07)
(-2.47978e-08 4.47995e-08 2.47552e-08)
(-4.70501e-08 3.52904e-08 6.02855e-08)
(-5.34266e-08 1.50067e-08 8.58196e-08)
(-5.48741e-08 -5.35188e-09 1.07682e-07)
(-5.76334e-08 -2.6076e-08 1.29005e-07)
(-6.59359e-08 -5.10875e-08 1.51614e-07)
(-8.26701e-08 -9.06991e-08 1.76284e-07)
(-1.02385e-07 -1.50514e-07 1.97479e-07)
(-2.14226e-08 3.94567e-08 2.35636e-08)
(-4.23546e-08 2.67422e-08 5.65919e-08)
(-4.84312e-08 5.12702e-09 8.11568e-08)
(-5.00675e-08 -1.4984e-08 1.02391e-07)
(-5.2847e-08 -3.44285e-08 1.2354e-07)
(-6.05645e-08 -5.70683e-08 1.46821e-07)
(-7.65301e-08 -9.32188e-08 1.72484e-07)
(-9.67622e-08 -1.49609e-07 1.93133e-07)
(-9.46953e-09 1.78628e-08 6.81006e-09)
(-2.33607e-08 3.87982e-09 2.72906e-08)
(-2.6902e-08 -1.46366e-08 4.86441e-08)
(-2.72594e-08 -3.26021e-08 6.86043e-08)
(-2.90247e-08 -5.02916e-08 8.79755e-08)
(-3.61351e-08 -6.93573e-08 1.07608e-07)
(-5.30179e-08 -9.74571e-08 1.26006e-07)
(-7.69785e-08 -1.43774e-07 1.36688e-07)
(-8.04492e-10 6.37613e-09 2.55269e-09)
(-8.71179e-09 -8.87423e-09 1.67032e-08)
(-1.03936e-08 -2.68469e-08 3.47503e-08)
(-1.01674e-08 -4.34514e-08 5.29744e-08)
(-1.16514e-08 -5.85225e-08 7.02836e-08)
(-1.8842e-08 -7.28954e-08 8.5909e-08)
(-3.64285e-08 -9.39131e-08 9.73951e-08)
(-6.13891e-08 -1.32896e-07 1.00302e-07)
(3.23468e-09 1.30476e-09 2.98998e-09)
(-1.7762e-09 -1.4393e-08 1.46088e-08)
(-2.61377e-09 -3.24287e-08 2.93664e-08)
(-2.35033e-09 -4.81931e-08 4.46942e-08)
(-4.02758e-09 -6.11017e-08 5.89686e-08)
(-1.14961e-08 -7.21139e-08 7.06636e-08)
(-2.92207e-08 -8.91971e-08 7.75444e-08)
(-5.37533e-08 -1.24561e-07 7.74236e-08)
(4.77777e-09 -5.73916e-10 3.26414e-09)
(8.14202e-10 -1.61982e-08 1.27721e-08)
(1.59443e-10 -3.40493e-08 2.41777e-08)
(2.20674e-10 -4.91637e-08 3.5971e-08)
(-1.7509e-09 -6.07174e-08 4.67264e-08)
(-9.40981e-09 -6.99819e-08 5.49692e-08)
(-2.69558e-08 -8.54119e-08 5.91329e-08)
(-5.07659e-08 -1.19122e-07 5.83682e-08)
(5.26894e-09 -1.16761e-09 2.77631e-09)
(1.56499e-09 -1.64647e-08 9.82374e-09)
(8.21595e-10 -3.39067e-08 1.78769e-08)
(6.61785e-10 -4.84843e-08 2.60726e-08)
(-1.54051e-09 -5.93129e-08 3.34061e-08)
(-9.28273e-09 -6.7868e-08 3.88086e-08)
(-2.65875e-08 -8.27535e-08 4.13238e-08)
(-4.97772e-08 -1.15651e-07 4.0651e-08)
(5.40072e-09 -1.3206e-09 1.81201e-09)
(1.72429e-09 -1.62692e-08 6.12155e-09)
(8.63619e-10 -3.33047e-08 1.08955e-08)
(5.45614e-10 -4.74938e-08 1.56824e-08)
(-1.79192e-09 -5.79718e-08 1.99072e-08)
(-9.55628e-09 -6.63003e-08 2.2957e-08)
(-2.66741e-08 -8.10561e-08 2.43272e-08)
(-4.94462e-08 -1.13544e-07 2.39085e-08)
(5.42987e-09 -1.3484e-09 6.25146e-10)
(1.74684e-09 -1.60855e-08 2.07231e-09)
(8.2095e-10 -3.28812e-08 3.65172e-09)
(4.25339e-10 -4.68676e-08 5.22226e-09)
(-1.97107e-09 -5.72048e-08 6.5987e-09)
(-9.73721e-09 -6.54796e-08 7.58413e-09)
(-2.6758e-08 -8.02207e-08 8.0214e-09)
(-4.93243e-08 -1.12536e-07 7.88117e-09)
(7.77297e-08 -1.67207e-07 2.10121e-07)
(6.31551e-08 -1.60352e-07 1.47414e-07)
(5.06127e-08 -1.50035e-07 1.06207e-07)
(4.53302e-08 -1.42132e-07 8.02712e-08)
(4.4429e-08 -1.36547e-07 5.96636e-08)
(4.49731e-08 -1.32805e-07 4.12686e-08)
(4.56009e-08 -1.30496e-07 2.42122e-08)
(4.59342e-08 -1.29388e-07 7.97662e-09)
(1.35225e-08 -1.59947e-07 2.05629e-07)
(9.80154e-09 -1.49074e-07 1.48746e-07)
(6.37362e-09 -1.38497e-07 1.10187e-07)
(5.44162e-09 -1.31897e-07 8.32955e-08)
(6.03035e-09 -1.27567e-07 6.10625e-08)
(6.95959e-09 -1.24639e-07 4.16814e-08)
(7.66733e-09 -1.22759e-07 2.42569e-08)
(8.01936e-09 -1.21828e-07 7.96356e-09)
(-4.19623e-08 -1.55673e-07 2.02688e-07)
(-3.30965e-08 -1.45028e-07 1.46739e-07)
(-2.57077e-08 -1.34643e-07 1.08688e-07)
(-2.17725e-08 -1.28197e-07 8.21688e-08)
(-2.01242e-08 -1.23984e-07 6.02432e-08)
(-1.94687e-08 -1.2114e-07 4.11257e-08)
(-1.91653e-08 -1.19315e-07 2.3935e-08)
(-1.90257e-08 -1.18411e-07 7.8582e-09)
(-1.02558e-07 -1.54209e-07 2.0126e-07)
(-8.32787e-08 -1.47874e-07 1.41392e-07)
(-6.6897e-08 -1.38091e-07 1.01695e-07)
(-5.85997e-08 -1.3064e-07 7.68686e-08)
(-5.54312e-08 -1.25402e-07 5.71854e-08)
(-5.43662e-08 -1.21911e-07 3.95875e-08)
(-5.39661e-08 -1.19764e-07 2.3239e-08)
(-5.37992e-08 -1.18735e-07 7.65814e-09)
)
;
    }
    symmetry
    {
        type            symmetry;
    }
    bottom
    {
        type            calculated;
        value           uniform (0 0 0);
    }
}


// ************************************************************************* //
