/*--------------------------------*- C++ -*----------------------------------*\
| =========                 |                                                 |
| \\      /  F ield         | OpenFOAM: The Open Source CFD Toolbox           |
|  \\    /   O peration     | Version:  v1912                                 |
|   \\  /    A nd           | Website:  www.openfoam.com                      |
|    \\/     M anipulation  |                                                 |
\*---------------------------------------------------------------------------*/
FoamFile
{
    version     2.0;
    format      ascii;
    class       surfaceScalarField;
    location    "0.63/fluid";
    object      meshPhi;
}
// * * * * * * * * * * * * * * * * * * * * * * * * * * * * * * * * * * * * * //

dimensions      [0 3 -1 0 0 0 0];
oriented        oriented;


internalField   nonuniform List<scalar> 
41600
(
1.72302e-13
-4.32559e-13
1.6236e-13
-1.67716e-13
3.28981e-13
-1.26019e-12
4.78559e-13
-4.94595e-13
4.76258e-13
-2.02853e-12
7.88649e-13
-8.15829e-13
6.19811e-13
-2.76481e-12
1.11319e-12
-1.15306e-12
7.65123e-13
-3.48745e-12
1.47071e-12
-1.52594e-12
9.17984e-13
-4.20481e-12
1.87854e-12
-1.9531e-12
1.08523e-12
-4.91288e-12
2.35326e-12
-2.45286e-12
1.27592e-12
-5.59073e-12
2.91079e-12
-3.0435e-12
1.50361e-12
-6.19203e-12
3.56593e-12
-3.74341e-12
1.79136e-12
-6.62997e-12
4.33151e-12
-4.57138e-12
2.18238e-12
-6.75023e-12
5.21788e-12
-5.54882e-12
2.76395e-12
-6.27833e-12
6.23489e-12
-6.70837e-12
3.71208e-12
-4.71539e-12
7.40032e-12
-8.11942e-12
5.33881e-12
-1.17322e-12
8.75196e-12
-9.94419e-12
7.77612e-12
5.27299e-12
1.02699e-11
-1.23587e-11
1.60763e-11
1.28945e-11
-1.88764e-11
5.12874e-13
-8.52377e-13
4.82889e-13
-4.9883e-13
9.79115e-13
-2.48382e-12
1.42323e-12
-1.47094e-12
1.41707e-12
-4e-12
2.34508e-12
-2.42592e-12
1.84343e-12
-5.45556e-12
3.30937e-12
-3.42785e-12
2.27431e-12
-6.88846e-12
4.37093e-12
-4.53488e-12
2.72659e-12
-8.31813e-12
5.58108e-12
-5.80222e-12
3.21981e-12
-9.74154e-12
6.9889e-12
-7.28397e-12
3.77908e-12
-1.11257e-11
8.64132e-12
-9.03393e-12
4.44032e-12
-1.23944e-11
1.05816e-11
-1.11055e-11
5.26107e-12
-1.34067e-11
1.28456e-11
-1.35509e-11
6.34245e-12
-1.39247e-11
1.54573e-11
-1.64233e-11
7.87427e-12
-1.35693e-11
1.84245e-11
-1.97869e-11
1.02043e-11
-1.17865e-11
2.17388e-11
-2.37497e-11
1.38597e-11
-7.93742e-12
2.53643e-11
-2.85212e-11
1.88082e-11
-2.06641e-12
2.90611e-11
-3.41417e-11
4.87664e-12
3.19233e-11
-4.14247e-11
8.41615e-13
-1.24688e-12
7.91185e-13
-8.17307e-13
1.60627e-12
-3.63465e-12
2.33155e-12
-2.40969e-12
2.3236e-12
-5.85743e-12
3.84061e-12
-3.97289e-12
3.0204e-12
-7.99778e-12
5.41745e-12
-5.6111e-12
3.72253e-12
-1.01152e-11
7.15123e-12
-7.4188e-12
4.45674e-12
-1.22446e-11
9.12537e-12
-9.48574e-12
5.25305e-12
-1.43922e-11
1.14197e-11
-1.18997e-11
6.1481e-12
-1.65272e-11
1.41107e-11
-1.47477e-11
7.19029e-12
-1.85685e-11
1.72682e-11
-1.81151e-11
8.44878e-12
-2.03636e-11
2.09487e-11
-2.2082e-11
1.00301e-11
-2.16619e-11
2.51822e-11
-2.67175e-11
1.2107e-11
-2.20921e-11
2.99517e-11
-3.20742e-11
1.49443e-11
-2.11852e-11
3.51609e-11
-3.81826e-11
1.88357e-11
-1.85595e-11
4.05724e-11
-4.50286e-11
2.33939e-11
-1.45677e-11
4.56221e-11
-5.21701e-11
-1.01647e-11
4.95832e-11
-6.0946e-11
1.15125e-12
-1.6032e-12
1.07984e-12
-1.11545e-12
2.19632e-12
-4.67533e-12
3.18147e-12
-3.28794e-12
3.17481e-12
-7.54128e-12
5.23823e-12
-5.41829e-12
4.12245e-12
-1.03116e-11
7.38393e-12
-7.64714e-12
5.07356e-12
-1.30691e-11
9.73883e-12
-1.01019e-11
6.06318e-12
-1.58689e-11
1.24156e-11
-1.29036e-11
7.12956e-12
-1.87348e-11
1.55222e-11
-1.61707e-11
8.31694e-12
-2.16536e-11
1.91626e-11
-2.00206e-11
9.67864e-12
-2.45634e-11
2.34329e-11
-2.45687e-11
1.12803e-11
-2.73373e-11
2.84117e-11
-2.99215e-11
1.32032e-11
-2.97608e-11
3.41402e-11
-3.61637e-11
1.55463e-11
-3.1512e-11
4.05867e-11
-4.33348e-11
1.84107e-11
-3.21681e-11
4.75856e-11
-5.13871e-11
2.18235e-11
-3.13146e-11
5.47327e-11
-6.01079e-11
2.53136e-11
-2.89926e-11
6.11792e-11
-6.87021e-11
-2.55774e-11
6.58253e-11
-7.80843e-11
1.43528e-12
-1.90867e-12
1.34231e-12
-1.38648e-12
2.73664e-12
-5.56886e-12
3.9535e-12
-4.08547e-12
3.952e-12
-8.99166e-12
6.50517e-12
-6.72809e-12
5.12449e-12
-1.23147e-11
9.16121e-12
-9.48655e-12
6.2954e-12
-1.5645e-11
1.20687e-11
-1.25166e-11
7.50649e-12
-1.90606e-11
1.53652e-11
-1.5966e-11
8.80252e-12
-2.26099e-11
1.91834e-11
-1.99793e-11
1.02336e-11
-2.63084e-11
2.36516e-11
-2.47011e-11
1.18563e-11
-3.01328e-11
2.88913e-11
-3.02746e-11
1.37327e-11
-3.40099e-11
3.50073e-11
-3.68349e-11
1.59235e-11
-3.77998e-11
4.2065e-11
-4.44934e-11
1.84716e-11
-4.12682e-11
5.0049e-11
-5.33048e-11
2.1356e-11
-4.40414e-11
5.87809e-11
-6.32018e-11
2.44066e-11
-4.55544e-11
6.77617e-11
-7.386e-11
2.70657e-11
-4.52193e-11
7.5855e-11
-8.41606e-11
-4.23149e-11
8.15232e-11
-9.4555e-11
1.68839e-12
-2.15119e-12
1.57333e-12
-1.62493e-12
3.21692e-12
-6.27977e-12
4.63198e-12
-4.78604e-12
4.63993e-12
-1.01506e-11
7.6151e-12
-7.87501e-12
6.00618e-12
-1.3926e-11
1.0711e-11
-1.10897e-11
7.36217e-12
-1.77357e-11
1.40882e-11
-1.46085e-11
8.75477e-12
-2.16815e-11
1.79041e-11
-1.85999e-11
1.02339e-11
-2.58387e-11
2.23102e-11
-2.32291e-11
1.18551e-11
-3.02569e-11
2.74547e-11
-2.86618e-11
1.36811e-11
-3.49608e-11
3.34813e-11
-3.50652e-11
1.57803e-11
-3.99474e-11
4.05217e-11
-4.26034e-11
1.82223e-11
-4.51819e-11
4.8678e-11
-5.14265e-11
2.10606e-11
-5.0581e-11
5.79869e-11
-6.16441e-11
2.42874e-11
-5.59605e-11
6.83396e-11
-7.32615e-11
2.7729e-11
-6.08882e-11
7.92896e-11
-8.60172e-11
3.07239e-11
-6.44288e-11
8.95529e-11
-9.86323e-11
-6.4017e-11
9.72157e-11
-1.11326e-10
1.9066e-12
-2.31987e-12
1.76917e-12
-1.82695e-12
3.62959e-12
-6.77603e-12
5.20583e-12
-5.37822e-12
5.22755e-12
-1.09654e-11
8.54955e-12
-8.83997e-12
6.75285e-12
-1.50703e-11
1.20067e-11
-1.2429e-11
8.2552e-12
-1.92401e-11
1.57609e-11
-1.63395e-11
9.78458e-12
-2.35972e-11
1.99828e-11
-2.07542e-11
1.13943e-11
-2.82414e-11
2.48361e-11
-2.5851e-11
1.31442e-11
-3.32542e-11
3.0481e-11
-3.18086e-11
1.51043e-11
-3.87044e-11
3.70754e-11
-3.8809e-11
1.73577e-11
-4.46548e-11
4.47711e-11
-4.70379e-11
2.00051e-11
-5.11739e-11
5.37046e-11
-5.66818e-11
2.31697e-11
-5.83506e-11
6.39778e-11
-6.79204e-11
2.69899e-11
-6.63052e-11
7.56066e-11
-8.08963e-11
3.1549e-11
-7.51351e-11
8.835e-11
-9.55888e-11
3.62859e-11
-8.43608e-11
1.0104e-10
-1.10863e-10
-9.35639e-11
1.11635e-10
-1.27555e-10
2.08751e-12
1.92778e-12
-1.99042e-12
-2.40567e-12
3.97027e-12
5.66919e-12
-5.85596e-12
-7.03107e-12
5.70877e-12
9.29911e-12
-9.61326e-12
-1.13921e-11
7.35671e-12
1.30351e-11
-1.34908e-11
-1.56848e-11
8.96476e-12
1.70692e-11
-1.76917e-11
-2.00723e-11
1.05835e-11
2.15779e-11
-2.24047e-11
-2.46922e-11
1.22666e-11
2.6729e-11
-2.78119e-11
-2.9662e-11
1.4075e-11
3.26846e-11
-3.4094e-11
-3.50857e-11
1.60815e-11
3.9604e-11
-4.14338e-11
-4.10604e-11
1.83776e-11
4.76415e-11
-5.00193e-11
-4.76865e-11
2.10859e-11
5.69431e-11
-6.00462e-11
-5.5083e-11
2.43797e-11
6.76395e-11
-7.17232e-11
-6.34111e-11
2.85056e-11
7.98203e-11
-8.5272e-11
-7.29028e-11
3.37487e-11
9.34151e-11
-1.00864e-10
-8.38526e-11
3.96101e-11
1.07401e-10
-1.17542e-10
-9.58306e-11
1.20909e-10
-1.38399e-10
-1.11939e-10
1.73136e-13
-4.41854e-13
1.51101e-13
3.30304e-13
-1.28738e-12
4.45191e-13
4.77505e-13
-2.07274e-12
7.33056e-13
6.20108e-13
-2.82616e-12
1.03342e-12
7.63121e-13
-3.56705e-12
1.36296e-12
9.11536e-13
-4.30489e-12
1.73691e-12
1.07085e-12
-5.0372e-12
2.16931e-12
1.2479e-12
-5.74571e-12
2.67262e-12
1.45242e-12
-6.3894e-12
3.2565e-12
1.70068e-12
-6.89269e-12
3.92526e-12
2.02358e-12
-7.12595e-12
4.6733e-12
2.48378e-12
-6.87122e-12
5.47702e-12
3.20487e-12
-5.76237e-12
6.27913e-12
4.38447e-12
-3.22101e-12
6.95488e-12
6.04575e-12
1.2174e-12
7.26793e-12
7.17352e-12
6.81494e-12
5.1542e-13
-8.70605e-13
4.494e-13
9.83197e-13
-2.53713e-12
1.32399e-12
1.42106e-12
-4.08668e-12
2.17977e-12
1.84484e-12
-5.5759e-12
3.07226e-12
2.26926e-12
-7.04461e-12
4.05083e-12
2.70894e-12
-8.51424e-12
5.16063e-12
3.1796e-12
-9.98439e-12
6.44324e-12
3.7e-12
-1.14266e-11
7.93558e-12
4.29528e-12
-1.27734e-11
9.66623e-12
5.00422e-12
-1.39019e-11
1.16476e-11
5.89483e-12
-1.46124e-11
1.38614e-11
7.09488e-12
-1.46074e-11
1.62325e-11
8.8334e-12
-1.35017e-11
1.85802e-11
1.14179e-11
-1.09678e-11
2.053e-11
1.47089e-11
-7.31107e-12
2.14609e-11
-4.52954e-12
1.98359e-11
8.46027e-13
-1.27341e-12
7.36332e-13
1.61349e-12
-3.71223e-12
2.16901e-12
2.33112e-12
-5.98362e-12
3.56998e-12
3.02442e-12
-8.17299e-12
5.02956e-12
3.71716e-12
-1.03424e-11
6.62804e-12
4.43262e-12
-1.25294e-11
8.43894e-12
5.19511e-12
-1.47432e-11
1.05301e-11
6.03173e-12
-1.69583e-11
1.29621e-11
6.97482e-12
-1.91029e-11
1.57824e-11
8.0663e-12
-2.10439e-11
1.90129e-11
9.36612e-12
-2.25698e-11
2.26255e-11
1.0966e-11
-2.33906e-11
2.64995e-11
1.29954e-11
-2.31947e-11
3.03456e-11
1.55507e-11
-2.18668e-11
3.35944e-11
1.82864e-11
-1.99385e-11
3.54012e-11
-1.89906e-11
3.44163e-11
1.15779e-12
-1.63715e-12
1.00503e-12
2.2073e-12
-4.77464e-12
2.95986e-12
3.18709e-12
-7.7028e-12
4.86946e-12
4.13134e-12
-1.05358e-11
6.85588e-12
5.07183e-12
-1.33596e-11
9.02748e-12
6.03944e-12
-1.62321e-11
1.14837e-11
7.06557e-12
-1.91801e-11
1.43166e-11
8.18305e-12
-2.21949e-11
1.76094e-11
9.42611e-12
-2.52224e-11
2.14295e-11
1.08284e-11
-2.81507e-11
2.58128e-11
1.24174e-11
-3.07958e-11
3.07332e-11
1.4202e-11
-3.28975e-11
3.60477e-11
1.61419e-11
-3.41535e-11
4.14037e-11
1.80842e-11
-3.43588e-11
4.61102e-11
1.9652e-11
-3.37248e-11
4.91405e-11
-3.33822e-11
4.89773e-11
1.44425e-12
-1.94892e-12
1.24943e-12
2.7521e-12
-5.68662e-12
3.67848e-12
3.97042e-12
-9.18323e-12
6.0479e-12
5.14075e-12
-1.25806e-11
8.50721e-12
6.30173e-12
-1.59891e-11
1.1189e-11
7.49079e-12
-1.94897e-11
1.42151e-11
8.74555e-12
-2.31334e-11
1.76986e-11
1.01043e-11
-2.69386e-11
2.17436e-11
1.16039e-11
-3.08862e-11
2.64374e-11
1.32735e-11
-3.49111e-11
3.1835e-11
1.51187e-11
-3.88889e-11
3.79258e-11
1.7089e-11
-4.26163e-11
4.45735e-11
1.90168e-11
-4.57831e-11
5.14082e-11
2.05457e-11
-4.79482e-11
5.76634e-11
2.12096e-11
-4.86772e-11
6.21048e-11
-4.83411e-11
6.29154e-11
1.70005e-12
-2.19642e-12
1.46466e-12
3.23749e-12
-6.41211e-12
4.31034e-12
4.66573e-12
-1.03659e-11
7.08085e-12
6.03209e-12
-1.42248e-11
9.9481e-12
7.38061e-12
-1.81222e-11
1.30641e-11
8.75411e-12
-2.21625e-11
1.65682e-11
1.01959e-11
-2.64229e-11
2.05903e-11
1.17507e-11
-3.09543e-11
2.52512e-11
1.34631e-11
-3.57819e-11
3.06559e-11
1.53717e-11
-4.09032e-11
3.68797e-11
1.74949e-11
-4.62832e-11
4.39374e-11
1.97986e-11
-5.18383e-11
5.17233e-11
2.21304e-11
-5.73837e-11
5.98977e-11
2.4116e-11
-6.24926e-11
6.76832e-11
2.51433e-11
-6.62829e-11
7.36701e-11
-6.70623e-11
7.57429e-11
1.92112e-12
-2.36854e-12
1.64721e-12
3.65568e-12
-6.91846e-12
4.84511e-12
5.26158e-12
-1.11972e-11
7.95114e-12
6.79002e-12
-1.53921e-11
1.11538e-11
8.28868e-12
-1.96562e-11
1.46187e-11
9.80414e-12
-2.41144e-11
1.84973e-11
1.13842e-11
-2.88678e-11
2.29302e-11
1.30797e-11
-3.39976e-11
2.80483e-11
1.4946e-11
-3.957e-11
3.39681e-11
1.70418e-11
-4.56425e-11
4.07798e-11
1.94265e-11
-5.2272e-11
4.85211e-11
2.21506e-11
-5.95245e-11
5.71242e-11
2.52275e-11
-6.74741e-11
6.63055e-11
2.85475e-11
-7.61248e-11
7.53343e-11
3.15644e-11
-8.49326e-11
8.26876e-11
-9.28182e-11
8.58524e-11
2.1049e-12
1.7952e-12
-2.45608e-12
4.00198e-12
5.27732e-12
-7.17867e-12
5.75132e-12
8.64995e-12
-1.16324e-11
7.40582e-12
1.21118e-11
-1.60186e-11
9.01465e-12
1.58365e-11
-2.05042e-11
1.06258e-11
1.99807e-11
-2.52289e-11
1.22889e-11
2.46887e-11
-3.03112e-11
1.4058e-11
3.00932e-11
-3.58536e-11
1.59951e-11
3.63119e-11
-4.19489e-11
1.81743e-11
4.34366e-11
-4.86884e-11
2.0688e-11
5.15114e-11
-5.61733e-11
2.36567e-11
6.04867e-11
-6.45312e-11
2.72335e-11
7.01202e-11
-7.39291e-11
3.15491e-11
7.97562e-11
-8.45306e-11
3.61214e-11
8.78709e-11
-9.58009e-11
9.14627e-11
-1.09196e-10
1.73228e-13
-4.49923e-13
1.34499e-13
3.30141e-13
-1.31101e-12
3.96129e-13
4.76386e-13
-2.11125e-12
6.51767e-13
6.16862e-13
-2.87968e-12
9.17713e-13
7.5587e-13
-3.63663e-12
1.20826e-12
8.97287e-13
-4.39279e-12
1.5361e-12
1.04477e-12
-5.14765e-12
1.91232e-12
1.20204e-12
-5.88665e-12
2.34574e-12
1.37343e-12
-6.57641e-12
2.84115e-12
1.56546e-12
-7.15751e-12
3.39585e-12
1.79045e-12
-7.53501e-12
3.99346e-12
2.07364e-12
-7.56681e-12
4.59325e-12
2.46153e-12
-7.05214e-12
5.11205e-12
3.008e-12
-5.74671e-12
5.40081e-12
3.64052e-12
-3.58601e-12
5.27005e-12
-8.06552e-13
4.73783e-12
5.15782e-13
-8.8641e-13
4.00033e-13
9.82901e-13
-2.58341e-12
1.1781e-12
1.41808e-12
-4.16201e-12
1.9381e-12
1.83579e-12
-5.6805e-12
2.72836e-12
2.24876e-12
-7.18035e-12
3.5912e-12
2.66836e-12
-8.68508e-12
4.56426e-12
3.10512e-12
-1.01976e-11
5.68047e-12
3.56902e-12
-1.16954e-11
6.96612e-12
4.07021e-12
-1.31234e-11
8.43572e-12
4.621e-12
-1.43839e-11
1.00821e-11
5.24109e-12
-1.53289e-11
1.18584e-11
5.96682e-12
-1.57643e-11
1.36479e-11
6.85603e-12
-1.54968e-11
1.52165e-11
7.94062e-12
-1.44859e-11
1.61624e-11
8.99846e-12
-1.31526e-11
1.6027e-11
-1.28345e-11
1.45304e-11
8.46915e-13
-1.29635e-12
6.55474e-13
1.61365e-12
-3.77939e-12
1.93011e-12
2.32738e-12
-6.09284e-12
3.17435e-12
3.01159e-12
-8.3244e-12
4.46686e-12
3.68693e-12
-1.05383e-11
5.87649e-12
4.37181e-12
-1.27744e-11
7.46462e-12
5.08269e-12
-1.50457e-11
9.28519e-12
5.8337e-12
-1.7333e-11
1.13818e-11
6.63539e-12
-1.95773e-11
1.37798e-11
7.49257e-12
-2.16708e-11
1.64716e-11
8.40104e-12
-2.34532e-11
1.93893e-11
9.34107e-12
-2.47308e-11
2.23611e-11
1.02587e-11
-2.53575e-11
2.50498e-11
1.10152e-11
-2.54294e-11
2.69085e-11
1.13395e-11
-2.54869e-11
2.73713e-11
-2.65114e-11
2.64731e-11
1.15961e-12
-1.66642e-12
8.94741e-13
2.20883e-12
-4.86026e-12
2.63408e-12
3.18431e-12
-7.84189e-12
4.33023e-12
4.11772e-12
-1.07282e-11
6.08951e-12
5.03706e-12
-1.36076e-11
8.00493e-12
5.96726e-12
-1.65401e-11
1.01596e-11
6.93022e-12
-1.95556e-11
1.26271e-11
7.94338e-12
-2.265e-11
1.5468e-11
9.01556e-12
-2.57784e-11
1.87206e-11
1.01384e-11
-2.88474e-11
2.2383e-11
1.127e-11
-3.17102e-11
2.63803e-11
1.23054e-11
-3.41768e-11
3.05147e-11
1.3033e-11
-3.60679e-11
3.4398e-11
1.31119e-11
-3.73473e-11
3.74142e-11
1.23079e-11
-3.82737e-11
3.89154e-11
-3.95861e-11
3.89104e-11
1.44748e-12
-1.98349e-12
1.11245e-12
2.75606e-12
-5.7877e-12
3.27399e-12
3.97057e-12
-9.34726e-12
5.37886e-12
5.12983e-12
-1.2807e-11
7.55736e-12
6.26837e-12
-1.62798e-11
9.92339e-12
7.41726e-12
-1.98481e-11
1.25789e-11
8.60408e-12
-2.35644e-11
1.56147e-11
9.85093e-12
-2.74489e-11
1.9107e-11
1.11686e-11
-3.14857e-11
2.31082e-11
1.25438e-11
-3.56166e-11
2.76268e-11
1.39131e-11
-3.97317e-11
3.25932e-11
1.51155e-11
-4.36589e-11
3.78049e-11
1.5822e-11
-4.71503e-11
4.28531e-11
1.55069e-11
-4.9878e-11
4.70723e-11
1.38612e-11
-5.15205e-11
4.96956e-11
-5.23279e-11
5.06102e-11
1.70515e-12
-2.2351e-12
1.30425e-12
3.24493e-12
-6.52517e-12
3.83692e-12
4.67075e-12
-1.05493e-11
6.29855e-12
6.02723e-12
-1.44774e-11
8.83898e-12
7.35438e-12
-1.84452e-11
1.15889e-11
8.68884e-12
-2.25581e-11
1.46651e-11
1.00642e-11
-2.68929e-11
1.81722e-11
1.15098e-11
-3.14988e-11
2.21991e-11
1.30455e-11
-3.63975e-11
2.68104e-11
1.46701e-11
-4.15804e-11
3.20264e-11
1.63372e-11
-4.70022e-11
3.77883e-11
1.79071e-11
-5.25634e-11
4.39003e-11
1.9068e-11
-5.80583e-11
4.99459e-11
1.9266e-11
-6.30517e-11
5.52098e-11
1.80192e-11
-6.67249e-11
5.87843e-11
-6.75105e-11
6.04704e-11
1.92845e-12
-2.41e-12
1.46705e-12
3.66746e-12
-7.03964e-12
4.31369e-12
5.27305e-12
-1.13936e-11
7.074e-12
6.79399e-12
-1.56623e-11
9.91231e-12
8.27429e-12
-2.00009e-11
1.29713e-11
9.75492e-12
-2.45343e-11
1.63779e-11
1.1275e-11
-2.93619e-11
2.02455e-11
1.28718e-11
-3.45601e-11
2.4671e-11
1.45789e-11
-4.0186e-11
2.97263e-11
1.64201e-11
-4.62802e-11
3.54395e-11
1.83969e-11
-5.2869e-11
4.17603e-11
2.04618e-11
-5.99627e-11
4.84992e-11
2.2469e-11
-6.75338e-11
5.52307e-11
2.41014e-11
-7.54211e-11
6.1172e-11
2.48704e-11
-8.29533e-11
6.52264e-11
-8.895e-11
6.69981e-11
2.1147e-12
1.59913e-12
-2.49889e-12
4.01861e-12
4.69935e-12
-7.30377e-12
5.77025e-12
7.69728e-12
-1.18352e-11
7.42043e-12
1.07663e-11
-1.62975e-11
9.0152e-12
1.40559e-11
-2.08593e-11
1.05978e-11
1.7698e-11
-2.56602e-11
1.22106e-11
2.18088e-11
-3.08156e-11
1.38963e-11
2.64868e-11
-3.64215e-11
1.56993e-11
3.1804e-11
-4.25581e-11
1.76646e-11
3.77881e-11
-4.9294e-11
1.98365e-11
4.43889e-11
-5.66905e-11
2.2251e-11
5.14174e-11
-6.48028e-11
2.49176e-11
5.8443e-11
-7.36704e-11
2.77579e-11
6.46505e-11
-8.32484e-11
3.03097e-11
6.8818e-11
-9.28551e-11
6.97811e-11
-1.03388e-10
1.72768e-13
-4.56645e-13
1.13272e-13
3.2888e-13
-1.3307e-12
3.33499e-13
4.73573e-13
-2.14331e-12
5.48335e-13
6.112e-13
-2.92426e-12
7.71223e-13
7.45276e-13
-3.69462e-12
1.01374e-12
8.78459e-13
-4.46619e-12
1.28587e-12
1.01249e-12
-5.2403e-12
1.59582e-12
1.14801e-12
-6.006e-12
1.94929e-12
1.28426e-12
-6.73702e-12
2.34767e-12
1.41914e-12
-7.38822e-12
2.78487e-12
1.55011e-12
-7.89264e-12
3.24222e-12
1.67654e-12
-8.16143e-12
3.68131e-12
1.80197e-12
-8.08786e-12
4.03628e-12
1.92727e-12
-7.56028e-12
4.21495e-12
2.01502e-12
-6.54306e-12
4.1452e-12
-4.77164e-12
4.0735e-12
5.14515e-13
-8.99573e-13
3.36911e-13
9.79374e-13
-2.62194e-12
9.91874e-13
1.41011e-12
-4.2247e-12
1.6306e-12
1.81962e-12
-5.76743e-12
2.29294e-12
2.21836e-12
-7.29299e-12
3.01319e-12
2.61426e-12
-8.8267e-12
3.82095e-12
3.01238e-12
-1.03745e-11
4.7407e-12
3.41406e-12
-1.19196e-11
5.7895e-12
3.8154e-12
-1.34182e-11
6.972e-12
4.20571e-12
-1.47943e-11
8.27126e-12
4.56687e-12
-1.59407e-11
9.63452e-12
4.8744e-12
-1.67334e-11
1.09534e-11
5.09863e-12
-1.70801e-11
1.20448e-11
5.1982e-12
-1.70177e-11
1.26602e-11
5.11585e-12
-1.68167e-11
1.26248e-11
-1.71115e-11
1.20041e-11
8.45171e-13
-1.31544e-12
5.52083e-13
1.60859e-12
-3.83523e-12
1.62513e-12
2.31558e-12
-6.1835e-12
2.67091e-12
2.9872e-12
-8.44967e-12
3.75428e-12
3.64064e-12
-1.06996e-11
4.93109e-12
4.28906e-12
-1.29753e-11
6.24967e-12
4.94077e-12
-1.52927e-11
7.75024e-12
5.59713e-12
-1.76382e-11
9.46147e-12
6.2486e-12
-1.99639e-11
1.13929e-11
6.86858e-12
-2.21831e-11
1.35212e-11
7.40485e-12
-2.41734e-11
1.57698e-11
7.76936e-12
-2.58027e-11
1.79814e-11
7.83199e-12
-2.7002e-11
1.9897e-11
7.44693e-12
-2.78979e-11
2.11848e-11
6.63661e-12
-2.88513e-11
2.16353e-11
-3.03307e-11
2.15605e-11
1.15788e-12
-1.69071e-12
7.53678e-13
2.20333e-12
-4.93124e-12
2.21808e-12
3.17065e-12
-7.95687e-12
3.64386e-12
4.08851e-12
-1.08865e-11
5.11867e-12
4.98063e-12
-1.381e-11
6.71799e-12
5.8655e-12
-1.6789e-11
8.50739e-12
6.75524e-12
-1.98555e-11
1.05419e-11
7.65216e-12
-2.30088e-11
1.2862e-11
8.5421e-12
-2.62108e-11
1.54842e-11
9.38223e-12
-2.93815e-11
1.83849e-11
1.00816e-11
-3.2398e-11
2.14763e-11
1.04735e-11
-3.51095e-11
2.45763e-11
1.02951e-11
-3.73841e-11
2.7391e-11
9.25238e-12
-3.92022e-11
2.95575e-11
7.44547e-12
-4.07054e-11
3.08354e-11
-4.22776e-11
3.15102e-11
1.44635e-12
-2.01209e-12
9.37178e-13
2.75141e-12
-5.87119e-12
2.75728e-12
3.95737e-12
-9.48218e-12
4.52688e-12
5.09977e-12
-1.29919e-11
6.35344e-12
6.20845e-12
-1.65145e-11
8.32944e-12
7.30754e-12
-2.01332e-11
1.05354e-11
8.41415e-12
-2.39004e-11
1.30396e-11
9.53464e-12
-2.78363e-11
1.58933e-11
1.06563e-11
-3.1925e-11
1.91213e-11
1.17319e-11
-3.61092e-11
2.27036e-11
1.26521e-11
-4.02824e-11
2.65498e-11
1.32025e-11
-4.42788e-11
3.04667e-11
1.30211e-11
-4.78586e-11
3.41399e-11
1.16555e-11
-5.06944e-11
3.71782e-11
9.13447e-12
-5.24287e-11
3.92799e-11
-5.31097e-11
4.06659e-11
1.7052e-12
-2.26698e-12
1.09892e-12
3.2424e-12
-6.61817e-12
3.23184e-12
4.66033e-12
-1.06993e-11
5.30174e-12
6.00027e-12
-1.46822e-11
7.4322e-12
7.29755e-12
-1.87034e-11
9.72943e-12
8.58191e-12
-2.28679e-11
1.22859e-11
9.87673e-12
-2.72504e-11
1.51802e-11
1.11961e-11
-3.18959e-11
1.84726e-11
1.25376e-11
-3.68184e-11
2.21947e-11
1.38688e-11
-4.1997e-11
2.6331e-11
1.51009e-11
-4.73665e-11
3.07905e-11
1.60462e-11
-5.27952e-11
3.53702e-11
1.63645e-11
-5.80308e-11
3.97293e-11
1.5576e-11
-6.25873e-11
4.34228e-11
1.35269e-11
-6.5654e-11
4.6066e-11
-6.56974e-11
4.78837e-11
1.93019e-12
-2.44406e-12
1.23629e-12
3.66817e-12
-7.13892e-12
3.63402e-12
5.26743e-12
-1.15535e-11
5.95553e-12
6.77356e-12
-1.588e-11
8.33641e-12
8.22618e-12
-2.02738e-11
1.08927e-11
9.65987e-12
-2.48586e-11
1.37251e-11
1.11044e-11
-2.97295e-11
1.69188e-11
1.25832e-11
-3.49552e-11
2.05395e-11
1.411e-11
-4.05791e-11
2.46225e-11
1.56805e-11
-4.66185e-11
2.91538e-11
1.72577e-11
-5.30605e-11
3.40391e-11
1.87477e-11
-5.98512e-11
3.90608e-11
1.99702e-11
-6.68639e-11
4.38353e-11
2.06571e-11
-7.38149e-11
4.782e-11
2.06176e-11
-8.0024e-11
5.04895e-11
-8.44314e-11
5.20576e-11
2.11848e-12
1.34781e-12
-2.53394e-12
4.02337e-12
3.9596e-12
-7.40591e-12
5.77089e-12
6.4815e-12
-1.19995e-11
7.40904e-12
9.0567e-12
-1.65208e-11
8.97996e-12
1.1807e-11
-2.11384e-11
1.05213e-11
1.48369e-11
-2.59895e-11
1.20672e-11
1.82342e-11
-3.11845e-11
1.36488e-11
2.20653e-11
-3.68091e-11
1.52931e-11
2.63645e-11
-4.29264e-11
1.70213e-11
3.11152e-11
-4.95761e-11
1.88439e-11
3.62168e-11
-5.67721e-11
2.07531e-11
4.14369e-11
-6.44946e-11
2.27168e-11
4.63553e-11
-7.26716e-11
2.46721e-11
5.03434e-11
-8.11278e-11
2.64027e-11
5.27382e-11
-8.92088e-11
5.32939e-11
-9.78633e-11
1.7199e-13
-4.61965e-13
8.82636e-14
3.27019e-13
-1.34628e-12
2.59791e-13
4.69917e-13
-2.16866e-12
4.2689e-13
6.04508e-13
-2.95948e-12
5.9985e-13
7.33555e-13
-3.74039e-12
7.87384e-13
8.58619e-13
-4.52397e-12
9.96777e-13
9.79831e-13
-5.31299e-12
1.23371e-12
1.09539e-12
-6.09914e-12
1.50157e-12
1.20098e-12
-6.86114e-12
1.80003e-12
1.2893e-12
-7.5629e-12
2.12278e-12
1.35062e-12
-8.15295e-12
2.45441e-12
1.37529e-12
-8.56598e-12
2.7674e-12
1.35922e-12
-8.72344e-12
3.02167e-12
1.31019e-12
-8.52461e-12
3.17369e-12
1.24584e-12
-7.86565e-12
3.20407e-12
-6.26066e-12
3.35076e-12
5.1231e-13
-9.10004e-13
2.62536e-13
9.74076e-13
-2.65246e-12
7.72691e-13
1.39963e-12
-4.27429e-12
1.26952e-12
1.80036e-12
-5.83604e-12
1.78351e-12
2.18455e-12
-7.38156e-12
2.34048e-12
2.557e-12
-8.9375e-12
2.96207e-12
2.91821e-12
-1.0512e-11
3.66521e-12
3.26274e-12
-1.20924e-11
4.46015e-12
3.57692e-12
-1.36424e-11
5.34637e-12
3.83653e-12
-1.50994e-11
6.3061e-12
4.00615e-12
-1.63776e-11
7.29571e-12
4.04358e-12
-1.73811e-11
8.23727e-12
3.9153e-12
-1.80369e-11
9.01765e-12
3.63029e-12
-1.83452e-11
9.51387e-12
3.29346e-12
-1.84179e-11
9.67153e-12
-1.86109e-11
9.50162e-12
8.41893e-13
-1.33057e-12
4.30237e-13
1.60063e-12
-3.87945e-12
1.2661e-12
2.29965e-12
-6.2551e-12
2.07964e-12
2.95764e-12
-8.54819e-12
2.92043e-12
3.58852e-12
-1.08257e-11
3.83053e-12
4.2007e-12
-1.31309e-11
4.84532e-12
4.79564e-12
-1.54818e-11
5.99273e-12
5.36482e-12
-1.78685e-11
7.29016e-12
5.88502e-12
-2.02497e-11
8.73839e-12
6.31196e-12
-2.25505e-11
1.03119e-11
6.5741e-12
-2.46659e-11
1.19466e-11
6.57182e-12
-2.64835e-11
1.35288e-11
6.19847e-12
-2.79369e-11
1.48972e-11
5.4226e-12
-2.90938e-11
1.58839e-11
4.49159e-12
-3.01646e-11
1.6418e-11
-3.14539e-11
1.66598e-11
1.15405e-12
-1.70993e-12
5.87398e-13
2.19383e-12
-4.98733e-12
1.72824e-12
3.15125e-12
-8.04739e-12
2.83751e-12
4.05202e-12
-1.10102e-11
3.98222e-12
4.91576e-12
-1.39667e-11
5.21923e-12
5.75523e-12
-1.69792e-11
6.59661e-12
6.57425e-12
-2.00806e-11
8.15271e-12
7.3636e-12
-2.32715e-11
9.91239e-12
8.09381e-12
-2.65166e-11
1.18795e-11
8.704e-12
-2.97407e-11
1.40254e-11
9.08723e-12
-3.28279e-11
1.62746e-11
9.07754e-12
-3.56317e-11
1.84937e-11
8.46416e-12
-3.80091e-11
2.04986e-11
7.11065e-12
-3.98871e-11
2.21071e-11
5.3484e-12
-4.13122e-11
2.32308e-11
-4.25916e-11
2.39916e-11
1.44258e-12
-2.03467e-12
7.30501e-13
2.74169e-12
-5.93697e-12
2.14863e-12
3.93685e-12
-9.58795e-12
3.52559e-12
5.06027e-12
-1.31356e-11
4.94352e-12
6.13734e-12
-1.66945e-11
6.47214e-12
7.18592e-12
-2.03478e-11
8.17059e-12
8.21432e-12
-2.41467e-11
1.00865e-11
9.2169e-12
-2.81093e-11
1.22516e-11
1.01658e-11
-3.22164e-11
1.46738e-11
1.09973e-11
-3.64057e-11
1.7324e-11
1.15907e-11
-4.05625e-11
2.01206e-11
1.17432e-11
-4.45063e-11
2.2917e-11
1.11636e-11
-4.79712e-11
2.55117e-11
9.57864e-12
-5.05886e-11
2.77044e-11
7.23882e-12
-5.19776e-11
2.93724e-11
-5.22002e-11
3.0596e-11
1.70208e-12
-2.29208e-12
8.56694e-13
3.23379e-12
-6.69118e-12
2.5188e-12
4.64104e-12
-1.08163e-11
4.12967e-12
5.96174e-12
-1.48402e-11
5.78381e-12
7.2267e-12
-1.88995e-11
7.56134e-12
8.45937e-12
-2.30976e-11
9.53023e-12
9.67449e-12
-2.75059e-11
1.17454e-11
1.08746e-11
-3.21636e-11
1.42442e-11
1.20433e-11
-3.7075e-11
1.70378e-11
1.31334e-11
-4.22033e-11
2.00965e-11
1.40484e-11
-4.74591e-11
2.33324e-11
1.46168e-11
-5.26748e-11
2.65832e-11
1.45744e-11
-5.75517e-11
2.96174e-11
1.36234e-11
-6.15658e-11
3.21924e-11
1.18233e-11
-6.39537e-11
3.41445e-11
-6.33675e-11
3.55844e-11
1.92827e-12
-2.47078e-12
9.63917e-13
3.66184e-12
-7.21657e-12
2.83266e-12
5.25149e-12
-1.16776e-11
4.63964e-12
6.73953e-12
-1.60469e-11
6.48862e-12
8.16129e-12
-2.04791e-11
8.46722e-12
9.54546e-12
-2.50955e-11
1.06495e-11
1.09137e-11
-2.99859e-11
1.30951e-11
1.22791e-11
-3.52101e-11
1.58445e-11
1.36426e-11
-4.07962e-11
1.89099e-11
1.4987e-11
-4.67373e-11
2.22594e-11
1.62688e-11
-5.29837e-11
2.57963e-11
1.74084e-11
-5.94286e-11
2.93357e-11
1.82931e-11
-6.58803e-11
3.25989e-11
1.88197e-11
-7.20107e-11
3.52613e-11
1.90007e-11
-7.72318e-11
3.70832e-11
-8.07687e-11
3.82415e-11
2.11817e-12
1.05101e-12
-2.56136e-12
4.02025e-12
3.08688e-12
-7.48555e-12
5.75993e-12
5.0502e-12
-1.21267e-11
7.38225e-12
7.05063e-12
-1.66912e-11
8.92544e-12
9.18019e-12
-2.13467e-11
1.04219e-11
1.1516e-11
-2.62272e-11
1.18987e-11
1.41193e-11
-3.14368e-11
1.33776e-11
1.70309e-11
-3.70501e-11
1.48748e-11
2.02613e-11
-4.3112e-11
1.64e-11
2.37746e-11
-4.96341e-11
1.79567e-11
2.74646e-11
-5.65888e-11
1.95461e-11
3.11261e-11
-6.38993e-11
2.11862e-11
3.44363e-11
-7.14292e-11
2.29428e-11
3.69891e-11
-7.89686e-11
2.47763e-11
3.84551e-11
-8.59903e-11
3.87911e-11
-9.37059e-11
1.71136e-13
-4.65876e-13
6.03941e-14
3.25069e-13
-1.35773e-12
1.77723e-13
4.66277e-13
-2.18732e-12
2.91909e-13
5.98136e-13
-2.9854e-12
4.09897e-13
7.2279e-13
-3.77399e-12
5.37485e-13
8.4096e-13
-4.56614e-12
6.79405e-13
9.51615e-13
-5.36551e-12
8.39186e-13
1.05142e-12
-6.16535e-12
1.01867e-12
1.13417e-12
-6.94706e-12
1.21708e-12
1.19063e-12
-7.6787e-12
1.4297e-12
1.20988e-12
-8.31439e-12
1.64642e-12
1.18367e-12
-8.79363e-12
1.85095e-12
1.11531e-12
-9.0356e-12
2.02229e-12
1.03009e-12
-8.91828e-12
2.14129e-12
9.67204e-13
-8.29166e-12
2.20052e-12
-6.62492e-12
2.36676e-12
5.09875e-13
-9.17708e-13
1.79649e-13
9.68499e-13
-2.67501e-12
5.28631e-13
1.38917e-12
-4.31089e-12
8.68168e-13
1.78196e-12
-5.88657e-12
1.21881e-12
2.15341e-12
-7.44648e-12
1.59776e-12
2.50592e-12
-9.01803e-12
2.01907e-12
2.8367e-12
-1.06107e-11
2.49329e-12
3.13604e-12
-1.22141e-11
3.026e-12
3.38526e-12
-1.37955e-11
3.61523e-12
3.55543e-12
-1.52983e-11
4.24759e-12
3.60963e-12
-1.66427e-11
4.8943e-12
3.51361e-12
-1.7735e-11
5.50873e-12
3.2621e-12
-1.84862e-11
6.02998e-12
2.92272e-12
-1.88432e-11
6.39928e-12
2.65644e-12
-1.88373e-11
6.58877e-12
-1.87738e-11
6.56198e-12
8.38217e-13
-1.34178e-12
2.94428e-13
1.59215e-12
-3.91216e-12
8.66278e-13
2.28359e-12
-6.30797e-12
1.42231e-12
2.92921e-12
-8.62059e-12
1.99595e-12
3.54024e-12
-1.09176e-11
2.61519e-12
4.12147e-12
-1.3243e-11
3.30307e-12
4.66948e-12
-1.56158e-11
4.07701e-12
5.16959e-12
-1.80276e-11
4.94662e-12
5.59182e-12
-2.04399e-11
5.9097e-12
5.88675e-12
-2.27811e-11
6.94665e-12
5.98478e-12
-2.49489e-11
8.01472e-12
5.80621e-12
-2.68258e-11
9.04494e-12
5.29915e-12
-2.83186e-11
9.94855e-12
4.53012e-12
-2.94317e-11
1.0641e-11
3.81026e-12
-3.03067e-11
1.10781e-11
-3.12539e-11
1.13072e-11
1.14961e-12
-1.72418e-12
4.02018e-13
2.18345e-12
-5.02883e-12
1.1826e-12
3.13134e-12
-8.1141e-12
1.94085e-12
4.01644e-12
-1.11008e-11
2.72191e-12
4.85508e-12
-1.40802e-11
3.56366e-12
5.65555e-12
-1.71148e-11
4.49743e-12
6.41585e-12
-2.02373e-11
5.54721e-12
7.11968e-12
-2.34481e-11
6.72684e-12
7.73045e-12
-2.67114e-11
8.03513e-12
8.18359e-12
-2.99503e-11
9.44912e-12
8.37953e-12
-3.30445e-11
1.09175e-11
8.18506e-12
-3.58349e-11
1.23579e-11
7.46676e-12
-3.81483e-11
1.36674e-11
6.21007e-12
-3.98592e-11
1.47519e-11
4.79475e-12
-4.09805e-11
1.55526e-11
-4.18648e-11
1.60852e-11
1.4379e-12
-2.05138e-12
5.00016e-13
2.73058e-12
-5.98553e-12
1.47044e-12
3.91513e-12
-9.66563e-12
2.41177e-12
5.02097e-12
-1.32402e-11
3.37937e-12
6.06981e-12
-1.68238e-11
4.41968e-12
7.0747e-12
-2.04986e-11
5.57132e-12
8.03773e-12
-2.43144e-11
6.86405e-12
8.94606e-12
-2.8286e-11
8.31574e-12
9.76529e-12
-3.23893e-11
9.9267e-12
1.043e-11
-3.65536e-11
1.16722e-11
1.08318e-11
-4.06514e-11
1.34948e-11
1.08101e-11
-4.44818e-11
1.53016e-11
1.01649e-11
-4.77498e-11
1.69759e-11
8.75677e-12
-5.00569e-11
1.84115e-11
6.8677e-12
-5.10352e-11
1.95282e-11
-5.08321e-11
2.03187e-11
1.69772e-12
-2.31062e-12
5.86465e-13
3.22313e-12
-6.74494e-12
1.72397e-12
4.61962e-12
-1.09019e-11
2.82535e-12
5.92218e-12
-1.49546e-11
3.95429e-12
7.15792e-12
-1.9039e-11
5.16422e-12
8.34544e-12
-2.32567e-11
6.49954e-12
9.49335e-12
-2.76757e-11
7.99461e-12
1.05974e-11
-3.2329e-11
9.67038e-12
1.16353e-11
-3.72111e-11
1.15282e-11
1.256e-11
-4.22703e-11
1.35413e-11
1.32896e-11
-4.73956e-11
1.56454e-11
1.36982e-11
-5.23916e-11
1.77329e-11
1.36171e-11
-5.69318e-11
1.96641e-11
1.28831e-11
-6.04859e-11
2.13043e-11
1.15807e-11
-6.23565e-11
2.25547e-11
-6.13703e-11
2.34396e-11
1.92471e-12
-2.49047e-12
6.59942e-13
3.65269e-12
-7.27358e-12
1.93902e-12
5.23223e-12
-1.17681e-11
3.17464e-12
6.70284e-12
-1.6167e-11
4.43677e-12
8.09627e-12
-2.06239e-11
5.78389e-12
9.43659e-12
-2.52574e-11
7.26441e-12
1.07398e-11
-3.01522e-11
8.91562e-12
1.20127e-11
-3.53595e-11
1.07601e-11
1.32512e-11
-4.08938e-11
1.27989e-11
1.44386e-11
-4.6728e-11
1.50023e-11
1.55456e-11
-5.27846e-11
1.72968e-11
1.65354e-11
-5.89234e-11
1.95554e-11
1.73839e-11
-6.4925e-11
2.16026e-11
1.81149e-11
-7.04709e-11
2.32502e-11
1.87691e-11
-7.50794e-11
2.43629e-11
-7.81884e-11
2.50349e-11
2.1158e-12
7.19643e-13
-2.58151e-12
4.01346e-12
2.11326e-12
-7.54386e-12
5.74436e-12
3.45598e-12
-1.2219e-11
7.35093e-12
4.82177e-12
-1.68132e-11
8.86815e-12
6.27214e-12
-2.14925e-11
1.03242e-11
7.85751e-12
-2.63879e-11
1.17411e-11
9.6162e-12
-3.15971e-11
1.3135e-11
1.15706e-11
-3.71848e-11
1.45176e-11
1.37204e-11
-4.31802e-11
1.58987e-11
1.60318e-11
-4.95725e-11
1.72935e-11
1.84229e-11
-5.63042e-11
1.87382e-11
2.07494e-11
-6.32657e-11