/*--------------------------------*- C++ -*----------------------------------*\
| =========                 |                                                 |
| \\      /  F ield         | OpenFOAM: The Open Source CFD Toolbox           |
|  \\    /   O peration     | Version:  v1912                                 |
|   \\  /    A nd           | Website:  www.openfoam.com                      |
|    \\/     M anipulation  |                                                 |
\*---------------------------------------------------------------------------*/
FoamFile
{
    version     2.0;
    format      ascii;
    class       volVectorField;
    location    "0.63/fluid";
    object      U;
}
// * * * * * * * * * * * * * * * * * * * * * * * * * * * * * * * * * * * * * //

dimensions      [0 1 -1 0 0 0 0];


internalField   nonuniform List<vector> 
14592
(
(0.0877192 0.0173017 0.000625765)
(0.0722625 0.0117245 0.00102029)
(0.0572218 0.00732076 0.000825226)
(0.0488845 0.00358254 0.000232882)
(0.0437977 0.00164013 -0.000645466)
(0.0410474 0.000694471 -0.00172596)
(0.0393103 0.000304941 -0.00301626)
(0.0380692 0.000147525 -0.00457462)
(0.0368553 7.90119e-05 -0.0065044)
(0.0356553 1.33139e-05 -0.00896546)
(0.0340058 -8.52628e-05 -0.0122082)
(0.0324072 -0.00031795 -0.0165647)
(0.0293807 -0.000663123 -0.0227428)
(0.0268044 -0.00155171 -0.0309142)
(0.0189385 -0.00209457 -0.0416574)
(0.0107242 -0.00507703 -0.0397777)
(0.103997 0.0179302 0.000846815)
(0.103714 0.0174682 0.00143584)
(0.100705 0.0140396 0.00123267)
(0.0970144 0.00940608 0.000377082)
(0.0935043 0.0059484 -0.00101981)
(0.0907134 0.00372501 -0.00284266)
(0.0883401 0.00253646 -0.00508185)
(0.0861907 0.00199601 -0.00781808)
(0.0838707 0.00182904 -0.0112162)
(0.0813174 0.00183963 -0.0155422)
(0.0779008 0.00191056 -0.0212031)
(0.0739693 0.00188211 -0.028759)
(0.0674505 0.00171686 -0.0392098)
(0.0600616 0.000855158 -0.0528354)
(0.0432075 -0.000116668 -0.0689706)
(0.0249845 -0.00422565 -0.0640125)
(0.103993 0.0118522 0.000910919)
(0.108441 0.015902 0.00155813)
(0.11145 0.0148987 0.00136045)
(0.112028 0.0115948 0.000457878)
(0.111354 0.00848609 -0.00104002)
(0.110022 0.00618514 -0.00302231)
(0.108301 0.00483667 -0.00548016)
(0.106313 0.00423362 -0.0084998)
(0.103869 0.00415956 -0.0122581)
(0.10096 0.004423 -0.017048)
(0.0969372 0.00489049 -0.0233122)
(0.0920341 0.00539332 -0.0316901)
(0.0839601 0.00585831 -0.0432493)
(0.0742512 0.00568608 -0.058468)
(0.0532724 0.0047818 -0.0765016)
(0.029924 -8.69196e-05 -0.0722185)
(0.102125 0.00761524 0.000937409)
(0.106658 0.0123753 0.00161896)
(0.11129 0.0129695 0.00143684)
(0.113865 0.0113436 0.000542123)
(0.114983 0.00927299 -0.000947573)
(0.114944 0.00755199 -0.00292089)
(0.114097 0.00652134 -0.00536936)
(0.112656 0.00617196 -0.00837981)
(0.11055 0.00640995 -0.0121277)
(0.107819 0.00712073 -0.0169113)
(0.103827 0.00822418 -0.0231749)
(0.0987703 0.0095999 -0.031596)
(0.0902198 0.0111918 -0.0432571)
(0.0796355 0.0123554 -0.0588168)
(0.0568982 0.0122295 -0.0774741)
(0.0310204 0.00593693 -0.0741602)
(0.101093 0.00497801 0.000963762)
(0.104704 0.00920135 0.00168424)
(0.109178 0.0105603 0.00153484)
(0.112387 0.0101477 0.000673032)
(0.114435 0.00908549 -0.000773166)
(0.115309 0.00809492 -0.00268577)
(0.115253 0.00757002 -0.00505075)
(0.114457 0.00762797 -0.00794886)
(0.112883 0.00827978 -0.011545)
(0.110613 0.00949795 -0.0161307)
(0.10702 0.0112689 -0.0221309)
(0.102307 0.0135424 -0.0302417)
(0.0939112 0.0162988 -0.0415172)
(0.0832179 0.018834 -0.0568252)
(0.0594873 0.0196345 -0.075393)
(0.0316128 0.0111286 -0.0732123)
(0.100636 0.00335933 0.000993506)
(0.103505 0.00667754 0.00175976)
(0.10752 0.00821915 0.0016569)
(0.110876 0.0085321 0.000844014)
(0.113405 0.0082648 -0.000541376)
(0.114899 0.0079719 -0.00237167)
(0.115479 0.0080117 -0.00462315)
(0.115283 0.00856117 -0.00736576)
(0.114275 0.00970959 -0.0107482)
(0.112554 0.011527 -0.0150481)
(0.109501 0.0141009 -0.020659)
(0.105325 0.0175439 -0.0282852)
(0.0973349 0.0220026 -0.03892)
(0.0868587 0.0269667 -0.0536804)
(0.0624 0.0305261 -0.0717833)
(0.0326762 0.0204216 -0.0711099)
(0.100466 0.00219316 0.00102959)
(0.102934 0.00458976 0.00184917)
(0.106636 0.00603648 0.00180398)
(0.110039 0.00674862 0.00105284)
(0.112864 0.00706976 -0.000257751)
(0.114808 0.00737348 -0.00198822)
(0.115918 0.00794232 -0.00410036)
(0.1163 0.00896394 -0.00664601)
(0.115935 0.0105703 -0.00974652)
(0.11496 0.0129073 -0.0136466)
(0.112827 0.0161385 -0.0186737)
(0.109825 0.0205329 -0.0254845)
(0.103274 0.0263654 -0.0348945)
(0.0945589 0.0333898 -0.0482227)
(0.0706561 0.0394276 -0.0643781)
(0.0399838 0.0274387 -0.0654681)
(0.100411 0.00122104 0.00107039)
(0.102733 0.00271542 0.00194858)
(0.106339 0.00391483 0.00196754)
(0.10983 0.00483014 0.00128559)
(0.112889 0.00559026 5.74118e-05)
(0.115178 0.00639385 -0.00156561)
(0.116715 0.00743108 -0.00352854)
(0.117596 0.00887446 -0.00586281)
(0.117825 0.0108806 -0.00866034)
(0.117573 0.0136743 -0.012128)
(0.116367 0.0175202 -0.0165241)
(0.114563 0.0230058 -0.0224445)
(0.109569 0.0307878 -0.0305233)
(0.103005 0.0423974 -0.0423013)
(0.080477 0.0567124 -0.0565523)
(0.0523426 0.0614016 -0.0610676)
(0.087688 0.0173045 0.000392414)
(0.0720831 0.0117373 0.000605635)
(0.0568158 0.00733211 0.000384727)
(0.0482787 0.00358881 -0.00014156)
(0.0430027 0.00164451 -0.000906163)
(0.0400677 0.000699978 -0.00185978)
(0.0381167 0.000313828 -0.00302098)
(0.0366056 0.000160313 -0.00443809)
(0.0350383 9.7044e-05 -0.00619688)
(0.0333606 3.88617e-05 -0.0083986)
(0.0311053 -4.37575e-05 -0.01123)
(0.0286472 -0.000241307 -0.0147707)
(0.0247355 -0.000512495 -0.0194529)
(0.0206209 -0.00121403 -0.0243216)
(0.0126898 -0.00165963 -0.0290291)
(0.00347206 -0.00368847 -0.0195598)
(0.103954 0.0179441 0.00052153)
(0.103463 0.0175047 0.00081907)
(0.100117 0.0140859 0.000519293)
(0.0960734 0.00945262 -0.000285947)
(0.0921994 0.00599838 -0.00153185)
(0.0890359 0.00378705 -0.00315588)
(0.0862428 0.00262103 -0.00517644)
(0.0835799 0.00211159 -0.00767091)
(0.0805973 0.00198561 -0.0107814)
(0.0771593 0.00204765 -0.0146944)
(0.072594 0.0021893 -0.0197153)
(0.0670843 0.0022523 -0.0260617)
(0.0587892 0.0022176 -0.0343162)
(0.0487651 0.00153196 -0.0432225)
(0.031317 0.000584034 -0.0508741)
(0.0115277 -0.00309807 -0.0337778)
(0.103952 0.011876 0.000561973)
(0.108182 0.0159597 0.000882748)
(0.110838 0.0149821 0.000565111)
(0.11103 0.0116937 -0.000296616)
(0.109949 0.00860246 -0.00164001)
(0.108193 0.00633009 -0.00340922)
(0.105996 0.00502758 -0.00562707)
(0.103429 0.00448901 -0.00837966)
(0.100244 0.00450193 -0.011821)
(0.0963462 0.00487554 -0.0161616)
(0.0910313 0.00548741 -0.0217316)
(0.0843616 0.00615853 -0.0288034)
(0.0742503 0.00683147 -0.0379797)
(0.0615816 0.00682325 -0.0480104)
(0.0397749 0.00586472 -0.0565888)
(0.0146993 0.000612552 -0.0376952)
(0.102087 0.00764211 0.00058512)
(0.106403 0.0124427 0.00092887)
(0.110684 0.0130756 0.000620675)
(0.112878 0.0114822 -0.000234928)
(0.113593 0.00944703 -0.00156991)
(0.113133 0.00777535 -0.00332919)
(0.111814 0.00681743 -0.00553615)
(0.109801 0.00656976 -0.00827799)
(0.106959 0.0069471 -0.0117072)
(0.103249 0.00783944 -0.0160393)
(0.0979624 0.00918433 -0.0216021)
(0.0911318 0.0108489 -0.0286954)
(0.0804996 0.012804 -0.0379153)
(0.0668777 0.0142515 -0.048094)
(0.0432033 0.0141463 -0.0568668)
(0.0154293 0.00677306 -0.0378979)
(0.101057 0.00500904 0.000613181)
(0.104454 0.00927953 0.000992742)
(0.108584 0.0106882 0.000715813)
(0.111424 0.010323 -0.000106842)
(0.113087 0.0093129 -0.001399)
(0.113563 0.00839098 -0.00310023)
(0.113062 0.00796364 -0.00522817)
(0.111729 0.00815797 -0.00786432)
(0.109463 0.00899883 -0.011151)
(0.10627 0.0104685 -0.0152985)
(0.101446 0.0125801 -0.0206159)
(0.0950364 0.0152722 -0.0274207)
(0.0846038 0.0185724 -0.036276)
(0.07091 0.0215525 -0.0461699)
(0.046123 0.0225129 -0.0547525)
(0.0161117 0.0122859 -0.0364586)
(0.1006 0.0033945 0.000645099)
(0.10326 0.00676587 0.00106969)
(0.10694 0.00836589 0.000838454)
(0.109943 0.00873788 6.42507e-05)
(0.11211 0.00853687 -0.00116884)
(0.113235 0.00832992 -0.00279184)
(0.113406 0.00849019 -0.00481264)
(0.112719 0.00920925 -0.00730283)
(0.111078 0.0105968 -0.0103895)
(0.108511 0.012742 -0.0142723)
(0.104317 0.0157751 -0.0192321)
(0.0985645 0.0198133 -0.0256003)
(0.0886239 0.0250964 -0.0338848)
(0.0752607 0.0308387 -0.0432915)
(0.0496242 0.0350107 -0.0514943)
(0.0174886 0.0225577 -0.0343911)
(0.100431 0.00223289 0.000682438)
(0.102695 0.00468791 0.00115978)
(0.106073 0.00619936 0.000984948)
(0.109142 0.0069788 0.00027109)
(0.11163 0.00737661 -0.000890148)
(0.113239 0.0077792 -0.00241865)
(0.113986 0.00848561 -0.00430853)
(0.11394 0.00970199 -0.00661544)
(0.113025 0.0115858 -0.00944257)
(0.111326 0.0143106 -0.0129652)
(0.108209 0.0180954 -0.0174118)
(0.103864 0.0232316 -0.0230993)
(0.095596 0.0301244 -0.030412)
(0.0843763 0.0382229 -0.0388235)
(0.0591974 0.0453032 -0.0459605)
(0.0259624 0.0303425 -0.0307553)
(0.100378 0.00126443 0.000723187)
(0.102501 0.00282078 0.00125795)
(0.105795 0.00408867 0.00114552)
(0.108971 0.0050761 0.000498668)
(0.11172 0.0059191 -0.000583831)
(0.113711 0.00682952 -0.0020102)
(0.114933 0.00801503 -0.00375943)
(0.115453 0.00966994 -0.00586896)
(0.115223 0.0119808 -0.00841617)
(0.114374 0.0152111 -0.0115481)
(0.112353 0.0196956 -0.0154375)
(0.109463 0.0260851 -0.0203787)
(0.103017 0.0352216 -0.0266258)
(0.0944302 0.048421 -0.0339586)
(0.0706391 0.0647104 -0.0400519)
(0.0400685 0.0660262 -0.0278366)
(0.087664 0.017307 0.000229392)
(0.0719436 0.0117479 0.000318629)
(0.0564901 0.00734202 8.82312e-05)
(0.0477736 0.00359432 -0.000373739)
(0.0423149 0.00164791 -0.00102781)
(0.0391926 0.000703916 -0.00184755)
(0.037023 0.000319923 -0.0028567)
(0.0352363 0.000168497 -0.00409423)
(0.0333123 0.000107409 -0.00562982)
(0.0311474 5.15234e-05 -0.00752621)
(0.0282784 -2.60228e-05 -0.00992908)
(0.0249431 -0.000209804 -0.0128246)
(0.0201601 -0.00045843 -0.0165368)
(0.0147625 -0.00107829 -0.0200841)
(0.00725845 -0.00157294 -0.0230488)
(-0.000575944 -0.00318947 -0.0153903)
(0.10392 0.0179576 0.000295401)
(0.103266 0.0175387 0.000396766)
(0.0996432 0.0141303 4.64727e-05)
(0.0952884 0.00949854 -0.000691446)
(0.091073 0.00604796 -0.00178023)
(0.0875454 0.00384752 -0.00318952)
(0.084336 0.00270152 -0.00495238)
(0.0811643 0.00221971 -0.00713817)
(0.077535 0.00213021 -0.00986471)
(0.0732388 0.00223747 -0.0132598)
(0.0675851 0.00243919 -0.0175539)
(0.0606004 0.00257579 -0.0228117)
(0.0507636 0.00263229 -0.0294234)
(0.0387343 0.0020514 -0.0360243)
(0.0216976 0.00102821 -0.0407439)
(0.00386861 -0.00255347 -0.0262648)
(0.103921 0.0119 0.000318702)
(0.10798 0.0160158 0.000420333)
(0.110345 0.0150637 3.81425e-05)
(0.1102 0.0117916 -0.000759778)
(0.108739 0.00871766 -0.00193956)
(0.106572 0.00647202 -0.00347796)
(0.103905 0.00521178 -0.00541431)
(0.100768 0.00473257 -0.00782787)
(0.0968606 0.00482595 -0.0108474)
(0.0920106 0.00530114 -0.0146214)
(0.0854792 0.00604489 -0.0193967)
(0.0771725 0.00686604 -0.0252783)
(0.0653015 0.00771528 -0.0326549)
(0.0503759 0.00782948 -0.0401283)
(0.0288374 0.00677513 -0.0454081)
(0.00582111 0.00110111 -0.0292032)
(0.102058 0.00767009 0.00033805)
(0.106205 0.01251 0.000454046)
(0.110198 0.0131807 7.65943e-05)
(0.112058 0.0116191 -0.000716978)
(0.112398 0.00961806 -0.00188904)
(0.11153 0.00799257 -0.00341773)
(0.109745 0.0071021 -0.00534332)
(0.107168 0.0069486 -0.00774648)
(0.103608 0.00745504 -0.0107548)
(0.0989508 0.00851461 -0.0145216)
(0.0924428 0.0100801 -0.0192909)
(0.0839602 0.012003 -0.0251911)
(0.0715121 0.0142753 -0.0326001)
(0.0555432 0.0159565 -0.0401822)
(0.0320179 0.0158629 -0.0455701)
(0.00624054 0.00760247 -0.0292827)
(0.101029 0.00504113 0.00036523)
(0.104261 0.00935764 0.000512794)
(0.10811 0.0108143 0.000163671)
(0.110628 0.0104946 -0.000599136)
(0.111933 0.00953428 -0.00173135)
(0.112022 0.00867689 -0.00320699)
(0.11108 0.00834065 -0.00506121)
(0.109214 0.00866204 -0.00736973)
(0.10627 0.00967906 -0.0102513)
(0.102179 0.0113818 -0.0138557)
(0.0961839 0.0138077 -0.0184117)
(0.0881808 0.0168798 -0.024066)
(0.075949 0.020669 -0.0311697)
(0.0599081 0.024043 -0.0385229)
(0.0351287 0.0251883 -0.0437756)
(0.00692568 0.0136628 -0.0281088)
(0.100574 0.00343011 0.000396518)
(0.103072 0.00685305 0.000585957)
(0.10648 0.00850886 0.000279287)
(0.109174 0.00893725 -0.000438473)
(0.111004 0.00879927 -0.00151607)
(0.111768 0.00867323 -0.0029205)
(0.111533 0.00894646 -0.00467811)
(0.110357 0.00982413 -0.00685594)
(0.108092 0.0114352 -0.0095595)
(0.104699 0.0138849 -0.012931)
(0.099412 0.0173428 -0.0171758)
(0.0921673 0.0219234 -0.022458)
(0.080486 0.0279526 -0.0290854)
(0.0648474 0.0343933 -0.0360514)
(0.0390638 0.0391818 -0.041048)
(0.008466 0.0250863 -0.0264416)
(0.100406 0.00227207 0.000432479)
(0.102513 0.00478324 0.000671307)
(0.10563 0.00635618 0.000416979)
(0.108407 0.00719974 -0.000245162)
(0.110581 0.00767027 -0.00125677)
(0.111863 0.0081661 -0.00257567)
(0.112246 0.00900217 -0.00421584)
(0.111768 0.0104017 -0.00623095)
(0.110307 0.0125464 -0.00870655)
(0.107891 0.0156344 -0.0117676)
(0.103817 0.0199372 -0.0155785)
(0.0981807 0.0257608 -0.0203047)
(0.0883484 0.0336351 -0.0261657)
(0.0751283 0.0427379 -0.0324062)
(0.0496231 0.0508992 -0.0367496)
(0.0175533 0.0340212 -0.0237944)
(0.100353 0.0013062 0.000470945)
(0.102326 0.00292152 0.000763265)
(0.105371 0.00425419 0.000566706)
(0.108272 0.00531008 -3.37464e-05)
(0.110734 0.00623158 -0.000973309)
(0.112432 0.00724293 -0.00219977)
(0.113336 0.00856878 -0.00371342)
(0.113486 0.0104235 -0.0055527)
(0.112795 0.0130224 -0.00778141)
(0.111351 0.0166639 -0.0105036)
(0.108532 0.0217507 -0.0138397)
(0.104585 0.0289857 -0.017949)
(0.0968085 0.0393955 -0.0229567)
(0.0866073 0.0541028 -0.0283882)
(0.0623884 0.0724716 -0.0320865)
(0.032847 0.0721172 -0.0215513)
(0.087646 0.0173093 0.000121175)
(0.0718361 0.0117569 0.000133733)
(0.0562338 0.00735069 -8.66751e-05)
(0.047367 0.00359946 -0.000478557)
(0.0417528 0.00165165 -0.00101883)
(0.038472 0.000708671 -0.00169454)
(0.0361261 0.000327564 -0.00252808)
(0.0341327 0.000179922 -0.00354606)
(0.0319688 0.000124294 -0.00479564)
(0.029512 7.70957e-05 -0.00629954)
(0.026349 1.58978e-05 -0.00814115)
(0.0226626 -0.000132831 -0.0102245)
(0.0177385 -0.000318602 -0.0127046)
(0.0121984 -0.000790591 -0.0146761)
(0.00546884 -0.00114973 -0.0156258)
(-0.00102342 -0.0024495 -0.00940212)
(0.103895 0.01797 0.000146849)
(0.103112 0.0175689 0.00013004)
(0.0992676 0.0141703 -0.000224834)
(0.0946527 0.00954095 -0.00087116)
(0.0901462 0.00609444 -0.00178716)
(0.0863068 0.00390424 -0.00296055)
(0.0827508 0.00277678 -0.00442643)
(0.0791765 0.0023212 -0.00623853)
(0.0750745 0.00226766 -0.00848102)
(0.0702058 0.00242248 -0.0112204)
(0.063929 0.00269216 -0.0145908)
(0.056225 0.00292499 -0.0185235)
(0.045922 0.0031233 -0.0231685)
(0.0335477 0.0027571 -0.0272199)
(0.0177095 0.00191096 -0.028905)
(0.00223389 -0.00152463 -0.0169746)
(0.103897 0.0119225 0.000158549)
(0.107823 0.0160671 0.00012894)
(0.109954 0.0151383 -0.000263575)
(0.109526 0.0118816 -0.000967781)
(0.107743 0.00882392 -0.00196462)
(0.105223 0.00660231 -0.00324857)
(0.102163 0.00537972 -0.00486132)
(0.0985696 0.00495369 -0.0068662)
(0.0941258 0.00512015 -0.00935668)
(0.088628 0.00568995 -0.0124154)
(0.0813792 0.00656125 -0.0161861)
(0.0722495 0.00754121 -0.0206248)
(0.0598018 0.00860104 -0.0258623)
(0.0444559 0.00894468 -0.0305291)
(0.0241865 0.00803746 -0.0324457)
(0.00381991 0.00214275 -0.0189225)
(0.102037 0.00769664 0.000174059)
(0.106051 0.0125725 0.000152698)
(0.109815 0.0132774 -0.000238346)
(0.111396 0.0117449 -0.000939735)
(0.111416 0.00977472 -0.00193005)
(0.110199 0.00819004 -0.00320546)
(0.108023 0.00735856 -0.00480878)
(0.104994 0.00728712 -0.00680489)
(0.100903 0.00790601 -0.00928635)
(0.095604 0.00911127 -0.01234)
(0.0883802 0.0108699 -0.0161063)
(0.0790769 0.0130237 -0.020558)
(0.0660387 0.0155888 -0.0258108)
(0.0496381 0.0175311 -0.0305309)
(0.027355 0.0175807 -0.0324508)
(0.00425527 0.00873969 -0.0187982)
(0.101009 0.00507148 0.000198465)
(0.104112 0.00943008 0.000203681)
(0.107738 0.0109301 -0.000163139)
(0.109986 0.0106515 -0.000837442)
(0.110986 0.00973549 -0.00179286)
(0.110743 0.00893461 -0.00302245)
(0.109433 0.00867724 -0.00456482)
(0.107142 0.00910755 -0.00648088)
(0.103699 0.0102741 -0.00885603)
(0.0990075 0.0121719 -0.0117752)
(0.0923381 0.014857 -0.0153667)
(0.0835646 0.0182374 -0.0196193)
(0.070767 0.0224168 -0.0246269)
(0.0543146 0.0261148 -0.0291586)
(0.030698 0.0274443 -0.030964)
(0.0050679 0.0150492 -0.0178103)
(0.100554 0.00346338 0.000226877)
(0.102927 0.00693334 0.000268842)
(0.106119 0.0086395 -6.08033e-05)
(0.108558 0.00911825 -0.000695478)
(0.110099 0.00903586 -0.00160332)
(0.110555 0.00898016 -0.00277158)
(0.10998 0.00935024 -0.00423157)
(0.108415 0.0103617 -0.00603721)
(0.105694 0.0121578 -0.00826338)
(0.101756 0.0148527 -0.0109903)
(0.0958532 0.0186418 -0.0143286)
(0.0879106 0.0236247 -0.0182847)
(0.075704 0.030177 -0.0229227)
(0.059698 0.0370646 -0.0271633)
(0.0349762 0.0421806 -0.0288139)
(0.00677394 0.0269777 -0.0165222)
(0.100387 0.00230809 0.000259227)
(0.102374 0.00487013 0.000344792)
(0.105284 0.00649829 6.10936e-05)
(0.107819 0.00739882 -0.000524972)
(0.109726 0.0079332 -0.00137575)
(0.110727 0.00850969 -0.00247083)
(0.110804 0.00945615 -0.00383144)
(0.109984 0.0110085 -0.00550116)
(0.108124 0.0133657 -0.00753984)
(0.105239 0.0167388 -0.0100171)
(0.100637 0.0214312 -0.0130164)
(0.0944186 0.0277383 -0.0165557)
(0.0841383 0.0362536 -0.0206487)
(0.070653 0.0459296 -0.0244235)
(0.0460601 0.0545811 -0.0257823)
(0.0161052 0.0364305 -0.0148281)
(0.100335 0.00134398 0.000293417)
(0.102192 0.00301236 0.0004261)
(0.105041 0.00440286 0.000193065)
(0.107717 0.00551934 -0.00033928)
(0.109932 0.0065096 -0.00112784)
(0.111378 0.00760791 -0.00214387)
(0.112013 0.00905248 -0.00339736)
(0.11187 0.0110721 -0.00492016)
(0.110843 0.0139016 -0.00675574)
(0.109014 0.0178574 -0.00896086)
(0.105764 0.0233789 -0.0115896)
(0.101367 0.0311704 -0.0146683)
(0.0932413 0.0423351 -0.0181597)
(0.0829132 0.057763 -0.0214255)
(0.0594841 0.0768725 -0.022548)
(0.0317992 0.075143 -0.0134612)
(0.0876319 0.0173112 5.3774e-05)
(0.0717527 0.011764 2.62579e-05)
(0.0560332 0.00735738 -0.000166154)
(0.0470432 0.00360326 -0.000481246)
(0.0412983 0.00165405 -0.000905981)
(0.0378814 0.000711465 -0.00143549)
(0.0353841 0.000332003 -0.00208924)
(0.033214 0.000186293 -0.00288581)
(0.0308482 0.000133122 -0.00385789)
(0.0281494 8.95827e-05 -0.0050118)
(0.0247485 3.56108e-05 -0.00640006)
(0.0207921 -9.56294e-05 -0.00792592)
(0.0157754 -0.000249726 -0.00967736)
(0.010206 -0.000642917 -0.0109812)
(0.00414151 -0.000942657 -0.0113916)
(-0.0012692 -0.00209947 -0.00687008)
(0.103875 0.0179805 5.64076e-05)
(0.102993 0.0175941 -1.8056e-05)
(0.0989724 0.0142037 -0.000337933)
(0.0941455 0.00957678 -0.000869439)
(0.0893966 0.00613376 -0.00159977)
(0.0852934 0.00395184 -0.00252653)
(0.0814432 0.0028393 -0.00368193)
(0.0775292 0.00240469 -0.00510695)
(0.0730353 0.00237964 -0.00686173)
(0.0677021 0.00257151 -0.00898133)
(0.0609373 0.00289314 -0.011548)
(0.052701 0.0031975 -0.0144688)
(0.0421057 0.00349847 -0.0178013)
(0.0296442 0.00327747 -0.02054)
(0.0148964 0.00253668 -0.0212605)
(0.0013683 -0.000890984 -0.0124106)
(0.103879 0.0119418 6.09242e-05)
(0.107701 0.0161108 -3.15478e-05)
(0.109647 0.0152018 -0.000388014)
(0.108989 0.0119586 -0.000970162)
(0.106937 0.00891487 -0.00176764)
(0.10412 0.00671343 -0.00278373)
(0.100726 0.00552215 -0.0040567)
(0.0967479 0.00514018 -0.00563581)
(0.0918591 0.005367 -0.00758865)
(0.0858351 0.00601449 -0.00996249)
(0.0780233 0.00698961 -0.0128449)
(0.068283 0.0080971 -0.0161587)
(0.0554656 0.0093236 -0.0199395)
(0.039996 0.00984151 -0.0231214)
(0.0208995 0.00903957 -0.023948)
(0.00274245 0.00290286 -0.0138473)
(0.102019 0.00771986 7.2689e-05)
(0.105932 0.0126264 -1.55762e-05)
(0.109514 0.0133606 -0.000372469)
(0.110868 0.0118531 -0.00095297)
(0.110623 0.00990915 -0.00174535)
(0.10911 0.00835883 -0.00275455)
(0.106603 0.00757667 -0.00402)
(0.103193 0.00757352 -0.00559241)
(0.0986596 0.00828561 -0.00753889)
(0.0928382 0.00961077 -0.00991033)
(0.0850506 0.0115269 -0.0127917)
(0.0751358 0.0138667 -0.0161188)
(0.0617137 0.016664 -0.0199143)
(0.0451791 0.0188087 -0.0231373)
(0.0240497 0.0189661 -0.0239565)
(0.00319321 0.00964452 -0.0137563)
(0.100993 0.0050981 9.2931e-05)
(0.103997 0.00949288 2.57508e-05)
(0.107446 0.01103 -0.000311691)
(0.109476 0.0107864 -0.000870033)
(0.110222 0.00990801 -0.00163388)
(0.109699 0.00915479 -0.00260601)
(0.108075 0.00896355 -0.00382259)
(0.105425 0.00948479 -0.0053314)
(0.101566 0.0107757 -0.00719412)
(0.0963837 0.0128345 -0.00946086)
(0.0891817 0.0157317 -0.0122079)
(0.079832 0.0193614 -0.0153846)
(0.0666629 0.0238518 -0.0189991)
(0.0500836 0.0278059 -0.0220881)
(0.0275542 0.0292812 -0.0228373)
(0.00409443 0.016212 -0.0130298)
(0.100539 0.00349246 0.000116725)
(0.102816 0.00700281 7.96545e-05)
(0.105838 0.00875187 -0.000227372)
(0.108069 0.00927348 -0.00075324)
(0.109372 0.00923825 -0.00147827)
(0.109566 0.00924186 -0.00240083)
(0.108701 0.00969319 -0.00355134)
(0.106807 0.0108163 -0.00497224)
(0.103705 0.0127661 -0.00671723)
(0.0993202 0.0156629 -0.00883351)
(0.0929301 0.0197216 -0.011385)
(0.0844654 0.0250277 -0.0143361)
(0.0719132 0.0319921 -0.0176759)
(0.0558042 0.0392288 -0.0205554)
(0.0320826 0.0445946 -0.0212169)
(0.00591868 0.0285724 -0.0120736)
(0.100372 0.00233931 0.000143691)
(0.102267 0.00494491 0.000142511)
(0.105015 0.00662011 -0.00012689)
(0.107355 0.00756902 -0.000613039)
(0.109041 0.00815752 -0.00129175)
(0.109802 0.0088021 -0.00215545)
(0.109619 0.00984132 -0.00322669)
(0.108506 0.0115214 -0.00454019)
(0.106312 0.0140553 -0.00613862)
(0.10304 0.0176637 -0.00806264)
(0.0980171 0.0226739 -0.0103578)
(0.0913598 0.029371 -0.0130011)
(0.0807838 0.0383928 -0.0159521)
(0.0672506 0.0485217 -0.0185154)
(0.0435334 0.0575522 -0.019032)
(0.0154077 0.0384987 -0.0108854)
(0.100321 0.00137641 0.000171992)
(0.102091 0.00309005 0.000209563)
(0.104786 0.00452977 -1.83492e-05)
(0.107279 0.00569763 -0.000460648)
(0.109292 0.00674614 -0.00108894)
(0.110522 0.0079179 -0.00188903)
(0.110928 0.00946234 -0.00287471)
(0.110533 0.01162 -0.00407188)
(0.109222 0.0146414 -0.00551116)
(0.107075 0.0188563 -0.00722484)
(0.103481 0.0247323 -0.00923859)
(0.0987447 0.0329718 -0.0115393)
(0.0903954 0.0447314 -0.0140577)
(0.0801042 0.0607295 -0.0162705)
(0.0574391 0.0804164 -0.0166857)
(0.0313713 0.0778281 -0.00989914)
(0.0876218 0.0173126 1.74863e-05)
(0.0716927 0.0117694 -2.16942e-05)
(0.0558872 0.00736254 -0.000170314)
(0.0468058 0.00360643 -0.00040074)
(0.0409638 0.00165635 -0.000705568)
(0.0374474 0.000714402 -0.00108349)
(0.0348435 0.00033682 -0.0015485)
(0.0325556 0.000193717 -0.00211126)
(0.0300663 0.000144338 -0.00279042)
(0.0272339 0.000106751 -0.00358097)
(0.0237278 6.32676e-05 -0.00450744)
(0.0196784 -4.76115e-05 -0.00548478)
(0.0147064 -0.000167517 -0.00654764)
(0.00924977 -0.000494708 -0.00724598)
(0.00357917 -0.000734922 -0.00723978)
(-0.0012515 -0.00182668 -0.00419362)
(0.10386 0.0179887 1.03022e-05)
(0.102906 0.0176137 -7.50853e-05)
(0.0987564 0.0142298 -0.000327033)
(0.0937713 0.00960512 -0.000722035)
(0.0888411 0.00616511 -0.00125231)
(0.0845417 0.00398997 -0.00191901)
(0.0804777 0.00288951 -0.00274642)
(0.0763264 0.00247212 -0.0037614)
(0.0715741 0.00247084 -0.00500064)
(0.0659568 0.00269436 -0.00647564)
(0.058929 0.00306098 -0.00822502)
(0.050452 0.00342805 -0.0101554)
(0.0398189 0.00381931 -0.0122637)
(0.0275114 0.00372033 -0.0138546)
(0.0134951 0.00307947 -0.0138988)
(0.00112511 -0.000382774 -0.00783426)
(0.103865 0.0119571 1.11101e-05)
(0.107612 0.016145 -9.14352e-05)
(0.109423 0.0152516 -0.000373486)
(0.108593 0.0120193 -0.000807742)
(0.106339 0.00898659 -0.0013884)
(0.103299 0.00680097 -0.00212085)
(0.0996618 0.00563409 -0.00303414)
(0.0954124 0.00528648 -0.00416143)
(0.0902257 0.00556055 -0.00554478)
(0.0838733 0.00626923 -0.007204)
(0.0757475 0.00732671 -0.00918017)
(0.0657182 0.00853692 -0.0113884)
(0.0528235 0.00989921 -0.0138053)
(0.0375079 0.0105624 -0.015686)
(0.019224 0.00986164 -0.0157571)
(0.00241072 0.00352507 -0.00878669)
(0.102007 0.00773835 1.93203e-05)
(0.105846 0.012669 -8.14023e-05)
(0.109293 0.0134262 -0.000364644)
(0.110478 0.0119383 -0.000798052)
(0.110034 0.0100148 -0.00137512)
(0.108301 0.008491 -0.00210261)
(0.105552 0.00774661 -0.00301057)
(0.101872 0.00779552 -0.00413336)
(0.0970436 0.00857834 -0.00551279)
(0.0908967 0.00999413 -0.00717136)
(0.0827956 0.0120288 -0.0091482)
(0.0725935 0.0145086 -0.0113671)
(0.0590889 0.0174808 -0.0137946)
(0.0427096 0.0197818 -0.0157004)
(0.0223844 0.0200301 -0.015755)
(0.00289097 0.0103537 -0.008708)
(0.100981 0.00511931 3.44144e-05)
(0.103913 0.00954257 -5.10599e-05)
(0.107233 0.0111087 -0.000320123)
(0.109101 0.0108924 -0.000737147)
(0.109656 0.0100431 -0.00129316)
(0.108924 0.00932638 -0.00199351)
(0.107072 0.0091853 -0.002866)
(0.104168 0.00977489 -0.00394296)
(0.100032 0.0111583 -0.00526255)
(0.0945467 0.0133357 -0.00684705)
(0.0870529 0.016387 -0.00873001)
(0.0774402 0.0201955 -0.010845)
(0.0641975 0.0249053 -0.0131494)
(0.0477787 0.0290399 -0.0149654)
(0.0260079 0.0306149 -0.0149786)
(0.00385903 0.017067 -0.00820939)
(0.100528 0.00351553 5.22792e-05)
(0.102736 0.00705766 -1.0904e-05)
(0.105633 0.00884025 -0.000257465)
(0.107709 0.00939515 -0.000650447)
(0.108833 0.00939619 -0.00117786)
(0.108834 0.0094449 -0.00184197)
(0.107757 0.00995733 -0.00266651)
(0.105631 0.0111634 -0.00368014)
(0.102276 0.0132256 -0.00491559)
(0.0976193 0.0162672 -0.00639361)
(0.0909676 0.0205151 -0.00813996)
(0.0822745 0.0260416 -0.0100995)
(0.0696638 0.0332771 -0.0122189)
(0.0537259 0.0407339 -0.0138975)
(0.0307035 0.0462347 -0.0138693)
(0.00576304 0.0296487 -0.00756735)
(0.100361 0.00236395 7.24721e-05)
(0.10219 0.00500374 3.59614e-05)
(0.10482 0.00671561 -0.000182731)
(0.107014 0.007702 -0.000546401)
(0.108534 0.00833199 -0.00103984)
(0.109118 0.00902811 -0.00166113)
(0.108744 0.0101367 -0.00242849)
(0.107425 0.0119108 -0.00336539)
(0.10501 0.0145724 -0.00449736)
(0.101505 0.0183467 -0.00584169)
(0.0962601 0.0235746 -0.00741328)
(0.0894209 0.0305287 -0.00916797)
(0.0788076 0.039869 -0.011038)
(0.0654624 0.0502653 -0.0125255)
(0.0423662 0.0594814 -0.012449)
(0.0153424 0.0398239 -0.0068322)
(0.100311 0.00140184 9.35746e-05)
(0.102018 0.0031509 8.58547e-05)
(0.104601 0.00462891 -0.000102108)
(0.106959 0.00583647 -0.000433452)
(0.10882 0.00692952 -0.000889955)
(0.10989 0.0081567 -0.001465)
(0.110127 0.00977543 -0.00217068)
(0.109555 0.0120339 -0.00302454)
(0.108057 0.0151925 -0.00404422)
(0.105719 0.0195872 -0.00524251)
(0.101949 0.0257003 -0.00662274)
(0.0970855 0.0342248 -0.00815042)
(0.0887314 0.0463403 -0.0097451)
(0.0786561 0.0626505 -0.0110238)
(0.0565419 0.0825915 -0.0109405)
(0.0314427 0.079467 -0.00624348)
(0.087615 0.0173135 2.30358e-06)
(0.0716529 0.011773 -2.97886e-05)
(0.0557902 0.00736587 -0.000122987)
(0.0466469 0.00360838 -0.000264153)
(0.0407386 0.00165758 -0.000448063)
(0.0371534 0.000715865 -0.000675626)
(0.0344756 0.00033923 -0.000955277)
(0.0321064 0.000197373 -0.00129305)
(0.0295322 0.000149709 -0.00169919)
(0.0266091 0.000114768 -0.00216862)
(0.0230327 7.61293e-05 -0.00271364)
(0.0189254 -2.4754e-05 -0.00328112)
(0.0139871 -0.000127523 -0.00388629)
(0.00862037 -0.000421016 -0.00427269)
(0.00321788 -0.000634298 -0.00422924)
(-0.00124607 -0.00169587 -0.00245892)
(0.103851 0.0179943 -6.08604e-06)
(0.102849 0.017627 -7.01691e-05)
(0.0986126 0.0142475 -0.000230896)
(0.0935208 0.00962443 -0.000474742)
(0.088467 0.00618644 -0.00079712)
(0.084033 0.00401581 -0.00120032)
(0.079822 0.00292336 -0.00169964)
(0.0755081 0.00251733 -0.00231101)
(0.0705802 0.00253163 -0.00305523)
(0.0647727 0.00277566 -0.00393602)
(0.0575729 0.00317114 -0.00497216)
(0.0489481 0.00357773 -0.00610245)
(0.0383073 0.00402501 -0.00731512)
(0.0261364 0.00399842 -0.00820502)
(0.0126219 0.00341152 -0.00815065)
(0.000986452 -9.1073e-05 -0.00458932)
(0.103856 0.0119676 -6.3328e-06)
(0.107553 0.0161685 -8.26181e-05)
(0.109273 0.0152858 -0.000263257)
(0.108327 0.012061 -0.000531747)
(0.105937 0.00903593 -0.000885417)
(0.102744 0.00686112 -0.00132884)
(0.0989391 0.00571081 -0.00188051)
(0.0945036 0.00538652 -0.00256025)
(0.0891142 0.00569254 -0.00339215)
(0.0825415 0.00644244 -0.00438481)
(0.0742097 0.007555 -0.0055582)
(0.0640012 0.00883326 -0.00685542)
(0.051075 0.0102844 -0.00825167)
(0.0359008 0.0110395 -0.00930978)
(0.018177 0.0103985 -0.00926075)
(0.00222009 0.00391616 -0.00515195)
(0.101999 0.00775118 -1.58196e-06)
(0.105788 0.0126984 -7.70883e-05)
(0.109147 0.0134714 -0.000258858)
(0.110218 0.0119971 -0.000526939)
(0.109638 0.0100877 -0.000878498)
(0.107754 0.00858205 -0.00131891)
(0.104838 0.00786344 -0.00186739)
(0.100974 0.00794779 -0.00254449)
(0.0959433 0.00877863 -0.00337426)
(0.0895775 0.0102557 -0.00436696)
(0.08127 0.01237 -0.00554148)
(0.070889 0.0149432 -0.00684603)
(0.0573484 0.0180306 -0.00824996)
(0.0411108 0.0204326 -0.00932395)
(0.021341 0.020736 -0.00926514)
(0.00271707 0.0108175 -0.00510943)
(0.100974 0.00513407 7.74077e-06)
(0.103858 0.00957701 -5.85675e-05)
(0.107091 0.0111631 -0.000231737)
(0.108849 0.0109656 -0.000489758)
(0.109276 0.0101364 -0.000828411)
(0.1084 0.00944469 -0.00125224)
(0.10639 0.00933793 -0.00177916)
(0.103313 0.00997418 -0.00242855)
(0.0989869 0.0114206 -0.00322232)
(0.0932976 0.0136784 -0.00417074)
(0.0856111 0.0168335 -0.00528967)
(0.0758342 0.020762 -0.00653324)
(0.0625598 0.0256171 -0.00786617)
(0.0462839 0.0298704 -0.0088895)
(0.0250379 0.0315078 -0.00881138)
(0.00372574 0.0176406 -0.00482252)
(0.10052 0.00353159 1.87986e-05)
(0.102683 0.00709568 -3.38163e-05)
(0.105497 0.00890137 -0.00019314)
(0.107469 0.00947919 -0.00043639)
(0.108472 0.00950519 -0.000757511)
(0.108338 0.00958486 -0.00115922)
(0.107116 0.0101391 -0.00165699)
(0.10483 0.0114018 -0.002268)
(0.101303 0.0135405 -0.00301101)
(0.0964623 0.0166804 -0.00389547)
(0.0896377 0.0210555 -0.00493293)
(0.0808023 0.0267294 -0.0060842)
(0.0681685 0.0341436 -0.00730886)
(0.0523779 0.041745 -0.00825235)
(0.0298398 0.0473303 -0.00815504)
(0.00568045 0.0303753 -0.00444475)