/*--------------------------------*- C++ -*----------------------------------*\
| =========                 |                                                 |
| \\      /  F ield         | OpenFOAM: The Open Source CFD Toolbox           |
|  \\    /   O peration     | Version:  v1912                                 |
|   \\  /    A nd           | Website:  www.openfoam.com                      |
|    \\/     M anipulation  |                                                 |
\*---------------------------------------------------------------------------*/
FoamFile
{
    version     2.0;
    format      ascii;
    class       volVectorField;
    location    "0.4/solid";
    object      DD_0;
}
// * * * * * * * * * * * * * * * * * * * * * * * * * * * * * * * * * * * * * //

dimensions      [0 1 0 0 0 0 0];


internalField   nonuniform List<vector> 
256
(
(4.0252e-10 3.81641e-10 4.45544e-10)
(8.00944e-11 2.04604e-10 3.80297e-10)
(-8.94442e-11 2.00459e-10 3.76014e-10)
(-3.96043e-10 3.64615e-10 4.31455e-10)
(6.75737e-10 2.44321e-10 9.44841e-10)
(1.61579e-10 1.21087e-10 8.57512e-10)
(-1.78528e-10 1.18809e-10 8.49568e-10)
(-6.71758e-10 2.38133e-10 9.19389e-10)
(7.0621e-10 -3.6049e-11 1.27651e-09)
(1.70786e-10 -8.39318e-11 1.18553e-09)
(-1.96466e-10 -8.29253e-11 1.17576e-09)
(-7.10999e-10 -3.11449e-11 1.24547e-09)
(6.78749e-10 -3.24147e-10 1.56486e-09)
(1.52756e-10 -3.52411e-10 1.46329e-09)
(-1.91178e-10 -3.48173e-10 1.45228e-09)
(-6.96187e-10 -3.09851e-10 1.53e-09)
(6.743e-10 -6.29661e-10 1.86131e-09)
(1.41879e-10 -6.81528e-10 1.74296e-09)
(-1.97095e-10 -6.74372e-10 1.73093e-09)
(-7.08258e-10 -6.07022e-10 1.82334e-09)
(7.55384e-10 -9.92734e-10 2.20049e-09)
(1.6564e-10 -1.0802e-09 2.06365e-09)
(-2.41695e-10 -1.07037e-09 2.05066e-09)
(-8.09876e-10 -9.62394e-10 2.15972e-09)
(9.95667e-10 -1.53775e-09 2.60996e-09)
(2.4415e-10 -1.59642e-09 2.46563e-09)
(-3.45818e-10 -1.58392e-09 2.45152e-09)
(-1.07446e-09 -1.49957e-09 2.5662e-09)
(1.35413e-09 -2.48108e-09 3.01253e-09)
(3.31542e-10 -2.35568e-09 2.88976e-09)
(-4.65486e-10 -2.33827e-09 2.87423e-09)
(-1.46057e-09 -2.42791e-09 2.96527e-09)
(2.06719e-10 1.10912e-10 1.48475e-10)
(3.75121e-11 -1.26036e-11 1.8106e-10)
(-4.11675e-11 -1.4121e-11 1.79326e-10)
(-1.97638e-10 1.00452e-10 1.43138e-10)
(3.58956e-10 -5.38574e-11 4.90946e-10)
(8.22636e-11 -1.43367e-10 5.53343e-10)
(-8.69891e-11 -1.43805e-10 5.48721e-10)
(-3.4753e-10 -5.61148e-11 4.77292e-10)
(3.68337e-10 -2.93327e-10 8.02175e-10)
(8.44331e-11 -3.29114e-10 8.73631e-10)
(-9.37585e-11 -3.27204e-10 8.67246e-10)
(-3.61979e-10 -2.8688e-10 7.83313e-10)
(3.3745e-10 -5.57342e-10 1.083e-09)
(6.73486e-11 -5.80797e-10 1.15358e-09)
(-8.64059e-11 -5.76157e-10 1.14604e-09)
(-3.40889e-10 -5.42657e-10 1.06055e-09)
(3.26588e-10 -8.47034e-10 1.36116e-09)
(5.67864e-11 -8.95596e-10 1.42715e-09)
(-9.02644e-11 -8.88289e-10 1.41865e-09)
(-3.44175e-10 -8.2457e-10 1.33571e-09)
(3.96991e-10 -1.17264e-09 1.65324e-09)
(7.91097e-11 -1.2585e-09 1.71453e-09)
(-1.31431e-10 -1.24869e-09 1.70512e-09)
(-4.3298e-10 -1.14287e-09 1.62493e-09)
(6.28701e-10 -1.59482e-09 1.93215e-09)
(1.55689e-10 -1.6514e-09 1.99206e-09)
(-2.31804e-10 -1.63924e-09 1.98175e-09)
(-6.86891e-10 -1.5579e-09 1.9011e-09)
(9.93112e-10 -2.27154e-09 2.06905e-09)
(2.41577e-10 -2.12468e-09 2.13102e-09)
(-3.48191e-10 -2.10849e-09 2.1202e-09)
(-1.07669e-09 -2.22138e-09 2.03635e-09)
(8.21269e-11 1.82623e-11 7.65662e-11)
(1.04825e-12 -6.52997e-11 1.22405e-10)
(-2.55582e-12 -6.64366e-11 1.2116e-10)
(-7.1669e-11 8.18238e-12 7.29881e-11)
(1.43097e-10 -1.99568e-10 3.24591e-10)
(1.06749e-11 -2.59867e-10 4.07716e-10)
(-9.35033e-12 -2.5998e-10 4.04371e-10)
(-1.26908e-10 -2.01895e-10 3.15112e-10)
(1.35511e-10 -4.46332e-10 5.96168e-10)
(5.28528e-12 -4.71494e-10 6.89518e-10)
(-5.13708e-12 -4.69555e-10 6.84672e-10)
(-1.21168e-10 -4.40663e-10 5.82303e-10)
(1.0573e-10 -6.94173e-10 8.58451e-10)
(-1.07454e-11 -7.15762e-10 9.52477e-10)
(4.04901e-12 -7.11355e-10 9.46544e-10)
(-9.84036e-11 -6.80814e-10 8.41241e-10)
(9.55951e-11 -9.46406e-10 1.1093e-09)
(-2.04353e-11 -9.95321e-10 1.20158e-09)
(1.7273e-12 -9.88422e-10 1.19475e-09)
(-1.00023e-10 -9.25617e-10 1.08925e-09)
(1.64437e-10 -1.20164e-09 1.34027e-09)
(1.06777e-12 -1.28787e-09 1.43103e-09)
(-3.65826e-11 -1.27862e-09 1.42337e-09)
(-1.85129e-10 -1.17385e-09 1.31763e-09)
(3.92443e-10 -1.50971e-09 1.50674e-09)
(7.55531e-11 -1.56753e-09 1.59719e-09)
(-1.33114e-10 -1.55612e-09 1.58887e-09)
(-4.33353e-10 -1.47514e-09 1.4819e-09)
(7.4831e-10 -2.05541e-09 1.52375e-09)
(1.59345e-10 -1.91592e-09 1.61582e-09)
(-2.45888e-10 -1.90061e-09 1.60728e-09)
(-8.12759e-10 -2.00757e-09 1.49796e-09)
(3.51956e-11 -1.19485e-11 6.60958e-11)
(-1.26018e-11 -7.37778e-11 9.47595e-11)
(1.19986e-11 -7.50298e-11 9.38267e-11)
(-2.38129e-11 -2.2706e-11 6.34833e-11)
(5.76366e-11 -2.53745e-10 2.60028e-10)
(-1.86232e-11 -2.97822e-10 3.11789e-10)
(2.31284e-11 -2.98238e-10 3.09353e-10)
(-3.83188e-11 -2.57451e-10 2.53237e-10)
(4.34168e-11 -5.10895e-10 4.81631e-10)
(-2.7185e-11 -5.30464e-10 5.39202e-10)
(3.30328e-11 -5.28949e-10 5.35617e-10)
(-2.35189e-11 -5.06936e-10 4.71496e-10)
(1.81246e-11 -7.47356e-10 7.03554e-10)
(-4.11103e-11 -7.69056e-10 7.60651e-10)
(4.2547e-11 -7.65175e-10 7.56154e-10)
(-2.87798e-12 -7.35925e-10 6.90631e-10)
(1.38715e-11 -9.64676e-10 9.09516e-10)
(-4.82618e-11 -1.01513e-09 9.64574e-10)
(3.98707e-11 -1.00884e-09 9.59298e-10)
(-8.21517e-12 -9.45965e-10 8.94149e-10)
(8.65543e-11 -1.16526e-09 1.07906e-09)
(-2.56642e-11 -1.25277e-09 1.13245e-09)
(2.35899e-12 -1.24419e-09 1.12649e-09)
(-9.52201e-11 -1.13966e-09 1.06152e-09)
(3.12145e-10 -1.41307e-09 1.17625e-09)
(4.73496e-11 -1.475e-09 1.22945e-09)
(-9.11071e-11 -1.46428e-09 1.22298e-09)
(-3.39293e-10 -1.38068e-09 1.15699e-09)
(6.56708e-10 -1.91219e-09 1.16218e-09)
(1.28968e-10 -1.79022e-09 1.21861e-09)
(-2.00412e-10 -1.77551e-09 1.21202e-09)
(-7.0588e-10 -1.86608e-09 1.14224e-09)
(2.29288e-11 -2.21327e-11 5.82953e-11)
(-1.42904e-11 -7.44462e-11 7.20952e-11)
(1.41647e-11 -7.58326e-11 7.14266e-11)
(-1.09432e-11 -3.3463e-11 5.6445e-11)
(3.67033e-11 -2.67055e-10 2.09142e-10)
(-2.31342e-11 -3.04645e-10 2.33143e-10)
(2.95146e-11 -3.05441e-10 2.3142e-10)
(-1.53797e-11 -2.72112e-10 2.04388e-10)
(2.34347e-11 -5.24169e-10 3.78868e-10)
(-3.12534e-11 -5.42304e-10 4.04569e-10)
(4.07228e-11 -5.41291e-10 4.02019e-10)
(1.55862e-13 -5.21922e-10 3.71722e-10)
(3.49292e-12 -7.5015e-10 5.49616e-10)
(-4.27189e-11 -7.7316e-10 5.73897e-10)
(4.96368e-11 -7.6984e-10 5.70651e-10)
(1.72574e-11 -7.40582e-10 5.40359e-10)
(5.42987e-12 -9.44232e-10 7.03988e-10)
(-4.71727e-11 -9.96467e-10 7.2614e-10)
(4.60443e-11 -9.9077e-10 7.22281e-10)
(7.49286e-12 -9.27439e-10 6.92813e-10)
(8.20374e-11 -1.11548e-09 8.21957e-10)
(-2.31263e-11 -1.2043e-09 8.42571e-10)
(8.67786e-12 -1.19633e-09 8.3818e-10)
(-8.18216e-11 -1.09178e-09 8.09082e-10)
(3.05216e-10 -1.33966e-09 8.80507e-10)
(4.88512e-11 -1.40529e-09 9.01167e-10)
(-8.24023e-11 -1.39514e-09 8.96393e-10)
(-3.22054e-10 -1.30903e-09 8.66318e-10)
(6.40812e-10 -1.82085e-09 8.6411e-10)
(1.28891e-10 -1.71337e-09 8.87893e-10)
(-1.89044e-10 -1.69914e-09 8.83035e-10)
(-6.78446e-10 -1.77613e-09 8.49435e-10)
(2.11531e-11 -2.50881e-11 4.55443e-11)
(-1.28952e-11 -7.36587e-11 5.15237e-11)
(1.30398e-11 -7.51408e-11 5.10782e-11)
(-8.79016e-12 -3.68082e-11 4.43204e-11)
(3.61762e-11 -2.65006e-10 1.54363e-10)
(-2.03539e-11 -3.00877e-10 1.63844e-10)
(2.78708e-11 -3.0197e-10 1.627e-10)
(-1.35953e-11 -2.7106e-10 1.51231e-10)
(2.64629e-11 -5.15906e-10 2.73465e-10)
(-2.67801e-11 -5.34597e-10 2.82663e-10)
(3.85388e-11 -5.33996e-10 2.80964e-10)
(-5.00995e-13 -5.14994e-10 2.68739e-10)
(1.11228e-11 -7.32583e-10 3.9201e-10)
(-3.61301e-11 -7.57191e-10 3.99665e-10)
(4.66422e-11 -7.54333e-10 3.97486e-10)
(1.32711e-11 -7.24497e-10 3.85832e-10)
(1.75835e-11 -9.13725e-10 4.96968e-10)
(-3.85678e-11 -9.67439e-10 5.02945e-10)
(4.23478e-11 -9.62219e-10 5.00332e-10)
(2.82079e-13 -8.98447e-10 4.89436e-10)
(9.66838e-11 -1.07256e-09 5.73899e-10)
(-1.34824e-11 -1.16228e-09 5.78825e-10)
(5.15655e-12 -1.15477e-09 5.75832e-10)
(-9.03025e-11 -1.05033e-09 5.65154e-10)
(3.1774e-10 -1.28935e-09 6.09418e-10)
(5.77744e-11 -1.35716e-09 6.1458e-10)
(-8.41565e-11 -1.34743e-09 6.11317e-10)
(-3.27324e-10 -1.26006e-09 5.99743e-10)
(6.47093e-10 -1.76188e-09 5.97211e-10)
(1.36785e-10 -1.66324e-09 6.04625e-10)
(-1.8892e-10 -1.64936e-09 6.0131e-10)
(-6.76533e-10 -1.71824e-09 5.87207e-10)
(2.13972e-11 -2.54174e-11 2.88194e-11)
(-1.16207e-11 -7.2536e-11 3.12574e-11)
(1.19101e-11 -7.40788e-11 3.10035e-11)
(-8.81421e-12 -3.73802e-11 2.81247e-11)
(3.87892e-11 -2.59347e-10 9.4639e-11)
(-1.75057e-11 -2.9512e-10 9.8026e-11)
(2.56721e-11 -2.96405e-10 9.7374e-11)
(-1.54707e-11 -2.66033e-10 9.28622e-11)
(3.21172e-11 -5.03583e-10 1.6506e-10)
(-2.24858e-11 -5.23218e-10 1.67799e-10)
(3.55911e-11 -5.22892e-10 1.66828e-10)
(-4.74263e-12 -5.03546e-10 1.62372e-10)
(1.98981e-11 -7.13479e-10 2.34269e-10)
(-3.04018e-11 -7.39348e-10 2.35923e-10)
(4.30785e-11 -7.36805e-10 2.34672e-10)
(6.707e-12 -7.06387e-10 2.30737e-10)
(2.90775e-11 -8.88178e-10 2.94678e-10)
(-3.16077e-11 -9.42869e-10 2.95318e-10)
(3.84044e-11 -9.37974e-10 2.93809e-10)
(-8.15843e-12 -8.73923e-10 2.90344e-10)
(1.09465e-10 -1.04263e-09 3.38056e-10)
(-5.9359e-12 -1.1328e-09 3.38139e-10)
(1.43491e-12 -1.12561e-09 3.36403e-10)
(-9.92188e-11 -1.0214e-09 3.32998e-10)
(3.29005e-10 -1.25768e-09 3.57484e-10)
(6.48659e-11 -1.32646e-09 3.57807e-10)
(-8.67135e-11 -1.31702e-09 3.55911e-10)
(-3.33992e-10 -1.22931e-09 3.51871e-10)
(6.54409e-10 -1.72575e-09 3.50274e-10)
(1.43236e-10 -1.63162e-09 3.51899e-10)
(-1.90254e-10 -1.61798e-09 3.49975e-10)
(-6.78617e-10 -1.68285e-09 3.44472e-10)
(2.16431e-11 -2.51691e-11 9.84522e-12)
(-1.10164e-11 -7.17618e-11 1.05118e-11)
(1.13683e-11 -7.33341e-11 1.04294e-11)
(-8.95846e-12 -3.72491e-11 9.62033e-12)
(4.02889e-11 -2.55457e-10 3.18733e-11)
(-1.61076e-11 -2.91388e-10 3.27104e-11)
(2.45686e-11 -2.92766e-10 3.24988e-11)
(-1.66288e-11 -2.62448e-10 3.1298e-11)
(3.51649e-11 -4.95763e-10 5.51556e-11)
(-2.03517e-11 -5.15985e-10 5.57156e-11)
(3.40798e-11 -5.15795e-10 5.54e-11)
(-7.13015e-12 -4.96155e-10 5.42839e-11)
(2.4464e-11 -7.02158e-10 7.78622e-11)
(-2.75702e-11 -7.28688e-10 7.80419e-11)
(4.12622e-11 -7.26303e-10 7.76344e-11)
(3.18477e-12 -6.9556e-10 7.67137e-11)
(3.48867e-11 -8.74224e-10 9.75404e-11)
(-2.82068e-11 -9.29383e-10 9.7387e-11)
(3.64353e-11 -9.24652e-10 9.68941e-11)
(-1.2512e-11 -8.60481e-10 9.61272e-11)
(1.158e-10 -1.02741e-09 1.11556e-10)
(-2.27909e-12 -1.11775e-09 1.11234e-10)
(-3.88422e-13 -1.11072e-09 1.10665e-10)
(-1.03696e-10 -1.00668e-09 1.09902e-10)
(3.34564e-10 -1.24226e-09 1.17768e-10)
(6.83034e-11 -1.31135e-09 1.17543e-10)
(-8.79601e-11 -1.30206e-09 1.16921e-10)
(-3.37326e-10 -1.21434e-09 1.15929e-10)
(6.58042e-10 -1.70842e-09 1.15397e-10)
(1.46357e-10 -1.61611e-09 1.15594e-10)
(-1.90888e-10 -1.60259e-09 1.14964e-10)
(-6.79705e-10 -1.66589e-09 1.13497e-10)
)
;

boundaryField
{
    interface
    {
        type            calculated;
        value           nonuniform List<vector> 
192
(
(3.99971e-10 6.51204e-10 3.91165e-10)
(6.50153e-10 3.20243e-10 8.53818e-10)
(6.81718e-10 -3.52973e-11 1.17906e-09)
(6.58992e-10 -3.32126e-10 1.46803e-09)
(6.54363e-10 -6.10503e-10 1.76514e-09)
(7.23308e-10 -9.12394e-10 2.10385e-09)
(9.37075e-10 -1.38807e-09 2.5117e-09)
(1.38416e-09 -2.38249e-09 2.91265e-09)
(1.13939e-10 2.5233e-10 6.83795e-11)
(2.49755e-10 -1.34544e-11 3.57789e-10)
(2.54808e-10 -2.98705e-10 6.59503e-10)
(2.21433e-10 -5.67781e-10 9.39752e-10)
(2.04113e-10 -8.3215e-10 1.21649e-09)
(2.57365e-10 -1.09712e-09 1.5055e-09)
(4.60438e-10 -1.44579e-09 1.78135e-09)
(9.35196e-10 -2.17455e-09 1.9176e-09)
(-1.61769e-11 7.45677e-11 3.36881e-11)
(4.48722e-11 -1.86223e-10 2.49265e-10)
(3.47541e-11 -4.55676e-10 5.14941e-10)
(2.60023e-12 -7.04154e-10 7.78622e-10)
(-1.22192e-11 -9.31731e-10 1.03112e-09)
(4.45384e-11 -1.12743e-09 1.26266e-09)
(2.53513e-10 -1.36374e-09 1.4276e-09)
(7.17937e-10 -1.96004e-09 1.43965e-09)
(-6.48943e-11 1.12591e-11 5.12982e-11)
(-3.55736e-11 -2.51691e-10 2.33432e-10)
(-5.07879e-11 -5.20774e-10 4.53613e-10)
(-7.75631e-11 -7.54744e-10 6.77996e-10)
(-8.48419e-11 -9.4757e-10 8.86976e-10)
(-2.09596e-11 -1.0907e-09 1.05846e-09)
(1.91095e-10 -1.27054e-09 1.15445e-09)
(6.40178e-10 -1.81767e-09 1.1353e-09)
(-7.89386e-11 -7.22509e-12 5.47862e-11)
(-5.66395e-11 -2.6693e-10 2.03778e-10)
(-6.99839e-11 -5.32474e-10 3.74631e-10)
(-9.04614e-11 -7.54653e-10 5.47867e-10)
(-9.02443e-11 -9.24598e-10 7.04917e-10)
(-2.05089e-11 -1.04054e-09 8.2449e-10)
(1.91838e-10 -1.19997e-09 8.81906e-10)
(6.2781e-10 -1.72691e-09 8.61707e-10)
(-8.12141e-11 -1.07562e-11 4.51624e-11)
(-5.73593e-11 -2.6368e-10 1.54885e-10)
(-6.66065e-11 -5.22172e-10 2.75636e-10)
(-8.1733e-11 -7.34805e-10 3.96112e-10)
(-7.6065e-11 -8.92336e-10 5.02881e-10)
(-2.72739e-12 -9.97523e-10 5.80757e-10)
(2.08799e-10 -1.15175e-09 6.15366e-10)
(6.35309e-10 -1.66855e-09 6.0061e-10)
(-8.08038e-11 -1.03712e-11 2.89425e-11)
(-5.45376e-11 -2.56668e-10 9.56679e-11)
(-6.04289e-11 -5.08307e-10 1.67236e-10)
(-7.19476e-11 -7.14241e-10 2.37605e-10)
(-6.29921e-11 -8.65788e-10 2.99004e-10)
(1.22245e-11 -9.67651e-10 3.42836e-10)
(2.22842e-10 -1.12145e-09 3.61691e-10)
(6.43331e-10 -1.63298e-09 3.53012e-10)
(-8.03322e-11 -9.6865e-12 9.90689e-12)
(-5.28065e-11 -2.52078e-10 3.22485e-11)
(-5.70041e-11 -4.99721e-10 5.59177e-11)
(-6.6771e-11 -7.0223e-10 7.90038e-11)
(-5.63075e-11 -8.51392e-10 9.89929e-11)
(1.96889e-11 -9.52495e-10 1.1314e-10)
(2.2977e-10 -1.1067e-09 1.19157e-10)
(6.47331e-10 -1.61599e-09 1.16306e-10)
(4.13388e-10 7.29238e-10 3.80852e-10)
(6.99405e-10 4.52065e-10 8.49954e-10)
(7.32182e-10 1.18958e-10 1.18302e-09)
(7.01763e-10 -1.77947e-10 1.47864e-09)
(6.92792e-10 -4.70751e-10 1.77663e-09)
(7.69491e-10 -8.0557e-10 2.10214e-09)
(1.00871e-09 -1.33474e-09 2.47875e-09)
(1.37338e-09 -2.38181e-09 2.95797e-09)
(6.27022e-11 5.14058e-10 2.48989e-10)
(1.37748e-10 3.22398e-10 6.86773e-10)
(1.45589e-10 6.75139e-11 1.00397e-09)
(1.24601e-10 -2.13053e-10 1.27822e-09)
(1.09275e-10 -5.31437e-10 1.54937e-09)
(1.28172e-10 -8.99535e-10 1.84582e-09)
(2.04532e-10 -1.38989e-09 2.20741e-09)
(2.96962e-10 -2.25281e-09 2.73967e-09)
(-7.66658e-11 5.06856e-10 2.3839e-10)
(-1.63073e-10 3.18749e-10 6.73854e-10)
(-1.81495e-10 6.77548e-11 9.88933e-10)
(-1.74512e-10 -2.0938e-10 1.26156e-09)
(-1.77011e-10 -5.24777e-10 1.53137e-09)
(-2.17687e-10 -8.90227e-10 1.82651e-09)
(-3.20684e-10 -1.37802e-09 2.18658e-09)
(-4.46614e-10 -2.23566e-09 2.71641e-09)
(-4.10654e-10 7.02327e-10 3.46524e-10)
(-7.02552e-10 4.41638e-10 8.07684e-10)
(-7.45961e-10 1.21509e-10 1.13405e-09)
(-7.29521e-10 -1.65381e-10 1.42477e-09)
(-7.38158e-10 -4.4959e-10 1.71885e-09)
(-8.36357e-10 -7.76678e-10 2.04085e-09)
(-1.10085e-09 -1.29818e-09 2.41395e-09)
(-1.49421e-09 -2.32931e-09 2.88855e-09)
(-3.37773e-10 6.31565e-10 3.7454e-10)
(-5.9e-10 3.16874e-10 8.22925e-10)
(-6.28913e-10 -2.50343e-11 1.14072e-09)
(-6.17233e-10 -3.10533e-10 1.4245e-09)
(-6.27499e-10 -5.78597e-10 1.71736e-09)
(-7.15021e-10 -8.70838e-10 2.05225e-09)
(-9.49438e-10 -1.33689e-09 2.45611e-09)
(-1.4117e-09 -2.31414e-09 2.85247e-09)
(-5.79363e-11 2.36744e-10 6.20398e-11)
(-1.92631e-10 -1.50276e-11 3.41073e-10)
(-2.01837e-10 -2.88538e-10 6.35848e-10)
(-1.76938e-10 -5.47105e-10 9.11099e-10)
(-1.72297e-10 -8.01544e-10 1.18364e-09)
(-2.42134e-10 -1.05719e-09 1.46874e-09)
(-4.64105e-10 -1.39697e-09 1.74082e-09)
(-9.5173e-10 -2.11025e-09 1.8744e-09)
(7.07216e-11 5.78271e-11 2.95273e-11)
(1.40745e-11 -1.89519e-10 2.37802e-10)
(2.31343e-11 -4.47787e-10 4.97681e-10)
(4.95417e-11 -6.86097e-10 7.56731e-10)
(5.41727e-11 -9.03932e-10 1.00525e-09)
(-1.67909e-11 -1.09052e-09 1.23318e-09)
(-2.42425e-10 -1.31823e-09 1.395e-09)
(-7.18194e-10 -1.89891e-09 1.40525e-09)
(1.19223e-10 -7.17282e-12 4.82986e-11)
(9.62446e-11 -2.57524e-10 2.25349e-10)
(1.12716e-10 -5.15794e-10 4.4116e-10)
(1.36097e-10 -7.39748e-10 6.61711e-10)
(1.35463e-10 -9.22875e-10 8.67265e-10)
(5.95544e-11 -1.05689e-09 1.03569e-09)
(-1.67135e-10 -1.228e-09 1.12917e-09)
(-6.26115e-10 -1.75896e-09 1.10866e-09)
(1.33157e-10 -2.6882e-11 5.26868e-11)
(1.18499e-10 -2.74886e-10 1.98203e-10)
(1.34738e-10 -5.30079e-10 3.65964e-10)
(1.53644e-10 -7.42413e-10 5.36318e-10)
(1.47368e-10 -9.02665e-10 6.90686e-10)
(6.73938e-11 -1.00939e-09 8.0785e-10)
(-1.57954e-10 -1.15986e-09 8.63324e-10)
(-6.02602e-10 -1.67014e-09 8.42096e-10)
(1.35403e-10 -3.12116e-11 4.37866e-11)
(1.20033e-10 -2.73131e-10 1.51251e-10)
(1.33276e-10 -5.21708e-10 2.69961e-10)
(1.48125e-10 -7.24689e-10 3.88468e-10)
(1.37765e-10 -8.72548e-10 4.93348e-10)
(5.55205e-11 -9.68424e-10 5.69502e-10)
(-1.67793e-10 -1.11349e-09 6.02726e-10)
(-6.02048e-10 -1.61329e-09 5.87249e-10)
(1.35007e-10 -3.13087e-11 2.81658e-11)
(1.17728e-10 -2.67049e-10 9.36193e-11)
(1.28293e-10 -5.09088e-10 1.64028e-10)
(1.40353e-10 -7.05529e-10 2.33257e-10)
(1.27589e-10 -8.47436e-10 2.93542e-10)
(4.43416e-11 -9.39929e-10 3.36346e-10)
(-1.7726e-10 -1.08445e-09 3.54371e-10)
(-6.04866e-10 -1.57876e-09 3.45264e-10)
(1.34555e-10 -3.0852e-11 9.65608e-12)
(1.16251e-10 -2.62904e-10 3.15871e-11)
(1.25443e-10 -5.01106e-10 5.48803e-11)
(1.36145e-10 -6.9421e-10 7.75939e-11)
(1.22307e-10 -8.33755e-10 9.72153e-11)
(3.87113e-11 -9.25464e-10 1.11021e-10)
(-1.81955e-10 -1.07033e-09 1.16762e-10)
(-6.06317e-10 -1.56229e-09 1.13769e-10)
(1.37208e-09 -2.42738e-09 3.00978e-09)
(1.00489e-09 -2.14163e-09 1.96264e-09)
(7.61116e-10 -1.95933e-09 1.43391e-09)
(6.73468e-10 -1.83202e-09 1.10354e-09)
(6.60908e-10 -1.74376e-09 8.26534e-10)
(6.69094e-10 -1.68488e-09 5.73436e-10)
(6.77255e-10 -1.6486e-09 3.36909e-10)
(6.81172e-10 -1.63123e-09 1.11064e-10)
(2.95836e-10 -2.20641e-09 2.88344e-09)
(2.00806e-10 -1.86779e-09 2.02108e-09)
(1.20637e-10 -1.70049e-09 1.5322e-09)
(9.47899e-11 -1.60096e-09 1.16797e-09)
(9.84524e-11 -1.53538e-09 8.56149e-10)
(1.08645e-10 -1.4904e-09 5.84187e-10)
(1.16284e-10 -1.46123e-09 3.40114e-10)
(1.1989e-10 -1.44674e-09 1.11715e-10)
(-4.47435e-10 -2.18109e-09 2.86809e-09)
(-3.24024e-10 -1.84461e-09 2.01079e-09)
(-2.22985e-10 -1.67843e-09 1.52404e-09)
(-1.81457e-10 -1.57964e-09 1.16165e-09)
(-1.73366e-10 -1.51459e-09 8.51498e-10)
(-1.75182e-10 -1.46996e-09 5.81023e-10)
(-1.77458e-10 -1.44103e-09 3.38282e-10)
(-1.78453e-10 -1.42665e-09 1.11116e-10)
(-1.49505e-09 -2.35156e-09 2.96294e-09)
(-1.10404e-09 -2.06963e-09 1.93127e-09)
(-8.40361e-10 -1.88971e-09 1.40913e-09)
(-7.36812e-10 -1.76421e-09 1.08438e-09)
(-7.12203e-10 -1.67731e-09 8.12475e-10)
(-7.118e-10 -1.61942e-09 5.63886e-10)
(-7.14458e-10 -1.58379e-09 3.31385e-10)
(-7.15692e-10 -1.56676e-09 1.09258e-10)
)
;
    }
    symmetry
    {
        type            symmetry;
    }
    bottom
    {
        type            calculated;
        value           uniform (0 0 0);
    }
}


// ************************************************************************* //
