/*--------------------------------*- C++ -*----------------------------------*\
| =========                 |                                                 |
| \\      /  F ield         | OpenFOAM: The Open Source CFD Toolbox           |
|  \\    /   O peration     | Version:  v1912                                 |
|   \\  /    A nd           | Website:  www.openfoam.com                      |
|    \\/     M anipulation  |                                                 |
\*---------------------------------------------------------------------------*/
FoamFile
{
    version     2.0;
    format      ascii;
    class       volScalarField;
    location    "0.4/solid";
    object      epsilonEq;
}
// * * * * * * * * * * * * * * * * * * * * * * * * * * * * * * * * * * * * * //

dimensions      [0 0 0 0 0 0 0];


internalField   nonuniform List<scalar> 
256
(
2.49891e-06
1.87158e-06
1.85191e-06
2.4149e-06
1.59536e-06
1.45036e-06
1.43144e-06
1.5235e-06
1.63069e-06
1.42299e-06
1.40396e-06
1.55967e-06
1.71572e-06
1.45392e-06
1.43503e-06
1.64524e-06
1.79487e-06
1.51173e-06
1.49288e-06
1.72455e-06
1.85395e-06
1.58283e-06
1.5639e-06
1.78356e-06
1.63956e-06
1.54332e-06
1.52604e-06
1.57455e-06
1.53528e-07
1.71565e-06
1.70216e-06
1.68511e-07
1.63468e-06
3.53792e-07
3.453e-07
1.54481e-06
1.29332e-06
3.37483e-07
3.28756e-07
1.20986e-06
1.2905e-06
2.67401e-07
2.60095e-07
1.20747e-06
1.3207e-06
2.05089e-07
1.99035e-07
1.23695e-06
1.37246e-06
1.80068e-07
1.74809e-07
1.28745e-06
1.44475e-06
1.78501e-07
1.73601e-07
1.3586e-06
1.4145e-06
4.70148e-08
5.28853e-08
1.33158e-06
1.6391e-06
1.54431e-06
1.52734e-06
1.57497e-06
1.43166e-06
1.95599e-07
1.90589e-07
1.34698e-06
1.25023e-06
2.2371e-07
2.14341e-07
1.16857e-06
1.25821e-06
1.84334e-07
1.74756e-07
1.17495e-06
1.2863e-06
1.34355e-07
1.24633e-07
1.20131e-06
1.33788e-06
1.12409e-07
1.02508e-07
1.25088e-06
1.41879e-06
1.20259e-07
1.10491e-07
1.32993e-06
1.44369e-06
1.72429e-07
1.68776e-07
1.35801e-06
1.8539e-06
1.58504e-06
1.56673e-06
1.78572e-06
1.30223e-06
1.69213e-07
1.65092e-07
1.22301e-06
1.15917e-06
1.89096e-07
1.81222e-07
1.08209e-06
1.17345e-06
1.58457e-07
1.49876e-07
1.09368e-06
1.20247e-06
1.17412e-07
1.08491e-07
1.12023e-06
1.25398e-06
9.84038e-08
8.90301e-08
1.16919e-06
1.33566e-06
1.06555e-07
9.69176e-08
1.24853e-06
1.36969e-06
1.62639e-07
1.59497e-07
1.28546e-06
1.80037e-06
1.51751e-06
1.49965e-06
1.73401e-06
1.22718e-06
1.51153e-07
1.46458e-07
1.1517e-06
1.09508e-06
1.70005e-07
1.62816e-07
1.02127e-06
1.11333e-06
1.45385e-07
1.37586e-07
1.03638e-06
1.14433e-06
1.10134e-07
1.01849e-07
1.06444e-06
1.19689e-06
9.42191e-08
8.52447e-08
1.11407e-06
1.27895e-06
1.02992e-07
9.35773e-08
1.19348e-06
1.31517e-06
1.5742e-07
1.54847e-07
1.23248e-06
1.74044e-06
1.46434e-06
1.44688e-06
1.67587e-06
1.18372e-06
1.39625e-07
1.34307e-07
1.11066e-06
1.05599e-06
1.59124e-07
1.52123e-07
9.84222e-07
1.07646e-06
1.3833e-07
1.30855e-07
1.00137e-06
1.1091e-06
1.0624e-07
9.81805e-08
1.03079e-06
1.16268e-06
9.20655e-08
8.31376e-08
1.0812e-06
1.24502e-06
1.02224e-07
9.29061e-08
1.1607e-06
1.28203e-06
1.57965e-07
1.55781e-07
1.20044e-06
1.7002e-06
1.4298e-06
1.41261e-06
1.63696e-06
1.15932e-06
1.32665e-07
1.26906e-07
1.0877e-06
1.03376e-06
1.52738e-07
1.45763e-07
9.63203e-07
1.05534e-06
1.33896e-07
1.26512e-07
9.81372e-07
1.08899e-06
1.035e-07
9.54866e-08
1.01166e-06
1.14321e-06
9.02443e-08
8.12886e-08
1.06257e-06
1.22569e-06
1.01591e-07
9.23455e-08
1.14209e-06
1.26309e-06
1.59304e-07
1.57385e-07
1.18222e-06
1.67663e-06
1.40922e-06
1.3922e-06
1.61425e-06
1.14824e-06
1.29301e-07
1.23316e-07
1.07731e-06
1.02364e-06
1.49643e-07
1.42661e-07
9.53656e-07
1.04568e-06
1.31594e-07
1.24225e-07
9.72246e-07
1.07979e-06
1.01954e-07
9.39394e-08
1.00293e-06
1.13429e-06
8.91315e-08
8.01579e-08
1.05406e-06
1.21682e-06
1.01092e-07
9.18908e-08
1.13357e-06
1.2544e-06
1.60056e-07
1.58275e-07
1.17389e-06
1.66584e-06
1.39962e-06
1.38269e-06
1.6039e-06
)
;

boundaryField
{
    interface
    {
        type            calculated;
        value           nonuniform List<scalar> 
192
(
3.32684e-06
2.34839e-06
2.4035e-06
2.51855e-06
2.6335e-06
2.74286e-06
2.6089e-06
1.4072e-06
2.73809e-06
2.29232e-06
2.31085e-06
2.38444e-06
2.48993e-06
2.63545e-06
2.70021e-06
2.60898e-06
2.44121e-06
2.17416e-06
2.20315e-06
2.27165e-06
2.37521e-06
2.52796e-06
2.63605e-06
2.74439e-06
2.23431e-06
2.01557e-06
2.05217e-06
2.12056e-06
2.22301e-06
2.37572e-06
2.4923e-06
2.64247e-06
2.11157e-06
1.90778e-06
1.94858e-06
2.01844e-06
2.12134e-06
2.27385e-06
2.39227e-06
2.55123e-06
2.03941e-06
1.84183e-06
1.88474e-06
1.95593e-06
2.05951e-06
2.21182e-06
2.33033e-06
2.49113e-06
1.99863e-06
1.80414e-06
1.84804e-06
1.92008e-06
2.02412e-06
2.17622e-06
2.29441e-06
2.45572e-06
1.98009e-06
1.78696e-06
1.83126e-06
1.90368e-06
2.00793e-06
2.15989e-06
2.27786e-06
2.43939e-06
3.43133e-06
2.46376e-06
2.51978e-06
2.63672e-06
2.75369e-06
2.8655e-06
2.74417e-06
1.62906e-06
3.10241e-06
2.56485e-06
2.55993e-06
2.63369e-06
2.74408e-06
2.88918e-06
2.94802e-06
2.81482e-06
3.0683e-06
2.53084e-06
2.52491e-06
2.59831e-06
2.70848e-06
2.85322e-06
2.91296e-06
2.78844e-06
3.32607e-06
2.37231e-06
2.42718e-06
2.54354e-06
2.6601e-06
2.77127e-06
2.65409e-06
1.59334e-06
3.19919e-06
2.2277e-06
2.28236e-06
2.39698e-06
2.51137e-06
2.62041e-06
2.49168e-06
1.3326e-06
2.59096e-06
2.15064e-06
2.16768e-06
2.23889e-06
2.34171e-06
2.4849e-06
2.55282e-06
2.49211e-06
2.29966e-06
2.03476e-06
2.06071e-06
2.12595e-06
2.22594e-06
2.37517e-06
2.4852e-06
2.62297e-06
2.09959e-06
1.88186e-06
1.91449e-06
1.97894e-06
2.0772e-06
2.22567e-06
2.34325e-06
2.52227e-06
1.98174e-06
1.77829e-06
1.81466e-06
1.88011e-06
1.9784e-06
2.1262e-06
2.24507e-06
2.43247e-06
1.91272e-06
1.71505e-06
1.75329e-06
1.81979e-06
1.91847e-06
2.06577e-06
2.18438e-06
2.3734e-06
1.87382e-06
1.67897e-06
1.71809e-06
1.78527e-06
1.88424e-06
2.03113e-06
2.14924e-06
2.33868e-06
1.85616e-06
1.66255e-06
1.70201e-06
1.76951e-06
1.8686e-06
2.01527e-06
2.13306e-06
2.32269e-06
1.63022e-06
2.74469e-06
2.86719e-06
2.76302e-06
2.67066e-06
2.60954e-06
2.57342e-06
2.55673e-06
2.81567e-06
2.94992e-06
2.89362e-06
2.75498e-06
2.65618e-06
2.59283e-06
2.55511e-06
2.53748e-06
2.78919e-06
2.91494e-06
2.85787e-06
2.71973e-06
2.62129e-06
2.55817e-06
2.52058e-06
2.50302e-06
1.59393e-06
2.6549e-06
2.77433e-06
2.67213e-06
2.58145e-06
2.52156e-06
2.48625e-06
2.46996e-06
)
;
    }
    symmetry
    {
        type            symmetry;
    }
    bottom
    {
        type            calculated;
        value           nonuniform List<scalar> 
32
(
3.40432e-06
1.98747e-06
1.66395e-06
1.51446e-06
1.43289e-06
1.38542e-06
1.35859e-06
1.34638e-06
2.26579e-06
4.40093e-07
2.16924e-07
1.93984e-07
1.80693e-07
1.70846e-07
1.64487e-07
1.61372e-07
2.24508e-06
4.28952e-07
2.07705e-07
1.85457e-07
1.71656e-07
1.61344e-07
1.54679e-07
1.51409e-07
3.30994e-06
1.89112e-06
1.574e-06
1.4313e-06
1.35448e-06
1.3101e-06
1.28511e-06
1.27377e-06
)
;
    }
}


// ************************************************************************* //
