/*--------------------------------*- C++ -*----------------------------------*\
| =========                 |                                                 |
| \\      /  F ield         | OpenFOAM: The Open Source CFD Toolbox           |
|  \\    /   O peration     | Version:  v1912                                 |
|   \\  /    A nd           | Website:  www.openfoam.com                      |
|    \\/     M anipulation  |                                                 |
\*---------------------------------------------------------------------------*/
FoamFile
{
    version     2.0;
    format      ascii;
    class       pointVectorField;
    location    "0.4/solid";
    object      pointD;
}
// * * * * * * * * * * * * * * * * * * * * * * * * * * * * * * * * * * * * * //

dimensions      [0 1 0 0 0 0 0];


internalField   nonuniform List<vector> 
405
(
(3.09116e-08 2.75281e-08 3.21154e-08)
(4.676e-09 1.77171e-08 3.77461e-08)
(1.75196e-10 1.44051e-08 3.59126e-08)
(-4.25876e-09 1.75924e-08 3.73314e-08)
(-2.95638e-08 2.68385e-08 3.18921e-08)
(5.04657e-08 3.41302e-08 5.39666e-08)
(1.26912e-08 3.00084e-08 8.0565e-08)
(8.02691e-10 2.48984e-08 7.69663e-08)
(-1.09371e-08 2.94762e-08 7.9962e-08)
(-4.75508e-08 3.26774e-08 5.40322e-08)
(5.54553e-08 2.17884e-08 6.28103e-08)
(1.66411e-08 2.04401e-08 8.88344e-08)
(1.77309e-09 1.7828e-08 8.51816e-08)
(-1.29376e-08 1.93594e-08 8.86068e-08)
(-5.06531e-08 1.95134e-08 6.35538e-08)
(5.67746e-08 1.3617e-08 6.81037e-08)
(1.73969e-08 1.34847e-08 9.46073e-08)
(2.87064e-09 1.20868e-08 9.07642e-08)
(-1.1508e-08 1.19013e-08 9.46393e-08)
(-4.98467e-08 1.05649e-08 6.93284e-08)
(5.82056e-08 8.55636e-09 7.26451e-08)
(1.8007e-08 8.40859e-09 9.9999e-08)
(4.09481e-09 7.10978e-09 9.6077e-08)
(-9.6734e-09 6.3721e-09 1.00229e-07)
(-4.88731e-08 4.78377e-09 7.42319e-08)
(6.12152e-08 4.74016e-09 7.78054e-08)
(1.95013e-08 4.10091e-09 1.06469e-07)
(5.45269e-09 2.43392e-09 1.02576e-07)
(-8.4547e-09 1.64167e-09 1.06857e-07)
(-4.92062e-08 2.87922e-10 7.96816e-08)
(6.6673e-08 -4.38401e-11 8.45123e-08)
(2.23987e-08 -1.06008e-09 1.15121e-07)
(6.94739e-09 -2.96222e-09 1.11421e-07)
(-8.37971e-09 -3.93277e-09 1.15645e-07)
(-5.17591e-08 -5.15497e-09 8.66352e-08)
(7.53149e-08 -1.8969e-08 9.33614e-08)
(2.68986e-08 -1.93065e-08 1.27035e-07)
(8.55885e-09 -2.03435e-08 1.23993e-07)
(-9.69608e-09 -2.2493e-08 1.27716e-07)
(-5.73537e-08 -2.45857e-08 9.572e-08)
(6.88199e-08 -6.04369e-08 8.63321e-08)
(2.97109e-08 -7.18479e-08 9.76157e-08)
(9.56779e-09 -7.10216e-08 9.60852e-08)
(-1.05108e-08 -7.45948e-08 9.89431e-08)
(-4.92711e-08 -6.54272e-08 8.89314e-08)
(3.43918e-08 1.5932e-08 4.33559e-09)
(0 0 0)
(0 0 0)
(0 0 0)
(-3.28591e-08 1.51709e-08 4.59575e-09)
(7.16886e-08 2.6123e-08 1.3671e-08)
(1.1165e-08 1.55648e-08 1.52448e-08)
(5.71913e-10 1.10248e-08 1.51288e-08)
(-9.853e-09 1.48084e-08 1.57372e-08)
(-6.78751e-08 2.41627e-08 1.4609e-08)
(7.55429e-08 1.63541e-08 2.14272e-08)
(1.46079e-08 1.28312e-08 2.34931e-08)
(1.35746e-09 1.03521e-08 2.35117e-08)
(-1.17106e-08 1.15574e-08 2.43624e-08)
(-7.0091e-08 1.35292e-08 2.30941e-08)
(7.72162e-08 9.93983e-09 2.60167e-08)
(1.52292e-08 8.74383e-09 2.8197e-08)
(2.31467e-09 7.36019e-09 2.83064e-08)
(-1.04244e-08 7.01575e-09 2.93431e-08)
(-6.98177e-08 6.28814e-09 2.82285e-08)
(7.94187e-08 5.80431e-09 2.9499e-08)
(1.57763e-08 4.49373e-09 3.17233e-08)
(3.43078e-09 3.18508e-09 3.18876e-08)
(-8.74027e-09 2.3489e-09 3.30785e-08)
(-6.97465e-08 1.37538e-09 3.2127e-08)
(8.36832e-08 2.54976e-09 3.30212e-08)
(1.72242e-08 1.45695e-10 3.52726e-08)
(4.70175e-09 -1.54279e-09 3.54817e-08)
(-7.64602e-09 -2.39903e-09 3.67955e-08)
(-7.14357e-08 -2.61674e-09 3.59832e-08)
(9.10735e-08 -1.50735e-09 3.72176e-08)
(2.00981e-08 -5.22366e-09 3.94731e-08)
(6.12347e-09 -7.16831e-09 3.97306e-08)
(-7.69017e-09 -8.16112e-09 4.1136e-08)
(-7.60196e-08 -7.37606e-09 4.04573e-08)
(1.02721e-07 -1.86264e-08 4.19308e-08)
(2.45809e-08 -2.16248e-08 4.41957e-08)
(7.676e-09 -2.26696e-08 4.45299e-08)
(-9.10708e-09 -2.48328e-08 4.59607e-08)
(-8.47693e-08 -2.50066e-08 4.53806e-08)
(7.58941e-08 -7.02416e-08 4.52811e-08)
(2.76522e-08 -1.0448e-07 4.61489e-08)
(9.30274e-09 -1.02162e-07 4.64988e-08)
(-8.95522e-09 -1.06605e-07 4.79298e-08)
(-5.67989e-08 -7.51511e-08 4.83863e-08)
(2.91761e-08 1.01157e-08 -9.07042e-11)
(0 0 0)
(0 0 0)
(0 0 0)
(-2.77029e-08 9.47685e-09 1.37848e-10)
(6.09246e-08 1.60741e-08 2.63689e-09)
(8.47547e-09 7.4722e-09 4.85656e-09)
(3.86121e-10 3.54869e-09 5.47993e-09)
(-7.51461e-09 6.74931e-09 5.29282e-09)
(-5.73984e-08 1.4337e-08 3.43386e-09)
(6.42073e-08 9.24844e-09 8.07011e-09)
(1.11612e-08 6.30196e-09 1.09155e-08)
(1.01776e-09 4.08595e-09 1.18422e-08)
(-8.91928e-09 5.04901e-09 1.16671e-08)
(-5.93473e-08 6.60945e-09 9.46972e-09)
(6.55032e-08 4.93196e-09 1.25923e-08)
(1.16017e-08 3.88547e-09 1.55899e-08)
(1.84799e-09 2.57426e-09 1.66625e-08)
(-7.70424e-09 2.1788e-09 1.65799e-08)
(-5.89386e-08 1.43957e-09 1.44632e-08)
(6.74884e-08 1.96626e-09 1.60691e-08)
(1.20615e-08 7.12206e-10 1.9132e-08)
(2.86013e-09 -5.76004e-10 2.02881e-08)
(-6.13762e-09 -1.40671e-09 2.03103e-08)
(-5.88369e-08 -2.32177e-09 1.83179e-08)
(7.16987e-08 -4.7297e-10 1.91902e-08)
(1.34521e-08 -2.86737e-09 2.22884e-08)
(4.04607e-09 -4.5468e-09 2.35008e-08)
(-5.1523e-09 -5.3808e-09 2.36205e-08)
(-6.06103e-08 -5.51064e-09 2.17482e-08)
(7.9337e-08 -3.45823e-09 2.22779e-08)
(1.63247e-08 -7.21285e-09 2.53672e-08)
(5.39825e-09 -9.14767e-09 2.66188e-08)
(-5.331e-09 -1.01086e-08 2.68213e-08)
(-6.55418e-08 -9.19786e-09 2.50834e-08)
(9.18553e-08 -1.81691e-08 2.47084e-08)
(2.08605e-08 -2.11754e-08 2.77578e-08)
(6.8948e-09 -2.21664e-08 2.90339e-08)
(-6.91297e-09 -2.43187e-08 2.92823e-08)
(-7.52504e-08 -2.43985e-08 2.76754e-08)
(6.80366e-08 -6.56285e-08 2.63068e-08)
(2.39335e-08 -9.68341e-08 2.78885e-08)
(8.47666e-09 -9.38872e-08 2.91448e-08)
(-6.85577e-09 -9.8841e-08 2.93887e-08)
(-5.04315e-08 -7.03669e-08 2.89387e-08)
(2.58808e-08 8.14246e-09 4.06126e-11)
(0 0 0)
(0 0 0)
(0 0 0)
(-2.45127e-08 7.61874e-09 2.0633e-10)
(5.41758e-08 1.20348e-08 1.95715e-09)
(6.86617e-09 4.60126e-09 3.33342e-09)
(2.61496e-10 1.08807e-09 3.86878e-09)
(-6.16131e-09 3.95316e-09 3.65319e-09)
(-5.09751e-08 1.05459e-08 2.54409e-09)
(5.72676e-08 5.25295e-09 6.0362e-09)
(9.08812e-09 2.66174e-09 7.82304e-09)
(7.7225e-10 6.59284e-10 8.61882e-09)
(-7.34032e-09 1.50254e-09 8.38489e-09)
(-5.2957e-08 2.87639e-09 7.08475e-09)
(5.85036e-08 1.34368e-09 1.01002e-08)
(9.44115e-09 3.80097e-10 1.19743e-08)
(1.49417e-09 -8.49129e-10 1.28926e-08)
(-6.25105e-09 -1.23206e-09 1.2727e-08)
(-5.2692e-08 -1.90079e-09 1.15278e-08)
(6.04258e-08 -9.99457e-10 1.3487e-08)
(9.86071e-09 -2.2268e-09 1.53928e-08)
(2.41351e-09 -3.47805e-09 1.63816e-08)
(-4.82721e-09 -4.2551e-09 1.63032e-08)
(-5.27e-08 -5.06238e-09 1.52342e-08)
(6.46e-08 -2.65761e-09 1.63426e-08)
(1.12178e-08 -5.05209e-09 1.82691e-08)
(3.52198e-09 -6.70707e-09 1.93061e-08)
(-3.96103e-09 -7.47815e-09 1.93111e-08)
(-5.45747e-08 -7.49134e-09 1.8358e-08)
(7.23212e-08 -4.70949e-09 1.87661e-08)
(1.40918e-08 -8.4894e-09 2.06894e-08)
(4.81032e-09 -1.04037e-08 2.17578e-08)
(-4.26672e-09 -1.12981e-08 2.1833e-08)
(-5.9691e-08 -1.02594e-08 2.09934e-08)
(8.51303e-08 -1.81599e-08 2.0397e-08)
(1.86507e-08 -2.11949e-08 2.23077e-08)
(6.25357e-09 -2.21662e-08 2.33926e-08)
(-5.97659e-09 -2.42495e-08 2.35031e-08)
(-6.97614e-08 -2.42063e-08 2.27539e-08)
(6.32589e-08 -6.31097e-08 2.14321e-08)
(2.17353e-08 -9.2424e-08 2.27225e-08)
(7.78851e-09 -8.93183e-08 2.38074e-08)
(-6.0245e-09 -9.43498e-08 2.38858e-08)
(-4.69648e-08 -6.76972e-08 2.35011e-08)
(2.40257e-08 7.41199e-09 2.81043e-10)
(0 0 0)
(0 0 0)
(0 0 0)
(-2.27442e-08 6.97441e-09 3.97887e-10)
(5.03117e-08 1.04335e-08 1.95463e-09)
(6.11916e-09 3.58498e-09 2.65294e-09)
(1.83527e-10 3.04828e-10 2.97591e-09)
(-5.58729e-09 3.00523e-09 2.88189e-09)
(-4.73693e-08 9.14552e-09 2.37285e-09)
(5.32631e-08 3.3328e-09 5.03649e-09)
(8.11633e-09 9.20531e-10 5.95554e-09)
(6.06511e-10 -9.4691e-10 6.44708e-09)
(-6.71608e-09 -1.40457e-10 6.36286e-09)
(-4.93786e-08 1.19411e-09 5.79327e-09)
(5.45326e-08 -7.81411e-10 8.29654e-09)
(8.44091e-09 -1.71127e-09 9.25654e-09)
(1.24268e-09 -2.87552e-09 9.83253e-09)
(-5.76656e-09 -3.21742e-09 9.80912e-09)
(-4.93074e-08 -3.78376e-09 9.34226e-09)
(5.64696e-08 -3.00891e-09 1.11926e-08)
(8.84945e-09 -4.22541e-09 1.21634e-08)
(2.0847e-09 -5.43779e-09 1.27906e-08)
(-4.48417e-09 -6.15003e-09 1.28401e-08)
(-4.94751e-08 -6.84309e-09 1.24917e-08)
(6.06296e-08 -4.29055e-09 1.36052e-08)
(1.01839e-08 -6.6777e-09 1.45899e-08)
(3.12654e-09 -8.30193e-09 1.52545e-08)
(-3.72712e-09 -9.00563e-09 1.53722e-08)
(-5.1458e-08 -8.91529e-09 1.51222e-08)
(6.83511e-08 -5.88866e-09 1.55219e-08)
(1.30419e-08 -9.668e-09 1.65169e-08)
(4.3587e-09 -1.15569e-08 1.72077e-08)
(-4.12757e-09 -1.23849e-08 1.73802e-08)
(-5.66707e-08 -1.12498e-08 1.7212e-08)
(8.12085e-08 -1.87612e-08 1.6831e-08)
(1.75901e-08 -2.18097e-08 1.78365e-08)
(5.75419e-09 -2.27694e-08 1.85423e-08)
(-5.92044e-09 -2.47807e-08 1.87396e-08)
(-6.68578e-08 -2.46384e-08 1.86258e-08)
(6.0609e-08 -6.21144e-08 1.76847e-08)
(2.06741e-08 -9.01912e-08 1.85492e-08)
(7.24733e-09 -8.70682e-08 1.92579e-08)
(-6.05087e-09 -9.20458e-08 1.94235e-08)
(-4.5384e-08 -6.65688e-08 1.92535e-08)
(2.29944e-08 7.06566e-09 3.22777e-10)
(0 0 0)
(0 0 0)
(0 0 0)
(-2.17712e-08 6.68752e-09 4.01763e-10)
(4.81609e-08 9.69631e-09 1.6747e-09)
(5.79116e-09 3.13264e-09 2.01285e-09)
(1.35027e-10 -1.94426e-11 2.18767e-09)
(-5.37106e-09 2.60518e-09 2.17061e-09)
(-4.53934e-08 8.5534e-09 1.95932e-09)
(5.10375e-08 2.41138e-09 3.91177e-09)
(7.68636e-09 8.6431e-11 4.36106e-09)
(4.97713e-10 -1.7012e-09 4.63462e-09)
(-6.51874e-09 -8.95016e-10 4.6437e-09)
(-4.74458e-08 4.56102e-10 4.43154e-09)
(5.23436e-08 -1.9437e-09 6.29393e-09)
(8.00082e-09 -2.85897e-09 6.76388e-09)
(1.07073e-09 -3.97778e-09 7.09156e-09)
(-5.68303e-09 -4.2752e-09 7.15056e-09)
(-4.75295e-08 -4.74939e-09 7.02032e-09)
(5.4307e-08 -4.27348e-09 8.48947e-09)
(8.40408e-09 -5.48209e-09 8.96516e-09)
(1.8529e-09 -6.66131e-09 9.32828e-09)
(-4.51333e-09 -7.31644e-09 9.44285e-09)
(-4.78362e-08 -7.91547e-09 9.40236e-09)
(5.84575e-08 -5.49525e-09 1.03415e-08)
(9.7185e-09 -7.86789e-09 1.08296e-08)
(2.8413e-09 -9.4623e-09 1.12208e-08)
(-3.84191e-09 -1.01103e-08 1.1386e-08)
(-4.99091e-08 -9.94207e-09 1.14184e-08)
(6.6146e-08 -6.97483e-09 1.1806e-08)
(1.25506e-08 -1.0737e-08 1.23106e-08)
(4.0273e-09 -1.25991e-08 1.27234e-08)
(-4.30771e-09 -1.33758e-08 1.29277e-08)
(-5.51705e-08 -1.21767e-08 1.30148e-08)
(7.89641e-08 -1.95917e-08 1.28679e-08)
(1.70731e-08 -2.26329e-08 1.33907e-08)
(5.38324e-09 -2.35767e-08 1.38162e-08)
(-6.15258e-09 -2.55353e-08 1.40375e-08)
(-6.53798e-08 -2.53296e-08 1.41571e-08)
(5.91332e-08 -6.19433e-08 1.35865e-08)
(2.01429e-08 -8.9239e-08 1.41454e-08)
(6.84226e-09 -8.61236e-08 1.45693e-08)
(-6.33701e-09 -9.1035e-08 1.47696e-08)
(-4.47166e-08 -6.62893e-08 1.47119e-08)
(2.24126e-08 6.87887e-09 2.52268e-10)
(0 0 0)
(0 0 0)
(0 0 0)
(-2.12252e-08 6.53877e-09 3.01035e-10)
(4.69532e-08 9.31187e-09 1.1901e-09)
(5.63672e-09 2.89242e-09 1.35422e-09)
(1.05813e-10 -1.89437e-10 1.44395e-09)
(-5.28501e-09 2.4007e-09 1.45321e-09)
(-4.4294e-08 8.2646e-09 1.36652e-09)
(4.97929e-08 1.94409e-09 2.65288e-09)
(7.48271e-09 -3.35937e-10 2.87226e-09)
(4.29758e-10 -2.07737e-09 3.01626e-09)
(-6.46135e-09 -1.26145e-09 3.05034e-09)
(-4.6386e-08 1.14877e-10 2.97701e-09)
(5.11199e-08 -2.56718e-09 4.1969e-09)
(7.79e-09 -3.47314e-09 4.4283e-09)
(9.60128e-10 -4.56213e-09 4.60467e-09)
(-5.70226e-09 -4.82433e-09 4.67328e-09)
(-4.6571e-08 -5.23296e-09 4.65348e-09)
(5.30988e-08 -5.03195e-09 5.64523e-09)
(8.18632e-09 -6.23212e-09 5.882e-09)
(1.70023e-09 -7.38663e-09 6.08118e-09)
(-4.60855e-09 -7.99985e-09 6.18646e-09)
(-4.69724e-08 -8.53372e-09 6.22387e-09)
(5.72378e-08 -6.32432e-09 6.88839e-09)
(9.48278e-09 -8.68129e-09 7.13582e-09)
(2.64988e-09 -1.02517e-08 7.35414e-09)
(-3.99582e-09 -1.08601e-08 7.49235e-09)
(-4.91064e-08 -1.06396e-08 7.57619e-09)
(6.48885e-08 -7.82974e-09 7.88917e-09)
(1.22906e-08 -1.15717e-08 8.15136e-09)
(3.80171e-09 -1.34104e-08 8.38524e-09)
(-4.50483e-09 -1.41526e-08 8.54838e-09)
(-5.43916e-08 -1.29135e-08 8.66574e-09)
(7.7655e-08 -2.0344e-08 8.65282e-09)
(1.67882e-08 -2.33684e-08 8.93035e-09)
(5.12819e-09 -2.42937e-08 9.17327e-09)
(-6.38302e-09 -2.62204e-08 9.34715e-09)
(-6.45974e-08 -2.59792e-08 9.48407e-09)
(5.82756e-08 -6.20896e-08 9.18393e-09)
(1.98394e-08 -8.88987e-08 9.52928e-09)
(6.56207e-09 -8.5783e-08 9.76789e-09)
(-6.59931e-09 -9.06517e-08 9.93073e-09)
(-4.44181e-08 -6.63562e-08 9.90948e-09)
(2.21093e-08 6.78282e-09 1.34299e-10)
(0 0 0)
(0 0 0)
(0 0 0)
(-2.0941e-08 6.46376e-09 1.57568e-10)
(4.63248e-08 9.11655e-09 6.114e-10)
(5.56157e-09 2.76871e-09 6.80648e-10)
(9.02454e-11 -2.77364e-10 7.1908e-10)
(-5.2466e-09 2.29759e-09 7.28361e-10)
(-4.37243e-08 8.12322e-09 6.95741e-10)
(4.91454e-08 1.71319e-09 1.33484e-09)
(7.3827e-09 -5.43731e-10 1.42785e-09)
(3.92661e-10 -2.26072e-09 1.49056e-09)
(-6.44142e-09 -1.43649e-09 1.51388e-09)
(-4.58399e-08 -4.30835e-11 1.49032e-09)
(5.0481e-08 -2.8799e-09 2.09217e-09)
(7.68422e-09 -3.77936e-09 2.19129e-09)
(8.98553e-10 -4.85123e-09 2.2693e-09)
(-5.72469e-09 -5.09185e-09 2.31e-09)
(-4.60797e-08 -5.46302e-09 2.31221e-09)
(5.24652e-08 -5.43904e-09 2.80773e-09)
(8.07399e-09 -6.63227e-09 2.91048e-09)
(1.61383e-09 -7.77156e-09 2.99981e-09)
(-4.6734e-09 -8.35985e-09 3.05853e-09)
(-4.65334e-08 -8.85658e-09 3.08801e-09)
(5.65943e-08 -6.80905e-09 3.42974e-09)
(9.35779e-09 -9.15454e-09 3.53876e-09)
(2.54009e-09 -1.07096e-08 3.63788e-09)
(-4.09423e-09 -1.12947e-08 3.71271e-09)
(-4.87012e-08 -1.10444e-08 3.76446e-09)
(6.42181e-08 -8.36563e-09 3.93906e-09)
(1.21493e-08 -1.20929e-08 4.0564e-09)
(3.671e-09 -1.39161e-08 4.16367e-09)
(-4.62832e-09 -1.46386e-08 4.2506e-09)
(-5.39975e-08 -1.33774e-08 4.3184e-09)
(7.69485e-08 -2.08459e-08 4.33977e-09)
(1.66307e-08 -2.38557e-08 4.46531e-09)
(4.97938e-09 -2.47669e-08 4.57722e-09)
(-6.52609e-09 -2.66772e-08 4.66943e-09)
(-6.41977e-08 -2.64185e-08 4.74678e-09)
(5.78081e-08 -6.22677e-08 4.62282e-09)
(1.96675e-08 -8.88069e-08 4.79108e-09)
(6.39789e-09 -8.56862e-08 4.89966e-09)
(-6.75899e-09 -9.05338e-08 4.98745e-09)
(-4.42779e-08 -6.64859e-08 4.9781e-09)
(1.74531e-08 7.19992e-09 0)
(1.99046e-09 2.1671e-09 0)
(-6.34439e-12 2.60559e-10 0)
(-1.94631e-09 2.03878e-09 0)
(-1.66109e-08 6.85615e-09 0)
(2.8476e-08 7.35545e-09 0)
(5.53822e-09 2.7302e-09 0)
(8.53679e-11 -3.04796e-10 0)
(-5.23483e-09 2.2658e-09 0)
(-2.6967e-08 6.51325e-09 0)
(3.1273e-08 1.26156e-09 0)
(7.35139e-09 -6.07246e-10 0)
(3.80889e-10 -2.31652e-09 0)
(-6.43556e-09 -1.48926e-09 0)
(-2.91014e-08 -2.65471e-10 0)
(3.20748e-08 -3.05525e-09 0)
(7.65061e-09 -3.87315e-09 0)
(8.78817e-10 -4.9394e-09 0)
(-5.7322e-09 -5.17284e-09 0)
(-2.88583e-08 -5.30539e-09 0)
(3.32506e-08 -5.81184e-09 0)
(8.03774e-09 -6.75853e-09 0)
(1.5859e-09 -7.89268e-09 0)
(-4.69441e-09 -8.47275e-09 0)
(-2.85587e-08 -8.78951e-09 0)
(3.6105e-08 -7.63189e-09 0)
(9.31697e-09 -9.30981e-09 0)
(2.50436e-09 -1.08597e-08 0)
(-4.12612e-09 -1.14371e-08 0)
(-2.95107e-08 -1.13281e-08 0)
(4.17733e-08 -9.81799e-09 0)
(1.21029e-08 -1.22691e-08 0)
(3.62823e-09 -1.40869e-08 0)
(-4.66849e-09 -1.4803e-08 0)
(-3.2902e-08 -1.42081e-08 0)
(5.13541e-08 -2.24185e-08 0)
(1.65788e-08 -2.40245e-08 0)
(4.9305e-09 -2.49304e-08 0)
(-6.57283e-09 -2.68357e-08 0)
(-3.99535e-08 -2.73073e-08 0)
(4.84062e-08 -5.31433e-08 0)
(1.94073e-08 -6.14059e-08 0)
(5.9823e-09 -5.98335e-08 0)
(-7.32665e-09 -6.3709e-08 0)
(-3.56304e-08 -5.73975e-08 0)
)
;

boundaryField
{
    interface
    {
        type            calculated;
    }
    symmetry
    {
        type            symmetry;
    }
    bottom
    {
        type            calculated;
    }
}


// ************************************************************************* //
