/*--------------------------------*- C++ -*----------------------------------*\
| =========                 |                                                 |
| \\      /  F ield         | OpenFOAM: The Open Source CFD Toolbox           |
|  \\    /   O peration     | Version:  v1912                                 |
|   \\  /    A nd           | Website:  www.openfoam.com                      |
|    \\/     M anipulation  |                                                 |
\*---------------------------------------------------------------------------*/
FoamFile
{
    version     2.0;
    format      ascii;
    class       volScalarField;
    location    "0.4/solid";
    object      sigmaEq;
}
// * * * * * * * * * * * * * * * * * * * * * * * * * * * * * * * * * * * * * //

dimensions      [1 -1 -2 0 0 0 0];


internalField   nonuniform List<scalar> 
256
(
576672
431902
427364
557286
368159
334698
330332
351576
376312
328383
323990
359923
395934
335519
331160
379672
414200
348861
344511
397972
427835
365268
360900
411591
378360
356151
352164
363357
35429.4
395920
392806
38887.1
377233
81644.4
79684.6
356496
298457
77880.7
75866.8
279199
297807
61707.9
60021.8
278647
304777
47328.3
45931.2
285449
316722
41554.1
40340.5
297103
333405
41192.5
40061.7
313522
326422
10849.6
12204.3
307287
378254
356379
352463
363453
330383
45138.3
43982
310842
288514
51625.5
49463.4
269670
290356
42538.7
40328.3
271142
296839
31005.1
28761.5
277226
308742
25940.6
23655.8
288664
327412
27752.1
25497.8
306907
333160
39791.3
38948.3
313386
427824
365778
361552
412089
300514
39049.2
38098.1
282234
267501
43637.6
41820.5
249714
270796
36566.9
34586.7
252387
277493
27095
25036.3
258514
289380
22708.6
20545.4
269813
308229
24589.6
22365.6
288123
316082
37532
36807
296644
415470
350195
346072
400155
283195
34881.4
33797.9
265778
252711
39231.9
37573
235677
256922
33550.5
31750.7
239165
264077
25415.5
23503.7
245639
276205
21742.9
19671.9
257092
295141
23767.4
21594.8
275419
303502
36327.8
35733.9
284418
401639
337925
333895
386740
273166
32221.3
30993.8
256305
243690
36720.8
35105.3
227128
248413
31922.3
30197.2
231084
255947
24516.9
22657
237875
268310
21245.9
19185.6
249508
287311
23590.1
21439.9
267853
295853
36453.5
35949.6
277025
392354
329954
325987
377759
267536
30615
29286
251009
238559
35247.3
33637.6
222278
243540
30899.2
29195
226470
251306
23884.7
22035.4
233461
263817
20825.6
18758.9
245208
282851
23444.1
21310.5
263559
291482
36762.6
36319.6
272820
386914
325204
321276
372520
264979
29838.7
28457.6
248609
236224
34533.1
32921.7
220075
241311
30367.8
28667.2
224365
249182
23527.8
21678.3
231446
261759
20568.8
18498
243244
280804
23329
21205.6
261593
289478
36935.9
36525
270897
384425
322989
319082
370131
)
;

boundaryField
{
    interface
    {
        type            calculated;
        value           nonuniform List<scalar> 
192
(
767731
541935
554655
581203
607731
632969
602053
324738
631867
528996
533274
550254
574599
608180
623125
602072
563357
501730
508419
524227
548126
583375
608320
633321
515610
465132
473578
489360
513002
548243
575146
609801
487285
440256
449672
465794
489540
524733
552063
588746
470633
425038
434939
451370
475273
510421
537769
574876
461223
416340
426471
443095
467104
502204
529480
566705
456944
412375
422598
439310
463368
498437
525659
562936
791846
568560
581487
608474
635467
661270
633270
375937
715941
591887
590752
607774
633250
666733
680312
649573
708069
584040
582671
599609
625033
658436
672222
643485
767555
547455
560118
586971
613870
639524
612483
367693
738275
514085
526699
553149
579546
604709
575002
307523
597914
496302
500235
516667
540395
573438
589112
575102
530691
469561
475549
490604
513678
548117
573507
605300
484522
434276
441805
456677
479355
513617
540750
582061
457324
410374
418768
433873
456554
490662
518094
561339
441398
395780
404605
419951
442724
476715
504087
547708
432421
387456
396482
411985
434823
468723
495979
539696
428344
383666
392772
408348
431215
465063
492244
536006
376205
633391
661660
637619
616305
602201
593866
590014
649769
680751
667759
635764
612964
598346
589641
585573
643659
672678
659507
627631
604912
590346
581673
577621
367829
612670
640229
616645
595720
581899
573749
569990
)
;
    }
    symmetry
    {
        type            symmetry;
    }
    bottom
    {
        type            calculated;
        value           nonuniform List<scalar> 
32
(
785613
458648
383988
349491
330667
319713
313521
310704
522874
101560
50059.4
44765.6
41698.5
39426.1
37958.6
37239.6
518096
98988.8
47932
42797.9
39612.9
37233.2
35695.1
34940.5
763832
436411
363230
330299
312572
302330
296565
293947
)
;
    }
}


// ************************************************************************* //
