/*--------------------------------*- C++ -*----------------------------------*\
| =========                 |                                                 |
| \\      /  F ield         | OpenFOAM: The Open Source CFD Toolbox           |
|  \\    /   O peration     | Version:  v1912                                 |
|   \\  /    A nd           | Website:  www.openfoam.com                      |
|    \\/     M anipulation  |                                                 |
\*---------------------------------------------------------------------------*/
FoamFile
{
    version     2.0;
    format      ascii;
    class       volScalarField;
    location    "0.11/fluid";
    object      T;
}
// * * * * * * * * * * * * * * * * * * * * * * * * * * * * * * * * * * * * * //

dimensions      [0 0 0 1 0 0 0];


internalField   nonuniform List<scalar> 
14592
(
273.026
273.078
273.134
273.199
273.282
273.399
273.575
273.84
274.236
274.817
275.646
276.798
278.357
280.424
283.138
286.807
273.026
273.078
273.133
273.197
273.28
273.395
273.569
273.831
274.223
274.798
275.621
276.766
278.319
280.383
283.1
286.778
273.025
273.077
273.132
273.195
273.275
273.388
273.557
273.813
274.198
274.763
275.572
276.703
278.244
280.301
283.023
286.726
273.025
273.076
273.13
273.191
273.268
273.378
273.541
273.788
274.16
274.708
275.497
276.604
278.122
280.163
282.891
286.635
273.025
273.074
273.127
273.186
273.26
273.364
273.519
273.754
274.109
274.633
275.391
276.461
277.938
279.948
282.672
286.476
273.024
273.072
273.123
273.179
273.249
273.347
273.491
273.711
274.044
274.536
275.251
276.264
277.677
279.623
282.317
286.192
273.023
273.07
273.119
273.172
273.237
273.327
273.459
273.661
273.965
274.417
275.075
276.01
277.321
279.148
281.738
285.646
273.023
273.068
273.114
273.164
273.224
273.305
273.423
273.604
273.876
274.28
274.866
275.7
276.866
278.49
280.811
284.481
273.027
273.082
273.141
273.21
273.301
273.431
273.626
273.921
274.362
275.009
275.932
277.215
278.948
281.236
284.198
287.992
273.027
273.081
273.14
273.209
273.299
273.427
273.619
273.911
274.348
274.989
275.905
277.18
278.908
281.193
284.16
287.966
273.026
273.08
273.138
273.206
273.294
273.419
273.607
273.892
274.32
274.95
275.852
277.112
278.827
281.107
284.083
287.919
273.026
273.079
273.136
273.201
273.286
273.407
273.589
273.864
274.279
274.89
275.77
277.005
278.696
280.963
283.949
287.835
273.025
273.077
273.132
273.196
273.277
273.392
273.564
273.827
274.223
274.808
275.654
276.849
278.499
280.735
283.726
287.686
273.025
273.075
273.128
273.189
273.265
273.373
273.534
273.78
274.151
274.701
275.5
276.634
278.215
280.387
283.357
287.41
273.024
273.073
273.124
273.181
273.252
273.351
273.499
273.724
274.064
274.57
275.306
276.354
277.825
279.872
282.742
286.86
273.023
273.07
273.119
273.172
273.237
273.327
273.459
273.661
273.965
274.417
275.074
276.01
277.321
279.148
281.738
285.645
273.028
273.084
273.147
273.221
273.319
273.46
273.671
273.992
274.472
275.174
276.172
277.553
279.405
281.815
284.854
288.545
273.027
273.084
273.146
273.219
273.316
273.455
273.664
273.982
274.457
275.152
276.143
277.516
279.363
281.772
284.816
288.52
273.027
273.083
273.144
273.216
273.31
273.446
273.651
273.962
274.427
275.11
276.087
277.444
279.278
281.683
284.738
288.474
273.027
273.082
273.141
273.211
273.302
273.434
273.631
273.931
274.383
275.046
275.999
277.33
279.14
281.532
284.602
288.392
273.026
273.08
273.137
273.205
273.292
273.417
273.605
273.891
274.322
274.958
275.875
277.164
278.931
281.295
284.373
288.243
273.026
273.078
273.133
273.197
273.28
273.397
273.572
273.84
274.244
274.843
275.709
276.934
278.629
280.93
283.992
287.966
273.025
273.075
273.128
273.189
273.265
273.373
273.534
273.78
274.151
274.701
275.5
276.634
278.214
280.387
283.356
287.41
273.024
273.072
273.123
273.179
273.249
273.347
273.491
273.711
274.043
274.536
275.25
276.264
277.676
279.622
282.316
286.191
273.028
273.087
273.152
273.23
273.333
273.484
273.71
274.052
274.563
275.307
276.362
277.811
279.737
282.208
285.252
288.827
273.028
273.086
273.151
273.228
273.33
273.479
273.702
274.041
274.547
275.284
276.331
277.773
279.693
282.163
285.213
288.802
273.028
273.085
273.149
273.224
273.325
273.47
273.688
274.02
274.515
275.24
276.272
277.698
279.605
282.071
285.134
288.756
273.027
273.084
273.146
273.219
273.316
273.456
273.667
273.988
274.468
275.173
276.18
277.578
279.462
281.916
284.995
288.672
273.027
273.082
273.142
273.213
273.305
273.439
273.64
273.945
274.404
275.079
276.049
277.404
279.244
281.671
284.762
288.522
273.026
273.08
273.137
273.205
273.292
273.417
273.605
273.891
274.321
274.957
275.874
277.163
278.93
281.294
284.373
288.243
273.025
273.077
273.132
273.196
273.277
273.392
273.564
273.826
274.222
274.807
275.653
276.848
278.498
280.734
283.725
287.686
273.025
273.074
273.127
273.185
273.26
273.364
273.518
273.754
274.108
274.633
275.39
276.46
277.937
279.947
282.671
286.475
273.029
273.089
273.156
273.237
273.346
273.503
273.741
274.1
274.634
275.409
276.503
277.997
279.967
282.463
285.491
288.979
273.029
273.089
273.155
273.235
273.342
273.498
273.733
274.088
274.617
275.386
276.472
277.958
279.922
282.418
285.452
288.954
273.029
273.087
273.153
273.231
273.336
273.489
273.718
274.066
274.584
275.34
276.41
277.881
279.832
282.324
285.372
288.907
273.028
273.086
273.15
273.226
273.328
273.475
273.696
274.032
274.535
275.269
276.315
277.757
279.684
282.166
285.231
288.823
273.027
273.084
273.146
273.219
273.316
273.456
273.667
273.987
274.468
275.172
276.179
277.577
279.46
281.915
284.994
288.672
273.027
273.082
273.141
273.211
273.302
273.434
273.631
273.931
274.382
275.045
275.998
277.328
279.138
281.531
284.6
288.391
273.026
273.079
273.135
273.201
273.286
273.407
273.588
273.864
274.278
274.889
275.769
277.003
278.694
280.961
283.947
287.834
273.025
273.076
273.129
273.191
273.268
273.377
273.54
273.787
274.159
274.707
275.495
276.602
278.119
280.161
282.889
286.633
273.03
273.091
273.159
273.242
273.355
273.518
273.764
274.134
274.685
275.482
276.602
278.124
280.118
282.624
285.633
289.063
273.029
273.09
273.158
273.24
273.351
273.513
273.756
274.122
274.667
275.458
276.57
278.084
280.072
282.578
285.594
289.038
273.029
273.089
273.156
273.237
273.345
273.503
273.74
274.099
274.634
275.411
276.507
278.005
279.98
282.483
285.512
288.991
273.029
273.087
273.153
273.231
273.336
273.488
273.718
274.065
274.583
275.338
276.409
277.879
279.83
282.322
285.37
288.906
273.028
273.085
273.148
273.224
273.324
273.469
273.688
274.019
274.514
275.238
276.27
277.695
279.602
282.068
285.131
288.754
273.027
273.083
273.144
273.215
273.31
273.446
273.65
273.96
274.425
275.108
276.084
277.441
279.274
281.679
284.734
288.472
273.026
273.08
273.138
273.205
273.293
273.418
273.606
273.891
274.319
274.948
275.849
277.109
278.823
281.103
284.079
287.916
273.025
273.077
273.132
273.194
273.275
273.388
273.556
273.812
274.196
274.76
275.569
276.7
278.24
280.296
283.019
286.723
273.03
273.092
273.161
273.246
273.361
273.528
273.779
274.157
274.718
275.529
276.664
278.202
280.208
282.717
285.713
289.108
273.03
273.091
273.16
273.244
273.357
273.522
273.771
274.145
274.7
275.504
276.632
278.162
280.162
282.67
285.673
289.083
273.029
273.09
273.158
273.24
273.351
273.512
273.755
274.121
274.666
275.456
276.568
278.082
280.069
282.574
285.591
289.035
273.029
273.088
273.155
273.235
273.342
273.498
273.732
274.086
274.614
275.383
276.468
277.954
279.917
282.412
285.447
288.95
273.028
273.086
273.15
273.227
273.33
273.478
273.701
274.039
274.544
275.281
276.327
277.767
279.687
282.156
285.207
288.798
273.027
273.084
273.145
273.218
273.315
273.454
273.663
273.98
274.454
275.148
276.138
277.51
279.356
281.764
284.809
288.516
273.027
273.081
273.14
273.208
273.298
273.426
273.618
273.909
274.345
274.985
275.9
277.174
278.901
281.186
284.152
287.961
273.026
273.078
273.133
273.197
273.279
273.395
273.567
273.829
274.22
274.795
275.616
276.76
278.313
280.376
283.093
286.772
273.03
273.092
273.162
273.248
273.364
273.533
273.786
274.168
274.734
275.551
276.694
278.239
280.25
282.76
285.748
289.127
273.03
273.092
273.161
273.246
273.36
273.527
273.778
274.156
274.716
275.526
276.661
278.199
280.204
282.713
285.708
289.103
273.029
273.091
273.159
273.242
273.354
273.517
273.762
274.132
274.682
275.478
276.597
278.118
280.11
282.616
285.626
289.055
273.029
273.089
273.156
273.236
273.345
273.502
273.739
274.097
274.63
275.404
276.496
277.989
279.957
282.454
285.482
288.97
273.028
273.087
273.151
273.229
273.333
273.482
273.708
274.049
274.559
275.301
276.354
277.801
279.726
282.196
285.241
288.817
273.028
273.084
273.146
273.22
273.318
273.458
273.669
273.989
274.468
275.168
276.164
277.543
279.394
281.804
284.843
288.535
273.027
273.081
273.14
273.21
273.3
273.43
273.624
273.918
274.358
275.003
275.924
277.205
278.937
281.224
284.186
287.98
273.026
273.078
273.134
273.198
273.281
273.398
273.573
273.837
274.232
274.811
275.638
276.789
278.347
280.412
283.126
286.793
273.02
273.059
273.095
273.129
273.163
273.201
273.251
273.321
273.419
273.556
273.735
273.961
274.227
274.521
274.817
275.085
273.02
273.058
273.095
273.128
273.162
273.199
273.249
273.317
273.415
273.549
273.727
273.95
274.213
274.504
274.798
275.063
273.02
273.058
273.094
273.127
273.16
273.197
273.245
273.312
273.406
273.537
273.711
273.929
274.186
274.471
274.759
275.02
273.019
273.058
273.093
273.126
273.157
273.193
273.239
273.303
273.394
273.52
273.687
273.897
274.146
274.421
274.701
274.954
273.019
273.057
273.092
273.124
273.154
273.188
273.231
273.291
273.377
273.497
273.655
273.854
274.091
274.354
274.621
274.863
273.019
273.056
273.09
273.121
273.15
273.182
273.222
273.278
273.357
273.468
273.615
273.801
274.023
274.269
274.519
274.746
273.019
273.055
273.089
273.119
273.146
273.175
273.211
273.262
273.334
273.435
273.569
273.739
273.942
274.167
274.396
274.604
273.019
273.054
273.087
273.116
273.141
273.167
273.2
273.244
273.308
273.397
273.517
273.669
273.85
274.051
274.256
274.442
273.02
273.059
273.096
273.131
273.167
273.208
273.262
273.339
273.448
273.599
273.8
274.055
274.358
274.695
275.041
275.355
273.02
273.059
273.096
273.131
273.166
273.206
273.26
273.336
273.443
273.593
273.791
274.043
274.343
274.677
275.019
275.331
273.02
273.059
273.095
273.13
273.164
273.204
273.256
273.329
273.434
273.58
273.774
274.02
274.314
274.642
274.978
275.284
273.02
273.058
273.094
273.128
273.161
273.199
273.249
273.32
273.421
273.561
273.748
273.985
274.269
274.588
274.914
275.212
273.019
273.057
273.093
273.126
273.158
273.194
273.241
273.308
273.403
273.536
273.713
273.939
274.21
274.513
274.826
275.112
273.019
273.057
273.092
273.123
273.154
273.188
273.231
273.293
273.381
273.504
273.67
273.881
274.134
274.419
274.712
274.981
273.019
273.056
273.09
273.12
273.149
273.18
273.22
273.276
273.356
273.468
273.619
273.812
274.044
274.304
274.573
274.82
273.019
273.055
273.088
273.117
273.144
273.172
273.208
273.257
273.328
273.428
273.562
273.734
273.941
274.173
274.413
274.634
273.02
273.061
273.099
273.136
273.175
273.222
273.285
273.375
273.505
273.686
273.93
274.243
274.621
275.051
275.498
275.911
273.02
273.06
273.099
273.136
273.174
273.22
273.282
273.372
273.5
273.679
273.92
274.229
274.604
275.03
275.474
275.885
273.02
273.06
273.098
273.134
273.172
273.217
273.278
273.364
273.489
273.664
273.9
274.203
274.571
274.989
275.426
275.832
273.02
273.059
273.097
273.132
273.169
273.212
273.271
273.354
273.474
273.642
273.87
274.163
274.519
274.926
275.352
275.748
273.02
273.059
273.095
273.13
273.165
273.206
273.261
273.34
273.454
273.613
273.83
274.109
274.449
274.839
275.248
275.629
273.02
273.058
273.094
273.127
273.161
273.199
273.25
273.323
273.428
273.577
273.779
274.04
274.359
274.725
275.11
275.47
273.019
273.057
273.092
273.124
273.156
273.191
273.237
273.303
273.399
273.535
273.719
273.958
274.25
274.586
274.939
275.271
273.019
273.056
273.09
273.121
273.15
273.182
273.223
273.282
273.367
273.487
273.652
273.864
274.125
274.424
274.739
275.034
273.021
273.063
273.103
273.143
273.187
273.242
273.318
273.429
273.588
273.815
274.122
274.523
275.019
275.593
276.206
276.786
273.021
273.062
273.103
273.143
273.186
273.24
273.315
273.424
273.582
273.806
274.11
274.507
274.998
275.569
276.178
276.755
273.021
273.062
273.102
273.141
273.184
273.237
273.31
273.416
273.57
273.788
274.086
274.476
274.959
275.52
276.122
276.693
273.021
273.061
273.101
273.139
273.181
273.231
273.302
273.403
273.552
273.762
274.051
274.428
274.897
275.445
276.034
276.594
273.02
273.06
273.099
273.136
273.176
273.225
273.291
273.387
273.528
273.728
274.002
274.363
274.812
275.339
275.906
276.45
273.02
273.06
273.097
273.133
273.171
273.216
273.278
273.367
273.498
273.685
273.941
274.279
274.701
275.197
275.734
276.25
273.02
273.058
273.095
273.13
273.165
273.206
273.263
273.344
273.463
273.634
273.868
274.177
274.564
275.02
275.514
275.991
273.019
273.057
273.093
273.126
273.158
273.196
273.246
273.318
273.424
273.576
273.785
274.06
274.405
274.81
275.249
275.672
273.022
273.065
273.108
273.153
273.203
273.268
273.361
273.496
273.695
273.979
274.371
274.89
275.545
276.324
277.181
278.018
273.022
273.065
273.108
273.152
273.202
273.266
273.357
273.491
273.688
273.968
274.356
274.871
275.521
276.296
277.149
277.984
273.022
273.064
273.107
273.15
273.199
273.262
273.351
273.481
273.673
273.948
274.328
274.833
275.474
276.239
277.084
277.914
273.021
273.064
273.105
273.148
273.195
273.255
273.341
273.467
273.652
273.917
274.285
274.776
275.4
276.149
276.98
277.798
273.021
273.063
273.104
273.145
273.19
273.247
273.328
273.448
273.623
273.876
274.227
274.697
275.296
276.019
276.825
277.624
273.021
273.062
273.101
273.141
273.184
273.238
273.313
273.424
273.587
273.823
274.152
274.593
275.158
275.842
276.61
277.375
273.02
273.06
273.099
273.137
273.177
273.226
273.295
273.396
273.545
273.761
274.062
274.466
274.985
275.614
276.323
277.033
273.02
273.059
273.096
273.132
273.169
273.214
273.275
273.365
273.498
273.69
273.958
274.318
274.779
275.338
275.966
276.595
273.023
273.068
273.114
273.163
273.221
273.298
273.41
273.576
273.82
274.173
274.666
275.329
276.185
277.234
278.431
279.655
273.023
273.068
273.114
273.162
273.219
273.296
273.406
273.57
273.811
274.161
274.649
275.307
276.157
277.201
278.396
279.618
273.022
273.067
273.112
273.16
273.216
273.291
273.398
273.558
273.794
274.136
274.615
275.263
276.102
277.136
278.323
279.542
273.022
273.066
273.111
273.157
273.212
273.284
273.387
273.541
273.769
274.1
274.565
275.195
276.015
277.031
278.203
279.414
273.022
273.065
273.109
273.154
273.206
273.274
273.372
273.518
273.735
274.05
274.495
275.099
275.89
276.875
278.021
279.214
273.021
273.064
273.106
273.15
273.199
273.263
273.354
273.49
273.692
273.987
274.404
274.973
275.721
276.658
277.756
278.912
273.021
273.063
273.104
273.145
273.191
273.249
273.333
273.457
273.642
273.912
274.293
274.816
275.504
276.369
277.389
278.473
273.021
273.061
273.1
273.139
273.182
273.235
273.309
273.42
273.585
273.825
274.165
274.63
275.241
276.008
276.911
277.87
273.024
273.071
273.121
273.175
273.241
273.331
273.464
273.662
273.957
274.386
274.991
275.817
276.906
278.283
279.93
281.729
273.024
273.071
273.12
273.174
273.239
273.328
273.459
273.655
273.947
274.371
274.971
275.791
276.875
278.247
279.892
281.693
273.023
273.07
273.119
273.171
273.235
273.323
273.45
273.642
273.927
274.343
274.933
275.741
276.812
278.174
279.815
281.617
273.023
273.069
273.117
273.168
273.23
273.314
273.437
273.622
273.898
274.301
274.873
275.662
276.712
278.055
279.684
281.486
273.023
273.068
273.115
273.164
273.223
273.303
273.42
273.596
273.858
274.243
274.791
275.55
276.565
277.875
279.48
281.274
273.022
273.067
273.112
273.159
273.215
273.29
273.399
273.563
273.808
274.168
274.684
275.399
276.363
277.616
279.17
280.935
273.022
273.065
273.109
273.154
273.206
273.275
273.374
273.524
273.748
274.078
274.551
275.209
276.098
277.26
278.716
280.399
273.021
273.063
273.105
273.147
273.195
273.257
273.346
273.48
273.68
273.975
274.396
274.981
275.771
276.8
278.088
279.584
273.025
273.075
273.128
273.187
273.262
273.366
273.52
273.752
274.099
274.605
275.326
276.32
277.654
279.39
281.578
284.212
273.025
273.074
273.127
273.186
273.259
273.362
273.514
273.744
274.087
274.589
275.303
276.291
277.619
279.352
281.54
284.178
273.024
273.074
273.125
273.183
273.255
273.356
273.504
273.729
274.064
274.557
275.259
276.234
277.55
279.273
281.461
284.111
273.024
273.073
273.123
273.18
273.249
273.346
273.489
273.706
274.031
274.508
275.192
276.145
277.438
279.143
281.327
283.994
273.024
273.071
273.121
273.175
273.242
273.334
273.47
273.676
273.985
274.441
275.097
276.016
277.271
278.944
281.111
283.796
273.023
273.07
273.117
273.169
273.232
273.319
273.445
273.638
273.927
274.355
274.973
275.842
277.038
278.648
280.769
283.459
273.023
273.068
273.114
273.163
273.222
273.301
273.417
273.593
273.858
274.25
274.817
275.618
276.725
278.227
280.239
282.869
273.022
273.066
273.11
273.156
273.21
273.281
273.385
273.542
273.779
274.129
274.635
275.348
276.33
277.662
279.449
281.824
273.022
273.066
273.11
273.156
273.21
273.281
273.385
273.542
273.779
274.129
274.635
275.348
276.33
277.662
279.449
281.824
273.021
273.063
273.105
273.147
273.195
273.257
273.346
273.48
273.68
273.974
274.396
274.981
275.771
276.8
278.087
279.583
273.021
273.061
273.1
273.139
273.182
273.235
273.309
273.42
273.585
273.825
274.165
274.63
275.241
276.008
276.911
277.87
273.02
273.059
273.096
273.132
273.169
273.214
273.275
273.365
273.498
273.69
273.958
274.318
274.779
275.338
275.966
276.595
273.019
273.057
273.093
273.126
273.158
273.196
273.246
273.318
273.424
273.576
273.785
274.06
274.405
274.81
275.249
275.672
273.019
273.056
273.09
273.121
273.15
273.182
273.223
273.282
273.367
273.487
273.652
273.864
274.125
274.424
274.739
275.034
273.019
273.055
273.088
273.117
273.144
273.172
273.207
273.257
273.328
273.427
273.562
273.734
273.941
274.173
274.413
274.634
273.019
273.054
273.087
273.116
273.141
273.167
273.2
273.244
273.308
273.397
273.517
273.669
273.85
274.051
274.255
274.441
273.023
273.068
273.114
273.163
273.221
273.301
273.417
273.593
273.858
274.25
274.817
275.618
276.724
278.227
280.239
282.869
273.022
273.065
273.109
273.154
273.206
273.274
273.374
273.524
273.748
274.078
274.551
275.209
276.098
277.26
278.715
280.399
273.021
273.063
273.104
273.145
273.191
273.249
273.333
273.457
273.642
273.911
274.293
274.816
275.503
276.368
277.389
278.473
273.02
273.06
273.099
273.137
273.177
273.226
273.295
273.396
273.545
273.761
274.062
274.466
274.985
275.614
276.323
277.033
273.02
273.058
273.095
273.13
273.165
273.206
273.263
273.344
273.463
273.633
273.868
274.177
274.564
275.02
275.514
275.99
273.019
273.057
273.092
273.124
273.156
273.191
273.237
273.303
273.399
273.535
273.719
273.958
274.25
274.586
274.939
275.271
273.019
273.056
273.09
273.12
273.149
273.18
273.22
273.276
273.356
273.468
273.619
273.811
274.043
274.304
274.573
274.82
273.019
273.055
273.089
273.119
273.146
273.175
273.211
273.262
273.334
273.434
273.569
273.739
273.941
274.166
274.396
274.604
273.023
273.07
273.117
273.169
273.232
273.318
273.445
273.638
273.927
274.355
274.972
275.841
277.037
278.647
280.769
283.458
273.022
273.067
273.112
273.159
273.215
273.29
273.399
273.562
273.808
274.168
274.683
275.399
276.363
277.616
279.169
280.935
273.021
273.064
273.106
273.15
273.199
273.263
273.354
273.49
273.692
273.987
274.404
274.973
275.72
276.657
277.756
278.912
273.021
273.062
273.101
273.141
273.184
273.238
273.313
273.424
273.587
273.823
274.152
274.593
275.158
275.842
276.609
277.374
273.02
273.06
273.097
273.133
273.171
273.216
273.278
273.367
273.498
273.684
273.941
274.279
274.701
275.197
275.734
276.25
273.02
273.058
273.094
273.127
273.161
273.199
273.25
273.323
273.428
273.577
273.779
274.04
274.359
274.725
275.11
275.47
273.019
273.057
273.092
273.123
273.154
273.188
273.231
273.293
273.381
273.504
273.669
273.88
274.134
274.418
274.711
274.981
273.019
273.056
273.09
273.121
273.15
273.182
273.222
273.278
273.357
273.468
273.615
273.801
274.023
274.268
274.518
274.745
273.024
273.071
273.121
273.175
273.242
273.334
273.47
273.675
273.985
274.44
275.096
276.015
277.27
278.942
281.11
283.795
273.023
273.068
273.115
273.164
273.223
273.303
273.42
273.595
273.858
274.242
274.79
275.549
276.564
277.874
279.478
281.273
273.022
273.065
273.109
273.154
273.206
273.274
273.372
273.518
273.735
274.05
274.494
275.098
275.889
276.874
278.02
279.213
273.021
273.063
273.104
273.145
273.19
273.247
273.328
273.447
273.623
273.875
274.226
274.696
275.295
276.018
276.824
277.623
273.02
273.06
273.099
273.136
273.176
273.224
273.291
273.387
273.527
273.727
274.002
274.362
274.811
275.338
275.905
276.449
273.02
273.059
273.095
273.13
273.165
273.206
273.261
273.34
273.453
273.613
273.829
274.108
274.449
274.838
275.247
275.628
273.019
273.057
273.093
273.126
273.158
273.194
273.241
273.308
273.403
273.535
273.713
273.938
274.209
274.513
274.825
275.111
273.019
273.057
273.092
273.124
273.154
273.188
273.231
273.291
273.377
273.496
273.654
273.854
274.091
274.353
274.62
274.862
273.024
273.073
273.123
273.179
273.249
273.346
273.489
273.705
274.03
274.507
275.19
276.143
277.435
279.141
281.325
283.992
273.023
273.069
273.117
273.168
273.23
273.314
273.437
273.621
273.897
274.3
274.872
275.66
276.71
278.053
279.682
281.484
273.022
273.066
273.111
273.157
273.212
273.283
273.387
273.54
273.768
274.099
274.563
275.193
276.013
277.029
278.201
279.412
273.021
273.064
273.105
273.148
273.195
273.255
273.341
273.466
273.651
273.916
274.284
274.775
275.399
276.147
276.978
277.796
273.021
273.061
273.101
273.139
273.18
273.231
273.301
273.403
273.551
273.762
274.05
274.427
274.896
275.444
276.032
276.593
273.02
273.059
273.097
273.132
273.169
273.212
273.27
273.353
273.473
273.642
273.869
274.162
274.518
274.925
275.351
275.747
273.02
273.058
273.094
273.128
273.161
273.199
273.249
273.32
273.42
273.56
273.747
273.984
274.268
274.586
274.913
275.211
273.019
273.058
273.093
273.126
273.157
273.193
273.238
273.303
273.393
273.519
273.686
273.896
274.145
274.42
274.7
274.953
273.024
273.074
273.125
273.183
273.255
273.355
273.504
273.728
274.063
274.554
275.256
276.231
277.546
279.269
281.457
284.107
273.023
273.07
273.119
273.171
273.235
273.322
273.45
273.641
273.926
274.341
274.93
275.738
276.808
278.17
279.811
281.613
273.022
273.067
273.112
273.16
273.216
273.29
273.398
273.557
273.793
274.135
274.613
275.26
276.099
277.132
278.319
279.538
273.022
273.064
273.107
273.15
273.199
273.261
273.35
273.481
273.672
273.946
274.326
274.831
275.471
276.236
277.081
277.911
273.021
273.062
273.102
273.141
273.184
273.236
273.309
273.415
273.569
273.787
274.085
274.474
274.956
275.518
276.119
276.691
273.02
273.06
273.098
273.134
273.172
273.217
273.277
273.364
273.488
273.663
273.898
274.201
274.569
274.987
275.424
275.83
273.02
273.059
273.095
273.129
273.164
273.203
273.255
273.329
273.433
273.579
273.773
274.018
274.312
274.64
274.976
275.283
273.02
273.058
273.094
273.127
273.16
273.197
273.244
273.311
273.406
273.537
273.71
273.927
274.185
274.469
274.758
275.018
273.025
273.074
273.127
273.185
273.259
273.361
273.513
273.742
274.084
274.585
275.298
276.286
277.613
279.345
281.533
284.171
273.024
273.071
273.12
273.173
273.239
273.328
273.458
273.654
273.945
274.368
274.967
275.786
276.869
278.24
279.886
281.686
273.023
273.068
273.113
273.162
273.219
273.295
273.405
273.568
273.809
274.158
274.645
275.302
276.152
277.196
278.39
279.612
273.022
273.065
273.108
273.151
273.201
273.265
273.356
273.49
273.686
273.966
274.353
274.867
275.516
276.291
277.145
277.979
273.021
273.062
273.102
273.142
273.186
273.24
273.315
273.423
273.581
273.804
274.107
274.504
274.995
275.565
276.174
276.751
273.02
273.06
273.099
273.135
273.174
273.22
273.282
273.371
273.498
273.677
273.918
274.226
274.601
275.027
275.47
275.882
273.02
273.059
273.096
273.131
273.166
273.206
273.259
273.335
273.442
273.591
273.789
274.04
274.34
274.674
275.016
275.328
273.02
273.058
273.095
273.128
273.161
273.199
273.248
273.317
273.414
273.548
273.725
273.948
274.211
274.501
274.795
275.061
273.025
273.075
273.127
273.186
273.261
273.364
273.518
273.749
274.095
274.6
275.319
276.312
277.644
279.38
281.568
284.2
273.024
273.071
273.12
273.174
273.24
273.33
273.462
273.66
273.954
274.382
274.985
275.81
276.897
278.273
279.921
281.719
273.023
273.068
273.114
273.163
273.221
273.297
273.409
273.574
273.817
274.169
274.661
275.323
276.177
277.225
278.423
279.647
273.022
273.065
273.108
273.152
273.202
273.267
273.359
273.495
273.693
273.976
274.367
274.884
275.538
276.317
277.174
278.011
273.021
273.062
273.103
273.143
273.187
273.242
273.317
273.427
273.586
273.812
274.119
274.519
275.013
275.587
276.2
276.78
273.02
273.06
273.099
273.136
273.175
273.221
273.284
273.374
273.503
273.684
273.927
274.239
274.617
275.046
275.493
275.907
273.02
273.059
273.096
273.131
273.166
273.207
273.261
273.338
273.447
273.597
273.798
274.051
274.354
274.691
275.036
275.351
273.02
273.058
273.095
273.129
273.162
273.2
273.25
273.32
273.418
273.554
273.733
273.958
274.224
274.517
274.813
275.081
273.018
273.054
273.085
273.113
273.136
273.16
273.187
273.226
273.281
273.358
273.462
273.594
273.752
273.926
274.104
274.265
273.018
273.053
273.084
273.11
273.131
273.152
273.175
273.207
273.253
273.319
273.407
273.519
273.652
273.8
273.95
274.085
273.018
273.052
273.082
273.107
273.127
273.144
273.163
273.19
273.227
273.281
273.353
273.446
273.556
273.678
273.801
273.912
273.017
273.051
273.08
273.104
273.122
273.137
273.153
273.173
273.203
273.246
273.305
273.38
273.469
273.567
273.666
273.756
273.017
273.05
273.079
273.102
273.118
273.131
273.144
273.159
273.183
273.217
273.263
273.323
273.395
273.473
273.553
273.624
273.017
273.05
273.078
273.1
273.116
273.127
273.136
273.149
273.167
273.193
273.231
273.279
273.337
273.4
273.464
273.521
273.017
273.049
273.077
273.099
273.114
273.123
273.132
273.141
273.156
273.177
273.209
273.249
273.297
273.351
273.404
273.452
273.017
273.049
273.077
273.098
273.113
273.122
273.129
273.137
273.15
273.169
273.197
273.234
273.278
273.326
273.374
273.416
273.018
273.054
273.086
273.114
273.139
273.164
273.194
273.237
273.298
273.385
273.501
273.651
273.83
274.032
274.239
274.43
273.018
273.053
273.084
273.111
273.134
273.155
273.181
273.217
273.268
273.341
273.44
273.566
273.718
273.887
274.062
274.221
273.018
273.052
273.083
273.108
273.128
273.147
273.169
273.198
273.24
273.299
273.381
273.485
273.609
273.749
273.891
274.02
273.018
273.051
273.081
273.105
273.124
273.14
273.157
273.18
273.213
273.261
273.327
273.411
273.511
273.623
273.736
273.839
273.017
273.05
273.079
273.103
273.12
273.134
273.147
273.165
273.191
273.229
273.281
273.348
273.428
273.517
273.607
273.687
273.017
273.05
273.078
273.101
273.117
273.129
273.14
273.153
273.174
273.204
273.245
273.299
273.364
273.435
273.506
273.57
273.017
273.05
273.078
273.099
273.115
273.125
273.134
273.145
273.162
273.186
273.221
273.266
273.32
273.379
273.438
273.491
273.017
273.049
273.077
273.099
273.114
273.123
273.132
273.141
273.156
273.177
273.209
273.249
273.297
273.351
273.404
273.452
273.019
273.055
273.088
273.117
273.144
273.172
273.208
273.259
273.332
273.437
273.579
273.764
273.989
274.247
274.518
274.771
273.018
273.054
273.086
273.113
273.138
273.163
273.193
273.236
273.298
273.386
273.506
273.661
273.851
274.066
274.291
274.499
273.018
273.053
273.084
273.11
273.132
273.154
273.179
273.214
273.264
273.337
273.435
273.563
273.717
273.892
274.073
274.24
273.018
273.052
273.082
273.107
273.127
273.145
273.166
273.193
273.234
273.292
273.371
273.474
273.597
273.736
273.878
274.008
273.017
273.051
273.08
273.104
273.123
273.138
273.154
273.176
273.208
273.254
273.317
273.398
273.496
273.604
273.715
273.816
273.017
273.05
273.079
273.102
273.119
273.132
273.146
273.163
273.188
273.224
273.274
273.339
273.417
273.503
273.59
273.669
273.017
273.05
273.078
273.101
273.117
273.129
273.14
273.153
273.174
273.204
273.245
273.299
273.364
273.435
273.506
273.57
273.017
273.05
273.078
273.1
273.116
273.127
273.136
273.149
273.167
273.193
273.231
273.279
273.337
273.4
273.464
273.521
273.019
273.056
273.09
273.122
273.151
273.185
273.228
273.291
273.383
273.514
273.695
273.933
274.23
274.578
274.952
275.31
273.019
273.055
273.088
273.117
273.145
273.174
273.211
273.263
273.341
273.452
273.604
273.804
274.051
274.338
274.645
274.936
273.018
273.054
273.086
273.113
273.138
273.163
273.194
273.237
273.3
273.391
273.516
273.679
273.879
274.109
274.352
274.58
273.018
273.053
273.084
273.11
273.132
273.153
273.178
273.213
273.264
273.337
273.437
273.566
273.725
273.905
274.092
274.266
273.018
273.052
273.082
273.107
273.127
273.145
273.165
273.192
273.232
273.29
273.369
273.471
273.595
273.734
273.878
274.009
273.017
273.051
273.08
273.104
273.123
273.138
273.154
273.176
273.208
273.254
273.317
273.398
273.496
273.604
273.715
273.816
273.017
273.05
273.079
273.103
273.12
273.134
273.147
273.165
273.191
273.229
273.281
273.348
273.428
273.517
273.607
273.687
273.017
273.05
273.079
273.102
273.118
273.131
273.144
273.159
273.183
273.217
273.263
273.323
273.395
273.473
273.553
273.624
273.019
273.058
273.094
273.127
273.161
273.201
273.254
273.332
273.447
273.614
273.846
274.156
274.552
275.027
275.557
276.081
273.019
273.056
273.091
273.122
273.153
273.187
273.233
273.299
273.396
273.536
273.731
273.99
274.317
274.706
275.132
275.547
273.019
273.055
273.088
273.118
273.145
273.175
273.213
273.267
273.347
273.462
273.621
273.831
274.093
274.399
274.73
275.047
273.018
273.054
273.086
273.113
273.138
273.163
273.194
273.238
273.302
273.394
273.521
273.687
273.892
274.128
274.378
274.614
273.018
273.053
273.084
273.11
273.132
273.153
273.178
273.213
273.264
273.337
273.437
273.566
273.725
273.905
274.092
274.266
273.018
273.052
273.082
273.107
273.127
273.145
273.166
273.193
273.234
273.292
273.371
273.474
273.597
273.736
273.878
274.008
273.018
273.051
273.081
273.105
273.124
273.14
273.157
273.18
273.213
273.261
273.327
273.411
273.511
273.623
273.736
273.839