/*--------------------------------*- C++ -*----------------------------------*\
| =========                 |                                                 |
| \\      /  F ield         | OpenFOAM: The Open Source CFD Toolbox           |
|  \\    /   O peration     | Version:  v1912                                 |
|   \\  /    A nd           | Website:  www.openfoam.com                      |
|    \\/     M anipulation  |                                                 |
\*---------------------------------------------------------------------------*/
FoamFile
{
    version     2.0;
    format      ascii;
    class       volVectorField;
    location    "0.67/solid";
    object      DD_0;
}
// * * * * * * * * * * * * * * * * * * * * * * * * * * * * * * * * * * * * * //

dimensions      [0 1 0 0 0 0 0];


internalField   nonuniform List<vector> 
256
(
(2.51921e-10 2.57683e-10 2.99852e-10)
(5.78354e-11 1.58458e-10 2.80374e-10)
(-7.07911e-11 1.53018e-10 2.73928e-10)
(-2.46912e-10 2.3799e-10 2.80199e-10)
(4.5893e-10 2.10363e-10 6.87349e-10)
(1.17792e-10 1.25754e-10 6.57573e-10)
(-1.45469e-10 1.23227e-10 6.44708e-10)
(-4.61641e-10 2.04721e-10 6.47972e-10)
(5.00015e-10 1.73701e-11 9.58333e-10)
(1.27104e-10 -2.02243e-11 9.22037e-10)
(-1.71635e-10 -1.77108e-11 9.05548e-10)
(-5.19172e-10 2.8099e-11 9.07863e-10)
(4.88514e-10 -1.97931e-10 1.18693e-09)
(1.13412e-10 -2.16671e-10 1.14109e-09)
(-1.80931e-10 -2.09121e-10 1.12202e-09)
(-5.30366e-10 -1.72619e-10 1.12856e-09)
(4.86064e-10 -4.30484e-10 1.41343e-09)
(1.00894e-10 -4.56743e-10 1.35562e-09)
(-1.98051e-10 -4.44452e-10 1.33433e-09)
(-5.57061e-10 -3.91649e-10 1.34833e-09)
(5.35406e-10 -7.12705e-10 1.66254e-09)
(1.07177e-10 -7.51664e-10 1.59369e-09)
(-2.41014e-10 -7.34685e-10 1.57026e-09)
(-6.42471e-10 -6.60459e-10 1.59102e-09)
(6.67232e-10 -1.13054e-09 1.9384e-09)
(1.40626e-10 -1.14967e-09 1.87035e-09)
(-3.19437e-10 -1.12739e-09 1.84467e-09)
(-8.17489e-10 -1.06295e-09 1.86033e-09)
(8.25278e-10 -1.73233e-09 2.16406e-09)
(1.7468e-10 -1.68168e-09 2.11709e-09)
(-4.08803e-10 -1.65094e-09 2.08932e-09)
(-1.02604e-09 -1.63916e-09 2.0803e-09)
(1.55703e-10 8.96115e-11 1.21053e-10)
(3.38003e-11 9.75151e-12 1.37512e-10)
(-3.90135e-11 7.80769e-12 1.34773e-10)
(-1.45556e-10 7.78903e-11 1.12927e-10)
(2.92293e-10 -7.31231e-12 3.82195e-10)
(7.2716e-11 -7.5649e-11 4.15068e-10)
(-8.22563e-11 -7.54066e-11 4.07557e-10)
(-2.81071e-10 -7.42712e-12 3.60286e-10)
(3.16213e-10 -1.80489e-10 6.23012e-10)
(7.77582e-11 -2.10667e-10 6.60023e-10)
(-9.68047e-11 -2.06573e-10 6.49242e-10)
(-3.14704e-10 -1.67108e-10 5.91446e-10)
(3.00612e-10 -3.76217e-10 8.39868e-10)
(6.49831e-11 -3.92098e-10 8.74848e-10)
(-1.01336e-10 -3.83659e-10 8.61704e-10)
(-3.16475e-10 -3.49781e-10 8.0112e-10)
(2.94702e-10 -5.91677e-10 1.0493e-09)
(5.35808e-11 -6.17565e-10 1.07977e-09)
(-1.1486e-10 -6.04743e-10 1.0646e-09)
(-3.35178e-10 -5.52474e-10 1.00436e-09)
(3.41925e-10 -8.40353e-10 1.26111e-09)
(6.10232e-11 -8.8151e-10 1.2868e-09)
(-1.54851e-10 -8.64286e-10 1.2697e-09)
(-4.14352e-10 -7.88365e-10 1.21031e-09)
(4.8165e-10 -1.17815e-09 1.45643e-09)
(9.76752e-11 -1.19708e-09 1.47968e-09)
(-2.32746e-10 -1.17512e-09 1.46087e-09)
(-5.93315e-10 -1.11214e-09 1.40036e-09)
(6.62971e-10 -1.65959e-09 1.56227e-09)
(1.3628e-10 -1.58758e-09 1.58546e-09)
(-3.23417e-10 -1.5584e-09 1.56588e-09)
(-8.2125e-10 -1.57076e-09 1.50359e-09)
(7.91182e-11 2.54224e-11 5.97821e-11)
(1.17518e-11 -3.27837e-11 8.46333e-11)
(-1.35517e-11 -3.4284e-11 8.27712e-11)
(-6.62955e-11 1.37508e-11 5.44955e-11)
(1.5413e-10 -1.16437e-10 2.41236e-10)
(2.9152e-11 -1.67288e-10 2.88655e-10)
(-2.88205e-11 -1.66725e-10 2.83449e-10)
(-1.34334e-10 -1.17336e-10 2.26501e-10)
(1.63755e-10 -2.9773e-10 4.43412e-10)
(2.93484e-11 -3.21121e-10 4.97296e-10)
(-3.26358e-11 -3.17102e-10 4.89463e-10)
(-1.4808e-10 -2.86048e-10 4.20998e-10)
(1.47329e-10 -4.82578e-10 6.40114e-10)
(1.75711e-11 -4.97633e-10 6.93873e-10)
(-3.3028e-11 -4.89627e-10 6.83953e-10)
(-1.44091e-10 -4.58559e-10 6.11385e-10)
(1.42023e-10 -6.71307e-10 8.25854e-10)
(7.66043e-12 -6.98859e-10 8.77379e-10)
(-4.36336e-11 -6.86739e-10 8.65642e-10)
(-1.59065e-10 -6.35039e-10 7.9155e-10)
(1.9086e-10 -8.71874e-10 9.93599e-10)
(1.65664e-11 -9.15785e-10 1.04237e-09)
(-8.12876e-11 -8.99529e-10 1.02899e-09)
(-2.35974e-10 -8.23373e-10 9.54215e-10)
(3.35842e-10 -1.1359e-09 1.11623e-09)
(5.57018e-11 -1.15695e-09 1.1621e-09)
(-1.58346e-10 -1.13633e-09 1.14747e-09)
(-4.16615e-10 -1.07416e-09 1.07281e-09)
(5.25029e-10 -1.53679e-09 1.14451e-09)
(9.72044e-11 -1.46352e-09 1.18787e-09)
(-2.48844e-10 -1.43603e-09 1.17303e-09)
(-6.49003e-10 -1.45294e-09 1.09988e-09)
(4.41389e-11 1.21167e-12 4.74198e-11)
(1.83024e-12 -4.26049e-11 6.46053e-11)
(-2.04413e-12 -4.43207e-11 6.32137e-11)
(-2.968e-11 -1.16445e-11 4.35666e-11)
(8.96758e-11 -1.59358e-10 1.86318e-10)
(8.6677e-12 -1.98853e-10 2.18687e-10)
(-2.89877e-12 -1.98905e-10 2.14925e-10)
(-6.44811e-11 -1.62847e-10 1.75846e-10)
(9.38241e-11 -3.48602e-10 3.48354e-10)
(7.17345e-12 -3.68161e-10 3.84631e-10)
(-7.6555e-13 -3.64992e-10 3.78906e-10)
(-6.86227e-11 -3.40165e-10 3.32173e-10)
(8.05595e-11 -5.26748e-10 5.123e-10)
(-2.42574e-12 -5.42306e-10 5.47821e-10)
(8.42787e-13 -5.35327e-10 5.40413e-10)
(-6.37138e-11 -5.06363e-10 4.91035e-10)
(7.99091e-11 -6.9276e-10 6.6424e-10)
(-9.6403e-12 -7.22343e-10 6.97584e-10)
(-8.64585e-12 -7.11397e-10 6.88665e-10)
(-7.95568e-11 -6.60412e-10 6.38335e-10)
(1.3271e-10 -8.57071e-10 7.89288e-10)
(1.32909e-12 -9.03429e-10 8.20357e-10)
(-4.50006e-11 -8.88487e-10 8.10113e-10)
(-1.56995e-10 -8.12747e-10 7.59241e-10)
(2.78817e-10 -1.07854e-09 8.64274e-10)
(4.13539e-11 -1.10375e-09 8.93451e-10)
(-1.19988e-10 -1.08453e-09 8.82289e-10)
(-3.35636e-10 -1.02114e-09 8.3113e-10)
(4.65535e-10 -1.44319e-09 8.64497e-10)
(8.32173e-11 -1.37973e-09 8.93462e-10)
(-2.08107e-10 -1.35362e-09 8.82252e-10)
(-5.62654e-10 -1.3635e-09 8.3064e-10)
(3.25468e-11 -7.56043e-12 4.10271e-11)
(-5.24539e-13 -4.44465e-11 4.97913e-11)
(1.14447e-12 -4.63959e-11 4.8786e-11)
(-1.70623e-11 -2.13894e-11 3.8284e-11)
(6.93558e-11 -1.71478e-10 1.48214e-10)
(3.8676e-12 -2.059e-10 1.6415e-10)
(5.09366e-12 -2.06647e-10 1.61481e-10)
(-4.07654e-11 -1.77372e-10 1.40875e-10)
(7.4031e-11 -3.61118e-10 2.71273e-10)
(3.15766e-12 -3.79706e-10 2.88333e-10)
(9.3683e-12 -3.77485e-10 2.84264e-10)
(-4.25894e-11 -3.55824e-10 2.59884e-10)
(6.52863e-11 -5.33052e-10 3.96616e-10)
(-3.88334e-12 -5.49985e-10 4.12267e-10)
(1.15558e-11 -5.44086e-10 4.06943e-10)
(-3.9124e-11 -5.16164e-10 3.81448e-10)
(6.98188e-11 -6.84296e-10 5.107e-10)
(-8.33586e-12 -7.1584e-10 5.24269e-10)
(2.3531e-12 -7.06054e-10 5.17787e-10)
(-5.71173e-11 -6.55614e-10 4.9197e-10)
(1.26056e-10 -8.28793e-10 5.98944e-10)
(4.46999e-12 -8.77043e-10 6.10761e-10)
(-3.30451e-11 -8.63302e-10 6.0327e-10)
(-1.35159e-10 -7.88186e-10 5.77035e-10)
(2.71192e-10 -1.03163e-09 6.45441e-10)
(4.45824e-11 -1.06039e-09 6.5639e-10)
(-1.05617e-10 -1.04236e-09 6.48223e-10)
(-3.1024e-10 -9.77827e-10 6.21202e-10)
(4.53421e-10 -1.38114e-09 6.39688e-10)
(8.60245e-11 -1.32709e-09 6.51558e-10)
(-1.91037e-10 -1.30206e-09 6.43378e-10)
(-5.30401e-10 -1.30471e-09 6.14946e-10)
(2.96426e-11 -1.03465e-11 3.19969e-11)
(-2.98651e-13 -4.44036e-11 3.58311e-11)
(1.37783e-12 -4.65208e-11 3.51565e-11)
(-1.35314e-11 -2.4837e-11 3.01726e-11)
(6.57356e-11 -1.71531e-10 1.09098e-10)
(4.7342e-12 -2.04403e-10 1.15538e-10)
(6.13251e-12 -2.05682e-10 1.13759e-10)
(-3.50466e-11 -1.7918e-10 1.04246e-10)
(7.29454e-11 -3.57157e-10 1.95098e-10)
(5.5765e-12 -3.76234e-10 2.01272e-10)
(1.07747e-11 -3.74774e-10 1.98557e-10)
(-3.75379e-11 -3.54278e-10 1.87558e-10)
(6.81828e-11 -5.23272e-10 2.8192e-10)
(6.99449e-13 -5.41738e-10 2.86671e-10)
(1.29844e-11 -5.36717e-10 2.83098e-10)
(-3.59084e-11 -5.09137e-10 2.71808e-10)
(7.66584e-11 -6.66224e-10 3.59689e-10)
(-1.64156e-12 -6.99335e-10 3.62831e-10)
(3.90659e-12 -6.90479e-10 3.58452e-10)
(-5.56216e-11 -6.40425e-10 3.47094e-10)
(1.35097e-10 -8.02076e-10 4.17734e-10)
(1.24614e-11 -8.51558e-10 4.19732e-10)
(-3.06613e-11 -8.38749e-10 4.14647e-10)
(-1.33722e-10 -7.6433e-10 4.02904e-10)
(2.78918e-10 -9.98279e-10 4.46338e-10)
(5.24967e-11 -1.02919e-09 4.48048e-10)
(-1.01216e-10 -1.01204e-09 4.42493e-10)
(-3.05507e-10 -9.47166e-10 4.29871e-10)
(4.57473e-10 -1.34081e-09 4.41116e-10)
(9.35313e-11 -1.29273e-09 4.43771e-10)
(-1.84484e-10 -1.26849e-09 4.3821e-10)
(-5.20193e-10 -1.26676e-09 4.24293e-10)
(2.91223e-11 -1.09058e-11 2.02585e-11)
(2.59765e-13 -4.38822e-11 2.17724e-11)
(1.06173e-12 -4.61057e-11 2.13857e-11)
(-1.26532e-11 -2.58045e-11 1.92181e-11)
(6.61709e-11 -1.68346e-10 6.68481e-11)
(6.29971e-12 -2.01002e-10 6.90966e-11)
(5.64323e-12 -2.02624e-10 6.8078e-11)
(-3.42662e-11 -1.77103e-10 6.40865e-11)
(7.55982e-11 -3.495e-10 1.17602e-10)
(8.40771e-12 -3.69354e-10 1.19335e-10)
(1.01765e-11 -3.68396e-10 1.1778e-10)
(-3.7848e-11 -3.48196e-10 1.13305e-10)
(7.35241e-11 -5.11191e-10 1.68255e-10)
(4.97788e-12 -5.3084e-10 1.69011e-10)
(1.23078e-11 -5.26411e-10 1.66958e-10)
(-3.75623e-11 -4.98889e-10 1.62469e-10)
(8.44327e-11 -6.49926e-10 2.13097e-10)
(3.96561e-12 -6.84072e-10 2.12882e-10)
(3.3518e-12 -6.75842e-10 2.10356e-10)
(-5.82674e-11 -6.26058e-10 2.05856e-10)
(1.44088e-10 -7.82625e-10 2.45969e-10)
(1.88608e-11 -8.32793e-10 2.45136e-10)
(-3.05881e-11 -8.20606e-10 2.42194e-10)
(-1.36161e-10 -7.46788e-10 2.37405e-10)
(2.86943e-10 -9.76893e-10 2.61707e-10)
(5.88529e-11 -1.00887e-09 2.60817e-10)
(-9.97851e-11 -9.92298e-10 2.57596e-10)
(-3.05648e-10 -9.27558e-10 2.52169e-10)
(4.63109e-10 -1.31601e-09 2.58434e-10)
(9.96372e-11 -1.27105e-09 2.58145e-10)
(-1.8163e-10 -1.24732e-09 2.5492e-10)
(-5.16739e-10 -1.24352e-09 2.48681e-10)
(2.90663e-11 -1.0867e-11 6.92349e-12)
(5.67224e-13 -4.34703e-11 7.32202e-12)
(8.582e-13 -4.57453e-11 7.19615e-12)
(-1.24345e-11 -2.59608e-11 6.58568e-12)
(6.67596e-11 -1.65962e-10 2.25115e-11)
(7.16164e-12 -1.98684e-10 2.30431e-11)
(5.26657e-12 -2.00472e-10 2.27117e-11)
(-3.42966e-11 -1.75252e-10 2.16153e-11)
(7.7335e-11 -3.44441e-10 3.92795e-11)
(9.91569e-12 -3.64776e-10 3.9592e-11)
(9.69727e-12 -3.64066e-10 3.90858e-11)
(-3.84961e-11 -3.43906e-10 3.78842e-11)
(7.65627e-11 -5.03792e-10 5.58952e-11)
(7.18681e-12 -5.24058e-10 5.5868e-11)
(1.17846e-11 -5.19922e-10 5.51988e-11)
(-3.88665e-11 -4.92395e-10 5.40128e-11)
(8.86007e-11 -6.40768e-10 7.05151e-11)
(6.80179e-12 -6.75417e-10 7.01677e-11)
(2.91169e-12 -6.67499e-10 6.93429e-11)
(-5.99951e-11 -6.1786e-10 6.81542e-11)
(1.48791e-10 -7.72533e-10 8.11548e-11)
(2.20704e-11 -8.22997e-10 8.06148e-11)
(-3.06942e-11 -8.11119e-10 7.96522e-11)
(-1.37715e-10 -7.37644e-10 7.8356e-11)
(2.91167e-10 -9.66371e-10 8.61976e-11)
(6.20545e-11 -9.98758e-10 8.56549e-11)
(-9.92224e-11 -9.82474e-10 8.46001e-11)
(-3.06056e-10 -9.17919e-10 8.30755e-11)
(4.66174e-10 -1.30406e-09 8.50986e-11)
(1.02725e-10 -1.26039e-09 8.4756e-11)
(-1.80366e-10 -1.23691e-09 8.36995e-11)
(-5.15385e-10 -1.23234e-09 8.19044e-11)
)
;

boundaryField
{
    interface
    {
        type            calculated;
        value           nonuniform List<vector> 
192
(
(2.89797e-10 4.35396e-10 2.7103e-10)
(4.96347e-10 2.72386e-10 6.36772e-10)
(5.39743e-10 2.47651e-11 9.03119e-10)
(5.32014e-10 -2.01419e-10 1.13193e-09)
(5.30191e-10 -4.18762e-10 1.35928e-09)
(5.73666e-10 -6.67413e-10 1.60952e-09)
(7.00291e-10 -1.05807e-09 1.88788e-09)
(8.794e-10 -1.68809e-09 2.11778e-09)
(1.58526e-10 2.0161e-10 7.78534e-11)
(2.97725e-10 3.28147e-11 3.05996e-10)
(3.21305e-10 -1.7841e-10 5.38948e-10)
(3.05597e-10 -3.81596e-10 7.54573e-10)
(2.97408e-10 -5.81349e-10 9.63288e-10)
(3.37561e-10 -7.93617e-10 1.17497e-09)
(4.75343e-10 -1.09789e-09 1.37358e-09)
(6.96854e-10 -1.61115e-09 1.48721e-09)
(6.82762e-11 8.37343e-11 3.18919e-11)
(1.51527e-10 -9.52788e-11 1.90583e-10)
(1.62038e-10 -2.99431e-10 3.87816e-10)
(1.45722e-10 -4.88013e-10 5.85102e-10)
(1.39312e-10 -6.60425e-10 7.72156e-10)
(1.84234e-10 -8.2342e-10 9.41296e-10)
(3.32352e-10 -1.05236e-09 1.06553e-09)
(5.65324e-10 -1.48594e-09 1.09515e-09)
(2.79028e-11 3.46653e-11 3.57775e-11)
(8.55245e-11 -1.46937e-10 1.65125e-10)
(9.18398e-11 -3.50882e-10 3.25924e-10)
(7.95327e-11 -5.30228e-10 4.9179e-10)
(7.91985e-11 -6.79724e-10 6.4619e-10)
(1.30687e-10 -8.07345e-10 7.73088e-10)
(2.83446e-10 -9.95339e-10 8.48111e-10)
(5.13642e-10 -1.39152e-09 8.46595e-10)
(1.32149e-11 1.79152e-11 3.74035e-11)
(6.29101e-11 -1.61107e-10 1.4223e-10)
(7.04776e-11 -3.62136e-10 2.66054e-10)
(6.34896e-11 -5.34106e-10 3.93522e-10)
(6.94514e-11 -6.69105e-10 5.09888e-10)
(1.2601e-10 -7.78451e-10 5.99541e-10)
(2.79693e-10 -9.49793e-10 6.45466e-10)
(5.04233e-10 -1.32941e-09 6.37672e-10)
(8.94669e-12 1.34981e-11 3.1141e-11)
(5.78312e-11 -1.60706e-10 1.08302e-10)
(6.83396e-11 -3.56546e-10 1.9549e-10)
(6.59441e-11 -5.22345e-10 2.8398e-10)
(7.6639e-11 -6.49497e-10 3.63343e-10)
(1.36385e-10 -7.51512e-10 4.22242e-10)
(2.89714e-10 -9.17686e-10 4.50276e-10)
(5.09368e-10 -1.28931e-09 4.43538e-10)
(8.02757e-12 1.29175e-11 2.01147e-11)
(5.76859e-11 -1.56728e-10 6.71043e-11)
(7.06428e-11 -3.47663e-10 1.18699e-10)
(7.13314e-11 -5.08984e-10 1.7035e-10)
(8.49512e-11 -6.32286e-10 2.16083e-10)
(1.46466e-10 -7.31999e-10 2.49393e-10)
(2.99294e-10 -8.97138e-10 2.6477e-10)
(5.15689e-10 -1.26478e-09 2.6061e-10)
(7.91905e-12 1.30895e-11 6.90954e-12)
(5.81222e-11 -1.53895e-10 2.26587e-11)
(7.23352e-11 -3.41991e-10 3.97138e-11)
(7.45168e-11 -5.00977e-10 5.66549e-11)
(8.94982e-11 -6.22712e-10 7.15572e-11)
(1.51793e-10 -7.21892e-10 8.23307e-11)
(3.04332e-10 -8.87026e-10 8.72537e-11)
(5.19132e-10 -1.25301e-09 8.5865e-11)
(2.61459e-10 5.04483e-10 3.0443e-10)
(4.7677e-10 3.74984e-10 6.86918e-10)
(5.18544e-10 1.42266e-10 9.60112e-10)
(5.04549e-10 -8.41551e-11 1.19353e-09)
(4.98684e-10 -3.11581e-10 1.421e-09)
(5.44703e-10 -5.81463e-10 1.66234e-09)
(6.7548e-10 -1.00515e-09 1.92768e-09)
(8.36674e-10 -1.66924e-09 2.16721e-09)
(5.13517e-11 3.92945e-10 2.63384e-10)
(1.07127e-10 2.86171e-10 6.29049e-10)
(1.13904e-10 1.00657e-10 8.88144e-10)
(9.7181e-11 -1.08273e-10 1.1053e-09)
(8.11154e-11 -3.43592e-10 1.31503e-09)
(8.4104e-11 -6.2298e-10 1.54027e-09)
(1.17193e-10 -1.01882e-09 1.80628e-09)
(1.55996e-10 -1.61512e-09 2.08811e-09)
(-7.08381e-11 3.82677e-10 2.47988e-10)
(-1.47875e-10 2.81133e-10 6.08813e-10)
(-1.75184e-10 1.01618e-10 8.64159e-10)
(-1.84071e-10 -1.01925e-10 1.07837e-09)
(-1.99877e-10 -3.32391e-10 1.28556e-09)
(-2.41686e-10 -6.07099e-10 1.5084e-09)
(-3.21946e-10 -9.97621e-10 1.77188e-09)
(-4.18003e-10 -1.58481e-09 2.05082e-09)
(-2.61723e-10 4.70033e-10 2.57629e-10)
(-4.90661e-10 3.61638e-10 6.23261e-10)
(-5.5249e-10 1.48247e-10 8.84492e-10)
(-5.63846e-10 -6.25003e-11 1.10893e-09)
(-5.89382e-10 -2.76032e-10 1.32883e-09)
(-6.73579e-10 -5.3246e-10 1.56306e-09)
(-8.49639e-10 -9.40631e-10 1.82133e-09)
(-1.06318e-09 -1.57724e-09 2.05412e-09)
(-2.26281e-10 4.15127e-10 2.47452e-10)
(-4.40612e-10 2.72786e-10 5.88316e-10)
(-4.99269e-10 4.52821e-11 8.40082e-10)
(-5.12692e-10 -1.63145e-10 1.05834e-09)
(-5.38442e-10 -3.6362e-10 1.2767e-09)
(-6.16187e-10 -5.95349e-10 1.51843e-09)
(-7.82878e-10 -9.67058e-10 1.78821e-09)
(-1.00587e-09 -1.56768e-09 2.01052e-09)
(-9.47469e-11 1.84547e-10 6.77721e-11)
(-2.33868e-10 3.48605e-11 2.78457e-10)
(-2.66539e-10 -1.58256e-10 4.98671e-10)
(-2.67018e-10 -3.44661e-10 7.04548e-10)
(-2.82094e-10 -5.28003e-10 9.04856e-10)
(-3.52577e-10 -7.23829e-10 1.10868e-09)
(-5.26546e-10 -1.01042e-09 1.30014e-09)
(-7.86932e-10 -1.49683e-09 1.40933e-09)
(-3.89519e-12 6.3908e-11 2.55254e-11)
(-8.13959e-11 -9.68896e-11 1.72351e-10)
(-9.55445e-11 -2.83608e-10 3.59475e-10)
(-9.06117e-11 -4.55811e-10 5.48191e-10)
(-1.03186e-10 -6.12066e-10 7.27642e-10)
(-1.74467e-10 -7.58983e-10 8.89874e-10)
(-3.55043e-10 -9.70897e-10 1.00838e-09)
(-6.23501e-10 -1.37828e-09 1.03523e-09)
(3.72715e-11 1.18957e-11 3.12574e-11)
(-1.09804e-11 -1.53111e-10 1.52452e-10)
(-1.68527e-11 -3.40356e-10 3.05798e-10)
(-1.19721e-11 -5.03628e-10 4.64791e-10)
(-2.67873e-11 -6.3709e-10 6.12846e-10)
(-1.01103e-10 -7.48724e-10 7.34035e-10)
(-2.82944e-10 -9.19721e-10 8.04535e-10)
(-5.45832e-10 -1.28946e-09 8.00988e-10)
(5.25303e-11 -6.93258e-12 3.4246e-11)
(1.45384e-11 -1.70989e-10 1.33515e-10)
(1.01587e-11 -3.56233e-10 2.52111e-10)
(1.27517e-11 -5.1253e-10 3.74495e-10)
(-5.32559e-12 -6.31603e-10 4.85984e-10)
(-8.17524e-11 -7.24902e-10 5.71216e-10)
(-2.61818e-10 -8.79014e-10 6.13669e-10)
(-5.16725e-10 -1.23175e-09 6.0433e-10)
(5.71478e-11 -1.26926e-11 2.90698e-11)
(2.14009e-11 -1.73178e-10 1.0262e-10)
(1.59218e-11 -3.54062e-10 1.86372e-10)
(1.61136e-11 -5.04614e-10 2.71416e-10)
(-4.51069e-12 -6.15969e-10 3.47381e-10)
(-8.19273e-11 -7.01855e-10 4.03153e-10)
(-2.59602e-10 -8.50545e-10 4.28722e-10)
(-5.07853e-10 -1.1949e-09 4.20877e-10)
(5.82709e-11 -1.40747e-11 1.89436e-11)
(2.25861e-11 -1.70804e-10 6.38984e-11)
(1.57748e-11 -3.47371e-10 1.13544e-10)
(1.42263e-11 -4.93783e-10 1.63208e-10)
(-7.84868e-12 -6.01406e-10 2.06949e-10)
(-8.55876e-11 -6.84939e-10 2.38402e-10)
(-2.61406e-10 -8.32411e-10 2.52306e-10)
(-5.05216e-10 -1.17251e-09 2.47479e-10)
(5.84731e-11 -1.42781e-11 6.5309e-12)
(2.26306e-11 -1.68736e-10 2.16227e-11)
(1.50903e-11 -3.42762e-10 3.8046e-11)
(1.26961e-11 -4.87018e-10 5.43387e-11)
(-1.00152e-11 -5.93146e-10 6.8586e-11)
(-8.78174e-11 -6.76126e-10 7.87446e-11)
(-2.62672e-10 -8.23498e-10 8.31774e-11)
(-5.04296e-10 -1.16179e-09 8.15658e-11)
(8.34736e-10 -1.73647e-09 2.17742e-09)
(6.69189e-10 -1.65051e-09 1.51339e-09)
(5.32134e-10 -1.53945e-09 1.09041e-09)
(4.75501e-10 -1.45598e-09 8.25585e-10)
(4.65773e-10 -1.39723e-09 6.14094e-10)
(4.71202e-10 -1.35792e-09 4.24833e-10)
(4.77481e-10 -1.33367e-09 2.49248e-10)
(4.80781e-10 -1.32204e-09 8.2112e-11)
(1.54331e-10 -1.65363e-09 2.12684e-09)
(1.10982e-10 -1.52513e-09 1.53092e-09)
(7.20108e-11 -1.41283e-09 1.1359e-09)
(6.08244e-11 -1.34378e-09 8.59356e-10)
(6.62511e-11 -1.29853e-09 6.29807e-10)
(7.54475e-11 -1.26789e-09 4.29761e-10)
(8.24619e-11 -1.2482e-09 2.5006e-10)
(8.59336e-11 -1.23845e-09 8.20901e-11)
(-4.19435e-10 -1.61323e-09 2.09925e-09)
(-3.27626e-10 -1.48699e-09 1.51215e-09)
(-2.51492e-10 -1.37652e-09 1.12184e-09)
(-2.12169e-10 -1.3089e-09 8.48761e-10)
(-1.96636e-10 -1.26474e-09 6.22093e-10)
(-1.90981e-10 -1.23489e-09 4.24525e-10)
(-1.88518e-10 -1.21571e-09 2.47026e-10)
(-1.87381e-10 -1.2062e-09 8.1097e-11)
(-1.06472e-09 -1.6136e-09 2.09416e-09)
(-8.55128e-10 -1.53271e-09 1.45704e-09)
(-6.82106e-10 -1.42666e-09 1.04807e-09)
(-5.9721e-10 -1.34738e-09 7.93583e-10)
(-5.66223e-10 -1.29185e-09 5.90761e-10)
(-5.56562e-10 -1.25486e-09 4.08996e-10)
(-5.532e-10 -1.2321e-09 2.40077e-10)
(-5.51808e-10 -1.22121e-09 7.91105e-11)
)
;
    }
    symmetry
    {
        type            symmetry;
    }
    bottom
    {
        type            calculated;
        value           uniform (0 0 0);
    }
}


// ************************************************************************* //
