/*--------------------------------*- C++ -*----------------------------------*\
| =========                 |                                                 |
| \\      /  F ield         | OpenFOAM: The Open Source CFD Toolbox           |
|  \\    /   O peration     | Version:  v1912                                 |
|   \\  /    A nd           | Website:  www.openfoam.com                      |
|    \\/     M anipulation  |                                                 |
\*---------------------------------------------------------------------------*/
FoamFile
{
    version     2.0;
    format      ascii;
    class       volSymmTensorField;
    location    "0.67/solid";
    object      epsilon;
}
// * * * * * * * * * * * * * * * * * * * * * * * * * * * * * * * * * * * * * //

dimensions      [0 0 0 0 0 0 0];


internalField   nonuniform List<symmTensor> 
256
(
(-2.78048e-06 1.82491e-07 -6.93806e-08 1.33622e-06 2.04413e-07 -2.85429e-06)
(-5.76061e-07 -4.45974e-08 -2.91162e-08 8.3384e-07 2.02396e-07 -2.52883e-06)
(-5.61661e-07 4.64683e-08 2.79193e-08 8.17402e-07 2.03218e-07 -2.4945e-06)
(-2.61545e-06 -1.75096e-07 6.8795e-08 1.27532e-06 2.07563e-07 -2.75818e-06)
(-2.85126e-06 -2.30234e-09 -1.05476e-07 -4.45595e-07 2.25186e-08 -2.88872e-06)
(-9.77382e-07 -3.30713e-08 -4.79128e-08 -2.05791e-07 3.25111e-08 -2.53399e-06)
(-9.58236e-07 3.86116e-08 4.70147e-08 -2.12762e-07 3.36463e-08 -2.50002e-06)
(-2.67914e-06 5.23537e-09 1.04895e-07 -4.60646e-07 2.6119e-08 -2.79536e-06)
(-2.91259e-06 -2.80692e-08 -1.13346e-07 -5.24054e-07 -3.8517e-09 -2.9471e-06)
(-1.01945e-06 -2.85195e-08 -5.25072e-08 -3.76729e-07 -1.88549e-09 -2.54726e-06)
(-1.00055e-06 3.37844e-08 5.2046e-08 -3.8182e-07 -1.12059e-09 -2.51243e-06)
(-2.73756e-06 3.0149e-08 1.12895e-07 -5.36671e-07 -1.35726e-09 -2.85107e-06)
(-2.97064e-06 -1.81069e-08 -1.17519e-07 -4.74606e-07 4.83644e-09 -3.02367e-06)
(-9.79494e-07 -2.12344e-08 -5.46628e-08 -4.5495e-07 2.59166e-09 -2.59467e-06)
(-9.60705e-07 2.5162e-08 5.43718e-08 -4.59409e-07 3.06431e-09 -2.55907e-06)
(-2.79244e-06 1.97943e-08 1.17142e-07 -4.86857e-07 6.47533e-09 -2.92539e-06)
(-3.06089e-06 -2.06865e-09 -1.21931e-07 -4.83631e-07 2.40511e-08 -3.12841e-06)
(-9.71933e-07 -1.06497e-08 -5.70733e-08 -5.24301e-07 2.07051e-08 -2.6809e-06)
(-9.52933e-07 1.32295e-08 5.67988e-08 -5.28647e-07 2.10145e-08 -2.64469e-06)
(-2.87959e-06 3.2471e-09 1.21598e-07 -4.9558e-07 2.5167e-08 -3.02847e-06)
(-3.21729e-06 2.826e-08 -1.25832e-07 -6.4715e-07 5.87677e-08 -3.27966e-06)
(-1.05551e-06 8.21696e-09 -5.94011e-08 -6.58354e-07 5.67493e-08 -2.82241e-06)
(-1.03642e-06 -7.37087e-09 5.90959e-08 -6.62446e-07 5.69554e-08 -2.78562e-06)
(-3.03364e-06 -2.79066e-08 1.25554e-07 -6.58372e-07 5.95282e-08 -3.17826e-06)
(-3.47723e-06 8.48318e-08 -1.25026e-07 -1.404e-06 1.14114e-07 -3.51755e-06)
(-1.28503e-06 3.84255e-08 -5.92455e-08 -1.2564e-06 1.19005e-07 -3.07689e-06)
(-1.26616e-06 -4.04684e-08 5.89026e-08 -1.25581e-06 1.19088e-07 -3.03965e-06)
(-3.29277e-06 -8.56892e-08 1.24808e-07 -1.40366e-06 1.14487e-07 -3.41513e-06)
(-3.94031e-06 1.14913e-07 -1.14521e-07 -3.97808e-06 1.41598e-07 -3.97656e-06)
(-1.60893e-06 5.47877e-08 -5.44023e-08 -3.64845e-06 1.53309e-07 -3.64605e-06)
(-1.58947e-06 -5.38671e-08 5.39519e-08 -3.61191e-06 1.53321e-07 -3.60969e-06)
(-3.75389e-06 -1.14367e-07 1.14266e-07 -3.87856e-06 1.41733e-07 -3.87784e-06)
(-2.26716e-06 1.09905e-07 -5.27697e-08 5.86522e-07 -5.32033e-09 -5.12705e-07)
(-3.89841e-07 -6.21665e-08 -1.6228e-08 1.71307e-07 8.02044e-08 -4.27382e-07)
(-3.75532e-07 6.46798e-08 1.82406e-08 1.57056e-07 8.41677e-08 -4.25114e-07)
(-2.10258e-06 -1.02452e-07 5.3608e-08 5.32448e-07 6.45019e-09 -5.07531e-07)
(-2.32301e-06 -1.4631e-08 -8.06871e-08 -2.86531e-07 2.61711e-08 -8.10667e-07)
(-6.72194e-07 -3.64655e-08 -3.26936e-08 -9.34535e-08 7.0588e-08 -6.79443e-07)
(-6.53832e-07 4.03792e-08 3.58054e-08 -1.02245e-07 7.30312e-08 -6.77093e-07)
(-2.15524e-06 1.66001e-08 8.18519e-08 -3.06251e-07 3.37516e-08 -8.05663e-07)
(-2.35411e-06 -2.926e-08 -8.44248e-08 -3.78803e-07 2.36075e-08 -8.5877e-07)
(-6.90347e-07 -2.83031e-08 -3.54724e-08 -2.58941e-07 3.76845e-08 -7.13416e-07)
(-6.72573e-07 3.10965e-08 3.90957e-08 -2.64735e-07 3.93474e-08 -7.11693e-07)
(-2.18424e-06 3.01636e-08 8.57231e-08 -3.93423e-07 2.89616e-08 -8.55435e-07)
(-2.39213e-06 -1.91282e-08 -8.55355e-08 -4.0103e-07 2.72511e-08 -8.69487e-07)
(-6.45785e-07 -2.10794e-08 -3.55758e-08 -3.89882e-07 2.96079e-08 -7.14943e-07)
(-6.28161e-07 2.27303e-08 3.94635e-08 -3.94428e-07 3.07879e-08 -7.13589e-07)
(-2.21891e-06 1.98325e-08 8.69328e-08 -4.13766e-07 3.11331e-08 -8.67146e-07)
(-2.47068e-06 -3.65752e-09 -8.77326e-08 -4.31166e-07 5.29052e-08 -8.99143e-07)
(-6.33965e-07 -1.12504e-08 -3.67716e-08 -4.75305e-07 5.17022e-08 -7.36358e-07)
(-6.16006e-07 1.19955e-08 4.07308e-08 -4.79582e-07 5.25421e-08 -7.35162e-07)
(-2.29345e-06 4.1056e-09 8.92003e-08 -4.43184e-07 5.56802e-08 -8.97264e-07)
(-2.62641e-06 2.76609e-08 -8.97071e-08 -5.3995e-07 9.4375e-08 -9.74807e-07)
(-7.13821e-07 7.40715e-09 -3.83584e-08 -5.51689e-07 9.24497e-08 -8.0501e-07)
(-6.95544e-07 -7.94576e-09 4.22681e-08 -5.55705e-07 9.30131e-08 -8.03904e-07)
(-2.44528e-06 -2.78173e-08 9.12343e-08 -5.51166e-07 9.62371e-08 -9.73229e-07)
(-2.91191e-06 8.91921e-08 -8.87607e-08 -1.13364e-06 1.27842e-07 -1.14004e-06)
(-9.46507e-07 3.90983e-08 -3.84908e-08 -9.68427e-07 1.27954e-07 -9.71312e-07)
(-9.2822e-07 -4.20455e-08 4.22173e-08 -9.67773e-07 1.28225e-07 -9.70309e-07)
(-2.72831e-06 -9.03846e-08 9.03063e-08 -1.13319e-06 1.28798e-07 -1.1388e-06)
(-3.4789e-06 1.25257e-07 -8.41649e-08 -3.51868e-06 1.14883e-07 -1.40508e-06)
(-1.28535e-06 5.94562e-08 -3.74874e-08 -3.07943e-06 1.19623e-07 -1.25443e-06)
(-1.26642e-06 -5.88328e-08 4.08049e-08 -3.04186e-06 1.19693e-07 -1.25349e-06)
(-3.29326e-06 -1.24858e-07 8.55808e-08 -3.41507e-06 1.15186e-07 -1.40409e-06)
(-1.9491e-06 6.13655e-08 -2.14603e-08 2.86841e-07 7.21296e-08 -5.62308e-08)
(-2.59088e-07 -8.28337e-08 -2.23036e-09 -6.03435e-08 1.52323e-07 -6.00775e-08)
(-2.4519e-07 8.36469e-08 3.51179e-09 -7.32897e-08 1.54985e-07 -6.09171e-08)
(-1.7898e-06 -5.48453e-08 2.17908e-08 2.37618e-07 8.03355e-08 -5.86504e-08)
(-2.02184e-06 -2.10508e-08 -3.15452e-08 -3.30193e-07 9.2477e-08 -2.15077e-07)
(-4.49139e-07 -4.06602e-08 -7.94031e-09 -1.69195e-07 1.33085e-07 -2.23385e-07)
(-4.31197e-07 4.34051e-08 9.89545e-09 -1.78048e-07 1.35236e-07 -2.24946e-07)
(-1.85869e-06 2.2542e-08 3.21443e-08 -3.50224e-07 9.91734e-08 -2.19604e-07)
(-2.05134e-06 -2.79333e-08 -3.08501e-08 -3.45573e-07 8.3189e-08 -2.95443e-07)
(-4.50342e-07 -2.76569e-08 -8.13394e-09 -2.50475e-07 9.6396e-08 -3.05747e-07)
(-4.32981e-07 2.93698e-08 1.0208e-08 -2.56607e-07 9.81192e-08 -3.07954e-07)
(-1.88594e-06 2.83964e-08 3.15207e-08 -3.61318e-07 8.8587e-08 -3.01798e-07)
(-2.08619e-06 -1.86711e-08 -2.93992e-08 -3.40071e-07 7.67569e-08 -3.30235e-07)
(-4.05705e-07 -2.08241e-08 -6.99612e-09 -3.38417e-07 7.9172e-08 -3.40609e-07)
(-3.88474e-07 2.14732e-08 9.09812e-09 -3.43228e-07 8.05401e-08 -3.43308e-07)
(-1.91725e-06 1.89809e-08 3.00961e-08 -3.53745e-07 8.10542e-08 -3.37955e-07)
(-2.16381e-06 -3.9757e-09 -2.90051e-08 -3.45943e-07 8.81483e-08 -3.68565e-07)
(-3.93949e-07 -1.19381e-08 -6.75148e-09 -3.92924e-07 8.73674e-08 -3.77906e-07)
(-3.76297e-07 1.18391e-08 8.84049e-09 -3.9736e-07 8.84247e-08 -3.80909e-07)
(-1.9903e-06 4.12321e-09 2.97235e-08 -3.58617e-07 9.14506e-08 -3.77124e-07)
(-2.32506e-06 2.79469e-08 -2.88156e-08 -4.14725e-07 1.05317e-07 -4.40692e-07)
(-4.74536e-07 6.70458e-09 -7.12886e-09 -4.27124e-07 1.03651e-07 -4.48702e-07)
(-4.56403e-07 -7.88523e-09 9.14267e-09 -4.31228e-07 1.04416e-07 -4.51887e-07)
(-2.14652e-06 -2.82938e-08 2.95537e-08 -4.26365e-07 1.07686e-07 -4.49746e-07)
(-2.62739e-06 9.01283e-08 -2.84033e-08 -9.62014e-07 9.96533e-08 -5.53104e-07)
(-7.1103e-07 3.88371e-08 -7.68245e-09 -7.96232e-07 9.75088e-08 -5.60936e-07)
(-6.92672e-07 -4.22149e-08 9.46315e-09 -7.95589e-07 9.79603e-08 -5.6423e-07)
(-2.44471e-06 -9.14124e-08 2.91196e-08 -9.61642e-07 1.0108e-07 -5.62437e-07)
(-3.22075e-06 1.26036e-07 -2.86277e-08 -3.28144e-06 6.18158e-08 -6.4676e-07)
(-1.05347e-06 5.95208e-08 -8.10517e-09 -2.82623e-06 5.96417e-08 -6.54588e-07)
(-1.03426e-06 -5.90252e-08 9.29604e-09 -2.78892e-06 5.97878e-08 -6.57937e-07)
(-3.03444e-06 -1.2564e-07 2.91642e-08 -3.17831e-06 6.23176e-08 -6.5622e-07)
(-1.76889e-06 4.1677e-08 -5.73834e-09 1.78018e-07 9.74161e-08 -6.10166e-09)
(-2.01704e-07 -8.9377e-08 3.89936e-09 -1.29727e-07 1.457e-07 -2.86362e-08)
(-1.8845e-07 8.86454e-08 -2.9269e-09 -1.41878e-07 1.4751e-07 -2.93544e-08)
(-1.61458e-06 -3.61322e-08 5.90973e-09 1.3208e-07 1.03161e-07 -8.10578e-09)
(-1.84244e-06 -2.21439e-08 -7.05795e-09 -3.77777e-07 1.17612e-07 -9.72242e-08)
(-3.48099e-07 -4.13732e-08 4.72977e-09 -2.34835e-07 1.41872e-07 -1.39576e-07)
(-3.30865e-07 4.30824e-08 -3.22107e-09 -2.43303e-07 1.43524e-07 -1.4108e-07)
(-1.6841e-06 2.32196e-08 7.4148e-09 -3.9699e-07 1.22782e-07 -1.01475e-07)
(-1.87559e-06 -2.54777e-08 -4.93904e-09 -3.54698e-07 1.13127e-07 -1.86684e-07)
(-3.43871e-07 -2.62859e-08 5.94193e-09 -2.746e-07 1.20639e-07 -2.35678e-07)
(-3.27096e-07 2.7322e-08 -4.45473e-09 -2.80735e-07 1.22095e-07 -2.37725e-07)
(-1.71476e-06 2.57014e-08 5.32699e-09 -3.70663e-07 1.17642e-07 -1.92513e-07)
(-1.91353e-06 -1.69737e-08 -2.90953e-09 -3.09065e-07 1.03421e-07 -2.52868e-07)
(-3.03896e-07 -1.98296e-08 7.29558e-09 -3.13592e-07 1.04076e-07 -3.03958e-07)
(-2.87181e-07 1.99952e-08 -5.91798e-09 -3.18567e-07 1.05321e-07 -3.06432e-07)
(-1.74895e-06 1.71096e-08 3.27788e-09 -3.23345e-07 1.07265e-07 -2.59922e-07)
(-1.9942e-06 -3.12315e-09 -1.69493e-09 -2.84312e-07 9.89927e-08 -3.12998e-07)
(-2.96644e-07 -1.17609e-08 7.99648e-09 -3.32969e-07 9.78414e-08 -3.64706e-07)
(-2.79447e-07 1.13006e-08 -6.71122e-09 -3.37582e-07 9.88617e-08 -3.67493e-07)
(-1.82464e-06 3.15203e-09 2.04493e-09 -2.97621e-07 1.02119e-07 -3.20934e-07)
(-2.16016e-06 2.81353e-08 -1.10977e-09 -3.37841e-07 9.15503e-08 -3.82018e-07)
(-3.80466e-07 6.1736e-09 7.97657e-09 -3.51925e-07 9.02751e-08 -4.3356e-07)
(-3.62691e-07 -7.6171e-09 -6.80167e-09 -3.56167e-07 9.1049e-08 -4.36555e-07)
(-1.98483e-06 -2.85401e-08 1.4448e-09 -3.49988e-07 9.39084e-08 -3.9053e-07)
(-2.4694e-06 8.83495e-08 -1.49754e-09 -8.81645e-07 6.49333e-08 -4.49863e-07)
(-6.17757e-07 3.71421e-08 7.13648e-09 -7.22802e-07 6.31834e-08 -5.00537e-07)
(-5.99597e-07 -4.07057e-08 -6.21786e-09 -7.22256e-07 6.3668e-08 -5.03651e-07)
(-2.2887e-06 -8.96377e-08 1.7784e-09 -8.81569e-07 6.64362e-08 -4.58689e-07)
(-3.06487e-06 1.22414e-07 -2.75572e-09 -3.13491e-06 3.0938e-08 -4.71751e-07)
(-9.57061e-07 5.72201e-08 6.69773e-09 -2.6888e-06 2.77794e-08 -5.20838e-07)
(-9.37855e-07 -5.68087e-08 -6.3947e-09 -2.6518e-06 2.79315e-08 -5.23986e-07)
(-2.87901e-06 -1.22003e-07 2.8308e-09 -3.0325e-06 3.14466e-08 -4.80655e-07)
(-1.66868e-06 3.58214e-08 -9.41874e-10 1.36336e-07 9.02173e-08 -1.30444e-08)
(-1.81706e-07 -8.83574e-08 4.20457e-09 -1.51837e-07 1.14331e-07 -2.92643e-08)
(-1.68989e-07 8.66385e-08 -3.45397e-09 -1.6341e-07 1.15605e-07 -2.97733e-08)
(-1.51795e-06 -3.09698e-08 1.08272e-09 9.28e-08 9.42697e-08 -1.45247e-08)
(-1.74059e-06 -2.10435e-08 1.90631e-10 -3.97375e-07 1.07459e-07 -8.40726e-08)
(-3.1388e-07 -4.00852e-08 6.67922e-09 -2.63919e-07 1.19105e-07 -1.15192e-07)
(-2.9731e-07 4.10409e-08 -5.45975e-09 -2.72025e-07 1.20317e-07 -1.1639e-07)
(-1.58588e-06 2.17998e-08 1.02359e-10 -4.15765e-07 1.11252e-07 -8.75501e-08)
(-1.77729e-06 -2.32991e-08 2.10404e-09 -3.63724e-07 1.09106e-07 -1.69139e-07)
(-3.10853e-07 -2.49141e-08 8.04754e-09 -2.91363e-07 1.12088e-07 -2.05291e-07)
(-2.94651e-07 2.54538e-08 -6.84974e-09 -2.97399e-07 1.13202e-07 -2.0697e-07)
(-1.61991e-06 2.33493e-08 -1.79262e-09 -3.79584e-07 1.12557e-07 -1.74031e-07)
(-1.8194e-06 -1.5348e-08 3.70411e-09 -2.97101e-07 1.01143e-07 -2.47576e-07)
(-2.76602e-07 -1.88646e-08 9.06985e-09 -3.04645e-07 1.00612e-07 -2.85027e-07)
(-2.60389e-07 1.87235e-08 -8.0088e-09 -3.09686e-07 1.01605e-07 -2.87078e-07)
(-1.65806e-06 1.53795e-08 -3.42661e-09 -3.11678e-07 1.04204e-07 -2.53571e-07)
(-1.9038e-06 -2.22431e-09 4.73631e-09 -2.54827e-07 8.9174e-08 -3.17379e-07)
(-2.74482e-07 -1.14087e-08 9.6225e-09 -3.03961e-07 8.80546e-08 -3.54952e-07)
(-2.57738e-07 1.07568e-08 -8.68949e-09 -3.08701e-07 8.89001e-08 -3.57299e-07)
(-1.73719e-06 2.19471e-09 -4.49583e-09 -2.68589e-07 9.17613e-08 -3.24236e-07)
(-2.07288e-06 2.8e-08 5.1066e-09 -3.04682e-07 7.045e-08 -3.79136e-07)
(-3.61084e-07 5.6937e-09 9.58497e-09 -3.19921e-07 6.98406e-08 -4.1631e-07)
(-3.43698e-07 -7.26385e-09 -8.78571e-09 -3.24294e-07 7.05016e-08 -4.18872e-07)
(-1.90001e-06 -2.84255e-08 -4.90133e-09 -3.17273e-07 7.24685e-08 -3.86615e-07)
(-2.38368e-06 8.61923e-08 4.4726e-09 -8.47388e-07 4.07488e-08 -4.22453e-07)
(-5.97136e-07 3.54322e-08 8.83039e-09 -6.94814e-07 4.01488e-08 -4.58919e-07)
(-5.79261e-07 -3.90937e-08 -8.27788e-09 -6.94386e-07 4.05721e-08 -4.61607e-07)
(-2.20467e-06 -8.74754e-08 -4.33683e-09 -8.47664e-07 4.20712e-08 -4.30296e-07)
(-2.97393e-06 1.1882e-07 3.33162e-09 -3.0415e-06 1.67058e-08 -4.27507e-07)
(-9.32079e-07 5.50523e-08 8.51451e-09 -2.60754e-06 1.46933e-08 -4.63927e-07)
(-9.13029e-07 -5.47074e-08 -8.50107e-09 -2.57072e-06 1.48256e-08 -4.66633e-07)
(-2.78873e-06 -1.1841e-07 -3.39234e-09 -2.93956e-06 1.71478e-08 -4.35412e-07)
(-1.61217e-06 3.45164e-08 -7.46608e-11 1.19561e-07 7.01928e-08 -2.17315e-08)
(-1.7518e-07 -8.58927e-08 2.73992e-09 -1.59451e-07 8.13636e-08 -3.0217e-08)
(-1.62822e-07 8.35841e-08 -2.20692e-09 -1.70604e-07 8.22189e-08 -3.0618e-08)
(-1.4637e-06 -3.01006e-08 1.88993e-10 7.77257e-08 7.28868e-08 -2.29137e-08)
(-1.68352e-06 -1.97223e-08 1.02532e-09 -4.01045e-07 8.18189e-08 -8.86183e-08)
(-3.04476e-07 -3.86466e-08 4.64626e-09 -2.7268e-07 8.67514e-08 -1.04951e-07)
(-2.8837e-07 3.91184e-08 -3.7444e-09 -2.80517e-07 8.7581e-08 -1.05947e-07)
(-1.53115e-06 2.02689e-08 -7.86888e-10 -4.1879e-07 8.44014e-08 -9.15329e-08)
(-1.7229e-06 -2.18147e-08 2.28875e-09 -3.66052e-07 8.52092e-08 -1.67477e-07)
(-3.04495e-07 -2.39483e-08 5.60878e-09 -2.97431e-07 8.5968e-08 -1.86317e-07)
(-2.88703e-07 2.41392e-08 -4.70497e-09 -3.03369e-07 8.67451e-08 -1.87751e-07)
(-1.56774e-06 2.17413e-08 -2.03308e-09 -3.81746e-07 8.76165e-08 -1.71686e-07)
(-1.76835e-06 -1.42642e-08 3.28383e-09 -2.93377e-07 7.98883e-08 -2.45505e-07)
(-2.74862e-07 -1.82555e-08 6.21589e-09 -3.02091e-07 7.9091e-08 -2.64662e-07)
(-2.59007e-07 1.78911e-08 -5.42189e-09 -3.07151e-07 7.97998e-08 -2.66439e-07)
(-1.60905e-06 1.422e-08 -3.05801e-09 -3.08084e-07 8.20781e-08 -2.50751e-07)
(-1.85562e-06 -1.65659e-09 3.91549e-09 -2.45413e-07 6.78605e-08 -3.14952e-07)
(-2.76551e-07 -1.12005e-08 6.51341e-09 -2.94332e-07 6.70951e-08 -3.33771e-07)
(-2.60125e-07 1.04131e-08 -5.83794e-09 -2.9915e-07 6.77121e-08 -3.3583e-07)
(-1.69083e-06 1.5857e-09 -3.72707e-09 -2.59461e-07 6.97573e-08 -3.21044e-07)
(-2.02637e-06 2.77659e-08 4.07619e-09 -2.9501e-07 4.93359e-08 -3.70202e-07)
(-3.64782e-07 5.32549e-09 6.43802e-09 -3.10579e-07 4.92493e-08 -3.88597e-07)
(-3.47672e-07 -6.98211e-09 -5.88752e-09 -3.15049e-07 4.97409e-08 -3.90871e-07)
(-1.85503e-06 -2.82072e-08 -3.92622e-09 -3.0793e-07 5.08488e-08 -3.76943e-07)
(-2.33668e-06 8.46333e-08 3.56473e-09 -8.33445e-07 2.55911e-08 -4.03897e-07)
(-5.99199e-07 3.43061e-08 5.93194e-09 -6.84578e-07 2.57671e-08 -4.22071e-07)
(-5.81535e-07 -3.80358e-08 -5.58457e-09 -6.84247e-07 2.60862e-08 -4.24476e-07)
(-2.15871e-06 -8.59185e-08 -3.47934e-09 -8.34015e-07 2.66002e-08 -4.11044e-07)
(-2.92129e-06 1.16449e-07 2.74338e-09 -2.98322e-06 9.71736e-09 -4.09292e-07)
(-9.30566e-07 5.36878e-08 5.69753e-09 -2.55761e-06 8.83428e-09 -4.28171e-07)
(-9.11651e-07 -5.33946e-08 -5.76332e-09 -2.52091e-06 8.93508e-09 -4.30586e-07)
(-2.7365e-06 -1.16049e-07 -2.8166e-09 -2.88158e-06 1.00564e-08 -4.16509e-07)
(-1.58112e-06 3.42538e-08 -4.4096e-11 1.13009e-07 4.40773e-08 -2.68157e-08)
(-1.72723e-07 -8.41459e-08 1.37669e-09 -1.6176e-07 4.89504e-08 -3.10286e-08)
(-1.6058e-07 8.15076e-08 -1.0585e-09 -1.72639e-07 4.94436e-08 -3.13768e-08)
(-1.43396e-06 -3.00883e-08 1.18354e-10 7.22527e-08 4.56147e-08 -2.78317e-08)
(-1.65241e-06 -1.8865e-08 5.26461e-10 -3.99558e-07 5.04162e-08 -9.34374e-08)
(-3.01888e-07 -3.77318e-08 2.37059e-09 -2.73935e-07 5.23348e-08 -1.0134e-07)
(-2.8606e-07 3.79246e-08 -1.81744e-09 -2.81595e-07 5.28182e-08 -1.02222e-07)
(-1.50141e-06 1.92905e-08 -3.70012e-10 -4.16864e-07 5.19123e-08 -9.59948e-08)
(-1.69349e-06 -2.0976e-08 1.18216e-09 -3.65208e-07 5.28835e-08 -1.67811e-07)
(-3.04351e-07 -2.34147e-08 2.8736e-09 -2.98345e-07 5.29264e-08 -1.76654e-07)
(-2.88806e-07 2.33887e-08 -2.3086e-09 -3.04213e-07 5.33842e-08 -1.77943e-07)
(-1.53962e-06 2.08254e-08 -1.01173e-09 -3.80762e-07 5.43e-08 -1.71571e-07)
(-1.74104e-06 -1.36734e-08 1.6906e-09 -2.92503e-07 4.98465e-08 -2.41875e-07)
(-2.77646e-07 -1.79548e-08 3.16721e-09 -3.01575e-07 4.92793e-08 -2.5052e-07)
(-2.62006e-07 1.74396e-08 -2.6687e-09 -3.06638e-07 4.97018e-08 -2.52137e-07)
(-1.58292e-06 1.35774e-08 -1.53883e-09 -3.07261e-07 5.11548e-08 -2.46634e-07)
(-1.83005e-06 -1.37146e-09 2.0025e-09 -2.4424e-07 4.16934e-08 -3.07763e-07)
(-2.81582e-07 -1.11227e-08 3.29218e-09 -2.92774e-07 4.13016e-08 -3.1596e-07)
(-2.65346e-07 1.02377e-08 -2.87364e-09 -2.97636e-07 4.16741e-08 -3.17852e-07)
(-1.6663e-06 1.2697e-09 -1.87689e-09 -2.58451e-07 4.28437e-08 -3.13363e-07)
(-2.00158e-06 2.75863e-08 2.05908e-09 -2.94248e-07 2.92449e-08 -3.58765e-07)
(-3.70598e-07 5.1018e-09 3.2299e-09 -3.09723e-07 2.93592e-08 -3.66706e-07)
(-3.5365e-07 -6.82275e-09 -2.89804e-09 -3.14256e-07 2.96594e-08 -3.68815e-07)
(-1.83109e-06 -2.80423e-08 -1.96169e-09 -3.07378e-07 3.01749e-08 -3.65034e-07)
(-2.31101e-06 8.3742e-08 1.76311e-09 -8.28185e-07 1.45661e-08 -3.89635e-07)
(-6.03787e-07 3.37161e-08 2.96176e-09 -6.81075e-07 1.49281e-08 -3.97734e-07)
(-5.86246e-07 -3.74955e-08 -2.76263e-09 -6.80809e-07 1.51247e-08 -3.99977e-07)
(-2.13363e-06 -8.50333e-08 -1.71018e-09 -8.28954e-07 1.51937e-08 -3.96339e-07)
(-2.8916e-06 1.1516e-07 1.27429e-09 -2.94952e-06 5.32104e-09 -3.9816e-07)
(-9.32788e-07 5.29856e-08 2.80617e-09 -2.52838e-06 5.04655e-09 -4.071e-07)
(-9.13955e-07 -5.27286e-08 -2.86584e-09 -2.49173e-06 5.10922e-09 -4.0935e-07)
(-2.70703e-06 -1.14771e-07 -1.32334e-09 -2.84807e-06 5.53336e-09 -4.04945e-07)
(-1.5672e-06 3.4169e-08 -2.92524e-11 1.10835e-07 1.49903e-08 -2.90216e-08)
(-1.71734e-07 -8.33512e-08 4.05897e-10 -1.62209e-07 1.63764e-08 -3.16201e-08)
(-1.59691e-07 8.05655e-08 -3.0012e-10 -1.72953e-07 1.65376e-08 -3.19457e-08)
(-1.42065e-06 -3.01174e-08 5.47926e-11 7.06005e-08 1.54897e-08 -2.99612e-08)
(-1.63851e-06 -1.84914e-08 1.29804e-10 -3.97941e-07 1.69735e-08 -9.58447e-08)
(-3.01001e-07 -3.7335e-08 6.96844e-10 -2.73544e-07 1.74784e-08 -1.00518e-07)
(-2.85304e-07 3.74016e-08 -5.10511e-10 -2.81116e-07 1.76371e-08 -1.01348e-07)
(-1.48813e-06 1.88623e-08 -7.55768e-11 -4.15024e-07 1.7463e-08 -9.82289e-08)
(-1.68038e-06 -2.06156e-08 3.25714e-10 -3.64185e-07 1.78146e-08 -1.67971e-07)
(-3.0467e-07 -2.31946e-08 8.46025e-10 -2.98035e-07 1.77785e-08 -1.72969e-07)
(-2.89241e-07 2.30659e-08 -6.53681e-10 -3.03867e-07 1.79296e-08 -1.74189e-07)
(-1.5271e-06 2.04285e-08 -2.66056e-10 -3.79662e-07 1.82817e-08 -1.71508e-07)
(-1.7289e-06 -1.3424e-08 4.78492e-10 -2.92395e-07 1.68189e-08 -2.39252e-07)
(-2.79326e-07 -1.78405e-08 9.30718e-10 -3.0155e-07 1.66245e-08 -2.43885e-07)
(-2.63785e-07 1.72494e-08 -7.60225e-10 -3.06611e-07 1.67648e-08 -2.45428e-07)
(-1.57133e-06 1.33017e-08 -4.25007e-10 -3.0717e-07 1.72535e-08 -2.43768e-07)
(-1.8187e-06 -1.2583e-09 5.7025e-10 -2.44861e-07 1.39947e-08 -3.02581e-07)
(-2.84264e-07 -1.11029e-08 9.63139e-10 -2.93146e-07 1.38805e-08 -3.06792e-07)
(-2.68114e-07 1.01657e-08 -8.20516e-10 -2.98028e-07 1.40048e-08 -3.08607e-07)
(-1.65543e-06 1.1396e-09 -5.26009e-10 -2.59146e-07 1.43795e-08 -3.07936e-07)
(-1.99051e-06 2.74984e-08 5.83597e-10 -2.95189e-07 9.70167e-09 -3.5155e-07)
(-3.73583e-07 5.0024e-09 9.40525e-10 -3.10528e-07 9.76865e-09 -3.55639e-07)
(-3.56708e-07 -6.75902e-09 -8.28649e-10 -3.15091e-07 9.86939e-09 -3.57671e-07)
(-1.82041e-06 -2.79636e-08 -5.49575e-10 -3.08419e-07 1.00149e-08 -3.57584e-07)
(-2.2994e-06 8.33539e-08 4.89616e-10 -8.26532e-07 4.78539e-09 -3.81822e-07)
(-6.06152e-07 3.34774e-08 8.58754e-10 -6.80077e-07 4.94723e-09 -3.8625e-07)
(-5.88667e-07 -3.72838e-08 -7.92915e-10 -6.79843e-07 5.01347e-09 -3.88418e-07)
(-2.12227e-06 -8.46498e-08 -4.71294e-10 -8.274e-07 4.99799e-09 -3.88308e-07)
(-2.87797e-06 1.14613e-07 3.27492e-10 -2.93416e-06 1.71896e-09 -3.92295e-07)
(-9.33996e-07 5.27014e-08 8.03314e-10 -2.51485e-06 1.66965e-09 -3.97534e-07)
(-9.152e-07 -5.24633e-08 -8.25545e-10 -2.47824e-06 1.69086e-09 -3.99709e-07)
(-2.69349e-06 -1.1423e-07 -3.44226e-10 -2.83279e-06 1.79112e-09 -3.98868e-07)
)
;

boundaryField
{
    interface
    {
        type            calculated;
        value           nonuniform List<symmTensor> 
192
(
(-4.65211e-06 2.30091e-12 1.81658e-11 1.33622e-06 2.04413e-07 -2.85429e-06)
(-4.35696e-06 1.96426e-12 2.92872e-11 -4.45595e-07 2.25186e-08 -2.88872e-06)
(-4.44669e-06 7.72621e-14 3.31405e-11 -5.24054e-07 -3.8517e-09 -2.9471e-06)
(-4.58365e-06 -2.74093e-12 3.41015e-11 -4.74606e-07 4.83644e-09 -3.02367e-06)
(-4.75222e-06 -5.17869e-12 3.37125e-11 -4.83631e-07 2.40511e-08 -3.12841e-06)
(-4.97658e-06 -9.50786e-12 3.27788e-11 -6.4715e-07 5.87677e-08 -3.27966e-06)
(-5.26805e-06 -1.27835e-11 3.02092e-11 -1.404e-06 1.14114e-07 -3.51755e-06)
(-5.80907e-06 -2.85347e-11 2.82114e-11 -3.97808e-06 1.41598e-07 -3.97656e-06)
(-3.87394e-06 1.65142e-12 8.92172e-12 5.86522e-07 -5.32033e-09 -5.12705e-07)
(-3.67205e-06 1.44491e-12 1.54282e-11 -2.86531e-07 2.61711e-08 -8.10667e-07)
(-3.72355e-06 -2.37471e-13 1.72612e-11 -3.78803e-07 2.36075e-08 -8.5877e-07)
(-3.82845e-06 -3.11143e-12 1.73823e-11 -4.0103e-07 2.72511e-08 -8.69487e-07)
(-3.98122e-06 -5.69248e-12 1.67378e-11 -4.31166e-07 5.29052e-08 -8.99143e-07)
(-4.20994e-06 -1.0471e-11 1.57992e-11 -5.3995e-07 9.4375e-08 -9.74807e-07)
(-4.54809e-06 -1.41016e-11 1.41417e-11 -1.13364e-06 1.27842e-07 -1.14004e-06)
(-5.27093e-06 -3.06424e-11 1.2816e-11 -3.51868e-06 1.14883e-07 -1.40508e-06)
(-3.39277e-06 1.41304e-12 7.01395e-12 2.86841e-07 7.21296e-08 -5.62308e-08)
(-3.30188e-06 1.19004e-12 1.19819e-11 -3.30193e-07 9.2477e-08 -2.15077e-07)
(-3.35951e-06 -4.6016e-13 1.33527e-11 -3.45573e-07 8.3189e-08 -2.95443e-07)
(-3.45815e-06 -3.48345e-12 1.34074e-11 -3.40071e-07 7.67569e-08 -3.30235e-07)
(-3.60946e-06 -6.31208e-12 1.28783e-11 -3.45943e-07 8.81483e-08 -3.68565e-07)
(-3.84759e-06 -1.16198e-11 1.21198e-11 -4.14725e-07 1.05317e-07 -4.40692e-07)
(-4.21367e-06 -1.57819e-11 1.09151e-11 -9.62014e-07 9.96533e-08 -5.53104e-07)
(-4.9843e-06 -3.34328e-11 9.89864e-12 -3.28144e-06 6.18158e-08 -6.4676e-07)
(-3.10356e-06 1.06463e-12 4.27658e-12 1.78018e-07 9.74161e-08 -6.10166e-09)
(-3.05002e-06 7.06821e-13 7.72988e-12 -3.77777e-07 1.17612e-07 -9.72242e-08)
(-3.11559e-06 -9.50066e-13 8.63691e-12 -3.54698e-07 1.13127e-07 -1.86684e-07)
(-3.21553e-06 -4.01099e-12 8.58902e-12 -3.09065e-07 1.03421e-07 -2.52868e-07)
(-3.36869e-06 -6.95059e-12 8.13863e-12 -2.84312e-07 9.89927e-08 -3.12998e-07)
(-3.61228e-06 -1.24882e-11 7.54939e-12 -3.37841e-07 9.15503e-08 -3.82018e-07)
(-3.98999e-06 -1.68887e-11 6.77915e-12 -8.81645e-07 6.49333e-08 -4.49863e-07)
(-4.76928e-06 -3.48174e-11 6.16195e-12 -3.13491e-06 3.0938e-08 -4.71751e-07)
(-2.93359e-06 8.9777e-13 3.12202e-12 1.36336e-07 9.02173e-08 -1.30444e-08)
(-2.89028e-06 4.06395e-13 5.64621e-12 -3.97375e-07 1.07459e-07 -8.40726e-08)
(-2.96028e-06 -1.30889e-12 6.31406e-12 -3.63724e-07 1.09106e-07 -1.69139e-07)
(-3.06307e-06 -4.43263e-12 6.27786e-12 -2.97101e-07 1.01143e-07 -2.47576e-07)
(-3.2189e-06 -7.48829e-12 5.94551e-12 -2.54827e-07 8.9174e-08 -3.17379e-07)
(-3.46559e-06 -1.32226e-11 5.50703e-12 -3.04682e-07 7.045e-08 -3.79136e-07)
(-3.84686e-06 -1.78409e-11 4.96643e-12 -8.47388e-07 4.07488e-08 -4.22453e-07)
(-4.62151e-06 -3.60497e-11 4.52079e-12 -3.0415e-06 1.67058e-08 -4.27507e-07)
(-2.83423e-06 7.67754e-13 1.90246e-12 1.19561e-07 7.01928e-08 -2.17315e-08)
(-2.79416e-06 1.65077e-13 3.55922e-12 -4.01045e-07 8.18189e-08 -8.86183e-08)
(-2.86646e-06 -1.60379e-12 4.00113e-12 -3.66052e-07 8.52092e-08 -1.67477e-07)
(-2.97164e-06 -4.76557e-12 3.96773e-12 -2.93377e-07 7.98883e-08 -2.45505e-07)
(-3.12966e-06 -7.8866e-12 3.73835e-12 -2.45413e-07 6.78605e-08 -3.14952e-07)
(-3.37791e-06 -1.37212e-11 3.44271e-12 -2.9501e-07 4.93359e-08 -3.70202e-07)
(-3.7594e-06 -1.84535e-11 3.10764e-12 -8.33445e-07 2.55911e-08 -4.03897e-07)
(-4.52742e-06 -3.68035e-11 2.84144e-12 -2.98322e-06 9.71736e-09 -4.09292e-07)
(-2.77872e-06 7.04221e-13 1.11455e-12 1.13009e-07 4.40773e-08 -2.68157e-08)
(-2.73997e-06 2.5429e-14 2.08309e-12 -3.99558e-07 5.04162e-08 -9.34374e-08)
(-2.81345e-06 -1.79011e-12 2.3435e-12 -3.65208e-07 5.28835e-08 -1.67811e-07)
(-2.92015e-06 -4.98419e-12 2.32495e-12 -2.92503e-07 4.98465e-08 -2.41875e-07)
(-3.07956e-06 -8.15472e-12 2.19226e-12 -2.4424e-07 4.16934e-08 -3.07763e-07)
(-3.32847e-06 -1.40587e-11 2.01756e-12 -2.94248e-07 2.92449e-08 -3.58765e-07)
(-3.70925e-06 -1.88715e-11 1.82747e-12 -8.28185e-07 1.45661e-08 -3.89635e-07)
(-4.47227e-06 -3.7327e-11 1.66803e-12 -2.94952e-06 5.32104e-09 -3.9816e-07)
(-2.75372e-06 6.64777e-13 3.29471e-13 1.10835e-07 1.49903e-08 -2.90216e-08)
(-2.7155e-06 -5.29979e-14 6.38918e-13 -3.97941e-07 1.69735e-08 -9.58447e-08)
(-2.7895e-06 -1.88902e-12 7.23229e-13 -3.64185e-07 1.78146e-08 -1.67971e-07)
(-2.89692e-06 -5.09369e-12 7.15964e-13 -2.92395e-07 1.68189e-08 -2.39252e-07)
(-3.05696e-06 -8.28439e-12 6.72617e-13 -2.44861e-07 1.39947e-08 -3.02581e-07)
(-3.30609e-06 -1.4214e-11 6.15509e-13 -2.95189e-07 9.70167e-09 -3.5155e-07)
(-3.68632e-06 -1.90638e-11 5.58566e-13 -8.26532e-07 4.78539e-09 -3.81822e-07)
(-4.44678e-06 -3.75632e-11 5.08313e-13 -2.93416e-06 1.71896e-09 -3.92295e-07)
(-2.78048e-06 1.82491e-07 -2.55946e-11 1.33622e-06 -6.03966e-12 -4.79118e-06)
(-2.85126e-06 -2.30234e-09 -4.33597e-11 -4.45595e-07 -7.10752e-12 -4.47432e-06)
(-2.91259e-06 -2.80692e-08 -5.02293e-11 -5.24054e-07 -5.88908e-12 -4.56518e-06)
(-2.97064e-06 -1.81069e-08 -5.25542e-11 -4.74606e-07 -4.26382e-12 -4.71099e-06)
(-3.06089e-06 -2.06865e-09 -5.32129e-11 -4.83631e-07 -3.5723e-12 -4.88601e-06)
(-3.21729e-06 2.826e-08 -5.37595e-11 -6.4715e-07 -3.82303e-12 -5.10895e-06)
(-3.47723e-06 8.48318e-08 -5.45495e-11 -1.404e-06 -4.68906e-12 -5.39402e-06)
(-3.94031e-06 1.14913e-07 -5.96984e-11 -3.97808e-06 -6.07221e-12 -5.93191e-06)
(-5.76061e-07 -4.45974e-08 -1.53594e-11 8.3384e-07 -3.58864e-12 -4.29449e-06)
(-9.77382e-07 -3.30713e-08 -2.9328e-11 -2.05791e-07 -5.29633e-12 -3.99928e-06)
(-1.01945e-06 -2.85195e-08 -3.42798e-11 -3.76729e-07 -4.48144e-12 -4.02535e-06)
(-9.79494e-07 -2.12344e-08 -3.57206e-11 -4.5495e-07 -2.69444e-12 -4.12909e-06)
(-9.71933e-07 -1.06497e-08 -3.61322e-11 -5.24301e-07 -1.5341e-12 -4.2807e-06)
(-1.05551e-06 8.21696e-09 -3.68692e-11 -6.58354e-07 -9.28224e-13 -4.49556e-06)
(-1.28503e-06 3.84255e-08 -3.87568e-11 -1.2564e-06 -1.04508e-12 -4.81213e-06)
(-1.60893e-06 5.47877e-08 -4.55999e-11 -3.64845e-06 -1.58481e-12 -5.53666e-06)
(-5.61661e-07 4.64683e-08 -1.54635e-11 8.17402e-07 -2.56985e-12 -4.23118e-06)
(-9.58236e-07 3.86116e-08 -2.9801e-11 -2.12762e-07 -4.16315e-12 -3.93748e-06)
(-1.00055e-06 3.37844e-08 -3.5099e-11 -3.8182e-07 -3.51044e-12 -3.96127e-06)
(-9.60705e-07 2.5162e-08 -3.67026e-11 -4.59409e-07 -1.61511e-12 -4.06325e-06)
(-9.52933e-07 1.32295e-08 -3.70863e-11 -5.28647e-07 -1.53061e-13 -4.21363e-06)
(-1.03642e-06 -7.37087e-09 -3.76019e-11 -6.62446e-07 1.02713e-12 -4.42731e-06)
(-1.26616e-06 -4.04684e-08 -3.90836e-11 -1.25581e-06 1.66861e-12 -4.74286e-06)
(-1.58947e-06 -5.38671e-08 -4.5604e-11 -3.61191e-06 1.73219e-12 -5.4691e-06)
(-2.61545e-06 -1.75096e-07 -1.72973e-11 1.27532e-06 -2.069e-12 -4.6118e-06)
(-2.67914e-06 5.23537e-09 -3.43048e-11 -4.60646e-07 -3.46789e-12 -4.30198e-06)
(-2.73756e-06 3.0149e-08 -4.1013e-11 -5.36671e-07 -2.80269e-12 -4.38613e-06)
(-2.79244e-06 1.97943e-08 -4.31564e-11 -4.86857e-07 -7.97261e-13 -4.52689e-06)
(-2.87959e-06 3.2471e-09 -4.36402e-11 -4.9558e-07 7.81945e-13 -4.69844e-06)
(-3.03364e-06 -2.79066e-08 -4.42689e-11 -6.58372e-07 2.22838e-12 -4.91829e-06)
(-3.29277e-06 -8.56892e-08 -4.53792e-11 -1.40366e-06 3.30209e-12 -5.20094e-06)
(-3.75389e-06 -1.14367e-07 -5.21549e-11 -3.87856e-06 4.31715e-12 -5.74587e-06)
(-4.35086e-06 5.31658e-12 5.15346e-12 1.27532e-06 2.07563e-07 -2.75818e-06)
(-4.05101e-06 6.33947e-12 1.00974e-11 -4.60646e-07 2.6119e-08 -2.79536e-06)
(-4.13442e-06 4.05957e-12 1.16644e-11 -5.36671e-07 -1.35726e-09 -2.85107e-06)
(-4.26483e-06 4.38201e-13 1.2307e-11 -4.86857e-07 6.47533e-09 -2.92539e-06)
(-4.42764e-06 -1.46743e-12 1.27002e-11 -4.9558e-07 2.5167e-08 -3.02847e-06)
(-4.64745e-06 -4.12109e-12 1.41125e-11 -6.58372e-07 5.95282e-08 -3.17826e-06)
(-4.93686e-06 -3.90933e-12 1.51938e-11 -1.40366e-06 1.14487e-07 -3.41513e-06)
(-5.47515e-06 -1.82505e-11 1.88913e-11 -3.87856e-06 1.41733e-07 -3.87784e-06)
(-3.5734e-06 2.13299e-12 -1.75928e-12 5.32448e-07 6.45019e-09 -5.07531e-07)
(-3.37325e-06 2.73515e-12 -1.23769e-12 -3.06251e-07 3.37516e-08 -8.05663e-07)
(-3.41936e-06 1.54227e-12 -1.60366e-12 -3.93423e-07 2.89616e-08 -8.55435e-07)
(-3.51726e-06 -6.31365e-13 -1.67375e-12 -4.13766e-07 3.11331e-08 -8.67146e-07)
(-3.66267e-06 -1.27234e-12 -1.3177e-12 -4.43184e-07 5.56802e-08 -8.97264e-07)
(-3.88422e-06 -2.90498e-12 1.42399e-13 -5.51166e-07 9.62371e-08 -9.73229e-07)
(-4.21746e-06 -1.18466e-12 1.94916e-12 -1.13319e-06 1.28798e-07 -1.1388e-06)
(-4.93753e-06 -1.4683e-11 4.87808e-12 -3.41507e-06 1.15186e-07 -1.40409e-06)
(-3.10196e-06 1.1715e-12 -7.14922e-13 2.37618e-07 8.03355e-08 -5.86504e-08)
(-3.01146e-06 1.33989e-12 4.19893e-13 -3.50224e-07 9.91734e-08 -2.19604e-07)
(-3.06344e-06 6.19699e-13 8.15216e-13 -3.61318e-07 8.8587e-08 -3.01798e-07)
(-3.15475e-06 -8.19556e-13 1.14383e-12 -3.53745e-07 8.10542e-08 -3.37955e-07)
(-3.29774e-06 -7.18454e-13 1.62787e-12 -3.58617e-07 9.14506e-08 -3.77124e-07)
(-3.52677e-06 -1.78607e-12 2.78374e-12 -4.26365e-07 1.07686e-07 -4.49746e-07)
(-3.88503e-06 6.6972e-13 3.97704e-12 -9.61642e-07 1.0108e-07 -5.62437e-07)