/*--------------------------------*- C++ -*----------------------------------*\
| =========                 |                                                 |
| \\      /  F ield         | OpenFOAM: The Open Source CFD Toolbox           |
|  \\    /   O peration     | Version:  v1912                                 |
|   \\  /    A nd           | Website:  www.openfoam.com                      |
|    \\/     M anipulation  |                                                 |
\*---------------------------------------------------------------------------*/
FoamFile
{
    version     2.0;
    format      ascii;
    class       volScalarField;
    location    "0.67/solid";
    object      epsilonEq;
}
// * * * * * * * * * * * * * * * * * * * * * * * * * * * * * * * * * * * * * //

dimensions      [0 0 0 0 0 0 0];


internalField   nonuniform List<scalar> 
256
(
2.78857e-06
1.96477e-06
1.9363e-06
2.66243e-06
1.6212e-06
1.37159e-06
1.34935e-06
1.52435e-06
1.60965e-06
1.28927e-06
1.26765e-06
1.51256e-06
1.68758e-06
1.28953e-06
1.26809e-06
1.58918e-06
1.74702e-06
1.31611e-06
1.29467e-06
1.64748e-06
1.7423e-06
1.33364e-06
1.31218e-06
1.64203e-06
1.4128e-06
1.21479e-06
1.19658e-06
1.32042e-06
2.49872e-07
1.37326e-06
1.36198e-06
2.61727e-07
1.66795e-06
4.04994e-07
3.9289e-07
1.53837e-06
1.22507e-06
4.00739e-07
3.90076e-07
1.10938e-06
1.19439e-06
3.0334e-07
2.95107e-07
1.07918e-06
1.20673e-06
2.06265e-07
2.01067e-07
1.08984e-06
1.2393e-06
1.69126e-07
1.67008e-07
1.12006e-06
1.28033e-06
1.88097e-07
1.86134e-07
1.15882e-06
1.20137e-06
1.6152e-07
1.65525e-07
1.08202e-06
1.41307e-06
1.21708e-06
1.19883e-06
1.32034e-06
1.39496e-06
2.40146e-07
2.35625e-07
1.2697e-06
1.17371e-06
2.35154e-07
2.26298e-07
1.05907e-06
1.15924e-06
1.66433e-07
1.58423e-07
1.04301e-06
1.17142e-06
1.04642e-07
1.01402e-07
1.05262e-06
1.20921e-06
1.02644e-07
1.04306e-07
1.08737e-06
1.27167e-06
1.23304e-07
1.22358e-07
1.1468e-06
1.27858e-06
1.83547e-07
1.82223e-07
1.15646e-06
1.74444e-06
1.33839e-06
1.31693e-06
1.64389e-06
1.24716e-06
2.21482e-07
2.20049e-07
1.12774e-06
1.09097e-06
2.08995e-07
2.04901e-07
9.82368e-07
1.08265e-06
1.56134e-07
1.53499e-07
9.70994e-07
1.09557e-06
1.22797e-07
1.25314e-07
9.80296e-07
1.13626e-06
1.20748e-07
1.26231e-07
1.0172e-06
1.20551e-06
1.15283e-07
1.17687e-07
1.08259e-06
1.23451e-06
1.53993e-07
1.53865e-07
1.1138e-06
1.75862e-06
1.32613e-06
1.30476e-06
1.65884e-06
1.16219e-06
1.91214e-07
1.90069e-07
1.0462e-06
1.02398e-06
1.88041e-07
1.85434e-07
9.18819e-07
1.02164e-06
1.47894e-07
1.46765e-07
9.12935e-07
1.03852e-06
1.19822e-07
1.23003e-07
9.25605e-07
1.08399e-06
1.13336e-07
1.18732e-07
9.66896e-07
1.15811e-06
9.89356e-08
1.00637e-07
1.03674e-06
1.19646e-06
1.50527e-07
1.49622e-07
1.0771e-06
1.72615e-06
1.3031e-06
1.28185e-06
1.62737e-06
1.11406e-06
1.6465e-07
1.63055e-07
9.99923e-07
9.80766e-07
1.65463e-07
1.62688e-07
8.77136e-07
9.82771e-07
1.28526e-07
1.26975e-07
8.75418e-07
1.00404e-06
9.66209e-08
9.92589e-08
8.92244e-07
1.05398e-06
8.58468e-08
9.06326e-08
9.3787e-07
1.13191e-06
7.38825e-08
7.30674e-08
1.01142e-06
1.17633e-06
1.62502e-07
1.60312e-07
1.05795e-06
1.70105e-06
1.28687e-06
1.26564e-06
1.60288e-06
1.08773e-06
1.44653e-07
1.42462e-07
9.74547e-07
9.55819e-07
1.45907e-07
1.42501e-07
8.52811e-07
9.60375e-07
1.06768e-07
1.04228e-07
8.53566e-07
9.84812e-07
6.74623e-08
6.95205e-08
8.73496e-07
1.0378e-06
5.3514e-08
5.8323e-08
9.22141e-07
1.1183e-06
5.24053e-08
4.79959e-08
9.98279e-07
1.16678e-06
1.74435e-07
1.71502e-07
1.04905e-06
1.68719e-06
1.27707e-06
1.25585e-06
1.58938e-06
1.07597e-06
1.33392e-07
1.30779e-07
9.63195e-07
9.44441e-07
1.34234e-07
1.30329e-07
8.41652e-07
9.50167e-07
9.20864e-08
8.86827e-08
8.43547e-07
9.76182e-07
4.38388e-08
4.56791e-08
8.65047e-07
1.03065e-06
2.43759e-08
3.14369e-08
9.15178e-07
1.11241e-06
3.96113e-08
3.13002e-08
9.92602e-07
1.16295e-06
1.80759e-07
1.77536e-07
1.04555e-06
1.68138e-06
1.2725e-06
1.25128e-06
1.58374e-06
)
;

boundaryField
{
    interface
    {
        type            calculated;
        value           nonuniform List<scalar> 
192
(
3.55601e-06
2.28164e-06
2.28556e-06
2.39516e-06
2.48802e-06
2.51989e-06
2.23807e-06
1.23206e-06
2.68337e-06
2.10439e-06
2.08849e-06
2.14614e-06
2.228e-06
2.31792e-06
2.27895e-06
2.23913e-06
2.34857e-06
2.02341e-06
2.02848e-06
2.08389e-06
2.17056e-06
2.28321e-06
2.319e-06
2.52448e-06
2.13197e-06
1.88689e-06
1.90356e-06
1.96029e-06
2.04995e-06
2.17096e-06
2.2314e-06
2.50502e-06
2.0014e-06
1.77994e-06
1.80382e-06
1.86437e-06
1.95824e-06
2.08449e-06
2.15582e-06
2.44589e-06
1.92553e-06
1.7117e-06
1.7397e-06
1.80404e-06
1.90169e-06
2.03146e-06
2.10866e-06
2.40228e-06
1.88363e-06
1.67269e-06
1.70288e-06
1.76982e-06
1.87002e-06
2.00194e-06
2.08241e-06
2.37705e-06
1.86492e-06
1.65507e-06
1.68622e-06
1.75444e-06
1.85587e-06
1.98878e-06
2.07075e-06
2.36587e-06
3.61278e-06
2.34057e-06
2.34623e-06
2.4589e-06
2.55405e-06
2.58614e-06
2.30631e-06
1.32199e-06
3.05964e-06
2.31538e-06
2.24924e-06
2.29478e-06
2.36923e-06
2.43658e-06
2.36142e-06
2.26912e-06
3.01361e-06
2.27616e-06
2.20948e-06
2.25431e-06
2.3282e-06
2.39502e-06
2.32173e-06
2.24145e-06
3.463e-06
2.22667e-06
2.23037e-06
2.34038e-06
2.43382e-06
2.46511e-06
2.1946e-06
1.29519e-06
3.35718e-06
2.10409e-06
2.1054e-06
2.21178e-06
2.3016e-06
2.33059e-06
2.05068e-06
1.07714e-06
2.46483e-06
1.9006e-06
1.88258e-06
1.93598e-06
2.01315e-06
2.09851e-06
2.05969e-06
2.05084e-06
2.13651e-06
1.82286e-06
1.82445e-06
1.87496e-06
1.95613e-06
2.06294e-06
2.09796e-06
2.33341e-06
1.92767e-06
1.69365e-06
1.70579e-06
1.75687e-06
1.84029e-06
1.95442e-06
2.01286e-06
2.31575e-06
1.80215e-06
1.59145e-06
1.6104e-06
1.66482e-06
1.752e-06
1.87076e-06
1.93938e-06
2.25812e-06
1.7293e-06
1.52586e-06
1.54875e-06
1.60669e-06
1.6974e-06
1.81938e-06
1.89357e-06
2.21541e-06
1.68909e-06
1.48825e-06
1.51322e-06
1.57367e-06
1.66679e-06
1.79077e-06
1.86813e-06
2.19072e-06
1.67113e-06
1.47123e-06
1.49713e-06
1.55882e-06
1.65311e-06
1.77802e-06
1.85685e-06
2.17979e-06
1.3248e-06
2.30865e-06
2.59164e-06
2.57244e-06
2.51254e-06
2.46765e-06
2.44145e-06
2.42979e-06
2.27105e-06
2.36574e-06
2.44552e-06
2.38803e-06
2.32778e-06
2.28529e-06
2.25921e-06
2.24691e-06
2.2431e-06
2.32567e-06
2.40344e-06
2.34628e-06
2.28624e-06
2.24383e-06
2.21778e-06
2.2055e-06
1.29659e-06
2.19583e-06
2.46939e-06
2.45065e-06
2.39155e-06
2.34714e-06
2.3212e-06
2.30966e-06
)
;
    }
    symmetry
    {
        type            symmetry;
    }
    bottom
    {
        type            calculated;
        value           nonuniform List<scalar> 
32
(
3.97637e-06
2.14738e-06
1.68741e-06
1.49919e-06
1.40242e-06
1.34888e-06
1.31974e-06
1.30678e-06
2.53097e-06
5.13505e-07
2.41999e-07
2.25135e-07
2.00154e-07
1.76659e-07
1.58884e-07
1.48998e-07
2.49718e-06
4.96665e-07
2.29776e-07
2.15501e-07
1.89856e-07
1.65046e-07
1.45863e-07
1.34992e-07
3.82183e-06
2.00381e-06
1.54871e-06
1.36661e-06
1.27399e-06
1.22296e-06
1.19524e-06
1.1829e-06
)
;
    }
}


// ************************************************************************* //
