/*--------------------------------*- C++ -*----------------------------------*\
| =========                 |                                                 |
| \\      /  F ield         | OpenFOAM: The Open Source CFD Toolbox           |
|  \\    /   O peration     | Version:  v1912                                 |
|   \\  /    A nd           | Website:  www.openfoam.com                      |
|    \\/     M anipulation  |                                                 |
\*---------------------------------------------------------------------------*/
FoamFile
{
    version     2.0;
    format      ascii;
    class       volScalarField;
    location    "0.67/solid";
    object      sigmaHyd;
}
// * * * * * * * * * * * * * * * * * * * * * * * * * * * * * * * * * * * * * //

dimensions      [1 -1 -2 0 0 0 0];


internalField   nonuniform List<scalar> 
256
(
-716425
-378509
-373126
-683052
-1.03093e+06
-619528
-611837
-989190
-1.06396e+06
-657240
-649133
-1.02088e+06
-1.07815e+06
-671520
-663197
-1.03411e+06
-1.11216e+06
-696188
-687711
-1.06727e+06
-1.19068e+06
-756045
-747414
-1.14504e+06
-1.3998e+06
-936387
-926936
-1.35193e+06
-1.98249e+06
-1.4839e+06
-1.46851e+06
-1.91838e+06
-365558
-107653
-107265
-346278
-570034
-240848
-238862
-544526
-598614
-277117
-274834
-572183
-610441
-291768
-289363
-583303
-633498
-307605
-305125
-605649
-690195
-345087
-342525
-661612
-864266
-481041
-477717
-833383
-1.40044e+06
-936535
-926961
-1.35207e+06
-286415
-63251.6
-63232.9
-268471
-427851
-140287
-139032
-404752
-448726
-167761
-166257
-424843
-459416
-180788
-179168
-434826
-479719
-194130
-192428
-454340
-530080
-225060
-223253
-503771
-690417
-344700
-342082
-661464
-1.19149e+06
-755715
-746853
-1.14483e+06
-266162
-60011.2
-59947
-248434
-386240
-120418
-119208
-363761
-402829
-142358
-140926
-379656
-412577
-153574
-152030
-388702
-431918
-165720
-164087
-407200
-480004
-194325
-192569
-454225
-633484
-306849
-304251
-604826
-1.11192e+06
-694450
-685607
-1.06536e+06
-257565
-60468
-60362
-239945
-370339
-115498
-114287
-348200
-385025
-134584
-133170
-362254
-394013
-144379
-142859
-370551
-412668
-155566
-153956
-388336
-459449
-182886
-181144
-433984
-608920
-291811
-289209
-580438
-1.07382e+06
-667258
-658398
-1.02728e+06
-252391
-60808
-60673.9
-234815
-362197
-113684
-112472
-340246
-376072
-131374
-129971
-353529
-384538
-140269
-138766
-361314
-402664
-150776
-149184
-378555
-448598
-177326
-175599
-423317
-595671
-284308
-281710
-567295
-1.0523e+06
-652724
-643857
-1.00577e+06
-249154
-60918.6
-60765.8
-231591
-357568
-112860
-111646
-335711
-371086
-129892
-128494
-348660
-379236
-138290
-136797
-356136
-397008
-148386
-146806
-373019
-442432
-174504
-172787
-417249
-588139
-280433
-277839
-559820
-1.03988e+06
-644711
-635840
-993341
-247565
-60927.2
-60764.9
-230002
-355382
-112511
-111295
-333564
-368755
-129279
-127883
-346378
-376757
-137460
-135971
-353711
-394357
-147367
-145791
-370419
-439542
-173292
-171578
-414401
-584625
-278747
-276155
-556329
-1.03407e+06
-641064
-632191
-987525
)
;

boundaryField
{
    interface
    {
        type            zeroGradient;
    }
    symmetry
    {
        type            symmetry;
    }
    bottom
    {
        type            zeroGradient;
    }
}


// ************************************************************************* //
