/*--------------------------------*- C++ -*----------------------------------*\
| =========                 |                                                 |
| \\      /  F ield         | OpenFOAM: The Open Source CFD Toolbox           |
|  \\    /   O peration     | Version:  v1912                                 |
|   \\  /    A nd           | Website:  www.openfoam.com                      |
|    \\/     M anipulation  |                                                 |
\*---------------------------------------------------------------------------*/
FoamFile
{
    version     2.0;
    format      ascii;
    class       volScalarField;
    location    "0.67/solid";
    object      sigmaEq;
}
// * * * * * * * * * * * * * * * * * * * * * * * * * * * * * * * * * * * * * //

dimensions      [1 -1 -2 0 0 0 0];


internalField   nonuniform List<scalar> 
256
(
643516
453409
446840
614408
374123
316520
311389
351773
371458
297524
292534
349051
389442
297585
292636
366735
403159
303717
298769
380187
402068
307763
302810
378929
326032
280336
276135
304713
57662.8
316906
314304
60398.5
384912
93460.2
90666.9
355008
282708
92478.3
90017.5
256010
275628
70001.6
68101.5
249041
278476
47599.6
46400
251501
285992
39029.2
38540.3
258476
295460
43407.1
42954
267420
277240
37273.9
38198.1
249697
326092
280865
276652
304695
321915
55418.4
54375.1
293009
270857
54266.3
52222.5
244402
267516
38407.5
36559.2
240695
270328
24148.1
23400.5
242912
279047
23687
24070.7
250931
293462
28454.7
28236.4
264645
295057
42357.1
42051.4
266876
402562
308860
303908
379359
287806
51111.1
50780.5
260248
251762
48229.6
47284.8
226700
249842
36030.8
35422.7
224075
252823
28337.7
28918.7
226222
262213
27864.9
29130.3
234738
278195
26603.8
27158.5
249827
284886
35536.8
35507.2
257031
405835
306031
301098
382809
268198
44126.4
43862
241430
236302
43394.1
42792.5
212035
235763
34129.4
33868.9
210677
239659
27651.2
28385.3
213601
250152
26154.5
27399.8
223130
267256
22831.3
23223.9
239248
276106
34737
34528.1
248563
398343
300715
295812
375548
257091
37996.2
37628.1
230751
226331
38183.7
37543.3
202416
226793
29659.8
29301.8
202020
231702
22297.1
22905.9
205903
243227
19810.8
20915.2
216432
261211
17049.8
16861.7
233405
271460
37500.3
36995
244143
392550
296970
292072
369895
251014
33381.4
32875.8
224895
220574
33670.7
32884.8
196802
221625
24638.8
24052.6
196977
227264
15568.2
16043.2
201576
239493
12349.4
13459.1
212802
258069
12093.5
11076
230372
269256
40254.1
39577.4
242089
389352
294709
289811
366780
248301
30782.8
30179.8
222276
217948
30977.1
30075.8
194227
219269
21250.7
20465.2
194665
225273
10116.6
10541.3
199626
237843
5625.21
7254.66
211195
256711
9141.08
7223.12
229062
268373
41713.6
40969.9
241280
388010
293653
288756
365478
)
;

boundaryField
{
    interface
    {
        type            calculated;
        value           nonuniform List<scalar> 
192
(
820617
526532
527438
552730
574157
581513
516478
284322
619239
485629
481959
495263
514153
534905
525912
516723
541977
466941
468112
480898
500899
526896
535153
582572
491993
435436
439284
452374
473065
500990
514938
578081
461861
410755
416266
430240
451902
481035
497497
564436
444354
395009
401470
416316
438851
468800
486615
554372
434685
386006
392972
408420
431542
461986
480556
548551
430365
381940
389127
404871
428277
458949
477865
545969
833719
540131
541438
567439
589396
596800
532226
305076
706070
534318
519056
529564
546745
562288
544943
523643
695449
525267
509879
520225
537277
552697
535783
517257
799154
513847
514701
540088
561652
568871
506446
298890
774735
485559
485862
510411
531138
537828
473233
248571
568808
438599
434442
446765
464572
484272
475313
473270
493041
420661
421027
432683
451415
476063
484145
538478
444847
390842
393643
405431
424683
451020
464506
534404
415880
367259
371630
384189
404309
431714
447550
521104
399069
352123
357403
370775
391708
419857
436979
511248
389789
343442
349205
363155
384644
413254
431107
505551
385644
339515
345491
359728
381487
410311
428503
503029
305723
532765
598071
593640
579816
569458
563412
560720
524089
545941
564351
551085
537180
527375
521356
518518
517639
536694
554639
541448
527594
517808
511796
508962
299213
506730
569859
565536
551896
541647
535662
532997
)
;
    }
    symmetry
    {
        type            symmetry;
    }
    bottom
    {
        type            calculated;
        value           nonuniform List<scalar> 
32
(
917624
495550
389403
345967
323636
311279
304557
301565
584069
118501
55845.9
51954.1
46189.3
40767.5
36665.5
34384.1
576273
114615
53025.3
49731
43813
38087.5
33660.8
31151.9
881960
462418
357395
315372
293998
282222
275824
272976
)
;
    }
}


// ************************************************************************* //
