/*--------------------------------*- C++ -*----------------------------------*\
| =========                 |                                                 |
| \\      /  F ield         | OpenFOAM: The Open Source CFD Toolbox           |
|  \\    /   O peration     | Version:  v1912                                 |
|   \\  /    A nd           | Website:  www.openfoam.com                      |
|    \\/     M anipulation  |                                                 |
\*---------------------------------------------------------------------------*/
FoamFile
{
    version     2.0;
    format      ascii;
    class       volVectorField;
    location    "0.6/solid";
    object      D_0;
}
// * * * * * * * * * * * * * * * * * * * * * * * * * * * * * * * * * * * * * //

dimensions      [0 1 0 0 0 0 0];


internalField   nonuniform List<vector> 
256
(
(2.38026e-08 3.54287e-08 2.56368e-08)
(2.69865e-09 2.05526e-08 2.31991e-08)
(-2.33059e-09 2.02886e-08 2.32039e-08)
(-2.28563e-08 3.42785e-08 2.57259e-08)
(3.82317e-08 2.75484e-08 4.77822e-08)
(7.41325e-09 1.88374e-08 4.46038e-08)
(-5.66856e-09 1.83422e-08 4.47418e-08)
(-3.57262e-08 2.58554e-08 4.82848e-08)
(4.0142e-08 1.51587e-08 5.91173e-08)
(8.74942e-09 1.1748e-08 5.57549e-08)
(-5.3326e-09 1.10742e-08 5.60156e-08)
(-3.59798e-08 1.30196e-08 5.99751e-08)
(3.98293e-08 4.69357e-09 6.76885e-08)
(8.97005e-09 2.80676e-09 6.40508e-08)
(-3.68151e-09 1.97924e-09 6.44004e-08)
(-3.38029e-08 2.13029e-09 6.88061e-08)
(4.07262e-08 -4.91703e-09 7.61866e-08)
(9.64773e-09 -7.42651e-09 7.22333e-08)
(-2.29573e-09 -8.3987e-09 7.26476e-08)
(-3.26295e-08 -7.88549e-09 7.74964e-08)
(4.44911e-08 -1.52943e-08 8.59856e-08)
(1.15546e-08 -1.90309e-08 8.17396e-08)
(-1.95112e-09 -2.01482e-08 8.2204e-08)
(-3.41431e-08 -1.86622e-08 8.74461e-08)
(5.29998e-08 -3.15643e-08 9.81817e-08)
(1.51769e-08 -3.46837e-08 9.3944e-08)
(-3.15978e-09 -3.5937e-08 9.44484e-08)
(-4.02635e-08 -3.53141e-08 9.97621e-08)
(6.55592e-08 -7.70844e-08 1.11289e-07)
(1.91755e-08 -7.42195e-08 1.07769e-07)
(-4.69171e-09 -7.5413e-08 1.08296e-07)
(-5.03647e-08 -8.07504e-08 1.12937e-07)
(1.6828e-08 1.65059e-08 4.19216e-09)
(1.31983e-09 4.28625e-09 5.29461e-09)
(-1.07562e-09 4.08037e-09 5.40456e-09)
(-1.59892e-08 1.55407e-08 4.51218e-09)
(2.72651e-08 1.2167e-08 1.77252e-08)
(4.70577e-09 4.84866e-09 1.9863e-08)
(-3.30685e-09 4.35594e-09 2.01131e-08)
(-2.51107e-08 1.05245e-08 1.84513e-08)
(2.83715e-08 4.40727e-09 2.86492e-08)
(5.68911e-09 1.42476e-09 3.11519e-08)
(-2.81303e-09 7.33116e-10 3.15085e-08)
(-2.47675e-08 2.26201e-09 2.96857e-08)
(2.78186e-08 -3.75451e-09 3.71288e-08)
(5.82897e-09 -5.50697e-09 3.97004e-08)
(-1.24185e-09 -6.3525e-09 4.01388e-08)
(-2.25105e-08 -6.33284e-09 3.84058e-08)
(2.84981e-08 -1.22844e-08 4.49025e-08)
(6.4407e-09 -1.47337e-08 4.7437e-08)
(8.11696e-11 -1.57199e-08 4.79378e-08)
(-2.12409e-08 -1.52655e-08 4.63643e-08)
(3.2086e-08 -2.15254e-08 5.30172e-08)
(8.28307e-09 -2.52612e-08 5.54891e-08)
(3.87807e-10 -2.63881e-08 5.60381e-08)
(-2.26685e-08 -2.49011e-08 5.46215e-08)
(4.06509e-08 -3.45073e-08 6.1119e-08)
(1.18818e-08 -3.75913e-08 6.35779e-08)
(-8.75637e-10 -3.88481e-08 6.41602e-08)
(-2.89135e-08 -3.82544e-08 6.28236e-08)
(5.37174e-08 -7.15004e-08 6.57556e-08)
(1.58838e-08 -6.79436e-08 6.82632e-08)
(-2.4609e-09 -6.91294e-08 6.88556e-08)
(-3.9574e-08 -7.51365e-08 6.7495e-08)
(1.222e-08 1.08141e-08 1.98892e-09)
(1.31367e-10 4.78394e-10 3.4315e-09)
(5.21583e-12 2.98855e-10 3.5141e-09)
(-1.15035e-08 9.96293e-09 2.2245e-09)
(1.98176e-08 4.29719e-09 1.09111e-08)
(2.27862e-09 -1.8329e-09 1.36298e-08)
(-1.18892e-09 -2.29275e-09 1.38262e-08)
(-1.79831e-08 2.7883e-09 1.14729e-08)
(2.04359e-08 -3.04004e-09 2.0387e-08)
(2.93133e-09 -5.61642e-09 2.35227e-08)
(-5.3799e-10 -6.28078e-09 2.3803e-08)
(-1.73226e-08 -5.07331e-09 2.11947e-08)
(1.98334e-08 -9.98863e-09 2.86738e-08)
(3.00985e-09 -1.16522e-08 3.1917e-08)
(9.49455e-10 -1.24759e-08 3.22639e-08)
(-1.51586e-08 -1.24768e-08 2.96798e-08)
(2.04629e-08 -1.69933e-08 3.60176e-08)
(3.57459e-09 -1.94423e-08 3.9276e-08)
(2.20089e-09 -2.04096e-08 3.96767e-08)
(-1.39527e-08 -1.98996e-08 3.71842e-08)
(2.40463e-08 -2.4115e-08 4.26999e-08)
(5.37221e-09 -2.78761e-08 4.59446e-08)
(2.45775e-09 -2.8985e-08 4.63873e-08)
(-1.54628e-08 -2.7425e-08 4.39921e-08)
(3.27177e-08 -3.39647e-08 4.7911e-08)
(8.95334e-09 -3.70773e-08 5.11349e-08)
(1.13815e-09 -3.83149e-08 5.16047e-08)
(-2.18792e-08 -3.76479e-08 4.92872e-08)
(4.58651e-08 -6.67949e-08 4.94441e-08)
(1.29455e-08 -6.32615e-08 5.26725e-08)
(-4.95693e-10 -6.44244e-08 5.31465e-08)
(-3.26718e-08 -7.03582e-08 5.08404e-08)
(1.01551e-08 9.09287e-09 1.97457e-09)
(-3.585e-10 -1.80007e-10 2.88076e-09)
(4.29381e-10 -3.45975e-10 2.93837e-09)
(-9.53687e-09 8.31362e-09 2.14066e-09)
(1.63943e-08 1.1239e-09 8.55536e-09)
(1.17014e-09 -4.31015e-09 1.02866e-08)
(-2.97933e-10 -4.73745e-09 1.04299e-08)
(-1.48123e-08 -2.63862e-10 8.96713e-09)
(1.68579e-08 -6.92362e-09 1.60959e-08)
(1.65425e-09 -9.2524e-09 1.80959e-08)
(3.78313e-10 -9.87908e-09 1.83034e-08)
(-1.41334e-08 -8.82823e-09 1.66967e-08)
(1.6361e-08 -1.36097e-08 2.32616e-08)
(1.72514e-09 -1.52299e-08 2.53173e-08)
(1.74914e-09 -1.60179e-08 2.55768e-08)
(-1.21949e-08 -1.59796e-08 2.40186e-08)
(1.70813e-08 -1.95713e-08 2.95861e-08)
(2.29089e-09 -2.20342e-08 3.16376e-08)
(2.89592e-09 -2.29695e-08 3.19406e-08)
(-1.11802e-08 -2.23739e-08 3.04743e-08)
(2.07347e-08 -2.51431e-08 3.48077e-08)
(4.07487e-09 -2.89297e-08 3.68429e-08)
(3.0823e-09 -3.00096e-08 3.71803e-08)
(-1.28403e-08 -2.83624e-08 3.58008e-08)
(2.94243e-08 -3.33488e-08 3.82853e-08)
(7.62042e-09 -3.65425e-08 4.03116e-08)
(1.73003e-09 -3.77532e-08 4.06708e-08)
(-1.93364e-08 -3.69507e-08 3.93479e-08)
(4.24452e-08 -6.44514e-08 3.91101e-08)
(1.15699e-08 -6.12262e-08 4.11858e-08)
(8.06155e-11 -6.23644e-08 4.15469e-08)
(-3.00522e-08 -6.79393e-08 4.01867e-08)
(9.3517e-09 8.38104e-09 1.83227e-09)
(-4.75612e-10 -3.53918e-10 2.28513e-09)
(5.07712e-10 -5.10058e-10 2.32522e-09)
(-8.80052e-09 7.65347e-09 1.94804e-09)
(1.5093e-08 -7.995e-11 6.80277e-09)
(8.43145e-10 -5.17175e-09 7.67067e-09)
(-1.14032e-10 -5.57287e-09 7.77237e-09)
(-1.36889e-08 -1.37337e-09 7.09508e-09)
(1.55724e-08 -8.58607e-09 1.24496e-08)
(1.27509e-09 -1.08024e-08 1.34472e-08)
(5.05979e-10 -1.13957e-08 1.35962e-08)
(-1.31289e-08 -1.03813e-08 1.28812e-08)
(1.52132e-08 -1.53142e-08 1.80081e-08)
(1.36224e-09 -1.69267e-08 1.90194e-08)
(1.76118e-09 -1.76807e-08 1.92073e-08)
(-1.14235e-08 -1.75762e-08 1.85573e-08)
(1.60485e-08 -2.08105e-08 2.29314e-08)
(1.94325e-09 -2.32884e-08 2.39263e-08)
(2.80687e-09 -2.41919e-08 2.41474e-08)
(-1.06071e-08 -2.35145e-08 2.35817e-08)
(1.97578e-08 -2.56599e-08 2.68163e-08)
(3.7183e-09 -2.9459e-08 2.77986e-08)
(2.93052e-09 -3.05102e-08 2.80463e-08)
(-1.23918e-08 -2.87922e-08 2.75489e-08)
(2.84e-08 -3.32457e-08 2.92608e-08)
(7.21811e-09 -3.64992e-08 3.02504e-08)
(1.56429e-09 -3.76845e-08 3.0515e-08)
(-1.88957e-08 -3.67718e-08 3.00485e-08)
(4.12614e-08 -6.35302e-08 2.99709e-08)
(1.11186e-08 -6.05672e-08 3.10177e-08)
(-8.74257e-11 -6.16838e-08 3.12832e-08)
(-2.94977e-08 -6.69524e-08 3.07694e-08)
(9.03062e-09 8.0215e-09 1.44748e-09)
(-4.80084e-10 -4.46051e-10 1.65456e-09)
(4.89213e-10 -5.94974e-10 1.68119e-09)
(-8.52167e-09 7.32978e-09 1.5239e-09)
(1.46219e-08 -5.3759e-10 4.98229e-09)
(7.87236e-10 -5.47453e-09 5.37418e-09)
(-1.48984e-10 -5.8565e-09 5.44223e-09)
(-1.33333e-08 -1.76331e-09 5.17688e-09)
(1.51645e-08 -9.18576e-09 8.89101e-09)
(1.214e-09 -1.13622e-08 9.3345e-09)
(4.00519e-10 -1.19302e-08 9.4349e-09)
(-1.29091e-08 -1.08994e-08 9.18067e-09)
(1.49137e-08 -1.59703e-08 1.27651e-08)
(1.31776e-09 -1.75901e-08 1.32052e-08)
(1.56589e-09 -1.83174e-08 1.33326e-08)
(-1.13825e-08 -1.81486e-08 1.31367e-08)
(1.58325e-08 -2.13415e-08 1.62066e-08)
(1.90865e-09 -2.38295e-08 1.6632e-08)
(2.53601e-09 -2.47075e-08 1.67828e-08)
(-1.07131e-08 -2.39669e-08 1.66497e-08)
(1.95674e-08 -2.59855e-08 1.88895e-08)
(3.67172e-09 -2.97839e-08 1.931e-08)
(2.61521e-09 -3.08119e-08 1.94797e-08)
(-1.25778e-08 -2.90476e-08 1.93917e-08)
(2.81484e-08 -3.34179e-08 2.05795e-08)
(7.13042e-09 -3.66932e-08 2.10146e-08)
(1.24226e-09 -3.78582e-08 2.11963e-08)
(-1.90655e-08 -3.68832e-08 2.11218e-08)
(4.08799e-08 -6.32691e-08 2.11901e-08)
(1.09898e-08 -6.04509e-08 2.16687e-08)
(-4.09204e-10 -6.15502e-08 2.1851e-08)
(-2.95751e-08 -6.66396e-08 2.17404e-08)
(8.88496e-09 7.83998e-09 9.15766e-10)
(-4.69311e-10 -4.94246e-10 1.00465e-09)
(4.65595e-10 -6.38479e-10 1.01992e-09)
(-8.40045e-09 7.17059e-09 9.59279e-10)
(1.44298e-08 -7.06266e-10 3.03859e-09)
(7.87024e-10 -5.57491e-09 3.20335e-09)
(-2.02101e-10 -5.94443e-09 3.24248e-09)
(-1.32095e-08 -1.88868e-09 3.14985e-09)
(1.50237e-08 -9.36126e-09 5.33448e-09)
(1.21789e-09 -1.15263e-08 5.51711e-09)
(2.95969e-10 -1.20778e-08 5.57507e-09)
(-1.28822e-08 -1.10216e-08 5.50094e-09)
(1.48392e-08 -1.61706e-08 7.60265e-09)
(1.33135e-09 -1.77988e-08 7.77979e-09)
(1.40396e-09 -1.85083e-08 7.85367e-09)
(-1.14677e-08 -1.82931e-08 7.81731e-09)
(1.58043e-08 -2.1545e-08 9.62005e-09)
(1.9251e-09 -2.40377e-08 9.7889e-09)
(2.32703e-09 -2.48983e-08 9.87662e-09)
(-1.08875e-08 -2.4117e-08 9.87735e-09)
(1.95461e-08 -2.6188e-08 1.11948e-08)
(3.67662e-09 -2.99799e-08 1.13634e-08)
(2.37893e-09 -3.0992e-08 1.14625e-08)
(-1.27967e-08 -2.92019e-08 1.14877e-08)
(2.80803e-08 -3.36246e-08 1.2204e-08)
(7.10656e-09 -3.68998e-08 1.2385e-08)
(1.00142e-09 -3.80508e-08 1.24913e-08)
(-1.9269e-08 -3.70482e-08 1.25213e-08)
(4.07252e-08 -6.32521e-08 1.26197e-08)
(1.09374e-08 -6.04947e-08 1.2826e-08)
(-6.49855e-10 -6.15822e-08 1.29327e-08)
(-2.97186e-08 -6.6587e-08 1.29419e-08)
(8.82263e-09 7.7642e-09 3.12325e-10)
(-4.63711e-10 -5.13038e-10 3.37342e-10)
(4.54256e-10 -6.54977e-10 3.42317e-10)
(-8.34932e-09 7.10546e-09 3.26452e-10)
(1.43501e-08 -7.59558e-10 1.02057e-09)
(7.89139e-10 -5.60145e-09 1.06629e-09)
(-2.28802e-10 -5.96487e-09 1.07906e-09)
(-1.31615e-08 -1.92094e-09 1.05676e-09)
(1.49688e-08 -9.39783e-09 1.77776e-09)
(1.22239e-09 -1.15602e-08 1.82773e-09)
(2.44215e-10 -1.21035e-08 1.84668e-09)
(-1.28808e-08 -1.1032e-08 1.83203e-09)
(1.48141e-08 -1.62142e-08 2.52319e-09)
(1.33962e-09 -1.7847e-08 2.57101e-09)
(1.32502e-09 -1.85476e-08 2.59521e-09)
(-1.15186e-08 -1.8309e-08 2.59338e-09)
(1.57986e-08 -2.16102e-08 3.18645e-09)
(1.93333e-09 -2.41042e-08 3.23175e-09)
(2.22601e-09 -2.49561e-08 3.26054e-09)
(-1.09794e-08 -2.41553e-08 3.27079e-09)
(1.9541e-08 -2.6285e-08 3.70572e-09)
(3.67801e-09 -3.00716e-08 3.75147e-09)
(2.26498e-09 -3.10757e-08 3.78405e-09)
(-1.29082e-08 -2.92744e-08 3.80195e-09)
(2.80509e-08 -3.37479e-08 4.04259e-09)
(7.09355e-09 -3.70183e-08 4.09303e-09)
(8.84802e-10 -3.81623e-08 4.12802e-09)
(-1.93725e-08 -3.71501e-08 4.14701e-09)
(4.06535e-08 -6.32815e-08 4.18961e-09)
(1.09099e-08 -6.05433e-08 4.24824e-09)
(-7.66499e-10 -6.16248e-08 4.28333e-09)
(-2.97934e-08 -6.65984e-08 4.29572e-09)
)
;

boundaryField
{
    interface
    {
        type            solidTraction;
        traction        uniform (0 0 0);
        pressure        uniform 0;
        secondOrder     false;
        setEffectiveTraction false;
        relaxationFactor 1;
        value           nonuniform List<vector> 
192
(
(8.16642e-08 5.09372e-08 2.37171e-08)
(9.24159e-08 3.16332e-08 4.46546e-08)
(9.54306e-08 1.55581e-08 5.57522e-08)
(9.67997e-08 4.83968e-09 6.42892e-08)
(9.97998e-08 -3.75145e-09 7.27674e-08)
(1.0642e-07 -1.22257e-08 8.25563e-08)
(1.18624e-07 -2.6297e-08 9.47698e-08)
(1.37747e-07 -7.33734e-08 1.07926e-07)
(6.52669e-08 2.75291e-08 1.29629e-09)
(7.31684e-08 1.50528e-08 1.31213e-08)
(7.49243e-08 4.54566e-09 2.37222e-08)
(7.56853e-08 -3.72279e-09 3.21294e-08)
(7.82954e-08 -1.12174e-08 3.98363e-08)
(8.48052e-08 -1.84869e-08 4.79056e-08)
(9.76254e-08 -2.90991e-08 5.60482e-08)
(1.19371e-07 -6.77358e-08 6.08317e-08)
(5.47516e-08 1.88235e-08 3.20517e-10)
(6.11504e-08 6.35114e-09 8.19312e-09)
(6.24844e-08 -3.03607e-09 1.75083e-08)
(6.31158e-08 -9.9818e-09 2.5809e-08)
(6.56477e-08 -1.594e-08 3.31631e-08)
(7.22442e-08 -2.1051e-08 3.98618e-08)
(8.54768e-08 -2.85096e-08 4.51041e-08)
(1.07875e-07 -6.29992e-08 4.66258e-08)
(4.9113e-08 1.57302e-08 1.25738e-09)
(5.45877e-08 2.79959e-09 7.37399e-09)
(5.58557e-08 -6.93191e-09 1.48798e-08)
(5.6602e-08 -1.35538e-08 2.21063e-08)
(5.92363e-08 -1.84776e-08 2.84823e-08)
(6.59495e-08 -2.2057e-08 3.37354e-08)
(7.93163e-08 -2.79208e-08 3.72057e-08)
(1.017e-07 -6.06466e-08 3.79591e-08)
(4.62088e-08 1.44922e-08 1.55106e-09)
(5.13068e-08 1.47521e-09 6.35952e-09)
(5.264e-08 -8.55598e-09 1.20261e-08)
(5.3553e-08 -1.51951e-08 1.76461e-08)
(5.63267e-08 -1.96741e-08 2.26191e-08)
(6.31211e-08 -2.25717e-08 2.65243e-08)
(7.64691e-08 -2.78694e-08 2.89418e-08)
(9.86469e-08 -5.97347e-08 2.95795e-08)
(4.46561e-08 1.39346e-08 1.33075e-09)
(4.9645e-08 9.95874e-10 4.81639e-09)
(5.10668e-08 -9.11274e-09 8.75374e-09)
(5.21131e-08 -1.58032e-08 1.26716e-08)
(5.49911e-08 -2.01779e-08 1.61455e-08)
(6.18226e-08 -2.29062e-08 1.88365e-08)
(7.51043e-08 -2.80893e-08 2.04995e-08)
(9.708e-08 -5.94929e-08 2.1056e-08)
(4.38194e-08 1.36686e-08 8.63738e-10)
(4.87796e-08 8.28417e-10 2.97059e-09)
(5.02655e-08 -9.25884e-09 5.2855e-09)
(5.1394e-08 -1.59753e-08 7.57769e-09)
(5.43316e-08 -2.03681e-08 9.61154e-09)
(6.11738e-08 -2.31187e-08 1.11881e-08)
(7.43957e-08 -2.83294e-08 1.21796e-08)
(9.623e-08 -5.94945e-08 1.2563e-08)
(4.34447e-08 1.35574e-08 2.96733e-10)
(4.83951e-08 7.76995e-10 1.00064e-09)
(4.99113e-08 -9.28176e-09 1.76403e-09)
(5.1077e-08 -1.60067e-08 2.51691e-09)
(5.40401e-08 -2.04283e-08 3.18502e-09)
(6.08835e-08 -2.32216e-08 3.70442e-09)
(7.40727e-08 -2.84693e-08 4.03525e-09)
(9.58364e-08 -5.95348e-08 4.17166e-09)
(2.41537e-08 5.37835e-08 8.55163e-08)
(3.9002e-08 3.59187e-08 1.03751e-07)
(4.09853e-08 2.01354e-08 1.16205e-07)
(4.06209e-08 8.96099e-09 1.2656e-07)
(4.14488e-08 -3.42673e-10 1.37239e-07)
(4.51456e-08 -9.79544e-09 1.49892e-07)
(5.36477e-08 -2.52385e-08 1.65746e-07)
(6.63622e-08 -7.3646e-08 1.85438e-07)
(2.09085e-09 3.75034e-08 7.70619e-08)
(6.65392e-09 2.69765e-08 9.4882e-08)
(7.9749e-09 1.66099e-08 1.06406e-07)
(8.14895e-09 6.92642e-09 1.16016e-07)
(8.76391e-09 -3.0043e-09 1.26135e-07)
(1.06101e-08 -1.36032e-08 1.38437e-07)
(1.42446e-08 -2.81763e-08 1.54699e-07)
(1.84284e-08 -7.06571e-08 1.77265e-07)
(-1.6985e-09 3.72751e-08 7.63453e-08)
(-4.74751e-09 2.65453e-08 9.4305e-08)
(-4.27663e-09 1.59889e-08 1.05924e-07)
(-2.49173e-09 6.13724e-09 1.15604e-07)
(-9.78996e-10 -3.9478e-09 1.25775e-07)
(-5.2352e-10 -1.4698e-08 1.38115e-07)
(-1.70424e-09 -2.94141e-08 1.54406e-07)
(-3.39871e-09 -7.18445e-08 1.77022e-07)
(-2.31595e-08 5.27812e-08 8.35764e-08)
(-3.6313e-08 3.44177e-08 1.02289e-07)
(-3.6527e-08 1.815e-08 1.15022e-07)
(-3.42147e-08 6.51063e-09 1.25582e-07)
(-3.29096e-08 -3.22551e-09 1.36416e-07)
(-3.43064e-08 -1.30958e-08 1.49187e-07)
(-4.03821e-08 -2.89416e-08 1.65135e-07)
(-5.06142e-08 -7.72947e-08 1.84991e-07)
(-7.74169e-08 4.89242e-08 2.38577e-08)
(-8.65504e-08 2.91364e-08 4.53379e-08)
(-8.7839e-08 1.25389e-08 5.68987e-08)
(-8.72746e-08 1.29272e-09 6.57774e-08)
(-8.8145e-08 -7.80048e-09 7.45095e-08)
(-9.24719e-08 -1.67539e-08 8.44962e-08)
(-1.02287e-07 -3.12589e-08 9.68658e-08)
(-1.18974e-07 -7.82744e-08 1.10115e-07)
(-6.10954e-08 2.58157e-08 1.67393e-09)
(-6.76949e-08 1.27191e-08 1.40155e-08)
(-6.79388e-08 1.61197e-09 2.50214e-08)
(-6.69178e-08 -7.21451e-09 3.37447e-08)
(-6.74979e-08 -1.5226e-08 4.16951e-08)
(-7.17709e-08 -2.29831e-08 4.99515e-08)
(-8.22342e-08 -3.40281e-08 5.82276e-08)
(-1.01604e-07 -7.25855e-08 6.30719e-08)
(-5.08071e-08 1.73346e-08 6.11402e-10)
(-5.6083e-08 4.2431e-09 8.89837e-09)
(-5.60715e-08 -5.77942e-09 1.85363e-08)
(-5.50582e-08 -1.33193e-08 2.7101e-08)
(-5.56614e-08 -1.98235e-08 3.46691e-08)
(-6.00846e-08 -2.54434e-08 4.15351e-08)
(-7.09902e-08 -3.33457e-08 4.6893e-08)
(-9.10278e-08 -6.7751e-08 4.84601e-08)
(-4.53684e-08 1.44009e-08 1.4649e-09)
(-4.98677e-08 8.85272e-10 7.89359e-09)
(-4.99226e-08 -9.48261e-09 1.56483e-08)
(-4.91397e-08 -1.6718e-08 2.30849e-08)
(-4.99376e-08 -2.22126e-08 2.96379e-08)
(-5.45422e-08 -2.63234e-08 3.50331e-08)
(-6.56184e-08 -3.26477e-08 3.8602e-08)
(-8.56579e-08 -6.52978e-08 3.93932e-08)
(-4.26036e-08 1.32758e-08 1.69424e-09)
(-4.68344e-08 -2.91279e-10 6.72536e-09)
(-4.70551e-08 -1.09476e-08 1.25752e-08)
(-4.65306e-08 -1.82067e-08 1.83542e-08)
(-4.75448e-08 -2.32724e-08 2.3465e-08)
(-5.22898e-08 -2.67201e-08 2.74833e-08)
(-6.3387e-08 -3.24953e-08 2.99809e-08)
(-8.32426e-08 -6.42977e-08 3.06502e-08)
(-4.11384e-08 1.27935e-08 1.42388e-09)
(-4.53323e-08 -6.6645e-10 5.05706e-09)
(-4.57123e-08 -1.13871e-08 9.11903e-09)
(-4.53886e-08 -1.86976e-08 1.31477e-08)
(-4.65663e-08 -2.3668e-08 1.67198e-08)
(-5.13967e-08 -2.69595e-08 1.94929e-08)
(-6.24626e-08 -3.26339e-08 2.12152e-08)
(-8.21395e-08 -6.39858e-08 2.17957e-08)
(-4.03523e-08 1.25731e-08 9.16195e-10)
(-4.45609e-08 -7.68252e-10 3.10692e-09)
(-4.50494e-08 -1.14571e-08 5.49389e-09)
(-4.48519e-08 -1.87918e-08 7.85138e-09)
(-4.61295e-08 -2.37847e-08 9.94394e-09)
(-5.10045e-08 -2.71065e-08 1.15703e-08)
(-6.20363e-08 -3.28176e-08 1.25981e-08)
(-8.159e-08 -6.39391e-08 1.29966e-08)
(-4.00009e-08 1.24832e-08 3.13669e-10)
(-4.42198e-08 -7.8807e-10 1.04476e-09)
(-4.476e-08 -1.14427e-08 1.8317e-09)
(-4.46214e-08 -1.87844e-08 2.60613e-09)
(-4.59447e-08 -2.38079e-08 3.29376e-09)
(-5.08382e-08 -2.71762e-08 3.82983e-09)
(-6.18508e-08 -3.29288e-08 4.17289e-09)
(-8.13437e-08 -6.39549e-08 4.31442e-09)
(6.67e-08 -1.51271e-07 1.11612e-07)
(5.47119e-08 -1.39118e-07 6.31831e-08)
(4.6881e-08 -1.30794e-07 4.76818e-08)
(4.35426e-08 -1.25714e-07 3.82939e-08)
(4.24198e-08 -1.22901e-07 2.96753e-08)
(4.20648e-08 -1.21419e-07 2.11206e-08)
(4.19161e-08 -1.20681e-07 1.26227e-08)
(4.18437e-08 -1.20377e-07 4.19696e-09)
(1.87588e-08 -1.43751e-07 1.07981e-07)
(1.5292e-08 -1.28757e-07 6.55237e-08)
(1.23539e-08 -1.20068e-07 5.09932e-08)
(1.10491e-08 -1.15345e-07 4.05123e-08)
(1.0658e-08 -1.12936e-07 3.08239e-08)
(1.0561e-08 -1.11708e-07 2.16506e-08)
(1.05208e-08 -1.1109e-07 1.28491e-08)
(1.04967e-08 -1.1083e-07 4.26039e-09)
(-3.05782e-09 -1.4417e-07 1.08509e-07)
(-6.61657e-10 -1.29137e-07 6.61085e-08)
(1.27946e-09 -1.20431e-07 5.14553e-08)
(1.75988e-09 -1.15689e-07 4.08617e-08)
(1.50984e-09 -1.13262e-07 3.10797e-08)
(1.13894e-09 -1.12018e-07 2.18257e-08)
(8.7421e-10 -1.1139e-07 1.29513e-08)
(7.48256e-10 -1.11124e-07 4.29399e-09)
(-5.02671e-08 -1.52823e-07 1.13261e-07)
(-3.93466e-08 -1.40534e-07 6.4897e-08)
(-3.24908e-08 -1.32152e-07 4.90412e-08)
(-2.99781e-08 -1.27012e-07 3.93353e-08)
(-2.95067e-08 -1.24141e-07 3.04445e-08)
(-2.96285e-08 -1.22613e-07 2.16491e-08)
(-2.97902e-08 -1.21842e-07 1.29316e-08)
(-2.98706e-08 -1.21521e-07 4.29856e-09)
)
;
        gradient        uniform (0 0 0);
    }
    symmetry
    {
        type            solidSymmetry;
        patchType       symmetry;
        secondOrder     false;
        value           nonuniform List<vector> 
32
(
(8.82263e-09 7.7642e-09 0)
(1.43501e-08 -7.59558e-10 0)
(1.49688e-08 -9.39783e-09 0)
(1.48141e-08 -1.62142e-08 0)
(1.57986e-08 -2.16102e-08 0)
(1.9541e-08 -2.6285e-08 0)
(2.80509e-08 -3.37479e-08 0)
(4.06535e-08 -6.32815e-08 0)
(-4.63711e-10 -5.13038e-10 0)
(7.89139e-10 -5.60145e-09 0)
(1.22239e-09 -1.15602e-08 0)
(1.33962e-09 -1.7847e-08 0)
(1.93333e-09 -2.41042e-08 0)
(3.67801e-09 -3.00716e-08 0)
(7.09355e-09 -3.70183e-08 0)
(1.09099e-08 -6.05433e-08 0)
(4.54256e-10 -6.54977e-10 0)
(-2.28802e-10 -5.96487e-09 0)
(2.44215e-10 -1.21035e-08 0)
(1.32502e-09 -1.85476e-08 0)
(2.22601e-09 -2.49561e-08 0)
(2.26498e-09 -3.10757e-08 0)
(8.84802e-10 -3.81623e-08 0)
(-7.66499e-10 -6.16248e-08 0)
(-8.34932e-09 7.10546e-09 0)
(-1.31615e-08 -1.92094e-09 0)
(-1.28808e-08 -1.1032e-08 0)
(-1.15186e-08 -1.8309e-08 0)
(-1.09794e-08 -2.41553e-08 0)
(-1.29082e-08 -2.92744e-08 0)
(-1.93725e-08 -3.71501e-08 0)
(-2.97934e-08 -6.65984e-08 0)
)
;
    }
    bottom
    {
        type            fixedDisplacement;
        value           uniform (0 0 0);
    }
}


// ************************************************************************* //
