/*--------------------------------*- C++ -*----------------------------------*\
| =========                 |                                                 |
| \\      /  F ield         | OpenFOAM: The Open Source CFD Toolbox           |
|  \\    /   O peration     | Version:  v1912                                 |
|   \\  /    A nd           | Website:  www.openfoam.com                      |
|    \\/     M anipulation  |                                                 |
\*---------------------------------------------------------------------------*/
FoamFile
{
    version     2.0;
    format      ascii;
    class       volVectorField;
    location    "0.6/solid";
    object      DD_0_0;
}
// * * * * * * * * * * * * * * * * * * * * * * * * * * * * * * * * * * * * * //

dimensions      [0 1 0 0 0 0 0];


internalField   nonuniform List<vector> 
256
(
(2.84585e-10 2.85237e-10 3.30679e-10)
(6.32688e-11 1.69531e-10 3.02547e-10)
(-7.50597e-11 1.64462e-10 2.96732e-10)
(-2.79156e-10 2.66317e-10 3.1267e-10)
(5.07577e-10 2.20047e-10 7.42485e-10)
(1.2827e-10 1.26241e-10 7.01251e-10)
(-1.52563e-10 1.23747e-10 6.89832e-10)
(-5.08219e-10 2.14093e-10 7.07179e-10)
(5.47004e-10 8.108e-12 1.02601e-09)
(1.37928e-10 -3.24237e-11 9.78643e-10)
(-1.76536e-10 -3.04195e-11 9.6413e-10)
(-5.61681e-10 1.69081e-11 9.81221e-10)
(5.3244e-10 -2.22422e-10 1.2669e-09)
(1.23705e-10 -2.43984e-10 1.20971e-09)
(-1.82124e-10 -2.37494e-10 1.193e-09)
(-5.66687e-10 -2.00615e-10 1.21539e-09)
(5.30267e-10 -4.69959e-10 1.50824e-09)
(1.12127e-10 -5.02888e-10 1.43797e-09)
(-1.96237e-10 -4.92207e-10 1.41938e-09)
(-5.89773e-10 -4.36188e-10 1.45101e-09)
(5.88005e-10 -7.69021e-10 1.77713e-09)
(1.23128e-10 -8.19934e-10 1.6941e-09)
(-2.39103e-10 -8.0516e-10 1.67369e-09)
(-6.78846e-10 -7.23533e-10 1.71446e-09)
(7.46158e-10 -1.21589e-09 2.08299e-09)
(1.67763e-10 -1.24474e-09 1.99916e-09)
(-3.22905e-10 -1.22542e-09 1.9768e-09)
(-8.74498e-10 -1.15721e-09 2.01469e-09)
(9.49636e-10 -1.89428e-09 2.34666e-09)
(2.15289e-10 -1.82952e-09 2.28514e-09)
(-4.18928e-10 -1.80272e-09 2.26086e-09)
(-1.12169e-09 -1.81281e-09 2.27317e-09)
(1.67757e-10 9.54033e-11 1.26552e-10)
(3.49489e-11 5.60561e-12 1.46465e-10)
(-3.96436e-11 3.77573e-12 1.44037e-10)
(-1.57898e-10 8.40311e-11 1.19313e-10)
(3.08465e-10 -1.56229e-11 4.04077e-10)
(7.52005e-11 -8.94054e-11 4.43554e-10)
(-8.31425e-11 -8.93965e-11 4.36924e-10)
(-2.97047e-10 -1.65011e-11 3.84703e-10)
(3.29223e-10 -2.02914e-10 6.59381e-10)
(7.97555e-11 -2.34858e-10 7.04217e-10)
(-9.56021e-11 -2.31467e-10 6.94761e-10)
(-3.26006e-10 -1.91773e-10 6.31659e-10)
(3.10335e-10 -4.12839e-10 8.89523e-10)
(6.62836e-11 -4.30987e-10 9.32695e-10)
(-9.70265e-11 -4.23747e-10 9.21223e-10)
(-3.22085e-10 -3.90113e-10 8.55653e-10)
(3.03666e-10 -6.43709e-10 1.11348e-09)
(5.54783e-11 -6.7553e-10 1.15224e-09)
(-1.07859e-10 -6.64422e-10 1.13904e-09)
(-3.36756e-10 -6.09714e-10 1.0743e-09)
(3.56885e-10 -9.08308e-10 1.34254e-09)
(6.68736e-11 -9.60587e-10 1.37667e-09)
(-1.47567e-10 -9.45635e-10 1.36182e-09)
(-4.17743e-10 -8.63145e-10 1.29832e-09)
(5.18955e-10 -1.26491e-09 1.55588e-09)
(1.13407e-10 -1.2931e-09 1.58798e-09)
(-2.30033e-10 -1.2741e-09 1.57162e-09)
(-6.1386e-10 -1.20771e-09 1.50705e-09)
(7.42497e-10 -1.79135e-09 1.66825e-09)
(1.64049e-10 -1.70409e-09 1.70078e-09)
(-3.2628e-10 -1.67877e-09 1.68373e-09)
(-8.77655e-10 -1.71393e-09 1.61706e-09)
(8.04471e-11 2.45683e-11 6.25739e-11)
(9.7064e-12 -3.95164e-11 9.20924e-11)
(-1.13728e-11 -4.09194e-11 9.04297e-11)
(-6.83059e-11 1.33601e-11 5.78538e-11)
(1.52724e-10 -1.33045e-10 2.5741e-10)
(2.53418e-11 -1.86625e-10 3.13014e-10)
(-2.45681e-11 -1.86292e-10 3.0839e-10)
(-1.33876e-10 -1.34487e-10 2.44336e-10)
(1.58376e-10 -3.28119e-10 4.74054e-10)
(2.43077e-11 -3.52301e-10 5.37121e-10)
(-2.62795e-11 -3.48954e-10 5.30202e-10)
(-1.42837e-10 -3.18406e-10 4.54275e-10)
(1.38891e-10 -5.25965e-10 6.84564e-10)
(1.17169e-11 -5.42921e-10 7.47806e-10)
(-2.40996e-11 -5.36059e-10 7.39088e-10)
(-1.34008e-10 -5.05352e-10 6.59322e-10)
(1.32624e-10 -7.27708e-10 8.841e-10)
(2.13949e-12 -7.60749e-10 9.45355e-10)
(-3.23156e-11 -7.50263e-10 9.35071e-10)
(-1.45298e-10 -6.96308e-10 8.54038e-10)
(1.86441e-10 -9.39146e-10 1.06521e-09)
(1.43471e-11 -9.9349e-10 1.12416e-09)
(-6.95244e-11 -9.79399e-10 1.11245e-09)
(-2.23488e-10 -8.97073e-10 1.03074e-09)
(3.51372e-10 -1.21262e-09 1.19669e-09)
(6.21899e-11 -1.24259e-09 1.25348e-09)
(-1.50404e-10 -1.22477e-09 1.24067e-09)
(-4.19322e-10 -1.15918e-09 1.15866e-09)
(5.78812e-10 -1.6464e-09 1.22138e-09)
(1.14461e-10 -1.55958e-09 1.27656e-09)
(-2.4561e-10 -1.53573e-09 1.26355e-09)
(-6.84026e-10 -1.57329e-09 1.18222e-09)
(4.26845e-11 -1.09325e-12 5.09168e-11)
(-1.06134e-12 -4.90439e-11 7.07357e-11)
(7.72343e-13 -5.06321e-11 6.94907e-11)
(-2.91322e-11 -1.33235e-11 4.74686e-11)
(8.34793e-11 -1.78471e-10 2.01057e-10)
(2.86524e-12 -2.1951e-10 2.37976e-10)
(2.65469e-12 -2.19699e-10 2.34628e-10)
(-5.99288e-11 -1.82141e-10 1.91746e-10)
(8.34141e-11 -3.81959e-10 3.75594e-10)
(-2.34057e-13 -4.01848e-10 4.16928e-10)
(6.74691e-12 -3.99229e-10 4.11859e-10)
(-5.95498e-11 -3.75046e-10 3.61276e-10)
(6.73485e-11 -5.72015e-10 5.51804e-10)
(-1.07199e-11 -5.89303e-10 5.92515e-10)
(1.04914e-11 -5.83328e-10 5.85985e-10)
(-5.0558e-11 -5.54558e-10 5.33063e-10)
(6.59444e-11 -7.4825e-10 7.15163e-10)
(-1.76982e-11 -7.83091e-10 7.53815e-10)
(3.02612e-12 -7.73627e-10 7.45977e-10)
(-6.33851e-11 -7.20271e-10 6.92392e-10)
(1.23574e-10 -9.19241e-10 8.49432e-10)
(-3.72499e-12 -9.75606e-10 8.86068e-10)
(-3.29955e-11 -9.62658e-10 8.77078e-10)
(-1.42367e-10 -8.80817e-10 8.23049e-10)
(2.88535e-10 -1.14604e-09 9.2844e-10)
(4.43476e-11 -1.18004e-09 9.63708e-10)
(-1.11518e-10 -1.16344e-09 9.53909e-10)
(-3.35489e-10 -1.09637e-09 8.99326e-10)
(5.11046e-10 -1.54088e-09 9.24369e-10)
(9.62422e-11 -1.46569e-09 9.60276e-10)
(-2.03996e-10 -1.44302e-09 9.50405e-10)
(-5.92741e-10 -1.47127e-09 8.9455e-10)
(3.09053e-11 -1.01858e-11 4.44311e-11)
(-3.28177e-12 -5.05826e-11 5.43783e-11)
(3.71692e-12 -5.23752e-11 5.34788e-11)
(-1.64621e-11 -2.32657e-11 4.19734e-11)
(6.30109e-11 -1.90804e-10 1.60613e-10)
(-1.88597e-12 -2.26404e-10 1.78495e-10)
(1.01944e-11 -2.27196e-10 1.76118e-10)
(-3.64952e-11 -1.96567e-10 1.54078e-10)
(6.36101e-11 -3.94524e-10 2.93478e-10)
(-4.28952e-12 -4.13305e-10 3.12651e-10)
(1.61632e-11 -4.11505e-10 3.09044e-10)
(-3.42804e-11 -3.90338e-10 2.83385e-10)
(5.22658e-11 -5.77354e-10 4.28411e-10)
(-1.22608e-11 -5.95957e-10 4.46207e-10)
(2.01556e-11 -5.90915e-10 4.41506e-10)
(-2.73021e-11 -5.62931e-10 4.15021e-10)
(5.62626e-11 -7.36861e-10 5.50946e-10)
(-1.65202e-11 -7.73544e-10 5.66698e-10)
(1.26556e-11 -7.65084e-10 5.60992e-10)
(-4.28592e-11 -7.12068e-10 5.3446e-10)
(1.17379e-10 -8.85857e-10 6.45198e-10)
(-8.4547e-13 -9.43869e-10 6.59325e-10)
(-2.26104e-11 -9.31961e-10 6.52741e-10)
(-1.22836e-10 -8.50662e-10 6.25935e-10)
(2.8084e-10 -1.09286e-09 6.93586e-10)
(4.69666e-11 -1.13036e-09 7.0716e-10)
(-9.86871e-11 -1.11477e-09 6.99978e-10)
(-3.1219e-10 -1.04629e-09 6.72267e-10)
(4.97513e-10 -1.4718e-09 6.84582e-10)
(9.80529e-11 -1.40722e-09 6.99655e-10)
(-1.88406e-10 -1.38546e-09 6.92438e-10)
(-5.61549e-10 -1.40493e-09 6.62754e-10)
(2.82456e-11 -1.30032e-11 3.47205e-11)
(-2.7992e-12 -5.03488e-11 3.90732e-11)
(3.63584e-12 -5.22882e-11 3.84695e-11)
(-1.32544e-11 -2.66623e-11 3.30842e-11)
(6.00824e-11 -1.90333e-10 1.18384e-10)
(-5.97079e-13 -2.2432e-10 1.25596e-10)
(1.05773e-11 -2.25576e-10 1.2401e-10)
(-3.17274e-11 -1.97628e-10 1.1406e-10)
(6.34652e-11 -3.89487e-10 2.11334e-10)
(-1.42509e-12 -4.08754e-10 2.18297e-10)
(1.66614e-11 -4.07614e-10 2.15888e-10)
(-3.06535e-11 -3.87404e-10 2.04646e-10)
(5.62567e-11 -5.65664e-10 3.04832e-10)
(-7.2555e-12 -5.85787e-10 3.10362e-10)
(2.04402e-11 -5.81504e-10 3.07205e-10)
(-2.59201e-11 -5.53629e-10 2.95894e-10)
(6.43285e-11 -7.1579e-10 3.88252e-10)
(-9.44207e-12 -7.5397e-10 3.92186e-10)
(1.28367e-11 -7.46314e-10 3.88329e-10)
(-4.35936e-11 -6.93498e-10 3.77156e-10)
(1.27675e-10 -8.55275e-10 4.50027e-10)
(7.43972e-12 -9.14366e-10 4.52887e-10)
(-2.17668e-11 -9.03262e-10 4.48414e-10)
(-1.23918e-10 -8.2256e-10 4.36975e-10)
(2.89507e-10 -1.05545e-09 4.79575e-10)
(5.49656e-11 -1.09505e-09 4.8234e-10)
(-9.58656e-11 -1.08023e-09 4.7745e-10)
(-3.09908e-10 -1.01121e-09 4.65079e-10)
(5.01702e-10 -1.42695e-09 4.72164e-10)
(1.0542e-10 -1.36902e-09 4.76228e-10)
(-1.83457e-10 -1.34793e-09 4.71316e-10)
(-5.53227e-10 -1.3621e-09 4.57309e-10)
(2.78949e-11 -1.35062e-11 2.19946e-11)
(-2.08127e-12 -4.96789e-11 2.37383e-11)
(3.13103e-12 -5.17111e-11 2.33921e-11)
(-1.25885e-11 -2.75234e-11 2.10604e-11)
(6.10043e-11 -1.86554e-10 7.25724e-11)
(1.25354e-12 -2.20338e-10 7.51278e-11)
(9.67481e-12 -2.21893e-10 7.42201e-11)
(-3.15794e-11 -1.94818e-10 7.01093e-11)
(6.6795e-11 -3.807e-10 1.27451e-10)
(1.7245e-12 -4.00771e-10 1.29473e-10)
(1.54802e-11 -4.00069e-10 1.28093e-10)
(-3.19204e-11 -3.79992e-10 1.23636e-10)
(6.23773e-11 -5.51888e-10 1.81994e-10)
(-2.67069e-12 -5.73194e-10 1.83025e-10)
(1.9031e-11 -5.69424e-10 1.8121e-10)
(-2.87929e-11 -5.41447e-10 1.76876e-10)
(7.29457e-11 -6.97269e-10 2.30047e-10)
(-3.56208e-12 -7.3644e-10 2.30113e-10)
(1.14101e-11 -7.29325e-10 2.27886e-10)
(-4.76942e-11 -6.76654e-10 2.2366e-10)
(1.37501e-10 -8.33315e-10 2.64958e-10)
(1.40445e-11 -8.9299e-10 2.64449e-10)
(-2.26718e-11 -8.82424e-10 2.61858e-10)
(-1.27976e-10 -8.02254e-10 2.57414e-10)
(2.98162e-10 -1.0316e-09 2.81151e-10)
(6.1394e-11 -1.07219e-09 2.80694e-10)
(-9.54501e-11 -1.05786e-09 2.77856e-10)
(-3.1163e-10 -9.88883e-10 2.72748e-10)
(5.07476e-10 -1.39938e-09 2.76616e-10)
(1.11458e-10 -1.3449e-09 2.76953e-10)
(-1.81644e-10 -1.32424e-09 2.74102e-10)
(-5.51022e-10 -1.33586e-09 2.67999e-10)
(2.79062e-11 -1.34177e-11 7.51807e-12)
(-1.70728e-12 -4.91789e-11 7.98436e-12)
(2.84883e-12 -5.12562e-11 7.87164e-12)
(-1.24559e-11 -2.76066e-11 7.21459e-12)
(6.17962e-11 -1.83811e-10 2.4443e-11)
(2.23485e-12 -2.17676e-10 2.50603e-11)
(9.12218e-12 -2.19375e-10 2.47649e-11)
(-3.18784e-11 -1.92542e-10 2.36434e-11)
(6.88255e-11 -3.74979e-10 4.25763e-11)
(3.36787e-12 -3.95549e-10 4.29655e-11)
(1.47453e-11 -3.95062e-10 4.25162e-11)
(-3.29902e-11 -3.74941e-10 4.13371e-11)
(6.57589e-11 -5.43546e-10 6.04662e-11)
(-3.3216e-13 -5.65471e-10 6.051e-11)
(1.81807e-11 -5.61956e-10 5.99181e-11)
(-3.06446e-11 -5.33894e-10 5.88005e-11)
(7.74806e-11 -6.86959e-10 7.6125e-11)
(-6.15524e-13 -7.2661e-10 7.58509e-11)
(1.05776e-11 -7.19766e-10 7.51233e-11)
(-5.00783e-11 -6.67178e-10 7.40411e-11)
(1.42557e-10 -8.21993e-10 8.74141e-11)
(1.73273e-11 -8.8191e-10 8.69619e-11)
(-2.32201e-11 -8.71611e-10 8.61138e-11)
(-1.3026e-10 -7.91754e-10 8.49473e-11)
(3.02631e-10 -1.01989e-09 9.25933e-11)
(6.46012e-11 -1.06085e-09 9.21749e-11)
(-9.5348e-11 -1.04677e-09 9.12452e-11)
(-3.12745e-10 -9.77936e-10 8.98413e-11)
(5.10544e-10 -1.3861e-09 9.10814e-11)
(1.1448e-10 -1.33303e-09 9.09247e-11)
(-1.80852e-10 -1.31259e-09 8.99906e-11)
(-5.50211e-10 -1.32324e-09 8.82584e-11)
)
;

boundaryField
{
    interface
    {
        type            calculated;
        value           nonuniform List<vector> 
192
(
(3.1668e-10 4.83278e-10 2.96431e-10)
(5.35571e-10 2.85651e-10 6.82995e-10)
(5.76782e-10 1.43226e-11 9.61321e-10)
(5.66009e-10 -2.26607e-10 1.2024e-09)
(5.64039e-10 -4.56068e-10 1.44442e-09)
(6.14148e-10 -7.15049e-10 1.71393e-09)
(7.62841e-10 -1.12549e-09 2.02123e-09)
(1.00051e-09 -1.83725e-09 2.28787e-09)
(1.54495e-10 2.14459e-10 7.5519e-11)
(2.93996e-10 2.4743e-11 3.15365e-10)
(3.13219e-10 -2.02447e-10 5.62225e-10)
(2.93476e-10 -4.19229e-10 7.91137e-10)
(2.83344e-10 -6.32072e-10 1.01407e-09)
(3.26864e-10 -8.54486e-10 1.24215e-09)
(4.8152e-10 -1.16851e-09 1.45719e-09)
(7.59968e-10 -1.73138e-09 1.57554e-09)
(5.44871e-11 8.2861e-11 3.13069e-11)
(1.33573e-10 -1.13563e-10 2.01165e-10)
(1.39154e-10 -3.31579e-10 4.12603e-10)
(1.19062e-10 -5.32404e-10 6.23819e-10)
(1.10711e-10 -7.15821e-10 8.24671e-10)
(1.58523e-10 -8.8446e-10 1.00689e-09)
(3.22183e-10 -1.11453e-09 1.13909e-09)
(6.06906e-10 -1.58506e-09 1.16351e-09)
(1.20926e-11 3.04476e-11 3.85322e-11)
(6.42561e-11 -1.6829e-10 1.7863e-10)
(6.55125e-11 -3.85993e-10 3.51903e-10)
(4.97398e-11 -5.76383e-10 5.30148e-10)
(4.7785e-11 -7.34195e-10 6.96073e-10)
(1.02263e-10 -8.63594e-10 8.32167e-10)
(2.70023e-10 -1.04918e-09 9.10808e-10)
(5.48658e-10 -1.47924e-09 9.04044e-10)
(-2.4437e-12 1.32932e-11 4.0822e-11)
(4.20109e-11 -1.82628e-10 1.54765e-10)
(4.47254e-11 -3.97212e-10 2.88491e-10)
(3.45338e-11 -5.79192e-10 4.25639e-10)
(3.91747e-11 -7.20584e-10 5.50542e-10)
(9.8901e-11 -8.29714e-10 6.46224e-10)
(2.67313e-10 -9.97824e-10 6.9383e-10)
(5.38274e-10 -1.41034e-09 6.82247e-10)
(-6.20511e-12 9.07869e-12 3.39683e-11)
(3.79662e-11 -1.81529e-10 1.17883e-10)
(4.39178e-11 -3.90445e-10 2.12131e-10)
(3.85233e-11 -5.65449e-10 3.0736e-10)
(4.80876e-11 -6.97937e-10 3.92423e-10)
(1.111e-10 -7.98981e-10 4.55058e-10)
(2.78973e-10 -9.61948e-10 4.83906e-10)
(5.43786e-10 -1.36588e-09 4.74654e-10)
(-6.76482e-12 8.71857e-12 2.191e-11)
(3.85438e-11 -1.7683e-10 7.30012e-11)
(4.71638e-11 -3.80359e-10 1.28791e-10)
(4.49889e-11 -5.50352e-10 1.8437e-10)
(5.75768e-11 -6.78489e-10 2.33335e-10)
(1.22387e-10 -7.77013e-10 2.68679e-10)
(2.89622e-10 -9.39103e-10 2.84433e-10)
(5.50406e-10 -1.33869e-09 2.78827e-10)
(-6.70722e-12 9.00782e-12 7.52097e-12)
(3.93044e-11 -1.73582e-10 2.46411e-11)
(4.92845e-11 -3.73989e-10 4.30841e-11)
(4.86678e-11 -5.41384e-10 6.13117e-11)
(6.26574e-11 -6.67761e-10 7.72588e-11)
(1.28249e-10 -7.65706e-10 8.86782e-11)
(2.95118e-10 -9.2789e-10 9.37108e-11)
(5.53933e-10 -1.32564e-09 9.18487e-11)
(2.94672e-10 5.53528e-10 3.23859e-10)
(5.27008e-10 3.93881e-10 7.26384e-10)
(5.67503e-10 1.39213e-10 1.0116e-09)
(5.5039e-10 -1.01865e-10 1.25751e-09)
(5.44609e-10 -3.42401e-10 1.49953e-09)
(5.98846e-10 -6.25332e-10 1.75876e-09)
(7.5608e-10 -1.07351e-09 2.04932e-09)
(9.63652e-10 -1.82355e-09 2.3387e-09)
(5.47781e-11 4.2048e-10 2.65879e-10)
(1.15101e-10 2.95266e-10 6.47377e-10)
(1.22452e-10 9.46937e-11 9.17756e-10)
(1.05227e-10 -1.2915e-10 1.14618e-09)
(8.99096e-11 -3.81791e-10 1.36832e-09)
(9.72641e-11 -6.79636e-10 1.60839e-09)
(1.41212e-10 -1.09698e-09 1.89634e-09)
(1.93837e-10 -1.7551e-09 2.23247e-09)
(-7.25336e-11 4.11103e-10 2.51782e-10)
(-1.51088e-10 2.90598e-10 6.29201e-10)
(-1.75899e-10 9.53751e-11 8.96323e-10)
(-1.80712e-10 -1.2368e-10 1.12218e-09)
(-1.92983e-10 -3.72035e-10 1.34212e-09)
(-2.34018e-10 -6.65806e-10 1.5801e-09)
(-3.19029e-10 -1.07862e-09 1.86579e-09)
(-4.21924e-10 -1.72869e-09 2.19915e-09)
(-2.94064e-10 5.21279e-10 2.80399e-10)
(-5.37648e-10 3.81232e-10 6.68625e-10)
(-5.95278e-10 1.43962e-10 9.4345e-10)
(-6.00008e-10 -8.31655e-11 1.18157e-09)
(-6.21412e-10 -3.11418e-10 1.41703e-09)
(-7.08784e-10 -5.82614e-10 1.67014e-09)
(-9.05317e-10 -1.01753e-09 1.95457e-09)
(-1.15826e-09 -1.74313e-09 2.23767e-09)
(-2.54167e-10 4.6316e-10 2.74898e-10)
(-4.79053e-10 2.84725e-10 6.39666e-10)
(-5.33074e-10 3.15274e-11 9.05498e-10)
(-5.40285e-10 -1.93589e-10 1.13757e-09)
(-5.61958e-10 -4.08145e-10 1.37193e-09)
(-6.41543e-10 -6.52349e-10 1.63421e-09)
(-8.24449e-10 -1.04649e-09 1.93411e-09)
(-1.09795e-09 -1.73209e-09 2.19387e-09)
(-9.30632e-11 1.97767e-10 6.65988e-11)
(-2.32117e-10 2.55266e-11 2.91114e-10)
(-2.58871e-10 -1.85512e-10 5.26944e-10)
(-2.5287e-10 -3.87423e-10 7.47479e-10)
(-2.62683e-10 -5.85797e-10 9.6318e-10)
(-3.32305e-10 -7.93866e-10 1.18447e-09)
(-5.17909e-10 -1.09273e-09 1.39326e-09)
(-8.27841e-10 -1.63185e-09 1.50765e-09)
(6.97714e-12 6.39054e-11 2.56604e-11)
(-6.66561e-11 -1.15854e-10 1.85053e-10)
(-7.50032e-11 -3.18372e-10 3.87658e-10)
(-6.44525e-11 -5.04734e-10 5.91437e-10)
(-7.23408e-11 -6.73935e-10 7.85692e-10)
(-1.42746e-10 -8.28564e-10 9.61892e-10)
(-3.34032e-10 -1.04405e-09 1.08907e-09)
(-6.47384e-10 -1.4913e-09 1.11099e-09)
(4.985e-11 8.94176e-12 3.45063e-11)
(6.33796e-12 -1.74536e-10 1.67398e-10)
(5.8553e-12 -3.77387e-10 3.34134e-10)
(1.56116e-11 -5.53597e-10 5.06384e-10)
(4.66146e-12 -6.97316e-10 6.6678e-10)
(-6.92512e-11 -8.12787e-10 7.97884e-10)
(-2.61711e-10 -9.83773e-10 8.72541e-10)
(-5.66544e-10 -1.39022e-09 8.6393e-10)
(6.47475e-11 -1.00265e-11 3.80028e-11)
(3.09395e-11 -1.92111e-10 1.47026e-10)
(3.14436e-11 -3.92635e-10 2.76159e-10)
(3.8306e-11 -5.60785e-10 4.08859e-10)
(2.3479e-11 -6.88182e-10 5.2951e-10)
(-5.30967e-11 -7.83325e-10 6.21321e-10)
(-2.43817e-10 -9.36604e-10 6.6587e-10)
(-5.38969e-10 -1.32504e-09 6.52874e-10)
(6.87431e-11 -1.54168e-11 3.21151e-11)
(3.64596e-11 -1.93278e-10 1.1283e-10)
(3.53432e-11 -3.88855e-10 2.04054e-10)
(3.93062e-11 -5.50392e-10 2.96266e-10)
(2.16287e-11 -6.68996e-10 3.78363e-10)
(-5.63532e-11 -7.55978e-10 4.38259e-10)
(-2.44681e-10 -9.03875e-10 4.64938e-10)
(-5.32219e-10 -1.28335e-09 4.54676e-10)
(6.94405e-11 -1.64814e-11 2.08603e-11)
(3.67533e-11 -1.89985e-10 7.01463e-11)
(3.39515e-11 -3.80687e-10 1.2422e-10)
(3.58843e-11 -5.37501e-10 1.78057e-10)
(1.64809e-11 -6.51855e-10 2.2528e-10)
(-6.20215e-11 -7.36266e-10 2.58999e-10)
(-2.48493e-10 -8.83118e-10 2.73456e-10)
(-5.30987e-10 -1.25798e-09 2.67244e-10)
(6.94487e-11 -1.6523e-11 7.18129e-12)
(3.63996e-11 -1.87408e-10 2.37179e-11)
(3.27022e-11 -3.75248e-10 4.16043e-11)
(3.36483e-11 -5.29619e-10 5.92632e-11)
(1.34738e-11 -6.42271e-10 7.46369e-11)
(-6.5175e-11 -7.26083e-10 8.55181e-11)
(-2.50675e-10 -8.72944e-10 9.01197e-11)
(-5.3069e-10 -1.24584e-09 8.80557e-11)
(9.61961e-10 -1.88728e-09 2.35629e-09)
(7.50667e-10 -1.75925e-09 1.60628e-09)
(5.87774e-10 -1.63075e-09 1.15876e-09)
(5.23064e-10 -1.53722e-09 8.80716e-10)
(5.12095e-10 -1.47181e-09 6.561e-10)
(5.17755e-10 -1.42812e-09 4.54059e-10)
(5.24198e-10 -1.40118e-09 2.66404e-10)
(5.27503e-10 -1.38826e-09 8.77625e-11)
(1.92396e-10 -1.77775e-09 2.291e-09)
(1.35901e-10 -1.60282e-09 1.6333e-09)
(8.67905e-11 -1.47653e-09 1.21695e-09)
(7.17737e-11 -1.40059e-09 9.22185e-10)
(7.64646e-11 -1.35087e-09 6.75489e-10)
(8.56607e-11 -1.3171e-09 4.60648e-10)
(9.26699e-11 -1.29534e-09 2.67956e-10)
(9.60985e-11 -1.28455e-09 8.79584e-11)
(-4.23108e-10 -1.74178e-09 2.26689e-09)
(-3.23825e-10 -1.56906e-09 1.61699e-09)
(-2.42188e-10 -1.44441e-09 1.20461e-09)
(-2.02605e-10 -1.36972e-09 9.12836e-10)
(-1.88983e-10 -1.32093e-09 6.68666e-10)
(-1.85191e-10 -1.28782e-09 4.56012e-10)
(-1.83909e-10 -1.2665e-09 2.65268e-10)
(-1.83306e-10 -1.25592e-09 8.70783e-11)
(-1.15953e-09 -1.77787e-09 2.28329e-09)
(-9.09909e-10 -1.65466e-09 1.55718e-09)
(-7.15637e-10 -1.53049e-09 1.12155e-09)
(-6.26211e-10 -1.4405e-09 8.52461e-10)
(-5.96631e-10 -1.37781e-09 6.35463e-10)
(-5.89069e-10 -1.33606e-09 4.40041e-10)
(-5.87063e-10 -1.31039e-09 2.58282e-10)
(-5.86255e-10 -1.29809e-09 8.51033e-11)
)
;
    }
    symmetry
    {
        type            symmetry;
    }
    bottom
    {
        type            calculated;
        value           uniform (0 0 0);
    }
}


// ************************************************************************* //
