/*--------------------------------*- C++ -*----------------------------------*\
| =========                 |                                                 |
| \\      /  F ield         | OpenFOAM: The Open Source CFD Toolbox           |
|  \\    /   O peration     | Version:  v1912                                 |
|   \\  /    A nd           | Website:  www.openfoam.com                      |
|    \\/     M anipulation  |                                                 |
\*---------------------------------------------------------------------------*/
FoamFile
{
    version     2.0;
    format      ascii;
    class       volScalarField;
    location    "0.6/solid";
    object      epsilonEq;
}
// * * * * * * * * * * * * * * * * * * * * * * * * * * * * * * * * * * * * * //

dimensions      [0 0 0 0 0 0 0];


internalField   nonuniform List<scalar> 
256
(
2.71914e-06
1.93484e-06
1.90891e-06
2.60447e-06
1.60983e-06
1.37999e-06
1.35882e-06
1.51978e-06
1.61055e-06
1.3112e-06
1.29043e-06
1.52049e-06
1.69063e-06
1.31921e-06
1.29859e-06
1.59975e-06
1.75484e-06
1.35327e-06
1.33266e-06
1.66312e-06
1.76472e-06
1.38299e-06
1.3623e-06
1.67238e-06
1.45711e-06
1.27976e-06
1.26185e-06
1.37186e-06
2.28097e-07
1.44347e-06
1.4317e-06
2.42001e-07
1.6537e-06
3.87901e-07
3.7688e-07
1.53484e-06
1.2334e-06
3.82886e-07
3.72891e-07
1.12637e-06
1.20943e-06
2.91508e-07
2.83669e-07
1.10281e-06
1.22578e-06
2.01446e-07
1.96167e-07
1.1177e-06
1.26254e-06
1.65358e-07
1.62541e-07
1.15236e-06
1.31052e-06
1.7933e-07
1.76765e-07
1.1983e-06
1.24043e-06
1.35794e-07
1.40077e-07
1.13049e-06
1.45714e-06
1.28171e-06
1.26385e-06
1.37188e-06
1.39816e-06
2.23656e-07
2.19425e-07
1.2841e-06
1.18547e-06
2.25526e-07
2.16697e-07
1.07996e-06
1.17623e-06
1.62035e-07
1.5351e-07
1.06903e-06
1.19205e-06
9.75549e-08
9.20011e-08
1.08243e-06
1.23287e-06
8.62823e-08
8.50345e-08
1.12042e-06
1.29947e-06
1.07916e-07
1.04709e-07
1.18421e-06
1.30892e-06
1.74247e-07
1.72449e-07
1.1964e-06
1.76621e-06
1.38709e-06
1.36658e-06
1.67428e-06
1.25484e-06
2.03025e-07
2.01262e-07
1.14656e-06
1.10033e-06
1.94304e-07
1.89379e-07
1.00048e-06
1.0973e-06
1.43421e-07
1.39171e-07
9.94412e-07
1.11413e-06
1.03094e-07
1.03085e-07
1.00787e-06
1.15737e-06
9.53482e-08
9.83859e-08
1.04758e-06
1.22958e-06
9.6542e-08
9.62017e-08
1.11625e-06
1.25817e-06
1.49206e-07
1.48338e-07
1.14715e-06
1.76474e-06
1.36228e-06
1.34198e-06
1.67396e-06
1.17237e-06
1.7534e-07
1.73445e-07
1.0676e-06
1.03407e-06
1.73227e-07
1.69462e-07
9.37594e-07
1.0366e-06
1.33672e-07
1.30731e-07
9.36636e-07
1.05704e-06
9.99446e-08
1.006e-07
9.53156e-07
1.10426e-06
9.02081e-08
9.29722e-08
9.96448e-07
1.18033e-06
8.50707e-08
8.36518e-08
1.06861e-06
1.21653e-06
1.47163e-07
1.45851e-07
1.10696e-06
1.72561e-06
1.33218e-06
1.31212e-06
1.63609e-06
1.12559e-06
1.52409e-07
1.4979e-07
1.02284e-06
9.92217e-07
1.53891e-07
1.49833e-07
8.97413e-07
9.98639e-07
1.18247e-07
1.14781e-07
9.00189e-07
1.02283e-06
8.21834e-08
8.18304e-08
9.20228e-07
1.07368e-06
6.90912e-08
7.04694e-08
9.66962e-07
1.15267e-06
6.87365e-08
6.43456e-08
1.04191e-06
1.19356e-06
1.57813e-07
1.55704e-07
1.08502e-06
1.69689e-06
1.31152e-06
1.29157e-06
1.6082e-06
1.09993e-06
1.35792e-07
1.32407e-07
9.98281e-07
9.68275e-07
1.38184e-07
1.33452e-07
8.74272e-07
9.76948e-07
1.01961e-07
9.7409e-08
8.79227e-07
1.00378e-06
6.02844e-08
5.831e-08
9.01814e-07
1.05704e-06
4.40102e-08
4.35692e-08
9.50907e-07
1.13794e-06
5.61249e-08
4.82863e-08
1.02774e-06
1.18191e-06
1.67855e-07
1.653e-07
1.07406e-06
1.68074e-06
1.29903e-06
1.27914e-06
1.59257e-06
1.08846e-06
1.26672e-07
1.22783e-07
9.87294e-07
9.57398e-07
1.29093e-07
1.23859e-07
8.63723e-07
9.6709e-07
9.13776e-08
8.59287e-08
8.6967e-07
9.95212e-07
4.35647e-08
3.96955e-08
8.93526e-07
1.04964e-06
2.21254e-08
1.85579e-08
9.43764e-07
1.13146e-06
4.95959e-08
3.92164e-08
1.02152e-06
1.17698e-06
1.73079e-07
1.70358e-07
1.06946e-06
1.67376e-06
1.29318e-06
1.27332e-06
1.58583e-06
)
;

boundaryField
{
    interface
    {
        type            calculated;
        value           nonuniform List<scalar> 
192
(
3.49798e-06
2.28874e-06
2.30623e-06
2.41774e-06
2.51596e-06
2.56554e-06
2.31251e-06
1.26779e-06
2.68516e-06
2.13573e-06
2.12836e-06
2.18974e-06
2.27689e-06
2.37922e-06
2.36045e-06
2.31329e-06
2.36135e-06
2.04915e-06
2.06e-06
2.11843e-06
2.20887e-06
2.33054e-06
2.38015e-06
2.56927e-06
2.14751e-06
1.9076e-06
1.92904e-06
1.98853e-06
2.08109e-06
2.20928e-06
2.27995e-06
2.53078e-06
2.01903e-06
1.80061e-06
1.82854e-06
1.89135e-06
1.98726e-06
2.11942e-06
2.19885e-06
2.46385e-06
1.94429e-06
1.73325e-06
1.76482e-06
1.83083e-06
1.92977e-06
2.06454e-06
2.14841e-06
2.41628e-06
1.90284e-06
1.69483e-06
1.72832e-06
1.7965e-06
1.89746e-06
2.03376e-06
2.11999e-06
2.38865e-06
1.88427e-06
1.67747e-06
1.71179e-06
1.78103e-06
1.88295e-06
2.01994e-06
2.10722e-06
2.37625e-06
3.56422e-06
2.35889e-06
2.37798e-06
2.49243e-06
2.59303e-06
2.6435e-06
2.39523e-06
1.38597e-06
3.0566e-06
2.35832e-06
2.30734e-06
2.36004e-06
2.44302e-06
2.528e-06
2.47981e-06
2.38256e-06
3.01403e-06
2.32071e-06
2.26902e-06
2.32108e-06
2.40357e-06
2.48803e-06
2.44139e-06
2.35528e-06
3.42689e-06
2.25155e-06
2.2688e-06
2.38111e-06
2.48032e-06
2.52994e-06
2.28949e-06
1.35753e-06
3.31814e-06
2.12601e-06
2.1414e-06
2.25041e-06
2.34622e-06
2.39353e-06
2.14313e-06
1.1324e-06
2.486e-06
1.94875e-06
1.93934e-06
1.99694e-06
2.07987e-06
2.17815e-06
2.16019e-06
2.14333e-06
2.16869e-06
1.86541e-06
1.87278e-06
1.92666e-06
2.01203e-06
2.12838e-06
2.1778e-06
2.39623e-06
1.96245e-06
1.7308e-06
1.74776e-06
1.80197e-06
1.88876e-06
2.01065e-06
2.08e-06
2.35948e-06
1.839e-06
1.62846e-06
1.6515e-06
1.70855e-06
1.79822e-06
1.92351e-06
2.00098e-06
2.29408e-06
1.76733e-06
1.56378e-06
1.59029e-06
1.65029e-06
1.74269e-06
1.87028e-06
1.95187e-06
2.24747e-06
1.72764e-06
1.52685e-06
1.55517e-06
1.61722e-06
1.71149e-06
1.84045e-06
1.92426e-06
2.22043e-06
1.70987e-06
1.51014e-06
1.53926e-06
1.60231e-06
1.69749e-06
1.82706e-06
1.91187e-06
2.20831e-06
1.38832e-06
2.39704e-06
2.64793e-06
2.60897e-06
2.54106e-06
2.49217e-06
2.46355e-06
2.45067e-06
2.3842e-06
2.48348e-06
2.53577e-06
2.45984e-06
2.39057e-06
2.34311e-06
2.31419e-06
2.30058e-06
2.35668e-06
2.4448e-06
2.49546e-06
2.41995e-06
2.35096e-06
2.30363e-06
2.27479e-06
2.26121e-06
1.35868e-06
2.29057e-06
2.53385e-06
2.49587e-06
2.42905e-06
2.38088e-06
2.35268e-06
2.34001e-06
)
;
    }
    symmetry
    {
        type            symmetry;
    }
    bottom
    {
        type            calculated;
        value           nonuniform List<scalar> 
32
(
3.84529e-06
2.10397e-06
1.67634e-06
1.49774e-06
1.40481e-06
1.35291e-06
1.32449e-06
1.31179e-06
2.46129e-06
4.90777e-07
2.3096e-07
2.13222e-07
1.91205e-07
1.71421e-07
1.56974e-07
1.49159e-07
2.43126e-06
4.75556e-07
2.19741e-07
2.03933e-07
1.81062e-07
1.60014e-07
1.44366e-07
1.35773e-07
3.70722e-06
1.97325e-06
1.55109e-06
1.37888e-06
1.2903e-06
1.24109e-06
1.21421e-06
1.20221e-06
)
;
    }
}


// ************************************************************************* //
