/*--------------------------------*- C++ -*----------------------------------*\
| =========                 |                                                 |
| \\      /  F ield         | OpenFOAM: The Open Source CFD Toolbox           |
|  \\    /   O peration     | Version:  v1912                                 |
|   \\  /    A nd           | Website:  www.openfoam.com                      |
|    \\/     M anipulation  |                                                 |
\*---------------------------------------------------------------------------*/
FoamFile
{
    version     2.0;
    format      ascii;
    class       volVectorField;
    location    "0.6/solid";
    object      heatFlux;
}
// * * * * * * * * * * * * * * * * * * * * * * * * * * * * * * * * * * * * * //

dimensions      [1 0 -3 0 0 0 0];


internalField   nonuniform List<vector> 
256
(
(-68424.3 65614.5 -72526.7)
(-12981.2 37205.9 -70329.7)
(12100.7 36897.7 -69265.8)
(63246.8 64004.5 -69314)
(-66370.4 8107.99 -70720.5)
(-15735.7 4958.53 -70879.9)
(14697.9 4920 -69759.8)
(60922.3 7945.54 -67393.1)
(-67601.9 1808.69 -72037.4)
(-16169.1 1044.02 -72386.6)
(15087.7 1030.31 -71217.5)
(62033.5 1749.4 -68582.1)
(-69504.3 1908.08 -73965)
(-16514.1 1067.95 -74379.7)
(15403.3 1059.73 -73179.1)
(63819 1866.23 -70423.3)
(-72266.6 3247.98 -76737.9)
(-17017.5 1970.11 -77338.4)
(15886 1964.23 -76117)
(66479.9 3219.57 -73137.2)
(-76391.5 7618.2 -80899.5)
(-17797.8 5757.8 -82036.1)
(16652.7 5740.79 -80795.6)
(70527.1 7576.01 -77245.4)
(-81458.2 27103.3 -86153.1)
(-18894.9 25700.4 -88623.4)
(17704.2 25536 -87358.9)
(75535.1 26665.7 -82434.4)
(-78310.8 83684.3 -83618.6)
(-19365.2 88281.5 -88230.3)
(17618 87048.5 -87007.5)
(72151.5 80082.8 -80053.7)
(-64041.9 33886.4 -17268.7)
(-11430 8338.45 -14667.4)
(10999.9 8290.61 -14540.1)
(59096.1 33020.9 -16898.8)
(-64542.4 4561.71 -21163.1)
(-14165.7 1402.18 -18362.4)
(13682.5 1398.03 -18204.2)
(59419.4 4494.75 -20705.5)
(-65981.6 1006.56 -21724.3)
(-14593.7 248.972 -18901.5)
(14092.5 245.687 -18735.5)
(60742.6 973.103 -21246.4)
(-67954.6 1065.4 -22116.3)
(-14926.6 224.625 -19273.5)
(14406.6 221.222 -19104)
(62590.9 1031.93 -21631.4)
(-70913.9 1961.5 -22680.8)
(-15437.9 595.945 -19839.7)
(14899.8 592.172 -19668.7)
(65425 1930.39 -22197.1)
(-75603.8 5654.83 -23572.1)
(-16295.9 3435.99 -20814.2)
(15741 3419.43 -20643.1)
(69995.6 5601.88 -23097.3)
(-82091.6 25029.2 -25010.5)
(-17673.3 22595.4 -22587.7)
(17065.7 22422.9 -22417.6)
(76378.3 24555 -24551.5)
(-81508.6 86257.2 -27079.8)
(-18902.3 88706 -25689)
(17700.6 87424.5 -25528)
(75538.8 82481.4 -26660.4)
(-57117.1 27182.7 -3870.41)
(-10252.5 4176.16 -2011.47)
(9869.28 4153.43 -1999.01)
(52320.5 26400.2 -3820.5)
(-57963.1 3652.45 -4897.33)
(-12776.8 724.439 -2692.76)
(12354.7 724.577 -2676.15)
(53003.7 3597.93 -4833.38)
(-59345.8 855.439 -5023.49)
(-13180.4 132.882 -2780.77)
(12742.8 130.528 -2763.35)
(54270.3 823.46 -4957.44)
(-61252.4 951.563 -5080.34)
(-13501.7 129.794 -2821.92)
(13045.3 126.509 -2804.31)
(56046.4 915.549 -5014.99)
(-64170.2 1792.17 -5152.67)
(-14005.4 429.412 -2883.58)
(13528.5 425.142 -2866.15)
(58821.7 1753.71 -5090.9)
(-68891.2 5288.47 -5273.92)
(-14868.8 3009.75 -3008.13)
(14369.6 2991.89 -2991.33)
(63388.1 5221.6 -5220.11)
(-75667.5 23595.7 -5639.43)
(-16302 20825.6 -3433.93)
(15740.4 20651 -3418.56)
(70004.1 23102.5 -5600.16)
(-76507.8 81061.7 -7590.07)
(-17813.4 82166.4 -5745.82)
(16646.5 80898.2 -5732.5)
(70538.8 77319.4 -7569.21)
(-52628.8 25118.6 -1379.22)
(-9558.63 3634.22 -287.95)
(9190.91 3615.46 -285.319)
(47952.3 24367 -1355.58)
(-53457 3408.64 -1695.38)
(-11944.5 632.887 -387.8)
(11541.9 633.687 -384.266)
(48625.5 3357.8 -1665.96)
(-54790.1 823.556 -1728.57)
(-12333.6 119.818 -399.411)
(11915.8 117.527 -395.763)
(49843.7 791.494 -1698.56)
(-56660.5 936.213 -1737.77)
(-12650.6 121.815 -402.892)
(12213.5 118.425 -399.27)
(51579.8 898.467 -1708.41)
(-59551.9 1767.92 -1746.67)
(-13151.4 409.737 -408.04)
(12692.5 405.151 -404.554)
(54317.5 1725.27 -1719.37)
(-64255.8 5168.07 -1770.35)
(-14013.3 2885.64 -427.611)
(13529.1 2867.01 -424.468)
(58843.6 5092.62 -1747.53)
(-71067 22713.1 -1936.82)
(-15452.4 19857.8 -592.678)
(14899.5 19681.7 -590.369)
(65455.5 22205.9 -1923.04)
(-72476.5 76987.1 -3201.16)
(-17044.7 77542.3 -1948.69)
(15877.2 76279.2 -1947.92)
(66512.2 73256.2 -3201.62)
(-49944.5 24108.1 -718.615)
(-9158.58 3500.41 -85.8256)
(8801.65 3483.84 -84.2669)
(45350.7 23378.6 -702.428)
(-50746.7 3303.1 -867.938)
(-11465.7 612.978 -112)
(11076.6 614.133 -109.902)
(46003.4 3254.95 -847.655)
(-52055.4 813.048 -881.225)
(-11847.5 117.79 -114.465)
(11443.6 115.523 -112.305)
(47198.1 781.01 -860.495)
(-53910.6 933.464 -883.025)
(-12163.2 121.165 -114.682)
(11739.8 117.717 -112.54)
(48916 894.738 -862.68)
(-56789.6 1759.59 -884.716)
(-12663.3 404.692 -115.178)
(12217.2 399.944 -113.107)
(51633.2 1714.59 -865.562)
(-61472.4 5098.32 -896.911)
(-13522.9 2825.11 -122.304)
(13049.7 2806.08 -120.413)
(56124 5017.93 -880.295)
(-68251.9 22164.9 -1000.27)
(-14955.5 19304.6 -210.446)
(14410 19127.6 -209.018)
(62680.5 21648.5 -988.98)
(-69863.2 74359.2 -1788.53)
(-16560.2 74712.8 -1003.49)
(15393.6 73450.6 -1003.1)
(63906.6 70627.6 -1786.83)
(-48334.2 23532.1 -408.633)
(-8924.28 3436.39 -43.1664)
(8574.31 3421.29 -42.1684)
(43790.1 22816.9 -398.591)
(-49122.6 3246.03 -490.351)
(-11186.5 604.247 -55.4801)
(10806.2 605.649 -54.1241)
(44432.5 3199.74 -477.625)
(-50419.9 808.469 -496.827)
(-11564.7 117.136 -56.4792)
(11169.8 114.89 -55.0784)
(45616 776.469 -483.788)
(-52268.5 932.722 -497.127)
(-11880.1 121.102 -56.4293)
(11465.5 117.623 -55.0374)
(47325.1 893.4 -484.32)
(-55139.8 1754.04 -497.941)
(-12379.8 402.115 -56.5539)
(11942.1 397.278 -55.2023)
(50029 1707.65 -485.836)
(-59802.5 5052.51 -506.543)
(-13236.8 2790.37 -60.4798)
(12771.1 2771.1 -59.2277)
(54491 4969.2 -495.9)
(-66537.9 21821.5 -572.124)
(-14661.2 18976.6 -110.973)
(14120.9 18799 -109.974)
(60988.8 21299.4 -564.577)
(-68213.6 72693.8 -1053.36)
(-16259.3 72975.4 -576.465)
(15093.9 71713 -576.075)
(62258.9 68959.5 -1051.69)
(-47410.4 23209.1 -213.623)
(-8792.11 3401.76 -21.984)
(8446.22 3387.55 -21.4291)
(42894.2 22502.4 -208.211)
(-48191.9 3214.9 -255.54)
(-11029.5 599.665 -28.1207)
(10654.4 601.223 -27.3612)
(43531.4 3169.75 -248.62)
(-49483.6 806.273 -258.647)
(-11405.8 116.841 -28.5867)
(11016.3 114.61 -27.7997)
(44709.5 774.315 -251.536)
(-51328.9 932.35 -258.662)
(-11721.1 121.09 -28.5375)
(11311.9 117.594 -27.7546)
(46413.9 892.689 -251.673)
(-54195.1 1750.17 -259.221)
(-12220.5 400.641 -28.6043)
(11787.9 395.754 -27.8427)
(49109.7 1703.01 -252.605)
(-58842.2 5024.14 -264.532)
(-13075.6 2770.7 -30.6972)
(12614.3 2751.31 -29.9871)
(53551 4939.19 -258.685)
(-65541.8 21618 -301.212)
(-14493.4 18788.6 -57.2603)
(13956.4 18610.7 -56.6768)
(60004.5 21092.7 -296.993)
(-67233.8 71699.6 -563.09)
(-16082.9 71956.4 -305.073)
(14918.4 70693.7 -304.806)
(61278.9 67962.7 -562.036)
(-46986.6 23062.9 -66.6444)
(-8732.09 3386.29 -6.79712)
(8388.08 3372.5 -6.61935)
(42482.8 22360.1 -64.9393)
(-47765.1 3201.01 -79.6066)
(-10958.3 597.645 -8.67862)
(10585.7 599.279 -8.43429)
(43117.8 3156.41 -77.4148)
(-49054.5 805.347 -80.5397)
(-11333.8 116.719 -8.81768)
(10946.8 114.496 -8.56403)
(44293.7 773.416 -78.2831)
(-50898.3 932.148 -80.5318)
(-11649.2 121.084 -8.80033)
(11242.4 117.58 -8.54787)
(45996 892.331 -78.3137)
(-53761.8 1748.17 -80.7411)
(-12148.4 399.955 -8.82368)
(11718.1 395.045 -8.5781)
(48687.6 1700.64 -78.642)
(-58400.5 5010.52 -82.54)
(-13002.3 2761.71 -9.48609)
(12543.1 2742.27 -9.25668)
(53118.2 4924.81 -80.6841)
(-65080.8 21522.9 -94.3606)
(-14416.6 18702.2 -17.8062)
(13881.2 18524.2 -17.6156)
(59548.4 20996 -93.0175)
(-66775 71232.2 -177.669)
(-16001 71481.7 -95.8759)
(14836.9 70218.7 -95.7828)
(60819.4 67493.8 -177.329)
)
;

boundaryField
{
    interface
    {
        type            calculated;
        value           nonuniform List<vector> 
192
(
(-111165 65614.5 -72526.7)
(-101607 8107.99 -70720.5)
(-103221 1808.69 -72037.4)
(-106346 1908.08 -73965)
(-110870 3247.98 -76737.9)
(-117565 7618.2 -80899.5)
(-125532 27103.3 -86153.1)
(-118597 83684.3 -83618.6)
(-105269 33886.4 -17268.7)
(-100804 4561.71 -21163.1)
(-102829 1006.56 -21724.3)
(-106113 1065.4 -22116.3)
(-111012 1961.5 -22680.8)
(-118680 5654.83 -23572.1)
(-128930 25029.2 -25010.5)
(-125622 86257.2 -27079.8)
(-93752.8 27182.7 -3870.41)
(-90394.2 3652.45 -4897.33)
(-92354.2 855.439 -5023.49)
(-95527.9 951.563 -5080.34)
(-100360 1792.17 -5152.67)
(-108080 5288.47 -5273.92)
(-118797 23595.7 -5639.43)
(-117773 81061.7 -7590.07)
(-86160.7 25118.6 -1379.22)
(-83042.1 3408.64 -1695.38)
(-84931.7 823.556 -1728.57)
(-88041.8 936.213 -1737.77)
(-92826.5 1767.92 -1746.67)
(-100516 5168.07 -1770.35)
(-111292 22713.1 -1936.82)
(-111247 76987.1 -3201.16)
(-81590.3 24108.1 -718.615)
(-78576.6 3303.1 -867.938)
(-80431.8 813.048 -881.225)
(-83514 933.464 -883.025)
(-88275.6 1759.59 -884.716)
(-95927.8 5098.32 -896.911)
(-106654 22164.9 -1000.27)
(-106989 74359.2 -1788.53)
(-78837 23532.1 -408.633)
(-75885.3 3246.03 -490.351)
(-77724.8 808.469 -496.827)
(-80794.3 932.722 -497.127)
(-85541.5 1754.04 -497.941)
(-93158.5 5052.51 -506.543)
(-103813 21821.5 -572.124)
(-104291 72693.8 -1053.36)
(-77253 23209.1 -213.623)
(-74336.7 3214.9 -255.54)
(-76169 806.273 -258.647)
(-79232 932.35 -258.662)
(-83969.4 1750.17 -259.221)
(-91559.5 5024.14 -264.532)
(-102156 21618 -301.212)
(-102684 71699.6 -563.09)
(-76525.2 23062.9 -66.6444)
(-73625 3201.01 -79.6066)
(-75454.3 805.347 -80.5397)
(-78514.3 932.148 -80.5318)
(-83246.7 1748.17 -80.7411)
(-90822.2 5010.52 -82.54)
(-101387 21522.9 -94.3606)
(-101930 71232.2 -177.669)
(-68424.3 65614.5 -116412)
(-66370.4 8107.99 -106626)
(-67601.9 1808.69 -108341)
(-69504.3 1908.08 -111511)
(-72266.6 3247.98 -116057)
(-76391.5 7618.2 -122807)
(-81458.2 27103.3 -130960)
(-78310.8 83684.3 -124097)
(-12981.2 37205.9 -114887)
(-15735.7 4958.53 -109797)
(-16169.1 1044.02 -111888)
(-16514.1 1067.95 -115207)
(-17017.5 1970.11 -120105)
(-17797.8 5757.8 -127771)
(-18894.9 25700.4 -138032)
(-19365.2 88281.5 -133949)
(12100.7 36897.7 -112993)
(14697.9 4920 -107844)
(15087.7 1030.31 -109852)
(15403.3 1059.73 -113114)
(15886 1964.23 -117974)
(16652.7 5740.79 -125603)
(17704.2 25536 -135815)
(17618 87048.5 -131800)
(63246.8 64004.5 -110654)
(60922.3 7945.54 -100793)
(62033.5 1749.4 -102289)
(63819 1866.23 -105300)
(66479.9 3219.57 -109731)
(70527.1 7576.01 -116366)
(75535.1 26665.7 -124377)
(72151.5 80082.8 -117762)
(102014 64004.5 -69314)
(92110.8 7945.54 -67393.1)
(93536 1749.4 -68582.1)
(96466 1866.23 -70423.3)
(100816 3219.57 -73137.2)
(107371 7576.01 -77245.4)
(115256 26665.7 -82434.4)
(108361 80082.8 -80053.7)
(96147 33020.9 -16898.8)
(91423.5 4494.75 -20705.5)
(93246.6 973.103 -21246.4)
(96311.6 1031.93 -21631.4)
(100990 1930.39 -22197.1)
(108445 5601.88 -23097.3)
(118532 24555 -24551.5)
(115267 82481.4 -26660.4)
(84878.7 26400.2 -3820.5)
(81276.1 3597.93 -4833.38)
(83031.7 823.46 -4957.44)
(85975.7 915.549 -5014.99)
(90556.4 1753.71 -5090.9)
(98002 5221.6 -5220.11)
(108462 23102.5 -5600.16)
(107400 77319.4 -7569.21)
(77502.4 24367 -1355.58)
(74150 3357.8 -1665.96)
(75837.1 791.494 -1698.56)
(78710.8 898.467 -1708.41)
(83224.5 1725.27 -1719.37)
(90598 5092.62 -1747.53)
(101049 22205.9 -1923.04)
(100887 73256.2 -3201.62)
(73079.7 23378.6 -702.428)
(69838.9 3254.95 -847.655)
(71492.8 781.01 -860.495)
(74333.2 894.738 -862.68)
(78809 1714.59 -865.562)
(86119.9 5017.93 -880.295)
(96479.9 21648.5 -988.98)
(96643.3 70627.6 -1786.83)
(70414.5 22816.9 -398.591)
(67239.5 3199.74 -477.625)
(68878 776.469 -483.788)
(71701.5 893.4 -484.32)
(76152.4 1707.65 -485.836)
(83412.6 4969.2 -495.9)
(93675.9 21299.4 -564.577)
(93947.9 68959.5 -1051.69)
(68879.5 22502.4 -208.211)
(65741.9 3169.75 -248.62)
(67373.1 774.315 -251.536)
(70187.5 892.689 -251.673)
(74623.2 1703.01 -252.605)
(81847.1 4939.19 -258.685)
(92037.1 21092.7 -296.993)
(92339.1 67962.7 -562.036)
(68173.3 22360.1 -64.9393)
(65052.7 3156.41 -77.4148)
(66680.9 773.416 -78.2831)
(69491.2 892.331 -78.3137)
(73919.2 1700.64 -78.642)
(81124.4 4924.81 -80.6841)
(91275.7 20996 -93.0175)
(91583.2 67493.8 -177.329)
(-78310.8 124204 -83618.6)
(-81508.6 131144 -27079.8)
(-76507.8 123097 -7590.07)
(-72476.5 116505 -3201.16)
(-69863.2 112221 -1788.53)
(-68213.6 109495 -1053.36)
(-67233.8 107864 -563.09)
(-66775 107096 -177.669)
(-19365.2 134038 -88230.3)
(-18902.3 138183 -25689)
(-17813.4 128011 -5745.82)
(-17044.7 120480 -1948.69)
(-16560.2 115815 -1003.49)
(-16259.3 112932 -576.465)
(-16082.9 111234 -305.073)
(-16001 110440 -95.8759)
(17618 131873 -87007.5)
(17700.6 135937 -25528)
(16646.5 125793 -5732.5)
(15877.2 118274 -1947.92)
(15393.6 113613 -1003.1)
(15093.9 110730 -576.075)
(14918.4 109031 -304.806)
(14836.9 108237 -95.7828)
(72151.5 117813 -80053.7)
(75538.8 124464 -26660.4)
(70538.8 116504 -7569.21)
(66512.2 109952 -3201.62)
(63906.6 105678 -1786.83)
(62258.9 102954 -1051.69)
(61278.9 101322 -562.036)
(60819.4 100553 -177.329)
)
;
    }
    symmetry
    {
        type            symmetry;
    }
    bottom
    {
        type            calculated;
        value           nonuniform List<vector> 
32
(
(-68424.3 117116 -72526.7)
(-64041.9 59833.2 -17268.7)
(-57117.1 48040.6 -3870.41)
(-52628.8 44351.6 -1379.22)
(-49944.5 42523.7 -718.615)
(-48334.2 41477.1 -408.633)
(-47410.4 40889.2 -213.623)
(-46986.6 40622.6 -66.6444)
(-12981.2 65747.8 -70329.7)
(-11430 14203.6 -14667.4)
(-10252.5 7078.08 -2011.47)
(-9558.63 6157.67 -287.95)
(-9158.58 5926.29 -85.8256)
(-8924.28 5814.37 -43.1664)
(-8792.11 5753.62 -21.984)
(-8732.09 5726.43 -6.79712)
(12100.7 65190.9 -69265.8)
(10999.9 14113.1 -14540.1)
(9869.28 7030.7 -1999.01)
(9190.91 6117.06 -285.319)
(8801.65 5889.42 -84.2669)
(8574.31 5779.99 -42.1684)
(8446.22 5720.75 -21.4291)
(8388.08 5694.27 -6.61935)
(63246.8 114151 -69314)
(59096.1 58203.3 -16898.8)
(52320.5 46555.2 -3820.5)
(47952.3 42921.3 -1355.58)
(45350.7 41132.9 -702.428)
(43790.1 40111.6 -398.591)
(42894.2 39538.5 -208.211)
(42482.8 39278.8 -64.9393)
)
;
    }
}


// ************************************************************************* //
