/*--------------------------------*- C++ -*----------------------------------*\
| =========                 |                                                 |
| \\      /  F ield         | OpenFOAM: The Open Source CFD Toolbox           |
|  \\    /   O peration     | Version:  v1912                                 |
|   \\  /    A nd           | Website:  www.openfoam.com                      |
|    \\/     M anipulation  |                                                 |
\*---------------------------------------------------------------------------*/
FoamFile
{
    version     2.0;
    format      ascii;
    class       pointVectorField;
    location    "0.6/solid";
    object      pointD;
}
// * * * * * * * * * * * * * * * * * * * * * * * * * * * * * * * * * * * * * //

dimensions      [0 1 0 0 0 0 0];


internalField   nonuniform List<vector> 
405
(
(3.5471e-08 3.52438e-08 3.66139e-08)
(6.64604e-09 2.30601e-08 4.07906e-08)
(9.3546e-11 1.88988e-08 3.84809e-08)
(-6.30384e-09 2.27418e-08 4.01118e-08)
(-3.37028e-08 3.4221e-08 3.5992e-08)
(5.97174e-08 4.34886e-08 6.49084e-08)
(1.82167e-08 3.89543e-08 9.07885e-08)
(5.60872e-10 3.24245e-08 8.60944e-08)
(-1.67378e-08 3.81486e-08 8.95805e-08)
(-5.62414e-08 4.17187e-08 6.42214e-08)
(6.74986e-08 2.60185e-08 8.09232e-08)
(2.39794e-08 2.51397e-08 1.06128e-07)
(1.37807e-09 2.17237e-08 1.01146e-07)
(-2.08247e-08 2.40021e-08 1.05159e-07)
(-6.23328e-08 2.37703e-08 8.06615e-08)
(6.90134e-08 1.23338e-08 9.17934e-08)
(2.47616e-08 1.31622e-08 1.17368e-07)
(2.30551e-09 1.14037e-08 1.11998e-07)
(-1.97602e-08 1.17084e-08 1.16555e-07)
(-6.20215e-08 9.6024e-09 9.18436e-08)
(7.02131e-08 2.15259e-09 1.01545e-07)
(2.50611e-08 2.9037e-09 1.27789e-07)
(3.3143e-09 1.28443e-09 1.22114e-07)
(-1.80435e-08 1.15402e-09 1.27093e-07)
(-6.12088e-08 -1.0459e-09 1.01826e-07)
(7.37727e-08 -7.05249e-09 1.12193e-07)
(2.68169e-08 -7.18205e-09 1.39465e-07)
(4.40577e-09 -9.32499e-09 1.33574e-07)
(-1.76151e-08 -9.21229e-09 1.38854e-07)
(-6.25837e-08 -1.06949e-08 1.12648e-07)
(8.16269e-08 -1.92584e-08 1.25096e-07)
(3.12993e-08 -2.00554e-08 1.53997e-07)
(5.57527e-09 -2.23345e-08 1.48131e-07)
(-1.97651e-08 -2.23555e-08 1.53451e-07)
(-6.81211e-08 -2.33196e-08 1.25686e-07)
(9.49403e-08 -5.10738e-08 1.40604e-07)
(3.86669e-08 -5.08369e-08 1.72881e-07)
(6.78744e-09 -5.1408e-08 1.67865e-07)
(-2.47154e-08 -5.32343e-08 1.72416e-07)
(-7.90413e-08 -5.52946e-08 1.41313e-07)
(9.12121e-08 -1.01238e-07 1.37273e-07)
(4.31188e-08 -1.11604e-07 1.47834e-07)
(7.56393e-09 -1.09321e-07 1.449e-07)
(-2.76114e-08 -1.1324e-07 1.48146e-07)
(-7.43978e-08 -1.04504e-07 1.38311e-07)
(3.68491e-08 1.97869e-08 6.34477e-09)
(0 0 0)
(0 0 0)
(0 0 0)
(-3.47132e-08 1.88461e-08 6.46651e-09)
(7.84504e-08 3.15358e-08 2.10345e-08)
(1.54751e-08 1.76206e-08 2.39295e-08)
(4.63202e-10 1.20013e-08 2.36911e-08)
(-1.42031e-08 1.67512e-08 2.41834e-08)
(-7.345e-08 2.93874e-08 2.15333e-08)
(8.44107e-08 1.67301e-08 3.49337e-08)
(2.03302e-08 1.19927e-08 3.87764e-08)
(1.16832e-09 8.86674e-09 3.86589e-08)
(-1.76089e-08 1.07482e-08 3.92706e-08)
(-7.78776e-08 1.40433e-08 3.58986e-08)
(8.61443e-08 5.10339e-09 4.48396e-08)
(2.09362e-08 3.65735e-09 4.8848e-08)
(2.00243e-09 2.01225e-09 4.87743e-08)
(-1.65539e-08 2.11017e-09 4.95326e-08)
(-7.78864e-08 1.8812e-09 4.61754e-08)
(8.80694e-08 -3.88611e-09 5.3352e-08)
(2.122e-08 -5.57961e-09 5.73355e-08)
(2.93943e-09 -7.11619e-09 5.72246e-08)
(-1.49627e-08 -7.40078e-09 5.81629e-08)
(-7.78622e-08 -7.61898e-09 5.49682e-08)
(9.27744e-08 -1.20712e-08 6.2099e-08)
(2.2978e-08 -1.5762e-08 6.60254e-08)
(3.97534e-09 -1.78544e-08 6.5849e-08)
(-1.46447e-08 -1.78468e-08 6.6961e-08)
(-8.04205e-08 -1.62854e-08 6.39283e-08)
(1.02409e-07 -2.24761e-08 7.19021e-08)
(2.74677e-08 -2.84703e-08 7.57794e-08)
(5.10151e-09 -3.07839e-08 7.55761e-08)
(-1.68851e-08 -3.08091e-08 7.67971e-08)
(-8.77675e-08 -2.71329e-08 7.38928e-08)
(1.19077e-07 -5.05643e-08 8.16971e-08)
(3.48189e-08 -5.51354e-08 8.56051e-08)
(6.28368e-09 -5.56961e-08 8.5512e-08)
(-2.18777e-08 -5.75492e-08 8.66732e-08)
(-1.0208e-07 -5.53816e-08 8.37921e-08)
(9.5475e-08 -1.09642e-07 8.78086e-08)
(3.93583e-08 -1.4245e-07 8.90102e-08)
(7.47446e-09 -1.38099e-07 8.89463e-08)
(-2.40269e-08 -1.43319e-07 9.00871e-08)
(-7.85272e-08 -1.12714e-07 8.96831e-08)
(3.00582e-08 1.16617e-08 4.31094e-10)
(0 0 0)
(0 0 0)
(0 0 0)
(-2.79981e-08 1.08521e-08 5.94473e-10)
(6.37464e-08 1.69923e-08 5.88742e-09)
(1.06768e-08 6.40545e-09 9.8563e-09)
(3.56911e-10 1.70301e-09 1.08767e-08)
(-9.62026e-09 5.61376e-09 1.01589e-08)
(-5.90186e-08 1.5072e-08 6.44027e-09)
(6.81557e-08 5.57835e-09 1.60043e-08)
(1.40805e-08 1.89475e-09 2.11958e-08)
(9.66452e-10 -7.91398e-10 2.26639e-08)
(-1.17697e-08 6.93346e-10 2.17089e-08)
(-6.21085e-08 3.05624e-09 1.696e-08)
(6.92737e-08 -3.41071e-09 2.53812e-08)
(1.43798e-08 -4.58542e-09 3.08328e-08)
(1.719e-09 -6.09392e-09 3.24632e-08)
(-1.05719e-08 -6.10814e-09 3.1508e-08)
(-6.16642e-08 -6.51398e-09 2.66545e-08)
(7.08935e-08 -1.07775e-08 3.35356e-08)
(1.45614e-08 -1.23712e-08 3.90344e-08)
(2.5891e-09 -1.38707e-08 4.07152e-08)
(-9.01057e-09 -1.41745e-08 3.98369e-08)
(-6.14532e-08 -1.44196e-08 3.50607e-08)
(7.54737e-08 -1.74299e-08 4.11974e-08)
(1.62351e-08 -2.10874e-08 4.67035e-08)
(3.5714e-09 -2.31742e-08 4.83952e-08)
(-8.71154e-09 -2.31563e-08 4.76051e-08)
(-6.39632e-08 -2.15721e-08 4.29186e-08)
(8.53635e-08 -2.52747e-08 4.84214e-08)
(2.0705e-08 -3.13199e-08 5.39006e-08)
(4.65562e-09 -3.36337e-08 5.55952e-08)
(-1.10113e-08 -3.36416e-08 5.48746e-08)
(-7.16073e-08 -2.987e-08 5.02872e-08)
(1.03124e-07 -4.84618e-08 5.34648e-08)
(2.81496e-08 -5.30174e-08 5.88913e-08)
(5.80674e-09 -5.34858e-08 6.05966e-08)
(-1.61562e-08 -5.54065e-08 5.99026e-08)
(-8.70434e-08 -5.32155e-08 5.54148e-08)
(8.28704e-08 -1.0181e-07 5.59349e-08)
(3.26886e-08 -1.31279e-07 5.82258e-08)
(6.977e-09 -1.26102e-07 5.99129e-08)
(-1.83474e-08 -1.32088e-07 5.92261e-08)
(-6.68819e-08 -1.04801e-07 5.76683e-08)
(2.59849e-08 8.66712e-09 4.11765e-10)
(0 0 0)
(0 0 0)
(0 0 0)
(-2.40313e-08 7.95232e-09 5.3388e-10)
(5.49716e-08 1.08871e-08 4.39682e-09)
(7.77639e-09 2.34073e-09 6.86482e-09)
(2.71711e-10 -1.73567e-09 7.79031e-09)
(-6.90212e-09 1.61681e-09 7.09138e-09)
(-5.05364e-08 9.16455e-09 4.8181e-09)
(5.86264e-08 -4.46868e-10 1.22697e-08)
(1.02604e-08 -3.46009e-09 1.55302e-08)
(7.99798e-10 -5.80739e-09 1.6853e-08)
(-8.29341e-09 -4.58432e-09 1.59216e-08)
(-5.30238e-08 -2.77238e-09 1.3007e-08)
(5.96152e-08 -8.82171e-09 2.05467e-08)
(1.04125e-08 -9.86538e-09 2.39458e-08)
(1.48128e-09 -1.1259e-08 2.54085e-08)
(-7.08865e-09 -1.13182e-08 2.44654e-08)
(-5.25842e-08 -1.17519e-08 2.15379e-08)
(6.12404e-08 -1.51143e-08 2.80466e-08)
(1.05937e-08 -1.67073e-08 3.14311e-08)
(2.29193e-09 -1.81791e-08 3.29412e-08)
(-5.64399e-09 -1.84506e-08 3.20553e-08)
(-5.24863e-08 -1.86108e-08 2.92475e-08)
(6.58823e-08 -2.01653e-08 3.46351e-08)
(1.22697e-08 -2.38515e-08 3.7987e-08)
(3.22586e-09 -2.59356e-08 3.95146e-08)
(-5.44153e-09 -2.58685e-08 3.86953e-08)
(-5.51349e-08 -2.41866e-08 3.60051e-08)
(7.59656e-08 -2.58465e-08 3.99311e-08)
(1.67511e-08 -3.19308e-08 4.32557e-08)
(4.27152e-09 -3.42548e-08 4.47899e-08)
(-7.82642e-09 -3.42054e-08 4.40252e-08)
(-6.3018e-08 -3.03391e-08 4.14269e-08)
(9.4026e-08 -4.63053e-08 4.2735e-08)
(2.41934e-08 -5.0934e-08 4.60771e-08)
(5.39168e-09 -5.14487e-08 4.76203e-08)
(-1.3027e-08 -5.32774e-08 4.68756e-08)
(-7.87758e-08 -5.09643e-08 4.43017e-08)
(7.55548e-08 -9.65722e-08 4.36498e-08)
(2.87658e-08 -1.24472e-07 4.53966e-08)
(6.53643e-09 -1.19289e-07 4.7e-08)
(-1.53008e-08 -1.25246e-07 4.61772e-08)
(-6.04202e-08 -9.94888e-08 4.50262e-08)
(2.38351e-08 7.56714e-09 7.21519e-10)
(0 0 0)
(0 0 0)
(0 0 0)
(-2.19661e-08 6.91935e-09 8.07436e-10)
(5.03382e-08 8.55104e-09 4.23646e-09)
(6.54987e-09 9.50301e-10 5.40817e-09)
(2.14825e-10 -2.78106e-09 5.955e-09)
(-5.80567e-09 2.7804e-10 5.57044e-09)
(-4.61347e-08 6.97908e-09 4.53885e-09)
(5.36582e-08 -3.07909e-09 1.03982e-08)
(8.64581e-09 -5.79389e-09 1.19419e-08)
(6.80955e-10 -7.94767e-09 1.27288e-08)
(-6.93245e-09 -6.84683e-09 1.22271e-08)
(-4.84068e-08 -5.23539e-09 1.09363e-08)
(5.4719e-08 -1.15329e-08 1.70555e-08)
(8.78522e-09 -1.25606e-08 1.86304e-08)
(1.30467e-09 -1.38853e-08 1.95008e-08)
(-5.82802e-09 -1.39398e-08 1.90133e-08)
(-4.81459e-08 -1.42983e-08 1.77883e-08)
(5.64807e-08 -1.73643e-08 2.32531e-08)
(9.02923e-09 -1.90062e-08 2.47751e-08)
(2.06529e-09 -2.04597e-08 2.56712e-08)
(-4.54445e-09 -2.06814e-08 2.52397e-08)
(-4.82754e-08 -2.07129e-08 2.41517e-08)
(6.12386e-08 -2.14675e-08 2.85081e-08)
(1.07493e-08 -2.51912e-08 2.99827e-08)
(2.95755e-09 -2.727e-08 3.08883e-08)
(-4.46769e-09 -2.71479e-08 3.05147e-08)
(-5.11104e-08 -2.53614e-08 2.95444e-08)
(7.14045e-08 -2.60253e-08 3.23577e-08)
(1.5231e-08 -3.21195e-08 3.38229e-08)
(3.96906e-09 -3.44541e-08 3.47359e-08)
(-6.9189e-09 -3.43409e-08 3.44044e-08)
(-5.91231e-08 -3.04092e-08 3.34984e-08)
(8.94368e-08 -4.52584e-08 3.42046e-08)
(2.26108e-08 -4.99593e-08 3.57289e-08)
(5.06071e-09 -5.05548e-08 3.66599e-08)
(-1.21108e-08 -5.22554e-08 3.63332e-08)
(-7.4879e-08 -4.98223e-08 3.54047e-08)
(7.20975e-08 -9.37017e-08 3.46441e-08)
(2.72059e-08 -1.20646e-07 3.55959e-08)
(6.18116e-09 -1.15654e-07 3.65993e-08)
(-1.44542e-08 -1.21384e-07 3.61831e-08)
(-5.76713e-08 -9.65455e-08 3.56924e-08)
(2.27162e-08 7.11291e-09 7.38721e-10)
(0 0 0)
(0 0 0)
(0 0 0)
(-2.09038e-08 6.5114e-09 7.96601e-10)
(4.7977e-08 7.64254e-09 3.59935e-09)
(6.11927e-09 4.26115e-10 4.09859e-09)
(1.78583e-10 -3.13266e-09 4.37219e-09)
(-5.46084e-09 -2.07989e-10 4.21041e-09)
(-4.39309e-08 6.17842e-09 3.80556e-09)
(5.12131e-08 -4.07977e-09 8.17808e-09)
(8.1036e-09 -6.69761e-09 8.81711e-09)
(6.01158e-10 -8.7566e-09 9.21205e-09)
(-6.56358e-09 -7.69485e-09 9.01567e-09)
(-4.62051e-08 -6.10723e-09 8.54974e-09)
(5.23911e-08 -1.26391e-08 1.30763e-08)
(8.28297e-09 -1.36981e-08 1.36992e-08)
(1.18144e-09 -1.49894e-08 1.41355e-08)
(-5.5841e-09 -1.50162e-08 1.39682e-08)
(-4.61418e-08 -1.52718e-08 1.35886e-08)
(5.42941e-08 -1.83405e-08 1.7681e-08)
(8.59327e-09 -2.00337e-08 1.82517e-08)
(1.90276e-09 -2.14768e-08 1.86995e-08)
(-4.44399e-09 -2.16499e-08 1.85806e-08)
(-4.6484e-08 -2.15645e-08 1.83159e-08)
(5.91475e-08 -2.20806e-08 2.15322e-08)
(1.03517e-08 -2.58267e-08 2.20668e-08)
(2.76122e-09 -2.78976e-08 2.25201e-08)
(-4.472e-09 -2.77298e-08 2.24461e-08)
(-4.9473e-08 -2.58641e-08 2.22714e-08)
(6.93238e-08 -2.6243e-08 2.42592e-08)
(1.48172e-08 -3.23228e-08 2.48001e-08)
(3.74434e-09 -3.46584e-08 2.52625e-08)
(-6.96223e-09 -3.44972e-08 2.52169e-08)
(-5.75395e-08 -3.0532e-08 2.50789e-08)
(8.72296e-08 -4.49634e-08 2.55921e-08)
(2.21233e-08 -4.96952e-08 2.6195e-08)
(4.81198e-09 -5.03444e-08 2.66766e-08)
(-1.21264e-08 -5.19507e-08 2.66291e-08)
(-7.31969e-08 -4.94457e-08 2.64585e-08)
(7.05704e-08 -9.22854e-08 2.59145e-08)
(2.67166e-08 -1.18616e-07 2.63691e-08)
(5.91199e-09 -1.13786e-07 2.68996e-08)
(-1.45079e-08 -1.19321e-07 2.67893e-08)
(-5.6686e-08 -9.50665e-08 2.66699e-08)
(2.21177e-08 6.90586e-09 5.62275e-10)
(0 0 0)
(0 0 0)
(0 0 0)
(-2.03398e-08 6.33405e-09 5.97928e-10)
(4.67457e-08 7.27514e-09 2.55569e-09)
(5.97162e-09 2.13157e-10 2.76512e-09)
(1.565e-10 -3.26158e-09 2.89182e-09)
(-5.3661e-09 -3.94936e-10 2.83534e-09)
(-4.27969e-08 5.88224e-09 2.68355e-09)
(4.99872e-08 -4.41178e-09 5.58664e-09)
(7.93909e-09 -7.00931e-09 5.84135e-09)
(5.50758e-10 -9.02499e-09 6.02386e-09)
(-6.50911e-09 -7.96766e-09 5.96676e-09)
(-4.51329e-08 -6.35065e-09 5.81901e-09)
(5.12606e-08 -1.29989e-08 8.77592e-09)
(8.16007e-09 -1.40926e-08 9.00775e-09)
(1.10131e-09 -1.53695e-08 9.20887e-09)
(-5.62953e-09 -1.53669e-08 9.1787e-09)
(-4.52202e-08 -1.55371e-08 9.09907e-09)
(5.32624e-08 -1.86919e-08 1.17752e-08)
(8.51585e-09 -2.04202e-08 1.1972e-08)
(1.7946e-09 -2.18572e-08 1.21782e-08)
(-4.58994e-09 -2.19929e-08 1.21823e-08)
(-4.57123e-08 -2.18247e-08 1.21792e-08)
(5.81719e-08 -2.23679e-08 1.42761e-08)
(1.02951e-08 -2.61216e-08 1.44531e-08)
(2.62824e-09 -2.81841e-08 1.46635e-08)
(-4.6876e-09 -2.79845e-08 1.46969e-08)
(-4.88011e-08 -2.60688e-08 1.47499e-08)
(6.83297e-08 -2.64677e-08 1.60418e-08)
(1.47398e-08 -3.25243e-08 1.62299e-08)
(3.59007e-09 -3.48535e-08 1.64488e-08)
(-7.19857e-09 -3.46634e-08 1.64989e-08)
(-5.68832e-08 -3.0685e-08 1.65704e-08)
(8.61154e-08 -4.49866e-08 1.6948e-08)
(2.19866e-08 -4.97179e-08 1.71821e-08)
(4.6396e-09 -5.03896e-08 1.74156e-08)
(-1.23383e-08 -5.19431e-08 1.74627e-08)
(-7.24447e-08 -4.94075e-08 1.75089e-08)
(6.98462e-08 -9.16358e-08 1.72025e-08)
(2.65635e-08 -1.17569e-07 1.74165e-08)
(5.7243e-09 -1.1283e-07 1.76749e-08)
(-1.47336e-08 -1.18248e-07 1.76876e-08)
(-5.63389e-08 -9.43695e-08 1.76913e-08)
(2.18147e-08 6.81151e-09 2.97311e-10)
(0 0 0)
(0 0 0)
(0 0 0)
(-2.00552e-08 6.25616e-09 3.14303e-10)
(4.61305e-08 7.12798e-09 1.314e-09)
(5.91454e-09 1.30677e-10 1.39396e-09)
(1.44654e-10 -3.30507e-09 1.44397e-09)
(-5.33756e-09 -4.62391e-10 1.42783e-09)
(-4.22341e-08 5.77531e-09 1.37513e-09)
(4.93874e-08 -4.50285e-09 2.82112e-09)
(7.8837e-09 -7.09925e-09 2.91425e-09)
(5.23078e-10 -9.09616e-09 2.98603e-09)
(-6.51422e-09 -8.03481e-09 2.97492e-09)
(-4.46171e-08 -6.39033e-09 2.93271e-09)
(5.07164e-08 -1.30822e-08 4.38824e-09)
(8.13017e-09 -1.4198e-08 4.46811e-09)
(1.05641e-09 -1.54689e-08 4.54705e-09)
(-5.6939e-09 -1.54462e-08 4.55111e-09)
(-4.47922e-08 -1.55645e-08 4.54426e-09)
(5.27715e-08 -1.87922e-08 5.85903e-09)
(8.50969e-09 -2.05388e-08 5.92244e-09)
(1.73301e-09 -2.19721e-08 6.00355e-09)
(-4.71086e-09 -2.20853e-08 6.02492e-09)
(-4.53683e-08 -2.18699e-08 6.05513e-09)
(5.77071e-08 -2.2494e-08 7.08596e-09)
(1.02972e-08 -2.62481e-08 7.14153e-09)
(2.55152e-09 -2.83042e-08 7.22512e-09)
(-4.84654e-09 -2.80866e-08 7.26069e-09)
(-4.851e-08 -2.61443e-08 7.31707e-09)
(6.78451e-08 -2.66252e-08 7.95719e-09)
(1.47264e-08 -3.26632e-08 8.02029e-09)
(3.50019e-09 -3.49852e-08 8.10894e-09)
(-7.36771e-09 -3.47805e-08 8.1521e-09)
(-5.65939e-08 -3.07982e-08 8.21604e-09)
(8.5553e-08 -4.5074e-08 8.42114e-09)
(2.19365e-08 -4.97951e-08 8.50783e-09)
(4.53848e-09 -5.04722e-08 8.60416e-09)
(-1.24926e-08 -5.20015e-08 8.64558e-09)
(-7.20936e-08 -4.94569e-08 8.69651e-09)
(6.9485e-08 -9.13661e-08 8.56658e-09)
(2.64971e-08 -1.17072e-07 8.65663e-09)
(5.61373e-09 -1.12371e-07 8.76249e-09)
(-1.48904e-08 -1.17735e-07 8.78951e-09)
(-5.61991e-08 -9.40705e-08 8.80653e-09)
(1.7431e-08 7.10633e-09 0)
(2.09652e-09 1.79771e-09 0)
(-2.06094e-12 -3.16346e-10 0)
(-1.97631e-09 1.5934e-09 0)
(-1.60988e-08 6.51522e-09 0)
(2.87865e-08 5.24733e-09 0)
(5.89801e-09 1.09598e-10 0)
(1.40931e-10 -3.31461e-09 0)
(-5.33002e-09 -4.78567e-10 0)
(-2.64195e-08 4.11663e-09 0)
(3.1965e-08 -4.93529e-09 0)
(7.86837e-09 -7.11606e-09 0)
(5.14271e-10 -9.10763e-09 0)
(-6.51815e-09 -8.04413e-09 0)
(-2.87573e-08 -6.57171e-09 0)
(3.27557e-08 -1.31738e-08 0)
(8.12292e-09 -1.4215e-08 0)
(1.04199e-09 -1.54842e-08 0)
(-5.71694e-09 -1.54546e-08 0)
(-2.84482e-08 -1.53355e-08 0)
(3.40013e-08 -1.9163e-08 0)
(8.50953e-09 -2.05624e-08 0)
(1.71304e-09 -2.19944e-08 0)
(-4.75188e-09 -2.21001e-08 0)
(-2.82788e-08 -2.1845e-08 0)
(3.76733e-08 -2.36091e-08 0)
(1.0299e-08 -2.6283e-08 0)
(2.52647e-09 -2.83367e-08 0)
(-4.89951e-09 -2.81133e-08 0)
(-3.023e-08 -2.67965e-08 0)
(4.58563e-08 -2.88018e-08 0)
(1.47226e-08 -3.27115e-08 0)
(3.47069e-09 -3.50305e-08 0)
(-7.42381e-09 -3.48214e-08 0)
(-3.64345e-08 -3.24601e-08 0)
(6.00638e-08 -4.74061e-08 0)
(2.19205e-08 -4.98292e-08 0)
(4.50518e-09 -5.05068e-08 0)
(-1.25439e-08 -5.20293e-08 0)
(-4.84974e-08 -5.12438e-08 0)
(5.99642e-08 -8.24108e-08 0)
(2.62808e-08 -9.00877e-08 0)
(5.30724e-09 -8.73106e-08 0)
(-1.52911e-08 -9.14947e-08 0)
(-4.75495e-08 -8.52911e-08 0)
)
;

boundaryField
{
    interface
    {
        type            calculated;
    }
    symmetry
    {
        type            symmetry;
    }
    bottom
    {
        type            calculated;
    }
}


// ************************************************************************* //
