/*--------------------------------*- C++ -*----------------------------------*\
| =========                 |                                                 |
| \\      /  F ield         | OpenFOAM: The Open Source CFD Toolbox           |
|  \\    /   O peration     | Version:  v1912                                 |
|   \\  /    A nd           | Website:  www.openfoam.com                      |
|    \\/     M anipulation  |                                                 |
\*---------------------------------------------------------------------------*/
FoamFile
{
    version     2.0;
    format      ascii;
    class       volSymmTensorField;
    location    "0.6/solid";
    object      sigma;
}
// * * * * * * * * * * * * * * * * * * * * * * * * * * * * * * * * * * * * * //

dimensions      [1 -1 -2 0 0 0 0];


internalField   nonuniform List<symmTensor> 
256
(
(-186123 25254 -9794.32 431049 27888.3 -199308)
(69775.3 -7626.3 -4060.11 273362 27643.4 -235571)
(71351.7 8606.58 3931.66 270746 27834 -231002)
(-161856 -23979.9 9761.5 423991 28598.1 -184151)
(-219173 -774.076 -14742.7 147228 2262.05 -227429)
(-30922.2 -4886.1 -6623.2 78447.8 3708.31 -279882)
(-28249.2 6154.12 6568.14 77467 3906.11 -274821)
(-192355 1384.3 14742.1 147646 2918.07 -211088)
(-220600 -4059.3 -15781.2 146005 -1149.54 -228440)
(-42558.9 -3953.5 -7228.31 49105.4 -843.586 -288361)
(-39910.6 5040.94 7240.26 48391.1 -710.212 -283157)
(-193443 4497.77 15805.7 146738 -695.026 -211805)
(-219108 -2497.99 -16324.4 164667 210.203 -229539)
(-34465.8 -2855.3 -7504.18 41157.4 -49.7888 -293633)
(-31831.4 3665.38 7537.58 40555.3 38.6122 -288323)
(-191534 2842.46 16360 165521 526.567 -212616)
(-225963 -282.101 -16888.5 171522 2863.16 -238451)
(-31988.2 -1414.25 -7808.67 33656.8 2470.02 -305904)
(-29319.7 1969.07 7842.02 33091.9 2534.76 -300507)
(-197918 526.288 16930.7 172521 3099.35 -221247)
(-247381 3777.55 -17387.1 152399 7555.14 -259289)
(-47091.2 1068.29 -8104.52 12201 7325.48 -331865)
(-44411.6 -808.699 8134.58 11673.7 7377.53 -326385)
(-218937 -3678.04 17438.7 153600 7742.39 -241774)
(-284376 11629.3 -17316.3 44212.8 15284.9 -293528)
(-83141.1 5119.57 -8102.34 -79972.9 15916.2 -375116)
(-80430.2 -5323.69 8133.52 -79754.6 15955.2 -369485)
(-255581 -11745.3 17379.4 47337.3 15423 -275504)
(-216911 16079.9 -16015.8 -226044 19526.4 -225852)
(25357.8 7576.65 -7506.92 -305400 21018.8 -305079)
(28067.9 -7503.79 7528.56 -299942 21046.3 -299637)
(-188221 -16079.8 16071.4 -208608 19617.8 -208513)
(-220622 15345 -7334.14 213999 -3733.83 51962.7)
(-33926.3 -9814.85 -2138.44 49654.2 8398.48 -39669.6)
(-32637.7 10500.4 2444.45 46913 9073.6 -40003.1)
(-196753 -14208.9 7478.98 207103 -1694.63 53620)
(-258530 -2366.49 -11079.1 55896.9 2129.45 -20892.1)
(-126522 -5337.6 -4330.72 -40791.1 8350.04 -127747)
(-123936 6082.64 4823.32 -42068.4 8777.17 -127345)
(-231992 2718.44 11291.7 55749.7 3489.49 -17227.1)
(-264962 -4208.43 -11529.3 41818.1 2080.32 -28832.1)
(-146422 -3980.69 -4669.57 -82065 4060.55 -149692)
(-143800 4508.04 5237.29 -82805.8 4359.09 -149286)
(-237986 4392.04 11764.7 42562.5 3068.79 -25357.6)
(-267588 -2644.86 -11652.6 42624.2 2644.94 -26493)
(-146248 -2893.28 -4659.83 -106629 3034.48 -155865)
(-143623 3224.32 5254.62 -107163 3256.81 -155500)
(-240133 2784.5 11900 43688 3394.59 -23190)
(-277840 -497.825 -11925.3 40969 6158.83 -28339.9)
(-149752 -1539.47 -4800.96 -123429 6083.91 -163961)
(-147083 1711.14 5397.12 -123925 6256.02 -163631)
(-249813 586.523 12180.6 42169.4 6737.99 -25111.9)
(-304017 3684.11 -12170.8 24132.7 11787 -40948.6)
(-170633 921.277 -4998.47 -143754 11616.5 -183431)
(-167946 -956.036 5585.36 -144234 11748.7 -183143)
(-275432 -3699.64 12434.5 25472.9 12228.7 -37753.3)
(-349660 12137.7 -12062.7 -65907.5 16397.2 -66827.1)
(-212925 5146.75 -5030.54 -216462 16457.6 -216859)
(-210204 -5542.57 5588.69 -216208 16542.7 -216532)
(-320563 -12333.1 12326.9 -62675.9 16688 -63428.9)
(-284669 17353.7 -11514.9 -293716 15397.9 43973)
(-83101.7 8141.12 -4941.95 -375345 16005.1 -79590.6)
(-80353 -8116.68 5406.71 -369649 16040.9 -79269.4)
(-255629 -17383.8 11740.5 -275463 15520.8 47328)
(-193671 8826.59 -2963.04 151516 8780.66 98284.2)
(-31404.7 -12511.7 -248.506 1620.92 19903.7 -1195.23)
(-30098.5 12791.3 468.262 -871.039 20384.7 -1873.89)
(-170278 -7888.45 3027.4 145609 10263.9 99216.3)
(-215167 -3130.93 -4264.98 49766.8 11690.6 64622)
(-91248.9 -5887.79 -987.743 -45758.2 17292.9 -56153.6)
(-88757.4 6328.58 1337.24 -47091.8 17689 -56328.9)
(-189377 3360.79 4384.11 49443.6 12934.3 66934.5)
(-219564 -3997.69 -4122.43 48238.1 10269.4 53890.1)
(-105849 -3912.39 -989.042 -72024 12111.3 -81782.6)
(-103327 4176.85 1358.41 -72870.4 12435 -81975.1)
(-193354 4075.51 4254.55 48626 11296.9 55923)
(-222415 -2583.18 -3911.84 51864.3 9263.27 52306.2)
(-105895 -2885.07 -825.385 -91047.2 9653.73 -92566.3)
(-103362 2992.2 1189.3 -91678.5 9919.97 -92822.7)
(-195702 2634.5 4045 52578 10111.1 54085.6)
(-232513 -540.312 -3856.11 53097.6 10782.9 49472.6)
(-109486 -1650.56 -789.561 -104050 10752.5 -102597)
(-106894 1644.83 1142.6 -104627 10970.8 -102911)
(-205146 563.301 3989.32 53978.9 11473.4 51102.1)
(-258213 3723.44 -3827 42550.1 13184.3 38715.9)
(-129364 813.459 -837.53 -117861 13038.9 -120999)
(-126725 -974.576 1174.33 -118406 13210.4 -121368)
(-230118 -3780.86 3960.84 43613.7 13724 40276.2)
(-304095 12241.3 -3763.97 -39019.3 12570.9 22285.5)
(-169959 5090.83 -911.82 -181859 12361.5 -144731)
(-167247 -5561.02 1202.54 -181644 12474.8 -145047)
(-275228 -12456.6 3888.69 -35993.8 12935.1 24079.8)
(-247700 17417.6 -3794.48 -259319 8005.85 152545)
(-46294 8127.21 -979.688 -331806 7746.61 13296.6)
(-43551 -8119.7 1134.18 -326209 7787.29 12981.8)
(-218724 -17449.1 3869.13 -241421 8143.22 154297)
(-176135 6183.33 -820.027 126827 12783.8 95386.6)
(-27811.3 -13340.8 556.701 -12372.9 19424.1 -1394.19)
(-26511.6 13324.1 -377.349 -14631.6 19761.2 -1950.38)
(-153164 -5421.79 858.374 121812 13839.9 96728.1)
(-190318 -3233.37 -983.305 41291.1 15392.9 78782.8)
(-73752.9 -5980.58 684.013 -51111.5 18732.1 -40874.9)
(-71313.8 6210.73 -392.921 -52317 19045.2 -40960.4)
(-165099 3378.71 1062.64 41263 16368.9 81348.5)
(-193359 -3649.92 -673.967 47061.5 14521 68613.6)
(-84663.3 -3739.15 858.535 -68420.8 15587.7 -65384.9)
(-82188.5 3854.02 -565.694 -69220.3 15868.4 -65487.5)
(-167737 3673.02 760.805 47503.7 15394.5 70884.1)
(-196319 -2359.74 -395.906 56492.1 12994.8 62921.4)
(-84459.3 -2768.43 1041.43 -79785 13145.9 -79902.1)
(-81966.2 2766.29 -771.344 -80401.9 13392.6 -80067.5)
(-170175 2370.43 477.791 57171.2 13761.5 64928.8)
(-206478 -434.362 -239.437 62086.4 12324.3 57352.4)
(-88176.1 -1639.99 1129.73 -87634.7 12236 -92687.8)
(-85614.5 1556.87 -881.437 -88200.7 12446.8 -92916.1)
(-179626 430.031 315.497 62920.3 12975.8 59187.8)
(-231913 3751.91 -165.305 54283.8 11406.9 47746.4)
(-107630 741.411 1123.44 -98665 11298.4 -110052)
(-105005 -951.694 -899.394 -99189.2 11467 -110335)
(-204217 -3822.61 235.723 55325.5 11927.5 49504.7)
(-277163 12023.8 -204.626 -25206.3 8018.4 38719.8)
(-146865 4879.32 1014.93 -161292 7850.71 -126328)
(-144139 -5377.59 -845.342 -161047 7962.4 -126549)
(-248507 -12240.8 259.64 -22169.1 8372.14 40726.8)
(-225207 16955.9 -355.608 -237957 3906.03 174399)
(-28263.5 7833.71 951.787 -305252 3527.57 35883.6)
(-25495.6 -7838.87 -920.775 -299674 3564.3 35662.5)
(-196264 -16986.1 358.585 -220171 4030.3 176339)
(-166479 5378.51 -164.329 115438 11927 88824.8)
(-27009.8 -13181.1 581.896 -17542.4 15255.5 -3578.2)
(-25730.6 12983.2 -440.615 -19626.8 15494.1 -4033.25)
(-143797 -4738.94 195.64 111108 12673 90501.8)
(-178418 -3075.74 -19.0995 35014.4 14135.2 77133.8)
(-68235.9 -5812.41 920.025 -54515.3 15762.5 -36726.3)
(-65854.7 5903.81 -680.818 -55601.7 15993.8 -36704.9)
(-153591 3162.56 84.4686 35305.9 14852.4 80003.5)
(-181069 -3353.18 245.722 43110.1 14150.6 68488.3)
(-77674.4 -3564.7 1107.61 -68440.7 14606.3 -58712.4)
(-75254.4 3582.47 -865.46 -69181 14823.2 -58706.6)
(-155847 3341.54 -174.461 43698.4 14821 71059.7)
(-184198 -2147.78 460.724 55827.8 12891.3 61435.9)
(-77441.2 -2651.12 1242.39 -75440.3 12878 -74052.4)
(-74997.1 2584.85 -1024.42 -76033.3 13076.4 -74107.7)
(-158440 2135.68 -395.658 56559.1 13503.8 63743)
(-194490 -322.034 592.251 64157.9 11202.5 54774.4)
(-81333.6 -1601.97 1309.55 -80050.1 11108.5 -87697.6)
(-78815.5 1478.65 -1117.27 -80605.9 11282.9 -87816.3)
(-167984 304.198 -535.268 65006.9 11739 56902.5)
(-219759 3738.19 637.299 57378.7 8752.32 46544.2)
(-100599 680.376 1299.68 -90111.9 8718.11 -103629)
(-98006.6 -914.184 -1135.7 -90627.4 8859.57 -103802)
(-192339 -3814.18 -589.078 58432.5 9188.81 48589.8)
(-264349 11762 561.718 -20993.9 4943.3 41470.7)
(-138988 4672.25 1200.54 -152384 4909.23 -116078)
(-136278 -5185.61 -1089.44 -152128 5003.05 -116183)
(-235856 -11978.8 -530.757 -17936.3 5241.92 43765.3)
(-214673 16507.2 421.572 -227025 2074.51 176180)
(-23921.5 7563.56 1151.32 -291488 1838.68 43868.7)
(-21157.4 -7580.18 -1159.28 -285914 1868.88 43762.5)
(-185768 -16538.9 -437.325 -209269 2177.12 178384)
(-160826 5180.64 -36.1994 109998 9284.95 84690.6)
(-27094.9 -12844.7 376.454 -19775.5 10846.6 -4766.81)
(-25829.6 12540 -275.587 -21735.9 11006.7 -5158.32)
(-138307 -4617.17 60.7294 106157 9780.45 86597.4)
(-172174 -2900.05 102.02 31917.7 10760.2 74149.3)
(-66790.8 -5626.51 634.071 -55849.7 11473.9 -35237.9)
(-64451.7 5632.16 -457.031 -56849.1 11631.9 -35145.3)
(-147575 2949.91 -50.4356 32466.2 11247 77248.4)
(-174824 -3155.17 273.053 40525.3 11082.5 66752.4)
(-75818.9 -3442.93 764.249 -68605.1 11231.1 -55186.6)
(-73439.9 3397.24 -581.218 -69298.2 11382.5 -55107.7)
(-149835 3120.8 -216.149 41255.9 11549.3 69557.1)
(-178104 -2007.62 405.24 54373.8 10242 60005.5)
(-75681.5 -2577.66 843.157 -73889.5 10181.1 -69861.3)
(-73274.9 2468.66 -678.388 -74462.3 10322.8 -69843.1)
(-152568 1980.58 -353.276 55175.4 10679.2 62545.2)
(-188478 -251.29 485.115 63802.2 8570.16 53574)
(-79702.4 -1579.94 877.768 -77128.6 8509.48 -83128.5)
(-77218.2 1429.89 -735.481 -77678.4 8636.33 -83174)
(-162166 224.654 -440.592 64683.5 8961.21 55931.6)
(-213600 3710.65 503.547 57446.1 6131.79 46429.5)
(-98843.4 633.954 863.589 -86830.2 6153.12 -97969.9)
(-96279.5 -884.02 -746.897 -87345.3 6257.18 -98069.5)
(-186332 -3790.5 -467.616 58517 6454.62 48699.3)
(-257675 11573.6 440.435 -19808.1 3082.56 42914.8)
(-136718 4537.59 795.457 -148496 3135.39 -109005)
(-134025 -5062.63 -721.886 -148241 3204.72 -109035)
(-229265 -11791.6 -419.506 -16735.3 3305.3 45428.2)
(-209184 16214.3 337.332 -220750 1196.89 175480)
(-23740.5 7395.73 756.476 -283712 1100.18 48125)
(-20984.9 -7421.99 -772.821 -278141 1122.53 48094.2)
(-180284 -16249 -352.738 -203000 1273.32 177882)
(-157523 5127.99 -20.8779 107494 5829.46 82567.1)
(-27236.2 -12610.7 189.051 -20735.5 6521.26 -5397.89)
(-25977.6 12246.9 -128.755 -22615.7 6613.49 -5751.16)
(-135087 -4608.07 36.4517 103965 6112.09 84618.8)
(-168713 -2788.19 49.5834 30685.8 6625.02 72245.7)
(-66413.9 -5509.36 323.173 -56230.6 6916.09 -34784.7)
(-64098.9 5466.44 -214.813 -57173 7007.95 -34648.7)
(-144234 2817.06 -16.5043 31411 6906.3 75497.5)
(-171436 -3044.51 137.568 39335.7 6881.95 65628.1)
(-75376.5 -3376.43 391.046 -68569.3 6918.33 -53516.6)
(-73021.3 3292.64 -276.996 -69229.9 7007.34 -53392.6)
(-146569 2996.51 -100.568 40173.6 7155.79 68592.4)
(-174812 -1931.77 204.663 53376.6 6405.7 59575.2)
(-75337 -2542.27 428.883 -73361.3 6358.78 -67323)
(-72952.2 2405.86 -325.508 -73919 6443.09 -67259.5)
(-149391 1895.14 -170.591 54238.7 6666.11 62274.8)
(-185217 -216.113 243.793 63070.5 5281.37 53747.4)
(-79426.1 -1572.97 442.56 -76201 5254.41 -79937.4)
(-76961.8 1404.57 -353.973 -76746.1 5330.74 -79938.1)
(-159007 183.346 -214.736 63983 5517.34 56261.6)
(-210226 3689.06 249.635 56901.1 3641.77 47278.2)
(-98482.8 605.588 431.596 -85755.1 3676.36 -94131.7)
(-95935.4 -867.73 -360.399 -86270.6 3739.48 -94186.9)
(-183035 -3772.17 -226.602 57988.6 3838.61 49700)
(-253965 11466.7 212.633 -19465.4 1755.94 44241.4)
(-136058 4468.02 394.677 -146804 1820.54 -104777)
(-133376 -5002.02 -351.369 -146550 1862.8 -104762)
(-225592 -11686.4 -199.577 -16380.3 1892.74 46901.5)
(-206067 16057 150.521 -217089 654.054 175168)
(-24170.1 7310.66 368.323 -279307 629.136 50456.6)
(-21419.4 -7343.92 -380.742 -273736 642.827 50471.2)
(-177158 -16094.5 -160.334 -199336 701.122 177704)
(-155969 5107.62 -8.75111 106527 1982.26 81695.9)
(-27289.1 -12505.1 55.816 -21074.6 2180.97 -5685.05)
(-26033.1 12115.1 -35.7684 -22915.6 2211.08 -6020.02)
(-133569 -4607.49 14.057 103150 2074.05 83818)
(-167107 -2739.9 10.5918 30300.8 2229.4 71414.2)
(-66287.6 -5458.94 95.1381 -56295.8 2308.72 -34698.8)
(-63983.5 5394.22 -58.6916 -57210 2338.83 -34542)
(-142679 2759.36 0.755656 31115.4 2321.3 74742.1)
(-169874 -2997.2 36.8136 38920.5 2318.31 65165.9)
(-75252.7 -3349.28 115.299 -68498.5 2324.02 -52887.3)
(-72908.2 3247.75 -76.5695 -69142.5 2353.36 -52741.3)
(-145058 2942.88 -24.0152 39815.3 2408.45 68211.2)
(-173294 -1899.95 56.9172 52926.5 2163.16 59562.4)
(-75265.6 -2529.23 126.171 -73198.3 2147.01 -66182.3)
(-72890.5 2379.33 -90.8875 -73747.9 2174.95 -66096.7)
(-147921 1858.59 -45.0626 53822.5 2249.5 62343.8)
(-183706 -202.326 68.3635 62632.5 1775.15 54139.9)
(-79381.5 -1571.95 129.521 -75970.9 1768.4 -78383.9)
(-76926 1393.95 -99.3352 -76513.2 1793.83 -78362.9)
(-157539 166.314 -58.2541 63563.6 1853.89 56734.1)
(-208655 3678.46 69.5896 56532.9 1209.88 47986.8)
(-98395.1 592.9 125.593 -85471.5 1225.19 -92283.7)
(-95855 -861.695 -101.517 -85987 1246.31 -92317.6)
(-181495 -3763.47 -61.6205 57630.7 1275.91 50485.8)
(-252230 11420.6 57.7868 -19364.5 578.148 45061.8)
(-135832 4440.28 114.177 -146161 604.974 -102852)
(-133154 -4979.24 -99.7175 -145908 619.152 -102816)
(-223870 -11641.4 -53.2921 -16272.2 624.218 47795.9)
(-204578 15991 37.0887 -215367 211.341 175172)
(-24399.6 7276.75 104.777 -277282 208.512 51489.7)
(-21650.8 -7313.72 -109.177 -271711 213.115 51525.8)
(-175660 -16030.1 -40.3798 -197611 227.219 177776)
)
;

boundaryField
{
    interface
    {
        type            calculated;
        value           nonuniform List<symmTensor> 
192
(
(-44.0555 0.353985 2.87626 907814 27888.3 277457)
(-45.8577 0.274828 4.61292 604023 2262.05 229367)
(-47.337 -0.0325445 5.18017 609174 -1149.54 234729)
(-48.2495 -0.460409 5.30336 638357 210.203 244151)
(-48.4721 -0.826614 5.22484 664307 2863.16 254333)
(-49.3216 -1.48367 5.06686 678272 7555.14 266584)
(-47.705 -1.97712 4.65698 614398 15284.9 276657)
(-51.2195 -4.38186 4.33575 290458 19526.4 290650)
(-42.898 0.252207 1.41673 684493 -3733.83 522457)
(-43.744 0.191164 2.43872 526691 2129.45 449902)
(-44.6284 -0.0859966 2.70947 522601 2080.32 451951)
(-45.2431 -0.524525 2.71632 536260 2644.94 467143)
(-45.2321 -0.914303 2.6084 556497 6158.83 487188)
(-45.9892 -1.6415 2.45689 578264 11787 513183)
(-44.1031 -2.18947 2.19251 544392 16397.2 543473)
(-47.7481 -4.71805 1.97907 276915 15397.9 614605)
(-45.5209 0.215332 1.11652 569330 8780.66 516098)
(-46.2691 0.150566 1.90016 464798 11690.6 479653)
(-47.1427 -0.123467 2.10363 472153 10269.4 477805)
(-47.7695 -0.587624 2.10352 488336 9263.27 488778)
(-47.6701 -1.0172 2.01564 511153 10782.9 507528)
(-48.3373 -1.82681 1.89319 539192 13184.3 535357)
(-45.9967 -2.45652 1.69958 515561 12570.9 576866)
(-49.4101 -5.15781 1.53443 267435 8005.85 679299)
(-45.7232 0.162 0.683986 510010 12783.8 478570)
(-46.2812 0.0770788 1.23082 419415 15392.9 456907)
(-46.9693 -0.19776 1.36558 433237 14521 454789)
(-47.491 -0.669933 1.35277 455043 12994.8 461473)
(-47.2803 -1.11791 1.27944 482080 12324.3 477346)
(-47.8748 -1.96403 1.18497 512640 11406.9 506102)
(-45.3747 -2.63067 1.06022 491029 8018.4 554956)
(-48.7311 -5.3773 0.958376 255849 3906.03 668205)
(-46.5131 0.136624 0.500452 478160 11927 451547)
(-47.0139 0.0319735 0.900981 392090 14135.2 434210)
(-47.6205 -0.252031 1.00039 407947 14150.6 433325)
(-48.0939 -0.735381 0.990876 433014 12891.3 438622)
(-47.8087 -1.20231 0.936768 462760 11202.5 453377)
(-48.3288 -2.07963 0.866392 494140 8752.32 483305)
(-45.6537 -2.78011 0.778416 473186 4943.3 535650)
(-48.8731 -5.57169 0.70447 247060 2074.51 650265)
(-46.7187 0.116814 0.306129 460464 9284.95 435157)
(-47.1688 -0.00417002 0.569507 376705 10760.2 418937)
(-47.7037 -0.29629 0.635326 393018 11082.5 419245)
(-48.1306 -0.786392 0.627573 419235 10242 424866)
(-47.792 -1.26411 0.590351 450063 8570.16 439835)
(-48.2675 -2.15757 0.542939 481677 6131.79 470661)
(-45.5096 -2.87592 0.488115 461366 3082.56 524089)
(-48.6774 -5.69058 0.443424 241347 1196.89 637576)
(-46.9777 0.1072 0.179657 450887 5829.46 425961)
(-47.4094 -0.024966 0.333827 368459 6625.02 410019)
(-47.9066 -0.324186 0.372661 384820 6881.95 411112)
(-48.3079 -0.819845 0.36827 411247 6405.7 417445)
(-47.9349 -1.30569 0.346713 442320 5281.37 432996)
(-48.3762 -2.21033 0.318676 473975 3641.77 464353)
(-45.5533 -2.94131 0.287475 454200 1755.94 517906)
(-48.6704 -5.77305 0.260691 237932 654.054 630189)
(-47.0405 0.10117 0.0532554 446655 1982.26 421824)
(-47.4593 -0.0366771 0.102582 364844 2229.4 405958)
(-47.9355 -0.338946 0.11516 381183 2318.31 407428)
(-48.3225 -0.8365 0.113536 407583 2163.16 414219)
(-47.9349 -1.32569 0.106501 438653 1775.15 430160)
(-48.3604 -2.23453 0.0973421 470301 1209.88 461755)
(-45.5177 -2.97133 0.0879468 450811 578.148 515238)
(-48.6092 -5.81026 0.0794758 236323 211.341 626862)
(315046 25254 -4.08456 932218 -0.9413 -16.6008)
(259098 -774.076 -6.87557 625498 -1.07628 -12.2487)
(264233 -4059.3 -7.88931 630837 -0.862801 -8.49066)
(277515 -2497.99 -8.20305 661290 -0.612542 -7.16769)
(290716 -282.101 -8.2743 688201 -0.509843 -7.07138)
(302335 3777.55 -8.33531 702114 -0.550661 -7.94974)
(309133 11629.3 -8.42934 637722 -0.678472 -10.0077)
(323080 16079.9 -9.18466 313947 -0.893536 -11.7772)
(581037 -7626.3 -2.48979 784623 -0.554612 -21.0535)
(481151 -4886.1 -4.71875 590521 -0.783027 -20.0686)
(480618 -3953.5 -5.45704 572282 -0.630854 -18.8403)
(502821 -2855.3 -5.64759 578444 -0.361002 -18.487)
(528053 -1414.25 -5.69118 593698 -0.191933 -18.4824)
(551453 1068.29 -5.78875 610745 -0.106407 -18.8442)
(570585 5119.57 -6.0528 573753 -0.123567 -19.5286)
(634488 7576.65 -7.06566 303730 -0.208832 -19.9808)
(573890 8606.58 -2.53548 773284 -0.389712 -18.1482)
(474682 6154.12 -4.84088 580399 -0.596436 -17.3941)
(473764 5040.94 -5.63967 562066 -0.471659 -16.2588)
(495706 3665.38 -5.85571 568093 -0.190605 -15.8969)
(520798 1969.07 -5.89231 583210 0.0198931 -15.9129)
(544042 -808.699 -5.95137 600127 0.189483 -16.2598)
(562968 -5323.69 -6.14647 563643 0.284073 -17.016)
(627191 -7503.79 -7.10275 299181 0.292244 -17.8881)
(312253 -23979.9 -2.87826 898099 -0.309925 -18.5874)
(258077 1384.3 -5.61763 598078 -0.482494 -18.1356)
(262642 4497.77 -6.62743 602823 -0.356959 -17.1799)
(275652 2842.46 -6.91712 632707 -0.062612 -16.9351)
(288789 526.288 -6.96102 659228 0.16212 -17.023)
(300266 -3678.04 -7.02872 672803 0.371425 -17.3061)
(306687 -11745.3 -7.15451 609605 0.52955 -17.8456)
(321711 -16079.8 -8.13886 301324 0.682681 -18.5113)
(-8.94702 0.859161 0.914927 857688 28598.1 249546)
(-5.77871 0.957585 1.75382 559048 2918.07 200314)
(-3.02684 0.545723 2.00641 563698 -695.026 205155)
(-1.79052 -0.0266251 2.09667 592128 526.567 213991)
(-1.52151 -0.322759 2.14086 617399 3099.35 223632)
(-0.269259 -0.741225 2.33936 630899 7742.39 235526)
(-1.17085 -0.709183 2.47664 568500 15423 245659)
(7.57715 -2.93803 3.02516 259065 19617.8 259160)
(-13.9487 0.341927 -0.230732 634802 -1694.63 481319)
(-13.2977 0.395989 -0.0934463 481682 3489.49 408705)
(-12.4989 0.172899 -0.133144 477575 3068.79 409655)
(-11.9587 -0.176422 -0.143131 490567 3394.59 423689)
(-11.8483 -0.285778 -0.09324 509906 6737.99 442625)
(-10.2959 -0.555045 0.126412 530813 12228.7 467586)
(-10.4884 -0.285518 0.392219 498032 16688 497278)
(-1.1245 -2.40641 0.842188 245759 15520.8 568550)
(-14.1995 0.186233 -0.0508395 521717 10263.9 475325)
(-13.7228 0.181386 0.18131 420871 12934.3 438362)
(-13.0895 0.0390559 0.255453 428028 11296.9 435325)
(-12.4708 -0.201932 0.302235 443501 10111.1 445009)
(-12.2471 -0.203858 0.366572 465309 11473.4 462432)
(-10.3016 -0.393525 0.535317 492238 13724 488901)
(-10.1655 -0.0119455 0.705645 469320 12935.1 529394)
(-0.0271496 -2.26513 0.943319 235890 8143.22 631608)
(-15.7159 0.0850913 -0.0999643 464242 13839.9 439158)
(-15.4902 0.0386624 0.0972203 376835 16368.9 416920)
(-15.158 -0.0498752 0.179279 390231 15394.5 413612)
(-14.5807 -0.203246 0.226934 411207 13761.5 418965)
(-14.2977 -0.112592 0.281416 437127 12975.8 433395)
(-12.0471 -0.228631 0.403197 466406 11927.5 460585)
(-11.535 0.233007 0.516907 445219 8372.14 508115)
(-0.92927 -2.06379 0.657247 224252 4030.3 620762)
(-15.988 0.0683593 0.00822265 433727 12673 413121)
(-15.7581 0.00653588 0.206314 350549 14852.4 395246)
(-15.4451 -0.0619971 0.301892 365815 14821 393176)
(-14.8011 -0.181214 0.351948 389931 13503.8 397115)
(-14.4444 -0.0473116 0.392723 418455 11739 410350)
(-12.0174 -0.134358 0.466269 448429 9188.81 438587)
(-11.3577 0.353278 0.519557 427711 5241.92 489412)
(-0.494858 -2.01352 0.576913 215501 2177.12 603153)
(-16.4485 0.062131 0.00401548 416905 9780.45 397345)
(-16.229 -0.00465793 0.148087 335847 11247 380629)
(-15.934 -0.0613273 0.222108 351457 11549.3 379758)
(-15.2505 -0.160535 0.25961 376632 10679.2 384002)
(-14.8353 0.00152194 0.287434 406150 8961.21 397398)
(-12.2837 -0.0663572 0.33321 436270 6454.62 426453)
(-11.5075 0.435859 0.362811 416073 3305.3 478237)
(-0.451744 -1.97118 0.392561 209792 1273.32 590674)
(-16.5664 0.0646363 0.0196942 407851 6112.09 388504)
(-16.3333 -0.0025674 0.11155 328011 6906.3 372097)
(-16.0258 -0.0541807 0.158984 343600 7155.79 372019)
(-15.3081 -0.145682 0.182256 368927 6666.11 376963)
(-14.8555 0.0287886 0.198213 398634 5517.34 390912)
(-12.2334 -0.0320718 0.221621 428738 3838.61 420450)
(-11.4066 0.475024 0.234445 409001 1892.74 472283)
(-0.242732 -1.96209 0.244657 206371 701.122 583411)
(-16.6789 0.0647873 0.00201186 403863 2074.05 384531)
(-16.4446 -0.00208439 0.0312092 324588 2321.3 368214)
(-16.1336 -0.0507337 0.0468725 340122 2408.45 368518)
(-15.4015 -0.138081 0.0545417 365393 2249.5 373915)
(-14.9289 0.0425601 0.0600288 395071 1853.89 388241)
(-12.2714 -0.0142006 0.0677644 425139 1275.91 417994)
(-11.4098 0.495158 0.0726294 405652 624.218 469720)
(-0.196319 -1.95504 0.0760202 204755 227.219 580141)
(323544 9.25541 -16015.8 -11.316 -0.782228 314603)
(309578 8.52668 -11514.9 -9.30939 -0.563737 638219)
(303065 8.47725 -3794.48 -6.75438 -0.387133 703311)
(292863 8.48537 -355.608 -5.14181 -0.251128 692468)
(283409 8.5575 421.572 -3.89397 -0.18111 674263)
(276476 8.60291 337.332 -3.01713 -0.111647 661140)
(272198 8.64277 150.521 -2.46053 -0.0676558 653433)
(270206 8.66011 37.0887 -2.19282 -0.0203335 649955)
(634943 7.10982 -7506.92 -19.6058 -0.0761408 304506)
(571265 6.09967 -4941.95 -19.0311 0.0150102 574776)
(553082 5.84173 -979.688 -18.0377 0.0892803 612673)
(532837 5.74986 951.787 -17.3061 0.101198 596984)
(514621 5.73707 1151.32 -16.6839 0.08767 582412)
(501173 5.7279 756.476 -16.2297 0.0682842 573038)
(492789 5.73164 368.323 -15.9317 0.0409959 567416)
(488859 5.7321 104.777 -15.776 0.0149504 564748)
(627581 7.14493 7528.56 -17.5314 0.437384 299876)
(563549 6.1805 5406.71 -16.5324 0.436853 564632)
(545506 5.9851 1134.18 -15.4721 0.400543 602039)
(525337 5.93599 -920.775 -14.7553 0.325067 586495)
(507130 5.94708 -1159.28 -14.1211 0.253821 572050)
(493676 5.95186 -772.821 -13.6978 0.177854 562755)
(485287 5.96284 -380.742 -13.4052 0.10575 557178)
(481354 5.96591 -109.177 -13.2707 0.0349033 554530)
(321937 8.15491 16071.4 -18.1929 0.829718 301645)
(306935 7.15984 11740.5 -17.4307 0.684617 609892)
(300823 7.02972 3869.13 -16.6671 0.577757 673844)
(290775 6.97799 358.585 -16.1336 0.452103 663377)
(281333 7.00532 -437.325 -15.6081 0.350656 645484)
(274404 7.01535 -352.738 -15.2839 0.241853 632570)
(270131 7.03321 -160.334 -15.0438 0.145119 624992)
(268143 7.03909 -40.3798 -14.9349 0.0473541 621578)
)
;
    }
    symmetry
    {
        type            symmetry;
    }
    bottom
    {
        type            calculated;
        value           nonuniform List<symmTensor> 
32
(
(-734972 76805.8 -9794.32 126365 73068.9 -748157)
(-507706 51357.9 -7334.14 42748.5 -11690.2 -235121)
(-428506 34872.2 -2963.04 3906.6 1069.91 -136551)
(-392579 27899 -820.027 -8612 8662.55 -121057)
(-373682 25365.4 -164.329 -13673 9876.7 -118379)
(-362941 24402.6 -36.1994 -15962.1 8279.14 -117425)
(-356843 23970.2 -20.8779 -16843.9 5371.4 -116753)
(-354031 23783.5 -8.75111 -17095 1850.81 -116366)
(-241470 -6483.64 -4060.11 95020.7 66403.3 -546816)
(-103969 -10917.7 -2138.44 4583.77 2270.96 -109712)
(-67943.3 -15404.1 -248.506 -24651.8 14716.7 -37733.8)
(-57430.2 -16803.6 556.701 -30169.8 16855 -31013.1)
(-54393.5 -16684.5 581.896 -32051.9 13977.8 -30961.9)
(-53721.4 -16282.6 376.454 -33450.9 10202.3 -31393.3)
(-53589.5 -15998.2 189.051 -34279.7 6223.93 -31751.2)
(-53543.9 -15869.8 55.816 -34615.7 2095.8 -31939.9)
(-237128 6461.44 3931.66 94218.4 66394.1 -539481)
(-102417 10568.7 2444.45 1704.83 3067.75 -109782)
(-66533.5 14628.7 468.262 -27296.9 15276.3 -38308.9)
(-56050.5 15762.4 -377.349 -32580.2 17237 -31489.2)
(-53050.1 15502.2 -440.615 -34293.7 14244.5 -31352.7)
(-52401.6 15026.6 -275.587 -35570.6 10380.3 -31730.3)
(-52282 14705.4 -128.755 -36319.8 6326.2 -32055.6)
(-52241.6 14561.8 -35.7684 -36616.7 2129.16 -32228.6)
(-696348 -74992.8 9761.5 128097 73387.5 -718643)
(-476619 -49636.5 7478.98 39110.3 -9294.73 -226246)
(-398316 -33421.9 3027.4 1481.68 2774.43 -128821)
(-362938 -26691.1 858.374 -9983 9850.12 -113046)
(-344439 -24315.8 195.64 -14281.7 10706 -110140)
(-333927 -23446.6 60.7294 -16026.7 8827.06 -109023)
(-327951 -23065.6 36.4517 -16561.7 5683.16 -108245)
(-325191 -22901.8 14.057 -16645.1 1951.94 -107804)
)
;
    }
}


// ************************************************************************* //
