/*--------------------------------*- C++ -*----------------------------------*\
| =========                 |                                                 |
| \\      /  F ield         | OpenFOAM: The Open Source CFD Toolbox           |
|  \\    /   O peration     | Version:  v1912                                 |
|   \\  /    A nd           | Website:  www.openfoam.com                      |
|    \\/     M anipulation  |                                                 |
\*---------------------------------------------------------------------------*/
FoamFile
{
    version     2.0;
    format      ascii;
    class       volScalarField;
    location    "0.6/solid";
    object      sigmaEq;
}
// * * * * * * * * * * * * * * * * * * * * * * * * * * * * * * * * * * * * * //

dimensions      [1 -1 -2 0 0 0 0];


internalField   nonuniform List<scalar> 
256
(
627493
446503
440518
601032
371499
318459
313575
350719
371665
302585
297792
350882
390146
304432
299675
369172
404963
312294
307536
383798
407243
319152
314377
385934
336255
295330
291197
316583
52637.8
333108
330391
55846.5
381624
89515.5
86972.2
354194
284631
88358.3
86051.8
259930
279099
67271
65462.1
254494
282873
46487.6
45269.2
257931
291355
38159.6
37509.6
265929
302429
41383.9
40791.9
276532
286252
31337.2
32325.6
260883
336263
295779
291657
316588
322652
51612.9
50636.6
296332
273570
52044.5
50006.9
249222
271438
37392.6
35425.3
246699
275089
22512.7
21231
249793
284509
19911.3
19623.3
258558
299878
24903.8
24163.5
273279
302059
40210.9
39795.9
276091
407587
320098
315364
386373
289579
46852
46445
264592
253923
44839.5
43702.8
230880
253224
33097.2
32116.3
229480
257107
23790.8
23788.8
232585
267084
22003.4
22704.4
241750
283748
22278.9
22200.4
257597
290348
34432.2
34231.9
264727
407248
314372
309689
386299
270548
40463.1
40025.8
246370
238632
39975.5
39106.6
216368
239215
30847.5
30168.6
216147
243933
23064.1
23215.4
219959
254828
20817.3
21455.1
229949
272384
19631.7
19304.3
246603
280738
33960.8
33658
255452
398218
307427
302796
377560
259752
35171.2
34566.9
236039
228973
35513.4
34576.8
207095
230455
27287.7
26488
207736
236039
18965.4
18883.9
212360
247771
15944.1
16262.2
223145
266000
15862.3
14849
240442
275436
36418.4
35931.7
250390
391590
302659
298054
371123
253831
31336.6
30555.5
230372
223448
31888.6
30796.6
201755
225450
23529.5
22479
202899
231641
13911.8
13456.2
208111
243932
10156.2
10054.4
219440
262602
12951.9
11143
237172
272748
38735.7
38146.1
247859
387864
299777
295186
367515
251183
29231.9
28334.5
227837
220938
29790.6
28582.7
199321
223175
21087.1
19829.7
200693
229664
10053.4
9160.51
206198
242224
5105.86
4282.6
217792
261106
11445.2
9049.95
235735
271610
39941.2
39313.4
246799
386252
298427
293844
365962
)
;

boundaryField
{
    interface
    {
        type            calculated;
        value           nonuniform List<scalar> 
192
(
807227
528170
532206
557939
580606
592048
533657
292567
619651
492861
491160
505326
525436
549052
544718
533836
544926
472881
475384
488868
509740
537818
549266
592908
495580
440217
445163
458891
480252
509833
526143
584027
465929
415526
421970
436464
458599
489096
507428
568582
448681
399980
407266
422499
445332
476431
495787
557604
439118
391115
398843
414578
437876
469329
489229
551227
434832
387109
395028
411006
434528
466140
486283
548366
822513
544360
548765
575175
598391
610039
552745
319838
705369
544228
532464
544626
563773
583385
572264
549822
695546
535549
523619
535635
554670
574161
563398
543526
790821
519588
523569
549486
572381
583833
528344
313276
765724
490617
494169
519326
541436
552352
494568
261323
573693
449711
447541
460832
479970
502650
498505
494615
500467
430480
432179
444615
464315
491164
502569
552976
452872
399416
403329
415838
435867
463995
480000
544496
424384
375798
381115
394282
414975
443888
461765
529404
407845
360873
366990
380835
402160
431602
450432
518647
398687
352349
358885
373203
394960
424719
444060
512406
394585
348495
355213
369764
391729
421630
441201
509610
320382
553164
611061
602070
586398
575116
568512
565538
550200
573111
585178
567655
551670
540717
534044
530903
543850
564186
575876
558450
542529
531608
524951
521818
313542
528592
584734
575970
560551
549433
542927
540002
)
;
    }
    symmetry
    {
        type            symmetry;
    }
    bottom
    {
        type            calculated;
        value           nonuniform List<scalar> 
32
(
887375
485532
386848
345632
324188
312211
305651
302721
567990
113256
53298.6
49205.1
44124.3
39558.7
36224.8
34421.3
561060
109744
50709.5
47061.5
41783.6
36926.2
33315.1
31332.1
855513
455364
357944
318203
297762
286406
280202
277432
)
;
    }
}


// ************************************************************************* //
