/*--------------------------------*- C++ -*----------------------------------*\
| =========                 |                                                 |
| \\      /  F ield         | OpenFOAM: The Open Source CFD Toolbox           |
|  \\    /   O peration     | Version:  v1912                                 |
|   \\  /    A nd           | Website:  www.openfoam.com                      |
|    \\/     M anipulation  |                                                 |
\*---------------------------------------------------------------------------*/
FoamFile
{
    version     2.0;
    format      ascii;
    class       volVectorField;
    location    "0.6/solid";
    object      U;
}
// * * * * * * * * * * * * * * * * * * * * * * * * * * * * * * * * * * * * * //

dimensions      [0 1 -1 0 0 0 0];


internalField   nonuniform List<vector> 
256
(
(2.7575e-08 2.778e-08 3.22293e-08)
(6.18541e-09 1.66592e-08 2.96593e-08)
(-7.39173e-09 1.61428e-08 2.90623e-08)
(-2.70412e-08 2.58677e-08 3.03886e-08)
(4.94553e-08 2.17561e-08 7.27554e-08)
(1.25541e-08 1.26184e-08 6.89505e-08)
(-1.50623e-08 1.23673e-08 6.77735e-08)
(-4.9566e-08 2.11649e-08 6.91263e-08)
(5.34499e-08 1.07331e-09 1.00767e-07)
(1.35154e-08 -2.90647e-09 9.63369e-08)
(-1.7514e-08 -2.69503e-09 9.48376e-08)
(-5.50196e-08 1.99592e-09 9.61502e-08)
(5.20813e-08 -2.15657e-08 1.24519e-07)
(1.21129e-08 -2.36523e-08 1.19116e-07)
(-1.81666e-08 -2.29792e-08 1.17387e-07)
(-5.56808e-08 -1.93049e-08 1.19202e-07)
(5.18637e-08 -4.59095e-08 1.4825e-07)
(1.09367e-08 -4.90311e-08 1.41568e-07)
(-1.96521e-08 -4.79257e-08 1.39643e-07)
(-5.80802e-08 -4.24149e-08 1.42336e-07)
(5.74232e-08 -7.53561e-08 1.74606e-07)
(1.19186e-08 -8.01348e-08 1.66694e-07)
(-2.39344e-08 -7.86058e-08 1.64579e-07)
(-6.68848e-08 -7.06489e-08 1.68123e-07)
(7.25461e-08 -1.19267e-07 2.04387e-07)
(1.60923e-08 -1.21899e-07 1.96441e-07)
(-3.21629e-08 -1.19897e-07 1.94123e-07)
(-8.58928e-08 -1.13188e-07 1.97317e-07)
(9.16749e-08 -1.85042e-07 2.2972e-07)
(2.04965e-08 -1.78969e-07 2.2398e-07)
(-4.15798e-08 -1.76194e-07 2.21466e-07)
(-1.09555e-07 -1.76613e-07 2.22119e-07)
(1.64561e-08 9.38991e-09 1.25057e-08)
(3.46695e-09 6.76585e-10 1.44031e-08)
(-3.94845e-09 4.90402e-10 1.41531e-08)
(-1.54618e-08 8.24277e-09 1.1761e-08)
(3.04224e-08 -1.32799e-09 3.9809e-08)
(7.45793e-09 -8.5655e-09 4.35797e-08)
(-8.28838e-09 -8.55983e-09 4.28957e-08)
(-2.92814e-08 -1.40027e-09 3.78114e-08)
(3.25858e-08 -1.96752e-08 6.49439e-08)
(7.92931e-09 -2.28272e-08 6.92189e-08)
(-9.58636e-09 -2.24723e-08 6.82416e-08)
(-3.22988e-08 -1.85108e-08 6.20798e-08)
(3.07882e-08 -4.02809e-08 8.75959e-08)
(6.60488e-09 -4.20405e-08 9.16956e-08)
(-9.80692e-09 -4.12889e-08 9.05083e-08)
(-3.20532e-08 -3.79229e-08 8.40918e-08)
(3.01468e-08 -6.29469e-08 1.09597e-07)
(5.51384e-09 -6.59775e-08 1.13254e-07)
(-1.09561e-08 -6.48268e-08 1.11886e-07)
(-3.36218e-08 -5.94261e-08 1.0554e-07)
(3.53164e-08 -8.8971e-08 1.32036e-07)
(6.55466e-09 -9.39097e-08 1.35226e-07)
(-1.49275e-08 -9.23611e-08 1.33687e-07)
(-4.16664e-08 -8.42944e-08 1.27455e-07)
(5.09383e-08 -1.24127e-07 1.52883e-07)
(1.09525e-08 -1.26705e-07 1.5586e-07)
(-2.30443e-08 -1.24735e-07 1.54164e-07)
(-6.08156e-08 -1.18198e-07 1.47824e-07)
(7.2167e-08 -1.75568e-07 1.63944e-07)
(1.57071e-08 -1.67268e-07 1.66952e-07)
(-3.25134e-08 -1.64643e-07 1.65185e-07)
(-8.62213e-08 -1.67552e-07 1.58643e-07)
(8.01258e-09 2.4831e-09 6.17771e-09)
(1.02806e-09 -3.76838e-09 9.00393e-09)
(-1.19759e-09 -3.91146e-09 8.8331e-09)
(-6.78067e-09 1.34963e-09 5.69292e-09)
(1.5317e-08 -1.28487e-08 2.52939e-08)
(2.63955e-09 -1.81383e-08 3.06362e-08)
(-2.57081e-09 -1.81003e-08 3.01601e-08)
(-1.34056e-08 -1.29828e-08 2.39477e-08)
(1.59894e-08 -3.19823e-08 4.65644e-08)
(2.57059e-09 -3.43833e-08 5.26276e-08)
(-2.79495e-09 -3.40336e-08 5.19141e-08)
(-1.4426e-08 -3.09672e-08 4.45241e-08)
(1.41245e-08 -5.14121e-08 6.72402e-08)
(1.33624e-09 -5.30615e-08 7.33139e-08)
(-2.64123e-09 -5.2349e-08 7.24133e-08)
(-1.36669e-08 -4.92728e-08 6.46327e-08)
(1.35271e-08 -7.12298e-08 8.68192e-08)
(3.74052e-10 -7.43936e-08 9.26885e-08)
(-3.52102e-09 -7.3307e-08 9.16253e-08)
(-1.48879e-08 -6.79768e-08 8.37112e-08)
(1.87821e-08 -9.20732e-08 1.04567e-07)
(1.51266e-09 -9.72362e-08 1.10195e-07)
(-7.24709e-09 -9.57764e-08 1.08984e-07)
(-2.26663e-08 -8.77154e-08 1.01002e-07)
(3.47528e-08 -1.19166e-07 1.17473e-07)
(6.07238e-09 -1.21931e-07 1.22865e-07)
(-1.52255e-08 -1.20082e-07 1.21541e-07)
(-4.18392e-08 -1.13626e-07 1.1354e-07)
(5.64782e-08 -1.61662e-07 1.20034e-07)
(1.10233e-08 -1.53357e-07 1.25241e-07)
(-2.46139e-08 -1.50886e-07 1.23896e-07)
(-6.74321e-08 -1.54094e-07 1.15986e-07)
(4.30983e-09 -4.5038e-11 4.99446e-09)
(-2.64166e-11 -4.72922e-09 6.90606e-09)
(-4.49295e-13 -4.89155e-09 6.77818e-09)
(-2.93154e-09 -1.28456e-09 4.6404e-09)
(8.51929e-09 -1.73245e-08 1.97012e-08)
(4.44434e-10 -2.13908e-08 2.32728e-08)
(1.15317e-10 -2.14073e-08 2.29282e-08)
(-6.12113e-09 -1.76902e-08 1.8743e-08)
(8.62614e-09 -3.72866e-08 3.68152e-08)
(1.7838e-10 -3.92701e-08 4.08155e-08)
(4.74599e-10 -3.89961e-08 4.02931e-08)
(-6.20157e-09 -3.65625e-08 3.53394e-08)
(7.09569e-09 -5.59665e-08 5.41033e-08)
(-8.4418e-10 -5.76531e-08 5.80385e-08)
(7.95787e-10 -5.70327e-08 5.73645e-08)
(-5.40661e-09 -5.41545e-08 5.21693e-08)
(6.97834e-09 -7.33083e-08 7.01292e-08)
(-1.5445e-09 -7.66575e-08 7.3856e-08)
(3.70685e-13 -7.56768e-08 7.30462e-08)
(-6.76384e-09 -7.04097e-08 6.77771e-08)
(1.26178e-08 -9.02194e-08 8.33049e-08)
(-2.21985e-10 -9.55951e-08 8.68239e-08)
(-3.6043e-09 -9.42537e-08 8.58947e-08)
(-1.46146e-08 -8.62395e-08 8.05783e-08)
(2.86192e-08 -1.12755e-07 9.10934e-08)
(4.3776e-09 -1.15925e-07 9.44621e-08)
(-1.13548e-08 -1.14203e-07 9.34494e-08)
(-3.35345e-08 -1.07605e-07 8.8085e-08)
(4.99155e-08 -1.51426e-07 9.07972e-08)
(9.30968e-09 -1.44236e-07 9.4207e-08)
(-2.04794e-08 -1.41887e-07 9.31877e-08)
(-5.84367e-08 -1.44225e-07 8.77183e-08)
(3.1365e-09 -9.45841e-10 4.34963e-09)
(-2.52321e-10 -4.89102e-09 5.31292e-09)
(3.00474e-10 -5.0745e-09 5.22051e-09)
(-1.66599e-09 -2.27326e-09 4.09726e-09)
(6.47581e-09 -1.85522e-08 1.57226e-08)
(-3.25185e-11 -2.20839e-08 1.74597e-08)
(8.80691e-10 -2.21629e-08 1.72151e-08)
(-3.77102e-09 -1.91346e-08 1.50502e-08)
(6.64539e-09 -3.85417e-08 2.87427e-08)
(-2.26971e-10 -4.04176e-08 3.06049e-08)
(1.43399e-09 -4.02287e-08 3.02333e-08)
(-3.65596e-09 -3.81002e-08 2.77029e-08)
(5.58149e-09 -5.65262e-08 4.19757e-08)
(-9.97319e-10 -5.83453e-08 4.36998e-08)
(1.78817e-09 -5.78219e-08 4.32149e-08)
(-3.04788e-09 -5.50289e-08 4.05947e-08)
(5.99807e-09 -7.22476e-08 5.39995e-08)
(-1.42499e-09 -7.57835e-08 5.55186e-08)
(9.97372e-10 -7.49072e-08 5.49295e-08)
(-4.66319e-09 -6.96797e-08 5.22974e-08)
(1.19843e-08 -8.70177e-08 6.32604e-08)
(7.08154e-11 -9.25639e-08 6.46141e-08)
(-2.52666e-09 -9.13306e-08 6.39339e-08)
(-1.26032e-08 -8.33727e-08 6.12706e-08)
(2.78487e-08 -1.07604e-07 6.80449e-08)
(4.65299e-09 -1.11125e-07 6.93354e-08)
(-1.00335e-08 -1.09509e-07 6.85936e-08)
(-3.11514e-08 -1.02777e-07 6.58428e-08)
(4.85956e-08 -1.44706e-07 6.72285e-08)
(9.51379e-09 -1.38544e-07 6.86537e-08)
(-1.88836e-08 -1.36291e-07 6.79089e-08)
(-5.52909e-08 -1.37792e-07 6.49758e-08)
(2.86385e-09 -1.22678e-09 3.39759e-09)
(-2.11058e-10 -4.87267e-09 3.81914e-09)
(3.00738e-10 -5.07133e-09 3.75711e-09)
(-1.33671e-09 -2.61405e-09 3.22959e-09)
(6.16415e-09 -1.85192e-08 1.15853e-08)
(8.47831e-11 -2.1891e-08 1.22864e-08)
(9.36101e-10 -2.20181e-08 1.21232e-08)
(-3.26935e-09 -1.92602e-08 1.11405e-08)
(6.60535e-09 -3.80667e-08 2.06915e-08)
(4.70205e-11 -3.99911e-08 2.13675e-08)
(1.50721e-09 -3.98706e-08 2.11194e-08)
(-3.2563e-09 -3.7843e-08 2.00025e-08)
(5.95077e-09 -5.54082e-08 2.986e-08)
(-5.08914e-10 -5.73794e-08 3.03933e-08)
(1.84586e-09 -5.69348e-08 3.00677e-08)
(-2.86235e-09 -5.41585e-08 2.89383e-08)
(6.77109e-09 -7.02207e-08 3.80481e-08)
(-7.28597e-10 -7.39079e-08 3.84218e-08)
(1.05036e-09 -7.31149e-08 3.80236e-08)
(-4.67913e-09 -6.79121e-08 3.69028e-08)
(1.29792e-08 -8.40629e-08 4.41232e-08)
(8.89972e-10 -8.97207e-08 4.4388e-08)
(-2.40321e-09 -8.8571e-08 4.3926e-08)
(-1.26464e-08 -8.06756e-08 4.27758e-08)
(2.86883e-08 -1.03972e-07 4.70501e-08)
(5.44868e-09 -1.07704e-07 4.73006e-08)
(-9.71121e-09 -1.06167e-07 4.67956e-08)
(-3.08598e-08 -9.93867e-08 4.55531e-08)
(4.9008e-08 -1.40342e-07 4.63656e-08)
(1.02518e-08 -1.34827e-07 4.67367e-08)
(-1.83478e-08 -1.32643e-07 4.62299e-08)
(-5.441e-08 -1.33639e-07 4.48329e-08)
(2.82418e-09 -1.27861e-09 2.15209e-09)
(-1.4359e-10 -4.80964e-09 2.32039e-09)
(2.55276e-10 -5.0179e-09 2.28481e-09)
(-1.26455e-09 -2.70288e-09 2.05619e-09)
(6.24316e-09 -1.81572e-08 7.10132e-09)
(2.62063e-10 -2.15082e-08 7.34899e-09)
(8.56657e-10 -2.16662e-08 7.2556e-09)
(-3.23795e-09 -1.89985e-08 6.84799e-09)
(6.91994e-09 -3.72183e-08 1.24771e-08)
(3.53148e-10 -3.92221e-08 1.26721e-08)
(1.40419e-09 -3.9147e-08 1.25299e-08)
(-3.35802e-09 -3.71369e-08 1.20842e-08)
(6.54157e-09 -5.4076e-08 1.78257e-08)
(-5.91379e-11 -5.61653e-08 1.79221e-08)
(1.72377e-09 -5.57739e-08 1.7735e-08)
(-3.11799e-09 -5.29914e-08 1.7298e-08)
(7.60967e-09 -6.84281e-08 2.25435e-08)
(-1.48644e-10 -7.22152e-08 2.25434e-08)
(9.29954e-10 -7.14785e-08 2.23136e-08)
(-5.05154e-09 -6.6293e-08 2.18844e-08)
(1.39386e-08 -8.19342e-08 2.59785e-08)
(1.54394e-09 -8.76527e-08 2.59199e-08)
(-2.46888e-09 -8.65588e-08 2.56525e-08)
(-1.30103e-08 -7.87184e-08 2.52e-08)
(2.95356e-08 -1.01652e-07 2.75841e-08)
(6.08831e-09 -1.05486e-07 2.7528e-08)
(-9.64388e-09 -1.04001e-07 2.7235e-08)
(-3.0991e-08 -9.72269e-08 2.67165e-08)
(4.95797e-08 -1.37659e-07 2.71632e-08)
(1.08558e-08 -1.3248e-07 2.71814e-08)
(-1.814e-08 -1.30341e-07 2.68874e-08)
(-5.41571e-08 -1.31094e-07 2.62742e-08)
(2.82349e-09 -1.27112e-09 7.35593e-10)
(-1.07995e-10 -4.76199e-09 7.80436e-10)
(2.29146e-10 -4.97492e-09 7.68856e-10)
(-1.24903e-09 -2.71309e-09 7.04444e-10)
(6.31683e-09 -1.78926e-08 2.39171e-09)
(3.5693e-10 -2.12512e-08 2.45125e-09)
(8.05992e-10 -2.14242e-08 2.42087e-09)
(-3.26081e-09 -1.87821e-08 2.30948e-09)
(7.11499e-09 -3.66639e-08 4.16795e-09)
(5.13715e-10 -3.87171e-08 4.20498e-09)
(1.33732e-09 -3.86643e-08 4.1587e-09)
(-3.45399e-09 -3.66519e-08 4.04033e-09)
(6.87033e-09 -5.3267e-08 5.9223e-09)
(1.71e-10 -5.5418e-08 5.925e-09)
(1.64715e-09 -5.5053e-08 5.86396e-09)
(-3.28894e-09 -5.22642e-08 5.75056e-09)
(8.05302e-09 -6.74279e-08 7.45985e-09)
(1.42686e-10 -7.12636e-08 7.43075e-09)
(8.56724e-10 -7.05549e-08 7.35567e-09)
(-5.27297e-09 -6.53792e-08 7.24482e-09)
(1.44343e-08 -8.08349e-08 8.57084e-09)
(1.86974e-09 -8.6579e-08 8.52363e-09)
(-2.51251e-09 -8.55128e-08 8.4361e-09)
(-1.32198e-08 -7.77044e-08 8.31632e-09)
(2.99753e-08 -1.00513e-07 9.08459e-09)
(6.40824e-09 -1.04385e-07 9.03985e-09)
(-9.62202e-09 -1.02925e-07 8.94389e-09)
(-3.10842e-08 -9.6167e-08 8.80056e-09)
(4.98855e-08 -1.36367e-07 8.94408e-09)
(1.1159e-08 -1.31325e-07 8.92387e-09)
(-1.80488e-08 -1.29209e-07 8.82754e-09)
(-5.4062e-08 -1.2987e-07 8.65289e-09)
)
;

boundaryField
{
    interface
    {
        type            calculated;
        value           nonuniform List<vector> 
192
(
(3.09506e-08 4.70376e-08 2.89519e-08)
(5.25286e-08 2.82247e-08 6.7046e-08)
(5.67148e-08 1.72968e-09 9.4551e-08)
(5.57244e-08 -2.19624e-08 1.18323e-07)
(5.55379e-08 -4.45741e-08 1.42125e-07)
(6.03807e-08 -7.01855e-08 1.68556e-07)
(7.46775e-08 -1.10705e-07 1.98509e-07)
(9.68578e-08 -1.79678e-07 2.24174e-07)
(1.5586e-08 2.11095e-08 7.61525e-09)
(2.95383e-08 2.70435e-09 3.12746e-08)
(3.15789e-08 -1.95839e-08 5.55789e-08)
(2.97155e-08 -4.08907e-08 7.81069e-08)
(2.8759e-08 -6.1815e-08 1.00013e-07)
(3.30284e-08 -8.37732e-08 1.22376e-07)
(4.80616e-08 -1.14914e-07 1.43435e-07)
(7.43779e-08 -1.69875e-07 1.55145e-07)
(5.84117e-09 8.31549e-09 3.14125e-09)
(1.38681e-08 -1.08546e-08 1.98183e-08)
(1.45583e-08 -3.22805e-08 4.05746e-08)
(1.26516e-08 -5.20278e-08 6.13171e-08)
(1.18718e-08 -7.00655e-08 8.10272e-08)
(1.65818e-08 -8.67669e-08 9.88928e-08)
(3.25491e-08 -1.09742e-07 1.11894e-07)
(5.96329e-08 -1.55805e-07 1.14472e-07)
(1.65389e-09 3.16223e-09 3.77551e-09)
(7.02284e-09 -1.62455e-08 1.7491e-08)
(7.28413e-09 -3.76427e-08 3.44792e-08)
(5.80064e-09 -5.63786e-08 5.19676e-08)
(5.65142e-09 -7.19279e-08 6.8247e-08)
(1.10248e-08 -8.48092e-08 8.16055e-08)
(2.74153e-08 -1.0343e-07 8.93674e-08)
(5.3977e-08 -1.45526e-07 8.88266e-08)
(1.95491e-10 1.45723e-09 3.98819e-09)
(4.78739e-09 -1.7675e-08 1.51339e-08)
(5.18909e-09 -3.87654e-08 2.82376e-08)
(4.2566e-09 -5.66881e-08 4.16896e-08)
(4.75875e-09 -7.0647e-08 5.39478e-08)
(1.06519e-08 -8.15552e-08 6.33508e-08)
(2.71137e-08 -9.84509e-08 6.80622e-08)
(5.29606e-08 -1.38817e-07 6.70017e-08)
(-1.94428e-10 1.03022e-09 3.31955e-09)
(4.35476e-09 -1.75839e-08 1.15272e-08)
(5.07224e-09 -3.81202e-08 2.07602e-08)
(4.6139e-09 -5.53669e-08 3.01e-08)
(5.60316e-09 -6.84637e-08 3.84511e-08)
(1.18221e-08 -7.85838e-08 4.46118e-08)
(2.82343e-08 -9.49647e-08 4.74719e-08)
(5.34992e-08 -1.34488e-07 4.66116e-08)
(-2.60024e-10 9.88215e-10 2.14202e-09)
(4.39299e-09 -1.71334e-08 7.13953e-09)
(5.37138e-09 -3.71438e-08 1.26046e-08)
(5.2313e-09 -5.39037e-08 1.80556e-08)
(6.52015e-09 -6.65789e-08 2.2864e-08)
(1.29178e-08 -7.64529e-08 2.63423e-08)
(2.92695e-08 -9.2742e-08 2.79058e-08)
(5.41516e-08 -1.31841e-07 2.73826e-08)
(-2.58674e-10 1.01396e-09 7.35426e-10)
(4.46032e-09 -1.68198e-08 2.41014e-09)
(5.5719e-09 -3.65257e-08 4.21672e-09)
(5.58584e-09 -5.30326e-08 6.0045e-09)
(7.01373e-09 -6.55371e-08 7.57069e-09)
(1.34895e-08 -7.53545e-08 8.69477e-09)
(2.98064e-08 -9.16503e-08 9.19453e-09)
(5.45013e-08 -1.3057e-07 9.02054e-09)
(2.85708e-08 5.40262e-08 3.18688e-08)
(5.13583e-08 3.88905e-08 7.15914e-08)
(5.54499e-08 1.40144e-08 9.97842e-08)
(5.38284e-08 -9.69482e-09 1.24033e-07)
(5.32556e-08 -3.33878e-08 1.47838e-07)
(5.84702e-08 -6.13218e-08 1.73277e-07)
(7.34987e-08 -1.05489e-07 2.01661e-07)
(9.3013e-08 -1.78177e-07 2.29231e-07)
(5.39333e-09 4.13117e-08 2.65481e-08)
(1.1308e-08 2.92879e-08 6.42763e-08)
(1.20326e-08 9.63496e-09 9.10037e-08)
(1.03294e-08 -1.23442e-08 1.13537e-07)
(8.78465e-09 -3.71363e-08 1.35412e-07)
(9.41171e-09 -6.64166e-08 1.59017e-07)
(1.35262e-08 -1.07578e-07 1.8723e-07)
(1.8433e-08 -1.71739e-07 2.1937e-07)
(-7.20983e-09 4.03518e-08 2.5105e-08)
(-1.5019e-08 2.88112e-08 6.24069e-08)
(-1.75613e-08 9.70853e-09 8.87969e-08)
(-1.81456e-08 -1.17776e-08 1.11064e-07)
(-1.94606e-08 -3.61275e-08 1.3271e-07)
(-2.35776e-08 -6.49857e-08 1.56098e-07)
(-3.19442e-08 -1.05675e-07 1.8408e-07)
(-4.20454e-08 -1.69005e-07 2.15941e-07)
(-2.853e-08 5.07464e-08 2.74371e-08)
(-5.24973e-08 3.76054e-08 6.56677e-08)
(-5.83703e-08 1.4515e-08 9.27838e-08)
(-5.90151e-08 -7.75824e-09 1.16224e-07)
(-6.12601e-08 -3.01844e-08 1.39349e-07)
(-6.99076e-08 -5.69035e-08 1.64151e-07)
(-8.90085e-08 -9.96891e-08 1.91898e-07)
(-1.13227e-07 -1.69857e-07 2.18828e-07)
(-2.46714e-08 4.50193e-08 2.6749e-08)
(-4.68894e-08 2.81596e-08 6.2589e-08)
(-5.24133e-08 3.52483e-09 8.8794e-08)
(-5.32951e-08 -1.85395e-08 1.11627e-07)
(-5.55651e-08 -3.96136e-08 1.34631e-07)
(-6.34688e-08 -6.36955e-08 1.60307e-07)
(-8.1326e-08 -1.0252e-07 1.8949e-07)
(-1.07287e-07 -1.68795e-07 2.14449e-07)
(-9.38226e-09 1.94286e-08 6.69576e-09)
(-2.32928e-08 2.80903e-09 2.8771e-08)
(-2.61216e-08 -1.78176e-08 5.19311e-08)
(-2.56888e-08 -3.7592e-08 7.3588e-08)
(-2.68041e-08 -5.70226e-08 9.47419e-08)
(-3.3783e-08 -7.74957e-08 1.164e-07)
(-5.2035e-08 -1.07059e-07 1.36811e-07)
(-8.16798e-08 -1.59567e-07 1.48112e-07)
(3.83313e-10 6.39618e-09 2.56018e-09)
(-7.08829e-09 -1.10714e-08 1.81574e-08)
(-8.07421e-09 -3.09018e-08 3.79994e-08)
(-7.16365e-09 -4.91571e-08 5.79707e-08)
(-8.0709e-09 -6.57267e-08 7.69964e-08)
(-1.5128e-08 -8.09773e-08 9.42384e-08)
(-3.39724e-08 -1.02434e-07 1.06719e-07)
(-6.40857e-08 -1.46096e-07 1.0904e-07)
(4.62655e-09 9.78605e-10 3.36161e-09)
(1.43503e-10 -1.68727e-08 1.63341e-08)
(-4.76409e-11 -3.6741e-08 3.26466e-08)
(8.00674e-10 -5.40138e-08 4.95143e-08)
(-3.89698e-10 -6.81074e-08 6.52207e-08)
(-7.78502e-09 -7.95465e-08 7.80623e-08)
(-2.67497e-08 -9.66493e-08 8.54129e-08)
(-5.60884e-08 -1.36313e-07 8.46829e-08)
(6.12568e-09 -9.14007e-10 3.69845e-09)
(2.62642e-09 -1.8637e-08 1.43371e-08)
(2.5479e-09 -3.82808e-08 2.69664e-08)
(3.12565e-09 -5.47769e-08 3.99584e-08)
(1.55995e-09 -6.72906e-08 5.17761e-08)
(-6.09304e-09 -7.67502e-08 6.07784e-08)
(-2.48725e-08 -9.21045e-08 6.5174e-08)
(-5.32916e-08 -1.29994e-07 6.3969e-08)
(6.54177e-09 -1.46253e-09 3.12917e-09)
(3.21367e-09 -1.87802e-08 1.10071e-08)
(2.98639e-09 -3.79447e-08 1.99279e-08)
(3.28598e-09 -5.38026e-08 2.89557e-08)
(1.44591e-09 -6.54658e-08 3.69998e-08)
(-6.33479e-09 -7.413e-08 4.28775e-08)
(-2.48821e-08 -8.89454e-08 4.55129e-08)
(-5.25623e-08 -1.25954e-07 4.45493e-08)
(6.62263e-09 -1.57725e-09 2.03423e-09)
(3.26649e-09 -1.8475e-08 6.84578e-09)
(2.87968e-09 -3.71667e-08 1.21336e-08)
(2.98338e-09 -5.25678e-08 1.74046e-08)
(9.75685e-10 -6.38196e-08 2.20328e-08)
(-6.84552e-09 -7.22331e-08 2.53433e-08)
(-2.52113e-08 -8.69398e-08 2.67726e-08)
(-5.24032e-08 -1.23496e-07 2.61872e-08)
(6.62848e-09 -1.58564e-09 7.0055e-10)
(3.24158e-09 -1.82308e-08 2.31517e-09)
(2.76946e-09 -3.66447e-08 4.0643e-09)
(2.7779e-09 -5.18092e-08 5.79327e-09)
(6.95853e-10 -6.28962e-08 7.30016e-09)
(-7.13625e-09 -7.12512e-08 8.36869e-09)
(-2.54058e-08 -8.59561e-08 8.82383e-09)
(-5.23575e-08 -1.2232e-07 8.62911e-09)
(9.28387e-08 -1.84649e-07 2.30784e-07)
(7.29383e-08 -1.73e-07 1.58099e-07)
(5.73305e-08 -1.60609e-07 1.13999e-07)
(5.10678e-08 -1.51523e-07 8.65581e-08)
(4.99993e-08 -1.45161e-07 6.44574e-08)
(5.0556e-08 -1.4091e-07 4.46038e-08)
(5.11938e-08 -1.38289e-07 2.61693e-08)
(5.15232e-08 -1.37032e-07 8.62106e-09)
(1.82844e-08 -1.74451e-07 2.24669e-07)
(1.29756e-08 -1.58214e-07 1.60549e-07)
(8.32882e-09 -1.45948e-07 1.19483e-07)
(6.92453e-09 -1.38537e-07 9.05038e-08)
(7.4096e-09 -1.33685e-07 6.63015e-08)
(8.32667e-09 -1.30392e-07 4.52206e-08)
(9.0261e-09 -1.28272e-07 2.6306e-08)
(9.3693e-09 -1.27221e-07 8.63526e-09)
(-4.21689e-08 -1.70745e-07 2.22173e-07)
(-3.24427e-08 -1.54731e-07 1.58858e-07)
(-2.44303e-08 -1.42633e-07 1.18207e-07)
(-2.04826e-08 -1.35352e-07 8.9539e-08)
(-1.90722e-08 -1.30597e-07 6.55979e-08)
(-1.86454e-08 -1.27374e-07 4.47426e-08)
(-1.8487e-08 -1.25299e-07 2.6029e-08)
(-1.84131e-08 -1.2427e-07 8.54455e-09)
(-1.1336e-07 -1.7338e-07 2.23231e-07)
(-8.94868e-08 -1.62219e-07 1.53014e-07)
(-7.06293e-08 -1.50277e-07 1.10155e-07)
(-6.18089e-08 -1.41564e-07 8.36429e-08)
(-5.8815e-08 -1.35486e-07 6.23292e-08)
(-5.80044e-08 -1.31438e-07 4.31584e-08)
(-5.77685e-08 -1.28949e-07 2.53321e-08)
(-5.76726e-08 -1.27757e-07 8.34699e-09)
)
;
    }
    symmetry
    {
        type            symmetry;
    }
    bottom
    {
        type            calculated;
        value           uniform (0 0 0);
    }
}


// ************************************************************************* //
