/*--------------------------------*- C++ -*----------------------------------*\
| =========                 |                                                 |
| \\      /  F ield         | OpenFOAM: The Open Source CFD Toolbox           |
|  \\    /   O peration     | Version:  v1912                                 |
|   \\  /    A nd           | Website:  www.openfoam.com                      |
|    \\/     M anipulation  |                                                 |
\*---------------------------------------------------------------------------*/
FoamFile
{
    version     2.0;
    format      ascii;
    class       pointVectorField;
    location    "0.44/fluid";
    object      pointMotionU;
}
// * * * * * * * * * * * * * * * * * * * * * * * * * * * * * * * * * * * * * //

dimensions      [0 1 -1 0 0 0 0];


internalField   nonuniform List<vector> 
16859
(
(0 0 0)
(0 0 0)
(0 0 0)
(0 0 0)
(0 0 0)
(0 0 0)
(0 0 0)
(0 0 0)
(0 0 0)
(0 0 0)
(0 0 0)
(0 0 0)
(0 0 0)
(0 0 0)
(0 0 0)
(0 0 0)
(2.50137e-08 4.22912e-08 2.41563e-08)
(0 0 0)
(6.60382e-10 -1.4952e-09 1.16026e-09)
(1.25897e-09 -2.86088e-09 2.25988e-09)
(1.81775e-09 -4.1516e-09 3.37705e-09)
(2.35661e-09 -5.40763e-09 4.58092e-09)
(2.89477e-09 -6.65334e-09 5.9357e-09)
(3.45275e-09 -7.89485e-09 7.50328e-09)
(4.05511e-09 -9.11479e-09 9.34447e-09)
(4.73516e-09 -1.02615e-08 1.15189e-08)
(5.54464e-09 -1.12298e-08 1.40849e-08)
(6.57513e-09 -1.18259e-08 1.71007e-08)
(8.00407e-09 -1.17009e-08 2.06356e-08)
(1.01992e-08 -1.02138e-08 2.48164e-08)
(1.39267e-08 -6.14806e-09 2.99637e-08)
(2.06326e-08 2.75332e-09 3.68734e-08)
(3.11543e-08 1.81506e-08 4.60591e-08)
(5.02855e-08 5.03546e-08 5.83508e-08)
(0 0 0)
(1.30677e-09 -2.94602e-09 2.29102e-09)
(2.49086e-09 -5.63882e-09 4.46161e-09)
(3.59537e-09 -8.18699e-09 6.66524e-09)
(4.65917e-09 -1.06715e-08 9.03745e-09)
(5.71987e-09 -1.31443e-08 1.17044e-08)
(6.81716e-09 -1.56238e-08 1.47878e-08)
(7.99706e-09 -1.8086e-08 1.84066e-08)
(9.31903e-09 -2.04473e-08 2.26765e-08)
(1.0869e-08 -2.2535e-08 2.77071e-08)
(1.27855e-08 -2.40383e-08 3.35957e-08)
(1.53104e-08 -2.44335e-08 4.04238e-08)
(1.88904e-08 -2.28799e-08 4.82721e-08)
(2.43086e-08 -1.8148e-08 5.72659e-08)
(3.26508e-08 -8.8819e-09 6.75855e-08)
(4.3409e-08 3.82304e-09 7.82431e-08)
(6.48037e-08 2.13986e-08 9.61006e-08)
(0 0 0)
(1.92611e-09 -4.30848e-09 3.36481e-09)
(3.67049e-09 -8.25079e-09 6.55102e-09)
(5.29586e-09 -1.19891e-08 9.78214e-09)
(6.85866e-09 -1.56467e-08 1.32555e-08)
(8.41353e-09 -1.93079e-08 1.7155e-08)
(1.00172e-08 -2.30133e-08 2.16581e-08)
(1.17336e-08 -2.67501e-08 2.69383e-08)
(1.36403e-08 -3.0434e-08 3.31647e-08)
(1.58391e-08 -3.38787e-08 4.04953e-08)
(1.84723e-08 -3.67498e-08 4.90598e-08)
(2.17519e-08 -3.85059e-08 5.89341e-08)
(2.60102e-08 -3.83529e-08 7.01095e-08)
(3.17363e-08 -3.53186e-08 8.24493e-08)
(3.94686e-08 -2.87265e-08 9.56039e-08)
(4.84267e-08 -2.01122e-08 1.07924e-07)
(6.54336e-08 -8.36525e-09 1.25507e-07)
(0 0 0)
(2.50594e-09 -5.53776e-09 4.35625e-09)
(4.77381e-09 -1.06115e-08 8.47792e-09)
(6.88376e-09 -1.54357e-08 1.26512e-08)
(8.90799e-09 -2.01771e-08 1.71283e-08)
(1.09162e-08 -2.4957e-08 2.21446e-08)
(1.29803e-08 -2.98482e-08 2.79271e-08)
(1.51792e-08 -3.48679e-08 3.46989e-08)
(1.76049e-08 -3.99629e-08 4.26794e-08)
(2.03678e-08 -4.49848e-08 5.20759e-08)
(2.36e-08 -4.9652e-08 6.30598e-08)
(2.74585e-08 -5.35008e-08 7.57253e-08)
(3.21217e-08 -5.58406e-08 9.00208e-08)
(3.77436e-08 -5.57796e-08 1.0562e-07)
(4.43335e-08 -5.24966e-08 1.21703e-07)
(5.09915e-08 -4.66046e-08 1.35793e-07)
(6.40238e-08 -3.56572e-08 1.53216e-07)
(0 0 0)
(3.03529e-09 -6.59003e-09 5.24399e-09)
(5.77956e-09 -1.26367e-08 1.02001e-08)
(8.32767e-09 -1.84041e-08 1.52078e-08)
(1.07651e-08 -2.41015e-08 2.05656e-08)
(1.31744e-08 -2.98898e-08 2.65514e-08)
(1.56405e-08 -3.58814e-08 3.34335e-08)
(1.82563e-08 -4.21375e-08 4.14769e-08)
(2.11284e-08 -4.86608e-08 5.09462e-08)
(2.43812e-08 -5.53802e-08 6.20993e-08)
(2.81551e-08 -6.21261e-08 7.51655e-08)
(3.25994e-08 -6.85878e-08 9.03074e-08)
(3.78414e-08 -7.42434e-08 1.07542e-07)
(4.38901e-08 -7.82435e-08 1.26563e-07)
(5.04496e-08 -7.92816e-08 1.46365e-07)
(5.63092e-08 -7.63141e-08 1.63594e-07)
(6.70669e-08 -6.41516e-08 1.8263e-07)
(0 0 0)
(3.50501e-09 -7.42372e-09 6.01167e-09)
(6.67009e-09 -1.42463e-08 1.16854e-08)
(9.60149e-09 -2.07757e-08 1.74028e-08)
(1.23949e-08 -2.72605e-08 2.34983e-08)
(1.51425e-08 -3.38999e-08 3.02816e-08)
(1.79398e-08 -4.08479e-08 3.80512e-08)
(2.08918e-08 -4.82157e-08 4.71029e-08)
(2.41208e-08 -5.60733e-08 5.77357e-08)
(2.77736e-08 -6.44478e-08 7.02513e-08)
(3.20276e-08 -7.3318e-08 8.49435e-08)
(3.70974e-08 -8.25979e-08 1.02081e-07)
(4.32314e-08 -9.20904e-08 1.21865e-07)
(5.06477e-08 -1.01339e-07 1.44293e-07)
(5.9305e-08 -1.09239e-07 1.68716e-07)
(6.77111e-08 -1.13443e-07 1.91289e-07)
(8.06019e-08 -1.032e-07 2.1621e-07)
(0 0 0)
(3.90823e-09 -8.0016e-09 6.6487e-09)
(7.4323e-09 -1.53681e-08 1.29132e-08)
(1.06859e-08 -2.24427e-08 1.9205e-08)
(1.3771e-08 -2.95066e-08 2.58828e-08)
(1.67859e-08 -3.67916e-08 3.32759e-08)
(1.98321e-08 -4.44888e-08 4.16996e-08)
(2.30224e-08 -5.27553e-08 5.14649e-08)
(2.64908e-08 -6.17232e-08 6.28876e-08)
(3.04045e-08 -7.15106e-08 7.62916e-08)
(3.49825e-08 -8.22362e-08 9.20122e-08)
(4.05293e-08 -9.40438e-08 1.10406e-07)
(4.74906e-08 -1.07136e-07 1.31867e-07)
(5.65152e-08 -1.21788e-07 1.56819e-07)
(6.84135e-08 -1.38193e-07 1.85466e-07)
(8.22517e-08 -1.54497e-07 2.14502e-07)
(1.08155e-07 -1.7357e-07 2.53627e-07)
(0 0 0)
(4.24087e-09 -8.29308e-09 7.15078e-09)
(8.05883e-09 -1.59428e-08 1.3876e-08)
(1.15706e-08 -2.33162e-08 2.06045e-08)
(1.488e-08 -3.07165e-08 2.77063e-08)
(1.80865e-08 -3.83991e-08 3.55177e-08)
(2.12923e-08 -4.65819e-08 4.43562e-08)
(2.46104e-08 -5.54549e-08 5.45304e-08)
(2.81752e-08 -6.51926e-08 6.63486e-08)
(3.21562e-08 -7.5969e-08 8.01229e-08)
(3.67803e-08 -8.79798e-08 9.61759e-08)
(4.23707e-08 -1.01478e-07 1.14856e-07)
(4.9407e-08 -1.16834e-07 1.36566e-07)
(5.85918e-08 -1.34602e-07 1.61791e-07)
(7.07974e-08 -1.55516e-07 1.91003e-07)
(8.47381e-08 -1.77541e-07 2.20801e-07)
(1.25103e-07 -2.21678e-07 2.75057e-07)
(0 0 0)
(0 0 0)
(0 0 0)
(0 0 0)
(0 0 0)
(0 0 0)
(0 0 0)
(0 0 0)
(0 0 0)
(0 0 0)
(0 0 0)
(0 0 0)
(0 0 0)
(0 0 0)
(0 0 0)
(0 0 0)
(1.27084e-08 2.09553e-08 1.07431e-08)
(0 0 0)
(6.58251e-10 -1.52703e-09 1.12358e-09)
(1.25351e-09 -2.92186e-09 2.18679e-09)
(1.80654e-09 -4.24076e-09 3.26408e-09)
(2.33569e-09 -5.52579e-09 4.42111e-09)
(2.85799e-09 -6.80326e-09 5.71836e-09)
(3.39047e-09 -8.08125e-09 7.21321e-09)
(3.95213e-09 -9.34502e-09 8.96034e-09)
(4.56733e-09 -1.05473e-08 1.10106e-08)
(5.27335e-09 -1.15915e-08 1.34082e-08)
(6.13798e-09 -1.23013e-08 1.61872e-08)
(7.30001e-09 -1.23657e-08 1.93694e-08)
(9.06114e-09 -1.12256e-08 2.29786e-08)
(1.20615e-08 -7.84877e-09 2.70902e-08)
(1.74564e-08 -4.38529e-10 3.18932e-08)
(2.58422e-08 1.22081e-08 3.71571e-08)
(3.48871e-08 2.8746e-08 3.92089e-08)
(0 0 0)
(1.30297e-09 -3.00828e-09 2.21837e-09)
(2.48099e-09 -5.75807e-09 4.31692e-09)
(3.5749e-09 -8.36162e-09 6.44196e-09)
(4.62073e-09 -1.09034e-08 8.7222e-09)
(5.65198e-09 -1.34387e-08 1.12765e-08)
(6.70181e-09 -1.59896e-08 1.42175e-08)
(7.80595e-09 -1.85366e-08 1.76526e-08)
(9.00731e-09 -2.10035e-08 2.16808e-08)
(1.03652e-08 -2.3232e-08 2.63868e-08)
(1.19753e-08 -2.49404e-08 3.18262e-08)
(1.40127e-08 -2.56662e-08 3.80065e-08)
(1.68201e-08 -2.46968e-08 4.48643e-08)
(2.10278e-08 -2.10621e-08 5.22385e-08)
(2.75175e-08 -1.39151e-08 5.97801e-08)
(3.60745e-08 -4.48636e-09 6.64499e-08)
(4.54543e-08 7.39657e-10 7.17273e-08)
(0 0 0)
(1.9216e-09 -4.39887e-09 3.25796e-09)
(3.65835e-09 -8.42411e-09 6.3384e-09)
(5.26993e-09 -1.22433e-08 9.45455e-09)
(6.80908e-09 -1.59847e-08 1.27938e-08)
(8.32488e-09 -1.97371e-08 1.65295e-08)
(9.86551e-09 -2.35455e-08 2.0826e-08)
(1.14812e-08 -2.74028e-08 2.58402e-08)
(1.32277e-08 -3.12333e-08 3.17189e-08)
(1.51718e-08 -3.48664e-08 3.85869e-08)
(1.73997e-08 -3.79998e-08 4.65231e-08)
(2.00371e-08 -4.01574e-08 5.55207e-08)
(2.32861e-08 -4.06799e-08 6.54254e-08)
(2.74635e-08 -3.88583e-08 7.58451e-08)
(3.2946e-08 -3.44918e-08 8.60133e-08)
(3.93791e-08 -2.92233e-08 9.44407e-08)
(4.53441e-08 -2.73274e-08 9.99047e-08)
(0 0 0)
(2.50206e-09 -5.65332e-09 4.21798e-09)
(4.76226e-09 -1.08333e-08 8.20306e-09)
(6.8574e-09 -1.57613e-08 1.22283e-08)
(8.85548e-09 -2.06102e-08 1.65335e-08)
(1.08201e-08 -2.55066e-08 2.13401e-08)
(1.28135e-08 -3.05284e-08 2.68589e-08)
(1.48996e-08 -3.56979e-08 3.32925e-08)
(1.71464e-08 -4.09698e-08 4.08332e-08)
(1.96248e-08 -4.62091e-08 4.96497e-08)
(2.24054e-08 -5.11598e-08 5.98579e-08)
(2.55472e-08 -5.54096e-08 7.14673e-08)
(2.90764e-08 -5.83712e-08 8.42898e-08)
(3.29394e-08 -5.93522e-08 9.77787e-08)
(3.69556e-08 -5.78935e-08 1.10768e-07)
(4.06713e-08 -5.47424e-08 1.21033e-07)
(4.36589e-08 -5.32549e-08 1.26715e-07)
(0 0 0)
(3.03349e-09 -6.72708e-09 5.07791e-09)
(5.77171e-09 -1.28999e-08 9.8703e-09)
(8.30623e-09 -1.87907e-08 1.47011e-08)
(1.07184e-08 -2.46158e-08 1.98541e-08)
(1.30847e-08 -3.05419e-08 2.5591e-08)
(1.54808e-08 -3.66865e-08 3.2161e-08)
(1.79851e-08 -4.31153e-08 3.98057e-08)
(2.06809e-08 -4.98364e-08 4.87588e-08)
(2.36551e-08 -5.67871e-08 5.92356e-08)
(2.69886e-08 -6.38123e-08 7.14059e-08)
(3.07334e-08 -7.06282e-08 8.53432e-08)
(3.48579e-08 -7.67625e-08 1.00928e-07)
(3.913e-08 -8.14528e-08 1.17642e-07)
(4.29727e-08 -8.3547e-08 1.34147e-07)
(4.54917e-08 -8.21027e-08 1.47457e-07)
(4.60061e-08 -7.93783e-08 1.54756e-07)
(0 0 0)
(3.5066e-09 -7.57782e-09 5.82197e-09)
(6.66877e-09 -1.45423e-08 1.1309e-08)
(9.58978e-09 -2.12108e-08 1.68255e-08)
(1.23617e-08 -2.78393e-08 2.26891e-08)
(1.50716e-08 -3.46333e-08 2.91916e-08)
(1.78067e-08 -4.17516e-08 3.66106e-08)
(2.06599e-08 -4.93089e-08 4.52165e-08)
(2.37338e-08 -5.7378e-08 5.52746e-08)
(2.71445e-08 -6.59892e-08 6.70407e-08)
(3.10207e-08 -7.51249e-08 8.07439e-08)
(3.54982e-08 -8.47042e-08 9.6555e-08)
(4.06927e-08 -9.45338e-08 1.14521e-07)
(4.66089e-08 -1.04148e-07 1.34386e-07)
(5.2905e-08 -1.12381e-07 1.55084e-07)
(5.82719e-08 -1.16891e-07 1.73192e-07)
(5.83934e-08 -1.12599e-07 1.85137e-07)
(0 0 0)
(3.91422e-09 -8.16758e-09 6.43984e-09)
(7.43962e-09 -1.5687e-08 1.24992e-08)
(1.06875e-08 -2.29117e-08 1.85712e-08)
(1.37572e-08 -3.01306e-08 2.49962e-08)
(1.67426e-08 -3.75822e-08 3.20847e-08)
(1.97394e-08 -4.54619e-08 4.01301e-08)
(2.2851e-08 -5.39292e-08 4.94172e-08)
(2.61973e-08 -6.31172e-08 6.02266e-08)
(2.9924e-08 -7.31426e-08 7.2835e-08)
(3.42181e-08 -8.41207e-08 8.7509e-08)
(3.93347e-08 -9.61877e-08 1.04497e-07)
(4.56436e-08 -1.09532e-07 1.24017e-07)
(5.36931e-08 -1.24402e-07 1.46173e-07)
(6.4186e-08 -1.40901e-07 1.70578e-07)
(7.66274e-08 -1.5741e-07 1.94208e-07)
(8.77239e-08 -1.71914e-07 2.13071e-07)
(0 0 0)
(4.25182e-09 -8.46511e-09 6.92737e-09)
(8.07603e-09 -1.62736e-08 1.34337e-08)
(1.15877e-08 -2.38029e-08 1.99284e-08)
(1.48887e-08 -3.13647e-08 2.67629e-08)
(1.80758e-08 -3.92206e-08 3.42542e-08)
(2.12471e-08 -4.75928e-08 4.26981e-08)
(2.45094e-08 -5.66731e-08 5.23771e-08)
(2.79884e-08 -6.66348e-08 6.3565e-08)
(3.18412e-08 -7.76479e-08 7.65281e-08)
(3.62776e-08 -8.98993e-08 9.15218e-08)
(4.15967e-08 -1.03626e-07 1.08788e-07)
(4.82485e-08 -1.19169e-07 1.28555e-07)
(5.69137e-08 -1.37039e-07 1.50989e-07)
(6.8479e-08 -1.57828e-07 1.75941e-07)
(8.21153e-08 -1.79686e-07 2.00228e-07)
(1.07954e-07 -2.12404e-07 2.28451e-07)
(0 0 0)
(0 0 0)
(0 0 0)
(0 0 0)
(0 0 0)
(0 0 0)
(0 0 0)
(0 0 0)
(0 0 0)
(0 0 0)
(0 0 0)
(0 0 0)
(0 0 0)
(0 0 0)
(0 0 0)
(0 0 0)
(3.59923e-09 7.98901e-09 2.5588e-09)
(0 0 0)
(6.5285e-10 -1.55467e-09 1.04571e-09)
(1.24149e-09 -2.97507e-09 2.03402e-09)
(1.78481e-09 -4.31881e-09 3.03301e-09)
(2.29883e-09 -5.62929e-09 4.1023e-09)
(2.79729e-09 -6.93467e-09 5.29619e-09)
(3.29208e-09 -8.2457e-09 6.66483e-09)
(3.79385e-09 -9.55199e-09 8.25372e-09)
(4.31302e-09 -1.08147e-08 1.01009e-08)
(4.86258e-09 -1.1955e-08 1.22311e-08)
(5.46576e-09 -1.2836e-08 1.46435e-08)
(6.17445e-09 -1.32347e-08 1.72917e-08)
(7.10485e-09 -1.28003e-08 2.0047e-08)
(8.47738e-09 -1.10013e-08 2.26251e-08)
(1.05404e-08 -7.18437e-09 2.44201e-08)
(1.29292e-08 -1.54885e-09 2.43611e-08)
(1.23155e-08 3.98167e-09 1.69012e-08)
(0 0 0)
(1.2928e-09 -3.06223e-09 2.06453e-09)
(2.45832e-09 -5.86182e-09 4.0151e-09)
(3.5339e-09 -8.51376e-09 5.98565e-09)
(4.55124e-09 -1.11052e-08 8.09328e-09)
(5.53763e-09 -1.36948e-08 1.04446e-08)
(6.51662e-09 -1.63088e-08 1.3138e-08)
(7.50853e-09 -1.89349e-08 1.6263e-08)
(8.53089e-09 -2.1511e-08 1.9895e-08)
(9.59973e-09 -2.39068e-08 2.40821e-08)
(1.07345e-08 -2.59017e-08 2.88212e-08)
(1.19715e-08 -2.71621e-08 3.40125e-08)
(1.33859e-08 -2.72483e-08 3.93801e-08)
(1.50922e-08 -2.57326e-08 4.4329e-08)
(1.70874e-08 -2.26512e-08 4.77214e-08)
(1.87243e-08 -1.94937e-08 4.80608e-08)
(1.75268e-08 -2.09642e-08 4.19356e-08)
(0 0 0)
(1.90791e-09 -4.477e-09 3.03204e-09)
(3.62773e-09 -8.57423e-09 5.89527e-09)
(5.2144e-09 -1.24634e-08 8.78512e-09)
(6.71484e-09 -1.62764e-08 1.18722e-08)
(8.1697e-09 -2.0106e-08 1.53117e-08)
(9.61429e-09 -2.40022e-08 1.92476e-08)
(1.10785e-08 -2.79656e-08 2.38115e-08)
(1.25851e-08 -3.19349e-08 2.91163e-08)
(1.41454e-08 -3.57692e-08 3.52383e-08)
(1.57523e-08 -3.92277e-08 4.21817e-08)
(1.73695e-08 -4.19615e-08 4.98159e-08)
(1.89106e-08 -4.35641e-08 5.77681e-08)
(2.01919e-08 -4.37827e-08 6.52489e-08)
(2.08393e-08 -4.3041e-08 7.08484e-08)
(2.03243e-08 -4.29012e-08 7.28559e-08)
(1.61704e-08 -4.59981e-08 6.79033e-08)
(0 0 0)
(2.48654e-09 -5.75281e-09 3.92574e-09)
(4.72734e-09 -1.10243e-08 7.63014e-09)
(6.79366e-09 -1.60411e-08 1.13636e-08)
(8.74678e-09 -2.09804e-08 1.53444e-08)
(1.06406e-08 -2.59727e-08 1.9771e-08)
(1.25227e-08 -3.11003e-08 2.48281e-08)
(1.44344e-08 -3.63917e-08 3.06865e-08)
(1.64066e-08 -4.18122e-08 3.74963e-08)
(1.84501e-08 -4.72486e-08 4.53673e-08)
(2.05354e-08 -5.2491e-08 5.43278e-08)
(2.25528e-08 -5.72227e-08 6.42524e-08)
(2.42379e-08 -6.10488e-08 7.47346e-08)
(2.50582e-08 -6.36373e-08 8.48747e-08)
(2.41677e-08 -6.50797e-08 9.30158e-08)
(2.10748e-08 -6.62572e-08 9.69722e-08)
(1.4008e-08 -6.95583e-08 9.29622e-08)
(0 0 0)
(3.01801e-09 -6.84447e-09 4.72663e-09)
(5.73647e-09 -1.31252e-08 9.18213e-09)
(8.24112e-09 -1.91203e-08 1.36636e-08)
(1.06063e-08 -2.50509e-08 1.84292e-08)
(1.28986e-08 -3.10871e-08 2.37136e-08)
(1.51786e-08 -3.73492e-08 2.97356e-08)
(1.7502e-08 -4.39058e-08 3.66996e-08)
(1.99152e-08 -5.07688e-08 4.47899e-08)
(2.24455e-08 -5.78844e-08 5.41523e-08)
(2.50755e-08 -6.51167e-08 6.48545e-08)
(2.76905e-08 -7.22264e-08 7.68132e-08)
(2.99676e-08 -7.88417e-08 8.96583e-08)
(3.11862e-08 -8.44241e-08 1.02484e-07)
(3.00786e-08 -8.8292e-08 1.13476e-07)
(2.56938e-08 -9.00038e-08 1.19902e-07)
(1.58828e-08 -9.19302e-08 1.17391e-07)
(0 0 0)
(3.49296e-09 -7.70911e-09 5.42006e-09)
(6.637e-09 -1.47942e-08 1.05223e-08)
(9.52979e-09 -2.15788e-08 1.56408e-08)
(1.22566e-08 -2.8324e-08 2.10647e-08)
(1.48951e-08 -3.52379e-08 2.70558e-08)
(1.75187e-08 -4.24802e-08 3.3858e-08)
(2.01989e-08 -5.01645e-08 4.17004e-08)
(2.30051e-08 -5.836e-08 5.07934e-08)
(2.59988e-08 -6.70902e-08 6.13139e-08)
(2.92191e-08 -7.63274e-08 7.33719e-08)
(3.26454e-08 -8.59759e-08 8.69455e-08)
(3.61074e-08 -9.58243e-08 1.01752e-07)
(3.90974e-08 -1.05407e-07 1.16981e-07)
(4.04706e-08 -1.13689e-07 1.30793e-07)
(3.86777e-08 -1.18791e-07 1.39918e-07)
(2.8053e-08 -1.17096e-07 1.39699e-07)
(0 0 0)
(3.90391e-09 -8.30828e-09 5.9964e-09)
(7.4145e-09 -1.59569e-08 1.1632e-08)
(1.0638e-08 -2.33057e-08 1.72671e-08)
(1.36675e-08 -3.06485e-08 2.32117e-08)
(1.65888e-08 -3.82259e-08 2.97445e-08)
(1.94855e-08 -4.62323e-08 3.71236e-08)
(2.2443e-08 -5.48227e-08 4.55904e-08)
(2.55526e-08 -6.41197e-08 5.53676e-08)
(2.89145e-08 -7.42207e-08 6.66475e-08)
(3.26397e-08 -8.52058e-08 7.95649e-08)
(3.68468e-08 -9.71458e-08 9.41438e-08)
(4.16435e-08 -1.10102e-07 1.10185e-07)
(4.70671e-08 -1.24071e-07 1.27003e-07)
(5.28867e-08 -1.38709e-07 1.42825e-07)
(5.79674e-08 -1.52105e-07 1.539e-07)
(5.80842e-08 -1.62181e-07 1.53534e-07)
(0 0 0)
(4.24589e-09 -8.61034e-09 6.45169e-09)
(8.05975e-09 -1.65521e-08 1.25043e-08)
(1.15522e-08 -2.42095e-08 1.85332e-08)
(1.48201e-08 -3.18987e-08 2.48584e-08)
(1.79534e-08 -3.98829e-08 3.17647e-08)
(2.10402e-08 -4.8382e-08 3.95128e-08)
(2.41732e-08 -5.75808e-08 4.8342e-08)
(2.74554e-08 -6.76381e-08 5.84694e-08)
(3.10085e-08 -7.86969e-08 7.00786e-08)
(3.4983e-08 -9.08951e-08 8.3295e-08)
(3.95712e-08 -1.04379e-07 9.81385e-08)
(4.50158e-08 -1.19317e-07 1.14424e-07)
(5.15891e-08 -1.35872e-07 1.3153e-07)
(5.94219e-08 -1.53983e-07 1.479e-07)
(6.72973e-08 -1.71357e-07 1.59803e-07)
(8.00547e-08 -1.93194e-07 1.58027e-07)
(0 0 0)
(0 0 0)
(0 0 0)
(0 0 0)
(0 0 0)
(0 0 0)
(0 0 0)
(0 0 0)
(0 0 0)
(0 0 0)
(0 0 0)
(0 0 0)
(0 0 0)
(0 0 0)
(0 0 0)
(0 0 0)
(-5.89135e-10 2.41846e-09 1.96616e-09)
(0 0 0)
(6.45231e-10 -1.57768e-09 9.3062e-10)
(1.22503e-09 -3.01933e-09 1.80915e-09)
(1.75609e-09 -4.38373e-09 2.69524e-09)
(2.25175e-09 -5.71548e-09 3.64066e-09)
(2.7219e-09 -7.04433e-09 4.69167e-09)
(3.17265e-09 -8.3836e-09 5.88956e-09)
(3.60554e-09 -9.72748e-09 7.26952e-09)
(4.01617e-09 -1.10465e-08 8.85669e-09)
(4.39265e-09 -1.2281e-08 1.06581e-08)
(4.71477e-09 -1.33338e-08 1.26477e-08)
(4.95541e-09 -1.40649e-08 1.4739e-08)
(5.08235e-09 -1.42914e-08 1.67399e-08)
(5.04375e-09 -1.38065e-08 1.82746e-08)
(4.69269e-09 -1.24549e-08 1.86956e-08)
(3.74123e-09 -1.04502e-08 1.73337e-08)
(1.43574e-09 -7.17775e-09 1.31129e-08)
(0 0 0)
(1.27832e-09 -3.10717e-09 1.83735e-09)
(2.42704e-09 -5.94822e-09 3.57133e-09)
(3.47934e-09 -8.64033e-09 5.31931e-09)
(4.46183e-09 -1.12729e-08 7.18298e-09)
(5.39459e-09 -1.39072e-08 9.25315e-09)
(6.29037e-09 -1.65736e-08 1.1611e-08)
(7.15274e-09 -1.92675e-08 1.4326e-08)
(7.97248e-09 -2.19412e-08 1.74485e-08)
(8.7218e-09 -2.44949e-08 2.09946e-08)
(9.34733e-09 -2.67684e-08 2.49164e-08)
(9.76235e-09 -2.85466e-08 2.90526e-08)
(9.83757e-09 -2.96038e-08 3.30477e-08)
(9.38345e-09 -2.98398e-08 3.62375e-08)
(8.13968e-09 -2.9553e-08 3.75882e-08)
(6.04765e-09 -2.96005e-08 3.63203e-08)
(3.6584e-09 -3.17886e-08 3.35825e-08)
(0 0 0)
(1.888e-09 -4.54202e-09 2.69859e-09)
(3.58469e-09 -8.69911e-09 5.24414e-09)
(5.1393e-09 -1.26459e-08 7.80791e-09)
(6.59175e-09 -1.65172e-08 1.0538e-08)
(7.97294e-09 -2.04088e-08 1.35668e-08)
(9.30374e-09 -2.4375e-08 1.70131e-08)
(1.05919e-08 -2.84238e-08 2.09797e-08)
(1.18256e-08 -3.25087e-08 2.5544e-08)
(1.29613e-08 -3.65187e-08 3.07368e-08)
(1.39048e-08 -4.02722e-08 3.65041e-08)
(1.44831e-08 -4.3532e-08 4.26436e-08)
(1.44057e-08 -4.60796e-08 4.87093e-08)
(1.32389e-08 -4.79115e-08 5.3901e-08)
(1.05175e-08 -4.95531e-08 5.70648e-08)
(6.49807e-09 -5.18769e-08 5.73862e-08)
(1.95954e-09 -5.56614e-08 5.62424e-08)
(0 0 0)
(2.4631e-09 -5.83542e-09 3.49444e-09)
(4.67659e-09 -1.11827e-08 6.78833e-09)
(6.70495e-09 -1.6272e-08 1.01011e-08)
(8.60126e-09 -2.12834e-08 1.36221e-08)
(1.04081e-08 -2.63502e-08 1.75208e-08)
(1.21566e-08 -3.15575e-08 2.19499e-08)
(1.3863e-08 -3.69386e-08 2.70434e-08)
(1.552e-08 -4.2468e-08 3.29062e-08)
(1.70792e-08 -4.80523e-08 3.95903e-08)
(1.84204e-08 -5.35218e-08 4.70521e-08)
(1.92984e-08 -5.86361e-08 5.50812e-08)
(1.92612e-08 -6.31312e-08 6.3198e-08)
(1.75788e-08 -6.68534e-08 7.05377e-08)
(1.34173e-08 -6.99881e-08 7.58414e-08)
(7.12715e-09 -7.29756e-08 7.80382e-08)
(1.75098e-10 -7.67585e-08 7.83539e-08)
(0 0 0)
(2.99314e-09 -6.9416e-09 4.20804e-09)
(5.68246e-09 -1.33112e-08 8.17048e-09)
(8.14641e-09 -1.93905e-08 1.21476e-08)
(1.04506e-08 -2.54034e-08 1.63637e-08)
(1.26498e-08 -3.15218e-08 2.10188e-08)
(1.47875e-08 -3.78664e-08 2.62943e-08)
(1.68939e-08 -4.45058e-08 3.2351e-08)
(1.89769e-08 -5.14522e-08 3.93189e-08)
(2.10052e-08 -5.86543e-08 4.72738e-08)
(2.2873e-08 -6.59857e-08 5.61928e-08)
(2.43352e-08 -7.323e-08 6.58808e-08)
(2.48908e-08 -8.00621e-08 7.58591e-08)
(2.36389e-08 -8.6026e-08 8.52291e-08)
(1.93504e-08 -9.05325e-08 9.26174e-08)
(1.19311e-08 -9.30299e-08 9.66426e-08)
(2.55013e-09 -9.46606e-08 9.84519e-08)
(0 0 0)
(3.46871e-09 -7.81727e-09 4.82629e-09)
(6.58407e-09 -1.5001e-08 9.36479e-09)
(9.43642e-09 -2.18784e-08 1.39082e-08)
(1.21025e-08 -2.87128e-08 1.87076e-08)
(1.46484e-08 -3.57127e-08 2.39866e-08)
(1.71311e-08 -4.30354e-08 2.99474e-08)
(1.95982e-08 -5.07891e-08 3.67704e-08)
(2.20826e-08 -5.90328e-08 4.46043e-08)
(2.45915e-08 -6.7774e-08 5.35443e-08)
(2.70812e-08 -7.69593e-08 6.35884e-08)
(2.9406e-08 -8.64529e-08 7.45616e-08)
(3.12172e-08 -9.59823e-08 8.5994e-08)
(3.18069e-08 -1.05002e-07 9.69439e-08)
(3.002e-08 -1.12421e-07 1.05859e-07)
(2.51554e-08 -1.1649e-07 1.10981e-07)
(1.52344e-08 -1.13111e-07 1.1388e-07)
(0 0 0)
(3.88205e-09 -8.42369e-09 5.34056e-09)
(7.36637e-09 -1.61772e-08 1.03546e-08)
(1.05522e-08 -2.36242e-08 1.53577e-08)
(1.35248e-08 -3.10601e-08 2.06192e-08)
(1.63595e-08 -3.87245e-08 2.63772e-08)
(1.91249e-08 -4.68069e-08 3.28461e-08)
(2.18849e-08 -5.54519e-08 4.02159e-08)
(2.4699e-08 -6.47633e-08 4.86435e-08)
(2.76191e-08 -7.48065e-08 5.82319e-08)
(3.06819e-08 -8.5607e-08 6.89876e-08)
(3.389e-08 -9.71415e-08 8.07444e-08)
(3.71714e-08 -1.09309e-07 9.30273e-08)
(4.03242e-08 -1.21845e-07 1.04824e-07)
(4.29741e-08 -1.34074e-07 1.14293e-07)
(4.46574e-08 -1.44201e-07 1.19053e-07)
(4.50581e-08 -1.50122e-07 1.19912e-07)
(0 0 0)
(4.22778e-09 -8.72901e-09 5.74725e-09)
(8.01925e-09 -1.67786e-08 1.11334e-08)
(1.14788e-08 -2.45363e-08 1.64874e-08)
(1.46963e-08 -3.23197e-08 2.20875e-08)
(1.77525e-08 -4.039e-08 2.81773e-08)
(2.0723e-08 -4.89604e-08 3.49735e-08)
(2.36822e-08 -5.82021e-08 4.26646e-08)
(2.67065e-08 -6.82497e-08 5.14025e-08)
(2.98773e-08 -7.92053e-08 6.12825e-08)
(3.32832e-08 -9.11373e-08 7.23011e-08)
(3.70175e-08 -1.04075e-07 8.42825e-08)
(4.11648e-08 -1.17986e-07 9.67451e-08)
(4.57713e-08 -1.32719e-07 1.08675e-07)
(5.07725e-08 -1.47819e-07 1.18237e-07)
(5.54778e-08 -1.61241e-07 1.229e-07)
(6.5816e-08 -1.78016e-07 1.1901e-07)
(0 0 0)
(0 0 0)
(0 0 0)
(0 0 0)
(0 0 0)
(0 0 0)
(0 0 0)
(0 0 0)
(0 0 0)
(0 0 0)
(0 0 0)
(0 0 0)
(0 0 0)
(0 0 0)
(0 0 0)
(0 0 0)
(-2.10888e-09 4.71862e-10 2.41013e-09)
(0 0 0)
(6.36637e-10 -1.59594e-09 7.83358e-10)
(1.20671e-09 -3.05442e-09 1.52212e-09)
(1.72469e-09 -4.43517e-09 2.26582e-09)
(2.20123e-09 -5.78374e-09 3.05705e-09)
(2.64251e-09 -7.13112e-09 3.93302e-09)
(3.04927e-09 -8.49254e-09 4.92571e-09)
(3.41509e-09 -9.86595e-09 6.06055e-09)
(3.72364e-09 -1.12294e-08 7.35239e-09)
(3.94482e-09 -1.25378e-08 8.79778e-09)
(4.03074e-09 -1.37215e-08 1.03618e-08)
(3.91317e-09 -1.46892e-08 1.19578e-08)
(3.50283e-09 -1.53372e-08 1.34211e-08)
(2.68911e-09 -1.55597e-08 1.4486e-08)
(1.35063e-09 -1.52392e-08 1.48201e-08)
(-4.49903e-10 -1.42682e-08 1.42888e-08)
(-2.5346e-09 -1.10428e-08 1.24364e-08)
(0 0 0)
(1.26193e-09 -3.14292e-09 1.54674e-09)
(2.3921e-09 -6.01688e-09 3.00503e-09)
(3.41946e-09 -8.74072e-09 4.47231e-09)
(4.3655e-09 -1.14054e-08 6.03218e-09)
(5.24333e-09 -1.40742e-08 7.75768e-09)
(6.05571e-09 -1.67807e-08 9.71181e-09)
(6.79165e-09 -1.9526e-08 1.1945e-08)
(7.4204e-09 -2.22741e-08 1.44877e-08)
(7.8827e-09 -2.49474e-08 1.73355e-08)
(8.08023e-09 -2.74264e-08 2.04251e-08)
(7.86696e-09 -2.95633e-08 2.35977e-08)
(7.05026e-09 -3.12258e-08 2.65549e-08)
(5.43029e-09 -3.23837e-08 2.88321e-08)
(2.96103e-09 -3.32096e-08 2.98878e-08)
(2.37703e-10 -3.3976e-08 2.95975e-08)
(-1.31635e-09 -3.55288e-08 2.91184e-08)
(0 0 0)
(1.86525e-09 -4.59382e-09 2.27206e-09)
(3.53622e-09 -8.79841e-09 4.41324e-09)
(5.05621e-09 -1.27904e-08 6.56565e-09)
(6.4581e-09 -1.67065e-08 8.851e-09)
(7.76336e-09 -2.06445e-08 1.13757e-08)
(8.97946e-09 -2.46617e-08 1.42324e-08)
(1.0095e-08 -2.87714e-08 1.74959e-08)
(1.10706e-08 -3.29377e-08 2.12143e-08)
(1.18241e-08 -3.70701e-08 2.53886e-08)
(1.22103e-08 -4.10239e-08 2.99421e-08)
(1.19981e-08 -4.46199e-08 3.46749e-08)
(1.08578e-08 -4.77096e-08 3.9218e-08)
(8.42126e-09 -5.03121e-08 4.3028e-08)
(4.58009e-09 -5.27725e-08 4.55334e-08)
(3.17417e-10 -5.54629e-08 4.66131e-08)
(-2.80868e-09 -5.87053e-08 4.74334e-08)
(0 0 0)
(2.43591e-09 -5.90114e-09 2.94263e-09)
(4.6186e-09 -1.13084e-08 5.71379e-09)
(6.60549e-09 -1.6454e-08 8.49549e-09)
(8.44134e-09 -2.15197e-08 1.14433e-08)
(1.01577e-08 -2.664e-08 1.46936e-08)
(1.17704e-08 -3.19016e-08 1.83654e-08)
(1.3274e-08 -3.73397e-08 2.25571e-08)
(1.46309e-08 -4.29337e-08 2.73348e-08)
(1.57522e-08 -4.86004e-08 3.27108e-08)
(1.64678e-08 -5.41895e-08 3.86079e-08)
(1.64835e-08 -5.94909e-08 4.48099e-08)
(1.53364e-08 -6.4272e-08 5.09175e-08)
(1.2423e-08 -6.83707e-08 5.63538e-08)
(7.35094e-09 -7.18281e-08 6.05159e-08)
(1.19289e-09 -7.47746e-08 6.31295e-08)
(-3.95163e-09 -7.78856e-08 6.51997e-08)
(0 0 0)
(2.9636e-09 -7.01867e-09 3.54422e-09)
(5.61941e-09 -1.34581e-08 6.87851e-09)
(8.03816e-09 -1.96021e-08 1.02187e-08)
(1.02766e-08 -2.56756e-08 1.37489e-08)
(1.23776e-08 -3.18504e-08 1.76305e-08)
(1.43691e-08 -3.8246e-08 2.20049e-08)
(1.62586e-08 -4.49279e-08 2.69902e-08)
(1.80241e-08 -5.1904e-08 3.26692e-08)
(1.95943e-08 -5.91175e-08 3.90665e-08)
(2.08175e-08 -6.64353e-08 4.61107e-08)
(2.14072e-08 -7.3631e-08 5.35805e-08)
(2.08679e-08 -8.03607e-08 6.10554e-08)
(1.84545e-08 -8.61245e-08 6.79153e-08)
(1.34177e-08 -9.02417e-08 7.34873e-08)
(6.38742e-09 -9.20778e-08 7.73437e-08)
(-8.98536e-10 -9.26386e-08 8.0484e-08)
(0 0 0)
(3.43891e-09 -7.90276e-09 4.06575e-09)
(6.52033e-09 -1.51635e-08 7.88557e-09)
(9.32678e-09 -2.21113e-08 1.17021e-08)
(1.1926e-08 -2.90097e-08 1.57215e-08)
(1.43727e-08 -3.60657e-08 2.01242e-08)
(1.67084e-08 -4.3432e-08 2.50681e-08)
(1.89591e-08 -5.1208e-08 3.06856e-08)
(2.11293e-08 -5.94386e-08 3.70711e-08)
(2.31889e-08 -6.81084e-08 4.42578e-08)
(2.50513e-08 -7.71285e-08 5.21775e-08)
(2.65327e-08 -8.63087e-08 6.06003e-08)
(2.72887e-08 -9.52958e-08 6.90671e-08)
(2.67578e-08 -1.03443e-07 7.686e-08)
(2.42531e-08 -1.09588e-07 8.3129e-08)
(1.98171e-08 -1.12158e-07 8.72918e-08)
(1.21932e-08 -1.07456e-07 9.08245e-08)
(0 0 0)
(3.85384e-09 -8.51453e-09 4.49989e-09)
(7.30582e-09 -1.63496e-08 8.72072e-09)
(1.04477e-08 -2.38701e-08 1.29243e-08)
(1.33562e-08 -3.13713e-08 1.73317e-08)
(1.6096e-08 -3.90894e-08 2.21355e-08)
(1.87215e-08 -4.72067e-08 2.7503e-08)
(2.12771e-08 -5.58542e-08 3.35734e-08)
(2.37962e-08 -6.51129e-08 4.04453e-08)
(2.62974e-08 -7.5011e-08 4.8153e-08)
(2.87775e-08 -8.55156e-08 5.66233e-08)
(3.11996e-08 -9.65121e-08 6.56079e-08)
(3.34822e-08 -1.07767e-07 7.45916e-08)
(3.55241e-08 -1.18851e-07 8.27062e-08)
(3.73352e-08 -1.29005e-07 8.87744e-08)
(3.91604e-08 -1.36827e-07 9.18608e-08)
(4.14961e-08 -1.41011e-07 9.353e-08)
(0 0 0)
(4.2026e-09 -8.82205e-09 4.84345e-09)
(7.96492e-09 -1.69549e-08 9.37845e-09)
(1.13844e-08 -2.47871e-08 1.38778e-08)
(1.45434e-08 -3.26353e-08 1.85703e-08)
(1.75131e-08 -4.07563e-08 2.36532e-08)
(2.03566e-08 -4.93543e-08 2.92957e-08)
(2.31314e-08 -5.85835e-08 3.56357e-08)
(2.58913e-08 -6.85509e-08 4.27674e-08)
(2.86888e-08 -7.93138e-08 5.07172e-08)
(3.15769e-08 -9.0871e-08 5.94001e-08)
(3.46106e-08 -1.03146e-07 6.85497e-08)
(3.78515e-08 -1.15962e-07 7.7617e-08)
(4.13952e-08 -1.29002e-07 8.56637e-08)
(4.54269e-08 -1.41754e-07 9.13714e-08)
(4.98104e-08 -1.5273e-07 9.35958e-08)
(6.13976e-08 -1.67695e-07 9.11251e-08)
(0 0 0)
(0 0 0)
(0 0 0)
(0 0 0)
(0 0 0)
(0 0 0)
(0 0 0)
(0 0 0)
(0 0 0)
(0 0 0)
(0 0 0)
(0 0 0)
(0 0 0)
(0 0 0)
(0 0 0)
(0 0 0)
(-2.52827e-09 -7.24412e-11 2.27741e-09)
(0 0 0)
(6.28333e-10 -1.60953e-09 6.09948e-10)
(1.18914e-09 -3.08046e-09 1.18465e-09)
(1.69493e-09 -4.47341e-09 1.7623e-09)
(2.154e-09 -5.8346e-09 2.37547e-09)
(2.56939e-09 -7.19555e-09 3.05188e-09)
(2.9376e-09 -8.57277e-09 3.81457e-09)
(3.24649e-09 -9.96666e-09 4.68069e-09)
(3.47214e-09 -1.13599e-08 5.65824e-09)
(3.57503e-09 -1.27157e-08 6.74009e-09)
(3.49726e-09 -1.39777e-08 7.89522e-09)
(3.16319e-09 -1.50728e-08 9.05784e-09)
(2.4877e-09 -1.59146e-08 1.01191e-08)
(1.39645e-09 -1.63923e-08 1.09339e-08)
(-1.30875e-10 -1.63153e-08 1.13727e-08)
(-1.88108e-09 -1.54099e-08 1.14272e-08)
(-3.52872e-09 -1.18921e-08 1.05022e-08)
(0 0 0)
(1.24605e-09 -3.16967e-09 1.20447e-09)
(2.35855e-09 -6.06824e-09 2.33913e-09)
(3.36259e-09 -8.81574e-09 3.47903e-09)
(4.2752e-09 -1.15041e-08 4.68794e-09)
(5.10363e-09 -1.41977e-08 6.02035e-09)
(5.84277e-09 -1.6932e-08 7.52176e-09)
(6.47114e-09 -1.97115e-08 9.22633e-09)
(6.94452e-09 -2.25073e-08 1.11508e-08)
(7.18794e-09 -2.52536e-08 1.32832e-08)
(7.08867e-09 -2.78492e-08 1.55668e-08)
(6.49643e-09 -3.01684e-08 1.78806e-08)
(5.24707e-09 -3.20883e-08 2.00244e-08)
(3.24394e-09 -3.35344e-08 2.17336e-08)
(6.67293e-10 -3.45119e-08 2.27647e-08)
(-1.66159e-09 -3.50567e-08 2.3095e-08)
(-2.32382e-09 -3.58851e-08 2.32022e-08)
(0 0 0)
(1.84313e-09 -4.63277e-09 1.76956e-09)
(3.48944e-09 -8.87297e-09 3.43591e-09)
(4.97691e-09 -1.28985e-08 5.10839e-09)
(6.33223e-09 -1.6847e-08 6.87969e-09)
(7.5689e-09 -2.08172e-08 8.82935e-09)
(8.68388e-09 -2.48679e-08 1.10243e-08)
(9.65205e-09 -2.90151e-08 1.35156e-08)
(1.0417e-08 -3.32281e-08 1.63304e-08)
(1.08784e-08 -3.74256e-08 1.94571e-08)
(1.08784e-08 -4.14762e-08 2.28248e-08)
(1.01929e-08 -4.5213e-08 2.6278e-08)
(8.55384e-09 -4.84791e-08 2.95682e-08)
(5.76148e-09 -5.12227e-08 3.23874e-08)
(2.01438e-09 -5.36075e-08 3.44849e-08)
(-1.50364e-09 -5.58429e-08 3.58221e-08)
(-3.39048e-09 -5.83197e-08 3.6781e-08)
(0 0 0)
(2.40925e-09 -5.95067e-09 2.29225e-09)
(4.56221e-09 -1.14028e-08 4.44935e-09)
(6.50987e-09 -1.65897e-08 6.61118e-09)
(8.28964e-09 -2.16937e-08 8.89617e-09)
(9.92379e-09 -2.68496e-08 1.14062e-08)
(1.1416e-08 -3.21438e-08 1.42278e-08)
(1.27456e-08 -3.76113e-08 1.74279e-08)
(1.38565e-08 -4.32315e-08 2.10447e-08)
(1.46421e-08 -4.8922e-08 2.50711e-08)
(1.49238e-08 -5.45327e-08 2.94299e-08)
(1.44283e-08 -5.98478e-08 3.39483e-08)
(1.27828e-08 -6.46082e-08 3.8352e-08)
(9.60045e-09 -6.85767e-08 4.23122e-08)
(4.83968e-09 -7.16564e-08 4.55657e-08)
(-2.74975e-10 -7.39293e-08 4.79634e-08)
(-3.9351e-09 -7.62073e-08 4.97467e-08)
(0 0 0)
(2.9343e-09 -7.07667e-09 2.76145e-09)
(5.5574e-09 -1.35682e-08 5.35742e-09)
(7.93298e-09 -1.97591e-08 7.95372e-09)
(1.01098e-08 -2.58742e-08 1.06905e-08)
(1.21211e-08 -3.20843e-08 1.36883e-08)
(1.39817e-08 -3.85062e-08 1.70502e-08)
(1.56838e-08 -4.52006e-08 2.08564e-08)
(1.7187e-08 -5.21679e-08 2.51551e-08)
(1.84039e-08 -5.934e-08 2.99435e-08)
(1.91782e-08 -6.65662e-08 3.51413e-08)
(1.92532e-08 -7.35925e-08 4.05617e-08)
(1.824e-08 -8.00296e-08 4.59011e-08)
(1.56349e-08 -8.53102e-08 5.0789e-08)