/*--------------------------------*- C++ -*----------------------------------*\
| =========                 |                                                 |
| \\      /  F ield         | OpenFOAM: The Open Source CFD Toolbox           |
|  \\    /   O peration     | Version:  v1912                                 |
|   \\  /    A nd           | Website:  www.openfoam.com                      |
|    \\/     M anipulation  |                                                 |
\*---------------------------------------------------------------------------*/
FoamFile
{
    version     2.0;
    format      ascii;
    class       volVectorField;
    location    "0.69/solid";
    object      D_0_0;
}
// * * * * * * * * * * * * * * * * * * * * * * * * * * * * * * * * * * * * * //

dimensions      [0 1 0 0 0 0 0];


internalField   nonuniform List<vector> 
256
(
(2.58959e-08 3.7556e-08 2.81089e-08)
(3.17461e-09 2.1847e-08 2.54953e-08)
(-2.90717e-09 2.15404e-08 2.54501e-08)
(-2.49084e-08 3.62501e-08 2.80449e-08)
(4.202e-08 2.92551e-08 5.34125e-08)
(8.38118e-09 1.9845e-08 4.9969e-08)
(-6.84912e-09 1.93297e-08 5.00078e-08)
(-3.95306e-08 2.7516e-08 5.36105e-08)
(4.42554e-08 1.52762e-08 6.69452e-08)
(9.79295e-09 1.15574e-08 6.32665e-08)
(-6.71697e-09 1.09023e-08 6.34003e-08)
(-4.02346e-08 1.32178e-08 6.74137e-08)
(4.38437e-08 3.05244e-09 7.73744e-08)
(9.90309e-09 1.00859e-09 7.33434e-08)
(-5.13103e-09 2.38678e-10 7.35463e-08)
(-3.81322e-08 6.82446e-10 7.80424e-08)
(4.4722e-08 -8.4541e-09 8.77198e-08)
(1.04833e-08 -1.11901e-08 8.32748e-08)
(-3.87463e-09 -1.20681e-08 8.35255e-08)
(-3.71634e-08 -1.11251e-08 8.85288e-08)
(4.89024e-08 -2.11291e-08 9.9559e-08)
(1.24522e-08 -2.52065e-08 9.47288e-08)
(-3.8731e-09 -2.61937e-08 9.50134e-08)
(-3.93688e-08 -2.40966e-08 1.0047e-07)
(5.85296e-08 -4.08116e-08 1.14034e-07)
(1.63695e-08 -4.41078e-08 1.09215e-07)
(-5.72162e-09 -4.51904e-08 1.09522e-07)
(-4.69385e-08 -4.40437e-08 1.15014e-07)
(7.24624e-08 -9.13292e-08 1.29036e-07)
(2.06735e-08 -8.80266e-08 1.25107e-07)
(-7.98406e-09 -8.89843e-08 1.25421e-07)
(-5.87997e-08 -9.42798e-08 1.3004e-07)
(1.81027e-08 1.72369e-08 5.17367e-09)
(1.59315e-09 4.35458e-09 6.41602e-09)
(-1.38929e-09 4.13341e-09 6.50486e-09)
(-1.71834e-08 1.61788e-08 5.43098e-09)
(2.96428e-08 1.20892e-08 2.08346e-08)
(5.29371e-09 4.21079e-09 2.32513e-08)
(-3.9669e-09 3.71937e-09 2.34435e-08)
(-2.73979e-08 1.04437e-08 2.1392e-08)
(3.09331e-08 2.91037e-09 3.37195e-08)
(6.31639e-09 -3.18092e-10 3.65371e-08)
(-3.58423e-09 -9.7884e-10 3.68109e-08)
(-2.73123e-08 8.66212e-10 3.45133e-08)
(3.02477e-08 -6.85097e-09 4.39655e-08)
(6.35261e-09 -8.73623e-09 4.68368e-08)
(-2.04155e-09 -9.51738e-09 4.71742e-08)
(-2.50554e-08 -9.22751e-09 4.4945e-08)
(3.08783e-08 -1.71411e-08 5.34493e-08)
(6.87487e-09 -1.98122e-08 5.62475e-08)
(-8.19916e-10 -2.07002e-08 5.6632e-08)
(-2.39255e-08 -1.98221e-08 5.45662e-08)
(3.48589e-08 -2.84092e-08 6.32995e-08)
(8.78668e-09 -3.25015e-08 6.59974e-08)
(-8.32128e-10 -3.34965e-08 6.64153e-08)
(-2.59905e-08 -3.13867e-08 6.45142e-08)
(4.45961e-08 -4.41386e-08 7.3007e-08)
(1.27028e-08 -4.73966e-08 7.56733e-08)
(-2.72929e-09 -4.84855e-08 7.61113e-08)
(-3.37082e-08 -4.73804e-08 7.42814e-08)
(5.92148e-08 -8.50914e-08 7.85059e-08)
(1.70433e-08 -8.09229e-08 8.12217e-08)
(-5.05295e-09 -8.18851e-08 8.16639e-08)
(-4.62775e-08 -8.8046e-08 7.97949e-08)
(1.28564e-08 1.10157e-08 2.47361e-09)
(2.20616e-10 2.00118e-10 4.12617e-09)
(-9.80733e-11 8.79858e-12 4.1944e-09)
(-1.20389e-08 1.00722e-08 2.66839e-09)
(2.10477e-08 3.32641e-09 1.28791e-08)
(2.50287e-09 -3.21729e-09 1.59968e-08)
(-1.40928e-09 -3.67328e-09 1.61531e-08)
(-1.9057e-08 1.80877e-09 1.33273e-08)
(2.17335e-08 -5.49399e-09 2.40068e-08)
(3.1543e-09 -8.25963e-09 2.75957e-08)
(-7.83625e-10 -8.89362e-09 2.78157e-08)
(-1.84947e-08 -7.43905e-09 2.4642e-08)
(2.09924e-08 -1.39522e-08 3.39e-08)
(3.13681e-09 -1.5741e-08 3.75962e-08)
(7.07122e-10 -1.65037e-08 3.78669e-08)
(-1.62869e-08 -1.62571e-08 3.46852e-08)
(2.15772e-08 -2.24976e-08 4.27626e-08)
(3.62332e-09 -2.51805e-08 4.64569e-08)
(1.87978e-09 -2.6055e-08 4.67674e-08)
(-1.51915e-08 -2.51263e-08 4.36656e-08)
(2.55637e-08 -3.12494e-08 5.08187e-08)
(5.50048e-09 -3.53872e-08 5.44783e-08)
(1.83686e-09 -3.63717e-08 5.48182e-08)
(-1.73197e-08 -3.4188e-08 5.18083e-08)
(3.54435e-08 -4.32338e-08 5.70318e-08)
(9.41609e-09 -4.65367e-08 6.06491e-08)
(-1.0798e-10 -4.76164e-08 6.10066e-08)
(-2.52175e-08 -4.64445e-08 5.80743e-08)
(5.01966e-08 -7.93501e-08 5.87823e-08)
(1.37668e-08 -7.51988e-08 6.23862e-08)
(-2.47676e-09 -7.61511e-08 6.27462e-08)
(-3.7946e-08 -8.22701e-08 5.98355e-08)
(1.05049e-08 9.09717e-09 2.36213e-09)
(-3.50676e-10 -5.3616e-10 3.41214e-09)
(4.19667e-10 -7.15555e-10 3.459e-09)
(-9.77319e-09 8.21658e-09 2.49846e-09)
(1.70971e-08 -1.96274e-10 1.00808e-08)
(1.2257e-09 -5.9502e-09 1.2082e-08)
(-3.07864e-10 -6.37832e-09 1.21962e-08)
(-1.53176e-08 -1.61259e-09 1.04118e-08)
(1.75839e-08 -9.79166e-09 1.89473e-08)
(1.69405e-09 -1.22779e-08 2.12498e-08)
(3.90298e-10 -1.28807e-08 2.14132e-08)
(-1.46608e-08 -1.16329e-08 1.94235e-08)
(1.69741e-08 -1.79312e-08 2.74538e-08)
(1.68615e-09 -1.96802e-08 2.98063e-08)
(1.77934e-09 -2.0415e-08 3.00088e-08)
(-1.26729e-08 -2.01457e-08 2.80472e-08)
(1.76876e-08 -2.52449e-08 3.5021e-08)
(2.19498e-09 -2.79575e-08 3.73522e-08)
(2.85537e-09 -2.88091e-08 3.75866e-08)
(-1.17774e-08 -2.78002e-08 3.571e-08)
(2.17754e-08 -3.21467e-08 4.12649e-08)
(4.07424e-09 -3.63286e-08 4.35623e-08)
(2.75208e-09 -3.72942e-08 4.3821e-08)
(-1.40603e-08 -3.50268e-08 4.20269e-08)
(3.16797e-08 -4.2137e-08 4.53518e-08)
(7.95976e-09 -4.55537e-08 4.76265e-08)
(7.91832e-10 -4.66175e-08 4.78999e-08)
(-2.20201e-08 -4.52996e-08 4.61595e-08)
(4.62804e-08 -7.6229e-08 4.61679e-08)
(1.22689e-08 -7.24687e-08 4.84923e-08)
(-1.57264e-09 -7.3407e-08 4.8767e-08)
(-3.46238e-08 -7.91053e-08 4.69839e-08)
(9.60824e-09 8.31438e-09 2.16853e-09)
(-4.86319e-10 -7.24066e-10 2.69436e-09)
(5.22917e-10 -8.95427e-10 2.72668e-09)
(-8.93578e-09 7.47801e-09 2.2631e-09)
(1.56328e-08 -1.4976e-09 8.01789e-09)
(8.60382e-10 -6.86778e-09 9.01801e-09)
(-6.11504e-11 -7.27505e-09 9.09911e-09)
(-1.40051e-08 -2.83801e-09 8.25357e-09)
(1.61399e-08 -1.15543e-08 1.46726e-08)
(1.28262e-09 -1.392e-08 1.58118e-08)
(5.97231e-10 -1.44967e-08 1.59294e-08)
(-1.34499e-08 -1.33103e-08 1.50163e-08)
(1.57045e-08 -1.96838e-08 2.12566e-08)
(1.31131e-09 -2.14359e-08 2.23983e-08)
(1.87445e-09 -2.2145e-08 2.25453e-08)
(-1.17081e-08 -2.18172e-08 2.1689e-08)
(1.6575e-08 -2.64094e-08 2.71127e-08)
(1.85737e-09 -2.91523e-08 2.82215e-08)
(2.85088e-09 -2.9981e-08 2.83927e-08)
(-1.10295e-08 -2.88942e-08 2.76189e-08)
(2.07462e-08 -3.24251e-08 3.17177e-08)
(3.74205e-09 -3.6634e-08 3.28003e-08)
(2.69202e-09 -3.758e-08 3.29905e-08)
(-1.34429e-08 -3.52466e-08 3.22818e-08)
(3.0594e-08 -4.16435e-08 3.45386e-08)
(7.58166e-09 -4.51483e-08 3.56223e-08)
(7.3719e-10 -4.61957e-08 3.58241e-08)
(-2.13814e-08 -4.47578e-08 3.51399e-08)
(4.49961e-08 -7.47945e-08 3.51947e-08)
(1.18375e-08 -7.13746e-08 3.63443e-08)
(-1.60783e-09 -7.22993e-08 3.65469e-08)
(-3.3814e-08 -7.76298e-08 3.58027e-08)
(9.26451e-09 7.93248e-09 1.70991e-09)
(-4.88373e-10 -8.15393e-10 1.94892e-09)
(5.05527e-10 -9.80826e-10 1.97034e-09)
(-8.62946e-09 7.12688e-09 1.77222e-09)
(1.51344e-08 -1.95441e-09 5.87713e-09)
(8.12404e-10 -7.15717e-09 6.32243e-09)
(-8.9391e-11 -7.54936e-09 6.37674e-09)
(-1.36061e-08 -3.24059e-09 6.03427e-09)
(1.57256e-08 -1.21198e-08 1.04904e-08)
(1.24192e-09 -1.44494e-08 1.09852e-08)
(5.00789e-10 -1.50067e-08 1.10647e-08)
(-1.31932e-08 -1.38126e-08 1.07219e-08)
(1.54309e-08 -2.0257e-08 1.5075e-08)
(1.30447e-09 -2.20287e-08 1.5555e-08)
(1.68777e-09 -2.27178e-08 1.56549e-08)
(-1.16459e-08 -2.23279e-08 1.53686e-08)
(1.64166e-08 -2.67886e-08 1.91521e-08)
(1.87718e-09 -2.9554e-08 1.96046e-08)
(2.58906e-09 -3.03642e-08 1.97217e-08)
(-1.11291e-08 -2.92168e-08 1.94982e-08)
(2.0631e-08 -3.25277e-08 2.23081e-08)
(3.76002e-09 -3.67453e-08 2.27468e-08)
(2.39196e-09 -3.76753e-08 2.28774e-08)
(-1.36236e-08 -3.53009e-08 2.26962e-08)
(3.04064e-08 -4.15391e-08 2.42291e-08)
(7.55737e-09 -4.50829e-08 2.46805e-08)
(4.46451e-10 -4.61167e-08 2.48195e-08)
(-2.15194e-08 -4.46134e-08 2.46447e-08)
(4.46471e-08 -7.41999e-08 2.47925e-08)
(1.17682e-08 -7.09742e-08 2.52959e-08)
(-1.88116e-09 -7.18877e-08 2.54354e-08)
(-3.38143e-08 -7.70017e-08 2.52133e-08)
(9.11509e-09 7.74662e-09 1.08196e-09)
(-4.72754e-10 -8.59059e-10 1.18351e-09)
(4.78925e-10 -1.02062e-09 1.19579e-09)
(-8.50174e-09 6.9602e-09 1.11742e-09)
(1.4947e-08 -2.09618e-09 3.58698e-09)
(8.25393e-10 -7.22893e-09 3.77048e-09)
(-1.4743e-10 -7.61131e-09 3.80175e-09)
(-1.34776e-08 -3.34757e-09 3.67692e-09)
(1.56076e-08 -1.22313e-08 6.29871e-09)
(1.2692e-09 -1.45558e-08 6.49593e-09)
(3.90024e-10 -1.51004e-08 6.54191e-09)
(-1.31711e-08 -1.3883e-08 6.43205e-09)
(1.54009e-08 -2.03566e-08 8.98136e-09)
(1.35298e-09 -2.21462e-08 9.16525e-09)
(1.51861e-09 -2.2822e-08 9.22332e-09)
(-1.17473e-08 -2.23857e-08 9.15147e-09)
(1.64526e-08 -2.68564e-08 1.13651e-08)
(1.9391e-09 -2.96346e-08 1.1533e-08)
(2.37348e-09 -3.04323e-08 1.16013e-08)
(-1.13282e-08 -2.9246e-08 1.15667e-08)
(2.06837e-08 -3.25686e-08 1.32076e-08)
(3.81655e-09 -3.67849e-08 1.33705e-08)
(2.15383e-09 -3.77038e-08 1.34469e-08)
(-1.38659e-08 -3.53082e-08 1.34347e-08)
(3.04039e-08 -4.15688e-08 1.43438e-08)
(7.58447e-09 -4.51207e-08 1.45188e-08)
(2.14538e-10 -4.61451e-08 1.46003e-08)
(-2.17278e-08 -4.46149e-08 1.45877e-08)
(4.45378e-08 -7.39778e-08 1.47302e-08)
(1.17644e-08 -7.08387e-08 1.49358e-08)
(-2.10156e-09 -7.17442e-08 1.50176e-08)
(-3.39333e-08 -7.67559e-08 1.49773e-08)
(9.05247e-09 7.67127e-09 3.69125e-10)
(-4.64535e-10 -8.74344e-10 3.97494e-10)
(4.65768e-10 -1.034e-09 4.01496e-10)
(-8.44906e-09 6.89401e-09 3.80639e-10)
(1.48725e-08 -2.12954e-09 1.20526e-09)
(8.34685e-10 -7.23611e-09 1.25543e-09)
(-1.77572e-10 -7.61366e-09 1.26565e-09)
(-1.34305e-08 -3.36399e-09 1.23453e-09)
(1.55673e-08 -1.22258e-08 2.09984e-09)
(1.28608e-09 -1.45515e-08 2.1525e-09)
(3.33808e-10 -1.50898e-08 2.16755e-09)
(-1.3176e-08 -1.38572e-08 2.14335e-09)
(1.5401e-08 -2.03388e-08 2.98123e-09)
(1.37923e-09 -2.21379e-08 3.02901e-09)
(1.43469e-09 -2.2807e-08 3.04806e-09)
(-1.181e-08 -2.23471e-08 3.03691e-09)
(1.64812e-08 -2.68456e-08 3.76391e-09)
(1.97026e-09 -2.9629e-08 3.80662e-09)
(2.26796e-09 -3.04204e-08 3.82906e-09)
(-1.14355e-08 -2.92157e-08 3.83008e-09)
(2.07171e-08 -3.25819e-08 4.36983e-09)
(3.84376e-09 -3.67952e-08 4.41149e-09)
(2.03793e-09 -3.77084e-08 4.43666e-09)
(-1.39916e-08 -3.53044e-08 4.44453e-09)
(3.04089e-08 -4.1605e-08 4.74734e-09)
(7.59705e-09 -4.51554e-08 4.79376e-09)
(1.01275e-10 -4.61749e-08 4.82064e-09)
(-2.18363e-08 -4.46366e-08 4.82773e-09)
(4.44906e-08 -7.39085e-08 4.88456e-09)
(1.17614e-08 -7.0799e-08 4.94092e-09)
(-2.20926e-09 -7.17005e-08 4.96787e-09)
(-3.39986e-08 -7.66744e-08 4.96606e-09)
)
;

boundaryField
{
    interface
    {
        type            solidTraction;
        traction        uniform (0 0 0);
        pressure        uniform 0;
        secondOrder     false;
        setEffectiveTraction false;
        relaxationFactor 1;
        value           nonuniform List<vector> 
192
(
(8.40472e-08 5.45349e-08 2.59457e-08)
(9.6482e-08 3.3845e-08 4.98589e-08)
(9.98391e-08 1.57321e-08 6.31157e-08)
(1.01139e-07 3.16915e-09 7.35122e-08)
(1.04125e-07 -7.18929e-09 8.3844e-08)
(1.1111e-07 -1.7677e-08 9.56809e-08)
(1.2438e-07 -3.49213e-08 1.10191e-07)
(1.45076e-07 -8.72334e-08 1.25273e-07)
(6.6527e-08 2.91733e-08 1.91356e-09)
(7.55434e-08 1.52967e-08 1.55911e-08)
(7.74776e-08 3.0616e-09 2.80886e-08)
(7.81033e-08 -6.86459e-09 3.82523e-08)
(8.06436e-08 -1.59882e-08 4.76626e-08)
(8.74831e-08 -2.49796e-08 5.74644e-08)
(1.01447e-07 -3.80493e-08 6.72351e-08)
(1.25101e-07 -8.09113e-08 7.29391e-08)
(5.52659e-08 1.94916e-08 5.73969e-10)
(6.23212e-08 5.54566e-09 9.74238e-09)
(6.37274e-08 -5.50781e-09 2.06691e-08)
(6.42193e-08 -1.39912e-08 3.05813e-08)
(6.66955e-08 -2.13546e-08 3.94646e-08)
(7.36586e-08 -2.77825e-08 4.75475e-08)
(8.81144e-08 -3.70752e-08 5.38024e-08)
(1.125e-07 -7.51222e-08 5.55485e-08)
(4.92994e-08 1.59976e-08 1.54999e-09)
(5.52223e-08 1.57346e-09 8.72685e-09)
(5.65287e-08 -9.82238e-09 1.75487e-08)
(5.71683e-08 -1.79051e-08 2.61316e-08)
(5.97962e-08 -2.40444e-08 3.37702e-08)
(6.69289e-08 -2.86484e-08 4.00603e-08)
(8.15546e-08 -3.60103e-08 4.41392e-08)
(1.05896e-07 -7.19867e-08 4.48676e-08)
(4.62781e-08 1.46246e-08 1.85837e-09)
(5.17613e-08 1.35304e-10 7.52708e-09)
(5.31434e-08 -1.15364e-08 1.42078e-08)
(5.3993e-08 -1.95749e-08 2.08707e-08)
(5.68113e-08 -2.51488e-08 2.67948e-08)
(6.40661e-08 -2.892e-08 3.14315e-08)
(7.86798e-08 -3.55806e-08 3.42202e-08)
(1.02765e-07 -7.05617e-08 3.47863e-08)
(4.46924e-08 1.40322e-08 1.58658e-09)
(5.00614e-08 -3.39153e-10 5.70557e-09)
(5.15563e-08 -1.20456e-08 1.03572e-08)
(5.25763e-08 -2.00841e-08 1.4999e-08)
(5.55373e-08 -2.54884e-08 1.91214e-08)
(6.28549e-08 -2.90299e-08 2.22924e-08)
(7.73989e-08 -3.55346e-08 2.41815e-08)
(1.0124e-07 -6.99885e-08 2.46779e-08)
(4.38492e-08 1.37621e-08 1.02892e-09)
(4.91965e-08 -4.73059e-10 3.52144e-09)
(5.07757e-08 -1.21178e-08 6.25909e-09)
(5.19029e-08 -2.01452e-08 8.97383e-09)
(5.4947e-08 -2.55355e-08 1.13812e-08)
(6.22896e-08 -2.90804e-08 1.32291e-08)
(7.67695e-08 -3.56048e-08 1.43444e-08)
(1.00441e-07 -6.97875e-08 1.4691e-08)
(4.3474e-08 1.36525e-08 3.53462e-10)
(4.88163e-08 -5.00829e-10 1.18663e-09)
(5.04361e-08 -1.20936e-08 2.08975e-09)
(5.16125e-08 -2.01102e-08 2.98123e-09)
(5.46932e-08 -2.55163e-08 3.77103e-09)
(6.20432e-08 -2.90996e-08 4.37814e-09)
(7.64879e-08 -3.56612e-08 4.74859e-09)
(1.00075e-07 -6.97306e-08 4.87273e-09)
(2.63247e-08 5.79364e-08 8.79986e-08)
(4.2937e-08 3.89644e-08 1.09341e-07)
(4.52518e-08 2.12668e-08 1.2401e-07)
(4.47683e-08 8.24617e-09 1.36262e-07)
(4.55499e-08 -2.90786e-09 1.48795e-07)
(4.96353e-08 -1.45505e-08 1.63421e-07)
(5.92478e-08 -3.34421e-08 1.81459e-07)
(7.33632e-08 -8.73679e-08 2.03185e-07)
(2.5103e-09 4.07131e-08 7.91764e-08)
(7.53073e-09 2.9288e-08 9.996e-08)
(8.90759e-09 1.74011e-08 1.13583e-07)
(8.94698e-09 6.01073e-09 1.24957e-07)
(9.43561e-09 -5.84369e-09 1.36784e-07)
(1.13167e-08 -1.87214e-08 1.50923e-07)
(1.52425e-08 -3.65131e-08 1.69366e-07)
(1.97708e-08 -8.3913e-08 1.94316e-07)
(-2.26938e-09 4.0405e-08 7.83399e-08)
(-5.938e-09 2.88173e-08 9.92262e-08)
(-5.67928e-09 1.67871e-08 1.12916e-07)
(-3.95535e-09 5.27001e-09 1.24337e-07)
(-2.56019e-09 -6.70137e-09 1.36196e-07)
(-2.43691e-09 -1.96946e-08 1.50355e-07)
(-4.27071e-09 -3.75886e-08 1.68808e-07)
(-6.74974e-09 -8.48679e-08 1.93785e-07)
(-2.53303e-08 5.6664e-08 8.56925e-08)
(-4.03506e-08 3.73583e-08 1.07385e-07)
(-4.1049e-08 1.93258e-08 1.2224e-07)
(-3.88113e-08 5.96123e-09 1.34629e-07)
(-3.77003e-08 -5.51825e-09 1.47259e-07)
(-3.9778e-08 -1.74752e-08 1.61948e-07)
(-4.7311e-08 -3.66512e-08 1.80026e-07)
(-5.93449e-08 -9.03102e-08 2.01864e-07)
(-7.92941e-08 5.236e-08 2.59029e-08)
(-9.01683e-08 3.13477e-08 5.01676e-08)
(-9.19149e-08 1.28683e-08 6.37762e-08)
(-9.14426e-08 -8.53627e-11 7.4434e-08)
(-9.25089e-08 -1.08159e-08 8.49512e-08)
(-9.74619e-08 -2.16529e-08 9.69209e-08)
(-1.08649e-07 -3.9186e-08 1.11521e-07)
(-1.27239e-07 -9.12101e-08 1.26638e-07)
(-6.18509e-08 2.73241e-08 2.21355e-09)
(-6.95635e-08 1.29759e-08 1.62735e-08)
(-7.00543e-08 2.80637e-10 2.90783e-08)
(-6.90212e-08 -1.00742e-08 3.94836e-08)
(-6.97089e-08 -1.95883e-08 4.90732e-08)
(-7.45433e-08 -2.89411e-08 5.9002e-08)
(-8.64265e-08 -4.23087e-08 6.88512e-08)
(-1.07997e-07 -8.48843e-08 7.45816e-08)
(-5.08134e-08 1.78462e-08 8.1581e-10)
(-5.67003e-08 3.42276e-09 1.03073e-08)
(-5.67878e-08 -8.13155e-09 2.14791e-08)
(-5.57212e-08 -1.70829e-08 3.15895e-08)
(-5.64134e-08 -2.48681e-08 4.06286e-08)
(-6.14043e-08 -3.16816e-08 4.88258e-08)
(-7.37804e-08 -4.12879e-08 5.51524e-08)
(-9.60723e-08 -7.90483e-08 5.69222e-08)
(-4.50411e-08 1.44893e-08 1.72265e-09)
(-4.99153e-08 -3.9069e-10 9.1488e-09)
(-5.00042e-08 -1.22941e-08 1.81623e-08)
(-4.91705e-08 -2.08666e-08 2.69025e-08)
(-5.00771e-08 -2.74533e-08 3.46695e-08)
(-5.52748e-08 -3.24661e-08 4.10578e-08)
(-6.78315e-08 -4.01586e-08 4.52005e-08)
(-9.00735e-08 -7.58549e-08 4.5951e-08)
(-4.21551e-08 1.32132e-08 1.97717e-09)
(-4.66803e-08 -1.70947e-09 7.82572e-09)
(-4.69241e-08 -1.38845e-08 1.46495e-08)
(-4.63683e-08 -2.24223e-08 2.14323e-08)
(-4.75191e-08 -2.84605e-08 2.74569e-08)
(-5.28758e-08 -3.26587e-08 3.21727e-08)
(-6.54388e-08 -3.9665e-08 3.50148e-08)
(-8.74292e-08 -7.43752e-08 3.56005e-08)
(-4.06545e-08 1.26858e-08 1.66371e-09)
(-4.51265e-08 -2.09965e-09 5.9024e-09)
(-4.55398e-08 -1.43027e-08 1.06523e-08)
(-4.52052e-08 -2.28439e-08 1.53785e-08)
(-4.65407e-08 -2.87224e-08 1.95729e-08)
(-5.19915e-08 -3.27033e-08 2.2802e-08)
(-6.45043e-08 -3.95656e-08 2.47313e-08)
(-8.62603e-08 -7.37568e-08 2.52432e-08)
(-3.98605e-08 1.2455e-08 1.07232e-09)
(-4.43477e-08 -2.18022e-09 3.63303e-09)
(-4.48811e-08 -1.43156e-08 6.42775e-09)
(-4.46874e-08 -2.28464e-08 9.19253e-09)
(-4.61349e-08 -2.87163e-08 1.16433e-08)
(-5.16332e-08 -3.27083e-08 1.35267e-08)
(-6.40973e-08 -3.95979e-08 1.46669e-08)
(-8.56932e-08 -7.35238e-08 1.50234e-08)
(-3.95079e-08 1.23639e-08 3.6747e-10)
(-4.40073e-08 -2.18226e-09 1.22275e-09)
(-4.45985e-08 -1.42623e-08 2.14457e-09)
(-4.44709e-08 -2.27822e-08 3.05261e-09)
(-4.59695e-08 -2.86703e-08 3.85691e-09)
(-5.1487e-08 -3.27042e-08 4.47597e-09)
(-6.39242e-08 -3.96348e-08 4.85487e-09)
(-8.54411e-08 -7.34504e-08 4.98239e-09)
(7.36862e-08 -1.65522e-07 1.29457e-07)
(6.02641e-08 -1.52582e-07 7.5511e-08)
(5.12741e-08 -1.43328e-07 5.65667e-08)
(4.74629e-08 -1.37556e-07 4.5029e-08)
(4.6259e-08 -1.34257e-07 3.46874e-08)
(4.59478e-08 -1.3245e-07 2.45884e-08)
(4.58496e-08 -1.31511e-07 1.46573e-08)
(4.58035e-08 -1.31111e-07 4.86721e-09)
(2.00885e-08 -1.57278e-07 1.25388e-07)
(1.62427e-08 -1.41145e-07 7.80147e-08)
(1.2968e-08 -1.31524e-07 6.02727e-08)
(1.15643e-08 -1.26231e-07 4.75362e-08)
(1.12146e-08 -1.2345e-07 3.59707e-08)
(1.11911e-08 -1.21969e-07 2.51619e-08)
(1.12069e-08 -1.21189e-07 1.4892e-08)
(1.12103e-08 -1.20849e-07 4.93102e-09)
(-6.41962e-09 -1.57385e-07 1.25704e-07)
(-3.27117e-09 -1.41232e-07 7.84557e-08)
(-7.07992e-10 -1.31607e-07 6.06268e-08)
(8.74315e-11 -1.26307e-07 4.78041e-08)
(-4.3099e-11 -1.23516e-07 3.61671e-08)
(-3.73363e-10 -1.22025e-07 2.52966e-08)
(-6.21302e-10 -1.21238e-07 1.49708e-08)
(-7.39483e-10 -1.20894e-07 4.95696e-09)
(-5.90094e-08 -1.66126e-07 1.30467e-07)
(-4.6317e-08 -1.5309e-07 7.67926e-08)
(-3.80261e-08 -1.43815e-07 5.76004e-08)
(-3.48234e-08 -1.38015e-07 4.58239e-08)
(-3.41076e-08 -1.34683e-07 3.52769e-08)
(-3.41572e-08 -1.32847e-07 2.49949e-08)
(-3.42954e-08 -1.31887e-07 1.48955e-08)
(-3.43661e-08 -1.31475e-07 4.94569e-09)
)
;
        gradient        uniform (0 0 0);
    }
    symmetry
    {
        type            solidSymmetry;
        patchType       symmetry;
        secondOrder     false;
        value           nonuniform List<vector> 
32
(
(9.05247e-09 7.67127e-09 0)
(1.48725e-08 -2.12954e-09 0)
(1.55673e-08 -1.22258e-08 0)
(1.5401e-08 -2.03388e-08 0)
(1.64812e-08 -2.68456e-08 0)
(2.07171e-08 -3.25819e-08 0)
(3.04089e-08 -4.1605e-08 0)
(4.44906e-08 -7.39085e-08 0)
(-4.64535e-10 -8.74344e-10 0)
(8.34685e-10 -7.23611e-09 0)
(1.28608e-09 -1.45515e-08 0)
(1.37923e-09 -2.21379e-08 0)
(1.97026e-09 -2.9629e-08 0)
(3.84376e-09 -3.67952e-08 0)
(7.59705e-09 -4.51554e-08 0)
(1.17614e-08 -7.0799e-08 0)
(4.65768e-10 -1.034e-09 0)
(-1.77572e-10 -7.61366e-09 0)
(3.33808e-10 -1.50898e-08 0)
(1.43469e-09 -2.2807e-08 0)
(2.26796e-09 -3.04204e-08 0)
(2.03793e-09 -3.77084e-08 0)
(1.01275e-10 -4.61749e-08 0)
(-2.20926e-09 -7.17005e-08 0)
(-8.44906e-09 6.89401e-09 0)
(-1.34305e-08 -3.36399e-09 0)
(-1.3176e-08 -1.38572e-08 0)
(-1.181e-08 -2.23471e-08 0)
(-1.14355e-08 -2.92157e-08 0)
(-1.39916e-08 -3.53044e-08 0)
(-2.18363e-08 -4.46366e-08 0)
(-3.39986e-08 -7.66744e-08 0)
)
;
    }
    bottom
    {
        type            fixedDisplacement;
        value           uniform (0 0 0);
    }
}


// ************************************************************************* //
