/*--------------------------------*- C++ -*----------------------------------*\
| =========                 |                                                 |
| \\      /  F ield         | OpenFOAM: The Open Source CFD Toolbox           |
|  \\    /   O peration     | Version:  v1912                                 |
|   \\  /    A nd           | Website:  www.openfoam.com                      |
|    \\/     M anipulation  |                                                 |
\*---------------------------------------------------------------------------*/
FoamFile
{
    version     2.0;
    format      ascii;
    class       volVectorField;
    location    "0.69/solid";
    object      heatFlux;
}
// * * * * * * * * * * * * * * * * * * * * * * * * * * * * * * * * * * * * * //

dimensions      [1 0 -3 0 0 0 0];


internalField   nonuniform List<vector> 
256
(
(-66386.1 69003.6 -70164.5)
(-13190.8 39979.5 -68508.4)
(12079.5 39589.5 -67342.4)
(60468.2 66950.9 -66689.4)
(-63825.8 9426.44 -67904.3)
(-16223.3 5939.31 -68919.3)
(14891.9 5887.34 -67699.7)
(57608.7 9202.68 -64343.9)
(-65006.1 2169.78 -69185.6)
(-16729.9 1298.48 -70473)
(15342.8 1280.9 -69201.6)
(58656.1 2094.96 -65493.7)
(-66873.2 2168.32 -71078.2)
(-17112.2 1252.61 -72477.6)
(15688.4 1241.88 -71171.1)
(60389.8 2115.31 -67292.1)
(-69536.6 3665.65 -73747.3)
(-17656.3 2304.93 -75394)
(16205.5 2296.56 -74063.2)
(62932 3625.81 -69894.3)
(-73412.1 8529.59 -77651.8)
(-18481.3 6645.57 -79925.2)
(17009.3 6621.68 -78571.7)
(66703.3 8462.74 -73736.1)
(-77735.2 28185.9 -82141.8)
(-19564.2 27137.8 -85818)
(18022.7 26940.7 -84437.7)
(70919.1 27654.5 -78156)
(-73282.5 78285.3 -78203)
(-19726.5 83814.4 -83749.6)
(17526 82476.2 -82423.5)
(66146.1 74447.2 -74407.9)
(-62798.4 36457.3 -17811.1)
(-11760.6 9942.19 -15322.6)
(11172.6 9856.33 -15173.1)
(57179 35272.7 -17375)
(-63143.4 5454.56 -22244.6)
(-14840.4 1869.77 -19608.6)
(14158 1859.74 -19420.8)
(57325.8 5345.59 -21700.8)
(-64616.8 1243.53 -22928.3)
(-15355.5 355.144 -20281.7)
(14648.4 350.374 -20084.2)
(58672.3 1200.35 -22359.5)
(-66603 1243.98 -23373.7)
(-15733.5 304.335 -20714.9)
(15003.2 299.764 -20513)
(60518.6 1202.64 -22795.7)
(-69529.6 2287.79 -23996.5)
(-16299.7 795.681 -21355.1)
(15546.7 790.423 -21151.3)
(63302.1 2247.72 -23418.8)
(-74070.6 6521.63 -24962.2)
(-17230.9 4201.73 -22438.5)
(16455.2 4179.1 -22234.1)
(67700.4 6446.08 -24392.9)
(-79911.6 26467.9 -26441.7)
(-18642.2 24331.6 -24320.3)
(17791.1 24124.7 -24116.8)
(73391 25894.7 -25888.5)
(-77795 82269.1 -28153.3)
(-19574.1 85920.9 -27121.4)
(18018.3 84521.1 -26928.9)
(70926.6 78218.8 -27645.6)
(-56253 28947.9 -4281.84)
(-10552.8 5048.32 -2353.07)
(10027.1 4995.55 -2336.75)
(50817.7 27875.1 -4216.16)
(-57068.9 4309.23 -5570.45)
(-13399.5 980.191 -3249.8)
(12799.7 976.247 -3227.57)
(51454.1 4218.12 -5484.91)
(-58500.7 1040.74 -5745.09)
(-13885.8 192.128 -3377.73)
(13265 188.702 -3354.33)
(52758.7 1000.01 -5656.46)
(-60428.4 1100.08 -5819.26)
(-14251.5 179.211 -3434.08)
(13607.6 174.841 -3410.4)
(54540.9 1056.04 -5731.26)
(-63330.6 2077.14 -5910.75)
(-14811.1 581.323 -3515.33)
(14141.9 575.455 -3491.88)
(57282.9 2028.62 -5827.01)
(-67938.6 6084.41 -6064.07)
(-15753.2 3680.37 -3677.73)
(15054.9 3656.17 -3655.12)
(61712.1 5993.07 -5989.84)
(-74147.2 24994.8 -6500.05)
(-17239.3 22455 -4198.4)
(16454.6 22245.9 -4177.55)
(67714.8 24401.9 -6442.47)
(-73550.4 77848.6 -8490.91)
(-18502.1 80086.4 -6628.5)
(17001.8 78701.8 -6609.52)
(66724.4 73834.7 -8451.44)
(-51875.9 26605 -1533.58)
(-9815.54 4339.33 -370.069)
(9309.49 4292 -366.607)
(46578.5 25571.7 -1504.45)
(-52687.8 3991.31 -1938.82)
(-12497.5 845.108 -516.231)
(11922.8 842.162 -511.458)
(47220.1 3905.3 -1902.01)
(-54065.6 994.713 -1987.08)
(-12964.7 170.863 -535.428)
(12369.7 167.546 -530.474)
(48471.7 954.002 -1949.41)
(-55955.3 1078.32 -2000.53)
(-13324.7 166.737 -541.139)
(12706 162.214 -536.223)
(50212.7 1032.09 -1963.7)
(-58833.3 2042.97 -2013.5)
(-13880.8 552.033 -549.248)
(13235 545.706 -544.54)
(52917.9 1989.14 -1979.37)
(-63433.4 5932.33 -2046.8)
(-14821.9 3518.66 -578.346)
(14143.1 3493.43 -574.139)
(57314.7 5830.62 -2018.37)
(-69713.5 24041 -2253.16)
(-16319.7 21380.9 -790.311)
(15547 21170.3 -787.207)
(63347.6 23433.1 -2235.54)
(-69786.2 74047.6 -3601.22)
(-17692.7 75644.8 -2274.32)
(16195.3 74267.5 -2272.69)
(62982.6 70050.6 -3597.92)
(-49237.6 25475.5 -791.101)
(-9385.86 4162.02 -110.787)
(8892.74 4117.49 -108.847)
(44034.4 24468.7 -771.889)
(-50021.9 3855.74 -980.12)
(-11972.1 814.832 -149.809)
(11413.9 812.38 -147.134)
(44654 3773.16 -955.76)
(-51371.2 979.029 -999.67)
(-12429.2 167.22 -154.117)
(11851.1 163.937 -151.35)
(45878.3 938.324 -974.733)
(-53243.8 1073.67 -1002.95)
(-12787.2 165.392 -154.686)
(12185 160.775 -151.951)
(47598.8 1026.09 -978.586)
(-56109.5 2030.87 -1005.99)
(-13342.1 544.116 -155.739)
(12711.8 537.539 -153.122)
(50283.4 1973.95 -983.274)
(-60692.1 5844.75 -1022.86)
(-14280.5 3439.31 -166.641)
(13614.8 3413.5 -164.298)
(54647 5736.9 -1003.46)
(-66959.5 23440.4 -1150.75)
(-15773.4 20759 -280.835)
(15009.3 20547.3 -279.128)
(60641.7 22822.3 -1137.83)
(-67298.8 71550.1 -2001.69)
(-17173.6 72885.5 -1159.1)
(15678.2 71510.1 -1158.51)
(60512.8 67555.6 -1998.78)
(-47653.9 24833.8 -449.185)
(-9133.29 4078.73 -55.0619)
(8648.39 4036.02 -53.8433)
(42508.1 23844 -437.393)
(-48422.8 3782.74 -552.399)
(-11664.5 801.778 -73.1931)
(11116.9 799.659 -71.4969)
(43115.9 3702.46 -537.3)
(-49758.3 971.883 -562.099)
(-12116.4 165.986 -74.9565)
(11549.1 162.729 -73.1975)
(44326.6 931.177 -546.622)
(-51623.1 1072 -563.106)
(-12473.7 165.114 -75.0064)
(11882.1 160.442 -73.2652)
(46036.2 1023.55 -547.993)
(-54481.2 2023.06 -564.66)
(-13027.9 540.078 -75.3535)
(12407.5 533.358 -73.6803)
(48707.4 1964.27 -550.551)
(-59045.4 5787.57 -576.194)
(-13963.4 3393.56 -81.3518)
(13306.3 3367.42 -79.8329)
(53042.9 5676.06 -564.022)
(-65279.7 23062.2 -657.163)
(-15448.1 20388.4 -147.122)
(14690 20176.1 -145.96)
(58989.5 22437.8 -648.777)
(-65723.3 69961.9 -1179.19)
(-16849.5 71188.3 -664.986)
(15355.6 69813.4 -664.527)
(58945.3 65966.5 -1177.07)
(-46745.9 24473.9 -235.049)
(-8990.52 4033.76 -28.0321)
(8510.41 3992.15 -27.3616)
(41632.5 23494 -228.738)
(-47507 3742.82 -288.103)
(-11491.2 794.937 -37.0656)
(10949.8 793.026 -36.1251)
(42234.5 3663.93 -279.961)
(-48835.8 968.322 -292.832)
(-11940.3 165.407 -37.8981)
(11379.4 162.169 -36.9198)
(43438.4 927.631 -284.468)
(-50696.6 1071.1 -293.196)
(-12297.4 164.995 -37.8905)
(11712 160.292 -36.921)
(45142.5 1022.16 -285.026)
(-53549.5 2017.78 -294.176)
(-12851.1 537.771 -38.0727)
(12236.6 530.971 -37.1392)
(47804.7 1957.92 -286.543)
(-58099.2 5752.25 -301.173)
(-13784.2 3367.54 -41.2716)
(13132.2 3341.22 -40.4183)
(52120 5638.67 -294.567)
(-64303.8 22837.4 -346.431)
(-15262.2 20175.3 -76.0188)
(14507.7 19962.6 -75.3482)
(58028.3 22209.3 -341.827)
(-64787.1 69013.1 -631.28)
(-16659 70193.2 -352.425)
(15166.1 68818.3 -352.135)
(58012.5 65016.2 -630.088)
(-46329.6 24310.7 -73.3843)
(-8925.6 4013.63 -8.67808)
(8447.68 3972.53 -8.46445)
(41230.7 23335.3 -71.4041)
(-47087.3 3724.96 -89.8167)
(-11412.5 791.912 -11.4528)
(10874 790.101 -11.1518)
(41830.2 3646.73 -87.25)
(-48413.2 966.79 -91.2485)
(-11860.5 165.161 -11.7032)
(11302.5 161.933 -11.3896)
(43031.3 926.112 -88.608)
(-50272.3 1070.66 -91.3485)
(-12217.4 164.94 -11.6981)
(11634.9 160.223 -11.3871)
(44732.9 1021.48 -88.769)
(-53122.5 2015.08 -91.6968)
(-12770.9 536.697 -11.7586)
(12159 529.861 -11.4591)
(47390.6 1954.73 -89.2877)
(-57664.2 5735.31 -94.0493)
(-13702.6 3355.62 -12.7716)
(13053 3329.22 -12.4972)
(51695.3 5620.78 -91.9651)
(-63852.4 22732.1 -108.633)
(-15177 20077.2 -23.6802)
(14424.2 19864.4 -23.4625)
(57583.1 22102.2 -107.181)
(-64348.8 68567 -199.371)
(-16570.4 69729.8 -110.872)
(15078 68354.8 -110.774)
(57575.1 64569.2 -199.007)
)
;

boundaryField
{
    interface
    {
        type            calculated;
        value           nonuniform List<vector> 
192
(
(-106740 69003.6 -70164.5)
(-95635.9 9426.44 -67904.3)
(-97005.6 2169.78 -69185.6)
(-99988 2168.32 -71078.2)
(-104235 3665.65 -73747.3)
(-110344 8529.59 -77651.8)
(-116864 28185.9 -82141.8)
(-107989 78285.3 -78203)
(-102154 36457.3 -17811.1)
(-96699.6 5454.56 -22244.6)
(-98621 1243.53 -22928.3)
(-101842 1243.98 -23373.7)
(-106567 2287.79 -23996.5)
(-113793 6521.63 -24962.2)
(-122692 26467.9 -26441.7)
(-116969 82269.1 -28153.3)
(-91450.6 28947.9 -4281.84)
(-87394.3 4309.23 -5570.45)
(-89287.8 1040.74 -5745.09)
(-92416 1100.08 -5819.26)
(-97106 2077.14 -5910.75)
(-104445 6084.41 -6064.07)
(-113931 24994.8 -6500.05)
(-110589 77848.6 -8490.91)
(-84166.3 26605 -1533.58)
(-80429.6 3991.31 -1938.82)
(-82253.4 994.713 -1987.08)
(-85316.9 1078.32 -2000.53)
(-89965.5 2042.97 -2013.5)
(-97291.2 5932.33 -2046.8)
(-106899 24041 -2253.16)
(-104676 74047.6 -3601.22)
(-79746.8 25475.5 -791.101)
(-76145.4 3855.74 -980.12)
(-77932.2 979.029 -999.67)
(-80965.5 1073.67 -1002.95)
(-85592.2 2030.87 -1005.99)
(-92888.6 5844.75 -1022.86)
(-102481 23440.4 -1150.75)
(-100739 71550.1 -2001.69)
(-77083.1 24833.8 -449.185)
(-73560.3 3782.74 -552.399)
(-75329.9 971.883 -562.099)
(-78349 1072 -563.106)
(-82961.9 2023.06 -564.66)
(-90227.8 5787.57 -576.194)
(-99770.8 23062.2 -657.163)
(-98235.8 69961.9 -1179.19)
(-75551.7 24473.9 -235.049)
(-72074 3742.82 -288.103)
(-73835.6 968.322 -292.832)
(-76847.4 1071.1 -293.196)
(-81450.9 2017.78 -294.176)
(-88692.5 5752.25 -301.173)
(-98190 22837.4 -346.431)
(-96744.2 69013.1 -631.28)
(-74848.4 24310.7 -73.3843)
(-71391.3 3724.96 -89.8167)
(-73149.5 966.79 -91.2485)
(-76158 1070.66 -91.3485)
(-80756.7 2015.08 -91.6968)
(-87985.1 5735.31 -94.0493)
(-97457.1 22732.1 -108.633)
(-96044.7 68567 -199.371)
(-66386.1 69003.6 -111211)
(-63825.8 9426.44 -99834.5)
(-65006.1 2169.78 -101309)
(-66873.2 2168.32 -104330)
(-69536.6 3665.65 -108584)
(-73412.1 8529.59 -114721)
(-77735.2 28185.9 -121357)
(-73282.5 78285.3 -112388)
(-13190.8 39979.5 -110488)
(-16223.3 5939.31 -104293)
(-16729.9 1298.48 -106278)
(-17112.2 1252.61 -109523)
(-17656.3 2304.93 -114223)
(-18481.3 6645.57 -121400)
(-19564.2 27137.8 -130184)
(-19726.5 83814.4 -123436)
(12079.5 39589.5 -108427)
(14891.9 5887.34 -102191)
(15342.8 1280.9 -104090)
(15688.4 1241.88 -107273)
(16205.5 2296.56 -111929)
(17009.3 6621.68 -119062)
(18022.7 26940.7 -127793)
(17526 82476.2 -121133)
(60468.2 66950.9 -105036)
(57608.7 9202.68 -93674.4)
(58656.1 2094.96 -94930.3)
(60389.8 2115.31 -97781.6)
(62932 3625.81 -101906)
(66703.3 8462.74 -107913)
(70919.1 27654.5 -114396)
(66146.1 74447.2 -105737)
(96428.3 66950.9 -66689.4)
(85002.7 9202.68 -64343.9)
(86173.5 2094.96 -65493.7)
(88936.9 2115.31 -67292.1)
(92978.3 3625.81 -69894.3)
(98905.3 8462.74 -73736.1)
(105270 27654.5 -78156)
(96363.3 74447.2 -74407.9)
(91934.6 35272.7 -17375)
(86242.3 5345.59 -21700.8)
(87949.4 1200.35 -22359.5)
(90927.9 1202.64 -22795.7)
(95403.2 2247.72 -23418.8)
(102377 6446.08 -24392.9)
(111047 25894.7 -25888.5)
(105289 78218.8 -27645.6)
(81530.9 27875.1 -4216.16)
(77253.6 4218.12 -5484.91)
(78929.2 1000.01 -5656.46)
(81804.4 1056.04 -5731.26)
(86215.2 2028.62 -5827.01)
(93240.5 5993.07 -5989.84)
(102405 24401.9 -6442.47)
(98953.2 73834.7 -8451.44)
(74492.4 25571.7 -1504.45)
(70545.6 3905.3 -1902.01)
(72152.5 954.002 -1949.41)
(74957.8 1032.09 -1963.7)
(79305.2 1989.14 -1979.37)
(86274.9 5830.62 -2018.37)
(95490.1 23433.1 -2235.54)
(93085.2 70050.6 -3597.92)
(70240.1 24468.7 -771.889)
(66434.5 3773.16 -955.76)
(68006.2 938.324 -974.733)
(70775.3 1026.09 -978.586)
(75085.9 1973.95 -983.274)
(81998.8 5736.9 -1003.46)
(91155.8 22822.3 -1137.83)
(89180.4 67555.6 -1998.78)
(67677.6 23844 -437.393)
(63954.4 3702.46 -537.3)
(65509.1 931.177 -546.622)
(68258.1 1023.55 -547.993)
(72544.4 1964.27 -550.551)
(79409.7 5676.06 -564.022)
(88491.3 22437.8 -648.777)
(86691.1 65966.5 -1177.07)
(66203.3 23494 -228.738)
(62527 3663.93 -279.961)
(64073.4 927.631 -284.468)
(66812.1 1022.16 -285.026)
(71082.2 1957.92 -286.543)
(77913.2 5638.67 -294.567)
(86934.6 22209.3 -341.827)
(85204.8 65016.2 -630.088)
(65525.5 23335.3 -71.4041)
(61870.7 3646.73 -87.25)
(63413.6 926.112 -88.608)
(66147.6 1021.48 -88.769)
(70409.6 1954.73 -89.2877)
(77222.7 5620.78 -91.9651)
(86211.6 22102.2 -107.181)
(84506.5 64569.2 -199.007)
(-73282.5 112518 -78203)
(-77795 121577 -28153.3)
(-73550.4 115068 -8490.91)
(-69786.2 109116 -3601.22)
(-67298.8 105167 -2001.69)
(-65723.3 102647 -1179.19)
(-64787.1 101137 -631.28)
(-64348.8 100427 -199.371)
(-19726.5 123546 -83749.6)
(-19574.1 130370 -27121.4)
(-18502.1 121693 -6628.5)
(-17692.7 114678 -2274.32)
(-17173.6 110259 -1159.1)
(-16849.5 107522 -664.986)
(-16659 105910 -352.425)
(-16570.4 105158 -110.872)
(17526 121225 -82423.5)
(18018.3 127945 -26928.9)
(17001.8 119300 -6609.52)
(16195.3 112302 -2272.69)
(15678.2 107888 -1158.51)
(15355.6 105153 -664.527)
(15166.1 103541 -352.135)
(15078 102789 -110.774)
(66146.1 105805 -74407.9)
(70926.6 114512 -27645.6)
(66724.4 108095 -8451.44)
(62982.6 102193 -3597.92)
(60512.8 98261.3 -1998.78)
(58945.3 95746.8 -1177.07)
(58012.5 94239.1 -630.088)
(57575.1 93528.7 -199.007)
)
;
    }
    symmetry
    {
        type            symmetry;
    }
    bottom
    {
        type            calculated;
        value           nonuniform List<vector> 
32
(
(-66386.1 121749 -70164.5)
(-62798.4 63512 -17811.1)
(-56253 50504.6 -4281.84)
(-51875.9 46384.6 -1533.58)
(-49237.6 44370.3 -791.101)
(-47653.9 43220.2 -449.185)
(-46745.9 42573.5 -235.049)
(-46329.6 42280 -73.3843)
(-13190.8 69684.1 -68508.4)
(-11760.6 16626 -15322.6)
(-10552.8 8393.66 -2353.07)
(-9815.54 7213.7 -370.069)
(-9385.86 6913.38 -110.787)
(-9133.29 6770.55 -55.0619)
(-8990.52 6693.13 -28.0321)
(-8925.6 6658.42 -8.67808)
(12079.5 68985.8 -67342.4)
(11172.6 16469.4 -15173.1)
(10027.1 8293.25 -2336.75)
(9309.49 7122.43 -366.607)
(8892.74 6826.82 -108.847)
(8648.39 6687.04 -53.8433)
(8510.41 6611.45 -27.3616)
(8447.68 6577.59 -8.46445)
(60468.2 118002 -66689.4)
(57179 61316.3 -17375)
(50817.7 48502.1 -4216.16)
(46578.5 44451.7 -1504.45)
(44034.4 42484.3 -771.889)
(42508.1 41364.1 -437.393)
(41632.5 40734.8 -228.738)
(41230.7 40449.1 -71.4041)
)
;
    }
}


// ************************************************************************* //
