/*--------------------------------*- C++ -*----------------------------------*\
| =========                 |                                                 |
| \\      /  F ield         | OpenFOAM: The Open Source CFD Toolbox           |
|  \\    /   O peration     | Version:  v1912                                 |
|   \\  /    A nd           | Website:  www.openfoam.com                      |
|    \\/     M anipulation  |                                                 |
\*---------------------------------------------------------------------------*/
FoamFile
{
    version     2.0;
    format      ascii;
    class       volScalarField;
    location    "0.69/solid";
    object      sigmaEq;
}
// * * * * * * * * * * * * * * * * * * * * * * * * * * * * * * * * * * * * * //

dimensions      [1 -1 -2 0 0 0 0];


internalField   nonuniform List<scalar> 
256
(
647946
455473
448731
618069
374948
316200
310995
352144
371475
296334
291284
348600
389310
295893
290885
366102
402721
301548
296542
379227
400717
304833
299828
377052
323412
276488
272267
301624
58963
312681
310111
61554.8
385949
94657.5
91789.9
355329
282340
93675.2
91166.2
255066
274831
70826.4
68896.1
247673
277430
48004.4
46804.8
249870
284688
39394.7
38944
256572
293725
44075.1
43653.9
265072
275004
38869.6
39775.6
246843
323489
277041
272801
301599
321827
56557.6
55485.3
292167
270240
55009.4
52956.4
243169
266569
38865.2
37046.2
239142
269152
24856.9
24239.5
241121
277684
24928.7
25449.9
248941
291842
29604.3
29501.8
262386
293314
43058.7
42777.5
264498
401256
305974
300956
377480
287427
52363.4
52045.7
259118
251305
49326.8
48425.6
225654
249052
37053.2
36534.2
222697
251783
29776.7
30480.5
224578
261010
29584
30962.9
232915
276804
27933.9
28625.7
247797
283556
35967
35979.7
255057
405511
303926
298918
381885
267656
45222.9
45001.5
240132
235798
44505.1
43969.6
210947
234953
35240.7
35081.2
209280
238616
29083.7
29944.2
211953
248995
27731.5
29105
221352
265973
23867.4
24425.2
237322
274997
35050.3
34864
246803
398448
299057
294070
375032
256457
38868.2
38564.4
229350
225732
39093.1
38531
201224
225915
30529.4
30284.5
200542
230631
23421
24184.9
204214
242096
21033
22304.2
214671
260012
17575.6
17599.2
231556
270526
37873.7
37359
242553
392885
295594
290606
369594
250332
34042.2
33616
223435
219903
34340
33640.3
195525
220692
25177.1
24720.3
195431
226172
16312.3
17004.9
199855
238382
13218.7
14574.4
211053
256936
12062.3
11304.3
228582
268451
40736.7
40030.9
240626
389833
293506
288515
366613
247599
31309
30793.5
220788
217240
31484.5
30673.9
192905
218308
21539
20896.4
193083
224171
10547.2
11299.9
197889
236744
6341.03
8348.37
209453
255612
8640.05
6961.5
227303
267636
42262.4
41481.1
239884
388565
292532
287540
365379
)
;

boundaryField
{
    interface
    {
        type            calculated;
        value           nonuniform List<scalar> 
192
(
824384
526255
526265
551419
572502
578752
512031
282173
619352
483906
479686
492752
511314
531298
521125
512296
541351
465503
466305
478901
498667
524104
531557
579870
491180
434312
437858
450772
471280
498758
512123
576572
460908
409630
414885
428713
450246
479012
495026
563427
443324
393821
400055
414792
437247
466887
484347
553616
433620
384774
391529
406897
429972
460147
478422
547947
429289
380687
387672
403350
426726
457150
475799
545442
836919
539184
539603
565473
587077
593330
526891
301205
706533
531921
515682
525725
542365
556811
537866
516782
695675
522760
506406
516282
532790
547114
528623
510370
801513
512454
512414
537635
558826
564899
500712
295113
777236
484305
483679
508042
528383
533928
467604
245163
567624
435752
431041
443099
460546
479447
469266
467639
491110
418095
418094
429536
448007
472064
479308
534588
442737
388612
391109
402698
421739
447592
460453
531708
413632
365035
369147
381538
401500
428499
443842
518905
396738
349831
354882
368123
388950
416752
433473
509297
387418
341099
346650
360498
381917
410220
427735
503749
383258
337147
342920
357070
378777
407316
425200
501300
301883
527466
594674
591484
578176
568076
562183
559569
517248
538908
558952
546834
533497
524007
518168
515414
510769
529569
549120
537071
523780
514304
508470
505718
295453
501007
565913
562794
549647
539639
533796
531203
)
;
    }
    symmetry
    {
        type            symmetry;
    }
    bottom
    {
        type            calculated;
        value           nonuniform List<scalar> 
32
(
925859
498419
390225
346165
323582
311115
304344
301333
588633
120066
56637.6
52778.3
46826.6
41165.7
36843.9
34423
580581
116071
53744.6
50529.2
44442
38479.1
33822.7
31162.1
889086
464425
357310
314642
293003
281104
274647
271775
)
;
    }
}


// ************************************************************************* //
