/*--------------------------------*- C++ -*----------------------------------*\
| =========                 |                                                 |
| \\      /  F ield         | OpenFOAM: The Open Source CFD Toolbox           |
|  \\    /   O peration     | Version:  v1912                                 |
|   \\  /    A nd           | Website:  www.openfoam.com                      |
|    \\/     M anipulation  |                                                 |
\*---------------------------------------------------------------------------*/
FoamFile
{
    version     2.0;
    format      ascii;
    class       volScalarField;
    location    "0.69/solid";
    object      sigmaHyd;
}
// * * * * * * * * * * * * * * * * * * * * * * * * * * * * * * * * * * * * * //

dimensions      [1 -1 -2 0 0 0 0];


internalField   nonuniform List<scalar> 
256
(
-716389
-379488
-373891
-681833
-1.03722e+06
-625897
-617844
-993868
-1.07186e+06
-665217
-656727
-1.02712e+06
-1.08653e+06
-680120
-671408
-1.04082e+06
-1.12119e+06
-705542
-696669
-1.07459e+06
-1.20128e+06
-767083
-758042
-1.15387e+06
-1.41338e+06
-950710
-940804
-1.36359e+06
-1.99533e+06
-1.49818e+06
-1.48219e+06
-1.92885e+06
-367440
-110612
-110099
-347312
-576263
-247169
-244946
-549561
-606095
-284712
-282172
-578429
-618404
-300043
-297374
-590010
-642095
-316683
-313934
-612963
-700308
-355819
-352978
-670398
-877513
-495026
-491383
-845163
-1.41405e+06
-950872
-940841
-1.36375e+06
-287827
-65637.9
-65516.4
-269143
-432095
-144687
-143235
-407944
-453866
-173061
-171342
-428890
-464936
-186643
-184799
-439228
-485749
-200655
-198722
-459222
-537399
-232982
-230934
-509896
-700548
-355436
-352537
-670260
-1.20213e+06
-766765
-757489
-1.15368e+06
-267417
-62114.6
-61956.5
-248996
-389666
-123990
-122596
-366191
-406974
-146629
-144994
-382759
-417038
-158302
-156546
-392094
-436818
-171029
-169177
-410996
-486063
-200882
-198895
-459130
-642118
-315953
-313083
-612162
-1.121e+06
-703809
-694565
-1.07269e+06
-258830
-62492.3
-62298.5
-240549
-373546
-118804
-117416
-350443
-388875
-138490
-136879
-365093
-398140
-148678
-146952
-373637
-417191
-160386
-158563
-391781
-465056
-188869
-186902
-438459
-616957
-300198
-297328
-587196
-1.08224e+06
-675887
-666630
-1.03398e+06
-253669
-62797
-62579.5
-235454
-365336
-116883
-115499
-342442
-379819
-135123
-133528
-356286
-388538
-144373
-142669
-364291
-407031
-155363
-153562
-381862
-454003
-183026
-181075
-427604
-603419
-292330
-289467
-573777
-1.0604e+06
-660993
-651732
-1.01215e+06
-250431
-62884.1
-62650.7
-232241
-360671
-116006
-114623
-337885
-374781
-133564
-131978
-351379
-383169
-142296
-140605
-359060
-401292
-152853
-151065
-376253
-447725
-180055
-178116
-421435
-595727
-288260
-285403
-566150
-1.0478e+06
-652788
-643524
-999563
-248836
-62879.8
-62638.2
-230654
-358466
-115633
-114250
-335725
-372426
-132918
-131336
-349078
-380659
-141424
-139737
-356608
-398600
-151781
-149999
-373617
-444782
-178776
-176843
-418538
-592138
-286488
-283634
-562587
-1.04191e+06
-649055
-639790
-993668
)
;

boundaryField
{
    interface
    {
        type            zeroGradient;
    }
    symmetry
    {
        type            symmetry;
    }
    bottom
    {
        type            zeroGradient;
    }
}


// ************************************************************************* //
