/*--------------------------------*- C++ -*----------------------------------*\
| =========                 |                                                 |
| \\      /  F ield         | OpenFOAM: The Open Source CFD Toolbox           |
|  \\    /   O peration     | Version:  v1912                                 |
|   \\  /    A nd           | Website:  www.openfoam.com                      |
|    \\/     M anipulation  |                                                 |
\*---------------------------------------------------------------------------*/
FoamFile
{
    version     2.0;
    format      ascii;
    class       volScalarField;
    location    "0.69/solid";
    object      T;
}
// * * * * * * * * * * * * * * * * * * * * * * * * * * * * * * * * * * * * * //

dimensions      [0 0 0 1 0 0 0];


internalField   nonuniform List<scalar> 
256
(
291.478
292.129
292.138
291.525
291.072
291.872
291.883
291.127
291.007
291.832
291.843
291.065
290.963
291.807
291.819
291.023
290.898
291.769
291.781
290.959
290.78
291.692
291.704
290.841
290.472
291.437
291.45
290.536
289.371
290.335
290.357
289.459
292.206
292.792
292.794
292.234
291.971
292.711
292.713
292.003
291.933
292.699
292.701
291.966
291.909
292.693
292.696
291.943
291.871
292.683
292.686
291.906
291.794
292.653
292.656
291.83
291.545
292.473
292.477
291.584
290.471
291.437
291.45
290.536
292.369
292.895
292.896
292.394
292.184
292.853
292.854
292.213
292.153
292.846
292.848
292.183
292.132
292.843
292.844
292.163
292.098
292.837
292.839
292.13
292.028
292.814
292.816
292.061
291.794
292.653
292.656
291.83
290.778
291.691
291.703
290.841
292.42
292.91
292.911
292.444
292.25
292.873
292.874
292.277
292.221
292.868
292.869
292.249
292.2
292.865
292.866
292.229
292.167
292.859
292.861
292.197
292.098
292.837
292.839
292.13
291.87
292.683
292.686
291.906
290.896
291.768
291.78
290.958
292.445
292.914
292.915
292.469
292.281
292.878
292.879
292.308
292.253
292.873
292.874
292.28
292.232
292.87
292.871
292.261
292.199
292.865
292.866
292.229
292.13
292.843
292.844
292.162
291.907
292.693
292.695
291.942
290.958
291.805
291.817
291.021
292.46
292.915
292.916
292.483
292.299
292.881
292.882
292.325
292.271
292.875
292.876
292.298
292.25
292.872
292.874
292.278
292.217
292.867
292.868
292.247
292.149
292.845
292.847
292.18
291.928
292.697
292.7
291.963
290.996
291.826
291.838
291.058
292.468
292.916
292.917
292.491
292.308
292.882
292.883
292.334
292.281
292.877
292.878
292.308
292.26
292.874
292.875
292.288
292.227
292.868
292.87
292.257
292.159
292.847
292.848
292.19
291.94
292.7
292.703
291.975
291.017
291.838
291.85
291.08
292.472
292.917
292.918
292.494
292.313
292.883
292.884
292.339
292.285
292.877
292.878
292.312
292.265
292.874
292.875
292.293
292.232
292.869
292.87
292.261
292.164
292.847
292.849
292.195
291.945
292.701
292.704
291.98
291.027
291.844
291.856
291.09
)
;

boundaryField
{
    interface
    {
        type            fixedValue;
        value           nonuniform List<scalar> 
192
(
290.143
289.872
289.789
289.708
289.589
289.394
289.003
288.013
290.928
290.759
290.696
290.631
290.534
290.366
290.004
289.001
291.225
291.089
291.034
290.973
290.881
290.718
290.364
289.389
291.368
291.242
291.19
291.13
291.039
290.878
290.529
289.581
291.448
291.327
291.276
291.217
291.126
290.966
290.621
289.693
291.496
291.377
291.327
291.268
291.177
291.018
290.676
289.762
291.523
291.406
291.355
291.297
291.206
291.047
290.707
289.802
291.536
291.419
291.369
291.31
291.219
291.061
290.722
289.821
290.088
289.821
289.736
289.654
289.536
289.34
288.948
287.959
290.748
290.566
290.5
290.434
290.337
290.17
289.803
288.785
290.783
290.603
290.539
290.475
290.378
290.211
289.847
288.837
290.214
289.955
289.876
289.798
289.682
289.489
289.101
288.133
290.322
290.064
289.985
289.908
289.794
289.602
289.215
288.25
291.086
290.924
290.865
290.804
290.711
290.548
290.191
289.215
291.376
291.247
291.196
291.139
291.051
290.894
290.547
289.6
291.515
291.395
291.347
291.292
291.205
291.05
290.71
289.792
291.593
291.478
291.43
291.376
291.29
291.136
290.8
289.903
291.639
291.526
291.479
291.425
291.339
291.187
290.854
289.972
291.665
291.553
291.507
291.453
291.368
291.215
290.886
290.012
291.677
291.566
291.519
291.466
291.38
291.229
290.9
290.031
287.958
288.944
289.334
289.526
289.639
289.708
289.748
289.767
288.784
289.8
290.165
290.33
290.422
290.478
290.51
290.525
288.836
289.845
290.208
290.373
290.465
290.52
290.553
290.568
288.132
289.099
289.486
289.678
289.79
289.859
289.899
289.918
)
;
    }
    symmetry
    {
        type            symmetry;
    }
    bottom
    {
        type            fixedValue;
        value           uniform 293;
    }
}


// ************************************************************************* //
