/*--------------------------------*- C++ -*----------------------------------*\
| =========                 |                                                 |
| \\      /  F ield         | OpenFOAM: The Open Source CFD Toolbox           |
|  \\    /   O peration     | Version:  v1912                                 |
|   \\  /    A nd           | Website:  www.openfoam.com                      |
|    \\/     M anipulation  |                                                 |
\*---------------------------------------------------------------------------*/
FoamFile
{
    version     2.0;
    format      ascii;
    class       volVectorField;
    location    "0.1/fluid";
    object      cellMotionU;
}
// * * * * * * * * * * * * * * * * * * * * * * * * * * * * * * * * * * * * * //

dimensions      [0 1 -1 0 0 0 0];


internalField   nonuniform List<vector> 
14592
(
(4.63193e-10 -2.53583e-09 2.25644e-09)
(1.24279e-09 -7.04996e-09 6.30704e-09)
(1.79047e-09 -1.11057e-08 1.00379e-08)
(2.22759e-09 -1.49144e-08 1.37128e-08)
(2.26587e-09 -1.86425e-08 1.73671e-08)
(2.05414e-09 -2.25858e-08 2.13818e-08)
(1.3938e-09 -2.64388e-08 2.56075e-08)
(2.11373e-10 -3.00556e-08 3.00815e-08)
(-1.57666e-09 -3.33869e-08 3.4934e-08)
(-4.15293e-09 -3.63097e-08 4.02337e-08)
(-7.85945e-09 -3.86133e-08 4.60748e-08)
(-1.29901e-08 -3.96169e-08 5.27555e-08)
(-1.9456e-08 -3.7037e-08 6.03928e-08)
(-2.86392e-08 -2.61727e-08 7.08625e-08)
(-4.2735e-08 6.78034e-09 8.80733e-08)
(-5.61941e-08 8.2368e-08 1.13568e-07)
(1.42787e-09 -7.61376e-09 6.75972e-09)
(3.78442e-09 -2.11253e-08 1.88315e-08)
(5.73023e-09 -3.33498e-08 3.0123e-08)
(6.82252e-09 -4.48376e-08 4.09748e-08)
(7.26439e-09 -5.64056e-08 5.22759e-08)
(6.64176e-09 -6.79113e-08 6.40263e-08)
(4.7625e-09 -7.924e-08 7.64441e-08)
(1.41961e-09 -9.01522e-08 8.97622e-08)
(-3.60775e-09 -1.00329e-07 1.04185e-07)
(-1.07595e-08 -1.09493e-07 1.19868e-07)
(-2.10843e-08 -1.17169e-07 1.36971e-07)
(-3.36284e-08 -1.21213e-07 1.55545e-07)
(-4.77894e-08 -1.18192e-07 1.75891e-07)
(-6.22754e-08 -1.02303e-07 1.99311e-07)
(-7.01331e-08 -6.40007e-08 2.27517e-07)
(-5.29138e-08 -5.04207e-09 2.5691e-07)
(2.46601e-09 -1.25525e-08 1.11586e-08)
(6.74809e-09 -3.48404e-08 3.11783e-08)
(9.98599e-09 -5.50988e-08 4.97267e-08)
(1.22664e-08 -7.43919e-08 6.79557e-08)
(1.319e-08 -9.31981e-08 8.63592e-08)
(1.25142e-08 -1.12027e-07 1.05557e-07)
(9.89988e-09 -1.30699e-07 1.2588e-07)
(5.16614e-09 -1.48896e-07 1.47739e-07)
(-2.08258e-09 -1.66352e-07 1.71429e-07)
(-1.25169e-08 -1.82704e-07 1.97153e-07)
(-2.61799e-08 -1.96993e-07 2.25148e-07)
(-4.24448e-08 -2.07006e-07 2.54757e-07)
(-5.86372e-08 -2.0955e-07 2.86495e-07)
(-7.1359e-08 -2.01019e-07 3.21021e-07)
(-6.9294e-08 -1.78405e-07 3.59724e-07)
(-3.51834e-08 -1.49746e-07 3.99581e-07)
(3.68918e-09 -1.71601e-08 1.53858e-08)
(9.98199e-09 -4.76475e-08 4.28905e-08)
(1.50507e-08 -7.56184e-08 6.86215e-08)
(1.86302e-08 -1.01984e-07 9.36192e-08)
(2.05097e-08 -1.27842e-07 1.18929e-07)
(2.02873e-08 -1.53454e-07 1.45046e-07)
(1.77425e-08 -1.79004e-07 1.72688e-07)
(1.25859e-08 -2.04408e-07 2.02494e-07)
(4.73233e-09 -2.29281e-07 2.34943e-07)
(-6.6619e-09 -2.53342e-07 2.70122e-07)
(-2.08589e-08 -2.75463e-07 3.07962e-07)
(-3.68271e-08 -2.93683e-07 3.48084e-07)
(-5.14432e-08 -3.05469e-07 3.90551e-07)
(-6.15757e-08 -3.08176e-07 4.34961e-07)
(-5.74631e-08 -2.99346e-07 4.80474e-07)
(-2.64485e-08 -2.82426e-07 5.20915e-07)
(5.02082e-09 -2.11973e-08 1.92707e-08)
(1.37314e-08 -5.89769e-08 5.38113e-08)
(2.07421e-08 -9.35986e-08 8.59798e-08)
(2.60178e-08 -1.26403e-07 1.17291e-07)
(2.91895e-08 -1.58236e-07 1.48632e-07)
(3.00953e-08 -1.89916e-07 1.80969e-07)
(2.84896e-08 -2.21773e-07 2.1519e-07)
(2.43123e-08 -2.53834e-07 2.52178e-07)
(1.73034e-08 -2.85948e-07 2.92398e-07)
(7.58193e-09 -3.17819e-07 3.36204e-07)
(-4.38814e-09 -3.48415e-07 3.83121e-07)
(-1.67561e-08 -3.76384e-07 4.33314e-07)
(-2.68378e-08 -3.99626e-07 4.86627e-07)
(-3.29939e-08 -4.15403e-07 5.41818e-07)
(-2.88894e-08 -4.19093e-07 5.95449e-07)
(-4.73986e-09 -4.08342e-07 6.37107e-07)
(6.54494e-09 -2.4474e-08 2.2787e-08)
(1.77328e-08 -6.81507e-08 6.3495e-08)
(2.70716e-08 -1.08273e-07 1.01494e-07)
(3.42508e-08 -1.46175e-07 1.38199e-07)
(3.92343e-08 -1.83103e-07 1.74902e-07)
(4.18217e-08 -2.1986e-07 2.12567e-07)
(4.19699e-08 -2.5708e-07 2.52381e-07)
(3.97724e-08 -2.94967e-07 2.9543e-07)
(3.52128e-08 -3.33525e-07 3.42289e-07)
(2.86787e-08 -3.72509e-07 3.93164e-07)
(2.13792e-08 -4.11522e-07 4.4816e-07)
(1.53859e-08 -4.49693e-07 5.07647e-07)
(1.34652e-08 -4.85886e-07 5.72268e-07)
(1.62662e-08 -5.17772e-07 6.41243e-07)
(2.60946e-08 -5.38209e-07 7.09646e-07)
(4.63364e-08 -5.34519e-07 7.60853e-07)
(8.08277e-09 -2.68445e-08 2.58001e-08)
(2.21081e-08 -7.47607e-08 7.19571e-08)
(3.38252e-08 -1.1877e-07 1.14824e-07)
(4.323e-08 -1.60434e-07 1.56111e-07)
(5.02241e-08 -2.01012e-07 1.97081e-07)
(5.49048e-08 -2.41597e-07 2.39e-07)
(5.73184e-08 -2.82954e-07 2.83219e-07)
(5.77395e-08 -3.25412e-07 3.30942e-07)
(5.64102e-08 -3.69114e-07 3.8283e-07)
(5.41197e-08 -4.14145e-07 4.39257e-07)
(5.25151e-08 -4.60322e-07 5.00358e-07)
(5.45512e-08 -5.07748e-07 5.67391e-07)
(6.41016e-08 -5.56973e-07 6.42517e-07)
(8.336e-08 -6.08798e-07 7.27459e-07)
(1.15904e-07 -6.6137e-07 8.20765e-07)
(1.57119e-07 -7.00689e-07 9.02439e-07)
(9.71826e-09 -2.81554e-08 2.83522e-08)
(2.65694e-08 -7.84177e-08 7.90142e-08)
(4.08579e-08 -1.24622e-07 1.25924e-07)
(5.25469e-08 -1.68432e-07 1.70842e-07)
(6.17896e-08 -2.11246e-07 2.15124e-07)
(6.8659e-08 -2.54252e-07 2.60117e-07)
(7.34129e-08 -2.98286e-07 3.07328e-07)
(7.65229e-08 -3.43753e-07 3.58112e-07)
(7.83952e-08 -3.90943e-07 4.13136e-07)
(8.00406e-08 -4.40029e-07 4.72748e-07)
(8.3882e-08 -4.90983e-07 5.3738e-07)
(9.28229e-08 -5.44689e-07 6.08344e-07)
(1.12616e-07 -6.02636e-07 6.89389e-07)
(1.49405e-07 -6.68618e-07 7.85388e-07)
(2.16908e-07 -7.49138e-07 9.03432e-07)
(3.19431e-07 -8.39372e-07 1.03334e-06)
(3.0297e-10 -2.64267e-09 2.16946e-09)
(7.96633e-10 -7.3484e-09 6.0646e-09)
(1.12512e-09 -1.16307e-08 9.71747e-09)
(1.14983e-09 -1.56576e-08 1.31928e-08)
(9.16113e-10 -1.96297e-08 1.67882e-08)
(2.37848e-10 -2.36693e-08 2.05355e-08)
(-9.70539e-10 -2.76345e-08 2.45004e-08)
(-2.8495e-09 -3.14406e-08 2.87464e-08)
(-5.61205e-09 -3.50085e-08 3.33647e-08)
(-9.73692e-09 -3.83745e-08 3.84598e-08)
(-1.55897e-08 -4.13128e-08 4.41224e-08)
(-2.42148e-08 -4.35098e-08 5.04908e-08)
(-3.73254e-08 -4.37446e-08 5.78953e-08)
(-6.09854e-08 -4.00428e-08 6.73898e-08)
(-1.10223e-07 -2.85694e-08 8.12845e-08)
(-2.0128e-07 -9.13153e-09 9.97379e-08)
(9.58703e-10 -7.91531e-09 6.48911e-09)
(2.55195e-09 -2.19902e-08 1.81465e-08)
(3.51627e-09 -3.48136e-08 2.89121e-08)
(3.84225e-09 -4.69096e-08 3.94653e-08)
(3.18353e-09 -5.88897e-08 5.01326e-08)
(1.31039e-09 -7.08178e-08 6.12361e-08)
(-2.1102e-09 -8.26125e-08 7.29742e-08)
(-7.41398e-09 -9.40287e-08 8.56014e-08)
(-1.52401e-08 -1.04967e-07 9.93261e-08)
(-2.65886e-08 -1.1528e-07 1.14336e-07)
(-4.20801e-08 -1.24477e-07 1.30967e-07)
(-6.33128e-08 -1.31433e-07 1.48797e-07)
(-9.23044e-08 -1.34141e-07 1.68367e-07)
(-1.33377e-07 -1.29704e-07 1.89699e-07)
(-1.9185e-07 -1.16202e-07 2.12086e-07)
(-2.60065e-07 -1.00831e-07 2.30515e-07)
(1.75115e-09 -1.30231e-08 1.07289e-08)
(4.59677e-09 -3.6188e-08 2.98739e-08)
(6.59462e-09 -5.73225e-08 4.77606e-08)
(7.38674e-09 -7.73938e-08 6.51175e-08)
(6.68491e-09 -9.70172e-08 8.26483e-08)
(4.07094e-09 -1.16572e-07 1.00811e-07)
(-8.66325e-10 -1.35967e-07 1.20049e-07)
(-8.66078e-09 -1.55059e-07 1.40759e-07)
(-2.01512e-08 -1.73645e-07 1.63331e-07)
(-3.58641e-08 -1.91382e-07 1.88116e-07)
(-5.74949e-08 -2.07869e-07 2.1469e-07)
(-8.46727e-08 -2.21347e-07 2.43391e-07)
(-1.19002e-07 -2.3017e-07 2.73876e-07)
(-1.60807e-07 -2.32573e-07 3.05822e-07)
(-2.08191e-07 -2.29606e-07 3.37786e-07)
(-2.51316e-07 -2.29073e-07 3.64817e-07)
(2.69595e-09 -1.77583e-08 1.47363e-08)
(7.21026e-09 -4.93686e-08 4.10978e-08)
(1.04838e-08 -7.83486e-08 6.56591e-08)
(1.21909e-08 -1.05769e-07 8.95016e-08)
(1.19507e-08 -1.32574e-07 1.13476e-07)
(9.33043e-09 -1.59167e-07 1.38226e-07)
(3.86699e-09 -1.85754e-07 1.64411e-07)
(-4.93191e-09 -2.12244e-07 1.92738e-07)
(-1.77277e-08 -2.38465e-07 2.23579e-07)
(-3.53697e-08 -2.64116e-07 2.57189e-07)
(-5.79602e-08 -2.884e-07 2.93409e-07)
(-8.5814e-08 -3.09942e-07 3.31965e-07)
(-1.19222e-07 -3.27283e-07 3.72673e-07)
(-1.57809e-07 -3.38977e-07 4.14234e-07)
(-1.99991e-07 -3.45669e-07 4.53537e-07)
(-2.40398e-07 -3.5113e-07 4.83553e-07)
(3.86063e-09 -2.19097e-08 1.84588e-08)
(1.03549e-08 -6.09671e-08 5.14308e-08)
(1.53145e-08 -9.67822e-08 8.21479e-08)
(1.8375e-08 -1.30717e-07 1.11885e-07)
(1.91773e-08 -1.63739e-07 1.41636e-07)
(1.73715e-08 -1.96588e-07 1.72261e-07)
(1.26004e-08 -2.29623e-07 2.04708e-07)
(4.42921e-09 -2.62952e-07 2.39777e-07)
(-7.51625e-09 -2.96377e-07 2.78055e-07)
(-2.36102e-08 -3.29718e-07 3.1966e-07)
(-4.37472e-08 -3.62185e-07 3.64433e-07)
(-6.77326e-08 -3.92733e-07 4.12344e-07)
(-9.59413e-08 -4.19992e-07 4.63048e-07)
(-1.29256e-07 -4.4215e-07 5.14629e-07)
(-1.69636e-07 -4.57749e-07 5.61929e-07)
(-2.14191e-07 -4.66794e-07 5.94941e-07)
(5.18361e-09 -2.52868e-08 2.17644e-08)
(1.40619e-08 -7.03464e-08 6.07044e-08)
(2.10446e-08 -1.11748e-07 9.68412e-08)
(2.58702e-08 -1.50908e-07 1.31706e-07)
(2.82982e-08 -1.89062e-07 1.66447e-07)
(2.80878e-08 -2.27082e-07 2.02115e-07)
(2.50321e-08 -2.65565e-07 2.3985e-07)
(1.8908e-08 -3.04711e-07 2.8061e-07)
(9.6834e-09 -3.44489e-07 3.25099e-07)
(-2.61339e-09 -3.8475e-07 3.73383e-07)
(-1.72906e-08 -4.25071e-07 4.25574e-07)
(-3.37457e-08 -4.64712e-07 4.81842e-07)
(-5.20828e-08 -5.02835e-07 5.42469e-07)
(-7.47388e-08 -5.37547e-07 6.05727e-07)
(-1.08652e-07 -5.64573e-07 6.65253e-07)
(-1.57799e-07 -5.75799e-07 7.06895e-07)
(6.69823e-09 -2.76894e-08 2.46692e-08)
(1.81881e-08 -7.7077e-08 6.86985e-08)
(2.75072e-08 -1.22429e-07 1.0949e-07)
(3.44796e-08 -1.65379e-07 1.48661e-07)
(3.89571e-08 -2.07258e-07 1.87478e-07)
(4.08815e-08 -2.49147e-07 2.2715e-07)
(4.0214e-08 -2.91758e-07 2.68998e-07)
(3.7009e-08 -3.35406e-07 3.14123e-07)
(3.15213e-08 -3.8016e-07 3.63274e-07)
(2.43499e-08 -4.2606e-07 4.16659e-07)
(1.66897e-08 -4.729e-07 4.74356e-07)
(1.02095e-08 -5.2056e-07 5.37159e-07)
(6.12117e-09 -5.6933e-07 6.06357e-07)
(3.507e-09 -6.19481e-07 6.81787e-07)
(-5.14759e-09 -6.69527e-07 7.57913e-07)
(-3.50748e-08 -7.08097e-07 8.15618e-07)
(8.29056e-09 -2.9008e-08 2.70839e-08)
(2.25833e-08 -8.07562e-08 7.53792e-08)
(3.44468e-08 -1.28322e-07 1.19993e-07)
(4.37649e-08 -1.7343e-07 1.62603e-07)
(5.05357e-08 -2.17541e-07 2.04503e-07)
(5.48109e-08 -2.61818e-07 2.47064e-07)
(5.67598e-08 -3.07036e-07 2.91704e-07)
(5.66503e-08 -3.53575e-07 3.39644e-07)
(5.50769e-08 -4.01595e-07 3.91749e-07)
(5.29368e-08 -4.51197e-07 4.48079e-07)
(5.18914e-08 -5.02339e-07 5.08572e-07)
(5.48222e-08 -5.5508e-07 5.74719e-07)
(6.48454e-08 -6.10415e-07 6.48302e-07)
(8.59653e-08 -6.70192e-07 7.31189e-07)
(1.21978e-07 -7.35748e-07 8.20803e-07)
(1.67732e-07 -7.95378e-07 8.97086e-07)
(1.48999e-10 -2.735e-09 1.99558e-09)
(3.51694e-10 -7.62136e-09 5.57524e-09)
(3.35987e-10 -1.20978e-08 8.88577e-09)
(1.20687e-10 -1.62882e-08 1.21605e-08)
(-5.34179e-10 -2.04769e-08 1.53863e-08)
(-1.63566e-09 -2.46411e-08 1.87837e-08)
(-3.38862e-09 -2.87707e-08 2.23539e-08)
(-5.9466e-09 -3.2743e-08 2.61855e-08)
(-9.62735e-09 -3.65848e-08 3.03852e-08)
(-1.48982e-08 -4.0297e-08 3.50599e-08)
(-2.26712e-08 -4.39913e-08 4.02265e-08)
(-3.41117e-08 -4.74428e-08 4.59127e-08)
(-5.25455e-08 -5.05401e-08 5.209e-08)
(-8.65213e-08 -5.34685e-08 5.88226e-08)
(-1.56396e-07 -5.79873e-08 6.55835e-08)
(-2.77365e-07 -6.73818e-08 6.84889e-08)
(4.96539e-10 -8.18216e-09 5.95861e-09)
(1.16855e-09 -2.27765e-08 1.65921e-08)
(1.37419e-09 -3.60511e-08 2.65748e-08)
(6.89621e-10 -4.87339e-08 3.61449e-08)
(-9.97454e-10 -6.11446e-08 4.58728e-08)
(-4.12268e-09 -7.35437e-08 5.59042e-08)
(-9.04499e-09 -8.57847e-08 6.6511e-08)
(-1.62912e-08 -9.77565e-08 7.79214e-08)
(-2.65884e-08 -1.09365e-07 9.04447e-08)
(-4.11183e-08 -1.20708e-07 1.04301e-07)
(-6.18269e-08 -1.31783e-07 1.19149e-07)
(-9.03725e-08 -1.41869e-07 1.35214e-07)
(-1.31496e-07 -1.50513e-07 1.51748e-07)
(-1.92458e-07 -1.57391e-07 1.67215e-07)
(-2.8049e-07 -1.63632e-07 1.77343e-07)
(-3.75346e-07 -1.71307e-07 1.74453e-07)
(9.69967e-10 -1.3448e-08 9.80581e-09)
(2.47298e-09 -3.73436e-08 2.7386e-08)
(3.03352e-09 -5.93037e-08 4.36896e-08)
(2.38099e-09 -8.00857e-08 5.95588e-08)
(2.58944e-11 -1.00487e-07 7.54676e-08)
(-4.48534e-09 -1.20735e-07 9.19123e-08)
(-1.17432e-08 -1.40865e-07 1.09284e-07)
(-2.23858e-08 -1.60742e-07 1.28109e-07)
(-3.73818e-08 -1.80317e-07 1.48726e-07)
(-5.84305e-08 -1.99659e-07 1.71098e-07)
(-8.64479e-08 -2.18302e-07 1.95596e-07)
(-1.23825e-07 -2.35684e-07 2.21062e-07)
(-1.73159e-07 -2.51052e-07 2.47223e-07)
(-2.3709e-07 -2.6442e-07 2.71656e-07)
(-3.12698e-07 -2.77323e-07 2.89782e-07)
(-3.76111e-07 -2.91017e-07 2.94835e-07)
(1.67968e-09 -1.82919e-08 1.34758e-08)
(4.33433e-09 -5.09047e-08 3.75694e-08)
(5.79527e-09 -8.07949e-08 5.99959e-08)
(5.59295e-09 -1.09197e-07 8.16915e-08)
(3.25407e-09 -1.36905e-07 1.03434e-07)
(-1.77447e-09 -1.64419e-07 1.25803e-07)
(-1.00519e-08 -1.91915e-07 1.49539e-07)
(-2.23206e-08 -2.19416e-07 1.75219e-07)
(-3.94931e-08 -2.46787e-07 2.03354e-07)
(-6.2736e-08 -2.73983e-07 2.33955e-07)
(-9.30786e-08 -3.00539e-07 2.66764e-07)
(-1.31844e-07 -3.25653e-07 3.01237e-07)
(-1.80782e-07 -3.48646e-07 3.36486e-07)
(-2.40849e-07 -3.69358e-07 3.69618e-07)
(-3.08353e-07 -3.88605e-07 3.95428e-07)
(-3.64911e-07 -4.05697e-07 4.05974e-07)
(2.62586e-09 -2.25555e-08 1.68549e-08)
(6.94517e-09 -6.27239e-08 4.70025e-08)
(9.74544e-09 -9.96596e-08 7.49759e-08)
(1.05801e-08 -1.34636e-07 1.01994e-07)
(8.97413e-09 -1.68725e-07 1.28917e-07)
(4.48737e-09 -2.026e-07 1.56634e-07)
(-3.41323e-09 -2.36681e-07 1.86009e-07)
(-1.52743e-08 -2.71028e-07 2.1788e-07)
(-3.18293e-08 -3.0562e-07 2.52628e-07)
(-5.37401e-08 -3.40282e-07 2.90427e-07)
(-8.15814e-08 -3.74575e-07 3.30876e-07)
(-1.16265e-07 -4.0767e-07 3.73515e-07)
(-1.59378e-07 -4.38758e-07 4.17412e-07)
(-2.12985e-07 -4.67065e-07 4.59226e-07)
(-2.76894e-07 -4.91718e-07 4.92766e-07)
(-3.36185e-07 -5.1047e-07 5.08221e-07)
(3.84614e-09 -2.59811e-08 1.99164e-08)
(1.02363e-08 -7.23407e-08 5.53876e-08)
(1.48755e-08 -1.14887e-07 8.83281e-08)
(1.73024e-08 -1.5519e-07 1.19951e-07)
(1.7174e-08 -1.94443e-07 1.51397e-07)
(1.4163e-08 -2.33553e-07 1.83644e-07)
(7.91477e-09 -2.73086e-07 2.17789e-07)
(-1.86882e-09 -3.13228e-07 2.54789e-07)
(-1.55694e-08 -3.53962e-07 2.95089e-07)
(-3.32977e-08 -3.95207e-07 3.38849e-07)
(-5.51037e-08 -4.36552e-07 3.85704e-07)
(-8.12784e-08 -4.77293e-07 4.35419e-07)
(-1.1328e-07 -5.16737e-07 4.87331e-07)
(-1.5493e-07 -5.53534e-07 5.38043e-07)
(-2.11673e-07 -5.84103e-07 5.80585e-07)
(-2.75851e-07 -6.00414e-07 6.02793e-07)
(5.24992e-09 -2.84517e-08 2.25194e-08)
(1.41516e-08 -7.91655e-08 6.26949e-08)
(2.10251e-08 -1.25741e-07 9.98019e-08)
(2.55272e-08 -1.69848e-07 1.3535e-07)
(2.7432e-08 -2.12853e-07 1.70438e-07)
(2.65857e-08 -2.55818e-07 2.06308e-07)
(2.2844e-08 -2.99431e-07 2.44138e-07)
(1.61903e-08 -3.4393e-07 2.85031e-07)
(6.68027e-09 -3.89397e-07 3.29495e-07)
(-5.32163e-09 -4.35796e-07 3.77616e-07)
(-1.90572e-08 -4.82798e-07 4.29144e-07)
(-3.37653e-08 -5.29969e-07 4.84114e-07)
(-4.95941e-08 -5.77221e-07 5.42386e-07)
(-6.93372e-08 -6.24357e-07 6.00924e-07)
(-1.00039e-07 -6.69376e-07 6.52398e-07)
(-1.46536e-07 -7.02761e-07 6.80952e-07)
(6.80229e-09 -2.97817e-08 2.47147e-08)
(1.84595e-08 -8.28873e-08 6.87216e-08)
(2.78417e-08 -1.31683e-07 1.09325e-07)
(3.4711e-08 -1.7795e-07 1.47905e-07)
(3.89853e-08 -2.23158e-07 1.85836e-07)
(4.06313e-08 -2.68462e-07 2.24266e-07)
(3.97453e-08 -3.14578e-07 2.64607e-07)
(3.65825e-08 -3.61815e-07 3.08039e-07)
(3.1478e-08 -4.10293e-07 3.55002e-07)
(2.52786e-08 -4.59979e-07 4.05565e-07)
(1.95781e-08 -5.1046e-07 4.59761e-07)
(1.59391e-08 -5.6144e-07 5.16976e-07)
(1.67023e-08 -6.12894e-07 5.78111e-07)
(2.3801e-08 -6.65067e-07 6.4064e-07)
(4.05032e-08 -7.16612e-07 6.97586e-07)
(6.84312e-08 -7.57147e-07 7.2917e-07)
(-7.91461e-12 -2.81515e-09 1.728e-09)
(-8.65644e-11 -7.84907e-09 4.8357e-09)
(-3.23782e-10 -1.24275e-08 7.75385e-09)
(-9.00271e-10 -1.68162e-08 1.05017e-08)
(-1.82504e-09 -2.11267e-08 1.33504e-08)
(-3.31969e-09 -2.5464e-08 1.62472e-08)
(-5.52685e-09 -2.97472e-08 1.93049e-08)
(-8.64627e-09 -3.38881e-08 2.25861e-08)
(-1.30641e-08 -3.79748e-08 2.62011e-08)
(-1.9408e-08 -4.2088e-08 3.01946e-08)
(-2.85577e-08 -4.64055e-08 3.46699e-08)
(-4.21363e-08 -5.09318e-08 3.93903e-08)
(-6.38187e-08 -5.59957e-08 4.44666e-08)
(-1.02848e-07 -6.25463e-08 4.98368e-08)
(-1.80146e-07 -7.33573e-08 5.58911e-08)
(-3.08009e-07 -8.99673e-08 6.20051e-08)
(3.85234e-11 -8.40933e-09 5.16246e-09)
(-4.96316e-11 -2.33569e-08 1.44363e-08)
(-7.3723e-10 -3.71014e-08 2.2957e-08)
(-2.18534e-09 -5.01566e-08 3.1342e-08)
(-4.83709e-09 -6.30403e-08 3.96772e-08)
(-9.04755e-09 -7.58712e-08 4.82776e-08)
(-1.52662e-08 -8.85404e-08 5.73553e-08)
(-2.40993e-08 -1.0101e-07 6.71861e-08)
(-3.65083e-08 -1.13294e-07 7.79204e-08)
(-5.39976e-08 -1.25751e-07 8.97498e-08)
(-7.81611e-08 -1.38287e-07 1.02909e-07)
(-1.1219e-07 -1.51032e-07 1.1623e-07)
(-1.60784e-07 -1.63924e-07 1.297e-07)
(-2.31311e-07 -1.77287e-07 1.41938e-07)
(-3.28572e-07 -1.91527e-07 1.50484e-07)
(-4.24463e-07 -2.03483e-07 1.52495e-07)
(2.64509e-10 -1.377e-08 8.51669e-09)
(4.14499e-10 -3.83291e-08 2.36791e-08)
(-2.52315e-10 -6.08552e-08 3.78605e-08)
(-2.26782e-09 -8.23269e-08 5.15086e-08)
(-6.09666e-09 -1.03393e-07 6.51738e-08)
(-1.22902e-08 -1.2429e-07 7.92575e-08)
(-2.14995e-08 -1.45069e-07 9.41876e-08)
(-3.45969e-08 -1.65698e-07 1.10312e-07)
(-5.28347e-08 -1.86301e-07 1.28011e-07)
(-7.76168e-08 -2.06926e-07 1.47729e-07)
(-1.11184e-07 -2.27716e-07 1.68382e-07)
(-1.55587e-07 -2.48204e-07 1.90034e-07)
(-2.14145e-07 -2.68374e-07 2.11462e-07)
(-2.88346e-07 -2.8824e-07 2.31067e-07)
(-3.71282e-07 -3.08015e-07 2.46147e-07)
(-4.31538e-07 -3.24604e-07 2.54658e-07)
(7.24299e-10 -1.87387e-08 1.16745e-08)
(1.65407e-09 -5.21266e-08 3.25325e-08)
(1.4247e-09 -8.2839e-08 5.18924e-08)
(-5.32373e-10 -1.1206e-07 7.05617e-08)
(-4.77362e-09 -1.40584e-07 8.91944e-08)
(-1.19005e-08 -1.68886e-07 1.08371e-07)
(-2.26417e-08 -1.97191e-07 1.28719e-07)
(-3.78816e-08 -2.25569e-07 1.50843e-07)
(-5.88075e-08 -2.54038e-07 1.75013e-07)
(-8.67379e-08 -2.82653e-07 2.01464e-07)
(-1.23074e-07 -3.11206e-07 2.29663e-07)
(-1.69507e-07 -3.39187e-07 2.58756e-07)
(-2.27856e-07 -3.663e-07 2.87733e-07)
(-2.97367e-07 -3.92253e-07 3.14671e-07)
(-3.69922e-07 -4.16892e-07 3.36459e-07)
(-4.20704e-07 -4.36577e-07 3.50092e-07)
(1.49538e-09 -2.30635e-08 1.46102e-08)
(3.72119e-09 -6.42185e-08 4.06365e-08)
(4.54353e-09 -1.02054e-07 6.48041e-08)
(3.32616e-09 -1.37952e-07 8.80115e-08)
(-4.47632e-10 -1.7294e-07 1.11081e-07)
(-7.31418e-09 -2.0769e-07 1.34828e-07)
(-1.79209e-08 -2.4263e-07 1.60057e-07)
(-3.30737e-08 -2.77905e-07 1.87378e-07)
(-5.35782e-08 -3.13489e-07 2.17325e-07)
(-8.03432e-08 -3.49363e-07 2.49837e-07)
(-1.14206e-07 -3.85148e-07 2.84478e-07)
(-1.56361e-07 -4.20198e-07 3.20332e-07)
(-2.0834e-07 -4.53904e-07 3.56284e-07)
(-2.70342e-07 -4.85293e-07 3.90202e-07)
(-3.37907e-07 -5.13014e-07 4.18341e-07)
(-3.90342e-07 -5.32812e-07 4.36359e-07)
(2.54767e-09 -2.65869e-08 1.71962e-08)
(6.67751e-09 -7.39763e-08 4.79452e-08)
(9.10568e-09 -1.17542e-07 7.62997e-08)
(9.31433e-09 -1.58819e-07 1.03468e-07)
(6.86886e-09 -1.99004e-07 1.30395e-07)
(1.36105e-09 -2.38997e-07 1.58012e-07)
(-7.68385e-09 -2.79379e-07 1.87308e-07)
(-2.07775e-08 -3.20346e-07 2.19007e-07)
(-3.83457e-08 -3.61885e-07 2.53648e-07)
(-6.07156e-08 -4.03906e-07 2.9117e-07)
(-8.80806e-08 -4.4599e-07 3.3112e-07)
(-1.21056e-07 -4.87394e-07 3.72599e-07)
(-1.61033e-07 -5.27375e-07 4.14584e-07)
(-2.10195e-07 -5.64332e-07 4.54863e-07)
(-2.70039e-07 -5.94462e-07 4.89013e-07)
(-3.27263e-07 -6.08742e-07 5.11171e-07)
(3.89337e-09 -2.908e-08 1.94945e-08)
(1.03619e-08 -8.09311e-08 5.41947e-08)
(1.49261e-08 -1.28559e-07 8.61813e-08)
(1.71373e-08 -1.73653e-07 1.16687e-07)
(1.6696e-08 -2.17578e-07 1.46744e-07)
(1.33603e-08 -2.61397e-07 1.7745e-07)
(6.89911e-09 -3.05771e-07 2.09879e-07)
(-2.89488e-09 -3.50956e-07 2.44865e-07)
(-1.59957e-08 -3.96943e-07 2.82984e-07)
(-3.20982e-08 -4.43623e-07 3.24197e-07)
(-5.06562e-08 -4.90517e-07 3.6793e-07)
(-7.11897e-08 -5.36967e-07 4.13364e-07)
(-9.3879e-08 -5.82558e-07 4.59684e-07)
(-1.20242e-07 -6.26654e-07 5.04765e-07)
(-1.53909e-07 -6.67269e-07 5.43375e-07)
(-1.94055e-07 -6.95857e-07 5.67964e-07)
(5.40315e-09 -3.04357e-08 2.13601e-08)
(1.45496e-08 -8.47105e-08 5.93534e-08)
(2.15822e-08 -1.34568e-07 9.42864e-08)
(2.6172e-08 -1.81814e-07 1.2741e-07)
(2.81454e-08 -2.27911e-07 1.59875e-07)
(2.74238e-08 -2.7399e-07 1.92781e-07)
(2.4005e-08 -3.20769e-07 2.27362e-07)
(1.7984e-08 -3.68512e-07 2.64464e-07)
(9.76812e-09 -4.17228e-07 3.04773e-07)
(1.46028e-10 -4.66731e-07 3.48125e-07)
(-9.71877e-09 -5.16445e-07 3.93426e-07)
(-1.78884e-08 -5.65556e-07 4.40844e-07)
(-2.27025e-08 -6.13631e-07 4.88834e-07)
(-2.11975e-08 -6.60266e-07 5.35681e-07)
(-7.24673e-09 -7.04377e-07 5.75613e-07)
(2.64555e-08 -7.38823e-07 5.99903e-07)
(-1.40975e-10 -2.87734e-09 1.3996e-09)
(-4.63729e-10 -8.00225e-09 3.89568e-09)
(-9.80669e-10 -1.26921e-08 6.16826e-09)
(-1.75449e-09 -1.71709e-08 8.46109e-09)
(-2.99199e-09 -2.16425e-08 1.06686e-08)
(-4.79909e-09 -2.61206e-08 1.29862e-08)
(-7.35789e-09 -3.05218e-08 1.54166e-08)
(-1.0933e-08 -3.48738e-08 1.80488e-08)
(-1.58725e-08 -3.91263e-08 2.09537e-08)
(-2.28085e-08 -4.358e-08 2.4309e-08)
(-3.27066e-08 -4.82815e-08 2.79863e-08)
(-4.72979e-08 -5.34608e-08 3.18258e-08)
(-7.03869e-08 -5.94977e-08 3.58397e-08)
(-1.1143e-07 -6.75026e-08 4.02467e-08)
(-1.91673e-07 -8.01923e-08 4.57768e-08)
(-3.22529e-07 -9.79183e-08 5.25366e-08)
(-3.55222e-10 -8.56607e-09 4.16456e-09)
(-1.21375e-09 -2.38255e-08 1.15382e-08)
(-2.54016e-09 -3.78285e-08 1.85027e-08)
(-4.7778e-09 -5.12477e-08 2.50885e-08)
(-8.22829e-09 -6.45195e-08 3.17513e-08)
(-1.33485e-08 -7.77978e-08 3.86172e-08)
(-2.06222e-08 -9.09297e-08 4.58774e-08)
(-3.07096e-08 -1.03831e-07 5.37191e-08)
(-4.45937e-08 -1.16783e-07 6.25099e-08)
(-6.36681e-08 -1.29949e-07 7.2519e-08)
(-9.00837e-08 -1.43657e-07 8.28648e-08)
(-1.26531e-07 -1.57819e-07 9.37371e-08)
(-1.78278e-07 -1.72875e-07 1.0443e-07)
(-2.52311e-07 -1.88976e-07 1.14226e-07)
(-3.52135e-07 -2.05423e-07 1.21966e-07)
(-4.46776e-07 -2.16793e-07 1.25803e-07)
(-3.95416e-10 -1.40361e-08 6.82317e-09)
(-1.38164e-09 -3.90357e-08 1.90706e-08)
(-3.22323e-09 -6.20583e-08 3.03401e-08)
(-6.40735e-09 -8.40864e-08 4.12614e-08)
(-1.14933e-08 -1.05747e-07 5.21664e-08)
(-1.90695e-08 -1.27203e-07 6.33781e-08)
(-2.9871e-08 -1.48545e-07 7.52776e-08)
(-4.48104e-08 -1.6986e-07 8.83137e-08)
(-6.51161e-08 -1.91226e-07 1.0286e-07)
(-9.25644e-08 -2.12985e-07 1.18663e-07)
(-1.28896e-07 -2.35171e-07 1.35889e-07)
(-1.76777e-07 -2.57556e-07 1.53116e-07)
(-2.39087e-07 -2.80266e-07 1.70099e-07)
(-3.16615e-07 -3.02987e-07 1.8555e-07)
(-4.00336e-07 -3.24705e-07 1.98288e-07)
(-4.56427e-07 -3.4067e-07 2.06917e-07)
(-1.36505e-10 -1.90776e-08 9.38096e-09)
(-7.66668e-10 -5.31026e-08 2.61107e-08)
(-2.49442e-09 -8.44668e-08 4.16183e-08)
(-5.97655e-09 -1.14367e-07 5.65352e-08)
(-1.18283e-08 -1.43579e-07 7.13461e-08)
(-2.07042e-08 -1.72589e-07 8.66278e-08)
(-3.33949e-08 -2.01597e-07 1.02935e-07)
(-5.09014e-08 -2.30716e-07 1.20702e-07)
(-7.43789e-08 -2.60049e-07 1.40414e-07)
(-1.05211e-07 -2.89756e-07 1.6203e-07)
(-1.4486e-07 -3.1959e-07 1.84965e-07)
(-1.94986e-07 -3.49341e-07 2.08258e-07)
(-2.56978e-07 -3.78621e-07 2.31159e-07)
(-3.29026e-07 -4.06862e-07 2.52152e-07)
(-4.00815e-07 -4.32901e-07 2.69959e-07)
(-4.46005e-07 -4.52131e-07 2.8226e-07)
(4.50451e-10 -2.34929e-08 1.17134e-08)
(8.50463e-10 -6.54029e-08 3.26689e-08)
(-1.1665e-10 -1.04006e-07 5.19896e-08)
(-3.11087e-09 -1.40677e-07 7.04909e-08)
(-8.72457e-09 -1.76428e-07 8.88662e-08)
(-1.75625e-08 -2.11869e-07 1.07776e-07)
(-3.03695e-08 -2.475e-07 1.2793e-07)
(-4.79473e-08 -2.83476e-07 1.49982e-07)
(-7.11933e-08 -3.19851e-07 1.74198e-07)
(-1.01012e-07 -3.56552e-07 2.00698e-07)
(-1.38175e-07 -3.93374e-07 2.28828e-07)
(-1.83896e-07 -4.29593e-07 2.57441e-07)
(-2.39062e-07 -4.64585e-07 2.85623e-07)
(-3.02847e-07 -4.97125e-07 3.11686e-07)
(-3.68672e-07 -5.25151e-07 3.34036e-07)
(-4.14936e-07 -5.43926e-07 3.49302e-07)
(1.40933e-09 -2.70546e-08 1.38577e-08)
(3.44432e-09 -7.53372e-08 3.84704e-08)
(3.93548e-09 -1.19742e-07 6.12059e-08)
(2.21832e-09 -1.61838e-07 8.2897e-08)
(-2.20259e-09 -2.0277e-07 1.043e-07)
(-9.78464e-09 -2.43483e-07 1.26308e-07)
(-2.10864e-08 -2.84525e-07 1.49711e-07)
(-3.66446e-08 -3.26116e-07 1.75237e-07)
(-5.6936e-08 -3.68221e-07 2.03203e-07)
(-8.21959e-08 -4.10766e-07 2.33689e-07)
(-1.12707e-07 -4.53243e-07 2.65978e-07)
(-1.4882e-07 -4.94962e-07 2.98873e-07)
(-1.91481e-07 -5.35013e-07 3.31407e-07)
(-2.41826e-07 -5.71655e-07 3.61706e-07)
(-2.99502e-07 -6.00706e-07 3.87818e-07)
(-3.50498e-07 -6.13229e-07 4.05379e-07)
(2.65496e-09 -2.96074e-08 1.56464e-08)
(6.92681e-09 -8.24046e-08 4.34926e-08)
(9.44627e-09 -1.30918e-07 6.9126e-08)
(9.65619e-09 -1.76831e-07 9.34213e-08)
(7.21367e-09 -2.21507e-07 1.17363e-07)
(1.78842e-09 -2.6596e-07 1.41795e-07)
(-6.90708e-09 -3.10904e-07 1.67692e-07)
(-1.90673e-08 -3.56553e-07 1.9585e-07)
(-3.46771e-08 -4.02867e-07 2.26595e-07)
(-5.34897e-08 -4.4966e-07 2.59875e-07)
(-7.47441e-08 -4.96375e-07 2.95043e-07)
(-9.79222e-08 -5.42226e-07 3.30889e-07)
(-1.22711e-07 -5.86651e-07 3.66374e-07)
(-1.49846e-07 -6.29042e-07 3.99472e-07)
(-1.81106e-07 -6.67577e-07 4.28024e-07)
(-2.15282e-07 -6.95011e-07 4.46875e-07)
(4.1178e-09 -3.09908e-08 1.71156e-08)
(1.10005e-08 -8.62478e-08 4.75913e-08)
(1.59273e-08 -1.37012e-07 7.54791e-08)
(1.85203e-08 -1.85069e-07 1.01922e-07)
(1.85093e-08 -2.31853e-07 1.2771e-07)
(1.58068e-08 -2.78512e-07 1.53954e-07)
(1.03159e-08 -3.25747e-07 1.81578e-07)
(2.15812e-09 -3.73802e-07 2.11471e-07)
(-8.36342e-09 -4.22627e-07 2.43823e-07)
(-2.03639e-08 -4.71892e-07 2.7855e-07)
(-3.24066e-08 -5.20857e-07 3.15491e-07)
(-4.27964e-08 -5.68654e-07 3.52281e-07)
(-4.92158e-08 -6.1463e-07 3.88772e-07)
(-4.81105e-08 -6.58497e-07 4.22598e-07)
(-3.12833e-08 -6.99816e-07 4.51575e-07)
(9.56518e-09 -7.3362e-07 4.70084e-07)
(-2.54185e-10 -2.91285e-09 1.00667e-09)
(-7.75846e-10 -8.08664e-09 2.79864e-09)
(-1.45241e-09 -1.28232e-08 4.49335e-09)
(-2.45178e-09 -1.7379e-08 6.02619e-09)
(-3.84666e-09 -2.18436e-08 7.65584e-09)
(-5.91668e-09 -2.65902e-08 9.31757e-09)
(-8.75129e-09 -3.11774e-08 1.10714e-08)
(-1.26177e-08 -3.56551e-08 1.2974e-08)
(-1.78898e-08 -4.01538e-08 1.51246e-08)
(-2.51763e-08 -4.48505e-08 1.75776e-08)
(-3.54479e-08 -4.99355e-08 2.03166e-08)
(-5.01269e-08 -5.52541e-08 2.30998e-08)
(-7.33879e-08 -6.16342e-08 2.60784e-08)
(-1.14876e-07 -7.00594e-08 2.93937e-08)
(-1.9627e-07 -8.30143e-08 3.37678e-08)
(-3.29752e-07 -1.00532e-07 3.90493e-08)
(-6.84916e-10 -8.66478e-09 2.99698e-09)
(-2.09147e-09 -2.40806e-08 8.39124e-09)
(-4.01724e-09 -3.82703e-08 1.32409e-08)
(-6.77205e-09 -5.1822e-08 1.80418e-08)
(-1.09016e-08 -6.56879e-08 2.28062e-08)
(-1.66694e-08 -7.91811e-08 2.77146e-08)
(-2.46876e-08 -9.26512e-08 3.29321e-08)
(-3.56128e-08 -1.06e-07 3.86655e-08)
(-5.04125e-08 -1.19442e-07 4.51095e-08)
(-7.04372e-08 -1.33252e-07 5.23091e-08)
(-9.73837e-08 -1.47589e-07 6.02183e-08)
(-1.34424e-07 -1.62549e-07 6.81796e-08)
(-1.86376e-07 -1.78458e-07 7.60369e-08)
(-2.6074e-07 -1.95291e-07 8.3374e-08)
(-3.60891e-07 -2.11716e-07 8.94522e-08)
(-4.5685e-07 -2.21896e-07 9.24627e-08)
(-9.06507e-10 -1.419e-08 4.95584e-09)
(-2.84735e-09 -3.94994e-08 1.37139e-08)
(-5.55622e-09 -6.27843e-08 2.1867e-08)
(-9.67438e-09 -8.53677e-08 2.96705e-08)
(-1.5699e-08 -1.07304e-07 3.74409e-08)
(-2.43269e-08 -1.29424e-07 4.54851e-08)
(-3.62504e-08 -1.51293e-07 5.40934e-08)
(-5.24426e-08 -1.73161e-07 6.35223e-08)
(-7.41265e-08 -1.95213e-07 7.40367e-08)
(-1.02765e-07 -2.17914e-07 8.59761e-08)
(-1.40127e-07 -2.40755e-07 9.85859e-08)
(-1.88557e-07 -2.64091e-07 1.11399e-07)
(-2.50907e-07 -2.87824e-07 1.23807e-07)
(-3.28165e-07 -3.11338e-07 1.35206e-07)
(-4.10976e-07 -3.32891e-07 1.44723e-07)
(-4.66999e-07 -3.47607e-07 1.50867e-07)
(-8.27243e-10 -1.93112e-08 6.77811e-09)
(-2.68857e-09 -5.37528e-08 1.8859e-08)
(-5.60561e-09 -8.56652e-08 2.99923e-08)
(-1.02828e-08 -1.15982e-07 4.06454e-08)
(-1.73726e-08 -1.45975e-07 5.12524e-08)
(-2.75355e-08 -1.75392e-07 6.22041e-08)
(-4.16325e-08 -2.04928e-07 7.39259e-08)
(-6.06658e-08 -2.34614e-07 8.68182e-08)
(-8.56924e-08 -2.64664e-07 1.01155e-07)
(-1.17975e-07 -2.94943e-07 1.17147e-07)
(-1.58712e-07 -3.25777e-07 1.34257e-07)
(-2.09416e-07 -3.56407e-07 1.51522e-07)
(-2.71128e-07 -3.86656e-07 1.68076e-07)
(-3.42281e-07 -4.15496e-07 1.83369e-07)
(-4.12246e-07 -4.41254e-07 1.96256e-07)
(-4.56749e-07 -4.59349e-07 2.04662e-07)
(-3.66598e-10 -2.37876e-08 8.49384e-09)
(-1.46724e-09 -6.62951e-08 2.35526e-08)
(-3.83687e-09 -1.05432e-07 3.74684e-08)
(-8.20846e-09 -1.42842e-07 5.07282e-08)
(-1.52461e-08 -1.7901e-07 6.38446e-08)
(-2.55269e-08 -2.1511e-07 7.74007e-08)
(-3.98811e-08 -2.51247e-07 9.19286e-08)
(-5.91136e-08 -2.87792e-07 1.07811e-07)
(-8.40663e-08 -3.2468e-07 1.25469e-07)
(-1.15289e-07 -3.62072e-07 1.45115e-07)
(-1.53661e-07 -3.99328e-07 1.66103e-07)
(-1.99794e-07 -4.36203e-07 1.87158e-07)
(-2.5441e-07 -4.718e-07 2.0735e-07)
(-3.16759e-07 -5.0457e-07 2.26081e-07)
(-3.80214e-07 -5.32085e-07 2.41866e-07)
(-4.25513e-07 -5.49708e-07 2.51989e-07)
(4.6866e-10 -2.74188e-08 9.97294e-09)
(8.56048e-10 -7.63482e-08 2.77913e-08)
(-1.91566e-10 -1.21484e-07 4.41277e-08)
(-3.44536e-09 -1.6415e-07 5.96441e-08)
(-9.32313e-09 -2.05801e-07 7.49671e-08)
(-1.84773e-08 -2.46937e-07 9.07209e-08)
(-3.13991e-08 -2.88441e-07 1.0757e-07)
(-4.86914e-08 -3.3045e-07 1.2595e-07)
(-7.06019e-08 -3.72962e-07 1.46307e-07)
(-9.74469e-08 -4.15716e-07 1.68859e-07)
(-1.28888e-07 -4.58491e-07 1.9294e-07)
(-1.65316e-07 -5.00405e-07 2.17006e-07)
(-2.07121e-07 -5.40574e-07 2.40101e-07)
(-2.55734e-07 -5.77025e-07 2.61589e-07)
(-3.10684e-07 -6.05439e-07 2.7964e-07)
(-3.60623e-07 -6.1706e-07 2.90974e-07)
(1.65627e-09 -3.00017e-08 1.12945e-08)
(4.17121e-09 -8.35603e-08 3.13751e-08)
(5.015e-09 -1.32769e-07 4.97732e-08)
(3.70509e-09 -1.79401e-07 6.71964e-08)