/*--------------------------------*- C++ -*----------------------------------*\
| =========                 |                                                 |
| \\      /  F ield         | OpenFOAM: The Open Source CFD Toolbox           |
|  \\    /   O peration     | Version:  v1912                                 |
|   \\  /    A nd           | Website:  www.openfoam.com                      |
|    \\/     M anipulation  |                                                 |
\*---------------------------------------------------------------------------*/
FoamFile
{
    version     2.0;
    format      ascii;
    class       surfaceScalarField;
    location    "0.1/fluid";
    object      meshPhi;
}
// * * * * * * * * * * * * * * * * * * * * * * * * * * * * * * * * * * * * * //

dimensions      [0 3 -1 0 0 0 0];
oriented        oriented;


internalField   nonuniform List<scalar> 
41600
(
5.38503e-13
-3.36712e-12
1.4727e-12
-1.49779e-12
9.74582e-13
-9.75176e-12
4.28828e-12
-4.36055e-12
1.28294e-12
-1.55555e-11
6.90549e-12
-7.02457e-12
1.43603e-12
-2.1041e-11
9.44925e-12
-9.62533e-12
1.40041e-12
-2.64419e-11
1.20334e-11
-1.22829e-11
1.12567e-12
-3.18286e-11
1.47316e-11
-1.50682e-11
5.62325e-13
-3.71213e-11
1.75874e-11
-1.80168e-11
-3.42024e-13
-4.21988e-11
2.06481e-11
-2.11691e-11
-1.67394e-12
-4.69424e-11
2.39658e-11
-2.45729e-11
-3.575e-12
-5.11958e-11
2.75919e-11
-2.82689e-11
-6.13176e-12
-5.45707e-11
3.15693e-11
-3.22775e-11
-9.33651e-12
-5.61186e-11
3.59441e-11
-3.66069e-11
-1.33017e-11
-5.39711e-11
4.08679e-11
-4.13419e-11
-1.82387e-11
-4.46204e-11
4.67146e-11
-4.67235e-11
-2.32345e-11
-2.35859e-11
5.37433e-11
-5.26542e-11
2.02171e-11
7.37448e-11
-6.2731e-11
1.65967e-12
-6.68597e-12
4.39873e-12
-4.47606e-12
3.01055e-12
-1.93774e-11
1.28075e-11
-1.30346e-11
3.97941e-12
-3.09555e-11
2.06294e-11
-2.10087e-11
4.49128e-12
-4.19114e-11
2.82351e-11
-2.87929e-11
4.44277e-12
-5.26273e-11
3.59391e-11
-3.67151e-11
3.69725e-12
-6.32534e-11
4.39557e-11
-4.49832e-11
2.12953e-12
-7.37359e-11
5.24402e-11
-5.37353e-11
-4.01914e-13
-8.39206e-11
6.15468e-11
-6.31105e-11
-4.12158e-12
-9.36175e-11
7.14241e-11
-7.32418e-11
-9.34242e-12
-1.02544e-10
8.21939e-11
-8.42236e-11
-1.61569e-11
-1.1004e-10
9.39171e-11
-9.60584e-11
-2.4307e-11
-1.14768e-10
1.06639e-10
-1.08689e-10
-3.35016e-11
-1.14636e-10
1.20576e-10
-1.22168e-10
-4.2861e-11
-1.06935e-10
1.36219e-10
-1.36644e-10
-4.86687e-11
-9.05776e-11
1.53541e-10
-1.51116e-10
-6.87309e-11
1.78233e-10
-1.62718e-10
2.89825e-12
-9.85109e-12
7.25574e-12
-7.39142e-12
5.2771e-12
-2.85783e-11
2.11284e-11
-2.15318e-11
7.03034e-12
-4.57105e-11
3.40435e-11
-3.4722e-11
8.04434e-12
-6.19073e-11
4.65938e-11
-4.75819e-11
8.15672e-12
-7.76738e-11
5.92523e-11
-6.05975e-11
7.18806e-12
-9.32796e-11
7.23724e-11
-7.41163e-11
4.97849e-12
-1.08769e-10
8.62561e-11
-8.84249e-11
1.34949e-12
-1.24035e-10
1.01187e-10
-1.03789e-10
-3.98018e-12
-1.38884e-10
1.17395e-10
-1.20414e-10
-1.12685e-11
-1.52968e-10
1.35014e-10
-1.38398e-10
-2.03835e-11
-1.65537e-10
1.54044e-10
-1.57663e-10
-3.06161e-11
-1.75288e-10
1.74432e-10
-1.78015e-10
-4.0831e-11
-1.80502e-10
1.96195e-10
-1.99259e-10
-4.84386e-11
-1.79481e-10
2.19301e-10
-2.20914e-10
-4.79535e-11
-1.72276e-10
2.42795e-10
-2.40753e-10
-1.60394e-10
2.73376e-10
-2.59664e-10
4.2955e-12
-1.27257e-11
9.97849e-12
-1.01777e-11
7.85832e-12
-3.69428e-11
2.90606e-11
-2.96553e-11
1.0566e-11
-5.91302e-11
4.68263e-11
-4.78267e-11
1.22815e-11
-8.00908e-11
6.40557e-11
-6.54978e-11
1.28266e-11
-1.0045e-10
8.13605e-11
-8.3292e-11
1.20282e-11
-1.20611e-10
9.92372e-11
-1.01705e-10
9.73375e-12
-1.40759e-10
1.18149e-10
-1.21188e-10
5.79015e-12
-1.60893e-10
1.38518e-10
-1.42145e-10
-2.7949e-14
-1.80869e-10
1.60646e-10
-1.64857e-10
-7.78158e-12
-2.00354e-10
1.84656e-10
-1.89402e-10
-1.70634e-11
-2.18665e-10
2.10497e-10
-2.1565e-10
-2.68739e-11
-2.34717e-10
2.38061e-10
-2.43354e-10
-3.58435e-11
-2.47085e-10
2.67156e-10
-2.72076e-10
-4.14322e-11
-2.54146e-10
2.97131e-10
-3.0068e-10
-3.91182e-11
-2.54884e-10
3.25918e-10
-3.25786e-10
-2.48668e-10
3.5819e-10
-3.46304e-10
5.86069e-12
-1.51649e-11
1.24982e-11
-1.27609e-11
1.0771e-11
-4.404e-11
3.63944e-11
-3.71804e-11
1.46112e-11
-7.05185e-11
5.86185e-11
-5.99394e-11
1.7252e-11
-9.55305e-11
8.01105e-11
-8.20011e-11
1.85498e-11
-1.19817e-10
1.0161e-10
-1.04117e-10
1.83747e-11
-1.43927e-10
1.23755e-10
-1.2693e-10
1.66298e-11
-1.68191e-10
1.47169e-10
-1.51055e-10
1.3232e-11
-1.92725e-10
1.72404e-10
-1.77029e-10
8.11409e-12
-2.17474e-10
1.99828e-10
-2.05201e-10
1.45621e-12
-2.4221e-10
2.29575e-10
-2.35672e-10
-6.08102e-12
-2.66462e-10
2.61626e-10
-2.68362e-10
-1.33639e-11
-2.89487e-10
2.95955e-10
-3.03127e-10
-1.93203e-11
-3.1019e-10
3.32326e-10
-3.39492e-10
-2.25969e-11
-3.26731e-10
3.6956e-10
-3.75798e-10
-2.07036e-11
-3.36088e-10
4.04137e-10
-4.07166e-10
-3.34516e-10
4.38456e-10
-4.29922e-10
7.57525e-12
-1.70439e-11
1.47568e-11
-1.50797e-11
1.39781e-11
-4.95072e-11
4.29567e-11
-4.39225e-11
1.91153e-11
-7.92924e-11
6.91322e-11
-7.07524e-11
2.2896e-11
-1.07443e-10
9.4354e-11
-9.6663e-11
2.52426e-11
-1.34817e-10
1.19477e-10
-1.22522e-10
2.60977e-11
-1.62086e-10
1.45274e-10
-1.49109e-10
2.54537e-11
-1.89702e-10
1.72507e-10
-1.77185e-10
2.33374e-11
-2.17892e-10
2.01843e-10
-2.07403e-10
1.98748e-11
-2.46709e-10
2.33715e-10
-2.40181e-10
1.5518e-11
-2.76082e-10
2.68304e-10
-2.75692e-10
1.12204e-11
-3.05831e-10
3.05717e-10
-3.14024e-10
8.34543e-12
-3.35723e-10
3.46204e-10
-3.55355e-10
7.88069e-12
-3.65462e-10
3.89902e-10
-3.99638e-10
1.02417e-11
-3.94102e-10
4.35787e-10
-4.45484e-10
1.53843e-11
-4.18102e-10
4.79376e-10
-4.87042e-10
-4.24695e-10
5.20235e-10
-5.17397e-10
9.40057e-12
-1.82661e-11
1.67175e-11
-1.70958e-11
1.74079e-11
-5.30621e-11
4.8639e-11
-4.97693e-11
2.39698e-11
-8.5008e-11
7.81911e-11
-8.00803e-11
2.90533e-11
-1.15243e-10
1.0654e-10
-1.0922e-10
3.26555e-11
-1.44715e-10
1.34632e-10
-1.38151e-10
3.48055e-11
-1.7419e-10
1.63347e-10
-1.67765e-10
3.55985e-11
-2.04206e-10
1.93568e-10
-1.98945e-10
3.51914e-11
-2.35063e-10
2.26055e-10
-2.32442e-10
3.38927e-11
-2.66913e-10
2.61301e-10
-2.68735e-10
3.24273e-11
-2.99814e-10
2.99531e-10
-3.08076e-10
3.20904e-11
-3.33824e-10
3.40996e-10
-3.50752e-10
3.47223e-11
-3.69211e-10
3.86336e-10
-3.974e-10
4.20325e-11
-4.0667e-10
4.36466e-10
-4.48871e-10
5.5384e-11
-4.47242e-10
4.91545e-10
-5.05252e-10
7.39667e-11
-4.89646e-10
5.47763e-10
-5.6168e-10
-5.37522e-10
6.02511e-10
-6.14041e-10
1.12735e-11
1.83579e-11
-1.87872e-11
-1.87643e-11
2.09383e-11
5.33801e-11
-5.46582e-11
-5.45248e-11
2.89898e-11
8.57024e-11
-8.7827e-11
-8.73996e-11
3.54524e-11
1.16541e-10
-1.19539e-10
-1.18585e-10
4.03895e-11
1.46893e-10
-1.50812e-10
-1.49085e-10
4.39126e-11
1.77721e-10
-1.82624e-10
-1.79707e-10
4.6216e-11
2.09998e-10
-2.15954e-10
-2.11025e-10
4.75674e-11
2.44559e-10
-2.51622e-10
-2.4339e-10
4.84245e-11
2.81919e-10
-2.9014e-10
-2.76994e-10
4.96758e-11
3.22295e-10
-3.31779e-10
-3.11946e-10
5.28546e-11
3.65964e-10
-3.76907e-10
-3.4836e-10
6.0208e-11
4.13781e-10
-4.26451e-10
-3.86559e-10
7.43045e-11
4.67235e-10
-4.81959e-10
-4.27321e-10
9.82067e-11
5.27643e-10
-5.45007e-10
-4.71788e-10
1.316e-10
5.92155e-10
-6.12326e-10
-5.18185e-10
6.63646e-10
-6.98253e-10
-5.78717e-10
3.57511e-13
-3.50317e-12
1.38408e-12
6.2028e-13
-1.01552e-11
4.0311e-12
7.49186e-13
-1.6219e-11
6.49341e-12
7.03958e-13
-2.19511e-11
8.88129e-12
4.34222e-13
-2.75753e-11
1.12892e-11
-1.25088e-13
-3.31732e-11
1.37865e-11
-1.04633e-12
-3.86885e-11
1.64266e-11
-2.42652e-12
-4.40252e-11
1.9265e-11
-4.42742e-12
-4.91088e-11
2.23606e-11
-7.27267e-12
-5.38547e-11
2.57586e-11
-1.12293e-11
-5.8017e-11
2.94764e-11
-1.67325e-11
-6.09795e-11
3.3517e-11
-2.47884e-11
-6.15885e-11
3.78752e-11
-3.73539e-11
-5.7966e-11
4.24655e-11
-5.54377e-11
-4.82714e-11
4.6778e-11
-3.31377e-11
4.95394e-11
1.12414e-12
-6.9459e-12
4.13025e-12
1.96437e-12
-2.01409e-11
1.20273e-11
2.40863e-12
-3.21954e-11
1.93729e-11
2.34141e-12
-4.36033e-11
2.64953e-11
1.61646e-12
-5.47504e-11
3.3666e-11
5.52311e-14
-6.58035e-11
4.10912e-11
-2.53694e-12
-7.67333e-11
4.89438e-11
-6.42423e-12
-8.74244e-11
5.7397e-11
-1.20089e-11
-9.77516e-11
6.66112e-11
-1.98199e-11
-1.07541e-10
7.66897e-11
-3.0388e-11
-1.16347e-10
8.76407e-11
-4.44656e-11
-1.23256e-10
9.9403e-11
-6.35627e-11
-1.26933e-10
1.1182e-10
-8.97806e-11
-1.25954e-10
1.24358e-10
-1.21747e-10
-1.20335e-10
1.35394e-10
-1.16895e-10
1.35233e-10
2.03324e-12
-1.02143e-11
6.80394e-12
3.59358e-12
-2.96383e-11
1.98111e-11
4.51195e-12
-4.74203e-11
3.1908e-11
4.61161e-12
-6.42423e-11
4.36267e-11
3.67435e-12
-8.06248e-11
5.53945e-11
1.45363e-12
-9.68503e-11
6.75545e-11
-2.31658e-12
-1.12984e-10
8.04208e-11
-7.98446e-12
-1.28958e-10
9.42924e-11
-1.60345e-11
-1.44639e-10
1.09403e-10
-2.70059e-11
-1.59789e-10
1.25862e-10
-4.12952e-11
-1.73869e-10
1.43614e-10
-5.9303e-11
-1.85947e-10
1.62478e-10
-8.15199e-11
-1.94896e-10
1.82039e-10
-1.07354e-10
-1.99863e-10
2.01192e-10
-1.31744e-10
-2.01354e-10
2.17454e-10
-2.03153e-10
2.22564e-10
3.14653e-12
-1.31718e-11
9.34498e-12
5.62945e-12
-3.82395e-11
2.72068e-11
7.24477e-12
-6.12154e-11
4.38077e-11
7.78152e-12
-8.29391e-11
5.98591e-11
6.99764e-12
-1.04057e-10
7.59285e-11
4.63664e-12
-1.24986e-10
9.25003e-11
4.24044e-13
-1.45926e-10
1.10039e-10
-5.96868e-12
-1.66896e-10
1.28967e-10
-1.49626e-11
-1.87796e-10
1.49573e-10
-2.68969e-11
-2.08382e-10
1.71952e-10
-4.19041e-11
-2.28124e-10
1.96e-10
-6.00377e-11
-2.46197e-10
2.21468e-10
-8.12475e-11
-2.61587e-10
2.47753e-10
-1.04408e-10
-2.73277e-10
2.73299e-10
-1.2505e-10
-2.80728e-10
2.94902e-10
-2.86136e-10
3.03716e-10
4.48941e-12
-1.56757e-11
1.16927e-11
8.11887e-12
-4.55212e-11
3.40322e-11
1.06773e-11
-7.28928e-11
5.47642e-11
1.1959e-11
-9.87648e-11
7.47542e-11
1.17518e-11
-1.23907e-10
9.47e-11
9.84209e-12
-1.48879e-10
1.15225e-10
6.01259e-12
-1.74016e-10
1.3694e-10
3.11423e-14
-1.99436e-10
1.60375e-10
-8.341e-12
-2.25104e-10
1.85871e-10
-1.91763e-11
-2.50837e-10
2.13523e-10
-3.23387e-11
-2.76237e-10
2.43235e-10
-4.76855e-11
-3.00676e-10
2.74797e-10
-6.53517e-11
-3.23271e-10
3.07557e-10
-8.54289e-11
-3.4257e-10
3.39582e-10
-1.05755e-10
-3.56125e-10
3.66707e-10
-3.64309e-10
3.79099e-10
6.05121e-12
-1.75994e-11
1.37961e-11
1.10403e-11
-5.11141e-11
4.01362e-11
1.47794e-11
-8.18599e-11
6.45276e-11
1.71045e-11
-1.10929e-10
8.79635e-11
1.78711e-11
-1.3921e-10
1.11256e-10
1.69466e-11
-1.67384e-10
1.35154e-10
1.42198e-11
-1.95896e-10
1.60395e-10
9.60707e-12
-2.24957e-10
1.87606e-10
3.10599e-12
-2.54611e-10
2.1718e-10
-5.05481e-12
-2.84787e-10
2.49233e-10
-1.44001e-11
-3.15281e-10
2.83738e-10
-2.44796e-11
-3.45823e-10
3.20657e-10
-3.55282e-11
-3.76085e-10
3.59547e-10
-4.89256e-11
-4.05163e-10
3.98446e-10
-6.57101e-11
-4.29944e-10
4.32347e-10
-4.41422e-10
4.50251e-10
7.7906e-12
-1.88421e-11
1.5619e-11
1.43148e-11
-5.47282e-11
4.5415e-11
1.94311e-11
-8.76668e-11
7.29341e-11
2.30372e-11
-1.18845e-10
9.92606e-11
2.50698e-11
-1.4924e-10
1.25293e-10
2.54959e-11
-1.79623e-10
1.5188e-10
2.43326e-11
-2.10511e-10
1.79865e-10
2.16666e-11
-2.42179e-10
2.09959e-10
1.77275e-11
-2.74743e-10
2.42595e-10
1.30656e-11
-3.08215e-10
2.77909e-10
8.59466e-12
-3.42547e-10
3.15948e-10
5.38985e-12
-3.77809e-10
3.56909e-10
4.05456e-12
-4.14398e-10
4.00779e-10
4.07583e-12
-4.52826e-10
4.46058e-10
3.2946e-12
-4.91467e-10
4.87349e-10
-5.31978e-10
5.11602e-10
9.63251e-12
1.71373e-11
-1.93389e-11
1.7797e-11
4.98016e-11
-5.61872e-11
2.4409e-11
7.98798e-11
-9.0052e-11
2.94289e-11
1.08504e-10
-1.22175e-10
3.28691e-11
1.36622e-10
-1.53585e-10
3.47947e-11
1.65155e-10
-1.85087e-10
3.53461e-11
1.95026e-10
-2.17232e-10
3.47559e-11
2.27007e-10
-2.50328e-10
3.34415e-11
2.61543e-10
-2.84522e-10
3.21927e-11
2.98744e-10
-3.19839e-10
3.22886e-11
3.38644e-10
-3.56221e-10
3.54333e-11
3.8155e-10
-3.93696e-10
4.34238e-11
4.27789e-10
-4.3253e-10
5.80283e-11
4.7644e-10
-4.72881e-10
7.84418e-11
5.22146e-10
-5.11936e-10
5.51008e-10
-5.47685e-10
1.72583e-13
-3.62454e-12
1.23671e-12
2.5886e-13
-1.05154e-11
3.60121e-12
2.05623e-13
-1.68193e-11
5.79928e-12
-4.09864e-14
-2.27937e-11
7.92678e-12
-5.46119e-13
-2.86443e-11
1.00621e-11
-1.38821e-12
-3.44522e-11
1.2266e-11
-2.66065e-12
-4.01847e-11
1.4593e-11
-4.49884e-12
-4.57805e-11
1.70999e-11
-7.12148e-12
-5.12217e-11
1.98432e-11
-1.08427e-11
-5.65177e-11
2.28629e-11
-1.60978e-11
-6.15915e-11
2.61467e-11
-2.36941e-11
-6.62037e-11
2.96292e-11
-3.5328e-11
-7.00192e-11
3.31913e-11
-5.41219e-11
-7.28482e-11
3.65391e-11
-8.17149e-11
-7.50999e-11
3.89764e-11
-7.69314e-11
4.2919e-11
5.77711e-13
-7.17369e-12
3.68748e-12
8.98186e-13
-2.08167e-11
1.0736e-11
8.08241e-13
-3.33135e-11
1.72868e-11
1.52548e-13
-4.51595e-11
2.36237e-11
-1.25277e-12
-5.67277e-11
2.99756e-11
-3.62435e-12
-6.81879e-11
3.65289e-11
-7.22008e-12
-7.95383e-11
4.34553e-11
-1.24051e-11
-9.07173e-11
5.09267e-11
-1.97355e-11
-1.0169e-10
5.90998e-11
-2.99567e-11
-1.12417e-10
6.80584e-11
-4.40202e-11
-1.227e-10
7.77273e-11
-6.3532e-11
-1.32111e-10
8.78842e-11
-9.13531e-11
-1.40142e-10
9.81136e-11
-1.3145e-10
-1.46554e-10
1.07459e-10
-1.82429e-10
-1.518e-10
1.14031e-10
-1.58734e-10
1.15706e-10
1.15172e-12
-1.0531e-11
6.06834e-12
1.87758e-12
-3.05717e-11
1.76651e-11
1.94313e-12
-4.89495e-11
2.84365e-11
1.1125e-12
-6.63605e-11
3.88418e-11
-8.821e-13
-8.33212e-11
4.92515e-11
-4.34628e-12
-1.00115e-10
5.99836e-11
-9.64173e-12
-1.16833e-10
7.13418e-11
-1.72569e-11
-1.33461e-10
8.36125e-11
-2.78717e-11
-1.49954e-10
9.70213e-11
-4.22914e-11
-1.66207e-10
1.11641e-10
-6.14318e-11
-1.81922e-10
1.27302e-10
-8.66157e-11
-1.96592e-10
1.4363e-10
-1.19469e-10
-2.09707e-10
1.5993e-10
-1.60369e-10
-2.21106e-10
1.74735e-10
-2.02618e-10
-2.31119e-10
1.85538e-10
-2.40933e-10
1.91744e-10
1.97485e-12
-1.35594e-11
8.32756e-12
3.35442e-12
-3.93744e-11
2.42361e-11
3.85133e-12
-6.30608e-11
3.89949e-11
3.18595e-12
-8.54814e-11
5.32213e-11
1.06043e-12
-1.07286e-10
6.74198e-11
-2.85449e-12
-1.28897e-10
8.20439e-11
-8.94307e-12
-1.50528e-10
9.75342e-11
-1.76889e-11
-1.72237e-10
1.14282e-10
-2.96968e-11
-1.93981e-10
1.32552e-10
-4.5586e-11
-2.1562e-10
1.52391e-10
-6.60082e-11
-2.36809e-10
1.73567e-10
-9.18424e-11
-2.57011e-10
1.9562e-10
-1.23876e-10
-2.75643e-10
2.1769e-10
-1.61369e-10
-2.92221e-10
2.38032e-10
-1.97915e-10
-3.06279e-10
2.53753e-10
-3.18552e-10
2.63843e-10
3.08782e-12
-1.61182e-11
1.0413e-11
5.40579e-12
-4.68109e-11
3.02936e-11
6.64952e-12
-7.49734e-11
4.87035e-11
6.54128e-12
-1.0161e-10
6.63983e-11
4.81011e-12
-1.27505e-10
8.40074e-11
1.16655e-12
-1.53218e-10
1.02116e-10
-4.71562e-12
-1.79089e-10
1.21291e-10
-1.32085e-11
-2.05246e-10
1.42015e-10
-2.47109e-11
-2.31679e-10
1.64583e-10
-3.9558e-11
-2.58255e-10
1.89029e-10
-5.80979e-11
-2.84655e-10
2.15103e-10
-8.09376e-11
-3.10379e-10
2.42334e-10
-1.0893e-10
-3.34768e-10
2.69798e-10
-1.42463e-10
-3.56783e-10
2.95518e-10
-1.77594e-10
-3.74399e-10
3.16025e-10
-3.87562e-10
3.29645e-10
4.48809e-12
-1.80802e-11
1.22805e-11
8.02498e-12
-5.25087e-11
3.5708e-11
1.03271e-11
-8.40948e-11
5.73511e-11
1.11589e-11
-1.13966e-10
7.80808e-11
1.03168e-11
-1.43024e-10
9.86339e-11
7.59779e-12
-1.71952e-10
1.19709e-10
2.79492e-12
-2.01184e-10
1.41984e-10
-4.28474e-12
-2.30915e-10
1.66018e-10
-1.37723e-11
-2.61177e-10
1.92144e-10
-2.56645e-11
-2.91886e-10
2.2039e-10
-3.99258e-11
-3.22797e-10
2.50524e-10
-5.682e-11
-3.53573e-10
2.82138e-10
-7.73418e-11
-3.83818e-10
3.14373e-10
-1.0342e-10
-4.12655e-10
3.45136e-10
-1.3471e-10
-4.37349e-10
3.70338e-10
-4.49558e-10
3.87625e-10
6.13037e-12
-1.93417e-11
1.38956e-11
1.11241e-11
-5.61746e-11
4.03813e-11
1.47475e-11
-8.9976e-11
6.47843e-11
1.68299e-11
-1.21965e-10
8.80596e-11
1.7252e-11
-1.53136e-10
1.11023e-10
1.59206e-11
-1.84251e-10
1.3446e-10
1.27777e-11
-2.15806e-10
1.59137e-10
7.83118e-12
-2.48039e-10
1.85686e-10
1.22476e-12
-2.81024e-10
2.14461e-10
-6.66945e-12
-3.147e-10
2.45485e-10
-1.53121e-11
-3.48873e-10
2.78535e-10
-2.42889e-11
-3.83354e-10
3.13302e-10
-3.38138e-11
-4.18112e-10
3.49088e-10
-4.52699e-11
-4.52987e-10
3.83831e-10
-6.00527e-11
-4.85842e-10
4.1287e-10
-5.1928e-10
4.32774e-10
7.92571e-12
1.52316e-11
-1.98402e-11
1.4529e-11
4.42387e-11
-5.76374e-11
1.9642e-11
7.08887e-11
-9.23627e-11
2.31627e-11
9.61828e-11
-1.25286e-10
2.50541e-11
1.20981e-10
-1.57447e-10
2.53333e-11
1.46131e-10
-1.89637e-10
2.40828e-11
1.72464e-10
-2.22377e-10
2.14837e-11
2.00657e-10
-2.55931e-10
1.79046e-11
2.31065e-10
-2.90381e-10
1.40207e-11
2.63672e-10
-3.25636e-10
1.08283e-11
2.98219e-10
-3.61428e-10
9.47974e-12
3.34424e-10
-3.97429e-10
1.10312e-11
3.71725e-10
-4.33287e-10
1.63896e-11
4.08242e-10
-4.68133e-10
2.53031e-11
4.39059e-10
-4.98307e-10
4.59363e-10
-5.19468e-10
-4.2782e-15
-3.7232e-12
1.03624e-12
-8.51999e-14
-1.08064e-11
3.01571e-12
-3.09097e-13
-1.7303e-11
4.85294e-12
-7.41586e-13
-2.34804e-11
6.62731e-12
-1.45931e-12
-2.95399e-11
8.40271e-12
-2.55156e-12
-3.55572e-11
1.02317e-11
-4.12834e-12
-4.1505e-11
1.21636e-11
-6.35153e-12
-4.73506e-11
1.42519e-11
-9.47521e-12
-5.313e-11
1.6556e-11
-1.38678e-11
-5.89289e-11
1.91065e-11
-2.00721e-11
-6.47958e-11
2.18588e-11
-2.90796e-11
-7.07388e-11
2.47244e-11
-4.28311e-11
-7.68615e-11
2.76043e-11
-6.46322e-11
-8.359e-11
3.03453e-11
-9.54119e-11
-9.1435e-11
3.26805e-11
-9.74827e-11
3.74541e-11
5.62264e-14
-7.35962e-12
3.0883e-12
-1.15645e-13
-2.13674e-11
8.98735e-12
-7.06664e-13
-3.42286e-11
1.44604e-11
-1.90528e-12
-4.64537e-11
1.97412e-11
-3.92535e-12
-5.84088e-11
2.50199e-11
-7.01472e-12
-7.02534e-11
3.04582e-11
-1.14799e-11
-8.19996e-11
3.62117e-11
-1.77569e-11
-9.3635e-11
4.24442e-11
-2.64943e-11
-1.05206e-10
4.93127e-11
-3.85739e-11
-1.16787e-10
5.68702e-11
-5.52089e-11
-1.28362e-10
6.49662e-11
-7.83948e-11
-1.39812e-10
7.33272e-11
-1.11379e-10
-1.51058e-10
8.15973e-11
-1.58053e-10
-1.62139e-10
8.91912e-11
-2.14788e-10
-1.7273e-10
9.5224e-11
-1.82337e-10
9.85381e-11
3.12292e-13
-1.07923e-11
5.07963e-12
2.47917e-13
-3.13435e-11
1.47803e-11
-4.86515e-13
-5.02258e-11
2.37728e-11
-2.17526e-12
-6.81526e-11
3.24351e-11
-5.12614e-12
-8.56307e-11
4.10786e-11
-9.6928e-12
-1.02935e-10
4.99833e-11
-1.63109e-11
-1.20178e-10
5.94251e-11
-2.55661e-11
-1.37396e-10
6.96713e-11
-3.82555e-11
-1.5462e-10
8.09351e-11
-5.53594e-11
-1.71861e-10
9.3244e-11
-7.80942e-11
-1.88997e-10
1.06341e-10
-1.08136e-10
-2.05783e-10
1.19787e-10
-1.4724e-10
-2.22001e-10
1.32974e-10
-1.94976e-10
-2.37536e-10
1.44939e-10
-2.41496e-10
-2.51877e-10
1.54369e-10
-2.64119e-10
1.61229e-10
8.6063e-13
-1.38834e-11
6.96789e-12
1.19594e-12
-4.03282e-11
2.02692e-11
6.44247e-13
-6.46249e-11
3.25819e-11
-1.13058e-12
-8.76533e-11
4.44137e-11
-4.47161e-12
-1.10059e-10
5.61938e-11
-9.76747e-12
-1.32259e-10
6.83262e-11
-1.74888e-11
-1.54487e-10
8.12073e-11
-2.82236e-11
-1.76833e-10
9.5189e-11
-4.2692e-11
-1.99312e-10
1.10511e-10
-6.16907e-11
-2.21866e-10
1.27176e-10
-8.61406e-11
-2.44275e-10
1.44855e-10
-1.17167e-10
-2.66174e-10
1.62993e-10
-1.55444e-10
-2.87151e-10
1.80826e-10
-1.99046e-10
-3.06743e-10
1.97209e-10
-2.38419e-10
-3.2394e-10
2.10572e-10
-3.38039e-10
2.20468e-10
1.75516e-12
-1.64922e-11
8.71055e-12
2.83188e-12
-4.79061e-11
2.53279e-11
2.84275e-12
-7.67516e-11
4.06789e-11
1.45003e-12
-1.04052e-10
5.53858e-11
-1.66579e-12
-1.30589e-10
6.99885e-11
-6.85747e-12
-1.56925e-10
8.50084e-11
-1.45372e-11
-1.83402e-10
1.0095e-10
-2.51725e-11
-2.10167e-10
1.18235e-10
-3.9263e-11
-2.37228e-10
1.37122e-10
-5.72972e-11
-2.64487e-10
1.57599e-10
-7.98479e-11
-2.91667e-10
1.793e-10
-1.07702e-10
-3.1832e-10
2.01601e-10
-1.4151e-10
-3.43842e-10
2.23651e-10
-1.80426e-10
-3.67197e-10
2.44139e-10
-2.17575e-10
-3.86126e-10
2.6111e-10
-3.99516e-10
2.73606e-10
2.99945e-12
-1.84898e-11
1.02699e-11
5.16007e-12
-5.37021e-11
2.98462e-11
6.11256e-12
-8.60162e-11
4.7887e-11
5.56034e-12
-1.16577e-10
6.51102e-11
3.25008e-12
-1.46288e-10
8.21496e-11
-1.08152e-12
-1.75829e-10
9.96243e-11
-7.71754e-12
-2.05632e-10
1.1813e-10
-1.69283e-11
-2.35881e-10
1.38154e-10
-2.89229e-11
-2.66597e-10
1.59972e-10
-4.38187e-11
-2.97665e-10
1.83558e-10
-6.17694e-11
-3.28791e-10
2.08526e-10
-8.32072e-11
-3.59557e-10
2.34236e-10
-1.08971e-10
-3.89459e-10
2.59807e-10
-1.39909e-10
-4.17521e-10
2.83797e-10
-1.72975e-10
-4.41027e-10
3.03832e-10
-4.5112e-10
3.18488e-10
4.54413e-12
-1.97721e-11
1.16136e-11
8.08207e-12
-5.74244e-11
3.37317e-11
1.02977e-11
-9.1974e-11
5.4062e-11
1.09612e-11
-1.24656e-10
7.33933e-11
9.90522e-12
-1.56464e-10
9.24268e-11
6.98398e-12
-1.88155e-10
1.11856e-10
2.07639e-12
-2.20211e-10
1.32349e-10
-4.86745e-12
-2.52847e-10
1.54444e-10
-1.37549e-11
-2.86087e-10
1.78429e-10
-2.43007e-11
-3.1979e-10
2.04256e-10
-3.61219e-11
-3.53632e-10
2.31519e-10
-4.89815e-11
-3.87221e-10
2.59582e-10
-6.30481e-11
-4.20242e-10
2.87575e-10
-7.88603e-11
-4.52242e-10
3.13971e-10
-9.53962e-11
-4.81246e-10
3.36032e-10
-5.11015e-10
3.51937e-10
6.28658e-12
1.27137e-11
-2.02772e-11
1.13966e-11
3.69068e-11
-5.8903e-11
1.50878e-11
5.90856e-11
-9.43758e-11
1.72048e-11
8.00817e-11
-1.27977e-10
1.76677e-11
1.00637e-10
-1.60741e-10
1.64476e-11
1.21493e-10
-1.93454e-10
1.35749e-11
1.43364e-10
-2.26618e-10
9.18959e-12
1.66815e-10
-2.60461e-10
3.63229e-12
1.92126e-10
-2.94995e-10
-2.47171e-12
2.19213e-10
-3.30014e-10
-8.24252e-12
2.47631e-10
-3.65077e-10
-1.27067e-11
2.76717e-10
-3.99596e-10
-1.48587e-11
3.05605e-10
-4.32865e-10
-1.32005e-11
3.32764e-10
-4.63644e-10
-6.01498e-12
3.55223e-10
-4.8855e-10
3.70926e-10
-5.05212e-10
-1.61315e-13
-3.79506e-12
7.95225e-13
-3.89272e-13
-1.10173e-11
2.31198e-12
-7.60669e-13
-1.76521e-11
3.71452e-12
-1.35205e-12
-2.39877e-11
5.06519e-12
-2.24803e-12
-3.02344e-11
6.41639e-12
-3.54376e-12
-3.64511e-11
7.8102e-12
-5.36041e-12
-4.26038e-11
9.28648e-12
-7.87242e-12
-4.86832e-11
1.08943e-11
-1.13433e-11
-5.47631e-11
1.26896e-11
-1.61544e-11
-6.09692e-11
1.4689e-11
-2.28841e-11
-6.74014e-11
1.68383e-11
-3.25826e-11
-7.41688e-11
1.90603e-11
-4.72452e-11
-8.15182e-11
2.12883e-11
-7.01319e-11
-8.99096e-11
2.3463e-11
-1.01781e-10
-9.94292e-11
2.54667e-11
-1.05838e-10
2.95394e-11
-4.06517e-13
-7.49766e-12
2.36966e-12
-1.01143e-12
-2.17749e-11
6.8893e-12
-2.03722e-12
-3.49123e-11
1.10683e-11
-3.70062e-12
-4.74483e-11
1.509e-11
-6.23529e-12
-5.97442e-11
1.91075e-11
-9.90821e-12
-7.19384e-11
2.32512e-11
-1.50573e-11
-8.40459e-11
2.76507e-11
-2.21516e-11
-9.60924e-11
3.24525e-11
-3.18625e-11
-1.08182e-10
3.77982e-11
-4.51015e-11
-1.20447e-10
4.37151e-11
-6.31612e-11
-1.32942e-10
5.00393e-11
-8.81357e-11
-1.45681e-10
5.65192e-11
-1.23287e-10
-1.58696e-10
6.28942e-11
-1.72145e-10
-1.71858e-10
6.88478e-11
-2.29963e-10
-1.84074e-10
7.38783e-11
-1.93659e-10
7.68193e-11
-4.32169e-13
-1.09912e-11
3.89678e-12
-1.19225e-12
-3.19351e-11
1.13287e-11
-2.62323e-12
-5.12186e-11
1.81973e-11
-5.04604e-12
-6.9574e-11
2.47959e-11
-8.79556e-12
-8.74959e-11
3.13727e-11
-1.42581e-11
-1.05245e-10
3.81569e-11
-2.1915e-11
-1.22944e-10
4.538e-11
-3.23936e-11
-1.40667e-10
5.32738e-11
-4.65172e-11
-1.58503e-10
6.20249e-11
-6.52998e-11
-1.76519e-10
7.16485e-11
-9.00271e-11
-1.94668e-10
8.18815e-11
-1.22404e-10
-2.12811e-10
9.229e-11
-1.64003e-10
-2.30769e-10
1.02401e-10
-2.13618e-10
-2.48187e-10
1.11631e-10
-2.59971e-10
-2.63876e-10
1.19151e-10
-2.76256e-10
1.24576e-10
-1.27576e-13
-1.41382e-11
5.34485e-12
-7.12847e-13
-4.10841e-11
1.55365e-11
-2.17809e-12
-6.58784e-11
2.4944e-11
-4.90093e-12
-8.94135e-11
3.39571e-11
-9.25666e-12
-1.12323e-10
4.2918e-11
-1.56752e-11
-1.35015e-10
5.21603e-11
-2.46797e-11
-1.57734e-10
6.20129e-11
-3.6898e-11
-1.80602e-10
7.27732e-11
-5.30698e-11
-2.0367e-10
8.4658e-11
-7.40188e-11
-2.26919e-10
9.76721e-11
-1.00699e-10
-2.50187e-10
1.11471e-10
-1.34168e-10
-2.73168e-10
1.25476e-10
-1.74764e-10
-2.95435e-10
1.39064e-10
-2.19608e-10
-3.16309e-10
1.5152e-10
-2.57852e-10
-3.34311e-10
1.61832e-10
-3.48342e-10
1.69287e-10
5.71926e-13
-1.6793e-11
6.68142e-12
5.53251e-13
-4.87924e-11
1.94153e-11
-5.09925e-13
-7.82034e-11
3.11475e-11
-3.00035e-12
-1.06056e-10
4.23516e-11
-7.27361e-12
-1.33122e-10
5.34583e-11
-1.37278e-11
-1.59956e-10
6.48978e-11
-2.28256e-11
-1.86913e-10
7.7085e-11
-3.50666e-11
-2.14151e-10
9.03704e-11
-5.09597e-11
-2.41692e-10
1.04996e-10
-7.10024e-11
-2.69445e-10
1.20962e-10
-9.57641e-11
-2.97145e-10
1.37861e-10
-1.2591e-10
-3.24353e-10
1.55004e-10
-1.61693e-10
-3.50415e-10
1.71663e-10
-2.01315e-10
-3.74131e-10
1.87006e-10
-2.36802e-10
-3.92978e-10
1.99757e-10
-4.05648e-10
2.08853e-10
1.67471e-12
-1.88242e-11
7.87549e-12
2.61843e-12
-5.4683e-11
2.28748e-11
2.39335e-12
-8.76052e-11
3.66632e-11
6.55933e-13
-1.18738e-10
4.97848e-11
-2.88558e-12
-1.48977e-10
6.27441e-11
-8.53872e-12
-1.78994e-10
7.60508e-11
-1.66303e-11
-2.09226e-10
9.01921e-11
-2.74526e-11
-2.39859e-10
1.05565e-10
-4.12135e-11
-2.70892e-10
1.22429e-10
-5.80199e-11
-3.02179e-10
1.40779e-10
-7.79963e-11
-3.33396e-10
1.6016e-10
-1.01443e-10
-3.64078e-10
1.79811e-10
-1.28824e-10
-3.93641e-10
1.98937e-10
-1.60114e-10
-4.21022e-10
2.16604e-10
-1.91314e-10
-4.43531e-10
2.3128e-10
-4.52444e-10
2.41605e-10
3.12731e-12
-2.01296e-11
8.89849e-12
5.37327e-12
-5.84657e-11
2.58328e-11
6.35612e-12
-9.36431e-11
4.13619e-11
5.7995e-12
-1.26896e-10
5.60849e-11
3.49852e-12
-1.59208e-10
7.05612e-11
-7.33047e-13
-1.91332e-10
8.53587e-11
-7.05311e-12
-2.2375e-10
1.01018e-10
-1.5526e-11
-2.56659e-10
1.17969e-10
-2.60486e-11
-2.90042e-10
1.36477e-10
-3.83091e-11
-3.23693e-10
1.5652e-10
-5.18803e-11
-3.57213e-10
1.7761e-10
-6.64106e-11
-3.90123e-10
1.98947e-10
-8.17581e-11
-4.22012e-10
2.19693e-10
-9.766e-11
-4.52418e-10
2.38838e-10
-1.12187e-10
-4.79725e-10
2.54687e-10
-5.0891e-10
2.658e-10
4.81569e-12
9.72432e-12
-2.06448e-11
8.59431e-12
2.82164e-11
-5.99697e-11
1.10345e-11
4.51349e-11
-9.6071e-11
1.1939e-11
6.11162e-11
-1.30226e-10
1.11931e-11
7.6755e-11
-1.63461e-10
8.72983e-12
9.26528e-11
-1.96553e-10
4.54672e-12
1.09376e-10
-2.30003e-10
-1.22758e-12
1.27364e-10
-2.64016e-10
-8.23692e-12
1.4687e-10
-2.98542e-10
-1.58167e-11
1.67841e-10
-3.33291e-10
-2.30315e-11
1.89773e-10
-3.6773e-10
-2.88285e-11
2.11831e-10
-4.01168e-10
-3.19752e-11
2.33125e-10
-4.32808e-10
-3.02756e-11
2.5261e-10
-4.61441e-10
-2.11534e-11
2.6852e-10
-4.84163e-10
2.79642e-10
-4.9981e-10
-2.87732e-13
-3.83879e-12
5.30231e-13
-6.32291e-13
-1.11404e-11
1.53757e-12
-1.12046e-12
-1.78575e-11
2.46247e-12
-1.83785e-12
-2.43125e-11
3.35172e-12
-2.87169e-12
-3.07183e-11
4.24328e-12
-4.3194e-12
-3.71111e-11
5.16551e-12
-6.3067e-12
-4.34477e-11
6.14805e-12
-9.00765e-12
-4.97328e-11
7.22958e-12
-1.26747e-11
-5.60653e-11
8.45052e-12
-1.76649e-11
-6.25737e-11
9.82782e-12
-2.45403e-11
-6.93437e-11
1.13282e-11
-3.43443e-11
-7.65076e-11
1.28827e-11
-4.90729e-11
-8.43426e-11
1.44333e-11
-7.20924e-11
-9.32289e-11
1.59471e-11
-1.04384e-10
-1.02999e-10
1.73453e-11
-1.09008e-10
2.0118e-11
-7.7902e-13
-7.58349e-12
1.57921e-12
-1.72922e-12
-2.20314e-11
4.58229e-12
-3.10124e-12
-3.53605e-11
7.34463e-12
-5.13204e-12
-4.81388e-11
9.99807e-12
-8.06358e-12
-6.07208e-11
1.26511e-11
-1.21713e-11
-7.3217e-11
1.53955e-11
-1.78046e-11
-8.56345e-11
1.8327e-11
-2.54303e-11
-9.80276e-11
2.15568e-11
-3.56841e-11
-1.10532e-10
2.51947e-11
-4.94148e-11
-1.23277e-10
2.92772e-11
-6.78679e-11
-1.36311e-10
3.36897e-11
-9.30961e-11
-1.49691e-10
3.82113e-11
-1.28311e-10
-1.63445e-10
4.26266e-11
-1.77217e-10
-1.77244e-10
4.67345e-11
-2.36023e-10
-1.8961e-10
5.01921e-11
-1.98589e-10
5.20841e-11
-1.0322e-12
-1.11261e-11
2.59612e-12
-2.35076e-12
-3.23439e-11
7.53844e-12
-4.33761e-12
-5.19258e-11
1.20897e-11
-7.33837e-12
-7.06203e-11
1.64514e-11
-1.17017e-11
-8.89069e-11
2.07984e-11
-1.78287e-11
-1.07021e-10
2.52958e-11
-2.62166e-11
-1.25086e-10
3.01124e-11
-3.74829e-11
-1.43209e-10
3.54216e-11
-5.23952e-11
-1.61504e-10
4.13842e-11
-7.18839e-11
-1.80042e-10
4.80383e-11
-9.71586e-11
-1.98785e-10
5.51724e-11
-1.29817e-10
-2.1763e-10
6.24052e-11
-1.71283e-10
-2.36355e-10
6.93538e-11
-2.20472e-10
-2.54373e-10
7.56353e-11
-2.67203e-10
-2.70141e-10
8.06814e-11
-2.81985e-10
8.40853e-11
-9.26544e-13
-1.43234e-11
3.56136e-12
-2.25325e-12
-4.16406e-11
1.03443e-11
-4.44748e-12
-6.68209e-11
1.65876e-11
-7.91372e-12
-9.07606e-11
2.25527e-11
-1.30451e-11
-1.1407e-10
2.84798e-11
-2.02935e-11
-1.37142e-10
3.46087e-11
-3.0197e-11
-1.60232e-10
4.11786e-11
-4.33623e-11
-1.83485e-10
4.84172e-11
-6.04636e-11
-2.06965e-10
5.6523e-11
-8.22349e-11
-2.3066e-10
6.55322e-11
-1.09521e-10
-2.5443e-10
7.51442e-11
-1.43208e-10
-2.77991e-10
8.48283e-11
-1.83409e-10
-3.00854e-10
9.40841e-11
-2.27365e-10
-3.2213e-10
1.02452e-10
-2.65475e-10
-3.40053e-10
1.09239e-10
-3.53527e-10
1.13829e-10
-3.879e-13
-1.70201e-11
4.45254e-12
-1.29065e-12
-4.94706e-11
1.29324e-11
-3.21029e-12
-7.933e-11
2.07266e-11
-6.55871e-12
-1.07622e-10
2.81487e-11
-1.17146e-11
-1.35098e-10
3.54985e-11
-1.91013e-11
-1.62303e-10
4.30853e-11
-2.91929e-11
-1.89603e-10
5.12102e-11
-4.24597e-11
-2.17169e-10
6.01469e-11
-5.93399e-11
-2.4502e-10
7.01252e-11
-8.02376e-11
-2.7306e-10
8.11792e-11
-1.05587e-10
-3.0105e-10
9.29295e-11
-1.35834e-10
-3.28569e-10
1.04721e-10
-1.70983e-10
-3.54912e-10
1.15973e-10
-2.09378e-10
-3.78724e-10
1.26162e-10
-2.44413e-10
-3.97273e-10
1.34422e-10
-4.09314e-10
1.39931e-10
5.96184e-13
-1.90845e-11
5.2472e-12
5.552e-13
-5.54519e-11
1.52367e-11
-6.09222e-13
-8.8861e-11
2.4401e-11
-3.27264e-12
-1.20449e-10
3.30965e-11
-7.75351e-12
-1.51088e-10
4.16747e-11
-1.43848e-11
-1.81446e-10
5.05021e-11
-2.35008e-11
-2.1197e-10
5.99297e-11
-3.53631e-11
-2.42846e-10
7.0266e-11
-5.01093e-11
-2.74054e-10
8.17653e-11
-6.7746e-11
-3.05433e-10
9.44558e-11
-8.82451e-11
-3.36674e-10
1.07895e-10
-1.11674e-10
-3.67334e-10
1.21347e-10
-1.38252e-10
-3.96815e-10
1.3418e-10
-1.68101e-10
-4.24003e-10
1.45802e-10
-1.98637e-10
-4.46141e-10
1.55201e-10
-4.54668e-10
1.61385e-10
1.96869e-12
-2.04123e-11
5.92311e-12
3.16583e-12
-5.92952e-11
1.71921e-11
3.16282e-12
-9.49782e-11
2.75087e-11
1.65122e-12
-1.28682e-10
3.72646e-11
-1.60131e-12
-1.61373e-10
4.68507e-11
-6.80623e-12
-1.93799e-10
5.66739e-11
-1.41281e-11
-2.26448e-10
6.7118e-11
-2.36048e-11
-2.59512e-10
7.8511e-11
-3.50695e-11
-2.92937e-10
9.11142e-11
-4.81076e-11
-3.26487e-10
1.04938e-10
-6.21276e-11
-3.59772e-10
1.19515e-10
-7.65604e-11
-3.92344e-10
1.34084e-10
-9.1034e-11
-4.23828e-10
1.47958e-10
-1.05368e-10
-4.53818e-10
1.60492e-10
-1.1889e-10
-4.80759e-10
1.70606e-10