/*--------------------------------*- C++ -*----------------------------------*\
| =========                 |                                                 |
| \\      /  F ield         | OpenFOAM: The Open Source CFD Toolbox           |
|  \\    /   O peration     | Version:  v1912                                 |
|   \\  /    A nd           | Website:  www.openfoam.com                      |
|    \\/     M anipulation  |                                                 |
\*---------------------------------------------------------------------------*/
FoamFile
{
    version     2.0;
    format      ascii;
    class       surfaceScalarField;
    location    "0.1/fluid";
    object      phi;
}
// * * * * * * * * * * * * * * * * * * * * * * * * * * * * * * * * * * * * * //

dimensions      [0 3 -1 0 0 0 0];
oriented        oriented;


internalField   nonuniform List<scalar> 
41600
(
5.55801e-05
7.04979e-06
-4.84066e-07
3.54187e-07
5.20585e-05
3.67273e-06
-8.87397e-07
7.36213e-07
5.01203e-05
2.06173e-06
-1.21351e-06
1.09001e-06
4.90454e-05
1.16373e-06
-1.60187e-06
1.51307e-06
4.82781e-05
8.21268e-07
-2.13555e-06
2.08153e-06
4.75938e-05
7.05665e-07
-2.84229e-06
2.82093e-06
4.68756e-05
7.07322e-07
-3.7663e-06
3.77723e-06
4.60492e-05
7.78191e-07
-4.9716e-06
5.01979e-06
4.50484e-05
8.98619e-07
-6.55114e-06
6.65325e-06
4.37909e-05
1.05773e-06
-8.63877e-06
8.83858e-06
4.21471e-05
1.25032e-06
-1.14266e-05
1.18201e-05
3.98625e-05
1.439e-06
-1.52018e-05
1.60474e-05
3.64635e-05
1.65229e-06
-2.04134e-05
2.21601e-05
3.07093e-05
1.65026e-06
-2.76089e-05
3.17129e-05
2.0408e-05
1.72495e-06
-3.79829e-05
4.65592e-05
4.91381e-07
-4.1541e-05
6.14577e-05
6.45976e-05
5.09889e-06
-6.69925e-07
5.2324e-07
6.45231e-05
3.91983e-06
-1.19556e-06
1.02293e-06
6.39857e-05
2.74083e-06
-1.60783e-06
1.4661e-06
6.33039e-05
1.947e-06
-2.09125e-06
1.98986e-06
6.25918e-05
1.59385e-06
-2.75328e-06
2.69277e-06
6.18281e-05
1.49132e-06
-3.63335e-06
3.61141e-06
6.09631e-05
1.55612e-06
-4.78743e-06
4.8036e-06
5.99371e-05
1.74441e-06
-6.29626e-06
6.35603e-06
5.86777e-05
2.03596e-06
-8.27689e-06
8.39902e-06
5.70813e-05
2.41987e-06
-1.08982e-05
1.11324e-05
5.49866e-05
2.88872e-06
-1.44032e-05
1.48595e-05
5.2041e-05
3.40836e-06
-1.91559e-05
2.01321e-05
4.76904e-05
3.97932e-06
-2.57175e-05
2.77411e-05
4.01516e-05
4.40036e-06
-3.47965e-05
3.95853e-05
2.70239e-05
4.77301e-06
-4.7745e-05
5.78247e-05
3.55985e-06
-5.21811e-05
7.61365e-05
6.4193e-05
3.55376e-06
-6.65208e-07
5.17319e-07
6.46622e-05
3.62497e-06
-1.18922e-06
1.01489e-06
6.45918e-05
2.95444e-06
-1.59911e-06
1.45586e-06
6.42303e-05
2.41121e-06
-2.07875e-06
1.97609e-06
6.37245e-05
2.16128e-06
-2.73491e-06
2.67332e-06
6.3097e-05
2.14168e-06
-3.60621e-06
3.58334e-06
6.23292e-05
2.30862e-06
-4.74758e-06
4.76289e-06
6.13784e-05
2.63619e-06
-6.23862e-06
6.29756e-06
6.01789e-05
3.11409e-06
-8.19523e-06
8.31666e-06
5.86248e-05
3.73984e-06
-1.07856e-05
1.10197e-05
5.65425e-05
4.51312e-06
-1.42526e-05
1.47105e-05
5.35561e-05
5.41121e-06
-1.89656e-05
1.99493e-05
4.90699e-05
6.42236e-06
-2.54864e-05
2.75296e-05
4.12476e-05
7.37202e-06
-3.45631e-05
3.94137e-05
2.76045e-05
8.20397e-06
-4.75312e-05
5.77433e-05
6.84276e-06
-5.21169e-05
7.64385e-05
6.34763e-05
2.7257e-06
-6.3326e-07
4.85026e-07
6.4042e-05
3.23427e-06
-1.14025e-06
9.65289e-07
6.42118e-05
2.9286e-06
-1.53803e-06
1.39407e-06
6.40891e-05
2.63734e-06
-2.00276e-06
1.89923e-06
6.3773e-05
2.5401e-06
-2.63687e-06
2.57418e-06
6.32968e-05
2.64228e-06
-3.47652e-06
3.4522e-06
6.26577e-05
2.93425e-06
-4.57355e-06
4.58694e-06
6.18255e-05
3.41211e-06
-6.00355e-06
6.0599e-06
6.07398e-05
4.08194e-06
-7.87722e-06
7.99503e-06
5.92935e-05
4.95724e-06
-1.03565e-05
1.05854e-05
5.73015e-05
6.05525e-06
-1.36761e-05
1.4126e-05
5.43633e-05
7.37819e-06
-1.82021e-05
1.91733e-05
4.98397e-05
8.92427e-06
-2.44793e-05
2.6501e-05
4.18464e-05
1.05474e-05
-3.33005e-05
3.81185e-05
2.78325e-05
1.20783e-05
-4.59416e-05
5.60811e-05
1.04944e-05
-5.06838e-05
7.48647e-05
6.31661e-05
2.20832e-06
-5.88562e-07
4.39881e-07
6.3713e-05
2.86306e-06
-1.07159e-06
8.9586e-07
6.39851e-05
2.80141e-06
-1.45275e-06
1.30784e-06
6.40159e-05
2.71124e-06
-1.89686e-06
1.79213e-06
6.3857e-05
2.76332e-06
-2.50025e-06
2.43599e-06
6.35329e-05
2.99276e-06
-3.29561e-06
3.26919e-06
6.30441e-05
3.41259e-06
-4.33024e-06
4.34074e-06
6.2366e-05
4.03791e-06
-5.67363e-06
5.72584e-06
6.14434e-05
4.89309e-06
-7.42821e-06
7.53972e-06
6.01688e-05
6.01328e-06
-9.74527e-06
9.96376e-06
5.8349e-05
7.44365e-06
-1.2845e-05
1.32764e-05
5.55571e-05
9.23403e-06
-1.70828e-05
1.80188e-05
5.11033e-05
1.14251e-05
-2.29691e-05
2.49221e-05
4.29808e-05
1.39856e-05
-3.13522e-05
3.60364e-05
2.84975e-05
1.67067e-05
-4.33945e-05
5.32495e-05
1.532e-05
-4.83241e-05
7.1996e-05
6.30309e-05
1.82665e-06
-5.35673e-07
3.86413e-07
6.3565e-05
2.50565e-06
-9.90168e-07
8.13494e-07
6.39099e-05
2.60258e-06
-1.35166e-06
1.20556e-06
6.40618e-05
2.66557e-06
-1.77119e-06
1.66497e-06
6.40429e-05
2.8484e-06
-2.33776e-06
2.27157e-06
6.38703e-05
3.19442e-06
-3.07974e-06
3.05072e-06
6.3546e-05
3.73011e-06
-4.0386e-06
4.04541e-06
6.30513e-05
4.48587e-06
-5.27567e-06
5.32236e-06
6.23369e-05
5.50498e-06
-6.88212e-06
6.98467e-06
6.12973e-05
6.85021e-06
-8.99404e-06
9.19676e-06
5.97308e-05
8.60797e-06
-1.18104e-05
1.22125e-05
5.71736e-05
1.09132e-05
-1.56693e-05
1.65474e-05
5.28678e-05
1.38907e-05
-2.10323e-05
2.28725e-05
4.46079e-05
1.77794e-05
-2.88214e-05
3.32876e-05
2.95348e-05
2.23672e-05
-4.003e-05
4.94426e-05
2.19146e-05
-4.52571e-05
6.81972e-05
6.2991e-05
1.48559e-06
-4.76303e-07
3.26351e-07
6.35408e-05
2.13362e-06
-8.98782e-07
7.20997e-07
6.3955e-05
2.33588e-06
-1.23817e-06
1.09069e-06
6.42135e-05
2.51505e-06
-1.62998e-06
1.52203e-06
6.43254e-05
2.80496e-06
-2.15483e-06
2.08638e-06
6.43051e-05
3.24682e-06
-2.83601e-06
2.80388e-06
6.41596e-05
3.87337e-06
-3.70779e-06
3.71008e-06
6.38811e-05
4.72476e-06
-4.82106e-06
4.8606e-06
6.34382e-05
5.85784e-06
-6.2513e-06
6.34137e-06
6.27521e-05
7.35777e-06
-8.11099e-06
8.28954e-06
6.16615e-05
9.3463e-06
-1.05612e-05
1.09134e-05
5.97449e-05
1.20628e-05
-1.38902e-05
1.46572e-05
5.62793e-05
1.57588e-05
-1.84468e-05
2.00442e-05
4.87696e-05
2.13648e-05
-2.51483e-05
2.90726e-05
3.37211e-05
2.91964e-05
-3.46322e-05
4.28515e-05
3.47545e-05
-3.97712e-05
6.06524e-05
6.3003e-05
-4.1307e-07
2.62339e-07
1.13335e-06
6.35984e-05
-8.01471e-07
6.22456e-07
1.71719e-06
6.40891e-05
-1.11734e-06
9.6832e-07
1.99417e-06
6.44491e-05
-1.47958e-06
1.36973e-06
2.26496e-06
6.46849e-05
-1.95984e-06
1.88891e-06
2.64004e-06
6.48138e-05
-2.57586e-06
2.54032e-06
3.15349e-06
6.485e-05
-3.35406e-06
3.3513e-06
3.83996e-06
6.47977e-05
-4.33387e-06
4.36529e-06
4.74556e-06
6.46419e-05
-5.57384e-06
5.64959e-06
5.93798e-06
6.43242e-05
-7.16148e-06
7.31233e-06
7.52462e-06
6.37053e-05
-9.22072e-06
9.51744e-06
9.66843e-06
6.23778e-05
-1.19926e-05
1.26397e-05
1.27433e-05
5.96292e-05
-1.57288e-05
1.7083e-05
1.71531e-05
5.27823e-05
-2.13614e-05
2.47616e-05
2.48115e-05
3.84343e-05
-2.9202e-05
3.63502e-05
3.63961e-05
-3.47567e-05
5.39468e-05
5.39985e-05
5.5502e-05
7.05913e-06
-5.45187e-07
5.18707e-05
3.68918e-06
-9.4531e-07
4.98172e-05
2.08076e-06
-1.24076e-06
4.8618e-05
1.18702e-06
-1.58969e-06
4.77065e-05
8.51202e-07
-2.07529e-06
4.6844e-05
7.45158e-07
-2.72495e-06
4.58964e-05
7.60183e-07
-3.57882e-06
4.47683e-05
8.49446e-07
-4.69298e-06
4.33684e-05
9.95096e-07
-6.1463e-06
4.15872e-05
1.18892e-06
-8.04652e-06
3.92713e-05
1.43034e-06
-1.0541e-05
3.61798e-05
1.68892e-06
-1.37993e-05
3.18575e-05
2.00937e-06
-1.81004e-05
2.54147e-05
2.17597e-06
-2.3342e-05
1.48567e-05
2.49656e-06
-2.99215e-05
1.59855e-06
-2.82828e-05
6.45013e-05
5.12131e-06
-7.33402e-07
6.42932e-05
3.95519e-06
-1.25344e-06
6.36117e-05
2.78376e-06
-1.62935e-06
6.2773e-05
1.9999e-06
-2.06548e-06
6.18785e-05
1.66186e-06
-2.66943e-06
6.08892e-05
1.581e-06
-3.47991e-06
5.97338e-05
1.6761e-06
-4.54792e-06
5.83254e-05
1.90593e-06
-5.94432e-06
5.65584e-05
2.2538e-06
-7.76855e-06
5.42923e-05
2.71321e-06
-1.01565e-05
5.13302e-05
3.28284e-06
-1.32935e-05
4.73263e-05
3.93312e-06
-1.73963e-05
4.17444e-05
4.67989e-06
-2.2806e-05
3.32498e-05
5.30757e-06
-2.94335e-05
1.97176e-05
5.94417e-06
-3.76605e-05
4.72472e-06
-3.55895e-05
6.40979e-05
3.58791e-06
-7.29693e-07
6.44344e-05
3.67802e-06
-1.24853e-06
6.42214e-05
3.0197e-06
-1.62208e-06
6.37051e-05
2.49191e-06
-2.05448e-06
6.30196e-05
2.26519e-06
-2.65275e-06
6.21703e-05
2.27901e-06
-3.45487e-06
6.11168e-05
2.49284e-06
-4.51088e-06
5.97897e-05
2.88507e-06
-5.89061e-06
5.80896e-05
3.45108e-06
-7.69247e-06
5.58735e-05
4.19537e-06
-1.00517e-05
5.29308e-05
5.12663e-06
-1.31537e-05
4.88902e-05
6.22665e-06
-1.72187e-05
4.317e-05
7.50236e-06
-2.25887e-05
3.43797e-05
8.73289e-06
-2.91981e-05
2.03024e-05
9.90494e-06
-3.74147e-05
8.29896e-06
-3.53886e-05
6.33839e-05
2.7702e-06
-6.9944e-07
6.38208e-05
3.30305e-06
-1.2022e-06
6.38531e-05
3.01363e-06
-1.56429e-06
6.35822e-05
2.74275e-06
-1.98261e-06
6.30944e-05
2.67612e-06
-2.56008e-06
6.24068e-05
2.82252e-06
-3.3324e-06
6.14959e-05
3.17691e-06
-4.34677e-06
6.03053e-05
3.74156e-06
-5.66938e-06
5.87423e-05
4.53087e-06
-7.39403e-06
5.66628e-05
5.56894e-06
-9.65052e-06
5.38441e-05
6.88705e-06
-1.26179e-05
4.98876e-05
8.49563e-06
-1.65145e-05
4.41602e-05
1.04217e-05
-2.16712e-05
3.5207e-05
1.2449e-05
-2.80635e-05
2.0716e-05
1.4481e-05
-3.60266e-05
1.25002e-05
-3.41689e-05
6.30774e-05
2.26133e-06
-6.57077e-07
6.35012e-05
2.94488e-06
-1.13718e-06
6.36428e-05
2.90277e-06
-1.48356e-06
6.3534e-05
2.83712e-06
-1.88242e-06
6.32147e-05
2.9261e-06
-2.43094e-06
6.26941e-05
3.2091e-06
-3.16161e-06
6.19533e-05
3.70502e-06
-4.11745e-06
6.09432e-05
4.43714e-06
-5.35917e-06
5.95779e-05
5.44121e-06
-6.97329e-06
5.77147e-05
6.76751e-06
-9.08057e-06
5.51229e-05
8.48219e-06
-1.18483e-05
5.1373e-05
1.06514e-05
-1.54886e-05
4.5772e-05
1.33621e-05
-2.03086e-05
3.67094e-05
1.65018e-05
-2.63424e-05
2.16724e-05
1.99851e-05
-3.38616e-05
1.80924e-05
-3.22438e-05
6.29466e-05
1.88601e-06
-6.06974e-07
6.33643e-05
2.59716e-06
-1.06009e-06
6.35872e-05
2.71609e-06
-1.38789e-06
6.361e-05
2.80672e-06
-1.76357e-06
6.34445e-05
3.03123e-06
-2.27742e-06
6.30938e-05
3.43802e-06
-2.95794e-06
6.25424e-05
4.06065e-06
-3.84281e-06
6.17496e-05
4.93968e-06
-4.98546e-06
6.06381e-05
6.13309e-06
-6.46248e-06
5.90689e-05
7.72445e-06
-8.38176e-06
5.68036e-05
9.83042e-06
-1.08933e-05
5.3367e-05
1.26167e-05
-1.4198e-05
4.79863e-05
1.62785e-05
-1.85679e-05
3.88054e-05
2.09785e-05
-2.41171e-05
2.30792e-05
2.66992e-05
-3.10179e-05
2.56557e-05
-2.97411e-05
6.29116e-05
1.54882e-06
-5.50759e-07
6.33526e-05
2.23101e-06
-9.73601e-07
6.36543e-05
2.45673e-06
-1.28053e-06
6.37957e-05
2.66541e-06
-1.63009e-06
6.37769e-05
2.99988e-06
-2.10468e-06
6.36002e-05
3.50686e-06
-2.72814e-06
6.32578e-05
4.22697e-06
-3.53166e-06
6.2724e-05
5.21178e-06
-4.55937e-06
6.19451e-05
6.53509e-06
-5.87439e-06
6.08167e-05
8.30701e-06
-7.56518e-06
5.91516e-05
1.06864e-05
-9.75212e-06
5.65217e-05
1.39601e-05
-1.26037e-05
5.21917e-05
1.84767e-05
-1.6315e-05
4.39216e-05
2.51522e-05
-2.10519e-05
2.81489e-05
3.46285e-05
-2.67889e-05
3.97731e-05
-2.57397e-05
6.29289e-05
-4.90915e-07
1.19778e-06
6.34236e-05
-8.81528e-07
1.81637e-06
6.3812e-05
-1.16626e-06
2.11722e-06
6.40678e-05
-1.48796e-06
2.41801e-06
6.41901e-05
-1.92061e-06
2.83839e-06
6.41859e-05
-2.48296e-06
3.41812e-06
6.40578e-05
-3.1991e-06
4.20007e-06
6.37961e-05
-4.10297e-06
5.24256e-06
6.33684e-05
-5.24293e-06
6.63194e-06
6.26959e-05
-6.68664e-06
8.50465e-06
6.16178e-05
-8.52424e-06
1.1068e-05
5.9713e-05
-1.08935e-05
1.47658e-05
5.62589e-05
-1.3919e-05
2.01211e-05
4.87607e-05
-1.78434e-05
2.91324e-05
3.37206e-05
-2.24459e-05
4.29126e-05
-2.19886e-05
6.07255e-05
5.5434e-05
7.068e-06
-5.47176e-07
5.17046e-05
3.70469e-06
-9.20595e-07
4.95448e-05
2.09876e-06
-1.17969e-06
4.82287e-05
1.20906e-06
-1.48272e-06
4.71811e-05
8.79488e-07
-1.90713e-06
4.61512e-05
7.82407e-07
-2.47747e-06
4.49897e-05
8.09872e-07
-3.22723e-06
4.35816e-05
9.15993e-07
-4.20078e-06
4.18082e-05
1.08405e-06
-5.457e-06
3.95241e-05
1.30701e-06
-7.0694e-06
3.65275e-05
1.58494e-06
-9.12941e-06
3.2547e-05
1.88741e-06
-1.17062e-05
2.7135e-05
2.25535e-06
-1.49437e-05
1.98596e-05
2.47155e-06
-1.85382e-05
9.80913e-06
2.80745e-06
-2.26785e-05
1.89515e-06
-2.03686e-05
6.44169e-05
5.14258e-06
-7.24913e-07
6.40888e-05
3.98866e-06
-1.2093e-06
6.32743e-05
2.82441e-06
-1.54045e-06
6.22883e-05
2.04997e-06
-1.92042e-06
6.12216e-05
1.72615e-06
-2.44938e-06
6.00205e-05
1.66568e-06
-3.1621e-06
5.85947e-05
1.78916e-06
-4.10135e-06
5.68322e-05
2.0577e-06
-5.32356e-06
5.45938e-05
2.4575e-06
-6.9036e-06
5.16943e-05
2.98536e-06
-8.93539e-06
4.7878e-05
3.64344e-06
-1.15357e-05
4.27647e-05
4.40297e-06
-1.47985e-05
3.58288e-05
5.28346e-06
-1.88982e-05
2.63138e-05
6.04689e-06
-2.34939e-05
1.3365e-05
6.82006e-06
-2.87242e-05
5.48464e-06
-2.58137e-05
6.40147e-05
3.62029e-06
-7.22056e-07
6.42321e-05
3.72826e-06
-1.20558e-06
6.38875e-05
3.0815e-06
-1.53458e-06
6.32258e-05
2.56827e-06
-1.91111e-06
6.23707e-05
2.36341e-06
-2.4349e-06
6.1313e-05
2.40867e-06
-3.1401e-06
5.99934e-05
2.66647e-06
-4.06864e-06
5.83175e-05
3.11912e-06
-5.27606e-06
5.61518e-05
3.767e-06
-6.83634e-06
5.33076e-05
4.62064e-06
-8.84276e-06
4.95134e-05
5.69605e-06
-1.1412e-05
4.43599e-05
6.97813e-06
-1.46404e-05
3.72708e-05
8.48674e-06
-1.87028e-05
2.74339e-05
9.95905e-06
-2.32734e-05
1.39083e-05
1.14126e-05
-2.84817e-05
9.60278e-06
-2.55982e-05
6.33032e-05
2.81237e-06
-6.94751e-07
6.36249e-05
3.36819e-06
-1.1638e-06
6.35304e-05
3.09411e-06
-1.48245e-06
6.312e-05
2.84246e-06
-1.84634e-06
6.24702e-05
2.80464e-06
-2.3515e-06
6.15839e-05
2.99262e-06
-3.03009e-06
6.04197e-05
3.40552e-06
-3.92159e-06
5.88967e-05
4.05123e-06
-5.0785e-06
5.6889e-05
4.9517e-06
-6.57103e-06
5.42068e-05
6.14059e-06
-8.48827e-06
5.05655e-05
7.66189e-06
-1.09423e-05
4.55239e-05
9.53415e-06
-1.4029e-05
3.84456e-05
1.18106e-05
-1.79168e-05
2.84381e-05
1.42171e-05
-2.2314e-05
1.44348e-05
1.6722e-05
-2.73327e-05
1.44731e-05
-2.46043e-05
6.30002e-05
2.31154e-06
-6.56483e-07
6.3314e-05
3.02233e-06
-1.1051e-06
6.33355e-05
2.99868e-06
-1.40963e-06
6.30955e-05
2.95615e-06
-1.75605e-06
6.26246e-05
3.07985e-06
-2.23531e-06
6.19192e-05
3.41313e-06
-2.87674e-06
6.09433e-05
3.98031e-06
-3.7163e-06
5.96252e-05
4.8121e-06
-4.80191e-06
5.78469e-05
5.95463e-06
-6.19798e-06
5.54215e-05
7.47219e-06
-7.98675e-06
5.20564e-05
9.45089e-06
-1.02722e-05
4.72755e-05
1.19739e-05
-1.31475e-05
4.03696e-05
1.51751e-05
-1.67671e-05
3.02583e-05
1.88773e-05
-2.08913e-05
1.56018e-05
2.31117e-05
-2.55948e-05
2.09266e-05
-2.30953e-05
6.28736e-05
1.94221e-06
-6.11239e-07
6.31876e-05
2.68376e-06
-1.03552e-06
6.32983e-05
2.82344e-06
-1.32333e-06
6.31997e-05
2.94012e-06
-1.64898e-06
6.28955e-05
3.20384e-06
-2.09724e-06
6.23771e-05
3.66764e-06
-2.69401e-06
6.16137e-05
4.37157e-06
-3.47073e-06
6.05442e-05
5.36547e-06
-4.46933e-06
5.9062e-05
6.72079e-06
-5.74637e-06
5.69863e-05
8.54053e-06
-7.37442e-06
5.40183e-05
1.0971e-05
-9.4454e-06
4.96314e-05
1.421e-05
-1.20472e-05
4.3021e-05
1.853e-05
-1.53125e-05
3.28114e-05
2.40416e-05
-1.90718e-05
1.73191e-05
3.09251e-05
-2.33389e-05
2.96537e-05
-2.11489e-05
6.28433e-05
1.60866e-06
-5.60492e-07
6.31878e-05
2.32315e-06
-9.57461e-07
6.33862e-05
2.571e-06
-1.22653e-06
6.34175e-05
2.80748e-06
-1.52878e-06
6.32748e-05
3.18384e-06
-1.94198e-06
6.29504e-05
3.75189e-06
-2.48802e-06
6.24238e-05
4.55943e-06
-3.19292e-06
6.16525e-05
5.66852e-06
-4.09109e-06
6.05589e-05
7.16867e-06
-5.22866e-06
5.90047e-05
9.19364e-06
-6.66412e-06
5.67526e-05
1.19403e-05
-8.46928e-06
5.33285e-05
1.57452e-05
-1.07148e-05
4.79597e-05
2.107e-05
-1.34862e-05
3.87923e-05
2.88355e-05
-1.66784e-05
2.3075e-05
4.00408e-05
-2.01873e-05
4.52768e-05
-1.82877e-05
6.28655e-05
-5.06484e-07
1.25874e-06
6.32713e-05
-8.74392e-07
1.91017e-06
6.35661e-05
-1.12351e-06
2.23353e-06
6.37238e-05
-1.40082e-06
2.56257e-06
6.37381e-05
-1.77659e-06
3.02553e-06
6.36081e-05
-2.26837e-06
3.66737e-06
6.33262e-05
-2.89622e-06
4.53846e-06
6.28698e-05
-3.68634e-06
5.70826e-06
6.21886e-05
-4.6734e-06
7.28034e-06
6.11778e-05
-5.90072e-06
9.41854e-06
5.9637e-05
-7.41916e-06
1.2376e-05
5.71042e-05
-9.28316e-06
1.66676e-05
5.28218e-05
-1.1532e-05
2.29653e-05
4.4587e-05
-1.41428e-05
3.33697e-05
2.95312e-05
-1.68867e-05
4.95374e-05
-1.54968e-05
6.83161e-05
5.5376e-05
7.07601e-06
-4.99188e-07
5.15617e-05
3.71865e-06
-8.24917e-07
4.93083e-05
2.11498e-06
-1.04129e-06
4.78887e-05
1.22892e-06
-1.29201e-06
4.67207e-05
9.04955e-07
-1.64411e-06
4.55452e-05
8.15906e-07
-2.11792e-06
4.42031e-05
8.54516e-07
-2.73962e-06
4.25687e-05
9.7578e-07
-3.54217e-06
4.05146e-05
1.16415e-06
-4.56697e-06
3.78924e-05
1.41417e-06
-5.86143e-06
3.45137e-05
1.72764e-06
-7.47831e-06
3.01635e-05
2.0777e-06
-9.43372e-06
2.45032e-05
2.50653e-06
-1.179e-05
1.7368e-05
2.8082e-06
-1.42111e-05
8.21747e-06
3.23201e-06
-1.676e-05
2.36685e-06
-1.45178e-05
6.43447e-05
5.16178e-06
-6.55362e-07
6.39125e-05
4.01886e-06
-1.07729e-06
6.29807e-05
2.86108e-06
-1.35475e-06
6.18639e-05
2.0951e-06
-1.66987e-06
6.06449e-05
1.78402e-06
-2.10945e-06
5.92594e-05
1.74177e-06
-2.70239e-06
5.76043e-05
1.89053e-06
-3.48226e-06
5.55543e-05
2.1934e-06
-4.4912e-06
5.29579e-05
2.63907e-06
-5.78216e-06
4.96257e-05
3.22718e-06
-7.41618e-06
4.53158e-05
3.96296e-06
-9.46111e-06
3.97186e-05
4.81946e-06
-1.19431e-05
3.24405e-05
5.81962e-06
-1.49332e-05
2.30832e-05
6.71297e-06
-1.80415e-05
1.12379e-05
7.62325e-06
-2.12701e-05
6.22007e-06
-1.84288e-05
6.39434e-05
3.64953e-06
-6.53221e-07
6.40577e-05
3.77361e-06
-1.07456e-06
6.35971e-05
3.13724e-06
-1.35019e-06
6.28064e-05
2.63708e-06
-1.66237e-06
6.18013e-05
2.45179e-06
-2.09757e-06
6.0562e-05
2.52508e-06
-2.68417e-06
5.90171e-05
2.82193e-06
-3.45508e-06
5.70583e-05
3.32786e-06
-4.45176e-06
5.45402e-05
4.0473e-06
-5.72645e-06
5.1269e-05
4.99535e-06
-7.33972e-06
4.69864e-05
6.19306e-06
-9.35947e-06
4.13522e-05
7.62643e-06
-1.18132e-05
3.39199e-05
9.32222e-06
-1.4773e-05
2.42347e-05
1.09828e-05
-1.7858e-05
1.17995e-05
1.26411e-05
-2.10642e-05
1.06626e-05
-1.82409e-05
6.32343e-05
2.85046e-06
-6.29977e-07
6.34561e-05
3.42698e-06
-1.03901e-06
6.32501e-05
3.1667e-06
-1.30585e-06
6.27159e-05
2.93228e-06
-1.60732e-06
6.19227e-05
2.92023e-06
-2.0268e-06
6.08635e-05
3.14522e-06
-2.59102e-06
5.94849e-05
3.60991e-06
-3.33095e-06
5.76931e-05
4.32679e-06
-4.28564e-06
5.53503e-05
5.32364e-06
-5.50451e-06
5.22614e-05
6.641e-06
-7.0451e-06
4.81536e-05
8.33092e-06
-8.97237e-06
4.26512e-05
1.04141e-05
-1.13142e-05
3.52397e-05
1.29567e-05
-1.41398e-05
2.5373e-05
1.56302e-05
-1.70947e-05
1.24102e-05
1.84372e-05
-2.0166e-05
1.59417e-05
-1.7473e-05
6.29345e-05
2.35687e-06
-5.97366e-07
6.31531e-05
3.09223e-06
-9.8901e-07
6.30689e-05
3.08516e-06
-1.24387e-06
6.27124e-05
3.06333e-06
-1.53059e-06
6.21075e-05
3.21804e-06
-1.92823e-06
6.12412e-05
3.59602e-06
-2.46126e-06
6.00666e-05
4.22609e-06
-3.15781e-06
5.84999e-05
5.14496e-06
-4.05339e-06
5.6412e-05
6.40663e-06
-5.19308e-06
5.36107e-05
8.08506e-06
-6.62953e-06
4.98135e-05
1.02785e-05
-8.42248e-06
4.46042e-05
1.30753e-05
-1.05994e-05
3.73842e-05
1.66316e-05
-1.3222e-05
2.74004e-05
2.06999e-05
-1.59772e-05
1.37016e-05
2.53724e-05
-1.88312e-05
2.28791e-05
-1.63309e-05
6.28115e-05
1.99294e-06
-5.58821e-07
6.30361e-05
2.76189e-06
-9.29749e-07
6.30481e-05
2.92022e-06
-1.17045e-06
6.28419e-05
3.06021e-06
-1.43962e-06
6.2415e-05
3.35889e-06
-1.81116e-06
6.17504e-05
3.87328e-06
-2.30674e-06
6.0808e-05
4.64877e-06
-2.95093e-06
5.95157e-05
5.74252e-06
-3.7746e-06
5.77569e-05
7.23597e-06
-4.81696e-06
5.53463e-05
9.24506e-06
-6.12385e-06
5.19929e-05
1.19334e-05
-7.747e-06
4.72228e-05
1.55103e-05
-9.71213e-06
4.03267e-05
2.02835e-05
-1.20682e-05
3.02296e-05
2.62834e-05
-1.45583e-05
1.55844e-05
3.3791e-05
-1.71123e-05
3.21799e-05
-1.48652e-05
6.27854e-05
1.66265e-06
-5.15598e-07
6.30469e-05
2.40625e-06
-8.63286e-07
6.31547e-05
2.67399e-06
-1.0881e-06
6.30883e-05
2.93533e-06
-1.33752e-06
6.28357e-05
3.34903e-06
-1.67957e-06
6.23825e-05
3.97118e-06
-2.13271e-06
6.17001e-05
4.8555e-06
-2.7172e-06
6.07375e-05
6.07222e-06
-3.45822e-06
5.94099e-05
7.72225e-06
-4.38734e-06
5.75769e-05
9.95462e-06
-5.54068e-06
5.50106e-05
1.29875e-05
-6.95703e-06
5.12848e-05
1.7175e-05
-8.65376e-06
4.57066e-05
2.30281e-05
-1.06526e-05
3.66728e-05
3.13943e-05
-1.27553e-05
2.16551e-05
4.34442e-05
-1.48229e-05
4.83891e-05
-1.28416e-05
6.28121e-05
-4.69608e-07
1.31372e-06
6.31417e-05
-7.92565e-07
1.99475e-06
6.33544e-05
-1.00049e-06
2.33834e-06
6.34251e-05
-1.22887e-06
2.69264e-06
6.33435e-05
-1.53946e-06
3.19351e-06
6.31032e-05
-1.94722e-06
3.89034e-06
6.26906e-05
-2.46776e-06
4.83956e-06
6.20773e-05
-3.11996e-06
6.11923e-06
6.12079e-05
-3.927e-06
7.84519e-06
5.99778e-05
-4.91439e-06
1.01984e-05
5.81962e-05
-6.10706e-06
1.34569e-05
5.54406e-05
-7.51455e-06
1.8162e-05
5.10212e-05
-9.1308e-06
2.50463e-05
4.29393e-05
-1.08298e-05
3.61632e-05
2.84834e-05
-1.23984e-05
5.34118e-05
-1.08294e-05
7.22051e-05
5.53285e-05
7.08283e-06
-4.10566e-07
5.14442e-05
3.73051e-06
-6.71031e-07
4.91129e-05
2.12877e-06
-8.38796e-07
4.76068e-05
1.2458e-06
-1.03171e-06
4.63389e-05
9.26558e-07
-1.30281e-06
4.50443e-05
8.44262e-07
-1.66752e-06
4.35572e-05
8.92191e-07
-2.14477e-06
4.17462e-05
1.02601e-06
-2.75718e-06
3.94798e-05
1.23096e-06
-3.53155e-06
3.66115e-05
1.50255e-06
-4.49563e-06
3.29659e-05
1.84305e-06
-5.67573e-06
2.83681e-05
2.22687e-06
-7.0628e-06
2.25612e-05
2.69315e-06
-8.67624e-06
1.5554e-05
3.03985e-06
-1.02438e-05
7.09106e-06
3.49341e-06
-1.17904e-05
2.61848e-06
-1.0045e-05
6.42854e-05
5.17814e-06
-5.36028e-07
6.37671e-05
4.04458e-06
-8.73054e-07
6.27375e-05
2.89228e-06
-1.08872e-06
6.15116e-05
2.13346e-06
-1.33159e-06
6.0166e-05
1.83312e-06
-1.67049e-06
5.86292e-05
1.80618e-06
-2.12744e-06
5.67898e-05
1.97607e-06
-2.72678e-06
5.45148e-05
2.30745e-06
-3.49763e-06
5.16473e-05
2.79081e-06
-4.4745e-06
4.79995e-05
3.42775e-06
-5.69357e-06
4.33456e-05
4.22512e-06
-7.18927e-06
3.7428e-05
5.15621e-06
-8.95482e-06
2.99534e-05
6.24371e-06
-1.10092e-05
2.0759e-05
7.22536e-06
-1.30326e-05
9.76568e-06
8.21776e-06
-1.50011e-05
6.73825e-06
-1.27826e-05
6.3885e-05
3.67444e-06
-5.34482e-07
6.39139e-05
3.81223e-06
-8.71146e-07
6.33567e-05
3.18468e-06
-1.08541e-06
6.24582e-05
2.69557e-06
-1.32596e-06
6.13284e-05
2.52676e-06
-1.66145e-06
5.99404e-05
2.62357e-06
-2.11348e-06
5.82142e-05
2.95302e-06
-2.70593e-06
5.60342e-05
3.50312e-06
-3.46738e-06
5.32491e-05
4.2813e-06
-4.43188e-06
4.96665e-05
5.30588e-06
-5.63523e-06
4.50431e-05
6.60105e-06
-7.11196e-06
3.90896e-05
8.15263e-06
-8.85617e-06
3.14576e-05
9.9903e-06
-1.08876e-05
2.1928e-05
1.17893e-05
-1.28924e-05
1.03349e-05
1.35895e-05
-1.48428e-05
1.14708e-05
-1.26383e-05
6.31778e-05
2.8829e-06
-5.16234e-07
6.33172e-05
3.47705e-06
-8.4321e-07
6.30181e-05
3.22846e-06
-1.05059e-06
6.23806e-05
3.00859e-06
-1.28276e-06
6.14683e-05
3.01823e-06
-1.60601e-06
6.02673e-05
3.27424e-06
-2.04068e-06
5.87165e-05
3.78209e-06
-2.60919e-06
5.67145e-05
4.55781e-06
-3.3384e-06
5.41182e-05
5.63351e-06
-4.26036e-06
5.07332e-05
7.05462e-06
-5.40888e-06
4.63002e-05
8.87845e-06
-6.81674e-06
4.04911e-05
1.11262e-05
-8.47878e-06
3.2884e-05
1.38715e-05
-1.04138e-05
2.31608e-05
1.67445e-05
-1.23268e-05
1.10015e-05
1.97687e-05
-1.41859e-05
1.70807e-05
-1.20811e-05
6.28806e-05
2.39548e-06
-4.90582e-07
6.30208e-05
3.15174e-06
-8.03903e-07
6.28486e-05
3.15872e-06
-1.00192e-06
6.23949e-05
3.15436e-06
-1.22258e-06
6.16786e-05
3.33514e-06
-1.52885e-06
6.06803e-05
3.75054e-06
-1.93933e-06
5.93461e-05
4.4329e-06
-2.47439e-06
5.75853e-05
5.42354e-06
-3.15832e-06
5.52636e-05
6.78229e-06
-4.02017e-06
5.21892e-05
8.58996e-06
-5.09052e-06
4.80914e-05
1.09529e-05
-6.39908e-06
4.25973e-05
1.39622e-05
-7.94132e-06
3.51916e-05
1.77878e-05
-9.73259e-06
2.53369e-05
2.21298e-05
-1.15079e-05
1.23789e-05
2.71193e-05
-1.32238e-05
2.43945e-05
-1.12655e-05
6.27608e-05
2.03614e-06
-4.60279e-07
6.29117e-05
2.8284e-06
-7.57321e-07
6.28417e-05
3.00252e-06
-9.44248e-07
6.25455e-05
3.16216e-06
-1.15124e-06
6.20165e-05
3.49023e-06
-1.43721e-06
6.12321e-05
4.04688e-06
-1.81871e-06
6.01458e-05
4.88173e-06
-2.31345e-06
5.86797e-05
6.0575e-06
-2.94244e-06
5.67127e-05
7.66298e-06
-3.73067e-06
5.40598e-05
9.82322e-06
-4.70422e-06
5.044e-05
1.27137e-05
-5.88798e-06
4.54172e-05
1.65503e-05
-7.27741e-06
3.83534e-05
2.16646e-05
-8.88118e-06
2.83715e-05
2.80279e-05
-1.04745e-05
1.43835e-05
3.5988e-05
-1.1993e-05
3.41363e-05
-1.02233e-05
6.27382e-05
1.70863e-06
-4.263e-07
6.29314e-05
2.47699e-06
-7.05086e-07
6.29639e-05
2.76155e-06
-8.79593e-07
6.28159e-05
3.04385e-06
-1.07119e-06
6.24719e-05
3.48889e-06
-1.33427e-06
6.19128e-05
4.15621e-06
-1.68296e-06
6.11051e-05
5.10412e-06
-2.13186e-06
5.99933e-05
6.40906e-06
-2.69794e-06
5.84896e-05
8.1803e-06
-3.40099e-06
5.64554e-05
1.05776e-05
-4.2609e-06
5.36729e-05
1.3834e-05
-5.29482e-06
4.97498e-05
1.83145e-05
-6.49488e-06
4.40521e-05
2.45647e-05
-7.85496e-06
3.51414e-05
3.33777e-05
-9.19446e-06
2.06721e-05
4.60429e-05
-1.04084e-05
5.081e-05
-8.843e-06
6.27686e-05
-3.90152e-07
1.36053e-06
6.30358e-05
-6.49511e-07
2.06674e-06
6.31803e-05
-8.10812e-07
2.42744e-06
6.31783e-05
-9.86031e-07
2.80302e-06
6.30167e-05
-1.22469e-06
3.33571e-06
6.26856e-05
-1.53833e-06
4.07839e-06
6.21679e-05
-1.93816e-06
5.09224e-06
6.14319e-05
-2.43671e-06
6.46177e-06
6.04216e-05
-3.04805e-06
8.3117e-06
5.9035e-05
-3.78519e-06
1.0835e-05
5.70919e-05
-4.65683e-06
1.43268e-05
5.41989e-05
-5.65198e-06
1.93449e-05
4.97156e-05
-6.74862e-06
2.66658e-05
4.17755e-05
-7.81906e-06
3.8307e-05
2.77904e-05
-8.7144e-06
5.6344e-05
-7.44595e-06
7.52168e-05
5.52923e-05
7.08816e-06
-2.91004e-07
5.13541e-05
3.73984e-06
-4.72696e-07
4.89627e-05
2.13958e-06
-5.87021e-07
4.739e-05
1.25905e-06
-7.1797e-07
4.60456e-05
9.43484e-07
-9.01885e-07
4.46607e-05
8.66437e-07
-1.14911e-06
4.30661e-05
9.21575e-07
-1.47178e-06
4.11277e-05
1.06505e-06
-1.8838e-06
3.87142e-05
1.28272e-06
-2.40081e-06
3.56853e-05
1.57075e-06
-3.03748e-06
3.18831e-05
1.93181e-06
-3.8053e-06
2.71684e-05
2.34151e-06
-4.68957e-06
2.13476e-05
2.83712e-06
-5.69259e-06
1.45133e-05
3.22028e-06
-6.62977e-06
6.52958e-06
3.70237e-06
-7.50908e-06
2.82084e-06
-6.33609e-06
6.424e-05
5.19101e-06
-3.78832e-07
6.36554e-05
4.0648e-06
-6.13507e-07
6.25504e-05
2.91677e-06
-7.60871e-07
6.12402e-05
2.16355e-06
-9.25835e-07
5.97976e-05
1.87156e-06
-1.15598e-06
5.81461e-05
1.85649e-06
-1.46599e-06
5.61697e-05
2.04271e-06
-1.87159e-06
5.37319e-05
2.39598e-06
-2.39072e-06
5.06757e-05
2.90808e-06
-3.04369e-06
4.68208e-05
3.58194e-06
-3.84984e-06
4.19625e-05
4.4254e-06
-4.82458e-06
3.58897e-05
5.41186e-06
-5.95237e-06
2.83864e-05
6.56341e-06
-7.23223e-06
1.94099e-05
7.60995e-06
-8.44569e-06
9.01607e-06
8.6624e-06
-9.56733e-06
7.12635e-06
-8.07179e-06
6.38402e-05
3.69403e-06
-3.77712e-07
6.38035e-05
3.8426e-06
-6.12264e-07
6.31717e-05
3.22192e-06
-7.58773e-07
6.219e-05
2.74143e-06
-9.22126e-07
6.09646e-05
2.58545e-06
-1.14995e-06
5.94638e-05
2.7005e-06
-1.45661e-06
5.7603e-05
3.05508e-06
-1.85754e-06
5.5263e-05
3.63902e-06
-2.37036e-06
5.22924e-05
4.46183e-06
-3.01504e-06
4.85059e-05
5.54396e-06
-3.81073e-06
4.36808e-05
6.91146e-06
-4.77292e-06
3.75735e-05
8.54951e-06
-5.88658e-06
2.99119e-05
1.04888e-05
-7.15139e-06
2.05964e-05
1.23853e-05
-8.35223e-06
9.59541e-06
1.42822e-05
-9.46171e-06
1.20595e-05
-7.97574e-06
6.31346e-05
2.90841e-06
-3.65215e-07
6.32106e-05
3.5164e-06
-5.93026e-07
6.28398e-05
3.27696e-06
-7.34797e-07
6.21224e-05
3.06842e-06
-8.92389e-07
6.11188e-05
3.09491e-06
-1.11185e-06
5.98104e-05
3.37494e-06
-1.40667e-06
5.81316e-05
3.91601e-06
-1.79135e-06
5.59779e-05
4.73668e-06
-2.28236e-06
5.32057e-05
5.87208e-06
-2.89848e-06
4.96277e-05
7.37077e-06
-3.6576e-06
4.50036e-05
9.29316e-06
-4.57435e-06
3.90488e-05
1.16598e-05
-5.63434e-06
3.14135e-05
1.45476e-05
-6.83719e-06
2.18945e-05
1.75573e-05
-7.9798e-06
1.02999e-05
2.0724e-05
-9.03306e-06
1.78924e-05
-7.61386e-06
6.28395e-05
2.42584e-06
-3.47521e-07
6.29195e-05
3.1985e-06
-5.65944e-07
6.26793e-05
3.21647e-06
-7.01305e-07
6.21505e-05
3.22571e-06
-8.51026e-07
6.13487e-05
3.42674e-06
-1.0589e-06
6.02505e-05
3.87105e-06
-1.33726e-06
5.87978e-05
4.59359e-06
-1.69925e-06
5.6897e-05
5.63892e-06
-2.15974e-06
5.44136e-05
7.07085e-06
-2.7356e-06
5.11621e-05
8.9746e-06
-3.44285e-06
4.68894e-05
1.14613e-05
-4.29446e-06
4.12628e-05
1.4622e-05
-5.27687e-06
3.38324e-05
1.86339e-05
-6.38847e-06
2.41689e-05
2.31581e-05
-7.44513e-06
1.17323e-05
2.83489e-05
-8.41211e-06
2.54502e-05
-7.09065e-06
6.27221e-05
2.07009e-06
-3.26654e-07
6.28165e-05
2.88066e-06
-5.33861e-07
6.26832e-05
3.06712e-06
-6.61607e-07
6.23176e-05
3.24206e-06
-8.01969e-07
6.17102e-05
3.59291e-06
-9.95995e-07
6.0835e-05
4.18219e-06
-1.25464e-06
5.96419e-05
5.06255e-06
-1.58933e-06
5.80506e-05
6.30063e-06
-2.01283e-06
5.59401e-05
7.99017e-06
-2.53951e-06
5.31312e-05
1.0262e-05
-3.18269e-06
4.93587e-05
1.32985e-05
-3.95269e-06
4.42224e-05
1.73173e-05
-4.83643e-06
3.71417e-05
2.26625e-05
-5.82914e-06
2.73369e-05
2.92605e-05
-6.77197e-06
1.38135e-05
3.74983e-05
-7.61907e-06
3.54617e-05
-6.42105e-06
6.27023e-05
1.74475e-06
-3.03248e-07
6.28432e-05
2.53256e-06
-4.97888e-07
6.28176e-05
2.83027e-06
-6.17117e-07
6.26065e-05
3.12887e-06
-7.46962e-07
6.21923e-05
3.5982e-06
-9.25377e-07
6.15529e-05
4.30035e-06
-1.16173e-06
6.06521e-05
5.29696e-06
-1.46544e-06
5.94327e-05
6.66879e-06
-1.84671e-06
5.7808e-05
8.53069e-06
-2.31675e-06
5.56451e-05
1.10492e-05
-2.88527e-06
5.27413e-05
1.44658e-05
-3.55839e-06
4.87362e-05
1.91496e-05
-4.322e-06
4.30439e-05
2.56639e-05
-5.16403e-06
3.43062e-05
3.47576e-05
-5.95404e-06
2.02308e-05
4.77897e-05
-6.62448e-06
5.2412e-05
-5.56236e-06
6.27356e-05
-2.78351e-07
1.39731e-06
6.2955e-05
-4.59617e-07
2.12329e-06
6.30469e-05
-5.69791e-07
2.49735e-06
6.29887e-05
-6.88438e-07
2.88949e-06
6.27656e-05
-8.50212e-07
3.44683e-06
6.23655e-05
-1.06277e-06
4.22485e-06
6.17695e-05
-1.33334e-06
5.28813e-06
6.09453e-05
-1.66931e-06
6.72564e-06
5.98383e-05
-2.07838e-06
8.66802e-06
5.83529e-05
-2.56619e-06
1.13156e-05
5.63228e-05
-3.1341e-06
1.49732e-05
5.3382e-05
-3.76691e-06
2.02053e-05
4.89304e-05
-4.44411e-06
2.7811e-05
4.11651e-05
-5.0686e-06
3.97725e-05
2.75216e-05
-5.54936e-06
5.82681e-05
-4.67653e-06