/*--------------------------------*- C++ -*----------------------------------*\
| =========                 |                                                 |
| \\      /  F ield         | OpenFOAM: The Open Source CFD Toolbox           |
|  \\    /   O peration     | Version:  v1912                                 |
|   \\  /    A nd           | Website:  www.openfoam.com                      |
|    \\/     M anipulation  |                                                 |
\*---------------------------------------------------------------------------*/
FoamFile
{
    version     2.0;
    format      ascii;
    class       pointVectorField;
    location    "0.1/fluid";
    object      pointMotionU;
}
// * * * * * * * * * * * * * * * * * * * * * * * * * * * * * * * * * * * * * //

dimensions      [0 1 -1 0 0 0 0];


internalField   nonuniform List<vector> 
16859
(
(0 0 0)
(0 0 0)
(0 0 0)
(0 0 0)
(0 0 0)
(0 0 0)
(0 0 0)
(0 0 0)
(0 0 0)
(0 0 0)
(0 0 0)
(0 0 0)
(0 0 0)
(0 0 0)
(0 0 0)
(0 0 0)
(1.35292e-08 1.40484e-07 4.17749e-08)
(0 0 0)
(2.00535e-09 -9.37748e-09 8.52079e-09)
(3.67008e-09 -1.77698e-08 1.62859e-08)
(4.93527e-09 -2.55194e-08 2.36761e-08)
(5.73158e-09 -3.30425e-08 3.10813e-08)
(5.97834e-09 -4.05778e-08 3.87949e-08)
(5.53928e-09 -4.80589e-08 4.69266e-08)
(4.29345e-09 -5.5306e-08 5.5569e-08)
(2.1446e-09 -6.21366e-08 6.48595e-08)
(-1.054e-09 -6.8349e-08 7.49329e-08)
(-5.64862e-09 -7.36258e-08 8.58859e-08)
(-1.16484e-08 -7.70239e-08 9.77371e-08)
(-1.83761e-08 -7.64496e-08 1.10515e-07)
(-2.48621e-08 -6.8058e-08 1.24674e-07)
(-2.92005e-08 -4.43386e-08 1.4113e-07)
(-2.55264e-08 2.01684e-09 1.58413e-07)
(5.37239e-08 1.23987e-07 1.56681e-07)
(0 0 0)
(4.13983e-09 -1.86297e-08 1.6943e-08)
(7.59162e-09 -3.53589e-08 3.24029e-08)
(1.02393e-08 -5.0888e-08 4.71514e-08)
(1.19735e-08 -6.5896e-08 6.18905e-08)
(1.26135e-08 -8.07594e-08 7.71015e-08)
(1.19302e-08 -9.54965e-08 9.30811e-08)
(9.75543e-09 -1.09916e-07 1.10117e-07)
(5.93791e-09 -1.23738e-07 1.28483e-07)
(1.86325e-10 -1.36643e-07 1.48389e-07)
(-7.84071e-09 -1.48026e-07 1.6993e-07)
(-1.77992e-08 -1.56372e-07 1.92912e-07)
(-2.80873e-08 -1.58959e-07 2.17153e-07)
(-3.60855e-08 -1.51857e-07 2.42659e-07)
(-3.66716e-08 -1.3005e-07 2.6889e-07)
(-2.04105e-08 -9.43963e-08 2.9125e-07)
(9.13616e-08 -3.82367e-08 3.19339e-07)
(0 0 0)
(6.48092e-09 -2.74744e-08 2.51059e-08)
(1.19117e-08 -5.22332e-08 4.80402e-08)
(1.61631e-08 -7.52636e-08 6.99353e-08)
(1.90789e-08 -9.74082e-08 9.1711e-08)
(2.04146e-08 -1.19217e-07 1.14029e-07)
(1.99396e-08 -1.40879e-07 1.37427e-07)
(1.74818e-08 -1.62311e-07 1.62414e-07)
(1.29036e-08 -1.83261e-07 1.89428e-07)
(5.89671e-09 -2.03378e-07 2.18722e-07)
(-3.59387e-09 -2.21896e-07 2.50292e-07)
(-1.47619e-08 -2.37206e-07 2.83792e-07)
(-2.53745e-08 -2.46843e-07 3.18849e-07)
(-3.20573e-08 -2.47803e-07 3.54901e-07)
(-2.91134e-08 -2.37368e-07 3.90307e-07)
(-8.08731e-09 -2.17796e-07 4.19172e-07)
(9.66568e-08 -1.81577e-07 4.47442e-07)
(0 0 0)
(9.04973e-09 -3.5522e-08 3.27936e-08)
(1.66912e-08 -6.7605e-08 6.27662e-08)
(2.2785e-08 -9.7464e-08 9.13391e-08)
(2.7166e-08 -1.26103e-07 1.19624e-07)
(2.96195e-08 -1.54248e-07 1.48474e-07)
(2.99616e-08 -1.82296e-07 1.78657e-07)
(2.80767e-08 -2.1036e-07 2.10927e-07)
(2.38883e-08 -2.38305e-07 2.4588e-07)
(1.72877e-08 -2.65817e-07 2.8382e-07)
(8.53132e-09 -2.92161e-07 3.24654e-07)
(-1.15244e-09 -3.15969e-07 3.68074e-07)
(-9.28963e-09 -3.35268e-07 4.13696e-07)
(-1.29746e-08 -3.47599e-07 4.60365e-07)
(-8.03956e-09 -3.50257e-07 5.04964e-07)
(1.14872e-08 -3.42612e-07 5.38918e-07)
(1.05223e-07 -3.14372e-07 5.64553e-07)
(0 0 0)
(1.18291e-08 -4.23577e-08 3.98015e-08)
(2.18775e-08 -8.06617e-08 7.6154e-08)
(3.00398e-08 -1.16329e-07 1.10729e-07)
(3.619e-08 -1.50515e-07 1.44803e-07)
(4.02008e-08 -1.84122e-07 1.79411e-07)
(4.19799e-08 -2.1778e-07 2.15552e-07)
(4.15277e-08 -2.51793e-07 2.54201e-07)
(3.88846e-08 -2.86183e-07 2.96088e-07)
(3.42104e-08 -3.20758e-07 3.41574e-07)
(2.81659e-08 -3.55006e-07 3.90663e-07)
(2.23558e-08 -3.8803e-07 4.43292e-07)
(1.93628e-08 -4.18508e-07 4.99394e-07)
(2.14739e-08 -4.44495e-07 5.57874e-07)
(3.08471e-08 -4.62531e-07 6.14672e-07)
(5.01654e-08 -4.67239e-07 6.57766e-07)
(1.33939e-07 -4.42816e-07 6.84542e-07)
(0 0 0)
(1.4766e-08 -4.76322e-08 4.59849e-08)
(2.73831e-08 -9.07357e-08 8.793e-08)
(3.78023e-08 -1.30891e-07 1.27689e-07)
(4.59745e-08 -1.6941e-07 1.66684e-07)
(5.18909e-08 -2.07368e-07 2.06119e-07)
(5.5583e-08 -2.45574e-07 2.47185e-07)
(5.71907e-08 -2.84509e-07 2.91047e-07)
(5.69293e-08 -3.2435e-07 3.38555e-07)
(5.52275e-08 -3.65082e-07 3.90146e-07)
(5.31716e-08 -4.06514e-07 4.46e-07)
(5.28542e-08 -4.48347e-07 5.06495e-07)
(5.73276e-08 -4.90264e-07 5.72392e-07)
(6.92277e-08 -5.31762e-07 6.43835e-07)
(9.03524e-08 -5.70755e-07 7.17931e-07)
(1.19883e-07 -5.99025e-07 7.80361e-07)
(2.01105e-07 -5.81169e-07 8.20745e-07)
(0 0 0)
(1.77928e-08 -5.1075e-08 5.12713e-08)
(3.30744e-08 -9.73063e-08 9.79459e-08)
(4.58619e-08 -1.40423e-07 1.42002e-07)
(5.62072e-08 -1.81862e-07 1.84965e-07)
(6.42077e-08 -2.22831e-07 2.28156e-07)
(7.00229e-08 -2.64278e-07 2.72935e-07)
(7.39406e-08 -3.06796e-07 3.20611e-07)
(7.63476e-08 -3.50686e-07 3.72126e-07)
(7.79085e-08 -3.96104e-07 4.27976e-07)
(8.00809e-08 -4.43103e-07 4.88487e-07)
(8.53896e-08 -4.91908e-07 5.54405e-07)
(9.76335e-08 -5.43233e-07 6.2747e-07)
(1.21041e-07 -5.98533e-07 7.09879e-07)
(1.60548e-07 -6.59615e-07 8.02677e-07)
(2.16304e-07 -7.20653e-07 8.94369e-07)
(3.39781e-07 -8.04896e-07 9.97741e-07)
(0 0 0)
(2.0791e-08 -5.2495e-08 5.56066e-08)
(3.87239e-08 -1.00054e-07 1.06121e-07)
(5.38885e-08 -1.44489e-07 1.53569e-07)
(6.64092e-08 -1.8732e-07 1.99505e-07)
(7.64717e-08 -2.29828e-07 2.45326e-07)
(8.43445e-08 -2.73018e-07 2.9251e-07)
(9.04414e-08 -3.17545e-07 3.42485e-07)
(9.52704e-08 -3.63794e-07 3.96229e-07)
(9.9679e-08 -4.11976e-07 4.54243e-07)
(1.05157e-07 -4.62275e-07 5.16749e-07)
(1.14346e-07 -5.15021e-07 5.84541e-07)
(1.31187e-07 -5.71099e-07 6.59616e-07)
(1.60343e-07 -6.32279e-07 7.44845e-07)
(2.07671e-07 -7.00885e-07 8.43085e-07)
(2.71622e-07 -7.70123e-07 9.43324e-07)
(4.63098e-07 -9.12132e-07 1.13686e-06)
(0 0 0)
(0 0 0)
(0 0 0)
(0 0 0)
(0 0 0)
(0 0 0)
(0 0 0)
(0 0 0)
(0 0 0)
(0 0 0)
(0 0 0)
(0 0 0)
(0 0 0)
(0 0 0)
(0 0 0)
(0 0 0)
(-1.03159e-07 4.66627e-08 5.67625e-08)
(0 0 0)
(1.44107e-09 -9.77768e-09 8.37804e-09)
(2.56724e-09 -1.85517e-08 1.60175e-08)
(3.27553e-09 -2.66524e-08 2.3267e-08)
(3.45901e-09 -3.44858e-08 3.04887e-08)
(2.98425e-09 -4.2319e-08 3.79679e-08)
(1.66496e-09 -5.01138e-08 4.58382e-08)
(-6.94617e-10 -5.77004e-08 5.42147e-08)
(-4.33363e-09 -6.49211e-08 6.32502e-08)
(-9.65931e-09 -7.16436e-08 7.30884e-08)
(-1.72314e-08 -7.76286e-08 8.3879e-08)
(-2.75949e-08 -8.21681e-08 9.57154e-08)
(-4.13777e-08 -8.36109e-08 1.08767e-07)
(-6.02691e-08 -7.89172e-08 1.23726e-07)
(-8.75273e-08 -6.25269e-08 1.42028e-07)
(-1.23174e-07 -2.93286e-08 1.63711e-07)
(-1.88871e-07 1.83377e-08 1.99052e-07)
(0 0 0)
(3.03562e-09 -1.94061e-08 1.66458e-08)
(5.43854e-09 -3.68411e-08 3.18191e-08)
(7.01812e-09 -5.30147e-08 4.62545e-08)
(7.58009e-09 -6.86304e-08 6.06161e-08)
(6.85751e-09 -8.41048e-08 7.53809e-08)
(4.52789e-09 -9.94809e-08 9.08722e-08)
(2.74608e-10 -1.14582e-07 1.07401e-07)
(-6.32132e-09 -1.29179e-07 1.25267e-07)
(-1.58513e-08 -1.43019e-07 1.44718e-07)
(-2.9071e-08 -1.55671e-07 1.65906e-07)
(-4.63622e-08 -1.65938e-07 1.88783e-07)
(-6.7724e-08 -1.71632e-07 2.1339e-07)
(-9.3194e-08 -1.69707e-07 2.4006e-07)
(-1.20911e-07 -1.56727e-07 2.69121e-07)
(-1.42368e-07 -1.34113e-07 2.98617e-07)
(-1.6787e-07 -1.24257e-07 3.52568e-07)
(0 0 0)
(4.89243e-09 -2.85673e-08 2.46313e-08)
(8.83154e-09 -5.43041e-08 4.7101e-08)
(1.15737e-08 -7.82409e-08 6.84952e-08)
(1.28512e-08 -1.01271e-07 8.97008e-08)
(1.23173e-08 -1.23981e-07 1.11382e-07)
(9.60574e-09 -1.46581e-07 1.34084e-07)
(4.35029e-09 -1.69004e-07 1.58345e-07)
(-3.88373e-09 -1.91044e-07 1.84627e-07)
(-1.57052e-08 -2.12411e-07 2.13233e-07)
(-3.16133e-08 -2.32534e-07 2.44224e-07)
(-5.15316e-08 -2.50088e-07 2.77426e-07)
(-7.47578e-08 -2.63056e-07 3.12724e-07)
(-9.99819e-08 -2.69152e-07 3.49954e-07)
(-1.23311e-07 -2.66721e-07 3.88445e-07)
(-1.36036e-07 -2.58175e-07 4.25048e-07)
(-1.60882e-07 -2.54914e-07 4.78974e-07)
(0 0 0)
(7.06814e-09 -3.68732e-08 3.21353e-08)
(1.28587e-08 -7.01635e-08 6.14549e-08)
(1.71006e-08 -1.01153e-07 8.93382e-08)
(1.95051e-08 -1.30908e-07 1.16871e-07)
(1.9739e-08 -1.60189e-07 1.44897e-07)
(1.7473e-08 -1.8941e-07 1.74187e-07)
(1.23869e-08 -2.18699e-07 2.05523e-07)
(4.14841e-09 -2.47939e-07 2.3952e-07)
(-7.65852e-09 -2.76883e-07 2.76519e-07)
(-2.31268e-08 -3.04932e-07 3.16513e-07)
(-4.17605e-08 -3.30901e-07 3.59329e-07)
(-6.25717e-08 -3.53139e-07 4.04826e-07)
(-8.43848e-08 -3.69635e-07 4.52318e-07)
(-1.04702e-07 -3.7832e-07 4.99629e-07)
(-1.1772e-07 -3.78819e-07 5.40988e-07)
(-1.46792e-07 -3.7884e-07 5.9269e-07)
(0 0 0)
(9.56138e-09 -4.39136e-08 3.89653e-08)
(1.75067e-08 -8.36054e-08 7.44881e-08)
(2.35858e-08 -1.20576e-07 1.08193e-07)
(2.75517e-08 -1.56043e-07 1.41337e-07)
(2.91595e-08 -1.90948e-07 1.74941e-07)
(2.81835e-08 -2.25936e-07 2.10005e-07)
(2.44392e-08 -2.61313e-07 2.47515e-07)
(1.77632e-08 -2.971e-07 2.88229e-07)
(8.09005e-09 -3.33142e-07 3.32531e-07)
(-4.25122e-09 -3.68999e-07 3.80462e-07)
(-1.83619e-08 -4.03839e-07 4.32054e-07)
(-3.30307e-08 -4.36483e-07 4.87445e-07)
(-4.77648e-08 -4.65151e-07 5.45979e-07)
(-6.27256e-08 -4.86562e-07 6.04462e-07)
(-7.64345e-08 -4.95635e-07 6.54009e-07)
(-1.11329e-07 -4.97338e-07 7.06642e-07)
(0 0 0)
(1.23251e-08 -4.93287e-08 4.49845e-08)
(2.26924e-08 -9.39443e-08 8.59381e-08)
(3.09099e-08 -1.35514e-07 1.24666e-07)
(3.6818e-08 -1.75416e-07 1.62573e-07)
(4.03012e-08 -2.14765e-07 2.00842e-07)
(4.12788e-08 -2.54381e-07 2.4066e-07)
(3.97454e-08 -2.94732e-07 2.83194e-07)
(3.57821e-08 -3.35973e-07 3.29325e-07)
(2.96703e-08 -3.78094e-07 3.79494e-07)
(2.22285e-08 -4.2091e-07 4.33864e-07)
(1.49618e-08 -4.64066e-07 4.92811e-07)
(9.75075e-09 -5.07217e-07 5.57206e-07)
(7.49995e-09 -5.49828e-07 6.27478e-07)
(7.07416e-09 -5.8966e-07 7.01224e-07)
(4.84763e-09 -6.19098e-07 7.67423e-07)
(-3.83685e-08 -6.16755e-07 8.31485e-07)
(0 0 0)
(1.52798e-08 -5.28386e-08 5.01193e-08)
(2.82608e-08 -1.00644e-07 9.56601e-08)
(3.88323e-08 -1.45227e-07 1.38556e-07)
(4.6941e-08 -1.88091e-07 1.803e-07)
(5.25953e-08 -2.30484e-07 2.2219e-07)
(5.58702e-08 -2.73356e-07 2.65572e-07)
(5.69534e-08 -3.17272e-07 3.11759e-07)
(5.61657e-08 -3.62495e-07 3.61726e-07)
(5.41063e-08 -4.09155e-07 4.15966e-07)
(5.20532e-08 -4.57247e-07 4.74676e-07)
(5.2173e-08 -5.06828e-07 5.38535e-07)
(5.75113e-08 -5.58429e-07 6.09272e-07)
(7.12403e-08 -6.13305e-07 6.89048e-07)
(9.6485e-08 -6.72859e-07 7.78592e-07)
(1.32356e-07 -7.32415e-07 8.68924e-07)
(1.25959e-07 -7.99938e-07 9.59783e-07)
(0 0 0)
(1.8287e-08 -5.42528e-08 5.43165e-08)
(3.39458e-08 -1.03383e-07 1.03578e-07)
(4.69518e-08 -1.4928e-07 1.49758e-07)
(5.73378e-08 -1.9353e-07 1.94375e-07)
(6.52179e-08 -2.37451e-07 2.38794e-07)
(7.08028e-08 -2.82035e-07 2.84476e-07)
(7.44469e-08 -3.279e-07 3.32847e-07)
(7.66476e-08 -3.75378e-07 3.84938e-07)
(7.82227e-08 -4.24638e-07 4.41176e-07)
(8.06338e-08 -4.75736e-07 5.01679e-07)
(8.63608e-08 -5.2875e-07 5.67037e-07)
(9.89994e-08 -5.84224e-07 6.39111e-07)
(1.22926e-07 -6.43383e-07 7.20618e-07)
(1.63821e-07 -7.07406e-07 8.13447e-07)
(2.21963e-07 -7.69484e-07 9.07742e-07)
(3.48886e-07 -8.40522e-07 1.03896e-06)
(0 0 0)
(0 0 0)
(0 0 0)
(0 0 0)
(0 0 0)
(0 0 0)
(0 0 0)
(0 0 0)
(0 0 0)
(0 0 0)
(0 0 0)
(0 0 0)
(0 0 0)
(0 0 0)
(0 0 0)
(0 0 0)
(-1.70858e-07 -1.33811e-08 2.48862e-08)
(0 0 0)
(8.47004e-10 -1.01514e-08 7.8739e-09)
(1.40255e-09 -1.92912e-08 1.50586e-08)
(1.51924e-09 -2.77728e-08 2.18817e-08)
(1.0463e-09 -3.59663e-08 2.86429e-08)
(-2.05263e-10 -4.41016e-08 3.55799e-08)
(-2.46556e-09 -5.21843e-08 4.28499e-08)
(-6.00196e-09 -6.00964e-08 5.05993e-08)
(-1.11962e-08 -6.77367e-08 5.89969e-08)
(-1.86763e-08 -7.50731e-08 6.82097e-08)
(-2.93137e-08 -8.2028e-08 7.83278e-08)
(-4.42725e-08 -8.82274e-08 8.936e-08)
(-6.57104e-08 -9.28991e-08 1.01314e-07)
(-9.83767e-08 -9.49431e-08 1.14153e-07)
(-1.51538e-07 -9.33747e-08 1.27428e-07)
(-2.31627e-07 -8.93803e-08 1.38686e-07)
(-3.42234e-07 -8.81454e-08 1.18251e-07)
(0 0 0)
(1.87083e-09 -2.01084e-08 1.56226e-08)
(3.16361e-09 -3.82236e-08 2.98669e-08)
(3.60227e-09 -5.50767e-08 4.34029e-08)
(2.89956e-09 -7.13326e-08 5.6801e-08)
(7.08773e-10 -8.74008e-08 7.04981e-08)
(-3.37393e-09 -1.03362e-07 8.48353e-08)
(-9.81456e-09 -1.19102e-07 1.00151e-07)
(-1.92642e-08 -1.34485e-07 1.16777e-07)
(-3.26704e-08 -1.49415e-07 1.3496e-07)
(-5.12314e-08 -1.63683e-07 1.54782e-07)
(-7.6254e-08 -1.76595e-07 1.76108e-07)
(-1.09768e-07 -1.87026e-07 1.9871e-07)
(-1.54962e-07 -1.93745e-07 2.21951e-07)
(-2.1462e-07 -1.96357e-07 2.43924e-07)
(-2.82008e-07 -1.97374e-07 2.60202e-07)
(-3.41284e-07 -2.09261e-07 2.52187e-07)
(0 0 0)
(3.21389e-09 -2.95408e-08 2.30842e-08)
(5.5652e-09 -5.61968e-08 4.4129e-08)
(6.68236e-09 -8.10269e-08 6.41218e-08)
(6.1834e-09 -1.04928e-07 8.38618e-08)
(3.63214e-09 -1.28484e-07 1.03972e-07)
(-1.45661e-09 -1.51924e-07 1.25004e-07)
(-9.63668e-09 -1.75245e-07 1.47514e-07)
(-2.16316e-08 -1.98334e-07 1.71977e-07)
(-3.83943e-08 -2.21044e-07 1.98668e-07)
(-6.09227e-08 -2.43031e-07 2.27602e-07)
(-9.01421e-08 -2.63467e-07 2.58514e-07)
(-1.2729e-07 -2.81222e-07 2.90989e-07)
(-1.7359e-07 -2.9531e-07 3.23949e-07)
(-2.28224e-07 -3.05817e-07 3.54733e-07)
(-2.82746e-07 -3.14765e-07 3.78214e-07)
(-3.3523e-07 -3.27861e-07 3.7554e-07)
(0 0 0)
(4.96335e-09 -3.806e-08 3.00783e-08)
(8.77298e-09 -7.24437e-08 5.74849e-08)
(1.10098e-08 -1.04488e-07 8.34813e-08)
(1.12619e-08 -1.35283e-07 1.09067e-07)
(9.09638e-09 -1.6559e-07 1.35048e-07)
(4.05214e-09 -1.95843e-07 1.62199e-07)
(-4.3869e-09 -2.26202e-07 1.91285e-07)
(-1.6833e-08 -2.56611e-07 2.22904e-07)
(-3.40028e-08 -2.86919e-07 2.57356e-07)
(-5.64779e-08 -3.16725e-07 2.94589e-07)
(-8.47529e-08 -3.45212e-07 3.34318e-07)
(-1.19622e-07 -3.71335e-07 3.76085e-07)
(-1.62028e-07 -3.94029e-07 4.18416e-07)
(-2.11972e-07 -4.12661e-07 4.57671e-07)
(-2.6382e-07 -4.27229e-07 4.87044e-07)
(-3.18686e-07 -4.42907e-07 4.87008e-07)
(0 0 0)
(7.13932e-09 -4.52639e-08 3.644e-08)
(1.28223e-08 -8.61819e-08 6.96023e-08)
(1.66385e-08 -1.24316e-07 1.00979e-07)
(1.82189e-08 -1.60928e-07 1.31741e-07)
(1.72167e-08 -1.96974e-07 1.62881e-07)
(1.32805e-08 -2.33097e-07 1.95376e-07)
(6.04101e-09 -2.69609e-07 2.30176e-07)
(-4.87969e-09 -3.06546e-07 2.67991e-07)
(-1.98116e-08 -3.43801e-07 3.09149e-07)
(-3.8873e-08 -3.81043e-07 3.53613e-07)
(-6.20931e-08 -4.17599e-07 4.01213e-07)
(-8.99631e-08 -4.52591e-07 4.51672e-07)
(-1.24074e-07 -4.84827e-07 5.03486e-07)
(-1.67345e-07 -5.12305e-07 5.5227e-07)
(-2.1886e-07 -5.31452e-07 5.89173e-07)
(-2.79958e-07 -5.4809e-07 5.93425e-07)
(0 0 0)
(9.70197e-09 -5.07923e-08 4.20444e-08)
(1.76363e-08 -9.67169e-08 8.02434e-08)
(2.3454e-08 -1.39516e-07 1.16266e-07)
(2.68801e-08 -1.80618e-07 1.51428e-07)
(2.76974e-08 -2.21152e-07 1.86872e-07)
(2.57154e-08 -2.6193e-07 2.23749e-07)
(2.07804e-08 -3.03389e-07 2.63166e-07)
(1.28193e-08 -3.4566e-07 3.05939e-07)
(1.92909e-09 -3.88728e-07 3.52433e-07)
(-1.14556e-08 -4.32392e-07 4.02661e-07)
(-2.66677e-08 -4.76232e-07 4.56664e-07)
(-4.3427e-08 -5.19832e-07 5.14635e-07)
(-6.30418e-08 -5.6263e-07 5.75628e-07)
(-9.01262e-08 -6.02812e-07 6.35329e-07)
(-1.30096e-07 -6.34331e-07 6.82801e-07)
(-2.01539e-07 -6.41015e-07 6.96026e-07)
(0 0 0)
(1.25529e-08 -5.43521e-08 4.68102e-08)
(2.30254e-08 -1.03508e-07 8.9263e-08)
(3.11629e-08 -1.49348e-07 1.29141e-07)
(3.67991e-08 -1.93427e-07 1.67847e-07)
(3.98524e-08 -2.37007e-07 2.0663e-07)
(4.03091e-08 -2.81006e-07 2.46779e-07)
(3.82494e-08 -3.25941e-07 2.89535e-07)
(3.38986e-08 -3.72021e-07 3.35794e-07)
(2.775e-08 -4.1931e-07 3.8593e-07)
(2.07932e-08 -4.67691e-07 4.39969e-07)
(1.45384e-08 -5.16943e-07 4.981e-07)
(1.066e-08 -5.67114e-07 5.61016e-07)
(1.02514e-08 -6.1862e-07 6.28712e-07)
(1.26539e-08 -6.71295e-07 6.97905e-07)
(1.39808e-08 -7.19331e-07 7.56441e-07)
(-2.63509e-08 -7.74679e-07 7.75176e-07)
(0 0 0)
(1.55282e-08 -5.5764e-08 5.06818e-08)
(2.8669e-08 -1.06242e-07 9.65607e-08)
(3.92705e-08 -1.5339e-07 1.39462e-07)
(4.72672e-08 -1.98838e-07 1.80818e-07)
(5.26963e-08 -2.43906e-07 2.21935e-07)
(5.5704e-08 -2.89549e-07 2.64204e-07)
(5.65652e-08 -3.36323e-07 3.08961e-07)
(5.57255e-08 -3.84485e-07 3.57128e-07)
(5.39458e-08 -4.3411e-07 4.09039e-07)
(5.25529e-08 -4.85042e-07 4.64582e-07)
(5.35743e-08 -5.36972e-07 5.23857e-07)
(5.96024e-08 -5.89748e-07 5.87623e-07)
(7.34955e-08 -6.4326e-07 6.56295e-07)
(9.84234e-08 -6.96118e-07 7.27504e-07)
(1.33731e-07 -7.39342e-07 7.88585e-07)
(2.22431e-07 -7.66373e-07 8.14422e-07)
(0 0 0)
(0 0 0)
(0 0 0)
(0 0 0)
(0 0 0)
(0 0 0)
(0 0 0)
(0 0 0)
(0 0 0)
(0 0 0)
(0 0 0)
(0 0 0)
(0 0 0)
(0 0 0)
(0 0 0)
(0 0 0)
(-1.94475e-07 -3.52023e-08 2.44514e-08)
(0 0 0)
(2.57524e-10 -1.04682e-08 7.03551e-09)
(2.54151e-10 -1.99102e-08 1.34514e-08)
(-2.03267e-10 -2.87091e-08 1.95401e-08)
(-1.30863e-09 -3.72229e-08 2.55545e-08)
(-3.28992e-09 -4.56636e-08 3.16874e-08)
(-6.41903e-09 -5.40454e-08 3.80922e-08)
(-1.10263e-08 -6.22801e-08 4.49255e-08)
(-1.75965e-08 -7.0327e-08 5.23538e-08)
(-2.69013e-08 -7.82578e-08 6.05321e-08)
(-4.00799e-08 -8.6164e-08 6.95325e-08)
(-5.87534e-08 -9.39678e-08 7.92128e-08)
(-8.59319e-08 -1.01531e-07 8.93441e-08)
(-1.27723e-07 -1.08958e-07 9.94773e-08)
(-1.94843e-07 -1.17149e-07 1.08389e-07)
(-2.91348e-07 -1.2733e-07 1.13343e-07)
(-4.01894e-07 -1.32798e-07 1.06367e-07)
(0 0 0)
(7.21992e-10 -2.0702e-08 1.39421e-08)
(9.2807e-10 -3.93897e-08 2.66469e-08)
(2.54453e-10 -5.68268e-08 3.87045e-08)
(-1.66098e-09 -7.3671e-08 5.05932e-08)
(-5.23138e-09 -9.0313e-08 6.26929e-08)
(-1.09375e-08 -1.06837e-07 7.53362e-08)
(-1.93659e-08 -1.23183e-07 8.88584e-08)
(-3.13358e-08 -1.3931e-07 1.03579e-07)
(-4.80596e-08 -1.5529e-07 1.19747e-07)
(-7.10979e-08 -1.71142e-07 1.37364e-07)
(-1.02449e-07 -1.8661e-07 1.56072e-07)
(-1.45195e-07 -2.01331e-07 1.75334e-07)
(-2.03599e-07 -2.1515e-07 1.94001e-07)
(-2.80281e-07 -2.28479e-07 2.09454e-07)
(-3.62563e-07 -2.41363e-07 2.17525e-07)
(-4.15972e-07 -2.55022e-07 2.21007e-07)
(0 0 0)
(1.56429e-09 -3.03691e-08 2.058e-08)
(2.35963e-09 -5.78121e-08 3.93257e-08)
(1.89687e-09 -8.34327e-08 5.70949e-08)
(-3.0207e-10 -1.0813e-07 7.45737e-08)
(-4.7551e-09 -1.32462e-07 9.23266e-08)
(-1.20483e-08 -1.56671e-07 1.10884e-07)
(-2.28901e-08 -1.80808e-07 1.30777e-07)
(-3.82127e-08 -2.04858e-07 1.52448e-07)
(-5.92548e-08 -2.28833e-07 1.76169e-07)
(-8.74133e-08 -2.52623e-07 2.01831e-07)
(-1.24318e-07 -2.75811e-07 2.28937e-07)
(-1.72088e-07 -2.97887e-07 2.56749e-07)
(-2.32449e-07 -3.1858e-07 2.83739e-07)
(-3.03238e-07 -3.38138e-07 3.06854e-07)
(-3.6944e-07 -3.56091e-07 3.21672e-07)
(-4.11957e-07 -3.71925e-07 3.30606e-07)
(0 0 0)
(2.8975e-09 -3.90779e-08 2.67945e-08)
(4.77046e-09 -7.44151e-08 5.11762e-08)
(5.05948e-09 -1.07399e-07 7.42409e-08)
(3.24673e-09 -1.39125e-07 9.68606e-08)
(-1.18685e-09 -1.70344e-07 1.19783e-07)
(-8.81617e-09 -2.01502e-07 1.43745e-07)
(-2.03222e-08 -2.32792e-07 1.69455e-07)
(-3.65323e-08 -2.64232e-07 1.97455e-07)
(-5.84082e-08 -2.95777e-07 2.28e-07)
(-8.69371e-08 -3.27219e-07 2.60933e-07)
(-1.2324e-07 -3.58022e-07 2.95703e-07)
(-1.68792e-07 -3.87539e-07 3.31469e-07)
(-2.24737e-07 -4.15197e-07 3.66454e-07)
(-2.89327e-07 -4.40525e-07 3.97089e-07)
(-3.50652e-07 -4.61973e-07 4.17955e-07)
(-3.93772e-07 -4.80096e-07 4.30743e-07)
(0 0 0)
(4.7619e-09 -4.64308e-08 3.24437e-08)
(8.23128e-09 -8.84252e-08 6.19225e-08)
(9.84914e-09 -1.27592e-07 8.9729e-08)
(9.13654e-09 -1.65214e-07 1.16902e-07)
(5.65833e-09 -2.02244e-07 1.44363e-07)
(-1.05074e-09 -2.39327e-07 1.73035e-07)
(-1.15122e-08 -2.76785e-07 2.03777e-07)
(-2.62896e-08 -3.14683e-07 2.37218e-07)
(-4.59274e-08 -3.52964e-07 2.73622e-07)
(-7.08835e-08 -3.91378e-07 3.12808e-07)
(-1.01742e-07 -4.29352e-07 3.54255e-07)
(-1.39624e-07 -4.66166e-07 3.97185e-07)
(-1.8631e-07 -5.00875e-07 4.39743e-07)
(-2.43121e-07 -5.3169e-07 4.7788e-07)
(-3.03269e-07 -5.54467e-07 5.04906e-07)
(-3.52324e-07 -5.70787e-07 5.21708e-07)
(0 0 0)
(7.12054e-09 -5.20642e-08 3.74186e-08)
(1.267e-08 -9.91428e-08 7.13542e-08)
(1.61517e-08 -1.4303e-07 1.03258e-07)
(1.71815e-08 -1.85174e-07 1.34304e-07)
(1.54551e-08 -2.26705e-07 1.65548e-07)
(1.06805e-08 -2.68429e-07 1.98066e-07)
(2.57789e-09 -3.10766e-07 2.32851e-07)
(-9.07268e-09 -3.53831e-07 2.70614e-07)
(-2.4333e-08 -3.9759e-07 3.11631e-07)
(-4.30413e-08 -4.41799e-07 3.55716e-07)
(-6.50234e-08 -4.85935e-07 4.02424e-07)
(-9.06344e-08 -5.29439e-07 4.51185e-07)
(-1.21561e-07 -5.71596e-07 5.00323e-07)
(-1.61296e-07 -6.10511e-07 5.45496e-07)
(-2.09921e-07 -6.40373e-07 5.78531e-07)
(-2.69583e-07 -6.41764e-07 6.00013e-07)
(0 0 0)
(9.85892e-09 -5.56804e-08 4.16317e-08)
(1.78622e-08 -1.06031e-07 7.93199e-08)
(2.36153e-08 -1.52977e-07 1.14618e-07)
(2.68508e-08 -1.98095e-07 1.48781e-07)
(2.74075e-08 -2.42646e-07 1.82962e-07)
(2.51868e-08 -2.87527e-07 2.18349e-07)
(2.01694e-08 -3.3322e-07 2.56048e-07)
(1.24741e-08 -3.79884e-07 2.96832e-07)
(2.49193e-09 -4.27499e-07 3.4097e-07)
(-8.98115e-09 -4.75794e-07 3.88221e-07)
(-2.08448e-08 -5.24269e-07 4.38195e-07)
(-3.20472e-08 -5.7253e-07 4.90539e-07)
(-4.20562e-08 -6.20331e-07 5.43878e-07)
(-5.09584e-08 -6.66747e-07 5.93873e-07)
(-5.82995e-08 -7.06528e-07 6.3087e-07)
(-8.86728e-08 -7.53586e-07 6.52591e-07)
(0 0 0)
(1.27845e-08 -5.71045e-08 4.5019e-08)
(2.34287e-08 -1.08782e-07 8.56982e-08)
(3.16597e-08 -1.57027e-07 1.23641e-07)
(3.73241e-08 -2.03485e-07 1.60132e-07)
(4.03902e-08 -2.49467e-07 1.96374e-07)
(4.0933e-08 -2.95902e-07 2.33638e-07)
(3.91454e-08 -3.43302e-07 2.73096e-07)
(3.53974e-08 -3.91853e-07 3.15538e-07)
(3.04012e-08 -4.41497e-07 3.61165e-07)
(2.53673e-08 -4.91856e-07 4.09645e-07)
(2.20332e-08 -5.42255e-07 4.60474e-07)
(2.24553e-08 -5.91953e-07 5.13293e-07)
(2.89097e-08 -6.39958e-07 5.66995e-07)
(4.47762e-08 -6.83821e-07 6.17698e-07)
(7.25303e-08 -7.15532e-07 6.5532e-07)
(1.66317e-07 -7.33949e-07 6.74488e-07)
(0 0 0)
(0 0 0)
(0 0 0)
(0 0 0)
(0 0 0)
(0 0 0)
(0 0 0)
(0 0 0)
(0 0 0)
(0 0 0)
(0 0 0)
(0 0 0)
(0 0 0)
(0 0 0)
(0 0 0)
(0 0 0)
(-2.05964e-07 -4.2262e-08 2.31333e-08)
(0 0 0)
(-2.84907e-10 -1.07127e-08 5.89507e-09)
(-7.99439e-10 -2.03854e-08 1.1261e-08)
(-1.77497e-09 -2.94301e-08 1.63469e-08)
(-3.43754e-09 -3.8215e-08 2.13551e-08)
(-6.04966e-09 -4.69478e-08 2.6447e-08)
(-9.911e-09 -5.56241e-08 3.17603e-08)
(-1.53952e-08 -6.41678e-08 3.74368e-08)
(-2.30534e-08 -7.25977e-08 4.36406e-08)
(-3.37401e-08 -8.10683e-08 5.05447e-08)
(-4.86739e-08 -8.97499e-08 5.81503e-08)
(-6.97081e-08 -9.87343e-08 6.62017e-08)
(-1.00178e-07 -1.08192e-07 7.44525e-08)
(-1.46396e-07 -1.18575e-07 8.25855e-08)
(-2.18803e-07 -1.30851e-07 9.00457e-08)
(-3.19288e-07 -1.44833e-07 9.58697e-08)
(-4.29702e-07 -1.49607e-07 9.40689e-08)
(0 0 0)
(-3.34765e-10 -2.11661e-08 1.16739e-08)
(-1.12293e-09 -4.02988e-08 2.22981e-08)
(-2.7989e-09 -5.82076e-08 3.23576e-08)
(-5.78671e-09 -7.55647e-08 4.22461e-08)
(-1.05514e-08 -9.27327e-08 5.22874e-08)
(-1.76268e-08 -1.09781e-07 6.27785e-08)
(-2.76844e-08 -1.26685e-07 7.40286e-08)
(-4.16586e-08 -1.435e-07 8.6354e-08)
(-6.08625e-08 -1.60402e-07 9.99952e-08)
(-8.70215e-08 -1.77555e-07 1.14838e-07)
(-1.22426e-07 -1.9493e-07 1.30395e-07)
(-1.70422e-07 -2.12506e-07 1.46101e-07)
(-2.3511e-07 -2.30366e-07 1.61059e-07)
(-3.17614e-07 -2.48395e-07 1.73708e-07)
(-4.01441e-07 -2.64402e-07 1.82095e-07)
(-4.50286e-07 -2.76505e-07 1.88539e-07)
(0 0 0)
(4.71442e-11 -3.1027e-08 1.72235e-08)
(-5.78126e-10 -5.91017e-08 3.2888e-08)
(-2.46617e-09 -8.53824e-08 4.76973e-08)
(-6.17201e-09 -1.10768e-07 6.22184e-08)
(-1.22695e-08 -1.35784e-07 7.69394e-08)
(-2.14214e-08 -1.60671e-07 9.23442e-08)
(-3.44497e-08 -1.85531e-07 1.08911e-07)
(-5.24159e-08 -2.10432e-07 1.27058e-07)
(-7.66584e-08 -2.35492e-07 1.47023e-07)
(-1.08768e-07 -2.60751e-07 1.68598e-07)
(-1.50609e-07 -2.85996e-07 1.91133e-07)
(-2.04365e-07 -3.10981e-07 2.13827e-07)
(-2.71177e-07 -3.35488e-07 2.35487e-07)
(-3.46713e-07 -3.59107e-07 2.54286e-07)
(-4.12128e-07 -3.79562e-07 2.68097e-07)
(-4.47939e-07 -3.94964e-07 2.78481e-07)
(0 0 0)
(9.99086e-10 -3.99029e-08 2.2416e-08)
(1.10203e-09 -7.60269e-08 4.27816e-08)
(-3.6706e-10 -1.09803e-07 6.1988e-08)
(-4.00847e-09 -1.42324e-07 8.07609e-08)
(-1.04069e-08 -1.74321e-07 9.97613e-08)
(-2.0226e-08 -2.06244e-07 1.19655e-07)
(-3.42663e-08 -2.38323e-07 1.41068e-07)
(-5.34702e-08 -2.70636e-07 1.64482e-07)
(-7.89078e-08 -3.03219e-07 1.90122e-07)
(-1.11702e-07 -3.35955e-07 2.17745e-07)
(-1.53133e-07 -3.68455e-07 2.4659e-07)
(-2.04623e-07 -4.00216e-07 2.75698e-07)
(-2.66477e-07 -4.30618e-07 3.03689e-07)
(-3.34612e-07 -4.58686e-07 3.28438e-07)
(-3.93663e-07 -4.81676e-07 3.47101e-07)
(-4.29147e-07 -4.99323e-07 3.60539e-07)
(0 0 0)
(2.57454e-09 -4.73916e-08 2.71373e-08)
(4.02019e-09 -9.02847e-08 5.17526e-08)
(3.652e-09 -1.30329e-07 7.48958e-08)
(9.0525e-10 -1.68804e-07 9.74387e-08)
(-4.72577e-09 -2.06648e-07 1.20196e-07)
(-1.37951e-08 -2.44509e-07 1.43991e-07)
(-2.69379e-08 -2.82735e-07 1.69576e-07)
(-4.4812e-08 -3.21411e-07 1.97497e-07)
(-6.804e-08 -3.60504e-07 2.27971e-07)
(-9.71795e-08 -3.99793e-07 2.60725e-07)
(-1.32913e-07 -4.38738e-07 2.94956e-07)
(-1.76256e-07 -4.76628e-07 3.29643e-07)
(-2.28141e-07 -5.1241e-07 3.63294e-07)
(-2.87666e-07 -5.43967e-07 3.93458e-07)
(-3.44895e-07 -5.66505e-07 4.16427e-07)
(-3.86123e-07 -5.81041e-07 4.32447e-07)
(0 0 0)
(4.73948e-09 -5.31222e-08 3.12872e-08)
(8.103e-09 -1.01176e-07 5.96145e-08)
(9.46746e-09 -1.45988e-07 8.61608e-08)
(8.36276e-09 -1.89e-07 1.11909e-07)
(4.41264e-09 -2.31337e-07 1.37796e-07)
(-2.75663e-09 -2.73802e-07 1.64769e-07)
(-1.35203e-08 -3.16819e-07 1.93694e-07)
(-2.81673e-08 -3.60486e-07 2.25174e-07)
(-4.68067e-08 -4.04734e-07 2.5942e-07)
(-6.93359e-08 -4.4926e-07 2.96125e-07)
(-9.5647e-08 -4.93459e-07 3.34474e-07)
(-1.26012e-07 -5.36643e-07 3.73472e-07)
(-1.61402e-07 -5.7791e-07 4.11607e-07)
(-2.03333e-07 -6.15212e-07 4.4613e-07)
(-2.48957e-07 -6.42857e-07 4.72452e-07)
(-3.01023e-07 -6.41376e-07 4.90515e-07)
(0 0 0)
(7.36351e-09 -5.6801e-08 3.47811e-08)
(1.30901e-08 -1.08169e-07 6.62131e-08)
(1.6671e-08 -1.56053e-07 9.55643e-08)
(1.77563e-08 -2.02027e-07 1.23892e-07)
(1.6118e-08 -2.47338e-07 1.52209e-07)
(1.15865e-08 -2.92881e-07 1.81561e-07)
(4.0616e-09 -3.39127e-07 2.12895e-07)
(-6.38603e-09 -3.86186e-07 2.46853e-07)
(-1.93842e-08 -4.33946e-07 2.83615e-07)
(-3.41664e-08 -4.82012e-07 3.2283e-07)
(-4.96653e-08 -5.297e-07 3.63658e-07)
(-6.47882e-08 -5.76359e-07 4.0513e-07)
(-7.84881e-08 -6.21491e-07 4.45773e-07)
(-8.91177e-08 -6.64187e-07 4.82638e-07)
(-9.33577e-08 -7.00294e-07 5.10427e-07)
(-1.16941e-07 -7.46702e-07 5.28737e-07)
(0 0 0)
(1.02272e-08 -5.82503e-08 3.75458e-08)
(1.8557e-08 -1.10956e-07 7.14187e-08)
(2.4616e-08 -1.60129e-07 1.02935e-07)
(2.81793e-08 -2.07404e-07 1.33185e-07)
(2.91575e-08 -2.54083e-07 1.63228e-07)
(2.7558e-08 -3.01088e-07 1.94161e-07)
(2.35025e-08 -3.48912e-07 2.26965e-07)
(1.73277e-08 -3.97667e-07 2.62279e-07)
(9.7375e-09 -4.47176e-07 3.00238e-07)
(1.96109e-09 -4.96884e-07 3.40398e-07)
(-4.27532e-09 -5.45888e-07 3.81858e-07)
(-6.94218e-09 -5.93163e-07 4.23566e-07)
(-3.46058e-09 -6.37448e-07 4.64081e-07)
(1.08181e-08 -6.76393e-07 5.00563e-07)
(4.06331e-08 -7.0356e-07 5.27199e-07)
(1.45119e-07 -7.21055e-07 5.43796e-07)
(0 0 0)
(0 0 0)
(0 0 0)
(0 0 0)
(0 0 0)
(0 0 0)
(0 0 0)
(0 0 0)
(0 0 0)
(0 0 0)
(0 0 0)
(0 0 0)
(0 0 0)
(0 0 0)
(0 0 0)
(0 0 0)
(-2.1192e-07 -4.43292e-08 1.87052e-08)
(0 0 0)
(-7.47511e-10 -1.0877e-08 4.52395e-09)
(-1.69191e-09 -2.07011e-08 8.62863e-09)
(-3.09332e-09 -2.99042e-08 1.25029e-08)
(-5.21558e-09 -3.89141e-08 1.63124e-08)
(-8.33778e-09 -4.79229e-08 2.01897e-08)
(-1.27691e-08 -5.68712e-08 2.42416e-08)
(-1.89115e-08 -6.5705e-08 2.85881e-08)
(-2.73302e-08 -7.44831e-08 3.33881e-08)
(-3.88573e-08 -8.33921e-08 3.88015e-08)
(-5.4714e-08 -9.26368e-08 4.47626e-08)
(-7.67503e-08 -1.02318e-07 5.10285e-08)
(-1.08351e-07 -1.12694e-07 5.74033e-08)
(-1.55973e-07 -1.24287e-07 6.37031e-08)
(-2.30041e-07 -1.37772e-07 6.97754e-08)
(-3.3211e-07 -1.52186e-07 7.51018e-08)
(-4.42532e-07 -1.55475e-07 7.42389e-08)
(0 0 0)
(-1.23453e-09 -2.14873e-08 8.95681e-09)
(-2.85888e-09 -4.09228e-08 1.70831e-08)
(-5.37105e-09 -5.91832e-08 2.47516e-08)
(-9.24422e-09 -7.69727e-08 3.22784e-08)
(-1.49671e-08 -9.4608e-08 3.992e-08)
(-2.31057e-08 -1.12128e-07 4.7922e-08)
(-3.43758e-08 -1.29534e-07 5.65502e-08)
(-4.9728e-08 -1.4694e-07 6.60921e-08)
(-7.04605e-08 -1.64596e-07 7.67479e-08)
(-9.82406e-08 -1.82659e-07 8.83782e-08)
(-1.35347e-07 -2.01148e-07 1.00499e-07)
(-1.85117e-07 -2.2018e-07 1.126e-07)
(-2.5156e-07 -2.39752e-07 1.24091e-07)
(-3.35271e-07 -2.59166e-07 1.34098e-07)
(-4.18924e-07 -2.75213e-07 1.4131e-07)
(-4.64583e-07 -2.85586e-07 1.46366e-07)
(0 0 0)
(-1.24374e-09 -3.15007e-08 1.32115e-08)
(-3.07046e-09 -6.00456e-08 2.51965e-08)
(-6.15257e-09 -8.68472e-08 3.64913e-08)
(-1.10918e-08 -1.12801e-07 4.75398e-08)
(-1.85037e-08 -1.38402e-07 5.87376e-08)
(-2.90981e-08 -1.63871e-07 7.04909e-08)
(-4.37461e-08 -1.89339e-07 8.31985e-08)
(-6.35168e-08 -2.14938e-07 9.72277e-08)
(-8.97287e-08 -2.40844e-07 1.12785e-07)
(-1.23889e-07 -2.67112e-07 1.29689e-07)
(-1.67791e-07 -2.93586e-07 1.47249e-07)
(-2.2348e-07 -3.20095e-07 1.64679e-07)
(-2.91773e-07 -3.46256e-07 1.81177e-07)
(-3.67557e-07 -3.71054e-07 1.95688e-07)
(-4.31319e-07 -3.91438e-07 2.06741e-07)
(-4.62899e-07 -4.05625e-07 2.14281e-07)
(0 0 0)
(-6.18989e-10 -4.05278e-08 1.71947e-08)
(-2.0157e-09 -7.72654e-08 3.27825e-08)
(-4.95403e-09 -1.1168e-07 4.74335e-08)
(-1.00938e-08 -1.44858e-07 6.17136e-08)
(-1.80626e-08 -1.77494e-07 7.61647e-08)
(-2.95759e-08 -2.10029e-07 9.1341e-08)
(-4.54882e-08 -2.42734e-07 1.07754e-07)
(-6.67448e-08 -2.7573e-07 1.25819e-07)
(-9.43522e-08 -3.09071e-07 1.45778e-07)
(-1.29362e-07 -3.42674e-07 1.67393e-07)
(-1.72938e-07 -3.76202e-07 1.89816e-07)
(-2.26209e-07 -4.09151e-07 2.12073e-07)
(-2.89061e-07 -4.40714e-07 2.33187e-07)
(-3.56607e-07 -4.6943e-07 2.51926e-07)
(-4.13144e-07 -4.92063e-07 2.66291e-07)
(-4.44036e-07 -5.08615e-07 2.7574e-07)
(0 0 0)
(7.05679e-10 -4.81422e-08 2.08151e-08)
(4.34249e-10 -9.17559e-08 3.96594e-08)
(-1.5945e-09 -1.32521e-07 5.7319e-08)
(-6.00534e-09 -1.7169e-07 7.44673e-08)