/*--------------------------------*- C++ -*----------------------------------*\
| =========                 |                                                 |
| \\      /  F ield         | OpenFOAM: The Open Source CFD Toolbox           |
|  \\    /   O peration     | Version:  v1912                                 |
|   \\  /    A nd           | Website:  www.openfoam.com                      |
|    \\/     M anipulation  |                                                 |
\*---------------------------------------------------------------------------*/
FoamFile
{
    version     2.0;
    format      ascii;
    class       volVectorField;
    location    "0.1/fluid";
    object      U;
}
// * * * * * * * * * * * * * * * * * * * * * * * * * * * * * * * * * * * * * //

dimensions      [0 1 -1 0 0 0 0];


internalField   nonuniform List<vector> 
14592
(
(0.0916509 0.0104983 -0.000620594)
(0.0857354 0.00479889 -0.00118799)
(0.0812637 0.00236417 -0.00167227)
(0.0791356 0.00111358 -0.00225084)
(0.0778198 0.000669559 -0.00303954)
(0.0766907 0.000511731 -0.00407749)
(0.0756077 0.000480681 -0.00543049)
(0.0743952 0.000511568 -0.00719658)
(0.0729569 0.000579449 -0.0095229)
(0.0712085 0.000670618 -0.012633)
(0.0688548 0.00077995 -0.016867)
(0.0661662 0.000856576 -0.022815)
(0.0610053 0.000955176 -0.0314078)
(0.056307 0.000729552 -0.0444522)
(0.0407665 0.000680572 -0.0649539)
(0.0254188 -0.00098043 -0.0803994)
(0.103344 0.00912042 -0.000878377)
(0.103396 0.00568747 -0.00161897)
(0.103001 0.00354535 -0.00222888)
(0.101798 0.00224714 -0.00294737)
(0.100752 0.00170785 -0.00392436)
(0.0995595 0.00153007 -0.00521549)
(0.0982858 0.00156229 -0.00690378)
(0.0967965 0.00173254 -0.00911224)
(0.0949961 0.0020091 -0.0120249)
(0.0927836 0.00237431 -0.0159208)
(0.0898031 0.00281736 -0.0212242)
(0.086314 0.00328457 -0.0286661)
(0.0798003 0.0037973 -0.0393938)
(0.0734812 0.00403307 -0.055637)
(0.0536731 0.00429683 -0.0808579)
(0.0337993 0.00254347 -0.0998142)
(0.102449 0.00573627 -0.000870905)
(0.103076 0.00540954 -0.00160887)
(0.103694 0.00419265 -0.00221544)
(0.103062 0.00323723 -0.00292862)
(0.102436 0.00278204 -0.00389725)
(0.101499 0.00267587 -0.00517583)
(0.100404 0.00283174 -0.00684582)
(0.0990484 0.00319764 -0.00902863)
(0.0973551 0.0037487 -0.0119067)
(0.0952283 0.00447226 -0.0157583)
(0.0922939 0.00535893 -0.0210083)
(0.0888063 0.00636428 -0.0283975)
(0.082143 0.00747107 -0.039077)
(0.0755695 0.0084178 -0.0553569)
(0.0550595 0.00920644 -0.080678)
(0.0342995 0.00742038 -0.10009)
(0.101352 0.00436161 -0.000824744)
(0.101899 0.00487866 -0.00153805)
(0.102882 0.0042144 -0.00212715)
(0.102657 0.00363031 -0.00281876)
(0.102379 0.00337931 -0.00375549)
(0.101708 0.00343203 -0.00498824)
(0.100832 0.0037533 -0.00659398)
(0.0996708 0.00432207 -0.0086882)
(0.0981623 0.00513428 -0.0114455)
(0.0962158 0.00619585 -0.0151349)
(0.0934432 0.00751596 -0.0201682)
(0.0900875 0.00907612 -0.0272807)
(0.0834337 0.0108628 -0.037594)
(0.0767531 0.0126449 -0.0534873)
(0.0557736 0.0142633 -0.0782826)
(0.034334 0.0121902 -0.0979075)
(0.100914 0.00343964 -0.000760192)
(0.101338 0.00432653 -0.00143883)
(0.102405 0.00410584 -0.00200391)
(0.102411 0.0038545 -0.00266567)
(0.10239 0.00382852 -0.00355792)
(0.101966 0.00406684 -0.00472651)
(0.101329 0.00457612 -0.00624172)
(0.100409 0.00536562 -0.00820996)
(0.0991532 0.00645636 -0.0107934)
(0.0974765 0.00788003 -0.0142442)
(0.0949828 0.00967422 -0.0189508)
(0.0919021 0.0118594 -0.0256277)
(0.0854335 0.0144347 -0.0353358)
(0.0788044 0.0172043 -0.0505247)
(0.0573133 0.019843 -0.0742821)
(0.0349559 0.0173148 -0.0940399)
(0.100726 0.00284888 -0.000683779)
(0.101084 0.0038188 -0.00132115)
(0.102198 0.00386427 -0.00185777)
(0.102377 0.00385854 -0.00248396)
(0.10257 0.00403334 -0.00332289)
(0.10238 0.00444849 -0.00441409)
(0.101994 0.0051347 -0.00581921)
(0.10135 0.00612605 -0.00763249)
(0.100405 0.00747196 -0.00999874)
(0.0990827 0.00924365 -0.0131462)
(0.096985 0.011538 -0.0174282)
(0.0943155 0.0144901 -0.0235253)
(0.0881823 0.0182357 -0.0324107)
(0.0817036 0.0229176 -0.0466235)
(0.0595896 0.0282822 -0.0689077)
(0.0360469 0.0271042 -0.0889222)
(0.100661 0.00235373 -0.000597982)
(0.101016 0.00331052 -0.00118904)
(0.102197 0.00353696 -0.00169368)
(0.102523 0.00371962 -0.00227974)
(0.102909 0.00406402 -0.00305823)
(0.102945 0.00463251 -0.00406119)
(0.10282 0.00546901 -0.00533963)
(0.102487 0.0066249 -0.00697194)
(0.101924 0.00817155 -0.00907861)
(0.10109 0.0102116 -0.0118496)
(0.0996421 0.0128826 -0.0155745)
(0.0978393 0.0164133 -0.0208395)
(0.0929042 0.0209854 -0.0284094)
(0.0879079 0.027079 -0.0407298)
(0.0665761 0.0343 -0.0597903)
(0.0425381 0.0335435 -0.0790308)
(0.100654 0.00187362 -0.000506576)
(0.10106 0.00275911 -0.00104834)
(0.102341 0.00310694 -0.00151893)
(0.102809 0.00343326 -0.00206218)
(0.103377 0.00391327 -0.00277605)
(0.103628 0.00460179 -0.00368443)
(0.103765 0.00554843 -0.00482658)
(0.103752 0.00681717 -0.00626354)
(0.103593 0.00850153 -0.00808934)
(0.103269 0.0107488 -0.0104532)
(0.102494 0.0137836 -0.0135819)
(0.101505 0.018098 -0.017969)
(0.0976577 0.0242781 -0.0242009)
(0.093852 0.0346972 -0.0346518)
(0.0732401 0.0506999 -0.0506613)
(0.0512393 0.0701229 -0.0700758)
(0.091594 0.0105038 -0.000753221)
(0.0855355 0.00481057 -0.00133335)
(0.0808687 0.00237657 -0.00177735)
(0.0785585 0.00112853 -0.00230397)
(0.0770306 0.000688746 -0.00303367)
(0.0756503 0.000537036 -0.00400653)
(0.0742487 0.000514594 -0.00528325)
(0.0726209 0.000557453 -0.00694985)
(0.0706333 0.000642174 -0.00912828)
(0.0681591 0.000757728 -0.0119868)
(0.0648606 0.000904594 -0.0157537)
(0.0609649 0.00104237 -0.0207078)
(0.0544746 0.00124975 -0.0272663)
(0.0480416 0.0012319 -0.0353734)
(0.0323997 0.00151275 -0.0456124)
(0.0156992 0.000477549 -0.0429023)
(0.103273 0.00914209 -0.00102407)
(0.103151 0.005723 -0.00177889)
(0.102517 0.00358774 -0.00234233)
(0.101083 0.00229926 -0.00299942)
(0.09977 0.00177487 -0.00390596)
(0.0982589 0.00161845 -0.00511868)
(0.096582 0.00168048 -0.00671463)
(0.0945667 0.00189157 -0.00880249)
(0.0920694 0.0022236 -0.0115362)
(0.0889322 0.00266368 -0.0151289)
(0.0847385 0.00320845 -0.0198704)
(0.0796863 0.00381249 -0.0261203)
(0.0713978 0.00451954 -0.0344019)
(0.0627984 0.00501842 -0.0447136)
(0.0426303 0.00564195 -0.0576304)
(0.0210849 0.00415334 -0.0543447)
(0.10238 0.00577772 -0.00101815)
(0.102834 0.00547401 -0.00177099)
(0.103214 0.00427156 -0.002331)
(0.102354 0.00333461 -0.00298265)
(0.101464 0.00290725 -0.00388084)
(0.100215 0.00284109 -0.00508121)
(0.0987229 0.0030529 -0.00665934)
(0.0968501 0.00349559 -0.00872234)
(0.0944704 0.0041507 -0.0114226)
(0.0914313 0.00501339 -0.0149719)
(0.0872952 0.00608429 -0.0196601)
(0.0822571 0.007324 -0.0258522)
(0.0738165 0.00873657 -0.0340711)
(0.0649626 0.0100119 -0.0443533)
(0.044051 0.0111965 -0.0572478)
(0.0215581 0.00917789 -0.0540153)
(0.101285 0.00441772 -0.000973464)
(0.101664 0.0049656 -0.00170252)
(0.102417 0.0043217 -0.00224559)
(0.101973 0.00376317 -0.00287639)
(0.101443 0.00355053 -0.00374377)
(0.100473 0.00365857 -0.00489993)
(0.099219 0.00405764 -0.00641618)
(0.0975658 0.00473406 -0.0083941)
(0.0954035 0.00569351 -0.010979)
(0.0925866 0.00695409 -0.0143743)
(0.0886615 0.00854078 -0.0188593)
(0.0838175 0.0104434 -0.0247957)
(0.0754322 0.0126809 -0.0326869)
(0.066533 0.0149395 -0.0426311)
(0.0451041 0.0171396 -0.0551199)
(0.0218495 0.0146114 -0.0521274)
(0.100849 0.00350984 -0.000910915)
(0.101112 0.00443492 -0.00160648)
(0.101959 0.00424001 -0.00212632)
(0.101759 0.00402099 -0.0027283)
(0.101501 0.00404356 -0.00355276)
(0.100799 0.00435216 -0.0046471)
(0.0998116 0.00496092 -0.00607633)
(0.0984359 0.00588926 -0.00793369)
(0.0965742 0.00717199 -0.0103533)
(0.0940904 0.0088585 -0.0135247)
(0.0905218 0.0110098 -0.0177086)
(0.0860544 0.0136602 -0.0232556)
(0.0779367 0.0168559 -0.0306307)
(0.069205 0.0202823 -0.0400188)
(0.047182 0.0237403 -0.0518046)
(0.0228772 0.0205255 -0.049167)
(0.100664 0.00292955 -0.000836927)
(0.100869 0.00394326 -0.00149261)
(0.101777 0.00401856 -0.00198494)
(0.101763 0.00405032 -0.00255259)
(0.101739 0.00428157 -0.00332564)
(0.101296 0.00477886 -0.0043455)
(0.100593 0.00558221 -0.00566915)
(0.099539 0.00673891 -0.00737874)
(0.0980505 0.00831722 -0.0095932)
(0.096005 0.0104144 -0.0124822)
(0.0929357 0.0131651 -0.0162798)
(0.0890146 0.0167397 -0.0213186)
(0.0813366 0.0213625 -0.0280088)
(0.072907 0.0270668 -0.0366558)
(0.0501433 0.0338326 -0.0474834)
(0.0244748 0.0319209 -0.0453777)
(0.100602 0.00244182 -0.000753896)
(0.100814 0.00344627 -0.00136482)
(0.101803 0.0037054 -0.00182627)
(0.101953 0.00392918 -0.0023552)
(0.102144 0.00433563 -0.00307002)
(0.101955 0.00499471 -0.00400509)
(0.101554 0.00596109 -0.00520757)
(0.100868 0.00730162 -0.00674544)
(0.0998416 0.00911013 -0.00871685)
(0.098399 0.0115211 -0.0112612)
(0.0961417 0.014718 -0.0145658)
(0.0933296 0.0189773 -0.0189106)
(0.087122 0.0245856 -0.0245821)
(0.0806128 0.0319118 -0.0319526)
(0.0586269 0.0408637 -0.040923)
(0.032334 0.0390978 -0.0391527)
(0.100599 0.00196534 -0.000665488)
(0.100871 0.00290036 -0.00122877)
(0.101975 0.00328223 -0.00165735)
(0.102286 0.00365138 -0.002145)
(0.102681 0.0041961 -0.00279758)
(0.10274 0.00497935 -0.00364185)
(0.102644 0.00606247 -0.00471415)
(0.102338 0.00752685 -0.006067)
(0.101801 0.00949246 -0.00777605)
(0.100989 0.0121473 -0.00994877)
(0.0995625 0.0157791 -0.0127269)
(0.0977792 0.0209726 -0.0163422)
(0.0928622 0.0284926 -0.0209765)
(0.087885 0.0407845 -0.0271134)
(0.0665698 0.0598446 -0.0343516)
(0.0425424 0.0791014 -0.0335913)
(0.091546 0.010509 -0.00079513)
(0.0853605 0.00482152 -0.00135325)
(0.0805169 0.00238828 -0.00175001)
(0.0780364 0.00114268 -0.00221613)
(0.0763082 0.00070686 -0.00286769)
(0.0746906 0.000560848 -0.00374233)
(0.0729906 0.000546306 -0.00489305)
(0.0709764 0.000599792 -0.0063921)
(0.068478 0.000698487 -0.00833875)
(0.0653165 0.000831847 -0.0108641)
(0.0610973 0.00099997 -0.014143)
(0.055925 0.00116186 -0.0183513)
(0.0479117 0.0013886 -0.0238135)
(0.0393982 0.00139229 -0.0302378)
(0.0235441 0.00163405 -0.0380835)
(0.00823569 0.000633948 -0.0354373)
(0.103212 0.00916265 -0.00105962)
(0.102935 0.00575659 -0.00178414)
(0.102083 0.00362787 -0.00229033)
(0.100434 0.00234859 -0.00287402)
(0.0988687 0.00183822 -0.00368536)
(0.0970574 0.00170188 -0.00477755)
(0.0950029 0.00179178 -0.00621806)
(0.092499 0.00204072 -0.00809846)
(0.0893564 0.00242324 -0.0105443)
(0.0853529 0.00292936 -0.0137214)
(0.0800003 0.00355819 -0.0178503)
(0.073354 0.00426461 -0.0231583)
(0.0631561 0.00509098 -0.030037)
(0.0520107 0.00571138 -0.0381736)
(0.0315221 0.00642681 -0.047982)
(0.0116812 0.00485395 -0.0445966)
(0.10232 0.00581702 -0.00105501)
(0.10262 0.00553505 -0.00177809)
(0.102785 0.00434628 -0.00228102)
(0.101712 0.00342677 -0.00285954)
(0.100573 0.00302563 -0.00366306)
(0.0990283 0.0029971 -0.00474381)
(0.0971652 0.00326138 -0.006168)
(0.0948115 0.00377579 -0.0080258)
(0.0917956 0.00452744 -0.0104414)
(0.0878996 0.00551788 -0.0135798)
(0.0826116 0.00675508 -0.0176615)
(0.0759825 0.00820167 -0.0229183)
(0.0656155 0.00987264 -0.0297435)
(0.0541892 0.0114102 -0.0378521)
(0.0328955 0.0128847 -0.0476438)
(0.0120692 0.0106273 -0.0443167)
(0.101227 0.0044709 -0.00101366)
(0.101457 0.00504795 -0.00171481)
(0.102002 0.00442328 -0.00220206)
(0.101353 0.00388886 -0.00276137)
(0.100585 0.00371236 -0.00353656)
(0.099333 0.00387242 -0.00457677)
(0.0977253 0.00434446 -0.00594441)
(0.0956142 0.00512147 -0.00772484)
(0.0928453 0.00621793 -0.0100362)
(0.089209 0.00766268 -0.0130367)
(0.0841749 0.00949447 -0.016939)
(0.0777913 0.0117102 -0.0219731)
(0.0675123 0.0143556 -0.0285205)
(0.0560762 0.0170451 -0.0363502)
(0.0341906 0.0197652 -0.0458289)
(0.0124833 0.0169003 -0.0427388)
(0.100794 0.00357635 -0.000955747)
(0.100914 0.00453756 -0.00162593)
(0.101563 0.00436699 -0.00209175)
(0.101169 0.00417843 -0.00262453)
(0.100688 0.00424671 -0.00336031)
(0.0997229 0.00462136 -0.00434388)
(0.0984072 0.00532333 -0.00563213)
(0.0966071 0.00638132 -0.00730317)
(0.0941829 0.00784272 -0.00946576)
(0.0909376 0.00977321 -0.0122666)
(0.0863305 0.0122558 -0.0159042)
(0.080415 0.0153401 -0.0206019)
(0.070476 0.0191189 -0.0267143)
(0.0592996 0.0231826 -0.03409)
(0.0367142 0.0274506 -0.0430265)
(0.01375 0.0238001 -0.040275)
(0.100612 0.00300595 -0.000887257)
(0.100682 0.00406105 -0.00152057)
(0.101404 0.00416453 -0.00196103)
(0.10121 0.00423161 -0.00246224)
(0.10098 0.00451597 -0.00315082)
(0.100297 0.00509035 -0.00406626)
(0.0992975 0.00600332 -0.00525834)
(0.0978617 0.00731418 -0.00679565)
(0.0958683 0.00910837 -0.0087741)
(0.0931392 0.0115073 -0.0113242)
(0.0891299 0.0146813 -0.0146229)
(0.0838934 0.0188365 -0.0188816)
(0.0745068 0.0242866 -0.0244131)
(0.0637862 0.0309804 -0.0311729)
(0.0403286 0.0391189 -0.0393459)
(0.0157022 0.0368368 -0.0370539)
(0.100553 0.0025252 -0.000810432)
(0.100639 0.00357472 -0.00140238)
(0.101455 0.00386469 -0.00181437)
(0.101441 0.0041272 -0.00227999)
(0.101446 0.004592 -0.00291518)
(0.101045 0.00533606 -0.00375317)
(0.100385 0.00642388 -0.00483517)
(0.0993679 0.00793647 -0.0062177)
(0.0979107 0.0099885 -0.00797946)
(0.0958913 0.0127447 -0.0102268)
(0.092844 0.0164352 -0.0131008)
(0.0889434 0.0213893 -0.016777)
(0.081284 0.028017 -0.0214785)
(0.0728756 0.0366204 -0.0272453)
(0.0501317 0.0474306 -0.0340405)
(0.0244724 0.0453287 -0.0321173)
(0.100553 0.00205213 -0.000728659)
(0.100709 0.00303397 -0.00127657)
(0.101655 0.00344795 -0.00165829)
(0.101818 0.00385743 -0.00208597)
(0.10205 0.00446297 -0.00266413)
(0.101925 0.005335 -0.00341922)
(0.101609 0.00654556 -0.00438306)
(0.101031 0.00819193 -0.00559889)
(0.100143 0.0104185 -0.00712652)
(0.0988699 0.0134517 -0.00904614)
(0.0968151 0.017643 -0.0114612)
(0.0941856 0.023672 -0.0145119)
(0.0880893 0.0325123 -0.018333)
(0.081651 0.0467043 -0.0230742)
(0.0595731 0.069002 -0.0284644)
(0.0360516 0.0890468 -0.0272776)
(0.0915057 0.0105137 -0.000759402)
(0.0852107 0.00483134 -0.00126352)
(0.0802132 0.00239883 -0.00160397)
(0.0775817 0.00115543 -0.002)
(0.0756757 0.000723172 -0.00255578)
(0.0738495 0.000582283 -0.00330357)
(0.0718926 0.000574875 -0.00428588)
(0.0695571 0.000638098 -0.00555731)
(0.066657 0.000749995 -0.0071878)
(0.0629982 0.000901483 -0.00925965)
(0.0582029 0.00109435 -0.0118667)
(0.0523691 0.00129315 -0.0150491)
(0.0438821 0.0015704 -0.0189181)
(0.0349517 0.0016645 -0.0229416)
(0.020105 0.00200001 -0.0272315)
(0.00650537 0.00112432 -0.0235746)
(0.103162 0.00918121 -0.00100045)
(0.10275 0.00578686 -0.00165381)
(0.101708 0.00366406 -0.0020898)
(0.0998678 0.00239306 -0.0025871)
(0.098078 0.00189526 -0.00328048)
(0.0960024 0.00177688 -0.00421574)
(0.0936222 0.00189168 -0.00544727)
(0.0907105 0.00217437 -0.00704475)
(0.0870566 0.00260198 -0.00909746)
(0.0824184 0.0031675 -0.0117112)
(0.0763242 0.00387328 -0.0150069)
(0.0688252 0.00467816 -0.0190454)
(0.0579813 0.00562738 -0.0239583)
(0.0462861 0.00639709 -0.029133)
(0.0270049 0.00726708 -0.0345867)
(0.00930647 0.00569148 -0.0299828)
(0.102271 0.00585252 -0.000996951)
(0.102437 0.00559015 -0.0016493)
(0.102414 0.0044137 -0.00208242)
(0.101152 0.00350984 -0.00257512)
(0.0997922 0.00313217 -0.00326163)
(0.0979869 0.00313723 -0.00418692)
(0.0958035 0.00344818 -0.00540434)
(0.0930488 0.00402603 -0.0069824)
(0.0895299 0.00486246 -0.00900925)
(0.0850086 0.00596419 -0.0115899)
(0.0789878 0.00734462 -0.014845)
(0.0715146 0.00896781 -0.0188378)
(0.0605018 0.0108554 -0.0237005)
(0.0485258 0.0126139 -0.028836)
(0.0284148 0.0143238 -0.0342501)
(0.00971688 0.0118853 -0.0296706)
(0.101179 0.00451894 -0.000960647)
(0.10128 0.00512228 -0.00159376)
(0.101643 0.00451492 -0.00201314)
(0.100813 0.00400212 -0.00248906)
(0.0998327 0.00385794 -0.00315092)
(0.0983327 0.00406437 -0.00404106)
(0.0964202 0.0046011 -0.00520966)
(0.0939279 0.00546666 -0.0067214)
(0.0906809 0.0066824 -0.00865973)
(0.0864499 0.00828514 -0.0111245)
(0.080717 0.0103226 -0.0142314)
(0.0735275 0.0127934 -0.0180435)
(0.0626235 0.0157568 -0.0226871)
(0.0506563 0.0187638 -0.0276084)
(0.0298907 0.0218349 -0.0327956)
(0.0102219 0.0186733 -0.0284213)
(0.100748 0.00363641 -0.000909742)
(0.100745 0.00463019 -0.00151569)
(0.101222 0.0044815 -0.00191632)
(0.100656 0.00432024 -0.00236912)
(0.0999763 0.00442936 -0.00299671)
(0.0987797 0.00486277 -0.0038378)
(0.0971809 0.00564715 -0.00493803)
(0.0950279 0.00681873 -0.00635631)
(0.0921619 0.00843457 -0.0081689)
(0.0883676 0.0105718 -0.0104675)
(0.0831135 0.0133272 -0.0133585)
(0.0764532 0.0167541 -0.0169038)
(0.0659253 0.0209678 -0.0212157)
(0.0542549 0.0254668 -0.0258079)
(0.0326917 0.0302341 -0.0306305)
(0.0116145 0.026174 -0.026564)
(0.100568 0.00307491 -0.000849566)
(0.100523 0.00416734 -0.00142315)
(0.101082 0.00429613 -0.00180161)
(0.100729 0.00439483 -0.0022269)
(0.100317 0.0047266 -0.0028135)
(0.0994225 0.00536944 -0.00359568)
(0.0981668 0.00637902 -0.00461331)
(0.0964138 0.00782422 -0.00591775)
(0.0940253 0.00980335 -0.00757558)
(0.0908069 0.0124541 -0.00966703)
(0.0862202 0.0159683 -0.0122849)
(0.0803229 0.0205644 -0.0154874)
(0.0703985 0.0265982 -0.0193644)
(0.0592417 0.0339115 -0.0235226)
(0.0366799 0.042819 -0.0278473)
(0.0137272 0.040079 -0.0241936)
(0.100512 0.00260045 -0.000782082)
(0.100491 0.00369058 -0.00131936)
(0.101156 0.00400827 -0.00167295)
(0.100997 0.00430543 -0.00206727)
(0.100838 0.00482226 -0.00260755)
(0.100249 0.00564164 -0.00332289)
(0.0993637 0.00683623 -0.00424625)
(0.0980728 0.00849816 -0.00541962)
(0.0962784 0.0107574 -0.0068969)
(0.0938481 0.0137986 -0.00874188)
(0.0903226 0.0178786 -0.0110251)
(0.0858951 0.023345 -0.0137891)
(0.0778121 0.0306627 -0.0170761)
(0.0691235 0.040013 -0.0205881)
(0.0471441 0.0517896 -0.0240885)
(0.0228585 0.0491561 -0.0208665)
(0.100515 0.00213043 -0.000710271)
(0.100572 0.00315446 -0.00120891)
(0.10138 0.00359728 -0.00153606)
(0.101413 0.00404283 -0.00189737)
(0.101499 0.00470256 -0.00238821)
(0.101212 0.00565318 -0.00303209)
(0.100706 0.0069755 -0.0038544)
(0.0998998 0.00877907 -0.00488687)
(0.0987376 0.0112258 -0.0061695)
(0.0971382 0.0145663 -0.00774833)
(0.094709 0.0191875 -0.00967056)
(0.0916882 0.0258036 -0.011965)
(0.0852726 0.0354772 -0.0146276)
(0.0787066 0.0506611 -0.0174803)
(0.0572743 0.0744606 -0.0201584)
(0.0349491 0.0942754 -0.0176321)
(0.0914732 0.0105177 -0.000659074)
(0.0850879 0.00483966 -0.00108152)
(0.0799629 0.00240779 -0.00135665)
(0.0772052 0.00116627 -0.00167392)
(0.0751509 0.000737002 -0.00211975)
(0.0731523 0.000600418 -0.00271971)
(0.0709866 0.000598963 -0.00350575)
(0.0683961 0.00067021 -0.00451687)
(0.065186 0.000792752 -0.00580043)
(0.0611563 0.000958218 -0.00740771)
(0.0559495 0.0011686 -0.00939134)
(0.0496572 0.00139052 -0.0117507)
(0.0408734 0.00169179 -0.0145384)
(0.0317028 0.0018233 -0.0173163)
(0.0176403 0.00217279 -0.0201462)
(0.00530468 0.00132012 -0.0173158)
(0.10312 0.00919703 -0.000862236)
(0.102598 0.00581263 -0.00140908)
(0.101399 0.00369484 -0.00176242)
(0.0993981 0.00243086 -0.00216161)
(0.097421 0.00194366 -0.00271866)
(0.0951266 0.00184038 -0.00347001)
(0.0924813 0.001976 -0.0044567)
(0.0892449 0.00228673 -0.00572879)
(0.0851958 0.00275134 -0.00734708)
(0.0800835 0.00336479 -0.009378)
(0.0734592 0.00413076 -0.0118897)
(0.0653726 0.00500921 -0.0148887)
(0.0541301 0.00604255 -0.0184315)
(0.0421333 0.00690326 -0.0220049)
(0.023819 0.00784699 -0.0255921)
(0.00771412 0.00621664 -0.0219924)
(0.10223 0.00588277 -0.000859658)
(0.102287 0.00563708 -0.00140584)
(0.102107 0.00447106 -0.00175687)
(0.100688 0.00358044 -0.00215227)
(0.0991432 0.00322257 -0.00270372)
(0.0971226 0.00325584 -0.00344699)
(0.0946784 0.00360579 -0.00442234)
(0.0916046 0.00423629 -0.00567894)
(0.0876969 0.00514243 -0.00727677)
(0.0827084 0.0063345 -0.00928169)
(0.0761639 0.00782912 -0.011762)
(0.0681078 0.00959002 -0.0147259)
(0.0566933 0.0116405 -0.0182313)
(0.044411 0.0135582 -0.0217755)
(0.0252461 0.0154254 -0.0253354)
(0.00813209 0.0128274 -0.0217599)
(0.10114 0.00455986 -0.000829862)
(0.101134 0.00518559 -0.00136025)
(0.101347 0.00459289 -0.00170003)
(0.100365 0.00409836 -0.00208174)
(0.0992082 0.00398141 -0.00261314)
(0.0975028 0.00422673 -0.00332793)
(0.0953421 0.00481744 -0.00426393)
(0.0925467 0.00575632 -0.00546742)
(0.0889306 0.00706987 -0.00699498)
(0.0842559 0.00880054 -0.00890896)
(0.0780242 0.0110018 -0.0112745)
(0.0702782 0.0136721 -0.0141009)
(0.0589839 0.0168777 -0.0174435)
(0.046717 0.0201208 -0.0208321)
(0.0268449 0.0234411 -0.0242351)
(0.0086945 0.0200416 -0.0208247)
(0.100711 0.00368758 -0.000788029)
(0.100606 0.00470907 -0.00129613)
(0.10094 0.00457891 -0.00162058)
(0.100231 0.0044407 -0.00198345)
(0.0993857 0.00458418 -0.00248702)
(0.0979973 0.00506681 -0.00316212)
(0.0961682 0.00591981 -0.00404311)
(0.0937348 0.00718518 -0.00517195)
(0.0905283 0.00892718 -0.00660003)
(0.0863249 0.0112311 -0.00838411)
(0.0806103 0.0142029 -0.0105837)
(0.0734363 0.0178971 -0.0132083)
(0.0625402 0.0224429 -0.0163065)
(0.0505888 0.0272701 -0.0194586)
(0.0298404 0.0324014 -0.0226111)
(0.0101724 0.0280297 -0.0194429)
(0.100533 0.00313365 -0.000738592)
(0.100393 0.00425783 -0.00122012)
(0.100818 0.00440806 -0.00152645)
(0.100332 0.00453343 -0.00186693)
(0.0997667 0.00490504 -0.00233723)
(0.0986974 0.00560514 -0.00296474)
(0.0972333 0.00669495 -0.0037794)
(0.0952283 0.00825067 -0.00481755)
(0.0925356 0.0103801 -0.00612365)
(0.0889539 0.0132325 -0.00774657)
(0.0839583 0.0170139 -0.00973699)
(0.0776081 0.0219497 -0.0121037)
(0.0673503 0.028423 -0.0148821)
(0.0559487 0.036195 -0.0177205)
(0.0341026 0.0456537 -0.0205267)
(0.012406 0.0425737 -0.0176714)
(0.100479 0.00266453 -0.000683161)
(0.100369 0.00378921 -0.00113489)
(0.100911 0.00413035 -0.00142091)
(0.100631 0.00445673 -0.00173619)
(0.100333 0.00501724 -0.00216894)
(0.0995886 0.00589955 -0.00274255)
(0.0985208 0.00718263 -0.00348169)
(0.0970117 0.00896711 -0.00441585)
(0.0949579 0.0113942 -0.00558051)
(0.0922229 0.0146627 -0.00701348)
(0.0883602 0.019048 -0.0087513)
(0.0835731 0.0249088 -0.0107953)
(0.0752315 0.0327488 -0.0131524)
(0.066395 0.0426613 -0.0155444)
(0.0450261 0.0551515 -0.0178046)
(0.0217865 0.0521579 -0.0152839)
(0.100485 0.0021971 -0.000624186)
(0.10046 0.00325701 -0.00104421)
(0.101156 0.00372424 -0.00130863)
(0.10108 0.00420018 -0.00159708)
(0.101044 0.00490537 -0.00198978)
(0.100622 0.00592157 -0.00250579)
(0.0999604 0.00733636 -0.00316408)
(0.0989727 0.00926854 -0.00398658)
(0.0975996 0.0118927 -0.00499886)
(0.0957594 0.0154766 -0.00622663)
(0.0930708 0.0204313 -0.00769099)
(0.0897918 0.0274927 -0.00938615)
(0.0831984 0.0377862 -0.0112886)
(0.0765996 0.0536992 -0.0132084)
(0.0556918 0.0785839 -0.0148972)
(0.0342818 0.0983163 -0.0128704)
(0.0914485 0.0105208 -0.000507715)
(0.084994 0.0048462 -0.000826164)
(0.0797709 0.0024148 -0.00102833)
(0.0769157 0.00117479 -0.00125989)
(0.0747471 0.000747857 -0.00158526)
(0.0726171 0.000614625 -0.0020228)
(0.0702945 0.000617782 -0.00259437)
(0.0675167 0.000695226 -0.00332542)
(0.0640865 0.000825954 -0.00424507)
(0.0598054 0.0010022 -0.00538149)
(0.0543414 0.0012262 -0.00675817)
(0.0477939 0.00146666 -0.00835293)
(0.0389185 0.00178869 -0.010173)
(0.0297463 0.00195349 -0.0118878)
(0.0163052 0.00232514 -0.0135126)
(0.00481439 0.00149049 -0.0114105)
(0.103089 0.00920946 -0.000661391)
(0.102482 0.0058329 -0.00107324)
(0.10116 0.00371899 -0.00133344)
(0.0990363 0.0024605 -0.00162518)
(0.0969149 0.00198156 -0.0020322)
(0.0944534 0.00189001 -0.00258069)
(0.0916086 0.00204173 -0.00329891)
(0.0881334 0.00237402 -0.00421967)
(0.0838025 0.00286692 -0.00538063)
(0.0783672 0.00351675 -0.00681882)
(0.0714085 0.00432808 -0.00856538)
(0.0629907 0.00526191 -0.0105978)
(0.0516115 0.00635861 -0.0129187)
(0.0396086 0.00728907 -0.0151375)
(0.0220683 0.00829239 -0.0172097)
(0.00703449 0.00662188 -0.0145339)
(0.102199 0.00590657 -0.000659595)
(0.102172 0.00567398 -0.00107107)
(0.101872 0.0045161 -0.0013296)
(0.10033 0.00363582 -0.00161852)
(0.0986432 0.00329333 -0.00202142)
(0.0964581 0.0033485 -0.002564)
(0.0938178 0.00372854 -0.00327395)
(0.0905093 0.00439945 -0.00418349)
(0.0863247 0.00535866 -0.00532971)
(0.0810185 0.0066189 -0.00674924)
(0.0741445 0.00819866 -0.00847336)
(0.0657614 0.0100611 -0.0104805)
(0.0542096 0.0122296 -0.0127741)
(0.0419204 0.0142619 -0.0149701)
(0.0235155 0.0162394 -0.0170197)
(0.00746507 0.013523 -0.0143601)
(0.10111 0.00459203 -0.000637489)
(0.101023 0.00523535 -0.0010372)
(0.10112 0.00465412 -0.0012874)
(0.100021 0.00417384 -0.00156619)
(0.0987273 0.00407806 -0.00195433)
(0.096865 0.0043535 -0.00247599)
(0.0945177 0.00498581 -0.00315719)
(0.0914995 0.0059808 -0.00402812)
(0.087621 0.00736856 -0.00512363)
(0.0826453 0.00919521 -0.00647812)
(0.0761016 0.0115175 -0.0081211)
(0.0680461 0.014333 -0.0100321)
(0.0566208 0.0177105 -0.0122142)
(0.0443488 0.0211176 -0.014305)
(0.0251983 0.0246041 -0.016252)
(0.00806608 0.0210271 -0.0137109)
(0.100683 0.0037278 -0.000606374)
(0.1005 0.00477106 -0.000989539)
(0.100724 0.00465539 -0.00122841)
(0.0999047 0.00453514 -0.00149331)
(0.098931 0.0047053 -0.00186097)
(0.0973963 0.005226 -0.00235354)
(0.0953939 0.00613177 -0.00299459)
(0.0927546 0.00746873 -0.00381138)
(0.0893063 0.00930606 -0.00483534)
(0.0848267 0.0117344 -0.00609736)
(0.0788259 0.0148649 -0.00762378)
(0.0713699 0.0187514 -0.00939545)
(0.0603537 0.0235295 -0.0114125)
(0.048404 0.0285797 -0.0133473)
(0.0283198 0.0339474 -0.0151356)
(0.00959679 0.0293437 -0.0127686)
(0.100506 0.00317981 -0.000569634)
(0.100293 0.00432893 -0.000933058)
(0.100615 0.00449592 -0.00115852)
(0.100027 0.00464207 -0.0014069)
(0.0993433 0.00504459 -0.00175011)
(0.0981405 0.0057889 -0.00220782)
(0.0965195 0.0069403 -0.00280053)
(0.0943297 0.00858011 -0.00355171)
(0.0914216 0.0108225 -0.00448821)
(0.0875956 0.0138242 -0.00563598)
(0.0823485 0.0177996 -0.00701635)
(0.0757548 0.0229755 -0.0086109)
(0.0653949 0.0297488 -0.0104135)
(0.0540102 0.0378208 -0.0121429)
(0.0327565 0.0476225 -0.0137133)
(0.0119039 0.0442838 -0.0115683)
(0.100454 0.00271488 -0.000528435)
(0.100277 0.0038667 -0.000869727)
(0.100723 0.00422617 -0.00108017)
(0.100349 0.00457527 -0.00130999)
(0.0999453 0.00516965 -0.00162562)
(0.0990817 0.00610051 -0.0020439)
(0.0978761 0.0074514 -0.00258171)
(0.0962069 0.00932889 -0.0032579)
(0.0939694 0.0118817 -0.00409351)
(0.0910303 0.0153177 -0.00510775)
(0.0869627 0.019923 -0.00631397)
(0.0819886 0.0260597 -0.00769139)
(0.0735828 0.0342515 -0.00921944)
(0.0648088 0.044524 -0.0106689)
(0.0439549 0.0574478 -0.0119116)
(0.0214271 0.0541769 -0.0100098)
(0.100462 0.00224948 -0.00048461)
(0.100376 0.00333757 -0.000802352)
(0.100984 0.00382387 -0.000996827)
(0.100824 0.00432345 -0.00120689)
(0.100694 0.00506387 -0.00149311)
(0.100168 0.0061306 -0.0018693)
(0.0993897 0.00761613 -0.00234838)
(0.0982687 0.00964568 -0.00294413)
(0.0967465 0.0124023 -0.00367117)
(0.0947461 0.0161643 -0.00454123)
(0.0919032 0.0213565 -0.00555882)
(0.088499 0.0287237 -0.00670101)
(0.0818826 0.0394239 -0.00793146)
(0.0754016 0.0557864 -0.00908278)
(0.0549426 0.081308 -0.00998172)
(0.0341586 0.10095 -0.00842655)
(0.0914319 0.0105229 -0.000319297)
(0.0849303 0.00485073 -0.000517795)
(0.0796406 0.00241958 -0.00064073)
(0.0767191 0.00118066 -0.000781747)
(0.0744732 0.000755302 -0.000979531)
(0.0722547 0.000624358 -0.00124522)
(0.069828 0.000630646 -0.00159151)
(0.066928 0.000712279 -0.00203249)
(0.0633576 0.000848509 -0.0025836)
(0.0589216 0.00103192 -0.00325836)
(0.0533072 0.0012648 -0.00406597)
(0.0466211 0.00151699 -0.00498608)
(0.0377191 0.00185132 -0.00601715)
(0.0285832 0.00203462 -0.00696146)
(0.0155355 0.0024159 -0.00782777)
(0.00455166 0.00158539 -0.00657996)
(0.103068 0.00921802 -0.000415531)
(0.102402 0.00584688 -0.000671175)
(0.100999 0.00373558 -0.00083015)
(0.0987903 0.0024809 -0.00100769)
(0.096571 0.00200757 -0.00125534)
(0.0939971 0.00192403 -0.00158866)
(0.0910196 0.00208669 -0.00202416)
(0.0873882 0.00243357 -0.00258008)
(0.0828773 0.00294549 -0.00327656)
(0.0772423 0.0036196 -0.00413159)
(0.070087 0.00446085 -0.00515775)
(0.0614879 0.00543064 -0.00633257)
(0.0500622 0.00656737 -0.00764978)
(0.0381039 0.00754025 -0.00887472)
(0.0210582 0.00857739 -0.00998115)
(0.00666967 0.00687462 -0.00838778)
(0.102179 0.00592297 -0.00041407)
(0.102094 0.00569939 -0.000669804)
(0.101712 0.00454708 -0.000828047)
(0.100087 0.0036739 -0.0010038)
(0.0983035 0.00334192 -0.00124898)
(0.0960078 0.003412 -0.00157869)
(0.0932369 0.00381248 -0.00200918)
(0.089775 0.00451069 -0.00255834)
(0.0854136 0.00550554 -0.003246)
(0.0799111 0.00681118 -0.0040899)
(0.0728436 0.00844707 -0.00510277)
(0.0642816 0.0103756 -0.00626261)
(0.0526828 0.0126196 -0.00756401)
(0.0404371 0.0147239 -0.00877552)
(0.0225177 0.0167682 -0.00986927)
(0.0071074 0.0139716 -0.00828639)
(0.101091 0.00461418 -0.00040068)
(0.100948 0.00526962 -0.000648955)
(0.100965 0.00469625 -0.000802057)
(0.0997866 0.00422572 -0.000971543)
(0.0984006 0.00414439 -0.0012077)
(0.0964327 0.00444034 -0.00152464)
(0.0939613 0.00510084 -0.00193764)
(0.0907975 0.00613368 -0.00246341)
(0.0867516 0.00757114 -0.00312051)
(0.0815904 0.00946151 -0.00392546)
(0.074864 0.0118633 -0.00489018)
(0.06664 0.0147729 -0.00599345)
(0.0551705 0.0182599 -0.00723015)
(0.0429417 0.0217696 -0.00838108)
(0.0242515 0.0253571 -0.00941733)
(0.00773126 0.0216626 -0.00790565)
(0.100664 0.00375552 -0.000381464)
(0.100428 0.00481375 -0.000619592)
(0.100577 0.00470801 -0.000765798)
(0.0996826 0.00460004 -0.000926796)
(0.0986222 0.00478841 -0.00115046)
(0.0969889 0.00533499 -0.00144968)
(0.0948713 0.00627648 -0.00183833)
(0.0920976 0.00766162 -0.0023314)
(0.0884953 0.00956262 -0.00294555)
(0.0838457 0.0120733 -0.00369542)
(0.0776782 0.0153075 -0.00459144)
(0.0700697 0.0193181 -0.00561343)
(0.0590146 0.0242434 -0.00675563)
(0.0471095 0.0294328 -0.00781834)
(0.0274487 0.0349442 -0.00876793)
(0.00929307 0.0301891 -0.00736045)
(0.100489 0.00321161 -0.000358868)
(0.100225 0.00437789 -0.000584831)
(0.100477 0.00455637 -0.000722786)
(0.099819 0.00471671 -0.000873673)
(0.0990558 0.00514031 -0.00108241)
(0.097763 0.00591466 -0.0013604)
(0.0960378 0.00710767 -0.00171974)
(0.0937272 0.00880393 -0.00217322)
(0.0906821 0.0111216 -0.00273493)
(0.0867063 0.0142215 -0.00341682)
(0.0813139 0.0183227 -0.00422678)
(0.0745906 0.023652 -0.00514529)