/*--------------------------------*- C++ -*----------------------------------*\
| =========                 |                                                 |
| \\      /  F ield         | OpenFOAM: The Open Source CFD Toolbox           |
|  \\    /   O peration     | Version:  v1912                                 |
|   \\  /    A nd           | Website:  www.openfoam.com                      |
|    \\/     M anipulation  |                                                 |
\*---------------------------------------------------------------------------*/
FoamFile
{
    version     2.0;
    format      ascii;
    class       volVectorField;
    location    "0.26/solid";
    object      D;
}
// * * * * * * * * * * * * * * * * * * * * * * * * * * * * * * * * * * * * * //

dimensions      [0 1 0 0 0 0 0];


internalField   nonuniform List<vector> 
256
(
(1.11256e-08 2.3371e-08 1.14788e-08)
(1.42925e-10 1.40174e-08 1.10364e-08)
(5.42751e-10 1.38975e-08 1.11898e-08)
(-1.03966e-08 2.28013e-08 1.2048e-08)
(1.68122e-08 1.96924e-08 1.75443e-08)
(2.24507e-09 1.48814e-08 1.70381e-08)
(8.1402e-11 1.44679e-08 1.74548e-08)
(-1.44383e-08 1.82201e-08 1.89296e-08)
(1.76682e-08 1.62328e-08 1.81326e-08)
(3.26718e-09 1.43574e-08 1.75677e-08)
(1.03329e-09 1.36527e-08 1.81737e-08)
(-1.33364e-08 1.39346e-08 2.00776e-08)
(1.81903e-08 1.50238e-08 1.73969e-08)
(4.05425e-09 1.40281e-08 1.68971e-08)
(2.55822e-09 1.30578e-08 1.7638e-08)
(-1.15577e-08 1.19764e-08 1.97435e-08)
(1.92221e-08 1.52416e-08 1.6374e-08)
(5.08661e-09 1.43313e-08 1.60878e-08)
(4.1718e-09 1.31142e-08 1.6932e-08)
(-9.94672e-09 1.14973e-08 1.90305e-08)
(2.04464e-08 1.65535e-08 1.53334e-08)
(6.27248e-09 1.54897e-08 1.53284e-08)
(5.96379e-09 1.40322e-08 1.62596e-08)
(-8.20465e-09 1.21354e-08 1.82485e-08)
(2.15007e-08 1.77545e-08 1.45637e-08)
(7.48701e-09 1.63981e-08 1.47752e-08)
(8.05994e-09 1.47062e-08 1.57879e-08)
(-6.01874e-09 1.26666e-08 1.77125e-08)
(2.30998e-08 1.88633e-09 1.51109e-08)
(8.8265e-09 9.22678e-10 1.53381e-08)
(1.03175e-08 -8.86327e-10 1.64224e-08)
(-4.18193e-09 -3.65444e-09 1.84508e-08)
(1.02325e-08 1.29735e-08 -6.41502e-10)
(9.65173e-11 4.63871e-09 -5.44484e-10)
(2.72095e-10 4.4871e-09 -3.74701e-10)
(-9.7052e-09 1.23679e-08 -1.38413e-10)
(1.5709e-08 1.38329e-08 1.852e-09)
(2.02121e-09 9.37397e-09 2.05807e-09)
(-4.6138e-10 8.89892e-09 2.46905e-09)
(-1.39531e-08 1.22756e-08 3.05231e-09)
(1.64343e-08 1.37432e-08 2.74368e-09)
(2.91137e-09 1.19198e-08 3.0351e-09)
(2.80097e-10 1.11647e-08 3.61592e-09)
(-1.30599e-08 1.13833e-08 4.44144e-09)
(1.68249e-08 1.40564e-08 2.18028e-09)
(3.58543e-09 1.30489e-08 2.57452e-09)
(1.64821e-09 1.20452e-08 3.27969e-09)
(-1.14128e-08 1.09775e-08 4.25023e-09)
(1.7829e-08 1.48204e-08 1.02761e-09)
(4.53599e-09 1.38792e-08 1.53744e-09)
(3.12745e-09 1.26414e-08 2.34076e-09)
(-9.98172e-09 1.10662e-08 3.394e-09)
(1.9178e-08 1.60444e-08 -1.91081e-10)
(5.69015e-09 1.49501e-08 4.14859e-10)
(4.77425e-09 1.34824e-08 1.30073e-09)
(-8.53375e-09 1.16352e-08 2.42407e-09)
(2.04807e-08 1.66696e-08 -9.75993e-10)
(6.91695e-09 1.52917e-08 -3.28146e-10)
(6.71189e-09 1.36073e-08 6.23897e-10)
(-6.7415e-09 1.16269e-08 1.83997e-09)
(2.23004e-08 1.1655e-09 -7.65328e-10)
(8.27709e-09 1.92632e-10 -1.23774e-10)
(8.83475e-09 -1.56726e-09 8.56005e-10)
(-5.25842e-09 -4.24168e-09 2.14338e-09)
(9.5459e-09 1.02181e-08 -5.09236e-10)
(5.78631e-11 2.52533e-09 -4.90395e-10)
(1.28355e-10 2.38712e-09 -3.65342e-10)
(-9.19014e-09 9.71437e-09 -1.51826e-10)
(1.50807e-08 1.06275e-08 4.44064e-10)
(1.85174e-09 6.44158e-09 5.69991e-10)
(-8.12594e-10 5.98848e-09 8.81636e-10)
(-1.38133e-08 9.20798e-09 1.33227e-09)
(1.58675e-08 1.12087e-08 1.19942e-09)
(2.65043e-09 9.45772e-09 1.42e-09)
(-2.74142e-10 8.72916e-09 1.8687e-09)
(-1.32665e-08 8.98912e-09 2.48894e-09)
(1.61775e-08 1.22234e-08 1.06594e-09)
(3.22806e-09 1.12503e-08 1.37557e-09)
(9.42342e-10 1.02767e-08 1.93033e-09)
(-1.17804e-08 9.28197e-09 2.67461e-09)
(1.71036e-08 1.33207e-08 3.71211e-10)
(4.09877e-09 1.24015e-08 7.57711e-10)
(2.29618e-09 1.1197e-08 1.3995e-09)
(-1.0471e-08 9.701e-09 2.24442e-09)
(1.84784e-08 1.44357e-08 -3.35675e-10)
(5.22254e-09 1.33449e-08 9.67022e-11)
(3.80503e-09 1.19152e-08 8.10772e-10)
(-9.21289e-09 1.01634e-08 1.75834e-09)
(1.99572e-08 1.46027e-08 -4.72667e-10)
(6.47604e-09 1.32459e-08 -3.38924e-11)
(5.57844e-09 1.16077e-08 7.31616e-10)
(-7.73355e-09 9.70905e-09 1.78478e-09)
(2.20492e-08 -8.30548e-10 4.02961e-10)
(7.86817e-09 -1.62403e-09 8.16297e-10)
(7.5544e-09 -3.32847e-09 1.59265e-09)
(-6.64112e-09 -6.07701e-09 2.71212e-09)
(8.98333e-09 9.46918e-09 -1.59698e-10)
(5.79865e-12 2.15349e-09 -1.49594e-10)
(8.27329e-11 2.03286e-09 -6.02212e-11)
(-8.75819e-09 9.06082e-09 9.51322e-11)
(1.44004e-08 9.20161e-09 2.02167e-10)
(1.67988e-09 5.19601e-09 3.07673e-10)
(-9.69931e-10 4.78634e-09 5.34543e-10)
(-1.34952e-08 7.95217e-09 8.46877e-10)
(1.52501e-08 9.40929e-09 6.38703e-10)
(2.41028e-09 7.72841e-09 8.27942e-10)
(-5.94883e-10 7.0529e-09 1.1595e-09)
(-1.32327e-08 7.37979e-09 1.59e-09)
(1.55239e-08 1.03336e-08 6.89774e-10)
(2.91129e-09 9.41008e-09 9.51356e-10)
(4.88074e-10 8.49126e-09 1.36771e-09)
(-1.19141e-08 7.57993e-09 1.89713e-09)
(1.63515e-08 1.13757e-08 4.13718e-10)
(3.69865e-09 1.04978e-08 7.39919e-10)
(1.74404e-09 9.34755e-09 1.22812e-09)
(-1.06836e-08 7.93495e-09 1.84093e-09)
(1.76665e-08 1.2317e-08 1.96195e-10)
(4.76744e-09 1.12517e-08 5.66023e-10)
(3.15604e-09 9.87566e-09 1.11364e-09)
(-9.515e-09 8.21527e-09 1.80734e-09)
(1.92203e-08 1.22164e-08 5.22398e-10)
(6.02073e-09 1.09174e-08 9.01617e-10)
(4.80358e-09 9.33208e-09 1.48923e-09)
(-8.23477e-09 7.48477e-09 2.26479e-09)
(2.15064e-08 -2.9756e-09 1.70707e-09)
(7.42726e-09 -3.53634e-09 2.04886e-09)
(6.65802e-09 -5.19275e-09 2.64181e-09)
(-7.4421e-09 -8.07846e-09 3.48491e-09)
(8.58295e-09 9.08859e-09 -4.27787e-11)
(-5.17185e-11 2.00793e-09 -2.21941e-11)
(8.47377e-11 1.90184e-09 4.06086e-11)
(-8.44574e-09 8.75184e-09 1.35537e-10)
(1.37915e-08 8.43755e-09 9.44392e-11)
(1.50588e-09 4.56535e-09 2.0594e-10)
(-1.00449e-09 4.19541e-09 3.66652e-10)
(-1.31338e-08 7.33023e-09 5.4925e-10)
(1.463e-08 8.19144e-09 3.03841e-10)
(2.16963e-09 6.5769e-09 4.90322e-10)
(-7.32187e-10 5.95287e-09 7.27366e-10)
(-1.30225e-08 6.33251e-09 9.81777e-10)
(1.48704e-08 8.74947e-09 3.90269e-10)
(2.60651e-09 7.87719e-09 6.36627e-10)
(2.50268e-10 7.01281e-09 9.37442e-10)
(-1.18295e-08 6.17097e-09 1.26106e-09)
(1.56141e-08 9.5289e-09 3.62564e-10)
(3.32063e-09 8.69666e-09 6.628e-10)
(1.43076e-09 7.59989e-09 1.01896e-09)
(-1.06607e-08 6.25662e-09 1.40355e-09)
(1.68571e-08 1.02668e-08 4.52129e-10)
(4.33096e-09 9.23749e-09 7.92722e-10)
(2.77281e-09 7.9124e-09 1.19489e-09)
(-9.54649e-09 6.32222e-09 1.63698e-09)
(1.84325e-08 1.00288e-08 9.83092e-10)
(5.56626e-09 8.7938e-09 1.33615e-09)
(4.32966e-09 7.25511e-09 1.76877e-09)
(-8.39458e-09 5.43917e-09 2.26995e-09)
(2.08263e-08 -4.91985e-09 2.15242e-09)
(6.96853e-09 -5.28986e-09 2.47297e-09)
(6.09607e-09 -6.90626e-09 2.90867e-09)
(-7.8006e-09 -9.90218e-09 3.46533e-09)
(8.32553e-09 8.82677e-09 -1.54484e-11)
(-9.68125e-11 1.89409e-09 5.11225e-12)
(9.75537e-11 1.79861e-09 4.68274e-11)
(-8.24348e-09 8.53948e-09 1.02152e-10)
(1.33523e-08 7.92563e-09 3.40356e-11)
(1.36765e-09 4.15185e-09 1.27748e-10)
(-9.96434e-10 3.81166e-09 2.34892e-10)
(-1.28536e-08 6.92128e-09 3.35353e-10)
(1.41426e-08 7.34518e-09 1.2799e-10)
(1.97192e-09 5.78808e-09 2.81876e-10)
(-7.80464e-10 5.20405e-09 4.40799e-10)
(-1.28054e-08 5.61545e-09 5.80163e-10)
(1.43437e-08 7.55776e-09 2.02637e-10)
(2.35639e-09 6.73035e-09 4.02972e-10)
(1.35541e-10 5.90941e-09 6.06036e-10)
(-1.16881e-08 5.11628e-09 7.88262e-10)
(1.50253e-08 8.05765e-09 2.74974e-10)
(3.01426e-09 7.265e-09 5.15682e-10)
(1.26032e-09 6.21127e-09 7.57723e-10)
(-1.05667e-08 4.91911e-09 9.80797e-10)
(1.62129e-08 8.60917e-09 4.77486e-10)
(3.9774e-09 7.61293e-09 7.49026e-10)
(2.5499e-09 6.32838e-09 1.02375e-09)
(-9.49509e-09 4.78895e-09 1.28616e-09)
(1.77909e-08 8.2851e-09 9.9986e-10)
(5.19162e-09 7.10132e-09 1.28218e-09)
(4.042e-09 5.59912e-09 1.57848e-09)
(-8.43012e-09 3.80656e-09 1.88175e-09)
(2.0243e-08 -6.50489e-09 1.95584e-09)
(6.58246e-09 -6.74288e-09 2.21561e-09)
(5.74696e-09 -8.32815e-09 2.51372e-09)
(-7.96667e-09 -1.13933e-08 2.85599e-09)
(8.17522e-09 8.65774e-09 -9.39388e-12)
(-1.24776e-10 1.81224e-09 4.11875e-12)
(1.07754e-10 1.7236e-09 2.79654e-11)
(-8.12509e-09 8.40123e-09 5.74232e-11)
(1.30839e-08 7.58383e-09 5.67641e-12)
(1.27963e-09 3.8744e-09 6.48496e-11)
(-9.84021e-10 3.55349e-09 1.26227e-10)
(-1.26788e-08 6.64515e-09 1.77353e-10)
(1.38294e-08 6.78838e-09 4.61127e-11)
(1.84158e-09 5.27277e-09 1.43611e-10)
(-7.97266e-10 4.71518e-09 2.34966e-10)
(-1.26549e-08 5.14316e-09 3.04851e-10)
(1.39966e-08 6.76471e-09 9.55946e-11)
(2.189e-09 5.96993e-09 2.22617e-10)
(7.95263e-11 5.17824e-09 3.39852e-10)
(-1.15775e-08 4.4148e-09 4.32497e-10)
(1.46369e-08 7.06015e-09 1.72596e-10)
(2.80923e-09 6.29558e-09 3.24494e-10)
(1.16778e-09 5.27111e-09 4.64841e-10)
(-1.04873e-08 4.01221e-09 5.80865e-10)
(1.57894e-08 7.47469e-09 3.46778e-10)
(3.74073e-09 6.50181e-09 5.17429e-10)
(2.42136e-09 5.24485e-09 6.77298e-10)
(-9.44702e-09 3.73915e-09 8.16711e-10)
(1.73663e-08 7.08941e-09 7.14931e-10)
(4.9388e-09 5.93892e-09 8.92301e-10)
(3.87054e-09 4.46154e-09 1.06508e-09)
(-8.43893e-09 2.68661e-09 1.22898e-09)
(1.9851e-08 -7.61688e-09 1.33442e-09)
(6.3195e-09 -7.77467e-09 1.49876e-09)
(5.53535e-09 -9.33868e-09 1.67249e-09)
(-8.0582e-09 -1.24412e-08 1.85932e-09)
(8.10616e-09 8.57501e-09 -3.64817e-12)
(-1.37704e-10 1.76989e-09 9.15667e-13)
(1.12841e-10 1.68459e-09 8.67157e-12)
(-8.07066e-09 8.33323e-09 1.80126e-11)
(1.2959e-08 7.41021e-09 -7.62157e-13)
(1.23825e-09 3.73225e-09 1.91112e-11)
(-9.77287e-10 3.42077e-09 3.90947e-11)
(-1.25972e-08 6.50333e-09 5.49692e-11)
(1.36803e-08 6.50838e-09 1.07305e-11)
(1.77894e-09 5.01419e-09 4.36462e-11)
(-8.03299e-10 4.46964e-09 7.34414e-11)
(-1.2582e-08 4.90463e-09 9.49041e-11)
(1.38285e-08 6.3682e-09 2.814e-11)
(2.10739e-09 5.59042e-09 7.11569e-11)
(5.53493e-11 4.81328e-09 1.09475e-10)
(-1.15215e-08 4.06377e-09 1.38036e-10)
(1.44481e-08 6.55996e-09 5.90787e-11)
(2.70879e-09 5.80976e-09 1.10482e-10)
(1.12562e-09 4.79997e-09 1.56456e-10)
(-1.04466e-08 3.55744e-09 1.92622e-10)
(1.55838e-08 6.90316e-09 1.25513e-10)
(3.62458e-09 5.94203e-09 1.8316e-10)
(2.36083e-09 4.69897e-09 2.35626e-10)
(-9.42298e-09 3.21029e-09 2.79596e-10)
(1.71598e-08 6.48434e-09 2.57057e-10)
(4.81424e-09 5.34984e-09 3.16927e-10)
(3.78836e-09 3.88499e-09 3.73689e-10)
(-8.44362e-09 2.11983e-09 4.25876e-10)
(1.96601e-08 -8.18737e-09 4.70975e-10)
(6.18948e-09 -8.3077e-09 5.26574e-10)
(5.43302e-09 -9.86094e-09 5.83632e-10)
(-8.10397e-09 -1.29791e-08 6.43398e-10)
)
;

boundaryField
{
    interface
    {
        type            solidTraction;
        traction        nonuniform List<vector> 
192
(
(60.6492 -0.272053 -3.87127)
(62.6254 -0.044857 -5.67893)
(63.5497 0.305782 -5.97558)
(64.1985 0.687702 -5.93992)
(64.1112 1.02024 -5.74788)
(64.8185 1.67831 -5.49966)
(62.8307 2.12973 -4.96163)
(66.1505 4.52314 -4.514)
(58.7595 -0.160642 -1.99456)
(59.7688 0.0637134 -3.08801)
(60.307 0.395987 -3.2191)
(60.7926 0.806328 -3.14637)
(60.5608 1.17349 -2.98057)
(61.2959 1.91656 -2.78073)
(59.1149 2.42158 -2.43236)
(62.8504 4.97683 -2.14016)
(61.7931 -0.133229 -1.61426)
(62.711 0.109997 -2.47762)
(63.2492 0.462596 -2.57965)
(63.7336 0.91911 -2.5194)
(63.3694 1.33954 -2.38531)
(63.9982 2.1794 -2.22016)
(61.3033 2.7701 -1.95236)
(64.8638 5.52612 -1.71128)
(61.823 -0.0867379 -1.03024)
(62.5449 0.174931 -1.63605)
(62.9569 0.537707 -1.70166)
(63.3752 1.01705 -1.64858)
(62.9227 1.46491 -1.54553)
(63.5195 2.35031 -1.42215)
(60.6725 2.9785 -1.24422)
(64.2733 5.79921 -1.08631)
(62.6952 -0.068861 -0.768777)
(63.3636 0.211685 -1.21653)
(63.7184 0.591881 -1.26593)
(64.1033 1.09407 -1.22636)
(63.5752 1.56878 -1.14994)
(64.1062 2.49283 -1.05672)
(61.0672 3.15681 -0.928155)
(64.5689 6.03489 -0.809648)
(62.8364 -0.0522402 -0.484368)
(63.4514 0.242179 -0.780399)
(63.754 0.633885 -0.812804)
(64.1086 1.1498 -0.784882)
(63.5363 1.64026 -0.733283)
(64.0393 2.58531 -0.670838)
(60.9181 3.26852 -0.589254)
(64.4045 6.17747 -0.514453)
(63.118 -0.0453213 -0.286588)
(63.7171 0.258911 -0.460285)
(63.9939 0.660124 -0.479724)
(64.3312 1.18621 -0.463411)
(63.7269 1.68821 -0.433439)
(64.2005 2.64764 -0.396305)
(61.0083 3.34459 -0.34934)
(64.4576 6.27507 -0.304313)
(63.1627 -0.0402882 -0.0884017)
(63.7473 0.268468 -0.144859)
(64.0091 0.673574 -0.151113)
(64.3372 1.20377 -0.145536)
(63.7217 1.71085 -0.135804)
(64.1842 2.67606 -0.123655)
(60.973 3.37947 -0.109136)
(64.4059 6.31932 -0.094623)
(5.89552 0.843742 25.6246)
(8.91853 0.781249 20.5583)
(9.49063 0.492479 18.1512)
(9.54592 0.355956 17.8258)
(9.46211 0.311492 18.603)
(9.39051 0.376965 20.2291)
(9.26744 0.443234 23.0102)
(9.66058 0.643721 25.6392)
(4.24685 0.413753 33.2505)
(6.93408 0.430643 32.1897)
(7.37096 0.240564 31.6357)
(7.38043 0.112478 31.6239)
(7.3308 0.0321974 31.9328)
(7.3322 0.00309507 32.514)
(7.37853 0.00197538 33.3633)
(7.97018 0.0677946 34.0596)
(4.54085 0.230312 29.6643)
(7.38012 0.232484 28.9015)
(7.87526 0.0899679 28.4252)
(7.88995 -0.0449538 28.3904)
(7.81386 -0.15437 28.7221)
(7.75687 -0.251608 29.2613)
(7.70728 -0.321209 30.208)
(8.19622 -0.338646 31.2019)
(5.3336 0.152427 30.4508)
(8.60728 0.123512 29.9915)
(9.20627 -0.0125686 29.6366)
(9.2359 -0.161641 29.6139)
(9.12424 -0.286024 29.8771)
(9.02671 -0.426425 30.1744)
(8.83866 -0.538987 30.7912)
(9.29573 -0.684135 31.4013)
(-12.3757 0.875406 2.4288)
(-7.5046 0.582322 3.82194)
(-5.38692 -0.0554037 4.03018)
(-4.63392 -0.576158 4.01648)
(-5.15746 -0.91137 3.92983)
(-4.52401 -1.46936 3.94126)
(-6.94954 -1.53644 3.76759)
(2.57546 -3.99332 4.04281)
(-21.9733 0.281049 0.550636)
(-20.9594 0.0828892 1.19869)
(-20.4831 -0.290344 1.2267)
(-19.9636 -0.674545 1.18337)
(-20.0945 -0.900371 1.15681)
(-18.3467 -1.4003 1.24752)
(-19.2451 -1.22476 1.28953)
(-6.86518 -3.72383 1.60815)
(-21.7153 0.134648 0.785061)
(-20.9172 -0.0772346 1.45121)
(-20.442 -0.37806 1.53976)
(-19.7839 -0.73596 1.52355)
(-19.7775 -0.929886 1.49258)
(-17.5765 -1.43224 1.52167)
(-18.225 -1.178 1.48992)
(-4.26608 -3.8977 1.57548)
(-23.8953 0.0480628 0.488238)
(-23.4211 -0.176022 0.996578)
(-23.1109 -0.439474 1.06975)
(-22.3959 -0.76906 1.05752)
(-22.2321 -0.922801 1.03274)
(-19.5539 -1.4042 1.04969)
(-19.7711 -1.07726 1.02631)
(-4.57315 -3.88995 1.07568)
(-24.0655 0.0344532 0.45948)
(-23.5991 -0.203216 0.863207)
(-23.2707 -0.465962 0.929809)
(-22.4736 -0.795651 0.923691)
(-22.2271 -0.940067 0.901036)
(-19.3151 -1.42292 0.897274)
(-19.3971 -1.07098 0.859997)
(-3.49657 -3.97699 0.856242)
(-24.6456 0.0269836 0.298355)
(-24.2034 -0.218832 0.572916)
(-23.8701 -0.482801 0.62003)
(-23.0147 -0.812477 0.616171)
(-22.6921 -0.949074 0.60092)
(-19.5837 -1.4294 0.596571)
(-19.5195 -1.05769 0.571758)
(-3.09408 -4.01879 0.566435)
(-24.7419 0.0273881 0.190517)
(-24.2913 -0.223781 0.353743)
(-23.9393 -0.491303 0.38256)
(-23.0438 -0.823847 0.380491)
(-22.68 -0.959015 0.371325)
(-19.47 -1.44048 0.366011)
(-19.3456 -1.06048 0.349631)
(-2.62069 -4.05974 0.340178)
(-24.8745 0.0262922 0.0581552)
(-24.4263 -0.22701 0.111408)
(-24.0668 -0.495623 0.120854)
(-23.152 -0.828843 0.120051)
(-22.7623 -0.963053 0.117289)
(-19.4995 -1.44383 0.115521)
(-19.3281 -1.05988 0.111152)
(-2.45959 -4.07656 0.107968)
(9.67743 -25.4156 -0.600297)
(9.29563 -22.6529 -0.399881)
(9.43583 -19.6218 -0.316067)
(9.53411 -17.603 -0.21103)
(9.66128 -16.0998 -0.167779)
(9.73878 -15.0202 -0.106316)
(9.7983 -14.3558 -0.0668554)
(9.82505 -14.0269 -0.0205532)
(7.97747 -33.8611 -0.0165237)
(7.38932 -33.0741 0.048624)
(7.34627 -32.0542 0.0655027)
(7.34549 -31.2548 0.0681931)
(7.38787 -30.6136 0.0503044)
(7.41143 -30.124 0.0397265)
(7.43534 -29.8159 0.0223761)
(7.44559 -29.6469 0.00872937)
(8.20185 -31.0044 0.394973)
(7.71268 -29.9122 0.37735)
(7.7639 -28.7886 0.326049)
(7.82325 -28.02 0.256508)
(7.90176 -27.3501 0.195044)
(7.94837 -26.8925 0.135387)
(7.98541 -26.5832 0.0792704)
(8.00127 -26.4376 0.026225)
(9.29024 -31.2151 0.741919)
(8.83214 -30.5135 0.596889)
(9.02173 -29.7496 0.500434)
(9.12726 -29.2747 0.382408)
(9.25637 -28.7703 0.294763)
(9.33115 -28.466 0.201712)
(9.38876 -28.233 0.120564)
(9.41411 -28.1255 0.03952)
)
;
        pressure        uniform 0;
        secondOrder     false;
        setEffectiveTraction false;
        relaxationFactor 1;
        value           nonuniform List<vector> 
192
(
(6.91069e-08 3.03554e-08 1.12533e-08)
(7.17966e-08 2.1328e-08 1.72587e-08)
(7.3707e-08 1.65774e-08 1.78131e-08)
(7.57484e-08 1.54124e-08 1.70228e-08)
(7.88727e-08 1.58058e-08 1.5955e-08)
(8.33101e-08 1.71234e-08 1.49092e-08)
(8.88346e-08 1.84182e-08 1.41863e-08)
(9.43363e-08 2.58201e-09 1.48046e-08)
(6.15799e-08 1.94589e-08 -1.03676e-09)
(6.49799e-08 1.53833e-08 1.41861e-09)
(6.64706e-08 1.40223e-08 2.29298e-09)
(6.82353e-08 1.44052e-08 1.67655e-09)
(7.13505e-08 1.54089e-08 4.9748e-10)
(7.61267e-08 1.67076e-08 -6.83542e-10)
(8.2504e-08 1.74506e-08 -1.36225e-09)
(8.96409e-08 1.93632e-09 -1.02833e-09)
(5.51938e-08 1.63747e-08 -8.21784e-10)
(5.9494e-08 1.22079e-08 1.16509e-10)
(6.10575e-08 1.14829e-08 9.02954e-10)
(6.26593e-08 1.25326e-08 7.4028e-10)
(6.56154e-08 1.38962e-08 1.45243e-12)
(7.03539e-08 1.51495e-08 -7.13916e-10)
(7.69222e-08 1.54958e-08 -7.88074e-10)
(8.49359e-08 1.23843e-12 2.04186e-10)
(5.11386e-08 1.53151e-08 -4.00605e-10)
(5.55444e-08 1.07683e-08 -1.20403e-10)
(5.72107e-08 9.69027e-09 3.2905e-10)
(5.87576e-08 1.06091e-08 3.62727e-10)
(6.15747e-08 1.19116e-08 4.11083e-11)
(6.61972e-08 1.30345e-08 -2.09366e-10)
(7.2788e-08 1.31768e-08 1.41e-10)
(8.12241e-08 -2.11781e-09 1.40117e-09)
(4.87101e-08 1.46822e-08 -2.07357e-10)
(5.29781e-08 9.94935e-09 -1.67783e-10)
(5.46536e-08 8.46126e-09 2.67484e-11)
(5.61661e-08 8.99567e-09 9.50231e-11)
(5.88824e-08 1.00258e-08 3.08332e-11)
(6.33975e-08 1.09718e-08 8.85526e-11)
(6.99557e-08 1.10216e-08 6.25588e-10)
(7.85749e-08 -4.05789e-09 1.83642e-09)
(4.72491e-08 1.42462e-08 -1.17464e-10)
(5.13683e-08 9.37994e-09 -1.42986e-10)
(5.30038e-08 7.59315e-09 -7.22941e-11)
(5.44782e-08 7.77864e-09 -1.59276e-11)
(5.71239e-08 8.52521e-09 3.05562e-11)
(6.15602e-08 9.30099e-09 2.10461e-10)
(6.80765e-08 9.29314e-09 7.33214e-10)
(7.67781e-08 -5.64546e-09 1.71194e-09)
(4.64106e-08 1.39725e-08 -6.42836e-11)
(5.04292e-08 8.99743e-09 -9.27249e-11)
(5.2023e-08 7.01667e-09 -6.95476e-11)
(5.34638e-08 6.96678e-09 -3.3283e-11)
(5.60635e-08 7.50862e-09 2.822e-11)
(6.04498e-08 8.15746e-09 1.89426e-10)
(6.69342e-08 8.10535e-09 5.57092e-10)
(7.56758e-08 -6.75991e-09 1.18864e-09)
(4.60262e-08 1.38413e-08 -2.09263e-11)
(4.99967e-08 8.80378e-09 -3.20119e-11)
(5.15671e-08 6.72588e-09 -2.65831e-11)
(5.29891e-08 6.56036e-09 -1.39078e-11)
(5.55657e-08 6.99905e-09 1.18498e-11)
(5.99279e-08 7.58152e-09 7.40773e-11)
(6.6396e-08 7.50397e-09 2.05422e-10)
(7.51551e-08 -7.33145e-09 4.23227e-10)
(1.11287e-08 3.06269e-08 7.34017e-08)
(1.68299e-08 2.13559e-08 7.64595e-08)
(1.76883e-08 1.6196e-08 7.81055e-08)
(1.8254e-08 1.45842e-08 7.89093e-08)
(1.93616e-08 1.47258e-08 7.99999e-08)
(2.06588e-08 1.61009e-08 8.2216e-08)
(2.17437e-08 1.7699e-08 8.60765e-08)
(2.33113e-08 2.18895e-09 9.09125e-08)
(7.13935e-11 2.10361e-08 6.89816e-08)
(2.22385e-09 1.65143e-08 7.25819e-08)
(3.27867e-09 1.43222e-08 7.38054e-08)
(4.11574e-09 1.36581e-08 7.45401e-08)
(5.22732e-09 1.39391e-08 7.59111e-08)
(6.50524e-09 1.51615e-08 7.86723e-08)
(7.79428e-09 1.64006e-08 8.33592e-08)
(9.15568e-09 1.23201e-09 8.93792e-08)
(7.96401e-10 2.10587e-08 6.8636e-08)
(5.55514e-10 1.62139e-08 7.24608e-08)
(1.66206e-09 1.36985e-08 7.38548e-08)
(3.27113e-09 1.27473e-08 7.4718e-08)
(4.90876e-09 1.27696e-08 7.61898e-08)
(6.6951e-09 1.37462e-08 7.90363e-08)
(8.79554e-09 1.47469e-08 8.38068e-08)
(1.1097e-08 -5.61376e-10 8.9959e-08)
(-1.02243e-08 3.05458e-08 7.26419e-08)
(-1.40252e-08 2.02275e-08 7.64708e-08)
(-1.27454e-08 1.41381e-08 7.86346e-08)
(-1.08776e-08 1.17146e-08 7.98211e-08)
(-9.23896e-09 1.11235e-08 8.12115e-08)
(-7.4844e-09 1.18059e-08 8.36764e-08)
(-5.2544e-09 1.27171e-08 8.77618e-08)
(-3.32391e-09 -3.31053e-09 9.29218e-08)
(-6.69621e-08 2.90102e-08 1.19617e-08)
(-6.79601e-08 1.89552e-08 1.90155e-08)
(-6.78872e-08 1.32145e-08 2.03046e-08)
(-6.76093e-08 1.11289e-08 2.00481e-08)
(-6.80823e-08 1.06589e-08 1.93938e-08)
(-6.95726e-08 1.11532e-08 1.86916e-08)
(-7.19729e-08 1.16606e-08 1.8276e-08)
(-7.44448e-08 -4.72995e-09 1.91496e-08)
(-5.93293e-08 1.82825e-08 -4.39931e-10)
(-6.14741e-08 1.31143e-08 2.89626e-09)
(-6.13115e-08 1.07482e-08 4.42416e-09)
(-6.10017e-08 1.02078e-08 4.30611e-09)
(-6.16469e-08 1.03463e-08 3.52527e-09)
(-6.36067e-08 1.08249e-08 2.67634e-09)
(-6.69595e-08 1.08079e-08 2.26889e-09)
(-7.12154e-08 -5.18356e-09 2.75844e-09)
(-5.31294e-08 1.54652e-08 -3.88442e-10)
(-5.6468e-08 1.02271e-08 1.21804e-09)
(-5.66546e-08 8.48084e-09 2.53242e-09)
(-5.64166e-08 8.58298e-09 2.8002e-09)
(-5.70924e-08 9.05896e-09 2.42014e-09)
(-5.91626e-08 9.4788e-09 2.00391e-09)
(-6.28165e-08 9.06591e-09 2.15835e-09)
(-6.80243e-08 -6.9011e-09 3.2583e-09)
(-4.92676e-08 1.46242e-08 -9.0881e-11)
(-5.29315e-08 9.07078e-09 6.7719e-10)
(-5.34354e-08 6.98445e-09 1.52919e-09)
(-5.33412e-08 6.94252e-09 1.90958e-09)
(-5.40504e-08 7.33502e-09 1.88853e-09)
(-5.61462e-08 7.60282e-09 1.89091e-09)
(-5.99311e-08 6.96636e-09 2.43022e-09)
(-6.56311e-08 -8.8255e-09 3.77496e-09)
(-4.69783e-08 1.41467e-08 6.93887e-12)
(-5.06582e-08 8.47438e-09 3.89009e-10)
(-5.13294e-08 6.00634e-09 8.75109e-10)
(-5.13564e-08 5.5804e-09 1.20472e-09)
(-5.21072e-08 5.68571e-09 1.37448e-09)
(-5.42177e-08 5.75545e-09 1.63215e-09)
(-5.80676e-08 5.00252e-09 2.31893e-09)
(-6.40186e-08 -1.06014e-08 3.59662e-09)
(-4.56066e-08 1.38138e-08 2.20389e-11)
(-4.92385e-08 8.06174e-09 2.21692e-10)
(-4.9979e-08 5.324e-09 4.88369e-10)
(-5.00805e-08 4.55646e-09 7.25357e-10)
(-5.08682e-08 4.37069e-09 9.3754e-10)
(-5.29951e-08 4.25456e-09 1.26139e-09)
(-5.68815e-08 3.42427e-09 1.89294e-09)
(-6.29725e-08 -1.20606e-08 2.92048e-09)
(-4.48209e-08 1.36022e-08 1.42498e-11)
(-4.84126e-08 7.77756e-09 1.13314e-10)
(-4.91792e-08 4.86774e-09 2.49042e-10)
(-4.93198e-08 3.87276e-09 3.90912e-10)
(-5.01327e-08 3.47944e-09 5.50906e-10)
(-5.22744e-08 3.22681e-09 7.98744e-10)
(-5.61834e-08 2.33922e-09 1.23241e-09)
(-6.23557e-08 -1.30871e-08 1.89371e-09)
(-4.4461e-08 1.35002e-08 4.41525e-12)
(-4.80328e-08 7.63112e-09 3.45882e-11)
(-4.88086e-08 4.63562e-09 7.6686e-11)
(-4.89657e-08 3.52981e-09 1.24073e-10)
(-4.97909e-08 3.03264e-09 1.82475e-10)
(-5.19411e-08 2.70929e-09 2.73605e-10)
(-5.58616e-08 1.78989e-09 4.27067e-10)
(-6.2073e-08 -1.3614e-08 6.54857e-10)
(2.36901e-08 -7.39233e-08 1.54423e-08)
(2.29306e-08 -7.03555e-08 -8.61728e-11)
(2.2665e-08 -6.77292e-08 1.43819e-09)
(2.20771e-08 -6.66605e-08 2.72936e-09)
(2.13513e-08 -6.66289e-08 3.03471e-09)
(2.07338e-08 -6.70016e-08 2.63008e-09)
(2.03205e-08 -6.74052e-08 1.75503e-09)
(2.01197e-08 -6.76468e-08 6.13595e-10)
(9.52097e-09 -7.31274e-08 1.56753e-08)
(8.96149e-09 -6.84043e-08 5.12911e-10)
(8.49386e-09 -6.49961e-08 1.74855e-09)
(7.98276e-09 -6.34325e-08 2.96533e-09)
(7.46634e-09 -6.3103e-08 3.27461e-09)
(7.0395e-09 -6.32977e-08 2.83682e-09)
(6.75118e-09 -6.36018e-08 1.88997e-09)
(6.6091e-09 -6.37991e-08 6.59833e-10)
(1.14631e-08 -7.44318e-08 1.67551e-08)
(9.9446e-09 -6.95998e-08 1.4666e-09)
(8.66892e-09 -6.61342e-08 2.49908e-09)
(7.79483e-09 -6.45247e-08 3.5363e-09)
(7.25045e-09 -6.4157e-08 3.69255e-09)
(6.91088e-09 -6.43222e-08 3.12185e-09)
(6.70329e-09 -6.46063e-08 2.0557e-09)
(6.60219e-09 -6.47935e-08 7.14202e-10)
(-2.95063e-09 -7.81301e-08 1.87697e-08)
(-4.11743e-09 -7.42973e-08 2.74912e-09)
(-5.54047e-09 -7.15217e-08 3.67139e-09)
(-6.34565e-09 -7.03219e-08 4.44127e-09)
(-6.70049e-09 -7.01792e-08 4.2941e-09)
(-6.8652e-09 -7.0466e-08 3.49076e-09)
(-6.95808e-09 -7.08111e-08 2.25578e-09)
(-7.00545e-09 -7.10231e-08 7.77892e-10)
)
;
        gradient        nonuniform List<vector> 
192
(
(4.63851e-06 5.58752e-07 -1.8039e-08)
(4.39875e-06 1.30852e-07 -2.28481e-08)
(4.4831e-06 2.75662e-08 -2.55595e-08)
(4.60465e-06 3.10872e-08 -2.99333e-08)
(4.77204e-06 4.51353e-08 -3.35174e-08)
(5.0291e-06 4.55927e-08 -3.39352e-08)
(5.38671e-06 5.3095e-08 -3.01866e-08)
(5.69892e-06 5.56545e-08 -2.45083e-08)
(4.10779e-06 5.18826e-07 -3.16203e-08)
(3.94168e-06 1.24038e-07 -3.46714e-08)
(4.00291e-06 2.23242e-08 -3.60559e-08)
(4.11283e-06 2.79041e-08 -4.02979e-08)
(4.28172e-06 4.70776e-08 -4.24102e-08)
(4.55589e-06 5.30591e-08 -3.93969e-08)
(4.96187e-06 6.24792e-08 -3.09002e-08)
(5.38724e-06 6.16652e-08 -2.10402e-08)
(3.65183e-06 4.9253e-07 -2.50038e-08)
(3.55306e-06 1.26434e-07 -2.62044e-08)
(3.6152e-06 2.19424e-08 -2.37171e-08)
(3.71855e-06 2.47327e-08 -2.6053e-08)
(3.88095e-06 4.60357e-08 -2.95807e-08)
(4.15004e-06 5.71021e-08 -3.02593e-08)
(4.5572e-06 7.14517e-08 -2.52325e-08)
(5.03094e-06 6.65429e-08 -1.5902e-08)
(3.37242e-06 4.67673e-07 -1.92726e-08)
(3.29152e-06 1.25338e-07 -2.58056e-08)
(3.35684e-06 2.24779e-08 -2.47723e-08)
(3.4587e-06 2.20407e-08 -2.61638e-08)
(3.61785e-06 4.28712e-08 -2.98088e-08)
(3.88245e-06 5.74073e-08 -3.24449e-08)
(4.28541e-06 7.68371e-08 -3.05119e-08)
(4.77741e-06 6.86232e-08 -2.44723e-08)
(3.21017e-06 4.47487e-07 -1.31663e-08)
(3.13493e-06 1.20944e-07 -2.09777e-08)
(3.20189e-06 2.1586e-08 -2.21674e-08)
(3.30366e-06 1.96964e-08 -2.36196e-08)
(3.46146e-06 3.97546e-08 -2.65385e-08)
(3.72323e-06 5.63992e-08 -2.90861e-08)
(4.12186e-06 7.94249e-08 -2.86003e-08)
(4.61989e-06 6.89575e-08 -2.52798e-08)
(3.11389e-06 4.33556e-07 -8.16123e-09)
(3.04128e-06 1.16345e-07 -1.41617e-08)
(3.1089e-06 1.98374e-08 -1.60227e-08)
(3.21076e-06 1.76698e-08 -1.74852e-08)
(3.36789e-06 3.74048e-08 -1.95534e-08)
(3.62778e-06 5.53456e-08 -2.13619e-08)
(4.02285e-06 8.06439e-08 -2.13317e-08)
(4.52281e-06 6.87537e-08 -1.95122e-08)
(3.05883e-06 4.25182e-07 -4.39118e-09)
(2.98762e-06 1.13088e-07 -7.8721e-09)
(3.05548e-06 1.82635e-08 -9.25282e-09)
(3.15738e-06 1.61658e-08 -1.03102e-08)
(3.31412e-06 3.58779e-08 -1.15501e-08)
(3.57283e-06 5.46211e-08 -1.25882e-08)
(3.96543e-06 8.1275e-08 -1.26271e-08)
(4.46598e-06 6.8558e-08 -1.16622e-08)
(3.0336e-06 4.21302e-07 -1.38225e-09)
(2.96301e-06 1.11486e-07 -2.49998e-09)
(3.03095e-06 1.73998e-08 -2.98509e-09)
(3.13284e-06 1.53726e-08 -3.36382e-09)
(3.28941e-06 3.51269e-08 -3.77831e-09)
(3.54753e-06 5.42687e-08 -4.11488e-09)
(3.93889e-06 8.15701e-08 -4.13075e-09)
(4.4396e-06 6.84738e-08 -3.81985e-09)
(2.50082e-10 5.80473e-07 4.95383e-06)
(1.41742e-09 1.33086e-07 4.71322e-06)
(1.60604e-09 -2.94065e-09 4.79783e-06)
(5.09516e-09 -3.51686e-08 4.92099e-06)
(1.11588e-08 -4.12679e-08 5.09007e-06)
(1.69912e-08 -3.62011e-08 5.35061e-06)
(1.94444e-08 -4.44324e-09 5.72103e-06)
(1.6924e-08 2.421e-08 6.06413e-06)
(-5.72248e-09 5.61495e-07 4.63562e-06)
(-1.69778e-09 1.30631e-07 4.4435e-06)
(9.19074e-10 -2.81651e-09 4.49902e-06)
(4.91857e-09 -2.95973e-08 4.61144e-06)
(1.12573e-08 -3.13743e-08 4.78587e-06)
(1.86211e-08 -2.62522e-08 5.06752e-06)
(2.45817e-08 1.94236e-10 5.48672e-06)
(2.63338e-08 2.47466e-08 5.92329e-06)
(2.0292e-08 5.72896e-07 4.59569e-06)
(3.79289e-08 1.3968e-07 4.40048e-06)
(5.03018e-08 3.66502e-09 4.45449e-06)
(5.70327e-08 -2.48349e-08 4.5664e-06)
(5.89571e-08 -2.75707e-08 4.74063e-06)
(5.85046e-08 -2.28852e-08 5.02214e-06)
(5.88479e-08 3.25183e-09 5.44151e-06)
(6.23614e-08 2.59961e-08 5.88293e-06)
(1.37822e-08 6.19554e-07 4.84752e-06)
(3.3045e-08 1.60594e-07 4.60329e-06)
(4.72804e-08 1.62777e-08 4.68456e-06)
(5.44129e-08 -2.09446e-08 4.8062e-06)
(5.66211e-08 -2.99046e-08 4.97448e-06)
(5.76193e-08 -2.63654e-08 5.23423e-06)
(6.11472e-08 4.03877e-09 5.60395e-06)
(6.8642e-08 2.75127e-08 5.95768e-06)
(-4.52524e-06 4.96709e-07 -6.90413e-09)
(-4.28174e-06 5.88038e-08 6.86876e-09)
(-4.36406e-06 -5.76126e-08 1.81626e-08)
(-4.48413e-06 -6.78018e-08 2.4361e-08)
(-4.65085e-06 -6.70735e-08 2.90628e-08)
(-4.90944e-06 -7.85791e-08 3.54442e-08)
(-5.27633e-06 -8.04746e-08 4.50788e-08)
(-5.62103e-06 -8.60406e-08 5.59041e-08)
(-3.96993e-06 4.73169e-07 -2.41214e-08)
(-3.80169e-06 6.7094e-08 -1.2484e-08)
(-3.86013e-06 -5.08096e-08 -1.38232e-09)
(-3.96712e-06 -6.15718e-08 4.47046e-09)
(-4.13321e-06 -5.75923e-08 1.05018e-08)
(-4.40584e-06 -6.48229e-08 2.0182e-08)
(-4.81744e-06 -6.55229e-08 3.43138e-08)
(-5.27656e-06 -7.53506e-08 4.92053e-08)
(-3.51514e-06 4.6007e-07 -1.89293e-08)
(-3.41238e-06 8.15254e-08 -9.13809e-09)
(-3.47105e-06 -4.0662e-08 3.47854e-09)
(-3.57089e-06 -5.59188e-08 1.00474e-08)
(-3.72971e-06 -5.1363e-08 1.40579e-08)
(-3.99598e-06 -5.47683e-08 1.96455e-08)
(-4.40664e-06 -5.14514e-08 2.98854e-08)
(-4.91065e-06 -6.59267e-08 4.36943e-08)
(-3.24076e-06 4.45068e-07 -1.48811e-08)
(-3.15491e-06 8.94886e-08 -1.3575e-08)
(-3.21621e-06 -3.16269e-08 -4.86481e-09)
(-3.31417e-06 -5.0993e-08 9.95566e-10)
(-3.46934e-06 -4.79945e-08 3.80844e-09)
(-3.7305e-06 -4.89955e-08 6.68609e-09)
(-4.1357e-06 -4.14729e-08 1.32342e-08)
(-4.65512e-06 -5.97632e-08 2.32037e-08)
(-3.08261e-06 4.31592e-07 -1.02879e-08)
(-3.00195e-06 9.15324e-08 -1.28193e-08)
(-3.06455e-06 -2.60934e-08 -8.53342e-09)
(-3.16215e-06 -4.72459e-08 -4.50747e-09)
(-3.31571e-06 -4.56725e-08 -2.32552e-09)
(-3.5737e-06 -4.53423e-08 -3.86298e-10)
(-3.97384e-06 -3.49327e-08 3.91825e-09)
(-4.49744e-06 -5.59369e-08 1.05027e-08)
(-2.98905e-06 4.21942e-07 -6.40902e-09)
(-2.9108e-06 9.12364e-08 -9.09288e-09)
(-2.97388e-06 -2.33163e-08 -7.34357e-09)
(-3.07139e-06 -4.47853e-08 -5.03243e-09)
(-3.22412e-06 -4.38733e-08 -3.46055e-09)
(-3.48e-06 -4.27515e-08 -1.98159e-09)
(-3.87611e-06 -3.05832e-08 8.94511e-10)
(-4.40046e-06 -5.33812e-08 5.15955e-09)
(-2.93567e-06 4.16078e-07 -3.45388e-09)
(-2.8587e-06 9.05934e-08 -5.12315e-09)
(-2.92194e-06 -2.20338e-08 -4.46474e-09)
(-3.01939e-06 -4.33629e-08 -3.3268e-09)
(-3.17163e-06 -4.26216e-08 -2.39667e-09)
(-3.42619e-06 -4.09871e-08 -1.43738e-09)
(-3.81955e-06 -2.77911e-08 2.74649e-10)
(-4.3438e-06 -5.16736e-08 2.75051e-09)
(-2.91123e-06 4.13358e-07 -1.08779e-09)
(-2.83485e-06 9.02229e-08 -1.63048e-09)
(-2.89813e-06 -2.15205e-08 -1.45745e-09)
(-2.99553e-06 -4.27173e-08 -1.11703e-09)
(-3.14754e-06 -4.19839e-08 -8.11742e-10)