/*--------------------------------*- C++ -*----------------------------------*\
| =========                 |                                                 |
| \\      /  F ield         | OpenFOAM: The Open Source CFD Toolbox           |
|  \\    /   O peration     | Version:  v1912                                 |
|   \\  /    A nd           | Website:  www.openfoam.com                      |
|    \\/     M anipulation  |                                                 |
\*---------------------------------------------------------------------------*/
FoamFile
{
    version     2.0;
    format      ascii;
    class       volVectorField;
    location    "0.26/solid";
    object      DD_0;
}
// * * * * * * * * * * * * * * * * * * * * * * * * * * * * * * * * * * * * * //

dimensions      [0 1 0 0 0 0 0];


internalField   nonuniform List<vector> 
256
(
(5.73528e-10 5.05913e-10 6.31636e-10)
(1.03929e-10 2.41486e-10 4.98951e-10)
(-1.08718e-10 2.37764e-10 4.97046e-10)
(-5.62352e-10 4.88385e-10 6.24917e-10)
(9.12964e-10 2.47199e-10 1.28026e-09)
(2.11928e-10 8.74716e-11 1.11409e-09)
(-2.1344e-10 8.3637e-11 1.11154e-09)
(-8.93998e-10 2.34634e-10 1.2716e-09)
(9.30776e-10 -1.44993e-10 1.70195e-09)
(2.22946e-10 -2.00377e-10 1.53878e-09)
(-2.20363e-10 -2.03255e-10 1.53624e-09)
(-9.08095e-10 -1.53195e-10 1.69321e-09)
(8.85978e-10 -5.35059e-10 2.07378e-09)
(2.0221e-10 -5.69748e-10 1.90088e-09)
(-1.97046e-10 -5.71552e-10 1.89834e-09)
(-8.60897e-10 -5.39995e-10 2.06488e-09)
(8.77712e-10 -9.43118e-10 2.45927e-09)
(1.94664e-10 -1.01607e-09 2.26632e-09)
(-1.88199e-10 -1.01695e-09 2.26374e-09)
(-8.51289e-10 -9.45384e-10 2.45021e-09)
(9.86289e-10 -1.41453e-09 2.9042e-09)
(2.37118e-10 -1.54454e-09 2.68709e-09)
(-2.30355e-10 -1.54475e-09 2.6845e-09)
(-9.59512e-10 -1.41474e-09 2.89522e-09)
(1.32517e-09 -2.09944e-09 3.45949e-09)
(3.60611e-10 -2.19289e-09 3.22691e-09)
(-3.54872e-10 -2.19278e-09 3.22419e-09)
(-1.29857e-09 -2.09855e-09 3.45062e-09)
(1.88092e-09 -3.38492e-09 4.06071e-09)
(4.97324e-10 -3.1686e-09 3.8437e-09)
(-4.95573e-10 -3.16652e-09 3.84027e-09)
(-1.85421e-09 -3.3791e-09 4.05083e-09)
(2.52897e-10 1.14274e-10 1.99407e-10)
(4.049e-11 -5.11481e-11 2.48255e-10)
(-4.22136e-11 -5.31356e-11 2.47855e-10)
(-2.42148e-10 1.01689e-10 1.97809e-10)
(4.19629e-10 -1.43931e-10 6.65526e-10)
(9.42491e-11 -2.50638e-10 7.57033e-10)
(-9.06693e-11 -2.5358e-10 7.55974e-10)
(-4.00777e-10 -1.54207e-10 6.62094e-10)
(4.16922e-10 -4.73943e-10 1.07816e-09)
(9.60518e-11 -5.13969e-10 1.18389e-09)
(-8.76878e-11 -5.16555e-10 1.18268e-09)
(-3.93916e-10 -4.81525e-10 1.07428e-09)
(3.73453e-10 -8.33179e-10 1.44745e-09)
(7.73703e-11 -8.63088e-10 1.55312e-09)
(-6.60596e-11 -8.64854e-10 1.55192e-09)
(-3.47668e-10 -8.38148e-10 1.44348e-09)
(3.6059e-10 -1.22357e-09 1.81498e-09)
(7.06956e-11 -1.29253e-09 1.91496e-09)
(-5.78727e-11 -1.2935e-09 1.91377e-09)
(-3.33116e-10 -1.22621e-09 1.8109e-09)
(4.56749e-10 -1.65187e-09 2.20637e-09)
(1.11096e-10 -1.77843e-09 2.30009e-09)
(-9.78953e-11 -1.77882e-09 2.29888e-09)
(-4.28564e-10 -1.6527e-09 2.20215e-09)
(7.78911e-10 -2.17506e-09 2.58863e-09)
(2.30187e-10 -2.26601e-09 2.67972e-09)
(-2.17962e-10 -2.26622e-09 2.67838e-09)
(-7.50415e-10 -2.17504e-09 2.58405e-09)
(1.32661e-09 -3.04415e-09 2.77473e-09)
(3.61985e-10 -2.81265e-09 2.86852e-09)
(-3.5353e-10 -2.81138e-09 2.86695e-09)
(-1.29725e-09 -3.03962e-09 2.76951e-09)
(7.34503e-11 -6.70299e-12 1.14437e-10)
(-1.38993e-11 -1.12786e-10 1.81917e-10)
(1.28473e-11 -1.14403e-10 1.81565e-10)
(-6.29314e-11 -1.83566e-11 1.13313e-10)
(1.14523e-10 -3.31625e-10 4.6326e-10)
(-1.15552e-11 -3.96945e-10 5.82699e-10)
(1.67299e-11 -3.99497e-10 5.81818e-10)
(-9.55174e-11 -3.41016e-10 4.60715e-10)
(9.24871e-11 -6.70363e-10 8.31432e-10)
(-2.00579e-11 -6.9648e-10 9.64746e-10)
(3.06579e-11 -6.98871e-10 9.63635e-10)
(-6.87928e-11 -6.77599e-10 8.28228e-10)
(5.39334e-11 -1.008e-09 1.18171e-09)
(-3.69251e-11 -1.03641e-09 1.31591e-09)
(5.09368e-11 -1.03815e-09 1.31473e-09)
(-2.69998e-11 -1.01303e-09 1.17825e-09)
(4.44604e-11 -1.34934e-09 1.51712e-09)
(-4.23379e-11 -1.41947e-09 1.64882e-09)
(5.82136e-11 -1.42051e-09 1.64762e-09)
(-1.54322e-11 -1.35227e-09 1.5135e-09)
(1.39814e-10 -1.68437e-09 1.83005e-09)
(-3.44209e-12 -1.81167e-09 1.95939e-09)
(1.99907e-11 -1.81219e-09 1.95816e-09)
(-1.09648e-10 -1.68565e-09 1.82624e-09)
(4.55875e-10 -2.05445e-09 2.06098e-09)
(1.11442e-10 -2.14804e-09 2.1899e-09)
(-9.5616e-11 -2.14845e-09 2.18858e-09)
(-4.24892e-10 -2.05496e-09 2.05686e-09)
(9.87028e-10 -2.74976e-09 2.08885e-09)
(2.38832e-10 -2.53392e-09 2.22152e-09)
(-2.26675e-10 -2.53285e-09 2.22008e-09)
(-9.5467e-10 -2.7453e-09 2.08425e-09)
(1.2876e-11 -4.30813e-11 1.00791e-10)
(-3.25907e-11 -1.20311e-10 1.40544e-10)
(3.16487e-11 -1.21899e-10 1.40303e-10)
(-2.37627e-12 -5.46966e-11 1.00087e-10)
(3.06293e-12 -4.00454e-10 3.76456e-10)
(-5.26419e-11 -4.44491e-10 4.47309e-10)
(5.82862e-11 -4.46967e-10 4.46721e-10)
(1.61863e-11 -4.0974e-10 3.74837e-10)
(-2.81811e-11 -7.54234e-10 6.80028e-10)
(-6.64049e-11 -7.73001e-10 7.58837e-10)
(7.79119e-11 -7.75337e-10 7.58056e-10)
(5.25225e-11 -7.61439e-10 6.77866e-10)
(-6.10163e-11 -1.07695e-09 9.79119e-10)
(-8.13081e-11 -1.10569e-09 1.05758e-09)
(9.66502e-11 -1.10743e-09 1.05671e-09)
(8.90078e-11 -1.08208e-09 9.76656e-10)
(-6.28965e-11 -1.37181e-09 1.2563e-09)
(-8.41226e-11 -1.44431e-09 1.33219e-09)
(1.01708e-10 -1.44541e-09 1.33128e-09)
(9.33737e-11 -1.37495e-09 1.25364e-09)
(3.76278e-11 -1.63414e-09 1.48733e-09)
(-4.43954e-11 -1.76358e-09 1.56084e-09)
(6.29975e-11 -1.76419e-09 1.55989e-09)
(-5.61609e-12 -1.6357e-09 1.48449e-09)
(3.51695e-10 -1.92697e-09 1.62563e-09)
(6.82689e-11 -2.02624e-09 1.69853e-09)
(-5.01098e-11 -2.02675e-09 1.69751e-09)
(-3.18455e-10 -1.9278e-09 1.62253e-09)
(8.69678e-10 -2.56915e-09 1.61767e-09)
(1.92975e-10 -2.37663e-09 1.69508e-09)
(-1.78377e-10 -2.3756e-09 1.69399e-09)
(-8.34701e-10 -2.56471e-09 1.61428e-09)
(-4.06878e-13 -5.51855e-11 8.76119e-11)
(-3.3956e-11 -1.20453e-10 1.05673e-10)
(3.30238e-11 -1.2205e-10 1.0554e-10)
(1.09052e-11 -6.68358e-11 8.72552e-11)
(-2.01219e-11 -4.17467e-10 3.02534e-10)
(-5.79369e-11 -4.53443e-10 3.33715e-10)
(6.37277e-11 -4.55937e-10 3.33381e-10)
(3.94935e-11 -4.26842e-10 3.01663e-10)
(-5.11389e-11 -7.72688e-10 5.3647e-10)
(-7.21512e-11 -7.89391e-10 5.70213e-10)
(8.40579e-11 -7.91744e-10 5.69748e-10)
(7.58437e-11 -7.79999e-10 5.3524e-10)
(-7.85029e-11 -1.08215e-09 7.68058e-10)
(-8.50589e-11 -1.11231e-09 8.00468e-10)
(1.01109e-10 -1.11408e-09 7.99924e-10)
(1.07157e-10 -1.08742e-09 7.66579e-10)
(-7.35261e-11 -1.34644e-09 9.7695e-10)
(-8.5418e-11 -1.42124e-09 1.00694e-09)
(1.04025e-10 -1.42238e-09 1.00635e-09)
(1.04982e-10 -1.34976e-09 9.7528e-10)
(3.18444e-11 -1.57059e-09 1.139e-09)
(-4.44154e-11 -1.70209e-09 1.16692e-09)
(6.43315e-11 -1.70276e-09 1.16627e-09)
(1.46665e-12 -1.5724e-09 1.13715e-09)
(3.44449e-10 -1.83532e-09 1.22548e-09)
(6.70524e-11 -1.93951e-09 1.25294e-09)
(-4.73327e-11 -1.9401e-09 1.25225e-09)
(-3.09587e-10 -1.83648e-09 1.22344e-09)
(8.53733e-10 -2.45903e-09 1.21535e-09)
(1.90369e-10 -2.2846e-09 1.24642e-09)
(-1.74037e-10 -2.28366e-09 1.24573e-09)
(-8.16824e-10 -2.4549e-09 1.21319e-09)
(-1.11148e-12 -5.8717e-11 6.7614e-11)
(-3.15196e-11 -1.19443e-10 7.49793e-11)
(3.05636e-11 -1.21049e-10 7.49191e-11)
(1.15914e-11 -7.03902e-11 6.74731e-11)
(-1.80333e-11 -4.15229e-10 2.22631e-10)
(-5.36766e-11 -4.49233e-10 2.34173e-10)
(5.94774e-11 -4.51756e-10 2.3401e-10)
(3.74213e-11 -4.24693e-10 2.2224e-10)
(-4.50918e-11 -7.63561e-10 3.87444e-10)
(-6.63918e-11 -7.80735e-10 3.98875e-10)
(7.84347e-11 -7.8312e-10 3.98634e-10)
(6.99361e-11 -7.70988e-10 3.86844e-10)
(-6.78457e-11 -1.06159e-09 5.49016e-10)
(-7.75592e-11 -1.09342e-09 5.5892e-10)
(9.39368e-11 -1.09523e-09 5.58621e-10)
(9.6827e-11 -1.067e-09 5.48243e-10)
(-5.82105e-11 -1.30939e-09 6.91803e-10)
(-7.62315e-11 -1.38595e-09 6.99894e-10)
(9.53818e-11 -1.38713e-09 6.99549e-10)
(9.02133e-11 -1.31288e-09 6.90877e-10)
(5.00653e-11 -1.51806e-09 7.98482e-10)
(-3.43935e-11 -1.65092e-09 8.05202e-10)
(5.50665e-11 -1.65166e-09 8.04815e-10)
(-1.59739e-11 -1.5201e-09 7.97406e-10)
(3.61273e-10 -1.77517e-09 8.52906e-10)
(7.63152e-11 -1.88225e-09 8.59475e-10)
(-5.56364e-11 -1.88295e-09 8.59059e-10)
(-3.25382e-10 -1.77668e-09 8.51695e-10)
(8.65009e-10 -2.39034e-09 8.4644e-10)
(1.98873e-10 -2.22651e-09 8.55398e-10)
(-1.81376e-10 -2.2257e-09 8.55006e-10)
(-8.26799e-10 -2.38665e-09 8.45217e-10)
(-1.47523e-13 -5.90953e-11 4.24761e-11)
(-2.9617e-11 -1.18089e-10 4.53178e-11)
(2.86279e-11 -1.19702e-10 4.52968e-11)
(1.06021e-11 -7.0781e-11 4.24396e-11)
(-1.34599e-11 -4.08423e-10 1.36182e-10)
(-4.97888e-11 -4.42412e-10 1.40005e-10)
(5.55457e-11 -4.44956e-10 1.39939e-10)
(3.28163e-11 -4.17943e-10 1.36044e-10)
(-3.69488e-11 -7.48964e-10 2.3387e-10)
(-6.10548e-11 -7.67159e-10 2.37007e-10)
(7.31057e-11 -7.69571e-10 2.36902e-10)
(6.18141e-11 -7.56474e-10 2.33628e-10)
(-5.65136e-11 -1.03884e-09 3.2853e-10)
(-7.10053e-11 -1.07199e-09 3.30565e-10)
(8.74924e-11 -1.07382e-09 3.30425e-10)
(8.56175e-11 -1.04434e-09 3.28189e-10)
(-4.41813e-11 -1.27878e-09 4.11077e-10)
(-6.8706e-11 -1.35645e-09 4.12041e-10)
(8.80937e-11 -1.35768e-09 4.11871e-10)
(7.64386e-11 -1.2824e-09 4.10639e-10)
(6.55047e-11 -1.4824e-09 4.71721e-10)
(-2.64649e-11 -1.61598e-09 4.71972e-10)
(4.7512e-11 -1.61678e-09 4.71773e-10)
(-3.10082e-11 -1.48465e-09 4.71185e-10)
(3.75625e-10 -1.73845e-09 5.02298e-10)
(8.37626e-11 -1.84684e-09 5.02574e-10)
(-6.2563e-11 -1.84764e-09 5.0236e-10)
(-3.39156e-10 -1.74027e-09 5.01684e-10)
(8.75996e-10 -2.3494e-09 4.99092e-10)
(2.05866e-10 -2.19071e-09 5.00682e-10)
(-1.87667e-10 -2.19002e-09 5.00496e-10)
(-8.36997e-10 -2.34611e-09 4.98501e-10)
(3.6127e-13 -5.87844e-11 1.44634e-11)
(-2.87683e-11 -1.17147e-10 1.52156e-11)
(2.77567e-11 -1.18764e-10 1.52112e-11)
(1.00762e-11 -7.04758e-11 1.44594e-11)
(-1.11719e-11 -4.03714e-10 4.5812e-11)
(-4.79828e-11 -4.37941e-10 4.67053e-11)
(5.37016e-11 -4.40496e-10 4.6689e-11)
(3.04988e-11 -4.1326e-10 4.57824e-11)
(-3.28356e-11 -7.39617e-10 7.81471e-11)
(-5.85016e-11 -7.58462e-10 7.87339e-11)
(7.053e-11 -7.60889e-10 7.87055e-11)
(5.76887e-11 -7.47168e-10 7.80867e-11)
(-5.08261e-11 -1.02533e-09 1.09262e-10)
(-6.7851e-11 -1.05919e-09 1.09458e-10)
(8.43578e-11 -1.06104e-09 1.09418e-10)
(7.99608e-11 -1.03089e-09 1.0917e-10)
(-3.72797e-11 -1.2622e-09 1.3622e-10)
(-6.51175e-11 -1.3404e-09 1.36067e-10)
(8.45829e-11 -1.34165e-09 1.36017e-10)
(6.96285e-11 -1.2659e-09 1.36095e-10)
(7.29537e-11 -1.46454e-09 1.55905e-10)
(-2.27245e-11 -1.5984e-09 1.55537e-10)
(4.39157e-11 -1.59924e-09 1.55477e-10)
(-3.8292e-11 -1.4669e-09 1.55746e-10)
(3.82493e-10 -1.72088e-09 1.65817e-10)
(8.72676e-11 -1.8297e-09 1.6548e-10)
(-6.58459e-11 -1.83056e-09 1.65416e-10)
(-3.45768e-10 -1.72287e-09 1.65633e-10)
(8.8125e-10 -2.33013e-09 1.64877e-10)
(2.09142e-10 -2.17339e-09 1.64956e-10)
(-1.90617e-10 -2.17278e-09 1.64902e-10)
(-8.4188e-10 -2.32706e-09 1.64705e-10)
)
;

boundaryField
{
    interface
    {
        type            calculated;
        value           nonuniform List<vector> 
192
(
(4.35117e-10 8.77534e-10 5.46904e-10)
(7.17081e-10 3.3651e-10 1.14354e-09)
(7.38947e-10 -1.51741e-10 1.55788e-09)
(7.04496e-10 -5.48327e-10 1.93177e-09)
(7.01176e-10 -9.18042e-10 2.31907e-09)
(7.9871e-10 -1.30267e-09 2.76389e-09)
(1.09096e-09 -1.87579e-09 3.31618e-09)
(1.82142e-09 -3.23574e-09 3.91212e-09)
(-5.80277e-11 2.82404e-10 7.43944e-11)
(7.17754e-11 -1.02926e-10 4.65922e-10)
(6.55054e-11 -4.85489e-10 8.68596e-10)
(2.24121e-11 -8.47265e-10 1.23945e-09)
(5.42144e-12 -1.20274e-09 1.60667e-09)
(8.23069e-11 -1.54729e-09 1.99476e-09)
(3.51295e-10 -1.9576e-09 2.3713e-09)
(1.09293e-09 -2.90017e-09 2.55126e-09)
(-2.28777e-10 4.02891e-11 5.4438e-11)
(-1.97965e-10 -3.26868e-10 3.59124e-10)
(-2.22286e-10 -6.85513e-10 7.20161e-10)
(-2.61356e-10 -1.02e-09 1.0731e-09)
(-2.73886e-10 -1.32787e-09 1.41125e-09)
(-1.9276e-10 -1.58152e-09 1.72527e-09)
(8.18715e-11 -1.84265e-09 1.95418e-09)
(8.00809e-10 -2.6087e-09 1.97461e-09)
(-2.9028e-10 -3.90978e-11 8.2331e-11)
(-3.01048e-10 -4.1072e-10 3.42799e-10)
(-3.33221e-10 -7.70256e-10 6.44124e-10)
(-3.66161e-10 -1.08563e-09 9.46013e-10)
(-3.69977e-10 -1.34715e-09 1.2268e-09)
(-2.80962e-10 -1.5305e-09 1.46034e-09)
(-2.77452e-12 -1.71896e-09 1.59777e-09)
(6.95902e-10 -2.42859e-09 1.58435e-09)
(-3.07687e-10 -6.03188e-11 8.41183e-11)
(-3.25896e-10 -4.30152e-10 2.97263e-10)
(-3.56957e-10 -7.87286e-10 5.32245e-10)
(-3.83636e-10 -1.08775e-09 7.66353e-10)
(-3.79567e-10 -1.31886e-09 9.78123e-10)
(-2.84268e-10 -1.4661e-09 1.14211e-09)
(-5.34331e-12 -1.62985e-09 1.22788e-09)
(6.78137e-10 -2.31836e-09 1.21418e-09)
(-3.11519e-10 -6.35043e-11 6.7681e-11)
(-3.26269e-10 -4.26226e-10 2.24299e-10)
(-3.52841e-10 -7.76017e-10 3.90993e-10)
(-3.7422e-10 -1.06487e-09 5.54515e-10)
(-3.64746e-10 -1.27992e-09 6.9914e-10)
(-2.65848e-10 -1.41319e-09 8.06898e-10)
(1.23714e-11 -1.57144e-09 8.60701e-10)
(6.85661e-10 -2.24975e-09 8.52006e-10)
(-3.12474e-10 -6.24982e-11 4.28455e-11)
(-3.23384e-10 -4.17625e-10 1.37898e-10)
(-3.4608e-10 -7.5973e-10 2.36934e-10)
(-3.63817e-10 -1.04065e-09 3.32786e-10)
(-3.512e-10 -1.24828e-09 4.16311e-10)
(-2.50607e-10 -1.37745e-09 4.77444e-10)
(2.66382e-11 -1.53583e-09 5.07604e-10)
(6.93704e-10 -2.20908e-09 5.03152e-10)
(-3.12877e-10 -6.14881e-11 1.45911e-11)
(-3.21913e-10 -4.12015e-10 4.63844e-11)
(-3.4264e-10 -7.49533e-10 7.91758e-11)
(-3.58587e-10 -1.02645e-09 1.10684e-10)
(-3.44555e-10 -1.23126e-09 1.37946e-10)
(-2.43325e-10 -1.3596e-09 1.57767e-10)
(3.33111e-11 -1.51881e-09 1.67535e-10)
(6.97412e-10 -2.19002e-09 1.66191e-10)
(5.827e-10 9.8389e-10 4.02965e-10)
(9.3976e-10 5.14781e-10 9.85391e-10)
(9.62e-10 5.33883e-11 1.4133e-09)
(9.13742e-10 -3.45727e-10 1.8015e-09)
(8.99558e-10 -7.35511e-10 2.19751e-09)
(1.00215e-09 -1.16447e-09 2.63322e-09)
(1.33867e-09 -1.81031e-09 3.13843e-09)
(1.90095e-09 -3.24131e-09 3.90167e-09)
(7.02583e-11 6.44749e-10 1.38493e-10)
(1.69724e-10 3.47431e-10 6.83134e-10)
(1.81499e-10 -3.67607e-12 1.09767e-09)
(1.58331e-10 -3.87862e-10 1.46231e-09)
(1.45761e-10 -8.1952e-10 1.82519e-09)
(1.82176e-10 -1.30439e-09 2.22239e-09)
(3.01769e-10 -1.90373e-09 2.69938e-09)
(4.42201e-10 -3.02232e-09 3.51397e-09)
(-7.72501e-11 6.39913e-10 1.3182e-10)
(-1.74086e-10 3.43438e-10 6.76859e-10)
(-1.81775e-10 -6.55327e-12 1.09104e-09)
(-1.56067e-10 -3.89677e-10 1.45533e-09)
(-1.42245e-10 -8.20412e-10 1.81791e-09)
(-1.7834e-10 -1.30463e-09 2.21472e-09)
(-2.98959e-10 -1.90384e-09 2.69102e-09)
(-4.43804e-10 -3.02035e-09 3.50363e-09)
(-5.73145e-10 9.62516e-10 3.81883e-10)
(-9.22897e-10 5.01709e-10 9.66056e-10)
(-9.41512e-10 4.51253e-11 1.39254e-09)
(-8.90963e-10 -3.50744e-10 1.77954e-09)
(-8.75532e-10 -7.37798e-10 2.17466e-09)
(-9.77799e-10 -1.16463e-09 2.60972e-09)
(-1.31448e-09 -1.80965e-09 3.11431e-09)
(-1.87687e-09 -3.23562e-09 3.87557e-09)
(-3.55648e-10 8.52475e-10 5.39451e-10)
(-6.29201e-10 3.21075e-10 1.13383e-09)
(-6.46246e-10 -1.61466e-10 1.54793e-09)
(-6.08561e-10 -5.54193e-10 1.92152e-09)
(-6.03212e-10 -9.20727e-10 2.30853e-09)
(-6.99282e-10 -1.30291e-09 2.75333e-09)
(-9.88442e-10 -1.87487e-09 3.30562e-09)
(-1.70094e-09 -3.2293e-09 3.90025e-09)
(1.22662e-10 2.62422e-10 7.29429e-11)
(-5.27098e-13 -1.16262e-10 4.62459e-10)
(1.06432e-11 -4.94799e-10 8.6444e-10)
(5.72617e-11 -8.53345e-10 1.23499e-09)
(7.67049e-11 -1.20598e-09 1.60192e-09)
(1.81517e-12 -1.54837e-09 1.98967e-09)
(-2.63625e-10 -1.95786e-09 2.36562e-09)
(-9.87061e-10 -2.89535e-09 2.54462e-09)
(2.89498e-10 2.12569e-11 5.336e-11)
(2.65452e-10 -3.39548e-10 3.56461e-10)
(2.95129e-10 -6.94725e-10 7.16606e-10)
(3.38257e-10 -1.02636e-09 1.06907e-09)
(3.5393e-10 -1.3316e-09 1.40687e-09)
(2.75757e-10 -1.58327e-09 1.7205e-09)
(5.85402e-12 -1.8437e-09 1.94886e-09)
(-6.94414e-10 -2.60409e-09 1.96861e-09)
(3.49514e-10 -5.81482e-11 8.16208e-11)
(3.67165e-10 -4.23463e-10 3.41076e-10)
(4.05061e-10 -7.79641e-10 6.41699e-10)
(4.42555e-10 -1.09229e-09 9.4311e-10)
(4.50147e-10 -1.35129e-09 1.22353e-09)
(3.6491e-10 -1.53274e-09 1.4567e-09)
(9.24335e-11 -1.72052e-09 1.5937e-09)
(-5.87017e-10 -2.42411e-09 1.57982e-09)
(3.66458e-10 -7.94346e-11 8.37582e-11)
(3.91617e-10 -4.43074e-10 2.96349e-10)
(4.28654e-10 -7.96911e-10 5.30882e-10)
(4.60264e-10 -1.0947e-09 7.6462e-10)
(4.60463e-10 -1.32333e-09 9.76066e-10)
(3.69551e-10 -1.46875e-09 1.13973e-09)
(9.70385e-11 -1.63189e-09 1.22517e-09)
(-5.66751e-10 -2.31432e-09 1.21121e-09)
(3.7028e-10 -8.26425e-11 6.75455e-11)
(3.9201e-10 -4.39277e-10 2.23905e-10)
(4.24705e-10 -7.85836e-10 3.90348e-10)
(4.51266e-10 -1.07206e-09 5.53625e-10)
(4.46396e-10 -1.28467e-09 6.9801e-10)
(3.52304e-10 -1.41619e-09 8.05523e-10)
(8.0985e-11 -1.57396e-09 8.59086e-10)
(-5.7224e-10 -2.24629e-09 8.50259e-10)
(3.71369e-10 -8.16348e-11 4.28165e-11)
(3.89256e-10 -4.30744e-10 1.37772e-10)
(4.18149e-10 -7.6967e-10 2.36688e-10)
(4.4121e-10 -1.04799e-09 3.32404e-10)
(4.33397e-10 -1.25324e-09 4.15784e-10)
(3.37871e-10 -1.38073e-09 4.76764e-10)
(6.78385e-11 -1.53876e-09 5.0678e-10)
(-5.78894e-10 -2.20613e-09 5.02271e-10)
(3.71874e-10 -8.06187e-11 1.45902e-11)
(3.87878e-10 -4.25161e-10 4.6361e-11)
(4.14833e-10 -7.5953e-10 7.91174e-11)
(4.36166e-10 -1.03387e-09 1.10583e-10)
(4.27033e-10 -1.23632e-09 1.37797e-10)
(3.30994e-10 -1.36304e-09 1.57566e-10)
(6.17278e-11 -1.52196e-09 1.67285e-10)
(-5.81896e-10 -2.18736e-09 1.65925e-10)
(1.90142e-09 -3.22653e-09 4.04732e-09)
(1.34071e-09 -2.72398e-09 2.61594e-09)
(1.00358e-09 -2.48043e-09 1.9701e-09)
(8.91815e-10 -2.31114e-09 1.54499e-09)
(8.80445e-10 -2.19542e-09 1.17065e-09)
(8.9433e-10 -2.11906e-09 8.19032e-10)
(9.06468e-10 -2.07246e-09 4.84038e-10)
(9.12106e-10 -2.05032e-09 1.60058e-10)
(4.42712e-10 -2.83948e-09 3.82785e-09)
(3.03779e-10 -2.28617e-09 2.70985e-09)
(1.84585e-10 -2.07128e-09 2.11251e-09)
(1.4457e-10 -1.93956e-09 1.63275e-09)
(1.46506e-10 -1.85293e-09 1.20889e-09)
(1.57694e-10 -1.79356e-09 8.31925e-10)
(1.66001e-10 -1.75518e-09 4.87403e-10)
(1.69785e-10 -1.73619e-09 1.60626e-10)
(-4.42958e-10 -2.83036e-09 3.82457e-09)
(-2.96804e-10 -2.279e-09 2.70853e-09)
(-1.73846e-10 -2.0647e-09 2.11114e-09)
(-1.31375e-10 -1.9332e-09 1.6317e-09)
(-1.31481e-10 -1.84668e-09 1.20825e-09)
(-1.41362e-10 -1.7874e-09 8.31597e-10)
(-1.48837e-10 -1.74908e-09 4.87265e-10)
(-1.52219e-10 -1.73012e-09 1.60591e-10)
(-1.87598e-09 -3.20399e-09 4.0377e-09)
(-1.31234e-09 -2.70343e-09 2.61106e-09)
(-9.72182e-10 -2.46027e-09 1.96553e-09)
(-8.57743e-10 -2.29119e-09 1.54168e-09)
(-8.44323e-10 -2.1757e-09 1.16867e-09)
(-8.56762e-10 -2.09963e-09 8.18019e-10)
(-8.67985e-10 -2.0533e-09 4.83605e-10)
(-8.7318e-10 -2.03133e-09 1.59944e-10)
)
;
    }
    symmetry
    {
        type            symmetry;
    }
    bottom
    {
        type            calculated;
        value           uniform (0 0 0);
    }
}


// ************************************************************************* //
