/*--------------------------------*- C++ -*----------------------------------*\
| =========                 |                                                 |
| \\      /  F ield         | OpenFOAM: The Open Source CFD Toolbox           |
|  \\    /   O peration     | Version:  v1912                                 |
|   \\  /    A nd           | Website:  www.openfoam.com                      |
|    \\/     M anipulation  |                                                 |
\*---------------------------------------------------------------------------*/
FoamFile
{
    version     2.0;
    format      ascii;
    class       volScalarField;
    location    "0.26/solid";
    object      epsilonEq;
}
// * * * * * * * * * * * * * * * * * * * * * * * * * * * * * * * * * * * * * //

dimensions      [0 0 0 0 0 0 0];


internalField   nonuniform List<scalar> 
256
(
2.33037e-06
1.88045e-06
1.86403e-06
2.26694e-06
1.62893e-06
1.58434e-06
1.56615e-06
1.56947e-06
1.68665e-06
1.58764e-06
1.56912e-06
1.62882e-06
1.7733e-06
1.63382e-06
1.61548e-06
1.71693e-06
1.86375e-06
1.70943e-06
1.69124e-06
1.80824e-06
1.96453e-06
1.81539e-06
1.79726e-06
1.90958e-06
1.85632e-06
1.84367e-06
1.82665e-06
1.80626e-06
1.43318e-07
2.01037e-06
1.99538e-06
1.36865e-07
1.67119e-06
3.5773e-07
3.50375e-07
1.602e-06
1.40443e-06
3.206e-07
3.12269e-07
1.33823e-06
1.41826e-06
2.69418e-07
2.62135e-07
1.35265e-06
1.46064e-06
2.36098e-07
2.29553e-07
1.39481e-06
1.52608e-06
2.30596e-07
2.24395e-07
1.4596e-06
1.61973e-06
2.21577e-07
2.1579e-07
1.55294e-06
1.63594e-06
4.55637e-08
4.53169e-08
1.57361e-06
1.85577e-06
1.84409e-06
1.82753e-06
1.80712e-06
1.50598e-06
2.24901e-07
2.18307e-07
1.44097e-06
1.35717e-06
2.68399e-07
2.59077e-07
1.29162e-06
1.37931e-06
2.49689e-07
2.40654e-07
1.31262e-06
1.41791e-06
2.24062e-07
2.15195e-07
1.35013e-06
1.47913e-06
2.15607e-07
2.06697e-07
1.41006e-06
1.57215e-06
2.08997e-07
2.00268e-07
1.50221e-06
1.61922e-06
2.16381e-07
2.12123e-07
1.55336e-06
1.96386e-06
1.81631e-06
1.79905e-06
1.91217e-06
1.38843e-06
1.99776e-07
1.93787e-07
1.32845e-06
1.26421e-06
2.50588e-07
2.42313e-07
1.20234e-06
1.29234e-06
2.4234e-07
2.33956e-07
1.22834e-06
1.33072e-06
2.21544e-07
2.13134e-07
1.26502e-06
1.3889e-06
2.12932e-07
2.04417e-07
1.32153e-06
1.47775e-06
2.06041e-07
1.97738e-07
1.40922e-06
1.52497e-06
2.15767e-07
2.12061e-07
1.46028e-06
1.86684e-06
1.71266e-06
1.69585e-06
1.81702e-06
1.31923e-06
1.86791e-07
1.81137e-07
1.26309e-06
1.20181e-06
2.34328e-07
2.27034e-07
1.14311e-06
1.23238e-06
2.28713e-07
2.21199e-07
1.17107e-06
1.27098e-06
2.09825e-07
2.02154e-07
1.20752e-06
1.3276e-06
2.00718e-07
1.92852e-07
1.26217e-06
1.41376e-06
1.92732e-07
1.85021e-07
1.34692e-06
1.45896e-06
1.97556e-07
1.94719e-07
1.39581e-06
1.79124e-06
1.64143e-06
1.62503e-06
1.74341e-06
1.27765e-06
1.78348e-07
1.72975e-07
1.22414e-06
1.16327e-06
2.22604e-07
2.16023e-07
1.10683e-06
1.19456e-06
2.17238e-07
2.10423e-07
1.13525e-06
1.23312e-06
1.98803e-07
1.91775e-07
1.1714e-06
1.28885e-06
1.89204e-07
1.81889e-07
1.22492e-06
1.37344e-06
1.80693e-07
1.73435e-07
1.30788e-06
1.41694e-06
1.82292e-07
1.80178e-07
1.35496e-06
1.74242e-06
1.59725e-06
1.58115e-06
1.69615e-06
1.2535e-06
1.72995e-07
1.67836e-07
1.20162e-06
1.14083e-06
2.15273e-07
2.09161e-07
1.08583e-06
1.17221e-06
2.097e-07
2.03358e-07
1.11423e-06
1.21063e-06
1.91265e-07
1.84687e-07
1.15007e-06
1.26583e-06
1.81274e-07
1.74342e-07
1.20291e-06
1.34952e-06
1.72582e-07
1.65619e-07
1.28482e-06
1.39191e-06
1.72744e-07
1.71124e-07
1.33072e-06
1.71328e-06
1.57166e-06
1.55576e-06
1.66809e-06
1.2423e-06
1.70373e-07
1.6533e-07
1.19121e-06
1.13044e-06
2.11785e-07
2.0591e-07
1.07615e-06
1.1618e-06
2.06072e-07
1.99969e-07
1.10447e-06
1.2001e-06
1.87584e-07
1.81239e-07
1.14013e-06
1.25506e-06
1.77385e-07
1.7065e-07
1.19264e-06
1.33833e-06
1.68645e-07
1.61828e-07
1.27406e-06
1.38019e-06
1.68348e-07
1.66978e-07
1.31939e-06
1.69964e-06
1.55991e-06
1.54411e-06
1.65499e-06
)
;

boundaryField
{
    interface
    {
        type            calculated;
        value           nonuniform List<scalar> 
192
(
3.22358e-06
2.47177e-06
2.54989e-06
2.66427e-06
2.79135e-06
2.95122e-06
2.94897e-06
1.56617e-06
2.87577e-06
2.5282e-06
2.56544e-06
2.64835e-06
2.7693e-06
2.95245e-06
3.10878e-06
2.94875e-06
2.58777e-06
2.36475e-06
2.4075e-06
2.48408e-06
2.59876e-06
2.77834e-06
2.95301e-06
2.95162e-06
2.38517e-06
2.19168e-06
2.23978e-06
2.315e-06
2.42568e-06
2.59958e-06
2.77168e-06
2.79683e-06
2.26683e-06
2.0829e-06
2.13339e-06
2.20843e-06
2.31721e-06
2.48762e-06
2.65614e-06
2.68772e-06
2.19634e-06
2.01713e-06
2.06848e-06
2.14343e-06
2.25119e-06
2.41946e-06
2.58509e-06
2.61875e-06
2.15574e-06
1.97917e-06
2.03078e-06
2.10561e-06
2.21278e-06
2.37978e-06
2.54348e-06
2.57787e-06
2.13703e-06
1.96168e-06
2.01334e-06
2.08809e-06
2.19498e-06
2.36137e-06
2.52412e-06
2.55877e-06
3.37379e-06
2.63914e-06
2.71673e-06
2.83072e-06
2.95787e-06
3.11975e-06
3.13375e-06
1.88528e-06
3.24574e-06
2.85997e-06
2.88852e-06
2.97537e-06
3.10585e-06
3.30111e-06
3.47113e-06
3.27447e-06
3.21602e-06
2.82752e-06
2.85506e-06
2.94177e-06
3.07226e-06
3.26747e-06
3.43823e-06
3.24857e-06
3.28747e-06
2.55561e-06
2.63297e-06
2.74749e-06
2.87501e-06
3.03677e-06
3.05323e-06
1.84029e-06
3.13434e-06
2.38398e-06
2.46288e-06
2.57807e-06
2.70572e-06
2.86672e-06
2.87209e-06
1.54387e-06
2.76503e-06
2.41874e-06
2.45511e-06
2.53659e-06
2.65593e-06
2.83816e-06
2.99983e-06
2.87283e-06
2.48066e-06
2.25553e-06
2.29597e-06
2.37029e-06
2.4826e-06
2.66032e-06
2.83909e-06
2.86946e-06
2.28402e-06
2.08687e-06
2.13173e-06
2.20409e-06
2.31195e-06
2.4835e-06
2.65898e-06
2.71534e-06
2.17028e-06
1.98188e-06
2.02861e-06
2.10037e-06
2.20599e-06
2.37373e-06
2.54518e-06
2.60766e-06
2.10292e-06
1.91879e-06
1.9661e-06
2.03749e-06
2.14185e-06
2.3072e-06
2.47547e-06
2.5399e-06
2.06427e-06
1.88253e-06
1.92997e-06
2.00108e-06
2.10469e-06
2.26861e-06
2.43475e-06
2.49988e-06
2.04648e-06
1.86586e-06
1.9133e-06
1.98426e-06
2.08752e-06
2.25074e-06
2.41584e-06
2.48122e-06
1.88576e-06
3.13366e-06
3.12002e-06
2.96316e-06
2.85424e-06
2.78569e-06
2.74513e-06
2.72617e-06
3.27485e-06
3.47195e-06
3.30331e-06
3.11236e-06
2.99123e-06
2.9173e-06
2.87445e-06
2.85467e-06
3.24895e-06
3.43934e-06
3.27024e-06
3.07969e-06
2.95889e-06
2.88521e-06
2.84252e-06
2.82283e-06
1.84067e-06
3.05411e-06
3.03958e-06
2.88485e-06
2.77777e-06
2.71066e-06
2.67107e-06
2.65261e-06
)
;
    }
    symmetry
    {
        type            symmetry;
    }
    bottom
    {
        type            calculated;
        value           nonuniform List<scalar> 
32
(
3.02072e-06
1.93984e-06
1.69954e-06
1.57278e-06
1.49999e-06
1.45558e-06
1.42957e-06
1.41748e-06
2.1614e-06
4.31973e-07
2.47257e-07
2.20139e-07
2.09197e-07
2.01647e-07
1.96664e-07
1.94195e-07
2.14568e-06
4.2312e-07
2.38893e-07
2.12638e-07
2.02182e-07
1.94987e-07
1.9026e-07
1.87927e-07
2.95489e-06
1.86738e-06
1.63303e-06
1.51289e-06
1.44496e-06
1.40381e-06
1.3798e-06
1.36867e-06
)
;
    }
}


// ************************************************************************* //
