/*--------------------------------*- C++ -*----------------------------------*\
| =========                 |                                                 |
| \\      /  F ield         | OpenFOAM: The Open Source CFD Toolbox           |
|  \\    /   O peration     | Version:  v1912                                 |
|   \\  /    A nd           | Website:  www.openfoam.com                      |
|    \\/     M anipulation  |                                                 |
\*---------------------------------------------------------------------------*/
FoamFile
{
    version     2.0;
    format      ascii;
    class       volVectorField;
    location    "0.26/solid";
    object      heatFlux;
}
// * * * * * * * * * * * * * * * * * * * * * * * * * * * * * * * * * * * * * //

dimensions      [1 0 -3 0 0 0 0];


internalField   nonuniform List<vector> 
256
(
(-84643.7 45379.5 -90723.7)
(-10438.9 23400.6 -84230.9)
(10328.4 23320 -83489.1)
(82217 45232.2 -88294.7)
(-84334.2 2835.13 -90500.9)
(-11620.6 1526.96 -84907)
(11503.2 1519.56 -84110.2)
(81781.9 2823.83 -87899.8)
(-85629.7 548.988 -91827.4)
(-11754.5 270.208 -86156.2)
(11625.3 266.868 -85327.1)
(83013.3 531.694 -89133.3)
(-87685.9 761.476 -93888.3)
(-11902.8 372.652 -88092.8)
(11764.7 370.854 -87247.9)
(85021.3 748.193 -91147)
(-90915.5 1362.38 -97113.2)
(-12145.1 708.385 -91210.6)
(12000.8 707.685 -90358.3)
(88227.3 1355.88 -94350.3)
(-96149.9 3286.44 -102370)
(-12557.5 2146.74 -96518.8)
(12412.2 2145.35 -95664)
(93489.1 3292.17 -99600.9)
(-104659 18254.8 -111080)
(-13286.2 16337 -105901)
(13146.2 16282 -105044)
(102155 18131.4 -108305)
(-110728 118052 -118038)
(-14530.3 115381 -115371)
(14206.5 114537 -114529)
(108559 115337 -115333)
(-74457 21400.4 -12732.1)
(-8817.5 2650.9 -10414.7)
(8885.59 2673.9 -10364.4)
(71860.9 21535.7 -12596.9)
(-75134.5 1427.64 -14174.4)
(-9908.99 215.768 -11708.5)
(9999.18 217.772 -11650.4)
(72447.9 1443.18 -14016.7)
(-76375 274.887 -14319.2)
(-10027.4 25.9445 -11834.9)
(10113 25.4201 -11774.8)
(73619.4 264.22 -14156.2)
(-78321.1 387.402 -14469.1)
(-10158.5 31.4364 -11965.2)
(10237.5 30.7151 -11904.3)
(75500.6 374.34 -14304.9)
(-81463.8 728.07 -14713.4)
(-10384.1 90.1111 -12190.4)
(10455.9 89.3174 -12129.2)
(78586.8 716.03 -14551)
(-86781 2141.06 -15133.4)
(-10797.2 919.975 -12611.5)
(10863.4 917.208 -12550.7)
(83875.8 2134.63 -14976.7)
(-95987.7 15939 -15937.1)
(-11607.9 13508.9 -13508.3)
(11670.6 13449.2 -13448.8)
(93166.2 15791.2 -15791.4)
(-104673 111104 -18252.3)
(-13287 105919 -16336)
(13145.6 105056 -16281.4)
(102151 108310 -18131.6)
(-65450.3 18473 -1802.42)
(-8071.23 1277.45 -678.145)
(8146.17 1305.13 -675.599)
(62835.4 18618.6 -1792.11)
(-66155.9 1248.06 -2009.63)
(-9096.62 106.698 -786.587)
(9194.94 109.173 -783.581)
(63450.1 1264.54 -1997.79)
(-67337.7 254.369 -2023.63)
(-9210.12 13.4502 -794.333)
(9304.01 13.0213 -791.251)
(64561.3 243.542 -2011.75)
(-69215.8 367.289 -2032.1)
(-9337.96 17.1973 -799.586)
(9425.03 16.4822 -796.484)
(66369.8 353.4 -2020.48)
(-72288 698.089 -2043.35)
(-9560.93 62.1363 -808.905)
(9640.21 61.2566 -805.825)
(69374 684.003 -2032.51)
(-77555.9 2062.7 -2061.06)
(-9974.8 828.823 -828.753)
(10046.9 825.765 -825.761)
(74589.8 2051.74 -2052.09)
(-86798.9 15135.9 -2139.35)
(-10797.9 12612.5 -919.884)
(10863.1 12551.3 -917.194)
(83872.3 14976.6 -2134.98)
(-96182.6 102412 -3283.02)
(-12559.4 96549 -2145.51)
(12411 95683.7 -2144.66)
(93482.1 99609 -3292.33)
(-60301.2 17588.3 -638.55)
(-7690.69 1186.16 -52.2241)
(7771.62 1214.72 -51.5083)
(57726.6 17745.8 -627.757)
(-60987.9 1206.43 -696.553)
(-8682.94 99.58 -60.2214)
(8787.97 102.12 -59.394)
(58322.8 1223.54 -684.423)
(-62149 252.418 -698.682)
(-8794.99 12.9456 -60.6323)
(8895.58 12.5168 -59.8009)
(59413.3 241.531 -686.509)
(-64009.2 367.677 -698.083)
(-8922.84 16.864 -60.7135)
(9016.55 16.1414 -59.885)
(61202.6 353.589 -685.954)
(-67065.3 699.113 -696.436)
(-9146.53 60.9435 -60.8625)
(9232.31 60.0403 -60.0416)
(64186.6 684.423 -684.484)
(-72313.8 2045.06 -695.368)
(-9561.91 808.997 -62.053)
(9640.03 805.84 -61.2565)
(69372.5 2032.16 -684.045)
(-81508.6 14717 -725.128)
(-10385.8 12192.2 -89.9588)
(10455.5 12130.3 -89.2755)
(78581.8 14551 -716.054)
(-90977.4 97182.3 -1356.33)
(-12148.7 91260.9 -706.05)
(11998.8 90391.8 -706.198)
(88218.3 94365 -1355.34)
(-57303.5 17137.9 -336.846)
(-7484.19 1165.01 -14.893)
(7570.64 1194.23 -14.3704)
(54764.5 17306.4 -327.917)
(-57981.7 1187.93 -364.623)
(-8459.46 98.2898 -16.7282)
(8570.74 100.88 -16.1224)
(55353.7 1205.79 -354.468)
(-59137.6 252.839 -364.858)
(-8571.24 12.9581 -16.7582)
(8678.13 12.5303 -16.1483)
(56439.8 242.01 -354.594)
(-60996.3 369.534 -363.463)
(-8699.77 16.967 -16.6796)
(8799.79 16.2415 -16.0714)
(58227.5 355.425 -353.179)
(-64050.7 700.804 -361.522)
(-8924.53 60.7969 -16.5729)
(9016.59 59.8851 -15.9682)
(61208.3 685.913 -351.275)
(-69284.4 2034.01 -360.913)
(-9340.68 799.727 -16.8875)
(9424.91 796.531 -16.2928)
(66374.5 2020.17 -350.929)
(-78411.3 14474.9 -380.322)
(-10162 11968.5 -30.8306)
(10237 11906.4 -30.2813)
(75502 14305.3 -371.511)
(-87796.5 94005.2 -746.928)
(-11909.2 88180.3 -366.139)
(11761.7 87308.8 -365.851)
(85017.4 91177.6 -742.364)
(-55518.6 16886.9 -186.481)
(-7368.21 1154.54 -7.53609)
(7458.6 1184.23 -7.18556)
(53001.6 17063.4 -180.381)
(-56193.6 1178.41 -201.07)
(-8334.44 97.7148 -8.40103)
(8450.23 100.342 -7.99339)
(53589.1 1196.86 -194.086)
(-57349.4 253.578 -200.885)
(-8446.28 12.9942 -8.39782)
(8557.75 12.5678 -7.98663)
(54675.8 242.819 -193.798)
(-59210.2 371.014 -199.768)
(-8575.45 17.0493 -8.338)
(8680.05 16.3215 -7.92813)
(56465.9 356.908 -192.659)
(-62265 701.663 -198.504)
(-8800.98 60.7356 -8.26671)
(8897.61 59.8189 -7.85942)
(59446.4 686.673 -191.41)
(-67484.5 2026.26 -198.603)
(-9217.29 794.739 -8.43423)
(9305.99 791.526 -8.03235)
(64595.8 2011.92 -191.649)
(-76549.8 14331 -211.214)
(-10035.7 11842.9 -15.9166)
(10114.8 11780.7 -15.5316)
(73653.5 14159.5 -204.891)
(-85829.4 92038 -424.399)
(-11767.6 86321.1 -203.006)
(11622.6 85448.5 -202.64)
(83039.5 89204.4 -420.197)
(-54499.4 16750.3 -94.9737)
(-7304.9 1149.07 -3.7157)
(7397.79 1179.05 -3.51539)
(51995.2 16931.9 -91.4465)
(-55173.1 1173.53 -102.148)
(-8266.38 97.4281 -4.12942)
(8385.05 100.079 -3.89618)
(52582.7 1192.37 -98.0959)
(-56329.7 254.141 -101.959)
(-8378.34 13.0211 -4.12325)
(8492.74 12.5956 -3.88767)
(53670.8 243.438 -97.8357)
(-58192.7 371.915 -101.301)
(-8507.93 17.0982 -4.08916)
(8615.47 16.3687 -3.85447)
(55463.3 357.812 -97.163)
(-61247.4 701.969 -100.646)
(-8733.89 60.7006 -4.05223)
(8833.45 59.7808 -3.81932)
(58443.5 686.923 -96.52)
(-66455.7 2021.3 -100.922)
(-9150.11 792.077 -4.14086)
(9241.69 788.858 -3.91087)
(63580.4 2006.69 -96.8689)
(-75476.9 14249.1 -108.024)
(-9966.33 11773.9 -7.8826)
(10048.1 11711.7 -7.658)
(72589.2 14076.7 -104.285)
(-84675.1 90880.9 -220.124)
(-11687.5 85243.4 -103.941)
(11544.5 84370.3 -103.678)
(81880 88044.1 -217.36)
(-54033.4 16689.8 -29.201)
(-7276.75 1146.7 -1.12439)
(7370.87 1176.82 -1.05925)
(51535.1 16873.8 -28.0477)
(-54706.6 1171.43 -31.3678)
(-8236.18 97.3072 -1.24771)
(8356.26 99.9701 -1.17183)
(52122.7 1190.47 -30.041)
(-55863.8 254.426 -31.2972)
(-8348.21 13.0345 -1.24522)
(8464.04 12.6095 -1.16851)
(53211.8 243.752 -29.9444)
(-57727.9 372.326 -31.0837)
(-8478 17.1203 -1.23432)
(8586.98 16.3899 -1.15792)
(55005.5 358.224 -29.7262)
(-60782.4 702.042 -30.8857)
(-8704.15 60.6839 -1.22308)
(8805.14 59.7625 -1.14734)
(57985.4 686.967 -29.533)
(-65984.7 2018.88 -31.0105)
(-9120.28 790.908 -1.25109)
(9213.26 787.688 -1.17629)
(63115.6 2004.16 -29.682)
(-74983.1 14211.8 -33.3015)
(-9935.34 11743.1 -2.39159)
(10018.4 11680.9 -2.31796)
(72099.5 14039 -32.0693)
(-84138.7 90342 -68.3262)
(-11651.1 84745.2 -32.0796)
(11509.2 83871.9 -31.9861)
(81341.2 87503.7 -67.3767)
)
;

boundaryField
{
    interface
    {
        type            calculated;
        value           nonuniform List<vector> 
192
(
(-148485 45379.5 -90723.7)
(-145513 2835.13 -90500.9)
(-147841 548.988 -91827.4)
(-151659 761.476 -93888.3)
(-157635 1362.38 -97113.2)
(-167279 3286.44 -102370)
(-182843 18254.8 -111080)
(-192599 118052 -118038)
(-131258 21400.4 -12732.1)
(-130426 1427.64 -14174.4)
(-132670 274.887 -14319.2)
(-136301 387.402 -14469.1)
(-142136 728.07 -14713.4)
(-151945 2141.06 -15133.4)
(-168742 15939 -15937.1)
(-182869 111104 -18252.3)
(-114733 18473 -1802.42)
(-114088 1248.06 -2009.63)
(-116225 254.369 -2023.63)
(-119726 367.289 -2032.1)
(-125426 698.089 -2043.35)
(-135135 2062.7 -2061.06)
(-151980 15135.9 -2139.35)
(-167341 102412 -3283.02)
(-105195 17588.3 -638.55)
(-104579 1206.43 -696.553)
(-106677 252.418 -698.682)
(-110142 367.677 -698.083)
(-115808 699.113 -696.436)
(-125475 2045.06 -695.368)
(-142222 14717 -725.128)
(-157753 97182.3 -1356.33)
(-99612.1 17137.9 -336.846)
(-99012.5 1187.93 -364.623)
(-101101 252.839 -364.858)
(-104562 369.534 -363.463)
(-110222 700.804 -361.522)
(-119858 2034.01 -360.913)
(-136475 14474.9 -380.322)
(-151870 94005.2 -746.928)
(-96273.9 16886.9 -186.481)
(-95685.9 1178.41 -201.07)
(-97773.9 253.578 -200.885)
(-101238 371.014 -199.768)
(-106897 701.663 -198.504)
(-116505 2026.26 -198.603)
(-133004 14331 -211.214)
(-148218 92038 -424.399)
(-94361.8 16750.3 -94.9737)
(-93780.7 1173.53 -102.148)
(-95870.2 254.141 -101.959)
(-99337.7 371.915 -101.301)
(-104996 701.969 -100.646)
(-114581 2021.3 -100.922)
(-130996 14249.1 -108.024)
(-146070 90880.9 -220.124)
(-93485.9 16689.8 -29.201)
(-92908 1171.43 -31.3678)
(-94998.6 254.426 -31.2972)
(-98467.8 372.326 -31.0837)
(-104125 702.042 -30.8857)
(-113699 2018.88 -31.0105)
(-130071 14211.8 -33.3015)
(-145069 90342 -68.3262)
(-84643.7 45379.5 -158743)
(-84334.2 2835.13 -155748)
(-85629.7 548.988 -158136)
(-87685.9 761.476 -161974)
(-90915.5 1362.38 -167959)
(-96149.9 3286.44 -177669)
(-104659 18254.8 -193601)
(-110728 118052 -204374)
(-10438.9 23400.6 -148904)
(-11620.6 1526.96 -147872)
(-11754.5 270.208 -150132)
(-11902.8 372.652 -153755)
(-12145.1 708.385 -159559)
(-12557.5 2146.74 -169371)
(-13286.2 16337 -186486)
(-14530.3 115381 -201419)
(10328.4 23320 -147517)
(11503.2 1519.56 -146390)
(11625.3 266.868 -148589)
(11764.7 370.854 -152182)
(12000.8 707.685 -157971)
(12412.2 2145.35 -167778)
(13146.2 16282 -184886)
(14206.5 114537 -199843)
(82217 45232.2 -154146)
(81781.9 2823.83 -150850)
(83013.3 531.694 -153062)
(85021.3 748.193 -156809)
(88227.3 1355.88 -162748)
(93489.1 3292.17 -172437)
(102155 18131.4 -188343)
(108559 115337 -199222)
(143702 45232.2 -88294.7)
(140472 2823.83 -87899.8)
(142686 531.694 -89133.3)
(146421 748.193 -91147)
(152359 1355.88 -94350.3)
(162060 3292.17 -99600.9)
(177921 18131.4 -108305)
(188500 115337 -115333)
(125972 21535.7 -12596.9)
(124923 1443.18 -14016.7)
(127038 264.22 -14156.2)
(130551 374.34 -14304.9)
(136285 716.03 -14551)
(146048 2134.63 -14976.7)
(163009 15791.2 -15791.4)
(177915 108310 -18131.6)
(109404 18618.6 -1792.11)
(108541 1264.54 -1997.79)
(110545 243.542 -2011.75)
(113919 353.4 -2020.48)
(119496 684.003 -2032.51)
(129113 2051.74 -2052.09)
(146041 14976.6 -2134.98)
(162048 99609 -3292.33)
(99935.9 17745.8 -627.757)
(99100.8 1223.54 -684.423)
(101066 241.531 -686.509)
(104402 353.589 -685.954)
(109938 684.423 -684.484)
(119494 2032.16 -684.045)
(136276 14551 -716.054)
(152344 94365 -1355.34)
(94414.2 17306.4 -327.917)
(93597.8 1205.79 -354.468)
(95555 242.01 -354.594)
(98886.4 355.425 -353.179)
(104414 685.913 -351.275)
(113928 2020.17 -350.929)
(130554 14305.3 -371.511)
(146416 91177.6 -742.364)
(91112.9 17063.4 -180.381)
(90310.2 1196.86 -194.086)
(92268.2 242.819 -193.798)
(95603.2 356.908 -192.659)
(101128 686.673 -191.41)
(110609 2011.92 -191.649)
(127102 14159.5 -204.891)
(142739 89204.4 -420.197)
(89222 16931.9 -91.4465)
(88427.9 1192.37 -98.0959)
(90388.7 243.438 -97.8357)
(93727.5 357.812 -97.163)
(99251.1 686.923 -96.52)
(108707 2006.69 -96.8689)
(125107 14076.7 -104.285)
(140577 88044.1 -217.36)
(88355.8 16873.8 -28.0477)
(87565.8 1190.47 -30.041)
(89528.3 243.752 -29.9444)
(92869.2 358.224 -29.7262)
(98391.8 686.967 -29.533)
(107835 2004.16 -29.682)
(124187 14039 -32.0693)
(139570 87503.7 -67.3767)
(-110728 204399 -118038)
(-104673 193648 -18252.3)
(-96182.6 177749 -3283.02)
(-90977.4 168091 -1356.33)
(-87796.5 162198 -746.928)
(-85829.4 158536 -424.399)
(-84675.1 156376 -220.124)
(-84138.7 155368 -68.3262)
(-14530.3 201438 -115371)
(-13287 186521 -16336)
(-12559.4 169429 -2145.51)
(-12148.7 159656 -706.05)
(-11909.2 153924 -366.139)
(-11767.6 150447 -203.006)
(-11687.5 148424 -103.941)
(-11651.1 147487 -32.0796)
(14206.5 199857 -114529)
(13145.6 184910 -16281.4)
(12411 167816 -2144.66)
(11998.8 158036 -706.198)
(11761.7 152300 -365.851)
(11622.6 148821 -202.64)
(11544.5 146797 -103.678)
(11509.2 145860 -31.9861)
(108559 199229 -115333)
(102151 188353 -18131.6)
(93482.1 172453 -3292.33)
(88218.3 162777 -1355.34)
(85017.4 156869 -742.364)
(83039.5 153198 -420.197)
(81880 151033 -217.36)
(81341.2 150023 -67.3767)
)
;
    }
    symmetry
    {
        type            symmetry;
    }
    bottom
    {
        type            calculated;
        value           nonuniform List<vector> 
32
(
(-84643.7 85620.3 -90723.7)
(-74457 40211.9 -12732.1)
(-65450.3 34691.9 -1802.42)
(-60301.2 33002.3 -638.55)
(-57303.5 32137.7 -336.846)
(-55518.6 31654.9 -186.481)
(-54499.4 31391.8 -94.9737)
(-54033.4 31275 -29.201)
(-10438.9 44015.5 -84230.9)
(-8817.5 4900.29 -10414.7)
(-8071.23 2356.81 -678.145)
(-7690.69 2187.71 -52.2241)
(-7484.19 2147.91 -14.893)
(-7368.21 2128.13 -7.53609)
(-7304.9 2117.77 -3.7157)
(-7276.75 2113.27 -1.12439)
(10328.4 43864.8 -83489.1)
(8885.59 4941.92 -10364.4)
(8146.17 2406.99 -675.599)
(7771.62 2239.52 -51.5083)
(7570.64 2200.96 -14.3704)
(7458.6 2182.04 -7.18556)
(7397.79 2172.22 -3.51539)
(7370.87 2167.98 -1.05925)
(82217 85329.2 -88294.7)
(71860.9 40442.6 -12596.9)
(62835.4 34941.5 -1792.11)
(57726.6 33274.2 -627.757)
(54764.5 32430.5 -327.917)
(53001.6 31962.5 -180.381)
(51995.2 31708.9 -91.4465)
(51535.1 31596.7 -28.0477)
)
;
    }
}


// ************************************************************************* //
