/*--------------------------------*- C++ -*----------------------------------*\
| =========                 |                                                 |
| \\      /  F ield         | OpenFOAM: The Open Source CFD Toolbox           |
|  \\    /   O peration     | Version:  v1912                                 |
|   \\  /    A nd           | Website:  www.openfoam.com                      |
|    \\/     M anipulation  |                                                 |
\*---------------------------------------------------------------------------*/
FoamFile
{
    version     2.0;
    format      ascii;
    class       pointVectorField;
    location    "0.26/solid";
    object      pointD;
}
// * * * * * * * * * * * * * * * * * * * * * * * * * * * * * * * * * * * * * //

dimensions      [0 1 0 0 0 0 0];


internalField   nonuniform List<vector> 
405
(
(2.67452e-08 2.03274e-08 2.82183e-08)
(2.80003e-09 1.29157e-08 3.55958e-08)
(2.16949e-10 1.05237e-08 3.44044e-08)
(-2.35698e-09 1.29011e-08 3.53195e-08)
(-2.57288e-08 1.9852e-08 2.82012e-08)
(4.22155e-08 2.59166e-08 4.45933e-08)
(7.56347e-09 2.23833e-08 7.28562e-08)
(9.11789e-10 1.87058e-08 7.06651e-08)
(-5.72441e-09 2.20115e-08 7.25524e-08)
(-3.97929e-08 2.46847e-08 4.50225e-08)
(4.50054e-08 1.88643e-08 4.74092e-08)
(1.00052e-08 1.70971e-08 7.52381e-08)
(1.93002e-09 1.51872e-08 7.31757e-08)
(-6.13827e-09 1.60695e-08 7.53553e-08)
(-4.06545e-08 1.66338e-08 4.86064e-08)
(4.63494e-08 1.56925e-08 4.79627e-08)
(1.08342e-08 1.46901e-08 7.63401e-08)
(3.0819e-09 1.36065e-08 7.42296e-08)
(-4.67245e-09 1.30746e-08 7.67571e-08)
(-3.97799e-08 1.2549e-08 4.97021e-08)
(4.80592e-08 1.51321e-08 4.79717e-08)
(1.17397e-08 1.42268e-08 7.73401e-08)
(4.38074e-09 1.32785e-08 7.53398e-08)
(-2.98416e-09 1.20888e-08 7.79851e-08)
(-3.8952e-08 1.11565e-08 5.01186e-08)
(5.05508e-08 1.5939e-08 4.827e-08)
(1.29382e-08 1.49818e-08 7.91998e-08)
(5.83411e-09 1.39041e-08 7.74524e-08)
(-1.27988e-09 1.23613e-08 8.00285e-08)
(-3.85946e-08 1.11854e-08 5.07433e-08)
(5.36368e-08 1.73354e-08 4.9347e-08)
(1.41755e-08 1.63405e-08 8.2581e-08)
(7.44754e-09 1.50138e-08 8.12187e-08)
(6.87959e-10 1.3254e-08 8.35703e-08)
(-3.85711e-08 1.18342e-08 5.21014e-08)
(5.70565e-08 1.0222e-08 5.1495e-08)
(1.55013e-08 9.38012e-09 8.74319e-08)
(9.21064e-09 7.95452e-09 8.66261e-08)
(2.82857e-09 5.89801e-09 8.86124e-08)
(-3.8749e-08 4.08431e-09 5.45273e-08)
(4.71126e-08 -2.30508e-08 4.03865e-08)
(1.64195e-08 -3.59074e-08 5.28523e-08)
(1.03092e-08 -3.67221e-08 5.29422e-08)
(4.07141e-09 -3.91084e-08 5.46014e-08)
(-2.69064e-08 -2.87235e-08 4.36137e-08)
(3.26717e-08 1.24536e-08 2.55414e-09)
(0 0 0)
(0 0 0)
(0 0 0)
(-3.15729e-08 1.18232e-08 2.88044e-09)
(6.68658e-08 2.16314e-08 7.22346e-09)
(7.29812e-09 1.40977e-08 7.47771e-09)
(6.17574e-10 1.05829e-08 7.54088e-09)
(-6.00729e-09 1.34271e-08 8.07881e-09)
(-6.39314e-08 1.98406e-08 8.35838e-09)
(6.92385e-08 1.68277e-08 9.69585e-09)
(9.63356e-09 1.42542e-08 9.99644e-09)
(1.42228e-09 1.23396e-08 1.01766e-08)
(-6.73178e-09 1.29997e-08 1.10268e-08)
(-6.46582e-08 1.4008e-08 1.16601e-08)
(7.10403e-08 1.51043e-08 9.70136e-09)
(1.0367e-08 1.40513e-08 1.0066e-08)
(2.41726e-09 1.29093e-08 1.03477e-08)
(-5.48087e-09 1.2274e-08 1.14025e-08)
(-6.44524e-08 1.13248e-08 1.22707e-08)
(7.35517e-08 1.52581e-08 8.78795e-09)
(1.11661e-08 1.43037e-08 9.25945e-09)
(3.59599e-09 1.32683e-08 9.66091e-09)
(-3.92416e-09 1.2047e-08 1.08261e-08)
(-6.45851e-08 1.05855e-08 1.18183e-08)
(7.7415e-08 1.62614e-08 7.66952e-09)
(1.22826e-08 1.51638e-08 8.23903e-09)
(4.95281e-09 1.39901e-08 8.77519e-09)
(-2.32869e-09 1.24506e-08 9.99126e-09)
(-6.57271e-08 1.07458e-08 1.10717e-08)
(8.26938e-08 1.74249e-08 6.76243e-09)
(1.34965e-08 1.61439e-08 7.36502e-09)
(6.48456e-09 1.47447e-08 8.02029e-09)
(-4.98596e-10 1.29865e-08 9.27464e-09)
(-6.80279e-08 1.11117e-08 1.04782e-08)
(8.8829e-08 1.00968e-08 6.65008e-09)
(1.48611e-08 8.78513e-09 7.19932e-09)
(8.17896e-09 7.33313e-09 7.91894e-09)
(1.46544e-09 5.28216e-09 9.2296e-09)
(-7.11481e-08 3.13875e-09 1.06132e-08)
(5.76495e-08 -3.49401e-08 7.28309e-09)
(1.62758e-08 -7.14526e-08 7.88608e-09)
(9.97255e-09 -7.13908e-08 8.60248e-09)
(3.58492e-09 -7.41147e-08 9.93513e-09)
(-3.81821e-08 -4.05852e-08 1.08567e-08)
(2.91934e-08 8.9584e-09 -4.64635e-10)
(0 0 0)
(0 0 0)
(0 0 0)
(-2.81147e-08 8.43694e-09 -2.07093e-10)
(6.03119e-08 1.58562e-08 -8.08564e-11)
(6.82441e-09 8.82895e-09 3.42313e-10)
(3.94226e-10 5.59265e-09 5.25478e-10)
(-5.9419e-09 8.16594e-09 8.38123e-10)
(-5.76002e-08 1.42723e-08 8.21483e-10)
(6.30005e-08 1.32741e-08 1.18276e-09)
(9.06578e-09 1.08257e-08 1.66529e-09)
(1.02084e-09 8.9968e-09 1.98981e-09)
(-6.92008e-09 9.57967e-09 2.51878e-09)
(-5.89771e-08 1.06426e-08 2.76772e-09)
(6.46057e-08 1.31107e-08 1.40319e-09)
(9.70994e-09 1.21135e-08 1.94931e-09)
(1.87147e-09 1.09866e-08 2.38748e-09)
(-5.86538e-09 1.0356e-08 3.06873e-09)
(-5.88461e-08 9.50496e-09 3.51572e-09)
(6.69651e-08 1.40607e-08 7.28942e-10)
(1.04229e-08 1.31251e-08 1.36128e-09)
(2.9328e-09 1.20925e-08 1.89944e-09)
(-4.45397e-09 1.08984e-08 2.68919e-09)
(-5.90394e-08 9.54902e-09 3.26293e-09)
(7.08616e-08 1.52906e-08 -2.24631e-10)
(1.1517e-08 1.41496e-08 4.59847e-10)
(4.19379e-09 1.29765e-08 1.08231e-09)
(-3.02456e-09 1.14752e-08 1.95907e-09)
(-6.03772e-08 9.92725e-09 2.65642e-09)
(7.64767e-08 1.62009e-08 -8.86944e-10)
(1.28e-08 1.48231e-08 -2.28237e-10)
(5.64691e-09 1.34306e-08 4.52068e-10)
(-1.41901e-09 1.17184e-08 1.40927e-09)
(-6.31363e-08 1.00444e-08 2.27687e-09)
(8.35008e-08 8.72098e-09 -7.43616e-10)
(1.42907e-08 7.33917e-09 -1.85068e-10)
(7.27721e-09 5.92818e-09 5.16832e-10)
(2.88109e-10 3.91707e-09 1.53555e-09)
(-6.72539e-08 1.94728e-09 2.611e-09)
(5.50431e-08 -3.40368e-08 1.31967e-10)
(1.57627e-08 -6.78713e-08 9.03368e-10)
(9.01722e-09 -6.72836e-08 1.55679e-09)
(2.23891e-09 -7.03883e-08 2.59655e-09)
(-3.72244e-08 -3.94759e-08 3.10931e-09)
(2.65831e-08 7.92245e-09 -3.05597e-10)
(0 0 0)
(0 0 0)
(0 0 0)
(-2.55993e-08 7.52235e-09 -1.19831e-10)
(5.53427e-08 1.36665e-08 -3.06571e-10)
(6.45069e-09 6.9791e-09 2.68716e-11)
(2.5298e-10 3.9389e-09 1.53536e-10)
(-5.85352e-09 6.39127e-09 3.89134e-10)
(-5.29491e-08 1.23468e-08 3.53978e-10)
(5.83266e-08 1.10374e-08 3.07028e-10)
(8.64888e-09 8.65885e-09 7.01245e-10)
(7.42596e-10 6.92258e-09 9.46249e-10)
(-7.0574e-09 7.51074e-09 1.33781e-09)
(-5.48724e-08 8.69078e-09 1.48921e-09)
(5.99213e-08 1.10787e-08 5.83753e-10)
(9.25239e-09 1.01277e-08 1.02109e-09)
(1.47018e-09 9.04957e-09 1.36264e-09)
(-6.20404e-09 8.47261e-09 1.87212e-09)
(-5.49619e-08 7.7477e-09 2.19285e-09)
(6.21518e-08 1.22374e-08 2.86392e-10)
(9.88665e-09 1.13516e-08 7.95651e-10)
(2.42592e-09 1.0359e-08 1.21878e-09)
(-4.92231e-09 9.2263e-09 1.82285e-09)
(-5.52251e-08 7.97987e-09 2.25461e-09)
(6.59353e-08 1.34979e-08 -2.2018e-10)
(1.09234e-08 1.23681e-08 3.50726e-10)
(3.59858e-09 1.12289e-08 8.39049e-10)
(-3.61015e-09 9.79375e-09 1.52538e-09)
(-5.66129e-08 8.3689e-09 2.05087e-09)
(7.15653e-08 1.42142e-08 -3.92589e-10)
(1.22262e-08 1.27914e-08 1.80088e-10)
(4.97873e-09 1.14363e-08 7.09463e-10)
(-2.16914e-09 9.78789e-09 1.47006e-09)
(-5.95141e-08 8.27847e-09 2.12085e-09)
(7.89675e-08 6.63902e-09 2.3957e-10)
(1.38157e-08 5.25198e-09 7.36581e-10)
(6.54833e-09 3.92769e-09 1.27352e-09)
(-6.8214e-10 1.93212e-09 2.08774e-09)
(-6.41007e-08 7.6415e-11 2.90546e-09)
(5.27255e-08 -3.41266e-08 1.44323e-09)
(1.53047e-08 -6.57046e-08 2.22036e-09)
(8.23509e-09 -6.47719e-08 2.68731e-09)
(1.14441e-09 -6.81256e-08 3.53701e-09)
(-3.63854e-08 -3.93925e-08 3.78648e-09)
(2.49622e-08 7.49932e-09 -1.51991e-10)
(0 0 0)
(0 0 0)
(0 0 0)
(-2.40615e-08 7.19273e-09 -2.09855e-11)
(5.20928e-08 1.26787e-08 -2.24037e-10)
(6.11225e-09 6.26496e-09 5.44944e-11)
(1.66611e-10 3.3549e-09 1.52926e-10)
(-5.70499e-09 5.75144e-09 3.13547e-10)
(-4.99589e-08 1.1579e-08 2.45564e-10)
(5.50967e-08 9.7173e-09 1.69033e-11)
(8.22971e-09 7.41332e-09 3.83879e-10)
(5.58022e-10 5.75677e-09 5.77493e-10)
(-7.02322e-09 6.37278e-09 8.44496e-10)
(-5.20886e-08 7.63399e-09 8.67623e-10)
(5.6697e-08 9.43908e-09 2.03387e-10)
(8.79652e-09 8.53455e-09 6.16104e-10)
(1.18862e-09 7.5128e-09 8.87284e-10)
(-6.32344e-09 6.99663e-09 1.24025e-09)
(-5.23656e-08 6.37843e-09 1.37965e-09)
(5.88452e-08 1.03856e-08 1.32423e-10)
(9.36213e-09 9.55868e-09 6.05878e-10)
(2.05628e-09 8.61666e-09 9.42867e-10)
(-5.14685e-09 7.54925e-09 1.36936e-09)
(-5.27138e-08 6.38591e-09 1.59433e-09)
(6.25129e-08 1.14859e-08 -1.2218e-11)
(1.03259e-08 1.03965e-08 5.23259e-10)
(3.15267e-09 9.30239e-09 9.14635e-10)
(-3.91277e-09 7.93307e-09 1.40555e-09)
(-5.41304e-08 6.59475e-09 1.69652e-09)
(6.80846e-08 1.20512e-08 1.61444e-10)
(1.16077e-08 1.06287e-08 7.18791e-10)
(4.46843e-09 9.32195e-09 1.14538e-09)
(-2.5786e-09 7.72958e-09 1.6932e-09)
(-5.70907e-08 6.33178e-09 2.06805e-09)
(7.56357e-08 4.50569e-09 1.00104e-09)
(1.3246e-08 3.15434e-09 1.51557e-09)
(5.98376e-09 1.92165e-09 1.94601e-09)
(-1.24809e-09 -7.10657e-11 2.53668e-09)
(-6.19121e-08 -1.86451e-09 3.03018e-09)
(5.08069e-08 -3.48663e-08 2.25042e-09)
(1.47194e-08 -6.49562e-08 3.00101e-09)
(7.6236e-09 -6.38043e-08 3.3672e-09)
(4.99786e-10 -6.72957e-08 3.99105e-09)
(-3.56739e-08 -3.9982e-08 4.02674e-09)
(2.39898e-08 7.2321e-09 -8.12053e-11)
(0 0 0)
(0 0 0)
(0 0 0)
(-2.31462e-08 6.99013e-09 7.24445e-12)
(5.00764e-08 1.20644e-08 -1.58897e-10)
(5.84716e-09 5.86222e-09 4.83567e-11)
(1.13296e-10 3.04084e-09 1.25698e-10)
(-5.56191e-09 5.4063e-09 2.26409e-10)
(-4.81204e-08 1.11242e-08 1.5992e-10)
(5.3001e-08 8.84592e-09 -8.90786e-11)
(7.86643e-09 6.62275e-09 2.08274e-10)
(4.37688e-10 5.03077e-09 3.59449e-10)
(-6.91612e-09 5.67043e-09 5.27032e-10)
(-5.03013e-08 6.96662e-09 4.93545e-10)
(5.45755e-08 8.20718e-09 8.38746e-12)
(8.3864e-09 7.35205e-09 3.54567e-10)
(9.97202e-10 6.38146e-09 5.6543e-10)
(-6.30905e-09 5.91429e-09 7.90363e-10)
(-5.06863e-08 5.3668e-09 8.23388e-10)
(5.66627e-08 8.83134e-09 3.51212e-11)
(8.89392e-09 8.05787e-09 4.31066e-10)
(1.79684e-09 7.16282e-09 6.92281e-10)
(-5.20852e-09 6.14955e-09 9.69229e-10)
(-5.11031e-08 5.04832e-09 1.06052e-09)
(6.0241e-08 9.70596e-09 9.01008e-11)
(9.79409e-09 8.65933e-09 5.35923e-10)
(2.83213e-09 7.608e-09 8.39444e-10)
(-4.03191e-09 6.29236e-09 1.16285e-09)
(-5.25471e-08 5.0166e-09 1.30139e-09)
(6.57475e-08 1.01469e-08 4.14454e-10)
(1.1045e-08 8.74192e-09 8.84081e-10)
(4.09508e-09 7.48007e-09 1.21575e-09)
(-2.77149e-09 5.93149e-09 1.58009e-09)
(-5.55405e-08 4.6092e-09 1.77635e-09)
(7.33463e-08 2.65285e-09 1.22679e-09)
(1.27002e-08 1.34394e-09 1.67477e-09)
(5.56544e-09 1.85273e-10 2.00957e-09)
(-1.54716e-09 -1.80375e-09 2.40534e-09)
(-6.0485e-08 -3.5588e-09 2.68224e-09)
(4.93595e-08 -3.58335e-08 2.30329e-09)
(1.41477e-08 -6.50078e-08 2.94406e-09)
(7.16679e-09 -6.372e-08 3.23146e-09)
(1.4891e-10 -6.72811e-08 3.64982e-09)
(-3.51392e-08 -4.08268e-08 3.57549e-09)
(2.34149e-08 7.05468e-09 -4.54368e-11)
(0 0 0)
(0 0 0)
(0 0 0)
(-2.26069e-08 6.85399e-09 9.07218e-12)
(4.88643e-08 1.1649e-08 -1.04365e-10)
(5.67033e-09 5.59082e-09 2.70873e-11)
(8.13177e-11 2.8275e-09 7.97175e-11)
(-5.45952e-09 5.17431e-09 1.38524e-10)
(-4.70197e-08 1.08138e-08 9.28236e-11)
(5.17061e-08 8.2468e-09 -9.43881e-11)
(7.60862e-09 6.09127e-09 1.03987e-10)
(3.62824e-10 4.54644e-09 2.06871e-10)
(-6.81887e-09 5.20118e-09 3.04326e-10)
(-4.92023e-08 6.50776e-09 2.68104e-10)
(5.32422e-08 7.33881e-09 -4.77631e-11)
(8.08391e-09 6.52714e-09 1.90426e-10)
(8.74529e-10 5.596e-09 3.34091e-10)
(-6.26107e-09 5.16207e-09 4.65928e-10)
(-4.96396e-08 4.65524e-09 4.6342e-10)
(5.52824e-08 7.69481e-09 2.3914e-12)
(8.54644e-09 6.96264e-09 2.76446e-10)
(1.62651e-09 6.10386e-09 4.54277e-10)
(-5.20955e-09 5.12905e-09 6.18859e-10)
(-5.01003e-08 4.06984e-09 6.51179e-10)
(5.87993e-08 8.37307e-09 1.14666e-10)
(9.40078e-09 7.35962e-09 4.22308e-10)
(2.61762e-09 6.34137e-09 6.2878e-10)
(-4.0746e-09 5.06438e-09 8.23518e-10)
(-5.15676e-08 3.83288e-09 8.87145e-10)
(6.42552e-08 8.71424e-09 4.22548e-10)
(1.0626e-08 7.32667e-09 7.47499e-10)
(3.84155e-09 6.09861e-09 9.73192e-10)
(-2.86592e-09 4.58189e-09 1.19478e-09)
(-5.45836e-08 3.31121e-09 1.29637e-09)
(7.18661e-08 1.24828e-09 1.04772e-09)
(1.22854e-08 -2.80701e-11 1.36174e-09)
(5.2784e-09 -1.13543e-09 1.58983e-09)
(-1.71238e-09 -3.11844e-09 1.83198e-09)
(-5.95983e-08 -4.84605e-09 1.98488e-09)
(4.83771e-08 -3.67031e-08 1.82142e-09)
(1.37112e-08 -6.53266e-08 2.27798e-09)
(6.85121e-09 -6.3957e-08 2.47608e-09)
(-5.22776e-11 -6.75514e-08 2.73102e-09)
(-3.47879e-08 -4.16062e-08 2.64018e-09)
(2.31092e-08 6.95345e-09 -2.13025e-11)
(0 0 0)
(0 0 0)
(0 0 0)
(-2.23205e-08 6.7756e-09 4.66626e-12)
(4.82157e-08 1.14038e-08 -5.24867e-11)
(5.57246e-09 5.42695e-09 1.01084e-11)
(6.43356e-11 2.69641e-09 3.63692e-11)
(-5.40156e-09 5.03317e-09 6.37146e-11)
(-4.64318e-08 1.06278e-08 4.16418e-11)
(5.1004e-08 7.88594e-09 -5.52169e-11)
(7.46137e-09 5.77305e-09 4.16219e-11)
(3.22065e-10 4.25659e-09 9.31184e-11)
(-6.75934e-09 4.91942e-09 1.38226e-10)
(-4.86083e-08 6.22801e-09 1.18408e-10)
(5.25108e-08 6.81742e-09 -3.58304e-11)
(7.90647e-09 6.03462e-09 8.27012e-11)
(8.06402e-10 5.12796e-09 1.54846e-10)
(-6.22519e-09 4.71284e-09 2.16003e-10)
(-4.90683e-08 4.22648e-09 2.10178e-10)
(5.45205e-08 7.0087e-09 -1.78024e-12)
(8.34058e-09 6.30234e-09 1.3552e-10)
(1.53034e-09 5.46604e-09 2.24922e-10)
(-5.20058e-09 4.51385e-09 3.0183e-10)
(-4.95523e-08 3.47866e-09 3.12092e-10)
(5.80017e-08 7.56166e-09 7.58932e-11)
(9.1677e-09 6.56839e-09 2.29941e-10)
(2.49487e-09 5.57051e-09 3.33723e-10)
(-4.09104e-09 4.31675e-09 4.25502e-10)
(-5.10347e-08 3.11204e-09 4.51433e-10)
(6.34269e-08 7.83707e-09 2.56504e-10)
(1.03772e-08 6.46053e-09 4.19262e-10)
(3.69493e-09 5.25287e-09 5.32689e-10)
(-2.91393e-09 3.75578e-09 6.37857e-10)
(-5.40651e-08 2.5163e-09 6.82957e-10)
(7.10402e-08 3.79491e-10 5.93596e-10)
(1.20374e-08 -8.78012e-10 7.51493e-10)
(5.11116e-09 -1.95584e-09 8.66181e-10)
(-1.80218e-09 -3.93336e-09 9.81558e-10)
(-5.91184e-08 -5.64298e-09 1.05201e-09)
(4.78178e-08 -3.72858e-08 9.95124e-10)
(1.34501e-08 -6.56132e-08 1.22961e-09)
(6.66644e-09 -6.42002e-08 1.32992e-09)
(-1.64514e-10 -6.78085e-08 1.45089e-09)
(-3.45981e-08 -4.21338e-08 1.39556e-09)
(1.80441e-08 7.4721e-09 0)
(1.99211e-09 2.58623e-09 0)
(-6.2159e-12 8.63621e-10 0)
(-1.98945e-09 2.50446e-09 0)
(-1.75106e-08 7.27781e-09 0)
(2.9272e-08 9.65758e-09 0)
(5.54142e-09 5.37184e-09 0)
(5.90252e-11 2.65188e-09 0)
(-5.38308e-09 4.98548e-09 0)
(-2.82904e-08 8.99197e-09 0)
(3.20508e-08 7.36206e-09 0)
(7.41411e-09 5.66626e-09 0)
(3.0915e-10 4.15921e-09 0)
(-6.73994e-09 4.82459e-09 0)
(-3.05051e-08 5.91867e-09 0)
(3.30163e-08 6.5407e-09 0)
(7.84878e-09 5.8703e-09 0)
(7.84594e-10 4.97188e-09 0)
(-6.21286e-09 4.56283e-09 0)
(-3.04694e-08 4.28346e-09 0)
(3.42079e-08 6.62189e-09 0)
(8.27321e-09 6.08209e-09 0)
(1.49929e-09 5.25336e-09 0)
(-5.1968e-09 4.30862e-09 0)
(-3.01812e-08 3.54591e-09 0)
(3.63814e-08 7.01092e-09 0)
(9.09131e-09 6.30373e-09 0)
(2.45496e-09 5.31268e-09 0)
(-4.09579e-09 4.06667e-09 0)
(-3.04004e-08 3.12741e-09 0)
(3.97668e-08 7.11825e-09 0)
(1.02956e-08 6.16984e-09 0)
(3.647e-09 4.96896e-09 0)
(-2.92935e-09 3.47852e-09 0)
(-3.14173e-08 2.45732e-09 0)
(4.45927e-08 -3.82629e-10 0)
(1.19559e-08 -1.16522e-09 0)
(5.05627e-09 -2.23345e-09 0)
(-1.83155e-09 -4.20881e-09 0)
(-3.36205e-08 -5.67083e-09 0)
(3.83116e-08 -2.77219e-08 0)
(1.31446e-08 -3.69853e-08 0)
(6.20844e-09 -3.66903e-08 0)
(-7.68553e-10 -3.96641e-08 0)
(-2.57275e-08 -3.25387e-08 0)
)
;

boundaryField
{
    interface
    {
        type            calculated;
    }
    symmetry
    {
        type            symmetry;
    }
    bottom
    {
        type            calculated;
    }
}


// ************************************************************************* //
