/*--------------------------------*- C++ -*----------------------------------*\
| =========                 |                                                 |
| \\      /  F ield         | OpenFOAM: The Open Source CFD Toolbox           |
|  \\    /   O peration     | Version:  v1912                                 |
|   \\  /    A nd           | Website:  www.openfoam.com                      |
|    \\/     M anipulation  |                                                 |
\*---------------------------------------------------------------------------*/
FoamFile
{
    version     2.0;
    format      ascii;
    class       volSymmTensorField;
    location    "0.26/solid";
    object      sigma;
}
// * * * * * * * * * * * * * * * * * * * * * * * * * * * * * * * * * * * * * //

dimensions      [1 -1 -2 0 0 0 0];


internalField   nonuniform List<symmTensor> 
256
(
(-362816 7100.68 -1370.46 160288 6328.99 -390572)
(-9362.41 -10900.7 -295.863 112120 7166.78 -369019)
(-8961.33 14474 359.395 110746 7556.63 -365630)
(-347886 -5405.19 1588.3 160089 7777.44 -376513)
(-395819 -2368.7 -1651.81 -34595.1 -3896.69 -423470)
(-70311.2 -3231.02 -416.76 -17785.6 -3449.1 -406732)
(-70009.7 5891.16 616.237 -19429.7 -3195.62 -403285)
(-379750 3511.44 2008.74 -32991.4 -2968.77 -408662)
(-398118 -1825.21 -1846.14 -23317.8 -3943.66 -425368)
(-71366.3 -1186.04 -519.54 -22807.6 -3858.77 -410976)
(-71099.3 3159.99 767.934 -24350.2 -3686.71 -407457)
(-381698 2649.56 2234.64 -20997.6 -3299 -410249)
(-404193 -336.982 -1914.28 -9544.12 -2841.4 -431853)
(-66656.5 -225.567 -539.589 -18638.3 -2644.88 -417353)
(-66370.7 1672.08 785.536 -19990.6 -2512.94 -413774)
(-387511 943.517 2306.45 -6643.81 -2342.24 -416524)
(-419006 334.397 -1723.65 -3724.95 -2235.49 -447195)
(-64765.5 139.743 -421.57 -13959.5 -1902.21 -431371)
(-64454.6 879.377 652.972 -15199.9 -1787.64 -427758)
(-402197 91.2258 2114.66 -508.81 -1813.05 -431763)
(-444885 115.318 -1307.32 -6687.76 -2175.91 -473772)
(-65603.1 -185.896 -187.129 -14681.6 -1839.84 -456738)
(-65329.9 821.374 412.25 -15886.4 -1725.86 -453130)
(-428285 102.643 1700.68 -3443 -1783.21 -458365)
(-493157 -46.7167 -830.668 -80804.9 -1840.43 -523568)
(-81129.1 -760.361 60.9643 -84594.6 -1694.79 -508300)
(-81029.1 957.2 181.646 -85376.2 -1565.28 -504709)
(-477543 -44.325 1230.94 -76937.1 -1443.59 -508264)
(-513504 653.493 -588.581 -546553 -178.442 -546528)
(-80910.9 -68.0337 159.544 -544890 -171.421 -544794)
(-80532.4 -43.5226 109.055 -541071 -47.3979 -540936)
(-499522 -953.421 974.573 -531051 155.416 -530981)
(-322029 7132.21 -1064.87 107623 -18372.9 -11744.2)
(-17269.3 -9798 279.599 56493.9 -15351.6 -22089.2)
(-17666.5 11599.9 -12.8074 53680.5 -14486.3 -23061.7)
(-306655 -6074.19 1291.88 105250 -15650.9 -8113.93)
(-358314 -2089.22 -1013.36 -10623.9 -8737.98 -65608.2)
(-72626.3 -3260.12 344.186 -467.988 -7477.28 -73542.4)
(-72890.6 4476.42 154.227 -3192.42 -6905.91 -74733.4)
(-341670 2614.48 1378.76 -10748.8 -6818.89 -61865)
(-363214 -1947.05 -935.179 -13001.2 -7224.39 -65791.1)
(-79746.5 -1560.43 393.055 -18733.8 -6743.5 -79726.5)
(-80033.9 2420.14 152.167 -21210.7 -6327.5 -81060.9)
(-346203 2290.18 1324.5 -12217.8 -5765.5 -62342.4)
(-369583 -477.528 -940.217 -9160.26 -6948.45 -62724)
(-76723.8 -594.651 420.329 -23997.4 -6577.56 -77784.8)
(-77004.2 1193.72 92.0483 -26312.2 -6240.3 -79187.2)
(-352254 724.755 1322.47 -7879.53 -5756.72 -59423.7)
(-383604 361.421 -843.807 -7222.53 -6603.46 -62578.8)
(-73344.8 -114.306 500.478 -22259.5 -6291.48 -75278.7)
(-73600.7 481.665 -29.3144 -24508.8 -5994.13 -76723.1)
(-365997 -209.193 1217.69 -5697.29 -5573.01 -59370.5)
(-409053 355.29 -580.247 -11408.9 -6340.54 -65310.9)
(-70902.3 -278.536 679.8 -22236.9 -6169.79 -73449.7)
(-71183.4 414.683 -230.087 -24445.6 -5898.33 -74952.3)
(-391381 -350.054 953.289 -9797.56 -5424.7 -62261.7)
(-459787 280.759 -189.332 -82151.8 -5732.41 -82636.2)
(-82563.8 -731.295 906.026 -85605.9 -5678.31 -85764.6)
(-82991.3 608.863 -482.127 -87271.9 -5451.1 -87292.3)
(-442767 -527.886 552.462 -79652 -4981.87 -79808.3)
(-493300 870.03 179.919 -523582 -1766 -81003.1)
(-81194.3 -5.86968 1020 -508355 -1644.57 -84443.9)
(-81062.5 -141.167 -763.046 -504767 -1521.3 -85044.6)
(-477555 -1220.19 89.7118 -508240 -1396.44 -76728.7)
(-276640 7108.55 -931.053 97603.9 -5491.57 34946)
(-14375.6 -9109.82 81.8081 42191.9 -3700.96 15816.5)
(-14699.2 10007.4 229.549 39527.3 -2981.46 14723.8)
(-260779 -6422.17 1057.38 96512 -3271.77 39007.9)
(-306051 -1577.14 -811.62 11013.5 -4496.3 2889.3)
(-56414.4 -3148.38 148.051 13818.3 -3488.55 -12897.9)
(-56594.3 3636.78 390.35 11119.8 -2890.05 -14346.6)
(-289045 1817.4 1046.27 11215.6 -2588.78 6661.2)
(-310979 -1850.27 -570.226 12691.6 -5710.86 1304.28)
(-63515.5 -1697.17 258.765 947.24 -5208.94 -20640.1)
(-63706 1978.98 298.395 -1536.3 -4712.53 -22289.1)
(-293627 1963.47 822.024 13580.7 -4094.13 4579.44)
(-317508 -546.742 -523.143 14877.5 -7001.49 3792.63)
(-61445.4 -766.664 292.7 -5510.39 -6617.09 -19562.4)
(-61622.1 926.12 213.704 -7848.8 -6189.48 -21325.1)
(-299824 619.557 760.192 16197.9 -5603.14 6767.23)
(-331564 354.996 -540.695 13792 -7455.94 5096.05)
(-58911.4 -198.856 293.769 -6905.28 -7169.62 -15804.1)
(-59054.2 249.574 158.918 -9182.77 -6789.9 -17647.6)
(-313540 -326.99 760.736 15356.4 -6227.02 7865.6)
(-357374 515.888 -496.382 6591.93 -7032.79 3839.1)
(-57617.1 -220.404 344.205 -9870.07 -6907.76 -12003.1)
(-57771.6 155.033 66.8178 -12091.1 -6576.33 -13930.6)
(-339153 -590.029 703.769 8309.88 -5968.58 6387.48)
(-409056 657.968 -293.473 -63995.1 -5714.7 -12411.6)
(-70582.1 -537.377 473.954 -72397.9 -5622.52 -22555.7)
(-70864.7 327.008 -137.901 -74046.4 -5374.37 -24480.3)
(-391252 -943.404 472.352 -61290.8 -4905.19 -10013.1)
(-445066 1333.05 26.0126 -473607 -1838.5 -6829.31)
(-65428.1 223.984 522.878 -456564 -1560.42 -14143.7)
(-65123.1 -381.517 -432.179 -452934 -1464.01 -14984.3)
(-428190 -1696.87 43.304 -458078 -1524.46 -2641.2)
(-251893 6732.6 -724.655 92595.7 -1672.37 36582.3)
(-16212.3 -8847.15 -15.5462 33788 -552.809 12614.8)
(-16520.3 9261.74 309.398 31428 -16.8536 11694.9)
(-235973 -6305.69 811.881 92866.5 -31.5671 41403)
(-279085 -1341.93 -828.547 13064.5 -2140.85 12173)
(-54757.2 -3093.51 -20.737 9689.67 -1382.6 -8584.09)
(-54944.4 3197.76 534.317 7194.26 -882.07 -9836.57)
(-262149 1428.45 1003.67 13903.2 -589.065 16666.4)
(-284050 -1721.98 -659.923 17159 -3891.7 10920.3)
(-61577.3 -1730.74 61.5431 142.935 -3441.75 -15684)
(-61765.7 1706.74 467.706 -2233.57 -2989.43 -17145.1)
(-266787 1718.88 850.52 18354.7 -2471.31 14862.6)
(-290774 -574.11 -602.198 20137.8 -5690.66 12008.3)
(-59972 -852.267 86.7508 -5186.65 -5324.83 -15981.6)
(-60141 782.732 390.313 -7463.96 -4915.86 -17579.5)
(-273181 558.445 777.307 21623.4 -4400.11 15565.8)
(-304976 296.82 -643.083 18355.2 -6592.93 12226)
(-58040.6 -264.625 55.8051 -7428.08 -6292.5 -13386.5)
(-58172.7 161.705 362.451 -9659.96 -5924.89 -15090.5)
(-287027 -328.241 797.37 20039.1 -5437.19 15497)
(-331104 566.694 -677.474 9822.71 -6246.48 9660)
(-57730.6 -183.404 39.8017 -11791.9 -6070.33 -10941.4)
(-57869.7 35.6061 321.684 -13971.4 -5756.42 -12741.9)
(-312901 -671.461 811.152 11663 -5257.41 12674.8)
(-383145 953.897 -588.865 -59937.6 -4712.32 -8404.26)
(-71784 -345.358 87.7712 -72926.3 -4568.04 -23209.3)
(-72040.7 106.626 175.981 -74541.9 -4345.34 -24986.3)
(-365221 -1248.04 685.222 -57106.7 -3988.15 -5479.31)
(-418718 1770.87 -414.309 -446555 -1323.15 -2521.06)
(-63296.3 462.11 53.9901 -430674 -1054.84 -12511.4)
(-62946.2 -636.996 -34.2736 -427006 -978.817 -13145.1)
(-401426 -2144.95 405.733 -430878 -1065.13 2362.93)
(-236995 6317.8 -473.94 90436.6 -908.855 36953.8)
(-16809.1 -8819.36 -29.5751 29564.8 -116.393 9815.32)
(-17125 8960.25 265.465 27463.6 266.175 9032.17)
(-221080 -6061.2 542.218 91774 251.462 42312.3)
(-263035 -1305.74 -634.062 13154.5 -1429.78 15397.6)
(-53841.3 -3108.89 -61.5574 5743.13 -817.91 -8868.86)
(-54072.6 2996.85 487.395 3437.43 -442.958 -9949.27)
(-246214 1302.11 774.868 14581.6 -284.071 20451.7)
(-268018 -1654.27 -564.419 17581 -2720.44 15049.8)
(-60455.4 -1750.68 -22.8235 -2996.71 -2322.54 -14867.2)
(-60682.6 1554.41 470.574 -5268.7 -1966.24 -16149)
(-250885 1587.18 720.57 19099.2 -1619.27 19558.9)
(-274890 -585.506 -528.195 21087.7 -4180.17 15473.6)
(-59072.8 -901.004 -11.8854 -7565.46 -3857.31 -15775.1)
(-59276.2 702.649 418.306 -9790 -3523.46 -17201.4)
(-257434 521.188 672.189 22743.8 -3141.35 19565.4)
(-289183 247.076 -557.648 19578.3 -5009.53 14482.6)
(-57444.5 -314.715 -43.0529 -9617.78 -4733.4 -14493.3)
(-57609.8 126.915 395.44 -11822.3 -4428.96 -16037.6)
(-271369 -310.909 682.046 21355.6 -4061.41 18243.6)
(-315422 583.121 -593.637 11059.9 -4749.63 10387.3)
(-57647.4 -167.363 -72.723 -14012.3 -4562.12 -13748.1)
(-57817.8 -25.1831 366.331 -16178.8 -4303.8 -15394.5)
(-297332 -703.969 695.913 12958.8 -3938.32 13870.4)
(-367442 1151.65 -555.904 -57515.8 -3432.31 -9318.51)
(-72285.6 -209.403 -66.8118 -73591.9 -3285.95 -27721.4)
(-72567.4 -48.2416 264.969 -75206.8 -3106.43 -29336.3)
(-349555 -1451.32 621.218 -54644.8 -2845.93 -5902.15)
(-401961 2076.92 -478.326 -429689 -915.952 -3180.29)
(-61504.8 633.072 -136.232 -415288 -717.597 -15668)
(-61167.2 -826.38 125.083 -411610 -658.063 -16117.8)
(-384509 -2461.76 453.325 -413933 -710.716 2271.08)
(-227949 6009.61 -281.765 89041.7 -634.245 37598.6)
(-16990.8 -8857.41 -16.5878 26929 -96.6533 8407.06)
(-17311.3 8840.79 184.7 25017.8 159.204 7716.47)
(-212021 -5857.95 331.932 91141.9 133.68 43330)
(-253231 -1331.27 -399.717 13031 -1092.73 17316.6)
(-53039.1 -3146.52 -39.0733 3092.29 -637.207 -9323.33)
(-53304.2 2909.87 350.886 931.819 -381.458 -10286.2)
(-236472 1274.72 504.876 14922.2 -318.571 22774.9)
(-258180 -1633.21 -378.69 17282 -1899.16 17620.9)
(-59461 -1772.9 -23.4541 -5610.02 -1582.93 -14610.7)
(-59719.5 1475.93 358.784 -7796.03 -1333.14 -15765.7)
(-241120 1529.22 497.492 19085.9 -1132.98 22556.9)
(-265132 -594.492 -363.505 20925.5 -2827.34 17826.6)
(-58165.2 -932.316 -21.7059 -9903.31 -2574.55 -15721.6)
(-58396.8 656.48 330.075 -12083.8 -2334.85 -17021.7)
(-247753 501.47 474.538 22746.2 -2085.44 22339.4)
(-279478 217.548 -380.993 19782.8 -3375.24 15963.2)
(-56693.4 -346.715 -44.0818 -11623.8 -3161.58 -15380.4)
(-56885.9 105.329 310.974 -13809.2 -2940.1 -16803.3)
(-261743 -301.494 476.906 21649.3 -2686.94 20125.1)
(-305747 593.396 -403.178 11660.6 -3180.36 10636.6)
(-57177.1 -159.13 -67.6389 -15640.7 -3029.52 -15984.2)
(-57373.7 -65.0592 285.678 -17803.4 -2841.22 -17512.4)
(-287724 -725.544 480.539 13606.6 -2587.88 14505.9)
(-357641 1277.22 -385.515 -55929.5 -2247.72 -10249.8)
(-72147.3 -124.497 -75.1295 -74014.6 -2135.82 -31208.6)
(-72452 -150.311 216.083 -75636 -2005.52 -32704.2)
(-339779 -1582.63 432.752 -53033 -1819.6 -6444.3)
(-391147 2272.03 -350.298 -419001 -603.947 -3722.35)
(-59795.1 740.986 -140.221 -405819 -475.319 -18189.5)
(-59472.9 -950.257 122.545 -402138 -432.189 -18510.1)
(-373595 -2666.68 328.689 -403195 -454.14 2156.29)
(-222752 5821.64 -147.809 88055.6 -393.035 38117.9)
(-17090.8 -8891.21 -5.43481 25229.5 -84.9691 7719.26)
(-17412.4 8788.8 105.526 23441.2 61.8033 7086.57)
(-206808 -5729.71 178.362 90641.4 43.8785 44085.9)
(-247576 -1357.55 -211.27 12809.9 -707.559 18454.7)
(-52524.5 -3175.36 -13.6124 1409.17 -430.935 -9572.88)
(-52809.2 2870.34 202.539 -655.255 -282.917 -10462.6)
(-230846 1271.8 276.066 15013.4 -262.347 24175.5)
(-252489 -1629.93 -205.395 16913.5 -1149.05 19073.1)
(-58801.3 -1790.49 -6.35371 -7348.29 -947.876 -14529.1)
(-59078 1436.83 212.931 -9474.24 -801.206 -15603.8)
(-235464 1505.38 279.629 18923.3 -701.048 24292.8)
(-259474 -602.165 -200.658 20568.8 -1635.51 19195.7)
(-57527.5 -952.034 -7.29988 -11558.5 -1475.45 -15726.6)
(-57775.3 630.629 199.519 -13706.4 -1332.69 -16944.9)
(-242132 492.441 270.874 22516.4 -1194.6 23995.6)
(-273845 201.974 -210.108 19665.4 -1917.7 16816.6)
(-56134.7 -365.082 -20.3477 -13054.6 -1785.28 -15937.9)
(-56343 89.9465 187.182 -15225.6 -1652.09 -17280.6)
(-256151 -298.471 271.057 21603.6 -1503.78 21257.3)
(-300118 601.402 -221.22 11878.2 -1790.27 10705.1)
(-56777.1 -154.256 -34.3071 -16742 -1697.07 -17385.7)
(-56988.7 -92.1556 169.564 -18902 -1583.34 -18836)
(-282130 -741.546 270.14 13862.1 -1431.62 14843.8)
(-351899 1352.62 -212.427 -55062.9 -1250.94 -10912.8)
(-71941.4 -75.5482 -41.8987 -74343.7 -1184.84 -33386.1)
(-72259.5 -212.813 127.747 -75969.7 -1106.06 -34804.3)
(-334049 -1662.92 241.95 -52147 -990.948 -6841.09)
(-384673 2387.8 -195.411 -412679 -341.194 -4068.98)
(-58610.3 803.458 -84.4872 -400310 -270.686 -19759.2)
(-58297.5 -1024.31 71.7359 -396629 -244.557 -19997.1)
(-367060 -2789.76 182.002 -396842 -249.996 2096.56)
(-220372 5734.57 -46.0514 87533.3 -134.062 38388.1)
(-17147.4 -8907.5 -0.935864 24377.1 -34.3428 7431.97)
(-17469 8767.52 34.1296 22648.9 13.4697 6827.38)
(-204418 -5669.68 56.2706 90354.2 7.6549 44471.1)
(-244984 -1370.76 -65.4315 12644.8 -244.988 18988.6)
(-52288.9 -3188.93 -2.33778 574.377 -152.954 -9666.42)
(-52582.6 2853.75 65.5258 -1442.53 -104.552 -10520.6)
(-228266 1272.06 87.2487 15003.9 -99.8828 24838.6)
(-249878 -1630.21 -64.0181 16685.4 -386.308 19716.7)
(-58491.9 -1799.38 0.10336 -8209.61 -317.746 -14503.2)
(-58776.9 1420.12 69.5755 -10304.9 -269.482 -15538.5)
(-232867 1496.42 89.2 18801.7 -239.179 25078)
(-256874 -606.536 -63.0505 20338.2 -535.635 19798.7)
(-57220 -961.626 -0.43002 -12393 -481.039 -15744.9)
(-57475.2 618.872 65.6953 -14523.8 -433.748 -16922.7)
(-239548 489.025 87.026 22353.9 -389.704 24743.6)
(-271254 195.165 -66.0999 19544.3 -619.714 17185.4)
(-55860.3 -373.538 -4.71063 -13786.1 -575.105 -16206.4)
(-56075.7 81.7825 61.5048 -15949.1 -530.762 -17509.1)
(-253577 -297.822 86.9821 21522.4 -481.871 21768.6)
(-297525 605.898 -69.4513 11926.6 -574.694 10706.1)
(-56576.1 -151.911 -9.29225 -17305.3 -543.59 -18045.8)
(-56794.5 -106.146 55.2412 -19463.4 -505.613 -19457.1)
(-279552 -750.247 86.1982 13932.4 -454.778 14982.5)
(-349244 1388.54 -66.6558 -54698.7 -399.401 -11257)
(-71833.2 -53.0077 -12.1982 -74535.6 -377.952 -34411)
(-72157.4 -242.808 41.1905 -76163.8 -351.604 -35791)
(-331398 -1701.58 76.7368 -51771.5 -312.267 -7049.89)
(-381643 2442.15 -61.2837 -409736 -109.746 -4242.76)
(-58032.5 832.158 -26.7191 -397766 -87.4848 -20488.8)
(-57724 -1059.1 22.2926 -394086 -78.7386 -20686.1)
(-364001 -2847.98 56.7984 -393884 -79.1399 2067.57)
)
;

boundaryField
{
    interface
    {
        type            calculated;
        value           nonuniform List<symmTensor> 
192
(
(-61.571 0.268137 3.93766 846057 6328.99 295198)
(-63.5466 0.0387087 5.74013 654704 -3896.69 265828)
(-64.4471 -0.309996 6.02325 675279 -3943.66 273229)
(-65.0898 -0.688497 5.98167 705292 -2841.4 282984)
(-64.9875 -1.01961 5.78536 738802 -2235.49 295332)
(-65.6949 -1.67923 5.53314 781374 -2175.91 314289)
(-63.6795 -2.12935 4.98803 783532 -1840.43 340768)
(-66.9979 -4.52785 4.53355 361345 -178.442 361369)
(-59.6272 0.157653 2.03362 714390 -18372.9 595022)
(-60.6383 -0.069893 3.12393 608720 -8737.98 553735)
(-61.1627 -0.401355 3.24792 616458 -7224.39 563668)
(-61.6485 -0.809284 3.1724 635996 -6948.45 582432)
(-61.4055 -1.17568 3.00448 664782 -6603.46 609426)
(-62.1488 -1.92137 2.80249 706534 -6340.54 652632)
(-59.9449 -2.42496 2.44979 717523 -5732.41 717039)
(-63.6989 -4.98805 2.15389 340909 -1766 783488)
(-62.689 0.131918 1.6483 625898 -5491.57 563240)
(-63.6106 -0.115575 2.51007 549610 -4496.3 541485)
(-64.1344 -0.469018 2.60688 561031 -5710.86 549643)
(-64.619 -0.924138 2.54451 578518 -7001.49 567433)
(-64.2411 -1.34457 2.4087 603812 -7455.94 595116)
(-64.8784 -2.18815 2.24163 642348 -7032.79 639595)
(-62.1567 -2.77774 1.97009 654072 -5714.7 705656)
(-65.7397 -5.54374 1.72536 314754 -1838.5 781532)
(-62.7011 0.0864107 1.05363 576220 -1672.37 520206)
(-63.4276 -0.179714 1.65819 506141 -2140.85 505249)
(-63.8269 -0.544032 1.72017 519857 -3891.7 513618)
(-64.2476 -1.02267 1.66578 538093 -5690.66 529964)
(-63.7824 -1.47101 1.56178 562632 -6592.93 556503)
(-64.3909 -2.3607 1.43725 599823 -6246.48 599660)
(-61.5182 -2.98782 1.25695 612178 -4712.32 663712)
(-65.1488 -5.81957 1.09663 296270 -1323.15 740304)
(-63.5797 0.0693737 0.786749 547736 -908.855 494253)
(-64.2539 -0.215789 1.23367 479473 -1429.78 481716)
(-64.5971 -0.59807 1.28044 493493 -2720.44 490962)
(-64.9852 -1.10007 1.23995 512306 -4180.17 506691)
(-64.4442 -1.57563 1.1629 537137 -5009.53 532041)
(-64.9877 -2.50441 1.06884 574278 -4749.63 573605)
(-61.9218 -3.16738 0.938591 587342 -3432.31 635540)
(-65.4556 -6.05715 0.818236 284943 -915.952 711452)
(-63.7148 0.053251 0.496419 530542 -634.245 479099)
(-64.3356 -0.245795 0.792028 463266 -1092.73 467552)
(-64.6275 -0.639849 0.822696 477096 -1899.16 477435)
(-64.986 -1.15589 0.794222 496090 -2827.34 492991)
(-64.4012 -1.64745 0.742311 521307 -3375.24 517487)
(-64.9182 -2.59752 0.679411 558755 -3180.36 557731)
(-61.7705 -3.27978 0.596844 572333 -2247.72 618012)
(-65.2917 -6.20079 0.520913 277957 -603.947 693235)
(-63.9975 0.0466831 0.2936 520500 -393.035 470562)
(-64.6028 -0.262185 0.467032 453817 -707.559 459462)
(-64.8695 -0.66589 0.485492 467489 -1149.05 469649)
(-65.2113 -1.19227 0.468906 486521 -1635.51 485148)
(-64.5946 -1.69551 0.438823 511985 -1917.7 509136)
(-65.0826 -2.66009 0.401488 549691 -1790.27 548518)
(-61.8634 -3.3561 0.354047 563569 -1250.94 607719)
(-65.3484 -6.29882 0.308425 273830 -341.194 682440)
(-64.0408 0.0418741 0.090883 515829 -134.062 466684)
(-64.6317 -0.271503 0.147329 449425 -244.988 455769)
(-64.8837 -0.679174 0.153279 463029 -386.308 466060)
(-65.2164 -1.20975 0.147627 482070 -535.635 481530)
(-64.5888 -1.71815 0.137876 507644 -619.714 505285)
(-65.0661 -2.68859 0.125668 545476 -574.694 544255)
(-61.828 -3.39108 0.111003 559489 -399.401 602931)
(-65.2973 -6.34327 0.0962932 271902 -109.746 677395)
(371501 7100.68 -6.01807 894605 -0.826825 -26.0671)
(341902 -2368.7 -9.03749 703125 -0.760895 -20.9914)
(348944 -1825.21 -9.58721 723745 -0.476091 -18.6631)
(359358 -336.982 -9.63356 754007 -0.347367 -18.3809)
(372495 334.397 -9.54432 787776 -0.305998 -19.1936)
(392684 115.318 -9.46691 830882 -0.372413 -20.8563)
(422653 -46.7167 -9.33267 835005 -0.435514 -23.6725)
(450619 653.493 -9.70501 417570 -0.633922 -26.35)
(680575 -10900.7 -4.37182 802057 -0.40044 -33.9049)
(632104 -3231.02 -7.06595 684629 -0.412663 -32.8524)
(640940 -1186.04 -7.48627 689498 -0.227524 -32.3298)
(661321 -225.567 -7.48992 709339 -0.106808 -32.3296)
(689946 139.743 -7.43693 740752 -0.0303098 -32.6474)
(735023 -185.896 -7.43342 785944 -0.00344154 -33.2366)
(802721 -760.361 -7.46875 799256 -0.00158035 -34.0892)
(871911 -68.0337 -8.03591 407932 -0.0656281 -34.7953)
(674570 14474 -4.67401 794278 -0.221161 -30.2713)
(625634 5891.16 -7.51901 676214 -0.21843 -29.5185)
(634189 3159.99 -7.99561 680938 -0.0793961 -29.0704)
(654456 1672.08 -8.00343 700837 0.0497248 -29.0469)
(683041 879.377 -7.92362 732296 0.155739 -29.3888)
(728061 821.374 -7.86172 777505 0.250521 -29.9351)
(795569 957.2 -7.80156 791222 0.319022 -30.8884)
(865008 -43.5226 -8.26506 404469 0.33697 -31.8858)
(363986 -5405.19 -5.48571 871961 -0.145781 -31.075)
(334127 3511.44 -8.75897 680886 -0.11174 -30.6228)
(340760 2649.56 -9.33413 701460 0.0218392 -30.2904)
(351019 943.517 -9.35492 731886 0.166073 -30.272)
(364075 91.2258 -9.23818 765763 0.28761 -30.5394)
(383991 102.643 -9.13395 808833 0.425908 -30.8349)
(412924 -44.325 -8.93305 813530 0.536543 -31.4543)
(439534 -953.421 -9.36244 408004 0.681171 -32.0586)
(-12.4735 0.864744 2.53224 822398 7777.44 285796)
(-7.54629 0.561851 3.94511 631440 -2968.77 255770)
(-5.47971 -0.0743008 4.14671 652177 -3299 262926)
(-4.74964 -0.588022 4.12778 682361 -2342.24 272481)
(-5.31239 -0.924648 4.03478 715999 -1813.05 284745)
(-4.71017 -1.49006 4.03546 758891 -1783.21 303970)
(-7.21762 -1.56568 3.84368 763152 -1443.59 331825)
(2.34018 -4.0377 4.09968 356246 155.416 356316)
(-22.3656 0.275958 0.612023 686562 -15650.9 573198)
(-21.3426 0.0710509 1.2817 581824 -6818.89 530708)
(-20.881 -0.302487 1.30957 589851 -5765.5 539727)
(-20.3596 -0.685862 1.26393 609330 -5756.72 557786)
(-20.4999 -0.917289 1.2326 637883 -5573.01 584209)
(-18.7383 -1.4298 1.31428 679527 -5424.7 627063)
(-19.6759 -1.26486 1.34179 692272 -4981.87 692116)
(-7.13203 -3.78709 1.64914 331833 -1396.44 763344)
(-22.0731 0.133445 0.841937 598992 -3271.77 541488)
(-21.2652 -0.0844921 1.52244 522728 -2588.78 518174)
(-20.7979 -0.389166 1.60831 534215 -4094.13 525213)
(-20.1369 -0.750273 1.58878 551539 -5603.14 542108)
(-20.1403 -0.953677 1.55293 576494 -6227.02 569003)
(-17.9231 -1.47309 1.57377 614773 -5968.58 612851)
(-18.6167 -1.23279 1.5306 627955 -4905.19 679233)
(-4.45194 -3.97907 1.6065 304172 -1524.46 759608)
(-24.2937 0.0493649 0.527386 550901 -31.5671 499438)
(-23.8098 -0.180535 1.04476 480174 -589.065 482937)
(-23.5002 -0.450214 1.11517 493633 -2471.31 490141)
(-22.7778 -0.785877 1.10019 511557 -4400.11 505500)
(-22.6191 -0.952011 1.07182 535677 -5437.19 531135)
(-19.9158 -1.45326 1.08279 572517 -5257.41 573529)
(-20.1753 -1.14155 1.05207 586107 -3988.15 637735)
(-4.7286 -3.98205 1.09592 285244 -1065.13 718485)
(-24.4606 0.0364234 0.487721 523706 251.462 474244)
(-23.9845 -0.207336 0.89636 454370 -284.071 460240)
(-23.6554 -0.477529 0.960166 467879 -1619.27 468339)
(-22.8501 -0.814667 0.951787 486228 -3141.35 483050)
(-22.6077 -0.973181 0.926593 510553 -4061.41 507441)
(-19.6679 -1.47744 0.918746 547265 -3938.32 548177)
(-19.7931 -1.14149 0.876942 561419 -2845.93 610162)
(-3.62052 -4.07549 0.869808 273770 -710.716 689975)
(-25.0472 0.0292853 0.317117 507401 133.68 459589)
(-24.5957 -0.222939 0.594705 438793 -318.571 446646)
(-24.2604 -0.495125 0.639768 451942 -1132.98 455413)
(-23.3957 -0.83311 0.634356 470356 -2085.44 469949)
(-23.0758 -0.984967 0.617467 494987 -2686.94 493463)
(-19.9366 -1.48763 0.610487 531942 -2587.88 532841)
(-19.9149 -1.13225 0.582986 546513 -1819.6 593101)
(-3.19901 -4.12144 0.575729 266698 -454.14 672050)
(-25.1441 0.0298025 0.201026 497912 43.8785 451357)
(-24.6841 -0.228022 0.365766 429751 -262.347 438913)
(-24.3297 -0.504159 0.393353 442643 -701.048 448012)
(-23.4243 -0.845415 0.390416 461018 -1194.6 462497)
(-23.0626 -0.996453 0.380393 485841 -1503.78 485495)
(-19.8205 -1.50072 0.373681 523007 -1431.62 523989)
(-19.7384 -1.13719 0.355976 537818 -990.948 583124)
(-2.71324 -4.16446 0.345574 262528 -249.996 661467)
(-25.2773 0.0288245 0.0618464 493507 7.6549 447624)
(-24.8198 -0.231258 0.115673 425556 -99.8828 435391)
(-24.4576 -0.508698 0.124726 438335 -239.179 444611)
(-23.5327 -0.850838 0.123642 456683 -389.704 459072)
(-23.1446 -1.00124 0.120603 481588 -481.871 481834)
(-19.8491 -1.50503 0.118364 518856 -454.778 519906)
(-19.7196 -1.13764 0.113567 533773 -312.267 578495)
(-2.54579 -4.18233 0.110053 260579 -79.1399 656531)
(450719 9.70684 -588.581 -26.1336 -0.592165 417694)
(422684 9.34524 179.919 -23.3264 -0.393943 834980)
(392718 9.49564 26.0126 -20.2684 -0.314293 830955)
(372982 9.5984 -414.309 -18.2249 -0.210269 789178)
(361464 9.72832 -478.326 -16.7091 -0.167695 760244)
(354618 9.80749 -350.298 -15.6176 -0.106351 742043)
(350669 9.8678 -195.411 -14.9478 -0.0667616 731273)
(348838 9.89494 -61.2837 -14.6155 -0.0205823 726239)
(872021 8.02915 159.544 -34.6024 -0.0165781 408138)
(802803 7.46519 1020 -33.8068 0.0466703 799554)
(735332 7.43287 522.878 -32.7881 0.0617013 786617)
(691464 7.43685 53.9901 -31.986 0.0647257 742249)
(666191 7.4822 -136.232 -31.346 0.0473134 712028)
(651425 7.50773 -140.221 -30.8552 0.0375904 693030)
(643025 7.53263 -84.4872 -30.5475 0.0211432 681876)
(639166 7.54336 -26.7191 -30.3782 0.00829101 676710)
(865118 8.25664 109.055 -31.6933 0.39059 404714)
(795645 7.79284 -763.046 -30.5988 0.372319 791663)
(728321 7.85444 -432.179 -29.4727 0.321034 778459)
(684459 7.91844 -34.2736 -28.7018 0.252217 734261)
(659153 7.99982 125.083 -28.0312 0.191495 704203)
(644363 8.04845 122.545 -27.5723 0.132824 685326)
(635950 8.08651 71.7359 -27.2628 0.0776727 674250)
(632086 8.10289 22.2926 -27.1168 0.0256757 669123)
(439591 9.34292 974.573 -31.8766 0.736022 408131)
(412940 8.91259 89.7118 -31.1813 0.591375 813766)
(384021 9.11498 43.304 -30.417 0.495919 809570)
(364572 9.22688 405.733 -29.9459 0.378503 768360)
(353125 9.35984 453.325 -29.443 0.291571 739906)
(346326 9.4374 328.689 -29.1398 0.199357 722078)
(342405 9.4964 182.002 -28.9076 0.119003 711562)
(340589 9.52248 56.7984 -28.8001 0.0389978 706658)
)
;
    }
    symmetry
    {
        type            symmetry;
    }
    bottom
    {
        type            calculated;
        value           nonuniform List<symmTensor> 
32
(
(-781588 32584.6 -1370.46 -103344 32316.8 -809344)
(-515459 30191.3 -1064.87 -8613.41 -24182.9 -205174)
(-447249 27965.5 -931.053 -11384 -8525.07 -135663)
(-413836 26039.7 -724.655 -10251.9 -2720.47 -125360)
(-394406 24713.8 -473.94 -9041.44 -1251.59 -120457)
(-382974 23893.2 -281.765 -8891.57 -757.907 -117426)
(-376513 23424.3 -147.809 -9123.25 -445.124 -115644)
(-373575 23210.7 -46.0514 -9317.08 -149.727 -114816)
(-221757 -13695 -295.863 -16672.6 31891.7 -581414)
(-37414.2 -12462.1 279.599 50324.9 -21030.8 -42234)
(-26487.8 -11691.6 81.8081 33570.2 -6841.23 3704.29)
(-26967.5 -11404.8 -15.5462 26923.5 -1716.59 1859.62)
(-26867.9 -11374.8 -29.5751 23993.4 -535.659 -243.531)
(-26759.9 -11408.3 -16.5878 21868.9 -269.593 -1362.04)
(-26721.5 -11435.8 -5.43481 20406 -165.728 -1911.43)
(-26715.1 -11448.1 -0.935864 19663 -59.5185 -2135.77)
(-220290 16853.7 359.395 -16813.9 32348.5 -576959)
(-38024.9 13565.5 -12.8074 47360.1 -20014.2 -43420.1)
(-27036.3 11849.9 229.549 30799 -6024.01 2386.75)
(-27489 11135.8 309.398 24496.9 -1117.17 726.164)
(-27396.1 10896.7 265.465 21839 -110.481 -1238.95)
(-27293.3 10824 184.7 19910.2 13.9581 -2265.49)
(-27256.5 10800 105.526 18573.5 -3.32091 -2757.51)
(-27250.4 10791.8 34.1296 17892.2 -6.65331 -2953.99)
(-765384 -31176.8 1588.3 -102997 34261 -794011)
(-502126 -29401.2 1291.88 -13826.5 -20985.6 -203585)
(-433159 -27587 1057.38 -14529.3 -6022.15 -133372)
(-399559 -25966.3 811.881 -11549.6 -895.383 -122183)
(-380097 -24835.6 542.218 -9010.88 32.0174 -116704)
(-368640 -24130 331.932 -7946.84 89.2221 -113289)
(-362161 -23724.3 178.362 -7608.81 36.0573 -111267)
(-359213 -23538.5 56.2706 -7529.76 6.22198 -110325)
)
;
    }
}


// ************************************************************************* //
