/*--------------------------------*- C++ -*----------------------------------*\
| =========                 |                                                 |
| \\      /  F ield         | OpenFOAM: The Open Source CFD Toolbox           |
|  \\    /   O peration     | Version:  v1912                                 |
|   \\  /    A nd           | Website:  www.openfoam.com                      |
|    \\/     M anipulation  |                                                 |
\*---------------------------------------------------------------------------*/
FoamFile
{
    version     2.0;
    format      ascii;
    class       volVectorField;
    location    "0.3/fluid";
    object      cellMotionU;
}
// * * * * * * * * * * * * * * * * * * * * * * * * * * * * * * * * * * * * * //

dimensions      [0 1 -1 0 0 0 0];


internalField   nonuniform List<vector> 
14592
(
(1.97433e-10 -5.12365e-10 3.85039e-10)
(5.49256e-10 -1.43376e-09 1.08931e-09)
(8.70331e-10 -2.29241e-09 1.78118e-09)
(1.16901e-09 -3.12002e-09 2.50366e-09)
(1.45559e-09 -3.94203e-09 3.30138e-09)
(1.73745e-09 -4.76637e-09 4.20953e-09)
(2.02355e-09 -5.59015e-09 5.2635e-09)
(2.32469e-09 -6.39486e-09 6.4973e-09)
(2.65813e-09 -7.13398e-09 7.94187e-09)
(3.05664e-09 -7.71858e-09 9.62872e-09)
(3.59508e-09 -7.97611e-09 1.15945e-08)
(4.44907e-09 -7.56382e-09 1.39083e-08)
(6.07926e-09 -5.68998e-09 1.67785e-08)
(9.69166e-09 -2.98204e-10 2.08806e-08)
(1.8264e-08 1.40118e-08 2.81789e-08)
(3.48354e-08 4.40913e-08 4.04459e-08)
(5.88496e-10 -1.52179e-09 1.14491e-09)
(1.63826e-09 -4.25893e-09 3.23997e-09)
(2.59389e-09 -6.81183e-09 5.29471e-09)
(3.48598e-09 -9.27913e-09 7.44659e-09)
(4.33932e-09 -1.17236e-08 9.81197e-09)
(5.17897e-09 -1.41807e-08 1.25032e-08)
(6.03061e-09 -1.66488e-08 1.56251e-08)
(6.92498e-09 -1.90775e-08 1.92749e-08)
(7.90665e-09 -2.13476e-08 2.35425e-08)
(9.05586e-09 -2.32251e-08 2.85066e-08)
(1.05404e-08 -2.42933e-08 3.42387e-08)
(1.27167e-08 -2.38131e-08 4.08109e-08)
(1.64083e-08 -2.04534e-08 4.83731e-08)
(2.32867e-08 -1.1924e-08 5.73407e-08)
(3.61432e-08 4.85859e-09 6.85124e-08)
(5.46655e-08 2.763e-08 8.07968e-08)
(9.69908e-10 -2.48548e-09 1.87654e-09)
(2.69979e-09 -6.9584e-09 5.30941e-09)
(4.27577e-09 -1.1139e-08 8.67812e-09)
(5.74586e-09 -1.51809e-08 1.21975e-08)
(7.15385e-09 -1.91998e-08 1.60647e-08)
(8.54061e-09 -2.32607e-08 2.04603e-08)
(9.94838e-09 -2.73762e-08 2.55555e-08)
(1.1425e-08 -3.14913e-08 3.15111e-08)
(1.30326e-08 -3.54529e-08 3.8472e-08)
(1.48711e-08 -3.8967e-08 4.65636e-08)
(1.71161e-08 -4.15294e-08 5.58682e-08)
(2.01057e-08 -4.23387e-08 6.64043e-08)
(2.45796e-08 -4.01906e-08 7.81318e-08)
(3.18842e-08 -3.37107e-08 9.10402e-08)
(4.41639e-08 -2.24315e-08 1.05286e-07)
(6.09479e-08 -1.07253e-08 1.19628e-07)
(1.33531e-09 -3.37189e-09 2.56201e-09)
(3.71623e-09 -9.44552e-09 7.24771e-09)
(5.88607e-09 -1.51309e-08 1.18427e-08)
(7.91151e-09 -2.06462e-08 1.66395e-08)
(9.85239e-09 -2.61504e-08 2.18991e-08)
(1.17673e-08 -3.17527e-08 2.78697e-08)
(1.37155e-08 -3.74975e-08 3.47849e-08)
(1.57616e-08 -4.33514e-08 4.28647e-08)
(1.79825e-08 -4.91804e-08 5.23136e-08)
(2.04811e-08 -5.47071e-08 6.33054e-08)
(2.33824e-08 -5.94666e-08 7.59417e-08)
(2.69373e-08 -6.27148e-08 9.02144e-08)
(3.15248e-08 -6.344e-08 1.05893e-07)
(3.78601e-08 -6.0565e-08 1.22518e-07)
(4.71843e-08 -5.37751e-08 1.39342e-07)
(5.94009e-08 -4.58233e-08 1.54063e-07)
(1.67792e-09 -4.15102e-09 3.18563e-09)
(4.67046e-09 -1.16343e-08 9.01156e-09)
(7.39759e-09 -1.86537e-08 1.47181e-08)
(9.94292e-09 -2.54824e-08 2.06615e-08)
(1.23846e-08 -3.23361e-08 2.71664e-08)
(1.47977e-08 -3.93694e-08 3.45354e-08)
(1.72604e-08 -4.66724e-08 4.30573e-08)
(1.98581e-08 -5.42614e-08 5.30089e-08)
(2.26883e-08 -6.20619e-08 6.46539e-08)
(2.58626e-08 -6.98835e-08 7.82285e-08)
(2.95071e-08 -7.73721e-08 9.39028e-08)
(3.37546e-08 -8.39305e-08 1.11698e-07)
(3.87435e-08 -8.86268e-08 1.31379e-07)
(4.45847e-08 -9.0111e-08 1.52223e-07)
(5.16356e-08 -8.67985e-08 1.72683e-07)
(6.0036e-08 -7.92362e-08 1.88934e-07)
(1.99246e-09 -4.79494e-09 3.73654e-09)
(5.54552e-09 -1.34437e-08 1.05659e-08)
(8.78201e-09 -2.15719e-08 1.72426e-08)
(1.18025e-08 -2.95109e-08 2.41808e-08)
(1.46993e-08 -3.75231e-08 3.17497e-08)
(1.75653e-08 -4.58151e-08 4.02991e-08)
(2.04984e-08 -5.45309e-08 5.01622e-08)
(2.36089e-08 -6.37514e-08 6.16628e-08)
(2.70285e-08 -7.34925e-08 7.51215e-08)
(3.09095e-08 -8.3694e-08 9.08451e-08)
(3.54352e-08 -9.41916e-08 1.09106e-07)
(4.08075e-08 -1.04653e-07 1.30091e-07)
(4.72079e-08 -1.14397e-07 1.53796e-07)
(5.46427e-08 -1.21955e-07 1.79744e-07)
(6.28209e-08 -1.24152e-07 2.06214e-07)
(7.03989e-08 -1.17259e-07 2.27347e-07)
(2.27321e-09 -5.27523e-09 4.20492e-09)
(6.32592e-09 -1.47966e-08 1.18843e-08)
(1.00148e-08 -2.37646e-08 1.93755e-08)
(1.34524e-08 -3.25558e-08 2.71313e-08)
(1.67455e-08 -4.14808e-08 3.55598e-08)
(2.00006e-08 -5.07912e-08 4.50403e-08)
(2.33338e-08 -6.06838e-08 5.59352e-08)
(2.68808e-08 -7.13074e-08 6.86005e-08)
(3.08116e-08 -8.27738e-08 8.33967e-08)
(3.53439e-08 -9.51698e-08 1.00692e-07)
(4.07787e-08 -1.08569e-07 1.2087e-07)
(4.75483e-08 -1.23037e-07 1.44332e-07)
(5.6302e-08 -1.38598e-07 1.7153e-07)
(6.79271e-08 -1.54968e-07 2.02861e-07)
(8.33587e-08 -1.70486e-07 2.37923e-07)
(1.00045e-07 -1.79446e-07 2.69996e-07)
(2.51567e-09 -5.56916e-09 4.58562e-09)
(6.99889e-09 -1.56286e-08 1.29524e-08)
(1.10741e-08 -2.51247e-08 2.10907e-08)
(1.48634e-08 -3.44713e-08 2.94821e-08)
(1.8481e-08 -4.40122e-08 3.85527e-08)
(2.20434e-08 -5.4036e-08 4.86977e-08)
(2.56784e-08 -6.4782e-08 6.02906e-08)
(2.95382e-08 -7.64533e-08 7.36955e-08)
(3.382e-08 -8.92367e-08 8.92839e-08)
(3.87892e-08 -1.03331e-07 1.07443e-07)
(4.48404e-08 -1.18988e-07 1.286e-07)
(5.26104e-08 -1.36607e-07 1.53289e-07)
(6.32174e-08 -1.56914e-07 1.82299e-07)
(7.87462e-08 -1.81322e-07 2.16946e-07)
(1.03095e-07 -2.12299e-07 2.59292e-07)
(1.36848e-07 -2.48299e-07 3.0552e-07)
(1.93391e-10 -5.22317e-10 3.65976e-10)
(5.37627e-10 -1.46164e-09 1.03552e-09)
(8.48898e-10 -2.3376e-09 1.69101e-09)
(1.13577e-09 -3.18319e-09 2.37587e-09)
(1.40454e-09 -4.02246e-09 3.12749e-09)
(1.66055e-09 -4.86685e-09 3.98038e-09)
(1.90789e-09 -5.71541e-09 4.96574e-09)
(2.14984e-09 -6.55266e-09 6.1121e-09)
(2.39091e-09 -7.33954e-09 7.44293e-09)
(2.64082e-09 -8.00234e-09 8.97582e-09)
(2.92569e-09 -8.40594e-09 1.07178e-08)
(3.32906e-09 -8.29583e-09 1.26687e-08)
(4.03316e-09 -7.16061e-09 1.48227e-08)
(5.45326e-09 -3.85096e-09 1.7216e-08)
(8.13216e-09 3.94228e-09 1.98291e-08)
(1.12035e-08 1.71058e-08 2.14056e-08)
(5.76942e-10 -1.55093e-09 1.08845e-09)
(1.6034e-09 -4.34076e-09 3.07795e-09)
(2.53245e-09 -6.94423e-09 5.02757e-09)
(3.3883e-09 -9.4601e-09 7.0619e-09)
(4.19085e-09 -1.19576e-08 9.29246e-09)
(4.95618e-09 -1.44746e-08 1.18208e-08)
(5.69665e-09 -1.70142e-08 1.47396e-08)
(6.42191e-09 -1.95357e-08 1.81313e-08)
(7.14127e-09 -2.19385e-08 2.20645e-08)
(7.87287e-09 -2.40271e-08 2.65812e-08)
(8.66826e-09 -2.54704e-08 3.16801e-08)
(9.66409e-09 -2.57235e-08 3.72776e-08)
(1.11812e-08 -2.39266e-08 4.31406e-08)
(1.37502e-08 -1.89113e-08 4.87226e-08)
(1.76691e-08 -1.00114e-08 5.26954e-08)
(2.09721e-08 -8.2021e-10 5.25682e-08)
(9.51613e-10 -2.53256e-09 1.78361e-09)
(2.64505e-09 -7.09044e-09 5.04361e-09)
(4.17862e-09 -1.13505e-08 8.23756e-09)
(5.5929e-09 -1.54738e-08 1.15673e-08)
(6.92208e-09 -1.95781e-08 1.52146e-08)
(8.19409e-09 -2.37343e-08 1.93447e-08)
(9.43122e-09 -2.79618e-08 2.41098e-08)
(1.06499e-08 -3.22173e-08 2.96467e-08)
(1.18616e-08 -3.63711e-08 3.60681e-08)
(1.30756e-08 -4.01783e-08 4.34448e-08)
(1.4314e-08 -4.3235e-08 5.17657e-08)
(1.5655e-08 -4.49507e-08 6.08724e-08)
(1.7257e-08 -4.45976e-08 7.03046e-08)
(1.9391e-08 -4.17043e-08 7.91338e-08)
(2.20496e-08 -3.72646e-08 8.55862e-08)
(2.36799e-08 -3.53273e-08 8.72719e-08)
(1.31149e-09 -3.43524e-09 2.43449e-09)
(3.64633e-09 -9.62244e-09 6.88524e-09)
(5.76188e-09 -1.54154e-08 1.12417e-08)
(7.71616e-09 -2.10374e-08 1.57792e-08)
(9.55803e-09 -2.66558e-08 2.07407e-08)
(1.13296e-08 -3.2383e-08 2.63514e-08)
(1.30662e-08 -3.82699e-08 3.28194e-08)
(1.47955e-08 -4.42947e-08 4.03342e-08)
(1.65341e-08 -5.03446e-08 4.90575e-08)
(1.82779e-08 -5.61863e-08 5.90958e-08)
(2.00069e-08 -6.1438e-08 7.04632e-08)
(2.16357e-08 -6.55534e-08 8.29325e-08)
(2.3026e-08 -6.79032e-08 9.59319e-08)
(2.38714e-08 -6.81619e-08 1.0818e-07)
(2.3597e-08 -6.7213e-08 1.17327e-07)
(2.1472e-08 -6.76938e-08 1.20259e-07)
(1.65095e-09 -4.22862e-09 3.02773e-09)
(4.59052e-09 -1.18503e-08 8.5608e-09)
(7.25593e-09 -1.89997e-08 1.39715e-08)
(9.72155e-09 -2.59599e-08 1.95957e-08)
(1.20525e-08 -3.29505e-08 2.57322e-08)
(1.4307e-08 -4.0131e-08 3.26576e-08)
(1.6538e-08 -4.75964e-08 4.06299e-08)
(1.87925e-08 -5.53704e-08 4.98883e-08)
(2.11049e-08 -6.33918e-08 6.06448e-08)
(2.34859e-08 -7.1497e-08 7.30632e-08)
(2.58877e-08 -7.9388e-08 8.71945e-08)
(2.81441e-08 -8.65946e-08 1.02868e-07)
(2.98223e-08 -9.24623e-08 1.19471e-07)
(3.00274e-08 -9.62617e-08 1.35545e-07)
(2.73653e-08 -9.77158e-08 1.48144e-07)
(2.15717e-08 -9.82414e-08 1.52971e-07)
(1.96408e-09 -4.88352e-09 3.55167e-09)
(5.46133e-09 -1.36909e-08 1.00381e-08)
(8.63349e-09 -2.19687e-08 1.63703e-08)
(1.15708e-08 -3.00561e-08 2.29353e-08)
(1.43541e-08 -3.82227e-08 3.00765e-08)
(1.70592e-08 -4.66774e-08 3.81118e-08)
(1.97605e-08 -5.55665e-08 4.73396e-08)
(2.25322e-08 -6.4973e-08 5.80409e-08)
(2.54466e-08 -7.49155e-08 7.04761e-08)
(2.85647e-08 -8.53384e-08 8.4869e-08)
(3.19054e-08 -9.60937e-08 1.01353e-07)
(3.53737e-08 -1.06884e-07 1.19875e-07)
(3.85632e-08 -1.17139e-07 1.39979e-07)
(4.03627e-08 -1.25739e-07 1.60317e-07)
(3.84409e-08 -1.30662e-07 1.77687e-07)
(3.08395e-08 -1.3018e-07 1.86356e-07)
(2.24519e-09 -5.37223e-09 3.99727e-09)
(6.24287e-09 -1.50671e-08 1.12923e-08)
(9.86842e-09 -2.4198e-08 1.83974e-08)
(1.32257e-08 -3.31515e-08 2.57381e-08)
(1.64096e-08 -4.22426e-08 3.36908e-08)
(1.95124e-08 -5.17252e-08 4.2602e-08)
(2.26296e-08 -6.17954e-08 5.27965e-08)
(2.58664e-08 -7.25989e-08 6.45831e-08)
(2.93422e-08 -8.42388e-08 7.82557e-08)
(3.31989e-08 -9.67867e-08 9.40887e-08)
(3.75966e-08 -1.10288e-07 1.12297e-07)
(4.27035e-08 -1.24757e-07 1.32983e-07)
(4.85992e-08 -1.40113e-07 1.55961e-07)
(5.49795e-08 -1.55914e-07 1.803e-07)
(6.02328e-08 -1.70475e-07 2.03028e-07)
(6.02217e-08 -1.79179e-07 2.16813e-07)
(2.48946e-09 -5.67107e-09 4.35974e-09)
(6.9213e-09 -1.59128e-08 1.23089e-08)
(1.09378e-08 -2.55804e-08 2.00297e-08)
(1.46528e-08 -3.50966e-08 2.79723e-08)
(1.81713e-08 -4.48101e-08 3.65321e-08)
(2.15975e-08 -5.50102e-08 4.60693e-08)
(2.50429e-08 -6.59335e-08 5.69184e-08)
(2.86358e-08 -7.77755e-08 6.93955e-08)
(3.25345e-08 -9.07064e-08 8.38025e-08)
(3.69472e-08 -1.04894e-07 1.00428e-07)
(4.21626e-08 -1.20534e-07 1.19521e-07)
(4.86075e-08 -1.37908e-07 1.41266e-07)
(5.69299e-08 -1.57472e-07 1.65682e-07)
(6.81273e-08 -1.79986e-07 1.9228e-07)
(8.32882e-08 -2.06161e-07 2.18742e-07)
(9.9971e-08 -2.32152e-07 2.37032e-07)
(1.88575e-10 -5.30784e-10 3.3365e-10)
(5.23195e-10 -1.48533e-09 9.43238e-10)
(8.23713e-10 -2.3758e-09 1.54029e-09)
(1.09587e-09 -3.23574e-09 2.16136e-09)
(1.34406e-09 -4.09037e-09 2.84145e-09)
(1.56986e-09 -4.9522e-09 3.6096e-09)
(1.77178e-09 -5.82358e-09 4.49225e-09)
(1.94471e-09 -6.6914e-09 5.51031e-09)
(2.07787e-09 -7.5294e-09 6.68027e-09)
(2.15469e-09 -8.28085e-09 8.00324e-09)
(2.15272e-09 -8.85814e-09 9.46188e-09)
(2.03613e-09 -9.11997e-09 1.09912e-08)
(1.74578e-09 -8.83051e-09 1.24515e-08)
(1.05511e-09 -7.59624e-09 1.35154e-08)
(-8.0413e-10 -4.85327e-09 1.34342e-08)
(-5.12776e-09 -8.66066e-10 1.08549e-08)
(5.62724e-10 -1.57576e-09 9.91873e-10)
(1.56173e-09 -4.41023e-09 2.80461e-09)
(2.45856e-09 -7.05578e-09 4.57763e-09)
(3.27223e-09 -9.61368e-09 6.42419e-09)
(4.01526e-09 -1.21558e-08 8.44238e-09)
(4.69338e-09 -1.4724e-08 1.07201e-08)
(5.30365e-09 -1.73263e-08 1.33338e-08)
(5.83117e-09 -1.9936e-08 1.63489e-08)
(6.24479e-09 -2.24729e-08 1.98065e-08)
(6.49286e-09 -2.47957e-08 2.37123e-08)
(6.49839e-09 -2.66787e-08 2.79978e-08)
(6.1549e-09 -2.78069e-08 3.2451e-08)
(5.29584e-09 -2.77999e-08 3.65789e-08)
(3.58066e-09 -2.6384e-08 3.93507e-08)
(2.86824e-10 -2.39547e-08 3.88419e-08)
(-4.84524e-09 -2.25245e-08 3.35357e-08)
(9.29138e-10 -2.57264e-09 1.62538e-09)
(2.57923e-09 -7.20236e-09 4.59579e-09)
(4.06217e-09 -1.15301e-08 7.50079e-09)
(5.4104e-09 -1.57207e-08 1.05235e-08)
(6.64673e-09 -1.98957e-08 1.38237e-08)
(7.78342e-09 -2.41306e-08 1.75444e-08)
(8.81968e-09 -2.84529e-08 2.1813e-08)
(9.73567e-09 -3.2832e-08 2.67356e-08)
(1.04843e-08 -3.71706e-08 3.23869e-08)
(1.09786e-08 -4.12809e-08 3.87811e-08)
(1.1075e-08 -4.48854e-08 4.58203e-08)
(1.05437e-08 -4.76375e-08 5.31788e-08)
(9.05648e-09 -4.92527e-08 6.0168e-08)
(6.10428e-09 -4.99023e-08 6.54351e-08)
(1.12432e-09 -5.08578e-08 6.68921e-08)
(-5.14668e-09 -5.39227e-08 6.34497e-08)
(1.28266e-09 -3.48901e-09 2.21945e-09)
(3.56112e-09 -9.77266e-09 6.27344e-09)
(5.61189e-09 -1.56554e-08 1.02374e-08)
(7.48165e-09 -2.13662e-08 1.43565e-08)
(9.20552e-09 -2.70762e-08 1.88462e-08)
(1.08064e-08 -3.29024e-08 2.39011e-08)
(1.22915e-08 -3.89013e-08 2.96955e-08)
(1.36458e-08 -4.50648e-08 3.63796e-08)
(1.4817e-08 -5.13025e-08 4.40618e-08)
(1.56968e-08 -5.74343e-08 5.27839e-08)
(1.60663e-08 -6.31832e-08 6.2431e-08)
(1.55707e-08 -6.82008e-08 7.26646e-08)
(1.35765e-08 -7.2215e-08 8.26504e-08)
(9.17207e-09 -7.53896e-08 9.08832e-08)
(1.52e-09 -7.87986e-08 9.50585e-08)
(-7.75531e-09 -8.33784e-08 9.36812e-08)
(1.61754e-09 -4.29419e-09 2.76029e-09)
(4.49224e-09 -1.20327e-08 7.80164e-09)
(7.08316e-09 -1.92909e-08 1.27251e-08)
(9.45235e-09 -2.63571e-08 1.78313e-08)
(1.16497e-08 -3.34547e-08 2.33847e-08)
(1.37125e-08 -4.07457e-08 2.96242e-08)
(1.56642e-08 -4.83288e-08 3.67674e-08)
(1.75058e-08 -5.62319e-08 4.50031e-08)
(1.92031e-08 -6.44078e-08 5.44815e-08)
(2.06521e-08 -7.27185e-08 6.52741e-08)
(2.16261e-08 -8.09263e-08 7.73087e-08)
(2.16641e-08 -8.86835e-08 9.02332e-08)
(1.98888e-08 -9.55721e-08 1.03214e-07)
(1.48458e-08 -1.01266e-07 1.14623e-07)
(4.97606e-09 -1.05875e-07 1.21861e-07)
(-7.66527e-09 -1.09919e-07 1.22685e-07)
(1.9282e-09 -4.95822e-09 3.23794e-09)
(5.35629e-09 -1.3899e-08 9.14952e-09)
(8.44918e-09 -2.23002e-08 1.49123e-08)
(1.12847e-08 -3.05062e-08 2.08734e-08)
(1.39282e-08 -3.87896e-08 2.73362e-08)
(1.64351e-08 -4.73598e-08 3.45764e-08)
(1.88502e-08 -5.63611e-08 4.28448e-08)
(2.12048e-08 -6.58738e-08 5.23653e-08)
(2.35038e-08 -7.59105e-08 6.33228e-08)
(2.57001e-08 -8.64123e-08 7.58294e-08)
(2.76386e-08 -9.72289e-08 8.98597e-08)
(2.89348e-08 -1.08075e-07 1.05116e-07)
(2.87242e-08 -1.18439e-07 1.20808e-07)
(2.52883e-08 -1.27385e-07 1.35267e-07)
(1.60602e-08 -1.33326e-07 1.45631e-07)
(1.50913e-09 -1.34695e-07 1.48916e-07)
(2.20906e-09 -5.45354e-09 3.6452e-09)
(6.13693e-09 -1.52934e-08 1.02945e-08)
(9.68315e-09 -2.45578e-08 1.67618e-08)
(1.29392e-08 -3.36385e-08 2.34282e-08)
(1.59857e-08 -4.28517e-08 3.06264e-08)
(1.88957e-08 -5.24494e-08 3.86567e-08)
(2.17384e-08 -6.26217e-08 4.77927e-08)
(2.45793e-08 -7.35013e-08 5.82794e-08)
(2.74797e-08 -8.51698e-08 7.03269e-08)
(3.04813e-08 -9.76621e-08 8.40765e-08)
(3.35858e-08 -1.10961e-07 9.95457e-08)
(3.66789e-08 -1.24967e-07 1.16494e-07)
(3.93578e-08 -1.3941e-07 1.34187e-07)
(4.05823e-08 -1.53566e-07 1.50899e-07)
(3.8214e-08 -1.65555e-07 1.63299e-07)
(3.05279e-08 -1.71532e-07 1.67272e-07)
(2.45469e-09 -5.7561e-09 3.97647e-09)
(6.81959e-09 -1.61493e-08 1.12235e-08)
(1.07603e-08 -2.59565e-08 1.82525e-08)
(1.43795e-08 -3.56039e-08 2.54669e-08)
(1.77693e-08 -4.54411e-08 3.32159e-08)
(2.10175e-08 -5.57532e-08 4.18122e-08)
(2.42125e-08 -6.67669e-08 5.15372e-08)
(2.74503e-08 -7.8658e-08 6.26417e-08)
(3.08385e-08 -9.15631e-08 7.53396e-08)
(3.45032e-08 -1.05589e-07 8.97782e-08)
(3.85943e-08 -1.20826e-07 1.05983e-07)
(4.3285e-08 -1.37354e-07 1.23737e-07)
(4.87527e-08 -1.55242e-07 1.42331e-07)
(5.51572e-08 -1.74504e-07 1.59969e-07)
(6.25582e-08 -1.94696e-07 1.72705e-07)
(6.99956e-08 -2.12278e-07 1.74586e-07)
(1.83423e-10 -5.37652e-10 2.89399e-10)
(5.08194e-10 -1.50456e-09 8.18283e-10)
(7.96957e-10 -2.40647e-09 1.33444e-09)
(1.05429e-09 -3.27792e-09 1.87205e-09)
(1.28137e-09 -4.14496e-09 2.45802e-09)
(1.47645e-09 -5.02131e-09 3.11713e-09)
(1.63306e-09 -5.91059e-09 3.86947e-09)
(1.73821e-09 -6.80541e-09 4.73069e-09)
(1.76895e-09 -7.68572e-09 5.70879e-09)
(1.68823e-09 -8.5141e-09 6.79716e-09)
(1.4358e-09 -9.2384e-09 7.96482e-09)
(9.19264e-10 -9.78685e-09 9.14262e-09)
(-4.14224e-11 -1.00747e-08 1.01835e-08)
(-1.84705e-09 -9.98466e-09 1.08609e-08)
(-5.41499e-09 -9.32927e-09 1.08772e-08)
(-1.13521e-08 -7.87066e-09 1.00975e-08)
(5.47767e-10 -1.59601e-09 8.60595e-10)
(1.51756e-09 -4.46661e-09 2.4319e-09)
(2.38099e-09 -7.14609e-09 3.96814e-09)
(3.15084e-09 -9.73778e-09 5.56396e-09)
(3.83261e-09 -1.23154e-08 7.30318e-09)
(4.4219e-09 -1.49241e-08 9.25694e-09)
(4.90142e-09 -1.75774e-08 1.14856e-08)
(5.23455e-09 -2.02578e-08 1.40354e-08)
(5.35675e-09 -2.29081e-08 1.69281e-08)
(5.16168e-09 -2.54286e-08 2.0144e-08)
(4.48586e-09 -2.76756e-08 2.35873e-08)
(3.08996e-09 -2.94835e-08 2.70332e-08)
(6.29673e-10 -3.07092e-08 3.00393e-08)
(-3.35099e-09 -3.13296e-08 3.18556e-08)
(-9.12746e-09 -3.15414e-08 3.15423e-08)
(-1.50623e-08 -3.16135e-08 2.92129e-08)
(9.05471e-10 -2.60533e-09 1.41044e-09)
(2.50933e-09 -7.29371e-09 3.98559e-09)
(3.93943e-09 -1.16758e-08 6.50231e-09)
(5.21884e-09 -1.59196e-08 9.1154e-09)
(6.35916e-09 -2.01497e-08 1.19592e-08)
(7.35738e-09 -2.44452e-08 1.51508e-08)
(8.19102e-09 -2.88391e-08 1.87901e-08)
(8.80843e-09 -3.33149e-08 2.29546e-08)
(9.11423e-09 -3.77987e-08 2.76853e-08)
(8.94613e-09 -4.21539e-08 3.29565e-08)
(8.05068e-09 -4.61936e-08 3.86325e-08)
(6.06626e-09 -4.97215e-08 4.44005e-08)
(2.5063e-09 -5.26575e-08 4.9633e-08)
(-3.05997e-09 -5.52731e-08 5.34175e-08)
(-1.03597e-08 -5.83671e-08 5.4829e-08)
(-1.66263e-08 -6.21988e-08 5.4326e-08)
(1.25173e-09 -3.53304e-09 1.92538e-09)
(3.47072e-09 -9.89483e-09 5.44258e-09)
(5.45301e-09 -1.58499e-08 8.87629e-09)
(7.23419e-09 -2.16299e-08 1.24373e-08)
(8.83525e-09 -2.74091e-08 1.63061e-08)
(1.02602e-08 -3.3307e-08 2.06418e-08)
(1.14902e-08 -3.93857e-08 2.55824e-08)
(1.24718e-08 -4.56449e-08 3.12376e-08)
(1.30973e-08 -5.20149e-08 3.76703e-08)
(1.31722e-08 -5.83539e-08 4.48634e-08)
(1.23829e-08 -6.44529e-08 5.26839e-08)
(1.02254e-08 -7.00803e-08 6.07377e-08)
(6.01221e-09 -7.50985e-08 6.83711e-08)
(-9.54142e-10 -7.97111e-08 7.45841e-08)
(-1.04613e-08 -8.45971e-08 7.84274e-08)
(-1.89734e-08 -8.96401e-08 8.00179e-08)
(1.58166e-09 -4.34752e-09 2.39547e-09)
(4.38717e-09 -1.21811e-08 6.76931e-09)
(6.89885e-09 -1.95257e-08 1.10354e-08)
(9.16614e-09 -2.6673e-08 1.54502e-08)
(1.12231e-08 -3.38483e-08 2.02354e-08)
(1.30867e-08 -4.12147e-08 2.55872e-08)
(1.47517e-08 -4.88709e-08 3.16775e-08)
(1.61796e-08 -5.68473e-08 3.86458e-08)
(1.72767e-08 -6.51014e-08 4.65806e-08)
(1.78595e-08 -7.35093e-08 5.54884e-08)
(1.75969e-08 -8.18619e-08 6.52287e-08)
(1.592e-08 -8.98587e-08 7.54254e-08)
(1.19224e-08 -9.71425e-08 8.53692e-08)
(4.45697e-09 -1.03395e-07 9.40245e-08)
(-6.89084e-09 -1.08493e-07 1.00326e-07)
(-1.82517e-08 -1.12322e-07 1.03915e-07)
(1.88958e-09 -5.01898e-09 2.81117e-09)
(5.24288e-09 -1.40674e-08 7.94045e-09)
(8.2508e-09 -2.25658e-08 1.29347e-08)
(1.09776e-08 -3.08608e-08 1.8089e-08)
(1.34727e-08 -3.92258e-08 2.36581e-08)
(1.57706e-08 -4.78681e-08 2.98682e-08)
(1.78885e-08 -5.69272e-08 3.69184e-08)
(1.9818e-08 -6.64747e-08 4.49728e-08)
(2.15075e-08 -7.6511e-08 5.41421e-08)
(2.28341e-08 -8.69586e-08 6.44548e-08)
(2.3544e-08 -9.76415e-08 7.57832e-08)
(2.31508e-08 -1.08237e-07 8.77512e-08)
(2.0765e-08 -1.18179e-07 9.96165e-08)
(1.49826e-08 -1.26464e-07 1.1025e-07)
(4.42599e-09 -1.31398e-07 1.18408e-07)
(-8.52243e-09 -1.31363e-07 1.23458e-07)
(2.16957e-09 -5.51929e-09 3.16509e-09)
(6.02133e-09 -1.54756e-08 8.93605e-09)
(9.48126e-09 -2.48443e-08 1.45418e-08)
(1.26279e-08 -3.40184e-08 2.03068e-08)
(1.55262e-08 -4.33134e-08 2.65102e-08)
(1.82299e-08 -5.29764e-08 3.33989e-08)
(2.0782e-08 -6.31867e-08 4.11895e-08)
(2.32123e-08 -7.40588e-08 5.00614e-08)
(2.55289e-08 -8.56442e-08 6.01391e-08)
(2.77053e-08 -9.79278e-08 7.14631e-08)
(2.96483e-08 -1.10813e-07 8.39103e-08)
(3.11365e-08 -1.24071e-07 9.70889e-08)
(3.17093e-08 -1.37235e-07 1.10177e-07)
(3.05562e-08 -1.49345e-07 1.21809e-07)
(2.66394e-08 -1.5841e-07 1.30242e-07)
(2.03409e-08 -1.61322e-07 1.34575e-07)
(2.41618e-09 -5.82442e-09 3.4535e-09)
(6.70684e-09 -1.63388e-08 9.74457e-09)
(1.0564e-08 -2.62538e-08 1.58385e-08)
(1.4078e-08 -3.59963e-08 2.20784e-08)
(1.73267e-08 -4.59132e-08 2.87577e-08)
(2.03806e-08 -5.62826e-08 3.61337e-08)
(2.33054e-08 -6.7316e-08 4.44292e-08)
(2.61648e-08 -7.91639e-08 5.38265e-08)
(2.90214e-08 -9.19189e-08 6.44501e-08)
(3.19396e-08 -1.05618e-07 7.63362e-08)
(3.49832e-08 -1.20234e-07 8.93515e-08)
(3.8214e-08 -1.35657e-07 1.03071e-07)
(4.17051e-08 -1.51662e-07 1.16576e-07)
(4.56917e-08 -1.67889e-07 1.28203e-07)
(5.09949e-08 -1.83736e-07 1.35406e-07)
(5.86287e-08 -1.97112e-07 1.36362e-07)
(1.78524e-10 -5.42963e-10 2.3519e-10)
(4.93673e-10 -1.51919e-09 6.64209e-10)
(7.7175e-10 -2.4294e-09 1.08407e-09)
(1.01479e-09 -3.31035e-09 1.51879e-09)
(1.22241e-09 -4.18611e-09 1.99245e-09)
(1.38953e-09 -5.07333e-09 2.52291e-09)
(1.50593e-09 -5.97568e-09 3.12464e-09)
(1.55284e-09 -6.89017e-09 3.80884e-09)
(1.50007e-09 -7.80021e-09 4.57801e-09)
(1.29943e-09 -8.68181e-09 5.42423e-09)
(8.79189e-10 -9.49811e-09 6.321e-09)
(1.26857e-10 -1.02115e-08 7.20871e-09)
(-1.14752e-09 -1.07782e-08 8.00552e-09)
(-3.33644e-09 -1.11234e-08 8.61293e-09)
(-7.26475e-09 -1.10335e-08 9.04028e-09)
(-1.32774e-08 -9.9587e-09 9.38187e-09)
(5.3336e-10 -1.61161e-09 6.9907e-10)
(1.47548e-09 -4.50973e-09 1.97616e-09)
(2.30697e-09 -7.21565e-09 3.22212e-09)
(3.03583e-09 -9.83213e-09 4.5157e-09)
(3.66074e-09 -1.24377e-08 5.92128e-09)
(4.16902e-09 -1.50761e-08 7.49329e-09)
(4.53212e-09 -1.77663e-08 9.27653e-09)
(4.69812e-09 -2.04966e-08 1.13015e-08)
(4.58175e-09 -2.32262e-08 1.35783e-08)
(4.05015e-09 -2.58781e-08 1.60795e-08)
(2.91049e-09 -2.83534e-08 1.87218e-08)
(8.99812e-10 -3.05432e-08 2.13308e-08)
(-2.30553e-09 -3.23538e-08 2.3609e-08)
(-6.99822e-09 -3.37155e-08 2.51554e-08)
(-1.29861e-08 -3.44611e-08 2.5608e-08)
(-1.81193e-08 -3.4206e-08 2.50918e-08)
(8.82585e-10 -2.63072e-09 1.14596e-09)
(2.44259e-09 -7.36439e-09 3.23926e-09)
(3.82229e-09 -1.17879e-08 5.28186e-09)
(5.03698e-09 -1.60724e-08 7.39972e-09)
(6.08801e-09 -2.0342e-08 9.69763e-09)
(6.95975e-09 -2.46797e-08 1.22655e-08)
(7.61253e-09 -2.91223e-08 1.51769e-08)
(7.97262e-09 -3.3662e-08 1.84853e-08)
(7.91457e-09 -3.82393e-08 2.22083e-08)
(7.24352e-09 -4.2747e-08 2.63122e-08)
(5.67646e-09 -4.70398e-08 3.06769e-08)
(2.83899e-09 -5.09733e-08 3.50382e-08)
(-1.65299e-09 -5.4485e-08 3.90127e-08)
(-7.9193e-09 -5.77133e-08 4.20874e-08)
(-1.50173e-08 -6.10146e-08 4.39531e-08)
(-1.98144e-08 -6.42034e-08 4.48849e-08)
(1.22211e-09 -3.56724e-09 1.56574e-09)
(3.38375e-09 -9.99006e-09 4.42344e-09)
(5.30093e-09 -1.60004e-08 7.21226e-09)
(6.9984e-09 -2.1831e-08 1.00984e-08)
(8.48486e-09 -2.76591e-08 1.32244e-08)
(9.7483e-09 -3.36046e-08 1.67123e-08)
(1.07494e-08 -3.97322e-08 2.06651e-08)
(1.1408e-08 -4.60456e-08 2.51568e-08)
(1.15837e-08 -5.24862e-08 3.02205e-08)
(1.105e-08 -5.89282e-08 3.58258e-08)
(9.46182e-09 -6.51897e-08 4.18177e-08)
(6.35478e-09 -7.1061e-08 4.79354e-08)
(1.18838e-09 -7.63867e-08 5.37026e-08)
(-6.29818e-09 -8.12287e-08 5.86121e-08)
(-1.51448e-08 -8.59165e-08 6.23478e-08)
(-2.16673e-08 -9.01639e-08 6.48561e-08)
(1.54702e-09 -4.38929e-09 1.94804e-09)
(4.28571e-09 -1.22963e-08 5.50385e-09)
(6.72159e-09 -1.97065e-08 8.96874e-09)
(8.89213e-09 -2.69126e-08 1.25473e-08)
(1.08172e-08 -3.41394e-08 1.64133e-08)
(1.24966e-08 -4.15508e-08 2.07185e-08)
(1.39028e-08 -4.92431e-08 2.55904e-08)
(1.49694e-08 -5.72449e-08 3.11249e-08)
(1.55696e-08 -6.55103e-08 3.73698e-08)
(1.54885e-08 -7.39144e-08 4.4297e-08)
(1.43819e-08 -8.22426e-08 5.17629e-08)
(1.173e-08 -9.01807e-08 5.94568e-08)
(6.83037e-09 -9.73212e-08 6.68959e-08)
(-9.66662e-10 -1.03223e-07 7.35313e-08)
(-1.12915e-08 -1.07548e-07 7.89987e-08)
(-2.02811e-08 -1.10235e-07 8.29077e-08)
(1.85186e-09 -5.06627e-09 2.28621e-09)
(5.13284e-09 -1.41981e-08 6.4577e-09)
(8.05886e-09 -2.27694e-08 1.05148e-08)
(1.06816e-08 -3.11268e-08 1.46928e-08)
(1.30362e-08 -3.95438e-08 1.91924e-08)
(1.51394e-08 -4.82235e-08 2.41881e-08)
(1.69863e-08 -5.72988e-08 2.98279e-08)
(1.85406e-08 -6.68294e-08 3.62233e-08)
(1.97209e-08 -7.67985e-08 4.3436e-08)
(2.03738e-08 -8.7102e-08 5.14419e-08)
(2.02389e-08 -9.75232e-08 6.00918e-08)
(1.8886e-08 -1.07678e-07 6.90454e-08)
(1.56428e-08 -1.16917e-07 7.77563e-08)
(9.62409e-09 -1.24137e-07 8.55774e-08)
(2.68323e-10 -1.2761e-07 9.20482e-08)
(-1.00572e-08 -1.26106e-07 9.67092e-08)
(2.13082e-09 -5.5703e-09 2.57497e-09)
(5.90821e-09 -1.56159e-08 7.26911e-09)
(9.28434e-09 -2.5062e-08 1.18236e-08)
(1.23254e-08 -3.43007e-08 1.64974e-08)
(1.5082e-08 -4.36444e-08 2.15099e-08)
(1.75913e-08 -5.33343e-08 2.70521e-08)
(1.98751e-08 -6.35376e-08 3.32844e-08)
(2.19379e-08 -7.43484e-08 4.03285e-08)
(2.37592e-08 -8.57863e-08 4.82513e-08)
(2.52854e-08 -9.77863e-08 5.70274e-08)
(2.64146e-08 -1.10177e-07 6.64905e-08)
(2.69744e-08 -1.22625e-07 7.62501e-08)
(2.66966e-08 -1.34538e-07 8.56378e-08)
(2.52497e-08 -1.44869e-07 9.37687e-08)
(2.24029e-08 -1.51796e-07 9.98744e-08)
(1.86147e-08 -1.53068e-07 1.0365e-07)
(2.378e-09 -5.87709e-09 2.81027e-09)
(6.59559e-09 -1.64841e-08 7.92851e-09)
(1.03708e-08 -2.64783e-08 1.28807e-08)
(1.3782e-08 -3.62851e-08 1.79403e-08)
(1.68946e-08 -4.62469e-08 2.33385e-08)
(1.97631e-08 -5.66332e-08 2.9274e-08)
(2.24346e-08 -6.76395e-08 3.59121e-08)
(2.49497e-08 -7.93895e-08 4.33751e-08)
(2.73462e-08 -9.19335e-08 5.17273e-08)
(2.96619e-08 -1.05243e-07 6.09322e-08)
(3.19485e-08 -1.19196e-07 7.07989e-08)
(3.42969e-08 -1.3355e-07 8.08801e-08)
(3.69245e-08 -1.47935e-07 9.03767e-08)
(4.04491e-08 -1.61918e-07 9.80997e-08)
(4.64222e-08 -1.75193e-07 1.02714e-07)
(5.61609e-08 -1.86847e-07 1.03684e-07)
(1.74345e-10 -5.46565e-10 1.7309e-10)
(4.81561e-10 -1.52912e-09 4.89567e-10)
(7.50343e-10 -2.4458e-09 7.97202e-10)
(9.81927e-10 -3.33089e-09 1.11741e-09)
(1.17339e-09 -4.2157e-09 1.46487e-09)
(1.31806e-09 -5.11041e-09 1.85257e-09)
(1.40289e-09 -6.02195e-09 2.29044e-09)
(1.40623e-09 -6.9479e-09 2.78504e-09)
(1.29435e-09 -7.87664e-09 3.33771e-09)
(1.01722e-09 -8.78658e-09 3.94114e-09)
(5.03433e-10 -9.64983e-09 4.5749e-09)
(-3.50836e-10 -1.04351e-08 5.20871e-09)
(-1.70718e-09 -1.10878e-08 5.79404e-09)
(-3.92386e-09 -1.15216e-08 6.31089e-09)
(-7.77717e-09 -1.1458e-08 6.83324e-09)
(-1.36268e-08 -1.02787e-08 7.39562e-09)
(5.2121e-10 -1.62258e-09 5.15196e-10)
(1.43979e-09 -4.54048e-09 1.45493e-09)
(2.24465e-09 -7.26296e-09 2.3723e-09)
(2.9391e-09 -9.90186e-09 3.3231e-09)
(3.51723e-09 -1.25241e-08 4.35382e-09)
(3.96024e-09 -1.51822e-08 5.50266e-09)
(4.23194e-09 -1.7895e-08 6.79955e-09)
(4.27223e-09 -2.06559e-08 8.26413e-09)
(3.98686e-09 -2.34296e-08 9.89939e-09)
(3.23876e-09 -2.61518e-08 1.16825e-08)
(1.84298e-09 -2.87346e-08 1.35529e-08)
(-4.25262e-10 -3.10696e-08 1.54017e-08)
(-3.81269e-09 -3.30509e-08 1.70629e-08)
(-8.46195e-09 -3.44916e-08 1.83262e-08)
(-1.4021e-08 -3.50262e-08 1.90046e-08)
(-1.84775e-08 -3.42121e-08 1.90028e-08)
(8.63284e-10 -2.64896e-09 8.44658e-10)
(2.38586e-09 -7.4149e-09 2.38551e-09)
(3.72329e-09 -1.187e-08 3.88967e-09)
(4.8837e-09 -1.61799e-08 5.44625e-09)
(5.86114e-09 -2.04791e-08 7.13147e-09)
(6.63046e-09 -2.48438e-08 9.0076e-09)
(7.14104e-09 -2.93156e-08 1.11251e-08)
(7.30637e-09 -3.38898e-08 1.35173e-08)
(6.9903e-09 -3.85152e-08 1.61919e-08)
(5.99444e-09 -4.3093e-08 1.91154e-08)
(4.05447e-09 -4.74865e-08 2.21978e-08)
(8.6797e-10 -5.15476e-08 2.52963e-08)
(-3.80955e-09 -5.51463e-08 2.81476e-08)
(-9.86457e-09 -5.82878e-08 3.05035e-08)
(-1.61474e-08 -6.10959e-08 3.21849e-08)
(-1.98524e-08 -6.34591e-08 3.31446e-08)
(1.19681e-09 -3.59243e-09 1.15328e-09)
(3.3099e-09 -1.00594e-08 3.25961e-09)
(5.17177e-09 -1.61083e-08 5.31242e-09)
(6.79916e-09 -2.19774e-08 7.43436e-09)
(8.19057e-09 -2.78348e-08 9.72619e-09)
(9.32276e-09 -3.38082e-08 1.22743e-08)
(1.01429e-08 -3.99599e-08 1.51485e-08)
(1.05564e-08 -4.62957e-08 1.83965e-08)
(1.0411e-08 -5.27576e-08 2.20323e-08)
(9.48022e-09 -5.92216e-08 2.60169e-08)
(7.4583e-09 -6.55029e-08 3.02648e-08)
(3.96962e-09 -7.13645e-08 3.45658e-08)
(-1.32444e-09 -7.65871e-08 3.86615e-08)
(-8.39787e-09 -8.10861e-08 4.22695e-08)
(-1.60849e-08 -8.50247e-08 4.51952e-08)
(-2.12157e-08 -8.83165e-08 4.71404e-08)
(1.51738e-09 -4.41966e-09 1.4357e-09)
(4.19923e-09 -1.23809e-08 4.05641e-09)
(6.57079e-09 -1.98389e-08 6.608e-09)
(8.65938e-09 -2.70821e-08 9.23854e-09)
(1.04751e-08 -3.43424e-08 1.2073e-08)
(1.20042e-08 -4.17767e-08 1.52179e-08)
(1.32047e-08 -4.948e-08 1.87603e-08)
(1.39951e-08 -5.74756e-08 2.27608e-08)
(1.42382e-08 -6.5711e-08 2.72406e-08)
(1.3725e-08 -7.40494e-08 3.21667e-08)
(1.21558e-08 -8.22568e-08 3.74305e-08)
(9.12727e-09 -8.99736e-08 4.28174e-08)
(4.16883e-09 -9.67292e-08 4.80173e-08)
(-3.04529e-09 -1.01979e-07 5.2735e-08)
(-1.19501e-08 -1.05305e-07 5.67345e-08)
(-1.93262e-08 -1.06936e-07 5.95028e-08)
(1.81966e-09 -5.10131e-09 1.68579e-09)
(5.03853e-09 -1.42937e-08 4.76054e-09)
(7.89443e-09 -2.29159e-08 7.74852e-09)
(1.04295e-08 -3.13166e-08 1.08203e-08)
(1.26662e-08 -3.97619e-08 1.4119e-08)
(1.46094e-08 -4.84555e-08 1.77682e-08)
(1.62392e-08 -5.75217e-08 2.18685e-08)
(1.75049e-08 -6.70088e-08 2.64903e-08)
(1.83149e-08 -7.68821e-08 3.16597e-08)
(1.8525e-08 -8.70093e-08 3.73436e-08)
(1.79225e-08 -9.71337e-08 4.34191e-08)
(1.62042e-08 -1.06824e-07 4.9634e-08)
(1.29392e-08 -1.15365e-07 5.56149e-08)
(7.58083e-09 -1.21616e-07 6.09948e-08)
(-2.21686e-10 -1.23911e-07 6.5486e-08)
(-8.7876e-09 -1.21429e-07 6.85932e-08)
(2.09746e-09 -5.60766e-09 1.8989e-09)
(5.81085e-09 -1.57185e-08 5.35979e-09)
(9.11525e-09 -2.52192e-08 8.7148e-09)
(1.20657e-08 -3.44984e-08 1.2151e-08)
(1.47035e-08 -4.38682e-08 1.58263e-08)
(1.70518e-08 -5.35614e-08 1.98749e-08)
(1.9119e-08 -6.37345e-08 2.44061e-08)
(2.08956e-08 -7.44635e-08 2.94958e-08)
(2.23524e-08 -8.57395e-08 3.51703e-08)
(2.34442e-08 -9.74567e-08 4.13904e-08)
(2.41151e-08 -1.09388e-07 4.80114e-08)
(2.43064e-08 -1.21137e-07 5.47244e-08)
(2.39821e-08 -1.32065e-07 6.10502e-08)
(2.314e-08 -1.41148e-07 6.64533e-08)