/*--------------------------------*- C++ -*----------------------------------*\
| =========                 |                                                 |
| \\      /  F ield         | OpenFOAM: The Open Source CFD Toolbox           |
|  \\    /   O peration     | Version:  v1912                                 |
|   \\  /    A nd           | Website:  www.openfoam.com                      |
|    \\/     M anipulation  |                                                 |
\*---------------------------------------------------------------------------*/
FoamFile
{
    version     2.0;
    format      ascii;
    class       volScalarField;
    location    "0.3/fluid";
    object      p;
}
// * * * * * * * * * * * * * * * * * * * * * * * * * * * * * * * * * * * * * //

dimensions      [0 2 -2 0 0 0 0];


internalField   nonuniform List<scalar> 
14592
(
0.069253
0.0637607
0.0619144
0.0603098
0.0592562
0.0583386
0.057523
0.0567867
0.0560729
0.0554872
0.0548455
0.0545199
0.0538763
0.0542112
0.0533564
0.0560126
0.0649853
0.0632824
0.0616593
0.0603219
0.0592976
0.058395
0.0575807
0.0568504
0.0561463
0.05558
0.0549632
0.054689
0.0540981
0.0546075
0.0537928
0.0574726
0.0630845
0.0624388
0.0612016
0.0601669
0.0592116
0.0583479
0.0575408
0.0568138
0.0561113
0.0555516
0.0549483
0.0547116
0.0541687
0.0548191
0.0540815
0.058246
0.0618374
0.0616354
0.0607421
0.0599304
0.0590684
0.0582558
0.0574659
0.056745
0.0560428
0.0554863
0.0548917
0.0546873
0.054191
0.0549662
0.0543481
0.058785
0.0610953
0.0610224
0.0603315
0.0596586
0.0588709
0.0580982
0.0573183
0.0565903
0.055867
0.0552787
0.0546423
0.0543951
0.0538463
0.0546211
0.05399
0.0586428
0.0605733
0.0605476
0.0599897
0.0594069
0.0586761
0.0579329
0.0571592
0.0564222
0.0556796
0.0550658
0.0544054
0.0541493
0.0536147
0.054504
0.0540298
0.0591319
0.0602358
0.0602247
0.059733
0.0591935
0.0584886
0.0577508
0.0569624
0.0561901
0.0553911
0.0546902
0.0539078
0.0534705
0.0526754
0.0532255
0.0521814
0.0572508
0.0600308
0.0600254
0.0595613
0.0590374
0.0583374
0.0575914
0.0567821
0.055975
0.0551312
0.0543701
0.0535269
0.053025
0.0522082
0.0529072
0.0521272
0.0594562
0.069123
0.0636324
0.0618236
0.0602613
0.0592636
0.0584089
0.0576655
0.057012
0.0563928
0.0559144
0.0553951
0.0551752
0.0546625
0.0548678
0.054074
0.0551104
0.0648555
0.0631524
0.0615679
0.0602737
0.0593061
0.0584673
0.0577259
0.0570794
0.0564709
0.0560129
0.0555185
0.0553461
0.0548753
0.0551994
0.0543877
0.0558799
0.0629518
0.0623048
0.0611058
0.0601143
0.0592159
0.058416
0.0576815
0.0570378
0.0564296
0.0559769
0.0554924
0.0553535
0.0549181
0.0553553
0.0545824
0.0563397
0.0617026
0.0614991
0.0606433
0.0598742
0.0590686
0.0583191
0.057601
0.0569625
0.0563532
0.0559028
0.0554248
0.0553175
0.0549215
0.0554737
0.0547895
0.056735
0.0609575
0.060883
0.0602287
0.0595974
0.0588647
0.0581535
0.0574428
0.056794
0.0561589
0.0556712
0.055142
0.054984
0.0545155
0.0550581
0.0543113
0.0564472
0.0604323
0.060405
0.059883
0.0593407
0.0586634
0.0579799
0.057273
0.0566123
0.055954
0.0554378
0.0548797
0.0547147
0.054254
0.0549338
0.0543232
0.0569277
0.0600907
0.0600783
0.0596215
0.0591213
0.0584678
0.0577868
0.057061
0.0563591
0.0556358
0.0550214
0.0543225
0.0539577
0.0531909
0.0535187
0.0522038
0.0548167
0.0598814
0.0598749
0.059445
0.058959
0.0583087
0.0576168
0.0568666
0.0561256
0.0553517
0.0546717
0.0539051
0.0534809
0.0526921
0.053248
0.0521988
0.057271
0.0690365
0.0635471
0.0617674
0.0602399
0.0592906
0.058494
0.0578221
0.0572568
0.0567499
0.0564154
0.0560962
0.0561269
0.0560256
0.0566407
0.0567668
0.057967
0.0647693
0.063066
0.0615115
0.0602528
0.0593345
0.0585547
0.0578859
0.0573292
0.0568351
0.0565239
0.0562335
0.0563158
0.0562635
0.0569934
0.0571425
0.0586939
0.0628629
0.0622147
0.0610452
0.0600893
0.0592403
0.0584995
0.0578374
0.0572832
0.0567887
0.0564825
0.0562009
0.0563174
0.0563007
0.0571483
0.0573589
0.0591616
0.0616115
0.0614066
0.0605797
0.0598456
0.0590889
0.058398
0.0577514
0.0572016
0.0567048
0.0564004
0.0561238
0.056274
0.0562961
0.0572663
0.057569
0.0595577
0.0608631
0.0607872
0.0601611
0.0595637
0.0588786
0.0582243
0.0575828
0.0570194
0.0564917
0.0561444
0.0558069
0.0558984
0.0558284
0.0567821
0.0569795
0.0591504
0.0603346
0.060306
0.0598113
0.059302
0.0586709
0.0580422
0.0574018
0.056823
0.0562673
0.0558862
0.0555107
0.0555901
0.0555089
0.0566015
0.0568837
0.059524
0.059989
0.0599753
0.0595451
0.0590765
0.0584671
0.057838
0.0571741
0.0565478
0.0559169
0.0554237
0.054883
0.054733
0.0542786
0.0549632
0.0543413
0.0569379
0.0597754
0.0597678
0.0593636
0.0589081
0.0582999
0.0576571
0.0569646
0.0562933
0.0556034
0.0550336
0.0544069
0.0541796
0.053659
0.0545617
0.0540744
0.059179
0.0689798
0.063491
0.0617331
0.0602324
0.0593204
0.058568
0.0579485
0.057443
0.0570045
0.0567414
0.0565038
0.0565895
0.0565674
0.05712
0.0572916
0.0581973
0.0647128
0.063009
0.061477
0.0602457
0.0593654
0.0586304
0.0580147
0.0575184
0.0570935
0.0568542
0.0566453
0.0567799
0.0568016
0.0574465
0.0576235
0.0587782
0.0628039
0.0621543
0.0610071
0.0600783
0.0592675
0.0585716
0.0579623
0.0574681
0.0570415
0.0568058
0.0566022
0.0567663
0.0568132
0.0575579
0.0577739
0.0591349
0.0615504
0.0613439
0.0605387
0.0598313
0.0591124
0.0584659
0.0578715
0.0573809
0.0569508
0.0567159
0.0565149
0.056711
0.0567896
0.0576494
0.0579375
0.0594664
0.060799
0.0607215
0.0601163
0.0595449
0.0588965
0.0582853
0.057694
0.0571876
0.0567232
0.0564417
0.0561731
0.0563055
0.0562783
0.0571148
0.0572673
0.0589709
0.0602673
0.0602372
0.0597629
0.0592787
0.0586831
0.0580961
0.057504
0.05698
0.0564847
0.0561671
0.0558561
0.0559763
0.0559297
0.0569111
0.057125
0.0593007
0.059918
0.0599029
0.0594923
0.0590478
0.0584723
0.0578827
0.0572641
0.0566886
0.0561123
0.055676
0.0551887
0.055071
0.0546266
0.0551941
0.0544378
0.0565628
0.0597005
0.0596917
0.0593065
0.0588742
0.0582984
0.0576931
0.0570431
0.0564194
0.0557797
0.055263
0.0546839
0.0544901
0.0539723
0.0547823
0.0541399
0.0588048
0.068945
0.0634566
0.0617155
0.060236
0.0593547
0.0586398
0.058067
0.0576176
0.0572486
0.0570662
0.056933
0.0571231
0.0572557
0.0578937
0.0582661
0.0590899
0.0646782
0.062974
0.0614594
0.0602498
0.0594008
0.058704
0.0581358
0.0576968
0.0573427
0.057186
0.0570838
0.0573245
0.0575031
0.0582277
0.0586082
0.0596352
0.0627671
0.0621165
0.0609864
0.0600793
0.0592999
0.0586423
0.0580804
0.0576431
0.0572868
0.0571331
0.0570344
0.0573026
0.0575014
0.0583176
0.0587277
0.0599414
0.0615117
0.0613042
0.0605156
0.0598295
0.0591416
0.058533
0.0579854
0.0575512
0.0571904
0.0570368
0.0569389
0.0572384
0.0574648
0.0583934
0.0588652
0.0602401
0.0607577
0.060679
0.0600899
0.0595391
0.0589208
0.0583463
0.0578002
0.0573481
0.0569499
0.0567462
0.0565748
0.0568058
0.056915
0.0578145
0.0581278
0.0596724
0.0602232
0.0601921
0.0597333
0.059269
0.0587023
0.0581508
0.057602
0.0571301
0.0566976
0.0564545
0.056235
0.0564503
0.0565288
0.0575712
0.0579201
0.0599349
0.0598707
0.0598545
0.0594589
0.0590334
0.0584854
0.0579293
0.057351
0.0568238
0.0563044
0.0559355
0.0555277
0.0554936
0.0551477
0.0557602
0.0550746
0.0570189
0.0596499
0.0596401
0.0592692
0.0588551
0.0583054
0.0577316
0.0571193
0.0565402
0.0559521
0.0554967
0.054987
0.0548688
0.0544297
0.055281
0.0546631
0.0591516
0.0689245
0.0634363
0.0617069
0.0602424
0.0593825
0.0586934
0.0581514
0.0577365
0.0574063
0.0572617
0.0571699
0.0573828
0.0575471
0.0581557
0.0585362
0.0592873
0.0646578
0.0629531
0.0614508
0.0602565
0.0594294
0.0587588
0.0582218
0.0578177
0.0575029
0.0573844
0.0573236
0.057586
0.0577942
0.0584819
0.0588653
0.0597927
0.062745
0.0620935
0.0609754
0.0600836
0.0593262
0.0586947
0.0581639
0.0577612
0.0574435
0.0573269
0.0572676
0.0575546
0.0577771
0.0585479
0.0589495
0.0600505
0.0614882
0.0612795
0.0605027
0.0598316
0.0591654
0.0585827
0.0580657
0.0576657
0.0573427
0.0572256
0.0571655
0.0574825
0.0577283
0.0586075
0.0590605
0.0603182
0.060732
0.0606522
0.0600744
0.0595381
0.0589408
0.0583915
0.057875
0.0574557
0.0570934
0.0569243
0.0567872
0.0570332
0.0571548
0.0580012
0.0582811
0.059706
0.0601953
0.0601632
0.0597153
0.0592649
0.0587186
0.0581912
0.0576709
0.0572306
0.0568322
0.0566224
0.0564345
0.0566642
0.0567498
0.0577393
0.0580412
0.0599362
0.0598402
0.0598232
0.0594379
0.0590257
0.0584971
0.0579639
0.0574123
0.0569145
0.0564263
0.0560876
0.0557062
0.0556833
0.0553341
0.0558903
0.055129
0.0569425
0.0596167
0.0596062
0.0592453
0.0588439
0.0583126
0.0577606
0.0571732
0.0566217
0.0560622
0.0556349
0.0551483
0.055041
0.0545935
0.0553939
0.0546862
0.0590484
0.0689136
0.0634255
0.061704
0.0602496
0.0594044
0.0587333
0.0582137
0.057825
0.0575264
0.0574158
0.0573654
0.0576135
0.0578251
0.0584473
0.0588661
0.0595817
0.0646471
0.0629421
0.0614479
0.060264
0.0594519
0.0587997
0.0582856
0.0579082
0.0576256
0.0575421
0.0575237
0.0578222
0.0580785
0.0587777
0.0591992
0.0600769
0.0627331
0.062081
0.0609708
0.0600894
0.059347
0.0587341
0.058226
0.05785
0.0575642
0.0574823
0.0574644
0.0577861
0.0580539
0.0588321
0.0592659
0.0603102
0.0614752
0.0612659
0.0604968
0.0598359
0.0591846
0.0586201
0.0581257
0.057752
0.0574604
0.0573776
0.0573579
0.057709
0.0579976
0.0588821
0.0593617
0.0605603
0.0607176
0.0606371
0.0600667
0.0595402
0.0589574
0.0584258
0.057931
0.0575372
0.0572048
0.0570684
0.0569692
0.0572472
0.0574066
0.0582556
0.0585525
0.0599167
0.0601794
0.0601466
0.0597058
0.0592649
0.0587325
0.0582222
0.0577226
0.0573067
0.0569367
0.0567581
0.0566054
0.0568655
0.056984
0.0579743
0.0582826
0.0601165
0.0598224
0.0598048
0.0594264
0.0590232
0.0585078
0.0579907
0.0574585
0.0569834
0.056521
0.0562107
0.0558599
0.0558636
0.0555383
0.0560902
0.055314
0.0570574
0.0595972
0.0595861
0.0592318
0.0588389
0.0583201
0.0577832
0.0572139
0.0566834
0.0561474
0.0557459
0.0552859
0.0552021
0.0547715
0.0555661
0.0548285
0.0591225
0.0689086
0.0634212
0.0617027
0.0602535
0.059415
0.0587522
0.0582424
0.0578643
0.0575773
0.0574772
0.0574376
0.0576896
0.0579067
0.0585182
0.058936
0.0596379
0.0646426
0.0629372
0.0614468
0.0602679
0.0594628
0.0588189
0.0583145
0.0579478
0.0576768
0.0576034
0.0575954
0.0578968
0.0581573
0.0588432
0.0592622
0.0601213
0.0627277
0.0620753
0.060969
0.0600924
0.0593571
0.0587524
0.0582541
0.0578885
0.057614
0.0575418
0.0575333
0.0578568
0.0581265
0.0588887
0.0593168
0.06034
0.0614694
0.0612597
0.0604943
0.0598381
0.0591937
0.0586375
0.0581526
0.0577893
0.0575087
0.0574354
0.0574246
0.057777
0.0580662
0.0589334
0.0594042
0.0605805
0.060711
0.0606302
0.0600634
0.0595414
0.0589653
0.0584416
0.0579561
0.0575723
0.0572504
0.0571231
0.057032
0.0573109
0.0574695
0.0583004
0.0585847
0.0599257
0.0601721
0.0601389
0.0597016
0.059265
0.0587391
0.0582365
0.0577459
0.0573396
0.0569796
0.0568098
0.0566646
0.0569254
0.0570415
0.0580133
0.0583045
0.0601138
0.0598142
0.0597962
0.0594212
0.0590221
0.0585129
0.0580031
0.0574794
0.0570133
0.0565602
0.0562581
0.0559138
0.0559179
0.0555887
0.0561217
0.0553221
0.0570372
0.059588
0.0595766
0.0592255
0.0588366
0.0583237
0.0577937
0.0572324
0.0567103
0.0561829
0.0557891
0.0553347
0.0552513
0.0548151
0.0555904
0.0548234
0.0590854
0.0789377
0.0683409
0.0647781
0.0617958
0.0599337
0.0583549
0.0569862
0.0556849
0.0543844
0.0530597
0.0516222
0.0501116
0.0483523
0.0465151
0.044266
0.0420474
0.0746153
0.0675178
0.0643444
0.0616751
0.0598894
0.0583502
0.0569956
0.0557046
0.0544121
0.0530959
0.0516674
0.0501688
0.0484215
0.0465998
0.0443617
0.0421513
0.0726838
0.0665349
0.0637553
0.0614024
0.0597329
0.0582657
0.056942
0.05567
0.0543883
0.0530808
0.0516617
0.0501741
0.0484424
0.0466376
0.0444196
0.0422245
0.0713962
0.0656846
0.0632387
0.0611142
0.0595593
0.0581613
0.0568708
0.0556168
0.0543441
0.0530418
0.0516283
0.0501469
0.048427
0.0466355
0.0444385
0.0422615
0.0706315
0.0650563
0.0628065
0.0608264
0.0593618
0.058022
0.0567623
0.055524
0.0542581
0.0529571
0.0515448
0.0500638
0.0483518
0.0465695
0.044398
0.0422453
0.070104
0.0645833
0.0624634
0.0605779
0.059181
0.0578852
0.0566492
0.0554216
0.054159
0.0528566
0.051444
0.0499623
0.0482604
0.0464894
0.0443516
0.042229
0.069773
0.0642709
0.0622184
0.0603829
0.0590246
0.0577534
0.0565289
0.0553031
0.0540368
0.0527256
0.0513057
0.0498147
0.0481163
0.0463487
0.0442469
0.042157
0.0695839
0.0640883
0.0620655
0.0602513
0.0589086
0.0576455
0.0564217
0.0551902
0.0539162
0.0525942
0.0511678
0.0496698
0.047981
0.0462233
0.0441671
0.0421152
0.0746059
0.0675037
0.0643238
0.0616488
0.0598574
0.0583148
0.0569567
0.0556566
0.0543497
0.0530176
0.0515674
0.0500474
0.0482669
0.0464227
0.0441364
0.0419273
0.0703134
0.0669604
0.0639886
0.0615818
0.0598404
0.0583258
0.0569752
0.0556793
0.0543746
0.0530459
0.0515999
0.0500864
0.0483132
0.0464791
0.0442012
0.0420011
0.0683839
0.0660492
0.0634529
0.0613539
0.059709
0.0582548
0.0569282
0.0556462
0.0543494
0.0530269
0.0515887
0.0500844
0.0483255
0.0465067
0.0442481
0.0420626
0.0671055
0.0652072
0.0629543
0.061083
0.0595471
0.058158
0.0568618
0.055596
0.0543073
0.0529897
0.0515571
0.0500593
0.0483127
0.0465077
0.0442703
0.0421029
0.0663465
0.0645763
0.0625277
0.0608018
0.0593546
0.0580219
0.0567553
0.0555052
0.0542232
0.0529072
0.0514763
0.0499795
0.0482417
0.0464463
0.0442355
0.042092
0.0658209
0.0640987
0.0621857
0.0605559
0.0591766
0.0578873
0.0566443
0.0554057
0.0541279
0.0528115
0.0513819
0.049886
0.0481608
0.0463787
0.0442044
0.042091
0.0654913
0.0637845
0.0619416
0.0603626
0.0590222
0.0577568
0.0565254
0.0552895
0.0540085
0.0526841
0.0512482
0.0497439
0.0480238
0.0462456
0.0441105
0.0420291
0.0653029
0.0636012
0.0617896
0.0602324
0.0589081
0.0576505
0.0564201
0.0551798
0.0538922
0.0525584
0.051118
0.0496089
0.0479018
0.0461363
0.0440521
0.0420091
0.0726789
0.0665257
0.0637452
0.061394
0.0597309
0.0582774
0.0569689
0.0557088
0.0544342
0.0531375
0.0517106
0.0502234
0.0484264
0.0465897
0.0441539
0.0418918
0.0683913
0.0660573
0.0634682
0.0613773
0.0597454
0.0583088
0.0570013
0.0557421
0.0544689
0.053176
0.0517542
0.0502751
0.0484869
0.0466628
0.0442343
0.0419824
0.066473
0.0651972
0.0629853
0.0611976
0.0596449
0.0582564
0.0569649
0.055715
0.0544472
0.0531594
0.0517453
0.0502759
0.048503
0.0466949
0.0442841
0.0420443
0.0652073
0.0643749
0.0625099
0.0609488
0.059498
0.0581692
0.0569039
0.0556676
0.0544064
0.0531227
0.0517142
0.050252
0.0484932
0.0467009
0.0443137
0.0420934
0.0644563
0.0637525
0.0620947
0.0606785
0.0593128
0.058037
0.0567983
0.055575
0.0543184
0.0530341
0.0516256
0.0501622
0.0484115
0.0466279
0.044271
0.0420776
0.0639342
0.0632772
0.0617568
0.0604367
0.0591375
0.0579032
0.0566863
0.0554728
0.0542188
0.0529325
0.0515246
0.0500618
0.048326
0.0465582
0.0442481
0.0420911
0.0636059
0.0629634
0.0615138
0.0602442
0.0589827
0.0577708
0.0565636
0.0553503
0.0540904
0.0527924
0.0513743
0.0498974
0.0481642
0.0463955
0.0441349
0.0420141
0.0634169
0.0627793
0.0613612
0.0601134
0.0588672
0.0576617
0.056454
0.0552347
0.0539662
0.0526564
0.0512322
0.0497484
0.0480311
0.0462767
0.0440853
0.0420121
0.0713906
0.0656741
0.063238
0.0611284
0.0595996
0.0582389
0.0569909
0.0557827
0.0545507
0.0533011
0.0519048
0.050463
0.0486415
0.0468197
0.0441531
0.041827
0.0671129
0.0652145
0.06298
0.0611305
0.059628
0.0582799
0.05703
0.0558215
0.0545906
0.0533453
0.0519552
0.050524
0.0487141
0.0469118
0.0442556
0.0419468
0.0652067
0.0643729
0.0625192
0.060972
0.0595419
0.0582365
0.0569983
0.0557966
0.0545696
0.0533287
0.0519463
0.0505256
0.0487325
0.0469479
0.0443061
0.0420039
0.0639509
0.0635623
0.0620555
0.0607341
0.0594026
0.0581539
0.0569395
0.0557496
0.054528
0.0532907
0.0519143
0.0505019
0.0487252
0.0469597
0.0443435
0.0420629
0.0632066
0.0629471
0.0616471
0.0604699
0.059221
0.058023
0.0568326
0.0556532
0.0544338
0.0531932
0.0518142
0.0503976
0.0486273
0.0468683
0.0442865
0.0420364
0.0626878
0.062475
0.061312
0.0602303
0.0590465
0.0578887
0.0567183
0.0555467
0.0543282
0.053084
0.0517049
0.0502884
0.0485366
0.0467974
0.0442776
0.0420741
0.0623607
0.0621621
0.0610695
0.0600378
0.0588904
0.0577533
0.0565904
0.0554159
0.0541879
0.0529268
0.0515321
0.0500934
0.0483392
0.0465902
0.0441343
0.0419713
0.0621711
0.0619774
0.0609161
0.0599056
0.0587725
0.0576407
0.0564758
0.0552929
0.0540541
0.0527782
0.0513758
0.049928
0.0481947
0.0464638
0.0441062
0.0420081
0.070624
0.0650447
0.0628234
0.0608823
0.0594777
0.0582166
0.0570497
0.0559205
0.0547645
0.0536057
0.0522897
0.0509602
0.0491683
0.0474386
0.0444836
0.0420803
0.0663524
0.0645817
0.062571
0.0608917
0.0595126
0.0582631
0.0570939
0.055965
0.0548114
0.0536592
0.0523525
0.0510392
0.0492652
0.0475677
0.0446284
0.0422473
0.0644535
0.0637474
0.0621205
0.0607434
0.0594338
0.0582243
0.0570645
0.0559409
0.0547905
0.0536427
0.0523447
0.0510443
0.0492899
0.0476139
0.0446821
0.0422968
0.0632046
0.062944
0.0616636
0.0605118
0.0592988
0.0581439
0.0570058
0.0558924
0.0547463
0.0536017
0.0523103
0.0510205
0.0492861
0.047636
0.0447333
0.0423749
0.0624649
0.0623338
0.0612595
0.0602508
0.0591183
0.0580117
0.0568947
0.0557886
0.0546412
0.0534892
0.0521906
0.0508915
0.0491598
0.0475138
0.0446516
0.0423345
0.0619483
0.061864
0.060926
0.0600118
0.0589428
0.0578743
0.0567748
0.0556736
0.0545241
0.053365
0.0520639
0.0507632
0.0490532
0.0474339
0.0446571
0.0424117
0.0616212
0.0615511
0.0606829
0.0598174
0.058783
0.0577328
0.0566372
0.0555282
0.0543629
0.0531778
0.0518501
0.0505113
0.0487859
0.0471381
0.0444421
0.0422491
0.06143
0.0613649
0.0605273
0.0596822
0.0586605
0.0576135
0.0565129
0.0553915
0.0542105
0.0530043
0.0516634
0.0503082
0.0486055
0.046979
0.044423
0.0423379
0.0700774
0.0645529
0.0624853
0.0606688
0.0593736
0.0582068
0.0571235
0.0560781
0.0550039
0.0539421
0.0527102
0.0514967
0.0497186
0.0480642
0.0446559
0.0420817
0.0658075
0.0640836
0.0622327
0.06068
0.0594109
0.0582561
0.057171
0.0561268
0.0550562
0.0540033
0.0527837
0.0515933
0.0498408
0.0482354
0.0448335
0.0422362
0.0639108
0.0632494
0.0617839
0.0605338
0.0593334
0.0582176
0.0571409
0.0561011
0.0550331
0.0539848
0.0527748
0.0516
0.0498687
0.0482863
0.0448638
0.0422132
0.062665
0.0624486
0.061329
0.0603037
0.0591988
0.0581364
0.05708
0.0560493
0.0549847
0.0539393
0.0527364
0.0515749
0.0498672
0.0483184
0.0449235
0.0423003
0.0619272
0.0618402
0.0609259
0.0600427
0.0590167
0.0580004
0.0569625
0.0559359
0.0548661
0.0538085
0.0525926
0.0514153
0.0497038
0.0481555
0.0448088
0.0422487
0.0614111
0.0613709
0.0605922
0.0598024
0.0588386
0.0578584
0.0568356
0.0558109
0.054736
0.053668
0.0524473
0.0512676
0.0495832
0.0480757
0.0448536
0.0424172
0.0610829
0.0610571
0.0603472
0.059605
0.058674
0.0577094
0.0566866
0.0556488
0.0545508
0.0534464
0.0521857
0.0509483
0.0492297
0.047669
0.0445562
0.0422059
0.0608894
0.0608687
0.0601888
0.0594658
0.0585461
0.0575825
0.0565516
0.0554972
0.0543788
0.0532472
0.0519684
0.0507101
0.0490222
0.0475027
0.0446084
0.0424829
0.069707
0.0642026
0.0622349
0.0605079
0.0593064
0.058231
0.0572407
0.0562995
0.0553422
0.0544334
0.0533748
0.052418
0.0508663
0.0496027
0.0460151
0.0434725
0.0654386
0.0637294
0.0619818
0.0605198
0.0593453
0.058283
0.0572919
0.0563535
0.0554021
0.054506
0.0534648
0.0525414
0.0510268
0.0498382
0.0462402
0.0435402
0.063542
0.0628933
0.0615317
0.0603724
0.0592664
0.0582429
0.0572596
0.0563252
0.0553762
0.0544855
0.0534555
0.0525532
0.0510649
0.0499107
0.0462651
0.0434378
0.0622972
0.062093
0.0610766
0.0601415
0.0591302
0.0581591
0.0571949
0.0562686
0.0553221
0.0544343
0.0534122
0.0525284
0.05107
0.049967
0.0463538
0.0435573
0.0615593
0.0614844
0.0606723
0.0598783
0.0589442
0.0580171
0.0570685
0.0561425
0.0551857
0.0542794
0.0532362
0.0523279
0.0508555
0.0497515
0.0461957
0.0435117
0.0610423
0.0610143
0.0603368
0.0596352
0.0587615
0.0578682
0.0569317
0.0560039
0.0550374
0.0541157
0.0530621
0.0521486
0.0507046
0.0496613
0.0462786
0.0438288
0.0607118
0.0606983
0.0600886
0.0594333
0.0585901
0.0577089
0.0567677
0.0558195
0.0548195
0.0538454
0.0527288
0.0517231
0.0501994
0.049047
0.0457665
0.0434887
0.0605149
0.0605067
0.0599263
0.0592889
0.0584551
0.0575717
0.0566181
0.0556473
0.0546189
0.0536067
0.0524592
0.051417
0.0499151
0.0488176
0.0458346
0.0440605
0.0694385
0.0639422
0.0620452
0.0603866
0.0592641
0.0582694
0.0573638
0.0565171
0.0556633
0.0548816
0.0539585
0.0531767
0.0517483
0.0506137
0.0465277
0.0429865
0.0651704
0.0634659
0.0617909
0.0603984
0.059304
0.0583233
0.0574179
0.0565752
0.0557288
0.0549625
0.0540599
0.0533187
0.0519301
0.0508711
0.0466348
0.042249
0.063272
0.0626261
0.0613372
0.0602474
0.0592219
0.05828
0.057382
0.0565429
0.0556983
0.0549375
0.054046
0.0533288
0.0519627
0.0509279
0.0465465
0.0416603
0.0620264
0.0618246
0.0608804
0.0600141
0.0590826
0.0581924
0.0573125
0.0564805
0.0556373
0.0548793
0.0539956
0.0533005
0.0519666
0.0509926
0.0466315
0.0417095
0.0612868
0.0612143
0.0604734
0.0597472
0.0588914
0.0580432
0.0571762
0.056341
0.0554826
0.0546999
0.0537858
0.0530575
0.0516951
0.0507182
0.0464232
0.0416859
0.0607678
0.0607422
0.0601352
0.0595003
0.0587031
0.0578867
0.0570292
0.056189
0.0553169
0.054515
0.0535866
0.0528544
0.051526
0.050646
0.0466015
0.0422626
0.0604341
0.060423
0.0598831
0.0592931
0.0585242
0.0577168
0.05685
0.0559827
0.0550674
0.0541989
0.0531856
0.0523303
0.050875
0.0498377
0.0458947
0.0418498
0.0602334
0.0602279
0.0597163
0.0591433
0.0583817
0.0575693
0.0566864
0.0557914
0.0548416
0.0539275
0.0528762
0.0519834
0.0505625
0.0496615
0.0461928
0.0431595
0.0599523
0.0599483
0.059476
0.0589394
0.0582185
0.0574421
0.0565905
0.0557215
0.0547926
0.0538949
0.0528545
0.0519681
0.0505454
0.0496368
0.0461396
0.0430665
0.0600073
0.0600018
0.0594882
0.0589134
0.0581512
0.0573327
0.0564364
0.0555138
0.0545245
0.0535431
0.0524173
0.0513891
0.0498887
0.048785
0.0457727
0.0439676
0.0601993
0.0601815
0.059588
0.0589476
0.0581221
0.0572456
0.0562928
0.0553043
0.0542399
0.0531508
0.0519022
0.0506634
0.04898
0.0474553
0.0445336
0.0423795
0.0605975
0.0605354
0.059797
0.0590505
0.0581418
0.0571984
0.056192
0.0551505
0.0540352
0.0528811
0.0515779
0.0502476
0.0485537
0.0469249
0.0443467
0.0422366
0.0612276
0.061037
0.0600844
0.059183
0.0581775
0.0571629
0.0561041
0.0550119
0.053848
0.0526316
0.0512727
0.0498541
0.0481334
0.0464031
0.0440282
0.0419084
0.0623988
0.0617659
0.0604642
0.0593337
0.0582242
0.0571454
0.0560519
0.0549298
0.0537421
0.0524964
0.0511196
0.049668
0.0479659
0.0462142
0.0440093
0.041917
0.0642299
0.0625354
0.0608465
0.059413
0.0582311
0.0571062
0.0559962
0.0548579
0.0536552
0.0523889
0.0509984
0.0495234
0.0478337
0.0460726
0.0439778
0.0419176
0.0685081
0.0630274
0.0611281
0.0594369
0.0582362
0.0571027
0.0559994
0.0548727
0.0536834
0.0524287
0.0510518
0.0495875
0.0479158
0.0461621
0.0440954
0.0420261
0.059798
0.0597931
0.0593542
0.0588542
0.0581806
0.057455
0.0566575
0.0558473
0.0549777
0.0541456
0.0531578
0.0523196
0.0508646
0.0498178
0.0458236
0.0417121
0.0598483
0.059842
0.0593612
0.0588217
0.0581051
0.0573347
0.0564888
0.0556197
0.0546833
0.0537599
0.0526791
0.0516975
0.050177
0.049016
0.0456845
0.0433545
0.0600356
0.0600172
0.0594558
0.0588496
0.0580676
0.0572362
0.0563294
0.0553884
0.0543685
0.0533259
0.0521089
0.0509004
0.0491876
0.0476189
0.0444607
0.0420657
0.0604295
0.060367
0.0596605
0.0589475
0.0580806
0.0571801
0.0562167
0.0552184
0.054143
0.0530291
0.0517525
0.0504479
0.0487333
0.0470814
0.0443496
0.0421183
0.0610558
0.060865
0.0599437
0.0590751
0.0581102
0.0571363
0.0561178
0.0550647
0.0539358
0.052753
0.0514152
0.050015
0.0482762
0.0465268
0.0440438
0.0418488
0.0622243
0.0615915
0.0603211
0.0592231
0.0581535
0.0571143
0.0560593
0.0549741
0.0538193
0.0526044
0.0512472
0.0498117
0.0480974
0.0463313
0.0440503
0.0419018
0.0640538
0.0623601
0.0607023
0.0593008
0.0581573
0.0570712
0.0559989
0.0548954
0.0537237
0.0524856
0.0511134
0.0496525
0.0479541
0.046181
0.0440301
0.0419246
0.0683324
0.0628542
0.0609858
0.0593266
0.0581646
0.057069
0.0560036
0.0549133
0.0537562
0.0525311
0.0511745
0.0497266
0.0480498
0.046287
0.0441699
0.0420557
0.0596874
0.0596814
0.0592674
0.0587966
0.0581628
0.0574826
0.0567372
0.0559883
0.0551887
0.0544453
0.0535585
0.0528558
0.0515287
0.0506343
0.0464996
0.0420415
0.0597332
0.0597261
0.0592693
0.0587578
0.058079
0.057351
0.0565526
0.055738
0.0548618
0.0540123
0.0530101
0.0521324
0.0506925
0.0496362
0.0461676
0.0436297
0.0599161
0.0598971
0.0593591
0.0587796
0.0580332
0.057241
0.0563769
0.0554828
0.0545123
0.053527
0.0523648
0.0512245
0.0495465
0.0480266
0.0447318
0.0422258
0.0603061
0.0602431
0.0595597
0.0588725
0.0580396
0.0571758
0.0562514
0.0552948
0.0542615
0.0531942
0.0519589
0.0507026
0.0490054
0.0473793
0.0445472
0.042245
0.060929
0.0607379
0.0598391
0.0589957
0.0580634
0.0571238
0.056141
0.0551248
0.0540316
0.0528861
0.0515785
0.0502107
0.0484772
0.0467365
0.0441762
0.0419274
0.0620952
0.0614623
0.0602144
0.0591411
0.0581033
0.0570971
0.0560758
0.0550247
0.0539021
0.0527194
0.0513871
0.0499761
0.0482634
0.0464982
0.0441586
0.0419637
0.0639231
0.06223
0.0605944
0.0592171
0.0581041
0.0570502
0.0560105
0.0549387
0.0537965
0.0525869
0.0512358
0.049794
0.0480954
0.0463192
0.0441232
0.0419777
0.068202
0.0627257
0.0608796
0.0592446
0.0581133
0.0570492
0.0560164
0.0549591
0.0538322
0.0526364
0.0513021
0.0498741
0.0481988
0.0464337
0.0442752
0.0421205
0.0596083
0.0596012
0.0592056
0.0587569
0.0581537
0.0575086
0.0568021
0.0560958
0.0553395
0.0546407
0.0537881
0.053107
0.0517501
0.0507561
0.0463137
0.0413728
0.0596502
0.0596422
0.059203
0.0587128
0.0580632
0.057368
0.0566056
0.0558299
0.0549923
0.0541825
0.0532092
0.0523525
0.050887
0.0497676
0.0460775
0.0432532
0.0598293
0.0598096
0.0592887
0.0587293
0.0580106
0.057249
0.0564177
0.0555583
0.0546208
0.0536686
0.052528
0.0514031
0.0496994
0.0481347
0.0446778
0.0420143
0.0602159
0.0601524
0.0594858
0.0588182
0.0580116
0.0571766
0.0562828
0.0553577
0.054354
0.0533158
0.052099
0.0508567
0.0491402
0.0474851
0.0445419
0.0421442
0.0608359
0.0606443
0.059762
0.0589378
0.0580307
0.0571182
0.0561637
0.0551762
0.0541093
0.0529888
0.0516968
0.0503403
0.0485917
0.0468302
0.0441907
0.0418785
0.0620002
0.0613671
0.0601355
0.0590809
0.058068
0.057088
0.0560936
0.0550696
0.0539718
0.0528123
0.0514948
0.0500946
0.0483714
0.0465906
0.0441929
0.0419489
0.0638269
0.0621339
0.0605145
0.0591556
0.0580664
0.0570382
0.0560247
0.0549784
0.0538597
0.0526718
0.0513348
0.0499033
0.0481973
0.0464092
0.0441691
0.0419838
0.0681061
0.0626309
0.0608011
0.0591847
0.0580773
0.0570383
0.056032
0.0550015
0.0538991
0.0527261
0.0514076
0.0499918
0.0483119
0.0465371
0.0443382
0.042144
0.059554
0.0595462
0.0591643
0.0587328
0.0581542
0.0575381
0.0568657
0.056199
0.0554869
0.0548393
0.0540396
0.0534143
0.052092
0.0510977
0.0464971
0.0412168
0.0595926
0.0595838
0.0591578
0.0586841
0.0580575
0.0573894
0.0566581
0.0559178
0.0551184
0.0543521
0.0534208
0.0526084
0.0511625
0.0500432
0.0462254
0.0432053
0.0597684
0.0597482
0.0592399
0.058696
0.0579991
0.0572623
0.0564589
0.0556304
0.0547251
0.0538081
0.0526986
0.0516056
0.0499086
0.0483405
0.0447837
0.0420074
0.0601523
0.0600883
0.0594341
0.0587814
0.0579952
0.0571835
0.0563151
0.0554177
0.0544417
0.0534328
0.0522404
0.0510219
0.0493071
0.0476477
0.0446319
0.0421627
0.0607699
0.0605779
0.0597076
0.0588978
0.0580103
0.0571194
0.0561882
0.0552252
0.0541823
0.0530862
0.051813
0.050474
0.0487242
0.0469572
0.0442637
0.0419016
0.0619325
0.0612993
0.0600796
0.059039
0.0580452
0.0570859
0.0561135
0.0551123
0.0540363
0.0528983
0.051597
0.0502108
0.0484857
0.0466989
0.0442594
0.0419757
0.0637581
0.0620653
0.0604577
0.0591126
0.0580417
0.0570335
0.0560412
0.0550162
0.0539177
0.0527492
0.0514265
0.0500068
0.0482991
0.046505
0.0442322
0.0420139
0.0680376
0.0625634
0.0607454
0.0591429
0.0580538
0.0570346
0.0560497
0.0550412
0.0539597
0.0528068
0.0515035
0.0501002
0.0484199
0.04664
0.0444104
0.0421833
0.0595181
0.0595095
0.0591373
0.0587178
0.0581566
0.0575608
0.0569113
0.0562695
0.0555825
0.0549592
0.0541768
0.0535584
0.052215
0.0511614
0.0464014
0.0408696
0.0595541
0.0595447
0.0591278
0.0586657
0.0580555
0.0574064
0.0566963
0.0559788
0.0552018
0.0544573
0.0535405
0.052735
0.0512698
0.0501078
0.0461691
0.042999
0.0597274
0.0597067
0.0592072
0.0586742
0.0579927
0.0572736
0.0564895
0.0556815
0.0547958
0.0538976
0.0527997
0.0517126
0.0499986
0.0483998
0.0447541
0.0418868
0.0601092
0.0600447
0.0593992
0.058757
0.0579855
0.0571903
0.0563398
0.0554611
0.0545028
0.0535106
0.0523284
0.0511157
0.0493878
0.047707
0.0446279
0.0420995
0.0607249
0.0605326
0.0596707
0.0588712
0.0579976
0.0571221
0.0562076
0.0552617
0.0542346
0.0531534
0.0518893
0.0505557
0.048796
0.0470138
0.0442743
0.041871
0.0618863
0.0612529
0.0600415
0.059011
0.0580308
0.0570865
0.0561299
0.0551449
0.0540839
0.0529599
0.0516674
0.0502868
0.0485547
0.0467563
0.0442819
0.0419655
0.0637111
0.0620183
0.060419
0.0590837
0.0580259
0.0570322
0.0560553
0.0550457
0.0539616
0.0528063
0.0514923
0.0500783
0.0483658
0.0465628
0.0442627
0.0420176
0.0679908
0.0625172
0.0607075
0.0591149
0.0580388
0.0570341
0.0560651
0.0550725
0.054006
0.052867
0.0515735
0.0501771
0.0484936
0.046706
0.0444511
0.0421973
0.0594966
0.0594875
0.0591216
0.0587101
0.0581606
0.0575788
0.0569458
0.0563228
0.0556562
0.055055
0.0542935
0.0536929
0.0523535
0.0512814
0.0464358
0.0407371
0.0595307
0.059521
0.05911
0.0586555
0.0580564
0.0574203
0.0567252
0.0560246
0.0552655
0.05454
0.0536399
0.0528488
0.0513842
0.0502085
0.0462028
0.0429357
0.0597024
0.0596814
0.0591875
0.0586617
0.0579906
0.0572834
0.0565129
0.0557199
0.0548493
0.053967
0.0528822
0.0518061
0.0500905
0.0484814
0.0447855
0.0418587
0.0600826
0.0600179
0.0593781
0.0587427
0.0579808
0.0571968
0.0563588
0.0554935
0.0545484
0.0535698
0.0523981
0.051194
0.0494638
0.0477751
0.0446595
0.0420922
0.0606971
0.0605047
0.0596481
0.0588552
0.0579908
0.0571258
0.0562226
0.0552888
0.0542734
0.0532037
0.0519482
0.0506214
0.0488594
0.047071
0.0443043
0.0418735
0.0618578
0.0612242
0.0600181
0.058994
0.0580229
0.0570885
0.0561427
0.0551689
0.0541187
0.0530051
0.0517201
0.0503453
0.0486113
0.0468075
0.0443118
0.0419735
0.063682
0.0619892
0.0603951
0.0590662
0.0580171
0.057033
0.0560663
0.0550673
0.0539933
0.0528476
0.0515405
0.0501317
0.0484177
0.0466102
0.0442931
0.0420299
0.0679617
0.0624885
0.0606842
0.059098
0.0580304
0.0570353
0.0560769
0.0550953
0.0540392
0.0529102
0.051624
0.0502334
0.0485489
0.0467574
0.0444863
0.0422145
0.0594865