/*--------------------------------*- C++ -*----------------------------------*\
| =========                 |                                                 |
| \\      /  F ield         | OpenFOAM: The Open Source CFD Toolbox           |
|  \\    /   O peration     | Version:  v1912                                 |
|   \\  /    A nd           | Website:  www.openfoam.com                      |
|    \\/     M anipulation  |                                                 |
\*---------------------------------------------------------------------------*/
FoamFile
{
    version     2.0;
    format      ascii;
    class       surfaceScalarField;
    location    "0.3/fluid";
    object      phi;
}
// * * * * * * * * * * * * * * * * * * * * * * * * * * * * * * * * * * * * * //

dimensions      [0 3 -1 0 0 0 0];
oriented        oriented;


internalField   nonuniform List<scalar> 
41600
(
5.13111e-05
1.13877e-05
2.67913e-07
-4.66641e-07
4.36027e-05
8.01234e-06
1.93894e-07
-4.97851e-07
3.88112e-05
5.07798e-06
-1.37303e-07
-1.49242e-07
3.63163e-05
2.72251e-06
-5.70494e-07
3.42967e-07
3.49247e-05
1.55107e-06
-1.12293e-06
9.63441e-07
3.40197e-05
1.00078e-06
-1.81066e-06
1.71486e-06
3.32666e-05
7.90182e-07
-2.67115e-06
2.63408e-06
3.25025e-05
7.39009e-07
-3.7552e-06
3.78027e-06
3.1629e-05
7.74035e-07
-5.1349e-06
5.23441e-06
3.05615e-05
8.4608e-07
-6.92213e-06
7.14355e-06
2.92021e-05
9.42201e-07
-9.27301e-06
9.69013e-06
2.73646e-05
9.85987e-07
-1.23966e-05
1.32482e-05
2.47329e-05
1.00499e-06
-1.67176e-05
1.83443e-05
2.04767e-05
6.75381e-07
-2.2273e-05
2.58538e-05
1.305e-05
3.72284e-07
-2.94104e-05
3.64648e-05
-1.95138e-06
-2.61331e-05
4.11345e-05
6.5276e-05
8.86934e-06
2.58031e-07
-5.1574e-07
6.50961e-05
8.60179e-06
7.05883e-08
-4.80103e-07
6.40837e-05
6.49507e-06
-4.40311e-07
3.56129e-08
6.28703e-05
4.26921e-06
-1.10171e-06
7.68375e-07
6.17402e-05
2.92195e-06
-1.93999e-06
1.69921e-06
6.06813e-05
2.20929e-06
-2.99261e-06
2.84299e-06
5.95996e-05
1.93614e-06
-4.32095e-06
4.25676e-06
5.83886e-05
1.92542e-06
-6.00675e-06
6.03127e-06
5.69442e-05
2.08959e-06
-8.16386e-06
8.29271e-06
5.51279e-05
2.36908e-06
-1.09662e-05
1.12595e-05
5.27729e-05
2.73793e-06
-1.46554e-05
1.52146e-05
4.95009e-05
3.11969e-06
-1.9565e-05
2.07033e-05
4.47932e-05
3.51592e-06
-2.62913e-05
2.84881e-05
3.70106e-05
3.61529e-06
-3.49831e-05
3.98257e-05
2.42634e-05
3.49655e-06
-4.56097e-05
5.52326e-05
8.87049e-07
-4.03571e-05
6.1782e-05
6.58709e-05
5.76538e-06
2.52541e-07
-5.19485e-07
6.76381e-05
7.26192e-06
4.12625e-08
-4.68629e-07
6.82229e-05
6.33471e-06
-4.96985e-07
7.25752e-08
6.80034e-05
4.83987e-06
-1.18721e-06
8.36029e-07
6.74212e-05
3.75935e-06
-2.06058e-06
1.80544e-06
6.66392e-05
3.15119e-06
-3.15893e-06
2.99896e-06
6.56892e-05
2.95679e-06
-4.5468e-06
4.47614e-06
6.45257e-05
3.06717e-06
-6.31033e-06
6.33215e-06
6.30665e-05
3.41828e-06
-8.56856e-06
8.69899e-06
6.11692e-05
3.96515e-06
-1.15062e-05
1.18075e-05
5.86402e-05
4.68758e-06
-1.53763e-05
1.59556e-05
5.50439e-05
5.52957e-06
-2.05424e-05
2.17289e-05
4.9771e-05
6.48236e-06
-2.7622e-05
2.99284e-05
4.10069e-05
7.25829e-06
-3.68292e-05
4.19503e-05
2.66779e-05
7.59236e-06
-4.80753e-05
5.83085e-05
4.47939e-06
-4.27484e-05
6.58339e-05
6.46321e-05
3.90053e-06
2.6715e-07
-5.34399e-07
6.65259e-05
5.79767e-06
6.89994e-08
-4.98596e-07
6.76546e-05
5.63255e-06
-4.58203e-07
3.17477e-08
6.80325e-05
4.8148e-06
-1.13546e-06
7.82623e-07
6.79261e-05
4.12245e-06
-1.99206e-06
1.73531e-06
6.74871e-05
3.75201e-06
-3.0676e-06
2.90577e-06
6.67825e-05
3.73439e-06
-4.42384e-06
4.35087e-06
6.58016e-05
4.02922e-06
-6.14464e-06
6.16348e-06
6.44843e-05
4.60888e-06
-8.34515e-06
8.47183e-06
6.26933e-05
5.45955e-06
-1.12093e-05
1.1506e-05
6.02245e-05
6.58138e-06
-1.49837e-05
1.55586e-05
5.6612e-05
7.95669e-06
-2.00442e-05
2.12296e-05
5.11932e-05
9.58393e-06
-2.69958e-05
2.93129e-05
4.20907e-05
1.11847e-05
-3.61255e-05
4.13017e-05
2.71044e-05
1.22054e-05
-4.73485e-05
5.77218e-05
8.16003e-06
-4.23453e-05
6.5769e-05
6.39084e-05
2.75855e-06
2.93876e-07
-5.60297e-07
6.55878e-05
4.5476e-06
1.25326e-07
-5.54623e-07
6.68401e-05
4.80629e-06
-3.77368e-07
-4.87544e-08
6.75219e-05
4.48565e-06
-1.02975e-06
6.77109e-07
6.77412e-05
4.16032e-06
-1.85462e-06
1.59743e-06
6.75979e-05
4.05867e-06
-2.88605e-06
2.72269e-06
6.71532e-05
4.2552e-06
-4.18001e-06
4.10396e-06
6.64089e-05
4.76009e-06
-5.81451e-06
5.82794e-06
6.53192e-05
5.58073e-06
-7.8955e-06
8.01335e-06
6.37537e-05
6.74311e-06
-1.05994e-05
1.08813e-05
6.15044e-05
8.27987e-06
-1.41545e-05
1.47053e-05
5.80729e-05
1.02438e-05
-1.894e-05
2.00844e-05
5.27258e-05
1.26819e-05
-2.55229e-05
2.7772e-05
4.34321e-05
1.54096e-05
-3.42932e-05
3.9362e-05
2.77631e-05
1.76806e-05
-4.51442e-05
5.5338e-05
1.27665e-05
-4.07043e-05
6.38609e-05
6.35541e-05
1.97023e-06
3.26243e-07
-5.91981e-07
6.50466e-05
3.48397e-06
1.9523e-07
-6.24145e-07
6.63259e-05
3.95296e-06
-2.76465e-07
-1.49495e-07
6.71896e-05
3.97484e-06
-8.98402e-07
5.4555e-07
6.76474e-05
3.96076e-06
-1.68454e-06
1.42633e-06
6.77542e-05
4.11748e-06
-2.6618e-06
2.49615e-06
6.75564e-05
4.53324e-06
-3.87903e-06
3.79881e-06
6.70587e-05
5.25151e-06
-5.40671e-06
5.41299e-06
6.62229e-05
6.31034e-06
-7.3394e-06
7.44557e-06
6.49222e-05
7.78187e-06
-9.84306e-06
1.0105e-05
6.29428e-05
9.74165e-06
-1.31227e-05
1.36403e-05
5.97517e-05
1.23502e-05
-1.75582e-05
1.8643e-05
5.45449e-05
1.57426e-05
-2.36619e-05
2.5808e-05
4.51064e-05
1.99585e-05
-3.19512e-05
3.68408e-05
2.873e-05
2.41796e-05
-4.22695e-05
5.2147e-05
1.88167e-05
-3.86185e-05
6.12982e-05
6.34103e-05
1.32532e-06
3.63799e-07
-6.29213e-07
6.4814e-05
2.50921e-06
2.76226e-07
-7.05172e-07
6.61228e-05
3.07062e-06
-1.59435e-07
-2.66973e-07
6.71188e-05
3.33266e-06
-7.46113e-07
3.92238e-07
6.7766e-05
3.57376e-06
-1.48699e-06
1.22677e-06
6.80965e-05
3.9563e-06
-2.40007e-06
2.23079e-06
6.81513e-05
4.56489e-06
-3.52471e-06
3.43825e-06
6.79462e-05
5.4613e-06
-4.92e-06
4.91531e-06
6.74653e-05
6.70442e-06
-6.66265e-06
6.74954e-06
6.66136e-05
8.40799e-06
-8.89637e-06
9.12194e-06
6.52186e-05
1.06876e-05
-1.17823e-05
1.22312e-05
6.27751e-05
1.38489e-05
-1.56688e-05
1.66135e-05
5.84786e-05
1.81714e-05
-2.09474e-05
2.28152e-05
4.97363e-05
2.43781e-05
-2.82429e-05
3.25656e-05
3.31706e-05
3.20033e-05
-3.72073e-05
4.59492e-05
3.10598e-05
-3.45385e-05
5.54659e-05
6.33708e-05
4.04236e-07
-6.69708e-07
7.19963e-07
6.47677e-05
3.63399e-07
-7.92869e-07
1.5418e-06
6.61352e-05
-3.35388e-08
-3.93907e-07
2.13061e-06
6.72495e-05
-5.82642e-07
2.2707e-07
2.57386e-06
6.80563e-05
-1.27547e-06
1.01258e-06
3.02986e-06
6.85796e-05
-2.12057e-06
1.94702e-06
3.60656e-06
6.88616e-05
-3.14753e-06
3.05423e-06
4.37621e-06
6.89286e-05
-4.40362e-06
4.38745e-06
5.41047e-06
6.87824e-05
-5.94798e-06
6.01542e-06
6.78319e-06
6.83546e-05
-7.9013e-06
8.09097e-06
8.64608e-06
6.75086e-05
-1.03825e-05
1.07657e-05
1.11505e-05
6.57772e-05
-1.3705e-05
1.4516e-05
1.47693e-05
6.24269e-05
-1.81407e-05
1.97481e-05
1.99143e-05
5.46935e-05
-2.44229e-05
2.8208e-05
2.83263e-05
3.91465e-05
-3.20549e-05
3.97372e-05
3.9868e-05
-3.10727e-05
5.05574e-05
5.07215e-05
5.12451e-05
1.1393e-05
1.29789e-07
4.34214e-05
8.02758e-06
-1.00337e-08
3.85084e-05
5.09542e-06
-3.19732e-07
3.58953e-05
2.7414e-06
-6.98796e-07
3.43806e-05
1.57466e-06
-1.18286e-06
3.33339e-05
1.03201e-06
-1.79599e-06
3.24046e-05
8.32479e-07
-2.57428e-06
3.14131e-05
7.96208e-07
-3.55993e-06
3.02404e-05
8.52014e-07
-4.81424e-06
2.87823e-05
9.52057e-07
-6.41604e-06
2.69086e-05
1.08948e-06
-8.48885e-06
2.4435e-05
1.1921e-06
-1.1115e-05
2.09953e-05
1.30597e-06
-1.45839e-05
1.60355e-05
1.13973e-06
-1.84529e-05
8.26348e-06
1.00716e-06
-2.26456e-05
-8.62936e-07
-1.70067e-05
6.51845e-05
8.8836e-06
8.29525e-08
6.48436e-05
8.63425e-06
-1.95125e-07
6.36467e-05
6.53769e-06
-6.8572e-07
6.22423e-05
4.32015e-06
-1.276e-06
6.09086e-05
2.98594e-06
-2.01758e-06
5.96154e-05
2.29281e-06
-2.96023e-06
5.8244e-05
2.04767e-06
-4.16478e-06
5.66598e-05
2.07501e-06
-5.70136e-06
5.47236e-05
2.29111e-06
-7.66674e-06
5.22592e-05
2.63864e-06
-1.01883e-05
4.90465e-05
3.10033e-06
-1.34536e-05
4.46948e-05
3.59851e-06
-1.76197e-05
3.86267e-05
4.1556e-06
-2.30728e-05
2.96363e-05
4.44068e-06
-2.92937e-05
1.62526e-05
4.47543e-06
-3.56942e-05
1.81057e-06
-2.6778e-05
6.57777e-05
5.78681e-06
7.16465e-08
6.73786e-05
7.30942e-06
-2.34796e-07
6.77715e-05
6.40074e-06
-7.52949e-07
6.7352e-05
4.9222e-06
-1.36978e-06
6.65564e-05
3.86377e-06
-2.14275e-06
6.55291e-05
3.28759e-06
-3.1265e-06
6.42764e-05
3.13882e-06
-4.38523e-06
6.27225e-05
3.3118e-06
-5.99322e-06
6.07481e-05
3.7485e-06
-8.05158e-06
5.81693e-05
4.40796e-06
-1.06967e-05
5.4735e-05
5.28231e-06
-1.4124e-05
4.99916e-05
6.31112e-06
-1.85116e-05
4.32673e-05
7.51151e-06
-2.42536e-05
3.31983e-05
8.53014e-06
-3.08497e-05
1.81627e-05
9.05127e-06
-3.76155e-05
5.42527e-06
-2.82005e-05
6.45405e-05
3.92819e-06
8.52239e-08
6.62704e-05
5.8586e-06
-2.10035e-07
6.72113e-05
5.71929e-06
-7.17614e-07
6.73947e-05
4.92518e-06
-1.32189e-06
6.70818e-05
4.26354e-06
-2.07891e-06
6.6406e-05
3.93695e-06
-3.04117e-06
6.54094e-05
3.98186e-06
-4.27028e-06
6.40517e-05
4.3633e-06
-5.83849e-06
6.22359e-05
5.06245e-06
-7.8433e-06
5.97827e-05
6.07254e-06
-1.04207e-05
5.64294e-05
7.41159e-06
-1.37598e-05
5.1688e-05
9.05791e-06
-1.80496e-05
4.48263e-05
1.10483e-05
-2.36709e-05
3.44085e-05
1.29992e-05
-3.01768e-05
1.86692e-05
1.43204e-05
-3.68784e-05
9.41306e-06
-2.76639e-05
6.38193e-05
2.79164e-06
1.11134e-07
6.53393e-05
4.62024e-06
-1.56308e-07
6.6411e-05
4.91069e-06
-6.40522e-07
6.69079e-05
4.61975e-06
-1.22121e-06
6.69328e-05
4.33253e-06
-1.94846e-06
6.65682e-05
4.28504e-06
-2.86956e-06
6.58518e-05
4.559e-06
-4.04072e-06
6.47574e-05
5.17222e-06
-5.52901e-06
6.32041e-05
6.14403e-06
-7.4238e-06
6.10207e-05
7.51191e-06
-9.8553e-06
5.79408e-05
9.33406e-06
-1.29971e-05
5.34379e-05
1.16657e-05
-1.70449e-05
4.66967e-05
1.46142e-05
-2.23477e-05
3.60933e-05
1.78616e-05
-2.85522e-05
1.95773e-05
2.06558e-05
-3.49636e-05
1.45501e-05
-2.6264e-05
6.34677e-05
2.00781e-06
1.424e-07
6.48067e-05
3.56592e-06
-8.94701e-08
6.59141e-05
4.07112e-06
-5.44286e-07
6.66043e-05
4.12735e-06
-1.09625e-06
6.68822e-05
4.15727e-06
-1.78717e-06
6.67866e-05
4.37655e-06
-2.65767e-06
6.63417e-05
4.88219e-06
-3.75733e-06
6.55262e-05
5.72765e-06
-5.14661e-06
6.42693e-05
6.96624e-06
-6.90469e-06
6.24045e-05
8.68752e-06
-9.15388e-06
5.96616e-05
1.10019e-05
-1.20476e-05
5.54719e-05
1.40851e-05
-1.5788e-05
4.89403e-05
1.81626e-05
-2.06786e-05
3.8213e-05
2.31262e-05
-2.64885e-05
2.08799e-05
2.82197e-05
-3.25002e-05
2.13411e-05
-2.45296e-05
6.33272e-05
1.36596e-06
1.7842e-07
6.45843e-05
2.5973e-06
-1.22596e-08
6.57313e-05
3.19769e-06
-4.33017e-07
6.65674e-05
3.49698e-06
-9.51816e-07
6.70523e-05
3.78573e-06
-1.60036e-06
6.72038e-05
4.23605e-06
-2.41106e-06
6.70439e-05
4.94227e-06
-3.42486e-06
6.6566e-05
5.97794e-06
-4.69245e-06
6.57277e-05
7.41951e-06
-6.27763e-06
6.44012e-05
9.40384e-06
-8.28613e-06
6.2368e-05
1.20889e-05
-1.08361e-05
5.90859e-05
1.58156e-05
-1.41171e-05
5.36615e-05
2.09837e-05
-1.83441e-05
4.37609e-05
2.82086e-05
-2.34247e-05
2.6153e-05
3.71755e-05
-2.85552e-05
3.45541e-05
-2.15985e-05
6.32912e-05
2.16972e-07
7.62022e-07
6.45489e-05
7.05663e-08
1.63241e-06
6.57655e-05
-3.13635e-07
2.26123e-06
6.6734e-05
-7.9709e-07
2.74288e-06
6.73969e-05
-1.4006e-06
3.24796e-06
6.77657e-05
-2.14781e-06
3.89453e-06
6.78661e-05
-3.07076e-06
4.76505e-06
6.77061e-05
-4.2099e-06
5.94423e-06
6.72665e-05
-5.61365e-06
7.52481e-06
6.64522e-05
-7.3702e-06
9.68705e-06
6.50918e-05
-9.56295e-06
1.26296e-05
6.26823e-05
-1.2366e-05
1.68862e-05
5.842e-05
-1.59043e-05
2.30096e-05
4.97139e-05
-2.02341e-05
3.2726e-05
3.3176e-05
-2.44878e-05
4.61464e-05
-1.90573e-05
5.57147e-05
5.11918e-05
1.13981e-05
3.99399e-08
4.32711e-05
8.04144e-06
-1.30813e-07
3.82494e-05
5.11172e-06
-4.09688e-07
3.55242e-05
2.75924e-06
-7.32901e-07
3.38881e-05
1.59672e-06
-1.14345e-06
3.26989e-05
1.06078e-06
-1.66758e-06
3.15904e-05
8.70764e-07
-2.33651e-06
3.03648e-05
8.46876e-07
-3.18126e-06
2.88787e-05
9.19081e-07
-4.24725e-06
2.7003e-05
1.03971e-06
-5.58001e-06
2.45718e-05
1.20468e-06
-7.26238e-06
2.14089e-05
1.34181e-06
-9.29389e-06
1.71748e-05
1.50122e-06
-1.1851e-05
1.17446e-05
1.40175e-06
-1.44244e-05
4.62406e-06
1.27281e-06
-1.67979e-05
-4.83199e-07
-1.18994e-05
6.51096e-05
8.89734e-06
-2.5877e-08
6.4632e-05
8.66491e-06
-3.41013e-07
6.32702e-05
6.57829e-06
-7.9054e-07
6.16865e-05
4.36881e-06
-1.30184e-06
6.01553e-05
3.04676e-06
-1.93645e-06
5.8631e-05
2.37166e-06
-2.74679e-06
5.69719e-05
2.15225e-06
-3.78714e-06
5.5015e-05
2.21429e-06
-5.11193e-06
5.25845e-05
2.47716e-06
-6.79434e-06
4.94659e-05
2.88468e-06
-8.91459e-06
4.53901e-05
3.42568e-06
-1.15988e-05
3.99785e-05
4.01789e-06
-1.48842e-05
3.27047e-05
4.69434e-06
-1.89921e-05
2.29955e-05
5.09493e-06
-2.32777e-05
1.04268e-05
5.17885e-06
-2.70316e-05
2.33526e-06
-1.91696e-05
6.57014e-05
5.80762e-06
-4.00162e-08
6.71611e-05
7.35486e-06
-3.84478e-07
6.73826e-05
6.46392e-06
-8.60057e-07
6.67757e-05
5.00091e-06
-1.39496e-06
6.57733e-05
3.96325e-06
-2.05682e-06
6.45043e-05
3.41699e-06
-2.90285e-06
6.2951e-05
3.31091e-06
-3.99055e-06
6.10077e-05
3.54231e-06
-5.378e-06
5.85164e-05
4.05866e-06
-7.14175e-06
5.52513e-05
4.82198e-06
-9.36895e-06
5.09086e-05
5.83487e-06
-1.21904e-05
4.50426e-05
7.02966e-06
-1.56573e-05
3.70306e-05
8.44319e-06
-1.99905e-05
2.61658e-05
9.65532e-06
-2.45453e-05
1.19318e-05
1.03104e-05
-2.85131e-05
6.23186e-06
-2.01652e-05
6.44658e-05
3.95502e-06
-2.80141e-08
6.60569e-05
5.917e-06
-3.63218e-07
6.68302e-05
5.80224e-06
-8.29243e-07
6.68313e-05
5.03057e-06
-1.3527e-06
6.6318e-05
4.3979e-06
-2.0002e-06
6.54083e-05
4.11259e-06
-2.82707e-06
6.4121e-05
4.21644e-06
-3.88855e-06
6.23863e-05
4.67953e-06
-5.241e-06
6.00681e-05
5.49144e-06
-6.95793e-06
5.69444e-05
6.65141e-06
-9.12633e-06
5.26971e-05
8.19408e-06
-1.18717e-05
4.68402e-05
1.00912e-05
-1.52542e-05
3.86815e-05
1.24142e-05
-1.94831e-05
2.74371e-05
1.46784e-05
-2.39554e-05
1.24495e-05
1.62772e-05
-2.78575e-05
1.06982e-05
-1.96807e-05
6.37469e-05
2.82359e-06
-4.32568e-09
6.51325e-05
4.68973e-06
-3.14597e-07
6.60434e-05
5.01028e-06
-7.59497e-07
6.6367e-05
4.74751e-06
-1.26174e-06
6.62028e-05
4.49633e-06
-1.88271e-06
6.56189e-05
4.50004e-06
-2.67314e-06
6.46309e-05
4.84737e-06
-3.68359e-06
6.31842e-05
5.5634e-06
-4.96621e-06
6.11605e-05
6.67914e-06
-6.58784e-06
5.83458e-05
8.24255e-06
-8.63165e-06
5.4417e-05
1.03368e-05
-1.1211e-05
4.88412e-05
1.30165e-05
-1.43944e-05
4.08283e-05
1.64467e-05
-1.83673e-05
2.93786e-05
2.01817e-05
-2.26058e-05
1.35052e-05
2.34885e-05
-2.63016e-05
1.65134e-05
-1.8574e-05
6.33979e-05
2.04387e-06
2.42269e-08
6.4608e-05
3.64407e-06
-2.53955e-07
6.55628e-05
4.18356e-06
-6.72354e-07
6.60906e-05
4.27234e-06
-1.14885e-06
6.61933e-05
4.34394e-06
-1.73749e-06
6.58963e-05
4.62254e-06
-2.48314e-06
6.52033e-05
5.21363e-06
-3.43065e-06
6.40666e-05
6.18034e-06
-4.6268e-06
6.238e-05
7.59119e-06
-6.13014e-06
5.99349e-05
9.55221e-06
-8.01852e-06
5.6405e-05
1.22088e-05
-1.03897e-05
5.12058e-05
1.57491e-05
-1.33215e-05
4.34532e-05
2.04867e-05
-1.69661e-05
3.18755e-05
2.61744e-05
-2.09035e-05
1.50457e-05
3.2143e-05
-2.43249e-05
2.42496e-05
-1.72201e-05
6.32606e-05
1.40475e-06
5.69836e-08
6.43954e-05
2.68104e-06
-1.84023e-07
6.53994e-05
3.31831e-06
-5.7179e-07
6.60857e-05
3.6529e-06
-1.01866e-06
6.64121e-05
3.98687e-06
-1.5697e-06
6.63846e-05
4.50162e-06
-2.26266e-06
6.60074e-05
5.30102e-06
-3.13509e-06
6.52513e-05
6.47008e-06
-4.22609e-06
6.40439e-05
8.10314e-06
-5.58217e-06
6.22207e-05
1.03595e-05
-7.27018e-06
5.95145e-05
1.34411e-05
-9.36228e-06
5.53614e-05
1.7721e-05
-1.19359e-05
4.88679e-05
2.37202e-05
-1.50842e-05
3.81845e-05
3.19479e-05
-1.85148e-05
2.08808e-05
4.22866e-05
-2.13951e-05
3.86926e-05
-1.51607e-05
6.32279e-05
9.19108e-08
8.01953e-07
6.43704e-05
-1.09155e-07
1.71827e-06
6.54542e-05
-4.64065e-07
2.38492e-06
6.62864e-05
-8.79371e-07
2.90294e-06
6.68084e-05
-1.39043e-06
3.45467e-06
6.70218e-05
-2.02737e-06
4.16776e-06
6.69376e-05
-2.82021e-06
5.13476e-06
6.65446e-05
-3.79995e-06
6.45313e-06
6.57998e-05
-5.00094e-06
8.23518e-06
6.45781e-05
-6.47815e-06
1.06892e-05
6.267e-05
-8.27814e-06
1.40644e-05
5.95491e-05
-1.04757e-05
1.89516e-05
5.44144e-05
-1.31034e-05
2.60541e-05
4.50558e-05
-1.60049e-05
3.70773e-05
2.87377e-05
-1.83478e-05
5.24646e-05
-1.33304e-05
6.17034e-05
5.11492e-05
1.14027e-05
-1.19669e-08
4.3149e-05
8.05378e-06
-1.84306e-07
3.80351e-05
5.12648e-06
-4.2236e-07
3.52136e-05
2.7756e-06
-6.86971e-07
3.34739e-05
1.617e-06
-1.02075e-06
3.21676e-05
1.08737e-06
-1.44861e-06
3.09206e-05
9.06515e-07
-1.99608e-06
2.95294e-05
8.95075e-07
-2.68507e-06
2.78452e-05
9.84558e-07
-3.54767e-06
2.57434e-05
1.12873e-06
-4.60688e-06
2.30678e-05
1.32744e-06
-5.91422e-06
1.96899e-05
1.51275e-06
-7.42872e-06
1.53429e-05
1.74236e-06
-9.2464e-06
1.00696e-05
1.75457e-06
-1.09057e-05
3.70448e-06
1.73141e-06
-1.21641e-05
8.28342e-08
-8.27778e-06
6.5049e-05
8.90989e-06
-8.20748e-08
6.44583e-05
8.69261e-06
-3.89162e-07
6.29563e-05
6.61512e-06
-7.77221e-07
6.12177e-05
4.41303e-06
-1.20067e-06
5.95165e-05
3.1019e-06
-1.72015e-06
5.77985e-05
2.44298e-06
-2.38435e-06
5.59097e-05
2.24671e-06
-3.23859e-06
5.36758e-05
2.34018e-06
-4.32308e-06
5.09104e-05
2.64573e-06
-5.69014e-06
4.74011e-05
3.10893e-06
-7.38548e-06
4.28916e-05
3.72493e-06
-9.48678e-06
3.7075e-05
4.41094e-06
-1.19658e-05
2.95428e-05
5.21221e-06
-1.49297e-05
2.00351e-05
5.75707e-06
-1.77725e-05
8.60279e-06
5.96654e-06
-1.98344e-05
3.02801e-06
-1.3512e-05
6.56397e-05
5.82667e-06
-9.6505e-08
6.69826e-05
7.39611e-06
-4.30831e-07
6.70583e-05
6.52122e-06
-8.41861e-07
6.62894e-05
5.07219e-06
-1.28525e-06
6.51088e-05
4.05299e-06
-1.82734e-06
6.36369e-05
3.5332e-06
-2.5211e-06
6.1843e-05
3.46469e-06
-3.41472e-06
5.96093e-05
3.74726e-06
-4.55136e-06
5.67663e-05
4.3329e-06
-5.98589e-06
5.30894e-05
5.18596e-06
-7.76905e-06
4.82873e-05
6.31771e-06
-9.9811e-06
4.19881e-05
7.65513e-06
-1.26023e-05
3.36932e-05
9.25183e-06
-1.57352e-05
2.30286e-05
1.06421e-05
-1.87657e-05
9.98465e-06
1.14438e-05
-2.09463e-05
7.05875e-06
-1.42113e-05
6.44056e-05
3.97956e-06
-8.64882e-08
6.58819e-05
5.97003e-06
-4.13448e-07
6.65129e-05
5.87737e-06
-8.16373e-07
6.63566e-05
5.12573e-06
-1.24997e-06
6.56706e-05
4.51868e-06
-1.77991e-06
6.45648e-05
4.26959e-06
-2.4576e-06
6.30456e-05
4.42469e-06
-3.32936e-06
6.1031e-05
4.95792e-06
-4.43706e-06
5.83738e-05
5.86527e-06
-5.83316e-06
5.48525e-05
7.14949e-06
-7.56853e-06
5.01606e-05
8.85711e-06
-9.71927e-06
4.38832e-05
1.09514e-05
-1.2273e-05
3.54472e-05
1.35276e-05
-1.53229e-05
2.43956e-05
1.60241e-05
-1.82859e-05
1.0572e-05
1.782e-05
-2.04101e-05
1.17634e-05
-1.38133e-05
6.36887e-05
2.85271e-06
-6.61702e-08
6.49634e-05
4.75271e-06
-3.7202e-07
6.5738e-05
5.1003e-06
-7.56964e-07
6.5912e-05
4.86258e-06
-1.17258e-06
6.5585e-05
4.64315e-06
-1.68021e-06
6.48174e-05
4.6915e-06
-2.32744e-06
6.36132e-05
5.10204e-06
-3.15679e-06
6.19067e-05
5.90514e-06
-4.20687e-06
5.9569e-05
7.14017e-06
-5.52506e-06
5.63861e-05
8.86062e-06
-7.15989e-06
5.20452e-05
1.11657e-05
-9.17864e-06
4.60783e-05
1.41012e-05
-1.15773e-05
3.78042e-05
1.78666e-05
-1.44323e-05
2.65323e-05
2.19125e-05
-1.72223e-05
1.17485e-05
2.55069e-05
-1.92047e-05
1.79079e-05
-1.297e-05
6.3342e-05
2.07662e-06
-4.16856e-08
6.44463e-05
3.71474e-06
-3.20231e-07
6.52719e-05
4.28495e-06
-6.82646e-07
6.56595e-05
4.40263e-06
-1.07649e-06
6.56113e-05
4.51081e-06
-1.55694e-06
6.51455e-05
4.84085e-06
-2.16672e-06
6.42556e-05
5.50499e-06
-2.9437e-06
6.28833e-05
6.57307e-06
-3.92238e-06
6.0913e-05
8.12408e-06
-5.14376e-06
5.81358e-05
1.02724e-05
-6.65309e-06
5.4234e-05
1.31841e-05
-8.50627e-06
4.86813e-05
1.70417e-05
-1.07092e-05
4.06908e-05
2.22063e-05
-1.33153e-05
2.92778e-05
2.83067e-05
-1.58847e-05
1.34413e-05
3.47024e-05
-1.76839e-05
2.60731e-05
-1.19441e-05
6.32074e-05
1.43982e-06
-1.36623e-08
6.42421e-05
2.75658e-06
-2.60556e-07
6.51254e-05
3.42685e-06
-5.96979e-07
6.56825e-05
3.79272e-06
-9.65837e-07
6.58721e-05
4.16631e-06
-1.41478e-06
6.56942e-05
4.73674e-06
-1.98066e-06
6.51443e-05
5.61531e-06
-2.69554e-06
6.41846e-05
6.89487e-06
-3.58818e-06
6.27357e-05
8.68152e-06
-4.69065e-06
6.06335e-05
1.11457e-05
-6.04139e-06
5.76206e-05
1.45136e-05
-7.67885e-06
5.31818e-05
1.9159e-05
-9.61438e-06
4.65073e-05
2.56606e-05
-1.18639e-05
3.59894e-05
3.44011e-05
-1.40912e-05
1.95362e-05
4.53262e-05
-1.55657e-05
4.09559e-05
-1.05074e-05
6.31777e-05
1.61492e-08
8.37921e-07
6.42263e-05
-1.96745e-07
1.79553e-06
6.51984e-05
-5.05297e-07
2.49601e-06
6.5913e-05
-8.47533e-07
3.04624e-06
6.63131e-05
-1.26293e-06
3.63876e-06
6.63953e-05
-1.78208e-06
4.4092e-06
6.61636e-05
-2.431e-06
5.45779e-06
6.56003e-05
-3.23233e-06
6.89059e-06
6.46576e-05
-4.20905e-06
8.83228e-06
6.32123e-05
-5.39205e-06
1.15049e-05
6.10663e-05
-6.8021e-06
1.51836e-05
5.77345e-05
-8.45461e-06
2.04696e-05
5.24904e-05
-1.03276e-05
2.81289e-05
4.33198e-05
-1.2196e-05
3.97627e-05
2.77419e-05
-1.33557e-05
5.59121e-05
-9.21829e-06
6.45856e-05
5.11157e-05
1.14065e-05
-3.4182e-08
4.30517e-05
8.0641e-06
-1.84377e-07
3.78623e-05
5.1389e-06
-3.71932e-07
3.496e-05
2.78938e-06
-5.7402e-07
3.31322e-05
1.63394e-06
-8.26926e-07
3.17256e-05
1.10934e-06
-1.15129e-06
3.03599e-05
9.35621e-07
-1.56603e-06
2.88264e-05
9.33564e-07
-2.08513e-06
2.69724e-05
1.03548e-06
-2.72914e-06
2.46767e-05
1.19563e-06
-3.5068e-06
2.17943e-05
1.41571e-06
-4.44754e-06
1.8239e-05
1.62946e-06
-5.50286e-06
1.38192e-05
1.89734e-06
-6.72401e-06
8.7178e-06
1.96784e-06
-7.7721e-06
3.00625e-06
1.98643e-06
-8.43899e-06
3.65387e-07
-5.63691e-06
6.50008e-05
8.92059e-06
-9.69512e-08
6.43191e-05
8.71613e-06
-3.59495e-07
6.2702e-05
6.64643e-06
-6.67636e-07
6.0834e-05
4.45063e-06
-9.93884e-07
5.8989e-05
3.14862e-06
-1.38987e-06
5.71065e-05
2.50312e-06
-1.89561e-06
5.50231e-05
2.32591e-06
-2.54552e-06
5.25555e-05
2.44497e-06
-3.36685e-06
4.951e-05
2.78477e-06
-4.39392e-06
4.56778e-05
3.29171e-06
-5.64943e-06
4.08192e-05
3.96506e-06
-7.17743e-06
3.46929e-05
4.72016e-06
-8.93028e-06
2.70069e-05
5.60951e-06
-1.09559e-05
1.77509e-05
6.24893e-06
-1.27975e-05
7.30631e-06
6.52957e-06
-1.3933e-05
3.48013e-06
-9.32039e-06
6.55907e-05
5.84301e-06
-1.0959e-07
6.68395e-05
7.43132e-06
-3.94805e-07
6.67954e-05
6.57009e-06
-7.21485e-07
6.58912e-05
5.13293e-06
-1.06333e-06
6.456e-05
4.12927e-06
-1.4768e-06
6.29157e-05
3.63166e-06
-2.00531e-06
6.0918e-05
3.5945e-06
-2.6856e-06
5.84392e-05
3.91954e-06
-3.54716e-06
5.53019e-05
4.56229e-06
-4.62609e-06
5.12845e-05
5.48852e-06
-5.94851e-06
4.61124e-05
6.71582e-06
-7.55975e-06
3.94818e-05
8.16563e-06
-9.41717e-06
3.10163e-05
9.90312e-06
-1.15633e-05
2.06081e-05
1.14244e-05
-1.35329e-05
8.6011e-06
1.23262e-05
-1.4736e-05
7.6844e-06
-9.81447e-06
6.43578e-05
4.00063e-06
-1.01861e-07
6.57418e-05
6.01537e-06
-3.81569e-07
6.6256e-05
5.9415e-06
-7.01917e-07
6.59681e-05
5.20685e-06
-1.03605e-06
6.51361e-05
4.62141e-06
-1.44005e-06
6.38635e-05
4.40276e-06
-1.95612e-06
6.21474e-05
4.60086e-06
-2.61959e-06
5.98962e-05
5.19273e-06
-3.45903e-06
5.69546e-05
6.1795e-06
-4.5088e-06
5.31035e-05
7.56641e-06
-5.79526e-06
4.80517e-05
9.40915e-06
-7.36081e-06
4.14498e-05
1.16629e-05
-9.16839e-06
3.28436e-05
1.44404e-05
-1.12539e-05
2.20389e-05
1.71179e-05
-1.31747e-05
9.23157e-06
1.90612e-05
-1.43378e-05
1.26253e-05
-9.52265e-06
6.36426e-05
2.87768e-06
-8.58258e-08
6.48284e-05
4.80652e-06
-3.49019e-07
6.54911e-05
5.17709e-06
-6.55264e-07
6.55402e-05
4.96061e-06
-9.75351e-07
6.50754e-05
4.76799e-06
-1.36204e-06
6.41514e-05
4.85396e-06
-1.8546e-06
6.27633e-05
5.31767e-06
-2.48552e-06
6.08364e-05
6.1938e-06
-3.28104e-06
5.82342e-05
7.5286e-06
-4.27194e-06
5.47443e-05
9.37968e-06
-5.48331e-06
5.00675e-05
1.18589e-05
-6.95159e-06
4.3796e-05
1.50038e-05
-8.64683e-06
3.53589e-05
1.90393e-05
-1.05941e-05
2.43167e-05
2.33329e-05
-1.23951e-05
1.04909e-05
2.71496e-05
-1.34673e-05
1.90693e-05
-8.92305e-06
6.32979e-05
2.10463e-06
-6.65127e-08
6.43174e-05
3.77505e-06
-3.08264e-07
6.50373e-05
4.37137e-06
-5.96845e-07
6.53078e-05
4.51353e-06
-8.99949e-07
6.51318e-05
4.65264e-06
-1.26555e-06
6.45222e-05
5.02605e-06
-1.72921e-06
6.34644e-05
5.75169e-06
-2.31994e-06
6.18919e-05
6.90494e-06
-3.06104e-06
5.96822e-05
8.57338e-06
-3.97878e-06
5.66273e-05
1.08778e-05
-5.09637e-06
5.24214e-05
1.40011e-05
-6.44261e-06
4.65921e-05
1.81199e-05
-7.99596e-06
3.84526e-05
2.36302e-05
-9.76672e-06
2.72527e-05
3.00631e-05
-1.1415e-05
1.22963e-05
3.67932e-05
-1.2371e-05
2.76137e-05
-8.19222e-06
6.31656e-05
1.46977e-06
-4.44359e-08
6.41205e-05
2.82097e-06
-2.61323e-07
6.49052e-05
3.51928e-06
-5.29555e-07
6.53544e-05
3.91165e-06
-8.13213e-07
6.5428e-05
4.31874e-06
-1.15445e-06
6.51216e-05
4.93618e-06
-1.58437e-06
6.44239e-05
5.88149e-06
-2.1277e-06
6.32904e-05
7.25404e-06
-2.80376e-06
6.16361e-05
9.16973e-06
-3.6327e-06
5.92985e-05
1.18079e-05
-4.63381e-06
5.60313e-05
1.54142e-05
-5.82468e-06
5.13652e-05
2.03619e-05
-7.19036e-06
4.45769e-05
2.72731e-05
-8.71845e-06
3.42615e-05
3.643e-05
-1.01427e-05
1.85753e-05
4.78209e-05
-1.09071e-05
4.2903e-05
-7.22135e-06
6.31383e-05
-2.0987e-08
8.68566e-07
6.41124e-05
-2.11167e-07
1.8613e-06
6.49935e-05
-4.57581e-07
2.5905e-06
6.56101e-05
-7.20524e-07
3.16802e-06
6.59067e-05
-1.0358e-06
3.79505e-06
6.58766e-05
-1.42977e-06
4.6139e-06
6.55185e-05
-1.92268e-06
5.73132e-06
6.48093e-05
-2.52959e-06
7.26046e-06
6.3698e-05
-3.26434e-06
9.33639e-06
6.20634e-05
-4.14176e-06
1.21922e-05
5.97195e-05
-5.16796e-06
1.6124e-05
5.62203e-05
-6.33357e-06
2.174e-05
5.09151e-05
-7.60339e-06
2.98542e-05
4.19552e-05
-8.79016e-06
4.19841e-05
2.70482e-05
-9.37127e-06
5.87434e-05
-6.33979e-06
6.70726e-05
5.10909e-05
1.14095e-05
-3.46465e-08
4.29794e-05
8.07218e-06
-1.45002e-07
3.77331e-05
5.14864e-06
-2.74295e-07
3.47698e-05
2.80028e-06
-4.11002e-07
3.28764e-05
1.64738e-06
-5.80881e-07
3.1397e-05
1.12687e-06
-7.98799e-07
2.99491e-05
9.5903e-07
-1.0772e-06
2.83234e-05
9.64918e-07
-1.42426e-06
2.63686e-05
1.07767e-06
-1.85201e-06
2.39717e-05
1.25236e-06
-2.3623e-06
2.10019e-05
1.49254e-06
-2.97026e-06
1.74009e-05
1.7338e-06
-3.63569e-06
1.30206e-05
2.03914e-06
-4.38289e-06
8.07835e-06
2.16177e-06
-4.99159e-06
2.73056e-06
2.22449e-06
-5.31569e-06
6.03436e-07
-3.50977e-06
6.4965e-05
8.92903e-06
-8.14856e-08
6.42151e-05
8.73461e-06
-2.71939e-07
6.25107e-05
6.67101e-06
-4.85694e-07
6.05445e-05
4.48021e-06
-7.07555e-07
5.85914e-05
3.18532e-06
-9.7467e-07
5.65877e-05
2.55031e-06
-1.3154e-06
5.43661e-05
2.38798e-06
-1.75282e-06
5.17407e-05
2.52708e-06
-2.30364e-06
4.8519e-05
2.89374e-06
-2.9883e-06
4.4503e-05
3.43521e-06
-3.81624e-06
3.94739e-05
4.15398e-06
-4.80978e-06
3.32379e-05
4.96443e-06
-5.92497e-06
2.55751e-05
5.92453e-06
-7.17846e-06
1.65676e-05
6.64004e-06
-8.26827e-06
6.71812e-06
6.98185e-06
-8.84086e-06
3.84072e-06
-5.83954e-06
6.55542e-05
5.85589e-06
-9.06853e-08
6.67324e-05
7.45902e-06
-2.97384e-07
6.65977e-05
6.60849e-06
-5.24225e-07
6.55907e-05
5.18062e-06
-7.56772e-07
6.4146e-05
4.189e-06
-1.03582e-06
6.23746e-05
3.7085e-06
-1.39204e-06
6.02316e-05
3.69544e-06
-1.85014e-06
5.7587e-05
4.05292e-06
-2.42832e-06
5.42638e-05
4.73898e-06
-3.14815e-06
5.00514e-05
5.72028e-06
-4.02119e-06
4.4697e-05
7.01883e-06
-5.07026e-06
3.79466e-05
8.55182e-06
-6.25407e-06
2.95002e-05
1.03925e-05
-7.58489e-06
1.93511e-05
1.20099e-05
-8.75378e-06
7.97362e-06
1.29853e-05
-9.36197e-06
8.15502e-06
-6.15514e-06
6.43223e-05
4.01724e-06
-8.54833e-08
6.56372e-05
6.05104e-06
-2.88474e-07
6.60628e-05
5.99187e-06
-5.10986e-07
6.56752e-05
5.27044e-06
-7.38203e-07
6.47332e-05
4.70168e-06
-1.01078e-06
6.33377e-05
4.50638e-06
-1.35851e-06
6.14816e-05
4.7372e-06
-1.80522e-06
5.90707e-05
5.37325e-06
-2.36849e-06
5.59506e-05
6.41912e-06
-3.06879e-06
5.19122e-05
7.88125e-06
-3.91788e-06
4.66859e-05
9.82119e-06
-4.93679e-06
3.997e-05
1.21872e-05
-6.08791e-06
3.13843e-05
1.51035e-05
-7.37935e-06
2.0833e-05
1.79032e-05
-8.51651e-06
8.63861e-06
1.99411e-05
-9.09923e-06
1.32351e-05
-5.96411e-06
6.36085e-05
2.89735e-06
-7.43981e-08
6.47277e-05
4.84885e-06
-2.66053e-07
6.53058e-05
5.23737e-06
-4.78881e-07
6.526e-05
5.03736e-06
-6.96468e-07
6.46915e-05
4.86538e-06
-9.57242e-07
6.36522e-05
4.98006e-06
-1.289e-06
6.21336e-05
5.48396e-06
-1.71369e-06
6.00587e-05
6.41456e-06
-2.24742e-06
5.72917e-05
7.82256e-06
-2.90838e-06
5.36299e-05
9.76741e-06
-3.70772e-06
4.87939e-05
1.23686e-05
-4.6629e-06
4.24203e-05
1.56553e-05
-5.74134e-06
3.40067e-05
1.98677e-05
-6.94479e-06
2.3205e-05
2.43168e-05
-8.00704e-06
9.95337e-06
2.82617e-05
-8.53639e-06
1.9846e-05
-5.58052e-06
6.32652e-05
2.12668e-06
-6.10801e-08
6.42214e-05
3.82244e-06
-2.37978e-07
6.48614e-05
4.43915e-06
-4.38652e-07
6.50432e-05
4.60026e-06
-6.44601e-07
6.47709e-05
4.7631e-06
-8.90995e-07
6.40553e-05
5.16949e-06
-1.20312e-06
6.28786e-05
5.94134e-06
-1.6006e-06
6.11722e-05
7.15757e-06
-2.09766e-06
5.88146e-05
8.91113e-06
-2.70966e-06
5.56067e-05
1.13257e-05
-3.44677e-06
5.12609e-05
1.45936e-05
-4.32183e-06
4.53452e-05
1.88833e-05
-5.30822e-06
3.72348e-05
2.46106e-05
-6.39913e-06
2.62619e-05
3.12402e-05
-7.36552e-06
1.18301e-05
3.81491e-05
-7.8266e-06
2.85943e-05
-5.11049e-06
6.31348e-05
1.49329e-06
-4.58522e-08
6.403e-05
2.8715e-06
-2.05635e-07
6.47403e-05
3.59169e-06
-3.9233e-07
6.51078e-05
4.00457e-06
-5.84989e-07
6.50939e-05
4.43733e-06
-8.14801e-07
6.46927e-05
5.09041e-06
-1.10406e-06
6.38902e-05
6.08569e-06
-1.4696e-06
6.26406e-05
7.52658e-06
-1.92314e-06
6.08603e-05
9.53498e-06
-2.47626e-06
5.83952e-05
1.22941e-05
-3.13711e-06
5.50157e-05
1.60604e-05
-3.91199e-06
5.02875e-05
2.12008e-05
-4.77974e-06
4.35409e-05
2.83598e-05
-5.72103e-06
3.34404e-05
3.77512e-05
-6.55319e-06
1.82149e-05
4.93768e-05
-6.90938e-06
4.40993e-05
-4.51144e-06
6.31094e-05
-2.96971e-08
8.92598e-07
6.4028e-05
-1.71094e-07
1.91286e-06
6.48404e-05
-3.42801e-07
2.66447e-06
6.53827e-05
-5.21295e-07
3.26309e-06
6.56011e-05
-7.33431e-07
3.91653e-06
6.5488e-05
-9.98306e-07
4.77202e-06
6.504e-05
-1.3298e-06
5.9408e-06
6.42336e-05
-1.73697e-06
7.54041e-06
6.30196e-05
-2.22744e-06
9.71208e-06
6.12851e-05
-2.80697e-06
1.26938e-05
5.88599e-05
-3.47511e-06
1.67927e-05
5.53284e-05
-4.21551e-06
2.26142e-05
5.00863e-05
-4.99638e-06
3.09949e-05
4.13389e-05
-5.68479e-06
4.33932e-05
2.68374e-05
-5.94154e-06
6.04485e-05
-3.96013e-06
6.85571e-05