/*--------------------------------*- C++ -*----------------------------------*\
| =========                 |                                                 |
| \\      /  F ield         | OpenFOAM: The Open Source CFD Toolbox           |
|  \\    /   O peration     | Version:  v1912                                 |
|   \\  /    A nd           | Website:  www.openfoam.com                      |
|    \\/     M anipulation  |                                                 |
\*---------------------------------------------------------------------------*/
FoamFile
{
    version     2.0;
    format      ascii;
    class       pointVectorField;
    location    "0.3/fluid";
    object      pointMotionU;
}
// * * * * * * * * * * * * * * * * * * * * * * * * * * * * * * * * * * * * * //

dimensions      [0 1 -1 0 0 0 0];


internalField   nonuniform List<vector> 
16859
(
(0 0 0)
(0 0 0)
(0 0 0)
(0 0 0)
(0 0 0)
(0 0 0)
(0 0 0)
(0 0 0)
(0 0 0)
(0 0 0)
(0 0 0)
(0 0 0)
(0 0 0)
(0 0 0)
(0 0 0)
(0 0 0)
(3.14808e-08 5.49556e-08 2.91955e-08)
(0 0 0)
(7.48741e-10 -1.91088e-09 1.47397e-09)
(1.42427e-09 -3.65957e-09 2.87033e-09)
(2.04879e-09 -5.31801e-09 4.28752e-09)
(2.64199e-09 -6.93908e-09 5.81174e-09)
(3.22238e-09 -8.55455e-09 7.52132e-09)
(3.80916e-09 -1.01735e-08 9.49001e-09)
(4.42496e-09 -1.17767e-08 1.17879e-08)
(5.10095e-09 -1.33039e-08 1.44812e-08)
(5.88866e-09 -1.46312e-08 1.76322e-08)
(6.88653e-09 -1.55288e-08 2.1302e-08)
(8.29689e-09 -1.55798e-08 2.55626e-08)
(1.05647e-08 -1.40019e-08 3.05481e-08)
(1.46494e-08 -9.28122e-09 3.66204e-08)
(2.24289e-08 1.44953e-09 4.4713e-08)
(3.52546e-08 2.04641e-08 5.54493e-08)
(6.20869e-08 6.18225e-08 7.02263e-08)
(0 0 0)
(1.48433e-09 -3.76548e-09 2.911e-09)
(2.82347e-09 -7.21431e-09 5.66843e-09)
(4.06136e-09 -1.04887e-08 8.46536e-09)
(5.237e-09 -1.36935e-08 1.14702e-08)
(6.38713e-09 -1.68965e-08 1.48371e-08)
(7.54965e-09 -2.01241e-08 1.87118e-08)
(8.76774e-09 -2.33508e-08 2.3232e-08)
(1.00976e-08 -2.64797e-08 2.85267e-08)
(1.16252e-08 -2.93072e-08 3.47136e-08)
(1.34991e-08 -3.14668e-08 4.18936e-08)
(1.59979e-08 -3.23363e-08 5.01419e-08)
(1.96774e-08 -3.08989e-08 5.95206e-08)
(2.55693e-08 -2.56465e-08 7.0137e-08)
(3.5234e-08 -1.48805e-08 8.2165e-08)
(4.85281e-08 1.76605e-10 9.44408e-08)
(7.82586e-08 2.05562e-08 1.15428e-07)
(0 0 0)
(2.19436e-09 -5.50636e-09 4.27614e-09)
(4.17406e-09 -1.05552e-08 8.32546e-09)
(6.00405e-09 -1.53574e-08 1.2429e-08)
(7.74194e-09 -2.00712e-08 1.68316e-08)
(9.44257e-09 -2.48059e-08 2.17587e-08)
(1.1162e-08 -2.96172e-08 2.74234e-08)
(1.29622e-08 -3.44946e-08 3.40281e-08)
(1.49189e-08 -3.9341e-08 4.17632e-08)
(1.71357e-08 -4.39379e-08 5.08008e-08)
(1.97644e-08 -4.78929e-08 6.12751e-08)
(2.30549e-08 -5.05652e-08 7.32477e-08)
(2.74389e-08 -5.10006e-08 8.66606e-08)
(3.36139e-08 -4.8021e-08 1.01286e-07)
(4.25101e-08 -4.07874e-08 1.16635e-07)
(5.3648e-08 -3.10565e-08 1.3075e-07)
(7.77984e-08 -1.75239e-08 1.51096e-07)
(0 0 0)
(2.86651e-09 -7.07544e-09 5.5373e-09)
(5.45234e-09 -1.35711e-08 1.07777e-08)
(7.84214e-09 -1.97639e-08 1.60811e-08)
(1.01114e-08 -2.58668e-08 2.17607e-08)
(1.23326e-08 -3.20359e-08 2.81055e-08)
(1.45797e-08 -3.83677e-08 3.53896e-08)
(1.69337e-08 -4.48887e-08 4.38751e-08)
(1.94895e-08 -5.15391e-08 5.38124e-08)
(2.23641e-08 -5.81459e-08 6.54321e-08)
(2.57033e-08 -6.438e-08 7.89172e-08)
(2.97e-08 -6.96915e-08 9.43491e-08)
(3.46033e-08 -7.32511e-08 1.11614e-07)
(4.06948e-08 -7.39732e-08 1.30239e-07)
(4.82246e-08 -7.0822e-08 1.49138e-07)
(5.6517e-08 -6.43931e-08 1.65322e-07)
(7.56112e-08 -5.16305e-08 1.85345e-07)
(0 0 0)
(3.48903e-09 -8.41667e-09 6.6678e-09)
(6.63553e-09 -1.61534e-08 1.29718e-08)
(9.54186e-09 -2.35497e-08 1.93392e-08)
(1.23e-08 -3.08717e-08 2.61415e-08)
(1.4999e-08 -3.83254e-08 3.37212e-08)
(1.77306e-08 -4.6056e-08 4.24035e-08)
(2.05962e-08 -5.41432e-08 5.25025e-08)
(2.37144e-08 -6.25934e-08 6.43241e-08)
(2.72268e-08 -7.13256e-08 7.81617e-08)
(3.13025e-08 -8.0142e-08 9.42728e-08)
(3.61363e-08 -8.86751e-08 1.12826e-07)
(4.19215e-08 -9.62958e-08 1.33801e-07)
(4.87426e-08 -1.01955e-07 1.56753e-07)
(5.63877e-08 -1.03987e-07 1.80333e-07)
(6.36573e-08 -1.00922e-07 2.00398e-07)
(7.95814e-08 -8.64895e-08 2.22184e-07)
(0 0 0)
(4.05111e-09 -9.47692e-09 7.64685e-09)
(7.70246e-09 -1.81998e-08 1.48665e-08)
(1.10714e-08 -2.65634e-08 2.214e-08)
(1.42639e-08 -3.4883e-08 2.98848e-08)
(1.73833e-08 -4.34121e-08 3.84838e-08)
(2.05377e-08 -5.23464e-08 4.83007e-08)
(2.38487e-08 -6.18254e-08 5.96882e-08)
(2.74623e-08 -7.19353e-08 7.29971e-08)
(3.15592e-08 -8.27109e-08 8.8578e-08)
(3.63699e-08 -9.41307e-08 1.06774e-07)
(4.21914e-08 -1.06098e-07 1.27897e-07)
(4.93911e-08 -1.18381e-07 1.52179e-07)
(5.83257e-08 -1.30415e-07 1.7958e-07)
(6.90693e-08 -1.40791e-07 2.09226e-07)
(7.98952e-08 -1.46421e-07 2.363e-07)
(9.78145e-08 -1.3265e-07 2.64993e-07)
(0 0 0)
(4.54336e-09 -1.02087e-08 8.46049e-09)
(8.63496e-09 -1.96188e-08 1.64347e-08)
(1.24033e-08 -2.86691e-08 2.44424e-08)
(1.59646e-08 -3.77153e-08 3.29325e-08)
(1.94326e-08 -4.70513e-08 4.23139e-08)
(2.29272e-08 -5.6917e-08 5.29721e-08)
(2.65857e-08 -6.75061e-08 6.52806e-08)
(3.05767e-08 -7.89786e-08 7.96131e-08)
(3.51187e-08 -9.14762e-08 9.63531e-08)
(4.05102e-08 -1.05145e-07 1.15902e-07)
(4.71847e-08 -1.20166e-07 1.38697e-07)
(5.57962e-08 -1.36807e-07 1.6524e-07)
(6.73136e-08 -1.55443e-07 1.96084e-07)
(8.30111e-08 -1.76374e-07 2.3155e-07)
(1.01912e-07 -1.97313e-07 2.67617e-07)
(1.38812e-07 -2.2234e-07 3.16915e-07)
(0 0 0)
(4.95884e-09 -1.05735e-08 9.10259e-09)
(9.42005e-09 -2.03364e-08 1.76657e-08)
(1.35184e-08 -2.97565e-08 2.62318e-08)
(1.73753e-08 -3.9217e-08 3.52657e-08)
(2.11092e-08 -4.90397e-08 4.51865e-08)
(2.4845e-08 -5.94965e-08 5.63835e-08)
(2.87252e-08 -7.08198e-08 6.92285e-08)
(3.2926e-08 -8.32188e-08 8.40889e-08)
(3.76773e-08 -9.69005e-08 1.01338e-07)
(4.32985e-08 -1.121e-07 1.21367e-07)
(5.02607e-08 -1.29132e-07 1.44614e-07)
(5.92803e-08 -1.4847e-07 1.71609e-07)
(7.14288e-08 -1.70852e-07 2.0302e-07)
(8.81124e-08 -1.97293e-07 2.39561e-07)
(1.07846e-07 -2.25346e-07 2.77127e-07)
(1.66419e-07 -2.84757e-07 3.49075e-07)
(0 0 0)
(0 0 0)
(0 0 0)
(0 0 0)
(0 0 0)
(0 0 0)
(0 0 0)
(0 0 0)
(0 0 0)
(0 0 0)
(0 0 0)
(0 0 0)
(0 0 0)
(0 0 0)
(0 0 0)
(0 0 0)
(1.19162e-08 2.63146e-08 1.35281e-08)
(0 0 0)
(7.35601e-10 -1.95031e-09 1.42839e-09)
(1.39676e-09 -3.73515e-09 2.77965e-09)
(2.00308e-09 -5.42857e-09 4.14781e-09)
(2.57117e-09 -7.08602e-09 5.61517e-09)
(3.11543e-09 -8.74177e-09 7.2559e-09)
(3.64898e-09 -1.04071e-08 9.13848e-09)
(4.18501e-09 -1.20662e-08 1.13262e-08)
(4.7398e-09 -1.36651e-08 1.38759e-08)
(5.34039e-09 -1.50916e-08 1.68355e-08)
(6.04445e-09 -1.61399e-08 2.02404e-08)
(6.98604e-09 -1.64427e-08 2.41121e-08)
(8.4826e-09 -1.53283e-08 2.84725e-08)
(1.12355e-08 -1.15269e-08 3.34093e-08)
(1.65488e-08 -2.7729e-09 3.9172e-08)
(2.52356e-08 1.2601e-08 4.5554e-08)
(3.38575e-08 3.32726e-08 4.88337e-08)
(0 0 0)
(1.45918e-09 -3.84241e-09 2.82056e-09)
(2.7709e-09 -7.36176e-09 5.48861e-09)
(3.97422e-09 -1.07049e-08 8.18892e-09)
(5.10239e-09 -1.39816e-08 1.10821e-08)
(6.18449e-09 -1.72637e-08 1.43141e-08)
(7.24709e-09 -2.05814e-08 1.80199e-08)
(8.31608e-09 -2.39153e-08 2.23242e-08)
(9.42048e-09 -2.7179e-08 2.73389e-08)
(1.06022e-08 -3.01885e-08 3.31554e-08)
(1.19393e-08 -3.26157e-08 3.98311e-08)
(1.35975e-08 -3.39193e-08 4.73647e-08)
(1.59459e-08 -3.32493e-08 5.56644e-08)
(1.97173e-08 -2.94273e-08 6.45234e-08)
(2.60422e-08 -2.13874e-08 7.35397e-08)
(3.50364e-08 -1.05115e-08 8.15431e-08)
(4.4459e-08 -5.13148e-09 8.86988e-08)
(0 0 0)
(2.15947e-09 -5.61775e-09 4.14283e-09)
(4.10122e-09 -1.07691e-08 8.06076e-09)
(5.8836e-09 -1.56718e-08 1.2023e-08)
(7.5566e-09 -2.04903e-08 1.62628e-08)
(9.16474e-09 -2.53393e-08 2.09932e-08)
(1.07491e-08 -3.02795e-08 2.6412e-08)
(1.23492e-08 -3.53075e-08 3.27033e-08)
(1.40053e-08 -4.0338e-08 4.00335e-08)
(1.57646e-08 -4.51735e-08 4.85401e-08)
(1.76906e-08 -4.94635e-08 5.83061e-08)
(1.98941e-08 -5.26533e-08 6.93078e-08)
(2.25901e-08 -5.39611e-08 8.13356e-08)
(2.61743e-08 -5.25342e-08 9.38917e-08)
(3.12502e-08 -4.81033e-08 1.06052e-07)
(3.78119e-08 -4.25317e-08 1.16095e-07)
(4.32756e-08 -4.0802e-08 1.23289e-07)
(0 0 0)
(2.8249e-09 -7.21742e-09 5.3644e-09)
(5.36563e-09 -1.3844e-08 1.04349e-08)
(7.6992e-09 -2.01657e-08 1.55562e-08)
(9.89245e-09 -2.64023e-08 2.10268e-08)
(1.20061e-08 -3.27161e-08 2.71191e-08)
(1.40977e-08 -3.9209e-08 3.40882e-08)
(1.62235e-08 -4.59143e-08 4.21735e-08)
(1.84397e-08 -5.27821e-08 5.15957e-08)
(2.08022e-08 -5.96566e-08 6.25453e-08)
(2.33615e-08 -6.62423e-08 7.51494e-08)
(2.6157e-08 -7.20572e-08 8.94018e-08)
(2.91985e-08 -7.64032e-08 1.05048e-07)
(3.24325e-08 -7.84415e-08 1.21393e-07)
(3.57657e-08 -7.75753e-08 1.36995e-07)
(3.90329e-08 -7.45621e-08 1.49215e-07)
(4.09185e-08 -7.33368e-08 1.5652e-07)
(0 0 0)
(3.44415e-09 -8.58467e-09 6.45973e-09)
(6.54211e-09 -1.64767e-08 1.25599e-08)
(9.38835e-09 -2.40254e-08 1.87095e-08)
(1.2066e-08 -3.15052e-08 2.52623e-08)
(1.46525e-08 -3.91282e-08 3.25411e-08)
(1.72233e-08 -4.70449e-08 4.08491e-08)
(1.98561e-08 -5.53403e-08 5.04737e-08)
(2.26325e-08 -6.40272e-08 6.16871e-08)
(2.56364e-08 -7.30343e-08 7.47378e-08)
(2.89448e-08 -8.21823e-08 8.98203e-08)
(3.26019e-08 -9.11384e-08 1.07011e-07)
(3.65521e-08 -9.93358e-08 1.26145e-07)
(4.04943e-08 -1.05836e-07 1.46557e-07)
(4.3735e-08 -1.09174e-07 1.6657e-07)
(4.53886e-08 -1.08031e-07 1.82542e-07)
(4.40329e-08 -1.05488e-07 1.91687e-07)
(0 0 0)
(4.00632e-09 -9.66553e-09 7.40886e-09)
(7.6093e-09 -1.85627e-08 1.43958e-08)
(1.09188e-08 -2.70972e-08 2.14214e-08)
(1.40325e-08 -3.55929e-08 2.88828e-08)
(1.70432e-08 -4.43098e-08 3.71413e-08)
(2.0045e-08 -5.34482e-08 4.65358e-08)
(2.31388e-08 -6.31509e-08 5.73901e-08)
(2.64396e-08 -7.35064e-08 7.00172e-08)
(3.00807e-08 -8.45512e-08 8.47181e-08)
(3.42166e-08 -9.62665e-08 1.01765e-07)
(3.90186e-08 -1.08559e-07 1.21363e-07)
(4.46382e-08 -1.21197e-07 1.43568e-07)
(5.1073e-08 -1.33603e-07 1.68061e-07)
(5.78457e-08 -1.44294e-07 1.93509e-07)
(6.32948e-08 -1.5023e-07 2.15671e-07)
(6.01667e-08 -1.44407e-07 2.30523e-07)
(0 0 0)
(4.50156e-09 -1.04116e-08 8.19817e-09)
(8.54801e-09 -2.00091e-08 1.59164e-08)
(1.22612e-08 -2.92429e-08 2.36521e-08)
(1.57502e-08 -3.84776e-08 3.18324e-08)
(1.91201e-08 -4.80135e-08 4.08431e-08)
(2.24798e-08 -5.80947e-08 5.10438e-08)
(2.59507e-08 -6.89162e-08 6.27769e-08)
(2.96787e-08 -8.06364e-08 7.63767e-08)
(3.38484e-08 -9.33921e-08 9.21738e-08)
(3.87072e-08 -1.0732e-07 1.10493e-07)
(4.4606e-08 -1.22586e-07 1.31645e-07)
(5.20648e-08 -1.39426e-07 1.55918e-07)
(6.18536e-08 -1.58161e-07 1.83482e-07)
(7.49694e-08 -1.78951e-07 2.13921e-07)
(9.08826e-08 -1.99812e-07 2.43543e-07)
(1.03387e-07 -2.18388e-07 2.67554e-07)
(0 0 0)
(4.92222e-09 -1.07835e-08 8.82167e-09)
(9.34371e-09 -2.07404e-08 1.71111e-08)
(1.33937e-08 -3.03504e-08 2.53874e-08)
(1.7188e-08 -4.00057e-08 3.40929e-08)
(2.08386e-08 -5.00344e-08 4.36227e-08)
(2.44623e-08 -6.07119e-08 5.43403e-08)
(2.81911e-08 -7.22705e-08 6.65862e-08)
(3.21862e-08 -8.4915e-08 8.06884e-08)
(3.66577e-08 -9.88426e-08 9.69682e-08)
(4.18964e-08 -1.14272e-07 1.1574e-07)
(4.8331e-08 -1.31485e-07 1.37312e-07)
(5.66185e-08 -1.50903e-07 1.61998e-07)
(6.77658e-08 -1.73172e-07 1.90064e-07)
(8.31396e-08 -1.99067e-07 2.21416e-07)
(1.01875e-07 -2.26344e-07 2.52155e-07)
(1.38775e-07 -2.67709e-07 2.88537e-07)
(0 0 0)
(0 0 0)
(0 0 0)
(0 0 0)
(0 0 0)
(0 0 0)
(0 0 0)
(0 0 0)
(0 0 0)
(0 0 0)
(0 0 0)
(0 0 0)
(0 0 0)
(0 0 0)
(0 0 0)
(0 0 0)
(-1.79774e-09 8.32938e-09 2.7494e-09)
(0 0 0)
(7.18449e-10 -1.98472e-09 1.33016e-09)
(1.3612e-09 -3.80142e-09 2.58723e-09)
(1.94447e-09 -5.52577e-09 3.85748e-09)
(2.48086e-09 -7.21486e-09 5.21589e-09)
(2.97933e-09 -8.90548e-09 6.72933e-09)
(3.44499e-09 -1.06121e-08 8.45777e-09)
(3.87845e-09 -1.23244e-08 1.04542e-08)
(4.27531e-09 -1.39995e-08 1.27621e-08)
(4.62701e-09 -1.55483e-08 1.54084e-08)
(4.92579e-09 -1.68149e-08 1.83913e-08)
(5.17865e-09 -1.75449e-08 2.16558e-08)
(5.43002e-09 -1.7333e-08 2.50478e-08)
(5.7619e-09 -1.55575e-08 2.82248e-08)
(6.1404e-09 -1.14525e-08 3.04507e-08)
(5.93583e-09 -5.24776e-09 3.03956e-08)
(8.3799e-10 5.06699e-10 2.0511e-08)
(0 0 0)
(1.42623e-09 -3.90946e-09 2.62641e-09)
(2.70265e-09 -7.49055e-09 5.10819e-09)
(3.86195e-09 -1.08936e-08 7.61506e-09)
(4.92984e-09 -1.42319e-08 1.02938e-08)
(5.92525e-09 -1.75813e-08 1.32754e-08)
(6.85978e-09 -2.09773e-08 1.66783e-08)
(7.73623e-09 -2.44095e-08 2.06073e-08)
(8.54633e-09 -2.78093e-08 2.51486e-08)
(9.26899e-09 -3.10294e-08 3.03557e-08)
(9.87194e-09 -3.3819e-08 3.62229e-08)
(1.03217e-08 -3.57985e-08 4.26305e-08)
(1.0601e-08 -3.64619e-08 4.92465e-08)
(1.07021e-08 -3.53099e-08 5.53543e-08)
(1.04945e-08 -3.23738e-08 5.95822e-08)
(9.47375e-09 -2.93354e-08 6.01052e-08)
(4.73407e-09 -3.19287e-08 5.22292e-08)
(0 0 0)
(2.11333e-09 -5.71467e-09 3.85763e-09)
(4.00579e-09 -1.09549e-08 7.50195e-09)
(5.72696e-09 -1.59437e-08 1.11805e-08)
(7.31668e-09 -2.08505e-08 1.51065e-08)
(8.80573e-09 -2.57945e-08 1.94709e-08)
(1.02153e-08 -3.0842e-08 2.44474e-08)
(1.15544e-08 -3.59993e-08 3.01917e-08)
(1.28155e-08 -4.11997e-08 3.68338e-08)
(1.39657e-08 -4.62836e-08 4.446e-08)
(1.49364e-08 -5.09777e-08 5.30732e-08)
(1.56084e-08 -5.48855e-08 6.25161e-08)
(1.57901e-08 -5.75389e-08 7.23379e-08)
(1.51818e-08 -5.86408e-08 8.15859e-08)
(1.33537e-08 -5.86615e-08 8.8562e-08)
(1.00676e-08 -5.9307e-08 9.11906e-08)
(2.25076e-09 -6.34472e-08 8.48711e-08)
(0 0 0)
(2.76911e-09 -7.34064e-09 4.99539e-09)
(5.25038e-09 -1.40799e-08 9.71211e-09)
(7.51057e-09 -2.05102e-08 1.44673e-08)
(9.60467e-09 -2.68572e-08 1.95333e-08)
(1.15776e-08 -3.32874e-08 2.51548e-08)
(1.34644e-08 -3.99073e-08 3.15558e-08)
(1.52875e-08 -4.67573e-08 3.89397e-08)
(1.70498e-08 -5.38011e-08 4.74813e-08)
(1.87215e-08 -6.09103e-08 5.73078e-08)
(2.02125e-08 -6.78465e-08 6.84518e-08)
(2.13252e-08 -7.4246e-08 8.0762e-08)
(2.1666e-08 -7.96481e-08 9.37458e-08)
(2.05288e-08 -8.3654e-08 1.06313e-07)
(1.69219e-08 -8.63352e-08 1.16453e-07)
(1.06352e-08 -8.86044e-08 1.21498e-07)
(-5.56967e-10 -9.31892e-08 1.16356e-07)
(0 0 0)
(3.38264e-09 -8.72967e-09 6.01596e-09)
(6.41527e-09 -1.6754e-08 1.16912e-08)
(9.1814e-09 -2.44299e-08 1.74019e-08)
(1.17517e-08 -3.20371e-08 2.34706e-08)
(1.41873e-08 -3.97914e-08 3.01874e-08)
(1.65408e-08 -4.78458e-08 3.78189e-08)
(1.8856e-08 -5.62877e-08 4.66099e-08)
(2.11617e-08 -6.51343e-08 5.67778e-08)
(2.34576e-08 -7.4324e-08 6.84951e-08)
(2.56826e-08 -8.37004e-08 8.18439e-08)
(2.76468e-08 -9.29843e-08 9.67261e-08)
(2.88894e-08 -1.01731e-07 1.12696e-07)
(2.84403e-08 -1.09283e-07 1.28653e-07)
(2.46708e-08 -1.14779e-07 1.42385e-07)
(1.66372e-08 -1.17577e-07 1.50532e-07)
(1.89239e-09 -1.20952e-07 1.47319e-07)
(0 0 0)
(3.943e-09 -9.82723e-09 6.90081e-09)
(7.47896e-09 -1.88719e-08 1.3402e-08)
(1.07068e-08 -2.75471e-08 1.99271e-08)
(1.37123e-08 -3.61824e-08 2.68381e-08)
(1.65725e-08 -4.50398e-08 3.44596e-08)
(1.93601e-08 -5.43196e-08 4.30901e-08)
(2.21452e-08 -6.41614e-08 5.30053e-08)
(2.49944e-08 -7.46477e-08 6.44563e-08)
(2.79647e-08 -8.58043e-08 7.76556e-08)
(3.10839e-08 -9.75964e-08 9.27399e-08)
(3.43022e-08 -1.09907e-07 1.0969e-07)
(3.73669e-08 -1.22473e-07 1.28175e-07)
(3.95572e-08 -1.34713e-07 1.47215e-07)
(3.92701e-08 -1.45328e-07 1.64554e-07)
(3.45058e-08 -1.5195e-07 1.76126e-07)
(1.72659e-08 -1.49872e-07 1.75895e-07)
(0 0 0)
(4.43989e-09 -1.05844e-08 7.63724e-09)
(8.42129e-09 -2.03394e-08 1.48201e-08)
(1.20559e-08 -2.97229e-08 2.20059e-08)
(1.54416e-08 -3.91045e-08 2.95838e-08)
(1.86699e-08 -4.87854e-08 3.79007e-08)
(2.18308e-08 -5.90069e-08 4.72731e-08)
(2.50194e-08 -6.99564e-08 5.79931e-08)
(2.83408e-08 -8.17765e-08 7.0328e-08)
(3.19157e-08 -9.45762e-08 8.4512e-08)
(3.58837e-08 -1.08443e-07 1.00715e-07)
(4.04018e-08 -1.23449e-07 1.18978e-07)
(4.56143e-08 -1.39653e-07 1.3908e-07)
(5.15607e-08 -1.57026e-07 1.60201e-07)
(5.78924e-08 -1.75107e-07 1.80153e-07)
(6.31262e-08 -1.91503e-07 1.94185e-07)
(6.00667e-08 -2.04047e-07 1.93282e-07)
(0 0 0)
(4.86493e-09 -1.09615e-08 8.21954e-09)
(9.22617e-09 -2.10806e-08 1.59355e-08)
(1.32039e-08 -3.08444e-08 2.36249e-08)
(1.69043e-08 -4.06493e-08 3.16908e-08)
(2.04278e-08 -5.08237e-08 4.04887e-08)
(2.38759e-08 -6.16381e-08 5.03386e-08)
(2.73595e-08 -7.33139e-08 6.15308e-08)
(3.10079e-08 -8.60341e-08 7.43272e-08)
(3.49814e-08 -9.99577e-08 8.89526e-08)
(3.94874e-08 -1.15234e-07 1.05566e-07)
(4.48025e-08 -1.32021e-07 1.24206e-07)
(5.12869e-08 -1.50491e-07 1.44669e-07)
(5.93635e-08 -1.70803e-07 1.66214e-07)
(6.93127e-08 -1.92795e-07 1.86911e-07)
(7.96999e-08 -2.13544e-07 2.01999e-07)
(9.76545e-08 -2.38462e-07 1.98754e-07)
(0 0 0)
(0 0 0)
(0 0 0)
(0 0 0)
(0 0 0)
(0 0 0)
(0 0 0)
(0 0 0)
(0 0 0)
(0 0 0)
(0 0 0)
(0 0 0)
(0 0 0)
(0 0 0)
(0 0 0)
(0 0 0)
(-6.96258e-09 1.20079e-09 2.70063e-09)
(0 0 0)
(6.99147e-10 -2.01337e-09 1.18419e-09)
(1.32136e-09 -3.85636e-09 2.30232e-09)
(1.87918e-09 -5.60616e-09 3.43026e-09)
(2.38081e-09 -7.32145e-09 4.63332e-09)
(2.82936e-09 -9.04102e-09 5.9686e-09)
(3.22144e-09 -1.07824e-08 7.4856e-09)
(3.54482e-09 -1.25411e-08 9.22579e-09)
(3.77463e-09 -1.42859e-08 1.12186e-08)
(3.86823e-09 -1.59519e-08 1.34725e-08)
(3.75878e-09 -1.74338e-08 1.59586e-08)
(3.34663e-09 -1.8581e-08 1.85787e-08)
(2.47876e-09 -1.92014e-08 2.11089e-08)
(8.83448e-10 -1.90886e-08 2.31045e-08)
(-1.95275e-09 -1.81216e-08 2.37848e-08)
(-6.4309e-09 -1.65692e-08 2.22996e-08)
(-1.25887e-08 -1.35011e-08 1.74584e-08)
(0 0 0)
(1.38912e-09 -3.96533e-09 2.33827e-09)
(2.62613e-09 -7.59759e-09 4.54585e-09)
(3.73668e-09 -1.10499e-08 6.77199e-09)
(4.73826e-09 -1.44385e-08 9.14445e-09)
(5.63873e-09 -1.78426e-08 1.17751e-08)
(6.43398e-09 -2.13025e-08 1.47618e-08)
(7.1032e-09 -2.48171e-08 1.81871e-08)
(7.60124e-09 -2.83364e-08 2.21102e-08)
(7.84742e-09 -3.17512e-08 2.65501e-08)
(7.71114e-09 -3.48865e-08 3.1454e-08)
(6.99558e-09 -3.75103e-08 3.66377e-08)
(5.41788e-09 -3.93836e-08 4.16853e-08)
(2.59528e-09 -4.04136e-08 4.58098e-08)
(-1.85025e-09 -4.09513e-08 4.77705e-08)
(-7.46956e-09 -4.18726e-08 4.65787e-08)
(-1.23643e-08 -4.51749e-08 4.39444e-08)
(0 0 0)
(2.06117e-09 -5.79545e-09 3.43476e-09)
(3.89836e-09 -1.11094e-08 6.67677e-09)
(5.55145e-09 -1.61684e-08 9.94368e-09)
(7.04897e-09 -2.11459e-08 1.3421e-08)
(8.40676e-09 -2.61645e-08 1.72717e-08)
(9.62497e-09 -3.12955e-08 2.16399e-08)
(1.06818e-08 -3.65544e-08 2.66486e-08)
(1.15218e-08 -4.18929e-08 3.23889e-08)
(1.20383e-08 -4.71887e-08 3.88986e-08)
(1.20461e-08 -5.22423e-08 4.61191e-08)
(1.12476e-08 -5.67944e-08 5.38187e-08)
(9.19469e-09 -6.0608e-08 6.14755e-08)
(5.30171e-09 -6.36875e-08 6.81428e-08)
(-8.64307e-10 -6.66121e-08 7.24409e-08)
(-8.3348e-09 -7.02201e-08 7.33352e-08)
(-1.52072e-08 -7.51401e-08 7.27542e-08)
(0 0 0)
(2.7056e-09 -7.44312e-09 4.44844e-09)
(5.11977e-09 -1.42754e-08 8.64514e-09)
(7.29766e-09 -2.07935e-08 1.28687e-08)
(9.28098e-09 -2.72268e-08 1.7356e-08)
(1.10974e-08 -3.37448e-08 2.23158e-08)
(1.27579e-08 -4.04571e-08 2.79346e-08)
(1.42501e-08 -4.74094e-08 3.43736e-08)
(1.55246e-08 -5.45769e-08 4.17575e-08)
(1.64718e-08 -6.18553e-08 5.01505e-08)
(1.68816e-08 -6.90551e-08 5.95078e-08)
(1.63816e-08 -7.5906e-08 6.95891e-08)
(1.43475e-08 -8.21064e-08 7.98332e-08)
(9.86507e-09 -8.74737e-08 8.9215e-08)
(2.08307e-09 -9.21907e-08 9.62236e-08)
(-7.93773e-09 -9.66279e-08 9.94966e-08)
(-1.75078e-08 -1.01737e-07 1.00744e-07)
(0 0 0)
(3.31195e-09 -8.84987e-09 5.35822e-09)
(6.27007e-09 -1.69828e-08 1.04085e-08)
(8.94535e-09 -2.476e-08 1.54814e-08)
(1.13943e-08 -3.24644e-08 2.08573e-08)
(1.36598e-08 -4.03133e-08 2.67838e-08)
(1.57699e-08 -4.84595e-08 3.3483e-08)
(1.77328e-08 -5.69895e-08 4.11494e-08)
(1.95249e-08 -6.59198e-08 4.99392e-08)
(2.10671e-08 -7.51912e-08 5.99467e-08)
(2.21814e-08 -8.46572e-08 7.11534e-08)
(2.25094e-08 -9.40642e-08 8.33383e-08)
(2.13713e-08 -1.03023e-07 9.59417e-08)
(1.76093e-08 -1.1098e-07 1.07896e-07)
(9.76813e-09 -1.172e-07 1.17549e-07)
(-1.79486e-09 -1.20924e-07 1.2315e-07)
(-1.44887e-08 -1.23799e-07 1.26322e-07)
(0 0 0)
(3.86923e-09 -9.96067e-09 6.14749e-09)
(7.32773e-09 -1.91254e-08 1.19339e-08)
(1.04617e-08 -2.79115e-08 1.7731e-08)
(1.33428e-08 -3.66506e-08 2.38535e-08)
(1.60305e-08 -4.56043e-08 3.05789e-08)
(1.85738e-08 -5.49688e-08 3.81557e-08)
(2.10092e-08 -6.48756e-08 4.6803e-08)
(2.33543e-08 -7.5393e-08 5.67012e-08)
(2.55926e-08 -8.65245e-08 6.79693e-08)
(2.76422e-08 -9.82005e-08 8.06153e-08)
(2.92897e-08 -1.10249e-07 9.44437e-08)
(3.00571e-08 -1.22327e-07 1.08905e-07)
(2.89957e-08 -1.33753e-07 1.22877e-07)
(2.45936e-08 -1.43181e-07 1.34476e-07)
(1.61494e-08 -1.4845e-07 1.41475e-07)
(1.36693e-09 -1.44156e-07 1.4613e-07)
(0 0 0)
(4.36677e-09 -1.07263e-08 6.80487e-09)
(8.27167e-09 -2.06087e-08 1.31992e-08)
(1.18142e-08 -3.01087e-08 1.95844e-08)
(1.50791e-08 -3.95971e-08 2.62988e-08)
(1.81414e-08 -4.93726e-08 3.3639e-08)
(2.10703e-08 -5.96691e-08 4.18688e-08)
(2.39306e-08 -7.06592e-08 5.12197e-08)
(2.67844e-08 -8.24597e-08 6.18831e-08)
(2.96872e-08 -9.51366e-08 7.39887e-08)
(3.26801e-08 -1.08704e-07 8.75555e-08)
(3.57657e-08 -1.2311e-07 1.02398e-07)
(3.88549e-08 -1.382e-07 1.17958e-07)
(4.1689e-08 -1.53607e-07 1.33019e-07)
(4.37992e-08 -1.68463e-07 1.45317e-07)
(4.47374e-08 -1.8058e-07 1.51806e-07)
(4.34122e-08 -1.88052e-07 1.53782e-07)
(0 0 0)
(4.79546e-09 -1.11068e-08 7.32519e-09)
(9.08428e-09 -2.13564e-08 1.41955e-08)
(1.29755e-08 -3.12387e-08 2.10296e-08)
(1.65634e-08 -4.11505e-08 2.8178e-08)
(1.99344e-08 -5.1416e-08 3.59448e-08)
(2.31718e-08 -6.22961e-08 4.45969e-08)
(2.63613e-08 -7.39931e-08 5.43645e-08)
(2.95962e-08 -8.6657e-08 6.54332e-08)
(3.29827e-08 -1.00392e-07 7.79235e-08)
(3.66458e-08 -1.15254e-07 9.18417e-08)
(4.07299e-08 -1.31244e-07 1.06987e-07)
(4.53858e-08 -1.48272e-07 1.22788e-07)
(5.07439e-08 -1.66081e-07 1.38015e-07)
(5.68619e-08 -1.84002e-07 1.50396e-07)
(6.30899e-08 -1.9949e-07 1.56671e-07)
(7.88488e-08 -2.18553e-07 1.52524e-07)
(0 0 0)
(0 0 0)
(0 0 0)
(0 0 0)
(0 0 0)
(0 0 0)
(0 0 0)
(0 0 0)
(0 0 0)
(0 0 0)
(0 0 0)
(0 0 0)
(0 0 0)
(0 0 0)
(0 0 0)
(0 0 0)
(-8.70115e-09 -1.09188e-09 3.38045e-09)
(0 0 0)
(6.79748e-10 -2.03604e-09 9.96851e-10)
(1.28145e-09 -3.89971e-09 1.93742e-09)
(1.81405e-09 -5.66947e-09 2.88491e-09)
(2.28161e-09 -7.4053e-09 3.89318e-09)
(2.68175e-09 -9.14738e-09 5.00815e-09)
(3.00368e-09 -1.09156e-08 6.26831e-09)
(3.22453e-09 -1.271e-08 7.70407e-09)
(3.30391e-09 -1.45088e-08 9.33369e-09)
(3.17588e-09 -1.62653e-08 1.11547e-08)
(2.73885e-09 -1.79085e-08 1.313e-08)
(1.8434e-09 -1.93488e-08 1.51638e-08)
(2.71386e-10 -2.04926e-08 1.70691e-08)
(-2.29969e-09 -2.12587e-08 1.85403e-08)
(-6.29074e-09 -2.15648e-08 1.91941e-08)
(-1.15755e-08 -2.12518e-08 1.88565e-08)
(-1.71561e-08 -1.80904e-08 1.68505e-08)
(0 0 0)
(1.35177e-09 -4.00976e-09 1.96862e-09)
(2.54933e-09 -7.68248e-09 3.82592e-09)
(3.61152e-09 -1.11734e-08 5.69615e-09)
(4.54788e-09 -1.46008e-08 7.68451e-09)
(5.35607e-09 -1.80462e-08 9.88098e-09)
(6.01814e-09 -2.15538e-08 1.2362e-08)
(6.49385e-09 -2.51295e-08 1.51882e-08)
(6.71013e-09 -2.87379e-08 1.83971e-08)
(6.5461e-09 -3.22975e-08 2.19865e-08)
(5.81562e-09 -3.56837e-08 2.58888e-08)
(4.25231e-09 -3.8748e-08 2.99277e-08)
(1.50906e-09 -4.13659e-08 3.37621e-08)
(-2.76888e-09 -4.35296e-08 3.68512e-08)
(-8.60237e-09 -4.5427e-08 3.8556e-08)
(-1.46391e-08 -4.72007e-08 3.8681e-08)
(-1.81401e-08 -4.96875e-08 3.85984e-08)
(0 0 0)
(2.00853e-09 -5.85991e-09 2.8923e-09)
(3.79025e-09 -1.12321e-08 5.62045e-09)
(5.37551e-09 -1.63459e-08 8.36545e-09)
(6.78196e-09 -2.13766e-08 1.12798e-08)
(8.01162e-09 -2.64496e-08 1.44947e-08)
(9.0461e-09 -3.16395e-08 1.81231e-08)
(9.83799e-09 -3.69683e-08 2.22561e-08)
(1.02963e-08 -4.24008e-08 2.69523e-08)
(1.02652e-08 -4.78403e-08 3.22178e-08)
(9.49796e-09 -5.31324e-08 3.79711e-08)
(7.63217e-09 -5.8089e-08 4.39904e-08)
(4.19242e-09 -6.2558e-08 4.98539e-08)
(-1.27221e-09 -6.65692e-08 5.49276e-08)
(-8.65184e-09 -7.04777e-08 5.85323e-08)
(-1.60081e-08 -7.45127e-08 6.04553e-08)
(-2.07935e-08 -7.87925e-08 6.20069e-08)
(0 0 0)
(2.64123e-09 -7.52492e-09 3.74673e-09)
(4.98771e-09 -1.44306e-08 7.27898e-09)
(7.08316e-09 -2.10161e-08 1.08282e-08)
(8.95642e-09 -2.75128e-08 1.4589e-08)
(1.0619e-08 -3.40916e-08 1.87299e-08)
(1.20608e-08 -4.08636e-08 2.33969e-08)
(1.32404e-08 -4.78768e-08 2.87101e-08)
(1.40695e-08 -5.51119e-08 3.47508e-08)
(1.43872e-08 -6.24773e-08 4.15395e-08)
(1.39242e-08 -6.98066e-08 4.8996e-08)
(1.22567e-08 -7.6866e-08 5.68811e-08)
(8.77296e-09 -8.33912e-08 6.47368e-08)
(2.77392e-09 -8.91883e-08 7.18864e-08)
(-5.94382e-09 -9.42641e-08 7.76065e-08)
(-1.53703e-08 -9.86145e-08 8.14746e-08)
(-2.23852e-08 -1.0289e-07 8.45665e-08)
(0 0 0)
(3.23984e-09 -8.94561e-09 4.51403e-09)
(6.12234e-09 -1.71638e-08 8.76562e-09)
(8.70594e-09 -2.50176e-08 1.30291e-08)
(1.10333e-08 -3.27913e-08 1.75348e-08)
(1.31303e-08 -4.07018e-08 2.24827e-08)
(1.50028e-08 -4.88996e-08 2.8047e-08)
(1.66296e-08 -5.7467e-08 3.43726e-08)
(1.79478e-08 -6.64147e-08 4.15619e-08)
(1.88288e-08 -7.56757e-08 4.96513e-08)
(1.90397e-08 -8.50942e-08 5.85686e-08)
(1.81811e-08 -9.4403e-08 6.80682e-08)
(1.56059e-08 -1.03189e-07 7.76646e-08)
(1.04072e-08 -1.10847e-07 8.66276e-08)
(1.82612e-09 -1.16534e-07 9.41454e-08)
(-8.82505e-09 -1.19385e-07 9.95963e-08)
(-1.86249e-08 -1.2086e-07 1.04028e-07)
(0 0 0)
(3.79339e-09 -1.00665e-08 5.18009e-09)
(7.17257e-09 -1.93248e-08 1.00523e-08)
(1.0211e-08 -2.81935e-08 1.49251e-08)
(1.29662e-08 -3.70043e-08 2.00571e-08)
(1.5481e-08 -4.60162e-08 2.56722e-08)
(1.77829e-08 -5.54191e-08 3.19659e-08)
(1.98801e-08 -6.53327e-08 3.91008e-08)
(2.17532e-08 -7.58064e-08 4.71943e-08)
(2.33394e-08 -8.68144e-08 5.62945e-08)
(2.45055e-08 -9.82411e-08 6.63329e-08)
(2.49992e-08 -1.09846e-07 7.70514e-08)
(2.43702e-08 -1.21185e-07 8.79154e-08)
(2.19033e-08 -1.3146e-07 9.80741e-08)
(1.67686e-08 -1.39254e-07 1.06497e-07)
(9.26407e-09 -1.42634e-07 1.12371e-07)
(-2.34306e-09 -1.36635e-07 1.17351e-07)
(0 0 0)
(4.29082e-09 -1.08382e-08 5.73526e-09)
(8.11655e-09 -2.08191e-08 1.11204e-08)
(1.15642e-08 -3.04049e-08 1.64884e-08)
(1.47053e-08 -3.99648e-08 2.21174e-08)
(1.75993e-08 -4.97931e-08 2.82469e-08)
(2.02952e-08 -6.01133e-08 3.50842e-08)
(2.28327e-08 -7.108e-08 4.28008e-08)
(2.52401e-08 -8.27804e-08 5.15199e-08)
(2.7531e-08 -9.52323e-08 6.12908e-08)
(2.96983e-08 -1.08374e-07 7.20388e-08)
(3.1702e-08 -1.2204e-07 8.34802e-08)
(3.34572e-08 -1.35909e-07 9.50072e-08)
(3.48728e-08 -1.49424e-07 1.05581e-07)
(3.60508e-08 -1.61645e-07 1.13765e-07)
(3.75256e-08 -1.70936e-07 1.18313e-07)
(3.89274e-08 -1.76446e-07 1.21036e-07)
(0 0 0)
(4.72237e-09 -1.12209e-08 6.17512e-09)
(8.93528e-09 -2.15707e-08 1.19623e-08)
(1.27362e-08 -3.15393e-08 1.7709e-08)
(1.62074e-08 -4.15207e-08 2.37031e-08)
(1.94211e-08 -5.18332e-08 3.01907e-08)
(2.24434e-08 -6.2725e-08 3.73817e-08)
(2.53377e-08 -7.43759e-08 4.54459e-08)
(2.81685e-08 -8.68998e-08 5.45014e-08)
(3.10056e-08 -1.00342e-07 6.45875e-08)
(3.39305e-08 -1.14671e-07 7.5613e-08)
(3.70439e-08 -1.29753e-07 8.72679e-08)
(4.04785e-08 -1.45316e-07 9.88956e-08)
(4.44551e-08 -1.60906e-07 1.09362e-07)
(4.94106e-08 -1.75826e-07 1.17049e-07)
(5.54667e-08 -1.88299e-07 1.20446e-07)
(7.33264e-08 -2.05397e-07 1.18104e-07)
(0 0 0)
(0 0 0)
(0 0 0)
(0 0 0)
(0 0 0)
(0 0 0)
(0 0 0)
(0 0 0)
(0 0 0)
(0 0 0)
(0 0 0)
(0 0 0)
(0 0 0)
(0 0 0)
(0 0 0)
(0 0 0)
(-9.13086e-09 -1.66642e-09 3.13746e-09)
(0 0 0)
(6.62243e-10 -2.05278e-09 7.75926e-10)
(1.24553e-09 -3.93154e-09 1.50757e-09)
(1.75567e-09 -5.71613e-09 2.24384e-09)
(2.19318e-09 -7.46735e-09 3.02593e-09)
(2.55133e-09 -9.2257e-09 3.88798e-09)
(2.81372e-09 -1.10126e-08 4.85782e-09)
(2.95029e-09 -1.28312e-08 5.95633e-09)
(2.91156e-09 -1.46654e-08 7.19411e-09)
(2.62107e-09 -1.64789e-08 8.5651e-09)
(1.96771e-09 -1.82168e-08 1.00372e-08)
(7.98333e-10 -1.98119e-08 1.15401e-08)
(-1.09029e-09 -2.11913e-08 1.29527e-08)
(-3.96167e-09 -2.22654e-08 1.41096e-08)
(-8.09618e-09 -2.28539e-08 1.48614e-08)
(-1.31937e-08 -2.25793e-08 1.51698e-08)
(-1.81215e-08 -1.89861e-08 1.4159e-08)
(0 0 0)
(1.31802e-09 -4.04292e-09 1.53259e-09)
(2.48012e-09 -7.74575e-09 2.97773e-09)
(3.4991e-09 -1.12654e-08 4.43134e-09)
(4.37784e-09 -1.47211e-08 5.97362e-09)
(5.10582e-09 -1.81956e-08 7.67165e-09)
(5.65464e-09 -2.17351e-08 9.58089e-09)
(5.97087e-09 -2.53504e-08 1.17433e-08)
(5.96535e-09 -2.90143e-08 1.41808e-08)
(5.50004e-09 -3.266e-08 1.68834e-08)
(4.37641e-09 -3.61855e-08 1.97924e-08)
(2.33324e-09 -3.94685e-08 2.2777e-08)
(-9.24907e-10 -4.23962e-08 2.56124e-08)
(-5.6031e-09 -4.49055e-08 2.79881e-08)
(-1.1427e-08 -4.69758e-08 2.96029e-08)
(-1.68044e-08 -4.84598e-08 3.03593e-08)
(-1.90594e-08 -5.00598e-08 3.07593e-08)
(0 0 0)
(1.96086e-09 -5.90852e-09 2.25218e-09)
(3.69255e-09 -1.13244e-08 4.3755e-09)
(5.21707e-09 -1.64784e-08 6.50937e-09)
(6.54285e-09 -2.1547e-08 8.76981e-09)
(7.66073e-09 -2.66564e-08 1.12549e-08)
(8.5384e-09 -3.18833e-08 1.40469e-08)
(9.11115e-09 -3.72529e-08 1.72089e-08)
(9.26785e-09 -4.27364e-08 2.07761e-08)
(8.83346e-09 -4.82485e-08 2.47404e-08)
(7.5524e-09 -5.36511e-08 2.90284e-08)
(5.0853e-09 -5.87707e-08 3.34741e-08)
(1.05409e-09 -6.34439e-08 3.7795e-08)
(-4.75982e-09 -6.76151e-08 4.16246e-08)
(-1.18593e-08 -7.1421e-08 4.46442e-08)
(-1.8118e-08 -7.48993e-08 4.67134e-08)
(-2.12644e-08 -7.82737e-08 4.81748e-08)
(0 0 0)
(2.58274e-09 -7.58692e-09 2.91826e-09)
(4.86796e-09 -1.45476e-08 5.66809e-09)
(6.88927e-09 -2.11822e-08 8.42751e-09)
(8.66461e-09 -2.77224e-08 1.13444e-08)
(1.01925e-08 -3.43395e-08 1.4545e-08)
(1.14465e-08 -4.11444e-08 1.81359e-08)
(1.23661e-08 -4.81846e-08 2.22004e-08)
(1.28414e-08 -5.54409e-08 2.67878e-08)
(1.26933e-08 -6.28223e-08 3.18962e-08)
(1.16502e-08 -7.01632e-08 3.74478e-08)
(9.32993e-09 -7.72215e-08 4.32564e-08)
(5.2556e-09 -8.37005e-08 4.90066e-08)
(-9.80609e-10 -8.93175e-08 5.43032e-08)
(-9.14741e-09 -9.39138e-08 5.8803e-08)
(-1.71202e-08 -9.74307e-08 6.22104e-08)
(-2.22262e-08 -1.00699e-07 6.4676e-08)
(0 0 0)
(3.17403e-09 -9.01819e-09 3.51678e-09)
(5.98775e-09 -1.73e-08 6.82732e-09)
(8.48853e-09 -2.52086e-08 1.01424e-08)
(1.07072e-08 -3.30282e-08 1.36371e-08)
(1.26555e-08 -4.09743e-08 1.74613e-08)
(1.43228e-08 -4.91938e-08 2.17425e-08)
(1.56679e-08 -5.77628e-08 2.65808e-08)
(1.66067e-08 -6.66826e-08 3.20382e-08)
(1.69945e-08 -7.58721e-08 3.81194e-08)
(1.66014e-08 -8.51539e-08 4.47442e-08)
(1.50808e-08 -9.42265e-08 5.17073e-08)
(1.19411e-08 -1.02623e-07 5.86548e-08)