/*--------------------------------*- C++ -*----------------------------------*\
| =========                 |                                                 |
| \\      /  F ield         | OpenFOAM: The Open Source CFD Toolbox           |
|  \\    /   O peration     | Version:  v1912                                 |
|   \\  /    A nd           | Website:  www.openfoam.com                      |
|    \\/     M anipulation  |                                                 |
\*---------------------------------------------------------------------------*/
FoamFile
{
    version     2.0;
    format      ascii;
    class       volVectorField;
    location    "0.3/fluid";
    object      U;
}
// * * * * * * * * * * * * * * * * * * * * * * * * * * * * * * * * * * * * * //

dimensions      [0 1 -1 0 0 0 0];


internalField   nonuniform List<vector> 
14592
(
(0.088133 0.0162839 0.000498844)
(0.0754911 0.00984905 0.000453299)
(0.0645706 0.00546341 -3.08467e-05)
(0.0595765 0.00240933 -0.000686261)
(0.0567009 0.00110284 -0.00152052)
(0.0550635 0.000551922 -0.00254923)
(0.0538032 0.000351441 -0.00382667)
(0.0526589 0.000280151 -0.00543297)
(0.0513325 0.000262487 -0.0074814)
(0.0499093 0.000244968 -0.010165)
(0.0478287 0.000221514 -0.0137453)
(0.045718 9.0642e-05 -0.0186768)
(0.0416447 -9.21667e-05 -0.0257458)
(0.0378412 -0.000771367 -0.0357731)
(0.0269471 -0.00126867 -0.0499286)
(0.015363 -0.00419445 -0.051261)
(0.104085 0.015694 0.000517961)
(0.104786 0.0130062 0.000335919)
(0.103489 0.00901654 -0.00039883)
(0.101575 0.00536434 -0.00138882)
(0.0996406 0.00333169 -0.00264811)
(0.0979334 0.00231312 -0.00421819)
(0.0962475 0.00191352 -0.00618595)
(0.0944802 0.0018397 -0.00867715)
(0.0923459 0.00195845 -0.0118687)
(0.0899053 0.00218312 -0.0160522)
(0.086442 0.00248202 -0.0216278)
(0.0825349 0.00273984 -0.0292732)
(0.0756456 0.00297752 -0.0400888)
(0.0680725 0.002725 -0.0552976)
(0.0494512 0.0023536 -0.0757224)
(0.0288944 -0.00123555 -0.07687)
(0.103725 0.00983363 0.000515339)
(0.107155 0.0113894 0.000303965)
(0.109162 0.00942272 -0.000468911)
(0.109171 0.00676395 -0.00150131)
(0.108439 0.00496716 -0.00281299)
(0.107315 0.00396066 -0.00445116)
(0.105927 0.00358259 -0.00650691)
(0.104287 0.00362496 -0.00911241)
(0.102176 0.00397192 -0.0124526)
(0.0996659 0.00454067 -0.0168359)
(0.0960112 0.00528969 -0.0226822)
(0.0917428 0.00611632 -0.0307218)
(0.0841632 0.00700511 -0.0421011)
(0.0755067 0.00753728 -0.0582079)
(0.0547359 0.00757005 -0.0798378)
(0.0313963 0.00367921 -0.0817726)
(0.101924 0.00659158 0.00053657)
(0.105007 0.00924016 0.000345253)
(0.107754 0.00858706 -0.000411802)
(0.108761 0.0069946 -0.00142571)
(0.108927 0.0057256 -0.00271325)
(0.108441 0.00500632 -0.00431838)
(0.107511 0.00483447 -0.00632822)
(0.106201 0.00510891 -0.0088716)
(0.104344 0.00576425 -0.0121279)
(0.102035 0.00675652 -0.0164044)
(0.0985169 0.00807053 -0.0221124)
(0.0943083 0.00965107 -0.0300024)
(0.0866061 0.0114895 -0.0412079)
(0.0776273 0.0131834 -0.0572509)
(0.0560611 0.0141313 -0.078948)
(0.0314579 0.00914021 -0.081606)
(0.101063 0.00455317 0.000574577)
(0.103541 0.00726022 0.000426215)
(0.106239 0.00743091 -0.00029559)
(0.10767 0.00669108 -0.00127355)
(0.10838 0.00599037 -0.00251501)
(0.108396 0.00565587 -0.00405589)
(0.107908 0.00577697 -0.00597491)
(0.106989 0.00633915 -0.00839216)
(0.105499 0.00732855 -0.0114733)
(0.103551 0.00874872 -0.0155137)
(0.100392 0.0106137 -0.0208969)
(0.0965298 0.0129261 -0.0283762)
(0.0890506 0.0156873 -0.0390259)
(0.0800964 0.018505 -0.0545258)
(0.057849 0.0204077 -0.0756359)
(0.0318122 0.0138413 -0.0791444)
(0.100694 0.00329965 0.000620766)
(0.102763 0.00567272 0.000526629)
(0.105306 0.00623742 -0.000150421)
(0.106956 0.00606486 -0.00108428)
(0.108029 0.0058426 -0.00226945)
(0.108445 0.00589036 -0.00373145)
(0.108358 0.00633134 -0.00553856)
(0.107829 0.00720957 -0.00779956)
(0.106737 0.00856131 -0.0106631)
(0.105203 0.0104594 -0.0144077)
(0.102477 0.012986 -0.0193813)
(0.0990466 0.0162959 -0.0263323)
(0.0918941 0.0205294 -0.0362495)
(0.0830823 0.0255692 -0.0509956)
(0.0601843 0.0302819 -0.0712178)
(0.0326143 0.0229955 -0.0758638)
(0.100555 0.00231368 0.00067462)
(0.102433 0.00424226 0.000643221)
(0.104903 0.00500656 1.83252e-05)
(0.106708 0.005238 -0.0008644)
(0.108051 0.0054184 -0.00198372)
(0.108803 0.00581458 -0.0033521)
(0.109095 0.0065536 -0.0050238)
(0.108996 0.00771376 -0.00709015)
(0.108413 0.00936524 -0.00967254)
(0.107504 0.0116373 -0.0130126)
(0.105593 0.0146573 -0.0173883)
(0.103217 0.0187167 -0.0234822)
(0.0973994 0.0240433 -0.0320771)
(0.0901874 0.0308321 -0.0451336)
(0.0677792 0.0378555 -0.0628626)
(0.0393099 0.0294046 -0.0686554)
(0.100512 0.00145724 0.000732839)
(0.102347 0.0028953 0.000768974)
(0.104847 0.0037274 0.000200185)
(0.106804 0.0042414 -0.000628061)
(0.108374 0.00474766 -0.0016775)
(0.109409 0.00544109 -0.00294679)
(0.110036 0.00643584 -0.00447574)
(0.110327 0.00783036 -0.00633762)
(0.110225 0.009724 -0.00862705)
(0.109904 0.0123158 -0.0115478)
(0.108765 0.0158147 -0.0153106)
(0.107365 0.0208237 -0.0205257)
(0.102838 0.027935 -0.0277755)
(0.0973912 0.0391894 -0.03911)
(0.0761536 0.0545136 -0.0544173)
(0.0503615 0.0628605 -0.0627085)
(0.0880985 0.016286 0.000265286)
(0.0753088 0.00985957 0.000100021)
(0.0641778 0.0054725 -0.000358727)
(0.058999 0.00241671 -0.000936249)
(0.0559325 0.00111165 -0.00167439)
(0.0540905 0.000563818 -0.00260354)
(0.0525814 0.000368061 -0.0037767)
(0.051122 0.000303064 -0.00525978)
(0.0493831 0.000295013 -0.00714706)
(0.047415 0.000291556 -0.00956936)
(0.0446346 0.000293479 -0.012718)
(0.0415665 0.000207838 -0.016759)
(0.0364662 0.000114964 -0.0221461)
(0.0309894 -0.000356036 -0.0282986)
(0.019878 -0.000607944 -0.0351556)
(0.00685352 -0.00264412 -0.0261766)
(0.104037 0.0157076 0.000218027)
(0.104535 0.0130395 -0.000133365)
(0.102937 0.00905773 -0.000852685)
(0.100726 0.00541152 -0.00174476)
(0.0984799 0.00339094 -0.00287097)
(0.0964325 0.00239115 -0.00429671)
(0.0943372 0.00201851 -0.0061105)
(0.0920526 0.00198106 -0.00842056)
(0.0892411 0.00214971 -0.0113764)
(0.085904 0.00244037 -0.015187)
(0.0812689 0.00283199 -0.0201486)
(0.0757778 0.00321203 -0.0265599)
(0.0670733 0.00362995 -0.035049)
(0.0568361 0.00362907 -0.0449768)
(0.0374579 0.00349388 -0.0555496)
(0.0149138 0.000244532 -0.0416585)
(0.103677 0.00986 0.000204954)
(0.106898 0.0114477 -0.000184909)
(0.108594 0.00950186 -0.000943903)
(0.108293 0.0068607 -0.00187557)
(0.107233 0.00508894 -0.00304918)
(0.105752 0.00411921 -0.00453693)
(0.103937 0.00379373 -0.00643209)
(0.101756 0.00390778 -0.00884906)
(0.0989368 0.00435219 -0.0119441)
(0.0954868 0.00504796 -0.0159403)
(0.0905959 0.00596757 -0.0211469)
(0.084657 0.00700237 -0.0278973)
(0.0751328 0.00816724 -0.0368357)
(0.0636492 0.00897774 -0.0473607)
(0.0419985 0.00921294 -0.0585435)
(0.0165193 0.00486196 -0.0438981)
(0.101879 0.00662648 0.00022521)
(0.104754 0.00931737 -0.000147367)
(0.107195 0.00869615 -0.000890771)
(0.1079 0.00713241 -0.00180403)
(0.107748 0.00590124 -0.00295409)
(0.106917 0.00523624 -0.00440997)
(0.105574 0.0051418 -0.00626105)
(0.103744 0.00552296 -0.00861861)
(0.101202 0.00632487 -0.0116335)
(0.0979827 0.00751131 -0.0155277)
(0.0932595 0.00908831 -0.0206012)
(0.0874181 0.0109941 -0.0272025)
(0.0777902 0.013264 -0.0359555)
(0.0659958 0.0153731 -0.0463388)
(0.0435062 0.0166559 -0.0574155)
(0.0166472 0.0106793 -0.0430471)
(0.101019 0.00459681 0.000263159)
(0.103294 0.00735617 -6.81712e-05)
(0.105697 0.00756836 -0.000777118)
(0.106838 0.00686696 -0.00165553)
(0.107248 0.00621568 -0.0027614)
(0.10694 0.00595143 -0.00415601)
(0.106068 0.0061727 -0.00592067)
(0.104665 0.00687406 -0.00815873)
(0.102537 0.00805599 -0.0110085)
(0.0997453 0.00973423 -0.0146827)
(0.0954562 0.011952 -0.0194565)
(0.0900611 0.014707 -0.0256864)
(0.0807339 0.0180649 -0.0339453)
(0.0690548 0.0214575 -0.0438506)
(0.0457923 0.0238708 -0.0544505)
(0.0173054 0.0158393 -0.0408444)
(0.100651 0.00335025 0.000308993)
(0.102524 0.00578353 3.02244e-05)
(0.104783 0.00639708 -0.000635306)
(0.10616 0.00627063 -0.00147119)
(0.106953 0.00610743 -0.00252312)
(0.107073 0.00623915 -0.00384246)
(0.106634 0.0068005 -0.00550059)
(0.105667 0.00784829 -0.00759074)
(0.103995 0.00943851 -0.0102357)
(0.101695 0.0116649 -0.0136353)
(0.0979311 0.0146537 -0.0180336)
(0.0930938 0.0185724 -0.0237935)
(0.0841926 0.0236705 -0.0314167)
(0.0727952 0.0296261 -0.0407022)
(0.048785 0.0353433 -0.0506547)
(0.0185315 0.0261393 -0.0381532)
(0.100514 0.00236987 0.000361929)
(0.102203 0.00436446 0.00014401)
(0.104403 0.00518286 -0.000471175)
(0.105954 0.00546584 -0.00125788)
(0.107042 0.0057122 -0.00224684)
(0.107528 0.00620214 -0.00347709)
(0.107513 0.00707599 -0.00500702)
(0.107035 0.00842761 -0.0069147)
(0.105956 0.0103506 -0.00929927)
(0.104403 0.0130023 -0.0123333)
(0.101616 0.016564 -0.0162053)
(0.0980769 0.0213573 -0.0212516)
(0.0907653 0.0277529 -0.0278311)
(0.0813768 0.0357295 -0.035941)
(0.0577945 0.0441837 -0.0444278)
(0.0265043 0.0333081 -0.0334841)
(0.100472 0.00151667 0.000418714)
(0.102127 0.00302373 0.000266219)
(0.104372 0.00391262 -0.000294919)
(0.106095 0.00448108 -0.00102919)
(0.107435 0.00505703 -0.00195128)
(0.108238 0.00584969 -0.00308706)
(0.108602 0.0069877 -0.00448154)
(0.108577 0.00858762 -0.00619705)
(0.108063 0.0107757 -0.00830926)
(0.107218 0.0137892 -0.0109625)
(0.105362 0.0179045 -0.0142915)
(0.103042 0.0237983 -0.0186025)
(0.0972764 0.0322647 -0.0241116)
(0.0901245 0.0452577 -0.0310329)
(0.0677678 0.0630344 -0.0380878)
(0.0393397 0.0689078 -0.0295747)
(0.0880717 0.0162879 0.000106279)
(0.0751607 0.0098685 -0.000126118)
(0.0638485 0.00548055 -0.000548489)
(0.058498 0.00242334 -0.00104908)
(0.0552465 0.00111932 -0.00168719)
(0.0531998 0.000573699 -0.00250044)
(0.0514395 0.000381058 -0.00353785)
(0.0496572 0.000319524 -0.00485238)
(0.0474921 0.000315742 -0.00652194)
(0.0449446 0.000316869 -0.00863651)
(0.0414121 0.000325679 -0.011349)
(0.0372939 0.000251329 -0.0147175)
(0.0310804 0.000176759 -0.0190884)
(0.0240695 -0.000233621 -0.0237614)
(0.0132655 -0.000505601 -0.0285215)
(0.00170162 -0.00221803 -0.0210687)
(0.103999 0.0157206 2.03588e-05)
(0.104329 0.0130704 -0.000419154)
(0.102471 0.00909672 -0.0010955)
(0.099987 0.00545647 -0.00188234)
(0.0974415 0.00344698 -0.00286482)
(0.0950598 0.00246422 -0.00411869)
(0.0925592 0.00211575 -0.0057278)
(0.0897586 0.0021104 -0.00778221)
(0.0862706 0.00232193 -0.0104054)
(0.0820256 0.00266716 -0.013747)
(0.0762096 0.00313117 -0.0180372)
(0.0691188 0.00359866 -0.023413)
(0.0586673 0.0041291 -0.0303206)
(0.0462035 0.00425608 -0.0378954)
(0.0270673 0.00415448 -0.0451909)
(0.00652133 0.000889897 -0.0332397)
(0.10364 0.00988552 1.25619e-06)
(0.106686 0.0115033 -0.000480464)
(0.108114 0.00957751 -0.00119553)
(0.107527 0.00695325 -0.00201829)
(0.106155 0.00520495 -0.00304265)
(0.104324 0.00426946 -0.00435142)
(0.102085 0.00399287 -0.00603323)
(0.0993657 0.00417331 -0.00818378)
(0.0958388 0.00470746 -0.0109321)
(0.0914395 0.00551873 -0.0144393)
(0.085306 0.00659065 -0.0189445)
(0.0776853 0.00780468 -0.0246098)
(0.0662939 0.0091954 -0.0318864)
(0.0524406 0.0102075 -0.0399224)
(0.0309377 0.0105492 -0.0476291)
(0.00749613 0.00571909 -0.0349715)
(0.101843 0.00666041 1.95932e-05)
(0.104546 0.0093914 -0.000447601)
(0.106724 0.00880058 -0.00114818)
(0.107151 0.00726413 -0.00195364)
(0.106695 0.00606857 -0.0029562)
(0.105525 0.00545454 -0.00423574)
(0.103773 0.0054328 -0.00587741)
(0.101421 0.00591409 -0.00797421)
(0.098193 0.00685337 -0.0106504)
(0.0940509 0.00822064 -0.0140667)
(0.0881085 0.0100408 -0.0184541)
(0.0806095 0.0122415 -0.0239891)
(0.0691102 0.0148952 -0.0311059)
(0.0549245 0.0173566 -0.039022)
(0.0325032 0.0189191 -0.0466429)
(0.00760109 0.0121373 -0.0342616)
(0.100984 0.00463906 5.52987e-05)
(0.103092 0.0074481 -0.000374024)
(0.10524 0.00769968 -0.00104261)
(0.106117 0.00703472 -0.00181586)
(0.106239 0.00643012 -0.00277796)
(0.105613 0.00623218 -0.00400175)
(0.104357 0.00654818 -0.00556511)
(0.102468 0.00738127 -0.00755429)
(0.0996986 0.00874588 -0.0100829)
(0.096042 0.0106686 -0.0133049)
(0.0905988 0.0132208 -0.0174312)
(0.0836283 0.0163919 -0.0226502)
(0.0724777 0.0203084 -0.0293562)
(0.058452 0.0242351 -0.0368931)
(0.0351305 0.0271512 -0.0441678)
(0.00839667 0.0180114 -0.032486)
(0.100617 0.00339897 9.83519e-05)
(0.102329 0.00588938 -0.000282357)
(0.104345 0.00654923 -0.00091076)
(0.105473 0.00646646 -0.00164486)
(0.105998 0.00635916 -0.00255762)
(0.105823 0.00657035 -0.00371286)
(0.105033 0.00724595 -0.00517957)
(0.103623 0.00845494 -0.00703536)
(0.101366 0.0102728 -0.00938045)
(0.0982766 0.0128125 -0.0123594)
(0.0934449 0.0162437 -0.0161573)
(0.0871475 0.0207413 -0.0209742)
(0.0765026 0.0266596 -0.027148)
(0.0628579 0.0334806 -0.0341873)
(0.0386477 0.0401793 -0.0409843)
(0.00986797 0.0296225 -0.0302758)
(0.100482 0.00242366 0.000147819)
(0.102018 0.00448082 -0.000176584)
(0.103988 0.00535042 -0.00075849)
(0.105306 0.00568224 -0.00144747)
(0.106149 0.00599113 -0.00230276)
(0.106372 0.0065701 -0.00337714)
(0.106047 0.00757243 -0.00472814)
(0.105183 0.00910707 -0.00642079)
(0.103599 0.0112912 -0.00853554)
(0.101371 0.0143094 -0.0111972)
(0.0976666 0.0183985 -0.014547)
(0.0928885 0.0239063 -0.0187765)
(0.0840429 0.0313465 -0.024118)
(0.0727153 0.0404982 -0.030276)
(0.0487706 0.0504199 -0.0360694)
(0.0185493 0.0379808 -0.0267142)
(0.100441 0.00157324 0.000200639)
(0.10195 0.00314564 -6.32605e-05)
(0.10398 0.00408823 -0.000595276)
(0.105489 0.00470829 -0.00123618)
(0.106609 0.00535042 -0.00203036)
(0.107181 0.00623749 -0.00301882)
(0.107278 0.00751236 -0.0042472)
(0.106928 0.0093093 -0.00576733)
(0.105992 0.0117821 -0.00763964)
(0.104595 0.0152053 -0.00996774)
(0.101984 0.0199261 -0.0128487)
(0.0986683 0.0266886 -0.0164615)
(0.0916221 0.0364956 -0.0209287)
(0.0829406 0.0512069 -0.0261623)
(0.0601577 0.0715324 -0.0309386)
(0.0326679 0.0763036 -0.0235243)
(0.0880512 0.0162897 8.70731e-06)
(0.0750417 0.00987625 -0.000244668)
(0.0635791 0.00548782 -0.000615919)
(0.058081 0.00242962 -0.00103516)
(0.0546702 0.00112676 -0.00156559)
(0.0524505 0.00058366 -0.00224451)
(0.0504887 0.00039493 -0.00311217)
(0.0484647 0.000338812 -0.00420491)
(0.0460121 0.000343201 -0.00557548)
(0.0431163 0.000356819 -0.00726643)
(0.0392153 0.000386443 -0.00936449)
(0.0346698 0.000349215 -0.011818)
(0.0282297 0.000336071 -0.0147932)
(0.0210192 5.44379e-05 -0.0175509)
(0.0110265 -8.8434e-05 -0.019726)
(0.000944509 -0.00154353 -0.0133621)
(0.103969 0.0157324 -9.25844e-05)
(0.104161 0.0130982 -0.000549526)
(0.102085 0.00913206 -0.00115224)
(0.0993669 0.00549748 -0.00182027)
(0.0965623 0.00349808 -0.00264368)
(0.0938947 0.00253085 -0.00369611)
(0.0910605 0.00220469 -0.00504868)
(0.0878583 0.00222956 -0.00676721)
(0.0838861 0.00248241 -0.00893793)
(0.0790517 0.00288248 -0.0116424)
(0.0725822 0.00342226 -0.0150136)
(0.0647432 0.00399009 -0.0190285)
(0.0537801 0.00465971 -0.0238817)
(0.0409304 0.00497483 -0.0286144)
(0.0229514 0.00504593 -0.032196)
(0.00473365 0.00181935 -0.0219136)
(0.103611 0.00990887 -0.000113729)
(0.106514 0.0115537 -0.00061188)
(0.107717 0.00964613 -0.00124998)
(0.106885 0.00703719 -0.00194922)
(0.105242 0.00530984 -0.00280827)
(0.103111 0.00440482 -0.00390735)
(0.100522 0.00417167 -0.00532195)
(0.0973828 0.0044111 -0.00712262)
(0.0933477 0.00502501 -0.00939971)
(0.0883296 0.00593935 -0.0122431)
(0.0815035 0.00714804 -0.0157904)
(0.0730922 0.00852761 -0.0200333)
(0.0611409 0.0101327 -0.0251607)
(0.0468713 0.0113659 -0.0302032)
(0.0265544 0.0118906 -0.0339915)
(0.00557857 0.00675795 -0.0230444)
(0.101815 0.00669149 -9.79547e-05)
(0.104377 0.00945868 -0.000584294)
(0.106335 0.00889526 -0.0012097)
(0.106523 0.00738327 -0.00189367)
(0.105805 0.00621928 -0.00273368)
(0.104345 0.00565012 -0.00380749)
(0.102255 0.00569195 -0.00518763)
(0.0994981 0.00626001 -0.00694249)
(0.0957799 0.00731706 -0.00915857)
(0.0910418 0.0088371 -0.0119257)
(0.0844291 0.0108595 -0.0153747)
(0.076166 0.0133016 -0.0195085)
(0.0641187 0.0162639 -0.0245007)
(0.0495257 0.0190125 -0.0294314)
(0.0282533 0.0208116 -0.033124)
(0.00577394 0.0134635 -0.0223922)
(0.100957 0.00467765 -6.63122e-05)
(0.102929 0.00753152 -0.000519604)
(0.104865 0.0078185 -0.00111691)
(0.105514 0.00718602 -0.00177274)
(0.105387 0.00662264 -0.00257773)
(0.104488 0.0064827 -0.0036036)
(0.102917 0.00688071 -0.00491683)
(0.100652 0.00782624 -0.00658055)
(0.0974275 0.00934406 -0.00867294)
(0.0932201 0.0114667 -0.0112797)
(0.0871546 0.0142846 -0.0145168)
(0.0794782 0.0177734 -0.0183998)
(0.0678116 0.0220994 -0.0230738)
(0.0534055 0.0263974 -0.0277183)
(0.0311454 0.0296338 -0.0311686)
(0.00669476 0.0197022 -0.0210153)
(0.100591 0.00344329 -2.81775e-05)
(0.102173 0.00598521 -0.000438806)
(0.103987 0.00668658 -0.0010009)
(0.104899 0.00664263 -0.00162264)
(0.105192 0.00658448 -0.00238495)
(0.104766 0.00686476 -0.00335192)
(0.103688 0.00763834 -0.00458264)
(0.101936 0.0089829 -0.00613355)
(0.0992667 0.0109875 -0.00807251)
(0.0956818 0.013775 -0.0104795)
(0.0902863 0.0175418 -0.0134518)
(0.0833565 0.0224518 -0.0170195)
(0.0722366 0.0289183 -0.0212892)
(0.0582555 0.0362571 -0.0255722)
(0.0350048 0.0434631 -0.0287132)
(0.00831568 0.0319274 -0.0193572)
(0.100457 0.0024724 1.55039e-05)
(0.101869 0.0045859 -0.000345684)
(0.103649 0.00550136 -0.000867131)
(0.104768 0.00587648 -0.00144969)
(0.105398 0.00624022 -0.00216248)
(0.105395 0.00689626 -0.0030603)
(0.104815 0.00800808 -0.00419295)
(0.103654 0.00969508 -0.00560749)
(0.101715 0.0120904 -0.00735716)
(0.0990695 0.0153921 -0.00951008)
(0.0948919 0.0198691 -0.0121342)
(0.089603 0.0258639 -0.0152663)
(0.0803699 0.0339641 -0.0189483)
(0.0688179 0.0437639 -0.0226596)
(0.0456917 0.0543761 -0.0252402)
(0.0172741 0.0408133 -0.0169956)
(0.100418 0.00162429 6.2013e-05)
(0.10181 0.00325545 -0.000246067)
(0.103662 0.00424609 -0.000723922)
(0.104988 0.00491184 -0.00126474)
(0.105916 0.0056119 -0.00192485)
(0.106288 0.00658041 -0.00274912)
(0.106165 0.0079712 -0.00377774)
(0.105565 0.00993051 -0.00504782)
(0.104334 0.0126297 -0.00659783)
(0.102599 0.0163619 -0.00848304)
(0.0996102 0.0215113 -0.0107421)
(0.0959127 0.0288306 -0.0134162)
(0.0885806 0.0394146 -0.0164826)
(0.0798207 0.0549481 -0.0196019)
(0.0577549 0.0762841 -0.0216454)
(0.0318414 0.0799941 -0.0149167)
(0.0880352 0.0162911 -4.14261e-05)
(0.0749478 0.00988254 -0.000278214)
(0.0633635 0.00549376 -0.000584094)
(0.0577427 0.00243469 -0.000917374)
(0.0541973 0.0011326 -0.00133595)
(0.0518297 0.000591202 -0.00187312)
(0.0496951 0.00040493 -0.00256091)
(0.0474634 0.000351793 -0.00342474)
(0.0447643 0.000360026 -0.00450215)
(0.0415691 0.000378683 -0.00581475)
(0.0373528 0.000415792 -0.00742005)
(0.0324493 0.000392387 -0.00925111)
(0.0258261 0.000400914 -0.0114107)
(0.018518 0.000174627 -0.0133256)
(0.00926479 6.98063e-05 -0.0146673)
(0.000427099 -0.0012689 -0.00994206)
(0.103945 0.0157424 -0.000139534)
(0.104027 0.0131217 -0.000556031)
(0.101776 0.009162 -0.00105713)
(0.098862 0.00553225 -0.00159342)
(0.0958395 0.00354118 -0.00224718)
(0.092929 0.00258665 -0.00308303)
(0.0898117 0.00227851 -0.00415841)
(0.0862694 0.00232732 -0.00552125)
(0.0818904 0.00261206 -0.00723311)
(0.0765642 0.00305301 -0.00934108)
(0.0695591 0.00364685 -0.0119308)
(0.0611265 0.00428246 -0.0149427)
(0.049794 0.00504061 -0.0184822)
(0.03677 0.00546662 -0.021785)
(0.0198744 0.00562062 -0.0240001)
(0.00360943 0.00235121 -0.016256)
(0.103588 0.00992884 -0.000159439)
(0.106378 0.0115966 -0.000612209)
(0.107398 0.00970459 -0.00114327)
(0.106362 0.00710867 -0.00170505)
(0.104491 0.00539893 -0.00238749)
(0.102106 0.00451935 -0.00326078)
(0.0992201 0.0043223 -0.00438609)
(0.0957243 0.00461042 -0.00581509)
(0.091262 0.00528952 -0.00761239)
(0.0857274 0.00628699 -0.0098311)
(0.0783339 0.007604 -0.0125594)
(0.0692949 0.00911137 -0.0157472)
(0.056938 0.0108769 -0.0194923)
(0.0424766 0.0122668 -0.0230178)
(0.0232762 0.012909 -0.0253613)
(0.00437555 0.00750618 -0.0171046)
(0.101793 0.00671817 -0.00014674)
(0.104243 0.00951618 -0.000590366)
(0.106023 0.00897608 -0.00111106)
(0.106013 0.00748482 -0.00166027)
(0.105073 0.00634745 -0.0023272)
(0.103366 0.00581596 -0.00318005)
(0.100989 0.005911 -0.00427767)
(0.0978889 0.00655138 -0.00567015)
(0.0937579 0.007706 -0.00741919)
(0.0885208 0.00935153 -0.00957819)
(0.0813565 0.0115382 -0.0122304)
(0.0724832 0.0141732 -0.0153351)
(0.0600338 0.017377 -0.018979)
(0.045249 0.0203435 -0.0224233)
(0.0250593 0.0223122 -0.0247006)
(0.00462537 0.0145054 -0.0166201)
(0.100936 0.00471077 -0.000120616)
(0.1028 0.00760284 -0.000537244)
(0.104564 0.00791991 -0.0010349)
(0.105024 0.00731497 -0.00156112)
(0.104687 0.00678638 -0.00219964)
(0.103557 0.00669529 -0.00301382)
(0.101717 0.00716223 -0.00405776)
(0.0991315 0.008202 -0.0053776)
(0.0955228 0.0098478 -0.00702888)
(0.0908521 0.0121365 -0.00906257)
(0.0842715 0.0151736 -0.0115515)
(0.076027 0.0189221 -0.0144664)
(0.0639765 0.0235778 -0.0178748)
(0.0493891 0.028171 -0.0211135)
(0.0281366 0.0316552 -0.0232301)
(0.00562942 0.0211032 -0.0156009)
(0.100571 0.00348126 -8.91394e-05)
(0.102049 0.00606706 -0.000470763)
(0.1037 0.00680372 -0.000939563)
(0.104435 0.00679266 -0.00143797)
(0.104532 0.00677602 -0.00204188)
(0.103892 0.00711453 -0.00280851)
(0.102567 0.00797057 -0.00378615)
(0.100525 0.00942888 -0.00501591)
(0.097506 0.0115897 -0.00654558)
(0.0935031 0.0145835 -0.00842256)
(0.0876397 0.0186277 -0.0107063)
(0.0801987 0.0238753 -0.0133808)
(0.0687233 0.0307833 -0.0164871)
(0.0545856 0.0385349 -0.0194622)
(0.0322515 0.046133 -0.0213699)
(0.00735933 0.0338517 -0.0143522)
(0.100438 0.00251406 -5.31454e-05)
(0.101752 0.00467554 -0.00039418)
(0.103378 0.00562995 -0.000829715)
(0.104333 0.00604177 -0.00129625)
(0.104783 0.00645188 -0.0018601)
(0.104588 0.00717295 -0.00257111)
(0.103789 0.00837704 -0.00347034)
(0.102374 0.0101922 -0.00459202)
(0.100133 0.0127647 -0.00597328)
(0.0971325 0.0163036 -0.00765408)
(0.092558 0.0211035 -0.00967371)
(0.0868495 0.027501 -0.0120254)
(0.0773206 0.0361392 -0.0147087)
(0.0656782 0.0464666 -0.0172866)
(0.0433442 0.0576267 -0.0188382)
(0.0165082 0.0432372 -0.0126514)
(0.1004 0.00166784 -1.48927e-05)
(0.1017 0.00334899 -0.00031233)
(0.103409 0.00438043 -0.000712196)
(0.104584 0.00508491 -0.00114477)
(0.105351 0.00583395 -0.00166596)
(0.105553 0.0068712 -0.00231771)
(0.105241 0.00835975 -0.00313356)
(0.104425 0.0104557 -0.00414036)
(0.102943 0.0133452 -0.00536425)
(0.10092 0.0173359 -0.00683678)
(0.0976131 0.0228423 -0.00857657)
(0.0936006 0.0306215 -0.0105842)
(0.0860533 0.0418381 -0.0128169)
(0.0773044 0.0580382 -0.0149729)
(0.0559314 0.0801795 -0.0161771)
(0.0314151 0.0831933 -0.0110999)
(0.0880235 0.0162921 -5.50139e-05)
(0.0748784 0.00988744 -0.000245461)
(0.063203 0.00549838 -0.000473259)
(0.0574892 0.00243879 -0.000715042)
(0.0538425 0.00113742 -0.00101627)
(0.0513656 0.00059765 -0.00140247)
(0.049108 0.000413858 -0.00189574)
(0.0467359 0.000364164 -0.00251085)
(0.0438829 0.000377426 -0.00326941)
(0.0405175 0.000403656 -0.00417583)
(0.0361519 0.000452605 -0.0052576)
(0.0311101 0.000449135 -0.00644512)
(0.0244944 0.000487703 -0.00778389)
(0.0172787 0.00031572 -0.00887853)
(0.00847654 0.000259209 -0.00947394)
(0.00032037 -0.00102675 -0.0062329)
(0.103928 0.0157502 -0.000135434)
(0.103928 0.0131401 -0.000465763)
(0.101543 0.00918549 -0.000841334)
(0.0984816 0.00555966 -0.00123329)
(0.0952939 0.00357516 -0.00170634)
(0.092202 0.00263071 -0.00230982)
(0.0888788 0.00233691 -0.00308446)
(0.0850994 0.00240502 -0.00406037)
(0.0804539 0.00271578 -0.00527435)
(0.0748289 0.00319077 -0.00674496)
(0.0675384 0.00383033 -0.0085134)
(0.058838 0.0045246 -0.010505)
(0.0474382 0.00535999 -0.0127535)
(0.0345276 0.00588019 -0.0147191)
(0.0183525 0.00611254 -0.0157767)
(0.00323297 0.00278779 -0.010404)
(0.103571 0.0099446 -0.000151499)
(0.106276 0.0116304 -0.000510042)
(0.107159 0.00975051 -0.000908377)
(0.105968 0.00716483 -0.00131921)
(0.103923 0.00546877 -0.0018133)
(0.101348 0.00460895 -0.00244413)
(0.0982464 0.00443983 -0.0032553)
(0.0945016 0.00476553 -0.00427952)
(0.0897583 0.00549481 -0.00555562)
(0.0839086 0.00655615 -0.00710597)
(0.0762101 0.00795614 -0.00897277)
(0.0668855 0.00956168 -0.0110863)
(0.0544461 0.0114502 -0.0134727)
(0.0401006 0.0129613 -0.0155802)
(0.0216521 0.0136978 -0.0167031)
(0.00397554 0.00809054 -0.0109644)
(0.101777 0.00673922 -0.00014222)
(0.104144 0.00956144 -0.000494247)
(0.105789 0.00903959 -0.000884933)
(0.105628 0.0075645 -0.00128642)
(0.10452 0.0064477 -0.00176908)
(0.102629 0.00594519 -0.00238494)
(0.100044 0.00608089 -0.00317596)
(0.0967038 0.0067761 -0.00417377)
(0.0923024 0.00800397 -0.00541519)
(0.0867631 0.00974256 -0.00692298)
(0.0793056 0.0120494 -0.00873595)
(0.0701601 0.0148234 -0.010791)
(0.0576323 0.0181985 -0.0131065)
(0.0429658 0.0213182 -0.0151566)
(0.0235035 0.023403 -0.0162326)
(0.00426839 0.0152656 -0.0106205)
(0.100921 0.00473688 -0.000122752)
(0.102704 0.00765896 -0.000454797)
(0.104339 0.00799956 -0.000828405)
(0.104655 0.00741601 -0.00121291)
(0.104159 0.00691423 -0.00167472)
(0.102856 0.00686051 -0.00226236)
(0.100821 0.00737974 -0.00301441)
(0.0980128 0.00849018 -0.00395986)
(0.0941536 0.0102306 -0.00513146)
(0.0892052 0.0126398 -0.00655074)
(0.0823553 0.0158329 -0.00825)
(0.0738651 0.0197612 -0.0101749)
(0.0617457 0.0246391 -0.0123321)
(0.04728 0.029426 -0.0142468)
(0.0267043 0.0330619 -0.0152242)
(0.00532836 0.0220725 -0.00993115)
(0.100557 0.00351115 -9.93067e-05)
(0.101958 0.0061314 -0.000405365)
(0.103486 0.00689562 -0.000757583)
(0.104086 0.00691005 -0.00112158)
(0.104034 0.00692531 -0.00155801)
(0.103234 0.00730817 -0.00211096)
(0.101731 0.00822633 -0.0028149)
(0.0994864 0.00976909 -0.00369549)
(0.0962417 0.0120438 -0.00478034)
(0.0919911 0.0151841 -0.00608921)
(0.085888 0.0194199 -0.00764599)
(0.0782352 0.0248921 -0.00940702)
(0.0667046 0.0320823 -0.0113629)
(0.0526973 0.0400845 -0.0131062)
(0.0309806 0.0478986 -0.0139597)
(0.00712749 0.035103 -0.00909456)
(0.100424 0.00254682 -7.25194e-05)
(0.101665 0.00474594 -0.000348437)
(0.103177 0.00573075 -0.00067603)
(0.104006 0.00617098 -0.00101657)
(0.104321 0.00661663 -0.00142372)
(0.103982 0.00738707 -0.00193624)
(0.103024 0.00866037 -0.00258363)
(0.101432 0.01057 -0.00338707)
(0.0989959 0.0132704 -0.00436733)
(0.0957873 0.0169755 -0.0055404)
(0.0910143 0.0219942 -0.0069182)
(0.0851433 0.0286524 -0.00846653)
(0.0755839 0.0376232 -0.0101525)
(0.0640951 0.048257 -0.0116528)
(0.0423042 0.0597037 -0.0123122)
(0.0163872 0.0447563 -0.00801724)
(0.100386 0.00170201 -4.40857e-05)
(0.101619 0.00342237 -0.000287629)
(0.103222 0.00448565 -0.000588823)
(0.104282 0.00522007 -0.000904379)
(0.104926 0.0060066 -0.00128032)
(0.105 0.00709591 -0.00174976)
(0.10455 0.00865749 -0.00233697)
(0.103585 0.0108535 -0.00305832)
(0.101941 0.0138791 -0.00392756)
(0.099752 0.0180484 -0.00495627)
(0.0962916 0.0237916 -0.00614421)
(0.0921726 0.0318596 -0.00746561)
(0.0846306 0.043451 -0.00886451)
(0.076075 0.0600165 -0.0101081)
(0.0551871 0.0825521 -0.0105872)
(0.0314803 0.0851275 -0.00704282)
(0.0880158 0.0162928 -4.28769e-05)
(0.0748321 0.00989078 -0.00016643)
(0.0630955 0.00550146 -0.000306259)
(0.0573186 0.00244153 -0.000453317)
(0.0536027 0.00114056 -0.000635084)
(0.0510507 0.000601744 -0.000868353)
(0.0487086 0.000419334 -0.00116624)
(0.0462397 0.000371397 -0.00153699)
(0.0432805 0.000386976 -0.00199291)
(0.0397976 0.000416384 -0.0025344)
(0.0353282 0.000469945 -0.00317651)
(0.0301925 0.000474353 -0.00387392)
(0.0235818 0.000524506 -0.00465018)
(0.0164408 0.000376059 -0.00527484)
(0.00795879 0.000336758 -0.00558874)
(0.000252102 -0.000923671 -0.00369063)
(0.103917 0.0157556 -9.57677e-05)
(0.103862 0.0131527 -0.00030711)
(0.101387 0.00920158 -0.000539517)
(0.0982251 0.00557845 -0.000778556)
(0.0949247 0.00359839 -0.00106508)
(0.0917085 0.00266069 -0.00143037)
(0.0882446 0.00237641 -0.00189911)
(0.0843032 0.00245716 -0.00248855)
(0.0794763 0.00278464 -0.00321962)
(0.0736491 0.00328097 -0.00410014)
(0.0661674 0.00394839 -0.00515185)
(0.057293 0.00467713 -0.0063238)
(0.0458584 0.00555641 -0.00762947)
(0.0330504 0.00612782 -0.00875048)
(0.0173828 0.00639804 -0.00930761)
(0.00301191 0.00302778 -0.00614005)
(0.10356 0.00995546 -0.000105817)
(0.106208 0.0116536 -0.000335206)
(0.106998 0.0097821 -0.000582094)
(0.105702 0.00720345 -0.000832621)
(0.103539 0.00551673 -0.00113206)
(0.100833 0.00467034 -0.00151401)
(0.0975841 0.00452013 -0.00200505)
(0.0936692 0.00487116 -0.00262397)
(0.0887345 0.005634 -0.0033929)
(0.0826713 0.00673767 -0.00432185)
(0.0747682 0.00819198 -0.00543299)
(0.0652578 0.00986072 -0.00667794)
(0.0527739 0.0118269 -0.00806533)
(0.0385341 0.013412 -0.00926888)
(0.020616 0.0142023 -0.0098614)
(0.00374033 0.00845517 -0.00647506)
(0.101766 0.00675375 -0.000100334)
(0.104077 0.00959264 -0.000325662)
(0.105632 0.00908333 -0.000567891)
(0.105369 0.00761934 -0.000812603)
(0.104146 0.00651661 -0.00110505)
(0.102129 0.00603387 -0.00147785)
(0.0994005 0.00619724 -0.00195664)
(0.0958965 0.00692965 -0.00255956)
(0.0913107 0.008207 -0.0033076)
(0.0855662 0.0100081 -0.00421103)
(0.0779114 0.0123951 -0.00529018)
(0.0685878 0.0152609 -0.0065006)
(0.0560169 0.0187474 -0.00784676)
(0.0414561 0.021965 -0.00901731)
(0.0225081 0.0241205 -0.00958409)
(0.00405814 0.0157625 -0.00627477)
(0.100911 0.00475492 -8.8275e-05)
(0.10264 0.00769765 -0.000301346)
(0.104188 0.00805443 -0.000533116)
(0.104407 0.00748556 -0.000767423)
(0.103802 0.00700214 -0.00104717)
(0.10238 0.00697396 -0.00140278)
(0.100212 0.00752887 -0.00185794)
(0.0972505 0.00868745 -0.00242922)
(0.0932203 0.0104922 -0.00313529)
(0.0880827 0.0129831 -0.00398584)
(0.0810506 0.0162811 -0.00499763)
(0.0723987 0.0203302 -0.00613164)
(0.0602409 0.0253556 -0.00738617)
(0.0458806 0.03027 -0.0084793)
(0.0257851 0.0340029 -0.00899309)
(0.00515195 0.0227243 -0.00587449)
(0.100547 0.00353178 -7.38574e-05)
(0.101897 0.00617575 -0.00027094)
(0.103342 0.00695893 -0.000489529)
(0.10385 0.00699085 -0.000711259)
(0.103698 0.00702795 -0.000975494)
(0.102788 0.00744113 -0.00130996)
(0.101162 0.0084017 -0.00173588)
(0.0987791 0.010002 -0.00226785)
(0.0953798 0.0123541 -0.00292157)
(0.0909602 0.015594 -0.00370576)
(0.0846947 0.0199591 -0.00463249)
(0.0769021 0.0255823 -0.0056691)