/*--------------------------------*- C++ -*----------------------------------*\
| =========                 |                                                 |
| \\      /  F ield         | OpenFOAM: The Open Source CFD Toolbox           |
|  \\    /   O peration     | Version:  v1912                                 |
|   \\  /    A nd           | Website:  www.openfoam.com                      |
|    \\/     M anipulation  |                                                 |
\*---------------------------------------------------------------------------*/
FoamFile
{
    version     2.0;
    format      ascii;
    class       volVectorField;
    location    "0.09/fluid";
    object      cellMotionU;
}
// * * * * * * * * * * * * * * * * * * * * * * * * * * * * * * * * * * * * * //

dimensions      [0 1 -1 0 0 0 0];


internalField   nonuniform List<vector> 
14592
(
(6.39865e-10 -3.22187e-09 2.76511e-09)
(1.70883e-09 -8.99508e-09 7.7677e-09)
(2.45624e-09 -1.42811e-08 1.24868e-08)
(2.99242e-09 -1.92558e-08 1.71742e-08)
(2.95166e-09 -2.40758e-08 2.18317e-08)
(2.55935e-09 -2.90585e-08 2.69088e-08)
(1.59395e-09 -3.39856e-08 3.23698e-08)
(-1.47867e-11 -3.86043e-08 3.81305e-08)
(-2.27027e-09 -4.28066e-08 4.42672e-08)
(-5.29912e-09 -4.61778e-08 5.04747e-08)
(-1.03958e-08 -4.87213e-08 5.68757e-08)
(-1.71846e-08 -4.9501e-08 6.42776e-08)
(-2.68826e-08 -4.65858e-08 7.31404e-08)
(-4.16452e-08 -3.46067e-08 8.56761e-08)
(-6.52849e-08 2.86147e-09 1.05621e-07)
(-9.12805e-08 9.05495e-08 1.33475e-07)
(1.94797e-09 -9.64517e-09 8.26678e-09)
(5.1741e-09 -2.69166e-08 2.31926e-08)
(7.66987e-09 -4.2792e-08 3.73791e-08)
(9.02387e-09 -5.77995e-08 5.12565e-08)
(9.30941e-09 -7.27806e-08 6.56839e-08)
(8.14519e-09 -8.75865e-08 8.07744e-08)
(5.4052e-09 -1.02151e-07 9.69013e-08)
(9.61413e-10 -1.16171e-07 1.14231e-07)
(-5.35086e-09 -1.28818e-07 1.32255e-07)
(-1.48402e-08 -1.39702e-07 1.50674e-07)
(-2.76057e-08 -1.4795e-07 1.69962e-07)
(-4.51444e-08 -1.5203e-07 1.90494e-07)
(-6.66495e-08 -1.48779e-07 2.14266e-07)
(-9.10332e-08 -1.31608e-07 2.42626e-07)
(-1.08832e-07 -8.79192e-08 2.7618e-07)
(-9.40105e-08 -1.84078e-08 3.0986e-07)
(3.33803e-09 -1.58606e-08 1.36276e-08)
(8.94965e-09 -4.42792e-08 3.82541e-08)
(1.33338e-08 -7.04588e-08 6.16402e-08)
(1.59836e-08 -9.56469e-08 8.48146e-08)
(1.67087e-08 -1.20144e-07 1.08389e-07)
(1.53037e-08 -1.44623e-07 1.33304e-07)
(1.15215e-08 -1.68896e-07 1.6001e-07)
(5.21053e-09 -1.92238e-07 1.88445e-07)
(-3.93244e-09 -2.1377e-07 2.18149e-07)
(-1.76911e-08 -2.33301e-07 2.48557e-07)
(-3.52298e-08 -2.48949e-07 2.7983e-07)
(-5.78642e-08 -2.60123e-07 3.13469e-07)
(-8.27538e-08 -2.63796e-07 3.50924e-07)
(-1.05442e-07 -2.55475e-07 3.92715e-07)
(-1.09842e-07 -2.30101e-07 4.39412e-07)
(-7.12232e-08 -1.95862e-07 4.86873e-07)
(4.858e-09 -2.16055e-08 1.87091e-08)
(1.32411e-08 -6.03061e-08 5.25625e-08)
(1.96712e-08 -9.63199e-08 8.46619e-08)
(2.40059e-08 -1.30716e-07 1.16451e-07)
(2.58696e-08 -1.64568e-07 1.49049e-07)
(2.49695e-08 -1.98163e-07 1.83253e-07)
(2.12182e-08 -2.31517e-07 2.19824e-07)
(1.46705e-08 -2.63916e-07 2.58786e-07)
(3.58271e-09 -2.94985e-07 2.99261e-07)
(-9.79687e-09 -3.22858e-07 3.4121e-07)
(-2.90157e-08 -3.48268e-07 3.84112e-07)
(-5.14466e-08 -3.69503e-07 4.30325e-07)
(-7.44151e-08 -3.84344e-07 4.80508e-07)
(-9.3383e-08 -3.89402e-07 5.33901e-07)
(-9.39978e-08 -3.80421e-07 5.88564e-07)
(-5.77566e-08 -3.60464e-07 6.36787e-07)
(6.57433e-09 -2.66131e-08 2.33947e-08)
(1.7909e-08 -7.43803e-08 6.56728e-08)
(2.69163e-08 -1.18921e-07 1.05792e-07)
(3.3368e-08 -1.61659e-07 1.45513e-07)
(3.68879e-08 -2.03437e-07 1.85989e-07)
(3.74819e-08 -2.45113e-07 2.28629e-07)
(3.50435e-08 -2.86675e-07 2.74088e-07)
(2.92419e-08 -3.27612e-07 3.22327e-07)
(2.08808e-08 -3.66915e-07 3.7301e-07)
(7.75865e-09 -4.04709e-07 4.24835e-07)
(-7.84231e-09 -4.40377e-07 4.79377e-07)
(-2.5669e-08 -4.73468e-07 5.37787e-07)
(-4.26227e-08 -5.0209e-07 6.00826e-07)
(-5.61041e-08 -5.22682e-07 6.66525e-07)
(-5.6007e-08 -5.29026e-07 7.30156e-07)
(-2.76289e-08 -5.17521e-07 7.79212e-07)
(8.50664e-09 -3.06567e-08 2.76117e-08)
(2.30025e-08 -8.58506e-08 7.73428e-08)
(3.49207e-08 -1.37317e-07 1.24528e-07)
(4.38657e-08 -1.86673e-07 1.7105e-07)
(4.98394e-08 -2.35177e-07 2.1866e-07)
(5.27021e-08 -2.83522e-07 2.68496e-07)
(5.26135e-08 -3.31874e-07 3.21444e-07)
(4.96547e-08 -3.79892e-07 3.77495e-07)
(4.38909e-08 -4.27035e-07 4.36262e-07)
(3.5775e-08 -4.73572e-07 4.97695e-07)
(2.60352e-08 -5.19459e-07 5.62267e-07)
(1.64726e-08 -5.64835e-07 6.32115e-07)
(1.00899e-08 -6.08699e-07 7.08488e-07)
(7.98959e-09 -6.48247e-07 7.90085e-07)
(1.51222e-08 -6.74969e-07 8.70453e-07)
(3.85629e-08 -6.73563e-07 9.3004e-07)
(1.04337e-08 -3.35737e-08 3.11746e-08)
(2.84857e-08 -9.40215e-08 8.73849e-08)
(4.35044e-08 -1.50478e-07 1.40531e-07)
(5.5404e-08 -2.04713e-07 1.92904e-07)
(6.41137e-08 -2.5797e-07 2.4615e-07)
(6.98803e-08 -3.11187e-07 3.01791e-07)
(7.28544e-08 -3.64668e-07 3.60566e-07)
(7.35865e-08 -4.18136e-07 4.22766e-07)
(7.23064e-08 -4.71618e-07 4.88131e-07)
(6.96498e-08 -5.2528e-07 5.56586e-07)
(6.7398e-08 -5.79795e-07 6.2917e-07)
(6.82766e-08 -6.35989e-07 7.08345e-07)
(7.66037e-08 -6.94808e-07 7.97271e-07)
(9.48404e-08 -7.57169e-07 8.97575e-07)
(1.29222e-07 -8.21246e-07 1.00712e-06)
(1.76851e-07 -8.71124e-07 1.10249e-06)
(1.24782e-08 -3.51848e-08 3.41689e-08)
(3.41124e-08 -9.85843e-08 9.5693e-08)
(5.2415e-08 -1.57832e-07 1.53727e-07)
(6.7365e-08 -2.14813e-07 2.10684e-07)
(7.91878e-08 -2.70892e-07 2.68431e-07)
(8.80198e-08 -3.2706e-07 3.28277e-07)
(9.43041e-08 -3.83658e-07 3.91128e-07)
(9.87809e-08 -4.40602e-07 4.57352e-07)
(1.0179e-07 -4.98065e-07 5.26755e-07)
(1.04579e-07 -5.56563e-07 5.99749e-07)
(1.0946e-07 -6.16616e-07 6.77022e-07)
(1.19379e-07 -6.79987e-07 7.6119e-07)
(1.40898e-07 -7.48361e-07 8.5721e-07)
(1.81019e-07 -8.25895e-07 9.70617e-07)
(2.58245e-07 -9.20054e-07 1.10982e-06)
(3.80234e-07 -1.02481e-06 1.26334e-06)
(4.18562e-10 -3.34417e-09 2.65446e-09)
(1.09033e-09 -9.34996e-09 7.47052e-09)
(1.50314e-09 -1.49013e-08 1.20725e-08)
(1.48428e-09 -2.01585e-08 1.65297e-08)
(1.05511e-09 -2.52705e-08 2.11072e-08)
(9.97594e-12 -3.04222e-08 2.58961e-08)
(-1.75439e-09 -3.55398e-08 3.10494e-08)
(-4.31519e-09 -4.04575e-08 3.6621e-08)
(-8.00351e-09 -4.50499e-08 4.24617e-08)
(-1.33973e-08 -4.90702e-08 4.84629e-08)
(-2.05671e-08 -5.21018e-08 5.48669e-08)
(-3.23703e-08 -5.44813e-08 6.1929e-08)
(-5.09112e-08 -5.51233e-08 7.09459e-08)
(-8.45932e-08 -5.19432e-08 8.31435e-08)
(-1.53314e-07 -4.03833e-08 1.01227e-07)
(-2.78633e-07 -2.03144e-08 1.25899e-07)
(1.30271e-09 -1.00057e-08 7.93864e-09)
(3.40989e-09 -2.79532e-08 2.23267e-08)
(4.66359e-09 -4.453e-08 3.59391e-08)
(4.85807e-09 -6.03022e-08 4.93989e-08)
(3.61263e-09 -7.58276e-08 6.30572e-08)
(6.68672e-10 -9.1253e-08 7.74013e-08)
(-4.25357e-09 -1.06542e-07 9.28046e-08)
(-1.15923e-08 -1.21405e-07 1.09316e-07)
(-2.19664e-08 -1.35141e-07 1.26597e-07)
(-3.61049e-08 -1.47137e-07 1.44411e-07)
(-5.65462e-08 -1.57367e-07 1.62809e-07)
(-8.51156e-08 -1.65019e-07 1.83314e-07)
(-1.26427e-07 -1.69075e-07 2.07131e-07)
(-1.85397e-07 -1.65982e-07 2.34523e-07)
(-2.67768e-07 -1.52246e-07 2.63982e-07)
(-3.61899e-07 -1.3549e-07 2.89661e-07)
(2.31955e-09 -1.64323e-08 1.3093e-08)
(6.10756e-09 -4.58721e-08 3.67615e-08)
(8.51906e-09 -7.31938e-08 5.91864e-08)
(9.20311e-09 -9.93234e-08 8.13534e-08)
(7.65203e-09 -1.2491e-07 1.039e-07)
(3.49311e-09 -1.5044e-07 1.27627e-07)
(-3.69311e-09 -1.75828e-07 1.53057e-07)
(-1.43596e-08 -2.00433e-07 1.80183e-07)
(-2.94319e-08 -2.23573e-07 2.08452e-07)
(-4.95206e-08 -2.44363e-07 2.37814e-07)
(-7.73599e-08 -2.62788e-07 2.67956e-07)
(-1.14701e-07 -2.78393e-07 3.01075e-07)
(-1.63823e-07 -2.90086e-07 3.38237e-07)
(-2.2414e-07 -2.95184e-07 3.78696e-07)
(-2.91147e-07 -2.93468e-07 4.20181e-07)
(-3.50419e-07 -2.93274e-07 4.56887e-07)
(3.54298e-09 -2.23414e-08 1.7974e-08)
(9.34204e-09 -6.24706e-08 5.03831e-08)
(1.34075e-08 -9.9747e-08 8.11813e-08)
(1.50814e-08 -1.35494e-07 1.11503e-07)
(1.39754e-08 -1.70612e-07 1.42506e-07)
(9.63791e-09 -2.05597e-07 1.7511e-07)
(1.67407e-09 -2.40416e-07 2.09939e-07)
(-1.05232e-08 -2.74523e-07 2.46926e-07)
(-2.69009e-08 -3.06731e-07 2.85978e-07)
(-4.98484e-08 -3.37096e-07 3.25374e-07)
(-7.9158e-08 -3.64882e-07 3.67228e-07)
(-1.17518e-07 -3.90322e-07 4.12346e-07)
(-1.65481e-07 -4.1223e-07 4.61673e-07)
(-2.21044e-07 -4.28269e-07 5.13481e-07)
(-2.80015e-07 -4.3786e-07 5.63549e-07)
(-3.34334e-07 -4.44765e-07 6.03828e-07)
(4.98964e-09 -2.75146e-08 2.24582e-08)
(1.3288e-08 -7.69586e-08 6.29007e-08)
(1.93967e-08 -1.23006e-07 1.01221e-07)
(2.27592e-08 -1.67221e-07 1.39026e-07)
(2.29603e-08 -2.10611e-07 1.77644e-07)
(1.96602e-08 -2.53923e-07 2.18243e-07)
(1.25084e-08 -2.97175e-07 2.61478e-07)
(1.34881e-09 -3.39667e-07 3.07423e-07)
(-1.46016e-08 -3.80952e-07 3.5523e-07)
(-3.49052e-08 -4.20273e-07 4.05302e-07)
(-6.13557e-08 -4.58193e-07 4.57415e-07)
(-9.45972e-08 -4.94492e-07 5.13867e-07)
(-1.35438e-07 -5.28204e-07 5.7503e-07)
(-1.83611e-07 -5.56567e-07 6.38273e-07)
(-2.39396e-07 -5.77044e-07 6.97253e-07)
(-2.98157e-07 -5.88874e-07 7.40669e-07)
(6.63666e-09 -3.17068e-08 2.64107e-08)
(1.79192e-08 -8.86768e-08 7.40434e-08)
(2.65617e-08 -1.41843e-07 1.18977e-07)
(3.22134e-08 -1.92874e-07 1.63286e-07)
(3.45942e-08 -2.43055e-07 2.08559e-07)
(3.34454e-08 -2.93152e-07 2.55992e-07)
(2.85934e-08 -3.43273e-07 3.06239e-07)
(2.00884e-08 -3.92982e-07 3.59495e-07)
(7.99877e-09 -4.41759e-07 4.15339e-07)
(-7.60205e-09 -4.89676e-07 4.73714e-07)
(-2.68165e-08 -5.37043e-07 5.35354e-07)
(-5.00239e-08 -5.84167e-07 6.02088e-07)
(-7.78324e-08 -6.30507e-07 6.749e-07)
(-1.12156e-07 -6.73551e-07 7.51567e-07)
(-1.5961e-07 -7.08082e-07 8.24456e-07)
(-2.2373e-07 -7.23858e-07 8.77618e-07)
(8.52606e-09 -3.46701e-08 2.98594e-08)
(2.30708e-08 -9.70584e-08 8.35506e-08)
(3.47135e-08 -1.55285e-07 1.34172e-07)
(4.32083e-08 -2.11252e-07 1.83988e-07)
(4.83752e-08 -2.66301e-07 2.34683e-07)
(5.01659e-08 -3.21326e-07 2.87532e-07)
(4.86875e-08 -3.76519e-07 3.43306e-07)
(4.41509e-08 -4.31606e-07 4.02094e-07)
(3.72294e-08 -4.86327e-07 4.64081e-07)
(2.83323e-08 -5.40964e-07 5.29026e-07)
(1.8369e-08 -5.96081e-07 5.97849e-07)
(8.28466e-09 -6.52444e-07 6.72635e-07)
(-9.8908e-10 -7.10753e-07 7.55597e-07)
(-1.00505e-08 -7.71241e-07 8.46472e-07)
(-2.64047e-08 -8.32594e-07 9.38939e-07)
(-6.72639e-08 -8.8164e-07 1.01132e-06)
(1.05124e-08 -3.63023e-08 3.26888e-08)
(2.85932e-08 -1.01658e-07 9.14228e-08)
(4.35209e-08 -1.62708e-07 1.46704e-07)
(5.51456e-08 -2.21451e-07 2.00903e-07)
(6.34738e-08 -2.79315e-07 2.55757e-07)
(6.85841e-08 -3.37231e-07 3.12546e-07)
(7.0804e-08 -3.9545e-07 3.72071e-07)
(7.07e-08 -4.53826e-07 4.34631e-07)
(6.9085e-08 -5.12293e-07 5.00497e-07)
(6.69488e-08 -5.71235e-07 5.69482e-07)
(6.56383e-08 -6.31341e-07 6.42027e-07)
(6.80277e-08 -6.93246e-07 7.2101e-07)
(7.71117e-08 -7.5835e-07 8.09094e-07)
(9.81179e-08 -8.28491e-07 9.08705e-07)
(1.3759e-07 -9.04971e-07 1.01742e-06)
(1.91827e-07 -9.73602e-07 1.11286e-06)
(2.06176e-10 -3.4569e-09 2.44378e-09)
(4.73199e-10 -9.68372e-09 6.87352e-09)
(4.27939e-10 -1.54672e-08 1.10654e-08)
(5.28762e-11 -2.09245e-08 1.52582e-08)
(-9.5209e-10 -2.63137e-08 1.93822e-08)
(-2.61931e-09 -3.17061e-08 2.37703e-08)
(-5.12866e-09 -3.70206e-08 2.84367e-08)
(-8.73021e-09 -4.23337e-08 3.35288e-08)
(-1.36011e-08 -4.72296e-08 3.89247e-08)
(-2.02127e-08 -5.15832e-08 4.45058e-08)
(-3.03695e-08 -5.56758e-08 5.00438e-08)
(-4.54263e-08 -5.94431e-08 5.66301e-08)
(-7.09324e-08 -6.36172e-08 6.43249e-08)
(-1.17912e-07 -6.854e-08 7.3432e-08)
(-2.13121e-07 -7.63354e-08 8.31325e-08)
(-3.76794e-07 -9.10598e-08 8.87142e-08)
(6.66614e-10 -1.03343e-08 7.29812e-09)
(1.54843e-09 -2.89075e-08 2.04783e-08)
(1.65263e-09 -4.60805e-08 3.30391e-08)
(5.00547e-10 -6.25486e-08 4.53151e-08)
(-2.18557e-09 -7.86706e-08 5.78273e-08)
(-6.8798e-09 -9.47496e-08 7.08789e-08)
(-1.40239e-08 -1.10865e-07 8.4933e-08)
(-2.40248e-08 -1.2646e-07 1.00013e-07)
(-3.75696e-08 -1.41108e-07 1.15867e-07)
(-5.64106e-08 -1.54497e-07 1.31967e-07)
(-8.26088e-08 -1.66599e-07 1.48945e-07)
(-1.21077e-07 -1.78247e-07 1.67334e-07)
(-1.78148e-07 -1.89713e-07 1.88002e-07)
(-2.62639e-07 -2.00468e-07 2.08716e-07)
(-3.82569e-07 -2.10657e-07 2.23588e-07)
(-5.10216e-07 -2.21745e-07 2.22665e-07)
(1.281e-09 -1.69535e-08 1.20111e-08)
(3.11404e-09 -4.73766e-08 3.36899e-08)
(3.67462e-09 -7.56429e-08 5.43049e-08)
(2.29078e-09 -1.02716e-07 7.45286e-08)
(-1.53846e-09 -1.2931e-07 9.51017e-08)
(-8.41176e-09 -1.559e-07 1.16738e-07)
(-1.88955e-08 -1.82327e-07 1.39877e-07)
(-3.36052e-08 -2.08166e-07 1.64614e-07)
(-5.33077e-08 -2.32481e-07 1.90613e-07)
(-8.02857e-08 -2.55211e-07 2.16841e-07)
(-1.16503e-07 -2.76294e-07 2.44645e-07)
(-1.66888e-07 -2.96727e-07 2.74633e-07)
(-2.35447e-07 -3.1658e-07 3.07161e-07)
(-3.2397e-07 -3.35166e-07 3.39013e-07)
(-4.26491e-07 -3.52747e-07 3.6388e-07)
(-5.10812e-07 -3.69905e-07 3.72876e-07)
(2.13466e-09 -2.30465e-08 1.64539e-08)
(5.45325e-09 -6.44211e-08 4.62058e-08)
(6.92663e-09 -1.0294e-07 7.42577e-08)
(6.00462e-09 -1.39899e-07 1.01965e-07)
(1.98454e-09 -1.76238e-07 1.30216e-07)
(-5.76262e-09 -2.12498e-07 1.59888e-07)
(-1.78252e-08 -2.48705e-07 1.91593e-07)
(-3.46502e-08 -2.84024e-07 2.25424e-07)
(-5.77389e-08 -3.18068e-07 2.6021e-07)
(-8.70016e-08 -3.49892e-07 2.97171e-07)
(-1.26585e-07 -3.80633e-07 3.34798e-07)
(-1.79032e-07 -4.10526e-07 3.75596e-07)
(-2.46967e-07 -4.39547e-07 4.19025e-07)
(-3.29756e-07 -4.66733e-07 4.61117e-07)
(-4.2037e-07 -4.9163e-07 4.94973e-07)
(-4.94443e-07 -5.12773e-07 5.10439e-07)
(3.30394e-09 -2.8365e-08 2.05442e-08)
(8.619e-09 -7.92873e-08 5.75905e-08)
(1.17391e-08 -1.26786e-07 9.25259e-08)
(1.20408e-08 -1.72373e-07 1.26955e-07)
(8.91393e-09 -2.17187e-07 1.62117e-07)
(1.78487e-09 -2.61964e-07 1.99063e-07)
(-9.85758e-09 -3.06616e-07 2.38349e-07)
(-2.65263e-08 -3.50655e-07 2.79888e-07)
(-4.81601e-08 -3.9312e-07 3.23834e-07)
(-7.65022e-08 -4.34324e-07 3.68715e-07)
(-1.12547e-07 -4.7433e-07 4.16332e-07)
(-1.59488e-07 -5.13859e-07 4.67072e-07)
(-2.1937e-07 -5.52457e-07 5.20703e-07)
(-2.93081e-07 -5.88533e-07 5.72731e-07)
(-3.78117e-07 -6.20091e-07 6.15313e-07)
(-4.54856e-07 -6.4374e-07 6.36314e-07)
(4.81468e-09 -3.26248e-08 2.42183e-08)
(1.26675e-08 -9.13247e-08 6.76541e-08)
(1.8084e-08 -1.4603e-07 1.08658e-07)
(2.04454e-08 -1.98584e-07 1.48995e-07)
(1.92696e-08 -2.50273e-07 1.90174e-07)
(1.40991e-08 -3.01879e-07 2.33249e-07)
(4.6853e-09 -3.53479e-07 2.78882e-07)
(-9.1355e-09 -4.04514e-07 3.27049e-07)
(-2.72138e-08 -4.5452e-07 3.77729e-07)
(-4.98316e-08 -5.03525e-07 4.30637e-07)
(-7.79826e-08 -5.5209e-07 4.86269e-07)
(-1.13547e-07 -6.00643e-07 5.45699e-07)
(-1.586e-07 -6.48847e-07 6.08769e-07)
(-2.16594e-07 -6.94777e-07 6.71009e-07)
(-2.92186e-07 -7.33855e-07 7.23936e-07)
(-3.74584e-07 -7.558e-07 7.52769e-07)
(6.54745e-09 -3.56834e-08 2.7304e-08)
(1.75407e-08 -9.98525e-08 7.63499e-08)
(2.58171e-08 -1.59726e-07 1.2249e-07)
(3.09079e-08 -2.17275e-07 1.67825e-07)
(3.24909e-08 -2.73876e-07 2.13894e-07)
(3.03409e-08 -3.3041e-07 2.61864e-07)
(2.43594e-08 -3.87002e-07 3.12292e-07)
(1.50228e-08 -4.43221e-07 3.65616e-07)
(2.59638e-09 -4.98809e-07 4.21551e-07)
(-1.24061e-08 -5.53931e-07 4.8018e-07)
(-2.99811e-08 -6.0915e-07 5.41876e-07)
(-5.03457e-08 -6.64963e-07 6.07798e-07)
(-7.42234e-08 -7.21705e-07 6.78396e-07)
(-1.04285e-07 -7.79079e-07 7.49794e-07)
(-1.47237e-07 -8.35075e-07 8.13539e-07)
(-2.07687e-07 -8.78537e-07 8.50555e-07)
(8.48426e-09 -3.73349e-08 2.98786e-08)
(2.29691e-08 -1.04501e-07 8.35073e-08)
(3.44881e-08 -1.67233e-07 1.33901e-07)
(4.27544e-08 -2.2756e-07 1.8319e-07)
(4.75892e-08 -2.8695e-07 2.33015e-07)
(4.89318e-08 -3.4631e-07 2.84456e-07)
(4.70999e-08 -4.05787e-07 3.38279e-07)
(4.26701e-08 -4.6511e-07 3.9494e-07)
(3.63466e-08 -5.24094e-07 4.54182e-07)
(2.90049e-08 -5.83012e-07 5.16124e-07)
(2.20276e-08 -6.42117e-07 5.81356e-07)
(1.62865e-08 -7.01902e-07 6.50037e-07)
(1.409e-08 -7.62525e-07 7.23939e-07)
(1.83099e-08 -8.24075e-07 8.00027e-07)
(3.53916e-08 -8.84699e-07 8.70878e-07)
(6.98885e-08 -9.31734e-07 9.13035e-07)
(-8.98752e-12 -3.56158e-09 2.12166e-09)
(-1.26922e-10 -9.97214e-09 5.97707e-09)
(-4.97767e-10 -1.58948e-08 9.66885e-09)
(-1.35022e-09 -2.15791e-08 1.32124e-08)
(-2.73991e-09 -2.71525e-08 1.68794e-08)
(-4.94966e-09 -3.27814e-08 2.06517e-08)
(-8.13722e-09 -3.84112e-08 2.4702e-08)
(-1.24955e-08 -4.39457e-08 2.91324e-08)
(-1.83932e-08 -4.91932e-08 3.37163e-08)
(-2.65996e-08 -5.41276e-08 3.83302e-08)
(-3.80453e-08 -5.87457e-08 4.34736e-08)
(-5.60948e-08 -6.39515e-08 4.87116e-08)
(-8.57908e-08 -7.0554e-08 5.51214e-08)
(-1.39247e-07 -7.991e-08 6.24714e-08)
(-2.44004e-07 -9.53233e-08 7.10046e-08)
(-4.16803e-07 -1.18835e-07 7.97569e-08)
(4.16859e-11 -1.06278e-08 6.33967e-09)
(-1.61426e-10 -2.96883e-08 1.7831e-08)
(-1.2023e-09 -4.73986e-08 2.86767e-08)
(-3.46251e-09 -6.43588e-08 3.93912e-08)
(-7.46714e-09 -8.10851e-08 5.0174e-08)
(-1.3716e-08 -9.78597e-08 6.14687e-08)
(-2.26898e-08 -1.14619e-07 7.36249e-08)
(-3.49725e-08 -1.30993e-07 8.66032e-08)
(-5.15277e-08 -1.46627e-07 1.00135e-07)
(-7.37006e-08 -1.61137e-07 1.14149e-07)
(-1.04895e-07 -1.75243e-07 1.28417e-07)
(-1.50102e-07 -1.90081e-07 1.44244e-07)
(-2.16774e-07 -2.06865e-07 1.6129e-07)
(-3.13406e-07 -2.25546e-07 1.77866e-07)
(-4.45026e-07 -2.4544e-07 1.90197e-07)
(-5.74144e-07 -2.61779e-07 1.94101e-07)
(2.93748e-10 -1.7398e-08 1.04382e-08)
(3.72784e-10 -4.86346e-08 2.93065e-08)
(-8.99375e-10 -7.77139e-08 4.70715e-08)
(-4.07997e-09 -1.05587e-07 6.4601e-08)
(-9.95088e-09 -1.33083e-07 8.23727e-08)
(-1.91927e-08 -1.60594e-07 1.01049e-07)
(-3.25042e-08 -1.88032e-07 1.21024e-07)
(-5.06775e-08 -2.14948e-07 1.4232e-07)
(-7.48937e-08 -2.4065e-07 1.64326e-07)
(-1.06568e-07 -2.64877e-07 1.8755e-07)
(-1.49814e-07 -2.88623e-07 2.11152e-07)
(-2.09232e-07 -3.13007e-07 2.36703e-07)
(-2.89557e-07 -3.38887e-07 2.63605e-07)
(-3.90979e-07 -3.65488e-07 2.89354e-07)
(-5.02617e-07 -3.91488e-07 3.09762e-07)
(-5.8297e-07 -4.12307e-07 3.21647e-07)
(8.56873e-10 -2.36305e-08 1.43205e-08)
(1.74383e-09 -6.61011e-08 4.00287e-08)
(9.70521e-10 -1.05629e-07 6.43973e-08)
(-2.3748e-09 -1.43657e-07 8.82434e-08)
(-9.0073e-09 -1.81063e-07 1.12601e-07)
(-1.97361e-08 -2.18453e-07 1.38206e-07)
(-3.53253e-08 -2.55795e-07 1.65519e-07)
(-5.66566e-08 -2.92454e-07 1.94297e-07)
(-8.40928e-08 -3.27595e-07 2.25104e-07)
(-1.2029e-07 -3.61594e-07 2.55681e-07)
(-1.6709e-07 -3.9467e-07 2.88743e-07)
(-2.29277e-07 -4.28234e-07 3.23416e-07)
(-3.09127e-07 -4.62536e-07 3.59365e-07)
(-4.03668e-07 -4.9628e-07 3.93754e-07)
(-5.00465e-07 -5.27923e-07 4.21969e-07)
(-5.67301e-07 -5.52456e-07 4.39819e-07)
(1.77401e-09 -2.90539e-08 1.78554e-08)
(4.22201e-09 -8.13006e-08 4.98753e-08)
(4.63966e-09 -1.30014e-07 8.00816e-08)
(2.15412e-09 -1.76793e-07 1.09753e-07)
(-3.96633e-09 -2.22817e-07 1.40063e-07)
(-1.44809e-08 -2.68791e-07 1.71883e-07)
(-3.00985e-08 -3.14685e-07 2.05621e-07)
(-5.12035e-08 -3.59864e-07 2.41463e-07)
(-7.87053e-08 -4.03851e-07 2.78488e-07)
(-1.12851e-07 -4.4632e-07 3.17919e-07)
(-1.56576e-07 -4.88317e-07 3.5852e-07)
(-2.1294e-07 -5.30445e-07 4.0144e-07)
(-2.83956e-07 -5.72536e-07 4.45614e-07)
(-3.68007e-07 -6.1267e-07 4.88003e-07)
(-4.57474e-07 -6.4831e-07 5.2341e-07)
(-5.25727e-07 -6.73597e-07 5.46213e-07)
(3.04781e-09 -3.34466e-08 2.09403e-08)
(7.83296e-09 -9.35507e-08 5.86457e-08)
(1.02344e-08 -1.4963e-07 9.39904e-08)
(9.57982e-09 -2.03498e-07 1.28762e-07)
(5.19764e-09 -2.56443e-07 1.6422e-07)
(-3.51854e-09 -3.09278e-07 2.01287e-07)
(-1.70229e-08 -3.62063e-07 2.40376e-07)
(-3.54768e-08 -4.14211e-07 2.81676e-07)
(-5.87842e-08 -4.65206e-07 3.25027e-07)
(-8.72977e-08 -5.15178e-07 3.70408e-07)
(-1.22428e-07 -5.64695e-07 4.17993e-07)
(-1.66467e-07 -6.14276e-07 4.67847e-07)
(-2.21405e-07 -6.63511e-07 5.19127e-07)
(-2.88536e-07 -7.10105e-07 5.68843e-07)
(-3.6783e-07 -7.49227e-07 6.11187e-07)
(-4.41747e-07 -7.69205e-07 6.38774e-07)
(4.71363e-09 -3.65321e-08 2.36741e-08)
(1.2407e-08 -1.02247e-07 6.61032e-08)
(1.75525e-08 -1.63572e-07 1.05946e-07)
(1.95283e-08 -2.22468e-07 1.45014e-07)
(1.7862e-08 -2.80332e-07 1.84667e-07)
(1.21491e-08 -3.38059e-07 2.25837e-07)
(2.28065e-09 -3.95725e-07 2.69099e-07)
(-1.14905e-08 -4.52889e-07 3.14518e-07)
(-2.86821e-08 -5.09108e-07 3.62382e-07)
(-4.89267e-08 -5.64517e-07 4.12522e-07)
(-7.2447e-08 -6.19629e-07 4.6503e-07)
(-9.99752e-08 -6.7477e-07 5.19812e-07)
(-1.32214e-07 -7.29919e-07 5.76233e-07)
(-1.70121e-07 -7.84269e-07 6.31641e-07)
(-2.16397e-07 -8.35827e-07 6.79545e-07)
(-2.69028e-07 -8.74294e-07 7.10516e-07)
(6.60618e-09 -3.82085e-08 2.58854e-08)
(1.77093e-08 -1.06968e-07 7.22784e-08)
(2.60638e-08 -1.7116e-07 1.15781e-07)
(3.12319e-08 -2.32832e-07 1.5826e-07)
(3.28658e-08 -2.93462e-07 2.01086e-07)
(3.08411e-08 -3.53922e-07 2.45215e-07)
(2.53829e-08 -4.1435e-07 2.91301e-07)
(1.69515e-08 -4.74395e-07 3.39504e-07)
(6.51055e-09 -5.33619e-07 3.90196e-07)
(-5.14215e-09 -5.9223e-07 4.43185e-07)
(-1.72947e-08 -6.50438e-07 4.97757e-07)
(-2.84409e-08 -7.08086e-07 5.55065e-07)
(-3.72759e-08 -7.65034e-07 6.13418e-07)
(-3.94513e-08 -8.2064e-07 6.70974e-07)
(-2.50448e-08 -8.73383e-07 7.20971e-07)
(1.7141e-08 -9.14121e-07 7.52908e-07)
(-1.8944e-10 -3.64232e-09 1.72545e-09)
(-6.4522e-10 -1.01929e-08 4.83811e-09)
(-1.37985e-09 -1.62367e-08 7.74322e-09)
(-2.52621e-09 -2.20393e-08 1.06776e-08)
(-4.34433e-09 -2.78316e-08 1.35381e-08)
(-6.99114e-09 -3.36521e-08 1.65666e-08)
(-1.0696e-08 -3.955e-08 1.98583e-08)
(-1.56691e-08 -4.52817e-08 2.33518e-08)
(-2.22617e-08 -5.08485e-08 2.7112e-08)
(-3.10418e-08 -5.60336e-08 3.10799e-08)
(-4.36964e-08 -6.12812e-08 3.47899e-08)
(-6.28976e-08 -6.72522e-08 3.94434e-08)
(-9.43624e-08 -7.50632e-08 4.45469e-08)
(-1.50352e-07 -8.62074e-08 5.05066e-08)
(-2.58907e-07 -1.03933e-07 5.79907e-08)
(-4.35592e-07 -1.28858e-07 6.69858e-08)
(-4.94458e-10 -1.08529e-08 5.13883e-09)
(-1.71213e-09 -3.03175e-08 1.43661e-08)
(-3.71514e-09 -4.84134e-08 2.3118e-08)
(-7.01042e-09 -6.57858e-08 3.16069e-08)
(-1.21255e-08 -8.3018e-08 4.02637e-08)
(-1.96699e-08 -1.00506e-07 4.93725e-08)
(-3.01366e-08 -1.17865e-07 5.90956e-08)
(-4.41535e-08 -1.3499e-07 6.95881e-08)
(-6.25198e-08 -1.51276e-07 8.06225e-08)
(-8.70269e-08 -1.66869e-07 9.1761e-08)
(-1.20721e-07 -1.82286e-07 1.03821e-07)
(-1.69079e-07 -1.98984e-07 1.16507e-07)
(-2.39656e-07 -2.18499e-07 1.30144e-07)
(-3.40619e-07 -2.40528e-07 1.43301e-07)
(-4.75538e-07 -2.63188e-07 1.53931e-07)
(-6.03077e-07 -2.7891e-07 1.59354e-07)
(-5.77593e-10 -1.77578e-08 8.43325e-09)
(-2.13892e-09 -4.96751e-08 2.3574e-08)
(-4.91271e-09 -7.93243e-08 3.79099e-08)
(-9.75219e-09 -1.07923e-07 5.18391e-08)
(-1.7355e-08 -1.3622e-07 6.60892e-08)
(-2.85354e-08 -1.64484e-07 8.1053e-08)
(-4.40897e-08 -1.92817e-07 9.71128e-08)
(-6.48148e-08 -2.20542e-07 1.14206e-07)
(-9.16754e-08 -2.47247e-07 1.32332e-07)
(-1.26913e-07 -2.72968e-07 1.50514e-07)
(-1.73619e-07 -2.98531e-07 1.70343e-07)
(-2.373e-07 -3.25367e-07 1.91046e-07)
(-3.22205e-07 -3.54453e-07 2.12481e-07)
(-4.27665e-07 -3.8466e-07 2.32622e-07)
(-5.40342e-07 -4.13197e-07 2.49378e-07)
(-6.15421e-07 -4.33445e-07 2.60657e-07)
(-3.26971e-10 -2.41218e-08 1.1513e-08)
(-1.51315e-09 -6.74302e-08 3.22866e-08)
(-4.40124e-09 -1.079e-07 5.16718e-08)
(-9.80514e-09 -1.46773e-07 7.07895e-08)
(-1.86496e-08 -1.85065e-07 9.02728e-08)
(-3.18379e-08 -2.23463e-07 1.10807e-07)
(-5.02393e-08 -2.61715e-07 1.32675e-07)
(-7.44841e-08 -2.99327e-07 1.56116e-07)
(-1.05857e-07 -3.35786e-07 1.79923e-07)
(-1.45202e-07 -3.70928e-07 2.06291e-07)
(-1.96328e-07 -4.0584e-07 2.32752e-07)
(-2.63019e-07 -4.41743e-07 2.60751e-07)
(-3.47227e-07 -4.78915e-07 2.89251e-07)
(-4.44807e-07 -5.15675e-07 3.15891e-07)
(-5.40715e-07 -5.49328e-07 3.38532e-07)
(-6.0054e-07 -5.7359e-07 3.54075e-07)
(3.5741e-10 -2.96446e-08 1.43399e-08)
(3.26178e-10 -8.29575e-08 4.01539e-08)
(-1.69909e-09 -1.32674e-07 6.42905e-08)
(-6.59152e-09 -1.80494e-07 8.80228e-08)
(-1.52511e-08 -2.27548e-07 1.1228e-07)
(-2.85688e-08 -2.74431e-07 1.37733e-07)
(-4.72357e-08 -3.21262e-07 1.64777e-07)
(-7.19325e-08 -3.67399e-07 1.93225e-07)
(-1.02697e-07 -4.12178e-07 2.23861e-07)
(-1.40962e-07 -4.55989e-07 2.55163e-07)
(-1.88682e-07 -4.99311e-07 2.88677e-07)
(-2.49314e-07 -5.43134e-07 3.23125e-07)
(-3.24123e-07 -5.87105e-07 3.57858e-07)
(-4.10242e-07 -6.2903e-07 3.90289e-07)
(-4.97653e-07 -6.65488e-07 4.18081e-07)
(-5.58258e-07 -6.89923e-07 4.36966e-07)
(1.51745e-09 -3.40918e-08 1.69105e-08)
(3.45322e-09 -9.54371e-08 4.70835e-08)
(3.25147e-09 -1.5269e-07 7.547e-08)
(-2.76401e-11 -2.07651e-07 1.03301e-07)
(-7.14465e-09 -2.61591e-07 1.31647e-07)
(-1.87922e-08 -3.1541e-07 1.6125e-07)
(-3.55324e-08 -3.69061e-07 1.92502e-07)
(-5.73422e-08 -4.22001e-07 2.25503e-07)
(-8.42484e-08 -4.73728e-07 2.60404e-07)
(-1.16441e-07 -5.24267e-07 2.97267e-07)
(-1.55293e-07 -5.74509e-07 3.35982e-07)
(-2.03069e-07 -6.24782e-07 3.75754e-07)
(-2.61103e-07 -6.74522e-07 4.15647e-07)
(-3.29561e-07 -7.21265e-07 4.52956e-07)
(-4.06279e-07 -7.59672e-07 4.851e-07)
(-4.72574e-07 -7.77979e-07 5.06635e-07)
(3.04791e-09 -3.72515e-08 1.90226e-08)
(7.79598e-09 -1.04276e-07 5.3122e-08)
(1.0169e-08 -1.66829e-07 8.50896e-08)
(9.44747e-09 -2.26842e-07 1.16352e-07)
(4.99878e-09 -2.85742e-07 1.4804e-07)
(-3.69593e-09 -3.44341e-07 1.8088e-07)
(-1.66796e-08 -4.02784e-07 2.15304e-07)
(-3.37399e-08 -4.60581e-07 2.5172e-07)
(-5.41919e-08 -5.17145e-07 2.90021e-07)
(-7.77214e-08 -5.72762e-07 3.30522e-07)
(-1.04521e-07 -6.27774e-07 3.72975e-07)
(-1.35105e-07 -6.8249e-07 4.16484e-07)
(-1.69704e-07 -7.36704e-07 4.5995e-07)
(-2.0835e-07 -7.89657e-07 5.00602e-07)
(-2.51675e-07 -8.39441e-07 5.35889e-07)
(-2.97005e-07 -8.77069e-07 5.59292e-07)
(4.89367e-09 -3.8956e-08 2.07917e-08)
(1.29697e-08 -1.09068e-07 5.8075e-08)
(1.85392e-08 -1.745e-07 9.29558e-08)
(2.09759e-08 -2.37316e-07 1.26972e-07)
(1.9851e-08 -2.98889e-07 1.61139e-07)
(1.50304e-08 -3.60158e-07 1.96304e-07)
(6.58031e-09 -4.21292e-07 2.32965e-07)
(-4.70236e-09 -4.81685e-07 2.71516e-07)
(-1.81813e-08 -5.4109e-07 3.11901e-07)
(-3.2861e-08 -5.99414e-07 3.54218e-07)
(-4.74418e-08 -6.56779e-07 3.99099e-07)
(-6.11362e-08 -7.13144e-07 4.43796e-07)
(-7.16397e-08 -7.68045e-07 4.88493e-07)
(-7.40398e-08 -8.21046e-07 5.30116e-07)
(-5.59195e-08 -8.71276e-07 5.66411e-07)
(-4.86215e-09 -9.11942e-07 5.90293e-07)
(-3.44996e-10 -3.70701e-09 1.2504e-09)
(-1.06266e-09 -1.03181e-08 3.50029e-09)
(-2.03953e-09 -1.64484e-08 5.64566e-09)
(-3.47131e-09 -2.23187e-08 7.61932e-09)
(-5.50244e-09 -2.8086e-08 9.73354e-09)
(-8.5348e-09 -3.43323e-08 1.19327e-08)
(-1.26037e-08 -4.04206e-08 1.42898e-08)
(-1.8002e-08 -4.64381e-08 1.68534e-08)
(-2.49856e-08 -5.21777e-08 1.95169e-08)
(-3.42998e-08 -5.77845e-08 2.21064e-08)
(-4.73905e-08 -6.35249e-08 2.53966e-08)
(-6.66451e-08 -6.9652e-08 2.85862e-08)
(-9.82542e-08 -7.79506e-08 3.23917e-08)
(-1.54711e-07 -8.9557e-08 3.68352e-08)
(-2.64671e-07 -1.07616e-07 4.26335e-08)
(-4.44646e-07 -1.32303e-07 4.94862e-08)
(-9.37415e-10 -1.10058e-08 3.72486e-09)
(-2.93831e-09 -3.07555e-08 1.04501e-08)
(-5.69688e-09 -4.90397e-08 1.66604e-08)
(-9.73769e-09 -6.65724e-08 2.27576e-08)
(-1.58066e-08 -8.46286e-08 2.89704e-08)
(-2.42293e-08 -1.02368e-07 3.55073e-08)
(-3.57606e-08 -1.20319e-07 4.25572e-08)
(-5.08993e-08 -1.37882e-07 5.00788e-08)
(-7.05431e-08 -1.54918e-07 5.78091e-08)
(-9.61424e-08 -1.71254e-07 6.62123e-08)
(-1.30589e-07 -1.8761e-07 7.50904e-08)
(-1.79548e-07 -2.05433e-07 8.47624e-08)
(-2.50119e-07 -2.25954e-07 9.47885e-08)
(-3.51311e-07 -2.48906e-07 1.04521e-07)
(-4.86543e-07 -2.71559e-07 1.12658e-07)
(-6.15828e-07 -2.85883e-07 1.16685e-07)
(-1.28852e-09 -1.80229e-08 6.12325e-09)
(-4.08692e-09 -5.03466e-08 1.71338e-08)
(-8.13969e-09 -8.04757e-08 2.72825e-08)
(-1.42185e-08 -1.09717e-07 3.73075e-08)
(-2.30954e-08 -1.3832e-07 4.74939e-08)
(-3.57589e-08 -1.67545e-07 5.83008e-08)
(-5.28915e-08 -1.96507e-07 6.98645e-08)
(-7.53241e-08 -2.25028e-07 8.21211e-08)
(-1.04042e-07 -2.52598e-07 9.4778e-08)
(-1.40746e-07 -2.79622e-07 1.09064e-07)
(-1.88705e-07 -3.06135e-07 1.23653e-07)
(-2.52857e-07 -3.34203e-07 1.39139e-07)
(-3.37427e-07 -3.64672e-07 1.54709e-07)
(-4.42361e-07 -3.95897e-07 1.69454e-07)
(-5.53825e-07 -4.24366e-07 1.81789e-07)
(-6.29003e-07 -4.43239e-07 1.89648e-07)
(-1.24766e-09 -2.44526e-08 8.38796e-09)
(-4.15881e-09 -6.84752e-08 2.32966e-08)
(-8.62797e-09 -1.09511e-07 3.72815e-08)
(-1.56632e-08 -1.48997e-07 5.09081e-08)
(-2.62246e-08 -1.88354e-07 6.49201e-08)
(-4.12153e-08 -2.27248e-07 7.96832e-08)
(-6.155e-08 -2.66218e-07 9.54243e-08)
(-8.79974e-08 -3.04559e-07 1.11877e-07)
(-1.21104e-07 -3.41791e-07 1.30148e-07)
(-1.6251e-07 -3.78089e-07 1.48504e-07)
(-2.1483e-07 -4.14221e-07 1.69107e-07)
(-2.81933e-07 -4.51405e-07 1.89865e-07)
(-3.65454e-07 -4.8991e-07 2.10388e-07)
(-4.61717e-07 -5.27608e-07 2.29709e-07)
(-5.55338e-07 -5.61162e-07 2.45963e-07)
(-6.14554e-07 -5.84261e-07 2.5646e-07)
(-7.43324e-10 -3.00741e-08 1.0424e-08)
(-2.81574e-09 -8.41597e-08 2.89494e-08)
(-6.71849e-09 -1.3476e-07 4.6326e-08)
(-1.35031e-08 -1.83497e-07 6.33488e-08)
(-2.41251e-08 -2.3108e-07 8.0751e-08)
(-3.94607e-08 -2.78841e-07 9.90575e-08)
(-6.03471e-08 -3.26301e-07 1.18402e-07)
(-8.7146e-08 -3.73041e-07 1.39069e-07)
(-1.20249e-07 -4.18769e-07 1.60528e-07)
(-1.60267e-07 -4.63051e-07 1.84525e-07)
(-2.0922e-07 -5.07377e-07 2.09563e-07)
(-2.70117e-07 -5.52261e-07 2.35007e-07)
(-3.43838e-07 -5.97284e-07 2.59849e-07)
(-4.28055e-07 -6.39802e-07 2.83139e-07)
(-5.12539e-07 -6.76002e-07 3.02689e-07)
(-5.72241e-07 -6.99312e-07 3.1513e-07)
(2.50188e-10 -3.46064e-08 1.21624e-08)
(-7.69206e-12 -9.69046e-08 3.40173e-08)
(-2.32499e-09 -1.55073e-07 5.43891e-08)
(-7.66571e-09 -2.10854e-07 7.43718e-08)
(-1.68149e-08 -2.65774e-07 9.47447e-08)
(-3.0685e-08 -3.20125e-07 1.15982e-07)
(-4.96398e-08 -3.74343e-07 1.38319e-07)
(-7.37838e-08 -4.2779e-07 1.61933e-07)
(-1.02853e-07 -4.79748e-07 1.87118e-07)
(-1.36623e-07 -5.31022e-07 2.14482e-07)
(-1.76685e-07 -5.8167e-07 2.43559e-07)
(-2.24546e-07 -6.32538e-07 2.72824e-07)
(-2.81229e-07 -6.82817e-07 3.01172e-07)
(-3.47413e-07 -7.29762e-07 3.27683e-07)
(-4.20779e-07 -7.6784e-07 3.49878e-07)
(-4.86087e-07 -7.85333e-07 3.63724e-07)
(1.71934e-09 -3.7798e-08 1.37415e-08)
(4.09849e-09 -1.05869e-07 3.83255e-08)
(4.29375e-09 -1.69421e-07 6.13317e-08)
(1.458e-09 -2.30406e-07 8.38141e-08)
(-5.2186e-09 -2.89956e-07 1.06534e-07)