/*--------------------------------*- C++ -*----------------------------------*\
| =========                 |                                                 |
| \\      /  F ield         | OpenFOAM: The Open Source CFD Toolbox           |
|  \\    /   O peration     | Version:  v1912                                 |
|   \\  /    A nd           | Website:  www.openfoam.com                      |
|    \\/     M anipulation  |                                                 |
\*---------------------------------------------------------------------------*/
FoamFile
{
    version     2.0;
    format      ascii;
    class       volScalarField;
    location    "0.09/fluid";
    object      p;
}
// * * * * * * * * * * * * * * * * * * * * * * * * * * * * * * * * * * * * * //

dimensions      [0 2 -2 0 0 0 0];


internalField   nonuniform List<scalar> 
14592
(
0.0960396
0.0909155
0.0887018
0.0869111
0.0853648
0.0840409
0.0828019
0.0816569
0.0806033
0.0796645
0.0788114
0.0784194
0.0775825
0.0789103
0.07805
0.08321
0.0917033
0.0900988
0.0882704
0.0868008
0.0853365
0.0840562
0.0828403
0.081714
0.08068
0.0797667
0.0789417
0.0786128
0.0778175
0.0793392
0.0785604
0.0844957
0.0898323
0.0890621
0.0875765
0.0863966
0.0850672
0.0838689
0.0826956
0.0815892
0.0805622
0.0796506
0.0788247
0.0785151
0.0777326
0.0793525
0.0786393
0.0848256
0.0884228
0.0881157
0.0869669
0.0860191
0.0848171
0.0836952
0.0825637
0.0814779
0.0804585
0.0795476
0.0787178
0.0784183
0.0776453
0.0793512
0.0787221
0.0851308
0.0875283
0.087369
0.0864103
0.0856086
0.0845021
0.0834378
0.0823327
0.0812493
0.0802132
0.0792705
0.0783937
0.0780387
0.077187
0.0788306
0.0780958
0.0846095
0.0868874
0.0868008
0.0859683
0.0852624
0.084221
0.0831933
0.0820996
0.081006
0.0799415
0.0789563
0.0780301
0.0776358
0.0767936
0.0785687
0.078084
0.0852055
0.0864543
0.0863988
0.0856311
0.0849761
0.0839665
0.0829502
0.0818463
0.0807198
0.0795959
0.0785148
0.0774394
0.0767901
0.0755614
0.076687
0.0752304
0.0818768
0.0861928
0.0861521
0.0854078
0.0847698
0.0837631
0.0827357
0.0816044
0.0804336
0.079249
0.0780929
0.0769508
0.0762413
0.0751135
0.076544
0.0757766
0.0849983
0.0958524
0.0907291
0.0885609
0.0868198
0.0853424
0.0840977
0.0829516
0.0819139
0.0809818
0.0801727
0.0794341
0.079083
0.0781533
0.0788766
0.0772757
0.0795182
0.0915172
0.0899121
0.0881305
0.0867112
0.0853165
0.0841165
0.0829946
0.081977
0.081066
0.080283
0.0795702
0.0792731
0.0783598
0.0792102
0.077587
0.0801694
0.0896438
0.0888726
0.0874337
0.0863038
0.0850435
0.0839246
0.0828441
0.0818449
0.0809387
0.0801549
0.0794368
0.0791549
0.078241
0.0791785
0.0775831
0.0803472
0.0882322
0.0879245
0.0868221
0.085924
0.0847907
0.0837477
0.0827081
0.0817284
0.0808285
0.080044
0.0793205
0.0790517
0.0781431
0.0791834
0.0776621
0.0806561
0.0873337
0.087174
0.0862608
0.085508
0.0844687
0.0834812
0.0824651
0.0814839
0.0805628
0.0797413
0.0789638
0.0786384
0.0776363
0.0786299
0.0769701
0.0801066
0.0866882
0.0866017
0.0858138
0.085156
0.0841799
0.0832265
0.0822185
0.0812228
0.0802683
0.0794005
0.0785726
0.078226
0.0772572
0.0784885
0.0771625
0.0810591
0.0862498
0.0861947
0.0854706
0.0848623
0.0839158
0.0829706
0.0819476
0.0809124
0.0798892
0.0789132
0.0779173
0.077298
0.0758954
0.0764827
0.0740746
0.0776479
0.0859823
0.0859426
0.0852407
0.0846481
0.0837019
0.0827421
0.0816869
0.0806016
0.0795119
0.0784588
0.0774058
0.0767739
0.0755571
0.0766906
0.0752351
0.0818809
0.0957207
0.0905964
0.0884637
0.0867623
0.0853426
0.0841666
0.083104
0.0821684
0.0813651
0.0807261
0.0802324
0.0802295
0.0799073
0.0813637
0.0812615
0.0839142
0.0913866
0.0897793
0.0880343
0.0866552
0.0853191
0.0841888
0.0831517
0.082238
0.0814585
0.0808499
0.080389
0.080451
0.0801653
0.0817713
0.0817047
0.0846571
0.0895107
0.0887372
0.0873348
0.0862448
0.0850426
0.0839927
0.082996
0.0820994
0.0813234
0.0807124
0.080245
0.0803236
0.0800361
0.0817388
0.0817006
0.0848358
0.0880973
0.0877874
0.0867212
0.0858629
0.0847873
0.0838127
0.0828562
0.0819781
0.0812071
0.0805941
0.0801186
0.0802107
0.079921
0.0817364
0.0817549
0.0851282
0.0871948
0.0870332
0.0861555
0.0854417
0.0844587
0.0835377
0.082602
0.0817188
0.0809215
0.0802648
0.0797245
0.079749
0.079334
0.0810874
0.080889
0.084396
0.086545
0.086457
0.0857037
0.0850841
0.0841626
0.0832736
0.0823426
0.0814405
0.0806036
0.0798925
0.0792897
0.079284
0.0788731
0.0808739
0.0809427
0.0852431
0.0861013
0.0860452
0.0853547
0.0847836
0.0838895
0.0830056
0.0820551
0.0811067
0.0801907
0.0793543
0.0785519
0.0782257
0.077271
0.0785128
0.0771881
0.0810834
0.0858282
0.0857879
0.0851185
0.0845619
0.0836658
0.082764
0.0817765
0.0807711
0.0797792
0.0788531
0.0779746
0.0776181
0.0768017
0.0785957
0.0781137
0.0852347
0.0956305
0.0905044
0.0883993
0.0867291
0.0853563
0.0842367
0.0832421
0.082387
0.0816771
0.0811408
0.0807562
0.0808164
0.0805478
0.0817577
0.0814837
0.0833955
0.0912973
0.0896872
0.0879709
0.0866235
0.085335
0.0842618
0.0832939
0.0824621
0.0817777
0.0812732
0.0809225
0.0810447
0.0808048
0.082136
0.081864
0.0839841
0.0894193
0.0886427
0.0872688
0.0862102
0.0850553
0.084062
0.0831336
0.0823178
0.0816353
0.0811267
0.0807665
0.0809019
0.0806514
0.0820713
0.0818053
0.0840896
0.0880041
0.0876914
0.0866534
0.0858265
0.0847978
0.0838794
0.0829906
0.0821925
0.0815141
0.0810025
0.0806329
0.0807829
0.0805252
0.0820646
0.081842
0.0843659
0.087098
0.0869338
0.0860837
0.0854006
0.0844633
0.0835969
0.0827267
0.0819206
0.0812123
0.0806529
0.0802131
0.0802934
0.0798987
0.0813855
0.0809223
0.0835911
0.0864443
0.0863541
0.0856277
0.085038
0.0841608
0.0833244
0.0824564
0.0816279
0.080876
0.080258
0.0797515
0.0798068
0.0794167
0.0811955
0.0810112
0.0845241
0.0859958
0.085938
0.0852734
0.0847314
0.0838798
0.083046
0.0821548
0.0812751
0.0804372
0.079685
0.0789654
0.0786895
0.0777235
0.0787492
0.0770987
0.0802361
0.0857176
0.0856759
0.0850316
0.084503
0.0836474
0.0827929
0.0818609
0.0809193
0.0799997
0.0791531
0.0783552
0.0780658
0.077261
0.0789446
0.0782195
0.0847373
0.0955707
0.0904427
0.0883586
0.0867122
0.085376
0.0843007
0.0833599
0.0825682
0.0819322
0.0814799
0.0811969
0.0813525
0.0812515
0.0825319
0.0825393
0.0843462
0.0912383
0.0896255
0.087931
0.0866078
0.0853566
0.0843285
0.0834152
0.0826481
0.0820392
0.0816209
0.0813748
0.0815954
0.0815293
0.0829326
0.0829542
0.0849452
0.0893584
0.088579
0.0872268
0.0861923
0.0850743
0.0841256
0.0832512
0.0824992
0.0818912
0.0814676
0.0812108
0.081444
0.0813648
0.0828579
0.0828801
0.0850317
0.0879417
0.0876263
0.0866099
0.085807
0.084815
0.0839409
0.0831056
0.0823709
0.0817665
0.0813394
0.0810724
0.0813211
0.0812311
0.0828486
0.0829049
0.0852976
0.0870326
0.0868659
0.0860368
0.0853771
0.0844755
0.0836521
0.0828337
0.0820887
0.0814516
0.0809735
0.0806318
0.0808082
0.0805699
0.0821357
0.0819267
0.0844661
0.0863755
0.0862831
0.0855771
0.0850103
0.0841677
0.0833728
0.0825545
0.0817845
0.0811004
0.08056
0.0801467
0.0802972
0.0800535
0.0819238
0.081973
0.0853708
0.085923
0.0858633
0.0852184
0.0846985
0.08388
0.0830857
0.0822415
0.0814163
0.080641
0.0799592
0.0793211
0.0791277
0.0782729
0.0793701
0.0778648
0.0808721
0.0856404
0.0855972
0.0849718
0.0844645
0.0836404
0.0828231
0.081935
0.0810439
0.080182
0.0794003
0.078677
0.0784694
0.0777623
0.0795367
0.0789277
0.085362
0.0955329
0.0904032
0.0883343
0.0867051
0.0853959
0.0843532
0.0834519
0.0827065
0.0821231
0.0817281
0.0815086
0.0817074
0.0816726
0.082899
0.0829289
0.0845485
0.0912012
0.089586
0.0879073
0.0866017
0.0853779
0.084383
0.08351
0.0827901
0.082235
0.0818754
0.0816946
0.0819589
0.0819597
0.083303
0.0833426
0.0851228
0.0893199
0.0885379
0.0872014
0.0861843
0.0850936
0.0841777
0.0833431
0.0826377
0.0820829
0.081717
0.0815243
0.0817999
0.0817843
0.0832149
0.0832467
0.0851826
0.087902
0.0875842
0.0865834
0.0857978
0.0848329
0.0839914
0.0831957
0.0825072
0.0819556
0.0815859
0.0813826
0.0816742
0.081645
0.0832023
0.0832606
0.0854381
0.0869905
0.0868215
0.0860076
0.0853648
0.0844896
0.0836979
0.0829177
0.0822174
0.0816312
0.0812082
0.0809272
0.0811452
0.0809612
0.0824699
0.0822498
0.0845776
0.0863307
0.0862363
0.085545
0.0849947
0.0841777
0.0834133
0.0826318
0.0819045
0.0812689
0.0807811
0.0804255
0.0806177
0.080423
0.0822477
0.0822772
0.0854769
0.085875
0.0858136
0.0851829
0.0846789
0.0838849
0.0831196
0.0823101
0.0815249
0.0807945
0.0801609
0.0795736
0.0794166
0.0785939
0.0796444
0.0780807
0.0808897
0.085589
0.0855444
0.0849325
0.0844406
0.0836397
0.0828498
0.0819941
0.0811401
0.0803196
0.0795824
0.0789059
0.0787366
0.078059
0.0798129
0.0791496
0.0854318
0.095511
0.09038
0.0883209
0.086703
0.0854115
0.0843902
0.0835148
0.0827994
0.0822496
0.0818902
0.081709
0.0819318
0.0819378
0.0831377
0.0831991
0.084741
0.0911797
0.0895628
0.0878944
0.0866003
0.0853945
0.0844214
0.0835748
0.0828856
0.082365
0.0820419
0.0819006
0.0821897
0.0822328
0.0835482
0.0836204
0.0853133
0.0892974
0.0885136
0.0871874
0.0861817
0.0851088
0.0842145
0.083406
0.0827309
0.08221
0.0818801
0.0817264
0.0820261
0.0820512
0.0834533
0.0835143
0.0853615
0.0878787
0.0875592
0.0865686
0.0857943
0.0848472
0.0840272
0.0832574
0.082599
0.0820812
0.0817474
0.0815828
0.0818989
0.0819089
0.0834395
0.0835227
0.0856121
0.0869655
0.086795
0.0859909
0.0853592
0.0845013
0.0837304
0.0829754
0.0823041
0.0817504
0.081362
0.0811181
0.0813601
0.0812116
0.0826957
0.0824929
0.0847348
0.0863039
0.0862082
0.0855264
0.0849869
0.0841866
0.0834423
0.0826849
0.0819854
0.0813809
0.0809261
0.0806055
0.0808217
0.0806589
0.082465
0.0825049
0.0856254
0.085846
0.0857834
0.0851619
0.0846683
0.0838903
0.0831442
0.0823575
0.0815984
0.0808969
0.0802934
0.0797374
0.0796016
0.0788009
0.0798318
0.0782538
0.0809795
0.0855577
0.0855121
0.084909
0.0844271
0.0836413
0.0828695
0.0820351
0.0812053
0.0804114
0.0797021
0.0790543
0.0789069
0.0782481
0.0799945
0.0793129
0.0855337
0.0955008
0.0903697
0.0883147
0.0867026
0.0854196
0.0844087
0.0835458
0.0828446
0.0823103
0.0819666
0.0818019
0.0820325
0.0820548
0.0832366
0.0833062
0.0848118
0.0911702
0.0895522
0.0878886
0.0866001
0.0854031
0.0844405
0.0836066
0.0829319
0.082427
0.08212
0.0819956
0.0822925
0.082352
0.0836479
0.0837277
0.0853801
0.0892869
0.0885024
0.0871811
0.0861809
0.0851168
0.0842329
0.0834369
0.082776
0.0822707
0.0819565
0.0818194
0.0821267
0.0821675
0.0835498
0.0836167
0.0854227
0.0878681
0.0875476
0.0865619
0.085793
0.0848546
0.084045
0.0832877
0.0826435
0.0821412
0.0818232
0.0816753
0.0819992
0.0820244
0.0835358
0.0836227
0.0856706
0.086954
0.0867825
0.0859833
0.0853569
0.0845076
0.0837467
0.0830038
0.0823462
0.0818077
0.0814346
0.081207
0.081457
0.0813228
0.0827899
0.0825885
0.0847899
0.0862914
0.0861949
0.0855179
0.0849835
0.0841914
0.0834569
0.0827111
0.0820248
0.0814348
0.0809946
0.0806895
0.0809136
0.0807631
0.082554
0.0825909
0.085673
0.0858325
0.0857692
0.0851522
0.0846636
0.0838935
0.0831566
0.082381
0.0816343
0.0809464
0.0803567
0.0798151
0.0796867
0.0788956
0.0799125
0.0783234
0.081009
0.0855429
0.0854968
0.0848979
0.0844208
0.0836426
0.0828795
0.0820555
0.0812373
0.080456
0.0797593
0.0791246
0.0789847
0.0783333
0.0800699
0.0793738
0.0855611
0.106446
0.096408
0.0923833
0.0891622
0.0866457
0.0845215
0.0825588
0.0806849
0.0788283
0.0769344
0.0749526
0.0728302
0.0705068
0.0679859
0.0650747
0.0621274
0.102119
0.0954717
0.0919125
0.0890179
0.0865909
0.0845112
0.0825688
0.0807072
0.07886
0.0769743
0.0750005
0.072886
0.0705689
0.0680551
0.0651424
0.0621963
0.10023
0.0944063
0.0912132
0.0886147
0.0863334
0.0843435
0.0824518
0.0806189
0.078788
0.0769121
0.0749452
0.072838
0.07053
0.0680296
0.0651334
0.0622067
0.0988229
0.0934541
0.090599
0.0882339
0.0860859
0.0841779
0.0823342
0.0805291
0.0787141
0.0768472
0.0748864
0.0727852
0.0704856
0.067997
0.0651207
0.0622129
0.0979367
0.0927179
0.0900577
0.0878442
0.0858016
0.0839633
0.0821621
0.0803807
0.0785771
0.0767146
0.0747553
0.0726569
0.0703656
0.0678919
0.065048
0.0621722
0.0973123
0.0921654
0.089634
0.087521
0.0855534
0.083765
0.0819941
0.0802282
0.0784303
0.0765675
0.0746061
0.0725077
0.0702237
0.0677647
0.0649603
0.0621203
0.0969021
0.0917846
0.0893227
0.0872668
0.0853432
0.0835836
0.081828
0.0800668
0.0782661
0.0763964
0.0744272
0.0723243
0.0700452
0.0675987
0.0648393
0.0620385
0.0966675
0.0915621
0.0891289
0.0870965
0.0851891
0.0834371
0.0816813
0.0799135
0.0781017
0.0762188
0.0742376
0.0721277
0.0698535
0.0674211
0.0647145
0.0619568
0.102076
0.095421
0.0918564
0.0889579
0.0865277
0.0844411
0.0824885
0.0806147
0.078753
0.0768506
0.0748579
0.0727251
0.0703793
0.0678666
0.0648975
0.0619986
0.0977178
0.0945842
0.0914053
0.0888271
0.0864801
0.0844342
0.0824992
0.0806353
0.0787808
0.0768845
0.0748975
0.0727704
0.0704282
0.0679217
0.064949
0.0620547
0.0958418
0.0935407
0.0907134
0.0884288
0.0862238
0.0842665
0.0823815
0.0805459
0.0787076
0.0768209
0.074841
0.0727214
0.0703886
0.0678963
0.0649408
0.0620665
0.0944322
0.09259
0.0901037
0.0880529
0.0859802
0.0841044
0.0822672
0.0804596
0.0786377
0.0767608
0.0747876
0.072675
0.0703517
0.0678717
0.0649374
0.0620806
0.0935496
0.0918542
0.089564
0.0876645
0.0856969
0.083891
0.0820967
0.0803133
0.0785035
0.0766317
0.0746612
0.0725525
0.0702392
0.0677742
0.0648755
0.0620481
0.0929262
0.0913012
0.089142
0.0873433
0.0854508
0.0836954
0.0819319
0.0801648
0.0783615
0.0764908
0.0745196
0.0724125
0.0701092
0.0676591
0.0648053
0.0620102
0.0925172
0.0909209
0.0888322
0.0870904
0.0852423
0.0835162
0.0817687
0.0800071
0.078202
0.0763254
0.0743476
0.072237
0.0699407
0.0675015
0.064698
0.061936
0.0922835
0.0906994
0.0886398
0.0869217
0.08509
0.0833722
0.0816251
0.0798577
0.0780426
0.0761542
0.0741662
0.0720503
0.0697631
0.0673381
0.0645974
0.0618739
0.100183
0.094348
0.0911584
0.0885664
0.0863005
0.0843279
0.0824563
0.0806468
0.0788418
0.0769924
0.0750492
0.0729642
0.0706194
0.0681596
0.0649978
0.0621507
0.0958398
0.0935354
0.0907174
0.0884433
0.0862572
0.0843247
0.082471
0.0806723
0.0788757
0.0770337
0.0750976
0.0730205
0.0706801
0.0682316
0.0650626
0.0622288
0.0939723
0.0925031
0.0900307
0.0880486
0.086002
0.0841567
0.082352
0.0805808
0.0787998
0.0769669
0.0750375
0.0729682
0.0706378
0.0682057
0.0650563
0.0622457
0.0925656
0.0915571
0.0894241
0.0876754
0.0857598
0.0839952
0.0822377
0.0804939
0.0787286
0.0769051
0.0749822
0.07292
0.0706001
0.0681811
0.0650586
0.0622655
0.0916845
0.0908224
0.0888846
0.0872866
0.0854751
0.0837792
0.0820633
0.0803422
0.0785874
0.0767672
0.0748451
0.072785
0.0704755
0.0680698
0.0649927
0.0622271
0.0910606
0.090269
0.088462
0.0869645
0.0852272
0.0835807
0.0818943
0.0801879
0.0784376
0.0766162
0.074691
0.0726302
0.0703322
0.0679394
0.0649241
0.0621879
0.0906502
0.0898874
0.0881505
0.0867098
0.0850159
0.0833975
0.0817253
0.0800222
0.0782673
0.0764365
0.0745008
0.0724312
0.0701383
0.0677465
0.0647974
0.0620824
0.0904146
0.0896641
0.0879562
0.0865387
0.0848604
0.0832488
0.0815754
0.0798641
0.0780962
0.0762502
0.0743006
0.072222
0.0699417
0.0675593
0.0647019
0.0620192
0.0987328
0.0933476
0.0905076
0.0881614
0.0860513
0.0841886
0.0823996
0.0806594
0.078919
0.0771338
0.0752534
0.0732408
0.0708886
0.0685362
0.0650363
0.0623157
0.0943869
0.0925349
0.0900699
0.0880419
0.0860106
0.0841873
0.082416
0.0806865
0.0789548
0.0771776
0.0753052
0.073303
0.0709548
0.0686222
0.0651083
0.0624189
0.0925214
0.0915061
0.0893851
0.0876486
0.0857554
0.0840182
0.082295
0.0805923
0.0788752
0.0771065
0.0752402
0.0732464
0.0709085
0.0685953
0.065103
0.0624403
0.0911159
0.0905626
0.0887805
0.0872773
0.0855144
0.0838573
0.0821807
0.0805049
0.0788031
0.0770434
0.0751834
0.0731968
0.070871
0.0685716
0.0651142
0.0624684
0.0902352
0.0898287
0.0882411
0.0868882
0.0852283
0.083639
0.0820027
0.0803482
0.0786551
0.0768966
0.0750351
0.0730481
0.070733
0.0684425
0.065045
0.0624212
0.089611
0.0892754
0.0878181
0.0865655
0.0849792
0.0834382
0.0818302
0.0801886
0.078498
0.0767356
0.0748685
0.0728776
0.0705777
0.0682966
0.0649904
0.0623914
0.0891996
0.088893
0.0875055
0.0863093
0.0847656
0.0832515
0.081656
0.0800154
0.0783169
0.0765407
0.0746573
0.0726485
0.0703505
0.0680506
0.064836
0.0622332
0.0889624
0.0886685
0.0873096
0.0861364
0.0846072
0.0830988
0.0815002
0.0798489
0.0781341
0.0763386
0.0744377
0.072415
0.0701389
0.0678442
0.0647779
0.0622051
0.0978235
0.0925871
0.0899659
0.0877983
0.0858368
0.0840969
0.082416
0.0807783
0.0791423
0.0774691
0.0757066
0.0738501
0.0715462
0.0694827
0.0655949
0.0632377
0.0934823
0.0917746
0.0895306
0.0876815
0.0857989
0.0840991
0.0824368
0.0808111
0.0791856
0.077523
0.0757713
0.0739321
0.0716354
0.0696121
0.0657081
0.0634214
0.0916182
0.0907467
0.088846
0.0872877
0.0855423
0.0839278
0.0823127
0.0807126
0.0791007
0.0774457
0.0756996
0.0738702
0.0715853
0.0695883
0.065711
0.0634585
0.0902135
0.0898043
0.0882417
0.0869165
0.0853007
0.0837655
0.0821961
0.0806219
0.0790243
0.0773771
0.0756364
0.073814
0.0715434
0.0695623
0.0657324
0.0634987
0.0893318
0.0890694
0.0877004
0.0865246
0.0850106
0.0835413
0.0820102
0.0804545
0.078862
0.0772118
0.0754649
0.0736363
0.0713749
0.0693938
0.0656412
0.0634207
0.0887056
0.0885144
0.0872749
0.0861988
0.0847568
0.0833341
0.0818285
0.0802824
0.078688
0.0770287
0.0752706
0.0734314
0.0711882
0.0692093
0.065589
0.0633904
0.0882911
0.0881293
0.0869588
0.0859381
0.084537
0.0831388
0.0816425
0.0800927
0.078484
0.076802
0.0750158
0.0731387
0.0708828
0.0688392
0.065329
0.063071
0.0880504
0.0879015
0.0867588
0.0857602
0.0843718
0.0829767
0.0814736
0.0799083
0.0782768
0.0765675
0.0747558
0.0728525
0.0706263
0.0685702
0.0652757
0.0630421
0.0971463
0.0919781
0.0895158
0.0874827
0.0856487
0.0840232
0.0824517
0.0809248
0.0794075
0.0778648
0.0762311
0.0745431
0.072195
0.0703433
0.0656136
0.0633799
0.092806
0.0911635
0.0890813
0.0873674
0.0856129
0.084028
0.0824759
0.0809622
0.0794567
0.0779268
0.0763055
0.0746405
0.0722962
0.0705016
0.0657367
0.0636015
0.090941
0.0901342
0.0883953
0.0869718
0.0853539
0.0838535
0.0823475
0.0808581
0.0793648
0.077841
0.0762236
0.0745687
0.0722347
0.0704709
0.0657313
0.0636315
0.089536
0.0891917
0.0877906
0.0865999
0.085111
0.0836892
0.0822281
0.0807635
0.0792831
0.0777657
0.0761523
0.0745042
0.0721865
0.0704432
0.0657671
0.0636953
0.0886521
0.088455
0.0872465
0.0862046
0.0848161
0.0834585
0.0820331
0.0805837
0.0791043
0.0775788
0.0759534
0.074292
0.0719814
0.0702304
0.0656569
0.0636014
0.0880234
0.0878977
0.0868181
0.0858749
0.084557
0.0832439
0.0818412
0.0803975
0.0789111
0.0773705
0.0757286
0.0740518
0.0717719
0.0700338
0.0656715
0.0636794
0.0876054
0.0875095
0.086498
0.0856093
0.0843304
0.0830391
0.0816417
0.0801888
0.0786803
0.0771059
0.0754214
0.0736822
0.071374
0.06952
0.0653073
0.0632087
0.0873605
0.0872781
0.0862934
0.0854258
0.0841575
0.0828664
0.0814581
0.0799839
0.0784456
0.0768358
0.0751217
0.0733531
0.0711137
0.0692826
0.0654454
0.0634967
0.0966588
0.0915184
0.0891659
0.0872343
0.0855113
0.0839952
0.0825383
0.0811379
0.0797703
0.0784194
0.0770289
0.0757519
0.0737654
0.0728445
0.0680815
0.0668477
0.0923201
0.0907029
0.0887325
0.0871207
0.0854779
0.0840035
0.0825671
0.0811817
0.0798286
0.0784951
0.0771232
0.0758852
0.0739162
0.073097
0.0683062
0.0671431
0.0904536
0.0896715
0.0880443
0.0867227
0.0852159
0.0838252
0.0824337
0.0810713
0.079729
0.0784005
0.0770316
0.0758072
0.0738514
0.0730781
0.0683173
0.0672017
0.0890475
0.0887281
0.0874383
0.0863493
0.084971
0.0836581
0.0823105
0.0809715
0.0796404
0.0783165
0.0769494
0.0757315
0.0737927
0.073051
0.0683687
0.0673203
0.0881606
0.0879886
0.0868906
0.0859494
0.0846699
0.0834191
0.0821044
0.0807765
0.0794408
0.0781013
0.076712
0.0754668
0.0735182
0.0727492
0.0681669
0.067171
0.0875283
0.0874282
0.0864581
0.0856147
0.0844041
0.0831952
0.0818996
0.0805723
0.0792227
0.0778587
0.0764416
0.0751664
0.0732434
0.0724896
0.0681712
0.0673566
0.0871058
0.0870358
0.0861328
0.0853427
0.0841688
0.0829785
0.0816833
0.0803395
0.0789563
0.0775398
0.0760504
0.0746567
0.0726294
0.0716226
0.0673658
0.066382
0.0868559
0.0867997
0.0859225
0.0851522
0.0839865
0.0827928
0.0814814
0.0801088
0.0786852
0.0772185
0.0756825
0.0742312
0.0722685
0.0712784
0.0674933
0.0669189
0.0963005
0.0911719
0.0888988
0.0870458
0.0854177
0.0840015
0.082654
0.0813757
0.0801462
0.0789524
0.0777094
0.0766176
0.0745845
0.0736116
0.0680201
0.063392
0.091963
0.0903556
0.0884664
0.0869339
0.0853868
0.0840132
0.0826874
0.0814254
0.0802122
0.0790379
0.0778137
0.0767647
0.0747439
0.0738681
0.068206
0.0628719
0.0900944
0.0893217
0.0877754
0.0865329
0.0851212
0.0838305
0.0825483
0.0813078
0.0801033
0.0789319
0.0777077
0.0766719
0.0746588
0.073831
0.0681839
0.0627909
0.0886867
0.0883769
0.0871678
0.0861575
0.0848738
0.0836602
0.0824209
0.0812025
0.0800075
0.0788391
0.0776147
0.0765876
0.0745917
0.0738183
0.0682745
0.0630679
0.0877962
0.0876339
0.0866158
0.0857524
0.084566
0.0834123
0.0822027
0.0809913
0.0797865
0.078596
0.0773411
0.0762792
0.0742598
0.0734651
0.0680305
0.0631167
0.0871597
0.0870698
0.0861787
0.0854122
0.0842927
0.0831783
0.0819843
0.0807687
0.079544
0.078323
0.0770368
0.0759517
0.0739829
0.073293
0.0682593
0.0640144
0.0867321
0.0866728
0.0858476
0.0851333
0.0840481
0.0829488
0.0817502
0.0805108
0.0792421
0.0779531
0.0765715
0.0753303
0.0732
0.0721927
0.0671577
0.0631816
0.0864765
0.0864316
0.085631
0.084935
0.0838555
0.0827492
0.0815292
0.0802544
0.078938
0.0775927
0.0761701
0.0748964
0.0729113
0.0721341
0.0678377
0.0654739
0.0860932
0.0860572
0.0853013
0.0846506
0.0836194
0.0825582
0.0813785
0.0801385
0.0788513
0.07753
0.0761263
0.0748664
0.0728895
0.072115
0.0678116
0.0654331
0.0861608
0.0861191
0.0853175
0.0846255
0.083545
0.0824318
0.0811932
0.0798842
0.0785144
0.0770919
0.0755911
0.0741659
0.07222
0.0712378
0.0674486
0.0668634
0.0864141
0.0863496
0.0854623
0.084697
0.0835417
0.0823586
0.081049
0.0796617
0.0781972
0.0766486
0.0749832
0.0732512
0.0710361
0.069218
0.0653804
0.0634233
0.086905
0.0867767
0.0857466
0.0848679
0.083613
0.0823469
0.0809625
0.0795023
0.0779608
0.0763262
0.0745743
0.0727164
0.0705213
0.0684833
0.0651934
0.0629552
0.0876634
0.0873919
0.0861564
0.0851158
0.0837351
0.0823712
0.0809065
0.0793742
0.0777618
0.0760517
0.0742193
0.0722492
0.0700101
0.0677381
0.0646807
0.0621071
0.0890083
0.088282
0.086705
0.0854289
0.083909
0.0824525
0.0809232
0.0793406
0.0776837
0.0759303
0.0740555
0.0720343
0.0697953
0.0674391
0.0645942
0.0619136
0.0908006
0.089242
0.087318
0.0857476
0.0840813
0.0825256
0.0809298
0.0792978
0.0775997
0.0758093
0.0739005
0.071846
0.0696032
0.0672071
0.0644815
0.0617624
0.0951684
0.0900922
0.0877945
0.0859102
0.0841695
0.0825817
0.0809786
0.0793476
0.0776539
0.07587
0.0739688
0.0719208
0.0696916
0.0672885
0.0645976
0.0618447
0.0858765
0.0858419
0.0851272
0.0845206
0.0835472
0.0825494
0.0814397
0.0802761
0.0790706
0.0778331
0.0764923
0.0752814
0.0731695
0.0721698
0.0671222
0.0631197
0.0859381
0.0858983
0.0851367
0.0844875
0.083462
0.0824085
0.0812346
0.0799952
0.0786994
0.0773545
0.0759215
0.0745699
0.0725693
0.0715748
0.0673088
0.0663054
0.0861856
0.0861235
0.0852751
0.0845514
0.0834485
0.0823214
0.0810711
0.0797456
0.0783444
0.0768579
0.0752431
0.0735558
0.0712814
0.0694447
0.0652276
0.0631135
0.0866718
0.0865463
0.0855541
0.0847159
0.0835114
0.0822983
0.0809689
0.0795646
0.0780789
0.0764981
0.0747923
0.0729756
0.0707605
0.0687395
0.0652316
0.0629638
0.0874259
0.0871576
0.0859592
0.0849581
0.083626
0.0823124
0.0808989
0.0794174
0.0778541
0.0761895
0.074395
0.0724537
0.0702023
0.06793
0.0647238
0.0621163
0.0887685
0.0880459
0.0865057
0.0852688
0.0837965
0.082389
0.080909
0.0793745
0.0777632
0.0760512
0.0742104
0.0722131
0.0699713
0.0676109
0.0646749
0.0619594
0.0905583
0.0890038
0.0871163
0.0855847
0.083965
0.0824569
0.0809086
0.0793223
0.0776668
0.0759141
0.0740357
0.0720012
0.0697591
0.0673544
0.0645674
0.061808
0.0949268
0.0898558
0.0875942
0.0857487
0.0840549
0.0825153
0.0809604
0.0793759
0.0777259
0.075981
0.0741119
0.0720858
0.0698615
0.0674501
0.0647078
0.0619103
0.0857166
0.0856818
0.0849986
0.0844266
0.0835007
0.082557
0.0815091
0.080416
0.0792924
0.0781536
0.0769322
0.0758959
0.0739564
0.0732792
0.0682216
0.06393
0.0857723
0.0857329
0.0850017
0.0843858
0.0834054
0.0824024
0.0812851
0.0801085
0.0788837
0.0776212
0.0762841
0.0750685
0.0731823
0.0724457
0.0681081
0.0672603
0.0860146
0.0859532
0.0851341
0.0844425
0.0833824
0.0823024
0.0811035
0.0798331
0.0784909
0.0770676
0.0755179
0.0739097
0.0716732
0.0699564
0.0655817
0.0635637
0.0864962
0.0863719
0.0854081
0.0846012
0.0834375
0.0822687
0.0809866
0.0796315
0.0781966
0.0766673
0.0750117
0.073249
0.0710562
0.0691044
0.0654814
0.0632654
0.0872463
0.0869795
0.0858087
0.084838
0.0835449
0.0822732
0.0809034
0.0794664
0.0779471
0.0763247
0.0745682
0.0726606
0.0704171
0.0681683
0.0648679
0.0622589
0.0885868
0.0878661
0.0863533
0.0851465
0.0837124
0.0823455
0.0809074
0.079415
0.0778442
0.0761696
0.0743608
0.0723881
0.070151
0.0677948
0.0647917
0.0620511
0.0903744
0.0888221
0.0869616
0.0854598
0.0838774
0.0824086
0.0809005
0.0793539
0.077736
0.0760171
0.0741665
0.072151
0.0699122
0.067502
0.064665
0.0618698
0.0947434
0.0896757
0.0874409
0.0856251
0.0839689
0.0824693
0.0809553
0.0794112
0.0777997
0.0760897
0.0742497
0.0722436
0.0700247
0.0676062
0.0648197
0.0619804
0.0856007
0.085565
0.0849058
0.0843608
0.0834731
0.0825736
0.0815765
0.0805404
0.0794794
0.0784062
0.077245
0.0762554
0.0742795
0.0735064
0.0680289
0.063034
0.0856513
0.0856114
0.0849032
0.0843131
0.0833689
0.0824071
0.0813363
0.0802111
0.079042
0.0778378
0.0765556
0.0753917
0.0734925
0.0727485
0.06813
0.067081
0.0858887
0.0858272
0.0850302
0.0843635
0.0833375
0.0822958
0.0811393
0.0799145
0.0786198
0.077244
0.0757362
0.0741627
0.0719063
0.0701817
0.0655815
0.0634849
0.0863663
0.0862422
0.0852999
0.084517
0.0833857
0.0822528
0.0810097
0.0796957
0.0783024
0.0768135
0.0751933
0.0734592
0.0712586
0.0693094
0.0655448
0.0632961
0.0871128
0.0868465
0.0856965
0.084749
0.0834869
0.082249
0.0809153
0.0795154
0.0780326
0.0764445
0.0747169
0.0728299
0.0705815
0.068328
0.0649304
0.0622883
0.0884515
0.0877316
0.0862393
0.0850555
0.0836516
0.0823175
0.0809141
0.0794567
0.0779199
0.0762765
0.0744934
0.0725377
0.0702993
0.0679349
0.0648667
0.0620903
0.090237
0.0886859
0.0868455
0.0853665
0.0838136
0.0823764
0.0809016
0.0793882
0.0778019
0.0761115
0.0742838
0.0722828
0.0700441
0.0676237
0.0647403
0.0619077
0.0946066
0.0895409
0.0873262
0.0855331
0.0839065
0.0824392
0.080959
0.0794488
0.0778699
0.0761896
0.0743739
0.0723836
0.0701676
0.0677393
0.0649123
0.0620324
0.085519
0.0854822
0.084841
0.0843164
0.0834585
0.0825937
0.0816369
0.0806461
0.0796351
0.0786156
0.0775099
0.0765765
0.0746334
0.0738905
0.0682703
0.0629306
0.0855652
0.0855245
0.0848336
0.0842631
0.0833468
0.0824173
0.0813835
0.0802991
0.079174
0.0780163
0.0767806
0.0756641
0.0737845
0.0730781
0.0683338
0.0672139
0.0857985
0.0857365
0.0849561
0.0843081
0.0833085
0.0822968
0.0811739
0.0799853
0.0787285
0.0773906
0.0759176
0.0743749
0.0721194
0.0704092
0.065685
0.0635598
0.0862728
0.0861485
0.085222
0.0844572
0.083351
0.0822462
0.081034
0.0797526
0.0783924
0.0769356
0.0753436
0.0736323
0.0714314
0.0694887
0.0656344
0.0633658
0.0870162
0.08675
0.0856153
0.0846852
0.0834469
0.0822354
0.0809303
0.0795599
0.0781064
0.0765455
0.0748408
0.07297
0.0707198
0.068463
0.0649984
0.0623294
0.0883533
0.0876338
0.0861567
0.0849901
0.0836094
0.0823009
0.080925
0.0794955
0.077986
0.0763675
0.0746048
0.0726622
0.0704228
0.0680505
0.0649336
0.062126
0.0901371
0.0885867
0.0867611
0.0852992
0.0837688
0.0823563
0.0809078
0.0794209
0.0778601
0.0761925
0.0743831
0.0723932
0.0701541
0.0677242
0.064804
0.061939
0.0945071
0.0894428
0.0872428
0.0854668
0.0838629
0.0824208
0.0809675
0.0794845
0.0779318
0.0762753
0.074479
0.0725011
0.0702867
0.0678488
0.0649888
0.0620737
0.085464
0.0854261
0.0847979
0.084288
0.0834519
0.0826127
0.0816857
0.0807283
0.0797536
0.0787717
0.0777022
0.0767965
0.0748546
0.0740802
0.0682929
0.0626376
0.0855068
0.0854653
0.0847867
0.0842302
0.0833345
0.0824288
0.0814222
0.080368
0.0792751
0.0781501
0.0769453
0.0758543
0.073975
0.073262
0.0683942
0.0671783
0.0857369
0.0856743
0.0849057
0.0842712
0.0832908
0.0823012
0.0812032
0.0800415
0.0788126
0.0775019
0.076053
0.0745284
0.0722679
0.0705512
0.0657252
0.0635545
0.0862085
0.0860839
0.0851687
0.0844168
0.0833289
0.0822447
0.0810555
0.0797983
0.0784627
0.0770292
0.0754572
0.0737599
0.0715555
0.0696078
0.0656827
0.0633859
0.0869496
0.0866832
0.0855594
0.0846418
0.0834208
0.0822287
0.0809448
0.0795964
0.0781646
0.0766238
0.0749356
0.0730754
0.0708225
0.0685585
0.0650431
0.0623475
0.0882854
0.0875661
0.0860997
0.0849454
0.0835816
0.0822919
0.0809363
0.0795278
0.0780387
0.0764387
0.0746909
0.0727573
0.0705164
0.0681356
0.0649817
0.062147
0.0900679
0.0885178
0.0867027
0.085253
0.083739
0.0823447
0.0809156
0.0794486
0.0779068
0.0762564
0.0744605
0.0724784
0.0702385
0.0677998
0.0648516
0.0619601
0.0944383
0.0893748
0.0871852
0.0854214
0.0838341
0.0824106
0.0809771
0.0795145
0.0779816
0.0763429
0.0745611
0.072592
0.0703782
0.067932
0.0650465
0.0621033
0.0854303
0.0853916
0.0847718
0.0842714
0.0834496
0.0826272
0.0817198
0.0807843
0.0798332
0.0788752
0.0778282
0.0769384
0.0749982
0.0742059
0.0683255
0.0624824
0.0854707
0.0854286
0.084758
0.0842106
0.0833283
0.0824382
0.0814497
0.0804152
0.0793432
0.0782391
0.0770535
0.0759768
0.0740972
0.0733783
0.0684376
0.067164
0.0856986
0.0856356
0.0848746
0.0842487
0.083281
0.0823059
0.0812244
0.0800803
0.0788696
0.0775766
0.076143
0.0746288
0.0723648
0.070642
0.0657538
0.0635531
0.0861684
0.0860435
0.0851356
0.0843921
0.083316
0.0822455
0.0810714
0.0798302
0.0785108
0.0770925
0.0755331
0.0738439
0.0716367
0.0696834
0.0657136
0.0633964
0.0869078
0.0866413
0.0855245
0.0846149
0.0834052
0.0822259
0.080956
0.0796221
0.0782047
0.0766771
0.0749996
0.0731456
0.0708906
0.0686203
0.0650723
0.0623574
0.0882428
0.0875235
0.086064
0.0849177
0.0835649
0.0822876
0.0809455
0.0795508
0.0780753
0.0764875
0.0747494
0.0728213
0.070579
0.0681915
0.0650132
0.0621593
0.0900244
0.0884744
0.0866661
0.0852242
0.083721
0.0823385
0.0809224
0.0794685
0.0779395
0.0763004
0.0745134
0.0725361
0.0702954
0.0678502
0.0648833
0.0619732
0.094395
0.089332
0.0871492
0.0853932
0.0838167
0.0824054
0.0809852
0.079536
0.0780163
0.0763895
0.0746172
0.0726537
0.07044
0.0679876
0.065085
0.0621222
0.0854143
0.0853752
0.0847594