/*--------------------------------*- C++ -*----------------------------------*\
| =========                 |                                                 |
| \\      /  F ield         | OpenFOAM: The Open Source CFD Toolbox           |
|  \\    /   O peration     | Version:  v1912                                 |
|   \\  /    A nd           | Website:  www.openfoam.com                      |
|    \\/     M anipulation  |                                                 |
\*---------------------------------------------------------------------------*/
FoamFile
{
    version     2.0;
    format      ascii;
    class       surfaceScalarField;
    location    "0.09/fluid";
    object      phi;
}
// * * * * * * * * * * * * * * * * * * * * * * * * * * * * * * * * * * * * * //

dimensions      [0 3 -1 0 0 0 0];
oriented        oriented;


internalField   nonuniform List<scalar> 
41600
(
5.60223e-05
6.59824e-06
-5.74794e-07
4.54294e-07
5.27973e-05
3.36216e-06
-9.78578e-07
8.41388e-07
5.10223e-05
1.88573e-06
-1.2962e-06
1.18544e-06
5.00156e-05
1.08512e-06
-1.68202e-06
1.60358e-06
4.92769e-05
7.84862e-07
-2.21535e-06
2.16919e-06
4.86023e-05
6.90413e-07
-2.92444e-06
2.90867e-06
4.78851e-05
7.02856e-07
-3.85403e-06
3.86838e-06
4.70554e-05
7.80478e-07
-5.06952e-06
5.1187e-06
4.60493e-05
9.06072e-07
-6.66554e-06
6.76556e-06
4.47858e-05
1.07059e-06
-8.77806e-06
8.97103e-06
4.31349e-05
1.26816e-06
-1.16028e-05
1.19855e-05
4.08394e-05
1.46724e-06
-1.54315e-05
1.62597e-05
3.74118e-05
1.68847e-06
-2.07146e-05
2.24537e-05
3.1572e-05
1.70976e-06
-2.80368e-05
3.21669e-05
2.10705e-05
1.80594e-06
-3.86361e-05
4.73316e-05
6.67827e-07
-4.30379e-05
6.34406e-05
6.44694e-05
4.76355e-06
-7.61615e-07
6.26929e-07
6.43719e-05
3.6144e-06
-1.27626e-06
1.12146e-06
6.3849e-05
2.53406e-06
-1.67021e-06
1.54487e-06
6.31916e-05
1.83064e-06
-2.14219e-06
2.05404e-06
6.25005e-05
1.52657e-06
-2.793e-06
2.74233e-06
6.17536e-05
1.45255e-06
-3.66111e-06
3.64587e-06
6.09033e-05
1.53339e-06
-4.80206e-06
4.82191e-06
5.98923e-05
1.73132e-06
-6.29673e-06
6.35685e-06
5.8651e-05
2.02907e-06
-8.26209e-06
8.38036e-06
5.708e-05
2.41785e-06
-1.08666e-05
1.10904e-05
5.50189e-05
2.89022e-06
-1.43533e-05
1.47923e-05
5.21235e-05
3.4168e-06
-1.90854e-05
2.00312e-05
4.78286e-05
3.99215e-06
-2.56188e-05
2.76101e-05
4.03485e-05
4.42996e-06
-3.4693e-05
3.94529e-05
2.72417e-05
4.82334e-06
-4.77127e-05
5.78021e-05
3.72191e-06
-5.31086e-05
7.72962e-05
6.40385e-05
3.36072e-06
-7.53968e-07
6.18282e-07
6.44278e-05
3.38129e-06
-1.26556e-06
1.10937e-06
6.43265e-05
2.76195e-06
-1.65619e-06
1.5296e-06
6.39619e-05
2.28448e-06
-2.12324e-06
2.03401e-06
6.34614e-05
2.07868e-06
-2.76652e-06
2.71489e-06
6.28426e-05
2.08746e-06
-3.62356e-06
3.60744e-06
6.20858e-05
2.27126e-06
-4.74869e-06
4.76766e-06
6.11494e-05
2.60851e-06
-6.22139e-06
6.28061e-06
5.99695e-05
3.0915e-06
-8.15714e-06
8.27456e-06
5.84444e-05
3.71962e-06
-1.07231e-05
1.09465e-05
5.64018e-05
4.49281e-06
-1.41617e-05
1.46016e-05
5.34755e-05
5.39154e-06
-1.88396e-05
1.97912e-05
4.90601e-05
6.40042e-06
-2.53131e-05
2.73202e-05
4.13237e-05
7.35479e-06
-3.43567e-05
3.91682e-05
2.77472e-05
8.20244e-06
-4.73582e-05
5.75556e-05
6.98137e-06
-5.28898e-05
7.73776e-05
6.33821e-05
2.61466e-06
-7.2054e-07
5.84475e-07
6.38671e-05
3.05317e-06
-1.21572e-06
1.05891e-06
6.39872e-05
2.76912e-06
-1.59458e-06
1.46727e-06
6.38414e-05
2.52036e-06
-2.04667e-06
1.95657e-06
6.35161e-05
2.45676e-06
-2.6677e-06
2.61497e-06
6.30391e-05
2.58206e-06
-3.49282e-06
3.47526e-06
6.24051e-05
2.8881e-06
-4.57324e-06
4.59033e-06
6.15835e-05
3.37339e-06
-5.98441e-06
6.04112e-06
6.05154e-05
4.04566e-06
-7.83654e-06
7.95049e-06
5.90971e-05
4.91959e-06
-1.02903e-05
1.05087e-05
5.7145e-05
6.01262e-06
-1.35801e-05
1.40123e-05
5.42691e-05
7.32825e-06
-1.80679e-05
1.90071e-05
4.98209e-05
8.86388e-06
-2.42945e-05
2.62792e-05
4.19204e-05
1.04802e-05
-3.30735e-05
3.78486e-05
2.79841e-05
1.20247e-05
-4.57325e-05
5.58466e-05
1.06425e-05
-5.13907e-05
7.57137e-05
6.31008e-05
2.15043e-06
-6.74421e-07
5.37858e-07
6.35756e-05
2.73595e-06
-1.14689e-06
9.89273e-07
6.37953e-05
2.67771e-06
-1.50973e-06
1.38143e-06
6.37944e-05
2.6126e-06
-1.94131e-06
1.84999e-06
6.36177e-05
2.6878e-06
-2.53167e-06
2.47737e-06
6.32857e-05
2.93367e-06
-3.31257e-06
3.29295e-06
6.27964e-05
3.36311e-06
-4.33073e-06
4.34504e-06
6.21247e-05
3.99228e-06
-5.65549e-06
5.70827e-06
6.12159e-05
4.84643e-06
-7.38881e-06
7.49682e-06
5.99657e-05
5.96116e-06
-9.68062e-06
9.88925e-06
5.81816e-05
7.38197e-06
-1.27512e-05
1.3166e-05
5.5447e-05
9.15721e-06
-1.69506e-05
1.78563e-05
5.10637e-05
1.13292e-05
-2.27886e-05
2.47066e-05
4.30341e-05
1.38666e-05
-3.11273e-05
3.57705e-05
2.86434e-05
1.65863e-05
-4.31816e-05
5.30107e-05
1.54801e-05
-4.89865e-05
7.27924e-05
6.29815e-05
1.80612e-06
-6.19836e-07
4.82644e-07
6.34513e-05
2.42481e-06
-1.06531e-06
9.0671e-07
6.37439e-05
2.51459e-06
-1.40916e-06
1.27965e-06
6.38593e-05
2.59003e-06
-1.81631e-06
1.72349e-06
6.3817e-05
2.7863e-06
-2.3699e-06
2.31369e-06
6.36312e-05
3.14163e-06
-3.09752e-06
3.07536e-06
6.3302e-05
3.68154e-06
-4.04008e-06
4.05084e-06
6.28102e-05
4.43655e-06
-5.25875e-06
5.30626e-06
6.21072e-05
5.44989e-06
-6.8441e-06
6.94363e-06
6.10911e-05
6.7836e-06
-8.93054e-06
9.12422e-06
5.95621e-05
8.52453e-06
-1.17172e-05
1.21036e-05
5.7068e-05
1.08024e-05
-1.55338e-05
1.63827e-05
5.28431e-05
1.37492e-05
-2.08442e-05
2.26492e-05
4.46863e-05
1.7602e-05
-2.85731e-05
3.29944e-05
2.97175e-05
2.2182e-05
-3.97672e-05
4.91402e-05
2.21499e-05
-4.58076e-05
6.88553e-05
6.29493e-05
1.49477e-06
-5.5867e-07
4.20739e-07
6.34397e-05
2.09411e-06
-9.73892e-07
8.14155e-07
6.38023e-05
2.28288e-06
-1.29644e-06
1.16554e-06
6.40218e-05
2.46505e-06
-1.67606e-06
1.58152e-06
6.41067e-05
2.75992e-06
-2.18808e-06
2.12965e-06
6.40691e-05
3.20432e-06
-2.85513e-06
2.82997e-06
6.39144e-05
3.82984e-06
-3.71105e-06
3.7175e-06
6.36339e-05
4.67627e-06
-4.80663e-06
4.84741e-06
6.31959e-05
5.80007e-06
-6.21694e-06
6.3048e-06
6.25236e-05
7.28472e-06
-8.053e-06
8.2241e-06
6.14559e-05
9.25301e-06
-1.04771e-05
1.08164e-05
5.95826e-05
1.19327e-05
-1.37684e-05
1.45113e-05
5.6177e-05
1.55852e-05
-1.82831e-05
1.98527e-05
4.87686e-05
2.11212e-05
-2.49291e-05
2.88183e-05
3.38571e-05
2.89049e-05
-3.43982e-05
4.25868e-05
3.50384e-05
-4.02396e-05
6.12081e-05
6.29652e-05
-4.93561e-07
3.5481e-07
1.16833e-06
6.35035e-05
-8.76602e-07
7.15619e-07
1.71678e-06
6.39426e-05
-1.17649e-06
1.04405e-06
1.97621e-06
6.42619e-05
-1.52675e-06
1.43034e-06
2.24219e-06
6.44683e-05
-1.99435e-06
1.93349e-06
2.6144e-06
6.45772e-05
-2.5965e-06
2.56802e-06
3.12384e-06
6.46016e-05
-3.35923e-06
3.36083e-06
3.80387e-06
6.4545e-05
-4.32181e-06
4.35486e-06
4.6998e-06
6.43926e-05
-5.54222e-06
5.61644e-06
5.87823e-06
6.40893e-05
-7.10611e-06
7.25062e-06
7.44358e-06
6.34966e-05
-9.13823e-06
9.4232e-06
9.56069e-06
6.22193e-05
-1.18678e-05
1.24916e-05
1.25862e-05
5.95343e-05
-1.55567e-05
1.68814e-05
1.69455e-05
5.27772e-05
-2.11167e-05
2.44747e-05
2.45204e-05
3.85257e-05
-2.89089e-05
3.6012e-05
3.60534e-05
-3.50398e-05
5.42786e-05
5.4325e-05
5.5943e-05
6.60809e-06
-6.25851e-07
5.2609e-05
3.37878e-06
-1.02336e-06
5.07191e-05
1.90495e-06
-1.31131e-06
4.95876e-05
1.10872e-06
-1.65919e-06
4.8703e-05
8.15231e-07
-2.14597e-06
4.78472e-05
7.3049e-07
-2.79921e-06
4.68962e-05
7.56491e-07
-3.65945e-06
4.57579e-05
8.5274e-07
-4.78398e-06
4.43416e-05
1.0038e-06
-6.25304e-06
4.25368e-05
1.20324e-06
-8.17645e-06
4.01879e-05
1.44955e-06
-1.07034e-05
3.70498e-05
1.71814e-06
-1.40115e-05
3.26666e-05
2.04492e-06
-1.83763e-05
2.61318e-05
2.23228e-06
-2.37343e-05
1.54118e-05
2.57346e-06
-3.04896e-05
1.7606e-06
-2.93865e-05
6.4373e-05
4.78682e-06
-8.13315e-07
6.41446e-05
3.64992e-06
-1.319e-06
6.34805e-05
2.57699e-06
-1.67813e-06
6.26685e-05
1.88363e-06
-2.10517e-06
6.17965e-05
1.59474e-06
-2.7005e-06
6.08249e-05
1.54252e-06
-3.50152e-06
5.96843e-05
1.65378e-06
-4.55872e-06
5.82899e-05
1.89343e-06
-5.94308e-06
5.65378e-05
2.24772e-06
-7.75391e-06
5.42894e-05
2.71229e-06
-1.01272e-05
5.13476e-05
3.28557e-06
-1.32475e-05
4.73737e-05
3.9433e-06
-1.73367e-05
4.18343e-05
4.69373e-06
-2.27282e-05
3.34104e-05
5.33837e-06
-2.93751e-05
1.9951e-05
5.99783e-06
-3.76777e-05
4.89968e-06
-3.62964e-05
6.39435e-05
3.39604e-06
-8.06672e-07
6.42031e-05
3.43449e-06
-1.30971e-06
6.39625e-05
2.82701e-06
-1.66562e-06
6.34458e-05
2.36498e-06
-2.08788e-06
6.27676e-05
2.18243e-06
-2.67599e-06
6.19283e-05
2.22468e-06
-3.4665e-06
6.08868e-05
2.45539e-06
-4.50877e-06
5.95741e-05
2.85736e-06
-5.87254e-06
5.78918e-05
3.42856e-06
-7.65577e-06
5.56988e-05
4.17552e-06
-9.99329e-06
5.2785e-05
5.10699e-06
-1.30693e-05
4.87874e-05
6.20922e-06
-1.7108e-05
4.31287e-05
7.48327e-06
-2.2444e-05
3.44397e-05
8.72259e-06
-2.90518e-05
2.04814e-05
9.91791e-06
-3.732e-05
8.48132e-06
-3.59899e-05
6.32899e-05
2.66061e-06
-7.75022e-07
6.36492e-05
3.12207e-06
-1.26257e-06
6.36352e-05
2.85373e-06
-1.60732e-06
6.33436e-05
2.62529e-06
-2.01545e-06
6.28487e-05
2.5923e-06
-2.58257e-06
6.21617e-05
2.76179e-06
-3.34301e-06
6.1257e-05
3.13016e-06
-4.34328e-06
6.00772e-05
3.70215e-06
-5.64944e-06
5.85302e-05
4.49387e-06
-7.35478e-06
5.64731e-05
5.53084e-06
-9.58856e-06
5.36843e-05
6.84434e-06
-1.25286e-05
4.97738e-05
8.44805e-06
-1.63962e-05
4.41135e-05
1.03654e-05
-2.15163e-05
3.5269e-05
1.2394e-05
-2.79004e-05
2.09067e-05
1.44534e-05
-3.59057e-05
1.27221e-05
-3.47246e-05
6.30124e-05
2.2051e-06
-7.31331e-07
6.33672e-05
2.81783e-06
-1.1974e-06
6.34597e-05
2.77846e-06
-1.527e-06
6.33217e-05
2.73776e-06
-1.91578e-06
6.29865e-05
2.84979e-06
-2.45399e-06
6.24595e-05
3.1491e-06
-3.17282e-06
6.17191e-05
3.65445e-06
-4.11468e-06
6.07157e-05
4.39022e-06
-5.3401e-06
5.93627e-05
5.39313e-06
-6.93513e-06
5.75185e-05
6.71429e-06
-9.01987e-06
5.49524e-05
8.42013e-06
-1.17609e-05
5.12437e-05
1.05778e-05
-1.53716e-05
4.57044e-05
1.32726e-05
-2.01566e-05
3.67502e-05
1.64005e-05
-2.61796e-05
2.18577e-05
1.99013e-05
-3.3737e-05
1.83573e-05
-3.27638e-05
6.28976e-05
1.86728e-06
-6.7964e-07
6.3254e-05
2.51633e-06
-1.12018e-06
6.34278e-05
2.62733e-06
-1.43184e-06
6.34166e-05
2.73023e-06
-1.79757e-06
6.32296e-05
2.96807e-06
-2.30114e-06
6.28671e-05
3.38397e-06
-2.96989e-06
6.23119e-05
4.01051e-06
-3.84093e-06
6.15224e-05
4.88838e-06
-4.96749e-06
6.04214e-05
6.07564e-06
-6.42558e-06
5.88718e-05
7.65554e-06
-8.32217e-06
5.66361e-05
9.74529e-06
-1.08066e-05
5.32503e-05
1.25083e-05
-1.40786e-05
4.79447e-05
1.61443e-05
-1.84103e-05
3.88831e-05
2.08249e-05
-2.39359e-05
2.33093e-05
2.6564e-05
-3.08562e-05
2.60345e-05
-3.01753e-05
6.28705e-05
1.55987e-06
-6.21738e-07
6.32551e-05
2.19146e-06
-1.03366e-06
6.35084e-05
2.40284e-06
-1.32522e-06
6.36132e-05
2.61432e-06
-1.66499e-06
6.35691e-05
2.95358e-06
-2.12943e-06
6.33764e-05
3.46286e-06
-2.74133e-06
6.30257e-05
4.18154e-06
-3.53138e-06
6.24901e-05
5.16093e-06
-4.54361e-06
6.17149e-05
6.47458e-06
-5.84071e-06
6.05964e-05
8.23135e-06
-7.51031e-06
5.89461e-05
1.05916e-05
-9.67305e-06
5.63478e-05
1.3833e-05
-1.24948e-05
5.20729e-05
1.83114e-05
-1.61754e-05
4.39238e-05
2.49339e-05
-2.08889e-05
2.8337e-05
3.43955e-05
-2.6643e-05
4.02414e-05
-2.61094e-05
6.28918e-05
-5.60126e-07
1.23464e-06
6.33324e-05
-9.41619e-07
1.81588e-06
6.36722e-05
-1.21177e-06
2.09829e-06
6.38896e-05
-1.52388e-06
2.39403e-06
6.39841e-05
-1.94653e-06
2.81134e-06
6.39612e-05
-2.49755e-06
3.38674e-06
6.38224e-05
-3.20058e-06
4.16173e-06
6.35571e-05
-4.08942e-06
5.19386e-06
6.31328e-05
-5.2119e-06
6.56854e-06
6.24729e-05
-6.63445e-06
8.41956e-06
6.14164e-05
-8.44731e-06
1.09571e-05
5.9554e-05
-1.07826e-05
1.46103e-05
5.61586e-05
-1.37727e-05
1.99228e-05
4.87605e-05
-1.76572e-05
2.88725e-05
3.38565e-05
-2.22506e-05
4.26413e-05
-2.22151e-05
6.12731e-05
5.58735e-05
6.61744e-06
-6.16754e-07
5.24415e-05
3.39446e-06
-9.85856e-07
5.04455e-05
1.92314e-06
-1.23844e-06
4.91966e-05
1.13106e-06
-1.54133e-06
4.81745e-05
8.43939e-07
-1.96778e-06
4.71492e-05
7.68322e-07
-2.5423e-06
4.59816e-05
8.06988e-07
-3.29879e-06
4.456e-05
9.20425e-07
-4.28279e-06
4.27671e-05
1.09439e-06
-5.55456e-06
4.04568e-05
1.32374e-06
-7.18985e-06
3.74264e-05
1.60772e-06
-9.28083e-06
3.33975e-05
1.92201e-06
-1.19046e-05
2.79183e-05
2.29843e-06
-1.51956e-05
2.05231e-05
2.53757e-06
-1.88766e-05
1.02753e-05
2.89721e-06
-2.31391e-05
2.06375e-06
-2.11747e-05
6.4288e-05
4.80887e-06
-7.92767e-07
6.39416e-05
3.68353e-06
-1.26167e-06
6.31469e-05
2.61764e-06
-1.57791e-06
6.21897e-05
1.93377e-06
-1.95071e-06
6.11472e-05
1.65921e-06
-2.4732e-06
5.99652e-05
1.6275e-06
-3.17873e-06
5.85558e-05
1.7673e-06
-4.10966e-06
5.681e-05
2.04588e-06
-5.32272e-06
5.45911e-05
2.45243e-06
-6.89301e-06
5.17169e-05
2.98598e-06
-8.91527e-06
4.79338e-05
3.64842e-06
-1.15051e-05
4.28655e-05
4.41696e-06
-1.47633e-05
3.59849e-05
5.30244e-06
-1.88516e-05
2.65233e-05
6.08608e-06
-2.3462e-05
1.36027e-05
6.8873e-06
-2.87472e-05
5.68421e-06
-2.63139e-05
6.38599e-05
3.4295e-06
-7.87157e-07
6.40027e-05
3.48486e-06
-1.25384e-06
6.36332e-05
2.88859e-06
-1.56714e-06
6.29736e-05
2.44113e-06
-1.93559e-06
6.21278e-05
2.28051e-06
-2.45155e-06
6.10822e-05
2.35424e-06
-3.14763e-06
5.9777e-05
2.62897e-06
-4.06525e-06
5.8119e-05
3.0914e-06
-5.26006e-06
5.59771e-05
3.74455e-06
-6.80598e-06
5.31655e-05
4.60104e-06
-8.79678e-06
4.94157e-05
5.67674e-06
-1.13477e-05
4.43234e-05
6.96205e-06
-1.45609e-05
3.73124e-05
8.46895e-06
-1.85994e-05
2.75622e-05
9.95355e-06
-2.31691e-05
1.41096e-05
1.1436e-05
-2.84161e-05
9.82173e-06
-2.60174e-05
6.32089e-05
2.70413e-06
-7.58591e-07
6.34552e-05
3.1873e-06
-1.21131e-06
6.33173e-05
2.9338e-06
-1.51456e-06
6.28887e-05
2.72454e-06
-1.87031e-06
6.22338e-05
2.72037e-06
-2.36746e-06
6.13503e-05
2.9314e-06
-3.03667e-06
6.01947e-05
3.3582e-06
-3.91691e-06
5.86863e-05
4.01112e-06
-5.06075e-06
5.67005e-05
4.91377e-06
-6.53829e-06
5.40507e-05
6.10131e-06
-8.43898e-06
5.04551e-05
7.61729e-06
-1.08736e-05
4.54789e-05
9.48486e-06
-1.39428e-05
3.84857e-05
1.17507e-05
-1.78049e-05
2.8574e-05
1.41615e-05
-2.21966e-05
1.46531e-05
1.66991e-05
-2.7248e-05
1.47399e-05
-2.49893e-05
6.29351e-05
2.25687e-06
-7.19132e-07
6.31821e-05
2.89533e-06
-1.15248e-06
6.31572e-05
2.87378e-06
-1.44211e-06
6.28904e-05
2.85609e-06
-1.78049e-06
6.24057e-05
3.0028e-06
-2.25175e-06
6.16958e-05
3.35229e-06
-2.88384e-06
6.07229e-05
3.92868e-06
-3.7122e-06
5.94149e-05
4.76379e-06
-4.78482e-06
5.7655e-05
5.90464e-06
-6.16601e-06
5.52582e-05
7.41639e-06
-7.93823e-06
5.19343e-05
9.38475e-06
-1.02044e-05
4.72136e-05
1.18955e-05
-1.30616e-05
4.03877e-05
1.50765e-05
-1.66564e-05
3.03736e-05
1.87687e-05
-2.07726e-05
1.58172e-05
2.30242e-05
-2.55057e-05
2.12441e-05
-2.34506e-05
6.28245e-05
1.92517e-06
-6.72461e-07
6.30795e-05
2.60292e-06
-1.08278e-06
6.31438e-05
2.73395e-06
-1.35628e-06
6.30136e-05
2.86275e-06
-1.67399e-06
6.26898e-05
3.13968e-06
-2.11427e-06
6.21616e-05
3.6124e-06
-2.70174e-06
6.13968e-05
4.31988e-06
-3.46736e-06
6.03341e-05
5.31203e-06
-4.45308e-06
5.88682e-05
6.66023e-06
-5.71529e-06
5.6822e-05
8.46704e-06
-7.32656e-06
5.38996e-05
1.08784e-05
-9.37787e-06
4.95838e-05
1.40915e-05
-1.19589e-05
4.3069e-05
1.83782e-05
-1.51972e-05
3.29709e-05
2.38704e-05
-1.89395e-05
1.75877e-05
3.07751e-05
-2.32238e-05
3.0098e-05
-2.14412e-05
6.28022e-05
1.62147e-06
-6.20197e-07
6.30926e-05
2.28355e-06
-1.00471e-06
6.32452e-05
2.51626e-06
-1.26013e-06
6.32422e-05
2.75535e-06
-1.55459e-06
6.3076e-05
3.13635e-06
-1.9599e-06
6.27374e-05
3.70644e-06
-2.4968e-06
6.22047e-05
4.5121e-06
-3.19087e-06
6.14347e-05
5.61503e-06
-4.07658e-06
6.03498e-05
7.1043e-06
-5.19995e-06
5.88138e-05
9.1122e-06
-6.61947e-06
5.659e-05
1.18359e-05
-8.40673e-06
5.32155e-05
1.56039e-05
-1.06326e-05
4.79206e-05
2.08796e-05
-1.33819e-05
3.8871e-05
2.85873e-05
-1.65561e-05
2.33052e-05
3.97777e-05
-2.00799e-05
4.58254e-05
-1.85316e-05
6.28286e-05
-5.64598e-07
1.29736e-06
6.31826e-05
-9.2167e-07
1.90959e-06
6.34312e-05
-1.15787e-06
2.2137e-06
6.35528e-05
-1.42755e-06
2.53747e-06
6.3541e-05
-1.79554e-06
2.99715e-06
6.33939e-05
-2.27835e-06
3.63433e-06
6.31032e-05
-2.89564e-06
4.49787e-06
6.26461e-05
-3.67362e-06
5.65632e-06
6.19732e-05
-4.64675e-06
7.21204e-06
6.09832e-05
-5.85799e-06
9.32575e-06
5.94775e-05
-7.358e-06
1.22523e-05
5.70055e-05
-9.19897e-06
1.64922e-05
5.28016e-05
-1.14227e-05
2.27334e-05
4.46673e-05
-1.40042e-05
3.30686e-05
2.97141e-05
-1.67443e-05
4.92246e-05
-1.56366e-05
6.8961e-05
5.58139e-05
6.62588e-06
-5.56555e-07
5.22969e-05
3.40857e-06
-8.77425e-07
5.02073e-05
1.93953e-06
-1.08837e-06
4.88542e-05
1.1512e-06
-1.33941e-06
4.77104e-05
8.69786e-07
-1.6938e-06
4.65375e-05
8.02339e-07
-2.17171e-06
4.5186e-05
8.52329e-07
-2.79961e-06
4.35334e-05
9.81136e-07
-3.61138e-06
4.14526e-05
1.17568e-06
-4.64944e-06
3.87933e-05
1.43232e-06
-5.96284e-06
3.53647e-05
1.75192e-06
-7.60418e-06
3.09432e-05
2.1134e-06
-9.59645e-06
2.51906e-05
2.54926e-06
-1.19923e-05
1.79217e-05
2.87071e-06
-1.44784e-05
8.58687e-06
3.31414e-06
-1.71184e-05
2.52463e-06
-1.51122e-05
6.4215e-05
4.82879e-06
-7.10634e-07
6.37658e-05
3.71387e-06
-1.11784e-06
6.28558e-05
2.6543e-06
-1.38269e-06
6.17697e-05
1.97896e-06
-1.6923e-06
6.05761e-05
1.71724e-06
-2.12713e-06
5.92106e-05
1.70386e-06
-2.71474e-06
5.75726e-05
1.86907e-06
-3.48833e-06
5.55391e-05
2.18216e-06
-4.49031e-06
5.29608e-05
2.6348e-06
-5.7738e-06
4.96495e-05
3.22889e-06
-7.40057e-06
4.53643e-05
3.96921e-06
-9.43715e-06
3.97957e-05
4.835e-06
-1.19163e-05
3.25523e-05
5.83943e-06
-1.48984e-05
2.32312e-05
6.75235e-06
-1.80226e-05
1.14104e-05
7.68991e-06
-2.13022e-05
6.42546e-06
-1.8804e-05
6.3788e-05
3.45972e-06
-7.06086e-07
6.38292e-05
3.53032e-06
-1.11152e-06
6.33461e-05
2.94414e-06
-1.37387e-06
6.25595e-05
2.50977e-06
-1.67976e-06
6.15655e-05
2.36876e-06
-2.10906e-06
6.03398e-05
2.47058e-06
-2.68872e-06
5.88104e-05
2.78442e-06
-3.45118e-06
5.68703e-05
3.30021e-06
-4.43798e-06
5.43754e-05
4.02503e-06
-5.70136e-06
5.11337e-05
4.97618e-06
-7.30238e-06
4.68882e-05
6.17441e-06
-9.3074e-06
4.13005e-05
7.61203e-06
-1.17501e-05
3.39266e-05
9.30626e-06
-1.46924e-05
2.43105e-05
1.09816e-05
-1.77823e-05
1.19413e-05
1.26721e-05
-2.10291e-05
1.09061e-05
-1.85564e-05
6.31395e-05
2.74343e-06
-6.81764e-07
6.32876e-05
3.24617e-06
-1.07531e-06
6.30403e-05
3.00603e-06
-1.32913e-06
6.24901e-05
2.81395e-06
-1.62427e-06
6.16935e-05
2.83555e-06
-2.0377e-06
6.06386e-05
3.0836e-06
-2.59475e-06
5.92699e-05
3.56217e-06
-3.32593e-06
5.74934e-05
4.28621e-06
-4.27034e-06
5.51723e-05
5.28525e-06
-5.47736e-06
5.2113e-05
6.60144e-06
-7.00491e-06
4.8044e-05
8.28626e-06
-8.91652e-06
4.25925e-05
1.03664e-05
-1.12457e-05
3.52469e-05
1.28993e-05
-1.40523e-05
2.54585e-05
1.55824e-05
-1.7009e-05
1.257e-05
1.84297e-05
-2.01171e-05
1.62504e-05
-1.77633e-05
6.28688e-05
2.3036e-06
-6.48142e-07
6.30225e-05
2.96527e-06
-1.02521e-06
6.28941e-05
2.95974e-06
-1.26747e-06
6.25128e-05
2.96266e-06
-1.54793e-06
6.18958e-05
3.14034e-06
-1.93953e-06
6.10265e-05
3.53447e-06
-2.46541e-06
5.98561e-05
4.17364e-06
-3.15324e-06
5.83004e-05
5.09568e-06
-4.0386e-06
5.62306e-05
6.35557e-06
-5.16648e-06
5.34553e-05
8.02836e-06
-6.58988e-06
4.96926e-05
1.02118e-05
-8.36728e-06
4.45295e-05
1.29988e-05
-1.05309e-05
3.73707e-05
1.65368e-05
-1.31352e-05
2.74668e-05
2.06037e-05
-1.58901e-05
1.38598e-05
2.53093e-05
-1.87783e-05
2.32578e-05
-1.65978e-05
6.27621e-05
1.97742e-06
-6.08385e-07
6.29294e-05
2.68105e-06
-9.65845e-07
6.28972e-05
2.83006e-06
-1.19444e-06
6.26613e-05
2.98204e-06
-1.45743e-06
6.22164e-05
3.29388e-06
-1.82294e-06
6.15435e-05
3.81705e-06
-2.3114e-06
6.06008e-05
4.59586e-06
-2.94693e-06
5.93163e-05
5.68756e-06
-3.76045e-06
5.75741e-05
7.17358e-06
-4.79107e-06
5.5191e-05
9.1697e-06
-6.08475e-06
5.18779e-05
1.18391e-05
-7.69214e-06
4.71671e-05
1.53929e-05
-9.64214e-06
4.03501e-05
2.01354e-05
-1.19788e-05
3.03486e-05
2.61282e-05
-1.44626e-05
1.5802e-05
3.36746e-05
-1.70426e-05
3.27066e-05
-1.50877e-05
6.2744e-05
1.67706e-06
-5.63871e-07
6.29531e-05
2.36661e-06
-8.99373e-07
6.30172e-05
2.61849e-06
-1.11265e-06
6.29184e-05
2.88229e-06
-1.35601e-06
6.2644e-05
3.30051e-06
-1.6921e-06
6.21779e-05
3.92452e-06
-2.13822e-06
6.14905e-05
4.80667e-06
-2.71425e-06
6.053e-05
6.01686e-06
-3.44543e-06
5.92113e-05
7.65564e-06
-4.36325e-06
5.73946e-05
9.87089e-06
-5.50396e-06
5.48516e-05
1.28811e-05
-6.90576e-06
5.11647e-05
1.7035e-05
-8.58786e-06
4.5646e-05
2.28426e-05
-1.05704e-05
3.67174e-05
3.11657e-05
-1.2665e-05
2.1842e-05
4.32255e-05
-1.47554e-05
4.90434e-05
-1.30263e-05
6.2775e-05
-5.16525e-07
1.35395e-06
6.30545e-05
-8.28674e-07
1.99411e-06
6.32231e-05
-1.02568e-06
2.31769e-06
6.32595e-05
-1.24813e-06
2.66654e-06
6.31533e-05
-1.55284e-06
3.16399e-06
6.28973e-05
-1.95372e-06
3.85592e-06
6.24771e-05
-2.466e-06
4.7972e-06
6.1864e-05
-3.10863e-06
6.06497e-06
6.10036e-05
-3.90463e-06
7.7739e-06
5.97937e-05
-4.87939e-06
1.01022e-05
5.80444e-05
-6.05737e-06
1.33297e-05
5.53426e-05
-7.44801e-06
1.79859e-05
5.09903e-05
-9.04617e-06
2.48183e-05
4.2997e-05
-1.07288e-05
3.58836e-05
2.86307e-05
-1.23061e-05
5.31537e-05
-1.09396e-05
7.29771e-05
5.5765e-05
6.63307e-06
-4.54658e-07
5.21777e-05
3.42058e-06
-7.10657e-07
5.00101e-05
1.95346e-06
-8.74199e-07
4.85699e-05
1.16831e-06
-1.06759e-06
4.73252e-05
8.91717e-07
-1.34078e-06
4.60313e-05
8.31144e-07
-1.70901e-06
4.45325e-05
8.90615e-07
-2.1914e-06
4.27002e-05
1.0322e-06
-2.81128e-06
4.04034e-05
1.24364e-06
-3.59623e-06
3.74935e-05
1.52225e-06
-4.57526e-06
3.37943e-05
1.86946e-06
-5.77437e-06
2.91222e-05
2.26542e-06
-7.18979e-06
2.32226e-05
2.73961e-06
-8.83228e-06
1.60823e-05
3.10692e-06
-1.04449e-05
7.43426e-06
3.58134e-06
-1.20518e-05
2.78197e-06
-1.04596e-05
6.41548e-05
4.84575e-06
-5.78134e-07
6.36206e-05
3.7397e-06
-9.02744e-07
6.26144e-05
2.6855e-06
-1.10853e-06
6.14204e-05
2.01738e-06
-1.34736e-06
6.01014e-05
1.76647e-06
-1.68295e-06
5.85855e-05
1.7685e-06
-2.13616e-06
5.67639e-05
1.95498e-06
-2.73106e-06
5.4506e-05
2.29675e-06
-3.49699e-06
5.16572e-05
2.78732e-06
-4.4687e-06
4.80314e-05
3.43058e-06
-5.68305e-06
4.34043e-05
4.2329e-06
-7.17349e-06
3.75181e-05
5.17402e-06
-8.93872e-06
3.00816e-05
6.26622e-06
-1.09885e-05
2.09212e-05
7.26857e-06
-1.30238e-05
9.93748e-06
8.28991e-06
-1.5027e-05
6.95569e-06
-1.30398e-05
6.37289e-05
3.48547e-06
-5.7466e-07
6.3686e-05
3.56904e-06
-8.97952e-07
6.3108e-05
2.99141e-06
-1.10182e-06
6.22152e-05
2.5681e-06
-1.33772e-06
6.1098e-05
2.44363e-06
-1.669e-06
5.97248e-05
2.56904e-06
-2.11605e-06
5.80154e-05
2.91553e-06
-2.70236e-06
5.58553e-05
3.47557e-06
-3.45665e-06
5.3095e-05
4.25925e-06
-4.41304e-06
4.9544e-05
5.28715e-06
-5.60789e-06
4.4961e-05
6.58304e-06
-7.0746e-06
3.90578e-05
8.13961e-06
-8.81252e-06
3.14886e-05
9.97575e-06
-1.08327e-05
2.20254e-05
1.17911e-05
-1.28417e-05
1.04806e-05
1.36258e-05
-1.48202e-05
1.1733e-05
-1.28526e-05
6.30824e-05
2.7769e-06
-5.55561e-07
6.31493e-05
3.2963e-06
-8.695e-07
6.28108e-05
3.06747e-06
-1.06667e-06
6.21589e-05
2.88991e-06
-1.29417e-06
6.12447e-05
2.93323e-06
-1.61309e-06
6.00492e-05
3.21231e-06
-2.04259e-06
5.85095e-05
3.73402e-06
-2.60472e-06
5.65243e-05
4.51689e-06
-3.32645e-06
5.39513e-05
5.59476e-06
-4.23988e-06
5.05981e-05
7.01478e-06
-5.3793e-06
4.62076e-05
8.83346e-06
-6.77643e-06
4.04536e-05
1.10789e-05
-8.43095e-06
3.29168e-05
1.38139e-05
-1.03537e-05
2.32692e-05
1.66987e-05
-1.2269e-05
1.11659e-05
1.97659e-05
-1.41537e-05
1.74135e-05
-1.22775e-05
6.28145e-05
2.3434e-06
-5.29116e-07
6.28909e-05
3.02481e-06
-8.3011e-07
6.26763e-05
3.03285e-06
-1.01825e-06
6.21994e-05
3.05317e-06
-1.2343e-06
6.14724e-05
3.25691e-06
-1.53623e-06
6.04724e-05
3.68842e-06
-1.94155e-06
5.91437e-05
4.37979e-06
-2.47025e-06
5.73952e-05
5.37349e-06
-3.14674e-06
5.50932e-05
6.73031e-06
-4.00006e-06
5.20471e-05
8.53229e-06
-5.06127e-06
4.79875e-05
1.0885e-05
-6.35911e-06
4.25437e-05
1.38851e-05
-7.89328e-06
3.52036e-05
1.76914e-05
-9.67264e-06
2.54264e-05
2.20344e-05
-1.14485e-05
1.25422e-05
2.70599e-05
-1.31881e-05
2.48027e-05
-1.14445e-05
6.2711e-05
2.02192e-06
-4.9786e-07
6.28058e-05
2.74756e-06
-7.83447e-07
6.26933e-05
2.9118e-06
-9.60888e-07
6.2369e-05
3.08334e-06
-1.16332e-06
6.18235e-05
3.42449e-06
-1.44497e-06
6.1032e-05
3.98984e-06
-1.82131e-06
5.99467e-05
4.82784e-06
-2.30974e-06
5.84898e-05
6.00132e-06
-2.93132e-06
5.65411e-05
7.59901e-06
-3.71105e-06
5.3918e-05
9.74592e-06
-4.67534e-06
5.03424e-05
1.26167e-05
-5.84824e-06
4.53836e-05
1.64301e-05
-7.22838e-06
3.84041e-05
2.15117e-05
-8.81961e-06
2.85157e-05
2.78699e-05
-1.04097e-05
1.4608e-05
3.58717e-05
-1.19466e-05
3.46953e-05
-1.03721e-05
6.26965e-05
1.72438e-06
-4.62866e-07
6.28386e-05
2.43731e-06
-7.31204e-07
6.2829e-05
2.70541e-06
-8.9667e-07
6.26501e-05
2.99004e-06
-1.0838e-06
6.22856e-05
3.43952e-06
-1.3426e-06
6.17148e-05
4.10856e-06
-1.6862e-06
6.09033e-05
5.05407e-06
-2.12892e-06
5.97948e-05
6.35214e-06
-2.68779e-06
5.83015e-05
8.11166e-06
-3.38263e-06
5.62857e-05
1.04914e-05
-4.23358e-06
5.353e-05
1.3724e-05
-5.2573e-06
4.96499e-05
1.81704e-05
-6.44809e-06
4.40165e-05
2.43721e-05
-7.79732e-06
3.52103e-05
3.31429e-05
-9.13188e-06
2.08672e-05
4.58212e-05
-1.03617e-05
5.15008e-05
-8.96438e-06
6.27314e-05
-4.25651e-07
1.40212e-06
6.29496e-05
-6.75645e-07
2.06604e-06
6.30516e-05
-8.28384e-07
2.4061e-06
6.30167e-05
-9.99237e-07
2.77609e-06
6.28318e-05
-1.23367e-06
3.30524e-06
6.24861e-05
-1.54233e-06
4.04284e-06
6.19619e-05
-1.93612e-06
5.04843e-06
6.12275e-05
-2.42765e-06
6.40558e-06
6.02277e-05
-3.03096e-06
8.23779e-06
5.88636e-05
-3.75914e-06
1.07352e-05
5.69563e-05
-4.62052e-06
1.41944e-05
5.41214e-05
-5.60485e-06
1.91622e-05
4.97098e-05
-6.68966e-06
2.64272e-05
4.18573e-05
-7.74981e-06
3.80165e-05
2.79462e-05
-8.65197e-06
5.60781e-05
-7.51763e-06
7.6025e-05
5.57276e-05
6.63869e-06
-3.20934e-07
5.20862e-05
3.43002e-06
-4.99253e-07
4.98583e-05
1.96439e-06
-6.10692e-07
4.8351e-05
1.18174e-06
-7.42056e-07
4.70289e-05
9.08901e-07
-9.27551e-07
4.56435e-05
8.53672e-07
-1.17732e-06
4.40353e-05
9.20477e-07
-1.50365e-06
4.2073e-05
1.07189e-06
-1.92091e-06
3.96258e-05
1.29625e-06
-2.44523e-06
3.65511e-05
1.59152e-06
-3.09208e-06
3.26898e-05
1.95954e-06
-3.87259e-06
2.7894e-05
2.38144e-06
-4.7755e-06
2.1974e-05
2.8847e-06
-5.79692e-06
1.50037e-05
3.28755e-06
-6.76227e-06
6.84172e-06
3.78924e-06
-7.679e-06
2.98313e-06
-6.60076e-06
6.41087e-05
4.85909e-06
-4.07239e-07
6.35089e-05
3.76001e-06
-6.32977e-07
6.24284e-05
2.70999e-06
-7.7354e-07
6.11511e-05
2.04751e-06
-9.35847e-07
5.97359e-05
1.80503e-06
-1.1639e-06
5.8106e-05
1.81902e-06
-1.47155e-06
5.61478e-05
2.02192e-06
-1.87431e-06
5.37273e-05
2.38571e-06
-2.39032e-06
5.06897e-05
2.90519e-06
-3.04003e-06
4.68558e-05
3.58557e-06
-3.84328e-06
4.20225e-05
4.43419e-06
-4.81476e-06
3.59769e-05
5.43094e-06
-5.94266e-06
2.85057e-05
6.58703e-06
-7.2197e-06
1.95564e-05
7.6542e-06
-8.44112e-06
9.16905e-06
8.7355e-06
-9.58596e-06
7.34929e-06
-8.23655e-06
6.36835e-05
3.5057e-06
-4.04778e-07
6.35758e-05
3.59948e-06
-6.29726e-07
6.29245e-05
3.02853e-06
-7.69072e-07
6.19498e-05
2.61385e-06
-9.29359e-07
6.07381e-05
2.50225e-06
-1.15448e-06
5.9253e-05
2.64594e-06
-1.45793e-06
5.74099e-05
3.01762e-06
-1.85487e-06
5.50904e-05
3.61157e-06
-2.36303e-06
5.2145e-05
4.43997e-06
-3.00247e-06
4.83898e-05
5.52558e-06
-3.79272e-06
4.3604e-05
6.89393e-06
-4.74848e-06
3.75433e-05
8.53746e-06
-5.85836e-06
2.99386e-05
1.04751e-05
-7.11602e-06
2.06821e-05
1.23891e-05
-8.32012e-06
9.72439e-06
1.43218e-05
-9.44882e-06
1.23342e-05
-8.11278e-06
6.30386e-05
2.80322e-06
-3.91689e-07
6.3043e-05
3.33571e-06
-6.10126e-07
6.2634e-05
3.11572e-06
-7.4487e-07
6.19036e-05
2.94948e-06
-8.99376e-07
6.08991e-05
3.00966e-06
-1.11605e-06
5.95972e-05
3.31277e-06
-1.40753e-06
5.79305e-05
3.86771e-06
-1.78804e-06
5.57943e-05
4.69553e-06
-2.27419e-06
5.3046e-05
5.83311e-06
-2.88477e-06
4.94995e-05
7.33081e-06
-3.63805e-06
4.49168e-05
9.24809e-06
-4.54789e-06
3.90136e-05
1.16131e-05
-5.60331e-06
3.14429e-05
1.44906e-05
-6.79847e-06
2.19919e-05
1.75141e-05
-7.94304e-06
1.04478e-05
2.07262e-05
-9.01409e-06
1.82443e-05
-7.73942e-06
6.27729e-05
2.37469e-06
-3.73452e-07
6.27898e-05
3.0716e-06
-5.82988e-07
6.25086e-05
3.09025e-06
-7.11551e-07
6.19579e-05
3.12412e-06
-8.58223e-07
6.11465e-05
3.3481e-06
-1.0633e-06
6.00476e-05
3.8085e-06
-1.33832e-06
5.86012e-05
4.54e-06
-1.69617e-06
5.67135e-05
5.58832e-06
-2.1518e-06
5.42504e-05
7.01825e-06
-2.72212e-06
5.10271e-05
8.91634e-06
-3.42348e-06
4.67915e-05
1.13927e-05
-4.26816e-06
4.12117e-05
1.45452e-05
-5.24561e-06
3.38414e-05
1.85379e-05
-6.34965e-06
2.42479e-05
2.30663e-05
-7.4072e-06
1.18796e-05
2.82971e-05
-8.39064e-06
2.58845e-05
-7.20465e-06
6.26719e-05
2.05689e-06
-3.51927e-07
6.27111e-05
2.79982e-06
-5.50849e-07
6.25365e-05
2.97596e-06
-6.72065e-07
6.2144e-05
3.16272e-06
-8.09417e-07
6.15212e-05
3.52662e-06
-1.00065e-06
6.06398e-05
4.12454e-06
-1.25596e-06
5.94486e-05
5.00794e-06
-1.58653e-06
5.78673e-05
6.24356e-06
-2.00519e-06
5.57757e-05
7.92512e-06
-2.52634e-06
5.29968e-05
1.01835e-05
-3.16357e-06
4.92678e-05
1.32e-05
-3.92657e-06
4.41927e-05
1.71966e-05
-4.80464e-06
3.71914e-05
2.25091e-05
-5.78952e-06
2.74731e-05
2.91058e-05
-6.73095e-06
1.40239e-05
3.73911e-05
-7.59149e-06
3.6053e-05
-6.51642e-06
6.26603e-05
1.76158e-06
-3.27821e-07
6.27509e-05
2.49286e-06
-5.1487e-07
6.26844e-05
2.77363e-06
-6.27874e-07
6.24436e-05
3.07446e-06
-7.54768e-07
6.20099e-05
3.54818e-06
-9.30416e-07
6.13598e-05
4.25195e-06
-1.16347e-06
6.04559e-05
5.24599e-06
-1.46314e-06
5.92407e-05
6.61074e-06
-1.8397e-06
5.76269e-05
8.46065e-06
-2.30437e-06
5.54825e-05
1.09614e-05
-2.86709e-06
5.26049e-05
1.43539e-05
-3.53356e-06
4.86403e-05
1.90045e-05
-4.29141e-06
4.30081e-05
2.54705e-05
-5.12652e-06
3.43692e-05
3.45268e-05
-5.91395e-06
2.04143e-05
4.75803e-05
-6.59599e-06
5.3143e-05
-5.63992e-06
6.26981e-05
-3.02189e-07
1.43997e-06
6.28694e-05
-4.76608e-07
2.12255e-06
6.29201e-05
-5.80886e-07
2.47549e-06
6.283e-05
-6.96651e-07
2.86192e-06
6.25846e-05
-8.55697e-07
3.41564e-06
6.21708e-05
-1.06502e-06
4.18844e-06
6.1569e-05
-1.33164e-06
5.24324e-06
6.07471e-05
-1.66302e-06
6.66806e-06
5.96513e-05
-2.06684e-06
8.59228e-06
5.81889e-05
-2.54888e-06
1.12135e-05
5.61946e-05
-3.11015e-06
1.48379e-05
5.33104e-05
-3.73632e-06
2.00202e-05
4.89273e-05
-4.40611e-06
2.757e-05
4.12444e-05
-5.02477e-06
3.94847e-05
2.76685e-05
-5.5114e-06
5.80156e-05
-4.72293e-06