/*--------------------------------*- C++ -*----------------------------------*\
| =========                 |                                                 |
| \\      /  F ield         | OpenFOAM: The Open Source CFD Toolbox           |
|  \\    /   O peration     | Version:  v1912                                 |
|   \\  /    A nd           | Website:  www.openfoam.com                      |
|    \\/     M anipulation  |                                                 |
\*---------------------------------------------------------------------------*/
FoamFile
{
    version     2.0;
    format      ascii;
    class       volVectorField;
    location    "0.09/fluid";
    object      U;
}
// * * * * * * * * * * * * * * * * * * * * * * * * * * * * * * * * * * * * * //

dimensions      [0 1 -1 0 0 0 0];


internalField   nonuniform List<vector> 
14592
(
(0.092128 0.00983111 -0.000756431)
(0.0866883 0.00439831 -0.00132718)
(0.0826514 0.00216398 -0.00179863)
(0.0806479 0.00104345 -0.00237225)
(0.0794056 0.000648138 -0.00315901)
(0.0783021 0.000512611 -0.00419897)
(0.0772238 0.000492486 -0.00555859)
(0.0760089 0.000531121 -0.00733772)
(0.0745648 0.000606294 -0.00968568)
(0.0727977 0.000706431 -0.0128286)
(0.0704581 0.000824995 -0.0171142)
(0.0677148 0.00091968 -0.0231393)
(0.0625646 0.00103292 -0.0318534)
(0.0578305 0.000845225 -0.045142)
(0.0419257 0.000828465 -0.0661502)
(0.0264316 -0.000712538 -0.0833314)
(0.103217 0.00850523 -0.00101709)
(0.10312 0.00520427 -0.00174529)
(0.102779 0.00324644 -0.00232815)
(0.101594 0.00209527 -0.00302846)
(0.100591 0.00162711 -0.00398733)
(0.0994296 0.00148717 -0.00525935)
(0.0981781 0.00153924 -0.00692677)
(0.0967119 0.00172115 -0.00911253)
(0.094939 0.00200543 -0.0120001)
(0.0927494 0.00237744 -0.0158669)
(0.0898424 0.00282596 -0.0211394)
(0.0863693 0.00330522 -0.0285452)
(0.0799896 0.00382621 -0.0392388)
(0.0737846 0.00409114 -0.0555088)
(0.0539243 0.00438407 -0.0809705)
(0.0342936 0.00277869 -0.101746)
(0.102318 0.00539546 -0.00100552)
(0.102718 0.00502169 -0.00172909)
(0.10329 0.00390009 -0.00230724)
(0.102626 0.00305502 -0.00300054)
(0.102007 0.00266896 -0.00394863)
(0.101086 0.00260616 -0.00520474)
(0.100004 0.00278761 -0.00684934)
(0.0986685 0.00316884 -0.00900339)
(0.0970037 0.00372919 -0.0118482)
(0.0949034 0.00445906 -0.0156597)
(0.0920509 0.00534956 -0.0208636)
(0.0885902 0.00636208 -0.0281948)
(0.0820812 0.00747328 -0.03881)
(0.0756511 0.00843916 -0.0550686)
(0.055147 0.00925928 -0.0805598)
(0.0347157 0.00764593 -0.101733)
(0.101306 0.00415449 -0.000957212)
(0.101649 0.00457683 -0.00165703)
(0.102561 0.00396168 -0.00221818)
(0.10227 0.00345365 -0.00288985)
(0.10197 0.00325864 -0.00380576)
(0.101296 0.00334877 -0.00501565)
(0.100421 0.0036927 -0.0065955)
(0.0992725 0.00427413 -0.00866027)
(0.0977882 0.00509198 -0.0113835)
(0.0958655 0.00615426 -0.0150311)
(0.0931746 0.00747017 -0.0200164)
(0.0898467 0.00902386 -0.0270656)
(0.0833528 0.0107972 -0.0373086)
(0.0768254 0.0125696 -0.0531629)
(0.0558621 0.0141968 -0.0780948)
(0.0347791 0.0123514 -0.0994188)
(0.100902 0.00332868 -0.000890588)
(0.101146 0.00411151 -0.00155755)
(0.102145 0.00390401 -0.00209553)
(0.102073 0.0036981 -0.00273754)
(0.102015 0.00371199 -0.00360905)
(0.101575 0.00397864 -0.0047549)
(0.100929 0.00450516 -0.00624446)
(0.100015 0.00530309 -0.00818361)
(0.0987769 0.00639531 -0.0107334)
(0.0971183 0.00781508 -0.014143)
(0.0947005 0.00960102 -0.0188027)
(0.0916402 0.0117752 -0.0254163)
(0.0853228 0.014339 -0.0350568)
(0.0788409 0.0171043 -0.050201)
(0.0573724 0.0197754 -0.0740785)
(0.0354102 0.0175833 -0.0954628)
(0.100732 0.00279617 -0.00081171)
(0.100927 0.00367298 -0.00143962)
(0.10198 0.00371434 -0.00195014)
(0.102073 0.00373414 -0.00255678)
(0.102221 0.0039346 -0.00337507)
(0.102006 0.00436804 -0.00444371)
(0.101603 0.0050642 -0.00582349)
(0.100958 0.00605777 -0.00760809)
(0.100026 0.00739851 -0.0099411)
(0.0987197 0.00915703 -0.0130472)
(0.0966977 0.0114297 -0.0172814)
(0.0940543 0.0143458 -0.023309)
(0.0880851 0.018045 -0.0321178)
(0.0817724 0.0226672 -0.0462557)
(0.0596931 0.0280063 -0.0686022)
(0.0365804 0.0273229 -0.0901344)
(0.100674 0.00234766 -0.000723303)
(0.100876 0.0032262 -0.00130745)
(0.102001 0.00343671 -0.00178716)
(0.10224 0.00362946 -0.00235396)
(0.102575 0.00398656 -0.00311204)
(0.102579 0.00456336 -0.00409284)
(0.102432 0.00540215 -0.00534664)
(0.10209 0.00655413 -0.00695146)
(0.101532 0.00809054 -0.00902686)
(0.100701 0.0101127 -0.0117598)
(0.0993091 0.0127599 -0.015443)
(0.0975068 0.0162508 -0.0206464)
(0.0927003 0.0207792 -0.0281564)
(0.0878337 0.0268139 -0.0404062)
(0.066571 0.0340018 -0.059515)
(0.0430241 0.0338865 -0.0800657)
(0.100672 0.00190585 -0.000629176)
(0.100928 0.00273105 -0.00116677)
(0.102156 0.0030563 -0.00161368)
(0.102535 0.00338102 -0.00213799)
(0.103048 0.00386233 -0.00283171)
(0.103264 0.00454967 -0.00371833)
(0.103373 0.00549083 -0.00483649)
(0.103348 0.0067489 -0.00624676)
(0.103189 0.00841624 -0.00804201)
(0.102869 0.0106366 -0.0103678)
(0.102151 0.013637 -0.013453)
(0.101171 0.0178884 -0.0177701)
(0.0974669 0.0240007 -0.0239293)
(0.0937819 0.0343155 -0.0342731)
(0.0732227 0.0502864 -0.050251)
(0.0515991 0.0707911 -0.0707487)
(0.0920683 0.00983721 -0.000875409)
(0.0864873 0.00441035 -0.00145348)
(0.0822562 0.00217691 -0.00188615)
(0.0800705 0.00105917 -0.00241048)
(0.0786145 0.000668329 -0.00314108)
(0.077256 0.000539239 -0.00411849)
(0.0758536 0.000528135 -0.00540415)
(0.0742146 0.000579266 -0.00708608)
(0.0722079 0.00067185 -0.00928872)
(0.0696934 0.000796905 -0.0121839)
(0.0663745 0.000953067 -0.0160044)
(0.0623777 0.00110826 -0.0210394)
(0.0558328 0.00132787 -0.0277015)
(0.0493217 0.00134283 -0.0359829)
(0.0333365 0.00165272 -0.0464698)
(0.0165811 0.000711851 -0.0445692)
(0.103144 0.00852779 -0.00114612)
(0.102877 0.00523996 -0.00188208)
(0.102301 0.00328888 -0.00242048)
(0.10089 0.00214757 -0.00306317)
(0.0996226 0.00169442 -0.00395584)
(0.0981446 0.00157598 -0.00515353)
(0.0964909 0.00165801 -0.00673268)
(0.0944984 0.00188094 -0.00880233)
(0.092026 0.00222087 -0.0115166)
(0.0889042 0.00266791 -0.015089)
(0.0847674 0.00321783 -0.0198097)
(0.0797073 0.00383346 -0.0260437)
(0.0715142 0.00454633 -0.0343023)
(0.0630218 0.00507132 -0.0446338)
(0.0428418 0.0057231 -0.057632)
(0.0216618 0.0043796 -0.0553883)
(0.102246 0.00543838 -0.00113596)
(0.102478 0.00508641 -0.00186786)
(0.102818 0.00397889 -0.00240153)
(0.101931 0.00315237 -0.00303722)
(0.101052 0.00279427 -0.00391924)
(0.0998201 0.00277162 -0.00510138)
(0.0983438 0.00300917 -0.00665838)
(0.0964921 0.00346742 -0.00869734)
(0.0941402 0.00413215 -0.0113703)
(0.0911225 0.00500172 -0.014889)
(0.0870553 0.006077 -0.0195424)
(0.0820245 0.00732581 -0.0256991)
(0.0737053 0.00874349 -0.0338706)
(0.0649946 0.0100424 -0.0441395)
(0.0441311 0.011267 -0.057076)
(0.0220926 0.00945079 -0.0548946)
(0.101237 0.00421248 -0.00108921)
(0.101416 0.00466398 -0.0017982)
(0.102103 0.00406855 -0.00231538)
(0.101598 0.00358603 -0.00293015)
(0.10105 0.00342942 -0.00378108)
(0.100079 0.00357488 -0.00491861)
(0.0988292 0.00399658 -0.0064132)
(0.09719 0.00468562 -0.00836637)
(0.0950515 0.00565074 -0.010923)
(0.0922536 0.00691235 -0.014286)
(0.0883985 0.00849507 -0.0187344)
(0.0835633 0.0103934 -0.0246312)
(0.075307 0.0126181 -0.032471)
(0.0665628 0.0148734 -0.042392)
(0.0451896 0.0170944 -0.0549087)
(0.0224185 0.0148476 -0.0529386)
(0.100836 0.00340109 -0.00102469)
(0.100923 0.00422001 -0.00170193)
(0.101708 0.00403741 -0.00219671)
(0.101434 0.00386368 -0.00278282)
(0.101143 0.00392606 -0.00359089)
(0.100427 0.00426289 -0.00466668)
(0.0994333 0.00488869 -0.00607443)
(0.0980639 0.00582526 -0.00790727)
(0.09622 0.00710941 -0.010299)
(0.0937495 0.00879262 -0.0134383)
(0.0902456 0.0109369 -0.0175862)
(0.0857792 0.0135817 -0.0230931)
(0.0777821 0.0167712 -0.0304193)
(0.0691994 0.0202097 -0.0397816)
(0.0472368 0.0237262 -0.0515908)
(0.0234571 0.0209256 -0.0499281)
(0.100668 0.00287934 -0.000948346)
(0.100715 0.00379751 -0.00158784)
(0.101567 0.00386767 -0.00205608)
(0.101473 0.00392474 -0.00260804)
(0.101406 0.00418153 -0.00336477)
(0.10094 0.00469689 -0.0043662)
(0.100224 0.00550983 -0.00566858)
(0.0991698 0.00666828 -0.00735391)
(0.0976948 0.00824093 -0.00954062)
(0.095661 0.010325 -0.0123971)
(0.0926595 0.0130542 -0.0161577)
(0.0887488 0.0165972 -0.021151)
(0.0812109 0.0211773 -0.0277867)
(0.0729552 0.0268405 -0.0363888)
(0.0502573 0.0336127 -0.0472127)
(0.0251461 0.0323175 -0.0460101)
(0.100614 0.00243839 -0.000862816)
(0.100677 0.00336191 -0.00146002)
(0.101615 0.00360394 -0.00189849)
(0.101683 0.00383754 -0.002412)
(0.101826 0.00425648 -0.00311068)
(0.101608 0.00492355 -0.00402764)
(0.101186 0.00589174 -0.0052094)
(0.100492 0.0072278 -0.00672391)
(0.0994707 0.00902564 -0.00866899)
(0.0980276 0.0114192 -0.0111829)
(0.0958188 0.0145938 -0.0144549)
(0.0929903 0.0188202 -0.0187584)
(0.0868898 0.0243919 -0.0243872)
(0.0805201 0.03168 -0.0317151)
(0.0586406 0.0406293 -0.0406815)
(0.0329671 0.0396415 -0.0396906)
(0.100615 0.00200027 -0.000771794)
(0.100743 0.0028722 -0.001324)
(0.101799 0.00323025 -0.00173081)
(0.102025 0.00359748 -0.00220332)
(0.102368 0.00414323 -0.00283999)
(0.102394 0.00492488 -0.00366647)
(0.102272 0.00600186 -0.00471857)
(0.101956 0.00745474 -0.00604864)
(0.101421 0.00940257 -0.00773182)
(0.10061 0.0120305 -0.00987382)
(0.0992373 0.0156295 -0.0126176)
(0.0974526 0.0207682 -0.0161848)
(0.0926625 0.0282328 -0.0207694)
(0.087813 0.0404565 -0.0268428)
(0.0665652 0.0595637 -0.0340466)
(0.0430278 0.0801282 -0.0339285)
(0.0920174 0.009843 -0.000902351)
(0.0863101 0.00442166 -0.0014551)
(0.0819026 0.00218913 -0.00184188)
(0.0795464 0.00107404 -0.00230733)
(0.0778886 0.000687408 -0.0029614)
(0.0762901 0.000564341 -0.00384176)
(0.0745853 0.0005616 -0.00500194)
(0.072555 0.000624022 -0.00651581)
(0.0700319 0.000731555 -0.0084843)
(0.0668257 0.000875849 -0.0110411)
(0.0625817 0.00105542 -0.0143616)
(0.0573099 0.00123781 -0.018632)
(0.0492331 0.00148079 -0.0241644)
(0.0406291 0.00152047 -0.0307152)
(0.024367 0.00179568 -0.0387541)
(0.00894616 0.000871415 -0.0367408)
(0.103081 0.00854918 -0.00116484)
(0.102662 0.00527369 -0.00186742)
(0.101872 0.00332906 -0.00235092)
(0.100249 0.00219707 -0.00292317)
(0.0987323 0.00175807 -0.00372393)
(0.0969563 0.00165985 -0.00480435)
(0.0949275 0.00176995 -0.00623121)
(0.0924494 0.00203104 -0.00809625)
(0.0893368 0.00242195 -0.0105247)
(0.0853582 0.00293582 -0.0136827)
(0.0800767 0.003571 -0.0177876)
(0.0734491 0.0042912 -0.0230741)
(0.0633668 0.00512574 -0.0299162)
(0.052348 0.00577569 -0.0380559)
(0.0317839 0.00652489 -0.0479347)
(0.0122218 0.00509898 -0.0453861)
(0.102185 0.00547906 -0.00115613)
(0.102266 0.00514769 -0.00185524)
(0.102394 0.0040535 -0.00233429)
(0.101299 0.00324449 -0.00289996)
(0.100175 0.00291275 -0.00369082)
(0.09865 0.00292788 -0.00475689)
(0.0968057 0.00321809 -0.00616345)
(0.0944776 0.00374831 -0.00800057)
(0.0914963 0.00450994 -0.0103917)
(0.0876338 0.0055079 -0.0135015)
(0.0824325 0.00675022 -0.017547)
(0.0758414 0.00820801 -0.0227655)
(0.0656223 0.00988546 -0.0295336)
(0.0543655 0.0114523 -0.0376189)
(0.0330574 0.0129756 -0.0474523)
(0.0125938 0.0109491 -0.044972)
(0.101177 0.00426742 -0.00111287)
(0.101211 0.0047465 -0.00179083)
(0.101694 0.0041697 -0.00225464)
(0.100988 0.00371126 -0.00280103)
(0.100205 0.00359083 -0.00356329)
(0.0989559 0.00378833 -0.00458843)
(0.0973554 0.00428298 -0.00593794)
(0.095263 0.00507255 -0.00769702)
(0.092525 0.00617456 -0.00998306)
(0.08892 0.00762027 -0.0129536)
(0.0839746 0.00944752 -0.0168178)
(0.0776312 0.0116595 -0.0218102)
(0.0675099 0.0142901 -0.0282973)
(0.0562584 0.0169799 -0.0360956)
(0.0343666 0.0197271 -0.045605)
(0.0130513 0.0171896 -0.0433364)
(0.100778 0.00346967 -0.00105315)
(0.100727 0.00432273 -0.00170176)
(0.101317 0.00416364 -0.0021449)
(0.100854 0.00402026 -0.00266491)
(0.100343 0.0041283 -0.00338778)
(0.0993674 0.00453107 -0.00435634)
(0.0980487 0.00524987 -0.00562659)
(0.0962593 0.00631576 -0.00727646)
(0.0938599 0.00777811 -0.00941397)
(0.0906398 0.00970482 -0.012185)
(0.0861161 0.0121793 -0.0157852)
(0.0802316 0.0152584 -0.0204405)
(0.0704425 0.0190284 -0.0264949)
(0.0594452 0.0231102 -0.0338359)
(0.036861 0.0274467 -0.0427979)
(0.0143357 0.0242772 -0.0408262)
(0.100614 0.00295808 -0.000982496)
(0.100529 0.00391535 -0.00159622)
(0.101199 0.0040127 -0.00201488)
(0.10093 0.00410492 -0.00250347)
(0.100661 0.00441471 -0.0031792)
(0.0999582 0.00500695 -0.00407971)
(0.0989476 0.00592909 -0.00525398)
(0.0975163 0.00724102 -0.00677035)
(0.0955434 0.00902843 -0.00872395)
(0.0928377 0.0114124 -0.0112441)
(0.0889159 0.0145615 -0.0145052)
(0.08372 0.0186817 -0.018718)
(0.0745067 0.0240795 -0.0241886)
(0.0639946 0.0307316 -0.0308991)
(0.0405464 0.0388785 -0.0390769)
(0.016396 0.0373102 -0.037502)
(0.100563 0.00252425 -0.000903371)
(0.100504 0.00349031 -0.001478)
(0.101273 0.00376208 -0.00186923)
(0.101181 0.00403416 -0.00232246)
(0.101141 0.00451127 -0.00294494)
(0.100714 0.00526299 -0.00376826)
(0.100035 0.00635204 -0.00483292)
(0.099015 0.00785925 -0.00619529)
(0.0975685 0.00989915 -0.00793344)
(0.0955582 0.0126357 -0.0101527)
(0.0925767 0.0162997 -0.0129929)
(0.0886845 0.0212167 -0.0166268)
(0.0811633 0.027796 -0.0212777)
(0.0729265 0.0363591 -0.0269964)
(0.0502463 0.047167 -0.0337953)
(0.0251436 0.0459671 -0.0324921)
(0.100568 0.0020896 -0.000819187)
(0.100583 0.00300571 -0.00135224)
(0.101485 0.0033947 -0.00171429)
(0.101567 0.00380197 -0.00212984)
(0.10175 0.00440829 -0.00269548)
(0.101594 0.00527829 -0.00343619)
(0.101256 0.00648195 -0.00438315)
(0.10067 0.00811554 -0.00557942)
(0.0997897 0.0103222 -0.0070841)
(0.0985276 0.013325 -0.00897587)
(0.0965444 0.0174772 -0.0113571)
(0.0939372 0.0234431 -0.0143614)
(0.0880013 0.0322109 -0.0181283)
(0.0817248 0.0463293 -0.022803)
(0.0596779 0.0686863 -0.0281652)
(0.0365839 0.0902449 -0.0274756)
(0.0919745 0.00984822 -0.000850063)
(0.0861579 0.00443181 -0.00134729)
(0.0815962 0.00220015 -0.0016792)
(0.0790886 0.00108745 -0.0020755)
(0.0772517 0.000704586 -0.00263454)
(0.0754417 0.000586926 -0.00338844)
(0.073476 0.000591691 -0.00438022)
(0.0711183 0.000664333 -0.00566608)
(0.0681842 0.000785647 -0.00731786)
(0.0644676 0.000948622 -0.00942109)
(0.0596249 0.0011533 -0.0120709)
(0.0536637 0.00137208 -0.0153197)
(0.0450702 0.00166359 -0.0192662)
(0.0360061 0.00178825 -0.0234151)
(0.0207643 0.00214996 -0.0278775)
(0.00705825 0.00133949 -0.0246138)
(0.103028 0.00856849 -0.00108821)
(0.102477 0.0053041 -0.00171947)
(0.101499 0.0033653 -0.00213574)
(0.0996884 0.00224169 -0.00262409)
(0.0979498 0.00181536 -0.00330962)
(0.0959112 0.00173524 -0.0042361)
(0.0935579 0.00187039 -0.00545741)
(0.0906725 0.00216545 -0.00704372)
(0.0870475 0.00260167 -0.00908485)
(0.0824312 0.00317514 -0.0116883)
(0.0763968 0.00388724 -0.0149742)
(0.068901 0.0047054 -0.0190153)
(0.0581389 0.00566074 -0.0239285)
(0.0465317 0.00645636 -0.0291482)
(0.0271728 0.00735552 -0.034707)
(0.00972073 0.00592788 -0.03067)
(0.102133 0.0055158 -0.00108098)
(0.102083 0.00520299 -0.0017094)
(0.102026 0.0041208 -0.00212175)
(0.100746 0.00332752 -0.00260429)
(0.0994036 0.00301938 -0.00328115)
(0.0976211 0.00306827 -0.00419515)
(0.0954588 0.00340531 -0.0053989)
(0.0927312 0.0039992 -0.00696122)
(0.0892473 0.00484593 -0.00897046)
(0.0847581 0.00595565 -0.0115328)
(0.0788151 0.00734163 -0.0147681)
(0.0713665 0.0089772 -0.0187504)
(0.0604699 0.0108712 -0.023598)
(0.0486262 0.0126609 -0.0287604)
(0.0284954 0.0144223 -0.0342623)
(0.0101213 0.0122324 -0.0302615)
(0.101126 0.00431703 -0.001043)
(0.101034 0.00482098 -0.00165286)
(0.101339 0.00426094 -0.00205186)
(0.100455 0.00382411 -0.00251756)
(0.0994636 0.00373605 -0.00316952)
(0.0979684 0.00397996 -0.004048)
(0.0960654 0.00453933 -0.00520249)
(0.0935936 0.00541748 -0.00669787)
(0.090378 0.00663885 -0.00861772)
(0.0861772 0.00824283 -0.011063)
(0.0805247 0.0102759 -0.0141485)
(0.0733624 0.0127448 -0.0179472)
(0.0625857 0.0156935 -0.0225735)
(0.0507665 0.0187055 -0.0275163)
(0.0299874 0.0218102 -0.0327847)
(0.0106711 0.0190064 -0.0289711)
(0.10073 0.0035316 -0.000990513)
(0.100558 0.00441542 -0.00157462)
(0.100979 0.00427748 -0.00195554)
(0.100348 0.0041613 -0.00239823)
(0.0996416 0.00431016 -0.00301594)
(0.0984369 0.00477163 -0.0038454)
(0.0968373 0.00557273 -0.00493159)
(0.0946969 0.00675208 -0.00633359)
(0.0918564 0.00836882 -0.00812778)
(0.088086 0.0105026 -0.0104068)
(0.0829078 0.0132505 -0.0132766)
(0.0762653 0.0166757 -0.0168072)
(0.0658582 0.0208834 -0.0211024)
(0.0543313 0.0254117 -0.0257124)
(0.0327609 0.0302624 -0.0306115)
(0.0120844 0.0267278 -0.0270744)
(0.100568 0.00302916 -0.000928444)
(0.100371 0.00402168 -0.00148193)
(0.100881 0.00414347 -0.00184145)
(0.100457 0.00426715 -0.00225676)
(0.100008 0.00462427 -0.0028335)
(0.0990962 0.00528484 -0.0036041)
(0.0978318 0.00630335 -0.00460779)
(0.0960851 0.0077493 -0.00589606)
(0.0937181 0.00972129 -0.00753553)
(0.0905226 0.0123571 -0.00960706)
(0.0860177 0.0158463 -0.012203)
(0.0801498 0.0204107 -0.0153872)
(0.0703742 0.0263943 -0.0192445)
(0.0593947 0.0336798 -0.0234088)
(0.0368311 0.0426154 -0.0277945)
(0.0143156 0.0406518 -0.0246253)
(0.10052 0.00260173 -0.000858943)
(0.100356 0.00360614 -0.00137812)
(0.100979 0.00390463 -0.00171367)
(0.100745 0.00421115 -0.00209819)
(0.100543 0.00474014 -0.00262872)
(0.0999297 0.00556698 -0.00333267)
(0.0990288 0.00676243 -0.00424241)
(0.097736 0.00841854 -0.00540009)
(0.0959532 0.0106652 -0.0068597)
(0.0935313 0.0136869 -0.00868556)
(0.0900668 0.0177409 -0.0109484)
(0.0856362 0.023175 -0.0136944)
(0.0776707 0.0304492 -0.0169656)
(0.0691265 0.0397773 -0.0204792)
(0.0472024 0.0515775 -0.0240331)
(0.0234397 0.0499181 -0.0212291)
(0.100529 0.00217018 -0.000785016)
(0.100447 0.00312612 -0.00126771)
(0.101215 0.0035429 -0.00157776)
(0.101169 0.00398599 -0.0019295)
(0.101209 0.0046463 -0.00241073)
(0.100894 0.0055946 -0.00304343)
(0.100367 0.00690952 -0.00385245)
(0.0995549 0.00869965 -0.00486961)
(0.0984019 0.0111257 -0.00613485)
(0.0968134 0.0144356 -0.00769423)
(0.0944544 0.0190179 -0.00959516)
(0.0914482 0.0255762 -0.0118666)
(0.085179 0.0351846 -0.0145082)
(0.0787536 0.0503231 -0.0173462)
(0.0573373 0.0742354 -0.0200519)
(0.0354035 0.0956698 -0.0178639)
(0.0919396 0.00985265 -0.000731568)
(0.0860327 0.00444043 -0.00114709)
(0.0813431 0.0022095 -0.00141532)
(0.078709 0.00109885 -0.00173324)
(0.0767225 0.000719159 -0.00218233)
(0.0747379 0.000606045 -0.00278787)
(0.0725601 0.000617096 -0.00358214)
(0.069943 0.00069821 -0.00460531)
(0.0666932 0.000830782 -0.00590592)
(0.0625998 0.00100851 -0.00753714)
(0.0573371 0.00123181 -0.00955068)
(0.0509139 0.00147496 -0.0119538)
(0.0420188 0.00179226 -0.0147838)
(0.0327125 0.00195554 -0.0176281)
(0.0182644 0.00233308 -0.0205481)
(0.00580987 0.00154154 -0.0179796)
(0.102984 0.00858494 -0.00093168)
(0.102324 0.00532999 -0.00145874)
(0.101191 0.00339612 -0.00179595)
(0.0992226 0.00227961 -0.00218839)
(0.0972987 0.00186399 -0.0027398)
(0.0950429 0.00179908 -0.00348479)
(0.0924257 0.00195522 -0.00446395)
(0.0892167 0.00227851 -0.00572766)
(0.0851972 0.00275205 -0.00733695)
(0.0801087 0.00337384 -0.00935908)
(0.0735449 0.00414669 -0.01186)
(0.0654682 0.00503923 -0.0148541)
(0.0543107 0.00607946 -0.0183814)
(0.0424043 0.00696707 -0.0219625)
(0.0240084 0.00794173 -0.0255928)
(0.00810597 0.00646337 -0.0223849)
(0.10209 0.00554711 -0.000925976)
(0.101933 0.00525009 -0.00145083)
(0.101722 0.00417807 -0.00178487)
(0.100287 0.00339809 -0.00217254)
(0.0987621 0.00310986 -0.00271688)
(0.0967664 0.00318711 -0.00345175)
(0.0943453 0.00356332 -0.00441678)
(0.0913006 0.00421008 -0.0056613)
(0.0874299 0.00512683 -0.00724528)
(0.0824769 0.00632736 -0.00923512)
(0.0760126 0.00782806 -0.0116967)
(0.0679896 0.00960252 -0.0146456)
(0.0566965 0.0116599 -0.0181238)
(0.0445499 0.0136111 -0.0216625)
(0.0253582 0.0155328 -0.0252534)
(0.00851882 0.0131979 -0.0220791)
(0.101085 0.00435929 -0.000894793)
(0.100889 0.00488441 -0.00140441)
(0.101045 0.00433858 -0.00172751)
(0.100013 0.00392 -0.00210143)
(0.0988469 0.00385922 -0.00262553)
(0.0971485 0.00414208 -0.00333162)
(0.0949993 0.00475547 -0.00425692)
(0.0922264 0.00570698 -0.00544781)
(0.088644 0.00702625 -0.00696081)
(0.084003 0.00875834 -0.00885873)
(0.0778547 0.0109553 -0.0112044)
(0.0701445 0.0136246 -0.0140136)
(0.0589833 0.016815 -0.0173275)
(0.0468681 0.0200653 -0.0207071)
(0.0269747 0.0234223 -0.0241368)
(0.00912706 0.0204036 -0.0211137)
(0.100691 0.00358434 -0.000851667)
(0.100419 0.00449435 -0.00134014)
(0.1007 0.00437432 -0.00164847)
(0.0999288 0.0042811 -0.00200365)
(0.0990587 0.00446433 -0.00249991)
(0.0976645 0.00497499 -0.00316633)
(0.0958365 0.00584463 -0.00403665)
(0.0934178 0.00711767 -0.00515294)
(0.0902388 0.00886047 -0.00656651)
(0.0860631 0.0111611 -0.00833448)
(0.0804275 0.0141252 -0.0105142)
(0.0732795 0.017819 -0.013121)
(0.0625104 0.0223582 -0.0161913)
(0.0507063 0.0272188 -0.019332)
(0.0299425 0.0324386 -0.0225084)
(0.0106271 0.0286242 -0.019704)
(0.100531 0.00308969 -0.000800675)
(0.10024 0.00411221 -0.00126401)
(0.100619 0.00425469 -0.00155485)
(0.100065 0.00440493 -0.00188773)
(0.0994653 0.00480184 -0.00235074)
(0.098381 0.00551957 -0.00296959)
(0.09691 0.00661814 -0.00377364)
(0.0949135 0.00817434 -0.00479934)
(0.0922447 0.0102963 -0.00609098)
(0.0886894 0.0131333 -0.00769763)
(0.0837796 0.0168889 -0.00966809)
(0.077467 0.0217932 -0.012015)
(0.0673658 0.0282135 -0.0147648)
(0.0561465 0.0359605 -0.0175857)
(0.0342893 0.0454512 -0.0204077)
(0.0129832 0.0431897 -0.0178836)
(0.100486 0.0026677 -0.000743588)
(0.100235 0.00370473 -0.00117877)
(0.100736 0.00402584 -0.00145003)
(0.100383 0.00436141 -0.00175786)
(0.100046 0.00493398 -0.00218339)
(0.0992794 0.00582357 -0.00274845)
(0.0981973 0.00710724 -0.00347723)
(0.0966884 0.00888549 -0.00439929)
(0.0946481 0.0112995 -0.00555001)
(0.0919246 0.0145479 -0.00696735)
(0.0881266 0.0189061 -0.00868663)
(0.083343 0.0247347 -0.0107115)
(0.0751268 0.0325277 -0.0130439)
(0.0664396 0.0424199 -0.0154171)
(0.0451193 0.0549363 -0.0176904)
(0.0223618 0.0529654 -0.0154548)
(0.100497 0.0022388 -0.000682874)
(0.100336 0.00322861 -0.00108811)
(0.100993 0.0036689 -0.00133855)
(0.100841 0.00414219 -0.00161972)
(0.100761 0.00484782 -0.00200531)
(0.100313 0.00586145 -0.00251294)
(0.0996323 0.00726844 -0.00316111)
(0.0986408 0.0091866 -0.00397183)
(0.0972791 0.0117893 -0.00497052)
(0.0954529 0.0153415 -0.00618274)
(0.0928389 0.0202554 -0.00762869)
(0.0895804 0.027258 -0.00930262)
(0.083142 0.0374817 -0.0111798)
(0.0766885 0.0533518 -0.0130733)
(0.0557887 0.0783593 -0.014762)
(0.0347317 0.0997778 -0.0129623)
(0.091913 0.00985605 -0.000560617)
(0.0859367 0.00444721 -0.000873292)
(0.0811485 0.00221683 -0.00107036)
(0.0784166 0.00110782 -0.00130261)
(0.0763149 0.000730598 -0.00163069)
(0.074197 0.000621024 -0.00207265)
(0.0718599 0.00063694 -0.00265058)
(0.0690521 0.000724585 -0.0033908)
(0.0655774 0.000865771 -0.0043233)
(0.0612271 0.00105475 -0.00547777)
(0.0556981 0.00129221 -0.00687728)
(0.0490119 0.00155411 -0.00850614)
(0.0400128 0.00189204 -0.0103615)
(0.0306927 0.00208716 -0.0121314)
(0.016877 0.00248474 -0.0138299)
(0.00526863 0.00170808 -0.0119031)
(0.102951 0.00859786 -0.000711694)
(0.102207 0.00535036 -0.00110802)
(0.100953 0.0034203 -0.00135623)
(0.0988635 0.00230936 -0.00164324)
(0.0967967 0.00190206 -0.00204647)
(0.094375 0.00184898 -0.00259069)
(0.0915591 0.00202134 -0.00330379)
(0.0881118 0.00236635 -0.0042189)
(0.0838105 0.00286837 -0.00537397)
(0.078399 0.00352675 -0.00680692)
(0.0714974 0.00434516 -0.00854787)
(0.063087 0.00529312 -0.0105813)
(0.0517831 0.00639619 -0.0128993)
(0.0398575 0.00735248 -0.0151369)
(0.0222353 0.0083854 -0.017257)
(0.00738441 0.00686961 -0.0148487)
(0.102058 0.00557173 -0.000707539)
(0.101817 0.00528712 -0.00110231)
(0.101488 0.00422303 -0.00134823)
(0.0999326 0.00345344 -0.0016317)
(0.0982676 0.00318071 -0.00202974)
(0.096109 0.00327995 -0.00256653)
(0.0934931 0.0036864 -0.00326932)
(0.090215 0.00437374 -0.00417051)
(0.0860681 0.00534379 -0.00530732)
(0.0807984 0.0066128 -0.00671712)
(0.0740023 0.00819895 -0.00843)
(0.0656509 0.0100756 -0.0104312)
(0.0542116 0.0122509 -0.0127142)
(0.0420446 0.0143174 -0.0149206)
(0.0236105 0.0163505 -0.0170111)
(0.00781159 0.0139076 -0.0146258)
(0.101054 0.0043925 -0.000684399)
(0.100777 0.00493427 -0.00106782)
(0.100819 0.00439955 -0.00130564)
(0.0996721 0.00399521 -0.00157894)
(0.0983716 0.00395565 -0.00196206)
(0.0965179 0.00426868 -0.00247772)
(0.0941836 0.0049237 -0.00315146)
(0.0911892 0.00593138 -0.00401366)
(0.0873452 0.00732494 -0.00509924)
(0.0824044 0.00915318 -0.00644328)
(0.0759421 0.0114714 -0.00807419)
(0.0679208 0.0142865 -0.00997784)
(0.0566202 0.0176486 -0.0121484)
(0.0444866 0.0210648 -0.0142472)
(0.0253115 0.0245905 -0.0162324)
(0.00845881 0.0214108 -0.0139561)
(0.100662 0.00362581 -0.000652324)
(0.100313 0.00455638 -0.00102005)
(0.100485 0.00445035 -0.00124695)
(0.0996058 0.00437503 -0.00150642)
(0.0986096 0.00458495 -0.00186907)
(0.0970706 0.00513367 -0.00235563)
(0.0950709 0.00605603 -0.00298925)
(0.0924475 0.0074006 -0.00379733)
(0.0890278 0.00923871 -0.00481137)
(0.0845768 0.0116638 -0.00606287)
(0.0786534 0.0147868 -0.00757721)
(0.0712216 0.0186742 -0.00934082)
(0.0603247 0.023446 -0.0113466)
(0.0485091 0.0285335 -0.0132874)
(0.0284058 0.0339949 -0.0151115)
(0.0100129 0.0299715 -0.0129929)
(0.100503 0.00313726 -0.000614426)
(0.100141 0.00418334 -0.000963475)
(0.100418 0.004342 -0.00117743)
(0.0997628 0.00451291 -0.00142046)
(0.0990476 0.00494071 -0.00175865)
(0.0978312 0.00570261 -0.00221037)
(0.0962049 0.00686264 -0.00279569)
(0.0940248 0.00850276 -0.00353821)
(0.0911416 0.0107375 -0.00446481)
(0.0873431 0.0137237 -0.00560193)
(0.082181 0.017673 -0.00697005)
(0.0756234 0.0228185 -0.00855516)
(0.0654139 0.0295387 -0.0103457)
(0.0541998 0.0375905 -0.0120767)
(0.0329302 0.0474307 -0.0136769)
(0.0124461 0.0449407 -0.0117578)
(0.10046 0.00271955 -0.000571997)
(0.100143 0.0037822 -0.000900134)
(0.10055 0.00412097 -0.00109962)
(0.100106 0.00447915 -0.00132418)
(0.0996638 0.00508553 -0.00163484)
(0.0987795 0.00602354 -0.00204721)
(0.097561 0.00737483 -0.00257779)
(0.0958932 0.00924582 -0.00324553)
(0.0936703 0.0117853 -0.00407154)
(0.0907436 0.015201 -0.00507543)
(0.0867401 0.0197789 -0.00627006)
(0.0817677 0.0258848 -0.00763782)
(0.0734825 0.0340298 -0.00915537)
(0.0648474 0.044288 -0.0106038)
(0.0440383 0.0572466 -0.0118723)
(0.0219726 0.0550332 -0.0101652)
(0.100473 0.00229271 -0.000526877)
(0.100251 0.00330912 -0.000832776)
(0.100823 0.00376778 -0.00101687)
(0.100589 0.00426456 -0.00122179)
(0.100417 0.00500532 -0.00150312)
(0.0998661 0.00606933 -0.0018735)
(0.0990698 0.00754677 -0.00234553)
(0.0979462 0.00956191 -0.00293305)
(0.0964366 0.0122966 -0.0036507)
(0.0944512 0.0160264 -0.00451043)
(0.0916833 0.0211773 -0.00551634)
(0.0882987 0.0284869 -0.00664705)
(0.0818344 0.0391179 -0.00786567)
(0.0754904 0.0554464 -0.00900935)
(0.0550339 0.0811085 -0.00992281)
(0.0345838 0.102483 -0.00852316)
(0.0918952 0.00985835 -0.000351523)
(0.0858716 0.0044519 -0.000546202)
(0.0810164 0.00222183 -0.000666031)
(0.0782179 0.00111399 -0.000807533)
(0.0760382 0.000738445 -0.00100711)
(0.0738306 0.000631288 -0.00127564)
(0.0713876 0.000650507 -0.00162596)
(0.0684553 0.000742568 -0.00207267)
(0.0648373 0.00088955 -0.00263175)
(0.0603288 0.00108603 -0.00331754)
(0.0546443 0.0013328 -0.00413876)
(0.0478161 0.00160677 -0.00507868)
(0.0387864 0.00195739 -0.00612881)
(0.0294997 0.00217097 -0.00710142)
(0.0160868 0.00257824 -0.00800467)
(0.00498615 0.00180491 -0.00685246)
(0.102929 0.00860677 -0.000446027)
(0.102127 0.00536441 -0.000691775)
(0.100792 0.00343691 -0.000843386)
(0.0986191 0.00232983 -0.0010181)
(0.0964555 0.0019282 -0.00126359)
(0.093922 0.00188319 -0.00159447)
(0.090974 0.00206657 -0.00202703)
(0.0873709 0.00242627 -0.00257972)
(0.0828896 0.00294745 -0.00327286)
(0.0772784 0.00363026 -0.004125)
(0.0701785 0.00447878 -0.00514788)
(0.0615869 0.00546287 -0.00632308)
(0.0502339 0.00660599 -0.00763726)
(0.038349 0.00760469 -0.00886973)
(0.0212235 0.00867164 -0.00999883)
(0.00700568 0.00712628 -0.0085551)
(0.102036 0.0055887 -0.000443108)
(0.101738 0.00531264 -0.000688224)
(0.101329 0.00425396 -0.000838706)
(0.0996917 0.00349151 -0.0010112)
(0.0979314 0.00322935 -0.00125356)
(0.0956632 0.00334359 -0.0015799)
(0.0929177 0.00377057 -0.00200621)
(0.089487 0.00448532 -0.0025505)
(0.0851638 0.00549117 -0.00323269)
(0.0796985 0.0068058 -0.00407099)
(0.072708 0.00844831 -0.00507722)
(0.0641784 0.0103915 -0.00623333)
(0.0526899 0.0126425 -0.00752717)
(0.0405625 0.0147817 -0.0087413)
(0.0226143 0.0168826 -0.00985363)
(0.00744124 0.0143664 -0.00842438)
(0.101033 0.00441538 -0.00042907)
(0.100701 0.00496861 -0.000666974)
(0.100665 0.0044415 -0.000812463)
(0.0994402 0.00404691 -0.00097867)
(0.0980485 0.00402183 -0.0012119)
(0.0960903 0.00435541 -0.00152534)
(0.0936329 0.00503866 -0.00193398)
(0.0904938 0.00608422 -0.00245465)
(0.086483 0.00752753 -0.00310595)
(0.0813574 0.00941963 -0.00390487)
(0.0747116 0.0118174 -0.00486244)
(0.0665226 0.0147271 -0.00596114)
(0.0551759 0.0181986 -0.00718972)
(0.0430816 0.0217187 -0.00834194)
(0.0243667 0.0253468 -0.00939534)
(0.0081116 0.0220603 -0.00803155)
(0.100642 0.00365438 -0.00040927)
(0.100241 0.0045991 -0.000637556)
(0.10034 0.00450267 -0.000776393)
(0.0993861 0.00443959 -0.000934149)
(0.0983044 0.00466771 -0.00115489)
(0.0966679 0.00524231 -0.00145061)
(0.094554 0.00620037 -0.00183489)
(0.091797 0.00759309 -0.00232287)
(0.088224 0.00949485 -0.00293122)
(0.0836037 0.0120023 -0.003675)
(0.0775131 0.0152291 -0.00456381)
(0.0699294 0.0192413 -0.00558078)
(0.0589919 0.0241604 -0.00671494)
(0.0472172 0.0293893 -0.00777777)
(0.027537 0.034997 -0.00874305)
(0.00969745 0.0308367 -0.007474)
(0.100485 0.00317003 -0.000385957)
(0.100073 0.00423232 -0.000602731)
(0.100282 0.00440207 -0.000733608)
(0.0995577 0.00458712 -0.000881298)
(0.0987637 0.00503598 -0.00108711)
(0.0974583 0.00582788 -0.0013616)
(0.0957288 0.00702945 -0.00171659)
(0.0934289 0.00872593 -0.00216501)
(0.0904093 0.0110358 -0.00272093)
(0.0864618 0.0141202 -0.00339665)
(0.0811542 0.0181951 -0.00419935)