/*--------------------------------*- C++ -*----------------------------------*\
| =========                 |                                                 |
| \\      /  F ield         | OpenFOAM: The Open Source CFD Toolbox           |
|  \\    /   O peration     | Version:  v1912                                 |
|   \\  /    A nd           | Website:  www.openfoam.com                      |
|    \\/     M anipulation  |                                                 |
\*---------------------------------------------------------------------------*/
FoamFile
{
    version     2.0;
    format      ascii;
    class       volVectorField;
    location    "1/fluid";
    object      cellMotionU;
}
// * * * * * * * * * * * * * * * * * * * * * * * * * * * * * * * * * * * * * //

dimensions      [0 1 -1 0 0 0 0];


internalField   nonuniform List<vector> 
14592
(
(9.87108e-11 -2.62129e-10 2.00498e-10)
(2.76208e-10 -7.32819e-10 5.67781e-10)
(4.42263e-10 -1.16994e-09 9.29799e-10)
(6.04318e-10 -1.58854e-09 1.31074e-09)
(7.7028e-10 -1.99901e-09 1.73336e-09)
(9.47797e-10 -2.40529e-09 2.21889e-09)
(1.14616e-09 -2.80402e-09 2.78864e-09)
(1.37784e-09 -3.18175e-09 3.46444e-09)
(1.66095e-09 -3.50934e-09 4.269e-09)
(2.02499e-09 -3.7324e-09 5.22696e-09)
(2.52259e-09 -3.75131e-09 6.36823e-09)
(3.25935e-09 -3.37635e-09 7.74282e-09)
(4.46971e-09 -2.20958e-09 9.47252e-09)
(6.719e-09 6.99232e-10 1.19135e-08)
(1.12568e-08 7.62501e-09 1.59777e-08)
(1.88228e-08 2.08963e-08 2.21652e-08)
(2.9313e-10 -7.78304e-10 5.95902e-10)
(8.20193e-10 -2.17612e-09 1.68742e-09)
(1.31254e-09 -3.47496e-09 2.76235e-09)
(1.79293e-09 -4.72069e-09 3.89334e-09)
(2.28266e-09 -5.94376e-09 5.14602e-09)
(2.80463e-09 -7.15814e-09 6.58359e-09)
(3.38543e-09 -8.35695e-09 8.26859e-09)
(4.05924e-09 -9.50483e-09 1.02642e-08)
(4.87454e-09 -1.05248e-08 1.26348e-08)
(5.90534e-09 -1.12749e-08 1.54456e-08)
(7.27343e-09 -1.15073e-08 1.87629e-08)
(9.19269e-09 -1.07997e-08 2.26631e-08)
(1.20538e-08 -8.4357e-09 2.72637e-08)
(1.65252e-08 -3.26389e-09 3.27736e-08)
(2.33752e-08 6.09011e-09 3.93874e-08)
(3.13057e-08 1.80383e-08 4.59103e-08)
(4.7919e-10 -1.27147e-09 9.75951e-10)
(1.3403e-09 -3.55603e-09 2.763e-09)
(2.14373e-09 -5.68214e-09 4.52182e-09)
(2.92463e-09 -7.72609e-09 6.36959e-09)
(3.71746e-09 -9.74161e-09 8.41356e-09)
(4.55769e-09 -1.17568e-08 1.0756e-08)
(5.48564e-09 -1.37692e-08 1.3498e-08)
(6.55158e-09 -1.57368e-08 1.67416e-08)
(7.82253e-09 -1.75608e-08 2.05898e-08)
(9.39297e-09 -1.90591e-08 2.51423e-08)
(1.14023e-08 -1.99263e-08 3.04892e-08)
(1.40615e-08 -1.96835e-08 3.67006e-08)
(1.77002e-08 -1.76439e-08 4.38289e-08)
(2.27689e-08 -1.30082e-08 5.19004e-08)
(2.9616e-08 -5.4724e-09 6.08458e-08)
(3.68804e-08 2.5174e-09 6.9401e-08)
(6.51817e-10 -1.72612e-09 1.3312e-09)
(1.82229e-09 -4.82968e-09 3.76773e-09)
(2.91169e-09 -7.7237e-09 6.16288e-09)
(3.96625e-09 -1.05163e-08 8.6749e-09)
(5.02998e-09 -1.32859e-08 1.14476e-08)
(6.1484e-09 -1.60806e-08 1.46186e-08)
(7.37167e-09 -1.89134e-08 1.83239e-08)
(8.75938e-09 -2.17532e-08 2.27007e-08)
(1.03862e-08 -2.45102e-08 2.78871e-08)
(1.23474e-08 -2.70122e-08 3.40156e-08)
(1.47647e-08 -2.89711e-08 4.11986e-08)
(1.77888e-08 -2.99499e-08 4.95034e-08)
(2.15971e-08 -2.93577e-08 5.89159e-08)
(2.63429e-08 -2.65704e-08 6.92781e-08)
(3.1976e-08 -2.14214e-08 8.01293e-08)
(3.72945e-08 -1.57201e-08 8.95776e-08)
(8.06774e-10 -2.12687e-09 1.65348e-09)
(2.2543e-09 -5.95405e-09 4.67834e-09)
(3.59732e-09 -9.53151e-09 7.64699e-09)
(4.88993e-09 -1.29982e-08 1.07526e-08)
(6.18387e-09 -1.64601e-08 1.41708e-08)
(7.53109e-09 -1.99896e-08 1.80688e-08)
(8.98749e-09 -2.36241e-08 2.26118e-08)
(1.06171e-08 -2.73603e-08 2.79673e-08)
(1.24955e-08 -3.11438e-08 3.4305e-08)
(1.47116e-08 -3.48523e-08 4.17903e-08)
(1.73636e-08 -3.82705e-08 5.05679e-08)
(2.05478e-08 -4.10578e-08 6.07303e-08)
(2.43261e-08 -4.27107e-08 7.22578e-08)
(2.86555e-08 -4.25459e-08 8.48994e-08)
(3.32545e-08 -3.9844e-08 9.78709e-08)
(3.71099e-08 -3.51163e-08 1.08532e-07)
(9.41141e-10 -2.45888e-09 1.93645e-09)
(2.62754e-09 -6.88724e-09 5.47637e-09)
(4.18618e-09 -1.10376e-08 8.94313e-09)
(5.67664e-09 -1.50787e-08 1.25584e-08)
(7.15462e-09 -1.91427e-08 1.65224e-08)
(8.67573e-09 -2.33295e-08 2.10251e-08)
(1.02983e-08 -2.77063e-08 2.62541e-08)
(1.2087e-08 -3.23076e-08 3.23994e-08)
(1.41161e-08 -3.71313e-08 3.96563e-08)
(1.64698e-08 -4.21316e-08 4.82211e-08)
(1.92372e-08 -4.72067e-08 5.82801e-08)
(2.25021e-08 -5.21735e-08 6.99852e-08)
(2.63231e-08 -5.67072e-08 8.34099e-08)
(3.06669e-08 -6.01755e-08 9.84044e-08)
(3.52884e-08 -6.13353e-08 1.14168e-07)
(3.91653e-08 -5.88336e-08 1.27339e-07)
(1.05275e-09 -2.70815e-09 2.17546e-09)
(2.93662e-09 -7.58998e-09 6.14897e-09)
(4.67011e-09 -1.21783e-08 1.00303e-08)
(6.31494e-09 -1.6667e-08 1.40617e-08)
(7.92865e-09 -2.12132e-08 1.84607e-08)
(9.56708e-09 -2.59419e-08 2.34318e-08)
(1.12877e-08 -3.09508e-08 2.91757e-08)
(1.31533e-08 -3.63133e-08 3.58954e-08)
(1.52348e-08 -4.20826e-08 4.38002e-08)
(1.76137e-08 -4.82952e-08 5.3107e-08)
(2.0381e-08 -5.49763e-08 6.40352e-08)
(2.36486e-08 -6.21496e-08 7.68136e-08)
(2.75498e-08 -6.98201e-08 9.16595e-08)
(3.22544e-08 -7.78777e-08 1.08718e-07)
(3.78806e-08 -8.56608e-08 1.27603e-07)
(4.33909e-08 -9.07139e-08 1.44522e-07)
(1.141e-09 -2.86257e-09 2.36818e-09)
(3.17963e-09 -8.02812e-09 6.68954e-09)
(5.04644e-09 -1.28972e-08 1.08979e-08)
(6.80286e-09 -1.76834e-08 1.52482e-08)
(8.50475e-09 -2.25626e-08 1.99665e-08)
(1.02056e-08 -2.76808e-08 2.52636e-08)
(1.19593e-08 -3.31604e-08 3.13429e-08)
(1.38229e-08 -3.91064e-08 3.84077e-08)
(1.58608e-08 -4.56144e-08 4.66655e-08)
(1.81468e-08 -5.27807e-08 5.63302e-08)
(2.0771e-08 -6.07218e-08 6.76272e-08)
(2.38523e-08 -6.96066e-08 8.08062e-08)
(2.75793e-08 -7.97193e-08 9.61779e-08)
(3.22852e-08 -9.15426e-08 1.14163e-07)
(3.84854e-08 -1.05657e-07 1.35067e-07)
(4.56073e-08 -1.20329e-07 1.55795e-07)
(1.00874e-10 -2.68522e-10 1.90414e-10)
(2.8225e-10 -7.5079e-10 5.39018e-10)
(4.51711e-10 -1.19902e-09 8.81795e-10)
(6.16966e-10 -1.62902e-09 1.2416e-09)
(7.85448e-10 -2.05156e-09 1.63901e-09)
(9.64749e-10 -2.4714e-09 2.09342e-09)
(1.16361e-09 -2.88614e-09 2.62352e-09)
(1.39316e-09 -3.28357e-09 3.24733e-09)
(1.66942e-09 -3.63744e-09 3.98198e-09)
(2.01771e-09 -3.89937e-09 4.84232e-09)
(2.48271e-09 -3.98443e-09 5.83963e-09)
(3.15196e-09 -3.74114e-09 6.98178e-09)
(4.21548e-09 -2.88141e-09 8.28338e-09)
(6.09756e-09 -8.13428e-10 9.79072e-09)
(9.60658e-09 3.57795e-09 1.15577e-08)
(1.4806e-08 1.05481e-08 1.2987e-08)
(2.99582e-10 -7.97253e-10 5.65976e-10)
(8.38025e-10 -2.22934e-09 1.60176e-09)
(1.34074e-09 -3.56115e-09 2.61992e-09)
(1.83018e-09 -4.84026e-09 3.68768e-09)
(2.32775e-09 -6.09923e-09 4.86587e-09)
(2.8555e-09 -7.35393e-09 6.21158e-09)
(3.43817e-09 -8.59974e-09 7.77955e-09)
(4.10665e-09 -9.8052e-09 9.62241e-09)
(4.90313e-09 -1.09006e-08 1.17886e-08)
(5.8902e-09 -1.17595e-08 1.4317e-08)
(7.16785e-09 -1.21702e-08 1.72257e-08)
(8.9075e-09 -1.17947e-08 2.0495e-08)
(1.14109e-08 -1.01257e-08 2.40329e-08)
(1.51377e-08 -6.52094e-09 2.7577e-08)
(2.04295e-08 -6.98593e-10 3.04255e-08)
(2.58449e-08 5.14549e-09 3.11363e-08)
(4.89776e-10 -1.30236e-09 9.26925e-10)
(1.36965e-09 -3.64281e-09 2.62285e-09)
(2.18998e-09 -5.82252e-09 4.28866e-09)
(2.98632e-09 -7.92122e-09 6.03361e-09)
(3.79259e-09 -9.99537e-09 7.95643e-09)
(4.64317e-09 -1.20761e-08 1.01497e-08)
(5.5759e-09 -1.41645e-08 1.27024e-08)
(6.63596e-09 -1.62237e-08 1.57002e-08)
(7.88112e-09 -1.81646e-08 1.92216e-08)
(9.38878e-09 -1.98253e-08 2.33278e-08)
(1.12662e-08 -2.09444e-08 2.80425e-08)
(1.36704e-08 -2.11417e-08 3.33166e-08)
(1.68142e-08 -1.99552e-08 3.8957e-08)
(2.09334e-08 -1.70704e-08 4.45039e-08)
(2.59712e-08 -1.30514e-08 4.90018e-08)
(3.0485e-08 -1.04936e-08 5.09543e-08)
(6.66328e-10 -1.76798e-09 1.26436e-09)
(1.86267e-09 -4.94727e-09 3.57691e-09)
(2.97554e-09 -7.91409e-09 5.84568e-09)
(4.05157e-09 -1.07808e-08 8.2182e-09)
(5.13473e-09 -1.363e-08 1.08272e-08)
(6.26915e-09 -1.65133e-08 1.37975e-08)
(7.50201e-09 -1.94478e-08 1.7249e-08)
(8.88718e-09 -2.24081e-08 2.12979e-08)
(1.04883e-08 -2.53141e-08 2.60518e-08)
(1.23806e-08 -2.80121e-08 3.15964e-08)
(1.46495e-08 -3.02543e-08 3.79689e-08)
(1.73811e-08 -3.16911e-08 4.51062e-08)
(2.06323e-08 -3.19227e-08 5.27532e-08)
(2.43392e-08 -3.07268e-08 6.02906e-08)
(2.81038e-08 -2.86392e-08 6.64682e-08)
(3.07831e-08 -2.75745e-08 6.93311e-08)
(8.2506e-10 -2.17841e-09 1.57068e-09)
(2.30505e-09 -6.0988e-09 4.44186e-09)
(3.67772e-09 -9.76586e-09 7.25429e-09)
(4.9981e-09 -1.33242e-08 1.01882e-08)
(6.31768e-09 -1.6884e-08 1.34056e-08)
(7.68736e-09 -2.05224e-08 1.70583e-08)
(9.16031e-09 -2.42807e-08 2.1293e-08)
(1.07948e-08 -2.81609e-08 2.62524e-08)
(1.26557e-08 -3.21161e-08 3.20713e-08)
(1.48117e-08 -3.60377e-08 3.88629e-08)
(1.73253e-08 -3.97376e-08 4.66905e-08)
(2.02276e-08 -4.2934e-08 5.55099e-08)
(2.34614e-08 -4.52524e-08 6.50589e-08)
(2.67677e-08 -4.62965e-08 7.46344e-08)
(2.9534e-08 -4.59399e-08 8.27055e-08)
(3.08327e-08 -4.50739e-08 8.66843e-08)
(9.62782e-10 -2.51839e-09 1.83968e-09)
(2.6878e-09 -7.05446e-09 5.20027e-09)
(4.28195e-09 -1.13086e-08 8.48528e-09)
(5.80588e-09 -1.54555e-08 1.19015e-08)
(7.31577e-09 -1.96331e-08 1.56338e-08)
(8.8664e-09 -2.39455e-08 1.98552e-08)
(1.05139e-08 -2.84643e-08 2.47325e-08)
(1.23184e-08 -3.32279e-08 3.04289e-08)
(1.43449e-08 -3.82391e-08 3.71018e-08)
(1.66603e-08 -4.34591e-08 4.48915e-08)
(1.93237e-08 -4.87981e-08 5.38967e-08)
(2.23654e-08 -5.40979e-08 6.41252e-08)
(2.57341e-08 -5.90843e-08 7.53799e-08)
(2.92015e-08 -6.32586e-08 8.70149e-08)
(3.21819e-08 -6.57475e-08 9.73947e-08)
(3.36329e-08 -6.5755e-08 1.03234e-07)
(1.07744e-09 -2.77369e-09 2.06712e-09)
(3.00531e-09 -7.77419e-09 5.83995e-09)
(4.77943e-09 -1.24768e-08 9.51858e-09)
(6.46321e-09 -1.70827e-08 1.33291e-08)
(8.11466e-09 -2.17543e-08 1.74725e-08)
(9.78959e-09 -2.66217e-08 2.21352e-08)
(1.15442e-08 -3.17864e-08 2.74964e-08)
(1.3438e-08 -3.7325e-08 3.37311e-08)
(1.55354e-08 -4.32928e-08 4.10097e-08)
(1.79052e-08 -4.97271e-08 4.94903e-08)
(2.06197e-08 -5.66543e-08 5.93046e-08)
(2.37471e-08 -6.40921e-08 7.05159e-08)
(2.73485e-08 -7.20355e-08 8.30464e-08)
(3.14425e-08 -8.03444e-08 9.64375e-08)
(3.58284e-08 -8.83245e-08 1.092e-07)
(3.941e-08 -9.37248e-08 1.17487e-07)
(1.16819e-09 -2.93187e-09 2.2506e-09)
(3.25541e-09 -8.22296e-09 6.35451e-09)
(5.16733e-09 -1.32133e-08 1.03441e-08)
(6.96713e-09 -1.81238e-08 1.44571e-08)
(8.71189e-09 -2.31364e-08 1.89031e-08)
(1.04555e-08 -2.84021e-08 2.38741e-08)
(1.22514e-08 -3.40468e-08 2.95523e-08)
(1.41551e-08 -4.01779e-08 3.61132e-08)
(1.62269e-08 -4.6891e-08 4.37263e-08)
(1.85336e-08 -5.42799e-08 5.25497e-08)
(2.1152e-08 -6.2453e-08 6.27189e-08)
(2.41784e-08 -7.15613e-08 7.43263e-08)
(2.77509e-08 -8.18439e-08 8.73693e-08)
(3.20735e-08 -9.36589e-08 1.01582e-07)
(3.73391e-08 -1.07274e-07 1.15867e-07)
(4.26262e-08 -1.20623e-07 1.26376e-07)
(1.02544e-10 -2.74162e-10 1.73508e-10)
(2.86799e-10 -7.66663e-10 4.90892e-10)
(4.58704e-10 -1.22477e-09 8.02475e-10)
(6.25701e-10 -1.66486e-09 1.12839e-09)
(7.94943e-10 -2.0983e-09 1.48689e-09)
(9.73366e-10 -2.53065e-09 1.89451e-09)
(1.1685e-09 -2.96062e-09 2.36652e-09)
(1.38931e-09 -3.37812e-09 2.91636e-09)
(1.64773e-09 -3.76104e-09 3.55439e-09)
(1.96143e-09 -4.0702e-09 4.28461e-09)
(2.35959e-09 -4.24106e-09 5.0988e-09)
(2.89739e-09 -4.16985e-09 5.96685e-09)
(3.687e-09 -3.68538e-09 6.81903e-09)
(4.96152e-09 -2.48447e-09 7.51474e-09)
(7.11691e-09 -5.20949e-11 7.76865e-09)
(9.98932e-09 3.68047e-09 7.07349e-09)
(3.04544e-10 -8.13956e-10 5.1569e-10)
(8.51653e-10 -2.27636e-09 1.45888e-09)
(1.36158e-09 -3.63735e-09 2.38416e-09)
(1.85638e-09 -4.94626e-09 3.35157e-09)
(2.35649e-09 -6.23742e-09 4.4145e-09)
(2.88213e-09 -7.52879e-09 5.62184e-09)
(3.45465e-09 -8.81887e-09 7.01836e-09)
(4.09881e-09 -1.00817e-08 8.64348e-09)
(4.84565e-09 -1.12584e-08 1.05266e-08)
(5.73692e-09 -1.22455e-08 1.26767e-08)
(6.8336e-09 -1.28802e-08 1.50625e-08)
(8.23037e-09 -1.29292e-08 1.75756e-08)
(1.007e-08 -1.21013e-08 1.99584e-08)
(1.2517e-08 -1.01459e-08 2.1677e-08)
(1.54944e-08 -7.21214e-09 2.17626e-08)
(1.7862e-08 -4.70806e-09 1.9474e-08)
(4.97988e-10 -1.32956e-09 8.4461e-10)
(1.39223e-09 -3.71936e-09 2.38903e-09)
(2.22467e-09 -5.94656e-09 3.90303e-09)
(3.03026e-09 -8.09364e-09 5.48421e-09)
(3.84155e-09 -1.02198e-08 7.21927e-09)
(4.69016e-09 -1.23592e-08 9.18763e-09)
(5.60894e-09 -1.45173e-08 1.14624e-08)
(6.63408e-09 -1.66642e-08 1.41083e-08)
(7.80711e-09 -1.87249e-08 1.71743e-08)
(9.17629e-09 -2.05656e-08 2.06778e-08)
(1.07968e-08 -2.19828e-08 2.4573e-08)
(1.27244e-08 -2.27139e-08 2.86942e-08)
(1.4997e-08 -2.25144e-08 3.2664e-08)
(1.75406e-08 -2.14045e-08 3.57462e-08)
(1.99561e-08 -2.0155e-08 3.67994e-08)
(2.12733e-08 -2.0348e-08 3.52123e-08)
(6.77743e-10 -1.80477e-09 1.15227e-09)
(1.89408e-09 -5.05084e-09 3.25826e-09)
(3.02401e-09 -8.08176e-09 5.32067e-09)
(4.11359e-09 -1.10137e-08 7.47091e-09)
(5.20515e-09 -1.39325e-08 9.82583e-09)
(6.33963e-09 -1.68935e-08 1.24926e-08)
(7.55837e-09 -1.9918e-08 1.55703e-08)
(8.90469e-09 -2.29877e-08 1.91477e-08)
(1.04237e-08 -2.60349e-08 2.32947e-08)
(1.21579e-08 -2.8931e-08 2.80421e-08)
(1.41348e-08 -3.14787e-08 3.33438e-08)
(1.63384e-08 -3.34263e-08 3.90105e-08)
(1.86461e-08 -3.45514e-08 4.45981e-08)
(2.07114e-08 -3.48889e-08 4.9259e-08)
(2.18508e-08 -3.51072e-08 5.1695e-08)
(2.14329e-08 -3.62751e-08 5.10583e-08)
(8.3956e-10 -2.2236e-09 1.43153e-09)
(2.34499e-09 -6.22589e-09 4.04674e-09)
(3.73976e-09 -9.97159e-09 6.60376e-09)
(5.0783e-09 -1.36096e-08 9.26344e-09)
(6.41064e-09 -1.72541e-08 1.21684e-08)
(7.78439e-09 -2.09854e-08 1.54495e-08)
(9.2468e-09 -2.48489e-08 1.92283e-08)
(1.08456e-08 -2.88514e-08 2.36151e-08)
(1.2627e-08 -3.29542e-08 2.87003e-08)
(1.46276e-08 -3.70642e-08 3.45333e-08)
(1.68539e-08 -4.10243e-08 4.10824e-08)
(1.92395e-08 -4.46129e-08 4.81632e-08)
(2.15578e-08 -4.75669e-08 5.53151e-08)
(2.32834e-08 -4.96638e-08 6.16232e-08)
(2.35223e-08 -5.09076e-08 6.56047e-08)
(2.17966e-08 -5.16851e-08 6.59896e-08)
(9.80162e-10 -2.57044e-09 1.67699e-09)
(2.73589e-09 -7.20089e-09 4.73846e-09)
(4.35696e-09 -1.15455e-08 7.72577e-09)
(5.90391e-09 -1.57839e-08 1.08235e-08)
(7.43158e-09 -2.00581e-08 1.41948e-08)
(8.99191e-09 -2.44752e-08 1.79887e-08)
(1.06357e-08 -2.91096e-08 2.23442e-08)
(1.24134e-08 -3.40017e-08 2.73885e-08)
(1.43735e-08 -3.91566e-08 3.32295e-08)
(1.65545e-08 -4.45387e-08 3.99362e-08)
(1.89664e-08 -5.00647e-08 4.74997e-08)
(2.15516e-08 -5.55881e-08 5.57612e-08)
(2.41095e-08 -6.08607e-08 6.42883e-08)
(2.61578e-08 -6.54291e-08 7.21539e-08)
(2.68167e-08 -6.84752e-08 7.77295e-08)
(2.53917e-08 -6.90642e-08 7.92689e-08)
(1.09749e-09 -2.83087e-09 1.88461e-09)
(3.0608e-09 -7.935e-09 5.32231e-09)
(4.86653e-09 -1.2737e-08 8.66837e-09)
(6.57807e-09 -1.74431e-08 1.21248e-08)
(8.25267e-09 -2.222e-08 1.58689e-08)
(9.94382e-09 -2.72005e-08 2.0062e-08)
(1.17034e-08 -3.24873e-08 2.48536e-08)
(1.35831e-08 -3.81565e-08 3.03808e-08)
(1.56338e-08 -4.42597e-08 3.6762e-08)
(1.79018e-08 -5.08265e-08 4.40793e-08)
(2.04175e-08 -5.78657e-08 5.23419e-08)
(2.31826e-08 -6.53643e-08 6.14281e-08)
(2.61265e-08 -7.32514e-08 7.09448e-08)
(2.90478e-08 -8.12664e-08 8.00011e-08)
(3.14965e-08 -8.85596e-08 8.68781e-08)
(3.26688e-08 -9.292e-08 8.9358e-08)
(1.19053e-09 -2.99218e-09 2.05229e-09)
(3.3175e-09 -8.3926e-09 5.79242e-09)
(5.26512e-09 -1.34877e-08 9.42228e-09)
(7.09712e-09 -1.8504e-08 1.31544e-08)
(8.87017e-09 -2.36274e-08 1.71738e-08)
(1.06367e-08 -2.90112e-08 2.16471e-08)
(1.24468e-08 -3.47816e-08 2.67266e-08)
(1.43503e-08 -4.10431e-08 3.25504e-08)
(1.63973e-08 -4.78839e-08 3.92364e-08)
(1.86372e-08 -5.53817e-08 4.68662e-08)
(2.11171e-08 -6.36143e-08 5.5455e-08)
(2.38789e-08 -7.26732e-08 6.48921e-08)
(2.69565e-08 -8.26792e-08 7.48219e-08)
(3.03755e-08 -9.37707e-08 8.4402e-08)
(3.40849e-08 -1.0587e-07 9.18637e-08)
(3.74027e-08 -1.16966e-07 9.44883e-08)
(1.03744e-10 -2.78952e-10 1.50542e-10)
(2.90048e-10 -7.80158e-10 4.25781e-10)
(4.63423e-10 -1.24665e-09 6.95386e-10)
(6.31149e-10 -1.69534e-09 9.76708e-10)
(7.99806e-10 -2.13815e-09 1.28472e-09)
(9.75517e-10 -2.5813e-09 1.63289e-09)
(1.16435e-09 -3.02465e-09 2.03284e-09)
(1.37276e-09 -3.46016e-09 2.49364e-09)
(1.60824e-09 -3.86972e-09 3.01986e-09)
(1.88052e-09 -4.22214e-09 3.60772e-09)
(2.20421e-09 -4.46912e-09 4.23825e-09)
(2.60587e-09 -4.53992e-09 4.86633e-09)
(3.14213e-09 -4.32844e-09 5.40668e-09)
(3.93402e-09 -3.65299e-09 5.71883e-09)
(5.18945e-09 -2.17136e-09 5.61943e-09)
(6.78939e-09 3.30453e-10 5.00578e-09)
(3.0816e-10 -8.28144e-10 4.47463e-10)
(8.61373e-10 -2.31631e-09 1.26531e-09)
(1.3759e-09 -3.70213e-09 2.06628e-09)
(1.87295e-09 -5.03641e-09 2.90111e-09)
(2.37163e-09 -6.35502e-09 3.81447e-09)
(2.88975e-09 -7.67783e-09 4.84584e-09)
(3.4446e-09 -9.00634e-09 6.02948e-09)
(4.05389e-09 -1.03199e-08 7.39201e-09)
(4.7365e-09 -1.15699e-08 8.94645e-09)
(5.51307e-09 -1.26728e-08 1.06804e-08)
(6.40735e-09 -1.35041e-08 1.25351e-08)
(7.44928e-09 -1.39006e-08 1.43707e-08)
(8.67662e-09 -1.36831e-08 1.59172e-08)
(1.01042e-08 -1.27216e-08 1.67126e-08)
(1.15953e-08 -1.10884e-08 1.61649e-08)
(1.25506e-08 -9.43097e-09 1.4305e-08)
(5.04031e-10 -1.35264e-09 7.32932e-10)
(1.40858e-09 -3.78436e-09 2.0722e-09)
(2.24886e-09 -6.05183e-09 3.38287e-09)
(3.05872e-09 -8.23991e-09 4.7476e-09)
(3.86862e-09 -1.041e-08 6.23877e-09)
(4.70664e-09 -1.2599e-08 7.92074e-09)
(5.5996e-09 -1.48162e-08 9.84966e-09)
(6.5734e-09 -1.70387e-08 1.20698e-08)
(7.65218e-09 -1.92036e-08 1.46046e-08)
(8.85491e-09 -2.1201e-08 1.74384e-08)
(1.01876e-08 -2.28714e-08 2.04854e-08)
(1.16306e-08 -2.40262e-08 2.3544e-08)
(1.31057e-08 -2.45233e-08 2.62281e-08)
(1.44267e-08 -2.44443e-08 2.79389e-08)
(1.52471e-08 -2.43483e-08 2.80285e-08)
(1.52671e-08 -2.50426e-08 2.6741e-08)
(6.8624e-10 -1.83597e-09 9.9991e-10)
(1.91714e-09 -5.13859e-09 2.82657e-09)
(3.05848e-09 -8.22375e-09 4.61217e-09)
(4.15492e-09 -1.12105e-08 6.46838e-09)
(5.24641e-09 -1.41874e-08 8.49282e-09)
(6.36967e-09 -1.72127e-08 1.07725e-08)
(7.5589e-09 -2.03113e-08 1.33839e-08)
(8.84549e-09 -2.34708e-08 1.63888e-08)
(1.02547e-08 -2.6634e-08 1.98229e-08)
(1.17968e-08 -2.96917e-08 2.36747e-08)
(1.34484e-08 -3.24811e-08 2.78488e-08)
(1.51174e-08 -3.48073e-08 3.21113e-08)
(1.65825e-08 -3.65181e-08 3.60254e-08)
(1.74225e-08 -3.76728e-08 3.89262e-08)
(1.7078e-08 -3.87452e-08 4.01212e-08)
(1.55985e-08 -4.02381e-08 3.973e-08)
(8.50498e-10 -2.26181e-09 1.2425e-09)
(2.37485e-09 -6.33337e-09 3.51104e-09)
(3.78476e-09 -1.01452e-08 5.7253e-09)
(5.13344e-09 -1.38497e-08 8.02187e-09)
(6.46838e-09 -1.75637e-08 1.052e-08)
(7.83287e-09 -2.13702e-08 1.33262e-08)
(9.26681e-09 -2.53171e-08 1.65348e-08)
(1.08058e-08 -2.94141e-08 2.02233e-08)
(1.24762e-08 -3.36277e-08 2.44412e-08)
(1.42836e-08 -3.78736e-08 2.91863e-08)
(1.61868e-08 -4.20106e-08 3.4366e-08)
(1.80513e-08 -4.58416e-08 3.97399e-08)
(1.95676e-08 -4.91305e-08 4.48498e-08)
(2.01582e-08 -5.16496e-08 4.89879e-08)
(1.90676e-08 -5.3276e-08 5.13725e-08)
(1.64464e-08 -5.40903e-08 5.18734e-08)
(9.93508e-10 -2.61438e-09 1.45575e-09)
(2.77237e-09 -7.32435e-09 4.11189e-09)
(4.41257e-09 -1.17447e-08 6.69933e-09)
(5.97342e-09 -1.60588e-08 9.37491e-09)
(7.50754e-09 -2.04111e-08 1.22751e-08)
(9.06282e-09 -2.49109e-08 1.55217e-08)
(1.06832e-08 -2.96329e-08 1.92228e-08)
(1.2408e-08 -3.46173e-08 2.34688e-08)
(1.42679e-08 -3.98669e-08 2.83209e-08)
(1.62734e-08 -4.53418e-08 3.37873e-08)
(1.83935e-08 -5.09506e-08 3.97847e-08)
(2.05141e-08 -5.65327e-08 4.6079e-08)
(2.23613e-08 -6.18075e-08 5.22003e-08)
(2.34112e-08 -6.62642e-08 5.7402e-08)
(2.29023e-08 -6.89947e-08 6.07861e-08)
(2.06862e-08 -6.90617e-08 6.19841e-08)
(1.11307e-09 -2.87898e-09 1.63632e-09)
(3.10363e-09 -8.07018e-09 4.61941e-09)
(4.93238e-09 -1.29549e-08 7.5183e-09)
(6.66191e-09 -1.77433e-08 1.05046e-08)
(8.34758e-09 -2.26043e-08 1.37271e-08)
(1.00394e-08 -2.76718e-08 1.73175e-08)
(1.17835e-08 -3.30475e-08 2.13928e-08)
(1.3622e-08 -3.88032e-08 2.60507e-08)
(1.55908e-08 -4.49817e-08 3.13592e-08)
(1.77128e-08 -5.15958e-08 3.73332e-08)
(1.99873e-08 -5.86255e-08 4.3899e-08)
(2.23644e-08 -6.60029e-08 5.08205e-08)
(2.47179e-08 -7.35665e-08 5.76245e-08)
(2.68062e-08 -8.09158e-08 6.34984e-08)
(2.82654e-08 -8.70573e-08 6.73672e-08)
(2.87634e-08 -9.00337e-08 6.86538e-08)
(1.20817e-09 -3.04281e-09 1.78222e-09)
(3.36611e-09 -8.53483e-09 5.02846e-09)
(5.3405e-09 -1.3717e-08 8.17401e-09)
(7.19453e-09 -1.88194e-08 1.13997e-08)
(8.98352e-09 -2.40303e-08 1.48609e-08)
(1.07572e-08 -2.95031e-08 1.8694e-08)
(1.2561e-08 -3.53618e-08 2.30186e-08)
(1.44372e-08 -4.17039e-08 2.79331e-08)
(1.6424e-08 -4.8604e-08 3.35051e-08)
(1.85532e-08 -5.61153e-08 3.97492e-08)
(2.08456e-08 -6.42722e-08 4.65884e-08)
(2.33054e-08 -7.30916e-08 5.379e-08)
(2.5917e-08 -8.25682e-08 6.08643e-08)
(2.86596e-08 -9.26444e-08 6.69297e-08)
(3.15236e-08 -1.03039e-07 7.06647e-08)
(3.41965e-08 -1.12061e-07 7.10701e-08)
(1.04551e-10 -2.82824e-10 1.22469e-10)
(2.92136e-10 -7.91049e-10 3.46205e-10)
(4.66306e-10 -1.2643e-09 5.65165e-10)
(6.34014e-10 -1.71997e-09 7.92821e-10)
(8.01279e-10 -2.17029e-09 1.04119e-09)
(9.73406e-10 -2.62213e-09 1.32035e-09)
(1.15506e-09 -3.07621e-09 1.63861e-09)
(1.35044e-09 -3.52601e-09 2.00147e-09)
(1.56343e-09 -3.95633e-09 2.40986e-09)
(1.79773e-09 -4.34098e-09 2.85658e-09)
(2.05854e-09 -4.6407e-09 3.32119e-09)
(2.35782e-09 -4.79957e-09 3.76371e-09)
(2.72834e-09 -4.73387e-09 4.11979e-09)
(3.25656e-09 -4.29129e-09 4.31207e-09)
(4.11616e-09 -3.15257e-09 4.30365e-09)
(5.277e-09 -1.03069e-09 4.15795e-09)
(3.10585e-10 -8.39604e-10 3.64004e-10)
(8.67781e-10 -2.34858e-09 1.02907e-09)
(1.3848e-09 -3.75446e-09 1.67922e-09)
(1.88192e-09 -5.10915e-09 2.35517e-09)
(2.3769e-09 -6.44989e-09 3.09168e-09)
(2.88496e-09 -7.79786e-09 3.91875e-09)
(3.41953e-09 -9.15689e-09 4.86082e-09)
(3.99212e-09 -1.05104e-08 5.93421e-09)
(4.61151e-09 -1.18167e-08 7.14132e-09)
(5.2828e-09 -1.30046e-08 8.46057e-09)
(6.0067e-09 -1.39703e-08 9.83078e-09)
(6.78161e-09 -1.45794e-08 1.11305e-08)
(7.6088e-09 -1.46803e-08 1.21552e-08)
(8.49783e-09 -1.41272e-08 1.263e-08)
(9.42153e-09 -1.28402e-08 1.23117e-08)
(1.01227e-08 -1.11644e-08 1.14123e-08)
(5.08162e-10 -1.37129e-09 5.96281e-10)
(1.41955e-09 -3.83686e-09 1.68543e-09)
(2.26428e-09 -6.13679e-09 2.74954e-09)
(3.07493e-09 -8.35779e-09 3.85459e-09)
(3.87955e-09 -1.05629e-08 5.05723e-09)
(4.70277e-09 -1.2791e-08 6.40637e-09)
(5.5656e-09 -1.50543e-08 7.94227e-09)
(6.4848e-09 -1.73346e-08 9.69245e-09)
(7.4704e-09 -1.95773e-08 1.16631e-08)
(8.52026e-09 -2.1686e-08 1.38238e-08)
(9.61203e-09 -2.35226e-08 1.60853e-08)
(1.06908e-08 -2.49245e-08 1.82689e-08)
(1.16587e-08 -2.576e-08 2.00925e-08)
(1.23717e-08 -2.60485e-08 2.11976e-08)
(1.26963e-08 -2.61254e-08 2.13556e-08)
(1.27014e-08 -2.65398e-08 2.09448e-08)
(6.92177e-10 -1.86115e-09 8.13664e-10)
(1.93299e-09 -5.20941e-09 2.29918e-09)
(3.08115e-09 -8.33815e-09 3.74917e-09)
(4.17962e-09 -1.13685e-08 5.25247e-09)
(5.26583e-09 -1.43913e-08 6.8856e-09)
(6.37209e-09 -1.74664e-08 8.71481e-09)
(7.52584e-09 -2.06212e-08 1.07952e-08)
(8.74792e-09 -2.3847e-08 1.31659e-08)
(1.00477e-08 -2.7092e-08 1.58393e-08)
(1.14131e-08 -3.02563e-08 1.8783e-08)
(1.27926e-08 -3.31901e-08 2.18929e-08)
(1.40671e-08 -3.57104e-08 2.49633e-08)
(1.50145e-08 -3.76567e-08 2.76714e-08)
(1.53011e-08 -3.90139e-08 2.96317e-08)
(1.46317e-08 -4.007e-08 3.06135e-08)
(1.33839e-08 -4.12049e-08 3.08988e-08)
(8.58296e-10 -2.29262e-09 1.01113e-09)
(2.39578e-09 -6.41991e-09 2.8564e-09)
(3.8152e-09 -1.02847e-08 4.65478e-09)
(5.16811e-09 -1.40418e-08 6.51512e-09)
(6.49907e-09 -1.78098e-08 8.53099e-09)
(7.84707e-09 -2.16733e-08 1.07837e-08)
(9.24491e-09 -2.5681e-08 1.33414e-08)
(1.07174e-08 -2.98435e-08 1.6254e-08)
(1.22756e-08 -3.41278e-08 1.95416e-08)
(1.3904e-08 -3.84497e-08 2.31744e-08)
(1.55375e-08 -4.26667e-08 2.70441e-08)
(1.70237e-08 -4.65734e-08 3.09325e-08)
(1.80687e-08 -4.99059e-08 3.44951e-08)
(1.82044e-08 -5.23684e-08 3.73224e-08)
(1.69514e-08 -5.37313e-08 3.91456e-08)
(1.47326e-08 -5.41002e-08 4.0092e-08)
(1.00318e-09 -2.64971e-09 1.1849e-09)
(2.79851e-09 -7.42355e-09 3.34579e-09)
(4.45126e-09 -1.19043e-08 5.4477e-09)
(6.01906e-09 -1.62777e-08 7.6156e-09)
(7.55206e-09 -2.069e-08 9.95678e-09)
(9.09381e-09 -2.52508e-08 1.25643e-08)
(1.06816e-08 -3.0034e-08 1.55167e-08)
(1.2345e-08 -3.50771e-08 1.88727e-08)
(1.41006e-08 -4.03767e-08 2.26588e-08)
(1.59414e-08 -4.58824e-08 2.68495e-08)
(1.78174e-08 -5.14845e-08 3.13365e-08)
(1.96024e-08 -5.69891e-08 3.5889e-08)
(2.10484e-08 -6.20657e-08 4.01434e-08)
(2.17417e-08 -6.61357e-08 4.36416e-08)
(2.11781e-08 -6.82632e-08 4.60462e-08)
(1.94362e-08 -6.77236e-08 4.73935e-08)
(1.12455e-09 -2.91761e-09 1.33205e-09)
(3.13489e-09 -8.17851e-09 3.75944e-09)
(4.97932e-09 -1.31289e-08 6.11487e-09)
(6.71918e-09 -1.79813e-08 8.53528e-09)
(8.40739e-09 -2.2906e-08 1.11377e-08)
(1.00904e-08 -2.80363e-08 1.40231e-08)
(1.18085e-08 -3.34711e-08 1.72767e-08)
(1.35953e-08 -3.9276e-08 2.09619e-08)
(1.54752e-08 -4.5482e-08 2.51095e-08)
(1.74569e-08 -5.20812e-08 2.96959e-08)
(1.95236e-08 -5.90188e-08 3.46072e-08)
(2.16221e-08 -6.61741e-08 3.96062e-08)
(2.36474e-08 -7.33066e-08 4.4285e-08)
(2.54562e-08 -7.9933e-08 4.80999e-08)
(2.69069e-08 -8.50757e-08 5.05752e-08)
(2.78487e-08 -8.71617e-08 5.17281e-08)
(1.22137e-09 -3.08335e-09 1.45111e-09)
(3.40222e-09 -8.64854e-09 4.09311e-09)
(5.39547e-09 -1.38994e-08 6.64954e-09)
(7.26321e-09 -1.90684e-08 9.26485e-09)
(9.05908e-09 -2.43448e-08 1.20614e-08)
(1.08297e-08 -2.98806e-08 1.51442e-08)
(1.26158e-08 -3.57956e-08 1.86001e-08)
(1.44527e-08 -4.21787e-08 2.24935e-08)
(1.63694e-08 -4.90882e-08 2.68542e-08)
(1.83863e-08 -5.65506e-08 3.16555e-08)
(2.05134e-08 -6.45571e-08 3.67811e-08)
(2.275e-08 -7.30585e-08 4.19761e-08)
(2.50979e-08 -8.19583e-08 4.67964e-08)
(2.76108e-08 -9.11073e-08 5.05909e-08)
(3.04529e-08 -1.0024e-07 5.26362e-08)
(3.34718e-08 -1.08122e-07 5.27694e-08)
(1.05027e-10 -2.8572e-10 9.03506e-11)
(2.9337e-10 -7.99217e-10 2.55424e-10)
(4.6785e-10 -1.27756e-09 4.16569e-10)
(6.35054e-10 -1.73829e-09 5.83951e-10)
(8.00913e-10 -2.19444e-09 7.65879e-10)
(9.69587e-10 -2.65273e-09 9.69408e-10)
(1.14474e-09 -3.11458e-09 1.19996e-09)
(1.32895e-09 -3.57448e-09 1.4606e-09)
(1.5236e-09 -4.01872e-09 1.75055e-09)
(1.72902e-09 -4.42354e-09 2.06283e-09)
(1.94613e-09 -4.75298e-09 2.38127e-09)
(2.18211e-09 -4.95477e-09 2.67789e-09)
(2.46673e-09 -4.94722e-09 2.91527e-09)
(2.88723e-09 -4.57409e-09 3.06387e-09)
(3.62704e-09 -3.50734e-09 3.14717e-09)
(4.6907e-09 -1.44422e-09 3.22837e-09)
(3.12092e-10 -8.4822e-10 2.68618e-10)
(8.71628e-10 -2.37284e-09 7.59066e-10)
(1.38962e-09 -3.79364e-09 1.23802e-09)
(1.88606e-09 -5.16401e-09 1.73481e-09)
(2.37647e-09 -6.52097e-09 2.27432e-09)
(2.87463e-09 -7.88738e-09 2.87735e-09)
(3.39071e-09 -9.26837e-09 3.55993e-09)
(3.9316e-09 -1.06496e-08 4.33109e-09)
(4.49946e-09 -1.19933e-08 5.18846e-09)
(5.09058e-09 -1.32335e-08 6.11133e-09)
(5.6957e-09 -1.42729e-08 7.05131e-09)
(6.3061e-09 -1.49813e-08 7.92265e-09)
(6.93042e-09 -1.51972e-08 8.60229e-09)
(7.61853e-09 -1.47294e-08 8.94965e-09)
(8.44755e-09 -1.34002e-08 8.87973e-09)
(9.25662e-09 -1.15068e-08 8.51561e-09)
(5.1079e-10 -1.38533e-09 4.40039e-10)
(1.42633e-09 -3.87634e-09 1.24332e-09)
(2.27336e-09 -6.20079e-09 2.02728e-09)
(3.08264e-09 -8.44608e-09 2.83952e-09)
(3.88105e-09 -1.06772e-08 3.72063e-09)
(4.68951e-09 -1.29338e-08 4.7045e-09)
(5.52465e-09 -1.52298e-08 5.81766e-09)
(6.39657e-09 -1.75495e-08 7.07564e-09)
(7.30596e-09 -1.98421e-08 8.47637e-09)
(8.2393e-09 -2.20161e-08 9.98973e-09)
(9.16326e-09 -2.3938e-08 1.15437e-08)
(1.0022e-08 -2.54427e-08 1.30145e-08)
(1.07422e-08 -2.63717e-08 1.42259e-08)
(1.12678e-08 -2.66682e-08 1.49985e-08)
(1.16259e-08 -2.65395e-08 1.52678e-08)
(1.19452e-08 -2.6542e-08 1.52531e-08)
(6.96056e-10 -1.88011e-09 6.00421e-10)
(1.94311e-09 -5.26269e-09 1.69635e-09)
(3.09478e-09 -8.42397e-09 2.76463e-09)
(4.19291e-09 -1.14871e-08 3.86982e-09)
(5.27172e-09 -1.45431e-08 5.0665e-09)
(6.36052e-09 -1.76538e-08 6.40083e-09)
(7.48121e-09 -2.08475e-08 7.90925e-09)
(8.64686e-09 -2.41166e-08 9.61422e-09)
(9.8567e-09 -2.74108e-08 1.15161e-08)
(1.10872e-08 -3.06312e-08 1.35802e-08)
(1.22788e-08 -3.36259e-08 1.57219e-08)
(1.33192e-08 -3.61999e-08 1.77947e-08)
(1.40334e-08 -3.81571e-08 1.95986e-08)
(1.42054e-08 -3.94034e-08 2.09404e-08)
(1.37283e-08 -4.01288e-08 2.17589e-08)
(1.29778e-08 -4.07927e-08 2.21965e-08)
(8.63476e-10 -2.31577e-09 7.46303e-10)
(2.40954e-09 -6.48497e-09 2.10772e-09)
(3.83449e-09 -1.03894e-08 3.43294e-09)
(5.18779e-09 -1.4185e-08 4.80082e-09)
(6.51229e-09 -1.79923e-08 6.27832e-09)
(7.84258e-09 -2.18957e-08 7.92212e-09)
(9.20605e-09 -2.5944e-08 9.77747e-09)
(1.06198e-08 -3.01467e-08 1.18735e-08)
(1.2085e-08 -3.44679e-08 1.42142e-08)
(1.35764e-08 -3.88181e-08 1.67639e-08)
(1.50249e-08 -4.30434e-08 1.94317e-08)
(1.62935e-08 -4.69169e-08 2.20575e-08)
(1.71463e-08 -5.0134e-08 2.44243e-08)
(1.72518e-08 -5.23407e-08 2.6324e-08)
(1.63204e-08 -5.32661e-08 2.76767e-08)
(1.47241e-08 -5.31588e-08 2.8529e-08)
(1.00978e-09 -2.67628e-09 8.74653e-10)
(2.81606e-09 -7.49796e-09 2.46921e-09)
(4.47632e-09 -1.20235e-08 4.01834e-09)
(6.04696e-09 -1.64406e-08 5.61274e-09)
(7.57501e-09 -2.08956e-08 7.32916e-09)
(9.10093e-09 -2.54982e-08 9.23269e-09)
(1.06567e-08 -3.03205e-08 1.13756e-08)
(1.22645e-08 -3.53957e-08 1.37923e-08)
(1.39328e-08 -4.0713e-08 1.649e-08)
(1.56465e-08 -4.62089e-08 1.94334e-08)
(1.73551e-08 -5.17523e-08 2.25255e-08)
(1.89526e-08 -5.71178e-08 2.5594e-08)
(2.02535e-08 -6.19323e-08 2.83961e-08)
(2.09785e-08 -6.55814e-08 3.06882e-08)
(2.08029e-08 -6.71588e-08 3.23541e-08)
(1.97275e-08 -6.61609e-08 3.34163e-08)
(1.13249e-09 -2.94656e-09 9.83471e-10)
(3.15633e-09 -8.25962e-09 2.77492e-09)
(5.01082e-09 -1.32587e-08 4.51122e-09)
(6.75552e-09 -1.81577e-08 6.29173e-09)
(8.4419e-09 -2.31273e-08 8.20036e-09)
(1.01127e-08 -2.82996e-08 1.03078e-08)
(1.18037e-08 -3.37702e-08 1.26708e-08)
(1.35424e-08 -3.95977e-08 1.5327e-08)
(1.53461e-08 -4.58011e-08 1.82849e-08)
(1.72177e-08 -5.23527e-08 2.15074e-08)
(1.9143e-08 -5.91684e-08 2.4893e-08)
(2.10867e-08 -6.60853e-08 2.82487e-08)
(2.30045e-08 -7.28178e-08 3.12943e-08)
(2.48731e-08 -7.88623e-08 3.37132e-08)
(2.67054e-08 -8.33218e-08 3.5301e-08)
(2.82648e-08 -8.49287e-08 3.61514e-08)
(1.23067e-09 -3.11372e-09 1.07151e-09)