/*--------------------------------*- C++ -*----------------------------------*\
| =========                 |                                                 |
| \\      /  F ield         | OpenFOAM: The Open Source CFD Toolbox           |
|  \\    /   O peration     | Version:  v1912                                 |
|   \\  /    A nd           | Website:  www.openfoam.com                      |
|    \\/     M anipulation  |                                                 |
\*---------------------------------------------------------------------------*/
FoamFile
{
    version     2.0;
    format      ascii;
    class       surfaceScalarField;
    location    "1/fluid";
    object      meshPhi;
}
// * * * * * * * * * * * * * * * * * * * * * * * * * * * * * * * * * * * * * //

dimensions      [0 3 -1 0 0 0 0];
oriented        oriented;


internalField   nonuniform List<scalar> 
41600
(
1.16127e-13
-3.46905e-13
1.30711e-13
-1.35029e-13
2.22469e-13
-1.01044e-12
3.8537e-13
-3.983e-13
3.23926e-13
-1.62578e-12
6.35385e-13
-6.57316e-13
4.25085e-13
-2.21418e-12
8.9747e-13
-9.29664e-13
5.30557e-13
-2.78975e-12
1.18673e-12
-1.23137e-12
6.45446e-13
-3.35839e-12
1.51742e-12
-1.57778e-12
7.76046e-13
-3.91581e-12
1.90341e-12
-1.98422e-12
9.30914e-13
-4.44367e-12
2.35836e-12
-2.46635e-12
1.12275e-12
-4.90281e-12
2.89554e-12
-3.04049e-12
1.37197e-12
-5.22134e-12
3.52737e-12
-3.72399e-12
1.71419e-12
-5.27333e-12
4.26506e-12
-4.53696e-12
2.21573e-12
-4.83928e-12
5.11995e-12
-5.50848e-12
3.0019e-12
-3.53176e-12
6.10933e-12
-6.69481e-12
4.28022e-12
-6.88178e-13
7.2622e-12
-8.21804e-12
6.09514e-12
4.32321e-12
8.54627e-12
-1.0192e-11
1.23468e-11
1.06831e-11
-1.51557e-11
3.44975e-13
-6.83544e-13
3.88665e-13
-4.01501e-13
6.60725e-13
-1.99141e-12
1.14579e-12
-1.18422e-12
9.6161e-13
-3.20557e-12
1.88881e-12
-1.95397e-12
1.26101e-12
-4.36884e-12
2.66721e-12
-2.7628e-12
1.57234e-12
-5.51044e-12
3.52569e-12
-3.65812e-12
1.91033e-12
-6.64446e-12
4.50641e-12
-4.68532e-12
2.29281e-12
-7.76648e-12
5.65033e-12
-5.88958e-12
2.74346e-12
-8.84737e-12
6.99767e-12
-7.3169e-12
3.29612e-12
-9.82264e-12
8.58713e-12
-9.01458e-12
4.00269e-12
-1.0575e-11
1.04536e-11
-1.10312e-11
4.94787e-12
-1.09086e-11
1.26245e-11
-1.34178e-11
6.27687e-12
-1.05142e-11
1.51165e-11
-1.62353e-11
8.23345e-12
-8.94614e-12
1.79327e-11
-1.95755e-11
1.11464e-11
-5.69997e-12
2.10446e-11
-2.35929e-11
1.48613e-11
-8.34281e-13
2.42233e-11
-2.82601e-11
5.01255e-12
2.66627e-11
-3.38699e-11
5.63885e-13
-9.99865e-13
6.36519e-13
-6.57525e-13
1.07949e-12
-2.91399e-12
1.87616e-12
-1.93902e-12
1.56969e-12
-4.69404e-12
3.09176e-12
-3.19825e-12
2.05566e-12
-6.40495e-12
4.36376e-12
-4.51981e-12
2.55852e-12
-8.09279e-12
5.76467e-12
-5.98057e-12
3.10106e-12
-9.78359e-12
7.3629e-12
-7.65413e-12
3.71011e-12
-1.14798e-11
9.2249e-12
-9.61353e-12
4.41976e-12
-1.31536e-11
1.14158e-11
-1.19329e-11
5.27586e-12
-1.47361e-11
1.39978e-11
-1.46874e-11
6.34261e-12
-1.61e-11
1.70252e-11
-1.79511e-11
7.71293e-12
-1.70381e-11
2.05347e-11
-2.17931e-11
9.52273e-12
-1.72444e-11
2.45294e-11
-2.6272e-11
1.19531e-11
-1.63317e-11
2.89513e-11
-3.14275e-11
1.51457e-11
-1.3978e-11
3.36203e-11
-3.72477e-11
1.86525e-11
-1.04605e-11
3.8048e-11
-4.33197e-11
-6.53322e-12
4.15941e-11
-5.04204e-11
7.6697e-13
-1.28561e-12
8.68215e-13
-8.96815e-13
1.46722e-12
-3.74844e-12
2.55844e-12
-2.64398e-12
2.13078e-12
-6.04385e-12
4.21399e-12
-4.35874e-12
2.78521e-12
-8.25908e-12
5.94328e-12
-6.15509e-12
3.45775e-12
-1.04587e-11
7.84396e-12
-8.1365e-12
4.1772e-12
-1.26846e-11
1.0008e-11
-1.04018e-11
4.97639e-12
-1.49533e-11
1.2525e-11
-1.3049e-11
5.89499e-12
-1.72511e-11
1.54827e-11
-1.61774e-11
6.98248e-12
-1.95249e-11
1.89654e-11
-1.98872e-11
8.30079e-12
-2.1669e-11
2.30468e-11
-2.42756e-11
9.92542e-12
-2.35071e-11
2.77751e-11
-2.94269e-11
1.19415e-11
-2.47775e-11
3.31462e-11
-3.53946e-11
1.44176e-11
-2.51393e-11
3.90549e-11
-4.21666e-11
1.7313e-11
-2.42603e-11
4.52024e-11
-4.95916e-11
2.01184e-11
-2.2183e-11
5.08821e-11
-5.69898e-11
-1.92201e-11
5.51524e-11
-6.48442e-11
9.49296e-13
-1.53067e-12
1.07846e-12
-1.11388e-12
1.81429e-12
-4.46522e-12
3.17687e-12
-3.28274e-12
2.63048e-12
-7.20726e-12
5.22895e-12
-5.4079e-12
3.4302e-12
-9.86568e-12
7.36727e-12
-7.62868e-12
4.24496e-12
-1.25243e-11
9.71088e-12
-1.00711e-11
5.10747e-12
-1.52434e-11
1.23718e-11
-1.28554e-11
6.05381e-12
-1.80593e-11
1.5459e-11
-1.61005e-11
7.12571e-12
-2.09816e-11
1.908e-11
-1.99269e-11
8.37195e-12
-2.39888e-11
2.33393e-11
-2.44569e-11
9.8475e-12
-2.70199e-11
2.8331e-11
-2.98102e-11
1.16084e-11
-2.99617e-11
3.41225e-11
-3.60914e-11
1.3697e-11
-3.26304e-11
4.07231e-11
-4.33663e-11
1.61025e-11
-3.47432e-11
4.80199e-11
-5.161e-11
1.86748e-11
-3.58887e-11
5.56461e-11
-6.05934e-11
2.08943e-11
-3.5657e-11
6.26791e-11
-6.93998e-11
-3.34942e-11
6.78428e-11
-7.81982e-11
1.10719e-12
-1.72537e-12
1.26302e-12
-1.30435e-12
2.11361e-12
-5.03602e-12
3.71889e-12
-3.84232e-12
3.05839e-12
-8.13792e-12
6.1156e-12
-6.32395e-12
3.97687e-12
-1.11597e-11
8.60519e-12
-8.90894e-12
4.903e-12
-1.42035e-11
1.13236e-11
-1.17412e-11
5.87132e-12
-1.73485e-11
1.43983e-11
-1.4957e-11
6.91899e-12
-2.06527e-11
1.79529e-11
-1.86912e-11
8.08769e-12
-2.41535e-11
2.21102e-11
-2.30803e-11
9.42441e-12
-2.78681e-11
2.69909e-11
-2.8264e-11
1.09799e-11
-3.1792e-11
3.27086e-11
-3.43821e-11
1.28036e-11
-3.58963e-11
3.93568e-11
-4.15653e-11
1.49309e-11
-4.01181e-11
4.69805e-11
-4.9915e-11
1.73503e-11
-4.43276e-11
5.55144e-11
-5.94517e-11
1.99281e-11
-4.82283e-11
6.46251e-11
-6.9982e-11
2.21673e-11
-5.11613e-11
7.32768e-11
-8.04686e-11
-5.1587e-11
7.9932e-11
-9.0993e-11
1.23836e-12
-1.861e-12
1.41896e-12
-1.46518e-12
2.36088e-12
-5.43509e-12
4.1758e-12
-4.31374e-12
3.40847e-12
-8.79332e-12
6.85947e-12
-7.09194e-12
4.41766e-12
-1.20805e-11
9.6362e-12
-9.97435e-12
5.42302e-12
-1.54144e-11
1.26537e-11
-1.31171e-11
6.45902e-12
-1.88909e-11
1.60493e-11
-1.66672e-11
7.56195e-12
-2.25875e-11
1.99557e-11
-2.07685e-11
8.77175e-12
-2.65673e-11
2.45039e-11
-2.55664e-11
1.01331e-11
-3.08823e-11
2.98241e-11
-3.12102e-11
1.16953e-11
-3.55792e-11
3.60428e-11
-3.78521e-11
1.35116e-11
-4.07073e-11
4.3275e-11
-4.56444e-11
1.56377e-11
-4.63295e-11
5.16084e-11
-5.47298e-11
1.81216e-11
-5.2528e-11
6.10592e-11
-6.52111e-11
2.09551e-11
-5.93533e-11
7.14287e-11
-7.70375e-11
2.3737e-11
-6.63879e-11
8.1748e-11
-8.92377e-11
-7.32586e-11
9.04002e-11
-1.02171e-10
1.34197e-12
1.54475e-12
-1.59481e-12
-1.93026e-12
2.55477e-12
4.5432e-12
-4.69248e-12
-5.64105e-12
3.67925e-12
7.45353e-12
-7.70467e-12
-9.13805e-12
4.7514e-12
1.04506e-11
-1.0815e-11
-1.25772e-11
5.80467e-12
1.36883e-11
-1.4186e-11
-1.60874e-11
6.87167e-12
1.73082e-11
-1.79688e-11
-1.97765e-11
7.9859e-12
2.14449e-11
-2.23095e-11
-2.37366e-11
9.18349e-12
2.62298e-11
-2.73535e-11
-2.80482e-11
1.05046e-11
3.17921e-11
-3.3248e-11
-3.27855e-11
1.19943e-11
3.82568e-11
-4.01429e-11
-3.80232e-11
1.37053e-11
4.57416e-11
-4.81905e-11
-4.38458e-11
1.57026e-11
5.43477e-11
-5.7544e-11
-5.03632e-11
1.80666e-11
6.41346e-11
-6.83458e-11
-5.77227e-11
2.08552e-11
7.50119e-11
-8.06528e-11
-6.60808e-11
2.3694e-11
8.60995e-11
-9.35867e-11
-7.50011e-11
9.66317e-11
-1.08659e-10
-8.60107e-11
1.18657e-13
-3.55349e-13
1.21643e-13
2.27254e-13
-1.03517e-12
3.58483e-13
3.30735e-13
-1.6661e-12
5.90548e-13
4.3368e-13
-2.27033e-12
8.33052e-13
5.40609e-13
-2.86287e-12
1.09958e-12
6.56382e-13
-3.45057e-12
1.40267e-12
7.86781e-13
-4.03027e-12
1.75401e-12
9.39431e-13
-4.58547e-12
2.16428e-12
1.12536e-12
-5.08061e-12
2.64229e-12
1.36201e-12
-5.45143e-12
3.19305e-12
1.67948e-12
-5.5891e-12
3.81431e-12
2.13344e-12
-5.31363e-12
4.49031e-12
2.82669e-12
-4.33088e-12
5.18041e-12
3.91618e-12
-2.19648e-12
5.79479e-12
5.40228e-12
1.40294e-12
6.15804e-12
6.08426e-12
6.17687e-12
3.52511e-13
-7.00152e-13
3.61711e-13
6.74983e-13
-2.04006e-12
1.06587e-12
9.81929e-13
-3.28488e-12
1.75556e-12
1.28673e-12
-4.47933e-12
2.47586e-12
1.60254e-12
-5.65436e-12
3.26696e-12
1.94339e-12
-6.82577e-12
4.16596e-12
2.32568e-12
-7.99123e-12
5.20746e-12
2.77043e-12
-9.12482e-12
6.42308e-12
3.30677e-12
-1.0168e-11
7.83873e-12
3.9781e-12
-1.10161e-11
9.46874e-12
4.85407e-12
-1.14997e-11
1.13045e-11
6.05212e-12
-1.13682e-11
1.32943e-11
7.76351e-12
-1.0299e-11
1.53056e-11
1.02196e-11
-8.02258e-12
1.70582e-11
1.32387e-11
-4.80542e-12
1.80729e-11
-2.20137e-12
1.72809e-11
5.76286e-13
-1.02412e-12
5.92404e-13
1.10298e-12
-2.98503e-12
1.74538e-12
1.60326e-12
-4.80992e-12
2.87383e-12
2.09835e-12
-6.56643e-12
4.05103e-12
2.60899e-12
-8.30311e-12
5.34225e-12
3.15695e-12
-1.00483e-11
6.80775e-12
3.76696e-12
-1.18072e-11
8.50387e-12
4.46918e-12
-1.35559e-11
1.04822e-11
5.30234e-12
-1.5232e-11
1.27854e-11
6.31812e-12
-1.67218e-11
1.54374e-11
7.58761e-12
-1.78461e-11
1.84244e-11
9.20871e-12
-1.83572e-11
2.16614e-11
1.1299e-11
-1.79858e-11
2.4932e-11
1.39101e-11
-1.66178e-11
2.77986e-11
1.66443e-11
-1.46888e-11
2.95872e-11
-1.35472e-11
2.93467e-11
7.84029e-13
-1.31675e-12
8.08106e-13
1.49959e-12
-3.83967e-12
2.38032e-12
2.1772e-12
-6.19272e-12
3.91736e-12
2.84456e-12
-8.46661e-12
5.51807e-12
3.52852e-12
-1.0729e-11
7.27042e-12
4.25677e-12
-1.30246e-11
9.25557e-12
5.05969e-12
-1.53728e-11
1.15498e-11
5.97238e-12
-1.77637e-11
1.42233e-11
7.03596e-12
-2.01502e-11
1.73357e-11
8.29765e-12
-2.24374e-11
2.09231e-11
9.80752e-12
-2.44712e-11
2.49747e-11
1.16074e-11
-2.60345e-11
2.93894e-11
1.36966e-11
-2.68745e-11
3.3902e-11
1.59481e-11
-2.68156e-11
3.79764e-11
1.7924e-11
-2.60307e-11
4.07835e-11
-2.54413e-11
4.12122e-11
9.70733e-13
-1.5677e-12
1.0039e-12
1.85505e-12
-4.57378e-12
2.95606e-12
2.68912e-12
-7.38445e-12
4.86157e-12
3.50559e-12
-1.01128e-11
6.84136e-12
4.33573e-12
-1.28462e-11
9.00278e-12
5.21119e-12
-1.5648e-11
1.14448e-11
6.16574e-12
-1.85575e-11
1.42608e-11
7.2366e-12
-2.15875e-11
1.75376e-11
8.46427e-12
-2.47208e-11
2.13508e-11
9.88911e-12
-2.7903e-11
2.57518e-11
1.15419e-11
-3.10331e-11
3.07423e-11
1.34215e-11
-3.3951e-11
3.62268e-11
1.54479e-11
-3.64187e-11
4.19264e-11
1.73848e-11
-3.81072e-11
4.72443e-11
1.87784e-11
-3.86972e-11
5.11807e-11
-3.83494e-11
5.23755e-11
1.13263e-12
-1.76711e-12
1.17588e-12
2.16206e-12
-5.15836e-12
3.46094e-12
3.12833e-12
-8.3377e-12
5.68692e-12
4.06728e-12
-1.14384e-11
7.99257e-12
5.01284e-12
-1.45667e-11
1.05006e-11
5.99881e-12
-1.7805e-11
1.33238e-11
7.06049e-12
-2.12141e-11
1.65686e-11
8.23577e-12
-2.48339e-11
2.03348e-11
9.56467e-12
-2.86839e-11
2.47115e-11
1.10857e-11
-3.27621e-11
2.97655e-11
1.28271e-11
-3.70427e-11
3.55174e-11
1.47875e-11
-4.1467e-11
4.18951e-11
1.68965e-11
-4.59089e-11
4.86436e-11
1.8944e-11
-5.00748e-11
5.51603e-11
2.04866e-11
-5.33231e-11
6.03113e-11
-5.45315e-11
6.24845e-11
1.26735e-12
-1.90602e-12
1.32129e-12
2.41616e-12
-5.56711e-12
3.88685e-12
3.48847e-12
-9.00904e-12
6.37992e-12
4.52155e-12
-1.23817e-11
8.95228e-12
5.55023e-12
-1.58072e-11
1.17374e-11
6.60867e-12
-1.93846e-11
1.48571e-11
7.73194e-12
-2.31943e-11
1.84257e-11
8.95734e-12
-2.73011e-11
2.25506e-11
1.03246e-11
-3.17579e-11
2.73288e-11
1.18744e-11
-3.66108e-11
3.28374e-11
1.36454e-11
-4.19059e-11
3.91136e-11
1.56681e-11
-4.76987e-11
4.61138e-11
1.79511e-11
-5.40532e-11
5.36288e-11
2.04335e-11
-6.09763e-11
6.1104e-11
2.27662e-11
-6.80268e-11
6.73486e-11
-7.44133e-11
7.05391e-11
1.37394e-12
1.43868e-12
-1.97699e-12
2.61581e-12
4.22965e-12
-5.77814e-12
3.76776e-12
6.93397e-12
-9.36225e-12
4.86674e-12
9.71136e-12
-1.28906e-11
5.94676e-12
1.27011e-11
-1.64964e-11
7.04054e-12
1.60289e-11
-2.02911e-11
8.18105e-12
1.98111e-11
-2.43692e-11
9.40296e-12
2.41557e-11
-2.88126e-11
1.07434e-11
2.91592e-11
-3.36951e-11
1.22427e-11
3.48986e-11
-3.90889e-11
1.39448e-11
4.1414e-11
-4.50721e-11
1.59005e-11
4.86746e-11
-5.1741e-11
1.81667e-11
5.65037e-11
-5.92158e-11
2.0768e-11
6.44149e-11
-6.75949e-11
2.3369e-11
7.1243e-11
-7.64057e-11
7.50686e-11
-8.65364e-11
1.20608e-13
-3.62807e-13
1.08282e-13
2.30878e-13
-1.05705e-12
3.18982e-13
3.35698e-13
-1.70183e-12
5.25042e-13
4.3951e-13
-2.32021e-12
7.39698e-13
5.46563e-13
-2.92802e-12
9.74575e-13
6.61202e-13
-3.53316e-12
1.24009e-12
7.88276e-13
-4.13401e-12
1.54545e-12
9.33727e-13
-4.71685e-12
1.89812e-12
1.10552e-12
-5.25161e-12
2.3025e-12
1.31537e-12
-5.68559e-12
2.75715e-12
1.5824e-12
-5.93483e-12
3.24972e-12
1.94003e-12
-5.87355e-12
3.74843e-12
2.44511e-12
-5.32459e-12
4.18811e-12
3.16941e-12
-4.07462e-12
4.45305e-12
4.05736e-12
-2.07092e-12
4.39701e-12
5.15304e-13
4.05604e-12
3.58343e-13
-7.14807e-13
3.21992e-13
6.85827e-13
-2.08304e-12
9.48451e-13
9.9682e-13
-3.35507e-12
1.56089e-12
1.30432e-12
-4.57723e-12
2.19851e-12
1.62071e-12
-5.78208e-12
2.89575e-12
1.95857e-12
-6.98728e-12
3.68343e-12
2.33166e-12
-8.19317e-12
4.58887e-12
2.75627e-12
-9.37843e-12
5.63433e-12
3.25301e-12
-1.04935e-11
6.83306e-12
3.84981e-12
-1.14518e-11
8.1812e-12
4.58742e-12
-1.21215e-11
9.6431e-12
5.52809e-12
-1.23274e-11
1.11267e-11
6.75876e-12
-1.18882e-11
1.24453e-11
8.34248e-12
-1.0748e-11
1.32789e-11
1.00449e-11
-9.26441e-12
1.3259e-11
-8.53276e-12
1.20698e-11
5.85948e-13
-1.04548e-12
5.27386e-13
1.12098e-12
-3.04768e-12
1.55321e-12
1.6281e-12
-4.91217e-12
2.55536e-12
2.12799e-12
-6.70892e-12
3.59758e-12
2.64024e-12
-8.48867e-12
4.73582e-12
3.18446e-12
-1.02821e-11
6.02026e-12
3.78148e-12
-1.20975e-11
7.49553e-12
4.45453e-12
-1.39161e-11
9.19844e-12
5.23007e-12
-1.5685e-11
1.11518e-11
6.13805e-12
-1.73091e-11
1.33521e-11
7.2109e-12
-1.86464e-11
1.5747e-11
8.47764e-12
-1.95209e-11
1.81995e-11
9.93957e-12
-1.97875e-11
2.04358e-11
1.14942e-11
-1.94977e-11
2.20072e-11
1.27758e-11
-1.91099e-11
2.24389e-11
-1.9524e-11
2.16288e-11
7.97444e-13
-1.34412e-12
7.19487e-13
1.52466e-12
-3.91991e-12
2.11847e-12
2.21202e-12
-6.32361e-12
3.48367e-12
2.88663e-12
-8.64882e-12
4.90113e-12
3.57402e-12
-1.09658e-11
6.44629e-12
4.29931e-12
-1.33216e-11
8.18692e-12
5.08834e-12
-1.57388e-11
1.01837e-11
5.96812e-12
-1.82115e-11
1.24875e-11
6.96578e-12
-2.07e-11
1.51319e-11
8.10422e-12
-2.31234e-11
1.81184e-11
9.39182e-12
-2.53551e-11
2.1389e-11
1.07994e-11
-2.72297e-11
2.47844e-11
1.22144e-11
-2.85847e-11
2.79857e-11
1.33759e-11
-2.93685e-11
3.04777e-11
1.39103e-11
-2.97863e-11
3.17051e-11
-3.04469e-11
3.15339e-11
9.87769e-13
-1.60017e-12
8.9393e-13
1.887e-12
-4.66894e-12
2.63124e-12
2.73382e-12
-7.53963e-12
4.32403e-12
3.56035e-12
-1.03286e-11
6.0776e-12
4.39652e-12
-1.3126e-11
7.98413e-12
5.27142e-12
-1.59976e-11
1.01265e-11
6.21419e-12
-1.89848e-11
1.25792e-11
7.25392e-12
-2.21031e-11
1.54059e-11
8.41717e-12
-2.53386e-11
1.86515e-11
9.72059e-12
-2.86432e-11
2.23261e-11
1.11549e-11
-3.19279e-11
2.63759e-11
1.2652e-11
-3.50556e-11
3.06376e-11
1.40275e-11
-3.78308e-11
3.47743e-11
1.49217e-11
-3.99938e-11
3.82248e-11
1.49412e-11
-4.12774e-11
4.03265e-11
-4.17036e-11
4.08295e-11
1.15308e-12
-1.80358e-12
1.04723e-12
2.20055e-12
-5.26526e-12
3.08115e-12
3.18257e-12
-8.51197e-12
5.05907e-12
4.1346e-12
-1.16806e-11
7.10186e-12
5.08945e-12
-1.48802e-11
9.315e-12
6.07859e-12
-1.81953e-11
1.17932e-11
7.13314e-12
-2.16879e-11
1.46217e-11
8.28367e-12
-2.53986e-11
1.78742e-11
9.55775e-12
-2.9346e-11
2.16055e-11
1.0973e-11
-3.35261e-11
2.5835e-11
1.25227e-11
-3.79086e-11
3.05184e-11
1.41463e-11
-4.24263e-11
3.54998e-11
1.56794e-11
-4.69388e-11
4.04402e-11
1.67942e-11
-5.1136e-11
4.47453e-11
1.70851e-11
-5.43846e-11
4.76391e-11
-5.55252e-11
4.87499e-11
1.29091e-12
-1.94526e-12
1.17694e-12
2.46066e-12
-5.68212e-12
3.46098e-12
3.5516e-12
-9.19652e-12
5.67676e-12
4.60084e-12
-1.26422e-11
7.9566e-12
5.64238e-12
-1.61439e-11
1.04154e-11
6.70852e-12
-1.98027e-11
1.31555e-11
7.83091e-12
-2.36995e-11
1.62691e-11
9.04086e-12
-2.78977e-11
1.98358e-11
1.0368e-11
-3.24461e-11
2.39159e-11
1.18362e-11
-3.73819e-11
2.85353e-11
1.34559e-11
-4.27343e-11
3.36578e-11
1.52092e-11
-4.85263e-11
3.91369e-11
1.70241e-11
-5.47604e-11
4.46382e-11
1.87309e-11
-6.13411e-11
4.954e-11
1.99937e-11
-6.77408e-11
5.29495e-11
-7.30356e-11
5.43511e-11
1.40024e-12
1.28175e-12
-2.01762e-12
2.66562e-12
3.767e-12
-5.89726e-12
3.83881e-12
6.17116e-12
-9.55647e-12
4.95685e-12
8.63363e-12
-1.31604e-11
6.05326e-12
1.12744e-11
-1.68452e-11
7.15944e-12
1.41995e-11
-2.07237e-11
8.30583e-12
1.75027e-11
-2.48904e-11
9.52258e-12
2.12646e-11
-2.94247e-11
1.08393e-11
2.55452e-11
-3.43944e-11
1.22836e-11
3.037e-11
-3.9859e-11
1.38787e-11
3.5704e-11
-4.58741e-11
1.56379e-11
4.14052e-11
-5.24943e-11
1.75545e-11
4.71466e-11
-5.97661e-11
1.95613e-11
5.23071e-11
-6.76696e-11
2.13291e-11
5.59323e-11
-7.56544e-11
5.70706e-11
-8.43684e-11
1.22017e-13
-3.69148e-13
9.12052e-14
2.33423e-13
-1.07566e-12
2.68577e-13
3.3899e-13
-1.73224e-12
4.41744e-13
4.42943e-13
-2.36268e-12
6.21601e-13
5.49158e-13
-2.98358e-12
8.17554e-13
6.6133e-13
-3.60378e-12
1.03776e-12
7.83196e-13
-4.22321e-12
1.28898e-12
9.18786e-13
-4.83088e-12
1.57592e-12
1.07273e-12
-5.40199e-12
1.89979e-12
1.25093e-12
-5.89423e-12
2.25557e-12
1.46209e-12
-6.24392e-12
2.62765e-12
1.72088e-12
-6.36374e-12
2.98359e-12
2.05159e-12
-6.14366e-12
3.26739e-12
2.48101e-12
-5.46233e-12
3.40017e-12
2.96191e-12
-4.27973e-12
3.31906e-12
-2.42907e-12
3.20899e-12
3.62579e-13
-7.27262e-13
2.7122e-13
6.93501e-13
-2.11957e-12
7.98616e-13
1.0068e-12
-3.41473e-12
1.31332e-12
1.31485e-12
-4.66045e-12
1.84761e-12
1.629e-12
-5.89065e-12
2.42935e-12
1.95996e-12
-7.12471e-12
3.0827e-12
2.31838e-12
-8.3655e-12
3.8278e-12
2.7152e-12
-9.59617e-12
4.67878e-12
3.16188e-12
-1.07755e-11
5.6396e-12
3.67069e-12
-1.18329e-11
6.6962e-12
4.25558e-12
-1.26664e-11
7.80419e-12
4.93351e-12
-1.31523e-11
8.87133e-12
5.72128e-12
-1.31835e-11
9.74007e-12
6.60683e-12
-1.27615e-11
1.01944e-11
7.43159e-12
-1.21328e-11
1.00779e-11
-1.1895e-11
9.41878e-12
5.93041e-13
-1.06362e-12
4.44262e-13
1.13389e-12
-3.10085e-12
1.30794e-12
1.64504e-12
-4.9989e-12
2.15025e-12
2.14628e-12
-6.82964e-12
3.02369e-12
2.65561e-12
-8.6456e-12
3.97355e-12
3.1899e-12
-1.04795e-11
5.03926e-12
3.76536e-12
-1.23424e-11
6.25382e-12
4.39743e-12
-1.42202e-11
7.64099e-12
5.09957e-12
-1.60683e-11
9.20873e-12
5.88029e-12
-1.78073e-11
1.09376e-11
6.73733e-12
-1.93233e-11
1.27622e-11
7.6464e-12
-2.04857e-11
1.45473e-11
8.53915e-12
-2.12072e-11
1.60663e-11
9.27051e-12
-2.15637e-11
1.7023e-11
9.63194e-12
-2.18806e-11
1.72233e-11
-2.26647e-11
1.68954e-11
8.07422e-13
-1.36731e-12
6.0615e-13
1.54292e-12
-3.98786e-12
1.78414e-12
2.23628e-12
-6.4343e-12
2.93176e-12
2.91356e-12
-8.80251e-12
4.11989e-12
3.5984e-12
-1.11647e-11
5.40967e-12
4.31267e-12
-1.357e-11
6.85445e-12
5.07677e-12
-1.6043e-11
8.49932e-12
5.90872e-12
-1.85813e-11
1.03777e-11
6.82096e-12
-2.11508e-11
1.25033e-11
7.81313e-12
-2.36808e-11
1.48561e-11
8.85783e-12
-2.60626e-11
1.73606e-11
9.87506e-12
-2.81593e-11
1.98587e-11
1.06946e-11
-2.98423e-11
2.20895e-11
1.10414e-11
-3.10692e-11
2.37207e-11
1.07225e-11
-3.1953e-11
2.45262e-11
-3.28377e-11
2.47265e-11
1.00062e-12
-1.62761e-12
7.53218e-13
1.91066e-12
-4.7493e-12
2.21631e-12
2.7657e-12
-7.67038e-12
3.63957e-12
3.59678e-12
-1.05097e-11
5.10978e-12
4.43188e-12
-1.33594e-11
6.70173e-12
5.29674e-12
-1.62868e-11
8.48078e-12
6.21491e-12
-1.93344e-11
1.05026e-11
7.20641e-12
-2.25187e-11
1.28096e-11
8.28332e-12
-2.58269e-11
1.54222e-11
9.44004e-12
-2.92126e-11
1.83235e-11
1.06344e-11
-3.25899e-11
2.14359e-11
1.17536e-11
-3.58256e-11
2.45915e-11
1.25667e-11
-3.87265e-11
2.75113e-11
1.27118e-11
-4.10239e-11
2.9834e-11
1.19671e-11
-4.24103e-11
3.12751e-11
-4.27805e-11
3.19998e-11
1.16874e-12
-1.83433e-12
8.82531e-13
2.22956e-12
-5.35527e-12
2.59572e-12
3.22218e-12
-8.65826e-12
4.25905e-12
4.18112e-12
-1.18828e-11
5.97223e-12
5.13735e-12
-1.51398e-11
7.82094e-12
6.11923e-12
-1.85147e-11
9.88e-12
7.15269e-12
-2.20695e-11
1.22134e-11
8.25999e-12
-2.58429e-11
1.48707e-11
9.45574e-12
-2.98499e-11
1.78782e-11
1.07381e-11
-3.40788e-11
2.12233e-11
1.2072e-11
-3.84865e-11
2.48295e-11
1.33593e-11
-4.29827e-11
2.85243e-11
1.43964e-11
-4.73901e-11
3.20123e-11
1.48536e-11
-5.13492e-11
3.48939e-11
1.44728e-11
-5.42096e-11
3.68118e-11
-5.48288e-11
3.7896e-11
1.30922e-12
-1.97825e-12
9.92015e-13
2.49479e-12
-5.77867e-12
2.91625e-12
3.59878e-12
-9.35333e-12
4.78006e-12
4.65756e-12
-1.28586e-11
6.69266e-12
5.70359e-12
-1.64209e-11
8.74749e-12
6.7665e-12
-2.01419e-11
1.10257e-11
7.8735e-12
-2.41008e-11
1.35965e-11
9.04889e-12
-2.83574e-11
1.65138e-11
1.03115e-11
-3.29524e-11
1.98072e-11
1.16692e-11
-3.79086e-11
2.34663e-11
1.31096e-11
-4.32295e-11
2.74151e-11
1.45835e-11
-4.88943e-11
3.14759e-11
1.59853e-11
-5.48346e-11
3.53319e-11
1.71389e-11
-6.08598e-11
3.8526e-11
1.78283e-11
-6.64108e-11
4.06006e-11
-7.05891e-11
4.16537e-11
1.42095e-12
1.08056e-12
-2.0517e-12
2.70444e-12
3.17471e-12
-5.99699e-12
3.89305e-12
5.19751e-12
-9.71843e-12
5.02332e-12
7.26408e-12
-1.33838e-11
6.12761e-12
9.47219e-12
-1.71306e-11
7.23518e-12
1.1906e-11
-2.1072e-11
8.37296e-12
1.46363e-11
-2.53001e-11
9.56552e-12
1.77176e-11
-2.98892e-11
1.0834e-11
2.1179e-11
-3.48968e-11
1.21938e-11
2.50092e-11
-4.03643e-11
1.36501e-11
2.91298e-11
-4.63166e-11
1.51917e-11
3.33581e-11
-5.27584e-11
1.67831e-11
3.73617e-11
-5.96596e-11
1.8347e-11
4.06383e-11
-6.69054e-11
1.96515e-11
4.26402e-11
-7.39415e-11
4.3141e-11
-8.13303e-11
1.2296e-13
-3.74275e-13
7.10864e-14
2.35064e-13
-1.0907e-12
2.09265e-13
3.4094e-13
-1.75683e-12
3.43971e-13
4.44576e-13
-2.39702e-12
4.8352e-13
5.49442e-13
-3.02848e-12
6.34982e-13
6.58591e-13
-3.66081e-12
8.0429e-13
7.74726e-13
-4.29513e-12
9.96063e-13
9.00196e-13
-4.92257e-12
1.21298e-12
1.03695e-12
-5.52206e-12
1.45457e-12
1.18668e-12
-6.05797e-12
1.71513e-12
1.35168e-12
-6.47797e-12
1.98095e-12
1.53735e-12
-6.71208e-12
2.22729e-12
1.7567e-12
-6.6713e-12
2.41777e-12
2.03101e-12
-6.24391e-12
2.51249e-12
2.34417e-12
-5.34513e-12
2.49509e-12
-3.66447e-12
2.55426e-12
3.65443e-13
-7.37333e-13
2.114e-13
6.98511e-13
-2.14911e-12
6.22281e-13
1.01281e-12
-3.46295e-12
1.02269e-12
1.32006e-12
-4.72764e-12
1.43727e-12
1.63043e-12
-5.97818e-12
1.88696e-12
1.95285e-12
-7.23523e-12
2.38937e-12
2.29502e-12
-8.50363e-12
2.95826e-12
2.66323e-12
-9.76982e-12
3.60178e-12
3.0616e-12
-1.09983e-11
4.31887e-12
3.49128e-12
-1.21284e-11
5.09345e-12
3.9502e-12
-1.30739e-11
5.88646e-12
4.43468e-12
-1.37317e-11
6.62754e-12
4.94315e-12
-1.40094e-11
7.21361e-12
5.47452e-12
-1.38822e-11
7.53197e-12
5.97345e-12
-1.34794e-11
7.53851e-12
-1.31906e-11
7.2724e-12
5.97914e-13
-1.07827e-12
3.46301e-13
1.14248e-12
-3.14381e-12
1.01923e-12
1.65556e-12
-5.0689e-12
1.67456e-12
2.15589e-12
-6.92685e-12
2.35238e-12
2.65979e-12
-8.77153e-12
3.08675e-12
3.18143e-12
-1.06372e-11
3.90643e-12
3.7327e-12
-1.25368e-11
4.8341e-12
4.32228e-12
-1.44594e-11
5.88367e-12
4.95337e-12
-1.63657e-11
7.0548e-12
5.61968e-12
-1.8185e-11
8.32419e-12
6.29955e-12
-1.98161e-11
9.63391e-12
6.94841e-12
-2.11429e-11
1.08803e-11
7.49267e-12
-2.20796e-11
1.19147e-11
7.83811e-12
-2.26578e-11
1.25807e-11
7.9319e-12
-2.30872e-11
1.28229e-11
-2.37403e-11
1.28151e-11
8.14403e-13
-1.38602e-12
4.7254e-13
1.55535e-12
-4.04266e-12
1.39047e-12
2.25184e-12
-6.5234e-12
2.28346e-12
2.92871e-12
-8.92579e-12
3.20565e-12
3.60756e-12
-1.13234e-11
4.20305e-12
4.30707e-12
-1.37667e-11
5.31464e-12
5.04254e-12
-1.62815e-11
6.57157e-12
5.82425e-12
-1.88671e-11
7.99378e-12
6.65329e-12
-2.14918e-11
9.58329e-12
7.51386e-12
-2.40888e-11
1.13136e-11
8.36044e-12
-2.65541e-11
1.31163e-11
9.09912e-12
-2.87535e-11
1.48687e-11
9.57077e-12
-3.05484e-11
1.63989e-11
9.57837e-12
-3.18548e-11
1.75329e-11
9.09442e-12
-3.2712e-11
1.82017e-11
-3.34044e-11
1.85649e-11
1.00979e-12
-1.64972e-12
5.87269e-13
1.92715e-12
-4.81396e-12
1.72752e-12
2.78685e-12
-7.77529e-12
2.83517e-12
3.61865e-12
-1.06543e-11
3.97655e-12
4.44842e-12
-1.35444e-11
5.20796e-12
5.29854e-12
-1.65136e-11
6.57729e-12
6.18734e-12
-1.96046e-11
8.12315e-12
7.12706e-12
-2.28331e-11
9.87123e-12
8.1188e-12
-2.61846e-11
1.18269e-11
9.14293e-12
-2.96094e-11
1.39634e-11
1.01425e-11
-3.30152e-11
1.62071e-11
1.09978e-11
-3.62565e-11
1.84245e-11
1.15e-11
-3.91173e-11
2.04283e-11
1.1376e-11
-4.12936e-11
2.20266e-11
1.05589e-11
-4.24585e-11
2.31191e-11
-4.25313e-11
2.38338e-11
1.1801e-12
-1.85904e-12
6.88196e-13
2.25021e-12
-5.4275e-12
2.02357e-12
3.24931e-12
-8.77525e-12
3.31831e-12
4.21068e-12
-1.20435e-11
4.64863e-12
5.16332e-12
-1.53442e-11
6.07915e-12
6.13239e-12
-1.87629e-11
7.66476e-12
7.13894e-12
-2.23602e-11
9.44998e-12
8.19812e-12
-2.61717e-11
1.14651e-11
9.31487e-12
-3.02059e-11
1.37186e-11
1.04756e-11
-3.44407e-11
1.61842e-11
1.1634e-11
-3.88146e-11
1.87848e-11
1.26899e-11
-4.32092e-11
2.13772e-11
1.34658e-11
-4.74074e-11
2.37543e-11
1.37179e-11
-5.10117e-11
2.56929e-11
1.33229e-11
-5.33966e-11
2.70535e-11
-5.35578e-11
2.79657e-11
1.32272e-12
-2.0047e-12
7.73695e-13
2.51958e-12
-5.85595e-12
2.27383e-12
3.63202e-12
-9.47833e-12
3.72492e-12
4.69536e-12
-1.30299e-11
5.21053e-12
5.74034e-12
-1.66379e-11
6.80119e-12
6.79377e-12
-2.04031e-11
8.55658e-12
7.87865e-12
-2.44027e-11
1.0525e-11
9.01317e-12
-2.86907e-11
1.27394e-11
1.02082e-11
-3.32983e-11
1.52097e-11
1.14623e-11
-3.82314e-11
1.79094e-11
1.27548e-11
-4.34669e-11
2.07572e-11
1.40365e-11
-4.89432e-11
2.35978e-11
1.5226e-11
-5.45379e-11
2.61959e-11
1.6221e-11
-6.00118e-11
2.82741e-11
1.69178e-11
-6.48497e-11
2.96316e-11
-6.83338e-11
3.04294e-11
1.43647e-12
8.42887e-13
-2.07897e-12
2.73317e-12
2.47578e-12
-6.07664e-12
3.93223e-12
4.051e-12
-9.84716e-12
5.0694e-12
5.65673e-12
-1.356e-11
6.1756e-12
7.36689e-12
-1.73531e-11
7.27784e-12
9.24344e-12
-2.13385e-11
8.39953e-12
1.1336e-11
-2.56053e-11
9.56038e-12
1.36778e-11
-3.0221e-11
1.07752e-11
1.62781e-11
-3.52313e-11
1.20523e-11
1.91085e-11
-4.06585e-11
1.33906e-11
2.20834e-11
-4.64976e-11
1.47791e-11
2.50372e-11
-5.27103e-11
1.62008e-11
2.77098e-11
-5.92127e-11
1.76339e-11
2.97712e-11
-6.58481e-11
1.89354e-11
3.09512e-11
-7.21262e-11
3.12404e-11
-7.87391e-11
1.23535e-13
-3.7813e-13
4.86612e-14
2.36018e-13
-1.10201e-12
1.43217e-13
3.4194e-13
-1.77532e-12
2.35293e-13
4.45067e-13
-2.42285e-12
3.30497e-13
5.48513e-13
-3.06219e-12
4.33525e-13
6.54794e-13
-3.70347e-12
5.4822e-13
7.6581e-13
-4.3486e-12
6.77415e-13
8.82701e-13
-4.98996e-12
8.22482e-13
1.0057e-12
-5.60857e-12
9.82487e-13
1.13422e-12
-6.17191e-12
1.15296e-12
1.268e-12
-6.63182e-12
1.32445e-12
1.41043e-12
-6.92217e-12
1.48162e-12
1.57548e-12
-6.95318e-12
1.60468e-12
1.79339e-12
-6.59948e-12
1.67606e-12
2.06985e-12
-5.74452e-12
1.69255e-12
-4.04512e-12
1.78921e-12
3.67219e-13
-7.44918e-13
1.44717e-13
7.01486e-13
-2.17136e-12
4.25897e-13
1.01601e-12
-3.49925e-12
6.99609e-13
1.32185e-12
-4.77816e-12
9.82465e-13
1.6282e-12
-6.04379e-12
1.28838e-12
1.94246e-12
-7.31766e-12
1.62875e-12
2.27008e-12
-8.60585e-12
2.01207e-12
2.61399e-12
-9.89669e-12
2.44251e-12
2.97366e-12
-1.11576e-11
2.9176e-12
3.34441e-12
-1.23321e-11
3.42463e-12
3.71834e-12
-1.33387e-11
3.93657e-12
4.08933e-12
-1.40758e-11
4.40952e-12
4.46538e-12
-1.44398e-11
4.78639e-12
4.88135e-12
-1.4366e-11
5.01432e-12
5.34416e-12
-1.3921e-11
5.08002e-12
-1.34492e-11
4.98549e-12
6.01009e-13
-1.08932e-12
2.37082e-13
1.14774e-12
-3.17616e-12
6.97632e-13
1.66142e-12
-5.12155e-12
1.14565e-12
2.15981e-12
-6.99979e-12
1.60816e-12
2.65776e-12
-8.86562e-12
2.10779e-12
3.16719e-12
-1.07542e-11
2.66321e-12
3.69665e-12
-1.26796e-11
3.28842e-12
4.25001e-12
-1.46324e-11
3.99073e-12
4.82407e-12
-1.65754e-11
4.76706e-12
5.40526e-12
-1.84406e-11
5.59862e-12
5.96629e-12
-2.01284e-11
6.44502e-12
6.46547e-12
-2.15185e-11
7.24102e-12
6.85487e-12
-2.25048e-11
7.90295e-12
7.10707e-12
-2.307e-11
8.35476e-12
7.25188e-12
-2.33679e-11
8.57594e-12
-2.37673e-11
8.64656e-12
8.18949e-13
-1.40012e-12
3.2354e-13
1.5632e-12
-4.08389e-12
9.51833e-13
2.26095e-12
-6.5903e-12
1.56241e-12
2.93589e-12
-9.018e-12
2.19174e-12
3.60784e-12
-1.14415e-11
2.87044e-12
4.29281e-12
-1.39116e-11
3.62384e-12
5.00219e-12
-1.6455e-11
4.47125e-12
5.74079e-12
-1.90708e-11
5.42334e-12
6.50284e-12
-2.17273e-11
6.47765e-12
7.26565e-12
-2.43566e-11
7.61208e-12
7.98069e-12
-2.68508e-11
8.77801e-12
8.56423e-12
-2.90652e-11
9.89736e-12
8.89745e-12
-3.08371e-11
1.08722e-11
8.86921e-12
-3.20415e-11
1.1617e-11
8.53175e-12
-3.26911e-11
1.21021e-11
-3.31017e-11
1.23934e-11
1.01589e-12
-1.66634e-12
4.02139e-13
1.93784e-12
-4.86253e-12
1.1827e-12
2.7998e-12
-7.85386e-12
1.94015e-12
3.63027e-12
-1.07621e-11
2.71919e-12
4.45329e-12
-1.36812e-11
3.55731e-12
5.28842e-12
-1.66795e-11
4.48568e-12
6.14999e-12
-1.97988e-11
5.5283e-12
7.0448e-12
-2.30533e-11
6.69914e-12
7.9676e-12
-2.64249e-11
7.99708e-12
8.89326e-12
-2.98579e-11
9.39857e-12
9.76501e-12
-3.32494e-11
1.085e-11
1.04792e-11
-3.64366e-11
1.22644e-11
1.0876e-11
-3.91787e-11
1.35329e-11
1.07751e-11
-4.11462e-11
1.45586e-11
1.0179e-11
-4.20232e-11
1.52937e-11
-4.17995e-11
1.57867e-11
1.18782e-12
-1.87759e-12
4.7131e-13
2.26396e-12
-5.48163e-12
1.38556e-12
3.26657e-12
-8.86261e-12
2.27109e-12
4.22779e-12
-1.21629e-11
3.17926e-12
5.17482e-12
-1.54946e-11
4.15315e-12
6.13016e-12
-1.8943e-11
5.22856e-12
7.11107e-12
-2.25667e-11
6.43319e-12
8.12783e-12
-2.63976e-11
7.78371e-12
9.17993e-12
-3.04374e-11
9.28019e-12
1.02499e-11
-3.46528e-11
1.08981e-11
1.12942e-11
-3.8965e-11
1.25795e-11
1.22313e-11
-4.32317e-11
1.42282e-11
1.29342e-11
-4.72089e-11
1.57194e-11
1.32487e-11
-5.04875e-11
1.69348e-11
1.31103e-11
-5.24895e-11
1.78074e-11
-5.23437e-11
1.83976e-11
1.33206e-12
-2.02452e-12
5.29932e-13
2.53644e-12
-5.91375e-12
1.55713e-12
3.65388e-12
-9.57143e-12
2.54974e-12
4.71868e-12
-1.31566e-11
3.56415e-12
5.75995e-12
-1.67966e-11
4.64742e-12
6.80217e-12
-2.05913e-11
5.83852e-12
7.86502e-12
-2.46147e-11
7.16754e-12
8.96257e-12
-2.89157e-11
8.65267e-12
1.01013e-11
-3.35157e-11
1.02944e-11
1.12773e-11
-3.84057e-11
1.20667e-11
1.24736e-11
-4.35407e-11
1.39069e-11
1.36594e-11
-4.88299e-11
1.57073e-11
1.47992e-11
-5.41217e-11
1.732e-11
1.58702e-11
-5.91714e-11
1.85894e-11
1.6819e-11
-6.35355e-11
1.94159e-11
-6.66538e-11
1.99031e-11
1.44736e-12
5.77396e-13
-2.09936e-12
2.75307e-12
1.69564e-12
-6.13608e-12
3.95871e-12
2.77336e-12
-9.94281e-12
5.09917e-12
3.87008e-12
-1.36898e-11
6.20405e-12
5.03518e-12
-1.75151e-11
7.29837e-12
6.3092e-12
-2.15293e-11
8.40284e-12
7.72307e-12
-2.58178e-11
9.5338e-12
9.29511e-12
-3.04416e-11
1.07027e-11
1.10251e-11
-3.54359e-11
1.19161e-11
1.28853e-11
-4.08062e-11
1.31767e-11
1.48085e-11
-4.65241e-11
1.44889e-11
1.66772e-11