/*--------------------------------*- C++ -*----------------------------------*\
| =========                 |                                                 |
| \\      /  F ield         | OpenFOAM: The Open Source CFD Toolbox           |
|  \\    /   O peration     | Version:  v1912                                 |
|   \\  /    A nd           | Website:  www.openfoam.com                      |
|    \\/     M anipulation  |                                                 |
\*---------------------------------------------------------------------------*/
FoamFile
{
    version     2.0;
    format      ascii;
    class       volScalarField;
    location    "1/fluid";
    object      p;
}
// * * * * * * * * * * * * * * * * * * * * * * * * * * * * * * * * * * * * * //

dimensions      [0 2 -2 0 0 0 0];


internalField   nonuniform List<scalar> 
14592
(
0.048496
0.0428664
0.0409505
0.0393361
0.0384197
0.0377371
0.0372411
0.0368424
0.0364848
0.0362105
0.0358866
0.0357565
0.0353358
0.035581
0.0348293
0.0365398
0.0443454
0.0425931
0.0409097
0.0395324
0.0386044
0.0378927
0.0373593
0.0369363
0.0365663
0.0362926
0.0359771
0.0358758
0.035487
0.0358565
0.0350396
0.0376656
0.0423472
0.0417355
0.0404988
0.0394872
0.0386392
0.037956
0.0374114
0.0369785
0.0366045
0.0363399
0.036049
0.0360054
0.035681
0.0362505
0.0355138
0.0390008
0.0411683
0.0410293
0.0401712
0.0394146
0.0386645
0.038016
0.0374594
0.0370044
0.0366101
0.0363381
0.0360569
0.0360598
0.0358026
0.0365575
0.0359416
0.0399909
0.0404676
0.0404538
0.0398318
0.039243
0.0385827
0.0379745
0.0374164
0.0369415
0.0365176
0.0362155
0.0359051
0.0358959
0.0356247
0.0364576
0.035875
0.0403277
0.0400169
0.0400393
0.0395661
0.0390779
0.0384805
0.0378989
0.0373363
0.0368393
0.036384
0.0360502
0.0357142
0.0357076
0.035465
0.036462
0.036064
0.0411163
0.0397216
0.0397483
0.0393522
0.0389158
0.0383515
0.0377779
0.0371989
0.0366645
0.0361519
0.0357373
0.0352896
0.0351268
0.0346478
0.0353599
0.0344138
0.039586
0.0395439
0.0395708
0.0392067
0.0387894
0.0382333
0.0376524
0.0370509
0.0364795
0.0359185
0.0354432
0.0349327
0.0347113
0.034214
0.0351028
0.0344308
0.0420733
0.0484206
0.0427931
0.0409151
0.0393427
0.0384802
0.0378573
0.0374285
0.0371043
0.0368325
0.036653
0.0364428
0.0364087
0.0361269
0.0362891
0.0356689
0.0362162
0.0442702
0.0425181
0.0408734
0.0395388
0.0386652
0.0380137
0.0375479
0.0372001
0.0369164
0.0367377
0.0365349
0.0365243
0.0362593
0.0364944
0.0357846
0.0367084
0.0422677
0.0416544
0.040455
0.0394857
0.0386923
0.03807
0.0375941
0.0372373
0.0369502
0.0367813
0.0366019
0.0366465
0.0364357
0.0368276
0.0361432
0.0375501
0.0410861
0.0409449
0.0401227
0.0394072
0.0387107
0.0381223
0.0376337
0.0372546
0.0369465
0.0367707
0.0365998
0.0366911
0.0365394
0.0370957
0.0364917
0.0382394
0.0403821
0.0403659
0.0397784
0.0392292
0.0386211
0.038071
0.037579
0.0371774
0.0368363
0.0366269
0.0364199
0.036494
0.03631
0.036927
0.0362964
0.0383254
0.0399285
0.0399484
0.0395087
0.0390587
0.0385118
0.037986
0.0374868
0.0370601
0.0366836
0.0364394
0.0362014
0.0362791
0.0361138
0.036906
0.0364206
0.0389889
0.0396297
0.039654
0.0392905
0.0388908
0.038375
0.0378543
0.0373345
0.0368652
0.0364233
0.0360881
0.0357207
0.0356245
0.0351756
0.035664
0.0344818
0.0371568
0.0394481
0.0394725
0.0391405
0.0387587
0.0382494
0.0377187
0.0371726
0.0366616
0.0361651
0.035763
0.035324
0.0351709
0.0346949
0.0354194
0.0344676
0.0396692
0.0483787
0.0427529
0.0409037
0.0393653
0.0385489
0.0379796
0.037615
0.0373667
0.037191
0.0371299
0.0370888
0.0372571
0.0373278
0.0378194
0.0379785
0.0386424
0.0442284
0.0424766
0.0408617
0.0395616
0.0387346
0.0381373
0.0377363
0.0374654
0.037279
0.0372207
0.0371894
0.0373834
0.0374749
0.0380341
0.0381565
0.0390964
0.0422216
0.0416072
0.0404362
0.0395009
0.0387542
0.0381871
0.0377768
0.0374979
0.0373087
0.0372617
0.0372547
0.0375078
0.0376608
0.0383857
0.0385795
0.0399452
0.0410369
0.0408942
0.0400989
0.0394162
0.0387655
0.0382316
0.0378081
0.0375066
0.0372962
0.0372432
0.0372455
0.0375508
0.0377685
0.0386718
0.0389757
0.0406588
0.0403291
0.0403113
0.0397494
0.0392316
0.0386676
0.0381704
0.0377415
0.0374154
0.0371687
0.0370791
0.0370397
0.0373259
0.0375017
0.0384699
0.0387312
0.0406841
0.0398722
0.0398904
0.0394754
0.0390556
0.0385509
0.0380756
0.0376368
0.0372825
0.0369961
0.0368678
0.0367905
0.0370786
0.0372597
0.0384122
0.0387851
0.0412801
0.0395696
0.0395922
0.0392526
0.0388817
0.0384062
0.037933
0.0374696
0.0370671
0.0367068
0.0364762
0.0362484
0.0363385
0.0361756
0.0369787
0.0364733
0.0390409
0.039384
0.0394068
0.039098
0.0387439
0.0382731
0.0377869
0.0372933
0.0368439
0.036421
0.0361135
0.0357968
0.0358137
0.0355791
0.0366061
0.0361908
0.0412992
0.0483582
0.0427335
0.0409059
0.0393936
0.038613
0.0380849
0.0377686
0.0375742
0.037461
0.0374639
0.0375008
0.0377212
0.0378786
0.0383289
0.0385539
0.0389952
0.0442079
0.0424564
0.0408637
0.0395901
0.0387995
0.0382439
0.0378916
0.0376748
0.0375514
0.0375574
0.0376037
0.037847
0.0380184
0.0385136
0.0387
0.0393206
0.0421972
0.041582
0.0404321
0.0395228
0.0388126
0.0382877
0.0379267
0.0377025
0.0375763
0.0375932
0.0376613
0.0379589
0.0381817
0.0388167
0.0390421
0.0399959
0.0410094
0.0408657
0.0400902
0.0394325
0.0388174
0.0383252
0.0379505
0.0377034
0.0375551
0.0375655
0.0376404
0.0379876
0.0382657
0.039063
0.0393733
0.040595
0.040298
0.0402789
0.0397357
0.0392417
0.0387118
0.038255
0.0378732
0.0375997
0.0374125
0.0373836
0.0374112
0.0377345
0.0379563
0.0388058
0.0390356
0.0404989
0.0398378
0.0398547
0.0394576
0.0390604
0.0385882
0.0381516
0.0377577
0.0374537
0.0372236
0.0371535
0.037138
0.0374616
0.0376774
0.0387101
0.0390186
0.0410107
0.0395316
0.0395529
0.0392304
0.038881
0.0384362
0.0379995
0.0375781
0.0372222
0.0369128
0.0367343
0.0365576
0.0366752
0.0365221
0.0371987
0.0365631
0.0386178
0.0393423
0.0393638
0.0390716
0.0387381
0.0382964
0.0378447
0.0373902
0.036984
0.0366072
0.0363474
0.0360746
0.0361177
0.0358804
0.0367948
0.0362097
0.040791
0.0483513
0.0427277
0.0409166
0.039425
0.0386732
0.0381796
0.037905
0.0377589
0.037705
0.0377741
0.0378984
0.0382012
0.0384894
0.0390083
0.0394055
0.0397913
0.0442011
0.04245
0.0408744
0.039622
0.0388607
0.0383399
0.0380298
0.0378619
0.0377988
0.0378722
0.0380076
0.0383342
0.0386385
0.039194
0.0395602
0.0400885
0.0421871
0.0415715
0.0404377
0.039549
0.0388684
0.0383789
0.0380605
0.0378859
0.03782
0.0379043
0.0380601
0.0384387
0.0387889
0.0394731
0.0398674
0.0406855
0.0409966
0.0408522
0.0400918
0.0394539
0.0388677
0.0384104
0.0380779
0.0378801
0.0377916
0.0378692
0.0380302
0.0384576
0.0388582
0.0396982
0.0401666
0.0412332
0.0402819
0.040262
0.0397329
0.0392576
0.0387554
0.0383323
0.0379913
0.0377657
0.0376359
0.037672
0.0377812
0.0381813
0.0385155
0.0394008
0.0397651
0.041061
0.0398187
0.0398347
0.0394511
0.0390716
0.0386257
0.0382212
0.0378662
0.037608
0.0374324
0.0374244
0.0374854
0.0378829
0.0382
0.0392651
0.0396807
0.0414981
0.0395092
0.0395296
0.03922
0.0388874
0.0384674
0.0380609
0.0376757
0.0373622
0.0371023
0.0369802
0.0368699
0.0370523
0.0369771
0.0376728
0.0370864
0.0389478
0.0393167
0.0393374
0.0390575
0.03874
0.0383216
0.0378982
0.0374774
0.0371101
0.036778
0.036569
0.0363534
0.0364536
0.0362741
0.0371998
0.0366113
0.0409762
0.0483511
0.0427282
0.0409287
0.0394517
0.0387203
0.0382505
0.0380041
0.0378888
0.0378702
0.037973
0.0381368
0.0384617
0.0387845
0.0392836
0.0396968
0.0400316
0.044201
0.0424501
0.0408864
0.039649
0.0389085
0.0384118
0.03813
0.0379933
0.0379658
0.0380732
0.0382484
0.0385963
0.038934
0.0394629
0.0398418
0.0402962
0.0421844
0.0415684
0.0404459
0.0395719
0.038912
0.038447
0.0381574
0.0380142
0.0379837
0.0381015
0.0382949
0.0386913
0.0390675
0.0397123
0.0401044
0.0408203
0.0409917
0.0408467
0.0400968
0.039473
0.038907
0.0384738
0.0381697
0.0380031
0.0379494
0.03806
0.0382567
0.0386995
0.0391198
0.0399119
0.040364
0.0413157
0.0402743
0.0402538
0.0397345
0.0392724
0.0387896
0.0383897
0.0380761
0.0378806
0.037784
0.0378515
0.037993
0.0384055
0.0387511
0.0395813
0.0399102
0.0410834
0.0398086
0.0398241
0.0394497
0.0390826
0.0386551
0.0382728
0.0379439
0.0377143
0.03757
0.0375918
0.0376817
0.0380899
0.0384111
0.0394177
0.0397795
0.0414704
0.0394966
0.0395164
0.0392155
0.0388947
0.0384919
0.0381062
0.0377454
0.0374585
0.0372271
0.0371319
0.0370457
0.0372356
0.0371542
0.0377877
0.0371209
0.0388455
0.0393015
0.0393217
0.0390502
0.0387437
0.0383417
0.0379378
0.0375396
0.037197
0.0368907
0.0367061
0.0365105
0.0366167
0.0364239
0.0372879
0.0365989
0.0408136
0.0483536
0.0427312
0.0409394
0.0394723
0.0387547
0.0383015
0.0380751
0.0379824
0.0379907
0.0381213
0.0383192
0.0386708
0.0390321
0.03954
0.0399852
0.040298
0.0442035
0.0424528
0.0408972
0.0396699
0.0389435
0.0384636
0.0382021
0.0380883
0.0380882
0.0382241
0.0384343
0.0388095
0.0391867
0.039723
0.0401338
0.0405537
0.0421851
0.041569
0.040454
0.03959
0.0389443
0.0384963
0.0382272
0.0381073
0.0381041
0.0382502
0.0384775
0.0388995
0.0393111
0.0399562
0.0403727
0.0410392
0.0409909
0.0408456
0.0401028
0.0394885
0.0389363
0.0385199
0.0382361
0.0380926
0.0380659
0.0382044
0.0384339
0.038901
0.0393533
0.0401412
0.04061
0.0415059
0.0402717
0.0402508
0.0397381
0.0392849
0.0388152
0.0384316
0.0381376
0.0379644
0.0378938
0.0379881
0.0381601
0.038595
0.0389671
0.0397888
0.0401228
0.0412362
0.0398043
0.0398194
0.0394512
0.0390925
0.0386775
0.0383105
0.0380003
0.037792
0.0376722
0.0377194
0.0378374
0.0382662
0.0386085
0.0396036
0.039958
0.0415868
0.0394904
0.0395099
0.0392148
0.0389018
0.0385109
0.0381396
0.0377962
0.0375291
0.03732
0.037248
0.037186
0.0373935
0.0373256
0.0379433
0.0372504
0.0389044
0.0392936
0.0393134
0.0390475
0.0387484
0.0383574
0.0379671
0.037585
0.0372606
0.0369744
0.0368107
0.0366356
0.0367566
0.0365702
0.037415
0.036683
0.0408181
0.0483552
0.0427336
0.0409449
0.0394829
0.0387716
0.0383261
0.0381085
0.0380252
0.038044
0.0381838
0.0383919
0.0387475
0.0391155
0.0396163
0.0400638
0.040368
0.0442055
0.0424547
0.0409028
0.0396805
0.0389607
0.0384885
0.0382358
0.0381315
0.0381417
0.0382865
0.0385065
0.038885
0.0392681
0.0397954
0.0402085
0.0406149
0.0421861
0.0415698
0.0404585
0.0395992
0.0389601
0.0385199
0.0382597
0.0381491
0.038156
0.0383105
0.0385463
0.0389697
0.0393841
0.0400157
0.0404305
0.0410778
0.0409912
0.0408456
0.0401062
0.0394963
0.0389506
0.0385418
0.0382669
0.0381325
0.0381156
0.0382622
0.0384995
0.0389669
0.0394195
0.0401911
0.0406541
0.0415281
0.040271
0.0402498
0.0397403
0.0392912
0.0388278
0.0384514
0.038166
0.0380017
0.0379404
0.0380424
0.0382212
0.0386555
0.0390258
0.039829
0.0401519
0.0412414
0.0398027
0.0398175
0.0394523
0.0390975
0.0386883
0.0383284
0.0380262
0.0378265
0.0377155
0.0377699
0.0378938
0.0383215
0.0386598
0.0396346
0.0399715
0.0415746
0.0394879
0.0395071
0.0392149
0.0389055
0.0385201
0.0381554
0.0378196
0.0375605
0.0373594
0.0372941
0.0372371
0.0374433
0.0373696
0.0379665
0.0372501
0.038875
0.0392901
0.0393097
0.0390465
0.0387509
0.0383651
0.0379809
0.0376059
0.0372889
0.0370101
0.0368525
0.0366814
0.0368006
0.0366062
0.0374283
0.0366649
0.0407627
0.0577406
0.0469802
0.0433063
0.040288
0.0385455
0.0372069
0.0361915
0.0352954
0.0344458
0.0335878
0.0326363
0.0316044
0.0303545
0.0289998
0.0272884
0.0255381
0.0534829
0.0462418
0.042951
0.0402162
0.0385249
0.037209
0.0362
0.0353074
0.0344626
0.0336144
0.0326734
0.0316552
0.0304197
0.0290833
0.0273859
0.0256456
0.0514663
0.0451869
0.0422967
0.0398948
0.0383308
0.0370978
0.0361285
0.0352586
0.0344288
0.0335978
0.0326751
0.0316778
0.0304717
0.0291696
0.027513
0.0258071
0.0502171
0.0443791
0.0418241
0.0396535
0.0382055
0.0370401
0.0360981
0.0352381
0.0344102
0.0335806
0.0326616
0.0316716
0.0304808
0.0291983
0.0275698
0.025891
0.0494697
0.0437618
0.0414122
0.0393956
0.0380472
0.0369454
0.036034
0.0351872
0.0343625
0.0335312
0.0326116
0.0316224
0.0304407
0.0291706
0.0275673
0.0259146
0.0489883
0.0433296
0.0411153
0.0391964
0.0379194
0.0368623
0.0359721
0.0351323
0.0343056
0.0334676
0.0325429
0.03155
0.0303739
0.0291129
0.0275357
0.0259106
0.0486839
0.043039
0.0408973
0.0390326
0.0377991
0.0367691
0.0358916
0.0350535
0.0342211
0.0333726
0.0324383
0.0314352
0.0302585
0.0289985
0.0274469
0.0258499
0.0485139
0.0428735
0.0407641
0.0389224
0.037707
0.0366862
0.0358106
0.0349682
0.0341269
0.033267
0.0323243
0.0313132
0.0301405
0.0288865
0.0273691
0.0258066
0.0534849
0.0462418
0.0429488
0.0402107
0.0385144
0.0371918
0.0361736
0.0352747
0.0344195
0.0335531
0.0325903
0.03155
0.0302836
0.0289244
0.0271885
0.0254555
0.0493053
0.0458708
0.042787
0.0402786
0.0385927
0.0372612
0.0362213
0.0353066
0.0344421
0.0335722
0.0326092
0.0315725
0.0303133
0.0289689
0.027249
0.0255286
0.047288
0.0449127
0.0422138
0.0400328
0.0384506
0.0371831
0.0361671
0.0352655
0.0344088
0.0335479
0.0325967
0.0315747
0.0303386
0.02902
0.0273342
0.0256481
0.0460544
0.044128
0.0417761
0.0398284
0.0383561
0.0371494
0.0361538
0.0352562
0.034396
0.033532
0.0325816
0.0315642
0.0303416
0.0290407
0.0273808
0.0257191
0.0453133
0.0435076
0.0413715
0.0395799
0.0382064
0.0370618
0.0360958
0.0352099
0.0343508
0.0334844
0.0325332
0.0315166
0.0303032
0.0290144
0.0273794
0.025743
0.0448355
0.0430695
0.0410752
0.0393828
0.0380811
0.0369813
0.0360372
0.0351583
0.0342971
0.0334251
0.0324703
0.0314519
0.0302467
0.0289691
0.0273627
0.0257543
0.0445325
0.0427746
0.0408559
0.0392186
0.037961
0.0368885
0.0359579
0.0350814
0.0342155
0.0333345
0.032372
0.0313453
0.0301419
0.028867
0.0272893
0.0257084
0.0443632
0.0426074
0.0407225
0.0391089
0.0378698
0.0368072
0.035879
0.034999
0.0341261
0.0332356
0.0322673
0.0312355
0.0300404
0.0287751
0.0272367
0.0256906
0.0514953
0.0452151
0.0423324
0.0399385
0.038384
0.0371606
0.0362004
0.0353487
0.0345259
0.033686
0.0327367
0.031711
0.0304178
0.0290408
0.027157
0.0253397
0.0473163
0.0449424
0.0422546
0.0400864
0.0385204
0.0372712
0.0362766
0.0354032
0.0345672
0.03372
0.0327686
0.0317458
0.0304595
0.0290986
0.027233
0.025432
0.0452946
0.0440524
0.0417728
0.0399439
0.0384582
0.0372477
0.0362563
0.0353861
0.0345537
0.0337097
0.0327672
0.0317567
0.0304925
0.0291533
0.0273111
0.0255287
0.0440766
0.0433026
0.0413889
0.0398034
0.0384199
0.0372581
0.0362738
0.0353986
0.0345566
0.0337039
0.0327592
0.0317514
0.0305001
0.0291777
0.0273584
0.025598
0.0433461
0.0426965
0.0410118
0.0395897
0.0383027
0.0371968
0.0362342
0.0353638
0.0345174
0.0336576
0.0327086
0.0316987
0.0304545
0.0291416
0.0273456
0.0256094
0.0428758
0.0422637
0.0407274
0.0394084
0.0381932
0.0371295
0.0361843
0.0353161
0.0344639
0.0335955
0.0326411
0.0316282
0.0303935
0.0290942
0.0273343
0.025633
0.0425761
0.0419698
0.0405122
0.0392503
0.0380793
0.0370414
0.0361063
0.0352363
0.0343757
0.0334946
0.0325288
0.0315033
0.0302685
0.0289692
0.0272476
0.0255816
0.0424076
0.0418022
0.0403796
0.039142
0.0379895
0.0369604
0.0360253
0.0351483
0.0342782
0.0333858
0.0324127
0.0313807
0.0301571
0.0288713
0.0272074
0.0255907
0.0502767
0.0444388
0.041906
0.0397619
0.0383477
0.0372194
0.0363163
0.0355063
0.0347129
0.0339035
0.0329709
0.031968
0.0306362
0.0292376
0.0271196
0.0251694
0.0461138
0.044189
0.0418642
0.0399492
0.0385192
0.0373594
0.036417
0.0355797
0.0347682
0.033949
0.0330132
0.0320136
0.0306901
0.0293105
0.0272083
0.0252766
0.0441069
0.0433328
0.0414355
0.0398711
0.0385154
0.0373842
0.036434
0.035591
0.0347758
0.0339557
0.033027
0.0320385
0.0307354
0.0293725
0.0272735
0.0253288
0.0429062
0.0426072
0.0410848
0.0397713
0.0385158
0.037427
0.0364755
0.0356201
0.03479
0.0339576
0.0330251
0.0320388
0.0307483
0.0294004
0.0273145
0.0253807
0.0421883
0.0420155
0.0407278
0.0395821
0.038422
0.0373846
0.0364484
0.0355919
0.0347527
0.0339088
0.0329687
0.0319769
0.0306906
0.0293483
0.0272811
0.0253674
0.0417266
0.0415907
0.0404533
0.0394122
0.0383232
0.037325
0.0364016
0.0355432
0.0346948
0.0338393
0.032892
0.0318965
0.030622
0.0292976
0.0272784
0.0254116
0.041431
0.0413001
0.0402421
0.0392585
0.0382125
0.0372376
0.0363204
0.0354561
0.0345953
0.0337217
0.0327575
0.0317423
0.0304638
0.0291344
0.0271693
0.0253518
0.0412632
0.0411328
0.0401098
0.0391502
0.0381218
0.0371538
0.0362335
0.0353595
0.0344863
0.0335977
0.0326238
0.0316001
0.0303379
0.0290295
0.027155
0.0254172
0.0495642
0.0438581
0.0415519
0.0395892
0.0383121
0.0372916
0.0364685
0.0357267
0.0349936
0.0342511
0.0333742
0.0324451
0.0311123
0.0297467
0.0273317
0.0252216
0.0454078
0.0436045
0.0415174
0.0397872
0.0384948
0.037443
0.0365803
0.03581
0.0350585
0.0343074
0.0334292
0.0325071
0.0311868
0.0298477
0.0274461
0.0253497
0.0434101
0.0427603
0.0411139
0.0397426
0.0385246
0.0374976
0.0366235
0.0358426
0.0350836
0.0343307
0.0334606
0.0325516
0.0312519
0.0299255
0.0274944
0.0253344
0.0422218
0.0420488
0.0407826
0.0396667
0.0385485
0.0375602
0.0366801
0.0358821
0.0351046
0.0343381
0.0334644
0.0325596
0.0312743
0.0299647
0.0275331
0.0253681
0.0415142
0.041468
0.0404397
0.0394943
0.0384709
0.0375307
0.0366606
0.0358562
0.0350646
0.0342822
0.0333972
0.0324833
0.0311986
0.0298914
0.0274721
0.0253229
0.0410596
0.0410502
0.0401732
0.0393331
0.0383795
0.0374755
0.0366139
0.035803
0.0349979
0.0341997
0.0333046
0.0323856
0.0311158
0.0298345
0.0274811
0.0254008
0.0407673
0.0407626
0.0399654
0.0391823
0.0382703
0.0373866
0.0365264
0.0357044
0.03488
0.034055
0.033133
0.032181
0.0308964
0.0295971
0.0273167
0.0253066
0.0405995
0.0405951
0.0398327
0.0390727
0.0381769
0.0372974
0.0364305
0.0355942
0.0347521
0.0339054
0.0329677
0.032001
0.0307357
0.0294655
0.0273228
0.0254503
0.0491082
0.0434528
0.0413071
0.0394743
0.0383128
0.0373886
0.0366443
0.0359748
0.0353093
0.034643
0.0338302
0.0329845
0.0316401
0.030298
0.0274445
0.0251072
0.0449554
0.043192
0.0412722
0.039674
0.0384983
0.0375439
0.03676
0.0360621
0.0353793
0.0347063
0.0338945
0.0330604
0.031733
0.0304254
0.0275617
0.0251861
0.0429628
0.0423495
0.0408762
0.0396413
0.0385417
0.0376127
0.0368162
0.0361052
0.0354144
0.0347408
0.0339393
0.0331223
0.0318137
0.0305114
0.0275499
0.0249969
0.0417822
0.0416447
0.040553
0.039575
0.0385751
0.0376832
0.0368782
0.0361473
0.0354363
0.0347489
0.0339453
0.0331359
0.0318432
0.0305588
0.0275638
0.0249579
0.041081
0.0410701
0.040217
0.03941
0.0385041
0.0376577
0.0368595
0.0361181
0.0353887
0.0346815
0.0338623
0.0330398
0.0317421
0.0304553
0.0274567
0.0248509
0.040631
0.0406565
0.0399547
0.0392521
0.0384147
0.0376018
0.036809
0.0360573
0.0353099
0.0345829
0.033751
0.0329233
0.0316453
0.0303984
0.0274913
0.0249874
0.0403404
0.0403705
0.039748
0.0391014
0.0383037
0.0375078
0.0367128
0.0359444
0.03517
0.0344063
0.0335349
0.032657
0.0313481
0.0300637
0.0272566
0.0248565
0.0401716
0.0402019
0.0396135
0.0389892
0.038206
0.0374114
0.0366065
0.0358195
0.0350213
0.0342289
0.0333362
0.032439
0.0311583
0.0299271
0.0273425
0.0252085
0.0488125
0.0431729
0.0411321
0.0393933
0.0383298
0.0374966
0.0368391
0.0362602
0.0356926
0.0351491
0.0344749
0.0338309
0.0326601
0.031629
0.0286293
0.0264083
0.0446611
0.0429062
0.0410947
0.0395915
0.0385149
0.0376523
0.0369557
0.0363501
0.0357671
0.0352198
0.0345499
0.0339243
0.0327775
0.0317951
0.0287551
0.0264381
0.042669
0.0420603
0.040697
0.0395591
0.0385602
0.0377245
0.037015
0.0363968
0.0358068
0.0352616
0.0346064
0.0340071
0.0328848
0.0319258
0.0287463
0.0261831
0.0414916
0.0413574
0.0403755
0.0394946
0.0385948
0.0377953
0.0370759
0.0364362
0.0358256
0.0352684
0.0346144
0.0340318
0.0329353
0.0320173
0.0287893
0.0261492
0.0407931
0.0407851
0.0400414
0.0393309
0.038524
0.0377682
0.0370526
0.0363986
0.0357658
0.0351849
0.0345111
0.0339136
0.0328084
0.0318952
0.0286535
0.0260089
0.0403449
0.0403731
0.0397801
0.039173
0.0384329
0.0377081
0.0369946
0.0363259
0.0356705
0.0350655
0.0343751
0.0337727
0.0326918
0.0318417
0.0287192
0.026227
0.0400542
0.0400869
0.0395726
0.0390202
0.0383176
0.0376067
0.0368865
0.036194
0.035502
0.0348463
0.0340964
0.0334144
0.0322621
0.0313231
0.0282777
0.025907
0.0398832
0.0399161
0.0394353
0.038904
0.038214
0.0375013
0.0367673
0.0360499
0.035326
0.034631
0.0338474
0.0331319
0.0320007
0.0311282
0.0283697
0.026476
0.0486192
0.0429864
0.0410187
0.0393499
0.0383661
0.0376109
0.0370329
0.0365384
0.0360617
0.035626
0.0350666
0.034567
0.0334912
0.0325817
0.0291915
0.0265594
0.0444685
0.0427157
0.0409793
0.0395468
0.0385509
0.0377663
0.0371498
0.0366299
0.036139
0.0357013
0.0351475
0.0346688
0.033611
0.0327326
0.0291314
0.0259694
0.042474
0.0418643
0.0405758
0.0395092
0.0385925
0.0378356
0.0372067
0.0366754
0.0361788
0.0357458
0.0352094
0.0347633
0.0337247
0.0328611
0.0289741
0.0251276
0.0412969
0.0411606
0.0402522
0.0394418
0.0386235
0.0379024
0.0372622
0.0367089
0.0361915
0.0357479
0.0352147
0.0347925
0.0337819
0.0329664
0.0289654
0.0248343
0.0405982
0.0405876
0.0399165
0.0392754
0.0385484
0.0378694
0.0372305
0.0366598
0.0361165
0.0356455
0.0350872
0.034647
0.0336182
0.0328078
0.0287654
0.0245586
0.0401496
0.0401752
0.0396538
0.0391148
0.0384526
0.0378025
0.0371627
0.0365736
0.0360036
0.035505
0.0349267
0.0344847
0.0334859
0.0327708
0.0288928
0.0248686
0.0398572
0.0398871
0.0394438
0.038958
0.038331
0.0376922
0.0370411
0.0364218
0.035806
0.0352439
0.0345862
0.0340367
0.0329221
0.0320659
0.028239
0.0242932
0.0396832
0.0397133
0.0393027
0.0388371
0.0382207
0.0375773
0.0369086
0.0362589
0.0356045
0.0349951
0.0342959
0.033711
0.0326295
0.0319109
0.028521
0.0253655
0.0394682
0.0394961
0.0391271
0.0386982
0.0381222
0.0375136
0.0368731
0.0362451
0.0356051
0.0350045
0.0343071
0.0337183
0.0326185
0.031872
0.0284037
0.0251344
0.0394955
0.0395243
0.039113
0.0386473
0.038031
0.0373801
0.0366986
0.0360226
0.0353274
0.0346512
0.0338748
0.0331578
0.0320057
0.0311024
0.0282626
0.0262835
0.0396428
0.0396673
0.0391645
0.0386258
0.0379444
0.0372394
0.0365074
0.0357777
0.0350207
0.0342555
0.0333741
0.0324758
0.0311717
0.0299052
0.0272408
0.0250302
0.0399594
0.0399488
0.0392833
0.038623
0.0378473
0.0370799
0.0363096
0.0355451
0.0347541
0.0339424
0.0330212
0.0320561
0.0307699
0.0294665
0.027255
0.025316
0.0405352
0.0403985
0.0394803
0.0386312
0.0377387
0.0368968
0.0360922
0.0353046
0.0344907
0.0336439
0.0326907
0.0316709
0.0303906
0.0290507
0.0271167
0.0253187
0.0416188
0.0410086
0.0396978
0.03858
0.0375745
0.0366834
0.0358731
0.0350936
0.0342915
0.0334449
0.0324952
0.0314683
0.0302284
0.0289128
0.027196
0.0255232
0.0435377
0.0417815
0.040017
0.0385302
0.0374431
0.0365217
0.0357165
0.0349383
0.0341436
0.0333028
0.0323603
0.0313345
0.0301247
0.0288308
0.0272443
0.0256446
0.0476887
0.0420581
0.040074
0.0383622
0.0372997
0.0364202
0.0356642
0.0349225
0.0341606
0.0333474
0.0324283
0.0314209
0.0302319
0.0289474
0.0273807
0.0257628
0.0393678
0.0393933
0.0390555
0.0386609
0.0381299
0.0375686
0.0369786
0.0364043
0.0358184
0.0352764
0.0346265
0.0340776
0.0329375
0.0320452
0.0280878
0.0239679
0.0393904
0.0394169
0.0390364
0.0386042
0.0380309
0.0374247
0.03679
0.0361626
0.0355148
0.0348888
0.0341516
0.0334712
0.0322898
0.0313092
0.0281327
0.025629
0.0395325
0.0395547
0.0390824
0.0385765
0.0379371
0.0372739
0.036584
0.0358972
0.0351796
0.0344537
0.0335986
0.0327212
0.0313799
0.0300477
0.0271196
0.0246073
0.0398439
0.0398312
0.0391958
0.0385675
0.0378323
0.0371059
0.0363747
0.0356482
0.0348915
0.0341125
0.0332123
0.0322638
0.0309516
0.0296086
0.0272288
0.0251246
0.0404154
0.0402768
0.0393883
0.0385705
0.037717
0.0369134
0.0361462
0.035393
0.034608
0.0337877
0.0328503
0.0318414
0.0305401
0.0291712
0.0271247
0.0252265
0.0414958
0.0408841
0.0396031
0.0385162
0.0375487
0.0366945
0.0359201
0.0351727
0.0343972
0.033574
0.0326384
0.0316209
0.0303671
0.0290318
0.0272413
0.0255027
0.0434138
0.0416574
0.0399231
0.0384669
0.0374164
0.0365302
0.0357573
0.0350095
0.0342411
0.0334218
0.0324925
0.0314753
0.030256
0.0289478
0.02731
0.0256614
0.0475647
0.0419359
0.0399819
0.0383009
0.0372753
0.0364318
0.0357085
0.0349981
0.0342644
0.0334744
0.032571
0.0315751
0.0303806
0.0290851
0.027472
0.0258046
0.0392994
0.0393233
0.0390078
0.0386397
0.0381454
0.0376255
0.0370831
0.0365629
0.0360385
0.0355718
0.0350084
0.0345728
0.0335379
0.0327704
0.0286685
0.0243338
0.0393177
0.0393427
0.0389841
0.0385774
0.0380387
0.0374712
0.03688
0.0363007
0.0357051
0.0351412
0.0344698
0.0338732
0.0327518
0.0318429
0.0285079
0.0257914
0.0394552
0.039476
0.0390253
0.0385443
0.037938
0.0373104
0.0366594
0.0360143
0.0353392
0.0346608
0.0338504
0.0330252
0.0317029
0.0303896
0.027297
0.0246171
0.0397624
0.0397483
0.039134
0.0385297
0.0378268
0.0371343
0.0364382
0.0357485
0.0350274
0.0342863
0.0334188
0.0325057
0.0311999
0.029861
0.027364
0.0251468
0.0403304
0.0401905
0.0393228
0.0385284
0.0377053
0.0369337
0.0361993
0.0354783
0.0347229
0.0339323
0.0330184
0.0320324
0.0307302
0.0293567
0.027227
0.025251
0.0414083
0.0407956
0.0395354
0.0384713
0.0375335
0.0367093
0.0359662
0.0352487
0.0344995
0.0337015
0.0327849
0.0317843
0.0305287
0.0291873
0.0273397
0.0255456
0.0433256
0.0415692
0.039856
0.0384226
0.0374005
0.036543
0.0357979
0.0350777
0.0343347
0.0335379
0.0326251
0.0316214
0.0304004
0.0290861
0.0274071
0.0257156
0.0474766
0.041849
0.0399162
0.0382583
0.0372614
0.0364473
0.0357521
0.0350702
0.0343635
0.0335971
0.0327119
0.0317313
0.0305377
0.0292377
0.0275868
0.0258751
0.0392538
0.0392765
0.0389769
0.0386285
0.0381619
0.037674
0.0371675
0.0366859
0.036201
0.035774
0.0352416
0.034822
0.0337545
0.0328832
0.0284953
0.0237834
0.0392683
0.0392923
0.0389492
0.0385615
0.0380489
0.0375114
0.0369532
0.0364089
0.035848
0.0353185
0.0346722
0.03409
0.0329385
0.0319554
0.0284022
0.0254187
0.0394021
0.0394218
0.0389864
0.038524
0.0379427
0.0373424
0.0367217
0.0361075
0.035462
0.0348118
0.0340198
0.0332041
0.0318525
0.0304824
0.0272199
0.024358
0.0397059
0.0396908
0.0390914
0.0385049
0.0378266
0.0371602
0.0364916
0.0358298
0.0351344
0.0344174
0.0335653
0.0326607
0.0313334
0.0299565
0.0273433
0.0250087
0.0402711
0.0401304
0.0392773
0.0385002
0.0377003
0.0369537
0.0362448
0.0355487
0.0348156
0.0340455
0.0331443
0.0321655
0.0308479
0.0294487
0.0272401
0.0251872
0.041347
0.0407337
0.0394882
0.038441
0.0375256
0.0367245
0.0360065
0.0353132
0.034584
0.0338046
0.0328999
0.0319067
0.0306413
0.0292828
0.0273814
0.0255335
0.043264
0.0415075
0.0398094
0.0383928
0.0373922
0.0365571
0.0358342
0.0351362
0.0344136
0.0336343
0.0327331
0.0317371
0.03051
0.029184
0.0274665
0.0257341
0.0474149
0.0417882
0.0398706
0.0382298
0.0372549
0.0364637
0.035791
0.0351322
0.0344475
0.0337
0.0328284
0.0318577
0.030661
0.0293517
0.0276653
0.0259124
0.0392249
0.0392468
0.0389589
0.0386256
0.038181
0.0377193
0.0372434
0.0367966
0.0363499
0.0359654
0.0354759
0.0350974
0.0340498
0.0331614
0.0286235
0.0236482
0.0392363
0.0392595
0.0389279
0.0385545
0.0380623
0.0375494
0.0370192
0.0365058
0.0359778
0.0354841
0.0348711
0.0343203
0.0331753
0.0321735
0.0284894
0.0253248
0.039367
0.039386
0.0389618
0.0385133
0.0379513
0.0373732
0.0367778
0.0361908
0.0355729
0.0349516
0.0341842
0.0333902
0.032036
0.0306457
0.0272736
0.02428
0.039668
0.0396523
0.0390636
0.0384905
0.037831
0.0371854
0.0365398
0.0359021
0.0352303
0.0345371
0.033704
0.0328155
0.0314839
0.0300906
0.0273983
0.0249744
0.0402309
0.0400897
0.0392472
0.038483
0.0377006
0.036974
0.036286
0.0356109
0.0348981
0.0341478
0.0332617
0.032295
0.0309733
0.0295619
0.0272978
0.025184
0.0413053
0.0406916
0.0394566
0.038422
0.0375236
0.0367404
0.036043
0.0353701
0.0346586
0.0338966
0.0330049
0.0320218
0.0307539
0.0293864
0.0274459
0.0255543
0.0432219
0.0414655
0.0397782
0.038374
0.0373898
0.0365721
0.0358672
0.0351877
0.0344827
0.0337194
0.0328302
0.0318434
0.0306151
0.0292825
0.0275362
0.0257701
0.0473729
0.0417469
0.0398401
0.038212
0.0372537
0.0364805
0.0358259
0.0351865
0.0345206
0.0337901
0.0329317
0.0319716
0.0307753
0.0294607
0.0277474
0.0259602
0.0392072
0.0392285
0.0389486
0.0386258
0.0381966
0.0377531
0.0372979
0.0368734
0.0364492
0.0360856
0.035611
0.0352356
0.0341646
0.0332142
0.0285318
0.0233569
0.0392162
0.0392389
0.038915
0.0385516
0.0380738
0.037578
0.0370668
0.0365737
0.0360655
0.0355901
0.0349891
0.0344409
0.0332741
0.0322239
0.028425
0.0251259
0.0393446
0.0393631
0.0389465
0.0385078
0.0379593
0.0373968
0.0368189
0.0362499
0.0356492
0.0350436
0.0342857
0.0334941
0.032121
0.030694
0.0272324
0.02414
0.0396435
0.0396273
0.0390461
0.0384822
0.0378361
0.0372052
0.0365755
0.0359541
0.0352975
0.0346181
0.0337933
0.0329075
0.0315619
0.0301428
0.0273866
0.0248949
0.0402048
0.0400632
0.0392279
0.0384727
0.0377027
0.0369903
0.036317
0.0356565
0.0349572
0.034219
0.0333405
0.0323771
0.031046
0.0296172
0.0273086
0.0251479
0.0412781
0.040664
0.0394362
0.0384103
0.0375239
0.0367535
0.0360709
0.0354124
0.034713
0.0339624
0.0330781
0.0320991
0.0308252
0.029446
0.027474
0.0255482
0.0431944
0.0414381
0.039758
0.0383626
0.0373899
0.0365847
0.0358927
0.0352265
0.0345341
0.0337817
0.0329
0.0319179
0.0306862
0.0293455
0.0275759
0.025783
0.0473453
0.0417199
0.0398206
0.0382014
0.0372549
0.0364945
0.0358531
0.0352275
0.0345752
0.0338565
0.0330068
0.0320527
0.0308547
0.0295333
0.0277982
0.0259838
0.0391975
0.0392184
0.0389438
0.0386279
0.0382092
0.0377782
0.0373377
0.0369296
0.0365228
0.0361772
0.0357186
0.035354
0.0342802
0.0333037
0.0285412
0.0232333
0.0392048
0.0392273
0.0389084
0.0385516
0.0380834
0.0375994
0.0371016
0.0366231
0.0361302
0.0356701
0.0350818
0.034542
0.0333697
0.0322977
0.0284328
0.0250462
0.0393316
0.0393499
0.0389382
0.0385059
0.0379665
0.0374145
0.0368489
0.0362929
0.0357052
0.0351125
0.0343646
0.0335794
0.0322005
0.0307561
0.0272418
0.0240844
0.0396291
0.0396127
0.0390362
0.0384784
0.0378411
0.0372202
0.0366014
0.0359918
0.0353465
0.034678
0.0338613
0.0329808
0.0316303
0.0301984
0.0274038
0.024867
0.0401894
0.0400475
0.0392168
0.0384674
0.0377056
0.0370028
0.0363396
0.0356894
0.035
0.0342713
0.0333996
0.0324408
0.0311064
0.0296689
0.0273332
0.025141
0.0412618
0.0406477
0.0394244
0.0384041
0.0375256
0.0367637
0.0360911
0.0354427
0.0347521
0.0340101
0.033132
0.0321574
0.0308816
0.0294963
0.0275048
0.0255558
0.043178
0.0414216
0.0397463
0.0383565
0.0373914
0.0365945
0.0359113
0.0352542
0.0345707
0.0338264
0.0329508
0.031973
0.0307404
0.0293954
0.0276112
0.0258
0.0473289
0.0417038
0.0398092
0.0381958
0.0372569
0.0365052
0.0358726
0.0352567
0.0346138
0.0339037
0.0330608
0.0321117
0.0309136
0.0295886
0.0278395
0.0260067
0.0391931
0.0392139
0.0389417
0.0386291
0.0382154