/*--------------------------------*- C++ -*----------------------------------*\
| =========                 |                                                 |
| \\      /  F ield         | OpenFOAM: The Open Source CFD Toolbox           |
|  \\    /   O peration     | Version:  v1912                                 |
|   \\  /    A nd           | Website:  www.openfoam.com                      |
|    \\/     M anipulation  |                                                 |
\*---------------------------------------------------------------------------*/
FoamFile
{
    version     2.0;
    format      ascii;
    class       surfaceScalarField;
    location    "1/fluid";
    object      phi;
}
// * * * * * * * * * * * * * * * * * * * * * * * * * * * * * * * * * * * * * //

dimensions      [0 3 -1 0 0 0 0];
oriented        oriented;


internalField   nonuniform List<scalar> 
41600
(
5.00404e-05
1.26521e-05
3.18433e-07
-5.10879e-07
3.97014e-05
1.06922e-05
5.72966e-07
-9.26098e-07
3.18369e-05
8.25618e-06
5.21497e-07
-9.13234e-07
2.67602e-05
5.42984e-06
2.05832e-07
-5.58956e-07
2.35932e-05
3.43642e-06
-3.4812e-07
7.87092e-08
2.16558e-05
2.11009e-06
-1.08209e-06
9.09404e-07
2.04048e-05
1.32928e-06
-1.9792e-06
1.9009e-06
1.94923e-05
8.98674e-07
-3.05258e-06
3.06645e-06
1.87015e-05
6.81083e-07
-4.35656e-06
4.46621e-06
1.78958e-05
5.62823e-07
-5.9695e-06
6.21239e-06
1.69936e-05
4.67146e-07
-8.0374e-06
8.47244e-06
1.58792e-05
2.82246e-07
-1.06667e-05
1.14988e-05
1.44088e-05
-2.1044e-08
-1.42132e-05
1.57047e-05
1.20922e-05
-7.77656e-07
-1.82617e-05
2.1356e-05
7.70458e-06
-1.35038e-06
-2.28104e-05
2.85484e-05
-3.68526e-06
-1.82307e-05
2.96205e-05
6.47252e-05
1.07003e-05
4.56477e-07
-7.2991e-07
6.32453e-05
1.27163e-05
8.85309e-07
-1.42966e-06
6.04281e-05
1.17443e-05
9.23036e-07
-1.59396e-06
5.73103e-05
9.22624e-06
5.40012e-07
-1.2186e-06
5.45218e-05
6.81625e-06
-2.90654e-07
-3.00729e-07
5.2219e-05
4.8622e-06
-1.52078e-06
1.07155e-06
5.03108e-05
3.52354e-06
-3.11787e-06
2.83174e-06
4.86117e-05
2.71347e-06
-5.08702e-06
4.97133e-06
4.69251e-05
2.30526e-06
-7.50117e-06
7.56361e-06
4.50466e-05
2.15216e-06
-1.04924e-05
1.07815e-05
4.27814e-05
2.12751e-06
-1.42967e-05
1.49015e-05
3.9786e-05
2.07056e-06
-1.91378e-05
2.03449e-05
3.56286e-05
1.90265e-06
-2.54841e-05
2.77178e-05
2.90832e-05
1.13846e-06
-3.268e-05
3.73092e-05
1.89158e-05
1.15224e-07
-3.96425e-05
4.83443e-05
-3.02483e-06
-3.06912e-05
4.89465e-05
6.63624e-05
7.13459e-06
5.13779e-07
-8.10409e-07
6.87507e-05
1.09375e-05
1.02207e-06
-1.63157e-06
6.97699e-05
1.14979e-05
1.11758e-06
-1.89036e-06
6.96301e-05
1.01727e-05
7.56435e-07
-1.56301e-06
6.88304e-05
8.34791e-06
-1.00603e-07
-6.31357e-07
6.76664e-05
6.61342e-06
-1.42178e-06
8.34511e-07
6.62871e-05
5.31184e-06
-3.18268e-06
2.77373e-06
6.47059e-05
4.50907e-06
-5.39172e-06
5.17724e-06
6.28507e-05
4.16762e-06
-8.12341e-06
8.11629e-06
6.05622e-05
4.18835e-06
-1.15225e-05
1.17748e-05
5.76128e-05
4.46613e-06
-1.58422e-05
1.6453e-05
5.35533e-05
4.84995e-06
-2.13565e-05
2.26367e-05
4.77785e-05
5.24288e-06
-2.85624e-05
3.09969e-05
3.86759e-05
5.08893e-06
-3.68894e-05
4.20415e-05
2.47139e-05
4.17587e-06
-4.49403e-05
5.48417e-05
1.19703e-07
-3.52499e-05
5.68192e-05
6.53356e-05
4.59911e-06
5.41409e-07
-8.41501e-07
6.85791e-05
8.32262e-06
1.09447e-06
-1.72307e-06
7.1224e-05
9.65794e-06
1.22581e-06
-2.03084e-06
7.28478e-05
9.39641e-06
8.90288e-07
-1.73774e-06
7.35571e-05
8.41623e-06
5.3702e-08
-8.31387e-07
7.35195e-05
7.28587e-06
-1.25273e-06
6.17902e-07
7.28972e-05
6.38933e-06
-3.00749e-06
2.55229e-06
7.17728e-05
5.89002e-06
-5.22263e-06
4.96606e-06
7.01443e-05
5.8389e-06
-7.97308e-06
7.93031e-06
6.78947e-05
6.21345e-06
-1.14083e-05
1.16329e-05
6.4794e-05
6.97151e-06
-1.57818e-05
1.63771e-05
6.034e-05
8.01649e-06
-2.13967e-05
2.26841e-05
5.38142e-05
9.27432e-06
-2.87583e-05
3.12527e-05
4.34019e-05
1.01371e-05
-3.74108e-05
4.2775e-05
2.73232e-05
9.81512e-06
-4.59336e-05
5.63731e-05
4.39528e-06
-3.65725e-05
5.96201e-05
6.44014e-05
2.99486e-06
5.62731e-07
-8.59901e-07
6.73506e-05
6.00268e-06
1.14935e-06
-1.77858e-06
7.02995e-05
7.5176e-06
1.3116e-06
-2.1202e-06
7.26384e-05
7.90928e-06
1.00345e-06
-1.85514e-06
7.41867e-05
7.64946e-06
1.98195e-07
-9.798e-07
7.49436e-05
7.16845e-06
-1.06621e-06
4.26744e-07
7.4994e-05
6.80053e-06
-2.7641e-06
2.30253e-06
7.44073e-05
6.74228e-06
-4.90601e-06
4.6404e-06
7.31983e-05
7.1029e-06
-7.56243e-06
7.50744e-06
7.12695e-05
7.93419e-06
-1.0882e-05
1.109e-05
6.83963e-05
9.27044e-06
-1.51082e-05
1.56825e-05
6.40406e-05
1.111e-05
-2.05636e-05
2.18258e-05
5.73844e-05
1.34569e-05
-2.77418e-05
3.02154e-05
4.63954e-05
1.5736e-05
-3.63332e-05
4.17232e-05
2.89334e-05
1.66935e-05
-4.4935e-05
5.55187e-05
9.74619e-06
-3.62399e-05
5.98224e-05
6.38387e-05
1.94938e-06
5.82701e-07
-8.75902e-07
6.63304e-05
4.1353e-06
1.20015e-06
-1.82448e-06
6.91473e-05
5.50387e-06
1.3953e-06
-2.19846e-06
7.17005e-05
6.2009e-06
1.12085e-06
-1.9657e-06
7.36743e-05
6.44902e-06
3.56123e-07
-1.12952e-06
7.49489e-05
6.52573e-06
-8.52817e-07
2.20963e-07
7.55263e-05
6.6797e-06
-2.47286e-06
2.01628e-06
7.54372e-05
7.09695e-06
-4.50911e-06
4.2436e-06
7.46874e-05
7.91439e-06
-7.02331e-06
6.96157e-06
7.3183e-05
9.24723e-06
-1.01586e-05
1.03499e-05
7.07015e-05
1.12076e-05
-1.4141e-05
1.46854e-05
6.66728e-05
1.39268e-05
-1.93073e-05
2.05192e-05
6.01969e-05
1.75344e-05
-2.61222e-05
2.85206e-05
4.90013e-05
2.16349e-05
-3.4456e-05
3.97528e-05
3.05203e-05
2.46907e-05
-4.29227e-05
5.34066e-05
1.66174e-05
-3.52043e-05
5.88533e-05
6.357e-05
1.1695e-06
6.05434e-07
-8.95579e-07
6.57501e-05
2.57473e-06
1.25587e-06
-1.87539e-06
6.84036e-05
3.64763e-06
1.48891e-06
-2.28612e-06
7.1013e-05
4.42915e-06
1.25679e-06
-2.09448e-06
7.32221e-05
5.00549e-06
5.43593e-07
-1.30916e-06
7.48522e-05
5.52103e-06
-5.96555e-07
-2.88326e-08
7.58547e-05
6.13093e-06
-2.12047e-06
1.66677e-06
7.62367e-05
6.98453e-06
-4.02289e-06
3.75328e-06
7.60087e-05
8.21966e-06
-6.34892e-06
6.27169e-06
7.51039e-05
9.99646e-06
-9.22385e-06
9.37939e-06
7.33476e-05
1.24904e-05
-1.28356e-05
1.33092e-05
7.02058e-05
1.59981e-05
-1.75053e-05
1.85757e-05
6.47877e-05
2.0825e-05
-2.36066e-05
2.5734e-05
5.44152e-05
2.72324e-05
-3.11977e-05
3.59728e-05
3.5715e-05
3.39093e-05
-3.88003e-05
4.82819e-05
3.00476e-05
-3.24441e-05
5.47288e-05
6.347e-05
6.31091e-07
-9.19831e-07
4.8821e-07
6.55214e-05
1.3175e-06
-1.93469e-06
1.14051e-06
6.81154e-05
1.59252e-06
-2.38696e-06
1.84812e-06
7.0782e-05
1.40915e-06
-2.24363e-06
2.59701e-06
7.31601e-05
7.55541e-07
-1.5183e-06
3.39017e-06
7.50502e-05
-3.07038e-07
-3.17277e-07
4.25529e-06
7.63839e-05
-1.72561e-06
1.26934e-06
5.25342e-06
7.71634e-05
-3.48234e-06
3.20322e-06
6.48416e-06
7.74103e-05
-5.60328e-06
5.50521e-06
8.07089e-06
7.70874e-05
-8.19164e-06
8.30542e-06
1.02055e-05
7.60697e-05
-1.13935e-05
1.17892e-05
1.31124e-05
7.38766e-05
-1.55061e-05
1.64239e-05
1.72735e-05
6.9699e-05
-2.08084e-05
2.26512e-05
2.31598e-05
6.06045e-05
-2.757e-05
3.17969e-05
3.20999e-05
4.29327e-05
-3.4321e-05
4.27849e-05
4.31171e-05
-3.02354e-05
5.13608e-05
5.18549e-05
4.99741e-05
1.26584e-05
1.85953e-07
3.95081e-05
1.07114e-05
3.27589e-07
3.15021e-05
8.27933e-06
2.48133e-07
2.62933e-05
5.45002e-06
-3.53456e-08
2.30048e-05
3.45474e-06
-5.14397e-07
2.0945e-05
2.1297e-06
-1.15201e-06
1.9552e-05
1.35503e-06
-1.94123e-06
1.84587e-05
9.34593e-07
-2.89385e-06
1.74274e-05
7.30978e-07
-4.05622e-06
1.63048e-05
6.29717e-07
-5.47662e-06
1.49799e-05
5.58398e-07
-7.27093e-06
1.33458e-05
4.07334e-07
-9.43983e-06
1.12062e-05
1.59633e-07
-1.22333e-05
8.3621e-06
-5.15397e-07
-1.49022e-05
3.88034e-06
-1.10797e-06
-1.72207e-05
-2.88879e-06
-1.14615e-05
6.46316e-05
1.07154e-05
2.67879e-07
6.29673e-05
1.27536e-05
5.07357e-07
5.99171e-05
1.17968e-05
4.55827e-07
5.65486e-05
9.28343e-06
7.50491e-08
5.3506e-05
6.87637e-06
-6.69676e-07
5.09397e-05
4.92945e-06
-1.75421e-06
4.87351e-05
3.60744e-06
-3.16571e-06
4.66738e-05
2.82466e-06
-4.91577e-06
4.45184e-05
2.45502e-06
-7.0698e-06
4.2025e-05
2.34932e-06
-9.71859e-06
3.89455e-05
2.38527e-06
-1.3044e-05
3.49334e-05
2.3942e-06
-1.71126e-05
2.95167e-05
2.30353e-06
-2.22112e-05
2.19452e-05
1.59171e-06
-2.72157e-05
1.14429e-05
4.77993e-07
-3.07261e-05
-2.52921e-06
-1.96079e-05
6.62683e-05
7.15315e-06
3.07676e-07
6.8464e-05
1.09835e-05
5.96472e-07
6.9233e-05
1.15694e-05
5.75957e-07
6.88133e-05
1.02615e-05
1.98107e-07
6.77191e-05
8.45185e-06
-5.81851e-07
6.62426e-05
6.73764e-06
-1.75352e-06
6.45109e-05
5.46922e-06
-3.31272e-06
6.2504e-05
4.71658e-06
-5.2767e-06
6.01041e-05
4.44571e-06
-7.71425e-06
5.71039e-05
4.55616e-06
-1.07291e-05
5.32126e-05
4.9492e-06
-1.45149e-05
4.79666e-05
5.45972e-06
-1.9176e-05
4.07114e-05
5.99717e-06
-2.50009e-05
3.03555e-05
5.914e-06
-3.08558e-05
1.59514e-05
4.88203e-06
-3.49402e-05
4.37363e-07
-2.2265e-05
6.52444e-05
4.61887e-06
3.31323e-07
6.82975e-05
8.37236e-06
6.52489e-07
7.06952e-05
9.74056e-06
6.56991e-07
7.20409e-05
9.50881e-06
2.97254e-07
7.24553e-05
8.55849e-06
-4.67301e-07
7.21019e-05
7.46509e-06
-1.6268e-06
7.11219e-05
6.62176e-06
-3.18003e-06
6.95653e-05
6.19867e-06
-5.14816e-06
6.73844e-05
6.25434e-06
-7.60081e-06
6.44105e-05
6.76877e-06
-1.0647e-05
6.03455e-05
7.71191e-06
-1.44795e-05
5.46625e-05
8.97266e-06
-1.92266e-05
4.65814e-05
1.04932e-05
-2.51731e-05
3.48144e-05
1.15189e-05
-3.12487e-05
1.81983e-05
1.11341e-05
-3.55696e-05
4.81703e-06
-2.27539e-05
6.43125e-05
3.01602e-06
3.53052e-07
6.70747e-05
6.05613e-06
7.03463e-07
6.97826e-05
7.60942e-06
7.34809e-07
7.18535e-05
8.04135e-06
3.99997e-07
7.31201e-05
7.82512e-06
-3.35019e-07
7.35767e-05
7.39743e-06
-1.45511e-06
7.32875e-05
7.10245e-06
-2.95562e-06
7.22903e-05
7.14616e-06
-4.85634e-06
7.05552e-05
7.64984e-06
-7.22278e-06
6.79323e-05
8.67366e-06
-1.0164e-05
6.41261e-05
1.02732e-05
-1.38634e-05
5.85643e-05
1.24384e-05
-1.84674e-05
5.03514e-05
1.52106e-05
-2.42464e-05
3.79582e-05
1.78218e-05
-3.02429e-05
1.98251e-05
1.88992e-05
-3.45671e-05
1.0552e-05
-2.21497e-05
6.37514e-05
1.97291e-06
3.7437e-07
6.60594e-05
4.19387e-06
7.54444e-07
6.8642e-05
5.60516e-06
8.16993e-07
7.09392e-05
6.35037e-06
5.14607e-07
7.26485e-05
6.6532e-06
-1.81216e-07
7.36446e-05
6.79732e-06
-1.24886e-06
7.39098e-05
7.04172e-06
-2.67727e-06
7.34436e-05
7.5843e-06
-4.48111e-06
7.22092e-05
8.57882e-06
-6.71785e-06
7.00605e-05
1.01562e-05
-9.4925e-06
6.67041e-05
1.24615e-05
-1.29729e-05
6.15262e-05
1.56305e-05
-1.73214e-05
5.35359e-05
1.98608e-05
-2.27821e-05
4.09231e-05
2.45317e-05
-2.85531e-05
2.16279e-05
2.80356e-05
-3.27639e-05
1.80818e-05
-2.11062e-05
6.34846e-05
1.19588e-06
3.97895e-07
6.54849e-05
2.63906e-06
8.10368e-07
6.79115e-05
3.75794e-06
9.09482e-07
7.0278e-05
4.59296e-06
6.47758e-07
7.22418e-05
5.23173e-06
1.21055e-09
7.36197e-05
5.82476e-06
-1.00186e-06
7.4345e-05
6.53771e-06
-2.3418e-06
7.43968e-05
7.53355e-06
-4.02395e-06
7.37475e-05
8.97066e-06
-6.09143e-06
7.22839e-05
1.10322e-05
-8.63617e-06
6.97691e-05
1.3936e-05
-1.17953e-05
6.56212e-05
1.80038e-05
-1.57308e-05
5.88596e-05
2.36377e-05
-2.06218e-05
4.71676e-05
3.08924e-05
-2.58664e-05
2.75385e-05
3.84606e-05
-2.95962e-05
3.23686e-05
-1.91925e-05
6.33865e-05
4.23246e-07
5.1725e-07
6.52627e-05
8.7054e-07
1.20984e-06
6.76381e-05
1.00987e-06
1.96517e-06
7.00753e-05
7.9459e-07
2.77034e-06
7.22276e-05
2.04463e-07
3.63042e-06
7.38927e-05
-7.26291e-07
4.57899e-06
7.49866e-05
-1.96903e-06
5.6872e-06
7.54861e-05
-3.51823e-06
7.06995e-06
7.53804e-05
-5.40044e-06
8.87348e-06
7.45923e-05
-7.69083e-06
1.13195e-05
7.29452e-05
-1.04925e-05
1.46822e-05
6.99087e-05
-1.39607e-05
1.94948e-05
6.45985e-05
-1.82064e-05
2.63459e-05
5.43418e-05
-2.28572e-05
3.64363e-05
3.57403e-05
-2.61263e-05
4.88674e-05
-1.76706e-05
5.5544e-05
4.99235e-05
1.26647e-05
9.77694e-08
3.93579e-05
1.07289e-05
1.64297e-07
3.12335e-05
8.30131e-06
7.12242e-08
2.59048e-05
5.47093e-06
-1.7749e-07
2.24977e-05
3.47432e-06
-5.81698e-07
2.0313e-05
2.15013e-06
-1.11735e-06
1.87735e-05
1.38064e-06
-1.78245e-06
1.74956e-05
9.68736e-07
-2.58463e-06
1.62205e-05
7.76839e-07
-3.55795e-06
1.47775e-05
6.89519e-07
-4.72321e-06
1.30277e-05
6.36935e-07
-6.15803e-06
1.08787e-05
5.10504e-07
-7.80131e-06
8.15137e-06
2.95368e-07
-9.80139e-06
5.01402e-06
-3.32608e-07
-1.14323e-05
1.21483e-06
-1.01249e-06
-1.2409e-05
-2.56012e-06
-7.6866e-06
6.45599e-05
1.07307e-05
1.41959e-07
6.27508e-05
1.27897e-05
2.55599e-07
5.95073e-05
1.18485e-05
1.52072e-07
5.59178e-05
9.3424e-06
-2.06854e-07
5.26373e-05
6.93983e-06
-8.54736e-07
4.98133e-05
4.99986e-06
-1.77993e-06
4.73144e-05
3.69311e-06
-2.97924e-06
4.48957e-05
2.93502e-06
-4.46342e-06
4.22849e-05
2.60075e-06
-6.28291e-06
3.92058e-05
2.53893e-06
-8.48892e-06
3.537e-05
2.63106e-06
-1.12023e-05
3.04561e-05
2.70084e-06
-1.4389e-05
2.40486e-05
2.67647e-06
-1.81848e-05
1.59763e-05
2.0039e-06
-2.14799e-05
6.379e-06
7.7643e-07
-2.29177e-05
-2.24815e-06
-1.35409e-05
6.61967e-05
7.17293e-06
1.68723e-07
6.82419e-05
1.10302e-05
3.10757e-07
6.88046e-05
1.16417e-05
2.20116e-07
6.81402e-05
1.03529e-05
-1.4788e-07
6.67733e-05
8.55958e-06
-8.34715e-07
6.49947e-05
6.86508e-06
-1.84017e-06
6.29165e-05
5.62752e-06
-3.16895e-06
6.04922e-05
4.92083e-06
-4.83816e-06
5.75658e-05
4.71505e-06
-6.9022e-06
5.38911e-05
4.90856e-06
-9.42401e-06
4.91301e-05
5.4087e-06
-1.25315e-05
4.28358e-05
6.03631e-06
-1.62172e-05
3.44066e-05
6.70492e-06
-2.06001e-05
2.33892e-05
6.68473e-06
-2.45193e-05
9.90082e-06
5.54532e-06
-2.62207e-05
7.38952e-07
-1.53513e-05
6.51757e-05
4.6404e-06
1.88181e-07
6.80814e-05
8.42403e-06
3.52956e-07
7.02762e-05
9.82494e-06
2.7892e-07
7.13798e-05
9.62343e-06
-7.69695e-08
7.15218e-05
8.7031e-06
-7.52736e-07
7.08637e-05
7.64529e-06
-1.74893e-06
6.95325e-05
6.85158e-06
-3.07288e-06
6.7552e-05
6.49875e-06
-4.74564e-06
6.48361e-05
6.6529e-06
-6.82269e-06
6.11737e-05
7.29615e-06
-9.37228e-06
5.6214e-05
8.40968e-06
-1.25208e-05
4.94365e-05
9.86675e-06
-1.62796e-05
4.01019e-05
1.16244e-05
-2.07579e-05
2.75722e-05
1.27965e-05
-2.48308e-05
1.18092e-05
1.23798e-05
-2.66412e-05
5.36096e-06
-1.55667e-05
6.42463e-05
3.03875e-06
2.08441e-07
6.68647e-05
6.11134e-06
3.9773e-07
6.93761e-05
7.70236e-06
3.45958e-07
7.12143e-05
8.17367e-06
1.1572e-08
7.22204e-05
7.99996e-06
-6.3799e-07
7.23866e-05
7.62322e-06
-1.59925e-06
7.17629e-05
7.39645e-06
-2.8768e-06
7.03615e-05
7.53461e-06
-4.49076e-06
6.81142e-05
8.17068e-06
-6.49323e-06
6.48275e-05
9.3719e-06
-8.95311e-06
6.01493e-05
1.12136e-05
-1.1989e-05
5.35027e-05
1.36742e-05
-1.56283e-05
4.40173e-05
1.68304e-05
-1.99671e-05
3.07986e-05
1.97409e-05
-2.39685e-05
1.3402e-05
2.09728e-05
-2.57635e-05
1.16154e-05
-1.50022e-05
6.36869e-05
1.99723e-06
2.28978e-07
6.58547e-05
4.25286e-06
4.45105e-07
6.82474e-05
5.70553e-06
4.21183e-07
7.03226e-05
6.49697e-06
1.16092e-07
7.17869e-05
6.85243e-06
-4.9801e-07
7.25131e-05
7.06053e-06
-1.41238e-06
7.2469e-05
7.38965e-06
-2.62637e-06
7.16295e-05
8.04895e-06
-4.15594e-06
6.99206e-05
9.20807e-06
-6.0464e-06
6.71524e-05
1.10117e-05
-8.36407e-06
6.2973e-05
1.36353e-05
-1.12152e-05
5.67536e-05
1.72148e-05
-1.46426e-05
4.75129e-05
2.20126e-05
-1.87236e-05
3.40419e-05
2.72083e-05
-2.25496e-05
1.53345e-05
3.11979e-05
-2.42815e-05
1.99977e-05
-1.41539e-05
6.34218e-05
1.22196e-06
2.51336e-07
6.5286e-05
2.7018e-06
4.97285e-07
6.75299e-05
3.86457e-06
5.06551e-07
6.96859e-05
4.75036e-06
2.38279e-07
7.14225e-05
5.44861e-06
-3.31555e-07
7.25549e-05
6.11488e-06
-1.18859e-06
7.30034e-05
6.9246e-06
-2.32522e-06
7.27246e-05
8.0537e-06
-3.74996e-06
7.16582e-05
9.67981e-06
-5.49669e-06
6.96503e-05
1.20065e-05
-7.62312e-06
6.64114e-05
1.52923e-05
-1.02134e-05
6.13371e-05
1.98768e-05
-1.33184e-05
5.34465e-05
2.62581e-05
-1.69767e-05
4.09377e-05
3.43066e-05
-2.04559e-05
2.16922e-05
4.28238e-05
-2.19765e-05
3.54053e-05
-1.29079e-05
6.33256e-05
2.74812e-07
5.4478e-07
6.507e-05
5.52583e-07
1.27536e-06
6.72706e-05
5.98286e-07
2.07558e-06
6.951e-05
3.7185e-07
2.93373e-06
7.14535e-05
-1.47489e-07
3.85698e-06
7.28986e-05
-9.40549e-07
4.88409e-06
7.37504e-05
-1.99229e-06
6.09605e-06
7.39664e-05
-3.3024e-06
7.6219e-06
7.35079e-05
-4.89161e-06
9.62944e-06
7.22625e-05
-6.8062e-06
1.23673e-05
7.00098e-05
-9.10565e-06
1.6158e-05
6.61926e-05
-1.18448e-05
2.15782e-05
5.99278e-05
-1.50222e-05
2.93387e-05
4.8955e-05
-1.81072e-05
4.05294e-05
3.06285e-05
-1.94544e-05
5.44784e-05
-1.19332e-05
6.02964e-05
4.9885e-05
1.26704e-05
4.23409e-08
3.92422e-05
1.07442e-05
6.29218e-08
3.10226e-05
8.32096e-06
-3.01317e-08
2.55939e-05
5.49033e-06
-2.39085e-07
2.20864e-05
3.49292e-06
-5.67147e-07
1.97978e-05
2.17006e-06
-9.98835e-07
1.8144e-05
1.40586e-06
-1.53446e-06
1.67349e-05
1.00286e-06
-2.17836e-06
1.53069e-05
8.24081e-07
-2.95404e-06
1.36944e-05
7.5478e-07
-3.86552e-06
1.17668e-05
7.29857e-07
-4.9603e-06
9.4732e-06
6.48425e-07
-6.15611e-06
6.69106e-06
5.0776e-07
-7.527e-06
3.72033e-06
1.34597e-08
-8.47499e-06
6.02406e-07
-5.7287e-07
-8.71825e-06
-1.9318e-06
-5.1524e-06
6.45048e-05
1.0745e-05
6.25962e-08
6.2583e-05
1.28224e-05
9.92192e-08
5.91845e-05
1.18956e-05
-2.40022e-08
5.54115e-05
9.39705e-06
-3.40581e-07
5.19294e-05
6.99942e-06
-8.79162e-07
4.88875e-05
5.06647e-06
-1.63438e-06
4.61475e-05
3.77391e-06
-2.60734e-06
4.34543e-05
3.03879e-06
-3.8062e-06
4.05241e-05
2.73848e-06
-5.26704e-06
3.70819e-05
2.72176e-06
-7.01373e-06
3.2851e-05
2.87718e-06
-9.11875e-06
2.75817e-05
3.03091e-06
-1.15022e-05
2.09776e-05
3.12599e-06
-1.41989e-05
1.3168e-05
2.61266e-06
-1.62695e-05
4.72577e-06
1.50651e-06
-1.65549e-05
-1.47233e-06
-9.27459e-06
6.6142e-05
7.19178e-06
7.98929e-08
6.80704e-05
1.10736e-05
1.31163e-07
6.84676e-05
1.17086e-05
9.85948e-09
6.76005e-05
1.0438e-05
-3.21646e-07
6.60029e-05
8.66034e-06
-8.98062e-07
6.39682e-05
6.98408e-06
-1.72304e-06
6.16034e-05
5.77415e-06
-2.80438e-06
5.88519e-05
5.10838e-06
-4.15624e-06
5.55453e-05
4.96132e-06
-5.81851e-06
5.14359e-05
5.23195e-06
-7.82482e-06
4.61971e-05
5.83607e-06
-1.02516e-05
3.94568e-05
6.59005e-06
-1.30361e-05
3.07482e-05
7.42284e-06
-1.61883e-05
1.99804e-05
7.56426e-06
-1.87031e-05
7.8125e-06
6.52294e-06
-1.90692e-05
1.51868e-06
-1.05299e-05
6.51235e-05
4.66123e-06
9.5189e-08
6.79154e-05
8.47284e-06
1.61882e-07
6.99481e-05
9.90374e-06
5.10238e-08
7.08517e-05
9.73031e-06
-2.72912e-07
7.07635e-05
8.83757e-06
-8.4182e-07
6.98472e-05
7.81162e-06
-1.66019e-06
6.82252e-05
7.06148e-06
-2.73818e-06
6.59118e-05
6.76965e-06
-4.09352e-06
6.28085e-05
7.00927e-06
-5.76734e-06
5.87018e-05
7.76458e-06
-7.79816e-06
5.32504e-05
9.02762e-06
-1.02609e-05
4.60065e-05
1.06617e-05
-1.31074e-05
3.63653e-05
1.2642e-05
-1.63359e-05
2.40613e-05
1.39967e-05
-1.89592e-05
9.63562e-06
1.36702e-05
-1.93628e-05
6.20492e-06
-1.06173e-05
6.41964e-05
3.06065e-06
1.12666e-07
6.67045e-05
6.1635e-06
1.98962e-07
6.90595e-05
7.78899e-06
1.05711e-07
7.07058e-05
8.29627e-06
-2.00736e-07
7.14923e-05
8.16086e-06
-7.47768e-07
7.14126e-05
7.82902e-06
-1.53693e-06
7.05123e-05
7.66137e-06
-2.57639e-06
6.87944e-05
7.88014e-06
-3.88337e-06
6.6179e-05
8.62784e-06
-5.49642e-06
6.24694e-05
9.97628e-06
-7.45515e-06
5.73211e-05
1.20155e-05
-9.82861e-06
5.02248e-05
1.47117e-05
-1.25819e-05
4.04365e-05
1.8166e-05
-1.57028e-05
2.74229e-05
2.13111e-05
-1.82694e-05
1.13101e-05
2.26739e-05
-1.86543e-05
1.26595e-05
-1.01467e-05
6.36386e-05
2.02022e-06
1.30816e-07
6.56995e-05
4.30786e-06
2.39876e-07
6.79416e-05
5.7981e-06
1.69985e-07
6.98344e-05
6.63121e-06
-1.11663e-07
7.10923e-05
7.03345e-06
-6.2856e-07
7.15898e-05
7.29744e-06
-1.37824e-06
7.12902e-05
7.69928e-06
-2.36473e-06
7.01598e-05
8.45675e-06
-3.60212e-06
6.81134e-05
9.75146e-06
-5.12361e-06
6.49571e-05
1.17359e-05
-6.96737e-06
6.03456e-05
1.46051e-05
-9.19329e-06
5.37106e-05
1.84841e-05
-1.17802e-05
4.41868e-05
2.36697e-05
-1.47035e-05
3.0905e-05
2.91842e-05
-1.71408e-05
1.33916e-05
3.34035e-05
-1.74977e-05
2.13848e-05
-9.48769e-06
6.33751e-05
1.24597e-06
1.50459e-07
6.51359e-05
2.75917e-06
2.85169e-07
6.72357e-05
3.96142e-06
2.43505e-07
6.92196e-05
4.89243e-06
-6.84457e-09
7.07646e-05
5.64314e-06
-4.86254e-07
7.16883e-05
6.37307e-06
-1.18796e-06
7.19075e-05
7.26526e-06
-2.11044e-06
7.13712e-05
8.50534e-06
-3.26218e-06
7.00092e-05
1.02846e-05
-4.66782e-06
6.76646e-05
1.28176e-05
-6.36019e-06
6.40543e-05
1.63862e-05
-8.38424e-06
5.86253e-05
2.13243e-05
-1.07296e-05
5.04985e-05
2.81712e-05
-1.33514e-05
3.8169e-05
3.66249e-05
-1.55671e-05
1.9968e-05
4.54881e-05
-1.58602e-05
3.71146e-05
-8.66966e-06
6.32806e-05
1.70779e-07
5.69437e-07
6.49256e-05
3.32771e-07
1.334e-06
6.69889e-05
3.22133e-07
2.17421e-06
6.90668e-05
1.0729e-07
3.0791e-06
7.08342e-05
-3.29548e-07
4.05779e-06
7.20917e-05
-9.77828e-07
5.15282e-06
7.27421e-05
-1.8301e-06
6.45273e-06
7.27363e-05
-2.88817e-06
8.09685e-06
7.20285e-05
-4.16673e-06
1.02675e-05
7.05036e-05
-5.69125e-06
1.32276e-05
6.79492e-05
-7.48999e-06
1.73249e-05
6.38505e-05
-9.56106e-06
2.31392e-05
5.7415e-05
-1.18401e-05
3.14246e-05
4.66295e-05
-1.38053e-05
4.31085e-05
2.92138e-05
-1.40839e-05
5.75333e-05
-8.05304e-06
6.24482e-05
4.98555e-05
1.26752e-05
1.16481e-08
3.91531e-05
1.07568e-05
8.54895e-09
3.0858e-05
8.33721e-06
-7.22111e-08
2.53474e-05
5.50649e-06
-2.35067e-07
2.17555e-05
3.50846e-06
-4.83675e-07
1.93783e-05
2.18659e-06
-8.08191e-07
1.76267e-05
1.42642e-06
-1.20935e-06
1.61069e-05
1.03022e-06
-1.68878e-06
1.45526e-05
8.61387e-07
-2.26107e-06
1.28033e-05
8.05482e-07
-2.9217e-06
1.07392e-05
8.00621e-07
-3.69681e-06
8.34315e-06
7.51141e-07
-4.51124e-06
5.5531e-06
6.608e-07
-5.39776e-06
2.7541e-06
2.57206e-07
-5.93319e-06
1.86992e-07
-2.69561e-07
-5.88157e-06
-1.57264e-06
-3.39277e-06
6.44623e-05
1.07572e-05
1.82984e-08
6.24534e-05
1.28499e-05
1.49901e-08
5.89322e-05
1.19354e-05
-1.01e-07
5.50105e-05
9.44365e-06
-3.56055e-07
5.13612e-05
7.05056e-06
-7.7194e-07
4.81359e-05
5.12372e-06
-1.34623e-06
4.51929e-05
3.84297e-06
-2.08091e-06
4.22711e-05
3.12682e-06
-2.98097e-06
3.90806e-05
2.85463e-06
-4.06977e-06
3.53518e-05
2.87527e-06
-5.35472e-06
3.08255e-05
3.08305e-06
-6.87489e-06
2.53153e-05
3.3058e-06
-8.54661e-06
1.86367e-05
3.49834e-06
-1.03579e-05
1.1136e-05
3.10835e-06
-1.16199e-05
3.67026e-06
2.09171e-06
-1.14505e-05
-9.32673e-07
-6.24431e-06
6.60999e-05
7.20828e-06
2.89121e-08
6.7938e-05
1.1111e-05
3.19762e-08
6.82046e-05
1.17661e-05
-8.74586e-08
6.71735e-05
1.05113e-05
-3.58209e-07
6.53852e-05
8.74741e-06
-8.06532e-07
6.31356e-05
7.08686e-06
-1.43662e-06
6.05297e-05
5.90018e-06
-2.2557e-06
5.75054e-05
5.26858e-06
-3.27368e-06
5.3888e-05
5.17054e-06
-4.51705e-06
4.94336e-05
5.50556e-06
-6.00071e-06
4.38342e-05
6.19646e-06
-7.76555e-06
3.67864e-05
7.05581e-06
-9.7383e-06
2.79536e-05
8.02541e-06
-1.18826e-05
1.75083e-05
8.29982e-06
-1.34493e-05
6.47091e-06
7.33895e-06
-1.3279e-05
2.12919e-06
-7.12082e-06
6.50836e-05
4.6797e-06
4.01734e-08
6.77878e-05
8.51552e-06
5.31943e-08
6.96928e-05
9.97215e-06
-6.00961e-08
7.04348e-05
9.82288e-06
-3.2644e-07
7.01565e-05
8.9539e-06
-7.70022e-07
6.90238e-05
7.95513e-06
-1.39577e-06
6.7157e-05
7.24162e-06
-2.21284e-06
6.45654e-05
7.00073e-06
-3.2341e-06
6.11444e-05
7.31147e-06
-4.48722e-06
5.66832e-05
8.15973e-06
-5.99113e-06
5.08582e-05
9.54624e-06
-7.78568e-06
4.32886e-05
1.1326e-05
-9.808e-06
3.35015e-05
1.34881e-05
-1.20115e-05
2.15049e-05
1.49928e-05
-1.36556e-05
8.23125e-06
1.47449e-05
-1.3495e-05
6.91236e-06
-7.16923e-06
6.41583e-05
3.08009e-06
5.39521e-08
6.6582e-05
6.20923e-06
8.16147e-08
6.88142e-05
7.8643e-06
-1.86549e-08
7.03057e-05
8.40235e-06
-2.71771e-07
7.09107e-05
8.29966e-06
-6.98518e-07
7.06248e-05
8.0059e-06
-1.30173e-06
6.94913e-05
7.8879e-06
-2.08925e-06
6.75085e-05
8.17389e-06
-3.07372e-06
6.45904e-05
9.0142e-06
-4.28107e-06
6.05423e-05
1.04841e-05
-5.73138e-06
5.50356e-05
1.26849e-05
-7.46053e-06
4.76234e-05
1.55722e-05
-9.41593e-06
3.76877e-05
1.92649e-05
-1.15439e-05
2.49625e-05
2.25988e-05
-1.31501e-05
9.96324e-06
2.40697e-05
-1.29799e-05
1.35574e-05
-6.82845e-06
6.36019e-05
2.04045e-06
6.85108e-08
6.55813e-05
4.3558e-06
1.13948e-07
6.77056e-05
5.87817e-06
3.17793e-08
6.94515e-05
6.74682e-06
-2.02022e-07
7.0539e-05
7.18881e-06
-6.05231e-07
7.08445e-05
7.50001e-06
-1.17778e-06
7.03293e-05
7.96285e-06
-1.92451e-06
6.89548e-05
8.8021e-06
-2.85586e-06
6.66303e-05
1.02091e-05
-3.99393e-06
6.31631e-05
1.2342e-05
-5.35809e-06
5.82219e-05
1.54108e-05
-6.97805e-06
5.12954e-05
1.95305e-05
-8.81204e-06
4.16348e-05
2.50217e-05
-1.07998e-05
2.86232e-05
3.07881e-05
-1.23186e-05
1.21524e-05
3.51876e-05
-1.21449e-05
2.2583e-05
-6.3609e-06
6.33399e-05
1.2668e-06
8.4229e-08
6.50223e-05
2.80863e-06
1.49912e-07
6.70096e-05
4.04451e-06
8.98497e-08
6.88551e-05
5.01399e-06
-1.195e-07
7.0242e-05
5.80911e-06
-4.93493e-07
7.09904e-05
6.59268e-06
-1.02896e-06
7.10154e-05
7.55408e-06
-1.7267e-06
7.02619e-05
8.88667e-06
-2.59324e-06
6.86551e-05
1.07927e-05
-3.64467e-06
6.60391e-05
1.34951e-05
-4.89731e-06
6.21437e-05
1.72934e-05
-6.37145e-06
5.64649e-05
2.2515e-05
-8.03532e-06
4.82272e-05
2.97275e-05
-9.81951e-06
3.61491e-05
3.8501e-05
-1.12018e-05
1.88745e-05
4.7634e-05
-1.1032e-05
3.86254e-05
-5.83757e-06
6.32468e-05
1.00345e-07
5.9047e-07
6.48167e-05
1.87535e-07
1.38392e-06
6.67735e-05
1.51801e-07
2.25803e-06
6.87221e-05
-2.97982e-08
3.20252e-06
7.03443e-05
-3.70681e-07
4.22801e-06
7.14439e-05
-8.64938e-07
5.38021e-06
7.1923e-05
-1.50901e-06
6.75391e-06
7.17295e-05
-2.30468e-06
8.49668e-06
7.08141e-05
-3.2611e-06
1.08025e-05
6.90632e-05
-4.39011e-06
1.39448e-05
6.62773e-05
-5.70148e-06
1.82908e-05
6.19829e-05
-7.172e-06
2.44204e-05
5.54784e-05
-8.7249e-06
3.31169e-05
4.49382e-05
-9.95293e-06
4.51888e-05
2.83339e-05
-9.83032e-06
5.99847e-05
-5.45424e-06
6.43604e-05
4.98343e-05
1.2679e-05
-1.60217e-09
3.90889e-05
1.07665e-05
-1.25559e-08
3.07385e-05
8.34975e-06
-7.15379e-08
2.51676e-05
5.51915e-06
-1.83366e-07
2.15136e-05
3.52087e-06
-3.5048e-07
1.90726e-05
2.20005e-06
-5.67254e-07
1.72541e-05
1.4434e-06
-8.34219e-07
1.56638e-05
1.05322e-06
-1.1517e-06
1.40371e-05
8.93441e-07
-1.52784e-06
1.22213e-05
8.50285e-07
-1.95617e-06
1.0109e-05
8.64881e-07
-2.44944e-06
7.70414e-06
8.46036e-07
-2.9524e-06
4.97932e-06
8.03415e-07
-3.47635e-06
2.32527e-06
4.75612e-07
-3.75476e-06
5.45799e-08
1.26183e-08
-3.6235e-06
-1.28211e-06
-2.05609e-06
6.44318e-05
1.07668e-05
-1.27412e-09
6.23596e-05
1.28714e-05
-1.7851e-08
5.87484e-05
1.19664e-05
-1.06425e-07
5.47165e-05
9.48017e-06
-2.85169e-07
5.09429e-05
7.09094e-06
-5.68405e-07
4.75827e-05
5.16917e-06
-9.55167e-07
4.44943e-05
3.89794e-06
-1.44708e-06
4.14163e-05
3.1971e-06
-2.04679e-06
3.806e-05
2.94786e-06
-2.76787e-06
3.41661e-05
2.99968e-06
-3.61027e-06
2.94965e-05
3.25203e-06
-4.59239e-06
2.3909e-05
3.53525e-06
-5.64837e-06
1.72924e-05
3.81456e-06
-6.75244e-06
1.00724e-05
3.53419e-06
-7.4584e-06
3.20591e-06
2.60727e-06
-7.17865e-06
-4.83709e-07
-3.8368e-06
6.60695e-05
7.22141e-06
4.75097e-09
6.78422e-05
1.11405e-05
-9.79226e-09
6.8013e-05
1.18113e-05
-1.03055e-07
6.68603e-05
1.05691e-05
-2.94377e-07
6.49298e-05
8.81611e-06
-6.01248e-07
6.25213e-05
7.16798e-06
-1.02696e-06
5.97409e-05
5.99947e-06
-1.57676e-06
5.65266e-05
5.39446e-06
-2.25674e-06
5.27054e-05
5.33469e-06
-3.08274e-06
4.80437e-05
5.72044e-06
-4.0597e-06
4.22565e-05
6.48043e-06
-5.20679e-06
3.50916e-05
7.42566e-06
-6.46376e-06
2.63008e-05
8.50889e-06
-7.78611e-06
1.61678e-05
8.89973e-06
-8.68188e-06
5.8504e-06
8.02031e-06
-8.37464e-06
2.63902e-06
-4.39315e-06
6.5055e-05
4.69449e-06
1.21227e-08
6.76957e-05
8.54944e-06
3.50194e-09
6.95072e-05
1.00262e-05
-8.64964e-08
7.01293e-05
9.89594e-06
-2.75492e-07
6.97095e-05
9.0456e-06
-5.79662e-07
6.84166e-05
8.06793e-06
-1.00281e-06
6.63722e-05
7.38255e-06
-1.5516e-06
6.35863e-05
7.18047e-06
-2.2342e-06
5.9956e-05
7.5452e-06
-3.06738e-06
5.52804e-05
8.46386e-06
-4.05896e-06
4.92589e-05
9.94374e-06
-5.22748e-06
4.15618e-05
1.18341e-05
-6.51941e-06
3.18072e-05
1.41349e-05
-7.88285e-06
2.01208e-05
1.57594e-05
-8.82889e-06
7.5855e-06
1.55811e-05
-8.52043e-06
7.47482e-06
-4.41955e-06
6.41312e-05
3.09567e-06
2.1611e-08
6.64939e-05
6.24563e-06
2.26985e-08
6.86363e-05
7.92392e-06
-5.87387e-08
7.00133e-05
8.48601e-06
-2.38884e-07
7.04833e-05
8.40875e-06
-5.31642e-07
7.00447e-05
8.14426e-06
-9.39485e-07
6.87424e-05
8.06397e-06
-1.46828e-06
6.65748e-05
8.40042e-06
-2.12617e-06
6.34582e-05
9.30957e-06
-2.92884e-06
5.92071e-05
1.08686e-05
-3.88505e-06
5.35148e-05
1.31866e-05
-5.011e-06
4.59827e-05
1.62103e-05
-6.26001e-06
3.60799e-05
2.00698e-05
-7.57613e-06
2.36533e-05
2.35354e-05
-8.49948e-06
9.36577e-06
2.50761e-05
-8.1874e-06
1.4212e-05
-4.19983e-06
6.35759e-05
2.05657e-06
3.1753e-08
6.54966e-05
4.39382e-06
4.50082e-08
6.7535e-05
5.94137e-06
-2.40959e-08
6.91724e-05
6.83767e-06
-1.91038e-07
7.01332e-05
7.31035e-06
-4.6767e-07
7.02967e-05
7.65759e-06
-8.54574e-07
6.96255e-05
8.16638e-06
-1.35569e-06
6.80815e-05
9.06632e-06
-1.97776e-06
6.55758e-05
1.05553e-05
-2.73401e-06
6.19247e-05
1.27945e-05
-3.63291e-06
5.68173e-05
1.60029e-05
-4.68693e-06
4.97867e-05
2.02856e-05
-5.85674e-06
4.01648e-05
2.59753e-05
-7.08334e-06
2.74377e-05
3.18968e-05
-7.95288e-06
1.16302e-05
3.63853e-05
-7.64651e-06
2.33815e-05
-3.90032e-06
6.33149e-05
1.28324e-06
4.26936e-08
6.49411e-05
2.84758e-06
6.99071e-08
6.68467e-05
4.10971e-06
1.59801e-08
6.859e-05
5.10901e-06
-1.34201e-07
6.98594e-05
5.93828e-06
-3.90855e-07
7.0478e-05
6.76261e-06
-7.52532e-07
7.03624e-05
7.77584e-06
-1.22056e-06
6.94582e-05
9.17653e-06
-1.7992e-06
6.76926e-05
1.11741e-05
-2.49793e-06
6.49179e-05
1.39956e-05
-3.32361e-06
6.08824e-05
1.79502e-05
-4.2833e-06
5.51212e-05
2.33566e-05
-5.34503e-06
4.693e-05
3.07938e-05
-6.44671e-06
3.51168e-05
3.97466e-05
-7.23856e-06
1.84349e-05
4.89922e-05
-6.95695e-06
3.957e-05
-3.59113e-06
6.32228e-05
5.38553e-08
6.06889e-07
6.47392e-05
9.58953e-08
1.42287e-06
6.66187e-05
5.86979e-08
2.32333e-06
6.84719e-05
-7.24584e-08
3.29844e-06
6.99862e-05
-3.06492e-07
4.35978e-06
7.09688e-05
-6.40173e-07
5.55526e-06
7.13236e-05
-1.07198e-06
6.98401e-06
7.09996e-05
-1.60314e-06
8.79897e-06
6.995e-05
-2.23878e-06
1.12014e-05
6.80687e-05
-2.98325e-06
1.447e-05
6.51732e-05
-3.83759e-06
1.89818e-05
6.08238e-05
-4.77636e-06
2.53103e-05
5.43803e-05
-5.73594e-06
3.42483e-05
4.40907e-05
-6.43973e-06
4.6523e-05
2.80061e-05
-6.21386e-06
6.14602e-05
-3.36856e-06
6.54904e-05
4.98202e-05
1.26815e-05
-3.36937e-09
3.90465e-05
1.0773e-05
-1.18723e-08
3.06593e-05
8.35817e-06