/*--------------------------------*- C++ -*----------------------------------*\
| =========                 |                                                 |
| \\      /  F ield         | OpenFOAM: The Open Source CFD Toolbox           |
|  \\    /   O peration     | Version:  v1912                                 |
|   \\  /    A nd           | Website:  www.openfoam.com                      |
|    \\/     M anipulation  |                                                 |
\*---------------------------------------------------------------------------*/
FoamFile
{
    version     2.0;
    format      ascii;
    class       pointVectorField;
    location    "1/fluid";
    object      pointMotionU;
}
// * * * * * * * * * * * * * * * * * * * * * * * * * * * * * * * * * * * * * //

dimensions      [0 1 -1 0 0 0 0];


internalField   nonuniform List<vector> 
16859
(
(0 0 0)
(0 0 0)
(0 0 0)
(0 0 0)
(0 0 0)
(0 0 0)
(0 0 0)
(0 0 0)
(0 0 0)
(0 0 0)
(0 0 0)
(0 0 0)
(0 0 0)
(0 0 0)
(0 0 0)
(0 0 0)
(1.29422e-08 2.27776e-08 1.53168e-08)
(0 0 0)
(3.67088e-10 -9.74096e-10 7.6816e-10)
(7.03307e-10 -1.86302e-09 1.49772e-09)
(1.02417e-09 -2.70114e-09 2.24168e-09)
(1.34422e-09 -3.51313e-09 3.04708e-09)
(1.67821e-09 -4.31313e-09 3.95803e-09)
(2.0426e-09 -5.10266e-09 5.01779e-09)
(2.45791e-09 -5.86674e-09 6.27021e-09)
(2.95222e-09 -6.56658e-09 7.76059e-09)
(3.56727e-09 -7.12672e-09 9.5364e-09)
(4.37e-09 -7.41215e-09 1.1649e-08)
(5.47604e-09 -7.18662e-09 1.41613e-08)
(7.09796e-09 -6.03231e-09 1.71758e-08)
(9.63345e-09 -3.19502e-09 2.09102e-08)
(1.375e-08 2.63706e-09 2.58413e-08)
(1.9578e-08 1.22174e-08 3.214e-08)
(2.73525e-08 3.06407e-08 3.87623e-08)
(0 0 0)
(7.23396e-10 -1.91939e-09 1.51594e-09)
(1.38544e-09 -3.67218e-09 2.95508e-09)
(2.01605e-09 -5.32717e-09 4.42142e-09)
(2.64309e-09 -6.93451e-09 6.00709e-09)
(3.29471e-09 -8.52464e-09 7.79844e-09)
(4.00196e-09 -1.01049e-08 9.88002e-09)
(4.80247e-09 -1.16532e-08 1.23371e-08)
(5.74591e-09 -1.31058e-08 1.52571e-08)
(6.90226e-09 -1.43377e-08 1.87288e-08)
(8.37569e-09 -1.51304e-08 2.2841e-08)
(1.03278e-08 -1.51227e-08 2.76811e-08)
(1.30149e-08 -1.37477e-08 3.33425e-08)
(1.68139e-08 -1.01953e-08 3.9934e-08)
(2.20987e-08 -3.60372e-09 4.75316e-08)
(2.81149e-08 5.22262e-09 5.52559e-08)
(3.73222e-08 1.82229e-08 6.65243e-08)
(0 0 0)
(1.05898e-09 -2.80765e-09 2.22465e-09)
(2.02689e-09 -5.37446e-09 4.33518e-09)
(2.94612e-09 -7.8038e-09 6.48282e-09)
(3.8559e-09 -1.01727e-08 8.80133e-09)
(4.79548e-09 -1.25317e-08 1.14159e-08)
(5.80732e-09 -1.49009e-08 1.44491e-08)
(6.94121e-09 -1.72639e-08 1.80241e-08)
(8.25968e-09 -1.95544e-08 2.22665e-08)
(9.84486e-09 -2.16362e-08 2.73022e-08)
(1.1807e-08 -2.32721e-08 3.32497e-08)
(1.42941e-08 -2.40849e-08 4.02067e-08)
(1.74984e-08 -2.35279e-08 4.82281e-08)
(2.16267e-08 -2.09312e-08 5.72832e-08)
(2.67326e-08 -1.58111e-08 6.71492e-08)
(3.18839e-08 -9.22084e-09 7.65042e-08)
(3.89699e-08 -7.52068e-11 8.85517e-08)
(0 0 0)
(1.36508e-09 -3.61005e-09 2.87723e-09)
(2.6105e-09 -6.91511e-09 5.60424e-09)
(3.78862e-09 -1.00527e-08 8.37413e-09)
(4.94751e-09 -1.3128e-08 1.13573e-08)
(6.13468e-09 -1.62149e-08 1.4713e-08)
(7.40038e-09 -1.93543e-08 1.85966e-08)
(8.80154e-09 -2.25485e-08 2.31645e-08)
(1.04062e-08 -2.57517e-08 2.85763e-08)
(1.22974e-08 -2.88528e-08 3.49912e-08)
(1.45746e-08 -3.16513e-08 4.25581e-08)
(1.73494e-08 -3.38264e-08 5.13918e-08)
(2.07263e-08 -3.49122e-08 6.15292e-08)
(2.47397e-08 -3.43199e-08 7.28407e-08)
(2.91927e-08 -3.15237e-08 8.48483e-08)
(3.3124e-08 -2.7009e-08 9.57071e-08)
(3.80784e-08 -1.91271e-08 1.08128e-07)
(0 0 0)
(1.63482e-09 -4.29815e-09 3.45949e-09)
(3.12289e-09 -8.23961e-09 6.73419e-09)
(4.52372e-09 -1.19944e-08 1.00524e-08)
(5.89143e-09 -1.56957e-08 1.36148e-08)
(7.27872e-09 -1.94433e-08 1.76084e-08)
(8.74014e-09 -2.33038e-08 2.2215e-08)
(1.03357e-08 -2.7309e-08 2.76176e-08)
(1.21341e-08 -3.14504e-08 3.40034e-08)
(1.42152e-08 -3.56696e-08 4.1562e-08)
(1.66671e-08 -3.98431e-08 5.04753e-08)
(1.95767e-08 -4.37593e-08 6.08944e-08)
(2.3003e-08 -4.70844e-08 7.28907e-08)
(2.69087e-08 -4.931e-08 8.63429e-08)
(3.10106e-08 -4.97101e-08 1.00678e-07)
(3.43637e-08 -4.77901e-08 1.13575e-07)
(3.83279e-08 -4.0377e-08 1.2745e-07)
(0 0 0)
(1.86346e-09 -4.84483e-09 3.96079e-09)
(3.55508e-09 -9.29547e-09 7.70408e-09)
(5.13847e-09 -1.35512e-08 1.14856e-08)
(6.67092e-09 -1.7771e-08 1.55292e-08)
(8.20734e-09 -2.20801e-08 2.00418e-08)
(9.80334e-09 -2.65728e-08 2.52237e-08)
(1.15186e-08 -3.13146e-08 3.12759e-08)
(1.34198e-08 -3.6342e-08 3.84044e-08)
(1.55826e-08 -4.16619e-08 4.6821e-08)
(1.80899e-08 -4.72485e-08 5.67375e-08)
(2.10267e-08 -5.30368e-08 6.83533e-08)
(2.44664e-08 -5.89022e-08 8.18225e-08)
(2.84259e-08 -6.45897e-08 9.71579e-08)
(3.27427e-08 -6.95224e-08 1.13942e-07)
(3.65352e-08 -7.24261e-08 1.29583e-07)
(4.15567e-08 -6.90314e-08 1.47041e-07)
(0 0 0)
(2.04858e-09 -5.22556e-09 4.37447e-09)
(3.90266e-09 -1.0035e-08 8.50105e-09)
(5.62704e-09 -1.46513e-08 1.26545e-08)
(7.27931e-09 -1.92551e-08 1.70737e-08)
(8.91371e-09 -2.39937e-08 2.19774e-08)
(1.0584e-08 -2.89864e-08 2.75751e-08)
(1.23463e-08 -3.43292e-08 3.4075e-08)
(1.42624e-08 -4.01001e-08 4.16893e-08)
(1.64019e-08 -4.63649e-08 5.06366e-08)
(1.88431e-08 -5.31849e-08 6.11414e-08)
(2.16758e-08 -6.06313e-08 7.34337e-08)
(2.50057e-08 -6.88015e-08 8.77425e-08)
(2.89515e-08 -7.78157e-08 1.04256e-07)
(3.35783e-08 -8.76908e-08 1.22903e-07)
(3.82138e-08 -9.71518e-08 1.41237e-07)
(4.55635e-08 -1.07396e-07 1.63377e-07)
(0 0 0)
(2.19004e-09 -5.41991e-09 4.69823e-09)
(4.16599e-09 -1.04186e-08 9.12125e-09)
(5.99095e-09 -1.5235e-08 1.35542e-08)
(7.72018e-09 -2.0065e-08 1.82427e-08)
(9.40462e-09 -2.50718e-08 2.34087e-08)
(1.10934e-08 -3.0393e-08 2.92615e-08)
(1.28362e-08 -3.6147e-08 3.60048e-08)
(1.46863e-08 -4.24397e-08 4.38417e-08)
(1.67019e-08 -4.9372e-08 5.29764e-08)
(1.89483e-08 -5.70508e-08 6.36141e-08)
(2.15006e-08 -6.56051e-08 7.59612e-08)
(2.44487e-08 -7.52095e-08 9.02243e-08)
(2.78938e-08 -8.60969e-08 1.06589e-07)
(3.18635e-08 -9.84792e-08 1.25078e-07)
(3.56043e-08 -1.1085e-07 1.43187e-07)
(4.5949e-08 -1.30578e-07 1.70349e-07)
(0 0 0)
(0 0 0)
(0 0 0)
(0 0 0)
(0 0 0)
(0 0 0)
(0 0 0)
(0 0 0)
(0 0 0)
(0 0 0)
(0 0 0)
(0 0 0)
(0 0 0)
(0 0 0)
(0 0 0)
(0 0 0)
(9.26755e-09 1.16883e-08 7.25929e-09)
(0 0 0)
(3.76122e-10 -9.9941e-10 7.43596e-10)
(7.20491e-10 -1.91177e-09 1.44873e-09)
(1.04896e-09 -2.77295e-09 2.1659e-09)
(1.37632e-09 -3.60901e-09 2.9397e-09)
(1.71735e-09 -4.43529e-09 3.81147e-09)
(2.08826e-09 -5.25445e-09 4.82097e-09)
(2.50878e-09 -6.05278e-09 6.00733e-09)
(3.00562e-09 -6.79344e-09 7.40909e-09)
(3.61829e-09 -7.4048e-09 9.06328e-09)
(4.4106e-09 -7.75994e-09 1.10035e-08)
(5.49476e-09 -7.64066e-09 1.32599e-08)
(7.08267e-09 -6.67055e-09 1.58669e-08)
(9.57866e-09 -4.19393e-09 1.88884e-08)
(1.36434e-08 8.36932e-10 2.24254e-08)
(1.94309e-08 8.90283e-09 2.61934e-08)
(2.5729e-08 1.84786e-08 2.73223e-08)
(0 0 0)
(7.41231e-10 -1.96921e-09 1.46747e-09)
(1.4194e-09 -3.76813e-09 2.85847e-09)
(2.06513e-09 -5.46863e-09 4.27212e-09)
(2.70681e-09 -7.12353e-09 5.79576e-09)
(3.37268e-09 -8.76561e-09 7.51034e-09)
(4.09327e-09 -1.04044e-08 9.49367e-09)
(4.90482e-09 -1.20201e-08 1.18221e-08)
(5.85435e-09 -1.35527e-08 1.45704e-08)
(7.00733e-09 -1.48837e-08 1.78084e-08)
(8.46089e-09 -1.58084e-08 2.15941e-08)
(1.03677e-08 -1.5996e-08 2.5962e-08)
(1.29764e-08 -1.49475e-08 3.09072e-08)
(1.6668e-08 -1.2003e-08 3.63547e-08)
(2.18446e-08 -6.62446e-09 4.20519e-08)
(2.79885e-08 2.59421e-10 4.71328e-08)
(3.4819e-08 4.81088e-09 5.10325e-08)
(0 0 0)
(1.08525e-09 -2.88047e-09 2.15362e-09)
(2.07698e-09 -5.51478e-09 4.19369e-09)
(3.01871e-09 -8.01086e-09 6.26442e-09)
(3.95044e-09 -1.04497e-08 8.49264e-09)
(4.91165e-09 -1.2885e-08 1.09958e-08)
(5.9442e-09 -1.53402e-08 1.38869e-08)
(7.09616e-09 -1.78021e-08 1.72767e-08)
(8.42653e-09 -2.02089e-08 2.12738e-08)
(1.0011e-08 -2.24323e-08 2.59791e-08)
(1.19491e-08 -2.42506e-08 3.14727e-08)
(1.43731e-08 -2.53203e-08 3.77908e-08)
(1.74557e-08 -2.51682e-08 4.48852e-08)
(2.1391e-08 -2.32819e-08 5.25535e-08)
(2.62564e-08 -1.9495e-08 6.03023e-08)
(3.13888e-08 -1.49819e-08 6.69636e-08)
(3.64103e-08 -1.2889e-08 7.14955e-08)
(0 0 0)
(1.39929e-09 -3.70365e-09 2.78557e-09)
(2.67582e-09 -7.09562e-09 5.42183e-09)
(3.88351e-09 -1.03193e-08 8.09297e-09)
(5.07151e-09 -1.34849e-08 1.09606e-08)
(6.28778e-09 -1.66707e-08 1.41743e-08)
(7.58218e-09 -1.99215e-08 1.78776e-08)
(9.00999e-09 -2.32436e-08 2.2212e-08)
(1.06355e-08 -2.65959e-08 2.73167e-08)
(1.25346e-08 -2.98748e-08 3.33226e-08)
(1.47943e-08 -3.28935e-08 4.03364e-08)
(1.75061e-08 -3.53583e-08 4.84095e-08)
(2.07453e-08 -3.68596e-08 5.74794e-08)
(2.45153e-08 -3.69229e-08 6.7261e-08)
(2.86217e-08 -3.5248e-08 7.70345e-08)
(3.23611e-08 -3.24162e-08 8.51623e-08)
(3.57196e-08 -3.0789e-08 9.01346e-08)
(0 0 0)
(1.67631e-09 -4.40964e-09 3.34964e-09)
(3.20223e-09 -8.45476e-09 6.51582e-09)
(4.63921e-09 -1.23125e-08 9.7163e-09)
(6.04281e-09 -1.61221e-08 1.31417e-08)
(7.46657e-09 -1.99884e-08 1.69675e-08)
(8.96507e-09 -2.39828e-08 2.13623e-08)
(1.05971e-08 -2.81415e-08 2.64924e-08)
(1.24287e-08 -3.24609e-08 3.25228e-08)
(1.45332e-08 -3.68889e-08 3.96125e-08)
(1.69879e-08 -4.13117e-08 4.79001e-08)
(1.98616e-08 -4.55345e-08 5.74732e-08)
(2.31859e-08 -4.92522e-08 6.83071e-08)
(2.6892e-08 -5.20039e-08 8.01324e-08)
(3.06938e-08 -5.31429e-08 9.21365e-08)
(3.3875e-08 -5.22057e-08 1.02241e-07)
(3.63138e-08 -5.01722e-08 1.08413e-07)
(0 0 0)
(1.91142e-09 -4.97062e-09 3.83554e-09)
(3.64687e-09 -9.5384e-09 7.45536e-09)
(5.27229e-09 -1.39107e-08 1.11035e-08)
(6.8468e-09 -1.82534e-08 1.49925e-08)
(8.42656e-09 -2.26977e-08 1.93171e-08)
(1.00679e-08 -2.73433e-08 2.42633e-08)
(1.18301e-08 -3.22602e-08 3.00142e-08)
(1.37785e-08 -3.749e-08 3.67528e-08)
(1.5985e-08 -4.30448e-08 4.46597e-08)
(1.85263e-08 -4.8906e-08 5.39033e-08)
(2.14781e-08 -5.50186e-08 6.46196e-08)
(2.49023e-08 -6.127e-08 7.68669e-08)
(2.88151e-08 -6.74129e-08 9.05088e-08)
(3.30931e-08 -7.28405e-08 1.04868e-07)
(3.70973e-08 -7.62619e-08 1.17619e-07)
(4.04629e-08 -7.57538e-08 1.26452e-07)
(0 0 0)
(2.10204e-09 -5.36144e-09 4.23679e-09)
(4.00503e-09 -1.02976e-08 8.22799e-09)
(5.77643e-09 -1.50403e-08 1.22359e-08)
(7.47601e-09 -1.97779e-08 1.64874e-08)
(9.15972e-09 -2.46641e-08 2.11884e-08)
(1.08825e-08 -2.98239e-08 2.6534e-08)
(1.27015e-08 -3.53584e-08 3.27143e-08)
(1.46784e-08 -4.13504e-08 3.99186e-08)
(1.68821e-08 -4.78705e-08 4.83349e-08)
(1.93904e-08 -5.4986e-08 5.81454e-08)
(2.22938e-08 -6.27769e-08 6.95185e-08)
(2.57068e-08 -7.13536e-08 8.25894e-08)
(2.97855e-08 -8.08553e-08 9.73941e-08)
(3.46987e-08 -9.12926e-08 1.1358e-07)
(4.0071e-08 -1.01538e-07 1.2899e-07)
(4.59805e-08 -1.10675e-07 1.41216e-07)
(0 0 0)
(2.24791e-09 -5.56111e-09 4.55112e-09)
(4.27683e-09 -1.06917e-08 8.82988e-09)
(6.15277e-09 -1.56401e-08 1.31085e-08)
(7.93343e-09 -2.06103e-08 1.76205e-08)
(9.67181e-09 -2.57722e-08 2.25749e-08)
(1.14188e-08 -3.12694e-08 2.81668e-08)
(1.32258e-08 -3.72255e-08 3.45824e-08)
(1.51472e-08 -4.37509e-08 4.20032e-08)
(1.72431e-08 -5.09507e-08 5.06047e-08)
(1.95815e-08 -5.8936e-08 6.05537e-08)
(2.22437e-08 -6.78421e-08 7.2001e-08)
(2.53356e-08 -7.78538e-08 8.50689e-08)
(2.89955e-08 -8.9218e-08 9.98021e-08)
(3.33333e-08 -1.02133e-07 1.15959e-07)
(3.77533e-08 -1.15212e-07 1.31283e-07)
(4.49359e-08 -1.32667e-07 1.48238e-07)
(0 0 0)
(0 0 0)
(0 0 0)
(0 0 0)
(0 0 0)
(0 0 0)
(0 0 0)
(0 0 0)
(0 0 0)
(0 0 0)
(0 0 0)
(0 0 0)
(0 0 0)
(0 0 0)
(0 0 0)
(0 0 0)
(6.24961e-09 6.07922e-09 2.98962e-09)
(0 0 0)
(3.83284e-10 -1.02213e-09 6.92017e-10)
(7.33933e-10 -1.95568e-09 1.34736e-09)
(1.06774e-09 -2.83784e-09 2.0122e-09)
(1.39923e-09 -3.69586e-09 2.72694e-09)
(1.74255e-09 -4.54641e-09 3.52845e-09)
(2.11258e-09 -5.39377e-09 4.45116e-09)
(2.52661e-09 -6.22674e-09 5.52719e-09)
(3.00673e-09 -7.01325e-09 6.78514e-09)
(3.58402e-09 -7.69152e-09 8.24651e-09)
(4.30625e-09 -8.15633e-09 9.91841e-09)
(5.25387e-09 -8.23887e-09 1.17807e-08)
(6.57133e-09 -7.6786e-09 1.37641e-08)
(8.51214e-09 -6.09482e-09 1.57066e-08)
(1.14201e-08 -3.0437e-09 1.72592e-08)
(1.51437e-08 1.28513e-09 1.77732e-08)
(1.79779e-08 5.94605e-09 1.43767e-08)
(0 0 0)
(7.55432e-10 -2.01387e-09 1.36571e-09)
(1.44607e-09 -3.85443e-09 2.65853e-09)
(2.10251e-09 -5.59612e-09 3.9691e-09)
(2.75269e-09 -7.29415e-09 5.37664e-09)
(3.42367e-09 -8.98373e-09 6.95335e-09)
(4.14358e-09 -1.06773e-08 8.76669e-09)
(4.94414e-09 -1.23594e-08 1.08796e-08)
(5.86406e-09 -1.39779e-08 1.33482e-08)
(6.95365e-09 -1.54306e-08 1.62138e-08)
(8.28209e-09 -1.65467e-08 1.94879e-08)
(9.94965e-09 -1.70697e-08 2.31232e-08)
(1.21031e-08 -1.66595e-08 2.69617e-08)
(1.49276e-08 -1.49798e-08 3.06396e-08)
(1.84975e-08 -1.20324e-08 3.34367e-08)
(2.21646e-08 -8.94016e-09 3.43458e-08)
(2.48536e-08 -8.65361e-09 3.18137e-08)
(0 0 0)
(1.10631e-09 -2.94562e-09 2.0044e-09)
(2.1166e-09 -5.64065e-09 3.90064e-09)
(3.07449e-09 -8.19679e-09 5.82062e-09)
(4.01947e-09 -1.06984e-08 7.87946e-09)
(4.98952e-09 -1.32025e-08 1.0182e-08)
(6.02342e-09 -1.57362e-08 1.28264e-08)
(7.16339e-09 -1.82914e-08 1.59048e-08)
(8.45777e-09 -2.08153e-08 1.94996e-08)
(9.96298e-09 -2.31966e-08 2.36733e-08)
(1.17439e-08 -2.52493e-08 2.84466e-08)
(1.38702e-08 -2.67041e-08 3.3757e-08)
(1.64005e-08 -2.72396e-08 3.93875e-08)
(1.93268e-08 -2.66293e-08 4.48465e-08)
(2.24258e-08 -2.51304e-08 4.92205e-08)
(2.4982e-08 -2.39555e-08 5.1315e-08)
(2.58571e-08 -2.52425e-08 4.94756e-08)
(0 0 0)
(1.42694e-09 -3.7872e-09 2.59283e-09)
(2.72798e-09 -7.25701e-09 5.04352e-09)
(3.95732e-09 -1.05577e-08 7.52064e-09)
(5.16372e-09 -1.38036e-08 1.0171e-08)
(6.39359e-09 -1.70769e-08 1.31281e-08)
(7.6935e-09 -2.04263e-08 1.65173e-08)
(9.11247e-09 -2.3863e-08 2.04567e-08)
(1.07034e-08 -2.73534e-08 2.50539e-08)
(1.25215e-08 -3.0808e-08 3.03941e-08)
(1.46176e-08 -3.40675e-08 3.65151e-08)
(1.70188e-08 -3.68949e-08 4.33594e-08)
(1.96855e-08 -3.89947e-08 5.06894e-08)
(2.24249e-08 -4.01087e-08 5.79416e-08)
(2.47641e-08 -4.02712e-08 6.40351e-08)
(2.5982e-08 -4.01503e-08 6.74421e-08)
(2.51455e-08 -4.13775e-08 6.62189e-08)
(0 0 0)
(1.71016e-09 -4.50886e-09 3.11828e-09)
(3.26627e-09 -8.64644e-09 6.06205e-09)
(4.73032e-09 -1.25956e-08 9.03072e-09)
(6.15773e-09 -1.65003e-08 1.21974e-08)
(7.60072e-09 -2.04697e-08 1.57193e-08)
(9.11084e-09 -2.4579e-08 1.97437e-08)
(1.07411e-08 -2.88682e-08 2.44104e-08)
(1.25467e-08 -3.33385e-08 2.98485e-08)
(1.45819e-08 -3.79457e-08 3.61658e-08)
(1.68904e-08 -4.25905e-08 4.34241e-08)
(1.94817e-08 -4.71072e-08 5.15911e-08)
(2.22809e-08 -5.12497e-08 6.04502e-08)
(2.50342e-08 -5.46765e-08 6.94336e-08)
(2.71832e-08 -5.69648e-08 7.73576e-08)
(2.79636e-08 -5.78311e-08 8.23264e-08)
(2.61519e-08 -5.79568e-08 8.19713e-08)
(0 0 0)
(1.95096e-09 -5.08224e-09 3.57117e-09)
(3.72183e-09 -9.75405e-09 6.93737e-09)
(5.37949e-09 -1.42291e-08 1.03221e-08)
(6.98322e-09 -1.86789e-08 1.39186e-08)
(8.5883e-09 -2.32386e-08 1.79014e-08)
(1.02486e-08 -2.80113e-08 2.24335e-08)
(1.20188e-08 -3.30699e-08 2.76695e-08)
(1.39551e-08 -3.84574e-08 3.3754e-08)
(1.61137e-08 -4.41875e-08 4.08125e-08)
(1.85436e-08 -5.02418e-08 4.893e-08)
(2.12717e-08 -5.65657e-08 5.81092e-08)
(2.42707e-08 -6.30468e-08 6.81862e-08)
(2.7396e-08 -6.94413e-08 7.86583e-08)
(3.02717e-08 -7.51757e-08 8.83513e-08)
(3.21784e-08 -7.90714e-08 9.50689e-08)
(3.16029e-08 -7.9137e-08 9.61007e-08)
(0 0 0)
(2.14658e-09 -5.48167e-09 3.94548e-09)
(4.08968e-09 -1.05299e-08 7.65781e-09)
(5.89799e-09 -1.53836e-08 1.13773e-08)
(7.63187e-09 -2.02365e-08 1.53104e-08)
(9.34688e-09 -2.52467e-08 1.96421e-08)
(1.10964e-08 -3.05422e-08 2.45434e-08)
(1.2934e-08 -3.62256e-08 3.01756e-08)
(1.4915e-08 -4.23787e-08 3.66888e-08)
(1.70964e-08 -4.90678e-08 4.4215e-08)
(1.95355e-08 -5.63503e-08 5.28507e-08)
(2.22867e-08 -6.42848e-08 6.26228e-08)
(2.53962e-08 -7.29376e-08 7.34181e-08)
(2.88902e-08 -8.23563e-08 8.48256e-08)
(3.2711e-08 -9.23836e-08 9.57789e-08)
(3.63571e-08 -1.01783e-07 1.0394e-07)
(3.95937e-08 -1.09334e-07 1.0618e-07)
(0 0 0)
(2.29665e-09 -5.68574e-09 4.23901e-09)
(4.36962e-09 -1.09327e-08 8.21972e-09)
(6.28647e-09 -1.59963e-08 1.21917e-08)
(8.10583e-09 -2.10864e-08 1.63674e-08)
(9.88085e-09 -2.63772e-08 2.0935e-08)
(1.16617e-08 -3.2015e-08 2.60659e-08)
(1.34974e-08 -3.81237e-08 3.19183e-08)
(1.54383e-08 -4.48113e-08 3.86364e-08)
(1.75363e-08 -5.21751e-08 4.63433e-08)
(1.98456e-08 -6.03104e-08 5.51252e-08)
(2.24226e-08 -6.93215e-08 6.50012e-08)
(2.53248e-08 -7.93317e-08 7.58625e-08)
(2.85955e-08 -9.04689e-08 8.73375e-08)
(3.21726e-08 -1.02721e-07 9.85075e-08)
(3.53805e-08 -1.14599e-07 1.07067e-07)
(3.99947e-08 -1.29819e-07 1.09871e-07)
(0 0 0)
(0 0 0)
(0 0 0)
(0 0 0)
(0 0 0)
(0 0 0)
(0 0 0)
(0 0 0)
(0 0 0)
(0 0 0)
(0 0 0)
(0 0 0)
(0 0 0)
(0 0 0)
(0 0 0)
(0 0 0)
(3.92667e-09 3.16478e-09 1.6692e-09)
(0 0 0)
(3.88608e-10 -1.04184e-09 6.16007e-10)
(7.43686e-10 -1.9938e-09 1.19864e-09)
(1.08072e-09 -2.89422e-09 1.78826e-09)
(1.41363e-09 -3.77147e-09 2.4198e-09)
(1.75545e-09 -4.64343e-09 3.12446e-09)
(2.11911e-09 -5.51613e-09 3.93029e-09)
(2.51836e-09 -6.38129e-09 4.86159e-09)
(2.96911e-09 -7.21236e-09 5.9366e-09)
(3.49126e-09 -7.95872e-09 7.16209e-09)
(4.11209e-09 -8.53815e-09 8.52301e-09)
(4.87346e-09 -8.82927e-09 9.96427e-09)
(5.84483e-09 -8.66722e-09 1.13601e-08)
(7.13656e-09 -7.85039e-09 1.24656e-08)
(8.8641e-09 -6.19113e-09 1.28674e-08)
(1.08234e-08 -3.83152e-09 1.21467e-08)
(1.18031e-08 -4.6816e-10 9.25842e-09)
(0 0 0)
(7.6607e-10 -2.05259e-09 1.21576e-09)
(1.46561e-09 -3.92928e-09 2.36522e-09)
(2.12867e-09 -5.70676e-09 3.5276e-09)
(2.78207e-09 -7.44231e-09 4.77144e-09)
(3.45087e-09 -9.17339e-09 6.15788e-09)
(4.15956e-09 -1.09154e-08 7.74199e-09)
(4.9335e-09 -1.26579e-08 9.57169e-09)
(5.8002e-09 -1.43577e-08 1.16832e-08)
(6.79033e-09 -1.59302e-08 1.40907e-08)
(7.93832e-09 -1.72404e-08 1.67662e-08)
(9.28251e-09 -1.81011e-08 1.96051e-08)
(1.08605e-08 -1.8299e-08 2.2369e-08)
(1.26797e-08 -1.76923e-08 2.46053e-08)
(1.46102e-08 -1.644e-08 2.56038e-08)
(1.61557e-08 -1.52917e-08 2.4811e-08)
(1.68136e-08 -1.56565e-08 2.24474e-08)
(0 0 0)
(1.12225e-09 -3.00201e-09 1.78447e-09)
(2.14601e-09 -5.74963e-09 3.4706e-09)
(3.11419e-09 -8.3577e-09 5.17373e-09)
(4.0649e-09 -1.09134e-08 6.99347e-09)
(5.03348e-09 -1.34768e-08 9.01877e-09)
(6.05399e-09 -1.60784e-08 1.133e-08)
(7.16043e-09 -1.87155e-08 1.39976e-08)
(8.38692e-09 -2.13449e-08 1.70764e-08)
(9.76546e-09 -2.38733e-08 2.05912e-08)
(1.13192e-08 -2.61504e-08 2.45105e-08)
(1.30473e-08 -2.79735e-08 2.87014e-08)
(1.48928e-08 -2.91351e-08 3.28594e-08)
(1.66791e-08 -2.95647e-08 3.64232e-08)
(1.80291e-08 -2.95958e-08 3.85643e-08)
(1.8463e-08 -3.00325e-08 3.86732e-08)
(1.75691e-08 -3.18395e-08 3.71125e-08)
(0 0 0)
(1.44814e-09 -3.85935e-09 2.3086e-09)
(2.76726e-09 -7.39638e-09 4.48806e-09)
(4.01091e-09 -1.07632e-08 6.68581e-09)
(5.22635e-09 -1.40777e-08 9.02897e-09)
(6.45714e-09 -1.7425e-08 1.1631e-08)
(7.74468e-09 -2.08572e-08 1.45948e-08)
(9.12905e-09 -2.43899e-08 1.80115e-08)
(1.06479e-08 -2.79969e-08 2.19543e-08)
(1.23309e-08 -3.16014e-08 2.6462e-08)
(1.41862e-08 -3.50694e-08 3.15097e-08)
(1.61713e-08 -3.82104e-08 3.69582e-08)
(1.81376e-08 -4.08069e-08 4.24767e-08)
(1.97412e-08 -4.27053e-08 4.74481e-08)
(2.03868e-08 -4.39889e-08 5.09487e-08)
(1.95991e-08 -4.50406e-08 5.21806e-08)
(1.71599e-08 -4.66409e-08 5.14263e-08)
(0 0 0)
(1.73648e-09 -4.59434e-09 2.77686e-09)
(3.31527e-09 -8.81144e-09 5.39529e-09)
(4.79789e-09 -1.28386e-08 8.02974e-09)
(6.2384e-09 -1.68236e-08 1.08303e-08)
(7.68627e-09 -2.08786e-08 1.39306e-08)
(9.18805e-09 -2.50813e-08 1.7452e-08)
(1.07881e-08 -2.94741e-08 2.15032e-08)
(1.25272e-08 -3.40613e-08 2.61735e-08)
(1.44355e-08 -3.8803e-08 3.15169e-08)
(1.65175e-08 -4.36086e-08 3.7522e-08)
(1.87196e-08 -4.83282e-08 4.40595e-08)
(2.08691e-08 -5.27426e-08 5.07996e-08)
(2.25759e-08 -5.65465e-08 5.71026e-08)
(2.31649e-08 -5.93325e-08 6.19575e-08)
(2.20787e-08 -6.06944e-08 6.43261e-08)
(1.87291e-08 -6.07651e-08 6.43418e-08)
(0 0 0)
(1.98211e-09 -5.17814e-09 3.18072e-09)
(3.78014e-09 -9.93906e-09 6.17548e-09)
(5.46072e-09 -1.45014e-08 9.17995e-09)
(7.08209e-09 -1.90403e-08 1.23617e-08)
(8.69717e-09 -2.3694e-08 1.58695e-08)
(1.03555e-08 -2.8567e-08 1.98379e-08)
(1.2104e-08 -3.3732e-08 2.43878e-08)
(1.39866e-08 -3.92305e-08 2.96201e-08)
(1.60386e-08 -4.5071e-08 3.5601e-08)
(1.82759e-08 -5.12262e-08 4.23327e-08)
(2.06722e-08 -5.76243e-08 4.97018e-08)
(2.3116e-08 -6.41217e-08 5.73933e-08)
(2.53423e-08 -7.04202e-08 6.47642e-08)
(2.6863e-08 -7.58703e-08 7.0727e-08)
(2.71239e-08 -7.92708e-08 7.40032e-08)
(2.50828e-08 -7.83978e-08 7.46617e-08)
(0 0 0)
(2.18216e-09 -5.58468e-09 3.51476e-09)
(4.15657e-09 -1.07287e-08 6.8182e-09)
(5.99202e-09 -1.56758e-08 1.01208e-08)
(7.7482e-09 -2.0624e-08 1.36018e-08)
(9.47888e-09 -2.57336e-08 1.74189e-08)
(1.1234e-08 -3.11331e-08 2.1714e-08)
(1.30609e-08 -3.69231e-08 2.66133e-08)
(1.50048e-08 -4.31795e-08 3.22222e-08)
(1.71064e-08 -4.99561e-08 3.86113e-08)
(1.93966e-08 -5.72871e-08 4.5789e-08)
(2.18873e-08 -6.51887e-08 5.36519e-08)
(2.45561e-08 -7.36496e-08 6.18983e-08)
(2.73259e-08 -8.25828e-08 6.98858e-08)
(3.00324e-08 -9.16403e-08 7.64506e-08)
(3.23002e-08 -9.95632e-08 8.0043e-08)
(3.43957e-08 -1.04812e-07 8.04898e-08)
(0 0 0)
(2.3361e-09 -5.79226e-09 3.77699e-09)
(4.44408e-09 -1.11382e-08 7.32008e-09)
(6.39189e-09 -1.62986e-08 1.08479e-08)
(8.23796e-09 -2.14869e-08 1.45453e-08)
(1.00343e-08 -2.68797e-08 1.85729e-08)
(1.18284e-08 -3.26229e-08 2.30733e-08)
(1.36649e-08 -3.88372e-08 2.81706e-08)
(1.55863e-08 -4.56219e-08 3.39659e-08)
(1.76323e-08 -5.30578e-08 4.0524e-08)
(1.98376e-08 -6.12102e-08 4.78469e-08)
(2.2227e-08 -7.01306e-08 5.58281e-08)
(2.48054e-08 -7.9851e-08 6.41712e-08)
(2.75373e-08 -9.03512e-08 7.22566e-08)
(3.02763e-08 -1.01425e-07 7.89764e-08)
(3.24687e-08 -1.11645e-07 8.27227e-08)
(3.56268e-08 -1.23899e-07 8.1413e-08)
(0 0 0)
(0 0 0)
(0 0 0)
(0 0 0)
(0 0 0)
(0 0 0)
(0 0 0)
(0 0 0)
(0 0 0)
(0 0 0)
(0 0 0)
(0 0 0)
(0 0 0)
(0 0 0)
(0 0 0)
(0 0 0)
(2.73764e-09 1.82568e-09 1.49008e-09)
(0 0 0)
(3.92297e-10 -1.0582e-09 5.18855e-10)
(7.50221e-10 -2.02545e-09 1.00905e-09)
(1.08881e-09 -2.94105e-09 1.50398e-09)
(1.42121e-09 -3.83428e-09 2.03223e-09)
(1.75916e-09 -4.72406e-09 2.61874e-09)
(2.1134e-09 -5.6179e-09 3.28495e-09)
(2.49409e-09 -6.51006e-09 4.04789e-09)
(2.91111e-09 -7.37863e-09 4.91735e-09)
(3.37423e-09 -8.18165e-09 5.89035e-09)
(3.89386e-09 -8.85309e-09 6.94132e-09)
(4.48392e-09 -9.30046e-09 8.00706e-09)
(5.16881e-09 -9.40565e-09 8.96625e-09)
(5.99356e-09 -9.02734e-09 9.62154e-09)
(7.01438e-09 -8.00571e-09 9.72166e-09)
(8.13276e-09 -6.31852e-09 9.1601e-09)
(8.69019e-09 -3.20048e-09 7.60541e-09)
(0 0 0)
(7.73528e-10 -2.08472e-09 1.02409e-09)
(1.47889e-09 -3.99142e-09 1.99124e-09)
(2.1453e-09 -5.79856e-09 2.96705e-09)
(2.79815e-09 -7.56513e-09 4.00758e-09)
(3.4601e-09 -9.33043e-09 5.16173e-09)
(4.15168e-09 -1.11124e-08 6.47174e-09)
(4.89169e-09 -1.29047e-08 7.97134e-09)
(5.69685e-09 -1.46714e-08 9.6805e-09)
(6.58021e-09 -1.63415e-08 1.15948e-08)
(7.54809e-09 -1.78041e-08 1.36675e-08)
(8.59575e-09 -1.89124e-08 1.57813e-08)
(9.70027e-09 -1.95097e-08 1.77134e-08)
(1.08063e-08 -1.94985e-08 1.9109e-08)
(1.17951e-08 -1.8968e-08 1.95425e-08)
(1.24502e-08 -1.83225e-08 1.8908e-08)
(1.28956e-08 -1.83987e-08 1.79089e-08)
(0 0 0)
(1.13361e-09 -3.04878e-09 1.50327e-09)
(2.16638e-09 -5.83997e-09 2.92214e-09)
(3.14012e-09 -8.4909e-09 4.3521e-09)
(4.09107e-09 -1.1091e-08 5.87468e-09)
(5.05145e-09 -1.37026e-08 7.56111e-09)
(6.05014e-09 -1.6359e-08 9.47318e-09)
(7.11269e-09 -1.90618e-08 1.1661e-08)
(8.25958e-09 -2.17747e-08 1.41559e-08)
(9.50126e-09 -2.44177e-08 1.69562e-08)
(1.08282e-08 -2.68625e-08 2.0004e-08)
(1.21933e-08 -2.89417e-08 2.315e-08)
(1.34834e-08 -3.04908e-08 2.61131e-08)
(1.44854e-08 -3.14547e-08 2.8464e-08)
(1.48969e-08 -3.20586e-08 2.97267e-08)
(1.45755e-08 -3.27893e-08 2.98042e-08)
(1.37901e-08 -3.42757e-08 2.94952e-08)
(0 0 0)
(1.4635e-09 -3.9191e-09 1.94505e-09)
(2.79505e-09 -7.51164e-09 3.77933e-09)
(4.04696e-09 -1.09328e-08 5.62491e-09)
(5.26447e-09 -1.43028e-08 7.58591e-09)
(6.48767e-09 -1.77094e-08 9.75333e-09)
(7.75227e-09 -2.12067e-08 1.22066e-08)
(9.08913e-09 -2.48133e-08 1.50109e-08)
(1.05214e-08 -2.85071e-08 1.82096e-08)
(1.20565e-08 -3.22191e-08 2.18079e-08)
(1.36703e-08 -3.58275e-08 2.57463e-08)
(1.52781e-08 -3.91602e-08 2.98624e-08)
(1.66866e-08 -4.2018e-08 3.38486e-08)
(1.75399e-08 -4.42395e-08 3.72387e-08)
(1.73519e-08 -4.58159e-08 3.95151e-08)
(1.59863e-08 -4.6932e-08 4.04809e-08)
(1.38749e-08 -4.81964e-08 4.08861e-08)
(0 0 0)
(1.75587e-09 -4.66496e-09 2.33992e-09)
(3.35066e-09 -8.94751e-09 4.54403e-09)
(4.84473e-09 -1.30384e-08 6.75683e-09)
(6.29014e-09 -1.70878e-08 9.1013e-09)
(7.73295e-09 -2.121e-08 1.16849e-08)
(9.21414e-09 -2.54838e-08 1.46015e-08)
(1.07691e-08 -2.99521e-08 1.79293e-08)
(1.24246e-08 -3.46189e-08 2.17227e-08)
(1.41903e-08 -3.94433e-08 2.5995e-08)
(1.60422e-08 -4.43325e-08 3.06911e-08)
(1.78908e-08 -4.91311e-08 3.56465e-08)
(1.95297e-08 -5.36058e-08 4.05411e-08)
(2.05702e-08 -5.74159e-08 4.48803e-08)
(2.04519e-08 -6.00854e-08 4.8088e-08)
(1.89251e-08 -6.11551e-08 4.98367e-08)
(1.60218e-08 -6.07588e-08 5.08395e-08)
(0 0 0)
(2.00546e-09 -5.25716e-09 2.68069e-09)
(3.82312e-09 -1.00912e-08 5.20209e-09)
(5.51864e-09 -1.47242e-08 7.72632e-09)
(7.14852e-09 -1.93341e-08 1.03909e-08)
(8.76263e-09 -2.40602e-08 1.33154e-08)
(1.04054e-08 -2.90069e-08 1.66045e-08)
(1.21159e-08 -3.42449e-08 2.03454e-08)
(1.39256e-08 -3.98101e-08 2.46003e-08)
(1.58524e-08 -4.57011e-08 2.93893e-08)
(1.78883e-08 -5.18726e-08 3.46617e-08)
(1.99781e-08 -5.82223e-08 4.02528e-08)
(2.19847e-08 -6.45556e-08 4.5831e-08)
(2.36488e-08 -7.04994e-08 5.08619e-08)
(2.45835e-08 -7.53299e-08 5.46771e-08)
(2.44984e-08 -7.79215e-08 5.68168e-08)
(2.2911e-08 -7.63252e-08 5.80932e-08)
(0 0 0)
(2.20925e-09 -5.66935e-09 2.96277e-09)
(4.20682e-09 -1.08915e-08 5.74464e-09)
(6.06081e-09 -1.59141e-08 8.52014e-09)
(7.82955e-09 -2.09372e-08 1.14364e-08)
(9.56429e-09 -2.61222e-08 1.46207e-08)
(1.13107e-08 -3.1596e-08 1.81834e-08)
(1.31095e-08 -3.74547e-08 2.22159e-08)
(1.49958e-08 -4.37647e-08 2.67834e-08)
(1.69961e-08 -5.05624e-08 3.19077e-08)
(1.91224e-08 -5.78521e-08 3.75387e-08)
(2.1364e-08 -6.56001e-08 4.35086e-08)
(2.36778e-08 -7.37158e-08 4.94704e-08)
(2.59891e-08 -8.2e-08 5.48361e-08)
(2.82102e-08 -9.00015e-08 5.87953e-08)
(3.01786e-08 -9.65987e-08 6.06831e-08)
(3.26642e-08 -1.006e-07 6.13705e-08)
(0 0 0)
(2.36658e-09 -5.87962e-09 3.18441e-09)
(4.50097e-09 -1.13062e-08 6.16876e-09)
(6.4708e-09 -1.65442e-08 9.13448e-09)
(8.33353e-09 -2.18093e-08 1.22335e-08)
(1.01392e-08 -2.72784e-08 1.55956e-08)
(1.19321e-08 -3.30952e-08 1.9332e-08)
(1.37516e-08 -3.93743e-08 2.35331e-08)
(1.56323e-08 -4.62031e-08 2.82608e-08)
(1.76031e-08 -5.36412e-08 3.3533e-08)
(1.9684e-08 -6.17186e-08 3.92948e-08)
(2.18827e-08 -7.04307e-08 4.53741e-08)
(2.41873e-08 -7.97249e-08 5.14177e-08)
(2.65598e-08 -8.94702e-08 5.68224e-08)
(2.8902e-08 -9.93717e-08 6.07332e-08)
(3.08221e-08 -1.08204e-07 6.23636e-08)
(3.40992e-08 -1.18932e-07 6.10072e-08)
(0 0 0)
(0 0 0)
(0 0 0)
(0 0 0)
(0 0 0)
(0 0 0)
(0 0 0)
(0 0 0)
(0 0 0)
(0 0 0)
(0 0 0)
(0 0 0)
(0 0 0)
(0 0 0)
(0 0 0)
(0 0 0)
(2.23986e-09 1.32397e-09 1.33077e-09)
(0 0 0)
(3.94646e-10 -1.07101e-09 4.04401e-10)
(7.54186e-10 -2.0502e-09 7.86093e-10)
(1.0932e-09 -2.97767e-09 1.17072e-09)
(1.42408e-09 -3.88338e-09 1.57998e-09)
(1.75727e-09 -4.78696e-09 2.03237e-09)
(2.10158e-09 -5.69702e-09 2.54315e-09)
(2.46415e-09 -6.60956e-09 3.12334e-09)
(2.85014e-09 -7.50568e-09 3.77719e-09)
(3.26227e-09 -8.34845e-09 4.49769e-09)
(3.7009e-09 -9.07993e-09 5.25948e-09)
(4.16684e-09 -9.61898e-09 6.00991e-09)
(4.67024e-09 -9.85921e-09 6.6609e-09)
(5.2493e-09 -9.66007e-09 7.09351e-09)
(5.98405e-09 -8.82778e-09 7.19974e-09)
(6.86991e-09 -7.2558e-09 6.99456e-09)
(7.4403e-09 -4.07192e-09 6.20555e-09)
(0 0 0)
(7.78365e-10 -2.10988e-09 7.98229e-10)
(1.48717e-09 -4.04004e-09 1.55137e-09)
(2.1547e-09 -5.87034e-09 2.30977e-09)
(2.80494e-09 -7.661e-09 3.11599e-09)
(3.45823e-09 -9.45261e-09 4.00636e-09)
(4.13155e-09 -1.12649e-08 5.01096e-09)
(4.8382e-09 -1.30942e-08 6.15176e-09)
(5.58655e-09 -1.49092e-08 7.43783e-09)
(6.37753e-09 -1.66462e-08 8.85683e-09)
(7.20133e-09 -1.82055e-08 1.03621e-08)
(8.03477e-09 -1.9454e-08 1.1856e-08)
(8.84259e-09 -2.02421e-08 1.31765e-08)
(9.587e-09 -2.04478e-08 1.41064e-08)
(1.02434e-08 -2.00598e-08 1.44488e-08)
(1.07771e-08 -1.93323e-08 1.42426e-08)
(1.14646e-08 -1.89864e-08 1.39292e-08)
(0 0 0)
(1.14115e-09 -3.0854e-09 1.17184e-09)
(2.17944e-09 -5.91062e-09 2.27686e-09)
(3.15546e-09 -8.5949e-09 3.38838e-09)
(4.10353e-09 -1.12292e-08 4.5683e-09)
(5.05288e-09 -1.38774e-08 5.86956e-09)
(6.02777e-09 -1.65747e-08 7.33637e-09)
(7.04668e-09 -1.93251e-08 9.00158e-09)
(8.11961e-09 -2.20962e-08 1.08804e-08)
(9.24257e-09 -2.4814e-08 1.29589e-08)
(1.03883e-08 -2.73583e-08 1.51776e-08)
(1.14932e-08 -2.95693e-08 1.74107e-08)
(1.24435e-08 -3.12779e-08 1.94537e-08)
(1.30744e-08 -3.23849e-08 2.10446e-08)
(1.32285e-08 -3.29997e-08 2.19705e-08)
(1.29613e-08 -3.34929e-08 2.22861e-08)
(1.26551e-08 -3.44982e-08 2.2446e-08)
(0 0 0)
(1.47393e-09 -3.96583e-09 1.5164e-09)
(2.81338e-09 -7.60165e-09 2.94515e-09)
(4.06926e-09 -1.10648e-08 4.37997e-09)
(5.28467e-09 -1.44774e-08 5.89996e-09)
(6.4964e-09 -1.79282e-08 7.57286e-09)
(7.73503e-09 -2.14729e-08 9.45559e-09)
(9.02375e-09 -2.51309e-08 1.15914e-08)
(1.03746e-08 -2.88815e-08 1.40024e-08)
(1.17807e-08 -3.26567e-08 1.66766e-08)
(1.32018e-08 -3.63352e-08 1.9549e-08)
(1.45422e-08 -3.97408e-08 2.24798e-08)
(1.56208e-08 -4.26568e-08 2.52422e-08)
(1.61532e-08 -4.48725e-08 2.7551e-08)
(1.58243e-08 -4.62903e-08 2.91767e-08)
(1.46813e-08 -4.70566e-08 3.01139e-08)
(1.32153e-08 -4.78491e-08 3.07678e-08)
(0 0 0)
(1.76933e-09 -4.7201e-09 1.82451e-09)
(3.37465e-09 -9.05353e-09 3.54161e-09)
(4.8749e-09 -1.31934e-08 5.26225e-09)
(6.32004e-09 -1.72916e-08 7.07994e-09)
(7.75285e-09 -2.14632e-08 9.07476e-09)
(9.2092e-09 -2.57872e-08 1.13142e-08)
(1.0717e-08 -3.03053e-08 1.38504e-08)
(1.22926e-08 -3.50185e-08 1.67121e-08)
(1.39328e-08 -3.98806e-08 1.98907e-08)
(1.56004e-08 -4.47882e-08 2.33199e-08)
(1.72009e-08 -4.9568e-08 2.68514e-08)
(1.85486e-08 -5.39544e-08 3.02415e-08)
(1.93367e-08 -5.7558e-08 3.31794e-08)
(1.91786e-08 -5.98557e-08 3.53998e-08)