/*--------------------------------*- C++ -*----------------------------------*\
| =========                 |                                                 |
| \\      /  F ield         | OpenFOAM: The Open Source CFD Toolbox           |
|  \\    /   O peration     | Version:  v1912                                 |
|   \\  /    A nd           | Website:  www.openfoam.com                      |
|    \\/     M anipulation  |                                                 |
\*---------------------------------------------------------------------------*/
FoamFile
{
    version     2.0;
    format      ascii;
    class       volVectorField;
    location    "0.95/fluid";
    object      cellMotionU;
}
// * * * * * * * * * * * * * * * * * * * * * * * * * * * * * * * * * * * * * //

dimensions      [0 1 -1 0 0 0 0];


internalField   nonuniform List<vector> 
14592
(
(1.05432e-10 -2.68384e-10 2.05202e-10)
(2.94861e-10 -7.50288e-10 5.81069e-10)
(4.71684e-10 -1.19782e-09 9.51479e-10)
(6.43577e-10 -1.62638e-09 1.34111e-09)
(8.18734e-10 -2.04663e-09 1.77322e-09)
(1.00493e-09 -2.46261e-09 2.26942e-09)
(1.21159e-09 -2.87093e-09 2.85136e-09)
(1.45132e-09 -3.25788e-09 3.54117e-09)
(1.74238e-09 -3.59374e-09 4.36168e-09)
(2.11455e-09 -3.82306e-09 5.33761e-09)
(2.62156e-09 -3.84406e-09 6.4991e-09)
(3.37247e-09 -3.46238e-09 7.89708e-09)
(4.61043e-09 -2.26822e-09 9.65589e-09)
(6.92451e-09 7.2164e-10 1.21416e-08)
(1.16224e-08 7.87275e-09 1.62961e-08)
(1.95006e-08 2.16356e-08 2.26557e-08)
(3.13182e-10 -7.96856e-10 6.09886e-10)
(8.75879e-10 -2.22797e-09 1.72694e-09)
(1.40032e-09 -3.55769e-09 2.82677e-09)
(1.91017e-09 -4.83304e-09 3.98364e-09)
(2.4273e-09 -6.08517e-09 5.26445e-09)
(2.97516e-09 -7.32846e-09 6.73363e-09)
(3.58076e-09 -8.55594e-09 8.45475e-09)
(4.27866e-09 -9.73162e-09 1.04918e-08)
(5.11769e-09 -1.07771e-08 1.29096e-08)
(6.17254e-09 -1.15475e-08 1.57736e-08)
(7.5674e-09 -1.17901e-08 1.91504e-08)
(9.52253e-09 -1.10731e-08 2.31167e-08)
(1.2444e-08 -8.66176e-09 2.77921e-08)
(1.70337e-08 -3.37108e-09 3.33929e-08)
(2.41184e-08 6.22287e-09 4.01349e-08)
(3.24029e-08 1.85084e-08 4.6832e-08)
(5.12295e-10 -1.30174e-09 9.98879e-10)
(1.43224e-09 -3.64064e-09 2.82777e-09)
(2.28874e-09 -5.81726e-09 4.62743e-09)
(3.11828e-09 -7.90967e-09 6.51752e-09)
(3.95646e-09 -9.97294e-09 8.60753e-09)
(4.83966e-09 -1.20358e-08 1.10016e-08)
(5.80899e-09 -1.40961e-08 1.38027e-08)
(6.91536e-09 -1.61108e-08 1.71142e-08)
(8.22637e-09 -1.79794e-08 2.10398e-08)
(9.83727e-09 -1.95164e-08 2.568e-08)
(1.18896e-08 -2.04101e-08 3.11244e-08)
(1.45997e-08 -2.01723e-08 3.74424e-08)
(1.83101e-08 -1.81015e-08 4.46846e-08)
(2.34979e-08 -1.33828e-08 5.28777e-08)
(3.05595e-08 -5.71102e-09 6.19634e-08)
(3.81404e-08 2.40652e-09 7.06862e-08)
(6.97498e-10 -1.76716e-09 1.36253e-09)
(1.94917e-09 -4.94443e-09 3.85621e-09)
(3.11186e-09 -7.90706e-09 6.3071e-09)
(4.23369e-09 -1.07657e-08 8.87686e-09)
(5.36025e-09 -1.36007e-08 1.17123e-08)
(6.53844e-09 -1.64613e-08 1.49536e-08)
(7.8197e-09 -1.93608e-08 1.87394e-08)
(9.26468e-09 -2.22678e-08 2.32087e-08)
(1.0949e-08 -2.50908e-08 2.85013e-08)
(1.29688e-08 -2.76541e-08 3.47504e-08)
(1.54472e-08 -2.96641e-08 4.20681e-08)
(1.85375e-08 -3.06748e-08 5.05196e-08)
(2.24229e-08 -3.00835e-08 6.00857e-08)
(2.72695e-08 -2.72556e-08 7.06002e-08)
(3.30559e-08 -2.20275e-08 8.15978e-08)
(3.85958e-08 -1.62492e-08 9.11825e-08)
(8.64354e-10 -2.17735e-09 1.69247e-09)
(2.41428e-09 -6.09526e-09 4.78845e-09)
(3.84979e-09 -9.75735e-09 7.8264e-09)
(5.22732e-09 -1.33058e-08 1.10036e-08)
(6.60079e-09 -1.68491e-08 1.44996e-08)
(8.02407e-09 -2.04614e-08 1.84847e-08)
(9.55485e-09 -2.4181e-08 2.31274e-08)
(1.12589e-08 -2.80047e-08 2.85978e-08)
(1.32136e-08 -3.18772e-08 3.50678e-08)
(1.55094e-08 -3.56735e-08 4.27044e-08)
(1.82461e-08 -3.91738e-08 5.16528e-08)
(2.15214e-08 -4.20297e-08 6.20036e-08)
(2.53984e-08 -4.37247e-08 7.37315e-08)
(2.98343e-08 -4.3557e-08 8.65733e-08)
(3.4555e-08 -4.07858e-08 9.97268e-08)
(3.85601e-08 -3.59348e-08 1.10526e-07)
(1.00978e-09 -2.51714e-09 1.98223e-09)
(2.81825e-09 -7.05028e-09 5.60563e-09)
(4.48715e-09 -1.12986e-08 9.15359e-09)
(6.07898e-09 -1.54347e-08 1.28527e-08)
(7.65206e-09 -1.9594e-08 1.69074e-08)
(9.26447e-09 -2.38786e-08 2.15117e-08)
(1.0977e-08 -2.83574e-08 2.68567e-08)
(1.28571e-08 -3.30658e-08 3.3136e-08)
(1.49818e-08 -3.80016e-08 4.05477e-08)
(1.74387e-08 -4.31184e-08 4.9291e-08)
(2.03207e-08 -4.83118e-08 5.95539e-08)
(2.37163e-08 -5.33935e-08 7.14895e-08)
(2.76885e-08 -5.80274e-08 8.517e-08)
(3.22052e-08 -6.15562e-08 1.00439e-07)
(3.70143e-08 -6.26814e-08 1.16478e-07)
(4.10612e-08 -5.99946e-08 1.29871e-07)
(1.1314e-09 -2.7722e-09 2.22704e-09)
(3.15517e-09 -7.76934e-09 6.29456e-09)
(5.015e-09 -1.24657e-08 1.02672e-08)
(6.77598e-09 -1.70598e-08 1.43925e-08)
(8.49876e-09 -2.17121e-08 1.88929e-08)
(1.02422e-08 -2.6551e-08 2.39772e-08)
(1.20669e-08 -3.16762e-08 2.98502e-08)
(1.40391e-08 -3.71632e-08 3.67187e-08)
(1.62341e-08 -4.30663e-08 4.4796e-08)
(1.87389e-08 -4.94232e-08 5.43025e-08)
(2.16521e-08 -5.62601e-08 6.54615e-08)
(2.50981e-08 -6.36017e-08 7.85072e-08)
(2.92277e-08 -7.1453e-08 9.36637e-08)
(3.42373e-08 -7.96985e-08 1.11086e-07)
(4.02724e-08 -8.76504e-08 1.30401e-07)
(4.62261e-08 -9.27716e-08 1.47749e-07)
(1.22848e-09 -2.93016e-09 2.42451e-09)
(3.42266e-09 -8.2175e-09 6.84846e-09)
(5.42989e-09 -1.3201e-08 1.11562e-08)
(7.31535e-09 -1.80993e-08 1.56084e-08)
(9.13827e-09 -2.30923e-08 2.04363e-08)
(1.09556e-08 -2.83295e-08 2.58551e-08)
(1.28247e-08 -3.39363e-08 3.20728e-08)
(1.48071e-08 -4.00202e-08 3.92966e-08)
(1.69723e-08 -4.66793e-08 4.77381e-08)
(1.94013e-08 -5.40129e-08 5.76156e-08)
(2.21953e-08 -6.21418e-08 6.91599e-08)
(2.54906e-08 -7.12418e-08 8.26282e-08)
(2.95068e-08 -8.16113e-08 9.83448e-08)
(3.46348e-08 -9.37626e-08 1.16758e-07)
(4.14882e-08 -1.08334e-07 1.38227e-07)
(4.94936e-08 -1.236e-07 1.59643e-07)
(1.07448e-10 -2.74818e-10 1.94879e-10)
(3.00481e-10 -7.68376e-10 5.5163e-10)
(4.8038e-10 -1.22707e-09 9.02339e-10)
(6.55087e-10 -1.66709e-09 1.27036e-09)
(8.32203e-10 -2.09944e-09 1.67667e-09)
(1.01941e-09 -2.52902e-09 2.14103e-09)
(1.22548e-09 -2.95341e-09 2.68243e-09)
(1.4615e-09 -3.36021e-09 3.31911e-09)
(1.74335e-09 -3.72272e-09 4.06825e-09)
(2.09616e-09 -3.99179e-09 4.94465e-09)
(2.56483e-09 -4.081e-09 5.95942e-09)
(3.23815e-09 -3.83575e-09 7.12001e-09)
(4.30986e-09 -2.96057e-09 8.44007e-09)
(6.21306e-09 -8.45519e-10 9.96424e-09)
(9.77079e-09 3.66498e-09 1.17418e-08)
(1.50385e-08 1.08518e-08 1.31572e-08)
(3.19205e-10 -8.15925e-10 5.79252e-10)
(8.92439e-10 -2.2815e-09 1.63924e-09)
(1.42633e-09 -3.64438e-09 2.68098e-09)
(1.94401e-09 -4.95322e-09 3.77313e-09)
(2.46738e-09 -6.24136e-09 4.97772e-09)
(3.01881e-09 -7.52505e-09 6.35294e-09)
(3.62314e-09 -8.79969e-09 7.9544e-09)
(4.31115e-09 -1.00333e-08 9.83537e-09)
(5.12458e-09 -1.11551e-08 1.20445e-08)
(6.12542e-09 -1.20366e-08 1.46205e-08)
(7.4136e-09 -1.24626e-08 1.75808e-08)
(9.16219e-09 -1.20887e-08 2.09032e-08)
(1.16784e-08 -1.03971e-08 2.44911e-08)
(1.54329e-08 -6.72957e-09 2.80717e-08)
(2.07794e-08 -7.91399e-10 3.09235e-08)
(2.62512e-08 5.17974e-09 3.15773e-08)
(5.22187e-10 -1.33282e-09 9.48687e-10)
(1.45954e-09 -3.72792e-09 2.68428e-09)
(2.33143e-09 -5.95838e-09 4.38873e-09)
(3.17453e-09 -8.10574e-09 6.17359e-09)
(4.02364e-09 -1.02278e-08 8.13963e-09)
(4.91373e-09 -1.23563e-08 1.03812e-08)
(5.88293e-09 -1.44926e-08 1.29887e-08)
(6.97633e-09 -1.65993e-08 1.60489e-08)
(8.25109e-09 -1.85859e-08 1.96408e-08)
(9.78345e-09 -2.02877e-08 2.38256e-08)
(1.16794e-08 -2.14393e-08 2.86254e-08)
(1.40953e-08 -2.16543e-08 3.39874e-08)
(1.7245e-08 -2.04638e-08 3.97095e-08)
(2.13687e-08 -1.75507e-08 4.53161e-08)
(2.64139e-08 -1.34966e-08 4.98247e-08)
(3.09243e-08 -1.0945e-08 5.17168e-08)
(7.11084e-10 -1.80926e-09 1.29409e-09)
(1.98685e-09 -5.06266e-09 3.66084e-09)
(3.17103e-09 -8.09839e-09 5.98234e-09)
(4.31187e-09 -1.10314e-08 8.4093e-09)
(5.45461e-09 -1.3946e-08 1.10772e-08)
(6.64438e-09 -1.68952e-08 1.41132e-08)
(7.92899e-09 -1.98964e-08 1.76393e-08)
(9.36248e-09 -2.2924e-08 2.17735e-08)
(1.1008e-08 -2.58963e-08 2.6624e-08)
(1.29393e-08 -2.86574e-08 3.2277e-08)
(1.52393e-08 -3.09551e-08 3.87678e-08)
(1.79899e-08 -3.24342e-08 4.60284e-08)
(2.12417e-08 -3.26892e-08 5.37926e-08)
(2.49217e-08 -3.14984e-08 6.14196e-08)
(2.86228e-08 -2.94162e-08 6.76246e-08)
(3.12084e-08 -2.83886e-08 7.04256e-08)
(8.81547e-10 -2.22916e-09 1.60768e-09)
(2.46182e-09 -6.24075e-09 4.5463e-09)
(3.92463e-09 -9.99277e-09 7.4243e-09)
(5.32707e-09 -1.3633e-08 1.04258e-08)
(6.72244e-09 -1.72744e-08 1.37162e-08)
(8.16308e-09 -2.09953e-08 1.74503e-08)
(9.70335e-09 -2.48384e-08 2.17775e-08)
(1.14023e-08 -2.88055e-08 2.68426e-08)
(1.33249e-08 -3.28491e-08 3.2782e-08)
(1.55389e-08 -3.68583e-08 3.97098e-08)
(1.81045e-08 -4.06416e-08 4.76877e-08)
(2.10469e-08 -4.3911e-08 5.66672e-08)
(2.42967e-08 -4.6284e-08 6.63745e-08)
(2.75723e-08 -4.73562e-08 7.60825e-08)
(3.02303e-08 -4.70015e-08 8.42179e-08)
(3.13534e-08 -4.61388e-08 8.81513e-08)
(1.0302e-09 -2.57695e-09 1.88313e-09)
(2.87494e-09 -7.21831e-09 5.32289e-09)
(4.57679e-09 -1.15707e-08 8.68474e-09)
(6.19895e-09 -1.58129e-08 1.218e-08)
(7.79991e-09 -2.00857e-08 1.59975e-08)
(9.43645e-09 -2.44955e-08 2.03138e-08)
(1.11666e-08 -2.91154e-08 2.52987e-08)
(1.3052e-08 -3.39848e-08 3.11184e-08)
(1.51593e-08 -3.91063e-08 3.79324e-08)
(1.75561e-08 -4.44402e-08 4.58824e-08)
(2.03014e-08 -4.98944e-08 5.50672e-08)
(2.34229e-08 -5.53058e-08 6.54918e-08)
(2.68595e-08 -6.03904e-08 7.695e-08)
(3.03567e-08 -6.46302e-08 8.87747e-08)
(3.32745e-08 -6.71191e-08 9.92859e-08)
(3.45284e-08 -6.70461e-08 1.05137e-07)
(1.15482e-09 -2.83806e-09 2.11609e-09)
(3.22009e-09 -7.95438e-09 5.97807e-09)
(5.11787e-09 -1.27654e-08 9.74309e-09)
(6.91459e-09 -1.74767e-08 1.36422e-08)
(8.67101e-09 -2.22545e-08 1.78808e-08)
(1.04455e-08 -2.72314e-08 2.26493e-08)
(1.22968e-08 -3.25112e-08 2.81303e-08)
(1.42872e-08 -3.81722e-08 3.4502e-08)
(1.64839e-08 -4.42706e-08 4.19375e-08)
(1.89591e-08 -5.08445e-08 5.05974e-08)
(2.17897e-08 -5.79203e-08 6.06146e-08)
(2.50486e-08 -6.55152e-08 7.2052e-08)
(2.88012e-08 -7.36213e-08 8.48275e-08)
(3.30625e-08 -8.20891e-08 9.84684e-08)
(3.75967e-08 -9.01945e-08 1.11443e-07)
(4.12065e-08 -9.56261e-08 1.19819e-07)
(1.25436e-09 -2.99979e-09 2.30408e-09)
(3.49463e-09 -8.41319e-09 6.50531e-09)
(5.54429e-09 -1.35183e-08 1.0589e-08)
(7.46992e-09 -1.8541e-08 1.47982e-08)
(9.33171e-09 -2.36672e-08 1.9347e-08)
(1.11866e-08 -2.90511e-08 2.44318e-08)
(1.30911e-08 -3.48214e-08 3.02383e-08)
(1.51042e-08 -4.10878e-08 3.69456e-08)
(1.72905e-08 -4.79479e-08 4.4726e-08)
(1.97223e-08 -5.54978e-08 5.37404e-08)
(2.24844e-08 -6.38485e-08 6.41264e-08)
(2.56854e-08 -7.31555e-08 7.59779e-08)
(2.94825e-08 -8.36658e-08 8.92917e-08)
(3.41086e-08 -9.57528e-08 1.03793e-07)
(3.97876e-08 -1.09706e-07 1.18352e-07)
(4.55311e-08 -1.23422e-07 1.29018e-07)
(1.08952e-10 -2.8048e-10 1.77573e-10)
(3.0454e-10 -7.84304e-10 5.02366e-10)
(4.86528e-10 -1.2529e-09 8.21158e-10)
(6.62522e-10 -1.70301e-09 1.1545e-09)
(8.39788e-10 -2.14628e-09 1.52102e-09)
(1.02527e-09 -2.58837e-09 1.93756e-09)
(1.2264e-09 -3.02802e-09 2.41962e-09)
(1.45189e-09 -3.45502e-09 2.98081e-09)
(1.71325e-09 -3.84701e-09 3.63147e-09)
(2.02742e-09 -4.16438e-09 4.37544e-09)
(2.42274e-09 -4.3419e-09 5.20406e-09)
(2.95345e-09 -4.27456e-09 6.08603e-09)
(3.73032e-09 -3.78887e-09 6.9487e-09)
(4.98302e-09 -2.57722e-09 7.64469e-09)
(7.0967e-09 -1.17846e-10 7.87297e-09)
(9.89027e-09 3.65382e-09 7.10413e-09)
(3.23673e-10 -8.32688e-10 5.27774e-10)
(9.0463e-10 -2.32868e-09 1.49299e-09)
(1.44468e-09 -3.7208e-09 2.43967e-09)
(1.96638e-09 -5.05947e-09 3.42915e-09)
(2.49052e-09 -6.37978e-09 4.51588e-09)
(3.03736e-09 -7.70012e-09 5.74966e-09)
(3.62802e-09 -9.01907e-09 7.17598e-09)
(4.28657e-09 -1.03103e-08 8.83469e-09)
(5.04274e-09 -1.15144e-08 1.07553e-08)
(5.93624e-09 -1.25268e-08 1.29462e-08)
(7.02534e-09 -1.31827e-08 1.53748e-08)
(8.40136e-09 -1.32468e-08 1.79291e-08)
(1.02026e-08 -1.24254e-08 2.0343e-08)
(1.25873e-08 -1.04679e-08 2.20668e-08)
(1.54685e-08 -7.53182e-09 2.21028e-08)
(1.77115e-08 -5.04652e-09 1.96959e-08)
(5.29604e-10 -1.36011e-09 8.64416e-10)
(1.47982e-09 -3.8047e-09 2.44494e-09)
(2.36212e-09 -6.08274e-09 3.99401e-09)
(3.21236e-09 -8.27849e-09 5.61131e-09)
(4.06367e-09 -1.04525e-08 7.38532e-09)
(4.94789e-09 -1.26395e-08 9.39692e-09)
(5.8976e-09 -1.48454e-08 1.17204e-08)
(6.94807e-09 -1.704e-08 1.44214e-08)
(8.1389e-09 -1.91472e-08 1.7549e-08)
(9.51512e-09 -2.10317e-08 2.112e-08)
(1.11271e-08 -2.24882e-08 2.50865e-08)
(1.30236e-08 -2.32518e-08 2.92773e-08)
(1.52332e-08 -2.30787e-08 3.33046e-08)
(1.76697e-08 -2.19974e-08 3.64123e-08)
(1.99249e-08 -2.08008e-08 3.74312e-08)
(2.10576e-08 -2.10837e-08 3.57461e-08)
(7.21449e-10 -1.84616e-09 1.17933e-09)
(2.01521e-09 -5.1665e-09 3.33462e-09)
(3.21421e-09 -8.26642e-09 5.44491e-09)
(4.36584e-09 -1.12646e-08 7.64442e-09)
(5.51332e-09 -1.42487e-08 1.00524e-08)
(6.69811e-09 -1.72752e-08 1.2778e-08)
(7.96149e-09 -2.03659e-08 1.59221e-08)
(9.34593e-09 -2.35024e-08 1.95747e-08)
(1.08944e-08 -2.66161e-08 2.38061e-08)
(1.26456e-08 -2.95766e-08 2.86467e-08)
(1.46204e-08 -3.21843e-08 3.40479e-08)
(1.67921e-08 -3.41853e-08 3.98143e-08)
(1.90215e-08 -3.53576e-08 4.54902e-08)
(2.09395e-08 -3.57451e-08 5.02071e-08)
(2.18465e-08 -3.60382e-08 5.26392e-08)
(2.11658e-08 -3.73114e-08 5.19336e-08)
(8.94794e-10 -2.27448e-09 1.46522e-09)
(2.49811e-09 -6.36814e-09 4.14179e-09)
(3.98037e-09 -1.01989e-08 6.75834e-09)
(5.39773e-09 -1.39187e-08 9.47918e-09)
(6.80158e-09 -1.76443e-08 1.245e-08)
(8.24047e-09 -2.14575e-08 1.5804e-08)
(9.76203e-09 -2.54048e-08 1.9665e-08)
(1.14136e-08 -2.94929e-08 2.4145e-08)
(1.32399e-08 -3.36825e-08 2.93353e-08)
(1.52739e-08 -3.78789e-08 3.52852e-08)
(1.75155e-08 -4.19225e-08 4.19607e-08)
(1.98857e-08 -4.55876e-08 4.91714e-08)
(2.21354e-08 -4.86074e-08 5.64448e-08)
(2.37035e-08 -5.07594e-08 6.2845e-08)
(2.36605e-08 -5.2058e-08 6.68597e-08)
(2.15907e-08 -5.29075e-08 6.72068e-08)
(1.04618e-09 -2.62913e-09 1.71655e-09)
(2.91897e-09 -7.36503e-09 4.85005e-09)
(4.64479e-09 -1.18079e-08 7.90714e-09)
(6.28642e-09 -1.61414e-08 1.10764e-08)
(7.90051e-09 -2.05101e-08 1.45245e-08)
(9.54048e-09 -2.50237e-08 1.84034e-08)
(1.12581e-08 -2.97575e-08 2.28546e-08)
(1.31046e-08 -3.4753e-08 2.80075e-08)
(1.51278e-08 -4.00148e-08 3.39714e-08)
(1.73646e-08 -4.55063e-08 4.08153e-08)
(1.98207e-08 -5.11417e-08 4.85288e-08)
(2.24285e-08 -5.67697e-08 5.69477e-08)
(2.49663e-08 -6.21336e-08 6.56279e-08)
(2.69103e-08 -6.67652e-08 7.36205e-08)
(2.7319e-08 -6.98259e-08 7.92649e-08)
(2.55134e-08 -7.03779e-08 8.07969e-08)
(1.17338e-09 -2.89535e-09 1.9292e-09)
(3.27126e-09 -8.11545e-09 5.44804e-09)
(5.19757e-09 -1.30258e-08 8.87257e-09)
(7.01833e-09 -1.7837e-08 1.24092e-08)
(8.79312e-09 -2.27193e-08 1.62391e-08)
(1.05774e-08 -2.78079e-08 2.05269e-08)
(1.2425e-08 -3.32076e-08 2.5425e-08)
(1.4389e-08 -3.89956e-08 3.10729e-08)
(1.65217e-08 -4.52242e-08 3.75905e-08)
(1.88703e-08 -5.19228e-08 4.50608e-08)
(2.14652e-08 -5.9099e-08 5.34913e-08)
(2.4306e-08 -6.67368e-08 6.27562e-08)
(2.73133e-08 -7.47585e-08 7.24497e-08)
(3.02622e-08 -8.28886e-08 8.1656e-08)
(3.26525e-08 -9.02464e-08 8.86118e-08)
(3.36383e-08 -9.4581e-08 9.10625e-08)
(1.27518e-09 -3.0602e-09 2.101e-09)
(3.55231e-09 -8.58305e-09 5.92972e-09)
(5.63455e-09 -1.37929e-08 9.64505e-09)
(7.58867e-09 -1.89209e-08 1.34642e-08)
(9.47402e-09 -2.41569e-08 1.75764e-08)
(1.13455e-08 -2.96572e-08 2.21516e-08)
(1.32558e-08 -3.55505e-08 2.73452e-08)
(1.52572e-08 -4.19431e-08 3.32979e-08)
(1.74024e-08 -4.89243e-08 4.01292e-08)
(1.97443e-08 -5.65729e-08 4.79215e-08)
(2.23343e-08 -6.49671e-08 5.66891e-08)
(2.52195e-08 -7.41988e-08 6.63166e-08)
(2.84397e-08 -8.43884e-08 7.64357e-08)
(3.20271e-08 -9.56743e-08 8.61751e-08)
(3.59323e-08 -1.07976e-07 9.37025e-08)
(3.94436e-08 -1.19251e-07 9.62231e-08)
(1.0998e-10 -2.85274e-10 1.54065e-10)
(3.07288e-10 -7.9781e-10 4.35725e-10)
(4.90378e-10 -1.27479e-09 7.11556e-10)
(6.66646e-10 -1.73349e-09 9.99291e-10)
(8.42716e-10 -2.18608e-09 1.31419e-09)
(1.02464e-09 -2.63895e-09 1.66998e-09)
(1.21826e-09 -3.09197e-09 2.07847e-09)
(1.42964e-09 -3.53707e-09 2.54882e-09)
(1.66557e-09 -3.95603e-09 3.08559e-09)
(1.93468e-09 -4.31755e-09 3.68483e-09)
(2.25006e-09 -4.57324e-09 4.32713e-09)
(2.63611e-09 -4.65241e-09 4.9663e-09)
(3.14605e-09 -4.44937e-09 5.51494e-09)
(3.89434e-09 -3.78342e-09 5.82883e-09)
(5.07517e-09 -2.31406e-09 5.71928e-09)
(6.56398e-09 1.75047e-10 5.08247e-09)
(3.26783e-10 -8.46889e-10 4.57937e-10)
(9.12874e-10 -2.36865e-09 1.29486e-09)
(1.45645e-09 -3.78559e-09 2.11435e-09)
(1.97906e-09 -5.14956e-09 2.96821e-09)
(2.49999e-09 -6.49722e-09 3.902e-09)
(3.03684e-09 -7.84887e-09 4.95597e-09)
(3.60633e-09 -9.20616e-09 6.1649e-09)
(4.22502e-09 -1.05483e-08 7.55571e-09)
(4.9098e-09 -1.18264e-08 9.14145e-09)
(5.67821e-09 -1.29565e-08 1.09092e-08)
(6.5496e-09 -1.3814e-08 1.27988e-08)
(7.54804e-09 -1.42359e-08 1.46675e-08)
(8.70394e-09 -1.40448e-08 1.62395e-08)
(1.00244e-08 -1.31161e-08 1.70441e-08)
(1.13729e-08 -1.15279e-08 1.648e-08)
(1.21921e-08 -9.91929e-09 1.45868e-08)
(5.34833e-10 -1.3832e-09 7.50103e-10)
(1.49379e-09 -3.86973e-09 2.12064e-09)
(2.38222e-09 -6.18798e-09 3.46164e-09)
(3.2346e-09 -8.4246e-09 4.85752e-09)
(4.08167e-09 -1.06423e-08 6.38214e-09)
(4.95139e-09 -1.28786e-08 8.10105e-09)
(5.86978e-09 -1.51433e-08 1.00713e-08)
(6.8611e-09 -1.74132e-08 1.23379e-08)
(7.94653e-09 -1.96252e-08 1.49241e-08)
(9.14031e-09 -2.16684e-08 1.78136e-08)
(1.04415e-08 -2.33831e-08 2.09189e-08)
(1.1821e-08 -2.45813e-08 2.40343e-08)
(1.31887e-08 -2.51251e-08 2.67667e-08)
(1.43497e-08 -2.51065e-08 2.85086e-08)
(1.4967e-08 -2.50988e-08 2.86071e-08)
(1.48124e-08 -2.58955e-08 2.73213e-08)
(7.28866e-10 -1.87737e-09 1.02336e-09)
(2.03513e-09 -5.25424e-09 2.89274e-09)
(3.24328e-09 -8.40831e-09 4.71974e-09)
(4.39894e-09 -1.1461e-08 6.61845e-09)
(5.54265e-09 -1.45028e-08 8.68844e-09)
(6.71113e-09 -1.7593e-08 1.10184e-08)
(7.9379e-09 -2.07571e-08 1.36861e-08)
(9.25258e-09 -2.39825e-08 1.67542e-08)
(1.06771e-08 -2.72116e-08 2.02588e-08)
(1.22161e-08 -3.03341e-08 2.41875e-08)
(1.38374e-08 -3.31862e-08 2.84427e-08)
(1.54358e-08 -3.55726e-08 3.27866e-08)
(1.67726e-08 -3.73445e-08 3.67752e-08)
(1.74108e-08 -3.8571e-08 3.97362e-08)
(1.67994e-08 -3.97417e-08 4.09756e-08)
(1.50845e-08 -4.13474e-08 4.06237e-08)
(9.0444e-10 -2.31268e-09 1.27171e-09)
(2.52423e-09 -6.47557e-09 3.59341e-09)
(4.01891e-09 -1.03723e-08 5.85916e-09)
(5.44309e-09 -1.41582e-08 8.20847e-09)
(6.84518e-09 -1.79527e-08 1.07631e-08)
(8.26887e-09 -2.18401e-08 1.36316e-08)
(9.75372e-09 -2.58692e-08 1.69098e-08)
(1.13339e-08 -3.00499e-08 2.06767e-08)
(1.30331e-08 -3.43481e-08 2.49821e-08)
(1.48512e-08 -3.8678e-08 2.98233e-08)
(1.67381e-08 -4.28964e-08 3.51054e-08)
(1.85447e-08 -4.68034e-08 4.05838e-08)
(1.9939e-08 -5.01605e-08 4.57936e-08)
(2.0316e-08 -5.27411e-08 5.00201e-08)
(1.89136e-08 -5.44299e-08 5.24816e-08)
(1.59865e-08 -5.53136e-08 5.30546e-08)
(1.05808e-09 -2.67304e-09 1.49005e-09)
(2.95125e-09 -7.48837e-09 4.2086e-09)
(4.69319e-09 -1.20068e-08 6.85641e-09)
(6.34505e-09 -1.64154e-08 9.59369e-09)
(7.96082e-09 -2.08614e-08 1.25598e-08)
(9.58929e-09 -2.5456e-08 1.5879e-08)
(1.12747e-08 -3.02753e-08 1.96612e-08)
(1.30558e-08 -3.53599e-08 2.39984e-08)
(1.49616e-08 -4.0712e-08 2.89524e-08)
(1.6999e-08 -4.62904e-08 3.45309e-08)
(1.913e-08 -5.20008e-08 4.06486e-08)
(2.12285e-08 -5.76771e-08 4.70666e-08)
(2.29988e-08 -6.303e-08 5.33071e-08)
(2.38839e-08 -6.7534e-08 5.86152e-08)
(2.30909e-08 -7.02608e-08 6.20917e-08)
(2.05359e-08 -7.02698e-08 6.33771e-08)
(1.18741e-09 -2.94343e-09 1.67499e-09)
(3.30963e-09 -8.25045e-09 4.7284e-09)
(5.25577e-09 -1.32432e-08 7.69516e-09)
(7.09067e-09 -1.8136e-08 1.07507e-08)
(8.87156e-09 -2.31012e-08 1.40468e-08)
(1.06499e-08 -2.8275e-08 1.77181e-08)
(1.24729e-08 -3.37606e-08 2.18835e-08)
(1.43832e-08 -3.96307e-08 2.66426e-08)
(1.64167e-08 -4.59283e-08 3.20641e-08)
(1.85952e-08 -5.26648e-08 3.81623e-08)
(2.09157e-08 -5.98178e-08 4.48613e-08)
(2.3323e-08 -6.7314e-08 5.1919e-08)
(2.56802e-08 -7.4982e-08 5.8852e-08)
(2.77276e-08 -8.24032e-08 6.48324e-08)
(2.90782e-08 -8.85524e-08 6.87715e-08)
(2.94135e-08 -9.14494e-08 7.01011e-08)
(1.29124e-09 -3.11077e-09 1.82448e-09)
(3.59634e-09 -8.72504e-09 5.1475e-09)
(5.7021e-09 -1.40215e-08 8.367e-09)
(7.67437e-09 -1.92348e-08 1.16678e-08)
(9.5707e-09 -2.4557e-08 1.52086e-08)
(1.14428e-08 -3.01442e-08 1.91287e-08)
(1.33379e-08 -3.61222e-08 2.35499e-08)
(1.52999e-08 -4.259e-08 2.85725e-08)
(1.73683e-08 -4.96226e-08 3.42645e-08)
(1.95765e-08 -5.72728e-08 4.06403e-08)
(2.19472e-08 -6.55734e-08 4.76198e-08)
(2.44865e-08 -7.45379e-08 5.49637e-08)
(2.71812e-08 -8.41555e-08 6.21688e-08)
(3.0017e-08 -9.43616e-08 6.83296e-08)
(3.3003e-08 -1.04869e-07 7.20912e-08)
(3.58485e-08 -1.13986e-07 7.24451e-08)
(1.10624e-10 -2.8914e-10 1.25332e-10)
(3.08904e-10 -8.0868e-10 3.54276e-10)
(4.92443e-10 -1.29239e-09 5.78294e-10)
(6.68277e-10 -1.75804e-09 8.1113e-10)
(8.42397e-10 -2.21809e-09 1.06506e-09)
(1.01997e-09 -2.67959e-09 1.35034e-09)
(1.20537e-09 -3.14329e-09 1.67541e-09)
(1.40224e-09 -3.6027e-09 2.04585e-09)
(1.61363e-09 -4.04262e-09 2.46257e-09)
(1.84201e-09 -4.43689e-09 2.91828e-09)
(2.09082e-09 -4.74654e-09 3.39227e-09)
(2.36974e-09 -4.91621e-09 3.84399e-09)
(2.70828e-09 -4.86342e-09 4.20823e-09)
(3.1874e-09 -4.43762e-09 4.4069e-09)
(3.97055e-09 -3.32031e-09 4.40396e-09)
(5.02833e-09 -1.21514e-09 4.26472e-09)
(3.2873e-10 -8.58328e-10 3.72511e-10)
(9.1789e-10 -2.40085e-09 1.05307e-09)
(1.46295e-09 -3.83777e-09 1.71823e-09)
(1.98441e-09 -5.22204e-09 2.40957e-09)
(2.50001e-09 -6.59166e-09 3.16257e-09)
(3.02458e-09 -7.96826e-09 4.00777e-09)
(3.57071e-09 -9.35589e-09 4.97003e-09)
(4.14841e-09 -1.07379e-08 6.06588e-09)
(4.7641e-09 -1.20727e-08 7.2977e-09)
(5.41931e-09 -1.32891e-08 8.6436e-09)
(6.11e-09 -1.42836e-08 1.00416e-08)
(6.82872e-09 -1.49235e-08 1.13685e-08)
(7.57076e-09 -1.50601e-08 1.24174e-08)
(8.34331e-09 -1.45518e-08 1.29108e-08)
(9.13099e-09 -1.33181e-08 1.26047e-08)
(9.72802e-09 -1.16832e-08 1.17132e-08)
(5.38196e-10 -1.40182e-09 6.10227e-10)
(1.50255e-09 -3.9221e-09 1.72477e-09)
(2.39381e-09 -6.27267e-09 2.81348e-09)
(3.245e-09 -8.542e-09 3.94373e-09)
(4.08421e-09 -1.07943e-08 5.17334e-09)
(4.93557e-09 -1.30693e-08 6.55213e-09)
(5.81895e-09 -1.53797e-08 8.12102e-09)
(6.74894e-09 -1.7707e-08 9.90797e-09)
(7.73202e-09 -1.99966e-08 1.19192e-08)
(8.76074e-09 -2.2152e-08 1.41238e-08)
(9.80546e-09 -2.40354e-08 1.64315e-08)
(1.08023e-08 -2.54858e-08 1.86614e-08)
(1.16452e-08 -2.63764e-08 2.05288e-08)
(1.21897e-08 -2.67345e-08 2.16735e-08)
(1.23289e-08 -2.69022e-08 2.18693e-08)
(1.22084e-08 -2.74068e-08 2.14966e-08)
(7.3379e-10 -1.90248e-09 8.32724e-10)
(2.04803e-09 -5.32487e-09 2.35292e-09)
(3.26089e-09 -8.5223e-09 3.8365e-09)
(4.41598e-09 -1.16183e-08 5.37417e-09)
(5.55099e-09 -1.47054e-08 7.04402e-09)
(6.69786e-09 -1.78446e-08 8.91358e-09)
(7.88281e-09 -2.10639e-08 1.10389e-08)
(9.12428e-09 -2.43544e-08 1.34597e-08)
(1.04276e-08 -2.76642e-08 1.61885e-08)
(1.17744e-08 -3.08926e-08 1.91925e-08)
(1.31043e-08 -3.38893e-08 2.23662e-08)
(1.42864e-08 -3.64716e-08 2.5502e-08)
(1.5086e-08 -3.84822e-08 2.82748e-08)
(1.51651e-08 -3.99136e-08 3.02991e-08)
(1.42562e-08 -4.10635e-08 3.13484e-08)
(1.28337e-08 -4.22967e-08 3.17007e-08)
(9.11023e-10 -2.34341e-09 1.03486e-09)
(2.54163e-09 -6.56183e-09 2.9233e-09)
(4.0433e-09 -1.05112e-08 4.76345e-09)
(5.46862e-09 -1.43492e-08 6.66646e-09)
(6.8627e-09 -1.81968e-08 8.72784e-09)
(8.26445e-09 -2.214e-08 1.10304e-08)
(9.70581e-09 -2.62283e-08 1.36437e-08)
(1.12095e-08 -3.04723e-08 1.66184e-08)
(1.27828e-08 -3.48384e-08 1.99746e-08)
(1.44042e-08 -3.92411e-08 2.36823e-08)
(1.59996e-08 -4.35357e-08 2.76317e-08)
(1.74036e-08 -4.75143e-08 3.16023e-08)
(1.83056e-08 -5.09102e-08 3.52475e-08)
(1.82237e-08 -5.34267e-08 3.81587e-08)
(1.66923e-08 -5.4838e-08 4.00727e-08)
(1.42372e-08 -5.52553e-08 4.11087e-08)
(1.06639e-09 -2.70827e-09 1.21277e-09)
(2.97344e-09 -7.5872e-09 3.42436e-09)
(4.72512e-09 -1.21656e-08 5.57523e-09)
(6.38049e-09 -1.66328e-08 7.79306e-09)
(7.9907e-09 -2.11377e-08 1.01873e-08)
(9.5997e-09 -2.57917e-08 1.2853e-08)
(1.12445e-08 -3.06699e-08 1.587e-08)
(1.29533e-08 -3.58097e-08 1.9298e-08)
(1.47401e-08 -4.12072e-08 2.31638e-08)
(1.65938e-08 -4.68101e-08 2.74415e-08)
(1.84573e-08 -5.25052e-08 3.20208e-08)
(2.01938e-08 -5.80927e-08 3.66677e-08)
(2.15397e-08 -6.32323e-08 4.10156e-08)
(2.20619e-08 -6.73298e-08 4.46051e-08)
(2.1248e-08 -6.94293e-08 4.71048e-08)
(1.92421e-08 -6.88078e-08 4.8547e-08)
(1.19743e-09 -2.98191e-09 1.36348e-09)
(3.33667e-09 -8.35832e-09 3.848e-09)
(5.29549e-09 -1.34163e-08 6.2585e-09)
(7.13711e-09 -1.83723e-08 8.73487e-09)
(8.91589e-09 -2.33997e-08 1.13966e-08)
(1.06793e-08 -2.86341e-08 1.43468e-08)
(1.24679e-08 -3.41758e-08 1.76721e-08)
(1.43153e-08 -4.00907e-08 2.14372e-08)
(1.62449e-08 -4.64091e-08 2.56729e-08)
(1.82637e-08 -5.31215e-08 3.0355e-08)
(2.03521e-08 -6.01692e-08 3.53669e-08)
(2.24529e-08 -6.74248e-08 4.04671e-08)
(2.44552e-08 -7.46364e-08 4.52407e-08)
(2.621e-08 -8.13019e-08 4.91378e-08)
(2.75755e-08 -8.64178e-08 5.16816e-08)
(2.84212e-08 -8.84027e-08 5.28924e-08)
(1.30293e-09 -3.15115e-09 1.48546e-09)
(3.62811e-09 -8.83822e-09 4.18985e-09)
(5.74968e-09 -1.42028e-08 6.80627e-09)
(7.73198e-09 -1.94818e-08 9.48235e-09)
(9.63053e-09 -2.48678e-08 1.23431e-08)
(1.14934e-08 -3.05156e-08 1.54955e-08)
(1.33626e-08 -3.65463e-08 1.90284e-08)
(1.52742e-08 -4.30496e-08 2.30069e-08)
(1.72578e-08 -5.00838e-08 2.74611e-08)
(1.93348e-08 -5.76736e-08 3.23632e-08)
(2.15162e-08 -6.58071e-08 3.75938e-08)
(2.38036e-08 -7.44299e-08 4.28918e-08)
(2.62045e-08 -8.3438e-08 4.78029e-08)
(2.87886e-08 -9.26752e-08 5.16626e-08)
(3.17585e-08 -1.01879e-07 5.37338e-08)
(3.4996e-08 -1.09836e-07 5.38554e-08)
(1.10962e-10 -2.92022e-10 9.24586e-11)
(3.09733e-10 -8.16802e-10 2.61373e-10)
(4.933e-10 -1.30558e-09 4.26226e-10)
(6.68262e-10 -1.77622e-09 5.97418e-10)
(8.40545e-10 -2.24206e-09 7.83419e-10)
(1.01406e-09 -2.70993e-09 9.91415e-10)
(1.19211e-09 -3.18134e-09 1.22692e-09)
(1.3767e-09 -3.65083e-09 1.49306e-09)
(1.5683e-09 -4.10471e-09 1.78903e-09)
(1.766e-09 -4.51939e-09 2.10785e-09)
(1.9691e-09 -4.85925e-09 2.43323e-09)
(2.18284e-09 -5.07274e-09 2.73698e-09)
(2.43455e-09 -5.07936e-09 2.98155e-09)
(2.80748e-09 -4.72407e-09 3.13774e-09)
(3.47669e-09 -3.67806e-09 3.2305e-09)
(4.4471e-09 -1.62726e-09 3.32268e-09)
(3.29829e-10 -8.66902e-10 2.74888e-10)
(9.20563e-10 -2.42499e-09 7.76738e-10)
(1.46574e-09 -3.8767e-09 1.26673e-09)
(1.98553e-09 -5.27654e-09 1.77483e-09)
(2.49521e-09 -6.66219e-09 2.32641e-09)
(3.00807e-09 -8.057e-09 2.94268e-09)
(3.53328e-09 -9.46633e-09 3.63994e-09)
(4.07603e-09 -1.08759e-08 4.42735e-09)
(4.63597e-09 -1.22481e-08 5.3026e-09)
(5.20587e-09 -1.35171e-08 6.24481e-09)
(5.77211e-09 -1.45864e-08 7.20526e-09)
(6.32127e-09 -1.53274e-08 8.09751e-09)
(6.85865e-09 -1.55812e-08 8.79786e-09)
(7.4358e-09 -1.51588e-08 9.16509e-09)
(8.14568e-09 -1.38783e-08 9.11337e-09)
(8.87324e-09 -1.20151e-08 8.76087e-09)
(5.40176e-10 -1.41578e-09 4.50317e-10)
(1.50743e-09 -3.96136e-09 1.27229e-09)
(2.39968e-09 -6.3363e-09 2.07435e-09)
(3.24783e-09 -8.62964e-09 2.9051e-09)
(4.07871e-09 -1.09077e-08 3.80595e-09)
(4.91246e-09 -1.32107e-08 4.81146e-09)
(5.76428e-09 -1.55532e-08 5.94859e-09)
(6.64184e-09 -1.79194e-08 7.23319e-09)
(7.5421e-09 -2.02585e-08 8.66321e-09)
(8.4463e-09 -2.2479e-08 1.02083e-08)
(9.3146e-09 -2.4448e-08 1.17961e-08)
(1.00842e-08 -2.60023e-08 1.3302e-08)
(1.06776e-08 -2.69869e-08 1.45491e-08)
(1.10447e-08 -2.7351e-08 1.53584e-08)
(1.12437e-08 -2.73042e-08 1.56651e-08)
(1.14693e-08 -2.7383e-08 1.56814e-08)
(7.3681e-10 -1.92136e-09 6.14456e-10)
(2.05567e-09 -5.37786e-09 1.73594e-09)
(3.27023e-09 -8.60755e-09 2.82892e-09)
(4.42287e-09 -1.17359e-08 3.95935e-09)
(5.54765e-09 -1.48557e-08 5.18292e-09)
(6.67328e-09 -1.80297e-08 6.54667e-09)
(7.82011e-09 -2.12869e-08 8.08771e-09)
(8.99848e-09 -2.46196e-08 9.82889e-09)
(1.02033e-08 -2.79772e-08 1.17706e-08)
(1.14051e-08 -3.12602e-08 1.38782e-08)
(1.25362e-08 -3.43164e-08 1.60662e-08)
(1.34755e-08 -3.69507e-08 1.81877e-08)
(1.40406e-08 -3.89694e-08 2.00423e-08)
(1.4019e-08 -4.02836e-08 2.14381e-08)
(1.33358e-08 -4.10898e-08 2.23142e-08)
(1.24482e-08 -4.18356e-08 2.28002e-08)
(9.15173e-10 -2.36644e-09 7.63786e-10)
(2.55241e-09 -6.6265e-09 2.157e-09)
(4.0575e-09 -1.06151e-08 3.51294e-09)
(5.48059e-09 -1.44911e-08 4.91215e-09)
(6.8649e-09 -1.83772e-08 6.42297e-09)
(8.24452e-09 -2.23592e-08 8.10317e-09)
(9.64556e-09 -2.64865e-08 9.99884e-09)
(1.10827e-08 -3.07686e-08 1.21396e-08)
(1.25531e-08 -3.5169e-08 1.45296e-08)
(1.40257e-08 -3.95965e-08 1.7133e-08)
(1.54236e-08 -4.38952e-08 1.9858e-08)
(1.65999e-08 -4.78351e-08 2.25436e-08)
(1.73084e-08 -5.11081e-08 2.49729e-08)
(1.72123e-08 -5.33574e-08 2.6939e-08)
(1.60405e-08 -5.43144e-08 2.8363e-08)
(1.425e-08 -5.42367e-08 2.92759e-08)
(1.07184e-09 -2.73468e-09 8.95191e-10)
(2.98766e-09 -7.66113e-09 2.5271e-09)
(4.74445e-09 -1.22839e-08 4.11225e-09)
(6.39983e-09 -1.67941e-08 5.74329e-09)
(8.00137e-09 -2.13406e-08 7.49858e-09)
(9.58964e-09 -2.60349e-08 9.44448e-09)
(1.11958e-08 -3.09499e-08 1.16342e-08)
(1.28406e-08 -3.61188e-08 1.41028e-08)
(1.45293e-08 -4.15298e-08 1.68576e-08)
(1.62429e-08 -4.71172e-08 1.98628e-08)
(1.79252e-08 -5.27459e-08 2.30203e-08)
(1.94627e-08 -5.81844e-08 2.61561e-08)
(2.06606e-08 -6.30491e-08 2.9026e-08)
(2.12296e-08 -6.671e-08 3.13868e-08)
(2.08428e-08 -6.82413e-08 3.31233e-08)
(1.9549e-08 -6.71464e-08 3.42462e-08)
(1.20413e-09 -3.01069e-09 1.00663e-09)
(3.35454e-09 -8.43887e-09 2.84016e-09)
(5.3209e-09 -1.3545e-08 4.61698e-09)
(7.16429e-09 -1.85466e-08 6.43858e-09)
(8.93737e-09 -2.36178e-08 8.39064e-09)
(1.06834e-08 -2.88923e-08 1.05453e-08)
(1.24382e-08 -3.44669e-08 1.29603e-08)
(1.42286e-08 -4.04004e-08 1.56739e-08)
(1.60707e-08 -4.67106e-08 1.86947e-08)
(1.79659e-08 -5.33675e-08 2.19847e-08)
(1.98982e-08 -6.02826e-08 2.54408e-08)
(2.18308e-08 -6.72855e-08 2.88667e-08)
(2.37195e-08 -7.40793e-08 3.19786e-08)
(2.55443e-08 -8.01433e-08 3.44563e-08)
(2.73252e-08 -8.45583e-08 3.60934e-08)
(2.88304e-08 -8.60569e-08 3.69796e-08)
(1.31096e-09 -3.18132e-09 1.09682e-09)