/*--------------------------------*- C++ -*----------------------------------*\
| =========                 |                                                 |
| \\      /  F ield         | OpenFOAM: The Open Source CFD Toolbox           |
|  \\    /   O peration     | Version:  v1912                                 |
|   \\  /    A nd           | Website:  www.openfoam.com                      |
|    \\/     M anipulation  |                                                 |
\*---------------------------------------------------------------------------*/
FoamFile
{
    version     2.0;
    format      ascii;
    class       volScalarField;
    location    "0.95/fluid";
    object      p;
}
// * * * * * * * * * * * * * * * * * * * * * * * * * * * * * * * * * * * * * //

dimensions      [0 2 -2 0 0 0 0];


internalField   nonuniform List<scalar> 
14592
(
0.0490114
0.0433832
0.0414696
0.0398585
0.038945
0.0382631
0.0377645
0.03736
0.0369943
0.036711
0.0363778
0.0362401
0.0358123
0.0360567
0.0353
0.0370342
0.0448591
0.0431073
0.041424
0.0400488
0.0391234
0.0384132
0.0378785
0.0374513
0.0370745
0.0367929
0.036469
0.0363612
0.0359662
0.0363379
0.0355196
0.0381777
0.0428621
0.0422506
0.0410141
0.040004
0.0391577
0.0384754
0.0379292
0.0374919
0.037111
0.0368382
0.0365388
0.0364883
0.0361577
0.0367275
0.035987
0.0394963
0.0416835
0.0415439
0.0406856
0.0399295
0.0391799
0.0385313
0.0379728
0.0375135
0.0371125
0.0368326
0.0365426
0.0365376
0.0362727
0.0370241
0.0364034
0.0404555
0.0409829
0.0409684
0.0403456
0.0397565
0.0390958
0.0384866
0.0379263
0.0374471
0.0370166
0.0367066
0.0363869
0.0363686
0.0360878
0.0369127
0.0363221
0.0407623
0.0405319
0.0405534
0.040079
0.0395898
0.0389914
0.0384081
0.0378431
0.037342
0.0368804
0.0365389
0.0361934
0.0361768
0.0359229
0.036908
0.0364988
0.0415266
0.0402364
0.0402625
0.0398649
0.0394271
0.0388612
0.0382856
0.0377039
0.0371656
0.036647
0.0362249
0.0357679
0.0355948
0.0351044
0.0358032
0.034846
0.0399858
0.0400587
0.0400851
0.0397194
0.0393004
0.0387426
0.0381595
0.0375551
0.0369798
0.0364131
0.0359305
0.0354107
0.035179
0.0346699
0.0355438
0.034859
0.0424558
0.0489345
0.0433084
0.0414325
0.0398632
0.0390036
0.0383813
0.0379497
0.0376197
0.0373399
0.0371516
0.0369324
0.036891
0.0366024
0.0367628
0.0361366
0.0366962
0.0447823
0.0430307
0.0413861
0.0400533
0.0391822
0.0385321
0.038065
0.0377129
0.0374225
0.0372363
0.0370255
0.0370089
0.0367378
0.0369739
0.036261
0.0372021
0.0427811
0.042168
0.0409688
0.0400007
0.039209
0.0385875
0.0381099
0.0377486
0.0374546
0.0372779
0.0370903
0.0371284
0.0369116
0.0373033
0.036614
0.0380317
0.0415998
0.0414581
0.0406355
0.0399204
0.0392244
0.0386358
0.0381453
0.0377617
0.037447
0.0372634
0.0370838
0.0371676
0.0370084
0.037561
0.0369518
0.0386982
0.040896
0.0408791
0.0402908
0.0397412
0.0391326
0.0385815
0.0380871
0.0376811
0.0373334
0.0371161
0.0368999
0.0369649
0.0367714
0.0373805
0.0367422
0.0387603
0.0404421
0.0404612
0.0400203
0.0395693
0.0390211
0.0384937
0.0379918
0.037561
0.0371781
0.0369262
0.0366787
0.0367463
0.0365699
0.0373504
0.0368543
0.0394038
0.040143
0.0401667
0.0398018
0.0394007
0.0388832
0.0383605
0.0378379
0.0373644
0.0369165
0.0365738
0.036197
0.0360905
0.0356302
0.0361057
0.0349131
0.0375637
0.0399614
0.0399855
0.0396518
0.0392684
0.0387572
0.0382242
0.0376752
0.0371602
0.0366579
0.0362485
0.0358002
0.0356367
0.0351491
0.0358593
0.0348955
0.0400623
0.0488913
0.0432668
0.0414197
0.0398844
0.0390707
0.0385019
0.0381345
0.0378805
0.0376969
0.0376275
0.037578
0.03774
0.0378052
0.0382973
0.0384541
0.0391315
0.0447392
0.0429879
0.041373
0.0400746
0.03925
0.0386542
0.0382518
0.0379766
0.0377838
0.0377184
0.0376798
0.0378688
0.0379558
0.0385176
0.0386408
0.0395983
0.0427337
0.0421196
0.0409487
0.0400145
0.0392695
0.0387031
0.038291
0.0380077
0.0378118
0.0377574
0.0377427
0.0379903
0.0381386
0.038865
0.0390574
0.0404355
0.0415494
0.0414062
0.0406106
0.0399282
0.0392779
0.0387439
0.0383183
0.0380124
0.0377955
0.0377349
0.0377289
0.0380274
0.0382385
0.0391396
0.0394406
0.0411256
0.0408419
0.0408233
0.0402606
0.0397424
0.0391779
0.0386797
0.0382483
0.0379178
0.0376646
0.0375672
0.0375188
0.0377964
0.0379631
0.0389244
0.0391791
0.0411249
0.0403846
0.0404021
0.0399859
0.039565
0.039059
0.0385823
0.0381407
0.0377822
0.0374895
0.0373536
0.0372668
0.0375449
0.0377149
0.038856
0.0392182
0.0416984
0.0400819
0.0401039
0.0397628
0.0393905
0.0389132
0.0384382
0.0379719
0.0375652
0.0371989
0.0369608
0.0367236
0.0368034
0.036629
0.037419
0.036902
0.0394489
0.0398963
0.0399187
0.0396082
0.0392525
0.0387797
0.0382914
0.0377949
0.0373414
0.0369127
0.0365979
0.036272
0.0362784
0.0360319
0.0370444
0.0366158
0.0416939
0.0488696
0.0432463
0.0414207
0.0399114
0.0391334
0.0386059
0.0382867
0.0380865
0.0379655
0.0379604
0.037989
0.0382035
0.0383553
0.038806
0.0390289
0.0394818
0.0447175
0.0429665
0.0413738
0.0401019
0.0393136
0.0387593
0.0384056
0.0381847
0.038055
0.0380541
0.0380934
0.038332
0.0384993
0.0389965
0.0391827
0.0398187
0.0427082
0.0420933
0.0409434
0.0400352
0.0393266
0.0388025
0.0384396
0.0382111
0.0380782
0.0380879
0.0381485
0.0384408
0.0386592
0.0392956
0.0395196
0.0404845
0.0415209
0.0413766
0.0406008
0.0399433
0.0393287
0.0388363
0.0384594
0.038208
0.0380532
0.0380562
0.038123
0.0384636
0.0387355
0.0395307
0.0398384
0.041063
0.0408098
0.0407899
0.040246
0.0397515
0.0392211
0.0387633
0.0383789
0.038101
0.0379073
0.0378708
0.0378894
0.0382042
0.0384174
0.0392604
0.0394843
0.040943
0.0403492
0.0403654
0.0399671
0.0395688
0.0390954
0.0386573
0.0382606
0.0379524
0.0377161
0.0376383
0.0376134
0.0379272
0.0381322
0.0391543
0.0394529
0.0414337
0.0400428
0.0400636
0.0397396
0.0393889
0.0389425
0.0385038
0.0380795
0.0377195
0.037404
0.037218
0.037032
0.0371394
0.0369749
0.0376392
0.0369926
0.0390303
0.0398537
0.0398748
0.039581
0.0392459
0.0388022
0.0383484
0.037891
0.0374806
0.0370981
0.036831
0.036549
0.0365818
0.0363329
0.0372337
0.0366361
0.0411924
0.0488618
0.0432396
0.0414305
0.0399418
0.0391927
0.0386995
0.0384221
0.0382702
0.0382087
0.0382699
0.0383863
0.0386835
0.0389667
0.0394861
0.0398824
0.0402793
0.0447098
0.0429592
0.0413834
0.0401327
0.0393738
0.0388543
0.0385427
0.0383709
0.0383016
0.0383683
0.0384971
0.0388194
0.0391202
0.0396781
0.0400443
0.0405872
0.0426973
0.0420819
0.0409481
0.0400606
0.0393815
0.0388927
0.0385725
0.0383936
0.0383212
0.0383984
0.038547
0.0389208
0.039267
0.039953
0.0403467
0.0411758
0.0415072
0.0413622
0.0406015
0.039964
0.0393782
0.0389206
0.038586
0.0383839
0.038289
0.0383593
0.0385125
0.0389336
0.0393285
0.0401672
0.0406337
0.0417041
0.0407929
0.0407722
0.0402424
0.0397667
0.039264
0.0388398
0.0384963
0.0382663
0.0381301
0.0381586
0.0382591
0.038651
0.0389769
0.0398565
0.0402158
0.0415087
0.0403293
0.0403447
0.0399598
0.0395793
0.0391323
0.0387263
0.0383686
0.0381061
0.0379243
0.0379087
0.0379605
0.0383484
0.038655
0.0397102
0.0401168
0.041925
0.0400198
0.0400397
0.0397285
0.0393946
0.038973
0.0385646
0.0381766
0.0378589
0.037593
0.0374635
0.037344
0.0375163
0.03743
0.038114
0.037517
0.0393635
0.0398274
0.0398477
0.0395662
0.039247
0.0388268
0.0384013
0.0379776
0.0376062
0.0372684
0.0370522
0.0368275
0.0369176
0.0367267
0.0376394
0.037039
0.0413821
0.0488609
0.0432394
0.0414418
0.0399678
0.039239
0.0387696
0.0385203
0.0383993
0.0383732
0.0384682
0.0386243
0.0389437
0.0392615
0.0397611
0.0401736
0.0405192
0.044709
0.0429586
0.0413948
0.040159
0.0394207
0.0389253
0.0386422
0.0385015
0.0384679
0.0385688
0.0387374
0.0390812
0.0394155
0.039947
0.0403256
0.0407937
0.0426939
0.0420781
0.0409556
0.0400827
0.0394244
0.03896
0.0386686
0.0385211
0.0384841
0.038595
0.0387814
0.0391731
0.0395455
0.0401922
0.0405838
0.0413104
0.0415017
0.0413561
0.040606
0.0399824
0.0394169
0.0389834
0.0386772
0.0385062
0.0384462
0.0385496
0.0387385
0.0391752
0.03959
0.0403811
0.0408316
0.0417877
0.0407848
0.0407634
0.0402434
0.0397809
0.0392976
0.0388967
0.0385806
0.0383806
0.0382777
0.0383376
0.0384704
0.038875
0.0392125
0.0400375
0.0403619
0.0415332
0.0403188
0.0403334
0.0399579
0.0395898
0.0391612
0.0387773
0.0384457
0.0382119
0.0380615
0.0380757
0.0381565
0.0385553
0.0388663
0.0398636
0.0402171
0.0419002
0.0400066
0.0400258
0.0397236
0.0394013
0.0389971
0.0386095
0.0382458
0.0379548
0.0377174
0.0376148
0.0375194
0.0376995
0.0376072
0.0382295
0.0375526
0.0392638
0.0398117
0.0398314
0.0395584
0.0392503
0.0388464
0.0384405
0.0380394
0.0376928
0.0373807
0.037189
0.0369844
0.0370807
0.0368766
0.0377284
0.037028
0.0412231
0.048863
0.043242
0.041452
0.0399879
0.0392729
0.0388201
0.0385908
0.0384925
0.0384933
0.0386162
0.0388065
0.0391528
0.0395093
0.0400178
0.0404624
0.0407858
0.044711
0.0429608
0.041405
0.0401793
0.0394552
0.0389766
0.0387137
0.038596
0.0385899
0.0387193
0.0389231
0.0392945
0.0396684
0.0402073
0.0406181
0.0410512
0.0426942
0.0420782
0.0409632
0.0401003
0.0394562
0.0390089
0.038738
0.0386137
0.0386042
0.0387434
0.0389638
0.0393812
0.0397892
0.0404364
0.0408526
0.0415297
0.0415005
0.0413547
0.0406115
0.0399974
0.0394457
0.0390291
0.0387432
0.0385953
0.0385623
0.0386937
0.0389156
0.0393768
0.0398237
0.0406109
0.0410784
0.041979
0.0407818
0.04076
0.0402466
0.039793
0.0393229
0.0389382
0.0386417
0.0384641
0.0383871
0.0384739
0.0386374
0.0390644
0.0394288
0.0402457
0.0405756
0.0416876
0.0403141
0.0403284
0.039959
0.0395993
0.0391832
0.0388148
0.0385018
0.0382894
0.0381634
0.0382031
0.038312
0.0387316
0.0390639
0.0400502
0.0403968
0.0420185
0.0400001
0.040019
0.0397225
0.0394082
0.0390157
0.0386426
0.0382963
0.0380251
0.0378101
0.0377307
0.0376597
0.0378574
0.0377788
0.0383857
0.037683
0.0393243
0.0398034
0.0398227
0.0395553
0.0392547
0.0388619
0.0384695
0.0380845
0.0377561
0.0374642
0.0372934
0.0371094
0.0372207
0.0370233
0.0378562
0.0371131
0.0412299
0.0488644
0.0432442
0.0414573
0.0399982
0.0392895
0.0388444
0.038624
0.0385351
0.0385463
0.0386785
0.0388791
0.0392294
0.0395927
0.0400939
0.0405409
0.0408556
0.0447128
0.0429625
0.0414104
0.0401897
0.0394721
0.0390012
0.0387472
0.0386389
0.0386431
0.0387816
0.0389952
0.0393699
0.0397497
0.0402796
0.0406926
0.0411122
0.0426949
0.0420789
0.0409675
0.0401093
0.0394717
0.0390322
0.0387702
0.0386553
0.0386558
0.0388035
0.0390325
0.0394513
0.0398621
0.0404958
0.0409105
0.0415684
0.0415005
0.0413544
0.0406147
0.040005
0.0394598
0.0390508
0.0387736
0.038635
0.0386118
0.0387514
0.038981
0.0394426
0.03989
0.0406609
0.0411227
0.0420015
0.0407808
0.0407588
0.0402486
0.0397991
0.0393353
0.0389579
0.0386699
0.0385012
0.0384335
0.038528
0.0386983
0.0391249
0.0394875
0.040286
0.040605
0.0416934
0.0403122
0.0403263
0.0399599
0.0396042
0.0391939
0.0388325
0.0385276
0.0383236
0.0382065
0.0382535
0.0383684
0.0387869
0.0391153
0.0400816
0.0404109
0.0420072
0.0399973
0.040016
0.0397224
0.0394117
0.0390248
0.0386583
0.0383196
0.0380563
0.0378494
0.0377768
0.0377108
0.0379073
0.037823
0.0384093
0.0376831
0.0392958
0.0397998
0.0398189
0.0395542
0.039257
0.0388694
0.0384832
0.0381053
0.0377843
0.0374998
0.0373352
0.0371552
0.0372647
0.0370594
0.0378699
0.0370956
0.0411757
0.0582648
0.0475057
0.0438348
0.0408208
0.0390832
0.0377481
0.0367326
0.0358328
0.0349758
0.034107
0.0331429
0.0320971
0.0308329
0.0294639
0.0277384
0.0259757
0.0540062
0.046766
0.0434774
0.0407466
0.0390603
0.0377485
0.0367399
0.0358442
0.0349926
0.0341337
0.0331801
0.0321479
0.030898
0.0295473
0.027836
0.0260835
0.0519904
0.0457124
0.0428249
0.0404275
0.038869
0.0376405
0.0366713
0.0357983
0.0349617
0.0341194
0.0331833
0.0321714
0.0309501
0.0296328
0.0279614
0.0262421
0.0507418
0.0449051
0.0423531
0.0401872
0.0387447
0.0375836
0.0366413
0.0357782
0.0349437
0.0341025
0.0331701
0.0321652
0.030959
0.0296609
0.0280169
0.026324
0.049995
0.0442884
0.041942
0.0399303
0.0385873
0.0374895
0.0365774
0.0357273
0.0348959
0.0340529
0.0331197
0.0321157
0.0309183
0.0296325
0.0280133
0.026346
0.0495136
0.0438562
0.0416451
0.039731
0.0384592
0.0374058
0.0365146
0.0356712
0.0348378
0.0339882
0.0330501
0.0320425
0.0308509
0.0295741
0.0279813
0.0263415
0.0492093
0.0435658
0.0414272
0.0395673
0.0383388
0.0373121
0.0364334
0.0355916
0.0347522
0.0338922
0.0329446
0.031927
0.0307349
0.0294592
0.0278922
0.0262808
0.0490394
0.0434004
0.0412941
0.039457
0.0382466
0.0372288
0.036352
0.0355056
0.0346572
0.033786
0.0328301
0.0318044
0.0306166
0.0293471
0.0278145
0.0262379
0.054008
0.0467659
0.0434751
0.0407408
0.0390496
0.0377311
0.0367136
0.0358118
0.0349495
0.0340726
0.0330972
0.032043
0.0307621
0.0293885
0.0276381
0.0258923
0.049827
0.046393
0.0433096
0.0408037
0.0391225
0.0377959
0.0367579
0.0358416
0.0349712
0.0340913
0.0331161
0.0320657
0.0307921
0.0294332
0.0276991
0.025966
0.0478104
0.0454358
0.0427375
0.0405595
0.0389822
0.0377198
0.0367058
0.035803
0.0349406
0.0340693
0.0331054
0.0320692
0.0308183
0.0294846
0.0277835
0.0260836
0.0465773
0.0446512
0.0423003
0.0403557
0.0388884
0.0376864
0.0366925
0.0357937
0.0349278
0.0340535
0.0330905
0.032059
0.0308215
0.0295053
0.0278299
0.0261537
0.0458367
0.0440313
0.0418963
0.0401081
0.0387394
0.0375993
0.0366347
0.0357472
0.0348823
0.0340056
0.0330418
0.0320111
0.0307828
0.0294785
0.0278277
0.0261765
0.0453589
0.0435932
0.0416
0.0399109
0.038614
0.0375183
0.0365751
0.0356943
0.0348274
0.0339453
0.032978
0.0319457
0.0307255
0.0294326
0.0278104
0.0261871
0.045056
0.0432985
0.0413809
0.0397469
0.0384937
0.0374253
0.0364953
0.0356166
0.0347448
0.0338537
0.0328788
0.0318382
0.03062
0.0293298
0.0277366
0.0261409
0.0448868
0.0431315
0.0412476
0.0396371
0.0384025
0.0373437
0.0364161
0.0355336
0.0346545
0.0337541
0.0327734
0.0317278
0.0305179
0.0292374
0.0276838
0.0261231
0.0520185
0.0457397
0.0428596
0.04047
0.0389208
0.0377016
0.0367422
0.0358871
0.0350563
0.0342057
0.0332437
0.0322044
0.0308967
0.0295055
0.0276068
0.0257766
0.047838
0.0454648
0.0427776
0.0406122
0.0390511
0.0378067
0.0368147
0.0359391
0.0350963
0.0342392
0.0332757
0.0322395
0.0309389
0.0295637
0.0276831
0.025869
0.0458174
0.0445757
0.0422972
0.0404713
0.0389906
0.0377852
0.0367967
0.0359246
0.0350849
0.0342308
0.033276
0.0322518
0.0309731
0.0296193
0.0277615
0.0259651
0.0445998
0.0438259
0.0419134
0.0403308
0.0389521
0.037795
0.0368134
0.0359361
0.0350869
0.0342245
0.0332677
0.0322466
0.0309808
0.0296437
0.0278088
0.0260341
0.0438698
0.0432201
0.0415366
0.0401174
0.0388349
0.0377334
0.0367731
0.0359004
0.0350468
0.0341773
0.0332164
0.0321933
0.0309348
0.0296072
0.0277955
0.0260449
0.0433995
0.0427873
0.041252
0.0399357
0.0387247
0.0376648
0.0367216
0.0358509
0.0349916
0.0341137
0.0331476
0.0321218
0.0308729
0.029559
0.0277837
0.026068
0.0430999
0.0424936
0.0410369
0.0397775
0.0386104
0.037576
0.0366424
0.0357699
0.0349023
0.0340118
0.0330344
0.0319959
0.030747
0.0294332
0.0276964
0.0260162
0.0429314
0.0423262
0.0409044
0.0396692
0.0385204
0.0374945
0.0365606
0.0356811
0.0348041
0.0339021
0.0329174
0.0318725
0.0306348
0.0293346
0.0276557
0.0260249
0.0507995
0.0449629
0.0424329
0.0402931
0.0388839
0.0377591
0.0368562
0.036042
0.0352406
0.0344206
0.0334757
0.0324597
0.0311141
0.0297022
0.0275694
0.0256075
0.0466349
0.0447105
0.0423865
0.0404745
0.0390489
0.0378933
0.0369525
0.0361125
0.035294
0.0344653
0.0335179
0.0325057
0.0311687
0.0297759
0.0276589
0.0257151
0.0446292
0.0438552
0.0419589
0.0403973
0.039046
0.0379189
0.0369707
0.0361249
0.0353026
0.0344728
0.0335326
0.0325315
0.0312149
0.0298388
0.027725
0.0257681
0.0434289
0.0431293
0.0416079
0.0402966
0.0390449
0.0379596
0.03701
0.0361519
0.0353147
0.0344733
0.0335296
0.0325312
0.0312275
0.0298667
0.0277667
0.0258211
0.0427115
0.0425378
0.0412508
0.040107
0.0389502
0.0379158
0.036981
0.0361217
0.0352756
0.034423
0.033472
0.0324684
0.0311691
0.0298141
0.0277334
0.0258084
0.0422496
0.0421128
0.0409758
0.0399363
0.03885
0.0378543
0.036932
0.0360707
0.0352157
0.0343518
0.0333939
0.0323868
0.0310996
0.0297627
0.0277303
0.0258526
0.041954
0.0418224
0.0407646
0.0397823
0.0387387
0.0377659
0.0368495
0.0359823
0.0351149
0.0342331
0.0332585
0.0322318
0.0309405
0.0295986
0.0276208
0.0257923
0.0417863
0.0416552
0.0406324
0.0396738
0.0386476
0.0376815
0.0367618
0.0358849
0.0350053
0.0341084
0.0331241
0.0320888
0.0308139
0.0294928
0.0276057
0.0258568
0.0500862
0.0443814
0.0420781
0.0401197
0.0388472
0.0378294
0.0370054
0.0362588
0.0355175
0.0347646
0.0338758
0.0329344
0.0315886
0.0302107
0.027781
0.0256599
0.0459281
0.0441252
0.042039
0.0403116
0.0390233
0.0379748
0.0371125
0.0363388
0.0355804
0.0348199
0.0339307
0.0329969
0.031664
0.0303131
0.0278968
0.0257889
0.0439317
0.0432817
0.0416363
0.0402675
0.0390531
0.0380294
0.0371557
0.0363712
0.0356053
0.0348431
0.033962
0.0330415
0.0317293
0.0303914
0.0279464
0.0257758
0.0427437
0.0425698
0.0413042
0.0401901
0.0390746
0.0380888
0.037209
0.0364075
0.0356233
0.0348481
0.033964
0.0330481
0.0317507
0.0304302
0.0279861
0.0258121
0.0420364
0.0419891
0.040961
0.0400169
0.0389954
0.0380569
0.0371869
0.036379
0.035581
0.0347903
0.033895
0.0329702
0.0316738
0.0303561
0.0279256
0.0257689
0.0415815
0.0415709
0.0406939
0.0398543
0.0389022
0.0379993
0.0371375
0.0363233
0.035512
0.0347058
0.0338008
0.0328713
0.0315899
0.0302983
0.0279347
0.0258477
0.0412892
0.0412835
0.0404859
0.039703
0.038792
0.0379091
0.0370486
0.0362232
0.0353928
0.03456
0.0336283
0.0326658
0.0313697
0.0300601
0.02777
0.0257536
0.0411214
0.0411161
0.0403531
0.0395933
0.0386982
0.0378192
0.0369518
0.0361124
0.0352642
0.0344098
0.0334625
0.0324852
0.0312084
0.0299276
0.0277753
0.0258962
0.0496287
0.0439746
0.0418316
0.0400027
0.0388452
0.037923
0.037177
0.0365023
0.0358285
0.0351522
0.034328
0.0334709
0.0321143
0.0307609
0.0278914
0.0255428
0.0454741
0.0437111
0.041792
0.0401963
0.0390241
0.0380724
0.0372881
0.0365865
0.0358967
0.0352146
0.0343922
0.0335474
0.0322081
0.0308905
0.0280114
0.0256229
0.0434828
0.0428693
0.0413968
0.0401638
0.0390672
0.0381404
0.0373432
0.0366285
0.0359307
0.035248
0.0344361
0.0336084
0.0322886
0.0309764
0.028001
0.0254368
0.0423024
0.042164
0.0410725
0.0400957
0.0390976
0.0382071
0.0374012
0.0366666
0.035949
0.0352533
0.0344396
0.03362
0.0323163
0.0310229
0.0280166
0.0254028
0.0416015
0.0415894
0.0407361
0.0399295
0.0390245
0.0381788
0.0373793
0.0366341
0.0358986
0.0351833
0.0343543
0.0335218
0.0322134
0.0309181
0.0279106
0.0253003
0.0411511
0.0411754
0.0404729
0.0397702
0.038933
0.0381202
0.0373258
0.0365705
0.0358173
0.0350827
0.0342413
0.0334038
0.0321153
0.0308599
0.0279459
0.02544
0.0408604
0.0408894
0.040266
0.0396188
0.0388209
0.0380249
0.0372281
0.0364561
0.0356761
0.034905
0.0340244
0.0331367
0.0318175
0.0305247
0.0277118
0.0253112
0.0406915
0.0407209
0.0401315
0.0395064
0.0387227
0.0379277
0.0371211
0.0363306
0.0355268
0.0347271
0.0338253
0.0329183
0.0316273
0.0303874
0.0277972
0.0256626
0.0493314
0.0436931
0.0416549
0.0399198
0.0388599
0.038028
0.0373683
0.0367839
0.0362079
0.0356547
0.0349698
0.0343154
0.0331336
0.0320928
0.0290755
0.0268408
0.0451782
0.0434238
0.0416128
0.040112
0.0390386
0.0381778
0.0374803
0.0368708
0.0362807
0.0357248
0.0350449
0.0344098
0.0332523
0.0322621
0.0292057
0.0268714
0.0431873
0.0425786
0.0412159
0.0400797
0.0390833
0.0382489
0.0375383
0.036916
0.0363189
0.035765
0.0350999
0.0344911
0.0333587
0.0323917
0.0291968
0.0266167
0.0420101
0.0418752
0.0408933
0.0400131
0.0391147
0.0383158
0.0375947
0.0369512
0.036334
0.0357685
0.0351048
0.0345127
0.0334062
0.0324803
0.02924
0.0265855
0.0413119
0.0413028
0.0405587
0.0398482
0.0390416
0.0382855
0.037568
0.0369102
0.036271
0.0356821
0.0349987
0.0343915
0.0332762
0.032355
0.0291036
0.0264493
0.0408632
0.0408904
0.0402965
0.0396887
0.0389481
0.0382225
0.0375069
0.0368345
0.0361731
0.0355605
0.0348607
0.0342487
0.0331574
0.032299
0.0291693
0.0266714
0.0405723
0.0406042
0.0400887
0.0395352
0.0388317
0.0381197
0.0373971
0.036701
0.0360032
0.0353402
0.0345811
0.0338895
0.0327271
0.0317798
0.0287292
0.0263559
0.0404013
0.0404335
0.0399513
0.0394189
0.0387276
0.0380136
0.0372772
0.0365562
0.0358268
0.0351245
0.0343319
0.0336068
0.0324654
0.0315843
0.0288214
0.0269269
0.0491363
0.0435048
0.0415395
0.0398741
0.0388935
0.0381393
0.0375589
0.0370587
0.0365736
0.0361284
0.0355588
0.0350495
0.0339634
0.033045
0.0296337
0.026981
0.0449838
0.0432315
0.0414954
0.0400651
0.0390719
0.038289
0.0376715
0.0371473
0.0366494
0.0362032
0.0356401
0.0351529
0.0340853
0.0332004
0.02958
0.0263863
0.0429905
0.0423809
0.0410928
0.0400277
0.039113
0.0383571
0.0377268
0.0371912
0.0366875
0.036246
0.0357001
0.0352454
0.0341977
0.0333271
0.0294221
0.0255437
0.0418136
0.0416767
0.0407682
0.0399583
0.039141
0.0384197
0.0377777
0.0372204
0.0366963
0.0362445
0.0357019
0.0352708
0.0342508
0.0334283
0.0294138
0.0252585
0.0411152
0.0411037
0.0404319
0.0397905
0.0390635
0.0383836
0.0377425
0.0371678
0.0366179
0.036139
0.0355711
0.0351216
0.0340829
0.0332649
0.029213
0.0249926
0.0406661
0.0406907
0.0401683
0.0396284
0.0389654
0.0383139
0.0376715
0.0370786
0.0365025
0.0359962
0.0354085
0.0349568
0.0339478
0.0332244
0.0293405
0.0253117
0.0403735
0.0404027
0.039958
0.0394709
0.0388426
0.0382021
0.0375483
0.0369252
0.0363035
0.035734
0.0350671
0.034508
0.0333835
0.0325192
0.0286895
0.024747
0.0401994
0.040229
0.0398169
0.0393498
0.0387317
0.0380865
0.037415
0.0367616
0.0361015
0.0354849
0.0347767
0.0341821
0.0330906
0.0323636
0.0289723
0.0258246
0.0399834
0.0400109
0.0396402
0.0392095
0.0386317
0.038021
0.0373777
0.0367458
0.0361001
0.0354925
0.0347864
0.0341885
0.0330794
0.0323254
0.0288585
0.0256007
0.0400118
0.0400401
0.0396272
0.03916
0.0385418
0.037889
0.0372049
0.0365251
0.0358242
0.035141
0.0343559
0.0336298
0.0324684
0.0315575
0.028716
0.0267389
0.0401605
0.0401843
0.0396804
0.0391406
0.0384581
0.0377514
0.0370168
0.0362834
0.0355206
0.0347482
0.0338581
0.0329505
0.0316371
0.0303632
0.0276959
0.0254871
0.0404787
0.0404674
0.0398016
0.0391411
0.0383654
0.0375976
0.0368249
0.0360561
0.0352589
0.0344394
0.0335088
0.0325338
0.0312372
0.0299243
0.0277054
0.0257617
0.0410555
0.0409184
0.0400005
0.0391524
0.0382613
0.0374202
0.0366142
0.0358223
0.0350012
0.0341457
0.0331823
0.0321515
0.0308594
0.0295081
0.0275633
0.0257561
0.0421397
0.0415298
0.0402201
0.0391046
0.0381022
0.0372131
0.0364024
0.0356184
0.0348079
0.0339513
0.03299
0.0319507
0.0306978
0.0293687
0.0276387
0.0259534
0.044058
0.0423025
0.0405389
0.0390552
0.0379719
0.0370531
0.0362469
0.0354648
0.0346625
0.0338107
0.0328558
0.0318166
0.0305931
0.0292851
0.0276849
0.0260723
0.0482109
0.0425819
0.0406008
0.0388933
0.0378348
0.0369571
0.0361983
0.035451
0.0346804
0.0338552
0.0329229
0.0319016
0.0306985
0.0293999
0.0278197
0.0261893
0.0398817
0.0399068
0.0395673
0.0391709
0.038638
0.0380744
0.0374816
0.0369033
0.0363118
0.0357626
0.0351042
0.0345461
0.0333971
0.0324975
0.0285413
0.0244304
0.0399054
0.0399314
0.0395494
0.0391155
0.0385403
0.0379322
0.0372947
0.0366634
0.0360099
0.0353769
0.0346312
0.0339418
0.0327514
0.0317637
0.0285858
0.0260836
0.0400488
0.0400705
0.0395971
0.0390901
0.0384492
0.0377842
0.0370919
0.0364012
0.0356778
0.0349447
0.034081
0.0331947
0.0318444
0.0305055
0.0275753
0.0250659
0.040362
0.0403487
0.0397129
0.0390844
0.0383492
0.0376219
0.0368882
0.0361577
0.0353947
0.034608
0.0336986
0.0327404
0.031418
0.0300661
0.0276795
0.0255717
0.0409344
0.0407955
0.0399073
0.0390905
0.0382383
0.0374355
0.0366667
0.035909
0.0351169
0.034288
0.0333405
0.0323209
0.0310081
0.029628
0.0275711
0.0256642
0.0420155
0.0414042
0.0401242
0.0390396
0.0380752
0.0372227
0.0364479
0.035696
0.034912
0.0340789
0.0331318
0.0321021
0.0308354
0.0294868
0.0276832
0.0259322
0.0439329
0.0421772
0.0404438
0.0389906
0.0379439
0.0370601
0.0362863
0.0355344
0.0347583
0.0339281
0.0329864
0.031956
0.030723
0.0294007
0.0277492
0.0260878
0.0480858
0.0424585
0.0405075
0.0388308
0.0378092
0.0369672
0.036241
0.035525
0.0347825
0.0339804
0.0330638
0.0320541
0.0308456
0.0295359
0.0279093
0.0262295
0.0398122
0.0398357
0.0395185
0.0391486
0.0386524
0.0381303
0.037585
0.0370608
0.0365307
0.036057
0.035485
0.0350403
0.0339964
0.0332214
0.0291197
0.0247906
0.0398316
0.0398562
0.039496
0.0390877
0.038547
0.0379777
0.0373836
0.0368003
0.0361991
0.0356282
0.0349483
0.0343429
0.0332126
0.0322968
0.0289603
0.0262446
0.0399705
0.0399907
0.0395389
0.0390569
0.0384491
0.0378195
0.0371662
0.0365171
0.0358363
0.0351508
0.0343319
0.0334979
0.0321669
0.0308472
0.0277531
0.0250766
0.0402795
0.0402648
0.03965
0.0390456
0.0383427
0.0376492
0.0369507
0.0362568
0.0355295
0.0347807
0.0339043
0.0329816
0.0316659
0.0303185
0.0278151
0.0255949
0.0408484
0.0407083
0.0398408
0.0390475
0.0382257
0.037455
0.0367187
0.0359929
0.0352306
0.0344316
0.0335078
0.0325111
0.0311976
0.0298133
0.0276733
0.0256891
0.041927
0.0413148
0.0400555
0.0389938
0.038059
0.0372363
0.036493
0.0357712
0.0350133
0.0342054
0.0332774
0.0322647
0.0309962
0.0296417
0.0277809
0.0259744
0.0438438
0.042088
0.0403758
0.0389452
0.0379269
0.0370718
0.0363259
0.0356016
0.0348507
0.0340431
0.0331179
0.032101
0.0308663
0.029538
0.0278452
0.0261409
0.0479967
0.0423706
0.0404408
0.0387871
0.0377942
0.0369815
0.0362834
0.0355958
0.0348802
0.0341018
0.0332035
0.0322091
0.0310013
0.0296871
0.0280226
0.0262986
0.0397657
0.039788
0.0394867
0.0391366
0.0386681
0.038178
0.0376685
0.037183
0.0366924
0.0362585
0.0357175
0.0352889
0.0342125
0.0333338
0.0289451
0.0242355
0.0397814
0.0398049
0.0394603
0.0390709
0.0385563
0.0380171
0.0374561
0.0369077
0.0363412
0.0358048
0.03515
0.0345591
0.033399
0.0324091
0.0288541
0.0258701
0.0399166
0.0399357
0.0394993
0.0390358
0.0384529
0.0378507
0.0372277
0.0366095
0.0359582
0.035301
0.0345006
0.0336763
0.0323162
0.0309399
0.0276758
0.0248171
0.0402222
0.0402065
0.0396067
0.03902
0.0383417
0.0376742
0.0370032
0.0363373
0.0356357
0.0349111
0.03405
0.0331361
0.031799
0.0304137
0.0277943
0.0254569
0.0407883
0.0406473
0.0397946
0.0390185
0.0382198
0.0374743
0.0367633
0.0360624
0.0353225
0.0345441
0.033633
0.0326437
0.0313148
0.0299048
0.0276861
0.0256251
0.0418649
0.041252
0.0400075
0.0389627
0.0380503
0.0372506
0.0365325
0.0358349
0.035097
0.0343077
0.0333917
0.0323864
0.0311081
0.0297364
0.0278217
0.0259615
0.0437812
0.0420255
0.0403283
0.0389145
0.0379178
0.0370851
0.0363615
0.0356593
0.0349287
0.0341385
0.033225
0.0322157
0.0309749
0.0296348
0.0279034
0.0261581
0.0479342
0.042309
0.0403944
0.0387578
0.0377868
0.0369971
0.0363215
0.035657
0.0349632
0.0342037
0.0333189
0.0323343
0.0311235
0.0297998
0.0280997
0.0263344
0.0397361
0.0397576
0.0394681
0.039133
0.0386866
0.0382228
0.037744
0.0372931
0.0368408
0.0364494
0.0359514
0.0355641
0.0345075
0.0336118
0.0290722
0.0240966
0.0397487
0.0397715
0.0394383
0.0390632
0.0385692
0.0380546
0.0375215
0.0370041
0.0364705
0.0359699
0.0353486
0.0347892
0.0336357
0.0326273
0.0289409
0.0257748
0.0398808
0.0398993
0.0394739
0.0390245
0.0384609
0.037881
0.0372833
0.0366922
0.0360686
0.0354403
0.0346646
0.0338622
0.0324995
0.0311032
0.0277293
0.0247386
0.0401836
0.0401673
0.0395783
0.039005
0.0383455
0.0376989
0.0370508
0.036409
0.035731
0.0350303
0.0341884
0.0332906
0.0319493
0.0305478
0.0278493
0.0254227
0.0407475
0.040606
0.0397638
0.0390006
0.0382196
0.037494
0.0368039
0.0361241
0.0354045
0.0346459
0.03375
0.0327728
0.0314399
0.0300177
0.0277435
0.0256217
0.0418226
0.0412093
0.0399753
0.038943
0.0380476
0.037266
0.0365684
0.0358912
0.035171
0.0343992
0.0334961
0.032501
0.0312201
0.0298395
0.0278856
0.0259816
0.0437385
0.0419828
0.0402964
0.0388951
0.0379147
0.0370994
0.0363939
0.0357102
0.0349971
0.034223
0.0333214
0.0323214
0.0310793
0.0297325
0.0279722
0.0261931
0.0478915
0.0422671
0.0403633
0.0387393
0.037785
0.0370132
0.0363558
0.0357105
0.0350355
0.0342929
0.0334214
0.0324474
0.0312369
0.0299078
0.0281806
0.026381
0.0397179
0.0397388
0.0394573
0.0391327
0.0387018
0.0382561
0.0377981
0.0373695
0.0369397
0.0365693
0.0360863
0.0357021
0.0346223
0.0336646
0.0289797
0.0238024
0.0397281
0.0397504
0.039425
0.0390599
0.0385802
0.0380828
0.0375687
0.0370715
0.0365578
0.0360756
0.0354663
0.0349098
0.0337344
0.0326777
0.028876
0.0255744
0.0398579
0.0398758
0.0394582
0.0390185
0.0384684
0.0379041
0.0373239
0.0367509
0.0361445
0.035532
0.0347658
0.0339659
0.0325844
0.0311516
0.0276878
0.0245979
0.0401586
0.0401418
0.0395602
0.0389962
0.0383501
0.0377183
0.0370861
0.0364606
0.0357978
0.0351109
0.0342773
0.0333824
0.0320271
0.0305998
0.0278374
0.0253429
0.0407209
0.040579
0.039744
0.0389899
0.0382212
0.0375098
0.0368345
0.0361693
0.0354632
0.0347168
0.0338284
0.0328546
0.0315122
0.0300727
0.027754
0.0255853
0.0417949
0.0411813
0.0399544
0.0389309
0.0380475
0.0372788
0.0365959
0.035933
0.035225
0.0344645
0.0335689
0.0325779
0.031291
0.0298986
0.027913
0.0259748
0.0437105
0.0419548
0.0402757
0.0388831
0.0379144
0.0371115
0.036419
0.0357486
0.035048
0.0342848
0.0333907
0.0323954
0.0311498
0.0297948
0.0280111
0.0262051
0.0478634
0.0422396
0.0403432
0.0387282
0.0377857
0.0370267
0.0363825
0.0357511
0.0350896
0.0343588
0.0334959
0.0325279
0.0313155
0.0299796
0.0282305
0.0264036
0.0397078
0.0397284
0.0394521
0.0391346
0.0387141
0.038281
0.0378376
0.0374255
0.0370132
0.0366608
0.0361938
0.0358206
0.0347379
0.0337542
0.0289887
0.0236769
0.0397164
0.0397384
0.039418
0.0390596
0.0385895
0.0381039
0.0376033
0.0371208
0.0366223
0.0361554
0.0355589
0.0350108
0.0338301
0.0327516
0.0288835
0.0254938
0.0398446
0.0398623
0.0394495
0.0390163
0.0384753
0.0379215
0.0373536
0.0367936
0.0362004
0.0356008
0.0348446
0.0340511
0.0326638
0.0312137
0.027697
0.0245418
0.0401439
0.0401269
0.03955
0.0389921
0.0383549
0.037733
0.0371118
0.0364979
0.0358466
0.0351707
0.0343452
0.0334555
0.0320954
0.0306554
0.0278545
0.0253148
0.0407052
0.040563
0.0397326
0.0389843
0.0382239
0.037522
0.0368569
0.036202
0.0355058
0.0347688
0.0338874
0.0329182
0.0315725
0.0301242
0.0277783
0.0255781
0.0417783
0.0411645
0.0399423
0.0389244
0.0380489
0.037289
0.036616
0.0359629
0.0352638
0.034512
0.0336227
0.032636
0.0313472
0.0299486
0.0279434
0.0259819
0.0436937
0.0419381
0.0402637
0.0388767
0.0379155
0.0371208
0.0364373
0.0357762
0.0350843
0.0343292
0.0334412
0.0324502
0.0312036
0.0298443
0.0280459
0.0262215
0.0478467
0.0422232
0.0403315
0.0387223
0.0377875
0.0370371
0.0364018
0.03578
0.0351279
0.0344057
0.0335495
0.0325865
0.031374
0.0300344
0.0282712
0.0264258
0.0397033
0.0397236
0.0394499