/*--------------------------------*- C++ -*----------------------------------*\
| =========                 |                                                 |
| \\      /  F ield         | OpenFOAM: The Open Source CFD Toolbox           |
|  \\    /   O peration     | Version:  v1912                                 |
|   \\  /    A nd           | Website:  www.openfoam.com                      |
|    \\/     M anipulation  |                                                 |
\*---------------------------------------------------------------------------*/
FoamFile
{
    version     2.0;
    format      ascii;
    class       pointVectorField;
    location    "0.95/fluid";
    object      pointMotionU;
}
// * * * * * * * * * * * * * * * * * * * * * * * * * * * * * * * * * * * * * //

dimensions      [0 1 -1 0 0 0 0];


internalField   nonuniform List<vector> 
16859
(
(0 0 0)
(0 0 0)
(0 0 0)
(0 0 0)
(0 0 0)
(0 0 0)
(0 0 0)
(0 0 0)
(0 0 0)
(0 0 0)
(0 0 0)
(0 0 0)
(0 0 0)
(0 0 0)
(0 0 0)
(0 0 0)
(1.35222e-08 2.36747e-08 1.57092e-08)
(0 0 0)
(3.92583e-10 -9.97503e-10 7.86154e-10)
(7.51645e-10 -1.90778e-09 1.5327e-09)
(1.09333e-09 -2.76602e-09 2.29378e-09)
(1.43272e-09 -3.59753e-09 3.11744e-09)
(1.78498e-09 -4.41679e-09 4.04863e-09)
(2.16696e-09 -5.22543e-09 5.13141e-09)
(2.59955e-09 -6.00821e-09 6.41026e-09)
(3.11119e-09 -6.72556e-09 7.93097e-09)
(3.74419e-09 -7.30049e-09 9.74134e-09)
(4.56689e-09 -7.59514e-09 1.1893e-08)
(5.69848e-09 -7.36788e-09 1.44497e-08)
(7.35986e-09 -6.1901e-09 1.75157e-08)
(9.96735e-09 -3.28527e-09 2.13145e-08)
(1.4226e-08 2.70343e-09 2.63398e-08)
(2.02953e-08 1.25704e-08 3.27806e-08)
(2.85605e-08 3.16356e-08 3.96781e-08)
(0 0 0)
(7.74012e-10 -1.96548e-09 1.55148e-09)
(1.48142e-09 -3.76032e-09 3.02416e-09)
(2.15338e-09 -5.455e-09 4.5243e-09)
(2.81883e-09 -7.10089e-09 6.14597e-09)
(3.50678e-09 -8.7292e-09 7.97721e-09)
(4.24907e-09 -1.03476e-08 1.01041e-08)
(5.08408e-09 -1.19335e-08 1.26133e-08)
(6.06218e-09 -1.3422e-08 1.55931e-08)
(7.25435e-09 -1.46857e-08 1.91331e-08)
(8.76678e-09 -1.55015e-08 2.33223e-08)
(1.07656e-08 -1.55004e-08 2.82488e-08)
(1.35171e-08 -1.41026e-08 3.40061e-08)
(1.7418e-08 -1.0478e-08 4.07057e-08)
(2.28747e-08 -3.74223e-09 4.84317e-08)
(2.91374e-08 5.28321e-09 5.63043e-08)
(3.89152e-08 1.85305e-08 6.79231e-08)
(0 0 0)
(1.13399e-09 -2.87499e-09 2.27688e-09)
(2.16913e-09 -5.50329e-09 4.43669e-09)
(3.14969e-09 -7.99078e-09 6.63395e-09)
(4.11645e-09 -1.04164e-08 9.00525e-09)
(5.11005e-09 -1.28317e-08 1.16783e-08)
(6.17419e-09 -1.52578e-08 1.47779e-08)
(7.35981e-09 -1.76778e-08 1.84293e-08)
(8.73062e-09 -2.00242e-08 2.27597e-08)
(1.037e-08 -2.21581e-08 2.7896e-08)
(1.23903e-08 -2.38374e-08 3.39573e-08)
(1.4943e-08 -2.46773e-08 4.10408e-08)
(1.82276e-08 -2.41192e-08 4.91998e-08)
(2.24634e-08 -2.14799e-08 5.84002e-08)
(2.77241e-08 -1.62691e-08 6.84166e-08)
(3.30772e-08 -9.56897e-09 7.79171e-08)
(4.06201e-08 -3.04283e-10 9.02537e-08)
(0 0 0)
(1.46336e-09 -3.69649e-09 2.94492e-09)
(2.7969e-09 -7.08061e-09 5.73575e-09)
(4.05543e-09 -1.02932e-08 8.56984e-09)
(5.28912e-09 -1.34418e-08 1.16213e-08)
(6.54737e-09 -1.66023e-08 1.50525e-08)
(7.88221e-09 -1.98165e-08 1.90218e-08)
(9.35228e-09 -2.30872e-08 2.36884e-08)
(1.10274e-08 -2.63675e-08 2.92141e-08)
(1.29924e-08 -2.95443e-08 3.576e-08)
(1.53489e-08 -3.24128e-08 4.34758e-08)
(1.82113e-08 -3.46452e-08 5.24759e-08)
(2.16878e-08 -3.57651e-08 6.27941e-08)
(2.58167e-08 -3.51704e-08 7.42933e-08)
(3.04067e-08 -3.23242e-08 8.64831e-08)
(3.44894e-08 -2.77252e-08 9.74938e-08)
(3.98058e-08 -1.96948e-08 1.10165e-07)
(0 0 0)
(1.75489e-09 -4.4009e-09 3.54108e-09)
(3.35064e-09 -8.43646e-09 6.89266e-09)
(4.84976e-09 -1.22808e-08 1.0288e-08)
(6.30897e-09 -1.60701e-08 1.39324e-08)
(7.78342e-09 -1.99067e-08 1.80165e-08)
(9.33001e-09 -2.38588e-08 2.27258e-08)
(1.10111e-08 -2.79593e-08 2.82466e-08)
(1.28982e-08 -3.21995e-08 3.47693e-08)
(1.50738e-08 -3.652e-08 4.24861e-08)
(1.76294e-08 -4.07946e-08 5.15809e-08)
(2.06559e-08 -4.48066e-08 6.22056e-08)
(2.42161e-08 -4.82132e-08 7.44301e-08)
(2.82742e-08 -5.04905e-08 8.81267e-08)
(3.25428e-08 -5.08873e-08 1.02706e-07)
(3.60528e-08 -4.88898e-08 1.15808e-07)
(4.03284e-08 -4.12126e-08 1.29942e-07)
(0 0 0)
(2.00349e-09 -4.96046e-09 4.05448e-09)
(3.82067e-09 -9.51716e-09 7.88594e-09)
(5.51867e-09 -1.3874e-08 1.17558e-08)
(7.15786e-09 -1.8194e-08 1.58929e-08)
(8.79607e-09 -2.26051e-08 2.05086e-08)
(1.04919e-08 -2.72042e-08 2.58073e-08)
(1.23081e-08 -3.20583e-08 3.1994e-08)
(1.4315e-08 -3.72051e-08 3.92783e-08)
(1.65926e-08 -4.2652e-08 4.78756e-08)
(1.92294e-08 -4.83725e-08 5.80013e-08)
(2.23183e-08 -5.43007e-08 6.98581e-08)
(2.59423e-08 -6.03084e-08 8.36035e-08)
(3.01294e-08 -6.61315e-08 9.92518e-08)
(3.47224e-08 -7.11707e-08 1.16381e-07)
(3.87992e-08 -7.41088e-08 1.3235e-07)
(4.42482e-08 -7.03822e-08 1.50218e-07)
(0 0 0)
(2.20641e-09 -5.35007e-09 4.47828e-09)
(4.20198e-09 -1.02739e-08 8.70242e-09)
(6.05541e-09 -1.49997e-08 1.29534e-08)
(7.8278e-09 -1.97126e-08 1.74754e-08)
(9.5767e-09 -2.45632e-08 2.2492e-08)
(1.13593e-08 -2.96739e-08 2.82173e-08)
(1.32355e-08 -3.51431e-08 3.48638e-08)
(1.52716e-08 -4.1051e-08 4.26476e-08)
(1.75429e-08 -4.74652e-08 5.17919e-08)
(2.01357e-08 -5.44496e-08 6.25258e-08)
(2.3152e-08 -6.20786e-08 7.50851e-08)
(2.67156e-08 -7.04548e-08 8.97076e-08)
(3.09734e-08 -7.97071e-08 1.06594e-07)
(3.60272e-08 -8.98635e-08 1.25691e-07)
(4.11788e-08 -9.96277e-08 1.4452e-07)
(4.94679e-08 -1.10272e-07 1.67464e-07)
(0 0 0)
(2.36325e-09 -5.54885e-09 4.8101e-09)
(4.49441e-09 -1.06662e-08 9.33809e-09)
(6.46078e-09 -1.55967e-08 1.38756e-08)
(8.32137e-09 -2.05409e-08 1.86739e-08)
(1.01307e-08 -2.56659e-08 2.39599e-08)
(1.19416e-08 -3.11128e-08 2.99475e-08)
(1.38079e-08 -3.70029e-08 3.68449e-08)
(1.57877e-08 -4.34452e-08 4.48593e-08)
(1.79458e-08 -5.05437e-08 5.41995e-08)
(2.03564e-08 -5.84092e-08 6.50756e-08)
(2.31079e-08 -6.71768e-08 7.77006e-08)
(2.63108e-08 -7.70314e-08 9.2291e-08)
(3.00975e-08 -8.82235e-08 1.09048e-07)
(3.45361e-08 -1.00994e-07 1.2802e-07)
(3.88335e-08 -1.13815e-07 1.46664e-07)
(5.06312e-08 -1.34613e-07 1.75006e-07)
(0 0 0)
(0 0 0)
(0 0 0)
(0 0 0)
(0 0 0)
(0 0 0)
(0 0 0)
(0 0 0)
(0 0 0)
(0 0 0)
(0 0 0)
(0 0 0)
(0 0 0)
(0 0 0)
(0 0 0)
(0 0 0)
(9.50434e-09 1.21533e-08 7.40823e-09)
(0 0 0)
(4.01116e-10 -1.02301e-09 7.61012e-10)
(7.67797e-10 -1.95689e-09 1.48256e-09)
(1.11644e-09 -2.83833e-09 2.21623e-09)
(1.46231e-09 -3.69404e-09 3.00754e-09)
(1.82049e-09 -4.53972e-09 3.89864e-09)
(2.20741e-09 -5.37814e-09 4.93e-09)
(2.64295e-09 -6.19537e-09 6.14129e-09)
(3.15383e-09 -6.95396e-09 7.57144e-09)
(3.77958e-09 -7.58095e-09 9.25756e-09)
(4.58451e-09 -7.94709e-09 1.12333e-08)
(5.68284e-09 -7.82972e-09 1.35283e-08)
(7.29225e-09 -6.84346e-09 1.6177e-08)
(9.83086e-09 -4.31403e-09 1.92437e-08)
(1.39869e-08 8.43083e-10 2.28334e-08)
(1.99355e-08 9.14309e-09 2.66648e-08)
(2.64153e-08 1.90786e-08 2.78274e-08)
(0 0 0)
(7.90871e-10 -2.01567e-09 1.50187e-09)
(1.51337e-09 -3.85697e-09 2.92527e-09)
(2.19923e-09 -5.59742e-09 4.37147e-09)
(2.87772e-09 -7.29111e-09 5.92965e-09)
(3.57777e-09 -8.97161e-09 7.68234e-09)
(4.3304e-09 -1.06488e-08 9.70874e-09)
(5.17217e-09 -1.23024e-08 1.20863e-08)
(6.15016e-09 -1.38716e-08 1.48906e-08)
(7.3298e-09 -1.52357e-08 1.81918e-08)
(8.80858e-09 -1.61863e-08 2.20476e-08)
(1.07412e-08 -1.63863e-08 2.64913e-08)
(1.33822e-08 -1.53266e-08 3.15159e-08)
(1.71264e-08 -1.23323e-08 3.7042e-08)
(2.24006e-08 -6.85129e-09 4.28131e-08)
(2.86988e-08 1.71683e-10 4.79573e-08)
(3.57205e-08 4.78869e-09 5.18994e-08)
(0 0 0)
(1.15886e-09 -2.94833e-09 2.20416e-09)
(2.21636e-09 -5.64459e-09 4.29184e-09)
(3.21768e-09 -8.19919e-09 6.41036e-09)
(4.20417e-09 -1.0695e-08 8.68924e-09)
(5.2164e-09 -1.3187e-08 1.12483e-08)
(6.2971e-09 -1.56993e-08 1.42025e-08)
(7.49493e-09 -1.82185e-08 1.76644e-08)
(8.86916e-09 -2.06818e-08 2.17439e-08)
(1.04954e-08 -2.29585e-08 2.65424e-08)
(1.2473e-08 -2.4823e-08 3.21398e-08)
(1.49348e-08 -2.59255e-08 3.85704e-08)
(1.80553e-08 -2.57842e-08 4.57813e-08)
(2.20347e-08 -2.38782e-08 5.35608e-08)
(2.69637e-08 -2.00423e-08 6.1403e-08)
(3.21901e-08 -1.54784e-08 6.81277e-08)
(3.7306e-08 -1.33889e-08 7.26686e-08)
(0 0 0)
(1.49583e-09 -3.79075e-09 2.85107e-09)
(2.85868e-09 -7.26233e-09 5.54899e-09)
(4.14466e-09 -1.05614e-08 8.28196e-09)
(5.40476e-09 -1.38008e-08 1.12151e-08)
(6.68851e-09 -1.70604e-08 1.45009e-08)
(8.04711e-09 -2.03862e-08 1.82857e-08)
(9.5369e-09 -2.37848e-08 2.27133e-08)
(1.1223e-08 -2.72144e-08 2.79247e-08)
(1.31815e-08 -3.05696e-08 3.40521e-08)
(1.54992e-08 -3.36597e-08 4.12022e-08)
(1.82666e-08 -3.61855e-08 4.94244e-08)
(2.15569e-08 -3.77289e-08 5.86504e-08)
(2.53697e-08 -3.78061e-08 6.85825e-08)
(2.95077e-08 -3.61123e-08 7.84804e-08)
(3.32727e-08 -3.32428e-08 8.66815e-08)
(3.66514e-08 -3.16087e-08 9.16426e-08)
(0 0 0)
(1.7944e-09 -4.51315e-09 3.4286e-09)
(3.42596e-09 -8.65301e-09 6.66904e-09)
(4.95883e-09 -1.26007e-08 9.94389e-09)
(6.45094e-09 -1.64987e-08 1.34478e-08)
(7.95791e-09 -2.04542e-08 1.73601e-08)
(9.53623e-09 -2.45404e-08 2.18526e-08)
(1.12465e-08 -2.87941e-08 2.70944e-08)
(1.31562e-08 -3.32119e-08 3.32531e-08)
(1.53403e-08 -3.77406e-08 4.04897e-08)
(1.7877e-08 -4.2264e-08 4.89436e-08)
(2.0835e-08 -4.65827e-08 5.87017e-08)
(2.42438e-08 -5.03833e-08 6.97348e-08)
(2.80264e-08 -5.31908e-08 8.1762e-08)
(3.18803e-08 -5.43359e-08 9.39473e-08)
(3.50722e-08 -5.33378e-08 1.04174e-07)
(3.74549e-08 -5.1223e-08 1.10352e-07)
(0 0 0)
(2.04933e-09 -5.08708e-09 3.92621e-09)
(3.90816e-09 -9.7616e-09 7.63122e-09)
(5.64566e-09 -1.42356e-08 1.13645e-08)
(7.32378e-09 -1.86788e-08 1.53433e-08)
(9.00129e-09 -2.32253e-08 1.97663e-08)
(1.0737e-08 -2.79771e-08 2.48235e-08)
(1.25928e-08 -3.30058e-08 3.07014e-08)
(1.46368e-08 -3.83539e-08 3.75861e-08)
(1.6944e-08 -4.40339e-08 4.56609e-08)
(1.95946e-08 -5.00266e-08 5.50963e-08)
(2.26687e-08 -5.62754e-08 6.60297e-08)
(2.62328e-08 -6.26635e-08 7.8519e-08)
(3.03048e-08 -6.89333e-08 9.24225e-08)
(3.47524e-08 -7.44524e-08 1.07047e-07)
(3.88975e-08 -7.78855e-08 1.20023e-07)
(4.22131e-08 -7.71608e-08 1.28972e-07)
(0 0 0)
(2.2577e-09 -5.48683e-09 4.33727e-09)
(4.29995e-09 -1.05381e-08 8.42274e-09)
(6.19786e-09 -1.53909e-08 1.25246e-08)
(8.01445e-09 -2.02378e-08 1.68748e-08)
(9.8087e-09 -2.52361e-08 2.16838e-08)
(1.16387e-08 -3.05135e-08 2.71506e-08)
(1.35646e-08 -3.61736e-08 3.34693e-08)
(1.56523e-08 -4.23009e-08 4.08326e-08)
(1.79753e-08 -4.89678e-08 4.94317e-08)
(2.06179e-08 -5.62437e-08 5.94523e-08)
(2.36805e-08 -6.42106e-08 7.1066e-08)
(2.72926e-08 -7.29832e-08 8.44116e-08)
(3.16327e-08 -8.27068e-08 9.95292e-08)
(3.68985e-08 -9.33985e-08 1.16066e-07)
(4.27003e-08 -1.03913e-07 1.31832e-07)
(4.89752e-08 -1.13271e-07 1.44341e-07)
(0 0 0)
(2.41897e-09 -5.69094e-09 4.65941e-09)
(4.60091e-09 -1.09409e-08 9.03964e-09)
(6.61578e-09 -1.6004e-08 1.34191e-08)
(8.52482e-09 -2.10887e-08 1.80365e-08)
(1.03844e-08 -2.63688e-08 2.31056e-08)
(1.22487e-08 -3.19913e-08 2.88256e-08)
(1.4173e-08 -3.80824e-08 3.53868e-08)
(1.62162e-08 -4.47554e-08 4.2974e-08)
(1.84441e-08 -5.21181e-08 5.17664e-08)
(2.09327e-08 -6.02851e-08 6.19341e-08)
(2.37756e-08 -6.93967e-08 7.36318e-08)
(2.70975e-08 -7.96463e-08 8.6987e-08)
(3.10657e-08 -9.12959e-08 1.02051e-07)
(3.58286e-08 -1.04567e-07 1.18587e-07)
(4.07664e-08 -1.18058e-07 1.34304e-07)
(4.88998e-08 -1.36242e-07 1.5176e-07)
(0 0 0)
(0 0 0)
(0 0 0)
(0 0 0)
(0 0 0)
(0 0 0)
(0 0 0)
(0 0 0)
(0 0 0)
(0 0 0)
(0 0 0)
(0 0 0)
(0 0 0)
(0 0 0)
(0 0 0)
(0 0 0)
(6.23699e-09 6.21449e-09 2.96073e-09)
(0 0 0)
(4.07671e-10 -1.04585e-09 7.08212e-10)
(7.80001e-10 -2.001e-09 1.3788e-09)
(1.13324e-09 -2.90349e-09 2.05891e-09)
(1.48224e-09 -3.7812e-09 2.7898e-09)
(1.84134e-09 -4.65118e-09 3.60906e-09)
(2.22549e-09 -5.51784e-09 4.5517e-09)
(2.65177e-09 -6.36988e-09 5.6503e-09)
(3.14188e-09 -7.17477e-09 6.93369e-09)
(3.72615e-09 -7.86985e-09 8.42328e-09)
(4.45147e-09 -8.34846e-09 1.01257e-08)
(5.39771e-09 -8.43924e-09 1.20197e-08)
(6.70954e-09 -7.87722e-09 1.40326e-08)
(8.64218e-09 -6.27402e-09 1.59963e-08)
(1.15415e-08 -3.17454e-09 1.75486e-08)
(1.52509e-08 1.23284e-09 1.8022e-08)
(1.79975e-08 5.96078e-09 1.44323e-08)
(0 0 0)
(8.03888e-10 -2.06054e-09 1.3977e-09)
(1.53762e-09 -3.94364e-09 2.7206e-09)
(2.23273e-09 -5.7254e-09 4.06132e-09)
(2.91781e-09 -7.46228e-09 5.50072e-09)
(3.62038e-09 -9.19029e-09 7.11241e-09)
(4.36869e-09 -1.09222e-08 8.96502e-09)
(5.19423e-09 -1.26425e-08 1.11225e-08)
(6.13493e-09 -1.42982e-08 1.36412e-08)
(7.23969e-09 -1.57857e-08 1.65627e-08)
(8.57571e-09 -1.69319e-08 1.98975e-08)
(1.0241e-08 -1.74768e-08 2.35956e-08)
(1.23802e-08 -1.70758e-08 2.74932e-08)
(1.51772e-08 -1.53888e-08 3.12144e-08)
(1.87057e-08 -1.24208e-08 3.40186e-08)
(2.23164e-08 -9.31452e-09 3.48773e-08)
(2.48716e-08 -9.10913e-09 3.21499e-08)
(0 0 0)
(1.17822e-09 -3.01377e-09 2.0514e-09)
(2.25253e-09 -5.77096e-09 3.99183e-09)
(3.26792e-09 -8.38576e-09 5.95608e-09)
(4.26498e-09 -1.09444e-08 8.06164e-09)
(5.28242e-09 -1.35051e-08 1.04155e-08)
(6.35939e-09 -1.60958e-08 1.31175e-08)
(7.53798e-09 -1.87083e-08 1.62611e-08)
(8.86565e-09 -2.12889e-08 1.99298e-08)
(1.0397e-08 -2.37249e-08 2.41862e-08)
(1.21937e-08 -2.58275e-08 2.90496e-08)
(1.43209e-08 -2.7324e-08 3.44544e-08)
(1.68303e-08 -2.78893e-08 4.01756e-08)
(1.97051e-08 -2.72976e-08 4.57065e-08)
(2.27135e-08 -2.58179e-08 5.01094e-08)
(2.51455e-08 -2.46851e-08 5.21677e-08)
(2.57992e-08 -2.60706e-08 5.01491e-08)
(0 0 0)
(1.52136e-09 -3.87464e-09 2.65373e-09)
(2.90653e-09 -7.42431e-09 5.16168e-09)
(4.21159e-09 -1.08005e-08 7.69607e-09)
(5.48681e-09 -1.41201e-08 1.04068e-08)
(6.77975e-09 -1.74671e-08 1.34301e-08)
(8.13774e-09 -2.08911e-08 1.68937e-08)
(9.61002e-09 -2.44038e-08 2.09175e-08)
(1.12489e-08 -2.79711e-08 2.56104e-08)
(1.31081e-08 -3.15019e-08 3.10583e-08)
(1.52347e-08 -3.48343e-08 3.72978e-08)
(1.76493e-08 -3.77277e-08 4.42682e-08)
(2.03012e-08 -3.9882e-08 5.17229e-08)
(2.2979e-08 -4.10372e-08 5.9082e-08)
(2.51871e-08 -4.12341e-08 6.5237e-08)
(2.62098e-08 -4.11575e-08 6.86323e-08)
(2.50769e-08 -4.24862e-08 6.7242e-08)
(0 0 0)
(1.82582e-09 -4.61274e-09 3.1917e-09)
(3.48505e-09 -8.84531e-09 6.20444e-09)
(5.04209e-09 -1.28845e-08 9.24199e-09)
(6.55433e-09 -1.68776e-08 1.24812e-08)
(8.07561e-09 -2.09358e-08 1.60824e-08)
(9.65882e-09 -2.5136e-08 2.01959e-08)
(1.13578e-08 -2.9519e-08 2.49637e-08)
(1.3228e-08 -3.40861e-08 3.05168e-08)
(1.53232e-08 -3.87921e-08 3.69642e-08)
(1.76844e-08 -4.35355e-08 4.43671e-08)
(2.03158e-08 -4.81468e-08 5.26903e-08)
(2.31302e-08 -5.23737e-08 6.17094e-08)
(2.58501e-08 -5.58658e-08 7.084e-08)
(2.78784e-08 -5.81894e-08 7.88689e-08)
(2.84338e-08 -5.90594e-08 8.38651e-08)
(2.62305e-08 -5.92374e-08 8.33682e-08)
(0 0 0)
(2.08623e-09 -5.19908e-09 3.6555e-09)
(3.97778e-09 -9.97788e-09 7.10082e-09)
(5.74441e-09 -1.45547e-08 1.05644e-08)
(7.44785e-09 -1.91047e-08 1.42437e-08)
(9.14555e-09 -2.3766e-08 1.83169e-08)
(1.08933e-08 -2.86438e-08 2.29502e-08)
(1.27474e-08 -3.38122e-08 2.83012e-08)
(1.47657e-08 -3.93152e-08 3.45166e-08)
(1.70054e-08 -4.51662e-08 4.17235e-08)
(1.95159e-08 -5.13462e-08 5.00072e-08)
(2.23229e-08 -5.77979e-08 5.93687e-08)
(2.53933e-08 -6.44039e-08 6.96378e-08)
(2.85665e-08 -7.09096e-08 8.02968e-08)
(3.14293e-08 -7.67199e-08 9.01407e-08)
(3.32162e-08 -8.06271e-08 9.69277e-08)
(3.2215e-08 -8.05631e-08 9.78563e-08)
(0 0 0)
(2.2995e-09 -5.60743e-09 4.03894e-09)
(4.37907e-09 -1.07711e-08 7.83885e-09)
(6.31072e-09 -1.57348e-08 1.16454e-08)
(8.15767e-09 -2.06967e-08 1.56697e-08)
(9.97811e-09 -2.58182e-08 2.01004e-08)
(1.1828e-08 -3.12298e-08 2.51123e-08)
(1.37633e-08 -3.70362e-08 3.08696e-08)
(1.5842e-08 -4.33207e-08 3.75252e-08)
(1.81243e-08 -5.01506e-08 4.52129e-08)
(2.06712e-08 -5.75841e-08 5.40302e-08)
(2.35417e-08 -6.56802e-08 6.4003e-08)
(2.6787e-08 -7.4505e-08 7.50134e-08)
(3.04371e-08 -8.41049e-08 8.66371e-08)
(3.44287e-08 -9.43159e-08 9.77753e-08)
(3.82236e-08 -1.03875e-07 1.06029e-07)
(4.14226e-08 -1.11509e-07 1.08107e-07)
(0 0 0)
(2.46497e-09 -5.81594e-09 4.33977e-09)
(4.68818e-09 -1.11825e-08 8.41476e-09)
(6.74083e-09 -1.63608e-08 1.24801e-08)
(8.68474e-09 -2.15649e-08 1.67532e-08)
(1.0576e-08 -2.6973e-08 2.1426e-08)
(1.24677e-08 -3.27342e-08 2.66739e-08)
(1.44122e-08 -3.89751e-08 3.2658e-08)
(1.6463e-08 -4.58056e-08 3.95253e-08)
(1.86766e-08 -5.33251e-08 4.74006e-08)
(2.11128e-08 -6.16309e-08 5.63714e-08)
(2.38362e-08 -7.08294e-08 6.64562e-08)
(2.6915e-08 -8.10476e-08 7.75421e-08)
(3.0406e-08 -9.24179e-08 8.9246e-08)
(3.42573e-08 -1.04932e-07 1.0062e-07)
(3.77569e-08 -1.17073e-07 1.093e-07)
(4.28266e-08 -1.32665e-07 1.11863e-07)
(0 0 0)
(0 0 0)
(0 0 0)
(0 0 0)
(0 0 0)
(0 0 0)
(0 0 0)
(0 0 0)
(0 0 0)
(0 0 0)
(0 0 0)
(0 0 0)
(0 0 0)
(0 0 0)
(0 0 0)
(0 0 0)
(3.8002e-09 3.15522e-09 1.66145e-09)
(0 0 0)
(4.1234e-10 -1.0656e-09 6.3041e-10)
(7.8842e-10 -2.03919e-09 1.22658e-09)
(1.14408e-09 -2.95995e-09 1.82974e-09)
(1.49345e-09 -3.85686e-09 2.47553e-09)
(1.84964e-09 -4.74821e-09 3.19578e-09)
(2.22539e-09 -5.64019e-09 4.01902e-09)
(2.63402e-09 -6.52449e-09 4.96987e-09)
(3.09056e-09 -7.37433e-09 6.06672e-09)
(3.61349e-09 -8.13865e-09 7.31618e-09)
(4.22804e-09 -8.73463e-09 8.70256e-09)
(4.97334e-09 -9.04017e-09 1.01692e-08)
(5.91523e-09 -8.88976e-09 1.15869e-08)
(7.159e-09 -8.08164e-09 1.27038e-08)
(8.8128e-09 -6.42954e-09 1.30949e-08)
(1.06714e-08 -4.07857e-09 1.23305e-08)
(1.15264e-08 -7.15224e-10 9.362e-09)
(0 0 0)
(8.13251e-10 -2.09933e-09 1.24421e-09)
(1.55457e-09 -4.01861e-09 2.42039e-09)
(2.25473e-09 -5.83615e-09 3.60948e-09)
(2.94103e-09 -7.61048e-09 4.88144e-09)
(3.63867e-09 -9.37986e-09 6.29862e-09)
(4.3719e-09 -1.11601e-08 7.91703e-09)
(5.16531e-09 -1.29407e-08 9.78528e-09)
(6.04484e-09 -1.46781e-08 1.19399e-08)
(7.03848e-09 -1.62871e-08 1.43948e-08)
(8.17668e-09 -1.76314e-08 1.7121e-08)
(9.49219e-09 -1.8523e-08 2.00109e-08)
(1.10153e-08 -1.87487e-08 2.28203e-08)
(1.27449e-08 -1.81702e-08 2.50857e-08)
(1.45455e-08 -1.69559e-08 2.60816e-08)
(1.59384e-08 -1.5863e-08 2.52464e-08)
(1.64506e-08 -1.63225e-08 2.28393e-08)
(0 0 0)
(1.19234e-09 -3.07025e-09 1.82627e-09)
(2.27822e-09 -5.88008e-09 3.55166e-09)
(3.3017e-09 -8.54677e-09 5.294e-09)
(4.30163e-09 -1.11594e-08 7.155e-09)
(5.31373e-09 -1.37791e-08 9.22534e-09)
(6.37191e-09 -1.64373e-08 1.15868e-08)
(7.50931e-09 -1.91312e-08 1.4311e-08)
(8.75808e-09 -2.18173e-08 1.74533e-08)
(1.01468e-08 -2.44014e-08 2.10382e-08)
(1.16929e-08 -2.67316e-08 2.5033e-08)
(1.33873e-08 -2.86041e-08 2.93011e-08)
(1.5161e-08 -2.98121e-08 3.35312e-08)
(1.68232e-08 -3.02907e-08 3.71501e-08)
(1.79884e-08 -3.03874e-08 3.93147e-08)
(1.82073e-08 -3.09147e-08 3.94097e-08)
(1.7109e-08 -3.28327e-08 3.78459e-08)
(0 0 0)
(1.54028e-09 -3.94689e-09 2.36277e-09)
(2.94118e-09 -7.56379e-09 4.59309e-09)
(4.2578e-09 -1.1006e-08 6.84158e-09)
(5.53854e-09 -1.43939e-08 9.23805e-09)
(6.82766e-09 -1.78143e-08 1.18982e-08)
(8.16672e-09 -2.13203e-08 1.49269e-08)
(9.59515e-09 -2.49281e-08 1.84167e-08)
(1.11488e-08 -2.86107e-08 2.24416e-08)
(1.28539e-08 -3.22908e-08 2.70406e-08)
(1.47123e-08 -3.58321e-08 3.21874e-08)
(1.66712e-08 -3.90423e-08 3.77391e-08)
(1.85658e-08 -4.17024e-08 4.33575e-08)
(2.00298e-08 -4.36608e-08 4.8414e-08)
(2.04487e-08 -4.50106e-08 5.19706e-08)
(1.93809e-08 -4.61435e-08 5.32218e-08)
(1.66781e-08 -4.78561e-08 5.24972e-08)
(0 0 0)
(1.84951e-09 -4.6983e-09 2.84217e-09)
(3.52873e-09 -9.01037e-09 5.52186e-09)
(5.1012e-09 -1.31274e-08 8.21736e-09)
(6.62255e-09 -1.72003e-08 1.10819e-08)
(8.1434e-09 -2.13432e-08 1.42519e-08)
(9.71096e-09 -2.56355e-08 1.78511e-08)
(1.13696e-08 -3.01203e-08 2.19898e-08)
(1.31588e-08 -3.48016e-08 2.67586e-08)
(1.51064e-08 -3.96389e-08 3.2212e-08)
(1.72116e-08 -4.45394e-08 3.83373e-08)
(1.94115e-08 -4.93499e-08 4.50016e-08)
(2.15159e-08 -5.38462e-08 5.18679e-08)
(2.31066e-08 -5.77164e-08 5.82843e-08)
(2.34747e-08 -6.05468e-08 6.32248e-08)
(2.20763e-08 -6.19304e-08 6.56416e-08)
(1.83774e-08 -6.20503e-08 6.57199e-08)
(0 0 0)
(2.11452e-09 -5.29503e-09 3.25573e-09)
(4.0303e-09 -1.01629e-08 6.3208e-09)
(5.81648e-09 -1.48267e-08 9.39516e-09)
(7.53331e-09 -1.94652e-08 1.265e-08)
(9.23539e-09 -2.42193e-08 1.62372e-08)
(1.09735e-08 -2.91954e-08 2.02939e-08)
(1.27954e-08 -3.44675e-08 2.49432e-08)
(1.47451e-08 -4.00773e-08 3.02875e-08)
(1.68571e-08 -4.6033e-08 3.63935e-08)
(1.91451e-08 -5.23054e-08 4.32624e-08)
(2.15772e-08 -5.88196e-08 5.07774e-08)
(2.40306e-08 -6.54252e-08 5.86158e-08)
(2.62178e-08 -7.18119e-08 6.61201e-08)
(2.76156e-08 -7.73096e-08 7.2183e-08)
(2.76552e-08 -8.06955e-08 7.55097e-08)
(2.52305e-08 -7.96609e-08 7.62431e-08)
(0 0 0)
(2.33209e-09 -5.71047e-09 3.59792e-09)
(4.43994e-09 -1.09697e-08 6.97918e-09)
(6.39525e-09 -1.60265e-08 1.0359e-08)
(8.26018e-09 -2.10829e-08 1.39203e-08)
(1.00906e-08 -2.63023e-08 1.78245e-08)
(1.19384e-08 -3.18156e-08 2.22161e-08)
(1.38526e-08 -3.7725e-08 2.72237e-08)
(1.58798e-08 -4.41074e-08 3.29543e-08)
(1.80619e-08 -5.10166e-08 3.94791e-08)
(2.04311e-08 -5.84863e-08 4.68058e-08)
(2.29997e-08 -6.65306e-08 5.48271e-08)
(2.57437e-08 -7.5134e-08 6.32327e-08)
(2.8581e-08 -8.42015e-08 7.13624e-08)
(3.13375e-08 -9.33714e-08 7.80213e-08)
(3.36262e-08 -1.01364e-07 8.16261e-08)
(3.5685e-08 -1.06591e-07 8.2043e-08)
(0 0 0)
(2.50141e-09 -5.92246e-09 3.86666e-09)
(4.75658e-09 -1.13878e-08 7.49354e-09)
(6.83675e-09 -1.66624e-08 1.11042e-08)
(8.80312e-09 -2.1964e-08 1.48875e-08)
(1.07102e-08 -2.74724e-08 1.90076e-08)
(1.26079e-08 -3.33363e-08 2.361e-08)
(1.45432e-08 -3.96786e-08 2.88212e-08)
(1.6561e-08 -4.65999e-08 3.47441e-08)
(1.87039e-08 -5.41819e-08 4.14437e-08)
(2.10098e-08 -6.249e-08 4.89213e-08)
(2.35079e-08 -7.1575e-08 5.70664e-08)
(2.6208e-08 -8.14671e-08 6.55735e-08)
(2.90792e-08 -9.21424e-08 7.38043e-08)
(3.19779e-08 -1.03388e-07 8.06178e-08)
(3.43342e-08 -1.13756e-07 8.43687e-08)
(3.78401e-08 -1.26237e-07 8.28792e-08)
(0 0 0)
(0 0 0)
(0 0 0)
(0 0 0)
(0 0 0)
(0 0 0)
(0 0 0)
(0 0 0)
(0 0 0)
(0 0 0)
(0 0 0)
(0 0 0)
(0 0 0)
(0 0 0)
(0 0 0)
(0 0 0)
(2.58448e-09 1.77755e-09 1.51983e-09)
(0 0 0)
(4.15384e-10 -1.08195e-09 5.30972e-10)
(7.93647e-10 -2.07081e-09 1.03254e-09)
(1.15008e-09 -3.00671e-09 1.53883e-09)
(1.49794e-09 -3.91952e-09 2.079e-09)
(1.84889e-09 -4.82859e-09 2.67848e-09)
(2.21334e-09 -5.74162e-09 3.35911e-09)
(2.60075e-09 -6.65291e-09 4.13813e-09)
(3.0198e-09 -7.54047e-09 5.02545e-09)
(3.47841e-09 -8.36223e-09 6.01791e-09)
(3.98434e-09 -9.05218e-09 7.08946e-09)
(4.54789e-09 -9.51816e-09 8.17576e-09)
(5.18896e-09 -9.64321e-09 9.1533e-09)
(5.94732e-09 -9.28833e-09 9.82133e-09)
(6.87488e-09 -8.29616e-09 9.92481e-09)
(7.88276e-09 -6.64037e-09 9.35689e-09)
(8.34484e-09 -3.51736e-09 7.78658e-09)
(0 0 0)
(8.19455e-10 -2.13145e-09 1.04801e-09)
(1.56532e-09 -4.08067e-09 2.03763e-09)
(2.26731e-09 -5.92778e-09 3.03584e-09)
(2.95112e-09 -7.73296e-09 4.09989e-09)
(3.63928e-09 -9.53632e-09 5.27962e-09)
(4.35177e-09 -1.13563e-08 6.61803e-09)
(5.10616e-09 -1.31864e-08 8.14934e-09)
(5.91699e-09 -1.49909e-08 9.89373e-09)
(6.79388e-09 -1.66984e-08 1.18466e-08)
(7.73814e-09 -1.81978e-08 1.39601e-08)
(8.73832e-09 -1.93428e-08 1.61153e-08)
(9.76358e-09 -1.99791e-08 1.80855e-08)
(1.0752e-08 -2.00144e-08 1.95112e-08)
(1.15884e-08 -1.95445e-08 1.99622e-08)
(1.20926e-08 -1.8969e-08 1.93349e-08)
(1.24468e-08 -1.91221e-08 1.83594e-08)
(0 0 0)
(1.2019e-09 -3.11698e-09 1.53844e-09)
(2.29496e-09 -5.97028e-09 2.9903e-09)
(3.32184e-09 -8.67965e-09 4.45316e-09)
(4.31925e-09 -1.13363e-08 6.01023e-09)
(5.31943e-09 -1.40038e-08 7.73414e-09)
(6.35067e-09 -1.67162e-08 9.68782e-09)
(7.43704e-09 -1.94752e-08 1.19222e-08)
(8.59627e-09 -2.22444e-08 1.44688e-08)
(9.83435e-09 -2.49431e-08 1.7326e-08)
(1.1135e-08 -2.74426e-08 2.04346e-08)
(1.24417e-08 -2.95757e-08 2.36429e-08)
(1.36297e-08 -3.11799e-08 2.66662e-08)
(1.4476e-08 -3.22067e-08 2.90704e-08)
(1.46834e-08 -3.28915e-08 3.03772e-08)
(1.41613e-08 -3.37191e-08 3.04929e-08)
(1.32432e-08 -3.53045e-08 3.02408e-08)
(0 0 0)
(1.55339e-09 -4.00656e-09 1.99063e-09)
(2.96442e-09 -7.67882e-09 3.86765e-09)
(4.28663e-09 -1.11751e-08 5.7558e-09)
(5.56602e-09 -1.46181e-08 7.76137e-09)
(6.84298e-09 -1.80969e-08 9.97717e-09)
(8.15282e-09 -2.1667e-08 1.24841e-08)
(9.52506e-09 -2.53472e-08 1.53485e-08)
(1.09801e-08 -2.91152e-08 1.86141e-08)
(1.25208e-08 -3.2901e-08 2.22862e-08)
(1.41157e-08 -3.65817e-08 2.63039e-08)
(1.56687e-08 -3.99837e-08 3.05026e-08)
(1.69717e-08 -4.29074e-08 3.45707e-08)
(1.76523e-08 -4.51937e-08 3.80382e-08)
(1.72221e-08 -4.68407e-08 4.03865e-08)
(1.56004e-08 -4.80358e-08 4.14208e-08)
(1.33078e-08 -4.93964e-08 4.19111e-08)
(0 0 0)
(1.86631e-09 -4.7688e-09 2.39488e-09)
(3.55888e-09 -9.14609e-09 4.65049e-09)
(5.13972e-09 -1.33264e-08 6.91449e-09)
(6.66208e-09 -1.7463e-08 9.31247e-09)
(8.17271e-09 -2.1672e-08 1.1954e-08)
(9.71262e-09 -2.60338e-08 1.49348e-08)
(1.13164e-08 -3.05918e-08 1.83345e-08)
(1.30088e-08 -3.53497e-08 2.22081e-08)
(1.47957e-08 -4.02657e-08 2.65689e-08)
(1.66466e-08 -4.52447e-08 3.13606e-08)
(1.84619e-08 -5.01282e-08 3.64159e-08)
(2.00192e-08 -5.46776e-08 4.14105e-08)
(2.09086e-08 -5.85456e-08 4.58454e-08)
(2.05538e-08 -6.12487e-08 4.91437e-08)
(1.87433e-08 -6.23256e-08 5.09798e-08)
(1.55828e-08 -6.19516e-08 5.20904e-08)
(0 0 0)
(2.13504e-09 -5.37388e-09 2.74383e-09)
(4.06757e-09 -1.03145e-08 5.32433e-09)
(5.86536e-09 -1.50485e-08 7.9072e-09)
(7.58654e-09 -1.97571e-08 1.06329e-08)
(9.28215e-09 -2.45821e-08 1.36234e-08)
(1.09973e-08 -2.96298e-08 1.69855e-08)
(1.27709e-08 -3.49716e-08 2.08079e-08)
(1.46339e-08 -4.06434e-08 2.51537e-08)
(1.66019e-08 -4.66429e-08 3.00429e-08)
(1.86633e-08 -5.29225e-08 3.54234e-08)
(2.07567e-08 -5.93752e-08 4.11272e-08)
(2.2734e-08 -6.57987e-08 4.6817e-08)
(2.43197e-08 -7.18062e-08 5.19507e-08)
(2.51095e-08 -7.66536e-08 5.5855e-08)
(2.48257e-08 -7.91988e-08 5.80709e-08)
(2.2953e-08 -7.74164e-08 5.94549e-08)
(0 0 0)
(2.35622e-09 -5.79491e-09 3.03277e-09)
(4.48422e-09 -1.1132e-08 5.88009e-09)
(6.45465e-09 -1.62636e-08 8.72033e-09)
(8.32785e-09 -2.13938e-08 1.17038e-08)
(1.01568e-08 -2.66868e-08 1.49605e-08)
(1.19883e-08 -3.22717e-08 1.86029e-08)
(1.38642e-08 -3.82457e-08 2.27241e-08)
(1.582e-08 -4.46756e-08 2.73902e-08)
(1.78822e-08 -5.1597e-08 3.26229e-08)
(2.00627e-08 -5.90125e-08 3.83703e-08)
(2.23496e-08 -6.68842e-08 4.44604e-08)
(2.46984e-08 -7.51148e-08 5.05382e-08)
(2.7033e-08 -8.34942e-08 5.60034e-08)
(2.92698e-08 -9.15574e-08 6.00301e-08)
(3.12618e-08 -9.81741e-08 6.19465e-08)
(3.37857e-08 -1.0213e-07 6.26635e-08)
(0 0 0)
(2.52888e-09 -6.00955e-09 3.2599e-09)
(4.80745e-09 -1.15552e-08 6.31472e-09)
(6.9062e-09 -1.69066e-08 9.34993e-09)
(8.88499e-09 -2.22837e-08 1.25207e-08)
(1.0796e-08 -2.78664e-08 1.59599e-08)
(1.26852e-08 -3.38009e-08 1.97806e-08)
(1.45937e-08 -4.02034e-08 2.4075e-08)
(1.65577e-08 -4.71618e-08 2.8906e-08)
(1.86076e-08 -5.47357e-08 3.4291e-08)
(2.07658e-08 -6.29537e-08 4.01732e-08)
(2.30424e-08 -7.18079e-08 4.63754e-08)
(2.54295e-08 -8.12411e-08 5.25355e-08)
(2.78951e-08 -9.11153e-08 5.80349e-08)
(3.03532e-08 -1.0113e-07 6.19985e-08)
(3.24167e-08 -1.10053e-07 6.36287e-08)
(3.60833e-08 -1.20987e-07 6.21947e-08)
(0 0 0)
(0 0 0)
(0 0 0)
(0 0 0)
(0 0 0)
(0 0 0)
(0 0 0)
(0 0 0)
(0 0 0)
(0 0 0)
(0 0 0)
(0 0 0)
(0 0 0)
(0 0 0)
(0 0 0)
(0 0 0)
(2.08677e-09 1.27128e-09 1.36872e-09)
(0 0 0)
(4.17154e-10 -1.09471e-09 4.13831e-10)
(7.9644e-10 -2.09547e-09 8.04368e-10)
(1.15261e-09 -3.04316e-09 1.1978e-09)
(1.49808e-09 -3.96835e-09 1.6163e-09)
(1.84311e-09 -4.8911e-09 2.07871e-09)
(2.19602e-09 -5.8202e-09 2.60056e-09)
(2.56311e-09 -6.75178e-09 3.19305e-09)
(2.94817e-09 -7.66693e-09 3.8605e-09)
(3.3519e-09 -8.52882e-09 4.59581e-09)
(3.7719e-09 -9.27978e-09 5.37336e-09)
(4.20557e-09 -9.83945e-09 6.13992e-09)
(4.65935e-09 -1.0103e-08 6.80651e-09)
(5.16828e-09 -9.93204e-09 7.25319e-09)
(5.81224e-09 -9.13338e-09 7.37163e-09)
(6.60008e-09 -7.59194e-09 7.17674e-09)
(7.09725e-09 -4.39205e-09 6.38373e-09)
(0 0 0)
(8.23169e-10 -2.15652e-09 8.16851e-10)
(1.57133e-09 -4.12909e-09 1.58746e-09)
(2.27312e-09 -5.99921e-09 2.36325e-09)
(2.95261e-09 -7.82826e-09 3.18769e-09)
(3.62985e-09 -9.65764e-09 4.09779e-09)
(4.32099e-09 -1.15075e-08 5.1242e-09)
(5.03781e-09 -1.33744e-08 6.28925e-09)
(5.78618e-09 -1.5227e-08 7.60214e-09)
(6.5633e-09 -1.70016e-08 9.05041e-09)
(7.3543e-09 -1.85988e-08 1.05869e-08)
(8.12983e-09 -1.98865e-08 1.2113e-08)
(8.84858e-09 -2.07179e-08 1.34653e-08)
(9.47071e-09 -2.09751e-08 1.44251e-08)
(9.98286e-09 -2.06498e-08 1.4795e-08)
(1.0391e-08 -1.99864e-08 1.46131e-08)
(1.10232e-08 -1.97014e-08 1.4323e-08)
(0 0 0)
(1.20783e-09 -3.15346e-09 1.1992e-09)
(2.30479e-09 -6.04063e-09 2.32989e-09)
(3.33204e-09 -8.78308e-09 3.46695e-09)
(4.32415e-09 -1.14736e-08 4.67357e-09)
(5.31009e-09 -1.41772e-08 6.00376e-09)
(6.31317e-09 -1.69298e-08 7.50251e-09)
(7.34996e-09 -1.97355e-08 9.20325e-09)
(8.42732e-09 -2.25621e-08 1.11214e-08)
(9.53645e-09 -2.5335e-08 1.3243e-08)
(1.06434e-08 -2.79341e-08 1.55078e-08)
(1.16761e-08 -3.01999e-08 1.77891e-08)
(1.25122e-08 -3.19657e-08 1.9881e-08)
(1.29835e-08 -3.31372e-08 2.15205e-08)
(1.29479e-08 -3.38303e-08 2.24958e-08)
(1.25155e-08 -3.44102e-08 2.28595e-08)
(1.21204e-08 -3.54994e-08 2.30631e-08)
(0 0 0)
(1.56182e-09 -4.05309e-09 1.55187e-09)
(2.97871e-09 -7.7684e-09 3.01387e-09)
(4.3025e-09 -1.13063e-08 4.48174e-09)
(5.57679e-09 -1.47912e-08 6.03624e-09)
(6.83829e-09 -1.83136e-08 7.74645e-09)
(8.1168e-09 -2.19299e-08 9.67038e-09)
(9.43365e-09 -2.56601e-08 1.1852e-08)
(1.07977e-08 -2.9483e-08 1.43138e-08)
(1.2197e-08 -3.33299e-08 1.70437e-08)
(1.35841e-08 -3.70784e-08 1.9976e-08)
(1.48536e-08 -4.05511e-08 2.29697e-08)
(1.58132e-08 -4.35302e-08 2.57967e-08)
(1.61701e-08 -4.58064e-08 2.81716e-08)
(1.56181e-08 -4.72859e-08 2.98666e-08)
(1.42617e-08 -4.81162e-08 3.0873e-08)
(1.26635e-08 -4.89866e-08 3.1588e-08)
(0 0 0)
(1.87745e-09 -4.82368e-09 1.8673e-09)
(3.57819e-09 -9.25155e-09 3.62445e-09)
(5.16249e-09 -1.34804e-08 5.38485e-09)
(6.68115e-09 -1.76649e-08 7.24396e-09)
(8.17725e-09 -2.19223e-08 9.28348e-09)
(9.68624e-09 -2.63326e-08 1.15722e-08)
(1.12347e-08 -3.0938e-08 1.41632e-08)
(1.28364e-08 -3.57392e-08 1.70856e-08)
(1.4484e-08 -4.06886e-08 2.03307e-08)
(1.6134e-08 -4.56809e-08 2.38313e-08)
(1.76832e-08 -5.05386e-08 2.74376e-08)
(1.89343e-08 -5.49908e-08 3.0904e-08)
(1.95677e-08 -5.86405e-08 3.3919e-08)
(1.91939e-08 -6.09559e-08 3.62192e-08)