/*--------------------------------*- C++ -*----------------------------------*\
| =========                 |                                                 |
| \\      /  F ield         | OpenFOAM: The Open Source CFD Toolbox           |
|  \\    /   O peration     | Version:  v1912                                 |
|   \\  /    A nd           | Website:  www.openfoam.com                      |
|    \\/     M anipulation  |                                                 |
\*---------------------------------------------------------------------------*/
FoamFile
{
    version     2.0;
    format      ascii;
    class       volVectorField;
    location    "0.26/fluid";
    object      cellMotionU;
}
// * * * * * * * * * * * * * * * * * * * * * * * * * * * * * * * * * * * * * //

dimensions      [0 1 -1 0 0 0 0];


internalField   nonuniform List<vector> 
14592
(
(2.01141e-10 -5.74143e-10 4.30061e-10)
(5.58877e-10 -1.6067e-09 1.21613e-09)
(8.83739e-10 -2.56951e-09 1.98769e-09)
(1.18276e-09 -3.498e-09 2.79113e-09)
(1.46534e-09 -4.42343e-09 3.67784e-09)
(1.73783e-09 -5.35164e-09 4.68347e-09)
(2.00769e-09 -6.28047e-09 5.8467e-09)
(2.2842e-09 -7.18828e-09 7.20255e-09)
(2.58183e-09 -8.0302e-09 8.78722e-09)
(2.93043e-09 -8.70787e-09 1.06311e-08)
(3.40174e-09 -9.04009e-09 1.27742e-08)
(4.16905e-09 -8.65933e-09 1.52887e-08)
(5.70187e-09 -6.70797e-09 1.83965e-08)
(9.24049e-09 -9.42625e-10 2.28192e-08)
(1.7886e-08 1.45644e-08 3.06815e-08)
(3.50164e-08 4.74706e-08 4.39118e-08)
(5.99948e-10 -1.70608e-09 1.27922e-09)
(1.66839e-09 -4.77525e-09 3.61922e-09)
(2.63574e-09 -7.63798e-09 5.91018e-09)
(3.53014e-09 -1.04098e-08 8.30712e-09)
(4.37364e-09 -1.31584e-08 1.0935e-08)
(5.18828e-09 -1.59233e-08 1.39158e-08)
(5.99607e-09 -1.8701e-08 1.73605e-08)
(6.82284e-09 -2.14423e-08 2.13762e-08)
(7.70672e-09 -2.40176e-08 2.60563e-08)
(8.72021e-09 -2.61823e-08 3.14854e-08)
(1.00253e-08 -2.74923e-08 3.77369e-08)
(1.19776e-08 -2.71586e-08 4.4882e-08)
(1.54444e-08 -2.37397e-08 5.30704e-08)
(2.22088e-08 -1.47415e-08 6.27406e-08)
(3.53832e-08 3.23832e-09 7.47651e-08)
(5.51048e-08 2.78652e-08 8.80122e-08)
(9.90484e-10 -2.78794e-09 2.09804e-09)
(2.75435e-09 -7.8047e-09 5.93396e-09)
(4.35307e-09 -1.24959e-08 9.69363e-09)
(5.83161e-09 -1.70335e-08 1.36137e-08)
(7.22997e-09 -2.15492e-08 1.79112e-08)
(8.58483e-09 -2.61126e-08 2.27804e-08)
(9.93349e-09 -3.07394e-08 2.84065e-08)
(1.13172e-08 -3.53705e-08 3.49604e-08)
(1.27905e-08 -3.98483e-08 4.25996e-08)
(1.44445e-08 -4.38601e-08 5.14546e-08)
(1.64476e-08 -4.68738e-08 6.16095e-08)
(1.91422e-08 -4.80382e-08 7.30742e-08)
(2.33374e-08 -4.60462e-08 8.57869e-08)
(3.05262e-08 -3.94089e-08 9.97249e-08)
(4.32342e-08 -2.75882e-08 1.1507e-07)
(6.13945e-08 -1.52435e-08 1.30533e-07)
(1.36734e-09 -3.78334e-09 2.86653e-09)
(3.80143e-09 -1.05983e-08 8.10606e-09)
(6.00998e-09 -1.69773e-08 1.32372e-08)
(8.05614e-09 -2.31677e-08 1.85838e-08)
(9.99612e-09 -2.93456e-08 2.44302e-08)
(1.18845e-08 -3.56321e-08 3.10467e-08)
(1.37755e-08 -4.20763e-08 3.86848e-08)
(1.57288e-08 -4.86471e-08 4.75833e-08)
(1.78138e-08 -5.52023e-08 5.79592e-08)
(2.01289e-08 -6.14524e-08 6.99985e-08)
(2.27859e-08 -6.69116e-08 8.38027e-08)
(2.60612e-08 -7.07817e-08 9.93516e-08)
(3.03775e-08 -7.19755e-08 1.16371e-07)
(3.65836e-08 -6.93178e-08 1.34348e-07)
(4.62351e-08 -6.24221e-08 1.52472e-07)
(5.95765e-08 -5.41348e-08 1.68299e-07)
(1.72372e-09 -4.65883e-09 3.567e-09)
(4.79395e-09 -1.30562e-08 1.00868e-08)
(7.58127e-09 -2.09318e-08 1.64642e-08)
(1.01666e-08 -2.85907e-08 2.3091e-08)
(1.26258e-08 -3.62744e-08 3.03244e-08)
(1.50309e-08 -4.41532e-08 3.84932e-08)
(1.74576e-08 -5.23281e-08 4.79115e-08)
(1.99881e-08 -6.08179e-08 5.88771e-08)
(2.27193e-08 -6.95489e-08 7.16753e-08)
(2.57594e-08 -7.83239e-08 8.65574e-08)
(2.92372e-08 -8.67743e-08 1.03701e-07)
(3.32989e-08 -9.42638e-08 1.23113e-07)
(3.81233e-08 -9.97876e-08 1.44519e-07)
(4.38902e-08 -1.01878e-07 1.67105e-07)
(5.11554e-08 -9.87807e-08 1.89166e-07)
(6.03625e-08 -9.09659e-08 2.06589e-07)
(2.05475e-09 -5.38165e-09 4.18775e-09)
(5.71441e-09 -1.50868e-08 1.18363e-08)
(9.0379e-09 -2.42034e-08 1.93026e-08)
(1.21246e-08 -3.31019e-08 2.70435e-08)
(1.50658e-08 -4.20735e-08 3.54631e-08)
(1.79542e-08 -5.13471e-08 4.49443e-08)
(2.08879e-08 -6.10804e-08 5.58496e-08)
(2.39802e-08 -7.13644e-08 6.85305e-08)
(2.73671e-08 -8.22191e-08 8.33332e-08)
(3.12091e-08 -9.3589e-08 1.00588e-07)
(3.57048e-08 -1.05307e-07 1.20586e-07)
(4.1084e-08 -1.17022e-07 1.43516e-07)
(4.75699e-08 -1.27999e-07 1.69359e-07)
(5.51988e-08 -1.36641e-07 1.97563e-07)
(6.37294e-08 -1.39461e-07 2.26197e-07)
(7.18751e-08 -1.32261e-07 2.48856e-07)
(2.35346e-09 -5.91968e-09 4.71558e-09)
(6.54573e-09 -1.66014e-08 1.33226e-08)
(1.03528e-08 -2.66561e-08 2.17056e-08)
(1.38876e-08 -3.65022e-08 3.03627e-08)
(1.72584e-08 -4.64841e-08 3.97426e-08)
(2.05741e-08 -5.68795e-08 5.02605e-08)
(2.39552e-08 -6.79037e-08 6.23124e-08)
(2.75448e-08 -7.97187e-08 7.6285e-08)
(3.1527e-08 -9.2448e-08 9.25708e-08)
(3.61391e-08 -1.06193e-07 1.11569e-07)
(4.17176e-08 -1.2104e-07 1.33694e-07)
(4.87529e-08 -1.37064e-07 1.59377e-07)
(5.79866e-08 -1.54294e-07 1.89108e-07)
(7.04119e-08 -1.72428e-07 2.23304e-07)
(8.70865e-08 -1.89656e-07 2.61493e-07)
(1.05262e-07 -1.99695e-07 2.96294e-07)
(2.61523e-09 -6.24719e-09 5.14562e-09)
(7.27279e-09 -1.75284e-08 1.45285e-08)
(1.14993e-08 -2.81701e-08 2.36409e-08)
(1.54198e-08 -3.86305e-08 3.30128e-08)
(1.91514e-08 -4.929e-08 4.31115e-08)
(2.28157e-08 -6.04654e-08 5.43712e-08)
(2.65479e-08 -7.24173e-08 6.72002e-08)
(3.05132e-08 -8.53657e-08 8.19963e-08)
(3.49285e-08 -9.95144e-08 9.91655e-08)
(4.009e-08 -1.1508e-07 1.19129e-07)
(4.64436e-08 -1.32342e-07 1.42354e-07)
(5.47152e-08 -1.51731e-07 1.69421e-07)
(6.61768e-08 -1.74032e-07 2.01203e-07)
(8.31798e-08 -2.00788e-07 2.39157e-07)
(1.10151e-07 -2.3473e-07 2.85594e-07)
(1.47899e-07 -2.74252e-07 3.36429e-07)
(1.95183e-10 -5.85721e-10 4.09035e-10)
(5.41816e-10 -1.6394e-09 1.15719e-09)
(8.52852e-10 -2.62223e-09 1.88823e-09)
(1.13561e-09 -3.57238e-09 2.65114e-09)
(1.3947e-09 -4.51737e-09 3.4868e-09)
(1.63373e-09 -5.46932e-09 4.43259e-09)
(1.85456e-09 -6.42659e-09 5.52165e-09)
(2.05734e-09 -7.37301e-09 6.78502e-09)
(2.24142e-09 -8.2684e-09 8.24878e-09)
(2.40885e-09 -9.03383e-09 9.93071e-09)
(2.57183e-09 -9.52959e-09 1.18404e-08)
(2.79609e-09 -9.48471e-09 1.39787e-08)
(3.21538e-09 -8.35548e-09 1.63414e-08)
(4.13266e-09 -4.90743e-09 1.89794e-08)
(5.76691e-09 3.33223e-09 2.19044e-08)
(6.86273e-09 1.73115e-08 2.37961e-08)
(5.82858e-10 -1.74002e-09 1.21713e-09)
(1.61739e-09 -4.87004e-09 3.44023e-09)
(2.54706e-09 -7.79223e-09 5.61599e-09)
(3.39209e-09 -1.06197e-08 7.88262e-09)
(4.16827e-09 -1.34302e-08 1.03627e-08)
(4.88686e-09 -1.62647e-08 1.31661e-08)
(5.55403e-09 -1.91265e-08 1.63926e-08)
(6.17045e-09 -2.19739e-08 2.01322e-08)
(6.73244e-09 -2.46994e-08 2.44574e-08)
(7.2377e-09 -2.7101e-08 2.94161e-08)
(7.70929e-09 -2.88295e-08 3.5006e-08)
(8.24478e-09 -2.93095e-08 4.11398e-08)
(9.11487e-09 -2.76194e-08 4.75689e-08)
(1.07617e-08 -2.24964e-08 5.3719e-08)
(1.33603e-08 -1.32044e-08 5.81948e-08)
(1.50494e-08 -3.55926e-09 5.8325e-08)
(9.6336e-10 -2.84212e-09 1.99537e-09)
(2.67391e-09 -7.95726e-09 5.63992e-09)
(4.21266e-09 -1.27397e-08 9.20626e-09)
(5.61465e-09 -1.73723e-08 1.29174e-08)
(6.90828e-09 -2.1987e-08 1.69735e-08)
(8.11469e-09 -2.66615e-08 2.15537e-08)
(9.24738e-09 -3.14174e-08 2.68227e-08)
(1.03108e-08 -3.62094e-08 3.29286e-08)
(1.12989e-08 -4.09041e-08 3.99945e-08)
(1.21947e-08 -4.52441e-08 4.80951e-08)
(1.29862e-08 -4.88091e-08 5.72211e-08)
(1.37184e-08 -5.09735e-08 6.72032e-08)
(1.45119e-08 -5.09565e-08 7.75421e-08)
(1.56228e-08 -4.82375e-08 8.72569e-08)
(1.70713e-08 -4.38484e-08 9.44743e-08)
(1.74929e-08 -4.20582e-08 9.66372e-08)
(1.33173e-09 -3.85623e-09 2.72511e-09)
(3.69803e-09 -1.08013e-08 7.70469e-09)
(5.82916e-09 -1.73043e-08 1.25716e-08)
(7.77739e-09 -2.36178e-08 1.76312e-08)
(9.58524e-09 -2.9928e-08 2.315e-08)
(1.12876e-08 -3.63588e-08 2.93734e-08)
(1.29109e-08 -4.29666e-08 3.65278e-08)
(1.44705e-08 -4.97311e-08 4.48191e-08)
(1.59653e-08 -5.65347e-08 5.44218e-08)
(1.73657e-08 -6.31383e-08 6.54524e-08)
(1.86235e-08 -6.91419e-08 7.79288e-08)
(1.96146e-08 -7.397e-08 9.1597e-08)
(2.01769e-08 -7.69423e-08 1.05847e-07)
(1.99842e-08 -7.76895e-08 1.19301e-07)
(1.84842e-08 -7.71059e-08 1.29452e-07)
(1.51045e-08 -7.79024e-08 1.32952e-07)
(1.68299e-09 -4.74763e-09 3.39221e-09)
(4.67426e-09 -1.33033e-08 9.58675e-09)
(7.37277e-09 -2.13278e-08 1.56356e-08)
(9.84737e-09 -2.91385e-08 2.19094e-08)
(1.21578e-08 -3.698e-08 2.87371e-08)
(1.43564e-08 -4.50282e-08 3.64209e-08)
(1.64889e-08 -5.33878e-08 4.52423e-08)
(1.85929e-08 -6.20864e-08 5.54618e-08)
(2.06901e-08 -7.10649e-08 6.73105e-08)
(2.27726e-08 -8.01554e-08 8.09663e-08)
(2.47688e-08 -8.90506e-08 9.6485e-08)
(2.64847e-08 -9.72519e-08 1.1368e-07)
(2.74428e-08 -1.04053e-07 1.31886e-07)
(2.66786e-08 -1.08652e-07 1.49528e-07)
(2.27169e-08 -1.10708e-07 1.63432e-07)
(1.54425e-08 -1.11639e-07 1.68953e-07)
(2.01083e-09 -5.48275e-09 3.98198e-09)
(5.58621e-09 -1.53685e-08 1.12496e-08)
(8.81565e-09 -2.46561e-08 1.83329e-08)
(1.17856e-08 -3.37247e-08 2.56599e-08)
(1.45731e-08 -4.28737e-08 3.36078e-08)
(1.72505e-08 -5.23329e-08 4.25257e-08)
(1.98887e-08 -6.22622e-08 5.274e-08)
(2.25583e-08 -7.2754e-08 6.45583e-08)
(2.53263e-08 -8.38322e-08 7.82637e-08)
(2.82482e-08 -9.54459e-08 9.41032e-08)
(3.13341e-08 -1.07445e-07 1.12221e-07)
(3.4476e-08 -1.19515e-07 1.32561e-07)
(3.72226e-08 -1.31038e-07 1.5463e-07)
(3.83372e-08 -1.40793e-07 1.76967e-07)
(3.52227e-08 -1.46564e-07 1.96098e-07)
(2.58159e-08 -1.46364e-07 2.05792e-07)
(2.30931e-09 -6.02981e-09 4.48488e-09)
(6.4162e-09 -1.69084e-08 1.26631e-08)
(1.01289e-08 -2.71484e-08 2.06159e-08)
(1.3549e-08 -3.71802e-08 2.88124e-08)
(1.67702e-08 -4.73521e-08 3.76669e-08)
(1.98845e-08 -5.79429e-08 4.756e-08)
(2.2988e-08 -6.91663e-08 5.88485e-08)
(2.61888e-08 -8.11801e-08 7.18706e-08)
(2.96119e-08 -9.40994e-08 8.69493e-08)
(3.34081e-08 -1.08006e-07 1.04386e-07)
(3.77532e-08 -1.22956e-07 1.24418e-07)
(4.28372e-08 -1.38964e-07 1.4716e-07)
(4.87459e-08 -1.55939e-07 1.72424e-07)
(5.51116e-08 -1.73397e-07 1.99207e-07)
(6.00481e-08 -1.8951e-07 2.24282e-07)
(5.89074e-08 -1.99236e-07 2.39625e-07)
(2.57243e-09 -6.36244e-09 4.89363e-09)
(7.14788e-09 -1.78497e-08 1.38102e-08)
(1.12847e-08 -2.8686e-08 2.24567e-08)
(1.50969e-08 -3.93396e-08 3.13297e-08)
(1.86904e-08 -5.01952e-08 4.08636e-08)
(2.21721e-08 -6.15694e-08 5.1455e-08)
(2.56584e-08 -7.37186e-08 6.34721e-08)
(2.92864e-08 -8.68538e-08 7.72628e-08)
(3.32282e-08 -1.0116e-07 9.31591e-08)
(3.77157e-08 -1.1682e-07 1.11481e-07)
(4.30749e-08 -1.34046e-07 1.32503e-07)
(4.97925e-08 -1.53135e-07 1.56435e-07)
(5.86028e-08 -1.74565e-07 1.83316e-07)
(7.06242e-08 -1.99137e-07 2.12642e-07)
(8.70734e-08 -2.27586e-07 2.41908e-07)
(1.05303e-07 -2.55683e-07 2.62281e-07)
(1.88444e-10 -5.95575e-10 3.73104e-10)
(5.21758e-10 -1.66682e-09 1.05427e-09)
(8.18254e-10 -2.66673e-09 1.72078e-09)
(1.08163e-09 -3.63377e-09 2.41263e-09)
(1.31436e-09 -4.59666e-09 3.16919e-09)
(1.51554e-09 -5.56939e-09 4.02209e-09)
(1.68075e-09 -6.55251e-09 4.99883e-09)
(1.79987e-09 -7.53578e-09 6.12469e-09)
(1.8551e-09 -8.48677e-09 7.41417e-09)
(1.81752e-09 -9.35216e-09 8.87303e-09)
(1.64479e-09 -1.00391e-08 1.04822e-08)
(1.26283e-09 -1.04052e-08 1.21748e-08)
(5.36239e-10 -1.02074e-08 1.38061e-08)
(-9.65431e-10 -9.05275e-09 1.50297e-08)
(-4.49033e-09 -6.4129e-09 1.50466e-08)
(-1.17011e-08 -2.6467e-09 1.23483e-08)
(5.62957e-10 -1.76862e-09 1.1094e-09)
(1.55946e-09 -4.95029e-09 3.13578e-09)
(2.44554e-09 -7.92155e-09 5.11491e-09)
(3.23511e-09 -1.0798e-08 7.17309e-09)
(3.93502e-09 -1.3661e-08 9.41837e-09)
(4.54456e-09 -1.65551e-08 1.19461e-08)
(5.05196e-09 -1.9491e-08 1.48409e-08)
(5.42957e-09 -2.24371e-08 1.81713e-08)
(5.62659e-09 -2.53156e-08 2.19868e-08)
(5.56007e-09 -2.79766e-08 2.62919e-08)
(5.10667e-09 -3.01913e-08 3.10197e-08)
(4.08861e-09 -3.16343e-08 3.59461e-08)
(2.22484e-09 -3.19093e-08 4.05463e-08)
(-1.01153e-09 -3.07353e-08 4.37182e-08)
(-6.53276e-09 -2.85417e-08 4.33774e-08)
(-1.41197e-08 -2.74052e-08 3.77899e-08)
(9.31823e-10 -2.88816e-09 1.81874e-09)
(2.58223e-09 -8.08623e-09 5.14107e-09)
(4.05231e-09 -1.2947e-08 8.38525e-09)
(5.36724e-09 -1.76582e-08 1.17554e-08)
(6.54179e-09 -2.23554e-08 1.54272e-08)
(7.57892e-09 -2.71219e-08 1.95571e-08)
(8.4653e-09 -3.19862e-08 2.42834e-08)
(9.16366e-09 -3.69208e-08 2.97246e-08)
(9.59906e-09 -4.18217e-08 3.59596e-08)
(9.64583e-09 -4.65001e-08 4.3011e-08)
(9.10407e-09 -5.06698e-08 5.07767e-08)
(7.6682e-09 -5.39733e-08 5.89085e-08)
(4.92452e-09 -5.61075e-08 6.66768e-08)
(2.73949e-10 -5.72469e-08 7.26288e-08)
(-6.79476e-09 -5.87066e-08 7.451e-08)
(-1.49206e-08 -6.22891e-08 7.1052e-08)
(1.29113e-09 -3.91795e-09 2.48566e-09)
(3.57869e-09 -1.09736e-08 7.02199e-09)
(5.62167e-09 -1.75807e-08 1.14519e-08)
(7.45808e-09 -2.39971e-08 1.60459e-08)
(9.11432e-09 -3.0414e-08 2.10419e-08)
(1.06029e-08 -3.69591e-08 2.66528e-08)
(1.1918e-08 -4.36963e-08 3.30708e-08)
(1.30248e-08 -5.06169e-08 4.04589e-08)
(1.38444e-08 -5.76332e-08 4.89398e-08)
(1.42278e-08 -6.45591e-08 5.85616e-08)
(1.38992e-08 -7.11136e-08 6.92019e-08)
(1.24431e-08 -7.69298e-08 8.05085e-08)
(9.14374e-09 -8.17155e-08 9.15783e-08)
(3.03431e-09 -8.5624e-08 1.00798e-07)
(-6.63861e-09 -8.9742e-08 1.05669e-07)
(-1.76778e-08 -9.49338e-08 1.04474e-07)
(1.63542e-09 -4.82252e-09 3.09329e-09)
(4.5356e-09 -1.35122e-08 8.73935e-09)
(7.13192e-09 -2.16617e-08 1.42444e-08)
(9.47838e-09 -2.95951e-08 1.99416e-08)
(1.16165e-08 -3.75603e-08 2.61221e-08)
(1.35747e-08 -4.5736e-08 3.30494e-08)
(1.53641e-08 -5.42292e-08 4.09619e-08)
(1.69707e-08 -6.30751e-08 5.00697e-08)
(1.83357e-08 -7.22264e-08 6.05368e-08)
(1.93229e-08 -8.15469e-08 7.24473e-08)
(1.96601e-08 -9.07923e-08 8.57274e-08)
(1.88257e-08 -9.95955e-08 1.00001e-07)
(1.58568e-08 -1.07503e-07 1.14373e-07)
(9.19642e-09 -1.14149e-07 1.27086e-07)
(-2.72317e-09 -1.19604e-07 1.3531e-07)
(-1.73018e-08 -1.24321e-07 1.36512e-07)
(1.9594e-09 -5.56782e-09 3.63188e-09)
(5.43622e-09 -1.56055e-08 1.02562e-08)
(8.55605e-09 -2.50346e-08 1.67035e-08)
(1.13897e-08 -3.42396e-08 2.3357e-08)
(1.39962e-08 -4.35231e-08 3.05516e-08)
(1.6424e-08 -5.31144e-08 3.85912e-08)
(1.87107e-08 -6.31715e-08 4.77535e-08)
(2.08763e-08 -7.37824e-08 5.82844e-08)
(2.29136e-08 -8.49665e-08 7.03916e-08)
(2.47536e-08 -9.66684e-08 8.41997e-08)
(2.62144e-08 -1.08735e-07 9.96895e-08)
(2.68658e-08 -1.20861e-07 1.16544e-07)
(2.57547e-08 -1.32489e-07 1.33915e-07)
(2.09948e-08 -1.42603e-07 1.5e-07)
(9.81135e-09 -1.49459e-07 1.61677e-07)
(-7.01973e-09 -1.51266e-07 1.65596e-07)
(2.25645e-09 -6.12203e-09 4.09031e-09)
(6.26274e-09 -1.71652e-08 1.15462e-08)
(9.8642e-09 -2.75575e-08 1.87854e-08)
(1.31477e-08 -3.77349e-08 2.62295e-08)
(1.61898e-08 -4.80466e-08 3.42451e-08)
(1.90602e-08 -5.87685e-08 4.31646e-08)
(2.1825e-08 -7.01065e-08 5.32901e-08)
(2.4548e-08 -8.22052e-08 6.48945e-08)
(2.72867e-08 -9.51555e-08 7.82109e-08)
(3.00817e-08 -1.08999e-07 9.33997e-08)
(3.29315e-08 -1.23722e-07 1.10488e-07)
(3.57125e-08 -1.39211e-07 1.29224e-07)
(3.79791e-08 -1.55165e-07 1.48826e-07)
(3.8562e-08 -1.70791e-07 1.67431e-07)
(3.5054e-08 -1.8406e-07 1.81408e-07)
(2.56099e-08 -1.90806e-07 1.86147e-07)
(2.52066e-09 -6.45846e-09 4.46402e-09)
(6.99763e-09 -1.81171e-08 1.25935e-08)
(1.10267e-08 -2.91118e-08 2.04653e-08)
(1.47079e-08 -3.9915e-08 2.85247e-08)
(1.81322e-08 -5.09113e-08 3.71566e-08)
(2.13872e-08 -6.24121e-08 4.67067e-08)
(2.45637e-08 -7.46619e-08 5.74881e-08)
(2.77609e-08 -8.78506e-08 6.9779e-08)
(3.10965e-08 -1.02125e-07 8.38201e-08)
(3.47088e-08 -1.17602e-07 9.97773e-08)
(3.87708e-08 -1.34376e-07 1.17687e-07)
(4.34883e-08 -1.52516e-07 1.37326e-07)
(4.90758e-08 -1.72073e-07 1.57941e-07)
(5.57334e-08 -1.93021e-07 1.77603e-07)
(6.35815e-08 -2.14824e-07 1.92015e-07)
(7.16966e-08 -2.33608e-07 1.94541e-07)
(1.8147e-10 -6.03398e-10 3.23603e-10)
(5.01588e-10 -1.68889e-09 9.1477e-10)
(7.82596e-10 -2.7021e-09 1.49056e-09)
(1.02702e-09 -3.68256e-09 2.08987e-09)
(1.23322e-09 -4.66058e-09 2.74191e-09)
(1.39688e-09 -5.64989e-09 3.47412e-09)
(1.50752e-09 -6.65481e-09 4.30853e-09)
(1.54641e-09 -7.66739e-09 5.26224e-09)
(1.48146e-09 -8.66735e-09 6.34456e-09)
(1.26063e-09 -9.61747e-09 7.54929e-09)
(7.98567e-10 -1.04675e-08 8.84515e-09)
(-3.93959e-11 -1.11485e-08 1.01625e-08)
(-1.52441e-09 -1.15853e-08 1.13458e-08)
(-4.26891e-09 -1.16853e-08 1.21643e-08)
(-9.65647e-09 -1.1328e-08 1.23178e-08)
(-1.85226e-08 -1.02955e-08 1.16588e-08)
(5.4272e-10 -1.79168e-09 9.62654e-10)
(1.5e-09 -5.0149e-09 2.71905e-09)
(2.34216e-09 -8.02552e-09 4.4342e-09)
(3.07536e-09 -1.09422e-08 6.21286e-09)
(3.69862e-09 -1.38466e-08 8.14813e-09)
(4.19939e-09 -1.67887e-08 1.03182e-08)
(4.54971e-09 -1.97825e-08 1.27893e-08)
(4.697e-09 -2.28106e-08 1.56127e-08)
(4.55194e-09 -2.58155e-08 1.88136e-08)
(3.97032e-09 -2.86972e-08 2.23735e-08)
(2.73169e-09 -3.13147e-08 2.61946e-08)
(5.12913e-10 -3.35057e-08 3.0042e-08)
(-3.15665e-09 -3.51318e-08 3.34471e-08)
(-8.90652e-09 -3.61828e-08 3.56112e-08)
(-1.70912e-08 -3.68645e-08 3.55207e-08)
(-2.53304e-08 -3.73348e-08 3.3237e-08)
(8.99737e-10 -2.92552e-09 1.57868e-09)
(2.4879e-09 -8.19075e-09 4.45856e-09)
(3.88828e-09 -1.31151e-08 7.26954e-09)
(5.11471e-09 -1.78884e-08 1.01829e-08)
(6.16896e-09 -2.26506e-08 1.33474e-08)
(7.03655e-09 -2.7487e-08 1.68917e-08)
(7.67964e-09 -3.24347e-08 2.09267e-08)
(8.02388e-09 -3.74783e-08 2.55383e-08)
(7.94043e-09 -4.25438e-08 3.07736e-08)
(7.21722e-09 -4.7496e-08 3.66088e-08)
(5.53315e-09 -5.21489e-08 4.29045e-08)
(2.44451e-09 -5.63047e-08 4.93354e-08)
(-2.63137e-09 -5.98843e-08 5.52258e-08)
(-1.01669e-08 -6.31648e-08 5.96054e-08)
(-1.96809e-08 -6.6944e-08 6.14696e-08)
(-2.75368e-08 -7.13497e-08 6.12407e-08)
(1.24895e-09 -3.968e-09 2.15626e-09)
(3.45618e-09 -1.11136e-08 6.09306e-09)
(5.40847e-09 -1.78045e-08 9.93e-09)
(7.13069e-09 -2.43019e-08 1.39013e-08)
(8.63283e-09 -3.0799e-08 1.82063e-08)
(9.90604e-09 -3.74277e-08 2.30211e-08)
(1.09143e-08 -4.42558e-08 2.84989e-08)
(1.158e-08 -5.12866e-08 3.47619e-08)
(1.17597e-08 -5.84526e-08 4.18823e-08)
(1.12083e-08 -6.5613e-08 4.98454e-08)
(9.5505e-09 -7.25564e-08 5.85212e-08)
(6.20411e-09 -7.90456e-08 6.74809e-08)
(4.15795e-10 -8.49283e-08 7.6035e-08)
(-8.50886e-09 -9.03994e-08 8.31037e-08)
(-2.00977e-08 -9.61173e-08 8.76459e-08)
(-3.003e-08 -1.01813e-07 8.96986e-08)
(1.58631e-09 -4.88318e-09 2.6854e-09)
(4.39221e-09 -1.36815e-08 7.58378e-09)
(6.88308e-09 -2.1931e-08 1.23534e-08)
(9.09772e-09 -2.99583e-08 1.72783e-08)
(1.10595e-08 -3.80139e-08 2.26037e-08)
(1.27732e-08 -4.62763e-08 2.85471e-08)
(1.42182e-08 -5.48541e-08 3.53003e-08)
(1.53343e-08 -6.37837e-08 4.30191e-08)
(1.59968e-08 -7.30261e-08 5.18042e-08)
(1.59804e-08 -8.24596e-08 6.16695e-08)
(1.48997e-08 -9.18703e-08 7.24706e-08)
(1.21206e-08 -1.0094e-07 8.38078e-08)
(6.66331e-09 -1.0928e-07 9.49185e-08)
(-2.65275e-09 -1.16531e-07 1.04684e-07)
(-1.60725e-08 -1.22513e-07 1.11924e-07)
(-2.89877e-08 -1.2699e-07 1.16147e-07)
(1.90578e-09 -5.63663e-09 3.15292e-09)
(5.2801e-09 -1.57969e-08 8.90131e-09)
(8.28602e-09 -2.53377e-08 1.44879e-08)
(1.09784e-08 -3.46457e-08 2.02397e-08)
(1.33977e-08 -4.4023e-08 2.64386e-08)
(1.55688e-08 -5.36974e-08 3.33363e-08)
(1.74975e-08 -6.38207e-08 4.1155e-08)
(1.916e-08 -7.44731e-08 5.00789e-08)
(2.0484e-08 -8.56607e-08 6.02337e-08)
(2.13186e-08 -9.73083e-08 7.16589e-08)
(2.1374e-08 -1.09234e-07 8.42236e-08)
(2.01141e-08 -1.21089e-07 9.75287e-08)
(1.65714e-08 -1.32258e-07 1.10776e-07)
(9.24014e-09 -1.4165e-07 1.22745e-07)
(-3.288e-09 -1.4741e-07 1.32055e-07)
(-1.81189e-08 -1.47679e-07 1.37897e-07)
(2.20119e-09 -6.19611e-09 3.55212e-09)
(6.10176e-09 -1.73713e-08 1.0022e-08)
(9.58662e-09 -2.7883e-08 1.62956e-08)
(1.27269e-08 -3.81675e-08 2.27313e-08)
(1.55814e-08 -4.85731e-08 2.96381e-08)
(1.81975e-08 -5.93695e-08 3.72909e-08)
(2.06121e-08 -7.07514e-08 4.59323e-08)
(2.2848e-08 -8.28436e-08 5.57641e-08)
(2.49051e-08 -9.57049e-08 6.69284e-08)
(2.67479e-08 -1.09323e-07 7.94782e-08)
(2.8273e-08 -1.23595e-07 9.3289e-08)
(2.92435e-08 -1.38266e-07 1.07946e-07)
(2.91614e-08 -1.52821e-07 1.22569e-07)
(2.71401e-08 -1.66218e-07 1.35688e-07)
(2.20367e-08 -1.76324e-07 1.45386e-07)
(1.43465e-08 -1.79776e-07 1.50544e-07)
(2.4659e-09 -6.53527e-09 3.87665e-09)
(6.8385e-09 -1.83307e-08 1.09325e-08)
(1.07533e-08 -2.94481e-08 1.77553e-08)
(1.42958e-08 -4.03598e-08 2.47241e-08)
(1.75403e-08 -5.1447e-08 3.21628e-08)
(2.05548e-08 -6.30126e-08 4.03583e-08)
(2.34042e-08 -7.52852e-08 4.9561e-08)
(2.61532e-08 -8.84264e-08 5.99771e-08)
(2.88679e-08 -1.02537e-07 7.17489e-08)
(3.16209e-08 -1.17656e-07 8.49256e-08)
(3.44918e-08 -1.33748e-07 9.93717e-08)
(3.75678e-08 -1.50674e-07 1.14637e-07)
(4.09581e-08 -1.68165e-07 1.29737e-07)
(4.4972e-08 -1.85798e-07 1.42892e-07)
(5.06233e-08 -2.02897e-07 1.5133e-07)
(5.92051e-08 -2.17218e-07 1.5295e-07)
(1.74989e-10 -6.09343e-10 2.62864e-10)
(4.82432e-10 -1.70529e-09 7.41867e-10)
(7.49777e-10 -2.7278e-09 1.21045e-09)
(9.75917e-10 -3.72038e-09 1.69448e-09)
(1.15825e-09 -4.70799e-09 2.2215e-09)
(1.28811e-09 -5.71031e-09 2.81093e-09)
(1.35104e-09 -6.73058e-09 3.47912e-09)
(1.3218e-09 -7.76511e-09 4.2379e-09)
(1.16004e-09 -8.79919e-09 5.0915e-09)
(8.01553e-10 -9.80866e-09 6.03153e-09)
(1.49601e-10 -1.07604e-08 7.03294e-09)
(-9.53078e-10 -1.16236e-08 8.03305e-09)
(-2.78573e-09 -1.2366e-08 8.95026e-09)
(-5.94934e-09 -1.29403e-08 9.6843e-09)
(-1.17218e-08 -1.31912e-08 1.02632e-08)
(-2.06527e-08 -1.2547e-08 1.07812e-08)
(5.23617e-10 -1.80912e-09 7.81482e-10)
(1.44456e-09 -5.06346e-09 2.20857e-09)
(2.24522e-09 -8.10545e-09 3.59861e-09)
(2.92678e-09 -1.10504e-08 5.03994e-09)
(3.47965e-09 -1.39892e-08 6.6037e-09)
(3.88257e-09 -1.69661e-08 8.35021e-09)
(4.09476e-09 -2.00021e-08 1.03291e-08)
(4.04623e-09 -2.3088e-08 1.25755e-08)
(3.62459e-09 -2.61822e-08 1.5101e-08)
(2.65694e-09 -2.9212e-08 1.78802e-08)
(8.92365e-10 -3.20836e-08 2.08288e-08)
(-2.01515e-09 -3.46959e-08 2.37651e-08)
(-6.50795e-09 -3.69629e-08 2.63725e-08)
(-1.30287e-08 -3.88242e-08 2.82222e-08)
(-2.14069e-08 -4.00845e-08 2.89157e-08)
(-2.87116e-08 -4.01848e-08 2.85237e-08)
(8.69328e-10 -2.95406e-09 1.28194e-09)
(2.39952e-09 -8.27124e-09 3.62246e-09)
(3.73465e-09 -1.32433e-08 5.90265e-09)
(4.87899e-09 -1.80657e-08 8.26288e-09)
(5.8231e-09 -2.28736e-08 1.0819e-08)
(6.53807e-09 -2.77593e-08 1.3671e-08)
(6.96657e-09 -3.27635e-08 1.69016e-08)
(7.00944e-09 -3.78801e-08 2.05708e-08)
(6.50438e-09 -4.30532e-08 2.47012e-08)
(5.20459e-09 -4.8178e-08 2.92613e-08)
(2.76024e-09 -5.31139e-08 3.41297e-08)
(-1.2847e-09 -5.772e-08 3.90228e-08)
(-7.38808e-09 -6.19337e-08 4.35388e-08)
(-1.56733e-08 -6.5889e-08 4.71155e-08)
(-2.4914e-08 -6.99055e-08 4.94036e-08)
(-3.10965e-08 -7.36294e-08 5.06252e-08)
(1.20942e-09 -4.0067e-09 1.75332e-09)
(3.34055e-09 -1.12221e-08 4.95034e-09)
(5.208e-09 -1.79778e-08 8.06544e-09)
(6.82415e-09 -2.45339e-08 1.12825e-08)
(8.18479e-09 -3.10891e-08 1.47596e-08)
(9.26291e-09 -3.77729e-08 1.86331e-08)
(9.99953e-09 -4.46577e-08 2.30184e-08)
(1.0287e-08 -5.17525e-08 2.80004e-08)
(9.94562e-09 -5.90011e-08 3.36186e-08)
(8.69796e-09 -6.62813e-08 3.98485e-08)
(6.13421e-09 -7.3412e-08 4.65235e-08)
(1.72658e-09 -8.01755e-08 5.33783e-08)
(-5.112e-09 -8.64019e-08 5.98887e-08)
(-1.45864e-08 -9.21353e-08 6.55024e-08)
(-2.54012e-08 -9.76578e-08 6.98482e-08)
(-3.3106e-08 -1.02517e-07 7.27797e-08)
(1.53967e-09 -4.93043e-09 2.18276e-09)
(4.25642e-09 -1.38126e-08 6.16395e-09)
(6.64828e-09 -2.2138e-08 1.00361e-08)
(8.73999e-09 -3.02347e-08 1.40259e-08)
(1.05387e-08 -3.83497e-08 1.83263e-08)
(1.20298e-08 -4.66645e-08 2.31071e-08)
(1.31676e-08 -5.52851e-08 2.85125e-08)
(1.38604e-08 -6.42462e-08 3.46513e-08)
(1.39485e-08 -7.35071e-08 4.15818e-08)
(1.31724e-08 -8.29442e-08 4.92801e-08)
(1.11374e-08 -9.23377e-08 5.75986e-08)
(7.2684e-09 -1.01354e-07 6.62053e-08)
(8.17988e-10 -1.0955e-07 7.45758e-08)
(-8.84284e-09 -1.16435e-07 8.21018e-08)
(-2.11016e-08 -1.21599e-07 8.83494e-08)
(-3.13918e-08 -1.24858e-07 9.27948e-08)
(1.85472e-09 -5.68987e-09 2.56384e-09)
(5.13175e-09 -1.59453e-08 7.23626e-09)
(8.03008e-09 -2.55704e-08 1.17722e-08)
(1.05897e-08 -3.49505e-08 1.64317e-08)
(1.2835e-08 -4.43884e-08 2.14377e-08)
(1.47705e-08 -5.41065e-08 2.69858e-08)
(1.63771e-08 -6.42502e-08 3.32434e-08)
(1.76007e-08 -7.48876e-08 4.03385e-08)
(1.83361e-08 -8.6007e-08 4.83449e-08)
(1.84017e-08 -9.75045e-08 5.72435e-08)
(1.75035e-08 -1.09153e-07 6.6882e-08)
(1.51727e-08 -1.20538e-07 7.68958e-08)
(1.06874e-08 -1.30955e-07 8.66911e-08)
(3.11415e-09 -1.39209e-07 9.55523e-08)
(-8.06685e-09 -1.43409e-07 1.02935e-07)
(-2.00139e-08 -1.42101e-07 1.08218e-07)
(2.14813e-09 -6.25351e-09 2.8881e-09)
(5.94785e-09 -1.75302e-08 8.14873e-09)
(9.32193e-09 -2.81305e-08 1.3243e-08)
(1.23271e-08 -3.84897e-08 1.84572e-08)
(1.50052e-08 -4.89512e-08 2.40349e-08)
(1.73854e-08 -5.97791e-08 3.01907e-08)
(1.9481e-08 -7.11553e-08 3.71066e-08)
(2.12867e-08 -8.3183e-08 4.49224e-08)
(2.27726e-08 -9.58869e-08 5.37188e-08)
(2.38743e-08 -1.09201e-07 6.34761e-08)
(2.44833e-08 -1.2294e-07 7.40237e-08)
(2.44213e-08 -1.36738e-07 8.49443e-08)
(2.34078e-08 -1.49945e-07 9.55155e-08)
(2.10853e-08 -1.61437e-07 1.04771e-07)
(1.71918e-08 -1.69268e-07 1.11843e-07)
(1.22676e-08 -1.71e-07 1.16258e-07)
(2.41303e-09 -6.59436e-09 3.15296e-09)
(6.68557e-09 -1.84946e-08 8.89051e-09)
(1.04911e-08 -2.97024e-08 1.44318e-08)
(1.39009e-08 -4.06877e-08 2.00784e-08)
(1.69755e-08 -5.1826e-08 2.60867e-08)
(1.97644e-08 -6.34116e-08 3.26801e-08)
(2.2312e-08 -7.56555e-08 4.00469e-08)
(2.46582e-08 -8.86911e-08 4.83281e-08)
(2.68424e-08 -1.02573e-07 5.76028e-08)
(2.89106e-08 -1.17271e-07 6.78386e-08)
(3.09318e-08 -1.32643e-07 7.88382e-08)
(3.30297e-08 -1.4841e-07 9.01238e-08)
(3.54789e-08 -1.6415e-07 1.00835e-07)
(3.90165e-08 -1.79371e-07 1.09688e-07)
(4.54678e-08 -1.93737e-07 1.15225e-07)
(5.64398e-08 -2.06279e-07 1.16735e-07)
(1.69542e-10 -6.13216e-10 1.93238e-10)
(4.66816e-10 -1.71595e-09 5.46542e-10)
(7.22094e-10 -2.74663e-09 8.89042e-10)
(9.34383e-10 -3.74216e-09 1.24552e-09)
(1.09658e-09 -4.74249e-09 1.63192e-09)
(1.1996e-09 -5.75343e-09 2.06266e-09)
(1.22551e-09 -6.78396e-09 2.54895e-09)
(1.14574e-09 -7.83216e-09 3.09832e-09)
(9.16265e-10 -8.88718e-09 3.71261e-09)
(4.71495e-10 -9.92903e-09 4.38486e-09)
(-2.84329e-10 -1.09342e-08 5.09465e-09)
(-1.49796e-09 -1.18787e-08 5.81317e-09)
(-3.41335e-09 -1.27141e-08 6.4889e-09)
(-6.60102e-09 -1.33845e-08 7.10572e-09)
(-1.22953e-08 -1.36593e-08 7.75287e-09)
(-2.1082e-08 -1.28878e-08 8.45783e-09)
(5.07797e-10 -1.82113e-09 5.75607e-10)
(1.39804e-09 -5.09796e-09 1.62458e-09)
(2.16508e-09 -8.15734e-09 2.64735e-09)
(2.8029e-09 -1.11322e-08 3.7059e-09)
(3.29895e-09 -1.40886e-08 4.85173e-09)
(3.62393e-09 -1.70886e-08 6.12768e-09)
(3.72867e-09 -2.01512e-08 7.56745e-09)
(3.53433e-09 -2.32718e-08 9.19369e-09)
(2.91901e-09 -2.64174e-08 1.10111e-08)
(1.70655e-09 -2.95281e-08 1.29977e-08)
(-3.4189e-10 -3.25222e-08 1.50923e-08)
(-3.52472e-09 -3.52957e-08 1.71829e-08)
(-8.20192e-09 -3.77548e-08 1.90934e-08)
(-1.46555e-08 -3.97053e-08 2.05925e-08)
(-2.25603e-08 -4.07383e-08 2.14652e-08)
(-2.91642e-08 -4.02307e-08 2.1559e-08)
(8.43996e-10 -2.97442e-09 9.44411e-10)
(2.32552e-09 -8.3277e-09 2.66564e-09)
(3.60607e-09 -1.33384e-08 4.34367e-09)
(4.68288e-09 -1.81882e-08 6.07669e-09)
(5.53695e-09 -2.30328e-08 7.94997e-09)
(6.12952e-09 -2.795e-08 1.00329e-08)
(6.39085e-09 -3.29879e-08 1.23831e-08)
(6.20782e-09 -3.81456e-08 1.50389e-08)
(5.40691e-09 -4.33755e-08 1.80115e-08)
(3.74025e-09 -4.85835e-08 2.1268e-08)
(8.8226e-10 -5.36372e-08 2.47165e-08)
(-3.53684e-09 -5.83914e-08 2.82145e-08)
(-9.82118e-09 -6.27064e-08 3.14672e-08)
(-1.78492e-08 -6.65787e-08 3.42032e-08)
(-2.61927e-08 -7.00762e-08 3.62042e-08)
(-3.1225e-08 -7.29242e-08 3.73656e-08)
(1.17603e-09 -4.03502e-09 1.29038e-09)
(3.24341e-09 -1.13012e-08 3.64563e-09)
(5.03989e-09 -1.81006e-08 5.9366e-09)
(6.56797e-09 -2.47044e-08 8.29976e-09)
(7.81269e-09 -3.12922e-08 1.08468e-08)
(8.73399e-09 -3.80087e-08 1.36752e-08)
(9.25794e-09 -4.49225e-08 1.68645e-08)
(9.26081e-09 -5.20451e-08 2.04703e-08)
(8.55184e-09 -5.93228e-08 2.45114e-08)
(6.85514e-09 -6.66353e-08 2.89487e-08)
(3.81178e-09 -7.37972e-08 3.37031e-08)
(-1.00555e-09 -8.0561e-08 3.85427e-08)
(-7.96033e-09 -8.66887e-08 4.31883e-08)
(-1.69578e-08 -9.20673e-08 4.73176e-08)
(-2.65077e-08 -9.68028e-08 5.06873e-08)
(-3.27513e-08 -1.00654e-07 5.29149e-08)
(1.50033e-09 -4.96449e-09 1.60812e-09)
(4.14205e-09 -1.39088e-08 4.53998e-09)
(6.45078e-09 -2.22909e-08 7.38909e-09)
(8.43973e-09 -3.04292e-08 1.03189e-08)
(1.01049e-08 -3.85844e-08 1.34691e-08)
(1.14162e-08 -4.6926e-08 1.69595e-08)
(1.2312e-08 -5.55611e-08 2.08902e-08)
(1.26847e-08 -6.45196e-08 2.53315e-08)
(1.23636e-08 -7.37537e-08 3.0311e-08)
(1.11003e-08 -8.3128e-08 3.57992e-08)
(8.55303e-09 -9.24019e-08 4.16867e-08)
(4.2802e-09 -1.01189e-07 4.77429e-08)
(-2.21182e-09 -1.08983e-07 5.36213e-08)
(-1.12138e-08 -1.15183e-07 5.89849e-08)
(-2.19348e-08 -1.19294e-07 6.35355e-08)
(-3.05388e-08 -1.21435e-07 6.665e-08)
(1.81156e-09 -5.72945e-09 1.88875e-09)
(5.00613e-09 -1.60541e-08 5.33087e-09)
(7.81355e-09 -2.57376e-08 8.66847e-09)
(1.02631e-08 -3.51693e-08 1.20908e-08)
(1.23639e-08 -4.46394e-08 1.57572e-08)
(1.41078e-08 -5.43742e-08 1.98075e-08)
(1.54589e-08 -6.45103e-08 2.43572e-08)
(1.63478e-08 -7.51037e-08 2.94888e-08)
(1.66599e-08 -8.61244e-08 3.52355e-08)
(1.62262e-08 -9.74383e-08 4.15696e-08)
(1.48108e-08 -1.08774e-07 4.83662e-08)
(1.20892e-08 -1.19668e-07 5.53529e-08)
(7.60254e-09 -1.29348e-07 6.21137e-08)
(7.70498e-10 -1.3658e-07 6.82343e-08)
(-8.73287e-09 -1.39537e-07 7.33539e-08)
(-1.88456e-08 -1.37194e-07 7.6852e-08)
(2.10302e-09 -6.29555e-09 2.12866e-09)
(5.81724e-09 -1.76465e-08 6.00392e-09)
(9.09793e-09 -2.83103e-08 9.75309e-09)
(1.19884e-08 -3.87157e-08 1.35825e-08)
(1.45209e-08 -4.92075e-08 1.76681e-08)
(1.67079e-08 -6.00401e-08 2.2162e-08)
(1.85484e-08 -7.13849e-08 2.71902e-08)
(2.00225e-08 -8.33263e-08 3.28417e-08)
(2.10918e-08 -9.5859e-08 3.91509e-08)
(2.17052e-08 -1.08873e-07 4.60841e-08)
(2.18085e-08 -1.22123e-07 5.34939e-08)
(2.13521e-08 -1.35174e-07 6.10467e-08)
(2.03107e-08 -1.47335e-07 6.82145e-08)
(1.86728e-08 -1.57511e-07 7.44087e-08)