/*--------------------------------*- C++ -*----------------------------------*\
| =========                 |                                                 |
| \\      /  F ield         | OpenFOAM: The Open Source CFD Toolbox           |
|  \\    /   O peration     | Version:  v1912                                 |
|   \\  /    A nd           | Website:  www.openfoam.com                      |
|    \\/     M anipulation  |                                                 |
\*---------------------------------------------------------------------------*/
FoamFile
{
    version     2.0;
    format      ascii;
    class       surfaceScalarField;
    location    "0.26/fluid";
    object      meshPhi;
}
// * * * * * * * * * * * * * * * * * * * * * * * * * * * * * * * * * * * * * //

dimensions      [0 3 -1 0 0 0 0];
oriented        oriented;


internalField   nonuniform List<scalar> 
41600
(
2.36175e-13
-7.60904e-13
2.80551e-13
-2.89284e-13
4.48112e-13
-2.2183e-12
8.26239e-13
-8.52372e-13
6.41785e-13
-3.57605e-12
1.35943e-12
-1.40366e-12
8.22293e-13
-4.88499e-12
1.91445e-12
-1.979e-12
9.94167e-13
-6.17958e-12
2.52147e-12
-2.60997e-12
1.16172e-12
-7.47634e-12
3.20756e-12
-3.3253e-12
1.3296e-12
-8.77259e-12
3.99764e-12
-4.15209e-12
1.50395e-12
-1.0041e-11
4.91447e-12
-5.11603e-12
1.69534e-12
-1.12165e-11
5.97785e-12
-6.24107e-12
1.9262e-12
-1.21743e-11
7.20338e-12
-7.54986e-12
2.2474e-12
-1.26863e-11
8.60159e-12
-9.06624e-12
2.77939e-12
-1.23304e-11
1.01802e-11
-1.08265e-11
3.7895e-12
-1.03001e-11
1.19598e-11
-1.29192e-11
5.79765e-12
-5.07749e-12
1.40062e-11
-1.5581e-11
9.18926e-12
5.10239e-12
1.63344e-11
-1.90941e-11
2.35721e-11
2.09289e-11
-2.92722e-11
7.05128e-13
-1.4998e-12
8.3477e-13
-8.60897e-13
1.33797e-12
-4.37356e-12
2.45842e-12
-2.53657e-12
1.91651e-12
-7.05316e-12
4.04462e-12
-4.1767e-12
2.45617e-12
-9.63872e-12
5.69485e-12
-5.88722e-12
2.9707e-12
-1.22e-11
7.49831e-12
-7.76161e-12
3.4732e-12
-1.47751e-11
9.53562e-12
-9.88555e-12
3.9775e-12
-1.73669e-11
1.18809e-11
-1.23397e-11
4.50094e-12
-1.99337e-11
1.46019e-11
-1.51999e-11
5.07137e-12
-2.237e-11
1.77566e-11
-1.85362e-11
5.7437e-12
-2.4475e-11
2.13886e-11
-2.24113e-11
6.63655e-12
-2.59023e-11
2.55183e-11
-2.68798e-11
8.02021e-12
-2.60814e-11
3.01345e-11
-3.19989e-11
1.0457e-11
-2.41467e-11
3.51997e-11
-3.7881e-11
1.49361e-11
-1.90511e-11
4.06669e-11
-4.48049e-11
2.19125e-11
-1.07318e-11
4.62602e-11
-5.2855e-11
-1.10839e-12
5.12299e-11
-6.37331e-11
1.16414e-12
-2.19372e-12
1.36874e-12
-1.41184e-12
2.20926e-12
-6.39915e-12
4.03078e-12
-4.15959e-12
3.16548e-12
-1.03254e-11
6.63034e-12
-6.8476e-12
4.05886e-12
-1.41211e-11
9.33214e-12
-9.64776e-12
4.91286e-12
-1.78937e-11
1.22812e-11
-1.27124e-11
5.75004e-12
-2.17097e-11
1.56096e-11
-1.61819e-11
6.59364e-12
-2.55899e-11
1.94394e-11
-2.01887e-11
7.47081e-12
-2.94991e-11
2.38818e-11
-2.48571e-11
8.41964e-12
-3.33274e-11
2.90326e-11
-3.03009e-11
9.50328e-12
-3.6861e-11
3.49612e-11
-3.66165e-11
1.08452e-11
-3.97395e-11
4.16876e-11
-4.38681e-11
1.27036e-11
-4.14122e-11
4.91463e-11
-5.20709e-11
1.5566e-11
-4.11638e-11
5.71427e-11
-6.11846e-11
2.01933e-11
-3.83876e-11
6.52947e-11
-7.11029e-11
2.66495e-11
-3.35259e-11
7.28162e-11
-8.11546e-11
-2.79214e-11
7.92413e-11
-9.37138e-11
1.6067e-12
-2.81929e-12
1.86998e-12
-1.92909e-12
3.04972e-12
-8.22673e-12
5.50615e-12
-5.6826e-12
4.37139e-12
-1.3283e-11
9.05416e-12
-9.35119e-12
5.60868e-12
-1.81842e-11
1.27364e-11
-1.3167e-11
6.79563e-12
-2.30778e-11
1.6749e-11
-1.73363e-11
7.96536e-12
-2.80646e-11
2.12715e-11
-2.20502e-11
9.15211e-12
-3.31957e-11
2.64713e-11
-2.74896e-11
1.03939e-11
-3.84639e-11
3.25023e-11
-3.38254e-11
1.17369e-11
-4.379e-11
3.95001e-11
-4.12159e-11
1.32408e-11
-4.89996e-11
4.75658e-11
-4.97938e-11
1.49981e-11
-5.37861e-11
5.67313e-11
-5.96391e-11
1.71637e-11
-5.7669e-11
6.68976e-11
-7.07326e-11
1.99805e-11
-5.9993e-11
7.77441e-11
-8.28882e-11
2.37986e-11
-6.00714e-11
8.85935e-11
-9.5646e-11
2.85342e-11
-5.78116e-11
9.81762e-11
-1.07746e-10
-5.35886e-11
1.05407e-10
-1.20848e-10
2.02591e-12
-3.35379e-12
2.32742e-12
-2.40109e-12
3.84612e-12
-9.78983e-12
6.85132e-12
-7.07098e-12
5.51486e-12
-1.58182e-11
1.12599e-11
-1.1629e-11
7.08014e-12
-2.16803e-11
1.5826e-11
-1.63602e-11
8.58715e-12
-2.75638e-11
2.07902e-11
-2.1518e-11
1.0081e-11
-3.36077e-11
2.63742e-11
-2.7338e-11
1.16095e-11
-3.99018e-11
3.27856e-11
-3.40441e-11
1.32261e-11
-4.64833e-11
4.02187e-11
-4.1851e-11
1.49916e-11
-5.33308e-11
4.88509e-11
-5.09623e-11
1.69747e-11
-6.03495e-11
5.88261e-11
-6.15576e-11
1.92529e-11
-6.7342e-11
7.02164e-11
-7.37609e-11
2.19005e-11
-7.39532e-11
8.29501e-11
-8.75806e-11
2.49402e-11
-7.95782e-11
9.66816e-11
-1.02796e-10
2.82967e-11
-8.32341e-11
1.10551e-10
-1.18736e-10
3.15808e-11
-8.3755e-11
1.22767e-10
-1.3355e-10
-7.99943e-11
1.31466e-10
-1.4804e-10
2.41466e-12
-3.77573e-12
2.73187e-12
-2.81828e-12
4.58458e-12
-1.10255e-11
8.03879e-12
-8.29621e-12
6.57504e-12
-1.78289e-11
1.32011e-11
-1.36331e-11
8.4446e-12
-2.44678e-11
1.85333e-11
-1.91577e-11
1.02494e-11
-3.11671e-11
2.43124e-11
-2.51617e-11
1.20474e-11
-3.81032e-11
3.07937e-11
-3.19167e-11
1.39019e-11
-4.54076e-11
3.82178e-11
-3.96817e-11
1.58872e-11
-5.31686e-11
4.68136e-11
-4.87086e-11
1.8091e-11
-6.14361e-11
5.67979e-11
-5.92436e-11
2.06187e-11
-7.02207e-11
6.83643e-11
-7.1521e-11
2.35933e-11
-7.94839e-11
8.16541e-11
-8.57409e-11
2.71369e-11
-8.91052e-11
9.66972e-11
-1.02025e-10
3.12895e-11
-9.87797e-11
1.1328e-10
-1.20303e-10
3.58566e-11
-1.07734e-10
1.30634e-10
-1.4003e-10
3.99653e-11
-1.14222e-10
1.46665e-10
-1.5903e-10
-1.12823e-10
1.58689e-10
-1.77232e-10
2.7659e-12
-4.06604e-12
3.07631e-12
-3.17343e-12
5.25132e-12
-1.18783e-11
9.04787e-12
-9.33699e-12
7.53096e-12
-1.92248e-11
1.48435e-11
-1.53281e-11
9.67239e-12
-2.64197e-11
2.08088e-11
-2.15081e-11
1.17414e-11
-3.37187e-11
2.72475e-11
-2.8197e-11
1.38074e-11
-4.13304e-11
3.44383e-11
-3.56912e-11
1.5949e-11
-4.94224e-11
4.26437e-11
-4.42734e-11
1.82621e-11
-5.81304e-11
5.21162e-11
-5.42205e-11
2.08683e-11
-6.75695e-11
6.31009e-11
-6.58103e-11
2.39285e-11
-7.78494e-11
7.58336e-11
-7.93231e-11
2.76643e-11
-8.90927e-11
9.05272e-11
-9.5041e-11
3.23796e-11
-1.01462e-10
1.07347e-10
-1.13242e-10
3.84509e-11
-1.15187e-10
1.26332e-10
-1.34156e-10
4.62214e-11
-1.30487e-10
1.47121e-10
-1.5776e-10
5.48895e-11
-1.46634e-10
1.67854e-10
-1.82233e-10
-1.6322e-10
1.85407e-10
-2.08968e-10
3.07339e-12
3.35655e-12
-3.46227e-12
-4.20961e-12
5.83419e-12
9.86656e-12
-1.0181e-11
-1.23041e-11
8.36406e-12
1.61678e-11
-1.6694e-11
-1.99338e-11
1.0737e-11
2.26257e-11
-2.33837e-11
-2.74341e-11
1.30256e-11
2.95593e-11
-3.05863e-11
-3.50814e-11
1.5307e-11
3.72589e-11
-3.86104e-11
-4.31065e-11
1.76703e-11
4.59958e-11
-4.77482e-11
-5.17032e-11
2.02269e-11
5.60292e-11
-5.82844e-11
-6.10389e-11
2.31226e-11
6.76122e-11
-7.05054e-11
-7.12697e-11
2.65608e-11
8.09935e-11
-8.47069e-11
-8.25598e-11
3.08416e-11
9.64158e-11
-1.01206e-10
-9.5109e-11
3.6421e-11
1.14116e-10
-1.20368e-10
-1.09199e-10
4.39797e-11
1.34302e-10
-1.42626e-10
-1.25259e-10
5.44224e-11
1.56971e-10
-1.68413e-10
-1.43888e-10
6.71304e-11
1.80575e-10
-1.9637e-10
-1.64525e-10
2.04028e-10
-2.33897e-10
-1.9453e-10
2.29209e-13
-7.75938e-13
2.61388e-13
4.3379e-13
-2.26223e-12
7.69558e-13
6.18519e-13
-3.64726e-12
1.26533e-12
7.87098e-13
-4.98355e-12
1.78014e-12
9.42221e-13
-6.30748e-12
2.34142e-12
1.08557e-12
-7.63772e-12
2.97345e-12
1.21769e-12
-8.97423e-12
3.69774e-12
1.33809e-12
-1.02944e-11
4.53269e-12
1.44608e-12
-1.15435e-11
5.49183e-12
1.54419e-12
-1.26177e-11
6.58035e-12
1.64689e-12
-1.33351e-11
7.78816e-12
1.79976e-12
-1.33789e-11
9.07668e-12
2.10604e-12
-1.21894e-11
1.03538e-11
2.72972e-12
-8.83235e-12
1.14187e-11
3.68408e-12
-2.4452e-12
1.18818e-11
6.53239e-12
1.05326e-11
6.84769e-13
-1.52899e-12
7.77694e-13
1.29616e-12
-4.45877e-12
2.28956e-12
1.84867e-12
-7.19137e-12
3.76429e-12
2.35372e-12
-9.83038e-12
5.29491e-12
2.81982e-12
-1.2449e-11
6.9626e-12
3.25255e-12
-1.50885e-11
8.83943e-12
3.65413e-12
-1.77564e-11
1.09896e-11
4.02328e-12
-2.0419e-11
1.34679e-11
4.35665e-12
-2.29871e-11
1.63149e-11
4.65571e-12
-2.52935e-11
1.95453e-11
4.94529e-12
-2.70613e-11
2.31264e-11
5.31516e-12
-2.78657e-11
2.6935e-11
5.97228e-12
-2.71336e-11
3.06826e-11
7.23987e-12
-2.43426e-11
3.37767e-11
9.12737e-12
-1.98482e-11
3.5222e-11
-1.69038e-11
3.19838e-11
1.13196e-12
-2.23581e-12
1.27508e-12
2.14325e-12
-6.52199e-12
3.75364e-12
3.05862e-12
-1.05248e-11
6.17031e-12
3.898e-12
-1.43977e-11
8.67631e-12
4.67692e-12
-1.82525e-11
1.14035e-11
5.40653e-12
-2.21593e-11
1.44698e-11
6.09281e-12
-2.61438e-11
1.7981e-11
6.73546e-12
-3.01799e-11
2.20284e-11
7.32746e-12
-3.41749e-11
2.66803e-11
7.85809e-12
-3.79496e-11
3.19644e-11
8.32648e-12
-4.12139e-11
3.78293e-11
8.77208e-12
-4.35571e-11
4.40763e-11
9.31143e-12
-4.45242e-11
5.02444e-11
1.01504e-11
-4.39214e-11
5.54426e-11
1.13166e-11
-4.24228e-11
5.83495e-11
-4.21315e-11
5.63712e-11
1.56509e-12
-2.87271e-12
1.74203e-12
2.96454e-12
-8.38269e-12
5.12755e-12
4.23389e-12
-1.35361e-11
8.42597e-12
5.40262e-12
-1.85351e-11
1.18415e-11
6.49502e-12
-2.35314e-11
1.55522e-11
7.53048e-12
-2.86295e-11
1.97187e-11
8.52267e-12
-3.38846e-11
2.44861e-11
9.4773e-12
-3.92966e-11
2.9982e-11
1.03884e-11
-4.47996e-11
3.63063e-11
1.12326e-11
-5.02455e-11
4.35079e-11
1.19655e-11
-5.53807e-11
5.15368e-11
1.25139e-11
-5.98311e-11
6.01569e-11
1.2765e-11
-6.31409e-11
6.88042e-11
1.26024e-11
-6.49611e-11
7.63922e-11
1.20547e-11
-6.54662e-11
8.13129e-11
-6.61801e-11
8.07372e-11
1.9778e-12
-3.41666e-12
2.16827e-12
3.74781e-12
-9.97339e-12
6.38053e-12
5.35677e-12
-1.6116e-11
1.04792e-11
6.84452e-12
-2.20923e-11
1.47147e-11
8.24578e-12
-2.80943e-11
1.93056e-11
9.5912e-12
-3.4264e-11
2.44498e-11
1.09072e-11
-4.06936e-11
3.03282e-11
1.22139e-11
-4.74237e-11
3.71026e-11
1.35194e-11
-5.44386e-11
4.49066e-11
1.48084e-11
-6.16556e-11
5.38213e-11
1.60198e-11
-6.8902e-11
6.38228e-11
1.69961e-11
-7.5874e-11
7.46872e-11
1.73969e-11
-8.20757e-11
8.58217e-11
1.66724e-11
-8.67509e-11
9.60085e-11
1.45463e-11
-8.90481e-11
1.03289e-10
-8.97977e-11
1.04367e-10
2.36309e-12
-3.84585e-12
2.54522e-12
4.47947e-12
-1.12303e-11
7.48689e-12
6.4068e-12
-1.81609e-11
1.22867e-11
8.19545e-12
-2.49261e-11
1.72331e-11
9.89148e-12
-3.1755e-11
2.25777e-11
1.15388e-11
-3.88261e-11
2.85486e-11
1.31811e-11
-4.62709e-11
3.53556e-11
1.48614e-11
-5.41769e-11
4.31897e-11
1.66196e-11
-6.25912e-11
5.22164e-11
1.84834e-11
-7.15202e-11
6.25533e-11
2.04454e-11
-8.09183e-11
7.42227e-11
2.24004e-11
-9.06534e-11
8.70576e-11
2.40086e-11
-1.0041e-10
1.00517e-10
2.45206e-11
-1.09432e-10
1.13356e-10
2.30407e-11
-1.16139e-10
1.23292e-10
-1.17192e-10
1.26584e-10
2.71376e-12
-4.14097e-12
2.86634e-12
5.14533e-12
-1.20971e-11
8.42738e-12
7.36218e-12
-1.95794e-11
1.38165e-11
9.42429e-12
-2.69085e-11
1.93508e-11
1.13883e-11
-3.43438e-11
2.53057e-11
1.33115e-11
-4.20949e-11
3.19305e-11
1.52554e-11
-5.03279e-11
3.94542e-11
1.72901e-11
-5.91732e-11
4.80875e-11
1.94971e-11
-6.87361e-11
5.80179e-11
2.19732e-11
-7.91081e-11
6.93926e-11
2.48288e-11
-9.03782e-11
8.22786e-11
2.81663e-11
-1.02645e-10
9.65804e-11
3.20032e-11
-1.16015e-10
1.11857e-10
3.60891e-11
-1.30478e-10
1.26922e-10
3.94609e-11
-1.45134e-10
1.39227e-10
-1.58372e-10
1.44125e-10
3.02311e-12
3.12775e-12
-4.28671e-12
5.73228e-12
9.19085e-12
-1.25292e-11
8.20265e-12
1.50508e-11
-2.02986e-11
1.05016e-11
2.10428e-11
-2.79366e-11
1.26941e-11
2.74562e-11
-3.57228e-11
1.48473e-11
3.45507e-11
-4.38883e-11
1.70371e-11
4.25629e-11
-5.26236e-11
1.93547e-11
5.17091e-11
-6.20885e-11
2.19164e-11
6.21819e-11
-7.24242e-11
2.48774e-11
7.41361e-11
-8.37683e-11
2.84545e-11
8.76546e-11
-9.62716e-11
3.29493e-11
1.02678e-10
-1.10124e-10
3.87617e-11
1.18838e-10
-1.25576e-10
4.63054e-11
1.3506e-10
-1.42876e-10
5.48696e-11
1.48719e-10
-1.61128e-10
1.53736e-10
-1.82676e-10
2.21255e-13
-7.88744e-13
2.32747e-13
4.17491e-13
-2.29972e-12
6.85041e-13
5.92107e-13
-3.70822e-12
1.12573e-12
7.4721e-13
-5.06798e-12
1.58236e-12
8.83412e-13
-6.41694e-12
2.0787e-12
9.99382e-13
-7.77592e-12
2.63531e-12
1.09104e-12
-9.14825e-12
3.26967e-12
1.15041e-12
-1.05177e-11
3.99548e-12
1.16413e-12
-1.1843e-11
4.8203e-12
1.11225e-12
-1.30489e-11
5.74093e-12
9.67419e-13
-1.4015e-11
6.73454e-12
6.9119e-13
-1.45587e-11
7.7418e-12
2.1361e-13
-1.4419e-11
8.63833e-12
-6.2307e-13
-1.32846e-11
9.19457e-12
-2.01658e-12
-1.10913e-11
9.0985e-12
-8.22978e-12
8.52262e-12
6.61506e-13
-1.55388e-12
6.92502e-13
1.24852e-12
-4.53152e-12
2.03817e-12
1.77155e-12
-7.30943e-12
3.34907e-12
2.23743e-12
-9.99375e-12
4.70673e-12
2.64869e-12
-1.26603e-11
6.18143e-12
3.00231e-12
-1.53539e-11
7.83421e-12
3.28741e-12
-1.80873e-11
9.71735e-12
3.48173e-12
-2.08373e-11
1.1872e-11
3.54708e-12
-2.35361e-11
1.43213e-11
3.42502e-12
-2.60606e-11
1.70568e-11
3.03414e-12
-2.82228e-11
2.00128e-11
2.26486e-12
-2.97744e-11
2.30184e-11
9.55284e-13
-3.04674e-11
2.5724e-11
-1.15353e-12
-3.0258e-11
2.75176e-11
-4.19238e-12
-2.9673e-11
2.76575e-11
-3.06172e-11
2.58903e-11
1.09509e-12
-2.27168e-12
1.1355e-12
2.06783e-12
-6.6267e-12
3.34177e-12
2.93676e-12
-1.06944e-11
5.49009e-12
3.71475e-12
-1.46317e-11
7.71293e-12
4.40817e-12
-1.85536e-11
1.01244e-11
5.01518e-12
-2.25338e-11
1.28245e-11
5.52217e-12
-2.66035e-11
1.58996e-11
5.898e-12
-3.07474e-11
1.94188e-11
6.08578e-12
-3.48944e-11
2.34233e-11
5.99311e-12
-3.89089e-11
2.79056e-11
5.48283e-12
-4.25864e-11
3.27695e-11
4.36302e-12
-4.56763e-11
3.77631e-11
2.38539e-12
-4.79893e-11
4.2385e-11
-6.77752e-13
-4.96524e-11
4.58126e-11
-4.54407e-12
-5.1298e-11
4.71496e-11
-5.39947e-11
4.6707e-11
1.51719e-12
-2.91813e-12
1.55155e-12
2.86669e-12
-8.51509e-12
4.56552e-12
4.0762e-12
-1.375e-11
7.49791e-12
5.16639e-12
-1.88289e-11
1.05275e-11
6.15023e-12
-2.39067e-11
1.38085e-11
7.0313e-12
-2.90906e-11
1.74769e-11
7.79974e-12
-3.44396e-11
2.16521e-11
8.4249e-12
-3.99607e-11
2.64313e-11
8.84347e-12
-4.5603e-11
3.18775e-11
8.94187e-12
-5.12487e-11
3.79939e-11
8.5318e-12
-5.67048e-11
4.46755e-11
7.314e-12
-6.17122e-11
5.16316e-11
4.85979e-12
-6.60137e-11
5.82865e-11
7.56427e-13
-6.95305e-11
6.37181e-11
-4.55815e-12
-7.25086e-11
6.69022e-11
-7.58275e-11
6.80681e-11
1.92196e-12
-3.46985e-12
1.93146e-12
3.63398e-12
-1.01282e-11
5.68192e-12
5.17394e-12
-1.63655e-11
9.32608e-12
6.57192e-12
-2.24336e-11
1.30831e-11
7.85031e-12
-2.85268e-11
1.71421e-11
9.02275e-12
-3.47883e-11
2.16712e-11
1.00908e-11
-4.13108e-11
2.6819e-11
1.10367e-11
-4.81359e-11
3.27097e-11
1.181e-11
-5.52514e-11
3.94304e-11
1.23045e-11
-6.2583e-11
4.7003e-11
1.23169e-11
-6.99789e-11
5.53325e-11
1.1472e-11
-7.7183e-11
6.41224e-11
9.13619e-12
-8.38051e-11
7.27656e-11
4.51196e-12
-8.93011e-11
8.02612e-11
-2.22377e-12
-9.30678e-11
8.53901e-11
-9.57664e-11
8.81794e-11
2.3026e-12
-3.90479e-12
2.26752e-12
4.35644e-12
-1.14018e-11
6.66793e-12
6.20999e-12
-1.84367e-11
1.09359e-11
7.90368e-12
-2.53016e-11
1.53237e-11
9.47118e-12
-3.22273e-11
2.00492e-11
1.09398e-11
-3.93911e-11
2.5306e-11
1.2329e-11
-4.69215e-11
3.12667e-11
1.36459e-11
-5.48998e-11
3.80782e-11
1.48748e-11
-6.33632e-11
4.58492e-11
1.59574e-11
-7.23015e-11
5.46231e-11
1.67492e-11
-8.16434e-11
6.43236e-11
1.69277e-11
-9.12187e-11
7.46657e-11
1.58442e-11
-1.00669e-10
8.50264e-11
1.24499e-11
-1.09246e-10
9.43137e-11
6.25288e-12
-1.1557e-10
1.01068e-10
-1.16791e-10
1.05247e-10
2.65174e-12
-4.20358e-12
2.55389e-12
5.01954e-12
-1.22792e-11
7.5064e-12
7.16187e-12
-1.98716e-11
1.22989e-11
9.12921e-12
-2.7305e-11
1.72086e-11
1.09667e-11
-3.48392e-11
2.24741e-11
1.27163e-11
-4.26808e-11
2.83071e-11
1.44179e-11
-5.09895e-11
3.48958e-11
1.61095e-11
-5.98832e-11
4.24017e-11
1.78237e-11
-6.94456e-11
5.0948e-11
1.95799e-11
-7.97303e-11
6.05925e-11
2.13612e-11
-9.07598e-11
7.12737e-11
2.3055e-11
-1.02513e-10
8.27147e-11
2.43384e-11
-1.14886e-10
9.42665e-11
2.45348e-11
-1.27538e-10
1.04695e-10
2.28771e-11
-1.3933e-10
1.12174e-10
-1.48741e-10
1.16351e-10
2.96227e-12
2.78715e-12
-4.3508e-12
5.60922e-12
8.18746e-12
-1.27156e-11
8.00768e-12
1.33994e-11
-2.05975e-11
1.02164e-11
1.8716e-11
-2.83411e-11
1.229e-11
2.43878e-11
-3.62255e-11
1.42829e-11
3.06354e-11
-4.44779e-11
1.62524e-11
3.76535e-11
-5.32797e-11
1.82631e-11
4.56072e-11
-6.27741e-11
2.03907e-11
5.46217e-11
-7.30738e-11
2.2726e-11
6.4755e-11
-8.42663e-11
2.53758e-11
7.59441e-11
-9.64153e-11
2.84487e-11
8.79076e-11
-1.09554e-10
3.20158e-11
9.99733e-11
-1.23658e-10
3.60153e-11
1.10815e-10
-1.38516e-10
3.97993e-11
1.18334e-10
-1.52889e-10
1.20753e-10
-1.67755e-10
2.13082e-13
-7.99063e-13
1.95884e-13
4.00776e-13
-2.3299e-12
5.76407e-13
5.65089e-13
-3.75731e-12
9.46781e-13
7.06548e-13
-5.13612e-12
1.32986e-12
8.23717e-13
-6.50542e-12
1.74509e-12
9.12428e-13
-7.88766e-12
2.20887e-12
9.64401e-13
-9.28919e-12
2.73458e-12
9.65186e-13
-1.06999e-11
3.33179e-12
8.91236e-13
-1.20907e-11
4.00395e-12
7.06094e-13
-1.34109e-11
4.74436e-12
3.55163e-13
-1.45882e-11
5.5292e-12
-2.45397e-13
-1.55315e-11
6.30665e-12
-1.23438e-12
-1.61437e-11
6.98547e-12
-2.8311e-12
-1.63493e-11
7.43769e-12
-5.08863e-12
-1.61403e-11
7.55679e-12
-1.48906e-11
7.86014e-12
6.37578e-13
-1.57405e-12
5.82898e-13
1.19961e-12
-4.59048e-12
1.71519e-12
1.69257e-12
-7.40507e-12
2.81703e-12
2.11872e-12
-1.01259e-11
3.95604e-12
2.47471e-12
-1.28306e-11
5.18966e-12
2.74941e-12
-1.55667e-11
6.56664e-12
2.92003e-12
-1.83518e-11
8.12715e-12
2.94624e-12
-2.11723e-11
9.90009e-12
2.76198e-12
-2.39796e-11
1.18965e-11
2.26539e-12
-2.66876e-11
1.4098e-11
1.30761e-12
-2.91768e-11
1.64365e-11
-3.2255e-13
-3.13159e-11
1.87645e-11
-2.91228e-12
-3.30233e-11
2.08258e-11
-6.75256e-12
-3.4378e-11
2.22693e-11
-1.14905e-11
-3.56392e-11
2.28234e-11
-3.74726e-11
2.25206e-11
1.05708e-12
-2.30088e-12
9.55988e-13
1.99022e-12
-6.71189e-12
2.8128e-12
2.81165e-12
-1.08319e-11
4.6188e-12
3.52715e-12
-1.48203e-11
6.48368e-12
4.13411e-12
-1.87941e-11
8.50072e-12
4.61833e-12
-2.28296e-11
1.07499e-11
4.9484e-12
-2.69629e-11
1.32979e-11
5.06674e-12
-3.11877e-11
1.61937e-11
4.87702e-12
-3.54516e-11
1.94587e-11
4.22907e-12
-3.96539e-11
2.30686e-11
2.90393e-12
-4.36525e-11
2.69241e-11
6.06201e-13
-4.72962e-11
3.08095e-11
-2.98973e-12
-5.05171e-11
3.43611e-11
-7.97631e-12
-5.34807e-11
3.71055e-11
-1.33401e-11
-5.65134e-11
3.86984e-11
-5.98828e-11
3.95424e-11
1.46763e-12
-2.95512e-12
1.30657e-12
2.76563e-12
-8.62274e-12
3.84371e-12
3.91367e-12
-1.3923e-11
6.30919e-12
4.92351e-12
-1.90642e-11
8.85094e-12
5.79695e-12
-2.42029e-11
1.1595e-11
6.52243e-12
-2.94479e-11
1.46504e-11
7.06867e-12
-3.48607e-11
1.81094e-11
7.37394e-12
-4.04533e-11
2.20418e-11
7.33022e-12
-4.61856e-11
2.64823e-11
6.76217e-12
-5.19607e-11
3.14093e-11
5.40158e-12
-5.76238e-11
3.67094e-11
2.86653e-12
-6.29769e-11
4.21321e-11
-1.28558e-12
-6.78385e-11
4.72637e-11
-7.21357e-12
-7.21551e-11
5.15848e-11
-1.36906e-11
-7.59851e-11
5.46845e-11
-7.96422e-11
5.68552e-11
1.86391e-12
-3.51305e-12
1.62684e-12
3.51582e-12
-1.02537e-11
4.78455e-12
4.98448e-12
-1.65662e-11
7.84883e-12
6.28999e-12
-2.27042e-11
1.10009e-11
7.44243e-12
-2.8863e-11
1.43954e-11
8.43902e-12
-3.51852e-11
1.81673e-11
9.25847e-12
-4.17622e-11
2.24316e-11
9.85062e-12
-4.86337e-11
2.72776e-11
1.01197e-11
-5.57856e-11
3.27551e-11
9.89926e-12
-6.31429e-11
3.88506e-11
8.91231e-12
-7.05555e-11
4.54479e-11
6.71811e-12
-7.77747e-11
5.22793e-11
2.7064e-12
-8.44258e-11
5.88987e-11
-3.61113e-12
-8.99782e-11
6.47394e-11
-1.1259e-11
-9.37898e-11
6.92801e-11
-9.613e-11
7.26758e-11
2.23931e-12
-3.95247e-12
1.9102e-12
4.22791e-12
-1.154e-11
5.61571e-12
6.00464e-12
-1.86568e-11
9.20491e-12
7.59962e-12
-2.55963e-11
1.28864e-11
9.03402e-12
-3.25887e-11
1.68382e-11
1.03188e-11
-3.98086e-11
2.1216e-11
1.1451e-11
-4.73785e-11
2.61534e-11
1.24064e-11
-5.53702e-11
3.17554e-11
1.31265e-11
-6.38047e-11
3.80848e-11
1.34958e-11
-7.26466e-11
4.51363e-11
1.33004e-11
-8.17846e-11
5.27925e-11
1.21557e-11
-9.09895e-11
6.07678e-11
9.43429e-12
-9.98275e-11
6.85683e-11
4.39143e-12
-1.07489e-10
7.55348e-11
-2.65534e-12
-1.12658e-10
8.10083e-11
-1.12507e-10
8.51677e-11
2.58636e-12
-4.25396e-12
2.15176e-12
4.88707e-12
-1.2425e-11
6.32275e-12
6.95109e-12
-2.01033e-11
1.03536e-11
8.81885e-12
-2.76131e-11
1.44733e-11
1.05235e-11
-3.52127e-11
1.88771e-11
1.20918e-11
-4.31037e-11
2.37349e-11
1.35432e-11
-5.1436e-11
2.91926e-11
1.4887e-11
-6.03109e-11
3.5365e-11
1.6117e-11
-6.9784e-11
4.2322e-11
1.71998e-11
-7.9863e-11
5.00607e-11
1.80515e-11
-9.04948e-11
5.84566e-11
1.8489e-11
-1.0154e-10
6.71942e-11
1.8176e-11
-1.1272e-10
7.56998e-11
1.66649e-11
-1.23507e-10
8.31402e-11
1.39555e-11
-1.32825e-10
8.86202e-11
-1.39577e-10
9.23415e-11
2.89753e-12
2.34863e-12
-4.40213e-12
5.4784e-12
6.89744e-12
-1.28642e-11
7.80043e-12
1.12816e-11
-2.08329e-11
9.91308e-12
1.57435e-11
-2.86526e-11
1.18602e-11
2.04878e-11
-3.65999e-11
1.36827e-11
2.56921e-11
-4.48951e-11
1.54199e-11
3.15068e-11
-5.37075e-11
1.7112e-11
3.80488e-11
-6.31592e-11
1.88009e-11
4.53869e-11
-7.33278e-11
2.0531e-11
5.35123e-11
-8.42437e-11
2.23464e-11
6.22861e-11
-9.58791e-11
2.42797e-11
7.136e-11
-1.08125e-10
2.6351e-11
8.00846e-11
-1.20754e-10
2.86188e-11
8.74652e-11
-1.33339e-10
3.10697e-11
9.2366e-11
-1.44764e-10
9.4297e-11
-1.5661e-10
2.05452e-13
-8.0687e-13
1.52375e-13
3.85203e-13
-2.35272e-12
4.48282e-13
5.39981e-13
-3.7945e-12
7.36046e-13
6.68911e-13
-5.18801e-12
1.03329e-12
7.68836e-13
-6.57289e-12
1.35472e-12
8.33287e-13
-7.9725e-12
1.71247e-12
8.50832e-13
-9.39544e-12
2.1161e-12
8.02688e-13
-1.08361e-11
2.57193e-12
6.59453e-13
-1.2274e-11
3.08127e-12
3.77227e-13
-1.36736e-11
3.63765e-12
-1.07372e-13
-1.49883e-11
4.22283e-12
-8.86115e-13
-1.61654e-11
4.80195e-12
-2.09514e-12
-1.71528e-11
5.32198e-12
-3.9111e-12
-1.78848e-11
5.72413e-12
-6.26344e-12
-1.82149e-11
5.97042e-12
-1.70931e-11
6.50855e-12
6.15213e-13
-1.5895e-12
4.53504e-13
1.15397e-12
-4.63567e-12
1.33418e-12
1.61906e-12
-7.47843e-12
2.19044e-12
2.00869e-12
-1.02271e-11
3.07427e-12
2.31453e-12
-1.29603e-11
4.02915e-12
2.51888e-12
-1.57272e-11
5.09119e-12
2.59001e-12
-1.85489e-11
6.28921e-12
2.47555e-12
-2.14188e-11
7.64242e-12
2.09371e-12
-2.43012e-11
9.15529e-12
1.32387e-12
-2.71321e-11
1.08097e-11
-1.76739e-15
-2.98268e-11
1.25533e-11
-2.10304e-12
-3.22987e-11
1.42856e-11
-5.23157e-12
-3.44955e-11
1.58527e-11
-9.51947e-12
-3.64304e-11
1.7078e-11
-1.42916e-11
-3.80947e-11
1.78397e-11
-3.97137e-11
1.80122e-11
1.02147e-12
-2.32348e-12
7.43969e-13
1.91762e-12
-6.7778e-12
2.18858e-12
2.69491e-12
-1.09381e-11
3.5924e-12
3.35286e-12
-1.49648e-11
5.03954e-12
3.88116e-12
-1.8976e-11
6.60061e-12
4.25558e-12
-2.30497e-11
8.33503e-12
4.43137e-12
-2.72251e-11
1.02909e-11
4.3335e-12
-3.15019e-11
1.2501e-11
3.84412e-12
-3.5839e-11
1.4975e-11
2.79025e-12
-4.01548e-11
1.76874e-11
9.36795e-13
-4.43347e-11
2.05611e-11
-1.99831e-12
-4.82576e-11
2.34466e-11
-6.24187e-12
-5.18579e-11
2.61195e-11
-1.16066e-11
-5.52055e-11
2.83278e-11
-1.66816e-11
-5.83907e-11
2.98893e-11
-6.14553e-11
3.08919e-11
1.42103e-12
-2.98388e-12
1.01708e-12
2.67078e-12
-8.70629e-12
2.99154e-12
3.76152e-12
-1.40564e-11
4.90834e-12
4.6971e-12
-1.92434e-11
6.88075e-12
5.46968e-12
-2.44243e-11
9.00418e-12
6.05537e-12
-2.97086e-11
1.136e-11
6.40687e-12
-3.51585e-11
1.40148e-11
6.44218e-12
-4.07882e-11
1.70153e-11
6.02989e-12
-4.65614e-11
2.03789e-11
4.97337e-12
-5.23888e-11
2.40789e-11
2.99815e-12
-5.8125e-11
2.80239e-11
-2.36287e-13
-6.35779e-11
3.20361e-11
-5.01702e-12
-6.85477e-11
3.58547e-11
-1.11508e-11
-7.28979e-11
3.91995e-11
-1.70308e-11
-7.65405e-11
4.18359e-11
-7.96865e-11
4.37409e-11
1.80912e-12
-3.54664e-12
1.2667e-12
3.40448e-12
-1.03509e-11
3.72465e-12
4.8064e-12
-1.67203e-11
6.10733e-12
6.02604e-12
-2.29086e-11
8.55338e-12
7.06274e-12
-2.91107e-11
1.118e-11
7.90029e-12
-3.54679e-11
1.40878e-11
8.50032e-12
-4.20688e-11
1.73601e-11
8.79176e-12
-4.89486e-11
2.10567e-11
8.65611e-12
-5.60866e-11
2.52032e-11
7.90892e-12
-6.33981e-11
2.97747e-11
6.27645e-12
-7.07173e-11
3.46712e-11
3.37953e-12
-7.77718e-11
3.96926e-11
-1.20213e-12
-8.41478e-11
4.45473e-11
-7.56811e-12
-8.92555e-11
4.89206e-11
-1.43865e-11
-9.24168e-11
5.25064e-11
-9.39049e-11
5.51873e-11
2.17932e-12
-3.98945e-12
1.48763e-12
4.10624e-12
-1.16467e-11
4.3725e-12
5.81069e-12
-1.88248e-11
7.16365e-12
7.31342e-12
-2.58168e-11
1.00206e-11
8.62458e-12
-3.28508e-11
1.30784e-11
9.7416e-12
-4.0098e-11
1.64531e-11
1.06448e-11
-4.7674e-11
2.02414e-11
1.12897e-11
-5.5639e-11
2.45133e-11
1.15968e-11
-6.39957e-11
2.93008e-11
1.14352e-11
-7.26802e-11
3.45796e-11
1.05983e-11
-8.15389e-11
4.02385e-11
8.76849e-12
-9.0285e-11
4.60483e-11
5.51528e-12
-9.84183e-11
5.16654e-11
4.92175e-13
-1.05088e-10
5.6703e-11
-5.62264e-12
-1.09079e-10
6.07853e-11
-1.0784e-10
6.38423e-11
2.52405e-12
-4.29287e-12
1.67602e-12
4.76099e-12
-1.25371e-11
4.92378e-12
6.75085e-12
-2.02788e-11
8.05873e-12
8.5248e-12
-2.78412e-11
1.12561e-11
1.01055e-11
-3.54792e-11
1.46637e-11
1.15067e-11
-4.33889e-11
1.84087e-11
1.27322e-11
-5.17096e-11
2.25961e-11
1.37731e-11
-6.05249e-11
2.7302e-11
1.46036e-11
-6.98624e-11
3.25606e-11
1.51763e-11
-7.9686e-11
3.83433e-11
1.54124e-11
-8.98787e-11
4.45226e-11
1.51864e-11
-1.00215e-10
5.08276e-11
1.43377e-11
-1.10326e-10
5.68323e-11
1.27924e-11
-1.19649e-10
6.20155e-11
1.09308e-11
-1.27327e-10
6.58857e-11
-1.32824e-10
6.85037e-11
2.83546e-12
1.82965e-12
-4.44163e-12
5.3531e-12
5.37214e-12
-1.29777e-11
7.6022e-12
8.78243e-12
-2.10101e-11
9.62357e-12
1.22457e-11
-2.88811e-11
1.14513e-11
1.59174e-11
-3.68632e-11
1.31147e-11
1.99301e-11
-4.51695e-11
1.46393e-11
2.43923e-11
-5.39566e-11
1.60489e-11
2.93806e-11
-6.3325e-11
1.7368e-11
3.49264e-11
-7.33185e-11
1.86273e-11
4.09926e-11
-8.39166e-11
1.9871e-11
4.74326e-11
-9.50184e-11
2.11714e-11
5.39346e-11
-1.06423e-10
2.2682e-11
5.99937e-11
-1.1781e-10
2.47659e-11
6.49539e-11
-1.28739e-10
2.77681e-11
6.81912e-11
-1.38388e-10
6.94674e-11
-1.48903e-10
1.99069e-13
-8.12244e-13
1.03955e-13
3.7218e-13
-2.36853e-12
3.05783e-13
5.19015e-13
-3.82061e-12
5.01967e-13
6.37614e-13
-5.22478e-12
7.04442e-13
7.23548e-13
-6.62071e-12
9.23022e-13
7.68738e-13
-8.03211e-12
1.16563e-12
7.59805e-13
-9.46897e-12
1.43839e-12
6.75783e-13
-1.09285e-11
1.74516e-12
4.85455e-13
-1.23947e-11
2.08638e-12
1.44777e-13
-1.38392e-11
2.45762e-12
-4.06e-13
-1.52232e-11
2.84795e-12
-1.2479e-12
-1.65006e-11
3.23781e-12
-2.49448e-12
-1.76118e-11
3.59906e-12
-4.29251e-12
-1.84497e-11
3.9028e-12
-6.57909e-12
-1.87831e-11
4.12422e-12
-1.74833e-11
4.57012e-12
5.96459e-13
-1.60047e-12
3.09457e-13
1.11573e-12
-4.66788e-12
9.10313e-13
1.55757e-12
-7.53099e-12
1.49425e-12
1.91706e-12
-1.02996e-11
2.09638e-12
2.18218e-12
-1.30526e-11
2.74569e-12
2.3306e-12
-1.58398e-11
3.46588e-12
2.32509e-12
-1.86844e-11
4.27548e-12
2.10731e-12
-2.1584e-11
5.1862e-12
1.59097e-12
-2.45092e-11
6.19971e-12
6.56448e-13
-2.74051e-11
7.30347e-12
-8.51106e-13
-3.01962e-11
8.46588e-12
-3.11592e-12
-3.27966e-11
9.62904e-12
-6.31811e-12
-3.51265e-11
1.07073e-11
-1.04988e-11
-3.71115e-11
1.16044e-11
-1.50079e-11
-3.86182e-11
1.22315e-11
-3.98102e-11
1.24279e-11
9.91507e-13
-2.33986e-12
5.07822e-13
1.8566e-12
-6.8256e-12
1.4938e-12
2.59703e-12
-1.1015e-11
2.45145e-12
3.20742e-12
-1.50688e-11
3.43746e-12
3.6717e-12
-1.9105e-11
4.49891e-12
3.95861e-12
-2.32025e-11
5.67495e-12
4.01522e-12
-2.74021e-11
6.9966e-12
3.7581e-12
-3.17064e-11
8.48394e-12
3.06422e-12
-3.60788e-11
1.01411e-11
1.76524e-12
-4.04432e-11
1.19503e-11
-3.48414e-13
-4.46879e-11
1.3864e-11
-3.49477e-12
-4.86811e-11
1.5793e-11
-7.78087e-12
-5.23153e-11
1.7607e-11
-1.28799e-11
-5.55632e-11
1.91589e-11
-1.74409e-11
-5.84173e-11
2.03046e-11
-6.09491e-11
2.10065e-11
1.38171e-12
-3.00495e-12
6.94468e-13
2.59081e-12
-8.76743e-12
2.04251e-12
3.63361e-12
-1.41535e-11
3.3504e-12
4.50769e-12
-1.9372e-11
4.69434e-12
5.19795e-12
-2.45799e-11
6.13803e-12
5.67185e-12
-2.98864e-11
7.73519e-12
5.87228e-12
-3.53535e-11
9.52893e-12
5.70797e-12
-4.09948e-11
1.15479e-11
5.04324e-12
-4.67733e-11
1.38001e-11
3.69099e-12
-5.25967e-11
1.62664e-11
1.41522e-12
-5.83113e-11
1.88884e-11
-2.03512e-12
-6.3704e-11
2.15554e-11
-6.79021e-12
-6.853e-11
2.41115e-11
-1.24919e-11
-7.25739e-11
2.63867e-11
-1.76449e-11
-7.57006e-11
2.81938e-11
-7.82053e-11
2.94181e-11
1.76272e-12
-3.57138e-12
8.65135e-13
3.31032e-12
-1.04223e-11
2.54368e-12
4.65625e-12
-1.68321e-11
4.16971e-12
5.80455e-12
-2.30544e-11
5.83639e-12
6.74641e-12
-2.92825e-11
7.62205e-12
7.45614e-12
-3.56562e-11
9.59329e-12
7.88505e-12
-4.22609e-11
1.1804e-11
7.95282e-12
-4.91263e-11
1.42905e-11
7.53823e-12
-5.6223e-11
1.70656e-11
6.47067e-12
-6.34523e-11
2.01091e-11
4.52422e-12
-7.06275e-11
2.33537e-11
1.42632e-12
-7.74456e-11
2.66688e-11
-3.06321e-12
-8.34533e-11
2.98734e-11
-8.866e-12
-8.80187e-11
3.27711e-11
-1.48004e-11
-9.04824e-11
3.5128e-11
-9.12474e-11
3.67764e-11
2.12833e-12
-4.01666e-12
1.01623e-12
4.003e-12
-1.17248e-11
2.98668e-12
5.64659e-12
-1.89463e-11
4.89168e-12
7.07234e-12
-2.59726e-11
6.83842e-12
8.282e-12
-3.30298e-11
8.91716e-12
9.26338e-12
-4.02854e-11
1.12049e-11
9.98661e-12
-4.78486e-11
1.37638e-11
1.03987e-11
-5.57686e-11
1.66365e-11
1.04184e-11
-6.40314e-11
1.98383e-11
9.93055e-12
-7.25476e-11
2.33471e-11
8.77967e-12
-8.11301e-11
2.70831e-11
6.76027e-12
-8.94537e-11
3.08896e-11
3.6298e-12
-9.69871e-11
3.45445e-11
-7.72307e-13
-1.02885e-10
3.78043e-11
-5.9265e-12
-1.06039e-10
4.04012e-11
-1.04166e-10
4.22136e-11
2.4709e-12
-4.32148e-12
1.14512e-12
4.65361e-12
-1.26189e-11
3.36378e-12
6.58074e-12
-2.0405e-11
5.50366e-12
8.27602e-12
-2.8001e-11
7.68248e-12
9.75382e-12
-3.56585e-11
9.99918e-12
1.10189e-11
-4.35682e-11
1.25379e-11
1.20654e-11
-5.186e-11
1.53665e-11
1.28764e-11
-6.06023e-11
1.85303e-11
1.34249e-11
-6.9799e-11
2.2045e-11
1.36781e-11
-7.93799e-11
2.58828e-11
1.36046e-11
-8.91851e-11
2.9948e-11
1.31842e-11
-9.89454e-11
3.40491e-11
1.24349e-11
-1.08268e-10
3.79039e-11
1.14716e-11
-1.16636e-10
4.11852e-11
1.05502e-11
-1.23375e-10
4.35732e-11
-1.28321e-10
4.50677e-11
2.78228e-12
1.25028e-12
-4.47056e-12
5.2459e-12
3.67062e-12
-1.30603e-11
7.43302e-12
5.99872e-12
-2.11368e-11
9.37735e-12
8.35896e-12
-2.90397e-11
1.11054e-11
1.08555e-11
-3.70375e-11
1.26379e-11
1.35761e-11
-4.53369e-11
1.3992e-11
1.65907e-11
-5.40831e-11
1.51841e-11
1.99445e-11
-6.33586e-11
1.62369e-11
2.36502e-11
-7.31798e-11
1.71925e-11
2.76728e-11
-8.34878e-11
1.8134e-11