/*--------------------------------*- C++ -*----------------------------------*\
| =========                 |                                                 |
| \\      /  F ield         | OpenFOAM: The Open Source CFD Toolbox           |
|  \\    /   O peration     | Version:  v1912                                 |
|   \\  /    A nd           | Website:  www.openfoam.com                      |
|    \\/     M anipulation  |                                                 |
\*---------------------------------------------------------------------------*/
FoamFile
{
    version     2.0;
    format      ascii;
    class       surfaceScalarField;
    location    "0.26/fluid";
    object      phi;
}
// * * * * * * * * * * * * * * * * * * * * * * * * * * * * * * * * * * * * * //

dimensions      [0 3 -1 0 0 0 0];
oriented        oriented;


internalField   nonuniform List<scalar> 
41600
(
5.173e-05
1.09648e-05
2.09663e-07
-4.04491e-07
4.46043e-05
7.4129e-06
6.54981e-08
-3.52699e-07
4.02956e-05
4.57341e-06
-2.83396e-07
1.86457e-08
3.80795e-05
2.4239e-06
-7.11799e-07
5.04081e-07
3.68197e-05
1.40403e-06
-1.25915e-06
1.11487e-06
3.59643e-05
9.40573e-07
-1.94694e-06
1.86175e-06
3.52213e-05
7.73064e-07
-2.81424e-06
2.78418e-06
3.44472e-05
7.44882e-07
-3.91309e-06
3.94233e-06
3.35501e-05
7.95149e-07
-5.3181e-06
5.42003e-06
3.2446e-05
8.81142e-07
-7.14479e-06
7.36778e-06
3.10311e-05
9.95073e-07
-9.55233e-06
9.9721e-06
2.91092e-05
1.06177e-06
-1.27638e-05
1.36239e-05
2.63415e-05
1.1169e-06
-1.72071e-05
1.88579e-05
2.1844e-05
8.40303e-07
-2.29958e-05
2.6653e-05
1.39861e-05
5.95271e-07
-3.05879e-05
3.78506e-05
-1.61401e-06
-2.7852e-05
4.34521e-05
6.52881e-05
8.42466e-06
1.64538e-07
-4.12435e-07
6.51961e-05
7.88267e-06
-1.19218e-07
-2.58595e-07
6.43069e-05
5.82488e-06
-6.48377e-07
2.86084e-07
6.32109e-05
3.81219e-06
-1.28835e-06
9.96059e-07
6.21682e-05
2.65411e-06
-2.09747e-06
1.89014e-06
6.11664e-05
2.06753e-06
-3.12171e-06
2.99656e-06
6.01211e-05
1.86614e-06
-4.42355e-06
4.37578e-06
5.89353e-05
1.89666e-06
-6.08431e-06
6.11829e-06
5.75108e-05
2.08712e-06
-8.21846e-06
8.35098e-06
5.57129e-05
2.38749e-06
-1.10008e-05
1.12924e-05
5.33769e-05
2.77875e-06
-1.46723e-05
1.52247e-05
5.01227e-05
3.18814e-06
-1.95768e-05
2.07045e-05
4.543e-05
3.62382e-06
-2.63093e-05
2.8495e-05
3.76255e-05
3.78702e-06
-3.51178e-05
3.99756e-05
2.4733e-05
3.76041e-06
-4.61985e-05
5.5926e-05
1.32592e-06
-4.19721e-05
6.37651e-05
6.56884e-05
5.49152e-06
1.5535e-07
-4.10654e-07
6.72618e-05
6.70068e-06
-1.51389e-07
-2.40001e-07
6.77253e-05
5.738e-06
-7.02816e-07
3.26193e-07
6.74687e-05
4.37366e-06
-1.3647e-06
1.05989e-06
6.68956e-05
3.44433e-06
-2.2004e-06
1.98327e-06
6.61407e-05
2.95439e-06
-3.25944e-06
3.12743e-06
6.52225e-05
2.8362e-06
-4.60661e-06
4.55473e-06
6.40934e-05
2.99324e-06
-6.32663e-06
6.35917e-06
6.26735e-05
3.37287e-06
-8.53796e-06
8.67215e-06
6.08241e-05
3.93863e-06
-1.14244e-05
1.17226e-05
5.83578e-05
4.67637e-06
-1.5236e-05
1.58047e-05
5.48436e-05
5.53454e-06
-2.03431e-05
2.1511e-05
4.96812e-05
6.50812e-06
-2.73582e-05
2.96362e-05
4.10423e-05
7.32884e-06
-3.65942e-05
4.16914e-05
2.67796e-05
7.76909e-06
-4.82076e-05
5.84616e-05
4.87922e-06
-4.39789e-05
6.72051e-05
6.44806e-05
3.7664e-06
1.71745e-07
-4.27248e-07
6.6156e-05
5.41827e-06
-1.20313e-07
-2.72648e-07
6.71041e-05
5.16788e-06
-6.59259e-07
2.81289e-07
6.73779e-05
4.40576e-06
-1.3072e-06
1.00125e-06
6.72257e-05
3.81497e-06
-2.12482e-06
1.90645e-06
6.67761e-05
3.53754e-06
-3.15891e-06
3.0253e-06
6.60806e-05
3.58571e-06
-4.47126e-06
4.41724e-06
6.51224e-05
3.92189e-06
-6.14398e-06
6.17361e-06
6.384e-05
4.52489e-06
-8.29126e-06
8.42161e-06
6.20986e-05
5.38681e-06
-1.10954e-05
1.13887e-05
5.97001e-05
6.51168e-06
-1.47989e-05
1.53621e-05
5.61843e-05
7.88615e-06
-1.97831e-05
2.09472e-05
5.09014e-05
9.50882e-06
-2.6645e-05
2.89271e-05
4.19669e-05
1.11281e-05
-3.57687e-05
4.0904e-05
2.71198e-05
1.22614e-05
-4.73073e-05
5.76621e-05
8.52896e-06
-4.34038e-05
6.68737e-05
6.38165e-05
2.70479e-06
2.00853e-07
-4.55794e-07
6.5315e-05
4.3127e-06
-6.11152e-08
-3.31766e-07
6.63866e-05
4.47418e-06
-5.76151e-07
1.98217e-07
6.69373e-05
4.16126e-06
-1.19997e-06
8.93819e-07
6.70771e-05
3.89432e-06
-1.98614e-06
1.76693e-06
6.6894e-05
3.8561e-06
-2.97595e-06
2.84051e-06
6.64364e-05
4.10062e-06
-4.22562e-06
4.16834e-06
6.56991e-05
4.63498e-06
-5.81134e-06
5.83552e-06
6.46336e-05
5.46888e-06
-7.83806e-06
7.95964e-06
6.31106e-05
6.6312e-06
-1.048e-05
1.07586e-05
6.09273e-05
8.1558e-06
-1.3961e-05
1.45001e-05
5.7592e-05
1.00991e-05
-1.86643e-05
1.97867e-05
5.23855e-05
1.25041e-05
-2.5146e-05
2.73572e-05
4.32714e-05
1.52238e-05
-3.38893e-05
3.89077e-05
2.77713e-05
1.76116e-05
-4.50092e-05
5.51591e-05
1.31497e-05
-4.16389e-05
6.47895e-05
6.34949e-05
1.96443e-06
2.35895e-07
-4.90424e-07
6.48406e-05
3.35982e-06
1.15456e-08
-4.04378e-07
6.5953e-05
3.73994e-06
-4.73962e-07
9.58014e-08
6.66782e-05
3.74282e-06
-1.06865e-06
7.61851e-07
6.70392e-05
3.754e-06
-1.81666e-06
1.59607e-06
6.70871e-05
3.94619e-06
-2.75249e-06
2.61447e-06
6.68597e-05
4.38959e-06
-3.92548e-06
3.86387e-06
6.63558e-05
5.12194e-06
-5.40437e-06
5.42137e-06
6.55335e-05
6.1811e-06
-7.28275e-06
7.39276e-06
6.42663e-05
7.63958e-06
-9.72418e-06
9.98304e-06
6.23443e-05
9.57158e-06
-1.29289e-05
1.34351e-05
5.92402e-05
1.21404e-05
-1.72802e-05
1.83431e-05
5.41661e-05
1.54708e-05
-2.32775e-05
2.53849e-05
4.49046e-05
1.96509e-05
-3.1526e-05
3.63605e-05
2.87174e-05
2.39815e-05
-4.20719e-05
5.18892e-05
1.92301e-05
-3.94427e-05
6.20797e-05
6.3367e-05
1.35189e-06
2.76309e-07
-5.30723e-07
6.46446e-05
2.4753e-06
9.52591e-08
-4.88402e-07
6.57973e-05
2.96615e-06
-3.56231e-07
-2.26874e-08
6.66529e-05
3.19532e-06
-9.17355e-07
6.09241e-07
6.71936e-05
3.43618e-06
-1.62099e-06
1.39816e-06
6.74524e-05
3.82912e-06
-2.49315e-06
2.35141e-06
6.74648e-05
4.44501e-06
-3.57417e-06
3.50636e-06
6.72413e-05
5.33911e-06
-4.92149e-06
4.9278e-06
6.67625e-05
6.56853e-06
-6.61096e-06
6.70227e-06
6.59337e-05
8.24493e-06
-8.78346e-06
9.00694e-06
6.45862e-05
1.04799e-05
-1.15951e-05
1.20342e-05
6.22212e-05
1.35805e-05
-1.53953e-05
1.63202e-05
5.80512e-05
1.78101e-05
-2.05604e-05
2.23912e-05
4.94831e-05
2.39532e-05
-2.77901e-05
3.20559e-05
3.31142e-05
3.16844e-05
-3.69136e-05
4.55796e-05
3.15014e-05
-3.51625e-05
5.60054e-05
6.33348e-05
3.19704e-07
-5.74304e-07
7.71696e-07
6.46161e-05
1.85135e-07
-5.78975e-07
1.58778e-06
6.58332e-05
-2.29923e-07
-1.50219e-07
2.12921e-06
6.68061e-05
-7.55335e-07
4.45395e-07
2.53241e-06
6.75007e-05
-1.41182e-06
1.18625e-06
2.96714e-06
6.79445e-05
-2.2165e-06
2.07051e-06
3.53135e-06
6.81752e-05
-3.20042e-06
3.12592e-06
4.28877e-06
6.82142e-05
-4.40949e-06
4.40463e-06
5.30495e-06
6.8059e-05
-5.90229e-06
5.97471e-06
6.65132e-06
6.76396e-05
-7.79676e-06
7.98533e-06
8.47577e-06
6.68203e-05
-1.02076e-05
1.05828e-05
1.09241e-05
6.51376e-05
-1.34486e-05
1.42428e-05
1.44689e-05
6.18701e-05
-1.77769e-05
1.93527e-05
1.95018e-05
5.42629e-05
-2.39861e-05
2.77202e-05
2.78263e-05
3.88942e-05
-3.17257e-05
3.93324e-05
3.94465e-05
-3.15136e-05
5.08843e-05
5.10247e-05
5.16628e-05
1.09704e-05
7.64301e-08
4.44224e-05
7.42808e-06
-1.22206e-07
3.99934e-05
4.59083e-06
-4.45164e-07
3.76586e-05
2.44338e-06
-8.20443e-07
3.62732e-05
1.42864e-06
-1.30233e-06
3.52715e-05
9.73114e-07
-1.91842e-06
3.4346e-05
8.16998e-07
-2.70574e-06
3.33365e-05
8.04296e-07
-3.70786e-06
3.21306e-05
8.76236e-07
-4.98846e-06
3.06244e-05
9.91631e-07
-6.63024e-06
2.86828e-05
1.14888e-06
-8.75953e-06
2.61114e-05
1.27702e-06
-1.14694e-05
2.25237e-05
1.43076e-06
-1.50502e-05
1.73113e-05
1.3209e-06
-1.91043e-05
9.08903e-06
1.26384e-06
-2.36295e-05
-5.02208e-07
-1.82608e-05
6.51957e-05
8.43966e-06
-3.62356e-10
6.49456e-05
7.91545e-06
-3.56508e-07
6.38777e-05
5.86746e-06
-8.57143e-07
6.25963e-05
3.8635e-06
-1.42707e-06
6.13537e-05
2.71895e-06
-2.14517e-06
6.01192e-05
2.15233e-06
-3.06639e-06
5.87844e-05
1.97937e-06
-4.25117e-06
5.7225e-05
2.04863e-06
-5.76925e-06
5.53089e-05
2.29201e-06
-7.71813e-06
5.28648e-05
2.66198e-06
-1.0227e-05
4.96765e-05
3.14831e-06
-1.34835e-05
4.53525e-05
3.67716e-06
-1.76529e-05
3.93163e-05
4.27839e-06
-2.31207e-05
3.03194e-05
4.63336e-06
-2.94333e-05
1.6784e-05
4.78503e-06
-3.61843e-05
2.29433e-06
-2.79846e-05
6.55946e-05
5.51437e-06
-1.40087e-08
6.70056e-05
6.74925e-06
-3.9613e-07
6.72848e-05
5.80415e-06
-9.18702e-07
6.68362e-05
4.45592e-06
-1.50855e-06
6.60562e-05
3.54894e-06
-2.25037e-06
6.50607e-05
3.09132e-06
-3.20295e-06
6.38435e-05
3.01907e-06
-4.42914e-06
6.23282e-05
3.23915e-06
-6.00183e-06
6.03991e-05
3.70498e-06
-8.02185e-06
5.78781e-05
4.3844e-06
-1.06258e-05
5.45224e-05
5.27564e-06
-1.40076e-05
4.98848e-05
6.32302e-06
-1.83514e-05
4.33049e-05
7.54864e-06
-2.40486e-05
3.33923e-05
8.61991e-06
-3.06682e-05
1.8424e-05
9.27813e-06
-3.77324e-05
5.90059e-06
-2.91611e-05
6.43886e-05
3.79613e-06
1.37736e-09
6.59042e-05
5.481e-06
-3.67697e-07
6.66724e-05
5.25497e-06
-8.78277e-07
6.67602e-05
4.51571e-06
-1.45474e-06
6.64082e-05
3.95557e-06
-2.17945e-06
6.5727e-05
3.72214e-06
-3.10858e-06
6.47441e-05
3.83294e-06
-4.30219e-06
6.34142e-05
4.25587e-06
-5.83081e-06
6.16408e-05
4.97851e-06
-7.7914e-06
5.9249e-05
6.00025e-06
-1.03195e-05
5.59847e-05
7.34297e-06
-1.3602e-05
5.13677e-05
8.98976e-06
-1.78328e-05
4.46813e-05
1.09788e-05
-2.33887e-05
3.44685e-05
1.29567e-05
-2.98927e-05
1.88728e-05
1.44271e-05
-3.68605e-05
9.88388e-06
-2.85143e-05
6.37271e-05
2.74043e-06
2.94179e-08
6.50707e-05
4.38763e-06
-3.11316e-07
6.59697e-05
4.57898e-06
-7.99148e-07
6.63437e-05
4.29452e-06
-1.3528e-06
6.62958e-05
4.06534e-06
-2.048e-06
6.58965e-05
4.08124e-06
-2.93576e-06
6.51717e-05
4.40309e-06
-4.07096e-06
6.40895e-05
5.04559e-06
-5.5189e-06
6.25681e-05
6.03024e-06
-7.36835e-06
6.04394e-05
7.39761e-06
-9.74867e-06
5.74453e-05
9.20689e-06
-1.28308e-05
5.30678e-05
1.15175e-05
-1.68146e-05
4.65097e-05
1.44338e-05
-2.20429e-05
3.61264e-05
1.76816e-05
-2.82309e-05
1.97863e-05
2.06346e-05
-3.48767e-05
1.50597e-05
-2.70285e-05
6.34084e-05
2.00482e-06
6.30754e-08
6.46054e-05
3.44429e-06
-2.42042e-07
6.55539e-05
3.8584e-06
-7.019e-07
6.61138e-05
3.89404e-06
-1.22809e-06
6.63014e-05
3.94861e-06
-1.8875e-06
6.61518e-05
4.20313e-06
-2.72475e-06
6.56817e-05
4.73608e-06
-3.78841e-06
6.4865e-05
5.59507e-06
-5.13719e-06
6.36292e-05
6.83304e-06
-6.84973e-06
6.18098e-05
8.53999e-06
-9.04717e-06
5.91436e-05
1.08244e-05
-1.18803e-05
5.50699e-05
1.38657e-05
-1.55546e-05
4.87139e-05
1.78788e-05
-2.03665e-05
3.82059e-05
2.28134e-05
-2.61498e-05
2.10729e-05
2.80609e-05
-3.23651e-05
2.19007e-05
-2.52108e-05
6.3284e-05
1.39543e-06
1.01695e-07
6.442e-05
2.56593e-06
-1.62415e-07
6.5419e-05
3.09331e-06
-5.90125e-07
6.61226e-05
3.35788e-06
-1.08476e-06
6.65072e-05
3.64562e-06
-1.70258e-06
6.65917e-05
4.10593e-06
-2.48044e-06
6.63934e-05
4.8189e-06
-3.45868e-06
6.5902e-05
5.85131e-06
-4.68632e-06
6.50732e-05
7.27753e-06
-6.2267e-06
6.37814e-05
9.23227e-06
-8.1839e-06
6.18153e-05
1.18686e-05
-1.06732e-05
5.86419e-05
1.55296e-05
-1.38858e-05
5.33895e-05
2.05982e-05
-1.80274e-05
4.37094e-05
2.7766e-05
-2.30626e-05
2.63115e-05
3.68888e-05
-2.83437e-05
3.51742e-05
-2.21246e-05
6.32556e-05
1.42983e-07
8.16596e-07
6.4403e-05
-7.71244e-08
1.68078e-06
6.54771e-05
-4.70439e-07
2.25966e-06
6.63119e-05
-9.3149e-07
2.69927e-06
6.68686e-05
-1.5051e-06
3.18218e-06
6.71622e-05
-2.21987e-06
3.81571e-06
6.72151e-05
-3.1077e-06
4.67329e-06
6.70313e-05
-4.20755e-06
5.83317e-06
6.65888e-05
-5.56765e-06
7.38535e-06
6.57928e-05
-7.27448e-06
9.50601e-06
6.44756e-05
-9.40901e-06
1.23872e-05
6.21404e-05
-1.21465e-05
1.65628e-05
5.79999e-05
-1.56026e-05
2.25644e-05
4.9463e-05
-1.98809e-05
3.21977e-05
3.31178e-05
-2.42416e-05
4.57499e-05
-1.94396e-05
5.6218e-05
5.1608e-05
1.09757e-05
-7.30616e-09
4.42703e-05
7.44199e-06
-2.26454e-07
3.97329e-05
4.60719e-06
-5.14965e-07
3.72858e-05
2.46179e-06
-8.35086e-07
3.5777e-05
1.45167e-06
-1.24527e-06
3.46294e-05
1.00319e-06
-1.77395e-06
3.35194e-05
8.56941e-07
-2.45267e-06
3.2268e-05
8.57172e-07
-3.31368e-06
3.07375e-05
9.46203e-07
-4.40418e-06
2.87972e-05
1.08304e-06
-5.77293e-06
2.62739e-05
1.26854e-06
-7.50481e-06
2.29797e-05
1.43128e-06
-9.60648e-06
1.85556e-05
1.62981e-06
-1.22559e-05
1.28387e-05
1.58308e-06
-1.49705e-05
5.26944e-06
1.53425e-06
-1.75944e-05
-1.35217e-07
-1.28561e-05
6.51193e-05
8.45405e-06
-9.80618e-08
6.47339e-05
7.94644e-06
-4.75556e-07
6.35054e-05
5.90798e-06
-9.29362e-07
6.20497e-05
3.91237e-06
-1.42197e-06
6.06136e-05
2.78043e-06
-2.03784e-06
5.91504e-05
2.2323e-06
-2.83231e-06
5.7529e-05
2.08553e-06
-3.85832e-06
5.55965e-05
2.19016e-06
-5.1698e-06
5.31838e-05
2.48117e-06
-6.84039e-06
5.00796e-05
2.91238e-06
-8.95206e-06
4.60164e-05
3.47951e-06
-1.16313e-05
4.06118e-05
4.10415e-06
-1.49212e-05
3.33389e-05
4.82724e-06
-1.90453e-05
2.35924e-05
5.30041e-06
-2.34042e-05
1.08655e-05
5.51876e-06
-2.74419e-05
2.84944e-06
-2.01038e-05
6.55172e-05
5.53641e-06
-1.13567e-07
6.67891e-05
6.7956e-06
-5.17229e-07
6.69026e-05
5.86728e-06
-9.91479e-07
6.62737e-05
4.53433e-06
-1.50163e-06
6.52935e-05
3.64834e-06
-2.13804e-06
6.40616e-05
3.221e-06
-2.95979e-06
6.25484e-05
3.19176e-06
-4.02209e-06
6.06475e-05
3.47075e-06
-5.38156e-06
5.82044e-05
4.01686e-06
-7.11444e-06
5.4998e-05
4.80128e-06
-9.30838e-06
5.07307e-05
5.83274e-06
-1.20936e-05
4.49601e-05
7.04886e-06
-1.55254e-05
3.7073e-05
8.49272e-06
-1.98269e-05
2.63429e-05
9.76609e-06
-2.44037e-05
1.21686e-05
1.05866e-05
-2.8626e-05
6.7795e-06
-2.09225e-05
6.43128e-05
3.82479e-06
-9.98417e-08
6.56921e-05
5.54093e-06
-4.92298e-07
6.62988e-05
5.33801e-06
-9.55666e-07
6.62116e-05
4.6204e-06
-1.45367e-06
6.56661e-05
4.08915e-06
-2.07474e-06
6.4757e-05
3.89716e-06
-2.8756e-06
6.34886e-05
4.06702e-06
-3.90905e-06
6.17864e-05
4.5718e-06
-5.22973e-06
5.95151e-05
5.40745e-06
-6.91062e-06
5.64557e-05
6.57988e-06
-9.03865e-06
5.22969e-05
8.12777e-06
-1.17383e-05
4.65578e-05
1.00285e-05
-1.50734e-05
3.85596e-05
1.23567e-05
-1.92545e-05
2.75027e-05
1.46605e-05
-2.37303e-05
1.26497e-05
1.64455e-05
-2.78663e-05
1.12723e-05
-2.03574e-05
6.36538e-05
2.77466e-06
-7.42916e-08
6.48657e-05
4.45908e-06
-4.41287e-07
6.56099e-05
4.67872e-06
-8.84109e-07
6.58179e-05
4.4212e-06
-1.36164e-06
6.55878e-05
4.2277e-06
-1.95641e-06
6.49751e-05
4.29475e-06
-2.72062e-06
6.39838e-05
4.68986e-06
-3.70258e-06
6.25544e-05
5.43502e-06
-4.9527e-06
6.05674e-05
6.5634e-06
-6.5373e-06
5.78112e-05
8.12655e-06
-8.53912e-06
5.39696e-05
1.02089e-05
-1.10703e-05
4.85153e-05
1.28706e-05
-1.42024e-05
4.06749e-05
1.62754e-05
-1.81212e-05
2.94307e-05
2.00272e-05
-2.23533e-05
1.37225e-05
2.35382e-05
-2.62612e-05
1.71539e-05
-1.91875e-05
6.33379e-05
2.04344e-06
-4.36609e-08
6.44089e-05
3.52465e-06
-3.78527e-07
6.52109e-05
3.97092e-06
-7.96151e-07
6.56156e-05
4.03756e-06
-1.24909e-06
6.56346e-05
4.1332e-06
-1.812e-06
6.52893e-05
4.44676e-06
-2.53148e-06
6.45764e-05
5.06481e-06
-3.45043e-06
6.34435e-05
6.04454e-06
-4.6139e-06
6.17831e-05
7.45409e-06
-6.08001e-06
5.9388e-05
9.40041e-06
-7.92593e-06
5.59373e-05
1.20274e-05
-1.02481e-05
5.08522e-05
1.55283e-05
-1.31272e-05
4.32673e-05
2.02085e-05
-1.67146e-05
3.18966e-05
2.58867e-05
-2.06387e-05
1.52552e-05
3.2063e-05
-2.42485e-05
2.49666e-05
-1.77682e-05
6.32169e-05
1.4369e-06
-8.62148e-09
6.42336e-05
2.65194e-06
-3.06482e-07
6.50958e-05
3.21389e-06
-6.95209e-07
6.56565e-05
3.51197e-06
-1.11996e-06
6.5889e-05
3.84412e-06
-1.64597e-06
6.58e-05
4.36839e-06
-2.31305e-06
6.53894e-05
5.1739e-06
-3.15724e-06
6.46248e-05
6.33878e-06
-4.21595e-06
6.34324e-05
7.95517e-06
-5.53536e-06
6.16495e-05
1.01806e-05
-7.18123e-06
5.90155e-05
1.32125e-05
-9.22427e-06
5.49737e-05
1.74279e-05
-1.17435e-05
4.86506e-05
2.33337e-05
-1.48295e-05
3.81802e-05
3.15274e-05
-1.8233e-05
2.1072e-05
4.20874e-05
-2.126e-05
3.9503e-05
-1.5589e-05
6.3192e-05
2.87387e-08
8.59181e-07
6.42274e-05
-2.29432e-07
1.76884e-06
6.51749e-05
-5.87254e-07
2.38314e-06
6.58802e-05
-9.8202e-07
2.85721e-06
6.63022e-05
-1.46875e-06
3.38581e-06
6.64456e-05
-2.08013e-06
4.08523e-06
6.63184e-05
-2.84505e-06
5.03845e-06
6.59064e-05
-3.79301e-06
6.33627e-06
6.5164e-05
-4.95819e-06
8.08811e-06
6.39661e-05
-6.39441e-06
1.04984e-05
6.21065e-05
-8.14708e-06
1.38102e-05
5.90637e-05
-1.02921e-05
1.86164e-05
5.40517e-05
-1.28587e-05
2.56018e-05
4.48589e-05
-1.57269e-05
3.65663e-05
2.87213e-05
-1.81776e-05
5.21609e-05
-1.36399e-05
6.24247e-05
5.15639e-05
1.09805e-05
-5.16966e-08
4.41455e-05
7.45441e-06
-2.62503e-07
3.95158e-05
4.622e-06
-5.07267e-07
3.69715e-05
2.47858e-06
-7.69287e-07
3.53571e-05
1.47271e-06
-1.10358e-06
3.40886e-05
1.0308e-06
-1.5363e-06
3.2835e-05
8.93968e-07
-2.09301e-06
3.14109e-05
9.07048e-07
-2.79664e-06
2.96736e-05
1.01388e-06
-3.6807e-06
2.74965e-05
1.17497e-06
-4.77082e-06
2.47169e-05
1.39494e-06
-6.12014e-06
2.1196e-05
1.60635e-06
-7.69201e-06
1.66492e-05
1.87484e-06
-9.58392e-06
1.10889e-05
1.93656e-06
-1.13468e-05
4.28829e-06
1.99262e-06
-1.27864e-05
4.1808e-07
-8.9859e-06
6.50571e-05
8.46715e-06
-1.41828e-07
6.45588e-05
7.97444e-06
-4.97245e-07
6.31927e-05
5.94468e-06
-8.85959e-07
6.15857e-05
3.95667e-06
-1.29308e-06
5.99824e-05
2.83604e-06
-1.79787e-06
5.83269e-05
2.30448e-06
-2.45051e-06
5.64759e-05
2.18123e-06
-3.29461e-06
5.42653e-05
2.3178e-06
-4.36989e-06
5.15157e-05
2.65211e-06
-5.72906e-06
4.80182e-05
3.13984e-06
-7.41947e-06
4.35186e-05
3.78276e-06
-9.51946e-06
3.77068e-05
4.50168e-06
-1.20046e-05
3.01722e-05
5.34941e-06
-1.49853e-05
2.06236e-05
5.96421e-06
-1.78832e-05
9.02494e-06
6.31107e-06
-2.01617e-05
3.54238e-06
-1.42032e-05
6.5454e-05
5.55651e-06
-1.56969e-07
6.661e-05
6.83761e-06
-5.36334e-07
6.65816e-05
5.92445e-06
-9.42914e-07
6.57962e-05
4.60523e-06
-1.36476e-06
6.46429e-05
3.7379e-06
-1.88657e-06
6.3212e-05
3.33738e-06
-2.56184e-06
6.14613e-05
3.34603e-06
-3.43617e-06
5.92724e-05
3.6766e-06
-4.55146e-06
5.648e-05
4.29248e-06
-5.96236e-06
5.28645e-05
5.16732e-06
-7.72035e-06
4.81411e-05
6.31835e-06
-9.90573e-06
4.19413e-05
7.67773e-06
-1.25017e-05
3.37729e-05
9.30545e-06
-1.56146e-05
2.32391e-05
1.07571e-05
-1.86629e-05
1.02353e-05
1.17336e-05
-2.10447e-05
7.63012e-06
-1.4775e-05
6.42512e-05
3.85089e-06
-1.45421e-07
6.55169e-05
5.59525e-06
-5.15599e-07
6.59854e-05
5.41312e-06
-9.12904e-07
6.57465e-05
4.71484e-06
-1.32439e-06
6.50338e-05
4.20917e-06
-1.83325e-06
6.3933e-05
4.05361e-06
-2.491e-06
6.24363e-05
4.27493e-06
-3.34128e-06
6.04575e-05
4.85012e-06
-4.42445e-06
5.78505e-05
5.78148e-06
-5.79263e-06
5.43975e-05
7.07863e-06
-7.49696e-06
4.97989e-05
8.79205e-06
-9.61339e-06
4.36447e-05
1.08907e-05
-1.21321e-05
3.53719e-05
1.34736e-05
-1.51499e-05
2.45036e-05
1.60128e-05
-1.81176e-05
1.07905e-05
1.80106e-05
-2.04303e-05
1.23816e-05
-1.43183e-05
6.35944e-05
2.80576e-06
-1.23543e-07
6.46967e-05
4.52376e-06
-4.72125e-07
6.53089e-05
4.76879e-06
-8.51952e-07
6.53729e-05
4.53526e-06
-1.24611e-06
6.49853e-05
4.37325e-06
-1.73287e-06
6.41932e-05
4.48501e-06
-2.35995e-06
6.29896e-05
4.94342e-06
-3.16741e-06
6.13036e-05
5.77573e-06
-4.19232e-06
5.90061e-05
7.02343e-06
-5.48174e-06
5.5886e-05
8.74379e-06
-7.0842e-06
5.16374e-05
1.10372e-05
-9.06677e-06
4.5798e-05
1.39554e-05
-1.14276e-05
3.76995e-05
1.76972e-05
-1.42463e-05
2.66286e-05
2.17649e-05
-1.70346e-05
1.19838e-05
2.55848e-05
-1.91905e-05
1.86075e-05
-1.34296e-05
6.3281e-05
2.07844e-06
-9.73304e-08
6.42475e-05
3.59725e-06
-4.18571e-07
6.49248e-05
4.07237e-06
-7.76991e-07
6.51948e-05
4.16654e-06
-1.15037e-06
6.50681e-05
4.29832e-06
-1.61035e-06
6.45584e-05
4.66324e-06
-2.20001e-06
6.36521e-05
5.35426e-06
-2.95502e-06
6.2287e-05
6.43527e-06
-3.90834e-06
6.03465e-05
7.98473e-06
-5.10076e-06
5.76234e-05
1.01182e-05
-6.57727e-06
5.3806e-05
1.30002e-05
-8.39366e-06
4.8373e-05
1.68189e-05
-1.05577e-05
4.05531e-05
2.19276e-05
-1.31252e-05
2.93423e-05
2.80253e-05
-1.56883e-05
1.36672e-05
3.46549e-05
-1.76435e-05
2.68607e-05
-1.23542e-05
6.31628e-05
1.47437e-06
-6.73964e-08
6.40812e-05
2.72952e-06
-3.57136e-07
6.4827e-05
3.32242e-06
-6.91045e-07
6.5264e-05
3.65024e-06
-1.04067e-06
6.53647e-05
4.0214e-06
-1.46969e-06
6.51294e-05
4.60114e-06
-2.01569e-06
6.45496e-05
5.48558e-06
-2.70881e-06
6.35847e-05
6.76058e-06
-3.57635e-06
6.21544e-05
8.52994e-06
-4.65023e-06
6.00972e-05
1.09625e-05
-5.96832e-06
5.71622e-05
1.42796e-05
-7.5688e-06
5.28417e-05
1.886e-05
-9.4642e-06
4.63421e-05
2.52693e-05
-1.16715e-05
3.60337e-05
3.39839e-05
-1.38832e-05
1.97486e-05
4.51627e-05
-1.54827e-05
4.18499e-05
-1.08296e-05
6.31411e-05
-3.55351e-08
8.97563e-07
6.40845e-05
-2.91494e-07
1.84813e-06
6.49248e-05
-5.99193e-07
2.49413e-06
6.55178e-05
-9.23526e-07
2.99875e-06
6.58226e-05
-1.3196e-06
3.56744e-06
6.58388e-05
-1.8191e-06
4.32386e-06
6.55675e-05
-2.44648e-06
5.3583e-06
6.49882e-05
-3.22305e-06
6.76999e-06
6.40511e-05
-4.17176e-06
8.68057e-06
6.26336e-05
-5.32284e-06
1.13084e-05
6.05411e-05
-6.69693e-06
1.49221e-05
5.72935e-05
-8.31029e-06
2.01258e-05
5.21765e-05
-1.0141e-05
2.76686e-05
4.31695e-05
-1.19888e-05
3.92527e-05
2.77484e-05
-1.32419e-05
5.56481e-05
-9.44921e-06
6.54076e-05
5.1529e-05
1.09845e-05
-6.52013e-08
4.40458e-05
7.46485e-06
-2.44179e-07
3.93402e-05
4.63449e-06
-4.36195e-07
3.67145e-05
2.49275e-06
-6.36271e-07
3.50106e-05
1.49035e-06
-8.9006e-07
3.36394e-05
1.05374e-06
-1.21886e-06
3.22635e-05
9.24326e-07
-1.64146e-06
3.06923e-05
9.47204e-07
-2.17257e-06
2.87783e-05
1.06696e-06
-2.83371e-06
2.63984e-05
1.24463e-06
-3.63547e-06
2.34003e-05
1.48632e-06
-4.60839e-06
1.96885e-05
1.72594e-06
-5.70615e-06
1.50552e-05
2.03109e-06
-6.98177e-06
9.66336e-06
2.14683e-06
-8.10172e-06
3.53124e-06
2.24094e-06
-8.89519e-06
6.87072e-07
-6.14172e-06
6.50074e-05
8.47833e-06
-1.43065e-07
6.44179e-05
7.99823e-06
-4.41051e-07
6.29386e-05
5.97589e-06
-7.48071e-07
6.12051e-05
3.99433e-06
-1.06124e-06
5.94609e-05
2.88316e-06
-1.4464e-06
5.76429e-05
2.36538e-06
-1.94419e-06
5.55985e-05
2.26153e-06
-2.58736e-06
5.31543e-05
2.42417e-06
-3.40273e-06
5.01238e-05
2.79325e-06
-4.42482e-06
4.63011e-05
3.3254e-06
-5.67755e-06
4.14474e-05
4.02614e-06
-7.20561e-06
3.53181e-05
4.81414e-06
-8.96352e-06
2.7618e-05
5.74891e-06
-1.10031e-05
1.83108e-05
6.4552e-06
-1.28843e-05
7.69442e-06
6.87359e-06
-1.4178e-05
3.99412e-06
-9.81577e-06
6.54037e-05
5.57372e-06
-1.56014e-07
6.64659e-05
6.87345e-06
-4.73757e-07
6.63208e-05
5.97317e-06
-7.95117e-07
6.54045e-05
4.66559e-06
-1.11975e-06
6.41052e-05
3.81396e-06
-1.51805e-06
6.25061e-05
3.43591e-06
-2.03329e-06
6.05551e-05
3.47618e-06
-2.69983e-06
5.81244e-05
3.84956e-06
-3.54609e-06
5.50403e-05
4.52289e-06
-4.60797e-06
5.10861e-05
5.47141e-06
-5.91215e-06
4.59924e-05
6.71847e-06
-7.5043e-06
3.94576e-05
8.19062e-06
-9.34345e-06
3.11094e-05
9.95941e-06
-1.14769e-05
2.08196e-05
1.15422e-05
-1.34601e-05
8.83661e-06
1.26255e-05
-1.48137e-05
8.27473e-06
-1.0219e-05
6.42021e-05
3.87325e-06
-1.47044e-07
6.53761e-05
5.64162e-06
-4.57757e-07
6.5731e-05
5.47716e-06
-7.71842e-07
6.53653e-05
4.79525e-06
-1.08834e-06
6.45114e-05
4.31114e-06
-1.47655e-06
6.32484e-05
4.18618e-06
-1.97822e-06
6.15589e-05
4.45062e-06
-2.62625e-06
5.93474e-05
5.0846e-06
-3.44793e-06
5.64595e-05
6.09549e-06
-4.47735e-06
5.26794e-05
7.49562e-06
-5.74109e-06
4.77217e-05
9.34455e-06
-7.28181e-06
4.12407e-05
1.16034e-05
-9.06388e-06
3.27891e-05
1.43891e-05
-1.1128e-05
2.21546e-05
1.71123e-05
-1.30532e-05
9.43815e-06
1.92703e-05
-1.43586e-05
1.32793e-05
-9.88478e-06
6.35471e-05
2.83236e-06
-1.29791e-07
6.45613e-05
4.57896e-06
-4.23583e-07
6.50649e-05
4.84556e-06
-7.23965e-07
6.50086e-05
4.63233e-06
-1.02693e-06
6.4488e-05
4.49687e-06
-1.398e-06
6.3544e-05
4.64626e-06
-1.876e-06
6.21605e-05
5.1578e-06
-2.49113e-06
6.02581e-05
6.06308e-06
-3.26839e-06
5.76998e-05
7.41037e-06
-4.23829e-06
5.42758e-05
9.26135e-06
-5.42594e-06
4.96926e-05
1.17291e-05
-6.86808e-06
4.35468e-05
1.48574e-05
-8.53591e-06
3.52771e-05
1.88715e-05
-1.0459e-05
2.44228e-05
2.31923e-05
-1.22603e-05
1.07144e-05
2.72527e-05
-1.34645e-05
1.98173e-05
-9.2532e-06
6.32358e-05
2.10834e-06
-1.09139e-07
6.41185e-05
3.65916e-06
-3.81457e-07
6.46934e-05
4.15876e-06
-6.65058e-07
6.48509e-05
4.27623e-06
-9.51822e-07
6.46011e-05
4.43849e-06
-1.30212e-06
6.39519e-05
4.84665e-06
-1.75123e-06
6.28818e-05
5.59896e-06
-2.3261e-06
6.13205e-05
6.76484e-06
-3.04878e-06
5.91442e-05
8.43128e-06
-3.94536e-06
5.61466e-05
1.07206e-05
-5.03894e-06
5.20267e-05
1.3814e-05
-6.35861e-06
4.63158e-05
1.78945e-05
-7.88389e-06
3.83392e-05
2.33518e-05
-9.62893e-06
2.73282e-05
2.97894e-05
-1.12744e-05
1.25105e-05
3.67766e-05
-1.23496e-05
2.84598e-05
-8.48621e-06
6.31202e-05
1.50633e-06
-8.55734e-08
6.39598e-05
2.7956e-06
-3.33147e-07
6.46103e-05
3.41478e-06
-5.97562e-07
6.49439e-05
3.76776e-06
-8.65843e-07
6.49331e-05
4.17184e-06
-1.1922e-06
6.45735e-05
4.79829e-06
-1.60772e-06
6.38498e-05
5.74911e-06
-2.13533e-06
6.27149e-05
7.11653e-06
-2.79313e-06
6.10831e-05
9.01408e-06
-3.60117e-06
5.8794e-05
1.16197e-05
-4.5784e-06
5.56074e-05
1.51745e-05
-5.74261e-06
5.10599e-05
2.00572e-05
-7.07947e-06
4.44409e-05
2.68787e-05
-8.57938e-06
3.43231e-05
3.60186e-05
-9.99471e-06
1.87806e-05
4.76925e-05
-1.08561e-05
4.38644e-05
-7.45357e-06
6.31011e-05
-6.05207e-08
9.30246e-07
6.39711e-05
-2.81559e-07
1.9156e-06
6.47237e-05
-5.25461e-07
2.5885e-06
6.5223e-05
-7.74068e-07
3.11898e-06
6.54287e-05
-1.07492e-06
3.72148e-06
6.53366e-05
-1.45465e-06
4.52591e-06
6.49426e-05
-1.93199e-06
5.62865e-06
6.4221e-05
-2.52086e-06
7.1359e-06
6.31189e-05
-3.2351e-06
9.17957e-06
6.15157e-05
-4.08912e-06
1.19892e-05
5.92279e-05
-5.08928e-06
1.58546e-05
5.58138e-05
-6.22665e-06
2.13877e-05
5.06316e-05
-7.46779e-06
2.93877e-05
4.18254e-05
-8.64161e-06
4.14777e-05
2.70532e-05
-9.29567e-06
5.85185e-05
-6.50485e-06
6.79732e-05
5.1503e-05
1.09877e-05
-5.59164e-08
4.39713e-05
7.47302e-06
-1.8545e-07
3.92082e-05
4.64428e-06
-3.17426e-07
3.65207e-05
2.50394e-06
-4.52715e-07
3.47498e-05
1.50429e-06
-6.23369e-07
3.33035e-05
1.07193e-06
-8.44554e-07
3.18421e-05
9.4855e-07
-1.12855e-06
3.01739e-05
9.79586e-07
-1.48402e-06
2.81534e-05
1.11041e-06
-1.92362e-06
2.56655e-05
1.30288e-06
-2.45041e-06
2.25726e-05
1.56476e-06
-3.08029e-06
1.88088e-05
1.83167e-06
-3.77403e-06
1.42112e-05
2.17326e-06
-4.55735e-06
8.98204e-06
2.33884e-06
-5.21144e-06
3.22666e-06
2.4754e-06
-5.61522e-06
9.19585e-07
-3.83463e-06
6.49704e-05
8.48714e-06
-1.12871e-07
6.4312e-05
8.01694e-06
-3.26607e-07
6.27466e-05
6.0004e-06
-5.38816e-07
6.09169e-05
4.02392e-06
-7.51501e-07
5.90661e-05
2.92012e-06
-1.01142e-06
5.71278e-05
2.4131e-06
-1.34712e-06
5.49451e-05
2.32436e-06
-1.78038e-06
5.23422e-05
2.50733e-06
-2.3276e-06
4.91335e-05
2.90356e-06
-3.00935e-06
4.51242e-05
3.47056e-06
-3.83591e-06
4.00968e-05
4.21682e-06
-4.83021e-06
3.38544e-05
5.05986e-06
-5.94938e-06
2.61737e-05
6.06418e-06
-7.21319e-06
1.71128e-05
6.84406e-06
-8.32869e-06
7.09093e-06
7.32334e-06
-9.004e-06
4.35409e-06
-6.15932e-06
6.5366e-05
5.58728e-06
-1.22166e-07
6.63575e-05
6.90164e-06
-3.49992e-07
6.61237e-05
6.01145e-06
-5.72312e-07
6.51077e-05
4.71296e-06
-7.92823e-07
6.3698e-05
3.8735e-06
-1.06171e-06
6.19743e-05
3.5128e-06
-1.40928e-06
5.98799e-05
3.57738e-06
-1.85847e-06
5.72844e-05
3.98346e-06
-2.42672e-06
5.40151e-05
4.70035e-06
-3.13547e-06
4.9866e-05
5.70425e-06
-3.99672e-06
4.45895e-05
7.02273e-06
-5.03375e-06
3.79341e-05
8.578e-06
-6.20613e-06
2.96019e-05
1.04495e-05
-7.53002e-06
1.95665e-05
1.21275e-05
-8.70822e-06
8.20413e-06
1.32876e-05
-9.41555e-06
8.75577e-06
-6.41649e-06
6.41655e-05
3.89087e-06
-1.16097e-07
6.52704e-05
5.6781e-06
-3.39122e-07
6.5539e-05
5.52746e-06
-5.56447e-07
6.50766e-05
4.85829e-06
-7.71336e-07
6.41161e-05
4.39083e-06
-1.03333e-06
6.27329e-05
4.28938e-06
-1.37166e-06
6.09057e-05
4.5867e-06
-1.8083e-06
5.85361e-05
5.26505e-06
-2.35997e-06
5.54708e-05
6.33523e-06
-3.04695e-06
5.15044e-05
7.81088e-06
-3.88124e-06
4.63723e-05
9.7573e-06
-4.88428e-06
3.97768e-05
1.21288e-05
-6.01921e-06
3.13427e-05
1.50536e-05
-7.29809e-06
2.0956e-05
1.78998e-05
-8.43881e-06
8.84135e-06
2.01595e-05
-9.11578e-06
1.39104e-05
-6.19801e-06
6.35119e-05
2.85331e-06
-1.04174e-07
6.44597e-05
4.62236e-06
-3.15572e-07
6.48808e-05
4.90582e-06
-5.23493e-07
6.4733e-05
4.70835e-06
-7.29116e-07
6.41119e-05
4.59335e-06
-9.79431e-07
6.30554e-05
4.77154e-06
-1.30167e-06
6.15437e-05
5.32336e-06
-1.71606e-06
5.94949e-05
6.28325e-06
-2.23783e-06
5.6773e-05
7.70385e-06
-2.88503e-06
5.3178e-05
9.64884e-06
-3.66892e-06
4.84359e-05
1.22388e-05
-4.6074e-06
4.21877e-05
1.55095e-05
-5.66848e-06
3.39384e-05
1.97017e-05
-6.85769e-06
2.33186e-05
2.41805e-05
-7.9211e-06
1.01723e-05
2.83796e-05
-8.53836e-06
2.06236e-05
-5.7941e-06
6.32023e-05
2.13185e-06
-8.99421e-08
6.40219e-05
3.7078e-06
-2.86559e-07
6.45191e-05
4.22653e-06
-4.82935e-07
6.4591e-05
4.36206e-06
-6.77464e-07
6.42481e-05
4.54776e-06
-9.13613e-07
6.34957e-05
4.98889e-06
-1.21622e-06
6.23089e-05
5.78743e-06
-1.60334e-06
6.06154e-05
7.01632e-06
-2.08835e-06
5.82925e-05
8.7679e-06
-2.68649e-06
5.51429e-05
1.11675e-05
-3.40795e-06
5.08833e-05
1.44058e-05
-4.26603e-06
4.50856e-05
1.8658e-05
-5.23465e-06
3.71346e-05
2.43341e-05
-6.3104e-06
2.63445e-05
3.09722e-05
-7.27599e-06
1.20389e-05
3.81523e-05
-7.81666e-06
2.94766e-05
-5.30042e-06
6.30885e-05
1.53143e-06
-7.36947e-08
6.3869e-05
2.84749e-06
-2.53278e-07
6.44473e-05
3.48718e-06
-4.3648e-07
6.47022e-05
3.85965e-06
-6.18381e-07
6.4607e-05
4.28902e-06
-8.38241e-07
6.41552e-05
4.95101e-06
-1.11808e-06
6.3329e-05
5.95172e-06
-1.47335e-06
6.20797e-05
7.3874e-06
-1.91493e-06
6.03233e-05
9.37749e-06
-2.45436e-06
5.79079e-05
1.2104e-05
-3.09963e-06
5.46098e-05
1.58189e-05
-3.85748e-06
5.00005e-05
2.08949e-05
-4.70703e-06
4.34206e-05
2.79662e-05
-5.63165e-06
3.3512e-05
3.73456e-05
-6.4594e-06
1.8417e-05
4.92721e-05
-6.88101e-06
4.51023e-05
-4.66224e-06
6.30715e-05
-5.64392e-08
9.55891e-07
6.38866e-05
-2.17756e-07
1.96853e-06
6.45728e-05
-3.86869e-07
2.66243e-06
6.50008e-05
-5.55321e-07
3.21292e-06
6.51313e-05
-7.57811e-07
3.84137e-06
6.49587e-05
-1.01337e-06
4.68227e-06
6.44769e-05
-1.33469e-06
5.83622e-06
6.36598e-05
-1.73003e-06
7.41372e-06
6.24564e-05
-2.20704e-06
9.55283e-06
6.07544e-05
-2.77126e-06
1.24882e-05
5.83861e-05
-3.42268e-06
1.65205e-05
5.49401e-05
-4.14514e-06
2.22594e-05
4.9819e-05
-4.90877e-06
3.05282e-05
4.12208e-05
-5.59005e-06
4.28923e-05
2.68427e-05
-5.89627e-06
6.02508e-05