/*--------------------------------*- C++ -*----------------------------------*\
| =========                 |                                                 |
| \\      /  F ield         | OpenFOAM: The Open Source CFD Toolbox           |
|  \\    /   O peration     | Version:  v1912                                 |
|   \\  /    A nd           | Website:  www.openfoam.com                      |
|    \\/     M anipulation  |                                                 |
\*---------------------------------------------------------------------------*/
FoamFile
{
    version     2.0;
    format      ascii;
    class       pointVectorField;
    location    "0.26/fluid";
    object      pointMotionU;
}
// * * * * * * * * * * * * * * * * * * * * * * * * * * * * * * * * * * * * * //

dimensions      [0 1 -1 0 0 0 0];


internalField   nonuniform List<vector> 
16859
(
(0 0 0)
(0 0 0)
(0 0 0)
(0 0 0)
(0 0 0)
(0 0 0)
(0 0 0)
(0 0 0)
(0 0 0)
(0 0 0)
(0 0 0)
(0 0 0)
(0 0 0)
(0 0 0)
(0 0 0)
(0 0 0)
(3.34683e-08 6.04402e-08 3.11203e-08)
(0 0 0)
(7.65815e-10 -2.14153e-09 1.64571e-09)
(1.45468e-09 -4.10181e-09 3.20334e-09)
(2.08742e-09 -5.96253e-09 4.78192e-09)
(2.68236e-09 -7.78375e-09 6.47641e-09)
(3.25658e-09 -9.60025e-09 8.37143e-09)
(3.82761e-09 -1.14216e-08 1.05458e-08)
(4.41605e-09 -1.32278e-08 1.30749e-08)
(5.05059e-09 -1.49559e-08 1.60296e-08)
(5.78018e-09 -1.64745e-08 1.94752e-08)
(6.70195e-09 -1.75392e-08 2.34751e-08)
(8.02136e-09 -1.77043e-08 2.81017e-08)
(1.0205e-08 -1.61249e-08 3.34888e-08)
(1.42753e-08 -1.11532e-08 4.00071e-08)
(2.22624e-08 3.51444e-10 4.86313e-08)
(3.57576e-08 2.09428e-08 5.99926e-08)
(6.59267e-08 6.64819e-08 7.54136e-08)
(0 0 0)
(1.51997e-09 -4.22175e-09 3.25184e-09)
(2.88728e-09 -8.08936e-09 6.32938e-09)
(4.14361e-09 -1.17635e-08 9.44614e-09)
(5.32575e-09 -1.53624e-08 1.27872e-08)
(6.46793e-09 -1.8961e-08 1.65199e-08)
(7.60524e-09 -2.25885e-08 2.08006e-08)
(8.77746e-09 -2.62189e-08 2.57775e-08)
(1.0037e-08 -2.97509e-08 3.15884e-08)
(1.14659e-08 -3.29692e-08 3.83573e-08)
(1.32113e-08 -3.54852e-08 4.6188e-08)
(1.55591e-08 -3.66354e-08 5.51515e-08)
(1.91048e-08 -3.5323e-08 6.52959e-08)
(2.4981e-08 -2.9909e-08 7.67093e-08)
(3.49654e-08 -1.85291e-08 8.95426e-08)
(4.91678e-08 -2.43755e-09 1.0252e-07)
(8.27921e-08 1.92914e-08 1.24645e-07)
(0 0 0)
(2.25162e-09 -6.17595e-09 4.77997e-09)
(4.27756e-09 -1.18394e-08 9.30225e-09)
(6.14026e-09 -1.72273e-08 1.38774e-08)
(7.8949e-09 -2.25173e-08 1.87742e-08)
(9.59361e-09 -2.78311e-08 2.42379e-08)
(1.12894e-08 -3.32306e-08 3.04988e-08)
(1.30409e-08 -3.87069e-08 3.77746e-08)
(1.49205e-08 -4.41592e-08 4.62689e-08)
(1.70288e-08 -4.93576e-08 5.6164e-08)
(1.95168e-08 -5.38883e-08 6.75977e-08)
(2.26464e-08 -5.70689e-08 8.06234e-08)
(2.68941e-08 -5.78727e-08 9.51546e-08)
(3.30603e-08 -5.50214e-08 1.10913e-07)
(4.22832e-08 -4.75872e-08 1.27332e-07)
(5.43038e-08 -3.73978e-08 1.42285e-07)
(8.19239e-08 -2.30192e-08 1.63678e-07)
(0 0 0)
(2.94947e-09 -7.93795e-09 6.19443e-09)
(5.60394e-09 -1.52248e-08 1.2051e-08)
(8.04596e-09 -2.2171e-08 1.79672e-08)
(1.03492e-08 -2.90146e-08 2.42868e-08)
(1.2584e-08 -3.59295e-08 3.13252e-08)
(1.48225e-08 -4.30231e-08 3.93795e-08)
(1.7144e-08 -5.03269e-08 4.87326e-08)
(1.96425e-08 -5.77806e-08 5.96531e-08)
(2.24354e-08 -6.52042e-08 7.23866e-08)
(2.56715e-08 -7.22531e-08 8.71231e-08)
(2.95594e-08 -7.8343e-08 1.03936e-07)
(3.43885e-08 -8.25827e-08 1.22676e-07)
(4.05175e-08 -8.37954e-08 1.42798e-07)
(4.83441e-08 -8.08382e-08 1.63077e-07)
(5.73565e-08 -7.42694e-08 1.80261e-07)
(7.9469e-08 -6.07493e-08 2.01269e-07)
(0 0 0)
(3.60203e-09 -9.44363e-09 7.46512e-09)
(6.84408e-09 -1.81221e-08 1.45155e-08)
(9.82754e-09 -2.64146e-08 2.16227e-08)
(1.26438e-08 -3.46181e-08 2.9195e-08)
(1.53814e-08 -4.29616e-08 3.76066e-08)
(1.81324e-08 -5.16061e-08 4.72115e-08)
(2.09998e-08 -6.06408e-08 5.83495e-08)
(2.41055e-08 -7.00766e-08 7.13505e-08)
(2.75976e-08 -7.98327e-08 8.65287e-08)
(3.16569e-08 -8.97051e-08 1.04156e-07)
(3.65011e-08 -9.93061e-08 1.24402e-07)
(4.23641e-08 -1.0796e-07 1.47222e-07)
(4.93843e-08 -1.1453e-07 1.72097e-07)
(5.74225e-08 -1.1719e-07 1.97505e-07)
(6.5336e-08 -1.14256e-07 2.18907e-07)
(8.38776e-08 -9.89995e-08 2.41746e-07)
(0 0 0)
(4.19776e-09 -1.06323e-08 8.56774e-09)
(7.97547e-09 -2.04147e-08 1.66478e-08)
(1.1451e-08 -2.97869e-08 2.47714e-08)
(1.47315e-08 -3.90996e-08 3.33968e-08)
(1.79219e-08 -4.8634e-08 4.29437e-08)
(2.11334e-08 -5.8606e-08 5.38088e-08)
(2.44932e-08 -6.91694e-08 6.63752e-08)
(2.81564e-08 -8.04202e-08 8.10225e-08)
(3.23187e-08 -9.24019e-08 9.81287e-08)
(3.72343e-08 -1.05099e-07 1.18061e-07)
(4.32401e-08 -1.18415e-07 1.41151e-07)
(5.07646e-08 -1.32102e-07 1.67634e-07)
(6.02377e-08 -1.4555e-07 1.97441e-07)
(7.18001e-08 -1.57217e-07 2.2957e-07)
(8.3659e-08 -1.6368e-07 2.5872e-07)
(1.04024e-07 -1.48705e-07 2.88883e-07)
(0 0 0)
(4.726e-09 -1.14504e-08 9.48554e-09)
(8.97725e-09 -2.19997e-08 1.84159e-08)
(1.28845e-08 -3.21356e-08 2.73646e-08)
(1.65671e-08 -4.22525e-08 3.68246e-08)
(2.01424e-08 -5.26755e-08 4.72446e-08)
(2.37366e-08 -6.36681e-08 5.90463e-08)
(2.74959e-08 -7.54421e-08 7.26361e-08)
(3.16041e-08 -8.81723e-08 8.84206e-08)
(3.63023e-08 -1.02016e-07 1.06815e-07)
(4.19256e-08 -1.17135e-07 1.28255e-07)
(4.89677e-08 -1.33733e-07 1.5321e-07)
(5.81792e-08 -1.521e-07 1.82225e-07)
(7.06702e-08 -1.72646e-07 2.15898e-07)
(8.7913e-08 -1.95707e-07 2.5457e-07)
(1.08925e-07 -2.18778e-07 2.93843e-07)
(1.5048e-07 -2.46569e-07 3.47351e-07)
(0 0 0)
(5.17812e-09 -1.18551e-08 1.02109e-08)
(9.83293e-09 -2.27951e-08 1.98062e-08)
(1.41033e-08 -3.3339e-08 2.93838e-08)
(1.81154e-08 -4.39102e-08 3.94545e-08)
(2.19934e-08 -5.48634e-08 5.04781e-08)
(2.58702e-08 -6.64967e-08 6.28814e-08)
(2.99004e-08 -7.90626e-08 7.70706e-08)
(3.42783e-08 -9.27883e-08 9.34463e-08)
(3.92616e-08 -1.07899e-07 1.12415e-07)
(4.52124e-08 -1.24653e-07 1.34402e-07)
(5.26704e-08 -1.4339e-07 1.59884e-07)
(6.24597e-08 -1.64623e-07 1.89443e-07)
(7.58118e-08 -1.8915e-07 2.23816e-07)
(9.43605e-08 -2.18077e-07 2.63798e-07)
(1.16549e-07 -2.48745e-07 3.04916e-07)
(1.8275e-07 -3.14439e-07 3.84505e-07)
(0 0 0)
(0 0 0)
(0 0 0)
(0 0 0)
(0 0 0)
(0 0 0)
(0 0 0)
(0 0 0)
(0 0 0)
(0 0 0)
(0 0 0)
(0 0 0)
(0 0 0)
(0 0 0)
(0 0 0)
(0 0 0)
(1.01466e-08 2.8413e-08 1.50415e-08)
(0 0 0)
(7.45701e-10 -2.18717e-09 1.59603e-09)
(1.41323e-09 -4.18917e-09 3.10436e-09)
(2.02e-09 -6.09023e-09 4.62926e-09)
(2.58032e-09 -7.95367e-09 6.2618e-09)
(3.10608e-09 -9.8173e-09 8.08254e-09)
(3.60738e-09 -1.16929e-08 1.01649e-08)
(4.0934e-09 -1.3564e-08 1.25772e-08)
(4.57466e-09 -1.53741e-08 1.53807e-08)
(5.06995e-09 -1.70051e-08 1.86266e-08)
(5.62567e-09 -1.82396e-08 2.23526e-08)
(6.36196e-09 -1.8688e-08 2.65808e-08)
(7.583e-09 -1.76293e-08 3.13333e-08)
(9.97752e-09 -1.36888e-08 3.67044e-08)
(1.48425e-08 -4.39469e-09 4.29755e-08)
(2.30537e-08 1.21273e-08 4.99489e-08)
(3.0524e-08 3.45471e-08 5.40718e-08)
(0 0 0)
(1.48134e-09 -4.31043e-09 3.15289e-09)
(2.80782e-09 -8.25913e-09 6.13242e-09)
(4.01463e-09 -1.20126e-08 9.14336e-09)
(5.13108e-09 -1.5695e-08 1.23629e-08)
(6.18185e-09 -1.93859e-08 1.59498e-08)
(7.1882e-09 -2.31183e-08 2.00498e-08)
(8.16904e-09 -2.68726e-08 2.47975e-08)
(9.14374e-09 -3.05582e-08 3.03132e-08)
(1.01407e-08 -3.39821e-08 3.66949e-08)
(1.12207e-08 -3.6799e-08 4.40031e-08)
(1.25314e-08 -3.84356e-08 5.22341e-08)
(1.44364e-08 -3.79802e-08 6.12835e-08)
(1.7691e-08 -3.41558e-08 7.09262e-08)
(2.3521e-08 -2.57859e-08 8.07432e-08)
(3.22613e-08 -1.42998e-08 8.95014e-08)
(4.11764e-08 -8.85953e-09 9.79187e-08)
(0 0 0)
(2.19758e-09 -6.3039e-09 4.63371e-09)
(4.16657e-09 -1.20848e-08 9.01166e-09)
(5.96058e-09 -1.75886e-08 1.34318e-08)
(7.62492e-09 -2.30001e-08 1.81514e-08)
(9.1989e-09 -2.84469e-08 2.34024e-08)
(1.07174e-08 -3.39956e-08 2.93995e-08)
(1.22118e-08 -3.96447e-08 3.63417e-08)
(1.3712e-08 -4.53059e-08 4.44083e-08)
(1.52503e-08 -5.0773e-08 5.3747e-08)
(1.68721e-08 -5.56789e-08 6.44453e-08)
(1.86724e-08 -5.94375e-08 7.64735e-08)
(2.08675e-08 -6.12105e-08 8.95966e-08)
(2.38901e-08 -6.00718e-08 1.03272e-07)
(2.84677e-08 -5.57023e-08 1.16512e-07)
(3.48241e-08 -5.00379e-08 1.27486e-07)
(3.96855e-08 -4.83867e-08 1.35888e-07)
(0 0 0)
(2.88418e-09 -8.10065e-09 6.0044e-09)
(5.47011e-09 -1.55376e-08 1.16741e-08)
(7.83009e-09 -2.2632e-08 1.73905e-08)
(1.00266e-08 -2.96303e-08 2.34822e-08)
(1.21155e-08 -3.67126e-08 3.0247e-08)
(1.4149e-08 -4.39914e-08 3.79626e-08)
(1.61767e-08 -5.15051e-08 4.68885e-08)
(1.82461e-08 -5.92041e-08 5.72635e-08)
(2.04019e-08 -6.69276e-08 6.92927e-08)
(2.26802e-08 -7.43686e-08 8.31116e-08)
(2.51093e-08 -8.10182e-08 9.87075e-08)
(2.76975e-08 -8.61282e-08 1.15795e-07)
(3.04071e-08 -8.8787e-08 1.33613e-07)
(3.3216e-08 -8.83193e-08 1.50601e-07)
(3.61347e-08 -8.54573e-08 1.63914e-07)
(3.72273e-08 -8.43838e-08 1.7236e-07)
(0 0 0)
(3.53014e-09 -9.63572e-09 7.23606e-09)
(6.69705e-09 -1.84918e-08 1.40619e-08)
(9.59147e-09 -2.69594e-08 2.09299e-08)
(1.22933e-08 -3.53447e-08 2.82295e-08)
(1.48768e-08 -4.38829e-08 3.63146e-08)
(1.74144e-08 -5.274e-08 4.55159e-08)
(1.99803e-08 -6.20101e-08 5.61464e-08)
(2.26528e-08 -7.1711e-08 6.85013e-08)
(2.55115e-08 -8.17724e-08 8.28497e-08)
(2.86293e-08 -9.20114e-08 9.9401e-08)
(3.20486e-08 -1.02079e-07 1.18233e-07)
(3.57128e-08 -1.11366e-07 1.39158e-07)
(3.93079e-08 -1.18855e-07 1.61445e-07)
(4.21162e-08 -1.22935e-07 1.83257e-07)
(4.329e-08 -1.22093e-07 2.00635e-07)
(4.08761e-08 -1.19731e-07 2.10984e-07)
(0 0 0)
(4.12386e-09 -1.08474e-08 8.30524e-09)
(7.82472e-09 -2.08286e-08 1.61286e-08)
(1.12102e-08 -3.03966e-08 2.39794e-08)
(1.43768e-08 -3.99116e-08 3.22949e-08)
(1.74164e-08 -4.96607e-08 4.14714e-08)
(2.04229e-08 -5.98644e-08 5.18801e-08)
(2.3499e-08 -7.06787e-08 6.38744e-08)
(2.6763e-08 -8.2202e-08 7.77952e-08)
(3.03546e-08 -9.4479e-08 9.39704e-08)
(3.44393e-08 -1.07498e-07 1.12696e-07)
(3.92075e-08 -1.21164e-07 1.34192e-07)
(4.48344e-08 -1.35229e-07 1.58517e-07)
(5.13231e-08 -1.49066e-07 1.8532e-07)
(5.81433e-08 -1.61056e-07 2.13139e-07)
(6.34934e-08 -1.67843e-07 2.3733e-07)
(5.87232e-08 -1.61609e-07 2.53813e-07)
(0 0 0)
(4.65413e-09 -1.16809e-08 9.19553e-09)
(8.83103e-09 -2.24436e-08 1.78429e-08)
(1.26524e-08 -3.27891e-08 2.64921e-08)
(1.6228e-08 -4.31217e-08 3.56128e-08)
(1.96646e-08 -5.37723e-08 4.56289e-08)
(2.30745e-08 -6.50079e-08 5.6935e-08)
(2.65854e-08 -7.70405e-08 6.9906e-08)
(3.03536e-08 -9.00425e-08 8.49074e-08)
(3.45811e-08 -1.04165e-07 1.02301e-07)
(3.95428e-08 -1.1956e-07 1.22442e-07)
(4.56359e-08 -1.3641e-07 1.4567e-07)
(5.34512e-08 -1.54965e-07 1.72306e-07)
(6.38549e-08 -1.75572e-07 2.02545e-07)
(7.79608e-08 -1.98404e-07 2.35948e-07)
(9.52163e-08 -2.21294e-07 2.68488e-07)
(1.07822e-07 -2.419e-07 2.9513e-07)
(0 0 0)
(5.11142e-09 -1.20929e-08 9.89952e-09)
(9.69762e-09 -2.32532e-08 1.91917e-08)
(1.38897e-08 -3.40136e-08 2.84499e-08)
(1.78062e-08 -4.48068e-08 3.81603e-08)
(2.15631e-08 -5.59936e-08 4.87573e-08)
(2.52833e-08 -6.78742e-08 6.06403e-08)
(2.91085e-08 -8.07001e-08 7.41834e-08)
(3.32158e-08 -9.46923e-08 8.97467e-08)
(3.78393e-08 -1.10065e-07 1.07683e-07)
(4.33083e-08 -1.27055e-07 1.28337e-07)
(5.01124e-08 -1.45966e-07 1.5205e-07)
(5.90042e-08 -1.67242e-07 1.7917e-07)
(7.1133e-08 -1.91568e-07 2.10009e-07)
(8.80699e-08 -2.19766e-07 2.44487e-07)
(1.08945e-07 -2.49379e-07 2.78345e-07)
(1.50543e-07 -2.94099e-07 3.18731e-07)
(0 0 0)
(0 0 0)
(0 0 0)
(0 0 0)
(0 0 0)
(0 0 0)
(0 0 0)
(0 0 0)
(0 0 0)
(0 0 0)
(0 0 0)
(0 0 0)
(0 0 0)
(0 0 0)
(0 0 0)
(0 0 0)
(-5.77625e-09 8.15766e-09 3.08422e-09)
(0 0 0)
(7.21234e-10 -2.22706e-09 1.48702e-09)
(1.36302e-09 -4.26616e-09 2.89092e-09)
(1.93852e-09 -6.20332e-09 4.30742e-09)
(2.4571e-09 -8.10363e-09 5.81957e-09)
(2.92413e-09 -1.0008e-08 7.5005e-09)
(3.34025e-09 -1.19319e-08 9.41511e-09)
(3.69982e-09 -1.38646e-08 1.16209e-08)
(3.9891e-09 -1.57612e-08 1.41651e-08)
(4.18496e-09 -1.75292e-08 1.70774e-08)
(4.25709e-09 -1.90066e-08 2.03575e-08)
(4.17811e-09 -1.99279e-08 2.39485e-08)
(3.93546e-09 -1.98657e-08 2.76878e-08)
(3.50109e-09 -1.81604e-08 3.12136e-08)
(2.62768e-09 -1.40023e-08 3.37462e-08)
(5.24426e-10 -7.6408e-09 3.38478e-08)
(-7.4434e-09 -1.87167e-09 2.29868e-08)
(0 0 0)
(1.43425e-09 -4.38784e-09 2.9372e-09)
(2.71132e-09 -8.40805e-09 5.70992e-09)
(3.85833e-09 -1.22311e-08 8.50637e-09)
(4.89531e-09 -1.59852e-08 1.14888e-08)
(5.8348e-09 -1.97546e-08 1.48006e-08)
(6.68046e-09 -2.3578e-08 1.85703e-08)
(7.42415e-09 -2.74453e-08 2.2912e-08)
(8.04144e-09 -3.12852e-08 2.79194e-08)
(8.48691e-09 -3.49453e-08 3.36516e-08)
(8.69306e-09 -3.81652e-08 4.01047e-08)
(8.57828e-09 -4.05488e-08 4.71526e-08)
(8.06202e-09 -4.15604e-08 5.44415e-08)
(7.05288e-09 -4.06636e-08 6.12071e-08)
(5.34386e-09 -3.78771e-08 6.59849e-08)
(2.57576e-09 -3.49516e-08 6.67951e-08)
(-4.05943e-09 -3.8053e-08 5.83226e-08)
(0 0 0)
(2.13136e-09 -6.41536e-09 4.31657e-09)
(4.03108e-09 -1.22988e-08 8.39032e-09)
(5.74165e-09 -1.79021e-08 1.24956e-08)
(7.29587e-09 -2.34162e-08 1.68678e-08)
(8.71671e-09 -2.89732e-08 2.17162e-08)
(1.00157e-08 -3.4646e-08 2.72302e-08)
(1.11889e-08 -4.04431e-08 3.35795e-08)
(1.22097e-08 -4.62965e-08 4.09059e-08)
(1.30177e-08 -5.20419e-08 4.93045e-08)
(1.35059e-08 -5.7397e-08 5.87811e-08)
(1.35071e-08 -6.19476e-08 6.91682e-08)
(1.27752e-08 -6.51961e-08 7.99826e-08)
(1.0959e-08 -6.6815e-08 9.02036e-08)
(7.62967e-09 -6.72751e-08 9.80113e-08)
(2.76515e-09 -6.83233e-08 1.01153e-07)
(-6.83083e-09 -7.29334e-08 9.44192e-08)
(0 0 0)
(2.80348e-09 -8.24184e-09 5.59363e-09)
(5.30526e-09 -1.58081e-08 1.08695e-08)
(7.56459e-09 -2.30279e-08 1.61789e-08)
(9.62939e-09 -3.01539e-08 2.18224e-08)
(1.15369e-08 -3.73706e-08 2.80684e-08)
(1.33129e-08 -4.47953e-08 3.51624e-08)
(1.49676e-08 -5.24737e-08 4.33265e-08)
(1.64868e-08 -6.03711e-08 5.27523e-08)
(1.78156e-08 -6.83574e-08 6.35796e-08)
(1.88301e-08 -7.61873e-08 7.58463e-08)
(1.92899e-08 -8.34807e-08 8.93912e-08)
(1.87485e-08 -8.97451e-08 1.03684e-07)
(1.64392e-08 -9.4541e-08 1.1755e-07)
(1.13416e-08 -9.79093e-08 1.28822e-07)
(3.42583e-09 -1.00744e-07 1.34594e-07)
(-9.66405e-09 -1.05906e-07 1.29139e-07)
(0 0 0)
(3.44012e-09 -9.80128e-09 6.74142e-09)
(6.51358e-09 -1.88087e-08 1.30935e-08)
(9.29718e-09 -2.74223e-08 1.9473e-08)
(1.18556e-08 -3.59544e-08 2.62358e-08)
(1.42437e-08 -4.46436e-08 3.37007e-08)
(1.65073e-08 -5.36578e-08 4.21606e-08)
(1.86813e-08 -6.30936e-08 5.1884e-08)
(2.0783e-08 -7.29735e-08 6.31096e-08)
(2.27954e-08 -8.32383e-08 7.60274e-08)
(2.46343e-08 -9.373e-08 9.07299e-08)
(2.60787e-08 -1.04156e-07 1.07114e-07)
(2.66161e-08 -1.14038e-07 1.24699e-07)
(2.51855e-08 -1.2266e-07 1.42298e-07)
(2.00294e-08 -1.29066e-07 1.57512e-07)
(1.02456e-08 -1.32491e-07 1.66671e-07)
(-6.66955e-09 -1.36535e-07 1.63329e-07)
(0 0 0)
(4.02967e-09 -1.10312e-08 7.73803e-09)
(7.63327e-09 -2.11805e-08 1.50191e-08)
(1.09046e-08 -3.09095e-08 2.23121e-08)
(1.39252e-08 -4.05844e-08 3.00163e-08)
(1.67686e-08 -5.04943e-08 3.84891e-08)
(1.9504e-08 -6.08581e-08 4.80592e-08)
(2.2198e-08 -7.18285e-08 5.903e-08)
(2.49137e-08 -8.34969e-08 7.16779e-08)
(2.77037e-08 -9.58967e-08 8.6238e-08)
(3.05906e-08 -1.08997e-07 1.02863e-07)
(3.35156e-08 -1.22676e-07 1.21538e-07)
(3.61992e-08 -1.36648e-07 1.41911e-07)
(3.78385e-08 -1.50277e-07 1.62925e-07)
(3.66427e-08 -1.62147e-07 1.82134e-07)
(3.04312e-08 -1.69658e-07 1.95078e-07)
(1.03337e-08 -1.67583e-07 1.95044e-07)
(0 0 0)
(4.56041e-09 -1.18766e-08 8.56824e-09)
(8.64111e-09 -2.2818e-08 1.6617e-08)
(1.23507e-08 -3.33342e-08 2.46524e-08)
(1.57855e-08 -4.38344e-08 3.31036e-08)
(1.90358e-08 -5.46498e-08 4.23523e-08)
(2.21924e-08 -6.60433e-08 5.27482e-08)
(2.53524e-08 -7.82179e-08 6.46132e-08)
(2.86259e-08 -9.13286e-08 7.82433e-08)
(3.21422e-08 -1.05496e-07 9.38979e-08)
(3.60556e-08 -1.20816e-07 1.11767e-07)
(4.05451e-08 -1.37366e-07 1.31905e-07)
(4.57792e-08 -1.55196e-07 1.54081e-07)
(5.18043e-08 -1.74261e-07 1.77424e-07)
(5.82235e-08 -1.94041e-07 1.99562e-07)
(6.34093e-08 -2.11914e-07 2.15276e-07)
(5.87504e-08 -2.25854e-07 2.14512e-07)
(0 0 0)
(5.02194e-09 -1.22937e-08 9.22516e-09)
(9.51683e-09 -2.36375e-08 1.78753e-08)
(1.36042e-08 -3.45724e-08 2.64777e-08)
(1.73906e-08 -4.55356e-08 3.54764e-08)
(2.09784e-08 -5.6887e-08 4.5263e-08)
(2.44728e-08 -6.89206e-08 5.61913e-08)
(2.79913e-08 -8.18749e-08 6.85827e-08)
(3.16749e-08 -9.59471e-08 8.27278e-08)
(3.57021e-08 -1.11309e-07 9.8877e-08)
(4.03088e-08 -1.28119e-07 1.1721e-07)
(4.58151e-08 -1.46538e-07 1.37775e-07)
(5.26409e-08 -1.66735e-07 1.60363e-07)
(6.12828e-08 -1.88843e-07 1.8419e-07)
(7.21007e-08 -2.12631e-07 2.07167e-07)
(8.35952e-08 -2.34867e-07 2.24044e-07)
(1.04097e-07 -2.60879e-07 2.20754e-07)
(0 0 0)
(0 0 0)
(0 0 0)
(0 0 0)
(0 0 0)
(0 0 0)
(0 0 0)
(0 0 0)
(0 0 0)
(0 0 0)
(0 0 0)
(0 0 0)
(0 0 0)
(0 0 0)
(0 0 0)
(0 0 0)
(-1.14267e-08 3.29381e-10 3.23276e-09)
(0 0 0)
(6.948e-10 -2.26002e-09 1.32408e-09)
(1.30892e-09 -4.3296e-09 2.57304e-09)
(1.85096e-09 -6.29656e-09 3.83111e-09)
(2.32504e-09 -8.22768e-09 5.17076e-09)
(2.7297e-09 -1.0166e-08 6.65476e-09)
(3.05579e-09 -1.21305e-08 8.33725e-09)
(3.28285e-09 -1.41165e-08 1.02636e-08)
(3.37349e-09 -1.6092e-08 1.24663e-08)
(3.26545e-09 -1.79911e-08 1.49559e-08)
(2.86128e-09 -1.9707e-08 1.77037e-08)
(2.01334e-09 -2.10883e-08 2.06084e-08)
(4.88122e-10 -2.19409e-08 2.34338e-08)
(-2.13405e-09 -2.20612e-08 2.57086e-08)
(-6.61539e-09 -2.13504e-08 2.65983e-08)
(-1.34306e-08 -2.01036e-08 2.51621e-08)
(-2.21581e-08 -1.72022e-08 2.00894e-08)
(0 0 0)
(1.38335e-09 -4.45202e-09 2.61549e-09)
(2.60724e-09 -8.53142e-09 5.08229e-09)
(3.69009e-09 -1.2412e-08 7.56602e-09)
(4.6421e-09 -1.6225e-08 1.02082e-08)
(5.46298e-09 -2.00583e-08 1.31318e-08)
(6.13825e-09 -2.39559e-08 1.64442e-08)
(6.63259e-09 -2.79176e-08 2.02359e-08)
(6.87902e-09 -3.18929e-08 2.45726e-08)
(6.76393e-09 -3.57708e-08 2.94774e-08)
(6.10863e-09 -3.93743e-08 3.48976e-08)
(4.64873e-09 -4.24679e-08 4.06409e-08)
(2.00945e-09 -4.48064e-08 4.6266e-08)
(-2.30621e-09 -4.62953e-08 5.09325e-08)
(-8.73883e-09 -4.72983e-08 5.33052e-08)
(-1.65009e-08 -4.86794e-08 5.22747e-08)
(-2.28178e-08 -5.24938e-08 4.97609e-08)
(0 0 0)
(2.05958e-09 -6.50797e-09 3.84425e-09)
(3.88447e-09 -1.24764e-08 7.46891e-09)
(5.50518e-09 -1.81616e-08 1.11153e-08)
(6.94108e-09 -2.37581e-08 1.49885e-08)
(8.19778e-09 -2.94019e-08 1.92682e-08)
(9.2627e-09 -3.51711e-08 2.41128e-08)
(1.00962e-08 -4.10844e-08 2.96579e-08)
(1.0617e-08 -4.70942e-08 3.60049e-08)
(1.06803e-08 -5.30774e-08 4.31978e-08)
(1.00483e-08 -5.88321e-08 5.11789e-08)
(8.35585e-09 -6.40928e-08 5.97047e-08)
(5.07657e-09 -6.86112e-08 6.82186e-08)
(-4.39353e-10 -7.23838e-08 7.57065e-08)
(-8.57244e-09 -7.59931e-08 8.06788e-08)
(-1.79221e-08 -8.02369e-08 8.197e-08)
(-2.59741e-08 -8.56762e-08 8.17053e-08)
(0 0 0)
(2.71556e-09 -8.35906e-09 4.98235e-09)
(5.12598e-09 -1.60323e-08 9.67722e-09)
(7.27625e-09 -2.33538e-08 1.43933e-08)
(9.19851e-09 -3.058e-08 1.93926e-08)
(1.091e-08 -3.78983e-08 2.49055e-08)
(1.24089e-08 -4.54293e-08 3.11378e-08)
(1.36656e-08 -5.32247e-08 3.82677e-08)
(1.46058e-08 -6.12626e-08 4.64341e-08)
(1.50845e-08 -6.94396e-08 5.57109e-08)
(1.48436e-08 -7.75639e-08 6.60556e-08)
(1.34504e-08 -8.53555e-08 7.72149e-08)
(1.02091e-08 -9.24923e-08 8.85879e-08)
(4.14359e-09 -9.87663e-08 9.90721e-08)
(-5.55786e-09 -1.04335e-07 1.07028e-07)
(-1.74412e-08 -1.09504e-07 1.10923e-07)
(-2.82422e-08 -1.1522e-07 1.12634e-07)
(0 0 0)
(3.34138e-09 -9.93828e-09 6.00552e-09)
(6.31265e-09 -1.90701e-08 1.16587e-08)
(8.97517e-09 -2.78005e-08 1.73257e-08)
(1.13768e-08 -3.64449e-08 2.33166e-08)
(1.35514e-08 -4.52431e-08 2.9905e-08)
(1.55164e-08 -5.43624e-08 3.73368e-08)
(1.72665e-08 -6.38987e-08 4.58278e-08)
(1.87589e-08 -7.38742e-08 5.55523e-08)
(1.98882e-08 -8.42329e-08 6.66177e-08)
(2.04405e-08 -9.48268e-08 7.90108e-08)
(2.00093e-08 -1.0539e-07 9.2499e-08)
(1.78465e-08 -1.15502e-07 1.06483e-07)
(1.27031e-08 -1.24558e-07 1.19812e-07)
(3.06328e-09 -1.3174e-07 1.30685e-07)
(-1.04626e-08 -1.36155e-07 1.3714e-07)
(-2.46315e-08 -1.39623e-07 1.40947e-07)
(0 0 0)
(3.92545e-09 -1.11827e-08 6.89412e-09)
(7.42171e-09 -2.1469e-08 1.33748e-08)
(1.0567e-08 -3.13251e-08 1.98537e-08)
(1.3426e-08 -4.11192e-08 2.66789e-08)
(1.6052e-08 -5.11394e-08 3.41571e-08)
(1.8487e-08 -6.16e-08 4.25642e-08)
(2.07597e-08 -7.26443e-08 5.21441e-08)
(2.28777e-08 -8.4349e-08 6.30983e-08)
(2.48114e-08 -9.67234e-08 7.55626e-08)
(2.64618e-08 -1.09698e-07 8.95533e-08)
(2.75911e-08 -1.23089e-07 1.04867e-07)
(2.76753e-08 -1.3652e-07 1.20916e-07)
(2.56755e-08 -1.49249e-07 1.36494e-07)
(1.99439e-08 -1.59814e-07 1.49549e-07)
(9.80398e-09 -1.65848e-07 1.57589e-07)
(-7.11158e-09 -1.61324e-07 1.63065e-07)
(0 0 0)
(4.45561e-09 -1.2037e-08 7.63467e-09)
(8.42893e-09 -2.31231e-08 1.47995e-08)
(1.20136e-08 -3.37722e-08 2.19389e-08)
(1.52903e-08 -4.43944e-08 2.94265e-08)
(1.83304e-08 -5.53176e-08 3.75904e-08)
(2.12006e-08 -6.6796e-08 4.6724e-08)
(2.39644e-08 -7.90164e-08 5.70858e-08)
(2.66833e-08 -9.2106e-08 6.88904e-08)
(2.94144e-08 -1.06138e-07 8.22861e-08)
(3.22033e-08 -1.21128e-07 9.73021e-08)
(3.50599e-08 -1.37013e-07 1.13746e-07)
(3.78983e-08 -1.53611e-07 1.31026e-07)
(4.04478e-08 -1.70507e-07 1.47836e-07)
(4.22129e-08 -1.86742e-07 1.61719e-07)
(4.27692e-08 -1.99939e-07 1.6929e-07)
(4.04671e-08 -2.08463e-07 1.71966e-07)
(0 0 0)
(4.92055e-09 -1.24575e-08 8.22109e-09)
(9.31215e-09 -2.39488e-08 1.59223e-08)
(1.32806e-08 -3.50183e-08 2.35667e-08)
(1.69185e-08 -4.61029e-08 3.15409e-08)
(2.03116e-08 -5.75574e-08 4.01814e-08)
(2.35446e-08 -6.96647e-08 4.97855e-08)
(2.67072e-08 -8.26421e-08 6.0611e-08)
(2.98999e-08 -9.6651e-08 7.28673e-08)
(3.32418e-08 -1.11802e-07 8.66929e-08)
(3.68783e-08 -1.28152e-07 1.02103e-07)
(4.0985e-08 -1.45687e-07 1.18887e-07)
(4.57534e-08 -1.64283e-07 1.36438e-07)
(5.1366e-08 -1.83619e-07 1.53437e-07)
(5.79611e-08 -2.02912e-07 1.6742e-07)
(6.49423e-08 -2.1936e-07 1.74761e-07)
(8.34719e-08 -2.39235e-07 1.70931e-07)
(0 0 0)
(0 0 0)
(0 0 0)
(0 0 0)
(0 0 0)
(0 0 0)
(0 0 0)
(0 0 0)
(0 0 0)
(0 0 0)
(0 0 0)
(0 0 0)
(0 0 0)
(0 0 0)
(0 0 0)
(0 0 0)
(-1.33364e-08 -2.13301e-09 3.96596e-09)
(0 0 0)
(6.68922e-10 -2.28576e-09 1.11436e-09)
(1.25604e-09 -4.37917e-09 2.16476e-09)
(1.7656e-09 -6.36956e-09 3.22137e-09)
(2.19685e-09 -8.325e-09 4.34405e-09)
(2.54209e-09 -1.02899e-08 5.58359e-09)
(2.78375e-09 -1.22856e-08 6.98243e-09)
(2.88931e-09 -1.43126e-08 8.57429e-09)
(2.80368e-09 -1.63494e-08 1.03799e-08)
(2.43844e-09 -1.83499e-08 1.23981e-08)
(1.65771e-09 -2.02452e-08 1.4592e-08)
(2.5969e-10 -2.195e-08 1.6863e-08)
(-2.05868e-09 -2.33775e-08 1.90148e-08)
(-5.76602e-09 -2.44598e-08 2.07247e-08)
(-1.15037e-08 -2.51376e-08 2.15874e-08)
(-1.91367e-08 -2.52288e-08 2.14023e-08)
(-2.71693e-08 -2.21762e-08 1.93472e-08)
(0 0 0)
(1.33342e-09 -4.50259e-09 2.20168e-09)
(2.50528e-09 -8.62871e-09 4.27671e-09)
(3.52577e-09 -1.25545e-08 6.36295e-09)
(4.39577e-09 -1.64134e-08 8.5771e-09)
(5.10336e-09 -2.02951e-08 1.10187e-08)
(5.61841e-09 -2.4248e-08 1.37722e-08)
(5.8834e-09 -2.828e-08 1.69055e-08)
(5.79974e-09 -3.23565e-08 2.04608e-08)
(5.2088e-09 -3.63972e-08 2.44391e-08)
(3.87081e-09 -4.02805e-08 2.87727e-08)
(1.44688e-09 -4.38609e-08 3.32779e-08)
(-2.50331e-09 -4.70174e-08 3.75937e-08)
(-8.43243e-09 -4.97467e-08 4.11423e-08)
(-1.63586e-08 -5.22324e-08 4.3233e-08)
(-2.4471e-08 -5.45371e-08 4.3617e-08)
(-2.91765e-08 -5.74668e-08 4.37506e-08)
(0 0 0)
(1.98895e-09 -6.58149e-09 3.23683e-09)
(3.74044e-09 -1.26173e-08 6.28651e-09)
(5.27349e-09 -1.83663e-08 9.34966e-09)
(6.59478e-09 -2.40253e-08 1.25952e-08)
(7.69416e-09 -2.97324e-08 1.61687e-08)
(8.53795e-09 -3.55698e-08 2.01953e-08)
(9.05753e-09 -4.15636e-08 2.47771e-08)
(9.13131e-09 -4.7681e-08 2.99809e-08)
(8.55978e-09 -5.38274e-08 3.58175e-08)
(7.03827e-09 -5.98499e-08 4.22054e-08)
(4.13357e-09 -6.55596e-08 4.8912e-08)
(-7.03145e-10 -7.07993e-08 5.54882e-08)
(-7.9564e-09 -7.55921e-08 6.12519e-08)
(-1.73787e-08 -8.02766e-08 6.54618e-08)
(-2.64829e-08 -8.49917e-08 6.78389e-08)
(-3.21787e-08 -8.9762e-08 6.97459e-08)
(0 0 0)
(2.62871e-09 -8.45226e-09 4.19611e-09)
(4.94915e-09 -1.62101e-08 8.147e-09)
(6.99255e-09 -2.361e-08 1.21091e-08)
(8.77605e-09 -3.09101e-08 1.6298e-08)
(1.02985e-08 -3.82991e-08 2.09005e-08)
(1.1534e-08 -4.58993e-08 2.60798e-08)
(1.24202e-08 -5.37652e-08 3.19703e-08)
(1.2839e-08 -6.1882e-08 3.86649e-08)
(1.25887e-08 -7.01606e-08 4.61913e-08)
(1.13476e-08 -7.84343e-08 5.44697e-08)
(8.63018e-09 -8.64615e-08 6.32483e-08)
(3.7631e-09 -9.39595e-08 7.20363e-08)
(-3.97573e-09 -1.00708e-07 8.01012e-08)
(-1.4658e-08 -1.06673e-07 8.66449e-08)
(-2.57736e-08 -1.11758e-07 9.11484e-08)
(-3.3725e-08 -1.16593e-07 9.47095e-08)
(0 0 0)
(3.24337e-09 -1.0047e-08 5.05878e-09)
(6.11349e-09 -1.92767e-08 9.81685e-09)
(8.65666e-09 -2.80958e-08 1.45781e-08)
(1.09046e-08 -3.68205e-08 1.95977e-08)
(1.28717e-08 -4.569e-08 2.50978e-08)
(1.45503e-08 -5.48693e-08 3.12734e-08)
(1.5902e-08 -6.44501e-08 3.82874e-08)
(1.68401e-08 -7.44489e-08 4.62565e-08)
(1.72048e-08 -8.48022e-08 5.52271e-08)
(1.67235e-08 -9.53514e-08 6.51284e-08)
(1.49488e-08 -1.05815e-07 7.57016e-08)
(1.1177e-08 -1.15746e-07 8.64249e-08)
(4.44985e-09 -1.24484e-07 9.65056e-08)
(-5.95877e-09 -1.31095e-07 1.05043e-07)
(-1.83801e-08 -1.3457e-07 1.1129e-07)
(-2.93519e-08 -1.36524e-07 1.16296e-07)
(0 0 0)
(3.82141e-09 -1.13025e-08 5.80816e-09)
(7.21076e-09 -2.16956e-08 1.12634e-08)
(1.02309e-08 -3.16469e-08 1.67073e-08)
(1.29302e-08 -4.15236e-08 2.24262e-08)
(1.53427e-08 -5.1611e-08 2.86691e-08)
(1.74862e-08 -6.21163e-08 3.56551e-08)
(1.93579e-08 -7.31706e-08 4.35676e-08)
(2.09242e-08 -8.48308e-08 5.25412e-08)
(2.2105e-08 -9.70746e-08 6.26353e-08)
(2.2747e-08 -1.09782e-07 7.37844e-08)
(2.25732e-08 -1.22694e-07 8.57166e-08)
(2.10975e-08 -1.35326e-07 9.78584e-08)
(1.7551e-08 -1.46812e-07 1.09289e-07)
(1.10567e-08 -1.55616e-07 1.18872e-07)
(2.04438e-09 -1.59621e-07 1.25642e-07)
(-1.13806e-08 -1.53245e-07 1.31281e-07)
(0 0 0)
(4.35024e-09 -1.21633e-08 6.43295e-09)
(8.21583e-09 -2.33613e-08 1.24649e-08)
(1.16755e-08 -3.41086e-08 1.84646e-08)
(1.47941e-08 -4.48127e-08 2.47392e-08)
(1.76256e-08 -5.57962e-08 3.15553e-08)
(2.02139e-08 -6.73025e-08 3.91459e-08)
(2.25944e-08 -7.94989e-08 4.77048e-08)
(2.47918e-08 -9.24807e-08 5.73738e-08)
(2.68177e-08 -1.06269e-07 6.82147e-08)
(2.86667e-08 -1.20797e-07 8.01551e-08)
(3.03053e-08 -1.35877e-07 9.28967e-08)
(3.16586e-08 -1.51146e-07 1.05789e-07)
(3.26525e-08 -1.65988e-07 1.17712e-07)
(3.34417e-08 -1.79381e-07 1.27103e-07)
(3.46973e-08 -1.89562e-07 1.32534e-07)
(3.5411e-08 -1.96073e-07 1.35863e-07)
(0 0 0)
(4.81779e-09 -1.25858e-08 6.92812e-09)
(9.10484e-09 -2.41907e-08 1.34127e-08)
(1.2953e-08 -3.53582e-08 1.98378e-08)
(1.64408e-08 -4.65221e-08 2.65214e-08)
(1.9638e-08 -5.803e-08 3.37371e-08)
(2.26098e-08 -7.01509e-08 4.17211e-08)
(2.54215e-08 -8.30785e-08 5.06667e-08)
(2.81421e-08 -9.69345e-08 6.071e-08)
(3.08516e-08 -1.11766e-07 7.19024e-08)
(3.36498e-08 -1.27533e-07 8.41531e-08)
(3.66667e-08 -1.44074e-07 9.71337e-08)
(4.00796e-08 -1.61068e-07 1.1014e-07)
(4.41805e-08 -1.77988e-07 1.21952e-07)
(4.95446e-08 -1.9403e-07 1.30813e-07)
(5.6438e-08 -2.07245e-07 1.3501e-07)
(7.74706e-08 -2.251e-07 1.33039e-07)
(0 0 0)
(0 0 0)
(0 0 0)
(0 0 0)
(0 0 0)
(0 0 0)
(0 0 0)
(0 0 0)
(0 0 0)
(0 0 0)
(0 0 0)
(0 0 0)
(0 0 0)
(0 0 0)
(0 0 0)
(0 0 0)
(-1.38363e-08 -2.73362e-09 3.63234e-09)
(0 0 0)
(6.45974e-10 -2.30443e-09 8.66844e-10)
(1.20925e-09 -4.41499e-09 1.68338e-09)
(1.69027e-09 -6.42279e-09 2.50391e-09)
(2.08417e-09 -8.39667e-09 3.37434e-09)
(2.37846e-09 -1.03808e-08 4.33254e-09)
(2.54928e-09 -1.23983e-08 5.40951e-09)
(2.55601e-09 -1.44531e-08 6.62874e-09)
(2.3335e-09 -1.65304e-08 8.00269e-09)
(1.78206e-09 -1.85955e-08 9.52631e-09)
(7.56536e-10 -2.05973e-08 1.11679e-08)
(-9.46894e-10 -2.24743e-08 1.28554e-08)
(-3.61248e-09 -2.41615e-08 1.44624e-08)
(-7.64294e-09 -2.55815e-08 1.58137e-08)
(-1.35274e-08 -2.65659e-08 1.67502e-08)
(-2.09494e-08 -2.66904e-08 1.72148e-08)
(-2.82687e-08 -2.3145e-08 1.61792e-08)
(0 0 0)
(1.28905e-09 -4.53989e-09 1.71309e-09)
(2.41483e-09 -8.70061e-09 3.32669e-09)
(3.38032e-09 -1.26601e-08 4.94721e-09)
(4.17877e-09 -1.65526e-08 6.66373e-09)
(4.78909e-09 -2.04685e-08 8.55078e-09)
(5.16937e-09 -2.44586e-08 1.06704e-08)
(5.24733e-09 -2.85363e-08 1.307e-08)
(4.90659e-09 -3.26767e-08 1.57754e-08)
(3.9704e-09 -3.68162e-08 1.8779e-08)
(2.18766e-09 -4.08573e-08 2.20218e-08)
(-7.71052e-10 -4.46825e-08 2.53691e-08)
(-5.28507e-09 -4.81826e-08 2.85822e-08)
(-1.16407e-08 -5.12944e-08 3.13257e-08)
(-1.95351e-08 -5.39752e-08 3.32653e-08)
(-2.69089e-08 -5.59717e-08 3.42578e-08)
(-3.02318e-08 -5.7951e-08 3.48177e-08)
(0 0 0)
(1.92597e-09 -6.63655e-09 2.51927e-09)
(3.6122e-09 -1.27228e-08 4.89155e-09)
(5.06783e-09 -1.85191e-08 7.27128e-09)
(6.28894e-09 -2.42225e-08 9.78715e-09)
(7.25275e-09 -2.99723e-08 1.25484e-08)
(7.90992e-09 -3.58528e-08 1.56475e-08)
(8.17249e-09 -4.18944e-08 1.9156e-08)
(7.89673e-09 -4.8072e-08 2.31154e-08)
(6.86334e-09 -5.43039e-08 2.75211e-08)
(4.7608e-09 -6.04548e-08 3.22999e-08)
(1.186e-09 -6.6351e-08 3.72789e-08)
(-4.29776e-09 -7.18223e-08 4.21552e-08)
(-1.19185e-08 -7.68001e-08 4.65277e-08)
(-2.10103e-08 -8.13891e-08 5.00352e-08)
(-2.88993e-08 -8.55208e-08 5.24786e-08)
(-3.27991e-08 -8.9338e-08 5.41864e-08)
(0 0 0)
(2.55098e-09 -8.52267e-09 3.26681e-09)
(4.79117e-09 -1.6344e-08 6.34089e-09)
(6.73985e-09 -2.38012e-08 9.41928e-09)
(8.40162e-09 -3.11522e-08 1.26661e-08)
(9.76051e-09 -3.85859e-08 1.62221e-08)
(1.07725e-08 -4.62248e-08 2.02075e-08)
(1.13537e-08 -5.41237e-08 2.47174e-08)
(1.13628e-08 -6.22685e-08 2.98095e-08)
(1.05794e-08 -7.05717e-08 3.54874e-08)
(8.68277e-09 -7.88672e-08 4.16736e-08)
(5.23825e-09 -8.69036e-08 4.81726e-08)
(-2.74566e-10 -9.4363e-08 5.46429e-08)
(-8.25839e-09 -1.00931e-07 6.06476e-08)
(-1.83183e-08 -1.06397e-07 6.57909e-08)
(-2.78416e-08 -1.10602e-07 6.9695e-08)
(-3.37212e-08 -1.14374e-07 7.24769e-08)
(0 0 0)
(3.15533e-09 -1.01294e-08 3.93932e-09)
(5.93488e-09 -1.94322e-08 7.64211e-09)
(8.3719e-09 -2.83151e-08 1.13416e-08)
(1.04844e-08 -3.70932e-08 1.52322e-08)
(1.22709e-08 -4.60041e-08 1.94813e-08)
(1.3705e-08 -5.52097e-08 2.42329e-08)
(1.47262e-08 -6.47955e-08 2.96017e-08)
(1.52252e-08 -7.47687e-08 3.56604e-08)
(1.50261e-08 -8.50509e-08 4.24207e-08)
(1.38632e-08 -9.54602e-08 4.98032e-08)
(1.13519e-08 -1.05677e-07 5.75913e-08)
(6.96332e-09 -1.15198e-07 6.53998e-08)