/*--------------------------------*- C++ -*----------------------------------*\
| =========                 |                                                 |
| \\      /  F ield         | OpenFOAM: The Open Source CFD Toolbox           |
|  \\    /   O peration     | Version:  v1912                                 |
|   \\  /    A nd           | Website:  www.openfoam.com                      |
|    \\/     M anipulation  |                                                 |
\*---------------------------------------------------------------------------*/
FoamFile
{
    version     2.0;
    format      ascii;
    class       volVectorField;
    location    "0.19/solid";
    object      DD_0;
}
// * * * * * * * * * * * * * * * * * * * * * * * * * * * * * * * * * * * * * //

dimensions      [0 1 0 0 0 0 0];


internalField   nonuniform List<vector> 
256
(
(7.46901e-10 6.10539e-10 8.66607e-10)
(1.32462e-10 2.63222e-10 6.4463e-10)
(-1.27985e-10 2.58932e-10 6.46445e-10)
(-7.23904e-10 5.8769e-10 8.72827e-10)
(1.15435e-09 2.07394e-10 1.72894e-09)
(2.7384e-10 1.37026e-11 1.45771e-09)
(-2.42703e-10 4.6938e-12 1.46382e-09)
(-1.09949e-09 1.75641e-10 1.74851e-09)
(1.16408e-09 -3.30727e-10 2.2861e-09)
(2.93663e-10 -3.94425e-10 2.02783e-09)
(-2.30456e-10 -4.0713e-10 2.03685e-09)
(-1.07798e-09 -3.71085e-10 2.31409e-09)
(1.10784e-09 -8.63364e-10 2.77318e-09)
(2.78585e-10 -9.06062e-10 2.5096e-09)
(-1.80333e-10 -9.21721e-10 2.52027e-09)
(-9.8742e-10 -9.11698e-10 2.80588e-09)
(1.10249e-09 -1.41345e-09 3.27082e-09)
(2.83802e-10 -1.50785e-09 2.98728e-09)
(-1.47293e-10 -1.52605e-09 2.99894e-09)
(-9.44195e-10 -1.4689e-09 3.30633e-09)
(1.24403e-09 -2.02912e-09 3.83988e-09)
(3.54469e-10 -2.19864e-09 3.53047e-09)
(-1.762e-10 -2.21923e-09 3.54286e-09)
(-1.04429e-09 -2.0912e-09 3.87756e-09)
(1.67863e-09 -2.87947e-09 4.55463e-09)
(5.30514e-10 -3.00304e-09 4.22681e-09)
(-3.07256e-10 -3.02625e-09 4.23974e-09)
(-1.43355e-09 -2.94892e-09 4.59437e-09)
(2.41426e-09 -4.48052e-09 5.36264e-09)
(7.20985e-10 -4.17648e-09 5.04779e-09)
(-4.51293e-10 -4.20063e-09 5.06057e-09)
(-2.11931e-09 -4.55551e-09 5.40316e-09)
(2.87564e-10 8.79419e-11 2.93984e-10)
(4.46582e-11 -1.10982e-10 3.51992e-10)
(-4.19544e-11 -1.14931e-10 3.5419e-10)
(-2.70108e-10 6.74357e-11 3.00128e-10)
(4.68175e-10 -2.97274e-10 9.45087e-10)
(1.11459e-10 -4.18148e-10 1.05616e-09)
(-8.76723e-11 -4.2769e-10 1.06169e-09)
(-4.26213e-10 -3.29095e-10 9.61039e-10)
(4.59568e-10 -7.53081e-10 1.50365e-09)
(1.19181e-10 -7.99326e-10 1.63522e-09)
(-6.80935e-11 -8.12587e-10 1.64321e-09)
(-3.91217e-10 -7.93978e-10 1.5268e-09)
(4.11876e-10 -1.24435e-09 1.99453e-09)
(1.07284e-10 -1.28423e-09 2.12773e-09)
(-2.457e-11 -1.30026e-09 2.13733e-09)
(-3.12423e-10 -1.29304e-09 2.02244e-09)
(4.07419e-10 -1.77048e-09 2.4769e-09)
(1.14535e-10 -1.86298e-09 2.60337e-09)
(4.03114e-12 -1.88145e-09 2.61403e-09)
(-2.72242e-10 -1.82626e-09 2.50794e-09)
(5.41286e-10 -2.334e-09 2.98933e-09)
(1.8421e-10 -2.50172e-09 3.10732e-09)
(-2.56689e-11 -2.52257e-09 3.11873e-09)
(-3.66066e-10 -2.39659e-09 3.02261e-09)
(9.6269e-10 -2.98637e-09 3.49715e-09)
(3.56756e-10 -3.10895e-09 3.60995e-09)
(-1.54595e-10 -3.13248e-09 3.62183e-09)
(-7.42911e-10 -3.05644e-09 3.53194e-09)
(1.69113e-09 -4.04105e-09 3.76051e-09)
(5.42874e-10 -3.72478e-09 3.87473e-09)
(-2.9516e-10 -3.74951e-09 3.88668e-09)
(-1.42166e-09 -4.1164e-09 3.7956e-09)
(4.57406e-11 -6.18334e-11 1.85843e-10)
(-3.2191e-11 -1.8257e-10 2.71788e-10)
(3.28917e-11 -1.8611e-10 2.73405e-10)
(-3.15629e-11 -8.01366e-11 1.90456e-10)
(5.89833e-11 -5.37058e-10 6.85224e-10)
(-3.6862e-11 -6.0371e-10 8.37786e-10)
(5.42715e-11 -6.12712e-10 8.41895e-10)
(-2.52747e-11 -5.66245e-10 6.97053e-10)
(2.74231e-11 -1.00748e-09 1.18886e-09)
(-4.32745e-11 -1.03642e-09 1.35997e-09)
(8.39892e-11 -1.04923e-09 1.36596e-09)
(2.87245e-11 -1.04625e-09 1.20621e-09)
(-1.0667e-11 -1.47288e-09 1.6576e-09)
(-5.263e-11 -1.51238e-09 1.83017e-09)
(1.21743e-10 -1.52805e-09 1.83752e-09)
(9.48448e-11 -1.51995e-09 1.67907e-09)
(-7.23602e-12 -1.9383e-09 2.10198e-09)
(-4.31327e-11 -2.03443e-09 2.27084e-09)
(1.45659e-10 -2.05262e-09 2.27919e-09)
(1.24876e-10 -1.99286e-09 2.12646e-09)
(1.30352e-10 -2.38597e-09 2.51874e-09)
(2.60063e-11 -2.55724e-09 2.68309e-09)
(1.14767e-10 -2.5779e-09 2.69215e-09)
(2.58126e-11 -2.4477e-09 2.54541e-09)
(5.50994e-10 -2.84872e-09 2.83836e-09)
(1.95514e-10 -2.97674e-09 2.99972e-09)
(-1.22602e-11 -3.00017e-09 3.00924e-09)
(-3.51102e-10 -2.91825e-09 2.86643e-09)
(1.26672e-09 -3.69554e-09 2.90791e-09)
(3.7838e-10 -3.39825e-09 3.07171e-09)
(-1.50389e-10 -3.42289e-09 3.08135e-09)
(-1.01747e-09 -3.77013e-09 2.9363e-09)
(-3.1873e-11 -1.05615e-10 1.61046e-10)
(-5.82632e-11 -1.90518e-10 2.09613e-10)
(5.75296e-11 -1.9378e-10 2.10932e-10)
(4.40877e-11 -1.22502e-10 1.64879e-10)
(-8.68203e-11 -6.27259e-10 5.58293e-10)
(-9.46745e-11 -6.66701e-10 6.46401e-10)
(1.07412e-10 -6.75035e-10 6.49673e-10)
(1.15199e-10 -6.53895e-10 5.67715e-10)
(-1.32275e-10 -1.12172e-09 9.76048e-10)
(-1.09716e-10 -1.14096e-09 1.07533e-09)
(1.42579e-10 -1.15303e-09 1.08003e-09)
(1.80027e-10 -1.15789e-09 9.89667e-10)
(-1.6395e-10 -1.57176e-09 1.3785e-09)
(-1.17781e-10 -1.61185e-09 1.47808e-09)
(1.76259e-10 -1.62688e-09 1.48386e-09)
(2.37066e-10 -1.61658e-09 1.39541e-09)
(-1.50988e-10 -1.98135e-09 1.74886e-09)
(-1.05664e-10 -2.08146e-09 1.84525e-09)
(1.95334e-10 -2.09914e-09 1.85185e-09)
(2.55444e-10 -2.03413e-09 1.76833e-09)
(-5.47774e-12 -2.34006e-09 2.06203e-09)
(-3.52683e-11 -2.5158e-09 2.15453e-09)
(1.61576e-10 -2.53608e-09 2.16175e-09)
(1.46962e-10 -2.40051e-09 2.0834e-09)
(4.17503e-10 -2.71005e-09 2.26443e-09)
(1.33056e-10 -2.84618e-09 2.3542e-09)
(3.46974e-11 -2.86938e-09 2.36183e-09)
(-2.33165e-10 -2.77886e-09 2.28704e-09)
(1.12504e-09 -3.50073e-09 2.2902e-09)
(3.14645e-10 -3.22888e-09 2.38304e-09)
(-1.02769e-10 -3.25344e-09 2.39086e-09)
(-8.9171e-10 -3.57507e-09 2.31333e-09)
(-4.74478e-11 -1.20847e-10 1.36296e-10)
(-6.03374e-11 -1.91382e-10 1.56619e-10)
(5.8646e-11 -1.94454e-10 1.57683e-10)
(5.83646e-11 -1.36762e-10 1.39425e-10)
(-1.1586e-10 -6.53221e-10 4.46008e-10)
(-1.03152e-10 -6.82343e-10 4.82499e-10)
(1.12613e-10 -6.90144e-10 4.8508e-10)
(1.4059e-10 -6.77911e-10 4.5344e-10)
(-1.63402e-10 -1.15434e-09 7.6943e-10)
(-1.20533e-10 -1.17027e-09 8.10188e-10)
(1.47705e-10 -1.18168e-09 8.13835e-10)
(2.05201e-10 -1.18827e-09 7.79991e-10)
(-1.90435e-10 -1.59167e-09 1.08296e-09)
(-1.27742e-10 -1.63304e-09 1.12304e-09)
(1.78295e-10 -1.64744e-09 1.12749e-09)
(2.55459e-10 -1.63441e-09 1.096e-09)
(-1.70438e-10 -1.9661e-09 1.36474e-09)
(-1.13784e-10 -2.06926e-09 1.40228e-09)
(1.93658e-10 -2.08643e-09 1.40736e-09)
(2.65005e-10 -2.01718e-09 1.37976e-09)
(-1.88706e-11 -2.27977e-09 1.58865e-09)
(-4.21749e-11 -2.45905e-09 1.62328e-09)
(1.57286e-10 -2.47899e-09 1.62884e-09)
(1.49142e-10 -2.33907e-09 1.60516e-09)
(4.05553e-10 -2.61839e-09 1.7228e-09)
(1.25645e-10 -2.76106e-09 1.75549e-09)
(3.00258e-11 -2.78413e-09 1.76139e-09)
(-2.33214e-10 -2.68677e-09 1.74032e-09)
(1.10877e-09 -3.39288e-09 1.74196e-09)
(3.07039e-10 -3.13993e-09 1.77697e-09)
(-1.07601e-10 -3.16456e-09 1.78311e-09)
(-8.87709e-10 -3.46758e-09 1.76012e-09)
(-4.76169e-11 -1.25906e-10 1.03334e-10)
(-5.73694e-11 -1.91191e-10 1.10486e-10)
(5.50323e-11 -1.94133e-10 1.11274e-10)
(5.76496e-11 -1.41153e-10 1.05663e-10)
(-1.12728e-10 -6.54881e-10 3.26358e-10)
(-9.86015e-11 -6.81349e-10 3.38267e-10)
(1.05801e-10 -6.88777e-10 3.40149e-10)
(1.34942e-10 -6.78207e-10 3.31777e-10)
(-1.56837e-10 -1.15142e-09 5.55058e-10)
(-1.15306e-10 -1.16727e-09 5.67578e-10)
(1.38478e-10 -1.1782e-09 5.70208e-10)
(1.9447e-10 -1.1837e-09 5.62664e-10)
(-1.80046e-10 -1.57798e-09 7.75129e-10)
(-1.21694e-10 -1.62081e-09 7.86588e-10)
(1.66588e-10 -1.63472e-09 7.89775e-10)
(2.39315e-10 -1.61912e-09 7.84451e-10)
(-1.5584e-10 -1.93475e-09 9.69552e-10)
(-1.06768e-10 -2.03997e-09 9.79288e-10)
(1.79545e-10 -2.05674e-09 9.82913e-10)
(2.43275e-10 -1.98452e-09 9.80256e-10)
(-1.01516e-12 -2.23164e-09 1.11958e-09)
(-3.459e-11 -2.41314e-09 1.12756e-09)
(1.41504e-10 -2.43284e-09 1.13152e-09)
(1.23115e-10 -2.29012e-09 1.13135e-09)
(4.23867e-10 -2.56358e-09 1.20797e-09)
(1.32898e-10 -2.71003e-09 1.21489e-09)
(1.39039e-11 -2.73307e-09 1.21911e-09)
(-2.60306e-10 -2.63183e-09 1.22049e-09)
(1.12495e-09 -3.33198e-09 1.22466e-09)
(3.14406e-10 -3.08932e-09 1.23296e-09)
(-1.23989e-10 -3.11413e-09 1.23741e-09)
(-9.12813e-10 -3.40733e-09 1.23777e-09)
(-4.62353e-11 -1.27001e-10 6.42524e-11)
(-5.51297e-11 -1.90361e-10 6.64806e-11)
(5.23831e-11 -1.93224e-10 6.69652e-11)
(5.57047e-11 -1.41826e-10 6.56893e-11)
(-1.0701e-10 -6.49766e-10 1.98873e-10)
(-9.43214e-11 -6.76069e-10 2.0199e-10)
(1.00076e-10 -6.83265e-10 2.03137e-10)
(1.27617e-10 -6.7223e-10 2.02177e-10)
(-1.4751e-10 -1.13947e-09 3.34782e-10)
(-1.09929e-10 -1.15614e-09 3.37476e-10)
(1.30531e-10 -1.16675e-09 3.39069e-10)
(1.82469e-10 -1.1707e-09 3.39384e-10)
(-1.67957e-10 -1.55846e-09 4.64341e-10)
(-1.15663e-10 -1.60246e-09 4.66187e-10)
(1.56893e-10 -1.61606e-09 4.68108e-10)
(2.23508e-10 -1.59856e-09 4.69952e-10)
(-1.41494e-10 -1.90767e-09 5.77584e-10)
(-1.00297e-10 -2.01412e-09 5.78466e-10)
(1.68446e-10 -2.03063e-09 5.80642e-10)
(2.24287e-10 -1.9566e-09 5.84007e-10)
(1.47809e-11 -2.20015e-09 6.64011e-10)
(-2.79629e-11 -2.38281e-09 6.64024e-10)
(1.29505e-10 -2.40237e-09 6.66399e-10)
(1.01977e-10 -2.25814e-09 6.7106e-10)
(4.39713e-10 -2.53263e-09 7.15167e-10)
(1.39304e-10 -2.68078e-09 7.14724e-10)
(1.68973e-12 -2.70384e-09 7.1726e-10)
(-2.8189e-10 -2.6009e-09 7.22679e-10)
(1.13977e-09 -3.2987e-09 7.26822e-10)
(3.20925e-10 -3.06042e-09 7.27059e-10)
(-1.36348e-10 -3.08541e-09 7.29755e-10)
(-9.33423e-10 -3.37467e-09 7.34747e-10)
(-4.56219e-11 -1.26977e-10 2.1776e-11)
(-5.41792e-11 -1.89648e-10 2.22671e-11)
(5.12326e-11 -1.92473e-10 2.24306e-11)
(5.48156e-11 -1.41597e-10 2.22613e-11)
(-1.04327e-10 -6.45697e-10 6.67778e-11)
(-9.2414e-11 -6.72214e-10 6.73293e-11)
(9.74626e-11 -6.79297e-10 6.77152e-11)
(1.24149e-10 -6.67744e-10 6.7888e-11)
(-1.42937e-10 -1.13113e-09 1.11826e-10)
(-1.07423e-10 -1.14837e-09 1.12136e-10)
(1.26768e-10 -1.15883e-09 1.1267e-10)
(1.76589e-10 -1.16184e-09 1.13367e-10)
(-1.61981e-10 -1.54631e-09 1.54525e-10)
(-1.12814e-10 -1.59095e-09 1.54524e-10)
(1.52247e-10 -1.60439e-09 1.55166e-10)
(2.15709e-10 -1.5859e-09 1.56399e-10)
(-1.34533e-10 -1.89289e-09 1.91661e-10)
(-9.72791e-11 -1.99989e-09 1.91352e-10)
(1.63152e-10 -2.01628e-09 1.92078e-10)
(2.15046e-10 -1.94141e-09 1.93802e-10)
(2.22737e-11 -2.18476e-09 2.19913e-10)
(-2.49254e-11 -2.36789e-09 2.1935e-10)
(1.23823e-10 -2.38739e-09 2.20141e-10)
(9.18585e-11 -2.24253e-09 2.22261e-10)
(4.47181e-10 -2.51853e-09 2.36736e-10)
(1.42238e-10 -2.66724e-09 2.36054e-10)
(-4.096e-12 -2.69033e-09 2.369e-10)
(-2.92171e-10 -2.58684e-09 2.3924e-10)
(1.14683e-09 -3.28393e-09 2.40914e-10)
(3.23912e-10 -3.04705e-09 2.4043e-10)
(-1.42177e-10 -3.07215e-09 2.41334e-10)
(-9.43291e-10 -3.36026e-09 2.43565e-10)
)
;

boundaryField
{
    interface
    {
        type            calculated;
        value           nonuniform List<vector> 
192
(
(3.07395e-10 1.08585e-09 7.50541e-10)
(6.21347e-10 3.11686e-10 1.54546e-09)
(6.41735e-10 -3.42355e-10 2.09434e-09)
(6.07224e-10 -8.78761e-10 2.58516e-09)
(6.20074e-10 -1.3794e-09 3.08642e-09)
(7.61827e-10 -1.88508e-09 3.65723e-09)
(1.14174e-09 -2.58692e-09 4.37064e-09)
(2.1459e-09 -4.286e-09 5.17409e-09)
(-4.3473e-10 2.76875e-10 1.18705e-10)
(-3.07339e-10 -2.54274e-10 6.71252e-10)
(-3.13521e-10 -7.67157e-10 1.21949e-09)
(-3.50565e-10 -1.25738e-09 1.71491e-09)
(-3.4685e-10 -1.73813e-09 2.19947e-09)
(-2.22218e-10 -2.19519e-09 2.71092e-09)
(1.35857e-10 -2.69891e-09 3.21525e-09)
(1.15462e-09 -3.85097e-09 3.47363e-09)
(-6.60726e-10 -3.56533e-11 1.05994e-10)
(-6.66142e-10 -5.41639e-10 5.46483e-10)
(-6.94668e-10 -1.02489e-09 1.04091e-09)
(-7.243e-10 -1.48155e-09 1.51365e-09)
(-7.13011e-10 -1.90304e-09 1.96238e-09)
(-5.80928e-10 -2.24641e-09 2.38205e-09)
(-2.12457e-10 -2.56463e-09 2.70207e-09)
(7.8547e-10 -3.50653e-09 2.76639e-09)
(-7.48785e-10 -1.35289e-10 1.37755e-10)
(-8.10957e-10 -6.52361e-10 5.14587e-10)
(-8.52143e-10 -1.14101e-09 9.28347e-10)
(-8.75391e-10 -1.57644e-09 1.33356e-09)
(-8.54082e-10 -1.94174e-09 1.70807e-09)
(-7.12308e-10 -2.19794e-09 2.02473e-09)
(-3.37175e-10 -2.42742e-09 2.22808e-09)
(6.44549e-10 -3.31022e-09 2.25072e-09)
(-7.80573e-10 -1.61674e-10 1.32365e-10)
(-8.53071e-10 -6.82211e-10 4.39535e-10)
(-8.95407e-10 -1.17298e-09 7.63293e-10)
(-9.13276e-10 -1.59344e-09 1.07894e-09)
(-8.84129e-10 -1.92321e-09 1.36353e-09)
(-7.35457e-10 -2.13577e-09 1.58977e-09)
(-3.57884e-10 -2.33648e-09 1.72439e-09)
(6.12619e-10 -3.20066e-09 1.74194e-09)
(-7.94503e-10 -1.65992e-10 1.0364e-10)
(-8.62783e-10 -6.82187e-10 3.28574e-10)
(-9.01081e-10 -1.16825e-09 5.59033e-10)
(-9.14388e-10 -1.57773e-09 7.80751e-10)
(-8.80375e-10 -1.88999e-09 9.76791e-10)
(-7.28182e-10 -2.08672e-09 1.128e-09)
(-3.50495e-10 -2.28209e-09 1.21651e-09)
(6.13331e-10 -3.13875e-09 1.23241e-09)
(-8.02713e-10 -1.65313e-10 6.47531e-11)
(-8.66304e-10 -6.75086e-10 2.00975e-10)
(-9.00631e-10 -1.15471e-09 3.38258e-10)
(-9.10677e-10 -1.55696e-09 4.68858e-10)
(-8.74006e-10 -1.86199e-09 5.82912e-10)
(-7.20372e-10 -2.05486e-09 6.69834e-10)
(-3.43264e-10 -2.25139e-09 7.20996e-10)
(6.16924e-10 -3.10509e-09 7.32292e-10)
(-8.07003e-10 -1.64464e-10 2.19301e-11)
(-8.68364e-10 -6.70027e-10 6.7449e-11)
(-9.0062e-10 -1.14554e-09 1.12969e-10)
(-9.09019e-10 -1.54421e-09 1.56019e-10)
(-8.71185e-10 -1.84683e-09 1.93401e-10)
(-7.17078e-10 -2.03934e-09 2.21787e-10)
(-3.40409e-10 -2.23739e-09 2.38604e-10)
(6.18179e-10 -3.09022e-09 2.42677e-10)
(7.49402e-10 1.25943e-09 3.45848e-10)
(1.17826e-09 5.62272e-10 1.1059e-09)
(1.19536e-09 -6.96625e-11 1.67797e-09)
(1.13594e-09 -6.17182e-10 2.19601e-09)
(1.12378e-09 -1.14677e-09 2.7208e-09)
(1.25798e-09 -1.70817e-09 3.29493e-09)
(1.68865e-09 -2.49878e-09 3.95442e-09)
(2.4298e-09 -4.28443e-09 5.01858e-09)
(7.73835e-11 7.8881e-10 -8.68966e-11)
(2.07527e-10 3.59505e-10 6.27683e-10)
(2.3132e-10 -1.31451e-10 1.19296e-09)
(2.15329e-10 -6.66198e-10 1.69031e-09)
(2.15803e-10 -1.25263e-09 2.18116e-09)
(2.80187e-10 -1.88876e-09 2.71386e-09)
(4.51767e-10 -2.62371e-09 3.34062e-09)
(6.4545e-10 -3.9781e-09 4.45913e-09)
(-7.09734e-11 7.86499e-10 -8.88787e-11)
(-1.70035e-10 3.52296e-10 6.30515e-10)
(-1.5892e-10 -1.43014e-10 1.19828e-09)
(-1.0629e-10 -6.81197e-10 1.69706e-09)
(-6.75586e-11 -1.2704e-09 2.18871e-09)
(-8.94512e-11 -1.90903e-09 2.72182e-09)
(-2.15388e-10 -2.64682e-09 3.34851e-09)
(-3.62469e-10 -4.0022e-09 4.46547e-09)
(-7.24154e-10 1.24303e-09 3.44376e-10)
(-1.11687e-09 5.35958e-10 1.12131e-09)
(-1.10009e-09 -1.06741e-10 1.70027e-09)
(-1.00477e-09 -6.63638e-10 2.22202e-09)
(-9.53779e-10 -1.20097e-09 2.74894e-09)
(-1.04581e-09 -1.76919e-09 3.32443e-09)
(-1.43049e-09 -2.56752e-09 3.98492e-09)
(-2.12142e-09 -4.3591e-09 5.0489e-09)
(-1.86631e-10 1.04354e-09 7.59221e-10)
(-4.68369e-10 2.64165e-10 1.57147e-09)
(-4.57517e-10 -3.99099e-10 2.13131e-09)
(-3.89558e-10 -9.45142e-10 2.62843e-09)
(-3.65949e-10 -1.45468e-09 3.13352e-09)
(-4.67492e-10 -1.96886e-09 3.70723e-09)
(-8.00767e-10 -2.68015e-09 4.42322e-09)
(-1.73424e-09 -4.38605e-09 5.22768e-09)
(5.31212e-10 2.41518e-10 1.27023e-10)
(4.26286e-10 -2.98815e-10 6.92464e-10)
(4.58738e-10 -8.22423e-10 1.2501e-09)
(5.26145e-10 -1.32278e-09 1.75185e-09)
(5.57053e-10 -1.81284e-09 2.24065e-09)
(4.71729e-10 -2.27891e-09 2.75507e-09)
(1.59972e-10 -2.79253e-09 3.26132e-09)
(-7.88795e-10 -3.95127e-09 3.52013e-09)
(7.50601e-10 -6.59262e-11 1.11891e-10)
(7.73451e-10 -5.81315e-10 5.61684e-10)
(8.24343e-10 -1.07628e-09 1.06339e-09)
(8.81451e-10 -1.54399e-09 1.54169e-09)
(9.02911e-10 -1.9756e-09 1.99452e-09)
(8.09323e-10 -2.32869e-09 2.41714e-09)
(4.87325e-10 -2.65742e-09 2.73898e-09)
(-4.40543e-10 -3.60584e-09 2.80381e-09)
(8.36564e-10 -1.62323e-10 1.42386e-10)
(9.12821e-10 -6.87879e-10 5.26238e-10)
(9.73377e-10 -1.18835e-09 9.45537e-10)
(1.02158e-09 -1.63543e-09 1.35524e-09)
(1.03117e-09 -2.0116e-09 1.73329e-09)
(9.26885e-10 -2.27834e-09 2.05256e-09)
(5.98076e-10 -2.51917e-09 2.25756e-09)
(-3.13507e-10 -3.40911e-09 2.28088e-09)
(8.68175e-10 -1.865e-10 1.36027e-10)
(9.52466e-10 -7.14619e-10 4.48497e-10)
(1.01194e-09 -1.21698e-09 7.76374e-10)
(1.05271e-09 -1.64936e-09 1.09543e-09)
(1.05283e-09 -1.99059e-09 1.38279e-09)
(9.40615e-10 -2.2145e-09 1.61112e-09)
(6.09016e-10 -2.42754e-09 1.74711e-09)
(-2.9134e-10 -3.29987e-09 1.7654e-09)
(8.82632e-10 -1.89301e-10 1.06323e-10)
(9.61143e-10 -7.12411e-10 3.35016e-10)
(1.01497e-09 -1.20979e-09 5.68342e-10)
(1.04966e-09 -1.63132e-09 7.92435e-10)
(1.04362e-09 -1.95546e-09 9.90432e-10)
(9.27018e-10 -2.16421e-09 1.14314e-09)
(5.94966e-10 -2.37282e-09 1.23265e-09)
(-2.98669e-10 -3.23864e-09 1.2492e-09)
(8.91436e-10 -1.87656e-10 6.6395e-11)
(9.64257e-10 -7.0392e-10 2.04872e-10)
(1.01307e-09 -1.19467e-09 3.43852e-10)
(1.04348e-09 -1.609e-09 4.75851e-10)
(1.03391e-09 -1.92621e-09 5.91062e-10)
(9.15252e-10 -2.13159e-09 6.78872e-10)
(5.83536e-10 -2.34203e-09 7.30644e-10)
(-3.06401e-10 -3.20564e-09 7.42366e-10)
(8.9608e-10 -1.86337e-10 2.24826e-11)
(9.66184e-10 -6.98186e-10 6.87541e-11)
(1.01243e-09 -1.18473e-09 1.14836e-10)
(1.04068e-09 -1.59551e-09 1.58348e-10)
(1.02951e-09 -1.91043e-09 1.96112e-10)
(9.10076e-10 -2.11571e-09 2.2479e-10)
(5.78684e-10 -2.32804e-09 2.4181e-10)
(-3.09598e-10 -3.19118e-09 2.46032e-10)
(2.4355e-09 -4.13684e-09 5.35082e-09)
(1.70709e-09 -3.44127e-09 3.56426e-09)
(1.28688e-09 -3.15154e-09 2.77283e-09)
(1.15231e-09 -2.9536e-09 2.21454e-09)
(1.14162e-09 -2.82356e-09 1.69977e-09)
(1.16088e-09 -2.74105e-09 1.20112e-09)
(1.17699e-09 -2.6924e-09 7.1481e-10)
(1.18444e-09 -2.66983e-09 2.37221e-10)
(6.50996e-10 -3.58828e-09 5.03406e-09)
(4.69966e-10 -2.83934e-09 3.68017e-09)
(3.10193e-10 -2.58339e-09 2.94774e-09)
(2.52796e-10 -2.42657e-09 2.31846e-09)
(2.49934e-10 -2.32728e-09 1.74207e-09)
(2.59917e-10 -2.26137e-09 1.21309e-09)
(2.67573e-10 -2.21975e-09 7.16492e-10)
(2.70939e-10 -2.19945e-09 2.37088e-10)
(-3.56551e-10 -3.60589e-09 5.04701e-09)
(-1.97275e-10 -2.85889e-09 3.69224e-09)
(-5.74396e-11 -2.60331e-09 2.95734e-09)
(-1.62459e-11 -2.4466e-09 2.32628e-09)
(-2.57125e-11 -2.34734e-09 1.74828e-09)
(-4.45116e-11 -2.28151e-09 1.21762e-09)
(-5.78109e-11 -2.23996e-09 7.1926e-10)
(-6.39001e-11 -2.21971e-09 2.38019e-10)
(-2.11534e-09 -4.20126e-09 5.39159e-09)
(-1.41252e-09 -3.50686e-09 3.59926e-09)
(-1.01283e-09 -3.21718e-09 2.80097e-09)
(-8.94306e-10 -3.01942e-09 2.23769e-09)
(-8.95837e-10 -2.88982e-09 1.71819e-09)
(-9.23884e-10 -2.80792e-09 1.21454e-09)
(-9.45646e-10 -2.75983e-09 7.2298e-10)
(-9.55828e-10 -2.73759e-09 2.39964e-10)
)
;
    }
    symmetry
    {
        type            symmetry;
    }
    bottom
    {
        type            calculated;
        value           uniform (0 0 0);
    }
}


// ************************************************************************* //
