/*--------------------------------*- C++ -*----------------------------------*\
| =========                 |                                                 |
| \\      /  F ield         | OpenFOAM: The Open Source CFD Toolbox           |
|  \\    /   O peration     | Version:  v1912                                 |
|   \\  /    A nd           | Website:  www.openfoam.com                      |
|    \\/     M anipulation  |                                                 |
\*---------------------------------------------------------------------------*/
FoamFile
{
    version     2.0;
    format      ascii;
    class       volSymmTensorField;
    location    "0.19/solid";
    object      epsilon;
}
// * * * * * * * * * * * * * * * * * * * * * * * * * * * * * * * * * * * * * //

dimensions      [0 0 0 0 0 0 0];


internalField   nonuniform List<symmTensor> 
256
(
(-2.52445e-06 1.05556e-08 1.4741e-08 7.5307e-07 -1.62962e-09 -2.7357e-06)
(-1.0958e-07 -7.41973e-08 8.30826e-09 5.33209e-07 8.06847e-09 -2.63649e-06)
(-1.11015e-07 9.88345e-08 -7.86848e-09 5.23752e-07 1.05666e-08 -2.61762e-06)
(-2.49005e-06 1.06136e-10 -1.31211e-08 7.17102e-07 7.71607e-09 -2.68798e-06)
(-2.46122e-06 -1.66221e-08 2.32997e-08 -4.22176e-08 -3.62987e-08 -2.68138e-06)
(-1.67669e-07 -1.78755e-08 1.29313e-08 7.5453e-08 -3.63229e-08 -2.61516e-06)
(-1.69666e-07 3.54074e-08 -1.16965e-08 6.38999e-08 -3.47517e-08 -2.59489e-06)
(-2.42567e-06 2.40879e-08 -2.07563e-08 -7.73305e-08 -3.04954e-08 -2.63312e-06)
(-2.49814e-06 -6.7135e-09 2.27256e-08 2.53043e-08 -3.08567e-08 -2.71442e-06)
(-1.63192e-07 -2.84684e-09 1.27473e-08 8.31692e-08 -3.12901e-08 -2.63705e-06)
(-1.65444e-07 1.57183e-08 -1.1243e-08 7.19975e-08 -3.02133e-08 -2.6165e-06)
(-2.46207e-06 1.21226e-08 -1.99962e-08 -6.56852e-09 -2.67823e-08 -2.66604e-06)
(-2.55396e-06 2.32603e-09 2.25567e-08 1.00887e-07 -2.45997e-08 -2.76689e-06)
(-1.53957e-07 3.16541e-09 1.27503e-08 1.23081e-07 -2.26093e-08 -2.68868e-06)
(-1.56392e-07 6.25853e-09 -1.12739e-08 1.12772e-07 -2.17668e-08 -2.66816e-06)
(-2.51746e-06 1.63537e-09 -1.98104e-08 7.17403e-08 -2.13957e-08 -2.71863e-06)
(-2.63591e-06 3.85667e-09 2.48998e-08 1.62781e-07 -2.46498e-08 -2.8476e-06)
(-1.45435e-07 3.63708e-09 1.41392e-08 1.7586e-07 -2.11583e-08 -2.77977e-06)
(-1.47926e-07 2.97577e-09 -1.27562e-08 1.66082e-07 -2.0417e-08 -2.75934e-06)
(-2.59919e-06 -1.09807e-09 -2.21664e-08 1.35244e-07 -2.19164e-08 -2.79942e-06)
(-2.75826e-06 -6.20627e-09 2.93043e-08 2.2209e-07 -3.37806e-08 -2.97554e-06)
(-1.12293e-07 -4.01923e-09 1.66565e-08 2.16372e-07 -3.03736e-08 -2.92864e-06)
(-1.1501e-07 8.14596e-09 -1.53168e-08 2.06915e-07 -2.96257e-08 -2.90833e-06)
(-2.72271e-06 7.58602e-09 -2.65734e-08 1.95286e-07 -3.12286e-08 -2.92736e-06)
(-2.91602e-06 -2.6915e-08 3.3945e-08 -1.18254e-09 -4.9737e-08 -3.15019e-06)
(-2.30144e-08 -1.74837e-08 1.91526e-08 -5.20657e-08 -4.88738e-08 -3.13677e-06)
(-2.72456e-08 1.89965e-08 -1.77009e-08 -5.92334e-08 -4.79908e-08 -3.11702e-06)
(-2.88743e-06 2.62568e-08 -3.12047e-08 -2.38892e-08 -4.71038e-08 -3.10246e-06)
(-2.95901e-06 -3.48732e-08 3.52501e-08 -3.2142e-06 -4.86556e-08 -3.21411e-06)
(9.41352e-08 -1.90991e-08 1.9655e-08 -3.23626e-06 -4.99432e-08 -3.23586e-06)
(8.6127e-08 1.84301e-08 -1.79887e-08 -3.22052e-06 -4.90752e-08 -3.21983e-06)
(-2.95569e-06 3.27952e-08 -3.26276e-08 -3.1745e-06 -4.64117e-08 -3.17396e-06)
(-2.33729e-06 3.42487e-08 8.63919e-09 5.45568e-07 -1.471e-07 -1.61903e-07)
(-1.56604e-07 -6.10945e-08 7.20186e-09 3.29508e-07 -1.50094e-07 -1.84225e-07)
(-1.55231e-07 7.34857e-08 -5.62735e-09 3.179e-07 -1.44625e-07 -1.84954e-07)
(-2.28341e-06 -2.77874e-08 -7.06592e-09 5.06317e-07 -1.29827e-07 -1.66703e-07)
(-2.32092e-06 -1.16558e-08 1.70327e-08 1.0574e-07 -8.02837e-08 -2.20168e-07)
(-2.50234e-07 -1.73365e-08 1.24875e-08 2.17372e-07 -8.35119e-08 -2.52019e-07)
(-2.48515e-07 2.53166e-08 -9.47743e-09 2.05634e-07 -7.99072e-08 -2.54241e-07)
(-2.26518e-06 1.50923e-08 -1.45172e-08 7.06745e-08 -6.81392e-08 -2.30546e-07)
(-2.34993e-06 -8.02521e-09 1.78484e-08 1.09096e-07 -6.67261e-08 -2.09397e-07)
(-2.51462e-07 -5.87975e-09 1.31502e-08 1.67162e-07 -6.68547e-08 -2.39537e-07)
(-2.49909e-07 1.15361e-08 -9.88935e-09 1.56644e-07 -6.42279e-08 -2.42746e-07)
(-2.29312e-06 1.03245e-08 -1.5193e-08 7.85572e-08 -5.74643e-08 -2.22791e-07)
(-2.40238e-06 1.11848e-09 1.74807e-08 1.34959e-07 -6.52452e-08 -1.94458e-07)
(-2.4192e-07 2.15862e-10 1.29779e-08 1.57217e-07 -6.28265e-08 -2.25498e-07)
(-2.40422e-07 3.76552e-09 -9.96828e-09 1.47534e-07 -6.06789e-08 -2.29269e-07)
(-2.34427e-06 5.31138e-10 -1.48893e-08 1.06953e-07 -5.76208e-08 -2.09473e-07)
(-2.48944e-06 4.30233e-09 1.84906e-08 1.62986e-07 -6.95501e-08 -1.80765e-07)
(-2.35793e-07 1.79107e-09 1.37158e-08 1.7585e-07 -6.67592e-08 -2.16985e-07)
(-2.34205e-07 6.69478e-10 -1.09915e-08 1.66557e-07 -6.48458e-08 -2.21083e-07)
(-2.42995e-06 -3.2963e-09 -1.59674e-08 1.36325e-07 -6.29018e-08 -1.96693e-07)
(-2.62726e-06 -3.89147e-09 2.10813e-08 1.78625e-07 -7.91392e-08 -1.549e-07)
(-2.0988e-07 -4.39855e-09 1.55714e-08 1.73291e-07 -7.74584e-08 -1.98906e-07)
(-2.08409e-07 5.38102e-09 -1.29923e-08 1.64425e-07 -7.56888e-08 -2.03294e-07)
(-2.56735e-06 3.91122e-09 -1.858e-08 1.52984e-07 -7.31715e-08 -1.71553e-07)
(-2.81764e-06 -2.40575e-08 2.46083e-08 -9.21825e-08 -8.33295e-08 -9.4367e-08)
(-1.31616e-07 -1.67737e-08 1.78585e-08 -1.44153e-07 -8.28469e-08 -1.44758e-07)
(-1.31706e-07 1.63146e-08 -1.54304e-08 -1.50057e-07 -8.13297e-08 -1.4975e-07)
(-2.76294e-06 2.23934e-08 -2.21906e-08 -1.12335e-07 -7.83553e-08 -1.1235e-07)
(-2.91633e-06 -3.37117e-08 2.77113e-08 -3.14987e-06 -4.93317e-08 -1.73622e-09)
(-2.34891e-08 -1.88107e-08 1.90888e-08 -3.13702e-06 -4.86173e-08 -5.14228e-08)
(-2.78192e-08 1.7979e-08 -1.76911e-08 -3.11766e-06 -4.77746e-08 -5.76992e-08)
(-2.88784e-06 3.12961e-08 -2.59125e-08 -3.10291e-06 -4.68711e-08 -2.25435e-08)
(-2.11206e-06 4.79404e-08 -2.05421e-09 4.72205e-07 -6.89837e-08 2.44392e-08)
(-1.81276e-07 -4.88655e-08 1.06717e-09 2.59272e-07 -7.7949e-08 2.40374e-08)
(-1.79548e-07 5.52627e-08 9.58941e-10 2.48259e-07 -7.33152e-08 2.24369e-08)
(-2.05737e-06 -4.38667e-08 2.92438e-09 4.37407e-07 -5.46827e-08 1.94392e-08)
(-2.1362e-06 -6.00015e-09 1.48936e-09 1.21578e-07 -6.4762e-08 1.04431e-08)
(-3.06981e-07 -1.50495e-08 3.24321e-09 2.28714e-07 -6.78353e-08 1.14779e-08)
(-3.04404e-07 1.82152e-08 2.6711e-10 2.17255e-07 -6.40085e-08 7.80891e-09)
(-2.07815e-06 7.56537e-09 1.09657e-10 8.7347e-08 -5.25587e-08 -6.83167e-10)
(-2.16967e-06 -7.93359e-09 3.07455e-09 1.34738e-07 -7.04243e-08 1.75814e-08)
(-3.17826e-07 -7.17718e-09 4.10266e-09 1.94081e-07 -6.98517e-08 1.95627e-08)
(-3.15212e-07 9.05338e-09 -4.84504e-10 1.83771e-07 -6.66875e-08 1.46259e-08)
(-2.11e-06 8.72893e-09 -1.36873e-09 1.04326e-07 -6.00958e-08 2.73611e-09)
(-2.21892e-06 2.15833e-10 2.8939e-09 1.45209e-07 -7.87933e-08 4.02579e-08)
(-3.0853e-07 -1.24188e-09 3.96791e-09 1.68754e-07 -7.62232e-08 4.16995e-08)
(-3.05848e-07 2.37652e-09 -7.04154e-10 1.59241e-07 -7.34913e-08 3.59982e-08)
(-2.15758e-06 3.01375e-10 -1.29595e-09 1.17179e-07 -6.98382e-08 2.31561e-08)
(-2.30216e-06 4.22154e-09 2.53886e-09 1.46384e-07 -8.59788e-08 7.11428e-08)
(-3.0249e-07 1.35009e-09 3.86869e-09 1.58989e-07 -8.341e-08 7.11105e-08)
(-2.99616e-07 -9.24043e-10 -9.76942e-10 1.49875e-07 -8.09721e-08 6.4896e-08)
(-2.23902e-06 -4.02015e-09 -1.06467e-09 1.19771e-07 -7.80745e-08 5.25379e-08)
(-2.43703e-06 -2.57654e-09 2.81984e-09 1.30767e-07 -8.78626e-08 1.14924e-07)
(-2.80001e-07 -3.54348e-09 4.41613e-09 1.25638e-07 -8.65031e-08 1.13271e-07)
(-2.77181e-07 3.24404e-09 -1.81431e-09 1.17048e-07 -8.43605e-08 1.06601e-07)
(-2.37294e-06 2.07851e-09 -1.4431e-09 1.05459e-07 -8.09742e-08 9.50412e-08)
(-2.62786e-06 -2.06237e-08 4.42777e-09 -1.48162e-07 -7.5274e-08 1.73385e-07)
(-2.09838e-07 -1.46859e-08 5.754e-09 -1.94444e-07 -7.419e-08 1.70776e-07)
(-2.08598e-07 1.36949e-08 -3.64276e-09 -1.99991e-07 -7.25668e-08 1.6358e-07)
(-2.56816e-06 1.87024e-08 -3.25081e-09 -1.67882e-07 -6.99771e-08 1.52112e-07)
(-2.75911e-06 -2.91584e-08 7.24974e-09 -2.97434e-06 -3.17718e-08 2.21491e-07)
(-1.12952e-07 -1.64221e-08 6.29519e-09 -2.92851e-06 -2.87853e-08 2.18005e-07)
(-1.16083e-07 1.55291e-08 -5.73812e-09 -2.90878e-06 -2.815e-08 2.10339e-07)
(-2.72403e-06 2.66263e-08 -6.7857e-09 -2.92754e-06 -2.97199e-08 1.9903e-07)
(-1.96901e-06 4.97884e-08 -4.91492e-09 4.44335e-07 -4.4427e-08 1.37315e-08)
(-1.8278e-07 -4.47421e-08 -1.52326e-09 2.35104e-07 -4.8368e-08 2.125e-08)
(-1.81682e-07 4.80261e-08 3.44198e-09 2.25272e-07 -4.491e-08 1.99952e-08)
(-1.91712e-06 -4.73727e-08 5.49832e-09 4.14716e-07 -3.38505e-08 1.01021e-08)
(-2.00361e-06 -3.78298e-09 -5.61951e-09 1.07906e-07 -5.16822e-08 1.78856e-08)
(-3.19408e-07 -1.41597e-08 -1.85808e-09 2.12076e-07 -5.18599e-08 3.09116e-08)
(-3.17446e-07 1.4819e-08 5.21999e-09 2.0131e-07 -4.86453e-08 2.78741e-08)
(-1.94784e-06 4.34772e-09 6.78453e-09 7.55325e-08 -4.172e-08 9.15081e-09)
(-2.04153e-06 -7.5009e-09 -4.76381e-09 1.25698e-07 -6.30969e-08 2.72028e-08)
(-3.37001e-07 -7.67074e-09 -1.46129e-09 1.85654e-07 -6.14724e-08 4.15153e-08)
(-3.34797e-07 7.54366e-09 4.92669e-09 1.75579e-07 -5.85761e-08 3.72756e-08)
(-1.98364e-06 7.53301e-09 6.02932e-09 9.56682e-08 -5.39943e-08 1.49403e-08)
(-2.09019e-06 -4.23106e-10 -4.76571e-09 1.33319e-07 -7.46327e-08 4.93758e-08)
(-3.28527e-07 -2.09213e-09 -1.54469e-09 1.57777e-07 -7.19176e-08 6.34108e-08)
(-3.26127e-07 1.72937e-09 4.66031e-09 1.48303e-07 -6.92985e-08 5.83437e-08)
(-2.03034e-06 3.59535e-10 5.92487e-09 1.05115e-07 -6.63573e-08 3.46348e-08)
(-2.17047e-06 3.55154e-09 -5.36474e-09 1.24216e-07 -8.10536e-08 8.16001e-08)
(-3.20954e-07 8.62225e-10 -1.91146e-09 1.36656e-07 -7.83507e-08 9.51295e-08)
(-3.18289e-07 -1.43965e-09 4.62857e-09 1.27536e-07 -7.59903e-08 8.94438e-08)
(-2.10863e-06 -3.74215e-09 6.37968e-09 9.73051e-08 -7.36234e-08 6.5009e-08)
(-2.30163e-06 -2.22188e-09 -5.77871e-09 9.98455e-08 -7.6759e-08 1.2004e-07)
(-2.98259e-07 -3.03824e-09 -1.98384e-09 9.55388e-08 -7.49924e-08 1.3338e-07)
(-2.95607e-07 2.20153e-09 4.31517e-09 8.69327e-08 -7.29674e-08 1.27178e-07)
(-2.2386e-06 1.5171e-09 6.64881e-09 7.42374e-08 -7.03684e-08 1.01934e-07)
(-2.49026e-06 -1.7792e-08 -5.05945e-09 -1.67603e-07 -5.69153e-08 1.54974e-07)
(-2.32555e-07 -1.2685e-08 -1.38297e-09 -2.06743e-07 -5.5391e-08 1.68412e-07)
(-2.31465e-07 1.15195e-08 3.0709e-09 -2.124e-07 -5.39436e-08 1.61791e-07)
(-2.43114e-06 1.58059e-08 5.67681e-09 -1.87865e-07 -5.21943e-08 1.3564e-07)
(-2.6377e-06 -2.46157e-08 -3.52209e-09 -2.84621e-06 -1.88803e-08 1.66523e-07)
(-1.4403e-07 -1.38617e-08 -1.65288e-09 -2.77978e-06 -1.59475e-08 1.79853e-07)
(-1.47315e-07 1.28578e-08 1.76585e-09 -2.76018e-06 -1.54502e-08 1.7306e-07)
(-2.60186e-06 2.20041e-08 3.45263e-09 -2.80024e-06 -1.71888e-08 1.46627e-07)
(-1.88454e-06 4.75478e-08 -3.89177e-09 4.25866e-07 -3.50108e-08 8.25683e-09)
(-1.76836e-07 -4.49259e-08 -1.59055e-09 2.2105e-07 -3.46588e-08 1.33142e-08)
(-1.76376e-07 4.64679e-08 3.11589e-09 2.12286e-07 -3.2201e-08 1.2355e-08)
(-1.83529e-06 -4.62172e-08 4.33632e-09 4.00451e-07 -2.75689e-08 5.48885e-09)
(-1.92025e-06 -3.7671e-09 -5.63459e-09 9.23528e-08 -4.23876e-08 2.05605e-08)
(-3.12079e-07 -1.44963e-08 -2.59399e-09 1.94581e-07 -4.03286e-08 2.9203e-08)
(-3.10886e-07 1.37652e-08 5.35769e-09 1.8454e-07 -3.79206e-08 2.67993e-08)
(-1.86701e-06 3.75236e-09 6.5523e-09 6.19276e-08 -3.50364e-08 1.36647e-08)
(-1.95976e-06 -7.40134e-09 -5.51376e-09 1.07775e-07 -5.20532e-08 3.47199e-08)
(-3.31612e-07 -8.03654e-09 -2.58956e-09 1.67484e-07 -4.97204e-08 4.40987e-08)
(-3.30036e-07 6.78963e-09 5.50077e-09 1.577e-07 -4.74346e-08 4.06434e-08)
(-1.90411e-06 7.01639e-09 6.53224e-09 7.84053e-08 -4.49888e-08 2.47304e-08)
(-2.00829e-06 -8.27543e-10 -5.5357e-09 1.14415e-07 -6.12739e-08 5.58735e-08)
(-3.23454e-07 -2.60566e-09 -2.67319e-09 1.39131e-07 -5.87014e-08 6.49028e-08)
(-3.21571e-07 1.39914e-09 5.31437e-09 1.29704e-07 -5.65593e-08 6.06465e-08)
(-1.95044e-06 4.43633e-10 6.47351e-09 8.61894e-08 -5.46049e-08 4.34642e-08)
(-2.08677e-06 2.98002e-09 -5.95722e-09 1.04841e-07 -6.48893e-08 8.29955e-08)
(-3.14395e-07 4.52979e-10 -2.98092e-09 1.17113e-07 -6.24581e-08 9.14107e-08)
(-3.12187e-07 -1.58897e-09 5.26421e-09 1.07935e-07 -6.05003e-08 8.65092e-08)
(-2.02679e-06 -3.38656e-09 6.76336e-09 7.7605e-08 -5.87877e-08 6.86253e-08)
(-2.21534e-06 -2.09734e-09 -6.31643e-09 8.33786e-08 -5.81147e-08 1.10063e-07)
(-2.90751e-07 -2.78233e-09 -3.16256e-09 7.9835e-08 -5.64018e-08 1.18046e-07)
(-2.88521e-07 1.65253e-09 5.05515e-09 7.11082e-08 -5.4733e-08 1.12619e-07)
(-2.15407e-06 1.28311e-09 6.97267e-09 5.7293e-08 -5.28667e-08 9.40944e-08)
(-2.40203e-06 -1.58316e-08 -5.95189e-09 -1.72068e-07 -3.9479e-08 1.26687e-07)
(-2.27557e-07 -1.12731e-08 -2.95071e-09 -2.05866e-07 -3.81164e-08 1.34599e-07)
(-2.26861e-07 9.99362e-09 4.21384e-09 -2.11726e-07 -3.69487e-08 1.28806e-07)
(-2.34438e-06 1.38081e-08 6.36035e-09 -1.93012e-07 -3.56511e-08 1.09562e-07)
(-2.55754e-06 -2.1401e-08 -5.24226e-09 -2.76744e-06 -1.19085e-08 1.22181e-07)
(-1.44203e-07 -1.20225e-08 -3.52306e-09 -2.68918e-06 -9.83654e-09 1.30684e-07)
(-1.47874e-07 1.09085e-08 3.40774e-09 -2.66977e-06 -9.44532e-09 1.24809e-07)
(-2.52229e-06 1.87211e-08 5.05144e-09 -2.72227e-06 -1.05518e-08 1.04678e-07)
(-1.83404e-06 4.51474e-08 -2.36925e-09 4.10709e-07 -2.62869e-08 7.80033e-09)
(-1.7112e-07 -4.59956e-08 -9.56637e-10 2.09867e-07 -2.45864e-08 9.89614e-09)
(-1.71112e-07 4.65464e-08 2.03459e-09 2.01899e-07 -2.2951e-08 9.12051e-09)
(-1.78669e-06 -4.44816e-08 2.69026e-09 3.88296e-07 -2.13893e-08 5.58104e-09)
(-1.86893e-06 -4.32109e-09 -3.67629e-09 7.89953e-08 -3.21245e-08 2.40009e-08)
(-3.0211e-07 -1.5113e-08 -1.68324e-09 1.80125e-07 -2.96164e-08 2.69943e-08)
(-3.01486e-07 1.35924e-08 3.69183e-09 1.70664e-07 -2.79765e-08 2.50177e-08)
(-1.8176e-06 3.97036e-09 4.35273e-09 5.01457e-08 -2.71669e-08 1.83714e-08)
(-1.90848e-06 -7.53078e-09 -3.80379e-09 9.16636e-08 -3.86874e-08 4.13112e-08)
(-3.21035e-07 -8.3633e-09 -1.78117e-09 1.50827e-07 -3.6436e-08 4.4069e-08)
(-3.19942e-07 6.46991e-09 3.94735e-09 1.41314e-07 -3.48326e-08 4.11732e-08)
(-1.85457e-06 6.90837e-09 4.56993e-09 6.29707e-08 -3.3772e-08 3.29849e-08)
(-1.95672e-06 -1.08711e-09 -3.8691e-09 9.79428e-08 -4.43636e-08 6.1238e-08)
(-3.12551e-07 -2.91572e-09 -1.85967e-09 1.22508e-07 -4.22842e-08 6.33661e-08)
(-3.11074e-07 1.20616e-09 3.8536e-09 1.13145e-07 -4.07439e-08 5.97216e-08)
(-1.90047e-06 5.1569e-10 4.58511e-09 6.98215e-08 -3.95965e-08 5.06447e-08)
(-2.03412e-06 2.65153e-09 -4.1078e-09 9.09261e-08 -4.55735e-08 8.23689e-08)
(-3.02486e-07 2.07603e-10 -2.05048e-09 1.02952e-07 -4.37441e-08 8.37193e-08)
(-3.00638e-07 -1.69274e-09 3.77462e-09 9.37266e-08 -4.2317e-08 7.94391e-08)
(-1.97564e-06 -3.1909e-09 4.72434e-09 6.34706e-08 -4.11373e-08 6.98244e-08)
(-2.16112e-06 -1.99104e-09 -4.30388e-09 7.46584e-08 -3.92823e-08 9.94061e-08)
(-2.78244e-07 -2.62685e-09 -2.18275e-09 7.15267e-08 -3.80046e-08 1.00112e-07)
(-2.76344e-07 1.29504e-09 3.58661e-09 6.26862e-08 -3.67851e-08 9.53086e-08)
(-2.10125e-06 1.10235e-09 4.79698e-09 4.81747e-08 -3.54415e-08 8.52362e-08)
(-2.34642e-06 -1.45936e-08 -4.10023e-09 -1.72791e-07 -2.55179e-08 1.04815e-07)
(-2.16629e-07 -1.04115e-08 -2.13231e-09 -2.03338e-07 -2.46005e-08 1.05307e-07)
(-2.16239e-07 9.03282e-09 3.02598e-09 -2.09367e-07 -2.37503e-08 1.00155e-07)
(-2.28999e-06 1.25358e-08 4.39159e-09 -1.94278e-07 -2.27153e-08 8.94928e-08)
(-2.50622e-06 -1.94106e-08 -3.75616e-09 -2.71993e-06 -7.5694e-09 9.32418e-08)
(-1.36439e-07 -1.09041e-08 -2.65184e-09 -2.63535e-06 -6.33722e-09 9.44296e-08)
(-1.40411e-07 9.69919e-09 2.48321e-09 -2.61612e-06 -6.05229e-09 8.92342e-08)
(-2.47163e-06 1.66743e-08 3.58478e-09 -2.67543e-06 -6.5724e-09 7.76069e-08)
(-1.80515e-06 4.35909e-08 -1.21045e-09 3.99642e-07 -1.63492e-08 8.54485e-09)
(-1.67462e-07 -4.67629e-08 -4.3584e-10 2.01577e-07 -1.49693e-08 9.16301e-09)
(-1.67733e-07 4.6781e-08 1.074e-09 1.94125e-07 -1.4035e-08 8.49528e-09)
(-1.75903e-06 -4.3301e-08 1.40389e-09 3.79128e-07 -1.35753e-08 6.66296e-09)
(-1.83925e-06 -4.75427e-09 -1.88932e-09 6.9171e-08 -2.00208e-08 2.6618e-08)
(-2.95196e-07 -1.55438e-08 -7.72767e-10 1.69775e-07 -1.82303e-08 2.6666e-08)
(-2.94929e-07 1.35959e-08 1.98382e-09 1.60702e-07 -1.72827e-08 2.49489e-08)
(-1.78917e-06 4.22035e-09 2.30284e-09 4.13844e-08 -1.71751e-08 2.17883e-08)
(-1.87848e-06 -7.67545e-09 -1.99733e-09 8.04222e-08 -2.37333e-08 4.51258e-08)
(-3.13083e-07 -8.58592e-09 -8.32563e-10 1.39139e-07 -2.21915e-08 4.42759e-08)
(-3.12299e-07 6.33346e-09 2.16145e-09 1.29824e-07 -2.12499e-08 4.17295e-08)
(-1.82573e-06 6.92247e-09 2.47285e-09 5.22461e-08 -2.08601e-08 3.78788e-08)
(-1.92639e-06 -1.24602e-09 -2.05539e-09 8.68853e-08 -2.65789e-08 6.37313e-08)
(-3.04093e-07 -3.09315e-09 -8.83187e-10 1.11205e-07 -2.52497e-08 6.20044e-08)
(-3.02877e-07 1.09158e-09 2.12215e-09 1.01901e-07 -2.43314e-08 5.87539e-08)
(-1.87121e-06 5.66939e-10 2.50564e-09 5.88964e-08 -2.37441e-08 5.4355e-08)
(-2.00317e-06 2.48928e-09 -2.17514e-09 8.22973e-08 -2.66472e-08 8.04347e-08)
(-2.93431e-07 8.19953e-11 -9.82904e-10 9.40703e-08 -2.55402e-08 7.78621e-08)
(-2.91813e-07 -1.78334e-09 2.05876e-09 8.48202e-08 -2.46805e-08 7.39919e-08)
(-1.9457e-06 -3.11011e-09 2.56524e-09 5.47297e-08 -2.3976e-08 6.91481e-08)
(-2.12929e-06 -1.90229e-09 -2.26352e-09 6.98959e-08 -2.2438e-08 9.09864e-08)
(-2.6895e-07 -2.5314e-09 -1.05546e-09 6.69046e-08 -2.16916e-08 8.77469e-08)
(-2.67259e-07 1.06146e-09 1.92573e-09 5.79899e-08 -2.09534e-08 8.33579e-08)
(-2.07038e-06 9.62707e-10 2.57428e-09 4.31597e-08 -2.01085e-08 7.80673e-08)
(-2.31374e-06 -1.38755e-08 -2.15508e-09 -1.72982e-07 -1.42862e-08 9.02268e-08)
(-2.08348e-07 -9.93667e-09 -1.05622e-09 -2.01803e-07 -1.38006e-08 8.67661e-08)
(-2.08151e-07 8.48149e-09 1.59816e-09 -2.07942e-07 -1.32852e-08 8.20353e-08)
(-2.25815e-06 1.17902e-08 2.33565e-09 -1.94823e-07 -1.25801e-08 7.61453e-08)
(-2.47584e-06 -1.82896e-08 -1.9802e-09 -2.69265e-06 -4.24856e-09 7.51171e-08)
(-1.30078e-07 -1.02943e-08 -1.38605e-09 -2.60501e-06 -3.63144e-09 7.22765e-08)
(-1.3424e-07 9.02508e-09 1.26014e-09 -2.58592e-06 -3.45818e-09 6.75221e-08)
(-2.44176e-06 1.55132e-08 1.86953e-09 -2.64862e-06 -3.63892e-09 6.07538e-08)
(-1.79193e-06 4.28762e-08 -3.67997e-10 3.93827e-07 -5.5466e-09 9.12501e-09)
(-1.65771e-07 -4.71057e-08 -1.1961e-10 1.97142e-07 -5.05155e-09 9.24817e-09)
(-1.66177e-07 4.68931e-08 3.30658e-10 1.89943e-07 -4.74786e-09 8.63187e-09)
(-1.74641e-06 -4.27554e-08 4.32389e-10 3.7423e-07 -4.64912e-09 7.40606e-09)
(-1.82564e-06 -4.95349e-09 -5.67879e-10 6.39654e-08 -6.78813e-09 2.79734e-08)
(-2.91942e-07 -1.57347e-08 -2.07658e-10 1.64371e-07 -6.16082e-09 2.7029e-08)
(-2.91847e-07 1.36003e-08 6.11732e-10 1.55489e-07 -5.85125e-09 2.54366e-08)
(-1.77618e-06 4.33918e-09 7.06611e-10 3.67084e-08 -5.86167e-09 2.35332e-08)
(-1.86465e-06 -7.75122e-09 -6.02769e-10 7.47393e-08 -7.98382e-09 4.67393e-08)
(-3.09224e-07 -8.6892e-09 -2.23019e-10 1.3323e-07 -7.44569e-09 4.46354e-08)
(-3.08591e-07 6.27615e-09 6.70333e-10 1.24017e-07 -7.13589e-09 4.22587e-08)
(-1.81249e-06 6.9402e-09 7.63577e-10 4.68368e-08 -7.04046e-09 4.00242e-08)
(-1.91236e-06 -1.32123e-09 -6.24124e-10 8.14794e-08 -8.82821e-09 6.44791e-08)
(-2.99914e-07 -3.17361e-09 -2.39479e-10 1.05643e-07 -8.37428e-09 6.13809e-08)
(-2.98826e-07 1.03661e-09 6.59488e-10 9.6374e-08 -8.06991e-09 5.8324e-08)
(-1.85773e-06 5.92466e-10 7.77465e-10 5.35755e-08 -7.88964e-09 5.57114e-08)
(-1.98884e-06 2.42267e-09 -6.60833e-10 7.82111e-08 -8.73722e-09 7.89425e-08)
(-2.88972e-07 2.89809e-11 -2.70464e-10 8.98285e-08 -8.36925e-09 7.49821e-08)
(-2.87466e-07 -1.83548e-09 6.36357e-10 8.05699e-08 -8.08274e-09 7.13156e-08)
(-1.93189e-06 -3.08294e-09 7.94221e-10 5.06018e-08 -7.84698e-09 6.82927e-08)
(-2.11458e-06 -1.85332e-09 -6.85935e-10 6.77052e-08 -7.27674e-09 8.64501e-08)
(-2.64423e-07 -2.48642e-09 -2.93544e-10 6.47377e-08 -7.0351e-09 8.18514e-08)
(-2.62833e-07 9.45204e-10 5.88996e-10 5.57883e-08 -6.78827e-09 7.76686e-08)
(-2.05615e-06 8.87479e-10 7.92124e-10 4.08517e-08 -6.49699e-09 7.41675e-08)
(-2.29864e-06 -1.35453e-08 -6.51431e-10 -1.73101e-07 -4.5978e-09 8.29597e-08)
(-2.04332e-07 -9.72738e-09 -2.98244e-10 -2.01192e-07 -4.45036e-09 7.81686e-08)
(-2.04229e-07 8.23048e-09 4.80709e-10 -2.07385e-07 -4.27775e-09 7.36463e-08)
(-2.24347e-06 1.14447e-08 7.12783e-10 -1.95113e-07 -4.02522e-09 6.95082e-08)
(-2.46178e-06 -1.77862e-08 -5.95204e-10 -2.68013e-06 -1.37046e-09 6.62763e-08)
(-1.27e-07 -1.00282e-08 -4.08789e-10 -2.59128e-06 -1.18639e-09 6.20491e-08)
(-1.31255e-07 8.72555e-09 3.63602e-10 -2.57225e-06 -1.12828e-09 5.7513e-08)
(-2.42797e-06 1.4989e-08 5.57252e-10 -2.63633e-06 -1.16539e-09 5.25572e-08)
)
;

boundaryField
{
    interface
    {
        type            calculated;
        value           nonuniform List<symmTensor> 
192
(
(-4.75106e-06 1.33946e-12 2.95012e-11 7.5307e-07 -1.62962e-09 -2.7357e-06)
(-4.54844e-06 -2.55986e-13 4.06183e-11 -4.22176e-08 -3.62987e-08 -2.68138e-06)
(-4.62971e-06 -2.48482e-12 4.17447e-11 2.53043e-08 -3.08567e-08 -2.71442e-06)
(-4.74408e-06 -4.829e-12 4.11706e-11 1.00887e-07 -2.45997e-08 -2.76689e-06)
(-4.90716e-06 -6.98345e-12 3.96776e-11 1.62781e-07 -2.46498e-08 -2.8476e-06)
(-5.16919e-06 -1.13935e-11 3.78058e-11 2.2209e-07 -3.37806e-08 -2.97554e-06)
(-5.55449e-06 -1.4275e-11 3.38646e-11 -1.18254e-09 -4.9737e-08 -3.15019e-06)
(-5.75634e-06 -3.02531e-11 3.05216e-11 -3.2142e-06 -4.86556e-08 -3.21411e-06)
(-4.33094e-06 6.37789e-13 1.54919e-11 5.45568e-07 -1.471e-07 -1.61903e-07)
(-4.18789e-06 -9.7949e-13 2.21729e-11 1.0574e-07 -8.02837e-08 -2.20168e-07)
(-4.25045e-06 -3.15499e-12 2.25917e-11 1.09096e-07 -6.67261e-08 -2.09397e-07)
(-4.35899e-06 -5.73716e-12 2.19483e-11 1.34959e-07 -6.52452e-08 -1.94458e-07)
(-4.52885e-06 -8.15674e-12 2.07422e-11 1.62986e-07 -6.95501e-08 -1.80765e-07)
(-4.81286e-06 -1.31879e-11 1.92947e-11 1.78625e-07 -7.91392e-08 -1.549e-07)
(-5.25055e-06 -1.64069e-11 1.67633e-11 -9.21825e-08 -8.33295e-08 -9.4367e-08)
(-5.55474e-06 -3.36195e-11 1.46302e-11 -3.14987e-06 -4.93317e-08 -1.73622e-09)
(-3.86871e-06 5.34158e-13 1.27021e-11 4.72205e-07 -6.89837e-08 2.44392e-08)
(-3.77693e-06 -1.26805e-12 1.80297e-11 1.21578e-07 -6.4762e-08 1.04431e-08)
(-3.83978e-06 -3.67238e-12 1.83605e-11 1.34738e-07 -7.04243e-08 1.75814e-08)
(-3.94243e-06 -6.60657e-12 1.78298e-11 1.45209e-07 -7.87933e-08 4.02579e-08)
(-4.10539e-06 -9.41633e-12 1.68463e-11 1.46384e-07 -8.59788e-08 7.11428e-08)
(-4.38165e-06 -1.51434e-11 1.56331e-11 1.30767e-07 -8.78626e-08 1.14924e-07)
(-4.81397e-06 -1.89382e-11 1.36559e-11 -1.48162e-07 -7.5274e-08 1.73385e-07)
(-5.17033e-06 -3.76051e-11 1.18505e-11 -2.97434e-06 -3.17718e-08 2.21491e-07)
(-3.59068e-06 2.69e-13 8.21772e-12 4.44335e-07 -4.4427e-08 1.37315e-08)
(-3.51126e-06 -1.66519e-12 1.19455e-11 1.07906e-07 -5.16822e-08 1.78856e-08)
(-3.57656e-06 -4.17991e-12 1.21352e-11 1.25698e-07 -6.30969e-08 2.72028e-08)
(-3.67756e-06 -7.30118e-12 1.16981e-11 1.33319e-07 -7.46327e-08 4.93758e-08)
(-3.83674e-06 -1.03191e-11 1.09575e-11 1.24216e-07 -8.10536e-08 8.16001e-08)
(-4.10713e-06 -1.63801e-11 1.0063e-11 9.98455e-08 -7.6759e-08 1.2004e-07)
(-4.53229e-06 -2.04203e-11 8.75131e-12 -1.67603e-07 -5.69153e-08 1.54974e-07)
(-4.91109e-06 -3.95789e-11 7.56321e-12 -2.84621e-06 -1.88803e-08 1.66523e-07)
(-3.43201e-06 1.83237e-13 6.14752e-12 4.25866e-07 -3.50108e-08 8.25683e-09)
(-3.35677e-06 -1.88562e-12 8.90143e-12 9.23528e-08 -4.23876e-08 2.05605e-08)
(-3.42321e-06 -4.54778e-12 9.04714e-12 1.07775e-07 -5.20532e-08 3.47199e-08)
(-3.52371e-06 -7.8445e-12 8.72135e-12 1.14415e-07 -6.12739e-08 5.58735e-08)
(-3.681e-06 -1.10579e-11 8.17232e-12 1.04841e-07 -6.48893e-08 8.29955e-08)
(-3.94784e-06 -1.73942e-11 7.49554e-12 8.33786e-08 -5.81147e-08 1.10063e-07)
(-4.3676e-06 -2.16691e-11 6.54671e-12 -1.72068e-07 -3.9479e-08 1.26687e-07)
(-4.7562e-06 -4.12419e-11 5.64913e-12 -2.76744e-06 -1.19085e-08 1.22181e-07)
(-3.33862e-06 9.34012e-14 3.93208e-12 4.10709e-07 -2.62869e-08 7.80033e-09)
(-3.26561e-06 -2.06968e-12 5.75934e-12 7.89953e-08 -3.21245e-08 2.40009e-08)
(-3.33241e-06 -4.82689e-12 5.85166e-12 9.16636e-08 -3.86874e-08 4.13112e-08)
(-3.43261e-06 -8.23211e-12 5.62531e-12 9.79428e-08 -4.43636e-08 6.1238e-08)
(-3.58883e-06 -1.15648e-11 5.25679e-12 9.09261e-08 -4.55735e-08 8.23689e-08)
(-3.85348e-06 -1.80561e-11 4.80487e-12 7.46584e-08 -3.92823e-08 9.94061e-08)
(-4.26943e-06 -2.24603e-11 4.20164e-12 -1.72791e-07 -2.55179e-08 1.04815e-07)
(-4.66262e-06 -4.22604e-11 3.63064e-12 -2.71993e-06 -7.5694e-09 9.32418e-08)
(-3.28548e-06 5.74294e-14 2.30814e-12 3.99642e-07 -1.63492e-08 8.54485e-09)
(-3.21372e-06 -2.17192e-12 3.37634e-12 6.9171e-08 -2.00208e-08 2.6618e-08)
(-3.28059e-06 -5.00146e-12 3.43358e-12 8.04222e-08 -2.37333e-08 4.51258e-08)
(-3.38057e-06 -8.48224e-12 3.30214e-12 8.68853e-08 -2.65789e-08 6.37313e-08)
(-3.53618e-06 -1.1898e-11 3.08991e-12 8.22973e-08 -2.66472e-08 8.04347e-08)
(-3.79952e-06 -1.84907e-11 2.82345e-12 6.98959e-08 -2.2438e-08 9.09864e-08)
(-4.21305e-06 -2.29844e-11 2.47968e-12 -1.72982e-07 -1.42862e-08 9.02268e-08)
(-4.60843e-06 -4.29363e-11 2.13944e-12 -2.69265e-06 -4.24856e-09 7.51171e-08)
(-3.26121e-06 3.24077e-14 7.35898e-13 3.93827e-07 -5.5466e-09 9.12501e-09)
(-3.19e-06 -2.22725e-12 1.08672e-12 6.39654e-08 -6.78813e-09 2.79734e-08)
(-3.25687e-06 -5.08848e-12 1.10515e-12 7.47393e-08 -7.98382e-09 4.67393e-08)
(-3.35673e-06 -8.60192e-12 1.06082e-12 8.14794e-08 -8.82821e-09 6.44791e-08)
(-3.51204e-06 -1.20563e-11 9.91907e-13 7.82111e-08 -8.73722e-09 7.89425e-08)
(-3.77478e-06 -1.86918e-11 9.03886e-13 6.77052e-08 -7.27674e-09 8.64501e-08)
(-4.18714e-06 -2.32292e-11 7.96079e-13 -1.73101e-07 -4.5978e-09 8.29597e-08)
(-4.58342e-06 -4.3249e-11 6.84192e-13 -2.68013e-06 -1.37046e-09 6.62763e-08)
(-2.52445e-06 1.05556e-08 -4.6427e-11 7.5307e-07 -4.40367e-12 -5.11713e-06)
(-2.46122e-06 -1.66221e-08 -6.5337e-11 -4.22176e-08 -3.8749e-12 -4.91859e-06)
(-2.49814e-06 -6.7135e-09 -6.77406e-11 2.53043e-08 -2.3415e-12 -4.9986e-06)
(-2.55396e-06 2.32603e-09 -6.76059e-11 1.00887e-07 -1.88582e-12 -5.11073e-06)
(-2.63591e-06 3.85667e-09 -6.6747e-11 1.62781e-07 -1.77678e-12 -5.27184e-06)
(-2.75826e-06 -6.20627e-09 -6.59078e-11 2.2209e-07 -2.24378e-12 -5.53585e-06)
(-2.91602e-06 -2.6915e-08 -6.44236e-11 -1.18254e-09 -2.5012e-12 -5.9354e-06)
(-2.95901e-06 -3.48732e-08 -6.56856e-11 -3.2142e-06 -3.64424e-12 -6.17517e-06)
(-1.0958e-07 -7.41973e-08 -3.58926e-11 5.33209e-07 -1.89159e-12 -4.88296e-06)
(-1.67669e-07 -1.78755e-08 -5.31623e-11 7.5453e-08 -1.81705e-12 -4.73426e-06)
(-1.63192e-07 -2.84684e-09 -5.50115e-11 8.31692e-08 -9.35302e-13 -4.79482e-06)
(-1.53957e-07 3.16541e-09 -5.47607e-11 1.23081e-07 -4.87651e-13 -4.90422e-06)
(-1.45435e-07 3.63708e-09 -5.42336e-11 1.7586e-07 -1.75502e-13 -5.07819e-06)
(-1.12293e-07 -4.01923e-09 -5.39208e-11 2.16372e-07 -1.0747e-13 -5.37159e-06)
(-2.30144e-08 -1.74837e-08 -5.35735e-11 -5.20657e-08 -7.2256e-14 -5.8274e-06)
(9.41352e-08 -1.90991e-08 -5.59297e-11 -3.23626e-06 -3.89929e-13 -6.13999e-06)
(-1.11015e-07 9.88345e-08 -3.81017e-11 5.23752e-07 -9.44627e-13 -4.84554e-06)
(-1.69666e-07 3.54074e-08 -5.61974e-11 6.38999e-08 -7.75396e-13 -4.69321e-06)
(-1.65444e-07 1.57183e-08 -5.82979e-11 7.19975e-08 -8.05864e-14 -4.75248e-06)
(-1.56392e-07 6.25853e-09 -5.80302e-11 1.12772e-07 5.05655e-13 -4.86154e-06)
(-1.47926e-07 2.97577e-09 -5.7328e-11 1.66082e-07 1.03996e-12 -5.03545e-06)
(-1.1501e-07 8.14596e-09 -5.66579e-11 2.06915e-07 1.54277e-12 -5.32892e-06)
(-2.72456e-08 1.89965e-08 -5.57561e-11 -5.92334e-08 1.93029e-12 -5.78523e-06)
(8.6127e-08 1.84301e-08 -5.74284e-11 -3.22052e-06 2.06602e-12 -6.1034e-06)
(-2.49005e-06 1.06136e-10 -4.43729e-11 7.17102e-07 -5.2056e-13 -5.01795e-06)
(-2.42567e-06 2.40879e-08 -6.48688e-11 -7.73305e-08 -1.67588e-13 -4.81374e-06)
(-2.46207e-06 1.21226e-08 -6.73568e-11 -6.56852e-09 5.40485e-13 -4.89119e-06)
(-2.51746e-06 1.63537e-09 -6.70733e-11 7.17403e-08 1.26598e-12 -5.00237e-06)
(-2.59919e-06 -1.09807e-09 -6.60625e-11 1.35244e-07 1.93078e-12 -5.16307e-06)
(-2.72271e-06 7.58602e-09 -6.50207e-11 1.95286e-07 2.72962e-12 -5.42671e-06)
(-2.88743e-06 2.62568e-08 -6.30914e-11 -2.38892e-08 3.34899e-12 -5.82601e-06)
(-2.95569e-06 3.27952e-08 -6.44101e-11 -3.1745e-06 4.23969e-12 -6.07695e-06)
(-4.67939e-06 4.6403e-12 2.2671e-11 7.17102e-07 7.71607e-09 -2.68798e-06)
(-4.47335e-06 2.30457e-12 3.2524e-11 -7.73305e-08 -3.04954e-08 -2.63312e-06)
(-4.55307e-06 -1.65052e-12 3.33959e-11 -6.56852e-09 -2.67823e-08 -2.66604e-06)
(-4.66622e-06 -4.68187e-12 3.29756e-11 7.17403e-08 -2.13957e-08 -2.71863e-06)
(-4.82875e-06 -7.00469e-12 3.20202e-11 1.35244e-07 -2.19164e-08 -2.79942e-06)
(-5.09266e-06 -1.10825e-11 3.13978e-11 1.95286e-07 -3.12286e-08 -2.92736e-06)
(-5.48884e-06 -1.21072e-11 2.91449e-11 -2.38892e-08 -4.71038e-08 -3.10246e-06)
(-5.73369e-06 -2.91096e-11 2.9637e-11 -3.1745e-06 -4.64117e-08 -3.17396e-06)
(-4.22592e-06 1.2487e-12 7.7451e-12 5.06317e-07 -1.29827e-07 -1.66703e-07)
(-4.07984e-06 -3.75028e-13 1.29354e-11 7.06745e-08 -6.81392e-08 -2.30546e-07)
(-4.13993e-06 -2.84278e-12 1.30152e-11 7.85572e-08 -5.74643e-08 -2.22791e-07)
(-4.24577e-06 -5.34367e-12 1.25662e-11 1.06953e-07 -5.76208e-08 -2.09473e-07)
(-4.41304e-06 -7.21352e-12 1.2081e-11 1.36325e-07 -6.29018e-08 -1.96693e-07)
(-4.69598e-06 -1.12222e-11 1.20751e-11 1.52984e-07 -7.31715e-08 -1.71553e-07)
(-5.14096e-06 -1.08438e-11 1.14482e-11 -1.12335e-07 -7.83553e-08 -1.1235e-07)
(-5.4891e-06 -2.86396e-11 1.27354e-11 -3.10291e-06 -4.68711e-08 -2.25435e-08)
(-3.76279e-06 5.30703e-13 8.77641e-12 4.37407e-07 -5.46827e-08 1.94392e-08)
(-3.666e-06 -1.17193e-12 1.36519e-11 8.7347e-08 -5.25587e-08 -6.83167e-10)
(-3.72567e-06 -3.40543e-12 1.39946e-11 1.04326e-07 -6.00958e-08 2.73611e-09)
(-3.82511e-06 -5.94733e-12 1.36712e-11 1.17179e-07 -6.98382e-08 2.31561e-08)
(-3.98487e-06 -7.83086e-12 1.31683e-11 1.19771e-07 -7.80745e-08 5.25379e-08)
(-4.25912e-06 -1.21128e-11 1.28344e-11 1.05459e-07 -8.09742e-08 9.50412e-08)
(-4.69703e-06 -1.1452e-11 1.19424e-11 -1.67882e-07 -6.99771e-08 1.52112e-07)
(-5.09391e-06 -3.08981e-11 1.18624e-11 -2.92754e-06 -2.97199e-08 1.9903e-07)