/*--------------------------------*- C++ -*----------------------------------*\
| =========                 |                                                 |
| \\      /  F ield         | OpenFOAM: The Open Source CFD Toolbox           |
|  \\    /   O peration     | Version:  v1912                                 |
|   \\  /    A nd           | Website:  www.openfoam.com                      |
|    \\/     M anipulation  |                                                 |
\*---------------------------------------------------------------------------*/
FoamFile
{
    version     2.0;
    format      ascii;
    class       pointVectorField;
    location    "0.19/solid";
    object      pointD;
}
// * * * * * * * * * * * * * * * * * * * * * * * * * * * * * * * * * * * * * //

dimensions      [0 1 0 0 0 0 0];


internalField   nonuniform List<vector> 
405
(
(2.43225e-08 1.57091e-08 2.59139e-08)
(1.58299e-09 9.89067e-09 3.47469e-08)
(2.24416e-10 8.15507e-09 3.40959e-08)
(-1.15469e-09 9.91884e-09 3.45097e-08)
(-2.35406e-08 1.5347e-08 2.59455e-08)
(3.742e-08 2.09479e-08 3.89283e-08)
(4.28802e-09 1.78214e-08 6.90529e-08)
(9.12046e-10 1.51163e-08 6.80093e-08)
(-2.51604e-09 1.75276e-08 6.88164e-08)
(-3.5395e-08 1.98663e-08 3.94187e-08)
(3.8976e-08 1.76511e-08 3.79539e-08)
(5.8279e-09 1.55677e-08 6.77408e-08)
(1.89757e-09 1.40836e-08 6.69131e-08)
(-2.10069e-09 1.46079e-08 6.79135e-08)
(-3.51033e-08 1.55438e-08 3.91963e-08)
(4.03997e-08 1.77815e-08 3.54942e-08)
(6.72552e-09 1.61926e-08 6.58336e-08)
(3.01489e-09 1.53029e-08 6.50189e-08)
(-7.70972e-10 1.46407e-08 6.63053e-08)
(-3.43752e-08 1.47508e-08 3.7273e-08)
(4.22877e-08 2.01618e-08 3.26039e-08)
(7.80321e-09 1.87701e-08 6.39827e-08)
(4.28149e-09 1.80695e-08 6.33777e-08)
(6.81425e-10 1.6693e-08 6.46831e-08)
(-3.37891e-08 1.62938e-08 3.47878e-08)
(4.44265e-08 2.39269e-08 2.97858e-08)
(8.77913e-09 2.27901e-08 6.28446e-08)
(5.70349e-09 2.21456e-08 6.26213e-08)
(2.54588e-09 2.02287e-08 6.37298e-08)
(-3.3142e-08 1.9278e-08 3.22945e-08)
(4.59586e-08 2.90885e-08 2.72347e-08)
(8.89248e-09 2.81518e-08 6.28171e-08)
(7.28625e-09 2.72804e-08 6.31018e-08)
(5.5751e-09 2.51266e-08 6.38648e-08)
(-3.16339e-08 2.3695e-08 3.00228e-08)
(4.57473e-08 2.94016e-08 2.4811e-08)
(8.03194e-09 2.81999e-08 6.28126e-08)
(9.02358e-09 2.65446e-08 6.36206e-08)
(9.84187e-09 2.4775e-08 6.40587e-08)
(-2.82872e-08 2.33663e-08 2.78801e-08)
(3.3202e-08 1.22083e-09 1.07264e-08)
(7.61683e-09 -1.28428e-08 2.4247e-08)
(1.01056e-08 -1.48262e-08 2.55257e-08)
(1.23775e-08 -1.60321e-08 2.60295e-08)
(-1.38061e-08 -4.39949e-09 1.3978e-08)
(3.21846e-08 1.0331e-08 1.37106e-09)
(0 0 0)
(0 0 0)
(0 0 0)
(-3.13631e-08 9.79042e-09 1.70365e-09)
(6.51596e-08 1.9164e-08 2.98893e-09)
(4.88535e-09 1.35085e-08 2.3734e-09)
(6.09808e-10 1.06523e-08 2.6083e-09)
(-3.66786e-09 1.29067e-08 2.98136e-09)
(-6.28197e-08 1.75351e-08 4.13142e-09)
(6.67758e-08 1.77807e-08 2.05405e-09)
(6.58702e-09 1.57356e-08 1.19075e-09)
(1.38354e-09 1.4167e-08 1.51571e-09)
(-3.82605e-09 1.45497e-08 2.22257e-09)
(-6.28638e-08 1.5099e-08 4.01477e-09)
(6.86897e-08 1.91328e-08 -8.78058e-10)
(7.4121e-09 1.81402e-08 -1.71042e-09)
(2.34628e-09 1.71606e-08 -1.29603e-09)
(-2.72977e-09 1.64286e-08 -3.77981e-10)
(-6.28356e-08 1.54823e-08 1.6778e-09)
(7.13618e-08 2.20894e-08 -4.60342e-09)
(8.35122e-09 2.13661e-08 -5.28571e-09)
(3.49431e-09 2.05394e-08 -4.72205e-09)
(-1.3741e-09 1.91724e-08 -3.72668e-09)
(-6.31921e-08 1.75413e-08 -1.59272e-09)
(7.49102e-08 2.58303e-08 -8.69388e-09)
(9.21728e-09 2.56003e-08 -9.22762e-09)
(4.82102e-09 2.48166e-08 -8.47926e-09)
(4.11328e-10 2.29487e-08 -7.48552e-09)
(-6.40837e-08 2.04375e-08 -5.31558e-09)
(7.87982e-08 3.01693e-08 -1.29032e-08)
(9.3033e-09 3.05402e-08 -1.33776e-08)
(6.32327e-09 2.95729e-08 -1.24655e-08)
(3.30846e-09 2.74462e-08 -1.148e-08)
(-6.50692e-08 2.39835e-08 -9.21451e-09)
(8.10732e-08 2.89145e-08 -1.62334e-08)
(8.51694e-09 2.87303e-08 -1.67932e-08)
(7.99204e-09 2.70384e-08 -1.58137e-08)
(7.36301e-09 2.52868e-08 -1.47741e-08)
(-6.44738e-08 2.20795e-08 -1.22961e-08)
(4.63212e-08 -1.23198e-08 -1.74513e-08)
(8.78282e-09 -5.08781e-08 -1.69742e-08)
(9.76124e-09 -5.24082e-08 -1.60099e-08)
(1.05732e-08 -5.35607e-08 -1.49362e-08)
(-2.77389e-08 -1.79195e-08 -1.38976e-08)
(2.99909e-08 8.41953e-09 -7.22942e-10)
(0 0 0)
(0 0 0)
(0 0 0)
(-2.91515e-08 7.97518e-09 -4.66809e-10)
(6.16421e-08 1.62101e-08 -1.93044e-09)
(5.97667e-09 1.0041e-08 -2.74106e-09)
(3.82327e-10 7.21837e-09 -2.8632e-09)
(-5.16578e-09 9.43677e-09 -2.24641e-09)
(-5.94414e-08 1.47688e-08 -1.03382e-09)
(6.41235e-08 1.64575e-08 -3.44574e-09)
(8.01903e-09 1.42497e-08 -4.56626e-09)
(9.78376e-10 1.26495e-08 -4.66269e-09)
(-6.00937e-09 1.30675e-08 -3.71695e-09)
(-6.06747e-08 1.39547e-08 -1.87326e-09)
(6.59271e-08 1.90091e-08 -6.0347e-09)
(8.79646e-09 1.80315e-08 -7.14098e-09)
(1.79809e-09 1.70348e-08 -7.1526e-09)
(-5.1481e-09 1.63381e-08 -6.02972e-09)
(-6.08042e-08 1.55289e-08 -3.9418e-09)
(6.84651e-08 2.25311e-08 -9.39805e-09)
(9.63447e-09 2.18198e-08 -1.03964e-08)
(2.82988e-09 2.09895e-08 -1.03023e-08)
(-3.92069e-09 1.96562e-08 -9.07992e-09)
(-6.12383e-08 1.81435e-08 -6.88931e-09)
(7.20871e-08 2.61417e-08 -1.29983e-08)
(1.04878e-08 2.58461e-08 -1.39248e-08)
(4.06172e-09 2.50599e-08 -1.37309e-08)
(-2.3096e-09 2.32345e-08 -1.24394e-08)
(-6.23675e-08 2.0903e-08 -1.01462e-08)
(7.63682e-08 2.94097e-08 -1.61286e-08)
(1.0682e-08 2.96482e-08 -1.70835e-08)
(5.48611e-09 2.86874e-08 -1.68199e-08)
(3.24269e-10 2.6609e-08 -1.54609e-08)
(-6.38719e-08 2.33844e-08 -1.29952e-08)
(7.9584e-08 2.6315e-08 -1.75277e-08)
(1.00781e-08 2.60298e-08 -1.862e-08)
(7.09127e-09 2.43834e-08 -1.83364e-08)
(4.06498e-09 2.26699e-08 -1.69138e-08)
(-6.43285e-08 1.96685e-08 -1.42017e-08)
(4.73252e-08 -1.39963e-08 -1.7166e-08)
(1.04355e-08 -5.01561e-08 -1.69519e-08)
(8.80633e-09 -5.11914e-08 -1.67413e-08)
(7.07088e-09 -5.26857e-08 -1.52729e-08)
(-3.03379e-08 -1.93847e-08 -1.42121e-08)
(2.78178e-08 7.98341e-09 -5.84276e-10)
(0 0 0)
(0 0 0)
(0 0 0)
(-2.70625e-08 7.65618e-09 -3.99634e-10)
(5.78124e-08 1.51946e-08 -1.95072e-09)
(6.43195e-09 8.81823e-09 -2.30108e-09)
(2.41667e-10 6.04942e-09 -2.45219e-09)
(-5.90258e-09 8.28534e-09 -1.94015e-09)
(-5.59056e-08 1.40093e-08 -1.29458e-09)
(6.09031e-08 1.53281e-08 -3.67984e-09)
(8.70932e-09 1.30074e-08 -4.1971e-09)
(7.01723e-10 1.14204e-08 -4.32847e-09)
(-7.2474e-09 1.19194e-08 -3.5639e-09)
(-5.79951e-08 1.31034e-08 -2.50663e-09)
(6.27256e-08 1.79578e-08 -5.89358e-09)
(9.4737e-09 1.70085e-08 -6.3966e-09)
(1.39942e-09 1.60397e-08 -6.45331e-09)
(-6.61298e-09 1.54153e-08 -5.55149e-09)
(-5.83727e-08 1.47479e-08 -4.29826e-09)
(6.50905e-08 2.14296e-08 -8.59037e-09)
(1.02046e-08 2.07901e-08 -8.99505e-09)
(2.32648e-09 2.00026e-08 -8.96661e-09)
(-5.48528e-09 1.87268e-08 -7.97624e-09)
(-5.88326e-08 1.72939e-08 -6.64024e-09)
(6.85518e-08 2.45984e-08 -1.12956e-08)
(1.09812e-08 2.43292e-08 -1.16095e-08)
(3.47055e-09 2.35842e-08 -1.15067e-08)
(-3.97127e-09 2.18173e-08 -1.04452e-08)
(-5.99663e-08 1.95935e-08 -9.04574e-09)
(7.28062e-08 2.69629e-08 -1.32044e-08)
(1.12013e-08 2.71528e-08 -1.35062e-08)
(4.82225e-09 2.62415e-08 -1.3356e-08)
(-1.50806e-09 2.42153e-08 -1.22276e-08)
(-6.15759e-08 2.11594e-08 -1.07135e-08)
(7.64564e-08 2.29381e-08 -1.33147e-08)
(1.07381e-08 2.26719e-08 -1.37222e-08)
(6.36696e-09 2.11566e-08 -1.35695e-08)
(1.97033e-09 1.94144e-08 -1.23821e-08)
(-6.25621e-08 1.65032e-08 -1.06703e-08)
(4.65783e-08 -1.57033e-08 -1.20773e-08)
(1.11098e-08 -4.93833e-08 -1.16513e-08)
(8.02906e-09 -4.99512e-08 -1.16121e-08)
(4.85461e-09 -5.18152e-08 -1.03454e-08)
(-3.10551e-08 -2.09183e-08 -9.75198e-09)
(2.63492e-08 7.74628e-09 -4.8251e-10)
(0 0 0)
(0 0 0)
(0 0 0)
(-2.56734e-08 7.51076e-09 -3.5289e-10)
(5.49598e-08 1.45877e-08 -1.79574e-09)
(6.351e-09 8.28972e-09 -1.77746e-09)
(1.56611e-10 5.5857e-09 -1.82699e-09)
(-6.00833e-09 7.82953e-09 -1.52064e-09)
(-5.33037e-08 1.36182e-08 -1.33108e-09)
(5.81775e-08 1.43981e-08 -3.48327e-09)
(8.64525e-09 1.20829e-08 -3.46263e-09)
(5.19625e-10 1.05389e-08 -3.46862e-09)
(-7.56266e-09 1.11002e-08 -3.00615e-09)
(-5.57039e-08 1.24322e-08 -2.64155e-09)
(5.99985e-08 1.66474e-08 -5.32601e-09)
(9.37499e-09 1.57493e-08 -5.2622e-09)
(1.12127e-09 1.4829e-08 -5.1999e-09)
(-7.08205e-09 1.42712e-08 -4.64403e-09)
(-5.62604e-08 1.37042e-08 -4.16238e-09)
(6.223e-08 1.97049e-08 -7.3368e-09)
(1.00067e-08 1.91533e-08 -7.18557e-09)
(1.96093e-09 1.84222e-08 -7.05206e-09)
(-6.02767e-09 1.72044e-08 -6.4298e-09)
(-5.67539e-08 1.58245e-08 -5.8907e-09)
(6.55202e-08 2.23755e-08 -9.16324e-09)
(1.06814e-08 2.21709e-08 -8.9211e-09)
(3.02915e-09 2.14799e-08 -8.72462e-09)
(-4.56213e-09 1.97693e-08 -8.04791e-09)
(-5.78627e-08 1.76072e-08 -7.47265e-09)
(6.96815e-08 2.42132e-08 -1.01779e-08)
(1.08736e-08 2.44122e-08 -9.90119e-09)
(4.31662e-09 2.35638e-08 -9.66371e-09)
(-2.19871e-09 2.15791e-08 -8.93669e-09)
(-5.94999e-08 1.86263e-08 -8.2905e-09)
(7.35314e-08 1.99025e-08 -9.749e-09)
(1.04843e-08 1.97104e-08 -9.53615e-09)
(5.80712e-09 1.83342e-08 -9.30001e-09)
(1.09765e-09 1.65478e-08 -8.52516e-09)
(-6.07754e-08 1.36611e-08 -7.73885e-09)
(4.51171e-08 -1.74828e-08 -8.32969e-09)
(1.08234e-08 -4.95559e-08 -7.6631e-09)
(7.42222e-09 -4.9784e-08 -7.52941e-09)
(3.91964e-09 -5.19051e-08 -6.68366e-09)
(-3.07954e-08 -2.25464e-08 -6.57049e-09)
(2.54221e-08 7.52395e-09 -3.79034e-10)
(0 0 0)
(0 0 0)
(0 0 0)
(-2.48029e-08 7.35186e-09 -2.92124e-10)
(5.30413e-08 1.40502e-08 -1.4649e-09)
(6.11787e-09 7.92183e-09 -1.33162e-09)
(1.04463e-10 5.28189e-09 -1.31655e-09)
(-5.89466e-09 7.51832e-09 -1.15621e-09)
(-5.15608e-08 1.32375e-08 -1.15125e-09)
(5.61781e-08 1.35758e-08 -2.86845e-09)
(8.31924e-09 1.13347e-08 -2.65899e-09)
(4.01518e-10 9.84383e-09 -2.58896e-09)
(-7.48817e-09 1.04388e-08 -2.34466e-09)
(-5.40087e-08 1.1811e-08 -2.29463e-09)
(5.79448e-08 1.54032e-08 -4.28528e-09)
(8.987e-09 1.45706e-08 -4.01473e-09)
(9.32919e-10 1.37021e-08 -3.88558e-09)
(-7.08348e-09 1.31912e-08 -3.58475e-09)
(-5.46434e-08 1.26773e-08 -3.48192e-09)
(6.00726e-08 1.80069e-08 -5.6829e-09)
(9.53571e-09 1.75331e-08 -5.34068e-09)
(1.70517e-09 1.68552e-08 -5.15538e-09)
(-6.07903e-09 1.56841e-08 -4.80951e-09)
(-5.51624e-08 1.43409e-08 -4.67141e-09)
(6.32328e-08 2.02751e-08 -6.81822e-09)
(1.01244e-08 2.0132e-08 -6.40539e-09)
(2.71266e-09 1.9491e-08 -6.17097e-09)
(-4.6479e-09 1.78262e-08 -5.78636e-09)
(-5.62589e-08 1.57077e-08 -5.62247e-09)
(6.73105e-08 2.18419e-08 -7.28732e-09)
(1.02798e-08 2.20658e-08 -6.84247e-09)
(3.94744e-09 2.12732e-08 -6.57577e-09)
(-2.35235e-09 1.93216e-08 -6.15493e-09)
(-5.79129e-08 1.64374e-08 -5.94174e-09)
(7.12494e-08 1.74749e-08 -6.73159e-09)
(9.923e-09 1.73529e-08 -6.32271e-09)
(5.39282e-09 1.60838e-08 -6.05689e-09)
(8.21664e-10 1.42692e-08 -5.60107e-09)
(-5.93552e-08 1.13944e-08 -5.29263e-09)
(4.36869e-08 -1.9112e-08 -5.50074e-09)
(1.02228e-08 -5.02214e-08 -4.81643e-09)
(6.96888e-09 -5.02313e-08 -4.6228e-09)
(3.6042e-09 -5.25032e-08 -4.12078e-09)
(-3.02751e-08 -2.40506e-08 -4.24431e-09)
(2.48613e-08 7.35066e-09 -2.61064e-10)
(0 0 0)
(0 0 0)
(0 0 0)
(-2.42783e-08 7.219e-09 -2.07863e-10)
(5.18437e-08 1.36184e-08 -1.01874e-09)
(5.9227e-09 7.63621e-09 -9.02297e-10)
(7.3398e-11 5.04668e-09 -8.72618e-10)
(-5.77198e-09 7.27156e-09 -7.93145e-10)
(-5.0475e-08 1.29089e-08 -8.25827e-10)
(5.48695e-08 1.29104e-08 -1.99708e-09)
(8.02481e-09 1.07491e-08 -1.80664e-09)
(3.28415e-10 9.30459e-09 -1.73113e-09)
(-7.35068e-09 9.91465e-09 -1.60999e-09)
(-5.28949e-08 1.12838e-08 -1.64165e-09)
(5.65679e-08 1.44092e-08 -2.94636e-09)
(8.62996e-09 1.3637e-08 -2.70233e-09)
(8.12696e-10 1.28115e-08 -2.58352e-09)
(-6.97601e-09 1.23294e-08 -2.43147e-09)
(-5.35509e-08 1.18382e-08 -2.44423e-09)
(5.86188e-08 1.66685e-08 -3.81864e-09)
(9.1163e-09 1.62528e-08 -3.52386e-09)
(1.53779e-09 1.56162e-08 -3.36634e-09)
(-6.00222e-09 1.44779e-08 -3.18683e-09)
(-5.40836e-08 1.31592e-08 -3.18041e-09)
(6.1694e-08 1.86658e-08 -4.46082e-09)
(9.64587e-09 1.85669e-08 -4.12035e-09)
(2.50142e-09 1.79635e-08 -3.92985e-09)
(-4.59891e-09 1.63326e-08 -3.72506e-09)
(-5.518e-08 1.42471e-08 -3.6999e-09)
(6.57144e-08 2.00912e-08 -4.64381e-09)
(9.77332e-09 2.03355e-08 -4.28223e-09)
(3.69725e-09 1.9583e-08 -4.07026e-09)
(-2.3527e-09 1.76576e-08 -3.84123e-09)
(-5.68513e-08 1.48225e-08 -3.78203e-09)
(6.96947e-08 1.57181e-08 -4.17805e-09)
(9.43072e-09 1.56423e-08 -3.8365e-09)
(5.10888e-09 1.44426e-08 -3.62486e-09)
(7.39872e-10 1.26176e-08 -3.37301e-09)
(-5.83947e-08 9.75797e-09 -3.25321e-09)
(4.26305e-08 -2.03915e-08 -3.30437e-09)
(9.70231e-09 -5.09385e-08 -2.78416e-09)
(6.65566e-09 -5.08224e-08 -2.61566e-09)
(3.49138e-09 -5.31705e-08 -2.33909e-09)
(-2.98487e-08 -2.52368e-08 -2.49779e-09)
(2.45617e-08 7.24593e-09 -1.33061e-10)
(0 0 0)
(0 0 0)
(0 0 0)
(-2.39987e-08 7.13659e-09 -1.07836e-10)
(5.11967e-08 1.33451e-08 -5.19403e-10)
(5.80932e-09 7.45117e-09 -4.58597e-10)
(5.70081e-11 4.89242e-09 -4.3966e-10)
(-5.69728e-09 7.10891e-09 -4.06298e-10)
(-4.98897e-08 1.26937e-08 -4.27675e-10)
(5.4148e-08 1.24794e-08 -1.01629e-09)
(7.84783e-09 1.03717e-08 -9.14857e-10)
(2.88798e-10 8.95703e-09 -8.70998e-10)
(-7.25911e-09 9.57319e-09 -8.20329e-10)
(-5.22814e-08 1.09326e-08 -8.46578e-10)
(5.57974e-08 1.37758e-08 -1.48885e-09)
(8.41063e-09 1.30438e-08 -1.35772e-09)
(7.46164e-10 1.22458e-08 -1.29124e-09)
(-6.89504e-09 1.1779e-08 -1.22699e-09)
(-5.29398e-08 1.12963e-08 -1.24779e-09)
(5.78008e-08 1.58318e-08 -1.90593e-09)
(8.85861e-09 1.54513e-08 -1.74865e-09)
(1.44355e-09 1.48404e-08 -1.66252e-09)
(-5.93759e-09 1.37211e-08 -1.58527e-09)
(-5.34783e-08 1.24165e-08 -1.59776e-09)
(6.08286e-08 1.76773e-08 -2.19332e-09)
(9.3544e-09 1.76039e-08 -2.01391e-09)
(2.3808e-09 1.70234e-08 -1.91136e-09)
(-4.55277e-09 1.54131e-08 -1.82153e-09)
(-5.45784e-08 1.3349e-08 -1.82396e-09)
(6.48172e-08 1.90307e-08 -2.24835e-09)
(9.46564e-09 1.92867e-08 -2.05894e-09)
(3.55281e-09 1.85573e-08 -1.94584e-09)
(-2.33763e-09 1.66493e-08 -1.84369e-09)
(-5.62635e-08 1.38452e-08 -1.8283e-09)
(6.88171e-08 1.4657e-08 -1.98917e-09)
(9.12958e-09 1.46049e-08 -1.80909e-09)
(4.94359e-09 1.34428e-08 -1.69611e-09)
(7.06877e-10 1.16164e-08 -1.58265e-09)
(-5.78641e-08 8.77103e-09 -1.53734e-09)
(4.20189e-08 -2.11991e-08 -1.54106e-09)
(9.38629e-09 -5.14518e-08 -1.2686e-09)
(6.47225e-09 -5.12726e-08 -1.17538e-09)
(3.4366e-09 -5.36531e-08 -1.0517e-09)
(-2.96061e-08 -2.59868e-08 -1.14724e-09)
(1.90351e-08 7.83633e-09 0)
(2.0684e-09 2.94678e-09 0)
(-3.73491e-12 1.33233e-09 0)
(-2.08094e-09 2.88957e-09 0)
(-1.86758e-08 7.71605e-09 0)
(3.0833e-08 1.1549e-08 0)
(5.77331e-09 7.38711e-09 0)
(5.19034e-11 4.83856e-09 0)
(-5.67339e-09 7.05216e-09 0)
(-3.01413e-08 1.09877e-08 0)
(3.37731e-08 1.18878e-08 0)
(7.79085e-09 1.02413e-08 0)
(2.76279e-10 8.83682e-09 0)
(-7.22919e-09 9.45463e-09 0)
(-3.25717e-08 1.05418e-08 0)
(3.48843e-08 1.34362e-08 0)
(8.33913e-09 1.28409e-08 0)
(7.24909e-10 1.20524e-08 0)
(-6.8678e-09 1.15903e-08 0)
(-3.27347e-08 1.12771e-08 0)
(3.60744e-08 1.54495e-08 0)
(8.77424e-09 1.518e-08 0)
(1.41317e-09 1.45776e-08 0)
(-5.91548e-09 1.34647e-08 0)
(-3.2502e-08 1.24742e-08 0)
(3.77805e-08 1.73256e-08 0)
(9.25906e-09 1.72805e-08 0)
(2.34163e-09 1.67076e-08 0)
(-4.53712e-09 1.51043e-08 0)
(-3.23181e-08 1.35482e-08 0)
(3.96493e-08 1.88373e-08 0)
(9.36508e-09 1.8936e-08 0)
(3.50563e-09 1.82142e-08 0)
(-2.33264e-09 1.63123e-08 0)
(-3.18963e-08 1.42945e-08 0)
(4.11282e-08 1.44865e-08 0)
(9.03102e-09 1.42573e-08 0)
(4.88937e-09 1.3107e-08 0)
(6.95827e-10 1.12811e-08 0)
(-3.08712e-08 9.31687e-09 0)
(3.22345e-08 -1.11169e-08 0)
(9.0456e-09 -2.13558e-08 0)
(6.02241e-09 -2.1974e-08 0)
(2.88458e-09 -2.40064e-08 0)
(-2.0356e-08 -1.58622e-08 0)
)
;

boundaryField
{
    interface
    {
        type            calculated;
    }
    symmetry
    {
        type            symmetry;
    }
    bottom
    {
        type            calculated;
    }
}


// ************************************************************************* //
