/*--------------------------------*- C++ -*----------------------------------*\
| =========                 |                                                 |
| \\      /  F ield         | OpenFOAM: The Open Source CFD Toolbox           |
|  \\    /   O peration     | Version:  v1912                                 |
|   \\  /    A nd           | Website:  www.openfoam.com                      |
|    \\/     M anipulation  |                                                 |
\*---------------------------------------------------------------------------*/
FoamFile
{
    version     2.0;
    format      ascii;
    class       volScalarField;
    location    "0.19/solid";
    object      sigmaEq;
}
// * * * * * * * * * * * * * * * * * * * * * * * * * * * * * * * * * * * * * //

dimensions      [1 -1 -2 0 0 0 0];


internalField   nonuniform List<scalar> 
256
(
521267
446939
443412
509333
390388
396725
392549
378434
406016
400992
396729
394511
425857
412979
408763
414754
447839
432178
428010
436979
476262
460746
456616
465596
467822
477049
473131
458283
43399.8
512562
508876
37885.5
402375
88301.8
86734.8
389538
351654
75648.8
73819.2
339110
356830
66069.3
64448.9
344419
368090
62563.1
61093.3
355635
384842
64543.2
63152.4
372254
409027
61830.1
60550.6
396430
419821
23106
22656.5
408404
467730
477101
473298
458553
368684
63652.3
62054.8
356533
339567
74150.7
72164
326899
346381
71833.3
69958.8
333519
356534
68936.8
67130.4
343464
371756
68983
67190.6
358438
394529
65673.4
63952.4
381105
409011
60862.4
59938.3
396659
476117
460824
456912
466270
343456
58385.7
56989.1
332391
318454
73410.6
71676
306519
326548
73802.7
72088.4
314209
336398
71342.6
69653.1
323733
350468
70594.8
68909.2
337494
371587
66763.1
65161.6
358467
384885
61689.1
60895.2
372793
448397
432609
428787
438965
328454
55144.5
53943.3
318288
304474
69791.6
68309.9
293274
312932
70563.2
69055.3
301208
322578
68030.2
66518.1
310439
335953
66617.2
65095.7
323451
356060
62027.2
60580.4
343369
368388
55157.2
54565.2
356691
429375
414323
410590
420419
319207
52649.7
51598.1
309685
295669
66257.4
64965.1
285028
304099
66684.5
65345.2
292874
313542
63886.7
62527
301844
326503
62056.6
60670.1
314394
346046
57052.5
55718.8
333705
357764
49061
48636.6
346387
417367
403395
399729
408799
313721
50894.4
49943.9
304609
290438
63778.5
62613.1
280169
298766
63861
62638.9
287882
308051
60843
59591.4
296659
320777
58804.5
57510.7
308941
340024
53662.8
52401
327922
351390
45136.1
44827.2
340231
410183
397252
393629
401884
311146
49983.2
49084.2
302233
287989
62543.7
61443.1
277905
296252
62456.4
61295
285539
305455
59330.7
58135.4
294219
318074
57212.7
55966.5
306376
337193
52044.6
50818.6
325213
348398
43316.1
43066
337350
406797
394476
390875
398635
)
;

boundaryField
{
    interface
    {
        type            calculated;
        value           nonuniform List<scalar> 
192
(
742048
603394
623497
649176
679472
722502
742226
391321
703260
637330
647835
667708
697132
743892
793737
742175
636458
591659
602946
621307
648813
693398
744056
722532
590560
550174
562407
580281
606512
649108
697793
680451
564223
525320
537876
555503
581021
622443
669714
653661
548505
510449
523053
540490
565590
606333
652691
637177
539398
501847
514425
531730
556590
596954
642765
627444
535182
497868
510419
527657
552408
592601
638155
622887
783892
649724
669363
694409
724189
767318
790717
476470
788724
721996
732245
753025
784769
835554
890769
831266
782247
714637
724666
745438
777209
828018
883407
825318
765892
631094
650812
676095
706042
749229
773097
464362
727179
588339
608701
634606
665058
708425
730173
393958
683061
616944
627291
646867
675951
722589
773916
730397
616724
570958
581793
599693
626720
671021
722906
709105
572078
530341
541914
559209
584889
627134
676921
667172
546803
506353
518131
535091
560001
601024
649318
640784
531848
492141
503904
520620
545067
585367
632692
624664
523231
483979
495685
512236
536413
576305
623044
615198
519254
480219
491886
508355
532407
572113
618578
610780
476526
790675
767300
725057
698725
682721
673327
668935
831315
890858
835821
785754
755848
738296
728400
723903
825374
883582
828450
778456
748622
731131
721277
716802
464445
773337
749885
708098
682185
666519
657360
653089
)
;
    }
    symmetry
    {
        type            symmetry;
    }
    bottom
    {
        type            calculated;
        value           nonuniform List<scalar> 
32
(
648509
453208
408149
382024
366554
356833
351020
348287
496792
104084
68012.3
61218.3
58103.5
55841.8
54259.7
53436.4
493574
102313
66240.4
59732.3
56847.7
54748.2
53273.5
52504.8
636825
439985
396074
371399
357047
348100
342772
340272
)
;
    }
}


// ************************************************************************* //
