/*--------------------------------*- C++ -*----------------------------------*\
| =========                 |                                                 |
| \\      /  F ield         | OpenFOAM: The Open Source CFD Toolbox           |
|  \\    /   O peration     | Version:  v1912                                 |
|   \\  /    A nd           | Website:  www.openfoam.com                      |
|    \\/     M anipulation  |                                                 |
\*---------------------------------------------------------------------------*/
FoamFile
{
    version     2.0;
    format      ascii;
    class       volScalarField;
    location    "0.19/solid";
    object      T;
}
// * * * * * * * * * * * * * * * * * * * * * * * * * * * * * * * * * * * * * //

dimensions      [0 0 0 1 0 0 0];


internalField   nonuniform List<scalar> 
256
(
292.077
292.534
292.535
292.074
291.994
292.49
292.492
291.991
291.987
292.487
292.488
291.984
291.978
292.483
292.484
291.975
291.962
292.475
292.477
291.96
291.933
292.46
292.461
291.931
291.851
292.405
292.406
291.848
291.189
291.798
291.801
291.191
292.572
292.961
292.96
292.565
292.531
292.956
292.955
292.523
292.527
292.956
292.955
292.519
292.523
292.955
292.955
292.515
292.515
292.955
292.954
292.507
292.499
292.953
292.953
292.492
292.444
292.928
292.927
292.437
291.851
292.405
292.406
291.848
292.62
292.981
292.98
292.613
292.583
292.979
292.978
292.575
292.58
292.979
292.978
292.572
292.576
292.978
292.978
292.568
292.568
292.978
292.978
292.561
292.552
292.977
292.976
292.545
292.499
292.953
292.953
292.492
291.933
292.46
292.461
291.931
292.635
292.982
292.982
292.627
292.599
292.98
292.979
292.59
292.595
292.98
292.979
292.587
292.591
292.98
292.979
292.583
292.583
292.979
292.979
292.576
292.568
292.978
292.978
292.561
292.515
292.955
292.954
292.507
291.962
292.475
292.477
291.96
292.642
292.982
292.982
292.634
292.607
292.98
292.979
292.598
292.603
292.98
292.979
292.595
292.599
292.98
292.979
292.591
292.591
292.98
292.979
292.583
292.575
292.978
292.978
292.568
292.522
292.955
292.955
292.515
291.978
292.483
292.484
291.976
292.646
292.982
292.982
292.638
292.611
292.98
292.98
292.602
292.607
292.98
292.979
292.599
292.603
292.98
292.979
292.595
292.595
292.98
292.979
292.587
292.58
292.979
292.978
292.572
292.527
292.956
292.955
292.519
291.986
292.487
292.488
291.984
292.648
292.982
292.982
292.64
292.613
292.98
292.98
292.604
292.61
292.98
292.979
292.601
292.605
292.98
292.979
292.597
292.597
292.98
292.979
292.589
292.582
292.979
292.978
292.574
292.529
292.956
292.955
292.521
291.991
292.489
292.49
291.988
292.649
292.983
292.982
292.641
292.614
292.98
292.98
292.605
292.611
292.98
292.979
292.602
292.606
292.98
292.979
292.598
292.598
292.98
292.979
292.59
292.583
292.979
292.978
292.575
292.53
292.956
292.955
292.522
291.993
292.49
292.491
291.99
)
;

boundaryField
{
    interface
    {
        type            fixedValue;
        value           nonuniform List<scalar> 
192
(
290.003
289.937
289.9
289.843
289.749
289.591
289.289
288.416
290.777
290.737
290.706
290.656
290.573
290.429
290.144
289.289
291.052
291.015
290.985
290.937
290.856
290.714
290.429
289.59
291.193
291.157
291.127
291.079
290.999
290.856
290.573
289.748
291.273
291.237
291.208
291.16
291.079
290.936
290.654
289.841
291.32
291.285
291.255
291.207
291.125
290.983
290.702
289.896
291.346
291.311
291.281
291.233
291.152
291.009
290.73
289.928
291.358
291.323
291.293
291.245
291.164
291.021
290.742
289.943
289.857
289.791
289.754
289.697
289.604
289.446
289.14
288.252
290.491
290.45
290.419
290.371
290.29
290.148
289.86
288.977
290.509
290.469
290.439
290.391
290.311
290.169
289.88
288.999
289.911
289.849
289.814
289.758
289.666
289.508
289.202
288.316
290.047
289.984
289.949
289.893
289.8
289.641
289.334
288.451
290.826
290.787
290.758
290.71
290.628
290.485
290.197
289.334
291.102
291.067
291.039
290.993
290.913
290.772
290.485
289.641
291.242
291.208
291.18
291.134
291.055
290.913
290.629
289.8
291.321
291.287
291.26
291.213
291.134
290.993
290.71
289.893
291.368
291.334
291.306
291.259
291.18
291.039
290.757
289.948
291.394
291.36
291.332
291.285
291.205
291.064
290.784
289.98
291.405
291.372
291.344
291.297
291.217
291.076
290.796
289.995
288.252
289.14
289.445
289.603
289.695
289.75
289.782
289.796
288.976
289.86
290.148
290.289
290.369
290.416
290.443
290.455
288.998
289.88
290.168
290.31
290.39
290.437
290.464
290.476
288.316
289.202
289.508
289.666
289.758
289.813
289.844
289.859
)
;
    }
    symmetry
    {
        type            symmetry;
    }
    bottom
    {
        type            fixedValue;
        value           uniform 293;
    }
}


// ************************************************************************* //
