/*--------------------------------*- C++ -*----------------------------------*\
| =========                 |                                                 |
| \\      /  F ield         | OpenFOAM: The Open Source CFD Toolbox           |
|  \\    /   O peration     | Version:  v1912                                 |
|   \\  /    A nd           | Website:  www.openfoam.com                      |
|    \\/     M anipulation  |                                                 |
\*---------------------------------------------------------------------------*/
FoamFile
{
    version     2.0;
    format      ascii;
    class       volVectorField;
    location    "0.79/solid";
    object      DD;
}
// * * * * * * * * * * * * * * * * * * * * * * * * * * * * * * * * * * * * * //

dimensions      [0 1 0 0 0 0 0];


internalField   nonuniform List<vector> 
256
(
(2.11051e-10 2.23163e-10 2.62138e-10)
(5.00212e-11 1.43797e-10 2.51906e-10)
(-6.52962e-11 1.37828e-10 2.44344e-10)
(-2.07137e-10 2.02556e-10 2.39448e-10)
(3.95582e-10 1.96167e-10 6.18631e-10)
(1.02569e-10 1.24057e-10 6.01549e-10)
(-1.37123e-10 1.21738e-10 5.86088e-10)
(-4.03043e-10 1.91981e-10 5.71848e-10)
(4.37277e-10 2.71103e-11 8.74165e-10)
(1.1038e-10 -5.63645e-12 8.50206e-10)
(-1.67065e-10 -1.85476e-12 8.30159e-10)
(-4.66243e-10 4.24031e-11 8.134e-10)
(4.28524e-10 -1.69371e-10 1.08795e-09)
(9.61729e-11 -1.83275e-10 1.05473e-09)
(-1.8234e-10 -1.73408e-10 1.0314e-09)
(-4.86593e-10 -1.36503e-10 1.0172e-09)
(4.24249e-10 -3.83903e-10 1.2962e-09)
(8.10091e-11 -4.00104e-10 1.25232e-09)
(-2.04724e-10 -3.84467e-10 1.2262e-09)
(-5.19287e-10 -3.34591e-10 1.21697e-09)
(4.60667e-10 -6.4568e-10 1.52022e-09)
(7.94558e-11 -6.67707e-10 1.46743e-09)
(-2.49334e-10 -6.46291e-10 1.43863e-09)
(-6.0114e-10 -5.79853e-10 1.43294e-09)
(5.56122e-10 -1.02557e-09 1.75763e-09)
(9.64502e-11 -1.03067e-09 1.70713e-09)
(-3.22524e-10 -1.00263e-09 1.6756e-09)
(-7.50847e-10 -9.4066e-10 1.66235e-09)
(6.55841e-10 -1.53117e-09 1.93712e-09)
(1.10671e-10 -1.49387e-09 1.90473e-09)
(-4.05032e-10 -1.45577e-09 1.87085e-09)
(-9.13935e-10 -1.41613e-09 1.83535e-09)
(1.39557e-10 8.14257e-11 1.14188e-10)
(3.1771e-11 1.43291e-11 1.26373e-10)
(-3.80307e-11 1.23049e-11 1.23027e-10)
(-1.2928e-10 6.95412e-11 1.0431e-10)
(2.69612e-10 1.58556e-12 3.55719e-10)
(6.85048e-11 -5.87573e-11 3.8002e-10)
(-8.15536e-11 -5.78433e-11 3.70835e-10)
(-2.59804e-10 3.69323e-12 3.28976e-10)
(2.96914e-10 -1.53872e-10 5.78966e-10)
(7.35046e-11 -1.80772e-10 6.05592e-10)
(-9.96473e-11 -1.75075e-10 5.92327e-10)
(-3.00233e-10 -1.35416e-10 5.40183e-10)
(2.84793e-10 -3.32247e-10 7.79631e-10)
(6.07103e-11 -3.44054e-10 8.03567e-10)
(-1.09287e-10 -3.33068e-10 7.87322e-10)
(-3.10592e-10 -2.97938e-10 7.31822e-10)
(2.78732e-10 -5.29115e-10 9.71173e-10)
(4.73335e-11 -5.45847e-10 9.90322e-10)
(-1.27605e-10 -5.29515e-10 9.71536e-10)
(-3.35884e-10 -4.79239e-10 9.15624e-10)
(3.1643e-10 -7.58719e-10 1.16146e-09)
(4.81239e-11 -7.83813e-10 1.1755e-09)
(-1.69441e-10 -7.62054e-10 1.15433e-09)
(-4.13946e-10 -6.93091e-10 1.09868e-09)
(4.24673e-10 -1.07222e-09 1.33417e-09)
(7.00663e-11 -1.07766e-09 1.34513e-09)
(-2.43033e-10 -1.04996e-09 1.32189e-09)
(-5.71635e-10 -9.89083e-10 1.26502e-09)
(5.50402e-10 -1.49535e-09 1.43159e-09)
(9.05828e-11 -1.43952e-09 1.44184e-09)
(-3.28015e-10 -1.40313e-09 1.41771e-09)
(-7.56139e-10 -1.38512e-09 1.35937e-09)
(7.68356e-11 2.60326e-11 5.68964e-11)
(1.39279e-11 -2.45116e-11 7.58185e-11)
(-1.60466e-11 -2.60725e-11 7.35508e-11)
(-6.31486e-11 1.39507e-11 5.04442e-11)
(1.54675e-10 -9.66336e-11 2.22464e-10)
(3.33787e-11 -1.43094e-10 2.59091e-10)
(-3.439e-11 -1.41878e-10 2.52749e-10)
(-1.34165e-10 -9.57398e-11 2.04477e-10)
(1.69141e-10 -2.60797e-10 4.06933e-10)
(3.47636e-11 -2.82316e-10 4.48461e-10)
(-4.16473e-11 -2.76759e-10 4.3888e-10)
(-1.54877e-10 -2.4455e-10 3.79476e-10)
(1.56203e-10 -4.29874e-10 5.86617e-10)
(2.33437e-11 -4.41462e-10 6.27435e-10)
(-4.6349e-11 -4.31013e-10 6.15259e-10)
(-1.58347e-10 -3.98544e-10 5.5133e-10)
(1.51277e-10 -6.0309e-10 7.55312e-10)
(1.19877e-11 -6.22167e-10 7.93409e-10)
(-6.12706e-11 -6.06678e-10 7.78975e-10)
(-1.79459e-10 -5.56761e-10 7.13127e-10)
(1.92172e-10 -7.9111e-10 9.06572e-10)
(1.52379e-11 -8.19909e-10 9.41186e-10)
(-1.00912e-10 -7.99307e-10 9.24728e-10)
(-2.5599e-10 -7.29662e-10 8.5816e-10)
(3.08921e-10 -1.04309e-09 1.01855e-09)
(4.12593e-11 -1.0512e-09 1.04923e-09)
(-1.74533e-10 -1.02509e-09 1.03126e-09)
(-4.17852e-10 -9.65054e-10 9.65253e-10)
(4.47381e-10 -1.40171e-09 1.05187e-09)
(6.6358e-11 -1.34297e-09 1.07906e-09)
(-2.60364e-10 -1.3086e-09 1.06088e-09)
(-6.10957e-10 -1.29753e-09 9.97204e-10)
(4.56665e-11 3.85714e-12 4.34356e-11)
(5.18482e-12 -3.46613e-11 5.71725e-11)
(-5.32396e-12 -3.64949e-11 5.5485e-11)
(-2.99002e-11 -9.72462e-12 3.87527e-11)
(9.67885e-11 -1.36234e-10 1.68746e-10)
(1.5668e-11 -1.73037e-10 1.94953e-10)
(-9.93611e-12 -1.72605e-10 1.90379e-10)
(-6.9542e-11 -1.38602e-10 1.55989e-10)
(1.06179e-10 -3.07826e-10 3.1537e-10)
(1.59801e-11 -3.26234e-10 3.44654e-10)
(-1.08987e-11 -3.21749e-10 3.37674e-10)
(-8.01185e-11 -2.95628e-10 2.9561e-10)
(9.61839e-11 -4.71607e-10 4.64125e-10)
(6.96717e-12 -4.84041e-10 4.92348e-10)
(-1.29036e-11 -4.74865e-10 4.83291e-10)
(-8.15433e-11 -4.4476e-10 4.38111e-10)
(9.57806e-11 -6.25701e-10 6.01948e-10)
(-1.44077e-12 -6.47237e-10 6.27712e-10)
(-2.61246e-11 -6.33191e-10 6.16791e-10)
(-1.02562e-10 -5.84171e-10 5.70225e-10)
(1.40993e-10 -7.82856e-10 7.15733e-10)
(4.37945e-12 -8.14793e-10 7.3876e-10)
(-6.42399e-11 -7.95797e-10 7.26211e-10)
(-1.79238e-10 -7.26503e-10 6.78938e-10)
(2.60539e-10 -9.97713e-10 7.86208e-10)
(3.22773e-11 -1.01023e-09 8.06576e-10)
(-1.36117e-10 -9.85855e-10 7.92919e-10)
(-3.40106e-10 -9.24994e-10 7.45669e-10)
(3.99987e-10 -1.32395e-09 7.9252e-10)
(5.88508e-11 -1.27274e-09 8.11631e-10)
(-2.20029e-10 -1.2401e-09 7.97954e-10)
(-5.30648e-10 -1.225e-09 7.51223e-10)
(3.4401e-11 -4.47276e-12 3.69625e-11)
(2.71165e-12 -3.6923e-11 4.41529e-11)
(-1.80754e-12 -3.9045e-11 4.29366e-11)
(-1.73382e-11 -1.9271e-11 3.364e-11)
(7.68008e-11 -1.4805e-10 1.33165e-10)
(1.09215e-11 -1.80352e-10 1.46398e-10)
(-1.22523e-12 -1.80783e-10 1.43157e-10)
(-4.53205e-11 -1.53396e-10 1.2424e-10)
(8.65602e-11 -3.20275e-10 2.44103e-10)
(1.22035e-11 -3.37968e-10 2.58146e-10)
(4.27834e-13 -3.34659e-10 2.53192e-10)
(-5.27803e-11 -3.1196e-10 2.30223e-10)
(8.08704e-11 -4.79153e-10 3.57563e-10)
(5.88578e-12 -4.93124e-10 3.70075e-10)
(-4.492e-13 -4.85285e-10 3.63577e-10)
(-5.47608e-11 -4.56612e-10 3.39042e-10)
(8.54372e-11 -6.21004e-10 4.61231e-10)
(3.80419e-13 -6.44761e-10 4.71526e-10)
(-1.28681e-11 -6.32146e-10 4.63604e-10)
(-7.70636e-11 -5.83977e-10 4.38341e-10)
(1.34129e-10 -7.61144e-10 5.42228e-10)
(8.30756e-12 -7.95409e-10 5.50512e-10)
(-4.96923e-11 -7.77897e-10 5.41354e-10)
(-1.5378e-10 -7.0936e-10 5.15452e-10)
(2.53601e-10 -9.58915e-10 5.86823e-10)
(3.68691e-11 -9.75144e-10 5.93745e-10)
(-1.19165e-10 -9.52233e-10 5.83773e-10)
(-3.11421e-10 -8.90653e-10 5.57235e-10)
(3.90565e-10 -1.27109e-09 5.85676e-10)
(6.36715e-11 -1.22775e-09 5.92766e-10)
(-2.00464e-10 -1.19648e-09 5.82814e-10)
(-4.9656e-10 -1.17628e-09 5.55571e-10)
(3.12053e-11 -7.21126e-12 2.86887e-11)
(2.63072e-12 -3.71397e-11 3.18278e-11)
(-1.15704e-12 -3.94693e-11 3.10139e-11)
(-1.33554e-11 -2.28345e-11 2.6489e-11)
(7.23429e-11 -1.48763e-10 9.77351e-11)
(1.13015e-11 -1.79647e-10 1.03071e-10)
(7.48428e-13 -1.80735e-10 1.00915e-10)
(-3.82545e-11 -1.56274e-10 9.18546e-11)
(8.43349e-11 -3.17699e-10 1.7514e-10)
(1.41527e-11 -3.35936e-10 1.80128e-10)
(3.18301e-12 -3.33567e-10 1.76828e-10)
(-4.56604e-11 -3.12362e-10 1.6597e-10)
(8.24596e-11 -4.71835e-10 2.53706e-10)
(1.0084e-11 -4.87414e-10 2.57231e-10)
(2.72126e-12 -4.80659e-10 2.52877e-10)
(-4.88421e-11 -4.52684e-10 2.41374e-10)
(9.08457e-11 -6.06792e-10 3.24541e-10)
(6.80012e-12 -6.32282e-10 3.26385e-10)
(-9.20129e-12 -6.20814e-10 3.21041e-10)
(-7.22637e-11 -5.7331e-10 3.09168e-10)
(1.41779e-10 -7.39384e-10 3.78144e-10)
(1.62111e-11 -7.75172e-10 3.78688e-10)
(-4.49199e-11 -7.58813e-10 3.72479e-10)
(-1.48617e-10 -6.91126e-10 3.60041e-10)
(2.60487e-10 -9.30754e-10 4.05908e-10)
(4.50565e-11 -9.49286e-10 4.05852e-10)
(-1.12294e-10 -9.27475e-10 3.99079e-10)
(-3.03073e-10 -8.65837e-10 3.85832e-10)
(3.94979e-10 -1.23657e-09 4.03777e-10)
(7.18471e-11 -1.19838e-09 4.04198e-10)
(-1.91402e-10 -1.1681e-09 3.97444e-10)
(-4.83517e-10 -1.14479e-09 3.83338e-10)
(3.04737e-11 -7.83772e-12 1.81353e-11)
(2.99334e-12 -3.68127e-11 1.93398e-11)
(-1.22252e-12 -3.92739e-11 1.88744e-11)
(-1.21783e-11 -2.39675e-11 1.68862e-11)
(7.21776e-11 -1.46331e-10 5.98188e-11)
(1.25279e-11 -1.77013e-10 6.1613e-11)
(8.42749e-13 -1.78523e-10 6.03814e-11)
(-3.65869e-11 -1.5521e-10 5.64809e-11)
(8.61609e-11 -3.11492e-10 1.05472e-10)
(1.66334e-11 -3.30503e-10 1.06741e-10)
(3.43846e-12 -3.28756e-10 1.04853e-10)
(-4.46056e-11 -3.08099e-10 1.00255e-10)
(8.68674e-11 -4.61937e-10 1.51322e-10)
(1.40649e-11 -4.78737e-10 1.51602e-10)
(3.14501e-12 -4.72712e-10 1.49103e-10)
(-4.87311e-11 -4.45044e-10 1.44275e-10)
(9.76384e-11 -5.9335e-10 1.9224e-10)
(1.21938e-11 -6.19982e-10 1.91509e-10)
(-8.42537e-12 -6.09288e-10 1.88429e-10)
(-7.27857e-11 -5.62245e-10 1.83409e-10)
(1.4985e-10 -7.23142e-10 2.22706e-10)
(2.253e-11 -7.59805e-10 2.21265e-10)
(-4.33387e-11 -7.44216e-10 2.17676e-10)
(-1.48683e-10 -6.77237e-10 2.1226e-10)
(2.67943e-10 -9.12523e-10 2.38081e-10)
(5.15605e-11 -9.3225e-10 2.36403e-10)
(-1.09283e-10 -9.11164e-10 2.3248e-10)
(-3.00893e-10 -8.49816e-10 2.26462e-10)
(4.00777e-10 -1.21533e-09 2.36586e-10)
(7.83474e-11 -1.17988e-09 2.35255e-10)
(-1.8692e-10 -1.15025e-09 2.31343e-10)
(-4.78188e-10 -1.12553e-09 2.24747e-10)
(3.03338e-11 -7.85953e-12 6.19439e-12)
(3.2188e-12 -3.65149e-11 6.50158e-12)
(-1.32176e-12 -3.90399e-11 6.35036e-12)
(-1.18374e-11 -2.42314e-11 5.7898e-12)
(7.25168e-11 -1.44402e-10 2.01361e-11)
(1.32483e-11 -1.75147e-10 2.05387e-11)
(7.14986e-13 -1.76862e-10 2.01385e-11)
(-3.62398e-11 -1.53939e-10 1.90543e-11)
(8.75435e-11 -3.07284e-10 3.52163e-11)
(1.79951e-11 -3.2677e-10 3.54007e-11)
(3.33379e-12 -3.25328e-10 3.47866e-11)
(-4.46535e-11 -3.04838e-10 3.35236e-11)
(8.95029e-11 -4.55749e-10 5.02605e-11)
(1.61543e-11 -4.73183e-10 5.01028e-11)
(3.1135e-12 -4.6752e-10 4.92885e-11)
(-4.9245e-11 -4.39971e-10 4.79697e-11)
(1.0139e-10 -5.85671e-10 6.36136e-11)
(1.49563e-11 -6.12859e-10 6.31221e-11)
(-8.26472e-12 -6.0255e-10 6.21165e-11)
(-7.35576e-11 -5.55748e-10 6.07355e-11)
(1.5418e-10 -7.1462e-10 7.34906e-11)
(2.57366e-11 -7.51676e-10 7.27754e-11)
(-4.27593e-11 -7.36469e-10 7.16014e-11)
(-1.4917e-10 -6.69885e-10 7.00782e-11)
(2.71971e-10 -9.03513e-10 7.84311e-11)
(5.48733e-11 -9.23731e-10 7.76538e-11)
(-1.07997e-10 -9.03004e-10 7.63694e-11)
(-3.00261e-10 -8.41902e-10 7.46296e-11)
(4.04006e-10 -1.20509e-09 7.79135e-11)
(8.16693e-11 -1.17078e-09 7.72551e-11)
(-1.84908e-10 -1.14147e-09 7.59741e-11)
(-4.76009e-10 -1.11627e-09 7.40379e-11)
)
;

boundaryField
{
    interface
    {
        type            calculated;
        value           nonuniform List<vector> 
192
(
(2.55127e-10 3.74821e-10 2.40015e-10)
(4.42248e-10 2.52723e-10 5.79493e-10)
(4.87017e-10 3.53449e-11 8.31374e-10)
(4.82061e-10 -1.72629e-10 1.04558e-09)
(4.79005e-10 -3.75868e-10 1.25501e-09)
(5.11902e-10 -6.12712e-10 1.48094e-09)
(6.06657e-10 -9.7678e-10 1.72223e-09)
(7.13206e-10 -1.50415e-09 1.90738e-09)
(1.59618e-10 1.83718e-10 8.0635e-11)
(2.96384e-10 4.09242e-11 2.95494e-10)
(3.25038e-10 -1.50077e-10 5.11932e-10)
(3.13805e-10 -3.36793e-10 7.11551e-10)
(3.07007e-10 -5.21206e-10 9.02931e-10)
(3.41076e-10 -7.22235e-10 1.09434e-09)
(4.53289e-10 -1.01373e-09 1.27237e-09)
(6.01818e-10 -1.46274e-09 1.37947e-09)
(8.28428e-11 8.39103e-11 3.34242e-11)
(1.70218e-10 -7.35579e-11 1.79259e-10)
(1.86874e-10 -2.60416e-10 3.5925e-10)
(1.74985e-10 -4.34341e-10 5.39465e-10)
(1.70226e-10 -5.94099e-10 7.09575e-10)
(2.09941e-10 -7.51699e-10 8.62713e-10)
(3.34505e-10 -9.79285e-10 9.7752e-10)
(5.00781e-10 -1.36535e-09 1.01427e-09)
(4.54561e-11 3.94709e-11 3.28273e-11)
(1.09005e-10 -1.21106e-10 1.49278e-10)
(1.21667e-10 -3.07978e-10 2.94726e-10)
(1.13485e-10 -4.74208e-10 4.45293e-10)
(1.14492e-10 -6.145e-10 5.85488e-10)
(1.60749e-10 -7.41667e-10 7.01223e-10)
(2.909e-10 -9.32964e-10 7.72379e-10)
(4.58936e-10 -1.286e-09 7.78316e-10)
(3.071e-11 2.33277e-11 3.33475e-11)
(8.61304e-11 -1.35011e-10 1.27054e-10)
(9.97834e-11 -3.19259e-10 2.38642e-10)
(9.66135e-11 -4.79435e-10 3.54132e-10)
(1.03581e-10 -6.07691e-10 4.59998e-10)
(1.54758e-10 -7.19104e-10 5.42425e-10)
(2.8639e-10 -8.94807e-10 5.8681e-10)
(4.51594e-10 -1.23266e-09 5.84424e-10)
(2.58346e-11 1.86758e-11 2.7707e-11)
(7.98171e-11 -1.35481e-10 9.65796e-11)
(9.60408e-11 -3.1517e-10 1.75041e-10)
(9.72197e-11 -4.70208e-10 2.55205e-10)
(1.0871e-10 -5.91963e-10 3.27591e-10)
(1.63004e-10 -6.96974e-10 3.82074e-10)
(2.9466e-10 -8.67455e-10 4.09494e-10)
(4.56751e-10 -1.19811e-09 4.0633e-10)
(2.44644e-11 1.78251e-11 1.79175e-11)
(7.87844e-11 -1.3241e-10 5.98625e-11)
(9.71868e-11 -3.07821e-10 1.06275e-10)
(1.01294e-10 -4.59069e-10 1.53083e-10)
(1.15607e-10 -5.77606e-10 1.94876e-10)
(1.7167e-10 -6.80567e-10 2.25806e-10)
(3.03086e-10 -8.49792e-10 2.40952e-10)
(4.62996e-10 -1.17697e-09 2.38843e-10)
(2.41446e-11 1.78531e-11 6.15944e-12)
(7.88211e-11 -1.301e-10 2.02209e-11)
(9.83537e-11 -3.03038e-10 3.5562e-11)
(1.03881e-10 -4.52289e-10 5.09194e-11)
(1.19519e-10 -5.69503e-10 6.45517e-11)
(1.7638e-10 -6.71975e-10 7.45733e-11)
(3.07643e-10 -8.41057e-10 7.94383e-11)
(4.66479e-10 -1.1668e-09 7.87206e-11)
(2.19552e-10 4.43355e-10 2.7954e-10)
(4.10878e-10 3.49174e-10 6.34886e-10)
(4.52681e-10 1.44441e-10 8.93427e-10)
(4.41404e-10 -6.38605e-11 1.11188e-09)
(4.33873e-10 -2.75835e-10 1.32159e-09)
(4.67108e-10 -5.30323e-10 1.54045e-09)
(5.61197e-10 -9.21347e-10 1.77265e-09)
(6.62617e-10 -1.47731e-09 1.95348e-09)
(4.55709e-11 3.5716e-10 2.5649e-10)
(9.44303e-11 2.73633e-10 6.00901e-10)
(9.93756e-11 1.07661e-10 8.46521e-10)
(8.20339e-11 -8.27443e-11 1.05024e-09)
(6.35055e-11 -2.96929e-10 1.24484e-09)
(5.90551e-11 -5.54005e-10 1.45144e-09)
(7.59424e-11 -9.2135e-10 1.68779e-09)
(9.41029e-11 -1.43706e-09 1.90287e-09)
(-6.84127e-11 3.45436e-10 2.39224e-10)
(-1.44552e-10 2.68192e-10 5.77395e-10)
(-1.7627e-10 1.09475e-10 8.18358e-10)
(-1.91727e-10 -7.43971e-11 1.01845e-09)
(-2.13564e-10 -2.82661e-10 1.20994e-09)
(-2.57958e-10 -5.33939e-10 1.4136e-09)
(-3.33721e-10 -8.94574e-10 1.64695e-09)
(-4.22377e-10 -1.39946e-09 1.85888e-09)
(-2.2175e-10 4.0538e-10 2.27786e-10)
(-4.31672e-10 3.3547e-10 5.61728e-10)
(-4.99508e-10 1.53742e-10 8.05428e-10)
(-5.20671e-10 -3.56083e-11 1.01282e-09)
(-5.52936e-10 -2.30654e-10 1.21317e-09)
(-6.3424e-10 -4.68508e-10 1.4233e-09)
(-7.85138e-10 -8.40056e-10 1.64695e-09)
(-9.5207e-10 -1.36363e-09 1.82025e-09)
(-1.91258e-10 3.551e-10 2.12676e-10)
(-3.90017e-10 2.56758e-10 5.21721e-10)
(-4.55129e-10 6.32919e-11 7.55262e-10)
(-4.77796e-10 -1.2324e-10 9.56155e-10)
(-5.10182e-10 -3.05953e-10 1.15429e-09)
(-5.86834e-10 -5.21961e-10 1.36959e-09)
(-7.32985e-10 -8.62459e-10 1.6004e-09)
(-8.97798e-10 -1.35516e-09 1.77684e-09)
(-9.35716e-11 1.66812e-10 6.83125e-11)
(-2.31651e-10 4.64317e-11 2.61755e-10)
(-2.72827e-10 -1.22717e-10 4.6234e-10)
(-2.82962e-10 -2.89024e-10 6.49759e-10)
(-3.06231e-10 -4.53399e-10 8.30665e-10)
(-3.79135e-10 -6.34151e-10 1.01239e-09)
(-5.37837e-10 -9.03532e-10 1.18177e-09)
(-7.38656e-10 -1.32062e-09 1.28362e-09)
(-1.52974e-11 6.32789e-11 2.55986e-11)
(-9.70236e-11 -7.28073e-11 1.5691e-10)
(-1.19484e-10 -2.38504e-10 3.24445e-10)
(-1.23048e-10 -3.92397e-10 4.94065e-10)
(-1.43062e-10 -5.32349e-10 6.54795e-10)
(-2.16771e-10 -6.70062e-10 7.99482e-10)
(-3.83305e-10 -8.76311e-10 9.07369e-10)
(-5.97606e-10 -1.23132e-09 9.40829e-10)
(2.34656e-11 1.51358e-11 2.72996e-11)
(-2.99058e-11 -1.26047e-10 1.33777e-10)
(-4.34367e-11 -2.92627e-10 2.70084e-10)
(-4.57485e-11 -4.39148e-10 4.12213e-10)
(-6.69042e-11 -5.59745e-10 5.44624e-10)
(-1.42886e-10 -6.67115e-10 6.53385e-10)
(-3.11087e-10 -8.37139e-10 7.1906e-10)
(-5.23622e-10 -1.15897e-09 7.22622e-10)
(3.91728e-11 -3.6064e-12 2.95033e-11)
(-3.21483e-12 -1.44536e-10 1.16417e-10)
(-1.42997e-11 -3.09599e-10 2.21607e-10)
(-1.79336e-11 -4.5054e-10 3.30865e-10)
(-4.13586e-11 -5.59221e-10 4.30766e-10)
(-1.18753e-10 -6.50768e-10 5.07795e-10)
(-2.85189e-10 -8.04956e-10 5.47975e-10)
(-4.91997e-10 -1.11119e-09 5.43787e-10)
(4.46535e-11 -9.93207e-12 2.51987e-11)
(5.49261e-12 -1.48197e-10 8.96704e-11)
(-5.88134e-12 -3.09715e-10 1.63926e-10)
(-1.13185e-11 -4.46032e-10 2.39866e-10)
(-3.65644e-11 -5.48364e-10 3.08098e-10)
(-1.14431e-10 -6.33422e-10 3.58766e-10)
(-2.78421e-10 -7.8211e-10 3.832e-10)
(-4.79914e-10 -1.08075e-09 3.78744e-10)
(4.63832e-11 -1.17763e-11 1.65064e-11)
(7.9462e-12 -1.47103e-10 5.59768e-11)
(-4.27369e-12 -3.05062e-10 1.00003e-10)
(-1.1019e-11 -4.37997e-10 1.44376e-10)
(-3.73315e-11 -5.37256e-10 1.83732e-10)
(-1.15213e-10 -6.20208e-10 2.12398e-10)
(-2.77309e-10 -7.67438e-10 2.25759e-10)
(-4.75146e-10 -1.06231e-09 2.2287e-10)
(4.6872e-11 -1.22122e-11 5.70451e-12)
(8.55135e-12 -1.45735e-10 1.89674e-11)
(-4.16198e-12 -3.01586e-10 3.35354e-11)
(-1.15443e-11 -4.32743e-10 4.8098e-11)
(-3.83189e-11 -5.30765e-10 6.09284e-11)
(-1.16126e-10 -6.13207e-10 7.01999e-11)
(-2.77244e-10 -7.60191e-10 7.44715e-11)
(-4.7327e-10 -1.05348e-09 7.3493e-11)
(6.60028e-10 -1.54853e-09 1.9551e-09)
(5.52748e-10 -1.51212e-09 1.39922e-09)
(4.50877e-10 -1.425e-09 1.00902e-09)
(4.06159e-10 -1.35482e-09 7.59863e-10)
(3.98944e-10 -1.30464e-09 5.63832e-10)
(4.04662e-10 -1.2709e-09 3.89838e-10)
(4.11096e-10 -1.25004e-09 2.28716e-10)
(4.1457e-10 -1.24002e-09 7.53536e-11)
(9.18206e-11 -1.49297e-09 1.91954e-09)
(6.75263e-11 -1.42189e-09 1.40411e-09)
(4.30792e-11 -1.32984e-09 1.03737e-09)
(3.78886e-11 -1.27e-09 7.82825e-10)
(4.50167e-11 -1.23055e-09 5.74175e-10)
(5.4728e-11 -1.20392e-09 3.92229e-10)
(6.20749e-11 -1.18685e-09 2.28355e-10)
(6.57616e-11 -1.17841e-09 7.498e-11)
(-4.24468e-10 -1.44464e-09 1.88584e-09)
(-3.41617e-10 -1.37593e-09 1.38091e-09)
(-2.71726e-10 -1.28603e-09 1.02012e-09)
(-2.31965e-10 -1.22795e-09 7.69922e-10)
(-2.13335e-10 -1.18986e-09 5.64814e-10)
(-2.04802e-10 -1.16421e-09 3.85888e-10)
(-2.00509e-10 -1.14778e-09 2.24685e-10)
(-1.98537e-10 -1.13965e-09 7.37791e-11)
(-9.54333e-10 -1.40172e-09 1.85385e-09)
(-7.92896e-10 -1.37081e-09 1.32972e-09)
(-6.46837e-10 -1.28977e-09 9.57174e-10)
(-5.67445e-10 -1.22482e-09 7.20908e-10)
(-5.34157e-10 -1.17872e-09 5.35517e-10)
(-5.2137e-10 -1.14792e-09 3.70652e-10)
(-5.15986e-10 -1.12897e-09 2.17617e-10)
(-5.13709e-10 -1.11988e-09 7.17226e-11)
)
;
    }
    symmetry
    {
        type            symmetry;
    }
    bottom
    {
        type            calculated;
        value           uniform (0 0 0);
    }
}


// ************************************************************************* //
