/*--------------------------------*- C++ -*----------------------------------*\
| =========                 |                                                 |
| \\      /  F ield         | OpenFOAM: The Open Source CFD Toolbox           |
|  \\    /   O peration     | Version:  v1912                                 |
|   \\  /    A nd           | Website:  www.openfoam.com                      |
|    \\/     M anipulation  |                                                 |
\*---------------------------------------------------------------------------*/
FoamFile
{
    version     2.0;
    format      ascii;
    class       volVectorField;
    location    "0.79/solid";
    object      heatFlux;
}
// * * * * * * * * * * * * * * * * * * * * * * * * * * * * * * * * * * * * * //

dimensions      [1 0 -3 0 0 0 0];


internalField   nonuniform List<vector> 
256
(
(-64643.6 72219.4 -68108.8)
(-13329.2 42773 -66898.9)
(11947.1 42281.7 -65615.1)
(57888.3 69646.7 -64328.7)
(-61520.1 10824.6 -65344.9)
(-16608.5 7034.19 -67113.5)
(14926.5 6964.41 -65780.6)
(54437.2 10523.6 -61517.9)
(-62632.8 2580.11 -66578.6)
(-17189.4 1602.85 -68711.6)
(15436.6 1580.36 -67324.5)
(55404 2486.05 -62618)
(-64468.7 2445.8 -68441.4)
(-17608.2 1460.91 -70735.6)
(15809.7 1446.98 -69310.1)
(57089.4 2379.08 -64379.6)
(-67038.8 4101.59 -71012.5)
(-18188.2 2677 -73614.3)
(16354.8 2665.28 -72160.6)
(59517.4 4046.9 -66875.5)
(-70660.6 9440.6 -74654.8)
(-19044.5 7582.04 -77966.1)
(17179.6 7549.22 -76485.9)
(63007.3 9342.25 -70446.4)
(-74239.4 29039.2 -78376.1)
(-20079.6 28404 -83125.8)
(18115 28169.2 -81616.7)
(66429.1 28401.6 -74095.4)
(-68683.4 73322.6 -73220.9)
(-19914.6 79597.9 -79517)
(17177.3 78144.7 -78077.8)
(60478.3 69227.4 -69175.2)
(-61743.1 39069.3 -18249.9)
(-12035.4 11723.8 -15912.8)
(11259 11586.8 -15737.7)
(55352 37503.2 -17738.2)
(-61873.3 6451.2 -23217)
(-15447.1 2449.11 -20812.9)
(14520.4 2429.91 -20590.6)
(55261.4 6286.23 -22574.6)
(-63375.5 1525.72 -24036.9)
(-16056.7 497.777 -21641.5)
(15096.1 490.819 -21407.3)
(56624.6 1469.76 -23364.3)
(-65382 1444.96 -24538.2)
(-16482 406.673 -22142.1)
(15492.4 400.517 -21902.4)
(58475.2 1393.8 -23853.9)
(-68281.2 2650.64 -25216.4)
(-17101.1 1044.34 -22857.9)
(16083.3 1036.98 -22615.5)
(61212.3 2598.85 -24531)
(-72663 7439.4 -26244.9)
(-18095.6 5066.94 -24044.5)
(17046.9 5036.29 -23801.2)
(65426.4 7334.59 -25567.2)
(-77824.1 27759.7 -27723.9)
(-19504.2 26010.1 -25994)
(18350.9 25762.9 -25751.4)
(70389.2 27072.8 -27062.5)
(-74309.3 78530.1 -28994.8)
(-20092.4 83252.1 -28380.8)
(18109.6 81721.2 -28152.2)
(66441.4 74177.5 -28387.3)
(-55564.2 30752.5 -4686.04)
(-10817 6047.32 -2715.65)
(10121.7 5953.46 -2694.48)
(49394.5 29333.8 -4601.12)
(-56316.8 5037.56 -6271.11)
(-13982.1 1305.44 -3871.92)
(13164.8 1294.73 -3842.47)
(49950.6 4897.55 -6158.64)
(-57799.9 1258.97 -6507.54)
(-14559.8 273.636 -4053.66)
(13713.8 268.586 -4022.52)
(51294.2 1206.79 -6390.63)
(-59758.2 1266.35 -6602.89)
(-14972.5 244.601 -4129.67)
(14097.9 238.777 -4098.13)
(53091.1 1212.45 -6486.46)
(-62653.2 2394.86 -6716.19)
(-15587.4 774.587 -4234.68)
(14681.6 766.509 -4203.43)
(55806 2333.57 -6604.71)
(-67142.9 6933.07 -6905.12)
(-16600.8 4445.91 -4441.71)
(15656.9 4413.4 -4411.53)
(60090.8 6810.7 -6804.72)
(-72754.1 26289.2 -7409.64)
(-18107.1 24067.6 -5061.67)
(17046.4 23818.2 -5033.61)
(65448.1 25581.6 -7328)
(-70823 74890.5 -9388.33)
(-19071.9 78162.8 -7558.1)
(17170.9 76648.2 -7531.73)
(63040.2 70574.3 -9324.41)
(-51292.3 28112.1 -1691.65)
(-10043.8 5136.23 -467.026)
(9373.52 5049.83 -462.448)
(45280.1 26743.4 -1655.66)
(-52063.7 4629.7 -2202.34)
(-13018.4 1111.1 -675.59)
(12233.7 1101.87 -669.123)
(45865.2 4496.73 -2156.17)
(-53489.5 1193.94 -2270.87)
(-13571.7 240.031 -706.36)
(12759.2 235.165 -699.608)
(47152.5 1141.95 -2223.48)
(-55408.1 1236.3 -2289.99)
(-13977.2 225.644 -715.457)
(13135.6 219.609 -708.756)
(48905.9 1179.72 -2243.61)
(-58281.9 2348.41 -2308.07)
(-14588.4 732.303 -727.806)
(13713.2 723.582 -721.41)
(51586.5 2280.58 -2265.12)
(-62775.5 6745.96 -2353.23)
(-15602.1 4239.95 -769.74)
(14683.9 4206.11 -764.051)
(55849.3 6611.3 -2317.34)
(-68499.8 25276.5 -2602.68)
(-17128.2 22893.7 -1035.68)
(16084.6 22642.7 -1031.41)
(61276.7 24553.1 -2579.47)
(-67332.1 71370.3 -4014.21)
(-18235.8 73919.3 -2633.82)
(16343.3 72414.1 -2630.86)
(59590.8 67076.3 -4004.98)
(-48693 26858.5 -863.296)
(-9587.77 4904.71 -140.658)
(8933.05 4821.89 -138.222)
(42786.9 25521.9 -840.349)
(-49436.8 4458.34 -1098.35)
(-12448.9 1066.11 -197.433)
(11684.2 1057.57 -193.998)
(43350.4 4329.74 -1068.95)
(-50829.8 1171.32 -1126.24)
(-12988.6 233.769 -204.684)
(12196.7 228.952 -201.115)
(44605.9 1119.35 -1096.08)
(-52729.1 1229.15 -1131.51)
(-13391.2 223.156 -205.866)
(12569.8 216.975 -202.35)
(46336.9 1170.81 -1102.13)
(-55590.9 2331.62 -1136.24)
(-14000.7 720.304 -207.821)
(13144.3 711.214 -204.487)
(48996.4 2259.84 -1109.01)
(-60071.5 6638.46 -1158.83)
(-15011.6 4138.03 -223.963)
(14109.3 4103.4 -221.032)
(53229.3 6496.34 -1135.83)
(-65805.1 24628.3 -1313.56)
(-16535.8 22203.5 -368.665)
(15502.6 21951.3 -366.579)
(58639.5 23893.9 -1298.26)
(-64967.5 69000.3 -2217.5)
(-17688.6 71229.5 -1327.44)
(15799.7 69727.6 -1326.49)
(57254.5 64712.2 -2212.36)
(-47130.8 26150.5 -488.729)
(-9318.76 4798.14 -68.9294)
(8673.83 4717.61 -67.4277)
(41289.7 24834.1 -474.745)
(-47858 4366.76 -616.472)
(-12114.1 1047.07 -94.9249)
(11362.2 1038.98 -92.7896)
(41840 4241 -598.417)
(-49234.6 1160.78 -630.424)
(-12646.5 231.598 -97.8944)
(11867.8 226.813 -95.6721)
(43079.5 1108.77 -611.902)
(-51124.8 1226.3 -632.377)
(-13048.1 222.507 -98.1351)
(12239.3 216.237 -95.9449)
(44798.5 1166.79 -614.385)
(-53979 2321.08 -634.826)
(-13656.6 714.206 -98.8481)
(12812 704.9 -96.7661)
(47444.2 2246.88 -618.169)
(-58443.5 6568.63 -649.876)
(-14664.3 4079.11 -107.711)
(13772 4044.02 -105.859)
(51650.5 6422.05 -635.707)
(-64156.6 24217.8 -747.673)
(-16181.2 21790.3 -191.418)
(15155 21537.3 -190.051)
(57024.6 23476.6 -738.028)
(-63462.5 67485.9 -1304.86)
(-17344.8 69570.3 -759.174)
(15458.4 68069.6 -758.568)
(55764.3 63198.8 -1301.7)
(-46235.5 25753.3 -255.788)
(-9166.47 4740.85 -35.018)
(8527.23 4661.68 -34.1996)
(40431.5 24448.8 -248.33)
(-46954.2 4316.65 -321.497)
(-11925.2 1037.14 -47.9371)
(11180.7 1029.32 -46.7646)
(40975.4 4192.58 -311.806)
(-48322.7 1155.42 -328.362)
(-12453.8 230.559 -49.3458)
(11682.7 225.797 -48.1224)
(42206.9 1103.38 -318.41)
(-50208.2 1224.75 -329.194)
(-12854.8 222.202 -49.4212)
(12053.5 215.881 -48.2143)
(43919.2 1164.54 -319.534)
(-53057.2 2314.12 -330.673)
(-13462.7 710.728 -49.7911)
(12625 701.301 -48.6418)
(46555.8 2238.52 -321.739)
(-57508.4 6525.61 -339.675)
(-14467.6 4045.46 -54.5164)
(13581.3 4010.12 -53.4872)
(50742.7 6376.48 -332.064)
(-63199.2 23973.3 -394.306)
(-15978.2 21552.1 -98.8859)
(14956 21298.6 -98.1086)
(56085.3 23228 -389.095)
(-62567.6 66580.3 -699.03)
(-17142.3 68597.8 -402.529)
(15257.2 67097.4 -402.178)
(54876.7 62292.9 -697.386)
(-45825.1 25573.2 -79.8921)
(-9097.17 4715.19 -10.8474)
(8460.52 4636.64 -10.5879)
(40038 24274 -77.5563)
(-46540.2 4294.19 -100.265)
(-11839.4 1032.75 -14.8195)
(11098.3 1025.06 -14.4461)
(40579.2 4170.91 -97.2182)
(-47905.3 1153.08 -102.354)
(-12366.3 230.113 -15.2453)
(11598.7 225.363 -14.855)
(41807.2 1101.04 -99.2224)
(-49788.8 1223.99 -102.598)
(-12767.1 222.062 -15.265)
(11969.2 215.718 -14.8798)
(43516.5 1163.46 -99.5587)
(-52635 2310.6 -103.111)
(-13374.6 709.111 -15.3854)
(12540.1 699.627 -15.0185)
(46148.5 2234.35 -100.303)
(-57078.9 6505 -106.118)
(-14378.1 4030.01 -16.8821)
(13494.5 3994.55 -16.553)
(50325.2 6354.69 -103.73)
(-62756.5 23858.5 -123.721)
(-15885 21442.2 -30.8367)
(14864.8 21188.6 -30.5862)
(55650.4 23111.3 -122.091)
(-62148.7 66154.5 -220.893)
(-17048 68145 -126.713)
(15163.5 66644.7 -126.599)
(54460.5 61866.7 -220.404)
)
;

boundaryField
{
    interface
    {
        type            calculated;
        value           nonuniform List<vector> 
192
(
(-103065 72219.4 -68108.8)
(-90369.9 10824.6 -65344.9)
(-91462.2 2580.11 -66578.6)
(-94312.6 2445.8 -68441.4)
(-98304.3 4101.59 -71012.5)
(-103847 9440.6 -74654.8)
(-108988 29039.2 -78376.1)
(-98622.3 73322.6 -73220.9)
(-99537.1 39069.3 -18249.9)
(-93004.9 6451.2 -23217)
(-94797.7 1525.72 -24036.9)
(-97966.4 1444.96 -24538.2)
(-102532 2650.64 -25216.4)
(-109316 7439.4 -26244.9)
(-116873 27759.7 -27723.9)
(-109109 78530.1 -28994.8)
(-89579.8 30752.5 -4686.04)
(-84771.7 5037.56 -6271.11)
(-86587 1258.97 -6507.54)
(-89683.8 1266.35 -6602.89)
(-94250.2 2394.86 -6716.19)
(-101213 6933.07 -6905.12)
(-109478 26289.2 -7409.64)
(-104130 74890.5 -9388.33)
(-82576.3 28112.1 -1691.65)
(-78184 4629.7 -2202.34)
(-79933.5 1193.94 -2270.87)
(-82965 1236.3 -2289.99)
(-87497 2348.41 -2308.07)
(-94467.6 6745.96 -2353.23)
(-102921 25276.5 -2602.68)
(-98815.2 71370.3 -4014.21)
(-78286.8 26858.5 -863.296)
(-74065.2 4458.34 -1098.35)
(-75776 1171.32 -1126.24)
(-78774.7 1229.15 -1131.51)
(-83286.2 2331.62 -1136.24)
(-90236.8 6638.46 -1158.83)
(-98713.7 24628.3 -1313.56)
(-95179.5 69000.3 -2217.5)
(-75698.5 26150.5 -488.729)
(-71574.4 4366.76 -616.472)
(-73266.8 1160.78 -630.424)
(-76249.6 1226.3 -632.377)
(-80747.9 2321.08 -634.826)
(-87673.3 6568.63 -649.876)
(-96124.2 24217.8 -747.673)
(-92856.2 67485.9 -1304.86)
(-74211.3 25753.3 -255.788)
(-70143.1 4316.65 -321.497)
(-71826.8 1155.42 -328.362)
(-74801.4 1224.75 -329.194)
(-79290.7 2314.12 -330.673)
(-86195.1 6525.61 -339.675)
(-94614.4 23973.3 -394.306)
(-91471.1 66580.3 -699.03)
(-73528.7 25573.2 -79.8921)
(-69486 4294.19 -100.265)
(-71166.2 1153.08 -102.354)
(-74137.2 1223.99 -102.598)
(-78621.8 2310.6 -103.111)
(-85514.4 6505 -106.118)
(-93914.7 23858.5 -123.721)
(-90821.6 66154.5 -220.893)
(-64643.6 72219.4 -106808)
(-61520.1 10824.6 -93799.5)
(-62632.8 2580.11 -95000.3)
(-64468.7 2445.8 -97883.7)
(-67038.8 4101.59 -101867)
(-70660.6 9440.6 -107409)
(-74239.4 29039.2 -112591)
(-68683.4 73322.6 -101982)
(-13329.2 42773 -106661)
(-16608.5 7034.19 -99265.1)
(-17189.4 1602.85 -101117)
(-17608.2 1460.91 -104299)
(-18188.2 2677 -108813)
(-19044.5 7582.04 -115495)
(-20079.6 28404 -122806)
(-19914.6 79597.9 -113809)
(11947.1 42281.7 -104408)
(14926.5 6964.41 -96993.8)
(15436.6 1580.36 -98757.7)
(15809.7 1446.98 -101874)
(16354.8 2665.28 -106337)
(17179.6 7549.22 -112969)
(18115 28169.2 -120223)
(17177.3 78144.7 -111340)
(57888.3 69646.7 -100145)
(54437.2 10523.6 -87261.8)
(55404 2486.05 -88248.5)
(57089.4 2379.08 -90952.6)
(59517.4 4046.9 -94792.7)
(63007.3 9342.25 -100190)
(66429.1 28401.6 -105217)
(60478.3 69227.4 -94990.1)
(91446.5 69646.7 -64328.7)
(78474.6 10523.6 -61517.9)
(79359.6 2486.05 -62618)
(81967.7 2379.08 -64379.6)
(85722.1 4046.9 -66875.5)
(91040.2 9342.25 -70446.4)
(95959.5 28401.6 -74095.4)
(85517.2 69227.4 -69175.2)
(88064.4 37503.2 -17738.2)
(81329.5 6286.23 -22574.6)
(82896.8 1469.76 -23364.3)
(85799.2 1393.8 -23853.9)
(90085.8 2598.85 -24531)
(96577.9 7334.59 -25567.2)
(103843 27072.8 -27062.5)
(95988.2 74177.5 -28387.3)
(78460.1 29333.8 -4601.12)
(73469.4 4897.55 -6158.64)
(75053.9 1206.79 -6390.63)
(77874.1 1212.45 -6486.46)
(82130.1 2333.57 -6604.71)
(88739.3 6810.7 -6804.72)
(96619.8 25581.6 -7328)
(91111.3 70574.3 -9324.41)
(71733.8 26743.4 -1655.66)
(67169.4 4496.73 -2156.17)
(68689 1141.95 -2223.48)
(71437.4 1179.72 -2243.61)
(75636.7 2280.58 -2265.12)
(82210.1 6611.3 -2317.34)
(90206.7 24553.1 -2579.47)
(85872.5 67076.3 -4004.98)
(67631.4 25521.9 -840.349)
(63243.1 4329.74 -1068.95)
(64725.1 1119.35 -1096.08)
(67435.4 1170.81 -1102.13)
(71598.3 2259.84 -1109.01)
(78122.8 6496.34 -1135.83)
(86098.8 23893.9 -1298.26)
(82288 64712.2 -2212.36)
(65157.4 24834.1 -474.745)
(60869 4241 -598.417)
(62332.9 1108.77 -611.902)
(65022.2 1166.79 -614.385)
(69161.1 2246.88 -618.169)
(75642.2 6422.05 -635.707)
(83565.8 23476.6 -738.028)
(79991 63198.8 -1301.7)
(63735.3 24448.8 -248.33)
(59504.4 4192.58 -311.806)
(60959.5 1103.38 -318.41)
(63636.8 1164.54 -319.534)
(67760 2238.52 -321.739)
(74209.4 6376.48 -332.064)
(82086.3 23228 -389.095)
(78618.7 62292.9 -697.386)
(63082.1 24274 -77.5563)
(58877.5 4170.91 -97.2182)
(60328.9 1101.04 -99.2224)
(63000.7 1163.46 -99.5587)
(67115.9 2234.35 -100.303)
(73548.6 6354.69 -103.73)
(81399.6 23111.3 -122.091)
(77973.9 61866.7 -220.404)
(-68683.4 102139 -73220.9)
(-74309.3 112853 -28994.8)
(-70823 107817 -9388.33)
(-67332.1 102491 -4014.21)
(-64967.5 98859.7 -2217.5)
(-63462.5 96530 -1304.86)
(-62567.6 95134 -699.03)
(-62148.7 94476.7 -220.893)
(-19914.6 113944 -79517)
(-20092.4 123032 -28380.8)
(-19071.9 115847 -7558.1)
(-18235.8 109359 -2633.82)
(-17688.6 105177 -1327.44)
(-17344.8 102579 -759.174)
(-17142.3 101049 -402.529)
(-17048 100335 -126.713)
(17177.3 111453 -78077.8)
(18109.6 120412 -28152.2)
(17170.9 113262 -7531.73)
(16343.3 106794 -2630.86)
(15799.7 102620 -1326.49)
(15458.4 100025 -758.568)
(15257.2 98496.3 -402.178)
(15163.5 97783 -126.599)
(60478.3 95078.2 -69175.2)
(66441.4 105365 -28387.3)
(63040.2 100422 -9324.41)
(59590.8 95155.6 -4004.98)
(57254.5 91548.3 -2212.36)
(55764.3 89228.9 -1301.7)
(54876.7 87837.1 -697.386)
(54460.5 87181.3 -220.404)
)
;
    }
    symmetry
    {
        type            symmetry;
    }
    bottom
    {
        type            calculated;
        value           nonuniform List<vector> 
32
(
(-64643.6 125953 -68108.8)
(-61743.1 67132.5 -18249.9)
(-55564.2 52953.1 -4686.04)
(-51292.3 48388.4 -1691.65)
(-48693 46186.5 -863.296)
(-47130.8 44935.2 -488.729)
(-46235.5 44231.6 -255.788)
(-45825.1 43912.1 -79.8921)
(-13329.2 73507.4 -66898.9)
(-12035.4 19234.3 -15912.8)
(-10817 9856.17 -2715.65)
(-10043.8 8371.66 -467.026)
(-9587.77 7988.07 -140.658)
(-9318.76 7809.03 -68.9294)
(-9166.47 7712.35 -35.018)
(-9097.17 7668.96 -10.8474)
(11947.1 72635.8 -65615.1)
(11259 18991 -15737.7)
(10121.7 9685.23 -2694.48)
(9373.52 8213.06 -462.448)
(8933.05 7835.44 -138.222)
(8673.83 7660.18 -67.4277)
(8527.23 7565.73 -34.1996)
(8460.52 7523.38 -10.5879)
(57888.3 121296 -64328.7)
(55352 64270.2 -17738.2)
(49394.5 50342.9 -4601.12)
(45280.1 45865.8 -1655.66)
(42786.9 43720.2 -840.349)
(41289.7 42504.4 -474.745)
(40431.5 41821.3 -248.33)
(40038 41511 -77.5563)
)
;
    }
}


// ************************************************************************* //
