/*--------------------------------*- C++ -*----------------------------------*\
| =========                 |                                                 |
| \\      /  F ield         | OpenFOAM: The Open Source CFD Toolbox           |
|  \\    /   O peration     | Version:  v1912                                 |
|   \\  /    A nd           | Website:  www.openfoam.com                      |
|    \\/     M anipulation  |                                                 |
\*---------------------------------------------------------------------------*/
FoamFile
{
    version     2.0;
    format      ascii;
    class       pointVectorField;
    location    "0.79/solid";
    object      pointDD;
}
// * * * * * * * * * * * * * * * * * * * * * * * * * * * * * * * * * * * * * //

dimensions      [0 1 0 0 0 0 0];


internalField   nonuniform List<vector> 
405
(
(1.58226e-10 2.72725e-10 1.73185e-10)
(6.62809e-11 2.00129e-10 1.34008e-10)
(-5.71045e-12 1.75649e-10 1.23929e-10)
(-7.25406e-11 1.87704e-10 1.16753e-10)
(-1.37669e-10 2.53494e-10 1.46821e-10)
(3.31951e-10 3.55018e-10 4.33483e-10)
(1.92608e-10 3.5583e-10 4.42954e-10)
(-1.82409e-11 3.11105e-10 4.18503e-10)
(-2.16597e-10 3.3862e-10 4.01533e-10)
(-3.08674e-10 3.38177e-10 3.80978e-10)
(4.48206e-10 1.95421e-10 7.34795e-10)
(2.64341e-10 2.18727e-10 7.43934e-10)
(-3.1754e-11 1.8974e-10 7.10794e-10)
(-3.13e-10 2.1672e-10 6.90727e-10)
(-4.44081e-10 2.02315e-10 6.61035e-10)
(4.65791e-10 -1.41759e-11 9.70564e-10)
(2.68874e-10 2.63742e-11 9.75516e-10)
(-4.66469e-11 1.49987e-11 9.33393e-10)
(-3.47044e-10 3.83029e-11 9.13764e-10)
(-4.88276e-10 1.45463e-11 8.82416e-10)
(4.59086e-10 -2.22048e-10 1.18351e-09)
(2.55204e-10 -1.79842e-10 1.18214e-09)
(-6.4938e-11 -1.84183e-10 1.13087e-09)
(-3.69724e-10 -1.5583e-10 1.11359e-09)
(-5.15396e-10 -1.73864e-10 1.08411e-09)
(4.72972e-10 -4.48685e-10 1.3995e-09)
(2.55886e-10 -4.14273e-10 1.38958e-09)
(-8.72404e-11 -4.16883e-10 1.32995e-09)
(-4.14674e-10 -3.7894e-10 1.315e-09)
(-5.71048e-10 -3.81769e-10 1.29009e-09)
(5.36716e-10 -7.6029e-10 1.62907e-09)
(2.90826e-10 -7.31756e-10 1.61308e-09)
(-1.1417e-10 -7.25967e-10 1.54995e-09)
(-5.02764e-10 -6.84269e-10 1.5327e-09)
(-6.84799e-10 -6.73246e-10 1.51006e-09)
(6.35919e-10 -1.2199e-09 1.83893e-09)
(3.48465e-10 -1.18927e-09 1.8292e-09)
(-1.46513e-10 -1.16311e-09 1.77412e-09)
(-6.23327e-10 -1.12443e-09 1.74326e-09)
(-8.41998e-10 -1.10533e-09 1.71111e-09)
(6.78617e-10 -1.51e-09 1.93865e-09)
(3.77142e-10 -1.48897e-09 1.93275e-09)
(-1.6523e-10 -1.44354e-09 1.89178e-09)
(-6.88312e-10 -1.40236e-09 1.85471e-09)
(-9.34734e-10 -1.3735e-09 1.81698e-09)
(1.03686e-10 1.39635e-10 8.01625e-11)
(0 0 0)
(0 0 0)
(0 0 0)
(-7.12073e-11 1.30478e-10 7.0247e-11)
(2.88344e-10 2.13047e-10 2.98909e-10)
(0 0 0)
(0 0 0)
(0 0 0)
(-2.26624e-10 2.06275e-10 2.66116e-10)
(3.87672e-10 4.47287e-11 5.54573e-10)
(0 0 0)
(0 0 0)
(0 0 0)
(-3.37406e-10 6.0941e-11 5.00269e-10)
(4.0198e-10 -1.56039e-10 7.75109e-10)
(0 0 0)
(0 0 0)
(0 0 0)
(-3.72179e-10 -1.17922e-10 7.05879e-10)
(3.9547e-10 -3.51624e-10 9.78768e-10)
(0 0 0)
(0 0 0)
(0 0 0)
(-3.94293e-10 -2.92904e-10 8.97718e-10)
(4.09747e-10 -5.58005e-10 1.18331e-09)
(0 0 0)
(0 0 0)
(0 0 0)
(-4.45596e-10 -4.78866e-10 1.09174e-09)
(4.78231e-10 -8.31364e-10 1.39247e-09)
(0 0 0)
(0 0 0)
(0 0 0)
(-5.59198e-10 -7.30526e-10 1.29104e-09)
(5.93743e-10 -1.23935e-09 1.57036e-09)
(0 0 0)
(0 0 0)
(0 0 0)
(-7.26819e-10 -1.11044e-09 1.46066e-09)
(6.3195e-10 -1.50689e-09 1.66029e-09)
(3.43031e-10 -1.49388e-09 1.66949e-09)
(-1.51685e-10 -1.43386e-09 1.6476e-09)
(-6.28329e-10 -1.39828e-09 1.61258e-09)
(-8.45921e-10 -1.36207e-09 1.56101e-09)
(6.06153e-11 6.69071e-11 2.85148e-11)
(0 0 0)
(0 0 0)
(0 0 0)
(-2.72172e-11 5.75226e-11 2.34778e-11)
(1.77266e-10 5.87486e-11 1.47203e-10)
(0 0 0)
(0 0 0)
(0 0 0)
(-1.09386e-10 5.09287e-11 1.28144e-10)
(2.44629e-10 -1.10782e-10 3.36484e-10)
(0 0 0)
(0 0 0)
(0 0 0)
(-1.80246e-10 -9.68992e-11 3.01362e-10)
(2.50176e-10 -2.95407e-10 5.3055e-10)
(0 0 0)
(0 0 0)
(0 0 0)
(-1.9958e-10 -2.60661e-10 4.82652e-10)
(2.41506e-10 -4.7161e-10 7.1588e-10)
(0 0 0)
(0 0 0)
(0 0 0)
(-2.13826e-10 -4.16792e-10 6.57321e-10)
(2.57062e-10 -6.4731e-10 8.92389e-10)
(0 0 0)
(0 0 0)
(0 0 0)
(-2.613e-10 -5.7249e-10 8.24334e-10)
(3.34703e-10 -8.66737e-10 1.05174e-09)
(0 0 0)
(0 0 0)
(0 0 0)
(-3.79262e-10 -7.71014e-10 9.75253e-10)
(4.72598e-10 -1.20528e-09 1.16091e-09)
(0 0 0)
(0 0 0)
(0 0 0)
(-5.64351e-10 -1.08294e-09 1.0784e-09)
(5.26556e-10 -1.4413e-09 1.2005e-09)
(2.78558e-10 -1.42221e-09 1.21243e-09)
(-1.25685e-10 -1.35342e-09 1.21063e-09)
(-5.13269e-10 -1.33064e-09 1.17198e-09)
(-6.93999e-10 -1.30313e-09 1.12784e-09)
(3.20747e-11 3.08453e-11 1.65629e-11)
(0 0 0)
(0 0 0)
(0 0 0)
(2.04205e-12 1.96037e-11 1.32245e-11)
(1.01881e-10 -1.78208e-11 9.86972e-11)
(0 0 0)
(0 0 0)
(0 0 0)
(-2.96903e-11 -3.01098e-11 8.58962e-11)
(1.46941e-10 -1.90765e-10 2.45628e-10)
(0 0 0)
(0 0 0)
(0 0 0)
(-7.24626e-11 -1.82496e-10 2.21304e-10)
(1.49253e-10 -3.69236e-10 4.09683e-10)
(0 0 0)
(0 0 0)
(0 0 0)
(-8.29294e-11 -3.40669e-10 3.75202e-10)
(1.43297e-10 -5.29287e-10 5.69955e-10)
(0 0 0)
(0 0 0)
(0 0 0)
(-9.46905e-11 -4.8091e-10 5.26425e-10)
(1.63852e-10 -6.75491e-10 7.1475e-10)
(0 0 0)
(0 0 0)
(0 0 0)
(-1.42406e-10 -6.07318e-10 6.63072e-10)
(2.49024e-10 -8.51404e-10 8.28459e-10)
(0 0 0)
(0 0 0)
(0 0 0)
(-2.63512e-10 -7.62657e-10 7.69824e-10)
(3.96281e-10 -1.1409e-09 8.85621e-10)
(0 0 0)
(0 0 0)
(0 0 0)
(-4.53905e-10 -1.02593e-09 8.2247e-10)
(4.54188e-10 -1.35779e-09 8.90367e-10)
(2.34501e-10 -1.34491e-09 8.97269e-10)
(-1.05681e-10 -1.27846e-09 9.02559e-10)
(-4.29493e-10 -1.25714e-09 8.67031e-10)
(-5.83877e-10 -1.22622e-09 8.35383e-10)
(1.90415e-11 1.56997e-11 1.65437e-11)
(0 0 0)
(0 0 0)
(0 0 0)
(1.56596e-11 2.88236e-12 1.42007e-11)
(6.78255e-11 -4.83297e-11 8.56267e-11)
(0 0 0)
(0 0 0)
(0 0 0)
(7.37944e-12 -6.47632e-11 7.67493e-11)
(1.04147e-10 -2.20839e-10 2.02425e-10)
(0 0 0)
(0 0 0)
(0 0 0)
(-2.27143e-11 -2.18202e-10 1.85472e-10)
(1.07887e-10 -3.9522e-10 3.33198e-10)
(0 0 0)
(0 0 0)
(0 0 0)
(-3.03546e-11 -3.72978e-10 3.08693e-10)
(1.07043e-10 -5.43958e-10 4.61228e-10)
(0 0 0)
(0 0 0)
(0 0 0)
(-4.29862e-11 -5.02164e-10 4.29617e-10)
(1.33395e-10 -6.7074e-10 5.72283e-10)
(0 0 0)
(0 0 0)
(0 0 0)
(-9.24755e-11 -6.09212e-10 5.34143e-10)
(2.23199e-10 -8.22136e-10 6.50709e-10)
(0 0 0)
(0 0 0)
(0 0 0)
(-2.14479e-10 -7.39995e-10 6.07054e-10)
(3.71955e-10 -1.08661e-09 6.80482e-10)
(0 0 0)
(0 0 0)
(0 0 0)
(-4.02974e-10 -9.78063e-10 6.33361e-10)
(4.28908e-10 -1.29453e-09 6.71609e-10)
(2.22002e-10 -1.29e-09 6.70174e-10)
(-9.05988e-11 -1.22959e-09 6.72934e-10)
(-3.86726e-10 -1.20534e-09 6.4779e-10)
(-5.29305e-10 -1.16842e-09 6.30709e-10)
(1.41362e-11 1.05009e-11 1.52636e-11)
(0 0 0)
(0 0 0)
(0 0 0)
(2.09566e-11 -3.38462e-12 1.36755e-11)
(5.5623e-11 -5.71221e-11 7.1172e-11)
(0 0 0)
(0 0 0)
(0 0 0)
(2.1526e-11 -7.65678e-11 6.51975e-11)
(9.04429e-11 -2.2623e-10 1.59329e-10)
(0 0 0)
(0 0 0)
(0 0 0)
(-4.47581e-12 -2.28012e-10 1.47905e-10)
(9.74144e-11 -3.96018e-10 2.55755e-10)
(0 0 0)
(0 0 0)
(0 0 0)
(-1.23583e-11 -3.78971e-10 2.39066e-10)
(1.01531e-10 -5.37324e-10 3.49231e-10)
(0 0 0)
(0 0 0)
(0 0 0)
(-2.67938e-11 -5.01039e-10 3.27399e-10)
(1.32513e-10 -6.53933e-10 4.28022e-10)
(0 0 0)
(0 0 0)
(0 0 0)
(-7.77768e-11 -5.97944e-10 4.01356e-10)
(2.24703e-10 -7.94585e-10 4.80201e-10)
(0 0 0)
(0 0 0)
(0 0 0)
(-1.99198e-10 -7.17814e-10 4.49434e-10)
(3.72349e-10 -1.04826e-09 4.96764e-10)
(0 0 0)
(0 0 0)
(0 0 0)
(-3.8388e-10 -9.44751e-10 4.63427e-10)
(4.27988e-10 -1.25158e-09 4.86106e-10)
(2.25838e-10 -1.2525e-09 4.80019e-10)
(-7.9598e-11 -1.19713e-09 4.79277e-10)
(-3.68416e-10 -1.17018e-09 4.64218e-10)
(-5.06859e-10 -1.12964e-09 4.57175e-10)
(1.25748e-11 9.12523e-12 1.14061e-11)
(0 0 0)
(0 0 0)
(0 0 0)
(2.27592e-11 -5.4271e-12 1.04263e-11)
(5.22251e-11 -5.78474e-11 5.05166e-11)
(0 0 0)
(0 0 0)
(0 0 0)
(2.61189e-11 -7.92522e-11 4.68381e-11)
(8.79573e-11 -2.2272e-10 1.09439e-10)
(0 0 0)
(0 0 0)
(0 0 0)
(8.20944e-13 -2.27519e-10 1.02394e-10)
(9.79353e-11 -3.88067e-10 1.72401e-10)
(0 0 0)
(0 0 0)
(0 0 0)
(-8.12313e-12 -3.74701e-10 1.62043e-10)
(1.05708e-10 -5.24712e-10 2.32689e-10)
(0 0 0)
(0 0 0)
(0 0 0)
(-2.40584e-11 -4.92412e-10 2.19018e-10)
(1.39748e-10 -6.36777e-10 2.82587e-10)
(0 0 0)
(0 0 0)
(0 0 0)
(-7.5885e-11 -5.84812e-10 2.65749e-10)
(2.33105e-10 -7.73697e-10 3.14582e-10)
(0 0 0)
(0 0 0)
(0 0 0)
(-1.96343e-10 -7.00794e-10 2.95031e-10)
(3.79373e-10 -1.02308e-09 3.23904e-10)
(0 0 0)
(0 0 0)
(0 0 0)
(-3.77697e-10 -9.23151e-10 3.02643e-10)
(4.33876e-10 -1.224e-09 3.15932e-10)
(2.3314e-10 -1.22793e-09 3.09785e-10)
(-7.21269e-11 -1.17569e-09 3.07789e-10)
(-3.60666e-10 -1.14722e-09 2.9971e-10)
(-4.98104e-10 -1.10499e-09 2.97471e-10)
(1.21523e-11 8.91957e-12 6.01925e-12)
(0 0 0)
(0 0 0)
(0 0 0)
(2.33138e-11 -5.99712e-12 5.55274e-12)
(5.15536e-11 -5.67078e-11 2.60401e-11)
(0 0 0)
(0 0 0)
(0 0 0)
(2.74382e-11 -7.92065e-11 2.42888e-11)
(8.82865e-11 -2.18342e-10 5.548e-11)
(0 0 0)
(0 0 0)
(0 0 0)
(2.01547e-12 -2.24871e-10 5.21206e-11)
(1.00179e-10 -3.80554e-10 8.64597e-11)
(0 0 0)
(0 0 0)
(0 0 0)
(-7.74974e-12 -3.69347e-10 8.1503e-11)
(1.10075e-10 -5.14617e-10 1.15858e-10)
(0 0 0)
(0 0 0)
(0 0 0)
(-2.45534e-11 -4.8469e-10 1.09284e-10)
(1.45794e-10 -6.24913e-10 1.39952e-10)
(0 0 0)
(0 0 0)
(0 0 0)
(-7.67472e-11 -5.75359e-10 1.31815e-10)
(2.39695e-10 -7.60848e-10 1.55192e-10)
(0 0 0)
(0 0 0)
(0 0 0)
(-1.96473e-10 -6.90261e-10 1.45707e-10)
(3.85051e-10 -1.00866e-09 1.59488e-10)
(0 0 0)
(0 0 0)
(0 0 0)
(-3.75742e-10 -9.10854e-10 1.49148e-10)
(4.38785e-10 -1.20846e-09 1.55408e-10)
(2.38376e-10 -1.21383e-09 1.51851e-10)
(-6.78024e-11 -1.16317e-09 1.5045e-10)
(-3.57185e-10 -1.13407e-09 1.46951e-10)
(-4.94528e-10 -1.09116e-09 1.46426e-10)
(1.81595e-11 3.33121e-12 0)
(8.38814e-12 -1.10936e-11 0)
(4.74261e-13 -1.88887e-11 0)
(-3.28979e-12 -1.58178e-11 0)
(1.16782e-11 -1.21479e-11 0)
(5.14541e-11 -6.6127e-11 0)
(2.98294e-11 -9.09808e-11 0)
(3.96509e-12 -1.06891e-10 0)
(-1.2171e-11 -9.85182e-11 0)
(1.83654e-12 -8.40293e-11 0)
(8.43088e-11 -2.21206e-10 0)
(4.78259e-11 -2.38401e-10 0)
(8.82304e-12 -2.51027e-10 0)
(-1.92111e-11 -2.40242e-10 0)
(-1.9126e-11 -2.26525e-10 0)
(9.48204e-11 -3.7959e-10 0)
(5.2799e-11 -3.90747e-10 0)
(1.01492e-11 -3.982e-10 0)
(-2.18628e-11 -3.84414e-10 0)
(-2.74012e-11 -3.69785e-10 0)
(1.03573e-10 -5.15803e-10 0)
(5.5501e-11 -5.31866e-10 0)
(6.48984e-12 -5.39028e-10 0)
(-3.19884e-11 -5.16447e-10 0)
(-4.31664e-11 -4.89807e-10 0)
(1.37867e-10 -6.35442e-10 0)
(7.40659e-11 -6.66206e-10 0)
(-2.58277e-12 -6.75889e-10 0)
(-6.8438e-11 -6.41163e-10 0)
(-9.42931e-11 -5.92401e-10 0)
(2.27544e-10 -7.82791e-10 0)
(1.2669e-10 -8.23385e-10 0)
(-1.75366e-11 -8.2872e-10 0)
(-1.50047e-10 -7.87815e-10 0)
(-2.107e-10 -7.21296e-10 0)
(3.62525e-10 -1.02912e-09 0)
(2.0313e-10 -1.05078e-09 0)
(-3.90906e-11 -1.03475e-09 0)
(-2.67294e-10 -1.00066e-09 0)
(-3.81696e-10 -9.42961e-10 0)
(4.28352e-10 -1.20397e-09 0)
(2.41502e-10 -1.19857e-09 0)
(-5.90036e-11 -1.15758e-09 0)
(-3.43291e-10 -1.12932e-09 0)
(-4.87663e-10 -1.09654e-09 0)
)
;

boundaryField
{
    interface
    {
        type            calculated;
    }
    symmetry
    {
        type            symmetry;
    }
    bottom
    {
        type            calculated;
    }
}


// ************************************************************************* //
