/*--------------------------------*- C++ -*----------------------------------*\
| =========                 |                                                 |
| \\      /  F ield         | OpenFOAM: The Open Source CFD Toolbox           |
|  \\    /   O peration     | Version:  v1912                                 |
|   \\  /    A nd           | Website:  www.openfoam.com                      |
|    \\/     M anipulation  |                                                 |
\*---------------------------------------------------------------------------*/
FoamFile
{
    version     2.0;
    format      ascii;
    class       volScalarField;
    location    "0.79/solid";
    object      T;
}
// * * * * * * * * * * * * * * * * * * * * * * * * * * * * * * * * * * * * * //

dimensions      [0 0 0 1 0 0 0];


internalField   nonuniform List<scalar> 
256
(
291.426
292.081
292.092
291.484
290.963
291.78
291.794
291.034
290.884
291.729
291.744
290.958
290.834
291.7
291.715
290.91
290.762
291.656
291.671
290.839
290.629
291.566
291.582
290.707
290.29
291.277
291.294
290.372
289.177
290.146
290.173
289.287
292.161
292.76
292.763
292.197
291.886
292.654
292.658
291.928
291.838
292.637
292.641
291.882
291.809
292.629
292.634
291.855
291.766
292.617
292.621
291.813
291.677
292.577
292.582
291.725
291.394
292.363
292.369
291.446
290.289
291.277
291.294
290.371
292.338
292.877
292.879
292.371
292.124
292.821
292.823
292.163
292.086
292.812
292.814
292.126
292.061
292.807
292.81
292.102
292.023
292.799
292.802
292.065
291.942
292.768
292.772
291.986
291.676
292.577
292.582
291.725
290.627
291.565
291.581
290.707
292.395
292.895
292.897
292.427
292.199
292.848
292.85
292.236
292.164
292.84
292.842
292.202
292.14
292.836
292.838
292.179
292.102
292.829
292.831
292.143
292.022
292.799
292.802
292.065
291.765
292.617
292.621
291.812
290.758
291.655
291.67
290.837
292.423
292.9
292.902
292.453
292.234
292.855
292.857
292.27
292.2
292.847
292.849
292.237
292.176
292.843
292.845
292.214
292.138
292.836
292.838
292.178
292.059
292.807
292.81
292.101
291.806
292.629
292.633
291.854
290.828
291.697
291.712
290.907
292.438
292.902
292.904
292.469
292.254
292.858
292.86
292.29
292.22
292.85
292.852
292.257
292.196
292.846
292.849
292.234
292.159
292.839
292.841
292.198
292.08
292.81
292.813
292.122
291.83
292.635
292.639
291.877
290.869
291.721
291.736
290.948
292.447
292.904
292.905
292.477
292.265
292.859
292.861
292.3
292.231
292.852
292.854
292.268
292.207
292.848
292.85
292.245
292.17
292.841
292.843
292.209
292.092
292.812
292.815
292.133
291.844
292.638
292.643
291.891
290.893
291.735
291.75
290.972
292.451
292.904
292.906
292.481
292.27
292.86
292.862
292.305
292.236
292.853
292.855
292.273
292.213
292.849
292.851
292.25
292.175
292.841
292.844
292.214
292.097
292.813
292.816
292.138
291.85
292.64
292.644
291.897
290.904
291.741
291.757
290.983
)
;

boundaryField
{
    interface
    {
        type            fixedValue;
        value           nonuniform List<scalar> 
192
(
290.136
289.83
289.736
289.65
289.527
289.324
288.919
287.937
290.915
290.719
290.648
290.579
290.479
290.304
289.925
288.917
291.217
291.062
291
290.936
290.841
290.672
290.301
289.318
291.362
291.22
291.161
291.099
291.004
290.837
290.472
289.517
291.443
291.306
291.25
291.188
291.094
290.927
290.567
289.632
291.491
291.357
291.301
291.24
291.146
290.98
290.623
289.702
291.519
291.386
291.331
291.27
291.176
291.01
290.656
289.744
291.531
291.4
291.344
291.283
291.189
291.024
290.671
289.763
290.09
289.788
289.692
289.606
289.483
289.281
288.875
287.896
290.748
290.536
290.461
290.392
290.291
290.117
289.735
288.716
290.787
290.579
290.506
290.437
290.338
290.164
289.785
288.775
290.234
289.942
289.852
289.77
289.65
289.451
289.051
288.096
290.343
290.052
289.963
289.882
289.764
289.566
289.167
288.215
291.097
290.91
290.844
290.78
290.684
290.514
290.143
289.166
291.391
291.244
291.187
291.128
291.037
290.874
290.513
289.564
291.532
291.397
291.343
291.285
291.196
291.036
290.682
289.761
291.61
291.48
291.428
291.371
291.283
291.123
290.775
289.875
291.656
291.529
291.477
291.421
291.333
291.175
290.83
289.945
291.682
291.557
291.505
291.449
291.362
291.204
290.862
289.986
291.694
291.569
291.518
291.462
291.375
291.218
290.877
290.006
287.894
288.871
289.273
289.472
289.587
289.657
289.699
289.718
288.715
289.732
290.111
290.282
290.377
290.434
290.467
290.482
288.774
289.782
290.16
290.331
290.425
290.482
290.515
290.53
288.095
289.049
289.447
289.645
289.759
289.83
289.871
289.89
)
;
    }
    symmetry
    {
        type            symmetry;
    }
    bottom
    {
        type            fixedValue;
        value           uniform 293;
    }
}


// ************************************************************************* //
