/*--------------------------------*- C++ -*----------------------------------*\
| =========                 |                                                 |
| \\      /  F ield         | OpenFOAM: The Open Source CFD Toolbox           |
|  \\    /   O peration     | Version:  v1912                                 |
|   \\  /    A nd           | Website:  www.openfoam.com                      |
|    \\/     M anipulation  |                                                 |
\*---------------------------------------------------------------------------*/
FoamFile
{
    version     2.0;
    format      ascii;
    class       volVectorField;
    location    "0.08/solid";
    object      D;
}
// * * * * * * * * * * * * * * * * * * * * * * * * * * * * * * * * * * * * * //

dimensions      [0 1 0 0 0 0 0];


internalField   nonuniform List<vector> 
256
(
(-4.73883e-09 1.15883e-08 -8.14725e-09)
(-2.88725e-09 9.40835e-09 -3.09548e-09)
(3.15765e-09 9.40409e-09 -3.08767e-09)
(4.62204e-09 1.16777e-08 -8.09678e-09)
(-7.61115e-09 1.73588e-08 -2.19336e-08)
(-4.08088e-09 1.65612e-08 -1.57909e-08)
(4.66929e-09 1.6513e-08 -1.57575e-08)
(7.68095e-09 1.72006e-08 -2.17987e-08)
(-7.14144e-09 2.62716e-08 -3.42938e-08)
(-3.85552e-09 2.58574e-08 -2.86573e-08)
(4.82699e-09 2.57436e-08 -2.85868e-08)
(7.60293e-09 2.58804e-08 -3.40431e-08)
(-5.80355e-09 3.75015e-08 -4.61498e-08)
(-3.24596e-09 3.76471e-08 -4.0493e-08)
(4.72615e-09 3.74604e-08 -4.03776e-08)
(6.7894e-09 3.68923e-08 -4.5761e-08)
(-5.11776e-09 5.05029e-08 -5.82439e-08)
(-2.90439e-09 5.18706e-08 -5.20907e-08)
(5.0128e-09 5.16064e-08 -5.19259e-08)
(6.7457e-09 4.96737e-08 -5.77044e-08)
(-7.32971e-09 6.57602e-08 -7.17006e-08)
(-3.8411e-09 6.8554e-08 -6.48726e-08)
(6.69101e-09 6.82035e-08 -6.46555e-08)
(9.70257e-09 6.46938e-08 -7.10035e-08)
(-1.57828e-08 8.52563e-08 -8.79136e-08)
(-6.99763e-09 8.68118e-08 -8.06654e-08)
(1.07117e-08 8.63739e-08 -8.03917e-08)
(1.89591e-08 8.39428e-08 -8.7056e-08)
(-2.99642e-08 1.01819e-07 -1.04914e-07)
(-1.03457e-08 9.48637e-08 -9.81036e-08)
(1.50435e-08 9.4404e-08 -9.77713e-08)
(3.3937e-08 1.00426e-07 -1.0391e-07)
(4.84401e-09 1.24534e-08 -8.26251e-09)
(-8.44885e-10 7.94275e-09 -9.16299e-09)
(1.0021e-09 7.94322e-09 -9.12303e-09)
(-4.91046e-09 1.25424e-08 -8.14811e-09)
(6.80137e-09 2.26551e-08 -2.1355e-08)
(-4.58511e-10 2.06065e-08 -2.32524e-08)
(8.37712e-10 2.05509e-08 -2.31668e-08)
(-6.71346e-09 2.24845e-08 -2.11152e-08)
(7.50294e-09 3.3264e-08 -3.35298e-08)
(-4.45466e-11 3.25584e-08 -3.58657e-08)
(7.33522e-10 3.24331e-08 -3.57431e-08)
(-7.09493e-09 3.28594e-08 -3.31819e-08)
(8.47383e-09 4.50644e-08 -4.5373e-08)
(4.15244e-10 4.51906e-08 -4.77094e-08)
(7.03425e-10 4.49925e-08 -4.75472e-08)
(-7.62179e-09 4.44448e-08 -4.4907e-08)
(9.02202e-09 5.7994e-08 -5.7381e-08)
(6.3834e-10 5.93605e-08 -5.94978e-08)
(1.02367e-09 5.90875e-08 -5.92916e-08)
(-7.61236e-09 5.71627e-08 -5.67842e-08)
(6.91219e-09 7.19944e-08 -6.99802e-08)
(-3.43702e-10 7.48038e-08 -7.18377e-08)
(2.65965e-09 7.44509e-08 -7.15848e-08)
(-4.84655e-09 7.09434e-08 -6.92442e-08)
(-1.357e-09 8.68204e-08 -8.21154e-08)
(-3.5066e-09 8.83655e-08 -8.38202e-08)
(6.60044e-09 8.79413e-08 -8.35244e-08)
(4.12945e-09 8.55605e-08 -8.12488e-08)
(-1.56288e-08 9.25803e-08 -8.83254e-08)
(-6.85096e-09 8.51841e-08 -9.00395e-08)
(1.08498e-08 8.47778e-08 -8.97253e-08)
(1.90885e-08 9.13208e-08 -8.73944e-08)
(9.60061e-09 1.28364e-08 -5.61189e-09)
(9.36352e-10 7.28885e-09 -7.31724e-09)
(-8.31176e-10 7.29298e-09 -7.29076e-09)
(-9.67676e-09 1.29404e-08 -5.54342e-09)
(1.54492e-08 2.4762e-08 -1.68368e-08)
(2.88401e-09 2.17868e-08 -1.98783e-08)
(-2.63464e-09 2.17373e-08 -1.98134e-08)
(-1.5418e-08 2.46201e-08 -1.66634e-08)
(1.67589e-08 3.65075e-08 -2.78952e-08)
(3.57626e-09 3.54852e-08 -3.13013e-08)
(-3.08393e-09 3.53691e-08 -3.12043e-08)
(-1.64701e-08 3.61443e-08 -2.76283e-08)
(1.7435e-08 4.85266e-08 -3.87981e-08)
(3.91532e-09 4.86839e-08 -4.21891e-08)
(-3.06054e-09 4.84989e-08 -4.20588e-08)
(-1.67703e-08 4.79602e-08 -3.84329e-08)
(1.76951e-08 6.053e-08 -4.95464e-08)
(4.01573e-09 6.20248e-08 -5.27977e-08)
(-2.68798e-09 6.17701e-08 -5.26309e-08)
(-1.65443e-08 5.97661e-08 -4.90737e-08)
(1.54209e-08 7.20077e-08 -5.96557e-08)
(2.97963e-09 7.49436e-08 -6.27527e-08)
(-1.07142e-09 7.46171e-08 -6.25487e-08)
(-1.36896e-08 7.10453e-08 -5.90715e-08)
(7.10445e-09 8.24711e-08 -6.72481e-08)
(-1.84043e-10 8.41592e-08 -7.02307e-08)
(2.79391e-09 8.37736e-08 -6.99975e-08)
(-4.7485e-09 8.13304e-08 -6.65695e-08)
(-6.97788e-09 8.41885e-08 -6.87885e-08)
(-3.5272e-09 7.71967e-08 -7.17689e-08)
(6.96247e-09 7.68409e-08 -7.15335e-08)
(9.93018e-09 8.30726e-08 -6.80849e-08)
(1.07762e-08 1.30317e-08 -4.47336e-09)
(1.51836e-09 7.10284e-09 -5.41512e-09)
(-1.4321e-09 7.11111e-09 -5.40112e-09)
(-1.08792e-08 1.31571e-08 -4.43761e-09)
(1.81166e-08 2.54416e-08 -1.38444e-08)
(4.12667e-09 2.20319e-08 -1.55542e-08)
(-3.94681e-09 2.19937e-08 -1.55141e-08)
(-1.81599e-08 2.5341e-08 -1.37352e-08)
(1.98741e-08 3.74723e-08 -2.32379e-08)
(5.00252e-09 3.6279e-08 -2.51562e-08)
(-4.63358e-09 3.61797e-08 -2.50909e-08)
(-1.97108e-08 3.71655e-08 -2.3055e-08)
(2.0419e-08 4.9189e-08 -3.24543e-08)
(5.28122e-09 4.939e-08 -3.4347e-08)
(-4.6051e-09 4.92269e-08 -3.4255e-08)
(-1.99347e-08 4.86928e-08 -3.21927e-08)
(2.03909e-08 6.00456e-08 -4.11696e-08)
(5.26684e-09 6.16682e-08 -4.29505e-08)
(-4.17522e-09 6.14409e-08 -4.28297e-08)
(-1.94788e-08 5.93665e-08 -4.08231e-08)
(1.78563e-08 6.95478e-08 -4.85814e-08)
(4.14499e-09 7.26235e-08 -5.02346e-08)
(-2.5338e-09 7.23308e-08 -5.00856e-08)
(-1.64262e-08 6.86878e-08 -4.81493e-08)
(9.44768e-09 7.78699e-08 -5.32094e-08)
(9.62695e-10 7.97833e-08 -5.47664e-08)
(1.28403e-09 7.94383e-08 -5.45977e-08)
(-7.46127e-09 7.68509e-08 -5.27098e-08)
(-4.46727e-09 7.88066e-08 -5.34397e-08)
(-2.38895e-09 7.24496e-08 -5.50375e-08)
(5.38699e-09 7.21373e-08 -5.48724e-08)
(6.97367e-09 7.78227e-08 -5.29328e-08)
(1.07262e-08 1.30059e-08 -3.59536e-09)
(1.53477e-09 7.01239e-09 -3.94199e-09)
(-1.45637e-09 7.02477e-09 -3.93475e-09)
(-1.085e-08 1.31507e-08 -3.5773e-09)
(1.82125e-08 2.54024e-08 -1.10346e-08)
(4.21561e-09 2.1881e-08 -1.16434e-08)
(-4.07513e-09 2.18542e-08 -1.16196e-08)
(-1.83123e-08 2.53403e-08 -1.0969e-08)
(2.00715e-08 3.72532e-08 -1.84595e-08)
(5.12564e-09 3.60231e-08 -1.91245e-08)
(-4.83536e-09 3.59406e-08 -1.90824e-08)
(-2.00029e-08 3.6999e-08 -1.83403e-08)
(2.05383e-08 4.84517e-08 -2.56265e-08)
(5.36551e-09 4.8705e-08 -2.62528e-08)
(-4.81078e-09 4.85633e-08 -2.61906e-08)
(-2.01909e-08 4.80203e-08 -2.5448e-08)
(2.03137e-08 5.84013e-08 -3.21322e-08)
(5.27093e-09 6.01222e-08 -3.26747e-08)
(-4.34615e-09 5.99208e-08 -3.25909e-08)
(-1.95844e-08 5.77993e-08 -3.18896e-08)
(1.75856e-08 6.68287e-08 -3.72797e-08)
(4.07861e-09 7.00166e-08 -3.77293e-08)
(-2.68341e-09 6.97547e-08 -3.76249e-08)
(-1.63884e-08 6.60591e-08 -3.69735e-08)
(9.11931e-09 7.44176e-08 -4.01675e-08)
(8.76945e-10 7.65214e-08 -4.05527e-08)
(1.09876e-09 7.62114e-08 -4.04349e-08)
(-7.42171e-09 7.35025e-08 -3.98134e-08)
(-4.70248e-09 7.5366e-08 -4.0125e-08)
(-2.49264e-09 6.94983e-08 -4.05536e-08)
(5.15596e-09 6.92229e-08 -4.04411e-08)
(6.85658e-09 7.44955e-08 -3.97714e-08)
(1.04778e-08 1.28801e-08 -2.65754e-09)
(1.44021e-09 6.92836e-09 -2.74413e-09)
(-1.36548e-09 6.94404e-09 -2.74034e-09)
(-1.06138e-08 1.30387e-08 -2.64859e-09)
(1.77402e-08 2.50675e-08 -8.04711e-09)
(4.02047e-09 2.15719e-08 -8.16397e-09)
(-3.90274e-09 2.15544e-08 -8.1501e-09)
(-1.78749e-08 2.50351e-08 -8.00916e-09)
(1.95186e-08 3.6597e-08 -1.33659e-08)
(4.8888e-09 3.53978e-08 -1.34618e-08)
(-4.64773e-09 3.53289e-08 -1.34358e-08)
(-1.95111e-08 3.6384e-08 -1.32922e-08)
(1.99077e-08 4.73211e-08 -1.84096e-08)
(5.0918e-09 4.7627e-08 -1.84629e-08)
(-4.617e-09 4.75024e-08 -1.8423e-08)
(-1.96517e-08 4.69407e-08 -1.82949e-08)
(1.95673e-08 5.67021e-08 -2.28464e-08)
(4.94843e-09 5.84903e-08 -2.28434e-08)
(-4.13751e-09 5.83094e-08 -2.27885e-08)
(-1.89637e-08 5.61605e-08 -2.2687e-08)
(1.6732e-08 6.46534e-08 -2.62063e-08)
(3.71367e-09 6.79144e-08 -2.61468e-08)
(-2.46992e-09 6.76764e-08 -2.60776e-08)
(-1.56988e-08 6.39539e-08 -2.60028e-08)
(8.24037e-09 7.20646e-08 -2.79971e-08)
(4.98339e-10 7.4285e-08 -2.79027e-08)
(1.28303e-09 7.40021e-08 -2.78249e-08)
(-6.75e-09 7.12297e-08 -2.77612e-08)
(-5.53398e-09 7.31193e-08 -2.79291e-08)
(-2.88898e-09 6.75299e-08 -2.78646e-08)
(5.30771e-09 6.72833e-08 -2.77917e-08)
(7.4313e-09 7.23374e-08 -2.76961e-08)
(1.03021e-08 1.27549e-08 -1.6326e-09)
(1.37237e-09 6.85321e-09 -1.64117e-09)
(-1.29926e-09 6.87109e-09 -1.63931e-09)
(-1.04447e-08 1.29222e-08 -1.62848e-09)
(1.73677e-08 2.47162e-08 -4.89211e-09)
(3.86283e-09 2.12721e-08 -4.87426e-09)
(-3.75752e-09 2.12607e-08 -4.86697e-09)
(-1.75217e-08 2.47032e-08 -4.87242e-09)
(1.90461e-08 3.59641e-08 -8.07443e-09)
(4.68361e-09 3.48078e-08 -8.02365e-09)
(-4.47114e-09 3.47481e-08 -8.00944e-09)
(-1.90739e-08 3.57787e-08 -8.03439e-09)
(1.93686e-08 4.63623e-08 -1.10515e-08)
(4.85615e-09 4.67092e-08 -1.09687e-08)
(-4.42977e-09 4.65963e-08 -1.09464e-08)
(-1.91678e-08 4.60163e-08 -1.09874e-08)
(1.89636e-08 5.54381e-08 -1.36191e-08)
(4.68465e-09 5.72673e-08 -1.35042e-08)
(-3.94487e-09 5.71003e-08 -1.3473e-08)
(-1.8438e-08 5.49373e-08 -1.35286e-08)
(1.60767e-08 6.32032e-08 -1.55188e-08)
(3.42764e-09 6.65043e-08 -1.53753e-08)
(-2.28077e-09 6.62825e-08 -1.53358e-08)
(-1.51476e-08 6.25512e-08 -1.54022e-08)
(7.57602e-09 7.05972e-08 -1.65096e-08)
(2.03899e-10 7.28749e-08 -1.63507e-08)
(1.45091e-09 7.26103e-08 -1.63063e-08)
(-6.21967e-09 6.98166e-08 -1.63741e-08)
(-6.17278e-09 7.17344e-08 -1.64641e-08)
(-3.19529e-09 6.62729e-08 -1.63212e-08)
(5.45266e-09 6.6046e-08 -1.62801e-08)
(7.9019e-09 7.10129e-08 -1.63312e-08)
(1.02227e-08 1.26823e-08 -5.50595e-10)
(1.34303e-09 6.80824e-09 -5.48434e-10)
(-1.27052e-09 6.82721e-09 -5.47873e-10)
(-1.03681e-08 1.28538e-08 -5.49401e-10)
(1.71945e-08 2.45067e-08 -1.64083e-09)
(3.7908e-09 2.10944e-08 -1.62467e-09)
(-3.69107e-09 2.10862e-08 -1.6224e-09)
(-1.73572e-08 2.45035e-08 -1.63472e-09)
(1.88176e-08 3.5598e-08 -2.69861e-09)
(4.58563e-09 3.4468e-08 -2.66884e-09)
(-4.38656e-09 3.4413e-08 -2.66432e-09)
(-1.88619e-08 3.54265e-08 -2.6859e-09)
(1.91032e-08 4.58358e-08 -3.6811e-09)
(4.74137e-09 4.62048e-08 -3.63971e-09)
(-4.33832e-09 4.60978e-08 -3.63252e-09)
(-1.89288e-08 4.55073e-08 -3.66049e-09)
(1.86683e-08 5.47821e-08 -4.52068e-09)
(4.55654e-09 5.66307e-08 -4.46882e-09)
(-3.85172e-09 5.64708e-08 -4.45871e-09)
(-1.81808e-08 5.43021e-08 -4.49129e-09)
(1.57606e-08 6.24852e-08 -5.13587e-09)
(3.28981e-09 6.58035e-08 -5.07538e-09)
(-2.19124e-09 6.55899e-08 -5.06252e-09)
(-1.48831e-08 6.18574e-08 -5.09782e-09)
(7.25724e-09 6.98887e-08 -5.4542e-09)
(6.18843e-11 7.21882e-08 -5.38953e-09)
(1.52917e-09 7.1933e-08 -5.37509e-09)
(-5.96804e-09 6.91359e-08 -5.40992e-09)
(-6.47954e-09 7.10696e-08 -5.4387e-09)
(-3.34294e-09 6.5654e-08 -5.37899e-09)
(5.51848e-09 6.54372e-08 -5.36572e-09)
(8.12377e-09 7.03791e-08 -5.39544e-09)
)
;

boundaryField
{
    interface
    {
        type            solidTraction;
        traction        nonuniform List<vector> 
192
(
(88.5254 -0.0306694 -6.1531)
(90.159 0.214507 -7.38127)
(90.5681 0.559646 -7.35964)
(90.9341 0.88972 -7.18556)
(90.4775 1.27054 -6.89758)
(91.3596 1.9565 -6.50174)
(87.4818 2.43634 -5.77397)
(92.2888 5.08331 -5.08066)
(82.5799 0.0676519 -3.30015)
(83.3675 0.327424 -4.01953)
(83.6061 0.691646 -3.9727)
(83.9956 1.07316 -3.82862)
(83.5642 1.51905 -3.61061)
(84.9539 2.32597 -3.32168)
(81.0905 2.86264 -2.86573)
(87.4841 5.77784 -2.43894)
(87.4936 0.0798441 -2.71038)
(88.3828 0.380322 -3.28354)
(88.6247 0.801849 -3.24449)
(88.9973 1.24356 -3.124)
(88.3855 1.76302 -2.942)
(89.6794 2.68596 -2.69779)
(84.9808 3.31904 -2.33682)
(91.3884 6.5086 -1.9659)
(86.5157 0.111397 -1.83141)
(87.2091 0.438606 -2.23365)
(87.3714 0.895062 -2.19775)
(87.7331 1.37618 -2.10294)
(87.0962 1.94328 -1.96497)
(88.5085 2.93117 -1.78467)
(83.6923 3.60998 -1.53808)
(90.6013 6.91031 -1.28801)
(87.3234 0.126361 -1.32931)
(88.0186 0.477534 -1.62078)
(88.1609 0.965527 -1.5938)
(88.5169 1.4778 -1.52291)
(87.8356 2.08136 -1.42051)
(89.2362 3.11496 -1.28733)
(84.2112 3.83033 -1.11163)
(91.1649 7.20768 -0.92816)
(87.4636 0.138034 -0.883915)
(88.1297 0.506575 -1.07901)
(88.2452 1.0171 -1.05968)
(88.5941 1.5511 -1.01053)
(87.8896 2.17968 -0.940434)
(89.2899 3.24247 -0.849987)
(84.1725 3.98106 -0.734267)
(91.2091 7.40546 -0.612914)
(87.5928 0.145083 -0.508281)
(88.253 0.525126 -0.620912)
(88.356 1.05052 -0.609537)
(88.7023 1.59838 -0.580705)
(87.9855 2.24275 -0.540093)
(89.3823 3.32309 -0.487331)
(84.2072 4.07597 -0.422081)
(91.2785 7.52888 -0.351195)
(87.6415 0.14873 -0.166623)
(88.2972 0.534317 -0.203766)
(88.3947 1.06694 -0.199982)
(88.7395 1.62139 -0.190349)
(88.022 2.27363 -0.176983)
(89.4122 3.36168 -0.159323)
(84.2196 4.12235 -0.138411)
(91.2958 7.58841 -0.114292)
(10.2572 0.320504 34.2594)
(12.424 0.291145 30.4344)
(12.4771 0.222272 30.0634)
(12.3416 0.239901 30.911)
(12.1221 0.280255 32.6243)
(11.8448 0.356336 35.5197)
(11.4233 0.380019 39.2121)
(11.1972 0.482619 43.811)
(8.60895 0.0987844 50.3729)
(10.6094 0.0967488 49.8194)
(10.6486 0.0686586 49.8386)
(10.5421 0.0629012 50.1009)
(10.3956 0.0636682 50.6003)
(10.2264 0.0770843 51.4034)
(10.0093 0.0826921 52.2758)
(9.95258 0.103721 53.3099)
(8.82513 0.0287694 45.0762)
(10.8625 0.0009404 44.7159)
(10.9122 -0.0522546 44.7595)
(10.8008 -0.0990986 45.0313)
(10.6402 -0.149409 45.5891)
(10.4432 -0.200766 46.3977)
(10.1896 -0.246845 47.5338)
(10.064 -0.267412 48.7312)
(10.1939 -0.0346112 47.76)
(12.4648 -0.0844805 47.6854)
(12.5176 -0.158315 47.6995)
(12.3716 -0.236743 47.7663)
(12.1421 -0.32295 48.0039)
(11.8445 -0.421228 48.1757)
(11.3978 -0.494968 48.7235)
(11.1366 -0.589836 48.9631)
(-8.94082 0.245438 6.14718)
(-4.35757 -0.090506 7.45331)
(-3.77137 -0.577539 7.42024)
(-4.05914 -0.966807 7.24956)
(-5.56595 -1.39691 6.98303)
(-6.1835 -2.09413 6.63117)
(-11.4141 -2.49898 5.96974)
(-0.696323 -5.49937 5.51316)
(-30.9808 -0.0386122 2.84729)
(-30.086 -0.322102 3.58519)
(-29.896 -0.726442 3.52408)
(-29.5786 -1.12282 3.39257)
(-29.7721 -1.5764 3.21772)
(-27.6909 -2.34844 3.00535)
(-30.0668 -2.645 2.66451)
(-11.3331 -5.95717 2.51873)
(-29.6595 -0.0907284 2.57981)
(-28.8314 -0.40395 3.19391)
(-28.5404 -0.838194 3.15505)
(-28.0422 -1.27689 3.04303)
(-27.9954 -1.78645 2.88457)
(-25.3179 -2.64887 2.67657)
(-27.573 -2.98569 2.37614)
(-5.96632 -6.6205 2.12271)
(-33.0966 -0.125198 1.78831)
(-32.4884 -0.466019 2.23153)
(-32.1924 -0.930379 2.1973)
(-31.5258 -1.40035 2.10754)
(-31.1539 -1.94854 1.98291)
(-27.8004 -2.85689 1.82184)
(-29.4622 -3.19732 1.61286)
(-5.11068 -6.97596 1.43807)
(-33.7497 -0.139027 1.31801)
(-33.1323 -0.504179 1.63759)
(-32.7693 -0.99718 1.6131)
(-31.9672 -1.49302 1.54673)
(-31.3867 -2.07221 1.45385)
(-27.6774 -3.01336 1.33278)
(-29.085 -3.36685 1.18172)
(-3.27232 -7.24617 1.04168)
(-34.2906 -0.147253 0.89175)
(-33.6664 -0.530672 1.10637)
(-33.2621 -1.04572 1.08901)
(-32.374 -1.56086 1.04274)
(-31.6575 -2.1626 0.978175)
(-27.7271 -3.12464 0.894125)
(-28.9368 -3.48678 0.793119)
(-2.10362 -7.42955 0.696877)
(-34.5796 -0.152156 0.515711)
(-33.943 -0.54749 0.639314)
(-33.5065 -1.07698 0.629112)
(-32.5595 -1.60455 0.602011)
(-31.7513 -2.22074 0.564536)
(-27.6858 -3.19511 0.515149)
(-28.7688 -3.56288 0.458426)
(-1.31931 -7.54429 0.40052)
(-34.706 -0.154685 0.169692)
(-34.0631 -0.555761 0.210417)
(-33.61 -1.09229 0.207022)
(-32.6348 -1.62581 0.197965)
(-31.7776 -2.24939 0.185602)
(-27.6574 -3.22866 0.168942)
(-28.6642 -3.60062 0.150924)
(-0.940501 -7.60026 0.130521)
(11.201 -43.7234 -0.472954)
(11.4301 -39.0643 -0.371896)
(11.8563 -35.2806 -0.346789)
(12.1407 -32.2506 -0.264218)
(12.3693 -30.2525 -0.208879)
(12.5297 -28.7967 -0.145587)
(12.633 -27.8903 -0.0875551)
(12.6839 -27.4606 -0.0297639)
(9.95467 -53.2165 -0.091682)
(10.0131 -52.1226 -0.0720808)
(10.2325 -51.1669 -0.0646324)
(10.404 -50.2606 -0.046706)
(10.5496 -49.6037 -0.0373669)
(10.6566 -49.0906 -0.0255608)
(10.7271 -48.7581 -0.0146896)
(10.7625 -48.5809 -0.00457221)
(10.0653 -48.6333 0.281014)
(10.192 -47.3703 0.259297)
(10.4475 -46.144 0.215428)
(10.6464 -45.2217 0.167689)
(10.8072 -44.5116 0.124129)
(10.9244 -43.9969 0.085401)
(11.0009 -43.6667 0.0494296)
(11.0385 -43.511 0.016005)
(11.135 -48.8641 0.604378)
(11.3973 -48.5552 0.508867)
(11.8463 -47.9169 0.437603)
(12.1478 -47.6322 0.341963)
(12.3821 -47.2723 0.260809)
(12.5476 -47.0149 0.181791)
(12.6538 -46.838 0.107758)
(12.7058 -46.7418 0.0360151)
)
;
        pressure        uniform 0;
        secondOrder     false;
        setEffectiveTraction false;
        relaxationFactor 1;
        value           nonuniform List<vector> 
192
(
(6.8762e-08 8.5008e-09 -5.7975e-09)
(6.49867e-08 1.67581e-08 -1.81563e-08)
(6.62596e-08 2.67235e-08 -3.03549e-08)
(6.85472e-08 3.80074e-08 -4.23365e-08)
(7.07154e-08 5.01215e-08 -5.45591e-08)
(7.13593e-08 6.30941e-08 -6.80941e-08)
(6.80675e-08 7.95979e-08 -8.43156e-08)
(5.13788e-08 9.82526e-08 -1.01273e-07)
(7.92843e-08 1.53647e-08 -4.67821e-09)
(8.02474e-08 2.33198e-08 -1.55906e-08)
(8.1581e-08 3.36821e-08 -2.75554e-08)
(8.35339e-08 4.54442e-08 -3.9564e-08)
(8.57243e-08 5.76037e-08 -5.16784e-08)
(8.67922e-08 6.93999e-08 -6.42931e-08)
(8.43682e-08 8.11855e-08 -7.63941e-08)
(6.82233e-08 8.9058e-08 -8.25793e-08)
(7.84816e-08 1.90988e-08 -4.1293e-09)
(8.34911e-08 2.65516e-08 -1.40086e-08)
(8.54272e-08 3.7004e-08 -2.4803e-08)
(8.70444e-08 4.87607e-08 -3.58124e-08)
(8.88739e-08 6.00266e-08 -4.67047e-08)
(8.96511e-08 6.93603e-08 -5.69202e-08)
(8.7008e-08 7.68718e-08 -6.45474e-08)
(7.1724e-08 8.06622e-08 -6.59984e-08)
(7.68319e-08 2.02548e-08 -4.19227e-09)
(8.33279e-08 2.77161e-08 -1.31539e-08)
(8.57227e-08 3.80479e-08 -2.24101e-08)
(8.7184e-08 4.93183e-08 -3.16788e-08)
(8.86682e-08 5.94051e-08 -4.05153e-08)
(8.90906e-08 6.68124e-08 -4.80406e-08)
(8.62279e-08 7.22895e-08 -5.27059e-08)
(7.14148e-08 7.52303e-08 -5.28711e-08)
(7.54319e-08 2.02406e-08 -3.67019e-09)
(8.20815e-08 2.77387e-08 -1.1129e-08)
(8.45754e-08 3.78347e-08 -1.85486e-08)
(8.59365e-08 4.85123e-08 -2.57546e-08)
(8.71836e-08 5.76633e-08 -3.23384e-08)
(8.7354e-08 6.40305e-08 -3.7561e-08)
(8.43624e-08 6.88461e-08 -4.04695e-08)
(6.97926e-08 7.17393e-08 -4.03919e-08)
(7.44944e-08 1.99346e-08 -2.76371e-09)
(8.09345e-08 2.73277e-08 -8.2585e-09)
(8.33406e-08 3.71389e-08 -1.36224e-08)
(8.46055e-08 4.73334e-08 -1.87022e-08)
(8.57094e-08 5.59084e-08 -2.31841e-08)
(8.57386e-08 6.1822e-08 -2.65837e-08)
(8.26842e-08 6.64986e-08 -2.83831e-08)
(6.82345e-08 6.94622e-08 -2.82968e-08)
(7.39644e-08 1.96723e-08 -1.69646e-09)
(8.02175e-08 2.69021e-08 -5.02865e-09)
(8.25169e-08 3.64643e-08 -8.2498e-09)
(8.37026e-08 4.63418e-08 -1.12527e-08)
(8.47252e-08 5.46153e-08 -1.38439e-08)
(8.46844e-08 6.03567e-08 -1.57618e-08)
(8.16025e-08 6.50353e-08 -1.67555e-08)
(6.72126e-08 6.80645e-08 -1.67005e-08)
(7.37326e-08 1.95366e-08 -5.70484e-10)
(7.98963e-08 2.66554e-08 -1.68416e-09)
(8.21366e-08 3.60753e-08 -2.75576e-09)
(8.32791e-08 4.57986e-08 -3.74748e-09)
(8.42641e-08 5.39466e-08 -4.59453e-09)
(8.41945e-08 5.96328e-08 -5.21493e-09)
(8.11024e-08 6.43292e-08 -5.53393e-09)
(6.67383e-08 6.73961e-08 -5.51542e-09)
(-4.649e-09 4.06814e-09 7.04965e-08)
(-7.96202e-09 1.08222e-08 5.59536e-08)
(-7.69968e-09 2.02175e-08 4.43147e-08)
(-6.29392e-09 3.1514e-08 3.32531e-08)
(-5.41981e-09 4.41153e-08 2.2498e-08)
(-7.42395e-09 5.83428e-08 1.1852e-08)
(-1.57678e-08 7.69531e-08 9.63198e-10)
(-3.00804e-08 9.76916e-08 -1.79566e-08)
(-1.62087e-09 4.68676e-09 7.71485e-08)
(-2.53506e-09 1.01708e-08 6.41571e-08)
(-2.42694e-09 1.96819e-08 5.20366e-08)
(-1.80109e-09 3.17887e-08 4.11342e-08)
(-1.32311e-09 4.57758e-08 3.11632e-08)
(-2.07809e-09 6.14104e-08 2.16835e-08)
(-5.11547e-09 7.8504e-08 1.20022e-08)
(-8.55844e-09 9.06642e-08 -7.27643e-09)
(1.90885e-09 4.6928e-09 7.67733e-08)
(3.16917e-09 1.01382e-08 6.37674e-08)
(3.48238e-09 1.95886e-08 5.16735e-08)
(3.41098e-09 3.16256e-08 4.08127e-08)
(3.61119e-09 4.55368e-08 3.08901e-08)
(5.16005e-09 6.1087e-08 2.1465e-08)
(9.11575e-09 7.80949e-08 1.18511e-08)
(1.35936e-08 9.02152e-08 -7.29604e-09)
(4.54414e-09 4.20383e-09 6.93361e-08)
(8.06997e-09 1.0714e-08 5.47699e-08)
(8.23746e-09 1.98898e-08 4.32303e-08)
(7.4004e-09 3.0977e-08 3.2305e-08)
(7.2161e-09 4.3363e-08 2.17036e-08)
(1.00149e-08 5.73558e-08 1.12238e-08)
(1.92126e-08 7.57161e-08 5.1391e-10)
(3.43687e-08 9.63257e-08 -1.81178e-08)
(-7.01978e-08 8.602e-09 -5.75153e-09)
(-6.61971e-08 1.64554e-08 -1.80043e-08)
(-6.70454e-08 2.61033e-08 -3.00501e-08)
(-6.87583e-08 3.71066e-08 -4.18515e-08)
(-7.02217e-08 4.89453e-08 -5.38784e-08)
(-7.00682e-08 6.16403e-08 -6.72089e-08)
(-6.60458e-08 7.78839e-08 -8.32209e-08)
(-4.92649e-08 9.64351e-08 -9.9981e-08)
(-8.00965e-08 1.54485e-08 -4.5729e-09)
(-8.08376e-08 2.30307e-08 -1.53398e-08)
(-8.18109e-08 3.30865e-08 -2.7163e-08)
(-8.32598e-08 4.45741e-08 -3.90165e-08)
(-8.48129e-08 5.64687e-08 -5.09611e-08)
(-8.51441e-08 6.80077e-08 -6.33957e-08)
(-8.20473e-08 7.95764e-08 -7.53214e-08)
(-6.59192e-08 8.74227e-08 -8.13922e-08)
(-7.93083e-08 1.92142e-08 -4.05077e-09)
(-8.41285e-08 2.63185e-08 -1.38013e-08)
(-8.57637e-08 3.64823e-08 -2.44738e-08)
(-8.69437e-08 4.79787e-08 -3.53541e-08)
(-8.82051e-08 5.89958e-08 -4.61065e-08)
(-8.83165e-08 6.80961e-08 -5.61761e-08)
(-8.50709e-08 7.54251e-08 -6.36714e-08)
(-6.9856e-08 7.92158e-08 -6.50558e-08)
(-7.77797e-08 2.0417e-08 -4.144e-09)
(-8.41293e-08 2.75489e-08 -1.30113e-08)
(-8.62724e-08 3.76092e-08 -2.21714e-08)
(-8.73507e-08 4.86347e-08 -3.13372e-08)
(-8.8325e-08 5.84892e-08 -4.00627e-08)
(-8.81439e-08 6.56831e-08 -4.74742e-08)
(-8.47423e-08 7.10005e-08 -5.20412e-08)
(-7.00468e-08 7.39561e-08 -5.21641e-08)
(-7.64855e-08 2.04413e-08 -3.64342e-09)
(-8.30233e-08 2.76285e-08 -1.104e-08)
(-8.53028e-08 3.74686e-08 -1.83899e-08)
(-8.63226e-08 4.79155e-08 -2.55185e-08)
(-8.71056e-08 5.68485e-08 -3.20181e-08)
(-8.67226e-08 6.30181e-08 -3.71552e-08)
(-8.32458e-08 6.76908e-08 -3.9991e-08)
(-6.88404e-08 7.06121e-08 -3.98856e-08)
(-7.56214e-08 2.0161e-08 -2.74975e-09)
(-8.19723e-08 2.72594e-08 -8.20662e-09)
(-8.419e-08 3.68281e-08 -1.35242e-08)
(-8.51434e-08 4.68037e-08 -1.85505e-08)
(-8.58171e-08 5.5172e-08 -2.29734e-08)
(-8.5331e-08 6.09001e-08 -2.63128e-08)
(-8.18336e-08 6.54467e-08 -2.80615e-08)
(-6.75886e-08 6.84499e-08 -2.79573e-08)
(-7.51361e-08 1.99139e-08 -1.68983e-09)
(-8.13131e-08 2.68605e-08 -5.00174e-09)
(-8.344e-08 3.61901e-08 -8.19657e-09)
(-8.43336e-08 4.58572e-08 -1.1168e-08)
(-8.49486e-08 5.3932e-08 -1.37242e-08)
(-8.44185e-08 5.94963e-08 -1.5606e-08)
(-8.0923e-08 6.40538e-08 -1.65695e-08)
(-6.67671e-08 6.71308e-08 -1.65042e-08)
(-7.49255e-08 1.97852e-08 -5.6852e-10)
(-8.10191e-08 2.66269e-08 -1.67581e-09)
(-8.30946e-08 3.58194e-08 -2.73885e-09)
(-8.39547e-08 4.53369e-08 -3.72019e-09)
(-8.45436e-08 5.32904e-08 -4.55555e-09)
(-8.3998e-08 5.88038e-08 -5.16391e-09)
(-8.05077e-08 6.33837e-08 -5.47279e-09)
(-6.63935e-08 6.65026e-08 -5.45087e-09)
(-3.00068e-08 1.48577e-08 -1.04668e-07)
(-1.55392e-08 3.69701e-09 -8.3918e-08)
(-6.99126e-09 6.27387e-10 -6.53451e-08)
(-4.66425e-09 -1.95638e-09 -5.12341e-08)
(-5.04698e-09 -4.11176e-09 -3.87032e-08)
(-5.96327e-09 -5.73292e-09 -2.70212e-08)
(-6.64042e-09 -6.80169e-09 -1.59516e-08)
(-6.96046e-09 -7.32976e-09 -5.2725e-09)
(-8.49056e-09 4.03455e-09 -9.77835e-08)
(-4.89881e-09 -7.48493e-09 -8.56228e-08)
(-1.68873e-09 -9.35806e-09 -6.85853e-08)
(-7.20032e-10 -1.08094e-08 -5.31129e-08)
(-9.55256e-10 -1.2185e-08 -3.93237e-08)
(-1.42834e-09 -1.33898e-08 -2.70583e-08)
(-1.77156e-09 -1.42782e-08 -1.58522e-08)
(-1.93319e-09 -1.47454e-08 -5.22426e-09)
(1.36544e-08 3.92631e-09 -9.74591e-08)
(9.31719e-09 -7.46734e-09 -8.53345e-08)
(5.49508e-09 -9.27977e-09 -6.83733e-08)
(4.04532e-09 -1.06859e-08 -5.29678e-08)
(3.90831e-09 -1.2026e-08 -3.92276e-08)
(4.1075e-09 -1.32038e-08 -2.69975e-08)
(4.26932e-09 -1.40739e-08 -1.58185e-08)
(4.33888e-09 -1.45317e-08 -5.21351e-09)
(3.44288e-08 1.46296e-08 -1.03684e-07)
(1.94036e-08 3.7426e-09 -8.30559e-08)
(1.03025e-08 8.3297e-10 -6.47103e-08)
(7.48753e-09 -1.61235e-09 -5.07884e-08)
(7.48202e-09 -3.6532e-09 -3.84e-08)
(8.11347e-09 -5.18664e-09 -2.68254e-08)
(8.6032e-09 -6.19588e-09 -1.58416e-08)
(8.82846e-09 -6.6935e-09 -5.23697e-09)
)
;
        gradient        nonuniform List<vector> 
192
(
(5.88007e-06 -2.47004e-07 1.8798e-07)
(5.80782e-06 -4.80545e-08 3.02185e-07)
(5.87209e-06 3.61522e-08 3.15118e-07)
(5.94806e-06 4.04763e-08 3.05065e-07)
(6.06666e-06 -3.05166e-08 2.94784e-07)
(6.29512e-06 -2.13286e-07 2.88519e-07)
(6.70802e-06 -4.52669e-07 2.87837e-07)
(6.50744e-06 -2.85275e-07 2.91285e-07)
(5.95522e-06 2.32904e-07 2.86744e-07)
(5.87568e-06 5.31769e-08 4.61153e-07)
(5.92624e-06 3.34509e-08 4.77952e-07)
(6.00481e-06 3.03866e-08 4.64718e-07)
(6.13618e-06 -3.1223e-08 4.56208e-07)
(6.3904e-06 -2.07561e-07 4.54965e-07)
(6.85801e-06 -4.50794e-07 4.57704e-07)
(6.70817e-06 -2.81785e-07 4.59692e-07)
(5.51048e-06 5.00992e-07 1.18607e-07)
(5.44335e-06 1.43164e-07 2.2626e-07)
(5.49346e-06 3.97183e-08 2.47379e-07)
(5.56875e-06 1.87315e-08 2.3886e-07)
(5.6943e-06 -4.02704e-08 2.27336e-07)
(5.93842e-06 -2.1179e-07 2.18844e-07)
(6.39229e-06 -4.47942e-07 2.1606e-07)
(6.29615e-06 -2.82107e-07 2.23202e-07)
(5.28445e-06 5.77852e-07 2.24871e-08)
(5.2169e-06 1.81956e-07 5.52353e-08)
(5.26789e-06 4.60514e-08 6.62223e-08)
(5.3412e-06 1.03441e-08 6.20371e-08)
(5.46219e-06 -5.12388e-08 5.23437e-08)
(5.69875e-06 -2.18837e-07 4.32679e-08)
(6.14242e-06 -4.46436e-07 4.0274e-08)
(6.07056e-06 -2.86099e-07 4.5488e-08)
(5.17645e-06 5.7877e-07 -5.98623e-09)
(5.10952e-06 1.86905e-07 -7.54906e-09)
(5.16031e-06 4.65205e-08 -7.13082e-09)
(5.23186e-06 4.85295e-09 -1.02484e-08)
(5.34959e-06 -5.90396e-08 -1.64914e-08)
(5.58147e-06 -2.23859e-07 -2.25047e-08)
(6.01945e-06 -4.45722e-07 -2.41633e-08)
(5.95961e-06 -2.90133e-07 -2.13493e-08)
(5.12133e-06 5.64356e-07 -8.49405e-09)
(5.05554e-06 1.80816e-07 -1.6911e-08)
(5.10576e-06 4.33523e-08 -2.05243e-08)
(5.17583e-06 9.83528e-10 -2.34096e-08)
(5.29137e-06 -6.34951e-08 -2.70166e-08)
(5.52052e-06 -2.26509e-07 -3.019e-08)
(5.9555e-06 -4.4528e-07 -3.08775e-08)
(5.90148e-06 -2.92573e-07 -2.94166e-08)
(5.09298e-06 5.53392e-07 -5.10943e-09)
(5.02799e-06 1.74877e-07 -1.09231e-08)
(5.07767e-06 4.00221e-08 -1.40295e-08)
(5.14672e-06 -1.63934e-09 -1.6097e-08)
(5.26093e-06 -6.582e-08 -1.79885e-08)
(5.48862e-06 -2.2772e-07 -1.94369e-08)
(5.92212e-06 -4.44948e-07 -1.96699e-08)
(5.87083e-06 -2.93595e-07 -1.89178e-08)
(5.08079e-06 5.48339e-07 -1.59111e-09)
(5.01615e-06 1.71897e-07 -3.4666e-09)
(5.06552e-06 3.81786e-08 -4.57181e-09)
(5.13407e-06 -2.9755e-09 -5.31012e-09)
(5.24766e-06 -6.6835e-08 -5.90797e-09)
(5.47471e-06 -2.2819e-07 -6.32513e-09)
(5.90761e-06 -4.44761e-07 -6.3782e-09)
(5.85743e-06 -2.93885e-07 -6.13752e-09)
(7.18616e-09 -6.01616e-07 6.2915e-06)
(-2.80698e-08 -5.2293e-07 6.23098e-06)
(-4.46595e-08 -4.84322e-07 6.28868e-06)
(-3.92297e-08 -4.78998e-07 6.35224e-06)
(-2.4164e-08 -5.11011e-07 6.45935e-06)
(-7.53924e-09 -5.93389e-07 6.68421e-06)
(1.19924e-09 -6.64255e-07 7.11014e-06)
(-9.29267e-09 -3.30152e-07 6.95656e-06)
(1.01311e-07 -3.77727e-07 6.41952e-06)
(1.23666e-07 -5.11236e-07 6.39584e-06)
(1.14286e-07 -4.94042e-07 6.45551e-06)
(1.15589e-07 -4.68667e-07 6.53018e-06)
(1.26502e-07 -4.8759e-07 6.66032e-06)
(1.41041e-07 -5.71493e-07 6.92449e-06)
(1.50573e-07 -6.6462e-07 7.41341e-06)
(1.42981e-07 -3.35956e-07 7.26618e-06)
(-9.99045e-08 -3.76903e-07 6.38888e-06)
(-1.20009e-07 -5.09982e-07 6.362e-06)
(-1.07569e-07 -4.92401e-07 6.42082e-06)
(-1.05214e-07 -4.66783e-07 6.49522e-06)
(-1.12129e-07 -4.85561e-07 6.62528e-06)
(-1.22477e-07 -5.6932e-07 6.88964e-06)
(-1.27674e-07 -6.62319e-07 7.37943e-06)
(-1.15989e-07 -3.35108e-07 7.23802e-06)
(-6.23193e-09 -5.97907e-07 6.19463e-06)
(3.11212e-08 -5.18927e-07 6.12548e-06)
(5.0762e-08 -4.79248e-07 6.18187e-06)
(4.88801e-08 -4.73227e-07 6.24528e-06)
(3.7632e-08 -5.04854e-07 6.35264e-06)
(2.4983e-08 -5.87039e-07 6.57819e-06)
(2.02755e-08 -6.58134e-07 7.0056e-06)
(3.45347e-08 -3.28037e-07 6.86336e-06)
(-5.98559e-06 -2.46054e-07 1.8762e-07)
(-5.91025e-06 -5.96142e-08 3.03552e-07)
(-5.97187e-06 1.78305e-08 3.19441e-07)
(-6.04381e-06 1.71408e-08 3.12765e-07)
(-6.1574e-06 -5.82717e-08 3.06074e-07)
(-6.38166e-06 -2.44285e-07 3.03566e-07)
(-6.80039e-06 -4.84712e-07 3.06814e-07)
(-6.65616e-06 -3.19289e-07 3.14314e-07)
(-6.01488e-06 2.32482e-07 2.86017e-07)
(-5.92993e-06 4.36909e-08 4.6203e-07)
(-5.97728e-06 1.81647e-08 4.81511e-07)
(-6.05104e-06 1.03429e-08 4.71244e-07)
(-6.17604e-06 -5.55157e-08 4.65847e-07)
(-6.4238e-06 -2.34857e-07 4.67887e-07)
(-6.89414e-06 -4.78727e-07 4.74192e-07)
(-6.80062e-06 -3.11854e-07 4.80174e-07)
(-5.57052e-06 5.01899e-07 1.19411e-07)
(-5.49684e-06 1.35868e-07 2.28973e-07)
(-5.54349e-06 2.70437e-08 2.52361e-07)
(-5.61387e-06 1.47657e-09 2.46301e-07)
(-5.73286e-06 -6.16284e-08 2.3737e-07)
(-5.97015e-06 -2.3594e-07 2.31632e-07)
(-6.42579e-06 -4.72425e-07 2.31849e-07)
(-6.38289e-06 -3.08543e-07 2.42328e-07)
(-5.35204e-06 5.80787e-07 2.34892e-08)
(-5.27755e-06 1.76632e-07 5.79172e-08)
(-5.32493e-06 3.5492e-08 7.06864e-08)
(-5.39328e-06 -4.64877e-09 6.84413e-08)
(-5.5077e-06 -7.01851e-08 6.08305e-08)
(-5.73741e-06 -2.40377e-07 5.40029e-08)
(-6.18248e-06 -4.68031e-07 5.34887e-08)
(-6.16164e-06 -3.09336e-07 6.14942e-08)
(-5.25084e-06 5.8325e-07 -5.28912e-09)
(-5.17688e-06 1.83059e-07 -5.67722e-09)
(-5.224e-06 3.75674e-08 -3.97191e-09)
(-5.29054e-06 -8.37933e-09 -5.63844e-09)
(-5.4017e-06 -7.60668e-08 -1.02807e-08)
(-5.62673e-06 -2.43282e-07 -1.45291e-08)
(-6.06593e-06 -4.64934e-07 -1.42072e-08)
(-6.05576e-06 -3.1067e-07 -9.13608e-09)
(-5.2006e-06 5.6978e-07 -8.09323e-09)
(-5.12779e-06 1.77945e-07 -1.57966e-08)
(-5.17431e-06 3.55305e-08 -1.85642e-08)
(-5.23934e-06 -1.09575e-08 -2.0447e-08)
(-5.34827e-06 -7.90757e-08 -2.29133e-08)
(-5.57057e-06 -2.44304e-07 -2.4802e-08)
(-6.00669e-06 -4.62638e-07 -2.4028e-08)
(-6.00159e-06 -3.11001e-07 -2.08948e-08)
(-5.17532e-06 5.59332e-07 -4.90806e-09)
(-5.10332e-06 1.72585e-07 -1.03457e-08)
(-5.14929e-06 3.29169e-08 -1.29738e-08)
(-5.21327e-06 -1.27285e-08 -1.44491e-08)
(-5.32085e-06 -8.04218e-08 -1.56489e-08)