/*--------------------------------*- C++ -*----------------------------------*\
| =========                 |                                                 |
| \\      /  F ield         | OpenFOAM: The Open Source CFD Toolbox           |
|  \\    /   O peration     | Version:  v1912                                 |
|   \\  /    A nd           | Website:  www.openfoam.com                      |
|    \\/     M anipulation  |                                                 |
\*---------------------------------------------------------------------------*/
FoamFile
{
    version     2.0;
    format      ascii;
    class       volVectorField;
    location    "0.08/solid";
    object      D_0;
}
// * * * * * * * * * * * * * * * * * * * * * * * * * * * * * * * * * * * * * //

dimensions      [0 1 0 0 0 0 0];


internalField   nonuniform List<vector> 
256
(
(-6.90344e-09 1.05234e-08 -1.12418e-08)
(-3.40816e-09 9.22133e-09 -5.15503e-09)
(3.48606e-09 9.24242e-09 -5.21324e-09)
(6.52105e-09 1.07738e-08 -1.14281e-08)
(-1.09161e-08 1.79133e-08 -2.83054e-08)
(-5.18161e-09 1.76235e-08 -2.09416e-08)
(5.07719e-09 1.76974e-08 -2.10699e-08)
(1.01913e-08 1.82015e-08 -2.87003e-08)
(-1.05856e-08 2.8868e-08 -4.28717e-08)
(-5.22727e-09 2.87089e-08 -3.61456e-08)
(4.90395e-09 2.88103e-08 -3.62969e-08)
(9.65632e-09 2.91777e-08 -4.33275e-08)
(-9.30497e-09 4.22402e-08 -5.65588e-08)
(-4.85545e-09 4.26525e-08 -4.98787e-08)
(4.34562e-09 4.27626e-08 -5.00221e-08)
(8.21261e-09 4.25587e-08 -5.69868e-08)
(-8.86613e-09 5.74379e-08 -7.03644e-08)
(-4.85543e-09 5.9242e-08 -6.32027e-08)
(4.18556e-09 5.93476e-08 -6.332e-08)
(7.63278e-09 5.77429e-08 -7.07117e-08)
(-1.17274e-08 7.49605e-08 -8.56369e-08)
(-6.34439e-09 7.83989e-08 -7.78093e-08)
(5.53417e-09 7.84854e-08 -7.78888e-08)
(1.03619e-08 7.52197e-08 -8.58689e-08)
(-2.15865e-08 9.70261e-08 -1.0404e-07)
(-1.03636e-08 9.91226e-08 -9.58502e-08)
(9.44338e-09 9.91832e-08 -9.58828e-08)
(2.00591e-08 9.72171e-08 -1.04136e-07)
(-3.79862e-08 1.17244e-07 -1.23563e-07)
(-1.4635e-08 1.0974e-07 -1.15971e-07)
(1.36403e-08 1.09826e-07 -1.15954e-07)
(3.6214e-08 1.17523e-07 -1.2353e-07)
(4.42293e-09 1.29564e-08 -9.8608e-09)
(-9.72966e-10 8.78887e-09 -1.0801e-08)
(1.03714e-09 8.83864e-09 -1.08141e-08)
(-4.66312e-09 1.32486e-08 -9.90947e-09)
(6.03728e-09 2.48895e-08 -2.57703e-08)
(-8.46e-10 2.31054e-08 -2.78573e-08)
(7.81494e-10 2.31981e-08 -2.79048e-08)
(-6.50171e-09 2.52065e-08 -2.59272e-08)
(6.64669e-09 3.73566e-08 -4.02032e-08)
(-6.29384e-10 3.68682e-08 -4.284e-08)
(3.82432e-10 3.69752e-08 -4.29037e-08)
(-7.27881e-09 3.7676e-08 -4.04081e-08)
(7.51295e-09 5.11456e-08 -5.39268e-08)
(-3.96857e-10 5.15564e-08 -5.66075e-08)
(-3.70693e-11 5.16645e-08 -5.66659e-08)
(-8.31261e-09 5.14628e-08 -5.41169e-08)
(7.76694e-09 6.61399e-08 -6.76574e-08)
(-5.15726e-10 6.79739e-08 -7.01206e-08)
(-1.08493e-10 6.80754e-08 -7.01573e-08)
(-8.73961e-09 6.64445e-08 -6.77856e-08)
(4.92549e-09 8.22144e-08 -8.1998e-08)
(-2.06718e-09 8.57082e-08 -8.41874e-08)
(1.25154e-09 8.57944e-08 -8.4192e-08)
(-6.08429e-09 8.2488e-08 -8.20323e-08)
(-4.91997e-09 9.90957e-08 -9.5894e-08)
(-6.14009e-09 1.01191e-07 -9.79188e-08)
(5.1512e-09 1.01266e-07 -9.78897e-08)
(3.52453e-09 9.93394e-08 -9.58254e-08)
(-2.16804e-08 1.07188e-07 -1.0331e-07)
(-1.04648e-08 9.90878e-08 -1.05339e-07)
(9.33503e-09 9.92247e-08 -1.05296e-07)
(1.99434e-08 1.07597e-07 -1.0319e-07)
(1.00539e-08 1.37465e-08 -6.78153e-09)
(1.13632e-09 8.30193e-09 -8.67883e-09)
(-1.06885e-09 8.35362e-09 -8.69244e-09)
(-1.02425e-08 1.40247e-08 -6.83131e-09)
(1.62053e-08 2.7804e-08 -2.02977e-08)
(3.13124e-09 2.49066e-08 -2.37422e-08)
(-3.16286e-09 2.50013e-08 -2.37778e-08)
(-1.65579e-08 2.81117e-08 -2.04157e-08)
(1.75274e-08 4.15356e-08 -3.34113e-08)
(3.70846e-09 4.06664e-08 -3.73126e-08)
(-3.89663e-09 4.07767e-08 -3.73584e-08)
(-1.802e-08 4.18589e-08 -3.356e-08)
(1.80699e-08 5.55059e-08 -4.61064e-08)
(3.83189e-09 5.5948e-08 -5.00222e-08)
(-4.20053e-09 5.60625e-08 -5.00642e-08)
(-1.8727e-08 5.58422e-08 -4.62461e-08)
(1.79921e-08 6.94148e-08 -5.84679e-08)
(3.58835e-09 7.14029e-08 -6.22431e-08)
(-4.16221e-09 7.15162e-08 -6.22692e-08)
(-1.88404e-08 6.97583e-08 -5.85642e-08)
(1.49117e-08 8.26567e-08 -7.00714e-08)
(1.96461e-09 8.63129e-08 -7.36733e-08)
(-2.76387e-09 8.64201e-08 -7.36764e-08)
(-1.59838e-08 8.29975e-08 -7.0101e-08)
(4.87758e-09 9.46969e-08 -7.89384e-08)
(-2.1553e-09 9.69512e-08 -8.23935e-08)
(1.13253e-09 9.70606e-08 -8.23764e-08)
(-6.24348e-09 9.5046e-08 -7.8902e-08)
(-1.18692e-08 9.83139e-08 -8.11827e-08)
(-6.53067e-09 9.05676e-08 -8.46004e-08)
(5.30152e-09 9.07523e-08 -8.45847e-08)
(1.0085e-08 9.88624e-08 -8.11335e-08)
(1.15029e-08 1.40759e-08 -5.42121e-09)
(1.83753e-09 8.14684e-09 -6.4624e-09)
(-1.75816e-09 8.19751e-09 -6.47774e-09)
(-1.16782e-08 1.43467e-08 -5.47005e-09)
(1.94334e-08 2.88454e-08 -1.66388e-08)
(4.64413e-09 2.5413e-08 -1.85771e-08)
(-4.64256e-09 2.55067e-08 -1.86104e-08)
(-1.97478e-08 2.91443e-08 -1.67392e-08)
(2.12952e-08 4.301e-08 -2.77545e-08)
(5.46904e-09 4.19212e-08 -2.99647e-08)
(-5.60663e-09 4.20342e-08 -3.00047e-08)
(-2.17322e-08 4.33369e-08 -2.78743e-08)
(2.17123e-08 5.66948e-08 -3.85203e-08)
(5.55378e-09 5.71713e-08 -4.07289e-08)
(-5.86461e-09 5.72943e-08 -4.07657e-08)
(-2.23086e-08 5.70535e-08 -3.86331e-08)
(2.13265e-08 6.93466e-08 -4.86114e-08)
(5.2022e-09 7.14743e-08 -5.07112e-08)
(-5.72524e-09 7.16037e-08 -5.07369e-08)
(-2.21235e-08 6.97353e-08 -4.86943e-08)
(1.79445e-08 8.04041e-08 -5.72143e-08)
(3.4872e-09 8.42227e-08 -5.91751e-08)
(-4.2585e-09 8.43549e-08 -5.91853e-08)
(-1.89909e-08 8.08171e-08 -5.72522e-08)
(7.74441e-09 9.00878e-08 -6.27705e-08)
(-6.72342e-10 9.25873e-08 -6.46122e-08)
(-3.62355e-10 9.27312e-08 -6.4611e-08)
(-9.12756e-09 9.05383e-08 -6.27678e-08)
(-8.92383e-09 9.28529e-08 -6.35316e-08)
(-5.08092e-09 8.57407e-08 -6.53911e-08)
(3.78132e-09 8.59656e-08 -6.53963e-08)
(7.06166e-09 9.3524e-08 -6.35323e-08)
(1.15066e-08 1.41099e-08 -4.33781e-09)
(1.87554e-09 8.07782e-09 -4.71313e-09)
(-1.78673e-09 8.12835e-09 -4.72636e-09)
(-1.16772e-08 1.43793e-08 -4.37765e-09)
(1.96581e-08 2.89723e-08 -1.3207e-08)
(4.80172e-09 2.53842e-08 -1.38981e-08)
(-4.77597e-09 2.5478e-08 -1.39258e-08)
(-1.99559e-08 2.92686e-08 -1.32861e-08)
(2.1665e-08 4.30465e-08 -2.19778e-08)
(5.69584e-09 4.18928e-08 -2.27599e-08)
(-5.79769e-09 4.20088e-08 -2.27921e-08)
(-2.20751e-08 4.33787e-08 -2.207e-08)
(2.20206e-08 5.62385e-08 -3.03701e-08)
(5.76363e-09 5.67563e-08 -3.11313e-08)
(-6.03304e-09 5.68872e-08 -3.11611e-08)
(-2.25856e-08 5.6617e-08 -3.04568e-08)
(2.14384e-08 6.79363e-08 -3.79531e-08)
(5.34479e-09 7.01636e-08 -3.86368e-08)
(-5.83013e-09 7.03072e-08 -3.8659e-08)
(-2.22096e-08 6.83636e-08 -3.80193e-08)
(1.785e-08 7.78339e-08 -4.40011e-08)
(3.56434e-09 8.17743e-08 -4.45893e-08)
(-4.31406e-09 8.19279e-08 -4.46014e-08)
(-1.88887e-08 7.83068e-08 -4.40375e-08)
(7.56433e-09 8.67301e-08 -4.75723e-08)
(-6.17898e-10 8.94316e-08 -4.80861e-08)
(-4.26227e-10 8.96037e-08 -4.80918e-08)
(-8.97224e-09 8.72624e-08 -4.75838e-08)
(-9.05064e-09 8.95178e-08 -4.79562e-08)
(-5.05167e-09 8.28979e-08 -4.85015e-08)
(3.69462e-09 8.31552e-08 -4.85145e-08)
(7.11609e-09 9.02885e-08 -4.79766e-08)
(1.12594e-08 1.40122e-08 -3.18912e-09)
(1.779e-09 8.01029e-09 -3.27726e-09)
(-1.68438e-09 8.06109e-09 -3.28675e-09)
(-1.14269e-08 1.42816e-08 -3.21716e-09)
(1.91906e-08 2.87152e-08 -9.59658e-09)
(4.61344e-09 2.51369e-08 -9.73164e-09)
(-4.57247e-09 2.52315e-08 -9.7514e-09)
(-1.9478e-08 2.9012e-08 -9.65216e-09)
(2.11284e-08 4.25131e-08 -1.58743e-08)
(5.48122e-09 4.13766e-08 -1.60043e-08)
(-5.56047e-09 4.14953e-08 -1.60272e-08)
(-2.15218e-08 4.2851e-08 -1.59386e-08)
(2.14183e-08 5.52522e-08 -2.17928e-08)
(5.52791e-09 5.58135e-08 -2.18913e-08)
(-5.77109e-09 5.59506e-08 -2.19126e-08)
(-2.19641e-08 5.56463e-08 -2.18531e-08)
(2.07281e-08 6.63751e-08 -2.69942e-08)
(5.07326e-09 6.8666e-08 -2.7043e-08)
(-5.53509e-09 6.88203e-08 -2.70592e-08)
(-2.1484e-08 6.68311e-08 -2.7041e-08)
(1.7034e-08 7.57819e-08 -3.09853e-08)
(3.25908e-09 7.97965e-08 -3.09795e-08)
(-3.99706e-09 7.99659e-08 -3.09894e-08)
(-1.80704e-08 7.62989e-08 -3.10129e-08)
(6.71584e-09 8.45055e-08 -3.3256e-08)
(-9.33282e-10 8.73259e-08 -3.32129e-08)
(-1.2234e-10 8.75187e-08 -3.32193e-08)
(-8.14558e-09 8.50977e-08 -3.32686e-08)
(-9.86856e-09 8.74202e-08 -3.35065e-08)
(-5.38459e-09 8.10736e-08 -3.34876e-08)
(3.97966e-09 8.13551e-08 -3.35002e-08)
(7.87666e-09 8.82652e-08 -3.35279e-08)
(1.10801e-08 1.38997e-08 -1.95121e-09)
(1.70823e-09 7.94473e-09 -1.9562e-09)
(-1.61039e-09 7.9958e-09 -1.96175e-09)
(-1.12455e-08 1.41692e-08 -1.96752e-09)
(1.88073e-08 2.83992e-08 -5.8193e-09)
(4.4536e-09 2.48674e-08 -5.80174e-09)
(-4.40406e-09 2.49627e-08 -5.81335e-09)
(-1.90883e-08 2.86971e-08 -5.85172e-09)
(2.06456e-08 4.19371e-08 -9.57449e-09)
(5.28016e-09 4.08374e-08 -9.53037e-09)
(-5.3467e-09 4.09583e-08 -9.54385e-09)
(-2.1029e-08 4.22797e-08 -9.61194e-09)
(2.08749e-08 5.43657e-08 -1.30737e-08)
(5.30562e-09 5.49622e-08 -1.30035e-08)
(-5.53434e-09 5.51036e-08 -1.3016e-08)
(-2.14097e-08 5.47706e-08 -1.31087e-08)
(2.01271e-08 6.5192e-08 -1.60964e-08)
(4.83216e-09 6.75198e-08 -1.59986e-08)
(-5.2819e-09 6.76812e-08 -1.60082e-08)
(-2.0875e-08 6.56672e-08 -1.61236e-08)
(1.63862e-08 7.44219e-08 -1.83711e-08)
(3.00313e-09 7.84747e-08 -1.82472e-08)
(-3.73733e-09 7.86543e-08 -1.82533e-08)
(-1.74238e-08 7.49678e-08 -1.83874e-08)
(6.05868e-09 8.31448e-08 -1.96492e-08)
(-1.1934e-09 8.60205e-08 -1.95101e-08)
(1.25621e-10 8.62268e-08 -1.95145e-08)
(-7.50601e-09 8.37763e-08 -1.96574e-08)
(-1.05069e-08 8.61587e-08 -1.98008e-08)
(-5.65446e-09 7.99317e-08 -1.96751e-08)
(4.21277e-09 8.02292e-08 -1.96835e-08)
(8.47349e-09 8.70527e-08 -1.9815e-08)
(1.09994e-08 1.38319e-08 -6.56659e-10)
(1.67782e-09 7.9038e-09 -6.52866e-10)
(-1.57862e-09 7.95502e-09 -6.54683e-10)
(-1.11638e-08 1.41016e-08 -6.61977e-10)
(1.86292e-08 2.82033e-08 -1.94929e-09)
(4.3806e-09 2.47019e-08 -1.93209e-09)
(-4.32748e-09 2.47978e-08 -1.9359e-09)
(-1.89072e-08 2.85022e-08 -1.95988e-09)
(2.04112e-08 4.15935e-08 -3.19746e-09)
(5.18363e-09 4.05178e-08 -3.16833e-09)
(-5.24501e-09 4.06399e-08 -3.17276e-09)
(-2.07904e-08 4.1939e-08 -3.20968e-09)
(2.06058e-08 5.38698e-08 -4.35335e-09)
(5.19641e-09 5.44856e-08 -4.31441e-09)
(-5.41965e-09 5.46293e-08 -4.31851e-09)
(-2.11364e-08 5.42806e-08 -4.36475e-09)
(1.98317e-08 6.45743e-08 -5.34395e-09)
(4.71423e-09 6.69192e-08 -5.29611e-09)
(-5.16023e-09 6.70842e-08 -5.29929e-09)
(-2.05776e-08 6.50594e-08 -5.35276e-09)
(1.6073e-08 7.37512e-08 -6.08358e-09)
(2.8794e-09 7.78195e-08 -6.02819e-09)
(-3.61459e-09 7.80043e-08 -6.03024e-09)
(-1.71137e-08 7.43118e-08 -6.08884e-09)
(5.74347e-09 8.24944e-08 -6.49778e-09)
(-1.31888e-09 8.53899e-08 -6.43852e-09)
(2.41582e-10 8.56031e-08 -6.44005e-09)
(-7.20263e-09 8.31458e-08 -6.50041e-09)
(-1.08124e-08 8.55611e-08 -6.54897e-09)
(-5.7841e-09 7.93743e-08 -6.49387e-09)
(4.32005e-09 7.968e-08 -6.49679e-09)
(8.7547e-09 8.64799e-08 -6.55373e-09)
)
;

boundaryField
{
    interface
    {
        type            solidTraction;
        traction        uniform (0 0 0);
        pressure        uniform 0;
        secondOrder     false;
        setEffectiveTraction false;
        relaxationFactor 1;
        value           nonuniform List<vector> 
192
(
(7.11551e-08 6.06842e-09 -8.48356e-09)
(6.657e-08 1.69927e-08 -2.38848e-08)
(6.76837e-08 2.92707e-08 -3.82518e-08)
(6.9823e-08 4.26701e-08 -5.20693e-08)
(7.15981e-08 5.68324e-08 -6.60167e-08)
(7.14088e-08 7.17805e-08 -8.13934e-08)
(6.65816e-08 9.04616e-08 -9.98525e-08)
(4.64442e-08 1.1303e-07 -1.19395e-07)
(8.52327e-08 1.55714e-08 -5.62206e-09)
(8.59886e-08 2.54454e-08 -1.89907e-08)
(8.72049e-08 3.77255e-08 -3.31757e-08)
(8.89661e-08 5.14256e-08 -4.70838e-08)
(9.07073e-08 6.54931e-08 -6.09435e-08)
(9.08316e-08 7.90428e-08 -7.53388e-08)
(8.66519e-08 9.24445e-08 -8.92786e-08)
(6.64903e-08 1.02953e-07 -9.67813e-08)
(8.55802e-08 2.03112e-08 -5.01201e-09)
(9.0956e-08 2.96723e-08 -1.69492e-08)
(9.28753e-08 4.20017e-08 -2.97498e-08)
(9.4274e-08 5.56221e-08 -4.25571e-08)
(9.56104e-08 6.86254e-08 -5.50785e-08)
(9.53638e-08 7.93783e-08 -6.68171e-08)
(9.08118e-08 8.8002e-08 -7.57728e-08)
(7.12827e-08 9.40251e-08 -7.79939e-08)
(8.44764e-08 2.18099e-08 -5.05837e-09)
(9.16017e-08 3.12934e-08 -1.5776e-08)
(9.40673e-08 4.35797e-08 -2.67205e-08)
(9.53129e-08 5.67027e-08 -3.7533e-08)
(9.62793e-08 6.84048e-08 -4.77502e-08)
(9.56295e-08 7.70088e-08 -5.648e-08)
(9.07769e-08 8.33711e-08 -6.20991e-08)
(7.15965e-08 8.84847e-08 -6.28272e-08)
(8.33292e-08 2.1901e-08 -4.39893e-09)
(9.06764e-08 3.15119e-08 -1.32679e-08)
(9.32811e-08 4.36371e-08 -2.20198e-08)
(9.44389e-08 5.61819e-08 -3.04439e-08)
(9.51628e-08 6.68938e-08 -3.8103e-08)
(9.42427e-08 7.43657e-08 -4.4229e-08)
(8.92306e-08 8.00054e-08 -4.78297e-08)
(7.02364e-08 8.50853e-08 -4.81926e-08)
(8.25189e-08 2.16246e-08 -3.29589e-09)
(8.9658e-08 3.11825e-08 -9.80944e-09)
(9.21839e-08 4.307e-08 -1.61294e-08)
(9.32539e-08 5.51522e-08 -2.20794e-08)
(9.38385e-08 6.52792e-08 -2.73222e-08)
(9.27754e-08 7.22792e-08 -3.13514e-08)
(8.76932e-08 7.77803e-08 -3.36326e-08)
(6.87931e-08 8.29525e-08 -3.38707e-08)
(8.20564e-08 2.13714e-08 -2.01629e-09)
(8.90003e-08 3.07905e-08 -5.95976e-09)
(9.14181e-08 4.2454e-08 -9.75392e-09)
(9.24128e-08 5.42361e-08 -1.32769e-08)
(9.29206e-08 6.407e-08 -1.63207e-08)
(9.17908e-08 7.09052e-08 -1.86115e-08)
(8.66815e-08 7.6422e-08 -1.98924e-08)
(6.78297e-08 8.16773e-08 -2.00368e-08)
(8.18549e-08 2.12389e-08 -6.76868e-10)
(8.87051e-08 3.05562e-08 -1.99387e-09)
(9.10621e-08 4.20877e-08 -3.25609e-09)
(9.20145e-08 5.3725e-08 -4.42067e-09)
(9.24874e-08 6.34413e-08 -5.41784e-09)
(9.13312e-08 7.02295e-08 -6.16192e-09)
(8.62128e-08 7.57735e-08 -6.57662e-09)
(6.73826e-08 8.10762e-08 -6.62538e-09)
(-6.75902e-09 6.36537e-10 7.21192e-08)
(-1.12833e-08 1.00058e-08 5.4643e-08)
(-1.12119e-08 2.18047e-08 4.07674e-08)
(-9.87755e-09 3.53671e-08 2.77667e-08)
(-9.24742e-09 5.01685e-08 1.514e-08)
(-1.18902e-08 6.65416e-08 2.48538e-09)
(-2.16309e-08 8.75446e-08 -1.0737e-08)
(-3.81702e-08 1.12412e-07 -3.34351e-08)
(-1.89943e-09 2.69717e-09 8.11745e-08)
(-3.37087e-09 9.87591e-09 6.53933e-08)
(-3.58168e-09 2.14747e-08 5.09462e-08)
(-3.21942e-09 3.58882e-08 3.80564e-08)
(-3.09248e-09 5.22594e-08 2.61997e-08)
(-4.40558e-09 7.0237e-08 1.46874e-08)
(-8.32244e-09 8.95821e-08 2.57309e-09)
(-1.27311e-08 1.04809e-07 -2.09371e-08)
(1.91939e-09 2.67165e-09 8.07642e-08)
(3.13943e-09 9.92649e-09 6.4877e-08)
(3.11039e-09 2.15722e-08 5.0397e-08)
(2.57048e-09 3.60068e-08 3.75112e-08)
(2.31017e-09 5.23809e-08 2.56791e-08)
(3.5211e-09 7.03446e-08 1.42063e-08)
(7.37365e-09 8.96668e-08 2.14859e-09)
(1.17525e-08 1.04903e-07 -2.12455e-08)
(6.31669e-09 7.41782e-10 7.07178e-08)
(1.04338e-08 1.02267e-08 5.29208e-08)
(1.01391e-08 2.21061e-08 3.89674e-08)
(8.649e-09 3.57126e-08 2.59922e-08)
(7.90127e-09 5.05224e-08 1.34496e-08)
(1.04465e-08 6.68635e-08 9.20991e-10)
(2.00671e-08 8.78019e-08 -1.21421e-08)
(3.64038e-08 1.12713e-07 -3.45721e-08)
(-7.35019e-08 6.59584e-09 -8.73308e-09)
(-6.92234e-08 1.74178e-08 -2.44044e-08)
(-7.05066e-08 2.96724e-08 -3.88509e-08)
(-7.27533e-08 4.30646e-08 -5.2636e-08)
(-7.45956e-08 5.72055e-08 -6.64831e-08)
(-7.44641e-08 7.21129e-08 -8.17138e-08)
(-6.98364e-08 9.07539e-08 -9.99976e-08)
(-5.06158e-08 1.13419e-07 -1.19366e-07)
(-8.68961e-08 1.60398e-08 -5.71801e-09)
(-8.78052e-08 2.58604e-08 -1.92392e-08)
(-8.91495e-08 3.81288e-08 -3.34883e-08)
(-9.10168e-08 5.1828e-08 -4.73813e-08)
(-9.28437e-08 6.58873e-08 -6.11667e-08)
(-9.30537e-08 7.94218e-08 -7.54453e-08)
(-8.91093e-08 9.28322e-08 -8.92492e-08)
(-6.99543e-08 1.03518e-07 -9.66574e-08)
(-8.72179e-08 2.07249e-08 -5.07707e-09)
(-9.26777e-08 3.00561e-08 -1.71036e-08)
(-9.46971e-08 4.24012e-08 -2.99461e-08)
(-9.61995e-08 5.60473e-08 -4.27465e-08)
(-9.76389e-08 6.90724e-08 -5.52177e-08)
(-9.75117e-08 7.9848e-08 -6.68739e-08)
(-9.32404e-08 8.85285e-08 -7.57385e-08)
(-7.47555e-08 9.47688e-08 -7.79127e-08)
(-8.62032e-08 2.22033e-08 -5.11105e-09)
(-9.33868e-08 3.16579e-08 -1.58893e-08)
(-9.59354e-08 4.39771e-08 -2.68601e-08)
(-9.72803e-08 5.71512e-08 -3.76681e-08)
(-9.83599e-08 6.89057e-08 -4.78516e-08)
(-9.78554e-08 7.75678e-08 -5.65256e-08)
(-9.33222e-08 8.40248e-08 -6.20852e-08)
(-7.52202e-08 8.93847e-08 -6.27897e-08)
(-8.5136e-08 2.22876e-08 -4.44022e-09)
(-9.25303e-08 3.18681e-08 -1.33533e-08)
(-9.52083e-08 4.40361e-08 -2.21223e-08)
(-9.64613e-08 5.66506e-08 -3.05426e-08)
(-9.73045e-08 6.74392e-08 -3.81789e-08)
(-9.65482e-08 7.49972e-08 -4.42673e-08)
(-9.18864e-08 8.07608e-08 -4.7829e-08)
(-7.40033e-08 8.6112e-08 -4.81801e-08)
(-8.43797e-08 2.20079e-08 -3.32491e-09)
(-9.15595e-08 3.15358e-08 -9.86886e-09)
(-9.41528e-08 4.34725e-08 -1.61999e-08)
(-9.53157e-08 5.56368e-08 -2.21469e-08)
(-9.60235e-08 6.58575e-08 -2.73744e-08)
(-9.51375e-08 7.2964e-08 -3.13789e-08)
(-9.04293e-08 7.86105e-08 -3.36349e-08)
(-7.26684e-08 8.40734e-08 -3.38671e-08)
(-8.39494e-08 2.17528e-08 -2.03318e-09)
(-9.09301e-08 3.1143e-08 -5.99431e-09)
(-9.34121e-08 4.28601e-08 -9.79468e-09)
(-9.44985e-08 5.47321e-08 -1.33155e-08)
(-9.51328e-08 6.46705e-08 -1.63501e-08)
(-9.41892e-08 7.16252e-08 -1.86265e-08)
(-8.94703e-08 7.73016e-08 -1.9893e-08)
(-7.1778e-08 8.28607e-08 -2.00344e-08)
(-8.37629e-08 2.16195e-08 -6.82366e-10)
(-9.06483e-08 3.09089e-08 -2.0051e-09)
(-9.30682e-08 4.24963e-08 -3.26928e-09)
(-9.41124e-08 5.42273e-08 -4.43303e-09)
(-9.47137e-08 6.40536e-08 -5.42708e-09)
(-9.37489e-08 7.09677e-08 -6.16633e-09)
(-8.90298e-08 7.66783e-08 -6.57622e-09)
(-7.13702e-08 8.22914e-08 -6.624e-09)
(-3.82156e-08 2.71111e-08 -1.23465e-07)
(-2.17711e-08 1.38749e-08 -9.85777e-08)
(-1.20753e-08 1.01787e-08 -7.75991e-08)
(-9.32803e-09 7.32254e-09 -6.13326e-08)
(-9.61001e-09 5.11479e-09 -4.65981e-08)
(-1.05139e-08 3.53865e-09 -3.26667e-08)
(-1.11889e-08 2.53424e-09 -1.9336e-08)
(-1.15062e-08 2.04734e-09 -6.39957e-09)
(-1.27792e-08 1.47037e-08 -1.15774e-07)
(-8.47253e-09 6.62642e-10 -1.00546e-07)
(-4.63872e-09 -1.92708e-09 -8.12637e-08)
(-3.35751e-09 -3.6633e-09 -6.34737e-08)
(-3.45944e-09 -5.08948e-09 -4.73348e-08)
(-3.86671e-09 -6.25573e-09 -3.2746e-08)
(-4.17048e-09 -7.09033e-09 -1.92502e-08)
(-4.31221e-09 -7.5234e-09 -6.35453e-09)
(1.16962e-08 1.51159e-08 -1.15765e-07)
(7.20917e-09 1.19173e-09 -1.00528e-07)
(3.22938e-09 -1.34011e-09 -8.12699e-08)
(1.8371e-09 -3.03395e-09 -6.3497e-08)
(1.8486e-09 -4.4282e-09 -4.73619e-08)
(2.18342e-09 -5.5712e-09 -3.27687e-08)
(2.43417e-09 -6.39045e-09 -1.92647e-08)
(2.54529e-09 -6.81571e-09 -6.35948e-09)
(3.63437e-08 2.85606e-08 -1.23453e-07)
(1.98919e-08 1.55946e-08 -9.8525e-08)
(1.01061e-08 1.2061e-08 -7.76151e-08)
(7.24355e-09 9.33942e-09 -6.13887e-08)
(7.42294e-09 7.23696e-09 -4.66618e-08)
(8.24697e-09 5.73784e-09 -3.27189e-08)
(8.86556e-09 4.7842e-09 -1.93687e-08)
(9.15092e-09 4.32313e-09 -6.41055e-09)
)
;
        gradient        uniform (0 0 0);
    }
    symmetry
    {
        type            solidSymmetry;
        patchType       symmetry;
        secondOrder     false;
        value           nonuniform List<vector> 
32
(
(1.09994e-08 1.38319e-08 0)
(1.86292e-08 2.82033e-08 0)
(2.04112e-08 4.15935e-08 0)
(2.06058e-08 5.38698e-08 0)
(1.98317e-08 6.45743e-08 0)
(1.6073e-08 7.37512e-08 0)
(5.74347e-09 8.24944e-08 0)
(-1.08124e-08 8.55611e-08 0)
(1.67782e-09 7.9038e-09 0)
(4.3806e-09 2.47019e-08 0)
(5.18363e-09 4.05178e-08 0)
(5.19641e-09 5.44856e-08 0)
(4.71423e-09 6.69192e-08 0)
(2.8794e-09 7.78195e-08 0)
(-1.31888e-09 8.53899e-08 0)
(-5.7841e-09 7.93743e-08 0)
(-1.57862e-09 7.95502e-09 0)
(-4.32748e-09 2.47978e-08 0)
(-5.24501e-09 4.06399e-08 0)
(-5.41965e-09 5.46293e-08 0)
(-5.16023e-09 6.70842e-08 0)
(-3.61459e-09 7.80043e-08 0)
(2.41582e-10 8.56031e-08 0)
(4.32005e-09 7.968e-08 0)
(-1.11638e-08 1.41016e-08 0)
(-1.89072e-08 2.85022e-08 0)
(-2.07904e-08 4.1939e-08 0)
(-2.11364e-08 5.42806e-08 0)
(-2.05776e-08 6.50594e-08 0)
(-1.71137e-08 7.43118e-08 0)
(-7.20263e-09 8.31458e-08 0)
(8.7547e-09 8.64799e-08 0)
)
;
    }
    bottom
    {
        type            fixedDisplacement;
        value           uniform (0 0 0);
    }
}


// ************************************************************************* //
