/*--------------------------------*- C++ -*----------------------------------*\
| =========                 |                                                 |
| \\      /  F ield         | OpenFOAM: The Open Source CFD Toolbox           |
|  \\    /   O peration     | Version:  v1912                                 |
|   \\  /    A nd           | Website:  www.openfoam.com                      |
|    \\/     M anipulation  |                                                 |
\*---------------------------------------------------------------------------*/
FoamFile
{
    version     2.0;
    format      ascii;
    class       volVectorField;
    location    "0.08/solid";
    object      DD;
}
// * * * * * * * * * * * * * * * * * * * * * * * * * * * * * * * * * * * * * //

dimensions      [0 1 0 0 0 0 0];


internalField   nonuniform List<vector> 
256
(
(2.16461e-09 1.06498e-09 3.0946e-09)
(5.2091e-10 1.87019e-10 2.05954e-09)
(-3.28409e-10 1.6167e-10 2.12556e-09)
(-1.89901e-09 9.03841e-10 3.33131e-09)
(3.30492e-09 -5.54457e-10 6.37179e-09)
(1.10073e-09 -1.06231e-09 5.15073e-09)
(-4.07906e-10 -1.18444e-09 5.31239e-09)
(-2.5103e-09 -1.00095e-09 6.90156e-09)
(3.44417e-09 -2.59643e-09 8.57788e-09)
(1.37175e-09 -2.85151e-09 7.48829e-09)
(-7.69569e-11 -3.06667e-09 7.71011e-09)
(-2.05339e-09 -3.29733e-09 9.28432e-09)
(3.50142e-09 -4.73872e-09 1.0409e-08)
(1.6095e-09 -5.00537e-09 9.38568e-09)
(3.80532e-10 -5.30216e-09 9.64458e-09)
(-1.42321e-09 -5.66642e-09 1.12258e-08)
(3.74836e-09 -6.93499e-09 1.21205e-08)
(1.95104e-09 -7.37139e-09 1.1112e-08)
(8.27233e-10 -7.74127e-09 1.13941e-08)
(-8.87074e-10 -8.06921e-09 1.30073e-08)
(4.39769e-09 -9.20029e-09 1.39363e-08)
(2.50329e-09 -9.84484e-09 1.29368e-08)
(1.15685e-09 -1.02818e-08 1.32333e-08)
(-6.59324e-10 -1.05258e-08 1.48654e-08)
(5.8037e-09 -1.17698e-08 1.61267e-08)
(3.36594e-09 -1.23108e-08 1.51848e-08)
(1.26829e-09 -1.28093e-08 1.54911e-08)
(-1.1e-09 -1.32744e-08 1.70803e-08)
(8.02194e-09 -1.54252e-08 1.86492e-08)
(4.28932e-09 -1.48766e-08 1.78679e-08)
(1.40313e-09 -1.54225e-08 1.81827e-08)
(-2.27693e-09 -1.70967e-08 1.96197e-08)
(4.2108e-10 -5.02994e-10 1.59829e-09)
(1.28081e-10 -8.46123e-10 1.63804e-09)
(-3.50376e-11 -8.95429e-10 1.6911e-09)
(-2.47342e-10 -7.06114e-10 1.76136e-09)
(7.64088e-10 -2.23446e-09 4.41527e-09)
(3.87489e-10 -2.49893e-09 4.6049e-09)
(5.6218e-11 -2.64717e-09 4.738e-09)
(-2.11747e-10 -2.72194e-09 4.81197e-09)
(8.56243e-10 -4.09268e-09 6.67343e-09)
(5.84838e-10 -4.30979e-09 6.97431e-09)
(3.5109e-10 -4.54213e-09 7.16061e-09)
(1.83881e-10 -4.81658e-09 7.22616e-09)
(9.60885e-10 -6.08115e-09 8.55383e-09)
(8.12101e-10 -6.36579e-09 8.89816e-09)
(7.40494e-10 -6.67199e-09 9.1187e-09)
(6.90822e-10 -7.01801e-09 9.20987e-09)
(1.25509e-09 -8.14589e-09 1.02764e-08)
(1.15407e-09 -8.61339e-09 1.06228e-08)
(1.13216e-09 -8.98789e-09 1.08657e-08)
(1.12724e-09 -9.28183e-09 1.10014e-08)
(1.9867e-09 -1.022e-08 1.20178e-08)
(1.72348e-09 -1.09044e-08 1.23498e-08)
(1.40811e-09 -1.13435e-08 1.26073e-08)
(1.23773e-09 -1.15446e-08 1.27881e-08)
(3.56297e-09 -1.22753e-08 1.37786e-08)
(2.63349e-09 -1.28254e-08 1.40986e-08)
(1.44924e-09 -1.33245e-08 1.43654e-08)
(6.0492e-10 -1.37789e-08 1.45766e-08)
(6.05158e-09 -1.46073e-08 1.49846e-08)
(3.61381e-09 -1.39037e-08 1.52995e-08)
(1.51479e-09 -1.44469e-08 1.5571e-08)
(-8.54875e-10 -1.62765e-08 1.57958e-08)
(-4.53304e-10 -9.10099e-10 1.16963e-09)
(-1.99972e-10 -1.01308e-09 1.36159e-09)
(2.37669e-10 -1.06064e-09 1.40169e-09)
(5.65763e-10 -1.08431e-09 1.2879e-09)
(-7.56037e-10 -3.04193e-09 3.4609e-09)
(-2.47226e-10 -3.1198e-09 3.86388e-09)
(5.2822e-10 -3.26397e-09 3.96439e-09)
(1.13986e-09 -3.49156e-09 3.75226e-09)
(-7.68502e-10 -5.02809e-09 5.51612e-09)
(-1.32206e-10 -5.18111e-09 6.01129e-09)
(8.12702e-10 -5.40761e-09 6.15414e-09)
(1.54993e-09 -5.71456e-09 5.93169e-09)
(-6.3484e-10 -6.97934e-09 7.30827e-09)
(8.34288e-11 -7.26414e-09 7.83311e-09)
(1.13999e-09 -7.56365e-09 8.00537e-09)
(1.9567e-09 -7.88203e-09 7.81321e-09)
(-2.96935e-10 -8.88483e-09 8.92143e-09)
(4.27381e-10 -9.37808e-09 9.4454e-09)
(1.47423e-09 -9.74613e-09 9.63827e-09)
(2.29611e-09 -9.99217e-09 9.49052e-09)
(5.09169e-10 -1.06491e-08 1.04157e-08)
(1.01502e-09 -1.13693e-08 1.09205e-08)
(1.69245e-09 -1.1803e-08 1.11276e-08)
(2.2942e-09 -1.19522e-08 1.10296e-08)
(2.22687e-09 -1.22258e-08 1.16903e-08)
(1.97126e-09 -1.2792e-08 1.21628e-08)
(1.66138e-09 -1.32871e-08 1.23788e-08)
(1.49498e-09 -1.37156e-08 1.23325e-08)
(4.89136e-09 -1.41254e-08 1.23942e-08)
(3.00347e-09 -1.3371e-08 1.28316e-08)
(1.66095e-09 -1.39114e-08 1.30512e-08)
(-1.54811e-10 -1.57898e-08 1.30486e-08)
(-7.26702e-10 -1.04427e-09 9.47845e-10)
(-3.19166e-10 -1.04399e-09 1.04728e-09)
(3.26068e-10 -1.0864e-09 1.07662e-09)
(7.98956e-10 -1.18962e-09 1.03244e-09)
(-1.31683e-09 -3.40377e-09 2.79444e-09)
(-5.17461e-10 -3.38111e-09 3.02288e-09)
(6.95748e-10 -3.51298e-09 3.09632e-09)
(1.58786e-09 -3.80334e-09 3.00394e-09)
(-1.4211e-09 -5.53773e-09 4.51662e-09)
(-4.66528e-10 -5.64221e-09 4.80853e-09)
(9.73046e-10 -5.85456e-09 4.91381e-09)
(2.02141e-09 -6.1714e-09 4.81929e-09)
(-1.29333e-09 -7.50576e-09 6.06602e-09)
(-2.72557e-10 -7.78126e-09 6.38195e-09)
(1.2595e-09 -8.06746e-09 6.51074e-09)
(2.37393e-09 -8.36068e-09 6.44036e-09)
(-9.3566e-10 -9.30098e-09 7.44187e-09)
(6.46364e-11 -9.80611e-09 7.76077e-09)
(1.55001e-09 -1.01629e-08 7.90716e-09)
(2.64474e-09 -1.03688e-08 7.87129e-09)
(-8.81911e-11 -1.08563e-08 8.63286e-09)
(6.57795e-10 -1.15992e-08 8.94042e-09)
(1.7247e-09 -1.20241e-08 9.09965e-09)
(2.56468e-09 -1.21293e-08 9.10296e-09)
(1.70327e-09 -1.22178e-08 9.56113e-09)
(1.63504e-09 -1.28039e-08 9.84584e-09)
(1.64638e-09 -1.32929e-08 1.00133e-08)
(1.66628e-09 -1.36875e-08 1.0058e-08)
(4.45657e-09 -1.40463e-08 1.00919e-08)
(2.69197e-09 -1.32912e-08 1.03536e-08)
(1.60567e-09 -1.38283e-08 1.05239e-08)
(-8.79894e-11 -1.57012e-08 1.05995e-08)
(-7.80368e-10 -1.10398e-09 7.42442e-10)
(-3.40761e-10 -1.06543e-09 7.71137e-10)
(3.30357e-10 -1.10358e-09 7.91605e-10)
(8.27225e-10 -1.22862e-09 8.0034e-10)
(-1.44554e-09 -3.56995e-09 2.17233e-09)
(-5.8611e-10 -3.50325e-09 2.25477e-09)
(7.00843e-10 -3.62373e-09 2.30624e-09)
(1.64359e-09 -3.92831e-09 2.31713e-09)
(-1.59347e-09 -5.79325e-09 3.51831e-09)
(-5.70202e-10 -5.86973e-09 3.63539e-09)
(9.6233e-10 -6.06812e-09 3.70974e-09)
(2.0722e-09 -6.37962e-09 3.72979e-09)
(-1.48225e-09 -7.78684e-09 4.74354e-09)
(-3.98123e-10 -8.05123e-09 4.87843e-09)
(1.22226e-09 -8.32388e-09 4.97042e-09)
(2.39474e-09 -8.59675e-09 5.00878e-09)
(-1.1247e-09 -9.53502e-09 5.8209e-09)
(-7.38615e-11 -1.00414e-08 5.96209e-09)
(1.48398e-09 -1.03864e-08 6.06801e-09)
(2.62524e-09 -1.05643e-08 6.12971e-09)
(-2.64448e-10 -1.10052e-08 6.72137e-09)
(5.14265e-10 -1.17577e-08 6.85997e-09)
(1.63065e-09 -1.21732e-08 6.97651e-09)
(2.50027e-09 -1.22477e-08 7.06395e-09)
(1.55497e-09 -1.23125e-08 7.40488e-09)
(1.49484e-09 -1.29102e-08 7.53336e-09)
(1.52499e-09 -1.33923e-08 7.65683e-09)
(1.55053e-09 -1.37599e-08 7.77035e-09)
(4.34816e-09 -1.41518e-08 7.83121e-09)
(2.55903e-09 -1.33997e-08 7.94794e-09)
(1.46134e-09 -1.39323e-08 8.07346e-09)
(-2.59514e-10 -1.5793e-08 8.20518e-09)
(-7.81574e-10 -1.13215e-09 5.31584e-10)
(-3.3879e-10 -1.08193e-09 5.33129e-10)
(3.18904e-10 -1.11705e-09 5.4641e-10)
(8.13038e-10 -1.24289e-09 5.68575e-10)
(-1.45033e-09 -3.64772e-09 1.54946e-09)
(-5.92976e-10 -3.56498e-09 1.56767e-09)
(6.69736e-10 -3.67708e-09 1.6013e-09)
(1.60311e-09 -3.97687e-09 1.643e-09)
(-1.60978e-09 -5.91608e-09 2.50845e-09)
(-5.92424e-10 -5.9788e-09 2.5425e-09)
(9.12741e-10 -6.16639e-09 2.59146e-09)
(2.01077e-09 -6.46701e-09 2.64644e-09)
(-1.51064e-09 -7.93109e-09 3.38316e-09)
(-4.36109e-10 -8.1865e-09 3.42844e-09)
(1.15409e-09 -8.44822e-09 3.4896e-09)
(2.31238e-09 -8.70565e-09 3.55819e-09)
(-1.16076e-09 -9.67295e-09 4.14777e-09)
(-1.24828e-10 -1.01757e-08 4.1996e-09)
(1.39758e-09 -1.05109e-08 4.27074e-09)
(2.52028e-09 -1.06706e-08 4.35396e-09)
(-3.02005e-10 -1.11285e-08 4.77892e-09)
(4.54584e-10 -1.18822e-08 4.83275e-09)
(1.52714e-09 -1.22895e-08 4.91175e-09)
(2.37166e-09 -1.2345e-08 5.01011e-09)
(1.52453e-09 -1.24409e-08 5.2589e-09)
(1.43162e-09 -1.30409e-08 5.31017e-09)
(1.40537e-09 -1.35166e-08 5.39437e-09)
(1.39558e-09 -1.3868e-08 5.5074e-09)
(4.33458e-09 -1.43009e-08 5.57743e-09)
(2.49562e-09 -1.35437e-08 5.62299e-09)
(1.32805e-09 -1.40718e-08 5.70845e-09)
(-4.45359e-10 -1.59278e-08 5.83184e-09)
(-7.78008e-10 -1.14478e-09 3.18613e-10)
(-3.35854e-10 -1.09152e-09 3.15027e-10)
(3.11136e-10 -1.12471e-09 3.22442e-10)
(8.00847e-10 -1.24703e-09 3.39039e-10)
(-1.43964e-09 -3.68304e-09 9.27183e-10)
(-5.90768e-10 -3.59527e-09 9.27483e-10)
(6.46545e-10 -3.702e-09 9.46379e-10)
(1.56657e-09 -3.99388e-09 9.79299e-10)
(-1.59951e-09 -5.97302e-09 1.50006e-09)
(-5.96547e-10 -6.02965e-09 1.50671e-09)
(8.75558e-10 -6.21017e-09 1.53441e-09)
(1.95508e-09 -6.50106e-09 1.57754e-09)
(-1.50635e-09 -8.00336e-09 2.0222e-09)
(-4.49471e-10 -8.25298e-09 2.03474e-09)
(1.10457e-09 -8.50731e-09 2.06957e-09)
(2.24189e-09 -8.75434e-09 2.12129e-09)
(-1.16348e-09 -9.75392e-09 2.47736e-09)
(-1.4751e-10 -1.02525e-08 2.49443e-09)
(1.33702e-09 -1.05809e-08 2.53524e-09)
(2.43703e-09 -1.07299e-08 2.59506e-09)
(-3.09539e-10 -1.12187e-08 2.85225e-09)
(4.24501e-10 -1.19704e-08 2.87194e-09)
(1.45655e-09 -1.23718e-08 2.91756e-09)
(2.27622e-09 -1.24166e-08 2.9852e-09)
(1.51734e-09 -1.25476e-08 3.1396e-09)
(1.3973e-09 -1.31456e-08 3.15945e-09)
(1.32529e-09 -1.36165e-08 3.20826e-09)
(1.28633e-09 -1.39597e-08 3.28323e-09)
(4.3341e-09 -1.44243e-08 3.33673e-09)
(2.45917e-09 -1.36588e-08 3.35392e-09)
(1.23989e-09 -1.41832e-08 3.4034e-09)
(-5.71585e-10 -1.60397e-08 3.4838e-09)
(-7.76737e-10 -1.14956e-09 1.06064e-10)
(-3.34792e-10 -1.09556e-09 1.04432e-10)
(3.08093e-10 -1.12781e-09 1.06809e-10)
(7.95757e-10 -1.24782e-09 1.12576e-10)
(-1.43466e-09 -3.6966e-09 3.08458e-10)
(-5.89804e-10 -3.60746e-09 3.07417e-10)
(6.3641e-10 -3.7116e-09 3.13499e-10)
(1.55001e-09 -3.99873e-09 3.25155e-10)
(-1.59356e-09 -5.9955e-09 4.98849e-10)
(-5.98002e-10 -6.04987e-09 4.99491e-10)
(8.5845e-10 -6.22695e-09 5.08436e-10)
(1.92848e-09 -6.51248e-09 5.23778e-10)
(-1.50258e-09 -8.03397e-09 6.7225e-10)
(-4.5504e-10 -8.28086e-09 6.74696e-10)
(1.08134e-09 -8.53155e-09 6.85992e-10)
(2.20759e-09 -8.77337e-09 7.04269e-10)
(-1.16333e-09 -9.79224e-09 8.23272e-10)
(-1.57683e-10 -1.02884e-08 8.27293e-10)
(1.30851e-09 -1.06134e-08 8.4058e-10)
(2.39675e-09 -1.07574e-08 8.61468e-10)
(-3.12461e-10 -1.1266e-08 9.47715e-10)
(4.10405e-10 -1.2016e-08 9.52814e-10)
(1.42334e-09 -1.24144e-08 9.67716e-10)
(2.23061e-09 -1.24544e-08 9.91024e-10)
(1.51377e-09 -1.26057e-08 1.04358e-09)
(1.38077e-09 -1.32017e-08 1.04899e-09)
(1.28759e-09 -1.36701e-08 1.06496e-09)
(1.23458e-09 -1.401e-08 1.09049e-09)
(4.33285e-09 -1.44914e-08 1.11027e-09)
(2.44116e-09 -1.37203e-08 1.11488e-09)
(1.19843e-09 -1.42428e-08 1.13106e-09)
(-6.30926e-10 -1.61009e-08 1.1583e-09)
)
;

boundaryField
{
    interface
    {
        type            calculated;
        value           nonuniform List<vector> 
192
(
(-2.39304e-09 2.43238e-09 2.68606e-09)
(-1.58334e-09 -2.3454e-10 5.72846e-09)
(-1.42409e-09 -2.54727e-09 7.89693e-09)
(-1.27584e-09 -4.66262e-09 9.73278e-09)
(-8.82626e-10 -6.71087e-09 1.14576e-08)
(-4.95037e-11 -8.6864e-09 1.32993e-08)
(1.4859e-09 -1.08636e-08 1.55368e-08)
(4.93456e-09 -1.47771e-08 1.81227e-08)
(-5.94845e-09 -2.06677e-10 9.43846e-10)
(-5.7412e-09 -2.12563e-09 3.40006e-09)
(-5.62394e-09 -4.04344e-09 5.62029e-09)
(-5.43219e-09 -5.98139e-09 7.51979e-09)
(-4.98305e-09 -7.88938e-09 9.26509e-09)
(-4.03944e-09 -9.64294e-09 1.10457e-08)
(-2.28376e-09 -1.1259e-08 1.28844e-08)
(1.73301e-09 -1.38949e-08 1.4202e-08)
(-7.09865e-09 -1.21241e-09 8.82706e-10)
(-7.46484e-09 -3.12069e-09 2.94068e-09)
(-7.44809e-09 -4.99775e-09 4.9468e-09)
(-7.22965e-09 -6.86139e-09 6.74473e-09)
(-6.73654e-09 -8.59878e-09 8.37376e-09)
(-5.71269e-09 -1.00181e-08 9.89698e-09)
(-3.80374e-09 -1.11302e-08 1.12254e-08)
(4.41286e-10 -1.33629e-08 1.19955e-08)
(-7.6445e-09 -1.55512e-09 8.66097e-10)
(-8.27386e-09 -3.57733e-09 2.62208e-09)
(-8.34459e-09 -5.53181e-09 4.31039e-09)
(-8.12892e-09 -7.38435e-09 5.85418e-09)
(-7.61105e-09 -8.99965e-09 7.23495e-09)
(-6.53884e-09 -1.01965e-08 8.43947e-09)
(-4.54895e-09 -1.10816e-08 9.39318e-09)
(-1.81735e-10 -1.32544e-08 9.9561e-09)
(-7.89733e-09 -1.66043e-09 7.28735e-10)
(-8.59494e-09 -3.77318e-09 2.13897e-09)
(-8.70575e-09 -5.80238e-09 3.47115e-09)
(-8.50233e-09 -7.66959e-09 4.68922e-09)
(-7.97923e-09 -9.23051e-09 5.76464e-09)
(-6.88874e-09 -1.03352e-08 6.66794e-09)
(-4.86818e-09 -1.11593e-08 7.36021e-09)
(-4.43857e-10 -1.3346e-08 7.80073e-09)
(-8.02445e-09 -1.69009e-09 5.32182e-10)
(-8.72348e-09 -3.85473e-09 1.55094e-09)
(-8.84323e-09 -5.93111e-09 2.50695e-09)
(-8.64841e-09 -7.81878e-09 3.37714e-09)
(-8.12904e-09 -9.37073e-09 4.13809e-09)
(-7.03679e-09 -1.04571e-08 4.76766e-09)
(-5.00903e-09 -1.12817e-08 5.24951e-09)
(-5.58641e-10 -1.34903e-08 5.57393e-09)
(-8.09197e-09 -1.69915e-09 3.19827e-10)
(-8.78273e-09 -3.88837e-09 9.31105e-10)
(-8.90121e-09 -5.98964e-09 1.50412e-09)
(-8.71012e-09 -7.89429e-09 2.02422e-09)
(-8.1954e-09 -9.45466e-09 2.47673e-09)
(-7.10634e-09 -1.05484e-08 2.84965e-09)
(-5.07894e-09 -1.13866e-08 3.13692e-09)
(-6.17114e-10 -1.36128e-08 3.33631e-09)
(-8.12233e-09 -1.70237e-09 1.06383e-10)
(-8.80876e-09 -3.90076e-09 3.09706e-10)
(-8.92543e-09 -6.01244e-09 5.00339e-10)
(-8.73546e-09 -7.92636e-09 6.73194e-10)
(-8.22328e-09 -9.49465e-09 8.23312e-10)
(-7.13666e-09 -1.05966e-08 9.46988e-10)
(-5.11044e-09 -1.14443e-08 1.0427e-09)
(-6.44286e-10 -1.36802e-08 1.10996e-09)
(2.11002e-09 3.4316e-09 -1.62276e-09)
(3.32126e-09 8.16374e-10 1.31064e-09)
(3.51218e-09 -1.58713e-09 3.54728e-09)
(3.58362e-09 -3.85305e-09 5.48646e-09)
(3.82761e-09 -6.05317e-09 7.35799e-09)
(4.46624e-09 -8.19876e-09 9.36665e-09)
(5.8631e-09 -1.05915e-08 1.17002e-08)
(8.08979e-09 -1.47207e-08 1.54785e-08)
(2.78563e-10 1.9896e-09 -4.02592e-09)
(8.3581e-10 2.94882e-10 -1.23617e-09)
(1.15475e-09 -1.79277e-09 1.0904e-09)
(1.41833e-09 -4.09945e-09 3.0778e-09)
(1.76937e-09 -6.48362e-09 4.96356e-09)
(2.32748e-09 -8.82663e-09 6.99608e-09)
(3.20698e-09 -1.1078e-08 9.42913e-09)
(4.17264e-09 -1.41444e-08 1.36607e-08)
(-1.05481e-11 2.02115e-09 -3.99086e-09)
(2.97422e-11 2.11696e-10 -1.10962e-09)
(3.71993e-10 -1.98362e-09 1.27654e-09)
(8.40506e-10 -4.38116e-09 3.30146e-09)
(1.30102e-09 -6.84408e-09 5.21107e-09)
(1.63894e-09 -9.25758e-09 7.2587e-09)
(1.7421e-09 -1.1572e-08 9.70251e-09)
(1.84104e-09 -1.46879e-08 1.39495e-08)
(-1.77255e-09 3.46205e-09 -1.38167e-09)
(-2.3638e-09 4.87292e-10 1.84907e-09)
(-1.90167e-09 -2.21627e-09 4.26283e-09)
(-1.2486e-09 -4.73566e-09 6.31278e-09)
(-6.85173e-10 -7.15932e-09 8.25395e-09)
(-4.31603e-10 -9.50761e-09 1.03028e-08)
(-8.54547e-10 -1.20858e-08 1.26561e-08)
(-2.03502e-09 -1.63869e-08 1.64543e-08)
(3.30404e-09 2.00616e-09 2.98155e-09)
(3.02628e-09 -9.6238e-10 6.4001e-09)
(3.46116e-09 -3.56914e-09 8.80079e-09)
(3.99501e-09 -5.95804e-09 1.07845e-08)
(4.3739e-09 -8.26024e-09 1.26046e-08)
(4.3959e-09 -1.04727e-08 1.45049e-08)
(3.79061e-09 -1.287e-08 1.67767e-08)
(1.35083e-09 -1.69835e-08 1.93851e-08)
(6.79957e-09 -5.91365e-10 1.14511e-09)
(6.96755e-09 -2.82978e-09 3.89939e-09)
(7.33865e-09 -5.04226e-09 6.32528e-09)
(7.757e-09 -7.2539e-09 8.36484e-09)
(8.03083e-09 -9.4186e-09 1.02056e-08)
(7.90959e-09 -1.14141e-08 1.20496e-08)
(7.06201e-09 -1.32558e-08 1.39278e-08)
(4.03514e-09 -1.60949e-08 1.52652e-08)
(7.90956e-09 -1.51074e-09 1.02629e-09)
(8.54924e-09 -3.73763e-09 3.30234e-09)
(8.93337e-09 -5.91881e-09 5.47228e-09)
(9.25582e-09 -8.06862e-09 7.3924e-09)
(9.4338e-09 -1.00766e-08 9.11112e-09)
(9.19521e-09 -1.1752e-08 1.06978e-08)
(8.16948e-09 -1.31034e-08 1.20672e-08)
(4.89952e-09 -1.5553e-08 1.28569e-08)
(8.42356e-09 -1.78636e-09 9.67048e-10)
(9.25753e-09 -4.10899e-09 2.87799e-09)
(9.66307e-09 -6.36795e-09 4.6887e-09)
(9.92961e-09 -8.51656e-09 6.33083e-09)
(1.00348e-08 -1.04166e-08 7.78898e-09)
(9.71153e-09 -1.18848e-08 9.05142e-09)
(8.5799e-09 -1.30243e-08 1.00441e-08)
(5.1734e-09 -1.54287e-08 1.06257e-08)
(8.65049e-09 -1.84635e-09 7.96804e-10)
(9.50701e-09 -4.23959e-09 2.3133e-09)
(9.90543e-09 -6.56745e-09 3.73243e-09)
(1.01387e-08 -8.73506e-09 5.02415e-09)
(1.01989e-08 -1.05907e-08 6.16081e-09)
(9.82558e-09 -1.19791e-08 7.11218e-09)
(8.64054e-09 -1.307e-08 7.83801e-09)
(5.16292e-09 -1.54998e-08 8.2945e-09)
(8.75829e-09 -1.84696e-09 5.75159e-10)
(9.58718e-09 -4.27634e-09 1.66224e-09)
(9.96284e-09 -6.64437e-09 2.67571e-09)
(1.01723e-08 -8.83308e-09 3.59639e-09)
(1.02064e-08 -1.06855e-08 4.401e-09)
(9.80657e-09 -1.20638e-08 5.06611e-09)
(8.59575e-09 -1.31638e-08 5.57344e-09)
(5.07978e-09 -1.56235e-08 5.90984e-09)
(8.81323e-09 -1.83893e-09 3.43353e-10)
(9.61695e-09 -4.28248e-09 9.92568e-10)
(9.9721e-09 -6.66993e-09 1.59811e-09)
(1.01649e-08 -8.87488e-09 2.14748e-09)
(1.01842e-08 -1.07385e-08 2.62594e-09)
(9.77076e-09 -1.2129e-08 3.02046e-09)
(8.54732e-09 -1.32478e-08 3.32347e-09)
(5.01089e-09 -1.57299e-08 3.53018e-09)
(8.83748e-09 -1.8343e-09 1.13846e-10)
(9.62919e-09 -4.28195e-09 3.29294e-10)
(9.97358e-09 -6.67693e-09 5.30428e-10)
(1.01577e-08 -8.89049e-09 7.12839e-10)
(1.01701e-08 -1.07632e-08 8.71533e-10)
(9.75087e-09 -1.21639e-08 1.00242e-09)
(8.52208e-09 -1.32946e-08 1.10342e-09)
(4.97671e-09 -1.57887e-08 1.17313e-09)
(8.20884e-09 -1.22534e-08 1.8797e-08)
(6.23189e-09 -1.01779e-08 1.46597e-08)
(5.08402e-09 -9.55131e-09 1.2254e-08)
(4.66378e-09 -9.27892e-09 1.00985e-08)
(4.56302e-09 -9.22655e-09 7.89485e-09)
(4.55059e-09 -9.27157e-09 5.64554e-09)
(4.54845e-09 -9.33593e-09 3.38436e-09)
(4.54572e-09 -9.37711e-09 1.12706e-09)
(4.28867e-09 -1.06692e-08 1.79907e-08)
(3.57372e-09 -8.14757e-09 1.49231e-08)
(2.95e-09 -7.43097e-09 1.26784e-08)
(2.63748e-09 -7.14615e-09 1.03607e-08)
(2.50418e-09 -7.09555e-09 8.01108e-09)
(2.43837e-09 -7.1341e-09 5.68778e-09)
(2.39892e-09 -7.18792e-09 3.39807e-09)
(2.37902e-09 -7.22197e-09 1.13027e-09)
(1.95818e-09 -1.11895e-08 1.83061e-08)
(2.10802e-09 -8.65907e-09 1.51932e-08)
(2.2657e-09 -7.93965e-09 1.28966e-08)
(2.20821e-09 -7.65199e-09 1.05291e-08)
(2.05971e-09 -7.59776e-09 8.13434e-09)
(1.92408e-09 -7.63258e-09 5.77117e-09)
(1.83515e-09 -7.68347e-09 3.44615e-09)
(1.79359e-09 -7.71599e-09 1.14597e-09)
(-1.91496e-09 -1.3931e-08 1.97696e-08)
(-4.88243e-10 -1.1852e-08 1.54691e-08)
(1.96395e-10 -1.12281e-08 1.29048e-08)
(2.43985e-10 -1.09518e-08 1.06003e-08)
(5.90793e-11 -1.08902e-08 8.26181e-09)
(-1.33504e-10 -1.09245e-08 5.89351e-09)
(-2.62364e-10 -1.09801e-08 3.52708e-09)
(-3.22462e-10 -1.10166e-08 1.17358e-09)
)
;
    }
    symmetry
    {
        type            symmetry;
    }
    bottom
    {
        type            calculated;
        value           uniform (0 0 0);
    }
}


// ************************************************************************* //
