/*--------------------------------*- C++ -*----------------------------------*\
| =========                 |                                                 |
| \\      /  F ield         | OpenFOAM: The Open Source CFD Toolbox           |
|  \\    /   O peration     | Version:  v1912                                 |
|   \\  /    A nd           | Website:  www.openfoam.com                      |
|    \\/     M anipulation  |                                                 |
\*---------------------------------------------------------------------------*/
FoamFile
{
    version     2.0;
    format      ascii;
    class       pointVectorField;
    location    "0.08/solid";
    object      pointD;
}
// * * * * * * * * * * * * * * * * * * * * * * * * * * * * * * * * * * * * * //

dimensions      [0 1 0 0 0 0 0];


internalField   nonuniform List<vector> 
405
(
(2.1371e-08 4.18964e-09 2.15663e-08)
(-1.56747e-09 2.18872e-09 3.69113e-08)
(7.19947e-11 2.34489e-09 3.84805e-08)
(1.61325e-09 2.22416e-09 3.65274e-08)
(-2.18846e-08 4.26861e-09 2.11949e-08)
(3.02844e-08 1.00373e-08 2.56241e-08)
(-4.19174e-09 7.43697e-09 6.69389e-08)
(2.30523e-10 7.42214e-09 7.04616e-08)
(4.42303e-09 7.4372e-09 6.61617e-08)
(-3.09452e-08 9.99379e-09 2.50875e-08)
(2.88961e-08 1.86303e-08 1.29393e-08)
(-5.15592e-09 1.52231e-08 5.41155e-08)
(4.2239e-10 1.48949e-08 5.79087e-08)
(5.73974e-09 1.50826e-08 5.33603e-08)
(-2.92338e-08 1.82906e-08 1.24864e-08)
(3.02033e-08 2.91156e-08 1.2191e-09)
(-4.55541e-09 2.58005e-08 4.26846e-08)
(6.66333e-10 2.56712e-08 4.64142e-08)
(5.6328e-09 2.55202e-08 4.20054e-08)
(-3.00415e-08 2.85192e-08 9.08407e-10)
(3.18872e-08 4.09396e-08 -1.02861e-08)
(-3.70949e-09 3.82985e-08 3.20121e-08)
(9.74491e-10 3.86817e-08 3.60001e-08)
(5.40967e-09 3.78756e-08 3.14278e-08)
(-3.10909e-08 4.0098e-08 -1.04303e-08)
(3.23077e-08 5.39184e-08 -2.20758e-08)
(-4.06124e-09 5.24111e-08 2.17992e-08)
(1.34251e-09 5.34525e-08 2.63005e-08)
(6.50055e-09 5.18357e-08 2.13206e-08)
(-3.07648e-08 5.28261e-08 -2.204e-08)
(2.90588e-08 6.9497e-08 -3.48986e-08)
(-7.59633e-09 6.88026e-08 1.16252e-08)
(1.77056e-09 6.97741e-08 1.67505e-08)
(1.08758e-08 6.80635e-08 1.12635e-08)
(-2.67217e-08 6.8149e-08 -3.4673e-08)
(1.83995e-08 8.81238e-08 -5.06454e-08)
(-1.48805e-08 8.59533e-08 -3.06691e-09)
(2.25885e-09 8.43696e-08 2.32021e-09)
(1.90727e-08 8.5088e-08 -3.26222e-09)
(-1.54324e-08 8.65902e-08 -5.02014e-08)
(-2.9028e-09 7.02673e-08 -7.46322e-08)
(-1.9284e-08 5.1812e-08 -5.6921e-08)
(2.54974e-09 4.72101e-08 -5.24538e-08)
(2.40114e-08 5.12742e-08 -5.66392e-08)
(6.51085e-09 6.91301e-08 -7.39275e-08)
(3.70116e-08 5.96637e-09 -2.61893e-09)
(0 0 0)
(0 0 0)
(0 0 0)
(-3.75736e-08 6.01262e-09 -2.58111e-09)
(7.33201e-08 1.59858e-08 -1.10557e-08)
(-1.12202e-09 1.48218e-08 -1.3875e-08)
(1.74403e-10 1.36162e-08 -1.28046e-08)
(1.29323e-09 1.47895e-08 -1.37867e-08)
(-7.43323e-08 1.58841e-08 -1.09171e-08)
(7.32687e-08 2.51209e-08 -2.29143e-08)
(-1.11097e-09 2.43916e-08 -2.68348e-08)
(3.28508e-10 2.3853e-08 -2.58526e-08)
(1.56788e-09 2.42082e-08 -2.66741e-08)
(-7.39728e-08 2.4669e-08 -2.26393e-08)
(7.49804e-08 3.59643e-08 -3.49527e-08)
(-4.62375e-10 3.54194e-08 -3.9009e-08)
(5.32415e-10 3.52354e-08 -3.81225e-08)
(1.33321e-09 3.50883e-08 -3.87685e-08)
(-7.52186e-08 3.52176e-08 -3.45203e-08)
(7.71302e-08 4.77942e-08 -4.70345e-08)
(1.84723e-10 4.81415e-08 -5.08673e-08)
(7.9616e-10 4.84019e-08 -4.98666e-08)
(1.22087e-09 4.7665e-08 -5.05373e-08)
(-7.67632e-08 4.67737e-08 -4.64269e-08)
(7.86478e-08 6.00548e-08 -5.96562e-08)
(-3.70514e-10 6.26051e-08 -6.32005e-08)
(1.11703e-09 6.34922e-08 -6.19696e-08)
(2.42206e-09 6.19777e-08 -6.27743e-08)
(-7.75617e-08 5.87655e-08 -5.8861e-08)
(7.76468e-08 7.33193e-08 -7.32742e-08)
(-4.03079e-09 7.85458e-08 -7.66132e-08)
(1.49672e-09 7.94381e-08 -7.5169e-08)
(6.82592e-09 7.77638e-08 -7.60886e-08)
(-7.58263e-08 7.1777e-08 -7.22867e-08)
(6.80094e-08 8.70235e-08 -8.61404e-08)
(-1.13042e-08 9.02126e-08 -8.94871e-08)
(1.93806e-09 8.85903e-08 -8.80052e-08)
(1.49149e-08 8.93434e-08 -8.88777e-08)
(-6.58193e-08 8.53295e-08 -8.49789e-08)
(1.8514e-08 5.14663e-08 -9.31093e-08)
(-1.47338e-08 3.77609e-09 -9.29979e-08)
(2.39555e-09 -1.74785e-09 -9.155e-08)
(1.9201e-08 3.70779e-09 -9.23833e-08)
(-1.53379e-08 5.05575e-08 -9.20282e-08)
(3.94415e-08 8.61588e-09 -2.20188e-09)
(0 0 0)
(0 0 0)
(0 0 0)
(-3.98512e-08 8.66566e-09 -2.15592e-09)
(8.03761e-08 2.10837e-08 -9.60168e-09)
(4.90152e-09 1.62915e-08 -1.39596e-08)
(1.1137e-10 1.43937e-08 -1.48756e-08)
(-4.79308e-09 1.6264e-08 -1.3858e-08)
(-8.10927e-08 2.10029e-08 -9.44119e-09)
(8.26867e-08 3.01394e-08 -2.04894e-08)
(6.5587e-09 2.84532e-08 -2.62393e-08)
(2.26234e-10 2.75659e-08 -2.75282e-08)
(-6.23047e-09 2.82749e-08 -2.60646e-08)
(-8.31352e-08 2.97295e-08 -2.01945e-08)
(8.43966e-08 4.12228e-08 -3.19337e-08)
(7.25412e-09 4.06601e-08 -3.78327e-08)
(3.94345e-10 4.04015e-08 -3.92024e-08)
(-6.58308e-09 4.03378e-08 -3.75879e-08)
(-8.44445e-08 4.05304e-08 -3.15019e-08)
(8.62941e-08 5.29588e-08 -4.34399e-08)
(7.70133e-09 5.34219e-08 -4.91616e-08)
(6.204e-10 5.37011e-08 -5.04653e-08)
(-6.57128e-09 5.29603e-08 -4.88408e-08)
(-8.58054e-08 5.20043e-08 -4.28596e-08)
(8.77604e-08 6.40976e-08 -5.48991e-08)
(7.04252e-09 6.67073e-08 -6.04311e-08)
(9.01738e-10 6.76323e-08 -6.16177e-08)
(-5.34611e-09 6.61054e-08 -6.00287e-08)
(-8.66196e-08 6.28921e-08 -5.41598e-08)
(8.69549e-08 7.42044e-08 -6.55387e-08)
(3.37822e-09 7.94457e-08 -7.09551e-08)
(1.24098e-09 8.03819e-08 -7.20371e-08)
(-1.02158e-09 7.87078e-08 -7.04737e-08)
(-8.51447e-08 7.27763e-08 -6.46411e-08)
(7.78309e-08 8.19444e-08 -7.23798e-08)
(-3.86601e-09 8.51207e-08 -7.77921e-08)
(1.64223e-09 8.35299e-08 -7.883e-08)
(6.95079e-09 8.43272e-08 -7.72598e-08)
(-7.57233e-08 8.041e-08 -7.13602e-08)
(2.93542e-08 4.35111e-08 -7.44602e-08)
(-7.27949e-09 -3.12965e-09 -7.58678e-08)
(2.05618e-09 -8.39752e-09 -7.6979e-08)
(1.11296e-08 -3.04288e-09 -7.53685e-08)
(-2.65173e-08 4.28035e-08 -7.35536e-08)
(3.88284e-08 9.83841e-09 -2.08039e-09)
(0 0 0)
(0 0 0)
(0 0 0)
(-3.9272e-08 9.90778e-09 -2.04869e-09)
(8.05331e-08 2.34053e-08 -8.87102e-09)
(7.92601e-09 1.67853e-08 -1.11164e-08)
(7.7584e-11 1.45432e-08 -1.2023e-08)
(-7.87233e-09 1.67742e-08 -1.10499e-08)
(-8.13364e-08 2.33746e-08 -8.75183e-09)
(8.44922e-08 3.23299e-08 -1.85939e-08)
(1.07235e-08 2.99708e-08 -2.1713e-08)
(1.61311e-10 2.88578e-08 -2.29391e-08)
(-1.05072e-08 2.98188e-08 -2.15881e-08)
(-8.50735e-08 3.19897e-08 -1.83645e-08)
(8.63446e-08 4.32827e-08 -2.86761e-08)
(1.15328e-08 4.26917e-08 -3.19224e-08)
(2.9902e-10 4.23891e-08 -3.32003e-08)
(-1.10336e-08 4.24047e-08 -3.17397e-08)
(-8.65826e-08 4.26762e-08 -2.83342e-08)
(8.79426e-08 5.43777e-08 -3.86778e-08)
(1.18024e-08 5.50073e-08 -4.17816e-08)
(4.93782e-10 5.53379e-08 -4.30073e-08)
(-1.09071e-08 5.45903e-08 -4.15371e-08)
(-8.77061e-08 5.35246e-08 -3.82151e-08)
(8.9071e-08 6.39011e-08 -4.80452e-08)
(1.09713e-08 6.66739e-08 -5.09611e-08)
(7.42345e-10 6.76774e-08 -5.21038e-08)
(-9.57591e-09 6.61281e-08 -5.06516e-08)
(-8.82476e-08 6.2816e-08 -4.74549e-08)
(8.79944e-08 7.13335e-08 -5.55535e-08)
(7.21657e-09 7.66758e-08 -5.83349e-08)
(1.047e-09 7.77087e-08 -5.94018e-08)
(-5.23161e-09 7.60093e-08 -5.79662e-08)
(-8.65684e-08 7.00512e-08 -5.48407e-08)
(7.90937e-08 7.62635e-08 -5.90307e-08)
(-3.81492e-12 7.96156e-08 -6.18111e-08)
(1.41124e-09 7.82224e-08 -6.28506e-08)
(2.64019e-09 7.89083e-08 -6.14122e-08)
(-7.7429e-08 7.48994e-08 -5.82331e-08)
(3.28708e-08 3.86409e-08 -5.88622e-08)
(-3.51607e-09 -5.37412e-09 -5.95693e-08)
(1.78291e-09 -1.00333e-08 -6.07598e-08)
(6.8326e-09 -5.18627e-09 -5.921e-08)
(-3.05282e-08 3.80981e-08 -5.81796e-08)
(3.80659e-08 1.01238e-08 -1.96562e-09)
(0 0 0)
(0 0 0)
(0 0 0)
(-3.85663e-08 1.02146e-08 -1.94685e-09)
(7.94183e-08 2.39875e-08 -8.03634e-09)
(8.65337e-09 1.68637e-08 -8.6878e-09)
(6.06263e-11 1.45015e-08 -9.12803e-09)
(-8.63898e-09 1.68716e-08 -8.64859e-09)
(-8.03544e-08 2.40089e-08 -7.95967e-09)
(8.39269e-08 3.28344e-08 -1.63104e-08)
(1.18431e-08 3.02231e-08 -1.72568e-08)
(1.22444e-10 2.90229e-08 -1.78481e-08)
(-1.17096e-08 3.01018e-08 -1.71758e-08)
(-8.46819e-08 3.25638e-08 -1.61531e-08)
(8.58547e-08 4.34283e-08 -2.4598e-08)
(1.27097e-08 4.28454e-08 -2.55823e-08)
(2.36256e-10 4.25384e-08 -2.61874e-08)
(-1.23405e-08 4.25985e-08 -2.54569e-08)
(-8.63121e-08 4.2907e-08 -2.43543e-08)
(8.72431e-08 5.37248e-08 -3.25718e-08)
(1.28558e-08 5.44966e-08 -3.3451e-08)
(4.05904e-10 5.48797e-08 -3.40114e-08)
(-1.21408e-08 5.41288e-08 -3.32775e-08)
(-8.7276e-08 5.2972e-08 -3.22341e-08)
(8.80741e-08 6.19778e-08 -3.96138e-08)
(1.18635e-08 6.49067e-08 -4.0344e-08)
(6.27848e-10 6.59847e-08 -4.084e-08)
(-1.0702e-08 6.442e-08 -4.01208e-08)
(-8.75743e-08 6.10097e-08 -3.91775e-08)
(8.67587e-08 6.79946e-08 -4.46943e-08)
(8.00901e-09 7.34511e-08 -4.53151e-08)
(9.03603e-10 7.4585e-08 -4.57533e-08)
(-6.3165e-09 7.28544e-08 -4.50486e-08)
(-8.57136e-08 6.68481e-08 -4.41654e-08)
(7.79494e-08 7.20263e-08 -4.66096e-08)
(7.94411e-10 7.55891e-08 -4.72315e-08)
(1.23547e-09 7.44078e-08 -4.7657e-08)
(1.48413e-09 7.49602e-08 -4.69467e-08)
(-7.67188e-08 7.08149e-08 -4.60205e-08)
(3.2874e-08 3.52254e-08 -4.58001e-08)
(-2.84663e-09 -7.26565e-09 -4.55935e-08)
(1.56958e-09 -1.14266e-08 -4.6158e-08)
(5.7308e-09 -6.99436e-09 -4.5346e-08)
(-3.09794e-08 3.48257e-08 -4.53095e-08)
(3.74816e-08 1.00438e-08 -1.60848e-09)
(0 0 0)
(0 0 0)
(0 0 0)
(-3.80267e-08 1.01506e-08 -1.59829e-09)
(7.82356e-08 2.38104e-08 -6.45535e-09)
(8.54598e-09 1.67187e-08 -6.47851e-09)
(5.14184e-11 1.43464e-08 -6.61727e-09)
(-8.55634e-09 1.67428e-08 -6.4561e-09)
(-7.92756e-08 2.38726e-08 -6.40994e-09)
(8.2733e-08 3.251e-08 -1.28896e-08)
(1.17242e-08 2.98992e-08 -1.29126e-08)
(9.86933e-11 2.8694e-08 -1.30852e-08)
(-1.16453e-08 2.98046e-08 -1.28623e-08)
(-8.36221e-08 3.22962e-08 -1.27902e-08)
(8.46145e-08 4.27048e-08 -1.9157e-08)
(1.25635e-08 4.2172e-08 -1.91454e-08)
(1.95109e-10 4.1886e-08 -1.93042e-08)
(-1.22834e-08 4.19599e-08 -1.90634e-08)
(-8.52397e-08 4.2254e-08 -1.89958e-08)
(8.58588e-08 5.23544e-08 -2.49948e-08)
(1.26255e-08 5.32276e-08 -2.49061e-08)
(3.45653e-10 5.3655e-08 -2.50284e-08)
(-1.20378e-08 5.29021e-08 -2.47891e-08)
(-8.60972e-08 5.16849e-08 -2.47651e-08)
(8.64964e-08 5.9856e-08 -2.99168e-08)
(1.15263e-08 6.28911e-08 -2.97324e-08)
(5.4683e-10 6.40256e-08 -2.98095e-08)
(-1.0534e-08 6.24543e-08 -2.95794e-08)
(-8.6244e-08 5.89847e-08 -2.96149e-08)
(8.50348e-08 6.52993e-08 -3.32493e-08)
(7.6056e-09 7.08377e-08 -3.29978e-08)
(7.99503e-10 7.20477e-08 -3.30367e-08)
(-6.1288e-09 7.02987e-08 -3.28142e-08)
(-8.42832e-08 6.4264e-08 -3.28801e-08)
(7.62684e-08 6.91365e-08 -3.43853e-08)
(3.89611e-10 7.28503e-08 -3.41365e-08)
(1.10489e-09 7.18193e-08 -3.41708e-08)
(1.6202e-09 7.22856e-08 -3.39418e-08)
(-7.53771e-08 6.80499e-08 -3.39738e-08)
(3.17542e-08 3.28392e-08 -3.36033e-08)
(-3.34846e-09 -8.85488e-09 -3.30266e-08)
(1.40805e-09 -1.27011e-08 -3.31518e-08)
(5.90282e-09 -8.51739e-09 -3.28626e-08)
(-3.02084e-08 3.25555e-08 -3.32671e-08)
(3.71147e-08 9.90171e-09 -1.11504e-09)
(0 0 0)
(0 0 0)
(0 0 0)
(-3.76894e-08 1.00187e-08 -1.1099e-09)
(7.74027e-08 2.34592e-08 -4.43683e-09)
(8.32297e-09 1.65055e-08 -4.33161e-09)
(4.63623e-11 1.4157e-08 -4.35253e-09)
(-8.34752e-09 1.65412e-08 -4.31942e-09)
(-7.85108e-08 2.35487e-08 -4.41199e-09)
(8.17524e-08 3.19583e-08 -8.78984e-09)
(1.1391e-08 2.94243e-08 -8.6129e-09)
(8.45722e-11 2.82427e-08 -8.62324e-09)
(-1.13451e-08 2.93491e-08 -8.5838e-09)
(-8.27289e-08 3.17845e-08 -8.73229e-09)
(8.35414e-08 4.18196e-08 -1.29568e-08)
(1.21702e-08 4.13483e-08 -1.27273e-08)
(1.69339e-10 4.10897e-08 -1.27165e-08)
(-1.19463e-08 4.11619e-08 -1.26779e-08)
(-8.42767e-08 4.14198e-08 -1.28598e-08)
(8.46857e-08 5.10497e-08 -1.67457e-08)
(1.21735e-08 5.19897e-08 -1.64632e-08)
(3.06484e-10 5.24503e-08 -1.64263e-08)
(-1.16688e-08 5.16954e-08 -1.63911e-08)
(-8.50607e-08 5.04412e-08 -1.6604e-08)
(8.52144e-08 5.81756e-08 -1.98434e-08)
(1.10143e-08 6.12716e-08 -1.95075e-08)
(4.92663e-10 6.24431e-08 -1.9443e-08)
(-1.01351e-08 6.08714e-08 -1.94119e-08)
(-8.51288e-08 5.73751e-08 -1.96541e-08)
(8.36774e-08 6.34282e-08 -2.1871e-08)
(7.05858e-09 6.90121e-08 -2.15009e-08)
(7.28349e-10 7.02687e-08 -2.1415e-08)
(-5.7291e-09 6.85153e-08 -2.13856e-08)
(-8.31265e-08 6.24742e-08 -2.16375e-08)
(7.49334e-08 6.72651e-08 -2.2534e-08)
(-1.59049e-10 7.10598e-08 -2.21674e-08)
(1.01404e-09 7.01131e-08 -2.20803e-08)
(1.98223e-09 7.05423e-08 -2.20457e-08)
(-7.42781e-08 6.62703e-08 -2.22731e-08)
(3.07108e-08 3.1248e-08 -2.19925e-08)
(-3.9509e-09 -1.00507e-08 -2.14708e-08)
(1.29423e-09 -1.37364e-08 -2.14316e-08)
(6.27337e-09 -9.66505e-09 -2.13708e-08)
(-2.94098e-08 3.10495e-08 -2.17821e-08)
(3.69243e-08 9.80222e-09 -5.66737e-10)
(0 0 0)
(0 0 0)
(0 0 0)
(-3.75154e-08 9.92476e-09 -5.64588e-10)
(7.69527e-08 2.31916e-08 -2.24494e-09)
(8.18201e-09 1.6336e-08 -2.17558e-09)
(4.38336e-11 1.40092e-08 -2.17064e-09)
(-8.21375e-09 1.63785e-08 -2.1702e-09)
(-7.80985e-08 2.32966e-08 -2.23398e-09)
(8.11919e-08 3.15243e-08 -4.42959e-09)
(1.11686e-08 2.90534e-08 -4.31218e-09)
(7.70738e-11 2.78938e-08 -4.29432e-09)
(-1.11401e-08 2.899e-08 -4.29882e-09)
(-8.22167e-08 3.13742e-08 -4.40324e-09)
(8.29088e-08 4.117e-08 -6.50143e-09)
(1.19003e-08 4.07437e-08 -6.35082e-09)
(1.55121e-10 4.05056e-08 -6.31921e-09)
(-1.17073e-08 4.0573e-08 -6.32761e-09)
(-8.37057e-08 4.08009e-08 -6.45591e-09)
(8.39928e-08 5.01756e-08 -8.35966e-09)
(1.18678e-08 5.11538e-08 -8.18172e-09)
(2.84253e-10 5.16347e-08 -8.13651e-09)
(-1.141e-08 5.08785e-08 -8.1473e-09)
(-8.44451e-08 4.96041e-08 -8.29198e-09)
(8.44671e-08 5.71379e-08 -9.8538e-09)
(1.06785e-08 6.02643e-08 -9.65226e-09)
(4.61253e-10 6.14562e-08 -9.5942e-09)
(-9.86476e-09 5.98864e-08 -9.60623e-09)
(-8.44772e-08 5.63806e-08 -9.76242e-09)
(8.2896e-08 6.23385e-08 -1.08165e-08)
(6.70672e-09 6.79432e-08 -1.06012e-08)
(6.86411e-10 6.92233e-08 -1.05338e-08)
(-5.46379e-09 6.74721e-08 -1.05455e-08)
(-8.24618e-08 6.14344e-08 -1.07031e-08)
(7.4164e-08 6.62063e-08 -1.11263e-08)
(-5.11438e-10 7.0035e-08 -1.09134e-08)
(9.59846e-10 6.91271e-08 -1.08459e-08)
(2.22365e-09 6.95464e-08 -1.08547e-08)
(-7.36478e-08 6.52677e-08 -1.09994e-08)
(3.00875e-08 3.03323e-08 -1.086e-08)
(-4.32641e-09 -1.07888e-08 -1.05751e-08)
(1.22586e-09 -1.44073e-08 -1.05271e-08)
(6.50997e-09 -1.03738e-08 -1.05277e-08)
(-2.89322e-08 3.0186e-08 -1.07584e-08)
(2.79851e-08 1.07396e-08 0)
(2.89143e-09 4.87264e-09 0)
(1.81258e-11 3.40886e-09 0)
(-2.90965e-09 4.92025e-09 0)
(-2.84312e-08 1.08797e-08 0)
(4.52615e-08 2.08453e-08 0)
(8.13776e-09 1.62729e-08 0)
(4.3059e-11 1.3954e-08 0)
(-8.17172e-09 1.63177e-08 0)
(-4.59175e-08 2.09423e-08 0)
(4.95113e-08 3.07089e-08 0)
(1.10971e-08 2.89168e-08 0)
(7.47011e-11 2.77654e-08 0)
(-1.10742e-08 2.88573e-08 0)
(-5.00832e-08 3.05941e-08 0)
(5.08341e-08 4.08269e-08 0)
(1.1812e-08 4.05266e-08 0)
(1.50531e-10 4.02959e-08 0)
(-1.16289e-08 4.03611e-08 0)
(-5.121e-08 4.05225e-08 0)
(5.13287e-08 5.00908e-08 0)
(1.17674e-08 5.08634e-08 0)
(2.76969e-10 5.1351e-08 0)
(-1.13249e-08 5.05945e-08 0)
(-5.1402e-08 4.96092e-08 0)
(5.07219e-08 5.77117e-08 0)
(1.05688e-08 5.99254e-08 0)
(4.50847e-10 6.11238e-08 0)
(-9.77672e-09 5.95551e-08 0)
(-5.04014e-08 5.70634e-08 0)
(4.70787e-08 6.4084e-08 0)
(6.59238e-09 6.75914e-08 0)
(6.72405e-10 6.88787e-08 0)
(-5.3783e-09 6.71291e-08 0)
(-4.63392e-08 6.32952e-08 0)
(3.71546e-08 6.81709e-08 0)
(-6.2584e-10 6.97001e-08 0)
(9.41647e-10 6.88031e-08 0)
(2.30084e-09 6.92213e-08 0)
(-3.61864e-08 6.73503e-08 0)
(1.77661e-08 4.3712e-08 0)
(-4.67903e-09 2.86621e-08 0)
(1.14531e-09 2.54535e-08 0)
(6.7024e-09 2.86478e-08 0)
(-1.64804e-08 4.33961e-08 0)
)
;

boundaryField
{
    interface
    {
        type            calculated;
    }
    symmetry
    {
        type            symmetry;
    }
    bottom
    {
        type            calculated;
    }
}


// ************************************************************************* //
