/*--------------------------------*- C++ -*----------------------------------*\
| =========                 |                                                 |
| \\      /  F ield         | OpenFOAM: The Open Source CFD Toolbox           |
|  \\    /   O peration     | Version:  v1912                                 |
|   \\  /    A nd           | Website:  www.openfoam.com                      |
|    \\/     M anipulation  |                                                 |
\*---------------------------------------------------------------------------*/
FoamFile
{
    version     2.0;
    format      ascii;
    class       pointVectorField;
    location    "0.08/solid";
    object      pointDD;
}
// * * * * * * * * * * * * * * * * * * * * * * * * * * * * * * * * * * * * * //

dimensions      [0 1 0 0 0 0 0];


internalField   nonuniform List<vector> 
405
(
(-9.43411e-11 1.95466e-09 3.54434e-10)
(5.97146e-10 1.3553e-09 -1.41217e-09)
(6.70037e-11 1.00269e-09 -2.00419e-09)
(-4.45773e-10 1.3708e-09 -1.34313e-09)
(5.10498e-10 1.82273e-09 5.33295e-10)
(3.63723e-10 1.61145e-09 2.0256e-09)
(1.63641e-09 1.63311e-09 -1.39355e-09)
(2.83392e-10 1.12933e-09 -2.59064e-09)
(-1.02929e-09 1.54555e-09 -1.15827e-09)
(5.48492e-10 1.24828e-09 2.46226e-09)
(9.565e-10 -8.88143e-10 4.62082e-09)
(2.206e-09 -5.67162e-10 1.17804e-09)
(5.98073e-10 -8.17453e-10 5.28698e-12)
(-9.65933e-10 -8.75226e-10 1.5697e-09)
(5.55492e-10 -1.56512e-09 5.3282e-09)
(1.09897e-09 -3.16252e-09 6.66586e-09)
(2.41722e-09 -2.8331e-09 3.30048e-09)
(9.46394e-10 -3.06425e-09 2.18655e-09)
(-4.84443e-10 -3.32918e-09 3.7884e-09)
(1.07648e-09 -4.11978e-09 7.54023e-09)
(1.31319e-09 -5.31993e-09 8.50872e-09)
(2.64973e-09 -5.12232e-09 5.22145e-09)
(1.33231e-09 -5.45208e-09 4.13847e-09)
(5.19372e-11 -5.78006e-09 5.76981e-09)
(1.60878e-09 -6.52831e-09 9.48897e-09)
(1.84043e-09 -7.4123e-09 1.03704e-08)
(3.09768e-09 -7.39054e-09 7.17107e-09)
(1.7592e-09 -7.85298e-09 6.10735e-09)
(4.55797e-10 -8.19215e-09 7.75664e-09)
(1.91326e-09 -8.84996e-09 1.14166e-08)
(2.94143e-09 -9.58508e-09 1.24757e-08)
(3.96595e-09 -9.67374e-09 9.37301e-09)
(2.22888e-09 -1.01836e-08 8.3466e-09)
(5.23723e-10 -1.06057e-08 9.98003e-09)
(1.72509e-09 -1.1234e-08 1.35601e-08)
(5.09334e-09 -1.27383e-08 1.52096e-08)
(5.33313e-09 -1.26337e-08 1.25671e-08)
(2.74069e-09 -1.28706e-08 1.16854e-08)
(1.73393e-10 -1.36831e-08 1.31906e-08)
(5.62966e-10 -1.45815e-08 1.6318e-08)
(7.07773e-09 -1.39171e-08 1.74661e-08)
(6.18999e-09 -1.29469e-08 1.64817e-08)
(3.06513e-09 -1.26727e-08 1.59767e-08)
(-3.76903e-11 -1.40488e-08 1.71198e-08)
(-8.66384e-10 -1.57671e-08 1.85363e-08)
(-2.08537e-09 5.56425e-10 9.07476e-10)
(0 0 0)
(0 0 0)
(0 0 0)
(2.5259e-09 3.53698e-10 1.03167e-09)
(-3.91651e-09 -3.36179e-11 3.1896e-09)
(0 0 0)
(0 0 0)
(0 0 0)
(5.02436e-09 -5.94342e-10 3.60654e-09)
(-3.59314e-09 -2.23772e-09 5.66143e-09)
(0 0 0)
(0 0 0)
(0 0 0)
(5.19841e-09 -3.10089e-09 6.35639e-09)
(-3.43902e-09 -4.30868e-09 7.69245e-09)
(0 0 0)
(0 0 0)
(0 0 0)
(5.63796e-09 -5.45584e-09 8.56886e-09)
(-3.14343e-09 -6.31107e-09 9.49382e-09)
(0 0 0)
(0 0 0)
(0 0 0)
(6.03919e-09 -7.7227e-09 1.04899e-08)
(-2.48865e-09 -8.2324e-09 1.12669e-08)
(0 0 0)
(0 0 0)
(0 0 0)
(6.17755e-09 -9.89139e-09 1.23412e-08)
(-1.2217e-09 -1.0113e-08 1.31916e-08)
(0 0 0)
(0 0 0)
(0 0 0)
(5.78953e-09 -1.20031e-08 1.43148e-08)
(1.46743e-09 -1.26987e-08 1.51865e-08)
(0 0 0)
(0 0 0)
(0 0 0)
(4.05965e-09 -1.48011e-08 1.63387e-08)
(5.27708e-09 -1.27758e-08 1.64454e-08)
(5.57578e-09 -1.0312e-08 1.65926e-08)
(2.98215e-09 -9.66634e-09 1.66033e-08)
(4.1575e-10 -1.14079e-08 1.71845e-08)
(7.45693e-10 -1.47154e-08 1.74722e-08)
(-3.26177e-09 -3.54771e-10 4.56638e-10)
(0 0 0)
(0 0 0)
(0 0 0)
(3.67728e-09 -5.25527e-10 5.42852e-10)
(-6.56328e-09 -1.66635e-09 2.04182e-09)
(0 0 0)
(0 0 0)
(0 0 0)
(7.55648e-09 -2.16738e-09 2.34328e-09)
(-6.56952e-09 -3.57188e-09 4.22696e-09)
(0 0 0)
(0 0 0)
(0 0 0)
(7.9472e-09 -4.38212e-09 4.74982e-09)
(-6.43347e-09 -5.47099e-09 6.20791e-09)
(0 0 0)
(0 0 0)
(0 0 0)
(8.32121e-09 -6.5709e-09 6.8887e-09)
(-6.09536e-09 -7.33274e-09 7.97585e-09)
(0 0 0)
(0 0 0)
(0 0 0)
(8.61936e-09 -8.70443e-09 8.76849e-09)
(-5.36793e-09 -9.03729e-09 9.64539e-09)
(0 0 0)
(0 0 0)
(0 0 0)
(8.64236e-09 -1.06653e-08 1.0516e-08)
(-3.95991e-09 -1.05125e-08 1.12631e-08)
(0 0 0)
(0 0 0)
(0 0 0)
(8.08407e-09 -1.23813e-08 1.21856e-08)
(-9.78303e-10 -1.24118e-08 1.25768e-08)
(0 0 0)
(0 0 0)
(0 0 0)
(6.04154e-09 -1.45018e-08 1.35293e-08)
(3.37255e-09 -1.17468e-08 1.32778e-08)
(4.45991e-09 -8.82695e-09 1.36288e-08)
(2.72436e-09 -8.04432e-09 1.39228e-08)
(1.02047e-09 -9.9197e-09 1.41159e-08)
(2.1607e-09 -1.3682e-08 1.4124e-08)
(-3.68579e-09 -6.91881e-10 4.37201e-10)
(0 0 0)
(0 0 0)
(0 0 0)
(4.08328e-09 -8.24274e-10 4.98336e-10)
(-7.62046e-09 -2.36639e-09 1.82789e-09)
(0 0 0)
(0 0 0)
(0 0 0)
(8.53497e-09 -2.78593e-09 2.04342e-09)
(-7.88285e-09 -4.3069e-09 3.70499e-09)
(0 0 0)
(0 0 0)
(0 0 0)
(9.1008e-09 -5.03335e-09 4.08533e-09)
(-7.78781e-09 -6.19382e-09 5.46403e-09)
(0 0 0)
(0 0 0)
(0 0 0)
(9.44547e-09 -7.21799e-09 5.97105e-09)
(-7.42654e-09 -7.96104e-09 7.05191e-09)
(0 0 0)
(0 0 0)
(0 0 0)
(9.66352e-09 -9.26958e-09 7.65583e-09)
(-6.64978e-09 -9.45324e-09 8.48629e-09)
(0 0 0)
(0 0 0)
(0 0 0)
(9.59385e-09 -1.10325e-08 9.16233e-09)
(-5.15106e-09 -1.06066e-08 9.73875e-09)
(0 0 0)
(0 0 0)
(0 0 0)
(8.91403e-09 -1.24411e-08 1.04651e-08)
(-2.02329e-09 -1.22073e-08 1.06425e-08)
(0 0 0)
(0 0 0)
(0 0 0)
(6.70557e-09 -1.42773e-08 1.13984e-08)
(2.50184e-09 -1.13619e-08 1.1076e-08)
(3.83382e-09 -8.35184e-09 1.13479e-08)
(2.51535e-09 -7.54219e-09 1.16162e-08)
(1.22857e-09 -9.44287e-09 1.17327e-08)
(2.62833e-09 -1.32904e-08 1.17469e-08)
(-3.88546e-09 -8.03886e-10 3.98708e-10)
(0 0 0)
(0 0 0)
(0 0 0)
(4.26851e-09 -9.08177e-10 4.40963e-10)
(-8.10266e-09 -2.64151e-09 1.58897e-09)
(0 0 0)
(0 0 0)
(0 0 0)
(8.95965e-09 -2.99532e-09 1.73879e-09)
(-8.47979e-09 -4.67118e-09 3.13565e-09)
(0 0 0)
(0 0 0)
(0 0 0)
(9.58326e-09 -5.321e-09 3.40311e-09)
(-8.4204e-09 -6.59703e-09 4.58124e-09)
(0 0 0)
(0 0 0)
(0 0 0)
(9.90921e-09 -7.54676e-09 4.94403e-09)
(-8.05538e-09 -8.32103e-09 5.88575e-09)
(0 0 0)
(0 0 0)
(0 0 0)
(1.00755e-08 -9.56472e-09 6.32619e-09)
(-7.25447e-09 -9.69046e-09 7.02675e-09)
(0 0 0)
(0 0 0)
(0 0 0)
(9.94272e-09 -1.12178e-08 7.52835e-09)
(-5.71118e-09 -1.06931e-08 7.9652e-09)
(0 0 0)
(0 0 0)
(0 0 0)
(9.18939e-09 -1.24895e-08 8.51142e-09)
(-2.51068e-09 -1.22103e-08 8.62756e-09)
(0 0 0)
(0 0 0)
(0 0 0)
(6.88919e-09 -1.42557e-08 9.20056e-09)
(2.1503e-09 -1.12765e-08 8.93754e-09)
(3.59211e-09 -8.18679e-09 9.09129e-09)
(2.3524e-09 -7.37286e-09 9.25883e-09)
(1.14275e-09 -9.27292e-09 9.3814e-09)
(2.65985e-09 -1.31926e-08 9.44557e-09)
(-3.98045e-09 -8.37628e-10 3.15229e-10)
(0 0 0)
(0 0 0)
(0 0 0)
(4.3522e-09 -9.23329e-10 3.42991e-10)
(-8.31005e-09 -2.74461e-09 1.23771e-09)
(0 0 0)
(0 0 0)
(0 0 0)
(9.12574e-09 -3.05231e-09 1.33688e-09)
(-8.71685e-09 -4.84035e-09 2.417e-09)
(0 0 0)
(0 0 0)
(0 0 0)
(9.74061e-09 -5.43194e-09 2.59592e-09)
(-8.67493e-09 -6.80547e-09 3.51112e-09)
(0 0 0)
(0 0 0)
(0 0 0)
(1.00448e-08 -7.69499e-09 3.75717e-09)
(-8.31475e-09 -8.52241e-09 4.49227e-09)
(0 0 0)
(0 0 0)
(0 0 0)
(1.01791e-08 -9.71109e-09 4.79559e-09)
(-7.50845e-09 -9.8484e-09 5.33458e-09)
(0 0 0)
(0 0 0)
(0 0 0)
(1.00094e-08 -1.13298e-08 5.68503e-09)
(-5.95069e-09 -1.08083e-08 6.01133e-09)
(0 0 0)
(0 0 0)
(0 0 0)
(9.21711e-09 -1.25692e-08 6.39743e-09)
(-2.71993e-09 -1.23193e-08 6.4961e-09)
(0 0 0)
(0 0 0)
(0 0 0)
(6.86975e-09 -1.43393e-08 6.90395e-09)
(2.02778e-09 -1.13336e-08 6.72876e-09)
(3.51404e-09 -8.18194e-09 6.80981e-09)
(2.23158e-09 -7.36499e-09 6.90109e-09)
(9.77341e-10 -9.26124e-09 7.01521e-09)
(2.54207e-09 -1.32345e-08 7.08992e-09)
(-4.02911e-09 -8.4731e-10 2.13002e-10)
(0 0 0)
(0 0 0)
(0 0 0)
(4.39288e-09 -9.21472e-10 2.29628e-10)
(-8.40566e-09 -2.78309e-09 8.33515e-10)
(0 0 0)
(0 0 0)
(0 0 0)
(9.19391e-09 -3.06118e-09 8.93331e-10)
(-8.81266e-09 -4.91597e-09 1.62328e-09)
(0 0 0)
(0 0 0)
(0 0 0)
(9.78477e-09 -5.46828e-09 1.73216e-09)
(-8.77574e-09 -6.90846e-09 2.35311e-09)
(0 0 0)
(0 0 0)
(0 0 0)
(1.0068e-08 -7.75557e-09 2.50442e-09)
(-8.42074e-09 -8.63462e-09 3.00405e-09)
(0 0 0)
(0 0 0)
(0 0 0)
(1.0182e-08 -9.783e-09 3.1927e-09)
(-7.61689e-09 -9.95774e-09 3.55803e-09)
(0 0 0)
(0 0 0)
(0 0 0)
(9.99199e-09 -1.14042e-08 3.77838e-09)
(-6.05778e-09 -1.09185e-08 4.00093e-09)
(0 0 0)
(0 0 0)
(0 0 0)
(9.1801e-09 -1.26511e-08 4.24587e-09)
(-2.81593e-09 -1.24429e-08 4.32417e-09)
(0 0 0)
(0 0 0)
(0 0 0)
(6.80844e-09 -1.44412e-08 4.58423e-09)
(1.98082e-09 -1.14277e-08 4.48503e-09)
(3.48408e-09 -8.23238e-09 4.52894e-09)
(2.14913e-09 -7.40952e-09 4.57579e-09)
(8.4084e-10 -9.30515e-09 4.65948e-09)
(2.4237e-09 -1.33145e-08 4.71515e-09)
(-4.05358e-09 -8.5038e-10 1.06553e-10)
(0 0 0)
(0 0 0)
(0 0 0)
(4.41268e-09 -9.18306e-10 1.143e-10)
(-8.45145e-09 -2.79766e-09 4.16755e-10)
(0 0 0)
(0 0 0)
(0 0 0)
(9.22421e-09 -3.05941e-09 4.44765e-10)
(-8.85453e-09 -4.9478e-09 8.11318e-10)
(0 0 0)
(0 0 0)
(0 0 0)
(9.79796e-09 -5.47782e-09 8.62601e-10)
(-8.81805e-09 -6.95568e-09 1.17547e-09)
(0 0 0)
(0 0 0)
(0 0 0)
(1.00671e-08 -7.77806e-09 1.24721e-09)
(-8.46606e-09 -8.69249e-09 1.49936e-09)
(0 0 0)
(0 0 0)
(0 0 0)
(1.01692e-08 -9.81677e-09 1.58945e-09)
(-7.66542e-09 -1.00236e-08 1.77417e-09)
(0 0 0)
(0 0 0)
(0 0 0)
(9.96898e-09 -1.14486e-08 1.88009e-09)
(-6.1081e-09 -1.0994e-08 1.99406e-09)
(0 0 0)
(0 0 0)
(0 0 0)
(9.14776e-09 -1.27088e-08 2.11244e-09)
(-2.8627e-09 -1.2531e-08 2.15647e-09)
(0 0 0)
(0 0 0)
(0 0 0)
(6.76425e-09 -1.45153e-08 2.28255e-09)
(1.95819e-09 -1.15015e-08 2.23942e-09)
(3.46803e-09 -8.28073e-09 2.25994e-09)
(2.10167e-09 -7.45234e-09 2.28011e-09)
(7.60978e-10 -9.34904e-09 2.32319e-09)
(2.35069e-09 -1.33788e-08 2.35099e-09)
(-2.96636e-09 -9.50641e-10 0)
(-2.77882e-10 -5.61279e-10 0)
(-6.67483e-12 -5.55842e-10 0)
(2.75962e-10 -5.93908e-10 0)
(3.21108e-09 -1.02737e-09 0)
(-4.78562e-09 -2.61232e-09 0)
(-7.83997e-10 -2.38729e-09 0)
(4.97655e-12 -2.38561e-09 0)
(8.22567e-10 -2.52149e-09 0)
(5.20311e-09 -2.8407e-09 0)
(-5.1906e-09 -4.90133e-09 0)
(-1.054e-09 -4.83736e-09 0)
(7.67636e-11 -4.89897e-09 0)
(1.24334e-09 -5.11244e-09 0)
(5.77031e-09 -5.36752e-09 0)
(-5.18925e-09 -6.99207e-09 0)
(-1.03729e-09 -7.09005e-09 0)
(2.21686e-10 -7.27231e-09 0)
(1.51896e-09 -7.51109e-09 0)
(6.06685e-09 -7.71332e-09 0)
(-4.90616e-09 -8.81181e-09 0)
(-8.19659e-10 -9.09888e-09 0)
(4.44281e-10 -9.42855e-09 0)
(1.74855e-09 -9.66891e-09 0)
(6.23305e-09 -9.79609e-09 0)
(-4.20893e-09 -1.02874e-08 0)
(-3.05768e-10 -1.08407e-08 0)
(7.46145e-10 -1.1333e-08 0)
(1.83981e-09 -1.15599e-08 0)
(6.13709e-09 -1.15347e-08 0)
(-2.76145e-09 -1.14782e-08 0)
(7.48121e-10 -1.22723e-08 0)
(1.12553e-09 -1.28255e-08 0)
(1.54403e-09 -1.31372e-08 0)
(5.43454e-09 -1.29807e-08 0)
(2.29729e-11 -1.30554e-08 0)
(2.41714e-09 -1.35048e-08 0)
(1.57699e-09 -1.37087e-08 0)
(7.72419e-10 -1.45059e-08 0)
(3.52561e-09 -1.47985e-08 0)
(2.74476e-09 -1.25162e-08 0)
(3.42469e-09 -1.12027e-08 0)
(1.95305e-09 -1.07253e-08 0)
(5.09657e-10 -1.22691e-08 0)
(1.34111e-09 -1.43021e-08 0)
)
;

boundaryField
{
    interface
    {
        type            calculated;
    }
    symmetry
    {
        type            symmetry;
    }
    bottom
    {
        type            calculated;
    }
}


// ************************************************************************* //
