/*--------------------------------*- C++ -*----------------------------------*\
| =========                 |                                                 |
| \\      /  F ield         | OpenFOAM: The Open Source CFD Toolbox           |
|  \\    /   O peration     | Version:  v1912                                 |
|   \\  /    A nd           | Website:  www.openfoam.com                      |
|    \\/     M anipulation  |                                                 |
\*---------------------------------------------------------------------------*/
FoamFile
{
    version     2.0;
    format      ascii;
    class       volSymmTensorField;
    location    "0.08/solid";
    object      sigma;
}
// * * * * * * * * * * * * * * * * * * * * * * * * * * * * * * * * * * * * * //

dimensions      [1 -1 -2 0 0 0 0];


internalField   nonuniform List<symmTensor> 
256
(
(-791069 -12853.7 15008.4 -255385 -21808.3 -828770)
(-138958 -14080.6 7029.49 -83348.4 -16782.7 -675733)
(-139433 15532.7 -7168.05 -82793.8 -16743.9 -672561)
(-796835 12961.9 -14915.9 -252055 -21666.2 -817579)
(-789423 -3075.12 21080.6 -308351 -11964.8 -831056)
(-133639 -2790.96 10318.2 -120813 -13439.5 -686371)
(-134732 3551.79 -10521.8 -120647 -13402.5 -683105)
(-795658 3350.97 -20961.2 -306590 -11829.5 -819378)
(-789224 753.3 20799.2 -285658 -7870.4 -829029)
(-127267 472.284 10247.5 -99213.3 -8692.45 -682850)
(-128337 122.86 -10446.3 -99139.7 -8646.98 -679522)
(-794969 -475.396 -20672.7 -283546 -7695.53 -817015)
(-796889 1780.56 20443.5 -272658 -6787.97 -833459)
(-127672 1400.06 10067.3 -80030.4 -6420.28 -684596)
(-128684 -875.367 -10246.7 -79984.7 -6365.31 -681255)
(-802063 -1533.56 -20303.9 -270293 -6581.58 -821282)
(-809924 929.91 20811.5 -263118 -8129.82 -844286)
(-125807 781.955 10304.9 -61879.5 -7230.61 -692101)
(-126784 -357.013 -10460.9 -61882.3 -7165.86 -688777)
(-814514 -732.73 -20654.6 -260657 -7895.63 -832033)
(-826450 -3906.2 21608.3 -246011 -13231.9 -861821)
(-108122 -2538.29 10794.6 -43751.6 -12365.6 -705347)
(-109126 2828.71 -10923.6 -43821.6 -12285.4 -702092)
(-830672 3994.74 -21434.7 -243598 -12963.3 -849643)
(-854672 -15018.9 22227.8 -254753 -23142.4 -894795)
(-73191.5 -8287.74 11151.6 -73760.1 -23172 -734682)
(-74448.8 8436 -11246.1 -73698.9 -23062.1 -731603)
(-859809 14900.9 -22046.9 -252133 -22823.6 -883103)
(-1.00336e+06 -21676.1 21685.5 -1.04734e+06 -26911.3 -1.04723e+06)
(-234161 -10849.7 10865.4 -906819 -27813.2 -906770)
(-235241 10947.8 -10923.3 -903573 -27698 -903509)
(-1.01245e+06 21540.5 -21527.2 -1.03584e+06 -26624.4 -1.03571e+06)
(-611194 2018.67 9646.74 -27570.3 -43645.3 -127795)
(40675.3 -8943.97 4558.58 140340 -53130.6 39506.6)
(39509 9906.94 -4575.31 139693 -52924.5 39085.9)
(-614979 -1865.58 -9497.62 -26328.1 -43077.8 -126247)
(-630801 -1106.25 14821.8 -92455.1 -27483.1 -140805)
(20761.4 -2005.88 7927.97 114852 -33041.7 26534.4)
(19104.1 2476.09 -7948.76 113704 -32916.4 25870.4)
(-634894 1294.53 -14610.2 -92996.7 -27098.8 -139710)
(-632231 201.009 14793.2 -84191.2 -21203 -133455)
(19688 65.963 8028.39 116160 -22814 32381.5)
(18035.9 256.508 -8041.73 114934 -22699.9 31675.5)
(-635809 -42.8691 -14575.5 -84360.9 -20812.2 -132193)
(-637659 1362.51 14283.4 -74862.3 -19732.5 -128334)
(21610.3 939.916 7672.41 127987 -19377.3 40300.6)
(19996 -701.052 -7668.18 126739 -19246.2 39552.3)
(-640598 -1240.83 -14059.2 -74738.3 -19283.6 -126969)
(-648155 900.663 14293.8 -67483.2 -22431.1 -123583)
(29167.7 514.609 7706.97 144895 -21498.6 51602.8)
(27583.3 -371.708 -7672.59 143611 -21344.4 50800.6)
(-650337 -826.825 -14056 -67150.3 -21915.1 -122129)
(-662409 -3662.45 14644.6 -59817.5 -28441.5 -111453)
(54532.5 -2597.63 8024.79 156863 -27589.1 74139.7)
(52931.5 2640.57 -7952.35 155568 -27414.2 73268.7)
(-663906 3635.27 -14391.4 -59293.2 -27866.4 -109957)
(-689744 -14963.1 14984.4 -92249.3 -32508.5 -92004.6)
(99442.1 -8286.63 8314.89 106897 -32083.7 107064)
(97616.9 8284.76 -8225.16 105897 -31908.9 106104)
(-691712 14747.8 -14734.3 -91090.5 -31942.3 -90754.8)
(-854696 -22221.7 15046.2 -894942 -23115.6 -254537)
(-73286.4 -11142.4 8336.38 -734819 -23158.2 -73729.1)
(-74537.5 11262.9 -8362.89 -731748 -23049.9 -73619.7)
(-859819 22055.2 -14879.4 -883264 -22803.4 -251814)
(-565737 10734.5 1941.05 492.376 -33646.9 -103536)
(22108.2 -2650.9 1052.9 143670 -43131.4 65737.9)
(21093.7 3362.68 -1015.96 143074 -42978.9 65201.5)
(-569372 -10615.1 -1901.75 1918.15 -33218.7 -102236)
(-596272 929.173 4026.54 -66055.9 -29995 -115780)
(-11871.7 -591.975 2474.73 130529 -34705.7 67457.8)
(-13295.8 893.19 -2414.89 129406 -34570.3 66564.6)
(-600099 -790.516 -3957.16 -66535.2 -29582.2 -115224)
(-599482 -45.2674 4277.79 -63224 -27312.3 -104678)
(-17388.5 -164.776 2673.87 126427 -28600.4 76618.6)
(-18796.4 358.709 -2606.32 125228 -28459.6 75660.7)
(-602772 152.253 -4201.39 -63345.5 -26866.7 -104001)
(-604429 961.942 3973.35 -60549.9 -26964 -94715.4)
(-15602.8 633.437 2469.71 129121 -26610.7 88575.5)
(-16975.6 -504.252 -2388.21 127906 -26449.7 87571.7)
(-607067 -886.067 -3891.56 -60364.7 -26457.5 -93926.5)
(-615080 749.914 3744.96 -62717 -28932.3 -85085.1)
(-8284.83 468.368 2375.39 135232 -28086.1 105347)
(-9629.4 -414.681 -2269.05 133996 -27902.4 104284)
(-616929 -713.709 -3653.72 -62273.2 -28361.1 -84193.3)
(-631043 -3630.75 3655.36 -68449.9 -30997.3 -70118.7)
(14870.8 -2446.69 2454.88 133722 -30174.4 132087)
(13506.5 2436.32 -2326.42 132499 -29979.4 130948)
(-632152 3577.76 -3556.32 -67732.3 -30386.9 -69176.1)
(-662341 -14633.9 3723.99 -110721 -27820.3 -59258.5)
(54640.4 -8006.66 2646.03 74836.1 -27074.4 157300)
(53038.1 8007.81 -2546.44 73925.1 -26904.2 156088)
(-663823 14409.2 -3640.75 -109317 -27266.1 -58511.2)
(-826533 -21612.7 4001.66 -861769 -12965.1 -245490)
(-108402 -10790.5 2641.52 -705363 -12162.2 -43597)
(-109402 10938 -2736.67 -702114 -12086.4 -43569.2)
(-830726 21448.3 -4012.39 -849595 -12714.3 -242830)
(-542400 13104.2 -582.038 10961.4 -27920.3 -101213)
(11763.8 -423.85 -506.676 138973 -32685.8 59713.3)
(10758.9 1039.03 542.019 138459 -32589.9 59231.5)
(-546781 -13036.1 580.836 12437.7 -27634.8 -99968.5)
(-577489 1752.63 -503.74 -57940.5 -27883.3 -115290)
(-29858.4 55.6996 -520.241 127802 -30226 63367.2)
(-31268.5 165.587 582.266 126747 -30112.1 62517.6)
(-582071 -1643.78 511.539 -58500.6 -27534.2 -114851)
(-582086 -64.945 -401.928 -58036.2 -27483.4 -102072)
(-38114.8 -212.425 -467.092 121472 -28084.5 74760.8)
(-39502.8 351.204 538.11 120332 -27952.8 73836.3)
(-586122 151.342 415.775 -58269 -27081.2 -101542)
(-587125 706.407 -523.53 -60229.7 -27702.5 -89158.1)
(-36760 464.85 -539.239 118358 -27343.3 89271.9)
(-38111.8 -367.473 621.53 117202 -27191.4 88300.8)
(-590501 -643.528 542.619 -60155.2 -27243.1 -88512.4)
(-597883 524.427 -724.47 -68536.6 -28085.8 -77596.8)
(-29598.5 398.456 -623.012 117477 -27369.6 107906)
(-30922.5 -354.468 721.937 116307 -27199.9 106879)
(-600460 -493.06 749.784 -68179.9 -27574.4 -76829)
(-614678 -3687.09 -877.279 -79280 -26490.4 -65274.8)
(-7557.46 -2340.22 -623.464 110920 -25758.3 132176)
(-8902.23 2343.91 728.302 109771 -25585.1 131083)
(-616498 3638.53 904.083 -78615.2 -25958.4 -64419.7)
(-647896 -14229.7 -844.598 -120806 -19864.2 -65969.4)
(29657.2 -7639.33 -503.533 54241 -19139.5 146093)
(28071.1 7674.39 556.067 53395.6 -18998.3 144953)
(-650035 14018 849.048 -119443 -19402.1 -65224.4)
(-810168 -20790 -707.09 -843717 -7141.04 -261401)
(-126437 -10281.7 -612.471 -691686 -6338.97 -60710.5)
(-127410 10450.5 458.804 -688364 -6282.55 -60549)
(-814698 20638 620.524 -831449 -6940.69 -258489)
(-528893 13039.9 -762.11 15757.1 -22740.8 -96835.3)
(9711.66 -355.061 -642.369 136099 -24245.9 55415)
(8695.15 933.482 663.545 135661 -24186.7 54989.1)
(-534001 -13007.9 754.764 17246.7 -22561.1 -95682.4)
(-564319 1771.23 -1225.19 -53604.9 -23443.4 -110374)
(-33405.7 65.7329 -1063.29 124435 -24065.2 57910.9)
(-34843.1 123.567 1105.26 123445 -23979.9 57132)
(-569664 -1677.49 1220.92 -54256.5 -23182.8 -110017)
(-569397 -103.555 -1295.64 -55542.1 -23795.7 -96087.5)
(-42619 -250.274 -1133.27 116553 -23831.7 70000.4)
(-44032.9 369.699 1184.71 115467 -23725.9 69147.4)
(-574194 183.061 1296.23 -55894.1 -23477.8 -95639.1)
(-574652 575.751 -1356.08 -60445.3 -23908.7 -82301.9)
(-41616.5 395.299 -1159.27 110532 -23558.9 85254.9)
(-42992.4 -300.866 1219.9 109428 -23435.5 84356.5)
(-578782 -513.928 1361.07 -60492.9 -23540.7 -81731.1)
(-585538 375.553 -1467.35 -71200.7 -23071.8 -71366.5)
(-34583.8 357.867 -1195.59 106867 -22545.3 103161)
(-35931.4 -300.811 1265.93 105751 -22408.7 102212)
(-588860 -339.483 1476.03 -70954.3 -22664 -70655.3)
(-602726 -3707.7 -1555.83 -82540.8 -19891.8 -62975.4)
(-13032.4 -2258.44 -1194.58 99792.6 -19364.8 123450)
(-14401.1 2288.32 1261.04 98699.2 -19228.4 122445)
(-605281 3669.3 1562.37 -81968.7 -19473.3 -62143.3)
(-636769 -13909.6 -1520.78 -122105 -13308.7 -70796.8)
(23123.3 -7349.91 -1125.91 46207 -12804 130459)
(21512.9 7416.17 1135.91 45410.9 -12696.1 129425)
(-639608 13711.9 1504.04 -120823 -12952.4 -70016)
(-797309 -20192.5 -1479.37 -831853 -4309.56 -267183)
(-128422 -9904.45 -1255.58 -683031 -3785.69 -75146.5)
(-129420 10090.9 1081.44 -679683 -3743.23 -74862)
(-802356 20053.9 1382.97 -819621 -4154.73 -264110)
(-521719 12549.9 -458.98 16799.2 -16854.9 -93923.4)
(9773.88 -731.357 -377.234 133908 -17026.6 53294.2)
(8751.36 1295.62 388.707 133528 -16991 52903.7)
(-527358 -12537.8 453.391 18294.9 -16748 -92859)
(-556346 1576.72 -829.066 -52268.7 -17530.1 -106344)
(-32620.4 -99.306 -701.18 121572 -17425.5 54801.4)
(-34076.7 278.327 726.804 120632 -17367.6 54070.9)
(-562249 -1489.02 825.572 -52980.5 -17354.9 -106053)
(-561361 -177.799 -935.825 -55122.5 -17925.6 -91641.2)
(-41779.7 -302.645 -787.549 112748 -17714.2 66734.7)
(-43212.4 418.295 821.261 111704 -17639.1 65934.7)
(-566713 256.219 936.061 -55554.3 -17701.7 -91245.6)
(-566724 507.574 -981.264 -61134.3 -17799.9 -78149.8)
(-40888.1 370.562 -804.202 105626 -17503.7 81600.3)
(-42281.6 -270.878 844.63 104561 -17415 80757.5)
(-571402 -443.506 984.614 -61265.1 -17536.6 -77621.7)
(-577738 307.628 -1033.34 -72398.5 -16553.8 -68765)
(-33969.5 352.581 -812.757 101391 -16213.5 97954.9)
(-35334.4 -281.177 857.956 100315 -16115.6 97065.9)
(-581602 -266.082 1038.48 -72229.3 -16261.4 -68082.3)
(-595157 -3697.36 -1068.49 -83176.2 -13501.7 -63488.9)
(-12686.4 -2195.58 -803.48 94995.5 -13187.1 115178)
(-14072.3 2246.33 840.956 93943.6 -13090.2 114240)
(-598247 3667.2 1070.14 -82669.9 -13203.2 -62663.5)
(-629561 -13713.3 -1041.49 -121574 -8527.94 -74830)
(23009 -7177.13 -770.58 43233.2 -8252.87 118884)
(21381.3 7265.12 759.553 42474.5 -8177.18 117926)
(-632914 13525.7 1023.23 -120349 -8275.73 -74023)
(-788955 -19858.5 -1031.43 -825133 -2688.9 -270330)
(-126064 -9695.49 -869.683 -678175 -2422.45 -84861.6)
(-127084 9895 715.734 -674817 -2392.61 -84497.1)
(-794422 19730.3 951.657 -812958 -2578.7 -267171)
(-518250 12205.2 -209.169 16290.1 -10342.3 -92522.6)
(9966.94 -997.853 -159.851 132203 -10208.5 52419.5)
(8942.7 1557.25 165.602 131862 -10189.4 52048.9)
(-524223 -12203 205.99 17788.9 -10285.9 -91522.6)
(-552206 1427.57 -391.989 -52471.1 -10773.3 -104172)
(-31552.6 -221.819 -314.651 119462 -10553.8 53569)
(-33018.1 398.839 328.477 118556 -10520.5 52865.6)
(-558458 -1341.69 390.213 -53216 -10673.2 -103930)
(-557052 -239.923 -460.812 -55666.4 -11012.8 -89447.6)
(-40422.1 -342.535 -366.419 110207 -10806.7 65147.6)
(-41863.9 459.43 385.276 109192 -10762.2 64379)
(-562752 319.077 461.294 -56142.5 -10880.6 -89086.4)
(-562434 469.844 -491.197 -61959 -10815.4 -76560.5)
(-39503.2 361.503 -377.506 102829 -10619.5 79332.4)
(-40905.3 -256.383 400.026 101791 -10566.4 78523.6)
(-567455 -403.52 493.332 -62137.1 -10657.8 -76057.7)
(-573534 281.327 -514.433 -73093.3 -9826.79 -68524.6)
(-32655.7 359.643 -378.144 98740 -9640.11 94369)
(-34028.9 -278.521 402.135 97690.7 -9581.45 93516.8)
(-577735 -236.045 517.055 -72968.3 -9651.05 -67858.3)
(-591091 -3682.24 -526.059 -83325.8 -7782.66 -65137)
(-11532.7 -2156.11 -370.427 92975.1 -7626.63 109787)
(-12926.9 2219.49 387.249 91950.6 -7568.76 108889)
(-594512 3657.08 525.546 -82857.2 -7603.28 -64316.8)
(-625653 -13612.4 -511.387 -121172 -4801.65 -78058.8)
(23943.2 -7091.97 -358.572 42077.5 -4681.02 112061)
(22307 7192.59 342.556 41344.1 -4636.01 111148)
(-629328 13430.9 497.382 -119978 -4650.47 -77241)
(-784403 -19701.1 -507.247 -821762 -1506.61 -272761)
(-123951 -9600.18 -415.378 -675734 -1397.63 -90534.9)
(-124983 9807.87 308.801 -672372 -1379.82 -90125.4)
(-790148 19579.6 454.309 -809632 -1440.32 -269565)
(-516876 12053.3 -57.694 15703.9 -3483.06 -92006.5)
(10021 -1109.69 -40.962 131239 -3412.43 52122)
(8996.46 1667.65 42.7161 130918 -3406.39 51760.4)
(-523009 -12055.3 56.6597 17204.7 -3465.42 -91039.6)
(-550516 1361.83 -108.257 -52906.3 -3626.84 -103315)
(-31036.3 -273.741 -82.461 118334 -3535.49 53223.7)
(-32505.6 450.738 86.7716 117444 -3524.61 52532.5)
(-556935 -1276.37 107.684 -53665 -3594.27 -103098)
(-555265 -270.476 -129.827 -56191.1 -3702.01 -88671.2)
(-39723 -360.767 -97.99 108937 -3622.84 64574.4)
(-41168.4 478.971 103.884 107937 -3608.1 63820.3)
(-561131 350.264 129.961 -56686.3 -3658.27 -88327.9)
(-560642 452.438 -140.34 -62495.6 -3613.21 -76192.5)
(-38762.8 358.259 -101.842 101558 -3545.22 78314.1)
(-40168.3 -250.279 108.748 100533 -3527.52 77521.3)
(-565826 -384.943 140.924 -62694.6 -3560.65 -75702.7)
(-571780 272.145 -147.229 -73463.5 -3247.31 -68877.9)
(-31944.7 364.929 -101.742 97651.6 -3188.05 92649.2)
(-33321.3 -279.365 108.74 96615.7 -3168.47 91814.2)
(-576142 -225.169 147.802 -73358.3 -3188.5 -68220.7)
(-589400 -3673.86 -150.007 -83414.1 -2540.81 -66343.2)
(-10897 -2138.39 -99.2081 92208.6 -2494.63 107264)
(-12294.7 2207.26 103.217 91197.9 -2475.32 106386)
(-592980 3650.87 149.281 -82962.6 -2480.73 -65528)
(-624022 -13571.7 -145.64 -121038 -1555.79 -79870.2)
(24485.2 -7059.18 -96.7772 41649.8 -1523.46 109003)
(22845.5 7165.17 89.0396 40929.1 -1508.45 108111)
(-627853 13392.8 140.079 -119859 -1505.16 -79051.2)
(-782490 -19641.7 -144.023 -820393 -487.549 -274176)
(-122951 -9565.79 -114.88 -674738 -459.874 -93098)
(-123989 9777.23 75.9566 -671374 -453.923 -92668.5)
(-788372 19523.4 125.051 -808288 -465.301 -270970)
)
;

boundaryField
{
    interface
    {
        type            calculated;
        value           nonuniform List<symmTensor> 
192
(
(-91.554 0.301719 6.46634 993602 -21808.3 420218)
(-93.1877 0.177891 7.67501 938597 -11964.8 415893)
(-93.5546 -0.014571 7.67188 965282 -7870.4 421911)
(-93.8786 -0.210877 7.50974 989550 -6787.97 428749)
(-93.478 -0.510861 7.22747 1.02019e+06 -8129.82 439020)
(-94.2981 -1.13483 6.82103 1.07532e+06 -13231.9 459510)
(-90.065 -1.61563 6.08865 1.14286e+06 -23142.4 502820)
(-95.4376 -4.28421 5.36163 516867 -26911.3 516970)
(-84.5077 0.2934 3.48785 1.02413e+06 -43645.3 923904)
(-85.2983 0.122036 4.21188 967898 -27483.1 919548)
(-85.5146 -0.11669 4.19544 980596 -21203 931332)
(-85.8856 -0.379752 4.07546 999823 -19732.5 946351)
(-85.5661 -0.757647 3.87414 1.0268e+06 -22431.1 970704)
(-86.9803 -1.50996 3.58985 1.07175e+06 -28441.5 1.02011e+06)
(-82.7837 -2.05382 3.14112 1.11834e+06 -32508.5 1.11858e+06)
(-90.0744 -5.00644 2.70658 502685 -23115.6 1.14309e+06)
(-89.766 0.337963 2.83926 963363 -33646.9 859335)
(-90.6987 0.114346 3.41097 910182 -29995 860458)
(-90.9224 -0.193205 3.4025 918179 -27312.3 876725)
(-91.2756 -0.524944 3.31173 930554 -26964 896389)
(-90.7918 -0.984234 3.15423 948205 -28932.3 925837)
(-92.099 -1.85485 2.92585 981022 -30997.3 979354)
(-87.0233 -2.49889 2.58233 1.02082e+06 -27820.3 1.07228e+06)
(-94.3482 -5.72942 2.21602 459606 -12965.1 1.07588e+06)
(-88.7385 0.348991 1.93878 931283 -27920.3 819109)
(-89.4892 0.0954228 2.34358 877713 -27883.3 820364)
(-89.6391 -0.2519 2.33644 883424 -27483.4 839388)
(-89.9899 -0.628195 2.27292 891090 -27702.5 862161)
(-89.4971 -1.14182 2.16325 902889 -28085.8 893829)
(-90.9211 -2.08189 2.00522 931483 -26490.4 945488)
(-85.7198 -2.77669 1.7802 973390 -19864.2 1.02823e+06)
(-93.6311 -6.12522 1.54356 439718 -7141.04 1.02203e+06)
(-89.3905 0.36392 1.39794 914468 -22740.8 801875)
(-90.1476 0.0873242 1.69231 860596 -23443.4 803827)
(-90.2793 -0.29091 1.69056 864724 -23795.7 824179)
(-90.6326 -0.699191 1.64932 869881 -23908.7 848025)
(-90.1128 -1.252 1.57613 879468 -23071.8 879302)
(-91.5372 -2.2397 1.4692 907878 -19891.8 927443)
(-86.145 -2.97292 1.31946 952251 -13308.7 1.00356e+06)
(-94.1514 -6.40039 1.15762 430593 -4309.56 995262)
(-89.5558 0.376463 0.934481 904569 -16854.9 793846)
(-90.2954 0.0842066 1.13506 850660 -17530.1 796585)
(-90.4047 -0.31468 1.13726 853884 -17925.6 817365)
(-90.7575 -0.743862 1.11399 858053 -17799.9 841037)
(-90.2223 -1.32261 1.07051 867296 -16553.8 870930)
(-91.6458 -2.34061 1.00547 896489 -13501.7 916176)
(-86.1593 -3.0983 0.915016 942194 -8527.94 988938)
(-94.258 -6.57435 0.816648 425826 -2688.9 980628)
(-89.6594 0.387919 0.538499 898742 -10342.3 789929)
(-90.397 0.0859614 0.657211 844859 -10773.3 793158)
(-90.4953 -0.325488 0.662011 847693 -11012.8 813912)
(-90.8499 -0.76696 0.652744 851633 -10815.4 837031)
(-90.3082 -1.36121 0.632794 861102 -9826.79 865671)
(-91.7303 -2.39685 0.600609 890955 -7782.66 909143)
(-86.1898 -3.16892 0.556227 937259 -4801.65 980372)
(-94.3362 -6.67371 0.505438 423310 -1506.61 972311)
(-89.698 0.396036 0.176932 895998 -3483.06 788288)
(-90.4345 0.0898666 0.216967 842134 -3626.84 791726)
(-90.5286 -0.32702 0.219664 844849 -3702.01 812369)
(-90.8846 -0.773727 0.217865 848794 -3613.21 835097)
(-90.3461 -1.37521 0.212862 858471 -3247.31 863057)
(-91.7618 -2.41817 0.203714 888654 -2540.81 905725)
(-86.2074 -3.19779 0.191517 935191 -1555.79 976358)
(-94.3632 -6.71552 0.175949 422225 -487.549 968442)
(521273 -12853.7 -10.825 1.05696e+06 -0.0776631 -34.3036)
(522688 -3075.12 -12.9145 1.00376e+06 -0.173272 -30.8011)
(525870 753.3 -12.971 1.02944e+06 -0.180825 -30.5999)
(527562 1780.56 -12.8399 1.05179e+06 -0.229024 -31.579)
(533858 929.91 -12.6171 1.08066e+06 -0.286598 -33.424)
(554797 -3906.2 -12.3211 1.13524e+06 -0.368337 -36.4646)
(604858 -15018.9 -11.8793 1.20478e+06 -0.400558 -40.2639)
(629987 -21676.1 -11.5898 586012 -0.498474 -45.1848)
(1.01186e+06 -14080.6 -9.16554 1.06747e+06 -0.0128848 -51.7373)
(1.02171e+06 -2790.96 -11.1031 1.03454e+06 -0.0532672 -51.264)
(1.02993e+06 472.284 -11.1493 1.05798e+06 -0.0547801 -51.3193)
(1.03699e+06 1400.06 -11.0466 1.08463e+06 -0.061497 -51.6167)
(1.05578e+06 781.955 -10.894 1.11971e+06 -0.0700732 -52.1485)
(1.10839e+06 -2538.29 -10.7071 1.17276e+06 -0.0870701 -52.9705)
(1.22199e+06 -8287.74 -10.4684 1.22142e+06 -0.0976674 -53.8549)
(1.2563e+06 -10849.7 -10.3529 583645 -0.117546 -54.9134)
(1.00596e+06 15532.7 -9.34504 1.0626e+06 -0.0871244 -46.2986)
(1.01491e+06 3551.79 -11.309 1.029e+06 -0.0218324 -45.9663)
(1.02303e+06 122.86 -11.3637 1.05223e+06 0.0455712 -46.0364)
(1.0301e+06 -875.367 -11.2569 1.0788e+06 0.0964826 -46.3319)
(1.04892e+06 -357.013 -11.0928 1.11382e+06 0.146608 -46.906)
(1.10157e+06 2828.71 -10.8835 1.16687e+06 0.196725 -47.7453)
(1.21511e+06 8436 -10.6157 1.21586e+06 0.243702 -48.8976)
(1.24975e+06 10947.8 -10.4404 581414 0.265147 -50.1434)
(497046 12961.9 -10.7731 1.04183e+06 -0.15468 -49.688)
(496965 3350.97 -12.9472 986033 0.00698769 -49.6282)
(500174 -475.396 -13.0028 1.0116e+06 0.132029 -49.6421)
(502202 -1533.56 -12.8632 1.03397e+06 0.230584 -49.692)
(508965 -732.73 -12.6322 1.06282e+06 0.325869 -49.8816)
(530348 3994.74 -12.3195 1.11742e+06 0.426765 -50.013)
(580003 14900.9 -11.8593 1.18768e+06 0.505268 -50.4923)
(601973 21540.5 -11.5353 578591 0.597744 -50.629)
(-7.69249 0.477334 6.62419 1.00971e+06 -21666.2 444184)
(-3.3041 0.272722 7.92512 952966 -11829.5 440177)
(-2.86657 -0.0438347 7.91057 979336 -7695.53 445867)
(-3.28056 -0.295328 7.74746 1.00302e+06 -6581.58 452036)
(-4.81362 -0.645389 7.47689 1.03283e+06 -7895.63 461454)
(-5.66481 -1.28692 7.09481 1.08723e+06 -12963.3 481187)
(-11.2396 -1.72048 6.40561 1.15615e+06 -22823.6 525179)
(-0.219981 -4.76845 5.85984 546763 -26624.4 546890)
(-31.7025 0.314691 3.15486 1.03311e+06 -43077.8 933192)
(-30.8005 0.11842 3.91133 974781 -27098.8 928068)
(-30.6431 -0.160269 3.88176 987120 -20812.2 939288)
(-30.3595 -0.442566 3.77065 1.00568e+06 -19283.6 953447)
(-30.4506 -0.838234 3.60252 1.03166e+06 -21915.1 976685)
(-28.4435 -1.56878 3.37594 1.07563e+06 -27866.4 1.02496e+06)
(-31.0179 -1.91988 3.02109 1.12331e+06 -31942.3 1.12364e+06)
(-11.1526 -5.30943 2.82591 525019 -22803.4 1.15647e+06)
(-30.337 0.325488 2.77224 972544 -33218.7 868390)
(-29.4689 0.0860738 3.3877 917035 -29582.2 868345)
(-29.1985 -0.238944 3.37806 924631 -26866.7 883976)
(-28.7127 -0.57514 3.29288 936326 -26457.5 902764)
(-28.5103 -1.03872 3.15271 952982 -28361.1 931062)
(-25.8864 -1.86547 2.94999 984811 -30386.9 983367)
(-28.3129 -2.27056 2.65544 1.02556e+06 -27266.1 1.07637e+06)
(-5.43319 -5.98835 2.38423 481248 -12714.3 1.08801e+06)
(-33.7672 0.33489 1.94216 941812 -27634.8 829406)
(-33.0865 0.0637395 2.38783 885769 -27534.2 829419)
(-32.7991 -0.298472 2.38079 891038 -27081.2 847765)
(-32.1336 -0.673535 2.31972 898014 -27243.1 869656)
(-31.5874 -1.18582 2.21836 908830 -27574.4 900181)
(-28.3105 -2.06603 2.07162 936448 -25958.4 950644)
(-30.121 -2.48848 1.87573 979229 -19402.1 1.03345e+06)
(-4.3452 -6.35806 1.69786 462099 -6940.69 1.03506e+06)
(-34.6253 0.350775 1.41463 926221 -22561.1 813292)
(-33.9306 0.0556539 1.73664 869789 -23182.8 814028)
(-33.5729 -0.33572 1.73592 873443 -23477.8 833698)
(-32.7572 -0.738914 1.69718 877897 -23540.7 856659)
(-31.9738 -1.28685 1.62997 886502 -22664 886801)
(-28.3283 -2.20345 1.53012 913941 -19473.3 933766)
(-29.8296 -2.64545 1.39972 959148 -12952.4 1.00996e+06)
(-2.48229 -6.61723 1.27183 453793 -4154.73 1.0093e+06)
(-35.1521 0.366062 0.959138 917208 -16748 806054)
(-34.4394 0.0540811 1.17855 860688 -17354.9 807616)
(-34.0357 -0.357944 1.18161 863415 -17701.7 827724)
(-33.1246 -0.780402 1.15979 866869 -17536.6 850513)
(-32.193 -1.35287 1.11949 875127 -16261.4 879274)
(-28.3308 -2.29259 1.05769 903350 -13203.2 923356)
(-29.616 -2.7477 0.978577 949871 -8275.73 996197)
(-1.21231 -6.78403 0.899326 449658 -2578.7 995444)
(-35.46 0.379187 0.55541 911938 -10285.9 802626)
(-34.7305 0.0568428 0.68469 855418 -10673.2 804704)
(-34.2935 -0.367699 0.690002 857743 -10880.6 824799)
(-33.3179 -0.801536 0.681619 860957 -10657.8 847037)
(-32.2875 -1.38881 0.66342 869437 -9651.05 874547)
(-28.2915 -2.34161 0.632867 898319 -7603.28 916859)
(-29.434 -2.80432 0.595211 945432 -4650.47 988169)
(-0.384116 -6.87921 0.554516 447553 -1440.32 987620)
(-35.5981 0.388122 0.182959 909462 -3465.42 801218)
(-34.8593 0.0613143 0.226436 852951 -3594.27 803518)
(-34.4046 -0.368596 0.229321 855149 -3658.27 823507)
(-33.397 -0.807251 0.22785 858363 -3560.65 845355)
(-32.313 -1.40152 0.22343 867048 -3188.5 872186)
(-28.263 -2.35905 0.214787 896260 -2480.73 913694)
(-29.3187 -2.82626 0.205001 943602 -1505.16 984410)
(0.0173184 -6.91888 0.192523 446668 -465.301 983987)
(630034 10.5293 21685.5 -45.1127 -0.461762 586162)
(604904 10.8099 15046.2 -40.1468 -0.364599 1.20506e+06)
(554707 11.24 4001.66 -36.2815 -0.328601 1.13575e+06)
(533401 11.5232 -707.09 -33.1402 -0.239615 1.08217e+06)
(526525 11.7351 -1479.37 -31.0594 -0.174894 1.05665e+06)
(524639 11.8748 -1031.43 -29.5724 -0.109882 1.04326e+06)
(524129 11.956 -507.247 -28.6414 -0.0565818 1.03577e+06)
(523967 11.9902 -144.023 -28.2034 -0.016696 1.03228e+06)
(1.25633e+06 9.32589 10865.4 -54.8298 -0.0960833 583718)
(1.22196e+06 9.42322 8336.38 -53.7188 -0.0776565 1.22152e+06)
(1.10813e+06 9.64334 2641.52 -52.7622 -0.0652706 1.17293e+06)
(1.055e+06 9.80921 -612.471 -51.8504 -0.0441366 1.12072e+06)
(1.03562e+06 9.93797 -1255.58 -51.1777 -0.030417 1.08889e+06)
(1.02924e+06 10.0239 -869.683 -50.6612 -0.0168831 1.07045e+06)
(1.02712e+06 10.0724 -415.378 -50.3235 -0.00629725 1.06053e+06)
(1.0264e+06 10.0913 -114.88 -50.1432 -0.000847843 1.05625e+06)
(1.24978e+06 9.41267 -10923.3 -50.049 0.265523 581508)
(1.21509e+06 9.56939 -8362.89 -48.7365 0.243106 1.21601e+06)
(1.10131e+06 9.81809 -2736.67 -47.4965 0.197318 1.16714e+06)
(1.04812e+06 10.0061 458.804 -46.5486 0.149349 1.11499e+06)
(1.02871e+06 10.147 1081.44 -45.8299 0.105817 1.08326e+06)
(1.02232e+06 10.2411 715.734 -45.3089 0.0685103 1.06491e+06)
(1.02019e+06 10.2944 308.801 -44.9743 0.0363786 1.05505e+06)
(1.01947e+06 10.3147 75.9566 -44.8172 0.0108014 1.05079e+06)
(602029 10.4705 -21527.2 -50.5287 0.581646 578773)
(580061 10.7839 -14879.4 -50.3151 0.487822 1.18807e+06)
(530270 11.2305 -4012.39 -49.7362 0.408372 1.11817e+06)
(508523 11.5279 620.524 -49.4827 0.307255 1.06473e+06)
(501186 11.7444 1382.97 -49.1608 0.220247 1.03943e+06)
(498966 11.8882 951.657 -48.9117 0.141081 1.02622e+06)
(498248 11.9718 454.309 -48.7393 0.073893 1.01883e+06)
(497985 12.0064 125.051 -48.6437 0.021946 1.01539e+06)
)
;
    }
    symmetry
    {
        type            symmetry;
    }
    bottom
    {
        type            calculated;
        value           nonuniform List<symmTensor> 
32
(
(-1.03785e+06 -23015.7 15008.4 -448604 -25666.9 -1.07555e+06)
(-711491 13912 9646.74 -82620.7 -48926.1 -228092)
(-661214 31277 1941.05 -52685.3 -33645.1 -199013)
(-636273 34968.9 -582.038 -40901.3 -27267.6 -195086)
(-622078 34526.3 -762.11 -35534.2 -22358.5 -190020)
(-614651 33616.3 -458.98 -34370.3 -16740.3 -186855)
(-611078 33033.9 -209.169 -34850.1 -10351 -185351)
(-609661 32781.9 -57.694 -35418.1 -3499.92 -184791)
(-254993 -21128.1 7029.49 -163495 -6775.92 -791769)
(42888 -12138 4558.58 152466 -59648.4 41719.2)
(19759.4 -2766.22 1052.9 141566 -46321.3 63389.1)
(7616.69 235.257 -506.676 132600 -33749.1 55566.1)
(5294.95 242.959 -642.369 129086 -24526.8 50998.3)
(5492.08 -269.55 -377.234 127205 -17131.8 49012.4)
(5858.38 -606.638 -159.851 125902 -10284.3 48310.9)
(6011.67 -743.106 -40.962 125169 -3444.16 48112.7)
(-255275 22923 -7168.05 -162638 -6752.3 -788404)
(41731 13243.2 -4575.31 152003 -59389.6 41307.9)
(18761.3 3579.78 -1015.96 141177 -46146.3 62869.1)
(6629.45 501.369 542.019 132297 -33650.3 55102)
(4297.3 481.192 663.545 128863 -24470.9 50591.2)
(4489.51 997.635 388.707 127044 -17100.1 48641.8)
(4854.69 1341.48 165.602 125782 -10267.8 47960.9)
(5007.91 1482.26 42.7161 125069 -3439.04 47771.9)
(-1.04757e+06 22477.5 -14915.9 -447925 -25499.5 -1.06832e+06)
(-719864 -14200.9 -9497.62 -84619.6 -48199.5 -231132)
(-669496 -31557.1 -1901.75 -54510.1 -33167.7 -202360)
(-645348 -35309.5 580.836 -42651.1 -26984.9 -198535)
(-631906 -34911.9 754.764 -37237.3 -22196.3 -193587)
(-625025 -34024.9 453.391 -36045.9 -16650.5 -190526)
(-621796 -33452.7 205.99 -36512.3 -10305.9 -189096)
(-620544 -33204.6 56.6597 -37074.5 -3486.15 -188574)
)
;
    }
}


// ************************************************************************* //
