/*--------------------------------*- C++ -*----------------------------------*\
| =========                 |                                                 |
| \\      /  F ield         | OpenFOAM: The Open Source CFD Toolbox           |
|  \\    /   O peration     | Version:  v1912                                 |
|   \\  /    A nd           | Website:  www.openfoam.com                      |
|    \\/     M anipulation  |                                                 |
\*---------------------------------------------------------------------------*/
FoamFile
{
    version     2.0;
    format      ascii;
    class       volScalarField;
    location    "0.08/solid";
    object      sigmaHyd;
}
// * * * * * * * * * * * * * * * * * * * * * * * * * * * * * * * * * * * * * //

dimensions      [1 -1 -2 0 0 0 0];


internalField   nonuniform List<scalar> 
256
(
-912019
-442298
-441103
-914047
-940593
-462093
-461192
-943318
-932755
-451806
-450903
-935049
-933139
-446426
-445507
-935056
-939384
-442925
-442015
-940987
-948403
-437051
-436197
-949855
-982708
-452287
-451537
-984542
-1.52584e+06
-1.0073e+06
-1.00516e+06
-1.52563e+06
-389752
68285.3
67418.2
-395681
-427482
48548.7
47263.5
-434491
-422985
50569
49245.7
-429618
-420323
57785.4
56453.7
-426566
-420536
69692.9
68342.2
-426359
-420482
89574.3
88192.5
-425905
-441162
95908.1
94524.1
-446535
-982693
-452354
-451589
-984493
-350128
74639.2
73797.1
-356125
-391558
59369.1
58089.1
-398735
-388209
59212.5
57891.3
-395022
-385991
64688
63358.5
-392401
-387815
74746.3
73400.2
-393772
-391873
90817.1
89444.7
-397376
-420029
89987.9
88620.2
-425403
-948240
-437099
-436212
-949600
-336265
67672.2
66877.4
-342613
-380566
51158.8
49919.5
-388163
-377952
50091
48805.8
-385202
-376410
54338.1
53044.6
-383252
-379686
62634.4
61327.8
-386057
-386599
75828
74500.4
-392485
-419020
71134.7
69816.9
-424721
-938705
-442607
-441642
-940130
-327929
64605.9
63850.2
-334616
-372301
47044.3
45840
-380282
-370108
45371.8
44119
-377749
-369255
48780.2
47519.2
-376485
-373608
55862.7
54591.2
-380352
-382175
67393.6
66105.4
-388412
-416597
61082.5
59807.5
-422612
-930923
-444528
-443521
-932537
-323868
63192.8
62466
-330803
-367496
45318.6
44140.2
-375751
-365451
43298.1
42070.2
-373366
-365105
46173.1
44937.4
-372603
-370192
52510.4
51266
-377195
-379694
63156
61897.8
-386176
-415020
56201
54957.7
-421258
-926269
-445068
-444039
-928054
-322254
62398.7
61690.8
-329346
-365297
44562.1
43400.6
-373721
-363303
42376.2
41164.9
-371385
-363260
44947.9
43729.2
-370922
-368785
50870.8
49644.5
-375946
-378783
61071.5
59832.9
-385414
-414503
53855.4
52632.6
-420881
-924126
-445311
-444270
-926032
-321757
61996.9
61298.3
-328924
-364529
44243.6
43090.4
-373033
-362560
41995.6
40792.6
-370722
-362656
44432.3
43222.1
-370396
-368381
50172.3
48955
-375615
-378591
60187.6
58958.6
-385293
-414458
52875.2
51662.2
-420903
-923381
-445449
-444404
-925348
)
;

boundaryField
{
    interface
    {
        type            zeroGradient;
    }
    symmetry
    {
        type            symmetry;
    }
    bottom
    {
        type            zeroGradient;
    }
}


// ************************************************************************* //
