/*--------------------------------*- C++ -*----------------------------------*\
| =========                 |                                                 |
| \\      /  F ield         | OpenFOAM: The Open Source CFD Toolbox           |
|  \\    /   O peration     | Version:  v1912                                 |
|   \\  /    A nd           | Website:  www.openfoam.com                      |
|    \\/     M anipulation  |                                                 |
\*---------------------------------------------------------------------------*/
FoamFile
{
    version     2.0;
    format      ascii;
    class       volVectorField;
    location    "0.21/solid";
    object      D;
}
// * * * * * * * * * * * * * * * * * * * * * * * * * * * * * * * * * * * * * //

dimensions      [0 1 0 0 0 0 0];


internalField   nonuniform List<vector> 
256
(
(8.1576e-09 2.07765e-08 8.19425e-09)
(-3.9203e-10 1.27944e-08 8.46295e-09)
(1.09747e-09 1.26933e-08 8.62412e-09)
(-7.4897e-09 2.02966e-08 8.79099e-09)
(1.21084e-08 1.84712e-08 1.09063e-08)
(1.1523e-09 1.44788e-08 1.12867e-08)
(1.167e-09 1.40868e-08 1.17121e-08)
(-9.84527e-09 1.70701e-08 1.23217e-08)
(1.28813e-08 1.70502e-08 9.3172e-09)
(2.11587e-09 1.5456e-08 9.61876e-09)
(2.14429e-09 1.477e-08 1.0232e-08)
(-8.69131e-09 1.48074e-08 1.12886e-08)
(1.36357e-08 1.78658e-08 6.66222e-09)
(3.00534e-09 1.70474e-08 7.07566e-09)
(3.53914e-09 1.60924e-08 7.82303e-09)
(-7.17137e-09 1.48628e-08 9.0337e-09)
(1.47091e-08 2.01981e-08 3.65165e-09)
(4.07032e-09 1.96641e-08 4.37969e-09)
(5.09662e-09 1.84594e-08 5.23005e-09)
(-5.62543e-09 1.64893e-08 6.33233e-09)
(1.53735e-08 2.3943e-08 3.18514e-10)
(5.03005e-09 2.35518e-08 1.45037e-09)
(7.0941e-09 2.21048e-08 2.3873e-09)
(-3.34417e-09 1.95544e-08 3.25617e-09)
(1.46789e-08 2.86583e-08 -3.31663e-09)
(5.59902e-09 2.77867e-08 -1.88807e-09)
(9.81951e-09 2.61051e-08 -8.69341e-10)
(5.70252e-10 2.35985e-08 -1.4711e-10)
(1.33933e-08 1.94044e-08 -5.89332e-09)
(6.22583e-09 1.73067e-08 -4.52414e-09)
(1.27861e-08 1.54997e-08 -3.43062e-09)
(5.2679e-09 1.38728e-08 -2.52875e-09)
(8.94555e-09 1.24114e-08 -1.68417e-09)
(-1.08021e-10 4.92481e-09 -1.83829e-09)
(4.83266e-10 4.78395e-09 -1.66768e-09)
(-8.47483e-09 1.1872e-08 -1.17651e-09)
(1.35803e-08 1.46285e-08 -1.61593e-09)
(1.54112e-09 1.07117e-08 -1.88071e-09)
(-8.18968e-12 1.02543e-08 -1.46743e-09)
(-1.19285e-08 1.31321e-08 -4.07198e-10)
(1.43239e-08 1.62545e-08 -2.8628e-09)
(2.42021e-09 1.46342e-08 -3.11663e-09)
(7.10343e-10 1.38968e-08 -2.53398e-09)
(-1.10843e-08 1.39475e-08 -1.15795e-09)
(1.49361e-08 1.84327e-08 -5.33625e-09)
(3.18562e-09 1.75795e-08 -5.48763e-09)
(1.95939e-09 1.65911e-08 -4.78146e-09)
(-9.68559e-09 1.53985e-08 -3.26106e-09)
(1.6002e-08 2.12201e-08 -8.3878e-09)
(4.16378e-09 2.06361e-08 -8.39441e-09)
(3.38781e-09 1.94112e-08 -7.59065e-09)
(-8.34034e-09 1.75033e-08 -6.01732e-09)
(1.68514e-08 2.46571e-08 -1.16291e-08)
(5.10166e-09 2.42185e-08 -1.15069e-08)
(5.23084e-09 2.27621e-08 -1.0621e-08)
(-6.41432e-09 2.02804e-08 -9.01046e-09)
(1.64888e-08 2.79668e-08 -1.43934e-08)
(5.70493e-09 2.70618e-08 -1.42148e-08)
(7.77629e-09 2.53893e-08 -1.32624e-08)
(-2.97877e-09 2.29565e-08 -1.15733e-08)
(1.54665e-08 1.69162e-08 -1.51525e-08)
(6.37729e-09 1.47363e-08 -1.49931e-08)
(1.05828e-08 1.29823e-08 -1.4012e-08)
(1.31926e-09 1.15239e-08 -1.22369e-08)
(9.19067e-09 1.02772e-08 -1.11592e-09)
(1.3731e-10 3.12504e-09 -1.44584e-09)
(5.33943e-11 2.99571e-09 -1.31988e-09)
(-8.88892e-09 9.83453e-09 -7.55365e-10)
(1.45344e-08 1.23894e-08 -1.98372e-09)
(1.92346e-09 8.5315e-09 -2.47472e-09)
(-9.15559e-10 8.09401e-09 -2.16089e-09)
(-1.33682e-08 1.10256e-08 -1.08915e-09)
(1.54379e-08 1.47323e-08 -3.13966e-09)
(2.7645e-09 1.3113e-08 -3.60776e-09)
(-4.54521e-10 1.24011e-08 -3.1567e-09)
(-1.29693e-08 1.25631e-08 -1.84335e-09)
(1.59423e-08 1.75013e-08 -5.08684e-09)
(3.42389e-09 1.66756e-08 -5.47045e-09)
(6.51918e-10 1.5717e-08 -4.9137e-09)
(-1.1705e-08 1.46041e-08 -3.47218e-09)
(1.69108e-08 2.03699e-08 -7.5167e-09)
(4.31534e-09 1.9815e-08 -7.81023e-09)
(1.96139e-09 1.86236e-08 -7.16686e-09)
(-1.04627e-08 1.67883e-08 -5.63834e-09)
(1.7788e-08 2.32186e-08 -9.84393e-09)
(5.23003e-09 2.27885e-08 -1.00787e-08)
(3.65882e-09 2.13706e-08 -9.36328e-09)
(-8.72969e-09 1.89803e-08 -7.74514e-09)
(1.76303e-08 2.52832e-08 -1.11823e-08)
(5.8809e-09 2.4414e-08 -1.14073e-08)
(6.01865e-09 2.27886e-08 -1.06403e-08)
(-5.63755e-09 2.04239e-08 -8.91943e-09)
(1.69627e-08 1.34136e-08 -1.04644e-08)
(6.60719e-09 1.14945e-08 -1.07334e-08)
(8.65639e-09 9.7967e-09 -9.95515e-09)
(-1.81469e-09 8.18174e-09 -8.1479e-09)
(8.94006e-09 9.71414e-09 -6.9329e-10)
(1.82468e-10 2.79076e-09 -8.87501e-10)
(-8.93101e-11 2.67876e-09 -7.97605e-10)
(-8.76797e-09 9.366e-09 -4.36917e-10)
(1.44295e-08 1.13185e-08 -1.77194e-09)
(1.96562e-09 7.53132e-09 -2.03096e-09)
(-1.28696e-09 7.13661e-09 -1.80287e-09)
(-1.36241e-08 1.01231e-08 -1.12403e-09)
(1.54441e-08 1.33674e-08 -2.91271e-09)
(2.76631e-09 1.17803e-08 -3.12936e-09)
(-1.01778e-09 1.11208e-08 -2.79636e-09)
(-1.35583e-08 1.13868e-08 -1.9577e-09)
(1.58832e-08 1.59705e-08 -4.41154e-09)
(3.33949e-09 1.51962e-08 -4.5543e-09)
(-3.58847e-11 1.42921e-08 -4.13663e-09)
(-1.24329e-08 1.32603e-08 -3.20068e-09)
(1.67142e-08 1.85457e-08 -6.12295e-09)
(4.13453e-09 1.80449e-08 -6.18785e-09)
(1.18813e-09 1.69076e-08 -5.69854e-09)
(-1.12312e-08 1.5143e-08 -4.69266e-09)
(1.75043e-08 2.08474e-08 -7.53914e-09)
(4.98992e-09 2.04548e-08 -7.54767e-09)
(2.7923e-09 1.90907e-08 -6.99908e-09)
(-9.56145e-09 1.67802e-08 -5.92508e-09)
(1.74296e-08 2.2249e-08 -7.93723e-09)
(5.65136e-09 2.14675e-08 -7.93228e-09)
(5.01477e-09 1.98951e-08 -7.34365e-09)
(-6.67785e-09 1.75526e-08 -6.19147e-09)
(1.70201e-08 1.03527e-08 -6.72726e-09)
(6.40491e-09 8.78499e-09 -6.78185e-09)
(7.51803e-09 7.13532e-09 -6.18769e-09)
(-3.22009e-09 5.26427e-09 -4.945e-09)
(8.60712e-09 9.39558e-09 -5.05042e-10)
(1.31961e-10 2.64606e-09 -5.76457e-10)
(-9.39315e-11 2.54856e-09 -5.1352e-10)
(-8.52238e-09 9.11879e-09 -3.26487e-10)
(1.39391e-08 1.06436e-08 -1.49098e-09)
(1.81941e-09 6.94833e-09 -1.53876e-09)
(-1.34849e-09 6.59317e-09 -1.37769e-09)
(-1.33802e-08 9.58973e-09 -1.03553e-09)
(1.49424e-08 1.22481e-08 -2.49784e-09)
(2.55656e-09 1.07164e-08 -2.48423e-09)
(-1.18522e-09 1.01082e-08 -2.24672e-09)
(-1.34654e-08 1.04375e-08 -1.81909e-09)
(1.53209e-08 1.44183e-08 -3.61245e-09)
(3.05613e-09 1.37024e-08 -3.53252e-09)
(-2.94698e-10 1.28525e-08 -3.23128e-09)
(-1.24389e-08 1.18829e-08 -2.74091e-09)
(1.60336e-08 1.65748e-08 -4.72311e-09)
(3.76591e-09 1.61316e-08 -4.57706e-09)
(8.65352e-10 1.50477e-08 -4.22054e-09)
(-1.1265e-08 1.33405e-08 -3.68149e-09)
(1.67267e-08 1.84779e-08 -5.47615e-09)
(4.55648e-09 1.81323e-08 -5.27889e-09)
(2.40529e-09 1.68193e-08 -4.8764e-09)
(-9.62549e-09 1.45683e-08 -4.29063e-09)
(1.66795e-08 1.95994e-08 -5.40158e-09)
(5.2056e-09 1.89075e-08 -5.18876e-09)
(4.53075e-09 1.7382e-08 -4.7558e-09)
(-6.87713e-09 1.50462e-08 -4.11373e-09)
(1.64192e-08 7.85505e-09 -4.19436e-09)
(5.96126e-09 6.56947e-09 -4.03162e-09)
(6.93907e-09 4.96022e-09 -3.59567e-09)
(-3.66078e-09 2.88854e-09 -2.88025e-09)
(8.35278e-09 9.15209e-09 -3.71396e-10)
(7.42665e-11 2.52743e-09 -3.87843e-10)
(-6.81158e-11 2.44052e-09 -3.46209e-10)
(-8.32272e-09 8.92456e-09 -2.54203e-10)
(1.34885e-08 1.01219e-08 -1.13187e-09)
(1.65944e-09 6.51488e-09 -1.09637e-09)
(-1.31772e-09 6.18943e-09 -9.89339e-10)
(-1.30875e-08 9.17075e-09 -8.31226e-10)
(1.44239e-08 1.13583e-08 -1.89521e-09)
(2.32995e-09 9.88626e-09 -1.79927e-09)
(-1.20339e-09 9.31792e-09 -1.64045e-09)
(-1.3216e-08 9.67665e-09 -1.44378e-09)
(1.47404e-08 1.31258e-08 -2.65912e-09)
(2.76881e-09 1.2463e-08 -2.50925e-09)
(-3.71118e-10 1.16565e-08 -2.3063e-09)
(-1.22425e-08 1.07272e-08 -2.07428e-09)
(1.53678e-08 1.49191e-08 -3.32785e-09)
(3.41423e-09 1.45244e-08 -3.12851e-09)
(7.4104e-10 1.34836e-08 -2.88659e-09)
(-1.10932e-08 1.18186e-08 -2.6228e-09)
(1.59908e-08 1.65573e-08 -3.68123e-09)
(4.15354e-09 1.62522e-08 -3.44394e-09)
(2.23215e-09 1.49798e-08 -3.16932e-09)
(-9.48205e-09 1.27727e-08 -2.87319e-09)
(1.59522e-08 1.7555e-08 -3.44788e-09)
(4.78517e-09 1.69293e-08 -3.19855e-09)
(4.28872e-09 1.54408e-08 -2.90236e-09)
(-6.82746e-09 1.31143e-08 -2.56641e-09)
(1.57763e-08 5.92758e-09 -2.46983e-09)
(5.53272e-09 4.82727e-09 -2.25456e-09)
(6.63142e-09 3.24981e-09 -1.95679e-09)
(-3.76885e-09 1.05718e-09 -1.57036e-09)
(8.19733e-09 8.98522e-09 -2.32718e-10)
(3.65342e-11 2.43896e-09 -2.3325e-10)
(-4.78095e-11 2.35888e-09 -2.09529e-10)
(-8.19883e-09 8.78833e-09 -1.66389e-10)
(1.31964e-08 9.74642e-09 -7.07176e-10)
(1.55161e-09 6.20369e-09 -6.6691e-10)
(-1.28464e-09 5.89751e-09 -6.05758e-10)
(-1.28882e-08 8.86082e-09 -5.36379e-10)
(1.4069e-08 1.07291e-08 -1.17505e-09)
(2.17268e-09 9.30355e-09 -1.0931e-09)
(-1.19212e-09 8.76162e-09 -1.002e-09)
(-1.30227e-08 9.13177e-09 -9.17319e-10)
(1.43358e-08 1.22194e-08 -1.61714e-09)
(2.56865e-09 1.15959e-08 -1.50024e-09)
(-3.93172e-10 1.08186e-08 -1.38326e-09)
(-1.20732e-08 9.91231e-09 -1.28128e-09)
(1.49086e-08 1.37688e-08 -1.96894e-09)
(3.17181e-09 1.3408e-08 -1.82182e-09)
(6.86957e-10 1.23964e-08 -1.68171e-09)
(-1.0942e-08 1.07592e-08 -1.56168e-09)
(1.54894e-08 1.52449e-08 -2.11128e-09)
(3.87758e-09 1.4967e-08 -1.94172e-09)
(2.14373e-09 1.37225e-08 -1.78207e-09)
(-9.35541e-09 1.15456e-08 -1.64223e-09)
(1.54545e-08 1.61769e-08 -1.90621e-09)
(4.49532e-09 1.55913e-08 -1.72978e-09)
(4.15465e-09 1.4128e-08 -1.55724e-09)
(-6.76312e-09 1.18133e-08 -1.39294e-09)
(1.53269e-08 4.61287e-09 -1.27734e-09)
(5.2347e-09 3.61829e-09 -1.12023e-09)
(6.45445e-09 2.06274e-09 -9.46941e-10)
(-3.80381e-09 -1.91253e-10 -7.53528e-10)
(8.12563e-09 8.90103e-09 -7.96475e-11)
(1.92742e-11 2.39195e-09 -7.87582e-11)
(-3.81965e-11 2.31521e-09 -7.10572e-11)
(-8.14156e-09 8.7188e-09 -5.81903e-11)
(1.30597e-08 9.54932e-09 -2.40515e-10)
(1.50108e-09 6.03927e-09 -2.2498e-10)
(-1.26826e-09 5.7425e-09 -2.05099e-10)
(-1.27943e-08 8.69546e-09 -1.85158e-10)
(1.38989e-08 1.04024e-08 -3.97303e-10)
(2.09719e-09 9.00154e-09 -3.67208e-10)
(-1.18464e-09 8.47265e-09 -3.37529e-10)
(-1.29281e-08 8.84651e-09 -3.13564e-10)
(1.4139e-08 1.17554e-08 -5.41527e-10)
(2.4713e-09 1.11524e-08 -4.99398e-10)
(-4.00874e-10 1.03897e-08 -4.61198e-10)
(-1.19878e-08 9.49384e-09 -4.32079e-10)
(1.4685e-08 1.31859e-08 -6.50696e-10)
(3.05358e-09 1.28421e-08 -5.98442e-10)
(6.63285e-10 1.18453e-08 -5.52579e-10)
(-1.08659e-08 1.02218e-08 -5.17584e-10)
(1.52462e-08 1.45845e-08 -6.87095e-10)
(3.74293e-09 1.43199e-08 -6.2749e-10)
(2.10227e-09 1.30894e-08 -5.75124e-10)
(-9.29338e-09 1.09283e-08 -5.33394e-10)
(1.52131e-08 1.54848e-08 -6.08532e-10)
(4.35337e-09 1.49175e-08 -5.4677e-10)
(4.09018e-09 1.3467e-08 -4.90115e-10)
(-6.73275e-09 1.11604e-08 -4.4006e-10)
(1.51085e-08 3.94733e-09 -3.92212e-10)
(5.08828e-09 2.99982e-09 -3.36702e-10)
(6.36837e-09 1.45541e-09 -2.79832e-10)
(-3.82251e-09 -8.23021e-10 -2.2027e-10)
)
;

boundaryField
{
    interface
    {
        type            solidTraction;
        traction        nonuniform List<vector> 
192
(
(65.7337 -0.227479 -4.24462)
(67.6904 0.0164144 -6.00539)
(68.4905 0.366733 -6.22725)
(69.1079 0.739607 -6.1592)
(68.934 1.07244 -5.94399)
(69.6508 1.74351 -5.67295)
(67.4929 2.18991 -5.09532)
(70.8246 4.61657 -4.60942)
(63.5149 -0.115376 -2.21311)
(64.5211 0.128543 -3.27493)
(64.9863 0.465489 -3.36523)
(65.4758 0.871285 -3.27588)
(65.1779 1.24196 -3.09752)
(65.9704 2.00385 -2.88439)
(63.6473 2.5029 -2.51148)
(67.5105 5.10716 -2.19816)
(66.718 -0.0931586 -1.80558)
(67.6493 0.174933 -2.64905)
(68.1089 0.540629 -2.7199)
(68.5974 0.997297 -2.64598)
(68.1526 1.425 -2.5008)
(68.8421 2.28954 -2.32295)
(65.9795 2.87593 -2.03321)
(69.6922 5.69356 -1.77051)
(66.6354 -0.0489387 -1.16165)
(67.3739 0.23855 -1.7525)
(67.7169 0.618179 -1.79577)
(68.1506 1.10112 -1.7333)
(67.6232 1.55866 -1.62293)
(68.301 2.47189 -1.49084)
(65.2936 3.0958 -1.29815)
(69.0901 5.98417 -1.1252)
(67.5463 -0.0332074 -0.869076)
(68.2386 0.27421 -1.30588)
(68.5309 0.674375 -1.33866)
(68.9358 1.18276 -1.29193)
(68.3312 1.66902 -1.20988)
(68.9479 2.62307 -1.1097)
(65.7408 3.28301 -0.970009)
(69.4515 6.23233 -0.839352)
(67.6532 -0.017553 -0.552049)
(68.2919 0.304053 -0.841293)
(68.5361 0.717503 -0.862375)
(68.9149 1.24141 -0.829589)
(68.2686 1.74486 -0.77425)
(68.8653 2.72149 -0.707107)
(65.5781 3.40098 -0.618194)
(69.29 6.38341 -0.535138)
(67.9379 -0.0110599 -0.325411)
(68.563 0.320598 -0.494744)
(68.7851 0.744566 -0.507486)
(69.149 1.27961 -0.488283)
(68.4714 1.79535 -0.456155)
(69.0413 2.78711 -0.416254)
(65.6814 3.48039 -0.365163)
(69.3618 6.4854 -0.315257)
(67.977 -0.00640003 -0.102337)
(68.5877 0.329858 -0.1577)
(68.7963 0.758311 -0.161763)
(69.1522 1.29806 -0.155221)
(68.4643 1.81939 -0.14475)
(69.0251 2.81739 -0.131587)
(65.6466 3.5173 -0.11561)
(69.3143 6.53228 -0.0993011)
(6.59128 0.757791 27.9675)
(9.5664 0.675565 22.891)
(10.0167 0.411258 20.9118)
(10.025 0.314407 20.8168)
(9.91202 0.285949 21.7794)
(9.80767 0.355536 23.6095)
(9.62329 0.405069 26.5788)
(9.90158 0.592277 29.4814)
(4.95754 0.344394 36.8044)
(7.64938 0.339108 35.8005)
(7.99496 0.178182 35.4065)
(7.9743 0.0869379 35.4537)
(7.9062 0.0261038 35.8059)
(7.87975 0.00836872 36.4301)
(7.86709 0.00388725 37.2928)
(8.32522 0.0597727 38.0444)
(5.28696 0.177097 32.9435)
(8.11971 0.160265 32.2442)
(8.51223 0.0389348 31.9109)
(8.49166 -0.0670776 31.936)
(8.39609 -0.159338 32.32)
(8.31231 -0.244125 32.8989)
(8.20821 -0.307705 33.8807)
(8.56042 -0.327412 34.8947)
(6.1814 0.103394 33.8327)
(9.41246 0.0593044 33.4214)
(9.88138 -0.0591898 33.1804)
(9.8652 -0.183467 33.1796)
(9.72667 -0.293395 33.4631)
(9.59251 -0.422841 33.7502)
(9.33789 -0.524849 34.3812)
(9.6454 -0.665902 34.957)
(-12.7563 0.783229 3.01803)
(-7.63607 0.43944 4.49672)
(-5.80284 -0.191695 4.66279)
(-5.18318 -0.683667 4.61893)
(-5.92058 -1.03361 4.49672)
(-5.46283 -1.63476 4.44714)
(-8.34299 -1.7527 4.17311)
(1.35495 -4.29743 4.33719)
(-24.0495 0.221984 0.90442)
(-23.0031 -0.0132535 1.65205)
(-22.6005 -0.394947 1.67247)
(-22.0747 -0.782783 1.61381)
(-22.2572 -1.04595 1.55903)
(-20.4311 -1.61677 1.59743)
(-21.5482 -1.50561 1.55851)
(-8.25373 -4.13778 1.8103)
(-23.5984 0.0940628 1.10486)
(-22.7595 -0.152146 1.83146)
(-22.3269 -0.481571 1.8999)
(-21.6579 -0.863137 1.86313)
(-21.7052 -1.11456 1.8039)
(-19.4112 -1.71143 1.78573)
(-20.3107 -1.54105 1.69086)
(-5.20628 -4.41279 1.72043)
(-26.0124 0.0185622 0.708523)
(-25.4925 -0.23966 1.25303)
(-25.1871 -0.545023 1.30694)
(-24.4362 -0.912957 1.27748)
(-24.3 -1.1398 1.23121)
(-21.4789 -1.7305 1.21313)
(-21.93 -1.49558 1.14835)
(-5.34467 -4.4669 1.16431)
(-26.1696 0.00620413 0.616314)
(-25.6588 -0.267399 1.03715)
(-25.3272 -0.578727 1.08559)
(-24.4893 -0.953692 1.06528)
(-24.2639 -1.18018 1.02698)
(-21.1926 -1.78051 0.998726)
(-21.5124 -1.5253 0.935187)
(-4.09701 -4.59069 0.910033)
(-26.7832 -0.0011942 0.403244)
(-26.2974 -0.284916 0.687797)
(-25.954 -0.601914 0.72157)
(-25.0526 -0.981472 0.707594)
(-24.7428 -1.20653 0.681619)
(-21.46 -1.8094 0.660772)
(-21.629 -1.53695 0.619443)
(-3.58681 -4.65796 0.60075)
(-26.8874 -0.00160855 0.248648)
(-26.3934 -0.292151 0.416186)
(-26.0282 -0.615033 0.436818)
(-25.0839 -0.999654 0.42875)
(-24.7283 -1.22664 0.413509)
(-21.3365 -1.83315 0.398956)
(-21.4439 -1.55354 0.37385)
(-3.04798 -4.71222 0.35716)
(-27.0214 -0.0029004 0.0787227)
(-26.5299 -0.29637 0.133713)
(-26.1555 -0.621655 0.140448)
(-25.191 -1.00816 0.137607)
(-24.8069 -1.23603 0.132742)
(-21.3593 -1.84308 0.127733)
(-21.4177 -1.56026 0.120362)
(-2.85079 -4.73638 0.114491)
(9.91445 -29.2941 -0.558967)
(9.64524 -26.2768 -0.372421)
(9.84307 -23.0977 -0.310486)
(9.96871 -20.9358 -0.211191)
(10.1134 -19.3623 -0.171112)
(10.2032 -18.2145 -0.110224)
(10.2693 -17.519 -0.0690866)
(10.2999 -17.1712 -0.0218898)
(8.33099 -37.8735 -0.0201936)
(7.87615 -37.0378 0.0344748)
(7.89206 -36.0268 0.0425807)
(7.91998 -35.2109 0.047464)
(7.98108 -34.5766 0.0326568)
(8.01838 -34.0807 0.0268048)
(8.04999 -33.7742 0.0147824)
(8.06454 -33.6035 0.0059432)
(8.56458 -34.7231 0.371103)
(8.21302 -33.617 0.35061)
(8.3191 -32.4796 0.30009)
(8.40545 -31.6965 0.23477)
(8.50137 -31.0232 0.177395)
(8.56149 -30.5577 0.122917)
(8.6061 -30.2474 0.0717144)
(8.62628 -30.0998 0.0236604)
(9.64084 -34.7927 0.71106)
(9.33343 -34.1285 0.569572)
(9.59025 -33.3636 0.479347)
(9.73195 -32.911 0.365325)
(9.8834 -32.4157 0.281578)
(9.97567 -32.1182 0.192862)
(10.0427 -31.89 0.115116)
(10.0735 -31.7831 0.0379091)
)
;
        pressure        uniform 0;
        secondOrder     false;
        setEffectiveTraction false;
        relaxationFactor 1;
        value           nonuniform List<vector> 
192
(
(6.69716e-08 2.5843e-08 8.41045e-09)
(6.82339e-08 1.96522e-08 1.13312e-08)
(7.00376e-08 1.7432e-08 9.74532e-09)
(7.22539e-08 1.83229e-08 7.02434e-09)
(7.53889e-08 2.06327e-08 3.9589e-09)
(7.9317e-08 2.39357e-08 6.20212e-10)
(8.3333e-08 2.81636e-08 -2.95359e-09)
(8.50237e-08 1.93276e-08 -5.43255e-09)
(6.20462e-08 1.80428e-08 -1.42627e-09)
(6.47995e-08 1.59731e-08 -1.00997e-09)
(6.63236e-08 1.65936e-08 -2.22421e-09)
(6.83034e-08 1.88524e-08 -4.76015e-09)
(7.14959e-08 2.16991e-08 -7.83787e-09)
(7.58653e-08 2.47791e-08 -1.10259e-08)
(8.08522e-08 2.7621e-08 -1.3656e-08)
(8.41247e-08 1.69409e-08 -1.42605e-08)
(5.65418e-08 1.62085e-08 -1.11759e-09)
(6.07078e-08 1.39513e-08 -1.77185e-09)
(6.23971e-08 1.50843e-08 -2.86003e-09)
(6.41921e-08 1.78697e-08 -4.85051e-09)
(6.72015e-08 2.08316e-08 -7.33907e-09)
(7.15106e-08 2.33988e-08 -9.6811e-09)
(7.66585e-08 2.50773e-08 -1.09474e-08)
(8.09226e-08 1.35132e-08 -1.00763e-08)
(5.28063e-08 1.55565e-08 -8.39373e-10)
(5.72935e-08 1.29446e-08 -1.92107e-09)
(5.91272e-08 1.37309e-08 -3.03688e-09)
(6.08364e-08 1.62882e-08 -4.56716e-09)
(6.36625e-08 1.89512e-08 -6.34253e-09)
(6.78154e-08 2.10266e-08 -7.8047e-09)
(7.29666e-08 2.21285e-08 -8.17514e-09)
(7.77537e-08 1.04799e-08 -6.8633e-09)
(5.04708e-08 1.50321e-08 -6.52008e-10)
(5.48584e-08 1.22274e-08 -1.72644e-09)
(5.66969e-08 1.25937e-08 -2.75312e-09)
(5.83407e-08 1.46913e-08 -3.89835e-09)
(6.10266e-08 1.69265e-08 -5.0599e-09)
(6.50403e-08 1.86398e-08 -5.85471e-09)
(7.01546e-08 1.95231e-08 -5.77108e-09)
(7.51993e-08 7.98502e-09 -4.50546e-09)
(4.9033e-08 1.46124e-08 -4.73935e-10)
(5.32538e-08 1.16397e-08 -1.31768e-09)
(5.503e-08 1.16714e-08 -2.1137e-09)
(5.66095e-08 1.33619e-08 -2.90553e-09)
(5.9198e-08 1.52319e-08 -3.60923e-09)
(6.3115e-08 1.67038e-08 -3.99068e-09)
(6.81905e-08 1.75019e-08 -3.75423e-09)
(7.33673e-08 6.05483e-09 -2.743e-09)
(4.82022e-08 1.43336e-08 -2.89557e-10)
(5.23026e-08 1.12144e-08 -8.14451e-10)
(5.40175e-08 1.1014e-08 -1.30637e-09)
(5.55455e-08 1.24295e-08 -1.76759e-09)
(5.80724e-08 1.40575e-08 -2.13972e-09)
(6.19311e-08 1.53819e-08 -2.2975e-09)
(6.69794e-08 1.61369e-08 -2.09105e-09)
(7.22262e-08 4.73864e-09 -1.44433e-09)
(4.78214e-08 1.41974e-08 -9.75883e-11)
(5.18641e-08 1.09927e-08 -2.74706e-10)
(5.35458e-08 1.06723e-08 -4.3986e-10)
(5.50459e-08 1.19522e-08 -5.90772e-10)
(5.75429e-08 1.3463e-08 -7.06619e-10)
(6.13744e-08 1.4717e-08 -7.47912e-10)
(6.64094e-08 1.5451e-08 -6.68893e-10)
(7.16879e-08 4.07294e-09 -4.46819e-10)
(8.11778e-09 2.55518e-08 7.14041e-08)
(1.19927e-08 1.87521e-08 7.14608e-08)
(1.27443e-08 1.59892e-08 7.08936e-08)
(1.35596e-08 1.64495e-08 6.96885e-08)
(1.47391e-08 1.86122e-08 6.87303e-08)
(1.55072e-08 2.2201e-08 6.86932e-08)
(1.48561e-08 2.71054e-08 6.99438e-08)
(1.35068e-08 1.89603e-08 7.07926e-08)
(-2.8373e-10 1.77319e-08 6.83968e-08)
(1.35501e-09 1.47678e-08 6.91886e-08)
(2.34589e-09 1.44033e-08 6.82627e-08)
(3.29686e-09 1.57376e-08 6.71057e-08)
(4.46622e-09 1.82578e-08 6.65952e-08)
(5.54855e-09 2.19849e-08 6.72987e-08)
(6.21214e-09 2.62931e-08 6.95212e-08)
(6.84287e-09 1.68564e-08 7.12976e-08)
(1.18037e-09 1.77774e-08 6.8082e-08)
(1.4271e-09 1.44888e-08 6.90943e-08)
(2.56316e-09 1.37978e-08 6.83394e-08)
(4.03005e-09 1.48419e-08 6.73116e-08)
(5.58616e-09 1.71004e-08 6.69029e-08)
(7.54692e-09 2.05799e-08 6.76931e-08)
(1.02561e-08 2.46505e-08 7.00024e-08)
(1.32863e-08 1.50655e-08 7.19206e-08)
(-7.26816e-09 2.55748e-08 7.07398e-08)
(-9.29227e-09 1.76946e-08 7.15517e-08)
(-7.93757e-09 1.39854e-08 7.15055e-08)
(-6.34609e-09 1.36237e-08 7.06867e-08)
(-4.80288e-09 1.50449e-08 7.00312e-08)
(-2.54026e-09 1.79345e-08 7.02449e-08)
(1.40501e-09 2.21522e-08 7.17224e-08)
(6.22922e-09 1.34703e-08 7.2904e-08)
(-6.52427e-08 2.46305e-08 9.14855e-09)
(-6.4866e-08 1.73706e-08 1.31198e-08)
(-6.47224e-08 1.41389e-08 1.22645e-08)
(-6.46493e-08 1.40962e-08 1.00757e-08)
(-6.51588e-08 1.55323e-08 7.42308e-09)
(-6.61649e-08 1.80052e-08 4.4264e-09)
(-6.70925e-08 2.14452e-08 1.15822e-09)
(-6.58688e-08 1.20338e-08 -1.06021e-09)
(-6.0132e-08 1.69729e-08 -8.26539e-10)
(-6.167e-08 1.37845e-08 4.73814e-10)
(-6.15749e-08 1.33867e-08 -8.81642e-11)
(-6.15099e-08 1.47124e-08 -2.12738e-09)
(-6.22592e-08 1.66853e-08 -4.80772e-09)
(-6.38393e-08 1.89397e-08 -7.6638e-09)
(-6.58392e-08 2.10228e-08 -1.00211e-08)
(-6.63467e-08 9.84626e-09 -1.04659e-08)
(-5.47927e-08 1.53988e-08 -6.81888e-10)
(-5.80353e-08 1.20456e-08 -6.6495e-10)
(-5.83821e-08 1.21472e-08 -1.22453e-09)
(-5.8368e-08 1.39773e-08 -2.78505e-09)
(-5.91263e-08 1.60443e-08 -4.91532e-09)
(-6.07981e-08 1.77737e-08 -6.95806e-09)
(-6.30745e-08 1.86948e-08 -7.99438e-09)
(-6.46508e-08 6.63627e-09 -7.01278e-09)
(-5.12428e-08 1.4964e-08 -5.28428e-10)
(-5.50253e-08 1.13206e-08 -1.1208e-09)
(-5.57313e-08 1.10889e-08 -1.83345e-09)
(-5.58311e-08 1.26784e-08 -3.01699e-09)
(-5.65804e-08 1.4425e-08 -4.49189e-09)
(-5.82409e-08 1.56416e-08 -5.70092e-09)
(-6.06336e-08 1.5967e-08 -5.88139e-09)
(-6.28051e-08 3.79778e-09 -4.48328e-09)
(-4.90442e-08 1.45944e-08 -4.37691e-10)
(-5.28803e-08 1.08254e-08 -1.1695e-09)
(-5.37492e-08 1.02021e-08 -1.90448e-09)
(-5.394e-08 1.13326e-08 -2.78832e-09)
(-5.4693e-08 1.2637e-08 -3.71582e-09)
(-5.63388e-08 1.3471e-08 -4.31032e-09)
(-5.8795e-08 1.35548e-08 -4.07617e-09)
(-6.12942e-08 1.46903e-09 -2.74291e-09)
(-4.7696e-08 1.42771e-08 -3.35021e-10)
(-5.14655e-08 1.0394e-08 -9.54128e-10)
(-5.23812e-08 9.46529e-09 -1.55434e-09)
(-5.26209e-08 1.01963e-08 -2.16557e-09)
(-5.33849e-08 1.11283e-08 -2.70345e-09)
(-5.50306e-08 1.17059e-08 -2.9406e-09)
(-5.75285e-08 1.16858e-08 -2.59481e-09)
(-6.02189e-08 -3.29924e-10 -1.53451e-09)
(-4.69189e-08 1.40601e-08 -2.11638e-10)
(-5.0628e-08 1.00667e-08 -6.09615e-10)
(-5.15502e-08 8.92793e-09 -9.89225e-10)
(-5.18111e-08 9.39198e-09 -1.34489e-09)
(-5.25852e-08 1.00795e-08 -1.61843e-09)
(-5.42383e-08 1.05006e-08 -1.68933e-09)
(-5.67648e-08 1.04252e-08 -1.41655e-09)
(-5.95679e-08 -1.5555e-09 -7.40054e-10)
(-4.65633e-08 1.39528e-08 -7.24947e-11)
(-5.02427e-08 9.89204e-09 -2.08597e-10)
(-5.1164e-08 8.64478e-09 -3.37183e-10)
(-5.14325e-08 8.97813e-09 -4.53409e-10)
(-5.22123e-08 9.54799e-09 -5.36578e-10)
(-5.38711e-08 9.89466e-09 -5.48879e-10)
(-5.64129e-08 9.79239e-09 -4.47631e-10)
(-5.92699e-08 -2.175e-09 -2.15577e-10)
(1.3881e-08 -5.72864e-08 -5.49341e-09)
(1.60254e-08 -5.63483e-08 -1.36548e-08)
(1.74939e-08 -5.49692e-08 -8.82361e-09)
(1.74773e-08 -5.47666e-08 -5.33766e-09)
(1.68073e-08 -5.5325e-08 -3.0881e-09)
(1.61167e-08 -5.60857e-08 -1.6593e-09)
(1.56401e-08 -5.67254e-08 -7.8229e-10)
(1.54099e-08 -5.70789e-08 -2.25831e-10)
(7.20338e-09 -5.85209e-08 -4.1067e-09)
(7.36204e-09 -5.66807e-08 -1.35401e-08)
(7.51272e-09 -5.43718e-08 -9.24561e-09)
(7.21057e-09 -5.34832e-08 -5.55059e-09)
(6.68628e-09 -5.35963e-08 -3.04218e-09)
(6.20349e-09 -5.40935e-08 -1.51676e-09)
(5.87357e-09 -5.4593e-08 -6.63368e-10)
(5.71259e-09 -5.48868e-08 -1.82084e-10)
(1.36459e-08 -5.98582e-08 -3.01835e-09)
(1.13873e-08 -5.78992e-08 -1.25862e-08)
(9.48594e-09 -5.55302e-08 -8.49335e-09)
(8.39959e-09 -5.45947e-08 -4.97853e-09)
(7.8607e-09 -5.46691e-08 -2.62426e-09)
(7.57535e-09 -5.51365e-08 -1.2324e-09)
(7.40825e-09 -5.56155e-08 -4.9833e-10)
(7.3255e-09 -5.5899e-08 -1.27997e-10)
(6.59571e-09 -6.15639e-08 -2.14266e-09)
(2.52423e-09 -6.03515e-08 -1.0814e-08)
(-6.36638e-10 -5.88216e-08 -6.58291e-09)
(-2.01749e-09 -5.84871e-08 -3.62164e-09)
(-2.43148e-09 -5.89333e-08 -1.82843e-09)
(-2.5255e-09 -5.96066e-08 -8.00386e-10)
(-2.55654e-09 -6.01863e-08 -2.83459e-10)
(-2.57525e-09 -6.05094e-08 -6.23221e-11)
)
;
        gradient        nonuniform List<vector> 
192
(
(4.70512e-06 4.05318e-07 1.72956e-08)
(4.49004e-06 9.44752e-08 3.39874e-08)
(4.5725e-06 3.05499e-08 3.42491e-08)
(4.68946e-06 3.65643e-08 2.89697e-08)
(4.85438e-06 3.47693e-08 2.45801e-08)
(5.11548e-06 -5.81245e-10 2.41358e-08)
(5.49233e-06 -3.95746e-08 2.90435e-08)
(5.73043e-06 -6.14603e-09 3.68617e-08)
(4.24805e-06 4.50515e-07 2.0632e-08)
(4.09754e-06 1.07568e-07 4.84773e-08)
(4.15998e-06 2.71229e-08 5.10871e-08)
(4.26938e-06 3.35745e-08 4.60884e-08)
(4.43951e-06 3.83223e-08 4.39943e-08)
(4.72111e-06 9.76172e-09 4.82528e-08)
(5.14907e-06 -2.76665e-08 5.89946e-08)
(5.49266e-06 1.97524e-09 7.1358e-08)
(3.78809e-06 4.74501e-07 -1.33923e-10)
(3.69386e-06 1.24947e-07 1.69495e-08)
(3.75674e-06 2.81632e-08 2.23701e-08)
(3.85999e-06 2.94714e-08 1.89063e-08)
(4.02325e-06 3.69333e-08 1.42101e-08)
(4.29781e-06 1.44186e-08 1.30265e-08)
(4.72225e-06 -1.64694e-08 1.87887e-08)
(5.1168e-06 7.96994e-09 3.10496e-08)
(3.5093e-06 4.6739e-07 -1.16867e-08)
(3.42912e-06 1.30085e-07 -1.19304e-08)
(3.49465e-06 2.90815e-08 -9.93367e-09)
(3.59626e-06 2.54147e-08 -1.24495e-08)
(3.75587e-06 3.24425e-08 -1.75662e-08)
(4.02489e-06 1.43403e-08 -2.12451e-08)
(4.44296e-06 -9.64294e-09 -1.90331e-08)
(4.85868e-06 1.01754e-08 -1.08835e-08)
(3.34909e-06 4.50924e-07 -1.17573e-08)
(3.27355e-06 1.26709e-07 -1.8837e-08)
(3.34036e-06 2.76455e-08 -2.04227e-08)
(3.44158e-06 2.1839e-08 -2.28715e-08)
(3.59944e-06 2.81377e-08 -2.69433e-08)
(3.86509e-06 1.29518e-08 -3.02845e-08)
(4.27801e-06 -6.10726e-09 -2.95604e-08)
(4.70241e-06 1.03977e-08 -2.48879e-08)
(3.25442e-06 4.36825e-07 -8.20319e-09)
(3.18122e-06 1.21426e-07 -1.48649e-08)
(3.24849e-06 2.50481e-08 -1.74789e-08)
(3.34952e-06 1.88943e-08 -1.97124e-08)
(3.50641e-06 2.50295e-08 -2.25101e-08)
(3.76994e-06 1.17233e-08 -2.47563e-08)
(4.17906e-06 -4.24593e-09 -2.45086e-08)
(4.60728e-06 1.01798e-08 -2.1854e-08)
(3.20039e-06 4.27874e-07 -4.54719e-09)
(3.1285e-06 1.17438e-07 -8.58197e-09)
(3.19588e-06 2.27988e-08 -1.05062e-08)
(3.29677e-06 1.68079e-08 -1.2036e-08)
(3.45311e-06 2.30939e-08 -1.36619e-08)
(3.71534e-06 1.09533e-08 -1.48973e-08)
(4.122e-06 -3.2046e-09 -1.47871e-08)
(4.55194e-06 1.00617e-08 -1.33593e-08)
(3.17566e-06 4.23707e-07 -1.43526e-09)
(3.10435e-06 1.1547e-07 -2.73528e-09)
(3.17175e-06 2.15945e-08 -3.40453e-09)
(3.27256e-06 1.57386e-08 -3.93966e-09)
(3.42863e-06 2.21682e-08 -4.47379e-09)
(3.69025e-06 1.05982e-08 -4.86534e-09)
(4.0957e-06 -2.70782e-09 -4.82891e-09)
(4.52635e-06 1.00486e-08 -4.36862e-09)
(-3.1859e-09 3.82021e-07 5.05678e-06)
(-9.25929e-09 2.24674e-08 4.84436e-06)
(-1.09615e-08 -8.48774e-08 4.92611e-06)
(-6.08408e-09 -1.13307e-07 5.0421e-06)
(2.40106e-09 -1.2687e-07 5.2063e-06)
(1.06981e-08 -1.39361e-07 5.46997e-06)
(1.41758e-08 -1.24231e-07 5.86083e-06)
(9.08224e-09 -3.55298e-08 6.13487e-06)
(8.66398e-09 3.94998e-07 4.79471e-06)
(1.62173e-08 2.31202e-08 4.63215e-06)
(1.84017e-08 -8.42195e-08 4.69151e-06)
(2.33218e-08 -1.0478e-07 4.8024e-06)
(3.16725e-08 -1.12505e-07 4.97724e-06)
(4.14799e-08 -1.25355e-07 5.26786e-06)
(4.90496e-08 -1.1949e-07 5.71274e-06)
(4.93632e-08 -3.60232e-08 6.06574e-06)
(6.63173e-09 4.06727e-07 4.75663e-06)
(2.08078e-08 3.21595e-08 4.59057e-06)
(3.35097e-08 -7.77815e-08 4.64859e-06)
(3.9273e-08 -1.0004e-07 4.75909e-06)
(3.91637e-08 -1.08717e-07 4.93383e-06)
(3.62257e-08 -1.21991e-07 5.22447e-06)
(3.49274e-08 -1.16362e-07 5.66974e-06)
(4.00203e-08 -3.47388e-08 6.0281e-06)
(1.7723e-08 4.22256e-07 4.95591e-06)
(4.42403e-08 4.99532e-08 4.73839e-06)
(6.02991e-08 -6.57618e-08 4.81735e-06)
(6.60224e-08 -9.91281e-08 4.93224e-06)
(6.58042e-08 -1.15554e-07 5.09591e-06)
(6.43132e-08 -1.29594e-07 5.3591e-06)
(6.67808e-08 -1.15705e-07 5.74956e-06)
(7.69055e-08 -3.21976e-08 6.03462e-06)
(-4.62024e-06 3.46709e-07 2.86053e-08)
(-4.40166e-06 2.40378e-08 6.38461e-08)
(-4.48249e-06 -5.34807e-08 7.80724e-08)
(-4.59823e-06 -6.13265e-08 8.33576e-08)
(-4.76267e-06 -7.65574e-08 8.72605e-08)
(-5.02566e-06 -1.23935e-07 9.36189e-08)
(-5.41302e-06 -1.72265e-07 1.04426e-07)
(-5.69093e-06 -1.47122e-07 1.17483e-07)
(-4.13257e-06 4.0807e-07 2.79974e-08)
(-3.97931e-06 5.21897e-08 7.0481e-08)
(-4.03924e-06 -4.48642e-08 8.55827e-08)
(-4.14594e-06 -5.48899e-08 9.06944e-08)
(-4.31351e-06 -6.54392e-08 9.67678e-08)
(-4.594e-06 -1.07253e-07 1.07732e-07)
(-5.02883e-06 -1.54692e-07 1.24177e-07)
(-5.41327e-06 -1.34214e-07 1.41676e-07)
(-3.67231e-06 4.45143e-07 5.87818e-09)
(-3.57337e-06 8.16054e-08 3.39364e-08)
(-3.63302e-06 -3.32704e-08 4.95056e-08)
(-3.73304e-06 -5.01421e-08 5.49707e-08)
(-3.89308e-06 -5.95204e-08 5.78415e-08)
(-4.16547e-06 -9.65268e-08 6.29667e-08)
(-4.59496e-06 -1.38321e-07 7.40042e-08)
(-5.02689e-06 -1.23638e-07 9.08099e-08)
(-3.39799e-06 4.47842e-07 -7.3209e-09)
(-3.31209e-06 9.58039e-08 2.58131e-10)
(-3.37384e-06 -2.38322e-08 9.94013e-09)
(-3.47186e-06 -4.65544e-08 1.46949e-08)
(-3.62794e-06 -5.74434e-08 1.60619e-08)
(-3.89436e-06 -9.109e-08 1.79324e-08)
(-4.31646e-06 -1.26847e-07 2.48071e-08)
(-4.7668e-06 -1.17319e-07 3.69372e-08)
(-3.24175e-06 4.38052e-07 -8.89638e-09)
(-3.16e-06 9.88572e-08 -1.07176e-08)
(-3.2227e-06 -1.88351e-08 -6.83142e-09)
(-3.3201e-06 -4.40206e-08 -3.79317e-09)
(-3.47424e-06 -5.62829e-08 -2.74643e-09)
(-3.73706e-06 -8.77814e-08 -1.57467e-09)
(-4.15343e-06 -1.19315e-07 3.00455e-09)
(-4.61067e-06 -1.1356e-07 1.09872e-08)
(-3.14986e-06 4.28205e-07 -6.46544e-09)
(-3.07024e-06 9.78622e-08 -9.83216e-09)
(-3.13322e-06 -1.69088e-08 -8.84514e-09)
(-3.23027e-06 -4.24695e-08 -7.30371e-09)
(-3.38333e-06 -5.52249e-08 -6.45156e-09)
(-3.64388e-06 -8.53389e-08 -5.39293e-09)
(-4.05608e-06 -1.14285e-07 -2.27203e-09)
(-4.51601e-06 -1.10968e-07 2.86874e-09)
(-3.09761e-06 4.2174e-07 -3.61994e-09)
(-3.01919e-06 9.64731e-08 -5.85886e-09)
(-3.0822e-06 -1.63073e-08 -5.75244e-09)
(-3.17903e-06 -4.1627e-08 -5.0884e-09)
(-3.33146e-06 -5.43721e-08 -4.54005e-09)
(-3.59063e-06 -8.36018e-08 -3.76806e-09)
(-4.00014e-06 -1.11053e-07 -1.88913e-09)
(-4.46113e-06 -1.0914e-07 1.07792e-09)