/*--------------------------------*- C++ -*----------------------------------*\
| =========                 |                                                 |
| \\      /  F ield         | OpenFOAM: The Open Source CFD Toolbox           |
|  \\    /   O peration     | Version:  v1912                                 |
|   \\  /    A nd           | Website:  www.openfoam.com                      |
|    \\/     M anipulation  |                                                 |
\*---------------------------------------------------------------------------*/
FoamFile
{
    version     2.0;
    format      ascii;
    class       volSymmTensorField;
    location    "0.21/solid";
    object      epsilon;
}
// * * * * * * * * * * * * * * * * * * * * * * * * * * * * * * * * * * * * * //

dimensions      [0 0 0 0 0 0 0];


internalField   nonuniform List<symmTensor> 
256
(
(-2.52355e-06 2.15098e-08 7.03909e-09 7.84955e-07 1.18491e-08 -2.72596e-06)
(-1.41203e-07 -7.32297e-08 4.97272e-09 5.45465e-07 2.00513e-08 -2.60338e-06)
(-1.41953e-07 9.76667e-08 -4.51966e-09 5.35601e-07 2.25872e-08 -2.58415e-06)
(-2.48186e-06 -1.06391e-08 -5.46205e-09 7.47335e-07 2.13172e-08 -2.6773e-06)
(-2.46414e-06 -1.63056e-08 1.23404e-08 -7.45273e-08 -3.28148e-08 -2.67262e-06)
(-2.18829e-07 -1.87657e-08 7.89172e-09 5.32323e-08 -3.18928e-08 -2.57942e-06)
(-2.19951e-07 3.63816e-08 -6.60386e-09 4.15349e-08 -3.02856e-08 -2.55888e-06)
(-2.42108e-06 2.3827e-08 -9.83502e-09 -1.09784e-07 -2.6892e-08 -2.62378e-06)
(-2.50156e-06 -8.30618e-09 1.16187e-08 -1.21078e-08 -2.91783e-08 -2.70666e-06)
(-2.14741e-07 -4.27089e-09 7.59088e-09 5.13709e-08 -2.92745e-08 -2.60046e-06)
(-2.16144e-07 1.72351e-08 -6.01837e-09 4.01118e-08 -2.81776e-08 -2.57961e-06)
(-2.45796e-06 1.37425e-08 -8.92061e-09 -4.41475e-08 -2.50393e-08 -2.65761e-06)
(-2.55734e-06 9.51379e-10 1.14173e-08 6.29578e-08 -2.26598e-08 -2.76102e-06)
(-2.01931e-07 1.8096e-09 7.58046e-09 8.41616e-08 -2.0874e-08 -2.65247e-06)
(-2.03534e-07 7.67736e-09 -6.03539e-09 7.37868e-08 -2.00218e-08 -2.63163e-06)
(-2.51333e-06 3.03122e-09 -8.70172e-09 3.36382e-08 -1.94233e-08 -2.71202e-06)
(-2.63997e-06 3.34599e-09 1.34644e-08 1.21543e-07 -2.14992e-08 -2.84394e-06)
(-1.92249e-07 2.86037e-09 8.80042e-09 1.3009e-07 -1.84069e-08 -2.7441e-06)
(-1.93915e-07 3.80163e-09 -7.35259e-09 1.20248e-07 -1.76604e-08 -2.72333e-06)
(-2.59578e-06 -5.68031e-10 -1.07622e-08 9.38327e-08 -1.87466e-08 -2.79495e-06)
(-2.76461e-06 -4.06811e-09 1.73897e-08 1.69204e-07 -2.77019e-08 -2.97394e-06)
(-1.65587e-07 -3.09528e-09 1.1034e-08 1.62452e-07 -2.46722e-08 -2.89308e-06)
(-1.67485e-07 7.25456e-09 -9.6311e-09 1.52914e-07 -2.39224e-08 -2.8724e-06)
(-2.7216e-06 5.46947e-09 -1.46863e-08 1.42184e-07 -2.51359e-08 -2.92488e-06)
(-2.92776e-06 -1.86235e-08 2.15799e-08 -9.07716e-08 -3.7975e-08 -3.15195e-06)
(-9.71876e-08 -1.3574e-08 1.32695e-08 -1.24903e-07 -3.71215e-08 -3.1029e-06)
(-1.00575e-07 1.50378e-08 -1.17545e-08 -1.32101e-07 -3.62463e-08 -3.08273e-06)
(-2.8915e-06 1.79888e-08 -1.88565e-08 -1.13632e-07 -3.53432e-08 -3.10331e-06)
(-3.00857e-06 -2.25439e-08 2.29374e-08 -3.25271e-06 -3.37687e-08 -3.25262e-06)
(-1.2145e-08 -1.32282e-08 1.38006e-08 -3.24271e-06 -3.47096e-08 -3.24225e-06)
(-1.91587e-08 1.25242e-08 -1.20837e-08 -3.22642e-06 -3.3856e-08 -3.22568e-06)
(-2.99583e-06 2.04833e-08 -2.03233e-08 -3.21198e-06 -3.15337e-08 -3.21147e-06)
(-2.3051e-06 3.77638e-08 3.63153e-09 5.40797e-07 -1.37994e-07 -1.86203e-07)
(-1.69246e-07 -6.19432e-08 5.45837e-09 3.12731e-07 -1.33884e-07 -1.98176e-07)
(-1.67336e-07 7.42228e-08 -3.82289e-09 3.00765e-07 -1.28327e-07 -1.9888e-07)
(-2.24545e-06 -3.11356e-08 -2.0812e-09 5.00083e-07 -1.20458e-07 -1.90927e-07)
(-2.28955e-06 -1.22766e-08 9.49312e-09 7.6863e-08 -7.26043e-08 -2.57801e-07)
(-2.71769e-07 -1.84595e-08 9.19663e-09 1.94188e-07 -7.22564e-08 -2.75229e-07)
(-2.69393e-07 2.64749e-08 -6.0905e-09 1.82258e-07 -6.85906e-08 -2.7746e-07)
(-2.22806e-06 1.57307e-08 -7.00651e-09 4.15094e-08 -6.02602e-08 -2.68218e-07)
(-2.31806e-06 -9.42574e-09 1.02556e-08 7.6085e-08 -6.0382e-08 -2.49137e-07)
(-2.7227e-07 -7.132e-09 9.77447e-09 1.37356e-07 -5.94991e-08 -2.6453e-07)
(-2.70091e-07 1.28087e-08 -6.40136e-09 1.26736e-07 -5.68295e-08 -2.67774e-07)
(-2.25551e-06 1.17199e-08 -7.62375e-09 4.53275e-08 -5.09821e-08 -2.62639e-07)
(-2.3697e-06 -1.44352e-10 1.00299e-08 9.93111e-08 -5.8895e-08 -2.34981e-07)
(-2.59535e-07 -9.80493e-10 9.73346e-09 1.20038e-07 -5.64953e-08 -2.50922e-07)
(-2.57424e-07 4.96477e-09 -6.60653e-09 1.10286e-07 -5.43199e-08 -2.54735e-07)
(-2.30587e-06 1.79126e-09 -7.45849e-09 7.11169e-08 -5.11807e-08 -2.50118e-07)
(-2.45652e-06 3.73247e-09 1.09528e-08 1.24486e-07 -6.12094e-08 -2.23367e-07)
(-2.52284e-07 1.07117e-09 1.04216e-08 1.3278e-07 -5.86843e-08 -2.43798e-07)
(-2.50082e-07 1.38702e-09 -7.58131e-09 1.2342e-07 -5.67533e-08 -2.47938e-07)
(-2.39132e-06 -2.72536e-09 -8.44782e-09 9.76374e-08 -5.45037e-08 -2.39413e-07)
(-2.59555e-06 -1.95809e-09 1.33036e-08 1.34934e-07 -6.73006e-08 -2.03249e-07)
(-2.32412e-07 -3.53766e-09 1.20809e-08 1.28514e-07 -6.58372e-08 -2.30581e-07)
(-2.30319e-07 4.50365e-09 -9.38786e-09 1.19563e-07 -6.40588e-08 -2.35012e-07)
(-2.5299e-06 1.98497e-09 -1.08169e-08 1.09063e-07 -6.13015e-08 -2.20026e-07)
(-2.79021e-06 -1.59829e-08 1.65514e-08 -1.54818e-07 -6.89845e-08 -1.57313e-07)
(-1.7425e-07 -1.30186e-08 1.41292e-08 -1.89643e-07 -6.85883e-08 -1.90385e-07)
(-1.73674e-07 1.24665e-08 -1.15937e-08 -1.95596e-07 -6.70749e-08 -1.9542e-07)
(-2.72952e-06 1.43344e-08 -1.41429e-08 -1.75129e-07 -6.40109e-08 -1.75446e-07)
(-2.92811e-06 -2.13378e-08 1.94473e-08 -3.15159e-06 -3.75454e-08 -9.1422e-08)
(-9.76733e-08 -1.29196e-08 1.52185e-08 -3.10319e-06 -3.68438e-08 -1.24186e-07)
(-1.01161e-07 1.20302e-08 -1.37347e-08 -3.0834e-06 -3.60094e-08 -1.30491e-07)
(-2.89191e-06 1.89421e-08 -1.76563e-08 -3.10367e-06 -3.50891e-08 -1.12383e-07)
(-2.07511e-06 4.71041e-08 -3.32065e-09 4.53333e-07 -5.79688e-08 1.98176e-08)
(-1.82746e-07 -5.22074e-08 8.65235e-10 2.33131e-07 -6.05461e-08 1.90158e-08)
(-1.80525e-07 5.84733e-08 1.17899e-09 2.21795e-07 -5.58597e-08 1.74014e-08)
(-2.015e-06 -4.2897e-08 4.18333e-09 4.17202e-07 -4.35052e-08 1.47918e-08)
(-2.09915e-06 -7.34374e-09 -6.55114e-10 8.91014e-08 -5.33369e-08 -3.12009e-09)
(-3.09e-07 -1.66823e-08 2.4733e-09 1.9976e-07 -5.34232e-08 -3.00509e-09)
(-3.05833e-07 1.98615e-08 1.068e-09 1.88108e-07 -4.95452e-08 -6.70894e-09)
(-2.03574e-06 8.91314e-09 2.24575e-09 5.45706e-08 -4.09704e-08 -1.43366e-08)
(-2.13184e-06 -9.15516e-09 9.29414e-10 1.02238e-07 -5.99023e-08 -9.98199e-10)
(-3.17849e-07 -8.30745e-09 3.29059e-09 1.62882e-07 -5.84962e-08 -2.54708e-10)
(-3.14676e-07 1.01749e-08 3.62845e-10 1.5246e-07 -5.52885e-08 -5.24761e-09)
(-2.06681e-06 9.93387e-09 7.69963e-10 7.157e-08 -4.94369e-08 -1.59951e-08)
(-2.18036e-06 -8.95981e-10 9.07864e-10 1.12753e-07 -6.83928e-08 1.84943e-08)
(-3.05807e-07 -2.33472e-09 3.27009e-09 1.34039e-07 -6.58578e-08 1.86666e-08)
(-3.02577e-07 3.44365e-09 2.99554e-11 1.24449e-07 -6.30923e-08 1.28966e-08)
(-2.11366e-06 1.40016e-09 6.85131e-10 8.45056e-08 -5.93317e-08 1.20764e-09)
(-2.26354e-06 3.67465e-09 6.33666e-10 1.14345e-07 -7.4315e-08 4.52968e-08)
(-2.98989e-07 5.97591e-10 3.20588e-09 1.22258e-07 -7.19944e-08 4.41313e-08)
(-2.95562e-07 -1.97584e-10 -2.77908e-10 1.13072e-07 -6.95318e-08 3.78424e-08)
(-2.19502e-06 -3.47951e-09 8.37047e-10 8.75239e-08 -6.63325e-08 2.6493e-08)
(-2.40006e-06 -7.10773e-10 9.24403e-10 9.82646e-08 -7.47526e-08 8.1799e-08)
(-2.82584e-07 -2.82394e-09 3.68905e-09 9.19806e-08 -7.36079e-08 7.91856e-08)
(-2.79194e-07 2.48986e-09 -1.04998e-09 8.33004e-08 -7.14489e-08 7.24379e-08)
(-2.33051e-06 2.16611e-10 4.51714e-10 7.27103e-08 -6.78128e-08 6.17075e-08)
(-2.59611e-06 -1.28275e-08 2.46041e-09 -1.961e-07 -6.33827e-08 1.29124e-07)
(-2.32233e-07 -1.11743e-08 4.88363e-09 -2.25881e-07 -6.24902e-08 1.25651e-07)
(-2.30369e-07 1.00738e-08 -2.73665e-09 -2.31479e-07 -6.08609e-08 1.18375e-07)
(-2.5306e-06 1.09225e-08 -1.28065e-09 -2.1597e-07 -5.80662e-08 1.07637e-07)
(-2.76551e-06 -1.72357e-08 5.08373e-09 -2.9727e-06 -2.56396e-08 1.68504e-07)
(-1.66125e-07 -1.07955e-08 5.3689e-09 -2.89304e-06 -2.30181e-08 1.64225e-07)
(-1.68438e-07 9.84105e-09 -4.79233e-09 -2.87291e-06 -2.23823e-08 1.56485e-07)
(-2.72287e-06 1.47306e-08 -4.6185e-09 -2.92498e-06 -2.35814e-08 1.45838e-07)
(-1.9298e-06 4.76142e-08 -4.85602e-09 4.20654e-07 -3.34686e-08 1.22175e-08)
(-1.80587e-07 -4.88729e-08 -1.09665e-09 2.06442e-07 -3.39744e-08 1.73877e-08)
(-1.79009e-07 5.19898e-08 3.03258e-09 1.96307e-07 -3.04764e-08 1.61273e-08)
(-1.87257e-06 -4.50879e-08 5.44206e-09 3.89782e-07 -2.27668e-08 8.57757e-09)
(-1.96384e-06 -5.35249e-09 -5.56131e-09 7.30654e-08 -3.96528e-08 9.85493e-09)
(-3.14329e-07 -1.59809e-08 -1.34985e-09 1.79791e-07 -3.82503e-08 1.87191e-08)
(-3.11795e-07 1.66329e-08 4.74004e-09 1.68841e-07 -3.4996e-08 1.5664e-08)
(-1.90279e-06 5.91224e-09 6.73247e-09 4.04163e-08 -2.95662e-08 1.07252e-09)
(-2.00088e-06 -8.60484e-09 -4.63811e-09 9.30392e-08 -5.1238e-08 1.28364e-08)
(-3.29239e-07 -8.72745e-09 -9.15914e-10 1.53298e-07 -4.91994e-08 2.24706e-08)
(-3.26493e-07 8.57602e-09 4.40963e-09 1.43109e-07 -4.62668e-08 1.81995e-08)
(-1.93773e-06 8.61468e-09 5.91045e-09 6.27451e-08 -4.20222e-08 4.85281e-10)
(-2.049e-06 -1.39645e-09 -4.52862e-09 1.03565e-07 -6.29327e-08 2.94877e-08)
(-3.18381e-07 -3.1022e-09 -9.2852e-10 1.25291e-07 -6.03172e-08 3.87585e-08)
(-3.15447e-07 2.70046e-09 4.07006e-09 1.15735e-07 -5.76673e-08 3.36485e-08)
(-1.98387e-06 1.31536e-09 5.6944e-09 7.51244e-08 -5.45612e-08 1.46255e-08)
(-2.12953e-06 3.09241e-09 -5.02977e-09 9.75374e-08 -6.92277e-08 5.58717e-08)
(-3.10521e-07 1.23144e-10 -1.25008e-09 1.05172e-07 -6.67681e-08 6.46633e-08)
(-3.07315e-07 -7.36365e-10 3.99145e-09 9.59733e-08 -6.43834e-08 5.89264e-08)
(-2.06236e-06 -3.29191e-09 6.05156e-09 7.03973e-08 -6.17219e-08 3.91369e-08)
(-2.26273e-06 -3.56928e-10 -5.38675e-09 7.40671e-08 -6.55498e-08 8.73556e-08)
(-2.9424e-07 -2.39822e-09 -1.33493e-09 6.84536e-08 -6.40062e-08 9.59959e-08)
(-2.91027e-07 1.52058e-09 3.69054e-09 5.97508e-08 -6.19644e-08 8.97377e-08)
(-2.19425e-06 -3.44318e-10 6.26506e-09 4.81915e-08 -5.9108e-08 6.90902e-08)
(-2.45705e-06 -1.02457e-08 -4.70022e-09 -2.09893e-07 -4.87185e-08 1.15614e-07)
(-2.48296e-07 -9.38937e-09 -8.17281e-10 -2.33396e-07 -4.74073e-08 1.24371e-07)
(-2.46584e-07 8.10796e-09 2.52906e-09 -2.39108e-07 -4.59519e-08 1.17691e-07)
(-2.39208e-06 8.27686e-09 5.32769e-09 -2.30319e-07 -4.39757e-08 9.61141e-08)
(-2.64165e-06 -1.31725e-08 -3.25934e-09 -2.8427e-06 -1.56937e-08 1.25401e-07)
(-1.90042e-07 -8.52534e-09 -1.06369e-09 -2.74438e-06 -1.31206e-08 1.34037e-07)
(-1.925e-07 7.45668e-09 1.19536e-09 -2.72439e-06 -1.2622e-08 1.2719e-07)
(-2.59816e-06 1.05895e-08 3.20039e-09 -2.79582e-06 -1.40001e-08 1.05353e-07)
(-1.84405e-06 4.52359e-08 -3.64766e-09 4.00783e-07 -2.55807e-08 6.43789e-09)
(-1.74021e-07 -4.89566e-08 -1.1668e-09 1.91888e-07 -2.37855e-08 9.99317e-09)
(-1.73087e-07 5.03031e-08 2.71164e-09 1.82835e-07 -2.12945e-08 9.02793e-09)
(-1.78944e-06 -4.38106e-08 4.09868e-09 3.7417e-07 -1.80346e-08 3.65427e-09)
(-1.87917e-06 -5.27688e-09 -5.1785e-09 5.70502e-08 -3.18948e-08 1.28013e-08)
(-3.05752e-07 -1.6258e-08 -1.92891e-09 1.61408e-07 -2.92422e-08 1.86918e-08)
(-3.03993e-07 1.55012e-08 4.72468e-09 1.51193e-07 -2.68038e-08 1.62707e-08)
(-1.82064e-06 5.24957e-09 6.108e-09 2.63739e-08 -2.44494e-08 5.85603e-09)
(-1.9179e-06 -8.40952e-09 -4.96076e-09 7.54949e-08 -4.13057e-08 2.03499e-08)
(-3.22553e-07 -9.03189e-09 -1.85247e-09 1.35081e-07 -3.88779e-08 2.66018e-08)
(-3.2044e-07 7.74842e-09 4.79525e-09 1.25186e-07 -3.65646e-08 2.31183e-08)
(-1.85695e-06 7.998e-09 5.99151e-09 4.58635e-08 -3.41554e-08 1.02785e-08)
(-1.96609e-06 -1.70742e-09 -4.91006e-09 8.65337e-08 -5.07002e-08 3.50483e-08)
(-3.12312e-07 -3.56504e-09 -1.89501e-09 1.08302e-07 -4.82602e-08 4.09011e-08)
(-3.099e-07 2.31103e-09 4.56384e-09 9.87896e-08 -4.60941e-08 3.66066e-08)
(-1.90293e-06 1.30321e-09 5.85913e-09 5.80611e-08 -4.39558e-08 2.25281e-08)
(-2.04507e-06 2.59139e-09 -5.26737e-09 8.11911e-08 -5.49031e-08 5.5902e-08)
(-3.03365e-07 -2.67568e-10 -2.17734e-09 8.85995e-08 -5.26679e-08 6.11867e-08)
(-3.00618e-07 -9.10258e-10 4.48477e-09 7.93368e-08 -5.06908e-08 5.62389e-08)
(-1.97973e-06 -3.00839e-09 6.08398e-09 5.37073e-08 -4.87412e-08 4.13973e-08)
(-2.17595e-06 -2.34453e-10 -5.59118e-09 6.04933e-08 -4.96856e-08 7.71582e-08)
(-2.86429e-07 -2.18884e-09 -2.36622e-09 5.55185e-08 -4.81432e-08 8.20746e-08)
(-2.83639e-07 1.01322e-09 4.28103e-09 4.66868e-08 -4.64615e-08 7.65952e-08)
(-2.10915e-06 -5.76977e-10 6.25798e-09 3.41131e-08 -4.43978e-08 6.10378e-08)
(-2.36848e-06 -8.46781e-09 -5.25553e-09 -2.12457e-07 -3.41222e-08 8.9787e-08)
(-2.42975e-07 -8.1266e-09 -2.20416e-09 -2.31257e-07 -3.29096e-08 9.46745e-08)
(-2.41655e-07 6.72494e-09 3.48976e-09 -2.37182e-07 -3.17359e-08 8.88258e-08)
(-2.30487e-06 6.46028e-09 5.67582e-09 -2.33595e-07 -3.02789e-08 7.25012e-08)
(-2.56036e-06 -1.02969e-08 -4.58902e-09 -2.76209e-06 -1.00541e-08 8.51487e-08)
(-1.89603e-07 -6.8912e-09 -2.73496e-09 -2.65339e-06 -8.21711e-09 9.05457e-08)
(-1.92441e-07 5.70651e-09 2.64753e-09 -2.63361e-06 -7.8256e-09 8.46181e-08)
(-2.51733e-06 7.6426e-09 4.41339e-09 -2.71603e-06 -8.69976e-09 6.74926e-08)
(-1.79278e-06 4.29599e-08 -2.21157e-09 3.85479e-07 -1.91363e-08 5.44649e-09)
(-1.68418e-07 -4.97786e-08 -7.02398e-10 1.80846e-07 -1.69131e-08 6.86412e-09)
(-1.6794e-07 5.01129e-08 1.79761e-09 1.72599e-07 -1.52522e-08 6.07983e-09)
(-1.74002e-06 -4.22109e-08 2.5392e-09 3.61906e-07 -1.41589e-08 3.20195e-09)
(-1.82719e-06 -5.71516e-09 -3.35569e-09 4.41246e-08 -2.42097e-08 1.5676e-08)
(-2.96125e-07 -1.67675e-08 -1.25262e-09 1.47177e-07 -2.15606e-08 1.74371e-08)
(-2.9494e-07 1.52059e-08 3.28995e-09 1.37548e-07 -1.9899e-08 1.54386e-08)
(-1.77052e-06 5.34584e-09 4.04381e-09 1.50419e-08 -1.91848e-08 9.98298e-09)
(-1.86612e-06 -8.46324e-09 -3.4046e-09 6.00779e-08 -3.04629e-08 2.64558e-08)
(-3.12546e-07 -9.31029e-09 -1.29123e-09 1.18963e-07 -2.82577e-08 2.78225e-08)
(-3.10919e-07 7.37004e-09 3.48585e-09 1.09341e-07 -2.66352e-08 2.48945e-08)
(-1.80686e-06 7.81059e-09 4.18285e-09 3.11282e-08 -2.54877e-08 1.80354e-08)
(-1.91419e-06 -1.91188e-09 -3.42389e-09 7.12149e-08 -3.63157e-08 3.99063e-08)
(-3.02231e-07 -3.85e-09 -1.34649e-09 9.27637e-08 -3.43572e-08 4.06457e-08)
(-3.00226e-07 2.08581e-09 3.365e-09 8.33135e-08 -3.28004e-08 3.69604e-08)
(-1.85256e-06 1.31777e-09 4.15088e-09 4.28398e-08 -3.14961e-08 2.91925e-08)
(-1.99228e-06 2.29983e-09 -3.62901e-09 6.86305e-08 -3.82805e-08 5.50833e-08)
(-2.92535e-07 -5.07323e-10 -1.52843e-09 7.57829e-08 -3.65827e-08 5.51048e-08)
(-2.90148e-07 -1.02522e-09 3.27317e-09 6.64674e-08 -3.51425e-08 5.07766e-08)
(-1.92835e-06 -2.85131e-09 4.25535e-09 4.09099e-08 -3.38027e-08 4.23962e-08)
(-2.12171e-06 -1.38109e-10 -3.81151e-09 5.27192e-08 -3.35295e-08 6.72973e-08)
(-2.75173e-07 -2.06499e-09 -1.66995e-09 4.80975e-08 -3.23537e-08 6.67433e-08)
(-2.72712e-07 6.81777e-10 3.09182e-09 3.91436e-08 -3.11258e-08 6.18866e-08)
(-2.05623e-06 -7.49266e-10 4.31394e-09 2.59139e-08 -2.96626e-08 5.2968e-08)
(-2.31287e-06 -7.34067e-09 -3.62986e-09 -2.12594e-07 -2.21113e-08 6.99072e-08)
(-2.3327e-07 -7.35064e-09 -1.64766e-09 -2.28498e-07 -2.12682e-08 6.91795e-08)
(-2.32253e-07 5.84291e-09 2.56038e-09 -2.34601e-07 -2.04146e-08 6.39713e-08)
(-2.25036e-06 5.29639e-09 3.93164e-09 -2.3431e-07 -1.93004e-08 5.44159e-08)
(-2.50851e-06 -8.49982e-09 -3.30732e-09 -2.71308e-06 -6.43075e-09 5.83404e-08)
(-1.82897e-07 -5.88684e-09 -2.13515e-09 -2.59887e-06 -5.31593e-09 5.82277e-08)
(-1.86031e-07 4.60477e-09 1.99579e-09 -2.57927e-06 -5.03131e-09 5.29745e-08)
(-2.46601e-06 5.78468e-09 3.15104e-09 -2.66769e-06 -5.43786e-09 4.25345e-08)
(-1.76341e-06 4.1506e-08 -1.13995e-09 3.74633e-07 -1.19095e-08 5.83496e-09)
(-1.64903e-07 -5.03819e-08 -3.18036e-10 1.72853e-07 -1.03563e-08 6.18169e-09)
(-1.64707e-07 5.01692e-08 9.67805e-10 1.65128e-07 -9.4059e-09 5.50304e-09)
(-1.71182e-06 -4.11404e-08 1.33809e-09 3.52983e-07 -9.0853e-09 3.92026e-09)
(-1.79714e-06 -6.06974e-09 -1.73956e-09 3.48767e-08 -1.51486e-08 1.78271e-08)
(-2.89621e-07 -1.71277e-08 -5.6942e-10 1.37292e-07 -1.33547e-08 1.74279e-08)
(-2.88795e-07 1.51282e-08 1.79994e-09 1.28055e-07 -1.2394e-08 1.56848e-08)
(-1.74166e-06 5.51299e-09 2.16129e-09 6.86877e-09 -1.22622e-08 1.29214e-08)
(-1.83587e-06 -8.56025e-09 -1.8038e-09 4.94594e-08 -1.86589e-08 2.99582e-08)
(-3.05223e-07 -9.50399e-09 -5.97153e-10 1.07844e-07 -1.71804e-08 2.86412e-08)
(-3.03907e-07 7.19699e-09 1.94543e-09 9.84213e-08 -1.62277e-08 2.60584e-08)
(-1.77771e-06 7.77428e-09 2.28786e-09 2.10299e-08 -1.57505e-08 2.26043e-08)
(-1.88373e-06 -2.04131e-09 -1.83675e-09 6.07956e-08 -2.16421e-08 4.23519e-08)
(-2.9458e-07 -4.01688e-09 -6.36321e-10 8.20886e-08 -2.03931e-08 4.0197e-08)
(-2.92837e-07 1.95506e-09 1.89198e-09 7.26964e-08 -1.94652e-08 3.6902e-08)
(-1.82312e-06 1.33759e-09 2.29471e-09 3.25484e-08 -1.87768e-08 3.28439e-08)
(-1.96129e-06 2.15319e-09 -1.94123e-09 6.05111e-08 -2.2273e-08 5.35431e-08)
(-2.84433e-07 -6.34691e-10 -7.34248e-10 6.74224e-08 -2.12384e-08 5.06014e-08)
(-2.82276e-07 -1.11885e-09 1.82384e-09 5.80786e-08 -2.03714e-08 4.66802e-08)
(-1.89831e-06 -2.78765e-09 2.3381e-09 3.2666e-08 -1.9578e-08 4.21044e-08)
(-2.08991e-06 -5.91216e-11 -2.02593e-09 4.81616e-08 -1.91003e-08 5.98827e-08)
(-2.66913e-07 -1.98931e-09 -8.1396e-10 4.36662e-08 -1.84026e-08 5.6329e-08)
(-2.6466e-07 4.62931e-10 1.696e-09 3.46314e-08 -1.76599e-08 5.18839e-08)
(-2.0253e-06 -8.80711e-10 2.34302e-09 2.10829e-08 -1.67565e-08 4.67959e-08)
(-2.28018e-06 -6.68012e-09 -1.93005e-09 -2.12642e-07 -1.23623e-08 5.67869e-08)
(-2.25996e-07 -6.91779e-09 -8.28212e-10 -2.26974e-07 -1.19033e-08 5.30357e-08)
(-2.25169e-07 5.32776e-09 1.38315e-09 -2.33195e-07 -1.13862e-08 4.8245e-08)
(-2.21842e-06 4.60588e-09 2.1178e-09 -2.34737e-07 -1.06526e-08 4.2527e-08)
(-2.47782e-06 -7.47267e-09 -1.76664e-09 -2.68481e-06 -3.61274e-09 4.15523e-08)
(-1.77449e-07 -5.33026e-09 -1.14044e-09 -2.56791e-06 -3.04164e-09 3.83572e-08)
(-1.8077e-07 3.97868e-09 1.03653e-09 -2.54843e-06 -2.86879e-09 3.35391e-08)
(-2.43573e-06 4.71365e-09 1.66703e-09 -2.63989e-06 -3.00656e-09 2.70019e-08)
(-1.74996e-06 4.08361e-08 -3.49235e-10 3.69007e-07 -4.04357e-09 6.2473e-09)
(-1.63277e-07 -5.06546e-08 -8.6696e-11 1.68624e-07 -3.50745e-09 6.24017e-09)
(-1.63217e-07 5.02039e-08 3.01809e-10 1.61154e-07 -3.19825e-09 5.61172e-09)
(-1.69894e-06 -4.06435e-08 4.15301e-10 3.48285e-07 -3.12885e-09 4.49159e-09)
(-1.78335e-06 -6.23517e-09 -5.27422e-10 3.00272e-08 -5.1475e-09 1.89538e-08)
(-2.8656e-07 -1.7289e-08 -1.51149e-10 1.32192e-07 -4.52871e-09 1.78378e-08)
(-2.85908e-07 1.50975e-08 5.62072e-10 1.23149e-07 -4.21475e-09 1.62171e-08)
(-1.72845e-06 5.59584e-09 6.69081e-10 2.55433e-09 -4.20739e-09 1.44308e-08)
(-1.82191e-06 -8.61471e-09 -5.49105e-10 4.41222e-08 -6.27683e-09 3.1447e-08)
(-3.01671e-07 -9.59523e-09 -1.57131e-10 1.02263e-07 -5.76421e-09 2.92062e-08)
(-3.00506e-07 7.12356e-09 6.11302e-10 9.29432e-08 -5.45072e-09 2.67906e-08)
(-1.7643e-06 7.76924e-09 7.12962e-10 1.59677e-08 -5.32181e-09 2.46177e-08)
(-1.86963e-06 -2.10391e-09 -5.626e-10 5.56703e-08 -7.17347e-09 4.31733e-08)
(-2.90797e-07 -4.09385e-09 -1.70245e-10 7.68107e-08 -6.74706e-09 3.99927e-08)
(-2.89182e-07 1.89347e-09 5.96167e-10 6.74523e-08 -6.43958e-09 3.68891e-08)
(-1.80953e-06 1.34943e-09 7.18699e-10 2.75056e-08 -6.22491e-09 3.42673e-08)
(-1.94694e-06 2.09201e-09 -5.94937e-10 5.65818e-08 -7.28504e-09 5.23928e-08)
(-2.80435e-07 -6.89994e-10 -2.01121e-10 6.33488e-08 -6.93988e-09 4.84052e-08)
(-2.7839e-07 -1.17146e-09 5.71859e-10 5.39943e-08 -6.65102e-09 4.46859e-08)
(-1.88444e-06 -2.76683e-09 7.30741e-10 2.86883e-08 -6.38712e-09 4.15853e-08)
(-2.07519e-06 -1.54007e-11 -6.19411e-10 4.59789e-08 -6.18256e-09 5.59676e-08)
(-2.62879e-07 -1.95349e-09 -2.26742e-10 4.15084e-08 -5.9548e-09 5.13842e-08)
(-2.60726e-07 3.5292e-10 5.26346e-10 3.24352e-08 -5.70657e-09 4.71438e-08)
(-2.01102e-06 -9.51643e-10 7.27852e-10 1.87715e-08 -5.39837e-09 4.35126e-08)
(-2.26505e-06 -6.37332e-09 -5.88841e-10 -2.12744e-07 -3.97188e-09 5.02949e-08)
(-2.22458e-07 -6.72472e-09 -2.35297e-10 -2.26401e-07 -3.82999e-09 4.55311e-08)
(-2.21722e-07 5.08975e-09 4.22468e-10 -2.32679e-07 -3.65693e-09 4.09471e-08)
(-2.20366e-06 4.28247e-09 6.52788e-10 -2.35026e-07 -3.3984e-09 3.66599e-08)
(-2.46358e-06 -7.00554e-09 -5.36392e-10 -2.6718e-06 -1.16455e-09 3.33911e-08)
(-1.74803e-07 -5.08391e-09 -3.40442e-10 -2.55382e-06 -9.91631e-10 2.91387e-08)
(-1.78216e-07 3.69604e-09 3.03474e-10 -2.53441e-06 -9.33703e-10 2.45355e-08)
(-2.42171e-06 4.22362e-09 5.02526e-10 -2.62712e-06 -9.6082e-10 1.9476e-08)
)
;

boundaryField
{
    interface
    {
        type            calculated;
        value           nonuniform List<symmTensor> 
192
(
(-4.70512e-06 1.46182e-12 2.81899e-11 7.84955e-07 1.18491e-08 -2.72596e-06)
(-4.49004e-06 -1.18823e-13 3.95492e-11 -7.45273e-08 -3.28148e-08 -2.67262e-06)
(-4.5725e-06 -2.36693e-12 4.08923e-11 -1.21078e-08 -2.91783e-08 -2.70666e-06)
(-4.68946e-06 -4.75375e-12 4.04091e-11 6.29578e-08 -2.26598e-08 -2.76102e-06)
(-4.85438e-06 -6.90459e-12 3.89807e-11 1.21543e-07 -2.14992e-08 -2.84394e-06)
(-5.11548e-06 -1.12774e-11 3.71854e-11 1.69204e-07 -2.77019e-08 -2.97394e-06)
(-5.49233e-06 -1.41701e-11 3.33722e-11 -9.07716e-08 -3.7975e-08 -3.15195e-06)
(-5.73043e-06 -3.00044e-11 3.01564e-11 -3.25271e-06 -3.37687e-08 -3.25262e-06)
(-4.24805e-06 7.49052e-13 1.47343e-11 5.40797e-07 -1.37994e-07 -1.86203e-07)
(-4.09754e-06 -8.41359e-13 2.15793e-11 7.6863e-08 -7.26043e-08 -2.57801e-07)
(-4.15998e-06 -3.01487e-12 2.21157e-11 7.6085e-08 -6.0382e-08 -2.49137e-07)
(-4.26938e-06 -5.62449e-12 2.15172e-11 9.93111e-08 -5.8895e-08 -2.34981e-07)
(-4.43951e-06 -8.02774e-12 2.03444e-11 1.24486e-07 -6.12094e-08 -2.23367e-07)
(-4.72111e-06 -1.30008e-11 1.89414e-11 1.34934e-07 -6.73006e-08 -2.03249e-07)
(-5.14907e-06 -1.62343e-11 1.64841e-11 -1.54818e-07 -6.89845e-08 -1.57313e-07)
(-5.49266e-06 -3.32479e-11 1.44184e-11 -3.15159e-06 -3.75454e-08 -9.1422e-08)
(-3.78809e-06 6.23139e-13 1.20402e-11 4.53333e-07 -5.79688e-08 1.98176e-08)
(-3.69386e-06 -1.13439e-12 1.74845e-11 8.91014e-08 -5.33369e-08 -3.12009e-09)
(-3.75674e-06 -3.50909e-12 1.79069e-11 1.02238e-07 -5.99023e-08 -9.98199e-10)
(-3.85999e-06 -6.45722e-12 1.74132e-11 1.12753e-07 -6.83928e-08 1.84943e-08)
(-4.02325e-06 -9.23787e-12 1.64591e-11 1.14345e-07 -7.4315e-08 4.52968e-08)
(-4.29781e-06 -1.48877e-11 1.52877e-11 9.82646e-08 -7.47526e-08 8.1799e-08)
(-4.72225e-06 -1.86917e-11 1.33761e-11 -1.961e-07 -6.33827e-08 1.29124e-07)
(-5.1168e-06 -3.71128e-11 1.16397e-11 -2.9727e-06 -2.56396e-08 1.68504e-07)
(-3.5093e-06 3.46422e-13 7.76e-12 4.20654e-07 -3.34686e-08 1.22175e-08)
(-3.42912e-06 -1.53915e-12 1.15725e-11 7.30654e-08 -3.96528e-08 9.85493e-09)
(-3.49465e-06 -4.0107e-12 1.18276e-11 9.30392e-08 -5.1238e-08 1.28364e-08)
(-3.59626e-06 -7.13516e-12 1.14146e-11 1.03565e-07 -6.29327e-08 2.94877e-08)
(-3.75587e-06 -1.01144e-11 1.06926e-11 9.75374e-08 -6.92277e-08 5.58717e-08)
(-4.02489e-06 -1.60864e-11 9.82553e-12 7.40671e-08 -6.55498e-08 8.73556e-08)
(-4.44296e-06 -2.01347e-11 8.55648e-12 -2.09893e-07 -4.87185e-08 1.15614e-07)
(-4.85868e-06 -3.90255e-11 7.41461e-12 -2.8427e-06 -1.56937e-08 1.25401e-07)
(-3.34909e-06 2.52444e-13 5.80659e-12 4.00783e-07 -2.55807e-08 6.43789e-09)
(-3.27355e-06 -1.76417e-12 8.62491e-12 5.70502e-08 -3.18948e-08 1.28013e-08)
(-3.34036e-06 -4.37352e-12 8.81917e-12 7.54949e-08 -4.13057e-08 2.03499e-08)
(-3.44158e-06 -7.66681e-12 8.51109e-12 8.65337e-08 -5.07002e-08 3.50483e-08)
(-3.59944e-06 -1.08357e-11 7.97553e-12 8.11911e-08 -5.49031e-08 5.5902e-08)
(-3.86509e-06 -1.70765e-11 7.31914e-12 6.04933e-08 -4.96856e-08 7.71582e-08)
(-4.27801e-06 -2.13593e-11 6.40053e-12 -2.12457e-07 -3.41222e-08 8.9787e-08)
(-4.70241e-06 -4.06519e-11 5.53853e-12 -2.76209e-06 -1.00541e-08 8.51487e-08)
(-3.25442e-06 1.56633e-13 3.69636e-12 3.85479e-07 -1.91363e-08 5.44649e-09)
(-3.18122e-06 -1.95257e-12 5.56406e-12 4.41246e-08 -2.42097e-08 1.5676e-08)
(-3.24849e-06 -4.65067e-12 5.68901e-12 6.00779e-08 -3.04629e-08 2.64558e-08)
(-3.34952e-06 -8.04719e-12 5.47406e-12 7.12149e-08 -3.63157e-08 3.99063e-08)
(-3.50641e-06 -1.13301e-11 5.1141e-12 6.86305e-08 -3.82805e-08 5.50833e-08)
(-3.76994e-06 -1.77203e-11 4.67547e-12 5.27192e-08 -3.35295e-08 6.72973e-08)
(-4.17906e-06 -2.21309e-11 4.09193e-12 -2.12594e-07 -2.21113e-08 6.99072e-08)
(-4.60728e-06 -4.16424e-11 3.54482e-12 -2.71308e-06 -6.43075e-09 5.83404e-08)
(-3.20039e-06 1.18212e-13 2.17636e-12 3.74633e-07 -1.19095e-08 5.83496e-09)
(-3.1285e-06 -2.05642e-12 3.26958e-12 3.48767e-08 -1.51486e-08 1.78271e-08)
(-3.19588e-06 -4.8239e-12 3.34585e-12 4.94594e-08 -1.86589e-08 2.99582e-08)
(-3.29677e-06 -8.29371e-12 3.22071e-12 6.07956e-08 -2.16421e-08 4.23519e-08)
(-3.45311e-06 -1.16575e-11 3.01274e-12 6.05111e-08 -2.2273e-08 5.35431e-08)
(-3.71534e-06 -1.8147e-11 2.75319e-12 4.81616e-08 -1.91003e-08 5.98827e-08)
(-4.122e-06 -2.26472e-11 2.41931e-12 -2.12642e-07 -1.23623e-08 5.67869e-08)
(-4.55194e-06 -4.23069e-11 2.09195e-12 -2.68481e-06 -3.61274e-09 4.15523e-08)
(-3.17566e-06 9.06683e-14 6.8756e-13 3.69007e-07 -4.04357e-09 6.2473e-09)
(-3.10435e-06 -2.11383e-12 1.04561e-12 3.00272e-08 -5.1475e-09 1.89538e-08)
(-3.17175e-06 -4.91105e-12 1.0701e-12 4.41222e-08 -6.27683e-09 3.1447e-08)
(-3.27256e-06 -8.41197e-12 1.02771e-12 5.56703e-08 -7.17347e-09 4.31733e-08)
(-3.42863e-06 -1.18127e-11 9.60167e-13 5.65818e-08 -7.28504e-09 5.23928e-08)
(-3.69025e-06 -1.83434e-11 8.74665e-13 4.59789e-08 -6.18256e-09 5.59676e-08)
(-4.0957e-06 -2.28869e-11 7.70363e-13 -2.12744e-07 -3.97188e-09 5.02949e-08)
(-4.52635e-06 -4.26123e-11 6.63369e-13 -2.6718e-06 -1.16455e-09 3.33911e-08)
(-2.52355e-06 2.15098e-08 -4.39609e-11 7.84955e-07 -4.74648e-12 -5.05678e-06)
(-2.46414e-06 -1.63056e-08 -6.3191e-11 -7.45273e-08 -4.21848e-12 -4.84436e-06)
(-2.50156e-06 -8.30618e-09 -6.59514e-11 -1.21078e-08 -2.55955e-12 -4.92611e-06)
(-2.55734e-06 9.51379e-10 -6.5945e-11 6.29578e-08 -1.98899e-12 -5.0421e-06)
(-2.63997e-06 3.34599e-09 -6.51713e-11 1.21543e-07 -1.82896e-12 -5.2063e-06)
(-2.76461e-06 -4.06811e-09 -6.44435e-11 1.69204e-07 -2.28688e-12 -5.46997e-06)
(-2.92776e-06 -1.86235e-08 -6.31543e-11 -9.07716e-08 -2.58755e-12 -5.86083e-06)
(-3.00857e-06 -2.25439e-08 -6.47902e-11 -3.25271e-06 -3.78269e-12 -6.13487e-06)
(-1.41203e-07 -7.32297e-08 -3.337e-11 5.45465e-07 -2.12163e-12 -4.79471e-06)
(-2.18829e-07 -1.87657e-08 -5.08273e-11 5.32323e-08 -2.07386e-12 -4.63215e-06)
(-2.14741e-07 -4.27089e-09 -5.29483e-11 5.13709e-08 -1.08048e-12 -4.69151e-06)
(-2.01931e-07 1.8096e-09 -5.27764e-11 8.41616e-08 -5.36864e-13 -4.8024e-06)
(-1.92249e-07 2.86037e-09 -5.23073e-11 1.3009e-07 -1.68821e-13 -4.97724e-06)
(-1.65587e-07 -3.09528e-09 -5.20917e-11 1.62452e-07 -6.9243e-14 -5.26786e-06)
(-9.71876e-08 -1.3574e-08 -5.19238e-11 -1.24903e-07 -3.74992e-14 -5.71274e-06)
(-1.2145e-08 -1.32282e-08 -5.47027e-11 -3.24271e-06 -3.86328e-13 -6.06574e-06)
(-1.41953e-07 9.76667e-08 -3.5542e-11 5.35601e-07 -1.08931e-12 -4.75663e-06)
(-2.19951e-07 3.63816e-08 -5.38895e-11 4.15349e-08 -9.54375e-13 -4.59057e-06)
(-2.16144e-07 1.72351e-08 -5.62983e-11 4.01118e-08 -1.9429e-13 -4.64859e-06)
(-2.03534e-07 7.67736e-09 -5.61209e-11 7.37868e-08 4.60292e-13 -4.75909e-06)
(-1.93915e-07 3.80163e-09 -5.54736e-11 1.20248e-07 1.03833e-12 -4.93383e-06)
(-1.67485e-07 7.25456e-09 -5.48893e-11 1.52914e-07 1.5735e-12 -5.22447e-06)
(-1.00575e-07 1.50378e-08 -5.41381e-11 -1.32101e-07 1.97858e-12 -5.66974e-06)
(-1.91587e-08 1.25242e-08 -5.62282e-11 -3.22642e-06 2.10957e-12 -6.0281e-06)
(-2.48186e-06 -1.06391e-08 -4.15e-11 7.47335e-07 -6.39765e-13 -4.95591e-06)
(-2.42108e-06 2.3827e-08 -6.23771e-11 -1.09784e-07 -3.19237e-13 -4.73839e-06)
(-2.45796e-06 1.37425e-08 -6.52465e-11 -4.41475e-08 4.35131e-13 -4.81735e-06)
(-2.51333e-06 3.03122e-09 -6.50839e-11 3.36382e-08 1.2165e-12 -4.93224e-06)
(-2.59578e-06 -5.68031e-10 -6.41483e-11 9.38327e-08 1.91473e-12 -5.09591e-06)
(-2.7216e-06 5.46947e-09 -6.32231e-11 1.42184e-07 2.74251e-12 -5.3591e-06)
(-2.8915e-06 1.79888e-08 -6.1478e-11 -1.13632e-07 3.39176e-12 -5.74956e-06)
(-2.99583e-06 2.04833e-08 -6.32588e-11 -3.21198e-06 4.30176e-12 -6.03462e-06)
(-4.62024e-06 4.98202e-12 2.05678e-11 7.47335e-07 2.13172e-08 -2.6773e-06)
(-4.40166e-06 2.71746e-12 3.02799e-11 -1.09784e-07 -2.6892e-08 -2.62378e-06)
(-4.48249e-06 -1.32998e-12 3.12985e-11 -4.41475e-08 -2.50393e-08 -2.65761e-06)
(-4.59823e-06 -4.46251e-12 3.09725e-11 3.36382e-08 -1.94233e-08 -2.71202e-06)
(-4.76267e-06 -6.74367e-12 3.0128e-11 9.38327e-08 -1.87466e-08 -2.79495e-06)
(-5.02566e-06 -1.07026e-11 2.97129e-11 1.42184e-07 -2.51359e-08 -2.92488e-06)
(-5.41302e-06 -1.15473e-11 2.77823e-11 -1.13632e-07 -3.53432e-08 -3.10331e-06)
(-5.69093e-06 -2.82303e-11 2.86719e-11 -3.21198e-06 -3.15337e-08 -3.21147e-06)
(-4.13257e-06 1.41719e-12 6.45783e-12 5.00083e-07 -1.20458e-07 -1.90927e-07)
(-3.97931e-06 -1.38478e-13 1.14427e-11 4.15094e-08 -6.02602e-08 -2.68218e-07)
(-4.03924e-06 -2.60433e-12 1.15646e-11 4.53275e-08 -5.09821e-08 -2.62639e-07)
(-4.14594e-06 -5.10861e-12 1.11649e-11 7.11169e-08 -5.11807e-08 -2.50118e-07)
(-4.31351e-06 -6.86123e-12 1.07698e-11 9.76374e-08 -5.45037e-08 -2.39413e-07)
(-4.594e-06 -1.06642e-11 1.09411e-11 1.09063e-07 -6.13015e-08 -2.20026e-07)
(-5.02883e-06 -1.00454e-11 1.057e-11 -1.75129e-07 -6.40109e-08 -1.75446e-07)
(-5.41327e-06 -2.73669e-11 1.21006e-11 -3.10367e-06 -3.50891e-08 -1.12383e-07)
(-3.67231e-06 6.26455e-13 7.68323e-12 4.17202e-07 -4.35052e-08 1.47918e-08)
(-3.57337e-06 -1.00246e-12 1.24718e-11 5.45706e-08 -4.09704e-08 -1.43366e-08)
(-3.63302e-06 -3.16261e-12 1.28892e-11 7.157e-08 -4.94369e-08 -1.59951e-08)
(-3.73304e-06 -5.65416e-12 1.26262e-11 8.45056e-08 -5.93317e-08 1.20764e-09)
(-3.89308e-06 -7.3601e-12 1.22058e-11 8.75239e-08 -6.63325e-08 2.6493e-08)
(-4.16547e-06 -1.13667e-11 1.20213e-11 7.27103e-08 -6.78128e-08 6.17075e-08)
(-4.59496e-06 -1.03947e-11 1.13176e-11 -2.1597e-07 -5.80662e-08 1.07637e-07)
(-5.02689e-06 -2.93025e-11 1.14268e-11 -2.92498e-06 -2.35814e-08 1.45838e-07)