/*--------------------------------*- C++ -*----------------------------------*\
| =========                 |                                                 |
| \\      /  F ield         | OpenFOAM: The Open Source CFD Toolbox           |
|  \\    /   O peration     | Version:  v1912                                 |
|   \\  /    A nd           | Website:  www.openfoam.com                      |
|    \\/     M anipulation  |                                                 |
\*---------------------------------------------------------------------------*/
FoamFile
{
    version     2.0;
    format      ascii;
    class       volScalarField;
    location    "0.21/solid";
    object      epsilonEq;
}
// * * * * * * * * * * * * * * * * * * * * * * * * * * * * * * * * * * * * * //

dimensions      [0 0 0 0 0 0 0];


internalField   nonuniform List<scalar> 
256
(
2.27633e-06
1.91391e-06
1.89834e-06
2.22099e-06
1.66752e-06
1.67238e-06
1.65427e-06
1.61325e-06
1.73246e-06
1.68657e-06
1.66809e-06
1.68007e-06
1.8188e-06
1.73712e-06
1.71884e-06
1.76811e-06
1.91285e-06
1.81839e-06
1.8003e-06
1.86318e-06
2.02961e-06
1.93721e-06
1.91926e-06
1.98072e-06
1.97108e-06
1.99522e-06
1.97824e-06
1.92707e-06
1.7141e-07
2.15404e-06
2.13838e-06
1.52159e-07
1.71531e-06
3.72652e-07
3.65668e-07
1.65525e-06
1.48122e-06
3.23645e-07
3.15542e-07
1.42294e-06
1.5012e-06
2.79478e-07
2.72325e-07
1.44353e-06
1.5482e-06
2.58837e-07
2.52354e-07
1.49037e-06
1.61884e-06
2.63092e-07
2.56947e-07
1.56045e-06
1.72055e-06
2.52181e-07
2.46502e-07
1.66208e-06
1.75811e-06
8.29172e-08
8.12222e-08
1.70458e-06
1.97061e-06
1.99549e-06
1.979e-06
1.92814e-06
1.5637e-06
2.57276e-07
2.50358e-07
1.50703e-06
1.43044e-06
3.02734e-07
2.93828e-07
1.372e-06
1.45787e-06
2.90437e-07
2.81976e-07
1.39852e-06
1.50039e-06
2.74136e-07
2.65947e-07
1.44011e-06
1.56511e-06
2.71804e-07
2.63653e-07
1.50373e-06
1.66233e-06
2.59905e-07
2.52031e-07
1.60041e-06
1.72033e-06
2.47664e-07
2.43538e-07
1.6629e-06
2.02893e-06
1.93771e-06
1.92069e-06
1.98354e-06
1.45169e-06
2.33805e-07
2.2767e-07
1.39982e-06
1.33818e-06
2.94898e-07
2.87072e-07
1.28305e-06
1.37132e-06
2.93879e-07
2.86101e-07
1.31434e-06
1.41288e-06
2.80386e-07
2.7269e-07
1.35443e-06
1.4732e-06
2.75665e-07
2.67962e-07
1.41335e-06
1.56416e-06
2.62134e-07
2.54759e-07
1.50355e-06
1.61859e-06
2.49941e-07
2.46378e-07
1.56227e-06
1.91539e-06
1.82065e-06
1.80404e-06
1.87183e-06
1.38527e-06
2.20413e-07
2.14994e-07
1.33727e-06
1.27688e-06
2.79129e-07
2.72377e-07
1.22492e-06
1.31185e-06
2.79954e-07
2.7307e-07
1.25752e-06
1.35286e-06
2.66788e-07
2.59857e-07
1.29666e-06
1.4106e-06
2.59896e-07
2.5289e-07
1.35273e-06
1.49766e-06
2.43765e-07
2.37041e-07
1.43883e-06
1.54851e-06
2.24746e-07
2.22064e-07
1.49382e-06
1.8347e-06
1.74347e-06
1.72726e-06
1.79318e-06
1.34463e-06
2.10589e-07
2.0573e-07
1.29936e-06
1.23851e-06
2.6506e-07
2.59109e-07
1.18892e-06
1.2736e-06
2.6486e-07
2.58705e-07
1.22138e-06
1.31397e-06
2.50991e-07
2.4472e-07
1.25961e-06
1.37017e-06
2.42663e-07
2.36235e-07
1.31393e-06
1.45503e-06
2.25132e-07
2.18886e-07
1.39763e-06
1.50347e-06
2.0175e-07
1.99802e-07
1.45008e-06
1.78339e-06
1.69677e-06
1.68086e-06
1.74351e-06
1.32066e-06
2.03853e-07
1.99377e-07
1.27713e-06
1.21585e-06
2.55488e-07
2.50073e-07
1.16782e-06
1.25066e-06
2.54156e-07
2.48504e-07
1.19986e-06
1.29049e-06
2.39585e-07
2.33781e-07
1.2374e-06
1.3458e-06
2.3048e-07
2.2445e-07
1.29068e-06
1.42947e-06
2.1248e-07
2.06539e-07
1.37304e-06
1.47648e-06
1.87028e-07
1.85585e-07
1.42397e-06
1.75268e-06
1.67025e-06
1.65452e-06
1.71395e-06
1.30945e-06
2.00406e-07
1.96128e-07
1.26675e-06
1.20528e-06
2.50779e-07
2.45636e-07
1.15801e-06
1.23988e-06
2.48878e-07
2.43487e-07
1.18979e-06
1.27942e-06
2.33945e-07
2.28384e-07
1.22697e-06
1.33432e-06
2.24518e-07
2.18693e-07
1.27976e-06
1.41747e-06
2.06423e-07
2.00633e-07
1.36153e-06
1.46381e-06
1.8021e-07
1.79024e-07
1.41174e-06
1.73824e-06
1.65819e-06
1.64256e-06
1.70008e-06
)
;

boundaryField
{
    interface
    {
        type            calculated;
        value           nonuniform List<scalar> 
192
(
3.21059e-06
2.56282e-06
2.64761e-06
2.76012e-06
2.89054e-06
3.06949e-06
3.12814e-06
1.6523e-06
2.9842e-06
2.67967e-06
2.72301e-06
2.8085e-06
2.93445e-06
3.13169e-06
3.32962e-06
3.1279e-06
2.69559e-06
2.49257e-06
2.53988e-06
2.61883e-06
2.73702e-06
2.92652e-06
3.13233e-06
3.06966e-06
2.49529e-06
2.31446e-06
2.36625e-06
2.44331e-06
2.55641e-06
2.73812e-06
2.93711e-06
2.89507e-06
2.37957e-06
2.2061e-06
2.25958e-06
2.33584e-06
2.44619e-06
2.62325e-06
2.8168e-06
2.7806e-06
2.31047e-06
2.14099e-06
2.19487e-06
2.27051e-06
2.37927e-06
2.5536e-06
2.74345e-06
2.70953e-06
2.27046e-06
2.10333e-06
2.15719e-06
2.23239e-06
2.34023e-06
2.51301e-06
2.70057e-06
2.66748e-06
2.25196e-06
2.08591e-06
2.13971e-06
2.21468e-06
2.3221e-06
2.49417e-06
2.68063e-06
2.64779e-06
3.38271e-06
2.75393e-06
2.8372e-06
2.94775e-06
3.07672e-06
3.25667e-06
3.33157e-06
2.00794e-06
3.3558e-06
3.03704e-06
3.07706e-06
3.16666e-06
3.30269e-06
3.51597e-06
3.73453e-06
3.49772e-06
3.32731e-06
3.005e-06
3.04404e-06
3.13358e-06
3.2697e-06
3.48305e-06
3.70235e-06
3.47193e-06
3.3024e-06
2.67247e-06
2.75592e-06
2.86737e-06
2.99697e-06
3.17707e-06
3.25408e-06
1.95793e-06
3.13818e-06
2.49023e-06
2.57609e-06
2.68961e-06
2.82074e-06
3.00113e-06
3.06826e-06
1.65321e-06
2.88916e-06
2.58444e-06
2.62708e-06
2.71129e-06
2.8358e-06
3.03246e-06
3.23654e-06
3.06916e-06
2.60308e-06
2.39646e-06
2.44173e-06
2.51866e-06
2.63474e-06
2.82288e-06
3.0337e-06
3.00401e-06
2.40833e-06
2.22227e-06
2.2711e-06
2.3456e-06
2.45624e-06
2.63624e-06
2.83962e-06
2.83002e-06
2.29718e-06
2.11763e-06
2.16764e-06
2.24093e-06
2.34855e-06
2.52366e-06
2.72123e-06
2.71716e-06
2.2313e-06
2.05529e-06
2.10542e-06
2.17784e-06
2.28366e-06
2.45584e-06
2.64943e-06
2.64752e-06
2.19334e-06
2.01944e-06
2.06943e-06
2.14126e-06
2.24602e-06
2.4165e-06
2.60763e-06
2.60651e-06
2.17583e-06
2.00292e-06
2.05279e-06
2.12433e-06
2.22859e-06
2.39829e-06
2.58825e-06
2.58737e-06
2.00824e-06
3.33139e-06
3.25665e-06
3.08085e-06
2.96776e-06
2.89821e-06
2.85724e-06
2.83808e-06
3.49797e-06
3.73503e-06
3.51742e-06
3.3076e-06
3.17994e-06
3.10401e-06
3.06077e-06
3.04101e-06
3.4722e-06
3.7032e-06
3.48517e-06
3.2757e-06
3.14836e-06
3.07268e-06
3.02962e-06
3.00995e-06
1.95829e-06
3.25507e-06
3.17989e-06
3.00613e-06
2.89487e-06
2.82679e-06
2.78684e-06
2.76819e-06
)
;
    }
    symmetry
    {
        type            symmetry;
    }
    bottom
    {
        type            calculated;
        value           nonuniform List<scalar> 
32
(
2.87036e-06
1.94989e-06
1.74143e-06
1.62403e-06
1.55512e-06
1.5122e-06
1.48667e-06
1.47471e-06
2.14918e-06
4.42652e-07
2.77346e-07
2.48674e-07
2.36285e-07
2.27438e-07
2.2134e-07
2.18207e-07
2.13479e-06
4.34604e-07
2.69407e-07
2.41861e-07
2.30335e-07
2.22101e-07
2.16414e-07
2.13491e-07
2.81515e-06
1.88769e-06
1.68456e-06
1.57357e-06
1.50951e-06
1.4699e-06
1.44645e-06
1.43548e-06
)
;
    }
}


// ************************************************************************* //
