/*--------------------------------*- C++ -*----------------------------------*\
| =========                 |                                                 |
| \\      /  F ield         | OpenFOAM: The Open Source CFD Toolbox           |
|  \\    /   O peration     | Version:  v1912                                 |
|   \\  /    A nd           | Website:  www.openfoam.com                      |
|    \\/     M anipulation  |                                                 |
\*---------------------------------------------------------------------------*/
FoamFile
{
    version     2.0;
    format      ascii;
    class       pointVectorField;
    location    "0.21/solid";
    object      pointD;
}
// * * * * * * * * * * * * * * * * * * * * * * * * * * * * * * * * * * * * * //

dimensions      [0 1 0 0 0 0 0];


internalField   nonuniform List<vector> 
405
(
(2.50298e-08 1.71316e-08 2.66048e-08)
(1.95851e-09 1.08209e-08 3.49502e-08)
(2.24159e-10 8.87732e-09 3.41197e-08)
(-1.52195e-09 1.08381e-08 3.47055e-08)
(-2.41703e-08 1.67351e-08 2.66295e-08)
(3.8829e-08 2.24498e-08 4.06516e-08)
(5.29544e-09 1.92009e-08 7.01126e-08)
(9.19688e-10 1.61915e-08 6.86904e-08)
(-3.48824e-09 1.88839e-08 6.98669e-08)
(-3.66673e-08 2.13176e-08 4.114e-08)
(4.07521e-08 1.79564e-08 4.08577e-08)
(7.10948e-09 1.59781e-08 6.99514e-08)
(1.92279e-09 1.43644e-08 6.87212e-08)
(-3.30989e-09 1.49916e-08 7.01227e-08)
(-3.67046e-08 1.57974e-08 4.21104e-08)
(4.21489e-08 1.70484e-08 3.93379e-08)
(7.98668e-09 1.56449e-08 6.89876e-08)
(3.05899e-09 1.46951e-08 6.77548e-08)
(-1.92261e-09 1.40622e-08 6.94608e-08)
(-3.59138e-08 1.3961e-08 4.11331e-08)
(4.39854e-08 1.85043e-08 3.73505e-08)
(9.01546e-09 1.72643e-08 6.80299e-08)
(4.34482e-09 1.64844e-08 6.69788e-08)
(-3.83189e-10 1.51527e-08 6.87331e-08)
(-3.52393e-08 1.45743e-08 3.95542e-08)
(4.6238e-08 2.13454e-08 3.55007e-08)
(1.00653e-08 2.0264e-08 6.78293e-08)
(5.78697e-09 1.94807e-08 6.71225e-08)
(1.44749e-09 1.76649e-08 6.87181e-08)
(-3.46667e-08 1.66292e-08 3.80314e-08)
(4.82533e-08 2.53514e-08 3.40759e-08)
(1.0531e-08 2.43961e-08 6.88642e-08)
(7.39093e-09 2.33771e-08 6.86288e-08)
(4.16695e-09 2.13293e-08 6.99157e-08)
(-3.35982e-08 1.98843e-08 3.6888e-08)
(4.91799e-08 2.33892e-08 3.30876e-08)
(1.03545e-08 2.23038e-08 7.03888e-08)
(9.14936e-09 2.07164e-08 7.06854e-08)
(7.79417e-09 1.88346e-08 7.16374e-08)
(-3.13318e-08 1.72754e-08 3.61811e-08)
(3.74705e-08 -6.33286e-09 1.99555e-08)
(1.03585e-08 -1.99977e-08 3.31225e-08)
(1.02446e-08 -2.16143e-08 3.40233e-08)
(9.9393e-09 -2.32216e-08 3.49159e-08)
(-1.76813e-08 -1.20199e-08 2.32337e-08)
(3.22544e-08 1.09715e-08 1.74604e-09)
(0 0 0)
(0 0 0)
(0 0 0)
(-3.13437e-08 1.04008e-08 2.0805e-09)
(6.55128e-08 1.98778e-08 4.32635e-09)
(5.62315e-09 1.36497e-08 3.9789e-09)
(6.16615e-10 1.0591e-08 4.15398e-09)
(-4.37485e-09 1.30237e-08 4.59127e-09)
(-6.29777e-08 1.81896e-08 5.47891e-09)
(6.73487e-08 1.74127e-08 4.46058e-09)
(7.51542e-09 1.52106e-08 3.95662e-09)
(1.40537e-09 1.35361e-08 4.23136e-09)
(-4.692e-09 1.39956e-08 4.99849e-09)
(-6.32083e-08 1.46702e-08 6.4425e-09)
(6.92296e-08 1.78002e-08 2.44632e-09)
(8.313e-09 1.679e-08 1.98382e-09)
(2.38502e-09 1.57584e-08 2.35372e-09)
(-3.53493e-09 1.50458e-08 3.33036e-09)
(-6.31141e-08 1.40835e-08 5.03116e-09)
(7.18605e-08 1.98768e-08 -4.03694e-10)
(9.21349e-09 1.90805e-08 -7.29609e-10)
(3.551e-09 1.81851e-08 -2.18216e-10)
(-2.10497e-09 1.6851e-08 8.46077e-10)
(-6.33943e-08 1.52566e-08 2.64091e-09)
(7.55167e-08 2.27616e-08 -3.57117e-09)
(1.01627e-08 2.22611e-08 -3.76475e-09)
(4.8969e-09 2.1351e-08 -3.0832e-09)
(-3.64362e-10 1.95706e-08 -2.00419e-09)
(-6.43555e-08 1.72907e-08 -1.55508e-10)
(7.98419e-08 2.61248e-08 -6.75383e-09)
(1.06035e-08 2.59805e-08 -6.89751e-09)
(6.41955e-09 2.48725e-08 -6.06561e-09)
(2.21922e-09 2.28439e-08 -4.98002e-09)
(-6.5734e-08 1.98532e-08 -3.02507e-09)
(8.33334e-08 2.30132e-08 -9.07566e-09)
(1.04918e-08 2.24796e-08 -9.297e-09)
(8.10897e-09 2.08585e-08 -8.39931e-09)
(5.64292e-09 1.8991e-08 -7.25755e-09)
(-6.62868e-08 1.6087e-08 -5.09726e-09)
(4.97637e-08 -1.93416e-08 -9.71031e-09)
(1.11179e-08 -5.72091e-08 -9.19875e-09)
(9.89965e-09 -5.82398e-08 -8.31282e-09)
(8.53829e-09 -5.99182e-08 -7.1403e-09)
(-3.07739e-08 -2.50088e-08 -6.12072e-09)
(2.9647e-08 8.56282e-09 -6.35966e-10)
(0 0 0)
(0 0 0)
(0 0 0)
(-2.87312e-08 8.09293e-09 -3.77107e-10)
(6.10238e-08 1.60439e-08 -1.33142e-09)
(6.2181e-09 9.62495e-09 -1.75491e-09)
(3.88347e-10 6.67763e-09 -1.78193e-09)
(-5.38094e-09 8.99903e-09 -1.25551e-09)
(-5.86575e-08 1.45505e-08 -4.24891e-10)
(6.3557e-08 1.54006e-08 -1.96652e-09)
(8.31572e-09 1.31244e-08 -2.58524e-09)
(9.9767e-10 1.14546e-08 -2.54985e-09)
(-6.25228e-09 1.19143e-08 -1.72708e-09)
(-5.99156e-08 1.2841e-08 -3.75958e-10)
(6.53041e-08 1.71e-08 -3.67372e-09)
(9.05429e-09 1.61154e-08 -4.2635e-09)
(1.83267e-09 1.50761e-08 -4.13354e-09)
(-5.32213e-09 1.43899e-08 -3.14005e-09)
(-5.99587e-08 1.35559e-08 -1.55628e-09)
(6.77982e-08 1.98132e-08 -6.1969e-09)
(9.85998e-09 1.90288e-08 -6.68629e-09)
(2.88114e-09 1.81311e-08 -6.45192e-09)
(-4.02914e-09 1.68296e-08 -5.3552e-09)
(-6.03158e-08 1.53548e-08 -3.65887e-09)
(7.15183e-08 2.26772e-08 -8.97099e-09)
(1.07954e-08 2.21155e-08 -9.39597e-09)
(4.13121e-09 2.12032e-08 -9.0665e-09)
(-2.46353e-09 1.9465e-08 -7.89413e-09)
(-6.15057e-08 1.73608e-08 -6.08623e-09)
(7.62216e-08 2.5219e-08 -1.13276e-08)
(1.13345e-08 2.49511e-08 -1.17821e-08)
(5.57527e-09 2.38492e-08 -1.13868e-08)
(-1.34465e-10 2.1869e-08 -1.01419e-08)
(-6.33878e-08 1.91078e-08 -8.15934e-09)
(8.06395e-08 2.07881e-08 -1.22351e-08)
(1.13898e-08 2.01608e-08 -1.28177e-08)
(7.20056e-09 1.85829e-08 -1.24023e-08)
(2.9903e-09 1.67554e-08 -1.10934e-08)
(-6.49778e-08 1.405e-08 -8.87356e-09)
(4.96416e-08 -2.02159e-08 -1.17038e-08)
(1.20985e-08 -5.55925e-08 -1.1316e-08)
(8.93699e-09 -5.61205e-08 -1.09663e-08)
(5.6902e-09 -5.81506e-08 -9.61912e-09)
(-3.22775e-08 -2.56726e-08 -8.71892e-09)
(2.7337e-08 7.94125e-09 -4.89242e-10)
(0 0 0)
(0 0 0)
(0 0 0)
(-2.65089e-08 7.59071e-09 -3.02579e-10)
(5.68373e-08 1.46652e-08 -1.41247e-09)
(6.41294e-09 8.20974e-09 -1.55049e-09)
(2.46303e-10 5.36046e-09 -1.61504e-09)
(-5.86095e-09 7.65678e-09 -1.18584e-09)
(-5.4774e-08 1.34323e-08 -7.49017e-10)
(5.98814e-08 1.39278e-08 -2.39746e-09)
(8.65824e-09 1.15955e-08 -2.63135e-09)
(7.18135e-10 9.96359e-09 -2.64495e-09)
(-7.14934e-09 1.04814e-08 -1.99138e-09)
(-5.67935e-08 1.16506e-08 -1.21093e-09)
(6.16382e-08 1.57433e-08 -3.82864e-09)
(9.37521e-09 1.47921e-08 -4.03908e-09)
(1.42974e-09 1.3787e-08 -3.97066e-09)
(-6.44021e-09 1.31682e-08 -3.18466e-09)
(-5.70781e-08 1.24729e-08 -2.21501e-09)
(6.39731e-08 1.84852e-08 -5.77482e-09)
(1.0083e-08 1.77649e-08 -5.89511e-09)
(2.37235e-09 1.6909e-08 -5.74232e-09)
(-5.25828e-09 1.5667e-08 -4.86495e-09)
(-5.74765e-08 1.42813e-08 -3.80231e-09)
(6.75475e-08 2.10521e-08 -7.79185e-09)
(1.09484e-08 2.05106e-08 -7.83089e-09)
(3.53381e-09 1.9637e-08 -7.60652e-09)
(-3.79805e-09 1.79605e-08 -6.65362e-09)
(-5.86864e-08 1.59711e-08 -5.51655e-09)
(7.22378e-08 2.29078e-08 -9.15209e-09)
(1.1513e-08 2.25904e-08 -9.18356e-09)
(4.90459e-09 2.15337e-08 -8.91403e-09)
(-1.64025e-09 1.96102e-08 -7.89094e-09)
(-6.06868e-08 1.70193e-08 -6.63369e-09)
(7.70753e-08 1.77997e-08 -9.01554e-09)
(1.16984e-08 1.71824e-08 -9.14576e-09)
(6.46902e-09 1.57221e-08 -8.87271e-09)
(1.23221e-09 1.38798e-08 -7.79133e-09)
(-6.2791e-08 1.1274e-08 -6.34296e-09)
(4.84119e-08 -2.14357e-08 -7.77522e-09)
(1.24236e-08 -5.43977e-08 -7.23936e-09)
(8.1522e-09 -5.4495e-08 -7.06702e-09)
(3.80785e-09 -5.68584e-08 -5.91911e-09)
(-3.25275e-08 -2.67187e-08 -5.42515e-09)
(2.58193e-08 7.64716e-09 -3.72845e-10)
(0 0 0)
(0 0 0)
(0 0 0)
(-2.50718e-08 7.38962e-09 -2.4153e-10)
(5.38572e-08 1.39402e-08 -1.28472e-09)
(6.2519e-09 7.62354e-09 -1.18687e-09)
(1.60096e-10 4.8592e-09 -1.19067e-09)
(-5.88917e-09 7.14434e-09 -9.26831e-10)
(-5.20481e-08 1.29261e-08 -8.14105e-10)
(5.6994e-08 1.28742e-08 -2.35938e-09)
(8.48288e-09 1.05692e-08 -2.2321e-09)
(5.33683e-10 8.99189e-09 -2.17587e-09)
(-7.35831e-09 9.56199e-09 -1.77e-09)
(-5.43465e-08 1.08593e-08 -1.50706e-09)
(5.87503e-08 1.4326e-08 -3.56388e-09)
(9.16364e-09 1.3425e-08 -3.39187e-09)
(1.14811e-09 1.24711e-08 -3.26393e-09)
(-6.80363e-09 1.19176e-08 -2.76617e-09)
(-5.48129e-08 1.13255e-08 -2.38581e-09)
(6.09665e-08 1.67143e-08 -4.96698e-09)
(9.78099e-09 1.6073e-08 -4.71522e-09)
(2.00237e-09 1.52718e-08 -4.51734e-09)
(-5.70563e-09 1.40908e-08 -3.95034e-09)
(-5.52612e-08 1.27683e-08 -3.50326e-09)
(6.43862e-08 1.8886e-08 -6.26546e-09)
(1.05532e-08 1.84012e-08 -5.9316e-09)
(3.08724e-09 1.75786e-08 -5.67325e-09)
(-4.30401e-09 1.59622e-08 -5.04805e-09)
(-5.64633e-08 1.40436e-08 -4.55474e-09)
(6.89942e-08 2.03295e-08 -6.90141e-09)
(1.10929e-08 2.0017e-08 -6.53771e-09)
(4.39331e-09 1.90187e-08 -6.24032e-09)
(-2.24985e-09 1.71418e-08 -5.56198e-09)
(-5.85021e-08 1.46586e-08 -4.9922e-09)
(7.40185e-08 1.50291e-08 -6.32875e-09)
(1.13464e-08 1.44732e-08 -6.02437e-09)
(5.90322e-09 1.31378e-08 -5.72717e-09)
(4.45846e-10 1.12655e-08 -5.00166e-09)
(-6.0882e-08 8.69715e-09 -4.29594e-09)
(4.68094e-08 -2.29067e-08 -4.94863e-09)
(1.20453e-08 -5.42928e-08 -4.25463e-09)
(7.53929e-09 -5.40858e-08 -4.04889e-09)
(2.95283e-09 -5.6671e-08 -3.26322e-09)
(-3.21371e-08 -2.80384e-08 -3.16907e-09)
(2.48759e-08 7.41113e-09 -2.81486e-10)
(0 0 0)
(0 0 0)
(0 0 0)
(-2.4185e-08 7.21789e-09 -1.93178e-10)
(5.1904e-08 1.33779e-08 -1.04252e-09)
(6.00907e-09 7.24372e-09 -8.8734e-10)
(1.07102e-10 4.55105e-09 -8.53274e-10)
(-5.76764e-09 6.82194e-09 -7.09275e-10)
(-5.02715e-08 1.25228e-08 -7.24085e-10)
(5.49598e-08 1.20331e-08 -1.97774e-09)
(8.14491e-09 9.80472e-09 -1.74182e-09)
(4.13817e-10 8.28433e-09 -1.6466e-09)
(-7.2755e-09 8.88542e-09 -1.42298e-09)
(-5.26191e-08 1.02217e-08 -1.39561e-09)
(5.66693e-08 1.30796e-08 -2.91767e-09)
(8.76739e-09 1.22398e-08 -2.62374e-09)
(9.57128e-10 1.13379e-08 -2.46875e-09)
(-6.80215e-09 1.08324e-08 -2.18785e-09)
(-5.31728e-08 1.02991e-08 -2.10318e-09)
(5.87937e-08 1.50529e-08 -3.86825e-09)
(9.30848e-09 1.44824e-08 -3.50874e-09)
(1.74321e-09 1.37327e-08 -3.29901e-09)
(-5.76237e-09 1.26012e-08 -2.97052e-09)
(-5.36597e-08 1.13236e-08 -2.84329e-09)
(6.2095e-08 1.68755e-08 -4.62863e-09)
(1.00011e-08 1.64462e-08 -4.20459e-09)
(2.76675e-09 1.56714e-08 -3.94766e-09)
(-4.40274e-09 1.41038e-08 -3.57762e-09)
(-5.48618e-08 1.22356e-08 -3.41755e-09)
(6.66251e-08 1.80922e-08 -4.84268e-09)
(1.05062e-08 1.78014e-08 -4.38962e-09)
(4.01971e-09 1.68554e-08 -4.10175e-09)
(-2.4194e-09 1.50154e-08 -3.69348e-09)
(-5.69232e-08 1.26044e-08 -3.48048e-09)
(7.17279e-08 1.27662e-08 -4.19344e-09)
(1.0789e-08 1.22713e-08 -3.77339e-09)
(5.48434e-09 1.10333e-08 -3.48551e-09)
(1.56968e-10 9.14238e-09 -3.04267e-09)
(-5.94591e-08 6.59491e-09 -2.7371e-09)
(4.53726e-08 -2.43427e-08 -2.99897e-09)
(1.14534e-08 -5.47751e-08 -2.32659e-09)
(7.08146e-09 -5.43738e-08 -2.1039e-09)
(2.61977e-09 -5.70864e-08 -1.62137e-09)
(-3.16175e-08 -2.93502e-08 -1.72656e-09)
(2.43088e-08 7.23651e-09 -1.90873e-10)
(0 0 0)
(0 0 0)
(0 0 0)
(-2.36537e-08 7.0843e-09 -1.36665e-10)
(5.06979e-08 1.295e-08 -7.23907e-10)
(5.81961e-09 6.96132e-09 -6.03442e-10)
(7.54455e-11 4.32141e-09 -5.66901e-10)
(-5.65194e-09 6.57885e-09 -4.92379e-10)
(-4.91771e-08 1.21995e-08 -5.27601e-10)
(5.3651e-08 1.13849e-08 -1.38805e-09)
(7.86144e-09 9.233e-09 -1.19562e-09)
(3.39475e-10 7.75936e-09 -1.11165e-09)
(-7.15153e-09 8.37581e-09 -9.95781e-10)
(-5.15062e-08 9.7135e-09 -1.02683e-09)
(5.53006e-08 1.21192e-08 -2.0233e-09)
(8.42617e-09 1.13352e-08 -1.78105e-09)
(8.35035e-10 1.04754e-08 -1.65423e-09)
(-6.71427e-09 1.00003e-08 -1.50608e-09)
(-5.20909e-08 9.49537e-09 -1.51351e-09)
(5.73563e-08 1.37702e-08 -2.60552e-09)
(8.90953e-09 1.3253e-08 -2.31661e-09)
(1.5734e-09 1.25433e-08 -2.15221e-09)
(-5.71089e-09 1.14465e-08 -1.97474e-09)
(-5.26005e-08 1.0199e-08 -1.95808e-09)
(6.05791e-08 1.53438e-08 -3.00928e-09)
(9.54672e-09 1.49552e-08 -2.67816e-09)
(2.55263e-09 1.42167e-08 -2.48196e-09)
(-4.38359e-09 1.26848e-08 -2.27745e-09)
(-5.38097e-08 1.08536e-08 -2.23795e-09)
(6.5054e-08 1.64311e-08 -3.03337e-09)
(1.00248e-08 1.61592e-08 -2.68257e-09)
(3.76636e-09 1.52514e-08 -2.46562e-09)
(-2.4511e-09 1.34396e-08 -2.23572e-09)
(-5.58905e-08 1.10794e-08 -2.16032e-09)
(7.01908e-08 1.11081e-08 -2.50815e-09)
(1.03197e-08 1.06548e-08 -2.17555e-09)
(5.19714e-09 9.48094e-09 -1.95831e-09)
(4.57494e-11 7.58437e-09 -1.70582e-09)
(-5.852e-08 5.05638e-09 -1.57148e-09)
(4.43375e-08 -2.55044e-08 -1.65723e-09)
(1.09585e-08 -5.53744e-08 -1.15543e-09)
(6.76516e-09 -5.48596e-08 -9.77714e-10)
(2.47539e-09 -5.76362e-08 -7.03643e-10)
(-3.12172e-08 -3.04196e-08 -8.39601e-10)
(2.40059e-08 7.13275e-09 -9.67864e-11)
(0 0 0)
(0 0 0)
(0 0 0)
(-2.33706e-08 7.00321e-09 -7.10333e-11)
(5.00476e-08 1.26845e-08 -3.69076e-10)
(5.71095e-09 6.78198e-09 -3.07994e-10)
(5.86991e-11 4.1735e-09 -2.86918e-10)
(-5.58272e-09 6.42219e-09 -2.54695e-10)
(-4.85882e-08 1.19929e-08 -2.75586e-10)
(5.29325e-08 1.09734e-08 -7.08848e-10)
(7.69333e-09 8.8719e-09 -6.0903e-10)
(2.99112e-10 7.42779e-09 -5.62824e-10)
(-7.07036e-09 8.05111e-09 -5.12851e-10)
(-5.08962e-08 9.38287e-09 -5.36155e-10)
(5.45387e-08 1.1517e-08 -1.02615e-09)
(8.21907e-09 1.077e-08 -8.9887e-10)
(7.67376e-10 9.93699e-09 -8.30492e-10)
(-6.64782e-09 9.47837e-09 -7.66029e-10)
(-5.14894e-08 8.9857e-09 -7.81176e-10)
(5.65517e-08 1.29755e-08 -1.30117e-09)
(8.66672e-09 1.2491e-08 -1.14978e-09)
(1.47769e-09 1.1806e-08 -1.06233e-09)
(-5.66408e-09 1.07296e-08 -9.83922e-10)
(-5.20103e-08 9.49941e-09 -9.88327e-10)
(5.97302e-08 1.44048e-08 -1.47294e-09)
(9.27189e-09 1.40401e-08 -1.30094e-09)
(2.43027e-09 1.33238e-08 -1.19762e-09)
(-4.35755e-09 1.18136e-08 -1.1058e-09)
(-5.32267e-08 1.00057e-08 -1.09831e-09)
(6.41736e-08 1.54217e-08 -1.45134e-09)
(9.73404e-09 1.51609e-08 -1.26986e-09)
(3.62e-09 1.42753e-08 -1.15629e-09)
(-2.45673e-09 1.24818e-08 -1.05165e-09)
(-5.53218e-08 1.01532e-08 -1.0256e-09)
(6.93257e-08 1.00999e-08 -1.16277e-09)
(1.00343e-08 9.66861e-09 -9.89723e-10)
(5.02992e-09 8.53001e-09 -8.75952e-10)
(-6.8179e-12 6.63408e-09 -7.60115e-10)
(-5.80039e-08 4.12176e-09 -7.04953e-10)
(4.3741e-08 -2.62482e-08 -7.24818e-10)
(1.0659e-08 -5.5821e-08 -4.63393e-10)
(6.57998e-09 -5.52485e-08 -3.67945e-10)
(2.40049e-09 -5.80525e-08 -2.43027e-10)
(-3.09924e-08 -3.11065e-08 -3.25353e-10)
(1.8649e-08 7.69947e-09 0)
(2.03623e-09 2.82325e-09 0)
(-4.73057e-12 1.17679e-09 0)
(-2.04494e-09 2.7585e-09 0)
(-1.8235e-08 7.55719e-09 0)
(3.02177e-08 1.09101e-08 0)
(5.67643e-09 6.72039e-09 0)
(5.3475e-11 4.12224e-09 0)
(-5.56058e-09 6.36799e-09 0)
(-2.94355e-08 1.03148e-08 0)
(3.30921e-08 1.04042e-08 0)
(7.63923e-09 8.74813e-09 0)
(2.86344e-10 7.31399e-09 0)
(-7.04383e-09 7.93928e-09 0)
(-3.17823e-08 9.0197e-09 0)
(3.41574e-08 1.11956e-08 0)
(8.15159e-09 1.05779e-08 0)
(7.45744e-10 9.75407e-09 0)
(-6.62535e-09 9.30067e-09 0)
(-3.18781e-08 8.99082e-09 0)
(3.53532e-08 1.25891e-08 0)
(8.58721e-09 1.2234e-08 0)
(1.44682e-09 1.15574e-08 0)
(-5.64782e-09 1.04876e-08 0)
(-3.16246e-08 9.56044e-09 0)
(3.72121e-08 1.39876e-08 0)
(9.18193e-09 1.37331e-08 0)
(2.39051e-09 1.30241e-08 0)
(-4.34843e-09 1.15212e-08 0)
(-3.15607e-08 1.01482e-08 0)
(3.95608e-08 1.50593e-08 0)
(9.6389e-09 1.48267e-08 0)
(3.57219e-09 1.39484e-08 0)
(-2.45842e-09 1.21613e-08 0)
(-3.15775e-08 1.04439e-08 0)
(4.21047e-08 9.73903e-09 0)
(9.94082e-09 9.33737e-09 0)
(4.97505e-09 8.20994e-09 0)
(-2.41774e-11 6.31495e-09 0)
(-3.15595e-08 4.48868e-09 0)
(3.40688e-08 -1.63529e-08 0)
(1.03298e-08 -2.62546e-08 0)
(6.12368e-09 -2.65826e-08 0)
(1.82403e-09 -2.8944e-08 0)
(-2.18892e-08 -2.11691e-08 0)
)
;

boundaryField
{
    interface
    {
        type            calculated;
    }
    symmetry
    {
        type            symmetry;
    }
    bottom
    {
        type            calculated;
    }
}


// ************************************************************************* //
