/*--------------------------------*- C++ -*----------------------------------*\
| =========                 |                                                 |
| \\      /  F ield         | OpenFOAM: The Open Source CFD Toolbox           |
|  \\    /   O peration     | Version:  v1912                                 |
|   \\  /    A nd           | Website:  www.openfoam.com                      |
|    \\/     M anipulation  |                                                 |
\*---------------------------------------------------------------------------*/
FoamFile
{
    version     2.0;
    format      ascii;
    class       pointVectorField;
    location    "0.21/solid";
    object      pointDD;
}
// * * * * * * * * * * * * * * * * * * * * * * * * * * * * * * * * * * * * * //

dimensions      [0 1 0 0 0 0 0];


internalField   nonuniform List<vector> 
405
(
(3.52964e-10 6.98962e-10 3.41775e-10)
(1.84463e-10 4.57095e-10 1.07268e-10)
(-3.90374e-13 3.55553e-10 2.06816e-11)
(-1.80904e-10 4.51429e-10 1.03035e-10)
(-3.15687e-10 6.82088e-10 3.37376e-10)
(7.01521e-10 7.41373e-10 8.48774e-10)
(4.95167e-10 6.80635e-10 5.34245e-10)
(2.73963e-12 5.3165e-10 3.51386e-10)
(-4.79826e-10 6.69178e-10 5.28355e-10)
(-6.36445e-10 7.17228e-10 8.4567e-10)
(8.83246e-10 1.58436e-10 1.42629e-09)
(6.30158e-10 2.09022e-10 1.09718e-09)
(1.03696e-11 1.4522e-10 9.02166e-10)
(-5.98551e-10 1.96769e-10 1.09457e-09)
(-8.01247e-10 1.34959e-10 1.42829e-09)
(8.70089e-10 -3.48624e-10 1.88601e-09)
(6.19862e-10 -2.58175e-10 1.55805e-09)
(1.85405e-11 -2.87567e-10 1.35497e-09)
(-5.72205e-10 -2.71772e-10 1.55647e-09)
(-7.72564e-10 -3.73499e-10 1.89046e-09)
(8.44169e-10 -7.99942e-10 2.32796e-09)
(5.9516e-10 -7.25706e-10 1.99457e-09)
(2.67475e-11 -7.64211e-10 1.77738e-09)
(-5.31244e-10 -7.40507e-10 1.99348e-09)
(-7.30822e-10 -8.26553e-10 2.33374e-09)
(8.9926e-10 -1.2518e-09 2.80233e-09)
(6.30651e-10 -1.22463e-09 2.45304e-09)
(3.52555e-11 -1.29209e-09 2.21715e-09)
(-5.49792e-10 -1.24051e-09 2.4522e-09)
(-7.69248e-10 -1.28016e-09 2.80904e-09)
(1.13591e-09 -1.81933e-09 3.35431e-09)
(8.02912e-10 -1.8285e-09 2.9731e-09)
(4.4131e-11 -1.90011e-09 2.71902e-09)
(-7.04178e-10 -1.84593e-09 2.97231e-09)
(-9.87416e-10 -1.85018e-09 3.36186e-09)
(1.69282e-09 -2.93861e-09 4.05622e-09)
(1.13776e-09 -2.88215e-09 3.72018e-09)
(5.27821e-11 -2.84831e-09 3.47052e-09)
(-1.02056e-09 -2.90042e-09 3.71865e-09)
(-1.51926e-09 -2.97105e-09 4.06387e-09)
(2.09937e-09 -3.69971e-09 4.51984e-09)
(1.34274e-09 -3.50699e-09 4.34953e-09)
(5.8238e-11 -3.32733e-09 4.16509e-09)
(-1.21358e-09 -3.52004e-09 4.3523e-09)
(-1.92535e-09 -3.726e-09 4.52871e-09)
(4.50272e-11 3.16439e-10 1.82652e-10)
(0 0 0)
(0 0 0)
(0 0 0)
(-1.86728e-12 3.02077e-10 1.83078e-10)
(1.96258e-10 3.56586e-10 6.52012e-10)
(0 0 0)
(0 0 0)
(0 0 0)
(-1.02297e-10 3.28851e-10 6.55361e-10)
(3.05521e-10 -1.71284e-10 1.1741e-09)
(0 0 0)
(0 0 0)
(0 0 0)
(-1.96762e-10 -1.98632e-10 1.18192e-09)
(2.88949e-10 -6.42632e-10 1.62289e-09)
(0 0 0)
(0 0 0)
(0 0 0)
(-1.65679e-10 -6.71564e-10 1.63393e-09)
(2.67435e-10 -1.07247e-09 2.05141e-09)
(0 0 0)
(0 0 0)
(0 0 0)
(-1.29034e-10 -1.10337e-09 2.0645e-09)
(3.18796e-10 -1.49094e-09 2.50363e-09)
(0 0 0)
(0 0 0)
(0 0 0)
(-1.64089e-10 -1.52398e-09 2.51816e-09)
(5.32187e-10 -1.97002e-09 3.00661e-09)
(0 0 0)
(0 0 0)
(0 0 0)
(-3.58515e-10 -2.006e-09 3.02228e-09)
(1.1266e-09 -2.88368e-09 3.49972e-09)
(0 0 0)
(0 0 0)
(0 0 0)
(-9.22476e-10 -2.92153e-09 3.51577e-09)
(1.69712e-09 -3.44088e-09 3.78457e-09)
(1.1432e-09 -3.10901e-09 3.80194e-09)
(5.82729e-11 -2.86445e-09 3.76367e-09)
(-1.01497e-09 -3.11788e-09 3.80987e-09)
(-1.51509e-09 -3.46719e-09 3.79848e-09)
(-1.55965e-10 7.33084e-11 4.15658e-11)
(0 0 0)
(0 0 0)
(0 0 0)
(1.92971e-10 6.10588e-11 4.25985e-11)
(-2.76446e-10 -7.42512e-11 2.89868e-10)
(0 0 0)
(0 0 0)
(0 0 0)
(3.56327e-10 -9.86713e-11 2.9366e-10)
(-2.49781e-10 -5.09189e-10 7.18759e-10)
(0 0 0)
(0 0 0)
(0 0 0)
(3.41851e-10 -5.34706e-10 7.25768e-10)
(-2.78332e-10 -9.25464e-10 1.14947e-09)
(0 0 0)
(0 0 0)
(0 0 0)
(3.83579e-10 -9.53419e-10 1.15911e-09)
(-3.01483e-10 -1.32035e-09 1.56042e-09)
(0 0 0)
(0 0 0)
(0 0 0)
(4.21134e-10 -1.35075e-09 1.57202e-09)
(-2.55237e-10 -1.68512e-09 1.96466e-09)
(0 0 0)
(0 0 0)
(0 0 0)
(3.90992e-10 -1.71803e-09 1.97766e-09)
(-4.96161e-11 -2.04126e-09 2.34284e-09)
(0 0 0)
(0 0 0)
(0 0 0)
(2.04575e-10 -2.07744e-09 2.35672e-09)
(5.37243e-10 -2.69908e-09 2.582e-09)
(0 0 0)
(0 0 0)
(0 0 0)
(-3.51622e-10 -2.73719e-09 2.59607e-09)
(1.14525e-09 -3.0471e-09 2.66368e-09)
(8.13452e-10 -2.67068e-09 2.74875e-09)
(5.54118e-11 -2.42213e-09 2.81688e-09)
(-6.92143e-10 -2.68054e-09 2.75583e-09)
(-9.76531e-10 -3.07388e-09 2.67586e-09)
(-2.22801e-10 -1.76819e-11 4.54049e-11)
(0 0 0)
(0 0 0)
(0 0 0)
(2.5806e-10 -2.89555e-11 4.61715e-11)
(-4.50715e-10 -2.52406e-10 2.59986e-10)
(0 0 0)
(0 0 0)
(0 0 0)
(5.26278e-10 -2.74837e-10 2.62782e-10)
(-4.72107e-10 -6.77406e-10 6.22361e-10)
(0 0 0)
(0 0 0)
(0 0 0)
(5.5845e-10 -7.01095e-10 6.27506e-10)
(-5.05136e-10 -1.07484e-09 1.00454e-09)
(0 0 0)
(0 0 0)
(0 0 0)
(6.03657e-10 -1.10137e-09 1.0117e-09)
(-5.21513e-10 -1.43087e-09 1.37158e-09)
(0 0 0)
(0 0 0)
(0 0 0)
(6.3383e-10 -1.46025e-09 1.38038e-09)
(-4.67951e-10 -1.72441e-09 1.70808e-09)
(0 0 0)
(0 0 0)
(0 0 0)
(5.9624e-10 -1.75667e-09 1.71814e-09)
(-2.55778e-10 -1.97365e-09 1.97567e-09)
(0 0 0)
(0 0 0)
(0 0 0)
(4.03646e-10 -2.00952e-09 1.98652e-09)
(3.2345e-10 -2.50666e-09 2.0944e-09)
(0 0 0)
(0 0 0)
(0 0 0)
(-1.44463e-10 -2.54449e-09 2.10551e-09)
(9.08001e-10 -2.80614e-09 2.09394e-09)
(6.41963e-10 -2.46228e-09 2.1477e-09)
(5.24724e-11 -2.23196e-09 2.21296e-09)
(-5.26652e-10 -2.47231e-09 2.15333e-09)
(-7.45587e-10 -2.83275e-09 2.10366e-09)
(-2.46593e-10 -4.56709e-11 5.27997e-11)
(0 0 0)
(0 0 0)
(0 0 0)
(2.81314e-10 -5.64093e-11 5.34618e-11)
(-5.12488e-10 -3.10226e-10 2.47345e-10)
(0 0 0)
(0 0 0)
(0 0 0)
(5.86428e-10 -3.3141e-10 2.49681e-10)
(-5.50504e-10 -7.37562e-10 5.45782e-10)
(0 0 0)
(0 0 0)
(0 0 0)
(6.34231e-10 -7.59824e-10 5.49955e-10)
(-5.82908e-10 -1.12653e-09 8.57416e-10)
(0 0 0)
(0 0 0)
(0 0 0)
(6.78023e-10 -1.15174e-09 8.63124e-10)
(-5.91929e-10 -1.45247e-09 1.15445e-09)
(0 0 0)
(0 0 0)
(0 0 0)
(7.00295e-10 -1.48077e-09 1.16145e-09)
(-5.30282e-10 -1.69525e-09 1.41239e-09)
(0 0 0)
(0 0 0)
(0 0 0)
(6.54412e-10 -1.72675e-09 1.42041e-09)
(-3.12786e-10 -1.88805e-09 1.59668e-09)
(0 0 0)
(0 0 0)
(0 0 0)
(4.56672e-10 -1.92353e-09 1.60537e-09)
(2.59703e-10 -2.37465e-09 1.66497e-09)
(0 0 0)
(0 0 0)
(0 0 0)
(-8.43666e-11 -2.41238e-09 1.67396e-09)
(8.38754e-10 -2.65287e-09 1.6439e-09)
(5.96859e-10 -2.32501e-09 1.65712e-09)
(5.00737e-11 -2.11238e-09 1.69247e-09)
(-4.86255e-10 -2.33515e-09 1.66189e-09)
(-6.80402e-10 -2.67955e-09 1.65198e-09)
(-2.54195e-10 -5.23928e-11 4.71269e-11)
(0 0 0)
(0 0 0)
(0 0 0)
(2.88889e-10 -6.27687e-11 4.76901e-11)
(-5.28823e-10 -3.22192e-10 2.04739e-10)
(0 0 0)
(0 0 0)
(0 0 0)
(6.02334e-10 -3.42513e-10 2.06664e-10)
(-5.66829e-10 -7.46278e-10 4.32784e-10)
(0 0 0)
(0 0 0)
(0 0 0)
(6.49417e-10 -7.67495e-10 4.36125e-10)
(-5.95359e-10 -1.12673e-09 6.65562e-10)
(0 0 0)
(0 0 0)
(0 0 0)
(6.88724e-10 -1.15089e-09 6.7004e-10)
(-5.9838e-10 -1.43337e-09 8.83966e-10)
(0 0 0)
(0 0 0)
(0 0 0)
(7.04533e-10 -1.46077e-09 8.89392e-10)
(-5.30946e-10 -1.64983e-09 1.06698e-09)
(0 0 0)
(0 0 0)
(0 0 0)
(6.52624e-10 -1.68071e-09 1.07315e-09)
(-3.10673e-10 -1.82082e-09 1.19082e-09)
(0 0 0)
(0 0 0)
(0 0 0)
(4.5215e-10 -1.85606e-09 1.19749e-09)
(2.56382e-10 -2.29199e-09 1.23481e-09)
(0 0 0)
(0 0 0)
(0 0 0)
(-8.32403e-11 -2.32993e-09 1.24178e-09)
(8.35814e-10 -2.55645e-09 1.21541e-09)
(6.01241e-10 -2.2341e-09 1.20932e-09)
(4.82964e-11 -2.03342e-09 1.22357e-09)
(-4.94126e-10 -2.24442e-09 1.21319e-09)
(-6.80212e-10 -2.58349e-09 1.22184e-09)
(-2.57018e-10 -5.30272e-11 3.39646e-11)
(0 0 0)
(0 0 0)
(0 0 0)
(2.9186e-10 -6.3155e-11 3.43792e-11)
(-5.32391e-10 -3.20094e-10 1.43027e-10)
(0 0 0)
(0 0 0)
(0 0 0)
(6.05943e-10 -3.39826e-10 1.44417e-10)
(-5.66235e-10 -7.37367e-10 2.96013e-10)
(0 0 0)
(0 0 0)
(0 0 0)
(6.4837e-10 -7.57864e-10 2.98382e-10)
(-5.90554e-10 -1.1095e-09 4.49245e-10)
(0 0 0)
(0 0 0)
(0 0 0)
(6.8302e-10 -1.13293e-09 4.52372e-10)
(-5.89419e-10 -1.40512e-09 5.90887e-10)
(0 0 0)
(0 0 0)
(0 0 0)
(6.94317e-10 -1.43189e-09 5.94635e-10)
(-5.18675e-10 -1.61065e-09 7.07158e-10)
(0 0 0)
(0 0 0)
(0 0 0)
(6.38892e-10 -1.64111e-09 7.1139e-10)
(-2.97426e-10 -1.7756e-09 7.84171e-10)
(0 0 0)
(0 0 0)
(0 0 0)
(4.37438e-10 -1.81077e-09 7.88737e-10)
(2.65795e-10 -2.24217e-09 8.11992e-10)
(0 0 0)
(0 0 0)
(0 0 0)
(-9.39674e-11 -2.28047e-09 8.16781e-10)
(8.46532e-10 -2.49739e-09 7.99725e-10)
(6.13843e-10 -2.17546e-09 7.90494e-10)
(4.7083e-11 -1.98109e-09 7.95007e-10)
(-5.09121e-10 -2.18599e-09 7.9325e-10)
(-6.92716e-10 -2.52491e-09 8.04225e-10)
(-2.58422e-10 -5.25321e-11 1.75662e-11)
(0 0 0)
(0 0 0)
(0 0 0)
(2.9341e-10 -6.25128e-11 1.77861e-11)
(-5.33596e-10 -3.16141e-10 7.29528e-11)
(0 0 0)
(0 0 0)
(0 0 0)
(6.07287e-10 -3.35527e-10 7.36833e-11)
(-5.64336e-10 -7.27494e-10 1.49452e-10)
(0 0 0)
(0 0 0)
(0 0 0)
(6.46313e-10 -7.4757e-10 1.50684e-10)
(-5.85844e-10 -1.09373e-09 2.25194e-10)
(0 0 0)
(0 0 0)
(0 0 0)
(6.77881e-10 -1.11672e-09 2.26806e-10)
(-5.8234e-10 -1.38385e-09 2.94538e-10)
(0 0 0)
(0 0 0)
(0 0 0)
(6.86585e-10 -1.41024e-09 2.96457e-10)
(-5.10005e-10 -1.58561e-09 3.50891e-10)
(0 0 0)
(0 0 0)
(0 0 0)
(6.29433e-10 -1.61584e-09 3.53047e-10)
(-2.8857e-10 -1.74977e-09 3.87984e-10)
(0 0 0)
(0 0 0)
(0 0 0)
(4.27781e-10 -1.78495e-09 3.90305e-10)
(2.72393e-10 -2.2153e-09 4.01701e-10)
(0 0 0)
(0 0 0)
(0 0 0)
(-1.01265e-10 -2.2539e-09 4.04141e-10)
(8.54095e-10 -2.46528e-09 3.96147e-10)
(6.22057e-10 -2.14225e-09 3.90625e-10)
(4.63817e-11 -1.9506e-09 3.91717e-10)
(-5.18722e-10 -2.15294e-09 3.92059e-10)
(-7.0128e-10 -2.49317e-09 3.98464e-10)
(-1.78796e-10 -6.39311e-11 0)
(-1.46828e-11 -5.9006e-11 0)
(-4.59377e-13 -7.4909e-11 0)
(1.66604e-11 -6.26857e-11 0)
(2.05409e-10 -7.47769e-11 0)
(-2.8435e-10 -3.06295e-10 0)
(-4.43388e-11 -3.21281e-10 0)
(8.38249e-13 -3.46057e-10 0)
(5.23686e-11 -3.29585e-10 0)
(3.28418e-10 -3.22654e-10 0)
(-3.14705e-10 -7.16644e-10 0)
(-7.00067e-11 -7.21999e-10 0)
(4.90347e-12 -7.3676e-10 0)
(8.65619e-11 -7.32127e-10 0)
(3.67328e-10 -7.34287e-10 0)
(-3.37295e-10 -1.08461e-09 0)
(-8.76224e-11 -1.09563e-09 0)
(9.825e-12 -1.11274e-09 0)
(1.13825e-10 -1.10743e-09 0)
(3.99629e-10 -1.10487e-09 0)
(-3.35323e-10 -1.38546e-09 0)
(-8.79608e-11 -1.42719e-09 0)
(1.54659e-11 -1.46303e-09 0)
(1.25488e-10 -1.44062e-09 0)
(4.09406e-10 -1.40863e-09 0)
(-2.61637e-10 -1.61719e-09 0)
(-3.5034e-11 -1.71931e-09 0)
(2.20089e-11 -1.7852e-09 0)
(8.58657e-11 -1.73456e-09 0)
(3.50051e-10 -1.64366e-09 0)
(-2.78042e-11 -1.83183e-09 0)
(1.35624e-10 -1.99352e-09 0)
(2.94658e-11 -2.06923e-09 0)
(-6.92971e-11 -2.01119e-09 0)
(1.34146e-10 -1.86261e-09 0)
(4.91054e-10 -2.30779e-09 0)
(4.45279e-10 -2.39229e-09 0)
(3.73562e-11 -2.38069e-09 0)
(-3.61409e-10 -2.41159e-09 0)
(-3.59083e-10 -2.34155e-09 0)
(9.05689e-10 -2.5536e-09 0)
(6.2763e-10 -2.39254e-09 0)
(4.37295e-11 -2.25102e-09 0)
(-5.2964e-10 -2.40767e-09 0)
(-7.69497e-10 -2.582e-09 0)
)
;

boundaryField
{
    interface
    {
        type            calculated;
    }
    symmetry
    {
        type            symmetry;
    }
    bottom
    {
        type            calculated;
    }
}


// ************************************************************************* //
