/*--------------------------------*- C++ -*----------------------------------*\
| =========                 |                                                 |
| \\      /  F ield         | OpenFOAM: The Open Source CFD Toolbox           |
|  \\    /   O peration     | Version:  v1912                                 |
|   \\  /    A nd           | Website:  www.openfoam.com                      |
|    \\/     M anipulation  |                                                 |
\*---------------------------------------------------------------------------*/
FoamFile
{
    version     2.0;
    format      ascii;
    class       volScalarField;
    location    "0.21/solid";
    object      sigmaHyd;
}
// * * * * * * * * * * * * * * * * * * * * * * * * * * * * * * * * * * * * * //

dimensions      [1 -1 -2 0 0 0 0];


internalField   nonuniform List<scalar> 
256
(
-744093
-366519
-365084
-735305
-868549
-457503
-456216
-859106
-870054
-460639
-459274
-859952
-875900
-461706
-460230
-865284
-893727
-467710
-466166
-882815
-928224
-482702
-481162
-917382
-1.02841e+06
-554166
-552568
-1.01807e+06
-1.58565e+06
-1.08285e+06
-1.07854e+06
-1.56988e+06
-325084
-9115.14
-10908.5
-322715
-411748
-58801.8
-60766
-409129
-415186
-66574.2
-68521.4
-412138
-417562
-65069.8
-66978.7
-414145
-425900
-60550.4
-62433.4
-422182
-443977
-55746.4
-57628
-440144
-517057
-92379.7
-94115
-513349
-1.02852e+06
-554175
-552509
-1.01799e+06
-266994
11566.8
9778.56
-263834
-335528
-18707.5
-20738.9
-332584
-338433
-25870.2
-27910.5
-335205
-341519
-25516.8
-27538.6
-337991
-350649
-22099.9
-24107.9
-346834
-370000
-18569.6
-20576
-366015
-443848
-55410.4
-57245.4
-439823
-928285
-482491
-480811
-917001
-249488
7206.99
5570.98
-245701
-313486
-19303.2
-21215
-310217
-315834
-25578.4
-27530.7
-312416
-319325
-25721.8
-27677.2
-315687
-329353
-23447.6
-25402.5
-325470
-350218
-21631.7
-23589.8
-346162
-425221
-59553.5
-61333.6
-421048
-893157
-466731
-464951
-881439
-239471
4643.31
3129.28
-235270
-301553
-20942
-22754.9
-298068
-303675
-26811.7
-28689.2
-300135
-307417
-27184.8
-29083.9
-303724
-317996
-25596.5
-27507.1
-314104
-339716
-24805.9
-26726.3
-335666
-415192
-63259.6
-65001.7
-410994
-872884
-458741
-456905
-860978
-233642
3215.41
1789.82
-229152
-294565
-21918.5
-23658.8
-290915
-296598
-27626.8
-29447.3
-292949
-300512
-28137
-29992
-296755
-311428
-26941.3
-28817.4
-307507
-333616
-26722
-28613.6
-329557
-409260
-65431.3
-67147
-405043
-860542
-453924
-452055
-848528
-230491
2355.33
987.267
-225820
-290740
-22483.5
-24176
-286979
-292741
-28123
-29904.5
-289013
-296764
-28715.8
-30539.8
-292954
-307873
-27734.8
-29586.1
-303923
-330310
-27819.6
-29690.7
-326236
-406006
-66655.8
-68353.2
-401772
-853513
-451167
-449278
-841437
-229117
1931.34
591.583
-224360
-289061
-22755
-24423.7
-285245
-291056
-28367
-30128.7
-287286
-295131
-28998.9
-30806.7
-291292
-306328
-28113.4
-29951.6
-302361
-328874
-28331
-30191.2
-324790
-404582
-67221.3
-68909.1
-400338
-850331
-449914
-448015
-838226
)
;

boundaryField
{
    interface
    {
        type            zeroGradient;
    }
    symmetry
    {
        type            symmetry;
    }
    bottom
    {
        type            zeroGradient;
    }
}


// ************************************************************************* //
