/*--------------------------------*- C++ -*----------------------------------*\
| =========                 |                                                 |
| \\      /  F ield         | OpenFOAM: The Open Source CFD Toolbox           |
|  \\    /   O peration     | Version:  v1912                                 |
|   \\  /    A nd           | Website:  www.openfoam.com                      |
|    \\/     M anipulation  |                                                 |
\*---------------------------------------------------------------------------*/
FoamFile
{
    version     2.0;
    format      ascii;
    class       volScalarField;
    location    "0.21/solid";
    object      sigmaEq;
}
// * * * * * * * * * * * * * * * * * * * * * * * * * * * * * * * * * * * * * //

dimensions      [1 -1 -2 0 0 0 0];


internalField   nonuniform List<scalar> 
256
(
525308
441672
438080
512537
384812
385934
381755
372289
399798
389208
384944
387709
419723
400873
396655
408024
441428
419628
415454
429965
468372
447048
442906
457090
454864
460435
456518
444707
39556.2
497086
493472
35113.6
395840
85996.7
84384.9
381982
341819
74687.3
72817.4
328372
346431
64494.8
62844.1
333123
357278
59731.7
58235.6
343932
373578
60713.6
59295.5
360103
397049
58195.6
56885.1
383556
405717
19134.7
18743.6
393365
454756
460497
456693
444956
360855
59371.4
57775
347775
330101
69861.6
67806.6
316616
336432
67024
65071.4
322736
346244
63262.3
61372.3
332334
361179
62723.9
60843
347014
383616
59978
58161.1
369325
396999
57153.2
56201.2
383745
468214
447163
443236
457740
335006
53955
52539.2
323035
308810
68053.3
66247.3
296089
316458
67818.2
66023.3
303309
326050
64704.5
62928.6
312561
339970
63615.1
61837.4
326158
360960
60492.5
58790.5
346972
373520
57678.7
56856.5
360524
442012
420150
416317
431960
319678
50864.6
49614.1
308600
294664
64414.3
62856.3
282674
302734
64604.8
63016.1
290198
312198
61566.5
59967
299229
325522
59976.1
58359.2
312169
345614
56253.5
54701.7
332038
357348
51864.6
51245.5
344728
423392
402340
398599
413810
310299
48597.6
47476.1
299853
285810
61167.6
59794.4
274366
293908
61121.4
59701.1
281857
303224
57921
56473.8
290680
316193
55999.2
54515.8
303215
335776
51953.6
50512.2
322529
346955
46557.8
46108.2
334635
411551
391563
387890
402349
304768
47043
46010.1
294721
280581
58958.7
57709.1
269496
288614
58651.3
57347.2
276891
297806
55288.9
53949.5
285554
310569
53187.8
51796.2
297849
329879
49033.8
47662.8
316856
340726
43160.2
42827.3
328609
404466
385441
381813
395526
302181
46247.6
45260.3
292327
278141
57872
56685.3
267234
286126
57433.5
56189.3
274567
295250
53987.3
52704
283147
307920
51811.9
50467.5
295330
327109
47636
46300
314200
337801
41586.9
41313.3
325787
401131
382659
379053
392326
)
;

boundaryField
{
    interface
    {
        type            calculated;
        value           nonuniform List<scalar> 
192
(
740904
591421
610987
636952
667048
708345
721879
381301
688661
618385
628388
648115
677180
722698
768375
721824
622060
575208
586126
604345
631620
675350
722846
708383
575836
534106
546057
563841
589941
631875
677794
668093
549132
509101
521442
539039
564505
605366
650031
641678
533185
494076
506508
523965
549063
589293
633104
625276
523953
485383
497814
515168
540054
579926
623208
615572
519683
481365
493780
511080
535868
575577
618606
611029
780625
635522
654739
680251
710012
751540
768824
463372
774415
700855
710091
730767
762159
811378
861815
807165
767840
693461
702472
723134
754547
803780
854389
801214
762092
616724
635981
661701
691608
733170
750942
451831
724195
574668
594482
620678
650941
692569
708060
381509
666729
596409
606248
625683
654415
699799
746894
708268
600710
553029
563477
581228
608017
651434
700084
693233
555769
512831
524101
541292
566824
608364
655297
653082
530119
488685
500224
517137
541972
582383
627975
627037
514915
474298
485866
502579
526998
566732
611408
610966
506156
466025
477560
494137
518312
557654
601762
601503
502115
462213
473721
490229
514290
553452
597287
597085
463441
768782
751535
710966
684867
668817
659364
654942
807225
861930
811712
763292
733832
716310
706332
701772
801278
854585
804271
755931
726544
709081
699144
694604
451914
751169
733821
693722
668046
652336
643116
638814
)
;
    }
    symmetry
    {
        type            symmetry;
    }
    bottom
    {
        type            calculated;
        value           nonuniform List<scalar> 
32
(
662391
449974
401869
374777
358875
348968
343079
340319
495964
102150
64002.9
57386.2
54527.3
52485.8
51078.5
50355.6
492643
100293
62170.9
55814.1
53154.2
51254
49941.6
49267.3
649649
435621
388746
363131
348348
339208
333796
331265
)
;
    }
}


// ************************************************************************* //
