/*--------------------------------*- C++ -*----------------------------------*\
| =========                 |                                                 |
| \\      /  F ield         | OpenFOAM: The Open Source CFD Toolbox           |
|  \\    /   O peration     | Version:  v1912                                 |
|   \\  /    A nd           | Website:  www.openfoam.com                      |
|    \\/     M anipulation  |                                                 |
\*---------------------------------------------------------------------------*/
FoamFile
{
    version     2.0;
    format      ascii;
    class       volVectorField;
    location    "0.08/fluid";
    object      cellMotionU;
}
// * * * * * * * * * * * * * * * * * * * * * * * * * * * * * * * * * * * * * //

dimensions      [0 1 -1 0 0 0 0];


internalField   nonuniform List<vector> 
14592
(
(8.86431e-10 -4.07087e-09 3.34905e-09)
(2.34835e-09 -1.14298e-08 9.46755e-09)
(3.34045e-09 -1.82364e-08 1.53227e-08)
(3.96118e-09 -2.48595e-08 2.1403e-08)
(3.7387e-09 -3.14225e-08 2.76134e-08)
(2.86085e-09 -3.83048e-08 3.45517e-08)
(1.22068e-09 -4.48388e-08 4.18499e-08)
(-1.16828e-09 -5.07699e-08 4.94754e-08)
(-4.56286e-09 -5.60179e-08 5.73288e-08)
(-8.82456e-09 -6.02598e-08 6.54315e-08)
(-1.62499e-08 -6.37458e-08 7.35193e-08)
(-2.59495e-08 -6.50322e-08 8.27606e-08)
(-3.99348e-08 -6.18473e-08 9.34511e-08)
(-6.20291e-08 -4.79148e-08 1.08386e-07)
(-9.91267e-08 -3.39941e-09 1.3146e-07)
(-1.43312e-07 1.02223e-07 1.61928e-07)
(2.64761e-09 -1.22447e-08 1.00443e-08)
(6.98338e-09 -3.42818e-08 2.83117e-08)
(1.02007e-08 -5.48399e-08 4.60509e-08)
(1.17318e-08 -7.46677e-08 6.39005e-08)
(1.1408e-08 -9.49919e-08 8.31031e-08)
(8.96114e-09 -1.15056e-07 1.03471e-07)
(4.38576e-09 -1.34452e-07 1.2518e-07)
(-2.49917e-09 -1.52578e-07 1.47988e-07)
(-1.1667e-08 -1.68727e-07 1.71685e-07)
(-2.59749e-08 -1.83196e-07 1.95488e-07)
(-4.39978e-08 -1.94182e-07 2.20339e-07)
(-6.88731e-08 -2.00095e-07 2.45865e-07)
(-9.97743e-08 -1.9696e-07 2.74733e-07)
(-1.36443e-07 -1.7701e-07 3.0879e-07)
(-1.67098e-07 -1.24319e-07 3.48447e-07)
(-1.54736e-07 -3.87007e-08 3.87436e-07)
(4.46662e-09 -2.01919e-08 1.65937e-08)
(1.18671e-08 -5.65665e-08 4.68157e-08)
(1.74473e-08 -9.04362e-08 7.60566e-08)
(2.03509e-08 -1.23681e-07 1.05855e-07)
(2.0358e-08 -1.56496e-07 1.37037e-07)
(1.7159e-08 -1.89437e-07 1.70551e-07)
(1.06758e-08 -2.21663e-07 2.06374e-07)
(8.67513e-10 -2.52268e-07 2.44225e-07)
(-1.3483e-08 -2.80722e-07 2.83228e-07)
(-3.26675e-08 -3.06341e-07 3.23544e-07)
(-5.81485e-08 -3.27452e-07 3.63548e-07)
(-9.01408e-08 -3.42621e-07 4.05668e-07)
(-1.25663e-07 -3.48246e-07 4.51428e-07)
(-1.59812e-07 -3.38995e-07 5.01886e-07)
(-1.71194e-07 -3.0816e-07 5.58264e-07)
(-1.24417e-07 -2.64927e-07 6.16014e-07)
(6.40598e-09 -2.75775e-08 2.2824e-08)
(1.73314e-08 -7.7181e-08 6.44745e-08)
(2.53942e-08 -1.23832e-07 1.04671e-07)
(3.02991e-08 -1.6903e-07 1.45507e-07)
(3.14709e-08 -2.14149e-07 1.88507e-07)
(2.86974e-08 -2.59056e-07 2.34387e-07)
(2.18879e-08 -3.03542e-07 2.83594e-07)
(1.11609e-08 -3.46577e-07 3.35702e-07)
(-4.85156e-09 -3.877e-07 3.89874e-07)
(-2.57843e-08 -4.25396e-07 4.4471e-07)
(-5.24909e-08 -4.58818e-07 5.00247e-07)
(-8.40471e-08 -4.86701e-07 5.58287e-07)
(-1.16653e-07 -5.06135e-07 6.19661e-07)
(-1.45005e-07 -5.13295e-07 6.84109e-07)
(-1.49752e-07 -5.02712e-07 7.5015e-07)
(-1.04257e-07 -4.77555e-07 8.09021e-07)
(8.60157e-09 -3.40233e-08 2.8614e-08)
(2.31438e-08 -9.53772e-08 8.06919e-08)
(3.4445e-08 -1.53038e-07 1.31036e-07)
(4.19131e-08 -2.09104e-07 1.82101e-07)
(4.52029e-08 -2.64483e-07 2.35446e-07)
(4.42481e-08 -3.20118e-07 2.92641e-07)
(3.91651e-08 -3.75664e-07 3.54072e-07)
(2.97237e-08 -4.30392e-07 4.19135e-07)
(1.58621e-08 -4.83424e-07 4.86917e-07)
(-2.78995e-09 -5.33648e-07 5.55591e-07)
(-2.52676e-08 -5.80349e-07 6.25698e-07)
(-5.04099e-08 -6.22961e-07 6.99039e-07)
(-7.46281e-08 -6.59398e-07 7.76179e-07)
(-9.51284e-08 -6.85817e-07 8.55328e-07)
(-9.80118e-08 -6.94964e-07 9.31781e-07)
(-6.19614e-08 -6.81892e-07 9.90997e-07)
(1.09162e-08 -3.93001e-08 3.37871e-08)
(2.96417e-08 -1.102e-07 9.53011e-08)
(4.44693e-08 -1.76897e-07 1.54565e-07)
(5.51445e-08 -2.41504e-07 2.14424e-07)
(6.15796e-08 -3.05654e-07 2.7718e-07)
(6.37256e-08 -3.70088e-07 3.44145e-07)
(6.19435e-08 -4.34839e-07 4.15971e-07)
(5.62744e-08 -4.99284e-07 4.92065e-07)
(4.65401e-08 -5.62736e-07 5.71019e-07)
(3.48975e-08 -6.23821e-07 6.52115e-07)
(2.02611e-08 -6.8366e-07 7.35081e-07)
(6.40266e-09 -7.4142e-07 8.22757e-07)
(-3.60025e-09 -7.96457e-07 9.16348e-07)
(-9.00782e-09 -8.46249e-07 1.01488e-06)
(-2.74637e-09 -8.81538e-07 1.11131e-06)
(2.67878e-08 -8.83569e-07 1.18262e-06)
(1.34767e-08 -4.30601e-08 3.83023e-08)
(3.64625e-08 -1.20876e-07 1.07821e-07)
(5.53349e-08 -1.94002e-07 1.74756e-07)
(6.98198e-08 -2.64896e-07 2.4221e-07)
(7.99687e-08 -3.35153e-07 3.12437e-07)
(8.61148e-08 -4.05965e-07 3.87275e-07)
(8.87857e-08 -4.7743e-07 4.6729e-07)
(8.7873e-08 -5.49289e-07 5.51689e-07)
(8.57544e-08 -6.20006e-07 6.40044e-07)
(8.02962e-08 -6.91e-07 7.29824e-07)
(7.67815e-08 -7.61132e-07 8.2343e-07)
(7.70349e-08 -8.31964e-07 9.22858e-07)
(8.65446e-08 -9.04823e-07 1.03219e-06)
(1.07432e-07 -9.8183e-07 1.15398e-06)
(1.48153e-07 -1.06244e-06 1.28639e-06)
(2.07013e-07 -1.12838e-06 1.40158e-06)
(1.60067e-08 -4.5209e-08 4.20226e-08)
(4.36599e-08 -1.2687e-07 1.18342e-07)
(6.67358e-08 -2.03606e-07 1.91518e-07)
(8.52423e-08 -2.7797e-07 2.64903e-07)
(9.95693e-08 -3.51755e-07 3.41053e-07)
(1.10028e-07 -4.26271e-07 4.21586e-07)
(1.17299e-07 -5.01726e-07 5.07129e-07)
(1.22356e-07 -5.77561e-07 5.97274e-07)
(1.25394e-07 -6.53738e-07 6.90666e-07)
(1.28553e-07 -7.30128e-07 7.87085e-07)
(1.34822e-07 -8.06924e-07 8.86678e-07)
(1.47191e-07 -8.86152e-07 9.92419e-07)
(1.74197e-07 -9.69784e-07 1.11084e-06)
(2.23624e-07 -1.06347e-06 1.24933e-06)
(3.19575e-07 -1.17713e-06 1.41927e-06)
(4.72889e-07 -1.30325e-06 1.60769e-06)
(5.99035e-10 -4.21546e-09 3.21805e-09)
(1.51843e-09 -1.18671e-08 9.11062e-09)
(2.03939e-09 -1.90304e-08 1.4866e-08)
(1.88655e-09 -2.60353e-08 2.06392e-08)
(1.05965e-09 -3.30159e-08 2.67978e-08)
(-7.39883e-10 -4.01182e-08 3.33547e-08)
(-3.49285e-09 -4.69734e-08 4.03497e-08)
(-7.48828e-09 -5.34471e-08 4.76897e-08)
(-1.28323e-08 -5.92371e-08 5.53846e-08)
(-2.09478e-08 -6.46094e-08 6.3114e-08)
(-3.10091e-08 -6.85506e-08 7.14376e-08)
(-4.77856e-08 -7.19753e-08 8.0389e-08)
(-7.39913e-08 -7.33922e-08 9.18081e-08)
(-1.21703e-07 -7.06069e-08 1.07451e-07)
(-2.18909e-07 -5.84917e-08 1.31128e-07)
(-3.95673e-07 -3.74579e-08 1.64889e-07)
(1.79513e-09 -1.26832e-08 9.65406e-09)
(4.61402e-09 -3.55771e-08 2.73024e-08)
(6.1323e-09 -5.70529e-08 4.43565e-08)
(5.97936e-09 -7.79313e-08 6.17545e-08)
(3.53389e-09 -9.89739e-08 8.00087e-08)
(-1.44613e-09 -1.19961e-07 9.95069e-08)
(-9.35009e-09 -1.40515e-07 1.20286e-07)
(-2.04694e-08 -1.59954e-07 1.4229e-07)
(-3.64386e-08 -1.7816e-07 1.64939e-07)
(-5.64877e-08 -1.93716e-07 1.88621e-07)
(-8.59189e-08 -2.07591e-07 2.12208e-07)
(-1.26183e-07 -2.18133e-07 2.38293e-07)
(-1.84336e-07 -2.24434e-07 2.68392e-07)
(-2.6746e-07 -2.22193e-07 3.03309e-07)
(-3.83613e-07 -2.06963e-07 3.41878e-07)
(-5.16061e-07 -1.87739e-07 3.77995e-07)
(3.10874e-09 -2.08945e-08 1.59552e-08)
(8.06546e-09 -5.8547e-08 4.50574e-08)
(1.09367e-08 -9.39261e-08 7.31749e-08)
(1.1101e-08 -1.28434e-07 1.0179e-07)
(7.85027e-09 -1.628e-07 1.31764e-07)
(6.62638e-10 -1.97278e-07 1.63811e-07)
(-1.08608e-08 -2.31281e-07 1.9812e-07)
(-2.76772e-08 -2.64131e-07 2.34328e-07)
(-4.96983e-08 -2.9456e-07 2.72258e-07)
(-8.00133e-08 -3.22772e-07 3.10403e-07)
(-1.19054e-07 -3.47158e-07 3.49813e-07)
(-1.71502e-07 -3.68032e-07 3.92036e-07)
(-2.40274e-07 -3.8391e-07 4.38874e-07)
(-3.24613e-07 -3.91411e-07 4.90081e-07)
(-4.18253e-07 -3.90018e-07 5.43983e-07)
(-5.00879e-07 -3.89732e-07 5.94719e-07)
(4.65575e-09 -2.84849e-08 2.19554e-08)
(1.2096e-08 -7.98996e-08 6.18719e-08)
(1.69212e-08 -1.28198e-07 1.00551e-07)
(1.81258e-08 -1.75252e-07 1.39679e-07)
(1.51187e-08 -2.22145e-07 1.80763e-07)
(7.33127e-09 -2.69155e-07 2.24668e-07)
(-5.75319e-09 -3.15934e-07 2.7172e-07)
(-2.4578e-08 -3.61532e-07 3.21553e-07)
(-5.01161e-08 -4.05133e-07 3.73396e-07)
(-8.279e-08 -4.45517e-07 4.26123e-07)
(-1.24673e-07 -4.824e-07 4.80232e-07)
(-1.78486e-07 -5.15711e-07 5.37733e-07)
(-2.45283e-07 -5.44097e-07 5.99632e-07)
(-3.22219e-07 -5.6478e-07 6.64641e-07)
(-4.03376e-07 -5.77104e-07 7.28971e-07)
(-4.77782e-07 -5.85587e-07 7.84251e-07)
(6.43544e-09 -3.51572e-08 2.74623e-08)
(1.70088e-08 -9.85869e-08 7.74343e-08)
(2.42796e-08 -1.58276e-07 1.25624e-07)
(2.74763e-08 -2.16367e-07 1.74422e-07)
(2.60219e-08 -2.74072e-07 2.25533e-07)
(1.94711e-08 -3.32124e-07 2.80201e-07)
(7.40969e-09 -3.90295e-07 3.38747e-07)
(-1.0308e-08 -4.47616e-07 4.009e-07)
(-3.41547e-08 -5.03148e-07 4.65421e-07)
(-6.41698e-08 -5.55829e-07 5.31449e-07)
(-1.01865e-07 -6.05551e-07 5.99169e-07)
(-1.48656e-07 -6.52334e-07 6.70901e-07)
(-2.05499e-07 -6.95108e-07 7.4731e-07)
(-2.71853e-07 -7.30914e-07 8.26019e-07)
(-3.47821e-07 -7.57254e-07 9.00795e-07)
(-4.27384e-07 -7.72837e-07 9.5955e-07)
(8.52587e-09 -4.05623e-08 3.24127e-08)
(2.26925e-08 -1.13803e-07 9.12634e-08)
(3.31621e-08 -1.82709e-07 1.47954e-07)
(3.92486e-08 -2.49642e-07 2.05192e-07)
(4.06012e-08 -3.16211e-07 2.65105e-07)
(3.69478e-08 -3.83252e-07 3.29022e-07)
(2.81517e-08 -4.5072e-07 3.97368e-07)
(1.43885e-08 -5.17744e-07 4.69791e-07)
(-3.98544e-09 -5.83315e-07 5.45354e-07)
(-2.74419e-08 -6.47095e-07 6.2213e-07)
(-5.50274e-08 -7.08597e-07 7.02112e-07)
(-8.80501e-08 -7.6855e-07 7.86671e-07)
(-1.27173e-07 -8.26485e-07 8.77385e-07)
(-1.74911e-07 -8.8026e-07 9.72404e-07)
(-2.3971e-07 -9.24875e-07 1.06388e-06)
(-3.25955e-07 -9.47381e-07 1.13418e-06)
(1.08276e-08 -4.44533e-08 3.6645e-08)
(2.91921e-08 -1.24687e-07 1.03256e-07)
(4.34073e-08 -2.00193e-07 1.6715e-07)
(5.31558e-08 -2.735e-07 2.31542e-07)
(5.82429e-08 -3.46358e-07 2.98635e-07)
(5.86759e-08 -4.19847e-07 3.69935e-07)
(5.46003e-08 -4.94019e-07 4.45841e-07)
(4.68465e-08 -5.68e-07 5.26402e-07)
(3.51434e-08 -6.41451e-07 6.09358e-07)
(2.20434e-08 -7.13342e-07 6.96042e-07)
(7.0682e-09 -7.84399e-07 7.84631e-07)
(-7.90191e-09 -8.552e-07 8.79233e-07)
(-2.20713e-08 -9.26992e-07 9.82575e-07)
(-3.65016e-08 -1.00127e-06 1.09526e-06)
(-6.09631e-08 -1.07853e-06 1.2111e-06)
(-1.17312e-07 -1.1434e-06 1.30545e-06)
(1.33674e-08 -4.65922e-08 4.02326e-08)
(3.61851e-08 -1.30748e-07 1.13177e-07)
(5.46235e-08 -2.09885e-07 1.83055e-07)
(6.84803e-08 -2.86712e-07 2.53123e-07)
(7.78358e-08 -3.63104e-07 3.25695e-07)
(8.28831e-08 -4.40226e-07 4.02252e-07)
(8.41825e-08 -5.18147e-07 4.834e-07)
(8.24472e-08 -5.96306e-07 5.68683e-07)
(7.89658e-08 -6.74086e-07 6.57688e-07)
(7.5023e-08 -7.51303e-07 7.49033e-07)
(7.23713e-08 -8.2812e-07 8.42721e-07)
(7.47059e-08 -9.04958e-07 9.4277e-07)
(8.53089e-08 -9.83815e-07 1.05255e-06)
(1.10663e-07 -1.06773e-06 1.17634e-06)
(1.59459e-07 -1.15923e-06 1.31292e-06)
(2.28469e-07 -1.24083e-06 1.43716e-06)
(3.12319e-10 -4.35925e-09 2.96793e-09)
(6.9587e-10 -1.22864e-08 8.4082e-09)
(5.85906e-10 -1.97742e-08 1.36635e-08)
(-5.53518e-11 -2.69944e-08 1.90986e-08)
(-1.71e-09 -3.43712e-08 2.4674e-08)
(-4.36024e-09 -4.17414e-08 3.06832e-08)
(-8.32784e-09 -4.90451e-08 3.70587e-08)
(-1.3695e-08 -5.59275e-08 4.38587e-08)
(-2.10598e-08 -6.24077e-08 5.08992e-08)
(-3.05409e-08 -6.80512e-08 5.83958e-08)
(-4.51113e-08 -7.35886e-08 6.5419e-08)
(-6.62297e-08 -7.87405e-08 7.39561e-08)
(-1.01795e-07 -8.46512e-08 8.39337e-08)
(-1.67202e-07 -9.20585e-08 9.60444e-08)
(-2.99866e-07 -1.04285e-07 1.09612e-07)
(-5.28283e-07 -1.26985e-07 1.19089e-07)
(9.4671e-10 -1.30992e-08 8.89571e-09)
(2.12758e-09 -3.68043e-08 2.51131e-08)
(2.08491e-09 -5.90267e-08 4.08857e-08)
(4.75685e-11 -8.08471e-08 5.68125e-08)
(-4.40648e-09 -1.02631e-07 7.35639e-08)
(-1.19826e-08 -1.24625e-07 9.13701e-08)
(-2.30537e-08 -1.46267e-07 1.10427e-07)
(-3.83598e-08 -1.67093e-07 1.30564e-07)
(-5.83317e-08 -1.86339e-07 1.51911e-07)
(-8.62628e-08 -2.0441e-07 1.72651e-07)
(-1.23208e-07 -2.20569e-07 1.95009e-07)
(-1.77021e-07 -2.36287e-07 2.18675e-07)
(-2.56234e-07 -2.51972e-07 2.45367e-07)
(-3.73106e-07 -2.67139e-07 2.72559e-07)
(-5.38998e-07 -2.81971e-07 2.9331e-07)
(-7.15903e-07 -2.97788e-07 2.95042e-07)
(1.73095e-09 -2.1558e-08 1.46793e-08)
(4.07042e-09 -6.04749e-08 4.14026e-08)
(4.40206e-09 -9.71062e-08 6.73283e-08)
(1.7208e-09 -1.32845e-07 9.35229e-08)
(-4.78724e-09 -1.68621e-07 1.20973e-07)
(-1.58906e-08 -2.04576e-07 1.50277e-07)
(-3.23125e-08 -2.40266e-07 1.81626e-07)
(-5.46423e-08 -2.74762e-07 2.15032e-07)
(-8.47771e-08 -3.07638e-07 2.49272e-07)
(-1.23299e-07 -3.37961e-07 2.84899e-07)
(-1.7495e-07 -3.66242e-07 3.20661e-07)
(-2.45259e-07 -3.93365e-07 3.59273e-07)
(-3.39892e-07 -4.19531e-07 4.00987e-07)
(-4.61285e-07 -4.43959e-07 4.42141e-07)
(-6.01484e-07 -4.66827e-07 4.75562e-07)
(-7.16841e-07 -4.8859e-07 4.90097e-07)
(2.78023e-09 -2.93913e-08 2.01504e-08)
(6.90061e-09 -8.2414e-08 5.69104e-08)
(8.20004e-09 -1.32367e-07 9.22604e-08)
(5.7786e-09 -1.81088e-07 1.28141e-07)
(-1.36534e-09 -2.29683e-07 1.65704e-07)
(-1.40773e-08 -2.78604e-07 2.05813e-07)
(-3.30694e-08 -3.27404e-07 2.48765e-07)
(-5.90547e-08 -3.75147e-07 2.94347e-07)
(-9.30116e-08 -4.20951e-07 3.41703e-07)
(-1.36285e-07 -4.64086e-07 3.89941e-07)
(-1.92175e-07 -5.04782e-07 4.39378e-07)
(-2.65284e-07 -5.43847e-07 4.91809e-07)
(-3.58578e-07 -5.81155e-07 5.47063e-07)
(-4.71089e-07 -6.15779e-07 6.00661e-07)
(-5.93495e-07 -6.47323e-07 6.44991e-07)
(-6.9358e-07 -6.73965e-07 6.67492e-07)
(4.22366e-09 -3.62367e-08 2.52244e-08)
(1.07007e-08 -1.01644e-07 7.10386e-08)
(1.39372e-08 -1.63266e-07 1.15186e-07)
(1.28835e-08 -2.23258e-07 1.59806e-07)
(6.69061e-09 -2.83036e-07 2.06522e-07)
(-5.40749e-09 -3.43248e-07 2.56376e-07)
(-2.38871e-08 -4.03575e-07 3.09802e-07)
(-4.93281e-08 -4.6311e-07 3.66303e-07)
(-8.2066e-08 -5.20786e-07 4.25171e-07)
(-1.231e-07 -5.75996e-07 4.85133e-07)
(-1.74522e-07 -6.2866e-07 5.4698e-07)
(-2.4e-07 -6.79599e-07 6.11953e-07)
(-3.21975e-07 -7.28429e-07 6.79736e-07)
(-4.21544e-07 -7.73843e-07 7.45253e-07)
(-5.35528e-07 -8.14051e-07 7.99937e-07)
(-6.3849e-07 -8.44608e-07 8.28986e-07)
(6.01568e-09 -4.17881e-08 2.97125e-08)
(1.57051e-08 -1.17216e-07 8.37137e-08)
(2.16893e-08 -1.8826e-07 1.35532e-07)
(2.31732e-08 -2.57356e-07 1.8785e-07)
(1.94677e-08 -3.26124e-07 2.42533e-07)
(1.00367e-08 -3.95448e-07 3.0073e-07)
(-5.32173e-09 -4.65099e-07 3.62922e-07)
(-2.66897e-08 -5.34182e-07 4.28651e-07)
(-5.41614e-08 -6.01853e-07 4.9675e-07)
(-8.69366e-08 -6.6708e-07 5.67567e-07)
(-1.27457e-07 -7.30408e-07 6.39396e-07)
(-1.77157e-07 -7.92137e-07 7.15189e-07)
(-2.38835e-07 -8.52286e-07 7.94577e-07)
(-3.17114e-07 -9.09655e-07 8.7251e-07)
(-4.18247e-07 -9.60023e-07 9.3976e-07)
(-5.28217e-07 -9.90241e-07 9.78339e-07)
(8.22843e-09 -4.57283e-08 3.36583e-08)
(2.17047e-08 -1.28366e-07 9.45597e-08)
(3.13205e-08 -2.06101e-07 1.5305e-07)
(3.63067e-08 -2.81672e-07 2.11871e-07)
(3.62848e-08 -3.56829e-07 2.7304e-07)
(3.09834e-08 -4.32595e-07 3.37825e-07)
(2.06155e-08 -5.08822e-07 4.06779e-07)
(5.28396e-09 -5.84822e-07 4.79088e-07)
(-1.33266e-08 -6.59375e-07 5.55639e-07)
(-3.6089e-08 -7.32523e-07 6.32442e-07)
(-6.12248e-08 -8.03641e-07 7.12743e-07)
(-8.97969e-08 -8.73599e-07 7.96663e-07)
(-1.2275e-07 -9.43261e-07 8.85418e-07)
(-1.63858e-07 -1.01376e-06 9.74805e-07)
(-2.21915e-07 -1.08486e-06 1.05595e-06)
(-3.02814e-07 -1.14345e-06 1.10553e-06)
(1.06414e-08 -4.79256e-08 3.6855e-08)
(2.8577e-08 -1.34455e-07 1.03652e-07)
(4.23201e-08 -2.15909e-07 1.67555e-07)
(5.14542e-08 -2.95015e-07 2.31501e-07)
(5.57977e-08 -3.73696e-07 2.97582e-07)
(5.54076e-08 -4.52998e-07 3.67025e-07)
(5.07462e-08 -5.32877e-07 4.40368e-07)
(4.27419e-08 -6.12571e-07 5.17612e-07)
(3.23205e-08 -6.91411e-07 5.97588e-07)
(2.10399e-08 -7.68817e-07 6.79813e-07)
(1.09754e-08 -8.44226e-07 7.64674e-07)
(2.69784e-09 -9.18173e-07 8.51941e-07)
(-8.40238e-10 -9.91164e-07 9.44902e-07)
(3.7382e-09 -1.06448e-06 1.0404e-06)
(2.55063e-08 -1.13703e-06 1.13139e-06)
(7.18199e-08 -1.19319e-06 1.18933e-06)
(2.45362e-11 -4.50304e-09 2.58984e-09)
(-1.14635e-10 -1.26697e-08 7.3369e-09)
(-6.50197e-10 -2.03072e-08 1.19832e-08)
(-1.97355e-09 -2.78656e-08 1.65996e-08)
(-4.14052e-09 -3.53732e-08 2.15358e-08)
(-7.62902e-09 -4.31345e-08 2.67161e-08)
(-1.25274e-08 -5.07844e-08 3.22917e-08)
(-1.91567e-08 -5.81473e-08 3.8139e-08)
(-2.79252e-08 -6.51351e-08 4.43412e-08)
(-3.99489e-08 -7.17271e-08 5.02281e-08)
(-5.61374e-08 -7.79593e-08 5.70662e-08)
(-8.12949e-08 -8.49666e-08 6.37723e-08)
(-1.22368e-07 -9.39557e-08 7.21711e-08)
(-1.96255e-07 -1.06931e-07 8.20045e-08)
(-3.41574e-07 -1.28727e-07 9.37905e-08)
(-5.82359e-07 -1.62592e-07 1.06319e-07)
(1.13178e-10 -1.34831e-08 7.75837e-09)
(-1.60974e-10 -3.78261e-08 2.19499e-08)
(-1.77937e-09 -6.07908e-08 3.56344e-08)
(-5.31424e-09 -8.31385e-08 4.95588e-08)
(-1.16913e-08 -1.05784e-07 6.40337e-08)
(-2.14831e-08 -1.28619e-07 7.94799e-08)
(-3.53457e-08 -1.51313e-07 9.59464e-08)
(-5.3985e-08 -1.73341e-07 1.13489e-07)
(-7.8854e-08 -1.94305e-07 1.31297e-07)
(-1.10827e-07 -2.13901e-07 1.50608e-07)
(-1.55077e-07 -2.3285e-07 1.68629e-07)
(-2.17901e-07 -2.52679e-07 1.89063e-07)
(-3.09655e-07 -2.75076e-07 2.11206e-07)
(-4.42232e-07 -3.00146e-07 2.33091e-07)
(-6.23313e-07 -3.27133e-07 2.50053e-07)
(-8.02144e-07 -3.49649e-07 2.56437e-07)
(4.09741e-10 -2.21537e-08 1.28065e-08)
(3.82364e-10 -6.21593e-08 3.61676e-08)
(-1.76151e-09 -9.98487e-08 5.86173e-08)
(-6.96644e-09 -1.36685e-07 8.13996e-08)
(-1.63679e-08 -1.73593e-07 1.05176e-07)
(-3.09388e-08 -2.10909e-07 1.30523e-07)
(-5.15446e-08 -2.48101e-07 1.57636e-07)
(-7.93216e-08 -2.84429e-07 1.86199e-07)
(-1.15056e-07 -3.19211e-07 2.16671e-07)
(-1.61583e-07 -3.5221e-07 2.46563e-07)
(-2.22419e-07 -3.83892e-07 2.77643e-07)
(-3.04773e-07 -4.1606e-07 3.10539e-07)
(-4.14701e-07 -4.49812e-07 3.45151e-07)
(-5.52574e-07 -4.84241e-07 3.78538e-07)
(-7.04331e-07 -5.17689e-07 4.05624e-07)
(-8.14271e-07 -5.44223e-07 4.22148e-07)
(1.06915e-09 -3.01691e-08 1.76129e-08)
(1.90175e-09 -8.46924e-08 4.95163e-08)
(1.27295e-10 -1.36023e-07 8.03598e-08)
(-5.6605e-09 -1.86162e-07 1.11386e-07)
(-1.65364e-08 -2.36296e-07 1.43889e-07)
(-3.36048e-08 -2.86829e-07 1.78527e-07)
(-5.78263e-08 -3.3741e-07 2.15554e-07)
(-9.00962e-08 -3.87186e-07 2.54772e-07)
(-1.31388e-07 -4.35138e-07 2.95711e-07)
(-1.83347e-07 -4.80978e-07 3.37458e-07)
(-2.49671e-07 -5.25005e-07 3.80005e-07)
(-3.3575e-07 -5.68772e-07 4.2455e-07)
(-4.44441e-07 -6.1272e-07 4.70389e-07)
(-5.71799e-07 -6.55529e-07 5.14288e-07)
(-7.01839e-07 -6.95648e-07 5.50793e-07)
(-7.92253e-07 -7.26823e-07 5.74573e-07)
(2.13913e-09 -3.71884e-08 2.19821e-08)
(4.82893e-09 -1.04345e-07 6.18811e-08)
(4.30358e-09 -1.67669e-07 1.00159e-07)
(-6.54399e-10 -2.29372e-07 1.38784e-07)
(-1.11319e-08 -2.90858e-07 1.79168e-07)
(-2.81264e-08 -3.5289e-07 2.22193e-07)
(-5.24867e-08 -4.15165e-07 2.68021e-07)
(-8.46775e-08 -4.76628e-07 3.1665e-07)
(-1.25176e-07 -5.36414e-07 3.67274e-07)
(-1.74883e-07 -5.93729e-07 4.19364e-07)
(-2.36759e-07 -6.49031e-07 4.72249e-07)
(-3.14724e-07 -7.03305e-07 5.27151e-07)
(-4.1099e-07 -7.56522e-07 5.83052e-07)
(-5.23493e-07 -8.07045e-07 6.36559e-07)
(-6.42857e-07 -8.52625e-07 6.81616e-07)
(-7.34654e-07 -8.85644e-07 7.11267e-07)
(3.72253e-09 -4.28457e-08 2.59185e-08)
(9.10887e-09 -1.20285e-07 7.27988e-08)
(1.10092e-08 -1.93213e-07 1.17785e-07)
(8.24286e-09 -2.64184e-07 1.63065e-07)
(-5.01083e-11 -3.34837e-07 2.10283e-07)
(-1.46488e-08 -4.06015e-07 2.60393e-07)
(-3.605e-08 -4.77551e-07 3.13619e-07)
(-6.42054e-08 -5.48453e-07 3.69926e-07)
(-9.878e-08 -6.1758e-07 4.29121e-07)
(-1.40528e-07 -6.84571e-07 4.88711e-07)
(-1.90053e-07 -7.49086e-07 5.50835e-07)
(-2.50838e-07 -8.12121e-07 6.14392e-07)
(-3.25043e-07 -8.73575e-07 6.78998e-07)
(-4.14613e-07 -9.31928e-07 7.4144e-07)
(-5.20181e-07 -9.82813e-07 7.94974e-07)
(-6.19162e-07 -1.01109e-06 8.30425e-07)
(5.71067e-09 -4.69067e-08 2.92422e-08)
(1.4784e-08 -1.31593e-07 8.23088e-08)
(2.00309e-08 -2.11395e-07 1.32975e-07)
(2.06254e-08 -2.88938e-07 1.83859e-07)
(1.59114e-08 -3.66e-07 2.36616e-07)
(5.46745e-09 -4.43592e-07 2.92272e-07)
(-1.0796e-08 -5.21585e-07 3.51059e-07)
(-3.21466e-08 -5.98945e-07 4.13569e-07)
(-5.84517e-08 -6.74965e-07 4.77316e-07)
(-8.76894e-08 -7.4843e-07 5.45011e-07)
(-1.20866e-07 -8.19532e-07 6.12736e-07)
(-1.58582e-07 -8.88614e-07 6.8249e-07)
(-2.01897e-07 -9.56316e-07 7.53538e-07)
(-2.52457e-07 -1.02338e-06 8.23232e-07)
(-3.14235e-07 -1.08973e-06 8.84111e-07)
(-3.84905e-07 -1.14293e-06 9.24351e-07)
(8.1126e-09 -4.90914e-08 3.20875e-08)
(2.14405e-08 -1.37796e-07 9.01192e-08)
(3.07881e-08 -2.21313e-07 1.45517e-07)
(3.55104e-08 -3.02419e-07 2.00809e-07)
(3.52643e-08 -3.82972e-07 2.57712e-07)
(2.9925e-08 -4.64011e-07 3.1723e-07)
(1.98985e-08 -5.45417e-07 3.79855e-07)
(6.02319e-09 -6.26357e-07 4.45404e-07)
(-1.02748e-08 -7.05803e-07 5.14e-07)
(-2.72983e-08 -7.82902e-07 5.84453e-07)
(-4.42044e-08 -8.57238e-07 6.55216e-07)
(-5.89864e-08 -9.28357e-07 7.28533e-07)
(-7.05253e-08 -9.96787e-07 8.021e-07)
(-7.33634e-08 -1.06313e-06 8.74789e-07)
(-5.40605e-08 -1.1269e-06 9.3906e-07)
(2.95426e-09 -1.1764e-06 9.82092e-07)
(-2.2268e-10 -4.61608e-09 2.11534e-09)
(-8.09223e-10 -1.29662e-08 5.9777e-09)
(-1.86162e-09 -2.08255e-08 9.66408e-09)
(-3.52298e-09 -2.8381e-08 1.34939e-08)
(-6.36354e-09 -3.62888e-08 1.73516e-08)
(-1.04587e-08 -4.42358e-08 2.1536e-08)
(-1.61478e-08 -5.22084e-08 2.59662e-08)
(-2.37272e-08 -6.00619e-08 3.07497e-08)
(-3.35055e-08 -6.74271e-08 3.57306e-08)
(-4.62916e-08 -7.45821e-08 4.13096e-08)
(-6.41047e-08 -8.15489e-08 4.57641e-08)
(-9.07293e-08 -8.95501e-08 5.17835e-08)
(-1.3399e-07 -1.00026e-07 5.84343e-08)
(-2.11058e-07 -1.15229e-07 6.633e-08)
(-3.61292e-07 -1.39976e-07 7.63571e-08)
(-6.06965e-07 -1.75691e-07 8.85154e-08)
(-6.10594e-10 -1.37984e-08 6.32445e-09)
(-2.2643e-09 -3.87428e-08 1.78092e-08)
(-5.14088e-09 -6.21149e-08 2.89206e-08)
(-1.01705e-08 -8.51433e-08 4.00136e-08)
(-1.80631e-08 -1.08257e-07 5.16644e-08)
(-2.9832e-08 -1.32095e-07 6.40471e-08)
(-4.59784e-08 -1.55841e-07 7.73229e-08)
(-6.72182e-08 -1.78901e-07 9.14743e-08)
(-9.45314e-08 -2.01205e-07 1.07052e-07)
(-1.30211e-07 -2.22419e-07 1.21244e-07)
(-1.77501e-07 -2.43066e-07 1.36929e-07)
(-2.44179e-07 -2.65089e-07 1.53065e-07)
(-3.40699e-07 -2.90837e-07 1.70712e-07)
(-4.78603e-07 -3.20067e-07 1.87907e-07)
(-6.63846e-07 -3.50606e-07 2.02019e-07)
(-8.40234e-07 -3.72441e-07 2.09483e-07)
(-7.62648e-10 -2.26645e-08 1.04208e-08)
(-3.00028e-09 -6.3613e-08 2.93058e-08)
(-7.20917e-09 -1.02154e-07 4.75257e-08)
(-1.4676e-08 -1.39818e-07 6.57384e-08)
(-2.66174e-08 -1.77898e-07 8.48242e-08)
(-4.40503e-08 -2.16282e-07 1.05143e-07)
(-6.80103e-08 -2.54737e-07 1.26919e-07)
(-9.93536e-08 -2.92607e-07 1.50513e-07)
(-1.39545e-07 -3.29106e-07 1.7462e-07)
(-1.9024e-07 -3.64177e-07 1.9991e-07)
(-2.55915e-07 -3.98221e-07 2.24773e-07)
(-3.43566e-07 -4.33404e-07 2.51163e-07)
(-4.59005e-07 -4.71103e-07 2.78655e-07)
(-6.01706e-07 -5.10055e-07 3.04531e-07)
(-7.54638e-07 -5.46846e-07 3.26252e-07)
(-8.57299e-07 -5.72851e-07 3.41125e-07)
(-5.23774e-10 -3.08689e-08 1.42695e-08)
(-2.47624e-09 -8.65835e-08 4.02459e-08)
(-7.15699e-09 -1.39185e-07 6.49453e-08)
(-1.58526e-08 -1.90587e-07 8.99214e-08)
(-2.99019e-08 -2.41879e-07 1.15968e-07)
(-5.06267e-08 -2.93903e-07 1.43737e-07)
(-7.89689e-08 -3.4606e-07 1.73463e-07)
(-1.15739e-07 -3.97347e-07 2.05236e-07)
(-1.61847e-07 -4.47174e-07 2.38657e-07)
(-2.18833e-07 -4.94855e-07 2.72788e-07)
(-2.90574e-07 -5.41213e-07 3.07274e-07)
(-3.82259e-07 -5.87933e-07 3.42963e-07)
(-4.96115e-07 -6.35463e-07 3.79182e-07)
(-6.26969e-07 -6.82127e-07 4.129e-07)
(-7.55702e-07 -7.2503e-07 4.41706e-07)
(-8.36637e-07 -7.56148e-07 4.61759e-07)
(2.73769e-10 -3.80006e-08 1.78464e-08)
(-4.78113e-10 -1.06714e-07 5.01168e-08)
(-4.31192e-09 -1.71478e-07 8.09642e-08)
(-1.26769e-08 -2.34595e-07 1.11985e-07)
(-2.68508e-08 -2.97652e-07 1.44364e-07)
(-4.79558e-08 -3.61108e-07 1.78745e-07)
(-7.68325e-08 -4.24823e-07 2.15547e-07)
(-1.13896e-07 -4.8788e-07 2.54614e-07)
(-1.5949e-07 -5.49097e-07 2.95809e-07)
(-2.145e-07 -6.08136e-07 3.38088e-07)
(-2.81546e-07 -6.65252e-07 3.81216e-07)
(-3.64725e-07 -7.21664e-07 4.25049e-07)
(-4.65385e-07 -7.77263e-07 4.68895e-07)
(-5.80126e-07 -8.30213e-07 5.09528e-07)
(-6.96732e-07 -8.77207e-07 5.44465e-07)
(-7.78326e-07 -9.09557e-07 5.68484e-07)
(1.60492e-09 -4.37977e-08 2.09891e-08)
(3.24564e-09 -1.22917e-07 5.90049e-08)
(1.45194e-09 -1.97543e-07 9.51998e-08)
(-5.03184e-09 -2.70161e-07 1.3158e-07)
(-1.72937e-08 -3.42305e-07 1.69377e-07)
(-3.62422e-08 -4.15039e-07 2.0936e-07)
(-6.22841e-08 -4.88038e-07 2.51955e-07)
(-9.53958e-08 -5.60222e-07 2.97077e-07)
(-1.35248e-07 -6.30667e-07 3.44082e-07)
(-1.81367e-07 -6.98392e-07 3.94173e-07)
(-2.35856e-07 -7.63914e-07 4.43677e-07)
(-3.01012e-07 -8.27819e-07 4.94194e-07)
(-3.78643e-07 -8.89997e-07 5.44394e-07)
(-4.6949e-07 -9.48847e-07 5.90952e-07)
(-5.71683e-07 -9.99356e-07 6.31216e-07)
(-6.6062e-07 -1.02601e-06 6.58447e-07)
(3.51407e-09 -4.78804e-08 2.37735e-08)
(8.50198e-09 -1.34467e-07 6.65737e-08)
(9.91989e-09 -2.16029e-07 1.07481e-07)
(6.63065e-09 -2.95244e-07 1.48328e-07)
(-2.12245e-09 -3.73911e-07 1.90525e-07)
(-1.69484e-08 -4.52937e-07 2.34802e-07)
(-3.77849e-08 -5.32197e-07 2.81755e-07)
(-6.41219e-08 -6.10752e-07 3.30762e-07)
(-9.45637e-08 -6.87283e-07 3.83851e-07)
(-1.2855e-07 -7.61193e-07 4.36767e-07)
(-1.65514e-07 -8.32206e-07 4.92115e-07)
(-2.06575e-07 -9.00773e-07 5.47506e-07)
(-2.52302e-07 -9.67475e-07 6.02248e-07)
(-3.0336e-07 -1.03326e-06 6.53087e-07)
(-3.61231e-07 -1.09806e-06 6.97612e-07)
(-4.22312e-07 -1.15078e-06 7.27505e-07)
(5.80443e-09 -5.01311e-08 2.59775e-08)
(1.4988e-08 -1.40744e-07 7.29148e-08)
(2.04135e-08 -2.26064e-07 1.1755e-07)
(2.12578e-08 -3.0887e-07 1.61955e-07)
(1.69629e-08 -3.90969e-07 2.07349e-07)
(7.46284e-09 -4.73343e-07 2.54641e-07)
(-6.89617e-09 -5.55913e-07 3.04251e-07)
(-2.50872e-08 -6.37659e-07 3.56532e-07)
(-4.54835e-08 -7.17368e-07 4.10883e-07)
(-6.65581e-08 -7.943e-07 4.67237e-07)
(-8.59783e-08 -8.67463e-07 5.25874e-07)
(-1.03527e-07 -9.37057e-07 5.82901e-07)
(-1.16546e-07 -1.00314e-06 6.39433e-07)
(-1.19197e-07 -1.0668e-06 6.91816e-07)
(-9.4894e-08 -1.12828e-06 7.38298e-07)
(-2.63132e-08 -1.17849e-06 7.69749e-07)
(-4.32804e-10 -4.70789e-09 1.54693e-09)
(-1.39171e-09 -1.32035e-08 4.36585e-09)
(-2.71215e-09 -2.10486e-08 7.11009e-09)
(-4.84869e-09 -2.88895e-08 9.71862e-09)
(-7.86087e-09 -3.64949e-08 1.25586e-08)
(-1.26199e-08 -4.50974e-08 1.55644e-08)
(-1.89261e-08 -5.3493e-08 1.87983e-08)
(-2.70773e-08 -6.16112e-08 2.22509e-08)
(-3.7548e-08 -6.95948e-08 2.60461e-08)
(-5.10014e-08 -7.72157e-08 2.9357e-08)
(-6.94132e-08 -8.49534e-08 3.35532e-08)
(-9.57813e-08 -9.29277e-08 3.75e-08)
(-1.39031e-07 -1.03975e-07 4.24301e-08)
(-2.16562e-07 -1.19724e-07 4.82644e-08)
(-3.6846e-07 -1.44901e-07 5.59272e-08)
(-6.18132e-07 -1.80316e-07 6.49863e-08)
(-1.21854e-09 -1.40578e-08 4.63055e-09)
(-3.90773e-09 -3.93508e-08 1.30701e-08)
(-7.86543e-09 -6.31689e-08 2.10345e-08)
(-1.3775e-08 -8.60937e-08 2.90384e-08)
(-2.32282e-08 -1.10539e-07 3.74065e-08)
(-3.62723e-08 -1.34694e-07 4.63032e-08)
(-5.401e-08 -1.59191e-07 5.58697e-08)
(-7.70093e-08 -1.83352e-07 6.62844e-08)
(-1.06238e-07 -2.06751e-07 7.68174e-08)
(-1.43368e-07 -2.29543e-07 8.83881e-08)
(-1.91273e-07 -2.50937e-07 9.91939e-08)
(-2.58302e-07 -2.7422e-07 1.11366e-07)
(-3.54284e-07 -3.01075e-07 1.24241e-07)
(-4.92201e-07 -3.3142e-07 1.36861e-07)
(-6.77593e-07 -3.61984e-07 1.4749e-07)
(-8.56131e-07 -3.821e-07 1.52788e-07)
(-1.72628e-09 -2.30588e-08 7.63713e-09)
(-5.6518e-09 -6.46829e-08 2.14938e-08)
(-1.15522e-08 -1.03754e-07 3.45124e-08)
(-2.08683e-08 -1.42504e-07 4.76822e-08)
(-3.45345e-08 -1.80805e-07 6.1337e-08)
(-5.42875e-08 -2.20595e-07 7.59654e-08)
(-8.06652e-08 -2.60267e-07 9.1665e-08)
(-1.1464e-07 -2.99316e-07 1.0834e-07)
(-1.57296e-07 -3.37653e-07 1.26512e-07)
(-2.09998e-07 -3.73992e-07 1.44729e-07)
(-2.76849e-07 -4.09382e-07 1.63459e-07)
(-3.64462e-07 -4.4593e-07 1.83e-07)
(-4.78791e-07 -4.85259e-07 2.02792e-07)
(-6.20505e-07 -5.25492e-07 2.21632e-07)
(-7.71665e-07 -5.62335e-07 2.37461e-07)
(-8.74505e-07 -5.86756e-07 2.47613e-07)
(-1.76566e-09 -3.13771e-08 1.04999e-08)
(-6.07697e-09 -8.8114e-08 2.92998e-08)
(-1.29398e-08 -1.41652e-07 4.72551e-08)
(-2.38833e-08 -1.93757e-07 6.51403e-08)
(-4.05816e-08 -2.46708e-07 8.38916e-08)
(-6.39322e-08 -2.99516e-07 1.03775e-07)
(-9.52268e-08 -3.52752e-07 1.2505e-07)
(-1.35009e-07 -4.05389e-07 1.47855e-07)
(-1.83763e-07 -4.56212e-07 1.72299e-07)
(-2.43047e-07 -5.05581e-07 1.97797e-07)
(-3.16008e-07 -5.53426e-07 2.23688e-07)
(-4.07555e-07 -6.01716e-07 2.49855e-07)
(-5.19837e-07 -6.50902e-07 2.75709e-07)
(-6.48711e-07 -6.9886e-07 3.00082e-07)
(-7.74361e-07 -7.41893e-07 3.20635e-07)
(-8.54654e-07 -7.71774e-07 3.34014e-07)
(-1.24e-09 -3.86558e-08 1.30593e-08)
(-4.70071e-09 -1.08507e-07 3.65636e-08)
(-1.12056e-08 -1.74495e-07 5.88209e-08)
(-2.23267e-08 -2.39074e-07 8.11561e-08)
(-3.92849e-08 -3.02874e-07 1.04363e-07)
(-6.34919e-08 -3.67698e-07 1.29016e-07)
(-9.56103e-08 -4.32605e-07 1.55172e-07)
(-1.35942e-07 -4.96677e-07 1.83217e-07)
(-1.84322e-07 -5.59124e-07 2.13481e-07)
(-2.41388e-07 -6.18908e-07 2.45447e-07)
(-3.09654e-07 -6.77187e-07 2.77429e-07)
(-3.92499e-07 -7.34916e-07 3.09344e-07)
(-4.91066e-07 -7.91915e-07 3.40406e-07)
(-6.03121e-07 -8.45832e-07 3.69532e-07)
(-7.15882e-07 -8.92863e-07 3.94018e-07)
(-7.96521e-07 -9.24079e-07 4.09723e-07)
(-6.26147e-11 -4.45238e-08 1.53852e-08)
(-1.51814e-09 -1.25095e-07 4.29325e-08)
(-6.22183e-09 -2.01081e-07 6.91604e-08)
(-1.56764e-08 -2.74897e-07 9.53355e-08)
(-3.101e-08 -3.48576e-07 1.22475e-07)
(-5.31788e-08 -4.2225e-07 1.51022e-07)
(-8.2656e-08 -4.96228e-07 1.8121e-07)
(-1.18986e-07 -5.69325e-07 2.13414e-07)
(-1.61574e-07 -6.40224e-07 2.48748e-07)
(-2.09922e-07 -7.08657e-07 2.84603e-07)
(-2.65139e-07 -7.74749e-07 3.22332e-07)
(-3.29676e-07 -8.3943e-07 3.59039e-07)
(-4.0489e-07 -9.0245e-07 3.94397e-07)
(-4.92619e-07 -9.61892e-07 4.27463e-07)
(-5.90435e-07 -1.01242e-06 4.55208e-07)
(-6.78345e-07 -1.03832e-06 4.72622e-07)
(1.68902e-09 -4.87097e-08 1.72856e-08)
(3.45512e-09 -1.36775e-07 4.85042e-08)
(1.75467e-09 -2.19825e-07 7.80499e-08)
(-4.58916e-09 -3.00524e-07 1.07484e-07)