/*--------------------------------*- C++ -*----------------------------------*\
| =========                 |                                                 |
| \\      /  F ield         | OpenFOAM: The Open Source CFD Toolbox           |
|  \\    /   O peration     | Version:  v1912                                 |
|   \\  /    A nd           | Website:  www.openfoam.com                      |
|    \\/     M anipulation  |                                                 |
\*---------------------------------------------------------------------------*/
FoamFile
{
    version     2.0;
    format      ascii;
    class       volScalarField;
    location    "0.08/fluid";
    object      p;
}
// * * * * * * * * * * * * * * * * * * * * * * * * * * * * * * * * * * * * * //

dimensions      [0 2 -2 0 0 0 0];


internalField   nonuniform List<scalar> 
14592
(
0.0981298
0.0930511
0.0907658
0.0889729
0.087387
0.0860306
0.0847642
0.0835919
0.0825142
0.0815491
0.0807029
0.0802781
0.0794734
0.0809955
0.0801201
0.0857176
0.0937996
0.0922087
0.0903254
0.0888548
0.0873556
0.0860444
0.0848031
0.0836506
0.0825937
0.0816544
0.0808381
0.080476
0.0797119
0.0814329
0.0806375
0.0869795
0.0919158
0.0911469
0.0896127
0.0884331
0.0870743
0.0858465
0.0846485
0.0835155
0.0824642
0.0815241
0.0807044
0.080357
0.0796009
0.0814181
0.0806839
0.0872679
0.0904986
0.090193
0.0889952
0.0880471
0.0868184
0.0856685
0.0845142
0.0834033
0.0823607
0.0814214
0.080598
0.0802581
0.0795053
0.0813992
0.0807322
0.0875282
0.0895876
0.0894336
0.0884282
0.087628
0.0864969
0.0854055
0.0842781
0.0831696
0.0821103
0.0811392
0.08027
0.0798786
0.0790533
0.0808958
0.08013
0.0870231
0.0889373
0.0888577
0.0879776
0.0872737
0.0862082
0.0851537
0.0840376
0.0829182
0.0818286
0.0808109
0.0798843
0.079442
0.0786075
0.0805602
0.080036
0.0875795
0.0884961
0.0884495
0.0876342
0.0869822
0.085949
0.0849061
0.08378
0.082628
0.0814797
0.0803687
0.0792951
0.0786026
0.0773776
0.078644
0.0770822
0.0840117
0.0882294
0.0881986
0.0874061
0.0867715
0.085741
0.0846866
0.0835323
0.0823344
0.0811226
0.079933
0.0787855
0.0780296
0.076919
0.0785228
0.0777592
0.0874392
0.0979388
0.0928606
0.090622
0.0888794
0.0873635
0.0860881
0.0849166
0.0838547
0.082903
0.0820732
0.0813462
0.0809608
0.0800294
0.0808359
0.079029
0.0813954
0.0936098
0.0920181
0.0901829
0.0887631
0.0873348
0.0861056
0.0849605
0.08392
0.0829907
0.0821877
0.0814888
0.081157
0.0802399
0.081175
0.0793351
0.0820228
0.0917235
0.0909535
0.0894671
0.0883381
0.0870495
0.0859028
0.0847997
0.0837768
0.0828509
0.082044
0.0813373
0.0810157
0.0800933
0.0811154
0.0792993
0.0821698
0.0903044
0.0899979
0.0888477
0.0879499
0.086791
0.0857218
0.0846615
0.0836597
0.0827412
0.081934
0.0812224
0.0809113
0.0799881
0.0811065
0.0793479
0.0824458
0.0893892
0.0892347
0.088276
0.0875253
0.0864625
0.0854495
0.0844132
0.0834099
0.0824701
0.0816259
0.0808625
0.0805004
0.0794938
0.0805867
0.0787039
0.0819435
0.0887342
0.0886547
0.0878202
0.087165
0.0861659
0.0851873
0.0841588
0.08314
0.0821642
0.0812685
0.0804458
0.0800489
0.0790576
0.0803795
0.0788366
0.0829133
0.0882874
0.0882414
0.0874707
0.0868661
0.085897
0.0849267
0.0838834
0.0828253
0.0817819
0.0807804
0.0797929
0.0791289
0.0777005
0.0783462
0.0756535
0.0792785
0.0880146
0.0879849
0.0872358
0.0866474
0.0856783
0.0846928
0.0836163
0.0825061
0.0813926
0.08031
0.0792591
0.0785842
0.0773714
0.0786458
0.0770854
0.0840142
0.0978043
0.0927247
0.0905228
0.0888202
0.0873629
0.0861574
0.0850703
0.084111
0.0832876
0.0826259
0.0821381
0.0820967
0.081777
0.0833498
0.0831402
0.0860396
0.0934765
0.0918822
0.0900848
0.0887057
0.0873368
0.0861785
0.0851191
0.0841831
0.0833849
0.0827541
0.0823014
0.0823246
0.0820405
0.0837677
0.0835884
0.086782
0.0915877
0.090815
0.0893662
0.0882774
0.0870478
0.0859711
0.0849526
0.0840328
0.0832363
0.0825998
0.0821377
0.0821717
0.081881
0.0837055
0.0835496
0.0869303
0.0901667
0.0898578
0.0887449
0.0878873
0.086787
0.0857873
0.0848109
0.0839113
0.0831211
0.082483
0.0820139
0.0820585
0.0817588
0.083689
0.0835685
0.087185
0.0892476
0.0890909
0.0881687
0.0874575
0.0864518
0.0855064
0.0845513
0.0836466
0.0828301
0.0821486
0.0816181
0.0816015
0.0811886
0.083081
0.0827562
0.0865062
0.0885881
0.0885068
0.087708
0.0870915
0.0861478
0.0852345
0.0842839
0.083359
0.0825004
0.0817589
0.0811568
0.0810949
0.0806659
0.0827954
0.0827353
0.087361
0.088136
0.0880887
0.0873526
0.0867856
0.0858698
0.0849618
0.0839919
0.0830212
0.0820849
0.0812215
0.080425
0.0800491
0.0790726
0.0804056
0.0788649
0.0829406
0.0878574
0.087827
0.0871113
0.0865593
0.0856411
0.0847145
0.0837065
0.0826769
0.0816612
0.0807039
0.079826
0.079422
0.0786144
0.0805862
0.0800656
0.0876086
0.0977121
0.0926303
0.090457
0.0887858
0.0873762
0.0862281
0.0852105
0.0843338
0.083607
0.0830541
0.0826843
0.0827224
0.0824758
0.0838049
0.0834274
0.0854845
0.0933853
0.0917879
0.09002
0.0886729
0.0873524
0.0862525
0.0852637
0.0844118
0.083712
0.0831921
0.082859
0.0829599
0.0827427
0.0841991
0.0838188
0.0860774
0.0914943
0.0907182
0.0892988
0.0882418
0.0870601
0.0860411
0.0850922
0.0842552
0.0835555
0.0830277
0.0826824
0.0827906
0.0825582
0.0841046
0.0837253
0.0861543
0.0900716
0.0897596
0.0886758
0.0878499
0.0867972
0.0858548
0.0849476
0.0841301
0.0834359
0.0829057
0.0825523
0.0826719
0.0824257
0.0840857
0.0837275
0.0863963
0.0891488
0.0889893
0.0880956
0.0874154
0.0864561
0.0855664
0.0846782
0.0838526
0.0831285
0.0825506
0.0821307
0.0821871
0.0818169
0.0834516
0.0828662
0.0856843
0.0884853
0.0884016
0.0876305
0.0870443
0.0861456
0.085286
0.0843995
0.0835502
0.0827795
0.0821367
0.0816399
0.0816534
0.081265
0.0831817
0.0828702
0.0866262
0.0880283
0.0879791
0.0872698
0.0867322
0.0858595
0.0850027
0.0840933
0.0831932
0.0823379
0.081564
0.0808594
0.0805468
0.0795773
0.0807022
0.0788297
0.0820707
0.0877445
0.0877126
0.0870227
0.0864991
0.085622
0.0847437
0.0837922
0.0828279
0.081887
0.0810133
0.0802241
0.0798984
0.0791211
0.0810032
0.080248
0.087145
0.0976509
0.0925668
0.0904153
0.0887681
0.0873958
0.0862929
0.0853298
0.0845174
0.0838649
0.0833961
0.0831234
0.0832497
0.0831556
0.0845229
0.0844122
0.0863516
0.093325
0.0917245
0.0899793
0.0886566
0.087374
0.08632
0.0853868
0.0846005
0.0839768
0.0835431
0.0833101
0.083502
0.0834431
0.0849389
0.0848374
0.0869568
0.0914321
0.0906527
0.0892559
0.0882231
0.0870789
0.0861053
0.0852112
0.0844388
0.083814
0.0833711
0.0831244
0.0833226
0.0832458
0.0848329
0.0847266
0.0870147
0.0900079
0.0896929
0.0886315
0.0878297
0.0868144
0.0859171
0.0850642
0.084311
0.0836913
0.0832456
0.0829905
0.0832011
0.0831076
0.084814
0.0847191
0.0872496
0.089082
0.0889197
0.0880477
0.0873912
0.0864683
0.0856224
0.0847868
0.0840232
0.0833709
0.0828743
0.0825488
0.082694
0.082467
0.0841524
0.0838069
0.0864911
0.0884151
0.0883289
0.087579
0.0870158
0.0861523
0.0853349
0.084499
0.083709
0.0830066
0.0824412
0.0820341
0.0821352
0.0818805
0.083863
0.083771
0.0874118
0.0879539
0.0879027
0.0872137
0.0866985
0.0858595
0.0850429
0.0841813
0.0833366
0.0825446
0.0818412
0.0812159
0.0809795
0.0801109
0.0812852
0.0795428
0.0826546
0.0876657
0.0876321
0.0869617
0.0864596
0.0856146
0.0847742
0.0838674
0.0829544
0.0820717
0.0812631
0.0805474
0.0802985
0.0796124
0.0815731
0.0809265
0.0877468
0.0976123
0.0925261
0.0903903
0.0887605
0.0874156
0.0863459
0.0854229
0.0846574
0.0840583
0.0836481
0.0834392
0.0836128
0.0835917
0.084909
0.0848415
0.0865881
0.0932871
0.0916838
0.0899551
0.08865
0.0873954
0.0863752
0.0854829
0.0847445
0.0841755
0.0838019
0.0836348
0.0838749
0.0838908
0.0853317
0.0852708
0.0871753
0.0913927
0.0906105
0.0892299
0.0882146
0.0870981
0.0861579
0.0853041
0.0845791
0.084008
0.0836243
0.0834424
0.0836874
0.0836824
0.0852127
0.085139
0.0872083
0.0899674
0.0896497
0.0886044
0.0878201
0.0868323
0.0859682
0.0851555
0.0844492
0.0838831
0.0834965
0.083306
0.083564
0.0835399
0.0851928
0.0851226
0.0874355
0.089039
0.0888742
0.088018
0.0873785
0.0864823
0.0856687
0.084872
0.0841538
0.0835531
0.0831134
0.0828499
0.0830413
0.0828778
0.0845138
0.08418
0.0866514
0.0883693
0.0882809
0.0875463
0.0869998
0.0861622
0.0853759
0.0845773
0.0838307
0.0831776
0.0826662
0.0823179
0.0824646
0.0822674
0.0842118
0.0841208
0.0875641
0.0879049
0.0878518
0.0871775
0.0866785
0.0858642
0.0850772
0.0842509
0.083447
0.0827006
0.0820468
0.081474
0.0812775
0.0804492
0.0815839
0.0797999
0.0827144
0.0876131
0.0875781
0.0869217
0.0864351
0.0856136
0.0848012
0.0839274
0.0830521
0.0822115
0.0814485
0.0807812
0.0805735
0.0799245
0.0818739
0.0811892
0.0878637
0.0975899
0.0925021
0.0903766
0.0887581
0.0874312
0.0863833
0.0854866
0.0847516
0.0841865
0.0838127
0.0836417
0.0838401
0.0838591
0.0851423
0.0851054
0.0867623
0.0932651
0.0916599
0.0899419
0.0886484
0.087412
0.0864141
0.0855486
0.0848414
0.0843073
0.0839713
0.0838434
0.0841092
0.0841669
0.0855722
0.0855429
0.0873483
0.0913696
0.0905855
0.0892156
0.0882116
0.0871133
0.086195
0.0853678
0.0846734
0.0841368
0.0837899
0.0836465
0.0839164
0.0839516
0.0854457
0.0854
0.0873693
0.0899435
0.089624
0.0885893
0.0878164
0.0868466
0.0860044
0.085218
0.0845424
0.0840106
0.0836607
0.0835088
0.0837922
0.0838071
0.085426
0.0853794
0.0875933
0.0890135
0.088847
0.088001
0.0873727
0.0864941
0.0857017
0.0849305
0.0842418
0.0836742
0.0832699
0.0830435
0.0832598
0.0831321
0.0847373
0.0844198
0.0867953
0.0883419
0.088252
0.0875273
0.0869916
0.086171
0.0854053
0.0846312
0.0839128
0.0832913
0.0828136
0.0825006
0.0826716
0.0825064
0.0844265
0.0843443
0.0877003
0.0878753
0.0878208
0.0871561
0.0866676
0.0858696
0.0851021
0.084299
0.0835216
0.0828047
0.0821819
0.0816408
0.0814659
0.0806602
0.0817705
0.07997
0.0827942
0.0875811
0.0875449
0.0868977
0.0864212
0.0856151
0.0848211
0.0839689
0.0831183
0.0823048
0.0815704
0.0809323
0.080747
0.080118
0.0820581
0.0813549
0.0879653
0.0975793
0.0924915
0.0903702
0.0887575
0.0874393
0.086402
0.085518
0.0847974
0.084248
0.0838903
0.0837355
0.0839419
0.0839771
0.0852394
0.0852128
0.0868306
0.0932554
0.091649
0.089936
0.0886481
0.0874207
0.0864335
0.0855809
0.0848884
0.0843704
0.0840508
0.0839396
0.0842135
0.0842878
0.0856711
0.0856519
0.0874142
0.0913589
0.0905739
0.0892091
0.0882107
0.0871213
0.0862136
0.085399
0.0847191
0.0841983
0.0838676
0.0837406
0.0840182
0.0840694
0.0855413
0.085504
0.0874298
0.0899327
0.0896121
0.0885825
0.087815
0.0868541
0.0860224
0.0852488
0.0845876
0.0840716
0.083738
0.0836026
0.0838942
0.0839247
0.0855223
0.0854818
0.0876523
0.0890017
0.0888342
0.0879933
0.0873703
0.0865004
0.0857182
0.0849593
0.0842847
0.0837325
0.0833439
0.0831338
0.0833585
0.0832458
0.0848323
0.084519
0.0868527
0.0883292
0.0882385
0.0875185
0.0869881
0.0861759
0.08542
0.0846578
0.0839529
0.0833461
0.0828835
0.0825859
0.0827649
0.0826128
0.084516
0.084433
0.0877498
0.0878615
0.0878063
0.0871462
0.0866626
0.0858728
0.0851147
0.0843229
0.0835582
0.0828552
0.0822466
0.0817199
0.0815528
0.0807576
0.081853
0.0800434
0.082827
0.087566
0.0875293
0.0868865
0.0864148
0.0856164
0.0848313
0.0839897
0.0831509
0.0823502
0.0816288
0.0810039
0.0808262
0.0802057
0.0821359
0.0814205
0.0879986
0.108594
0.0986265
0.0945072
0.0912789
0.0887047
0.0865346
0.0845297
0.0826128
0.0807143
0.0787782
0.0767527
0.0745835
0.0722177
0.0696309
0.0666764
0.0636557
0.104275
0.0976796
0.094033
0.0911301
0.088648
0.086523
0.0845394
0.0826353
0.0807464
0.0788187
0.0768011
0.0746394
0.0722798
0.069699
0.0667426
0.0637222
0.102377
0.096596
0.0933203
0.0907142
0.088382
0.086348
0.0844161
0.082541
0.0806684
0.0787502
0.0767392
0.0745842
0.0722335
0.0696661
0.0667266
0.0637265
0.100964
0.0956374
0.0926996
0.0903259
0.088129
0.0861778
0.0842952
0.0824488
0.0805927
0.078684
0.0766792
0.0745304
0.0721878
0.0696326
0.0667126
0.0637318
0.100063
0.09489
0.0921496
0.0899289
0.0878393
0.0859586
0.0841191
0.0822967
0.0804521
0.0785477
0.0765444
0.0743983
0.0720638
0.0695244
0.0666368
0.0636894
0.0994309
0.0943305
0.0917187
0.089599
0.087585
0.0857547
0.0839459
0.0821394
0.0803005
0.0783957
0.0763902
0.0742441
0.0719164
0.069393
0.0665441
0.0636343
0.0990135
0.0939441
0.0914022
0.0893403
0.0873708
0.0855696
0.0837762
0.0819745
0.0801328
0.0782209
0.0762077
0.0740575
0.0717342
0.0692255
0.0664211
0.0635526
0.0987746
0.0937179
0.0912046
0.0891667
0.0872133
0.0854197
0.083626
0.0818174
0.0799644
0.0780391
0.0760134
0.0738562
0.0715367
0.0690436
0.0662908
0.0634672
0.104228
0.0976242
0.0939726
0.0910659
0.0885799
0.0864468
0.0844525
0.0825356
0.0806316
0.0786864
0.0766497
0.0744678
0.0720819
0.0695011
0.0664898
0.0635221
0.0998771
0.0967637
0.0935145
0.0909288
0.0885294
0.0864379
0.0844625
0.0825563
0.08066
0.0787212
0.0766902
0.0745137
0.0721316
0.0695562
0.0665411
0.0635774
0.0979909
0.0956988
0.0928071
0.0905162
0.0882639
0.0862625
0.0843384
0.0824609
0.0805808
0.0786515
0.0766272
0.0744578
0.0720849
0.0695237
0.0665262
0.0635835
0.096575
0.0947419
0.0921905
0.0901324
0.0880146
0.0860958
0.084221
0.0823726
0.0805095
0.0785904
0.0765733
0.0744111
0.0720475
0.0694991
0.0665226
0.0635975
0.0956776
0.0939948
0.0916419
0.0897367
0.087726
0.0858779
0.0840466
0.0822227
0.0803719
0.0784581
0.0764436
0.0742855
0.0719316
0.0693994
0.0664585
0.0635641
0.0950463
0.0934353
0.0912128
0.0894088
0.0874738
0.0856769
0.0838768
0.0820696
0.0802255
0.0783126
0.0762973
0.0741409
0.0717962
0.0692804
0.0663835
0.0635225
0.0946301
0.0930495
0.0908977
0.0891516
0.0872615
0.0854942
0.0837103
0.0819087
0.0800628
0.0781442
0.0761225
0.0739633
0.0716251
0.0691226
0.0662757
0.0634495
0.0943922
0.0928244
0.0907017
0.0889796
0.0871059
0.085347
0.0835635
0.081756
0.0798999
0.0779691
0.0759367
0.0737725
0.0714419
0.0689552
0.0661699
0.0633829
0.102328
0.0965358
0.093265
0.0906662
0.0883502
0.0863342
0.0844239
0.0825741
0.0807297
0.0788409
0.0768578
0.0747235
0.0723482
0.0698138
0.0666079
0.0636921
0.0979916
0.0956961
0.092815
0.0905353
0.0883035
0.0863289
0.0844381
0.0826
0.0807645
0.0788835
0.0769078
0.0747812
0.0724105
0.0698861
0.0666727
0.0637692
0.0961131
0.0946405
0.0921113
0.0901251
0.0880383
0.0861526
0.0843122
0.0825021
0.0806821
0.0788099
0.0768404
0.0747209
0.0723597
0.0698518
0.0666583
0.0637792
0.0946995
0.0936875
0.0914972
0.0897435
0.0877901
0.0859863
0.0841945
0.0824129
0.0806094
0.0787469
0.0767843
0.074672
0.0723209
0.0698266
0.0666598
0.0637981
0.093803
0.0929411
0.0909483
0.089347
0.0874995
0.0857654
0.0840159
0.0822573
0.0804643
0.0786051
0.0766429
0.074533
0.0721917
0.0697124
0.0665914
0.0637586
0.0931709
0.0923809
0.0905181
0.0890178
0.0872453
0.085561
0.0838414
0.0820977
0.0803092
0.0784484
0.0764827
0.0743721
0.0720404
0.0695753
0.0665152
0.0637125
0.0927531
0.0919935
0.0902013
0.0887584
0.0870298
0.0853739
0.0836688
0.0819283
0.0801352
0.0782649
0.0762887
0.0741702
0.071843
0.0693824
0.0663892
0.0636094
0.0925132
0.0917666
0.090003
0.0885838
0.0868707
0.0852217
0.083515
0.0817661
0.0799595
0.0780734
0.0760823
0.073955
0.0716374
0.0691882
0.0662866
0.0635389
0.100868
0.095524
0.0926031
0.0902489
0.0880908
0.0861858
0.0843596
0.0825803
0.0808013
0.0789776
0.0770608
0.0749962
0.0726294
0.0702061
0.0666642
0.0639049
0.096528
0.0946843
0.0921558
0.0901211
0.0880463
0.0861822
0.0843752
0.0826076
0.0808379
0.0790227
0.0771143
0.0750597
0.0726975
0.0702931
0.0667362
0.0640082
0.0946509
0.0936313
0.0914534
0.0897115
0.0877806
0.0860045
0.084247
0.0825065
0.0807514
0.0789441
0.0770414
0.0749943
0.0726418
0.0702569
0.0667223
0.0640224
0.0932383
0.0926805
0.090841
0.0893317
0.0875335
0.0858387
0.0841295
0.0824171
0.0806782
0.0788804
0.0769844
0.0749448
0.0726039
0.0702331
0.0667336
0.0640494
0.092342
0.0919347
0.0902919
0.0889346
0.0872416
0.0856155
0.0839474
0.0822566
0.0805265
0.0787299
0.0768321
0.0747926
0.0724616
0.0701021
0.0666637
0.0640019
0.0917094
0.0913744
0.0898614
0.0886048
0.0869859
0.0854089
0.0837694
0.0820918
0.080364
0.0785632
0.076659
0.0746155
0.0722961
0.069946
0.0665977
0.0639582
0.0912905
0.0909863
0.0895434
0.088344
0.0867683
0.0852184
0.0835917
0.0819152
0.0801796
0.0783651
0.0764445
0.0743852
0.0720662
0.0697012
0.0664458
0.0638009
0.0910489
0.0907581
0.0893435
0.0881675
0.0866064
0.0850622
0.0834322
0.0817447
0.0799923
0.0781577
0.0762178
0.0741446
0.0718423
0.0694821
0.0663767
0.0637563
0.0999429
0.0947506
0.0920521
0.0898784
0.0878714
0.0860913
0.0843751
0.0827002
0.0810275
0.0793168
0.0775215
0.0756022
0.0732879
0.0711502
0.0671852
0.0648469
0.0956076
0.0939111
0.0916071
0.0897532
0.0878298
0.0860913
0.0843953
0.0827334
0.0810719
0.0793721
0.0775881
0.075685
0.0733781
0.0712796
0.0672955
0.0650306
0.0937314
0.0928586
0.0909043
0.0893428
0.0875624
0.0859109
0.0842635
0.0826276
0.0809793
0.0792863
0.0775071
0.0756124
0.0733163
0.0712441
0.0672878
0.0650588
0.0923193
0.0919087
0.0902921
0.0889628
0.0873145
0.0857438
0.0841438
0.082535
0.0809018
0.0792172
0.0774437
0.0755564
0.0732737
0.0712174
0.0673095
0.0650961
0.0914215
0.0911616
0.0897409
0.0885628
0.0870184
0.0855146
0.0839535
0.0823635
0.0807355
0.0790479
0.0772679
0.0753757
0.0731018
0.0710488
0.0672231
0.0650213
0.0907868
0.0905994
0.0893077
0.0882295
0.0867579
0.0853012
0.0837661
0.0821858
0.0805557
0.0788583
0.0770657
0.0751627
0.0729022
0.07085
0.0671582
0.0649696
0.0903647
0.0902085
0.088986
0.0879642
0.086534
0.0851021
0.0835764
0.0819926
0.0803483
0.0786287
0.0768082
0.0748715
0.0725983
0.0704863
0.0669107
0.0646536
0.0901194
0.089977
0.0887819
0.0877826
0.0863651
0.0849362
0.0834035
0.0818036
0.0801359
0.0783881
0.0765398
0.0745779
0.0723291
0.0702023
0.0668526
0.064605
0.0992571
0.0941335
0.0915952
0.0895568
0.0876792
0.0860158
0.0844115
0.0828507
0.081301
0.0797263
0.0780744
0.0763279
0.0739881
0.0720941
0.067198
0.0650588
0.0949227
0.0932925
0.0911512
0.0894332
0.0876398
0.0860186
0.0844354
0.0828888
0.0813519
0.0797903
0.0781518
0.076427
0.0740909
0.0722536
0.0673134
0.0652808
0.0930454
0.0922384
0.0904467
0.0890208
0.0873697
0.0858347
0.0842988
0.0827768
0.0812515
0.0796949
0.0780592
0.0763427
0.0740152
0.0722087
0.0672955
0.065301
0.0916328
0.0912882
0.0898339
0.08864
0.0871206
0.0856656
0.0841763
0.0826804
0.0811689
0.0796192
0.0779877
0.0762781
0.0739656
0.0721783
0.0673309
0.0653587
0.0907328
0.0905391
0.0892799
0.0882364
0.0868195
0.0854296
0.0839768
0.0824962
0.0809856
0.0794276
0.0777837
0.0760624
0.0737572
0.071966
0.0672316
0.0652711
0.0900953
0.0899745
0.0888434
0.0878991
0.0865534
0.0852085
0.0837787
0.0823037
0.0807855
0.0792111
0.0775476
0.075809
0.0735267
0.0717419
0.0672256
0.0653124
0.0896695
0.0895804
0.0885175
0.0876286
0.0863224
0.0849996
0.0835753
0.0820911
0.0805509
0.0789432
0.0772369
0.0754408
0.0731306
0.0712324
0.0668791
0.0648358
0.0894199
0.0893451
0.0883087
0.0874412
0.0861456
0.0848228
0.0833871
0.081881
0.0803095
0.0786647
0.0769239
0.075098
0.0728519
0.0709709
0.067028
0.0651211
0.0987604
0.0936655
0.0912386
0.0893029
0.0875377
0.0859855
0.0844972
0.0830644
0.0816657
0.0802817
0.0788788
0.0775414
0.0755744
0.0747069
0.0697816
0.0689253
0.0944276
0.0928237
0.0907958
0.0891812
0.0875009
0.0859918
0.0845259
0.0831091
0.0817258
0.0803594
0.0789762
0.0776765
0.0757265
0.0749651
0.0700039
0.0692541
0.0925486
0.0917674
0.090089
0.088766
0.0872274
0.0858036
0.0843838
0.08299
0.0816166
0.0802537
0.078872
0.0775834
0.0756443
0.0749291
0.0700016
0.0693061
0.0911348
0.0908164
0.089475
0.0883838
0.0869764
0.0856319
0.0842578
0.0828887
0.0815275
0.0801696
0.0787899
0.0775073
0.0755829
0.0748951
0.0700477
0.0694093
0.0902317
0.0900643
0.0889171
0.0879756
0.086669
0.0853876
0.0840468
0.0826891
0.0813233
0.0799497
0.0785477
0.0772402
0.075308
0.0745957
0.0698614
0.0692626
0.0895903
0.0894964
0.0884763
0.0876331
0.086396
0.085157
0.0838356
0.0824782
0.0810976
0.0796978
0.0782636
0.0769222
0.0750049
0.0742912
0.0698279
0.0693801
0.0891599
0.089098
0.0881451
0.0873562
0.0861563
0.0849361
0.0836153
0.0822416
0.0808278
0.0793769
0.077871
0.0764173
0.0743972
0.0734224
0.0690273
0.0683445
0.0889051
0.088858
0.0879304
0.0871616
0.0859699
0.0847461
0.0834086
0.0820052
0.0805494
0.0790462
0.0774877
0.075974
0.0740141
0.0730371
0.0691548
0.068855
0.0983956
0.0933127
0.0909666
0.0891106
0.0874417
0.0859915
0.0846151
0.0833077
0.082052
0.0808296
0.0795837
0.0784307
0.0763734
0.0754397
0.0694855
0.0649101
0.0940642
0.0924705
0.090525
0.0889907
0.0874076
0.0860015
0.0846486
0.0833588
0.0821205
0.0809178
0.0796921
0.0785801
0.076531
0.0756975
0.0696628
0.0644368
0.0921829
0.0914115
0.0898154
0.0885724
0.0871303
0.0858085
0.0845004
0.0832317
0.0820011
0.0807993
0.0795716
0.0784698
0.0764252
0.0756415
0.0696293
0.0643768
0.0907676
0.0904592
0.0891997
0.0881883
0.0868769
0.0856338
0.0843703
0.0831251
0.081905
0.0807066
0.079479
0.0783849
0.0763548
0.0756212
0.0697138
0.064655
0.0898606
0.0897036
0.0886374
0.0877748
0.0865627
0.0853804
0.0841471
0.0829091
0.081679
0.0804585
0.0792009
0.0780758
0.0760281
0.0752817
0.0695031
0.0647396
0.089215
0.0891318
0.0881919
0.0874266
0.086282
0.0851394
0.0839217
0.0826789
0.0814275
0.0801737
0.0788789
0.0777244
0.075717
0.0750601
0.0697032
0.0656212
0.0887793
0.0887287
0.0878548
0.0871426
0.0860328
0.0849055
0.0836834
0.082417
0.081122
0.0798019
0.078413
0.0771098
0.0749464
0.0739609
0.0686101
0.0647374
0.0885187
0.0884834
0.0876336
0.0869401
0.0858358
0.0847011
0.0834569
0.0821538
0.0808087
0.0794298
0.0779937
0.0766577
0.0746523
0.0739039
0.0693798
0.0672119
0.0881274
0.0881018
0.087297
0.0866498
0.0855944
0.0845056
0.0833023
0.0820346
0.0807193
0.0793649
0.077948
0.0766263
0.0746298
0.0738847
0.0693549
0.0671737
0.0881954
0.088164
0.0873128
0.0866238
0.0855183
0.0843764
0.083113
0.0817743
0.0803733
0.0789153
0.0773927
0.075906
0.0739638
0.0729956
0.0691107
0.0688012
0.0884531
0.088398
0.0874598
0.0866969
0.0855156
0.0843027
0.0829674
0.0815496
0.0800535
0.0784711
0.0767802
0.074992
0.0727715
0.0709047
0.0669632
0.0650492
0.088949
0.0888291
0.0877476
0.0868708
0.0855885
0.0842908
0.0828789
0.081386
0.0798101
0.0781386
0.0763515
0.0744364
0.0722203
0.0701129
0.0667694
0.0645187
0.0897215
0.0894553
0.0881651
0.0871245
0.0857138
0.0843166
0.0828227
0.0812565
0.0796084
0.0778611
0.0759915
0.0739724
0.0717086
0.0693726
0.066278
0.0636581
0.0910753
0.0903553
0.0887236
0.0874488
0.0858962
0.0844049
0.0828449
0.0812271
0.0795337
0.0777424
0.075828
0.0737599
0.0714853
0.0690639
0.0661764
0.0634323
0.0928761
0.091336
0.08935
0.0877785
0.0860724
0.0844785
0.082849
0.0811794
0.0794427
0.0776121
0.0756611
0.07356
0.0712756
0.0688195
0.0660511
0.06327
0.097241
0.0922154
0.0898387
0.0879521
0.0861678
0.0845412
0.0829032
0.081234
0.0795016
0.0776775
0.075734
0.0736407
0.071368
0.068906
0.0661707
0.0633534
0.0879063
0.0878823
0.0871196
0.0865172
0.0855204
0.0844963
0.0833646
0.0821753
0.0809446
0.079677
0.0783298
0.0770576
0.0749138
0.0739368
0.0685757
0.064679
0.0879681
0.0879389
0.0871284
0.0864829
0.0854333
0.0843522
0.0831548
0.0818872
0.0805625
0.0791845
0.0777363
0.0763259
0.0743339
0.0733727
0.0689708
0.0682701
0.08822
0.0881675
0.087269
0.0865483
0.0854203
0.0842645
0.0829896
0.081635
0.0802041
0.0786862
0.0770512
0.0753085
0.0730341
0.0711546
0.0667996
0.0647426
0.0887111
0.0885942
0.0875514
0.0867157
0.0854846
0.0842408
0.0828849
0.081449
0.0799302
0.0783139
0.0765758
0.0747013
0.0724708
0.0703831
0.0668122
0.0645471
0.0894792
0.0892165
0.087964
0.0869636
0.0856021
0.0842562
0.0828144
0.0813
0.0797022
0.0780016
0.0761721
0.0741821
0.0719118
0.0695764
0.0663317
0.0636839
0.0908308
0.0901147
0.0885205
0.0872855
0.0857813
0.0843399
0.0828301
0.0812614
0.0796147
0.0778658
0.0759868
0.0739429
0.0716688
0.0692417
0.0662636
0.0634852
0.092629
0.0910933
0.0891442
0.0876122
0.0859534
0.0844079
0.0828266
0.0812035
0.0795102
0.0777181
0.0757982
0.0737174
0.0714357
0.0689697
0.0661415
0.0633198
0.0969946
0.0919744
0.0896345
0.0877874
0.0860506
0.0844732
0.0828841
0.0812623
0.0795743
0.0777902
0.0758795
0.0738085
0.0715423
0.0690708
0.0662857
0.0634224
0.0877431
0.0877189
0.0869885
0.0864211
0.0854726
0.0845036
0.0834345
0.0823165
0.0811681
0.0799981
0.0787697
0.0776652
0.0756891
0.0750465
0.0696697
0.0655449
0.087799
0.0877701
0.0869907
0.0863791
0.0853752
0.0843455
0.0832054
0.0820015
0.0807481
0.0794518
0.0780995
0.0768193
0.074941
0.0742461
0.0697676
0.0692892
0.0880455
0.0879937
0.0871252
0.0864372
0.0853526
0.0842447
0.083022
0.0817235
0.0803523
0.0788976
0.0773286
0.0756606
0.0734243
0.0716626
0.0671378
0.0652011
0.0885319
0.0884163
0.0874025
0.0865986
0.0854088
0.0842101
0.0829022
0.0815165
0.0800489
0.0784843
0.0767967
0.0749724
0.0727649
0.0707417
0.0670506
0.0648469
0.089296
0.0890348
0.0878106
0.0868411
0.0855192
0.0842158
0.0828185
0.0813492
0.0797961
0.0781381
0.0763472
0.0743893
0.0721289
0.0698134
0.0664739
0.0638265
0.0906455
0.0899314
0.0883651
0.0871607
0.0856953
0.0842953
0.0828283
0.0813023
0.0796968
0.077986
0.0761397
0.0741195
0.0718515
0.0694252
0.06638
0.0635751
0.0924413
0.0909079
0.0889863
0.0874847
0.0858637
0.0843581
0.0828178
0.0812351
0.0795799
0.0778221
0.0759304
0.0738683
0.0715906
0.0691169
0.0662395
0.0633805
0.0968076
0.0917907
0.0894781
0.0876613
0.0859627
0.0844259
0.0828784
0.0812978
0.079649
0.0779004
0.0760193
0.0739682
0.0717082
0.0692277
0.0663993
0.0634923
0.0876248
0.0875996
0.0868939
0.0863538
0.0854442
0.0845202
0.0835029
0.0824433
0.0813595
0.0802582
0.0790962
0.0780445
0.076043
0.0753199
0.0695048
0.0646674
0.0876754
0.0876459
0.0868903
0.0863049
0.0853377
0.0843499
0.0832572
0.0821058
0.0809095
0.0796736
0.0783809
0.077156
0.0752761
0.0745906
0.0698263
0.0691787
0.0879169
0.0878651
0.0870193
0.0863565
0.0853065
0.0842377
0.0830582
0.0818062
0.0804838
0.0790783
0.0775547
0.0759233
0.0736755
0.071913
0.0671577
0.0651596
0.0883992
0.0882839
0.087292
0.0865126
0.0853557
0.0841937
0.0829255
0.0815814
0.0801564
0.0786332
0.0769828
0.0751874
0.0729774
0.0709585
0.0671256
0.0648984
0.0891597
0.088899
0.087696
0.0867502
0.0854597
0.0841908
0.0828302
0.0813987
0.0798828
0.07826
0.0764992
0.0745624
0.072301
0.0699809
0.0665466
0.0638693
0.0905073
0.0897942
0.0882489
0.0870679
0.0856332
0.0842666
0.0828349
0.0813447
0.0797739
0.078095
0.0762752
0.0742725
0.0720052
0.0695697
0.0664612
0.0636203
0.0923009
0.0907689
0.0888679
0.0873893
0.0857982
0.0843249
0.0828184
0.0812693
0.0796464
0.0779176
0.0760493
0.0740018
0.0717253
0.0692405
0.0663179
0.0634208
0.0966678
0.0916531
0.0893609
0.0875673
0.0858988
0.0843949
0.0828819
0.0813357
0.0797202
0.0780017
0.0761454
0.0741105
0.0718542
0.0693629
0.0664952
0.0635463
0.0875413
0.0875149
0.0868278
0.0863085
0.0854291
0.0845405
0.0835641
0.0825506
0.0815175
0.0804703
0.0793635
0.0783637
0.0763896
0.0756885
0.0697134
0.064534
0.0875875
0.0875571
0.0868193
0.0862537
0.0853149
0.0843601
0.0833049
0.0821949
0.0810434
0.0798543
0.0786084
0.0774282
0.0755665
0.0749156
0.0700146
0.0693114
0.0878248
0.0877725
0.0869437
0.0862999
0.0852768
0.0842385
0.0830932
0.0818781
0.0805943
0.0792273
0.0777391
0.0761369
0.0738905
0.0721386
0.0672507
0.0652298
0.0883036
0.0881881
0.0872126
0.0864515
0.08532
0.0841866
0.0829499
0.081639
0.0802477
0.078757
0.0771353
0.0753614
0.0731519
0.071136
0.0672098
0.064965
0.089061
0.0888004
0.0876132
0.086685
0.0854187
0.0841767
0.0828452
0.0814437
0.0799576
0.0783625
0.076625
0.0747039
0.0724421
0.0701163
0.0666147
0.0639106
0.0904071
0.0896944
0.0881646
0.0870012
0.08559
0.0842496
0.0828458
0.0813841
0.0798412
0.0781878
0.0763887
0.074399
0.0721318
0.0696867
0.0665297
0.0636563
0.0921989
0.0906675
0.0887817
0.0873204
0.0857523
0.0843041
0.0828243
0.0813022
0.0797052
0.0779996
0.0761498
0.0741134
0.0718371
0.0693414
0.0663827
0.0634521
0.0965663
0.0915529
0.0892758
0.0874995
0.0858542
0.084376
0.0828902
0.0813717
0.0797829
0.0780888
0.0762522
0.0742298
0.0719755
0.0694737
0.0665736
0.0635884
0.0874852
0.0874575
0.0867839
0.0862794
0.0854222
0.0845596
0.0836136
0.0826341
0.081638
0.0806293
0.0795601
0.0785892
0.0766209
0.075894
0.0697542
0.0642647
0.0875278
0.0874966
0.0867715
0.0862201
0.0853022
0.0843716
0.0833442
0.0822648
0.081146
0.0799904
0.0787764
0.0776223
0.0757647
0.0751116
0.0700887
0.0693042
0.0877619
0.0877089
0.0868923
0.0862621
0.0852586
0.0842429
0.0831229
0.0819351
0.0806797
0.0793407
0.0778776
0.0762935
0.074045
0.0722876
0.0672979
0.0652384
0.088238
0.0881221
0.0871582
0.0864102
0.0852973
0.0841849
0.0829715
0.0816853
0.080319
0.0788521
0.0772509
0.0754907
0.0732796
0.0712579
0.0672614
0.0649912
0.0889929
0.0887322
0.0875561
0.0866405
0.0853919
0.0841696
0.0828597
0.0814806
0.0800166
0.0784419
0.0767214
0.0748108
0.0725476
0.0702138
0.0666625
0.0639323
0.0903377
0.0896252
0.0881065
0.0869555
0.0855615
0.0842403
0.0828573
0.0814169
0.0798948
0.0782603
0.0764765
0.0744958
0.0722279
0.0697734
0.0665802
0.0636792
0.0921282
0.0905971
0.088722
0.0872731
0.0857216
0.0842919
0.0828319
0.08133
0.0797524
0.0780642
0.0762281
0.0741995
0.0719228
0.0694176
0.0664315
0.0634737
0.096496
0.0914834
0.089217
0.0874531
0.0858246
0.0843654
0.0828998
0.0814021
0.0798334
0.0781574
0.0763355
0.0743221
0.0720687
0.0695579
0.0666329
0.0636186
0.0874507
0.0874222
0.0867572
0.0862623
0.0854197
0.0845743
0.0836482
0.082691
0.0817189
0.0807346
0.0796886
0.0787336
0.0767677
0.0760218
0.0697845
0.0641058
0.0874909
0.087459
0.0867421
0.0861999
0.0852957
0.0843811
0.083372
0.0823127
0.0812152
0.0800809
0.0788867
0.0777468
0.0758902
0.0752313
0.0701331
0.0692969
0.0877228
0.0876693
0.0868605
0.0862391
0.0852484
0.0842475
0.0831443
0.0819746
0.0807377
0.0794167
0.0779694
0.0763957
0.0741451
0.0723809
0.0673274
0.0652405
0.0881969
0.0880807
0.0871243
0.0863848
0.0852841
0.0841856
0.0829875
0.0817176
0.0803677
0.0789163
0.0773281
0.0755758
0.0733628
0.0713346
0.0672929
0.0650034
0.0889503
0.0886894
0.0875204
0.086613
0.0853759
0.0841666
0.082871
0.0815066
0.0800572
0.078496
0.0767864
0.074882
0.0726175
0.0702767
0.0666932
0.0639437
0.0902942
0.0895818
0.08807
0.0869272
0.0855444
0.0842358
0.0828665
0.0814403
0.079932
0.07831
0.0765361
0.0745611
0.0722923
0.0698304
0.0666133
0.0636925
0.0920837
0.0905528
0.0886846
0.0872437
0.0857031
0.0842855
0.0828386
0.0813501
0.0797854
0.0781087
0.0762816
0.074258
0.0719807
0.0694684
0.0664639
0.0634871
0.0964518
0.0914397
0.0891801
0.0874243
0.0858068
0.08436
0.0829079
0.0814239
0.0798686
0.0782047
0.0763924
0.0743848
0.0721317
0.0696143
0.0666724
0.063638
0.0874344
0.0874054