/*--------------------------------*- C++ -*----------------------------------*\
| =========                 |                                                 |
| \\      /  F ield         | OpenFOAM: The Open Source CFD Toolbox           |
|  \\    /   O peration     | Version:  v1912                                 |
|   \\  /    A nd           | Website:  www.openfoam.com                      |
|    \\/     M anipulation  |                                                 |
\*---------------------------------------------------------------------------*/
FoamFile
{
    version     2.0;
    format      ascii;
    class       surfaceScalarField;
    location    "0.08/fluid";
    object      phi;
}
// * * * * * * * * * * * * * * * * * * * * * * * * * * * * * * * * * * * * * //

dimensions      [0 3 -1 0 0 0 0];
oriented        oriented;


internalField   nonuniform List<scalar> 
41600
(
5.65017e-05
6.10837e-06
-6.75e-07
5.64973e-07
5.35801e-05
3.04391e-06
-1.07419e-06
9.51873e-07
5.19688e-05
1.70873e-06
-1.38251e-06
1.28508e-06
5.10296e-05
1.00678e-06
-1.766e-06
1.69837e-06
5.03192e-05
7.48374e-07
-2.29902e-06
2.26106e-06
4.96542e-05
6.7495e-07
-3.01058e-06
3.00064e-06
4.8938e-05
6.98278e-07
-3.94603e-06
3.96392e-06
4.81052e-05
7.82732e-07
-5.17221e-06
5.22232e-06
4.70942e-05
9.13609e-07
-6.78555e-06
6.88296e-06
4.58258e-05
1.08351e-06
-8.92444e-06
9.10926e-06
4.41708e-05
1.28617e-06
-1.17885e-05
1.21574e-05
4.18704e-05
1.49592e-06
-1.56742e-05
1.64787e-05
3.84218e-05
1.72437e-06
-2.10342e-05
2.27584e-05
3.25022e-05
1.77074e-06
-2.84908e-05
3.26397e-05
2.17946e-05
1.88769e-06
-3.93158e-05
4.81357e-05
8.49284e-07
-4.46582e-05
6.56036e-05
6.43233e-05
4.40668e-06
-8.60077e-07
7.38417e-07
6.42004e-05
3.30319e-06
-1.35748e-06
1.22115e-06
6.36912e-05
2.32662e-06
-1.73227e-06
1.62358e-06
6.30585e-05
1.71426e-06
-2.19289e-06
2.11812e-06
6.23887e-05
1.45889e-06
-2.83207e-06
2.79131e-06
6.16591e-05
1.41314e-06
-3.68763e-06
3.67911e-06
6.08238e-05
1.51002e-06
-4.81472e-06
4.83819e-06
5.98287e-05
1.71757e-06
-6.29432e-06
6.35459e-06
5.86071e-05
2.02149e-06
-8.24334e-06
8.35709e-06
5.70637e-05
2.41493e-06
-1.08298e-05
1.10418e-05
5.50409e-05
2.89071e-06
-1.42971e-05
1.47154e-05
5.22043e-05
3.42408e-06
-1.9007e-05
1.99154e-05
4.79756e-05
4.00288e-06
-2.55103e-05
2.74605e-05
4.05682e-05
4.45796e-06
-3.45761e-05
3.92962e-05
2.74894e-05
4.87015e-06
-4.76476e-05
5.77439e-05
3.88503e-06
-5.40806e-05
7.85343e-05
6.38743e-05
3.15485e-06
-8.49311e-07
7.26823e-07
6.41839e-05
3.13106e-06
-1.34246e-06
1.205e-06
6.40524e-05
2.56781e-06
-1.71312e-06
1.6034e-06
6.36851e-05
2.15726e-06
-2.16774e-06
2.09205e-06
6.319e-05
1.99561e-06
-2.79782e-06
2.75621e-06
6.258e-05
2.03254e-06
-3.64014e-06
3.63078e-06
6.18343e-05
2.23309e-06
-4.74847e-06
4.77106e-06
6.09127e-05
2.57988e-06
-6.20218e-06
6.26149e-06
5.97536e-05
3.0678e-06
-8.11631e-06
8.22908e-06
5.82594e-05
3.69796e-06
-1.06571e-05
1.08684e-05
5.62607e-05
4.47068e-06
-1.40666e-05
1.44853e-05
5.34025e-05
5.36962e-06
-1.87084e-05
1.96211e-05
4.90676e-05
6.37515e-06
-2.51335e-05
2.70961e-05
4.14298e-05
7.33382e-06
-3.41409e-05
3.89028e-05
2.79245e-05
8.19474e-06
-4.71569e-05
5.73377e-05
7.1202e-06
-5.37065e-05
7.83959e-05
6.32826e-05
2.4952e-06
-8.14326e-07
6.91424e-07
6.36858e-05
2.86592e-06
-1.29185e-06
1.15375e-06
6.37565e-05
2.60756e-06
-1.65107e-06
1.54061e-06
6.35878e-05
2.40252e-06
-2.09066e-06
2.01408e-06
6.32534e-05
2.37273e-06
-2.69831e-06
2.65557e-06
6.27758e-05
2.52097e-06
-3.50842e-06
3.49764e-06
6.21472e-05
2.84093e-06
-4.57171e-06
4.59246e-06
6.13368e-05
3.33344e-06
-5.96343e-06
6.02032e-06
6.02871e-05
4.00792e-06
-7.79328e-06
7.90277e-06
5.88984e-05
4.88015e-06
-1.02209e-05
1.04274e-05
5.69901e-05
5.96767e-06
-1.34803e-05
1.38916e-05
5.41839e-05
7.27539e-06
-1.79291e-05
1.88296e-05
4.98201e-05
8.79922e-06
-2.41045e-05
2.60442e-05
4.20251e-05
1.04069e-05
-3.28385e-05
3.75605e-05
2.81714e-05
1.19615e-05
-4.54978e-05
5.55847e-05
1.0791e-05
-5.21401e-05
7.66408e-05
6.30312e-05
2.08745e-06
-7.66712e-07
6.43264e-07
6.34326e-05
2.60345e-06
-1.22294e-06
1.08401e-06
6.35999e-05
2.55177e-06
-1.56672e-06
1.45525e-06
6.35673e-05
2.51293e-06
-1.9859e-06
1.90809e-06
6.33728e-05
2.61143e-06
-2.56292e-06
2.51864e-06
6.3033e-05
2.87358e-06
-3.32891e-06
3.31612e-06
6.25435e-05
3.3124e-06
-4.33011e-06
4.34818e-06
6.18786e-05
3.94514e-06
-5.63564e-06
5.68881e-06
6.09847e-05
4.79784e-06
-7.34695e-06
7.4509e-06
5.97608e-05
5.90664e-06
-9.61287e-06
9.81034e-06
5.80163e-05
7.3171e-06
-1.26536e-05
1.30487e-05
5.53465e-05
9.07643e-06
-1.68136e-05
1.76824e-05
5.10421e-05
1.12283e-05
-2.26027e-05
2.4478e-05
4.31166e-05
1.37398e-05
-3.08933e-05
3.5486e-05
2.88232e-05
1.64525e-05
-4.29433e-05
5.27457e-05
1.56376e-05
-4.96881e-05
7.36647e-05
6.29284e-05
1.7832e-06
-7.1034e-07
5.86212e-07
6.33321e-05
2.33963e-06
-1.14129e-06
1.00135e-06
6.35721e-05
2.42447e-06
-1.46674e-06
1.35406e-06
6.36509e-05
2.5134e-06
-1.8616e-06
1.7823e-06
6.35853e-05
2.72327e-06
-2.40192e-06
2.35576e-06
6.33864e-05
3.08777e-06
-3.11476e-06
3.09949e-06
6.30524e-05
3.63166e-06
-4.04055e-06
4.05523e-06
6.25638e-05
4.38558e-06
-5.24027e-06
5.28848e-06
6.18729e-05
5.39265e-06
-6.80387e-06
6.89989e-06
6.08819e-05
6.71424e-06
-8.86434e-06
9.04782e-06
5.93938e-05
8.43697e-06
-1.16206e-05
1.19887e-05
5.69712e-05
1.06853e-05
-1.5394e-05
1.62078e-05
5.28372e-05
1.35994e-05
-2.06511e-05
2.24139e-05
4.47992e-05
1.74107e-05
-2.8314e-05
3.26811e-05
2.99432e-05
2.19772e-05
-3.94762e-05
4.88076e-05
2.23927e-05
-4.63835e-05
6.95716e-05
6.29043e-05
1.50386e-06
-6.47273e-07
5.2236e-07
6.33336e-05
2.05141e-06
-1.04993e-06
9.08836e-07
6.36441e-05
2.22804e-06
-1.35486e-06
1.24078e-06
6.38244e-05
2.41406e-06
-1.72235e-06
1.64134e-06
6.38821e-05
2.71393e-06
-2.22125e-06
2.1729e-06
6.38274e-05
3.1607e-06
-2.87377e-06
2.8556e-06
6.36636e-05
3.78489e-06
-3.71337e-06
3.72394e-06
6.33813e-05
4.62598e-06
-4.7907e-06
4.83261e-06
6.29487e-05
5.73994e-06
-6.1804e-06
6.26564e-06
6.22914e-05
7.20887e-06
-7.99236e-06
8.15503e-06
6.12484e-05
9.15589e-06
-1.03897e-05
1.07139e-05
5.94231e-05
1.17969e-05
-1.36428e-05
1.43566e-05
5.60808e-05
1.5405e-05
-1.81168e-05
1.96535e-05
4.87825e-05
2.08608e-05
-2.47038e-05
2.85519e-05
3.40181e-05
2.85804e-05
-3.41493e-05
4.23106e-05
3.53197e-05
-4.07407e-05
6.18317e-05
6.29243e-05
-5.80184e-07
4.54408e-07
1.20533e-06
6.34037e-05
-9.52772e-07
8.10412e-07
1.71442e-06
6.37905e-05
-1.23587e-06
1.12026e-06
1.95684e-06
6.40688e-05
-1.57419e-06
1.49132e-06
2.21858e-06
6.42456e-05
-2.02884e-06
1.97812e-06
2.58788e-06
6.43346e-05
-2.61675e-06
2.59537e-06
3.0931e-06
6.43471e-05
-3.36358e-06
3.36954e-06
3.76636e-06
6.42863e-05
-4.30843e-06
4.34306e-06
4.65216e-06
6.41381e-05
-5.50866e-06
5.58103e-06
5.81582e-06
6.38506e-05
-7.04828e-06
7.1857e-06
7.35897e-06
6.32879e-05
-9.05222e-06
9.32352e-06
9.44723e-06
6.20697e-05
-1.17376e-05
1.23336e-05
1.2419e-05
5.94595e-05
-1.53783e-05
1.66678e-05
1.67258e-05
5.28101e-05
-2.08553e-05
2.41621e-05
2.42034e-05
3.86637e-05
-2.85828e-05
3.56363e-05
3.56733e-05
-3.53203e-05
5.46312e-05
5.46722e-05
5.64211e-05
6.11878e-06
-7.14861e-07
5.33912e-05
3.06071e-06
-1.10507e-06
5.16655e-05
1.72815e-06
-1.38493e-06
5.06009e-05
1.03072e-06
-1.73205e-06
4.97428e-05
7.79196e-07
-2.22014e-06
4.88937e-05
7.15638e-07
-2.87713e-06
4.7939e-05
7.52724e-07
-3.74408e-06
4.67903e-05
8.56054e-07
-4.87953e-06
4.53572e-05
1.01266e-06
-6.36514e-06
4.35279e-05
1.21768e-06
-8.3128e-06
4.11441e-05
1.46894e-06
-1.08737e-05
3.7956e-05
1.74759e-06
-1.42337e-05
3.35067e-05
2.07939e-06
-1.86643e-05
2.68742e-05
2.28821e-06
-2.41465e-05
1.59943e-05
2.64717e-06
-3.1083e-05
1.92335e-06
-3.05869e-05
6.42269e-05
4.43086e-06
-8.9903e-07
6.39759e-05
3.33885e-06
-1.38464e-06
6.33286e-05
2.36955e-06
-1.72641e-06
6.25437e-05
1.76732e-06
-2.14454e-06
6.16945e-05
1.52724e-06
-2.73092e-06
6.07411e-05
1.5034e-06
-3.52196e-06
5.96159e-05
1.63084e-06
-4.56772e-06
5.82366e-05
1.88028e-06
-5.93924e-06
5.65007e-05
2.24095e-06
-7.73566e-06
5.42709e-05
2.71048e-06
-1.00929e-05
5.13501e-05
3.28731e-06
-1.31946e-05
4.74062e-05
3.95231e-06
-1.72678e-05
4.19075e-05
4.70523e-06
-2.26375e-05
3.35567e-05
5.36724e-06
-2.93043e-05
2.01853e-05
6.04661e-06
-3.76757e-05
5.07562e-06
-3.70472e-05
6.37794e-05
3.19141e-06
-8.89295e-07
6.39625e-05
3.18436e-06
-1.37106e-06
6.36952e-05
2.63263e-06
-1.70885e-06
6.31784e-05
2.23753e-06
-2.12121e-06
6.25076e-05
2.09919e-06
-2.69893e-06
6.16787e-05
2.16962e-06
-3.47742e-06
6.06494e-05
2.41711e-06
-4.50549e-06
5.93516e-05
2.82865e-06
-5.85272e-06
5.76879e-05
3.40488e-06
-7.61659e-06
5.55185e-05
4.15416e-06
-9.93141e-06
5.26337e-05
5.08553e-06
-1.298e-05
4.86785e-05
6.18966e-06
-1.69905e-05
4.30785e-05
7.46106e-06
-2.22894e-05
3.44915e-05
8.70978e-06
-2.88964e-05
2.06649e-05
9.92613e-06
-3.72098e-05
8.6686e-06
-3.66342e-05
6.31906e-05
2.54267e-06
-8.56177e-07
6.34714e-05
2.93487e-06
-1.32318e-06
6.34114e-05
2.69171e-06
-1.65013e-06
6.30996e-05
2.50695e-06
-2.04829e-06
6.25976e-05
2.50774e-06
-2.60483e-06
6.19116e-05
2.70013e-06
-3.35298e-06
6.10134e-05
3.08234e-06
-4.33871e-06
5.9845e-05
3.66145e-06
-5.62787e-06
5.83145e-05
4.45532e-06
-7.3132e-06
5.62803e-05
5.49081e-06
-9.52332e-06
5.3521e-05
6.7993e-06
-1.24348e-05
4.96553e-05
8.39783e-06
-1.62716e-05
4.40587e-05
1.03055e-05
-2.13524e-05
3.53235e-05
1.23355e-05
-2.7729e-05
2.1103e-05
1.442e-05
-3.57711e-05
1.29537e-05
-3.53219e-05
6.29432e-05
2.14387e-06
-8.11086e-07
6.32277e-05
2.68532e-06
-1.25795e-06
6.32712e-05
2.65186e-06
-1.5703e-06
6.31041e-05
2.63733e-06
-1.9492e-06
6.27532e-05
2.77259e-06
-2.47685e-06
6.22198e-05
3.08805e-06
-3.18346e-06
6.14804e-05
3.60257e-06
-4.1109e-06
6.0484e-05
4.34165e-06
-5.3195e-06
5.91442e-05
5.34295e-06
-6.89474e-06
5.73197e-05
6.65847e-06
-8.95601e-06
5.47794e-05
8.35484e-06
-1.16689e-05
5.1111e-05
1.05007e-05
-1.52482e-05
4.56297e-05
1.31795e-05
-1.99954e-05
3.67832e-05
1.62963e-05
-2.60076e-05
2.20466e-05
1.98116e-05
-3.35984e-05
1.86349e-05
-3.33225e-05
6.2845e-05
1.84627e-06
-7.57717e-07
6.31386e-05
2.43106e-06
-1.18067e-06
6.32631e-05
2.53636e-06
-1.47571e-06
6.32178e-05
2.65262e-06
-1.83165e-06
6.30093e-05
2.90393e-06
-2.32472e-06
6.26351e-05
3.32878e-06
-2.98135e-06
6.20764e-05
3.95894e-06
-3.83814e-06
6.12906e-05
4.83527e-06
-4.9481e-06
6.02005e-05
6.01583e-06
-6.38665e-06
5.86708e-05
7.5836e-06
-8.25979e-06
5.6465e-05
9.65594e-06
-1.07158e-05
5.31307e-05
1.23944e-05
-1.39534e-05
4.79e-05
1.60037e-05
-1.82445e-05
3.89627e-05
2.06645e-05
-2.37449e-05
2.35555e-05
2.64219e-05
-3.06794e-05
2.64463e-05
-3.06392e-05
6.28261e-05
1.57094e-06
-6.98028e-07
6.31528e-05
2.14862e-06
-1.09423e-06
6.33572e-05
2.34703e-06
-1.36988e-06
6.34253e-05
2.56218e-06
-1.70001e-06
6.33558e-05
2.90627e-06
-2.15406e-06
6.31472e-05
3.41764e-06
-2.75406e-06
6.27884e-05
4.13456e-06
-3.53025e-06
6.22514e-05
5.1081e-06
-4.52651e-06
6.14804e-05
6.41149e-06
-5.80504e-06
6.03717e-05
8.1527e-06
-7.45273e-06
5.87348e-05
1.04931e-05
-9.59003e-06
5.61652e-05
1.37017e-05
-1.23805e-05
5.19383e-05
1.81433e-05
-1.60296e-05
4.39092e-05
2.47093e-05
-2.07194e-05
2.85245e-05
3.41476e-05
-2.64904e-05
4.07424e-05
-2.65121e-05
6.28517e-05
-6.3455e-07
1.27362e-06
6.32365e-05
-1.00231e-06
1.81333e-06
6.35272e-05
-1.25735e-06
2.07787e-06
6.37059e-05
-1.55998e-06
2.36917e-06
6.37724e-05
-1.9724e-06
2.78335e-06
6.37309e-05
-2.51177e-06
3.35417e-06
6.35814e-05
-3.20132e-06
4.12183e-06
6.33127e-05
-4.07469e-06
5.14306e-06
6.28925e-05
-5.17911e-06
6.50215e-06
6.22462e-05
-6.57986e-06
8.33051e-06
6.12133e-05
-8.36659e-06
1.08404e-05
5.93975e-05
-1.06659e-05
1.44457e-05
5.60644e-05
-1.36184e-05
1.97165e-05
4.87753e-05
-1.74574e-05
2.86004e-05
3.40175e-05
-2.20359e-05
4.23585e-05
-2.24492e-05
6.18887e-05
5.635e-05
6.12865e-06
-6.93473e-07
5.32224e-05
3.07656e-06
-1.05408e-06
5.13907e-05
1.74654e-06
-1.29972e-06
5.0208e-05
1.05337e-06
-1.60279e-06
4.9211e-05
8.0834e-07
-2.03143e-06
4.81901e-05
7.54072e-07
-2.61034e-06
4.70159e-05
8.04054e-07
-3.37388e-06
4.55803e-05
9.24909e-07
-4.36883e-06
4.37671e-05
1.10493e-06
-5.65692e-06
4.14298e-05
1.34064e-06
-7.31615e-06
3.83652e-05
1.63081e-06
-9.43992e-06
3.4288e-05
1.95713e-06
-1.21136e-05
2.87434e-05
2.34122e-06
-1.54609e-05
2.12279e-05
2.60502e-06
-1.9236e-05
1.07801e-05
2.98705e-06
-2.36224e-05
2.23778e-06
-2.20442e-05
6.41413e-05
4.45377e-06
-8.65475e-07
6.37745e-05
3.3726e-06
-1.31384e-06
6.29992e-05
2.41018e-06
-1.61479e-06
6.20712e-05
1.81753e-06
-1.98064e-06
6.10531e-05
1.59187e-06
-2.49638e-06
5.98908e-05
1.58867e-06
-3.19427e-06
5.84986e-05
1.7448e-06
-4.11631e-06
5.67704e-05
2.03339e-06
-5.31953e-06
5.45723e-05
2.44667e-06
-6.87925e-06
5.17253e-05
2.98571e-06
-8.89092e-06
4.79784e-05
3.65247e-06
-1.14694e-05
4.296e-05
4.42989e-06
-1.47222e-05
3.61419e-05
5.31932e-06
-1.87975e-05
2.67432e-05
6.12417e-06
-2.34247e-05
1.38611e-05
6.95079e-06
-2.87574e-05
5.88789e-06
-2.68358e-05
6.36954e-05
3.22604e-06
-8.56983e-07
6.37641e-05
3.23482e-06
-1.30199e-06
6.33708e-05
2.69398e-06
-1.59933e-06
6.27136e-05
2.31348e-06
-1.95996e-06
6.18773e-05
2.19711e-06
-2.46788e-06
6.0844e-05
2.29907e-06
-3.15452e-06
5.95535e-05
2.59062e-06
-4.06079e-06
5.7914e-05
3.06267e-06
-5.24246e-06
5.57966e-05
3.72091e-06
-6.77344e-06
5.30189e-05
4.5799e-06
-8.74788e-06
4.93157e-05
5.65561e-06
-1.12799e-05
4.42889e-05
6.94381e-06
-1.44777e-05
3.73623e-05
8.44785e-06
-1.84913e-05
2.77068e-05
9.94559e-06
-2.30624e-05
1.43349e-05
1.14539e-05
-2.83411e-05
1.00471e-05
-2.64581e-05
6.31093e-05
2.58763e-06
-8.27091e-07
6.32796e-05
3.00013e-06
-1.2588e-06
6.30985e-05
2.77134e-06
-1.54637e-06
6.26522e-05
2.60572e-06
-1.89423e-06
6.19923e-05
2.63533e-06
-2.38317e-06
6.11118e-05
2.86923e-06
-3.04267e-06
5.99652e-05
3.30977e-06
-3.91125e-06
5.84719e-05
3.96967e-06
-5.0415e-06
5.65088e-05
4.87426e-06
-6.5035e-06
5.38923e-05
6.06007e-06
-8.38696e-06
5.03443e-05
7.57036e-06
-1.08016e-05
4.54369e-05
9.43287e-06
-1.38533e-05
3.85345e-05
1.16867e-05
-1.76887e-05
2.87265e-05
1.41018e-05
-2.20772e-05
1.48964e-05
1.66679e-05
-2.7155e-05
1.50167e-05
-2.53946e-05
6.28656e-05
2.19729e-06
-7.86376e-07
6.30449e-05
2.76279e-06
-1.19992e-06
6.29738e-05
2.74654e-06
-1.47435e-06
6.26803e-05
2.75494e-06
-1.80492e-06
6.21819e-05
2.92482e-06
-2.26799e-06
6.14678e-05
3.29034e-06
-2.89041e-06
6.04981e-05
3.87569e-06
-3.70719e-06
5.92009e-05
4.71376e-06
-4.76634e-06
5.746e-05
5.8525e-06
-6.13208e-06
5.50932e-05
7.35789e-06
-7.88709e-06
5.18128e-05
9.31533e-06
-1.01334e-05
4.71562e-05
1.18135e-05
-1.29721e-05
4.04151e-05
1.49735e-05
-1.65412e-05
3.05043e-05
1.8656e-05
-2.06511e-05
1.60552e-05
2.29264e-05
-2.54076e-05
2.15732e-05
-2.38234e-05
6.27718e-05
1.90595e-06
-7.38197e-07
6.29665e-05
2.51757e-06
-1.13017e-06
6.29842e-05
2.64218e-06
-1.38904e-06
6.28223e-05
2.78421e-06
-1.69901e-06
6.2479e-05
3.0745e-06
-2.13113e-06
6.19411e-05
3.55596e-06
-2.70899e-06
6.11751e-05
4.2667e-06
-3.46314e-06
6.01195e-05
5.2567e-06
-4.43554e-06
5.86706e-05
6.59724e-06
-5.68242e-06
5.66546e-05
8.3904e-06
-7.27633e-06
5.37801e-05
1.07814e-05
-9.30738e-06
4.95408e-05
1.39668e-05
-1.18674e-05
4.31298e-05
1.8218e-05
-1.5078e-05
3.31555e-05
2.36891e-05
-1.88037e-05
1.78921e-05
3.06095e-05
-2.30991e-05
3.05718e-05
-2.17453e-05
6.27578e-05
1.63441e-06
-6.84324e-07
6.29928e-05
2.24056e-06
-1.05217e-06
6.30992e-05
2.45954e-06
-1.29361e-06
6.30617e-05
2.70214e-06
-1.58045e-06
6.2872e-05
3.08781e-06
-1.97769e-06
6.25193e-05
3.65971e-06
-2.50515e-06
6.19807e-05
4.46314e-06
-3.18802e-06
6.12122e-05
5.55947e-06
-4.06083e-06
6.01366e-05
7.03728e-06
-5.1695e-06
5.86191e-05
9.02769e-06
-6.57253e-06
5.64239e-05
1.17278e-05
-8.34122e-06
5.30996e-05
1.54579e-05
-1.05474e-05
4.78784e-05
2.0684e-05
-1.32743e-05
3.89516e-05
2.83279e-05
-1.64314e-05
2.35516e-05
3.94863e-05
-1.99671e-05
4.63996e-05
-1.87881e-05
6.27887e-05
-6.27043e-07
1.33822e-06
6.30893e-05
-9.69239e-07
1.90686e-06
6.32914e-05
-1.19216e-06
2.19229e-06
6.33764e-05
-1.45436e-06
2.51144e-06
6.33385e-05
-1.81441e-06
2.96779e-06
6.31743e-05
-2.28797e-06
3.60005e-06
6.28749e-05
-2.89437e-06
4.45564e-06
6.24173e-05
-3.6598e-06
5.60217e-06
6.17534e-05
-4.61855e-06
7.14059e-06
6.07857e-05
-5.8132e-06
9.22874e-06
5.93185e-05
-7.29395e-06
1.21224e-05
5.69155e-05
-9.11118e-06
1.63063e-05
5.28003e-05
-1.13088e-05
2.24896e-05
4.47821e-05
-1.38584e-05
3.27471e-05
2.99399e-05
-1.6589e-05
4.88816e-05
-1.5774e-05
6.96643e-05
5.62887e-05
6.13756e-06
-6.19771e-07
5.30761e-05
3.09084e-06
-9.32248e-07
5.11507e-05
1.76311e-06
-1.13745e-06
4.98632e-05
1.07378e-06
-1.38913e-06
4.87432e-05
8.34582e-07
-1.74597e-06
4.75724e-05
7.8863e-07
-2.22819e-06
4.6211e-05
8.50127e-07
-2.86261e-06
4.45397e-05
9.866e-07
-3.6841e-06
4.24315e-05
1.1875e-06
-4.73618e-06
3.9734e-05
1.45078e-06
-6.0695e-06
3.62543e-05
1.77673e-06
-7.73688e-06
3.17589e-05
2.14987e-06
-9.76815e-06
2.59111e-05
2.59196e-06
-1.2205e-05
1.85015e-05
2.93462e-06
-1.47611e-05
8.97681e-06
3.39567e-06
-1.74933e-05
2.68662e-06
-1.57537e-05
6.40675e-05
4.47444e-06
-7.69814e-07
6.35995e-05
3.40305e-06
-1.15806e-06
6.2711e-05
2.44684e-06
-1.41005e-06
6.16557e-05
1.86278e-06
-1.71436e-06
6.04881e-05
1.65005e-06
-2.14424e-06
5.91434e-05
1.6653e-06
-2.72618e-06
5.75233e-05
1.84699e-06
-3.49307e-06
5.55076e-05
2.17027e-06
-4.48757e-06
5.2949e-05
2.62987e-06
-5.76304e-06
4.9661e-05
3.22974e-06
-7.38181e-06
4.54031e-05
3.97463e-06
-9.40942e-06
3.98663e-05
4.84963e-06
-1.18851e-05
3.26606e-05
5.85734e-06
-1.48572e-05
2.33783e-05
6.79099e-06
-1.79987e-05
1.15879e-05
7.75289e-06
-2.13243e-05
6.6358e-06
-1.91965e-05
6.36229e-05
3.25731e-06
-7.62754e-07
6.35918e-05
3.28036e-06
-1.14823e-06
6.30872e-05
2.74931e-06
-1.39716e-06
6.23051e-05
2.38192e-06
-1.69702e-06
6.13223e-05
2.28523e-06
-2.12029e-06
6.01105e-05
2.41534e-06
-2.69275e-06
5.85971e-05
2.74604e-06
-3.44643e-06
5.66764e-05
3.27152e-06
-4.423e-06
5.4206e-05
4.00156e-06
-5.67472e-06
5.09954e-05
4.95542e-06
-7.26299e-06
4.67892e-05
6.15391e-06
-9.25294e-06
4.12501e-05
7.59545e-06
-1.16844e-05
3.39368e-05
9.28694e-06
-1.46075e-05
2.43908e-05
1.09784e-05
-1.77039e-05
1.20913e-05
1.26979e-05
-2.09865e-05
1.11583e-05
-1.88888e-05
6.30393e-05
2.62821e-06
-7.373e-07
6.31133e-05
3.05903e-06
-1.11144e-06
6.28252e-05
2.84316e-06
-1.35209e-06
6.22593e-05
2.6947e-06
-1.64114e-06
6.14596e-05
2.7501e-06
-2.04837e-06
6.04093e-05
3.02101e-06
-2.59801e-06
5.90509e-05
3.51327e-06
-3.32012e-06
5.72906e-05
4.24425e-06
-4.25391e-06
5.49922e-05
5.24521e-06
-5.44874e-06
5.19637e-05
6.55981e-06
-6.9628e-06
4.79353e-05
8.23915e-06
-8.85842e-06
4.25362e-05
1.03159e-05
-1.11747e-05
3.52581e-05
1.28374e-05
-1.3961e-05
2.55489e-05
1.55311e-05
-1.69208e-05
1.2739e-05
1.84141e-05
-2.00614e-05
1.65728e-05
-1.80696e-05
6.2799e-05
2.2455e-06
-7.02611e-07
6.28867e-05
2.8327e-06
-1.0613e-06
6.27144e-05
2.83192e-06
-1.2908e-06
6.23085e-05
2.86086e-06
-1.56523e-06
6.16796e-05
3.06168e-06
-1.95064e-06
6.08075e-05
3.47177e-06
-2.46912e-06
5.96418e-05
4.11976e-06
-3.14794e-06
5.80979e-05
5.04459e-06
-4.02275e-06
5.60473e-05
6.30221e-06
-5.13849e-06
5.32996e-05
7.96873e-06
-6.54838e-06
4.95737e-05
1.01415e-05
-8.30981e-06
4.44588e-05
1.29184e-05
-1.04597e-05
3.7362e-05
1.64373e-05
-1.30443e-05
2.75376e-05
2.05043e-05
-1.57998e-05
1.40255e-05
2.52367e-05
-1.87181e-05
2.3654e-05
-1.68786e-05
6.27091e-05
1.95981e-06
-6.61571e-07
6.28179e-05
2.59561e-06
-1.0019e-06
6.27414e-05
2.73758e-06
-1.2182e-06
6.24758e-05
2.90269e-06
-1.47523e-06
6.20131e-05
3.22778e-06
-1.83457e-06
6.1332e-05
3.75955e-06
-2.31566e-06
6.03895e-05
4.54138e-06
-2.94226e-06
5.91133e-05
5.6306e-06
-3.74533e-06
5.73883e-05
7.10858e-06
-4.76388e-06
5.50339e-05
9.09084e-06
-6.04397e-06
5.17633e-05
1.17399e-05
-7.63522e-06
4.71156e-05
1.52686e-05
-9.56987e-06
4.03826e-05
1.99781e-05
-1.18858e-05
3.0483e-05
2.59636e-05
-1.43635e-05
1.60421e-05
3.3544e-05
-1.69655e-05
3.32718e-05
-1.53206e-05
6.26995e-05
1.69167e-06
-6.15688e-07
6.28549e-05
2.3235e-06
-9.35481e-07
6.2875e-05
2.56094e-06
-1.13703e-06
6.27436e-05
2.82812e-06
-1.37452e-06
6.24473e-05
3.25089e-06
-1.7045e-06
6.19686e-05
3.87652e-06
-2.14336e-06
6.12765e-05
4.75611e-06
-2.71066e-06
6.03187e-05
5.95928e-06
-3.43169e-06
5.90095e-05
7.58614e-06
-4.33789e-06
5.72097e-05
9.78369e-06
-5.46557e-06
5.46902e-05
1.27705e-05
-6.85235e-06
5.10412e-05
1.68899e-05
-8.51966e-06
4.55782e-05
2.26516e-05
-1.04849e-05
3.67541e-05
3.0928e-05
-1.25718e-05
2.20324e-05
4.29816e-05
-1.4683e-05
4.97374e-05
-1.32211e-05
6.2735e-05
-5.66909e-07
1.39649e-06
6.2963e-05
-8.64878e-07
1.99122e-06
6.30871e-05
-1.05074e-06
2.29541e-06
6.30888e-05
-1.26743e-06
2.63948e-06
6.29579e-05
-1.56613e-06
3.13344e-06
6.26862e-05
-1.9599e-06
3.82017e-06
6.22586e-05
-2.46369e-06
4.75308e-06
6.16462e-05
-3.09645e-06
6.00831e-06
6.07957e-05
-3.88111e-06
7.69918e-06
5.96079e-05
-4.84288e-06
1.00012e-05
5.78948e-05
-6.00562e-06
1.31954e-05
5.52542e-05
-7.37895e-06
1.77983e-05
5.09775e-05
-8.95779e-06
2.45772e-05
4.30839e-05
-1.06222e-05
3.55854e-05
2.88118e-05
-1.22049e-05
5.28697e-05
-1.10503e-05
7.38254e-05
5.62383e-05
6.14515e-06
-5.03224e-07
5.29551e-05
3.10299e-06
-7.51988e-07
5.09515e-05
1.7772e-06
-9.11095e-07
4.95765e-05
1.09114e-06
-1.10523e-06
4.83543e-05
8.56852e-07
-1.38066e-06
4.70608e-05
8.17902e-07
-1.75258e-06
4.55495e-05
8.8905e-07
-2.24037e-06
4.3695e-05
1.03853e-06
-2.86811e-06
4.13664e-05
1.25664e-06
-3.66421e-06
3.84134e-05
1.54229e-06
-4.65886e-06
3.46582e-05
1.89645e-06
-5.87811e-06
2.99087e-05
2.30474e-06
-7.3234e-06
2.39136e-05
2.78612e-06
-8.99597e-06
1.66347e-05
3.17556e-06
-1.06578e-05
7.79779e-06
3.66911e-06
-1.23255e-05
2.95095e-06
-1.09065e-05
6.40065e-05
4.49206e-06
-6.23189e-07
6.34545e-05
3.42899e-06
-9.32078e-07
6.24714e-05
2.47803e-06
-1.12783e-06
6.13098e-05
1.90125e-06
-1.36282e-06
6.00179e-05
1.69943e-06
-1.69494e-06
5.85236e-05
1.73019e-06
-2.14416e-06
5.67206e-05
1.93327e-06
-2.73429e-06
5.44811e-05
2.2854e-06
-3.49492e-06
5.16525e-05
2.78319e-06
-4.46103e-06
4.80505e-05
3.43256e-06
-5.67004e-06
4.34524e-05
4.23989e-06
-7.15475e-06
3.76003e-05
5.19095e-06
-8.91923e-06
3.02054e-05
6.28695e-06
-1.09632e-05
2.1083e-05
7.31135e-06
-1.30121e-05
1.0116e-05
8.35876e-06
-1.50469e-05
7.17951e-06
-1.33085e-05
6.35631e-05
3.28394e-06
-6.17709e-07
6.34492e-05
3.31915e-06
-9.24485e-07
6.28515e-05
2.7964e-06
-1.11787e-06
6.1965e-05
2.4401e-06
-1.34937e-06
6.08605e-05
2.35999e-06
-1.67634e-06
5.95024e-05
2.51375e-06
-2.1182e-06
5.78102e-05
2.87716e-06
-2.69813e-06
5.56706e-05
3.44698e-06
-3.44499e-06
5.29361e-05
4.23599e-06
-4.39299e-06
4.94177e-05
5.26682e-06
-5.5789e-06
4.48768e-05
6.56323e-06
-7.03534e-06
3.90256e-05
8.12451e-06
-8.76681e-06
3.15217e-05
9.95799e-06
-1.07747e-05
2.21277e-05
1.17915e-05
-1.279e-05
1.06361e-05
1.36574e-05
-1.47935e-05
1.20056e-05
-1.30784e-05
6.29816e-05
2.66278e-06
-5.97717e-07
6.29757e-05
3.10919e-06
-8.95572e-07
6.25982e-05
2.90426e-06
-1.08246e-06
6.19323e-05
2.7703e-06
-1.30551e-06
6.10165e-05
2.84743e-06
-1.61999e-06
5.9827e-05
3.14938e-06
-2.04413e-06
5.82989e-05
3.68478e-06
-2.59965e-06
5.63311e-05
4.47455e-06
-3.31364e-06
5.37822e-05
5.55436e-06
-4.21826e-06
5.04615e-05
6.97287e-06
-5.34816e-06
4.61145e-05
8.78613e-06
-6.73431e-06
4.04166e-05
1.10289e-05
-8.3812e-06
3.29524e-05
1.37522e-05
-1.02909e-05
2.3383e-05
1.66502e-05
-1.22101e-05
1.13412e-05
1.97556e-05
-1.41178e-05
1.77624e-05
-1.24846e-05
6.2744e-05
2.28656e-06
-5.70435e-07
6.27559e-05
2.89222e-06
-8.56147e-07
6.24991e-05
2.90454e-06
-1.03432e-06
6.19993e-05
2.95084e-06
-1.24597e-06
6.12619e-05
3.1777e-06
-1.54347e-06
6.02604e-05
3.62511e-06
-1.94343e-06
5.89376e-05
4.32521e-06
-2.46556e-06
5.72022e-05
5.32158e-06
-3.13433e-06
5.49209e-05
6.67601e-06
-3.97887e-06
5.19043e-05
8.47166e-06
-5.03052e-06
4.78844e-05
1.08135e-05
-6.31734e-06
4.24925e-05
1.38043e-05
-7.84327e-06
3.52196e-05
1.75906e-05
-9.6098e-06
2.55208e-05
2.19369e-05
-1.13877e-05
1.27146e-05
2.6992e-05
-1.31483e-05
2.52314e-05
-1.16325e-05
6.26575e-05
2.00568e-06
-5.38169e-07
6.26952e-05
2.66205e-06
-8.09455e-07
6.25401e-05
2.81871e-06
-9.77308e-07
6.21878e-05
3.00329e-06
-1.17537e-06
6.16259e-05
3.35766e-06
-1.45259e-06
6.08274e-05
3.9315e-06
-1.82361e-06
5.97436e-05
4.77234e-06
-2.3055e-06
5.82962e-05
5.94307e-06
-2.91944e-06
5.63663e-05
7.53239e-06
-3.69043e-06
5.3774e-05
9.6651e-06
-4.6451e-06
5.02444e-05
1.25148e-05
-5.80684e-06
4.53529e-05
1.63035e-05
-7.17758e-06
3.84633e-05
2.13499e-05
-8.75546e-06
2.86764e-05
2.77035e-05
-1.03432e-05
1.48573e-05
3.57417e-05
-1.18962e-05
3.52963e-05
-1.05278e-05
6.26517e-05
1.74043e-06
-5.02099e-07
6.27414e-05
2.39409e-06
-7.57255e-07
6.26895e-05
2.64717e-06
-9.13564e-07
6.24796e-05
2.93507e-06
-1.0964e-06
6.20945e-05
3.38901e-06
-1.35081e-06
6.15123e-05
4.05951e-06
-1.68916e-06
6.06973e-05
5.00223e-06
-2.12548e-06
5.95926e-05
6.29293e-06
-2.6769e-06
5.81103e-05
8.0401e-06
-3.36326e-06
5.61131e-05
1.04016e-05
-4.20491e-06
5.33837e-05
1.361e-05
-5.21808e-06
4.95452e-05
1.80218e-05
-6.39949e-06
4.39729e-05
2.41745e-05
-7.73726e-06
3.52718e-05
3.29005e-05
-9.06769e-06
2.10678e-05
4.55747e-05
-1.0312e-05
5.22351e-05
-9.09185e-06
6.26912e-05
-4.63755e-07
1.4461e-06
6.28591e-05
-7.0177e-07
2.06303e-06
6.29183e-05
-8.45815e-07
2.38309e-06
6.28502e-05
-1.01245e-06
2.74816e-06
6.2642e-05
-1.24257e-06
3.27371e-06
6.22818e-05
-1.54608e-06
4.00591e-06
6.17511e-05
-1.93365e-06
5.0028e-06
6.10186e-05
-2.41793e-06
6.34691e-06
6.00302e-05
-3.01296e-06
8.16035e-06
5.86903e-05
-3.73188e-06
1.06306e-05
5.68224e-05
-4.58259e-06
1.40549e-05
5.40529e-05
-5.55586e-06
1.89682e-05
4.97221e-05
-6.62801e-06
2.61755e-05
4.19696e-05
-7.67738e-06
3.77082e-05
2.81378e-05
-8.58431e-06
5.5786e-05
-7.58972e-06
7.69124e-05
5.61996e-05
6.15109e-06
-3.53891e-07
5.2862e-05
3.11255e-06
-5.26933e-07
5.0798e-05
1.78825e-06
-6.35356e-07
4.93553e-05
1.10476e-06
-7.67327e-07
4.80549e-05
8.74306e-07
-9.54504e-07
4.66684e-05
8.40799e-07
-1.20696e-06
4.50458e-05
9.19414e-07
-1.53713e-06
4.30587e-05
1.07889e-06
-1.95989e-06
4.05763e-05
1.31015e-06
-2.49194e-06
3.74541e-05
1.61272e-06
-3.14945e-06
3.35315e-05
1.98799e-06
-3.94347e-06
2.86518e-05
2.42235e-06
-4.86608e-06
2.26297e-05
2.93273e-06
-5.90658e-06
1.55175e-05
3.35693e-06
-6.90259e-06
7.17226e-06
3.87664e-06
-7.85681e-06
3.15171e-06
-6.88553e-06
6.39596e-05
4.50591e-06
-4.37623e-07
6.33429e-05
3.44939e-06
-6.52158e-07
6.22866e-05
2.50251e-06
-7.85839e-07
6.10428e-05
1.93143e-06
-9.45636e-07
5.96555e-05
1.7381e-06
-1.1715e-06
5.80479e-05
1.7809e-06
-1.47662e-06
5.61088e-05
2.00051e-06
-1.87633e-06
5.37069e-05
2.3748e-06
-2.38896e-06
5.06895e-05
2.90168e-06
-3.03514e-06
4.68789e-05
3.5884e-06
-3.83511e-06
4.2073e-05
4.44229e-06
-4.80309e-06
3.60577e-05
5.4493e-06
-5.93092e-06
2.86224e-05
6.60913e-06
-7.20435e-06
1.97036e-05
7.69847e-06
-8.43475e-06
9.32798e-06
8.80584e-06
-9.60052e-06
7.5797e-06
-8.40801e-06
6.35171e-05
3.30488e-06
-4.3377e-07
6.33393e-05
3.34964e-06
-6.46961e-07
6.26697e-05
2.83338e-06
-7.79116e-07
6.17025e-05
2.48573e-06
-9.36506e-07
6.05046e-05
2.41853e-06
-1.15886e-06
5.90357e-05
2.59063e-06
-1.45896e-06
5.72105e-05
2.97928e-06
-1.85176e-06
5.49123e-05
3.58307e-06
-2.35509e-06
5.19932e-05
4.41692e-06
-2.98912e-06
4.82708e-05
5.50561e-06
-3.77368e-06
4.3526e-05
6.87465e-06
-4.72293e-06
3.75141e-05
8.52339e-06
-5.82903e-06
2.99691e-05
1.04584e-05
-7.07895e-06
2.07735e-05
1.23916e-05
-8.28743e-06
9.86228e-06
1.43566e-05
-9.43316e-06
1.26206e-05
-8.25648e-06
6.29373e-05
2.68996e-06
-4.20059e-07
6.28698e-05
3.14861e-06
-6.27037e-07
6.24232e-05
2.95224e-06
-7.54724e-07
6.16801e-05
2.82959e-06
-9.06305e-07
6.06751e-05
2.9236e-06
-1.12012e-06
5.93802e-05
3.2496e-06
-1.40813e-06
5.77259e-05
3.81822e-06
-1.78434e-06
5.56079e-05
4.65295e-06
-2.26544e-06
5.28844e-05
5.79248e-06
-2.87032e-06
4.93706e-05
7.28875e-06
-3.61752e-06
4.48306e-05
9.2007e-06
-4.52037e-06
3.89803e-05
1.15637e-05
-5.57124e-06
3.14765e-05
1.44294e-05
-6.75815e-06
2.20954e-05
1.74683e-05
-7.90576e-06
1.06059e-05
2.07209e-05
-8.99254e-06
1.86135e-05
-7.87109e-06
6.27019e-05
2.31884e-06
-4.01248e-07
6.26553e-05
2.93899e-06
-5.99878e-07
6.23332e-05
2.96156e-06
-7.21604e-07
6.17609e-05
3.02138e-06
-8.65378e-07
6.09401e-05
3.26846e-06
-1.0676e-06
5.98407e-05
3.74474e-06
-1.33915e-06
5.84012e-05
4.4849e-06
-1.69271e-06
5.65273e-05
5.53581e-06
-2.14331e-06
5.40856e-05
6.96328e-06
-2.70793e-06
5.08919e-05
8.85505e-06
-3.40317e-06
4.66954e-05
1.13206e-05
-4.2408e-06
4.11645e-05
1.44647e-05
-5.21328e-06
3.3856e-05
1.84372e-05
-6.30916e-06
2.43327e-05
2.29723e-05
-7.36843e-06
1.20355e-05
2.82362e-05
-8.36633e-06
2.63407e-05
-7.32367e-06
6.2618e-05
2.04173e-06
-3.79026e-07
6.2601e-05
2.71426e-06
-5.67716e-07
6.23852e-05
2.8824e-06
-6.82354e-07
6.19659e-05
3.08215e-06
-8.16837e-07
6.13277e-05
3.45922e-06
-1.00521e-06
6.04404e-05
4.06556e-06
-1.25706e-06
5.92515e-05
4.95167e-06
-1.58337e-06
5.76805e-05
6.18438e-06
-1.99704e-06
5.56085e-05
7.85736e-06
-2.51252e-06
5.28607e-05
1.01014e-05
-3.14358e-06
4.91774e-05
1.30965e-05
-3.89946e-06
4.41672e-05
1.70691e-05
-4.77189e-06
3.72513e-05
2.23461e-05
-5.7484e-06
2.76268e-05
2.89426e-05
-6.68902e-06
1.42588e-05
3.72692e-05
-7.56116e-06
3.66877e-05
-6.61563e-06
6.26151e-05
1.77875e-06
-3.54178e-07
6.26543e-05
2.44956e-06
-5.31766e-07
6.25467e-05
2.71485e-06
-6.38487e-07
6.22762e-05
3.01888e-06
-7.62555e-07
6.1823e-05
3.49699e-06
-9.35372e-07
6.11622e-05
4.20213e-06
-1.16502e-06
6.02557e-05
5.1932e-06
-1.46051e-06
5.90451e-05
6.55033e-06
-1.83219e-06
5.74429e-05
8.38761e-06
-2.29133e-06
5.53175e-05
1.08699e-05
-2.84805e-06
5.24659e-05
1.42378e-05
-3.5077e-06
4.85407e-05
1.88546e-05
-4.25979e-06
4.29656e-05
2.52714e-05
-5.08752e-06
3.44255e-05
3.4288e-05
-5.87284e-06
2.0603e-05
4.73449e-05
-6.56525e-06
5.39199e-05
-5.72067e-06
6.26577e-05
-3.27768e-07
1.48509e-06
6.27796e-05
-4.93554e-07
2.11944e-06
6.27886e-05
-5.91868e-07
2.45189e-06
6.26666e-05
-7.04861e-07
2.83332e-06
6.23987e-05
-8.61117e-07
3.38335e-06
6.19713e-05
-1.0671e-06
4.15062e-06
6.1364e-05
-1.32964e-06
5.19648e-06
6.05447e-05
-1.65628e-06
6.60793e-06
5.94612e-05
-2.05471e-06
8.51292e-06
5.80236e-05
-2.53079e-06
1.11064e-05
5.60689e-05
-3.08522e-06
1.46951e-05
5.32491e-05
-3.70467e-06
1.98232e-05
4.89441e-05
-4.36652e-06
2.73149e-05
4.13555e-05
-4.97909e-06
3.91782e-05
2.78513e-05