/*--------------------------------*- C++ -*----------------------------------*\
| =========                 |                                                 |
| \\      /  F ield         | OpenFOAM: The Open Source CFD Toolbox           |
|  \\    /   O peration     | Version:  v1912                                 |
|   \\  /    A nd           | Website:  www.openfoam.com                      |
|    \\/     M anipulation  |                                                 |
\*---------------------------------------------------------------------------*/
FoamFile
{
    version     2.0;
    format      ascii;
    class       volVectorField;
    location    "0.08/fluid";
    object      U;
}
// * * * * * * * * * * * * * * * * * * * * * * * * * * * * * * * * * * * * * //

dimensions      [0 1 -1 0 0 0 0];


internalField   nonuniform List<vector> 
14592
(
(0.0926667 0.00909924 -0.000906534)
(0.0877021 0.00398427 -0.00147327)
(0.0841133 0.00196112 -0.00193056)
(0.0822313 0.000973568 -0.00249943)
(0.0810599 0.000627093 -0.00328424)
(0.0799833 0.00051416 -0.00432632)
(0.0789094 0.000505488 -0.0056929)
(0.0776921 0.000552369 -0.00748562)
(0.0762416 0.000635439 -0.00985604)
(0.0744587 0.000745001 -0.0130331)
(0.0721367 0.000873577 -0.0173721)
(0.0693347 0.000987447 -0.0234762)
(0.064229 0.00111494 -0.0323169)
(0.0594556 0.000968863 -0.0458636)
(0.0431758 0.000984153 -0.0673913)
(0.0275671 -0.000431206 -0.0865279)
(0.103074 0.00784688 -0.00116614)
(0.102806 0.004713 -0.00187273)
(0.102524 0.00294756 -0.00242711)
(0.101358 0.00194405 -0.00310928)
(0.100395 0.00154596 -0.00404942)
(0.0992673 0.00144327 -0.00530142)
(0.0980386 0.00151504 -0.00694686)
(0.0965966 0.00170843 -0.00910847)
(0.0948519 0.00200028 -0.011969)
(0.0926899 0.00237868 -0.0158043)
(0.0898619 0.00283241 -0.0210421)
(0.0864033 0.00332356 -0.0284055)
(0.080198 0.00385151 -0.0390581)
(0.0741065 0.00414736 -0.0553491)
(0.0542058 0.00446781 -0.0810278)
(0.0348699 0.00301647 -0.103799)
(0.102179 0.00503462 -0.00115018)
(0.102339 0.00462475 -0.00185047)
(0.102873 0.00360522 -0.00239896)
(0.102179 0.00287189 -0.00307255)
(0.101565 0.00255493 -0.00399962)
(0.100659 0.00253523 -0.00523254)
(0.099591 0.00274222 -0.00685091)
(0.0982762 0.00313866 -0.0089751)
(0.0966399 0.00370813 -0.0117852)
(0.0945703 0.00444386 -0.0155546)
(0.0918045 0.00533766 -0.0207095)
(0.088368 0.00635653 -0.0279772)
(0.0820531 0.00747014 -0.0385227)
(0.0757639 0.00845427 -0.0547546)
(0.0552744 0.00930214 -0.0803927)
(0.03522 0.00786975 -0.103494)
(0.10126 0.00393222 -0.00109962)
(0.101384 0.00426602 -0.0017773)
(0.10223 0.00370671 -0.00230925)
(0.101874 0.00327648 -0.00296111)
(0.10155 0.00313758 -0.00385573)
(0.100874 0.00326485 -0.00504206)
(0.100001 0.00363132 -0.0065952)
(0.0988662 0.00422525 -0.00862949)
(0.0974059 0.00504864 -0.0113171)
(0.0955109 0.00611143 -0.0149212)
(0.0929064 0.00742295 -0.0198557)
(0.0896025 0.00897007 -0.0268368)
(0.0833075 0.010729 -0.0370047)
(0.0769297 0.0124906 -0.0528149)
(0.0559911 0.0141214 -0.077862)
(0.0353149 0.0125112 -0.101046)
(0.100893 0.00320833 -0.00103082)
(0.100941 0.00388789 -0.00167769)
(0.101877 0.00369871 -0.00218732)
(0.101727 0.00354005 -0.00280966)
(0.10163 0.0035941 -0.00365997)
(0.101175 0.00388885 -0.00478242)
(0.100522 0.00443229 -0.00624555)
(0.0996127 0.00523818 -0.00815462)
(0.0983927 0.00633125 -0.0106693)
(0.0967562 0.00774629 -0.014036)
(0.0944193 0.00952278 -0.018646)
(0.0913757 0.011685 -0.025191)
(0.0852485 0.0142361 -0.0347595)
(0.0789089 0.0169969 -0.0498524)
(0.0574687 0.0196998 -0.0738303)
(0.0359522 0.0178663 -0.0969963)
(0.100741 0.00273842 -0.000949339)
(0.100756 0.00352034 -0.00155964)
(0.101753 0.0035613 -0.00204278)
(0.101763 0.00360822 -0.00262993)
(0.101861 0.00383456 -0.00342713)
(0.101623 0.00428611 -0.00447258)
(0.101204 0.00499192 -0.00582629)
(0.100558 0.0059873 -0.0075813)
(0.0996392 0.00732228 -0.00987977)
(0.0983512 0.00906686 -0.0129431)
(0.0964092 0.0113161 -0.0171269)
(0.0937883 0.0141933 -0.02308)
(0.0880233 0.017841 -0.0318082)
(0.0818759 0.0223911 -0.0458602)
(0.0598452 0.0276862 -0.0682462)
(0.0372215 0.0275124 -0.0914296)
(0.100692 0.0023399 -0.000858173)
(0.100723 0.00313647 -0.00142755)
(0.101797 0.00333359 -0.001881)
(0.10195 0.00353782 -0.00242855)
(0.10223 0.00390778 -0.00316578)
(0.102204 0.00449267 -0.0041238)
(0.102034 0.00533338 -0.00535225)
(0.101684 0.00648097 -0.00692869)
(0.10113 0.00800645 -0.00897156)
(0.100306 0.0100102 -0.0116651)
(0.0989732 0.0126325 -0.0153044)
(0.0971646 0.0160828 -0.0204422)
(0.0925178 0.0205689 -0.0278922)
(0.0877682 0.0265425 -0.0400656)
(0.0665825 0.0336955 -0.0592149)
(0.0435878 0.0342599 -0.0811952)
(0.100694 0.00193952 -0.000761175)
(0.100783 0.0026993 -0.00128705)
(0.101963 0.0030033 -0.00170892)
(0.102254 0.00332743 -0.00221426)
(0.102708 0.00381005 -0.00288741)
(0.10289 0.00449592 -0.0037517)
(0.102972 0.00543113 -0.00484522)
(0.102934 0.00667789 -0.00622801)
(0.102776 0.00832718 -0.00799156)
(0.102463 0.0105196 -0.0102781)
(0.101805 0.0134827 -0.0133169)
(0.100833 0.0176654 -0.0175583)
(0.0973117 0.0237057 -0.0236407)
(0.0937484 0.0338965 -0.0338574)
(0.0732645 0.0498093 -0.0497773)
(0.0520686 0.0714828 -0.0714452)
(0.0926038 0.00910602 -0.00101029)
(0.0874999 0.00399672 -0.00157934)
(0.0837179 0.00197466 -0.0019997)
(0.0816537 0.000990128 -0.00252211)
(0.0802668 0.000648391 -0.00325373)
(0.0789314 0.000542248 -0.00423592)
(0.0775275 0.000543064 -0.00553099)
(0.0758772 0.000603032 -0.00722905)
(0.0738499 0.000704174 -0.00945724)
(0.0712962 0.000839261 -0.0123914)
(0.0679557 0.0010055 -0.0162694)
(0.0638443 0.00117894 -0.0213923)
(0.0572581 0.00140947 -0.0281685)
(0.0506428 0.00145887 -0.0366453)
(0.0342954 0.00179394 -0.0473979)
(0.0175374 0.000951286 -0.0464083)
(0.102998 0.00787039 -0.00127709)
(0.102566 0.00474881 -0.00198563)
(0.102053 0.00299005 -0.002498)
(0.100665 0.00199651 -0.0031265)
(0.0994416 0.00161353 -0.00400477)
(0.097999 0.00153246 -0.00518663)
(0.0963692 0.00163433 -0.00674801)
(0.0944008 0.00186893 -0.00879826)
(0.0919541 0.00221661 -0.0114918)
(0.0888515 0.00267012 -0.0150425)
(0.0847739 0.00322488 -0.0197414)
(0.0796963 0.00385168 -0.0259597)
(0.0716199 0.0045684 -0.0341973)
(0.0632116 0.00512026 -0.0445585)
(0.0430222 0.00579621 -0.0576379)
(0.0222819 0.00460422 -0.0565243)
(0.102105 0.00507912 -0.00126245)
(0.102102 0.00468969 -0.00196519)
(0.102409 0.00368389 -0.00247171)
(0.101497 0.00296919 -0.00309174)
(0.100626 0.00268032 -0.0039572)
(0.0994133 0.00270091 -0.0051205)
(0.0979526 0.00296416 -0.00665563)
(0.0961228 0.00343782 -0.0086697)
(0.0937987 0.00411199 -0.0113145)
(0.0908056 0.00498795 -0.0148016)
(0.0868088 0.00606711 -0.01942)
(0.0817741 0.00732422 -0.0255425)
(0.0735972 0.00874488 -0.0336693)
(0.0650046 0.0100671 -0.0439353)
(0.0441879 0.0113276 -0.0569145)
(0.0226745 0.00972589 -0.0558655)
(0.101188 0.00399221 -0.00121353)
(0.101155 0.00435331 -0.00189445)
(0.101781 0.0038131 -0.00238494)
(0.101216 0.00340837 -0.00298395)
(0.100647 0.0033079 -0.00381804)
(0.0996778 0.00349051 -0.00493633)
(0.0984316 0.00393471 -0.00640856)
(0.0968073 0.00463623 -0.00833616)
(0.0946924 0.00560694 -0.0108637)
(0.0919165 0.0068694 -0.0141937)
(0.0881325 0.00844818 -0.0186052)
(0.0832939 0.0103426 -0.0244638)
(0.0751869 0.0125536 -0.0322555)
(0.0665717 0.0148064 -0.0421637)
(0.0452524 0.0170436 -0.0547102)
(0.0230374 0.0150907 -0.0538393)
(0.100824 0.00328308 -0.00114693)
(0.100721 0.00399639 -0.00179808)
(0.101448 0.00383125 -0.00226698)
(0.101101 0.00370466 -0.00283746)
(0.100775 0.00380713 -0.00362875)
(0.100047 0.00417192 -0.00468542)
(0.0990474 0.00481441 -0.006071)
(0.097685 0.00575866 -0.00787854)
(0.0958588 0.00704354 -0.0102414)
(0.0934049 0.00872255 -0.0133479)
(0.0899677 0.0108588 -0.0174595)
(0.0854902 0.0134976 -0.022927)
(0.077635 0.0166811 -0.0302077)
(0.069174 0.0201361 -0.0395529)
(0.0472661 0.0237147 -0.0513883)
(0.0240831 0.0213608 -0.0507733)
(0.100675 0.00282423 -0.00106811)
(0.100548 0.00364481 -0.0016839)
(0.101349 0.00371356 -0.00212719)
(0.101176 0.00379759 -0.00266367)
(0.101064 0.00408012 -0.0034037)
(0.100577 0.00461334 -0.00438615)
(0.0998462 0.00543552 -0.00566662)
(0.0987929 0.00659525 -0.00732697)
(0.0973311 0.0081616 -0.00948512)
(0.0953116 0.0102315 -0.0123085)
(0.0923797 0.0129377 -0.0160319)
(0.0884681 0.0164466 -0.0209804)
(0.0810953 0.0209796 -0.0275647)
(0.0729932 0.0265935 -0.0361272)
(0.0503639 0.0333566 -0.046948)
(0.0258893 0.032708 -0.0467099)
(0.10063 0.00243341 -0.000979929)
(0.100528 0.00327201 -0.00155618)
(0.101421 0.00349951 -0.00197078)
(0.101406 0.00374435 -0.00246902)
(0.101498 0.00417594 -0.00315119)
(0.101252 0.00485075 -0.0040495)
(0.10081 0.00582031 -0.00520992)
(0.100109 0.00715134 -0.00670034)
(0.0990914 0.00893782 -0.00861826)
(0.0976502 0.0113134 -0.0111013)
(0.0954905 0.0144654 -0.0143401)
(0.092631 0.01866 -0.0186032)
(0.0866544 0.0241997 -0.024194)
(0.0803916 0.0314565 -0.031486)
(0.0586165 0.0404107 -0.0404559)
(0.0336438 0.0402548 -0.040298)
(0.100636 0.00203678 -0.000886147)
(0.100602 0.00284021 -0.00142036)
(0.101616 0.00317579 -0.00180445)
(0.101757 0.00354216 -0.00226194)
(0.102045 0.00408893 -0.00288234)
(0.102039 0.00486865 -0.00369054)
(0.101891 0.00593896 -0.00472185)
(0.101564 0.00737959 -0.00602851)
(0.101031 0.00930849 -0.00768501)
(0.100225 0.0119083 -0.00979567)
(0.0989092 0.0154724 -0.0125041)
(0.0971163 0.0205524 -0.0160222)
(0.0924842 0.0279616 -0.0205584)
(0.0877497 0.0401112 -0.0265662)
(0.0665773 0.0592579 -0.0337337)
(0.0435908 0.0812498 -0.0342962)
(0.0925496 0.00911245 -0.00102061)
(0.0873206 0.00400844 -0.00156163)
(0.0833624 0.00198746 -0.00193771)
(0.0811274 0.0010058 -0.00240295)
(0.0795373 0.000668527 -0.00305973)
(0.0779587 0.000568766 -0.00394611)
(0.0762482 0.000578445 -0.00511627)
(0.0742012 0.000650417 -0.00664573)
(0.0716516 0.000767548 -0.00863725)
(0.0684012 0.000923393 -0.011227)
(0.0641315 0.00111539 -0.0145908)
(0.0587506 0.00131948 -0.018925)
(0.0506309 0.00157834 -0.0245267)
(0.0419241 0.00165745 -0.0312052)
(0.025237 0.00196514 -0.0394266)
(0.00974653 0.00112266 -0.0381147)
(0.102933 0.00789265 -0.00127764)
(0.102352 0.00478266 -0.00195056)
(0.101629 0.00303026 -0.0024107)
(0.100033 0.00204615 -0.00297181)
(0.0985629 0.00167742 -0.00376156)
(0.0968246 0.00161672 -0.00482954)
(0.094822 0.00174687 -0.00624191)
(0.0923713 0.00201991 -0.00809055)
(0.0892894 0.00241902 -0.0105005)
(0.0853402 0.00294013 -0.0136374)
(0.0801337 0.00358139 -0.0177159)
(0.0735207 0.00431505 -0.0229768)
(0.063585 0.00515625 -0.0297735)
(0.0526881 0.0058377 -0.0379074)
(0.0320547 0.00661805 -0.0478298)
(0.0128337 0.00534797 -0.0461745)
(0.102041 0.00512127 -0.00126461)
(0.101891 0.00475115 -0.00193238)
(0.101991 0.00375835 -0.00238706)
(0.100875 0.00306126 -0.00294026)
(0.0997626 0.00279887 -0.00371815)
(0.0982598 0.0028574 -0.00476901)
(0.0964346 0.00317349 -0.00615733)
(0.0941327 0.00371937 -0.00797302)
(0.0911861 0.0044908 -0.0103389)
(0.0873606 0.00549576 -0.0134187)
(0.0822491 0.00674271 -0.0174259)
(0.0756904 0.00821086 -0.0226029)
(0.0656496 0.00989248 -0.0293059)
(0.0545554 0.0114887 -0.0373596)
(0.0332353 0.0130561 -0.0472082)
(0.0131938 0.0112755 -0.0456252)
(0.101126 0.00404903 -0.00121935)
(0.10095 0.00443594 -0.00186696)
(0.101377 0.00391379 -0.00230683)
(0.100616 0.00353313 -0.00284065)
(0.0998164 0.00346889 -0.00358967)
(0.0985712 0.00370357 -0.00459923)
(0.0969783 0.00422069 -0.00593002)
(0.0949053 0.0050227 -0.00766702)
(0.092198 0.00613022 -0.00992688)
(0.0886276 0.00757673 -0.0128661)
(0.0837735 0.0093996 -0.0166905)
(0.0774633 0.0116083 -0.021638)
(0.0675298 0.0142229 -0.0280575)
(0.0564543 0.0169139 -0.0358162)
(0.0345587 0.0196817 -0.0453309)
(0.0136977 0.017487 -0.0439307)
(0.100765 0.00335386 -0.00115772)
(0.100526 0.00409907 -0.00177781)
(0.101064 0.00395666 -0.00219775)
(0.100532 0.00386033 -0.00270531)
(0.0999888 0.00400841 -0.00341498)
(0.0990044 0.00443901 -0.00436803)
(0.0976829 0.00517426 -0.00561971)
(0.0959051 0.00624748 -0.00724772)
(0.0935304 0.00771008 -0.0093593)
(0.0903391 0.00963202 -0.0120993)
(0.0859023 0.0120973 -0.0156602)
(0.0800418 0.0151709 -0.0202699)
(0.0704336 0.0189315 -0.0262589)
(0.0596049 0.0230362 -0.033556)
(0.03702 0.027442 -0.0425196)
(0.0149959 0.0247916 -0.041371)
(0.100619 0.00290545 -0.00108479)
(0.100364 0.00376258 -0.0016722)
(0.100987 0.00385758 -0.00206852)
(0.100643 0.0039766 -0.00254477)
(0.100332 0.00431202 -0.00320736)
(0.0996114 0.0049219 -0.00409248)
(0.0985901 0.00585287 -0.00524838)
(0.0971637 0.00716539 -0.00674318)
(0.0952108 0.00894536 -0.00867117)
(0.0925315 0.0113135 -0.0111603)
(0.0887003 0.0144359 -0.0143821)
(0.0835384 0.0185182 -0.018546)
(0.0745335 0.0238571 -0.0239492)
(0.0642257 0.0304574 -0.0306003)
(0.0407945 0.0385896 -0.0387597)
(0.0171929 0.0377703 -0.0379366)
(0.100577 0.00252189 -0.00100322)
(0.100357 0.00340023 -0.00155408)
(0.101085 0.00365641 -0.00192396)
(0.100914 0.00393953 -0.00236504)
(0.100827 0.00442908 -0.00297453)
(0.100374 0.00518819 -0.00378273)
(0.0996778 0.00627804 -0.00482951)
(0.0986548 0.0077793 -0.00617107)
(0.0972183 0.0098064 -0.00788484)
(0.0952199 0.0125229 -0.010075)
(0.0923059 0.01616 -0.0128797)
(0.0884107 0.0210407 -0.0164689)
(0.0810529 0.0275748 -0.0210645)
(0.0729674 0.0361029 -0.0267269)
(0.0503536 0.0469091 -0.033514)
(0.0258865 0.0466729 -0.0328605)
(0.100587 0.00212879 -0.000916493)
(0.100444 0.00297348 -0.0014285)
(0.101307 0.00333887 -0.00177026)
(0.101309 0.00374503 -0.00217388)
(0.10144 0.0043521 -0.00272673)
(0.101255 0.00521972 -0.00345264)
(0.100894 0.00641592 -0.00438223)
(0.1003 0.00803598 -0.00555837)
(0.0994279 0.0102216 -0.00703939)
(0.0981798 0.0131927 -0.00890246)
(0.0962727 0.0173032 -0.011248)
(0.093684 0.0232011 -0.014203)
(0.0879488 0.0318923 -0.0179106)
(0.0818334 0.0459264 -0.0225063)
(0.0598314 0.06832 -0.027822)
(0.037224 0.0915261 -0.0276443)
(0.0925036 0.00911825 -0.000949992)
(0.0871658 0.00401898 -0.00143479)
(0.0830533 0.001999 -0.00175765)
(0.0806665 0.00101994 -0.00215467)
(0.0788958 0.00068666 -0.0027172)
(0.0771029 0.000592618 -0.00347751)
(0.0751272 0.000610223 -0.00447922)
(0.0727466 0.000692965 -0.00578016)
(0.0697766 0.000824553 -0.00745423)
(0.0660026 0.000999774 -0.00959012)
(0.0611109 0.00121745 -0.0122849)
(0.0550114 0.00145755 -0.0156039)
(0.0463247 0.00176311 -0.0196325)
(0.0371071 0.00192125 -0.0239206)
(0.0214448 0.00230724 -0.0285656)
(0.00766441 0.00156634 -0.0257542)
(0.102876 0.00791276 -0.00118219)
(0.102166 0.00481319 -0.00178471)
(0.101259 0.00306652 -0.00218081)
(0.0994785 0.00209089 -0.00266054)
(0.0977892 0.00173496 -0.00333788)
(0.0957901 0.00169248 -0.00425501)
(0.0934646 0.00184783 -0.00546536)
(0.0906074 0.00215504 -0.00703957)
(0.0870126 0.00259971 -0.00906803)
(0.0824232 0.00318062 -0.0116597)
(0.0764528 0.00389882 -0.0149345)
(0.0689561 0.00472999 -0.0189775)
(0.0583006 0.00568996 -0.0238899)
(0.0467701 0.00651325 -0.0291622)
(0.0273287 0.00743829 -0.0348267)
(0.010172 0.00616754 -0.0314105)
(0.101986 0.00515934 -0.00117108)
(0.101708 0.00480663 -0.00176921)
(0.101627 0.00382552 -0.00216052)
(0.100329 0.00314424 -0.00263329)
(0.099002 0.00290559 -0.00330026)
(0.0972441 0.00299802 -0.0042025)
(0.095103 0.00336112 -0.00539205)
(0.0924037 0.0039709 -0.00693794)
(0.0889553 0.00482775 -0.00892876)
(0.0845023 0.00594492 -0.0114718)
(0.0786402 0.00733603 -0.0146864)
(0.0712105 0.00898311 -0.0186579)
(0.0604546 0.0108812 -0.0234902)
(0.0487293 0.0127026 -0.0286875)
(0.0285705 0.0145104 -0.0342781)
(0.0105668 0.0125863 -0.0309054)
(0.101073 0.00410033 -0.00113133)
(0.100774 0.00451053 -0.00171177)
(0.101026 0.00400461 -0.0020901)
(0.100091 0.00364556 -0.00254596)
(0.0990856 0.00361375 -0.00318778)
(0.0975971 0.00389488 -0.00405416)
(0.095704 0.00447675 -0.005194)
(0.0932537 0.00536737 -0.00667234)
(0.0900699 0.00659434 -0.00857297)
(0.0859032 0.00819939 -0.0109978)
(0.0803339 0.0102284 -0.014061)
(0.0731914 0.0126957 -0.0178463)
(0.0625661 0.0156288 -0.0224552)
(0.0508794 0.0186475 -0.0274273)
(0.0300788 0.0217789 -0.0327785)
(0.0111648 0.0193517 -0.029572)
(0.100714 0.00341775 -0.00107718)
(0.100358 0.00419174 -0.00163347)
(0.10073 0.00406975 -0.00199437)
(0.100034 0.00400055 -0.0024273)
(0.0992982 0.00418942 -0.00303489)
(0.0980872 0.00467866 -0.0038523)
(0.0964872 0.00549606 -0.00492393)
(0.0943604 0.00668257 -0.00630901)
(0.0915457 0.00829943 -0.00808406)
(0.0878037 0.0104287 -0.0103426)
(0.082705 0.0131679 -0.01319)
(0.076073 0.016591 -0.0167058)
(0.0658124 0.0207919 -0.0209841)
(0.0544115 0.025356 -0.0256186)
(0.0328216 0.0302914 -0.0305959)
(0.0125964 0.0273265 -0.0276316)
(0.100571 0.00297876 -0.00101311)
(0.100206 0.00386885 -0.00154072)
(0.100674 0.00398744 -0.00188096)
(0.100177 0.00413781 -0.00228661)
(0.0996897 0.00452047 -0.00285327)
(0.0987626 0.00519853 -0.00361188)
(0.0974897 0.0062256 -0.00460114)
(0.0957501 0.00767176 -0.00587265)
(0.0934045 0.0096359 -0.00749307)
(0.0902353 0.0122556 -0.00954381)
(0.0858158 0.015718 -0.0121168)
(0.0799702 0.0202474 -0.0152827)
(0.0703744 0.0261736 -0.0191202)
(0.0595617 0.0334222 -0.0232957)
(0.0369944 0.0423621 -0.0277436)
(0.0149785 0.0412186 -0.0250961)
(0.100532 0.00260173 -0.000941468)
(0.10021 0.00351589 -0.001437)
(0.100795 0.00379783 -0.00175414)
(0.100485 0.00411523 -0.00212915)
(0.100239 0.00465651 -0.0026497)
(0.0996033 0.0054905 -0.00334185)
(0.0986864 0.00668635 -0.0042375)
(0.0973927 0.00833599 -0.00537891)
(0.0956213 0.0105693 -0.00682015)
(0.093211 0.0135708 -0.00862606)
(0.0898094 0.0175986 -0.0108676)
(0.0853638 0.0230013 -0.0135955)
(0.0775369 0.0302353 -0.0168513)
(0.0691099 0.0395502 -0.0203713)
(0.0472353 0.0513768 -0.0239825)
(0.0240671 0.0507643 -0.0216284)
(0.100546 0.00221179 -0.000865304)
(0.10031 0.00309368 -0.00132674)
(0.101042 0.00348584 -0.00161931)
(0.100919 0.00392761 -0.00196172)
(0.10091 0.00458847 -0.00243312)
(0.100567 0.00553405 -0.00305426)
(0.100019 0.00684097 -0.00384956)
(0.0992023 0.0086168 -0.00485089)
(0.0980586 0.0110209 -0.00609812)
(0.096485 0.0142984 -0.0076373)
(0.094201 0.0188391 -0.0095158)
(0.0912056 0.0253343 -0.0117634)
(0.0851218 0.0348735 -0.0143833)
(0.0788321 0.0499602 -0.0172065)
(0.0574376 0.073966 -0.0199393)
(0.0359455 0.0971752 -0.0181116)
(0.092466 0.00912317 -0.000811428)
(0.0870382 0.00402792 -0.00121551)
(0.0827972 0.0020088 -0.00147646)
(0.0802834 0.00103195 -0.00179547)
(0.078362 0.000702048 -0.00224803)
(0.076392 0.00061282 -0.00285944)
(0.0742008 0.000637074 -0.00366239)
(0.071556 0.000728779 -0.00469827)
(0.0682641 0.000872282 -0.006017)
(0.0641063 0.00106308 -0.00767353)
(0.0587847 0.00130055 -0.00971935)
(0.052219 0.00156627 -0.0121693)
(0.0432238 0.00189951 -0.015044)
(0.0337634 0.00209763 -0.017961)
(0.0189095 0.00250181 -0.0209702)
(0.00636745 0.00177677 -0.0186934)
(0.10283 0.00792989 -0.001006)
(0.102013 0.00483918 -0.00150788)
(0.100952 0.00309737 -0.00182868)
(0.099017 0.00212893 -0.00221468)
(0.0971445 0.00178378 -0.0027602)
(0.0949297 0.00175664 -0.00349841)
(0.0923416 0.00193312 -0.00446951)
(0.0891618 0.00226878 -0.00572424)
(0.0851732 0.00275103 -0.00732394)
(0.0801131 0.00338064 -0.00933654)
(0.0736129 0.00416013 -0.0118265)
(0.0655418 0.00506641 -0.0148155)
(0.0544921 0.00611207 -0.0183257)
(0.0426669 0.00702852 -0.0219168)
(0.0241892 0.00803105 -0.0255827)
(0.00853635 0.00671495 -0.022792)
(0.101941 0.00519177 -0.000997044)
(0.101558 0.00485387 -0.00149542)
(0.101325 0.00388268 -0.00181232)
(0.099875 0.00321477 -0.00219263)
(0.0983685 0.00299615 -0.0027297)
(0.0963994 0.00311708 -0.00345584)
(0.0940016 0.00351951 -0.00441017)
(0.090987 0.00418239 -0.0056422)
(0.0871535 0.00510958 -0.00721199)
(0.0822397 0.00631801 -0.00918633)
(0.0758577 0.00782442 -0.0116293)
(0.0678619 0.00961159 -0.0145635)
(0.0567127 0.0116736 -0.0180135)
(0.0446898 0.013659 -0.0215492)
(0.025468 0.0156301 -0.0251638)
(0.00894846 0.0135772 -0.0224125)
(0.10103 0.00414402 -0.000964406)
(0.100629 0.00457404 -0.00144825)
(0.100735 0.0040819 -0.00175453)
(0.0996541 0.0037411 -0.00212102)
(0.098477 0.00373663 -0.00263763)
(0.0967874 0.00405677 -0.00333471)
(0.0946503 0.0046927 -0.00424893)
(0.0919009 0.00565674 -0.00542683)
(0.0883522 0.00698171 -0.00692496)
(0.0837484 0.00871511 -0.00880642)
(0.0776851 0.0109082 -0.0111322)
(0.070003 0.013577 -0.0139248)
(0.0589974 0.0167513 -0.0172091)
(0.0470204 0.0200114 -0.0205818)
(0.0271023 0.0233979 -0.0240314)
(0.00960627 0.0207808 -0.0214155)
(0.100673 0.00347217 -0.000919912)
(0.10022 0.00427064 -0.00138393)
(0.100453 0.00416597 -0.00167597)
(0.0996201 0.00411967 -0.00202378)
(0.0987235 0.00434289 -0.00251256)
(0.097325 0.00488128 -0.00316999)
(0.0954987 0.00576712 -0.00402929)
(0.0930955 0.0070472 -0.00513266)
(0.0899444 0.00879005 -0.00653139)
(0.0858001 0.0110861 -0.00828286)
(0.0802463 0.0140417 -0.0104427)
(0.0731167 0.0177348 -0.0130319)
(0.0624989 0.022267 -0.0160733)
(0.0508264 0.0271684 -0.0192043)
(0.0300394 0.0324779 -0.0223979)
(0.0111264 0.0292682 -0.0199754)
(0.100532 0.00304119 -0.000867274)
(0.100076 0.00395932 -0.00130775)
(0.100414 0.00409788 -0.00158291)
(0.0997909 0.00427472 -0.0019085)
(0.0991555 0.00469713 -0.00236404)
(0.0980575 0.00543224 -0.00297393)
(0.0965801 0.00653917 -0.00376705)
(0.0945927 0.00809532 -0.00477993)
(0.0919473 0.010209 -0.00605681)
(0.0884216 0.0130296 -0.00764686)
(0.0836002 0.0167576 -0.00959729)
(0.0773178 0.0216274 -0.0119248)
(0.0674035 0.0279876 -0.0146451)
(0.0563576 0.0357013 -0.0174494)
(0.0344919 0.0451988 -0.0202807)
(0.0136386 0.0438031 -0.0181024)
(0.100496 0.00266971 -0.000808432)
(0.100089 0.00361436 -0.00122258)
(0.100555 0.0039181 -0.00147886)
(0.10013 0.00426441 -0.00177951)
(0.0997503 0.00484917 -0.00219766)
(0.0989629 0.00574573 -0.0027539)
(0.0978668 0.00702949 -0.00347197)
(0.0963588 0.00880087 -0.00438156)
(0.0943319 0.011201 -0.005518)
(0.0916227 0.0144288 -0.00691937)
(0.0878904 0.0187598 -0.00861989)
(0.0830977 0.0245576 -0.0106259)
(0.0750273 0.0323073 -0.012933)
(0.066463 0.0421897 -0.0152881)
(0.0451898 0.0547346 -0.0175705)
(0.0229869 0.053863 -0.0156316)
(0.100513 0.00228247 -0.000745879)
(0.100199 0.003196 -0.00113204)
(0.100823 0.00361081 -0.00136827)
(0.100596 0.00408261 -0.00164239)
(0.10047 0.00478863 -0.0020207)
(0.0999957 0.00579929 -0.00251968)
(0.0992964 0.00719786 -0.00315744)
(0.0983016 0.00910112 -0.00395604)
(0.0969512 0.0116811 -0.00494081)
(0.0951427 0.0151999 -0.00613717)
(0.0926076 0.0200704 -0.00756432)
(0.0893657 0.0270094 -0.009217)
(0.0831214 0.037159 -0.0110679)
(0.0768095 0.0529814 -0.0129339)
(0.0559263 0.0780911 -0.0146176)
(0.0352726 0.101357 -0.0130515)
(0.0924374 0.00912695 -0.000618875)
(0.0869401 0.00403496 -0.000922425)
(0.0826 0.00201648 -0.00111415)
(0.0799881 0.00104141 -0.00134743)
(0.0779504 0.000714131 -0.0016784)
(0.0758452 0.00062865 -0.002125)
(0.0734921 0.00065805 -0.00270964)
(0.070653 0.00075666 -0.00345948)
(0.0671312 0.000909257 -0.00440552)
(0.0627109 0.00111186 -0.00557877)
(0.0571138 0.00136416 -0.00700231)
(0.0502779 0.00164902 -0.00866666)
(0.0411658 0.0020031 -0.0105577)
(0.0316799 0.00223181 -0.0123863)
(0.0174687 0.00265429 -0.0141583)
(0.00577007 0.00194091 -0.01243)
(0.102795 0.00794334 -0.000765505)
(0.101895 0.00485963 -0.00114231)
(0.100715 0.00312157 -0.00137839)
(0.0986607 0.00215877 -0.00166092)
(0.096647 0.00182203 -0.00206019)
(0.0942674 0.0018068 -0.00259983)
(0.0914816 0.00199961 -0.00330743)
(0.0880641 0.00235714 -0.00421642)
(0.0837939 0.00286808 -0.00536508)
(0.0784108 0.0035345 -0.006792)
(0.0715698 0.00435981 -0.00852663)
(0.063164 0.0053216 -0.0105601)
(0.0519579 0.00642979 -0.012873)
(0.040101 0.00741405 -0.0151301)
(0.0223952 0.00847371 -0.0172935)
(0.00776897 0.00712332 -0.0151735)
(0.101907 0.00521729 -0.000758899)
(0.101442 0.00489102 -0.00113318)
(0.101092 0.00392755 -0.00136643)
(0.0995246 0.0032701 -0.00164472)
(0.0978797 0.00306707 -0.00203778)
(0.0957492 0.00321011 -0.00256856)
(0.0931581 0.00364291 -0.00326392)
(0.0899114 0.00434654 -0.00415643)
(0.0858027 0.00532728 -0.00528348)
(0.0805732 0.00660452 -0.00668297)
(0.0738575 0.00819675 -0.00838417)
(0.065533 0.0100867 -0.0103788)
(0.0542284 0.0122667 -0.0126494)
(0.0421725 0.0143686 -0.0148671)
(0.0237041 0.016452 -0.0169939)
(0.00819719 0.0143024 -0.0149014)
(0.100997 0.00417836 -0.000734673)
(0.100517 0.00462397 -0.00109812)
(0.10051 0.00414259 -0.0013235)
(0.099317 0.00381604 -0.00159158)
(0.0980076 0.00383284 -0.00196957)
(0.0961643 0.0041832 -0.002479)
(0.0938436 0.00486081 -0.00314503)
(0.0908741 0.00588108 -0.00399817)
(0.0870649 0.00728045 -0.00507348)
(0.0821624 0.00911018 -0.00640653)
(0.0757834 0.0114247 -0.00802491)
(0.0677901 0.0142402 -0.00992062)
(0.0566362 0.017586 -0.0120778)
(0.0446282 0.0210142 -0.0141855)
(0.0254235 0.0245715 -0.0162047)
(0.00889456 0.0218116 -0.0142102)
(0.100642 0.00351495 -0.000701583)
(0.100114 0.00433266 -0.00105032)
(0.10024 0.00424151 -0.00126517)
(0.099301 0.00421307 -0.00151947)
(0.0982802 0.00446298 -0.00187698)
(0.0967386 0.00503941 -0.00235732)
(0.094742 0.00597792 -0.00298325)
(0.0921356 0.00732946 -0.00378231)
(0.0887449 0.00916756 -0.00478611)
(0.0843265 0.0115882 -0.00602655)
(0.0784836 0.0147028 -0.00752829)
(0.0710697 0.0185907 -0.00928324)
(0.060316 0.0233557 -0.0112758)
(0.0486196 0.0284884 -0.0132233)
(0.0284877 0.0340441 -0.015079)
(0.0104704 0.0306509 -0.0132244)
(0.100503 0.00309027 -0.000662461)
(0.0999764 0.00403041 -0.000993701)
(0.100215 0.00418459 -0.00119607)
(0.0994931 0.00438204 -0.00143397)
(0.0987436 0.00483531 -0.00176703)
(0.0975151 0.00561452 -0.00221254)
(0.0958838 0.00678279 -0.00279024)
(0.0937142 0.00842268 -0.0035238)
(0.0908557 0.010649 -0.0044402)
(0.0870881 0.0136187 -0.00556619)
(0.0820137 0.01754 -0.00692157)
(0.0754861 0.0226519 -0.00849672)
(0.0654572 0.0293113 -0.0102736)
(0.0544053 0.0373348 -0.0120063)
(0.0331212 0.0471873 -0.0136325)
(0.0130641 0.0455962 -0.0119525)
(0.100469 0.00272314 -0.000618726)
(0.0999971 0.00369172 -0.000930413)
(0.100371 0.0040125 -0.00111882)
(0.099856 0.00438132 -0.00133835)
(0.0993737 0.0049998 -0.00164392)
(0.0984703 0.00594467 -0.00205017)
(0.0972392 0.00729584 -0.00257327)
(0.0955736 0.00915969 -0.00323228)
(0.0933652 0.011685 -0.00404837)
(0.0904539 0.0150798 -0.00504146)
(0.0865157 0.0196303 -0.00622396)
(0.0815335 0.0257067 -0.0075816)
(0.0733892 0.0338084 -0.00908722)
(0.0648669 0.0440633 -0.0105347)
(0.0440999 0.0570582 -0.0118265)
(0.0225662 0.0559826 -0.0103251)
(0.100488 0.00233801 -0.000572237)
(0.100115 0.00327638 -0.000863144)
(0.100655 0.00370889 -0.00103672)
(0.100348 0.00420405 -0.00123671)
(0.100131 0.0049451 -0.00151303)
(0.0995563 0.00600595 -0.00187741)
(0.0987423 0.00747468 -0.00234214)
(0.0976167 0.0094745 -0.00292118)
(0.0961196 0.0121859 -0.00362916)
(0.0941533 0.0158818 -0.00447814)
(0.0914649 0.0209885 -0.00547183)
(0.0880968 0.0282355 -0.00659052)
(0.0818244 0.0387924 -0.00779584)
(0.0756141 0.0550824 -0.00893075)
(0.0551676 0.0808633 -0.00985572)
(0.0350988 0.104138 -0.00861855)
(0.0924181 0.00912951 -0.000387004)
(0.0868735 0.00403984 -0.000575798)
(0.082466 0.00202173 -0.000692393)
(0.0797871 0.00104792 -0.000834589)
(0.0776708 0.000722421 -0.00103607)
(0.0754746 0.000639497 -0.00130759)
(0.0730139 0.000672393 -0.00166215)
(0.0700478 0.000775671 -0.00211489)
(0.0663794 0.00093439 -0.00268238)
(0.0617972 0.00114487 -0.00337971)
(0.056039 0.00140696 -0.00421546)
(0.0490578 0.00170425 -0.00517642)
(0.0399094 0.00207147 -0.00624658)
(0.0304538 0.00231857 -0.00725059)
(0.0166555 0.00275081 -0.00819151)
(0.00546432 0.00204004 -0.00714768)
(0.102772 0.00795262 -0.000478639)
(0.101815 0.00487374 -0.000712039)
(0.100554 0.0031382 -0.000856213)
(0.098418 0.0021793 -0.00102827)
(0.0963086 0.00184828 -0.0012715)
(0.0938181 0.00184119 -0.00159975)
(0.0909007 0.0020451 -0.00202914)
(0.0873278 0.00241742 -0.00257833)
(0.0828775 0.00294766 -0.00326786)
(0.0772949 0.00363865 -0.00411669)
(0.0702536 0.00449426 -0.00513613)
(0.0616667 0.00549232 -0.00631163)
(0.0504074 0.00664059 -0.00762229)
(0.0385872 0.00766724 -0.00886397)
(0.0213804 0.00876109 -0.0100142)
(0.0073733 0.00738419 -0.00873149)
(0.101884 0.00523487 -0.000474212)
(0.101363 0.00491661 -0.000706377)
(0.100934 0.00395843 -0.000849081)
(0.099286 0.00330815 -0.0010185)
(0.0975472 0.00311576 -0.00125796)
(0.0953081 0.00327388 -0.00158081)
(0.0925884 0.0037273 -0.00200277)
(0.0891899 0.00445847 -0.00254201)
(0.0849055 0.00547518 -0.00321856)
(0.079481 0.00679826 -0.004051)
(0.0725696 0.00844711 -0.00505058)
(0.0640677 0.0104042 -0.0062031)
(0.0527103 0.0126598 -0.0074891)
(0.0406898 0.0148353 -0.00870767)
(0.0227082 0.0169874 -0.00983715)
(0.00781122 0.0147724 -0.00857146)
(0.100975 0.00420201 -0.000459489)
(0.100441 0.00465835 -0.000684766)
(0.100358 0.00418434 -0.000822623)
(0.0990875 0.00386756 -0.000985732)
(0.0976883 0.00389888 -0.00121597)
(0.0957415 0.00426982 -0.00152578)
(0.0932987 0.0049757 -0.00192989)
(0.0901854 0.00603389 -0.00244527)
(0.08621 0.00748309 -0.00309062)
(0.0811235 0.00937681 -0.00388326)
(0.0745601 0.0117711 -0.00483365)
(0.0663996 0.0146817 -0.00592795)
(0.0551964 0.0181368 -0.00714816)
(0.0432234 0.0216705 -0.00830346)
(0.0244794 0.0253316 -0.00937269)
(0.00853214 0.0224765 -0.00816597)
(0.100621 0.00354443 -0.000439073)
(0.100041 0.00437536 -0.000655329)
(0.100095 0.00429348 -0.00078677)
(0.0990837 0.00427726 -0.000941453)
(0.0979788 0.00454539 -0.0011592)
(0.0963407 0.00514768 -0.00145129)
(0.0942309 0.00612186 -0.00183106)
(0.0914918 0.0075215 -0.00231376)
(0.0879484 0.00942324 -0.00291615)
(0.0833615 0.0119263 -0.00365359)
(0.0773506 0.0151448 -0.00453514)
(0.0697855 0.0191582 -0.00554723)
(0.0589883 0.0240705 -0.00667302)
(0.0473286 0.0293473 -0.00773745)
(0.0276199 0.035052 -0.00871715)
(0.0101405 0.0315377 -0.00759482)
(0.100483 0.00312407 -0.000415002)
(0.0999086 0.00407936 -0.000620477)
(0.100079 0.00424425 -0.000744241)
(0.0992904 0.00445579 -0.000888888)
(0.0984635 0.0049301 -0.0010917)
(0.0971471 0.00573928 -0.00136258)
(0.0954135 0.00694902 -0.00171308)
(0.093125 0.00864516 -0.00215625)
(0.0901308 0.0109465 -0.00270623)
(0.0862151 0.0140142 -0.00337558)
(0.0809947 0.0180611 -0.00417093)