/*--------------------------------*- C++ -*----------------------------------*\
| =========                 |                                                 |
| \\      /  F ield         | OpenFOAM: The Open Source CFD Toolbox           |
|  \\    /   O peration     | Version:  v1912                                 |
|   \\  /    A nd           | Website:  www.openfoam.com                      |
|    \\/     M anipulation  |                                                 |
\*---------------------------------------------------------------------------*/
FoamFile
{
    version     2.0;
    format      ascii;
    class       surfaceScalarField;
    location    "0.52/fluid";
    object      meshPhi;
}
// * * * * * * * * * * * * * * * * * * * * * * * * * * * * * * * * * * * * * //

dimensions      [0 3 -1 0 0 0 0];
oriented        oriented;


internalField   nonuniform List<scalar> 
41600
(
1.91702e-13
-4.80718e-13
1.79546e-13
-1.85443e-13
3.656e-13
-1.40065e-12
5.29152e-13
-5.46805e-13
5.28218e-13
-2.25518e-12
8.7181e-13
-9.01745e-13
6.85433e-13
-3.07496e-12
1.23018e-12
-1.27409e-12
8.42868e-13
-3.88082e-12
1.62463e-12
-1.68542e-12
1.0064e-12
-4.68255e-12
2.07417e-12
-2.15613e-12
1.18292e-12
-5.47643e-12
2.59689e-12
-2.7061e-12
1.38157e-12
-6.24031e-12
3.20996e-12
-3.35503e-12
1.61624e-12
-6.92426e-12
3.92908e-12
-4.12244e-12
1.91109e-12
-7.43407e-12
4.76747e-12
-5.02797e-12
2.3128e-12
-7.60133e-12
5.73523e-12
-6.09364e-12
2.91785e-12
-7.1246e-12
6.84131e-12
-7.35323e-12
3.92548e-12
-5.4503e-12
8.10325e-12
-8.88116e-12
5.69791e-12
-1.5778e-12
9.56321e-12
-1.0858e-11
8.41447e-12
5.56672e-12
1.12079e-11
-1.34893e-11
1.77545e-11
1.41043e-11
-2.07963e-11
5.70876e-13
-9.47209e-13
5.3403e-13
-5.51591e-13
1.08861e-12
-2.76047e-12
1.57377e-12
-1.62632e-12
1.5725e-12
-4.44657e-12
2.59253e-12
-2.68158e-12
2.03987e-12
-6.06683e-12
3.6574e-12
-3.78793e-12
2.50731e-12
-7.66407e-12
4.82872e-12
-5.00922e-12
2.99203e-12
-9.26079e-12
6.16276e-12
-6.40588e-12
3.51378e-12
-1.08549e-11
7.71311e-12
-8.03677e-12
4.09792e-12
-1.24118e-11
9.53047e-12
-9.95987e-12
4.78108e-12
-1.38496e-11
1.16608e-11
-1.22319e-11
5.62324e-12
-1.50158e-11
1.4141e-11
-1.49074e-11
6.73302e-12
-1.56518e-11
1.69937e-11
-1.80402e-11
8.32023e-12
-1.5344e-11
2.02219e-11
-2.16945e-11
1.07814e-11
-1.34849e-11
2.38101e-11
-2.59826e-11
1.47417e-11
-9.36728e-12
2.77183e-11
-3.11365e-11
2.02407e-11
-3.02489e-12
3.17012e-11
-3.72246e-11
4.41675e-12
3.48154e-11
-4.53068e-11
9.37653e-13
-1.3854e-12
8.75048e-13
-9.03844e-13
1.78765e-12
-4.03889e-12
2.5784e-12
-2.66454e-12
2.58126e-12
-6.5103e-12
4.24633e-12
-4.39216e-12
3.34653e-12
-8.89199e-12
5.98793e-12
-6.20137e-12
4.11023e-12
-1.12508e-11
7.90129e-12
-8.19601e-12
4.89986e-12
-1.36268e-11
1.0078e-11
-1.04744e-11
5.74605e-12
-1.60283e-11
1.26054e-11
-1.31322e-11
6.68594e-12
-1.84238e-11
1.55661e-11
-1.62634e-11
7.76869e-12
-2.07264e-11
1.90348e-11
-1.9959e-11
9.06557e-12
-2.27718e-11
2.30697e-11
-2.43026e-11
1.06895e-11
-2.42884e-11
2.76982e-11
-2.93631e-11
1.28305e-11
-2.48727e-11
3.28929e-11
-3.51878e-11
1.57956e-11
-2.40145e-11
3.85371e-11
-4.17979e-11
1.99587e-11
-2.12982e-11
4.43637e-11
-4.91718e-11
2.49782e-11
-1.71053e-11
4.97697e-11
-5.68443e-11
-1.24764e-11
5.40047e-11
-6.64101e-11
1.28439e-12
-1.78096e-12
1.19444e-12
-1.23372e-12
2.44792e-12
-5.19424e-12
3.51877e-12
-3.6362e-12
3.53267e-12
-8.37983e-12
5.79248e-12
-5.99108e-12
4.5763e-12
-1.14611e-11
8.16295e-12
-8.45319e-12
5.61474e-12
-1.4531e-11
1.07625e-11
-1.11626e-11
6.68449e-12
-1.76515e-11
1.37149e-11
-1.42521e-11
7.82515e-12
-2.08511e-11
1.71385e-11
-1.7851e-11
9.0822e-12
-2.41171e-11
2.11462e-11
-2.20866e-11
1.05102e-11
-2.73845e-11
2.58411e-11
-2.70827e-11
1.2176e-11
-3.05169e-11
3.13057e-11
-3.29512e-11
1.41639e-11
-3.32822e-11
3.75785e-11
-3.97768e-11
1.65807e-11
-3.53295e-11
4.4614e-11
-4.759e-11
1.95471e-11
-3.61949e-11
5.22158e-11
-5.63212e-11
2.31341e-11
-3.54189e-11
5.99268e-11
-6.57206e-11
2.6909e-11
-3.30309e-11
6.68242e-11
-7.49258e-11
-2.94219e-11
7.17493e-11
-8.50497e-11
1.60413e-12
-2.11978e-12
1.48497e-12
-1.5337e-12
3.05595e-12
-6.18536e-12
4.37333e-12
-4.51895e-12
4.40681e-12
-9.98864e-12
7.19481e-12
-7.44077e-12
5.70261e-12
-1.36829e-11
1.013e-11
-1.04889e-11
6.98713e-12
-1.73877e-11
1.33407e-11
-1.38346e-11
8.30462e-12
-2.11905e-11
1.69785e-11
-1.76402e-11
9.70247e-12
-2.51464e-11
2.11886e-11
-2.20641e-11
1.12335e-11
-2.92748e-11
2.61114e-11
-2.72635e-11
1.29574e-11
-3.35526e-11
3.18783e-11
-3.33933e-11
1.49387e-11
-3.79024e-11
3.86008e-11
-4.05975e-11
1.72404e-11
-4.21732e-11
4.63451e-11
-4.89908e-11
1.99067e-11
-4.61072e-11
5.5084e-11
-5.86214e-11
2.29163e-11
-4.92873e-11
6.46066e-11
-6.93971e-11
2.61006e-11
-5.10704e-11
7.43469e-11
-8.09395e-11
2.89067e-11
-5.07705e-11
8.30559e-11
-9.20154e-11
-4.75913e-11
8.90834e-11
-1.03202e-10
1.89099e-12
-2.38848e-12
1.7408e-12
-1.79774e-12
3.60037e-12
-6.973e-12
5.12472e-12
-5.29475e-12
5.18687e-12
-1.12726e-11
8.42413e-12
-8.71099e-12
6.70297e-12
-1.54677e-11
1.18467e-11
-1.22645e-11
8.19866e-12
-1.97027e-11
1.55779e-11
-1.61518e-11
9.72456e-12
-2.40913e-11
1.97911e-11
-2.05581e-11
1.1335e-11
-2.87178e-11
2.46529e-11
-2.56648e-11
1.30906e-11
-3.36393e-11
3.03257e-11
-3.16531e-11
1.50606e-11
-3.88851e-11
3.69665e-11
-3.87051e-11
1.7321e-11
-4.44554e-11
4.4718e-11
-4.69988e-11
1.99497e-11
-5.03145e-11
5.36888e-11
-5.66943e-11
2.30095e-11
-5.63716e-11
6.39128e-11
-6.79053e-11
2.6496e-11
-6.24182e-11
7.52607e-11
-8.06271e-11
3.02236e-11
-6.79548e-11
8.72281e-11
-9.45569e-11
3.34733e-11
-7.1898e-11
9.83956e-11
-1.08277e-10
-7.11457e-11
1.06669e-10
-1.22029e-10
2.14041e-12
-2.57502e-12
1.95778e-12
-2.02154e-12
4.07243e-12
-7.52179e-12
5.76062e-12
-5.95089e-12
5.85998e-12
-1.21735e-11
9.45991e-12
-9.78049e-12
7.56006e-12
-1.67326e-11
1.32833e-11
-1.37495e-11
9.22688e-12
-2.13648e-11
1.74332e-11
-1.80719e-11
1.09154e-11
-2.62064e-11
2.20976e-11
-2.29487e-11
1.26852e-11
-3.13685e-11
2.74568e-11
-2.85758e-11
1.46043e-11
-3.69429e-11
3.36872e-11
-3.51494e-11
1.67533e-11
-4.30077e-11
4.09625e-11
-4.28696e-11
1.92302e-11
-4.96358e-11
4.94494e-11
-5.19402e-11
2.21572e-11
-5.69073e-11
5.92976e-11
-6.25662e-11
2.56892e-11
-6.49263e-11
7.06189e-11
-7.49465e-11
3.00082e-11
-7.38341e-11
8.34314e-11
-8.92436e-11
3.52469e-11
-8.37523e-11
9.74733e-11
-1.05447e-10
4.07903e-11
-9.41616e-11
1.11464e-10
-1.22322e-10
-1.04618e-10
1.23141e-10
-1.40899e-10
2.34939e-12
2.13362e-12
-2.20275e-12
-2.66949e-12
4.46657e-12
6.27448e-12
-6.48061e-12
-7.80258e-12
6.41819e-12
1.02916e-11
-1.06384e-11
-1.26432e-11
8.26335e-12
1.44252e-11
-1.49284e-11
-1.74087e-11
1.0058e-11
1.88869e-11
-1.95744e-11
-2.228e-11
1.18588e-11
2.38714e-11
-2.47844e-11
-2.74095e-11
1.37272e-11
2.95637e-11
-3.07591e-11
-3.29279e-11
1.57344e-11
3.6143e-11
-3.76977e-11
-3.89513e-11
1.79675e-11
4.37853e-11
-4.58024e-11
-4.55891e-11
2.05391e-11
5.26619e-11
-5.52819e-11
-5.29561e-11
2.36039e-11
6.29358e-11
-6.63549e-11
-6.11896e-11
2.73869e-11
7.47555e-11
-7.92601e-11
-7.04772e-11
3.22165e-11
8.82296e-11
-9.42603e-11
-8.10933e-11
3.84956e-11
1.033e-10
-1.11584e-10
-9.33987e-11
4.56944e-11
1.18863e-10
-1.30224e-10
-1.06955e-10
1.33984e-10
-1.54109e-10
-1.25703e-10
1.91527e-13
-4.90547e-13
1.67099e-13
3.64887e-13
-1.42937e-12
4.92271e-13
5.26249e-13
-2.30178e-12
8.10388e-13
6.81035e-13
-3.13945e-12
1.14208e-12
8.34203e-13
-3.96435e-12
1.50573e-12
9.90559e-13
-4.78753e-12
1.91808e-12
1.15525e-12
-5.60709e-12
2.39453e-12
1.3345e-12
-6.40397e-12
2.94859e-12
1.53725e-12
-7.13434e-12
3.5905e-12
1.77894e-12
-7.71698e-12
4.3244e-12
2.09021e-12
-8.01203e-12
5.14328e-12
2.53571e-12
-7.78313e-12
6.01981e-12
3.24608e-12
-6.62904e-12
6.88859e-12
4.43299e-12
-3.906e-12
7.60806e-12
6.12796e-12
9.24053e-13
7.91159e-12
7.47341e-12
7.2359e-12
5.70462e-13
-9.66457e-13
4.97003e-13
1.08673e-12
-2.8167e-12
1.46406e-12
1.56707e-12
-4.53781e-12
2.40984e-12
2.02754e-12
-6.1932e-12
3.39551e-12
2.48279e-12
-7.82777e-12
4.47544e-12
2.94697e-12
-9.46626e-12
5.69932e-12
3.43486e-12
-1.11097e-11
7.11273e-12
3.96355e-12
-1.27286e-11
8.75575e-12
4.55578e-12
-1.42511e-11
1.06588e-11
5.24742e-12
-1.55456e-11
1.28338e-11
6.10455e-12
-1.63973e-11
1.52584e-11
7.25744e-12
-1.64859e-11
1.78463e-11
8.94875e-12
-1.53944e-11
2.03931e-11
1.15154e-11
-1.27648e-11
2.24786e-11
1.48391e-11
-8.91918e-12
2.34109e-11
-6.08487e-12
2.14057e-11
9.37344e-13
-1.41338e-12
8.14387e-13
1.78536e-12
-4.12062e-12
2.39868e-12
2.5738e-12
-6.64296e-12
3.94718e-12
3.32874e-12
-9.07577e-12
5.5594e-12
4.07403e-12
-1.14887e-11
7.32376e-12
4.83251e-12
-1.39246e-11
9.3212e-12
5.6273e-12
-1.63955e-11
1.16261e-11
6.48322e-12
-1.88754e-11
1.43045e-11
7.42883e-12
-2.12885e-11
1.7407e-11
8.50065e-12
-2.34923e-11
2.09555e-11
9.75252e-12
-2.52604e-11
2.49159e-11
1.12723e-11
-2.62812e-11
2.91503e-11
1.31944e-11
-2.62208e-11
3.33335e-11
1.56374e-11
-2.49578e-11
3.68322e-11
1.82899e-11
-2.30625e-11
3.87152e-11
-2.22199e-11
3.7427e-11
1.28473e-12
-1.81673e-12
1.11169e-12
2.44642e-12
-5.29875e-12
3.27369e-12
3.52533e-12
-8.54948e-12
5.38478e-12
4.55673e-12
-1.16961e-11
7.57943e-12
5.57296e-12
-1.48347e-11
9.97704e-12
6.6049e-12
-1.80305e-11
1.26871e-11
7.68314e-12
-2.13151e-11
1.58107e-11
8.83841e-12
-2.46809e-11
1.94387e-11
1.01008e-11
-2.80715e-11
2.36439e-11
1.14966e-11
-3.13674e-11
2.84633e-11
1.30426e-11
-3.43714e-11
3.38647e-11
1.47329e-11
-3.68025e-11
3.96853e-11
1.65107e-11
-3.83327e-11
4.55299e-11
1.82186e-11
-3.87376e-11
5.06313e-11
1.95229e-11
-3.82363e-11
5.38612e-11
-3.80485e-11
5.34874e-11
1.60576e-12
-2.16217e-12
1.38223e-12
3.05667e-12
-6.30922e-12
4.06915e-12
4.40211e-12
-1.01897e-11
6.68916e-12
5.68549e-12
-1.39613e-11
9.4071e-12
6.94677e-12
-1.77469e-11
1.23691e-11
8.22428e-12
-2.16372e-11
1.57092e-11
9.55598e-12
-2.56897e-11
1.95521e-11
1.09794e-11
-2.99269e-11
2.40116e-11
1.25288e-11
-3.43301e-11
2.91829e-11
1.4227e-11
-3.88305e-11
3.51246e-11
1.60675e-11
-4.32941e-11
4.18219e-11
1.79772e-11
-4.74984e-11
4.91199e-11
1.97503e-11
-5.10984e-11
5.66047e-11
2.09813e-11
-5.35962e-11
6.34258e-11
2.12163e-11
-5.44914e-11
6.82254e-11
-5.42597e-11
6.89431e-11
1.89454e-12
-2.43609e-12
1.62059e-12
3.60468e-12
-7.11212e-12
4.76895e-12
5.18727e-12
-1.14984e-11
7.83329e-12
6.69239e-12
-1.57801e-11
1.10032e-11
8.16643e-12
-2.01055e-11
1.44461e-11
9.65441e-12
-2.45907e-11
1.83158e-11
1.12018e-11
-2.93218e-11
2.27555e-11
1.2855e-11
-3.43565e-11
2.78977e-11
1.46599e-11
-3.97242e-11
3.38578e-11
1.66538e-11
-4.54242e-11
4.07179e-11
1.88499e-11
-5.14195e-11
4.84919e-11
2.1198e-11
-5.76167e-11
5.70604e-11
2.35072e-11
-6.38048e-11
6.60434e-11
2.53278e-11
-6.94921e-11
7.45769e-11
2.59818e-11
-7.36692e-11
8.11039e-11
-7.43469e-11
8.32415e-11
2.14639e-12
-2.62625e-12
1.82289e-12
4.08144e-12
-7.67149e-12
5.36165e-12
5.86746e-12
-1.24165e-11
8.79806e-12
7.55935e-12
-1.70688e-11
1.23401e-11
9.2082e-12
-2.17979e-11
1.61705e-11
1.08642e-11
-2.67423e-11
2.04561e-11
1.25794e-11
-3.2014e-11
2.53522e-11
1.44098e-11
-3.77034e-11
3.10033e-11
1.64167e-11
-4.38849e-11
3.75378e-11
1.86663e-11
-5.06233e-11
4.50552e-11
2.12268e-11
-5.79828e-11
5.35963e-11
2.41566e-11
-6.60371e-11
6.30849e-11
2.747e-11
-7.48671e-11
7.32037e-11
3.10336e-11
-8.44748e-11
8.31352e-11
3.422e-11
-9.42558e-11
9.11788e-11
-1.0299e-10
9.44549e-11
2.35813e-12
1.987e-12
-2.72254e-12
4.48102e-12
5.84109e-12
-7.95766e-12
6.43404e-12
9.57361e-12
-1.28951e-11
8.27465e-12
1.3404e-11
-1.77574e-11
1.00564e-11
1.75235e-11
-2.27291e-11
1.18321e-11
2.21053e-11
-2.79648e-11
1.36573e-11
2.73086e-11
-3.35953e-11
1.55943e-11
3.32805e-11
-3.9734e-11
1.77154e-11
4.01511e-11
-4.64842e-11
2.011e-11
4.80226e-11
-5.39481e-11
2.28925e-11
5.6944e-11
-6.22393e-11
2.62159e-11
6.68606e-11
-7.15015e-11
3.02794e-11
7.75011e-11
-8.19237e-11
3.52673e-11
8.81273e-11
-9.3696e-11
4.0648e-11
9.7022e-11
-1.06235e-10
1.00611e-10
-1.21242e-10
1.90553e-13
-4.99005e-13
1.48728e-13
3.62572e-13
-1.45412e-12
4.37986e-13
5.21729e-13
-2.342e-12
7.20482e-13
6.72816e-13
-3.19517e-12
1.01419e-12
8.19879e-13
-4.03657e-12
1.33487e-12
9.66319e-13
-4.87865e-12
1.69653e-12
1.11499e-12
-5.72172e-12
2.11142e-12
1.26833e-12
-6.55095e-12
2.58918e-12
1.4287e-12
-7.33121e-12
3.13492e-12
1.59971e-12
-7.99961e-12
3.74548e-12
1.7897e-12
-8.45584e-12
4.40271e-12
2.01848e-12
-8.54986e-12
5.06162e-12
2.32393e-12
-8.06924e-12
5.63032e-12
2.74353e-12
-6.75525e-12
5.94355e-12
3.19122e-12
-4.54036e-12
5.79029e-12
-1.69559e-12
5.19538e-12
5.67695e-13
-9.83007e-13
4.42369e-13
1.08012e-12
-2.86509e-12
1.30264e-12
1.55412e-12
-4.61639e-12
2.14255e-12
2.00393e-12
-6.30196e-12
3.01536e-12
2.4416e-12
-7.96849e-12
3.96776e-12
2.87723e-12
-9.64304e-12
5.04131e-12
3.31911e-12
-1.13303e-11
6.27231e-12
3.77363e-12
-1.30077e-11
7.68956e-12
4.24527e-12
-1.46172e-11
9.30866e-12
4.73803e-12
-1.60559e-11
1.11212e-11
5.26013e-12
-1.71674e-11
1.30755e-11
5.83309e-12
-1.77482e-11
1.5043e-11
6.49539e-12
-1.7597e-11
1.6766e-11
7.25377e-12
-1.66775e-11
1.78028e-11
7.89038e-12
-1.5438e-11
1.7648e-11
-1.53311e-11
1.60429e-11
9.33232e-13
-1.43738e-12
7.24903e-13
1.77544e-12
-4.19077e-12
2.13434e-12
2.55418e-12
-6.75674e-12
3.50958e-12
3.29274e-12
-9.23297e-12
4.93734e-12
4.01097e-12
-1.16914e-11
6.49356e-12
4.72557e-12
-1.41775e-11
8.24598e-12
5.44992e-12
-1.67072e-11
1.02541e-11
6.19292e-12
-1.92618e-11
1.25657e-11
6.95671e-12
-2.17797e-11
1.52084e-11
7.73326e-12
-2.41471e-11
1.81733e-11
8.50017e-12
-2.6195e-11
2.13857e-11
9.21391e-12
-2.77202e-11
2.4657e-11
9.79383e-12
-2.85729e-11
2.76182e-11
1.00843e-11
-2.88638e-11
2.9673e-11
9.87004e-12
-2.91641e-11
3.02056e-11
-3.04818e-11
2.93195e-11
1.27996e-12
-1.84732e-12
9.89633e-13
2.4347e-12
-5.38808e-12
2.9132e-12
3.5017e-12
-8.69419e-12
4.78828e-12
4.51281e-12
-1.18956e-11
6.7321e-12
5.49542e-12
-1.50907e-11
8.84723e-12
6.4729e-12
-1.83472e-11
1.12254e-11
7.46404e-12
-2.16997e-11
1.39478e-11
8.48066e-12
-2.51457e-11
1.7081e-11
9.52201e-12
-2.86389e-11
2.06671e-11
1.05642e-11
-3.20806e-11
2.47037e-11
1.15415e-11
-3.53148e-11
2.91089e-11
1.23147e-11
-3.81396e-11
3.3666e-11
1.26294e-11
-4.03647e-11
3.7952e-11
1.21156e-11
-4.19548e-11
4.12987e-11
1.06214e-11
-4.31834e-11
4.30042e-11
-4.48344e-11
4.31413e-11
1.60117e-12
-2.19826e-12
1.23062e-12
3.04493e-12
-6.41458e-12
3.62154e-12
4.37762e-12
-1.03601e-11
5.94899e-12
5.63889e-12
-1.41956e-11
8.35669e-12
6.8633e-12
-1.80462e-11
1.09702e-11
8.08112e-12
-2.20041e-11
1.39022e-11
9.31774e-12
-2.61282e-11
1.72528e-11
1.05908e-11
-3.04424e-11
2.11063e-11
1.19027e-11
-3.49311e-11
2.55202e-11
1.32253e-11
-3.95326e-11
3.05044e-11
1.44697e-11
-4.41287e-11
3.59829e-11
1.54332e-11
-4.85312e-11
4.17346e-11
1.57231e-11
-5.24667e-11
4.73147e-11
1.47458e-11
-5.5571e-11
5.20023e-11
1.22517e-11
-5.74855e-11
5.49676e-11
-5.8564e-11
5.6153e-11
1.89096e-12
-2.47645e-12
1.44306e-12
3.59473e-12
-7.22988e-12
4.24505e-12
5.16508e-12
-1.16887e-11
6.96771e-12
6.64833e-12
-1.60411e-11
9.77634e-12
8.0855e-12
-2.04373e-11
1.28151e-11
9.51369e-12
-2.49941e-11
1.6213e-11
1.09662e-11
-2.97968e-11
2.00855e-11
1.24703e-11
-3.49004e-11
2.45312e-11
1.40414e-11
-4.03293e-11
2.96215e-11
1.56687e-11
-4.60746e-11
3.53796e-11
1.72868e-11
-5.20862e-11
4.17416e-11
1.87194e-11
-5.82507e-11
4.84934e-11
1.95863e-11
-6.43323e-11
5.51805e-11
1.92318e-11
-6.98348e-11
6.10244e-11
1.71537e-11
-7.38404e-11
6.50385e-11
-7.45648e-11
6.70937e-11
2.14456e-12
-2.66949e-12
1.6235e-12
4.07489e-12
-7.79761e-12
4.77352e-12
5.85037e-12
-1.26201e-11
7.82742e-12
7.52238e-12
-1.73476e-11
1.09665e-11
9.1371e-12
-2.21512e-11
1.43483e-11
1.07375e-11
-2.7169e-11
1.81129e-11
1.23645e-11
-3.25104e-11
2.23858e-11
1.40572e-11
-3.82595e-11
2.72742e-11
1.58498e-11
-4.4479e-11
3.28584e-11
1.77656e-11
-5.12127e-11
3.91701e-11
1.98013e-11
-5.84876e-11
4.61547e-11
2.18947e-11
-6.63093e-11
5.36039e-11
2.38646e-11
-7.46367e-11
6.10485e-11
2.53231e-11
-8.32744e-11
6.76246e-11
2.57219e-11
-9.14695e-11
7.21198e-11
-9.79274e-11
7.41873e-11
2.3586e-12
1.77001e-12
-2.76716e-12
4.47905e-12
5.20143e-12
-8.08781e-12
6.42411e-12
8.51925e-12
-1.31051e-11
8.24815e-12
1.19149e-11
-1.80448e-11
1.00004e-11
1.55533e-11
-2.30925e-11
1.17276e-11
1.95801e-11
-2.84019e-11
1.3476e-11
2.41241e-11
-3.40998e-11
1.52933e-11
2.92945e-11
-4.02911e-11
1.72298e-11
3.51717e-11
-4.70634e-11
1.93387e-11
4.17873e-11
-5.44909e-11
2.16739e-11
4.90861e-11
-6.26383e-11
2.42822e-11
5.68589e-11
-7.15614e-11
2.7181e-11
6.46265e-11
-8.12938e-11
3.02881e-11
7.14767e-11
-9.17694e-11
3.30947e-11
7.60403e-11
-1.02221e-10
7.70486e-11
-1.13629e-10
1.89056e-13
-5.05978e-13
1.25231e-13
3.5922e-13
-1.47451e-12
3.68671e-13
5.15609e-13
-2.37512e-12
6.06053e-13
6.6232e-13
-3.24104e-12
8.52206e-13
8.02414e-13
-4.09604e-12
1.11992e-12
9.37819e-13
-4.95375e-12
1.42026e-12
1.0691e-12
-5.81656e-12
1.76234e-12
1.19504e-12
-6.67368e-12
2.15251e-12
1.31206e-12
-7.49801e-12
2.59236e-12
1.41386e-12
-8.24281e-12
3.07534e-12
1.4919e-12
-8.8394e-12
3.5814e-12
1.53694e-12
-9.19783e-12
4.06922e-12
1.53938e-12
-9.21214e-12
4.46786e-12
1.48089e-12
-8.77506e-12
4.67834e-12
1.32594e-12
-7.85409e-12
4.62356e-12
-6.13162e-12
4.58606e-12
5.6338e-13
-9.96652e-13
3.72498e-13
1.07045e-12
-2.90498e-12
1.09654e-12
1.53645e-12
-4.68108e-12
1.80235e-12
1.97359e-12
-6.39133e-12
2.53389e-12
2.39109e-12
-8.08383e-12
3.32904e-12
2.79485e-12
-9.78761e-12
4.2206e-12
3.18665e-12
-1.15107e-11
5.23573e-12
3.56265e-12
-1.32369e-11
6.39343e-12
3.91097e-12
-1.49209e-11
7.69903e-12
4.20919e-12
-1.64841e-11
9.13449e-12
4.42285e-12
-1.78163e-11
1.06432e-11
4.50594e-12
-1.87924e-11
1.21087e-11
4.40247e-12
-1.93239e-11
1.33343e-11
4.04954e-12
-1.94604e-11
1.40539e-11
3.44185e-12
-1.94796e-11
1.40811e-11
-2.00333e-11
1.34907e-11
9.26608e-13
-1.45716e-12
6.10459e-13
1.76055e-12
-4.24852e-12
1.79681e-12
2.52687e-12
-6.85019e-12
2.95259e-12
3.24576e-12
-9.36155e-12
4.14935e-12
3.9327e-12
-1.18562e-11
5.44876e-12
4.59801e-12
-1.43817e-11
6.9043e-12
5.24529e-12
-1.69574e-11
8.56062e-12
5.86839e-12
-1.95707e-11
1.04497e-11
6.44608e-12
-2.21722e-11
1.25824e-11
6.9344e-12
-2.46719e-11
1.49343e-11
7.25718e-12
-2.69432e-11
1.74234e-11
7.29675e-12
-2.88516e-11
1.98813e-11
6.89512e-12
-3.03324e-11
2.20309e-11
5.91016e-12
-3.15288e-11
2.35192e-11
4.48893e-12
-3.28102e-11
2.41232e-11
-3.46181e-11
2.41852e-11
1.27179e-12
-1.87245e-12
8.33492e-13
2.41624e-12
-5.46141e-12
2.45278e-12
3.46764e-12
-8.81254e-12
4.02885e-12
4.45395e-12
-1.20576e-11
5.65837e-12
5.39718e-12
-1.52967e-11
7.42469e-12
6.31282e-12
-1.85989e-11
9.40036e-12
7.2079e-12
-2.20008e-11
1.16464e-11
8.07638e-12
-2.55037e-11
1.4208e-11
8.89072e-12
-2.90684e-11
1.71041e-11
9.58775e-12
-3.2611e-11
2.03104e-11
1.00472e-11
-3.60023e-11
2.37334e-11
1.00645e-11
-3.90836e-11
2.71786e-11
9.33956e-12
-4.17177e-11
3.03329e-11
7.58208e-12
-4.38884e-11
3.28128e-11
5.0488e-12
-4.57398e-11
3.43613e-11
-4.766e-11
3.52814e-11
1.59237e-12
-2.22783e-12
1.03661e-12
3.02486e-12
-6.50073e-12
3.04962e-12
4.34023e-12
-1.04988e-11
5.00622e-12
5.57379e-12
-1.43845e-11
7.02494e-12
6.75419e-12
-1.82842e-11
9.20788e-12
7.90317e-12
-2.22905e-11
1.16442e-11
9.03349e-12
-2.64621e-11
1.44094e-11
1.01441e-11
-3.0822e-11
1.7561e-11
1.12099e-11
-3.53543e-11
2.11271e-11
1.21639e-11
-3.99976e-11
2.50881e-11
1.28663e-11
-4.46368e-11
2.93476e-11
1.30584e-11
-4.90906e-11
3.36993e-11
1.23236e-11
-5.30952e-11
3.78087e-11
1.01814e-11
-5.62907e-11
4.12626e-11
6.79854e-12
-5.82839e-11
4.37381e-11
-5.91894e-11
4.54648e-11
1.88247e-12
-2.50939e-12
1.21576e-12
3.57507e-12
-7.32573e-12
3.57528e-12
5.12786e-12
-1.18426e-11
5.86452e-12
6.58271e-12
-1.62498e-11
8.21984e-12
7.9747e-12
-2.06982e-11
1.07585e-11
9.33238e-12
-2.53034e-11
1.35828e-11
1.06766e-11
-3.01481e-11
1.67799e-11
1.20165e-11
-3.52816e-11
2.04171e-11
1.33414e-11
-4.0719e-11
2.45305e-11
1.46038e-11
-4.64366e-11
2.91052e-11
1.5691e-11
-5.23602e-11
3.40441e-11
1.6375e-11
-5.83393e-11
3.91291e-11
1.62555e-11
-6.40863e-11
4.39946e-11
1.47904e-11
-6.90522e-11
4.81665e-11
1.18921e-11
-7.23399e-11
5.12317e-11
-7.22035e-11
5.34379e-11
2.13724e-12
-2.70465e-12
1.36803e-12
4.05748e-12
-7.89984e-12
4.02112e-12
5.81648e-12
-1.27839e-11
6.58937e-12
7.46139e-12
-1.75689e-11
9.22246e-12
9.03272e-12
-2.24259e-11
1.20485e-11
1.05655e-11
-2.74908e-11
1.51788e-11
1.20891e-11
-3.28678e-11
1.87081e-11
1.36261e-11
-3.86313e-11
2.27094e-11
1.51869e-11
-4.48274e-11
2.72232e-11
1.67617e-11
-5.14721e-11
3.2236e-11
1.83025e-11
-5.85463e-11
3.7646e-11
1.96955e-11
-6.59808e-11
4.32167e-11
2.07262e-11
-7.36209e-11
4.85305e-11
2.1086e-11
-8.11351e-11
5.29974e-11
2.06103e-11
-8.77746e-11
5.60441e-11
-9.24188e-11
5.79181e-11
2.35314e-12
1.49176e-12
-2.80332e-12
4.46535e-12
4.38241e-12
-8.19292e-12
6.39607e-12
7.17323e-12
-1.32734e-11
8.19582e-12
1.00223e-11
-1.82715e-11
9.90877e-12
1.3064e-11
-2.33726e-11
1.15746e-11
1.64141e-11
-2.87272e-11
1.32294e-11
2.01699e-11
-3.44554e-11
1.49067e-11
2.44054e-11
-4.065e-11
1.66362e-11
2.916e-11
-4.73775e-11
1.8442e-11
3.44166e-11
-5.46779e-11
2.0338e-11
4.00656e-11
-6.25601e-11
2.23198e-11
4.58515e-11
-7.09919e-11
2.4358e-11
5.13104e-11
-7.98778e-11
2.64008e-11
5.57483e-11
-8.90037e-11
2.82564e-11
5.8431e-11
-9.76472e-11
5.90854e-11
-1.06935e-10
1.87347e-13
-5.1143e-13
9.75532e-14
3.55482e-13
-1.49043e-12
2.87109e-13
5.08988e-13
-2.40097e-12
4.71709e-13
6.51298e-13
-3.27684e-12
6.6271e-13
7.84561e-13
-4.14239e-12
8.69754e-13
9.09412e-13
-5.01208e-12
1.10093e-12
1.02454e-12
-5.88986e-12
1.36262e-12
1.12597e-12
-6.76789e-12
1.65866e-12
1.20616e-12
-7.6247e-12
1.98889e-12
1.25322e-12
-8.42374e-12
2.34671e-12
1.2512e-12
-9.11366e-12
2.71591e-12
1.18226e-12
-9.63073e-12
3.06745e-12
1.03128e-12
-9.90001e-12
3.35894e-12
7.93389e-13
-9.82501e-12
3.5444e-12
4.99916e-13
-9.293e-12
3.60212e-12
-7.72891e-12
3.79775e-12
5.58434e-13
-1.00734e-12
2.90188e-13
1.05963e-12
-2.93621e-12
8.54005e-13
1.51725e-12
-4.73167e-12
1.40292e-12
1.94161e-12
-6.46104e-12
1.97058e-12
2.3393e-12
-8.17339e-12
2.58554e-12
2.71251e-12
-9.89913e-12
3.27184e-12
3.05773e-12
-1.16487e-11
4.04842e-12
3.36341e-12
-1.34104e-11
4.92696e-12
3.60688e-12
-1.51474e-11
5.90744e-12
3.75126e-12
-1.67961e-11
6.9714e-12
3.74463e-12
-1.82701e-11
8.07296e-12
3.52538e-12
-1.94755e-11
9.12992e-12
3.04137e-12
-2.03445e-11
1.00226e-11
2.29959e-12
-2.08847e-11
1.06205e-11
1.48436e-12
-2.11961e-11
1.08612e-11
-2.16216e-11
1.07381e-11
9.18934e-13
-1.47267e-12
4.7561e-13
1.74374e-12
-4.29377e-12
1.39953e-12
2.49698e-12
-6.92321e-12
2.29849e-12
3.19588e-12
-9.46149e-12
3.22723e-12
3.85194e-12
-1.19833e-11
4.23223e-12
4.46982e-12
-1.45375e-11
5.35276e-12
5.04517e-12
-1.71454e-11
6.62004e-12
5.56063e-12
-1.97987e-11
8.05386e-12
5.97989e-12
-2.24552e-11
9.65603e-12
6.24035e-12
-2.50378e-11
1.14003e-11
6.24724e-12
-2.74396e-11
1.32195e-11
5.87631e-12
-2.95473e-11
1.49938e-11
5.00741e-12
-3.12988e-11
1.65529e-11
3.64277e-12
-3.27713e-11
1.7719e-11
2.18407e-12
-3.41684e-11
1.84082e-11
-3.57566e-11
1.87716e-11
1.26214e-12
-1.89216e-12
6.49453e-13
2.39504e-12
-5.51879e-12
1.9107e-12
3.42983e-12
-8.90473e-12
3.13672e-12
4.39073e-12
-1.21828e-11
4.40144e-12
5.29477e-12
-1.5454e-11
5.76769e-12
6.15056e-12
-1.87879e-11
7.28882e-12
6.95548e-12
-2.22219e-11
9.00763e-12
7.69039e-12
-2.57584e-11
1.09523e-11
8.31095e-12
-2.93613e-11
1.31285e-11
8.73517e-12
-3.29517e-11
1.55069e-11
8.82872e-12
-3.64078e-11
1.80089e-11
8.39559e-12
-3.95757e-11
2.0494e-11
7.20767e-12
-4.23056e-11
2.27686e-11
5.16847e-12
-4.45222e-11
2.46401e-11
2.79236e-12
-4.62652e-11
2.60033e-11
-4.78412e-11
2.69578e-11
1.58163e-12
-2.25096e-12
8.07841e-13
3.00117e-12
-6.56794e-12
2.37599e-12
4.29779e-12
-1.06063e-11
3.89824e-12
5.5026e-12
-1.45294e-11
5.46523e-12
6.63877e-12
-1.84639e-11
7.15398e-12
7.72048e-12
-2.25018e-11
9.03006e-12
8.75023e-12
-2.67001e-11
1.11466e-11
9.71326e-12
-3.10792e-11
1.35395e-11
1.05679e-11
-3.5619e-11
1.62192e-11
1.12299e-11
-4.02521e-11
1.91562e-11
1.15511e-11
-4.48536e-11
2.22652e-11
1.12937e-11
-4.92258e-11
2.53916e-11
1.01353e-11
-5.30764e-11
2.83229e-11
7.81541e-12
-5.6001e-11
3.08471e-11
4.74796e-12
-5.75818e-11
3.28212e-11
-5.79442e-11
3.42959e-11
1.87158e-12
-2.53508e-12
9.4761e-13
3.55089e-12
-7.40024e-12
2.78599e-12
5.08421e-12
-1.19613e-11
4.56732e-12
6.5091e-12
-1.64087e-11
6.39588e-12
7.85501e-12
-2.08928e-11
8.36019e-12
9.14293e-12
-2.55273e-11
1.05356e-11
1.03835e-11
-3.03907e-11
1.29832e-11
1.15727e-11
-3.55251e-11
1.57454e-11
1.26839e-11
-4.09341e-11
1.88359e-11
1.36551e-11
-4.65754e-11
2.2225e-11
1.43677e-11
-5.23472e-11
2.58197e-11
1.46199e-11
-5.80588e-11
2.94471e-11
1.41114e-11
-6.33719e-11
3.28601e-11
1.25252e-11
-6.76995e-11
3.5799e-11
1.00179e-11
-7.02027e-11
3.80769e-11
-6.93438e-11
3.97859e-11
2.12706e-12
-2.73197e-12
1.06647e-12
4.03463e-12
-7.97899e-12
3.13392e-12
5.77477e-12
-1.29097e-11
5.1327e-12
7.39041e-12
-1.77362e-11
7.17731e-12
8.91667e-12
-2.26286e-11
9.36454e-12
1.03814e-11
-2.77196e-11
1.17764e-11
1.18045e-11
-3.3107e-11
1.44794e-11
1.31962e-11
-3.88543e-11
1.75191e-11
1.45528e-11
-4.49896e-11
2.09105e-11
1.58508e-11
-5.15011e-11
2.4621e-11
1.70372e-11
-5.83272e-11
2.85469e-11
1.80203e-11
-6.53394e-11
3.24881e-11
1.86745e-11
-7.23122e-11
3.61418e-11
1.88977e-11
-7.88716e-11
3.9154e-11
1.87663e-11
-8.4386e-11
4.12538e-11
-8.80699e-11
4.26156e-11
2.34437e-12
1.16311e-12
-2.83134e-12
4.44534e-12
3.41604e-12
-8.27401e-12
6.35887e-12
5.58843e-12
-1.34019e-11
8.13157e-12
7.80129e-12
-1.84418e-11
9.80271e-12
1.01563e-11
-2.35774e-11
1.14055e-11
1.27387e-11
-2.89551e-11
1.29676e-11
1.56169e-11
-3.46874e-11
1.45115e-11
1.88366e-11
-4.08536e-11
1.60543e-11
2.2411e-11
-4.74992e-11
1.76078e-11
2.63023e-11
-5.46313e-11
1.91795e-11
3.03952e-11
-6.22112e-11
2.07788e-11
3.44644e-11
-7.01425e-11
2.24418e-11
3.81551e-11
-7.82597e-11
2.42791e-11
4.10184e-11
-8.63179e-11
2.63139e-11
4.26837e-11
-9.37548e-11
4.30799e-11
-1.02024e-10
1.85734e-13
-5.15378e-13
6.67257e-14
3.52004e-13
-1.50198e-12
1.96339e-13
5.02933e-13
-2.41976e-12
3.22448e-13
6.41401e-13
-3.30289e-12
4.52722e-13
7.68831e-13
-4.17603e-12
5.93583e-13
8.84881e-13
-5.05413e-12
7.503e-13
9.86943e-13
-5.94206e-12
9.26851e-13
1.06939e-12
-6.83371e-12
1.12539e-12
1.12275e-12
-7.7106e-12
1.34527e-12
1.13348e-12
-8.54088e-12
1.58165e-12
1.0852e-12
-9.27932e-12
1.82407e-12
9.63269e-13
-9.86718e-12
2.05561e-12
7.63102e-13
-1.02261e-11
2.25421e-12
5.00976e-13
-1.02346e-11
2.39932e-12
2.279e-13
-9.72699e-12
2.48094e-12
-8.07872e-12
2.68405e-12
5.53762e-13
-1.01515e-12
1.98498e-13
1.04954e-12
-2.95902e-12
5.84056e-13
1.49967e-12
-4.76861e-12
9.59088e-13
1.91285e-12
-6.51184e-12
1.34629e-12
2.29359e-12
-8.23831e-12
1.76469e-12
2.6413e-12
-9.97915e-12
2.22994e-12
2.94879e-12
-1.17462e-11
2.75392e-12
3.19992e-12
-1.35302e-11
3.34315e-12
3.36699e-12
-1.52984e-11
3.99604e-12
3.40922e-12
-1.69938e-11
4.69894e-12
3.27561e-12
-1.85366e-11
5.4221e-12
2.9178e-12
-1.98347e-11
6.11696e-12
2.32067e-12
-2.08019e-11
6.7193e-12
1.55901e-12
-2.13862e-11
7.16544e-12
8.65571e-13
-2.15991e-11
7.41876e-12
-2.17322e-11
7.42348e-12
9.11655e-13
-1.48405e-12
3.25366e-13
1.728e-12
-4.32694e-12
9.57255e-13
2.46949e-12
-6.97661e-12
1.57153e-12
3.15086e-12
-9.5342e-12
2.20508e-12
3.7804e-12
-1.20749e-11
2.88888e-12
4.35856e-12
-1.46481e-11
3.64855e-12
4.87552e-12
-1.72762e-11
4.50367e-12
5.30731e-12
-1.99525e-11
5.46543e-12
5.61095e-12
-2.26377e-11
6.53237e-12
5.72017e-12
-2.52585e-11
7.68466e-12
5.54619e-12
-2.77105e-11
8.87817e-12
4.99314e-12
-2.98745e-11
1.00411e-11
4.00882e-12
-3.16584e-11
1.10797e-11
2.70504e-12
-3.30693e-11
1.19019e-11
1.53198e-12
-3.42373e-11
1.24494e-11
-3.54408e-11
1.27544e-11
1.25291e-12
-1.90665e-12
4.44349e-13
2.37504e-12
-5.56088e-12
1.30707e-12
3.3948e-12
-8.97207e-12
2.14493e-12
4.33328e-12
-1.22736e-11
3.00775e-12
5.20353e-12
-1.55664e-11
3.93741e-12
6.00897e-12
-1.89203e-11
4.96874e-12
6.74042e-12
-2.23723e-11
6.12864e-12
7.37116e-12
-2.59242e-11
7.43315e-12
7.84999e-12
-2.95391e-11
8.88224e-12
8.09327e-12
-3.31362e-11
1.04529e-11
7.97955e-12
-3.65886e-11
1.20921e-11
7.35644e-12
-3.9728e-11
1.37143e-11
6.0896e-12
-4.23713e-11
1.52107e-11
4.21717e-12
-4.43856e-11
1.64786e-11
2.27979e-12
-4.57751e-11
1.74412e-11
-4.69002e-11
1.80907e-11
1.57122e-12
-2.26795e-12
5.52794e-13
2.97855e-12
-6.61717e-12
1.62559e-12
4.25804e-12
-1.06846e-11
2.66603e-12
5.4373e-12
-1.46338e-11
3.73517e-12
6.53506e-12
-1.85911e-11
4.88438e-12
7.55987e-12
-2.26474e-11
6.15651e-12
8.50719e-12
-2.68575e-11
7.58494e-12
9.35454e-12
-3.12382e-11
9.19023e-12
1.0054e-11
-3.57631e-11
1.09742e-11
1.05223e-11
-4.03555e-11
1.29121e-11
1.06297e-11
-4.48761e-11
1.49446e-11
1.0193e-11
-4.91047e-11
1.6974e-11
9.00009e-12
-5.27174e-11
1.88768e-11
6.93781e-12
-5.52778e-11
2.05367e-11
4.42628e-12
-5.63833e-11
2.18524e-11
-5.62542e-11
2.27893e-11
1.8608e-12
-2.5539e-12
6.48532e-13
3.52735e-12
-7.45466e-12
1.90637e-12
5.04269e-12
-1.20474e-11
3.12403e-12
6.44067e-12
-1.65224e-11
4.3718e-12
7.74624e-12
-2.1029e-11
5.70871e-12
8.97466e-12
-2.56788e-11
7.18405e-12
1.01296e-11
-3.05458e-11
8.83625e-12
1.11997e-11
-3.56651e-11
1.06893e-11
1.2153e-11
-4.10287e-11
1.27462e-11
1.29296e-11
-4.65774e-11
1.49801e-11
1.34325e-11
-5.21852e-11
1.73234e-11
1.3518e-11
-5.76312e-11
1.96616e-11
1.30007e-11
-6.25483e-11
2.18446e-11
1.17152e-11
-6.63457e-11
2.37241e-11
9.81781e-12
-6.82602e-11
2.51793e-11
-6.69503e-11
2.6215e-11
2.11665e-12
-2.75195e-12
7.29975e-13
4.01178e-12
-8.03662e-12
2.14473e-12
5.7342e-12
-1.30004e-11
3.51121e-12
7.32321e-12
-1.78551e-11
4.90662e-12
8.80959e-12
-2.27691e-11
6.39556e-12
1.02157e-11
-2.78718e-11
8.03173e-12
1.15549e-11
-3.32548e-11
9.85678e-12
1.28305e-11
-3.89717e-11
1.18964e-11
1.40342e-11
-4.50348e-11
1.41534e-11
1.51448e-11
-5.14092e-11
1.6597e-11
1.61296e-11
-5.80022e-11
1.9149e-11
1.69512e-11
-6.46495e-11
2.16717e-11
1.75914e-11
-7.10982e-11
2.39733e-11
1.80931e-11
-7.6991e-11
2.58452e-11
1.85421e-11
-8.18196e-11
2.71268e-11
-8.50398e-11
2.79053e-11
2.33498e-12
7.96216e-13
-2.85178e-12
4.42453e-12
2.33809e-12
-8.33289e-12
6.32153e-12
3.82347e-12
-1.34943e-11
8.06923e-12
5.33399e-12
-1.85621e-11
9.70287e-12
6.93757e-12
-2.3718e-11
1.12506e-11
8.6901e-12
-2.91044e-11
1.27342e-11
1.06343e-11
-3.48264e-11
1.417e-11
1.27958e-11
-4.09516e-11
1.55706e-11
1.51754e-11
-4.75074e-11
1.69495e-11
1.77376e-11
-5.44753e-11
1.83301e-11
2.03939e-11