/*--------------------------------*- C++ -*----------------------------------*\
| =========                 |                                                 |
| \\      /  F ield         | OpenFOAM: The Open Source CFD Toolbox           |
|  \\    /   O peration     | Version:  v1912                                 |
|   \\  /    A nd           | Website:  www.openfoam.com                      |
|    \\/     M anipulation  |                                                 |
\*---------------------------------------------------------------------------*/
FoamFile
{
    version     2.0;
    format      ascii;
    class       volScalarField;
    location    "0.52/fluid";
    object      p;
}
// * * * * * * * * * * * * * * * * * * * * * * * * * * * * * * * * * * * * * //

dimensions      [0 2 -2 0 0 0 0];


internalField   nonuniform List<scalar> 
14592
(
0.0575983
0.0520099
0.0501407
0.0485679
0.0476467
0.046903
0.0462913
0.0457487
0.0452303
0.0448034
0.0443295
0.0440895
0.0435643
0.0438182
0.0429965
0.0451007
0.0534022
0.0516652
0.0500028
0.0486661
0.0477457
0.0469946
0.0463679
0.0458201
0.0453038
0.0448892
0.0444341
0.0442359
0.0437514
0.0441638
0.0433387
0.0464471
0.0514393
0.0508243
0.0495967
0.048602
0.0477471
0.0470201
0.0463838
0.0458283
0.0453087
0.0449016
0.0444668
0.0443185
0.0438959
0.0444799
0.0437172
0.0475037
0.050248
0.0500897
0.0492247
0.0484635
0.0476927
0.0469989
0.0463603
0.0457957
0.0452664
0.0448573
0.0444304
0.0443182
0.0439475
0.0446754
0.0440305
0.0481751
0.0495397
0.0495055
0.0488636
0.0482543
0.04756
0.0469006
0.0462628
0.045684
0.0451302
0.0446918
0.0442306
0.0440913
0.0436867
0.0444455
0.0438057
0.0482118
0.0490664
0.0490714
0.0485695
0.0480519
0.0474129
0.0467775
0.0461387
0.0455444
0.0449659
0.0444995
0.0440121
0.0438664
0.0434767
0.0443627
0.0438839
0.0487793
0.0487585
0.0487723
0.0483422
0.0478705
0.0472592
0.0466285
0.0459733
0.0453436
0.0447103
0.0441638
0.0435638
0.0432558
0.0426242
0.043206
0.0421788
0.0471067
0.0485732
0.0485895
0.0481891
0.0477336
0.0471278
0.0464882
0.0458109
0.0451458
0.0444665
0.0438606
0.0431984
0.0428287
0.0421745
0.0429156
0.0421498
0.0494131
0.0574973
0.0519109
0.0500784
0.0485465
0.0476788
0.0469946
0.0464506
0.0459851
0.0455563
0.0452302
0.0448759
0.0447384
0.044352
0.0445098
0.0438003
0.0445443
0.0533012
0.0515644
0.0499396
0.0486444
0.0477784
0.0470876
0.0465293
0.0460595
0.0456337
0.0453207
0.044985
0.0448849
0.0445287
0.044784
0.0440304
0.0452104
0.0513349
0.0507184
0.0495276
0.0485741
0.0477741
0.047108
0.0465405
0.0460632
0.0456336
0.0453277
0.0450101
0.0449566
0.0446505
0.0450445
0.0443106
0.0458557
0.0501413
0.0499811
0.0491519
0.0484311
0.0477145
0.0470809
0.0465103
0.0460231
0.0455826
0.0452739
0.0449618
0.0449431
0.0446804
0.0452025
0.0445514
0.0463207
0.0494301
0.0493937
0.0487866
0.0482165
0.0475749
0.0469741
0.0464021
0.0458979
0.0454287
0.0450861
0.0447313
0.0446787
0.0443625
0.0449024
0.0442022
0.0461703
0.0489539
0.0489568
0.0484889
0.0480092
0.0474212
0.0468424
0.0462668
0.0457441
0.0452461
0.0448721
0.0444852
0.0444265
0.0441154
0.0447977
0.0442249
0.0466679
0.0486424
0.0486541
0.0482572
0.0478223
0.0472597
0.0466828
0.0460869
0.0455233
0.0449624
0.0444977
0.0439801
0.0437413
0.0431418
0.0435039
0.042238
0.0447282
0.0484532
0.0484676
0.0480996
0.0476798
0.0471207
0.0465324
0.0459107
0.0453071
0.044694
0.0441638
0.0435757
0.0432779
0.0426495
0.0432368
0.0422013
0.0471385
0.0574344
0.0518496
0.0500454
0.0485471
0.0477254
0.0470954
0.0466172
0.0462314
0.045904
0.0457054
0.0455317
0.0456145
0.0456041
0.0461238
0.0462627
0.0471447
0.0532384
0.0515018
0.049906
0.0486451
0.047826
0.0471901
0.0466986
0.0463097
0.0459871
0.0458039
0.0456519
0.045775
0.0458014
0.0464135
0.0465491
0.0477634
0.0512686
0.0506511
0.0494884
0.0485692
0.0478164
0.0472057
0.0467053
0.0463091
0.0459827
0.045807
0.0456728
0.0458446
0.0459242
0.0466817
0.046879
0.0484205
0.0500726
0.0499111
0.049109
0.0484215
0.0477515
0.0471729
0.0466685
0.0462618
0.0459234
0.0457447
0.045615
0.0458243
0.0459489
0.0468441
0.0471383
0.0488982
0.0493581
0.0493202
0.0487393
0.0482013
0.0476049
0.0470575
0.0465496
0.0461233
0.0457522
0.0455352
0.0453551
0.0455253
0.0455811
0.0464917
0.0467057
0.0486574
0.0488788
0.0488802
0.0484377
0.0479889
0.0474445
0.0469171
0.046403
0.0459549
0.0455504
0.0452971
0.0450765
0.0452364
0.0452797
0.046336
0.0466304
0.0490591
0.0485635
0.0485738
0.0482014
0.0477961
0.0472751
0.0467469
0.0462083
0.0457137
0.0452372
0.0448813
0.0445079
0.0444616
0.0441528
0.0448382
0.0442457
0.0466784
0.0483704
0.0483835
0.0480394
0.0476479
0.0471284
0.046586
0.0460178
0.0454778
0.044941
0.0445092
0.0440477
0.0439256
0.0435433
0.0444422
0.0439404
0.0488485
0.0573961
0.0518123
0.0500292
0.0485568
0.0477706
0.0471821
0.0467531
0.0464231
0.0461609
0.0460302
0.0459379
0.0460765
0.0461528
0.0466251
0.0468294
0.0474597
0.0532001
0.0514635
0.0498894
0.0486549
0.047872
0.0472782
0.0468364
0.046504
0.0462472
0.0461325
0.046062
0.0462385
0.0463471
0.0468901
0.0470763
0.047937
0.0512272
0.0506087
0.0494669
0.0485738
0.0478575
0.0472894
0.0468388
0.0464991
0.0462378
0.0461297
0.0460738
0.046294
0.046445
0.0471107
0.0473356
0.0484542
0.0500287
0.0498659
0.0490839
0.0484219
0.0477878
0.0472512
0.0467961
0.0464452
0.0461708
0.0460584
0.0460042
0.0462593
0.0464467
0.0472387
0.0475371
0.0488462
0.0493111
0.0492718
0.04871
0.0481966
0.0476349
0.0471283
0.046668
0.0462955
0.0459852
0.0458313
0.0457204
0.0459312
0.0460357
0.0468336
0.0470183
0.0485056
0.0488287
0.0488288
0.0484047
0.0479795
0.0474685
0.0469804
0.0465118
0.0461152
0.0457683
0.0455753
0.0454187
0.0456176
0.0456989
0.0466444
0.0468798
0.0488406
0.04851
0.0485189
0.0481643
0.0477815
0.0472923
0.0468012
0.0463053
0.0458584
0.045434
0.0451321
0.0448118
0.0447961
0.0445
0.0450676
0.044348
0.0463045
0.0483133
0.0483251
0.0479983
0.0476282
0.0471391
0.0466318
0.0461034
0.0456077
0.0451184
0.0447364
0.0443209
0.0442289
0.0438484
0.0446474
0.0439849
0.0484245
0.0573756
0.0517926
0.0500258
0.0485741
0.0478169
0.0472634
0.0468774
0.0465983
0.046399
0.0463397
0.0463408
0.0465695
0.0467852
0.0473312
0.0477207
0.0482885
0.0531797
0.0514432
0.0498859
0.0486724
0.0479191
0.047361
0.0469629
0.0466822
0.0464895
0.0464476
0.0464724
0.0467402
0.0469902
0.047601
0.0479758
0.0487293
0.0512041
0.0505849
0.0494593
0.0485872
0.0479006
0.0473685
0.0469618
0.0466741
0.0464764
0.0464406
0.0464783
0.0467873
0.0470739
0.0477969
0.0482017
0.0491843
0.0500034
0.0498397
0.0490732
0.0484316
0.0478268
0.0473258
0.0469141
0.0466146
0.0464029
0.0463622
0.0463996
0.0467423
0.0470607
0.0479056
0.0483726
0.0495354
0.0492829
0.0492427
0.0486957
0.0482018
0.0476685
0.0471963
0.046778
0.0464551
0.0462048
0.0461197
0.0460953
0.0463896
0.0466144
0.0474591
0.0477893
0.049124
0.0487978
0.048797
0.0483871
0.0479805
0.0474967
0.0470417
0.0466133
0.0462642
0.0459742
0.0458468
0.0457711
0.0460502
0.0462401
0.0472292
0.0475827
0.0493873
0.048476
0.048484
0.048143
0.0477779
0.0473145
0.0468546
0.0463962
0.0459933
0.0456207
0.0453783
0.0451281
0.0451826
0.0449704
0.0455667
0.0449026
0.0466836
0.0482762
0.0482872
0.0479733
0.0476201
0.0471554
0.0466775
0.046184
0.0457289
0.0452863
0.0449581
0.0446034
0.044574
0.0442574
0.045079
0.0444216
0.0486762
0.0573651
0.0517827
0.0500272
0.04859
0.047853
0.0473236
0.0469664
0.0467194
0.0465569
0.0465335
0.046576
0.0468288
0.0470802
0.0476046
0.0480099
0.0485194
0.0531692
0.0514327
0.0498872
0.0486886
0.0479559
0.0474223
0.0470532
0.046805
0.0466495
0.046644
0.0467104
0.0470015
0.0472856
0.0478683
0.0482542
0.048922
0.0511915
0.0505717
0.0494575
0.0486
0.0479343
0.0474269
0.0470494
0.046794
0.0466331
0.0466328
0.0467098
0.0470388
0.0473529
0.0480369
0.0484404
0.0493186
0.0499891
0.0498246
0.049069
0.0484416
0.0478572
0.0473807
0.0469977
0.0467302
0.0465544
0.0465484
0.0466233
0.046984
0.0473244
0.0481244
0.0485777
0.0496291
0.0492664
0.0492253
0.0486886
0.0482082
0.0476947
0.0472462
0.0468557
0.0465636
0.0463474
0.0462952
0.0463047
0.0466142
0.0468534
0.0476479
0.047948
0.0491678
0.0487791
0.0487774
0.0483773
0.0479838
0.0475189
0.0470865
0.0466847
0.0463651
0.0461073
0.0460112
0.0459661
0.0462588
0.0464564
0.0473935
0.0477003
0.0493888
0.0484548
0.0484621
0.0481304
0.0477776
0.0473322
0.0468937
0.0464601
0.0460847
0.0457414
0.0455273
0.0453028
0.0453674
0.0451522
0.0456923
0.0449527
0.0466071
0.0482525
0.0482628
0.0479579
0.0476165
0.0471688
0.0467111
0.0462407
0.0458111
0.0453953
0.0450929
0.0447599
0.0447394
0.0444132
0.045181
0.0444297
0.0485537
0.0573609
0.0517789
0.050031
0.0486036
0.0478806
0.0473682
0.0470316
0.0468085
0.0466745
0.0466814
0.0467606
0.047043
0.0473359
0.0478707
0.0483102
0.0487934
0.0531651
0.0514286
0.049891
0.0487024
0.047984
0.0474676
0.0471196
0.0468958
0.0467694
0.0467948
0.0468988
0.0472202
0.0475465
0.0481375
0.0485575
0.0491844
0.0511859
0.0505658
0.0494592
0.0486117
0.0479603
0.0474703
0.047114
0.046883
0.046751
0.0467813
0.0468947
0.0472523
0.047605
0.0482917
0.0487227
0.0495502
0.0499823
0.0498174
0.049069
0.0484513
0.047881
0.0474217
0.0470597
0.0468163
0.0466689
0.046693
0.0468031
0.0471914
0.0475673
0.0483669
0.0488408
0.0498381
0.049258
0.0492164
0.0486866
0.0482155
0.0477156
0.0472837
0.0469134
0.0466446
0.0464557
0.0464321
0.0464746
0.0468096
0.0470792
0.0478701
0.0481804
0.0493442
0.0487692
0.048767
0.0483735
0.0479887
0.0475369
0.0471205
0.046738
0.0464406
0.0462085
0.0461397
0.0461249
0.0464414
0.0466642
0.0475953
0.0479005
0.049532
0.0484432
0.04845
0.0481245
0.0477801
0.047347
0.0469236
0.046508
0.0461533
0.0458335
0.0456443
0.045446
0.0455312
0.0453329
0.045862
0.0451002
0.0466889
0.0482392
0.048249
0.04795
0.0476165
0.0471805
0.0467369
0.0462833
0.0458728
0.0454782
0.0451984
0.0448878
0.0448851
0.0445689
0.0453231
0.0445334
0.0485883
0.0573592
0.0517779
0.050033
0.0486106
0.0478939
0.0473892
0.0470617
0.0468484
0.0467253
0.0467421
0.0468321
0.0471191
0.0474189
0.0479459
0.0483874
0.0488602
0.0531638
0.051427
0.0498931
0.0487094
0.0479976
0.0474889
0.04715
0.046936
0.0468204
0.0468555
0.0469698
0.0472949
0.047627
0.0482079
0.048629
0.0492404
0.0511837
0.0505634
0.0494604
0.0486175
0.0479727
0.0474905
0.0471433
0.046922
0.0468004
0.0468398
0.0469625
0.0473221
0.0476779
0.048351
0.0487797
0.0495881
0.0499795
0.0498142
0.0490693
0.0484561
0.0478923
0.0474407
0.0470876
0.0468537
0.0467165
0.0467493
0.046868
0.0472575
0.0476347
0.0484187
0.0488867
0.0498634
0.0492544
0.0492124
0.0486859
0.048219
0.0477254
0.047301
0.0469393
0.0466797
0.0465005
0.0464853
0.0465354
0.0468711
0.0471401
0.047914
0.0482139
0.049356
0.0487647
0.0487623
0.0483719
0.0479912
0.0475453
0.0471361
0.0467618
0.0464733
0.0462504
0.0461895
0.0461815
0.0464983
0.0467186
0.0476315
0.0479207
0.0495292
0.0484379
0.0484444
0.0481219
0.0477813
0.0473539
0.0469373
0.0465295
0.0461831
0.0458718
0.0456899
0.0454974
0.0455826
0.0453799
0.0458903
0.0451058
0.0466679
0.048233
0.0482425
0.0479465
0.0476166
0.0471859
0.0467487
0.0463025
0.0458997
0.0455129
0.0452398
0.0449341
0.0449309
0.0446083
0.0453425
0.0445229
0.0485456
0.0670149
0.0562977
0.0526898
0.049732
0.0480118
0.0466351
0.0455139
0.0444669
0.0434303
0.0423631
0.0411896
0.0399331
0.0384507
0.0368709
0.0349248
0.0329655
0.0627319
0.0555276
0.0522931
0.0496247
0.0479678
0.0466265
0.0455177
0.0444795
0.0434517
0.0423936
0.0412297
0.0399862
0.0385183
0.0369562
0.0350246
0.0330761
0.0607446
0.0545052
0.0516793
0.0493465
0.0478153
0.0465524
0.0454748
0.0444545
0.0434383
0.0423895
0.0412372
0.0400078
0.0385605
0.0370217
0.0351184
0.0331915
0.0594923
0.053692
0.0512024
0.0490994
0.0476806
0.0464822
0.0454305
0.0444222
0.0434109
0.0423645
0.0412165
0.0399936
0.0385593
0.0370362
0.0351554
0.0332483
0.0587469
0.0530785
0.0507937
0.048842
0.0475172
0.0463767
0.0453524
0.0443564
0.0433483
0.0423011
0.0411529
0.0399305
0.038504
0.0369909
0.0351334
0.0332499
0.0582538
0.0526359
0.0504838
0.0486267
0.0473692
0.0462699
0.0452662
0.0442779
0.0432699
0.0422191
0.0410687
0.0398448
0.0384259
0.0369233
0.0350946
0.0332399
0.0579438
0.0523414
0.0502599
0.0484543
0.0472366
0.0461612
0.0451685
0.044181
0.0431673
0.0421073
0.0409487
0.0397157
0.0382982
0.0367985
0.0349999
0.0331767
0.0577694
0.0521721
0.0501213
0.0483373
0.0471356
0.0460676
0.0450761
0.0440834
0.043061
0.0419906
0.0408247
0.0395848
0.0381737
0.0366827
0.0349233
0.0331377
0.0627305
0.0555237
0.0522851
0.0496116
0.0479491
0.0466005
0.0454883
0.0444446
0.0434024
0.0423282
0.041143
0.0398777
0.0383772
0.0367916
0.0348141
0.032866
0.05851
0.0550953
0.0520416
0.0495979
0.0479598
0.0466232
0.0455092
0.0444652
0.0434228
0.0423497
0.0411674
0.0399075
0.0384149
0.0368409
0.034879
0.0329452
0.0565203
0.0541605
0.0514984
0.0493834
0.0478474
0.0465715
0.0454781
0.0444453
0.0434081
0.0423399
0.0411656
0.0399164
0.0384419
0.0368877
0.0349496
0.033034
0.0552814
0.0533637
0.0510492
0.0491652
0.0477348
0.0465164
0.0454437
0.0444189
0.0433831
0.0423157
0.0411449
0.0399016
0.0384398
0.0369008
0.034985
0.0330892
0.0545417
0.052746
0.0506466
0.0489162
0.0475787
0.0464165
0.0453695
0.0443556
0.0433226
0.0422543
0.0410837
0.0398415
0.0383882
0.0368596
0.0349675
0.0330946
0.0540515
0.0522978
0.0503375
0.0487038
0.047434
0.0463132
0.045286
0.0442795
0.0432475
0.0421767
0.0410054
0.0397633
0.0383199
0.0368037
0.0349428
0.0330989
0.0537429
0.0520001
0.0501135
0.0485325
0.0473031
0.0462068
0.0451899
0.0441842
0.0431481
0.042069
0.0408908
0.0396408
0.0382007
0.0366884
0.0348606
0.0330475
0.0535691
0.0518296
0.0499753
0.0484167
0.0472039
0.0461157
0.0450995
0.044089
0.0430462
0.0419581
0.0407747
0.0395202
0.03809
0.0365892
0.0348055
0.0330302
0.0607586
0.0545177
0.0516957
0.0493668
0.0478421
0.0465876
0.0455264
0.0445203
0.0435043
0.0424567
0.0412875
0.0400423
0.0385186
0.0369221
0.0347955
0.0327686
0.0565377
0.0541793
0.0515272
0.0494228
0.0479004
0.0466421
0.0455701
0.0445584
0.0435387
0.0424913
0.0413251
0.0400861
0.0385712
0.0369879
0.0348746
0.0328626
0.054551
0.053311
0.0510682
0.0492962
0.0478511
0.0466313
0.0455646
0.0445548
0.0435349
0.0424895
0.0413305
0.0401021
0.0386059
0.0370412
0.0349468
0.0329448
0.0533278
0.0525435
0.0506607
0.0491228
0.0477731
0.0466001
0.0455451
0.0445371
0.043515
0.0424684
0.0413121
0.0400897
0.0386072
0.0370589
0.0349868
0.0330045
0.0525982
0.0519377
0.0502785
0.0488966
0.0476353
0.0465125
0.0454775
0.044476
0.0434533
0.042403
0.041245
0.0400218
0.0385469
0.0370081
0.0349616
0.0330041
0.0521139
0.0514934
0.0499774
0.0486933
0.047498
0.0464135
0.0453952
0.0443988
0.0433748
0.04232
0.0411602
0.0399366
0.0384735
0.0369496
0.0349434
0.0330224
0.0518078
0.0511965
0.0497561
0.0485251
0.0473693
0.0463067
0.0452963
0.0442984
0.0432672
0.0422006
0.0410302
0.0397941
0.0383322
0.0368092
0.0348465
0.0329633
0.0516342
0.0510254
0.0496181
0.0484095
0.0472697
0.0462136
0.0452017
0.044197
0.0431573
0.0420793
0.040902
0.0396595
0.0382102
0.0367016
0.034801
0.0329684
0.0595221
0.0537207
0.0512476
0.0491636
0.0477714
0.0466049
0.0455958
0.0446313
0.0436499
0.0426402
0.0414957
0.0402843
0.0387314
0.0371294
0.0347738
0.0326426
0.0553152
0.0533992
0.0511086
0.0492514
0.0478557
0.0466797
0.0456537
0.0446794
0.0436927
0.042683
0.0415421
0.0403388
0.0387973
0.0372144
0.0348727
0.0327582
0.0533438
0.0525592
0.0506906
0.0491694
0.0478415
0.0466941
0.0456645
0.0446858
0.0436957
0.0426865
0.041553
0.0403612
0.0388392
0.0372742
0.0349407
0.0328192
0.0521357
0.0518103
0.0503053
0.0490196
0.0477821
0.0466758
0.0456526
0.0446719
0.0436773
0.0426655
0.0415346
0.0403496
0.0388429
0.0372962
0.0349831
0.0328794
0.0514165
0.0512157
0.0499362
0.0488069
0.0476548
0.0465945
0.0455872
0.0446096
0.0436112
0.042593
0.0414579
0.0402694
0.0387686
0.0372294
0.0349431
0.0328662
0.0509384
0.0507771
0.049641
0.0486092
0.0475214
0.0464969
0.0455038
0.0445286
0.0435266
0.0425018
0.0413637
0.0401741
0.0386879
0.0371677
0.0349357
0.0329077
0.050635
0.0504824
0.0494218
0.0484426
0.0473928
0.0463882
0.0454003
0.0444204
0.0434074
0.0423658
0.0412119
0.0400026
0.0385134
0.0369876
0.0348144
0.0328344
0.0504615
0.0503112
0.0492835
0.0483261
0.0472912
0.0462913
0.0453004
0.0443115
0.0432869
0.0422306
0.0410676
0.0398494
0.0383773
0.036871
0.0347902
0.0328848
0.0587923
0.0531242
0.0508753
0.0489672
0.0477028
0.0466344
0.0456987
0.0448024
0.0438853
0.0429505
0.0418717
0.0407485
0.0392077
0.0376605
0.0350102
0.032745
0.0545915
0.0527979
0.0507425
0.0490645
0.0477967
0.0467179
0.045764
0.0448575
0.0439361
0.043003
0.0419303
0.04082
0.0392961
0.037779
0.0351439
0.0328908
0.0526291
0.051968
0.0503433
0.0490045
0.0478012
0.0467467
0.0457846
0.0448706
0.0439445
0.043012
0.0419482
0.0408522
0.0393502
0.0378514
0.0352052
0.0329151
0.0514314
0.0512301
0.0499708
0.048868
0.0477526
0.0467358
0.0457765
0.0448578
0.0439255
0.0429897
0.0419291
0.040842
0.0393583
0.037883
0.0352547
0.0329805
0.0507201
0.0506439
0.0496109
0.0486644
0.0476319
0.0466579
0.0457108
0.0447911
0.0438513
0.0429052
0.0418366
0.0407422
0.0392614
0.0377918
0.0351928
0.0329527
0.0502469
0.0502101
0.0493204
0.0484706
0.0475004
0.0465597
0.0456237
0.044703
0.043756
0.0427998
0.0417255
0.0406285
0.0391653
0.0377225
0.0352
0.0330355
0.0499453
0.0499171
0.0491025
0.0483043
0.0473702
0.0464466
0.0455123
0.0445818
0.0436177
0.0426363
0.0415364
0.0404061
0.0389289
0.0374659
0.035022
0.0329253
0.0497711
0.0497452
0.048963
0.0481857
0.0472648
0.0463435
0.0454032
0.0444597
0.043479
0.0424767
0.0413621
0.0402162
0.0387584
0.0373205
0.0350136
0.0330439
0.0583017
0.0526852
0.0505927
0.0488091
0.0476533
0.0466742
0.0458149
0.0449931
0.0441492
0.0432996
0.0422954
0.0412707
0.0397316
0.0382289
0.0351283
0.0326436
0.0541037
0.0523517
0.0504595
0.0489084
0.0477504
0.0467612
0.0458837
0.0450525
0.0442055
0.0433596
0.0423643
0.0413585
0.0398426
0.0383841
0.0352805
0.0327478
0.0521455
0.0515229
0.050065
0.0488548
0.0477609
0.0467946
0.0459071
0.0450675
0.0442155
0.0433712
0.0423868
0.0413991
0.0399057
0.0384617
0.0352952
0.032635
0.0509535
0.0507899
0.0496972
0.0487228
0.0477154
0.0467851
0.0458983
0.0450524
0.0441931
0.0433452
0.0423645
0.0413885
0.0399157
0.0384999
0.0353365
0.0326716
0.0502466
0.0502078
0.0493411
0.0485221
0.0475959
0.0467061
0.0458283
0.044978
0.0441074
0.0432451
0.0422516
0.0412633
0.0397878
0.0383745
0.0352398
0.0326184
0.049776
0.0497765
0.0490525
0.048329
0.0474633
0.0466046
0.045735
0.0448803
0.043999
0.043123
0.0421211
0.0411292
0.0396762
0.0383036
0.0352814
0.0327855
0.0494747
0.0494839
0.0488342
0.0481611
0.0473294
0.0464853
0.0456135
0.0447437
0.0438382
0.0429273
0.0418875
0.0408446
0.0393614
0.0379485
0.0350369
0.0326504
0.049299
0.0493104
0.0486926
0.0480393
0.047219
0.0463751
0.0454942
0.0446067
0.0436795
0.0427412
0.0416812
0.040618
0.0391624
0.0377964
0.0351061
0.0329749
0.0579755
0.0523764
0.0503859
0.0486928
0.0476295
0.046737
0.0459633
0.0452344
0.0444941
0.0437775
0.0429251
0.0421225
0.0407774
0.0396131
0.0363385
0.0339152
0.0537788
0.0520378
0.050251
0.0487919
0.0477277
0.0468258
0.046035
0.0452982
0.0445567
0.043847
0.0430076
0.0422324
0.040919
0.0398216
0.0365207
0.0339538
0.051821
0.0512063
0.049855
0.0487377
0.0477381
0.046859
0.046058
0.0453126
0.0445667
0.0438604
0.043035
0.0422854
0.0410005
0.0399301
0.036525
0.0337429
0.0506313
0.0504747
0.0494881
0.0486058
0.0476918
0.0468476
0.0460459
0.0452931
0.044539
0.0438295
0.0430092
0.0422774
0.0410201
0.039996
0.0365876
0.0337819
0.0499259
0.0498939
0.0491325
0.0484045
0.0475702
0.0467642
0.0459685
0.0452079
0.0444383
0.0437094
0.0428702
0.0421206
0.0408535
0.0398336
0.0364531
0.033709
0.0494559
0.0494632
0.0488435
0.0482098
0.0474342
0.046657
0.0458663
0.0450974
0.0443126
0.0435652
0.0427126
0.0419575
0.0407149
0.0397558
0.036527
0.0339882
0.0491535
0.0491694
0.0486234
0.0480385
0.0472948
0.046529
0.0457313
0.0449407
0.0441221
0.0433258
0.0424146
0.0415779
0.0402639
0.0392129
0.0360841
0.0337082
0.0489752
0.0489935
0.0484786
0.0479123
0.0471781
0.0464096
0.0455983
0.0447843
0.0439361
0.0431018
0.042158
0.0412865
0.0399923
0.0390022
0.0361695
0.0342961
0.0577494
0.0521574
0.0502376
0.048612
0.0476249
0.0468088
0.0461143
0.0454721
0.0448277
0.0442271
0.0434996
0.0428557
0.0416175
0.0405815
0.0368584
0.0338456
0.053553
0.0518151
0.0501009
0.0487106
0.0477234
0.0468988
0.0461882
0.0455393
0.044895
0.0443036
0.0435913
0.0429801
0.0417711
0.0407954
0.0368848
0.0331691
0.0515932
0.0509791
0.0497004
0.0486522
0.0477299
0.0469287
0.0462082
0.045551
0.0449027
0.044316
0.0436192
0.0430381
0.0418532
0.0408919
0.0367443
0.032385
0.0504033
0.0502466
0.0493315
0.0485176
0.0476803
0.0469129
0.0461908
0.0455253
0.044868
0.0442783
0.0435867
0.0430274
0.0418707
0.0409615
0.0367718
0.0322527
0.0496972
0.0496647
0.0489739
0.0483131
0.0475539
0.0468228
0.0461042
0.0454277
0.0447505
0.0441365
0.0434187
0.0428353
0.0416567
0.0407493
0.0365796
0.0321283
0.0492261
0.0492329
0.048683
0.0481151
0.0474131
0.0467084
0.0459918
0.0453037
0.0446072
0.0439706
0.0432351
0.0426473
0.0414977
0.0406829
0.0367268
0.0325777
0.0489214
0.0489369
0.0484597
0.0479392
0.0472672
0.0465706
0.0458427
0.0451266
0.0443871
0.0436885
0.0428742
0.0421764
0.0409114
0.0399555
0.0360895
0.0321292
0.0487398
0.0487578
0.0483111
0.0478079
0.0471436
0.0464416
0.0456961
0.0449513
0.0441757
0.0434314
0.0425768
0.0418422
0.0406093
0.0397877
0.0363806
0.0332997
0.0484996
0.0485172
0.0481098
0.0476416
0.0470163
0.046348
0.045631
0.0449086
0.0441498
0.0434178
0.0425699
0.041837
0.0405954
0.0397581
0.0363038
0.0331564
0.048542
0.0485595
0.0481115
0.0476067
0.0469406
0.0462326
0.0454738
0.0447017
0.0438857
0.0430752
0.0421457
0.0412805
0.0399779
0.0389709
0.0360889
0.0341646
0.0487099
0.0487195
0.0481866
0.0476154
0.0468882
0.046125
0.0453157
0.0444862
0.0436038
0.0426987
0.0416588
0.0406049
0.0391411
0.0377569
0.0350187
0.032841
0.0490602
0.0490322
0.0483472
0.0476657
0.0468582
0.0460369
0.0451827
0.04431
0.0433844
0.0424231
0.0413343
0.0402014
0.0387385
0.0372844
0.0349363
0.0329252
0.0496552
0.0495027
0.0485812
0.0477312
0.0468229
0.0459387
0.0450468
0.0441381
0.0431767
0.0421674
0.0410347
0.0398326
0.0383584
0.036838
0.0347222
0.0327795
0.0507626
0.0501531
0.0488598
0.0477681
0.0467653
0.0458346
0.0449314
0.0440132
0.0430414
0.042014
0.0408698
0.0396451
0.0381959
0.0366749
0.034744
0.0328768
0.0526528
0.0509157
0.0491824
0.0477469
0.046677
0.0457165
0.0448151
0.0438985
0.042927
0.0418922
0.0407436
0.0395082
0.0380797
0.036568
0.0347573
0.0329496
0.0568532
0.0512677
0.0493408
0.0476804
0.0466208
0.0456787
0.044799
0.0439002
0.0429504
0.0419322
0.0408002
0.0395783
0.0381682
0.0366654
0.0348788
0.0330601
0.0483751
0.0483908
0.048015
0.0475815
0.0470007
0.0463805
0.0457144
0.0450466
0.0443437
0.0436728
0.0428753
0.0421862
0.0409097
0.0399319
0.0359839
0.0319183
0.0484129
0.0484288
0.0480118
0.0475405
0.0469172
0.0462546
0.045543
0.0448202
0.0440534
0.043296
0.0424088
0.0415848
0.040259
0.0391841
0.0359725
0.0335142
0.0485761
0.0485842
0.048082
0.0475435
0.0468572
0.0461362
0.0453701
0.0445841
0.0437429
0.0428799
0.0418694
0.0408412
0.0393463
0.0379076
0.0349207
0.032464
0.0489219
0.0488925
0.0482377
0.0475884
0.0468209
0.0460394
0.0452253
0.0443918
0.0435024
0.0425767
0.0415121
0.0404002
0.0389158
0.0374305
0.0349244
0.032767
0.0495129
0.0493593
0.0484677
0.047649
0.0467793
0.0459334
0.0450786
0.0442051
0.0432752
0.0422954
0.0411815
0.0399939
0.0385018
0.0369573
0.0347339
0.0327017
0.0506174
0.0500071
0.0487436
0.047683
0.046718
0.0458246
0.0449569
0.0440715
0.0431287
0.0421276
0.0410003
0.0397881
0.0383267
0.036788
0.0347835
0.0328534
0.0525064
0.0507695
0.049066
0.047661
0.0466277
0.0457024
0.044835
0.0439499
0.0430056
0.0419948
0.0408617
0.0396372
0.0382002
0.0366747
0.0348115
0.0329557
0.0567069
0.0511235
0.0492264
0.0475965
0.0465737
0.0456665
0.0448211
0.0439553
0.0430337
0.0420411
0.0409266
0.039718
0.0383029
0.0367893
0.0349553
0.0330885
0.0482879
0.0483023
0.0479497
0.0475434
0.047
0.0464225
0.0458047
0.0451927
0.0445537
0.0439618
0.0432546
0.0426841
0.0415177
0.0406692
0.0365688
0.0322306
0.0483216
0.0483362
0.0479418
0.0474965
0.0469087
0.0462859
0.0456184
0.0449452
0.0442329
0.0435409
0.0427234
0.0419887
0.0407289
0.0397345
0.036368
0.033688
0.0484805
0.0484875
0.0480074
0.0474941
0.0468409
0.0461569
0.0454304
0.0446873
0.0438908
0.0430784
0.0421162
0.0411453
0.0396752
0.0382656
0.0351252
0.032519
0.0488223
0.048792
0.0481588
0.0475342
0.0467986
0.0460514
0.0452737
0.0444779
0.0436264
0.0427415
0.0417129
0.0406408
0.0391673
0.0376939
0.035079
0.0328247
0.04941
0.0492554
0.0483851
0.0475902
0.0467515
0.0459378
0.0451161
0.0442758
0.043378
0.0424307
0.0413433
0.0401821
0.038692
0.0371477
0.0348449
0.0327441
0.050512
0.0499011
0.0486588
0.0476216
0.0466865
0.0458244
0.044988
0.0441329
0.0432187
0.0422456
0.0411399
0.0399472
0.0384855
0.0369426
0.0348806
0.0328971
0.0523999
0.0506631
0.0489808
0.0475988
0.0465943
0.0456982
0.0448604
0.0440042
0.043086
0.0420999
0.0409852
0.0397762
0.0383382
0.0368071
0.0349012
0.0330026
0.0566007
0.0510186
0.0491429
0.047536
0.0465422
0.0456638
0.0448485
0.0440126
0.043118
0.0421511
0.0410563
0.0398646
0.0384506
0.0369324
0.0350591
0.0331488
0.048227
0.0482402
0.0479041
0.0475183
0.0470037
0.0464589
0.0458776
0.0453053
0.044707
0.0441567
0.0434825
0.042931
0.0417344
0.040785
0.0363861
0.0316202
0.048257
0.0482705
0.0478923
0.0474664
0.046906
0.0463139
0.04568
0.0450427
0.0443663
0.0437107
0.0429203
0.0422032
0.0409167
0.0398533
0.0362647
0.033301
0.0484122
0.0484183
0.0479541
0.0474594
0.0468319
0.0461766
0.0454806
0.0447693
0.0440036
0.0432213
0.0422793
0.0413209
0.0398245
0.0383639
0.035057
0.0322742
0.0487508
0.0487196
0.0481018
0.0474958
0.0467847
0.0460643
0.0453148
0.0445478
0.0437234
0.0428644
0.0418529
0.0407917
0.0392989
0.0377918
0.0350643
0.0327005
0.0493357
0.0491804
0.0483253
0.0475482
0.0467332
0.0459449
0.0451492
0.0443347
0.0434607
0.0425357
0.0414624
0.0403102
0.0388058
0.0372379
0.0348575
0.0326847
0.0504358
0.0498243
0.0485972
0.0475775
0.0466652
0.0458279
0.0450164
0.0441853
0.0432932
0.0423403
0.0412478
0.0400637
0.0385923
0.0370323
0.034915
0.0328785
0.0523229
0.0505861
0.048919
0.0475541
0.0465718
0.0456987
0.0448847
0.0440515
0.0431541
0.042187
0.0410848
0.0398842
0.0384397
0.036896
0.0349494
0.0330096
0.0565238
0.0509427
0.0490824
0.0474929
0.0465213
0.0456657
0.0448746
0.0440631
0.0431902
0.0422434
0.0411628
0.0399814
0.0385635
0.0370349
0.0351241
0.0331725
0.0481865
0.0481989
0.0478753
0.0475055
0.0470138
0.0464963
0.0459465
0.0454104
0.0448522
0.044347
0.0437187
0.0432125
0.0420395
0.0410768
0.0365177
0.0314501
0.0482134
0.0482263
0.04786
0.0474492
0.0469105
0.0463437
0.0457385
0.0451335
0.0444918
0.0438743
0.0431201
0.0424383
0.0411622
0.0400854
0.0363622
0.0332034
0.0483656
0.0483711
0.0479186
0.0474382
0.0468308
0.0461989
0.0455289
0.0448459
0.0441094
0.043358
0.0424431
0.0415096
0.0400139
0.0385385
0.0351237
0.032212
0.0487015
0.0486697
0.0480633
0.0474713
0.0467794
0.0460805
0.0453548
0.0446128
0.0438136
0.0429804
0.0419899
0.0409475
0.0394526
0.0379332
0.0351289
0.0326809
0.0492842
0.0491284
0.0482843
0.0475206
0.046724
0.0459559
0.0451817
0.0443895
0.0435372
0.0426337
0.0415772
0.0404389
0.0389316
0.0373535
0.0349183
0.0326882
0.0503827
0.0497709
0.0485546
0.0475481
0.0466533
0.0458357
0.0450447
0.0442339
0.0433614
0.0424275
0.0413493
0.0401766
0.0387028
0.037134
0.0349763
0.0328962
0.052269
0.0505323
0.0488761
0.0475241
0.0465587
0.0457038
0.0449091
0.0440954
0.0432161
0.0422662
0.0411769
0.0399862
0.0385401
0.0369893
0.0350121
0.0330379
0.0564701
0.0508898
0.0490405
0.047464
0.0465096
0.045672
0.0449004
0.0441093
0.0432552
0.0423264
0.0412597
0.0400893
0.0386713
0.0371365
0.0351971
0.0332108
0.0481603
0.048172
0.0478569
0.0474984
0.0470227
0.0465239
0.0459955
0.0454824
0.0449475
0.0444645
0.0438524
0.0433514
0.0421568
0.0411339
0.0364214
0.0311272
0.0481848
0.0481971
0.047839
0.0474387
0.0469152
0.046366
0.0457804
0.0451963
0.0445753
0.0439774
0.0432364
0.0425594
0.0412632
0.0401406
0.0362978
0.0329926
0.0483348
0.0483397
0.0478952
0.0474248
0.0468316
0.0462161
0.0455639
0.0448996
0.0441811
0.0434466
0.0425422
0.0416128
0.0400997
0.0385903
0.0350853
0.0320745
0.0486686
0.0486363
0.0480376
0.0474556
0.0467771
0.0460935
0.0453842
0.0446592
0.043876
0.0430577
0.0420764
0.0410379
0.03953
0.0379866
0.0351188
0.0326051
0.0492495
0.0490934
0.0482569
0.0475025
0.0467191
0.0459653
0.0452062
0.0444295
0.0435915
0.0427011
0.0416527
0.0405185
0.0390019
0.0374071
0.0349272
0.0326518
0.0503468
0.0497348
0.048526
0.0475288
0.0466464
0.0458429
0.0450665
0.04427
0.0434109
0.0424892
0.0414189
0.0402506
0.0387704
0.0371893
0.0349986
0.0328841
0.0522327
0.0504959
0.0488473
0.0475043
0.046551
0.0457093
0.0449284
0.0441285
0.0432621
0.0423237
0.0412422
0.0400562
0.038606
0.0370461
0.035044
0.0330423
0.0564338
0.0508541
0.0490125
0.0474452
0.046503
0.0456783
0.0449209
0.0441445
0.0433038
0.0423874
0.0413295
0.040165
0.0387443
0.0372017
0.0352387
0.0332249
0.0481451
0.0481564
0.047847
0.0474959
0.0470311
0.0465455
0.0460323
0.0455364
0.0450201
0.0445564
0.0439619
0.0434739
0.0422783
0.0412312
0.0364329
0.0309874
0.048168
0.0481799
0.0478272
0.047434
0.0469207
0.0463836
0.045812
0.0452434
0.0446385
0.0440572
0.0433304
0.0426637
0.0413639
0.0402218
0.0363096
0.0329087
0.0483163
0.048321
0.0478817
0.047418
0.0468342
0.04623
0.0455904
0.0449398
0.0442352
0.0435146
0.0426214
0.0417
0.0401824
0.0386579
0.0350996
0.0320231
0.0486487
0.0486163
0.0480226
0.0474471
0.0467776
0.0461043
0.0454066
0.0446938
0.0439227
0.0431163
0.0421441
0.041112
0.0396001
0.0380454
0.0351394
0.0325818
0.0492286
0.0490722
0.0482406
0.0474924
0.0467176
0.0459735
0.0452249
0.0444591
0.0436318
0.0427517
0.0417109
0.0405821
0.0390624
0.0374596
0.0349523
0.0326464
0.0503251
0.0497128
0.0485089
0.0475177
0.0466436
0.0458495
0.0450831
0.0442966
0.0434473
0.0425348
0.0414714
0.0403079
0.0388255
0.0372382
0.0350269
0.0328889
0.0522105
0.0504738
0.04883
0.0474929
0.0465474
0.0457145
0.0449431
0.0441529
0.0432956
0.0423659
0.0412907
0.0401092
0.0386577
0.037093
0.035075
0.0330546
0.0564117
0.0508324
0.0489957
0.0474344
0.0465001
0.0456841
0.0449364
0.0441701
0.0433389
0.0424316
0.0413806
0.0402211
0.0387998
0.0372529
0.0352749