/*--------------------------------*- C++ -*----------------------------------*\
| =========                 |                                                 |
| \\      /  F ield         | OpenFOAM: The Open Source CFD Toolbox           |
|  \\    /   O peration     | Version:  v1912                                 |
|   \\  /    A nd           | Website:  www.openfoam.com                      |
|    \\/     M anipulation  |                                                 |
\*---------------------------------------------------------------------------*/
FoamFile
{
    version     2.0;
    format      ascii;
    class       volScalarField;
    location    "0.52/fluid";
    object      T;
}
// * * * * * * * * * * * * * * * * * * * * * * * * * * * * * * * * * * * * * //

dimensions      [0 0 0 1 0 0 0];


internalField   nonuniform List<scalar> 
14592
(
273.227
273.691
274.181
274.706
275.274
275.896
276.584
277.348
278.202
279.159
280.235
281.449
282.826
284.401
286.24
288.51
273.225
273.686
274.173
274.693
275.258
275.876
276.559
277.318
278.166
279.117
280.187
281.396
282.768
284.341
286.176
288.414
273.223
273.679
274.159
274.673
275.231
275.842
276.516
277.266
278.103
279.043
280.101
281.298
282.661
284.23
286.068
288.322
273.22
273.669
274.142
274.648
275.196
275.797
276.459
277.195
278.017
278.939
279.978
281.157
282.505
284.064
285.911
288.201
273.216
273.657
274.121
274.617
275.155
275.742
276.389
277.107
277.909
278.807
279.82
280.971
282.292
283.833
285.682
288.022
273.211
273.643
274.097
274.582
275.107
275.679
276.308
277.005
277.781
278.649
279.628
280.738
282.017
283.519
285.35
287.735
273.206
273.628
274.071
274.544
275.054
275.609
276.218
276.89
277.636
278.468
279.402
280.459
281.673
283.102
284.862
287.236
273.201
273.612
274.044
274.503
274.997
275.534
276.121
276.766
277.479
278.27
279.151
280.141
281.265
282.573
284.163
286.31
273.233
273.71
274.213
274.753
275.34
275.984
276.699
277.496
278.391
279.399
280.54
281.834
283.311
285.012
287.003
289.407
273.231
273.704
274.204
274.74
275.323
275.963
276.673
277.465
278.354
279.356
280.49
281.779
283.252
284.952
286.941
289.331
273.229
273.696
274.19
274.72
275.295
275.928
276.628
277.41
278.288
279.278
280.4
281.678
283.143
284.84
286.837
289.25
273.225
273.686
274.172
274.693
275.259
275.881
276.569
277.337
278.198
279.17
280.272
281.531
282.981
284.672
286.683
289.143
273.221
273.674
274.151
274.662
275.216
275.824
276.496
277.245
278.085
279.032
280.107
281.337
282.76
284.435
286.457
288.979
273.217
273.66
274.126
274.625
275.166
275.758
276.411
277.138
277.951
278.866
279.904
281.092
282.471
284.108
286.119
288.707
273.212
273.644
274.099
274.585
275.111
275.684
276.316
277.017
277.798
278.675
279.665
280.796
282.107
283.667
285.609
288.209
273.206
273.628
274.071
274.543
275.052
275.607
276.215
276.887
277.633
278.465
279.398
280.455
281.669
283.098
284.858
287.233
273.238
273.727
274.243
274.797
275.401
276.065
276.804
277.631
278.562
279.614
280.807
282.163
283.71
285.48
287.516
289.869
273.237
273.721
274.234
274.784
275.383
276.044
276.777
277.599
278.524
279.57
280.756
282.107
283.65
285.419
287.457
289.803
273.234
273.713
274.219
274.763
275.355
276.007
276.732
277.543
278.456
279.489
280.663
282.003
283.538
285.307
287.356
289.729
273.231
273.702
274.201
274.736
275.318
275.958
276.67
277.466
278.363
279.377
280.531
281.851
283.372
285.138
287.203
289.627
273.226
273.69
274.179
274.703
275.273
275.899
276.594
277.371
278.245
279.234
280.359
281.65
283.145
284.896
286.977
289.469
273.222
273.675
274.153
274.665
275.221
275.831
276.506
277.259
278.105
279.061
280.148
281.395
282.845
284.56
286.635
289.201
273.216
273.659
274.125
274.624
275.164
275.755
276.408
277.134
277.946
278.861
279.899
281.086
282.465
284.103
286.114
288.705
273.211
273.642
274.096
274.58
275.103
275.674
276.302
276.998
277.773
278.641
279.618
280.729
282.007
283.51
285.341
287.729
273.243
273.742
274.269
274.837
275.455
276.137
276.897
277.749
278.71
279.798
281.031
282.43
284.019
285.82
287.851
290.121
273.242
273.736
274.26
274.823
275.437
276.115
276.87
277.716
278.671
279.752
280.978
282.373
283.959
285.76
287.794
290.059
273.239
273.728
274.245
274.801
275.408
276.077
276.823
277.658
278.601
279.669
280.883
282.267
283.845
285.647
287.694
289.988
273.235
273.717
274.226
274.773
275.37
276.027
276.759
277.58
278.505
279.554
280.748
282.112
283.677
285.476
287.542
289.888
273.231
273.704
274.203
274.74
275.323
275.966
276.681
277.482
278.384
279.406
280.571
281.905
283.444
285.231
287.315
289.731
273.226
273.689
274.177
274.701
275.27
275.896
276.59
277.366
278.239
279.227
280.352
281.643
283.137
284.889
286.97
289.465
273.221
273.672
274.148
274.658
275.211
275.817
276.488
277.236
278.075
279.021
280.095
281.324
282.747
284.423
286.446
288.972
273.215
273.655
274.118
274.613
275.148
275.734
276.379
277.096
277.896
278.793
279.805
280.955
282.275
283.817
285.668
288.012
273.247
273.755
274.292
274.87
275.5
276.197
276.974
277.847
278.832
279.946
281.208
282.637
284.249
286.059
288.07
290.267
273.246
273.749
274.282
274.856
275.482
276.174
276.946
277.813
278.791
279.899
281.155
282.578
284.188
285.999
288.013
290.207
273.243
273.74
274.267
274.834
275.452
276.136
276.898
277.754
278.72
279.815
281.058
282.47
284.074
285.886
287.914
290.137
273.239
273.729
274.248
274.805
275.413
276.085
276.833
277.673
278.622
279.697
280.919
282.313
283.903
285.714
287.762
290.038
273.235
273.716
274.224
274.771
275.366
276.022
276.753
277.573
278.497
279.545
280.739
282.102
283.667
285.466
287.534
289.882
273.23
273.701
274.198
274.731
275.311
275.95
276.66
277.454
278.349
279.362
280.515
281.835
283.355
285.121
287.189
289.617
273.224
273.684
274.168
274.687
275.251
275.87
276.556
277.321
278.181
279.151
280.251
281.509
282.958
284.65
286.663
289.129
273.219
273.666
274.137
274.641
275.186
275.784
276.444
277.177
277.996
278.916
279.954
281.131
282.478
284.038
285.887
288.184
273.251
273.765
274.309
274.895
275.536
276.244
277.034
277.922
278.924
280.057
281.339
282.786
284.411
286.22
288.209
290.355
273.249
273.759
274.299
274.881
275.517
276.221
277.005
277.887
278.883
280.009
281.285
282.727
284.349
286.16
288.153
290.296
273.246
273.75
274.284
274.859
275.487
276.181
276.956
277.827
278.811
279.924
281.187
282.618
284.234
286.047
288.054
290.226
273.242
273.739
274.264
274.83
275.447
276.129
276.89
277.745
278.71
279.804
281.046
282.458
284.061
285.873
287.902
290.127
273.238
273.725
274.241
274.795
275.399
276.066
276.809
277.643
278.584
279.65
280.863
282.245
283.823
285.625
287.673
289.972
273.233
273.71
274.213
274.754
275.343
275.992
276.714
277.522
278.433
279.464
280.636
281.974
283.508
285.278
287.328
289.708
273.227
273.692
274.183
274.71
275.282
275.91
276.608
277.386
278.261
279.248
280.368
281.644
283.108
284.805
286.804
289.224
273.221
273.674
274.151
274.662
275.216
275.823
276.493
277.239
278.073
279.01
280.065
281.261
282.623
284.191
286.031
288.291
273.253
273.772
274.321
274.913
275.56
276.276
277.074
277.972
278.986
280.131
281.425
282.882
284.513
286.319
288.292
290.405
273.251
273.766
274.311
274.899
275.541
276.252
277.046
277.938
278.944
280.083
281.371
282.823
284.451
286.259
288.236
290.346
273.248
273.757
274.296
274.876
275.511
276.212
276.996
277.877
278.871
279.997
281.272
282.713
284.335
286.146
288.137
290.277
273.245
273.746
274.276
274.847
275.47
276.16
276.929
277.794
278.77
279.876
281.13
282.553
284.162
285.972
287.985
290.178
273.24
273.732
274.252
274.811
275.421
276.096
276.847
277.69
278.642
279.72
280.945
282.338
283.922
285.722
287.756
290.023
273.235
273.716
274.224
274.77
275.365
276.021
276.751
277.568
278.489
279.532
280.716
282.064
283.606
285.374
287.411
289.76
273.229
273.698
274.194
274.725
275.303
275.938
276.643
277.431
278.315
279.314
280.445
281.731
283.203
284.901
286.888
289.28
273.223
273.68
274.162
274.677
275.236
275.849
276.527
277.282
278.125
279.072
280.139
281.345
282.716
284.286
286.118
288.354
273.254
273.775
274.327
274.922
275.572
276.292
277.095
277.998
279.017
280.168
281.467
282.929
284.562
286.367
288.33
290.428
273.252
273.769
274.317
274.908
275.553
276.268
277.066
277.963
278.975
280.12
281.413
282.87
284.501
286.307
288.275
290.37
273.249
273.76
274.302
274.885
275.523
276.228
277.016
277.902
278.902
280.033
281.314
282.76
284.384
286.193
288.176
290.3
273.246
273.749
274.282
274.855
275.482
276.175
276.949
277.818
278.8
279.911
281.171
282.599
284.21
286.019
288.024
290.202
273.241
273.735
274.257
274.819
275.433
276.111
276.866
277.714
278.671
279.755
280.985
282.383
283.97
285.769
287.795
290.046
273.236
273.719
274.23
274.778
275.376
276.035
276.769
277.591
278.518
279.566
280.755
282.109
283.653
285.42
287.45
289.784
273.23
273.702
274.199
274.733
275.313
275.952
276.661
277.453
278.343
279.347
280.483
281.775
283.249
284.946
286.928
289.305
273.224
273.683
274.167
274.685
275.247
275.863
276.544
277.303
278.151
279.104
280.176
281.387
282.761
284.332
286.159
288.383
273.193
273.589
274.002
274.437
274.898
275.388
275.911
276.466
277.053
277.669
278.305
278.95
279.588
280.196
280.748
281.213
273.192
273.585
273.996
274.428
274.887
275.374
275.894
276.446
277.03
277.641
278.274
278.915
279.549
280.154
280.703
281.166
273.19
273.579
273.986
274.414
274.867
275.35
275.864
276.41
276.987
277.592
278.216
278.85
279.477
280.075
280.617
281.076
273.188
273.572
273.973
274.395
274.842
275.317
275.823
276.36
276.928
277.522
278.136
278.758
279.373
279.961
280.494
280.945
273.185
273.563
273.957
274.371
274.81
275.277
275.773
276.299
276.854
277.435
278.034
278.642
279.242
279.815
280.335
280.776
273.181
273.552
273.938
274.345
274.774
275.23
275.715
276.228
276.768
277.333
277.915
278.505
279.086
279.641
280.145
280.572
273.178
273.54
273.918
274.316
274.735
275.179
275.651
276.149
276.674
277.22
277.783
278.351
278.91
279.443
279.927
280.337
273.174
273.528
273.897
274.285
274.693
275.126
275.583
276.066
276.573
277.099
277.64
278.185
278.72
279.229
279.69
280.081
273.194
273.591
274.007
274.444
274.909
275.404
275.932
276.495
277.091
277.719
278.37
279.034
279.694
280.328
280.906
281.396
273.193
273.587
274
274.435
274.897
275.389
275.914
276.473
277.066
277.69
278.337
278.997
279.653
280.283
280.859
281.347
273.191
273.581
273.989
274.42
274.877
275.363
275.883
276.436
277.022
277.638
278.278
278.93
279.578
280.201
280.771
281.255
273.189
273.574
273.976
274.4
274.85
275.33
275.841
276.385
276.961
277.567
278.195
278.835
279.472
280.084
280.644
281.12
273.186
273.564
273.96
274.377
274.819
275.289
275.79
276.323
276.886
277.478
278.092
278.716
279.337
279.934
280.48
280.946
273.182
273.554
273.942
274.35
274.782
275.242
275.731
276.25
276.799
277.375
277.97
278.576
279.177
279.755
280.283
280.733
273.178
273.542
273.921
274.321
274.743
275.19
275.666
276.171
276.703
277.259
277.834
278.417
278.995
279.55
280.057
280.489
273.174
273.53
273.9
274.289
274.701
275.136
275.598
276.086
276.6
277.136
277.688
278.246
278.799
279.327
279.808
280.219
273.196
273.598
274.018
274.461
274.933
275.437
275.976
276.554
277.169
277.821
278.502
279.203
279.909
280.594
281.227
281.77
273.195
273.594
274.011
274.451
274.92
275.421
275.957
276.531
277.143
277.79
278.467
279.164
279.865
280.547
281.178
281.719
273.193
273.587
274
274.435
274.899
275.394
275.925
276.492
277.096
277.736
278.405
279.094
279.787
280.461
281.086
281.622
273.191
273.579
273.986
274.415
274.872
275.36
275.881
276.439
277.034
277.662
278.319
278.995
279.675
280.338
280.953
281.482
273.188
273.57
273.97
274.391
274.839
275.318
275.829
276.375
276.956
277.57
278.211
278.87
279.534
280.18
280.78
281.297
273.184
273.559
273.951
274.364
274.802
275.27
275.768
276.301
276.866
277.462
278.084
278.722
279.364
279.989
280.569
281.069
273.18
273.547
273.93
274.334
274.762
275.217
275.702
276.218
276.765
277.341
277.941
278.555
279.171
279.769
280.324
280.802
273.176
273.535
273.909
274.302
274.719
275.161
275.631
276.131
276.659
277.213
277.787
278.374
278.96
279.528
280.053
280.504
273.2
273.608
274.035
274.487
274.97
275.487
276.043
276.642
277.285
277.972
278.697
279.455
280.228
280.994
281.716
282.346
273.198
273.603
274.028
274.477
274.956
275.47
276.023
276.618
277.257
277.939
278.661
279.413
280.182
280.945
281.664
282.293
273.196
273.597
274.017
274.461
274.934
275.443
275.989
276.577
277.208
277.882
278.595
279.338
280.099
280.854
281.567
282.191
273.194
273.589
274.002
274.44
274.906
275.407
275.944
276.522
277.143
277.804
278.504
279.234
279.981
280.723
281.426
282.042
273.191
273.579
273.986
274.415
274.873
275.363
275.89
276.455
277.061
277.707
278.389
279.101
279.829
280.553
281.24
281.843
273.187
273.568
273.966
274.387
274.834
275.313
275.827
276.377
276.966
277.593
278.254
278.943
279.647
280.345
281.009
281.592
273.183
273.556
273.945
274.356
274.792
275.258
275.757
276.291
276.861
277.466
278.102
278.763
279.436
280.104
280.736
281.292
273.179
273.543
273.923
274.323
274.748
275.201
275.684
276.2
276.749
277.329
277.937
278.566
279.205
279.834
280.428
280.949
273.204
273.621
274.058
274.522
275.018
275.552
276.13
276.756
277.434
278.165
278.949
279.779
280.645
281.523
282.374
283.138
273.203
273.616
274.051
274.511
275.004
275.535
276.109
276.731
277.405
278.131
278.91
279.735
280.596
281.471
282.32
283.083
273.201
273.61
274.039
274.494
274.981
275.506
276.073
276.688
277.353
278.071
278.84
279.656
280.508
281.374
282.218
282.977
273.198
273.601
274.024
274.473
274.952
275.468
276.026
276.63
277.284
277.988
278.743
279.544
280.382
281.235
282.067
282.819
273.194
273.591
274.007
274.447
274.917
275.423
275.969
276.56
277.198
277.885
278.621
279.402
280.218
281.051
281.866
282.604
273.191
273.58
273.987
274.417
274.877
275.371
275.903
276.478
277.097
277.764
278.476
279.23
280.018
280.822
281.61
282.326
273.186
273.567
273.965
274.385
274.833
275.314
275.83
276.387
276.985
277.627
278.311
279.033
279.785
280.551
281.299
281.98
273.182
273.553
273.942
274.351
274.787
275.253
275.753
276.29
276.865
277.48
278.132
278.817
279.526
280.243
280.94
281.571
273.209
273.637
274.086
274.563
275.075
275.629
276.232
276.89
277.609
278.393
279.244
280.163
281.143
282.166
283.197
284.162
273.208
273.632
274.078
274.552
275.061
275.611
276.21
276.864
277.578
278.357
279.203
280.117
281.092
282.112
283.141
284.105
273.205
273.625
274.066
274.534
275.037
275.581
276.173
276.819
277.524
278.293
279.129
280.032
280.998
282.01
283.034
283.996
273.203
273.616
274.05
274.512
275.007
275.542
276.124
276.758
277.45
278.205
279.026
279.913
280.863
281.862
282.876
283.833
273.199
273.606
274.032
274.485
274.97
275.494
276.063
276.683
277.359
278.095
278.895
279.76
280.686
281.663
282.659
283.605
273.195
273.594
274.011
274.454
274.928
275.44
275.994
276.597
277.252
277.965
278.738
279.573
280.467
281.411
282.376
283.298
273.191
273.58
273.988
274.42
274.882
275.379
275.917
276.5
277.133
277.818
278.559
279.356
280.208
281.103
282.019
282.896
273.186
273.566
273.964
274.385
274.834
275.316
275.835
276.397
277.004
277.659
278.363
279.116
279.915
280.748
281.592
282.395
273.215
273.654
274.116
274.608
275.139
275.715
276.346
277.039
277.802
278.643
279.569
280.587
281.698
282.898
284.165
285.431
273.213
273.649
274.108
274.597
275.124
275.696
276.323
277.011
277.769
278.605
279.526
280.538
281.644
282.841
284.106
285.37
273.211
273.642
274.095
274.579
275.099
275.665
276.284
276.963
277.712
278.538
279.448
280.449
281.545
282.735
283.997
285.262
273.208
273.633
274.08
274.555
275.067
275.624
276.232
276.899
277.634
278.444
279.338
280.322
281.402
282.579
283.834
285.101
273.204
273.622
274.06
274.527
275.029
275.574
276.168
276.82
277.537
278.327
279.197
280.157
281.212
282.366
283.606
284.87
273.2
273.609
274.039
274.495
274.985
275.516
276.095
276.728
277.423
278.187
279.028
279.954
280.973
282.09
283.297
284.543
273.196
273.596
274.015
274.46
274.937
275.453
276.013
276.626
277.295
278.029
278.834
279.716
280.684
281.743
282.89
284.082
273.191
273.581
273.99
274.423
274.886
275.385
275.927
276.516
277.157
277.857
278.619
279.45
280.353
281.331
282.378
283.455
273.221
273.672
274.148
274.657
275.206
275.806
276.465
277.194
278.003
278.903
279.906
281.025
282.274
283.668
285.221
286.929
273.219
273.668
274.14
274.645
275.19
275.786
276.441
277.165
277.968
278.863
279.86
280.974
282.218
283.609
285.16
286.858
273.217
273.66
274.127
274.626
275.165
275.753
276.4
277.115
277.908
278.792
279.778
280.88
282.115
283.5
285.05
286.754
273.214
273.651
274.11
274.601
275.132
275.71
276.345
277.047
277.826
278.693
279.661
280.745
281.964
283.338
284.888
286.608
273.21
273.639
274.091
274.572
275.091
275.657
276.278
276.964
277.723
278.568
279.512
280.569
281.762
283.114
284.656
286.393
273.206
273.626
274.068
274.538
275.046
275.597
276.201
276.866
277.602
278.42
279.33
280.351
281.503
282.816
284.33
286.068
273.201
273.612
274.043
274.502
274.995
275.53
276.115
276.758
277.466
278.25
279.12
280.092
281.186
282.432
283.876
285.564
273.196
273.596
274.017
274.463
274.941
275.459
276.024
276.641
277.318
278.064
278.887
279.798
280.814
281.959
283.267
284.782
273.196
273.596
274.016
274.462
274.94
275.458
276.022
276.639
277.316
278.061
278.884
279.795
280.811
281.956
283.264
284.779
273.191
273.58
273.988
274.421
274.884
275.383
275.924
276.512
277.153
277.852
278.614
279.444
280.347
281.325
282.373
283.45
273.186
273.566
273.963
274.383
274.831
275.312
275.831
276.392
276.998
277.653
278.356
279.109
279.907
280.741
281.585
282.388
273.182
273.552
273.94
274.349
274.783
275.249
275.748
276.284
276.859
277.473
278.124
278.809
279.518
280.235
280.932
281.564
273.178
273.541
273.921
274.32
274.744
275.196
275.678
276.193
276.741
277.321
277.928
278.557
279.195
279.825
280.419
280.941
273.176
273.533
273.906
274.299
274.715
275.156
275.625
276.124
276.651
277.204
277.778
278.364
278.95
279.518
280.043
280.496
273.174
273.528
273.898
274.286
274.696
275.131
275.591
276.079
276.591
277.126
277.678
278.236
278.788
279.316
279.799
280.21
273.173
273.527
273.895
274.281
274.689
275.12
275.576
276.058
276.564
277.09
277.63
278.174
278.71
279.218
279.68
280.072
273.201
273.611
274.041
274.5
274.992
275.527
276.111
276.753
277.46
278.243
279.113
280.085
281.178
282.425
283.869
285.558
273.195
273.594
274.013
274.457
274.933
275.448
276.008
276.619
277.288
278.021
278.825
279.707
280.674
281.734
282.881
284.073
273.19
273.579
273.986
274.417
274.878
275.374
275.91
276.492
277.124
277.808
278.549
279.345
280.196
281.092
282.008
282.886
273.186
273.565
273.962
274.381
274.828
275.307
275.823
276.378
276.976
277.616
278.299
279.021
279.773
280.538
281.287
281.969
273.182
273.554
273.942
274.352
274.787
275.252
275.749
276.282
276.851
277.454
278.089
278.75
279.423
280.09
280.723
281.281
273.18
273.545
273.927
274.33
274.756
275.21
275.694
276.209
276.755
277.329
277.928
278.542
279.157
279.756
280.311
280.79
273.178
273.54
273.918
274.316
274.737
275.183
275.658
276.161
276.691
277.247
277.82
278.403
278.981
279.536
280.043
280.477
273.177
273.538
273.915
274.311
274.729
275.172
275.642
276.139
276.662
277.207
277.769
278.336
278.896
279.429
279.914
280.325
273.205
273.625
274.065
274.535
275.041
275.591
276.194
276.858
277.592
278.408
279.319
280.339
281.49
282.804
284.318
286.059
273.2
273.608
274.036
274.491
274.98
275.509
276.086
276.718
277.412
278.175
279.014
279.939
280.958
282.075
283.283
284.53
273.195
273.592
274.008
274.449
274.922
275.432
275.984
276.585
277.239
277.951
278.723
279.557
280.451
281.394
282.36
283.284
273.19
273.577
273.983
274.412
274.87
275.362
275.893
276.466
277.084
277.748
278.459
279.213
280.001
280.805
281.593
282.31
273.186
273.566
273.962
274.381
274.827
275.304
275.816
276.365
276.952
277.577
278.237
278.925
279.628
280.327
280.991
281.577
273.183
273.557
273.947
274.358
274.795
275.26
275.757
276.288
276.851
277.446
278.066
278.704
279.346
279.971
280.551
281.053
273.181
273.551
273.938
274.344
274.775
275.233
275.72
276.237
276.784
277.358
277.952
278.557
279.158
279.736
280.266
280.718
273.181
273.55
273.934
274.339
274.767
275.221
275.703
276.214
276.753
277.317
277.898
278.486
279.068
279.623
280.128
280.556
273.209
273.637
274.087
274.566
275.084
275.648
276.267
276.95
277.708
278.551
279.493
280.55
281.742
283.095
284.638
286.377
273.204
273.619
274.056
274.521
275.021
275.563
276.155
276.805
277.52
278.308
279.177
280.135
281.19
282.344
283.585
284.852
273.198
273.603
274.028
274.478
274.961
275.483
276.05
276.667
277.341
278.075
278.873
279.737
280.663
281.64
282.637
283.585
273.193
273.588
274.002
274.44
274.908
275.411
275.955
276.543
277.179
277.864
278.599
279.378
280.194
281.027
281.843
282.583
273.19
273.576
273.981
274.408
274.863
275.351
275.875
276.438
277.042
277.686
278.367
279.078
279.805
280.529
281.217
281.822
273.187
273.567
273.965
274.384
274.83
275.306
275.814
276.358
276.937
277.548
278.188
278.846
279.51
280.156
280.757
281.276
273.185
273.561
273.955
274.37
274.809
275.277
275.775
276.305
276.867
277.457
278.069
278.693
279.313
279.911
280.458
280.926
273.184
273.559
273.952
274.364
274.801
275.264
275.758
276.282
276.835
277.414
278.012
278.618
279.218
279.791
280.313
280.756
273.213
273.647
274.105
274.593
275.12
275.696
276.328
277.027
277.803
278.668
279.634
280.717
281.935
283.309
284.86
286.584
273.207
273.629
274.074
274.546
275.056
275.609
276.213
276.878
277.61
278.418
279.309
280.292
281.371
282.548
283.804
285.074
273.201
273.613
274.044
274.502
274.994
275.526
276.105
276.736
277.426
278.178
278.996
279.882
280.831
281.83
282.845
283.805
273.197
273.598
274.018
274.463
274.94
275.453
276.007
276.608
277.259
277.96
278.713
279.513
280.35
281.203
282.037
282.791
273.192
273.585
273.996
274.43
274.894
275.391
275.925
276.5
277.117
277.776
278.474
279.203
279.949
280.692
281.396
282.015
273.189
273.576
273.98
274.406
274.859
275.344
275.862
276.417
277.008
277.634
278.289
278.964
279.644
280.307
280.924
281.455
273.187
273.57
273.97
274.391
274.838
275.314
275.822
276.363
276.937
277.54
278.166
278.805
279.442
280.054
280.616
281.095
273.187
273.568
273.966
274.385
274.829
275.301
275.804
276.338
276.903
277.495
278.107
278.728
279.343
279.931
280.466
280.921
273.215
273.656
274.119
274.614
275.149
275.733
276.375
277.087
277.876
278.757
279.74
280.84
282.074
283.458
285.01
286.716
273.209
273.637
274.087
274.566
275.083
275.644
276.259
276.934
277.679
278.501
279.409
280.408
281.503
282.693
283.956
285.222
273.204
273.62
274.057
274.521
275.02
275.56
276.148
276.789
277.491
278.256
279.09
279.991
280.956
281.968
282.993
283.957
273.199
273.605
274.03
274.481
274.964
275.485
276.048
276.659
277.32
278.034
278.801
279.615
280.466
281.333
282.178
282.94
273.195
273.592
274.008
274.448
274.918
275.422
275.964
276.548
277.176
277.846
278.556
279.298
280.058
280.813
281.529
282.156
273.192
273.582
273.991
274.423
274.882
275.374
275.9
276.463
277.064
277.701
278.367
279.055
279.747
280.422
281.049
281.589
273.19
273.577
273.981
274.408
274.86
275.343
275.858
276.408
276.991
277.604
278.241
278.892
279.54
280.164
280.736
281.223
273.189
273.575
273.977
274.402
274.851
275.33
275.84
276.382
276.956
277.558
278.181
278.813
279.439
280.038
280.583
281.046
273.217
273.661
274.129
274.628
275.168
275.758
276.408
277.127
277.926
278.816
279.81
280.921
282.163
283.553
285.102
286.796
273.211
273.643
274.096
274.58
275.101
275.668
276.289
276.972
277.726
278.558
279.475
280.485
281.589
282.786
284.051
285.314
273.205
273.625
274.066
274.534
275.038
275.583
276.177
276.826
277.535
278.31
279.153
280.064
281.038
282.058
283.088
284.054
273.2
273.61
274.039
274.494
274.981
275.507
276.076
276.693
277.362
278.084
278.86
279.683
280.543
281.418
282.27
283.036
273.196
273.597
274.016
274.46
274.934
275.443
275.991
276.581
277.215
277.894
278.612
279.363
280.131
280.894
281.616
282.249
273.193
273.587
273.999
274.435
274.898
275.394
275.925
276.495
277.102
277.746
278.42
279.116
279.816
280.499
281.133
281.678
273.191
273.581
273.989
274.419
274.876
275.363
275.883
276.438
277.028
277.648
278.292
278.951
279.607
280.238
280.816
281.309
273.19
273.579
273.985
274.413
274.867
275.35
275.865
276.413
276.993
277.601
278.231
278.871
279.505
280.11
280.662
281.13
273.218
273.664
274.134
274.635
275.178
275.771
276.424
277.147
277.951
278.846
279.845
280.961
282.207
283.599
285.146
286.834
273.212
273.645
274.101
274.587
275.111
275.681
276.305
276.992
277.75
278.586
279.508
280.523
281.632
282.831
284.096
285.358
273.206
273.628
274.07
274.541
275.047
275.595
276.192
276.844
277.557
278.336
279.184
280.1
281.078
282.102
283.134
284.1
273.201
273.612
274.043
274.5
274.99
275.518
276.09
276.71
277.383
278.11
278.889
279.717
280.582
281.461
282.315
283.083
273.197
273.599
274.02
274.466
274.942
275.453
276.004
276.597
277.235
277.917
278.64
279.395
280.168
280.935
281.66
282.295
273.194
273.589
274.003
274.441
274.906
275.404
275.938
276.511
277.122
277.769
278.447
279.146
279.851
280.537
281.174
281.723
273.192
273.583
273.993
274.425
274.884
275.373
275.896
276.454
277.046
277.67
278.318
278.98
279.64
280.275
280.856
281.352
273.191
273.581
273.989
274.419
274.875
275.36
275.877
276.428
277.011
277.623
278.256
278.9
279.537
280.147
280.702
281.172
273.17
273.516
273.876
274.254
274.651
275.071
275.514
275.981
276.469
276.976
277.494
278.014
278.523
279.006
279.443
279.812
273.166
273.504
273.855
274.223
274.61
275.018
275.447
275.898
276.368
276.854
277.349
277.844
278.327
278.784
279.195
279.543
273.162
273.492
273.836
274.195
274.571
274.967
275.384
275.819
276.272
276.738
277.212
277.683
278.141
278.572
278.959
279.286
273.159
273.482
273.818
274.169
274.537
274.923
275.327
275.749
276.186
276.635
277.088
277.538
277.973
278.381
278.746
279.053
273.156
273.474
273.804
274.148
274.508
274.886
275.28
275.69
276.114
276.547
276.984
277.415
277.83
278.218
278.564
278.855
273.154
273.468
273.793
274.132
274.487
274.857
275.244
275.645
276.058
276.48
276.903
277.319
277.719
278.091
278.422
278.7
273.153
273.464
273.786
274.123
274.473
274.839
275.22
275.615
276.021
276.434
276.848
277.255
277.644
278.005
278.326
278.595
273.152
273.462
273.784
274.118
274.467
274.831
275.209
275.601
276.004
276.413
276.822
277.223
277.607
277.962
278.278
278.542
273.17
273.517
273.879
274.258
274.658
275.081
275.528
276
276.495
277.009
277.537
278.07
278.594
279.094
279.548
279.935
273.166
273.505
273.858
274.227
274.616
275.027
275.46
275.915
276.391
276.884
277.388
277.894
278.391
278.861
279.288
279.65
273.163
273.494
273.838
274.198
274.577
274.976
275.395
275.835
276.293
276.766
277.247
277.728
278.197
278.64
279.04
279.378
273.159
273.483
273.821
274.173
274.542
274.931
275.338
275.764
276.206
276.66
277.12
277.578
278.022
278.44
278.815
279.132
273.157
273.475
273.806
274.152
274.514
274.893
275.29
275.704
276.132
276.57
277.013
277.451
277.874
278.27
278.624
278.923
273.154
273.469
273.795
274.136
274.492
274.864
275.254
275.658
276.075
276.501
276.93
277.352
277.759
278.138
278.476
278.76
273.153
273.465
273.789
274.126
274.478
274.847
275.23
275.628
276.038
276.456
276.874
277.286
277.681
278.049
278.375
278.649
273.153
273.464
273.786
274.122
274.473
274.839
275.22
275.615
276.021
276.434
276.848
277.254
277.644
278.005
278.326
278.595
273.172
273.522
273.887
274.27
274.675
275.104
275.559
276.041
276.549
277.08
277.629
278.186
278.741
279.275
279.766
280.188
273.168
273.509
273.865
274.239
274.632
275.049
275.489
275.954
276.442
276.949
277.471
277.999
278.521
279.021
279.478
279.869
273.164
273.498
273.845
274.209
274.592
274.996
275.423
275.871
276.34
276.825
277.322
277.822
278.313
278.78
279.204
279.565
273.161
273.487
273.827
274.183
274.557
274.95
275.364
275.797
276.249
276.714
277.188
277.662
278.124
278.561
278.957
279.291
273.158
273.479
273.813
274.161
274.527
274.911
275.314
275.735
276.172
276.62
277.075
277.526
277.965
278.377
278.747
279.06
273.156
273.473
273.802
274.145
274.505
274.882
275.277
275.688
276.113
276.548
276.987
277.422
277.841
278.234
278.585
278.881
273.154
273.469
273.795
274.136
274.492
274.864
275.253
275.658
276.075
276.501
276.929
277.352
277.758
278.137
278.476
278.76
273.154
273.468
273.793
274.132
274.487
274.857
275.243
275.644
276.058
276.479
276.902
277.318
277.718
278.09
278.422
278.7
273.174
273.53
273.9
274.29
274.703
275.142
275.609
276.106
276.633
277.188
277.767
278.362
278.962
279.549
280.1
280.58
273.17
273.517
273.878
274.257
274.658
275.084
275.535
276.014
276.519
277.048
277.597
278.157
278.718
279.262
279.768
280.205
273.166
273.505
273.857
274.227
274.617
275.03
275.466
275.927
276.411
276.916
277.436
277.963
278.486
278.989
279.452
279.849
273.163
273.494
273.839
274.2
274.58
274.981
275.404
275.849
276.315
276.797
277.291
277.788
278.277
278.743
279.169
279.531
273.16
273.485
273.824
274.178
274.55
274.941
275.353
275.784
276.233
276.697
277.168
277.64
278.101
278.536
278.93
279.265
273.158
273.479
273.812
274.161
274.527
274.911
275.314
275.735
276.171
276.62
277.074
277.526
277.964
278.376
278.747
279.06
273.156
273.475
273.806
274.151
274.513
274.892
275.289
275.703
276.131
276.569
277.012
277.45
277.873
278.269
278.623
278.922
273.156
273.474
273.804
274.148
274.508
274.885
275.279
275.689
276.113
276.546
276.982
277.413
277.829
278.217
278.563
278.854
273.178
273.54
273.918
274.317
274.74
275.191
275.674
276.191
276.742
277.328
277.946
278.59
279.252
279.914
280.55
281.119
273.173
273.527
273.895
274.283
274.694
275.131
275.596
276.093
276.62
277.177
277.76
278.363
278.975
279.581
280.154
280.66
273.169
273.514
273.874
274.251
274.65
275.074
275.523
276
276.505
277.034
277.583
278.146
278.712
279.264
279.779
280.228
273.166
273.503
273.854
274.223
274.612
275.023
275.458
275.918
276.401
276.905
277.424
277.951
278.475
278.98
279.445
279.846
273.163
273.494
273.839
274.2
274.58
274.981
275.404
275.849
276.314
276.796
277.29
277.787
278.276
278.742
279.168
279.53
273.161
273.487
273.827
274.182
274.556
274.949
275.363
275.796
276.247
276.713
277.186
277.66
278.123
278.56
278.955
279.29
273.159
273.483
273.82
274.172
274.541
274.929
275.337
275.762
276.204
276.658
277.118
277.576
278.02
278.438