/*--------------------------------*- C++ -*----------------------------------*\
| =========                 |                                                 |
| \\      /  F ield         | OpenFOAM: The Open Source CFD Toolbox           |
|  \\    /   O peration     | Version:  v1912                                 |
|   \\  /    A nd           | Website:  www.openfoam.com                      |
|    \\/     M anipulation  |                                                 |
\*---------------------------------------------------------------------------*/
FoamFile
{
    version     2.0;
    format      ascii;
    class       volScalarField;
    location    "0.64/solid";
    object      epsilonEq;
}
// * * * * * * * * * * * * * * * * * * * * * * * * * * * * * * * * * * * * * //

dimensions      [0 0 0 0 0 0 0];


internalField   nonuniform List<scalar> 
256
(
2.75925e-06
1.95166e-06
1.92429e-06
2.63807e-06
1.61609e-06
1.37447e-06
1.35271e-06
1.52217e-06
1.6098e-06
1.29789e-06
1.27664e-06
1.51573e-06
1.68867e-06
1.30144e-06
1.28037e-06
1.59351e-06
1.75013e-06
1.33118e-06
1.3101e-06
1.65396e-06
1.75152e-06
1.3538e-06
1.33268e-06
1.65466e-06
1.43087e-06
1.24131e-06
1.22323e-06
1.34155e-06
2.40935e-07
1.40212e-06
1.39064e-06
2.53698e-07
1.66154e-06
3.9745e-07
3.85819e-07
1.53658e-06
1.22808e-06
3.93024e-07
3.82659e-07
1.11612e-06
1.20024e-06
2.98129e-07
2.90078e-07
1.08872e-06
1.21426e-06
2.0393e-07
1.98712e-07
1.10115e-06
1.24856e-06
1.67142e-07
1.64745e-07
1.13322e-06
1.29249e-06
1.84045e-07
1.81846e-07
1.17497e-06
1.21708e-06
1.50794e-07
1.54917e-07
1.10176e-06
1.43103e-06
1.24345e-06
1.22537e-06
1.34151e-06
1.39596e-06
2.32901e-07
2.28534e-07
1.27555e-06
1.17827e-06
2.30682e-07
2.21858e-07
1.06758e-06
1.16599e-06
1.64018e-07
1.55798e-07
1.05367e-06
1.1797e-06
1.00798e-07
9.66193e-08
1.06486e-06
1.21875e-06
9.50121e-08
9.5599e-08
1.10096e-06
1.28293e-06
1.16215e-07
1.14399e-07
1.1622e-06
1.2908e-06
1.79269e-07
1.77761e-07
1.1728e-06
1.75337e-06
1.35828e-06
1.33723e-06
1.65653e-06
1.25006e-06
2.13439e-07
2.11892e-07
1.13547e-06
1.09449e-06
2.02272e-07
1.97853e-07
9.89676e-07
1.08839e-06
1.50067e-07
1.46787e-07
9.80524e-07
1.10296e-06
1.13818e-07
1.15392e-07
9.91584e-07
1.14473e-06
1.09622e-07
1.14221e-07
1.02967e-06
1.21522e-06
1.06865e-07
1.08234e-07
1.09644e-06
1.24395e-06
1.51573e-07
1.51145e-07
1.12741e-06
1.76099e-06
1.34077e-06
1.31988e-06
1.66509e-06
1.16616e-06
1.84234e-07
1.82786e-07
1.05503e-06
1.0278e-06
1.81244e-07
1.78169e-07
9.26406e-07
1.02751e-06
1.41208e-07
1.39354e-07
9.2259e-07
1.04591e-06
1.1083e-07
1.13058e-07
9.36898e-07
1.09213e-06
1.03165e-07
1.07588e-07
9.7904e-07
1.16707e-06
9.25291e-08
9.30179e-08
1.04987e-06
1.20441e-06
1.48797e-07
1.47729e-07
1.08926e-06
1.72571e-06
1.31477e-06
1.29405e-06
1.63093e-06
1.11861e-06
1.59183e-07
1.57157e-07
1.00941e-06
9.85193e-07
1.60022e-07
1.56712e-07
8.85385e-07
9.8906e-07
1.23481e-07
1.21143e-07
8.85559e-07
1.01158e-06
8.98028e-08
9.1289e-08
9.03759e-07
1.06191e-06
7.81865e-08
8.17052e-08
9.49855e-07
1.14029e-06
7.10369e-08
6.87424e-08
1.024e-06
1.1831e-06
1.60292e-07
1.58148e-07
1.06896e-06
1.69907e-06
1.29667e-06
1.27601e-06
1.605e-06
1.09258e-06
1.40601e-07
1.37895e-07
9.84399e-07
9.60696e-07
1.42081e-07
1.38105e-07
8.61588e-07
9.66991e-07
1.03994e-07
1.0059e-07
8.64117e-07
9.92455e-07
6.34441e-08
6.39e-08
8.85186e-07
1.04556e-06
4.85173e-08
5.13938e-08
9.34016e-07
1.12623e-06
5.33339e-08
4.73163e-08
1.01044e-06
1.17267e-06
1.71463e-07
1.68705e-07
1.0592e-06
1.68425e-06
1.28573e-06
1.2651e-06
1.59061e-06
1.08095e-06
1.30241e-07
1.27068e-07
9.73212e-07
9.49544e-07
1.31495e-07
1.27006e-07
8.50704e-07
9.56947e-07
9.1025e-08
8.67056e-08
8.54313e-07
9.83868e-07
4.23698e-08
4.18084e-08
8.76823e-07
1.03832e-06
2.12695e-08
2.47312e-08
9.26991e-07
1.1201e-06
4.34317e-08
3.39503e-08
1.00454e-06
1.16838e-06
1.77336e-07
1.74341e-07
1.05524e-06
1.67795e-06
1.28062e-06
1.26e-06
1.58451e-06
)
;

boundaryField
{
    interface
    {
        type            calculated;
        value           nonuniform List<scalar> 
192
(
3.53131e-06
2.28409e-06
2.29383e-06
2.40429e-06
2.49942e-06
2.5387e-06
2.26857e-06
1.24675e-06
2.68342e-06
2.11677e-06
2.10449e-06
2.16371e-06
2.24777e-06
2.34287e-06
2.3121e-06
2.26951e-06
2.35338e-06
2.03365e-06
2.04116e-06
2.09784e-06
2.18608e-06
2.3025e-06
2.34388e-06
2.54291e-06
2.13798e-06
1.89502e-06
1.91371e-06
1.9716e-06
2.06247e-06
2.18648e-06
2.25103e-06
2.51548e-06
2.00831e-06
1.78806e-06
1.81365e-06
1.87516e-06
1.96989e-06
2.0986e-06
2.17314e-06
2.45305e-06
1.93294e-06
1.72022e-06
1.74973e-06
1.81477e-06
1.91297e-06
2.04482e-06
2.12462e-06
2.40777e-06
1.89125e-06
1.68148e-06
1.71306e-06
1.78053e-06
1.88104e-06
2.01478e-06
2.09747e-06
2.38153e-06
1.8726e-06
1.66398e-06
1.69647e-06
1.76513e-06
1.86675e-06
2.00135e-06
2.08534e-06
2.36983e-06
3.59197e-06
2.34762e-06
2.35905e-06
2.47252e-06
2.56999e-06
2.60977e-06
2.34281e-06
1.34836e-06
3.05753e-06
2.33245e-06
2.27275e-06
2.32134e-06
2.39937e-06
2.47409e-06
2.40995e-06
2.31587e-06
3.01301e-06
2.29394e-06
2.23361e-06
2.28152e-06
2.35904e-06
2.43322e-06
2.3708e-06
2.28836e-06
3.44758e-06
2.23658e-06
2.24609e-06
2.35712e-06
2.45302e-06
2.49197e-06
2.23368e-06
1.3209e-06
3.34066e-06
2.1129e-06
2.12025e-06
2.22779e-06
2.32015e-06
2.3568e-06
2.08889e-06
1.10011e-06
2.47326e-06
1.92023e-06
1.90587e-06
1.96103e-06
2.0406e-06
2.13135e-06
2.101e-06
2.08906e-06
2.14972e-06
1.84037e-06
1.84439e-06
1.89632e-06
1.97924e-06
2.09003e-06
2.13089e-06
2.35957e-06
1.94201e-06
1.70889e-06
1.72306e-06
1.77546e-06
1.8603e-06
1.97766e-06
2.0405e-06
2.33392e-06
1.81739e-06
1.60665e-06
1.62732e-06
1.68285e-06
1.77108e-06
1.89257e-06
1.96471e-06
2.273e-06
1.74506e-06
1.54148e-06
1.56588e-06
1.6247e-06
1.71611e-06
1.84043e-06
1.91752e-06
2.22865e-06
1.70509e-06
1.50417e-06
1.53055e-06
1.59168e-06
1.68527e-06
1.81131e-06
1.89118e-06
2.20297e-06
1.68721e-06
1.4873e-06
1.51455e-06
1.57682e-06
1.67147e-06
1.7983e-06
1.87944e-06
2.19154e-06
1.35097e-06
2.34492e-06
2.61481e-06
2.58732e-06
2.52402e-06
2.47744e-06
2.45022e-06
2.43804e-06
2.31767e-06
2.41399e-06
2.48253e-06
2.41734e-06
2.3533e-06
2.30872e-06
2.28144e-06
2.26859e-06
2.28991e-06
2.37452e-06
2.44121e-06
2.37639e-06
2.3126e-06
2.26812e-06
2.2409e-06
2.22807e-06
1.32219e-06
2.23485e-06
2.49609e-06
2.4693e-06
2.40693e-06
2.36093e-06
2.33405e-06
2.32203e-06
)
;
    }
    symmetry
    {
        type            symmetry;
    }
    bottom
    {
        type            calculated;
        value           nonuniform List<scalar> 
32
(
3.92142e-06
2.12875e-06
1.68239e-06
1.49826e-06
1.40313e-06
1.35029e-06
1.32147e-06
1.30862e-06
2.50118e-06
5.03556e-07
2.37062e-07
2.19895e-07
1.9616e-07
1.74242e-07
1.57897e-07
1.4891e-07
2.46903e-06
4.87419e-07
2.25287e-07
2.10418e-07
1.85922e-07
1.62696e-07
1.45022e-07
1.35133e-07
3.774e-06
1.99072e-06
1.54951e-06
1.37163e-06
1.28073e-06
1.23049e-06
1.20314e-06
1.19095e-06
)
;
    }
}


// ************************************************************************* //
