/*--------------------------------*- C++ -*----------------------------------*\
| =========                 |                                                 |
| \\      /  F ield         | OpenFOAM: The Open Source CFD Toolbox           |
|  \\    /   O peration     | Version:  v1912                                 |
|   \\  /    A nd           | Website:  www.openfoam.com                      |
|    \\/     M anipulation  |                                                 |
\*---------------------------------------------------------------------------*/
FoamFile
{
    version     2.0;
    format      ascii;
    class       volVectorField;
    location    "0.64/solid";
    object      heatFlux;
}
// * * * * * * * * * * * * * * * * * * * * * * * * * * * * * * * * * * * * * //

dimensions      [1 0 -3 0 0 0 0];


internalField   nonuniform List<vector> 
256
(
(-67454.7 67187 -71407.4)
(-13086.7 38472 -69469.7)
(12105.2 38128.5 -68361)
(61950.4 65383.3 -68080.2)
(-65176.3 8700.67 -69399.6)
(-15971.8 5393.25 -69962.6)
(14806.1 5349.05 -68798.7)
(59388.2 8511.96 -65970.1)
(-66386.2 1968.1 -70701.6)
(-16438.4 1154.74 -71491)
(15223.9 1139.37 -70276.7)
(60472 1902.12 -67142.3)
(-68271.9 2025.22 -72612.6)
(-16800.5 1149.78 -73488.4)
(15553.4 1140.48 -72241)
(62233.4 1978.56 -68963.3)
(-70988.3 3436.87 -75337.4)
(-17323.1 2118.9 -76427.1)
(16052.7 2111.98 -75157.4)
(64839.4 3403.63 -71625.4)
(-74999.6 8034.5 -79382)
(-18125.4 6157.36 -81050.1)
(16838.2 6137.44 -79759.7)
(68761.2 7981.83 -75612.4)
(-79726.8 27627.1 -84287.5)
(-19220.2 26378.2 -87324.7)
(17877.1 26199.4 -86009)
(73407.7 27148 -80450.4)
(-75957.9 81160.9 -81088)
(-19553.1 86207 -86149.9)
(17608 84927.3 -84881.2)
(69363 77454.1 -77420.7)
(-63449.3 35057.3 -17530.1)
(-11588.4 9050.26 -14975.1)
(11089.5 8986.47 -14838)
(58207.3 34052.8 -17131)
(-63885.5 4957.49 -21671)
(-14482.4 1603.22 -18936.8)
(13913 1596.71 -18765.7)
(58456.9 4872.85 -21175.4)
(-65340.7 1109.81 -22286.5)
(-14949.2 293.579 -19534.7)
(14359.1 289.685 -19354.9)
(59791.2 1072.24 -21768.6)
(-67318.9 1144.58 -22702.7)
(-15302.5 258.599 -19933.9)
(14691.7 254.705 -19750.2)
(61637.8 1107.73 -22176.8)
(-70262.5 2106.48 -23294.2)
(-15839.1 681.727 -20533.8)
(15208.2 677.34 -20348.4)
(64448.2 2071.58 -22769.1)
(-74885.4 6044.63 -24220.8)
(-16731.6 3773.98 -21558.6)
(16081.6 3754.86 -21372.9)
(68941.3 5982.09 -23704.4)
(-81081.6 25704.7 -25682.8)
(-18128.8 23395.3 -23386.1)
(17416.4 23207.7 -23201.3)
(75012.1 25186.9 -25182.4)
(-79781.5 84401.8 -27599.6)
(-19228.6 87416.2 -26364.6)
(17873.2 86082.3 -26189.8)
(73413 80504.3 -27141.2)
(-56699.5 27985.9 -4059.25)
(-10394.6 4560.13 -2164.9)
(9949.22 4524.87 -2150.78)
(51622.4 27076.8 -4002.52)
(-57535.3 3944.3 -5201.49)
(-13066.4 833.625 -2939.49)
(12567.4 832.172 -2920.48)
(52287.8 3874.4 -5128.28)
(-58940 936.471 -5348.31)
(-13506.7 157.612 -3044.23)
(12990 154.822 -3024.27)
(53571.6 900.784 -5272.58)
(-60855.2 1017.55 -5412.65)
(-13848 150.679 -3091.84)
(13310.6 146.936 -3071.65)
(55349.4 978.064 -5337.6)
(-63764.8 1918.76 -5493.43)
(-14377.3 494.262 -3161.98)
(13817.4 489.326 -3141.99)
(58108.6 1876.01 -5422.26)
(-68434.5 5645.88 -5628.88)
(-15277.5 3305.04 -3303.01)
(14692.4 3284.49 -3283.74)
(62612.9 5568.56 -5566.38)
(-74954.8 24248.2 -6026.61)
(-16738.7 21572.1 -3771.41)
(16080.9 21382.4 -3753.72)
(68952.3 23711.2 -5979.62)
(-75125.7 79559.5 -8001.88)
(-18143.3 81194 -6143.25)
(16831.4 79874.3 -6127.53)
(68776.9 75697.1 -7973.18)
(-52262.8 25796.5 -1449.39)
(-9679.96 3945.88 -323.745)
(9251.86 3915.2 -320.764)
(47313.8 24922 -1423.39)
(-53086.2 3668.42 -1804.37)
(-12201.4 723.882 -443.005)
(11724.3 723.229 -438.953)
(47975.2 3602.79 -1771.79)
(-54439.2 898.646 -1843.89)
(-12625.1 141.223 -457.679)
(12130.8 138.514 -453.485)
(49208.4 862.909 -1810.6)
(-56317.3 999.465 -1854.88)
(-12961.5 140.852 -462.063)
(12445.9 136.984 -457.901)
(50945.8 958.046 -1822.34)
(-59201.4 1890.25 -1865.53)
(-13487.6 470.564 -468.43)
(12948 465.25 -464.434)
(53667.6 1842.8 -1835.32)
(-63857.9 5511.44 -1893.35)
(-14386.5 3164.55 -491.991)
(13818.2 3143.12 -488.405)
(58134.7 5424.74 -1868.17)
(-70429.2 23331.7 -2077.61)
(-15855.9 20555.1 -677.616)
(15208.2 20363.9 -674.981)
(64485.2 22780.1 -2062.26)
(-71215.8 75609.2 -3382.59)
(-17354.2 76651.7 -2093.63)
(16043.2 75338 -2092.52)
(64879.7 71760.7 -3381.57)
(-49600.5 24732.1 -751.837)
(-9265.96 3793.38 -96.6743)
(8849.57 3765.15 -94.9536)
(44739.4 23881.6 -734.35)
(-50397 3549.81 -918.566)
(-11701 699.691 -128.198)
(11238.7 699.451 -125.855)
(45379.5 3487.19 -896.53)
(-51723.7 885.961 -934.49)
(-12116.3 138.555 -131.396)
(11637.1 135.874 -128.979)
(46587.3 850.236 -911.953)
(-53585.8 995.904 -936.914)
(-12451.1 139.928 -131.749)
(11950.3 135.988 -129.356)
(48305.3 953.34 -914.842)
(-56457.5 1880.3 -939.188)
(-12976.2 464.334 -132.465)
(12450.5 458.822 -130.162)
(51006.6 1830.18 -918.512)
(-61094.5 5433.8 -953.405)
(-13872.5 3095.86 -141.16)
(13316.2 3073.95 -139.076)
(55439.6 5341.62 -935.605)
(-67642.3 22759 -1067.68)
(-15336.1 19970.5 -240.675)
(14696.2 19778.3 -239.13)
(61741.9 22197.8 -1055.72)
(-68660.5 73041.2 -1885.75)
(-16853.2 73854.3 -1073.19)
(15543.5 72542 -1072.73)
(62336.4 69193.4 -1883.61)
(-48002.9 24126.1 -427.317)
(-9023.07 3721.01 -48.3737)
(8614.18 3694.4 -47.2814)
(43195 23291.1 -416.528)
(-48784.9 3485.77 -518.499)
(-11408.7 689.161 -63.1244)
(10955.9 689.203 -61.6233)
(43824.1 3425.19 -504.757)
(-50099.2 880.299 -526.335)
(-11819.6 137.671 -64.4287)
(11350.2 135.014 -62.8753)
(45019.8 844.598 -512.252)
(-51954 994.767 -526.933)
(-12153.9 139.782 -64.4158)
(11662.8 135.801 -62.8747)
(46728 951.487 -513.136)
(-54818.2 1873.76 -528.069)
(-12678.6 461.153 -64.6279)
(12161.9 455.529 -63.1383)
(49415.8 1822.04 -515.108)
(-59435.7 5382.94 -537.946)
(-13572.2 3056.34 -69.4155)
(13023.7 3034.16 -68.0482)
(53820.2 5287.53 -526.654)
(-65944.3 22399.3 -610.378)
(-15027.4 19623.1 -126.574)
(14393.1 19430.3 -125.504)
(60068.4 21832.1 -602.492)
(-67045.1 71411.5 -1110.95)
(-16541.2 72135.5 -616.287)
(15232.8 70823.4 -615.873)
(60725.7 67561.8 -1109.13)
(-47086.7 23786.3 -223.513)
(-8885.92 3681.88 -24.6373)
(8481.41 3656.25 -24.033)
(42308.7 22960.3 -217.718)
(-47861.3 3450.79 -270.337)
(-11244.1 683.636 -31.9897)
(10797 683.857 -31.1528)
(42932.4 3391.46 -262.895)
(-49169.6 877.526 -274.128)
(-11652.9 137.263 -32.6021)
(11189.2 134.623 -31.7333)
(44122 841.856 -266.482)
(-51020.8 994.17 -274.29)
(-11987 139.729 -32.5681)
(11501.6 135.725 -31.7052)
(45825.1 950.484 -266.797)
(-53879.8 1869.28 -275.033)
(-12511.3 459.334 -32.6803)
(12000 453.649 -31.8447)
(48504.3 1816.66 -267.982)
(-58482.2 5351.49 -281.08)
(-13402.6 3033.91 -35.2333)
(12858.9 3011.58 -34.461)
(52888.1 5254.24 -274.91)
(-64957.7 22186 -321.579)
(-14851.2 19423.6 -65.3651)
(14220.3 19230.5 -64.7436)
(59094.8 21615.3 -317.207)
(-66085.5 70438.2 -594.334)
(-16358.1 71127.6 -326.404)
(15050.6 69815.3 -326.129)
(59767.4 66586.4 -593.252)
(-46666.5 23632.3 -69.7571)
(-8823.59 3664.38 -7.62254)
(8421.1 3639.21 -7.42941)
(41901.8 22810.5 -67.9355)
(-47437.9 3435.15 -84.2484)
(-11169.5 681.196 -9.8789)
(10725 681.503 -9.61029)
(42523.2 3376.43 -81.8971)
(-48743.6 876.345 -85.3919)
(-11577.2 137.093 -10.0624)
(11116.3 134.461 -9.78307)
(43710.3 840.696 -82.9719)
(-50593.3 993.862 -85.4295)
(-11911.4 139.704 -10.0495)
(11428.6 135.689 -9.77189)
(45411.1 949.988 -83.0576)
(-53449.5 1866.97 -85.6997)
(-12435.4 458.488 -10.0875)
(11926.6 452.774 -9.81863)
(48086 1813.93 -83.4678)
(-58043.7 5336.4 -87.7403)
(-13325.6 3023.66 -10.8957)
(12784.1 3001.26 -10.6468)
(52459.1 5238.3 -85.7876)
(-64501.2 22086.1 -100.791)
(-14770.6 19331.9 -20.3442)
(14141.3 19138.6 -20.1417)
(58643.8 21513.8 -99.4058)
(-65636.3 69980.6 -187.617)
(-16273 70658.1 -102.634)
(14966 69345.6 -102.54)
(59318.1 66127.7 -187.277)
)
;

boundaryField
{
    interface
    {
        type            calculated;
        value           nonuniform List<vector> 
192
(
(-109045 67187 -71407.4)
(-98787 8700.67 -69399.6)
(-100293 1968.1 -70701.6)
(-103351 2025.22 -72612.6)
(-107746 3436.87 -75337.4)
(-114171 8034.5 -79382)
(-121469 27627.1 -84287.5)
(-113590 81160.9 -81088)
(-103781 35057.3 -17530.1)
(-98874.6 4957.49 -21671)
(-100855 1109.81 -22286.5)
(-104109 1144.58 -22702.7)
(-108927 2106.48 -23294.2)
(-116392 6044.63 -24220.8)
(-126024 25704.7 -25682.8)
(-121566 84401.8 -27599.6)
(-92644.6 27985.9 -4059.25)
(-88973.5 3944.3 -5201.49)
(-90904.4 936.471 -5348.31)
(-94055.6 1017.55 -5412.65)
(-98820.2 1918.76 -5493.43)
(-106365 5645.88 -5628.88)
(-116519 24248.2 -6026.61)
(-114395 79559.5 -8001.88)
(-85196.6 25796.5 -1449.39)
(-81800.1 3668.42 -1804.37)
(-83660.4 898.646 -1843.89)
(-86747.5 999.465 -1854.88)
(-91467.5 1890.25 -1865.53)
(-98989.3 5511.44 -1893.35)
(-109229 23331.7 -2077.61)
(-108152 75609.2 -3382.59)
(-80697.9 24732.1 -751.837)
(-77419.5 3549.81 -918.566)
(-79244.2 885.961 -934.49)
(-82302.3 995.904 -936.914)
(-86999.8 1880.3 -939.188)
(-94487.8 5433.8 -953.405)
(-104694 22759 -1067.68)
(-104043 73041.2 -1885.75)
(-77987.3 24126.1 -427.317)
(-74778.2 3485.77 -518.499)
(-76586.6 880.299 -526.335)
(-79631.2 994.767 -526.933)
(-84314.5 1873.76 -528.069)
(-91769.4 5382.94 -537.946)
(-101914 22399.3 -610.378)
(-101436 71411.5 -1110.95)
(-76428.3 23786.3 -223.513)
(-73259 3450.79 -270.337)
(-75059.7 877.526 -274.128)
(-78097.5 994.17 -274.29)
(-82771.2 1869.28 -275.033)
(-90200.3 5351.49 -281.08)
(-100292 22186 -321.579)
(-99882.3 70438.2 -594.334)
(-75712.2 23632.3 -69.7571)
(-72560.9 3435.15 -84.2484)
(-74358.4 876.345 -85.3919)
(-77393.2 993.862 -85.4295)
(-82061.9 1866.97 -85.6997)
(-89477.1 5336.4 -87.7403)
(-99539.7 22086.1 -100.791)
(-99153.7 69980.6 -187.617)
(-67454.7 67187 -113931)
(-65176.3 8700.67 -103424)
(-66386.2 1968.1 -105033)
(-68271.9 2025.22 -108133)
(-70988.3 3436.87 -112543)
(-74999.6 8034.5 -119011)
(-79726.8 27627.1 -126464)
(-75957.9 81160.9 -118578)
(-13086.7 38472 -112802)
(-15971.8 5393.25 -107219)
(-16438.4 1154.74 -109265)
(-16800.5 1149.78 -112548)
(-17323.1 2118.9 -117355)
(-18125.4 6157.36 -124797)
(-19220.2 26378.2 -134383)
(-19553.1 86207 -129031)
(12105.2 38128.5 -110835)
(14806.1 5349.05 -105201)
(15223.9 1139.37 -107161)
(15553.4 1140.48 -110386)
(16052.7 2111.98 -115151)
(16838.2 6137.44 -122554)
(17877.1 26199.4 -132089)
(17608 84927.3 -126814)
(61950.4 65383.3 -107992)
(59388.2 8511.96 -97447.9)
(60472 1902.12 -98837.8)
(62233.4 1978.56 -101774)
(64839.4 3403.63 -106062)
(68761.2 7981.83 -112409)
(73407.7 27148 -119713)
(69363 77454.1 -112103)
(99381.4 65383.3 -68080.2)
(88786.3 8511.96 -65970.1)
(90098.9 1902.12 -67142.3)
(92951.3 1978.56 -68963.3)
(97157.5 3403.63 -71625.4)
(103423 7981.83 -75612.4)
(110605 27148 -80450.4)
(102730 77454.1 -77420.7)
(94176.5 34052.8 -17131)
(89019.3 4872.85 -21175.4)
(90791.9 1072.24 -21768.6)
(93816 1107.73 -22176.8)
(98399.9 2071.58 -22769.1)
(105635 5982.09 -23704.4)
(115073 25186.9 -25182.4)
(110619 80504.3 -27141.2)
(83311.4 27076.8 -4002.52)
(79405.1 3874.4 -5128.28)
(81125.4 900.784 -5272.58)
(84036.4 978.064 -5337.6)
(88537.3 1876.01 -5422.26)
(95789.9 5568.56 -5566.38)
(105656 23711.2 -5979.62)
(103460 75697.1 -7973.18)
(76092.9 24922 -1423.39)
(72471.5 3602.79 -1771.79)
(74123 862.909 -1810.6)
(76963.8 958.046 -1822.34)
(81399.2 1842.8 -1835.32)
(88586.6 5424.74 -1868.17)
(98471.3 22780.1 -2062.26)
(97244.1 71760.7 -3381.57)
(71750.7 23881.6 -734.35)
(68254.1 3487.19 -896.53)
(69871.2 850.236 -911.953)
(72677 953.34 -914.842)
(77075.1 1830.18 -918.512)
(84202.9 5341.62 -935.605)
(94010.2 22197.8 -1055.72)
(93157.6 69193.4 -1883.61)
(69134.1 23291.1 -416.528)
(65710.8 3425.19 -504.757)
(67311.7 844.598 -512.252)
(70099.3 951.487 -513.136)
(74472.5 1822.04 -515.108)
(81550.7 5287.53 -526.654)
(91270.9 21832.1 -602.492)
(90557.9 67561.8 -1109.13)
(67627.8 22960.3 -217.718)
(64246.1 3391.46 -262.895)
(65839.2 841.856 -266.482)
(68617.2 950.484 -266.797)
(72974.4 1816.66 -267.982)
(80017.1 5254.24 -274.91)
(89670.1 21615.3 -317.207)
(89006.1 66586.4 -593.252)
(66935.1 22810.5 -67.9355)
(63572.3 3376.43 -81.8971)
(65162.2 840.696 -82.9719)
(67935.7 949.988 -83.0576)
(72285.1 1813.93 -83.4678)
(79309.3 5238.3 -85.7876)
(88926.5 21513.8 -99.4058)
(88277 66127.7 -187.277)
(-75957.9 118696 -81088)
(-79781.5 126664 -27599.6)
(-75125.7 119327 -8001.88)
(-71215.8 113029 -3382.59)
(-68660.5 108900 -1885.75)
(-67045.1 106270 -1110.95)
(-66085.5 104695 -594.334)
(-65636.3 103954 -187.617)
(-19553.1 129129 -86149.9)
(-19228.6 134550 -26364.6)
(-18143.3 125060 -6143.25)
(-17354.2 117765 -2093.63)
(-16853.2 113213 -1073.19)
(-16541.2 110397 -616.287)
(-16358.1 108739 -326.404)
(-16273 107965 -102.634)
(17608 126894 -84881.2)
(17873.2 132224 -26189.8)
(16831.4 122765 -6127.53)
(16043.2 115483 -2092.52)
(15543.5 110936 -1072.73)
(15232.8 108121 -615.873)
(15050.6 106463 -326.129)
(14966 105688 -102.54)
(69363 112162 -77420.7)
(73413 119813 -27141.2)
(68776.9 112566 -7973.18)
(64879.7 106313 -3381.57)
(62336.4 102197 -1883.61)
(60725.7 99570.6 -1109.13)
(59767.4 97996.2 -593.252)
(59318.1 97254.5 -187.277)
)
;
    }
    symmetry
    {
        type            symmetry;
    }
    bottom
    {
        type            calculated;
        value           nonuniform List<vector> 
32
(
(-67454.7 119291 -71407.4)
(-63449.3 61523.2 -17530.1)
(-56699.5 49170.7 -4059.25)
(-52262.8 45286.2 -1449.39)
(-49600.5 43373.1 -751.837)
(-48002.9 42278.9 -427.317)
(-47086.7 41663.9 -223.513)
(-46666.5 41384.8 -69.7571)
(-13086.7 67562.3 -69469.7)
(-11588.4 15287.9 -14975.1)
(-10394.6 7662.07 -2164.9)
(-9679.96 6628.35 -323.745)
(-9265.96 6367.09 -96.6743)
(-9023.07 6241.66 -48.3737)
(-8885.92 6173.6 -24.6373)
(-8823.59 6143.11 -7.62254)
(12105.2 66944.3 -68361)
(11089.5 15169.6 -14838)
(9949.22 7592.38 -2150.78)
(9251.86 6566.42 -320.764)
(8849.57 6309.32 -94.9536)
(8614.18 6186.61 -47.2814)
(8481.41 6120.2 -24.033)
(8421.1 6090.48 -7.42941)
(61950.4 115983 -68080.2)
(58207.3 59645.9 -17131)
(51622.4 47458.9 -4002.52)
(47313.8 43635.8 -1423.39)
(44739.4 41765.4 -734.35)
(43195 40698.4 -416.528)
(42308.7 40099.3 -217.718)
(41901.8 39827.5 -67.9355)
)
;
    }
}


// ************************************************************************* //
