/*--------------------------------*- C++ -*----------------------------------*\
| =========                 |                                                 |
| \\      /  F ield         | OpenFOAM: The Open Source CFD Toolbox           |
|  \\    /   O peration     | Version:  v1912                                 |
|   \\  /    A nd           | Website:  www.openfoam.com                      |
|    \\/     M anipulation  |                                                 |
\*---------------------------------------------------------------------------*/
FoamFile
{
    version     2.0;
    format      ascii;
    class       pointVectorField;
    location    "0.64/solid";
    object      pointD;
}
// * * * * * * * * * * * * * * * * * * * * * * * * * * * * * * * * * * * * * //

dimensions      [0 1 0 0 0 0 0];


internalField   nonuniform List<vector> 
405
(
(3.62393e-08 3.65505e-08 3.74059e-08)
(6.97412e-09 2.39893e-08 4.13679e-08)
(7.48464e-11 1.96978e-08 3.89956e-08)
(-6.65048e-09 2.36277e-08 4.06289e-08)
(-3.43868e-08 3.54561e-08 3.66933e-08)
(6.13044e-08 4.51297e-08 6.68617e-08)
(1.91531e-08 4.05565e-08 9.27062e-08)
(5.03594e-10 3.37986e-08 8.78637e-08)
(-1.77437e-08 3.96895e-08 9.13576e-08)
(-5.77213e-08 4.32927e-08 6.59994e-08)
(6.96038e-08 2.68413e-08 8.41912e-08)
(2.52445e-08 2.6052e-08 1.0935e-07)
(1.28179e-09 2.24962e-08 1.04179e-07)
(-2.22295e-08 2.49026e-08 1.08206e-07)
(-6.43833e-08 2.4604e-08 8.36901e-08)
(7.11784e-08 1.21925e-08 9.60832e-08)
(2.6043e-08 1.31934e-08 1.21593e-07)
(2.16613e-09 1.13732e-08 1.15996e-07)
(-2.1267e-08 1.1772e-08 1.20578e-07)
(-6.42081e-08 9.54162e-09 9.58507e-08)
(7.23465e-08 1.09159e-09 1.06774e-07)
(2.6289e-08 2.01213e-09 1.32923e-07)
(3.12102e-09 3.48645e-10 1.2698e-07)
(-1.96038e-08 3.3262e-10 1.32004e-07)
(-6.34624e-08 -1.96553e-09 1.06738e-07)
(7.59944e-08 -9.09659e-09 1.18396e-07)
(2.80779e-08 -9.11102e-09 1.45526e-07)
(4.14609e-09 -1.13106e-08 1.39327e-07)
(-1.93404e-08 -1.10362e-08 1.44675e-07)
(-6.50489e-08 -1.25399e-08 1.18504e-07)
(8.42226e-08 -2.26635e-08 1.32372e-07)
(3.27944e-08 -2.33853e-08 1.6109e-07)
(5.23469e-09 -2.56943e-08 1.54893e-07)
(-2.18839e-08 -2.55438e-08 1.60286e-07)
(-7.11082e-08 -2.64645e-08 1.32586e-07)
(9.81977e-08 -5.66754e-08 1.48951e-07)
(4.0567e-08 -5.63275e-08 1.81089e-07)
(6.34834e-09 -5.68081e-08 1.75781e-07)
(-2.74293e-08 -5.85289e-08 1.80347e-07)
(-8.28596e-08 -6.05496e-08 1.49256e-07)
(9.4824e-08 -1.0828e-07 1.46176e-07)
(4.52408e-08 -1.18514e-07 1.56667e-07)
(7.06787e-09 -1.16011e-07 1.53524e-07)
(-3.06567e-08 -1.1988e-07 1.56731e-07)
(-7.87304e-08 -1.11123e-07 1.4683e-07)
(3.73073e-08 2.04492e-08 6.70314e-09)
(0 0 0)
(0 0 0)
(0 0 0)
(-3.50455e-08 1.94712e-08 6.79267e-09)
(7.97181e-08 3.25058e-08 2.23585e-08)
(1.62226e-08 1.80111e-08 2.54647e-08)
(4.37044e-10 1.22124e-08 2.52103e-08)
(-1.49643e-08 1.71182e-08 2.56621e-08)
(-7.44726e-08 3.03214e-08 2.27528e-08)
(8.60942e-08 1.68702e-08 3.73748e-08)
(2.13434e-08 1.19061e-08 4.15022e-08)
(1.12118e-09 8.66747e-09 4.13625e-08)
(-1.86718e-08 1.06714e-08 4.19059e-08)
(-7.9345e-08 1.42221e-08 3.81697e-08)
(8.78658e-08 4.32716e-09 4.82456e-08)
(2.19599e-08 2.82889e-09 5.25461e-08)
(1.92422e-09 1.14091e-09 5.24381e-08)
(-1.76892e-08 1.32746e-09 5.31178e-08)
(-7.94491e-08 1.21298e-09 4.93667e-08)
(8.97539e-08 -5.53074e-09 5.76608e-08)
(2.21997e-08 -7.28556e-09 6.19234e-08)
(2.81673e-09 -8.8501e-09 6.17596e-08)
(-1.61425e-08 -9.0266e-09 6.26205e-08)
(-7.94702e-08 -9.09129e-09 5.9027e-08)
(9.45362e-08 -1.46125e-08 6.73325e-08)
(2.4002e-08 -1.84993e-08 7.15209e-08)
(3.79447e-09 -2.06375e-08 7.12711e-08)
(-1.59842e-08 -2.04705e-08 7.23106e-08)
(-8.22137e-08 -1.85913e-08 6.88801e-08)
(1.0454e-07 -2.61938e-08 7.8108e-08)
(2.87375e-08 -3.25218e-08 8.2233e-08)
(4.8475e-09 -3.48665e-08 8.19432e-08)
(-1.86143e-08 -3.47119e-08 8.30896e-08)
(-9.00615e-08 -3.05495e-08 7.97869e-08)
(1.21937e-07 -5.61871e-08 8.87594e-08)
(3.65041e-08 -6.0984e-08 9.29095e-08)
(5.93839e-09 -6.14516e-08 9.27366e-08)
(-2.41979e-08 -6.32003e-08 9.38038e-08)
(-1.05251e-07 -6.06155e-08 9.05163e-08)
(9.87216e-08 -1.16547e-07 9.5323e-08)
(4.12434e-08 -1.49207e-07 9.65811e-08)
(7.02147e-09 -1.44551e-07 9.64385e-08)
(-2.67539e-08 -1.49773e-07 9.74825e-08)
(-8.23558e-08 -1.19169e-07 9.68909e-08)
(3.02782e-08 1.19522e-08 5.39575e-10)
(0 0 0)
(0 0 0)
(0 0 0)
(-2.80921e-08 1.11062e-08 6.87367e-10)
(6.44074e-08 1.72097e-08 6.5005e-09)
(1.10967e-08 6.25508e-09 1.07451e-08)
(3.49437e-10 1.41756e-09 1.18228e-08)
(-1.0021e-08 5.44963e-09 1.10157e-08)
(-5.94216e-08 1.52524e-08 6.99444e-09)
(6.9068e-08 5.00435e-09 1.74552e-08)
(1.46523e-08 1.17229e-09 2.30209e-08)
(9.52241e-10 -1.59856e-09 2.45664e-08)
(-1.23312e-08 -1.43929e-11 2.34763e-08)
(-6.27685e-08 2.51492e-09 1.83028e-08)
(7.0181e-08 -4.81479e-09 2.76979e-08)
(1.49393e-08 -6.02067e-09 3.35424e-08)
(1.68505e-09 -7.56153e-09 3.52501e-08)
(-1.11613e-08 -7.49685e-09 3.41405e-08)
(-6.23564e-08 -7.82018e-09 2.88244e-08)
(7.17495e-08 -1.29659e-08 3.66837e-08)
(1.50748e-08 -1.46158e-08 4.25713e-08)
(2.52005e-09 -1.61415e-08 4.43214e-08)
(-9.62385e-09 -1.63408e-08 4.3281e-08)
(-6.2159e-08 -1.64479e-08 3.80297e-08)
(7.64014e-08 -2.03819e-08 4.51458e-08)
(1.67924e-08 -2.42388e-08 5.10325e-08)
(3.4522e-09 -2.63745e-08 5.27832e-08)
(-9.4681e-09 -2.61977e-08 5.18272e-08)
(-6.48333e-08 -2.43024e-08 4.66589e-08)
(8.66788e-08 -2.9146e-08 5.30956e-08)
(2.15156e-08 -3.55398e-08 5.89447e-08)
(4.47033e-09 -3.78888e-08 6.06892e-08)
(-1.21507e-08 -3.77185e-08 5.97992e-08)
(-7.29822e-08 -3.34565e-08 5.47273e-08)
(1.05239e-07 -5.38537e-08 5.86149e-08)
(2.94004e-08 -5.864e-08 6.43964e-08)
(5.53649e-09 -5.90072e-08 6.61461e-08)
(-1.78981e-08 -6.08412e-08 6.528e-08)
(-8.93499e-08 -5.82397e-08 6.03118e-08)
(8.54373e-08 -1.0827e-07 6.12515e-08)
(3.4149e-08 -1.37549e-07 6.3638e-08)
(6.60505e-09 -1.32026e-07 6.53666e-08)
(-2.04932e-08 -1.38069e-07 6.45143e-08)
(-6.98921e-08 -1.10833e-07 6.27617e-08)
(2.60692e-08 8.78352e-09 4.80235e-10)
(0 0 0)
(0 0 0)
(0 0 0)
(-2.39887e-08 8.02701e-09 5.92025e-10)
(5.52774e-08 1.0745e-08 4.83074e-09)
(7.98115e-09 1.97647e-09 7.4798e-09)
(2.7384e-10 -2.20054e-09 8.46459e-09)
(-7.06949e-09 1.23672e-09 7.68426e-09)
(-5.05733e-08 8.97256e-09 5.21242e-09)
(5.90818e-08 -1.38328e-09 1.33696e-08)
(1.0539e-08 -4.49091e-09 1.68765e-08)
(8.04854e-10 -6.90261e-09 1.82792e-08)
(-8.52484e-09 -5.60485e-09 1.72269e-08)
(-5.31984e-08 -3.69285e-09 1.40317e-08)
(6.00517e-08 -1.05551e-08 2.23896e-08)
(1.0668e-08 -1.16215e-08 2.60439e-08)
(1.47579e-09 -1.30428e-08 2.75878e-08)
(-7.31899e-09 -1.30341e-08 2.65071e-08)
(-5.27597e-08 -1.34061e-08 2.32746e-08)
(6.16371e-08 -1.75549e-08 3.06154e-08)
(1.08105e-08 -1.921e-08 3.42463e-08)
(2.25962e-09 -2.0711e-08 3.58318e-08)
(-5.88931e-09 -2.08826e-08 3.48004e-08)
(-5.26712e-08 -2.09112e-08 3.16823e-08)
(6.63698e-08 -2.32291e-08 3.78609e-08)
(1.25391e-08 -2.71238e-08 4.14479e-08)
(3.15066e-09 -2.92628e-08 4.30435e-08)
(-5.82429e-09 -2.90396e-08 4.2074e-08)
(-5.54883e-08 -2.70495e-08 3.9072e-08)
(7.68662e-08 -2.962e-08 4.36661e-08)
(1.72817e-08 -3.60627e-08 4.72171e-08)
(4.13658e-09 -3.84297e-08 4.88123e-08)
(-8.58687e-09 -3.82045e-08 4.78943e-08)
(-6.38877e-08 -3.38496e-08 4.49813e-08)
(9.57455e-08 -5.13545e-08 4.66977e-08)
(2.51705e-08 -5.62263e-08 5.02634e-08)
(5.17748e-09 -5.66506e-08 5.18633e-08)
(-1.43844e-08 -5.83928e-08 5.09641e-08)
(-8.05839e-08 -5.56684e-08 4.80695e-08)
(7.77185e-08 -1.02593e-07 4.76094e-08)
(2.9962e-08 -1.30345e-07 4.94175e-08)
(6.22612e-09 -1.24836e-07 5.10853e-08)
(-1.70602e-08 -1.30841e-07 5.01044e-08)
(-6.29122e-08 -1.05102e-07 4.88158e-08)
(2.38635e-08 7.61614e-09 7.97199e-10)
(0 0 0)
(0 0 0)
(0 0 0)
(-2.18664e-08 6.92192e-09 8.75822e-10)
(5.04982e-08 8.2744e-09 4.63015e-09)
(6.66795e-09 5.15842e-10 5.88437e-09)
(2.22158e-10 -3.29725e-09 6.46629e-09)
(-5.87576e-09 -1.76442e-10 6.03084e-09)
(-4.6018e-08 6.63998e-09 4.90496e-09)
(5.3931e-08 -4.14661e-09 1.13281e-08)
(8.80843e-09 -6.93445e-09 1.29812e-08)
(6.9754e-10 -9.14302e-09 1.38141e-08)
(-7.02475e-09 -7.98391e-09 1.32372e-08)
(-4.83787e-08 -6.3041e-09 1.18136e-08)
(5.49795e-08 -1.33766e-08 1.85816e-08)
(8.92796e-09 -1.44306e-08 2.02639e-08)
(1.31756e-09 -1.5783e-08 2.11789e-08)
(-5.90892e-09 -1.57777e-08 2.06059e-08)
(-4.81124e-08 -1.60822e-08 1.92387e-08)
(5.67236e-08 -1.98583e-08 2.53607e-08)
(9.1472e-09 -2.1574e-08 2.6978e-08)
(2.05807e-09 -2.30616e-08 2.7913e-08)
(-4.64097e-09 -2.31875e-08 2.7391e-08)
(-4.82603e-08 -2.30869e-08 2.61616e-08)
(6.15967e-08 -2.44893e-08 3.11175e-08)
(1.0933e-08 -2.84315e-08 3.26754e-08)
(2.91359e-09 -3.05714e-08 3.36134e-08)
(-4.70253e-09 -3.02965e-08 3.3146e-08)
(-5.12755e-08 -2.82028e-08 3.2036e-08)
(7.21926e-08 -2.96414e-08 3.5313e-08)
(1.56815e-08 -3.60992e-08 3.68558e-08)
(3.87086e-09 -3.8485e-08 3.77963e-08)
(-7.52578e-09 -3.81976e-08 3.73681e-08)
(-5.98096e-08 -3.37827e-08 3.63187e-08)
(9.10382e-08 -5.0035e-08 3.72698e-08)
(2.35032e-08 -5.49914e-08 3.88763e-08)
(4.88818e-09 -5.55128e-08 3.98336e-08)
(-1.32999e-08 -5.71201e-08 3.94075e-08)
(-7.64877e-08 -5.42732e-08 3.83239e-08)
(7.41264e-08 -9.94093e-08 3.76495e-08)
(2.83239e-08 -1.26252e-07 3.8609e-08)
(5.91717e-09 -1.20964e-07 3.96494e-08)
(-1.60424e-08 -1.2672e-07 3.91264e-08)
(-5.99388e-08 -1.01861e-07 3.85706e-08)
(2.2726e-08 7.14065e-09 8.09822e-10)
(0 0 0)
(0 0 0)
(0 0 0)
(-2.07847e-08 6.48948e-09 8.62728e-10)
(4.80912e-08 7.33109e-09 3.93007e-09)
(6.21538e-09 -2.36326e-11 4.45876e-09)
(1.88929e-10 -3.65645e-09 4.74787e-09)
(-5.50258e-09 -6.81255e-10 4.5597e-09)
(-4.37634e-08 5.79536e-09 4.11764e-09)
(5.1436e-08 -5.166e-09 8.91532e-09)
(8.2415e-09 -7.85466e-09 9.58951e-09)
(6.24842e-10 -9.96613e-09 1.00031e-08)
(-6.61666e-09 -8.85437e-09 9.76798e-09)
(-4.61142e-08 -7.20816e-09 9.25146e-09)
(5.26162e-08 -1.44788e-08 1.42543e-08)
(8.41044e-09 -1.55727e-08 1.49055e-08)
(1.20624e-09 -1.68946e-08 1.53575e-08)
(-5.6257e-09 -1.6866e-08 1.51461e-08)
(-4.60506e-08 -1.70677e-08 1.47148e-08)
(5.45229e-08 -2.07926e-08 1.92833e-08)
(8.70967e-09 -2.25709e-08 1.98713e-08)
(1.91247e-09 -2.40531e-08 2.03295e-08)
(-4.50495e-09 -2.41334e-08 2.01641e-08)
(-4.64227e-08 -2.39136e-08 1.98506e-08)
(5.95111e-08 -2.50102e-08 2.34886e-08)
(1.05453e-08 -2.89824e-08 2.40311e-08)
(2.73903e-09 -3.11197e-08 2.44899e-08)
(-4.67299e-09 -3.0802e-08 2.43671e-08)
(-4.96017e-08 -2.86303e-08 2.41452e-08)
(7.01262e-08 -2.9718e-08 2.64431e-08)
(1.52804e-08 -3.61634e-08 2.6989e-08)
(3.67232e-09 -3.85566e-08 2.74537e-08)
(-7.52924e-09 -3.82229e-08 2.73568e-08)
(-5.81888e-08 -3.37808e-08 2.71675e-08)
(8.88337e-08 -4.95515e-08 2.78336e-08)
(2.30219e-08 -5.45464e-08 2.84475e-08)
(4.66961e-09 -5.51343e-08 2.89315e-08)
(-1.3261e-08 -5.6642e-08 2.88297e-08)
(-7.47486e-08 -5.37233e-08 2.85966e-08)
(7.259e-08 -9.77835e-08 2.80948e-08)
(2.78441e-08 -1.2404e-07 2.85281e-08)
(5.68179e-09 -1.1894e-07 2.90693e-08)
(-1.60374e-08 -1.24483e-07 2.8899e-08)
(-5.88779e-08 -1.00185e-07 2.876e-08)
(2.21227e-08 6.92877e-09 6.15428e-10)
(0 0 0)
(0 0 0)
(0 0 0)
(-2.02153e-08 6.30529e-09 6.47995e-10)
(4.68506e-08 6.96383e-09 2.79061e-09)
(6.06659e-09 -2.33413e-10 3.00873e-09)
(1.68586e-10 -3.77981e-09 3.141e-09)
(-5.40294e-09 -8.6742e-10 3.07213e-09)
(-4.26169e-08 5.49334e-09 2.90695e-09)
(5.02067e-08 -5.47758e-09 6.0936e-09)
(8.0809e-09 -8.14997e-09 6.35567e-09)
(5.78715e-10 -1.02189e-08 6.54358e-09)
(-6.55728e-09 -9.11502e-09 6.46849e-09)
(-4.50306e-08 -7.4404e-09 6.304e-09)
(5.14957e-08 -1.47964e-08 9.57085e-09)
(8.30051e-09 -1.59333e-08 9.80362e-09)
(1.13352e-09 -1.72441e-08 1.00072e-08)
(-5.66907e-09 -1.71881e-08 9.95674e-09)
(-4.5125e-08 -1.73022e-08 9.8618e-09)
(5.35168e-08 -2.10783e-08 1.28435e-08)
(8.65534e-09 -2.29001e-08 1.30335e-08)
(1.81514e-09 -2.43803e-08 1.32385e-08)
(-4.65214e-09 -2.4425e-08 1.32209e-08)
(-4.56556e-08 -2.41203e-08 1.3205e-08)
(5.8574e-08 -2.52094e-08 1.55676e-08)
(1.05194e-08 -2.91941e-08 1.5732e-08)
(2.6203e-09 -3.13266e-08 1.59378e-08)
(-4.89064e-09 -3.09796e-08 1.59482e-08)
(-4.89402e-08 -2.87593e-08 1.59893e-08)
(6.91744e-08 -2.98385e-08 1.74717e-08)
(1.52351e-08 -3.62612e-08 1.7646e-08)
(3.53552e-09 -3.86518e-08 1.78585e-08)
(-7.76248e-09 -3.8291e-08 1.78836e-08)
(-5.75402e-08 -3.38413e-08 1.79397e-08)
(8.77519e-08 -4.9452e-08 1.84092e-08)
(2.29121e-08 -5.44499e-08 1.86338e-08)
(4.51761e-09 -5.50678e-08 1.88614e-08)
(-1.34588e-08 -5.65203e-08 1.88813e-08)
(-7.39882e-08 -5.35731e-08 1.89041e-08)
(7.18893e-08 -9.69999e-08 1.86199e-08)
(2.77189e-08 -1.22874e-07 1.88094e-08)
(5.51707e-09 -1.1788e-07 1.90667e-08)
(-1.62448e-08 -1.23296e-07 1.90489e-08)
(-5.85093e-08 -9.93627e-08 1.90511e-08)
(2.18189e-08 6.83415e-09 3.25325e-10)
(0 0 0)
(0 0 0)
(0 0 0)
(-1.99297e-08 6.22601e-09 3.4084e-10)
(4.62353e-08 6.82368e-09 1.43501e-09)
(6.01171e-09 -3.09579e-10 1.51711e-09)
(1.57643e-10 -3.81647e-09 1.56872e-09)
(-5.3746e-09 -9.29934e-10 1.54769e-09)
(-4.20524e-08 5.39007e-09 1.49064e-09)
(4.96122e-08 -5.54603e-09 3.07808e-09)
(8.03212e-09 -8.22105e-09 3.17164e-09)
(5.53317e-10 -1.02723e-08 3.24437e-09)
(-6.56426e-09 -9.16578e-09 3.22624e-09)
(-4.45158e-08 -7.46276e-09 3.17918e-09)
(5.09653e-08 -1.48419e-08 4.78689e-09)
(8.28301e-09 -1.60061e-08 4.86364e-09)
(1.09267e-09 -1.73133e-08 4.94186e-09)
(-5.73762e-09 -1.72381e-08 4.93804e-09)
(-4.47029e-08 -1.72983e-08 4.92749e-09)
(5.30488e-08 -2.1128e-08 6.39081e-09)
(8.66743e-09 -2.2973e-08 6.44727e-09)
(1.75957e-09 -2.4452e-08 6.52575e-09)
(-4.77916e-09 -2.44751e-08 6.5387e-09)
(-4.53225e-08 -2.41222e-08 6.5665e-09)
(5.81388e-08 -2.52761e-08 7.72531e-09)
(1.0544e-08 -2.92639e-08 7.77115e-09)
(2.55163e-09 -3.1392e-08 7.85051e-09)
(-5.05581e-09 -3.10285e-08 7.87696e-09)
(-4.86628e-08 -2.87829e-08 7.93119e-09)
(6.87212e-08 -2.99328e-08 8.6622e-09)
(1.52447e-08 -3.63367e-08 8.71512e-09)
(3.45563e-09 -3.87221e-08 8.79873e-09)
(-7.93454e-09 -3.83482e-08 8.8317e-09)
(-5.72624e-08 -3.38984e-08 8.89161e-09)
(8.72147e-08 -4.94694e-08 9.14025e-09)
(2.28821e-08 -5.44581e-08 9.21904e-09)
(4.42823e-09 -5.50853e-08 9.31059e-09)
(-1.36095e-08 -5.6513e-08 9.34061e-09)
(-7.36387e-08 -5.35589e-08 9.38347e-09)
(7.15475e-08 -9.66547e-08 9.26364e-09)
(2.76726e-08 -1.22308e-07 9.33921e-09)
(5.41979e-09 -1.17361e-07 9.44246e-09)
(-1.63948e-08 -1.22717e-07 9.45673e-09)
(-5.83629e-08 -9.89933e-08 9.47554e-09)
(1.74719e-08 7.10571e-09 0)
(2.12476e-09 1.73999e-09 0)
(-7.60413e-13 -4.10166e-10 0)
(-1.98714e-09 1.51879e-09 0)
(-1.60317e-08 6.45955e-09 0)
(2.89325e-08 4.91161e-09 0)
(5.99613e-09 -3.27907e-10 0)
(1.54199e-10 -3.82321e-09 0)
(-5.36739e-09 -9.43805e-10 0)
(-2.63745e-08 3.71612e-09 0)
(3.22172e-08 -5.98265e-09 0)
(8.01929e-09 -8.23027e-09 0)
(5.45227e-10 -1.02767e-08 0)
(-6.56919e-09 -9.16832e-09 0)
(-2.87768e-08 -7.64337e-09 0)
(3.30287e-08 -1.49236e-08 0)
(8.28019e-09 -1.60106e-08 0)
(1.07952e-09 -1.73168e-08 0)
(-5.76247e-09 -1.7235e-08 0)
(-2.84767e-08 -1.70625e-08 0)
(3.43002e-08 -2.15014e-08 0)
(8.67359e-09 -2.29796e-08 0)
(1.74154e-09 -2.44583e-08 0)
(-4.82259e-09 -2.44742e-08 0)
(-2.83494e-08 -2.41109e-08 0)
(3.81247e-08 -2.64422e-08 0)
(1.05534e-08 -2.92789e-08 0)
(2.52919e-09 -3.14053e-08 0)
(-5.11118e-09 -3.10365e-08 0)
(-3.04993e-08 -2.95049e-08 0)
(4.67423e-08 -3.22259e-08 0)
(1.52487e-08 -3.63637e-08 0)
(3.42938e-09 -3.87468e-08 0)
(-7.99189e-09 -3.8369e-08 0)
(-3.72141e-08 -3.57034e-08 0)
(6.16801e-08 -5.19182e-08 0)
(2.28729e-08 -5.44696e-08 0)
(4.39877e-09 -5.50984e-08 0)
(-1.36599e-08 -5.65192e-08 0)
(-5.01087e-08 -5.54972e-08 0)
(6.19903e-08 -8.77039e-08 0)
(2.74647e-08 -9.53228e-08 0)
(5.14012e-09 -9.23538e-08 0)
(-1.6752e-08 -9.65133e-08 0)
(-4.9697e-08 -9.02512e-08 0)
)
;

boundaryField
{
    interface
    {
        type            calculated;
    }
    symmetry
    {
        type            symmetry;
    }
    bottom
    {
        type            calculated;
    }
}


// ************************************************************************* //
