/*--------------------------------*- C++ -*----------------------------------*\
| =========                 |                                                 |
| \\      /  F ield         | OpenFOAM: The Open Source CFD Toolbox           |
|  \\    /   O peration     | Version:  v1912                                 |
|   \\  /    A nd           | Website:  www.openfoam.com                      |
|    \\/     M anipulation  |                                                 |
\*---------------------------------------------------------------------------*/
FoamFile
{
    version     2.0;
    format      ascii;
    class       volScalarField;
    location    "0.64/solid";
    object      sigmaHyd;
}
// * * * * * * * * * * * * * * * * * * * * * * * * * * * * * * * * * * * * * //

dimensions      [1 -1 -2 0 0 0 0];


internalField   nonuniform List<scalar> 
256
(
-716528
-377035
-371968
-684909
-1.02132e+06
-609842
-602681
-981967
-1.05196e+06
-645157
-637611
-1.01134e+06
-1.06545e+06
-658513
-650762
-1.02389e+06
-1.09848e+06
-682050
-674154
-1.05613e+06
-1.17463e+06
-739351
-731319
-1.13159e+06
-1.37907e+06
-914594
-905810
-1.33403e+06
-1.96272e+06
-1.46207e+06
-1.44756e+06
-1.90212e+06
-362704
-103089
-102884
-344676
-560567
-231209
-229567
-536817
-587289
-265575
-263665
-562675
-598404
-279207
-277186
-573115
-620515
-293832
-291744
-594554
-674919
-328810
-326655
-648288
-844138
-459753
-456893
-815413
-1.37967e+06
-914722
-905818
-1.33415e+06
-284312
-59594.9
-59726.5
-267463
-421463
-133610
-132642
-399913
-441008
-159739
-158550
-418735
-451139
-171937
-170642
-428194
-470686
-184270
-182902
-446995
-519105
-213093
-211636
-494553
-675115
-328418
-326207
-648125
-1.17537e+06
-739004
-730747
-1.13134e+06
-264295
-56786.1
-56859.6
-247589
-381084
-114992
-114050
-360074
-396607
-135888
-134752
-374966
-405891
-146419
-145183
-383590
-424582
-157692
-156377
-401486
-470926
-184417
-182997
-446843
-620448
-293041
-290836
-593699
-1.09819e+06
-680310
-672055
-1.0542e+06
-255677
-57362.5
-57385.4
-239034
-365505
-110472
-109518
-344787
-379239
-128663
-127534
-357955
-387822
-137868
-136647
-365892
-405891
-148273
-146974
-383144
-451046
-173843
-172430
-427245
-596781
-279088
-276875
-570182
-1.06108e+06
-654220
-645942
-1.01709e+06
-250479
-57756.9
-57745.3
-233849
-357463
-108819
-107858
-336901
-370436
-125689
-124564
-349350
-378534
-134053
-132843
-356814
-396117
-143836
-142549
-373569
-440495
-168713
-167310
-416858
-583966
-272139
-269926
-557456
-1.04004e+06
-640232
-631943
-996034
-247245
-57903.9
-57869.6
-230607
-352887
-108075
-107107
-332399
-365526
-124322
-123198
-344537
-373330
-132223
-131018
-351717
-390587
-141629
-140350
-368143
-434497
-166118
-164722
-410945
-576676
-268558
-266347
-550211
-1.02789e+06
-632508
-624213
-983865
-245663
-57932.4
-57886.7
-229017
-350730
-107761
-106789
-330270
-363234
-123759
-122635
-342285
-370900
-131457
-130254
-349331
-387998
-140690
-139414
-365597
-431687
-165006
-163612
-408171
-573276
-267004
-264793
-546829
-1.02221e+06
-628992
-620693
-978169
)
;

boundaryField
{
    interface
    {
        type            zeroGradient;
    }
    symmetry
    {
        type            symmetry;
    }
    bottom
    {
        type            zeroGradient;
    }
}


// ************************************************************************* //
