/*--------------------------------*- C++ -*----------------------------------*\
| =========                 |                                                 |
| \\      /  F ield         | OpenFOAM: The Open Source CFD Toolbox           |
|  \\    /   O peration     | Version:  v1912                                 |
|   \\  /    A nd           | Website:  www.openfoam.com                      |
|    \\/     M anipulation  |                                                 |
\*---------------------------------------------------------------------------*/
FoamFile
{
    version     2.0;
    format      ascii;
    class       volScalarField;
    location    "0.64/solid";
    object      sigmaEq;
}
// * * * * * * * * * * * * * * * * * * * * * * * * * * * * * * * * * * * * * //

dimensions      [1 -1 -2 0 0 0 0];


internalField   nonuniform List<scalar> 
256
(
636750
450383
444068
608786
372943
317185
312163
351271
371491
299512
294610
349784
389693
300333
295469
367733
403876
307196
302331
381682
404196
312416
307542
381844
330201
286456
282285
309589
55600.3
323567
320917
58545.7
383432
91719.2
89035.2
354596
283404
90697.8
88305.9
257566
276977
68799.1
66941
251243
280213
47060.7
45856.7
254112
288130
38571.1
38018.2
261512
298266
42471.9
41964.5
271146
280864
34798.7
35750
254251
330239
286951
282778
309580
322144
53746.5
52738.7
294358
271908
53234.3
51198
246365
269075
37850.4
35953.4
243154
272238
23261
22296.8
245737
281249
21925.9
22061.3
254067
296061
26818.8
26399.9
268200
297877
41369.9
41021.8
270646
404624
313449
308593
382277
288476
49255.2
48898.1
262031
252574
46678.1
45658.5
228387
251167
34630.8
33874
226275
254530
26265.6
26629
228827
264167
25297.3
26358.7
237617
280436
24661
24977
253024
287065
34978.5
34879.7
260171
406383
309410
304587
384253
269113
42515.6
42181.4
243468
237186
41825.5
41116
213786
237119
32586.4
32158.6
212905
241365
25576.2
26090.4
216207
252029
23807.3
24828.1
225932
269325
21352.9
21465.7
242277
277940
34337.9
34091.2
251368
398240
303409
298626
376367
258142
36734.4
36267
232941
227352
36928.1
36164.4
204320
228245
28495.7
27956
204360
233442
20723.7
21066.7
208560
245056
18043
18855
219197
263143
16393.1
15863.6
236307
273022
36990.5
36495.6
246683
392094
299232
294463
370384
252134
32446.4
31821.9
227169
221699
32787.9
31870.5
198828
223152
23998.7
23213.1
199412
229028
14640.9
14746.2
204274
241284
11196.3
11860.1
215542
259898
12307.8
10919.1
233179
270616
39568.4
38931.8
244431
388674
296708
291946
367063
249451
30055.6
29323.3
224587
219126
30345
29309
196316
220834
21005.8
20009
197149
227046
9777.64
9648.08
202344
239612
4908.34
5707.2
213921
258484
10022.7
7834.68
231817
269626
40923.6
40232.5
243517
387219
295527
290769
365655
)
;

boundaryField
{
    interface
    {
        type            calculated;
        value           nonuniform List<scalar> 
192
(
814918
527098
529347
554836
576788
585853
523517
287711
619251
488485
485652
499318
518717
540662
533561
523733
543087
469303
471037
484116
504481
531345
540895
586825
493381
437313
441624
454984
475955
504573
519467
580495
463455
412630
418534
432729
454590
484292
501494
566088
446063
396974
403783
418794
441454
471881
490297
555638
436441
388035
395322
410892
434087
464949
484031
549583
432138
383996
391493
407337
430789
461850
481233
546884
828916
541758
544395
570582
593074
602255
540650
311161
705583
538258
524481
535693
553702
570943
556141
534431
695310
529371
515449
526506
544393
561511
547109
528084
795596
516133
518328
543952
566081
575071
515466
304823
770923
487592
489288
514106
535419
543877
482050
253872
570751
443130
439815
452546
470909
491850
484847
482091
496089
424701
425629
437611
456748
482314
491743
544515
448157
394360
397630
409722
429299
456384
470884
538597
419397
370766
375535
388350
408710
436746
453394
524540
402706
355725
361357
374930
396026
424714
442506
514304
393481
347116
353204
367310
388909
417995
436426
508378
389357
343223
349512
363881
385723
414993
433716
505741
311763
541136
603417
597074
582466
571717
565435
562625
534848
557075
572891
557847
543068
532781
526486
523520
528441
547966
563357
548398
533677
523413
517130
514169
305121
515734
576021
569838
555446
544830
538626
535852
)
;
    }
    symmetry
    {
        type            symmetry;
    }
    bottom
    {
        type            calculated;
        value           nonuniform List<scalar> 
32
(
904942
491249
388243
345751
323798
311606
304955
301990
577195
116205
54706.5
50745
45267.8
40209.7
36437.9
34363.8
569776
112481
51989.3
48558
42905.1
37545.1
33466.5
31184.6
870924
459398
357579
316529
295554
283960
277647
274834
)
;
    }
}


// ************************************************************************* //
