/*--------------------------------*- C++ -*----------------------------------*\
| =========                 |                                                 |
| \\      /  F ield         | OpenFOAM: The Open Source CFD Toolbox           |
|  \\    /   O peration     | Version:  v1912                                 |
|   \\  /    A nd           | Website:  www.openfoam.com                      |
|    \\/     M anipulation  |                                                 |
\*---------------------------------------------------------------------------*/
FoamFile
{
    version     2.0;
    format      ascii;
    class       volScalarField;
    location    "0.64/solid";
    object      T;
}
// * * * * * * * * * * * * * * * * * * * * * * * * * * * * * * * * * * * * * //

dimensions      [0 0 0 1 0 0 0];


internalField   nonuniform List<scalar> 
256
(
291.509
292.155
292.163
291.55
291.132
291.921
291.93
291.181
291.074
291.886
291.896
291.125
291.033
291.863
291.873
291.086
290.973
291.828
291.839
291.026
290.862
291.757
291.768
290.915
290.571
291.52
291.532
290.627
289.48
290.438
290.458
289.558
292.231
292.809
292.81
292.254
292.016
292.739
292.74
292.043
291.983
292.729
292.731
292.011
291.961
292.724
292.726
291.989
291.926
292.716
292.718
291.955
291.855
292.69
292.692
291.886
291.624
292.527
292.53
291.656
290.57
291.52
291.532
290.626
292.385
292.904
292.905
292.407
292.215
292.868
292.869
292.239
292.188
292.863
292.863
292.213
292.169
292.86
292.861
292.194
292.137
292.855
292.856
292.164
292.073
292.835
292.836
292.101
291.855
292.69
292.692
291.886
290.86
291.757
291.767
290.915
292.434
292.917
292.918
292.455
292.276
292.886
292.886
292.299
292.251
292.881
292.882
292.274
292.231
292.878
292.879
292.256
292.201
292.874
292.875
292.227
292.137
292.855
292.856
292.164
291.925
292.716
292.718
291.955
290.97
291.827
291.838
291.025
292.458
292.92
292.921
292.478
292.306
292.89
292.891
292.328
292.28
292.885
292.886
292.304
292.261
292.883
292.884
292.285
292.231
292.878
292.879
292.256
292.167
292.86
292.861
292.194
291.959
292.724
292.726
291.989
291.029
291.861
291.872
291.084
292.472
292.922
292.923
292.491
292.322
292.892
292.893
292.344
292.297
292.888
292.888
292.32
292.278
292.885
292.886
292.302
292.247
292.881
292.881
292.272
292.184
292.862
292.863
292.211
291.978
292.728
292.73
292.008
291.065
291.881
291.892
291.119
292.479
292.923
292.923
292.499
292.331
292.893
292.894
292.353
292.307
292.889
292.889
292.329
292.288
292.886
292.887
292.311
292.257
292.882
292.883
292.282
292.194
292.863
292.864
292.22
291.989
292.73
292.732
292.019
291.085
291.892
291.903
291.14
292.483
292.923
292.924
292.502
292.336
292.894
292.894
292.357
292.311
292.889
292.89
292.333
292.292
292.887
292.887
292.315
292.261
292.882
292.883
292.286
292.199
292.864
292.865
292.225
291.994
292.731
292.733
292.024
291.094
291.897
291.908
291.149
)
;

boundaryField
{
    interface
    {
        type            fixedValue;
        value           nonuniform List<scalar> 
192
(
290.146
289.893
289.815
289.736
289.62
289.428
289.044
288.052
290.933
290.777
290.718
290.655
290.559
290.395
290.041
289.042
291.227
291.101
291.049
290.99
290.899
290.739
290.393
289.423
291.369
291.252
291.202
291.144
291.054
290.896
290.555
289.612
291.449
291.336
291.288
291.23
291.14
290.983
290.645
289.723
291.497
291.386
291.338
291.28
291.191
291.034
290.7
289.791
291.524
291.414
291.366
291.309
291.22
291.064
290.731
289.831
291.536
291.427
291.379
291.322
291.233
291.077
290.746
289.849
290.086
289.836
289.757
289.677
289.561
289.368
288.983
287.991
290.746
290.578
290.517
290.453
290.358
290.193
289.835
288.819
290.779
290.614
290.554
290.491
290.396
290.232
289.875
288.867
290.203
289.961
289.887
289.811
289.697
289.507
289.125
288.153
290.31
290.07
289.996
289.921
289.808
289.619
289.239
288.27
291.079
290.929
290.874
290.815
290.723
290.563
290.214
289.239
291.367
291.247
291.199
291.143
291.057
290.902
290.562
289.618
291.505
291.394
291.348
291.294
291.209
291.056
290.722
289.807
291.583
291.475
291.43
291.377
291.292
291.141
290.812
289.917
291.629
291.523
291.479
291.426
291.341
291.191
290.865
289.985
291.655
291.551
291.506
291.453
291.369
291.219
290.896
290.025
291.668
291.563
291.519
291.466
291.382
291.233
290.91
290.043
287.99
288.98
289.363
289.552
289.663
289.732
289.772
289.79
288.818
289.832
290.189
290.351
290.442
290.497
290.529
290.544
288.866
289.873
290.229
290.391
290.482
290.537
290.569
290.584
288.152
289.124
289.504
289.693
289.804
289.872
289.912
289.931
)
;
    }
    symmetry
    {
        type            symmetry;
    }
    bottom
    {
        type            fixedValue;
        value           uniform 293;
    }
}


// ************************************************************************* //
