/*--------------------------------*- C++ -*----------------------------------*\
| =========                 |                                                 |
| \\      /  F ield         | OpenFOAM: The Open Source CFD Toolbox           |
|  \\    /   O peration     | Version:  v1912                                 |
|   \\  /    A nd           | Website:  www.openfoam.com                      |
|    \\/     M anipulation  |                                                 |
\*---------------------------------------------------------------------------*/
FoamFile
{
    version     2.0;
    format      ascii;
    class       volVectorField;
    location    "0.68/solid";
    object      D_0_0;
}
// * * * * * * * * * * * * * * * * * * * * * * * * * * * * * * * * * * * * * //

dimensions      [0 1 0 0 0 0 0];


internalField   nonuniform List<vector> 
256
(
(2.56476e-08 3.73013e-08 2.78124e-08)
(3.11741e-09 2.16898e-08 2.52174e-08)
(-2.83686e-09 2.13887e-08 2.51787e-08)
(-2.46651e-08 3.60152e-08 2.77683e-08)
(4.15666e-08 2.90459e-08 5.27312e-08)
(8.26462e-09 1.97194e-08 4.93163e-08)
(-6.70442e-09 1.92065e-08 4.93681e-08)
(-3.90742e-08 2.73123e-08 5.29691e-08)
(4.37608e-08 1.52579e-08 6.59944e-08)
(9.66716e-09 1.15763e-08 6.23508e-08)
(-6.54582e-09 1.09186e-08 6.25014e-08)
(-3.97202e-08 1.31884e-08 6.65141e-08)
(4.33602e-08 3.24774e-09 7.61963e-08)
(9.79098e-09 1.22228e-09 7.22099e-08)
(-4.95013e-09 4.44657e-10 7.24323e-08)
(-3.76058e-08 8.51936e-10 7.69236e-08)
(4.42411e-08 -8.02788e-09 8.63168e-08)
(1.03838e-08 -1.07384e-08 8.19283e-08)
(-3.67622e-09 -1.1629e-08 8.22007e-08)
(-3.66098e-08 -1.07384e-08 8.71919e-08)
(4.83732e-08 -2.04225e-08 9.79091e-08)
(1.2347e-08 -2.44623e-08 9.31462e-08)
(-3.63167e-09 -2.54668e-08 9.34547e-08)
(-3.87302e-08 -2.34431e-08 9.88926e-08)
(5.78716e-08 -3.96905e-08 1.12112e-07)
(1.62323e-08 -4.29687e-08 1.07359e-07)
(-5.40231e-09 -4.4074e-08 1.07692e-07)
(-4.61272e-08 -4.29913e-08 1.13171e-07)
(7.16515e-08 -8.96148e-08 1.26893e-07)
(2.05038e-08 -8.63615e-08 1.23009e-07)
(-7.57607e-09 -8.73504e-08 1.23351e-07)
(-5.77841e-08 -9.26601e-08 1.27981e-07)
(1.79484e-08 1.7148e-08 5.05322e-09)
(1.5595e-09 4.34439e-09 6.27949e-09)
(-1.35036e-09 4.12518e-09 6.37112e-09)
(-1.70393e-08 1.61016e-08 5.31878e-09)
(2.93524e-08 1.20956e-08 2.04548e-08)
(5.22131e-09 4.28493e-09 2.28393e-08)
(-3.88473e-09 3.79323e-09 2.30392e-08)
(-2.71187e-08 1.04501e-08 2.10344e-08)
(3.06185e-08 3.08843e-09 3.31005e-08)
(6.23892e-09 -1.10086e-10 3.5882e-08)
(-3.48724e-09 -7.75032e-10 3.61667e-08)
(-2.69988e-08 1.03057e-09 3.39264e-08)
(2.99483e-08 -6.47873e-09 4.31311e-08)
(6.28787e-09 -8.34842e-09 4.59683e-08)
(-1.93964e-09 -9.13818e-09 4.63191e-08)
(-2.47396e-08 -8.88224e-09 4.41499e-08)
(3.05848e-08 -1.65551e-08 5.2407e-08)
(6.82164e-09 -1.9201e-08 5.51758e-08)
(-7.04135e-10 -2.01021e-08 5.55757e-08)
(-2.35904e-08 -1.9276e-08 5.35696e-08)
(3.45189e-08 -2.75763e-08 6.20473e-08)
(8.7265e-09 -3.16287e-08 6.47205e-08)
(-6.76273e-10 -3.26412e-08 6.51558e-08)
(-2.55764e-08 -3.06067e-08 6.33137e-08)
(4.41189e-08 -4.297e-08 7.15615e-08)
(1.26072e-08 -4.62102e-08 7.42056e-08)
(-2.496e-09 -4.73214e-08 7.46628e-08)
(-3.3117e-08 -4.62789e-08 7.28929e-08)
(5.85611e-08 -8.34464e-08 7.69553e-08)
(1.69105e-08 -7.93483e-08 7.9649e-08)
(-4.72956e-09 -8.03402e-08 8.01111e-08)
(-4.54624e-08 -8.64914e-08 7.83039e-08)
(1.27774e-08 1.09902e-08 2.41412e-09)
(2.08652e-10 2.32162e-10 4.04234e-09)
(-8.42888e-11 4.23515e-11 4.11247e-09)
(-1.19729e-08 1.00584e-08 2.61426e-09)
(2.08935e-08 3.44105e-09 1.26396e-08)
(2.47332e-09 -3.05215e-09 1.57108e-08)
(-1.37998e-09 -3.50874e-09 1.58724e-08)
(-1.89226e-08 1.9242e-09 1.31028e-08)
(2.15692e-08 -5.19958e-09 2.35667e-08)
(3.12442e-09 -7.94195e-09 2.71028e-08)
(-7.50245e-10 -8.58006e-09 2.73307e-08)
(-1.83461e-08 -7.15662e-09 2.42247e-08)
(2.08442e-08 -1.34744e-08 3.32648e-08)
(3.11864e-09 -1.52484e-08 3.69083e-08)
(7.41219e-10 -1.60192e-08 3.7189e-08)
(-1.61416e-08 -1.58038e-08 3.40791e-08)
(2.14343e-08 -2.18324e-08 4.19431e-08)
(3.61514e-09 -2.44884e-08 4.5587e-08)
(1.9248e-09 -2.53754e-08 4.59094e-08)
(-1.50308e-08 -2.44981e-08 4.2881e-08)
(2.53725e-08 -3.03848e-08 4.98329e-08)
(5.48381e-09 -3.448e-08 5.34449e-08)
(1.91963e-09 -3.5481e-08 5.37985e-08)
(-1.70822e-08 -3.33728e-08 5.08626e-08)
(3.51097e-08 -4.21063e-08 5.59244e-08)
(9.36133e-09 -4.53891e-08 5.94971e-08)
(5.14718e-11 -4.64899e-08 5.98695e-08)
(-2.4801e-08 -4.53799e-08 5.7011e-08)
(4.96779e-08 -7.78253e-08 5.76462e-08)
(1.36719e-08 -7.3746e-08 6.12081e-08)
(-2.22729e-09 -7.47262e-08 6.15832e-08)
(-3.73007e-08 -8.08307e-08 5.87447e-08)
(1.04606e-08 9.09571e-09 2.31508e-09)
(-3.52816e-10 -4.94264e-10 3.3482e-09)
(4.22014e-10 -6.71929e-10 3.39648e-09)
(-9.74347e-09 8.22805e-09 2.45532e-09)
(1.70068e-08 -3.90012e-11 9.89604e-09)
(1.21639e-09 -5.75363e-09 1.18654e-08)
(-3.04346e-10 -6.18173e-09 1.19835e-08)
(-1.52526e-08 -1.45188e-09 1.02377e-08)
(1.74889e-08 -9.44671e-09 1.86019e-08)
(1.68607e-09 -1.19135e-08 2.08687e-08)
(3.91924e-10 -1.25195e-08 2.10379e-08)
(-1.45911e-08 -1.12966e-08 1.90945e-08)
(1.68921e-08 -1.74094e-08 2.69458e-08)
(1.68769e-09 -1.91431e-08 2.92634e-08)
(1.77963e-09 -1.9885e-08 2.94735e-08)
(-1.26077e-08 -1.96448e-08 2.75608e-08)
(1.76062e-08 -2.45582e-08 3.43623e-08)
(2.20379e-09 -2.72418e-08 3.66609e-08)
(2.86542e-09 -2.81046e-08 3.69043e-08)
(-1.16959e-08 -2.71464e-08 3.50777e-08)
(2.16418e-08 -3.12964e-08 4.04822e-08)
(4.07246e-09 -3.54331e-08 4.27492e-08)
(2.79857e-09 -3.64139e-08 4.30183e-08)
(-1.39015e-08 -3.42216e-08 4.12748e-08)
(3.14021e-08 -4.10658e-08 4.44945e-08)
(7.91893e-09 -4.44583e-08 4.67407e-08)
(9.1296e-10 -4.55416e-08 4.70255e-08)
(-2.16843e-08 -4.42868e-08 4.53359e-08)
(4.58203e-08 -7.47965e-08 4.53099e-08)
(1.21874e-08 -7.10985e-08 4.76061e-08)
(-1.36383e-09 -7.20633e-08 4.78923e-08)
(-3.40643e-08 -7.77538e-08 4.61603e-08)
(9.57552e-09 8.32166e-09 2.12787e-09)
(-4.86091e-10 -6.80293e-10 2.64507e-09)
(5.22048e-10 -8.49688e-10 2.67842e-09)
(-8.91867e-09 7.49921e-09 2.22523e-09)
(1.55628e-08 -1.32823e-09 7.87103e-09)
(8.55882e-10 -6.66415e-09 8.85544e-09)
(-6.56803e-11 -7.07069e-09 8.93925e-09)
(-1.39639e-08 -2.66276e-09 8.11415e-09)
(1.60647e-08 -1.11969e-08 1.44037e-08)
(1.27865e-09 -1.3544e-08 1.55262e-08)
(5.88633e-10 -1.4123e-08 1.56479e-08)
(-1.34064e-08 -1.29583e-08 1.47591e-08)
(1.56378e-08 -1.91556e-08 2.08635e-08)
(1.31429e-09 -2.0891e-08 2.19898e-08)
(1.8639e-09 -2.16061e-08 2.21422e-08)
(-1.16677e-08 -2.13063e-08 2.13113e-08)
(1.65037e-08 -2.57308e-08 2.66064e-08)
(1.86486e-09 -2.84428e-08 2.7702e-08)
(2.84976e-09 -2.92815e-08 2.78798e-08)
(-1.09707e-08 -2.82448e-08 2.71317e-08)
(2.06193e-08 -3.16025e-08 3.11239e-08)
(3.73709e-09 -3.57642e-08 3.21949e-08)
(2.72635e-09 -3.67243e-08 3.23927e-08)
(-1.33062e-08 -3.44654e-08 3.17102e-08)
(3.03241e-08 -4.06185e-08 3.38985e-08)
(7.53751e-09 -4.40956e-08 3.49715e-08)
(8.43754e-10 -4.51613e-08 3.51816e-08)
(-2.10712e-08 -4.37876e-08 3.45243e-08)
(4.45479e-08 -7.34233e-08 3.45599e-08)
(1.17531e-08 -7.00564e-08 3.5698e-08)
(-1.41628e-09 -7.10066e-08 3.59089e-08)
(-3.32868e-08 -7.63363e-08 3.51931e-08)
(9.23472e-09 7.94254e-09 1.67821e-09)
(-4.88343e-10 -7.71641e-10 1.91345e-09)
(5.04389e-10 -9.34936e-10 1.93555e-09)
(-8.61592e-09 7.15153e-09 1.74238e-09)
(1.50681e-08 -1.78493e-09 5.76905e-09)
(8.07084e-10 -6.95497e-09 6.208e-09)
(-9.50367e-11 -7.34588e-09 6.26412e-09)
(-1.35707e-08 -3.06344e-09 5.93111e-09)
(1.56516e-08 -1.17662e-08 1.02971e-08)
(1.23557e-09 -1.40767e-08 1.07858e-08)
(4.90676e-10 -1.46355e-08 1.08681e-08)
(-1.3155e-08 -1.3462e-08 1.05363e-08)
(1.53614e-08 -1.97384e-08 1.47956e-08)
(1.30291e-09 -2.14918e-08 1.52709e-08)
(1.67564e-09 -2.21861e-08 1.53745e-08)
(-1.16089e-08 -2.18237e-08 1.50995e-08)
(1.63386e-08 -2.61278e-08 1.87955e-08)
(1.87801e-09 -2.88606e-08 1.9245e-08)
(2.58621e-09 -2.96799e-08 1.93665e-08)
(-1.10721e-08 -2.85823e-08 1.91545e-08)
(2.04952e-08 -3.17314e-08 2.18939e-08)
(3.74709e-09 -3.59006e-08 2.23307e-08)
(2.42372e-09 -3.68437e-08 2.24665e-08)
(-1.34887e-08 -3.4543e-08 2.22971e-08)
(3.01289e-08 -4.0547e-08 2.37864e-08)
(7.50531e-09 -4.40609e-08 2.42362e-08)
(5.4842e-10 -4.51122e-08 2.43809e-08)
(-2.12142e-08 -4.36733e-08 2.42187e-08)
(4.41948e-08 -7.28685e-08 2.43548e-08)
(1.16762e-08 -6.96899e-08 2.48557e-08)
(-1.69636e-09 -7.0628e-08 2.50008e-08)
(-3.32976e-08 -7.57455e-08 2.47926e-08)
(9.08584e-09 7.75724e-09 1.06189e-09)
(-4.73265e-10 -8.15811e-10 1.16196e-09)
(4.78081e-10 -9.75124e-10 1.17462e-09)
(-8.4891e-09 6.98583e-09 1.09841e-09)
(1.48802e-08 -1.92982e-09 3.52076e-09)
(8.18538e-10 -7.03006e-09 3.70205e-09)
(-1.52634e-10 -7.41082e-09 3.73436e-09)
(-1.34431e-08 -3.17241e-09 3.6135e-09)
(1.5531e-08 -1.18852e-08 6.18219e-09)
(1.26006e-09 -1.41899e-08 6.37771e-09)
(3.8044e-10 -1.47355e-08 6.42527e-09)
(-1.31326e-08 -1.35383e-08 6.31989e-09)
(1.53262e-08 -1.98499e-08 8.81462e-09)
(1.34718e-09 -2.162e-08 8.99779e-09)
(1.50708e-09 -2.23003e-08 9.05794e-09)
(-1.17088e-08 -2.18915e-08 8.9906e-09)
(1.63669e-08 -2.62116e-08 1.11539e-08)
(1.93434e-09 -2.89562e-08 1.1322e-08)
(2.37109e-09 -2.97623e-08 1.13929e-08)
(-1.12687e-08 -2.86256e-08 1.13628e-08)
(2.0539e-08 -3.17914e-08 1.29638e-08)
(3.79724e-09 -3.59587e-08 1.31274e-08)
(2.1854e-09 -3.689e-08 1.32069e-08)
(-1.37288e-08 -3.45676e-08 1.31995e-08)
(3.01184e-08 -4.05978e-08 1.40842e-08)
(7.52604e-09 -4.41188e-08 1.42601e-08)
(3.14954e-10 -4.516e-08 1.43449e-08)
(-2.14227e-08 -4.36941e-08 1.43378e-08)
(4.40799e-08 -7.26709e-08 1.44737e-08)
(1.16663e-08 -6.95757e-08 1.46797e-08)
(-1.91974e-09 -7.05054e-08 1.47648e-08)
(-3.34203e-08 -7.55227e-08 1.47308e-08)
(9.02328e-09 7.68186e-09 3.62267e-10)
(-4.65346e-10 -8.31498e-10 3.90245e-10)
(4.65119e-10 -9.88861e-10 3.94375e-10)
(-8.43665e-09 6.91981e-09 3.74123e-10)
(1.48052e-08 -1.96552e-09 1.18296e-09)
(8.26981e-10 -7.03951e-09 1.23261e-09)
(-1.82421e-10 -7.41527e-09 1.24316e-09)
(-1.3396e-08 -3.19063e-09 1.21314e-09)
(1.54891e-08 -1.18847e-08 2.06092e-09)
(1.27545e-09 -1.41901e-08 2.11328e-09)
(3.24673e-10 -1.47292e-08 2.12885e-09)
(-1.31369e-08 -1.35167e-08 2.10585e-09)
(1.53233e-08 -1.98393e-08 2.92584e-09)
(1.37122e-09 -2.16183e-08 2.97365e-09)
(1.42364e-09 -2.22917e-08 2.99338e-09)
(-1.17703e-08 -2.18593e-08 2.98343e-09)
(1.63914e-08 -2.62098e-08 3.69401e-09)
(1.96268e-09 -2.89592e-08 3.73708e-09)
(2.26596e-09 -2.97586e-08 3.76036e-09)
(-1.13743e-08 -2.86033e-08 3.76258e-09)
(2.05677e-08 -3.18146e-08 4.28936e-09)
(3.82125e-09 -3.59786e-08 4.33158e-09)
(2.06955e-09 -3.69039e-08 4.35773e-09)
(-1.3853e-08 -3.45727e-08 4.36691e-09)
(3.01192e-08 -4.06444e-08 4.66184e-09)
(7.53542e-09 -4.41634e-08 4.70882e-09)
(2.01071e-10 -4.51995e-08 4.73677e-09)
(-2.15309e-08 -4.37254e-08 4.7454e-09)
(4.40295e-08 -7.26133e-08 4.80011e-09)
(1.16602e-08 -6.95466e-08 4.85683e-09)
(-2.02876e-09 -7.0472e-08 4.88486e-09)
(-3.34869e-08 -7.54522e-08 4.88486e-09)
)
;

boundaryField
{
    interface
    {
        type            solidTraction;
        traction        uniform (0 0 0);
        pressure        uniform 0;
        secondOrder     false;
        setEffectiveTraction false;
        relaxationFactor 1;
        value           nonuniform List<vector> 
192
(
(8.37605e-08 5.41048e-08 2.56775e-08)
(9.59902e-08 3.35742e-08 4.92273e-08)
(9.93037e-08 1.57063e-08 6.22189e-08)
(1.00611e-07 3.36788e-09 7.2388e-08)
(1.03599e-07 -6.77451e-09 8.24941e-08)
(1.10541e-07 -1.70147e-08 9.40829e-08)
(1.23687e-07 -3.38706e-08 1.08318e-07)
(1.4421e-07 -8.55617e-08 1.23174e-07)
(6.63682e-08 2.89732e-08 1.83546e-09)
(7.52455e-08 1.52631e-08 1.52861e-08)
(7.71556e-08 3.23742e-09 2.75521e-08)
(7.77967e-08 -6.48707e-09 3.75016e-08)
(8.03449e-08 -1.54123e-08 4.67049e-08)
(8.71448e-08 -2.41925e-08 5.62968e-08)
(1.00973e-07 -3.69591e-08 6.58707e-08)
(1.24412e-07 -7.93134e-08 7.14616e-08)
(5.51963e-08 1.94078e-08 5.41979e-10)
(6.21678e-08 5.63896e-09 9.5529e-09)
(6.3563e-08 -5.21189e-09 2.02839e-08)
(6.40708e-08 -1.3508e-08 3.00004e-08)
(6.65532e-08 -2.07002e-08 3.86982e-08)
(7.34718e-08 -2.69657e-08 4.66133e-08)
(8.77813e-08 -3.60295e-08 5.27449e-08)
(1.1194e-07 -7.36471e-08 5.44607e-08)
(4.92698e-08 1.59625e-08 1.5145e-09)
(5.51346e-08 1.71807e-09 8.56318e-09)
(5.64341e-08 -9.47534e-09 1.72256e-08)
(5.70856e-08 -1.73799e-08 2.5644e-08)
(5.97137e-08 -2.33706e-08 3.31295e-08)
(6.67952e-08 -2.78471e-08 3.92937e-08)
(8.127e-08 -3.50207e-08 4.3298e-08)
(1.05387e-07 -7.06048e-08 4.40272e-08)
(4.62632e-08 1.46062e-08 1.82133e-09)
(5.16962e-08 2.94062e-10 7.38622e-09)
(5.30702e-08 -1.11781e-08 1.39442e-08)
(5.39264e-08 -1.90457e-08 2.04807e-08)
(5.67386e-08 -2.44853e-08 2.62894e-08)
(6.39373e-08 -2.81471e-08 3.08371e-08)
(7.83991e-08 -3.46359e-08 3.358e-08)
(1.02265e-07 -6.9241e-08 3.41535e-08)
(4.46819e-08 1.40182e-08 1.55575e-09)
(5.00015e-08 -1.80719e-10 5.59832e-09)
(5.14854e-08 -1.16928e-08 1.01636e-08)
(5.25075e-08 -1.95665e-08 1.47176e-08)
(5.54576e-08 -2.48441e-08 1.87612e-08)
(6.27159e-08 -2.82834e-08 2.18737e-08)
(7.71084e-08 -3.46216e-08 2.37349e-08)
(1.00735e-07 -6.87075e-08 2.42377e-08)
(4.38396e-08 1.37487e-08 1.009e-09)
(4.91368e-08 -3.18523e-10 3.45499e-09)
(5.07026e-08 -1.17737e-08 6.14151e-09)
(5.18287e-08 -1.96407e-08 8.80502e-09)
(5.48592e-08 -2.49082e-08 1.1167e-08)
(6.21406e-08 -2.83532e-08 1.29818e-08)
(7.64694e-08 -3.47121e-08 1.40817e-08)
(9.99297e-08 -6.85308e-08 1.44324e-08)
(4.34646e-08 1.3639e-08 3.4662e-10)
(4.87562e-08 -3.49078e-10 1.16419e-09)
(5.03613e-08 -1.17551e-08 2.05041e-09)
(5.15353e-08 -1.96136e-08 2.92508e-09)
(5.46009e-08 -2.48985e-08 3.7001e-09)
(6.1889e-08 -2.83823e-08 4.29651e-09)
(7.61829e-08 -3.47785e-08 4.66204e-09)
(9.95604e-08 -6.84855e-08 4.78751e-09)
(2.60669e-08 5.74374e-08 8.76963e-08)
(4.24659e-08 3.85916e-08 1.08659e-07)
(4.47389e-08 2.11243e-08 1.23056e-07)
(4.42691e-08 8.32844e-09 1.35075e-07)
(4.50566e-08 -2.59958e-09 1.47383e-07)
(4.90969e-08 -1.39737e-08 1.61769e-07)
(5.85818e-08 -3.24445e-08 1.79545e-07)
(7.25412e-08 -8.57157e-08 2.01037e-07)
(2.45938e-09 4.03233e-08 7.89135e-08)
(7.42459e-09 2.90028e-08 9.93332e-08)
(8.79477e-09 1.72998e-08 1.12699e-07)
(8.85087e-09 6.11672e-09 1.23856e-07)
(9.3557e-09 -5.50428e-09 1.35475e-07)
(1.12343e-08 -1.81047e-08 1.49391e-07)
(1.51284e-08 -3.55029e-08 1.6757e-07)
(1.96195e-08 -8.23135e-08 1.92244e-07)
(-2.19874e-09 4.00255e-08 7.80925e-08)
(-5.79046e-09 2.85373e-08 9.86199e-08)
(-5.50411e-09 1.66848e-08 1.12056e-07)
(-3.77078e-09 5.36952e-09 1.23264e-07)
(-2.35937e-09 -6.37336e-09 1.34917e-07)
(-2.19414e-09 -1.90939e-08 1.48855e-07)
(-3.94815e-09 -3.66e-08 1.67047e-07)
(-6.33185e-09 -8.32992e-08 1.9175e-07)
(-2.50722e-08 5.61997e-08 8.54374e-08)
(-3.98651e-08 3.69989e-08 1.06767e-07)
(-4.05013e-08 1.91771e-08 1.21363e-07)
(-3.82514e-08 6.02142e-09 1.33528e-07)
(-3.71143e-08 -5.24616e-09 1.4594e-07)
(-3.91081e-08 -1.69483e-08 1.60397e-07)
(-4.64674e-08 -3.57192e-08 1.7822e-07)
(-5.82921e-08 -8.87516e-08 1.9983e-07)
(-7.9071e-08 5.19502e-08 2.56585e-08)
(-8.97321e-08 3.10763e-08 4.9585e-08)
(-9.14195e-08 1.28214e-08 6.29435e-08)
(-9.0933e-08 7.43556e-11 7.33846e-08)
(-9.1973e-08 -1.04573e-08 8.36852e-08)
(-9.68485e-08 -2.10639e-08 9.54155e-08)
(-1.07871e-07 -3.8228e-08 1.09749e-07)
(-1.26243e-07 -8.96609e-08 1.24647e-07)
(-6.17562e-08 2.71411e-08 2.14567e-09)
(-6.93296e-08 1.294e-08 1.59965e-08)
(-6.97871e-08 4.35829e-10 2.85828e-08)
(-6.87527e-08 -9.73438e-09 3.87838e-08)
(-6.94247e-08 -1.90668e-08 4.81749e-08)
(-7.41885e-08 -2.82251e-08 5.79017e-08)
(-8.5899e-08 -4.13075e-08 6.75614e-08)
(-1.07214e-07 -8.34027e-08 7.31832e-08)
(-5.08084e-08 1.77823e-08 7.90286e-10)
(-5.66174e-08 3.51754e-09 1.01363e-08)
(-5.669e-08 -7.85185e-09 2.11227e-08)
(-5.56278e-08 -1.66326e-08 3.10461e-08)
(-5.63067e-08 -2.4263e-08 3.99074e-08)
(-6.12263e-08 -3.09303e-08 4.79439e-08)
(-7.3423e-08 -4.03252e-08 5.4153e-08)
(-9.54514e-08 -7.76827e-08 5.58954e-08)
(-4.50771e-08 1.44771e-08 1.69175e-09)
(-4.99025e-08 -2.39958e-10 8.998e-09)
(-4.99849e-08 -1.19579e-08 1.78596e-08)
(-4.91555e-08 -2.03686e-08 2.64423e-08)
(-5.00468e-08 -2.6823e-08 3.40627e-08)
(-5.51702e-08 -3.17246e-08 4.03309e-08)
(-6.75462e-08 -3.92461e-08 4.44035e-08)
(-8.95299e-08 -7.45767e-08 4.51569e-08)
(-4.22064e-08 1.32199e-08 1.94334e-09)
(-4.66931e-08 -1.54082e-09 7.69371e-09)
(-4.6932e-08 -1.35323e-08 1.44001e-08)
(-4.63783e-08 -2.19152e-08 2.10617e-08)
(-4.75106e-08 -2.78352e-08 2.69757e-08)
(-5.27908e-08 -3.19403e-08 3.16071e-08)
(-6.5175e-08 -3.87924e-08 3.44069e-08)
(-8.69149e-08 -7.31539e-08 3.50015e-08)
(-4.07105e-08 1.26982e-08 1.63498e-09)
(-4.51464e-08 -1.92868e-09 5.80092e-09)
(-4.55537e-08 -1.39525e-08 1.04679e-08)
(-4.52189e-08 -2.23444e-08 1.51098e-08)
(-4.65333e-08 -2.81123e-08 1.9229e-08)
(-5.19067e-08 -3.20075e-08 2.24028e-08)
(-6.42431e-08 -3.8721e-08 2.43066e-08)
(-8.57551e-08 -7.25718e-08 2.4826e-08)
(-3.99177e-08 1.24689e-08 1.05359e-09)
(-4.43689e-08 -2.01153e-09 3.56982e-09)
(-4.4895e-08 -1.39719e-08 6.3154e-09)
(-4.46993e-08 -2.23575e-08 9.03098e-09)
(-4.61244e-08 -2.81205e-08 1.14384e-08)
(-5.1545e-08 -3.2029e-08 1.32906e-08)
(-6.38345e-08 -3.87712e-08 1.4417e-08)
(-8.51908e-08 -7.23609e-08 1.47781e-08)
(-3.95653e-08 1.2378e-08 3.61011e-10)
(-4.40285e-08 -2.01557e-09 1.20136e-09)
(-4.46118e-08 -1.39232e-08 2.10692e-09)
(-4.44813e-08 -2.22999e-08 2.99882e-09)
(-4.59569e-08 -2.80826e-08 3.789e-09)
(-5.13967e-08 -3.20336e-08 4.39797e-09)
(-6.36602e-08 -3.88168e-08 4.77246e-09)
(-8.49397e-08 -7.2298e-08 4.90154e-09)
(7.28662e-08 -1.63803e-07 1.273e-07)
(5.96044e-08 -1.50944e-07 7.40079e-08)
(5.07486e-08 -1.41798e-07 5.54836e-08)
(4.6993e-08 -1.36109e-07 4.42094e-08)
(4.57987e-08 -1.32868e-07 3.40779e-08)
(4.54821e-08 -1.311e-07 2.41667e-08)
(4.53776e-08 -1.30185e-07 1.44099e-08)
(4.53282e-08 -1.29796e-07 4.78571e-09)
(1.99389e-08 -1.55639e-07 1.2328e-07)
(1.6135e-08 -1.39629e-07 7.64951e-08)
(1.2898e-08 -1.30118e-07 5.91457e-08)
(1.1505e-08 -1.24894e-07 4.66838e-08)
(1.11498e-08 -1.22157e-07 3.53459e-08)
(1.1117e-08 -1.20706e-07 2.47355e-08)
(1.11258e-08 -1.19946e-07 1.46439e-08)
(1.11258e-08 -1.19615e-07 4.84957e-09)
(-6.00027e-09 -1.55786e-07 1.23624e-07)
(-2.94279e-09 -1.39754e-07 7.69551e-08)
(-4.55161e-10 -1.30238e-07 5.9514e-08)
(3.00942e-10 -1.25005e-07 4.69624e-08)
(1.54642e-10 -1.22257e-07 3.55501e-08)
(-1.81503e-10 -1.20796e-07 2.48756e-08)
(-4.32048e-10 -1.20028e-07 1.47258e-08)
(-5.5143e-10 -1.19693e-07 4.87652e-09)
(-5.79549e-08 -1.64531e-07 1.28394e-07)
(-4.54678e-08 -1.51571e-07 7.53467e-08)
(-3.73475e-08 -1.424e-07 5.65604e-08)
(-3.42292e-08 -1.36678e-07 4.50368e-08)
(-3.35445e-08 -1.33401e-07 3.46911e-08)
(-3.3604e-08 -1.31601e-07 2.45893e-08)
(-3.37457e-08 -1.30664e-07 1.46574e-08)
(-3.38179e-08 -1.30263e-07 4.86723e-09)
)
;
        gradient        uniform (0 0 0);
    }
    symmetry
    {
        type            solidSymmetry;
        patchType       symmetry;
        secondOrder     false;
        value           nonuniform List<vector> 
32
(
(9.02328e-09 7.68186e-09 0)
(1.48052e-08 -1.96552e-09 0)
(1.54891e-08 -1.18847e-08 0)
(1.53233e-08 -1.98393e-08 0)
(1.63914e-08 -2.62098e-08 0)
(2.05677e-08 -3.18146e-08 0)
(3.01192e-08 -4.06444e-08 0)
(4.40295e-08 -7.26133e-08 0)
(-4.65346e-10 -8.31498e-10 0)
(8.26981e-10 -7.03951e-09 0)
(1.27545e-09 -1.41901e-08 0)
(1.37122e-09 -2.16183e-08 0)
(1.96268e-09 -2.89592e-08 0)
(3.82125e-09 -3.59786e-08 0)
(7.53542e-09 -4.41634e-08 0)
(1.16602e-08 -6.95466e-08 0)
(4.65119e-10 -9.88861e-10 0)
(-1.82421e-10 -7.41527e-09 0)
(3.24673e-10 -1.47292e-08 0)
(1.42364e-09 -2.22917e-08 0)
(2.26596e-09 -2.97586e-08 0)
(2.06955e-09 -3.69039e-08 0)
(2.01071e-10 -4.51995e-08 0)
(-2.02876e-09 -7.0472e-08 0)
(-8.43665e-09 6.91981e-09 0)
(-1.3396e-08 -3.19063e-09 0)
(-1.31369e-08 -1.35167e-08 0)
(-1.17703e-08 -2.18593e-08 0)
(-1.13743e-08 -2.86033e-08 0)
(-1.3853e-08 -3.45727e-08 0)
(-2.15309e-08 -4.37254e-08 0)
(-3.34869e-08 -7.54522e-08 0)
)
;
    }
    bottom
    {
        type            fixedDisplacement;
        value           uniform (0 0 0);
    }
}


// ************************************************************************* //
