/*--------------------------------*- C++ -*----------------------------------*\
| =========                 |                                                 |
| \\      /  F ield         | OpenFOAM: The Open Source CFD Toolbox           |
|  \\    /   O peration     | Version:  v1912                                 |
|   \\  /    A nd           | Website:  www.openfoam.com                      |
|    \\/     M anipulation  |                                                 |
\*---------------------------------------------------------------------------*/
FoamFile
{
    version     2.0;
    format      ascii;
    class       volVectorField;
    location    "0.68/solid";
    object      DD_0;
}
// * * * * * * * * * * * * * * * * * * * * * * * * * * * * * * * * * * * * * //

dimensions      [0 1 0 0 0 0 0];


internalField   nonuniform List<vector> 
256
(
(2.48297e-10 2.5462e-10 2.96464e-10)
(5.71943e-11 1.57195e-10 2.77885e-10)
(-7.03102e-11 1.5171e-10 2.71358e-10)
(-2.43354e-10 2.3484e-10 2.76595e-10)
(4.53439e-10 2.09203e-10 6.81243e-10)
(1.16553e-10 1.25654e-10 6.52679e-10)
(-1.44699e-10 1.23131e-10 6.39625e-10)
(-4.56453e-10 2.03631e-10 6.41333e-10)
(4.94656e-10 1.83204e-11 9.50847e-10)
(1.2579e-10 -1.89044e-11 9.15727e-10)
(-1.71146e-10 -1.63124e-11 8.9898e-10)
(-5.14455e-10 2.93385e-11 8.99635e-10)
(4.83457e-10 -1.95303e-10 1.1781e-09)
(1.12115e-10 -2.13681e-10 1.13347e-09)
(-1.80901e-10 -2.05979e-10 1.11409e-09)
(-5.26387e-10 -1.6949e-10 1.11884e-09)
(4.80923e-10 -4.26224e-10 1.40297e-09)
(9.94415e-11 -4.51678e-10 1.34649e-09)
(-1.98407e-10 -4.39162e-10 1.32484e-09)
(-5.53534e-10 -3.8668e-10 1.33685e-09)
(5.29243e-10 -7.06602e-10 1.64987e-09)
(1.0513e-10 -7.44159e-10 1.58254e-09)
(-2.41435e-10 -7.26877e-10 1.55871e-09)
(-6.3857e-10 -6.53425e-10 1.5772e-09)
(6.58013e-10 -1.12115e-09 1.92236e-09)
(1.37247e-10 -1.13914e-09 1.85599e-09)
(-3.19311e-10 -1.11645e-09 1.82988e-09)
(-8.11305e-10 -1.05235e-09 1.84303e-09)
(8.10955e-10 -1.71441e-09 2.14385e-09)
(1.69693e-10 -1.66517e-09 2.09836e-09)
(-4.07985e-10 -1.63391e-09 2.07015e-09)
(-1.01566e-09 -1.61968e-09 2.05877e-09)
(1.54323e-10 8.89292e-11 1.20446e-10)
(3.36508e-11 1.01864e-11 1.36524e-10)
(-3.89361e-11 8.23175e-12 1.33743e-10)
(-1.4415e-10 7.71769e-11 1.12199e-10)
(2.90406e-10 -6.45225e-12 3.79808e-10)
(7.24017e-11 -7.41392e-11 4.11938e-10)
(-8.21729e-11 -7.38579e-11 4.04309e-10)
(-2.79245e-10 -6.43924e-12 3.57559e-10)
(3.14659e-10 -1.78062e-10 6.19041e-10)
(7.74758e-11 -2.08006e-10 6.55163e-10)
(-9.69866e-11 -2.03808e-10 6.44206e-10)
(-3.13432e-10 -1.64354e-10 5.86965e-10)
(2.99402e-10 -3.72233e-10 8.34441e-10)
(6.47472e-11 -3.87818e-10 8.68484e-10)
(-1.01907e-10 -3.79209e-10 8.5512e-10)
(-3.15888e-10 -3.45272e-10 7.95049e-10)
(2.93538e-10 -5.86011e-10 1.04227e-09)
(5.32354e-11 -6.11176e-10 1.07179e-09)
(-1.15781e-10 -5.98117e-10 1.05636e-09)
(-3.35094e-10 -5.46083e-10 9.96573e-10)
(3.40022e-10 -8.32955e-10 1.25217e-09)
(6.01781e-11 -8.72796e-10 1.27688e-09)
(-1.55855e-10 -8.5526e-10 1.25949e-09)
(-4.14108e-10 -7.80028e-10 1.20051e-09)
(4.77134e-10 -1.16864e-09 1.44549e-09)
(9.56479e-11 -1.18647e-09 1.46771e-09)
(-2.33292e-10 -1.16411e-09 1.44858e-09)
(-5.91165e-10 -1.10144e-09 1.38848e-09)
(6.5366e-10 -1.64499e-09 1.5506e-09)
(1.32804e-10 -1.57458e-09 1.5727e-09)
(-3.23386e-10 -1.54489e-09 1.5528e-09)
(-8.15161e-10 -1.55464e-09 1.49094e-09)
(7.89455e-11 2.54971e-11 5.94983e-11)
(1.1964e-11 -3.20436e-11 8.3828e-11)
(-1.37845e-11 -3.3553e-11 8.19383e-11)
(-6.60453e-11 1.37783e-11 5.41327e-11)
(1.54239e-10 -1.14637e-10 2.39502e-10)
(2.95557e-11 -1.65147e-10 2.85992e-10)
(-2.93015e-11 -1.64546e-10 2.80707e-10)
(-1.34353e-10 -1.15437e-10 2.24542e-10)
(1.64302e-10 -2.94407e-10 4.4009e-10)
(2.98771e-11 -3.17679e-10 4.92923e-10)
(-3.338e-11 -3.1356e-10 4.84967e-10)
(-1.48666e-10 -2.82432e-10 4.17323e-10)
(1.48207e-10 -4.77834e-10 6.35271e-10)
(1.81673e-11 -4.92638e-10 6.87938e-10)
(-3.40974e-11 -4.8447e-10 6.77859e-10)
(-1.45266e-10 -4.53329e-10 6.06079e-10)
(1.42979e-10 -6.65149e-10 8.19489e-10)
(8.18378e-12 -6.92034e-10 8.69888e-10)
(-4.50162e-11 -6.79685e-10 8.57959e-10)
(-1.60705e-10 -6.282e-10 7.84626e-10)
(1.91203e-10 -8.64552e-10 9.85761e-10)
(1.66695e-11 -9.07228e-10 1.03335e-09)
(-8.27709e-11 -8.90674e-10 1.01975e-09)
(-2.37516e-10 -8.15165e-10 9.45733e-10)
(3.3385e-10 -1.12752e-09 1.10743e-09)
(5.47586e-11 -1.14752e-09 1.15203e-09)
(-1.59452e-10 -1.12651e-09 1.13716e-09)
(-4.16475e-10 -1.06465e-09 1.0633e-09)
(5.18682e-10 -1.52472e-09 1.13614e-09)
(9.49582e-11 -1.45286e-09 1.17813e-09)
(-2.49468e-10 -1.42488e-09 1.16305e-09)
(-6.4531e-10 -1.43942e-09 1.09079e-09)
(4.42871e-11 1.45562e-12 4.70483e-11)
(2.14041e-12 -4.18964e-11 6.39357e-11)
(-2.34717e-12 -4.3625e-11 6.25239e-11)
(-2.97202e-11 -1.14694e-11 4.31391e-11)
(9.03365e-11 -1.57273e-10 1.84719e-10)
(9.3018e-12 -1.96567e-10 2.16566e-10)
(-3.51829e-12 -1.96593e-10 2.12747e-10)
(-6.49577e-11 -1.60711e-10 1.7409e-10)
(9.49527e-11 -3.44945e-10 3.45378e-10)
(7.97899e-12 -3.64441e-10 3.8107e-10)
(-1.62636e-12 -3.61189e-10 3.75257e-10)
(-6.96301e-11 -3.36273e-10 3.28948e-10)
(8.19921e-11 -5.21793e-10 5.0797e-10)
(-1.53993e-12 -5.37125e-10 5.42886e-10)
(-2.89569e-13 -5.30001e-10 5.35362e-10)
(-6.52199e-11 -5.00983e-10 4.86371e-10)
(8.14022e-11 -6.86706e-10 6.58651e-10)
(-8.81199e-12 -7.15652e-10 6.91371e-10)
(-1.00464e-11 -7.04497e-10 6.8231e-10)
(-8.14493e-11 -6.53741e-10 6.32333e-10)
(1.33614e-10 -8.50323e-10 7.82688e-10)
(1.77516e-12 -8.95501e-10 8.13099e-10)
(-4.64866e-11 -8.80282e-10 8.02691e-10)
(-1.58759e-10 -8.05181e-10 7.52159e-10)
(2.77519e-10 -1.07121e-09 8.5725e-10)
(4.08334e-11 -1.09538e-09 8.85706e-10)
(-1.21128e-10 -1.07581e-09 8.74366e-10)
(-3.35802e-10 -1.01275e-09 8.23577e-10)
(4.60172e-10 -1.43247e-09 8.57982e-10)
(8.14833e-11 -1.37023e-09 8.86132e-10)
(-2.08805e-10 -1.34367e-09 8.74745e-10)
(-5.5951e-10 -1.35143e-09 8.23593e-10)
(3.27189e-11 -7.27953e-12 4.0658e-11)
(-2.27669e-13 -4.37733e-11 4.92873e-11)
(8.69311e-13 -4.57394e-11 4.82676e-11)
(-1.7108e-11 -2.11942e-11 3.78757e-11)
(7.00376e-11 -1.69368e-10 1.46859e-10)
(4.49981e-12 -2.03635e-10 1.62569e-10)
(4.52987e-12 -2.04368e-10 1.5986e-10)
(-4.1205e-11 -1.75252e-10 1.3941e-10)
(7.51653e-11 -3.57456e-10 2.68836e-10)
(3.97349e-12 -3.75999e-10 2.85649e-10)
(8.59779e-12 -3.73711e-10 2.81518e-10)
(-4.3499e-11 -3.51981e-10 2.57274e-10)
(6.6703e-11 -5.28207e-10 3.93121e-10)
(-2.97976e-12 -5.44923e-10 4.08518e-10)
(1.05552e-11 -5.38898e-10 4.03111e-10)
(-4.04627e-11 -5.10952e-10 3.77716e-10)
(7.12737e-11 -6.78572e-10 5.06275e-10)
(-7.48216e-12 -7.09497e-10 5.19582e-10)
(1.12388e-12 -6.99522e-10 5.12997e-10)
(-5.8773e-11 -6.49335e-10 4.87249e-10)
(1.26919e-10 -8.22622e-10 5.93863e-10)
(4.96005e-12 -8.69722e-10 6.054e-10)
(-3.43345e-11 -8.55726e-10 5.97791e-10)
(-1.36641e-10 -7.81258e-10 5.71608e-10)
(2.69921e-10 -1.02501e-09 6.4017e-10)
(4.41499e-11 -1.05274e-09 6.50801e-10)
(-1.06564e-10 -1.03437e-09 6.42505e-10)
(-3.1015e-10 -9.70207e-10 6.1555e-10)
(4.48249e-10 -1.37123e-09 6.34803e-10)
(8.4428e-11 -1.31826e-09 6.46288e-10)
(-1.91549e-10 -1.29279e-09 6.37982e-10)
(-5.27122e-10 -1.2935e-09 6.09678e-10)
(2.9788e-11 -1.00619e-11 3.16993e-11)
(-2.9864e-14 -4.37524e-11 3.54742e-11)
(1.13843e-12 -4.58892e-11 3.479e-11)
(-1.35396e-11 -2.46493e-11 2.98493e-11)
(6.63412e-11 -1.69481e-10 1.08079e-10)
(5.32072e-12 -2.02205e-10 1.14429e-10)
(5.64567e-12 -2.03479e-10 1.12623e-10)
(-3.53749e-11 -1.77148e-10 1.03156e-10)
(7.39759e-11 -3.53617e-10 1.93312e-10)
(6.34553e-12 -3.72652e-10 1.99392e-10)
(1.01127e-11 -3.71137e-10 1.96636e-10)
(-3.82791e-11 -3.50598e-10 1.85659e-10)
(6.94793e-11 -5.18642e-10 2.79399e-10)
(1.56057e-12 -5.36895e-10 2.84054e-10)
(1.2122e-11 -5.31763e-10 2.80426e-10)
(-3.70287e-11 -5.04188e-10 2.6913e-10)
(7.79794e-11 -6.60838e-10 3.56547e-10)
(-8.24093e-13 -6.93341e-10 3.5959e-10)
(2.84372e-12 -6.84311e-10 3.55143e-10)
(-5.70111e-11 -6.34533e-10 3.43755e-10)
(1.35826e-10 -7.96339e-10 4.14188e-10)
(1.29278e-11 -8.44694e-10 4.16077e-10)
(-3.17636e-11 -8.31646e-10 4.10912e-10)
(-1.34903e-10 -7.57886e-10 3.99124e-10)
(2.77554e-10 -9.92109e-10 4.42702e-10)
(5.20674e-11 -1.02201e-09 4.44278e-10)
(-1.0197e-10 -1.00453e-09 4.38637e-10)
(-3.05126e-10 -9.4005e-10 4.25977e-10)
(4.52305e-10 -1.3314e-09 4.37739e-10)
(9.19673e-11 -1.28433e-09 4.40221e-10)
(-1.84801e-10 -1.25966e-09 4.34574e-10)
(-5.1669e-10 -1.25611e-09 4.20659e-10)
(2.9249e-11 -1.06274e-11 2.00683e-11)
(5.10943e-13 -4.32479e-11 2.15558e-11)
(8.43831e-13 -4.54928e-11 2.11635e-11)
(-1.26367e-11 -2.56298e-11 1.90133e-11)
(6.67226e-11 -1.66362e-10 6.62192e-11)
(6.85507e-12 -1.9887e-10 6.8431e-11)
(5.20469e-12 -2.00493e-10 6.73975e-11)
(-3.4521e-11 -1.75157e-10 6.34173e-11)
(7.65539e-11 -3.46088e-10 1.16518e-10)
(9.14287e-12 -3.65896e-10 1.18215e-10)
(9.58364e-12 -3.64894e-10 1.16637e-10)
(-3.8477e-11 -3.44669e-10 1.12157e-10)
(7.4735e-11 -5.06753e-10 1.66742e-10)
(5.80772e-12 -5.2619e-10 1.67463e-10)
(1.15332e-11 -5.21659e-10 1.65379e-10)
(-3.85387e-11 -4.94162e-10 1.60867e-10)
(8.56621e-11 -6.44791e-10 2.11232e-10)
(4.75692e-12 -6.78335e-10 2.1098e-10)
(2.39432e-12 -6.69943e-10 2.08415e-10)
(-5.94845e-11 -6.20449e-10 2.03878e-10)
(1.44728e-10 -7.77171e-10 2.43885e-10)
(1.93101e-11 -8.26225e-10 2.43009e-10)
(-3.15718e-11 -8.13809e-10 2.4002e-10)
(-1.37149e-10 -7.40659e-10 2.35186e-10)
(2.85517e-10 -9.71001e-10 2.59582e-10)
(5.84235e-11 -1.00197e-09 2.58634e-10)
(-1.00416e-10 -9.85088e-10 2.55363e-10)
(-3.05079e-10 -9.20751e-10 2.49895e-10)
(4.57938e-10 -1.30692e-09 2.56458e-10)
(9.80914e-11 -1.26293e-09 2.5609e-10)
(-1.81821e-10 -1.23878e-09 2.52816e-10)
(-5.13087e-10 -1.23321e-09 2.46556e-10)
(2.91855e-11 -1.0594e-11 6.85825e-12)
(8.11049e-13 -4.2846e-11 7.24899e-12)
(6.49265e-13 -4.51432e-11 7.12134e-12)
(-1.2408e-11 -2.57947e-11 6.51577e-12)
(6.72888e-11 -1.64018e-10 2.22991e-11)
(7.70397e-12 -1.96592e-10 2.28204e-11)
(4.8486e-12 -1.98383e-10 2.24842e-11)
(-3.45202e-11 -1.73355e-10 2.139e-11)
(7.82585e-11 -3.41103e-10 3.89167e-11)
(1.06365e-11 -3.61392e-10 3.92195e-11)
(9.13476e-12 -3.60641e-10 3.87057e-11)
(-3.90757e-11 -3.40466e-10 3.75004e-11)
(7.77363e-11 -4.9946e-10 5.5392e-11)
(8.00366e-12 -5.19515e-10 5.53554e-11)
(1.10493e-11 -5.15282e-10 5.4676e-11)
(-3.97784e-11 -4.8779e-10 5.34807e-11)
(8.97907e-11 -6.35763e-10 6.98982e-11)
(7.583e-12 -6.69814e-10 6.95408e-11)
(2.0018e-12 -6.61739e-10 6.8703e-11)
(-6.11347e-11 -6.12397e-10 6.75001e-11)
(1.49394e-10 -7.67217e-10 8.0468e-11)
(2.25145e-11 -8.16574e-10 7.99159e-11)
(-3.16241e-11 -8.04472e-10 7.89381e-11)
(-1.38618e-10 -7.3167e-10 7.76251e-11)
(2.89717e-10 -9.60612e-10 8.54987e-11)
(6.16285e-11 -9.91996e-10 8.49393e-11)
(-9.97966e-11 -9.75409e-10 8.3868e-11)
(-3.05403e-10 -9.1126e-10 8.2328e-11)
(4.61009e-10 -1.29512e-09 8.44486e-11)
(1.01191e-10 -1.2524e-09 8.40822e-11)
(-1.80499e-10 -1.22852e-09 8.30097e-11)
(-5.11668e-10 -1.2222e-09 8.12058e-11)
)
;

boundaryField
{
    interface
    {
        type            calculated;
        value           nonuniform List<vector> 
192
(
(2.86761e-10 4.30054e-10 2.68241e-10)
(4.91788e-10 2.70792e-10 6.31665e-10)
(5.3538e-10 2.58239e-11 8.96706e-10)
(5.27954e-10 -1.98737e-10 1.12419e-09)
(5.26098e-10 -4.14778e-10 1.34993e-09)
(5.68753e-10 -6.6233e-10 1.59802e-09)
(6.92764e-10 -1.05072e-09 1.87313e-09)
(8.65397e-10 -1.67164e-09 2.099e-09)
(1.58803e-10 2.00111e-10 7.81089e-11)
(2.97893e-10 3.36312e-11 3.05009e-10)
(3.21948e-10 -1.75814e-10 5.36454e-10)
(3.0667e-10 -3.77515e-10 7.50629e-10)
(2.98663e-10 -5.75857e-10 9.57786e-10)
(3.38378e-10 -7.87056e-10 1.16766e-09)
(4.7412e-10 -1.09023e-09 1.36445e-09)
(6.89239e-10 -1.59789e-09 1.47753e-09)
(6.96869e-11 8.37932e-11 3.19902e-11)
(1.53359e-10 -9.32982e-11 1.89486e-10)
(1.6442e-10 -2.95916e-10 3.85164e-10)
(1.48516e-10 -4.83166e-10 5.80919e-10)
(1.42296e-10 -6.54401e-10 7.66456e-10)
(1.86843e-10 -8.16835e-10 9.34159e-10)
(3.33084e-10 -1.04565e-09 1.05753e-09)
(5.60238e-10 -1.47508e-09 1.08777e-09)
(2.95546e-11 3.51115e-11 3.54922e-11)
(8.77464e-11 -1.44607e-10 1.63669e-10)
(9.46264e-11 -3.47033e-10 3.23095e-10)
(8.26987e-11 -5.25182e-10 4.87595e-10)
(8.25222e-11 -6.73802e-10 6.40726e-10)
(1.33628e-10 -8.01295e-10 7.66618e-10)
(2.8458e-10 -9.89571e-10 8.41268e-10)
(5.09344e-10 -1.38196e-09 8.40374e-10)
(1.48544e-11 1.84096e-11 3.70336e-11)
(6.50974e-11 -1.58757e-10 1.40861e-10)
(7.32059e-11 -3.58291e-10 2.63593e-10)
(6.65682e-11 -5.29181e-10 3.89993e-10)
(7.26554e-11 -6.63519e-10 5.05419e-10)
(1.28814e-10 -7.72961e-10 5.94417e-10)
(2.80728e-10 -9.44676e-10 6.40179e-10)
(5.00072e-10 -1.32062e-09 6.32836e-10)
(1.05305e-11 1.39704e-11 3.08321e-11)
(5.99053e-11 -1.58434e-10 1.07251e-10)
(7.09211e-11 -3.52834e-10 1.9366e-10)
(6.88534e-11 -5.17643e-10 2.81407e-10)
(7.9653e-11 -6.44253e-10 3.60144e-10)
(1.3899e-10 -7.46446e-10 4.1864e-10)
(2.90575e-10 -9.1299e-10 4.46601e-10)
(5.05182e-10 -1.281e-09 4.40161e-10)
(9.57104e-12 1.33655e-11 1.99178e-11)
(5.96798e-11 -1.54537e-10 6.64564e-11)
(7.31198e-11 -3.44086e-10 1.17589e-10)
(7.41212e-11 -5.04477e-10 1.68807e-10)
(8.78353e-11 -6.27294e-10 2.14185e-10)
(1.48938e-10 -7.27208e-10 2.47277e-10)
(3.00042e-10 -8.92699e-10 2.62623e-10)
(5.1148e-10 -1.25678e-09 2.58634e-10)
(9.44376e-12 1.35245e-11 6.84243e-12)
(6.00802e-11 -1.51751e-10 2.24408e-11)
(7.47646e-11 -3.38493e-10 3.93429e-11)
(7.72521e-11 -4.96578e-10 5.61424e-11)
(9.23236e-11 -6.1785e-10 7.09304e-11)
(1.54208e-10 -7.17236e-10 8.16346e-11)
(3.05032e-10 -8.82709e-10 8.65488e-11)
(5.14918e-10 -1.24515e-09 8.52163e-11)
(2.57761e-10 4.99046e-10 3.02235e-10)
(4.71083e-10 3.72799e-10 6.82417e-10)
(5.12944e-10 1.42536e-10 9.54297e-10)
(4.99253e-10 -8.22704e-11 1.18636e-09)
(4.93323e-10 -3.08281e-10 1.41223e-09)
(5.38336e-10 -5.76755e-10 1.65159e-09)
(6.66037e-10 -9.97651e-10 1.91406e-09)
(8.2201e-10 -1.65215e-09 2.14821e-09)
(5.0915e-11 3.89836e-10 2.6294e-10)
(1.06144e-10 2.85115e-10 6.26798e-10)
(1.12819e-10 1.01296e-10 8.84672e-10)
(9.61088e-11 -1.0599e-10 1.10061e-09)
(7.9906e-11 -3.39409e-10 1.30898e-09)
(8.23388e-11 -6.16782e-10 1.53258e-09)
(1.14126e-10 -1.01018e-09 1.79607e-09)
(1.51268e-10 -1.59948e-09 2.07191e-09)
(-7.0636e-11 3.79456e-10 2.47389e-10)
(-1.47541e-10 2.80037e-10 6.06308e-10)
(-1.75174e-10 1.02305e-10 8.60368e-10)
(-1.84565e-10 -9.95128e-11 1.07331e-09)
(-2.00821e-10 -3.28004e-10 1.2791e-09)
(-2.42773e-10 -6.00615e-10 1.50025e-09)
(-3.22554e-10 -9.88591e-10 1.76119e-09)
(-4.17886e-10 -1.56865e-09 2.03412e-09)
(-2.5815e-10 4.64322e-10 2.55031e-10)
(-4.85431e-10 3.59392e-10 6.18028e-10)
(-5.47753e-10 1.48716e-10 8.77737e-10)
(-5.59899e-10 -6.01853e-11 1.10066e-09)
(-5.85948e-10 -2.72087e-10 1.31883e-09)
(-6.69827e-10 -5.26878e-10 1.55096e-09)
(-8.43619e-10 -9.31962e-10 1.80626e-09)
(-1.05287e-09 -1.55861e-09 2.03359e-09)
(-2.23153e-10 4.09791e-10 2.44394e-10)
(-4.36214e-10 2.71407e-10 5.82538e-10)
(-4.95411e-10 4.68238e-11 8.32725e-10)
(-5.09578e-10 -1.59718e-10 1.04945e-09)
(-5.35836e-10 -3.58632e-10 1.26603e-09)
(-6.13418e-10 -5.88979e-10 1.50545e-09)
(-7.78286e-10 -9.5808e-10 1.77184e-09)
(-9.95853e-10 -1.54919e-09 1.99003e-09)
(-9.47708e-11 1.83025e-10 6.7871e-11)
(-2.33856e-10 3.58816e-11 2.77032e-10)
(-2.67232e-10 -1.55192e-10 4.95515e-10)
(-2.68489e-10 -3.39854e-10 6.99766e-10)
(-2.84209e-10 -5.21526e-10 8.98363e-10)
(-3.54836e-10 -7.16008e-10 1.10025e-09)
(-5.27479e-10 -1.00117e-09 1.28977e-09)
(-7.82442e-10 -1.4816e-09 1.39835e-09)
(-4.99049e-12 6.38775e-11 2.5524e-11)
(-8.28987e-11 -9.47812e-11 1.70968e-10)
(-9.77267e-11 -2.79702e-10 3.5637e-10)
(-9.347e-11 -4.50317e-10 5.43409e-10)
(-1.06625e-10 -6.05135e-10 7.21212e-10)
(-1.78053e-10 -7.5122e-10 8.81893e-10)
(-3.57413e-10 -9.62698e-10 9.99453e-10)
(-6.20954e-10 -1.36556e-09 1.02687e-09)
(3.59769e-11 1.22e-11 3.09039e-11)
(-1.2767e-11 -1.50733e-10 1.50801e-10)
(-1.92699e-11 -3.36206e-10 3.02654e-10)
(-1.49666e-11 -4.98027e-10 4.60168e-10)
(-3.02722e-11 -6.30355e-10 6.06849e-10)
(-1.04675e-10 -7.4159e-10 7.26938e-10)
(-2.85327e-10 -9.12556e-10 7.96994e-10)
(-5.43629e-10 -1.27814e-09 7.94045e-10)
(5.1277e-11 -6.61598e-12 3.38297e-11)
(1.28562e-11 -1.68654e-10 1.32013e-10)
(7.9126e-12 -3.52165e-10 2.49434e-10)
(1.00029e-11 -5.07132e-10 3.70667e-10)
(-8.48503e-12 -6.25288e-10 4.81138e-10)
(-8.49395e-11 -7.18411e-10 5.65643e-10)
(-2.63816e-10 -8.72584e-10 6.07879e-10)
(-5.14332e-10 -1.22129e-09 5.98972e-10)
(5.59677e-11 -1.24207e-11 2.87309e-11)
(1.98736e-11 -1.70963e-10 1.01484e-10)
(1.38921e-11 -3.50183e-10 1.84402e-10)
(1.36295e-11 -4.99503e-10 2.68648e-10)
(-7.33991e-12 -6.10062e-10 3.43932e-10)
(-8.47471e-11 -6.95855e-10 3.99251e-10)
(-2.61227e-10 -8.446e-10 4.24708e-10)
(-5.05205e-10 -1.18499e-09 4.17149e-10)
(5.71393e-11 -1.38404e-11 1.87301e-11)
(2.1162e-11 -1.68696e-10 6.3203e-11)
(1.38901e-11 -3.43664e-10 1.12355e-10)
(1.19252e-11 -4.88909e-10 1.61554e-10)
(-1.04722e-11 -5.95794e-10 2.04908e-10)
(-8.81737e-11 -6.79257e-10 2.36114e-10)
(-2.62794e-10 -8.26764e-10 2.49964e-10)
(-5.02398e-10 -1.16294e-09 2.453e-10)
(5.73646e-11 -1.40627e-11 6.45849e-12)
(2.12529e-11 -1.66687e-10 2.13896e-11)
(1.32717e-11 -3.39151e-10 3.76499e-11)
(1.04778e-11 -4.82273e-10 5.37905e-11)
(-1.25475e-11 -5.87685e-10 6.79125e-11)
(-9.02987e-11 -6.70599e-10 7.79921e-11)
(-2.63952e-10 -8.17995e-10 8.2409e-11)
(-5.01403e-10 -1.15238e-09 8.08509e-11)
(8.20032e-10 -1.71975e-09 2.15762e-09)
(6.59609e-10 -1.63835e-09 1.50318e-09)
(5.25535e-10 -1.52931e-09 1.08301e-09)
(4.69866e-10 -1.44698e-09 8.19609e-10)
(4.60311e-10 -1.38898e-09 6.09535e-10)
(4.65736e-10 -1.35016e-09 4.21661e-10)
(4.72009e-10 -1.32621e-09 2.47387e-10)
(4.75315e-10 -1.31473e-09 8.14995e-11)
(1.49566e-10 -1.63965e-09 2.10856e-09)
(1.07776e-10 -1.51629e-09 1.51963e-09)
(6.99977e-11 -1.40565e-09 1.12704e-09)
(5.92795e-11 -1.33738e-09 8.5248e-10)
(6.4815e-11 -1.29263e-09 6.24812e-10)
(7.40291e-11 -1.26234e-09 4.26389e-10)
(8.10552e-11 -1.24289e-09 2.48108e-10)
(8.45371e-11 -1.23325e-09 8.14504e-11)
(-4.19358e-10 -1.59867e-09 2.08052e-09)
(-3.28373e-10 -1.47757e-09 1.50054e-09)
(-2.52831e-10 -1.36878e-09 1.11274e-09)
(-2.13511e-10 -1.30198e-09 8.41721e-10)
(-1.97741e-10 -1.25834e-09 6.16981e-10)
(-1.9186e-10 -1.22885e-09 4.21074e-10)
(-1.89254e-10 -1.20991e-09 2.45029e-10)
(-1.88053e-10 -1.20052e-09 8.04425e-11)
(-1.05446e-09 -1.59513e-09 2.07304e-09)
(-8.49249e-10 -1.51883e-09 1.44588e-09)
(-6.78612e-10 -1.41488e-09 1.03998e-09)
(-5.94218e-10 -1.33683e-09 7.87113e-10)
(-5.63057e-10 -1.28211e-09 5.85849e-10)
(-5.53146e-10 -1.24565e-09 4.05586e-10)
(-5.49623e-10 -1.22323e-09 2.38079e-10)
(-5.48161e-10 -1.21249e-09 7.8453e-11)
)
;
    }
    symmetry
    {
        type            symmetry;
    }
    bottom
    {
        type            calculated;
        value           uniform (0 0 0);
    }
}


// ************************************************************************* //
