/*--------------------------------*- C++ -*----------------------------------*\
| =========                 |                                                 |
| \\      /  F ield         | OpenFOAM: The Open Source CFD Toolbox           |
|  \\    /   O peration     | Version:  v1912                                 |
|   \\  /    A nd           | Website:  www.openfoam.com                      |
|    \\/     M anipulation  |                                                 |
\*---------------------------------------------------------------------------*/
FoamFile
{
    version     2.0;
    format      ascii;
    class       volScalarField;
    location    "0.68/solid";
    object      epsilonEq;
}
// * * * * * * * * * * * * * * * * * * * * * * * * * * * * * * * * * * * * * //

dimensions      [0 0 0 0 0 0 0];


internalField   nonuniform List<scalar> 
256
(
2.7982e-06
1.96923e-06
1.94039e-06
2.6704e-06
1.62297e-06
1.37084e-06
1.34845e-06
1.52514e-06
1.60967e-06
1.28664e-06
1.26488e-06
1.51156e-06
1.68728e-06
1.28581e-06
1.26424e-06
1.5878e-06
1.74606e-06
1.31134e-06
1.28978e-06
1.64538e-06
1.73934e-06
1.32722e-06
1.30565e-06
1.63793e-06
1.40706e-06
1.20635e-06
1.18811e-06
1.31366e-06
2.52721e-07
1.36401e-06
1.35281e-06
2.64266e-07
1.67018e-06
4.07573e-07
3.95309e-07
1.53905e-06
1.22423e-06
4.03329e-07
3.92562e-07
1.10729e-06
1.19262e-06
3.05118e-07
2.9682e-07
1.07617e-06
1.20442e-06
2.07123e-07
2.01926e-07
1.08626e-06
1.23642e-06
1.69894e-07
1.67861e-07
1.11589e-06
1.27651e-06
1.89528e-07
1.87635e-07
1.15368e-06
1.19645e-06
1.65e-07
1.68966e-07
1.07576e-06
1.40736e-06
1.2087e-06
1.19038e-06
1.31357e-06
1.39475e-06
2.42606e-07
2.38024e-07
1.26786e-06
1.17234e-06
2.36742e-07
2.27868e-07
1.05637e-06
1.15715e-06
1.6739e-07
1.59445e-07
1.03961e-06
1.16883e-06
1.06133e-07
1.03182e-07
1.0487e-06
1.20621e-06
1.05313e-07
1.07284e-07
1.08301e-06
1.26811e-06
1.25775e-07
1.25087e-07
1.14186e-06
1.27475e-06
1.85051e-07
1.83781e-07
1.15125e-06
1.74158e-06
1.33207e-06
1.31047e-06
1.63979e-06
1.24631e-06
2.2419e-07
2.22787e-07
1.12527e-06
1.08994e-06
2.11348e-07
2.07351e-07
9.8007e-07
1.0809e-06
1.58315e-07
1.55878e-07
9.67971e-07
1.09327e-06
1.25896e-07
1.28689e-07
9.76695e-07
1.13361e-06
1.24475e-07
1.30212e-07
1.01321e-06
1.20245e-06
1.18156e-07
1.20865e-07
1.07814e-06
1.23158e-06
1.54902e-07
1.54867e-07
1.10947e-06
1.7579e-06
1.32151e-06
1.29998e-06
1.65682e-06
1.16099e-06
1.93582e-07
1.92531e-07
1.04336e-06
1.02285e-06
1.90423e-07
1.87962e-07
9.16429e-07
1.01985e-06
1.50271e-07
1.49366e-07
9.09871e-07
1.03622e-06
1.2291e-07
1.26373e-07
9.21996e-07
1.08144e-06
1.16753e-07
1.22435e-07
9.63007e-07
1.15529e-06
1.01164e-07
1.03232e-07
1.03253e-06
1.19401e-06
1.51187e-07
1.50332e-07
1.07325e-06
1.72637e-06
1.29945e-06
1.27802e-06
1.62624e-06
1.11266e-06
1.66528e-07
1.65073e-07
9.96862e-07
9.79436e-07
1.67405e-07
1.64802e-07
8.74521e-07
9.80831e-07
1.30374e-07
1.29072e-07
8.72183e-07
1.00168e-06
9.90306e-08
1.02013e-07
8.88552e-07
1.0515e-06
8.84827e-08
9.36405e-08
9.34021e-07
1.12928e-06
7.49895e-08
7.46405e-08
1.00738e-06
1.17426e-06
1.63297e-07
1.61088e-07
1.05446e-06
1.70176e-06
1.28383e-06
1.26242e-06
1.60221e-06
1.08622e-06
1.4607e-07
1.44051e-07
9.71359e-07
9.54332e-07
1.47325e-07
1.44107e-07
8.50012e-07
9.58318e-07
1.07891e-07
1.05633e-07
8.50185e-07
9.82411e-07
6.90292e-08
7.15714e-08
8.69735e-07
1.03536e-06
5.53655e-08
6.07267e-08
9.1832e-07
1.11581e-06
5.22928e-08
4.84433e-08
9.94367e-07
1.16499e-06
1.7547e-07
1.72475e-07
1.04584e-06
1.68822e-06
1.27441e-06
1.25299e-06
1.58901e-06
1.07442e-06
1.34516e-07
1.32092e-07
9.5995e-07
9.42876e-07
1.35299e-07
1.3159e-07
8.38759e-07
9.48051e-07
9.26609e-08
8.95668e-08
8.4009e-07
9.73762e-07
4.46954e-08
4.7267e-08
8.61252e-07
1.02824e-06
2.58563e-08
3.37956e-08
9.11372e-07
1.11e-06
3.84885e-08
3.06705e-08
9.88759e-07
1.16131e-06
1.81939e-07
1.78636e-07
1.04248e-06
1.68257e-06
1.27001e-06
1.24859e-06
1.58352e-06
)
;

boundaryField
{
    interface
    {
        type            calculated;
        value           nonuniform List<scalar> 
192
(
3.56418e-06
2.281e-06
2.28298e-06
2.39228e-06
2.48439e-06
2.51385e-06
2.22833e-06
1.22736e-06
2.68356e-06
2.10058e-06
2.08349e-06
2.14062e-06
2.22176e-06
2.31001e-06
2.26845e-06
2.22944e-06
2.34716e-06
2.02024e-06
2.02451e-06
2.0795e-06
2.16566e-06
2.27709e-06
2.31111e-06
2.51857e-06
2.13016e-06
1.8844e-06
1.90042e-06
1.95676e-06
2.04602e-06
2.16606e-06
2.22521e-06
2.50171e-06
1.99929e-06
1.77745e-06
1.80077e-06
1.86101e-06
1.9546e-06
2.08004e-06
2.15038e-06
2.44367e-06
1.92326e-06
1.70908e-06
1.73659e-06
1.80068e-06
1.89816e-06
2.02726e-06
2.10367e-06
2.4006e-06
1.88128e-06
1.66997e-06
1.6997e-06
1.76647e-06
1.86656e-06
1.9979e-06
2.07771e-06
2.37571e-06
1.86254e-06
1.65231e-06
1.68301e-06
1.7511e-06
1.85245e-06
1.98483e-06
2.0662e-06
2.36469e-06
3.61972e-06
2.33846e-06
2.3422e-06
2.45459e-06
2.54897e-06
2.57855e-06
2.29464e-06
1.31353e-06
3.06058e-06
2.31009e-06
2.24183e-06
2.28636e-06
2.35963e-06
2.42459e-06
2.34592e-06
2.25412e-06
3.01405e-06
2.27063e-06
2.20185e-06
2.24566e-06
2.31837e-06
2.3828e-06
2.30605e-06
2.22639e-06
3.46812e-06
2.2236e-06
2.22536e-06
2.33501e-06
2.42765e-06
2.45643e-06
2.18206e-06
1.28693e-06
3.36262e-06
2.10133e-06
2.10063e-06
2.20661e-06
2.29559e-06
2.32208e-06
2.03838e-06
1.0697e-06
2.46222e-06
1.89435e-06
1.87514e-06
1.92796e-06
2.00434e-06
2.08796e-06
2.04646e-06
2.03853e-06
2.13228e-06
1.81725e-06
1.81804e-06
1.86808e-06
1.94869e-06
2.05421e-06
2.08739e-06
2.32492e-06
1.92306e-06
1.68877e-06
1.70025e-06
1.75089e-06
1.83386e-06
1.94693e-06
2.00399e-06
2.30987e-06
1.79724e-06
1.58659e-06
1.60497e-06
1.65903e-06
1.74587e-06
1.86374e-06
1.93127e-06
2.25332e-06
1.72421e-06
1.52085e-06
1.54324e-06
1.6009e-06
1.69138e-06
1.8126e-06
1.8859e-06
2.21115e-06
1.68391e-06
1.48313e-06
1.50764e-06
1.56787e-06
1.66083e-06
1.78414e-06
1.86075e-06
2.18678e-06
1.66592e-06
1.46606e-06
1.49151e-06
1.55302e-06
1.64719e-06
1.77147e-06
1.84962e-06
2.17601e-06
1.3164e-06
2.29705e-06
2.58421e-06
2.56771e-06
2.50893e-06
2.46461e-06
2.43874e-06
2.42724e-06
2.25609e-06
2.35034e-06
2.4337e-06
2.37872e-06
2.3197e-06
2.2779e-06
2.25221e-06
2.24009e-06
2.22808e-06
2.31007e-06
2.39136e-06
2.33669e-06
2.27788e-06
2.23615e-06
2.21048e-06
2.19838e-06
1.28837e-06
2.18331e-06
2.46077e-06
2.44466e-06
2.38663e-06
2.34274e-06
2.31711e-06
2.30572e-06
)
;
    }
    symmetry
    {
        type            symmetry;
    }
    bottom
    {
        type            calculated;
        value           nonuniform List<scalar> 
32
(
3.99431e-06
2.1536e-06
1.68917e-06
1.4996e-06
1.40228e-06
1.3485e-06
1.31926e-06
1.30626e-06
2.54086e-06
5.16882e-07
2.43702e-07
2.26914e-07
2.01526e-07
1.77512e-07
1.5926e-07
1.49072e-07
2.50653e-06
4.99805e-07
2.31324e-07
2.17225e-07
1.9121e-07
1.65882e-07
1.46201e-07
1.35001e-07
3.83736e-06
2.00816e-06
1.54851e-06
1.36501e-06
1.27182e-06
1.22052e-06
1.19267e-06
1.18028e-06
)
;
    }
}


// ************************************************************************* //
