/*--------------------------------*- C++ -*----------------------------------*\
| =========                 |                                                 |
| \\      /  F ield         | OpenFOAM: The Open Source CFD Toolbox           |
|  \\    /   O peration     | Version:  v1912                                 |
|   \\  /    A nd           | Website:  www.openfoam.com                      |
|    \\/     M anipulation  |                                                 |
\*---------------------------------------------------------------------------*/
FoamFile
{
    version     2.0;
    format      ascii;
    class       volSymmTensorField;
    location    "0.68/solid";
    object      epsilon;
}
// * * * * * * * * * * * * * * * * * * * * * * * * * * * * * * * * * * * * * //

dimensions      [0 0 0 0 0 0 0];


internalField   nonuniform List<symmTensor> 
256
(
(-2.7858e-06 1.84998e-07 -7.01107e-08 1.34542e-06 2.07622e-07 -2.85803e-06)
(-5.82353e-07 -4.38906e-08 -2.94684e-08 8.3947e-07 2.05559e-07 -2.53111e-06)
(-5.6759e-07 4.50885e-08 2.82173e-08 8.22871e-07 2.06317e-07 -2.49633e-06)
(-2.61806e-06 -1.77739e-07 6.94707e-08 1.28401e-06 2.10549e-07 -2.76059e-06)
(-2.85948e-06 -1.90423e-09 -1.06722e-07 -4.50243e-07 2.36337e-08 -2.89478e-06)
(-9.89223e-07 -3.32424e-08 -4.85484e-08 -2.09262e-07 3.36994e-08 -2.53784e-06)
(-9.69571e-07 3.83733e-08 4.75681e-08 -2.16069e-07 3.48111e-08 -2.50346e-06)
(-2.68451e-06 4.68082e-09 1.06056e-07 -4.6467e-07 2.71311e-08 -2.80008e-06)
(-2.92156e-06 -2.82857e-08 -1.14748e-07 -5.3207e-07 -3.33005e-09 -2.95387e-06)
(-1.03265e-06 -2.89064e-08 -5.3235e-08 -3.83455e-07 -1.37271e-09 -2.55131e-06)
(-1.01324e-06 3.38967e-08 5.26913e-08 -3.88338e-07 -6.23775e-10 -2.51605e-06)
(-2.74362e-06 3.02484e-08 1.14207e-07 -5.4405e-07 -9.06945e-10 -2.85643e-06)
(-2.97981e-06 -1.83548e-08 -1.19011e-07 -4.83432e-07 5.32652e-09 -3.03087e-06)
(-9.92682e-07 -2.1601e-08 -5.54418e-08 -4.63532e-07 3.00293e-09 -2.59875e-06)
(-9.73372e-07 2.53243e-08 5.50725e-08 -4.6779e-07 3.45986e-09 -2.5627e-06)
(-2.79863e-06 1.99578e-08 1.18543e-07 -4.95104e-07 6.90115e-09 -2.93113e-06)
(-3.07029e-06 -2.09181e-09 -1.23522e-07 -4.9379e-07 2.48071e-08 -3.136e-06)
(-9.85426e-07 -1.08463e-08 -5.79104e-08 -5.34823e-07 2.13511e-08 -2.68499e-06)
(-9.65895e-07 1.32687e-08 5.75599e-08 -5.38974e-07 2.16435e-08 -2.64832e-06)
(-2.88595e-06 3.20751e-09 1.23099e-07 -5.05183e-07 2.58586e-08 -3.03454e-06)
(-3.22732e-06 2.87636e-08 -1.27505e-07 -6.60948e-07 6.00865e-08 -3.28769e-06)
(-1.07081e-06 8.39006e-09 -6.02891e-08 -6.71997e-07 5.79967e-08 -2.82663e-06)
(-1.05118e-06 -7.67242e-09 5.99063e-08 -6.75881e-07 5.81827e-08 -2.78937e-06)
(-3.04053e-06 -2.84554e-08 1.27135e-07 -6.71576e-07 6.07774e-08 -3.18473e-06)
(-3.48898e-06 8.60318e-08 -1.26633e-07 -1.42393e-06 1.16074e-07 -3.52675e-06)
(-1.30439e-06 3.91043e-08 -6.01046e-08 -1.27465e-06 1.21074e-07 -3.08238e-06)
(-1.28494e-06 -4.12533e-08 5.9677e-08 -1.27377e-06 1.21132e-07 -3.04463e-06)
(-3.30123e-06 -8.69053e-08 1.26321e-07 -1.42275e-06 1.16367e-07 -3.42273e-06)
(-3.95515e-06 1.16219e-07 -1.15831e-07 -3.99004e-06 1.43488e-07 -3.98848e-06)
(-1.63301e-06 5.54947e-08 -5.512e-08 -3.65793e-06 1.55478e-07 -3.65548e-06)
(-1.61287e-06 -5.45052e-08 5.45785e-08 -3.62083e-06 1.55465e-07 -3.61857e-06)
(-3.76508e-06 -1.15591e-07 1.15484e-07 -3.88879e-06 1.43555e-07 -3.88805e-06)
(-2.26979e-06 1.11336e-07 -5.34426e-08 5.88174e-07 -2.60758e-09 -5.17384e-07)
(-3.93677e-07 -6.19068e-08 -1.65431e-08 1.70066e-07 8.37761e-08 -4.31231e-07)
(-3.79057e-07 6.4129e-08 1.85581e-08 1.55781e-07 8.76738e-08 -4.28868e-07)
(-2.10274e-06 -1.03875e-07 5.42659e-08 5.33868e-07 8.93426e-09 -5.11917e-07)
(-2.32771e-06 -1.45006e-08 -8.18418e-08 -2.9181e-07 2.79149e-08 -8.19417e-07)
(-6.79606e-07 -3.66959e-08 -3.33109e-08 -9.77738e-08 7.28506e-08 -6.86733e-07)
(-6.60823e-07 4.0468e-08 3.64072e-08 -1.0644e-07 7.52422e-08 -6.84226e-07)
(-2.1574e-06 1.64217e-08 8.29745e-08 -3.11014e-07 3.53012e-08 -8.13907e-07)
(-2.35921e-06 -2.95089e-08 -8.56952e-08 -3.86057e-07 2.50202e-08 -8.68903e-07)
(-6.98553e-07 -2.8633e-08 -3.61722e-08 -2.6516e-07 3.92515e-08 -7.21834e-07)
(-6.80361e-07 3.13302e-08 3.97829e-08 -2.70785e-07 4.08714e-08 -7.19932e-07)
(-2.18677e-06 3.03687e-08 8.69591e-08 -4.00131e-07 3.02095e-08 -8.64992e-07)
(-2.39718e-06 -1.93848e-08 -8.68515e-08 -4.09126e-07 2.8649e-08 -8.80266e-07)
(-6.53799e-07 -2.13876e-08 -3.63012e-08 -3.97873e-07 3.09738e-08 -7.2382e-07)
(-6.35758e-07 2.29628e-08 4.01892e-08 -4.02238e-07 3.21131e-08 -7.22278e-07)
(-2.22135e-06 2.00583e-08 8.82174e-08 -4.21329e-07 3.23791e-08 -8.77314e-07)
(-2.47577e-06 -3.70237e-09 -8.91066e-08 -4.40314e-07 5.46775e-08 -9.10732e-07)
(-6.42147e-07 -1.14137e-08 -3.75357e-08 -4.84918e-07 5.33651e-08 -7.45858e-07)
(-6.23765e-07 1.21027e-08 4.15043e-08 -4.89014e-07 5.41625e-08 -7.44465e-07)
(-2.29586e-06 4.13089e-09 9.05456e-08 -4.51804e-07 5.73015e-08 -9.08219e-07)
(-2.63203e-06 2.81769e-08 -9.11279e-08 -5.51528e-07 9.68014e-08 -9.87994e-07)
(-7.23721e-07 7.60767e-09 -3.91611e-08 -5.63112e-07 9.47496e-08 -8.15952e-07)
(-7.05008e-07 -8.19322e-09 4.30817e-08 -5.66939e-07 9.5268e-08 -8.14638e-07)
(-2.44815e-06 -2.83419e-08 9.2627e-08 -5.62189e-07 9.85101e-08 -9.85754e-07)
(-2.9195e-06 9.05565e-08 -9.0134e-08 -1.14974e-06 1.30726e-07 -1.1562e-06)
(-9.60638e-07 3.98587e-08 -3.9274e-08 -9.82379e-07 1.3079e-07 -9.85307e-07)
(-9.41874e-07 -4.28593e-08 4.30122e-08 -9.81477e-07 1.31019e-07 -9.84075e-07)
(-2.73299e-06 -9.17375e-08 9.16537e-08 -1.14853e-06 1.31541e-07 -1.15425e-06)
(-3.49069e-06 1.26861e-07 -8.53769e-08 -3.52793e-06 1.16847e-07 -1.425e-06)
(-1.30471e-06 6.03089e-08 -3.81997e-08 -3.08497e-06 1.21698e-07 -1.27265e-06)
(-1.28519e-06 -5.96133e-08 4.15593e-08 -3.04689e-06 1.21743e-07 -1.27145e-06)
(-3.30173e-06 -1.26374e-07 8.67855e-08 -3.42268e-06 1.17075e-07 -1.42321e-06)
(-1.95012e-06 6.19622e-08 -2.17648e-08 2.85095e-07 7.42345e-08 -5.76941e-08)
(-2.60944e-07 -8.29966e-08 -2.32193e-09 -6.42312e-08 1.55469e-07 -6.15231e-08)
(-2.4675e-07 8.36603e-08 3.5813e-09 -7.71948e-08 1.58061e-07 -6.23348e-08)
(-1.78844e-06 -5.53796e-08 2.20824e-08 2.35623e-07 8.22219e-08 -6.00255e-08)
(-2.02435e-06 -2.11222e-08 -3.20773e-08 -3.36528e-07 9.47572e-08 -2.18963e-07)
(-4.52822e-07 -4.09733e-08 -8.15985e-09 -1.74855e-07 1.35925e-07 -2.27273e-07)
(-4.34483e-07 4.36988e-08 1.00675e-08 -1.83594e-07 1.38011e-07 -2.28757e-07)
(-1.85878e-06 2.26131e-08 3.26504e-08 -3.56078e-07 1.01241e-07 -2.23254e-07)
(-2.0541e-06 -2.81912e-08 -3.14175e-08 -3.52779e-07 8.54597e-08 -3.00897e-07)
(-4.54321e-07 -2.79583e-08 -8.38099e-09 -2.56969e-07 9.88295e-08 -3.11203e-07)
(-4.36573e-07 2.96702e-08 1.04057e-08 -2.62948e-07 1.00494e-07 -3.13306e-07)
(-1.88627e-06 2.86482e-08 3.206e-08 -3.6801e-07 9.06616e-08 -3.06933e-07)
(-2.08888e-06 -1.89213e-08 -2.99573e-08 -3.47431e-07 7.90352e-08 -3.36743e-07)
(-4.09389e-07 -2.11034e-08 -7.23439e-09 -3.45838e-07 8.1427e-08 -3.47093e-07)
(-3.91777e-07 2.17459e-08 9.29635e-09 -3.50482e-07 8.27396e-08 -3.49673e-07)
(-1.91747e-06 1.92277e-08 3.0629e-08 -3.60597e-07 8.31469e-08 -3.44101e-07)
(-2.16656e-06 -4.0256e-09 -2.95598e-08 -3.53627e-07 9.06209e-08 -3.7621e-07)
(-3.97755e-07 -1.20945e-08 -6.98867e-09 -4.01147e-07 8.97497e-08 -3.8548e-07)
(-3.79717e-07 1.19868e-08 9.04604e-09 -4.05412e-07 9.07518e-08 -3.88353e-07)
(-1.99052e-06 4.17292e-09 3.02561e-08 -3.65796e-07 9.37423e-08 -3.84374e-07)
(-2.32847e-06 2.84721e-08 -2.93696e-08 -4.23929e-07 1.07993e-07 -4.50036e-07)
(-4.80052e-07 6.90975e-09 -7.37409e-09 -4.36183e-07 1.06213e-07 -4.57926e-07)
(-4.61519e-07 -8.10964e-09 9.36069e-09 -4.40111e-07 1.06924e-07 -4.60969e-07)
(-2.14731e-06 -2.88151e-08 3.00877e-08 -4.35041e-07 1.10189e-07 -4.5866e-07)
(-2.63302e-06 9.15432e-08 -2.89521e-08 -9.75124e-07 1.02105e-07 -5.64793e-07)
(-7.20878e-07 3.9621e-08 -7.93335e-09 -8.07103e-07 9.98385e-08 -5.72494e-07)
(-7.02075e-07 -4.30439e-08 9.69715e-09 -8.06228e-07 1.00247e-07 -5.75629e-07)
(-2.44756e-06 -9.281e-08 2.96542e-08 -9.74023e-07 1.03389e-07 -5.73651e-07)
(-3.23085e-06 1.2771e-07 -2.91693e-08 -3.28957e-06 6.31506e-08 -6.60512e-07)
(-1.06872e-06 6.04046e-08 -8.3479e-09 -2.83056e-06 6.09105e-08 -6.68214e-07)
(-1.04895e-06 -5.98395e-08 9.56761e-09 -2.79275e-06 6.10386e-08 -6.71389e-07)
(-3.04134e-06 -1.27224e-07 2.9714e-08 -3.18481e-06 6.35928e-08 -6.69457e-07)
(-1.7692e-06 4.19251e-08 -5.80183e-09 1.74947e-07 9.93889e-08 -6.4802e-09)
(-2.02645e-07 -8.96998e-08 3.92992e-09 -1.34438e-07 1.48359e-07 -2.93212e-08)
(-1.89094e-07 8.88769e-08 -2.98638e-09 -1.46623e-07 1.50112e-07 -3.00217e-08)
(-1.61254e-06 -3.62916e-08 5.96166e-09 1.28681e-07 1.04964e-07 -8.43181e-09)
(-1.84401e-06 -2.22767e-08 -7.16281e-09 -3.84638e-07 1.20026e-07 -9.90699e-08)
(-3.50001e-07 -4.17009e-08 4.75605e-09 -2.41227e-07 1.44631e-07 -1.42024e-07)
(-3.32372e-07 4.34412e-08 -3.30476e-09 -2.49594e-07 1.46225e-07 -1.43475e-07)
(-1.68329e-06 2.33724e-08 7.49599e-09 -4.03413e-07 1.25017e-07 -1.03168e-07)
(-1.87739e-06 -2.571e-08 -5.0307e-09 -3.61932e-07 1.15705e-07 -1.90092e-07)
(-3.45842e-07 -2.65528e-08 5.97788e-09 -2.81354e-07 1.23294e-07 -2.39791e-07)
(-3.28684e-07 2.76326e-08 -4.55314e-09 -2.87344e-07 1.24694e-07 -2.4176e-07)
(-1.71416e-06 2.59451e-08 5.39226e-09 -3.77405e-07 1.20043e-07 -1.95693e-07)
(-1.9153e-06 -1.71908e-08 -2.9712e-09 -3.15854e-07 1.06026e-07 -2.57685e-07)
(-3.05592e-07 -2.00758e-08 7.35394e-09 -3.20558e-07 1.06631e-07 -3.09504e-07)
(-2.88501e-07 2.02691e-08 -6.03327e-09 -3.25373e-07 1.07821e-07 -3.11883e-07)
(-1.7483e-06 1.73369e-08 3.31495e-09 -3.2964e-07 1.09695e-07 -2.64459e-07)
(-1.99613e-06 -3.15082e-09 -1.72994e-09 -2.90848e-07 1.01579e-07 -3.19225e-07)
(-2.9853e-07 -1.19017e-08 8.07212e-09 -3.40083e-07 1.00341e-07 -3.71658e-07)
(-2.80953e-07 1.1454e-08 -6.83663e-09 -3.44532e-07 1.01308e-07 -3.74335e-07)
(-1.82409e-06 3.18841e-09 2.05817e-09 -3.03663e-07 1.04536e-07 -3.26839e-07)
(-2.16289e-06 2.8662e-08 -1.13099e-09 -3.45507e-07 9.39304e-08 -3.89803e-07)
(-3.84114e-07 6.37152e-09 8.05522e-09 -3.59487e-07 9.25665e-08 -4.42047e-07)
(-3.65944e-07 -7.82569e-09 -6.92308e-09 -3.63558e-07 9.32913e-08 -4.44921e-07)
(-1.98499e-06 -2.90586e-08 1.44747e-09 -3.57134e-07 9.61323e-08 -3.97953e-07)
(-2.47449e-06 8.97201e-08 -1.53614e-09 -8.93211e-07 6.66952e-08 -4.5914e-07)
(-6.25726e-07 3.78854e-08 7.19774e-09 -7.32266e-07 6.48435e-08 -5.10474e-07)
(-6.07122e-07 -4.14946e-08 -6.30683e-09 -7.31489e-07 6.52914e-08 -5.13455e-07)
(-2.29104e-06 -9.09901e-08 1.80547e-09 -8.92406e-07 6.80769e-08 -4.67569e-07)
(-3.07438e-06 1.24012e-07 -2.82859e-09 -3.14272e-06 3.17072e-08 -4.8171e-07)
(-9.7035e-07 5.8055e-08 6.75673e-09 -2.69308e-06 2.84518e-08 -5.31387e-07)
(-9.50579e-07 -5.75745e-08 -6.43702e-09 -2.65558e-06 2.85907e-08 -5.34398e-07)
(-2.88535e-06 -1.23511e-07 2.91265e-09 -3.03868e-06 3.21701e-08 -4.90203e-07)
(-1.66868e-06 3.59782e-08 -9.29416e-10 1.32849e-07 9.19609e-08 -1.33499e-08)
(-1.82352e-07 -8.86866e-08 4.25709e-09 -1.56728e-07 1.16411e-07 -2.98275e-08)
(-1.69333e-07 8.69054e-08 -3.53168e-09 -1.68354e-07 1.17642e-07 -3.03217e-08)
(-1.51561e-06 -3.10228e-08 1.06093e-09 8.89163e-08 9.58926e-08 -1.47885e-08)
(-1.74176e-06 -2.11676e-08 2.2526e-10 -4.04312e-07 1.09598e-07 -8.55942e-08)
(-3.15214e-07 -4.03864e-08 6.76635e-09 -2.70505e-07 1.2139e-07 -1.17215e-07)
(-2.98245e-07 4.13957e-08 -5.59726e-09 -2.78524e-07 1.22558e-07 -1.18372e-07)
(-1.58468e-06 2.19532e-08 4.80036e-11 -4.2231e-07 1.13259e-07 -8.89558e-08)
(-1.7787e-06 -2.34971e-08 2.16435e-09 -3.70847e-07 1.1146e-07 -1.72157e-07)
(-3.12221e-07 -2.51477e-08 8.15462e-09 -2.98134e-07 1.14443e-07 -2.08892e-07)
(-2.95634e-07 2.57513e-08 -7.01344e-09 -3.04033e-07 1.15512e-07 -2.10509e-07)
(-1.61895e-06 2.35666e-08 -1.87571e-09 -3.86238e-07 1.14773e-07 -1.76871e-07)
(-1.82086e-06 -1.55309e-08 3.79234e-09 -3.03483e-07 1.03526e-07 -2.52112e-07)
(-2.77772e-07 -1.90823e-08 9.19719e-09 -3.11264e-07 1.02931e-07 -2.90158e-07)
(-2.61182e-07 1.89854e-08 -8.18989e-09 -3.16148e-07 1.03879e-07 -2.92131e-07)
(-1.65712e-06 1.55792e-08 -3.53674e-09 -3.17578e-07 1.06447e-07 -2.57877e-07)
(-1.90551e-06 -2.22908e-09 4.84884e-09 -2.6069e-07 9.14181e-08 -3.23373e-07)
(-2.75938e-07 -1.15349e-08 9.76591e-09 -3.10413e-07 9.02241e-08 -3.6153e-07)
(-2.58812e-07 1.09061e-08 -8.88094e-09 -3.14991e-07 9.10256e-08 -3.63783e-07)
(-1.73644e-06 2.21256e-09 -4.628e-09 -2.73961e-07 9.38681e-08 -3.29955e-07)
(-2.07548e-06 2.85202e-08 5.22942e-09 -3.11593e-07 7.23107e-08 -3.86447e-07)
(-3.64351e-07 5.88013e-09 9.73205e-09 -3.2676e-07 7.16417e-08 -4.2418e-07)
(-3.46569e-07 -7.45715e-09 -8.9733e-09 -3.30963e-07 7.22632e-08 -4.26635e-07)
(-1.90006e-06 -2.89354e-08 -5.04054e-09 -3.23665e-07 7.42044e-08 -3.93611e-07)
(-2.3887e-06 8.75021e-08 4.57563e-09 -8.58287e-07 4.19399e-08 -4.30678e-07)
(-6.04659e-07 3.61261e-08 8.96258e-09 -7.03755e-07 4.12808e-08 -4.6767e-07)
(-5.86336e-07 -3.98331e-08 -8.43565e-09 -7.03094e-07 4.16757e-08 -4.70242e-07)
(-2.20695e-06 -8.87665e-08 -4.4497e-09 -8.57825e-07 4.3168e-08 -4.38177e-07)
(-2.98325e-06 1.20329e-07 3.40433e-09 -3.04914e-06 1.71548e-08 -4.35851e-07)
(-9.44784e-07 5.58327e-08 8.64781e-09 -2.61191e-06 1.50754e-08 -4.72772e-07)
(-9.25165e-07 -5.54177e-08 -8.62337e-09 -2.5746e-06 1.5198e-08 -4.75361e-07)
(-2.79489e-06 -1.19828e-07 -3.45829e-09 -2.94555e-06 1.75625e-08 -4.43404e-07)
(-1.61205e-06 3.46673e-08 -5.50707e-11 1.16016e-07 7.15442e-08 -2.21398e-08)
(-1.7576e-07 -8.61864e-08 2.77709e-09 -1.64315e-07 8.28532e-08 -3.0766e-08)
(-1.63097e-07 8.38314e-08 -2.26254e-09 -1.75536e-07 8.36804e-08 -3.11543e-08)
(-1.46126e-06 -3.01387e-08 1.62659e-10 7.3733e-08 7.41585e-08 -2.32869e-08)
(-1.68454e-06 -1.98228e-08 1.07071e-09 -4.07853e-07 8.34494e-08 -9.0217e-08)
(-3.05711e-07 -3.89164e-08 4.71335e-09 -2.79201e-07 8.84221e-08 -1.06816e-07)
(-2.89202e-07 3.94529e-08 -3.84897e-09 -2.86963e-07 8.92216e-08 -1.07778e-07)
(-1.5298e-06 2.04032e-08 -8.46807e-10 -4.25241e-07 8.59434e-08 -9.30373e-08)
(-1.7242e-06 -2.19855e-08 2.35467e-09 -3.72985e-07 8.7019e-08 -1.70497e-07)
(-3.05805e-07 -2.41574e-08 5.69158e-09 -3.04074e-07 8.77481e-08 -1.89636e-07)
(-2.89625e-07 2.44217e-08 -4.8309e-09 -3.09881e-07 8.84936e-08 -1.91017e-07)
(-1.56667e-06 2.1935e-08 -2.11618e-09 -3.8823e-07 8.93308e-08 -1.7456e-07)
(-1.76975e-06 -1.44232e-08 3.36859e-09 -2.99486e-07 8.1718e-08 -2.49994e-07)
(-2.76052e-07 -1.84547e-08 6.31184e-09 -3.08458e-07 8.0863e-08 -2.6944e-07)
(-2.59817e-07 1.81426e-08 -5.55974e-09 -3.13365e-07 8.15394e-08 -2.7115e-07)
(-1.60806e-06 1.43989e-08 -3.15965e-09 -3.1372e-07 8.38081e-08 -2.55047e-07)
(-1.85733e-06 -1.64666e-09 4.01578e-09 -2.50946e-07 6.95305e-08 -3.20803e-07)
(-2.781e-07 -1.13178e-08 6.61949e-09 -3.00449e-07 6.87109e-08 -3.39889e-07)
(-2.61292e-07 1.0559e-08 -5.98189e-09 -3.05106e-07 6.92962e-08 -3.41866e-07)
(-1.6901e-06 1.59116e-09 -3.84266e-09 -2.64506e-07 7.13288e-08 -3.26658e-07)
(-2.02904e-06 2.82781e-08 4.18194e-09 -3.0162e-07 5.06402e-08 -3.77143e-07)
(-3.68169e-07 5.50251e-09 6.54649e-09 -3.17129e-07 5.05187e-08 -3.95781e-07)
(-3.50661e-07 -7.16325e-09 -6.02764e-09 -3.21428e-07 5.09821e-08 -3.97962e-07)
(-1.85515e-06 -2.87079e-08 -4.04466e-09 -3.14017e-07 5.20638e-08 -3.83609e-07)
(-2.34178e-06 8.58979e-08 3.65639e-09 -8.44075e-07 2.63613e-08 -4.11448e-07)
(-6.06778e-07 3.49654e-08 6.03188e-09 -6.9334e-07 2.651e-08 -4.29848e-07)
(-5.88663e-07 -3.87396e-08 -5.70423e-09 -6.92774e-07 2.6809e-08 -4.32151e-07)
(-2.16108e-06 -8.71634e-08 -3.57861e-09 -8.43897e-07 2.73036e-08 -4.18291e-07)
(-2.93058e-06 1.17897e-07 2.81494e-09 -2.99076e-06 9.98781e-09 -4.16802e-07)
(-9.43213e-07 5.44315e-08 5.80048e-09 -2.56206e-06 9.06902e-09 -4.35912e-07)
(-9.23725e-07 -5.40666e-08 -5.85933e-09 -2.52486e-06 9.16304e-09 -4.38225e-07)
(-2.74264e-06 -1.17403e-07 -2.88375e-09 -2.88747e-06 1.03028e-08 -4.2371e-07)
(-1.58096e-06 3.44142e-08 -3.26244e-11 1.09513e-07 4.49267e-08 -2.7308e-08)
(-1.73298e-07 -8.44098e-08 1.3955e-09 -1.66548e-07 4.98505e-08 -3.15876e-08)
(-1.60847e-07 8.17334e-08 -1.0884e-09 -1.77505e-07 5.03276e-08 -3.19245e-08)
(-1.43148e-06 -3.01308e-08 1.02844e-10 6.82782e-08 4.64188e-08 -2.82934e-08)
(-1.65338e-06 -1.89481e-08 5.52576e-10 -4.06207e-07 5.14256e-08 -9.51373e-08)
(-3.03137e-07 -3.79805e-08 2.40526e-09 -2.80333e-07 5.33477e-08 -1.03155e-07)
(-2.86903e-07 3.82436e-08 -1.87492e-09 -2.87926e-07 5.38138e-08 -1.04007e-07)
(-1.50002e-06 1.94097e-08 -4.04928e-10 -4.23179e-07 5.28712e-08 -9.76132e-08)
(-1.69477e-06 -2.11303e-08 1.21966e-09 -3.71969e-07 5.40033e-08 -1.70871e-07)
(-3.05721e-07 -2.36096e-08 2.91663e-09 -3.04843e-07 5.40188e-08 -1.79828e-07)
(-2.89785e-07 2.36616e-08 -2.37828e-09 -3.10586e-07 5.44581e-08 -1.81071e-07)
(-1.53854e-06 2.10043e-08 -1.05979e-09 -3.87088e-07 5.53643e-08 -1.74505e-07)
(-1.74246e-06 -1.38187e-08 1.73814e-09 -2.98443e-07 5.09749e-08 -2.46316e-07)
(-2.78949e-07 -1.8144e-08 3.21691e-09 -3.0778e-07 5.03702e-08 -2.55053e-07)
(-2.62928e-07 1.76852e-08 -2.74467e-09 -3.12692e-07 5.07735e-08 -2.5661e-07)
(-1.58196e-06 1.37442e-08 -1.5969e-09 -3.12736e-07 5.22245e-08 -2.50906e-07)
(-1.83183e-06 -1.3538e-09 2.05802e-09 -2.49629e-07 4.27063e-08 -3.13447e-07)
(-2.8329e-07 -1.12354e-08 3.34696e-09 -2.98737e-07 4.22828e-08 -3.2171e-07)
(-2.6667e-07 1.03822e-08 -2.95233e-09 -3.03439e-07 4.26365e-08 -3.23529e-07)
(-1.66564e-06 1.26873e-09 -1.94202e-09 -2.63353e-07 4.37981e-08 -3.18835e-07)
(-2.00433e-06 2.80929e-08 2.11711e-09 -3.00758e-07 3.0013e-08 -3.65384e-07)
(-3.74156e-07 5.27327e-09 3.28601e-09 -3.16173e-07 3.01099e-08 -3.73371e-07)
(-3.56807e-07 -6.99627e-09 -2.97408e-09 -3.20533e-07 3.03933e-08 -3.75395e-07)
(-1.8313e-06 -2.85365e-08 -2.02769e-09 -3.1336e-07 3.08898e-08 -3.71404e-07)
(-2.3162e-06 8.49799e-08 1.81346e-09 -8.38709e-07 1.50039e-08 -3.96722e-07)
(-6.1149e-07 3.43564e-08 3.01416e-09 -6.89779e-07 1.53556e-08 -4.04862e-07)
(-5.93496e-07 -3.81789e-08 -2.82743e-09 -6.89274e-07 1.55403e-08 -4.07012e-07)
(-2.13608e-06 -8.62508e-08 -1.76533e-09 -8.38723e-07 1.55918e-08 -4.03151e-07)
(-2.90091e-06 1.16572e-07 1.31337e-09 -2.95701e-06 5.47043e-09 -4.05173e-07)
(-9.45485e-07 5.37093e-08 2.86103e-09 -2.53288e-06 5.17998e-09 -4.14166e-07)
(-9.26076e-07 -5.33791e-08 -2.91704e-09 -2.49573e-06 5.23866e-09 -4.16324e-07)
(-2.71318e-06 -1.16089e-07 -1.35999e-09 -2.85391e-06 5.66849e-09 -4.11676e-07)
(-1.56703e-06 3.43354e-08 -2.57761e-11 1.07385e-07 1.52795e-08 -2.95552e-08)
(-1.72311e-07 -8.36007e-08 4.11363e-10 -1.66945e-07 1.66782e-08 -3.21906e-08)
(-1.59959e-07 8.07804e-08 -3.09281e-10 -1.77771e-07 1.68341e-08 -3.25056e-08)
(-1.41816e-06 -3.01637e-08 4.99754e-11 6.66576e-08 1.57642e-08 -3.04664e-08)
(-1.63947e-06 -1.85664e-08 1.37634e-10 -4.04492e-07 1.73142e-08 -9.75987e-08)
(-3.02269e-07 -3.75742e-08 7.06906e-10 -2.79861e-07 1.78176e-08 -1.02326e-07)
(-2.86163e-07 3.77134e-08 -5.28203e-10 -2.87371e-07 1.79706e-08 -1.03128e-07)
(-1.48673e-06 1.89744e-08 -8.63446e-11 -4.21253e-07 1.77873e-08 -9.99076e-08)
(-1.68165e-06 -2.07626e-08 3.37009e-10 -3.70847e-07 1.81918e-08 -1.71051e-07)
(-3.06082e-07 -2.33834e-08 8.5854e-10 -3.04446e-07 1.81453e-08 -1.76088e-07)
(-2.9026e-07 2.33346e-08 -6.75175e-10 -3.10156e-07 1.82904e-08 -1.77266e-07)
(-1.52602e-06 2.06007e-08 -2.809e-10 -3.85897e-07 1.86408e-08 -1.74471e-07)
(-1.73034e-06 -1.35635e-08 4.92855e-10 -2.98256e-07 1.71981e-08 -2.43655e-07)
(-2.80697e-07 -1.80257e-08 9.45194e-10 -3.07675e-07 1.6991e-08 -2.48301e-07)
(-2.64775e-07 1.74925e-08 -7.83619e-10 -3.12588e-07 1.71249e-08 -2.49788e-07)
(-1.57039e-06 1.34633e-08 -4.42936e-10 -3.12569e-07 1.76134e-08 -2.48013e-07)
(-1.82052e-06 -1.23742e-09 5.87024e-10 -2.50198e-07 1.43326e-08 -3.08155e-07)
(-2.86061e-07 -1.12138e-08 9.79122e-10 -2.99051e-07 1.42082e-08 -3.12353e-07)
(-2.69526e-07 1.03098e-08 -8.44647e-10 -3.03773e-07 1.43263e-08 -3.14099e-07)
(-1.65481e-06 1.136e-09 -5.46049e-10 -2.63997e-07 1.46981e-08 -3.13312e-07)
(-1.99331e-06 2.80024e-08 6.01105e-10 -3.01672e-07 9.95507e-09 -3.57983e-07)
(-3.77233e-07 5.1715e-09 9.5695e-10 -3.1695e-07 1.00169e-08 -3.62042e-07)
(-3.59957e-07 -6.92905e-09 -8.51865e-10 -3.21339e-07 1.0112e-08 -3.63994e-07)
(-1.82067e-06 -2.84547e-08 -5.6979e-10 -3.14373e-07 1.02506e-08 -3.63783e-07)
(-2.30463e-06 8.45797e-08 5.04744e-10 -8.37019e-07 4.92815e-09 -3.88669e-07)
(-6.13926e-07 3.41096e-08 8.74204e-10 -6.88763e-07 5.0875e-09 -3.93065e-07)
(-5.95987e-07 -3.79583e-08 -8.12601e-10 -6.88289e-07 5.14981e-09 -3.95145e-07)
(-2.12477e-06 -8.58548e-08 -4.88061e-10 -8.37129e-07 5.12757e-09 -3.94894e-07)
(-2.88729e-06 1.1601e-07 3.38978e-10 -2.94163e-06 1.76719e-09 -3.99062e-07)
(-9.46728e-07 5.34165e-08 8.1966e-10 -2.51938e-06 1.71346e-09 -4.04285e-07)
(-9.27355e-07 -5.31045e-08 -8.40767e-10 -2.48226e-06 1.73335e-09 -4.06371e-07)
(-2.69966e-06 -1.15532e-07 -3.54943e-10 -2.83861e-06 1.83463e-09 -4.05368e-07)
)
;

boundaryField
{
    interface
    {
        type            calculated;
        value           nonuniform List<symmTensor> 
192
(
(-4.65523e-06 2.29988e-12 1.81004e-11 1.34542e-06 2.07622e-07 -2.85803e-06)
(-4.3601e-06 1.98739e-12 2.91992e-11 -4.50243e-07 2.36337e-08 -2.89478e-06)
(-4.45002e-06 1.16845e-13 3.30729e-11 -5.3207e-07 -3.33005e-09 -2.95387e-06)
(-4.58728e-06 -2.70575e-12 3.40552e-11 -4.83432e-07 5.32652e-09 -3.03087e-06)
(-4.75592e-06 -5.1517e-12 3.36828e-11 -4.9379e-07 2.48071e-08 -3.136e-06)
(-4.97983e-06 -9.48993e-12 3.27619e-11 -6.60948e-07 6.00865e-08 -3.28769e-06)
(-5.27096e-06 -1.27756e-11 3.02048e-11 -1.42393e-06 1.16074e-07 -3.52675e-06)
(-5.81345e-06 -2.85447e-11 2.82187e-11 -3.99004e-06 1.43488e-07 -3.98848e-06)
(-3.87443e-06 1.65198e-12 8.88689e-12 5.88174e-07 -2.60758e-09 -5.17384e-07)
(-3.67281e-06 1.47117e-12 1.53752e-11 -2.9181e-07 2.79149e-08 -8.19417e-07)
(-3.72431e-06 -1.93617e-13 1.72168e-11 -3.86057e-07 2.50202e-08 -8.68903e-07)
(-3.82921e-06 -3.07022e-12 1.73479e-11 -4.09126e-07 2.8649e-08 -8.80266e-07)
(-3.98181e-06 -5.65811e-12 1.67111e-11 -4.40314e-07 5.46775e-08 -9.10732e-07)
(-4.21001e-06 -1.04449e-11 1.57789e-11 -5.51528e-07 9.68014e-08 -9.87994e-07)
(-4.5481e-06 -1.40856e-11 1.41293e-11 -1.14974e-06 1.30726e-07 -1.1562e-06)
(-5.27391e-06 -3.06426e-11 1.28115e-11 -3.52793e-06 1.16847e-07 -1.425e-06)
(-3.39215e-06 1.41391e-12 6.98442e-12 2.85095e-07 7.42345e-08 -5.76941e-08)
(-3.30194e-06 1.21751e-12 1.19357e-11 -3.36528e-07 9.47572e-08 -2.18963e-07)
(-3.35966e-06 -4.13608e-13 1.33121e-11 -3.52779e-07 8.54597e-08 -3.00897e-07)
(-3.45833e-06 -3.43732e-12 1.33741e-11 -3.47431e-07 7.90352e-08 -3.36743e-07)
(-3.60956e-06 -6.27129e-12 1.28506e-11 -3.53627e-07 9.06209e-08 -3.7621e-07)
(-3.84742e-06 -1.15865e-11 1.20971e-11 -4.23929e-07 1.07993e-07 -4.50036e-07)
(-4.21382e-06 -1.57588e-11 1.08994e-11 -9.75124e-07 1.02105e-07 -5.64793e-07)
(-4.98773e-06 -3.34244e-11 9.89032e-12 -3.28957e-06 6.31506e-08 -6.60512e-07)
(-3.1025e-06 1.06542e-12 4.25609e-12 1.74947e-07 9.93889e-08 -6.4802e-09)
(-3.04993e-06 7.33656e-13 7.69595e-12 -3.84638e-07 1.20026e-07 -9.90699e-08)
(-3.11569e-06 -9.04607e-13 8.60645e-12 -3.61932e-07 1.15705e-07 -1.90092e-07)
(-3.21572e-06 -3.96402e-12 8.56315e-12 -3.15854e-07 1.06026e-07 -2.57685e-07)
(-3.36892e-06 -6.90778e-12 8.11623e-12 -2.90848e-07 1.01579e-07 -3.19225e-07)
(-3.61244e-06 -1.24518e-11 7.53032e-12 -3.45507e-07 9.39304e-08 -3.89803e-07)
(-3.99075e-06 -1.68622e-11 6.76537e-12 -8.93211e-07 6.66952e-08 -4.5914e-07)
(-4.77329e-06 -3.48034e-11 6.154e-12 -3.14272e-06 3.17072e-08 -4.8171e-07)
(-2.93227e-06 8.9837e-13 3.10618e-12 1.32849e-07 9.19609e-08 -1.33499e-08)
(-2.89e-06 4.32279e-13 5.61982e-12 -4.04312e-07 1.09598e-07 -8.55942e-08)
(-2.96025e-06 -1.26435e-12 6.29006e-12 -3.70847e-07 1.1146e-07 -1.72157e-07)
(-3.06319e-06 -4.38529e-12 6.25717e-12 -3.03483e-07 1.03526e-07 -2.52112e-07)
(-3.21915e-06 -7.44415e-12 5.92738e-12 -2.6069e-07 9.14181e-08 -3.23373e-07)
(-3.46589e-06 -1.31841e-11 5.49142e-12 -3.11593e-07 7.23107e-08 -3.86447e-07)
(-3.84791e-06 -1.7812e-11 4.9549e-12 -8.58287e-07 4.19399e-08 -4.30678e-07)
(-4.62573e-06 -3.60315e-11 4.51383e-12 -3.04914e-06 1.71548e-08 -4.35851e-07)
(-2.8328e-06 7.68222e-13 1.89188e-12 1.16016e-07 7.15442e-08 -2.21398e-08)
(-2.79375e-06 1.90104e-13 3.54126e-12 -4.07853e-07 8.34494e-08 -9.0217e-08)
(-2.86634e-06 -1.5603e-12 3.98471e-12 -3.72985e-07 8.7019e-08 -1.70497e-07)
(-2.97171e-06 -4.71852e-12 3.95349e-12 -2.99486e-07 8.1718e-08 -2.49994e-07)
(-3.12992e-06 -7.84211e-12 3.72577e-12 -2.50946e-07 6.95305e-08 -3.20803e-07)
(-3.37831e-06 -1.36817e-11 3.4318e-12 -3.0162e-07 5.06402e-08 -3.77143e-07)
(-3.76061e-06 -1.84233e-11 3.09953e-12 -8.44075e-07 2.63613e-08 -4.11448e-07)
(-4.53173e-06 -3.67828e-11 2.8365e-12 -2.99076e-06 9.98781e-09 -4.16802e-07)
(-2.77726e-06 7.04579e-13 1.10811e-12 1.09513e-07 4.49267e-08 -2.7308e-08)
(-2.73951e-06 4.98583e-14 2.07217e-12 -4.06207e-07 5.14256e-08 -9.51373e-08)
(-2.81329e-06 -1.74734e-12 2.33344e-12 -3.71969e-07 5.40033e-08 -1.70871e-07)
(-2.92023e-06 -4.93738e-12 2.31617e-12 -2.98443e-07 5.09749e-08 -2.46316e-07)
(-3.07986e-06 -8.11002e-12 2.18446e-12 -2.49629e-07 4.27063e-08 -3.13447e-07)
(-3.32894e-06 -1.40185e-11 2.01077e-12 -3.00758e-07 3.0013e-08 -3.65384e-07)
(-3.71058e-06 -1.88403e-11 1.82234e-12 -8.38709e-07 1.50039e-08 -3.96722e-07)
(-4.47662e-06 -3.73046e-11 1.66482e-12 -2.95701e-06 5.47043e-09 -4.05173e-07)
(-2.75225e-06 6.65113e-13 3.27448e-13 1.07385e-07 1.52795e-08 -2.95552e-08)
(-2.71504e-06 -2.88766e-14 6.354e-13 -4.04492e-07 1.73142e-08 -9.75987e-08)
(-2.78934e-06 -1.84669e-12 7.19985e-13 -3.70847e-07 1.81918e-08 -1.71051e-07)
(-2.89701e-06 -5.04708e-12 7.13143e-13 -2.98256e-07 1.71981e-08 -2.43655e-07)
(-3.05729e-06 -8.23967e-12 6.70112e-13 -2.50198e-07 1.43326e-08 -3.08155e-07)
(-3.30662e-06 -1.41736e-11 6.13327e-13 -3.01672e-07 9.95507e-09 -3.57983e-07)
(-3.68771e-06 -1.90322e-11 5.56927e-13 -8.37019e-07 4.92815e-09 -3.88669e-07)
(-4.45116e-06 -3.75401e-11 5.07304e-13 -2.94163e-06 1.76719e-09 -3.99062e-07)
(-2.7858e-06 1.84998e-07 -2.54763e-11 1.34542e-06 -6.02757e-12 -4.79173e-06)
(-2.85948e-06 -1.90423e-09 -4.31905e-11 -4.50243e-07 -7.11963e-12 -4.47454e-06)
(-2.92156e-06 -2.82857e-08 -5.00947e-11 -5.3207e-07 -5.92432e-12 -4.56558e-06)
(-2.97981e-06 -1.83548e-08 -5.24584e-11 -4.83432e-07 -4.30162e-12 -4.71178e-06)
(-3.07029e-06 -2.09181e-09 -5.31446e-11 -4.9379e-07 -3.60802e-12 -4.88688e-06)
(-3.22732e-06 2.87636e-08 -5.37122e-11 -6.60948e-07 -3.8573e-12 -5.10923e-06)
(-3.48898e-06 8.60318e-08 -5.45262e-11 -1.42393e-06 -4.7277e-12 -5.39355e-06)
(-3.95515e-06 1.16219e-07 -5.97059e-11 -3.99004e-06 -6.10848e-12 -5.93235e-06)
(-5.82353e-07 -4.38906e-08 -1.52592e-11 8.3947e-07 -3.58447e-12 -4.29345e-06)
(-9.89223e-07 -3.32424e-08 -2.91595e-11 -2.09262e-07 -5.32097e-12 -3.99741e-06)
(-1.03265e-06 -2.89064e-08 -3.41291e-11 -3.83455e-07 -4.53103e-12 -4.02309e-06)
(-9.92682e-07 -2.1601e-08 -3.55972e-11 -4.63532e-07 -2.74254e-12 -4.12668e-06)
(-9.85426e-07 -1.08463e-08 -3.6027e-11 -5.34823e-07 -1.57516e-12 -4.27794e-06)
(-1.07081e-06 8.39006e-09 -3.67786e-11 -6.71997e-07 -9.62947e-13 -4.49183e-06)
(-1.30439e-06 3.91043e-08 -3.86888e-11 -1.27465e-06 -1.08019e-12 -4.80766e-06)
(-1.63301e-06 5.54947e-08 -4.55649e-11 -3.65793e-06 -1.61725e-12 -5.53474e-06)
(-5.6759e-07 4.50885e-08 -1.53394e-11 8.22871e-07 -2.57258e-12 -4.22942e-06)
(-9.69571e-07 3.83733e-08 -2.95915e-11 -2.16069e-07 -4.19895e-12 -3.93501e-06)
(-1.01324e-06 3.38967e-08 -3.49003e-11 -3.88338e-07 -3.56995e-12 -3.9584e-06)
(-9.73372e-07 2.53243e-08 -3.65299e-11 -4.6779e-07 -1.66842e-12 -4.06021e-06)
(-9.65895e-07 1.32687e-08 -3.6934e-11 -5.38974e-07 -1.94698e-13 -4.21021e-06)
(-1.05118e-06 -7.67242e-09 -3.74681e-11 -6.75881e-07 9.95854e-13 -4.4229e-06)
(-1.28494e-06 -4.12533e-08 -3.89779e-11 -1.27377e-06 1.64107e-12 -4.73768e-06)
(-1.61287e-06 -5.45052e-08 -4.55371e-11 -3.62083e-06 1.7068e-12 -5.4664e-06)
(-2.61806e-06 -1.77739e-07 -1.7122e-11 1.28401e-06 -2.07426e-12 -4.61015e-06)
(-2.68451e-06 4.68082e-09 -3.40217e-11 -4.6467e-07 -3.51063e-12 -4.30022e-06)
(-2.74362e-06 3.02484e-08 -4.07439e-11 -5.4405e-07 -2.86876e-12 -4.38449e-06)
(-2.79863e-06 1.99578e-08 -4.29213e-11 -4.95104e-07 -8.53788e-13 -4.52555e-06)
(-2.88595e-06 3.20751e-09 -4.34327e-11 -5.05183e-07 7.41048e-13 -4.69711e-06)
(-3.04053e-06 -2.84554e-08 -4.40877e-11 -6.71576e-07 2.19932e-12 -4.91633e-06)
(-3.30123e-06 -8.69053e-08 -4.5237e-11 -1.42275e-06 3.27937e-12 -5.19817e-06)
(-3.76508e-06 -1.15591e-07 -5.20615e-11 -3.88879e-06 4.29776e-12 -5.74393e-06)
(-4.34927e-06 5.27825e-12 5.05549e-12 1.28401e-06 2.10549e-07 -2.76059e-06)
(-4.04945e-06 6.35064e-12 9.93281e-12 -4.6467e-07 2.71311e-08 -2.80008e-06)
(-4.13296e-06 4.12629e-12 1.14881e-11 -5.4405e-07 -9.06945e-10 -2.85643e-06)
(-4.26355e-06 5.21969e-13 1.21369e-11 -4.95104e-07 6.90115e-09 -2.93113e-06)
(-4.42629e-06 -1.38094e-12 1.25437e-11 -5.05183e-07 2.58586e-08 -3.03454e-06)
(-4.64552e-06 -4.02694e-12 1.39714e-11 -6.71576e-07 6.07774e-08 -3.18473e-06)
(-4.93434e-06 -3.81587e-12 1.50764e-11 -1.42275e-06 1.16367e-07 -3.42273e-06)
(-5.47359e-06 -1.81382e-11 1.879e-11 -3.88879e-06 1.43555e-07 -3.88805e-06)
(-3.56956e-06 2.11913e-12 -1.78795e-12 5.33868e-07 8.93426e-09 -5.11917e-07)
(-3.36975e-06 2.7538e-12 -1.31261e-12 -3.11014e-07 3.53012e-08 -8.13907e-07)
(-3.41582e-06 1.59707e-12 -1.69306e-12 -4.00131e-07 3.02095e-08 -8.64992e-07)
(-3.51363e-06 -5.61237e-13 -1.76462e-12 -4.21329e-07 3.23791e-08 -8.77314e-07)
(-3.65877e-06 -1.19369e-12 -1.4051e-12 -4.51804e-07 5.73015e-08 -9.08219e-07)
(-3.87968e-06 -2.81241e-12 5.75476e-14 -5.62189e-07 9.85101e-08 -9.85754e-07)
(-4.21261e-06 -1.09753e-12 1.87239e-12 -1.14853e-06 1.31541e-07 -1.15425e-06)
(-4.93503e-06 -1.45575e-11 4.79995e-12 -3.42268e-06 1.17075e-07 -1.42321e-06)
(-3.09718e-06 1.1651e-12 -7.6032e-13 2.35623e-07 8.22219e-08 -6.00255e-08)
(-3.00746e-06 1.35975e-12 3.26538e-13 -3.56078e-07 1.01241e-07 -2.23254e-07)
(-3.05949e-06 6.67886e-13 7.09696e-13 -3.6801e-07 9.06616e-08 -3.06933e-07)
(-3.15073e-06 -7.53636e-13 1.04088e-12 -3.60597e-07 8.31469e-08 -3.44101e-07)
(-3.29356e-06 -6.3879e-13 1.53326e-12 -3.65796e-07 9.37423e-08 -3.84374e-07)
(-3.52217e-06 -1.68663e-12 2.69521e-12 -4.35041e-07 1.10189e-07 -4.5866e-07)