/*--------------------------------*- C++ -*----------------------------------*\
| =========                 |                                                 |
| \\      /  F ield         | OpenFOAM: The Open Source CFD Toolbox           |
|  \\    /   O peration     | Version:  v1912                                 |
|   \\  /    A nd           | Website:  www.openfoam.com                      |
|    \\/     M anipulation  |                                                 |
\*---------------------------------------------------------------------------*/
FoamFile
{
    version     2.0;
    format      ascii;
    class       volVectorField;
    location    "0.68/solid";
    object      heatFlux;
}
// * * * * * * * * * * * * * * * * * * * * * * * * * * * * * * * * * * * * * //

dimensions      [1 0 -3 0 0 0 0];


internalField   nonuniform List<vector> 
256
(
(-66588.1 68652.5 -70400.3)
(-13172.2 39684.3 -68691.4)
(12087.1 39303.8 -67537)
(60753.3 66650.2 -66955.2)
(-64084.3 9282.67 -68190.6)
(-16176.5 5829.94 -69119.6)
(14878.8 5779.58 -67911.2)
(57953.3 9066.11 -64656.7)
(-65270.7 2129.24 -69476.2)
(-16675.2 1269.26 -70668.4)
(15323.3 1252.14 -69408.4)
(59008.2 2056.23 -65811)
(-67141.3 2139.97 -71372.3)
(-17053.6 1231.99 -72671.4)
(15665.8 1221.55 -71376.7)
(60747.2 2088.26 -67613.7)
(-69814.9 3620.51 -74052.2)
(-17593.7 2267.72 -75592)
(16179.6 2259.66 -74273.5)
(63301.7 3582.04 -70227.5)
(-73717.1 8432.76 -77984.2)
(-18414.5 6548.96 -80141.4)
(16980.1 6525.89 -78800.6)
(67102.6 8368.84 -74097.8)
(-78119.3 28082 -82555.5)
(-19500.5 26993.2 -86109.8)
(17999.4 26799.8 -84742.4)
(71402.7 27561.1 -78599.5)
(-73795.6 78837.3 -78757)
(-19696.7 84276.3 -84213.1)
(17548 82949.8 -82898.4)
(66767.2 75025.4 -74987.3)
(-62921.3 36182.7 -17758.6)
(-11728.3 9763.73 -15256.2)
(11158.3 9682.47 -15109.2)
(57377.9 35034.7 -17329.9)
(-63285.4 5355 -22135)
(-14771.9 1815.16 -19478.1)
(14112.6 1805.88 -19293.7)
(57546.2 5251.1 -21600.9)
(-64755.4 1216.38 -22805)
(-15277.4 342.313 -20136.1)
(14594.3 337.729 -19942.2)
(58890.4 1174.36 -22246.5)
(-66739.9 1224.05 -23244.6)
(-15650.6 294.897 -20562.5)
(14944.7 290.468 -20364.3)
(60736.6 1183.64 -22677.2)
(-69669.6 2251.52 -23861.4)
(-16211 772.311 -21194.8)
(15483 767.237 -20994.7)
(63525.2 2212.53 -23294.3)
(-74226.9 6427.17 -24819.7)
(-17134.9 4115.8 -22266.8)
(16384.9 4093.9 -22066.2)
(67942.4 6354.31 -24261.1)
(-80138.1 26322 -26296.7)
(-18544.2 24149.8 -24139)
(17721.5 23946.8 -23939.2)
(73708.2 25760 -25754.1)
(-78178.1 82680.2 -28050.4)
(-19510.1 86210.4 -26977.4)
(17995.1 84823.8 -26788.5)
(71409.7 78660.5 -27552.6)
(-56336.2 28758.9 -4238.48)
(-10522.8 4950.01 -2315.78)
(10013.3 4900.91 -2299.92)
(50973.1 27719.4 -4174.62)
(-57156.7 4236.26 -5497.66)
(-13335.3 949.998 -3187.63)
(12756.1 946.598 -3166.06)
(51615.9 4149.57 -5414.65)
(-58583.1 1019.62 -5666.56)
(-13812.4 184.898 -3310.72)
(13212.9 181.609 -3288.03)
(52916.4 979.942 -5580.58)
(-60508.2 1083.56 -5738.73)
(-14173.3 173.287 -3365.26)
(13551.1 169.047 -3342.3)
(54697.6 1040.45 -5653.39)
(-63411.7 2045.44 -5828.06)
(-14726.9 563.387 -3444.25)
(14080.1 557.715 -3421.51)
(57442.8 1998.11 -5746.9)
(-68031.8 5997.45 -5977.81)
(-15661 3604.82 -3602.31)
(14985.8 3581.38 -3580.39)
(61886.8 5909 -5906)
(-74302.1 24851.3 -6406.33)
(-17143 22282.7 -4112.64)
(16384.2 22077.5 -4092.44)
(67956 24269.6 -6350.95)
(-73853 78177.1 -8395.34)
(-18434.8 80299.2 -6532.5)
(16972.7 78927.6 -6514.2)
(67122.6 74193.5 -8358.1)
(-51947.5 26446.6 -1517.04)
(-9789.72 4260.33 -360.675)
(9299.48 4216.49 -357.313)
(46720.5 25445.4 -1488.55)
(-52762.3 3926.91 -1912.08)
(-12440.4 820.214 -501.224)
(11885.6 817.77 -496.602)
(47366.5 3845.15 -1876.14)
(-54135.1 975.306 -1958.52)
(-12898.9 164.675 -519.452)
(12324.4 161.488 -514.657)
(48614.4 935.625 -1921.75)
(-56022.3 1062.56 -1971.46)
(-13254.2 161.372 -524.879)
(12656.5 156.985 -520.121)
(50354.5 1017.31 -1935.51)
(-58901.3 2012.44 -1983.95)
(-13804.4 535.264 -532.62)
(13180.4 529.149 -528.061)
(53062.8 1959.92 -1950.63)
(-63512.5 5848.9 -2016.13)
(-14737.5 3447.41 -560.562)
(14081.2 3422.97 -556.486)
(57473.4 5750.27 -1988.38)
(-69850 23904.5 -2218.09)
(-16230.4 21219.6 -767.212)
(15483.2 21013 -764.207)
(63569 23307.9 -2200.95)
(-70060.1 74346.8 -3558.18)
(-17629 75837.6 -2238.23)
(16169.5 74473 -2236.71)
(63350.2 70379.5 -3555.38)
(-49304.8 25329.8 -783.435)
(-9363.03 4088.11 -107.918)
(8885.47 4046.99 -106.023)
(44170.6 24354.7 -764.576)
(-50092 3794.78 -967.953)
(-11919.8 791.221 -145.367)
(11381.2 789.254 -142.761)
(44794.8 3716.36 -944.068)
(-51436.7 960.247 -986.748)
(-12368.6 161.244 -149.435)
(11810.6 158.089 -146.741)
(46015.7 920.571 -962.303)
(-53307.1 1058.13 -989.85)
(-12721.9 160.119 -149.956)
(12140.5 155.643 -147.292)
(47735.6 1011.57 -965.956)
(-56173.7 2000.77 -992.735)
(-13271 527.704 -150.937)
(12662.1 521.35 -148.384)
(50423.3 1945.25 -970.437)
(-60767 5763.31 -1009.06)
(-14201.4 3370.23 -161.375)
(13558 3345.23 -159.085)
(54800.5 5658.67 -989.994)
(-67089.7 23309.2 -1134.24)
(-15689.1 20605 -272.596)
(14950.5 20397.3 -270.923)
(60855.9 22702.6 -1121.52)
(-67559.5 71835.5 -1978.96)
(-17113.3 73070.8 -1142.02)
(15655.6 71708.1 -1141.46)
(60866.1 67870.5 -1976.23)
(-47718.5 24695.2 -444.935)
(-9112.31 4007.04 -53.7097)
(8642.82 3967.7 -52.5171)
(42640.9 23736.8 -433.349)
(-48490.4 3723.6 -545.727)
(-11615.2 778.696 -71.1351)
(11086.9 777.052 -69.4792)
(43253.4 3647.42 -530.906)
(-49821.7 953.41 -555.04)
(-12058.9 160.086 -72.7995)
(11511.5 156.957 -71.083)
(44461.1 913.738 -539.849)
(-51684.3 1056.57 -555.961)
(-12411.6 159.87 -72.8353)
(11840.6 155.342 -71.1353)
(46170.2 1009.18 -541.119)
(-54543.4 1993.22 -557.43)
(-12960.1 523.846 -73.1529)
(12360.9 517.356 -71.5175)
(48844.5 1935.88 -543.558)
(-59118.1 5707.4 -568.627)
(-13887.5 3325.75 -78.8973)
(13252.6 3300.43 -77.4094)
(53193.5 5599.19 -556.638)
(-65406.4 22934.6 -647.893)
(-15367 20239 -142.923)
(14634.3 20030.6 -141.78)
(59199.5 22321.7 -639.614)
(-65976.3 70239.3 -1165.86)
(-16791.5 71369.4 -655.337)
(15335.3 70007.1 -654.889)
(59290.2 66273.1 -1163.8)
(-46809 24339.2 -232.81)
(-8970.61 3963.26 -27.347)
(8505.83 3925 -26.6901)
(41763.2 23390.5 -226.606)
(-47573.2 3684.68 -284.611)
(-11443.5 772.131 -36.0301)
(10921.4 770.688 -35.1109)
(42370 3609.86 -276.614)
(-48897.8 950.012 -289.145)
(-11884.6 159.543 -36.8151)
(11343.6 156.433 -35.8594)
(43571.1 910.359 -280.93)
(-50756.6 1055.74 -289.468)
(-12237.1 159.766 -36.8015)
(11672.2 155.208 -35.8539)
(45274.8 1007.86 -281.437)
(-53610.5 1988.11 -290.399)
(-12785.1 521.642 -36.9685)
(12191.7 515.075 -36.0551)
(47940.1 1929.73 -282.886)
(-58170.4 5672.85 -297.204)
(-13710.2 3300.46 -40.0319)
(13080.3 3274.97 -39.1951)
(52268.8 5562.62 -290.688)
(-64428.5 22712 -341.512)
(-15183 20028.6 -73.8438)
(14453.8 19819.8 -73.1832)
(58235.9 22095.4 -336.959)
(-65035.6 69285.7 -624.068)
(-16602.3 70371.9 -347.276)
(15147.1 69009.6 -346.989)
(58352.4 65318 -622.905)
(-46391.9 24177.7 -72.6807)
(-8906.19 3943.67 -8.46512)
(8443.57 3905.9 -8.25571)
(41360.4 23233.5 -70.7333)
(-47152.7 3667.26 -88.7228)
(-11365.7 769.228 -11.1318)
(10846.3 767.883 -10.8375)
(41964.8 3593.1 -86.2005)
(-48474.6 948.553 -90.0947)
(-11805.6 159.314 -11.3678)
(11267.4 156.214 -11.0612)
(43163.1 908.915 -87.4997)
(-50331.7 1055.32 -90.1817)
(-12158 159.717 -11.3609)
(11595.9 155.146 -11.0568)
(44864.3 1007.22 -87.645)
(-53182.8 1985.49 -90.5142)
(-12705.7 520.616 -11.4165)
(12114.9 514.015 -11.1232)
(47525.2 1926.63 -88.1418)
(-57734.8 5656.28 -92.8035)
(-13629.5 3288.88 -12.3865)
(13001.9 3263.3 -12.1174)
(51843.3 5545.12 -90.7467)
(-63976.1 22607.7 -107.082)
(-15098.7 19931.7 -22.9992)
(14371.2 19722.8 -22.7845)
(57789.6 21989.4 -105.644)
(-64595.2 68837.4 -197.078)
(-16514.4 69907.3 -109.242)
(15059.6 68544.9 -109.145)
(57912.8 64868.7 -196.72)
)
;

boundaryField
{
    interface
    {
        type            calculated;
        value           nonuniform List<vector> 
192
(
(-107173 68652.5 -70400.3)
(-96235.4 9282.67 -68190.6)
(-97632.6 2129.24 -69476.2)
(-100630 2139.97 -71372.3)
(-104905 3620.51 -74052.2)
(-111076 8432.76 -77984.2)
(-117746 28082 -82555.5)
(-109055 78837.3 -78757)
(-102460 36182.7 -17758.6)
(-97115.2 5355 -22135)
(-99048.8 1216.38 -22805)
(-102276 1224.05 -23244.6)
(-107019 2251.52 -23861.4)
(-114292 6427.17 -24819.7)
(-123333 26322 -26296.7)
(-117850 82680.2 -28050.4)
(-91673.9 28758.9 -4238.48)
(-87694.1 4236.26 -5497.66)
(-89595.2 1019.62 -5666.56)
(-92727.6 1083.56 -5738.73)
(-97431.7 2045.44 -5828.06)
(-104811 5997.45 -5977.81)
(-114427 24851.3 -6406.33)
(-111316 78177.1 -8395.34)
(-84358.2 26446.6 -1517.04)
(-80688.9 3926.91 -1912.08)
(-82520 975.306 -1958.52)
(-85587.8 1062.56 -1971.46)
(-90249.9 2012.44 -1983.95)
(-97613.7 5848.9 -2016.13)
(-107344 23904.5 -2218.09)
(-105339 74346.8 -3558.18)
(-79923.8 25329.8 -783.435)
(-76386.3 3794.78 -967.953)
(-78180.6 960.247 -986.748)
(-81218.5 1058.13 -989.85)
(-85858.5 2000.77 -992.735)
(-93192.1 5763.31 -1009.06)
(-102904 23309.2 -1134.24)
(-101369 71835.5 -1978.96)
(-77251.2 24695.2 -444.935)
(-73790.4 3723.6 -545.727)
(-75567.8 953.41 -555.04)
(-78591.6 1056.57 -555.961)
(-83217.8 1993.22 -557.43)
(-90520.3 5707.4 -568.627)
(-100180 22934.6 -647.893)
(-98845.6 70239.3 -1165.86)
(-75714.6 24339.2 -232.81)
(-72297.9 3684.68 -284.611)
(-74067.2 950.012 -289.145)
(-77083.8 1055.74 -289.468)
(-81700.6 1988.11 -290.399)
(-88978.5 5672.85 -297.204)
(-98591.8 22712 -341.512)
(-97342.1 69285.7 -624.068)
(-75008.8 24177.7 -72.6807)
(-71612.2 3667.26 -88.7228)
(-73378.3 948.553 -90.0947)
(-76391.6 1055.32 -90.1817)
(-81003.5 1985.49 -90.5142)
(-88268.1 5656.28 -92.8035)
(-97855.2 22607.7 -107.082)
(-96637 68837.4 -197.078)
(-66588.1 68652.5 -111724)
(-64084.3 9282.67 -100519)
(-65270.7 2129.24 -102020)
(-67141.3 2139.97 -105056)
(-69814.9 3620.51 -109340)
(-73717.1 8432.76 -115542)
(-78119.3 28082 -122336)
(-73795.6 78837.3 -113568)
(-13172.2 39684.3 -110927)
(-16176.5 5829.94 -104854)
(-16675.2 1269.26 -106851)
(-17053.6 1231.99 -110104)
(-17593.7 2267.72 -114824)
(-18414.5 6548.96 -122053)
(-19500.5 26993.2 -130994)
(-19696.7 84276.3 -124509)
(12087.1 39303.8 -108885)
(14878.8 5779.58 -102769)
(15323.3 1252.14 -104680)
(15665.8 1221.55 -107871)
(16179.6 2259.66 -112548)
(16980.1 6525.89 -119734)
(17999.4 26799.8 -128622)
(17548 82949.8 -122224)
(60753.3 66650.2 -105597)
(57953.3 9066.11 -94395.7)
(59008.2 2056.23 -95678.5)
(60747.2 2088.26 -98546.1)
(63301.7 3582.04 -102702)
(67102.6 8368.84 -108775)
(71402.7 27561.1 -115417)
(66767.2 75025.4 -106952)
(96991.5 66650.2 -66955.2)
(85728.9 9066.11 -64656.7)
(86928.1 2056.23 -65811)
(89708.6 2088.26 -67613.7)
(93781.7 3582.04 -70227.5)
(99774.6 8368.84 -74097.8)
(106298 27561.1 -78599.5)
(97581.2 75025.4 -74987.3)
(92364.9 35034.7 -17329.9)
(86779 5251.1 -21600.9)
(88499.4 1174.36 -22246.5)
(91486.6 1183.64 -22677.2)
(95982.7 2212.53 -23294.3)
(103007 6354.31 -24261.1)
(111828 25760 -25754.1)
(106316 78660.5 -27552.6)
(81872.5 27719.4 -4174.62)
(77668.5 4149.57 -5414.65)
(79353.1 979.942 -5580.58)
(82235.1 1040.45 -5653.39)
(86663.1 1998.11 -5746.9)
(93732.8 5909 -5906)
(103034 24269.6 -6350.95)
(99820.3 74193.5 -8358.1)
(74799.4 25445.4 -1488.55)
(70916.7 3845.15 -1876.14)
(72532.5 935.625 -1921.75)
(75344.5 1017.31 -1935.51)
(79708.7 1959.92 -1950.63)
(86720.7 5750.27 -1988.38)
(96066.5 23307.9 -2200.95)
(93884.5 70379.5 -3555.38)
(70530 24354.7 -764.576)
(66785.3 3716.36 -944.068)
(68366 920.571 -962.303)
(71142 1011.57 -965.956)
(75469.2 1945.25 -970.437)
(82423.9 5658.67 -989.994)
(91707.5 22702.6 -1121.52)
(89944.6 67870.5 -1976.23)
(67957.3 23736.8 -433.349)
(64293.1 3647.42 -530.906)
(65856.9 913.738 -539.849)
(68613.2 1009.18 -541.119)
(72916.1 1935.88 -543.558)
(79822.7 5599.19 -556.638)
(89028.6 22321.7 -639.614)
(87434.1 66273.1 -1163.8)
(66476.9 23390.5 -226.606)
(62858.6 3609.86 -276.614)
(64414.2 910.359 -280.93)
(67160.3 1007.86 -281.437)
(71447 1929.73 -282.886)
(78319.1 5562.62 -290.688)
(87463.4 22095.4 -336.959)
(85935.2 65318 -622.905)
(65796.3 23233.5 -70.7333)
(62198.9 3593.1 -86.2005)
(63751.1 908.915 -87.4997)
(66492.5 1007.22 -87.645)
(70771.2 1926.63 -88.1418)
(77625.3 5545.12 -90.7467)
(86736.4 21989.4 -105.644)
(85230.9 64868.7 -196.72)
(-73795.6 113696 -78757)
(-78178.1 122552 -28050.4)
(-73853 115882 -8395.34)
(-70060.1 109863 -3558.18)
(-67559.5 105879 -1978.96)
(-65976.3 103338 -1165.86)
(-65035.6 101816 -624.068)
(-64595.2 101099 -197.078)
(-19696.7 124617 -84213.1)
(-19510.1 131176 -26977.4)
(-18434.8 122340 -6532.5)
(-17629 115270 -2238.23)
(-17113.3 110825 -1142.02)
(-16791.5 108073 -655.337)
(-16602.3 106452 -347.276)
(-16514.4 105696 -109.242)
(17548 122313 -82898.4)
(17995.1 128771 -26788.5)
(16972.7 119967 -6514.2)
(16169.5 112913 -2236.71)
(15655.6 108473 -1141.46)
(15335.3 105722 -654.889)
(15147.1 104102 -346.989)
(15059.6 103345 -109.145)
(66767.2 107018 -74987.3)
(71409.7 115529 -27552.6)
(67122.6 108952 -8358.1)
(63350.2 102982 -3555.38)
(60866.1 99014.3 -1976.23)
(59290.2 96478.2 -1163.8)
(58352.4 94957.7 -622.905)
(57912.8 94241.3 -196.72)
)
;
    }
    symmetry
    {
        type            symmetry;
    }
    bottom
    {
        type            calculated;
        value           nonuniform List<vector> 
32
(
(-66588.1 121279 -70400.3)
(-62921.3 63124.6 -17758.6)
(-56336.2 50244.3 -4238.48)
(-51947.5 46170.6 -1517.04)
(-49304.8 44176.1 -783.435)
(-47718.5 43036.9 -444.935)
(-46809 42396.4 -232.81)
(-46391.9 42105.7 -72.6807)
(-13172.2 69272 -68691.4)
(-11728.3 16360 -15256.2)
(-10522.8 8247.27 -2315.78)
(-9789.72 7096.93 -360.675)
(-9363.03 6804.57 -107.918)
(-9112.31 6665.26 -53.7097)
(-8970.61 6589.73 -27.347)
(-8906.19 6555.87 -8.46512)
(12087.1 68590 -67537)
(11158.3 16211.4 -15109.2)
(10013.3 8153.26 -2299.92)
(9299.48 7011.77 -357.313)
(8885.47 6724 -106.023)
(8642.82 6587.67 -52.5171)
(8505.83 6513.94 -26.6901)
(8443.57 6480.91 -8.25571)
(60753.3 117620 -66955.2)
(57377.9 60993.4 -17329.9)
(50973.1 48300.7 -4174.62)
(46720.5 44294.9 -1488.55)
(44170.6 42346.5 -764.576)
(42640.9 41236.6 -433.349)
(41763.2 40613.1 -226.606)
(41360.4 40330.1 -70.7333)
)
;
    }
}


// ************************************************************************* //
