/*--------------------------------*- C++ -*----------------------------------*\
| =========                 |                                                 |
| \\      /  F ield         | OpenFOAM: The Open Source CFD Toolbox           |
|  \\    /   O peration     | Version:  v1912                                 |
|   \\  /    A nd           | Website:  www.openfoam.com                      |
|    \\/     M anipulation  |                                                 |
\*---------------------------------------------------------------------------*/
FoamFile
{
    version     2.0;
    format      ascii;
    class       volScalarField;
    location    "0.68/solid";
    object      T;
}
// * * * * * * * * * * * * * * * * * * * * * * * * * * * * * * * * * * * * * //

dimensions      [0 0 0 1 0 0 0];


internalField   nonuniform List<scalar> 
256
(
291.484
292.134
292.143
291.53
291.083
291.882
291.892
291.138
291.02
291.843
291.854
291.076
290.977
291.818
291.83
291.035
290.913
291.781
291.793
290.972
290.796
291.705
291.717
290.856
290.491
291.454
291.466
290.554
289.392
290.355
290.377
289.478
292.211
292.795
292.797
292.238
291.98
292.716
292.719
292.011
291.943
292.705
292.707
291.975
291.919
292.699
292.702
291.952
291.882
292.69
292.693
291.916
291.807
292.661
292.663
291.841
291.561
292.484
292.488
291.598
290.49
291.453
291.466
290.553
292.372
292.897
292.898
292.396
292.19
292.856
292.857
292.218
292.16
292.849
292.851
292.189
292.139
292.846
292.848
292.169
292.106
292.841
292.842
292.137
292.037
292.818
292.82
292.069
291.806
292.661
292.663
291.841
290.794
291.704
291.716
290.855
292.423
292.911
292.912
292.446
292.255
292.876
292.877
292.281
292.227
292.87
292.871
292.254
292.206
292.867
292.869
292.235
292.173
292.862
292.864
292.203
292.105
292.841
292.842
292.137
291.881
292.69
292.692
291.916
290.91
291.78
291.792
290.971
292.448
292.915
292.916
292.471
292.286
292.881
292.882
292.312
292.258
292.875
292.876
292.285
292.238
292.873
292.874
292.266
292.205
292.867
292.869
292.234
292.138
292.846
292.848
292.168
291.917
292.699
292.701
291.951
290.972
291.816
291.828
291.033
292.462
292.917
292.918
292.485
292.303
292.883
292.884
292.329
292.276
292.878
292.879
292.302
292.256
292.875
292.876
292.283
292.223
292.87
292.871
292.252
292.156
292.849
292.85
292.186
291.938
292.703
292.706
291.972
291.009
291.837
291.849
291.07
292.47
292.918
292.919
292.492
292.313
292.884
292.885
292.338
292.286
292.879
292.88
292.312
292.265
292.876
292.877
292.293
292.233
292.871
292.872
292.261
292.166
292.85
292.852
292.196
291.949
292.706
292.709
291.983
291.03
291.849
291.861
291.091
292.474
292.918
292.919
292.496
292.317
292.885
292.886
292.342
292.29
292.88
292.881
292.316
292.27
292.877
292.878
292.297
292.238
292.872
292.873
292.266
292.171
292.851
292.852
292.201
291.955
292.707
292.71
291.989
291.04
291.854
291.866
291.101
)
;

boundaryField
{
    interface
    {
        type            fixedValue;
        value           nonuniform List<scalar> 
192
(
290.144
289.876
289.794
289.713
289.595
289.401
289.011
288.021
290.929
290.762
290.701
290.636
290.539
290.372
290.011
289.009
291.226
291.091
291.037
290.977
290.884
290.722
290.37
289.396
291.368
291.244
291.192
291.133
291.042
290.882
290.534
289.587
291.449
291.329
291.278
291.22
291.129
290.969
290.626
289.699
291.496
291.379
291.329
291.271
291.18
291.021
290.68
289.768
291.523
291.408
291.358
291.299
291.209
291.051
290.712
289.808
291.536
291.421
291.371
291.313
291.222
291.064
290.727
289.827
290.088
289.824
289.74
289.659
289.541
289.346
288.955
287.966
290.748
290.568
290.504
290.438
290.342
290.174
289.81
288.792
290.782
290.605
290.542
290.478
290.382
290.216
289.853
288.843
290.212
289.957
289.878
289.8
289.685
289.493
289.106
288.137
290.32
290.065
289.988
289.911
289.797
289.605
289.22
288.254
291.084
290.925
290.867
290.806
290.714
290.551
290.196
289.22
291.375
291.247
291.196
291.14
291.052
290.896
290.55
289.604
291.513
291.395
291.347
291.292
291.206
291.051
290.712
289.795
291.591
291.477
291.43
291.376
291.29
291.137
290.803
289.906
291.637
291.525
291.479
291.425
291.34
291.187
290.857
289.975
291.663
291.553
291.507
291.453
291.368
291.216
290.888
290.015
291.675
291.565
291.519
291.466
291.381
291.23
290.902
290.033
287.964
288.951
289.34
289.532
289.644
289.713
289.753
289.772
288.791
289.807
290.17
290.335
290.427
290.482
290.514
290.529
288.842
289.85
290.212
290.376
290.468
290.524
290.556
290.571
288.136
289.104
289.49
289.681
289.793
289.861
289.902
289.921
)
;
    }
    symmetry
    {
        type            symmetry;
    }
    bottom
    {
        type            fixedValue;
        value           uniform 293;
    }
}


// ************************************************************************* //
