/*--------------------------------*- C++ -*----------------------------------*\
| =========                 |                                                 |
| \\      /  F ield         | OpenFOAM: The Open Source CFD Toolbox           |
|  \\    /   O peration     | Version:  v1912                                 |
|   \\  /    A nd           | Website:  www.openfoam.com                      |
|    \\/     M anipulation  |                                                 |
\*---------------------------------------------------------------------------*/
FoamFile
{
    version     2.0;
    format      ascii;
    class       surfaceScalarField;
    location    "0.62/fluid";
    object      phi;
}
// * * * * * * * * * * * * * * * * * * * * * * * * * * * * * * * * * * * * * //

dimensions      [0 3 -1 0 0 0 0];
oriented        oriented;


internalField   nonuniform List<scalar> 
41600
(
5.0186e-05
1.2512e-05
3.57916e-07
-5.55927e-07
4.03329e-05
1.02028e-05
5.68299e-07
-9.18057e-07
3.32509e-05
7.45164e-06
4.17957e-07
-7.87531e-07
2.90505e-05
4.51687e-06
2.26639e-08
-3.39139e-07
2.66496e-05
2.63276e-06
-5.54637e-07
3.22728e-07
2.52622e-05
1.53252e-06
-1.26834e-06
1.1232e-06
2.43406e-05
9.8741e-07
-2.12857e-06
2.06281e-06
2.35807e-05
7.48032e-07
-3.17298e-06
3.18483e-06
2.28156e-05
6.68749e-07
-4.46753e-06
4.56391e-06
2.19411e-05
6.51855e-07
-6.10272e-06
6.32533e-06
2.08818e-05
6.45011e-07
-8.22963e-06
8.64394e-06
1.9502e-05
5.5717e-07
-1.09866e-05
1.18092e-05
1.7597e-05
3.83583e-07
-1.47655e-05
1.6287e-05
1.4584e-05
-2.24245e-07
-1.92579e-05
2.24952e-05
9.19644e-06
-7.48781e-07
-2.45082e-05
3.06445e-05
-3.25981e-06
-2.00611e-05
3.25174e-05
6.49218e-05
1.03663e-05
4.79648e-07
-7.55785e-07
6.3922e-05
1.17241e-05
7.83915e-07
-1.30537e-06
6.18497e-05
1.01252e-05
5.98112e-07
-1.19934e-06
5.96117e-05
7.31786e-06
8.61931e-09
-5.7169e-07
5.76786e-05
5.01891e-06
-9.21043e-07
4.68072e-07
5.60832e-05
3.44539e-06
-2.12971e-06
1.81218e-06
5.46822e-05
2.57031e-06
-3.62236e-06
3.44046e-06
5.32974e-05
2.1806e-06
-5.45567e-06
5.40793e-06
5.17673e-05
2.104e-06
-7.7374e-06
7.83223e-06
4.99223e-05
2.20582e-06
-1.06254e-05
1.09165e-05
4.75838e-05
2.39931e-06
-1.43675e-05
1.49516e-05
4.43945e-05
2.57045e-06
-1.923e-05
2.0406e-05
3.98813e-05
2.68167e-06
-2.57612e-05
2.79763e-05
3.26325e-05
2.32704e-06
-3.35813e-05
3.82788e-05
2.12015e-05
1.67754e-06
-4.17638e-05
5.07685e-05
-1.48041e-06
-3.34088e-05
5.28309e-05
6.63524e-05
6.80939e-06
5.15461e-07
-8.10942e-07
6.87506e-05
9.89592e-06
8.46397e-07
-1.41641e-06
6.98223e-05
9.72259e-06
6.54456e-07
-1.32358e-06
6.97949e-05
7.98418e-06
2.7478e-08
-6.66351e-07
6.91691e-05
6.17125e-06
-9.72211e-07
4.45643e-07
6.8221e-05
4.77461e-06
-2.28721e-06
1.9061e-06
6.70663e-05
3.95624e-06
-3.92442e-06
3.69323e-06
6.56923e-05
3.63597e-06
-5.94568e-06
5.86428e-06
6.40147e-05
3.7038e-06
-8.46725e-06
8.54502e-06
6.18746e-05
4.053e-06
-1.16648e-05
1.19578e-05
5.90493e-05
4.60986e-06
-1.58071e-05
1.64218e-05
5.50868e-05
5.27391e-06
-2.12066e-05
2.24656e-05
4.93624e-05
6.00047e-06
-2.84415e-05
3.08471e-05
4.01699e-05
6.35738e-06
-3.71949e-05
4.2357e-05
2.58112e-05
6.00268e-06
-4.63379e-05
5.63714e-05
2.10209e-06
-3.74724e-05
5.97011e-05
6.52023e-05
4.40457e-06
5.32645e-07
-8.30128e-07
6.81245e-05
7.55454e-06
8.83086e-07
-1.46393e-06
7.03103e-05
8.22119e-06
6.99497e-07
-1.38385e-06
7.14548e-05
7.49463e-06
7.7338e-08
-7.32258e-07
7.17732e-05
6.39489e-06
-9.16405e-07
3.74357e-07
7.1491e-05
5.45213e-06
-2.22449e-06
1.82913e-06
7.07723e-05
4.9187e-06
-3.85404e-06
3.61027e-06
6.96716e-05
4.82882e-06
-5.86742e-06
5.77523e-06
6.81544e-05
5.15197e-06
-8.37979e-06
8.44885e-06
6.60819e-05
5.83865e-06
-1.15703e-05
1.18572e-05
6.32202e-05
6.85725e-06
-1.57072e-05
1.63216e-05
5.90712e-05
8.14977e-06
-2.11251e-05
2.23982e-05
5.29239e-05
9.69189e-06
-2.84043e-05
3.08602e-05
4.29442e-05
1.10157e-05
-3.73152e-05
4.26365e-05
2.72396e-05
1.12875e-05
-4.67233e-05
5.71431e-05
6.11992e-06
-3.81165e-05
6.13383e-05
6.4276e-05
2.92376e-06
5.51833e-07
-8.4699e-07
6.68474e-05
5.56326e-06
9.28484e-07
-1.50862e-06
6.9187e-05
6.56537e-06
7.67385e-07
-1.45119e-06
7.08161e-05
6.51894e-06
1.68482e-07
-8.21891e-07
7.17025e-05
6.04877e-06
-7.94788e-07
2.54521e-07
7.19466e-05
5.60254e-06
-2.06105e-06
1.66654e-06
7.16699e-05
5.44029e-06
-3.63334e-06
3.38845e-06
7.0933e-05
5.66188e-06
-5.56982e-06
5.47363e-06
6.97233e-05
6.3003e-06
-7.97828e-06
8.03962e-06
6.7919e-05
7.3694e-06
-1.10335e-05
1.13072e-05
6.52881e-05
8.89417e-06
-1.49903e-05
1.55843e-05
6.13002e-05
1.0895e-05
-2.01954e-05
2.1438e-05
5.51617e-05
1.34146e-05
-2.72071e-05
2.96229e-05
4.48623e-05
1.60259e-05
-3.59212e-05
4.12106e-05
2.82062e-05
1.75239e-05
-4.522e-05
5.56396e-05
1.09603e-05
-3.72242e-05
6.059e-05
6.37661e-05
1.95018e-06
5.73676e-07
-8.662e-07
6.59533e-05
3.9531e-06
9.82383e-07
-1.55946e-06
6.82063e-05
4.99267e-06
8.53777e-07
-1.53404e-06
7.00316e-05
5.34289e-06
2.89137e-07
-9.38361e-07
7.12598e-05
5.35693e-06
-6.3198e-07
9.55946e-08
7.18927e-05
5.36178e-06
-1.84186e-06
1.44968e-06
7.19979e-05
5.5805e-06
-3.33664e-06
3.09127e-06
7.16216e-05
6.13905e-06
-5.16716e-06
5.06628e-06
7.07572e-05
7.11387e-06
-7.43013e-06
7.481e-06
6.92916e-05
8.58114e-06
-1.02917e-05
1.05456e-05
6.69948e-05
1.06305e-05
-1.39856e-05
1.45461e-05
6.33049e-05
1.33999e-05
-1.88662e-05
2.00512e-05
5.73518e-05
1.70442e-05
-2.54508e-05
2.77742e-05
4.69118e-05
2.13157e-05
-3.37969e-05
3.89472e-05
2.94236e-05
2.47987e-05
-4.27947e-05
5.3008e-05
1.72301e-05
-3.57289e-05
5.88826e-05
6.35394e-05
1.20148e-06
5.99681e-07
-8.90337e-07
6.54991e-05
2.56788e-06
1.04588e-06
-1.62044e-06
6.76773e-05
3.49206e-06
9.5743e-07
-1.63494e-06
6.96104e-05
4.05626e-06
4.35641e-07
-1.08211e-06
7.10715e-05
4.43034e-06
-4.34024e-07
-1.00508e-07
7.20088e-05
4.81683e-06
-1.57572e-06
1.18335e-06
7.24575e-05
5.38094e-06
-2.97561e-06
2.72643e-06
7.24599e-05
6.24743e-06
-4.67259e-06
4.5618e-06
7.20272e-05
7.51562e-06
-6.7454e-06
6.77638e-06
7.10797e-05
9.31354e-06
-9.34018e-06
9.55523e-06
6.94344e-05
1.17884e-05
-1.26492e-05
1.31366e-05
6.65616e-05
1.52327e-05
-1.70056e-05
1.80456e-05
6.15964e-05
1.99649e-05
-2.28221e-05
2.48666e-05
5.19269e-05
2.638e-05
-3.03226e-05
3.49278e-05
3.42483e-05
3.33196e-05
-3.8288e-05
4.74457e-05
2.98584e-05
-3.25191e-05
5.41391e-05
6.3462e-05
6.28528e-07
-9.18398e-07
5.29343e-07
6.53442e-05
1.11571e-06
-1.68931e-06
1.25931e-06
6.75236e-05
1.07178e-06
-1.74844e-06
1.98934e-06
6.9558e-05
5.9772e-07
-1.24384e-06
2.66791e-06
7.12005e-05
-2.15513e-07
-3.19755e-07
3.32316e-06
7.2378e-05
-1.28373e-06
8.88577e-07
4.03449e-06
7.31145e-05
-2.58193e-06
2.32647e-06
4.89983e-06
7.34567e-05
-4.13544e-06
4.01248e-06
6.02827e-06
7.34341e-05
-6.00372e-06
6.01263e-06
7.5293e-06
7.29995e-05
-8.30986e-06
8.48361e-06
9.57435e-06
7.20173e-05
-1.12025e-05
1.16143e-05
1.23587e-05
7.00076e-05
-1.4986e-05
1.58767e-05
1.63518e-05
6.61868e-05
-1.99643e-05
2.17267e-05
2.20232e-05
5.77143e-05
-2.65447e-05
3.0597e-05
3.08001e-05
4.1065e-05
-3.34842e-05
4.16019e-05
4.18513e-05
-2.98913e-05
5.02326e-05
5.0582e-05
5.0122e-05
1.25176e-05
2.18325e-07
4.01486e-05
1.02199e-05
3.21736e-07
3.29356e-05
7.47147e-06
1.59487e-07
2.86132e-05
4.535e-06
-1.89866e-07
2.60959e-05
2.6515e-06
-6.88858e-07
2.45836e-05
1.55602e-06
-1.31209e-06
2.35105e-05
1.02007e-06
-2.07548e-06
2.2555e-05
7.92995e-07
-3.01048e-06
2.15299e-05
7.29982e-07
-4.17247e-06
2.03137e-05
7.33917e-07
-5.62043e-06
1.87999e-05
7.57661e-07
-7.47345e-06
1.68572e-05
7.14767e-07
-9.7587e-06
1.42281e-05
6.13615e-07
-1.275e-05
1.06106e-05
1.36332e-07
-1.57767e-05
5.03347e-06
-3.43513e-07
-1.85876e-05
-2.35669e-06
-1.2671e-05
6.48318e-05
1.03798e-05
2.8569e-07
6.36585e-05
1.17576e-05
4.19548e-07
6.13734e-05
1.01711e-05
1.83478e-07
5.89114e-05
7.36937e-06
-3.63693e-07
5.67492e-05
5.0779e-06
-1.18522e-06
5.49066e-05
3.51879e-06
-2.24987e-06
5.32141e-05
2.66788e-06
-3.57767e-06
5.14612e-05
2.31183e-06
-5.22165e-06
4.94476e-05
2.28038e-06
-7.27423e-06
4.69642e-05
2.43932e-06
-9.84737e-06
4.37772e-05
2.70898e-06
-1.31318e-05
3.95207e-05
2.9722e-06
-1.72309e-05
3.36662e-05
3.20371e-06
-2.24968e-05
2.52741e-05
2.97041e-06
-2.80233e-05
1.33638e-05
2.31552e-06
-3.25125e-05
-8.33474e-07
-2.15683e-05
6.62609e-05
6.82705e-06
3.07298e-07
6.84773e-05
9.9397e-06
4.47872e-07
6.93209e-05
9.78898e-06
1.9299e-07
6.90462e-05
8.06743e-06
-3.9586e-07
6.81623e-05
6.27326e-06
-1.28368e-06
6.69336e-05
4.90422e-06
-2.44399e-06
6.545e-05
4.12775e-06
-3.90068e-06
6.36636e-05
3.86601e-06
-5.71341e-06
6.14459e-05
4.01349e-06
-7.98271e-06
5.85913e-05
4.46539e-06
-1.08362e-05
5.48142e-05
5.1581e-06
-1.44792e-05
4.96451e-05
5.98331e-06
-1.90485e-05
4.23994e-05
6.91137e-06
-2.49035e-05
3.18781e-05
7.42746e-06
-3.11306e-05
1.69426e-05
7.06316e-06
-3.615e-05
2.63919e-06
-2.40025e-05
6.51126e-05
4.42505e-06
3.22011e-07
6.78543e-05
7.6059e-06
4.7525e-07
6.9814e-05
8.30363e-06
2.25094e-07
7.07138e-05
7.60505e-06
-3.60061e-07
7.07766e-05
6.53616e-06
-1.24206e-06
7.02165e-05
5.63502e-06
-2.39519e-06
6.91723e-05
5.16165e-06
-3.8438e-06
6.76635e-05
5.15571e-06
-5.64835e-06
6.5611e-05
5.59466e-06
-7.90838e-06
6.28268e-05
6.43416e-06
-1.07549e-05
5.90106e-05
7.65841e-06
-1.43914e-05
5.36402e-05
9.20131e-06
-1.89727e-05
4.59342e-05
1.10651e-05
-2.4852e-05
3.45646e-05
1.26497e-05
-3.11679e-05
1.82069e-05
1.29929e-05
-3.62954e-05
6.83819e-06
-2.41087e-05
6.41883e-05
2.94711e-06
3.41468e-07
6.65823e-05
5.622e-06
5.18373e-07
6.87021e-05
6.66209e-06
2.89196e-07
7.00961e-05
6.6529e-06
-2.73445e-07
7.07395e-05
6.22429e-06
-1.12627e-06
7.07213e-05
5.83239e-06
-2.24025e-06
7.01387e-05
5.7468e-06
-3.63584e-06
6.90183e-05
6.07592e-06
-5.36969e-06
6.73045e-05
6.86475e-06
-7.53454e-06
6.48263e-05
8.13722e-06
-1.02583e-05
6.12841e-05
9.9427e-06
-1.37325e-05
5.61154e-05
1.22991e-05
-1.81244e-05
4.84414e-05
1.52981e-05
-2.37661e-05
3.67308e-05
1.83385e-05
-2.98993e-05
1.93091e-05
2.01051e-05
-3.49105e-05
1.21102e-05
-2.3187e-05
6.36803e-05
1.97669e-06
3.63818e-07
6.56943e-05
4.01902e-06
5.71395e-07
6.7735e-05
5.10186e-06
3.73263e-07
6.93372e-05
5.49633e-06
-1.56478e-07
7.03383e-05
5.56048e-06
-9.69329e-07
7.07294e-05
5.63027e-06
-2.03079e-06
7.05545e-05
5.93981e-06
-3.35473e-06
6.98277e-05
6.62669e-06
-4.99119e-06
6.85017e-05
7.78355e-06
-7.0229e-06
6.64153e-05
9.50317e-06
-9.57131e-06
6.32717e-05
1.19101e-05
-1.28094e-05
5.8468e-05
1.51524e-05
-1.69158e-05
5.10371e-05
1.94652e-05
-2.2187e-05
3.91906e-05
2.43977e-05
-2.80096e-05
2.08094e-05
2.84831e-05
-3.27915e-05
1.9053e-05
-2.18623e-05
6.34558e-05
1.23085e-06
3.89752e-07
6.52475e-05
2.63976e-06
6.33405e-07
6.72225e-05
3.6107e-06
4.73543e-07
6.89463e-05
4.22369e-06
-1.54852e-08
7.01991e-05
4.6536e-06
-7.79953e-07
7.09197e-05
5.11221e-06
-1.77819e-06
7.1122e-05
5.77666e-06
-3.01479e-06
7.08198e-05
6.78578e-06
-4.52946e-06
6.99891e-05
8.25825e-06
-6.38944e-06
6.85083e-05
1.03452e-05
-8.70142e-06
6.61369e-05
1.32377e-05
-1.16053e-05
6.23007e-05
1.72576e-05
-1.52746e-05
5.60398e-05
2.28339e-05
-1.993e-05
4.5075e-05
3.01799e-05
-2.51399e-05
2.6404e-05
3.81671e-05
-2.9301e-05
3.25497e-05
-1.96118e-05
6.33808e-05
4.17769e-07
5.608e-07
6.51007e-05
7.00587e-07
1.33494e-06
6.7087e-05
5.83e-07
2.11321e-06
6.89266e-05
1.39092e-07
2.84274e-06
7.03805e-05
-5.72522e-07
3.55675e-06
7.13678e-05
-1.50249e-06
4.34365e-06
7.18937e-05
-2.64516e-06
5.31393e-06
7.19802e-05
-4.02851e-06
6.59238e-06
7.16278e-05
-5.70297e-06
8.3099e-06
7.07538e-05
-7.75786e-06
1.06672e-05
6.91769e-05
-1.02976e-05
1.39097e-05
6.63715e-05
-1.34853e-05
1.85622e-05
6.14769e-05
-1.74608e-05
2.5225e-05
5.18838e-05
-2.19978e-05
3.52261e-05
3.42681e-05
-2.55457e-05
4.78443e-05
-1.77492e-05
5.46757e-05
5.00722e-05
1.2523e-05
1.23131e-07
4.00022e-05
1.02353e-05
1.56458e-07
3.26765e-05
7.49009e-06
-4.90039e-09
2.82405e-05
4.55261e-06
-3.06413e-07
2.5608e-05
2.66973e-06
-7.26093e-07
2.39686e-05
1.57835e-06
-1.25103e-06
2.27409e-05
1.05023e-06
-1.89799e-06
2.15869e-05
8.33598e-07
-2.69014e-06
2.02985e-05
7.84139e-07
-3.66823e-06
1.87351e-05
8.04772e-07
-4.86176e-06
1.67603e-05
8.51375e-07
-6.35007e-06
1.42553e-05
8.39363e-07
-8.093e-06
1.09829e-05
7.78369e-07
-1.0256e-05
7.01422e-06
3.67836e-07
-1.21759e-05
2.09421e-06
-1.54132e-07
-1.35134e-05
-1.98494e-06
-8.59182e-06
6.47611e-05
1.03932e-05
1.54301e-07
6.34477e-05
1.17895e-05
1.78707e-07
6.09808e-05
1.02157e-05
-7.52153e-08
5.83147e-05
7.42023e-06
-5.65238e-07
5.5933e-05
5.13624e-06
-1.27e-06
5.38468e-05
3.59046e-06
-2.17577e-06
5.18656e-05
2.76155e-06
-3.30776e-06
4.97512e-05
2.43618e-06
-4.70983e-06
4.72679e-05
2.44602e-06
-6.45286e-06
4.41731e-05
2.65684e-06
-8.60461e-06
4.01903e-05
2.99445e-06
-1.1292e-05
3.4974e-05
3.33684e-06
-1.45122e-05
2.8045e-05
3.66322e-06
-1.84526e-05
1.90574e-05
3.51008e-06
-2.21779e-05
7.99539e-06
2.79574e-06
-2.44004e-05
-4.70222e-07
-1.50876e-05
6.61894e-05
6.84521e-06
1.6595e-07
6.82591e-05
9.98292e-06
1.84742e-07
6.8908e-05
9.85434e-06
-9.45888e-08
6.84092e-05
8.14965e-06
-6.26504e-07
6.72797e-05
6.37369e-06
-1.39155e-06
6.57765e-05
5.03046e-06
-2.38084e-06
6.39688e-05
4.29272e-06
-3.62417e-06
6.17789e-05
4.08506e-06
-5.17232e-06
5.90391e-05
4.3063e-06
-7.10327e-06
5.55046e-05
4.85278e-06
-9.49759e-06
5.08417e-05
5.66949e-06
-1.24913e-05
4.45955e-05
6.63843e-06
-1.61039e-05
3.61308e-05
7.74025e-06
-2.05158e-05
2.4885e-05
8.38261e-06
-2.47573e-05
1.07932e-05
7.99064e-06
-2.72532e-05
3.10225e-06
-1.67818e-05
6.50429e-05
4.44626e-06
1.78024e-07
6.76395e-05
7.65717e-06
2.04442e-07
6.94068e-05
8.38495e-06
-7.2835e-08
7.00851e-05
7.71348e-06
-6.0215e-07
6.99046e-05
6.67413e-06
-1.36202e-06
6.90725e-05
5.81204e-06
-2.34465e-06
6.77073e-05
5.3946e-06
-3.58047e-06
6.57985e-05
5.46667e-06
-5.12122e-06
6.32273e-05
6.01327e-06
-7.04408e-06
5.97638e-05
6.994e-06
-9.4327e-06
5.50556e-05
8.40714e-06
-1.24208e-05
4.85874e-05
1.01757e-05
-1.60417e-05
3.9617e-05
1.23252e-05
-2.04666e-05
2.74574e-05
1.41341e-05
-2.47598e-05
1.18895e-05
1.45526e-05
-2.72894e-05
7.62968e-06
-1.67466e-05
6.41206e-05
2.97097e-06
1.96183e-07
6.63728e-05
5.68025e-06
2.43049e-07
6.83059e-05
6.75673e-06
-1.56899e-08
6.94873e-05
6.78322e-06
-5.24558e-07
6.98991e-05
6.39417e-06
-1.25808e-06
6.96234e-05
6.05339e-06
-2.2059e-06
6.87376e-05
6.03958e-06
-3.39511e-06
6.72397e-05
6.46915e-06
-4.87425e-06
6.50348e-05
7.39843e-06
-6.7148e-06
6.19093e-05
8.85971e-06
-8.9985e-06
5.75086e-05
1.09247e-05
-1.18493e-05
5.12676e-05
1.36046e-05
-1.53124e-05
4.2332e-05
1.70365e-05
-1.95417e-05
2.97922e-05
2.04597e-05
-2.36851e-05
1.30538e-05
2.25042e-05
-2.61237e-05
1.34726e-05
-1.59762e-05
6.36144e-05
2.00314e-06
2.17266e-07
6.54907e-05
4.08348e-06
2.91877e-07
6.7352e-05
5.20751e-06
6.11881e-08
6.87524e-05
5.64418e-06
-4.17895e-07
6.95369e-05
5.7559e-06
-1.11554e-06
6.96894e-05
5.8869e-06
-2.01682e-06
6.92356e-05
6.28185e-06
-3.14315e-06
6.81619e-05
7.08913e-06
-4.53752e-06
6.63838e-05
8.41673e-06
-6.26307e-06
6.36975e-05
1.03718e-05
-8.39716e-06
5.97504e-05
1.31117e-05
-1.10493e-05
5.39273e-05
1.67889e-05
-1.4277e-05
4.52707e-05
2.17144e-05
-1.82083e-05
3.25779e-05
2.72543e-05
-2.21115e-05
1.47398e-05
3.19545e-05
-2.44038e-05
2.12824e-05
-1.49322e-05
6.3392e-05
1.25944e-06
2.41407e-07
6.50511e-05
2.70896e-06
3.48849e-07
6.68552e-05
3.72425e-06
1.52741e-07
6.839e-05
4.38362e-06
-2.89766e-07
6.94438e-05
4.86646e-06
-9.44277e-07
6.99492e-05
5.39316e-06
-1.78988e-06
6.99039e-05
6.15242e-06
-2.84007e-06
6.92971e-05
7.29605e-06
-4.12953e-06
6.80722e-05
8.96128e-06
-5.70911e-06
6.60692e-05
1.13199e-05
-7.64645e-06
6.29978e-05
1.46051e-05
-1.00273e-05
5.82643e-05
1.91614e-05
-1.29136e-05
5.09091e-05
2.55247e-05
-1.63852e-05
3.91505e-05
3.37437e-05
-1.98706e-05
2.08281e-05
4.281e-05
-2.18341e-05
3.59133e-05
-1.34147e-05
6.33194e-05
2.67084e-07
5.90738e-07
6.49123e-05
4.10047e-07
1.40663e-06
6.67369e-05
2.52064e-07
2.23052e-06
6.84013e-05
-1.50007e-07
3.00837e-06
6.96748e-05
-7.57519e-07
3.77796e-06
7.0472e-05
-1.543e-06
4.63643e-06
7.07843e-05
-2.51121e-06
5.70621e-06
7.06124e-05
-3.68734e-06
7.12672e-06
6.99302e-05
-5.10896e-06
9.0495e-06
6.86221e-05
-6.83192e-06
1.1702e-05
6.64668e-05
-8.91627e-06
1.53791e-05
6.29152e-05
-1.1425e-05
2.06528e-05
5.71091e-05
-1.4387e-05
2.8257e-05
4.68338e-05
-1.74104e-05
3.94315e-05
2.94701e-05
-1.90669e-05
5.36949e-05
-1.21522e-05
5.97863e-05
5.0034e-05
1.25279e-05
6.12171e-08
3.98877e-05
1.02488e-05
5.38936e-08
3.24696e-05
7.50681e-06
-9.36264e-08
2.79377e-05
4.56891e-06
-3.43342e-07
2.52073e-05
2.68702e-06
-6.82736e-07
2.3463e-05
1.59968e-06
-1.10641e-06
2.21155e-05
1.07913e-06
-1.62967e-06
2.08211e-05
8.73058e-07
-2.26881e-06
1.9367e-05
8.38137e-07
-3.05218e-06
1.76172e-05
8.78527e-07
-3.99056e-06
1.54449e-05
9.54654e-07
-5.13234e-06
1.27742e-05
9.88676e-07
-6.411e-06
9.43257e-06
9.99193e-07
-7.91359e-06
5.6284e-06
7.15702e-07
-9.08741e-06
1.4071e-06
3.03088e-07
-9.59522e-06
-1.36444e-06
-5.82028e-06
6.47063e-05
1.04057e-05
7.02739e-08
6.32815e-05
1.18184e-05
3.38317e-08
6.06651e-05
1.02562e-05
-2.08204e-07
5.78267e-05
7.46705e-06
-6.24943e-07
5.52573e-05
5.19026e-06
-1.20387e-06
5.29656e-05
3.65662e-06
-1.94099e-06
5.07506e-05
2.84754e-06
-2.86116e-06
4.83621e-05
2.55017e-06
-3.99845e-06
4.55529e-05
2.59849e-06
-5.40401e-06
4.20814e-05
2.85951e-06
-7.11413e-06
3.76834e-05
3.26622e-06
-9.20558e-06
3.20842e-05
3.6987e-06
-1.1623e-05
2.4923e-05
4.14961e-06
-1.44418e-05
1.61624e-05
4.15324e-06
-1.68549e-05
6.25544e-06
3.55344e-06
-1.77438e-05
2.60721e-07
-1.04573e-05
6.61339e-05
6.86233e-06
7.54475e-08
6.80871e-05
1.00227e-05
2.72589e-08
6.85759e-05
9.9143e-06
-2.41554e-07
6.78879e-05
8.22525e-06
-6.96694e-07
6.65482e-05
6.46589e-06
-1.32744e-06
6.48126e-05
5.14561e-06
-2.13418e-06
6.27402e-05
4.44198e-06
-3.14627e-06
6.02402e-05
4.28197e-06
-4.40407e-06
5.71315e-05
4.56848e-06
-5.96463e-06
5.31681e-05
5.19949e-06
-7.87415e-06
4.80287e-05
6.12892e-06
-1.02146e-05
4.13335e-05
7.2348e-06
-1.29448e-05
3.25801e-05
8.51333e-06
-1.61262e-05
2.15571e-05
9.32785e-06
-1.89089e-05
8.73852e-06
9.03794e-06
-1.9919e-05
3.86373e-06
-1.16463e-05
6.49891e-05
4.46634e-06
8.48966e-08
6.74707e-05
7.70467e-06
4.08669e-08
6.90801e-05
8.45971e-06
-2.27624e-07
6.95714e-05
7.81284e-06
-6.8108e-07
6.9183e-05
6.79988e-06
-1.30757e-06
6.81205e-05
5.9721e-06
-2.10866e-06
6.64932e-05
5.60328e-06
-3.11444e-06
6.42775e-05
5.74268e-06
-4.36627e-06
6.13409e-05
6.38163e-06
-5.92065e-06
5.74517e-05
7.4825e-06
-7.82646e-06
5.22682e-05
9.05516e-06
-1.01636e-05
4.53485e-05
1.1014e-05
-1.29012e-05
3.60815e-05
1.34046e-05
-1.6091e-05
2.41338e-05
1.54206e-05
-1.89049e-05
9.83888e-06
1.59567e-05
-1.99133e-05
8.52272e-06
-1.15667e-05
6.40685e-05
2.99336e-06
1.00612e-07
6.62089e-05
5.73404e-06
7.33643e-08
6.79892e-05
6.84341e-06
-1.79694e-07
6.89913e-05
6.90189e-06
-6.15738e-07
6.92051e-05
6.54785e-06
-1.21986e-06
6.87114e-05
6.25165e-06
-1.99175e-06
6.75788e-05
6.29964e-06
-2.95883e-06
6.57926e-05
6.81456e-06
-4.15996e-06
6.32451e-05
7.86146e-06
-5.64718e-06
5.97201e-05
9.47743e-06
-7.46838e-06
5.48723e-05
1.17497e-05
-9.69607e-06
4.82045e-05
1.46791e-05
-1.23098e-05
3.89843e-05
1.84315e-05
-1.53484e-05
2.66416e-05
2.21255e-05
-1.80473e-05
1.11152e-05
2.43491e-05
-1.89896e-05
1.46214e-05
-1.09597e-05
6.3564e-05
2.02762e-06
1.19043e-07
6.5332e-05
4.1425e-06
1.1539e-07
6.70468e-05
5.30361e-06
-1.13852e-07
6.82775e-05
5.77784e-06
-5.24534e-07
6.88767e-05
5.93141e-06
-1.0983e-06
6.88274e-05
6.11546e-06
-1.83125e-06
6.81466e-05
6.58334e-06
-2.74612e-06
6.68096e-05
7.49153e-06
-3.87744e-06
6.47195e-05
8.95917e-06
-5.27072e-06
6.16697e-05
1.11012e-05
-6.9711e-06
5.73156e-05
1.40952e-05
-9.04058e-06
5.11027e-05
1.8085e-05
-1.147e-05
4.21847e-05
2.34222e-05
-1.42809e-05
2.96764e-05
2.93243e-05
-1.6802e-05
1.29589e-05
3.43194e-05
-1.76564e-05
2.28118e-05
-1.01637e-05
6.33435e-05
1.28549e-06
1.40002e-07
6.48988e-05
2.77168e-06
1.64409e-07
6.65639e-05
3.82667e-06
-3.54237e-08
6.79399e-05
4.52716e-06
-4.15109e-07
6.88233e-05
5.05641e-06
-9.52618e-07
6.91461e-05
5.64189e-06
-1.6392e-06
6.88991e-05
6.4816e-06
-2.49126e-06
6.80612e-05
7.73685e-06
-3.53695e-06
6.65661e-05
9.55771e-06
-4.81261e-06
6.42514e-05
1.21268e-05
-6.35733e-06
6.0835e-05
1.57012e-05
-8.21695e-06
5.57749e-05
2.06222e-05
-1.03908e-05
4.82089e-05
2.74747e-05
-1.28717e-05
3.66301e-05
3.61474e-05
-1.51149e-05
1.92848e-05
4.5641e-05
-1.58104e-05
3.78178e-05
-9.13592e-06
6.32729e-05
1.62089e-07
6.17598e-07
6.47669e-05
2.16812e-07
1.47093e-06
6.64607e-05
4.9388e-08
2.33548e-06
6.79779e-05
-2.96099e-07
3.15605e-06
6.90967e-05
-7.94152e-07
3.97425e-06
6.9732e-05
-1.43067e-06
4.89427e-06
6.98693e-05
-2.21501e-06
6.04811e-06
6.95014e-05
-3.16809e-06
7.58555e-06
6.85944e-05
-4.31622e-06
9.67191e-06
6.70319e-05
-5.69102e-06
1.25484e-05
6.46019e-05
-7.3209e-06
1.65358e-05
6.07985e-05
-9.21136e-06
2.2212e-05
5.48502e-05
-1.13267e-05
3.03627e-05
4.47684e-05
-1.3264e-05
4.20829e-05
2.82563e-05
-1.38334e-05
5.69195e-05
-8.28965e-06
6.22115e-05
5.00042e-05
1.25321e-05
2.48995e-08
3.97984e-05
1.02599e-05
-1.19502e-10
3.23059e-05
7.52058e-06
-1.21716e-07
2.76943e-05
4.58248e-06
-3.14212e-07
2.48807e-05
2.70136e-06
-5.70546e-07
2.30463e-05
1.61713e-06
-8.89146e-07
2.15963e-05
1.10242e-06
-1.28208e-06
2.01828e-05
9.04391e-07
-1.75971e-06
1.85903e-05
8.80286e-07
-2.33994e-06
1.6688e-05
9.34907e-07
-3.02313e-06
1.436e-05
1.03163e-06
-3.83595e-06
1.15668e-05
1.09667e-06
-4.71453e-06
8.20077e-06
1.15379e-06
-5.70134e-06
4.56912e-06
9.48347e-07
-6.4041e-06
9.24319e-07
5.92613e-07
-6.54303e-06
-1.02157e-06
-3.8744e-06
6.46634e-05
1.04164e-05
2.26052e-08
6.31512e-05
1.18428e-05
-3.68797e-08
6.04145e-05
1.02905e-05
-2.41398e-07
5.7434e-05
7.50692e-06
-5.68854e-07
5.47069e-05
5.23632e-06
-1.01179e-06
5.22409e-05
3.71275e-06
-1.57061e-06
4.98282e-05
2.92e-06
-2.26596e-06
4.72106e-05
2.64556e-06
-3.122e-06
4.41343e-05
2.72523e-06
-4.17271e-06
4.03626e-05
3.02676e-06
-5.43432e-06
3.56491e-05
3.48852e-06
-6.94892e-06
2.97826e-05
3.99131e-06
-8.65116e-06
2.25174e-05
4.53732e-06
-1.05601e-05
1.404e-05
4.65366e-06
-1.20828e-05
5.11727e-06
4.12822e-06
-1.23566e-05
7.5288e-07
-7.1145e-06
6.60905e-05
6.87719e-06
2.40886e-08
6.79521e-05
1.00569e-05
-4.84222e-08
6.83123e-05
9.96563e-06
-2.76851e-07
6.74684e-05
8.29009e-06
-6.36035e-07
6.59525e-05
6.54491e-06
-1.12007e-06
6.402e-05
5.24391e-06
-1.73288e-06
6.17239e-05
4.56874e-06
-2.49892e-06
5.89646e-05
4.4483e-06
-3.44751e-06
5.55535e-05
4.78884e-06
-4.61709e-06
5.12478e-05
5.48932e-06
-6.03104e-06
4.57454e-05
6.51054e-06
-7.73417e-06
3.87349e-05
7.72644e-06
-9.66952e-06
2.98428e-05
9.14483e-06
-1.18416e-05
1.91157e-05
1.00912e-05
-1.36194e-05
7.38989e-06
9.87576e-06
-1.39408e-05
4.4455e-06
-7.94899e-06
6.49472e-05
4.48391e-06
3.10096e-08
6.73386e-05
7.74577e-06
-3.95215e-08
6.88211e-05
8.52406e-06
-2.68523e-07
6.91586e-05
7.89822e-06
-6.26712e-07
6.85958e-05
6.90772e-06
-1.10755e-06
6.73382e-05
6.10885e-06
-1.71601e-06
6.5489e-05
5.78074e-06
-2.47727e-06
6.30163e-05
5.97627e-06
-3.4215e-06
5.97794e-05
6.69187e-06
-4.58684e-06
5.55494e-05
7.89176e-06
-5.99884e-06
5.00023e-05
9.59468e-06
-7.70063e-06
4.27634e-05
1.1707e-05
-9.64278e-06
3.33497e-05
1.42892e-05
-1.18218e-05
2.16896e-05
1.64672e-05
-1.36207e-05
8.49096e-06
1.70939e-05
-1.39328e-05
9.25318e-06
-7.88348e-06
6.40281e-05
3.01297e-06
4.34451e-08
6.60809e-05
5.78061e-06
-1.42818e-08
6.77387e-05
6.91802e-06
-2.31391e-07
6.85933e-05
7.00375e-06
-5.75946e-07
6.86411e-05
6.67942e-06
-1.0393e-06
6.79625e-05
6.42082e-06
-1.62516e-06
6.66205e-05
6.52067e-06
-2.35672e-06
6.45923e-05
7.10686e-06
-3.26236e-06
6.17625e-05
8.25149e-06
-4.377e-06
5.79167e-05
9.995e-06
-5.7258e-06
5.27256e-05
1.24365e-05
-7.34688e-06
4.57547e-05
1.5567e-05
-9.19893e-06
3.63924e-05
1.95732e-05
-1.127e-05
2.43216e-05
2.34797e-05
-1.2989e-05
9.8449e-06
2.58419e-05
-1.3261e-05
1.55878e-05
-7.44942e-06
6.35249e-05
2.04892e-06
5.81428e-08
6.52086e-05
4.1934e-06
1.89097e-08
6.68063e-05
5.38609e-06
-1.79553e-07
6.78975e-05
5.89225e-06
-5.04236e-07
6.83412e-05
6.08131e-06
-9.43927e-07
6.81203e-05
6.31012e-06
-1.49967e-06
6.72468e-05
6.83924e-06
-2.19117e-06
6.56881e-05
7.83177e-06
-3.04363e-06
6.33404e-05
9.41575e-06
-4.08728e-06
5.99982e-05
1.17118e-05
-5.34567e-06
5.53311e-05
1.49129e-05
-6.84987e-06
4.88416e-05
1.91543e-05
-8.5677e-06
3.97945e-05
2.48162e-05
-1.04769e-05
2.75425e-05
3.10027e-05
-1.2073e-05
1.18025e-05
3.62239e-05
-1.22985e-05
2.4112e-05
-6.88533e-06
6.33062e-05
1.30796e-06
7.47952e-08
6.47808e-05
2.82549e-06
5.76444e-08
6.6335e-05
3.91426e-06
-1.17775e-07
6.75808e-05
4.64967e-06
-4.18247e-07
6.8321e-05
5.21823e-06
-8.298e-07
6.84885e-05
5.85335e-06
-1.34988e-06
6.80692e-05
6.76074e-06
-1.99347e-06
6.70358e-05
8.10941e-06
-2.78124e-06
6.53162e-05
1.00598e-05
-3.73701e-06
6.2749e-05
1.28025e-05
-4.88088e-06
5.90655e-05
1.6613e-05
-6.23365e-06
5.37723e-05
2.18282e-05
-7.7714e-06
4.61062e-05
2.90669e-05
-9.45636e-06
3.47695e-05
3.80982e-05
-1.08737e-05
1.82907e-05
4.79227e-05
-1.10303e-05
3.94748e-05
-6.20807e-06
6.32372e-05
9.22468e-08
6.40553e-07
6.46548e-05
9.89384e-08
1.52576e-06
6.62447e-05
-5.10893e-08
2.42488e-06
6.76415e-05
-3.24879e-07
3.28167e-06
6.86304e-05
-7.05854e-07
4.14103e-06
6.91274e-05
-1.18743e-06
5.11308e-06
6.91148e-05
-1.77934e-06
6.3377e-06
6.85801e-05
-2.4971e-06
7.97311e-06
6.74855e-05
-3.35755e-06
1.01957e-05
6.57161e-05
-4.3763e-06
1.32572e-05
6.30734e-05
-5.56312e-06
1.7498e-05
5.90926e-05
-6.90102e-06
2.34986e-05
5.30893e-05
-8.33751e-06
3.2081e-05
4.32484e-05
-9.55778e-06
4.42329e-05
2.74957e-05
-9.67513e-06
5.95171e-05
-5.65332e-06
6.43341e-05
4.99828e-05
1.25353e-05
6.74852e-09
3.97336e-05
1.02685e-05
-1.93501e-08
3.21861e-05
7.53131e-06
-1.05596e-07
2.75154e-05
4.59328e-06
-2.36753e-07
2.46405e-05
2.71294e-06
-4.08632e-07
2.27415e-05
1.63137e-06
-6.21496e-07
2.12214e-05
1.1216e-06
-8.83524e-07
1.97319e-05
9.30531e-07
-1.20075e-06
1.80592e-05
9.16079e-07
-1.58341e-06
1.60804e-05
9.83864e-07
-2.02816e-06
1.36926e-05
1.09994e-06
-2.54807e-06
1.08791e-05
1.19397e-06
-3.09496e-06
7.56992e-06
1.29434e-06
-3.68654e-06
4.08669e-06
1.15436e-06
-4.07524e-06
7.56029e-07
8.53869e-07
-4.06623e-06
-7.49396e-07
-2.36897e-06
6.46323e-05
1.04248e-05
8.24447e-10
6.30561e-05
1.18618e-05
-5.39772e-08
6.02301e-05
1.03173e-05
-2.0142e-07
5.71434e-05
7.53837e-06
-4.27196e-07
5.42987e-05
5.27275e-06
-7.26908e-07
5.17047e-05
3.75718e-06
-1.1024e-06
4.91512e-05
2.9773e-06
-1.56818e-06
4.63783e-05
2.72105e-06
-2.13963e-06
4.3133e-05
2.82577e-06
-2.83709e-06
3.91886e-05
3.16005e-06
-3.66612e-06
3.43199e-05
3.66675e-06
-4.64704e-06
2.83609e-05
4.22787e-06
-5.72603e-06
2.114e-05
4.85356e-06
-6.89848e-06
1.29273e-05
5.06402e-06
-7.77985e-06
4.60637e-06
4.60943e-06
-7.79118e-06
1.15171e-06
-4.40924e-06
6.60591e-05
6.88899e-06
7.44301e-10
6.78536e-05
1.00838e-05
-6.4791e-08
6.81181e-05
1.0006e-05
-2.30094e-07
6.71577e-05
8.34117e-06
-4.78399e-07
6.55099e-05
6.6071e-06
-8.06652e-07
6.34321e-05
5.32107e-06
-1.21902e-06
6.09755e-05
4.66783e-06
-1.73284e-06
5.80383e-05
4.57784e-06
-2.36708e-06
5.44322e-05
4.95987e-06
-3.1451e-06
4.99246e-05
5.71371e-06
-4.07706e-06
4.42363e-05
6.80547e-06
-5.18456e-06
3.71063e-05
8.10651e-06
-6.41822e-06
2.82466e-05
9.6337e-06
-7.76198e-06
1.78089e-05
1.06855e-05
-8.80314e-06
6.76772e-06
1.05371e-05
-8.82723e-06
4.91087e-06
-4.94043e-06
6.49169e-05
4.49791e-06
5.24121e-09
6.72423e-05
7.77828e-06
-5.94737e-08
6.86306e-05
8.57477e-06
-2.25575e-07
6.8853e-05
7.96539e-06
-4.73346e-07
6.81597e-05
6.9923e-06
-7.99483e-07
6.67581e-05
6.21562e-06
-1.20893e-06
6.47497e-05
5.91851e-06
-1.71957e-06
6.21006e-05
6.15648e-06
-2.35101e-06
5.86705e-05
6.9296e-06
-3.12649e-06
5.42399e-05
8.20316e-06
-4.05765e-06
4.85076e-05
1.00021e-05
-5.16501e-06
4.11487e-05
1.22266e-05
-6.40401e-06
3.1766e-05
1.49477e-05
-7.75304e-06
2.03938e-05
1.72444e-05
-8.80751e-06
7.88182e-06
1.79387e-05
-8.82231e-06
9.80456e-06
-4.89535e-06
6.3999e-05
3.02855e-06
1.38343e-08
6.59878e-05
5.81742e-06
-4.22565e-08
6.75547e-05
6.97675e-06
-2.00293e-07
6.82992e-05
7.08369e-06
-4.38704e-07
6.82228e-05
6.78227e-06
-7.52866e-07
6.74078e-05
6.55233e-06
-1.14691e-06
6.59158e-05
6.69131e-06
-1.63746e-06
6.37221e-05
7.33072e-06
-2.24294e-06
6.07118e-05
8.54741e-06
-2.98455e-06
5.66795e-05
1.03835e-05
-3.87384e-06
5.13174e-05
1.29456e-05
-4.92826e-06
4.42376e-05
1.62163e-05
-6.10878e-06
3.49095e-05
2.03947e-05
-7.38889e-06
2.3116e-05
2.4442e-05
-8.39317e-06
9.29326e-06
2.68865e-05
-8.38604e-06
1.62653e-05
-4.61687e-06
6.34969e-05
2.06577e-06
2.40398e-08
6.5119e-05
4.23352e-06
-1.93493e-08
6.663e-05
5.45085e-06
-1.64575e-07
6.7617e-05
5.98178e-06
-3.89334e-07
6.79445e-05
6.19807e-06
-6.87295e-07
6.75972e-05
6.46082e-06
-1.06085e-06
6.65858e-05
7.03584e-06
-1.52428e-06
6.48762e-05
8.09065e-06
-2.09397e-06
6.23652e-05
9.75918e-06
-2.78807e-06
5.88557e-05
1.21646e-05
-3.61729e-06
5.40373e-05
1.5509e-05
-4.59483e-06
4.74552e-05
1.99186e-05
-5.68792e-06
3.84489e-05
2.57886e-05
-6.86445e-06
2.64616e-05
3.21479e-05
-7.79162e-06
1.13272e-05
3.74844e-05
-7.76206e-06
2.49626e-05
-4.25551e-06
6.32794e-05
1.32563e-06
3.55838e-08
6.46954e-05
2.86771e-06
7.40203e-09
6.61677e-05
3.98282e-06
-1.21986e-07
6.73161e-05
4.74522e-06
-3.30151e-07
6.79494e-05
5.34389e-06
-6.08914e-07
6.80021e-05
6.01651e-06
-9.58281e-07
6.74596e-05
6.97436e-06
-1.38944e-06
6.62933e-05
8.39151e-06
-1.91585e-06
6.44322e-05
1.04349e-05
-2.55169e-06
6.17226e-05
1.32992e-05
-3.30582e-06
5.79141e-05
1.72694e-05
-4.18556e-06
5.25507e-05
2.2675e-05
-5.16434e-06
4.49351e-05
3.01505e-05
-6.20256e-06
3.38478e-05
3.93853e-05
-7.02374e-06
1.79091e-05
4.93626e-05
-6.96982e-06
4.05091e-05
-3.84549e-06
6.32117e-05
4.76437e-08
6.58484e-07
6.45739e-05
3.58833e-08
1.56859e-06
6.60871e-05
-7.60513e-08
2.49461e-06
6.7394e-05
-2.65939e-07
3.37935e-06
6.82857e-05
-5.23852e-07
4.27015e-06
6.86805e-05
-8.47115e-07
5.28142e-06
6.85604e-05
-1.24344e-06
6.55859e-06
6.79124e-05
-1.72299e-06
8.2654e-06
6.67003e-05
-2.29556e-06
1.05851e-05
6.48165e-05
-2.96755e-06
1.37742e-05
6.20795e-05
-3.73996e-06
1.81833e-05
5.80568e-05
-4.59165e-06
2.43882e-05
5.21208e-05
-5.4764e-06
3.32254e-05
4.25194e-05
-6.18056e-06
4.56095e-05
2.7241e-05
-6.12339e-06
6.10892e-05
-3.50918e-06
6.5606e-05
4.99686e-05
1.25375e-05
6.69172e-10
3.96905e-05
1.02743e-05
-1.55759e-08