/*--------------------------------*- C++ -*----------------------------------*\
| =========                 |                                                 |
| \\      /  F ield         | OpenFOAM: The Open Source CFD Toolbox           |
|  \\    /   O peration     | Version:  v1912                                 |
|   \\  /    A nd           | Website:  www.openfoam.com                      |
|    \\/     M anipulation  |                                                 |
\*---------------------------------------------------------------------------*/
FoamFile
{
    version     2.0;
    format      ascii;
    class       volVectorField;
    location    "0.62/fluid";
    object      U;
}
// * * * * * * * * * * * * * * * * * * * * * * * * * * * * * * * * * * * * * //

dimensions      [0 1 -1 0 0 0 0];


internalField   nonuniform List<vector> 
14592
(
(0.0877202 0.0172976 0.000626967)
(0.0722919 0.0117081 0.00101642)
(0.0573088 0.00729743 0.000814542)
(0.0490353 0.00356264 0.000218581)
(0.0440016 0.00162841 -0.00065975)
(0.0412851 0.000690001 -0.00173863)
(0.0395658 0.000304835 -0.0030274)
(0.0383314 0.000149556 -0.00458527)
(0.0371175 8.20682e-05 -0.00651588)
(0.0359135 1.70829e-05 -0.00897967)
(0.0342559 -8.05104e-05 -0.0122272)
(0.0326457 -0.00031179 -0.0165928)
(0.0295987 -0.000654633 -0.0227865)
(0.026994 -0.00154148 -0.0309894)
(0.0190713 -0.00208823 -0.0417867)
(0.0107952 -0.00507643 -0.0399407)
(0.104 0.0179076 0.000845939)
(0.103739 0.0174068 0.00142352)
(0.100771 0.0139513 0.00120586)
(0.09713 0.00931712 0.000340836)
(0.0936667 0.00587873 -0.00105754)
(0.0909122 0.00368073 -0.00287624)
(0.0885631 0.00251364 -0.00510887)
(0.0864278 0.00198797 -0.00783855)
(0.0841142 0.00183047 -0.0112311)
(0.0815629 0.00184773 -0.0155533)
(0.0781438 0.00192486 -0.0212123)
(0.0742075 0.00190378 -0.0287707)
(0.0676759 0.00174837 -0.0392321)
(0.0602707 0.000901163 -0.0528947)
(0.0433664 -5.93452e-05 -0.0691117)
(0.0250733 -0.00416977 -0.0642269)
(0.103991 0.0118246 0.00090854)
(0.108433 0.0158263 0.00154121)
(0.111435 0.0147871 0.00132611)
(0.112009 0.011477 0.000412185)
(0.111336 0.00838661 -0.00108773)
(0.110011 0.00611447 -0.0030648)
(0.1083 0.00479349 -0.00551355)
(0.10632 0.00421155 -0.00852296)
(0.103885 0.00415224 -0.0122711)
(0.100983 0.00442632 -0.0170517)
(0.0969684 0.00490298 -0.0233074)
(0.092075 0.00541587 -0.0316797)
(0.0840086 0.00589359 -0.0432399)
(0.0743111 0.00574183 -0.0584828)
(0.0533279 0.00486069 -0.0765869)
(0.0299641 3.69515e-06 -0.0723816)
(0.102123 0.00759909 0.000934569)
(0.106636 0.0123191 0.00160052)
(0.111234 0.0128772 0.00140019)
(0.113775 0.0112374 0.000493907)
(0.114866 0.00917511 -0.000997705)
(0.114811 0.00747506 -0.00296539)
(0.113958 0.00646773 -0.00540397)
(0.112519 0.00613824 -0.00840289)
(0.110418 0.00639111 -0.0121388)
(0.107697 0.00711275 -0.0169106)
(0.103716 0.0082248 -0.0231624)
(0.0986764 0.00960901 -0.0315733)
(0.0901454 0.0112112 -0.0432289)
(0.0795907 0.0123931 -0.0588032)
(0.0568797 0.0122934 -0.0775184)
(0.0310247 0.00601643 -0.0742737)
(0.101093 0.0049714 0.000960973)
(0.104686 0.00916705 0.00166573)
(0.109125 0.0104954 0.00149807)
(0.112291 0.010065 0.000624855)
(0.114301 0.00900211 -0.000823074)
(0.115148 0.00802321 -0.00272991)
(0.115076 0.00751478 -0.00508478)
(0.114273 0.00758845 -0.00797099)
(0.1127 0.00825265 -0.0115544)
(0.110436 0.00947971 -0.0161272)
(0.106853 0.0112567 -0.0221138)
(0.102158 0.013535 -0.0302115)
(0.093785 0.0162964 -0.0414771)
(0.0831272 0.0188445 -0.0567921)
(0.0594357 0.0196717 -0.0754065)
(0.0316031 0.0111906 -0.0732883)
(0.100637 0.00335895 0.000990947)
(0.103494 0.00666152 0.00174168)
(0.10748 0.00818076 0.00162065)
(0.110796 0.00847609 0.00079645)
(0.113285 0.00820242 -0.000590638)
(0.114746 0.00791331 -0.00241521)
(0.115303 0.00796228 -0.00465663)
(0.115094 0.00852184 -0.0073873)
(0.114081 0.00967846 -0.0107568)
(0.112362 0.0115013 -0.0150433)
(0.109316 0.0140776 -0.0206398)
(0.105156 0.0175209 -0.0282513)
(0.0971874 0.0219788 -0.0388732)
(0.0867457 0.0269497 -0.0536349)
(0.0623294 0.0305341 -0.0717747)
(0.0326563 0.0204657 -0.071157)
(0.100467 0.0021953 0.0010273)
(0.102928 0.00458551 0.00183166)
(0.106607 0.00601865 0.00176839)
(0.109975 0.00671676 0.00100588)
(0.11276 0.00702951 -0.000306559)
(0.114669 0.00733165 -0.00203142)
(0.115752 0.00790342 -0.0041336)
(0.116117 0.00892947 -0.00666733)
(0.115742 0.0105392 -0.00975486)
(0.114766 0.0128775 -0.0136412)
(0.112637 0.0161069 -0.0186534)
(0.109647 0.0204968 -0.0254482)
(0.103115 0.0263225 -0.0348427)
(0.0944293 0.0333469 -0.0481665)
(0.070567 0.0394059 -0.0643486)
(0.0399471 0.0274617 -0.065486)
(0.100413 0.00122445 0.00106836)
(0.10273 0.00272002 0.00193162)
(0.106316 0.00391457 0.00193255)
(0.109773 0.00482101 0.00123904)
(0.112794 0.00557273 8.69739e-06)
(0.115047 0.00637095 -0.00160893)
(0.116555 0.00740569 -0.0035621)
(0.117416 0.00884801 -0.00588456)
(0.117633 0.0108527 -0.00866922)
(0.117376 0.0136435 -0.0121233)
(0.11617 0.0174836 -0.0165044)
(0.114374 0.0229605 -0.0224084)
(0.109393 0.0307311 -0.0304701)
(0.102852 0.0423353 -0.042239)
(0.080362 0.0566657 -0.0565062)
(0.0522835 0.0613873 -0.0610576)
(0.087689 0.0173003 0.000393306)
(0.0721126 0.0117208 0.000602117)
(0.0569033 0.00730873 0.000375492)
(0.0484307 0.0035689 -0.000153791)
(0.0432079 0.00163282 -0.000918475)
(0.0403065 0.000695604 -0.001871)
(0.0383727 0.000313832 -0.00303129)
(0.0368676 0.000162467 -0.00444843)
(0.0352992 0.000100262 -0.00620838)
(0.0336163 4.28614e-05 -0.00841294)
(0.0313511 -3.86813e-05 -0.0112488)
(0.0288794 -0.000234704 -0.0147975)
(0.0249442 -0.000503633 -0.0194919)
(0.0207989 -0.0012018 -0.0243838)
(0.0128058 -0.00164769 -0.0291246)
(0.00351758 -0.00368389 -0.0196481)
(0.103957 0.0179214 0.000520581)
(0.103488 0.0174433 0.000808358)
(0.100185 0.0139974 0.000496638)
(0.0961913 0.00936355 -0.000316026)
(0.0923653 0.00592884 -0.00156294)
(0.0892391 0.00374315 -0.00318357)
(0.0864706 0.00259877 -0.005199)
(0.0838216 0.00210424 -0.00768848)
(0.0808449 0.00198792 -0.0107948)
(0.0774081 0.00205697 -0.0147051)
(0.072839 0.00220535 -0.0197248)
(0.0673229 0.00227656 -0.0260733)
(0.0590123 0.00225299 -0.034336)
(0.0489666 0.00158438 -0.0432689)
(0.0314633 0.000652703 -0.0509801)
(0.0115925 -0.00303446 -0.0339081)
(0.103951 0.0118482 0.000559761)
(0.108175 0.0158839 0.000868316)
(0.110824 0.0148703 0.000536554)
(0.111014 0.0115757 -0.000333875)
(0.109936 0.00850303 -0.00167844)
(0.108188 0.00625981 -0.00344316)
(0.106002 0.00498506 -0.00565365)
(0.103445 0.00446783 -0.00839805)
(0.100268 0.00449579 -0.0118311)
(0.0963793 0.00488052 -0.0161642)
(0.0910719 0.00550236 -0.021727)
(0.0844122 0.00618483 -0.0287936)
(0.0743081 0.00687272 -0.0379696)
(0.0616497 0.00688844 -0.0480178)
(0.0398347 0.00595844 -0.0566511)
(0.0147323 0.000713388 -0.0378028)
(0.102085 0.00762602 0.000582522)
(0.106381 0.0123866 0.000913286)
(0.11063 0.0129833 0.000590484)
(0.112791 0.0113759 -0.000273883)
(0.113481 0.0093492 -0.00160985)
(0.113007 0.00769868 -0.00336423)
(0.111683 0.00676431 -0.00556313)
(0.109674 0.00653676 -0.00829564)
(0.106838 0.00692925 -0.011715)
(0.103138 0.00783291 -0.0160371)
(0.0978639 0.00918718 -0.0215898)
(0.0910519 0.0108616 -0.0286738)
(0.0804408 0.0128293 -0.0378879)
(0.0668494 0.0142991 -0.0480771)
(0.0431995 0.0142271 -0.0568979)
(0.0154379 0.00686692 -0.0379818)
(0.101056 0.00500258 0.000610608)
(0.104436 0.00924554 0.000977125)
(0.108532 0.0106236 0.000685603)
(0.111331 0.0102404 -0.00014568)
(0.112959 0.00922955 -0.00143866)
(0.113409 0.00831938 -0.00313487)
(0.112894 0.00790865 -0.00525456)
(0.111555 0.00811887 -0.00788101)
(0.109291 0.00897234 -0.0111572)
(0.106105 0.0104512 -0.0152936)
(0.101293 0.0125695 -0.0205993)
(0.0949032 0.0152676 -0.0273924)
(0.0844959 0.0185749 -0.0362382)
(0.0708399 0.0215721 -0.0461374)
(0.046091 0.022567 -0.0547618)
(0.0161125 0.0123653 -0.0365248)
(0.100601 0.00339434 0.000642699)
(0.103249 0.0067503 0.00105442)
(0.106901 0.00832789 0.000808672)
(0.109866 0.00868204 2.58697e-05)
(0.111995 0.00847448 -0.00120805)
(0.113088 0.00827124 -0.00282607)
(0.113238 0.00844072 -0.00483865)
(0.11254 0.00916997 -0.00731906)
(0.110894 0.0105659 -0.010395)
(0.108332 0.0127167 -0.0142664)
(0.104146 0.0157526 -0.0192136)
(0.098412 0.0197919 -0.0255687)
(0.0884957 0.025076 -0.0338415)
(0.0751704 0.0308292 -0.0432495)
(0.0495758 0.0350346 -0.0514882)
(0.0174827 0.0226212 -0.0344429)
(0.100433 0.00223527 0.000680261)
(0.102689 0.00468417 0.001145)
(0.106046 0.00618198 0.000955703)
(0.10908 0.00694712 0.000233148)
(0.111531 0.00733622 -0.000929055)
(0.113107 0.00773704 -0.00245273)
(0.113828 0.00844634 -0.00433446)
(0.113766 0.00966716 -0.00663158)
(0.112843 0.0115544 -0.00944786)
(0.111144 0.0142805 -0.0129588)
(0.108033 0.0180637 -0.0173923)
(0.103704 0.0231958 -0.0230657)
(0.0954567 0.0300832 -0.0303646)
(0.084271 0.0381854 -0.0387731)
(0.0591327 0.0452955 -0.045938)
(0.0259429 0.0303848 -0.0307883)
(0.10038 0.00126806 0.000721235)
(0.102498 0.00282586 0.00124365)
(0.105774 0.00408884 0.00111679)
(0.108918 0.00506703 0.000461071)
(0.11163 0.00590126 -0.000622691)
(0.113587 0.00680603 -0.0020445)
(0.114782 0.00798892 -0.00378572)
(0.115282 0.0096427 -0.00588555)
(0.115041 0.0119521 -0.00842196)
(0.114189 0.0151793 -0.0115422)
(0.112171 0.019658 -0.0154184)
(0.109291 0.026039 -0.0203451)
(0.102862 0.0351652 -0.0265772)
(0.0943028 0.048363 -0.0339033)
(0.0705504 0.0646772 -0.0400161)
(0.0400303 0.0660359 -0.0278505)
(0.087665 0.0173028 0.000229958)
(0.071973 0.0117314 0.000315368)
(0.0565778 0.00731858 8.022e-05)
(0.047926 0.00357437 -0.000384136)
(0.0425207 0.00163625 -0.00103827)
(0.0394319 0.000699618 -0.00185726)
(0.0372789 0.00032001 -0.00286593)
(0.0354974 0.000170732 -0.00410385)
(0.0335711 0.00011072 -0.00564082)
(0.0313996 5.56428e-05 -0.00754008)
(0.0285186 -2.07893e-05 -0.00994734)
(0.0251671 -0.000203051 -0.0128502)
(0.020357 -0.000449373 -0.0165734)
(0.0149245 -0.00106633 -0.0201404)
(0.0073566 -0.00155932 -0.0231325)
(-0.000548686 -0.0031843 -0.0154652)
(0.103923 0.0179348 0.000294338)
(0.103291 0.0174771 0.000387401)
(0.099711 0.0140415 2.73495e-05)
(0.0954072 0.00940929 -0.000716298)
(0.0912409 0.00597844 -0.00180556)
(0.0877513 0.00380388 -0.00321202)
(0.0845669 0.00267967 -0.0049709)
(0.081409 0.00221289 -0.00715298)
(0.0777849 0.0021332 -0.00987656)
(0.0734887 0.0022477 -0.01327)
(0.0678293 0.0024565 -0.0175638)
(0.0608357 0.00260181 -0.0228243)
(0.0509794 0.00267024 -0.029444)
(0.0389242 0.00210732 -0.0360687)
(0.0218277 0.00110301 -0.040839)
(0.00391655 -0.00248693 -0.0263784)
(0.10392 0.0118722 0.000316587)
(0.107973 0.0159399 0.000407981)
(0.110332 0.0149517 1.44347e-05)
(0.110184 0.0116733 -0.000790016)
(0.108729 0.00861812 -0.00197018)
(0.106571 0.0064019 -0.00350466)
(0.103916 0.00516968 -0.00543508)
(0.10079 0.00471205 -0.0078422)
(0.0968914 0.00482073 -0.0108553)
(0.0920501 0.00530744 -0.0146233)
(0.0855256 0.00606174 -0.0193932)
(0.0772278 0.00689518 -0.0252711)
(0.0653623 0.00776088 -0.0326483)
(0.0504446 0.00790148 -0.0401385)
(0.028895 0.00687953 -0.0454676)
(0.00584868 0.00120852 -0.0293018)
(0.102056 0.00765402 0.000335624)
(0.106183 0.0124539 0.00044084)
(0.110144 0.0130883 5.17696e-05)
(0.111972 0.0115126 -0.000748253)
(0.112289 0.00952007 -0.00192047)
(0.111409 0.00791594 -0.00344486)
(0.109621 0.00704924 -0.00536389)
(0.107047 0.00691609 -0.00775962)
(0.103495 0.00743798 -0.0107601)
(0.0988484 0.0085093 -0.0145188)
(0.092353 0.0100849 -0.01928)
(0.0838891 0.0120187 -0.0251728)
(0.0714616 0.0143055 -0.0325778)
(0.0555229 0.0160123 -0.040171)
(0.0320204 0.0159573 -0.045604)
(0.00625218 0.0077082 -0.029364)
(0.101029 0.00503478 0.000362818)
(0.104242 0.00932386 0.000499594)
(0.108058 0.0107498 0.000138923)
(0.110536 0.0104119 -0.000630178)
(0.111806 0.00945077 -0.00176242)
(0.111872 0.00860521 -0.00323368)
(0.110917 0.00828573 -0.00508118)
(0.109047 0.00862322 -0.00738192)
(0.106106 0.00965311 -0.010255)
(0.102023 0.0113655 -0.0138505)
(0.0960401 0.0137987 -0.0183969)
(0.0880579 0.0168778 -0.0240417)
(0.0758518 0.0206761 -0.0311384)
(0.0598496 0.0240708 -0.0384987)
(0.0351074 0.0252573 -0.0437921)
(0.00693389 0.0137575 -0.0281771)
(0.100575 0.00343012 0.000394239)
(0.103061 0.00683784 0.000573048)
(0.106441 0.00847115 0.000254918)
(0.109099 0.00888144 -0.000469116)
(0.110891 0.0087367 -0.00154679)
(0.111627 0.00861432 -0.00294689)
(0.111372 0.00889685 -0.0046978)
(0.110185 0.00978486 -0.00686779)
(0.107917 0.0114044 -0.00956267)
(0.104529 0.0138601 -0.0129249)
(0.0992513 0.0173215 -0.0171594)
(0.0920257 0.0219042 -0.022431)
(0.0803698 0.0279364 -0.0290495)
(0.0647704 0.0343918 -0.0360193)
(0.0390285 0.0392208 -0.0410519)
(0.00847002 0.0251671 -0.0264982)
(0.100407 0.00227465 0.000430382)
(0.102507 0.00477991 0.000658797)
(0.105603 0.00633916 0.000393059)
(0.108346 0.00716813 -0.000275454)
(0.110485 0.00762966 -0.0012873)
(0.111735 0.00812357 -0.00260201)
(0.112094 0.00896252 -0.00423554)
(0.111602 0.0103666 -0.00624277)
(0.110134 0.0125149 -0.00870956)
(0.107718 0.0156045 -0.011761)
(0.103652 0.019906 -0.0155611)
(0.0980316 0.0257263 -0.0202759)
(0.0882223 0.0335969 -0.0261263)
(0.0750383 0.0427073 -0.0323668)
(0.0495738 0.0509057 -0.0367392)
(0.0175461 0.0340806 -0.0238343)
(0.100355 0.00131004 0.000469045)
(0.102322 0.00292703 0.000751185)
(0.10535 0.00425472 0.000543233)
(0.108221 0.00530107 -6.38043e-05)
(0.110647 0.00621344 -0.00100386)
(0.112312 0.00721892 -0.00222635)
(0.11319 0.00854205 -0.00373349)
(0.113323 0.0103956 -0.00556494)
(0.112622 0.0129931 -0.00778484)
(0.111175 0.0166317 -0.0104974)
(0.10836 0.0217129 -0.0138226)
(0.104426 0.0289401 -0.0179201)
(0.0966671 0.0393412 -0.022916)
(0.0864967 0.054051 -0.0283442)
(0.0623169 0.0724526 -0.0320636)
(0.0328237 0.0721479 -0.0215736)
(0.087647 0.0173051 0.000121504)
(0.0718655 0.0117404 0.000130837)
(0.0563214 0.0073272 -9.33984e-05)
(0.0475195 0.0035795 -0.000487115)
(0.0419588 0.00164003 -0.00102741)
(0.0387113 0.000704454 -0.00170261)
(0.0363818 0.000327742 -0.00253593)
(0.034393 0.000182257 -0.00355445)
(0.0322261 0.000127727 -0.00480536)
(0.0297618 8.13744e-05 -0.0063118)
(0.0265854 2.13335e-05 -0.00815711)
(0.0228815 -0.000125889 -0.0102462)
(0.0179289 -0.00030943 -0.0127348)
(0.0123529 -0.000778976 -0.0147209)
(0.00556075 -0.00113604 -0.01569)
(-0.00100087 -0.00244473 -0.00945419)
(0.103898 0.0179472 0.000145784)
(0.103137 0.0175072 0.000122096)
(0.0993353 0.0140813 -0.000240539)
(0.0947719 0.00945153 -0.000891165)
(0.0903151 0.00602492 -0.00180728)
(0.0865145 0.00386079 -0.00297831)
(0.0829839 0.00275526 -0.00444112)
(0.0794234 0.00231481 -0.00625048)
(0.0753263 0.0022712 -0.00849087)
(0.0704573 0.00243342 -0.0112292)
(0.0641739 0.00271037 -0.0145995)
(0.0564599 0.00295203 -0.0185344)
(0.046136 0.00316226 -0.0231855)
(0.0337346 0.00281354 -0.0272551)
(0.0178348 0.00198598 -0.0289778)
(0.00227881 -0.00145966 -0.0170578)
(0.103896 0.0118946 0.000156633)
(0.107816 0.015991 0.000118651)
(0.109941 0.015026 -0.00028277)
(0.109512 0.011763 -0.000991743)
(0.107734 0.00872421 -0.00198844)
(0.105225 0.00653226 -0.00326902)
(0.102178 0.00533791 -0.00487703)
(0.0985962 0.00493364 -0.0068769)
(0.0941622 0.00511559 -0.00936238)
(0.0886736 0.00569716 -0.0124164)
(0.0814319 0.00657929 -0.0161826)
(0.0723115 0.00757182 -0.020618)
(0.0598693 0.00864834 -0.0258557)
(0.0445312 0.00901843 -0.0305353)
(0.0242488 0.00814392 -0.0324912)
(0.00384892 0.00224809 -0.0189961)
(0.102034 0.00768056 0.000171901)
(0.106029 0.0125163 0.000141793)
(0.10976 0.0131849 -0.000258269)
(0.11131 0.0116382 -0.000964275)
(0.111308 0.00967649 -0.0019542)
(0.11008 0.00811331 -0.0032259)
(0.107903 0.00730581 -0.00482395)
(0.104879 0.00725491 -0.00681419)
(0.100797 0.00788945 -0.00928941)
(0.0955095 0.00910671 -0.0123366)
(0.0882992 0.0108757 -0.0160961)
(0.0790157 0.0130409 -0.0205414)
(0.065999 0.0156209 -0.0257906)
(0.0496293 0.0175897 -0.0305193)
(0.0273672 0.0176796 -0.0324766)
(0.00427178 0.00884783 -0.0188607)
(0.101008 0.00506519 0.000196317)
(0.104093 0.00939644 0.000192814)
(0.107685 0.0108657 -0.000182923)
(0.109895 0.0105686 -0.000861696)
(0.110861 0.00965173 -0.00181662)
(0.110596 0.00886272 -0.00304243)
(0.109275 0.00862225 -0.0045794)
(0.106981 0.00906881 -0.00648931)
(0.103542 0.0102484 -0.00885773)
(0.0988595 0.0121561 -0.0117697)
(0.0922038 0.0148488 -0.0153532)
(0.0834524 0.0182366 -0.0195978)
(0.0706817 0.0224259 -0.0245996)
(0.0542689 0.026146 -0.0291371)
(0.0306877 0.0275191 -0.0309773)
(0.00508146 0.015149 -0.0178646)
(0.100555 0.00346353 0.000224831)
(0.102916 0.0069184 0.000258217)
(0.10608 0.00860198 -8.02747e-05)
(0.108482 0.0090624 -0.0007194)
(0.109989 0.00897305 -0.00162679)
(0.110417 0.00892096 -0.00279135)
(0.109823 0.00930038 -0.00424595)
(0.108249 0.0103223 -0.00604538)
(0.105526 0.0121271 -0.00826464)
(0.101594 0.0148282 -0.010984)
(0.095702 0.0186209 -0.0143139)
(0.0877799 0.0236063 -0.0182612)
(0.0755998 0.0301625 -0.022892)
(0.0596342 0.0370668 -0.0271362)
(0.0349521 0.0422267 -0.0288183)
(0.00678331 0.0270658 -0.0165687)
(0.100388 0.00231084 0.000257328)
(0.102368 0.00486716 0.000334493)
(0.105257 0.00648158 4.19805e-05)
(0.107759 0.00736723 -0.000548629)
(0.109632 0.00789235 -0.0013991)
(0.110602 0.00846678 -0.00249061)
(0.110657 0.00941608 -0.00384588)
(0.109823 0.010973 -0.00550937)
(0.107958 0.0133338 -0.00754102)
(0.105075 0.0167087 -0.0100105)
(0.100481 0.0214 -0.013001)
(0.0942806 0.0277041 -0.0165309)
(0.0840247 0.0362165 -0.0206155)
(0.0705767 0.0459023 -0.0243911)
(0.0460228 0.0545947 -0.0257759)
(0.0161043 0.0364977 -0.014862)
(0.100336 0.00134799 0.000291683)
(0.102189 0.00301826 0.000416165)
(0.10502 0.00440373 0.000174329)
(0.107666 0.00551036 -0.000362738)
(0.109848 0.00649117 -0.00115125)
(0.111262 0.0075834 -0.00216388)
(0.111873 0.00902516 -0.00341215)
(0.111713 0.0110437 -0.00492875)
(0.110677 0.0138717 -0.00675732)
(0.108847 0.0178246 -0.00895464)
(0.105602 0.0233406 -0.0115746)
(0.101218 0.0311245 -0.0146436)
(0.0931126 0.0422814 -0.0181257)
(0.0828165 0.0577144 -0.0213896)
(0.0594255 0.0768618 -0.0225315)
(0.0317836 0.0751868 -0.0134812)
(0.0876328 0.0173069 5.39288e-05)
(0.071782 0.0117474 2.3825e-05)
(0.0561206 0.00733384 -0.000171536)
(0.0471956 0.00358328 -0.000487976)
(0.0415042 0.00164248 -0.000912704)
(0.0381205 0.000707313 -0.00144188)
(0.0356393 0.000332251 -0.00209558)
(0.0334733 0.000188695 -0.00289273)
(0.0311038 0.000136626 -0.00386606)
(0.0283966 9.39359e-05 -0.00502218)
(0.0249811 4.1117e-05 -0.00641361)
(0.0210058 -8.86778e-05 -0.00794429)
(0.0159592 -0.00024067 -0.00970264)
(0.010353 -0.000631742 -0.0110178)
(0.00422695 -0.000929672 -0.0114427)
(-0.00125049 -0.00209518 -0.00691033)
(0.103878 0.0179576 5.54318e-05)
(0.103018 0.0175323 -2.44705e-05)
(0.0990399 0.0141146 -0.000350274)
(0.0942647 0.00948721 -0.000884877)
(0.0895661 0.00606422 -0.0016151)
(0.0855021 0.00390854 -0.00253999)
(0.0816775 0.00281803 -0.00369313)
(0.0777775 0.00239863 -0.00511625)
(0.0732881 0.00238357 -0.00686969)
(0.0679539 0.00258293 -0.00898881)
(0.0611814 0.00291188 -0.0115558)
(0.052934 0.00322502 -0.0144788)
(0.0423162 0.00353766 -0.0178168)
(0.0298262 0.00333347 -0.0205702)
(0.0150165 0.00261067 -0.0213201)
(0.00140904 -0.000828147 -0.0124753)
(0.103877 0.0119139 5.92909e-05)
(0.107693 0.0160346 -3.97319e-05)
(0.109633 0.0150893 -0.00040292)
(0.108975 0.0118398 -0.000988409)
(0.106929 0.00881499 -0.00178547)
(0.104123 0.0066434 -0.00279882)
(0.100743 0.00548053 -0.00406818)
(0.096778 0.00512048 -0.00564358)
(0.0918993 0.00536293 -0.00759278)
(0.0858847 0.00602232 -0.00996324)
(0.07808 0.00700841 -0.0128425)
(0.0683487 0.00812852 -0.0161542)
(0.0555362 0.0093716 -0.0199358)
(0.0400735 0.00991558 -0.0231287)
(0.0209627 0.0091462 -0.0239868)
(0.00276999 0.00300643 -0.0139052)
(0.102017 0.00770376 7.08759e-05)
(0.105909 0.0125702 -2.41881e-05)
(0.109459 0.0132679 -0.000387826)
(0.110782 0.0117461 -0.000971494)
(0.110515 0.00981069 -0.00176321)
(0.108993 0.00828198 -0.00276939)
(0.106486 0.00752395 -0.00403079)
(0.103082 0.00754151 -0.00559882)
(0.0985584 0.0082694 -0.00754066)
(0.0927493 0.00960676 -0.00990731)
(0.0849757 0.0115335 -0.0127836)
(0.0750809 0.0138848 -0.0161061)
(0.0616804 0.0166974 -0.0198995)
(0.0451762 0.0188689 -0.0231303)
(0.0240662 0.0190673 -0.02398)
(0.00321004 0.00975393 -0.0138061)
(0.100992 0.00509186 9.11267e-05)
(0.103978 0.00945934 1.71915e-05)
(0.107393 0.0109655 -0.000326888)
(0.109385 0.0107034 -0.000888262)
(0.110098 0.009824 -0.00165137)
(0.109554 0.00908268 -0.00262042)
(0.10792 0.00890845 -0.00383286)
(0.105269 0.00944608 -0.00533705)
(0.101414 0.0107502 -0.00719474)
(0.0962417 0.012819 -0.00945606)
(0.0890538 0.0157241 -0.0121972)
(0.0797267 0.0193616 -0.0153681)
(0.0665848 0.0238623 -0.0189787)
(0.0500449 0.0278395 -0.0220734)
(0.0275492 0.0293601 -0.0228515)
(0.00410854 0.0163152 -0.0130736)
(0.100539 0.0034927 0.000114998)
(0.102804 0.00698807 7.12897e-05)
(0.105799 0.00871448 -0.000242305)
(0.107993 0.00921756 -0.000771195)
(0.109262 0.0091752 -0.00149554)
(0.10943 0.00918237 -0.00241509)
(0.108548 0.0096431 -0.00356147)
(0.106645 0.0107768 -0.00497769)
(0.103542 0.0127354 -0.00671752)
(0.0991638 0.0156385 -0.00882813)
(0.0927854 0.0197011 -0.0113734)
(0.0843418 0.0250102 -0.014318)
(0.0718165 0.0319793 -0.017653)
(0.0557476 0.039234 -0.0205364)
(0.0320641 0.0446463 -0.0212241)
(0.00592859 0.0286658 -0.0121114)
(0.100373 0.00234219 0.000142077)
(0.102261 0.00494223 0.000134405)
(0.104988 0.00660362 -0.000141534)
(0.107295 0.00753743 -0.000630789)
(0.108947 0.00811644 -0.00130895)
(0.10968 0.00875884 -0.00216973)
(0.109475 0.00980091 -0.00323689)
(0.10835 0.0114856 -0.00454569)
(0.10615 0.0140233 -0.00613887)
(0.102882 0.0176335 -0.00805706)
(0.097868 0.0226429 -0.0103457)
(0.0912292 0.0293374 -0.0129821)
(0.0806781 0.0383571 -0.0159272)
(0.0671821 0.0484976 -0.0184923)
(0.0435024 0.057572 -0.0190308)
(0.0154083 0.0385719 -0.0109135)
(0.100322 0.00138058 0.00017051)
(0.102087 0.00309628 0.000201749)
(0.104765 0.00453092 -3.26964e-05)
(0.107229 0.00568869 -0.000478248)
(0.109208 0.00672748 -0.00110618)
(0.110409 0.00789298 -0.00190351)
(0.110791 0.00943456 -0.0028852)
(0.11038 0.0115911 -0.0040777)
(0.109061 0.0146111 -0.0055117)
(0.106913 0.0188232 -0.00721951)
(0.103325 0.0246939 -0.00922662)
(0.0986036 0.0329262 -0.0115202)
(0.0902749 0.044679 -0.014032)
(0.080016 0.0606844 -0.0162445)
(0.0573876 0.0804132 -0.0166762)
(0.0313586 0.0778816 -0.00991634)
(0.0876228 0.0173083 1.75427e-05)
(0.0717219 0.0117529 -2.35332e-05)
(0.0559745 0.00733898 -0.000174247)
(0.0469581 0.00358644 -0.000405592)
(0.0411696 0.0016448 -0.000710394)
(0.0376864 0.000710306 -0.0010881)
(0.0350982 0.000337133 -0.00155312)
(0.0328142 0.000196189 -0.00211636)
(0.0303207 0.000147921 -0.00279647)
(0.0274793 0.000111199 -0.00358865)
(0.0239579 6.88798e-05 -0.00451739)
(0.0198888 -4.05809e-05 -0.00549811)
(0.0148862 -0.000158464 -0.00656573)
(0.00939246 -0.000483733 -0.00727167)
(0.00366109 -0.000722281 -0.00727503)
(-0.00123461 -0.0018227 -0.00422048)
(0.103863 0.0179658 9.52359e-06)
(0.102931 0.0175518 -7.9807e-05)
(0.0988237 0.0141406 -0.000335935)
(0.0938904 0.00951545 -0.000733018)
(0.0890107 0.00609556 -0.0012631)
(0.0847509 0.00394677 -0.00192843)
(0.0807128 0.00286844 -0.00275427)
(0.0765755 0.00246631 -0.00376798)
(0.0718277 0.00247507 -0.00500636)
(0.0662091 0.00270612 -0.00648109)
(0.059173 0.00308007 -0.00823081)
(0.0506843 0.0034558 -0.0101627)
(0.0400278 0.0038584 -0.0122748)
(0.027691 0.00377554 -0.013876)
(0.0136123 0.00315203 -0.0139404)
(0.00116331 -0.000321825 -0.00787812)
(0.103864 0.0119291 9.86352e-06)
(0.107604 0.0160688 -9.73949e-05)
(0.109408 0.0151389 -0.000384144)
(0.108578 0.0119003 -0.000820591)
(0.106332 0.00888658 -0.00140077)
(0.103305 0.00673094 -0.00213117)
(0.0996811 0.0055926 -0.0030419)
(0.095445 0.00526702 -0.0041666)
(0.0902689 0.00555679 -0.00554742)
(0.0839263 0.00627746 -0.00720425)
(0.0758078 0.00734591 -0.00917816)
(0.0657875 0.00856862 -0.0113848)
(0.0528975 0.00994714 -0.0138022)
(0.0375882 0.0106357 -0.0156905)
(0.0192883 0.00996694 -0.015784)
(0.00243716 0.0036265 -0.00882614)
(0.102005 0.00772224 1.79503e-05)
(0.105823 0.0126128 -8.7639e-05)
(0.109238 0.0133333 -0.000375563)
(0.110392 0.0118311 -0.000811005)
(0.109927 0.00991615 -0.0013874)
(0.108186 0.00841403 -0.00211263)
(0.105438 0.00769388 -0.0030177)
(0.101765 0.0077636 -0.0041374)
(0.0969462 0.00856232 -0.00551355)
(0.0908124 0.00999039 -0.00716869)
(0.0827258 0.0120357 -0.00914189)
(0.0725442 0.014527 -0.0113574)
(0.0590613 0.0175144 -0.0137833)
(0.0427119 0.019842 -0.0156945)
(0.0224042 0.0201315 -0.0157711)
(0.00290752 0.0104628 -0.00874212)
(0.100981 0.00511309 3.30522e-05)
(0.103894 0.0095091 -5.7244e-05)
(0.10718 0.0110442 -0.000330896)
(0.109009 0.0108092 -0.000749849)
(0.109533 0.00995892 -0.00130513)
(0.108781 0.00925407 -0.00200318)
(0.106919 0.00913007 -0.00287271)
(0.104015 0.00973615 -0.00394642)
(0.0998836 0.0111329 -0.00526245)
(0.0944094 0.0133204 -0.00684308)
(0.0869304 0.0163796 -0.00872176)
(0.077341 0.0201959 -0.0108325)
(0.0641257 0.0249162 -0.0131341)
(0.0477457 0.0290742 -0.0149542)
(0.0260066 0.0306951 -0.0149883)
(0.00387279 0.0171713 -0.00823953)
(0.100528 0.00351584 5.09714e-05)
(0.102724 0.00704308 -1.69455e-05)
(0.105594 0.00880296 -0.00026804)
(0.107634 0.00933916 -0.000662944)
(0.108724 0.00933294 -0.00118967)
(0.108698 0.00938516 -0.00185154)
(0.107605 0.00990701 -0.00267313)
(0.105472 0.0111237 -0.00368347)
(0.102117 0.0131948 -0.00491526)
(0.0974676 0.0162429 -0.00638925)
(0.0908283 0.0204947 -0.00813108)
(0.0821568 0.0260243 -0.0100859)
(0.0695733 0.0332648 -0.0122019)
(0.0536749 0.0407404 -0.0138835)
(0.0306887 0.046289 -0.0138744)
(0.00577248 0.0297447 -0.00759353)
(0.100363 0.00236693 7.1245e-05)
(0.102184 0.00500127 3.01062e-05)
(0.104792 0.0066993 -0.000193097)
(0.106955 0.00767041 -0.000558752)
(0.108441 0.00829072 -0.0010516)
(0.108997 0.00898456 -0.00167073)
(0.108602 0.010096 -0.00243518)
(0.107272 0.0118748 -0.00336878)
(0.104853 0.0145401 -0.00449703)
(0.101352 0.0183164 -0.00583722)
(0.0961163 0.0235435 -0.00740413)
(0.0892963 0.0304952 -0.00915388)
(0.0787082 0.0398338 -0.0110199)
(0.0653998 0.0502427 -0.0125088)
(0.0423392 0.0595045 -0.0124483)
(0.0153431 0.0399004 -0.00685172)
(0.100312 0.00140612 9.24432e-05)
(0.102014 0.00315737 8.02138e-05)
(0.10458 0.00463028 -0.000112256)
(0.106909 0.00582756 -0.000445697)
(0.108737 0.00691068 -0.000901761)
(0.109778 0.00813145 -0.00147476)
(0.109992 0.00974727 -0.00217759)
(0.109405 0.0120047 -0.00302816)
(0.1079 0.0151618 -0.00404413)
(0.105562 0.0195538 -0.00523826)
(0.101799 0.0256616 -0.00661376)
(0.0969505 0.0341791 -0.00813637)
(0.0886173 0.0462883 -0.0097265)
(0.0785741 0.0626071 -0.0110051)
(0.056495 0.0825927 -0.0109339)
(0.0314314 0.0795265 -0.00625541)
(0.0876159 0.0173092 2.31476e-06)
(0.0716821 0.0117564 -3.09349e-05)
(0.0558774 0.00734229 -0.000125385)
(0.0467991 0.00358839 -0.000267084)
(0.0409442 0.00164605 -0.000450972)
(0.0373922 0.000711807 -0.000678413)
(0.03473 0.000339584 -0.00095811)
(0.0323644 0.000199883 -0.00129621)
(0.0297856 0.000153327 -0.00170299)
(0.0268531 0.000119247 -0.00217348)
(0.0232607 8.17586e-05 -0.00271997)
(0.0191333 -1.77507e-05 -0.0032896)
(0.0141638 -0.000118583 -0.00389774)
(0.00875984 -0.000410295 -0.00428873)
(0.00329739 -0.000622 -0.00425093)
(-0.00123018 -0.00169214 -0.00247528)
(0.103853 0.0179714 -6.58775e-06)
(0.102873 0.017565 -7.30629e-05)
(0.0986797 0.0141582 -0.00023628)
(0.0936397 0.0095347 -0.000481321)
(0.0886367 0.00611689 -0.000803537)
(0.0842425 0.00397268 -0.0012059)
(0.0800576 0.00290241 -0.00170431)
(0.0757576 0.00251167 -0.00231498)
(0.0708341 0.00253603 -0.00305877)
(0.065025 0.00278759 -0.0039395)
(0.0578165 0.00319036 -0.00497599)
(0.0491794 0.00360548 -0.00610738)
(0.0385146 0.00406381 -0.00732257)
(0.0263137 0.00405283 -0.00821876)
(0.0127369 0.00348285 -0.00817662)
(0.00102306 -3.14377e-05 -0.00461601)
(0.103855 0.0119396 -7.11339e-06)
(0.107545 0.0160922 -8.62433e-05)
(0.109258 0.015173 -0.000269664)
(0.108312 0.0119419 -0.00053939)
(0.105929 0.00893582 -0.000892699)
(0.10275 0.00679107 -0.00133487)
(0.0989596 0.0056694 -0.00188501)
(0.0945377 0.0053672 -0.00256324)
(0.0891592 0.00568897 -0.00339369)
(0.0825964 0.00645087 -0.00438501)
(0.074272 0.00757438 -0.00555717)
(0.0640724 0.00886499 -0.00685358)
(0.0511507 0.010332 -0.00825034)
(0.0359823 0.011112 -0.00931332)
(0.0182417 0.0105026 -0.00927792)
(0.00224582 0.00401613 -0.00517613)
(0.101996 0.00773505 -2.43564e-06)
(0.105765 0.0126422 -8.08698e-05)
(0.109091 0.0133785 -0.000265396)
(0.110131 0.0118898 -0.000534608)
(0.109531 0.0099889 -0.000885684)
(0.107639 0.00850499 -0.0013247)
(0.104725 0.00781069 -0.00187145)
(0.100868 0.00791593 -0.00254674)
(0.0958483 0.00876273 -0.00337461)
(0.089496 0.0102521 -0.00436532)
(0.0812033 0.0123771 -0.00553776)
(0.0708428 0.0149617 -0.00684038)
(0.0573241 0.0180642 -0.00824352)
(0.0411159 0.0204926 -0.00932109)
(0.0213625 0.0208371 -0.00927578)
(0.0027334 0.0109263 -0.00513045)
(0.100973 0.00512787 6.89295e-06)
(0.103839 0.00954357 -6.23108e-05)
(0.107038 0.0110986 -0.000238174)
(0.108758 0.0108824 -0.000497257)
(0.109153 0.010052 -0.000835392)
(0.108257 0.00937223 -0.00125781)
(0.106238 0.0092826 -0.00178296)
(0.103161 0.00993542 -0.00243043)
(0.098841 0.0113952 -0.00322213)
(0.0931631 0.0136632 -0.0041683)
(0.0854919 0.0168263 -0.00528477)
(0.0757384 0.0207626 -0.00652589)
(0.0624916 0.0256282 -0.00785736)
(0.046254 0.0299051 -0.00888342)
(0.0250386 0.0315888 -0.00881817)
(0.00373925 0.0177457 -0.00484118)
(0.100521 0.00353194 1.79829e-05)
(0.102671 0.0070812 -3.74721e-05)
(0.105457 0.00886414 -0.000199454)
(0.107394 0.00942316 -0.000443762)
(0.108363 0.0094418 -0.00076439)
(0.108204 0.00952494 -0.00116471)
(0.106965 0.0100886 -0.00166072)
(0.104673 0.011362 -0.0022698)
(0.101147 0.0135097 -0.00301068)
(0.0963135 0.0166561 -0.0038928)
(0.0895016 0.0210352 -0.00492765)
(0.0806881 0.0267124 -0.00607625)
(0.0680815 0.0341317 -0.00729906)
(0.0523299 0.0417524 -0.00824458)
(0.0298269 0.0473864 -0.00815907)