/*--------------------------------*- C++ -*----------------------------------*\
| =========                 |                                                 |
| \\      /  F ield         | OpenFOAM: The Open Source CFD Toolbox           |
|  \\    /   O peration     | Version:  v1912                                 |
|   \\  /    A nd           | Website:  www.openfoam.com                      |
|    \\/     M anipulation  |                                                 |
\*---------------------------------------------------------------------------*/
FoamFile
{
    version     2.0;
    format      ascii;
    class       surfaceScalarField;
    location    "0.06/fluid";
    object      meshPhi;
}
// * * * * * * * * * * * * * * * * * * * * * * * * * * * * * * * * * * * * * //

dimensions      [0 3 -1 0 0 0 0];
oriented        oriented;


internalField   nonuniform List<scalar> 
41600
(
1.63067e-12
-7.56477e-12
2.54225e-12
-2.61192e-12
2.74435e-12
-2.24478e-11
7.60344e-12
-7.8057e-12
3.16777e-12
-3.73037e-11
1.28504e-11
-1.31709e-11
2.77705e-12
-5.28762e-11
1.87035e-11
-1.91264e-11
1.44544e-12
-6.96026e-11
2.55095e-11
-2.602e-11
-9.74096e-13
-8.76374e-11
3.3549e-11
-3.41387e-11
-4.65549e-12
-1.06726e-10
4.2999e-11
-4.36553e-11
-9.82104e-12
-1.26321e-10
5.39391e-11
-5.46302e-11
-1.6782e-11
-1.45822e-10
6.6404e-11
-6.70474e-11
-2.58027e-11
-1.64231e-10
8.02136e-11
-8.05773e-11
-3.70914e-11
-1.79559e-10
9.47834e-11
-9.43994e-11
-5.11519e-11
-1.88787e-10
1.09461e-10
-1.07613e-10
-6.97949e-11
-1.87558e-10
1.24171e-10
-1.1966e-10
-9.64077e-11
-1.68073e-10
1.39897e-10
-1.30091e-10
-1.28907e-10
-1.1983e-10
1.58009e-10
-1.37032e-10
-1.11038e-11
2.2118e-10
-1.2251e-10
4.84799e-12
-1.50312e-11
7.59733e-12
-7.80629e-12
8.16558e-12
-4.46094e-11
2.2722e-11
-2.33299e-11
9.45683e-12
-7.41678e-11
3.83996e-11
-3.93681e-11
8.36537e-12
-1.05207e-10
5.58842e-11
-5.71714e-11
4.54012e-12
-1.3855e-10
7.62115e-11
-7.77777e-11
-2.4261e-12
-1.74454e-10
1.00226e-10
-1.02042e-10
-1.30063e-11
-2.12575e-10
1.28491e-10
-1.30503e-10
-2.76789e-11
-2.5204e-10
1.61268e-10
-1.6336e-10
-4.70446e-11
-2.91613e-10
1.9856e-10
-2.00466e-10
-7.15939e-11
-3.29372e-10
2.39701e-10
-2.40776e-10
-1.0149e-10
-3.61978e-10
2.82908e-10
-2.81973e-10
-1.36885e-10
-3.84654e-10
3.26027e-10
-3.21334e-10
-1.79572e-10
-3.91696e-10
3.68158e-10
-3.56828e-10
-2.31049e-10
-3.76606e-10
4.10931e-10
-3.86991e-10
-2.78145e-10
-3.36676e-10
4.57055e-10
-4.07807e-10
-2.76604e-10
5.388e-10
-3.98712e-10
8.00914e-12
-2.21217e-11
1.25376e-11
-1.28854e-11
1.35459e-11
-6.56692e-11
3.74928e-11
-3.85089e-11
1.58538e-11
-1.09217e-10
6.33442e-11
-6.49751e-11
1.4389e-11
-1.5499e-10
9.2157e-11
-9.43456e-11
8.66027e-12
-2.04196e-10
1.25647e-10
-1.28337e-10
-1.89842e-12
-2.57251e-10
1.65236e-10
-1.68362e-10
-1.78335e-11
-3.13872e-10
2.11925e-10
-2.15366e-10
-3.94662e-11
-3.72964e-10
2.66163e-10
-2.69685e-10
-6.71107e-11
-4.32805e-10
3.27769e-10
-3.30932e-10
-1.00911e-10
-4.90867e-10
3.95436e-10
-3.97367e-10
-1.40353e-10
-5.43098e-10
4.66161e-10
-4.65414e-10
-1.83852e-10
-5.84014e-10
5.36104e-10
-5.30546e-10
-2.29928e-10
-6.07894e-10
6.02758e-10
-5.88888e-10
-2.72693e-10
-6.10484e-10
6.66985e-10
-6.38032e-10
-2.90236e-10
-5.92824e-10
7.31604e-10
-6.7394e-10
-5.57371e-10
8.34116e-10
-6.92213e-10
1.11877e-11
-2.85304e-11
1.72509e-11
-1.7736e-11
1.90851e-11
-8.46911e-11
5.15703e-11
-5.29935e-11
2.2758e-11
-1.40851e-10
8.70737e-11
-8.93747e-11
2.15531e-11
-1.99904e-10
1.26594e-10
-1.29711e-10
1.49544e-11
-2.63474e-10
1.72515e-10
-1.76376e-10
2.42812e-12
-3.32252e-10
2.26847e-10
-2.31341e-10
-1.6283e-11
-4.06042e-10
2.91043e-10
-2.95967e-10
-4.09793e-11
-4.83611e-10
3.657e-10
-3.70717e-10
-7.12763e-11
-5.62906e-10
4.50376e-10
-4.54962e-10
-1.06601e-10
-6.41038e-10
5.43084e-10
-5.46376e-10
-1.45794e-10
-7.13838e-10
6.39746e-10
-6.40369e-10
-1.86222e-10
-7.75852e-10
7.35016e-10
-7.30849e-10
-2.2521e-10
-8.21548e-10
8.24695e-10
-8.12158e-10
-2.56072e-10
-8.47295e-10
9.08321e-10
-8.80648e-10
-2.60226e-10
-8.5286e-10
9.87612e-10
-9.31301e-10
-8.36558e-10
1.09611e-09
-9.55387e-10
1.44597e-11
-3.39763e-11
2.16329e-11
-2.22509e-11
2.49618e-11
-1.00832e-10
6.46326e-11
-6.64514e-11
3.0492e-11
-1.67632e-10
1.09018e-10
-1.11978e-10
3.0389e-11
-2.3786e-10
1.58319e-10
-1.62362e-10
2.42377e-11
-3.13571e-10
2.15552e-10
-2.20589e-10
1.18055e-11
-3.95746e-10
2.83293e-10
-2.8917e-10
-6.64021e-12
-4.84325e-10
3.63412e-10
-3.69859e-10
-3.00968e-11
-5.77964e-10
4.56613e-10
-4.63247e-10
-5.72682e-11
-6.74384e-10
5.62165e-10
-5.68509e-10
-8.68644e-11
-7.707e-10
6.77491e-10
-6.82846e-10
-1.17342e-10
-8.63073e-10
7.9776e-10
-8.01011e-10
-1.46205e-10
-9.46653e-10
9.16663e-10
-9.1597e-10
-1.72084e-10
-1.01672e-09
1.02886e-09
-1.02091e-09
-1.9205e-10
-1.07016e-09
1.13239e-09
-1.11078e-09
-1.94262e-10
-1.10365e-09
1.2261e-09
-1.17752e-09
-1.10889e-09
1.3389e-09
-1.20523e-09
1.78755e-11
-3.82154e-11
2.55962e-11
-2.63389e-11
3.12715e-11
-1.1337e-10
7.64144e-11
-7.86063e-11
3.91989e-11
-1.88363e-10
1.28715e-10
-1.323e-10
4.10912e-11
-2.67143e-10
1.86627e-10
-1.91554e-10
3.67632e-11
-3.5216e-10
2.53713e-10
-2.59883e-10
2.64661e-11
-4.44662e-10
3.33029e-10
-3.4026e-10
1.11514e-11
-5.44603e-10
4.2677e-10
-4.34764e-10
-7.30705e-12
-6.50548e-10
5.357e-10
-5.44092e-10
-2.67411e-11
-7.60238e-10
6.58849e-10
-6.67273e-10
-4.51947e-11
-8.71003e-10
7.93231e-10
-8.0124e-10
-6.07821e-11
-9.79584e-10
9.33684e-10
-9.40549e-10
-7.13614e-11
-1.08226e-09
1.07382e-09
-1.07819e-09
-7.69287e-11
-1.17633e-09
1.2086e-09
-1.20779e-09
-7.78784e-11
-1.26191e-09
1.33628e-09
-1.32475e-09
-7.0142e-11
-1.3367e-09
1.45342e-09
-1.41861e-09
-1.37587e-09
1.58142e-09
-1.46358e-09
2.14446e-11
-4.10437e-11
2.90702e-11
-2.99279e-11
3.80089e-11
-1.21714e-10
8.67099e-11
-8.92443e-11
4.88171e-11
-2.02099e-10
1.45831e-10
-1.49986e-10
5.3481e-11
-2.86452e-10
2.11028e-10
-2.16757e-10
5.21534e-11
-3.77492e-10
2.86263e-10
-2.93472e-10
4.56104e-11
-4.76598e-10
3.74905e-10
-3.83413e-10
3.556e-11
-5.83671e-10
4.7933e-10
-4.8886e-10
2.45186e-11
-6.97253e-10
6.00306e-10
-6.10536e-10
1.53385e-11
-8.15219e-10
7.36668e-10
-7.4735e-10
1.06107e-11
-9.35152e-10
8.85167e-10
-8.96153e-10
1.2557e-11
-1.05431e-09
1.04066e-09
-1.05167e-09
2.37333e-11
-1.17e-09
1.19753e-09
-1.20784e-09
4.52549e-11
-1.2815e-09
1.35269e-09
-1.36055e-09
7.95243e-11
-1.39281e-09
1.50762e-09
-1.50923e-09
1.28091e-10
-1.50609e-09
1.66065e-09
-1.64595e-09
-1.64592e-09
1.82525e-09
-1.75008e-09
2.5128e-11
3.2005e-11
-3.29672e-11
-4.23221e-11
4.50661e-11
9.53833e-11
-9.8224e-11
-1.25456e-10
5.9103e-11
1.60166e-10
-1.64819e-10
-2.08189e-10
6.7081e-11
2.31257e-10
-2.37675e-10
-2.9491e-10
6.95362e-11
3.12805e-10
-3.20911e-10
-3.88414e-10
6.77659e-11
4.08267e-10
-4.17917e-10
-4.90038e-10
6.39823e-11
5.2002e-10
-5.30981e-10
-5.9964e-10
6.11145e-11
6.48729e-10
-6.60746e-10
-7.15834e-10
6.23317e-11
7.93022e-10
-8.05986e-10
-8.36678e-10
7.03931e-11
9.49465e-10
-9.63446e-10
-9.59993e-10
8.78315e-11
1.113e-09
-1.12811e-09
-1.08308e-09
1.17728e-10
1.27882e-09
-1.29501e-09
-1.20327e-09
1.63613e-10
1.44593e-09
-1.46252e-09
-1.31969e-09
2.33763e-10
1.61917e-09
-1.63454e-09
-1.43437e-09
3.31239e-10
1.79851e-09
-1.80708e-09
-1.54449e-09
2.01067e-09
-2.01123e-09
-1.66969e-09
1.21266e-12
-7.74578e-12
2.38911e-12
1.89069e-12
-2.30207e-11
7.15129e-12
1.8038e-12
-3.83643e-11
1.2104e-11
7.70043e-13
-5.45809e-11
1.76503e-11
-1.39999e-12
-7.21325e-11
2.41188e-11
-4.92931e-12
-9.11628e-11
3.17699e-11
-1.00765e-11
-1.11409e-10
4.07751e-11
-1.7221e-11
-1.32337e-10
5.1227e-11
-2.70031e-11
-1.53454e-10
6.31669e-11
-4.02685e-11
-1.741e-10
7.64724e-11
-5.80638e-11
-1.92843e-10
9.07146e-11
-8.22803e-11
-2.07407e-10
1.05325e-10
-1.17334e-10
-2.15017e-10
1.20011e-10
-1.72138e-10
-2.12108e-10
1.35076e-10
-2.51918e-10
-1.95597e-10
1.50806e-10
-1.67092e-10
1.69595e-10
3.6127e-12
-1.5383e-11
7.13983e-12
5.64755e-12
-4.57151e-11
2.13693e-11
5.44232e-12
-7.61883e-11
3.6159e-11
2.46968e-12
-1.08426e-10
5.27094e-11
-3.80267e-12
-1.43337e-10
7.20059e-11
-1.39808e-11
-1.81191e-10
9.48359e-11
-2.87633e-11
-2.21625e-10
1.21743e-10
-4.90851e-11
-2.6378e-10
1.5302e-10
-7.64384e-11
-3.06585e-10
1.88711e-10
-1.12756e-10
-3.48531e-10
2.28304e-10
-1.60155e-10
-3.86878e-10
2.70361e-10
-2.21723e-10
-4.1764e-10
3.12926e-10
-3.0391e-10
-4.36613e-10
3.54557e-10
-4.16961e-10
-4.40487e-10
3.95085e-10
-5.57218e-10
-4.3e-10
4.34231e-10
-4.2229e-10
4.48148e-10
6.01356e-12
-2.26227e-11
1.17817e-11
9.49068e-12
-6.72281e-11
3.52522e-11
9.40916e-12
-1.12047e-10
5.96176e-11
4.9595e-12
-1.59496e-10
8.68517e-11
-4.62452e-12
-2.10926e-10
1.18592e-10
-2.01702e-11
-2.6681e-10
1.56177e-10
-4.25495e-11
-3.26845e-10
2.00572e-10
-7.27466e-11
-3.89925e-10
2.52268e-10
-1.12277e-10
-4.54389e-10
3.11151e-10
-1.63066e-10
-5.17921e-10
3.76081e-10
-2.26736e-10
-5.7683e-10
4.44429e-10
-3.04514e-10
-6.26197e-10
5.12629e-10
-3.9807e-10
-6.6138e-10
5.776e-10
-5.06192e-10
-6.80195e-10
6.37999e-10
-6.10213e-10
-6.85515e-10
6.92859e-10
-6.88928e-10
7.23793e-10
8.52249e-12
-2.91531e-11
1.62074e-11
1.3688e-11
-8.66222e-11
4.847e-11
1.42176e-11
-1.44346e-10
8.19012e-11
9.12549e-12
-2.05469e-10
1.19205e-10
-2.42579e-12
-2.71813e-10
1.6266e-10
-2.12485e-11
-3.44153e-10
2.14175e-10
-4.79781e-11
-4.22276e-10
2.75154e-10
-8.31168e-11
-5.04847e-10
3.4622e-10
-1.27526e-10
-5.89661e-10
4.26967e-10
-1.82393e-10
-6.73752e-10
5.1552e-10
-2.48468e-10
-7.53003e-10
6.08132e-10
-3.2543e-10
-8.22221e-10
6.99827e-10
-4.12459e-10
-8.76627e-10
7.86087e-10
-5.05519e-10
-9.14218e-10
8.64602e-10
-5.88624e-10
-9.36652e-10
9.33958e-10
-9.5177e-10
9.75311e-10
1.12384e-11
-3.46939e-11
2.03184e-11
1.84625e-11
-1.03055e-10
6.07226e-11
2.02648e-11
-1.7165e-10
1.02482e-10
1.56166e-11
-2.44257e-10
1.48963e-10
3.77895e-12
-3.23172e-10
2.03054e-10
-1.57566e-11
-4.09483e-10
2.67215e-10
-4.30471e-11
-5.03049e-10
3.43228e-10
-7.77092e-11
-6.02287e-10
4.31772e-10
-1.19546e-10
-7.0456e-10
5.32087e-10
-1.68798e-10
-8.06613e-10
6.4162e-10
-2.2561e-10
-9.04338e-10
7.55794e-10
-2.89553e-10
-9.92849e-10
8.6872e-10
-3.60931e-10
-1.06788e-09
9.74955e-10
-4.39819e-10
-1.12765e-09
1.07126e-09
-5.18411e-10
-1.17091e-09
1.15472e-09
-1.19988e-09
1.20493e-09
1.42255e-11
-3.89991e-11
2.40338e-11
2.39377e-11
-1.15796e-10
7.17652e-11
2.77333e-11
-1.92749e-10
1.20939e-10
2.46748e-11
-2.74131e-10
1.75489e-10
1.42745e-11
-3.62654e-10
2.3883e-10
-3.44982e-12
-4.59647e-10
3.13875e-10
-2.77551e-11
-5.64923e-10
4.02688e-10
-5.71983e-11
-6.76671e-10
5.05931e-10
-9.044e-11
-7.92069e-10
6.22507e-10
-1.26752e-10
-9.07833e-10
7.49359e-10
-1.65713e-10
-1.02014e-09
8.81472e-10
-2.07178e-10
-1.12488e-09
1.01275e-09
-2.53135e-10
-1.21944e-09
1.13784e-09
-3.08333e-10
-1.30486e-09
1.25358e-09
-3.75033e-10
-1.381e-09
1.35544e-09
-1.42909e-09
1.42028e-09
1.75022e-11
-4.18594e-11
2.72887e-11
3.01231e-11
-1.24239e-10
8.14091e-11
3.65726e-11
-2.06674e-10
1.36968e-10
3.61099e-11
-2.93766e-10
1.98341e-10
2.86246e-11
-3.88472e-10
2.69316e-10
1.47474e-11
-4.92204e-10
3.53085e-10
-3.91829e-12
-6.04662e-10
4.51856e-10
-2.501e-11
-7.23913e-10
5.66214e-10
-4.6197e-11
-8.47133e-10
6.94778e-10
-6.5777e-11
-9.71106e-10
8.34174e-10
-8.25979e-11
-1.0922e-09
9.79251e-10
-9.58767e-11
-1.20692e-09
1.12431e-09
-1.06317e-10
-1.31407e-09
1.26524e-09
-1.16054e-10
-1.41733e-09
1.40061e-09
-1.30019e-10
-1.51928e-09
1.52533e-09
-1.64177e-09
1.6115e-09
2.10322e-11
3.00367e-11
-4.31258e-11
3.69075e-11
8.95301e-11
-1.27961e-10
4.65154e-11
1.50391e-10
-2.12773e-10
4.93846e-11
2.17279e-10
-3.0228e-10
4.58436e-11
2.94144e-10
-3.99463e-10
3.71164e-11
3.84239e-10
-5.05652e-10
2.54493e-11
4.8973e-10
-6.20451e-10
1.38147e-11
6.11057e-10
-7.41966e-10
5.17577e-12
7.46628e-10
-8.67507e-10
1.87283e-12
8.92841e-10
-9.93906e-10
5.74459e-12
1.0445e-09
-1.11739e-09
1.86055e-11
1.19644e-09
-1.23419e-09
4.28994e-11
1.34596e-09
-1.34219e-09
8.44415e-11
1.49358e-09
-1.44161e-09
1.44416e-10
1.63362e-09
-1.52771e-09
1.74114e-09
-1.58192e-09
7.74098e-13
-7.95398e-12
2.14608e-12
9.98666e-13
-2.36634e-11
6.42754e-12
3.85662e-13
-3.95096e-11
1.08899e-11
-1.30622e-12
-5.63617e-11
1.5899e-11
-4.32611e-12
-7.472e-11
2.17494e-11
-8.96675e-12
-9.47315e-11
2.86705e-11
-1.55797e-11
-1.16157e-10
3.68228e-11
-2.46937e-11
-1.38511e-10
4.62954e-11
-3.72094e-11
-1.61388e-10
5.71119e-11
-5.441e-11
-1.84403e-10
6.91559e-11
-7.7974e-11
-2.06676e-10
8.2019e-11
-1.1078e-10
-2.26878e-10
9.50694e-11
-1.59121e-10
-2.44187e-10
1.07718e-10
-2.35834e-10
-2.5954e-10
1.19534e-10
-3.49025e-10
-2.76324e-10
1.2955e-10
-2.95082e-10
1.47958e-10
2.3168e-12
-1.57837e-11
6.41345e-12
3.01728e-12
-4.69474e-11
1.92048e-11
1.26958e-12
-7.8372e-11
3.2525e-11
-3.62332e-12
-1.11802e-10
4.74617e-11
-1.2367e-11
-1.48236e-10
6.48993e-11
-2.5759e-11
-1.87986e-10
8.55419e-11
-4.47328e-11
-2.30705e-10
1.09894e-10
-7.06464e-11
-2.75574e-10
1.38219e-10
-1.05715e-10
-3.21666e-10
1.70524e-10
-1.52957e-10
-3.67822e-10
2.06317e-10
-2.1592e-10
-4.1196e-10
2.44218e-10
-2.99742e-10
-4.51198e-10
2.82149e-10
-4.14155e-10
-4.8324e-10
3.18016e-10
-5.75441e-10
-5.07969e-10
3.5002e-10
-7.815e-10
-5.27906e-10
3.75318e-10
-5.49906e-10
3.87849e-10
3.92197e-12
-2.31904e-11
1.0582e-11
5.2573e-12
-6.89678e-11
3.16754e-11
2.71727e-12
-1.15118e-10
5.36063e-11
-4.76969e-12
-1.64232e-10
7.81587e-11
-1.82347e-11
-2.17808e-10
1.06808e-10
-3.87605e-11
-2.76392e-10
1.40766e-10
-6.75359e-11
-3.39664e-10
1.80917e-10
-1.06167e-10
-4.06531e-10
2.27683e-10
-1.57162e-10
-4.75401e-10
2.80903e-10
-2.23761e-10
-5.44141e-10
3.39456e-10
-3.09097e-10
-6.09536e-10
4.00803e-10
-4.16197e-10
-6.67545e-10
4.61318e-10
-5.4873e-10
-7.14988e-10
5.17312e-10
-7.08253e-10
-7.51759e-10
5.65785e-10
-8.726e-10
-7.81018e-10
6.03294e-10
-8.08052e-10
6.29264e-10
5.73376e-12
-2.98595e-11
1.45546e-11
8.06103e-12
-8.87835e-11
4.35415e-11
5.36212e-12
-1.48154e-10
7.36121e-11
-3.67787e-12
-2.11337e-10
1.07207e-10
-2.02101e-11
-2.80342e-10
1.46388e-10
-4.53067e-11
-3.56012e-10
1.92891e-10
-7.9965e-11
-4.38089e-10
2.47978e-10
-1.25368e-10
-5.25153e-10
3.12175e-10
-1.83416e-10
-6.14891e-10
3.85e-10
-2.56586e-10
-7.04291e-10
4.64566e-10
-3.46873e-10
-7.89389e-10
5.47241e-10
-4.55205e-10
-8.65541e-10
6.28119e-10
-5.81572e-10
-9.2915e-10
7.02338e-10
-7.22883e-10
-9.80084e-10
7.66362e-10
-8.59165e-10
-1.02092e-09
8.16866e-10
-1.05631e-09
8.52969e-10
7.87481e-12
-3.55083e-11
1.82439e-11
1.16991e-11
-1.05545e-10
5.4536e-11
9.6741e-12
-1.76039e-10
9.20763e-11
4.091e-13
-2.51022e-10
1.33902e-10
-1.71488e-11
-3.32994e-10
1.82633e-10
-4.37531e-11
-4.23094e-10
2.40493e-10
-7.97845e-11
-5.21054e-10
3.09073e-10
-1.25475e-10
-6.25067e-10
3.88904e-10
-1.81577e-10
-7.32204e-10
4.791e-10
-2.49452e-10
-8.38891e-10
5.77065e-10
-3.30234e-10
-9.40842e-10
6.78333e-10
-4.24446e-10
-1.03336e-09
7.77148e-10
-5.32891e-10
-1.11305e-09
8.67934e-10
-6.56563e-10
-1.17994e-09
9.46715e-10
-7.84638e-10
-1.23436e-09
1.00951e-09
-1.27755e-09
1.05425e-09
1.04225e-11
-3.98868e-11
2.15785e-11
1.63185e-11
-1.18512e-10
6.44448e-11
1.58688e-11
-1.97543e-10
1.08634e-10
7.77323e-12
-2.81533e-10
1.57696e-10
-8.73863e-12
-3.73381e-10
2.14722e-10
-3.38535e-11
-4.74418e-10
2.82331e-10
-6.70556e-11
-5.84252e-10
3.62334e-10
-1.07376e-10
-7.00714e-10
4.5519e-10
-1.54228e-10
-8.20492e-10
5.5963e-10
-2.0777e-10
-9.39737e-10
6.72524e-10
-2.68393e-10
-1.0541e-09
7.88902e-10
-3.36866e-10
-1.15925e-09
9.02672e-10
-4.15953e-10
-1.25301e-09
1.0082e-09
-5.12232e-10
-1.33762e-09
1.10151e-09
-6.26369e-10
-1.41438e-09
1.17755e-09
-1.46454e-09
1.23209e-09
1.3399e-11
-4.27817e-11
2.45014e-11
2.19336e-11
-1.27065e-10
7.3104e-11
2.38961e-11
-2.11681e-10
1.23024e-10
1.82076e-11
-3.01512e-10
1.78205e-10
4.52121e-12
-3.99671e-10
2.42062e-10
-1.66653e-11
-5.07509e-10
3.1745e-10
-4.38888e-11
-6.24463e-10
4.0626e-10
-7.50537e-11
-7.48136e-10
5.08827e-10
-1.08326e-10
-8.75062e-10
6.236e-10
-1.42623e-10
-1.00124e-09
7.4709e-10
-1.77386e-10
-1.12222e-09
8.74097e-10
-2.12765e-10
-1.23383e-09
9.98657e-10
-2.50493e-10
-1.33465e-09
1.11575e-09
-2.95159e-10
-1.4282e-09
1.22213e-09
-3.51201e-10
-1.51662e-09
1.31172e-09
-1.62526e-09
1.37663e-09
1.67631e-11
2.69726e-11
-4.40411e-11
2.84191e-11
8.04058e-11
-1.30777e-10
3.34564e-11
1.35087e-10
-2.17792e-10
3.11076e-11
1.95208e-10
-3.10067e-10
2.15193e-11
2.64317e-10
-4.1069e-10
5.83663e-12
3.45292e-10
-5.20892e-10
-1.37316e-11
4.39949e-10
-6.39976e-10
-3.42909e-11
5.48465e-10
-7.65526e-10
-5.31018e-11
6.69092e-10
-8.94115e-10
-6.81041e-11
7.98173e-10
-1.02164e-09
-7.78482e-11
9.30426e-10
-1.14331e-09
-8.13576e-11
1.06014e-09
-1.25447e-09
-7.71894e-11
1.18316e-09
-1.35223e-09
-6.1382e-11
1.29723e-09
-1.43568e-09
-3.14879e-11
1.39545e-09
-1.49875e-09
1.46868e-09
-1.51884e-09
3.51538e-13
-8.16098e-12
1.82099e-12
1.43458e-13
-2.42919e-11
5.45588e-12
-9.67698e-13
-4.06017e-11
9.24793e-12
-3.27632e-12
-5.80147e-11
1.35055e-11
-7.08762e-12
-7.7085e-11
1.84765e-11
-1.27534e-11
-9.8005e-11
2.43622e-11
-2.0691e-11
-1.20562e-10
3.13029e-11
-3.15302e-11
-1.44284e-10
3.93584e-11
-4.63067e-11
-1.68804e-10
4.85333e-11
-6.64958e-11
-1.93899e-10
5.87113e-11
-9.40106e-11
-2.19046e-10
6.94998e-11
-1.32042e-10
-2.43537e-10
8.02888e-11
-1.87538e-10
-2.67651e-10
9.05167e-11
-2.74224e-10
-2.94074e-10
9.99257e-11
-3.98063e-10
-3.26706e-10
1.08308e-10
-3.57635e-10
1.25894e-10
1.06942e-12
-1.61813e-11
5.44217e-12
4.94913e-13
-4.81558e-11
1.63016e-11
-2.71458e-12
-8.04742e-11
2.7618e-11
-9.41101e-12
-1.14989e-10
4.03084e-11
-2.04591e-11
-1.52805e-10
5.51226e-11
-3.68126e-11
-1.94311e-10
7.26766e-11
-5.95894e-11
-2.39184e-10
9.34016e-11
-9.04187e-11
-2.8661e-10
1.17485e-10
-1.31867e-10
-3.3569e-10
1.44883e-10
-1.87404e-10
-3.85454e-10
1.75102e-10
-2.61048e-10
-4.34281e-10
2.06837e-10
-3.58439e-10
-4.80055e-10
2.38141e-10
-4.90162e-10
-5.21553e-10
2.67096e-10
-6.72858e-10
-5.59577e-10
2.92429e-10
-8.97536e-10
-5.94839e-10
3.13087e-10
-6.24939e-10
3.25818e-10
1.9105e-12
-2.37546e-11
8.9797e-12
1.19776e-12
-7.06832e-11
2.68854e-11
-3.67559e-12
-1.18106e-10
4.55094e-11
-1.40231e-11
-1.68769e-10
6.63569e-11
-3.11085e-11
-2.24316e-10
9.06859e-11
-5.62289e-11
-2.85373e-10
1.19549e-10
-9.08313e-11
-3.51616e-10
1.53698e-10
-1.36893e-10
-4.21908e-10
1.93443e-10
-1.97382e-10
-4.94632e-10
2.38546e-10
-2.76016e-10
-5.67744e-10
2.87892e-10
-3.76263e-10
-6.38368e-10
3.39114e-10
-5.01226e-10
-7.0309e-10
3.88914e-10
-6.54423e-10
-7.59577e-10
4.34028e-10
-8.35502e-10
-8.08214e-10
4.7226e-10
-1.01262e-09
-8.50252e-10
5.02226e-10
-8.85001e-10
5.25078e-10
3.05494e-12
-3.05619e-11
1.23508e-11
2.66885e-12
-9.09198e-11
3.69535e-11
-3.09853e-12
-1.51881e-10
6.24793e-11
-1.58634e-11
-2.17006e-10
9.09892e-11
-3.70468e-11
-2.88463e-10
1.24241e-10
-6.79514e-11
-3.67154e-10
1.63731e-10
-1.09846e-10
-4.52756e-10
2.10541e-10
-1.64306e-10
-5.43726e-10
2.65047e-10
-2.33697e-10
-6.37619e-10
3.26666e-10
-3.20863e-10
-7.31348e-10
3.93543e-10
-4.27845e-10
-8.21057e-10
4.62324e-10
-5.55156e-10
-9.02519e-10
5.28611e-10
-7.01821e-10
-9.72874e-10
5.88223e-10
-8.6182e-10
-1.0326e-09
6.38668e-10
-1.00583e-09
-1.08321e-09
6.78815e-10
-1.12512e-09
7.09411e-10
4.64999e-12
-3.63154e-11
1.54815e-11
5.22591e-12
-1.08005e-10
4.62821e-11
-4.39366e-13
-1.80342e-10
7.8141e-11
-1.40654e-11
-2.57576e-10
1.13623e-10
-3.69776e-11
-3.42357e-10
1.54954e-10
-7.01377e-11
-4.35835e-10
2.04041e-10
-1.14159e-10
-5.37599e-10
2.62234e-10
-1.69622e-10
-6.4562e-10
3.2989e-10
-2.37667e-10
-7.56698e-10
4.06021e-10
-3.19876e-10
-8.6699e-10
4.88089e-10
-4.17203e-10
-9.72078e-10
5.71962e-10
-5.29522e-10
-1.06744e-09
6.52492e-10
-6.56454e-10
-1.15032e-09
7.24927e-10
-7.96155e-10
-1.22155e-09
7.86558e-10
-9.29418e-10
-1.28106e-09
8.35922e-10
-1.3268e-09
8.72863e-10
6.78406e-12
-4.07629e-11
1.83133e-11
9.03657e-12
-1.21188e-10
5.46961e-11
4.54756e-12
-2.02242e-10
9.21972e-11
-8.31091e-12
-2.88696e-10
1.3381e-10
-3.0551e-11
-3.8357e-10
1.82149e-10
-6.25248e-11
-4.8815e-10
2.39439e-10
-1.03883e-10
-6.0183e-10
3.07191e-10
-1.53908e-10
-7.22109e-10
3.85674e-10
-2.12273e-10
-8.45263e-10
4.73554e-10
-2.79205e-10
-9.66988e-10
5.67783e-10
-3.54824e-10
-1.08256e-09
6.63715e-10
-4.39263e-10
-1.18758e-09
7.55802e-10
-5.34375e-10
-1.28037e-09
8.39116e-10
-6.4451e-10
-1.36394e-09
9.10918e-10
-7.62887e-10
-1.43977e-09
9.69023e-10
-1.48647e-09
1.01173e-09
9.4789e-12
-4.36899e-11
2.08004e-11
1.41132e-11
-1.29846e-10
6.20628e-11
1.18035e-11
-2.16578e-10
1.04432e-10
1.16977e-12
-3.08979e-10
1.51227e-10
-1.83296e-11
-4.10241e-10
2.05322e-10
-4.63121e-11
-5.21624e-10
2.6911e-10
-8.14117e-11
-6.42294e-10
3.4413e-10
-1.21652e-10
-7.69433e-10
4.30526e-10
-1.65298e-10
-8.99034e-10
5.26748e-10
-2.11197e-10
-1.02648e-09
6.29482e-10
-2.58478e-10
-1.14675e-09
7.33786e-10
-3.06849e-10
-1.25541e-09
8.33989e-10
-3.57569e-10
-1.35134e-09
9.25398e-10
-4.13519e-10
-1.43863e-09
1.00556e-09
-4.72535e-10
-1.52015e-09
1.07151e-09
-1.62328e-09
1.11953e-09
1.26834e-11
2.291e-11
-4.49453e-11
2.03081e-11
6.82911e-11
-1.33553e-10
2.09883e-11
1.14705e-10
-2.22691e-10
1.36967e-11
1.65675e-10
-3.17532e-10
-1.568e-12
2.2417e-10
-4.21209e-10
-2.37313e-11
2.92565e-10
-5.34834e-10
-5.06097e-11
3.72286e-10
-6.57408e-10
-7.92976e-11
4.63339e-10
-7.86027e-10
-1.06988e-10
5.64108e-10
-9.16636e-10
-1.31408e-10
6.71224e-10
-1.04443e-09
-1.50817e-10
7.7963e-10
-1.16396e-09
-1.64049e-10
8.83704e-10
-1.27017e-09
-1.69595e-10
9.79133e-10
-1.36034e-09
-1.6218e-10
1.06382e-09
-1.43401e-09
-1.33905e-10
1.13407e-09
-1.4862e-09
1.18623e-09
-1.49986e-09
-3.64364e-14
-8.36465e-12
1.42756e-12
-6.36669e-13
-2.48995e-11
4.27686e-12
-2.19277e-12
-4.16277e-11
7.24712e-12
-5.04555e-12
-5.95201e-11
1.0576e-11
-9.55057e-12
-7.92033e-11
1.4456e-11
-1.61006e-11
-1.00944e-10
1.90493e-11
-2.51502e-11
-1.24551e-10
2.44623e-11
-3.7326e-11
-1.49502e-10
3.0738e-11
-5.36416e-11
-1.75354e-10
3.78786e-11
-7.55715e-11
-2.0193e-10
4.57674e-11
-1.05001e-10
-2.28928e-10
5.40613e-11
-1.45138e-10
-2.55966e-10
6.22612e-11
-2.03156e-10
-2.83684e-10
6.9949e-11
-2.92825e-10
-3.14931e-10
7.704e-11
-4.18719e-10
-3.5254e-10
8.35319e-11
-3.84626e-10
9.71321e-11
-7.47708e-14
-1.65727e-11
4.26659e-12
-1.80494e-12
-4.93281e-11
1.27792e-11
-6.32245e-12
-8.24671e-11
2.16433e-11
-1.46146e-11
-1.1794e-10
3.15658e-11
-2.76804e-11
-1.56971e-10
4.31299e-11
-4.65944e-11
-2.00053e-10
5.68285e-11
-7.25631e-11
-2.46886e-10
7.30017e-11
-1.07189e-10
-2.96534e-10
9.17888e-11
-1.52974e-10
-3.47964e-10
1.13125e-10
-2.13341e-10
-4.0027e-10
1.36535e-10
-2.92148e-10
-4.52137e-10
1.609e-10
-3.94918e-10
-5.01861e-10
1.8465e-10
-5.3248e-10
-5.48555e-10
2.06353e-10
-7.2087e-10
-5.92747e-10
2.25302e-10
-9.47317e-10
-6.3313e-10
2.41024e-10
-6.63797e-10
2.5039e-10
6.84853e-14
-2.43111e-11
7.0403e-12
-2.5011e-12
-7.23558e-11
2.10771e-11
-9.46684e-12
-1.20966e-10
3.56649e-11
-2.23496e-11
-1.73025e-10
5.19634e-11
-4.26043e-11
-2.30315e-10
7.09513e-11
-7.16958e-11
-2.93548e-10
9.34717e-11
-1.11164e-10
-3.62377e-10
1.20137e-10
-1.62948e-10
-4.35522e-10
1.51176e-10
-2.29906e-10
-5.11212e-10
1.86305e-10
-3.15562e-10
-5.87394e-10
2.24489e-10
-4.22982e-10
-6.61423e-10
2.63736e-10
-5.5481e-10
-7.30263e-10
3.01414e-10
-7.14369e-10
-7.91875e-10
3.35097e-10
-8.9969e-10
-8.46328e-10
3.63444e-10
-1.07432e-09
-8.93101e-10
3.85757e-10
-9.29215e-10
4.02131e-10
6.06918e-13
-3.12548e-11
9.68405e-12
-2.2392e-12
-9.30086e-11
2.89724e-11
-1.0761e-11
-1.55469e-10
4.8966e-11
-2.6829e-11
-2.22359e-10
7.12504e-11
-5.20854e-11
-2.95981e-10
9.71925e-11
-8.79914e-11
-3.77277e-10
1.27997e-10
-1.35887e-10
-4.65827e-10
1.64547e-10
-1.97319e-10
-5.59917e-10
2.07103e-10
-2.74487e-10
-6.56922e-10
2.55052e-10
-3.69858e-10
-7.53657e-10
3.06714e-10
-4.84811e-10
-8.46355e-10
3.59281e-10
-6.191e-10
-9.31075e-10
4.09266e-10
-7.71212e-10
-1.00529e-09
4.53576e-10
-9.33212e-10
-1.06941e-09
4.90713e-10
-1.07174e-09
-1.12367e-09
5.20207e-10
-1.16684e-09
5.41805e-10
1.71046e-12
-3.71103e-11
1.21408e-11
-6.5625e-13
-1.10408e-10
3.6292e-11
-9.58876e-12
-1.84487e-10
6.12483e-11
-2.70825e-11
-2.63766e-10
8.89808e-11
-5.46796e-11
-3.51005e-10
1.21214e-10
-9.34659e-11
-4.47335e-10
1.59475e-10
-1.44093e-10
-5.52184e-10
2.04854e-10
-2.07093e-10
-6.63287e-10
2.57582e-10
-2.83389e-10
-7.77222e-10
3.16712e-10
-3.7405e-10
-8.89954e-10
3.79981e-10
-4.79198e-10
-9.97003e-10
4.43912e-10
-5.97804e-10
-1.09405e-09
5.044e-10
-7.28871e-10
-1.17876e-09
5.57921e-10
-8.68832e-10
-1.25215e-09
6.02877e-10
-9.95162e-10
-1.31334e-09
6.38613e-10
-1.35903e-09
6.64284e-10
3.47724e-12
-4.16225e-11
1.43658e-11
2.43421e-12
-1.23795e-10
4.29025e-11
-5.67762e-12
-2.06752e-10
7.22853e-11
-2.2757e-11
-2.95429e-10
1.0481e-10
-5.00033e-11
-3.92919e-10
1.42488e-10
-8.7855e-11
-5.00434e-10
1.87072e-10
-1.35962e-10
-6.17147e-10
2.39758e-10
-1.93517e-10
-7.40271e-10
3.00718e-10
-2.59918e-10
-8.65782e-10
3.68782e-10
-3.348e-10
-9.89074e-10
4.41293e-10
-4.17416e-10
-1.10525e-09
5.1426e-10
-5.07019e-10
-1.21008e-09
5.83159e-10
-6.0498e-10
-1.30241e-09
6.44279e-10
-7.1424e-10
-1.38575e-09
6.96001e-10
-8.25264e-10
-1.46133e-09
7.37257e-10
-1.50695e-09
7.66251e-10
5.92539e-12
-4.45781e-11
1.63253e-11
7.03623e-12
-1.32546e-10
4.87042e-11
8.9777e-13
-2.21255e-10
8.19096e-11
-1.41151e-11
-3.15947e-10
1.18479e-10
-3.86919e-11
-4.19851e-10
1.60606e-10
-7.25033e-11
-5.34124e-10
2.10129e-10
-1.14147e-10
-6.57677e-10
2.6823e-10
-1.61503e-10
-7.87336e-10
3.35027e-10
-2.12492e-10
-9.18705e-10
4.09296e-10
-2.65346e-10
-1.0468e-09
4.88207e-10
-3.18394e-10
-1.16634e-09
5.67448e-10
-3.70621e-10
-1.27308e-09
6.42252e-10
-4.23017e-10
-1.36653e-09
7.08917e-10
-4.77197e-10
-1.45161e-09
7.6594e-10
-5.28517e-10
-1.53183e-09
8.11902e-10
-1.63611e-09
8.4409e-10
8.98881e-12
1.79945e-11
-4.58294e-11
1.29718e-11
5.3626e-11
-1.36242e-10
9.74754e-12
9.00055e-11
-2.27346e-10
-1.92131e-12
1.29817e-10
-3.2444e-10
-2.21475e-11
1.75307e-10
-4.30678e-10
-4.98828e-11
2.28256e-10
-5.4706e-10
-8.28744e-11
2.89712e-10
-6.72305e-10
-1.18016e-10
3.59739e-10
-8.03108e-10
-1.52106e-10
4.37179e-10
-9.3498e-10
-1.82277e-10
5.19241e-10
-1.06269e-09
-2.06105e-10
6.0159e-10
-1.18051e-09
-2.21963e-10
6.79397e-10
-1.28354e-09
-2.28306e-10
7.48937e-10
-1.36981e-09
-2.18766e-10
8.08772e-10
-1.43989e-09
-1.8321e-10
8.57189e-10
-1.48978e-09
8.92229e-10
-1.50537e-09
-3.7347e-13
-8.5624e-12
9.81401e-13
-1.31037e-12
-2.54809e-11
2.93961e-12
-3.24025e-12
-4.25805e-11
4.97728e-12
-6.54217e-12
-6.0877e-11
7.25096e-12
-1.16094e-11
-8.10786e-11
9.88798e-12
-1.88808e-11
-1.03545e-10
1.29965e-11
-2.87972e-11
-1.28107e-10
1.6662e-11
-4.18601e-11
-1.54089e-10
2.09354e-11
-5.89651e-11
-1.80863e-10
2.58106e-11
-8.14606e-11
-2.08262e-10
3.11779e-11
-1.11047e-10
-2.3614e-10
3.67766e-11
-1.50858e-10
-2.64279e-10
4.22604e-11
-2.08237e-10
-2.934e-10
4.73652e-11
-2.97533e-10
-3.26188e-10
5.20645e-11
-4.24944e-10
-3.64758e-10
5.63351e-11
-3.95679e-10
6.51476e-11
-1.06808e-12
-1.69543e-11
2.93389e-12
-3.78959e-12
-5.04561e-11
8.78607e-12
-9.4066e-12
-8.43412e-11
1.4869e-11
-1.90104e-11
-1.20642e-10
2.16487e-11
-3.37163e-11
-1.60709e-10
2.95102e-11
-5.47098e-11
-2.05164e-10
3.87945e-11
-8.3122e-11
-2.53674e-10
4.97777e-11
-1.2024e-10
-3.05051e-10
6.25946e-11
-1.68239e-10
-3.58032e-10
7.71638e-11
-2.3016e-10
-4.1173e-10
9.3076e-11
-3.09363e-10
-4.65052e-10
1.09493e-10
-4.11136e-10
-5.16544e-10
1.25337e-10
-5.46702e-10
-5.65409e-10
1.39706e-10
-7.33441e-10
-6.11791e-10
1.52204e-10
-9.62244e-10
-6.5323e-10
1.62451e-10
-6.82708e-10
1.67947e-10
-1.52864e-12
-2.4857e-11
4.84301e-12
-5.68947e-12
-7.39786e-11
1.44971e-11
-1.44114e-11
-1.23684e-10
2.45114e-11
-2.93731e-11
-1.76962e-10
3.56501e-11
-5.21998e-11
-2.35724e-10
4.85633e-11
-8.44682e-11
-3.00767e-10
6.38563e-11
-1.27586e-10
-3.71668e-10
8.20155e-11
-1.83089e-10
-4.46905e-10
1.03223e-10
-2.53339e-10
-5.24472e-10
1.27207e-10
-3.41256e-10
-6.0231e-10
1.53116e-10
-4.49153e-10
-6.77982e-10
1.79489e-10
-5.79309e-10
-7.48729e-10
2.04547e-10
-7.35522e-10
-8.12671e-10
2.2676e-10
-9.17471e-10
-8.6951e-10
2.45344e-10
-1.09304e-09
-9.17581e-10
2.59742e-10
-9.53077e-10
2.69542e-10
-1.5117e-12
-3.19382e-11
6.66444e-12
-6.46291e-12
-9.50471e-11
1.99359e-11
-1.72922e-11
-1.58899e-10
3.36648e-11
-3.60661e-11
-2.27334e-10
4.88955e-11
-6.46034e-11
-3.0276e-10
6.65466e-11
-1.04439e-10
-3.86128e-10
8.7489e-11
-1.56759e-10
-4.76892e-10
1.12398e-10
-2.2269e-10
-5.73125e-10
1.41465e-10
-3.03841e-10
-6.72018e-10
1.74166e-10
-4.01886e-10
-7.70338e-10
2.09157e-10
-5.17263e-10
-8.64458e-10
2.44401e-10
-6.49274e-10
-9.5073e-10
2.77553e-10
-7.96916e-10
-1.0269e-09
3.06662e-10
-9.54135e-10
-1.09316e-09
3.3088e-10
-1.09239e-09
-1.14868e-09
3.49806e-10
-1.19148e-09
3.62775e-10
-8.27129e-13
-3.7897e-11
8.35888e-12
-5.70585e-12
-1.1276e-10
2.49828e-11
-1.73708e-11
-1.88452e-10
4.21239e-11
-3.80255e-11
-2.69512e-10
6.10802e-11
-6.93702e-11
-3.58765e-10
8.30137e-11
-1.12521e-10
-4.57295e-10
1.0901e-10
-1.67954e-10
-5.64342e-10
1.39884e-10
-2.3581e-10
-6.77442e-10
1.75811e-10
-3.16385e-10
-7.93021e-10
2.16045e-10
-4.09835e-10
-9.06958e-10
2.58848e-10
-5.15261e-10
-1.01485e-09
3.0167e-10
-6.31127e-10
-1.11273e-09
3.417e-10
-7.56946e-10
-1.1987e-09
3.76721e-10
-8.91176e-10
-1.27374e-09
4.0587e-10
-1.01647e-09
-1.3359e-09
4.28645e-10
-1.38119e-09
4.44017e-10
6.31475e-13
-4.24743e-11
9.89575e-12
-3.21678e-12
-1.26345e-10
2.95467e-11
-1.43506e-11
-2.11052e-10
4.97335e-11
-3.48706e-11
-3.0164e-10
7.19645e-11
-6.61038e-11
-4.01238e-10
9.75822e-11
-1.08483e-10
-5.10959e-10
1.27801e-10
-1.61481e-10
-6.29768e-10
1.63494e-10
-2.23915e-10
-7.54663e-10
2.04843e-10
-2.94542e-10
-8.81433e-10
2.51029e-10
-3.72084e-10
-1.00535e-09
3.0005e-10
-4.54793e-10
-1.12162e-09
3.48928e-10
-5.41413e-10
-1.22644e-09
3.94488e-10
-6.33782e-10
-1.31931e-09
4.34363e-10
-7.36806e-10
-1.4039e-09
4.677e-10
-8.46213e-10
-1.48047e-09
4.93797e-10
-1.52626e-09
5.11089e-10
2.87588e-12
-4.54584e-11
1.12527e-11
9.9554e-13
-1.3518e-10
3.35611e-11
-8.32836e-12
-2.25689e-10
5.6377e-11
-2.6903e-11
-3.22319e-10
8.13612e-11
-5.5516e-11
-4.28318e-10
1.09954e-10
-9.38131e-11
-5.4474e-10
1.43395e-10
-1.40216e-10
-6.70258e-10
1.82523e-10
-1.9223e-10
-8.01442e-10
2.27557e-10
-2.47162e-10
-9.33676e-10
2.77758e-10
-3.0241e-10
-1.06184e-09
3.31016e-10
-3.55402e-10
-1.18077e-09
3.84128e-10
-4.04689e-10
-1.28673e-09
4.33699e-10
-4.51631e-10
-1.38011e-09
4.77214e-10
-4.99467e-10
-1.4663e-09
5.13861e-10
-5.48196e-10
-1.54797e-09