/*--------------------------------*- C++ -*----------------------------------*\
| =========                 |                                                 |
| \\      /  F ield         | OpenFOAM: The Open Source CFD Toolbox           |
|  \\    /   O peration     | Version:  v1912                                 |
|   \\  /    A nd           | Website:  www.openfoam.com                      |
|    \\/     M anipulation  |                                                 |
\*---------------------------------------------------------------------------*/
FoamFile
{
    version     2.0;
    format      ascii;
    class       volScalarField;
    location    "0.06/fluid";
    object      p;
}
// * * * * * * * * * * * * * * * * * * * * * * * * * * * * * * * * * * * * * //

dimensions      [0 2 -2 0 0 0 0];


internalField   nonuniform List<scalar> 
14592
(
0.102737
0.0977929
0.0952967
0.0935071
0.0918505
0.0904205
0.0890969
0.087869
0.0867413
0.085733
0.0848946
0.0843662
0.0837663
0.0857819
0.0848012
0.0919026
0.0984323
0.0968954
0.0948421
0.0933731
0.0918159
0.0904349
0.0891412
0.0879371
0.0868335
0.0858532
0.0850502
0.0845809
0.0840252
0.0862526
0.0853443
0.0931306
0.0965047
0.0957729
0.0940883
0.0929122
0.0915064
0.09021
0.0889591
0.0877715
0.0866684
0.0856795
0.0848654
0.0843949
0.0838336
0.0861457
0.0852763
0.0932834
0.0950772
0.0948031
0.0934534
0.092506
0.0912364
0.0900218
0.0888184
0.087656
0.0865638
0.0855773
0.0847619
0.0842952
0.0837303
0.0861054
0.0852611
0.0934444
0.094129
0.094018
0.092867
0.0920715
0.0909039
0.0897495
0.088574
0.0874143
0.0863048
0.0852853
0.0844255
0.0839123
0.0832872
0.0856472
0.0847398
0.0930442
0.0934568
0.093424
0.0923959
0.0916983
0.0905975
0.0894805
0.088316
0.0871435
0.0859996
0.0849247
0.0839897
0.0833934
0.0826914
0.085069
0.0843199
0.0933181
0.0929973
0.0930023
0.0920382
0.0913945
0.0903268
0.0892216
0.088047
0.0868422
0.0856415
0.0844789
0.0834083
0.0825907
0.081512
0.0831666
0.0812569
0.0892006
0.0927185
0.0927423
0.0917989
0.0911736
0.0901083
0.0889903
0.0877854
0.0865309
0.0852598
0.0840077
0.0828401
0.0819465
0.0809932
0.0830379
0.0822393
0.0936342
0.102539
0.0975939
0.0951482
0.0934103
0.0918261
0.0904812
0.0892575
0.0881473
0.0871568
0.0863003
0.0856023
0.0851265
0.0843213
0.0853375
0.0828838
0.0855382
0.0982357
0.0966968
0.0946954
0.0932788
0.0917948
0.0905002
0.089308
0.0882236
0.0872597
0.0864334
0.0857709
0.085347
0.08456
0.0857117
0.083198
0.0861283
0.0963052
0.0955712
0.0939379
0.0928138
0.0914804
0.090269
0.0891178
0.0880475
0.0870809
0.0862421
0.0855633
0.0851318
0.0843257
0.0855556
0.083042
0.0861578
0.0948757
0.0945999
0.0933013
0.0924058
0.0912083
0.0900782
0.0889737
0.0879277
0.0869711
0.0861338
0.0854539
0.0850296
0.0842195
0.0855423
0.0830451
0.0863733
0.0939232
0.093811
0.0927101
0.0919658
0.0908686
0.0897966
0.088717
0.0876696
0.0866908
0.085815
0.0850862
0.0846175
0.0837481
0.0851121
0.0825525
0.0860898
0.0932461
0.0932126
0.0922335
0.0915861
0.0905539
0.0895164
0.0884439
0.0873786
0.0863585
0.0854196
0.0846096
0.0840642
0.0831373
0.0846529
0.0823671
0.0868962
0.0927806
0.0927857
0.0918692
0.0912747
0.090273
0.089244
0.0881566
0.0870522
0.0859663
0.0849282
0.0839684
0.0831878
0.0818495
0.082675
0.0791089
0.0827578
0.0924954
0.0925199
0.0916227
0.0910453
0.0900433
0.0889975
0.0878743
0.0867128
0.0855481
0.084415
0.083368
0.0825686
0.081503
0.0831656
0.081258
0.0892011
0.1024
0.0974514
0.0950457
0.093349
0.091825
0.0905528
0.0894158
0.0884098
0.087546
0.0868493
0.0863665
0.0862007
0.0859625
0.0877454
0.0870843
0.0906979
0.0980977
0.0965549
0.0945946
0.0932198
0.091797
0.0905762
0.0894723
0.0884942
0.08766
0.0869978
0.0865572
0.0864536
0.0862549
0.0882036
0.0875555
0.0914549
0.0961643
0.0954262
0.0938338
0.0927509
0.0914779
0.0903392
0.0892747
0.0883087
0.0874693
0.0867917
0.086332
0.0862189
0.0859986
0.0880351
0.0873822
0.0914788
0.094733
0.0944536
0.0931955
0.0923412
0.0912038
0.0901459
0.0891277
0.0881853
0.0873552
0.0866785
0.0862173
0.0861118
0.0858817
0.0880214
0.0873525
0.0916691
0.0937764
0.093661
0.0925997
0.091896
0.0908575
0.0898558
0.0888598
0.0879124
0.0870555
0.0863346
0.0858174
0.0856597
0.0853493
0.0875299
0.0867198
0.0912453
0.0930944
0.0930584
0.0921178
0.0915103
0.0905349
0.0895654
0.088573
0.0876029
0.0866984
0.0859056
0.0852952
0.0850464
0.0846447
0.0869788
0.0863414
0.0919023
0.0926234
0.0926266
0.0917473
0.0911916
0.0902448
0.0892806
0.0882689
0.0872537
0.0862747
0.0853695
0.084587
0.0840637
0.0831534
0.0846809
0.0823991
0.086928
0.092332
0.0923553
0.0914941
0.0909543
0.0900047
0.0890201
0.0879676
0.0868884
0.0858213
0.0848092
0.0839249
0.0833684
0.0826954
0.0850926
0.0843491
0.0933466
0.102304
0.097352
0.0949778
0.0933133
0.0918384
0.0906262
0.0895614
0.0886417
0.0878806
0.087305
0.08696
0.0869247
0.0868314
0.0884464
0.087726
0.0902884
0.0980034
0.0964559
0.0945283
0.0931862
0.0918133
0.0906536
0.0896233
0.0887335
0.0880044
0.0874664
0.087167
0.0871954
0.0871411
0.088902
0.0881689
0.0909254
0.0960673
0.0953245
0.0937645
0.0927139
0.0914901
0.0904115
0.0894193
0.0885397
0.0878033
0.0872471
0.0869255
0.08694
0.0868564
0.0886993
0.0879379
0.0908795
0.0946344
0.0943507
0.0931246
0.0923027
0.0912142
0.0902162
0.0892698
0.0884134
0.0876858
0.0871303
0.086807
0.0868298
0.0867333
0.0886896
0.0878949
0.0910669
0.0936741
0.0935548
0.0925247
0.0918528
0.0908621
0.0899185
0.0889921
0.0881278
0.0873697
0.0867654
0.0863814
0.0863483
0.086163
0.0881773
0.0872179
0.0906304
0.0929878
0.0929484
0.0920381
0.0914617
0.0905326
0.0896191
0.0886935
0.0878026
0.0869917
0.086309
0.0858242
0.0856942
0.0854066
0.0876081
0.086809
0.0913403
0.0925116
0.0925121
0.0916621
0.0911366
0.0902342
0.0893234
0.0883749
0.0874338
0.0865417
0.0857374
0.0850679
0.084648
0.0838167
0.0852115
0.0826635
0.0862037
0.0922147
0.0922359
0.0914027
0.0908921
0.0899849
0.0890508
0.0880571
0.0870462
0.0860586
0.0851388
0.0843605
0.0839128
0.0833372
0.0857348
0.0848395
0.0931475
0.102241
0.0972848
0.094935
0.0932949
0.0918584
0.0906935
0.0896855
0.0888327
0.0881489
0.0876599
0.0874068
0.0874531
0.0874737
0.0890352
0.0885193
0.0908508
0.0979411
0.0963892
0.0944867
0.0931695
0.0918358
0.0907243
0.089752
0.0889307
0.0882809
0.0878322
0.0876279
0.0877408
0.0878055
0.0895119
0.0889931
0.0915001
0.0960029
0.0952555
0.0937204
0.0926944
0.0915091
0.0904779
0.0895426
0.0887301
0.0880713
0.0876025
0.0873737
0.0874701
0.0875022
0.0892907
0.0887354
0.091429
0.0945685
0.0942806
0.0930792
0.0922819
0.0912319
0.090281
0.0893913
0.0886018
0.0879516
0.0874834
0.0872535
0.0873596
0.0873781
0.0892889
0.0886899
0.0916209
0.0936051
0.0934818
0.0924758
0.0918281
0.0908748
0.0899771
0.0891056
0.0883059
0.0876225
0.0871025
0.0868089
0.0868573
0.0867818
0.0887624
0.0879799
0.0911666
0.092915
0.0928722
0.0919852
0.0914324
0.0905396
0.0896703
0.0887973
0.0879681
0.0872283
0.0866254
0.0862262
0.0861742
0.0859882
0.088174
0.0875289
0.091868
0.0924346
0.0924321
0.0916045
0.0911019
0.0902343
0.0893657
0.088467
0.0875838
0.0867578
0.0860272
0.0854357
0.0850851
0.0843324
0.0857082
0.0832285
0.0865709
0.092133
0.0921518
0.0913399
0.0908515
0.0899773
0.0890829
0.0881357
0.0871784
0.0862515
0.0853994
0.0846941
0.0843175
0.0838219
0.0862593
0.0854354
0.0936404
0.102201
0.0972415
0.0949093
0.0932869
0.0918786
0.0907485
0.0897821
0.0889778
0.0883488
0.0879197
0.0877278
0.0878268
0.0879202
0.0894263
0.0890043
0.0911369
0.097902
0.0963462
0.0944622
0.0931629
0.091858
0.0907819
0.0898522
0.0890806
0.0884874
0.0881006
0.0879601
0.0881278
0.088269
0.0899179
0.0894951
0.0917858
0.095962
0.0952107
0.0936938
0.0926855
0.0915287
0.0905323
0.0896387
0.088875
0.0882715
0.0878632
0.0876967
0.0878462
0.0879522
0.0896823
0.0892155
0.0916919
0.0945265
0.094235
0.0930516
0.092272
0.0912503
0.0903342
0.0894861
0.0887452
0.0881504
0.0877429
0.087576
0.0877363
0.0878285
0.0896865
0.0891681
0.0918858
0.0935606
0.093434
0.0924456
0.0918153
0.0908895
0.0900256
0.0891944
0.0884418
0.0878118
0.0873505
0.0871179
0.0872193
0.0872141
0.0891493
0.0884346
0.0914174
0.0928676
0.0928218
0.0919518
0.091416
0.0905499
0.0897132
0.0888789
0.0880947
0.0874057
0.0868586
0.0865174
0.0865158
0.0863938
0.0885445
0.0879499
0.0921048
0.0923838
0.0923787
0.0915674
0.0910813
0.0902393
0.0894017
0.0885396
0.0876988
0.0869204
0.0862416
0.0857032
0.0853978
0.084695
0.0860364
0.0835571
0.0867148
0.0920785
0.0920952
0.0912987
0.0908263
0.0899764
0.0891112
0.0881983
0.0872802
0.086397
0.0855924
0.0849365
0.084605
0.0841577
0.0865956
0.0857738
0.093861
0.102177
0.097216
0.0948953
0.0932842
0.0918945
0.0907871
0.0898479
0.089075
0.0884811
0.0880894
0.0879342
0.0880625
0.0881941
0.089654
0.0892744
0.0912891
0.0978793
0.096321
0.0944488
0.0931612
0.0918752
0.0908224
0.0899205
0.0891812
0.0886241
0.0882761
0.0881741
0.0883726
0.0885542
0.0901559
0.0897774
0.0919413
0.095938
0.0951842
0.0936791
0.0926823
0.0915441
0.0905706
0.0897043
0.0889722
0.088404
0.0880336
0.0879047
0.0880837
0.0882287
0.089911
0.089484
0.0918337
0.0945019
0.0942079
0.0930362
0.0922681
0.091265
0.0903717
0.0895509
0.0888416
0.0882821
0.0879128
0.087784
0.0879746
0.0881059
0.0899195
0.0894363
0.0920298
0.0935342
0.0934054
0.0924283
0.0918093
0.0909017
0.0900599
0.0892552
0.0885331
0.0879374
0.087513
0.0873174
0.0874485
0.0874804
0.0893763
0.0886897
0.0915548
0.0928392
0.0927914
0.0919324
0.0914076
0.0905591
0.0897437
0.0889348
0.0881799
0.0875236
0.0870116
0.0867054
0.086732
0.0866432
0.0887606
0.0881833
0.0922322
0.0923531
0.0923463
0.0915455
0.0910701
0.0902449
0.0894276
0.0885897
0.0877765
0.0870287
0.0863826
0.0858766
0.0855967
0.0849199
0.0862301
0.0837405
0.0867914
0.0920452
0.0920605
0.0912741
0.090812
0.089978
0.089132
0.0882416
0.0873491
0.0864941
0.0857195
0.0850937
0.0847874
0.084365
0.0867928
0.0859614
0.0939821
0.102166
0.0972046
0.0948888
0.0932836
0.0919029
0.0908066
0.0898805
0.0891225
0.0885448
0.0881698
0.0880302
0.0881686
0.0883147
0.0897462
0.0893824
0.0913465
0.0978693
0.0963094
0.094443
0.093161
0.0918843
0.0908428
0.0899543
0.0892303
0.08869
0.0883593
0.0882735
0.0884825
0.0886797
0.0902522
0.0898902
0.0920001
0.0959269
0.095172
0.0936726
0.0926812
0.0915523
0.0905898
0.0897367
0.0890196
0.0884678
0.0881143
0.0880012
0.0881903
0.0883502
0.0900031
0.0895906
0.0918865
0.0944906
0.0941953
0.0930294
0.0922667
0.0912728
0.0903905
0.0895828
0.0888886
0.0883456
0.0879935
0.0878809
0.0880821
0.0882287
0.0900147
0.089544
0.0920844
0.0935221
0.0933921
0.0924206
0.0918069
0.0909083
0.0900773
0.0892854
0.0885779
0.0879983
0.0875906
0.0874111
0.0875527
0.0876
0.0894715
0.0887957
0.0916119
0.0928261
0.0927772
0.0919236
0.091404
0.0905642
0.0897592
0.0889626
0.0882217
0.0875808
0.0870848
0.0867939
0.0868303
0.086755
0.0888495
0.088276
0.092279
0.0923387
0.0923311
0.0915354
0.0910651
0.0902483
0.0894409
0.0886147
0.0878147
0.0870815
0.0864506
0.0859593
0.085689
0.0850246
0.0863161
0.0838225
0.0868278
0.0920296
0.0920442
0.0912626
0.0908053
0.0899794
0.0891427
0.0882633
0.0873831
0.0865416
0.0857808
0.0851685
0.0848711
0.0844596
0.0868755
0.0860369
0.0940277
0.113325
0.103555
0.0991572
0.0959247
0.0932386
0.0909627
0.088866
0.0868569
0.084867
0.0828383
0.0807167
0.0784478
0.0759771
0.0732429
0.0701972
0.0670033
0.109033
0.102582
0.0986774
0.0957645
0.093179
0.0909492
0.0888765
0.0868819
0.0849026
0.0828828
0.0807691
0.0785072
0.0760421
0.0733115
0.0702634
0.0670668
0.1071
0.101452
0.0979348
0.0953195
0.0928934
0.0907566
0.0887367
0.0867711
0.0848073
0.0827958
0.0806875
0.0784311
0.0759744
0.0732574
0.0702276
0.0670547
0.105678
0.10048
0.0972992
0.0949131
0.0926268
0.0905756
0.0886078
0.0866731
0.0847271
0.0827259
0.0806241
0.0783738
0.0759255
0.0732216
0.0702105
0.0670582
0.104744
0.0997085
0.0967321
0.0945024
0.0923268
0.0903478
0.0884243
0.0865142
0.0845801
0.0825832
0.0804829
0.0782352
0.0757947
0.0731087
0.0701286
0.0670129
0.104093
0.0991327
0.0962842
0.0941569
0.0920585
0.0901312
0.0882391
0.0863451
0.0844166
0.0824192
0.0803163
0.0780683
0.0756344
0.0729674
0.0700242
0.0669509
0.10366
0.0987338
0.0959556
0.0938879
0.0918347
0.089937
0.0880607
0.0861715
0.08424
0.0822353
0.0801245
0.0778725
0.0754431
0.0727956
0.0698948
0.0668685
0.103411
0.0984995
0.0957493
0.0937063
0.0916694
0.0897793
0.0879023
0.0860058
0.0840623
0.0820434
0.0799195
0.0776596
0.0752325
0.0726047
0.0697512
0.0667748
0.108972
0.102513
0.0986035
0.0956855
0.0930935
0.0908532
0.0887675
0.0867573
0.0847599
0.0827195
0.0805831
0.0782972
0.0758111
0.0730703
0.0699749
0.0668427
0.104647
0.1016
0.0981331
0.0955334
0.093038
0.0908414
0.0887777
0.0867803
0.0847919
0.0827587
0.0806284
0.0783476
0.0758654
0.0731278
0.0700285
0.0668975
0.102724
0.100482
0.097392
0.0950891
0.0927519
0.0906477
0.0886368
0.0866684
0.0846956
0.0826708
0.0805462
0.0782713
0.075798
0.0730749
0.0699947
0.066888
0.1013
0.0995115
0.0967601
0.0946867
0.092489
0.0904705
0.0885121
0.0865751
0.084621
0.0826077
0.0804909
0.0782235
0.0757597
0.0730508
0.0699907
0.0669024
0.100369
0.098741
0.0961943
0.0942774
0.0921906
0.0902446
0.088331
0.0864195
0.0844782
0.0824704
0.0803565
0.0780933
0.0756391
0.0729492
0.0699232
0.0668683
0.099719
0.0981659
0.0957483
0.0939341
0.0919247
0.0900312
0.0881498
0.0862555
0.0843211
0.0823142
0.0801995
0.077938
0.0754922
0.0728225
0.069838
0.0668205
0.099287
0.0977682
0.0954215
0.0936671
0.0917034
0.0898403
0.0879756
0.0860871
0.0841511
0.0821385
0.0800178
0.0777544
0.075315
0.0726653
0.0697289
0.0667513
0.0990393
0.0975354
0.095217
0.0934876
0.0915407
0.089686
0.0878215
0.0859269
0.0839801
0.0819551
0.0798233
0.0775545
0.0751202
0.0724916
0.069612
0.0666767
0.107049
0.101391
0.0978821
0.0952757
0.0928675
0.0907517
0.0887575
0.0868221
0.0848926
0.082918
0.0808452
0.0786145
0.0761671
0.0734502
0.0701771
0.0670882
0.102737
0.100492
0.0974165
0.0951279
0.0928156
0.0907439
0.0887728
0.0868514
0.0849326
0.0829671
0.0809025
0.0786791
0.0762373
0.0735272
0.0702466
0.067166
0.100819
0.0993802
0.0966764
0.0946837
0.0925281
0.090548
0.0886288
0.0867356
0.0848312
0.082873
0.080813
0.078595
0.0761619
0.0734683
0.0702089
0.0671563
0.0993967
0.0984121
0.0960456
0.0942822
0.0922654
0.0903702
0.0885029
0.0866405
0.0847542
0.0828067
0.080754
0.0785431
0.0761199
0.0734417
0.0702078
0.0671735
0.098465
0.0976412
0.0954787
0.0938711
0.0919642
0.0901405
0.0883165
0.0864778
0.0846022
0.0826577
0.0806053
0.0783965
0.0759814
0.0733224
0.0701324
0.0671306
0.0978136
0.0970647
0.0950308
0.0935255
0.091695
0.0899224
0.088129
0.0863053
0.0844338
0.082487
0.0804302
0.0782197
0.0758108
0.0731705
0.0700364
0.0670682
0.0973794
0.0966649
0.0947014
0.0932554
0.0914696
0.0897258
0.087947
0.0861265
0.08425
0.0822933
0.0802257
0.0780084
0.0756018
0.0729766
0.0699075
0.0669688
0.097129
0.0964297
0.0944939
0.0930725
0.0913022
0.0895651
0.0877843
0.0859545
0.0840634
0.0820894
0.0800053
0.0777777
0.0753734
0.0727664
0.0697833
0.0668776
0.105572
0.100354
0.0971965
0.0948313
0.0925857
0.0905844
0.0886776
0.0868154
0.0849534
0.0830457
0.0810406
0.0788728
0.0764722
0.0738422
0.0702635
0.0674044
0.101257
0.0994557
0.0967328
0.0946855
0.0925354
0.0905779
0.0886942
0.0868464
0.0849955
0.0830976
0.081102
0.0789434
0.0765499
0.0739347
0.0703421
0.0675117
0.0993395
0.0983447
0.0959926
0.0942407
0.0922464
0.0903796
0.0885469
0.0867261
0.0848886
0.0829969
0.081005
0.0788513
0.0764666
0.0738712
0.0703025
0.0675045
0.0979174
0.0973783
0.0953632
0.0938405
0.0919847
0.0902027
0.0884217
0.0866316
0.084812
0.082931
0.0809467
0.078801
0.0764273
0.0738491
0.0703146
0.067531
0.0969855
0.0966076
0.0947958
0.0934288
0.0916822
0.0899708
0.0882323
0.0864645
0.084654
0.0827742
0.0807881
0.0786428
0.0762765
0.0737162
0.0702418
0.0674818
0.0963333
0.0960309
0.0943473
0.0930823
0.0914115
0.0897505
0.0880412
0.0862869
0.0844784
0.0825935
0.0805998
0.0784497
0.0760876
0.0735416
0.0701483
0.0674064
0.0958978
0.0956303
0.0940167
0.0928108
0.091184
0.0895507
0.0878545
0.0861013
0.0842848
0.0823863
0.0803768
0.0782143
0.075849
0.0733036
0.0700022
0.0672551
0.0956458
0.095394
0.0938077
0.0926261
0.091014
0.0893861
0.0876862
0.0859211
0.0840867
0.0821663
0.080135
0.0779576
0.0755942
0.0730588
0.0699008
0.0671618
0.10461
0.0995509
0.0966255
0.0944446
0.0923547
0.0904823
0.0886893
0.0869357
0.0851847
0.0833952
0.0815167
0.0794721
0.0771522
0.0747399
0.0706386
0.0683195
0.100299
0.0986533
0.0961642
0.0943015
0.0923075
0.0904798
0.088711
0.0869732
0.0852352
0.083458
0.0815921
0.0795613
0.0772512
0.074871
0.0707464
0.0685011
0.0983808
0.0975416
0.0954226
0.0938548
0.0920158
0.0902777
0.0885587
0.0868464
0.08512
0.0833471
0.0814831
0.0794564
0.0771548
0.0748003
0.0707052
0.0684998
0.0969587
0.0965756
0.094793
0.0934542
0.0917533
0.0900994
0.0884314
0.0867489
0.0850394
0.083276
0.0814187
0.0794
0.0771107
0.0747761
0.0707311
0.068535
0.0960248
0.0958033
0.0942231
0.0930393
0.0914465
0.0898616
0.0882337
0.0865708
0.0848666
0.0831
0.0812361
0.0792137
0.0769303
0.0746104
0.0706544
0.0684671
0.0953701
0.0952243
0.0937714
0.092689
0.0911706
0.089634
0.0880327
0.0863794
0.0846724
0.0828947
0.081016
0.0789819
0.0766998
0.0743857
0.0705591
0.068366
0.0949312
0.0948208
0.0934369
0.0924128
0.0909366
0.0894254
0.0878338
0.0861769
0.0844558
0.0826561
0.0807513
0.0786925
0.0763962
0.0740492
0.0703542
0.0680809
0.0946752
0.094581
0.0932235
0.0922227
0.0907594
0.0892508
0.0876516
0.0859776
0.0842313
0.0824009
0.0804642
0.0783819
0.0760917
0.0737387
0.0702901
0.067985
0.103906
0.0989168
0.0961552
0.0941124
0.0921561
0.090406
0.0887308
0.0870985
0.0854803
0.0838425
0.0821395
0.0802824
0.0780466
0.0759523
0.0707474
0.0689279
0.0995964
0.0980188
0.0956954
0.0939714
0.0921116
0.090407
0.0887571
0.0871422
0.085539
0.0839163
0.0822294
0.0803913
0.0781638
0.076121
0.0708564
0.0691568
0.0976768
0.0969051
0.0949515
0.0935219
0.0918163
0.0902002
0.0885986
0.0870072
0.0854133
0.0837922
0.0821045
0.0802686
0.0780464
0.0760333
0.070798
0.0691412
0.096254
0.0959387
0.0943211
0.0931205
0.0915525
0.09002
0.0884686
0.086906
0.0853278
0.0837147
0.0820322
0.0802034
0.0779937
0.0760022
0.0708379
0.0691893
0.0953174
0.095164
0.0937481
0.0927017
0.0912404
0.0897751
0.0882613
0.0867147
0.0851372
0.083515
0.081819
0.0799797
0.0777726
0.0757895
0.0707573
0.0691089
0.0946593
0.0945822
0.0932926
0.0923468
0.0909583
0.0895389
0.0880484
0.086507
0.0849204
0.0832787
0.0815575
0.0796959
0.077487
0.0755006
0.0706854
0.0690323
0.0942162
0.0941751
0.0929534
0.092065
0.0907168
0.0893199
0.087835
0.0862842
0.0846752
0.0830002
0.081237
0.0793293
0.0770881
0.0750136
0.0703964
0.0685645
0.0939557
0.0939312
0.0927346
0.0918685
0.090531
0.0891336
0.0876364
0.0860617
0.0844184
0.0827009
0.0808924
0.0789517
0.0767427
0.0746768
0.0705514
0.0687946
0.103391
0.0984315
0.0957858
0.0938486
0.0920075
0.0903729
0.0888176
0.087317
0.0858518
0.0844032
0.082953
0.081466
0.0796396
0.0787548
0.0734631
0.0738368
0.0990829
0.0975335
0.0953277
0.0937099
0.0919661
0.0903781
0.0888496
0.0873682
0.0859209
0.0844914
0.0830638
0.0816097
0.0798046
0.0790295
0.073685
0.0742487
0.097161
0.0964172
0.0945808
0.0932569
0.0916665
0.0901657
0.0886837
0.0872237
0.0857831
0.0843524
0.0829215
0.0814698
0.07967
0.0789392
0.0736337
0.0742592
0.0957369
0.0954499
0.0939492
0.0928542
0.0914009
0.0899831
0.0885505
0.0871182
0.0856916
0.0842673
0.0828399
0.0813942
0.0796058
0.0788993
0.0736802
0.0743297
0.0947969
0.0946722
0.0933721
0.0924307
0.0910825
0.0897297
0.0883317
0.0869112
0.08548
0.0840394
0.0825894
0.0811223
0.0793247
0.0786061
0.0735344
0.0741872
0.0941346
0.0940867
0.0929119
0.0920702
0.090793
0.0894835
0.0881049
0.0866841
0.0852362
0.0837655
0.0822755
0.0807666
0.0789497
0.0781943
0.0733927
0.0740827
0.0936865
0.0936752
0.092567
0.0917816
0.0905425
0.0892521
0.0878744
0.0864372
0.0849567
0.0834371
0.0818796
0.0802794
0.0783628
0.0773583
0.0726619
0.0729593
0.0934204
0.0934263
0.092342
0.0915777
0.0903466
0.0890519
0.0876563
0.0861874
0.0846613
0.0830838
0.0814601
0.079797
0.0779064
0.0768477
0.0727724
0.0733207
0.103013
0.0980653
0.0955044
0.0936496
0.0919076
0.0903799
0.0889422
0.0875748
0.0862643
0.0849927
0.0837303
0.0824163
0.0804254
0.0794596
0.072315
0.0682203
0.0987065
0.0971674
0.0950481
0.0935133
0.0918696
0.0903896
0.0889801
0.087634
0.0863438
0.0850941
0.0838562
0.0825777
0.0805925
0.0797309
0.0724647
0.067878
0.0967818
0.0960481
0.0942978
0.0930564
0.0915651
0.090171
0.0888062
0.0874791
0.0861924
0.0849376
0.083692
0.0824124
0.0804236
0.0796123
0.0723786
0.0678273
0.0953561
0.0950796
0.0936646
0.092652
0.0912974
0.0899857
0.0886693
0.0873687
0.0860946
0.0848446
0.0836012
0.0823292
0.0803531
0.0795904
0.0724718
0.0681156
0.0944121
0.0942983
0.093083
0.0922231
0.0909721
0.0897231
0.088438
0.0871448
0.0858603
0.0845872
0.0833142
0.082017
0.080032
0.0792857
0.0723644
0.0683104
0.093745
0.0937087
0.0926175
0.0918564
0.0906743
0.0894657
0.0881959
0.0868966
0.0855877
0.0842747
0.0829518
0.0816097
0.0796236
0.0789205
0.0724577
0.0690484
0.0932914
0.0932923
0.0922664
0.0915604
0.0904139
0.0892208
0.0879467
0.0866236
0.0852718
0.0838959
0.0824855
0.0810228
0.0789
0.0778816
0.0714933
0.0681085
0.093019
0.093038
0.0920344
0.0913482
0.090207
0.0890054
0.0877075
0.0863445
0.0849371
0.083494
0.0820187
0.080524
0.0785684
0.0777954
0.0725413
0.0710834
0.0926104
0.0926409
0.091683
0.0910451
0.0899542
0.0888
0.0875445
0.0862182
0.0848418
0.0834241
0.0819691
0.0804897
0.0785443
0.0777759
0.0725187
0.0710503
0.0926787
0.0927037
0.0916966
0.091016
0.0898735
0.0886635
0.0873446
0.0859428
0.0844737
0.0829434
0.0813574
0.079723
0.077852
0.076804
0.0727294
0.0732705
0.0929447
0.0929442
0.0918471
0.0910907
0.0898706
0.088587
0.0871938
0.0857107
0.0841459
0.0824936
0.0807376
0.078837
0.0766562
0.074607
0.0704866
0.0687257
0.0934504
0.0933835
0.0921413
0.091269
0.0899448
0.088572
0.0870981
0.0855352
0.0838844
0.0821338
0.0802615
0.0782289
0.0759746
0.073644
0.0702052
0.0678999
0.0942565
0.0940344
0.0925744
0.0915349
0.0900775
0.0886018
0.087043
0.0854039
0.0836782
0.0818489
0.0798916
0.0777717
0.0754503
0.0729423
0.0697987
0.0670634
0.0956224
0.0949549
0.093153
0.0918828
0.090278
0.0887043
0.0870758
0.0853823
0.0836092
0.0817344
0.079731
0.0775666
0.0752089
0.0726333
0.0696681
0.0667691
0.097451
0.09598
0.0938002
0.0922284
0.0904542
0.0887705
0.0870658
0.0853146
0.0834925
0.0815723
0.0795262
0.0773246
0.0749404
0.0723461
0.069487
0.0665608
0.101802
0.0969263
0.0943151
0.0924309
0.0905685
0.0888515
0.0871362
0.0853848
0.0835673
0.0816546
0.0796175
0.0774257
0.0750494
0.0724566
0.0696242
0.0666575
0.0923806
0.0924126
0.0914993
0.0909079
0.0898774
0.088791
0.0876105
0.0863673
0.0850822
0.083761
0.0823942
0.0809643
0.0788635
0.0778556
0.0714619
0.0680578
0.0924424
0.0924695
0.0915056
0.09087
0.0897851
0.0886387
0.0873887
0.0860616
0.0846736
0.08323
0.081733
0.0801786
0.0782931
0.0773048
0.072607
0.0728904
0.0927023
0.0927046
0.0916493
0.0909367
0.0897715
0.0885475
0.0872175
0.085801
0.0843056
0.0827243
0.0810359
0.079185
0.0769831
0.0749309
0.0703175
0.0684761
0.0932028
0.0931393
0.0919376
0.0911081
0.0898364
0.08852
0.0871043
0.085601
0.0840102
0.0823185
0.0805002
0.0785075
0.0762578
0.0739391
0.070254
0.0679767
0.0940045
0.0937862
0.0923657
0.091368
0.0899613
0.088539
0.0870345
0.0854494
0.0837763
0.0819967
0.080083
0.0779941
0.0756817
0.0731699
0.0698841
0.0671384
0.0953682
0.0947052
0.0929423
0.0917136
0.0901587
0.0886371
0.0870609
0.0854187
0.0836947
0.0818649
0.0798996
0.0777615
0.0754125
0.0728252
0.069776
0.0668427
0.0971937
0.0957277
0.0935862
0.0920554
0.0903297
0.0886963
0.0870417
0.0853387
0.0835615
0.0816814
0.0796677
0.0774875
0.0751093
0.0725006
0.0695873
0.0666182
0.101546
0.096676
0.0941029
0.0922599
0.0904465
0.0887806
0.0871162
0.0854141
0.083643
0.0817719
0.0797693
0.0776014
0.0752339
0.0726281
0.0697513
0.0667343
0.0922109
0.0922424
0.0913636
0.0908085
0.0898277
0.0887987
0.087683
0.0865131
0.0853112
0.0840856
0.0828323
0.0815429
0.0795924
0.0789067
0.0724326
0.0689889
0.0922665
0.0922938
0.091363
0.0907625
0.0897247
0.0886318
0.0874411
0.0861795
0.0848638
0.0835011
0.0820968
0.0806527
0.0788795
0.0781463
0.0733379
0.074003
0.0925207
0.0925237
0.0915003
0.0908216
0.0897012
0.088527
0.0872512
0.0858928
0.0844591
0.0829424
0.0813204
0.0795336
0.0773759
0.075417
0.0706018
0.0689306
0.0930163
0.092954
0.0917831
0.0909866
0.0897575
0.0884879
0.0871221
0.0856707
0.0841328
0.0824936
0.0807252
0.0787747
0.0765508
0.0742702
0.0704517
0.0682484
0.0938138
0.0935972
0.0922064
0.0912409
0.089875
0.0884971
0.0870388
0.0855006
0.0838738
0.0821381
0.0802633
0.078204
0.0759062
0.0733994
0.0700215
0.0672767
0.0951755
0.0945147
0.0927812
0.0915844
0.0900695
0.0885911
0.0870594
0.0854618
0.0837809
0.0819908
0.0800593
0.0779449
0.0756049
0.0730085
0.0698952
0.0669296
0.0969981
0.0955347
0.093422
0.0919226
0.0902358
0.0886439
0.0870317
0.0853704
0.0836327
0.0817879
0.079803
0.0776415
0.0752681
0.0726457
0.069686
0.0666752
0.101351
0.0964848
0.0939403
0.092129
0.0903549
0.0887313
0.0871102
0.0854509
0.0837206
0.0818865
0.0799144
0.0777672
0.0754066
0.0727877
0.0698704
0.0668047
0.092088
0.0921179
0.0912659
0.090739
0.0897982
0.0888163
0.0877545
0.0866458
0.0855125
0.0843623
0.0831878
0.0819662
0.0800323
0.0793125
0.0723682
0.0682561
0.092138
0.0921643
0.091259
0.0906857
0.0896857
0.0886366
0.0874952
0.0862883
0.0850325
0.0837343
0.0823975
0.0810162
0.0792764
0.0785876
0.073499
0.0741124
0.092387
0.0923897
0.0913906
0.0907381
0.0896533
0.08852
0.0872892
0.0859793
0.084597
0.0831331
0.0815623
0.0798174
0.0776741
0.0757242
0.0706839
0.0690059
0.0928782
0.092816
0.0916685
0.0908973
0.0897021
0.0884707
0.0871461
0.0857381
0.0842446
0.082649
0.0809203
0.0789998
0.0767865
0.0745055
0.0705526
0.0683468
0.0936719
0.0934558
0.0920876
0.0911466
0.0898132
0.0884711
0.087051
0.0855521
0.0839641
0.0822652
0.0804222
0.0783852
0.0760948
0.0735791
0.0701177
0.0673486
0.0950318
0.0943721
0.0926607
0.0914883
0.0900051
0.0885617
0.0870668
0.0855065
0.0838619
0.0821054
0.0802019
0.0781063
0.0757715
0.0731619
0.0699921
0.0669882
0.0968519
0.0953897
0.0932988
0.0918232
0.0901671
0.0886089
0.0870316
0.0854052
0.0837008
0.0818859
0.0799251
0.0777787
0.075408
0.0727712
0.0697705
0.0667188
0.101206
0.0963414
0.0938184
0.0920314
0.0902885
0.0886991
0.0871137
0.0854904
0.0837946
0.0819918
0.0800454
0.0779154
0.0755593
0.0729272
0.0699738
0.0668625
0.0920013
0.0920294
0.0911977
0.0906921
0.0897826
0.0888376
0.0878186
0.086758
0.0856778
0.0845841
0.0834658
0.08229
0.0803775
0.0796502
0.0724829
0.0680322
0.0920466
0.0920716
0.0911857
0.0906328
0.0896621
0.0886474
0.0875451
0.0863813
0.0851722
0.0839228
0.082634
0.0812936
0.0795754
0.0789076
0.0736533
0.0742506
0.0922912
0.0922931
0.0913124
0.0906795
0.0896224
0.0885211
0.0873259
0.0860546
0.0847126
0.0832893
0.0817562
0.0800396
0.0779046
0.0759523
0.0707653
0.0690775
0.0927786
0.092716
0.0915861
0.0908339
0.0896649
0.0884634
0.0871715
0.085798
0.0843397
0.0827781
0.0810792
0.0791793
0.0769706
0.0746802
0.0706304
0.0684095
0.0935692
0.093353
0.0920016
0.091079
0.0897705
0.0884566
0.0870667
0.085599
0.0840421
0.0823721
0.0805535
0.0785324
0.0762449
0.0737166
0.0701914
0.0673941
0.0949276
0.0942682
0.0925733
0.0914192
0.0899604
0.0885443
0.0870786
0.0855481
0.0839326
0.0822029
0.0803213
0.0782397
0.0759071
0.0732835
0.0700686
0.0670286
0.0967454
0.0952839
0.0932091
0.0917514
0.0901188
0.0885868
0.0870372
0.0854387
0.0837611
0.0819702
0.0800284
0.0778935
0.0755237
0.0728732
0.0698386
0.0667505
0.1011
0.096237
0.0937299
0.0919611
0.0902421
0.0886795
0.0871224
0.0855278
0.0838599
0.0820823
0.0801566
0.0780397
0.0756861
0.0730416
0.0700578
0.066907
0.0919431
0.0919695
0.0911524
0.0906621
0.0897755
0.0888578
0.0878703
0.0868451
0.0858034
0.08475
0.0836704
0.0825246
0.0806252
0.0798753
0.0725418
0.0678088
0.0919846
0.0920083
0.0911363
0.090598
0.0896489
0.0886596
0.0875861
0.0864542
0.0852791
0.0840644
0.0828086
0.0814944
0.0797877
0.0791194
0.0737446
0.0743013
0.0922258
0.0922267
0.0912592
0.0906404
0.0896036
0.0885258
0.0873569
0.0861142
0.0848019
0.083408
0.0819012
0.0802033
0.0780725
0.076111
0.0708234
0.0691127
0.0927103
0.0926471
0.0915297
0.090791
0.0896412
0.0884617
0.087194
0.0858462
0.0844139
0.082877
0.0811993
0.0793131
0.077106
0.0748037
0.0706856
0.0684437
0.0934984
0.0932818
0.0919424
0.0910329
0.0897426
0.0884494
0.0870819
0.0856375
0.0841036
0.0824549
0.0806538
0.0786435
0.0763568
0.0738162
0.070245
0.0674213
0.0948555
0.0941962
0.0925131
0.0913719
0.0899309
0.0885349
0.0870909
0.0855827
0.0839889
0.082279
0.0804135
0.0783415
0.0760095
0.0733739
0.0701254
0.0670554
0.0966717
0.0952104
0.093147
0.091702
0.0900865
0.0885738
0.0870447
0.0854671
0.0838095
0.0820365
0.0801088
0.0779821
0.0756121
0.0729502
0.0698897
0.0667725
0.101027
0.0961645
0.0936687
0.0919128
0.0902114
0.0886684
0.0871325
0.0855594
0.0839123
0.0821537
0.0802432
0.0781358
0.0757833
0.0731285
0.070121
0.066939
0.0919072
0.0919325
0.0911249
0.0906445
0.0897729
0.0888732
0.0879064
0.0869044
0.0858877
0.08486
0.0838044
0.0826755
0.0807822
0.0800104
0.0725706
0.0676537
0.0919462
0.0919691
0.091106
0.0905772
0.0896422
0.0886695
0.0876151
0.086504
0.0853511
0.0841587
0.0829233
0.0816239
0.0799224
0.0792468
0.0737945
0.0743187
0.092185
0.0921854
0.0912263
0.0906166
0.089593
0.0885307
0.0873793
0.0861553
0.0848624
0.0834874
0.0819973
0.0803104
0.0781814
0.07621
0.0708589
0.0691276
0.0926675
0.0926039
0.0914946
0.0907646
0.0896274
0.0884623
0.0872106
0.0858798
0.0844645
0.0829438
0.0812794
0.0794014
0.0771946
0.0748818
0.0707198
0.0684599
0.0934539
0.0932371
0.0919054
0.0910044
0.089726
0.0884463
0.0870937
0.0856647
0.084146
0.0825112
0.0807213
0.0787176
0.0764308
0.0738805
0.0702796
0.0674361
0.0948102
0.0941509
0.0924753
0.0913426
0.0899132
0.0885305
0.0871007
0.0856073
0.084028
0.0823311
0.080476
0.0784102
0.0760781
0.0734335
0.0701628
0.0670714
0.0966252
0.0951641
0.093108
0.0916712
0.090067
0.0885669
0.0870514
0.0854876
0.0838433
0.0820822
0.0801637
0.0780421
0.0756716
0.0730015
0.0699236
0.0667862
0.100981
0.0961189
0.0936303
0.0918829
0.0901929
0.0886629
0.0871409
0.0855821
0.0839489
0.0822029
0.0803024
0.0782011
0.0758489
0.0731866
0.0701631
0.0669594
0.0918903
0.091915
0.091112
0.0906362
0.0897722
0.0888812
0.0879246
0.0869339
0.0859293