/*--------------------------------*- C++ -*----------------------------------*\
| =========                 |                                                 |
| \\      /  F ield         | OpenFOAM: The Open Source CFD Toolbox           |
|  \\    /   O peration     | Version:  v1912                                 |
|   \\  /    A nd           | Website:  www.openfoam.com                      |
|    \\/     M anipulation  |                                                 |
\*---------------------------------------------------------------------------*/
FoamFile
{
    version     2.0;
    format      ascii;
    class       pointVectorField;
    location    "0.06/fluid";
    object      pointMotionU;
}
// * * * * * * * * * * * * * * * * * * * * * * * * * * * * * * * * * * * * * //

dimensions      [0 1 -1 0 0 0 0];


internalField   nonuniform List<vector> 
16859
(
(0 0 0)
(0 0 0)
(0 0 0)
(0 0 0)
(0 0 0)
(0 0 0)
(0 0 0)
(0 0 0)
(0 0 0)
(0 0 0)
(0 0 0)
(0 0 0)
(0 0 0)
(0 0 0)
(0 0 0)
(0 0 0)
(-5.95041e-08 3.24858e-07 6.34622e-09)
(0 0 0)
(5.84925e-09 -2.1298e-08 1.4859e-08)
(1.00738e-08 -4.18437e-08 2.95468e-08)
(1.22095e-08 -6.29074e-08 4.53808e-08)
(1.19465e-08 -8.52583e-08 6.3427e-08)
(8.98003e-09 -1.09348e-07 8.4598e-08)
(2.96837e-09 -1.35165e-07 1.09613e-07)
(-6.53851e-09 -1.62045e-07 1.38737e-07)
(-2.00072e-08 -1.89136e-07 1.72048e-07)
(-3.78679e-08 -2.15415e-07 2.09377e-07)
(-6.00166e-08 -2.38555e-07 2.49018e-07)
(-8.58122e-08 -2.5459e-07 2.88009e-07)
(-1.14708e-07 -2.58326e-07 3.24189e-07)
(-1.48335e-07 -2.41321e-07 3.56545e-07)
(-1.89458e-07 -1.86293e-07 3.83528e-07)
(-2.20492e-07 -7.48881e-08 3.96032e-07)
(5.87618e-09 2.46565e-07 2.94567e-07)
(0 0 0)
(1.15286e-08 -4.23242e-08 2.95502e-08)
(1.98691e-08 -8.31829e-08 5.87655e-08)
(2.41575e-08 -1.25184e-07 9.02676e-08)
(2.38255e-08 -1.69818e-07 1.26166e-07)
(1.83476e-08 -2.17822e-07 1.68278e-07)
(7.07628e-09 -2.69176e-07 2.18015e-07)
(-1.0723e-08 -3.22983e-07 2.76052e-07)
(-3.53923e-08 -3.77678e-07 3.42499e-07)
(-6.69645e-08 -4.31098e-07 4.16502e-07)
(-1.04763e-07 -4.79361e-07 4.94848e-07)
(-1.46878e-07 -5.1623e-07 5.72238e-07)
(-1.89865e-07 -5.3385e-07 6.436e-07)
(-2.30531e-07 -5.22736e-07 7.0562e-07)
(-2.59121e-07 -4.7112e-07 7.55857e-07)
(-2.38015e-07 -3.79984e-07 7.8455e-07)
(1.19819e-07 -2.15922e-07 7.93082e-07)
(0 0 0)
(1.71143e-08 -6.23067e-08 4.37535e-08)
(2.96248e-08 -1.22532e-07 8.70036e-08)
(3.639e-08 -1.8448e-07 1.33599e-07)
(3.66527e-08 -2.50392e-07 1.86688e-07)
(2.98015e-08 -3.21267e-07 2.48961e-07)
(1.50811e-08 -3.97231e-07 3.2254e-07)
(-7.98557e-09 -4.77361e-07 4.08586e-07)
(-3.90767e-08 -5.59534e-07 5.07072e-07)
(-7.72722e-08 -6.40937e-07 6.16562e-07)
(-1.20807e-07 -7.16913e-07 7.32661e-07)
(-1.66591e-07 -7.80317e-07 8.47938e-07)
(-2.08794e-07 -8.22466e-07 9.5444e-07)
(-2.4115e-07 -8.35079e-07 1.04646e-06)
(-2.50072e-07 -8.12628e-07 1.12175e-06)
(-2.00454e-07 -7.616e-07 1.17181e-06)
(1.52256e-07 -6.5077e-07 1.18848e-06)
(0 0 0)
(2.27175e-08 -8.03863e-08 5.71449e-08)
(3.96401e-08 -1.58096e-07 1.13572e-07)
(4.94645e-08 -2.38042e-07 1.74267e-07)
(5.13776e-08 -3.2316e-07 2.43356e-07)
(4.48374e-08 -4.14872e-07 3.24378e-07)
(2.93634e-08 -5.13581e-07 4.20193e-07)
(5.22823e-09 -6.1832e-07 5.32402e-07)
(-2.62372e-08 -7.26734e-07 6.60909e-07)
(-6.2801e-08 -8.35613e-07 8.03683e-07)
(-1.01571e-07 -9.40114e-07 9.55367e-07)
(-1.38915e-07 -1.03332e-06 1.10702e-06)
(-1.68749e-07 -1.10671e-06 1.24832e-06)
(-1.86041e-07 -1.15282e-06 1.37106e-06)
(-1.81517e-07 -1.16777e-06 1.47064e-06)
(-1.2865e-07 -1.15307e-06 1.53387e-06)
(1.99301e-07 -1.07479e-06 1.54093e-06)
(0 0 0)
(2.84348e-08 -9.57612e-08 6.94379e-08)
(5.01197e-08 -1.88269e-07 1.3788e-07)
(6.3732e-08 -2.83375e-07 2.11309e-07)
(6.85469e-08 -3.84689e-07 2.94726e-07)
(6.42851e-08 -4.94095e-07 3.92447e-07)
(5.11679e-08 -6.12312e-07 5.08039e-07)
(3.02867e-08 -7.38494e-07 6.4345e-07)
(4.38202e-09 -8.70031e-07 7.986e-07)
(-2.30153e-08 -1.00363e-06 9.7099e-07)
(-4.8292e-08 -1.13494e-06 1.15459e-06)
(-6.7409e-08 -1.25788e-06 1.33988e-06)
(-7.5266e-08 -1.36509e-06 1.51563e-06)
(-6.98222e-08 -1.45055e-06 1.67282e-06)
(-4.82946e-08 -1.51095e-06 1.80458e-06)
(6.05117e-09 -1.53867e-06 1.8897e-06)
(3.04938e-07 -1.49191e-06 1.8919e-06)
(0 0 0)
(3.43062e-08 -1.07737e-07 8.04014e-08)
(6.11142e-08 -2.11701e-07 1.59463e-07)
(7.92296e-08 -3.1844e-07 2.43989e-07)
(8.81515e-08 -4.32141e-07 3.39703e-07)
(8.80562e-08 -5.55186e-07 4.51567e-07)
(7.99334e-08 -6.88547e-07 5.83646e-07)
(6.60516e-08 -8.31251e-07 7.38191e-07)
(5.01849e-08 -9.80729e-07 9.15039e-07)
(3.68604e-08 -1.13397e-06 1.11141e-06)
(3.05816e-08 -1.2873e-06 1.32117e-06)
(3.56999e-08 -1.4359e-06 1.53504e-06)
(5.70973e-08 -1.57466e-06 1.74318e-06)
(9.60356e-08 -1.70133e-06 1.93934e-06)
(1.53738e-07 -1.81789e-06 2.11962e-06)
(2.36531e-07 -1.91317e-06 2.25644e-06)
(5.17702e-07 -1.91637e-06 2.28811e-06)
(0 0 0)
(4.0305e-08 -1.15742e-07 8.98552e-08)
(7.25242e-08 -2.27307e-07 1.77981e-07)
(9.56958e-08 -3.41667e-07 2.71819e-07)
(1.09642e-07 -4.63412e-07 3.77594e-07)
(1.15112e-07 -5.95301e-07 5.00668e-07)
(1.13856e-07 -7.38359e-07 6.45316e-07)
(1.09192e-07 -8.91473e-07 8.13916e-07)
(1.05439e-07 -1.0523e-06 1.00613e-06)
(1.07799e-07 -1.21816e-06 1.21901e-06)
(1.21353e-07 -1.38593e-06 1.44652e-06)
(1.50508e-07 -1.55212e-06 1.68013e-06)
(2.01175e-07 -1.71368e-06 1.91289e-06)
(2.78327e-07 -1.87226e-06 2.14459e-06)
(3.93296e-07 -2.03761e-06 2.38228e-06)
(5.53794e-07 -2.20305e-06 2.60531e-06)
(9.2561e-07 -2.46028e-06 2.80613e-06)
(0 0 0)
(4.63215e-08 -1.19397e-07 9.76916e-08)
(8.40984e-08 -2.3433e-07 1.93257e-07)
(1.12641e-07 -3.51959e-07 2.94579e-07)
(1.32131e-07 -4.77103e-07 4.08113e-07)
(1.43881e-07 -6.12566e-07 5.3925e-07)
(1.50409e-07 -7.59269e-07 6.92248e-07)
(1.55345e-07 -9.16185e-07 8.6921e-07)
(1.63478e-07 -1.08111e-06 1.06966e-06)
(1.79848e-07 -1.25175e-06 1.29037e-06)
(2.08732e-07 -1.42554e-06 1.52503e-06)
(2.54804e-07 -1.59882e-06 1.766e-06)
(3.23626e-07 -1.76915e-06 2.00814e-06)
(4.22457e-07 -1.93818e-06 2.25452e-06)
(5.67119e-07 -2.11228e-06 2.51732e-06)
(7.59113e-07 -2.27786e-06 2.77541e-06)
(1.31212e-06 -2.59218e-06 3.25484e-06)
(0 0 0)
(0 0 0)
(0 0 0)
(0 0 0)
(0 0 0)
(0 0 0)
(0 0 0)
(0 0 0)
(0 0 0)
(0 0 0)
(0 0 0)
(0 0 0)
(0 0 0)
(0 0 0)
(0 0 0)
(0 0 0)
(-4.71324e-07 7.50015e-08 1.72126e-07)
(0 0 0)
(4.58702e-09 -2.17371e-08 1.44626e-08)
(7.49008e-09 -4.28241e-08 2.87925e-08)
(8.06417e-09 -6.46415e-08 4.43119e-08)
(5.82658e-09 -8.79998e-08 6.209e-08)
(2.70695e-10 -1.13355e-07 8.30308e-08)
(-9.20268e-09 -1.4069e-07 1.07826e-07)
(-2.32568e-08 -1.69254e-07 1.36791e-07)
(-4.28476e-08 -1.98193e-07 1.70063e-07)
(-6.95373e-08 -2.26822e-07 2.07702e-07)
(-1.05121e-07 -2.535e-07 2.48624e-07)
(-1.51573e-07 -2.74846e-07 2.90588e-07)
(-2.12664e-07 -2.86227e-07 3.32126e-07)
(-2.98352e-07 -2.81123e-07 3.74271e-07)
(-4.27551e-07 -2.47413e-07 4.2159e-07)
(-6.04513e-07 -1.73108e-07 4.77308e-07)
(-8.96489e-07 -6.17356e-08 6.08835e-07)
(0 0 0)
(9.0622e-09 -4.31865e-08 2.87578e-08)
(1.48267e-08 -8.50845e-08 5.72503e-08)
(1.60924e-08 -1.28481e-07 8.80963e-08)
(1.19396e-08 -1.75027e-07 1.23421e-07)
(1.45823e-09 -2.25531e-07 1.65017e-07)
(-1.63693e-08 -2.79924e-07 2.14299e-07)
(-4.27221e-08 -3.37234e-07 2.72052e-07)
(-7.8898e-08 -3.95932e-07 3.38528e-07)
(-1.26716e-07 -4.54246e-07 4.13294e-07)
(-1.88301e-07 -5.09053e-07 4.94011e-07)
(-2.65271e-07 -5.5461e-07 5.76207e-07)
(-3.58825e-07 -5.83564e-07 6.55809e-07)
(-4.72046e-07 -5.88165e-07 7.32202e-07)
(-6.02583e-07 -5.60452e-07 8.09674e-07)
(-7.17109e-07 -5.03757e-07 8.91559e-07)
(-8.3761e-07 -4.73905e-07 1.08747e-06)
(0 0 0)
(1.35533e-08 -6.3541e-08 4.2567e-08)
(2.23729e-08 -1.25205e-07 8.47173e-08)
(2.4824e-08 -1.89106e-07 1.30294e-07)
(1.96717e-08 -2.57744e-07 1.8246e-07)
(5.81812e-09 -3.32242e-07 2.43896e-07)
(-1.79385e-08 -4.12733e-07 3.16795e-07)
(-5.27042e-08 -4.98255e-07 4.02473e-07)
(-9.92174e-08 -5.866e-07 5.01115e-07)
(-1.58557e-07 -6.75105e-07 6.11705e-07)
(-2.3196e-07 -7.59531e-07 7.30579e-07)
(-3.19517e-07 -8.32861e-07 8.51139e-07)
(-4.19167e-07 -8.86748e-07 9.6668e-07)
(-5.27814e-07 -9.13947e-07 1.07433e-06)
(-6.33459e-07 -9.11321e-07 1.1782e-06)
(-7.01926e-07 -8.86964e-07 1.28258e-06)
(-8.08538e-07 -8.71493e-07 1.48358e-06)
(0 0 0)
(1.8216e-08 -8.19201e-08 5.55713e-08)
(3.05066e-08 -1.61396e-07 1.10522e-07)
(3.49723e-08 -2.43752e-07 1.69819e-07)
(3.02373e-08 -3.32274e-07 2.37605e-07)
(1.52509e-08 -4.28568e-07 3.17458e-07)
(-1.09667e-08 -5.33124e-07 4.12356e-07)
(-4.87501e-08 -6.44903e-07 5.24086e-07)
(-9.77369e-08 -7.61255e-07 6.52754e-07)
(-1.5754e-07 -8.78709e-07 7.96566e-07)
(-2.27912e-07 -9.92356e-07 9.50692e-07)
(-3.08062e-07 -1.09515e-06 1.10703e-06)
(-3.95114e-07 -1.17855e-06 1.25657e-06)
(-4.86336e-07 -1.23561e-06 1.39401e-06)
(-5.73811e-07 -1.26397e-06 1.52079e-06)
(-6.34409e-07 -1.26702e-06 1.63684e-06)
(-7.51509e-07 -1.2642e-06 1.83264e-06)
(0 0 0)
(2.31742e-08 -9.75263e-08 6.7496e-08)
(3.94892e-08 -1.92064e-07 1.34098e-07)
(4.69798e-08 -2.89931e-07 2.0575e-07)
(4.43275e-08 -3.95165e-07 2.87483e-07)
(3.07472e-08 -5.09922e-07 3.83703e-07)
(5.98999e-09 -6.35027e-07 4.98106e-07)
(-2.92628e-08 -7.69437e-07 6.3286e-07)
(-7.30282e-08 -9.10013e-07 7.87919e-07)
(-1.23161e-07 -1.05282e-06 9.60855e-07)
(-1.78158e-07 -1.19303e-06 1.14605e-06)
(-2.366e-07 -1.32407e-06 1.33459e-06)
(-2.9658e-07 -1.43836e-06 1.5166e-06)
(-3.59135e-07 -1.53001e-06 1.68587e-06)
(-4.25491e-07 -1.59649e-06 1.84134e-06)
(-4.86264e-07 -1.63241e-06 1.97618e-06)
(-6.23275e-07 -1.64537e-06 2.17121e-06)
(0 0 0)
(2.8488e-08 -1.09666e-07 7.81181e-08)
(4.94143e-08 -2.15844e-07 1.55001e-07)
(6.09316e-08 -3.25591e-07 2.37396e-07)
(6.19576e-08 -4.43574e-07 3.31068e-07)
(5.21953e-08 -5.725e-07 4.41088e-07)
(3.22912e-08 -7.13399e-07 5.71669e-07)
(4.29285e-09 -8.64988e-07 7.25209e-07)
(-2.83046e-08 -1.02393e-06 9.01548e-07)
(-6.18278e-08 -1.18627e-06 1.0978e-06)
(-9.33779e-08 -1.34749e-06 1.3079e-06)
(-1.20696e-07 -1.50205e-06 1.52308e-06)
(-1.41963e-07 -1.64423e-06 1.73457e-06)
(-1.59418e-07 -1.77182e-06 1.93858e-06)
(-1.78367e-07 -1.88785e-06 2.13613e-06)
(-2.05215e-07 -1.98543e-06 2.31466e-06)
(-3.67785e-07 -2.01219e-06 2.53444e-06)
(0 0 0)
(3.41462e-08 -1.17751e-07 8.72587e-08)
(6.02041e-08 -2.31617e-07 1.72905e-07)
(7.65724e-08 -3.49129e-07 2.64312e-07)
(8.25266e-08 -4.75383e-07 3.67736e-07)
(7.84174e-08 -6.13412e-07 4.88623e-07)
(6.58252e-08 -7.64242e-07 6.31413e-07)
(4.80467e-08 -9.26364e-07 7.98564e-07)
(2.95995e-08 -1.09646e-06 9.89751e-07)
(1.53338e-08 -1.27078e-06 1.20172e-06)
(9.35119e-09 -1.44511e-06 1.4282e-06)
(1.48536e-08 -1.61468e-06 1.66103e-06)
(3.55855e-08 -1.7755e-06 1.89391e-06)
(7.46915e-08 -1.92886e-06 2.12822e-06)
(1.40298e-07 -2.08483e-06 2.37376e-06)
(2.3469e-07 -2.2425e-06 2.62271e-06)
(1.76286e-07 -2.45762e-06 2.91185e-06)
(0 0 0)
(4.00467e-08 -1.21369e-07 9.48142e-08)
(7.1596e-08 -2.38612e-07 1.87647e-07)
(9.33498e-08 -3.59464e-07 2.86302e-07)
(1.05018e-07 -4.89184e-07 3.97247e-07)
(1.07621e-07 -6.30792e-07 5.25907e-07)
(1.0361e-07 -7.85144e-07 6.76641e-07)
(9.69025e-08 -9.50686e-07 8.51719e-07)
(9.26161e-08 -1.12432e-06 1.05051e-06)
(9.59411e-08 -1.30258e-06 1.26942e-06)
(1.11079e-07 -1.48142e-06 1.50206e-06)
(1.41957e-07 -1.65575e-06 1.74045e-06)
(1.93077e-07 -1.82155e-06 1.97968e-06)
(2.71655e-07 -1.97866e-06 2.2239e-06)
(3.95381e-07 -2.13085e-06 2.48543e-06)
(5.72346e-07 -2.26545e-06 2.74962e-06)
(9.63894e-07 -2.36324e-06 3.15434e-06)
(0 0 0)
(0 0 0)
(0 0 0)
(0 0 0)
(0 0 0)
(0 0 0)
(0 0 0)
(0 0 0)
(0 0 0)
(0 0 0)
(0 0 0)
(0 0 0)
(0 0 0)
(0 0 0)
(0 0 0)
(0 0 0)
(-7.24024e-07 -9.31327e-08 9.69829e-08)
(0 0 0)
(3.17403e-09 -2.23277e-08 1.35914e-08)
(4.61035e-09 -4.40732e-08 2.70915e-08)
(3.48015e-09 -6.67114e-08 4.17668e-08)
(-8.98358e-10 -9.11521e-08 5.86439e-08)
(-9.23069e-09 -1.17846e-07 7.85655e-08)
(-2.2345e-08 -1.46723e-07 1.0217e-07)
(-4.12332e-08 -1.77127e-07 1.29795e-07)
(-6.73668e-08 -2.08279e-07 1.6163e-07)
(-1.03282e-07 -2.39688e-07 1.9772e-07)
(-1.52597e-07 -2.70428e-07 2.37323e-07)
(-2.20036e-07 -2.98287e-07 2.78742e-07)
(-3.1393e-07 -3.20557e-07 3.20442e-07)
(-4.52588e-07 -3.35301e-07 3.62285e-07)
(-6.74133e-07 -3.42824e-07 4.06148e-07)
(-1.00776e-06 -3.49385e-07 4.51769e-07)
(-1.46167e-06 -3.66338e-07 4.16052e-07)
(0 0 0)
(6.29803e-09 -4.43256e-08 2.70263e-08)
(9.21711e-09 -8.74717e-08 5.38585e-08)
(7.19399e-09 -1.3239e-07 8.29877e-08)
(-1.062e-09 -1.80928e-07 1.1646e-07)
(-1.68355e-08 -2.33945e-07 1.55965e-07)
(-4.15604e-08 -2.91378e-07 2.02811e-07)
(-7.68732e-08 -3.52264e-07 2.57805e-07)
(-1.25033e-07 -4.15186e-07 3.21282e-07)
(-1.89671e-07 -4.78766e-07 3.92925e-07)
(-2.75622e-07 -5.40689e-07 4.70828e-07)
(-3.88113e-07 -5.96551e-07 5.51158e-07)
(-5.33607e-07 -6.4118e-07 6.2986e-07)
(-7.22039e-07 -6.70932e-07 7.04449e-07)
(-9.64285e-07 -6.8633e-07 7.74711e-07)
(-1.23681e-06 -6.95682e-07 8.37661e-07)
(-1.4705e-06 -7.29014e-07 8.43981e-07)
(0 0 0)
(9.57321e-09 -6.51567e-08 3.99986e-08)
(1.43235e-08 -1.2855e-07 7.96622e-08)
(1.21081e-08 -1.94561e-07 1.2265e-07)
(1.1913e-09 -2.65944e-07 1.71993e-07)
(-2.00381e-08 -3.44003e-07 2.30241e-07)
(-5.32217e-08 -4.28875e-07 2.99454e-07)
(-1.00018e-07 -5.19519e-07 3.80962e-07)
(-1.62431e-07 -6.13864e-07 4.75075e-07)
(-2.43633e-07 -7.09398e-07 5.8082e-07)
(-3.47738e-07 -8.02361e-07 6.94909e-07)
(-4.78213e-07 -8.86765e-07 8.11411e-07)
(-6.3729e-07 -9.5599e-07 9.23858e-07)
(-8.25747e-07 -1.00583e-06 1.02774e-06)
(-1.0393e-06 -1.03845e-06 1.12261e-06)
(-1.24952e-06 -1.06308e-06 1.20662e-06)
(-1.44681e-06 -1.0977e-06 1.22932e-06)
(0 0 0)
(1.32014e-08 -8.39288e-08 5.22035e-08)
(2.04002e-08 -1.65539e-07 1.03876e-07)
(1.90881e-08 -2.50479e-07 1.59739e-07)
(7.30257e-09 -3.42383e-07 2.23761e-07)
(-1.65564e-08 -4.43089e-07 2.99359e-07)
(-5.38639e-08 -5.53069e-07 3.89364e-07)
(-1.05588e-07 -6.71187e-07 4.95539e-07)
(-1.72563e-07 -7.94674e-07 6.18032e-07)
(-2.56435e-07 -9.19879e-07 7.55037e-07)
(-3.59705e-07 -1.04196e-06 9.01966e-07)
(-4.84403e-07 -1.15428e-06 1.05131e-06)
(-6.31179e-07 -1.24954e-06 1.19466e-06)
(-7.99838e-07 -1.32333e-06 1.3257e-06)
(-9.88747e-07 -1.37798e-06 1.44258e-06)
(-1.18133e-06 -1.41954e-06 1.54138e-06)
(-1.38267e-06 -1.46374e-06 1.57112e-06)
(0 0 0)
(1.7334e-08 -9.98433e-08 6.33856e-08)
(2.77636e-08 -1.96833e-07 1.25979e-07)
(2.86546e-08 -2.97669e-07 1.93416e-07)
(1.80787e-08 -4.06787e-07 2.70519e-07)
(-5.25683e-09 -5.26617e-07 3.61515e-07)
(-4.20021e-08 -6.57934e-07 4.69918e-07)
(-9.19009e-08 -7.9939e-07 5.97766e-07)
(-1.54011e-07 -9.47501e-07 7.44968e-07)
(-2.27957e-07 -1.09782e-06 9.08945e-07)
(-3.14531e-07 -1.24505e-06 1.08416e-06)
(-4.14841e-07 -1.38252e-06 1.2622e-06)
(-5.30268e-07 -1.50326e-06 1.43388e-06)
(-6.64643e-07 -1.60344e-06 1.59216e-06)
(-8.26785e-07 -1.68512e-06 1.73385e-06)
(-1.01582e-06 -1.74719e-06 1.85127e-06)
(-1.23853e-06 -1.801e-06 1.89094e-06)
(0 0 0)
(2.20472e-08 -1.12195e-07 7.33398e-08)
(3.65338e-08 -2.21046e-07 1.4556e-07)
(4.09268e-08 -3.34046e-07 2.23056e-07)
(3.35546e-08 -4.56292e-07 3.11347e-07)
(1.36709e-08 -5.90732e-07 4.15295e-07)
(-1.83584e-08 -7.3825e-07 5.38871e-07)
(-6.07627e-08 -8.97145e-07 6.8429e-07)
(-1.10726e-07 -1.06344e-06 8.51161e-07)
(-1.6587e-07 -1.23235e-06 1.0363e-06)
(-2.25146e-07 -1.39845e-06 1.23362e-06)
(-2.88427e-07 -1.55546e-06 1.43462e-06)
(-3.57129e-07 -1.69756e-06 1.6307e-06)
(-4.36861e-07 -1.82366e-06 1.81628e-06)
(-5.4268e-07 -1.93989e-06 1.98918e-06)
(-6.92897e-07 -2.04318e-06 2.13667e-06)
(-9.45874e-07 -2.08912e-06 2.20093e-06)
(0 0 0)
(2.7333e-08 -1.20382e-07 8.19024e-08)
(4.66358e-08 -2.37031e-07 1.62325e-07)
(5.56334e-08 -3.57968e-07 2.48257e-07)
(5.30645e-08 -4.8872e-07 3.45682e-07)
(3.89135e-08 -6.32458e-07 4.59782e-07)
(1.4625e-08 -7.89981e-07 5.94713e-07)
(-1.66544e-08 -9.5927e-07 7.52686e-07)
(-5.06334e-08 -1.13617e-06 9.32994e-07)
(-8.32968e-08 -1.31584e-06 1.13206e-06)
(-1.118e-07 -1.49279e-06 1.34354e-06)
(-1.34356e-07 -1.66083e-06 1.55907e-06)
(-1.50102e-07 -1.81501e-06 1.77168e-06)
(-1.58833e-07 -1.95621e-06 1.97916e-06)
(-1.61989e-07 -2.09314e-06 2.1833e-06)
(-1.68683e-07 -2.22254e-06 2.3683e-06)
(-3.17024e-07 -2.41714e-06 2.46175e-06)
(0 0 0)
(3.308e-08 -1.23969e-07 8.8973e-08)
(5.77718e-08 -2.44007e-07 1.76126e-07)
(7.21427e-08 -3.68359e-07 2.68849e-07)
(7.54516e-08 -5.02628e-07 3.73289e-07)
(6.84472e-08 -6.49899e-07 4.94597e-07)
(5.34841e-08 -8.10764e-07 6.36799e-07)
(3.45802e-08 -9.83085e-07 8.0182e-07)
(1.68311e-08 -1.16287e-06 9.88735e-07)
(5.14646e-09 -1.34537e-06 1.19369e-06)
(3.3562e-09 -1.52485e-06 1.40998e-06)
(1.43121e-08 -1.69468e-06 1.62946e-06)
(4.05174e-08 -1.84917e-06 1.84617e-06)
(8.70486e-08 -1.98617e-06 2.06002e-06)
(1.66745e-07 -2.10548e-06 2.27435e-06)
(2.85927e-07 -2.18917e-06 2.46757e-06)
(6.07576e-07 -2.18153e-06 2.60757e-06)
(0 0 0)
(0 0 0)
(0 0 0)
(0 0 0)
(0 0 0)
(0 0 0)
(0 0 0)
(0 0 0)
(0 0 0)
(0 0 0)
(0 0 0)
(0 0 0)
(0 0 0)
(0 0 0)
(0 0 0)
(0 0 0)
(-8.12567e-07 -1.56789e-07 9.06842e-08)
(0 0 0)
(1.78019e-09 -2.29216e-08 1.22088e-08)
(1.7811e-09 -4.52958e-08 2.43568e-08)
(-1.01195e-09 -6.86852e-08 3.75949e-08)
(-7.46147e-09 -9.40865e-08 5.28528e-08)
(-1.84565e-08 -1.21989e-07 7.08772e-08)
(-3.50422e-08 -1.52359e-07 9.22258e-08)
(-5.84769e-08 -1.84596e-07 1.17255e-07)
(-9.06732e-08 -2.17973e-07 1.46114e-07)
(-1.34858e-07 -2.52179e-07 1.78789e-07)
(-1.95627e-07 -2.86753e-07 2.14631e-07)
(-2.78998e-07 -3.20287e-07 2.51966e-07)
(-3.95062e-07 -3.51555e-07 2.88873e-07)
(-5.65784e-07 -3.81741e-07 3.23922e-07)
(-8.35206e-07 -4.16625e-07 3.56093e-07)
(-1.22599e-06 -4.63138e-07 3.809e-07)
(-1.68155e-06 -4.99828e-07 3.70131e-07)
(0 0 0)
(3.57525e-09 -4.54658e-08 2.42766e-08)
(3.70201e-09 -8.98152e-08 4.84119e-08)
(-1.53695e-09 -1.36173e-07 7.46677e-08)
(-1.37676e-08 -1.86538e-07 1.04889e-07)
(-3.46266e-08 -2.41888e-07 1.40586e-07)
(-6.591e-08 -3.0222e-07 1.82949e-07)
(-1.09707e-07 -3.66591e-07 2.32743e-07)
(-1.69064e-07 -4.33666e-07 2.90201e-07)
(-2.48765e-07 -5.02303e-07 3.54984e-07)
(-3.55078e-07 -5.70741e-07 4.25308e-07)
(-4.94738e-07 -6.35612e-07 4.97425e-07)
(-6.7575e-07 -6.93473e-07 5.66851e-07)
(-9.10183e-07 -7.43513e-07 6.2951e-07)
(-1.2092e-06 -7.89001e-07 6.81702e-07)
(-1.53103e-06 -8.32182e-07 7.16447e-07)
(-1.7434e-06 -8.71473e-07 7.38952e-07)
(0 0 0)
(5.65407e-09 -6.67709e-08 3.5923e-08)
(6.40404e-09 -1.31872e-07 7.15863e-08)
(-3.74696e-10 -1.99912e-07 1.10294e-07)
(-1.6888e-08 -2.73881e-07 1.54785e-07)
(-4.52022e-08 -3.5526e-07 2.0736e-07)
(-8.73757e-08 -4.44223e-07 2.69909e-07)
(-1.45633e-07 -5.39694e-07 3.43617e-07)
(-2.22941e-07 -6.39634e-07 4.28704e-07)
(-3.2377e-07 -7.41606e-07 5.24136e-07)
(-4.53636e-07 -8.42193e-07 6.26696e-07)
(-6.17159e-07 -9.36263e-07 7.30691e-07)
(-8.17016e-07 -1.01857e-06 8.29417e-07)
(-1.0539e-06 -1.08709e-06 9.1715e-07)
(-1.32003e-06 -1.14529e-06 9.90326e-07)
(-1.56728e-06 -1.1963e-06 1.04359e-06)
(-1.72945e-06 -1.23984e-06 1.08082e-06)
(0 0 0)
(8.26735e-09 -8.59387e-08 4.68764e-08)
(1.04628e-08 -1.69673e-07 9.3317e-08)
(3.49599e-09 -2.5714e-07 1.43573e-07)
(-1.51445e-08 -3.52269e-07 2.01235e-07)
(-4.75481e-08 -4.57092e-07 2.69407e-07)
(-9.55019e-08 -5.72064e-07 3.50657e-07)
(-1.60538e-07 -6.95922e-07 4.46538e-07)
(-2.4442e-07 -8.25753e-07 5.57071e-07)
(-3.50027e-07 -9.57741e-07 6.80313e-07)
(-4.81074e-07 -1.08706e-06 8.1172e-07)
(-6.40213e-07 -1.20745e-06 9.44085e-07)
(-8.27828e-07 -1.31269e-06 1.0691e-06)
(-1.04257e-06 -1.40026e-06 1.17985e-06)
(-1.27837e-06 -1.47402e-06 1.27242e-06)
(-1.50052e-06 -1.53637e-06 1.34072e-06)
(-1.66166e-06 -1.58955e-06 1.38731e-06)
(0 0 0)
(1.1596e-08 -1.02159e-07 5.69111e-08)
(1.62474e-08 -2.01598e-07 1.13145e-07)
(1.06754e-08 -3.05364e-07 1.73777e-07)
(-7.61885e-09 -4.18214e-07 2.4317e-07)
(-4.03911e-08 -5.42746e-07 3.25168e-07)
(-8.86523e-08 -6.79637e-07 4.22907e-07)
(-1.52594e-07 -8.27259e-07 5.38178e-07)
(-2.32046e-07 -9.81784e-07 6.70643e-07)
(-3.27671e-07 -1.13832e-06 8.17518e-07)
(-4.41186e-07 -1.29116e-06 9.73303e-07)
(-5.74041e-07 -1.43361e-06 1.12985e-06)
(-7.2718e-07 -1.55926e-06 1.27807e-06)
(-9.03442e-07 -1.66606e-06 1.41056e-06)
(-1.1081e-06 -1.75791e-06 1.52293e-06)
(-1.324e-06 -1.83194e-06 1.6069e-06)
(-1.50715e-06 -1.88771e-06 1.66257e-06)
(0 0 0)
(1.57265e-08 -1.14716e-07 6.58466e-08)
(2.38932e-08 -2.26244e-07 1.30717e-07)
(2.13031e-08 -3.42467e-07 2.00371e-07)
(5.73389e-09 -4.68803e-07 2.798e-07)
(-2.39506e-08 -6.08293e-07 3.73392e-07)
(-6.76502e-08 -7.61634e-07 4.84681e-07)
(-1.23899e-07 -9.26713e-07 6.15512e-07)
(-1.90424e-07 -1.09898e-06 7.65192e-07)
(-2.65562e-07 -1.27292e-06 9.30319e-07)
(-3.48863e-07 -1.44235e-06 1.10477e-06)
(-4.40405e-07 -1.60042e-06 1.28005e-06)
(-5.41361e-07 -1.74143e-06 1.44723e-06)
(-6.57152e-07 -1.86559e-06 1.59967e-06)
(-8.00711e-07 -1.98043e-06 1.73322e-06)
(-9.7603e-07 -2.08272e-06 1.83588e-06)
(-1.19282e-06 -2.11658e-06 1.90389e-06)
(0 0 0)
(2.06467e-08 -1.22998e-07 7.3539e-08)
(3.33123e-08 -2.42447e-07 1.45778e-07)
(3.50717e-08 -3.6678e-07 2.23005e-07)
(2.41752e-08 -5.018e-07 3.10614e-07)
(3.0155e-10 -6.50702e-07 4.13259e-07)
(-3.52749e-08 -8.14022e-07 5.34606e-07)
(-7.95729e-08 -9.89225e-07 6.76366e-07)
(-1.28561e-07 -1.1714e-06 8.37591e-07)
(-1.78559e-07 -1.35473e-06 1.01449e-06)
(-2.26979e-07 -1.53261e-06 1.20053e-06)
(-2.72081e-07 -1.69793e-06 1.38729e-06)
(-3.13103e-07 -1.84534e-06 1.56668e-06)
(-3.50306e-07 -1.97614e-06 1.73378e-06)
(-3.83627e-07 -2.09938e-06 1.88588e-06)
(-4.10061e-07 -2.21283e-06 2.00725e-06)
(-5.25786e-07 -2.39341e-06 2.08449e-06)
(0 0 0)
(2.62239e-08 -1.26576e-07 7.99051e-08)
(4.41626e-08 -2.49427e-07 1.58197e-07)
(5.12727e-08 -3.77205e-07 2.41511e-07)
(4.6397e-08 -5.15746e-07 3.35383e-07)
(3.00611e-08 -6.68094e-07 4.44411e-07)
(4.51993e-09 -8.34538e-07 5.7205e-07)
(-2.62358e-08 -1.01236e-06 7.19795e-07)
(-5.70983e-08 -1.19667e-06 8.86402e-07)
(-8.31421e-08 -1.3816e-06 1.06791e-06)
(-1.00443e-07 -1.56014e-06 1.25779e-06)
(-1.06101e-07 -1.72448e-06 1.44748e-06)
(-9.79982e-08 -1.8682e-06 1.62959e-06)
(-7.19155e-08 -1.98912e-06 1.80084e-06)
(-1.39648e-08 -2.08662e-06 1.95933e-06)
(9.1308e-08 -2.14492e-06 2.08613e-06)
(4.43286e-07 -2.12489e-06 2.17731e-06)
(0 0 0)
(0 0 0)
(0 0 0)
(0 0 0)
(0 0 0)
(0 0 0)
(0 0 0)
(0 0 0)
(0 0 0)
(0 0 0)
(0 0 0)
(0 0 0)
(0 0 0)
(0 0 0)
(0 0 0)
(0 0 0)
(-8.48824e-07 -1.78113e-07 8.02385e-08)
(0 0 0)
(4.69642e-10 -2.35053e-08 1.03594e-08)
(-8.6298e-10 -4.64711e-08 2.06785e-08)
(-5.18135e-09 -7.05262e-08 3.19319e-08)
(-1.3507e-08 -9.67414e-08 4.48994e-08)
(-2.69043e-08 -1.25711e-07 6.02113e-08)
(-4.65795e-08 -1.5748e-07 7.83823e-08)
(-7.39456e-08 -1.91432e-07 9.96962e-08)
(-1.1112e-07 -2.26814e-07 1.24209e-07)
(-1.61505e-07 -2.63339e-07 1.51892e-07)
(-2.29946e-07 -3.008e-07 1.82111e-07)
(-3.2267e-07 -3.38287e-07 2.13266e-07)
(-4.50007e-07 -3.75324e-07 2.43488e-07)
(-6.34461e-07 -4.14018e-07 2.71451e-07)
(-9.19825e-07 -4.60566e-07 2.97015e-07)
(-1.32161e-06 -5.18266e-07 3.19138e-07)
(-1.77095e-06 -5.53312e-07 3.1682e-07)
(0 0 0)
(1.01916e-09 -4.65876e-08 2.06005e-08)
(-1.45273e-09 -9.20843e-08 4.10995e-08)
(-9.64312e-09 -1.39736e-07 6.34056e-08)
(-2.54945e-08 -1.9171e-07 8.9073e-08)
(-5.0951e-08 -2.49156e-07 1.19403e-07)
(-8.80691e-08 -3.12147e-07 1.55453e-07)
(-1.39243e-07 -3.79734e-07 1.9782e-07)
(-2.07823e-07 -4.50498e-07 2.46631e-07)
(-2.98822e-07 -5.23237e-07 3.01489e-07)
(-4.18738e-07 -5.96523e-07 3.60645e-07)
(-5.74304e-07 -6.67697e-07 4.20648e-07)
(-7.73187e-07 -7.34199e-07 4.77353e-07)
(-1.02661e-06 -7.9587e-07 5.27184e-07)
(-1.34206e-06 -8.54985e-07 5.67944e-07)
(-1.6656e-06 -9.078e-07 5.97021e-07)
(-1.85666e-06 -9.43752e-07 6.2056e-07)
(0 0 0)
(1.97873e-09 -6.83664e-08 3.0484e-08)
(-9.87743e-10 -1.35099e-07 6.07641e-08)
(-1.19691e-08 -2.05009e-07 9.36286e-08)
(-3.35981e-08 -2.81308e-07 1.3139e-07)
(-6.83147e-08 -3.65662e-07 1.76036e-07)
(-1.18511e-07 -4.58308e-07 2.2921e-07)
(-1.86738e-07 -5.58078e-07 2.91889e-07)
(-2.76289e-07 -6.62783e-07 3.64133e-07)
(-3.91886e-07 -7.69885e-07 4.44809e-07)
(-5.3905e-07 -8.76147e-07 5.30842e-07)
(-7.21883e-07 -9.76999e-07 6.17048e-07)
(-9.41894e-07 -1.06797e-06 6.97436e-07)
(-1.19761e-06 -1.14751e-06 7.67164e-07)
(-1.47591e-06 -1.21794e-06 8.24343e-07)
(-1.71687e-06 -1.27746e-06 8.67801e-07)
(-1.851e-06 -1.32107e-06 9.01726e-07)
(0 0 0)
(3.65143e-09 -8.79242e-08 3.97781e-08)
(1.20151e-09 -1.73697e-07 7.91981e-08)
(-1.09829e-08 -2.63526e-07 1.21847e-07)
(-3.58954e-08 -3.61589e-07 1.70762e-07)
(-7.60348e-08 -4.70083e-07 2.28605e-07)
(-1.33501e-07 -5.89456e-07 2.97599e-07)
(-2.10103e-07 -7.18237e-07 3.79049e-07)
(-3.0791e-07 -8.53285e-07 4.72753e-07)
(-4.29979e-07 -9.90566e-07 5.76669e-07)
(-5.79763e-07 -1.12519e-06 6.86503e-07)
(-7.58951e-07 -1.2512e-06 7.95716e-07)
(-9.66257e-07 -1.36299e-06 8.97009e-07)
(-1.19756e-06 -1.45863e-06 9.84728e-07)
(-1.44133e-06 -1.54146e-06 1.05708e-06)
(-1.65262e-06 -1.61041e-06 1.11248e-06)
(-1.78338e-06 -1.66436e-06 1.15375e-06)
(0 0 0)
(6.2451e-09 -1.04435e-07 4.82947e-08)
(5.53403e-09 -2.06235e-07 9.60231e-08)
(-6.00059e-09 -3.12751e-07 1.47467e-07)
(-3.13598e-08 -4.28992e-07 2.06315e-07)
(-7.2683e-08 -5.57679e-07 2.75836e-07)
(-1.31227e-07 -6.99353e-07 3.58727e-07)
(-2.07383e-07 -8.52094e-07 4.56446e-07)
(-3.01206e-07 -1.01172e-06 5.68459e-07)
(-4.13392e-07 -1.17295e-06 6.91925e-07)
(-5.45186e-07 -1.32978e-06 8.21584e-07)
(-6.96897e-07 -1.47549e-06 9.50024e-07)
(-8.67674e-07 -1.60418e-06 1.06921e-06)
(-1.05772e-06 -1.71457e-06 1.17308e-06)
(-1.26759e-06 -1.81071e-06 1.25975e-06)
(-1.47112e-06 -1.88725e-06 1.32615e-06)
(-1.62435e-06 -1.94113e-06 1.37323e-06)
(0 0 0)
(9.85034e-09 -1.17179e-07 5.58876e-08)
(1.21593e-08 -2.31287e-07 1.10954e-07)
(3.12636e-09 -3.50532e-07 1.70055e-07)
(-1.99453e-08 -4.80556e-07 2.37393e-07)
(-5.85022e-08 -6.24435e-07 3.1668e-07)
(-1.1263e-07 -7.82667e-07 4.109e-07)
(-1.8098e-07 -9.52729e-07 5.21504e-07)
(-2.61339e-07 -1.12957e-06 6.47648e-07)
(-3.51924e-07 -1.30713e-06 7.85962e-07)
(-4.51679e-07 -1.47868e-06 9.30582e-07)
(-5.59529e-07 -1.63709e-06 1.07361e-06)
(-6.75066e-07 -1.77704e-06 1.20684e-06)
(-8.01679e-07 -1.89978e-06 1.32451e-06)
(-9.48456e-07 -2.01352e-06 1.42476e-06)
(-1.11131e-06 -2.11401e-06 1.50199e-06)
(-1.30053e-06 -2.14307e-06 1.55422e-06)
(0 0 0)
(1.44414e-08 -1.25549e-07 6.24437e-08)
(2.09596e-08 -2.47686e-07 1.23783e-07)
(1.60412e-08 -3.75174e-07 1.89309e-07)
(-2.47747e-09 -5.13995e-07 2.63555e-07)
(-3.51587e-08 -6.67317e-07 3.50428e-07)
(-8.08427e-08 -8.3542e-07 4.52929e-07)
(-1.36584e-07 -1.01527e-06 5.72382e-07)
(-1.98248e-07 -1.20132e-06 7.07682e-07)
(-2.6186e-07 -1.38705e-06 8.55319e-07)
(-3.2414e-07 -1.56515e-06 1.00919e-06)
(-3.82246e-07 -1.72802e-06 1.16104e-06)
(-4.34303e-07 -1.87062e-06 1.30298e-06)
(-4.793e-07 -1.99552e-06 1.43016e-06)
(-5.1372e-07 -2.11313e-06 1.5411e-06)
(-5.26809e-07 -2.22263e-06 1.62788e-06)
(-6.17569e-07 -2.40577e-06 1.68479e-06)
(0 0 0)
(1.98615e-08 -1.29113e-07 6.78888e-08)
(3.15371e-08 -2.54652e-07 1.34385e-07)
(3.19394e-08 -3.85583e-07 2.05069e-07)
(1.95642e-08 -5.27873e-07 2.84575e-07)
(-5.23948e-09 -6.84498e-07 3.76719e-07)
(-4.0283e-08 -8.55479e-07 4.84292e-07)
(-8.15092e-08 -1.03754e-06 6.08294e-07)
(-1.23598e-07 -1.22504e-06 7.47525e-07)
(-1.61159e-07 -1.41133e-06 8.98622e-07)
(-1.89452e-07 -1.58857e-06 1.05539e-06)
(-2.04798e-07 -1.74843e-06 1.2096e-06)
(-2.04508e-07 -1.88476e-06 1.35367e-06)
(-1.83882e-07 -1.99673e-06 1.48337e-06)
(-1.26635e-07 -2.08546e-06 1.59735e-06)
(-1.14188e-08 -2.13784e-06 1.68529e-06)
(3.75968e-07 -2.12488e-06 1.75039e-06)
(0 0 0)
(0 0 0)
(0 0 0)
(0 0 0)
(0 0 0)
(0 0 0)
(0 0 0)
(0 0 0)
(0 0 0)
(0 0 0)
(0 0 0)
(0 0 0)
(0 0 0)
(0 0 0)
(0 0 0)
(0 0 0)
(-8.62656e-07 -1.84304e-07 6.22663e-08)
(0 0 0)
(-7.02839e-10 -2.40802e-08 8.12123e-09)
(-3.21172e-09 -4.75937e-08 1.62093e-08)
(-8.85238e-09 -7.22241e-08 2.50187e-08)
(-1.87845e-08 -9.91116e-08 3.51467e-08)
(-3.42193e-08 -1.29014e-07 4.70919e-08)
(-5.64646e-08 -1.62052e-07 6.12772e-08)
(-8.70154e-08 -1.97593e-07 7.78861e-08)
(-1.27767e-07 -2.34663e-07 9.69787e-08)
(-1.81801e-07 -2.72756e-07 1.18509e-07)
(-2.53712e-07 -3.11861e-07 1.41857e-07)
(-3.49336e-07 -3.51399e-07 1.65692e-07)
(-4.78875e-07 -3.91153e-07 1.88506e-07)
(-6.65737e-07 -4.33352e-07 2.09426e-07)
(-9.54255e-07 -4.83671e-07 2.28846e-07)
(-1.35819e-06 -5.43058e-07 2.46358e-07)
(-1.80214e-06 -5.73456e-07 2.43949e-07)
(0 0 0)
(-1.26451e-09 -4.76925e-08 1.61509e-08)
(-6.02423e-09 -9.42576e-08 3.22181e-08)
(-1.67869e-08 -1.43068e-07 4.96802e-08)
(-3.57476e-08 -1.96432e-07 6.97286e-08)
(-6.508e-08 -2.55692e-07 9.33937e-08)
(-1.07091e-07 -3.21086e-07 1.21528e-07)
(-1.64199e-07 -3.91541e-07 1.54607e-07)
(-2.39299e-07 -4.65178e-07 1.92704e-07)
(-3.36907e-07 -5.40617e-07 2.35361e-07)
(-4.62986e-07 -6.16717e-07 2.81004e-07)
(-6.2344e-07 -6.91219e-07 3.26791e-07)
(-8.25406e-07 -7.61916e-07 3.69465e-07)
(-1.08107e-06 -8.28684e-07 4.06521e-07)
(-1.39742e-06 -8.92532e-07 4.36922e-07)
(-1.71743e-06 -9.46486e-07 4.59036e-07)
(-1.89417e-06 -9.78226e-07 4.75101e-07)
(0 0 0)
(-1.29509e-09 -6.99365e-08 2.39006e-08)
(-7.54239e-09 -1.38222e-07 4.76357e-08)
(-2.21887e-08 -2.09834e-07 7.33599e-08)
(-4.81973e-08 -2.88172e-07 1.02845e-07)
(-8.83221e-08 -3.75092e-07 1.37666e-07)
(-1.45182e-07 -4.709e-07 1.79162e-07)
(-2.21267e-07 -5.74234e-07 2.28149e-07)
(-3.1946e-07 -6.82543e-07 2.84563e-07)
(-4.43784e-07 -7.93017e-07 3.47238e-07)
(-5.98821e-07 -9.0257e-07 4.13487e-07)
(-7.87455e-07 -1.00705e-06 4.79081e-07)
(-1.0103e-06 -1.10237e-06 5.39372e-07)
(-1.26667e-06 -1.18704e-06 5.90973e-07)
(-1.54261e-06 -1.26217e-06 6.33177e-07)
(-1.77574e-06 -1.32318e-06 6.65393e-07)
(-1.89271e-06 -1.36449e-06 6.88147e-07)
(0 0 0)
(-4.50815e-10 -8.98811e-08 3.11909e-08)
(-7.00231e-09 -1.77613e-07 6.20934e-08)
(-2.373e-08 -2.69611e-07 9.5473e-08)
(-5.40149e-08 -3.70246e-07 1.33657e-07)
(-1.00675e-07 -4.81882e-07 1.78748e-07)
(-1.65952e-07 -6.04864e-07 2.32583e-07)
(-2.51567e-07 -7.37482e-07 2.96195e-07)
(-3.59183e-07 -8.76301e-07 3.69277e-07)
(-4.91067e-07 -1.017e-06 4.49883e-07)
(-6.49455e-07 -1.15471e-06 5.34253e-07)
(-8.34499e-07 -1.28372e-06 6.17087e-07)
(-1.04379e-06 -1.39887e-06 6.92731e-07)
(-1.2739e-06 -1.4985e-06 7.57268e-07)
(-1.5127e-06 -1.58514e-06 8.10195e-07)
(-1.71387e-06 -1.65541e-06 8.50632e-07)
(-1.8268e-06 -1.70786e-06 8.78093e-07)
(0 0 0)
(1.50123e-09 -1.06682e-07 3.78768e-08)
(-3.93331e-09 -2.10749e-07 7.53001e-08)