/*--------------------------------*- C++ -*----------------------------------*\
| =========                 |                                                 |
| \\      /  F ield         | OpenFOAM: The Open Source CFD Toolbox           |
|  \\    /   O peration     | Version:  v1912                                 |
|   \\  /    A nd           | Website:  www.openfoam.com                      |
|    \\/     M anipulation  |                                                 |
\*---------------------------------------------------------------------------*/
FoamFile
{
    version     2.0;
    format      ascii;
    class       volVectorField;
    location    "0.06/fluid";
    object      U;
}
// * * * * * * * * * * * * * * * * * * * * * * * * * * * * * * * * * * * * * //

dimensions      [0 1 -1 0 0 0 0];


internalField   nonuniform List<vector> 
14592
(
(0.0939698 0.00741728 -0.0012557)
(0.0899213 0.00312102 -0.00178635)
(0.0872713 0.00155002 -0.00221177)
(0.0856301 0.000835138 -0.00277208)
(0.0845874 0.000587225 -0.00355296)
(0.0835687 0.000520438 -0.00459938)
(0.0825039 0.000536763 -0.00598073)
(0.0812814 0.000602163 -0.00780222)
(0.0798173 0.000703262 -0.0102198)
(0.0780149 0.000833484 -0.0134689)
(0.0757298 0.000985569 -0.0179185)
(0.0728131 0.00114059 -0.0241823)
(0.0679472 0.0012966 -0.0332926)
(0.0630561 0.00124905 -0.0473878)
(0.0460443 0.00132651 -0.0699487)
(0.0303883 0.000181176 -0.0938438)
(0.102733 0.00638726 -0.00149796)
(0.10205 0.00371031 -0.00212893)
(0.101903 0.00235152 -0.00262321)
(0.100784 0.00164286 -0.0032694)
(0.0998908 0.00138192 -0.00416993)
(0.0988361 0.00135168 -0.0053787)
(0.0976559 0.0014623 -0.00697632)
(0.0962652 0.00167803 -0.00908458)
(0.0945799 0.00198416 -0.011884)
(0.0924914 0.00237362 -0.0156471)
(0.0898284 0.00283693 -0.0208008)
(0.0864094 0.00334953 -0.0280545)
(0.0807234 0.0038868 -0.0386006)
(0.0748266 0.00425083 -0.0548974)
(0.0549397 0.00461838 -0.0808745)
(0.0364353 0.00349408 -0.108302)
(0.101887 0.00424593 -0.00147268)
(0.101511 0.00380305 -0.00209523)
(0.101994 0.00300873 -0.00258182)
(0.101252 0.00250168 -0.00321666)
(0.100634 0.00232299 -0.00410008)
(0.0997661 0.00238849 -0.00528421)
(0.0987261 0.00264625 -0.00684727)
(0.0974535 0.00307257 -0.00890806)
(0.0958752 0.00365945 -0.0116436)
(0.0938831 0.00440521 -0.0153222)
(0.0912953 0.00530406 -0.0203673)
(0.0879132 0.00633199 -0.0274872)
(0.0821554 0.00744348 -0.0378741)
(0.0761084 0.00846003 -0.0540205)
(0.0557326 0.00934627 -0.0798235)
(0.0366642 0.00829798 -0.107419)
(0.101177 0.00343776 -0.00141723)
(0.100801 0.00361791 -0.00202024)
(0.101534 0.00319121 -0.00249118)
(0.101062 0.00292065 -0.00310399)
(0.100677 0.00289437 -0.00395442)
(0.100003 0.00309515 -0.00509125)
(0.0991351 0.00350637 -0.0065882)
(0.0980283 0.00412504 -0.00855793)
(0.0966169 0.00495922 -0.0111693)
(0.0947931 0.00602254 -0.0146802)
(0.0923645 0.00732542 -0.0195014)
(0.0891111 0.00885976 -0.0263266)
(0.0833804 0.0105882 -0.0363286)
(0.077256 0.0123286 -0.0520184)
(0.0564482 0.0139513 -0.0771766)
(0.0368237 0.0128348 -0.104695)
(0.100891 0.00293541 -0.00134372)
(0.100482 0.00341365 -0.00192079)
(0.101309 0.00327779 -0.00237098)
(0.101016 0.00321874 -0.00295447)
(0.100827 0.00335385 -0.00376081)
(0.100348 0.003704 -0.00483415)
(0.0996796 0.00428014 -0.00624176)
(0.0987829 0.00510037 -0.0080872)
(0.0975997 0.00619297 -0.0105268)
(0.0960238 0.0075953 -0.0138016)
(0.0938538 0.00934815 -0.0182998)
(0.0908475 0.0114813 -0.0246871)
(0.0852701 0.0139992 -0.0340946)
(0.0791683 0.0167454 -0.0490446)
(0.057857 0.0195049 -0.0731093)
(0.0374711 0.0184685 -0.100425)
(0.10078 0.0026057 -0.00125663)
(0.100368 0.00319324 -0.00180299)
(0.101268 0.00324546 -0.00222851)
(0.101121 0.00335114 -0.00277701)
(0.101109 0.00362971 -0.00353052)
(0.100828 0.00411677 -0.00452739)
(0.100378 0.00484087 -0.00582648)
(0.0997306 0.00583853 -0.00751921)
(0.0988366 0.00716022 -0.0097443)
(0.0975994 0.00887454 -0.0127173)
(0.0958193 0.0110716 -0.0167898)
(0.0932428 0.0138634 -0.0225767)
(0.0880535 0.0173886 -0.0311308)
(0.0822005 0.0217469 -0.0449609)
(0.0603755 0.0268788 -0.0673127)
(0.0390075 0.0277339 -0.094291)
(0.10075 0.00231832 -0.00115947)
(0.100372 0.0029395 -0.00167155)
(0.101361 0.00311849 -0.00206948)
(0.101349 0.0033498 -0.00257873)
(0.101507 0.00374574 -0.00327276)
(0.101425 0.00434598 -0.00418308)
(0.10121 0.00518927 -0.00535843)
(0.100845 0.0063264 -0.00687501)
(0.100299 0.0078279 -0.00884845)
(0.0995005 0.00979307 -0.0114584)
(0.0982868 0.0123621 -0.0149992)
(0.0964565 0.0157309 -0.0199918)
(0.0922647 0.0201403 -0.0273194)
(0.0876652 0.0259891 -0.0393073)
(0.0666911 0.0330825 -0.0584922)
(0.0450617 0.0351542 -0.0837977)
(0.100765 0.00201118 -0.00105624)
(0.100451 0.00262331 -0.00153193)
(0.101549 0.00288977 -0.00190056)
(0.10167 0.00321581 -0.00236802)
(0.101994 0.00370088 -0.00299862)
(0.102111 0.00438271 -0.00381627)
(0.102139 0.00530449 -0.00485834)
(0.102076 0.00652641 -0.00618348)
(0.101918 0.00813622 -0.00787989)
(0.10163 0.0102686 -0.0100835)
(0.101096 0.0131459 -0.0130181)
(0.100151 0.017173 -0.0170896)
(0.097162 0.0230509 -0.0229996)
(0.0938239 0.0328977 -0.0328664)
(0.0736456 0.0485739 -0.0485493)
(0.0535618 0.0728708 -0.0728428)
(0.093899 0.00742577 -0.00132361)
(0.0897171 0.00313454 -0.00184829)
(0.0868761 0.00156505 -0.00224157)
(0.0850519 0.000853695 -0.00276158)
(0.0837903 0.000611154 -0.00349565)
(0.0825046 0.000552014 -0.00448796)
(0.0810975 0.000578966 -0.00580325)
(0.0794234 0.000658927 -0.00753604)
(0.0773522 0.000779812 -0.00981962)
(0.0747266 0.000937219 -0.0128391)
(0.0713305 0.00112748 -0.0168463)
(0.0669547 0.0013397 -0.0221699)
(0.0603477 0.0015895 -0.0292201)
(0.0533784 0.00171512 -0.0381839)
(0.0362377 0.00208371 -0.0495512)
(0.0196973 0.00144613 -0.0507859)
(0.102651 0.00641282 -0.00156812)
(0.101815 0.00374625 -0.00219187)
(0.101449 0.00239398 -0.00265031)
(0.100117 0.0016955 -0.00325119)
(0.0989693 0.00144987 -0.00409882)
(0.0976041 0.00144147 -0.00524621)
(0.0960261 0.00158246 -0.00676869)
(0.0941103 0.00183968 -0.00877606)
(0.0917189 0.00220193 -0.0114233)
(0.0886715 0.00266656 -0.0149261)
(0.0847102 0.00323003 -0.0195791)
(0.0795767 0.003876 -0.0257687)
(0.0718198 0.00459392 -0.0339804)
(0.0634433 0.00520197 -0.044459)
(0.0432351 0.00590859 -0.0577255)
(0.023658 0.00503842 -0.0592123)
(0.101807 0.00429388 -0.00154408)
(0.101281 0.00386822 -0.00215983)
(0.101549 0.00308698 -0.00261073)
(0.100598 0.00259877 -0.00320053)
(0.0997324 0.0024484 -0.00403152)
(0.0985615 0.00255444 -0.00515498)
(0.0971342 0.00286872 -0.00664399)
(0.0953503 0.00337264 -0.00860547)
(0.0930832 0.00406478 -0.0111909)
(0.0901536 0.00495173 -0.0146123)
(0.0862924 0.00603727 -0.0191609)
(0.0812237 0.00730721 -0.0252211)
(0.0734159 0.00872668 -0.0332795)
(0.0649143 0.0100944 -0.0436007)
(0.0441806 0.0114078 -0.0566948)
(0.0239916 0.0102715 -0.0582267)
(0.101099 0.0035022 -0.00149046)
(0.100578 0.00370528 -0.00208731)
(0.101104 0.00329655 -0.00252306)
(0.100432 0.00305156 -0.00309154)
(0.0998108 0.00306378 -0.0038906)
(0.0988485 0.00331991 -0.00496831)
(0.0976131 0.0038088 -0.00639346)
(0.0960207 0.00453501 -0.00826716)
(0.0939543 0.00551665 -0.0107335)
(0.0912365 0.00678043 -0.0139951)
(0.0875883 0.00835237 -0.0183329)
(0.0827128 0.0102406 -0.0241218)
(0.0749882 0.0124252 -0.0318393)
(0.0664791 0.0146826 -0.0417815)
(0.0452537 0.0169402 -0.0544222)
(0.0244301 0.0156188 -0.0560514)
(0.100817 0.00301523 -0.00141935)
(0.100269 0.00352174 -0.00199115)
(0.1009 0.00340835 -0.00240681)
(0.100419 0.00338124 -0.00294691)
(0.100008 0.00356457 -0.00370333)
(0.0992617 0.00398437 -0.0047197)
(0.0982521 0.00465894 -0.00605869)
(0.096906 0.00561676 -0.00781295)
(0.0951165 0.00690061 -0.0101152)
(0.092711 0.00856742 -0.0131536)
(0.0894036 0.0106831 -0.0171915)
(0.084877 0.0133058 -0.0225856)
(0.0773978 0.0164729 -0.0297943)
(0.0690289 0.0199736 -0.0391562)
(0.0472039 0.0236849 -0.0510784)
(0.025491 0.0223516 -0.0528441)
(0.100709 0.00269724 -0.00133515)
(0.100168 0.00331715 -0.00187725)
(0.100884 0.00339528 -0.00226905)
(0.100563 0.00353785 -0.00277531)
(0.100348 0.00387228 -0.00348067)
(0.0998232 0.00444043 -0.00442322)
(0.0990662 0.00527995 -0.00565774)
(0.0980154 0.00644067 -0.0072657)
(0.0965793 0.00799237 -0.00936414)
(0.0946007 0.0100313 -0.0121198)
(0.0918014 0.0126863 -0.0157681)
(0.0878582 0.0161199 -0.0206332)
(0.0809163 0.0205409 -0.0271341)
(0.0729902 0.0260241 -0.035658)
(0.0505166 0.0327024 -0.0465022)
(0.0276328 0.0334171 -0.0484314)
(0.100685 0.00241788 -0.00124121)
(0.100186 0.0030742 -0.00175018)
(0.101003 0.00328144 -0.0021153)
(0.100833 0.00355303 -0.00258361)
(0.10081 0.0040101 -0.00323152)
(0.100513 0.00469943 -0.00409063)
(0.100031 0.00567032 -0.00520628)
(0.0993177 0.00698938 -0.00664606)
(0.0983088 0.00875074 -0.00850683)
(0.0968837 0.0110887 -0.0109259)
(0.0948151 0.0141941 -0.0140967)
(0.0918549 0.0183308 -0.0182848)
(0.0861985 0.0238288 -0.0238212)
(0.0799684 0.0310643 -0.0310829)
(0.0583717 0.0400835 -0.0401147)
(0.0351024 0.0418101 -0.0418411)
(0.100703 0.00211461 -0.00114143)
(0.100278 0.00276321 -0.00161523)
(0.101221 0.00305899 -0.00195202)
(0.101201 0.00342684 -0.00237995)
(0.101366 0.00397541 -0.00296663)
(0.101299 0.00475 -0.0037365)
(0.101102 0.00580517 -0.00472435)
(0.100754 0.0072187 -0.00598195)
(0.100224 0.00910576 -0.00758256)
(0.0994395 0.0116447 -0.00962843)
(0.0982386 0.0151286 -0.0122623)
(0.0964201 0.0200773 -0.0156819)
(0.0922394 0.0273736 -0.020129)
(0.0876511 0.039343 -0.026003)
(0.0666868 0.0585238 -0.0331078)
(0.0450634 0.0838368 -0.035179)
(0.0938367 0.00743381 -0.00129499)
(0.0895335 0.00314728 -0.00178868)
(0.0865167 0.00157927 -0.00214171)
(0.0845208 0.000871267 -0.00260823)
(0.083053 0.000633797 -0.00327109)
(0.0815171 0.000581879 -0.00417037)
(0.0797939 0.000618858 -0.00536215)
(0.0777106 0.000712447 -0.00692542)
(0.0751023 0.000851635 -0.00896701)
(0.0717669 0.00103311 -0.0116276)
(0.0674321 0.00125433 -0.0150858)
(0.0618076 0.00150498 -0.019553)
(0.0536874 0.00179585 -0.0252888)
(0.0446926 0.00196714 -0.03222)
(0.0271318 0.00233401 -0.0407438)
(0.0117127 0.00167699 -0.0410441)
(0.102578 0.00643703 -0.00152785)
(0.101604 0.00378024 -0.0021146)
(0.101035 0.00243417 -0.00252708)
(0.0995035 0.00174532 -0.00306695)
(0.098116 0.00151415 -0.00383318)
(0.0964599 0.00152637 -0.0048739)
(0.094514 0.00169594 -0.00625451)
(0.0921219 0.00199211 -0.00806697)
(0.0891051 0.00240657 -0.0104357)
(0.0852303 0.00294011 -0.013525)
(0.0801741 0.00359246 -0.0175439)
(0.0735846 0.00434979 -0.0227402)
(0.0640595 0.00519889 -0.0294166)
(0.0533463 0.00594931 -0.0375031)
(0.032627 0.00677933 -0.0473961)
(0.0143562 0.00585149 -0.0476798)
(0.101736 0.00433929 -0.00150588)
(0.101073 0.0039299 -0.00208532)
(0.101143 0.00316104 -0.00249081)
(0.0999969 0.00269064 -0.0030204)
(0.0988974 0.00256701 -0.00377126)
(0.0974431 0.00271127 -0.00478995)
(0.0956577 0.00307872 -0.00613987)
(0.0934101 0.0036553 -0.00791044)
(0.0905334 0.00444541 -0.0102232)
(0.086795 0.00546246 -0.0132394)
(0.0818593 0.00671747 -0.0171655)
(0.0753536 0.00820223 -0.022249)
(0.0657854 0.00988474 -0.028796)
(0.0549466 0.0115395 -0.0367532)
(0.0336457 0.0131727 -0.0465191)
(0.0147093 0.0119302 -0.0468636)
(0.101031 0.00356319 -0.00145627)
(0.100378 0.00378796 -0.00201826)
(0.100713 0.00339623 -0.00240974)
(0.099854 0.0031754 -0.00291966)
(0.0990095 0.00322395 -0.00364111)
(0.0977775 0.00353221 -0.00461776)
(0.0962022 0.00409402 -0.00590921)
(0.0941696 0.0049207 -0.00759983)
(0.0915241 0.00603919 -0.00980483)
(0.088036 0.00748713 -0.0126779)
(0.0833594 0.00930312 -0.016418)
(0.0770993 0.0115074 -0.0212661)
(0.0676565 0.014091 -0.0275255)
(0.0568541 0.0167961 -0.0351716)
(0.0349906 0.0195861 -0.0445894)
(0.0153079 0.0181309 -0.0450472)
(0.100751 0.00309077 -0.0013905)
(0.100079 0.00362402 -0.00192931)
(0.100528 0.00353186 -0.00230224)
(0.0998713 0.00353492 -0.00278601)
(0.0992517 0.00376372 -0.00346822)
(0.0982543 0.00424903 -0.00438859)
(0.0969296 0.00501582 -0.00560129)
(0.0951765 0.00610183 -0.00718342)
(0.0928515 0.00756238 -0.00924067)
(0.0897324 0.00947089 -0.011915)
(0.0854675 0.0119137 -0.015392)
(0.0796416 0.0149716 -0.0199005)
(0.07052 0.018708 -0.0257332)
(0.0599471 0.0228727 -0.0329057)
(0.0373864 0.027415 -0.0417685)
(0.016636 0.0259477 -0.0423737)
(0.100648 0.00278386 -0.0013126)
(0.0999884 0.00343438 -0.00182397)
(0.100535 0.00353699 -0.00217488)
(0.100051 0.00371439 -0.00262748)
(0.0996452 0.00410144 -0.00326275)
(0.0988925 0.00474575 -0.00411547)
(0.0978513 0.00569318 -0.00523292)
(0.0964356 0.00700532 -0.00668259)
(0.0945213 0.00876854 -0.00855715)
(0.0919063 0.0111022 -0.0109814)
(0.0882509 0.0141667 -0.0141199)
(0.083139 0.0181652 -0.0181784)
(0.0746848 0.023364 -0.0234245)
(0.0647202 0.0298224 -0.0299188)
(0.0413974 0.0378296 -0.0379461)
(0.019216 0.0385884 -0.0387051)
(0.100627 0.00251206 -0.00122573)
(0.100019 0.00320163 -0.00170647)
(0.100681 0.00343554 -0.00203278)
(0.100363 0.00374513 -0.00245043)
(0.100168 0.00425973 -0.00303294)
(0.0996696 0.00503263 -0.00380931)
(0.0989387 0.00612259 -0.00481862)
(0.0979109 0.00761005 -0.00611656)
(0.0964941 0.00960937 -0.00777921)
(0.0945316 0.0122843 -0.00990826)
(0.0917461 0.0158677 -0.0126366)
(0.0878151 0.020682 -0.0161295)
(0.0808846 0.0271452 -0.0205968)
(0.0729705 0.0356437 -0.0261148)
(0.050508 0.0464765 -0.0328115)
(0.0276299 0.0484062 -0.0335256)
(0.10065 0.00221244 -0.00113346)
(0.100125 0.00289553 -0.00158169)
(0.100927 0.00321899 -0.00188188)
(0.100774 0.00362626 -0.00226238)
(0.100789 0.00423457 -0.0027887)
(0.100549 0.00509606 -0.00348353)
(0.100143 0.00627547 -0.00437682)
(0.0995355 0.00786579 -0.0055109)
(0.0986769 0.0100053 -0.00694254)
(0.0974702 0.0129084 -0.00874567)
(0.0957167 0.0169255 -0.0110145)
(0.0931644 0.0226704 -0.0138636)
(0.0879979 0.0311958 -0.017433)
(0.0821685 0.0450113 -0.0218234)
(0.0603645 0.067366 -0.0269708)
(0.0390085 0.0943598 -0.0278252)
(0.093783 0.00744105 -0.00118161)
(0.0893736 0.00315876 -0.00162086)
(0.0862018 0.0015921 -0.00192451)
(0.0840531 0.000887113 -0.00232468)
(0.0824018 0.000654198 -0.0028949)
(0.0806454 0.000608751 -0.00366887)
(0.078648 0.000654672 -0.00469186)
(0.0762183 0.000760393 -0.00602501)
(0.0731715 0.000915759 -0.00774656)
(0.0692863 0.0011186 -0.00995114)
(0.0642837 0.00136753 -0.0127423)
(0.0578832 0.00165454 -0.01621)
(0.0490776 0.00198993 -0.0204139)
(0.0394507 0.00222824 -0.0250243)
(0.0228739 0.00265569 -0.0300597)
(0.00909757 0.00206989 -0.0283826)
(0.102515 0.00645888 -0.00139039)
(0.101419 0.00381089 -0.00191231)
(0.100672 0.00247041 -0.0022677)
(0.0989624 0.00179023 -0.00273132)
(0.0973617 0.00157204 -0.00339103)
(0.0954489 0.00160271 -0.00428741)
(0.0931837 0.0017978 -0.00547333)
(0.0903881 0.00212851 -0.00702013)
(0.0868598 0.00258902 -0.00901918)
(0.082343 0.00318286 -0.0115813)
(0.0765054 0.00391249 -0.0148286)
(0.0690065 0.00476661 -0.018868)
(0.0586674 0.00573108 -0.0237711)
(0.0472144 0.00661581 -0.0291705)
(0.0276048 0.00757854 -0.0350393)
(0.0112394 0.00665205 -0.0330675)
(0.101675 0.00438028 -0.00137125)
(0.100892 0.00398557 -0.00188683)
(0.100787 0.00322784 -0.00223609)
(0.0994671 0.00277346 -0.0026907)
(0.0981595 0.00267381 -0.00333699)
(0.0964551 0.00285225 -0.00421421)
(0.0943591 0.00326703 -0.00537356)
(0.0917189 0.00390796 -0.00688431)
(0.0883441 0.00478412 -0.00883549)
(0.0839796 0.00591427 -0.0113356)
(0.0782798 0.0073146 -0.0145051)
(0.0708811 0.00898049 -0.0184505)
(0.0605084 0.0108794 -0.023247)
(0.0489338 0.0127653 -0.0285384)
(0.028706 0.0146418 -0.0343018)
(0.0116395 0.0133032 -0.0323734)
(0.100972 0.00361824 -0.00132768)
(0.100204 0.00386258 -0.00182793)
(0.100371 0.00348614 -0.00216492)
(0.0993448 0.00328701 -0.00260234)
(0.0983017 0.00336812 -0.00322299)
(0.0968319 0.00372294 -0.00406369)
(0.0949616 0.00434955 -0.00517247)
(0.0925569 0.00526494 -0.0066145)
(0.0894392 0.00650311 -0.00847387)
(0.0853565 0.00811014 -0.0108535)
(0.0799525 0.0101333 -0.0138686)
(0.0728381 0.0125995 -0.0176227)
(0.0626174 0.0155025 -0.022192)
(0.0510999 0.0185495 -0.027246)
(0.0302405 0.0217142 -0.0327604)
(0.0123387 0.0201068 -0.0309469)
(0.100695 0.00315895 -0.00126989)
(0.0999129 0.0037163 -0.00174981)
(0.100203 0.00364324 -0.00207057)
(0.0993894 0.00367338 -0.00248516)
(0.0985841 0.00394287 -0.00307164)
(0.0973652 0.00448661 -0.00386349)
(0.0957672 0.00533518 -0.00490431)
(0.0936702 0.00653398 -0.00625339)
(0.0909097 0.00814832 -0.00798742)
(0.0872421 0.010264 -0.0102007)
(0.0823045 0.0129815 -0.0129995)
(0.0756853 0.0163943 -0.0164811)
(0.0658309 0.0205753 -0.0207196)
(0.0545835 0.0252284 -0.0254222)
(0.0329256 0.0303298 -0.0305535)
(0.0138149 0.0286729 -0.0289011)
(0.100595 0.00286203 -0.00120148)
(0.0998329 0.00354015 -0.00165729)
(0.100231 0.00366476 -0.0019588)
(0.0996023 0.00387339 -0.0023462)
(0.0990256 0.0043075 -0.00289183)
(0.0980716 0.00501962 -0.00362508)
(0.0967839 0.00606252 -0.00458388)
(0.09506 0.00750742 -0.00581986)
(0.0927575 0.00945371 -0.00739971)
(0.0896555 0.0120379 -0.00940532)
(0.0854042 0.0154415 -0.0119289)
(0.0795898 0.0198907 -0.015055)
(0.0704784 0.025677 -0.0188482)
(0.0599174 0.0328148 -0.023062)
(0.0373686 0.0416592 -0.0276339)
(0.0166236 0.0422649 -0.0261724)
(0.100578 0.00259704 -0.00112517)
(0.0998752 0.00331657 -0.00155412)
(0.100401 0.00357446 -0.00183412)
(0.0999507 0.00391811 -0.00219105)
(0.0996024 0.0044841 -0.00269083)
(0.0989258 0.0053313 -0.00335804)
(0.0979794 0.00652635 -0.00422393)
(0.0966856 0.00816095 -0.00533082)
(0.094938 0.0103652 -0.00673282)
(0.092566 0.0133242 -0.0084953)
(0.0892861 0.0172989 -0.01069)
(0.0847836 0.0226442 -0.0133787)
(0.0773262 0.0298174 -0.0165998)
(0.0689821 0.0391568 -0.0201464)
(0.0471802 0.0510711 -0.023882)
(0.0254781 0.0528382 -0.0225526)
(0.100605 0.0023007 -0.00104415)
(0.0999937 0.00301489 -0.00144457)
(0.100671 0.00336321 -0.00170174)
(0.100401 0.00380579 -0.0020263)
(0.100281 0.00446742 -0.00247729)
(0.0998872 0.0054061 -0.00307406)
(0.0992997 0.00669496 -0.00384048)
(0.0984731 0.00843923 -0.00480841)
(0.0973481 0.0107949 -0.0060174)
(0.0958204 0.0140019 -0.00751319)
(0.0936912 0.0184474 -0.00934236)
(0.0907213 0.0247964 -0.0115384)
(0.0851775 0.0341804 -0.0141072)
(0.0791123 0.0491236 -0.0168963)
(0.0578337 0.0732042 -0.0196773)
(0.0374653 0.10055 -0.0186481)
(0.0937389 0.0074472 -0.000996383)
(0.0892407 0.00316853 -0.00136073)
(0.0859396 0.001603 -0.00160643)
(0.0836627 0.000900593 -0.00192914)
(0.0818582 0.000671522 -0.00238935)
(0.0799193 0.000631526 -0.00301331)
(0.077699 0.000684961 -0.003835)
(0.0749946 0.0008008 -0.0048984)
(0.0716116 0.000969601 -0.00625661)
(0.0673252 0.00118991 -0.00796826)
(0.0618675 0.00146117 -0.0100873)
(0.0549872 0.00177632 -0.0126418)
(0.0458444 0.00214345 -0.0156177)
(0.0359758 0.00242414 -0.0187098)
(0.020253 0.00287553 -0.0218955)
(0.00768295 0.00230258 -0.0203123)
(0.102464 0.00647749 -0.00117045)
(0.101265 0.003837 -0.00160325)
(0.100369 0.00250125 -0.00189119)
(0.0985104 0.00182842 -0.00226537)
(0.0967315 0.00162119 -0.00279817)
(0.0946062 0.00166741 -0.00352128)
(0.0920811 0.00188388 -0.00447442)
(0.088965 0.0022434 -0.00570905)
(0.0850441 0.00274199 -0.00728736)
(0.0800577 0.00338515 -0.00927832)
(0.073686 0.00417704 -0.0117461)
(0.0656223 0.00510734 -0.0147251)
(0.0548777 0.00615896 -0.0182004)
(0.0431423 0.007139 -0.0218274)
(0.0245108 0.00818325 -0.0255416)
(0.0095491 0.00722642 -0.0236747)
(0.101625 0.0044152 -0.00115481)
(0.100742 0.00403297 -0.00158246)
(0.100491 0.00328469 -0.0018654)
(0.0990245 0.00284386 -0.00223222)
(0.0975431 0.00276447 -0.00275409)
(0.0956318 0.00297166 -0.00346164)
(0.093283 0.00342609 -0.00439332)
(0.0903312 0.00412055 -0.005599)
(0.0865745 0.00506767 -0.00713917)
(0.0817528 0.00628999 -0.00908118)
(0.0755319 0.00780695 -0.0114882)
(0.0675799 0.00961522 -0.014395)
(0.0568065 0.0116793 -0.0177899)
(0.0449484 0.0137354 -0.0213372)
(0.0256673 0.0157801 -0.0249778)
(0.00997711 0.0143511 -0.0231504)
(0.100924 0.00366513 -0.00111902)
(0.100059 0.00392613 -0.00153407)
(0.100085 0.00356265 -0.00180697)
(0.0989197 0.00338188 -0.00215975)
(0.0977107 0.00349045 -0.00266075)
(0.096044 0.00388439 -0.00333866)
(0.0939339 0.00456519 -0.00422951)
(0.091234 0.00555416 -0.00538007)
(0.0877549 0.00689066 -0.0068472)
(0.0832393 0.00862664 -0.00869444)
(0.0773411 0.0108149 -0.0109818)
(0.0697 0.0134853 -0.013743)
(0.0590939 0.0166299 -0.0169694)
(0.0473 0.0199271 -0.0203452)
(0.0273306 0.023352 -0.0238144)
(0.0107402 0.0216126 -0.0220844)
(0.100649 0.00321702 -0.00107154)
(0.0997753 0.00379489 -0.0014699)
(0.0999328 0.00373801 -0.00172954)
(0.0989875 0.00379103 -0.0020637)
(0.0980268 0.00409482 -0.00253689)
(0.0966247 0.00468758 -0.00317523)
(0.0948045 0.00560435 -0.00401131)
(0.0924351 0.00689643 -0.0050875)
(0.0893419 0.00863651 -0.00645534)
(0.0852763 0.0109191 -0.00817247)
(0.0798844 0.0138534 -0.0102934)
(0.0727799 0.0175394 -0.0128491)
(0.0625663 0.0220519 -0.0158328)
(0.0510607 0.0270567 -0.0189582)
(0.0302115 0.0325418 -0.0221667)
(0.0123112 0.0307225 -0.0205714)
(0.100552 0.0029286 -0.00101533)
(0.0997041 0.0036302 -0.00139391)
(0.0999786 0.00377345 -0.00163781)
(0.0992279 0.00400846 -0.0019498)
(0.0985087 0.00448218 -0.00238981)
(0.097388 0.00525112 -0.00298073)
(0.0958998 0.00637346 -0.00375085)
(0.093932 0.00792776 -0.00473684)
(0.0913336 0.010023 -0.00598309)
(0.0878798 0.0128074 -0.00753881)
(0.0832291 0.0164758 -0.00944991)
(0.0769904 0.0212667 -0.0117408)
(0.0675646 0.0274822 -0.0144024)
(0.0567859 0.0350961 -0.0171852)
(0.0349435 0.0444997 -0.0200181)
(0.0152666 0.044958 -0.0185818)
(0.100538 0.0026694 -0.000952654)
(0.0997561 0.00341443 -0.00130918)
(0.100168 0.00369262 -0.00153551)
(0.0996072 0.00406501 -0.00182269)
(0.0991309 0.00467423 -0.00222547)
(0.0983065 0.00558359 -0.00276303)
(0.0971847 0.00686589 -0.00345858)
(0.0956803 0.00862137 -0.00434196)
(0.0936808 0.0109915 -0.00544862)
(0.091014 0.014176 -0.00681674)
(0.0874061 0.0184534 -0.00847963)
(0.082565 0.0241967 -0.0104496)
(0.0748699 0.0318825 -0.0127062)
(0.0663989 0.0418056 -0.0150349)
(0.045206 0.0544432 -0.0173251)
(0.024392 0.0560718 -0.0160213)
(0.100569 0.00237586 -0.000886102)
(0.099885 0.00311648 -0.00121921)
(0.100459 0.00348586 -0.00142691)
(0.10009 0.00395823 -0.00168774)
(0.0998578 0.00466468 -0.00205093)
(0.0993366 0.00566787 -0.00253165)
(0.0986008 0.00704744 -0.00314753)
(0.0976001 0.00891782 -0.00392073)
(0.0962724 0.0114476 -0.00487651)
(0.0945148 0.0148939 -0.00603995)
(0.0921401 0.0196665 -0.00742877)
(0.0889336 0.0264592 -0.00903953)
(0.0832437 0.0364458 -0.0108357)
(0.0771687 0.0521421 -0.0126468)
(0.0564004 0.0773394 -0.0143062)
(0.0367923 0.104915 -0.0132281)
(0.0937049 0.00745197 -0.000753734)
(0.0891382 0.00317622 -0.00102657)
(0.0857369 0.00161156 -0.0012072)
(0.0833608 0.000911199 -0.00144375)
(0.081438 0.00068513 -0.00178104)
(0.0793599 0.00064938 -0.00223763)
(0.0769718 0.000708634 -0.00283675)
(0.0740651 0.000832279 -0.00360742)
(0.070442 0.00101133 -0.0045828)
(0.0658804 0.00124488 -0.0057963)
(0.0601284 0.00153274 -0.00727266)
(0.0529663 0.00186839 -0.0090119)
(0.0436775 0.00225803 -0.0109764)
(0.0337663 0.00256793 -0.0129348)
(0.0187078 0.00303604 -0.0148452)
(0.006961 0.00246919 -0.0135934)
(0.102424 0.00649211 -0.000884485)
(0.101147 0.00385754 -0.00120848)
(0.100135 0.00252546 -0.00142039)
(0.0981605 0.00185838 -0.0016948)
(0.0962441 0.0016597 -0.00208552)
(0.0939564 0.00171801 -0.00261491)
(0.0912358 0.00195102 -0.00331024)
(0.0878834 0.0023327 -0.00420549)
(0.0836815 0.00286037 -0.00533961)
(0.0783725 0.00354081 -0.00675207)
(0.0716548 0.00437914 -0.00847262)
(0.0632585 0.0053653 -0.0105024)
(0.0523354 0.0064795 -0.0127982)
(0.0405512 0.00752644 -0.0150972)
(0.0226858 0.00862647 -0.0173245)
(0.00868305 0.00764379 -0.0158471)
(0.101586 0.00444267 -0.00087286)
(0.100626 0.00407025 -0.00119308)
(0.100261 0.00332934 -0.00140135)
(0.0986821 0.0028991 -0.0016703)
(0.0970664 0.00283548 -0.00205296)
(0.0949971 0.003065 -0.00257093)
(0.092458 0.00355006 -0.00325056)
(0.0892766 0.00428563 -0.00412474)
(0.0852469 0.00528682 -0.00523129)
(0.0801115 0.00657864 -0.00660865)
(0.0735538 0.00818238 -0.00828602)
(0.0652767 0.0100949 -0.010265)
(0.0543278 0.0122774 -0.0125052)
(0.0424191 0.0144531 -0.0147493)
(0.0238815 0.0166118 -0.016927)
(0.00913128 0.0151128 -0.0154784)
(0.100886 0.00370198 -0.000846282)
(0.099947 0.00397609 -0.0011571)
(0.0998649 0.00362275 -0.00135794)
(0.0985909 0.00345631 -0.00161651)
(0.0972538 0.00358626 -0.00198378)
(0.0954367 0.00401054 -0.00247997)
(0.0931462 0.00473313 -0.00312972)
(0.090229 0.0057785 -0.00396378)
(0.0864918 0.00718968 -0.00501757)
(0.08168 0.00902249 -0.0063271)
(0.0754636 0.0113329 -0.00791983)
(0.0675147 0.0141519 -0.00979724)
(0.0567415 0.0174682 -0.0119221)
(0.0448986 0.0209395 -0.0140509)
(0.025631 0.0245388 -0.0161171)
(0.00993585 0.0226979 -0.0147403)
(0.100614 0.00326268 -0.000810976)
(0.0996692 0.00385665 -0.00110941)
(0.0997238 0.00381243 -0.00130044)
(0.0986767 0.0038833 -0.00154526)
(0.0975961 0.00421376 -0.00189206)
(0.096054 0.00484449 -0.00235921)
(0.0940667 0.00581378 -0.00296894)
(0.0914969 0.00717715 -0.00374903)
(0.0881665 0.00901236 -0.00473133)
(0.0838294 0.0114195 -0.00594816)
(0.0781467 0.0145132 -0.00742388)
(0.0707612 0.0183961 -0.00915904)
(0.0603951 0.0231417 -0.0111193)
(0.0488474 0.0283879 -0.0130816)
(0.0286407 0.0341266 -0.0149805)
(0.0115673 0.0321826 -0.0137026)
(0.100519 0.00298094 -0.000769194)
(0.0996048 0.00370097 -0.00105293)
(0.0997834 0.0038588 -0.00123232)
(0.0989385 0.00411436 -0.00146079)
(0.0981093 0.00461886 -0.00178316)
(0.0968613 0.00543174 -0.00221554)
(0.0952223 0.00661514 -0.00277717)
(0.0930751 0.00825282 -0.00349194)
(0.0902661 0.0104602 -0.004387)
(0.0865732 0.0133933 -0.00548937)
(0.0816688 0.0172547 -0.00681848)
(0.0751883 0.0222892 -0.00837183)
(0.0656356 0.0288018 -0.0101159)
(0.0548344 0.0367356 -0.0118531)
(0.0335606 0.0465 -0.0135134)
(0.0146159 0.0468384 -0.0123517)
(0.100507 0.00272628 -0.000722603)
(0.0996645 0.00349133 -0.000989963)
(0.0999881 0.00378538 -0.00115636)
(0.0993419 0.00418015 -0.00136653)
(0.0987667 0.00482295 -0.00166153)
(0.0978293 0.00578032 -0.00205484)
(0.0965754 0.00712957 -0.00256219)
(0.0949161 0.00897692 -0.00320283)
(0.0927376 0.0114715 -0.0039981)
(0.0898713 0.0148226 -0.00496818)
(0.0860571 0.0193191 -0.00612523)
(0.0810282 0.0253435 -0.00746081)
(0.0732496 0.0333807 -0.00893746)
(0.0648036 0.0436916 -0.0103835)
(0.0441066 0.0567916 -0.0117088)
(0.0239076 0.0583059 -0.0106525)
(0.100541 0.00243492 -0.000673137)
(0.0998014 0.00319632 -0.000923114)
(0.100296 0.00358213 -0.00107573)
(0.0998505 0.00407771 -0.00126648)
(0.099531 0.00481894 -0.00153239)
(0.0989121 0.00587191 -0.00188411)
(0.0980645 0.007321 -0.00233354)
(0.0969357 0.00928701 -0.00289477)
(0.0954639 0.011947 -0.0035825)
(0.0935515 0.015569 -0.00440877)
(0.0910254 0.0205762 -0.00537669)
(0.0876955 0.0276779 -0.00646954)
(0.0819756 0.0380694 -0.00764285)
(0.0759902 0.0542528 -0.00875617)
(0.0556452 0.0801464 -0.00969014)
(0.036569 0.10786 -0.00879633)
(0.093682 0.00745518 -0.00046912)
(0.0890684 0.00318155 -0.000638443)
(0.0855987 0.00161742 -0.000748402)
(0.083155 0.0009185 -0.000892744)
(0.081152 0.00069447 -0.00109839)
(0.0789802 0.000661613 -0.00137633)
(0.0764806 0.000724823 -0.00174005)
(0.0734417 0.000853743 -0.00220582)
(0.0696651 0.0010397 -0.00279147)
(0.0649333 0.00128206 -0.00351353)
(0.0590082 0.00158089 -0.00438141)
(0.0516939 0.0019299 -0.00538745)
(0.0423525 0.00233395 -0.00650067)
(0.0324656 0.00266205 -0.00757829)
(0.0178414 0.00314031 -0.00859436)
(0.00659405 0.00257487 -0.00781429)
(0.102397 0.0065022 -0.000550704)
(0.101066 0.00387172 -0.000750946)
(0.0999754 0.00254209 -0.000880395)
(0.0979219 0.00187899 -0.00104768)
(0.0959121 0.00168614 -0.00128599)
(0.0935151 0.00175269 -0.00160835)
(0.0906643 0.00199695 -0.00203064)
(0.0871574 0.00239362 -0.00257191)
(0.0827758 0.00294083 -0.00325317)
(0.077267 0.00364616 -0.00409402)
(0.0703453 0.00451519 -0.00510598)
(0.0617688 0.00553785 -0.00628071)
(0.0507793 0.0066923 -0.00758253)
(0.0390243 0.00778151 -0.00884848)
(0.0216612 0.00891591 -0.0100335)
(0.00824081 0.00791394 -0.00911244)
(0.10156 0.00446161 -0.000543217)
(0.100547 0.00409594 -0.000741437)
(0.100105 0.00336005 -0.000868889)
(0.0984485 0.00293709 -0.0010328)
(0.0967418 0.00288424 -0.00126621)
(0.094566 0.00312899 -0.0015816)
(0.0919003 0.00363486 -0.00199435)
(0.0885687 0.00439821 -0.0025229)
(0.0843646 0.00543571 -0.00318758)
(0.0790352 0.00677385 -0.00400744)
(0.0722792 0.00843485 -0.00499377)
(0.0638266 0.0104154 -0.00613855)
(0.0528126 0.0126739 -0.0074079)
(0.0409315 0.0149253 -0.00864194)
(0.0228816 0.0171541 -0.00979886)
(0.00870149 0.0156074 -0.00889537)
(0.100861 0.00372737 -0.000526998)
(0.0998708 0.00401049 -0.000719235)
(0.0997144 0.0036641 -0.000842111)
(0.0983666 0.00350748 -0.000999627)
(0.0969425 0.00365204 -0.00122361)
(0.0950243 0.00409699 -0.0015257)
(0.0926137 0.00484794 -0.00192025)
(0.0895545 0.00593136 -0.00242446)
(0.0856526 0.00739257 -0.0030573)
(0.0806579 0.00928971 -0.00383651)
(0.0742548 0.0116804 -0.00477252)
(0.0661407 0.0145958 -0.00585751)
(0.0553067 0.0180216 -0.00705991)
(0.0434906 0.0216023 -0.00822759)
(0.0246837 0.025308 -0.00932213)
(0.00953088 0.0233986 -0.00846215)
(0.10059 0.00329414 -0.000505239)
(0.099597 0.00389919 -0.000689873)
(0.0995813 0.00386363 -0.000806762)
(0.0984647 0.00394671 -0.000955866)
(0.0973027 0.00429538 -0.00116734)
(0.0956665 0.00495195 -0.00145173)
(0.0935679 0.00595682 -0.00182198)
(0.0908672 0.00736818 -0.00229356)
(0.0873857 0.00926695 -0.00288344)
(0.0828814 0.0117566 -0.00360734)
(0.0770289 0.0149544 -0.0044742)
(0.0694939 0.0189642 -0.00547599)
(0.0590744 0.0238573 -0.00658366)
(0.0475553 0.0292539 -0.00765657)
(0.0277709 0.0351461 -0.00865886)
(0.0111979 0.0331184 -0.0078592)
(0.100496 0.00301699 -0.000479521)
(0.0995372 0.0037497 -0.000655103)
(0.0996504 0.00391752 -0.000764843)
(0.0987412 0.00418715 -0.000903929)
(0.0978373 0.00471265 -0.00110048)
(0.0965035 0.0055554 -0.00136369)
(0.0947642 0.0067801 -0.00170474)
(0.0924998 0.0084738 -0.00213688)
(0.0895568 0.0107559 -0.00267442)
(0.0857172 0.013787 -0.00333024)