/*--------------------------------*- C++ -*----------------------------------*\
| =========                 |                                                 |
| \\      /  F ield         | OpenFOAM: The Open Source CFD Toolbox           |
|  \\    /   O peration     | Version:  v1912                                 |
|   \\  /    A nd           | Website:  www.openfoam.com                      |
|    \\/     M anipulation  |                                                 |
\*---------------------------------------------------------------------------*/
FoamFile
{
    version     2.0;
    format      ascii;
    class       volVectorField;
    location    "0.41/solid";
    object      D_0_0;
}
// * * * * * * * * * * * * * * * * * * * * * * * * * * * * * * * * * * * * * //

dimensions      [0 1 0 0 0 0 0];


internalField   nonuniform List<vector> 
256
(
(1.7171e-08 2.89454e-08 1.81164e-08)
(1.29516e-09 1.68702e-08 1.65254e-08)
(-7.12369e-10 1.66993e-08 1.66334e-08)
(-1.63407e-08 2.81557e-08 1.85329e-08)
(2.67276e-08 2.29284e-08 3.13321e-08)
(4.57767e-09 1.63355e-08 2.93373e-08)
(-2.40919e-09 1.58877e-08 2.96741e-08)
(-2.42455e-08 2.13544e-08 3.24578e-08)
(2.79177e-08 1.53205e-08 3.6622e-08)
(5.72358e-09 1.27842e-08 3.45489e-08)
(-1.64314e-09 1.20781e-08 3.50595e-08)
(-2.35419e-08 1.30365e-08 3.82592e-08)
(2.79979e-08 9.91651e-09 4.00052e-08)
(6.25823e-09 8.51974e-09 3.78604e-08)
(3.10441e-11 7.58091e-09 3.84955e-08)
(-2.14244e-08 6.97905e-09 4.20118e-08)
(2.89523e-08 5.70867e-09 4.32414e-08)
(7.15983e-09 4.01755e-09 4.10733e-08)
(1.63206e-09 2.86112e-09 4.18033e-08)
(-1.98768e-08 2.15777e-09 4.55322e-08)
(3.1365e-08 1.81463e-09 4.71009e-08)
(8.73996e-09 -5.99987e-10 4.49427e-08)
(2.84794e-09 -1.97125e-09 4.57522e-08)
(-1.95022e-08 -2.33564e-09 4.9629e-08)
(3.60305e-08 -4.72273e-09 5.23438e-08)
(1.11899e-08 -7.01857e-09 5.02627e-08)
(3.481e-09 -8.60089e-09 5.11443e-08)
(-2.11405e-08 -9.47334e-09 5.5083e-08)
(4.32626e-08 -3.45283e-08 5.90695e-08)
(1.39058e-08 -3.343e-08 5.72569e-08)
(4.06545e-09 -3.50803e-08 5.81952e-08)
(-2.51756e-08 -3.9586e-08 6.19668e-08)
(1.31525e-08 1.44606e-08 1.49403e-09)
(5.98081e-10 4.31115e-09 2.0974e-09)
(-2.69122e-10 4.13878e-09 2.25001e-09)
(-1.2503e-08 1.37133e-08 1.94252e-09)
(2.06789e-08 1.2763e-08 8.97473e-09)
(3.14417e-09 7.05288e-09 1.01385e-08)
(-1.61345e-09 6.5631e-09 1.05041e-08)
(-1.87501e-08 1.11477e-08 1.00395e-08)
(2.14633e-08 9.15981e-09 1.4357e-08)
(4.05631e-09 6.85018e-09 1.5748e-08)
(-9.17433e-10 6.10264e-09 1.62676e-08)
(-1.79464e-08 6.82965e-09 1.58724e-08)
(2.13862e-08 5.6195e-09 1.78374e-08)
(4.4949e-09 4.27604e-09 1.93235e-08)
(6.10044e-10 3.3072e-09 1.99578e-08)
(-1.59088e-08 2.65322e-09 1.96943e-08)
(2.22327e-08 2.16781e-09 2.0705e-08)
(5.32022e-09 4.95555e-10 2.22425e-08)
(2.0918e-09 -6.80993e-10 2.29673e-08)
(-1.44397e-08 -1.3967e-09 2.28333e-08)
(2.46141e-08 -1.3031e-09 2.37387e-08)
(6.84456e-09 -3.7144e-09 2.53055e-08)
(3.203e-09 -5.09712e-09 2.61054e-08)
(-1.41841e-08 -5.4526e-09 2.60924e-08)
(2.93635e-08 -6.62724e-09 2.70535e-08)
(9.2657e-09 -8.91296e-09 2.86409e-08)
(3.73331e-09 -1.04921e-08 2.94992e-08)
(-1.60325e-08 -1.13471e-08 2.95843e-08)
(3.68123e-08 -3.18647e-08 2.92524e-08)
(1.19616e-08 -3.05256e-08 3.0866e-08)
(4.23892e-09 -3.21405e-08 3.17468e-08)
(-2.03959e-08 -3.68192e-08 3.18594e-08)
(1.059e-08 1.03641e-08 6.36322e-10)
(3.81456e-12 1.46957e-09 1.35715e-09)
(1.6447e-10 1.31542e-09 1.46943e-09)
(-1.01007e-08 9.72567e-09 9.56405e-10)
(1.68299e-08 7.46982e-09 5.25075e-09)
(1.88783e-09 2.47056e-09 6.63408e-09)
(-8.17896e-10 2.00718e-09 6.91204e-09)
(-1.53469e-08 5.99527e-09 6.04314e-09)
(1.74446e-08 4.43933e-09 9.9637e-09)
(2.59774e-09 2.35652e-09 1.15916e-08)
(-1.816e-10 1.63655e-09 1.19926e-08)
(-1.4628e-08 2.24427e-09 1.11164e-08)
(1.73178e-08 1.83757e-09 1.36334e-08)
(2.95689e-09 5.52423e-10 1.53603e-08)
(1.20408e-09 -3.88197e-10 1.58579e-08)
(-1.27566e-08 -1.00284e-09 1.50758e-08)
(1.81059e-08 -7.38519e-10 1.6582e-08)
(3.71455e-09 -2.39473e-09 1.83607e-08)
(2.57014e-09 -3.5417e-09 1.89378e-08)
(-1.14066e-08 -4.18387e-09 1.82647e-08)
(2.04914e-08 -3.29286e-09 1.92492e-08)
(5.19244e-09 -5.70374e-09 2.10522e-08)
(3.57771e-09 -7.05366e-09 2.16948e-08)
(-1.12997e-08 -7.32377e-09 2.11307e-08)
(2.5348e-08 -7.40064e-09 2.15602e-08)
(7.59907e-09 -9.68549e-09 2.33686e-08)
(4.00038e-09 -1.12253e-08 2.40568e-08)
(-1.33734e-08 -1.19928e-08 2.35857e-08)
(3.29054e-08 -3.06468e-08 2.26758e-08)
(1.02845e-08 -2.92677e-08 2.44941e-08)
(4.41402e-09 -3.08349e-08 2.51907e-08)
(-1.79469e-08 -3.54586e-08 2.47426e-08)
(9.35469e-09 9.19346e-09 8.42215e-10)
(-2.47755e-10 9.93166e-10 1.2801e-09)
(3.26858e-10 8.55715e-10 1.35994e-09)
(-8.98769e-09 8.64453e-09 1.07008e-09)
(1.49214e-08 5.27483e-09 4.0802e-09)
(1.2831e-09 6.90504e-10 4.95191e-09)
(-5.12164e-10 2.68261e-10 5.15434e-09)
(-1.37716e-08 3.95876e-09 4.65664e-09)
(1.55025e-08 1.71721e-09 7.76083e-09)
(1.8746e-09 -2.14726e-10 8.80132e-09)
(3.48161e-11 -8.85029e-10 9.09757e-09)
(-1.32176e-08 -3.02375e-10 8.61232e-09)
(1.54043e-08 -8.07411e-10 1.10425e-08)
(2.18425e-09 -2.04501e-09 1.21496e-08)
(1.2828e-09 -2.9353e-09 1.25225e-08)
(-1.15561e-08 -3.47676e-09 1.2125e-08)
(1.61782e-08 -2.92714e-09 1.37645e-08)
(2.89178e-09 -4.56463e-09 1.49077e-08)
(2.53813e-09 -5.66261e-09 1.53457e-08)
(-1.03492e-08 -6.21163e-09 1.50455e-08)
(1.85585e-08 -4.85606e-09 1.60251e-08)
(4.32677e-09 -7.25981e-09 1.71883e-08)
(3.45425e-09 -8.56175e-09 1.768e-08)
(-1.03683e-08 -8.73535e-09 1.74713e-08)
(2.34556e-08 -8.3645e-09 1.77874e-08)
(6.70828e-09 -1.06506e-08 1.8958e-08)
(3.79032e-09 -1.21434e-08 1.94851e-08)
(-1.25906e-08 -1.28131e-08 1.93495e-08)
(3.10422e-08 -3.07276e-08 1.87882e-08)
(9.37479e-09 -2.9375e-08 1.9973e-08)
(4.12636e-09 -3.08988e-08 2.05039e-08)
(-1.7285e-08 -3.54087e-08 2.03782e-08)
(8.79093e-09 8.67218e-09 8.37749e-10)
(-3.24779e-10 8.42561e-10 1.06001e-09)
(3.52741e-10 7.18446e-10 1.11612e-09)
(-8.50636e-09 8.18963e-09 9.97447e-10)
(1.40327e-08 4.32449e-09 3.21483e-09)
(1.04887e-09 -3.50461e-11 3.67463e-09)
(-4.69017e-10 -4.20913e-10 3.81831e-09)
(-1.31119e-08 3.13842e-09 3.62269e-09)
(1.46132e-08 3.09821e-10 5.91521e-09)
(1.57616e-09 -1.53457e-09 6.47551e-09)
(-1.06923e-11 -2.15773e-09 6.6877e-09)
(-1.27037e-08 -1.5543e-09 6.52366e-09)
(1.45528e-08 -2.42848e-09 8.49336e-09)
(1.85211e-09 -3.6324e-09 9.09508e-09)
(1.12393e-09 -4.47305e-09 9.36475e-09)
(-1.1222e-08 -4.93897e-09 9.27548e-09)
(1.53271e-08 -4.47089e-09 1.07162e-08)
(2.52071e-09 -6.08769e-09 1.13428e-08)
(2.28622e-09 -7.13723e-09 1.16624e-08)
(-1.01445e-08 -7.60357e-09 1.16515e-08)
(1.76904e-08 -6.17725e-09 1.25326e-08)
(3.91507e-09 -8.56431e-09 1.31777e-08)
(3.12936e-09 -9.82044e-09 1.35387e-08)
(-1.02579e-08 -9.91593e-09 1.35969e-08)
(2.25796e-08 -9.49322e-09 1.39374e-08)
(6.26318e-09 -1.17683e-08 1.45947e-08)
(3.4024e-09 -1.32192e-08 1.49828e-08)
(-1.25658e-08 -1.38152e-08 1.50918e-08)
(3.01527e-08 -3.13742e-08 1.48983e-08)
(8.90431e-09 -3.00391e-08 1.55685e-08)
(3.68081e-09 -3.15269e-08 1.59588e-08)
(-1.73265e-08 -3.59462e-08 1.60737e-08)
(8.51595e-09 8.36996e-09 6.69836e-10)
(-3.46287e-10 7.40983e-10 7.76291e-10)
(3.44371e-10 6.26606e-10 8.13648e-10)
(-8.28312e-09 7.93328e-09 7.75456e-10)
(1.36006e-08 3.84379e-09 2.33534e-09)
(9.54991e-10 -3.94096e-10 2.56388e-09)
(-4.94913e-10 -7.529e-10 2.65992e-09)
(-1.28272e-08 2.75163e-09 2.60634e-09)
(1.4182e-08 -4.18409e-10 4.17999e-09)
(1.44451e-09 -2.21256e-09 4.46536e-09)
(-1.03831e-10 -2.79936e-09 4.60796e-09)
(-1.25209e-08 -2.16528e-09 4.58691e-09)
(1.41432e-08 -3.36832e-09 5.9875e-09)
(1.69434e-09 -4.54869e-09 6.29896e-09)
(9.50333e-10 -5.34993e-09 6.48133e-09)
(-1.11637e-08 -5.75488e-09 6.51464e-09)
(1.49155e-08 -5.50269e-09 7.59224e-09)
(2.33176e-09 -7.10018e-09 7.9215e-09)
(2.04417e-09 -8.11082e-09 8.13899e-09)
(-1.01816e-08 -8.51492e-09 8.22745e-09)
(1.72579e-08 -7.21767e-09 8.92348e-09)
(3.6915e-09 -9.58473e-09 9.26871e-09)
(2.83356e-09 -1.08044e-08 9.51553e-09)
(-1.03607e-08 -1.0845e-08 9.65075e-09)
(2.21238e-08 -1.05215e-08 9.98191e-09)
(6.0083e-09 -1.27764e-08 1.03401e-08)
(3.06165e-09 -1.41947e-08 1.06061e-08)
(-1.27195e-08 -1.47445e-08 1.0774e-08)
(2.96733e-08 -3.2129e-08 1.07876e-08)
(8.62493e-09 -3.07874e-08 1.11548e-08)
(3.29927e-09 -3.22473e-08 1.14221e-08)
(-1.75201e-08 -3.66171e-08 1.15948e-08)
(8.3725e-09 8.197e-09 4.23226e-10)
(-3.54393e-10 6.75542e-10 4.71349e-10)
(3.35942e-10 5.67449e-10 4.9276e-10)
(-8.16963e-09 7.78886e-09 4.83398e-10)
(1.33763e-08 3.58368e-09 1.41563e-09)
(9.09618e-10 -5.89161e-10 1.52207e-09)
(-5.19343e-10 -9.30429e-10 1.57721e-09)
(-1.26899e-08 2.55144e-09 1.5704e-09)
(1.39556e-08 -7.99476e-10 2.49213e-09)
(1.37601e-09 -2.56504e-09 2.62802e-09)
(-1.70193e-10 -3.12786e-09 2.71016e-09)
(-1.24442e-08 -2.46972e-09 2.72547e-09)
(1.39243e-08 -3.88899e-09 3.55446e-09)
(1.60678e-09 -5.05357e-09 3.70544e-09)
(8.34431e-10 -5.82834e-09 3.8109e-09)
(-1.11609e-08 -6.19283e-09 3.85825e-09)
(1.46911e-08 -6.13566e-09 4.51454e-09)
(2.22162e-09 -7.71832e-09 4.67685e-09)
(1.88463e-09 -8.70255e-09 4.80311e-09)
(-1.02379e-08 -9.06637e-09 4.88249e-09)
(1.70157e-08 -7.92624e-09 5.32661e-09)
(3.55652e-09 -1.02766e-08 5.49982e-09)
(2.63873e-09 -1.14715e-08 5.64359e-09)
(-1.04581e-08 -1.14778e-08 5.74971e-09)
(2.18617e-08 -1.12711e-08 5.99052e-09)
(5.8507e-09 -1.35065e-08 6.17309e-09)
(2.8369e-09 -1.49027e-08 6.32832e-09)
(-1.28482e-08 -1.5427e-08 6.4527e-09)
(2.93927e-08 -3.27361e-08 6.52353e-09)
(8.44913e-09 -3.13774e-08 6.71099e-09)
(3.04787e-09 -3.28184e-08 6.86698e-09)
(-1.76744e-08 -3.71673e-08 6.99487e-09)
(8.30804e-09 8.1181e-09 1.43987e-10)
(-3.5815e-10 6.44436e-10 1.57963e-10)
(3.32365e-10 5.3941e-10 1.64938e-10)
(-8.11889e-09 7.72361e-09 1.63524e-10)
(1.3275e-08 3.46593e-09 4.73928e-10)
(8.88691e-10 -6.77963e-10 5.05351e-10)
(-5.30472e-10 -1.01066e-09 5.23329e-10)
(-1.26289e-08 2.46272e-09 5.24237e-10)
(1.38518e-08 -9.6809e-10 8.28103e-10)
(1.34361e-09 -2.72028e-09 8.68741e-10)
(-2.00861e-10 -3.27129e-09 8.95561e-10)
(-1.24106e-08 -2.60073e-09 9.04102e-10)
(1.38218e-08 -4.12448e-09 1.17801e-09)
(1.5642e-09 -5.28092e-09 1.22368e-09)
(7.80487e-10 -6.04253e-09 1.25818e-09)
(-1.1161e-08 -6.38725e-09 1.27721e-09)
(1.45842e-08 -6.43762e-09 1.49683e-09)
(2.16713e-09 -8.01224e-09 1.54643e-09)
(1.80968e-09 -8.98325e-09 1.58782e-09)
(-1.02658e-08 -9.32751e-09 1.61728e-09)
(1.68989e-08 -8.28241e-09 1.76964e-09)
(3.48917e-09 -1.06235e-08 1.82312e-09)
(2.54629e-09 -1.1806e-08 1.87032e-09)
(-1.05058e-08 -1.17959e-08 1.90846e-09)
(2.17344e-08 -1.16599e-08 1.99618e-09)
(5.77179e-09 -1.3884e-08 2.053e-09)
(2.72929e-09 -1.5269e-08 2.10403e-09)
(-1.29114e-08 -1.5782e-08 2.14806e-09)
(2.92561e-08 -3.30656e-08 2.18208e-09)
(8.36077e-09 -3.16944e-08 2.2404e-09)
(2.92692e-09 -3.31259e-08 2.29167e-09)
(-1.77507e-08 -3.74682e-08 2.33703e-09)
)
;

boundaryField
{
    interface
    {
        type            solidTraction;
        traction        uniform (0 0 0);
        pressure        uniform 0;
        secondOrder     false;
        setEffectiveTraction false;
        relaxationFactor 1;
        value           nonuniform List<vector> 
192
(
(7.46229e-08 3.992e-08 1.70408e-08)
(8.0724e-08 2.5615e-08 2.96464e-08)
(8.29916e-08 1.56381e-08 3.48139e-08)
(8.46729e-08 1.01753e-08 3.81566e-08)
(8.77331e-08 6.55061e-09 4.13607e-08)
(9.31953e-08 3.58444e-09 4.52081e-08)
(1.0188e-07 -1.748e-09 5.04663e-08)
(1.1457e-07 -3.22987e-08 5.72195e-08)
(6.24305e-08 2.29184e-08 -1.51469e-10)
(6.75654e-08 1.48407e-08 6.49984e-09)
(6.90561e-08 9.33668e-09 1.17383e-08)
(7.03262e-08 5.81195e-09 1.51669e-08)
(7.32006e-08 2.97495e-09 1.79929e-08)
(7.87631e-08 4.79894e-10 2.10199e-08)
(8.80851e-08 -3.57732e-09 2.43825e-08)
(1.02676e-07 -2.9603e-08 2.66628e-08)
(5.41652e-08 1.7219e-08 -3.1334e-10)
(5.91212e-08 9.18346e-09 3.81102e-09)
(6.04752e-08 4.56137e-09 8.47312e-09)
(6.16111e-08 2.00301e-09 1.21376e-08)
(6.43671e-08 5.50775e-11 1.5068e-08)
(6.99385e-08 -1.482e-09 1.7735e-08)
(7.95214e-08 -4.29671e-09 2.00829e-08)
(9.47793e-08 -2.83554e-08 2.1233e-08)
(4.94256e-08 1.52625e-08 3.92301e-10)
(5.4033e-08 6.81179e-09 3.38067e-09)
(5.54127e-08 1.83801e-09 7.05274e-09)
(5.65681e-08 -6.3836e-10 1.0351e-08)
(5.92889e-08 -2.13838e-09 1.30696e-08)
(6.48401e-08 -3.03635e-09 1.53247e-08)
(7.44851e-08 -5.24312e-09 1.70951e-08)
(8.99315e-08 -2.84221e-08 1.80998e-08)
(4.68074e-08 1.43781e-08 6.27964e-10)
(5.11859e-08 5.78008e-09 2.88446e-09)
(5.25973e-08 4.39917e-10 5.5849e-09)
(5.38013e-08 -2.24986e-09 8.1779e-09)
(5.65216e-08 -3.68625e-09 1.04004e-08)
(6.20438e-08 -4.36377e-09 1.22073e-08)
(7.1661e-08 -6.37718e-09 1.36043e-08)
(8.71024e-08 -2.90701e-08 1.4556e-08)
(4.53167e-08 1.38991e-08 5.65166e-10)
(4.95768e-08 5.26032e-09 2.17113e-09)
(5.10045e-08 -2.82679e-10 4.01546e-09)
(5.22407e-08 -3.18479e-09 5.83026e-09)
(5.4962e-08 -4.72379e-09 7.43312e-09)
(6.04527e-08 -5.41521e-09 8.75471e-09)
(7.00171e-08 -7.4171e-09 9.80237e-09)
(8.54091e-08 -2.98338e-08 1.05975e-08)
(4.44822e-08 1.36342e-08 3.71211e-10)
(4.86806e-08 4.97947e-09 1.33418e-09)
(5.01132e-08 -6.6239e-10 2.4095e-09)
(5.13636e-08 -3.70494e-09 3.47406e-09)
(5.40815e-08 -5.36256e-09 4.43164e-09)
(5.95461e-08 -6.13318e-09 5.23682e-09)
(6.90661e-08 -8.1763e-09 5.89313e-09)
(8.44152e-08 -3.04499e-08 6.41918e-09)
(4.41025e-08 1.35139e-08 1.27861e-10)
(4.82724e-08 4.85188e-09 4.48595e-10)
(4.97053e-08 -8.31303e-10 8.02132e-10)
(5.096e-08 -3.94121e-09 1.15238e-09)
(5.36744e-08 -5.6681e-09 1.47008e-09)
(5.91244e-08 -6.49444e-09 1.74043e-09)
(6.86206e-08 -8.57011e-09 1.96434e-09)
(8.39472e-08 -3.07846e-08 2.1479e-09)
(1.73118e-08 4.13077e-08 7.85434e-08)
(2.70731e-08 2.75549e-08 8.81903e-08)
(2.83049e-08 1.74889e-08 9.45726e-08)
(2.83874e-08 1.15714e-08 9.96254e-08)
(2.93521e-08 7.48263e-09 1.05028e-07)
(3.17733e-08 4.0903e-09 1.11974e-07)
(3.64504e-08 -1.73048e-09 1.21324e-07)
(4.37359e-08 -3.27302e-08 1.3373e-07)
(9.24947e-10 2.8336e-08 7.18114e-08)
(4.1641e-09 2.08415e-08 8.15582e-08)
(5.33399e-09 1.4915e-08 8.73189e-08)
(5.88184e-09 1.01509e-08 9.20092e-08)
(6.80136e-09 5.78812e-09 9.73072e-08)
(8.40384e-09 1.69738e-09 1.04369e-07)
(1.08911e-08 -3.94001e-09 1.14279e-07)
(1.36884e-08 -3.15827e-08 1.28554e-07)
(-2.09948e-10 2.82763e-08 7.13465e-08)
(-1.62806e-09 2.04942e-08 8.12993e-08)
(-7.14462e-10 1.42834e-08 8.72107e-08)
(1.07e-09 9.26688e-09 9.20142e-08)
(2.74792e-09 4.67526e-09 9.74007e-08)
(4.02063e-09 3.63959e-10 1.04535e-07)
(4.68718e-09 -5.49019e-09 1.14513e-07)
(5.24416e-09 -3.322e-08 1.28892e-07)
(-1.63462e-08 4.09034e-08 7.73952e-08)
(-2.42317e-08 2.6286e-08 8.77525e-08)
(-2.34058e-08 1.5425e-08 9.45891e-08)
(-2.11695e-08 8.79729e-09 9.99783e-08)
(-1.9538e-08 4.06204e-09 1.05644e-07)
(-1.90942e-08 5.1968e-11 1.12809e-07)
(-2.06769e-08 -6.38899e-09 1.22353e-07)
(-2.47128e-08 -3.77526e-08 1.35037e-07)
(-7.16096e-08 3.83025e-08 1.75709e-08)
(-7.60048e-08 2.31548e-08 3.10913e-08)
(-7.63355e-08 1.23312e-08 3.69289e-08)
(-7.57821e-08 6.06272e-09 4.07608e-08)
(-7.63137e-08 1.67712e-09 4.43429e-08)
(-7.89846e-08 -2.0199e-09 4.8504e-08)
(-8.47105e-08 -8.05517e-09 5.40383e-08)
(-9.44199e-08 -3.89936e-08 6.10038e-08)
(-5.94314e-08 2.15267e-08 3.8253e-10)
(-6.32774e-08 1.25087e-08 7.81489e-09)
(-6.31332e-08 6.11929e-09 1.3644e-08)
(-6.23906e-08 1.77646e-09 1.75274e-08)
(-6.28972e-08 -1.82796e-09 2.07159e-08)
(-6.57809e-08 -5.05454e-09 2.40418e-08)
(-7.22283e-08 -9.79431e-09 2.76427e-08)
(-8.39689e-08 -3.6146e-08 3.00524e-08)
(-5.13822e-08 1.60876e-08 7.76387e-11)
(-5.53138e-08 7.1271e-09 4.79864e-09)
(-5.52805e-08 1.59666e-09 9.9344e-09)
(-5.46125e-08 -1.80826e-09 1.39877e-08)
(-5.51664e-08 -4.54819e-09 1.72422e-08)
(-5.81829e-08 -6.83221e-09 2.01769e-08)
(-6.49777e-08 -1.03311e-08 2.27254e-08)
(-7.74464e-08 -3.47063e-08 2.3965e-08)
(-4.68456e-08 1.43344e-08 6.71519e-10)
(-5.06303e-08 5.01623e-09 4.09799e-09)
(-5.08154e-08 -8.56291e-10 8.13135e-09)
(-5.03431e-08 -4.19396e-09 1.17414e-08)
(-5.10119e-08 -6.50868e-09 1.47301e-08)
(-5.41277e-08 -8.17513e-09 1.7211e-08)
(-6.10719e-08 -1.1084e-08 1.91477e-08)
(-7.3785e-08 -3.4597e-08 2.02232e-08)
(-4.43704e-08 1.35942e-08 8.21339e-10)
(-4.80683e-08 4.18774e-09 3.38668e-09)
(-4.84276e-08 -2.02684e-09 6.34958e-09)
(-4.81419e-08 -5.57884e-09 9.17748e-09)
(-4.89345e-08 -7.84466e-09 1.16098e-08)
(-5.21254e-08 -9.31074e-09 1.35951e-08)
(-5.91226e-08 -1.20481e-08 1.51241e-08)
(-7.18868e-08 -3.50974e-08 1.61326e-08)
(-4.297e-08 1.32109e-08 6.91295e-10)
(-4.66427e-08 3.81106e-09 2.50089e-09)
(-4.7117e-08 -2.5812e-09 4.52211e-09)
(-4.69637e-08 -6.33979e-09 6.49944e-09)
(-4.78514e-08 -8.71576e-09 8.25088e-09)
(-5.10928e-08 -1.02106e-08 9.70086e-09)
(-5.81033e-08 -1.29547e-08 1.08447e-08)
(-7.08666e-08 -3.57467e-08 1.16818e-08)
(-4.21881e-08 1.30037e-08 4.42358e-10)
(-4.58547e-08 3.62006e-09 1.52085e-09)
(-4.63955e-08 -2.85201e-09 2.69794e-09)
(-4.63212e-08 -6.74447e-09 3.85763e-09)
(-4.72682e-08 -9.24214e-09 4.90357e-09)
(-5.05395e-08 -1.08253e-08 5.78603e-09)
(-5.75521e-08 -1.36229e-08 6.50074e-09)
(-7.03076e-08 -3.6285e-08 7.05255e-09)
(-4.18325e-08 1.29106e-08 1.50846e-10)
(-4.54968e-08 3.53563e-09 5.08999e-10)
(-4.60673e-08 -2.96774e-09 8.95719e-10)
(-4.6029e-08 -6.92354e-09 1.27726e-09)
(-4.70035e-08 -9.49141e-09 1.62425e-09)
(-5.02887e-08 -1.11346e-08 1.92039e-09)
(-5.73012e-08 -1.39708e-08 2.16388e-09)
(-7.00525e-08 -3.65804e-08 2.35612e-09)
(4.41043e-08 -1.09207e-07 5.93025e-08)
(3.76098e-08 -1.00868e-07 2.8282e-08)
(3.37078e-08 -9.55623e-08 2.23914e-08)
(3.18582e-08 -9.26277e-08 1.897e-08)
(3.09724e-08 -9.13077e-08 1.52486e-08)
(3.0487e-08 -9.08229e-08 1.11281e-08)
(3.01976e-08 -9.06992e-08 6.75767e-09)
(3.00553e-08 -9.06889e-08 2.26445e-09)
(1.4045e-08 -1.04746e-07 5.74545e-08)
(1.20316e-08 -9.45705e-08 2.98254e-08)
(1.03325e-08 -8.87515e-08 2.42065e-08)
(9.41865e-09 -8.57366e-08 2.01658e-08)
(8.94354e-09 -8.44493e-08 1.59217e-08)
(8.65556e-09 -8.39857e-08 1.14894e-08)
(8.47076e-09 -8.38629e-08 6.93774e-09)
(8.3769e-09 -8.38482e-08 2.31966e-09)
(5.60568e-09 -1.05793e-07 5.83905e-08)
(5.81343e-09 -9.55355e-08 3.06855e-08)
(5.96286e-09 -8.96709e-08 2.48803e-08)
(5.63589e-09 -8.6617e-08 2.06769e-08)
(5.1587e-09 -8.52959e-08 1.62959e-08)
(4.75781e-09 -8.48059e-08 1.1745e-08)
(4.49649e-09 -8.46651e-08 7.08664e-09)
(4.37149e-09 -8.46414e-08 2.36856e-09)
(-2.4344e-08 -1.12664e-07 6.21919e-08)
(-1.95615e-08 -1.041e-07 3.08277e-08)
(-1.71658e-08 -9.86654e-08 2.439e-08)
(-1.65621e-08 -9.56141e-08 2.05001e-08)
(-1.66448e-08 -9.4194e-08 1.63759e-08)
(-1.68615e-08 -9.36318e-08 1.19001e-08)
(-1.70269e-08 -9.34556e-08 7.20766e-09)
(-1.71077e-08 -9.34188e-08 2.41225e-09)
)
;
        gradient        uniform (0 0 0);
    }
    symmetry
    {
        type            solidSymmetry;
        patchType       symmetry;
        secondOrder     false;
        value           nonuniform List<vector> 
32
(
(8.30804e-09 8.1181e-09 0)
(1.3275e-08 3.46593e-09 0)
(1.38518e-08 -9.6809e-10 0)
(1.38218e-08 -4.12448e-09 0)
(1.45842e-08 -6.43762e-09 0)
(1.68989e-08 -8.28241e-09 0)
(2.17344e-08 -1.16599e-08 0)
(2.92561e-08 -3.30656e-08 0)
(-3.5815e-10 6.44436e-10 0)
(8.88691e-10 -6.77963e-10 0)
(1.34361e-09 -2.72028e-09 0)
(1.5642e-09 -5.28092e-09 0)
(2.16713e-09 -8.01224e-09 0)
(3.48917e-09 -1.06235e-08 0)
(5.77179e-09 -1.3884e-08 0)
(8.36077e-09 -3.16944e-08 0)
(3.32365e-10 5.3941e-10 0)
(-5.30472e-10 -1.01066e-09 0)
(-2.00861e-10 -3.27129e-09 0)
(7.80487e-10 -6.04253e-09 0)
(1.80968e-09 -8.98325e-09 0)
(2.54629e-09 -1.1806e-08 0)
(2.72929e-09 -1.5269e-08 0)
(2.92692e-09 -3.31259e-08 0)
(-8.11889e-09 7.72361e-09 0)
(-1.26289e-08 2.46272e-09 0)
(-1.24106e-08 -2.60073e-09 0)
(-1.1161e-08 -6.38725e-09 0)
(-1.02658e-08 -9.32751e-09 0)
(-1.05058e-08 -1.17959e-08 0)
(-1.29114e-08 -1.5782e-08 0)
(-1.77507e-08 -3.74682e-08 0)
)
;
    }
    bottom
    {
        type            fixedDisplacement;
        value           uniform (0 0 0);
    }
}


// ************************************************************************* //
