/*--------------------------------*- C++ -*----------------------------------*\
| =========                 |                                                 |
| \\      /  F ield         | OpenFOAM: The Open Source CFD Toolbox           |
|  \\    /   O peration     | Version:  v1912                                 |
|   \\  /    A nd           | Website:  www.openfoam.com                      |
|    \\/     M anipulation  |                                                 |
\*---------------------------------------------------------------------------*/
FoamFile
{
    version     2.0;
    format      ascii;
    class       volSymmTensorField;
    location    "0.41/solid";
    object      epsilon;
}
// * * * * * * * * * * * * * * * * * * * * * * * * * * * * * * * * * * * * * //

dimensions      [0 0 0 0 0 0 0];


internalField   nonuniform List<symmTensor> 
256
(
(-2.62827e-06 1.05816e-07 -4.07097e-08 1.06205e-06 1.10711e-07 -2.75646e-06)
(-3.76792e-07 -6.24969e-08 -1.58725e-08 6.77055e-07 1.11617e-07 -2.49826e-06)
(-3.71206e-07 7.9431e-08 1.58633e-08 6.64421e-07 1.13753e-07 -2.47382e-06)
(-2.53093e-06 -9.5599e-08 4.14554e-08 1.01385e-06 1.18572e-07 -2.69122e-06)
(-2.62141e-06 -1.16041e-08 -5.8784e-08 -2.88594e-07 -6.80112e-09 -2.73238e-06)
(-6.16105e-07 -2.67954e-08 -2.50811e-08 -9.28824e-08 1.05055e-11 -2.47229e-06)
(-6.08988e-07 4.10379e-08 2.5884e-08 -1.03373e-07 1.58445e-09 -2.44734e-06)
(-2.52034e-06 1.7875e-08 6.02022e-08 -3.17579e-07 -1.20573e-09 -2.66919e-06)
(-2.66637e-06 -1.99033e-08 -6.23435e-08 -2.8243e-07 -1.7198e-08 -2.77519e-06)
(-6.26587e-07 -1.67086e-08 -2.71401e-08 -1.74802e-07 -1.55904e-08 -2.48579e-06)
(-6.19836e-07 2.76895e-08 2.83353e-08 -1.84352e-07 -1.45262e-08 -2.46029e-06)
(-2.56382e-06 2.44397e-08 6.39738e-08 -3.08851e-07 -1.33218e-08 -2.71082e-06)
(-2.72135e-06 -9.65246e-09 -6.40599e-08 -2.1547e-07 -8.71297e-09 -2.84089e-06)
(-5.93496e-07 -1.0029e-08 -2.79379e-08 -1.98682e-07 -8.82999e-09 -2.53531e-06)
(-5.86964e-07 1.81493e-08 2.91836e-08 -2.07432e-07 -8.04762e-09 -2.50952e-06)
(-2.61741e-06 1.30668e-08 6.57431e-08 -2.40071e-07 -5.79732e-09 -2.77566e-06)
(-2.80689e-06 -3.32651e-10 -6.52391e-08 -1.88245e-07 2.03376e-09 -2.93573e-06)
(-5.80671e-07 -4.27801e-09 -2.85114e-08 -2.10853e-07 1.87539e-09 -2.62417e-06)
(-5.74139e-07 1.00247e-08 2.97041e-08 -2.19267e-07 2.52874e-09 -2.59817e-06)
(-2.70176e-06 2.76463e-09 6.6945e-08 -2.1183e-07 4.44093e-09 -2.86988e-06)
(-2.94683e-06 1.26732e-08 -6.57575e-08 -2.44273e-07 1.81248e-08 -3.07649e-06)
(-6.09543e-07 2.92336e-09 -2.88386e-08 -2.56594e-07 1.83741e-08 -2.76741e-06)
(-6.03172e-07 5.17275e-10 3.00122e-08 -2.64885e-07 1.89956e-08 -2.74122e-06)
(-2.84154e-06 -1.14412e-08 6.75169e-08 -2.6761e-07 2.03031e-08 -3.01005e-06)
(-3.15621e-06 4.11597e-08 -6.48753e-08 -7.84924e-07 4.75441e-08 -3.28193e-06)
(-7.03572e-07 1.52001e-08 -2.84931e-08 -7.06557e-07 4.95652e-08 -2.99251e-06)
(-6.98264e-07 -1.4845e-08 2.97607e-08 -7.11816e-07 5.02085e-08 -2.96639e-06)
(-3.05444e-06 -4.17398e-08 6.67211e-08 -8.02108e-07 4.96054e-08 -3.21546e-06)
(-3.48183e-06 6.17016e-08 -6.12521e-08 -3.61608e-06 7.04161e-08 -3.61552e-06)
(-8.54938e-07 2.74656e-08 -2.68875e-08 -3.39951e-06 7.43971e-08 -3.39826e-06)
(-8.51511e-07 -2.78879e-08 2.82219e-08 -3.3759e-06 7.49765e-08 -3.37455e-06)
(-3.38963e-06 -6.29707e-08 6.30296e-08 -3.55572e-06 7.20739e-08 -3.55528e-06)
(-2.22224e-06 7.08297e-08 -2.93199e-08 5.46894e-07 -7.56407e-08 -3.63939e-07)
(-2.7819e-07 -6.58526e-08 -6.29239e-09 2.21375e-07 -2.25579e-08 -3.13495e-07)
(-2.71265e-07 7.48366e-08 8.17312e-09 2.08056e-07 -1.72792e-08 -3.13284e-07)
(-2.11756e-06 -6.36603e-08 3.05476e-08 4.99143e-07 -5.92496e-08 -3.65434e-07)
(-2.22927e-06 -1.56916e-08 -4.17809e-08 -1.21722e-07 -2.18429e-08 -5.4588e-07)
(-4.63472e-07 -2.8253e-08 -1.34184e-08 3.84618e-08 3.93073e-09 -4.71813e-07)
(-4.54857e-07 3.5128e-08 1.67346e-08 2.7103e-08 7.3922e-09 -4.72798e-07)
(-2.12262e-06 1.87094e-08 4.3728e-08 -1.52681e-07 -1.03857e-08 -5.51882e-07)
(-2.25496e-06 -2.04622e-08 -4.25888e-08 -1.62544e-07 -1.66305e-08 -5.59848e-07)
(-4.65954e-07 -1.80195e-08 -1.41147e-08 -7.26077e-08 -8.2745e-09 -4.78767e-07)
(-4.57756e-07 2.2861e-08 1.78305e-08 -8.19773e-08 -5.76873e-09 -4.80751e-07)
(-2.14679e-06 2.23186e-08 4.47025e-08 -1.88861e-07 -7.99074e-09 -5.68821e-07)
(-2.29783e-06 -1.04515e-08 -4.27183e-08 -1.61492e-07 -1.36207e-08 -5.55178e-07)
(-4.32414e-07 -1.13923e-08 -1.37768e-08 -1.49206e-07 -1.10178e-08 -4.70233e-07)
(-4.24331e-07 1.46727e-08 1.74387e-08 -1.57561e-07 -9.02577e-09 -4.7277e-07)
(-2.18757e-06 1.18141e-08 4.48432e-08 -1.85512e-07 -6.68029e-09 -5.65723e-07)
(-2.37887e-06 -9.43743e-10 -4.31849e-08 -1.6254e-07 -5.17825e-10 -5.62738e-07)
(-4.19473e-07 -5.56485e-09 -1.38848e-08 -1.86282e-07 5.08551e-10 -4.75704e-07)
(-4.11208e-07 7.5083e-09 1.73934e-08 -1.94343e-07 2.21375e-09 -4.78544e-07)
(-2.26622e-06 1.79822e-09 4.53056e-08 -1.85573e-07 5.34059e-09 -5.74149e-07)
(-2.52383e-06 1.28188e-08 -4.32384e-08 -2.05272e-07 1.9459e-08 -5.90833e-07)
(-4.49265e-07 1.96483e-09 -1.40162e-08 -2.17815e-07 1.98911e-08 -5.02855e-07)
(-4.40955e-07 -1.47986e-09 1.74284e-08 -2.25661e-07 2.13893e-08 -5.05967e-07)
(-2.40932e-06 -1.2813e-08 4.539e-08 -2.27769e-07 2.45037e-08 -6.03003e-07)
(-2.75723e-06 4.2802e-08 -4.22123e-08 -6.54317e-07 3.69964e-08 -6.58926e-07)
(-5.46587e-07 1.48236e-08 -1.37741e-08 -5.7038e-07 3.75993e-08 -5.72126e-07)
(-5.3922e-07 -1.6389e-08 1.70035e-08 -5.74753e-07 3.8781e-08 -5.7575e-07)
(-2.64446e-06 -4.42675e-08 4.43329e-08 -6.69556e-07 4.09459e-08 -6.72398e-07)
(-3.15705e-06 6.51396e-08 -4.02865e-08 -3.28186e-06 4.81578e-08 -7.85956e-07)
(-7.04041e-07 2.88277e-08 -1.36222e-08 -2.99358e-06 5.00157e-08 -7.05151e-07)
(-6.98791e-07 -2.95567e-08 1.58507e-08 -2.96756e-06 5.06243e-08 -7.09691e-07)
(-3.05482e-06 -6.66962e-08 4.18998e-08 -3.21534e-06 5.0062e-08 -8.01657e-07)
(-1.95082e-06 4.87884e-08 -1.25603e-08 3.49768e-07 1.16251e-08 -1.63012e-08)
(-2.11941e-07 -7.29406e-08 -2.41952e-10 6.62373e-08 5.58418e-08 -1.975e-08)
(-2.05036e-07 7.71666e-08 2.03112e-09 5.38393e-08 6.00035e-08 -2.11719e-08)
(-1.84863e-06 -4.36785e-08 1.3207e-08 3.07019e-07 2.44556e-08 -2.06005e-08)
(-1.98873e-06 -1.63556e-08 -1.62743e-08 -1.36585e-07 2.46221e-08 -1.06999e-07)
(-3.59172e-07 -2.97787e-08 -2.41755e-09 1.91026e-09 4.67568e-08 -1.13231e-07)
(-3.50307e-07 3.28616e-08 5.45005e-09 -9.27618e-09 5.02442e-08 -1.16403e-07)
(-1.88345e-06 1.78756e-08 1.74887e-08 -1.67067e-07 3.5694e-08 -1.16478e-07)
(-2.01616e-06 -1.9243e-08 -1.48785e-08 -1.31981e-07 1.55743e-08 -1.44575e-07)
(-3.58343e-07 -1.82119e-08 -1.98866e-09 -5.61543e-08 2.33158e-08 -1.52097e-07)
(-3.49756e-07 1.99645e-08 5.15912e-09 -6.55103e-08 2.6221e-08 -1.56446e-07)
(-1.90895e-06 1.98681e-08 1.62004e-08 -1.58645e-07 2.49632e-08 -1.57485e-07)
(-2.05624e-06 -1.03572e-08 -1.39281e-08 -1.23115e-07 8.21853e-09 -1.5088e-07)
(-3.26601e-07 -1.19282e-08 -1.26991e-09 -1.15473e-07 1.07978e-08 -1.58954e-07)
(-3.18025e-07 1.27826e-08 4.23569e-09 -1.23807e-07 1.32857e-08 -1.64053e-07)
(-1.94657e-06 1.07601e-08 1.52006e-08 -1.47491e-07 1.62865e-08 -1.65967e-07)
(-2.1352e-06 -1.07096e-09 -1.37444e-08 -1.22487e-07 1.23034e-08 -1.56631e-07)
(-3.14763e-07 -6.26238e-09 -1.12043e-09 -1.4748e-07 1.3308e-08 -1.6491e-07)
(-3.05891e-07 6.40881e-09 3.85952e-09 -1.55463e-07 1.54852e-08 -1.70508e-07)
(-2.02255e-06 1.23195e-09 1.49576e-08 -1.45693e-07 1.92994e-08 -1.73152e-07)
(-2.28173e-06 1.33228e-08 -1.35143e-08 -1.55426e-07 2.21287e-08 -1.76881e-07)
(-3.4654e-07 1.61591e-09 -1.15521e-09 -1.68307e-07 2.24265e-08 -1.85226e-07)
(-3.37506e-07 -2.31278e-09 3.70324e-09 -1.75972e-07 2.4287e-08 -1.91243e-07)
(-2.16625e-06 -1.37594e-08 1.46876e-08 -1.7778e-07 2.80687e-08 -1.94573e-07)
(-2.52441e-06 4.37573e-08 -1.27853e-08 -5.80628e-07 2.40039e-08 -2.1501e-07)
(-4.47883e-07 1.48636e-08 -1.12704e-09 -4.96146e-07 2.40652e-08 -2.23574e-07)
(-4.39704e-07 -1.69997e-08 3.2429e-09 -5.00235e-07 2.54186e-08 -2.30033e-07)
(-2.4093e-06 -4.54309e-08 1.38186e-08 -5.95403e-07 2.84067e-08 -2.33883e-07)
(-2.9486e-06 6.59418e-08 -1.21546e-08 -3.07601e-06 2.06765e-08 -2.44877e-07)
(-6.08915e-07 2.90493e-08 -1.29252e-09 -2.76879e-06 2.0635e-08 -2.53637e-07)
(-6.02818e-07 -2.9854e-08 1.95185e-09 -2.74271e-06 2.11543e-08 -2.60453e-07)
(-2.84242e-06 -6.7537e-08 1.2571e-08 -3.00971e-06 2.23953e-08 -2.64674e-07)
(-1.78951e-06 3.91371e-08 -4.64066e-09 2.79136e-07 3.78603e-08 3.30543e-09)
(-1.81575e-07 -7.48116e-08 2.12596e-09 1.92692e-08 6.37761e-08 -7.89551e-09)
(-1.75332e-07 7.62862e-08 -4.96317e-10 8.01008e-09 6.6824e-08 -8.9952e-09)
(-1.69129e-06 -3.55472e-08 5.08147e-09 2.41258e-07 4.72406e-08 1.68977e-10)
(-1.83362e-06 -1.58657e-08 -5.30479e-09 -1.68961e-07 4.45139e-08 -4.52428e-08)
(-3.10261e-07 -2.99885e-08 2.64519e-09 -4.19606e-08 5.79455e-08 -6.59908e-08)
(-3.02083e-07 3.09569e-08 1.57291e-10 -5.25008e-08 6.08149e-08 -6.86093e-08)
(-1.732e-06 1.65373e-08 6.20351e-09 -1.97767e-07 5.34201e-08 -5.27376e-08)
(-1.8651e-06 -1.76716e-08 -3.72994e-09 -1.40945e-07 3.54656e-08 -8.94883e-08)
(-3.10059e-07 -1.78043e-08 3.48282e-09 -7.31053e-08 4.04446e-08 -1.1345e-07)
(-3.01978e-07 1.79175e-08 -6.0243e-10 -8.2287e-08 4.30542e-08 -1.1713e-07)
(-1.76114e-06 1.76781e-08 4.71418e-09 -1.67382e-07 4.36333e-08 -1.00094e-07)
(-1.90655e-06 -9.71098e-09 -2.64523e-09 -1.10645e-07 2.46355e-08 -1.14911e-07)
(-2.81799e-07 -1.18665e-08 4.14564e-09 -1.05926e-07 2.63963e-08 -1.40107e-07)
(-2.73615e-07 1.1499e-08 -1.5201e-09 -1.14281e-07 2.87548e-08 -1.44553e-07)
(-1.79981e-06 9.64592e-09 3.56025e-09 -1.35329e-07 3.20382e-08 -1.27783e-07)
(-1.98565e-06 -9.1627e-10 -2.27468e-09 -9.73633e-08 1.98675e-08 -1.33203e-07)
(-2.72132e-07 -6.4855e-09 4.31537e-09 -1.23212e-07 2.06825e-08 -1.58952e-07)
(-2.6358e-07 5.80724e-09 -1.96625e-09 -1.31249e-07 2.27879e-08 -1.63976e-07)
(-1.87556e-06 7.65522e-10 3.098e-09 -1.2097e-07 2.64479e-08 -1.47777e-07)
(-2.1327e-06 1.35596e-08 -2.14325e-09 -1.26446e-07 1.82597e-08 -1.5463e-07)
(-3.05752e-07 1.44265e-09 4.22055e-09 -1.39826e-07 1.86806e-08 -1.80495e-07)
(-2.96973e-07 -2.59157e-09 -2.15015e-09 -1.47536e-07 2.04572e-08 -1.85988e-07)
(-2.01924e-06 -1.41498e-08 2.87464e-09 -1.49152e-07 2.38224e-08 -1.70564e-07)
(-2.37795e-06 4.38807e-08 -1.95861e-09 -5.46787e-07 1.16394e-08 -1.76967e-07)
(-4.09426e-07 1.4717e-08 4.00186e-09 -4.63603e-07 1.18544e-08 -2.02678e-07)
(-4.01423e-07 -1.70304e-08 -2.48399e-09 -4.67783e-07 1.30951e-08 -2.0853e-07)
(-2.26392e-06 -4.55853e-08 2.49363e-09 -5.6196e-07 1.56447e-08 -1.93941e-07)
(-2.80882e-06 6.55886e-08 -1.87407e-09 -2.93715e-06 8.39012e-09 -1.81393e-07)
(-5.72021e-07 2.87276e-08 3.72533e-09 -2.62747e-06 8.06231e-09 -2.06977e-07)
(-5.65999e-07 -2.96244e-08 -3.65019e-09 -2.60165e-06 8.48367e-09 -2.12948e-07)
(-2.70219e-06 -6.72081e-08 1.81085e-09 -2.87167e-06 9.82273e-09 -1.98753e-07)
(-1.69703e-06 3.54372e-08 -1.8415e-09 2.48774e-07 3.72377e-08 -4.24634e-09)
(-1.69203e-07 -7.40257e-08 2.0443e-09 1.44481e-09 5.0768e-08 -1.17529e-08)
(-1.63582e-07 7.39095e-08 -7.32769e-10 -8.84189e-09 5.29421e-08 -1.25825e-08)
(-1.60191e-06 -3.2856e-08 2.19501e-09 2.14743e-07 4.38787e-08 -6.63408e-09)
(-1.74153e-06 -1.5195e-08 -1.75084e-09 -1.86806e-07 4.24925e-08 -3.90161e-08)
(-2.90531e-07 -2.95175e-08 3.14829e-09 -6.57849e-08 4.97319e-08 -5.35199e-08)
(-2.83106e-07 2.92508e-08 -8.12823e-10 -7.56647e-08 5.18735e-08 -5.55942e-08)
(-1.64296e-06 1.53498e-08 2.48687e-09 -2.13879e-07 4.9059e-08 -4.49735e-08)
(-1.77566e-06 -1.65199e-08 -6.66612e-10 -1.53951e-07 3.79771e-08 -7.97444e-08)
(-2.92073e-07 -1.73602e-08 3.87763e-09 -9.02408e-08 4.0796e-08 -9.67249e-08)
(-2.84617e-07 1.65288e-08 -1.43677e-09 -9.91652e-08 4.28396e-08 -9.97197e-08)
(-1.67448e-06 1.61788e-08 1.48361e-09 -1.79833e-07 4.42876e-08 -8.84107e-08)
(-1.81915e-06 -9.09499e-09 1.14901e-10 -1.12061e-07 2.90375e-08 -1.13274e-07)
(-2.67069e-07 -1.16942e-08 4.31755e-09 -1.08806e-07 3.01444e-08 -1.31107e-07)
(-2.59411e-07 1.06462e-08 -2.09434e-09 -1.17139e-07 3.206e-08 -1.3482e-07)
(-1.71494e-06 8.77679e-09 6.41789e-10 -1.36827e-07 3.49779e-08 -1.24099e-07)
(-1.89925e-06 -7.27862e-10 4.19651e-10 -8.93172e-08 2.09464e-08 -1.39569e-07)
(-2.5955e-07 -6.55444e-09 4.40425e-09 -1.15507e-07 2.16426e-08 -1.57753e-07)
(-2.51466e-07 5.44023e-09 -2.45377e-09 -1.23621e-07 2.33825e-08 -1.62053e-07)
(-1.79143e-06 4.15895e-10 2.41975e-10 -1.13291e-07 2.63405e-08 -1.52156e-07)
(-2.04654e-06 1.35896e-08 4.47246e-10 -1.16071e-07 1.38461e-08 -1.61776e-07)
(-2.94435e-07 1.29785e-09 4.25917e-09 -1.29719e-07 1.44462e-08 -1.80015e-07)
(-2.86078e-07 -2.67422e-09 -2.61364e-09 -1.37559e-07 1.5911e-08 -1.84788e-07)
(-1.935e-06 -1.4252e-08 1.05026e-10 -1.39273e-07 1.8421e-08 -1.75784e-07)
(-2.29166e-06 4.36987e-08 3.69086e-10 -5.31652e-07 5.32437e-09 -1.78264e-07)
(-3.99018e-07 1.45229e-08 3.96381e-09 -4.49668e-07 5.83125e-09 -1.96373e-07)
(-3.91376e-07 -1.69431e-08 -2.85823e-09 -4.54036e-07 6.83751e-09 -2.01462e-07)
(-2.17897e-06 -4.54199e-08 -1.7243e-11 -5.47438e-07 8.58704e-09 -1.93261e-07)
(-2.72251e-06 6.50757e-08 2.23037e-10 -2.8484e-06 3.75194e-09 -1.82106e-07)
(-5.62039e-07 2.83892e-08 3.62258e-09 -2.54095e-06 3.65826e-09 -2.00352e-07)
(-5.56307e-07 -2.93871e-08 -3.73898e-09 -2.51533e-06 3.98968e-09 -2.05487e-07)
(-2.6162e-06 -6.67375e-08 -3.84959e-10 -2.78361e-06 4.89112e-09 -1.97346e-07)
(-1.64316e-06 3.39553e-08 -9.26664e-10 2.33075e-07 2.91268e-08 -9.4361e-09)
(-1.63837e-07 -7.29254e-08 1.29976e-09 -7.59295e-09 3.59625e-08 -1.33607e-08)
(-1.58648e-07 7.18882e-08 -3.5998e-10 -1.71603e-08 3.74204e-08 -1.40376e-08)
(-1.55005e-06 -3.19977e-08 1.19254e-09 2.01781e-07 3.35335e-08 -1.1379e-08)
(-1.68753e-06 -1.46796e-08 -7.92248e-10 -1.94889e-07 3.22868e-08 -4.04438e-08)
(-2.82434e-07 -2.90435e-08 2.12259e-09 -7.70451e-08 3.60426e-08 -4.83145e-08)
(-2.75556e-07 2.80524e-08 -3.99466e-10 -8.64058e-08 3.75044e-08 -5.00408e-08)
(-1.59099e-06 1.45255e-08 1.35296e-09 -2.20574e-07 3.67306e-08 -4.53822e-08)
(-1.72316e-06 -1.58355e-08 -1.70799e-10 -1.62528e-07 3.04695e-08 -7.68003e-08)
(-2.85497e-07 -1.70766e-08 2.59274e-09 -1.00912e-07 3.20211e-08 -8.61837e-08)
(-2.78511e-07 1.56801e-08 -7.51805e-10 -1.09597e-07 3.34515e-08 -8.87191e-08)
(-1.62384e-06 1.5289e-08 8.03561e-10 -1.87831e-07 3.48589e-08 -8.4117e-08)
(-1.7682e-06 -8.7028e-09 2.81739e-10 -1.17266e-07 2.45987e-08 -1.11087e-07)
(-2.62748e-07 -1.15961e-08 2.82996e-09 -1.14667e-07 2.53102e-08 -1.20983e-07)
(-2.55487e-07 1.01332e-08 -1.13719e-09 -1.22951e-07 2.6682e-08 -1.24184e-07)
(-1.66566e-06 8.23357e-09 3.10208e-10 -1.41976e-07 2.88362e-08 -1.20414e-07)
(-1.84917e-06 -6.09719e-10 4.60664e-10 -9.03395e-08 1.73587e-08 -1.40016e-07)
(-2.56763e-07 -6.60832e-09 2.84446e-09 -1.16572e-07 1.79348e-08 -1.50139e-07)
(-2.49032e-07 5.21853e-09 -1.37058e-09 -1.24746e-07 1.9198e-08 -1.53909e-07)
(-1.74284e-06 1.98033e-10 5.38657e-11 -1.14564e-07 2.12713e-08 -1.51077e-07)
(-1.99646e-06 1.35543e-08 4.43223e-10 -1.1522e-07 1.00237e-08 -1.63019e-07)
(-2.92394e-07 1.18263e-09 2.70695e-09 -1.28881e-07 1.06367e-08 -1.73255e-07)
(-2.84353e-07 -2.72029e-09 -1.49548e-09 -1.36843e-07 1.17035e-08 -1.77489e-07)
(-1.88618e-06 -1.42683e-08 -2.50707e-11 -1.38847e-07 1.33653e-08 -1.75514e-07)
(-2.24061e-06 4.35397e-08 3.25396e-10 -5.25304e-07 2.91827e-09 -1.79365e-07)
(-3.97255e-07 1.44062e-08 2.46509e-09 -4.43899e-07 3.51976e-09 -1.89651e-07)
(-3.89886e-07 -1.69238e-08 -1.69016e-09 -4.48434e-07 4.25034e-09 -1.94187e-07)
(-2.12881e-06 -4.52854e-08 -7.2813e-11 -5.41623e-07 5.30315e-09 -1.9285e-07)
(-2.66999e-06 6.47647e-08 1.48018e-10 -2.79303e-06 1.93817e-09 -1.87568e-07)
(-5.60297e-07 2.82059e-08 2.15139e-09 -2.48761e-06 2.06052e-09 -1.98083e-07)
(-5.54799e-07 -2.92949e-08 -2.29088e-09 -2.46215e-06 2.30035e-09 -2.02645e-07)
(-2.56393e-06 -6.64735e-08 -2.84635e-10 -2.72878e-06 2.76786e-09 -2.01278e-07)
(-1.61278e-06 3.32466e-08 -5.0601e-10 2.24619e-07 1.8272e-08 -1.19058e-08)
(-1.61187e-07 -7.22155e-08 6.54984e-10 -1.25357e-08 2.15234e-08 -1.39626e-08)
(-1.56263e-07 7.06734e-08 -9.31717e-11 -2.16373e-08 2.23617e-08 -1.45552e-08)
(-1.52086e-06 -3.16447e-08 6.70411e-10 1.95058e-07 2.07843e-08 -1.35862e-08)
(-1.65707e-06 -1.43896e-08 -4.56957e-10 -1.98557e-07 1.97528e-08 -4.19996e-08)
(-2.78617e-07 -2.87643e-08 1.08776e-09 -8.2386e-08 2.15757e-08 -4.62799e-08)
(-2.72079e-07 2.73722e-08 -3.79608e-11 -9.1402e-08 2.2423e-08 -4.78024e-08)
(-1.56174e-06 1.40637e-08 8.07163e-10 -2.23308e-07 2.23125e-08 -4.63072e-08)
(-1.6935e-06 -1.54805e-08 -1.53574e-10 -1.67214e-07 1.90105e-08 -7.55497e-08)
(-2.82624e-07 -1.69398e-08 1.33007e-09 -1.06638e-07 1.98111e-08 -8.07822e-08)
(-2.75932e-07 1.52201e-08 -1.89631e-10 -1.15149e-07 2.06509e-08 -8.30401e-08)
(-1.5953e-06 1.48175e-08 5.54098e-10 -1.92076e-07 2.15785e-08 -8.20076e-08)
(-1.73944e-06 -8.50198e-09 6.63049e-11 -1.21788e-07 1.57887e-08 -1.08447e-07)
(-2.61163e-07 -1.15681e-08 1.43709e-09 -1.19465e-07 1.62124e-08 -1.14054e-07)
(-2.54153e-07 9.85617e-09 -3.77805e-10 -1.27704e-07 1.70285e-08 -1.16938e-07)
(-1.6379e-06 7.94305e-09 3.12347e-10 -1.46407e-07 1.83063e-08 -1.16796e-07)
(-1.82094e-06 -5.57415e-10 1.48749e-10 -9.36744e-08 1.11714e-08 -1.37499e-07)
(-2.56063e-07 -6.65966e-09 1.42422e-09 -1.19857e-07 1.15625e-08 -1.43331e-07)
(-2.48551e-07 5.09187e-09 -5.02458e-10 -1.28065e-07 1.23209e-08 -1.46764e-07)
(-1.71551e-06 8.17778e-11 1.80966e-10 -1.18039e-07 1.35227e-08 -1.47538e-07)
(-1.96811e-06 1.35215e-08 1.2673e-10 -1.17311e-07 6.22068e-09 -1.61128e-07)
(-2.92085e-07 1.11008e-09 1.33269e-09 -1.30878e-07 6.66386e-09 -1.67166e-07)
(-2.84239e-07 -2.76532e-09 -5.83844e-10 -1.38925e-07 7.30728e-09 -1.71056e-07)
(-1.85859e-06 -1.42745e-08 1.38888e-10 -1.4122e-07 8.24242e-09 -1.72599e-07)
(-2.21134e-06 4.3469e-08 4.97976e-11 -5.23027e-07 1.74281e-09 -1.7891e-07)
(-3.97039e-07 1.43672e-08 1.18747e-09 -4.41771e-07 2.1989e-09 -1.85146e-07)
(-3.89836e-07 -1.69641e-08 -7.18356e-10 -4.46422e-07 2.64016e-09 -1.89334e-07)
(-2.10007e-06 -4.5239e-08 1.08654e-10 -5.39712e-07 3.1907e-09 -1.91384e-07)
(-2.63945e-06 6.46448e-08 -7.31383e-11 -2.76078e-06 1.0285e-09 -1.9092e-07)
(-5.60038e-07 2.81447e-08 9.73284e-10 -2.45647e-06 1.18932e-09 -1.97377e-07)
(-5.54687e-07 -2.93016e-08 -1.06729e-09 -2.4311e-06 1.33437e-09 -2.01585e-07)
(-2.53355e-06 -6.63917e-08 -9.73105e-12 -2.69689e-06 1.53263e-09 -2.03624e-07)
(-1.59896e-06 3.29228e-08 -1.67117e-10 2.20847e-07 6.20736e-09 -1.28492e-08)
(-1.59999e-07 -7.19053e-08 1.94843e-10 -1.47585e-08 7.17892e-09 -1.42122e-08)
(-1.55202e-07 7.01409e-08 -8.12836e-12 -2.36325e-08 7.45238e-09 -1.47659e-08)
(-1.50759e-06 -3.14822e-08 2.22488e-10 1.92121e-07 7.02316e-09 -1.44052e-08)
(-1.64321e-06 -1.42725e-08 -1.6093e-10 -2.00056e-07 6.62287e-09 -4.27196e-08)
(-2.76914e-07 -2.86503e-08 3.23891e-10 -8.46168e-08 7.17399e-09 -4.56423e-08)
(-2.70537e-07 2.70803e-08 2.8219e-11 -9.34622e-08 7.4513e-09 -4.70688e-08)
(-1.54845e-06 1.38702e-08 2.79602e-10 -2.2434e-07 7.45786e-09 -4.67233e-08)
(-1.67997e-06 -1.53342e-08 -7.17662e-11 -1.69278e-07 6.40517e-09 -7.49904e-08)
(-2.81336e-07 -1.68903e-08 3.96719e-10 -1.09138e-07 6.65671e-09 -7.86501e-08)
(-2.74786e-07 1.50234e-08 -1.09041e-11 -1.1756e-07 6.93312e-09 -8.07755e-08)
(-1.5823e-06 1.46185e-08 2.08484e-10 -1.93908e-07 7.2489e-09 -8.10286e-08)
(-1.72631e-06 -8.42188e-09 -7.27959e-12 -1.24215e-07 5.3815e-09 -1.06826e-07)
(-2.6044e-07 -1.1567e-08 4.26517e-10 -1.21995e-07 5.52532e-09 -1.1083e-07)
(-2.5355e-07 9.73675e-09 -6.60171e-11 -1.30206e-07 5.79554e-09 -1.1356e-07)
(-1.62525e-06 7.8205e-09 1.37313e-10 -1.48773e-07 6.21474e-09 -1.1469e-07)
(-1.80804e-06 -5.40466e-10 1.5559e-11 -9.59352e-08 3.82763e-09 -1.35535e-07)
(-2.55725e-07 -6.69089e-09 4.18711e-10 -1.22076e-07 3.96685e-09 -1.3979e-07)
(-2.48319e-07 5.03358e-09 -1.0466e-10 -1.30298e-07 4.21917e-09 -1.4306e-07)
(-1.70303e-06 3.26882e-11 9.79129e-11 -1.20359e-07 4.61043e-09 -1.45062e-07)
(-1.95512e-06 1.35061e-08 6.75016e-12 -1.1899e-07 2.12424e-09 -1.59476e-07)
(-2.91915e-07 1.07712e-09 3.87299e-10 -1.32483e-07 2.28402e-09 -1.63998e-07)
(-2.8416e-07 -2.79571e-09 -1.33125e-10 -1.40571e-07 2.49867e-09 -1.67721e-07)
(-1.84595e-06 -1.42805e-08 8.44581e-11 -1.43036e-07 2.79991e-09 -1.70432e-07)
(-2.19783e-06 4.3451e-08 -1.82257e-11 -5.2241e-07 6.12139e-10 -1.78285e-07)
(-3.96908e-07 1.43628e-08 3.40006e-10 -4.41153e-07 7.78722e-10 -1.83075e-07)
(-3.89783e-07 -1.70041e-08 -1.81772e-10 -4.45861e-07 9.26154e-10 -1.87094e-07)
(-2.08681e-06 -4.52355e-08 7.25582e-11 -5.39278e-07 1.09718e-09 -1.90253e-07)
(-2.62528e-06 6.46166e-08 -6.06975e-11 -2.74593e-06 3.34349e-10 -1.92286e-07)
(-5.59886e-07 2.81347e-08 2.64692e-10 -2.44206e-06 4.0221e-10 -1.9727e-07)
(-5.54605e-07 -2.93276e-08 -2.96386e-10 -2.41675e-06 4.50714e-10 -2.01308e-07)
(-2.51945e-06 -6.63844e-08 3.34293e-11 -2.68223e-06 5.03341e-10 -2.04488e-07)
)
;

boundaryField
{
    interface
    {
        type            calculated;
        value           nonuniform List<symmTensor> 
192
(
(-4.59657e-06 2.16276e-12 2.11672e-11 1.06205e-06 1.10711e-07 -2.75646e-06)
(-4.3168e-06 1.09041e-12 3.29187e-11 -2.88594e-07 -6.80112e-09 -2.73238e-06)
(-4.40318e-06 -1.14169e-12 3.58514e-11 -2.8243e-07 -1.7198e-08 -2.77519e-06)
(-4.53199e-06 -3.77499e-12 3.61183e-11 -2.1547e-07 -8.71297e-09 -2.84089e-06)
(-4.70042e-06 -6.01145e-12 3.52249e-11 -1.88245e-07 2.03376e-09 -2.93573e-06)
(-4.94248e-06 -1.02026e-11 3.39056e-11 -2.44273e-07 1.81248e-08 -3.07649e-06)
(-5.26004e-06 -1.32424e-11 3.08806e-11 -7.84924e-07 4.75441e-08 -3.28193e-06)
(-5.7099e-06 -2.86558e-11 2.84359e-11 -3.61608e-06 7.04161e-08 -3.61552e-06)
(-3.92905e-06 1.46009e-12 1.06156e-11 5.46894e-07 -7.56407e-08 -3.63939e-07)
(-3.73536e-06 4.55697e-13 1.76658e-11 -1.21722e-07 -2.18429e-08 -5.4588e-07)
(-3.7912e-06 -1.60578e-12 1.90512e-11 -1.62544e-07 -1.66305e-08 -5.59848e-07)
(-3.89859e-06 -4.36251e-12 1.88321e-11 -1.61492e-07 -1.36207e-08 -5.55178e-07)
(-4.05981e-06 -6.78533e-12 1.79413e-11 -1.6254e-07 -5.17825e-10 -5.62738e-07)
(-4.31165e-06 -1.14673e-11 1.68046e-11 -2.05272e-07 1.9459e-08 -5.90833e-07)
(-4.67323e-06 -1.48606e-11 1.4848e-11 -6.54317e-07 3.69964e-08 -6.58926e-07)
(-5.26133e-06 -3.11648e-11 1.32252e-11 -3.28186e-06 4.81578e-08 -7.85956e-07)
(-3.47178e-06 1.23214e-12 8.45722e-12 3.49768e-07 1.16251e-08 -1.63012e-08)
(-3.36921e-06 1.65047e-13 1.39453e-11 -1.36585e-07 2.46221e-08 -1.06999e-07)
(-3.42798e-06 -1.93402e-12 1.5003e-11 -1.31981e-07 1.55743e-08 -1.44575e-07)
(-3.52863e-06 -4.92088e-12 1.48081e-11 -1.23115e-07 8.21853e-09 -1.5088e-07)
(-3.68534e-06 -7.64165e-12 1.40908e-11 -1.22487e-07 1.23034e-08 -1.56631e-07)
(-3.93835e-06 -1.28917e-11 1.31658e-11 -1.55426e-07 2.21287e-08 -1.76881e-07)
(-4.31371e-06 -1.68228e-11 1.16969e-11 -5.80628e-07 2.40039e-08 -2.1501e-07)
(-4.94624e-06 -3.4313e-11 1.04014e-11 -3.07601e-06 2.06765e-08 -2.44877e-07)
(-3.19112e-06 9.00144e-13 5.28488e-12 2.79136e-07 3.78603e-08 3.30543e-09)
(-3.11556e-06 -2.86376e-13 9.14361e-12 -1.68961e-07 4.45139e-08 -4.52428e-08)
(-3.17931e-06 -2.40966e-12 9.84261e-12 -1.40945e-07 3.54656e-08 -8.94883e-08)
(-3.27938e-06 -5.49568e-12 9.63045e-12 -1.10645e-07 2.46355e-08 -1.14911e-07)
(-3.43468e-06 -8.36481e-12 9.06026e-12 -9.73633e-08 1.98675e-08 -1.33203e-07)
(-3.68702e-06 -1.38773e-11 8.35885e-12 -1.26446e-07 1.82597e-08 -1.5463e-07)
(-4.06497e-06 -1.80517e-11 7.39206e-12 -5.46787e-07 1.16394e-08 -1.76967e-07)
(-4.70965e-06 -3.5894e-11 6.56067e-12 -2.93715e-06 8.39012e-09 -1.81393e-07)
(-3.02646e-06 7.50347e-13 3.90339e-12 2.48774e-07 3.72377e-08 -4.24634e-09)
(-2.95885e-06 -5.53525e-13 6.7454e-12 -1.86806e-07 4.24925e-08 -3.90161e-08)
(-3.02533e-06 -2.75305e-12 7.26503e-12 -1.53951e-07 3.79771e-08 -7.97444e-08)
(-3.12641e-06 -5.94794e-12 7.10804e-12 -1.12061e-07 2.90375e-08 -1.13274e-07)
(-3.28185e-06 -8.96493e-12 6.68656e-12 -8.93172e-08 2.09464e-08 -1.39569e-07)
(-3.53354e-06 -1.47015e-11 6.16094e-12 -1.16071e-07 1.38461e-08 -1.61776e-07)
(-3.91033e-06 -1.91024e-11 5.46953e-12 -5.31652e-07 5.32437e-09 -1.78264e-07)
(-4.55506e-06 -3.72753e-11 4.85552e-12 -2.8484e-06 3.75194e-09 -1.82106e-07)
(-2.92912e-06 6.28541e-13 2.4225e-12 2.33075e-07 2.91268e-08 -9.4361e-09)
(-2.86465e-06 -7.68154e-13 4.29724e-12 -1.94889e-07 3.22868e-08 -4.04438e-08)
(-2.93245e-06 -3.02592e-12 4.6415e-12 -1.62528e-07 3.04695e-08 -7.68003e-08)
(-3.0345e-06 -6.28613e-12 4.52745e-12 -1.17266e-07 2.45987e-08 -1.11087e-07)
(-3.19033e-06 -9.38881e-12 4.24022e-12 -9.03395e-08 1.73587e-08 -1.40016e-07)
(-3.44135e-06 -1.52447e-11 3.88693e-12 -1.1522e-07 1.00237e-08 -1.63019e-07)
(-3.81599e-06 -1.97669e-11 3.45037e-12 -5.25304e-07 2.91827e-09 -1.79365e-07)
(-4.45816e-06 -3.8115e-11 3.06865e-12 -2.79303e-06 1.93817e-09 -1.87568e-07)
(-2.87387e-06 5.72715e-13 1.43119e-12 2.24619e-07 1.8272e-08 -1.19058e-08)
(-2.81092e-06 -8.88428e-13 2.53156e-12 -1.98557e-07 1.97528e-08 -4.19996e-08)
(-2.87934e-06 -3.19699e-12 2.73597e-12 -1.67214e-07 1.90105e-08 -7.55497e-08)
(-2.982e-06 -6.50769e-12 2.66977e-12 -1.21788e-07 1.57887e-08 -1.08447e-07)
(-3.13809e-06 -9.67443e-12 2.50281e-12 -9.36744e-08 1.11714e-08 -1.37499e-07)
(-3.38854e-06 -1.56131e-11 2.29305e-12 -1.17311e-07 6.22068e-09 -1.61128e-07)
(-3.76131e-06 -2.02219e-11 2.04232e-12 -5.23027e-07 1.74281e-09 -1.7891e-07)
(-4.40122e-06 -3.86965e-11 1.81271e-12 -2.76078e-06 1.0285e-09 -1.9092e-07)
(-2.84868e-06 5.35348e-13 4.29404e-13 2.20847e-07 6.20736e-09 -1.28492e-08)
(-2.78641e-06 -9.57152e-13 7.83284e-13 -2.00056e-07 6.62287e-09 -4.27196e-08)
(-2.85507e-06 -3.28636e-12 8.49455e-13 -1.69278e-07 6.40517e-09 -7.49904e-08)
(-2.95801e-06 -6.61596e-12 8.26412e-13 -1.24215e-07 5.3815e-09 -1.06826e-07)
(-3.11421e-06 -9.80984e-12 7.72114e-13 -9.59352e-08 3.82763e-09 -1.35535e-07)
(-3.36433e-06 -1.57807e-11 7.03746e-13 -1.1899e-07 2.12424e-09 -1.59476e-07)
(-3.73608e-06 -2.04295e-11 6.27271e-13 -5.2241e-07 6.12139e-10 -1.78285e-07)
(-4.37477e-06 -3.89582e-11 5.54143e-13 -2.74593e-06 3.34349e-10 -1.92286e-07)
(-2.62827e-06 1.05816e-07 -3.10025e-11 1.06205e-06 -6.14093e-12 -4.82505e-06)
(-2.62141e-06 -1.16041e-08 -5.02602e-11 -2.88594e-07 -6.3061e-12 -4.53511e-06)
(-2.66637e-06 -1.99033e-08 -5.56089e-11 -2.8243e-07 -4.4707e-12 -4.62271e-06)
(-2.72135e-06 -9.65246e-09 -5.67462e-11 -2.1547e-07 -3.07259e-12 -4.75737e-06)
(-2.80689e-06 -3.32651e-10 -5.66547e-11 -1.88245e-07 -2.56538e-12 -4.93085e-06)
(-2.94683e-06 1.26732e-08 -5.66098e-11 -2.44273e-07 -2.90887e-12 -5.17562e-06)
(-3.15621e-06 4.11597e-08 -5.65793e-11 -7.84924e-07 -3.57419e-12 -5.49922e-06)
(-3.48183e-06 6.17016e-08 -6.05051e-11 -3.61608e-06 -4.97452e-12 -5.96501e-06)
(-3.76792e-07 -6.24969e-08 -2.03051e-11 6.77055e-07 -3.40151e-12 -4.40379e-06)
(-6.16105e-07 -2.67954e-08 -3.65638e-11 -9.28824e-08 -4.10479e-12 -4.15265e-06)
(-6.26587e-07 -1.67086e-08 -4.05708e-11 -1.74802e-07 -2.75635e-12 -4.19488e-06)
(-5.93496e-07 -1.0029e-08 -4.1165e-11 -1.98682e-07 -1.36149e-12 -4.30461e-06)
(-5.80671e-07 -4.27801e-09 -4.11089e-11 -2.10853e-07 -5.39786e-13 -4.47007e-06)
(-6.09543e-07 2.92336e-09 -4.14413e-11 -2.56594e-07 -1.69353e-13 -4.72165e-06)
(-7.03572e-07 1.52001e-08 -4.25186e-11 -7.06557e-07 -2.32327e-13 -5.08274e-06)
(-8.54938e-07 2.74656e-08 -4.79815e-11 -3.39951e-06 -7.66548e-13 -5.68157e-06)
(-3.71206e-07 7.9431e-08 -2.14056e-11 6.64421e-07 -2.17265e-12 -4.35692e-06)
(-6.08988e-07 4.10379e-08 -3.85346e-11 -1.03373e-07 -2.72215e-12 -4.10418e-06)
(-6.19836e-07 2.76895e-08 -4.30059e-11 -1.84352e-07 -1.65412e-12 -4.14452e-06)
(-5.86964e-07 1.81493e-08 -4.37194e-11 -2.07432e-07 -2.63728e-13 -4.25328e-06)
(-5.74139e-07 1.00247e-08 -4.35454e-11 -2.19267e-07 7.54808e-13 -4.41816e-06)
(-6.03172e-07 5.17275e-10 -4.35397e-11 -2.64885e-07 1.6041e-12 -4.66917e-06)
(-6.98264e-07 -1.4845e-08 -4.40392e-11 -7.11816e-07 2.13849e-12 -5.02989e-06)
(-8.51511e-07 -2.78879e-08 -4.89654e-11 -3.3759e-06 2.20839e-12 -5.63225e-06)
(-2.53093e-06 -9.5599e-08 -2.50758e-11 1.01385e-06 -1.62114e-12 -4.69656e-06)
(-2.52034e-06 1.7875e-08 -4.52643e-11 -3.17579e-07 -1.92785e-12 -4.40726e-06)
(-2.56382e-06 2.44397e-08 -5.08207e-11 -3.08851e-07 -9.03733e-13 -4.4901e-06)
(-2.61741e-06 1.30668e-08 -5.18048e-11 -2.40071e-07 5.37909e-13 -4.62196e-06)
(-2.70176e-06 2.76463e-09 -5.15234e-11 -2.1183e-07 1.6256e-12 -4.79369e-06)
(-2.84154e-06 -1.14412e-08 -5.14019e-11 -2.6761e-07 2.73327e-12 -5.03681e-06)
(-3.05444e-06 -4.17398e-08 -5.12052e-11 -8.02108e-07 3.61472e-12 -5.35901e-06)
(-3.38963e-06 -6.29707e-08 -5.61011e-11 -3.55572e-06 4.58287e-12 -5.83415e-06)
(-4.41305e-06 6.10605e-12 9.65545e-12 1.01385e-06 1.18572e-07 -2.69122e-06)
(-4.1289e-06 5.36687e-12 1.69493e-11 -3.17579e-07 -1.20573e-09 -2.66919e-06)
(-4.21159e-06 1.63758e-12 1.86365e-11 -3.08851e-07 -1.33218e-08 -2.71082e-06)
(-4.33719e-06 -2.08836e-12 1.89338e-11 -2.40071e-07 -5.79732e-09 -2.77566e-06)
(-4.50321e-06 -4.10816e-12 1.88288e-11 -2.1183e-07 4.44093e-09 -2.86988e-06)
(-4.74465e-06 -7.1863e-12 1.9607e-11 -2.6761e-07 2.03031e-08 -3.01005e-06)
(-5.06712e-06 -7.1422e-12 1.96705e-11 -8.02108e-07 4.96054e-08 -3.21546e-06)
(-5.53235e-06 -2.22193e-11 2.25903e-11 -3.55572e-06 7.20739e-08 -3.55528e-06)
(-3.73355e-06 2.26777e-12 1.50535e-13 4.99143e-07 -5.92496e-08 -3.65434e-07)
(-3.53928e-06 1.73693e-12 2.59264e-12 -1.52681e-07 -1.03857e-08 -5.51882e-07)
(-3.59124e-06 -3.87275e-13 2.65782e-12 -1.88861e-07 -7.99074e-09 -5.68821e-07)
(-3.69424e-06 -2.82558e-12 2.53495e-12 -1.85512e-07 -6.68029e-09 -5.65723e-07)
(-3.85106e-06 -3.85606e-12 2.67693e-12 -1.85573e-07 5.34059e-09 -5.74149e-07)
(-4.09925e-06 -6.20786e-12 3.82434e-12 -2.27769e-07 2.45037e-08 -6.03003e-07)
(-4.46242e-06 -4.53626e-12 5.02965e-12 -6.69556e-07 4.09459e-08 -6.72398e-07)
(-5.06737e-06 -1.93635e-11 7.72773e-12 -3.21534e-06 5.0062e-08 -8.01657e-07)
(-3.2812e-06 1.18228e-12 1.66475e-12 3.07019e-07 2.44556e-08 -2.06005e-08)
(-3.17638e-06 4.42549e-13 4.6177e-12 -1.67067e-07 3.5694e-08 -1.16478e-07)
(-3.23073e-06 -1.07054e-12 5.28025e-12 -1.58645e-07 2.49632e-08 -1.57485e-07)
(-3.32644e-06 -3.03198e-12 5.42561e-12 -1.47491e-07 1.62865e-08 -1.65967e-07)
(-3.47778e-06 -3.57889e-12 5.58522e-12 -1.45693e-07 1.92994e-08 -1.73152e-07)
(-3.72547e-06 -5.63704e-12 6.33255e-12 -1.7778e-07 2.80687e-08 -1.94573e-07)