/*--------------------------------*- C++ -*----------------------------------*\
| =========                 |                                                 |
| \\      /  F ield         | OpenFOAM: The Open Source CFD Toolbox           |
|  \\    /   O peration     | Version:  v1912                                 |
|   \\  /    A nd           | Website:  www.openfoam.com                      |
|    \\/     M anipulation  |                                                 |
\*---------------------------------------------------------------------------*/
FoamFile
{
    version     2.0;
    format      ascii;
    class       volScalarField;
    location    "0.41/solid";
    object      epsilonEq;
}
// * * * * * * * * * * * * * * * * * * * * * * * * * * * * * * * * * * * * * //

dimensions      [0 0 0 0 0 0 0];


internalField   nonuniform List<scalar> 
256
(
2.51072e-06
1.87341e-06
1.85347e-06
2.42525e-06
1.59501e-06
1.44444e-06
1.42544e-06
1.52228e-06
1.62865e-06
1.41492e-06
1.39583e-06
1.55672e-06
1.71349e-06
1.44469e-06
1.42574e-06
1.64203e-06
1.79184e-06
1.50124e-06
1.48232e-06
1.72048e-06
1.84818e-06
1.57002e-06
1.55102e-06
1.77671e-06
1.62773e-06
1.52649e-06
1.50919e-06
1.5617e-06
1.57055e-07
1.69872e-06
1.68533e-06
1.72446e-07
1.63439e-06
3.54717e-07
3.46123e-07
1.54313e-06
1.28844e-06
3.39395e-07
3.30629e-07
1.20383e-06
1.28448e-06
2.68082e-07
2.60769e-07
1.2003e-06
1.3139e-06
2.04038e-07
1.98032e-07
1.22894e-06
1.36478e-06
1.78044e-07
1.72895e-07
1.27852e-06
1.43568e-06
1.77179e-07
1.72389e-07
1.34822e-06
1.40278e-06
5.1984e-08
5.76737e-08
1.31849e-06
1.62729e-06
1.52753e-06
1.51052e-06
1.5621e-06
1.42868e-06
1.95702e-07
1.9079e-07
1.34263e-06
1.24535e-06
2.2241e-07
2.1307e-07
1.16258e-06
1.25239e-06
1.81559e-07
1.71989e-07
1.16799e-06
1.27979e-06
1.30072e-07
1.20365e-07
1.19362e-06
1.33074e-06
1.07547e-07
9.77051e-08
1.24251e-06
1.41084e-06
1.1654e-07
1.06847e-07
1.32069e-06
1.43459e-06
1.71105e-07
1.67537e-07
1.34757e-06
1.84819e-06
1.57232e-06
1.55392e-06
1.77885e-06
1.2985e-06
1.69478e-07
1.65518e-07
1.21793e-06
1.15454e-06
1.8727e-07
1.79507e-07
1.0764e-06
1.16787e-06
1.55076e-07
1.46589e-07
1.08701e-06
1.19624e-06
1.12847e-07
1.04061e-07
1.11286e-06
1.2473e-06
9.33273e-08
8.41229e-08
1.1613e-06
1.32847e-06
1.02293e-07
9.27441e-08
1.24007e-06
1.36191e-06
1.60555e-07
1.57501e-07
1.27636e-06
1.79755e-06
1.5072e-06
1.48923e-06
1.73e-06
1.22307e-06
1.50889e-07
1.46329e-07
1.14622e-06
1.09034e-06
1.6797e-07
1.60886e-07
1.01546e-06
1.10774e-06
1.42067e-07
1.34365e-07
1.0297e-06
1.1382e-06
1.05846e-07
9.76959e-08
1.05716e-06
1.19047e-06
8.95426e-08
8.07054e-08
1.10645e-06
1.27222e-06
9.90218e-08
8.96304e-08
1.18548e-06
1.30815e-06
1.55886e-07
1.53361e-07
1.22413e-06
1.73872e-06
1.45528e-06
1.43772e-06
1.67296e-06
1.17947e-06
1.38858e-07
1.33625e-07
1.10501e-06
1.05116e-06
1.56847e-07
1.49903e-07
9.78319e-07
1.07088e-06
1.34954e-07
1.27525e-07
9.94691e-07
1.1031e-06
1.01941e-07
9.39306e-08
1.02364e-06
1.15652e-06
8.74193e-08
7.85026e-08
1.07383e-06
1.23869e-06
9.84668e-08
8.90828e-08
1.15308e-06
1.27559e-06
1.57249e-07
1.55071e-07
1.19268e-06
1.6991e-06
1.42147e-06
1.40417e-06
1.63463e-06
1.15503e-06
1.31527e-07
1.25808e-07
1.08201e-06
1.0289e-06
1.50226e-07
1.43261e-07
9.5725e-07
1.0498e-06
1.30356e-07
1.22962e-07
9.74715e-07
1.0831e-06
9.90408e-08
9.09906e-08
1.00461e-06
1.13726e-06
8.54948e-08
7.64417e-08
1.0554e-06
1.21964e-06
9.79727e-08
8.8603e-08
1.13476e-06
1.25706e-06
1.59187e-07
1.57246e-07
1.17487e-06
1.67593e-06
1.40129e-06
1.38416e-06
1.61232e-06
1.14395e-06
1.27959e-07
1.21986e-07
1.0716e-06
1.01877e-06
1.46983e-07
1.39984e-07
9.47686e-07
1.04016e-06
1.27925e-07
1.20513e-07
9.65605e-07
1.07397e-06
9.73674e-08
8.92666e-08
9.95942e-07
1.12845e-06
8.43024e-08
7.51737e-08
1.04699e-06
1.21092e-06
9.75404e-08
8.81889e-08
1.12638e-06
1.24859e-06
1.60228e-07
1.58415e-07
1.16675e-06
1.66534e-06
1.39187e-06
1.37483e-06
1.60216e-06
)
;

boundaryField
{
    interface
    {
        type            calculated;
        value           nonuniform List<scalar> 
192
(
3.33535e-06
2.34328e-06
2.3966e-06
2.51155e-06
2.62562e-06
2.73164e-06
2.59007e-06
1.39843e-06
2.73285e-06
2.28103e-06
2.29822e-06
2.37114e-06
2.47559e-06
2.61864e-06
2.67808e-06
2.59018e-06
2.4349e-06
2.1652e-06
2.19322e-06
2.26116e-06
2.36398e-06
2.51496e-06
2.61926e-06
2.73327e-06
2.22769e-06
2.00757e-06
2.04335e-06
2.11126e-06
2.21315e-06
2.36447e-06
2.47798e-06
2.63487e-06
2.10467e-06
1.89984e-06
1.93996e-06
2.00944e-06
2.11194e-06
2.26329e-06
2.37902e-06
2.54491e-06
2.0324e-06
1.83387e-06
1.87617e-06
1.9471e-06
2.0504e-06
2.20169e-06
2.31773e-06
2.48547e-06
1.99162e-06
1.79618e-06
1.83953e-06
1.91136e-06
2.0152e-06
2.16637e-06
2.28223e-06
2.45048e-06
1.97309e-06
1.77902e-06
1.82279e-06
1.89503e-06
1.99912e-06
2.15019e-06
2.26588e-06
2.43436e-06
3.43736e-06
2.45574e-06
2.51002e-06
2.62696e-06
2.74311e-06
2.85153e-06
2.72223e-06
1.61414e-06
3.09716e-06
2.55025e-06
2.54294e-06
2.61566e-06
2.72459e-06
2.86631e-06
2.9185e-06
2.78821e-06
3.06268e-06
2.51611e-06
2.50779e-06
2.58013e-06
2.68882e-06
2.83018e-06
2.88329e-06
2.76179e-06
3.33063e-06
2.36361e-06
2.4167e-06
2.53298e-06
2.64867e-06
2.75642e-06
2.63143e-06
1.57891e-06
3.20513e-06
2.22046e-06
2.27323e-06
2.38766e-06
2.50107e-06
2.60666e-06
2.47018e-06
1.32053e-06
2.58321e-06
2.13717e-06
2.15283e-06
2.22329e-06
2.32499e-06
2.46561e-06
2.52807e-06
2.47059e-06
2.29094e-06
2.0237e-06
2.04865e-06
2.11325e-06
2.2124e-06
2.35977e-06
2.46587e-06
2.60922e-06
2.09061e-06
1.87183e-06
1.90361e-06
1.9675e-06
2.06511e-06
2.21207e-06
2.32644e-06
2.51208e-06
1.97248e-06
1.76836e-06
1.80401e-06
1.86901e-06
1.9668e-06
2.11331e-06
2.22934e-06
2.42357e-06
1.90336e-06
1.70509e-06
1.7427e-06
1.80885e-06
1.90715e-06
2.0533e-06
2.1693e-06
2.36517e-06
1.86445e-06
1.66902e-06
1.70755e-06
1.77445e-06
1.87312e-06
2.01896e-06
2.13458e-06
2.33086e-06
1.84679e-06
1.65261e-06
1.69151e-06
1.75876e-06
1.85759e-06
2.00324e-06
2.11861e-06
2.31507e-06
1.61536e-06
2.72281e-06
2.85335e-06
2.75275e-06
2.66164e-06
2.60115e-06
2.56541e-06
2.54891e-06
2.7891e-06
2.92049e-06
2.87092e-06
2.73579e-06
2.63859e-06
2.57607e-06
2.5388e-06
2.52137e-06
2.76257e-06
2.88533e-06
2.83496e-06
2.70034e-06
2.60349e-06
2.5412e-06
2.50406e-06
2.4867e-06
1.57952e-06
2.63224e-06
2.75951e-06
2.66086e-06
2.57142e-06
2.51213e-06
2.47718e-06
2.46107e-06
)
;
    }
    symmetry
    {
        type            symmetry;
    }
    bottom
    {
        type            calculated;
        value           nonuniform List<scalar> 
32
(
3.42917e-06
1.99264e-06
1.66349e-06
1.51248e-06
1.43032e-06
1.38264e-06
1.35575e-06
1.34353e-06
2.27499e-06
4.41865e-07
2.16551e-07
1.93925e-07
1.80256e-07
1.70017e-07
1.6337e-07
1.60098e-07
2.25388e-06
4.30544e-07
2.07262e-07
1.85355e-07
1.71122e-07
1.6036e-07
1.53361e-07
1.49908e-07
3.33272e-06
1.89463e-06
1.57188e-06
1.42765e-06
1.35023e-06
1.30562e-06
1.28056e-06
1.26919e-06
)
;
    }
}


// ************************************************************************* //
