/*--------------------------------*- C++ -*----------------------------------*\
| =========                 |                                                 |
| \\      /  F ield         | OpenFOAM: The Open Source CFD Toolbox           |
|  \\    /   O peration     | Version:  v1912                                 |
|   \\  /    A nd           | Website:  www.openfoam.com                      |
|    \\/     M anipulation  |                                                 |
\*---------------------------------------------------------------------------*/
FoamFile
{
    version     2.0;
    format      ascii;
    class       pointVectorField;
    location    "0.41/solid";
    object      pointD;
}
// * * * * * * * * * * * * * * * * * * * * * * * * * * * * * * * * * * * * * //

dimensions      [0 1 0 0 0 0 0];


internalField   nonuniform List<vector> 
405
(
(3.1174e-08 2.79725e-08 3.23662e-08)
(4.7907e-09 1.80187e-08 3.79032e-08)
(1.71582e-10 1.46539e-08 3.60369e-08)
(-4.37647e-09 1.78853e-08 3.74769e-08)
(-2.98049e-08 2.72673e-08 3.21253e-08)
(5.09907e-08 3.46539e-08 5.45707e-08)
(1.30086e-08 3.0501e-08 8.11018e-08)
(7.9239e-10 2.53059e-08 7.7429e-08)
(-1.12652e-08 2.99565e-08 8.04727e-08)
(-4.80461e-08 3.31859e-08 5.46039e-08)
(5.61283e-08 2.20026e-08 6.38033e-08)
(1.70569e-08 2.06798e-08 8.97525e-08)
(1.75684e-09 1.80228e-08 8.60129e-08)
(-1.33746e-08 1.95963e-08 8.94936e-08)
(-5.13038e-08 1.97278e-08 6.45047e-08)
(5.74519e-08 1.35204e-08 6.94003e-08)
(1.78108e-08 1.34419e-08 9.58231e-08)
(2.84772e-09 1.20238e-08 9.18831e-08)
(-1.19565e-08 1.18637e-08 9.58199e-08)
(-5.05132e-08 1.04811e-08 7.05762e-08)
(5.88674e-08 8.17642e-09 7.4229e-08)
(1.84027e-08 8.07705e-09 1.01492e-07)
(4.06333e-09 6.75794e-09 9.74607e-08)
(-1.01207e-08 6.05234e-09 1.01683e-07)
(-4.95395e-08 4.42718e-09 7.57621e-08)
(6.19088e-08 4.06557e-09 7.96953e-08)
(1.99139e-08 3.44963e-09 1.08252e-07)
(5.41058e-09 1.75016e-09 1.04235e-07)
(-8.94007e-09 1.00798e-09 1.08599e-07)
(-4.99241e-08 -3.53699e-10 8.15135e-08)
(6.75104e-08 -1.12036e-09 8.67532e-08)
(2.29094e-08 -2.13231e-09 1.17234e-07)
(6.8923e-09 -4.06375e-09 1.13399e-07)
(-8.98868e-09 -4.98186e-09 1.17714e-07)
(-5.26439e-08 -6.18919e-09 8.88141e-08)
(7.64514e-08 -2.07828e-08 9.60007e-08)
(2.75923e-08 -2.10893e-08 1.29566e-07)
(8.48769e-09 -2.21011e-08 1.26398e-07)
(-1.05187e-08 -2.42442e-08 1.302e-07)
(-5.85622e-08 -2.63436e-08 9.82927e-08)
(7.0144e-08 -6.27576e-08 8.92032e-08)
(3.05118e-08 -7.40948e-08 1.0043e-07)
(9.48718e-09 -7.3176e-08 9.88097e-08)
(-1.14583e-08 -7.67964e-08 1.01717e-07)
(-5.06957e-08 -6.76781e-08 9.17398e-08)
(3.45199e-08 1.61511e-08 4.44728e-09)
(0 0 0)
(0 0 0)
(0 0 0)
(-3.29579e-08 1.53812e-08 4.70145e-09)
(7.20408e-08 2.64194e-08 1.40778e-08)
(1.14083e-08 1.56711e-08 1.57306e-08)
(5.67342e-10 1.10682e-08 1.56058e-08)
(-1.00971e-08 1.49092e-08 1.62129e-08)
(-6.81687e-08 2.44493e-08 1.49972e-08)
(7.60007e-08 1.63535e-08 2.21703e-08)
(1.49256e-08 1.27665e-08 2.43422e-08)
(1.34985e-09 1.02513e-08 2.43522e-08)
(-1.20341e-08 1.14934e-08 2.51959e-08)
(-7.0494e-08 1.35333e-08 2.38082e-08)
(7.76707e-08 9.64658e-09 2.70515e-08)
(1.55425e-08 8.4391e-09 2.93408e-08)
(2.30221e-09 7.04048e-09 2.94399e-08)
(-1.07533e-08 6.71812e-09 3.04681e-08)
(-7.02258e-08 6.01189e-09 2.92275e-08)
(7.98548e-08 5.24157e-09 3.08119e-08)
(1.6074e-08 3.90879e-09 3.31415e-08)
(3.41112e-09 2.58498e-09 3.32909e-08)
(-9.06789e-09 1.77702e-09 3.44754e-08)
(-7.01489e-08 8.40735e-10 3.33992e-08)
(8.41436e-08 1.71657e-09 3.4626e-08)
(1.75411e-08 -7.6571e-10 3.69783e-08)
(4.67261e-09 -2.48218e-09 3.71666e-08)
(-8.01161e-09 -3.29181e-09 3.84778e-08)
(-7.18794e-08 -3.41142e-09 3.75428e-08)
(9.16641e-08 -2.68168e-09 3.91401e-08)
(2.05135e-08 -6.54042e-09 4.14944e-08)
(6.08241e-09 -8.51314e-09 4.17267e-08)
(-8.17766e-09 -9.45384e-09 4.31318e-08)
(-7.66137e-08 -8.50179e-09 4.23303e-08)
(1.03629e-07 -2.04192e-08 4.41475e-08)
(2.51771e-08 -2.35165e-08 4.65144e-08)
(7.61998e-09 -2.45351e-08 4.68249e-08)
(-9.80369e-09 -2.66928e-08 4.82519e-08)
(-8.56997e-08 -2.67371e-08 4.75438e-08)
(7.70288e-08 -7.24563e-08 4.76609e-08)
(2.83433e-08 -1.06585e-07 4.8547e-08)
(9.22918e-09 -1.04138e-07 4.88741e-08)
(-9.78001e-09 -1.08659e-07 5.03e-08)
(-5.80091e-08 -7.72912e-08 5.07173e-08)
(2.92058e-08 1.01968e-08 -6.52054e-11)
(0 0 0)
(0 0 0)
(0 0 0)
(-2.77047e-08 9.54976e-09 1.60589e-10)
(6.1034e-08 1.61094e-08 2.81049e-09)
(8.5898e-09 7.40171e-09 5.13604e-09)
(3.84961e-10 3.43442e-09 5.78462e-09)
(-7.6242e-09 6.67536e-09 5.56666e-09)
(-5.74508e-08 1.43632e-08 3.59727e-09)
(6.43664e-08 9.02238e-09 8.50417e-09)
(1.13093e-08 6.03962e-09 1.14902e-08)
(1.01595e-09 3.79816e-09 1.24513e-08)
(-9.06328e-09 4.78835e-09 1.22318e-08)
(-5.94496e-08 6.38735e-09 9.88549e-09)
(6.56463e-08 4.44542e-09 1.32965e-08)
(1.17388e-08 3.39408e-09 1.64406e-08)
(1.84313e-09 2.0716e-09 1.75491e-08)
(-7.84355e-09 1.69464e-09 1.74177e-08)
(-5.90303e-08 9.68444e-10 1.5143e-08)
(6.76082e-08 1.23454e-09 1.7034e-08)
(1.21823e-08 -3.8962e-11 2.02424e-08)
(2.8495e-09 -1.34119e-09 2.1433e-08)
(-6.2721e-09 -2.14518e-09 2.14055e-08)
(-5.89153e-08 -3.02743e-09 1.92536e-08)
(7.18376e-08 -1.43663e-09 2.04098e-08)
(1.35899e-08 -3.9064e-09 2.36525e-08)
(4.02716e-09 -5.6135e-09 2.48974e-08)
(-5.32009e-09 -6.40189e-09 2.49674e-08)
(-6.07223e-08 -6.43813e-09 2.29343e-08)
(7.96027e-08 -4.67908e-09 2.37304e-08)
(1.65577e-08 -8.57402e-09 2.69648e-08)
(5.36847e-09 -1.0537e-08 2.82474e-08)
(-5.61519e-09 -1.14468e-08 2.83998e-08)
(-6.57985e-08 -1.03729e-08 2.64986e-08)
(9.2443e-08 -1.98562e-08 2.63043e-08)
(2.12724e-08 -2.29582e-08 2.95009e-08)
(6.85099e-09 -2.39214e-08 3.08079e-08)
(-7.40234e-09 -2.60714e-08 3.1005e-08)
(-7.58461e-08 -2.60267e-08 2.92309e-08)
(6.88689e-08 -6.76334e-08 2.79487e-08)
(2.44379e-08 -9.87097e-08 2.95766e-08)
(8.41626e-09 -9.56254e-08 3.08649e-08)
(-7.46903e-09 -1.00667e-07 3.10569e-08)
(-5.13198e-08 -7.23008e-08 3.05448e-08)
(2.58669e-08 8.16513e-09 6.11427e-11)
(0 0 0)
(0 0 0)
(0 0 0)
(-2.44714e-08 7.63253e-09 2.24988e-10)
(5.41722e-08 1.19538e-08 2.09435e-09)
(6.90539e-09 4.46506e-09 3.53428e-09)
(2.61961e-10 9.20974e-10 4.09364e-09)
(-6.19278e-09 3.81329e-09 3.85007e-09)
(-5.09139e-08 1.04538e-08 2.67428e-09)
(5.72827e-08 4.91471e-09 6.38735e-09)
(9.13514e-09 2.30509e-09 8.25958e-09)
(7.73672e-10 2.84554e-10 9.08774e-09)
(-7.37711e-09 1.14696e-09 8.81426e-09)
(-5.29118e-08 2.53956e-09 7.42291e-09)
(5.84994e-08 7.57272e-10 1.06876e-08)
(9.47405e-09 -2.08572e-10 1.26499e-08)
(1.49405e-09 -1.44705e-09 1.3602e-08)
(-6.27704e-09 -1.81444e-09 1.3393e-08)
(-5.263e-08 -2.47471e-09 1.20973e-08)
(6.04023e-08 -1.80524e-09 1.43048e-08)
(9.87954e-09 -3.05332e-09 1.62963e-08)
(2.40895e-09 -4.31885e-09 1.73179e-08)
(-4.848e-09 -5.07011e-09 1.7195e-08)
(-5.26261e-08 -5.84522e-09 1.60298e-08)
(6.46007e-08 -3.64852e-09 1.73701e-08)
(1.12552e-08 -6.11921e-09 1.93797e-08)
(3.51027e-09 -7.80263e-09 2.04481e-08)
(-4.01441e-09 -8.52871e-09 2.04082e-08)
(-5.4537e-08 -8.44932e-09 1.93594e-08)
(7.24536e-08 -5.88724e-09 1.99545e-08)
(1.42237e-08 -9.80674e-09 2.19605e-08)
(4.78872e-09 -1.17504e-08 2.30594e-08)
(-4.43381e-09 -1.25939e-08 2.3089e-08)
(-5.98007e-08 -1.13947e-08 2.21525e-08)
(8.55814e-08 -1.97192e-08 2.16475e-08)
(1.89578e-08 -2.28515e-08 2.3644e-08)
(6.21879e-09 -2.37989e-08 2.47598e-08)
(-6.34336e-09 -2.58776e-08 2.48235e-08)
(-7.02047e-08 -2.571e-08 2.39726e-08)
(6.39404e-08 -6.49541e-08 2.26722e-08)
(2.2135e-08 -9.41604e-08 2.39922e-08)
(7.73791e-09 -9.09278e-08 2.51119e-08)
(-6.51359e-09 -9.60385e-08 2.514e-08)
(-4.76845e-08 -6.94733e-08 2.47132e-08)
(2.39964e-08 7.41463e-09 3.06508e-10)
(0 0 0)
(0 0 0)
(0 0 0)
(-2.26875e-08 6.96739e-09 4.22021e-10)
(5.02677e-08 1.03128e-08 2.08549e-09)
(6.13216e-09 3.4289e-09 2.81038e-09)
(1.84847e-10 1.24264e-10 3.14683e-09)
(-5.5908e-09 2.84481e-09 3.03649e-09)
(-4.72668e-08 9.01166e-09 2.4988e-09)
(5.32276e-08 2.95604e-09 5.34202e-09)
(8.12812e-09 5.31944e-10 6.29601e-09)
(6.09843e-10 -1.35018e-09 6.80536e-09)
(-6.71381e-09 -5.29017e-10 6.69819e-09)
(-4.928e-08 8.16029e-10 6.08963e-09)
(5.44797e-08 -1.39903e-09 8.79324e-09)
(8.43935e-09 -2.33207e-09 9.78771e-09)
(1.2456e-09 -3.50517e-09 1.03817e-08)
(-5.75203e-09 -3.83319e-09 1.03332e-08)
(-4.91919e-08 -4.39193e-09 9.82601e-09)
(5.6404e-08 -3.82568e-09 1.18746e-08)
(8.83773e-09 -5.06606e-09 1.28765e-08)
(2.08429e-09 -6.29362e-09 1.35205e-08)
(-4.46616e-09 -6.98053e-09 1.35445e-08)
(-4.9352e-08 -7.64007e-09 1.31572e-08)
(6.0595e-08 -5.25929e-09 1.44465e-08)
(1.01942e-08 -7.7248e-09 1.54592e-08)
(3.11998e-09 -9.37855e-09 1.61393e-08)
(-3.74313e-09 -1.00376e-08 1.62313e-08)
(-5.13758e-08 -9.85425e-09 1.5944e-08)
(6.84524e-08 -7.00627e-09 1.6471e-08)
(1.31471e-08 -1.09252e-08 1.74931e-08)
(4.34312e-09 -1.28451e-08 1.81988e-08)
(-4.25594e-09 -1.36221e-08 1.83451e-08)
(-5.6738e-08 -1.2328e-08 1.81389e-08)
(8.16227e-08 -2.02246e-08 1.78079e-08)
(1.78668e-08 -2.33734e-08 1.8844e-08)
(5.72615e-09 -2.43144e-08 1.95652e-08)
(-6.24325e-09 -2.63172e-08 1.97349e-08)
(-6.72513e-08 -2.60489e-08 1.95787e-08)
(6.12443e-08 -6.38504e-08 1.8636e-08)
(2.10444e-08 -9.18357e-08 1.95068e-08)
(7.2041e-09 -8.85981e-08 2.02351e-08)
(-6.4956e-09 -9.36438e-08 2.03693e-08)
(-4.60431e-08 -6.82386e-08 2.01837e-08)
(2.2961e-08 7.06283e-09 3.46805e-10)
(0 0 0)
(0 0 0)
(0 0 0)
(-2.17104e-08 6.67449e-09 4.24884e-10)
(4.81071e-08 9.56706e-09 1.7852e-09)
(5.79938e-09 2.97313e-09 2.13204e-09)
(1.36848e-10 -2.00939e-10 2.31277e-09)
(-5.36873e-09 2.44076e-09 2.28784e-09)
(-4.52806e-08 8.40955e-09 2.06649e-09)
(5.09923e-08 2.03121e-09 4.15532e-09)
(7.69307e-09 -3.05153e-10 4.61473e-09)
(5.0223e-10 -2.10657e-09 4.89562e-09)
(-6.50896e-09 -1.28752e-09 4.89383e-09)
(-4.73357e-08 7.24242e-11 4.66888e-09)
(5.22854e-08 -2.55698e-09 6.6793e-09)
(7.99681e-09 -3.47786e-09 7.1574e-09)
(1.07564e-09 -4.60604e-09 7.49188e-09)
(-5.66203e-09 -4.89017e-09 7.53919e-09)
(-4.74053e-08 -5.35575e-09 7.39682e-09)
(5.42422e-08 -5.07226e-09 9.01007e-09)
(8.39363e-09 -6.30785e-09 9.49087e-09)
(1.85531e-09 -7.50331e-09 9.85964e-09)
(-4.49091e-09 -8.13326e-09 9.96245e-09)
(-4.77088e-08 -8.69711e-09 9.91156e-09)
(5.84293e-08 -6.42834e-09 1.0974e-08)
(9.733e-09 -8.88119e-09 1.14647e-08)
(2.83836e-09 -1.05061e-08 1.18605e-08)
(-3.85495e-09 -1.11096e-08 1.20139e-08)
(-4.98266e-08 -1.0848e-08 1.20372e-08)
(6.62559e-08 -8.04134e-09 1.25087e-08)
(1.26604e-08 -1.1943e-08 1.30155e-08)
(4.01604e-09 -1.38374e-08 1.34323e-08)
(-4.43204e-09 -1.45629e-08 1.36245e-08)
(-5.52381e-08 -1.32062e-08 1.37017e-08)
(7.93813e-08 -2.09902e-08 1.35844e-08)
(1.73514e-08 -2.41338e-08 1.41121e-08)
(5.3601e-09 -2.50626e-08 1.45422e-08)
(-6.46719e-09 -2.701e-08 1.47502e-08)
(-6.57666e-08 -2.66774e-08 1.48564e-08)
(5.97662e-08 -6.36076e-08 1.42794e-08)
(2.05153e-08 -9.08213e-08 1.48329e-08)
(6.80442e-09 -8.76004e-08 1.52644e-08)
(-6.77308e-09 -9.25717e-08 1.54487e-08)
(-4.53627e-08 -6.78891e-08 1.53897e-08)
(2.23787e-08 6.87521e-09 2.70108e-10)
(0 0 0)
(0 0 0)
(0 0 0)
(-2.11638e-08 6.52456e-09 3.18311e-10)
(4.68993e-08 9.18423e-09 1.26838e-09)
(5.64589e-09 2.73478e-09 1.43482e-09)
(1.07926e-10 -3.68289e-10 1.52681e-09)
(-5.28299e-09 2.23776e-09 1.53259e-09)
(-4.41807e-08 8.12137e-09 1.44273e-09)
(4.97502e-08 1.57218e-09 2.8203e-09)
(7.49232e-09 -7.20699e-10 3.04134e-09)
(4.34996e-10 -2.47603e-09 3.18776e-09)
(-6.45299e-09 -1.64781e-09 3.21721e-09)
(-4.62772e-08 -2.62035e-10 3.14058e-09)
(5.10683e-08 -3.16486e-09 4.45713e-09)
(7.79149e-09 -4.07878e-09 4.68831e-09)
(9.66291e-10 -5.17788e-09 4.86644e-09)
(-5.68423e-09 -5.42688e-09 4.93022e-09)
(-4.64511e-08 -5.82553e-09 4.90819e-09)
(5.30449e-08 -5.80676e-09 5.99252e-09)
(8.18407e-09 -7.03619e-09 6.22696e-09)
(1.70446e-09 -8.2078e-09 6.42704e-09)
(-4.59068e-09 -8.79587e-09 6.52754e-09)
(-4.68526e-08 -9.29331e-09 6.564e-09)
(5.72242e-08 -7.22561e-09 7.306e-09)
(9.50747e-09 -9.66395e-09 7.54952e-09)
(2.64932e-09 -1.12655e-08 7.76804e-09)
(-4.01427e-09 -1.18297e-08 7.90145e-09)
(-4.90338e-08 -1.15156e-08 7.98509e-09)
(6.50139e-08 -8.85963e-09 8.34924e-09)
(1.24107e-08 -1.27408e-08 8.60739e-09)
(3.79333e-09 -1.46126e-08 8.84119e-09)
(-4.63363e-09 -1.53037e-08 8.99921e-09)
(-5.44689e-08 -1.39082e-08 9.11575e-09)
(7.80835e-08 -2.17007e-08 9.12009e-09)
(1.70748e-08 -2.48283e-08 9.39543e-09)
(5.10838e-09 -2.57409e-08 9.63868e-09)
(-6.69917e-09 -2.76549e-08 9.80669e-09)
(-6.49888e-08 -2.72867e-08 9.94039e-09)
(5.89162e-08 -6.37081e-08 9.63498e-09)
(2.02201e-08 -9.04401e-08 9.97319e-09)
(6.52792e-09 -8.72242e-08 1.02138e-08)
(-7.03622e-09 -9.21482e-08 1.03693e-08)
(-4.50645e-08 -6.79113e-08 1.03509e-08)
(2.20755e-08 6.77939e-09 1.43658e-10)
(0 0 0)
(0 0 0)
(0 0 0)
(-2.08798e-08 6.44959e-09 1.66658e-10)
(4.62722e-08 8.99193e-09 6.51621e-10)
(5.57199e-09 2.61358e-09 7.21395e-10)
(9.25117e-11 -4.53525e-10 7.60558e-10)
(-5.24549e-09 2.13693e-09 7.6852e-10)
(-4.3612e-08 7.98245e-09 7.34979e-10)
(4.91061e-08 1.34951e-09 1.41961e-09)
(7.3951e-09 -9.21521e-10 1.51252e-09)
(3.98287e-10 -2.65269e-09 1.57585e-09)
(-6.43505e-09 -1.81627e-09 1.59748e-09)
(-4.57337e-08 -4.12636e-10 1.57326e-09)
(5.04353e-08 -3.46426e-09 2.22264e-09)
(7.69017e-09 -4.3732e-09 2.32061e-09)
(9.05401e-10 -5.45573e-09 2.39885e-09)
(-5.70973e-09 -5.6831e-09 2.43784e-09)
(-4.59644e-08 -6.04333e-09 2.44003e-09)
(5.24198e-08 -6.19606e-09 2.9806e-09)
(8.07777e-09 -7.41984e-09 3.08114e-09)
(1.61908e-09 -8.57679e-09 3.17025e-09)
(-4.6595e-09 -9.13991e-09 3.22732e-09)
(-4.64201e-08 -9.59952e-09 3.25743e-09)
(5.65909e-08 -7.68954e-09 3.63641e-09)
(9.38956e-09 -1.0117e-08 3.7425e-09)
(2.54088e-09 -1.17036e-08 3.84106e-09)
(-4.11704e-09 -1.22447e-08 3.91421e-09)
(-4.86363e-08 -1.19008e-08 3.96691e-09)
(6.4354e-08 -9.37369e-09 4.1658e-09)
(1.22764e-08 -1.32399e-08 4.28021e-09)
(3.66428e-09 -1.50965e-08 4.3868e-09)
(-4.76083e-09 -1.57681e-08 4.47187e-09)
(-5.40821e-08 -1.43513e-08 4.54026e-09)
(7.73851e-08 -2.21789e-08 4.56971e-09)
(1.69232e-08 -2.52921e-08 4.69322e-09)
(4.96148e-09 -2.61915e-08 4.80466e-09)
(-6.84422e-09 -2.80886e-08 4.89464e-09)
(-6.45934e-08 -2.77032e-08 4.97138e-09)
(5.84546e-08 -6.38605e-08 4.84474e-09)
(2.0054e-08 -9.03248e-08 5.00874e-09)
(6.36587e-09 -8.71064e-08 5.11759e-09)
(-7.19726e-09 -9.20071e-08 5.20251e-09)
(-4.4926e-08 -6.8016e-08 5.19533e-09)
(1.74382e-08 7.19002e-09 0)
(1.99376e-09 2.14422e-09 0)
(-6.22962e-12 2.25979e-10 0)
(-1.94625e-09 2.01242e-09 0)
(-1.65734e-08 6.83495e-09 0)
(2.84666e-08 7.22684e-09 0)
(5.54909e-09 2.57611e-09 0)
(8.76818e-11 -4.79888e-10 0)
(-5.23405e-09 2.10611e-09 0)
(-2.69184e-08 6.37164e-09 0)
(3.12749e-08 9.00795e-10 0)
(7.36476e-09 -9.82298e-10 0)
(3.86637e-10 -2.70588e-09 0)
(-6.42991e-09 -1.86642e-09 0)
(-2.90566e-08 -6.3114e-10 0)
(3.20707e-08 -3.63384e-09 0)
(7.65809e-09 -4.46251e-09 0)
(8.85883e-10 -5.53961e-09 0)
(-5.71832e-09 -5.75977e-09 0)
(-2.88049e-08 -5.88041e-09 0)
(3.32472e-08 -6.56808e-09 0)
(8.04354e-09 -7.54012e-09 0)
(1.59147e-09 -8.69212e-09 0)
(-4.68188e-09 -9.24701e-09 0)
(-2.85083e-08 -9.53347e-09 0)
(3.61452e-08 -8.52886e-09 0)
(9.35109e-09 -1.02653e-08 0)
(2.50558e-09 -1.18468e-08 0)
(-4.1504e-09 -1.23802e-08 0)
(-2.95111e-08 -1.22041e-08 0)
(4.19555e-08 -1.08693e-08 0)
(1.22323e-08 -1.34087e-08 0)
(3.62205e-09 -1.526e-08 0)
(-4.80224e-09 -1.59253e-08 0)
(-3.30562e-08 -1.52295e-08 0)
(5.18157e-08 -2.37982e-08 0)
(1.68731e-08 -2.54532e-08 0)
(4.91323e-09 -2.63476e-08 0)
(-6.89162e-09 -2.82396e-08 0)
(-4.04012e-08 -2.86442e-08 0)
(4.9051e-08 -5.47531e-08 0)
(1.97963e-08 -6.29695e-08 0)
(5.95472e-09 -6.13233e-08 0)
(-7.75892e-09 -6.52355e-08 0)
(-3.62835e-08 -5.89506e-08 0)
)
;

boundaryField
{
    interface
    {
        type            calculated;
    }
    symmetry
    {
        type            symmetry;
    }
    bottom
    {
        type            calculated;
    }
}


// ************************************************************************* //
