/*--------------------------------*- C++ -*----------------------------------*\
| =========                 |                                                 |
| \\      /  F ield         | OpenFOAM: The Open Source CFD Toolbox           |
|  \\    /   O peration     | Version:  v1912                                 |
|   \\  /    A nd           | Website:  www.openfoam.com                      |
|    \\/     M anipulation  |                                                 |
\*---------------------------------------------------------------------------*/
FoamFile
{
    version     2.0;
    format      ascii;
    class       volSymmTensorField;
    location    "0.41/solid";
    object      sigma;
}
// * * * * * * * * * * * * * * * * * * * * * * * * * * * * * * * * * * * * * //

dimensions      [1 -1 -2 0 0 0 0];


internalField   nonuniform List<symmTensor> 
256
(
(-257855 16279.3 -6263.03 309887 17032.5 -277577)
(34140.4 -9614.91 -2441.93 196271 17171.8 -292239)
(35103 12220.2 2440.51 194430 17500.5 -288377)
(-238560 -14707.5 6377.76 306790 18241.9 -263221)
(-294065 -1785.24 -9043.7 64829.3 -1046.33 -311138)
(-50135.3 -4122.37 -3858.64 30360.5 1.61623 -335703)
(-48780.1 6313.52 3982.15 29006.9 243.762 -331604)
(-272840 2750 9261.87 66046.9 -185.497 -295739)
(-295974 -3062.05 -9591.31 70786.5 -2645.85 -312714)
(-56086.4 -2570.56 -4175.4 13418.9 -2398.52 -342118)
(-54771.6 4259.93 4359.27 12226.1 -2234.8 -337918)
(-274385 3759.95 9842.13 72533.7 -2049.51 -296999)
(-298056 -1484.99 -9855.38 87464.1 -1340.46 -316447)
(-49201.6 -1542.92 -4298.13 11539.1 -1358.46 -347942)
(-47884 2792.2 4489.79 10505.5 -1238.09 -343661)
(-276128 2010.27 10114.3 89617.1 -891.895 -300474)
(-308791 -51.177 -10036.8 94077.9 312.887 -328613)
(-46832.6 -658.156 -4386.37 10062.6 288.521 -361217)
(-45490 1542.26 4569.86 9105.58 389.037 -356880)
(-286579 425.328 10299.2 96486.4 683.22 -312444)
(-332663 1949.72 -10116.5 83115 2788.44 -352611)
(-55389.4 449.747 -4436.7 -1089.54 2826.79 -387370)
(-54071.6 79.5808 4617.26 -2027.5 2922.41 -383002)
(-310375 -1760.18 10387.2 85614.8 3123.56 -336300)
(-377227 6332.27 -9980.82 -12414.2 7314.48 -396569)
(-85393.6 2338.47 -4383.55 -85852.8 7625.41 -437538)
(-84157.7 -2283.84 4578.57 -86242.6 7724.39 -433100)
(-355237 -6421.51 10264.8 -8724.98 7631.6 -380010)
(-343721 9492.55 -9423.4 -364375 10833.3 -364288)
(-21456.2 4225.47 -4136.54 -412928 11445.7 -412737)
(-20045.1 -4290.45 4341.83 -408412 11534.8 -408206)
(-322286 -9687.8 9696.87 -347837 11088.3 -347769)
(-262897 10896.9 -4510.75 163124 -11637 22995.5)
(-29556.6 -10131.2 -968.06 47299.5 -3470.44 -34988.1)
(-29152.6 11513.3 1257.4 44589.1 -2658.33 -35617.2)
(-243759 -9793.89 4699.63 158811 -9115.33 25798.9)
(-302131 -2414.1 -6427.83 22107.7 -3360.44 -43147.4)
(-104871 -4346.62 -2064.38 -27650.3 604.727 -106154)
(-103865 5404.31 2574.56 -29717 1137.26 -106625)
(-280978 2878.36 6727.38 22089.4 -1597.79 -39326.1)
(-307777 -3148.03 -6552.12 14133.6 -2558.53 -46990.1)
(-117724 -2772.23 -2171.49 -57208.9 -1273 -119695)
(-116729 3517.08 2743.15 -58916.5 -887.497 -120266)
(-286222 3433.63 6877.31 14997.4 -1229.34 -43458)
(-312143 -1607.92 -6572.05 16523.9 -2095.5 -44043.1)
(-115689 -1752.66 -2119.5 -72118.2 -1695.04 -121507)
(-114691 2257.34 2682.88 -73649.8 -1388.58 -122144)
(-290198 1817.55 6898.95 17810.5 -1027.74 -40683.4)
(-324230 -145.191 -6643.82 16743.7 -79.6654 -44825.3)
(-115590 -856.131 -2136.12 -79715 78.2387 -124241)
(-114566 1155.12 2675.91 -81201.9 340.577 -124925)
(-301880 276.649 6970.09 18220.7 821.63 -41560.3)
(-350329 1972.12 -6652.06 6372.37 2993.69 -52944.7)
(-125388 302.282 -2156.34 -89780.4 3060.17 -133633)
(-124380 -227.67 2681.29 -91258 3290.67 -134382)
(-327689 -1971.22 6983.07 7933.89 3769.8 -49794.4)
(-400938 6584.92 -6494.2 -77412.3 5691.75 -78121.4)
(-157183 2280.55 -2119.09 -160844 5784.5 -161112)
(-156245 -2521.38 2615.92 -161711 5966.31 -161865)
(-378358 -6810.38 6820.44 -74526.7 6299.37 -74963.9)
(-377451 10021.5 -6197.92 -396653 7408.9 -12667.2)
(-85422.3 4435.03 -2095.72 -437659 7694.72 -85593.2)
(-84150 -4547.19 2438.57 -433192 7788.35 -85826.9)
(-355261 -10261 6446.12 -379955 7701.85 -8619.51)
(-226474 7505.91 -1932.35 127463 1788.47 71144.9)
(-24469.5 -11221.6 -37.2234 18327.2 8591.04 5098.34)
(-24023.4 11871.8 312.48 15803.5 9231.31 4263.36)
(-207378 -6719.78 2031.85 124260 3762.39 73856.9)
(-252833 -2516.25 -2503.73 32113.3 3788.02 36665)
(-75328.8 -4581.34 -371.932 -19777.7 7193.36 -37491.7)
(-74324.5 5055.63 838.469 -21858.2 7729.87 -38339.3)
(-231930 2750.09 2690.57 32129.9 5491.39 39912.8)
(-257448 -2960.46 -2289 32425.7 2396.04 30488)
(-85552.1 -2801.83 -305.947 -39061.6 3587.04 -53822)
(-84553.6 3071.47 793.711 -40823.5 4034 -54813.6)
(-236168 3056.63 2492.38 33109.2 3840.49 33287.7)
(-262018 -1593.42 -2142.78 35386.3 1264.39 31114.8)
(-84184 -1835.11 -195.371 -51702.8 1661.2 -58392.1)
(-83175.4 1966.55 651.645 -53295.6 2043.96 -59487.3)
(-240326 1655.4 2338.56 36455.8 2505.61 33613.3)
(-273957 -164.763 -2114.53 35690.8 1892.82 30437.9)
(-84507.9 -963.443 -172.374 -58772.2 2047.39 -61453.7)
(-83458.3 985.971 593.773 -60315.6 2382.34 -62630)
(-251778 189.53 2301.17 36969.2 2969.14 32744.9)
(-299754 2049.66 -2079.12 27369.4 3404.41 24068.7)
(-94114.9 248.602 -177.724 -66694.3 3450.23 -69297.3)
(-93060.3 -355.812 569.73 -68208.8 3736.45 -70558.3)
(-277116 -2116.83 2259.63 28803.5 4318.26 26220)
(-350370 6731.89 -1966.98 -51326.8 3692.9 4922.19)
(-124900 2286.7 -173.391 -132325 3702.34 -90391.1)
(-123884 -2615.33 498.908 -133197 3910.56 -91627.1)
(-327518 -6989.37 2125.94 -48457.5 4370.26 7160.95)
(-332926 10144.9 -1869.94 -352528 3180.99 83030.7)
(-54936.3 4469.12 -198.849 -387224 3174.62 -278.085)
(-53571.9 -4592.92 300.285 -382786 3254.51 -900.314)
(-310212 -10390.3 1934 -335950 3445.44 86363.6)
(-205553 6021.09 -713.948 112700 5824.66 70264.4)
(-23118.3 -11509.5 327.071 7780.72 9811.71 3601.53)
(-22661.6 11736.3 -76.3565 5544.88 10280.6 2928.68)
(-186633 -5468.8 781.765 110683 7267.79 73592.1)
(-226936 -2440.88 -816.122 29166.1 6848.29 48199.6)
(-65232.2 -4613.61 406.953 -23955.2 8914.69 -27652.1)
(-64248.8 4762.6 24.1986 -25851.5 9356.14 -28329.7)
(-206359 2544.2 954.386 29677.3 8218.48 51989.5)
(-230916 -2718.7 -573.838 34338.3 5456.24 42254.7)
(-73569.2 -2739.12 535.819 -37114.8 6222.25 -43321.6)
(-72583.7 2756.54 -92.6815 -38785.1 6623.73 -44145.6)
(-209982 2719.71 725.259 35211.9 6712.81 45563.8)
(-235650 -1494 -406.958 40642 3790.08 39985.6)
(-72386.4 -1825.62 637.791 -45329.1 4060.97 -50587.7)
(-71384.5 1769.08 -233.861 -46871.6 4423.81 -51528.7)
(-214294 1483.99 547.731 41779.5 4928.95 42940.4)
(-247674 -140.965 -349.95 42832.1 3056.54 37318.4)
(-73116.5 -997.77 663.902 -50205.7 3181.93 -55704.2)
(-72067.6 893.421 -302.5 -51709 3505.83 -56743.9)
(-225787 117.773 476.616 44150.6 4068.91 40026.5)
(-273430 2086.09 -329.73 35224.5 2809.18 30888.4)
(-82993 221.946 649.316 -57466 2873.95 -63722.9)
(-81928.6 -398.703 -330.792 -58938.3 3147.27 -64854.1)
(-250987 -2176.89 442.252 36718.7 3664.98 33424.5)
(-323658 6750.87 -301.325 -41941.3 1790.68 14954)
(-113368 2264.16 615.67 -121703 1823.76 -81560.4)
(-112322 -2620.07 -382.152 -122532 2014.63 -82646.6)
(-300823 -7013.13 383.635 -38983.5 2406.88 17634.9)
(-308286 10090.6 -288.318 -328029 1290.79 95933.9)
(-44269.2 4419.63 573.128 -360493 1240.36 11891.5)
(-42860.4 -4557.6 -561.567 -356037 1305.18 11455.2)
(-285349 -10339.7 278.592 -311422 1511.19 99795.5)
(-193493 5451.87 -283.307 105861 5728.88 66935.2)
(-22968.9 -11388.6 314.507 3284.66 7810.46 1254.25)
(-22522.3 11370.7 -112.734 1283.85 8144.94 708.371)
(-174709 -5054.78 337.694 104776 6750.57 70717.9)
(-213140 -2337.7 -269.361 26047.4 6537.32 48784.3)
(-62051.6 -4541.16 484.352 -27475.3 7651.07 -25588.4)
(-61114.9 4500.12 -125.05 -29200.9 7980.54 -26113.1)
(-192808 2361.5 382.595 27050.1 7547.54 53035.6)
(-216942 -2541.52 -102.556 32551.9 5842.63 43968.3)
(-69604.3 -2670.79 596.559 -38553.3 6276.31 -39550.8)
(-68661.1 2542.89 -221.042 -40130 6590.7 -40215.3)
(-196265 2489.04 228.248 33681.1 6813.47 47746.1)
(-221824 -1399.23 17.6771 40805.5 4467.3 40618.8)
(-68544 -1799.11 664.238 -44195.9 4637.61 -47626.7)
(-67579.4 1637.87 -322.207 -45691.4 4932.31 -48411.6)
(-200719 1350.28 98.7368 42067.5 5381.22 44025.7)
(-233937 -111.979 64.5617 44514 3222.52 36783)
(-69530.8 -1008.37 677.576 -47370.3 3329.63 -53869.7)
(-68516.4 836.958 -377.504 -48848 3597.31 -54760.5)
(-212278 63.9838 37.2269 45896.5 4052.38 39917.3)
(-259633 2090.71 68.8071 37362.5 2130.17 30331)
(-79586.5 199.669 655.257 -54245.7 2222.5 -61983.5)
(-78551.3 -411.418 -402.098 -55702.2 2447.85 -62968.2)
(-237365 -2192.61 16.1578 38901.7 2834 33284.5)
(-309403 6722.87 56.7825 -38632.1 819.134 15735.3)
(-109740 2234.29 609.817 -117532 897.115 -78563.7)
(-108712 -2606.63 -439.728 -118352 1051.93 -79494.4)
(-286638 -6987.67 -2.65276 -35632.4 1321.08 18856.3)
(-294683 10011.6 34.3135 -314050 577.222 96149.3)
(-41275.2 4367.56 557.32 -345723 562.809 14369)
(-39870.6 -4521.09 -575.227 -341259 613.797 14101.7)
(-271651 -10267.3 -59.2245 -297406 752.48 100481)
(-186236 5223.89 -142.564 102416 4481.05 65106.2)
(-23090.9 -11219.3 199.963 946.719 5532.7 59.366)
(-22650.7 11059.7 -55.3815 -883.251 5756.98 -402.834)
(-167513 -4922.72 183.468 101999 5159.01 69205.6)
(-205186 -2258.4 -121.884 24450.5 4967.2 48211.3)
(-60973.6 -4468.23 326.553 -29375.3 5545.01 -24955.2)
(-60072.3 4315.76 -61.4563 -30972.2 5769.91 -25377.6)
(-184985 2234.69 208.148 25847.3 5650.86 52800)
(-208974 -2436.23 -26.2768 31124 4687.62 44312.9)
(-68255.3 -2627.16 398.884 -39857.6 4926.32 -37591.7)
(-67345.5 2412.32 -115.662 -41358.6 5146.38 -38146.7)
(-188434 2352.15 123.625 32490.5 5362.9 48446.5)
(-213958 -1338.89 43.3445 40031.6 3784.42 40982.2)
(-67293.4 -1784.02 435.379 -44511.7 3893.88 -45483.5)
(-66359 1558.95 -174.952 -45968.8 4104.93 -46158.5)
(-192985 1266.7 47.7243 41427.3 4436.34 44744.5)
(-226118 -93.8029 70.8714 44470.8 2670.57 36828.3)
(-68428.4 -1016.66 437.61 -46860.5 2759.21 -52024.7)
(-67442.5 802.851 -210.858 -48321.6 2953.54 -52808.1)
(-204579 30.4666 8.28704 45925.2 3272.51 40307.7)
(-251734 2085.27 68.1881 37686.7 1542.1 30333.1)
(-78580.8 181.943 416.455 -53425 1636.42 -60251.8)
(-77571.2 -418.506 -230.074 -54877.3 1800.54 -61130.5)
(-229555 -2195.12 -3.85704 39266.5 2056.21 33625.5)
(-301117 6698.42 50.061 -37224.3 448.964 15997)
(-108610 2216.34 379.244 -115786 541.502 -76671.1)
(-107601 -2603.67 -260.024 -116608 653.899 -77493.5)
(-278378 -6966.99 -11.202 -34196.3 815.869 19461)
(-286490 9963.79 22.772 -305420 298.179 95420.7)
(-40391.8 4339.37 330.984 -336902 317.003 15333.4)
(-38996.9 -4506.91 -352.443 -332436 353.899 15180.7)
(-263380 -10226.7 -43.79 -288742 425.825 100105)
(-182013 5114.86 -77.8476 100664 2811.07 64275.7)
(-23199.4 -11110.1 100.767 -330.008 3311.3 -549.521)
(-22761.3 10872.8 -14.3341 -2049.57 3440.27 -960.004)
(-163311 -4868.42 103.14 100677 3197.59 68577.5)
(-200637 -2213.79 -70.3011 23750.3 3038.89 47836.1)
(-60543.9 -4425.27 167.348 -30354.5 3319.34 -24799.7)
(-59663.1 4211.11 -5.84012 -31866.7 3449.69 -25159)
(-180497 2163.64 124.179 25416 3432.7 52646.8)
(-204443 -2381.62 -23.6268 30370 2924.69 44472.3)
(-67736.6 -2606.12 204.626 -40661.8 3047.86 -36684.1)
(-66846.3 2341.56 -29.174 -42110.5 3177.06 -37170.7)
(-183969 2279.62 85.2458 31911.6 3319.77 48845.2)
(-209483 -1308 10.2008 39386.4 2429.04 41438.8)
(-66837.5 -1779.71 221.091 -45037.9 2494.21 -44205.4)
(-65920.7 1516.33 -58.1238 -46467 2619.76 -44810.7)
(-188572 1222.01 48.0534 40889.4 2816.36 45444.9)
(-221658 -85.7561 22.8845 44074.3 1718.67 37332)
(-68049 -1024.56 219.11 -47094.1 1778.84 -50705.6)
(-67079.6 783.365 -77.3012 -48543.3 1895.53 -51420.1)
(-200174 12.5812 27.841 45590.1 2080.42 41051.7)
(-247207 2080.23 19.4969 37531.5 957.028 30790.5)
(-78251.5 170.781 205.029 -53450.4 1025.21 -59033.1)
(-77256.7 -425.434 -89.8221 -54900.7 1124.2 -59844.1)
(-225065 -2196.08 21.3674 39145.8 1268.07 34318.3)
(-296324 6687.54 7.66117 -36584.3 268.124 16356.8)
(-108215 2210.34 182.687 -115097 338.292 -75615.9)
(-107217 -2609.86 -110.516 -115922 406.178 -76370.4)
(-273589 -6959.84 16.7159 -33534.7 490.876 20054.2)
(-281621 9945.36 -11.2521 -300287 158.231 95075.9)
(-40028.8 4329.96 149.736 -331787 182.972 15765.2)
(-38639.5 -4507.93 -164.199 -327319 205.288 15683.8)
(-258452 -10214.1 -1.49708 -283582 235.79 99997.8)
(-180051 5065.04 -25.7102 99919.8 954.979 63966.6)
(-23245.7 -11062.4 29.9759 -900.989 1104.45 -816.942)
(-22807.9 10790.9 -1.25052 -2566.54 1146.52 -1202.44)
(-161353 -4843.42 34.2289 100141 1080.49 68367.3)
(-198531 -2195.77 -24.7585 23492.6 1018.9 47698.2)
(-60364.8 -4407.73 49.8294 -30780.7 1103.69 -24784.6)
(-59493.2 4166.2 4.34138 -32250.9 1146.35 -25113.5)
(-178416 2133.87 43.0157 25293.4 1147.36 52619.1)
(-202350 -2359.11 -11.041 30064.4 985.41 44570.2)
(-67528.7 -2598.51 61.0337 -41036.7 1024.11 -36346.2)
(-66647.2 2311.28 -1.67755 -42458.6 1066.63 -36799.4)
(-181901 2249 32.0745 31697.5 1115.21 49063.5)
(-207413 -1295.67 -1.11994 39063.5 827.922 41738.6)
(-66658.3 -1779.54 65.618 -45359 850.049 -43641.4)
(-65749.4 1497.96 -10.1565 -46773.4 891.622 -44212.5)
(-186526 1203.15 21.125 40625.1 956.114 45868.7)
(-219591 -83.1486 2.3937 43810.5 588.867 37718.2)
(-67901 -1029.37 64.4171 -47339.6 610.284 -50064.9)
(-66939.1 774.398 -16.1015 -48782.2 649.104 -50745.4)
(-198127 5.02895 15.0635 45361.2 709.297 41560.8)
(-245101 2077.86 1.03849 37380.3 326.806 31151.7)
(-78125.2 165.711 59.5844 -53597.2 351.387 -58445.7)
(-77137 -430.109 -20.4807 -55046.3 384.411 -59223.3)
(-222972 -2197 12.9936 39014.7 430.755 34799.8)
(-294087 6684.77 -2.80396 -36329.3 94.1752 16613)
(-108060 2209.66 52.3085 -114867 119.803 -75162.9)
(-107067 -2616.01 -27.965 -115695 142.485 -75884.4)
(-271348 -6959.3 11.1628 -33267.4 168.798 20428.8)
(-279312 9941.02 -9.33808 -297873 51.4383 94995.1)
(-39851.5 4328.41 40.7219 -329417 61.8784 15935.5)
(-38464.7 -4511.94 -45.5979 -324948 69.3406 15888.7)
(-256111 -10213 5.14297 -281154 77.437 100037)
)
;

boundaryField
{
    interface
    {
        type            calculated;
        value           nonuniform List<symmTensor> 
192
(
(-51.1204 0.332733 3.2565 870506 17032.5 283043)
(-53.0468 0.167756 5.06441 619672 -1046.33 243704)
(-54.2577 -0.175644 5.5156 633907 -2645.85 250406)
(-55.0077 -0.580768 5.55666 664026 -1340.46 260115)
(-55.0743 -0.924839 5.41922 694125 312.887 271435)
(-55.826 -1.56964 5.21625 722745 2788.44 287019)
(-54.0708 -2.03729 4.75087 688425 7314.48 304270)
(-57.4685 -4.40859 4.37475 322068 10833.3 322155)
(-49.6903 0.224629 1.63317 688557 -11637 548429)
(-50.6397 0.0701072 2.71781 555893 -3360.44 490638)
(-51.3491 -0.247044 2.93095 558203 -2558.53 497079)
(-51.8687 -0.671156 2.89725 574886 -2095.5 514319)
(-51.7474 -1.0439 2.7602 599529 -79.6654 537960)
(-52.4559 -1.76419 2.58532 631699 2993.69 572382)
(-50.463 -2.28624 2.28431 618244 5691.75 617535)
(-54.0977 -4.79458 2.03465 304479 7408.9 688465)
(-52.4731 0.18956 1.30111 587878 1788.47 531560)
(-53.3227 0.0253919 2.14543 497273 3788.02 501825)
(-54.0324 -0.297541 2.30815 507022 2396.04 505085)
(-54.5559 -0.757058 2.27817 523870 1264.39 519599)
(-54.3271 -1.17564 2.16782 548076 1892.82 542823)
(-54.933 -1.98334 2.02551 581933 3404.41 578633)
(-52.4602 -2.58813 1.79952 574268 3692.9 630517)
(-55.8837 -5.27892 1.60022 287672 3180.99 723231)
(-52.6254 0.138484 0.813058 533832 5824.66 491397)
(-53.2797 -0.0440579 1.40671 453269 6848.29 472303)
(-53.8357 -0.370717 1.51425 467387 5456.24 475303)
(-54.2716 -0.84549 1.48161 487443 3790.08 486787)
(-53.9438 -1.28689 1.39389 513380 3056.54 507866)
(-54.4915 -2.13497 1.28598 547726 2809.18 543390)
(-51.8599 -2.77718 1.13724 541207 1790.68 598102)
(-55.263 -5.52215 1.00933 272636 1290.79 696599)
(-53.4441 0.115438 0.600521 503829 5728.88 464903)
(-54.0373 -0.0851576 1.03775 426414 6537.32 449151)
(-54.526 -0.423547 1.1177 441696 5842.63 453113)
(-54.9199 -0.915067 1.09354 463692 4467.3 463505)
(-54.5185 -1.37922 1.0287 491104 3222.52 483373)
(-54.9945 -2.26177 0.947836 525709 2130.17 518678)
(-52.1809 -2.93883 0.841465 519745 819.134 574112)
(-55.4629 -5.73466 0.747003 262508 577.222 672707)
(-53.6332 0.0966986 0.372693 486438 4481.05 449129)
(-54.1725 -0.118178 0.661114 410678 4967.2 434439)
(-54.6006 -0.465526 0.714077 426087 4687.62 439276)
(-54.9555 -0.967097 0.696531 448751 3784.42 449701)
(-54.5053 -1.44443 0.652342 476867 2670.57 469224)
(-54.9424 -2.34534 0.597989 511657 1542.1 504304)
(-52.045 -3.04106 0.530826 506207 448.964 559428)
(-55.2885 -5.86385 0.4721 256118 298.179 656959)
(-53.9002 0.08811 0.220183 476636 2811.07 440248)
(-54.4202 -0.136681 0.38947 401848 3038.89 425934)
(-54.8165 -0.491845 0.420919 417195 2924.69 431298)
(-55.1497 -1.00118 0.410734 439978 2429.04 442031)
(-54.6668 -1.48837 0.385048 468317 1718.67 461575)
(-55.0715 -2.40202 0.352777 503211 957.028 496469)
(-52.1064 -3.11106 0.314203 498145 268.124 551087)
(-55.305 -5.95331 0.278878 252320 158.231 647683)
(-53.9577 0.0823612 0.0660621 472181 954.979 436228)
(-54.4639 -0.147254 0.120505 397846 1018.9 422051)
(-54.8421 -0.505594 0.130685 413144 985.41 427650)
(-55.1636 -1.01784 0.12714 435914 827.922 438589)
(-54.6677 -1.50921 0.118787 464296 588.867 458203)
(-55.0583 -2.42781 0.108269 499228 326.806 492999)
(-52.0733 -3.143 0.0965032 494358 94.1752 547300)
(-55.2496 -5.99358 0.0852528 250536 51.4383 643405)
(337945 16279.3 -4.76961 905687 -0.944758 -20.6482)
(294399 -1785.24 -7.73234 653294 -0.970169 -15.8755)
(300962 -3062.05 -8.55522 667722 -0.6878 -12.6568)
(313222 -1484.99 -8.73019 698742 -0.472706 -11.8319)
(326751 -51.177 -8.71611 729620 -0.394673 -12.1819)
(342878 1949.72 -8.70921 758656 -0.447518 -13.4224)
(360448 6332.27 -8.7045 725261 -0.549875 -15.818)
(382009 9492.55 -9.30847 361355 -0.76531 -17.9635)
(619512 -9614.91 -3.12386 781642 -0.523309 -26.3144)
(544059 -4122.37 -5.6252 624555 -0.631506 -25.2404)
(548944 -2570.56 -6.24166 618449 -0.424055 -24.3116)
(570917 -1542.92 -6.33307 631658 -0.209461 -24.1463)
(598345 -658.156 -6.32444 655240 -0.0830441 -24.3201)
(632607 449.747 -6.37559 686907 -0.0260543 -24.8061)
(673692 2338.47 -6.54133 673233 -0.0357426 -25.5928)
(742532 4225.47 -7.38177 351060 -0.11793 -26.1772)
(613163 12220.2 -3.29317 772490 -0.334254 -23.1684)
(537699 6313.52 -5.92839 615486 -0.418792 -22.3566)
(542237 4259.93 -6.61629 609235 -0.254481 -21.5277)
(564028 2792.2 -6.72605 622417 -0.0405735 -21.3479)
(591367 1542.26 -6.69929 645962 0.116124 -21.5397)
(625517 79.5808 -6.69841 677561 0.246785 -21.9956)
(666381 -2283.84 -6.77525 664296 0.328998 -22.8578)
(735474 -4290.45 -7.53314 347107 0.339752 -23.8082)
(333151 -14707.5 -3.85782 878501 -0.249406 -23.7959)
(290271 2750 -6.96374 629158 -0.296593 -23.2993)
(296328 3759.95 -7.81856 643247 -0.139036 -22.6435)
(308370 2010.27 -7.96997 674114 0.0827553 -22.5453)
(321813 425.328 -7.92668 704879 0.250092 -22.7397)
(337711 -1760.18 -7.90798 733700 0.420502 -23.0468)
(354526 -6421.51 -7.87773 701039 0.55611 -23.629)
(376055 -9687.8 -8.63094 350503 0.705057 -24.2886)
(-10.7673 0.939392 1.48545 834897 18241.9 264886)
(-6.71375 0.825672 2.60758 586351 -185.497 224564)
(-4.1253 0.251935 2.86715 600417 -2049.51 230884)
(-3.13094 -0.321286 2.91289 630322 -891.895 240231)
(-3.22467 -0.632024 2.89673 660210 683.22 251279)
(-2.264 -1.10558 3.01647 688773 3123.56 266859)
(-3.83666 -1.0988 3.02623 656151 7631.6 284867)
(5.29535 -3.41835 3.47543 304103 11088.3 304171)
(-17.6 0.348887 0.0231592 651166 -9115.33 518154)
(-16.7432 0.267219 0.398867 520999 -1597.79 459583)
(-16.0837 -0.0595808 0.408896 523427 -1229.34 464972)
(-15.5767 -0.434704 0.389992 539788 -1027.74 481294)
(-15.593 -0.59324 0.411835 563905 821.63 504124)
(-13.97 -0.955056 0.588359 595599 3769.8 537871)
(-14.4624 -0.697886 0.773793 583503 6299.37 583066)
(-3.77003 -2.979 1.18888 284924 7701.85 656260)
(-17.6771 0.18189 0.256116 552016 3762.39 501613)
(-17.024 0.0680844 0.710416 462954 5491.39 470737)
(-16.4552 -0.164699 0.812345 472612 3840.49 472791)
(-15.8274 -0.466458 0.834709 489053 2505.61 486211)
(-15.7102 -0.550598 0.859264 512612 2969.14 508388)
(-13.6589 -0.867237 0.974239 545784 4318.26 543201)
(-13.8457 -0.505295 1.06474 539132 4370.26 594750)
(-2.01276 -2.96737 1.24591 267130 3445.44 689444)
(-19.4764 0.0797042 0.120375 499739 7267.79 462648)
(-19.1227 -0.0574204 0.486135 420119 8218.48 442432)
(-18.7989 -0.233918 0.579689 433854 6712.81 444206)
(-18.163 -0.474116 0.601925 453358 4928.95 454518)
(-17.9369 -0.487572 0.621119 478543 4068.91 474419)
(-15.4985 -0.753646 0.702145 512062 3664.98 508768)
(-15.2806 -0.311283 0.760534 506286 2406.88 562905)
(-2.64055 -2.84854 0.865769 251807 1511.19 663025)
(-19.6991 0.0629114 0.185482 471090 6750.57 437032)
(-19.3512 -0.0864934 0.501263 394240 7547.54 420225)
(-19.0257 -0.249429 0.594167 408912 6813.47 422977)
(-18.315 -0.472308 0.61849 430208 5381.22 432166)
(-18.0103 -0.45777 0.629551 456765 4052.38 450785)
(-15.3648 -0.708497 0.671971 490431 2834 484814)
(-15.0011 -0.237236 0.68756 485030 1321.08 539519)
(-1.90597 -2.86204 0.71991 241582 752.48 639468)
(-20.2108 0.0555415 0.119009 454604 5159.01 421810)
(-19.8807 -0.0992245 0.338818 379172 5650.86 406125)
(-19.5631 -0.255356 0.406921 393819 5362.9 409775)
(-18.8053 -0.467891 0.424979 415668 4436.34 418986)
(-18.4373 -0.433725 0.432461 442839 3272.51 437222)
(-15.6278 -0.672606 0.458431 476605 2056.21 470964)
(-15.1264 -0.18137 0.465727 471600 815.869 525258)
(-1.69693 -2.85798 0.481455 235114 425.825 623961)
(-20.3169 0.0570045 0.0879247 445352 3197.59 413253)
(-19.9761 -0.100226 0.222169 370755 3432.7 397986)
(-19.6439 -0.255139 0.264454 385249 3319.77 402182)
(-18.8495 -0.465231 0.275582 407143 2816.36 411699)
(-18.4446 -0.423088 0.279473 434476 2080.42 429938)
(-15.5476 -0.65831 0.291383 468287 1268.07 463460)
(-14.986 -0.159083 0.292168 463595 490.876 517183)
(-1.36298 -2.87278 0.294337 231263 235.79 614843)
(-20.439 0.0563909 0.0234848 441156 1080.49 409383)
(-20.099 -0.101529 0.066632 366949 1147.36 394274)
(-19.7617 -0.255147 0.0805413 381351 1115.21 398717)
(-18.9507 -0.463337 0.0841792 403197 956.114 408441)
(-18.5237 -0.416958 0.0857784 430542 709.297 426742)
(-15.582 -0.649394 0.0898385 464363 430.755 460148)
(-14.9777 -0.146307 0.0910547 459830 168.798 513526)
(-1.26451 -2.87657 0.0918922 229451 77.437 610642)
(382257 9.35606 -9423.4 -17.6379 -0.693108 361690)
(360636 8.76986 -6197.92 -15.312 -0.475914 725420)
(343189 8.80293 -1869.94 -12.5573 -0.341779 759146)
(327970 8.85303 -288.318 -10.7709 -0.222569 732190)
(317128 8.94974 34.3135 -9.40424 -0.167756 707960)
(309961 9.00903 22.772 -8.43972 -0.104133 691872)
(305666 9.05768 -11.2521 -7.8313 -0.0647287 682364)
(303666 9.07902 -9.33808 -7.53671 -0.0193191 677974)
(742782 7.41207 -4136.54 -25.9027 -0.0326071 351501)
(674010 6.57508 -2095.72 -25.2121 0.0514109 673839)
(633474 6.41332 -198.849 -24.1939 0.0955084 688132)
(601355 6.3623 573.128 -23.4222 0.0989992 657516)
(579149 6.37259 557.32 -22.7785 0.0796573 634793)
(564631 6.37588 330.984 -22.303 0.0613149 620357)
(555962 6.38757 149.736 -21.9941 0.0357951 611756)
(551930 6.39164 40.7219 -21.8306 0.0133346 607717)
(735693 7.56165 4341.83 -23.5413 0.433166 347532)
(666647 6.80042 2438.57 -22.4787 0.424933 664970)
(626272 6.72414 300.285 -21.3836 0.377209 678943)
(594198 6.72843 -561.567 -20.6364 0.301346 648513)
(571978 6.77137 -575.227 -19.9771 0.232271 625950)
(557443 6.79441 -352.443 -19.5338 0.161945 611620)
(548762 6.8171 -164.199 -19.2283 0.0956448 603085)
(544724 6.82561 -45.5979 -19.087 0.0316404 599078)
(376165 8.6422 9696.87 -24.0447 0.80004 350682)
(354614 7.88394 6446.12 -23.29 0.653802 701255)
(337937 7.91324 1934 -22.5268 0.547909 734512)
(322961 7.9417 278.592 -22.0148 0.423632 708106)
(312177 8.02074 -59.2245 -21.4965 0.327193 684309)
(305050 8.06184 -43.79 -21.1795 0.224643 668534)
(300782 8.09946 -1.49708 -20.9407 0.134627 659232)
(298797 8.11455 5.14297 -20.8319 0.0439557 654944)
)
;
    }
    symmetry
    {
        type            symmetry;
    }
    bottom
    {
        type            calculated;
        value           nonuniform List<symmTensor> 
32
(
(-751611 55985.9 -6263.03 18143.1 53601.7 -771333)
(-504780 40570.6 -4510.75 17779.9 -18682.1 -218888)
(-431079 30805.2 -1932.35 -2921.91 -3637.33 -133460)
(-396741 26388.1 -713.948 -8541.36 3248.47 -120924)
(-377711 24535.5 -283.307 -10403 4546.09 -117284)
(-366651 23688.3 -142.564 -11422.2 3926.18 -115309)
(-360361 23256.4 -77.8476 -11942.7 2561.78 -114072)
(-357473 23062.5 -25.7102 -12145.9 883.339 -113456)
(-230263 -10442.6 -2441.93 40293.4 49156.8 -556642)
(-71467.3 -12114.6 -968.06 24134.6 -9417.4 -76898.8)
(-46927.1 -14127.3 -37.2234 2229.4 4524.4 -17359.3)
(-41939.7 -14681.2 327.071 -3529.53 8017.12 -15219.9)
(-40458.1 -14557.5 314.507 -5822.99 6998 -16234.9)
(-40122.8 -14339.2 199.963 -7545.27 5142.82 -16972.6)
(-40062.8 -14194.8 100.767 -8671.75 3132.09 -17412.9)
(-40045 -14131 29.9759 -9201.14 1052.44 -17616.3)
(-227595 12367.5 2440.51 39894.8 49450.6 -551075)
(-71197.8 12641 1257.4 21179.5 -8465.24 -77662.4)
(-46676.2 13890.3 312.48 -507.293 5254.06 -18389.4)
(-41678.2 14067.7 -76.3565 -5951.24 8541.97 -16087.9)
(-40211.9 13755.9 -112.734 -8004 7369.52 -16981.3)
(-39887.6 13441.2 -55.3815 -9553.23 5391.17 -17639.8)
(-39832.4 13249.5 -14.3341 -10568 3274.7 -18031.2)
(-39816.4 13166.6 -1.25052 -11042.8 1098.93 -18210.9)
(-725481 -54353 6377.76 19156 54949 -750142)
(-483862 -39387.9 4699.63 13139.1 -15735.8 -214304)
(-410141 -29994.8 2031.85 -5812.17 -1408.99 -128906)
(-375927 -25864.6 781.765 -9860.5 4853.23 -115703)
(-357043 -24196 337.694 -10589.3 5674.92 -111617)
(-346057 -23457.1 183.468 -10818.5 4673.01 -109338)
(-339797 -23084.8 103.14 -10841.5 2986.94 -107909)
(-336918 -22917.2 34.2289 -10805.2 1021.31 -107198)
)
;
    }
}


// ************************************************************************* //
