/*--------------------------------*- C++ -*----------------------------------*\
| =========                 |                                                 |
| \\      /  F ield         | OpenFOAM: The Open Source CFD Toolbox           |
|  \\    /   O peration     | Version:  v1912                                 |
|   \\  /    A nd           | Website:  www.openfoam.com                      |
|    \\/     M anipulation  |                                                 |
\*---------------------------------------------------------------------------*/
FoamFile
{
    version     2.0;
    format      ascii;
    class       volScalarField;
    location    "0.41/solid";
    object      sigmaEq;
}
// * * * * * * * * * * * * * * * * * * * * * * * * * * * * * * * * * * * * * //

dimensions      [1 -1 -2 0 0 0 0];


internalField   nonuniform List<scalar> 
256
(
579396
432326
427724
559672
368079
333333
328949
351296
375843
326520
322114
359242
395420
333390
329017
378930
413502
346440
342075
397035
426503
362311
357927
410010
375630
352268
348275
360393
36243.6
392012
388921
39795.3
377167
81857.7
79874.6
356106
297331
78321.9
76299
277808
296419
61865
60177.5
276991
303207
47085.7
45699.6
283602
314949
41087.1
39898.9
295043
331311
40887.3
39782
311129
323719
11996.3
13309.3
304268
375529
352506
348582
360484
329696
45161.9
44028.6
309837
287389
51325.3
49169.9
268287
289012
41898.1
39689.7
269536
295336
30016.5
27776.6
275451
307095
24818.5
22547.3
286732
325579
26893.8
24656.9
304775
331059
39485.9
38662.4
310977
426506
362843
358597
410503
299654
39110.3
38196.5
281060
266431
43216.1
41424.6
248399
269509
35786.8
33828.2
250848
276056
26041.5
24014
256813
287838
21537.1
19413
267993
306570
23606.1
21402.5
286169
314287
37051.1
36346.5
294544
414819
347814
343669
399232
282247
34820.6
33768.3
264512
251617
38762.2
37127.5
234338
255632
32784.6
31007.3
237624
262662
24425.9
22545.2
243961
274724
20663.7
18624.3
255334
293589
22851.2
20683.9
273572
301880
35973.7
35391.1
282491
401243
335834
331781
386067
272184
32044.3
30836.6
255003
242576
36195.4
34593.1
225766
247126
31143.2
29428.8
229544
254561
23524.8
21676.3
236224
266890
20173.7
18116
247808
285851
22723.1
20557.6
266096
294367
36288.2
35785.6
275234
392099
328030
324039
377223
266546
30352.3
29032.6
249695
237438
34667.5
33060.3
220904
242261
30082.1
28375.8
224934
249947
22855.6
20997.8
231834
262443
19729.6
17640.4
243553
281456
22609.1
20446.8
261867
290091
36735.5
36287.6
271124
386752
323374
319421
372074
263989
29528.9
28150.7
247293
235101
33919.2
32303.9
218697
240037
29521.2
27810.8
222832
247839
22469.4
20600
229833
260410
19454.4
17347.8
241613
279443
22509.3
20351.3
259934
288136
36975.8
36557.2
269250
384310
321202
317269
369730
)
;

boundaryField
{
    interface
    {
        type            calculated;
        value           nonuniform List<scalar> 
192
(
769697
540756
553061
579589
605913
630379
597709
322715
630657
526391
530359
547186
571290
604302
618019
597734
561900
499661
506127
521807
545533
580375
604445
630755
514082
463284
471543
487214
510727
545647
571842
608047
485692
438425
447683
463718
487371
522297
549005
587288
469016
423201
432963
449330
473169
508082
534860
573571
459604
414504
424507
441083
465047
499932
526668
565495
455327
410542
420643
437315
461336
496198
522895
561775
793236
566709
579234
606222
633025
658046
628207
372493
714729
588519
586833
603614
628751
661456
673501
643433
706773
580640
578721
595415
620496
653118
665375
637337
768608
545449
557699
584534
611230
636097
607253
364363
739645
512414
524592
550998
577170
601538
570041
304737
596126
493192
496806
513067
536536
568987
583401
570137
528678
467008
472765
487673
510555
544562
569047
602128
482448
431962
439295
454038
476564
510478
536871
579710
455188
408083
416310
431310
453877
487687
514464
559286
439238
393483
402161
417426
440112
473839
500608
545807
430258
385159
394050
409488
432258
465913
492596
537890
426183
381372
390349
405867
428675
462286
488909
534247
372774
628341
658464
635249
614225
600265
592017
588210
643638
673959
662520
631336
608905
594479
585877
581855
637517
665846
654221
623155
600806
586431
577861
573854
364504
607441
636810
614044
593405
579722
571656
567940
)
;
    }
    symmetry
    {
        type            symmetry;
    }
    bottom
    {
        type            calculated;
        value           nonuniform List<scalar> 
32
(
791348
459840
383882
349033
330074
319071
312865
310044
524997
101969
49973.3
44751.9
41597.6
39234.6
37700.8
36945.7
520125
99356.2
47829.6
42774.2
39489.8
37006.3
35390.9
34594.1
769089
437223
362741
329457
311591
301297
295514
292891
)
;
    }
}


// ************************************************************************* //
