/*--------------------------------*- C++ -*----------------------------------*\
| =========                 |                                                 |
| \\      /  F ield         | OpenFOAM: The Open Source CFD Toolbox           |
|  \\    /   O peration     | Version:  v1912                                 |
|   \\  /    A nd           | Website:  www.openfoam.com                      |
|    \\/     M anipulation  |                                                 |
\*---------------------------------------------------------------------------*/
FoamFile
{
    version     2.0;
    format      ascii;
    class       volScalarField;
    location    "0.41/solid";
    object      sigmaHyd;
}
// * * * * * * * * * * * * * * * * * * * * * * * * * * * * * * * * * * * * * //

dimensions      [1 -1 -2 0 0 0 0];


internalField   nonuniform List<scalar> 
256
(
-720447
-366332
-363435
-701383
-940398
-530213
-526617
-917852
-953998
-547864
-544080
-930582
-962952
-554581
-550652
-938858
-988478
-569282
-565263
-963911
-1.0446e+06
-605592
-601546
-1.01987e+06
-1.20384e+06
-733773
-729412
-1.17867e+06
-1.78557e+06
-1.27545e+06
-1.26699e+06
-1.7501e+06
-339880
-61718.4
-62748.9
-330642
-482812
-149471
-150092
-471197
-496226
-169555
-170081
-484078
-502416
-175309
-175777
-489800
-517358
-180243
-180683
-504324
-553322
-194989
-195431
-540015
-678413
-281516
-281621
-664402
-1.20415e+06
-733796
-729341
-1.17864e+06
-269559
-27575.6
-28728.1
-260368
-372053
-78415.4
-79331.1
-361167
-382119
-94432.3
-95285.3
-370847
-388373
-100171
-100981
-376672
-402386
-104526
-105310
-390232
-435673
-116679
-117453
-423101
-553341
-194600
-194995
-539764
-1.04491e+06
-605223
-600997
-1.01947e+06
-251178
-28366.8
-29386.2
-241644
-341305
-69702.1
-70532.2
-330418
-349256
-82769
-83565.9
-338103
-355350
-87972.1
-88741.5
-343820
-369369
-92382.7
-93134.1
-357385
-402296
-104345
-105083
-389826
-516950
-179284
-179623
-503303
-987894
-567745
-563432
-962102
-242083
-29918.6
-30834.3
-232300
-327891
-68305.9
-69060.8
-316969
-334893
-79839.7
-80583.7
-323788
-340748
-84497
-85228.3
-329311
-354689
-88801.6
-89523.4
-342812
-387398
-100695
-101404
-375010
-500264
-174177
-174479
-486612
-958837
-550557
-546188
-932859
-236587
-30798.5
-31641
-226608
-320476
-67965.5
-68667.1
-309490
-327082
-78765.6
-79471.2
-315965
-332758
-83066.3
-83770.5
-321341
-346587
-87245.8
-87947.8
-334747
-379116
-99088.2
-99780.8
-366758
-490879
-171801
-172085
-477213
-941765
-540999
-536599
-915665
-233345
-31280.9
-32076
-223231
-316272
-67880.5
-68547.2
-305227
-322711
-78340.6
-79020.1
-311564
-328279
-82447.1
-83132.4
-316851
-342019
-86541.7
-87229.9
-330181
-374425
-98354.9
-99036.6
-362068
-485546
-170659
-170932
-471860
-931858
-535647
-531229
-905678
-231828
-31494.9
-32266.7
-221645
-314331
-67862.1
-68511.4
-303252
-320707
-78187.5
-78853.6
-309539
-326225
-82210.8
-82886
-314786
-339919
-86265.3
-86946.1
-328075
-372264
-98066
-98742
-359903
-483088
-170189
-170456
-469389
-927249
-533203
-528776
-901027
)
;

boundaryField
{
    interface
    {
        type            zeroGradient;
    }
    symmetry
    {
        type            symmetry;
    }
    bottom
    {
        type            zeroGradient;
    }
}


// ************************************************************************* //
