/*--------------------------------*- C++ -*----------------------------------*\
| =========                 |                                                 |
| \\      /  F ield         | OpenFOAM: The Open Source CFD Toolbox           |
|  \\    /   O peration     | Version:  v1912                                 |
|   \\  /    A nd           | Website:  www.openfoam.com                      |
|    \\/     M anipulation  |                                                 |
\*---------------------------------------------------------------------------*/
FoamFile
{
    version     2.0;
    format      ascii;
    class       volVectorField;
    location    "0.41/solid";
    object      U;
}
// * * * * * * * * * * * * * * * * * * * * * * * * * * * * * * * * * * * * * //

dimensions      [0 1 -1 0 0 0 0];


internalField   nonuniform List<vector> 
256
(
(3.86101e-08 3.68658e-08 4.29188e-08)
(7.78664e-09 2.002e-08 3.69542e-08)
(-8.75284e-09 1.95963e-08 3.65064e-08)
(-3.79833e-08 3.51481e-08 4.14571e-08)
(6.52724e-08 2.41947e-08 9.16059e-08)
(1.57039e-08 1.22543e-08 8.35453e-08)
(-1.74982e-08 1.2028e-08 8.27068e-08)
(-6.49505e-08 2.35916e-08 8.89316e-08)
(6.84512e-08 -2.87479e-09 1.24063e-07)
(1.66293e-08 -7.57741e-09 1.15591e-07)
(-1.93753e-08 -7.45937e-09 1.14554e-07)
(-6.9081e-08 -2.32095e-09 1.2078e-07)
(6.58854e-08 -3.08462e-08 1.52203e-07)
(1.48776e-08 -3.35966e-08 1.42679e-07)
(-1.89957e-08 -3.31393e-08 1.41506e-07)
(-6.78761e-08 -2.93069e-08 1.48504e-07)
(6.54828e-08 -6.05487e-08 1.81063e-07)
(1.37823e-08 -6.55017e-08 1.69907e-07)
(-1.9701e-08 -6.47365e-08 1.68622e-07)
(-6.92446e-08 -5.81294e-08 1.77021e-07)
(7.33034e-08 -9.59313e-08 2.14006e-07)
(1.59933e-08 -1.04213e-07 2.01073e-07)
(-2.4144e-08 -1.03163e-07 1.9968e-07)
(-7.92642e-08 -9.26918e-08 2.09651e-07)
(9.62797e-08 -1.4911e-07 2.53547e-07)
(2.34026e-08 -1.54592e-07 2.39957e-07)
(-3.42951e-08 -1.53252e-07 2.38442e-07)
(-1.04847e-07 -1.4502e-07 2.48857e-07)
(1.30059e-07 -2.399e-07 2.91879e-07)
(3.16337e-08 -2.28236e-07 2.80488e-07)
(-4.59696e-08 -2.26372e-07 2.78824e-07)
(-1.41601e-07 -2.3421e-07 2.86814e-07)
(2.01663e-08 1.09299e-08 1.45066e-08)
(3.72248e-09 -9.74135e-10 1.75892e-08)
(-4.10074e-09 -1.12752e-09 1.74066e-08)
(-1.92553e-08 9.88132e-09 1.39481e-08)
(3.52432e-08 -4.76656e-09 4.77831e-08)
(8.12878e-09 -1.35234e-08 5.37112e-08)
(-8.64693e-09 -1.35575e-08 5.32229e-08)
(-3.41171e-08 -4.96205e-09 4.63439e-08)
(3.63272e-08 -2.79619e-08 7.8084e-08)
(8.37263e-09 -3.14968e-08 8.48693e-08)
(-9.40049e-09 -3.12825e-08 8.41913e-08)
(-3.57559e-08 -2.7244e-08 7.60844e-08)
(3.33932e-08 -5.35752e-08 1.05429e-07)
(6.70855e-09 -5.58574e-08 1.12118e-07)
(-8.78353e-09 -5.53558e-08 1.11314e-07)
(-3.38754e-08 -5.19909e-08 1.03039e-07)
(3.23596e-08 -8.16923e-08 1.32469e-07)
(5.64605e-09 -8.63383e-08 1.38705e-07)
(-9.26304e-09 -8.55548e-08 1.37795e-07)
(-3.43564e-08 -7.92861e-08 1.29749e-07)
(3.91735e-08 -1.13372e-07 1.60787e-07)
(7.73136e-09 -1.21528e-07 1.66559e-07)
(-1.33608e-08 -1.20477e-07 1.65549e-07)
(-4.31375e-08 -1.10186e-07 1.57753e-07)
(6.14382e-08 -1.54683e-07 1.87753e-07)
(1.49916e-08 -1.59973e-07 1.93386e-07)
(-2.3162e-08 -1.58666e-07 1.92277e-07)
(-6.77807e-08 -1.50723e-07 1.8442e-07)
(9.60067e-08 -2.20374e-07 2.01076e-07)
(2.31278e-08 -2.06517e-07 2.06896e-07)
(-3.45478e-08 -2.04779e-07 2.05734e-07)
(-1.05083e-07 -2.15001e-07 1.97568e-07)
(8.21996e-09 1.95198e-09 7.41874e-09)
(2.33993e-10 -6.15036e-09 1.17807e-08)
(-3.86166e-10 -6.26524e-09 1.16507e-08)
(-7.15958e-09 9.38445e-10 7.04588e-09)
(1.44827e-08 -1.89518e-08 3.14271e-08)
(1.27368e-09 -2.49077e-08 3.93703e-08)
(-1.15269e-09 -2.49095e-08 3.9019e-08)
(-1.28459e-08 -1.91608e-08 3.04327e-08)
(1.38918e-08 -4.28775e-08 5.7786e-08)
(7.86556e-10 -4.53853e-08 6.67167e-08)
(-8.10701e-10 -4.51692e-08 6.62053e-08)
(-1.24661e-08 -4.22461e-08 5.63232e-08)
(1.10391e-08 -6.69289e-08 8.32682e-08)
(-7.77349e-10 -6.90287e-08 9.22627e-08)
(1.5268e-11 -6.85524e-08 9.16335e-08)
(-1.03694e-08 -6.54878e-08 8.14439e-08)
(1.00657e-08 -9.14138e-08 1.07619e-07)
(-1.75133e-09 -9.60999e-08 1.16441e-07)
(-2.93391e-10 -9.53602e-08 1.15713e-07)
(-1.06531e-08 -8.91876e-08 1.05485e-07)
(1.67401e-08 -1.16286e-07 1.30002e-07)
(2.68936e-10 -1.24495e-07 1.38667e-07)
(-4.10588e-09 -1.23504e-07 1.37849e-07)
(-1.90648e-08 -1.13315e-07 1.27585e-07)
(3.87034e-08 -1.46594e-07 1.46127e-07)
(7.35855e-09 -1.52009e-07 1.54745e-07)
(-1.35465e-08 -1.50783e-07 1.53854e-07)
(-4.31928e-08 -1.42888e-07 1.43472e-07)
(7.25625e-08 -1.99668e-07 1.47873e-07)
(1.53278e-08 -1.86452e-07 1.56613e-07)
(-2.45979e-08 -1.84811e-07 1.55701e-07)
(-7.95862e-08 -1.94554e-07 1.4512e-07)
(3.65111e-09 -1.00964e-09 6.36895e-09)
(-1.09005e-09 -7.01181e-09 9.11764e-09)
(1.03429e-09 -7.13914e-09 9.02024e-09)
(-2.49194e-09 -2.09523e-09 6.09679e-09)
(6.16248e-09 -2.42465e-08 2.51137e-08)
(-1.55895e-09 -2.86286e-08 3.00932e-08)
(2.01798e-09 -2.86634e-08 2.98377e-08)
(-4.19226e-09 -2.46042e-08 2.44017e-08)
(4.92394e-09 -4.91797e-08 4.65922e-08)
(-2.34753e-09 -5.1145e-08 5.21345e-08)
(2.92911e-09 -5.09752e-08 5.17567e-08)
(-2.90673e-09 -4.87336e-08 4.55242e-08)
(2.50595e-09 -7.21391e-08 6.81277e-08)
(-3.70118e-09 -7.42507e-08 7.36218e-08)
(3.80431e-09 -7.38318e-08 7.31456e-08)
(-9.92253e-10 -7.0907e-08 6.67596e-08)
(2.10553e-09 -9.32569e-08 8.81122e-08)
(-4.42145e-09 -9.80963e-08 9.34046e-08)
(3.4756e-09 -9.7423e-08 9.28435e-08)
(-1.61739e-09 -9.12563e-08 8.64789e-08)
(9.15929e-09 -1.12853e-07 1.04552e-07)
(-2.28494e-09 -1.21192e-07 1.09677e-07)
(-2.49886e-10 -1.20276e-07 1.09042e-07)
(-1.02e-08 -1.1012e-07 1.02682e-07)
(3.09016e-08 -1.37314e-07 1.13978e-07)
(4.67551e-09 -1.43132e-07 1.19074e-07)
(-9.38889e-09 -1.41983e-07 1.18384e-07)
(-3.39203e-08 -1.33846e-07 1.11922e-07)
(6.3694e-08 -1.85818e-07 1.12649e-07)
(1.24451e-08 -1.7428e-07 1.1804e-07)
(-2.00974e-08 -1.72707e-07 1.17338e-07)
(-6.90825e-08 -1.80899e-07 1.10525e-07)
(2.43093e-09 -2.01267e-09 5.61657e-09)
(-1.2657e-09 -7.08867e-09 6.94667e-09)
(1.26076e-09 -7.23045e-09 6.87681e-09)
(-1.20764e-09 -3.15963e-09 5.42391e-09)
(4.07832e-09 -2.55594e-08 2.01902e-08)
(-2.01138e-09 -2.93066e-08 2.25112e-08)
(2.66974e-09 -2.93825e-08 2.23303e-08)
(-1.89488e-09 -2.60626e-08 1.96913e-08)
(2.93424e-09 -5.04887e-08 3.6629e-08)
(-2.7511e-09 -5.23149e-08 3.91143e-08)
(3.71762e-09 -5.21996e-08 3.88453e-08)
(-5.244e-10 -5.02273e-08 3.58753e-08)
(1.0449e-09 -7.24404e-08 5.31882e-08)
(-3.85727e-09 -7.46822e-08 5.55322e-08)
(4.54328e-09 -7.43244e-08 5.51884e-08)
(1.0544e-09 -7.14102e-08 5.22077e-08)
(1.2539e-09 -9.13188e-08 6.81648e-08)
(-4.30715e-09 -9.63346e-08 7.02981e-08)
(4.13435e-09 -9.57259e-08 6.98878e-08)
(8.13719e-12 -8.95269e-08 6.69769e-08)
(8.6929e-09 -1.08078e-07 7.96078e-08)
(-2.02316e-09 -1.16549e-07 8.15887e-08)
(4.32238e-10 -1.15698e-07 8.11206e-08)
(-8.78664e-09 -1.05552e-07 7.82356e-08)
(3.01985e-08 -1.30225e-07 8.52846e-08)
(4.84097e-09 -1.36408e-07 8.72667e-08)
(-8.4646e-09 -1.3532e-07 8.67573e-08)
(-3.21164e-08 -1.26951e-07 8.37708e-08)
(6.21213e-08 -1.76957e-07 8.3699e-08)
(1.24586e-08 -1.66821e-07 8.59765e-08)
(-1.89018e-08 -1.653e-07 8.54591e-08)
(-6.62756e-08 -1.72194e-07 8.21354e-08)
(2.24137e-09 -2.30564e-09 4.39039e-09)
(-1.13834e-09 -7.01616e-09 4.96818e-09)
(1.16211e-09 -7.16826e-09 4.92152e-09)
(-9.78023e-10 -3.49431e-09 4.26249e-09)
(3.99421e-09 -2.53718e-08 1.49023e-08)
(-1.7526e-09 -2.89484e-08 1.58227e-08)
(2.53174e-09 -2.90563e-08 1.57024e-08)
(-1.67718e-09 -2.5982e-08 1.4573e-08)
(3.19705e-09 -4.96983e-08 2.64334e-08)
(-2.32385e-09 -5.15793e-08 2.73257e-08)
(3.53373e-09 -5.15085e-08 2.71463e-08)
(-5.3512e-10 -4.95807e-08 2.59344e-08)
(1.76337e-09 -7.07521e-08 3.7926e-08)
(-3.21737e-09 -7.31524e-08 3.86654e-08)
(4.28563e-09 -7.28447e-08 3.84344e-08)
(7.23538e-10 -6.98822e-08 3.72711e-08)
(2.41999e-09 -8.83817e-08 4.81076e-08)
(-3.46436e-09 -9.35442e-08 4.86807e-08)
(3.81405e-09 -9.29876e-08 4.84027e-08)
(-6.31602e-10 -8.67542e-08 4.73065e-08)
(1.01042e-08 -1.03937e-07 5.55701e-08)
(-1.07452e-09 -1.12497e-07 5.60393e-08)
(1.36219e-10 -1.11697e-07 5.57202e-08)
(-9.54063e-09 -1.01571e-07 5.46378e-08)
(3.13992e-08 -1.25351e-07 5.90103e-08)
(5.7214e-09 -1.31749e-07 5.95016e-08)
(-8.57941e-09 -1.30708e-07 5.91535e-08)
(-3.25425e-08 -1.22224e-07 5.79779e-08)
(6.27111e-08 -1.7123e-07 5.78204e-08)
(1.32385e-08 -1.61951e-07 5.85276e-08)
(-1.88233e-08 -1.60469e-07 5.81744e-08)
(-6.59891e-08 -1.66585e-07 5.6754e-08)
(2.25779e-09 -2.3404e-09 2.77918e-09)
(-1.01823e-09 -6.90917e-09 3.01481e-09)
(1.05745e-09 -7.06777e-09 2.98815e-09)
(-9.71091e-10 -3.55496e-09 2.70636e-09)
(4.23317e-09 -2.48283e-08 9.13733e-09)
(-1.48072e-09 -2.83936e-08 9.46669e-09)
(2.32896e-09 -2.85222e-08 9.398e-09)
(-1.83776e-09 -2.55063e-08 8.95018e-09)
(3.73244e-09 -4.85081e-08 1.59538e-08)
(-1.90896e-09 -5.04818e-08 1.62198e-08)
(3.26208e-09 -5.04407e-08 1.61172e-08)
(-9.20282e-10 -4.84848e-08 1.56696e-08)
(2.60744e-09 -6.89057e-08 2.26621e-08)
(-2.6586e-09 -7.14309e-08 2.28207e-08)
(3.95724e-09 -7.11573e-08 2.2688e-08)
(1.14793e-10 -6.81431e-08 2.22873e-08)
(3.53378e-09 -8.59119e-08 2.85215e-08)
(-2.7812e-09 -9.11715e-08 2.85796e-08)
(3.45224e-09 -9.06502e-08 2.8419e-08)
(-1.4201e-09 -8.43953e-08 2.80603e-08)
(1.13454e-08 -1.0104e-07 3.27287e-08)
(-3.31034e-10 -1.09646e-07 3.27316e-08)
(-1.99277e-10 -1.08881e-07 3.25466e-08)
(-1.03696e-08 -9.87827e-08 3.21893e-08)
(3.24903e-08 -1.22279e-07 3.46085e-08)
(6.42187e-09 -1.28771e-07 3.46346e-08)
(-8.79535e-09 -1.27762e-07 3.44323e-08)
(-3.31426e-08 -1.1925e-07 3.40093e-08)
(6.3415e-08 -1.67717e-07 3.39026e-08)
(1.38763e-08 -1.58876e-07 3.40541e-08)
(-1.89132e-08 -1.57421e-07 3.3849e-08)
(-6.61334e-08 -1.63152e-07 3.32837e-08)
(2.27926e-09 -2.31745e-09 9.49586e-10)
(-9.60803e-10 -6.83502e-09 1.01395e-09)
(1.00671e-09 -6.99678e-09 1.00529e-09)
(-9.81782e-10 -3.54449e-09 9.2597e-10)
(4.37384e-09 -2.44532e-08 3.07751e-09)
(-1.34625e-09 -2.80332e-08 3.1589e-09)
(2.22589e-09 -2.81718e-08 3.13658e-09)
(-1.94211e-09 -2.51639e-08 3.01684e-09)
(4.02408e-09 -4.77515e-08 5.33094e-09)
(-1.70173e-09 -4.97828e-08 5.38526e-09)
(3.12117e-09 -4.97564e-08 5.35187e-09)
(-1.14168e-09 -4.77743e-08 5.2387e-09)
(3.0491e-09 -6.78097e-08 7.53162e-09)
(-2.38146e-09 -7.04003e-08 7.54836e-09)
(3.78822e-09 -7.01438e-08 7.50509e-09)
(-2.15728e-10 -6.71004e-08 7.4097e-09)
(4.09892e-09 -8.45606e-08 9.44018e-09)
(-2.44645e-09 -8.98668e-08 9.42385e-09)
(3.2701e-09 -8.93632e-08 9.37139e-09)
(-1.8301e-09 -8.30994e-08 9.28973e-09)
(1.19629e-08 -9.95655e-08 1.07994e-08)
(3.0295e-11 -1.08188e-07 1.07663e-08)
(-3.64908e-10 -1.0744e-07 1.07057e-08)
(-1.07888e-08 -9.73617e-08 1.0623e-08)
(3.30311e-08 -1.2078e-07 1.14e-08)
(6.76257e-09 -1.27304e-07 1.13764e-08)
(-8.90183e-09 -1.26311e-07 1.13101e-08)
(-3.34456e-08 -1.178e-07 1.12038e-08)
(6.3767e-08 -1.6603e-07 1.11674e-08)
(1.41863e-08 -1.57367e-07 1.11845e-08)
(-1.89568e-08 -1.55925e-07 1.11173e-08)
(-6.62131e-08 -1.61507e-07 1.09647e-08)
)
;

boundaryField
{
    interface
    {
        type            calculated;
        value           nonuniform List<vector> 
192
(
(3.90305e-08 6.28364e-08 3.77662e-08)
(6.36905e-08 3.16549e-08 8.2941e-08)
(6.69749e-08 -2.72168e-09 1.14767e-07)
(6.4858e-08 -3.15884e-08 1.42961e-07)
(6.44276e-08 -5.86943e-08 1.71882e-07)
(7.1075e-08 -8.82321e-08 2.04786e-07)
(9.16361e-08 -1.34921e-07 2.44198e-07)
(1.33481e-07 -2.30584e-07 2.82427e-07)
(1.22468e-08 2.47823e-08 6.90935e-09)
(2.58955e-08 -7.26485e-10 3.5086e-08)
(2.65701e-08 -2.84245e-08 6.44445e-08)
(2.3396e-08 -5.45672e-08 9.17179e-08)
(2.1741e-08 -8.02474e-08 1.18615e-07)
(2.69189e-08 -1.06102e-07 1.46646e-07)
(4.661e-08 -1.40475e-07 1.73359e-07)
(9.14324e-08 -2.11161e-07 1.86702e-07)
(-3.78674e-10 7.62761e-09 3.29019e-09)
(5.99347e-09 -1.75339e-08 2.41572e-08)
(5.17247e-09 -4.37385e-08 4.99354e-08)
(2.09609e-09 -6.78856e-08 7.55466e-08)
(6.77404e-10 -8.99887e-08 1.00056e-07)
(6.21031e-09 -1.09127e-07 1.22499e-07)
(2.65201e-08 -1.32638e-07 1.38493e-07)
(7.05076e-08 -1.90585e-07 1.39795e-07)
(-5.16264e-09 1.44372e-09 4.92186e-09)
(-1.88999e-09 -2.39284e-08 2.25128e-08)
(-3.20493e-09 -5.0094e-08 4.3853e-08)
(-5.75557e-09 -7.28439e-08 6.56293e-08)
(-6.43421e-09 -9.15937e-08 8.59094e-08)
(-1.94795e-10 -1.05654e-07 1.0254e-07)
(2.04306e-08 -1.2368e-07 1.11852e-07)
(6.29852e-08 -1.7681e-07 1.10039e-07)
(-6.56841e-09 -3.85394e-10 5.26427e-09)
(-4.00424e-09 -2.54337e-08 1.96483e-08)
(-5.13343e-09 -5.12472e-08 3.61974e-08)
(-7.06056e-09 -7.28607e-08 5.30027e-08)
(-6.99883e-09 -8.9407e-08 6.82435e-08)
(-1.80661e-10 -1.00842e-07 7.98441e-08)
(2.04754e-08 -1.16868e-07 8.54091e-08)
(6.17758e-08 -1.68007e-07 8.34533e-08)
(-6.81011e-09 -7.4678e-10 4.3472e-09)
(-4.1141e-09 -2.5133e-08 1.49412e-08)
(-4.84276e-09 -5.02561e-08 2.6633e-08)
(-6.23957e-09 -7.09466e-08 3.83167e-08)
(-5.63726e-09 -8.62967e-08 4.86776e-08)
(1.53843e-09 -9.66922e-08 5.62333e-08)
(2.21143e-08 -1.122e-07 5.95833e-08)
(6.25018e-08 -1.6234e-07 5.81439e-08)
(-6.77718e-09 -7.17692e-10 2.78871e-09)
(-3.85664e-09 -2.44597e-08 9.2323e-09)
(-4.25773e-09 -4.89147e-08 1.61607e-08)
(-5.29743e-09 -6.89556e-08 2.29836e-08)
(-4.36823e-09 -8.37276e-08 2.89412e-08)
(2.99532e-09 -9.38015e-08 3.31934e-08)
(2.34829e-08 -1.09261e-07 3.50165e-08)
(6.32876e-08 -1.58883e-07 3.41666e-08)
(-6.73298e-09 -6.54213e-10 9.54973e-10)
(-3.6937e-09 -2.40172e-08 3.1127e-09)
(-3.92927e-09 -4.80829e-08 5.40387e-09)
(-4.79567e-09 -6.77912e-08 7.64205e-09)
(-3.71631e-09 -8.23323e-08 9.58148e-09)
(3.72578e-09 -9.23327e-08 1.09538e-08)
(2.41615e-08 -1.07829e-07 1.15353e-08)
(6.36825e-08 -1.5723e-07 1.12555e-08)
(3.96944e-08 7.0497e-08 3.74686e-08)
(6.75887e-08 4.44808e-08 8.34616e-08)
(7.098e-08 1.22748e-08 1.16043e-07)
(6.81247e-08 -1.65959e-08 1.44862e-07)
(6.72836e-08 -4.50978e-08 1.73841e-07)
(7.46796e-08 -7.78103e-08 2.05439e-07)
(9.75561e-08 -1.29642e-07 2.41923e-07)
(1.31937e-07 -2.30377e-07 2.87157e-07)
(6.18268e-09 5.01449e-08 2.54047e-08)
(1.34779e-08 3.19137e-08 6.83657e-08)
(1.42513e-08 7.20609e-09 9.93601e-08)
(1.22024e-08 -2.00175e-08 1.26087e-07)
(1.06711e-08 -5.0903e-08 1.52468e-07)
(1.2411e-08 -8.67001e-08 1.81283e-07)
(1.96258e-08 -1.34739e-07 2.16429e-07)
(2.83695e-08 -2.18345e-07 2.66944e-07)
(-7.62812e-09 4.93996e-08 2.43043e-08)
(-1.61529e-08 3.15402e-08 6.70112e-08)
(-1.80792e-08 7.24066e-09 9.77798e-08)
(-1.75404e-08 -1.96223e-08 1.24332e-07)
(-1.79235e-08 -5.01929e-08 1.50568e-07)
(-2.20004e-08 -8.57074e-08 1.79243e-07)
(-3.2071e-08 -1.33466e-07 2.14228e-07)
(-4.43885e-08 -2.1651e-07 2.64494e-07)
(-3.94566e-08 6.77454e-08 3.39224e-08)
(-6.80172e-08 4.34226e-08 7.90393e-08)
(-7.25623e-08 1.25723e-08 1.10907e-07)
(-7.12125e-08 -1.52466e-08 1.39199e-07)
(-7.22616e-08 -4.28426e-08 1.67754e-07)
(-8.19638e-08 -7.47327e-08 1.98969e-07)
(-1.07554e-07 -1.25729e-07 2.35068e-07)
(-1.45025e-07 -2.24759e-07 2.79813e-07)
(-3.28653e-08 6.08816e-08 3.60377e-08)
(-5.77885e-08 3.13662e-08 7.96889e-08)
(-6.18843e-08 -1.58924e-09 1.10707e-07)
(-6.09667e-08 -2.92657e-08 1.38335e-07)
(-6.21425e-08 -5.52821e-08 1.6679e-07)
(-7.07928e-08 -8.37909e-08 1.99269e-07)
(-9.3598e-08 -1.29435e-07 2.38236e-07)
(-1.37234e-07 -2.23263e-07 2.75972e-07)
(-6.62567e-09 2.32244e-08 6.24181e-09)
(-2.01804e-08 -8.36732e-10 3.33171e-08)
(-2.13204e-08 -2.73042e-08 6.193e-08)
(-1.9068e-08 -5.23405e-08 8.86612e-08)
(-1.87795e-08 -7.69703e-08 1.151e-07)
(-2.57446e-08 -1.0183e-07 1.42703e-07)
(-4.74872e-08 -1.35236e-07 1.69006e-07)
(-9.38429e-08 -2.04269e-07 1.82063e-07)
(5.87666e-09 5.93985e-09 2.85463e-09)
(-5.08792e-11 -1.78341e-08 2.29508e-08)
(6.35021e-10 -4.2865e-08 4.81103e-08)
(3.08168e-09 -6.59407e-08 7.32225e-08)
(3.39913e-09 -8.70133e-08 9.72999e-08)
(-3.66898e-09 -1.05179e-07 1.1935e-07)
(-2.57945e-08 -1.27757e-07 1.35006e-07)
(-7.1148e-08 -1.84045e-07 1.36119e-07)
(1.06408e-08 -4.24162e-10 4.60851e-09)
(8.03069e-09 -2.45004e-08 2.16634e-08)
(9.45843e-09 -4.95334e-08 4.25383e-08)
(1.16297e-08 -7.1229e-08 6.39033e-08)
(1.14486e-08 -8.8954e-08 8.38132e-08)
(3.90441e-09 -1.02044e-07 1.00112e-07)
(-1.83234e-08 -1.19125e-07 1.09153e-07)
(-6.20876e-08 -1.70542e-07 1.07197e-07)
(1.20497e-08 -2.38398e-09 5.0452e-09)
(1.02797e-08 -2.62333e-08 1.90622e-08)
(1.16953e-08 -5.09644e-08 3.52821e-08)
(1.34365e-08 -7.1543e-08 5.17785e-08)
(1.27117e-08 -8.70662e-08 6.67302e-08)
(4.77783e-09 -9.75206e-08 7.80705e-08)
(-1.73077e-08 -1.12578e-07 8.34262e-08)
(-5.96862e-08 -1.61955e-07 8.13619e-08)
(1.2292e-08 -2.83049e-09 4.2032e-09)
(1.0479e-08 -2.60926e-08 1.45586e-08)
(1.16109e-08 -5.01806e-08 2.60331e-08)
(1.29591e-08 -6.98577e-08 3.75058e-08)
(1.18384e-08 -8.41876e-08 4.76634e-08)
(3.68828e-09 -9.35931e-08 5.50334e-08)
(-1.81884e-08 -1.08111e-07 5.82343e-08)
(-5.95537e-08 -1.56453e-07 5.67184e-08)
(1.22617e-08 -2.85273e-09 2.70721e-09)
(1.02776e-08 -2.55189e-08 9.01629e-09)
(1.11538e-08 -4.89727e-08 1.58212e-08)
(1.22316e-08 -6.80178e-08 2.2522e-08)
(1.08779e-08 -8.17737e-08 2.83598e-08)
(2.6328e-09 -9.08514e-08 3.25012e-08)
(-1.90704e-08 -1.05308e-07 3.4235e-08)
(-5.97854e-08 -1.53109e-07 3.33396e-08)
(1.22196e-08 -2.8135e-09 9.28615e-10)
(1.01417e-08 -2.51238e-08 3.04288e-09)
(1.08866e-08 -4.82057e-08 5.29401e-09)
(1.1833e-08 -6.69279e-08 7.4923e-09)
(1.0375e-08 -8.04556e-08 9.3922e-09)
(2.09731e-09 -8.94571e-08 1.07277e-08)
(-1.95116e-08 -1.03943e-07 1.12795e-08)
(-5.99092e-08 -1.51512e-07 1.09846e-08)
(1.31801e-07 -2.35266e-07 2.91758e-07)
(9.71485e-08 -2.08884e-07 1.91017e-07)
(7.37997e-08 -1.91334e-07 1.39234e-07)
(6.53128e-08 -1.79052e-07 1.06972e-07)
(6.40621e-08 -1.70533e-07 8.0052e-08)
(6.48359e-08 -1.64848e-07 5.55102e-08)
(6.56214e-08 -1.61344e-07 3.26027e-08)
(6.60009e-08 -1.59667e-07 1.07458e-08)
(2.82514e-08 -2.14775e-07 2.80003e-07)
(1.92285e-08 -1.83125e-07 1.9645e-07)
(1.16129e-08 -1.66906e-07 1.48554e-07)
(9.16658e-09 -1.57277e-07 1.13133e-07)
(9.5434e-09 -1.50938e-07 8.28942e-08)
(1.05474e-08 -1.46595e-07 5.65413e-08)
(1.13015e-08 -1.4378e-07 3.29081e-08)
(1.1659e-08 -1.42382e-07 1.08071e-08)
(-4.44766e-08 -2.12109e-07 2.78356e-07)
(-3.24275e-08 -1.80675e-07 1.95344e-07)
(-2.25734e-08 -1.64574e-07 1.47683e-07)
(-1.84437e-08 -1.55026e-07 1.1246e-07)
(-1.75596e-08 -1.48744e-07 8.23996e-08)
(-1.76657e-08 -1.44441e-07 5.62046e-08)
(-1.78452e-08 -1.41652e-07 3.2713e-08)
(-1.79229e-08 -1.40267e-07 1.07433e-08)
(-1.45116e-07 -2.27248e-07 2.86737e-07)
(-1.07895e-07 -2.01266e-07 1.87654e-07)
(-8.24061e-08 -1.83979e-07 1.36594e-07)
(-7.22142e-08 -1.71902e-07 1.04935e-07)
(-6.96729e-08 -1.63534e-07 7.85569e-08)
(-6.95271e-08 -1.57959e-07 5.44936e-08)
(-6.97237e-08 -1.54528e-07 3.20141e-08)
(-6.9816e-08 -1.52886e-07 1.05532e-08)
)
;
    }
    symmetry
    {
        type            symmetry;
    }
    bottom
    {
        type            calculated;
        value           uniform (0 0 0);
    }
}


// ************************************************************************* //
