/*--------------------------------*- C++ -*----------------------------------*\
| =========                 |                                                 |
| \\      /  F ield         | OpenFOAM: The Open Source CFD Toolbox           |
|  \\    /   O peration     | Version:  v1912                                 |
|   \\  /    A nd           | Website:  www.openfoam.com                      |
|    \\/     M anipulation  |                                                 |
\*---------------------------------------------------------------------------*/
FoamFile
{
    version     2.0;
    format      ascii;
    class       volVectorField;
    location    "0.49/solid";
    object      D;
}
// * * * * * * * * * * * * * * * * * * * * * * * * * * * * * * * * * * * * * //

dimensions      [0 1 0 0 0 0 0];


internalField   nonuniform List<vector> 
256
(
(2.07835e-08 3.24313e-08 2.21642e-08)
(2.03956e-09 1.88014e-08 2.00581e-08)
(-1.55799e-09 1.85865e-08 2.01184e-08)
(-1.98929e-08 3.14666e-08 2.24268e-08)
(3.2904e-08 2.53032e-08 4.00639e-08)
(6.0794e-09 1.75763e-08 3.73623e-08)
(-4.10452e-09 1.71055e-08 3.76085e-08)
(-3.03992e-08 2.36697e-08 4.09029e-08)
(3.44318e-08 1.51328e-08 4.84959e-08)
(7.31914e-09 1.21403e-08 4.56691e-08)
(-3.53842e-09 1.1448e-08 4.60668e-08)
(-3.01389e-08 1.29121e-08 4.97782e-08)
(3.4283e-08 7.05488e-09 5.45913e-08)
(7.687e-09 5.39569e-09 5.15888e-08)
(-1.84848e-09 4.50704e-09 5.20956e-08)
(-2.7942e-08 4.28616e-09 5.61956e-08)
(3.52032e-08 1.34945e-12 6.05964e-08)
(8.47833e-09 -2.14758e-09 5.74149e-08)
(-3.34604e-10 -3.22059e-09 5.80038e-08)
(-2.65543e-08 -3.28586e-09 6.24456e-08)
(3.83519e-08 -7.29412e-09 6.76026e-08)
(1.02542e-08 -1.04632e-08 6.4265e-08)
(4.40826e-10 -1.17198e-08 6.49209e-08)
(-2.71567e-08 -1.1091e-08 6.96525e-08)
(4.51488e-08 -1.89462e-08 7.65841e-08)
(1.33765e-08 -2.17298e-08 7.32723e-08)
(1.00888e-10 -2.31648e-08 7.39863e-08)
(-3.12128e-08 -2.32479e-08 7.88062e-08)
(5.54379e-08 -5.72812e-08 8.68503e-08)
(1.68355e-08 -5.51479e-08 8.40311e-08)
(-4.33928e-10 -5.65934e-08 8.47858e-08)
(-3.86339e-08 -6.17143e-08 8.91894e-08)
(1.50896e-08 1.55243e-08 2.89684e-09)
(9.6561e-10 4.25411e-09 3.78167e-09)
(-6.76383e-10 4.06588e-09 3.91469e-09)
(-1.43477e-08 1.46708e-08 3.28588e-09)
(2.41007e-08 1.23721e-08 1.35646e-08)
(3.94265e-09 5.81743e-09 1.52733e-08)
(-2.46993e-09 5.32523e-09 1.55862e-08)
(-2.20599e-08 1.07403e-08 1.44745e-08)
(2.5017e-08 6.56033e-09 2.18568e-08)
(4.88408e-09 3.90433e-09 2.38709e-08)
(-1.8607e-09 3.18119e-09 2.43168e-08)
(-2.14497e-08 4.31136e-09 2.31551e-08)
(2.46712e-08 5.74542e-10 2.79631e-08)
(5.16389e-09 -9.8705e-10 3.00613e-08)
(-2.89272e-10 -1.90061e-09 3.06076e-08)
(-1.9259e-08 -2.21749e-09 2.95589e-08)
(2.54233e-08 -5.56303e-09 3.34193e-08)
(5.88278e-09 -7.66663e-09 3.55243e-08)
(1.13063e-09 -8.7574e-09 3.6149e-08)
(-1.78609e-08 -8.86438e-09 3.52491e-08)
(2.84515e-08 -1.20713e-08 3.91516e-08)
(7.59364e-09 -1.52306e-08 4.12399e-08)
(1.83567e-09 -1.64982e-08 4.19282e-08)
(-1.84671e-08 -1.58723e-08 4.11709e-08)
(3.52859e-08 -2.13895e-08 4.50244e-08)
(1.06797e-08 -2.41466e-08 4.71185e-08)
(1.42337e-09 -2.55818e-08 4.78541e-08)
(-2.26614e-08 -2.56739e-08 4.7187e-08)
(4.59011e-08 -5.2887e-08 4.85027e-08)
(1.41185e-08 -5.02887e-08 5.06386e-08)
(8.31672e-10 -5.17121e-08 5.13909e-08)
(-3.04935e-08 -5.72509e-08 5.07227e-08)
(1.14104e-08 1.05747e-08 1.3462e-09)
(4.6102e-11 9.09911e-10 2.46916e-09)
(1.06745e-10 7.43844e-10 2.56765e-09)
(-1.0812e-08 9.83312e-09 1.62689e-09)
(1.83009e-08 5.71914e-09 8.24632e-09)
(2.04635e-09 1.36906e-10 1.0367e-08)
(-9.65379e-10 -3.25663e-10 1.06074e-08)
(-1.66497e-08 4.22575e-09 8.93247e-09)
(1.88835e-08 4.06459e-10 1.54776e-08)
(2.71633e-09 -1.92573e-09 1.79362e-08)
(-3.06825e-10 -2.62125e-09 1.82821e-08)
(-1.59227e-08 -1.71734e-09 1.64728e-08)
(1.84922e-08 -4.49312e-09 2.15852e-08)
(2.92609e-09 -5.97921e-09 2.41483e-08)
(1.14744e-09 -6.86737e-09 2.45776e-08)
(-1.38695e-08 -7.17514e-09 2.28296e-08)
(1.91906e-08 -9.40923e-09 2.68597e-08)
(3.58664e-09 -1.15022e-08 2.94572e-08)
(2.47109e-09 -1.25682e-08 2.99548e-08)
(-1.25669e-08 -1.26113e-08 2.83097e-08)
(2.22127e-08 -1.43559e-08 3.16591e-08)
(5.24759e-09 -1.75231e-08 3.42641e-08)
(3.10049e-09 -1.87645e-08 3.4817e-08)
(-1.32859e-08 -1.8062e-08 3.32759e-08)
(2.91366e-08 -2.1421e-08 3.55069e-08)
(8.30872e-09 -2.41904e-08 3.81092e-08)
(2.61228e-09 -2.55951e-08 3.86995e-08)
(-1.76642e-08 -2.5606e-08 3.72411e-08)
(3.98142e-08 -4.9743e-08 3.68096e-08)
(1.17276e-08 -4.71541e-08 3.94274e-08)
(1.95713e-09 -4.85406e-08 4.0024e-08)
(-2.56378e-08 -5.39943e-08 3.85749e-08)
(9.7371e-09 9.11717e-09 1.44547e-09)
(-3.31822e-10 3.45193e-10 2.13996e-09)
(4.06027e-10 1.9443e-10 2.20946e-09)
(-9.25027e-09 8.45719e-09 1.64454e-09)
(1.55943e-08 3.01305e-09 6.46355e-09)
(1.1727e-09 -2.00435e-09 7.80273e-09)
(-3.53935e-10 -2.42952e-09 7.97786e-09)
(-1.42399e-08 1.66161e-09 6.96399e-09)
(1.60805e-08 -2.92316e-09 1.21915e-08)
(1.69642e-09 -5.0528e-09 1.3753e-08)
(2.72295e-10 -5.70389e-09 1.40086e-08)
(-1.3587e-08 -4.89215e-09 1.29282e-08)
(1.5759e-08 -7.64374e-09 1.75294e-08)
(1.87763e-09 -9.08373e-09 1.91525e-08)
(1.59627e-09 -9.92801e-09 1.94738e-08)
(-1.17573e-08 -1.0178e-08 1.84638e-08)
(1.64983e-08 -1.17862e-08 2.21591e-08)
(2.51344e-09 -1.3876e-08 2.37982e-08)
(2.80946e-09 -1.49004e-08 2.41752e-08)
(-1.06273e-08 -1.48526e-08 2.32624e-08)
(1.95527e-08 -1.56092e-08 2.59881e-08)
(4.14434e-09 -1.87833e-08 2.76301e-08)
(3.357e-09 -1.99851e-08 2.80523e-08)
(-1.14869e-08 -1.91904e-08 2.723e-08)
(2.64993e-08 -2.1518e-08 2.86523e-08)
(7.17063e-09 -2.43286e-08 3.02967e-08)
(2.81114e-09 -2.56951e-08 3.07483e-08)
(-1.59753e-08 -2.55866e-08 2.99894e-08)
(3.71112e-08 -4.85149e-08 2.95376e-08)
(1.0554e-08 -4.61083e-08 3.12207e-08)
(2.11151e-09 -4.74595e-08 3.16749e-08)
(-2.39566e-08 -5.26585e-08 3.08958e-08)
(9.05229e-09 8.49789e-09 1.36912e-09)
(-4.27522e-10 1.85202e-10 1.71651e-09)
(4.5614e-10 4.61944e-11 1.76519e-09)
(-8.64093e-09 7.89762e-09 1.50839e-09)
(1.44982e-08 1.93368e-09 5.12904e-09)
(8.92786e-10 -2.79755e-09 5.80849e-09)
(-2.43411e-10 -3.19089e-09 5.93282e-09)
(-1.33497e-08 6.96258e-10 5.48359e-09)
(1.49929e-08 -4.45953e-09 9.39459e-09)
(1.35773e-09 -6.48836e-09 1.01902e-08)
(3.08886e-10 -7.09838e-09 1.03734e-08)
(-1.2832e-08 -6.29353e-09 9.92198e-09)
(1.47609e-08 -9.29959e-09 1.35524e-08)
(1.53012e-09 -1.07189e-08 1.43753e-08)
(1.5162e-09 -1.15203e-08 1.46078e-08)
(-1.12127e-08 -1.16975e-08 1.42284e-08)
(1.55599e-08 -1.31541e-08 1.72049e-08)
(2.15406e-09 -1.52408e-08 1.80319e-08)
(2.63009e-09 -1.62241e-08 1.83069e-08)
(-1.02509e-08 -1.60922e-08 1.8011e-08)
(1.86348e-08 -1.64859e-08 2.01142e-08)
(3.75952e-09 -1.9657e-08 2.09446e-08)
(3.10826e-09 -2.08205e-08 2.12545e-08)
(-1.12234e-08 -1.995e-08 2.10287e-08)
(2.55511e-08 -2.19788e-08 2.20631e-08)
(6.74417e-09 -2.48141e-08 2.29049e-08)
(2.52386e-09 -2.61458e-08 2.32373e-08)
(-1.57578e-08 -2.59427e-08 2.30521e-08)
(3.60681e-08 -4.83202e-08 2.28782e-08)
(1.00882e-08 -4.60635e-08 2.37593e-08)
(1.79416e-09 -4.73846e-08 2.40931e-08)
(-2.3709e-08 -5.2373e-08 2.38831e-08)
(8.7565e-09 8.16669e-09 1.08537e-09)
(-4.38193e-10 8.97948e-11 1.24633e-09)
(4.40054e-10 -4.06098e-11 1.27872e-09)
(-8.39254e-09 7.60774e-09 1.17743e-09)
(1.40528e-08 1.46867e-09 3.74806e-09)
(8.21708e-10 -3.12404e-09 4.06412e-09)
(-2.78992e-10 -3.49385e-09 4.14727e-09)
(-1.30371e-08 3.13381e-10 3.98383e-09)
(1.45815e-08 -5.11503e-09 6.68995e-09)
(1.26551e-09 -7.09894e-09 7.06013e-09)
(2.02751e-10 -7.67755e-09 7.18341e-09)
(-1.26417e-08 -6.84769e-09 7.04315e-09)
(1.44158e-08 -1.00823e-08 9.59328e-09)
(1.43311e-09 -1.14936e-08 9.97449e-09)
(1.32339e-09 -1.22613e-08 1.01318e-08)
(-1.11768e-08 -1.23741e-08 1.00495e-08)
(1.52567e-08 -1.39111e-08 1.217e-08)
(2.04629e-09 -1.59931e-08 1.25526e-08)
(2.36374e-09 -1.69433e-08 1.27399e-08)
(-1.03391e-08 -1.67471e-08 1.27181e-08)
(1.83345e-08 -1.71371e-08 1.42145e-08)
(3.62802e-09 -2.02973e-08 1.46027e-08)
(2.7916e-09 -2.143e-08 1.48147e-08)
(-1.13866e-08 -2.05078e-08 1.484e-08)
(2.52073e-08 -2.25457e-08 1.56026e-08)
(6.57529e-09 -2.5382e-08 1.60056e-08)
(2.18089e-09 -2.66864e-08 1.62335e-08)
(-1.59387e-08 -2.64273e-08 1.62819e-08)
(3.56426e-08 -4.85305e-08 1.62973e-08)
(9.88539e-09 -4.63486e-08 1.67291e-08)
(1.43037e-09 -4.76464e-08 1.69579e-08)
(-2.38604e-08 -5.2513e-08 1.69882e-08)
(8.61345e-09 7.9899e-09 6.86366e-10)
(-4.35443e-10 3.41554e-11 7.56675e-10)
(4.22445e-10 -9.06813e-11 7.75241e-10)
(-8.27693e-09 7.45668e-09 7.38796e-10)
(1.38489e-08 1.25915e-09 2.28188e-09)
(8.01464e-10 -3.26715e-09 2.41965e-09)
(-3.21057e-10 -3.6217e-09 2.46743e-09)
(-1.29116e-08 1.56322e-10 2.4166e-09)
(1.44038e-08 -5.38413e-09 4.00682e-09)
(1.23614e-09 -7.34843e-09 4.16795e-09)
(1.12808e-10 -7.90636e-09 4.23903e-09)
(-1.25974e-08 -7.05059e-09 4.20953e-09)
(1.42759e-08 -1.04289e-08 5.70864e-09)
(1.39908e-09 -1.18368e-08 5.87433e-09)
(1.17899e-09 -1.25818e-08 5.96541e-09)
(-1.12274e-08 -1.265e-08 5.97183e-09)
(1.51378e-08 -1.43112e-08 7.2281e-09)
(2.00227e-09 -1.6388e-08 7.39519e-09)
(2.17308e-09 -1.73158e-08 7.50398e-09)
(-1.04655e-08 -1.7078e-08 7.54587e-09)
(1.82105e-08 -1.7572e-08 8.44232e-09)
(3.56545e-09 -2.07202e-08 8.61482e-09)
(2.56888e-09 -2.18321e-08 8.73839e-09)
(-1.15572e-08 -2.08791e-08 8.80655e-09)
(2.50488e-08 -2.30036e-08 9.28634e-09)
(6.48628e-09 -2.583e-08 9.47024e-09)
(1.94059e-09 -2.71158e-08 9.60337e-09)
(-1.61173e-08 -2.68292e-08 9.68306e-09)
(3.54287e-08 -4.88032e-08 9.7531e-09)
(9.7723e-09 -4.66459e-08 9.9535e-09)
(1.17645e-09 -4.79278e-08 1.00871e-08)
(-2.40199e-08 -5.2738e-08 1.01569e-08)
(8.55065e-09 7.91298e-09 2.33912e-10)
(-4.33933e-10 9.91792e-12 2.53931e-10)
(4.14329e-10 -1.12199e-10 2.59981e-10)
(-8.2267e-09 7.39205e-09 2.50935e-10)
(1.37602e-08 1.17659e-09 7.65697e-10)
(7.93126e-10 -3.32205e-09 8.04845e-10)
(-3.4137e-10 -3.66914e-09 8.20428e-10)
(-1.28593e-08 9.92062e-11 8.09501e-10)
(1.43271e-08 -5.4813e-09 1.33421e-09)
(1.22345e-09 -7.43779e-09 1.37997e-09)
(6.96258e-11 -7.98553e-09 1.40319e-09)
(-1.25832e-08 -7.11525e-09 1.40026e-09)
(1.42152e-08 -1.05608e-08 1.89389e-09)
(1.38321e-09 -1.1967e-08 1.94099e-09)
(1.1101e-09 -1.27007e-08 1.9708e-09)
(-1.12572e-08 -1.27467e-08 1.97987e-09)
(1.50848e-08 -1.44853e-08 2.39491e-09)
(1.98032e-09 -1.65587e-08 2.44269e-09)
(2.0822e-09 -1.74753e-08 2.47837e-09)
(-1.05304e-08 -1.72175e-08 2.49898e-09)
(1.81528e-08 -1.77885e-08 2.79764e-09)
(3.53345e-09 -2.09292e-08 2.84762e-09)
(2.46245e-09 -2.20306e-08 2.88821e-09)
(-1.16423e-08 -2.10635e-08 2.9172e-09)
(2.49733e-08 -2.325e-08 3.08171e-09)
(6.44092e-09 -2.60681e-08 3.13588e-09)
(1.82507e-09 -2.73446e-08 3.17966e-09)
(-1.62062e-08 -2.70472e-08 3.21215e-09)
(3.53258e-08 -4.89721e-08 3.24572e-09)
(9.71461e-09 -4.68192e-08 3.30517e-09)
(1.05408e-09 -4.80931e-08 3.34911e-09)
(-2.41001e-08 -5.28828e-08 3.37855e-09)
)
;

boundaryField
{
    interface
    {
        type            solidTraction;
        traction        nonuniform List<vector> 
192
(
(47.2085 -0.354247 -3.03937)
(49.0771 -0.23413 -4.81656)
(50.4315 0.0917323 -5.33391)
(51.256 0.506188 -5.41708)
(51.399 0.858388 -5.30942)
(52.1956 1.50509 -5.12925)
(50.5188 1.98404 -4.694)
(53.9745 4.36675 -4.34792)
(45.9321 -0.250981 -1.50812)
(46.8324 -0.144727 -2.56468)
(47.6332 0.153108 -2.81193)
(48.1948 0.582312 -2.7996)
(48.1267 0.960671 -2.67784)
(48.8534 1.67976 -2.5152)
(46.9216 2.21318 -2.23438)
(50.5526 4.72497 -2.0044)
(48.625 -0.215606 -1.19399)
(49.4258 -0.102814 -2.01012)
(50.2214 0.19569 -2.19739)
(50.7913 0.655417 -2.18358)
(50.6264 1.0765 -2.08545)
(51.2562 1.88012 -1.95394)
(48.8581 2.49556 -1.74596)
(52.2661 5.18406 -1.56549)
(48.8073 -0.163881 -0.738119)
(49.4148 -0.0319496 -1.31039)
(50.0407 0.268389 -1.43471)
(50.5138 0.739673 -1.41312)
(50.2441 1.1814 -1.33353)
(50.8076 2.02341 -1.23319)
(48.25 2.67611 -1.09789)
(51.617 5.41418 -0.984394)
(49.6089 -0.139924 -0.542341)
(50.157 0.0106792 -0.962799)
(50.7085 0.321008 -1.05489)
(51.1365 0.806081 -1.03905)
(50.7931 1.2686 -0.980444)
(51.2833 2.14339 -0.905688)
(48.5475 2.83046 -0.80977)
(51.7847 5.61639 -0.726843)
(49.8084 -0.120996 -0.334052)
(50.3042 0.044787 -0.611209)
(50.7896 0.363318 -0.672292)
(51.1747 0.856683 -0.660439)
(50.7803 1.33116 -0.620444)
(51.2286 2.2232 -0.570288)
(48.4091 2.92857 -0.510252)
(51.6005 5.73958 -0.459539)
(50.0704 -0.11212 -0.196702)
(50.5469 0.0640763 -0.35927)
(50.9978 0.389805 -0.395464)
(51.3591 0.889728 -0.388738)
(50.9314 1.37316 -0.365633)
(51.3463 2.27713 -0.336027)
(48.4606 2.9955 -0.301821)
(51.604 5.82481 -0.271498)
(50.1313 -0.106409 -0.0586139)
(50.5943 0.0749681 -0.110763)
(51.0258 0.403679 -0.122511)
(51.374 0.905939 -0.120142)
(50.9326 1.3931 -0.112646)
(51.3324 2.30165 -0.103021)
(48.4269 3.02601 -0.092696)
(51.5461 5.86309 -0.0831113)
(4.37702 0.948208 18.435)
(7.25988 1.03295 13.8768)
(8.19023 0.781962 10.346)
(8.43473 0.542431 9.26557)
(8.4619 0.450038 9.38962)
(8.4885 0.496227 10.446)
(8.53615 0.613265 12.6639)
(9.22402 0.830165 14.6072)
(2.75345 0.546823 23.407)
(5.1185 0.717003 22.3717)
(5.80634 0.530393 21.2745)
(5.94731 0.281057 21.0165)
(5.96316 0.131406 21.103)
(6.03736 0.0595427 21.5306)
(6.25576 0.0739442 22.269)
(7.19307 0.159702 22.7898)
(2.85561 0.371288 20.4055)
(5.3278 0.514973 19.6135)
(6.08437 0.362038 18.615)
(6.24878 0.108965 18.3468)
(6.25235 -0.0756009 18.4527)
(6.28097 -0.225797 18.8577)
(6.41999 -0.314243 19.6689)
(7.28824 -0.322527 20.5855)
(3.3036 0.290485 20.945)
(6.23627 0.394988 20.4623)
(7.18648 0.244274 19.6464)
(7.4087 -0.0181138 19.4822)
(7.40746 -0.213677 19.6279)
(7.43136 -0.403016 19.9286)
(7.4821 -0.55016 20.4907)
(8.36164 -0.700642 21.1602)
(-9.82427 0.917962 1.15853)
(-6.22884 0.916329 2.13371)
(-3.51715 0.419217 2.39706)
(-2.3987 -0.160168 2.46863)
(-2.29957 -0.460064 2.48465)
(-1.1877 -0.90027 2.64808)
(-2.39576 -0.874976 2.72962)
(6.53552 -3.14448 3.23685)
(-15.627 0.361623 -0.132701)
(-14.8749 0.351463 0.113154)
(-14.1332 0.0740137 0.100576)
(-13.616 -0.288951 0.0890137)
(-13.5695 -0.418183 0.127914)
(-11.9888 -0.725311 0.332069)
(-12.3128 -0.454712 0.566824)
(-2.3396 -2.65007 1.00679)
(-15.8149 0.198137 0.0760285)
(-15.2507 0.14235 0.412796)
(-14.6429 -0.0448118 0.505385)
(-14.0222 -0.313772 0.54308)
(-13.8508 -0.350176 0.590525)
(-11.8591 -0.592461 0.737554)
(-11.8616 -0.212038 0.875679)
(-0.941073 -2.56522 1.09112)
(-17.464 0.0953809 -0.00795484)
(-17.1748 0.00699272 0.271151)
(-16.8451 -0.122401 0.363126)
(-16.2399 -0.314917 0.400537)
(-15.9823 -0.267994 0.439385)
(-13.646 -0.447083 0.545009)
(-13.2595 0.0137961 0.636647)
(-1.71374 -2.40054 0.762901)
(-17.7152 0.0788102 0.0841919)
(-17.4271 -0.023081 0.341218)
(-17.1058 -0.13453 0.43908)
(-16.4296 -0.300749 0.478098)
(-16.0945 -0.217692 0.505575)
(-13.5639 -0.374317 0.566717)
(-13.0289 0.114904 0.604745)
(-1.13697 -2.3798 0.651596)
(-18.1993 0.0723728 0.0533504)
(-17.9254 -0.0343815 0.235839)
(-17.6176 -0.135956 0.309429)
(-16.8993 -0.286742 0.338484)
(-16.5058 -0.179436 0.35732)
(-13.8274 -0.32058 0.395498)
(-13.1599 0.186986 0.416347)
(-1.01498 -2.35511 0.440377)
(-18.312 0.0747012 0.0492533)
(-18.0263 -0.0332828 0.162861)
(-17.705 -0.131466 0.209256)
(-16.9516 -0.277038 0.227263)
(-16.522 -0.15915 0.237957)
(-13.7639 -0.294815 0.257035)
(-13.0376 0.219589 0.265297)
(-0.746915 -2.357 0.272339)
(-18.4291 0.0746925 0.01118)
(-18.1431 -0.0333748 0.0474924)
(-17.8177 -0.129286 0.062801)
(-17.0487 -0.271725 0.0687551)
(-16.5986 -0.148412 0.0725949)
(-13.8001 -0.280573 0.0790137)
(-13.0337 0.237116 0.0825842)
(-0.675873 -2.35473 0.0850341)
(9.26168 -14.2166 -0.738643)
(8.59546 -12.0661 -0.518962)
(8.5834 -9.42235 -0.361536)
(8.61134 -7.72914 -0.233899)
(8.69469 -6.42488 -0.171601)
(8.74626 -5.50688 -0.105629)
(8.7898 -4.92511 -0.0646472)
(8.8087 -4.64477 -0.0192332)
(7.20963 -22.4672 -0.0516816)
(6.27479 -21.8321 0.0378845)
(6.06076 -20.8245 0.097575)
(5.98785 -20.0706 0.1046)
(5.98516 -19.435 0.0873208)
(5.98104 -18.9689 0.0674218)
(5.98779 -18.664 0.0400196)
(5.98946 -18.5041 0.0147008)
(7.30283 -20.2756 0.440146)
(6.42846 -19.239 0.436699)
(6.28892 -18.1607 0.393854)
(6.26546 -17.4263 0.317204)
(6.29128 -16.7775 0.246029)
(6.30404 -16.3429 0.171882)
(6.31993 -16.0426 0.101827)
(6.32511 -15.9041 0.033622)
(8.35408 -20.8805 0.819503)
(7.4664 -20.1148 0.674024)
(7.4126 -19.3508 0.566316)
(7.4002 -18.825 0.440449)
(7.45253 -18.3016 0.340562)
(7.47713 -17.9798 0.234113)
(7.50409 -17.7394 0.140204)
(7.51402 -17.6301 0.0456911)
)
;
        pressure        uniform 0;
        secondOrder     false;
        setEffectiveTraction false;
        relaxationFactor 1;
        value           nonuniform List<vector> 
192
(
(7.83606e-08 4.58531e-08 2.06161e-08)
(8.68683e-08 2.87152e-08 3.75779e-08)
(8.94848e-08 1.54776e-08 4.58267e-08)
(9.09794e-08 7.24781e-09 5.18857e-08)
(9.40025e-08 1.01872e-09 5.78646e-08)
(1.00092e-07 -4.80746e-09 6.48567e-08)
(1.10702e-07 -1.46744e-08 7.38465e-08)
(1.27138e-07 -5.42051e-08 8.41393e-08)
(6.37576e-08 2.53218e-08 5.5332e-10)
(7.02669e-08 1.48539e-08 9.9134e-09)
(7.18534e-08 6.70299e-09 1.79693e-08)
(7.28335e-08 6.76217e-10 2.40149e-08)
(7.55567e-08 -4.61781e-09 2.94157e-08)
(8.16167e-08 -9.60537e-09 3.51163e-08)
(9.28113e-08 -1.70267e-08 4.10209e-08)
(1.11477e-07 -4.97796e-08 4.45965e-08)
(5.42904e-08 1.80025e-08 7.88379e-12)
(5.99229e-08 7.5874e-09 6.11938e-09)
(6.12263e-08 4.54315e-10 1.32432e-08)
(6.20785e-08 -4.41623e-09 1.93568e-08)
(6.4705e-08 -8.47894e-09 2.46281e-08)
(7.08106e-08 -1.18691e-08 2.94341e-08)
(8.23335e-08 -1.70202e-08 3.33099e-08)
(1.01615e-07 -4.66132e-08 3.46118e-08)
(4.90854e-08 1.545e-08 8.55821e-10)
(5.40698e-08 4.59891e-09 5.51266e-09)
(5.53513e-08 -2.88193e-09 1.12186e-08)
(5.62734e-08 -7.53917e-09 1.65964e-08)
(5.89366e-08 -1.08376e-08 2.12512e-08)
(6.50915e-08 -1.31086e-08 2.50934e-08)
(7.67098e-08 -1.71279e-08 2.77557e-08)
(9.60545e-08 -4.53766e-08 2.8601e-08)
(4.63257e-08 1.43855e-08 1.12388e-09)
(5.10091e-08 3.41884e-09 4.7435e-09)
(5.23403e-08 -4.39382e-09 9.01966e-09)
(5.3372e-08 -9.15771e-09 1.32164e-08)
(5.6107e-08 -1.21854e-08 1.68943e-08)
(6.22897e-08 -1.39878e-08 1.98096e-08)
(7.38837e-08 -1.762e-08 2.174e-08)
(9.31083e-08 -4.51884e-08 2.25109e-08)
(4.4808e-08 1.3869e-08 9.75609e-10)
(4.93824e-08 2.92493e-09 3.58561e-09)
(5.07683e-08 -5.02421e-09 6.54257e-09)
(5.18843e-08 -9.91331e-09 9.47192e-09)
(5.46733e-08 -1.29312e-08 1.20644e-08)
(6.08597e-08 -1.46491e-08 1.41083e-08)
(7.23933e-08 -1.82182e-08 1.5477e-08)
(9.14834e-08 -4.54135e-08 1.61374e-08)
(4.3975e-08 1.36055e-08 6.34871e-10)
(4.85075e-08 2.70676e-09 2.20868e-09)
(4.99297e-08 -5.27731e-09 3.94315e-09)
(5.10949e-08 -1.02453e-08 5.65842e-09)
(5.39128e-08 -1.33273e-08 7.18507e-09)
(6.00917e-08 -1.50939e-08 8.39683e-09)
(7.15725e-08 -1.86986e-08 9.22778e-09)
(9.05651e-08 -4.57006e-08 9.67385e-09)
(4.3599e-08 1.34907e-08 2.18203e-10)
(4.81137e-08 2.62072e-09 7.43517e-10)
(4.95521e-08 -5.36749e-09 1.31501e-09)
(5.07386e-08 -1.03712e-08 1.87869e-09)
(5.35678e-08 -1.35006e-08 2.38164e-09)
(5.974e-08 -1.5316e-08 2.78321e-09)
(7.11921e-08 -1.89563e-08 3.06281e-09)
(9.01356e-08 -4.58778e-08 3.21999e-09)
(2.10317e-08 4.79885e-08 8.21801e-08)
(3.34728e-08 3.18862e-08 9.62884e-08)
(3.5061e-08 1.87648e-08 1.05825e-07)
(3.48865e-08 1.00801e-08 1.13652e-07)
(3.57751e-08 3.25425e-09 1.21832e-07)
(3.88918e-08 -3.29712e-09 1.31797e-07)
(4.56911e-08 -1.41342e-08 1.44616e-07)
(5.60901e-08 -5.45914e-08 1.61142e-07)
(1.52855e-09 3.31566e-08 7.44043e-08)
(5.46641e-09 2.39792e-08 8.83279e-08)
(6.7128e-09 1.5697e-08 9.70852e-08)
(7.06406e-09 8.3322e-09 1.04348e-07)
(7.83115e-09 1.02149e-09 1.12178e-07)
(9.58474e-09 -6.49881e-09 1.22e-07)
(1.2728e-08 -1.67883e-08 1.35272e-07)
(1.63205e-08 -5.23714e-08 1.54187e-07)
(-9.65325e-10 3.30183e-08 7.38227e-08)
(-3.2185e-09 2.35927e-08 8.79235e-08)
(-2.51015e-09 1.50699e-08 9.68067e-08)
(-6.95765e-10 7.49131e-09 1.04164e-07)
(9.24085e-10 -1.42983e-11 1.12066e-07)
(1.78874e-09 -7.72417e-09 1.21945e-07)
(1.48541e-09 -1.81986e-08 1.35267e-07)
(8.56844e-10 -5.38072e-08 1.5426e-07)
(-2.00468e-08 4.7299e-08 8.06595e-08)
(-3.06894e-08 3.05076e-08 9.53782e-08)
(-3.03481e-08 1.67353e-08 1.0529e-07)
(-2.80206e-08 7.45301e-09 1.13396e-07)
(-2.65207e-08 7.83473e-11 1.21792e-07)
(-2.70258e-08 -7.00088e-09 1.31931e-07)
(-3.10295e-08 -1.83637e-08 1.44902e-07)
(-3.85206e-08 -5.89972e-08 1.61652e-07)
(-7.47335e-08 4.40398e-08 2.09638e-08)
(-8.15695e-08 2.62313e-08 3.86733e-08)
(-8.2341e-08 1.22978e-08 4.75017e-08)
(-8.17342e-08 3.38998e-09 5.39859e-08)
(-8.24063e-08 -3.48225e-09 6.02895e-08)
(-8.59256e-08 -9.92648e-09 6.7546e-08)
(-9.38287e-08 -2.03787e-08 7.67605e-08)
(-1.07504e-07 -6.00957e-08 8.72115e-08)
(-6.01881e-08 2.37727e-08 1.01564e-09)
(-6.54007e-08 1.25158e-08 1.10371e-08)
(-6.54056e-08 3.61113e-09 1.96011e-08)
(-6.44754e-08 -3.11474e-09 2.60408e-08)
(-6.49816e-08 -9.06241e-09 3.17523e-08)
(-6.85599e-08 -1.46723e-08 3.77033e-08)
(-7.71087e-08 -2.26674e-08 4.38e-08)
(-9.31136e-08 -5.55647e-08 4.74739e-08)
(-5.09461e-08 1.66986e-08 3.52546e-10)
(-5.55081e-08 5.50343e-09 6.97753e-09)
(-5.54411e-08 -2.41239e-09 1.45072e-08)
(-5.45598e-08 -8.01413e-09 2.09543e-08)
(-5.51059e-08 -1.27572e-08 2.65014e-08)
(-5.88264e-08 -1.67878e-08 3.1531e-08)
(-6.77645e-08 -2.25181e-08 3.55697e-08)
(-8.4428e-08 -5.22467e-08 3.69408e-08)
(-4.59445e-08 1.43297e-08 1.10176e-09)
(-5.00359e-08 2.74578e-09 6.13904e-09)
(-5.01127e-08 -5.51282e-09 1.21556e-08)
(-4.94501e-08 -1.0918e-08 1.77997e-08)
(-5.01567e-08 -1.49203e-08 2.26835e-08)
(-5.40211e-08 -1.78535e-08 2.67145e-08)
(-6.31188e-08 -2.24692e-08 2.95129e-08)
(-7.98836e-08 -5.08659e-08 3.04137e-08)
(-4.3327e-08 1.33953e-08 1.29398e-09)
(-4.72445e-08 1.74402e-09 5.18295e-09)
(-4.74946e-08 -6.82779e-09 9.68573e-09)
(-4.70586e-08 -1.23429e-08 1.40833e-08)
(-4.79399e-08 -1.60895e-08 1.7939e-08)
(-5.19158e-08 -1.85734e-08 2.10037e-08)
(-6.10513e-08 -2.28213e-08 2.3043e-08)
(-7.77374e-08 -5.05553e-08 2.38591e-08)
(-4.18987e-08 1.29652e-08 1.08644e-09)
(-4.57911e-08 1.37565e-09 3.87437e-09)
(-4.61818e-08 -7.31278e-09 6.98455e-09)
(-4.59155e-08 -1.29498e-08 1.00533e-08)
(-4.69293e-08 -1.66947e-08 1.27718e-08)
(-5.09755e-08 -1.9108e-08 1.49235e-08)
(-6.01027e-08 -2.33088e-08 1.63718e-08)
(-7.66915e-08 -5.06849e-08 1.7066e-08)
(-4.11178e-08 1.27538e-08 6.97344e-10)
(-4.50182e-08 1.23643e-09 2.37218e-09)
(-4.54991e-08 -7.47168e-09 4.19496e-09)
(-4.53373e-08 -1.3183e-08 5.99197e-09)
(-4.64324e-08 -1.69956e-08 7.59373e-09)
(-5.05171e-08 -1.94662e-08 8.87051e-09)
(-5.96286e-08 -2.37135e-08 9.74998e-09)
(-7.61477e-08 -5.09068e-08 1.02169e-08)
(-4.07656e-08 1.26636e-08 2.3838e-10)
(-4.46716e-08 1.18833e-09 7.96427e-10)
(-4.51944e-08 -7.51581e-09 1.39674e-09)
(-4.5081e-08 -1.326e-08 1.98733e-09)
(-4.62136e-08 -1.71213e-08 2.51521e-09)
(-5.0315e-08 -1.96446e-08 2.9385e-09)
(-5.9417e-08 -2.39327e-08 3.2344e-09)
(-7.59015e-08 -5.10511e-08 3.39862e-09)
(5.64441e-08 -1.316e-07 8.70965e-08)
(4.68066e-08 -1.20956e-07 4.66181e-08)
(4.07332e-08 -1.14004e-07 3.57165e-08)
(3.80801e-08 -1.09911e-07 2.91819e-08)
(3.70712e-08 -1.07786e-07 2.2882e-08)
(3.6657e-08 -1.06765e-07 1.64181e-08)
(3.64421e-08 -1.0631e-07 9.86349e-09)
(3.63361e-08 -1.06141e-07 3.28794e-09)
(1.66647e-08 -1.25331e-07 8.42045e-08)
(1.38258e-08 -1.12331e-07 4.86401e-08)
(1.1428e-08 -1.04972e-07 3.83823e-08)
(1.02911e-08 -1.01043e-07 3.09481e-08)
(9.85531e-09 -9.91553e-08 2.38194e-08)
(9.66535e-09 -9.8281e-08 1.68747e-08)
(9.55443e-09 -9.78923e-08 1.00712e-08)
(9.49585e-09 -9.77456e-08 3.34849e-09)
(1.20888e-09 -1.26091e-07 8.49587e-08)
(2.57328e-09 -1.13031e-07 4.93778e-08)
(3.66822e-09 -1.05639e-07 3.89609e-08)
(3.75008e-09 -1.0168e-07 3.1386e-08)
(3.37255e-09 -9.9765e-08 2.41398e-08)
(2.9725e-09 -9.88689e-08 1.70937e-08)
(2.70051e-09 -9.84651e-08 1.01988e-08)
(2.57101e-09 -9.83109e-08 3.39044e-09)
(-3.81616e-08 -1.34189e-07 8.94322e-08)
(-2.99507e-08 -1.23363e-07 4.87928e-08)
(-2.5147e-08 -1.16312e-07 3.74269e-08)
(-2.35519e-08 -1.12126e-07 3.04905e-08)
(-2.33696e-08 -1.09919e-07 2.38467e-08)
(-2.35566e-08 -1.08833e-07 1.70795e-08)
(-2.37317e-08 -1.08334e-07 1.02494e-08)
(-2.38172e-08 -1.08143e-07 3.41476e-09)
)
;
        gradient        nonuniform List<vector> 
192
(
(4.60617e-06 1.07375e-06 -1.23846e-07)
(4.31714e-06 2.72963e-07 -1.9888e-07)
(4.40424e-06 2.75808e-08 -2.13534e-07)
(4.53571e-06 1.54345e-08 -2.16447e-07)
(4.70395e-06 8.139e-08 -2.18543e-07)
(4.93917e-06 1.98933e-07 -2.19673e-07)
(5.24428e-06 3.41746e-07 -2.19008e-07)
(5.73601e-06 2.46087e-07 -2.1688e-07)
(3.89344e-06 7.83803e-07 -1.87482e-07)
(3.69329e-06 1.98547e-07 -2.92095e-07)
(3.74691e-06 1.14121e-08 -3.11003e-07)
(3.85299e-06 8.13402e-09 -3.15852e-07)
(4.01067e-06 7.56178e-08 -3.20287e-07)
(4.25322e-06 1.97275e-07 -3.22818e-07)
(4.60203e-06 3.49022e-07 -3.20274e-07)
(5.24603e-06 2.48585e-07 -3.12501e-07)
(3.4304e-06 5.94224e-07 -1.07065e-07)
(3.32976e-06 1.49461e-07 -1.70155e-07)
(3.38743e-06 3.82843e-09 -1.78758e-07)
(3.4869e-06 6.1511e-09 -1.78272e-07)
(3.64115e-06 7.44233e-08 -1.78527e-07)
(3.88783e-06 1.98944e-07 -1.78001e-07)
(4.25575e-06 3.52063e-07 -1.75755e-07)
(4.94409e-06 2.50381e-07 -1.75819e-07)
(3.14787e-06 5.06626e-07 -4.71719e-08)
(3.07804e-06 1.26869e-07 -7.60713e-08)
(3.14166e-06 3.29903e-09 -7.78302e-08)
(3.24115e-06 8.365e-09 -7.46457e-08)
(3.39506e-06 7.58886e-08 -7.26311e-08)
(3.64311e-06 2.00047e-07 -7.15736e-08)
(4.01684e-06 3.51205e-07 -7.17234e-08)
(4.71547e-06 2.51065e-07 -7.4934e-08)
(2.98187e-06 4.71009e-07 -1.96191e-08)
(2.92087e-06 1.18813e-07 -3.08432e-08)
(2.98779e-06 5.25696e-09 -2.99944e-08)
(3.08889e-06 1.13508e-08 -2.68794e-08)
(3.24376e-06 7.74955e-08 -2.48447e-08)
(3.49239e-06 1.99853e-07 -2.43748e-08)
(3.8666e-06 3.48703e-07 -2.58508e-08)
(4.56322e-06 2.50538e-07 -2.93816e-08)
(2.88412e-06 4.56184e-07 -8.78113e-09)
(2.82637e-06 1.16501e-07 -1.29956e-08)
(2.89494e-06 7.26507e-09 -1.17903e-08)
(2.99748e-06 1.35152e-08 -9.70861e-09)
(3.15333e-06 7.83934e-08 -8.44981e-09)
(3.40201e-06 1.99041e-07 -8.49369e-09)
(3.77488e-06 3.46199e-07 -1.00529e-08)
(4.46727e-06 2.49359e-07 -1.27946e-08)
(2.82893e-06 4.49245e-07 -4.11955e-09)
(2.77269e-06 1.15809e-07 -5.85557e-09)
(2.84207e-06 8.54551e-09 -5.09331e-09)
(2.94552e-06 1.46917e-08 -4.01708e-09)
(3.102e-06 7.87106e-08 -3.44218e-09)
(3.35049e-06 1.9825e-07 -3.63867e-09)
(3.7219e-06 3.44403e-07 -4.68476e-09)
(4.41092e-06 2.4821e-07 -6.33972e-09)
(2.80387e-06 4.46216e-07 -1.25677e-09)
(2.74828e-06 1.1553e-07 -1.77439e-09)
(2.818e-06 9.10445e-09 -1.53616e-09)
(2.92188e-06 1.51666e-08 -1.21575e-09)
(3.07863e-06 7.87719e-08 -1.06131e-09)
(3.32697e-06 1.97799e-07 -1.15447e-09)
(3.69751e-06 3.43499e-07 -1.51223e-09)
(4.38479e-06 2.47541e-07 -2.05888e-09)
(1.98571e-08 1.24457e-06 4.80127e-06)
(4.55036e-08 5.26647e-07 4.49797e-06)
(5.03376e-08 2.90559e-07 4.58632e-06)
(4.8283e-08 2.42017e-07 4.72484e-06)
(4.5752e-08 2.60232e-07 4.89882e-06)
(4.31942e-08 3.1976e-07 5.13551e-06)
(4.33791e-08 3.84961e-07 5.44256e-06)
(5.21752e-08 2.15183e-07 5.9433e-06)
(-4.08814e-08 1.14841e-06 4.3477e-06)
(-4.90396e-08 5.12229e-07 4.07725e-06)
(-4.85066e-08 2.84537e-07 4.11329e-06)
(-4.98358e-08 2.34921e-07 4.22075e-06)
(-5.17746e-08 2.53526e-07 4.38106e-06)
(-5.35563e-08 3.17148e-07 4.61882e-06)
(-5.18743e-08 3.95322e-07 4.95995e-06)
(-4.11961e-08 2.22114e-07 5.61244e-06)
(4.74128e-08 1.15454e-06 4.29634e-06)
(7.08816e-08 5.18975e-07 4.0252e-06)
(8.22621e-08 2.89747e-07 4.0592e-06)
(9.22175e-08 2.38742e-07 4.16544e-06)
(1.00695e-07 2.56503e-07 4.32497e-06)
(1.07833e-07 3.19647e-07 4.56196e-06)
(1.10762e-07 3.97295e-07 4.90249e-06)
(1.03262e-07 2.22901e-07 5.55791e-06)
(-1.23084e-08 1.2666e-06 4.65861e-06)
(-2.3214e-08 5.47032e-07 4.35802e-06)
(-1.67377e-08 3.05857e-07 4.44098e-06)
(-6.291e-09 2.53348e-07 4.576e-06)
(2.68751e-09 2.69136e-07 4.7477e-06)
(1.04694e-08 3.27206e-07 4.9823e-06)
(1.46665e-08 3.9073e-07 5.28764e-06)
(9.0649e-09 2.17368e-07 5.79699e-06)
(-4.38724e-06 1.00586e-06 -1.17043e-07)
(-4.09362e-06 2.04931e-07 -1.78366e-07)
(-4.17617e-06 -4.91404e-08 -1.82121e-07)
(-4.30338e-06 -7.16942e-08 -1.76773e-07)
(-4.46816e-06 -1.57115e-08 -1.72491e-07)
(-4.70151e-06 9.31579e-08 -1.68522e-07)
(-5.00927e-06 2.29531e-07 -1.63658e-07)
(-5.50958e-06 1.29489e-07 -1.58232e-07)
(-3.66723e-06 7.28157e-07 -1.81619e-07)
(-3.46726e-06 1.42044e-07 -2.7499e-07)
(-3.51647e-06 -5.60184e-08 -2.84323e-07)
(-3.61731e-06 -7.17802e-08 -2.81448e-07)
(-3.76965e-06 -1.58424e-08 -2.79746e-07)
(-4.00742e-06 9.60008e-08 -2.77411e-07)
(-4.35578e-06 2.40522e-07 -2.70964e-07)
(-5.00961e-06 1.34894e-07 -2.59907e-07)
(-3.21073e-06 5.49236e-07 -1.01948e-07)
(-3.10867e-06 1.02214e-07 -1.56395e-07)
(-3.16148e-06 -5.56038e-08 -1.57248e-07)
(-3.25522e-06 -6.71194e-08 -1.50026e-07)
(-3.40312e-06 -1.16765e-08 -1.44664e-07)
(-3.64324e-06 1.01938e-07 -1.39594e-07)
(-4.00802e-06 2.47035e-07 -1.33712e-07)
(-4.70321e-06 1.39804e-07 -1.30725e-07)
(-2.93554e-06 4.69804e-07 -4.3422e-08)
(-2.86369e-06 8.67335e-08 -6.59963e-08)
(-2.92206e-06 -4.96534e-08 -6.18082e-08)
(-3.01542e-06 -5.91975e-08 -5.31308e-08)
(-3.16235e-06 -5.41102e-09 -4.63135e-08)
(-3.40274e-06 1.06953e-07 -4.12445e-08)
(-3.77148e-06 2.49392e-07 -3.81192e-08)
(-4.47417e-06 1.43407e-07 -3.85661e-08)
(-2.77488e-06 4.39813e-07 -1.71534e-08)
(-2.71159e-06 8.38208e-08 -2.40508e-08)
(-2.77301e-06 -4.27411e-08 -1.89002e-08)
(-2.86767e-06 -5.16255e-08 -1.16032e-08)
(-3.01512e-06 2.09661e-10 -5.75745e-09)
(-3.2554e-06 1.10133e-07 -1.99871e-09)
(-3.62347e-06 2.49715e-07 -7.23065e-10)
(-4.32227e-06 1.45414e-07 -1.91503e-09)
(-2.68049e-06 4.28593e-07 -7.27909e-09)
(-2.62032e-06 8.49815e-08 -8.75698e-09)
(-2.68321e-06 -3.72078e-08 -4.68811e-09)
(-2.77909e-06 -4.60552e-08 2.98465e-10)
(-2.92721e-06 4.19349e-09 4.29626e-09)
(-3.16711e-06 1.11988e-07 6.6814e-09)
(-3.53312e-06 2.49477e-07 7.19458e-09)
(-4.22649e-06 1.46249e-07 6.22234e-09)
(-2.62727e-06 4.23772e-07 -3.31616e-09)
(-2.56852e-06 8.64083e-08 -3.55325e-09)
(-2.63213e-06 -3.3687e-08 -1.16534e-09)
(-2.72879e-06 -4.26414e-08 1.61108e-09)
(-2.87735e-06 6.59261e-09 3.82864e-09)
(-3.11679e-06 1.13031e-07 5.11702e-09)
(-3.48091e-06 2.49256e-07 5.35397e-09)
(-4.17023e-06 1.46492e-07 4.79709e-09)