/*--------------------------------*- C++ -*----------------------------------*\
| =========                 |                                                 |
| \\      /  F ield         | OpenFOAM: The Open Source CFD Toolbox           |
|  \\    /   O peration     | Version:  v1912                                 |
|   \\  /    A nd           | Website:  www.openfoam.com                      |
|    \\/     M anipulation  |                                                 |
\*---------------------------------------------------------------------------*/
FoamFile
{
    version     2.0;
    format      ascii;
    class       volVectorField;
    location    "0.49/solid";
    object      D_0;
}
// * * * * * * * * * * * * * * * * * * * * * * * * * * * * * * * * * * * * * //

dimensions      [0 1 0 0 0 0 0];


internalField   nonuniform List<vector> 
256
(
(2.04521e-08 3.21071e-08 2.17887e-08)
(1.9693e-09 1.8617e-08 1.97244e-08)
(-1.47703e-09 1.84067e-08 1.97898e-08)
(-1.95673e-08 3.11603e-08 2.20676e-08)
(3.23288e-08 2.50715e-08 3.9242e-08)
(5.93753e-09 1.74507e-08 3.65993e-08)
(-3.94158e-09 1.69823e-08 3.68554e-08)
(-2.98252e-08 2.34439e-08 4.01121e-08)
(3.38204e-08 1.51401e-08 4.73721e-08)
(7.16771e-09 1.21915e-08 4.46095e-08)
(-3.35402e-09 1.14976e-08 4.50196e-08)
(-2.95169e-08 1.29121e-08 4.86932e-08)
(3.36912e-08 7.31488e-09 5.32085e-08)
(7.55123e-09 5.68034e-09 5.02803e-08)
(-1.66298e-09 4.78615e-09 5.08014e-08)
(-2.7323e-08 4.52755e-09 5.48569e-08)
(3.46141e-08 5.31111e-10 5.89507e-08)
(8.35368e-09 -1.57668e-09 5.58582e-08)
(-1.38388e-10 -2.65885e-09 5.64628e-08)
(-2.59166e-08 -2.78506e-09 6.08486e-08)
(3.7695e-08 -6.44053e-09 6.566e-08)
(1.01131e-08 -9.54319e-09 6.24266e-08)
(6.80582e-10 -1.08124e-08 6.30996e-08)
(-2.64245e-08 -1.02763e-08 6.7763e-08)
(4.42991e-08 -1.76058e-08 7.42937e-08)
(1.31765e-08 -2.03481e-08 7.10895e-08)
(4.32764e-10 -2.17993e-08 7.18223e-08)
(-3.02561e-08 -2.19572e-08 7.65734e-08)
(5.43216e-08 -5.51547e-08 8.42411e-08)
(1.6571e-08 -5.31091e-08 8.15067e-08)
(3.89878e-12 -5.45774e-08 8.2282e-08)
(-3.73738e-08 -5.9657e-08 8.66424e-08)
(1.49056e-08 1.54217e-08 2.76216e-09)
(9.29455e-10 4.2551e-09 3.62207e-09)
(-6.36019e-10 4.06853e-09 3.75721e-09)
(-1.41732e-08 1.4579e-08 3.15758e-09)
(2.37711e-08 1.24012e-08 1.31278e-08)
(3.86454e-09 5.92718e-09 1.47878e-08)
(-2.38528e-09 5.43512e-09 1.51065e-08)
(-2.17415e-08 1.07708e-08 1.40545e-08)
(2.46713e-08 6.7971e-09 2.11433e-08)
(4.80241e-09 4.17484e-09 2.31019e-08)
(-1.76599e-09 3.44892e-09 2.35558e-08)
(-2.11083e-08 4.53892e-09 2.24654e-08)
(2.43494e-08 1.04207e-09 2.69999e-08)
(5.09715e-09 -4.98964e-10 2.90438e-08)
(-1.96806e-10 -1.41866e-09 2.95998e-08)
(-1.89287e-08 -1.76926e-09 2.86246e-08)
(2.51098e-08 -4.84191e-09 3.22111e-08)
(5.82668e-09 -6.90648e-09 3.42662e-08)
(1.23097e-09 -8.00671e-09 3.4902e-08)
(-1.75207e-08 -8.17227e-09 3.4074e-08)
(2.80775e-08 -1.1062e-08 3.76895e-08)
(7.52155e-09 -1.41548e-08 3.97325e-08)
(1.97617e-09 -1.54352e-08 4.04332e-08)
(-1.80428e-08 -1.49015e-08 3.9746e-08)
(3.47207e-08 -1.99973e-08 4.33231e-08)
(1.05485e-08 -2.27143e-08 4.53735e-08)
(1.65355e-09 -2.41655e-08 4.61228e-08)
(-2.2017e-08 -2.43301e-08 4.55269e-08)
(4.50546e-08 -5.09065e-08 4.66798e-08)
(1.39217e-08 -4.84189e-08 4.87707e-08)
(1.16648e-09 -4.98636e-08 4.95374e-08)
(-2.95341e-08 -5.5336e-08 4.89429e-08)
(1.13287e-08 1.05519e-08 1.27887e-09)
(3.96378e-11 9.59302e-10 2.36574e-09)
(1.14782e-10 7.94492e-10 2.46571e-09)
(-1.07416e-08 9.82095e-09 1.56376e-09)
(1.81513e-08 5.87717e-09 7.96404e-09)
(2.02675e-09 3.51625e-10 1.00179e-08)
(-9.46781e-10 -1.11127e-10 1.02624e-08)
(-1.65175e-08 4.38547e-09 8.66165e-09)
(1.87337e-08 7.79557e-10 1.49575e-08)
(2.69963e-09 -1.52788e-09 1.73406e-08)
(-2.89004e-10 -2.22618e-09 1.76925e-08)
(-1.57876e-08 -1.3523e-09 1.59698e-08)
(1.83663e-08 -3.90299e-09 2.08344e-08)
(2.92344e-09 -5.3701e-09 2.33217e-08)
(1.16011e-09 -6.26408e-09 2.37585e-08)
(-1.37492e-08 -6.60254e-09 2.21006e-08)
(1.90727e-08 -8.59801e-09 2.58895e-08)
(3.59363e-09 -1.06512e-08 2.84128e-08)
(2.4894e-09 -1.17261e-08 2.89192e-08)
(-1.24396e-08 -1.18269e-08 2.7365e-08)
(2.20348e-08 -1.33167e-08 3.04883e-08)
(5.23854e-09 -1.64161e-08 3.3021e-08)
(3.15626e-09 -1.76696e-08 3.35839e-08)
(-1.30778e-08 -1.70586e-08 3.21344e-08)
(2.87677e-08 -2.00948e-08 3.41914e-08)
(8.24083e-09 -2.28227e-08 3.67226e-08)
(2.75511e-09 -2.42424e-08 3.73238e-08)
(-1.72388e-08 -2.4325e-08 3.59579e-08)
(3.91655e-08 -4.79374e-08 3.54735e-08)
(1.15941e-08 -4.5456e-08 3.80206e-08)
(2.20237e-09 -4.68626e-08 3.86283e-08)
(-2.49015e-08 -5.22507e-08 3.72722e-08)
(9.6969e-09 9.12198e-09 1.38906e-09)
(-3.26375e-10 4.03682e-10 2.06011e-09)
(4.00989e-10 2.54332e-10 2.13072e-09)
(-9.22257e-09 8.47345e-09 1.5912e-09)
(1.55204e-08 3.21998e-09 6.24032e-09)
(1.17828e-09 -1.75481e-09 7.53647e-09)
(-3.64559e-10 -2.17973e-09 7.71454e-09)
(-1.41874e-08 1.87209e-09 6.74895e-09)
(1.60125e-08 -2.49203e-09 1.17755e-08)
(1.7074e-09 -4.60177e-09 1.32889e-08)
(2.55178e-10 -5.25503e-09 1.3549e-08)
(-1.35408e-08 -4.46675e-09 1.25247e-08)
(1.57111e-08 -7.00486e-09 1.69195e-08)
(1.90058e-09 -8.42568e-09 1.8495e-08)
(1.57296e-09 -9.27505e-09 1.88219e-08)
(-1.17251e-08 -9.55406e-09 1.787e-08)
(1.6453e-08 -1.09556e-08 2.13692e-08)
(2.54348e-09 -1.3004e-08 2.29628e-08)
(2.7915e-09 -1.40365e-08 2.33465e-08)
(-1.05856e-08 -1.4046e-08 2.2492e-08)
(1.94438e-08 -1.45968e-08 2.50504e-08)
(4.15691e-09 -1.77017e-08 2.66486e-08)
(3.37543e-09 -1.89145e-08 2.70785e-08)
(-1.13633e-08 -1.82108e-08 2.63148e-08)
(2.62006e-08 -2.0271e-08 2.7629e-08)
(7.12491e-09 -2.30361e-08 2.92305e-08)
(2.91391e-09 -2.44166e-08 2.96905e-08)
(-1.56379e-08 -2.43816e-08 2.8991e-08)
(3.65406e-08 -4.68308e-08 2.85236e-08)
(1.04439e-08 -4.45176e-08 3.01619e-08)
(2.31354e-09 -4.58879e-08 3.06246e-08)
(-2.33182e-08 -5.10337e-08 2.99073e-08)
(9.02408e-09 8.51222e-09 1.31954e-09)
(-4.20071e-10 2.44844e-10 1.65538e-09)
(4.48484e-10 1.07423e-10 1.70486e-09)
(-8.62597e-09 7.92414e-09 1.461e-09)
(1.44449e-08 2.15326e-09 4.95002e-09)
(9.02998e-10 -2.54123e-09 5.60903e-09)
(-2.6105e-10 -2.93382e-09 5.73544e-09)
(-1.33204e-08 9.21158e-10 5.31031e-09)
(1.49447e-08 -4.01569e-09 9.06843e-09)
(1.37274e-09 -6.02587e-09 9.8421e-09)
(2.83149e-10 -6.63738e-09 1.00285e-08)
(-1.28103e-08 -5.85313e-09 9.60462e-09)
(1.47277e-08 -8.65662e-09 1.30773e-08)
(1.55459e-09 -1.00554e-08 1.38798e-08)
(1.48439e-09 -1.08612e-08 1.41164e-08)
(-1.12023e-08 -1.10669e-08 1.3765e-08)
(1.55237e-08 -1.23388e-08 1.6595e-08)
(2.18293e-09 -1.43824e-08 1.74036e-08)
(2.60404e-09 -1.5373e-08 1.76835e-08)
(-1.02276e-08 -1.52982e-08 1.74153e-08)
(1.85313e-08 -1.55139e-08 1.94011e-08)
(3.76934e-09 -1.86143e-08 2.02145e-08)
(3.1181e-09 -1.97879e-08 2.05301e-08)
(-1.11165e-08 -1.90081e-08 2.03321e-08)
(2.52598e-08 -2.07935e-08 2.12983e-08)
(6.69634e-09 -2.35798e-08 2.21233e-08)
(2.61556e-09 -2.49247e-08 2.24619e-08)
(-1.54412e-08 -2.4797e-08 2.23055e-08)
(3.55124e-08 -4.67146e-08 2.21262e-08)
(9.97723e-09 -4.45391e-08 2.29883e-08)
(1.98234e-09 -4.58787e-08 2.33283e-08)
(-2.31006e-08 -5.08246e-08 2.31498e-08)
(8.73059e-09 8.18388e-09 1.04659e-09)
(-4.31594e-10 1.48956e-10 1.2025e-09)
(4.32908e-10 2.02646e-11 1.23542e-09)
(-8.38037e-09 7.63763e-09 1.14009e-09)
(1.40014e-08 1.68707e-09 3.61597e-09)
(8.30016e-10 -2.87057e-09 3.92384e-09)
(-2.96166e-10 -3.23923e-09 4.00838e-09)
(-1.30113e-08 5.38412e-10 3.85554e-09)
(1.45321e-08 -4.67766e-09 6.45479e-09)
(1.27698e-09 -6.64242e-09 6.81704e-09)
(1.77652e-10 -7.22196e-09 6.94242e-09)
(-1.26218e-08 -6.41198e-09 6.81383e-09)
(1.4377e-08 -9.45353e-09 9.25492e-09)
(1.45192e-09 -1.08429e-08 9.62967e-09)
(1.2927e-09 -1.16142e-08 9.78976e-09)
(-1.11655e-08 -1.17558e-08 9.7189e-09)
(1.52107e-08 -1.31209e-08 1.17399e-08)
(2.06743e-09 -1.51583e-08 1.21177e-08)
(2.33917e-09 -1.61152e-08 1.23083e-08)
(-1.03122e-08 -1.59761e-08 1.22976e-08)
(1.82189e-08 -1.62009e-08 1.3717e-08)
(3.62898e-09 -1.92894e-08 1.41014e-08)
(2.80244e-09 -2.04317e-08 1.43172e-08)
(-1.12756e-08 -1.95997e-08 1.43537e-08)
(2.49058e-08 -2.14033e-08 1.50737e-08)
(6.51911e-09 -2.41885e-08 1.54728e-08)
(2.27169e-09 -2.55055e-08 1.57049e-08)
(-1.56213e-08 -2.53225e-08 1.57654e-08)
(3.50821e-08 -4.69758e-08 1.57784e-08)
(9.76692e-09 -4.48675e-08 1.62045e-08)
(1.61558e-09 -4.61832e-08 1.64376e-08)
(-2.32578e-08 -5.10139e-08 1.64821e-08)
(8.58765e-09 8.00753e-09 6.61796e-10)
(-4.29789e-10 9.24493e-11 7.30058e-10)
(4.1606e-10 -3.0595e-11 7.48931e-10)
(-8.26514e-09 7.4873e-09 7.15055e-10)
(1.37959e-08 1.47297e-09 2.20088e-09)
(8.07512e-10 -3.01843e-09 2.33572e-09)
(-3.3679e-10 -3.37158e-09 2.3843e-09)
(-1.28852e-08 3.77591e-10 2.33777e-09)
(1.43501e-08 -4.95708e-09 3.86493e-09)
(1.24399e-09 -6.90136e-09 4.02372e-09)
(8.9629e-11 -7.45985e-09 4.09599e-09)
(-1.2575e-08 -6.62404e-09 4.07098e-09)
(1.42299e-08 -9.81628e-09 5.50654e-09)
(1.41282e-09 -1.12009e-08 5.67091e-09)
(1.15062e-09 -1.19492e-08 5.76356e-09)
(-1.12116e-08 -1.20464e-08 5.77417e-09)
(1.5082e-08 -1.35425e-08 6.97322e-09)
(2.01707e-09 -1.55738e-08 7.13996e-09)
(2.151e-09 -1.65078e-08 7.25067e-09)
(-1.04327e-08 -1.63272e-08 7.29649e-09)
(1.80838e-08 -1.66612e-08 8.1494e-09)
(3.55941e-09 -1.97372e-08 8.32211e-09)
(2.58182e-09 -2.08582e-08 8.4479e-09)
(-1.144e-08 -1.9995e-08 8.52011e-09)
(2.47376e-08 -2.18885e-08 8.97627e-09)
(6.42341e-09 -2.46628e-08 9.16022e-09)
(2.03221e-09 -2.59608e-08 9.29578e-09)
(-1.57961e-08 -2.57504e-08 9.38021e-09)
(3.48619e-08 -4.72799e-08 9.44904e-09)
(9.64768e-09 -4.51923e-08 9.64844e-09)
(1.36113e-09 -4.64917e-08 9.78452e-09)
(-2.34178e-08 -5.12692e-08 9.8603e-09)
(8.52475e-09 7.93045e-09 2.25514e-10)
(-4.28747e-10 6.75933e-11 2.44978e-10)
(4.08333e-10 -5.2693e-11 2.51128e-10)
(-8.21493e-09 7.42266e-09 2.42807e-10)
(1.37061e-08 1.38717e-09 7.38415e-10)
(7.9802e-10 -3.07645e-09 7.76844e-10)
(-3.56321e-10 -3.42202e-09 7.92686e-10)
(-1.28322e-08 3.17641e-10 7.82922e-10)
(1.4271e-08 -5.06087e-09 1.28681e-09)
(1.22946e-09 -6.99681e-09 1.33209e-09)
(4.7506e-11 -7.54493e-09 1.3557e-09)
(-1.25593e-08 -6.69475e-09 1.35394e-09)
(1.41653e-08 -9.95776e-09 1.82673e-09)
(1.39441e-09 -1.13401e-08 1.87372e-09)
(1.08298e-09 -1.20769e-08 1.90405e-09)
(-1.12389e-08 -1.21521e-08 1.91416e-09)
(1.50239e-08 -1.37286e-08 2.31056e-09)
(1.99198e-09 -1.57559e-08 2.35855e-09)
(2.06144e-09 -1.66785e-08 2.39485e-09)
(-1.04944e-08 -1.64779e-08 2.41643e-09)
(1.80205e-08 -1.68907e-08 2.701e-09)
(3.52397e-09 -1.9959e-08 2.75135e-09)
(2.47648e-09 -2.10693e-08 2.79267e-09)
(-1.1522e-08 -2.01917e-08 2.82269e-09)
(2.46572e-08 -2.21482e-08 2.9796e-09)
(6.37477e-09 -2.49139e-08 3.03407e-09)
(1.91715e-09 -2.62024e-08 3.07866e-09)
(-1.5883e-08 -2.59811e-08 3.1124e-09)
(3.47558e-08 -4.74638e-08 3.1456e-09)
(9.58696e-09 -4.5379e-08 3.20501e-09)
(1.23855e-09 -4.66703e-08 3.24976e-09)
(-2.34981e-08 -5.14285e-08 3.28086e-09)
)
;

boundaryField
{
    interface
    {
        type            solidTraction;
        traction        uniform (0 0 0);
        pressure        uniform 0;
        secondOrder     false;
        setEffectiveTraction false;
        relaxationFactor 1;
        value           nonuniform List<vector> 
192
(
(7.80076e-08 4.53023e-08 2.02827e-08)
(8.62821e-08 2.84135e-08 3.68281e-08)
(8.88612e-08 1.54807e-08 4.47808e-08)
(9.03714e-08 7.51339e-09 5.05804e-08)
(9.33975e-08 1.5322e-09 5.62959e-08)
(9.94285e-08 -4.01903e-09 6.2991e-08)
(1.09863e-07 -1.34488e-08 7.1633e-08)
(1.25977e-07 -5.21528e-08 8.16059e-08)
(6.36138e-08 2.50908e-08 4.8105e-10)
(6.99846e-08 1.48426e-08 9.58303e-09)
(7.1558e-08 6.9417e-09 1.73712e-08)
(7.25637e-08 1.15178e-09 2.31683e-08)
(7.53002e-08 -3.90972e-09 2.83253e-08)
(8.13128e-08 -8.659e-09 3.3774e-08)
(9.2332e-08 -1.57527e-08 3.94399e-08)
(1.10639e-07 -4.78745e-08 4.28904e-08)
(5.42594e-08 1.79219e-08 -2.35035e-11)
(5.98196e-08 7.72841e-09 5.90102e-09)
(6.11242e-08 8.33355e-10 1.27925e-08)
(6.20017e-08 -3.81814e-09 1.86745e-08)
(6.46395e-08 -7.6807e-09 2.37249e-08)
(7.06939e-08 -1.08926e-08 2.83296e-08)
(8.20339e-08 -1.58117e-08 3.2061e-08)
(1.00959e-07 -4.4883e-08 3.33448e-08)
(4.90994e-08 1.54263e-08 8.12784e-10)
(5.40402e-08 4.79889e-09 5.31352e-09)
(5.53274e-08 -2.4443e-09 1.08281e-08)
(5.62701e-08 -6.89461e-09 1.60096e-08)
(5.89377e-08 -1.00222e-08 2.04818e-08)
(6.50346e-08 -1.21596e-08 2.41743e-08)
(7.64664e-08 -1.59963e-08 2.67519e-08)
(9.54644e-08 -4.37675e-08 2.76101e-08)
(4.6354e-08 1.43795e-08 1.07787e-09)
(5.10012e-08 3.63342e-09 4.57012e-09)
(5.23364e-08 -3.94495e-09 8.69815e-09)
(5.33827e-08 -8.51173e-09 1.27437e-08)
(5.61151e-08 -1.13877e-08 1.62842e-08)
(6.22342e-08 -1.30796e-08 1.90948e-08)
(7.36414e-08 -1.65478e-08 2.09744e-08)
(9.25294e-08 -4.36575e-08 2.17614e-08)
(4.48393e-08 1.38669e-08 9.37428e-10)
(4.9377e-08 3.13746e-09 3.45361e-09)
(5.07633e-08 -4.58369e-09 6.30605e-09)
(5.18889e-08 -9.28375e-09 9.13037e-09)
(5.46702e-08 -1.21602e-08 1.16294e-08)
(6.07895e-08 -1.37768e-08 1.3605e-08)
(7.2137e-08 -1.7187e-08 1.49431e-08)
(9.08982e-08 -4.39329e-08 1.56157e-08)
(4.40065e-08 1.36034e-08 6.10302e-10)
(4.85005e-08 2.9136e-09 2.12701e-09)
(4.99202e-08 -4.84851e-09 3.79958e-09)
(5.10916e-08 -9.63318e-09 5.45355e-09)
(5.38985e-08 -1.25788e-08 6.92646e-09)
(6.00085e-08 -1.4247e-08 8.09975e-09)
(7.1304e-08 -1.76934e-08 8.91407e-09)
(8.99728e-08 -4.42508e-08 9.36743e-09)
(4.36301e-08 1.34882e-08 2.09778e-10)
(4.81056e-08 2.82374e-09 7.15964e-10)
(4.95399e-08 -4.94601e-09 1.26699e-09)
(5.07309e-08 -9.76938e-09 1.81057e-09)
(5.35477e-08 -1.27645e-08 2.29602e-09)
(5.96503e-08 -1.4482e-08 2.68518e-09)
(7.09175e-08 -1.79639e-08 2.95947e-09)
(8.95395e-08 -4.44428e-08 3.11906e-09)
(2.06898e-08 4.73649e-08 8.18305e-08)
(3.28763e-08 3.14675e-08 9.55093e-08)
(3.44268e-08 1.86318e-08 1.04743e-07)
(3.42746e-08 1.02096e-08 1.12305e-07)
(3.51698e-08 3.64406e-09 1.20221e-07)
(3.82225e-08 -2.6047e-09 1.29901e-07)
(4.48298e-08 -1.29604e-08 1.42395e-07)
(5.49571e-08 -5.25468e-08 1.58557e-07)
(1.47005e-09 3.26981e-08 7.414e-08)
(5.34172e-09 2.36721e-08 8.766e-08)
(6.58054e-09 1.56118e-08 9.61297e-08)
(6.95044e-09 8.49257e-09 1.03147e-07)
(7.73269e-09 1.4599e-09 1.10737e-07)
(9.47396e-09 -5.73536e-09 1.20297e-07)
(1.25597e-08 -1.5578e-08 1.33251e-07)
(1.60824e-08 -5.04184e-08 1.51751e-07)
(-8.90769e-10 3.25681e-08 7.35708e-08)
(-3.06251e-09 2.32898e-08 8.72714e-08)
(-2.33209e-09 1.49841e-08 9.58698e-08)
(-5.17806e-10 7.64696e-09 1.02983e-07)
(1.11023e-09 4.15686e-10 1.10647e-07)
(2.01571e-09 -6.97259e-09 1.20266e-07)
(1.80479e-09 -1.70038e-08 1.33273e-07)
(1.289e-09 -5.18765e-08 1.51853e-07)
(-1.97063e-08 4.67052e-08 8.03493e-08)
(-3.00853e-08 3.01004e-08 9.465e-08)
(-2.9692e-08 1.65984e-08 1.04268e-07)
(-2.73683e-08 7.5664e-09 1.12115e-07)
(-2.58521e-08 4.41417e-10 1.20253e-07)
(-2.6265e-08 -6.34513e-09 1.30112e-07)
(-3.00436e-08 -1.72374e-08 1.42763e-07)
(-3.72247e-08 -5.70209e-08 1.59155e-07)
(-7.44418e-08 4.35086e-08 2.06498e-08)
(-8.10404e-08 2.59315e-08 3.79614e-08)
(-8.17639e-08 1.22866e-08 4.65039e-08)
(-8.11578e-08 3.62744e-09 5.27361e-08)
(-8.18131e-08 -3.00977e-09 5.87823e-08)
(-8.52496e-08 -9.19155e-09 6.57477e-08)
(-9.29478e-08 -1.922e-08 7.46203e-08)
(-1.06274e-07 -5.81326e-08 8.47575e-08)
(-6.01027e-08 2.35577e-08 9.51137e-10)
(-6.51773e-08 1.25046e-08 1.07276e-08)
(-6.5163e-08 3.83572e-09 1.90331e-08)
(-6.42469e-08 -2.66622e-09 2.52312e-08)
(-6.47496e-08 -8.39381e-09 3.07048e-08)
(-6.82587e-08 -1.37775e-08 3.64094e-08)
(-7.66063e-08 -2.14573e-08 4.22726e-08)
(-9.22298e-08 -5.37438e-08 4.5825e-08)
(-5.09728e-08 1.66358e-08 3.26129e-10)
(-5.54674e-08 5.64699e-09 6.7732e-09)
(-5.53995e-08 -2.04437e-09 1.4078e-08)
(-5.45356e-08 -7.43961e-09 2.02998e-08)
(-5.50795e-08 -1.19948e-08 2.56314e-08)
(-5.87298e-08 -1.58589e-08 3.04646e-08)
(-6.74621e-08 -2.13691e-08 3.43632e-08)
(-8.37473e-08 -5.05959e-08 3.57184e-08)
(-4.60164e-08 1.4326e-08 1.06229e-09)
(-5.00718e-08 2.95164e-09 5.94973e-09)
(-5.01552e-08 -5.08235e-09 1.17804e-08)
(-4.95082e-08 -1.02929e-08 1.72334e-08)
(-5.02086e-08 -1.41365e-08 2.19391e-08)
(-5.39988e-08 -1.69478e-08 2.58246e-08)
(-6.28896e-08 -2.13929e-08 2.85417e-08)
(-7.92884e-08 -4.93325e-08 2.94572e-08)
(-4.34133e-08 1.34107e-08 1.25046e-09)
(-4.73039e-08 1.96724e-09 5.01635e-09)
(-4.75609e-08 -6.38268e-09 9.37494e-09)
(-4.7137e-08 -1.17127e-08 1.36251e-08)
(-4.80074e-08 -1.53197e-08 1.73471e-08)
(-5.19058e-08 -1.77048e-08 2.03103e-08)
(-6.0836e-08 -2.18009e-08 2.23014e-08)
(-7.7168e-08 -4.90971e-08 2.31348e-08)
(-4.19883e-08 1.29856e-08 1.0499e-09)
(-4.58542e-08 1.59876e-09 3.74679e-09)
(-4.62497e-08 -6.87347e-09 6.75506e-09)
(-4.5992e-08 -1.23332e-08 9.7213e-09)
(-4.69914e-08 -1.59487e-08 1.23489e-08)
(-5.09583e-08 -1.82725e-08 1.44346e-08)
(-5.98825e-08 -2.2327e-08 1.58542e-08)
(-7.61262e-08 -4.92749e-08 1.65615e-08)
(-4.12075e-08 1.27749e-08 6.73705e-10)
(-4.50805e-08 1.45505e-09 2.29302e-09)
(-4.5564e-08 -7.04245e-09 4.05538e-09)
(-4.54084e-08 -1.2582e-08 5.79256e-09)
(-4.64871e-08 -1.62702e-08 7.34206e-09)
(-5.04918e-08 -1.86542e-08 8.58175e-09)
(-5.94022e-08 -2.27559e-08 9.44569e-09)
(-7.55819e-08 -4.95262e-08 9.92042e-09)
(-4.08551e-08 1.26845e-08 2.30256e-10)
(-4.47331e-08 1.40371e-09 7.69685e-10)
(-4.52574e-08 -7.09311e-09 1.35001e-09)
(-4.51491e-08 -1.26683e-08 1.92098e-09)
(-4.62643e-08 -1.64072e-08 2.43186e-09)
(-5.02855e-08 -1.88446e-08 2.84318e-09)
(-5.91873e-08 -2.2987e-08 3.13414e-09)
(-7.53352e-08 -4.96845e-08 3.30095e-09)
(5.53126e-08 -1.29497e-07 8.44829e-08)
(4.59501e-08 -1.19044e-07 4.48754e-08)
(4.00738e-08 -1.12243e-07 3.44545e-08)
(3.74954e-08 -1.08257e-07 2.82178e-08)
(3.64985e-08 -1.06207e-07 2.21624e-08)
(3.60779e-08 -1.05235e-07 1.59197e-08)
(3.5856e-08 -1.04812e-07 9.57102e-09)
(3.57465e-08 -1.04657e-07 3.19158e-09)
(1.64279e-08 -1.2338e-07 8.16795e-08)
(1.3662e-08 -1.10622e-07 4.68574e-08)
(1.13264e-08 -1.03406e-07 3.70453e-08)
(1.02092e-08 -9.95631e-08 2.99327e-08)
(9.76923e-09 -9.77313e-08 2.30758e-08)
(9.56975e-09 -9.68952e-08 1.63678e-08)
(9.45163e-09 -9.65312e-08 9.77632e-09)
(9.38958e-09 -9.63967e-08 3.2517e-09)
(1.64206e-09 -1.24171e-07 8.2454e-08)
(2.89681e-09 -1.1135e-07 4.76088e-08)
(3.9021e-09 -1.04101e-07 3.76344e-08)
(3.94359e-09 -1.00227e-07 3.03786e-08)
(3.55473e-09 -9.83668e-08 2.34022e-08)
(3.15322e-09 -9.75084e-08 1.65909e-08)
(2.88141e-09 -9.7129e-08 9.90632e-09)
(2.75197e-09 -9.69868e-08 3.29441e-09)
(-3.68647e-08 -1.32182e-07 8.68803e-08)
(-2.89609e-08 -1.21541e-07 4.70914e-08)
(-2.43806e-08 -1.14638e-07 3.61967e-08)
(-2.28812e-08 -1.10557e-07 2.95508e-08)
(-2.27266e-08 -1.08422e-07 2.31449e-08)
(-2.29184e-08 -1.07384e-07 1.65933e-08)
(-2.30937e-08 -1.06915e-07 9.96397e-09)
(-2.31793e-08 -1.06738e-07 3.3207e-09)
)
;
        gradient        uniform (0 0 0);
    }
    symmetry
    {
        type            solidSymmetry;
        patchType       symmetry;
        secondOrder     false;
        value           nonuniform List<vector> 
32
(
(8.52475e-09 7.93045e-09 0)
(1.37061e-08 1.38717e-09 0)
(1.4271e-08 -5.06087e-09 0)
(1.41653e-08 -9.95776e-09 0)
(1.50239e-08 -1.37286e-08 0)
(1.80205e-08 -1.68907e-08 0)
(2.46572e-08 -2.21482e-08 0)
(3.47558e-08 -4.74638e-08 0)
(-4.28747e-10 6.75933e-11 0)
(7.9802e-10 -3.07645e-09 0)
(1.22946e-09 -6.99681e-09 0)
(1.39441e-09 -1.13401e-08 0)
(1.99198e-09 -1.57559e-08 0)
(3.52397e-09 -1.9959e-08 0)
(6.37477e-09 -2.49139e-08 0)
(9.58696e-09 -4.5379e-08 0)
(4.08333e-10 -5.2693e-11 0)
(-3.56321e-10 -3.42202e-09 0)
(4.7506e-11 -7.54493e-09 0)
(1.08298e-09 -1.20769e-08 0)
(2.06144e-09 -1.66785e-08 0)
(2.47648e-09 -2.10693e-08 0)
(1.91715e-09 -2.62024e-08 0)
(1.23855e-09 -4.66703e-08 0)
(-8.21493e-09 7.42266e-09 0)
(-1.28322e-08 3.17641e-10 0)
(-1.25593e-08 -6.69475e-09 0)
(-1.12389e-08 -1.21521e-08 0)
(-1.04944e-08 -1.64779e-08 0)
(-1.1522e-08 -2.01917e-08 0)
(-1.5883e-08 -2.59811e-08 0)
(-2.34981e-08 -5.14285e-08 0)
)
;
    }
    bottom
    {
        type            fixedDisplacement;
        value           uniform (0 0 0);
    }
}


// ************************************************************************* //
