/*--------------------------------*- C++ -*----------------------------------*\
| =========                 |                                                 |
| \\      /  F ield         | OpenFOAM: The Open Source CFD Toolbox           |
|  \\    /   O peration     | Version:  v1912                                 |
|   \\  /    A nd           | Website:  www.openfoam.com                      |
|    \\/     M anipulation  |                                                 |
\*---------------------------------------------------------------------------*/
FoamFile
{
    version     2.0;
    format      ascii;
    class       volScalarField;
    location    "0.49/solid";
    object      epsilonEq;
}
// * * * * * * * * * * * * * * * * * * * * * * * * * * * * * * * * * * * * * //

dimensions      [0 0 0 0 0 0 0];


internalField   nonuniform List<scalar> 
256
(
2.60222e-06
1.89431e-06
1.87203e-06
2.50481e-06
1.59726e-06
1.4078e-06
1.38805e-06
1.51747e-06
1.61719e-06
1.36132e-06
1.34165e-06
1.53781e-06
1.70024e-06
1.38184e-06
1.36231e-06
1.62078e-06
1.7724e-06
1.42854e-06
1.40902e-06
1.69264e-06
1.80787e-06
1.47973e-06
1.4601e-06
1.72774e-06
1.54484e-06
1.40749e-06
1.38997e-06
1.47073e-06
1.87845e-07
1.57742e-06
1.56476e-06
2.03983e-07
1.63784e-06
3.65612e-07
3.56107e-07
1.53523e-06
1.25784e-06
3.56399e-07
3.47229e-07
1.16398e-06
1.24511e-06
2.75893e-07
2.68458e-07
1.15163e-06
1.26859e-06
1.99416e-07
1.9378e-07
1.17403e-06
1.31296e-06
1.67432e-07
1.63261e-07
1.21674e-06
1.37343e-06
1.72694e-07
1.68873e-07
1.27562e-06
1.3221e-06
8.99443e-08
9.47869e-08
1.22698e-06
1.54457e-06
1.40889e-06
1.39157e-06
1.47095e-06
1.41079e-06
2.02757e-07
1.9842e-07
1.31339e-06
1.21373e-06
2.18194e-07
2.09119e-07
1.12176e-06
1.21352e-06
1.66348e-07
1.57049e-07
1.11983e-06
1.2357e-06
1.05264e-07
9.63963e-08
1.13993e-06
1.28201e-06
8.20897e-08
7.43893e-08
1.1838e-06
1.35599e-06
9.9631e-08
9.18295e-08
1.25543e-06
1.3721e-06
1.66857e-07
1.64053e-07
1.27442e-06
1.80845e-06
1.48279e-06
1.46359e-06
1.72974e-06
1.27485e-06
1.78594e-07
1.75798e-07
1.18308e-06
1.12509e-06
1.81939e-07
1.75317e-07
1.03819e-06
1.13117e-06
1.39048e-07
1.31927e-07
1.04136e-06
1.1545e-06
9.16945e-08
8.56902e-08
1.06178e-06
1.20208e-06
7.25971e-08
6.78237e-08
1.10632e-06
1.27931e-06
8.36208e-08
7.6837e-08
1.18061e-06
1.3094e-06
1.50027e-07
1.4783e-07
1.21325e-06
1.77979e-06
1.43583e-06
1.41701e-06
1.70268e-06
1.19641e-06
1.55823e-07
1.52441e-07
1.10827e-06
1.06002e-06
1.61364e-07
1.555e-07
9.76426e-07
1.07086e-06
1.26962e-07
1.20777e-07
9.83939e-07
1.09704e-06
8.68004e-08
8.14906e-08
1.0067e-06
1.1471e-06
7.0232e-08
6.53752e-08
1.05333e-06
1.2264e-06
7.95672e-08
7.20898e-08
1.12936e-06
1.26121e-06
1.4808e-07
1.4603e-07
1.1666e-06
1.72956e-06
1.3936e-06
1.37511e-06
1.65405e-06
1.15157e-06
1.39243e-07
1.3497e-07
1.06567e-06
1.01994e-06
1.47308e-07
1.41258e-07
9.38234e-07
1.03383e-06
1.17617e-07
1.11229e-07
9.48631e-07
1.06265e-06
7.93008e-08
7.31407e-08
9.73782e-07
1.11494e-06
6.30084e-08
5.63787e-08
1.02242e-06
1.19572e-06
7.64447e-08
6.75492e-08
1.09976e-06
1.23306e-06
1.54664e-07
1.52541e-07
1.13954e-06
1.69473e-06
1.3655e-06
1.34723e-06
1.62034e-06
1.12674e-06
1.28267e-07
1.23236e-07
1.04215e-06
9.97195e-07
1.37626e-07
1.31174e-07
9.16534e-07
1.01276e-06
1.09708e-07
1.0278e-07
9.28532e-07
1.04334e-06
7.14525e-08
6.40666e-08
9.55318e-07
1.09706e-06
5.53992e-08
4.67013e-08
1.00528e-06
1.17875e-06
7.4327e-08
6.44261e-08
1.08345e-06
1.21765e-06
1.60692e-07
1.58552e-07
1.12484e-06
1.67466e-06
1.3486e-06
1.33046e-06
1.601e-06
1.11557e-06
1.22603e-07
1.17131e-07
1.03158e-06
9.86881e-07
1.32462e-07
1.25733e-07
9.06695e-07
1.00318e-06
1.05026e-07
9.77029e-08
9.19395e-07
1.03459e-06
6.64922e-08
5.82122e-08
9.4697e-07
1.08898e-06
5.0757e-08
4.05749e-08
9.97552e-07
1.1711e-06
7.32258e-08
6.28611e-08
1.0761e-06
1.21078e-06
1.63767e-07
1.61643e-07
1.11831e-06
1.66568e-06
1.34069e-06
1.32262e-06
1.59237e-06
)
;

boundaryField
{
    interface
    {
        type            calculated;
        value           nonuniform List<scalar> 
192
(
3.40427e-06
2.31208e-06
2.35061e-06
2.46447e-06
2.57164e-06
2.6523e-06
2.4568e-06
1.3361e-06
2.70273e-06
2.20617e-06
2.21278e-06
2.28058e-06
2.37716e-06
2.5017e-06
2.52332e-06
2.45717e-06
2.39495e-06
2.10573e-06
2.12624e-06
2.18992e-06
2.2871e-06
2.42481e-06
2.50243e-06
2.65476e-06
2.18512e-06
1.95535e-06
1.98484e-06
2.04902e-06
2.14668e-06
2.28754e-06
2.37978e-06
2.58316e-06
2.05983e-06
1.84807e-06
1.88284e-06
1.9494e-06
2.0489e-06
2.19154e-06
2.2889e-06
2.50324e-06
1.98664e-06
1.78171e-06
1.81932e-06
1.88809e-06
1.98936e-06
2.13309e-06
2.23253e-06
2.44899e-06
1.94569e-06
1.7439e-06
1.78294e-06
1.85316e-06
1.95561e-06
2.0999e-06
2.20023e-06
2.41724e-06
1.92721e-06
1.72675e-06
1.76639e-06
1.83731e-06
1.9403e-06
2.08482e-06
2.18549e-06
2.40276e-06
3.4889e-06
2.40408e-06
2.44392e-06
2.56032e-06
2.66983e-06
2.75236e-06
2.56604e-06
1.5065e-06
3.06862e-06
2.45243e-06
2.42632e-06
2.49056e-06
2.58807e-06
2.70423e-06
2.70856e-06
2.59662e-06
3.031e-06
2.41702e-06
2.38998e-06
2.45373e-06
2.55088e-06
2.66658e-06
2.67205e-06
2.56987e-06
3.36993e-06
2.3061e-06
2.3444e-06
2.45951e-06
2.56815e-06
2.64987e-06
2.46922e-06
1.47466e-06
3.25343e-06
2.17245e-06
2.20974e-06
2.32225e-06
2.42801e-06
2.50742e-06
2.31588e-06
1.23298e-06
2.53281e-06
2.0446e-06
2.04941e-06
2.11417e-06
2.20736e-06
2.32874e-06
2.35236e-06
2.31618e-06
2.23121e-06
1.94707e-06
1.96426e-06
2.02405e-06
2.11692e-06
2.25021e-06
2.32872e-06
2.51e-06
2.02861e-06
1.80299e-06
1.82821e-06
1.8878e-06
1.98049e-06
2.11609e-06
2.20819e-06
2.43992e-06
1.90829e-06
1.70015e-06
1.73022e-06
1.79172e-06
1.8858e-06
2.02266e-06
2.11929e-06
2.3615e-06
1.83822e-06
1.63651e-06
1.66921e-06
1.73265e-06
1.82821e-06
1.96584e-06
2.06422e-06
2.30827e-06
1.79911e-06
1.60027e-06
1.6343e-06
1.69904e-06
1.7956e-06
1.93362e-06
2.03271e-06
2.27716e-06
1.78148e-06
1.58385e-06
1.61843e-06
1.6838e-06
1.78083e-06
1.91899e-06
2.01835e-06
2.26299e-06
1.50818e-06
2.5671e-06
2.75522e-06
2.68205e-06
2.60094e-06
2.54542e-06
2.51275e-06
2.49781e-06
2.59781e-06
2.71123e-06
2.71016e-06
2.60168e-06
2.51685e-06
2.46092e-06
2.42724e-06
2.41144e-06
2.5709e-06
2.67465e-06
2.67247e-06
2.56449e-06
2.48001e-06
2.42427e-06
2.3907e-06
2.37496e-06
1.47547e-06
2.47011e-06
2.65325e-06
2.58172e-06
2.50207e-06
2.44758e-06
2.41556e-06
2.40095e-06
)
;
    }
    symmetry
    {
        type            symmetry;
    }
    bottom
    {
        type            calculated;
        value           nonuniform List<scalar> 
32
(
3.6166e-06
2.03737e-06
1.66481e-06
1.50189e-06
1.41513e-06
1.36572e-06
1.33826e-06
1.32588e-06
2.3518e-06
4.59466e-07
2.18593e-07
1.98369e-07
1.81291e-07
1.67342e-07
1.57819e-07
1.52931e-07
2.32719e-06
4.46607e-07
2.08636e-07
1.89501e-07
1.71574e-07
1.56692e-07
1.46434e-07
1.41127e-07
3.50319e-06
1.92598e-06
1.55956e-06
1.40331e-06
1.32115e-06
1.27466e-06
1.24892e-06
1.23735e-06
)
;
    }
}


// ************************************************************************* //
