/*--------------------------------*- C++ -*----------------------------------*\
| =========                 |                                                 |
| \\      /  F ield         | OpenFOAM: The Open Source CFD Toolbox           |
|  \\    /   O peration     | Version:  v1912                                 |
|   \\  /    A nd           | Website:  www.openfoam.com                      |
|    \\/     M anipulation  |                                                 |
\*---------------------------------------------------------------------------*/
FoamFile
{
    version     2.0;
    format      ascii;
    class       volScalarField;
    location    "0.49/solid";
    object      sigmaEq;
}
// * * * * * * * * * * * * * * * * * * * * * * * * * * * * * * * * * * * * * //

dimensions      [1 -1 -2 0 0 0 0];


internalField   nonuniform List<scalar> 
256
(
600512
437149
432008
578034
368598
324878
320318
350184
373197
314151
309612
354878
392363
318887
314379
374027
409015
329663
325157
390609
417201
341476
336946
398709
356501
324805
320762
339400
43348.9
364020
361099
47073.1
377964
84372.1
82178.5
354285
290271
82245.9
80129.8
268611
287334
63667.6
61951.8
265761
292751
46019
44718.5
270930
302992
38638.1
37675.6
280787
316946
39852.5
38970.7
294373
305100
20756.4
21873.9
283150
356439
325129
321133
339450
325566
46790.1
45789.3
303089
280091
50352.5
48258.2
258868
280043
38388
36242.1
258422
285162
24291.6
22245.3
263061
295848
18943.8
17166.8
273185
312920
22991.8
21191.4
289715
316639
38505.6
37858.4
294097
417334
342182
337751
399171
294197
41214
40568.8
273019
259635
41985.9
40457.7
239583
261039
32088.1
30444.7
240314
266423
21160.3
19774.7
245027
277403
16753.2
15651.6
255305
295225
19297.1
17731.6
272449
302169
34621.6
34114.7
279982
410721
331346
327001
392926
276094
35959.2
35178.8
255754
244620
37237.8
35884.6
225329
247123
29298.8
27871.6
227063
253163
20030.9
18805.5
232316
264716
16207.4
15086.6
243077
283016
18361.7
16636.1
260622
291050
34172.3
33699.2
269215
399130
321600
317334
381703
265746
32133
31147
245924
235371
33994.2
32597.9
216516
238577
27142.3
25668.2
218915
245227
18300.2
16878.6
224719
257293
14540.4
13010.5
235943
275935
17641.1
15588.3
253790
284552
35691.8
35201.8
262970
391092
315115
310900
373925
260017
29600
28439.1
240497
230122
31759.9
30271
211508
233715
25317.2
23718.5
214277
240770
16489
14784.6
220458
253167
12784.4
10777.2
231987
272020
17152.4
14867.6
250026
280997
37082.7
36588.8
259579
386461
311214
307030
369461
257439
28292.9
27030.3
238058
227742
30568.1
29015.3
209237
231504
24236.8
22546.8
212168
238752
15344.4
13433.6
218532
251304
11713.2
9363.43
230204
270253
16898.3
14506.4
248331
279410
37792.4
37302.2
258072
384387
309389
305220
367470
)
;

boundaryField
{
    interface
    {
        type            calculated;
        value           nonuniform List<scalar> 
192
(
785600
533556
542449
568725
593454
612069
566953
308330
623708
509116
510642
526287
548576
577317
582304
567038
552680
485938
490672
505366
527793
559571
577485
612636
504257
451234
458039
472850
495389
527894
549181
596114
475345
426477
434501
449861
472824
505740
528208
577671
458454
411164
419842
435713
459084
492251
515199
565152
449005
402439
411447
427653
451294
484592
507745
557824
444740
398482
407630
423995
447762
481112
504344
554483
805131
554788
563982
590843
616115
635161
592163
347654
708143
565946
559920
574745
597246
624052
625052
599219
699462
557773
551534
566245
588664
615364
616627
593047
777677
532176
541016
567578
592649
611509
569821
340305
750790
501334
509941
535905
560310
578636
534434
284534
584495
471831
472941
487885
509391
537401
542853
534504
514895
449325
453291
467088
488520
519280
537397
579231
468141
416075
421894
435645
457036
488329
509583
563058
440375
392343
399282
413475
435185
466769
489066
544962
424205
377657
385203
399843
421895
453656
476357
532677
415180
369294
377146
392086
414369
446220
469087
525498
411111
365504
373484
388569
410961
442844
465772
522229
348042
592409
635819
618935
600217
587405
579865
576418
599494
625669
625421
600387
580813
567905
560133
556487
593286
617227
616723
591805
572309
559446
551701
548067
340492
570026
612290
595781
577402
564826
557437
554064
)
;
    }
    symmetry
    {
        type            symmetry;
    }
    bottom
    {
        type            calculated;
        value           nonuniform List<scalar> 
32
(
834601
470163
384187
346589
326567
315166
308828
305973
542724
106031
50444.5
45777.4
41836.5
38617.4
36419.7
35291.8
537043
103063
48146.7
43731.1
39594
36159.7
33792.4
32567.9
808428
444456
359898
323842
304880
294153
288213
285542
)
;
    }
}


// ************************************************************************* //
