/*--------------------------------*- C++ -*----------------------------------*\
| =========                 |                                                 |
| \\      /  F ield         | OpenFOAM: The Open Source CFD Toolbox           |
|  \\    /   O peration     | Version:  v1912                                 |
|   \\  /    A nd           | Website:  www.openfoam.com                      |
|    \\/     M anipulation  |                                                 |
\*---------------------------------------------------------------------------*/
FoamFile
{
    version     2.0;
    format      ascii;
    class       volSymmTensorField;
    location    "0.49/solid";
    object      sigma;
}
// * * * * * * * * * * * * * * * * * * * * * * * * * * * * * * * * * * * * * //

dimensions      [1 -1 -2 0 0 0 0];


internalField   nonuniform List<symmTensor> 
256
(
(-222180 20329.2 -8000.53 367459 21856.5 -238799)
(51026.3 -8809.05 -3227.38 231701 21788.7 -264751)
(52258.6 10773.3 3176.99 229565 22065.7 -260602)
(-200823 -18870.3 8054.31 362722 22875.3 -224178)
(-257575 -1388.68 -11800.7 103824 360.594 -270483)
(-41432.2 -4489.34 -5178.61 51944.6 1609.86 -309160)
(-39519.8 6327.59 5235.58 50757.8 1836.53 -304669)
(-233983 2217.62 11930.6 104727 1147.97 -254733)
(-259269 -3543.14 -12556.5 106793 -2013.86 -271819)
(-49860.1 -3195.65 -5617.72 29492.6 -1727.57 -316507)
(-47984.1 4658.12 5738.9 28506.8 -1574.48 -311897)
(-235318 4142.76 12717 108132 -1468.37 -255758)
(-259640 -1959.48 -12938.8 124537 -661.918 -274288)
(-42293.8 -2136.37 -5804.46 24917.2 -784.457 -322032)
(-40422.1 3221.98 5939.32 24071.3 -675.645 -317330)
(-235309 2417.46 13109.1 126168 -261.444 -257951)
(-268536 -176.539 -13294.8 131385 1447.89 -284918)
(-39815 -1007.3 -5990.49 20735.6 1260.01 -334828)
(-37915.3 1770.82 6120.81 19948.7 1347.43 -330058)
(-243836 503.386 13470.4 133230 1769.28 -268345)
(-291302 2774.3 -13578.6 116788 4948.44 -307493)
(-51487.6 726.921 -6159.09 4908.78 4863.43 -360978)
(-49599.5 -295.864 6287.02 4144.23 4942.88 -356155)
(-266379 -2616.54 13763.8 118769 5229.37 -290699)
(-332799 8859.59 -13513.8 14562.3 11046.7 -347397)
(-85228.1 3634.99 -6150.35 -84110.4 11486.6 -408627)
(-83372.6 -3681.2 6288.22 -84247.7 11562.5 -403696)
(-307869 -8956.86 13712.5 18045.2 11296.3 -330222)
(-281518 12742.6 -12674.5 -296809 15035.9 -296679)
(1230.14 5854.27 -5771.68 -361575 16018.3 -361329)
(3190.97 -5870.25 5911.38 -356666 16083.2 -356419)
(-256868 -12861.8 12863.8 -279874 15227.8 -279797)
(-242260 12807.8 -5848.04 186529 -8300.33 36638.6)
(-32399.6 -10077.2 -1500.95 47100.4 1789.95 -38008.6)
(-31607.9 11185.2 1798.37 44405.7 2551.22 -38492.2)
(-221199 -11690.5 6017.83 181149 -5958.65 38961.3)
(-281405 -2447.51 -8603.04 37137.9 -960.103 -33180.8)
(-115940 -4812.85 -3094.46 -35259.8 4076.75 -117246)
(-114264 5751.6 3600.43 -36978.4 4570.7 -117337)
(-258020 2867.96 8866.24 37094.3 654.365 -29401)
(-287402 -3647.41 -8860.14 26469.8 -504.419 -38824.8)
(-131819 -3319.86 -3296.57 -70055.5 1110.69 -134451)
(-130139 3981.06 3870.42 -71345.6 1464.69 -134604)
(-263595 3893.32 9148.38 27306.7 700.103 -35301.3)
(-290918 -2090.21 -8917.28 28184.9 22.3228 -36069.8)
(-130512 -2271.47 -3256 -89313.6 428.411 -138143)
(-128830 2709.06 3836.21 -90416.8 704.272 -138353)
(-266680 2272.94 9211.71 29402.4 973.418 -32721.2)
(-302128 -328.914 -9077.54 27599.3 2735.22 -37295.6)
(-132005 -1176.34 -3326.1 -101084 2806.18 -143282)
(-130290 1426.45 3893.11 -102148 3035.4 -143537)
(-277410 444.288 9375.18 28983.8 3517.74 -34035.1)
(-328317 2725.38 -9200.65 14335 6989.63 -47563.5)
(-146998 569.228 -3430.73 -115810 6975.75 -157413)
(-145287 -536.882 3985.57 -116868 7169.7 -157728)
(-303190 -2730.13 9504.93 15821.9 7641.32 -44384.6)
(-377228 9180 -9094.31 -73100.5 10579.2 -73905.2)
(-184786 3588.59 -3443.11 -188464 10674 -188787)
(-183101 -3894.29 3969.21 -188863 10819.1 -189087)
(-351898 -9393.07 9396.05 -70049.3 11067.3 -70623)
(-333057 13553.5 -8731.4 -347525 11149.7 14305.7)
(-85230.9 6197.34 -3414.91 -408792 11564.6 -83797.6)
(-83338 -6262.63 3808.07 -403816 11636 -83798.9)
(-307902 -13712.2 8969.45 -330169 11378.4 18100.3)
(-210107 7986.11 -2389.06 138872 4900.62 84271.1)
(-27944.1 -11905.2 -116.896 10057.4 13734.3 1785)
(-27123.1 12407 369.451 7573.23 14313.3 1039.68)
(-189293 -7140.78 2473.84 134540 6685.81 86231.8)
(-234474 -2839.49 -3279.78 40388.3 7342.21 49825.8)
(-82895.8 -5191.66 -628.98 -32339.9 11761.9 -46601.2)
(-81264.2 5654.27 1048.36 -34092.2 12245.7 -47148.4)
(-211575 3070.99 3438.76 40273 8872.67 52703.8)
(-238972 -3440.95 -3090.68 39922.3 5931.31 41605.3)
(-94934.4 -3304.57 -589.563 -54706.1 7421.82 -67019.5)
(-93296.8 3571.08 1030.15 -56074.5 7823.25 -67663.8)
(-215676 3529.17 3265.03 40484 7221.03 44096.1)
(-242706 -2050.4 -2911.08 43210.7 4867.41 41309.3)
(-94103.7 -2313.76 -452.005 -70201.1 5268.17 -74300.9)
(-92456.2 2433.82 872.075 -71383.4 5608.19 -75035.2)
(-218954 2107.68 3081.59 44133.6 5963.57 43514.6)
(-253744 -358.579 -2868.24 44009.2 5924.33 39709.7)
(-95842.4 -1288.4 -421.935 -79917.3 6009.92 -80478)
(-94147.3 1298.38 817.387 -81050.7 6302.07 -81286.5)
(-229427 382.41 3033.62 45123.9 6858.5 41739.6)
(-279490 2777.3 -2836.56 34815.3 7860.47 31271.6)
(-110187 482.279 -448.322 -90420.4 7845 -93256.3)
(-108471 -611.911 820.191 -91527.8 8088.94 -94139.9)
(-254591 -2840.51 2998.81 36094.5 8635.88 33183.2)
(-328375 9277.73 -2754.51 -45806.5 7726.01 12701.2)
(-146428 3547.48 -486.781 -155987 7663.59 -116574)
(-144703 -3936.91 799.501 -156405 7836.43 -117419)
(-303003 -9518.34 2899.91 -42864.8 8286.55 14780.4)
(-291597 13607.8 -2733.21 -307458 5367.04 116784)
(-50889.5 6187.77 -538.579 -360865 5243.76 5846.45)
(-48947.2 -6266.48 657.352 -355950 5309.08 5358.77)
(-266192 -13770 2799.57 -290341 5584.84 119495)
(-190777 5990.41 -745.117 119672 8972.66 82418.4)
(-25453.5 -12433.6 446.724 -1847.57 14181.5 941.706)
(-24628.2 12560.1 -224.647 -4064.03 14599.5 344.072)
(-170249 -5357.35 800.967 116408 10266.2 84908.8)
(-209062 -2839.51 -864.227 35037.4 10708.6 62493)
(-69317.9 -5252.82 554.991 -36855.6 13351.6 -34272.7)
(-67719.1 5434.2 -179.645 -38444.5 13744.5 -34679.2)
(-186601 2958.13 978.814 35333.7 11929.5 65796.7)
(-212608 -3149.76 -589.803 40527 9538.29 54600.1)
(-78685.4 -3193.55 705.328 -51827.3 10441.7 -53878.6)
(-77074.1 3247.47 -321.657 -53120.6 10798.2 -54382.7)
(-189769 3158.43 715.463 41219.4 10651.8 57492.7)
(-216487 -1894.42 -372.607 48273.4 7940.2 50827.8)
(-77863 -2257.32 843.669 -61433.5 8162.51 -64356)
(-76235 2219.8 -492.105 -62578.5 8482.53 -64957.7)
(-193178 1891.83 490.117 49217.8 8941.25 53400)
(-227597 -297.469 -270.466 52082.6 7251.99 46884.3)
(-79887.3 -1303.93 897.678 -67612.8 7290.8 -72922.5)
(-78204.1 1206.27 -579.749 -68716.1 7573.19 -73610.7)
(-203673 281.387 377.433 53198.4 8131.26 49240.6)
(-253185 2808.73 -225.468 44520 6712.48 38941.4)
(-94173.5 432.643 886.365 -76502.4 6714.66 -85323.8)
(-92456.3 -623.682 -603.528 -77574.3 6949.53 -86090.9)
(-228571 -2891.4 321.836 45824.3 7444.61 41168.3)
(-301509 9181.28 -227.556 -34296.5 4602.58 25586.3)
(-129482 3434.74 817.724 -140672 4564.4 -103377)
(-127731 -3851.58 -608.818 -141050 4726.02 -104089)
(-276236 -9425.16 299.205 -31296.8 5121.52 28023.5)
(-267925 13353.3 -291.759 -284371 2456.48 133651)
(-36739.5 6020 766.005 -334124 2260.41 22742.2)
(-34759.1 -6111.82 -750.627 -329206 2314.91 22408.9)
(-242411 -13516.6 285.366 -267288 2641.78 136760)
(-179873 5327.11 -219.585 110768 8534.88 77562.4)
(-24997.3 -12286.8 445.695 -6585.56 11184 -1297.19)
(-24185.7 12192.5 -267.834 -8589.64 11481.5 -1777.51)
(-159548 -4836.68 264.763 108339 9450.05 80458.8)
(-196188 -2709.12 -139.992 30488.3 9970.89 62001.9)
(-65095.5 -5137.41 696.593 -40270.6 11313.8 -31240)
(-63547.2 5148.54 -384.553 -41707.6 11606 -31510.8)
(-174038 2756.3 234.264 31207.6 10869.8 65703)
(-199464 -2919.42 71.3886 37756.6 9586.86 55392.6)
(-73386.6 -3079.26 842.931 -52578.2 10031.9 -48798.3)
(-71821.8 3006.83 -519.58 -53790.3 10309.7 -49161.7)
(-176947 2881.96 32.8793 38659.9 10445 58686.9)
(-203502 -1747.74 233.364 48062.4 8264.23 50396)
(-72626.3 -2191.41 939.92 -58804 8356.76 -60113.4)
(-71039.6 2065.4 -645.919 -59910.1 8615.77 -60575.4)
(-180505 1712.65 -136.976 49101.2 9066.08 53360.6)
(-214719 -230.959 317.84 53938 6826.1 45314.1)
(-74874.5 -1293.23 976.831 -62592.5 6849.41 -69692.4)
(-73228.7 1139.52 -717.899 -63675.2 7082.75 -70245.1)
(-191077 194.7 -233.314 55097 7547.5 48045.2)
(-240194 2805.9 340.855 47068.3 5123.53 37994.7)
(-89173.2 393.223 959.919 -70855.6 5167.7 -81483.5)
(-87486.1 -614.193 -740.39 -71913.3 5362.21 -82116.1)
(-215799 -2897.14 -269.898 48404.3 5728.72 40590.7)
(-287941 9046.79 301.591 -30593.5 2671.15 27205.2)
(-123942 3325.65 890.512 -134340 2709.63 -97061.6)
(-122207 -3758.05 -743.14 -134706 2841.94 -97631.2)
(-262776 -9291.92 -256.482 -27559.1 3097.85 30026.8)
(-255782 13102.2 226.221 -271822 1241.89 134434)
(-33170.1 5867.32 840.525 -319814 1129.66 27698.6)
(-31192.6 -5972.85 -857.464 -314892 1173 27515.8)
(-230228 -13269.6 -248.807 -254730 1390.53 137932)
(-173381 5119.65 -89.7738 106412 6654.54 74664.5)
(-25098.6 -12036.6 285.268 -8845.7 7937.54 -2462.91)
(-24296.1 11813.9 -157.843 -10696.4 8137.09 -2867.16)
(-153159 -4717.61 124.192 104583 7262.03 77842.2)
(-189042 -2584.95 -12.9717 28214.9 7584.7 60321.2)
(-63863 -5013.57 473.674 -41884.5 8221.85 -30192.5)
(-62352.5 4923.26 -242.977 -43208.3 8421.35 -30372.8)
(-167066 2588.71 85.6073 29274.4 8193.52 64315.8)
(-192313 -2773.14 116.709 35806.4 7570.19 54769.9)
(-71829.7 -3001.73 572.096 -53339.8 7769.69 -46117.2)
(-70301 2851.76 -327.783 -54486.5 7964 -46384.8)
(-169975 2707.63 -35.1491 36909.2 8167.12 58370.9)
(-196473 -1652.39 213.726 46984.2 6693.44 49914.5)
(-71169.6 -2151.17 626.969 -58251.9 6730.06 -57042.3)
(-69615.6 1969.97 -403.346 -59325.9 6915.33 -57407.8)
(-173648 1597.46 -137.789 48131.3 7265.35 53186.2)
(-207751 -189.268 264.253 53752.9 5329.42 44762.4)
(-73558.6 -1288.22 643.15 -60976.1 5355.41 -66616.4)
(-71943.1 1098.74 -448.513 -62045.7 5524.83 -67074.1)
(-184262 140.42 -198.359 54967.5 5853.21 47793.8)
(-233113 2791.39 271.193 47262.8 3610.03 37917.1)
(-87856.5 363.201 624.86 -68921.1 3676.57 -77969.7)
(-86195.6 -605.203 -464.765 -69975.2 3818.56 -78507.8)
(-208834 -2888.78 -217.661 48630.1 4053.42 40808.7)
(-280400 8948.85 233.754 -29289.9 1627.78 27991.9)
(-122308 3256.44 573.824 -131616 1708.53 -92795)
(-120591 -3702.36 -472.221 -131983 1805 -93267.5)
(-255285 -9196.57 -201.872 -26231.8 1941.23 31110.2)
(-248851 12941.7 172.604 -264279 697.143 133653)
(-32630.9 5775.55 530.252 -311459 665.172 30158.2)
(-30661.8 -5893.29 -551.703 -306537 696.697 30076.1)
(-223254 -13114.5 -192.282 -247169 805.936 137445)
(-169595 5039.14 -50.0782 104317 4176.22 73238.1)
(-25217.6 -11868.6 143.285 -9962.14 4763.76 -3068.01)
(-24418.7 11575.3 -67.0825 -11713.7 4878.58 -3425.6)
(-149420 -4687.55 71.5281 102870 4522.62 76594.5)
(-185000 -2509.44 -12.8942 27278.4 4659.05 59252.8)
(-63459.5 -4937.35 241.488 -42575.4 4943.49 -29888.3)
(-61970.7 4790.51 -100.66 -43824.8 5059.22 -30012.9)
(-163111 2488.9 58.6346 28570.7 5010.09 63441.3)
(-188314 -2693.73 52.4004 34859 4708.44 54343.1)
(-71352.5 -2960.93 292.548 -53748.3 4793.58 -44857.5)
(-69844.8 2765.98 -140.844 -54849.8 4907.7 -45065.4)
(-166066 2612.06 -0.344244 36110.4 5057.94 58151.8)
(-192548 -1601.82 100.799 46184 4219.6 49961.4)
(-70772.2 -2133.51 318.261 -58288.2 4236.72 -55192.6)
(-69237.3 1918.55 -178.143 -59338.8 4346.93 -55497.5)
(-169806 1534.86 -51.8571 47420.2 4559.58 53444.2)
(-203847 -169.166 125.036 53206.5 3322.26 45108)
(-73234.8 -1289.68 322.94 -60676.7 3345.9 -64450.8)
(-71636.9 1076.66 -201.332 -61736.7 3447.66 -64848.4)
(-180431 112.058 -82.575 54471 3637.33 48347.7)
(-229119 2779.38 125.784 46927 2164.36 38544.4)
(-87524 344.612 310.007 -68448.2 2220.17 -75565.5)
(-85878.3 -602.125 -211.417 -69501 2305.9 -76044.1)
(-204892 -2881.59 -91.6864 48322.2 2433.08 41640.1)
(-276100 8895.04 103.039 -28780.6 933.019 28789.3)
(-121796 3222.61 281.016 -130465 1003.91 -90292.6)
(-120089 -3679.42 -220.004 -130834 1062.29 -90705.3)
(-251001 -9145.64 -83.0625 -25704.1 1123.82 32108.7)
(-244789 12859.6 64.7426 -259816 378.356 133296)
(-32635.6 5731.81 251.136 -306656 381.496 31451.4)
(-30671.5 -5858.63 -265.939 -301732 400.614 31431.1)
(-219153 -13037 -76.8276 -242689 444.648 137284)
(-167825 5003.69 -17.48 103470 1419.52 72670.3)
(-25263.9 -11793.8 42.4283 -10420.3 1591.6 -3338.63)
(-24466.2 11469.4 -17.0951 -12123.3 1629.06 -3673.73)
(-147668 -4674.98 24.73 102209 1532.01 76113.9)
(-183126 -2477.61 -7.90572 26965.9 1565.75 58801.9)
(-63303.7 -4905.15 71.374 -42830.2 1647.9 -29835.7)
(-61824.6 4733.16 -24.0875 -44042.7 1685.8 -29933.5)
(-161272 2446.24 23.4653 28375.5 1680.32 63086.9)
(-186467 -2660.25 11.44 34506.1 1586.19 54187.2)
(-71183.8 -2944.84 86.6095 -53914.4 1610.43 -44385.1)
(-69685.5 2729.25 -35.2165 -54992.9 1648 -44564)
(-164254 2571.2 6.40211 35835.6 1701.09 58100.7)
(-190732 -1580.97 25.8252 45805.9 1428.98 50118.1)
(-70643.5 -2127.83 93.9143 -58384.6 1434.69 -54367.3)
(-69117 1896.65 -46.1788 -59422.8 1471.19 -54642.5)
(-168025 1508.23 -8.95179 47091.2 1541.55 53708.4)
(-202035 -161.618 32.7965 52865.2 1122.5 45495.1)
(-73135.7 -1292 94.6353 -60703.7 1132.12 -63398)
(-71545.6 1066.97 -53.1975 -61758.3 1165.98 -63766.1)
(-178648 100.289 -18.1365 54158.5 1227.44 48841.3)
(-227258 2773.48 32.5809 46676.9 723.587 39060.7)
(-87418.2 336.21 90.1091 -68399.8 744.885 -74409.1)
(-85779.3 -602.172 -56.684 -69451.6 773.502 -74858.8)
(-203052 -2878.4 -20.8479 48088.5 813.466 42260.6)
(-274089 8872.86 25.2649 -28592 310.319 29301.9)
(-121608 3210.08 80.9112 -130044 337.522 -89170.8)
(-119906 -3672.99 -60.3924 -130415 357.043 -89554.6)
(-248993 -9125.25 -18.4069 -25504.9 374.311 32723.1)
(-242856 12827 12.3496 -257715 122.415 133243)
(-32644 5715.58 70.3031 -304435 127.147 32011.4)
(-30681.9 -5847.24 -75.3617 -299511 133.547 32021)
(-217197 -13007 -16.3465 -240579 144.666 137331)
)
;

boundaryField
{
    interface
    {
        type            calculated;
        value           nonuniform List<symmTensor> 
192
(
(-47.5869 0.34714 3.05825 886239 21856.5 279981)
(-49.4615 0.220092 4.83792 610900 360.594 236592)
(-50.8011 -0.110683 5.34834 621376 -2013.86 242764)
(-51.6167 -0.526478 5.42675 651191 -661.918 252367)
(-51.7513 -0.879306 5.31576 679481 1447.89 263178)
(-52.5425 -1.52638 5.13309 701520 4948.44 277239)
(-50.8581 -2.00432 4.69482 652955 11046.7 290996)
(-54.3075 -4.38523 4.34576 307110 15035.9 307239)
(-46.2965 0.241862 1.51878 684779 -8300.33 534889)
(-47.2015 0.128858 2.57762 540570 -960.103 470251)
(-47.9924 -0.173619 2.82097 540100 -504.419 474806)
(-48.5486 -0.604377 2.80595 555416 22.3228 491161)
(-48.4745 -0.983498 2.68228 578067 2735.22 513173)
(-49.1983 -1.70318 2.51812 605595 6989.63 543696)
(-47.2607 -2.23557 2.23512 582371 10579.2 581566)
(-50.891 -4.74627 2.00298 291229 11149.7 653060)
(-48.9981 0.205467 1.20326 577839 4900.62 523239)
(-49.8035 0.0858437 2.02183 480934 7342.21 490372)
(-50.5898 -0.217602 2.20617 489670 5931.31 491353)
(-51.1537 -0.679231 2.19014 506193 4867.41 504291)
(-50.9817 -1.10128 2.09029 529779 5924.33 525480)
(-51.608 -1.90567 1.9573 561117 7860.47 557573)
(-49.2026 -2.52011 1.74722 545799 7726.01 604307)
(-52.611 -5.20804 1.56456 277980 5367.04 702222)
(-49.178 0.153097 0.744621 521562 8972.66 484308)
(-49.7897 0.0144735 1.31879 436447 10708.6 463903)
(-50.408 -0.290927 1.44099 450492 9538.29 464565)
(-50.8761 -0.764425 1.41769 471317 7940.2 473871)
(-50.5998 -1.20727 1.33675 497757 7251.99 492559)
(-51.1605 -2.0502 1.23517 530482 6712.48 524904)
(-48.5957 -2.70189 1.0981 516678 4602.58 576561)
(-51.965 -5.43986 0.98274 264515 2456.48 682538)
(-49.9813 0.128696 0.547392 490797 8534.88 457592)
(-50.5333 -0.0285335 0.96934 409445 9970.89 440959)
(-51.0779 -0.344092 1.05981 425045 9586.86 442681)
(-51.5011 -0.831671 1.04259 448410 8264.23 450744)
(-51.1512 -1.29548 0.98283 476878 6826.1 468254)
(-51.6387 -2.17133 0.906957 510086 5123.53 501012)
(-48.8953 -2.85741 0.809523 496862 2671.15 554661)
(-52.1356 -5.64354 0.724975 254986 1241.89 661242)
(-50.1801 0.109377 0.337384 473308 6654.54 441560)
(-50.6797 -0.0629624 0.615502 393909 7584.7 426015)
(-51.1587 -0.386822 0.675425 409783 7570.19 428747)
(-51.5393 -0.882897 0.662534 434035 6693.44 436965)
(-51.1386 -1.35879 0.621637 463369 5329.42 454379)
(-51.5844 -2.25198 0.570585 496766 3610.03 487421)
(-48.7573 -2.95641 0.509374 484108 1627.78 541389)
(-51.9525 -5.76781 0.457391 248903 697.143 646835)
(-50.4425 0.100208 0.198714 463628 4176.22 432549)
(-50.9228 -0.0825132 0.361815 385366 4659.05 417340)
(-51.3676 -0.413665 0.397268 401227 4708.44 420711)
(-51.7246 -0.916454 0.389847 425638 4219.6 429415)
(-51.2906 -1.40141 0.366111 455200 3322.26 447102)
(-51.7031 -2.30662 0.335863 488663 2164.36 480280)
(-48.8096 -3.02408 0.300844 476455 933.019 534025)
(-51.9571 -5.85392 0.269635 245280 378.356 638392)
(-50.5032 0.0942896 0.0592378 459282 1419.52 428482)
(-50.9699 -0.093591 0.111551 381548 1565.75 413384)
(-51.3954 -0.427775 0.123034 397372 1586.19 417053)
(-51.7395 -0.932985 0.120408 421763 1428.98 426075)
(-51.2918 -1.42173 0.112677 451346 1122.5 443975)
(-51.6893 -2.33157 0.102809 484822 723.587 477206)
(-48.7759 -3.05504 0.0921845 472850 310.319 530743)
(-51.8995 -5.89272 0.082272 243576 122.415 634534)
(326644 20329.2 -4.41176 916283 -0.952364 -18.6534)
(277356 -1388.68 -7.30243 638755 -1.02892 -14.0718)
(283367 -3543.14 -8.2219 649429 -0.773148 -10.5695)
(296155 -1959.48 -8.45872 680331 -0.535128 -9.51526)
(309582 -176.539 -8.48126 709504 -0.443926 -9.66271)
(323677 2774.3 -8.50423 731768 -0.490695 -10.738)
(336137 8859.59 -8.54664 683498 -0.606292 -12.9736)
(354331 12742.6 -9.22651 339040 -0.823119 -14.9366)
(600111 -8809.05 -2.78514 780785 -0.546515 -23.688)
(513374 -4489.34 -5.1633 606750 -0.709418 -22.6476)
(515961 -3195.65 -5.84401 595314 -0.519465 -21.5665)
(538151 -2136.37 -5.9795 605362 -0.27303 -21.3184)
(564641 -1007.3 -5.99259 625191 -0.125646 -21.4143)
(593917 726.921 -6.06441 650313 -0.0552882 -21.8483)
(624438 3634.99 -6.27768 625555 -0.0692473 -22.5921)
(691516 5854.27 -7.20598 328712 -0.154795 -23.1199)
(593471 10773.3 -2.89398 770777 -0.366965 -20.6725)
(506999 6327.59 -5.38239 597277 -0.504842 -19.8775)
(509218 4658.12 -6.13242 585708 -0.35022 -18.8956)
(531190 3221.98 -6.29094 595684 -0.100998 -18.6372)
(557568 1770.82 -6.29114 615432 0.0805984 -18.7525)
(586710 -295.864 -6.31664 640454 0.228691 -19.1633)
(617011 -3681.2 -6.44945 616136 0.316455 -19.9801)
(684367 -5870.25 -7.30729 324509 0.324879 -20.9009)
(322793 -18870.3 -3.35413 886338 -0.283333 -21.2202)
(274644 2217.62 -6.30508 613354 -0.383365 -20.7358)
(280117 4142.76 -7.24626 623566 -0.232076 -19.9365)
(292664 2417.46 -7.46077 654141 0.0258992 -19.7803)
(306015 503.386 -7.45479 683082 0.218222 -19.9319)
(319917 -2616.54 -7.47408 705066 0.405417 -20.234)
(331784 -8956.86 -7.51649 657699 0.55129 -20.7985)
(350471 -12861.8 -8.38377 327466 0.701484 -21.4678)
(-9.91938 0.916343 1.18746 844601 22875.3 257701)
(-6.27732 0.900931 2.1764 572691 1147.97 213231)
(-3.57494 0.392172 2.43939 582842 -1468.37 218953)
(-2.46984 -0.189762 2.50818 612215 -261.444 228096)
(-2.39002 -0.492193 2.52078 640093 1769.28 238517)
(-1.29394 -0.936357 2.6799 661887 5229.37 252419)
(-2.53789 -0.91274 2.75457 614891 11296.3 266623)
(6.41378 -3.18699 3.2565 283277 15227.8 283353)
(-15.8191 0.354354 -0.120107 642361 -5958.65 500174)
(-15.0566 0.335168 0.137374 501535 654.365 435039)
(-14.3229 0.0496131 0.126716 501111 700.103 438503)
(-13.8079 -0.316978 0.114132 515955 973.418 453831)
(-13.7683 -0.45049 0.15116 537918 3517.74 474899)
(-12.1841 -0.763508 0.352728 564793 7641.32 504587)
(-12.5245 -0.493853 0.582951 542789 11067.3 542215)
(-2.48081 -2.69764 1.02083 266700 11378.4 614969)
(-15.9972 0.189141 0.0918025 537200 6685.81 488891)
(-15.4246 0.125997 0.439672 442702 8872.67 455133)
(-14.8208 -0.0683495 0.533025 451287 7221.03 454899)
(-14.2002 -0.34268 0.568765 467269 5963.57 466650)
(-14.0346 -0.385042 0.613599 490045 6858.5 486661)
(-12.0373 -0.635024 0.757345 520502 8635.88 517591)
(-12.0574 -0.255835 0.890745 506046 8286.55 563691)
(-1.0472 -2.62001 1.10277 252728 5584.84 662564)
(-17.6611 0.0855749 0.00340083 482739 10266.2 451240)
(-17.366 -0.00914931 0.290942 399475 11929.5 429938)
(-17.0374 -0.145554 0.382868 413101 10651.8 429374)
(-16.4299 -0.344803 0.418269 433247 8941.25 437429)
(-16.1758 -0.304973 0.454699 458769 8131.26 454811)
(-13.8295 -0.492929 0.557609 490456 7444.61 485800)
(-13.4588 -0.0331747 0.64571 477236 5121.52 536556)
(-1.80536 -2.46016 0.769606 239078 2641.78 643126)
(-17.9095 0.0684248 0.0933504 453330 9450.05 425450)
(-17.616 -0.0396484 0.356211 373485 10869.8 407981)
(-17.2948 -0.158488 0.453352 388464 10445 408491)
(-16.6158 -0.332342 0.490393 411014 9066.08 415273)
(-16.2842 -0.257136 0.515718 438456 7547.5 431404)
(-13.7421 -0.423287 0.574618 470507 5728.72 462694)
(-13.223 0.0649395 0.610043 457681 3097.85 515267)
(-1.21271 -2.44331 0.655047 229508 1390.53 622170)
(-18.396 0.0614747 0.0592666 436738 7262.03 409997)
(-18.1173 -0.0515148 0.245419 358630 8193.52 393671)
(-17.809 -0.160806 0.318217 373746 8167.12 395208)
(-17.0874 -0.319764 0.345718 397076 7265.35 402131)
(-16.697 -0.220742 0.362946 425297 5853.21 418124)
(-14.0054 -0.371745 0.399525 457448 4053.42 449627)
(-13.3534 0.135032 0.418634 445065 1941.23 502407)
(-1.08195 -2.42118 0.441417 223380 805.936 607994)
(-18.508 0.063405 0.0527444 427601 4522.62 401326)
(-18.2176 -0.050963 0.168339 350502 5010.09 385372)
(-17.8958 -0.157124 0.21411 365522 5057.94 387563)
(-17.139 -0.311184 0.231081 388943 4559.58 394967)
(-16.7124 -0.201835 0.240725 417332 3637.33 411209)
(-13.9403 -0.34753 0.258764 449489 2433.08 442807)
(-13.2292 0.166219 0.265942 437483 1123.82 495296)
(-0.807286 -2.42484 0.27213 219723 444.648 599697)
(-18.6256 0.0631361 0.0122655 423510 1532.01 397415)
(-18.335 -0.0513987 0.0492132 346880 1680.32 381592)
(-18.009 -0.155416 0.064291 361824 1701.09 384089)
(-17.2365 -0.306495 0.0698749 385192 1541.55 391809)
(-16.7892 -0.191843 0.0733421 413571 1227.44 408254)
(-13.9764 -0.334107 0.0793909 445713 813.466 439885)
(-13.2249 0.18298 0.0825842 433907 374.311 492135)
(-0.733527 -2.42352 0.084715 217998 144.666 595908)
(354667 9.28393 -12674.5 -14.553 -0.734229 339506)
(336428 8.62547 -8731.4 -12.3856 -0.514734 683790)
(324158 8.61811 -2733.21 -9.73114 -0.359719 732539)
(311192 8.6487 -291.759 -8.02869 -0.233108 712769)
(300929 8.73385 226.221 -6.71807 -0.171702 691144)
(293833 8.78668 172.604 -5.79537 -0.106035 676337)
(289525 8.83119 64.7426 -5.21075 -0.0651571 667610)
(287519 8.85066 12.3496 -4.92892 -0.0194531 663618)
(691851 7.24212 -5771.68 -22.8025 -0.0494971 329291)
(624901 6.31671 -3414.91 -22.1613 0.0396404 626334)
(595098 6.10812 -538.579 -21.1523 0.0976736 651834)
(568410 6.03778 766.005 -20.3963 0.104208 627892)
(547960 6.0368 840.525 -19.7595 0.0865989 608828)
(533881 6.03386 530.252 -19.2924 0.0667654 596670)
(525314 6.04153 251.136 -18.9869 0.0395113 589401)
(521316 6.04375 70.3031 -18.8265 0.0145206 585971)
(684654 7.34147 5911.38 -20.5958 0.439991 325045)
(617403 6.47815 3808.07 -19.5559 0.436132 616942)
(587755 6.3453 657.352 -18.4758 0.392724 642061)
(561127 6.32509 -750.627 -17.7399 0.316103 618295)
(540673 6.35308 -857.464 -17.0898 0.245086 599381)
(526582 6.36734 -551.703 -16.6541 0.171255 587319)
(518006 6.38435 -265.939 -16.3532 0.101479 580108)
(514003 6.39019 -75.3617 -16.2144 0.0335285 576706)
(350625 8.39694 12863.8 -21.1922 0.818167 327696)
(331932 7.52206 8969.45 -20.427 0.672716 657935)
(320274 7.47708 2799.57 -19.663 0.56521 705960)
(307514 7.46936 285.366 -19.1385 0.439559 686685)
(297290 7.52494 -248.807 -18.6157 0.34004 665451)
(290219 7.55173 -192.282 -18.2943 0.233944 650917)
(285929 7.58024 -76.8276 -18.0541 0.140276 642367)
(283934 7.59103 -16.3465 -17.945 0.0457746 638461)
)
;
    }
    symmetry
    {
        type            symmetry;
    }
    bottom
    {
        type            calculated;
        value           nonuniform List<symmTensor> 
32
(
(-743084 65631.4 -8000.53 68065.2 62516.2 -759702)
(-504909 45373.9 -5848.04 29112.5 -15798.9 -226011)
(-428714 32494.2 -2389.06 280.15 -1572.8 -134336)
(-393757 26939.7 -745.117 -8420.81 5700.13 -120562)
(-374840 24801.9 -219.585 -11707.3 6963.08 -117405)
(-363948 23914.6 -89.7738 -13287.8 5897.71 -115902)
(-357754 23487.6 -50.0782 -13964.1 3833.48 -114921)
(-354903 23298.7 -17.48 -14185.5 1321.12 -114408)
(-235139 -8748.6 -3227.38 65006.6 56883.9 -550915)
(-86214.8 -11686.1 -1500.95 14654.1 -4253.61 -91823.8)
(-56255.2 -14840.7 -116.896 -10275.8 9181.11 -26526.2)
(-48794.7 -15769.3 446.724 -15835.2 12054 -22399.6)
(-46639.6 -15633.5 445.695 -17910.5 10170.2 -22939.5)
(-46167 -15323.2 285.268 -19472.8 7437.34 -23531.3)
(-46080.3 -15111.3 143.285 -20456.8 4533.57 -23930.7)
(-46051.6 -15016.8 42.4283 -20894.7 1525.36 -24126.3)
(-231790 9897.24 3176.99 64451.5 57060.4 -544651)
(-85426.8 11863.3 1798.37 11732.6 -3359.83 -92311.1)
(-55535.8 14384.9 369.451 -12971.1 9844.85 -27372.9)
(-48079.5 14978.6 -224.647 -18245.1 12523.4 -23107.2)
(-45947.5 14672.3 -267.834 -20106.9 10501.1 -23539.3)
(-45490.5 14274.1 -157.843 -21515.4 7658.45 -24061.6)
(-45411.4 14018.9 -67.0825 -22399.8 4660.58 -24418.3)
(-45385.7 13906.8 -17.0951 -22788.9 1566.78 -24593.3)
(-711794 -63915.7 8054.31 69382.5 63456.2 -735148)
(-479858 -43972.4 6017.83 24865.9 -13061.5 -219697)
(-404027 -31427.6 2473.84 -2428.73 452.283 -128502)
(-369372 -26143.4 800.967 -9760.48 7142.55 -114214)
(-350703 -24180 264.763 -12058.1 7975.58 -110697)
(-339946 -23395.4 124.192 -12943.7 6567.33 -108945)
(-333821 -23024.7 71.5281 -13181.2 4214.6 -107807)
(-330997 -22860.8 24.73 -13191 1444.79 -107215)
)
;
    }
}


// ************************************************************************* //
