/*--------------------------------*- C++ -*----------------------------------*\
| =========                 |                                                 |
| \\      /  F ield         | OpenFOAM: The Open Source CFD Toolbox           |
|  \\    /   O peration     | Version:  v1912                                 |
|   \\  /    A nd           | Website:  www.openfoam.com                      |
|    \\/     M anipulation  |                                                 |
\*---------------------------------------------------------------------------*/
FoamFile
{
    version     2.0;
    format      ascii;
    class       volScalarField;
    location    "0.28/solid";
    object      epsilonEq;
}
// * * * * * * * * * * * * * * * * * * * * * * * * * * * * * * * * * * * * * //

dimensions      [0 0 0 0 0 0 0];


internalField   nonuniform List<scalar> 
256
(
2.35399e-06
1.87342e-06
1.85661e-06
2.28754e-06
1.61921e-06
1.55721e-06
1.53896e-06
1.55788e-06
1.67391e-06
1.55612e-06
1.53756e-06
1.61409e-06
1.76051e-06
1.60031e-06
1.58193e-06
1.70204e-06
1.84939e-06
1.67346e-06
1.6552e-06
1.79168e-06
1.94388e-06
1.77424e-06
1.75602e-06
1.88664e-06
1.81773e-06
1.79144e-06
1.7744e-06
1.7654e-06
1.37614e-07
1.96008e-06
1.94533e-06
1.36139e-07
1.66033e-06
3.54516e-07
3.47022e-07
1.58793e-06
1.38155e-06
3.21324e-07
3.12937e-07
1.31261e-06
1.39293e-06
2.67304e-07
2.6001e-07
1.32456e-06
1.43346e-06
2.29271e-07
2.22756e-07
1.36482e-06
1.49683e-06
2.20283e-07
2.14132e-07
1.42746e-06
1.58725e-06
2.12068e-07
2.06312e-07
1.51746e-06
1.59564e-06
3.29212e-08
3.40287e-08
1.53011e-06
1.81717e-06
1.79193e-06
1.77533e-06
1.76619e-06
1.48973e-06
2.16119e-07
2.09726e-07
1.42174e-06
1.33541e-06
2.58182e-07
2.48777e-07
1.26738e-06
1.35544e-06
2.36678e-07
2.27485e-07
1.28619e-06
1.39247e-06
2.07365e-07
1.98287e-07
1.32203e-06
1.45224e-06
1.96591e-07
1.87429e-07
1.38041e-06
1.54349e-06
1.91951e-07
1.82934e-07
1.47065e-06
1.58665e-06
2.06652e-07
2.02398e-07
1.51772e-06
1.94326e-06
1.77534e-06
1.75796e-06
1.88915e-06
1.37025e-06
1.90427e-07
1.84604e-07
1.30738e-06
1.24248e-06
2.36951e-07
2.28592e-07
1.17826e-06
1.26858e-06
2.25646e-07
2.17096e-07
1.20214e-06
1.30562e-06
2.01868e-07
1.93233e-07
1.23737e-06
1.36285e-06
1.91671e-07
1.8288e-07
1.29281e-06
1.45072e-06
1.87185e-07
1.78553e-07
1.37933e-06
1.49543e-06
2.0489e-07
2.0118e-07
1.42772e-06
1.85276e-06
1.67707e-06
1.66014e-06
1.80053e-06
1.30011e-06
1.77182e-07
1.71529e-07
1.24107e-06
1.17977e-06
2.20385e-07
2.12962e-07
1.11874e-06
1.20856e-06
2.12117e-07
2.04422e-07
1.14482e-06
1.2461e-06
1.90865e-07
1.82955e-07
1.18011e-06
1.30217e-06
1.80802e-07
1.72636e-07
1.23406e-06
1.38782e-06
1.75728e-07
1.67662e-07
1.3181e-06
1.43112e-06
1.89138e-07
1.86282e-07
1.36494e-06
1.77935e-06
1.60838e-06
1.59187e-06
1.72909e-06
1.25825e-06
1.68883e-07
1.63383e-07
1.2018e-06
1.14121e-06
2.09297e-07
2.02535e-07
1.08241e-06
1.17093e-06
2.01815e-07
1.94797e-07
1.10919e-06
1.20868e-06
1.81487e-07
1.74205e-07
1.1444e-06
1.26413e-06
1.71312e-07
1.6368e-07
1.19749e-06
1.34847e-06
1.66017e-07
1.58393e-07
1.28001e-06
1.39039e-06
1.7665e-07
1.74499e-07
1.32536e-06
1.73169e-06
1.56543e-06
1.54922e-06
1.68296e-06
1.23406e-06
1.63778e-07
1.58412e-07
1.17923e-06
1.11885e-06
2.02589e-07
1.96258e-07
1.06147e-06
1.14884e-06
1.9527e-07
1.88703e-07
1.08838e-06
1.1866e-06
1.7524e-07
1.68395e-07
1.12345e-06
1.24168e-06
1.6485e-07
1.57591e-07
1.17601e-06
1.32524e-06
1.59488e-07
1.52153e-07
1.25762e-06
1.36624e-06
1.6897e-07
1.67297e-07
1.30197e-06
1.7033e-06
1.54042e-06
1.5244e-06
1.65561e-06
1.22289e-06
1.6132e-07
1.5603e-07
1.16882e-06
1.10854e-06
1.99435e-07
1.93321e-07
1.05184e-06
1.13857e-06
1.92146e-07
1.85804e-07
1.07875e-06
1.1763e-06
1.72201e-07
1.65579e-07
1.11372e-06
1.23119e-06
1.61669e-07
1.54601e-07
1.16602e-06
1.3144e-06
1.56284e-07
1.49094e-07
1.24719e-06
1.35494e-06
1.65449e-07
1.64017e-07
1.29105e-06
1.69003e-06
1.52889e-06
1.51297e-06
1.64287e-06
)
;

boundaryField
{
    interface
    {
        type            calculated;
        value           nonuniform List<scalar> 
192
(
3.23464e-06
2.44543e-06
2.52059e-06
2.63538e-06
2.76085e-06
2.91315e-06
2.88881e-06
1.53777e-06
2.8452e-06
2.4818e-06
2.51644e-06
2.5981e-06
2.71684e-06
2.89433e-06
3.03542e-06
2.88862e-06
2.55681e-06
2.32654e-06
2.36735e-06
2.44281e-06
2.55592e-06
2.73148e-06
2.89488e-06
2.91367e-06
2.35352e-06
2.15561e-06
2.20211e-06
2.2764e-06
2.38594e-06
2.55666e-06
2.71916e-06
2.76677e-06
2.23442e-06
2.04689e-06
2.09604e-06
2.17042e-06
2.2784e-06
2.44609e-06
2.6058e-06
2.66009e-06
2.16359e-06
1.98105e-06
2.03125e-06
2.10574e-06
2.21292e-06
2.37874e-06
2.53595e-06
2.59224e-06
2.12291e-06
1.94311e-06
1.99367e-06
2.06817e-06
2.17491e-06
2.33959e-06
2.49505e-06
2.55203e-06
2.10419e-06
1.92565e-06
1.97631e-06
2.0508e-06
2.15732e-06
2.32145e-06
2.47603e-06
2.53326e-06
3.37688e-06
2.60395e-06
2.67889e-06
2.79377e-06
2.91978e-06
3.07432e-06
3.06598e-06
1.84201e-06
3.21391e-06
2.80361e-06
2.82745e-06
2.91276e-06
3.04059e-06
3.22849e-06
3.38043e-06
3.19634e-06
3.18365e-06
2.77099e-06
2.7938e-06
2.87894e-06
3.00675e-06
3.19455e-06
3.34723e-06
3.17038e-06
3.28804e-06
2.51947e-06
2.59402e-06
2.70928e-06
2.83554e-06
2.98988e-06
2.98417e-06
1.7987e-06
3.1394e-06
2.35234e-06
2.42812e-06
2.54358e-06
2.66951e-06
2.82275e-06
2.80567e-06
1.50708e-06
2.72886e-06
2.36732e-06
2.401e-06
2.48113e-06
2.59814e-06
2.77451e-06
2.92061e-06
2.80636e-06
2.44447e-06
2.21269e-06
2.25108e-06
2.32415e-06
2.43472e-06
2.60818e-06
2.77534e-06
2.82544e-06
2.24731e-06
2.04638e-06
2.08952e-06
2.16081e-06
2.26733e-06
2.43543e-06
2.60092e-06
2.67928e-06
2.13284e-06
1.94151e-06
1.98679e-06
2.05772e-06
2.16233e-06
2.32705e-06
2.48928e-06
2.57401e-06
2.06514e-06
1.87834e-06
1.92439e-06
1.99515e-06
2.09872e-06
2.2613e-06
2.42072e-06
2.5073e-06
2.02638e-06
1.84207e-06
1.88836e-06
1.95897e-06
2.06193e-06
2.2232e-06
2.38067e-06
2.46791e-06
2.00858e-06
1.82542e-06
1.87176e-06
1.94228e-06
2.04495e-06
2.20558e-06
2.36208e-06
2.44956e-06
1.84257e-06
3.06596e-06
3.07475e-06
2.92559e-06
2.81875e-06
2.75099e-06
2.71086e-06
2.69213e-06
3.19678e-06
3.38139e-06
3.23101e-06
3.04774e-06
2.92962e-06
2.85692e-06
2.81456e-06
2.79495e-06
3.17081e-06
3.34845e-06
3.19758e-06
3.01474e-06
2.89696e-06
2.8245e-06
2.7823e-06
2.76277e-06
1.79909e-06
2.98502e-06
2.9927e-06
2.84567e-06
2.74067e-06
2.67432e-06
2.63515e-06
2.6169e-06
)
;
    }
    symmetry
    {
        type            symmetry;
    }
    bottom
    {
        type            calculated;
        value           nonuniform List<scalar> 
32
(
3.07945e-06
1.94198e-06
1.68928e-06
1.55905e-06
1.48489e-06
1.44e-06
1.41385e-06
1.40174e-06
2.1718e-06
4.30489e-07
2.39034e-07
2.12485e-07
2.01692e-07
1.94286e-07
1.89476e-07
1.87122e-07
2.15547e-06
4.21329e-07
2.30543e-07
2.04773e-07
1.94307e-07
1.87146e-07
1.82522e-07
1.80271e-07
3.00952e-06
1.86586e-06
1.61927e-06
1.49573e-06
1.42642e-06
1.38476e-06
1.3606e-06
1.34943e-06
)
;
    }
}


// ************************************************************************* //
