/*--------------------------------*- C++ -*----------------------------------*\
| =========                 |                                                 |
| \\      /  F ield         | OpenFOAM: The Open Source CFD Toolbox           |
|  \\    /   O peration     | Version:  v1912                                 |
|   \\  /    A nd           | Website:  www.openfoam.com                      |
|    \\/     M anipulation  |                                                 |
\*---------------------------------------------------------------------------*/
FoamFile
{
    version     2.0;
    format      ascii;
    class       pointVectorField;
    location    "0.28/solid";
    object      pointD;
}
// * * * * * * * * * * * * * * * * * * * * * * * * * * * * * * * * * * * * * //

dimensions      [0 1 0 0 0 0 0];


internalField   nonuniform List<vector> 
405
(
(2.74e-08 2.14921e-08 2.88255e-08)
(3.10561e-09 1.36831e-08 3.58855e-08)
(2.12424e-10 1.11339e-08 3.45753e-08)
(-2.66343e-09 1.36545e-08 3.5593e-08)
(-2.63297e-08 2.09863e-08 2.87852e-08)
(4.35053e-08 2.7209e-08 4.60595e-08)
(8.39139e-09 2.35728e-08 7.39681e-08)
(9.0194e-10 1.96569e-08 7.1521e-08)
(-6.55328e-09 2.31793e-08 7.36314e-08)
(-4.09978e-08 2.5943e-08 4.64506e-08)
(4.66268e-08 1.92614e-08 4.98262e-08)
(1.10672e-08 1.75652e-08 7.72768e-08)
(1.91917e-09 1.55452e-08 7.49324e-08)
(-7.2011e-09 1.65268e-08 7.73586e-08)
(-4.21867e-08 1.70157e-08 5.09797e-08)
(4.79564e-08 1.52783e-08 5.11323e-08)
(1.18799e-08 1.44185e-08 7.91243e-08)
(3.06959e-09 1.32857e-08 7.67121e-08)
(-5.72205e-09 1.28003e-08 7.95028e-08)
(-4.12994e-08 1.21328e-08 5.28237e-08)
(4.96188e-08 1.39934e-08 5.18655e-08)
(1.2738e-08 1.32092e-08 8.08297e-08)
(4.36497e-09 1.22019e-08 7.84993e-08)
(-3.99343e-09 1.10749e-08 8.14337e-08)
(-4.04299e-08 1.00262e-08 5.39613e-08)
(5.21947e-08 1.40635e-08 5.29434e-08)
(1.39872e-08 1.31528e-08 8.34322e-08)
(5.81305e-09 1.19727e-08 8.13197e-08)
(-2.35024e-09 1.05413e-08 8.42179e-08)
(-4.01656e-08 9.32701e-09 5.53633e-08)
(5.56681e-08 1.44951e-08 5.49278e-08)
(1.55003e-08 1.34884e-08 8.7662e-08)
(7.41924e-09 1.20572e-08 8.59026e-08)
(-6.72258e-10 1.04149e-08 8.86065e-08)
(-4.05402e-08 9.0178e-09 5.76269e-08)
(5.99732e-08 5.49002e-09 5.81922e-08)
(1.73614e-08 4.73226e-09 9.3693e-08)
(9.17187e-09 3.36761e-09 9.25017e-08)
(9.14803e-10 1.26991e-09 9.48253e-08)
(-4.16087e-08 -6.13138e-10 6.11659e-08)
(5.06369e-08 -2.90975e-08 4.77861e-08)
(1.8603e-08 -4.16868e-08 6.00254e-08)
(1.02642e-08 -4.22191e-08 5.98334e-08)
(1.82398e-09 -4.485e-08 6.17366e-08)
(-3.04051e-08 -3.47171e-08 5.09601e-08)
(3.28912e-08 1.30053e-08 2.84225e-09)
(0 0 0)
(0 0 0)
(0 0 0)
(-3.17252e-08 1.23543e-08 3.16204e-09)
(6.75077e-08 2.2313e-08 8.26091e-09)
(7.91462e-09 1.42974e-08 8.73293e-09)
(6.14097e-10 1.06163e-08 8.7614e-09)
(-6.61487e-09 1.36126e-08 9.32383e-09)
(-6.44341e-08 2.04914e-08 9.37784e-09)
(7.00928e-08 1.66821e-08 1.15769e-08)
(1.0418e-08 1.39661e-08 1.21685e-08)
(1.42001e-09 1.19627e-08 1.23188e-08)
(-7.50321e-09 1.27035e-08 1.31848e-08)
(-6.5367e-08 1.38491e-08 1.35159e-08)
(7.18668e-08 1.41999e-08 1.23136e-08)
(1.1129e-08 1.31289e-08 1.29774e-08)
(2.41462e-09 1.19478e-08 1.32298e-08)
(-6.23092e-09 1.135e-08 1.42982e-08)
(-6.51326e-08 1.042e-08 1.48541e-08)
(7.43293e-08 1.36624e-08 1.21029e-08)
(1.18882e-08 1.26511e-08 1.2863e-08)
(3.59063e-09 1.1568e-08 1.3226e-08)
(-4.6398e-09 1.03986e-08 1.44128e-08)
(-6.52196e-08 9.00005e-09 1.51016e-08)
(7.82607e-08 1.39854e-08 1.17286e-08)
(1.30614e-08 1.26728e-08 1.25749e-08)
(4.94268e-09 1.14087e-08 1.30589e-08)
(-3.11032e-09 9.96872e-09 1.43093e-08)
(-6.64364e-08 8.48917e-09 1.5097e-08)
(8.38822e-08 1.43359e-08 1.16455e-08)
(1.4551e-08 1.26479e-08 1.25198e-08)
(6.4676e-09 1.115e-08 1.31115e-08)
(-1.56883e-09 9.50362e-09 1.44107e-08)
(-6.90871e-08 8.0492e-09 1.53255e-08)
(9.09518e-08 5.45273e-09 1.23245e-08)
(1.64407e-08 3.8605e-09 1.31558e-08)
(8.15216e-09 2.47237e-09 1.38123e-08)
(-1.46733e-10 3.76955e-10 1.5166e-08)
(-7.31359e-08 -1.46786e-09 1.62492e-08)
(6.05663e-08 -4.06063e-08 1.34082e-08)
(1.81357e-08 -7.66832e-08 1.40491e-08)
(9.93386e-09 -7.62354e-08 1.47056e-08)
(1.67153e-09 -7.92967e-08 1.60778e-08)
(-4.10415e-08 -4.61928e-08 1.69463e-08)
(2.91125e-08 9.12338e-09 -4.06088e-10)
(0 0 0)
(0 0 0)
(0 0 0)
(-2.79746e-08 8.58392e-09 -1.51032e-10)
(6.02348e-08 1.58391e-08 3.57412e-10)
(7.0655e-09 8.57556e-09 1.08155e-09)
(3.94468e-10 5.23126e-09 1.33954e-09)
(-6.16932e-09 7.90162e-09 1.57214e-09)
(-5.73996e-08 1.4228e-08 1.25096e-09)
(6.2995e-08 1.25642e-08 2.29747e-09)
(9.36664e-09 1.0046e-08 3.17311e-09)
(1.02431e-09 8.15763e-09 3.60016e-09)
(-7.19987e-09 8.79357e-09 4.01807e-09)
(-5.88404e-08 9.92028e-09 3.86751e-09)
(6.45465e-08 1.1731e-08 3.21114e-09)
(9.9757e-09 1.07288e-08 4.16371e-09)
(1.87586e-09 9.57156e-09 4.71059e-09)
(-6.10863e-09 8.96996e-09 5.27279e-09)
(-5.8653e-08 8.12404e-09 5.30492e-09)
(6.68489e-08 1.20483e-08 3.20456e-09)
(1.06503e-08 1.10602e-08 4.23911e-09)
(2.93539e-09 9.98257e-09 4.88396e-09)
(-4.6624e-09 8.83736e-09 5.55553e-09)
(-5.87905e-08 7.54531e-09 5.71707e-09)
(7.08002e-08 1.26894e-08 2.90824e-09)
(1.17964e-08 1.13417e-08 3.99159e-09)
(4.19231e-09 1.00796e-08 4.7167e-09)
(-3.29272e-09 8.6758e-09 5.47837e-09)
(-6.01876e-08 7.34348e-09 5.76548e-09)
(7.67415e-08 1.29967e-08 2.85436e-09)
(1.33429e-08 1.12228e-08 3.91466e-09)
(5.63915e-09 9.7323e-09 4.69489e-09)
(-1.96239e-09 8.13013e-09 5.53873e-09)
(-6.32782e-08 6.86426e-09 5.99206e-09)
(8.46882e-08 4.38464e-09 3.3695e-09)
(1.53435e-08 2.73237e-09 4.34094e-09)
(7.2601e-09 1.38557e-09 5.14354e-09)
(-7.80642e-10 -6.71755e-10 6.04711e-09)
(-6.83108e-08 -2.35442e-09 6.69567e-09)
(5.70732e-08 -3.90699e-08 4.36321e-09)
(1.70858e-08 -7.2406e-08 5.27182e-09)
(8.98884e-09 -7.1421e-08 6.03183e-09)
(8.80373e-10 -7.48772e-08 6.95063e-09)
(-3.91914e-08 -4.44533e-08 7.31483e-09)
(2.63932e-08 7.93654e-09 -2.45576e-10)
(0 0 0)
(0 0 0)
(0 0 0)
(-2.53525e-08 7.51834e-09 -6.15652e-11)
(5.4982e-08 1.33536e-08 7.28193e-11)
(6.48864e-09 6.56529e-09 5.76579e-10)
(2.54607e-10 3.4524e-09 7.71647e-10)
(-5.87565e-09 5.96692e-09 9.35088e-10)
(-5.24687e-08 1.20062e-08 7.27114e-10)
(5.79598e-08 1.00485e-08 1.25327e-09)
(8.67815e-09 7.6461e-09 1.8744e-09)
(7.48723e-10 5.87004e-09 2.21164e-09)
(-7.06108e-09 6.4916e-09 2.50462e-09)
(-5.43762e-08 7.6884e-09 2.42448e-09)
(5.94933e-08 9.45291e-09 2.14291e-09)
(9.23944e-09 8.5021e-09 2.81419e-09)
(1.47835e-09 7.39903e-09 3.25277e-09)
(-6.1619e-09 6.84536e-09 3.65722e-09)
(-5.43997e-08 6.11901e-09 3.7376e-09)
(6.16775e-08 1.00452e-08 2.43986e-09)
(9.84194e-09 9.10264e-09 3.17653e-09)
(2.43324e-09 8.06444e-09 3.69538e-09)
(-4.85005e-09 6.98046e-09 4.19458e-09)
(-5.46158e-08 5.79438e-09 4.39106e-09)
(6.55278e-08 1.08373e-08 2.47699e-09)
(1.09346e-08 9.49858e-09 3.26861e-09)
(3.60262e-09 8.26898e-09 3.85026e-09)
(-3.59999e-09 6.93178e-09 4.43318e-09)
(-5.60725e-08 5.72347e-09 4.72879e-09)
(7.1494e-08 1.11312e-08 2.72775e-09)
(1.24979e-08 9.3154e-09 3.52009e-09)
(4.97713e-09 7.85966e-09 4.14148e-09)
(-2.42966e-09 6.32291e-09 4.79912e-09)
(-5.93126e-08 5.21727e-09 5.21987e-09)
(7.98025e-08 2.63976e-09 3.52711e-09)
(1.45844e-08 9.77992e-10 4.25384e-09)
(6.53784e-09 -2.93236e-10 4.88455e-09)
(-1.45402e-09 -2.32471e-09 5.5933e-09)
(-6.4796e-08 -3.88995e-09 6.16984e-09)
(5.43576e-08 -3.87402e-08 4.70772e-09)
(1.63429e-08 -6.98796e-08 5.57117e-09)
(8.21367e-09 -6.85811e-08 6.14343e-09)
(8.44362e-11 -7.2256e-08 6.87607e-09)
(-3.79427e-08 -4.39517e-08 7.0301e-09)
(2.47356e-08 7.46555e-09 -7.7654e-11)
(0 0 0)
(0 0 0)
(0 0 0)
(-2.37789e-08 7.14041e-09 5.21575e-11)
(5.16358e-08 1.22695e-08 1.41859e-10)
(6.08553e-09 5.8042e-09 4.87029e-10)
(1.68841e-10 2.83797e-09 6.22457e-10)
(-5.66129e-09 5.27981e-09 7.43533e-10)
(-4.93833e-08 1.11409e-08 6.0724e-10)
(5.46077e-08 8.63287e-09 8.48747e-10)
(8.17084e-09 6.32186e-09 1.30361e-09)
(5.65532e-10 4.63455e-09 1.54656e-09)
(-6.93609e-09 5.27442e-09 1.75985e-09)
(-5.14702e-08 6.53443e-09 1.69196e-09)
(5.61503e-08 7.73531e-09 1.53371e-09)
(8.69604e-09 6.8293e-09 2.03407e-09)
(1.19902e-09 5.78427e-09 2.35623e-09)
(-6.18942e-09 5.28909e-09 2.65252e-09)
(-5.16829e-08 4.66995e-09 2.69981e-09)
(5.82666e-08 8.16803e-09 1.94215e-09)
(9.23842e-09 7.27686e-09 2.49581e-09)
(2.06664e-09 6.28765e-09 2.88192e-09)
(-4.98964e-09 5.26986e-09 3.25261e-09)
(-5.19964e-08 4.17314e-09 3.3917e-09)
(6.20161e-08 8.88642e-09 2.21166e-09)
(1.02657e-08 7.58261e-09 2.81991e-09)
(3.16047e-09 6.39601e-09 3.25803e-09)
(-3.82381e-09 5.12595e-09 3.6947e-09)
(-5.3495e-08 4.00846e-09 3.90612e-09)
(6.79327e-08 9.12568e-09 2.67112e-09)
(1.18089e-08 7.30959e-09 3.29902e-09)
(4.4712e-09 5.89878e-09 3.77107e-09)
(-2.75993e-09 4.42076e-09 4.26521e-09)
(-5.68009e-08 3.4262e-09 4.56174e-09)
(7.63743e-08 7.48404e-10 3.59446e-09)
(1.39355e-08 -8.86162e-10 4.18721e-09)
(5.97808e-09 -2.07831e-09 4.66491e-09)
(-1.93104e-09 -4.09507e-09 5.19956e-09)
(-6.25016e-08 -5.59038e-09 5.60622e-09)
(5.23227e-08 -3.92047e-08 4.78599e-09)
(1.56813e-08 -6.88928e-08 5.55622e-09)
(7.60726e-09 -6.74072e-08 5.9802e-09)
(-4.73509e-10 -7.11883e-08 6.53758e-09)
(-3.71047e-08 -4.42669e-08 6.54679e-09)
(2.37539e-08 7.18655e-09 -1.27421e-11)
(0 0 0)
(0 0 0)
(0 0 0)
(-2.28546e-08 6.92569e-09 7.49699e-11)
(4.95988e-08 1.16365e-08 1.47715e-10)
(5.81175e-09 5.39372e-09 3.74906e-10)
(1.15835e-10 2.52242e-09 4.68127e-10)
(-5.50887e-09 4.92659e-09 5.51352e-10)
(-4.75244e-08 1.06664e-08 4.63903e-10)
(5.24923e-08 7.75287e-09 5.73334e-10)
(7.79817e-09 5.52386e-09 8.93915e-10)
(4.45981e-10 3.90373e-09 1.06529e-09)
(-6.81802e-09 4.5641e-09 1.20986e-09)
(-4.96624e-08 5.85707e-09 1.1512e-09)
(5.40179e-08 6.51289e-09 1.04199e-09)
(8.28156e-09 5.65132e-09 1.40744e-09)
(1.00897e-09 4.65687e-09 1.63806e-09)
(-6.16793e-09 4.21064e-09 1.8395e-09)
(-4.99908e-08 3.66624e-09 1.85039e-09)
(5.60857e-08 6.65829e-09 1.41972e-09)
(8.77335e-09 5.81376e-09 1.82855e-09)
(1.80918e-09 4.86966e-09 2.10758e-09)
(-5.05051e-09 3.90719e-09 2.36222e-09)
(-5.03841e-08 2.87839e-09 2.43688e-09)
(5.97574e-08 7.19671e-09 1.76635e-09)
(9.74336e-09 5.93121e-09 2.21943e-09)
(2.84248e-09 4.78555e-09 2.53879e-09)
(-3.94732e-09 3.57031e-09 2.84122e-09)
(-5.19201e-08 2.51897e-09 2.96791e-09)
(6.56136e-08 7.34992e-09 2.27894e-09)
(1.12566e-08 5.55075e-09 2.75436e-09)
(4.10088e-09 4.18208e-09 3.1009e-09)
(-2.95715e-09 2.74985e-09 3.44468e-09)
(-5.52623e-08 1.83057e-09 3.62979e-09)
(7.409e-08 -9.45476e-10 3.1391e-09)
(1.33943e-08 -2.54378e-09 3.59832e-09)
(5.56318e-09 -3.67082e-09 3.94943e-09)
(-2.22772e-09 -5.67562e-09 4.32284e-09)
(-6.10718e-08 -7.12716e-09 4.58252e-09)
(5.08717e-08 -3.9993e-08 4.1637e-09)
(1.51167e-08 -6.87836e-08 4.79202e-09)
(7.15419e-09 -6.71845e-08 5.10274e-09)
(-8.23744e-10 -7.10134e-08 5.49192e-09)
(-3.65582e-08 -4.49338e-08 5.42529e-09)
(2.31776e-08 7.00801e-09 4.65414e-12)
(0 0 0)
(0 0 0)
(0 0 0)
(-2.23137e-08 6.78824e-09 5.87533e-11)
(4.8387e-08 1.12263e-08 1.11379e-10)
(5.63926e-09 5.12712e-09 2.47435e-10)
(8.40102e-11 2.31581e-09 3.06073e-10)
(-5.41047e-09 4.69916e-09 3.57954e-10)
(-4.64238e-08 1.03606e-08 3.07085e-10)
(5.12051e-08 7.17392e-09 3.5995e-10)
(7.54971e-09 5.00907e-09 5.61017e-10)
(3.71543e-10 3.43608e-09 6.7075e-10)
(-6.72922e-09 4.11112e-09 7.59722e-10)
(-4.85705e-08 5.41745e-09 7.19711e-10)
(5.27011e-08 5.68186e-09 6.50196e-10)
(7.99381e-09 4.8588e-09 8.87014e-10)
(8.87085e-10 3.90255e-09 1.03649e-09)
(-6.13309e-09 3.4903e-09 1.1603e-09)
(-4.89591e-08 2.99089e-09 1.15751e-09)
(5.47307e-08 5.57997e-09 9.27e-10)
(8.44593e-09 4.77194e-09 1.19529e-09)
(1.64005e-09 3.86255e-09 1.37743e-09)
(-5.06919e-09 2.93959e-09 1.53499e-09)
(-4.94042e-08 1.95692e-09 1.57085e-09)
(5.83481e-08 5.94197e-09 1.22323e-09)
(9.37406e-09 4.70692e-09 1.52173e-09)
(2.62957e-09 3.59306e-09 1.7312e-09)
(-4.01081e-09 2.4172e-09 1.91977e-09)
(-5.09695e-08 1.41216e-09 1.98977e-09)
(6.41554e-08 6.0068e-09 1.64623e-09)
(1.08619e-08 4.22505e-09 1.96144e-09)
(3.8493e-09 2.88862e-09 2.1896e-09)
(-3.07194e-09 1.48922e-09 2.40518e-09)
(-5.4335e-08 6.20861e-10 2.51323e-09)
(7.26346e-08 -2.24991e-09 2.29943e-09)
(1.3e-08 -3.81856e-09 2.60723e-09)
(5.2784e-09 -4.89927e-09 2.83876e-09)
(-2.40877e-09 -6.89368e-09 3.07372e-09)
(-6.02044e-08 -8.31553e-09 3.22914e-09)
(4.99091e-08 -4.07497e-08 3.0385e-09)
(1.47016e-08 -6.8997e-08 3.47776e-09)
(6.84116e-09 -6.73287e-08 3.68315e-09)
(-1.04107e-09 -7.11788e-08 3.92727e-09)
(-3.62212e-08 -4.56012e-08 3.85076e-09)
(2.28718e-08 6.90773e-09 4.78733e-12)
(0 0 0)
(0 0 0)
(0 0 0)
(-2.20272e-08 6.71069e-09 3.05767e-11)
(4.77409e-08 1.0989e-08 5.79596e-11)
(5.54528e-09 4.96946e-09 1.21366e-10)
(6.70938e-11 2.19142e-09 1.49597e-10)
(-5.35625e-09 4.5641e-09 1.74562e-10)
(-4.58382e-08 1.01822e-08 1.5143e-10)
(5.05111e-08 6.83312e-09 1.74503e-10)
(7.41019e-09 4.70791e-09 2.70471e-10)
(3.30987e-10 3.16276e-09 3.23884e-10)
(-6.677e-09 3.84617e-09 3.66334e-10)
(-4.7984e-08 5.15723e-09 3.46897e-10)
(5.19833e-08 5.19252e-09 3.14061e-10)
(7.82766e-09 4.39504e-09 4.29417e-10)
(8.19358e-10 3.46228e-09 5.02777e-10)
(-6.10768e-09 3.06954e-09 5.61698e-10)
(-4.84004e-08 2.59351e-09 5.583e-10)
(5.39876e-08 4.93677e-09 4.58719e-10)
(8.25442e-09 4.15182e-09 5.90663e-10)
(1.5445e-09 3.26393e-09 6.80488e-10)
(-5.0733e-09 2.36424e-09 7.55704e-10)
(-4.88734e-08 1.40793e-09 7.70298e-10)
(5.75727e-08 5.18088e-09 6.25095e-10)
(9.15734e-09 3.96467e-09 7.72258e-10)
(2.50767e-09 2.8705e-09 8.75841e-10)
(-4.04188e-09 1.71821e-09 9.66323e-10)
(-5.04569e-08 7.40898e-10 9.97842e-10)
(6.33499e-08 5.18204e-09 8.60551e-10)
(1.06295e-08 3.41163e-09 1.01627e-09)
(3.70376e-09 2.09491e-09 1.12929e-09)
(-3.13409e-09 7.15448e-10 1.23318e-09)
(-5.38366e-08 -1.22459e-10 1.28377e-09)
(7.18258e-08 -3.0629e-09 1.21093e-09)
(1.2766e-08 -4.61361e-09 1.36354e-09)
(5.11243e-09 -5.66705e-09 1.4783e-09)
(-2.51002e-09 -7.65413e-09 1.59182e-09)
(-5.97384e-08 -9.05751e-09 1.6658e-09)
(4.93641e-08 -4.12697e-08 1.59577e-09)
(1.44545e-08 -6.92233e-08 1.81997e-09)
(6.65786e-09 -6.75172e-08 1.92199e-09)
(-1.16439e-09 -7.13758e-08 2.03961e-09)
(-3.60423e-08 -4.60667e-08 1.99314e-09)
(1.78907e-08 7.40986e-09 0)
(1.98381e-09 2.51004e-09 0)
(-6.54145e-12 7.58617e-10 0)
(-1.97604e-09 2.42175e-09 0)
(-1.73127e-08 7.19507e-09 0)
(2.90409e-08 9.24715e-09 0)
(5.51553e-09 4.91693e-09 0)
(6.18007e-11 2.14955e-09 0)
(-5.33901e-09 4.51893e-09 0)
(-2.79844e-08 8.55625e-09 0)
(3.18011e-08 6.32391e-09 0)
(7.3655e-09 4.60781e-09 0)
(3.18131e-10 3.07184e-09 0)
(-6.66003e-09 3.75796e-09 0)
(-3.01674e-08 4.86499e-09 0)
(3.2733e-08 4.9327e-09 0)
(7.77372e-09 4.24161e-09 0)
(7.97669e-10 3.31675e-09 0)
(-6.09885e-09 2.93033e-09 0)
(-3.009e-08 2.66837e-09 0)
(3.39204e-08 4.55167e-09 0)
(8.19179e-09 3.94606e-09 0)
(1.51365e-09 3.06542e-09 0)
(-5.07386e-09 2.17339e-09 0)
(-2.97933e-08 1.47674e-09 0)
(3.62034e-08 4.58456e-09 0)
(9.0863e-09 3.71681e-09 0)
(2.46803e-09 2.62926e-09 0)
(-4.05143e-09 1.4848e-09 0)
(-3.01214e-08 7.09522e-10 0)
(3.9959e-08 4.33928e-09 0)
(1.05531e-08 3.13838e-09 0)
(3.65618e-09 1.82824e-09 0)
(-3.1541e-09 4.55486e-10 0)
(-3.15096e-08 -3.07264e-10 0)
(4.55859e-08 -3.96387e-09 0)
(1.2689e-08 -4.88298e-09 0)
(5.05795e-09 -5.92745e-09 0)
(-2.5431e-09 -7.91188e-09 0)
(-3.45105e-08 -9.22703e-09 0)
(3.98957e-08 -3.18018e-08 0)
(1.4157e-08 -4.08666e-08 0)
(6.2028e-09 -4.03536e-08 0)
(-1.77083e-09 -4.35144e-08 0)
(-2.72309e-08 -3.65748e-08 0)
)
;

boundaryField
{
    interface
    {
        type            calculated;
    }
    symmetry
    {
        type            symmetry;
    }
    bottom
    {
        type            calculated;
    }
}


// ************************************************************************* //
