/*--------------------------------*- C++ -*----------------------------------*\
| =========                 |                                                 |
| \\      /  F ield         | OpenFOAM: The Open Source CFD Toolbox           |
|  \\    /   O peration     | Version:  v1912                                 |
|   \\  /    A nd           | Website:  www.openfoam.com                      |
|    \\/     M anipulation  |                                                 |
\*---------------------------------------------------------------------------*/
FoamFile
{
    version     2.0;
    format      ascii;
    class       volScalarField;
    location    "0.28/solid";
    object      sigmaEq;
}
// * * * * * * * * * * * * * * * * * * * * * * * * * * * * * * * * * * * * * //

dimensions      [1 -1 -2 0 0 0 0];


internalField   nonuniform List<scalar> 
256
(
543229
432329
428448
527894
373664
359357
355144
359510
386288
359104
354821
372483
406272
369303
365060
392778
426782
386183
381970
413464
448588
409440
405236
435379
419477
413409
409477
407401
31757.1
452327
448922
31416.7
383154
81811.3
80082.1
366445
318818
74151.6
72216.3
302911
321444
61685.6
60002.3
305668
330799
52908.7
51405.2
314959
345422
50834.6
49415
329414
366288
48938.8
47610.5
350182
368225
7597.19
7852.79
353103
419348
413523
409692
407582
343784
49873.6
48398.4
328094
308172
59580.5
57410.1
292471
312793
54618
52496.4
296813
321339
47853.5
45758.5
305085
335132
45367.2
43252.9
318557
356190
44296.3
42215.5
339380
366149
47688.9
46707.2
350244
448445
409694
405683
435957
316210
43944.8
42600.9
301702
286725
54681
52752.1
271907
292748
52072.1
50099.2
277417
301297
46585
44592.3
285546
314504
44231.8
42203.2
298340
334782
43196.5
41204.7
318308
345098
47282.2
46426.2
329473
427560
387016
383110
415508
300026
40888.2
39583.6
286400
272255
50858.2
49145.1
258171
278898
48950
47174.3
264189
287562
44045.8
42220.4
272332
300500
41723.6
39839.1
284782
320266
40552.5
38691.2
304178
330259
43647.1
42988.1
314986
410620
371166
367355
399022
290365
38973
37703.8
277338
263356
48299.3
46738.9
249786
270215
46572.6
44953.2
255966
278927
41881.7
40201.1
264092
291723
39533.4
37772.2
276344
311185
38311.7
36552.2
295387
320860
40765.4
40268.9
305853
399621
361254
357513
388376
284784
37795
36556.5
272130
258197
46751.3
45290.4
244954
265116
45062.3
43546.8
251165
273830
40440.1
38860.4
259258
286541
38042.4
36367.2
271388
305825
36805
35112.3
290219
315285
38993
38607
300454
393069
355481
351786
382064
282205
37227.6
36006.8
269729
255817
46023.5
44612.5
242733
262747
44341.3
42877.9
248943
271453
39738.7
38210.6
257012
284122
37308.2
35677.2
269082
303324
36065.6
34406.3
287812
312679
38180.5
37850.1
297935
390008
352821
349148
379125
)
;

boundaryField
{
    interface
    {
        type            calculated;
        value           nonuniform List<scalar> 
192
(
746454
564329
581674
608164
637120
672266
666650
354871
656586
572722
580716
599560
626963
667923
700482
666605
590032
536895
546311
563727
589827
630341
668049
672386
543121
497448
508179
525324
550601
589998
627500
638486
515634
472359
483703
500867
525784
564483
601338
613868
499290
457166
468750
485939
510675
548941
585219
598209
489902
448410
460078
477270
501903
539905
575780
588930
485583
444380
456073
473261
497844
535720
571392
584599
779281
600911
618205
644717
673794
709459
707535
425079
741672
646987
652488
672175
701676
745037
780099
737616
734688
639458
644722
664371
693866
737203
772437
731626
758779
581415
598620
625219
654356
689972
688656
415084
724477
542847
560335
586981
616040
651403
647463
347787
629738
546303
554077
572567
599570
640272
673988
647622
564109
510621
519480
536343
561859
601889
640463
652025
518609
472242
482196
498648
523230
562021
600213
618296
492195
448041
458491
474859
499000
537012
574449
594002
476571
433462
444090
460420
484320
521840
558627
578609
467627
425093
435775
452071
475830
513046
549385
569518
463519
421251
431944
448220
471911
508980
545095
565284
425208
707528
709559
675135
650482
634843
625583
621260
737719
780322
745617
703325
676066
659290
649514
644990
731724
772719
737902
695710
668529
651808
642068
637562
415176
688852
690622
656693
632463
617151
608112
603901
)
;
    }
    symmetry
    {
        type            symmetry;
    }
    bottom
    {
        type            calculated;
        value           nonuniform List<scalar> 
32
(
710643
448149
389834
359780
342667
332307
326273
323479
501185
99343.7
55161.7
49035.1
46544.3
44835.3
43725.2
43181.9
497415
97229.7
53202.1
47255.2
44840.1
43187.6
42120.5
41601
694505
430583
373678
345168
329174
319561
313985
311408
)
;
    }
}


// ************************************************************************* //
