/*--------------------------------*- C++ -*----------------------------------*\
| =========                 |                                                 |
| \\      /  F ield         | OpenFOAM: The Open Source CFD Toolbox           |
|  \\    /   O peration     | Version:  v1912                                 |
|   \\  /    A nd           | Website:  www.openfoam.com                      |
|    \\/     M anipulation  |                                                 |
\*---------------------------------------------------------------------------*/
FoamFile
{
    version     2.0;
    format      ascii;
    class       volScalarField;
    location    "0.28/solid";
    object      sigmaHyd;
}
// * * * * * * * * * * * * * * * * * * * * * * * * * * * * * * * * * * * * * //

dimensions      [1 -1 -2 0 0 0 0];


internalField   nonuniform List<scalar> 
256
(
-729909
-363551
-361665
-717465
-891105
-482146
-480156
-877122
-896537
-490377
-488277
-881837
-903514
-493516
-491293
-888256
-924389
-502811
-500514
-908795
-967228
-525785
-523487
-951659
-1.09103e+06
-619344
-616912
-1.0757e+06
-1.66003e+06
-1.15288e+06
-1.14725e+06
-1.63754e+06
-328029
-30575
-32160.1
-323248
-435670
-94057.6
-95644.3
-429978
-442451
-106190
-107738
-436317
-446189
-107300
-108805
-439668
-456984
-106241
-107721
-450141
-481662
-108547
-110032
-474678
-574895
-164153
-165439
-567803
-1.0912e+06
-619348
-616839
-1.07563e+06
-264835
-4375.8
-5991.6
-259519
-345845
-41963.9
-43683.5
-340156
-351178
-52284.2
-53993.8
-345196
-355446
-54154.6
-55839.2
-349136
-366402
-53605.6
-55275.2
-359767
-390840
-55760.1
-57431.1
-383972
-481590
-108191
-109630
-474386
-967365
-525496
-523044
-951256
-247078
-7434.07
-8896.52
-241202
-320647
-39177
-40779.7
-314714
-324875
-47862.8
-49487
-318782
-329352
-49863.1
-51483
-323003
-340870
-50068.9
-51685.7
-334225
-366111
-53250.2
-54871.1
-359207
-456415
-105258
-106636
-449059
-923787
-501588
-499033
-907231
-237408
-9619.56
-10961.7
-231143
-308195
-39689.2
-41196.5
-302080
-311936
-47553.8
-49106.8
-305753
-316473
-49499.5
-51066.2
-310097
-328295
-50100.7
-51676
-321659
-353979
-53912.3
-55497.2
-347086
-443901
-105734
-107074
-436504
-900014
-490081
-487467
-883240
-231660
-10846.8
-12102.8
-225112
-301030
-40182.8
-41621.6
-294761
-304572
-47675.1
-49175.4
-298292
-309143
-49575.6
-51102.6
-302711
-321123
-50379.6
-51924.5
-314462
-347028
-54542.6
-56102.7
-340121
-436646
-106264
-107581
-429212
-885703
-483419
-480772
-868792
-228427
-11571.6
-12771.7
-221695
-297030
-40516.8
-41910.7
-290651
-300494
-47841.1
-49305.6
-294135
-305088
-49722
-51221.3
-298603
-317150
-50631.5
-52155.1
-310456
-343163
-54983.8
-56526.9
-336234
-432578
-106653
-107954
-425114
-877445
-479641
-476973
-860449
-226971
-11920.2
-13093
-220148
-295231
-40686.9
-42058.5
-288795
-298669
-47944.8
-49391.2
-292267
-303275
-49819.8
-51304.8
-296759
-315373
-50775.6
-52288
-308658
-341431
-55211.7
-56745.8
-334486
-430745
-106858
-108152
-423263
-873648
-477915
-475238
-856610
)
;

boundaryField
{
    interface
    {
        type            zeroGradient;
    }
    symmetry
    {
        type            symmetry;
    }
    bottom
    {
        type            zeroGradient;
    }
}


// ************************************************************************* //
