/*--------------------------------*- C++ -*----------------------------------*\
| =========                 |                                                 |
| \\      /  F ield         | OpenFOAM: The Open Source CFD Toolbox           |
|  \\    /   O peration     | Version:  v1912                                 |
|   \\  /    A nd           | Website:  www.openfoam.com                      |
|    \\/     M anipulation  |                                                 |
\*---------------------------------------------------------------------------*/
FoamFile
{
    version     2.0;
    format      ascii;
    class       volScalarField;
    location    "0.28/solid";
    object      T;
}
// * * * * * * * * * * * * * * * * * * * * * * * * * * * * * * * * * * * * * //

dimensions      [0 0 0 1 0 0 0];


internalField   nonuniform List<scalar> 
256
(
291.894
292.428
292.43
291.899
291.752
292.351
292.353
291.758
291.737
292.343
292.346
291.743
291.721
292.335
292.338
291.728
291.695
292.322
292.325
291.702
291.647
292.296
292.299
291.654
291.516
292.204
292.207
291.523
290.692
291.44
291.446
290.706
292.478
292.932
292.932
292.477
292.406
292.92
292.92
292.404
292.399
292.919
292.919
292.396
292.391
292.919
292.918
292.389
292.377
292.917
292.917
292.376
292.351
292.913
292.913
292.349
292.26
292.865
292.865
292.258
291.516
292.204
292.207
291.523
292.553
292.967
292.967
292.551
292.491
292.961
292.961
292.488
292.484
292.961
292.96
292.481
292.477
292.961
292.96
292.474
292.464
292.96
292.959
292.462
292.438
292.957
292.956
292.437
292.351
292.913
292.913
292.349
291.647
292.296
292.299
291.654
292.576
292.97
292.969
292.574
292.516
292.964
292.964
292.513
292.509
292.964
292.963
292.506
292.502
292.964
292.963
292.499
292.489
292.963
292.962
292.487
292.464
292.96
292.959
292.462
292.377
292.917
292.917
292.376
291.695
292.322
292.325
291.702
292.588
292.97
292.97
292.585
292.529
292.965
292.964
292.525
292.522
292.965
292.964
292.519
292.515
292.964
292.963
292.512
292.502
292.964
292.963
292.499
292.476
292.961
292.96
292.474
292.391
292.919
292.918
292.389
291.721
292.335
292.338
291.728
292.594
292.971
292.97
292.591
292.536
292.965
292.965
292.532
292.529
292.965
292.964
292.526
292.522
292.965
292.964
292.519
292.509
292.964
292.963
292.506
292.483
292.961
292.96
292.481
292.398
292.919
292.919
292.396
291.736
292.342
292.345
291.743
292.598
292.971
292.97
292.595
292.54
292.966
292.965
292.536
292.533
292.965
292.964
292.529
292.526
292.965
292.964
292.522
292.513
292.964
292.963
292.51
292.487
292.961
292.96
292.485
292.402
292.92
292.919
292.4
291.744
292.347
292.349
291.751
292.599
292.971
292.97
292.596
292.542
292.966
292.965
292.538
292.535
292.965
292.964
292.531
292.527
292.965
292.964
292.524
292.514
292.964
292.963
292.511
292.489
292.961
292.96
292.486
292.404
292.92
292.919
292.402
291.748
292.348
292.351
291.755
)
;

boundaryField
{
    interface
    {
        type            fixedValue;
        value           nonuniform List<scalar> 
192
(
290.094
289.99
289.945
289.881
289.781
289.614
289.293
288.362
290.88
290.819
290.782
290.729
290.643
290.495
290.198
289.293
291.156
291.102
291.068
291.017
290.933
290.788
290.494
289.613
291.296
291.244
291.211
291.16
291.077
290.933
290.641
289.779
291.377
291.326
291.293
291.242
291.159
291.015
290.726
289.878
291.425
291.374
291.341
291.29
291.207
291.064
290.777
289.938
291.452
291.401
291.368
291.318
291.235
291.092
290.806
289.974
291.464
291.414
291.381
291.33
291.247
291.104
290.82
289.99
289.974
289.87
289.825
289.761
289.66
289.491
289.166
288.224
290.621
290.556
290.52
290.466
290.381
290.233
289.931
288.996
290.641
290.578
290.542
290.489
290.404
290.256
289.954
289.022
290.039
289.939
289.896
289.834
289.734
289.566
289.241
288.305
290.166
290.066
290.023
289.961
289.861
289.693
289.369
288.437
290.95
290.89
290.856
290.804
290.72
290.573
290.275
289.369
291.226
291.174
291.141
291.092
291.011
290.867
290.573
289.694
291.364
291.314
291.283
291.234
291.153
291.011
290.72
289.861
291.444
291.394
291.363
291.315
291.234
291.092
290.804
289.961
291.491
291.442
291.411
291.362
291.282
291.14
290.854
290.021
291.518
291.469
291.438
291.389
291.309
291.168
290.883
290.057
291.53
291.481
291.45
291.402
291.321
291.18
290.897
290.073
288.224
289.165
289.49
289.657
289.757
289.817
289.853
289.87
288.996
289.93
290.232
290.379
290.463
290.514
290.544
290.557
289.022
289.954
290.255
290.403
290.487
290.538
290.568
290.581
288.305
289.241
289.566
289.733
289.833
289.894
289.929
289.946
)
;
    }
    symmetry
    {
        type            symmetry;
    }
    bottom
    {
        type            fixedValue;
        value           uniform 293;
    }
}


// ************************************************************************* //
