/*--------------------------------*- C++ -*----------------------------------*\
| =========                 |                                                 |
| \\      /  F ield         | OpenFOAM: The Open Source CFD Toolbox           |
|  \\    /   O peration     | Version:  v1912                                 |
|   \\  /    A nd           | Website:  www.openfoam.com                      |
|    \\/     M anipulation  |                                                 |
\*---------------------------------------------------------------------------*/
FoamFile
{
    version     2.0;
    format      ascii;
    class       volVectorField;
    location    "0.28/solid";
    object      U;
}
// * * * * * * * * * * * * * * * * * * * * * * * * * * * * * * * * * * * * * //

dimensions      [0 1 -1 0 0 0 0];


internalField   nonuniform List<vector> 
256
(
(5.2499e-08 4.72725e-08 5.74908e-08)
(9.69135e-09 2.32628e-08 4.63313e-08)
(-1.03302e-08 2.2888e-08 4.60648e-08)
(-5.15676e-08 4.5573e-08 5.65692e-08)
(8.45869e-08 2.50656e-08 1.17605e-07)
(1.9689e-08 1.0077e-08 1.03442e-07)
(-2.03935e-08 9.76636e-09 1.03014e-07)
(-8.32667e-08 2.40884e-08 1.16187e-07)
(8.67028e-08 -1.07037e-08 1.56842e-07)
(2.06907e-08 -1.60464e-08 1.42759e-07)
(-2.14535e-08 -1.61792e-08 1.42275e-07)
(-8.54691e-08 -1.1011e-08 1.55246e-07)
(8.26821e-08 -4.64756e-08 1.91396e-07)
(1.86361e-08 -4.97791e-08 1.76284e-07)
(-1.96919e-08 -4.97311e-08 1.75764e-07)
(-8.17498e-08 -4.62493e-08 1.89679e-07)
(8.19374e-08 -8.40446e-08 2.27239e-07)
(1.77264e-08 -9.07851e-08 2.10184e-07)
(-1.92913e-08 -9.05799e-08 2.09635e-07)
(-8.15022e-08 -8.33666e-08 2.25431e-07)
(9.20282e-08 -1.27825e-07 2.68605e-07)
(2.1393e-08 -1.39709e-07 2.49259e-07)
(-2.36606e-08 -1.39375e-07 2.48686e-07)
(-9.22826e-08 -1.26767e-07 2.66739e-07)
(1.23265e-07 -1.92207e-07 3.19944e-07)
(3.24556e-08 -2.0066e-07 2.99236e-07)
(-3.56592e-08 -2.00229e-07 2.98627e-07)
(-1.24358e-07 -1.90849e-07 3.18016e-07)
(1.73545e-07 -3.11463e-07 3.74425e-07)
(4.47608e-08 -2.92404e-07 3.55443e-07)
(-4.93021e-08 -2.91697e-07 3.54745e-07)
(-1.75551e-07 -3.09338e-07 3.72333e-07)
(2.41003e-08 1.16088e-08 1.81306e-08)
(3.95971e-09 -3.83373e-09 2.26114e-08)
(-4.20272e-09 -4.00689e-09 2.2525e-08)
(-2.31117e-08 1.04565e-08 1.7838e-08)
(4.03761e-08 -1.12765e-08 6.07152e-08)
(9.04686e-09 -2.15074e-08 6.91251e-08)
(-9.00637e-09 -2.16996e-08 6.88985e-08)
(-3.88196e-08 -1.19746e-08 6.00226e-08)
(4.03936e-08 -4.14158e-08 9.87317e-08)
(9.18902e-09 -4.52979e-08 1.08413e-07)
(-9.02986e-09 -4.53837e-08 1.08121e-07)
(-3.87764e-08 -4.16354e-08 9.7844e-08)
(3.63358e-08 -7.43312e-08 1.32878e-07)
(7.30282e-09 -7.7132e-08 1.42529e-07)
(-7.32129e-09 -7.70709e-08 1.42203e-07)
(-3.49078e-08 -7.40994e-08 1.31878e-07)
(3.50303e-08 -1.10229e-07 1.6689e-07)
(6.45294e-09 -1.16557e-07 1.76009e-07)
(-6.89944e-09 -1.16356e-07 1.75659e-07)
(-3.40081e-08 -1.09587e-07 1.65802e-07)
(4.38479e-08 -1.49886e-07 2.03044e-07)
(9.90917e-09 -1.6144e-07 2.11596e-07)
(-1.10008e-08 -1.61121e-07 2.11221e-07)
(-4.34333e-08 -1.48893e-07 2.01873e-07)
(7.35116e-08 -1.9914e-07 2.38163e-07)
(2.05624e-08 -2.07331e-07 2.46511e-07)
(-2.25413e-08 -2.06931e-07 2.46104e-07)
(-7.38477e-08 -1.97879e-07 2.36897e-07)
(1.23241e-07 -2.80765e-07 2.55131e-07)
(3.24276e-08 -2.60011e-07 2.63754e-07)
(-3.56838e-08 -2.59395e-07 2.63316e-07)
(-1.24379e-07 -2.7881e-07 2.53773e-07)
(7.75969e-09 3.00355e-10 1.00777e-08)
(-9.35406e-10 -9.74607e-09 1.62438e-08)
(8.08532e-10 -9.88244e-09 1.61757e-08)
(-6.73916e-09 -7.79347e-10 9.87312e-09)
(1.24965e-08 -2.87903e-08 4.16824e-08)
(-5.00804e-10 -3.52265e-08 5.26368e-08)
(8.48165e-10 -3.53821e-08 5.24618e-08)
(-1.07699e-08 -2.94321e-08 4.11816e-08)
(1.06533e-08 -5.97262e-08 7.54404e-08)
(-1.3063e-09 -6.23059e-08 8.76751e-08)
(1.92583e-09 -6.23776e-08 8.74364e-08)
(-8.72623e-09 -5.99469e-08 7.4754e-08)
(6.96533e-09 -9.06266e-08 1.07725e-07)
(-3.03625e-09 -9.32544e-08 1.20044e-07)
(3.59944e-09 -9.31984e-08 1.19768e-07)
(-5.10995e-09 -9.04389e-08 1.0692e-07)
(5.89933e-09 -1.21946e-07 1.38671e-07)
(-3.78062e-09 -1.28345e-07 1.50772e-07)
(4.01145e-09 -1.2816e-07 1.5047e-07)
(-4.35092e-09 -1.21372e-07 1.37775e-07)
(1.457e-08 -1.52911e-07 1.67459e-07)
(-4.75804e-10 -1.64496e-07 1.79368e-07)
(1.39397e-10 -1.64201e-07 1.79042e-07)
(-1.35393e-08 -1.52002e-07 1.66482e-07)
(4.3604e-08 -1.87911e-07 1.88505e-07)
(9.77974e-09 -1.96304e-07 2.00408e-07)
(-1.09395e-08 -1.95937e-07 2.00058e-07)
(-4.32357e-08 -1.86747e-07 1.87447e-07)
(9.17729e-08 -2.5325e-07 1.90676e-07)
(2.12299e-08 -2.33867e-07 2.02932e-07)
(-2.36236e-08 -2.33285e-07 2.02566e-07)
(-9.21247e-08 -2.51349e-07 1.89553e-07)
(2.1118e-09 -3.15757e-09 8.87607e-09)
(-2.64297e-09 -1.05144e-08 1.25606e-08)
(2.5542e-09 -1.06526e-08 1.25105e-08)
(-1.06004e-09 -4.25791e-09 8.73254e-09)
(2.15059e-09 -3.52086e-08 3.37919e-08)
(-4.23655e-09 -3.96636e-08 4.03606e-08)
(4.72259e-09 -3.98235e-08 4.02355e-08)
(-3.00852e-10 -3.58875e-08 3.34426e-08)
(-5.22483e-10 -6.74817e-08 6.15608e-08)
(-5.49966e-09 -6.93784e-08 6.88579e-08)
(6.36977e-09 -6.94591e-08 6.86825e-08)
(2.67896e-09 -6.77528e-08 6.10665e-08)
(-3.66969e-09 -9.69629e-08 8.9069e-08)
(-7.0262e-09 -9.96132e-08 9.63261e-08)
(7.94587e-09 -9.95723e-08 9.61171e-08)
(5.85693e-09 -9.68385e-08 8.84694e-08)
(-4.02848e-09 -1.23937e-07 1.14587e-07)
(-7.51391e-09 -1.30538e-07 1.21607e-07)
(8.19394e-09 -1.30373e-07 1.21373e-07)
(6.00119e-09 -1.23435e-07 1.13904e-07)
(5.10507e-09 -1.48119e-07 1.35768e-07)
(-4.12749e-09 -1.59872e-07 1.42583e-07)
(4.31919e-09 -1.596e-07 1.42328e-07)
(-3.56655e-09 -1.47286e-07 1.35013e-07)
(3.38817e-08 -1.75852e-07 1.48214e-07)
(5.90604e-09 -1.84752e-07 1.55003e-07)
(-6.47513e-09 -1.84408e-07 1.54729e-07)
(-3.29298e-08 -1.74761e-07 1.47393e-07)
(8.07028e-08 -2.36018e-07 1.46964e-07)
(1.70782e-08 -2.18838e-07 1.54199e-07)
(-1.88438e-08 -2.18271e-07 1.53915e-07)
(-8.04086e-08 -2.34151e-07 1.46098e-07)
(8.21409e-10 -4.30512e-09 7.76511e-09)
(-2.78005e-09 -1.05325e-08 9.4702e-09)
(2.70881e-09 -1.06756e-08 9.43674e-09)
(2.51909e-10 -5.42711e-09 7.67196e-09)
(-7.51193e-11 -3.67623e-08 2.71845e-08)
(-4.72413e-09 -4.04599e-08 3.01204e-08)
(5.28478e-09 -4.06327e-08 3.00366e-08)
(2.00272e-09 -3.749e-08 2.69553e-08)
(-2.69038e-09 -6.91054e-08 4.85503e-08)
(-5.99907e-09 -7.08173e-08 5.1712e-08)
(7.01873e-09 -7.09141e-08 5.15923e-08)
(4.99657e-09 -6.94357e-08 4.82188e-08)
(-5.28478e-09 -9.73096e-08 6.98115e-08)
(-7.30756e-09 -1.00098e-07 7.2834e-08)
(8.45739e-09 -1.00075e-07 7.26878e-08)
(7.6998e-09 -9.72485e-08 6.93984e-08)
(-4.97196e-09 -1.21406e-07 8.90009e-08)
(-7.54023e-09 -1.28216e-07 9.17906e-08)
(8.52696e-09 -1.2807e-07 9.16233e-08)
(7.24821e-09 -1.20969e-07 8.85192e-08)
(4.61603e-09 -1.41998e-07 1.03797e-07)
(-4.02386e-09 -1.53923e-07 1.06401e-07)
(4.58941e-09 -1.5367e-07 1.06215e-07)
(-2.70464e-09 -1.4123e-07 1.03255e-07)
(3.31943e-08 -1.67034e-07 1.11462e-07)
(5.88323e-09 -1.76382e-07 1.14048e-07)
(-6.02473e-09 -1.76056e-07 1.13849e-07)
(-3.18084e-08 -1.66006e-07 1.1087e-07)
(7.9085e-08 -2.25338e-07 1.10036e-07)
(1.68969e-08 -2.09892e-07 1.12992e-07)
(-1.81981e-08 -2.09339e-07 1.12788e-07)
(-7.83051e-08 -2.23517e-07 1.09417e-07)
(7.2464e-10 -4.63456e-09 6.01974e-09)
(-2.56136e-09 -1.04285e-08 6.73248e-09)
(2.49842e-09 -1.05752e-08 6.71194e-09)
(3.61325e-10 -5.77123e-09 5.96394e-09)
(7.286e-11 -3.65084e-08 2.00301e-08)
(-4.32975e-09 -4.00187e-08 2.11436e-08)
(4.93122e-09 -4.02027e-08 2.10915e-08)
(1.90031e-09 -3.72736e-08 1.989e-08)
(-2.14918e-09 -6.81547e-08 3.5066e-08)
(-5.44413e-09 -6.99192e-08 3.61594e-08)
(6.55167e-09 -7.00304e-08 3.60839e-08)
(4.54627e-09 -6.85334e-08 3.48595e-08)
(-4.27499e-09 -9.52494e-08 4.98756e-08)
(-6.56342e-09 -9.82048e-08 5.08127e-08)
(7.85622e-09 -9.81971e-08 5.07186e-08)
(6.83445e-09 -9.52405e-08 4.96128e-08)
(-3.49436e-09 -1.17774e-07 6.2964e-08)
(-6.61497e-09 -1.24749e-07 6.3723e-08)
(7.80032e-09 -1.24619e-07 6.36131e-08)
(5.9702e-09 -1.1739e-07 6.26512e-08)
(6.37201e-09 -1.36887e-07 7.26644e-08)
(-3.00981e-09 -1.48928e-07 7.32984e-08)
(3.82453e-09 -1.48692e-07 7.3175e-08)
(-4.2091e-09 -1.36174e-07 7.23071e-08)
(3.47744e-08 -1.61158e-07 7.74229e-08)
(6.81556e-09 -1.70769e-07 7.80614e-08)
(-6.66555e-09 -1.70461e-07 7.79281e-08)
(-3.30901e-08 -1.60185e-07 7.70297e-08)
(8.00542e-08 -2.18579e-07 7.64361e-08)
(1.77365e-08 -2.04162e-07 7.73243e-08)
(-1.87124e-08 -2.03626e-07 7.71895e-08)
(-7.89343e-08 -2.16808e-07 7.6029e-08)
(8.03053e-10 -4.66549e-09 3.79147e-09)
(-2.3862e-09 -1.02927e-08 4.07404e-09)
(2.3265e-09 -1.04418e-08 4.06317e-09)
(2.89459e-10 -5.81128e-09 3.76252e-09)
(4.81761e-10 -3.58348e-08 1.22629e-08)
(-3.96465e-09 -3.93429e-08 1.26446e-08)
(4.58649e-09 -3.95342e-08 1.26166e-08)
(1.51572e-09 -3.66237e-08 1.21887e-08)
(-1.39358e-09 -6.67143e-08 2.11683e-08)
(-4.93126e-09 -6.85809e-08 2.14803e-08)
(6.08613e-09 -6.87022e-08 2.14391e-08)
(3.8411e-09 -6.71253e-08 2.10572e-08)
(-3.19754e-09 -9.30136e-08 2.98343e-08)
(-5.91984e-09 -9.61007e-08 3.00345e-08)
(7.29334e-09 -9.61041e-08 2.99824e-08)
(5.84e-09 -9.30405e-08 2.96904e-08)
(-2.14257e-09 -1.14777e-07 3.73875e-08)
(-5.86472e-09 -1.21858e-07 3.74815e-08)
(7.16599e-09 -1.21739e-07 3.74199e-08)
(4.73643e-09 -1.14429e-07 3.72135e-08)
(7.86128e-09 -1.33392e-07 4.28839e-08)
(-2.21426e-09 -1.45492e-07 4.29124e-08)
(3.17811e-09 -1.45268e-07 4.28424e-08)
(-5.54626e-09 -1.32718e-07 4.26826e-08)
(3.61326e-08 -1.57529e-07 4.55324e-08)
(7.55925e-09 -1.67258e-07 4.55743e-08)
(-7.23081e-09 -1.66963e-07 4.54985e-08)
(-3.42644e-08 -1.56599e-07 4.53098e-08)
(8.10353e-08 -2.14504e-07 4.49875e-08)
(1.84233e-08 -2.00596e-07 4.51689e-08)
(-1.9195e-08 -2.00073e-07 4.50932e-08)
(-7.97016e-08 -2.12773e-07 4.47588e-08)
(8.47789e-10 -4.63328e-09 1.29252e-09)
(-2.3069e-09 -1.01996e-08 1.36867e-09)
(2.2481e-09 -1.03499e-08 1.3653e-09)
(2.47417e-10 -5.7834e-09 1.28362e-09)
(6.91719e-10 -3.53738e-08 4.12699e-09)
(-3.79285e-09 -3.8904e-08 4.21884e-09)
(4.42277e-09 -3.90989e-08 4.21007e-09)
(1.31609e-09 -3.6174e-08 4.1039e-09)
(-1.0069e-09 -6.57994e-08 7.07361e-09)
(-4.68376e-09 -6.77302e-08 7.13494e-09)
(5.8588e-09 -6.78565e-08 7.12194e-09)
(3.47656e-09 -6.62261e-08 7.03872e-09)
(-2.65282e-09 -9.1692e-08 9.92021e-09)
(-5.60817e-09 -9.48485e-08 9.94208e-09)
(7.01738e-09 -9.48575e-08 9.9255e-09)
(5.33265e-09 -9.17369e-08 9.87463e-09)
(-1.47373e-09 -1.13152e-07 1.23845e-08)
(-5.50481e-09 -1.20283e-07 1.23716e-08)
(6.85866e-09 -1.20171e-07 1.23519e-08)
(4.12177e-09 -1.12824e-07 1.23289e-08)
(8.58411e-09 -1.31633e-07 1.41654e-08)
(-1.83638e-09 -1.43756e-07 1.41328e-08)
(2.86915e-09 -1.43539e-07 1.41102e-08)
(-6.19812e-09 -1.30979e-07 1.41007e-08)
(3.67865e-08 -1.55781e-07 1.502e-08)
(7.91169e-09 -1.65548e-07 1.49939e-08)
(-7.49938e-09 -1.6526e-07 1.49694e-08)
(-3.48312e-08 -1.54873e-07 1.49481e-08)
(8.15069e-08 -2.1257e-07 1.48477e-08)
(1.87473e-08 -1.9886e-07 1.48662e-08)
(-1.94212e-08 -1.98344e-07 1.48418e-08)
(-8.00704e-08 -2.10862e-07 1.47742e-08)
)
;

boundaryField
{
    interface
    {
        type            calculated;
        value           nonuniform List<vector> 
192
(
(4.39677e-08 8.15439e-08 4.9887e-08)
(7.13182e-08 3.36164e-08 1.05231e-07)
(7.37101e-08 -1.11801e-08 1.43755e-07)
(7.05046e-08 -4.76671e-08 1.78467e-07)
(7.00269e-08 -8.17082e-08 2.14447e-07)
(7.88784e-08 -1.17493e-07 2.55771e-07)
(1.05914e-07 -1.71828e-07 3.06812e-07)
(1.7117e-07 -2.9788e-07 3.60821e-07)
(8.83147e-10 2.77278e-08 6.94635e-09)
(1.40062e-08 -7.20334e-09 4.26931e-08)
(1.35873e-08 -4.2426e-08 7.97198e-08)
(9.41028e-09 -7.56722e-08 1.13949e-07)
(7.52754e-09 -1.08351e-07 1.47881e-07)
(1.4357e-08 -1.40266e-07 1.8368e-07)
(3.92698e-08 -1.79292e-07 2.18248e-07)
(1.05948e-07 -2.67648e-07 2.34688e-07)
(-1.49693e-08 5.36431e-09 4.58111e-09)
(-1.09793e-08 -2.80671e-08 3.21265e-08)
(-1.311e-08 -6.11092e-08 6.52117e-08)
(-1.69706e-08 -9.18153e-08 9.77238e-08)
(-1.84744e-08 -1.20045e-07 1.28906e-07)
(-1.12664e-08 -1.43486e-07 1.57773e-07)
(1.41664e-08 -1.68611e-07 1.78598e-07)
(7.87703e-08 -2.40425e-07 1.80041e-07)
(-2.06569e-08 -2.09207e-09 7.14185e-09)
(-2.04987e-08 -3.58673e-08 3.06493e-08)
(-2.33171e-08 -6.8937e-08 5.82252e-08)
(-2.65797e-08 -9.78397e-08 8.60067e-08)
(-2.72441e-08 -1.21744e-07 1.11869e-07)
(-1.92759e-08 -1.38642e-07 1.3328e-07)
(6.47315e-09 -1.56953e-07 1.45612e-07)
(6.90883e-08 -2.23275e-07 1.43792e-07)
(-2.22147e-08 -4.11864e-09 7.41859e-09)
(-2.27667e-08 -3.76404e-08 2.66653e-08)
(-2.54368e-08 -7.04081e-08 4.81438e-08)
(-2.80619e-08 -9.78802e-08 6.96603e-08)
(-2.79417e-08 -1.18931e-07 8.91346e-08)
(-1.93562e-08 -1.32456e-07 1.04114e-07)
(6.4416e-09 -1.48417e-07 1.11685e-07)
(6.75262e-08 -2.12617e-07 1.09874e-07)
(-2.24821e-08 -4.43528e-09 6.01533e-09)
(-2.27318e-08 -3.72271e-08 2.01694e-08)
(-2.49549e-08 -6.92419e-08 3.53903e-08)
(-2.70399e-08 -9.5586e-08 5.03975e-08)
(-2.63706e-08 -1.15113e-07 6.36714e-08)
(-1.74224e-08 -1.2732e-07 7.34758e-08)
(8.29443e-09 -1.42738e-07 7.81575e-08)
(6.83304e-08 -2.0589e-07 7.69238e-08)
(-2.24877e-08 -4.34439e-09 3.82237e-09)
(-2.23884e-08 -3.63841e-08 1.24177e-08)
(-2.42346e-08 -6.76344e-08 2.1454e-08)
(-2.59515e-08 -9.32011e-08 3.02399e-08)
(-2.49591e-08 -1.12013e-07 3.78928e-08)
(-1.58344e-08 -1.23824e-07 4.34369e-08)
(9.78206e-09 -1.39236e-07 4.60355e-08)
(6.91683e-08 -2.01856e-07 4.53507e-08)
(-2.24766e-08 -4.2485e-09 1.30374e-09)
(-2.22033e-08 -3.58377e-08 4.17951e-09)
(-2.3858e-08 -6.66358e-08 7.17031e-09)
(-2.53948e-08 -9.18091e-08 1.00564e-08)
(-2.42562e-08 -1.10343e-07 1.25517e-08)
(-1.5063e-08 -1.22069e-07 1.43461e-08)
(1.0492e-08 -1.3755e-07 1.51834e-08)
(6.95658e-08 -1.9995e-07 1.49655e-08)
(5.35091e-08 9.10467e-08 4.04553e-08)
(8.72313e-08 4.99038e-08 9.49875e-08)
(8.97241e-08 7.74416e-09 1.34655e-07)
(8.53672e-08 -2.88764e-08 1.70518e-07)
(8.40684e-08 -6.47421e-08 2.07065e-07)
(9.36077e-08 -1.04648e-07 2.47263e-07)
(1.24653e-07 -1.65752e-07 2.93952e-07)
(1.75601e-07 -2.98419e-07 3.62121e-07)
(6.83298e-09 6.07064e-08 1.80814e-08)
(1.60392e-08 3.41841e-08 6.89894e-08)
(1.7047e-08 2.1644e-09 1.07208e-07)
(1.47266e-08 -3.29227e-08 1.40728e-07)
(1.33238e-08 -7.25414e-08 1.74088e-07)
(1.64118e-08 -1.17446e-07 2.10639e-07)
(2.7125e-08 -1.74114e-07 2.54798e-07)
(3.984e-08 -2.79067e-07 3.28168e-07)
(-7.77268e-09 6.01579e-08 1.73001e-08)
(-1.72095e-08 3.38191e-08 6.81597e-08)
(-1.83334e-08 2.00847e-09 1.06287e-07)
(-1.63448e-08 -3.2891e-08 1.39735e-07)
(-1.54811e-08 -7.23493e-08 1.73036e-07)
(-1.92922e-08 -1.17127e-07 2.09526e-07)
(-3.09656e-08 -1.73714e-07 2.53596e-07)
(-4.50807e-08 -2.78375e-07 3.26758e-07)
(-5.28129e-08 8.87621e-08 3.79222e-08)
(-8.62881e-08 4.87578e-08 9.23236e-08)
(-8.89312e-08 7.36236e-09 1.31685e-07)
(-8.49218e-08 -2.87029e-08 1.67322e-07)
(-8.41557e-08 -6.41017e-08 2.03703e-07)
(-9.44097e-08 -1.03621e-07 2.43768e-07)
(-1.26316e-07 -1.64451e-07 2.90329e-07)
(-1.78219e-07 -2.9632e-07 3.58234e-07)
(-3.67193e-08 7.92818e-08 4.8831e-08)
(-6.36161e-08 3.25641e-08 1.03562e-07)
(-6.59686e-08 -1.13899e-08 1.4184e-07)
(-6.29459e-08 -4.72408e-08 1.76381e-07)
(-6.28564e-08 -8.0733e-08 2.1223e-07)
(-7.22464e-08 -1.16053e-07 2.53462e-07)
(-9.97672e-08 -1.70032e-07 3.04408e-07)
(-1.64281e-07 -2.95212e-07 3.58205e-07)
(5.14247e-09 2.59395e-08 6.62998e-09)
(-7.5523e-09 -8.05818e-09 4.18971e-08)
(-6.98415e-09 -4.26131e-08 7.8657e-08)
(-2.89543e-09 -7.52912e-08 1.12717e-07)
(-1.30792e-09 -1.07455e-07 1.46513e-07)
(-8.58681e-09 -1.38933e-07 1.82186e-07)
(-3.39119e-08 -1.77641e-07 2.16616e-07)
(-9.97832e-08 -2.65199e-07 2.32916e-07)
(2.06766e-08 3.59801e-09 4.35934e-09)
(1.72318e-08 -2.89352e-08 3.15508e-08)
(1.96387e-08 -6.13616e-08 6.43892e-08)
(2.35332e-08 -9.15323e-08 9.67278e-08)
(2.48635e-08 -1.19264e-07 1.27772e-07)
(1.73405e-08 -1.4228e-07 1.56514e-07)
(-8.36123e-09 -1.67099e-07 1.77217e-07)
(-7.20918e-08 -2.38061e-07 1.7856e-07)
(2.62412e-08 -3.91761e-09 6.98418e-09)
(2.67043e-08 -3.68221e-08 3.02487e-08)
(2.98991e-08 -6.92919e-08 5.76351e-08)
(3.33038e-08 -9.76686e-08 8.52663e-08)
(3.39081e-08 -1.21078e-07 1.11004e-07)
(2.57465e-08 -1.37552e-07 1.32304e-07)
(-1.46458e-10 -1.55549e-07 1.44536e-07)
(-6.18152e-08 -2.20968e-07 1.42643e-07)
(2.77545e-08 -5.99069e-09 7.31619e-09)
(2.8976e-08 -3.8676e-08 2.64045e-08)
(3.20944e-08 -7.08596e-08 4.77515e-08)
(3.49459e-08 -9.7811e-08 6.91536e-08)
(3.48572e-08 -1.18367e-07 8.85266e-08)
(2.6174e-08 -1.31465e-07 1.03416e-07)
(3.2692e-10 -1.47105e-07 1.10909e-07)
(-5.97491e-08 -2.10378e-07 1.09048e-07)
(2.80115e-08 -6.33655e-09 5.95428e-09)
(2.89624e-08 -3.83196e-08 2.00115e-08)
(3.16808e-08 -6.97666e-08 3.51481e-08)
(3.40512e-08 -9.5596e-08 5.00775e-08)
(3.34797e-08 -1.14628e-07 6.3279e-08)
(2.4503e-08 -1.26408e-07 7.30174e-08)
(-1.19561e-09 -1.41503e-07 7.76436e-08)
(-6.01747e-08 -2.0372e-07 7.63781e-08)
(2.80223e-08 -6.26248e-09 3.79084e-09)
(2.86409e-08 -3.75114e-08 1.23346e-08)
(3.10103e-08 -6.8206e-08 2.13244e-08)
(3.30483e-08 -9.32638e-08 3.00657e-08)
(3.21951e-08 -1.11582e-07 3.76755e-08)
(2.30863e-08 -1.22966e-07 4.31798e-08)
(-2.46799e-09 -1.38059e-07 4.5745e-08)
(-6.07635e-08 -1.99741e-07 4.50428e-08)
(2.80159e-08 -6.17417e-09 1.29408e-09)
(2.84683e-08 -3.69811e-08 4.15374e-09)
(3.06603e-08 -6.72298e-08 7.1298e-09)
(3.25353e-08 -9.18976e-08 1.00014e-08)
(3.15556e-08 -1.0994e-07 1.24825e-08)
(2.23999e-08 -1.2124e-07 1.42636e-08)
(-3.07107e-09 -1.36403e-07 1.50898e-08)
(-6.10365e-08 -1.97865e-07 1.48663e-08)
(1.75571e-07 -2.9923e-07 3.73272e-07)
(1.2461e-07 -2.54874e-07 2.40578e-07)
(9.33383e-08 -2.32091e-07 1.79489e-07)
(8.27779e-08 -2.16241e-07 1.39986e-07)
(8.15825e-08 -2.05342e-07 1.05677e-07)
(8.27932e-08 -1.98112e-07 7.37276e-08)
(8.38811e-08 -1.93678e-07 4.34852e-08)
(8.43883e-08 -1.91566e-07 1.43642e-08)
(3.98184e-08 -2.65197e-07 3.54013e-07)
(2.70838e-08 -2.15686e-07 2.4912e-07)
(1.62371e-08 -1.95462e-07 1.92639e-07)
(1.26399e-08 -1.83155e-07 1.48205e-07)
(1.28956e-08 -1.75032e-07 1.09324e-07)
(1.39965e-08 -1.69449e-07 7.50004e-08)
(1.48138e-08 -1.65829e-07 4.38434e-08)
(1.51892e-08 -1.64035e-07 1.44323e-08)
(-4.50695e-08 -2.63762e-07 3.5333e-07)
(-3.09854e-08 -2.14449e-07 2.48713e-07)
(-1.92545e-08 -1.94296e-07 1.92285e-07)
(-1.50173e-08 -1.82022e-07 1.47928e-07)
(-1.47935e-08 -1.73916e-07 1.09127e-07)
(-1.55529e-08 -1.68347e-07 7.48728e-08)
(-1.61525e-08 -1.64736e-07 4.37728e-08)
(-1.64225e-08 -1.62947e-07 1.44097e-08)
(-1.78205e-07 -2.9526e-07 3.71209e-07)
(-1.26332e-07 -2.51144e-07 2.39276e-07)
(-9.42545e-08 -2.2844e-07 1.78389e-07)
(-8.30318e-08 -2.12639e-07 1.3914e-07)
(-8.13323e-08 -2.01779e-07 1.05081e-07)
(-8.21848e-08 -1.94586e-07 7.33431e-08)
(-8.30447e-08 -1.90181e-07 4.32725e-08)
(-8.34414e-08 -1.88085e-07 1.42964e-08)
)
;
    }
    symmetry
    {
        type            symmetry;
    }
    bottom
    {
        type            calculated;
        value           uniform (0 0 0);
    }
}


// ************************************************************************* //
