/*--------------------------------*- C++ -*----------------------------------*\
| =========                 |                                                 |
| \\      /  F ield         | OpenFOAM: The Open Source CFD Toolbox           |
|  \\    /   O peration     | Version:  v1912                                 |
|   \\  /    A nd           | Website:  www.openfoam.com                      |
|    \\/     M anipulation  |                                                 |
\*---------------------------------------------------------------------------*/
FoamFile
{
    version     2.0;
    format      ascii;
    class       volSymmTensorField;
    location    "0.57/solid";
    object      epsilon;
}
// * * * * * * * * * * * * * * * * * * * * * * * * * * * * * * * * * * * * * //

dimensions      [0 0 0 0 0 0 0];


internalField   nonuniform List<symmTensor> 
256
(
(-2.72516e-06 1.55837e-07 -6.08451e-08 1.23943e-06 1.70958e-07 -2.81646e-06)
(-5.08378e-07 -5.16979e-08 -2.50664e-08 7.75999e-07 1.69614e-07 -2.50921e-06)
(-4.97506e-07 5.98923e-08 2.43774e-08 7.61121e-07 1.71018e-07 -2.47906e-06)
(-2.58682e-06 -1.47205e-07 6.07876e-08 1.18356e-06 1.76154e-07 -2.73316e-06)
(-2.76637e-06 -6.16263e-09 -9.1141e-08 -3.94417e-07 1.13457e-08 -2.82764e-06)
(-8.51751e-07 -3.11263e-08 -4.07223e-08 -1.68077e-07 2.04449e-08 -2.49984e-06)
(-8.37483e-07 4.04426e-08 4.05777e-08 -1.7656e-07 2.17875e-08 -2.46973e-06)
(-2.62229e-06 1.05404e-08 9.13753e-08 -4.15309e-07 1.5865e-08 -2.74704e-06)
(-2.82069e-06 -2.55641e-08 -9.73978e-08 -4.39491e-07 -9.00969e-09 -2.87936e-06)
(-8.80692e-07 -2.442e-08 -4.43652e-08 -3.05881e-07 -7.03439e-09 -2.51188e-06)
(-8.66744e-07 3.21999e-08 4.4653e-08 -3.12889e-07 -6.12873e-09 -2.48102e-06)
(-2.67425e-06 2.87191e-08 9.78065e-08 -4.58015e-07 -5.87852e-09 -2.79671e-06)
(-2.877e-06 -1.53561e-08 -1.00647e-07 -3.82475e-07 -1.47948e-10 -2.95171e-06)
(-8.41756e-07 -1.73476e-08 -4.6001e-08 -3.64766e-07 -1.59755e-09 -2.55947e-06)
(-8.27969e-07 2.31386e-08 4.64147e-08 -3.71083e-07 -9.83465e-10 -2.52804e-06)
(-2.72807e-06 1.78118e-08 1.01126e-07 -4.00069e-07 2.07062e-09 -2.86736e-06)
(-2.96511e-06 -1.68896e-09 -1.03968e-07 -3.77982e-07 1.61893e-08 -3.05267e-06)
(-8.31492e-07 -8.51877e-09 -4.77818e-08 -4.13827e-07 1.39856e-08 -2.646e-06)
(-8.17588e-07 1.2526e-08 4.81876e-08 -4.19958e-07 1.44499e-08 -2.61412e-06)
(-2.81382e-06 3.43536e-09 1.04488e-07 -3.95029e-07 1.78883e-08 -2.9671e-06)
(-3.11524e-06 2.28643e-08 -1.06873e-07 -5.03234e-07 4.47193e-08 -3.19968e-06)
(-8.95897e-07 6.36553e-09 -4.95037e-08 -5.15603e-07 4.34675e-08 -2.78693e-06)
(-8.82016e-07 -4.34881e-09 4.98908e-08 -5.21574e-07 4.3858e-08 -2.75462e-06)
(-2.96243e-06 -2.2104e-08 1.07457e-07 -5.19867e-07 4.61157e-08 -3.11301e-06)
(-3.357e-06 7.1137e-08 -1.06491e-07 -1.19108e-06 9.24116e-08 -3.42544e-06)
(-1.08065e-06 3.08454e-08 -4.95131e-08 -1.0636e-06 9.61726e-08 -3.02915e-06)
(-1.06734e-06 -3.18797e-08 4.99249e-08 -1.06561e-06 9.6495e-08 -2.9966e-06)
(-3.205e-06 -7.18531e-08 1.07154e-07 -1.19849e-06 9.35192e-08 -3.3382e-06)
(-3.78195e-06 9.93178e-08 -9.8892e-08 -3.85143e-06 1.19776e-07 -3.8503e-06)
(-1.35064e-06 4.65248e-08 -4.60459e-08 -3.55275e-06 1.28585e-07 -3.5508e-06)
(-1.33769e-06 -4.6224e-08 4.64156e-08 -3.5216e-06 1.28832e-07 -3.51972e-06)
(-3.63181e-06 -9.95386e-08 9.95031e-08 -3.76836e-06 1.20557e-07 -3.76778e-06)
(-2.2434e-06 9.53091e-08 -4.52572e-08 5.70257e-07 -3.23719e-08 -4.62309e-07)
(-3.4981e-07 -6.43783e-08 -1.28322e-08 1.86e-07 4.32427e-08 -3.86974e-07)
(-3.38503e-07 6.96187e-08 1.48081e-08 1.72101e-07 4.7796e-08 -3.85585e-07)
(-2.10293e-06 -8.79564e-08 4.62424e-08 5.18593e-07 -1.85391e-08 -4.59914e-07)
(-2.27907e-06 -1.56106e-08 -6.79502e-08 -2.30117e-07 8.47064e-09 -7.18124e-07)
(-5.9582e-07 -3.38446e-08 -2.60744e-08 -4.76664e-08 4.69935e-08 -6.04001e-07)
(-5.81489e-07 3.90539e-08 2.93061e-08 -5.75922e-08 4.98986e-08 -6.03108e-07)
(-2.13602e-06 1.80261e-08 6.94232e-08 -2.54625e-07 1.77998e-08 -7.17836e-07)
(-2.30697e-06 -2.64444e-08 -7.05301e-08 -3.02619e-07 9.07431e-09 -7.52628e-07)
(-6.06729e-07 -2.4765e-08 -2.80316e-08 -1.93519e-07 2.1359e-08 -6.27028e-07)
(-5.92936e-07 2.84446e-08 3.174e-08 -2.00866e-07 2.34068e-08 -6.26943e-07)
(-2.16202e-06 2.77543e-08 7.21563e-08 -3.22287e-07 1.59152e-08 -7.54637e-07)
(-2.34594e-06 -1.62809e-08 -7.12065e-08 -3.16284e-07 1.27131e-08 -7.57097e-07)
(-5.64929e-07 -1.77651e-08 -2.7905e-08 -3.05636e-07 1.52942e-08 -6.2424e-07)
(-5.51272e-07 2.01167e-08 3.17522e-08 -3.11837e-07 1.68425e-08 -6.24616e-07)
(-2.19811e-06 1.72697e-08 7.29001e-08 -3.33921e-07 1.79726e-08 -7.60388e-07)
(-2.42463e-06 -2.99279e-09 -7.27874e-08 -3.35687e-07 3.42358e-08 -7.78513e-07)
(-5.51882e-07 -9.41526e-09 -2.8699e-08 -3.74012e-07 3.40287e-08 -6.39479e-07)
(-5.37952e-07 1.06787e-08 3.2529e-08 -3.7995e-07 3.52568e-08 -6.40085e-07)
(-2.27339e-06 3.62e-09 7.45246e-08 -3.52539e-07 3.8389e-08 -7.82473e-07)
(-2.57551e-06 2.22976e-08 -7.41912e-08 -4.19706e-07 6.85461e-08 -8.37355e-07)
(-6.13806e-07 5.37199e-09 -2.98344e-08 -4.32552e-07 6.77492e-08 -6.93152e-07)
(-5.99672e-07 -5.47232e-09 3.35992e-08 -4.38285e-07 6.87261e-08 -6.93939e-07)
(-2.42114e-06 -2.23774e-08 7.59802e-08 -4.35964e-07 7.18162e-08 -8.41858e-07)
(-2.84102e-06 7.40494e-08 -7.354e-08 -9.64352e-07 9.68459e-08 -9.70136e-07)
(-8.00664e-07 3.08526e-08 -3.00402e-08 -8.24007e-07 9.73271e-08 -8.26456e-07)
(-7.86911e-07 -3.32652e-08 3.36176e-08 -8.25604e-07 9.79931e-08 -8.27532e-07)
(-2.6858e-06 -7.53514e-08 7.53271e-08 -9.70861e-07 9.91084e-08 -9.75443e-07)
(-3.35833e-06 1.06739e-07 -7.03657e-08 -3.42605e-06 9.31295e-08 -1.19217e-06)
(-1.08104e-06 4.97812e-08 -2.96077e-08 -3.03109e-06 9.67322e-08 -1.0618e-06)
(-1.06772e-06 -4.97993e-08 3.25011e-08 -2.99838e-06 9.70314e-08 -1.06331e-06)
(-3.20543e-06 -1.07174e-07 7.18533e-08 -3.33805e-06 9.41273e-08 -1.19858e-06)
(-1.94221e-06 5.57732e-08 -1.82774e-08 3.06517e-07 5.04169e-08 -4.13317e-08)
(-2.4062e-07 -8.04604e-08 -1.36726e-09 -1.81163e-08 1.18982e-07 -4.52556e-08)
(-2.29576e-07 8.2687e-08 2.85548e-09 -3.08614e-08 1.22294e-07 -4.635e-08)
(-1.806e-06 -4.98478e-08 1.87324e-08 2.59821e-07 6.06259e-08 -4.45629e-08)
(-2.00044e-06 -1.99368e-08 -2.60276e-08 -2.63058e-07 6.86014e-08 -1.75296e-07)
(-4.13023e-07 -3.71346e-08 -5.77791e-09 -1.09452e-07 1.03061e-07 -1.8333e-07)
(-3.98853e-07 4.00436e-08 8.17795e-09 -1.1934e-07 1.05802e-07 -1.85599e-07)
(-1.86081e-06 2.14328e-08 2.68742e-08 -2.87541e-07 7.72303e-08 -1.81988e-07)
(-2.0281e-06 -2.5069e-08 -2.50107e-08 -2.70074e-07 5.93797e-08 -2.3974e-07)
(-4.1206e-07 -2.44105e-08 -5.71096e-09 -1.82205e-07 7.07718e-08 -2.49662e-07)
(-3.98364e-07 2.61322e-08 8.24348e-09 -1.89745e-07 7.30247e-08 -2.52821e-07)
(-1.88633e-06 2.55932e-08 2.59465e-08 -2.90547e-07 6.65594e-08 -2.48996e-07)
(-2.06415e-06 -1.59112e-08 -2.36872e-08 -2.63155e-07 5.27632e-08 -2.63864e-07)
(-3.71113e-07 -1.77991e-08 -4.68641e-09 -2.60264e-07 5.53336e-08 -2.74092e-07)
(-3.57497e-07 1.85169e-08 7.15671e-09 -2.6661e-07 5.72057e-08 -2.77868e-07)
(-1.91922e-06 1.62552e-08 2.46214e-08 -2.81488e-07 5.87493e-08 -2.74873e-07)
(-2.14157e-06 -3.24791e-09 -2.33433e-08 -2.66067e-07 6.19031e-08 -2.90433e-07)
(-3.58586e-07 -1.01447e-08 -4.46121e-09 -3.06545e-07 6.19297e-08 -3.00095e-07)
(-3.44596e-07 1.01345e-08 6.83648e-09 -3.12541e-07 6.34898e-08 -3.04269e-07)
(-1.99263e-06 3.39855e-09 2.42687e-08 -2.8337e-07 6.68567e-08 -3.02567e-07)
(-2.29662e-06 2.25594e-08 -2.31516e-08 -3.20087e-07 7.67627e-08 -3.44524e-07)
(-4.21488e-07 4.69123e-09 -4.73958e-09 -3.33492e-07 7.60833e-08 -3.53366e-07)
(-4.07147e-07 -5.68211e-09 6.9964e-09 -3.39194e-07 7.73363e-08 -3.57834e-07)
(-2.14347e-06 -2.29433e-08 2.40745e-08 -3.36517e-07 8.07195e-08 -3.5747e-07)
(-2.5763e-06 7.46629e-08 -2.27242e-08 -8.25421e-07 7.35603e-08 -4.31674e-07)
(-6.1154e-07 3.0482e-08 -5.17455e-09 -6.85115e-07 7.24944e-08 -4.40458e-07)
(-5.97415e-07 -3.33973e-08 7.10641e-09 -6.86588e-07 7.33437e-08 -4.45185e-07)
(-2.42075e-06 -7.61091e-08 2.35731e-08 -8.31742e-07 7.63e-08 -4.45309e-07)
(-3.11799e-06 1.07069e-07 -2.2868e-08 -3.20046e-06 4.75947e-08 -5.03279e-07)
(-8.94376e-07 4.96623e-08 -5.60303e-09 -2.78975e-06 4.61352e-08 -5.12059e-07)
(-8.80547e-07 -4.97836e-08 6.53602e-09 -2.75717e-06 4.64465e-08 -5.16977e-07)
(-2.9632e-06 -1.07517e-07 2.33351e-08 -3.11282e-06 4.86413e-08 -5.174e-07)
(-1.76921e-06 3.9705e-08 -5.17686e-09 2.11458e-07 7.6647e-08 -2.40604e-09)
(-1.92826e-07 -8.53348e-08 3.4593e-09 -7.91356e-08 1.17434e-07 -2.1427e-08)
(-1.82434e-07 8.54858e-08 -2.215e-09 -9.09297e-08 1.19777e-07 -2.23081e-08)
(-1.63764e-06 -3.49953e-08 5.45805e-09 1.68756e-07 8.3957e-08 -4.89319e-09)
(-1.83044e-06 -2.04207e-08 -6.14496e-09 -3.05181e-07 9.21326e-08 -7.83067e-08)
(-3.30578e-07 -3.76862e-08 4.26773e-09 -1.67411e-07 1.12669e-07 -1.1383e-07)
(-3.17108e-07 3.90933e-08 -2.22027e-09 -1.76795e-07 1.14855e-07 -1.15815e-07)
(-1.69523e-06 2.13141e-08 6.72538e-09 -3.28459e-07 9.89405e-08 -8.39599e-08)
(-1.86197e-06 -2.2901e-08 -4.18921e-09 -2.79003e-07 8.59451e-08 -1.51548e-07)
(-3.26477e-07 -2.3392e-08 5.36343e-09 -2.03676e-07 9.26076e-08 -1.92574e-07)
(-3.13335e-07 2.40234e-08 -3.29185e-09 -2.1114e-07 9.45767e-08 -1.95333e-07)
(-1.7243e-06 2.30229e-08 4.82524e-09 -2.99498e-07 9.20801e-08 -1.59463e-07)
(-1.90054e-06 -1.45715e-08 -2.48384e-09 -2.38363e-07 7.59137e-08 -2.03103e-07)
(-2.899e-07 -1.71448e-08 6.47716e-09 -2.40461e-07 7.70273e-08 -2.45944e-07)
(-2.76748e-07 1.70619e-08 -4.56986e-09 -2.4691e-07 7.87712e-08 -2.49285e-07)
(-1.75943e-06 1.46154e-08 3.08214e-09 -2.57173e-07 8.13452e-08 -2.12718e-07)
(-1.98e-06 -2.63431e-09 -1.55767e-09 -2.16826e-07 7.15538e-08 -2.48449e-07)
(-2.81121e-07 -1.01223e-08 6.9933e-09 -2.58613e-07 7.12141e-08 -2.91919e-07)
(-2.67529e-07 9.55256e-09 -5.24852e-09 -2.64731e-07 7.27214e-08 -2.95696e-07)
(-1.8345e-06 2.58385e-09 2.10984e-09 -2.34659e-07 7.62238e-08 -2.59322e-07)
(-2.13828e-06 2.27467e-08 -1.12399e-09 -2.59674e-07 6.62439e-08 -3.00943e-07)
(-3.46728e-07 4.25657e-09 6.94339e-09 -2.74331e-07 6.57554e-08 -3.44418e-07)
(-3.32703e-07 -5.58974e-09 -5.37575e-09 -2.80128e-07 6.69782e-08 -3.48524e-07)
(-1.9879e-06 -2.32284e-08 1.63056e-09 -2.76534e-07 7.00311e-08 -3.12748e-07)
(-2.42336e-06 7.34373e-08 -1.31753e-09 -7.61398e-07 4.63413e-08 -3.52968e-07)
(-5.37886e-07 2.92646e-08 6.30291e-09 -6.26364e-07 4.5505e-08 -3.95948e-07)
(-5.2395e-07 -3.23611e-08 -5.12702e-09 -6.27924e-07 4.63261e-08 -4.00281e-07)
(-2.26945e-06 -7.48968e-08 1.70604e-09 -7.68028e-07 4.89549e-08 -3.65413e-07)
(-2.96814e-06 1.04388e-07 -2.16053e-09 -3.05705e-06 2.29135e-08 -3.6808e-07)
(-8.18802e-07 4.7952e-08 5.9101e-09 -2.65206e-06 2.07654e-08 -4.10132e-07)
(-8.04999e-07 -4.81557e-08 -5.74352e-09 -2.61977e-06 2.10381e-08 -4.14536e-07)
(-2.81347e-06 -1.04831e-07 2.15991e-09 -2.97014e-06 2.38384e-08 -3.80736e-07)
(-1.67205e-06 3.47326e-08 -1.14504e-09 1.74e-07 7.17954e-08 -9.89628e-09)
(-1.7578e-07 -8.43048e-08 3.56977e-09 -9.95074e-08 9.2293e-08 -2.32654e-08)
(-1.65961e-07 8.32026e-08 -2.58373e-09 -1.10549e-07 9.39544e-08 -2.3911e-08)
(-1.54391e-06 -3.08548e-08 1.37408e-09 1.34337e-07 7.69616e-08 -1.17627e-08)
(-1.73255e-06 -1.94371e-08 -3.00738e-10 -3.24054e-07 8.48414e-08 -6.81699e-08)
(-3.01995e-07 -3.6682e-08 5.62964e-09 -1.94537e-07 9.4936e-08 -9.37796e-08)
(-2.89228e-07 3.71282e-08 -3.93964e-09 -2.03424e-07 9.65546e-08 -9.53545e-08)
(-1.60078e-06 1.99259e-08 7.79071e-10 -3.46101e-07 8.98465e-08 -7.27146e-08)
(-1.76735e-06 -2.1085e-08 1.33152e-09 -2.89293e-07 8.42546e-08 -1.37558e-07)
(-2.99382e-07 -2.23625e-08 6.77999e-09 -2.20387e-07 8.72017e-08 -1.67324e-07)
(-2.86836e-07 2.23084e-08 -5.05485e-09 -2.2768e-07 8.87271e-08 -1.69574e-07)
(-1.6329e-06 2.096e-08 -8.07082e-10 -3.09477e-07 8.89689e-08 -1.44088e-07)
(-1.80935e-06 -1.33051e-08 2.63829e-09 -2.30848e-07 7.59643e-08 -2.00096e-07)
(-2.67696e-07 -1.64714e-08 7.59104e-09 -2.35377e-07 7.60661e-08 -2.31014e-07)
(-2.55057e-07 1.59268e-08 -6.03192e-09 -2.4185e-07 7.74711e-08 -2.33792e-07)
(-1.67124e-06 1.3183e-08 -2.15698e-09 -2.49856e-07 8.03063e-08 -2.08202e-07)
(-1.89158e-06 -1.98125e-09 3.41322e-09 -1.9461e-07 6.54221e-08 -2.54575e-07)
(-2.63023e-07 -9.92199e-09 7.97566e-09 -2.36787e-07 6.50227e-08 -2.8572e-07)
(-2.49892e-07 9.06227e-09 -6.60023e-09 -2.43009e-07 6.6269e-08 -2.88925e-07)
(-1.74878e-06 1.83095e-09 -2.99117e-09 -2.12854e-07 6.92625e-08 -2.63949e-07)
(-2.05196e-06 2.26771e-08 3.6697e-09 -2.3449e-07 5.07611e-08 -3.02465e-07)
(-3.30894e-07 3.89693e-09 7.8995e-09 -2.49978e-07 5.06888e-08 -3.3342e-07)
(-3.17274e-07 -5.39421e-09 -6.72835e-09 -2.55901e-07 5.17098e-08 -3.36957e-07)
(-1.90384e-06 -2.3199e-08 -3.31336e-09 -2.5181e-07 5.39203e-08 -3.12821e-07)
(-2.33802e-06 7.19471e-08 3.24157e-09 -7.3406e-07 2.82694e-08 -3.36246e-07)
(-5.21539e-07 2.80843e-08 7.30545e-09 -6.03667e-07 2.81914e-08 -3.66785e-07)
(-5.0792e-07 -3.12794e-08 -6.51542e-09 -6.05371e-07 2.88747e-08 -3.70533e-07)
(-2.18569e-06 -7.34082e-08 -3.01404e-09 -7.41135e-07 3.04544e-08 -3.47242e-07)
(-2.87906e-06 1.01794e-07 2.43854e-09 -2.96535e-06 1.20561e-08 -3.40392e-07)
(-7.99653e-07 4.63895e-08 6.98476e-09 -2.56942e-06 1.07357e-08 -3.71076e-07)
(-7.86059e-07 -4.66714e-08 -7.058e-09 -2.53733e-06 1.09571e-08 -3.7485e-07)
(-2.72492e-06 -1.02251e-07 -2.55572e-09 -2.87899e-06 1.28114e-08 -3.5152e-07)
(-1.61667e-06 3.34415e-08 -3.17784e-10 1.57752e-07 5.59081e-08 -1.74372e-08)
(-1.69833e-07 -8.22547e-08 2.30249e-09 -1.07496e-07 6.55915e-08 -2.43912e-08)
(-1.60405e-07 8.04176e-08 -1.59749e-09 -1.17986e-07 6.67063e-08 -2.49099e-08)
(-1.49071e-06 -3.00816e-08 4.95517e-10 1.20245e-07 5.93388e-08 -1.89438e-08)
(-1.67688e-06 -1.83796e-08 4.82345e-10 -3.29168e-07 6.45751e-08 -7.17806e-08)
(-2.93409e-07 -3.55782e-08 3.86512e-09 -2.04059e-07 6.90825e-08 -8.52347e-08)
(-2.81141e-07 3.54377e-08 -2.61441e-09 -2.12566e-07 7.01881e-08 -8.65451e-08)
(-1.54734e-06 1.8616e-08 -1.07961e-10 -3.5024e-07 6.79697e-08 -7.55656e-08)
(-1.71398e-06 -1.98864e-08 1.52458e-09 -2.93707e-07 6.6093e-08 -1.35696e-07)
(-2.93365e-07 -2.16476e-08 4.65791e-09 -2.2792e-07 6.71474e-08 -1.51314e-07)
(-2.81254e-07 2.11552e-08 -3.35371e-09 -2.3505e-07 6.82129e-08 -1.53225e-07)
(-1.58163e-06 1.96038e-08 -1.10878e-09 -3.13537e-07 6.93738e-08 -1.41251e-07)
(-1.75867e-06 -1.2471e-08 2.32332e-09 -2.30111e-07 6.05665e-08 -1.98302e-07)
(-2.65471e-07 -1.60516e-08 5.12921e-09 -2.356e-07 6.03426e-08 -2.14319e-07)
(-2.53208e-07 1.52067e-08 -3.94774e-09 -2.4206e-07 6.13464e-08 -2.16717e-07)
(-1.62249e-06 1.22429e-08 -1.94072e-09 -2.4916e-07 6.36648e-08 -2.05326e-07)
(-1.84306e-06 -1.57049e-09 2.79223e-09 -1.88751e-07 5.02221e-08 -2.53456e-07)
(-2.63812e-07 -9.80789e-09 5.32221e-09 -2.30785e-07 4.9983e-08 -2.69354e-07)
(-2.51016e-07 8.75836e-09 -4.29854e-09 -2.37074e-07 5.08889e-08 -2.72162e-07)
(-1.70198e-06 1.35623e-09 -2.4627e-09 -2.0726e-07 5.3017e-08 -2.61723e-07)
(-2.00453e-06 2.25216e-08 2.89298e-09 -2.27964e-07 3.5586e-08 -2.97295e-07)
(-3.33021e-07 3.624e-09 5.2228e-09 -2.43663e-07 3.58116e-08 -3.12988e-07)
(-3.19696e-07 -5.23519e-09 -4.38209e-09 -2.49693e-07 3.65605e-08 -3.16124e-07)
(-1.85784e-06 -2.30725e-08 -2.62628e-09 -2.45649e-07 3.79146e-08 -3.06562e-07)
(-2.28995e-06 7.08748e-08 2.52741e-09 -7.22896e-07 1.75567e-08 -3.24719e-07)
(-5.22722e-07 2.73213e-08 4.80884e-09 -5.95191e-07 1.79594e-08 -3.40335e-07)
(-5.09342e-07 -3.05954e-08 -4.27823e-09 -5.9702e-07 1.84618e-08 -3.43676e-07)
(-2.13861e-06 -7.23459e-08 -2.37104e-09 -7.30359e-07 1.91775e-08 -3.34648e-07)
(-2.82662e-06 1.00109e-07 1.92753e-09 -2.90806e-06 6.92204e-09 -3.30781e-07)
(-7.98492e-07 4.54253e-08 4.54781e-09 -2.51849e-06 6.4052e-09 -3.47006e-07)
(-7.85073e-07 -4.57745e-08 -4.66695e-09 -2.48653e-06 6.56804e-09 -3.5036e-07)
(-2.67282e-06 -1.00589e-07 -2.0371e-09 -2.8221e-06 7.48083e-09 -3.40838e-07)
(-1.58596e-06 3.30572e-08 -1.81516e-10 1.50619e-07 3.5098e-08 -2.16209e-08)
(-1.67387e-07 -8.08412e-08 1.15613e-09 -1.10652e-07 3.94208e-08 -2.5108e-08)
(-1.58195e-07 7.85981e-08 -7.34572e-10 -1.20783e-07 4.00627e-08 -2.55608e-08)
(-1.46127e-06 -2.99935e-08 2.93659e-10 1.14478e-07 3.70546e-08 -2.29204e-08)
(-1.64617e-06 -1.77129e-08 2.22536e-10 -3.29416e-07 3.97404e-08 -7.54971e-08)
(-2.90558e-07 -3.48861e-08 1.96948e-09 -2.06667e-07 4.16203e-08 -8.21585e-08)
(-2.78595e-07 3.44151e-08 -1.20452e-09 -2.14923e-07 4.22625e-08 -8.33162e-08)
(-1.51796e-06 1.78066e-08 1.60513e-11 -3.49828e-07 4.17003e-08 -7.8807e-08)
(-1.68467e-06 -1.92205e-08 7.56218e-10 -2.94736e-07 4.10548e-08 -1.3555e-07)
(-2.92463e-07 -2.12599e-08 2.38236e-09 -2.30428e-07 4.13757e-08 -1.4316e-07)
(-2.8062e-07 2.05073e-08 -1.57053e-09 -2.37442e-07 4.20019e-08 -1.44868e-07)
(-1.55355e-06 1.88447e-08 -4.87596e-10 -3.14291e-07 4.29782e-08 -1.40478e-07)
(-1.73104e-06 -1.20215e-08 1.16018e-09 -2.31058e-07 3.79354e-08 -1.95115e-07)
(-2.66922e-07 -1.58525e-08 2.60728e-09 -2.3686e-07 3.7743e-08 -2.02742e-07)
(-2.5489e-07 1.4818e-08 -1.86626e-09 -2.433e-07 3.83403e-08 -2.0491e-07)
(-1.59598e-06 1.17266e-08 -9.10827e-10 -2.50092e-07 3.97794e-08 -2.01435e-07)
(-1.81674e-06 -1.36741e-09 1.38891e-09 -1.89121e-07 3.10103e-08 -2.47982e-07)
(-2.6703e-07 -9.77712e-09 2.68045e-09 -2.30878e-07 3.09257e-08 -2.55418e-07)
(-2.54437e-07 8.59905e-09 -2.04224e-09 -2.37206e-07 3.14704e-08 -2.57983e-07)
(-1.67665e-06 1.1095e-09 -1.1748e-09 -2.07779e-07 3.26948e-08 -2.5552e-07)
(-1.97866e-06 2.23982e-08 1.41833e-09 -2.28241e-07 2.11656e-08 -2.89243e-07)
(-3.36898e-07 3.45674e-09 2.60552e-09 -2.43843e-07 2.1432e-08 -2.96608e-07)
(-3.2375e-07 -5.15244e-09 -2.0909e-09 -2.49944e-07 2.18855e-08 -2.99497e-07)
(-1.8328e-06 -2.2973e-08 -1.24779e-09 -2.46164e-07 2.25821e-08 -2.97789e-07)
(-2.26321e-06 7.02697e-08 1.20246e-09 -7.18728e-07 1.00088e-08 -3.15334e-07)
(-5.2585e-07 2.69305e-08 2.37872e-09 -5.92257e-07 1.04458e-08 -3.22901e-07)
(-5.12612e-07 -3.02664e-08 -2.06414e-09 -5.94171e-07 1.07513e-08 -3.25996e-07)
(-2.11242e-06 -7.17539e-08 -1.10473e-09 -7.26459e-07 1.1001e-08 -3.24565e-07)
(-2.7967e-06 9.9211e-08 8.38473e-10 -2.87484e-06 3.77803e-09 -3.24837e-07)
(-8.00058e-07 4.49414e-08 2.2012e-09 -2.48865e-06 3.66495e-09 -3.3307e-07)
(-7.86747e-07 -4.53398e-08 -2.28836e-09 -2.45678e-06 3.7643e-09 -3.36175e-07)
(-2.6431e-06 -9.97125e-08 -9.07346e-10 -2.78913e-06 4.12075e-09 -3.34205e-07)
(-1.57212e-06 3.29011e-08 -7.06299e-11 1.47925e-07 1.19338e-08 -2.33878e-08)
(-1.66356e-07 -8.02053e-08 3.41564e-10 -1.11684e-07 1.31813e-08 -2.55783e-08)
(-1.57275e-07 7.77824e-08 -2.01399e-10 -1.21639e-07 1.33908e-08 -2.60015e-08)
(-1.44802e-06 -2.99718e-08 1.08735e-10 1.12444e-07 1.25692e-08 -2.45904e-08)
(-1.63236e-06 -1.74265e-08 3.92015e-11 -3.28856e-07 1.33696e-08 -7.73238e-08)
(-2.89446e-07 -3.45893e-08 5.80249e-10 -2.07157e-07 1.38898e-08 -8.14074e-08)
(-2.77627e-07 3.39704e-08 -3.2309e-10 -2.15288e-07 1.41003e-08 -8.2494e-08)
(-1.50475e-06 1.74564e-08 4.24094e-11 -3.48937e-07 1.40097e-08 -8.04042e-08)
(-1.67148e-06 -1.89366e-08 1.98047e-10 -2.94765e-07 1.38302e-08 -1.3548e-07)
(-2.92291e-07 -2.11027e-08 7.03004e-10 -2.31062e-07 1.38993e-08 -1.40037e-07)
(-2.80576e-07 2.02294e-08 -4.27527e-10 -2.38015e-07 1.41056e-08 -1.41649e-07)
(-1.54094e-06 1.85178e-08 -1.05426e-10 -3.14173e-07 1.4463e-08 -1.40098e-07)
(-1.71863e-06 -1.18335e-08 3.1889e-10 -2.31812e-07 1.28171e-08 -1.92869e-07)
(-2.67832e-07 -1.57806e-08 7.67487e-10 -2.37695e-07 1.27505e-08 -1.97326e-07)
(-2.55909e-07 1.46535e-08 -5.14714e-10 -2.44122e-07 1.29485e-08 -1.99385e-07)
(-1.58409e-06 1.1506e-08 -2.32412e-10 -2.50827e-07 1.34282e-08 -1.98839e-07)
(-1.80493e-06 -1.28841e-09 3.85582e-10 -1.90306e-07 1.04324e-08 -2.43945e-07)
(-2.68725e-07 -9.77626e-09 7.84647e-10 -2.31883e-07 1.04179e-08 -2.48238e-07)
(-2.56228e-07 8.53156e-09 -5.6717e-10 -2.38227e-07 1.05993e-08 -2.50687e-07)
(-1.66529e-06 1.00766e-09 -3.11293e-10 -2.0903e-07 1.09941e-08 -2.5112e-07)
(-1.96699e-06 2.23375e-08 3.91109e-10 -2.29458e-07 7.03882e-09 -2.83985e-07)
(-3.38853e-07 3.3817e-09 7.57962e-10 -2.44944e-07 7.1503e-09 -2.88312e-07)
(-3.25787e-07 -5.12385e-09 -5.83783e-10 -2.51079e-07 7.30187e-09 -2.91084e-07)
(-1.8215e-06 -2.29261e-08 -3.32224e-10 -2.47496e-07 7.51348e-09 -2.92171e-07)
(-2.251e-06 7.00103e-08 3.22106e-10 -7.17455e-07 3.30047e-09 -3.10054e-07)
(-5.27424e-07 2.67763e-08 6.87382e-10 -5.91425e-07 3.47757e-09 -3.14719e-07)
(-5.14251e-07 -3.01465e-08 -5.8208e-10 -5.93382e-07 3.57992e-09 -3.17697e-07)
(-2.10047e-06 -7.1503e-08 -2.88493e-10 -7.25319e-07 3.6341e-09 -3.18937e-07)
(-2.78291e-06 9.88373e-08 2.00509e-10 -2.85964e-06 1.22101e-09 -3.21545e-07)
(-8.00866e-07 4.47504e-08 6.24092e-10 -2.47484e-06 1.21591e-09 -3.2684e-07)
(-7.87605e-07 -4.51751e-08 -6.54575e-10 -2.443e-06 1.24926e-09 -3.29827e-07)
(-2.62938e-06 -9.93509e-08 -2.23494e-10 -2.77406e-06 1.3364e-09 -3.30574e-07)
)
;

boundaryField
{
    interface
    {
        type            calculated;
        value           nonuniform List<symmTensor> 
192
(
(-4.62373e-06 2.29532e-12 1.89686e-11 1.23943e-06 1.70958e-07 -2.81646e-06)
(-4.33014e-06 1.69967e-12 3.03322e-11 -3.94417e-07 1.13457e-08 -2.82764e-06)
(-4.4182e-06 -3.43044e-13 3.39334e-11 -4.39491e-07 -9.00969e-09 -2.87936e-06)
(-4.55214e-06 -3.10516e-12 3.46596e-11 -3.82475e-07 -1.47948e-10 -2.95171e-06)
(-4.72036e-06 -5.46118e-12 3.40943e-11 -3.77982e-07 1.61893e-08 -3.05267e-06)
(-4.95001e-06 -9.71054e-12 3.30255e-11 -5.03234e-07 4.47193e-08 -3.19968e-06)
(-5.24707e-06 -1.28896e-11 3.03159e-11 -1.19108e-06 9.24116e-08 -3.42544e-06)
(-5.76684e-06 -2.8473e-11 2.8184e-11 -3.85143e-06 1.19776e-07 -3.8503e-06)
(-3.87705e-06 1.62798e-12 9.35947e-12 5.70257e-07 -3.23719e-08 -4.62309e-07)
(-3.67435e-06 1.1438e-12 1.60653e-11 -2.30117e-07 8.47064e-09 -7.18124e-07)
(-3.72654e-06 -7.06098e-13 1.77855e-11 -3.02619e-07 9.07431e-09 -7.52628e-07)
(-3.83178e-06 -3.5441e-12 1.77939e-11 -3.16284e-07 1.27131e-08 -7.57097e-07)
(-3.98678e-06 -6.05791e-12 1.70662e-11 -3.35687e-07 3.42358e-08 -7.78513e-07)
(-4.22205e-06 -1.07667e-11 1.60602e-11 -4.19706e-07 6.85461e-08 -8.37355e-07)
(-4.56359e-06 -1.42999e-11 1.43123e-11 -9.64352e-07 9.68459e-08 -9.70136e-07)
(-5.24931e-06 -3.06968e-11 1.28951e-11 -3.42605e-06 9.31295e-08 -1.19217e-06)
(-3.40651e-06 1.38832e-12 7.38524e-12 3.06517e-07 5.04169e-08 -4.13317e-08)
(-3.3095e-06 8.75585e-13 1.25379e-11 -2.63058e-07 6.86014e-08 -1.75296e-07)
(-3.36675e-06 -9.59724e-13 1.38331e-11 -2.70074e-07 5.93797e-08 -2.3974e-07)
(-3.46555e-06 -3.97289e-12 1.38062e-11 -2.63155e-07 5.27632e-08 -2.63864e-07)
(-3.61807e-06 -6.75046e-12 1.32154e-11 -2.66067e-07 6.19031e-08 -2.90433e-07)
(-3.86006e-06 -1.19984e-11 1.24021e-11 -3.20087e-07 7.67627e-08 -3.44524e-07)
(-4.2251e-06 -1.60631e-11 1.11176e-11 -8.25421e-07 7.35603e-08 -4.31674e-07)
(-4.95614e-06 -3.35892e-11 1.00163e-11 -3.20046e-06 4.75947e-08 -5.03279e-07)
(-3.12136e-06 1.04295e-12 4.53511e-12 2.11458e-07 7.6647e-08 -2.40604e-09)
(-3.05838e-06 4.01132e-13 8.13631e-12 -3.05181e-07 9.21326e-08 -7.83067e-08)
(-3.1225e-06 -1.44032e-12 8.99452e-12 -2.79003e-07 8.59451e-08 -1.51548e-07)
(-3.22191e-06 -4.5121e-12 8.89423e-12 -2.38363e-07 7.59137e-08 -2.03103e-07)
(-3.37511e-06 -7.41329e-12 8.40521e-12 -2.16826e-07 7.15538e-08 -2.48449e-07)
(-3.62038e-06 -1.29018e-11 7.77948e-12 -2.59674e-07 6.62439e-08 -3.00943e-07)
(-3.99406e-06 -1.72073e-11 6.94899e-12 -7.61398e-07 4.63413e-08 -3.52968e-07)
(-4.73428e-06 -3.50358e-11 6.26539e-12 -3.05705e-06 2.29135e-08 -3.6808e-07)
(-2.95375e-06 8.79253e-13 3.32195e-12 1.74e-07 7.17954e-08 -9.89628e-09)
(-2.9003e-06 1.11354e-13 5.962e-12 -3.24054e-07 8.48414e-08 -6.81699e-08)
(-2.96826e-06 -1.79079e-12 6.59566e-12 -2.89293e-07 8.42546e-08 -1.37558e-07)
(-3.06985e-06 -4.93989e-12 6.52139e-12 -2.30848e-07 7.59643e-08 -2.00096e-07)
(-3.2248e-06 -7.96754e-12 6.1605e-12 -1.9461e-07 6.54221e-08 -2.54575e-07)
(-3.47181e-06 -1.36618e-11 5.6941e-12 -2.3449e-07 5.07611e-08 -3.02465e-07)
(-3.84745e-06 -1.81881e-11 5.10718e-12 -7.3406e-07 2.82694e-08 -3.36246e-07)
(-4.58419e-06 -3.63142e-11 4.6096e-12 -2.96535e-06 1.20561e-08 -3.40392e-07)
(-2.85539e-06 7.5118e-13 2.03584e-12 1.57752e-07 5.59081e-08 -1.74372e-08)
(-2.80523e-06 -1.20681e-13 3.77315e-12 -3.29168e-07 6.45751e-08 -7.17806e-08)
(-2.87514e-06 -2.07554e-12 4.19276e-12 -2.93707e-07 6.6093e-08 -1.35696e-07)
(-2.97861e-06 -5.27135e-12 4.13411e-12 -2.30111e-07 6.05665e-08 -1.98302e-07)
(-3.1351e-06 -8.37129e-12 3.88618e-12 -1.88751e-07 5.02221e-08 -2.53456e-07)
(-3.38287e-06 -1.41725e-11 3.57208e-12 -2.27964e-07 3.5586e-08 -2.97295e-07)
(-3.75791e-06 -1.88159e-11 3.20549e-12 -7.22896e-07 1.75567e-08 -3.24719e-07)
(-4.48916e-06 -3.70958e-11 2.90331e-12 -2.90806e-06 6.92204e-09 -3.30781e-07)
(-2.80014e-06 6.89294e-13 1.19581e-12 1.50619e-07 3.5098e-08 -2.16209e-08)
(-2.75142e-06 -2.53791e-13 2.21331e-12 -3.29416e-07 3.97404e-08 -7.54971e-08)
(-2.82232e-06 -2.25484e-12 2.46104e-12 -2.94736e-07 4.10548e-08 -1.3555e-07)
(-2.92699e-06 -5.48863e-12 2.42764e-12 -2.31058e-07 3.79354e-08 -1.95115e-07)
(-3.08446e-06 -8.64293e-12 2.28397e-12 -1.89121e-07 3.10103e-08 -2.47982e-07)
(-3.33243e-06 -1.45182e-11 2.09815e-12 -2.28241e-07 2.11656e-08 -2.89243e-07)
(-3.70636e-06 -1.92444e-11 1.88923e-12 -7.18728e-07 1.00088e-08 -3.15334e-07)
(-4.4334e-06 -3.76378e-11 1.70805e-12 -2.87484e-06 3.77803e-09 -3.24837e-07)
(-2.77515e-06 6.50245e-13 3.54946e-13 1.47925e-07 1.19338e-08 -2.33878e-08)
(-2.72704e-06 -3.2886e-13 6.80702e-13 -3.28856e-07 1.33696e-08 -7.73238e-08)
(-2.79836e-06 -2.34956e-12 7.60944e-13 -2.94765e-07 1.38302e-08 -1.3548e-07)
(-2.90359e-06 -5.5965e-12 7.48781e-13 -2.31812e-07 1.28171e-08 -1.92869e-07)
(-3.06151e-06 -8.77333e-12 7.01917e-13 -1.90306e-07 1.04324e-08 -2.43945e-07)
(-3.30949e-06 -1.46766e-11 6.41237e-13 -2.29458e-07 7.03882e-09 -2.83985e-07)
(-3.68271e-06 -1.9441e-11 5.7819e-13 -7.17455e-07 3.30047e-09 -3.10054e-07)
(-4.40758e-06 -3.78822e-11 5.20816e-13 -2.85964e-06 1.22101e-09 -3.21545e-07)
(-2.72516e-06 1.55837e-07 -2.70403e-11 1.23943e-06 -6.14701e-12 -4.79133e-06)
(-2.76637e-06 -6.16263e-09 -4.53532e-11 -3.94417e-07 -6.93068e-12 -4.47988e-06)
(-2.82069e-06 -2.55641e-08 -5.17989e-11 -4.39491e-07 -5.46778e-12 -4.56916e-06)
(-2.877e-06 -1.53561e-08 -5.37081e-11 -3.82475e-07 -3.85125e-12 -4.71105e-06)
(-2.96511e-06 -1.68896e-09 -5.4086e-11 -3.77982e-07 -3.19938e-12 -4.8854e-06)
(-3.11524e-06 2.28643e-08 -5.44167e-11 -5.03234e-07 -3.47334e-12 -5.11521e-06)
(-3.357e-06 7.1137e-08 -5.49439e-11 -1.19108e-06 -4.2859e-12 -5.4103e-06)
(-3.78195e-06 9.93178e-08 -5.97359e-11 -3.85143e-06 -5.68875e-12 -5.93313e-06)
(-5.08378e-07 -5.16979e-08 -1.66169e-11 7.75999e-07 -3.60262e-12 -4.31466e-06)
(-8.51751e-07 -3.11263e-08 -3.13512e-11 -1.68077e-07 -4.9801e-12 -4.03059e-06)
(-8.80692e-07 -2.442e-08 -3.60665e-11 -3.05881e-07 -3.91855e-12 -4.06152e-06)
(-8.41756e-07 -1.73476e-08 -3.72121e-11 -3.64766e-07 -2.19253e-12 -4.16704e-06)
(-8.31492e-07 -8.51877e-09 -3.74409e-11 -4.13827e-07 -1.12655e-12 -4.32295e-06)
(-8.95897e-07 6.36553e-09 -3.80304e-11 -5.15603e-07 -5.9509e-13 -4.54917e-06)
(-1.08065e-06 3.08454e-08 -3.96652e-11 -1.0636e-06 -7.02685e-13 -4.87645e-06)
(-1.35064e-06 4.65248e-08 -4.61191e-11 -3.55275e-06 -1.26034e-12 -5.56782e-06)
(-4.97506e-07 5.98923e-08 -1.70118e-11 7.61121e-07 -2.50567e-12 -4.25828e-06)
(-8.37483e-07 4.04426e-08 -3.23013e-11 -1.7656e-07 -3.73323e-12 -3.97447e-06)
(-8.66744e-07 3.21999e-08 -3.74282e-11 -3.12889e-07 -2.86067e-12 -4.00324e-06)
(-8.27969e-07 2.31386e-08 -3.8738e-11 -3.71083e-07 -1.07771e-12 -4.10729e-06)
(-8.17588e-07 1.2526e-08 -3.89121e-11 -4.19958e-07 2.43991e-13 -4.26222e-06)
(-8.82016e-07 -4.34881e-09 -3.9238e-11 -5.21574e-07 1.31022e-12 -4.48749e-06)
(-1.06734e-06 -3.18797e-08 -4.0405e-11 -1.06561e-06 1.91333e-12 -4.81397e-06)
(-1.33769e-06 -4.6224e-08 -4.64689e-11 -3.5216e-06 1.96461e-12 -5.50771e-06)
(-2.58682e-06 -1.47205e-07 -1.94297e-11 1.18356e-06 -1.97949e-12 -4.63309e-06)
(-2.62229e-06 1.05404e-08 -3.7599e-11 -4.15309e-07 -2.97575e-12 -4.32635e-06)
(-2.67425e-06 2.87191e-08 -4.40713e-11 -4.58015e-07 -2.10405e-12 -4.40962e-06)
(-2.72807e-06 1.78118e-08 -4.58305e-11 -4.00069e-07 -2.44257e-13 -4.54732e-06)
(-2.81382e-06 3.43536e-09 -4.60287e-11 -3.95029e-07 1.16151e-12 -4.71887e-06)
(-2.96243e-06 -2.2104e-08 -4.63852e-11 -5.19867e-07 2.4837e-12 -4.94614e-06)
(-3.205e-06 -7.18531e-08 -4.70659e-11 -1.19849e-06 3.49084e-12 -5.23922e-06)
(-3.63181e-06 -9.95386e-08 -5.32799e-11 -3.76836e-06 4.47967e-12 -5.76995e-06)
(-4.36879e-06 5.69536e-12 6.35569e-12 1.18356e-06 1.76154e-07 -2.73316e-06)
(-4.07051e-06 6.1503e-12 1.20516e-11 -4.15309e-07 1.5865e-08 -2.74704e-06)
(-4.15321e-06 3.30021e-12 1.37195e-11 -4.58015e-07 -5.87852e-09 -2.79671e-06)
(-4.28185e-06 -4.49894e-13 1.42749e-11 -4.00069e-07 2.07062e-09 -2.86736e-06)
(-4.44558e-06 -2.38395e-12 1.45111e-11 -3.95029e-07 1.78883e-08 -2.9671e-06)
(-4.67215e-06 -5.14075e-12 1.57402e-11 -5.19867e-07 4.61157e-08 -3.11301e-06)
(-4.9697e-06 -4.93993e-12 1.65369e-11 -1.19849e-06 9.35192e-08 -3.3382e-06)
(-5.49245e-06 -1.94989e-11 2.00334e-11 -3.76836e-06 1.20557e-07 -3.76778e-06)
(-3.6187e-06 2.25401e-12 -1.34884e-12 5.18593e-07 -1.85391e-08 -4.59914e-07)
(-3.41692e-06 2.4855e-12 -2.7038e-13 -2.54625e-07 1.77998e-08 -7.17836e-07)
(-3.46423e-06 9.23299e-13 -4.78662e-13 -3.22287e-07 1.59152e-08 -7.54637e-07)
(-3.56343e-06 -1.38226e-12 -5.44537e-13 -3.33921e-07 1.79726e-08 -7.60388e-07)
(-3.71217e-06 -2.1299e-12 -2.38437e-13 -3.52539e-07 3.8389e-08 -7.82473e-07)
(-3.94159e-06 -3.94368e-12 1.16642e-12 -4.35964e-07 7.18162e-08 -8.41858e-07)
(-4.28068e-06 -2.18355e-12 2.84603e-12 -9.70861e-07 9.91084e-08 -9.75443e-07)
(-4.97015e-06 -1.61041e-11 5.7599e-12 -3.33805e-06 9.41273e-08 -1.19858e-06)
(-3.15619e-06 1.22211e-12 -1.23224e-13 2.59821e-07 6.06259e-08 -4.45629e-08)
(-3.05858e-06 1.09545e-12 1.56921e-12 -2.87541e-07 7.72303e-08 -1.81988e-07)
(-3.11059e-06 7.95749e-14 2.08769e-12 -2.90547e-07 6.65594e-08 -2.48996e-07)
(-3.20291e-06 -1.54368e-12 2.37692e-12 -2.81488e-07 5.87493e-08 -2.74873e-07)
(-3.34817e-06 -1.61646e-12 2.76364e-12 -2.8337e-07 6.68567e-08 -3.02567e-07)
(-3.58244e-06 -2.93712e-12 3.82492e-12 -3.36517e-07 8.07195e-08 -3.5747e-07)
(-3.94226e-06 -4.5279e-13 4.88141e-12 -8.31742e-07 7.63e-08 -4.45309e-07)