/*--------------------------------*- C++ -*----------------------------------*\
| =========                 |                                                 |
| \\      /  F ield         | OpenFOAM: The Open Source CFD Toolbox           |
|  \\    /   O peration     | Version:  v1912                                 |
|   \\  /    A nd           | Website:  www.openfoam.com                      |
|    \\/     M anipulation  |                                                 |
\*---------------------------------------------------------------------------*/
FoamFile
{
    version     2.0;
    format      ascii;
    class       pointVectorField;
    location    "0.57/solid";
    object      pointD;
}
// * * * * * * * * * * * * * * * * * * * * * * * * * * * * * * * * * * * * * //

dimensions      [0 1 0 0 0 0 0];


internalField   nonuniform List<vector> 
405
(
(3.48678e-08 3.42201e-08 3.59997e-08)
(6.38764e-09 2.23373e-08 4.03504e-08)
(1.07016e-10 1.82807e-08 3.80931e-08)
(-6.03236e-09 2.20506e-08 3.97152e-08)
(-3.31627e-08 3.325e-08 3.54434e-08)
(5.8477e-08 4.22144e-08 6.33993e-08)
(1.74825e-08 3.77175e-08 8.93236e-08)
(6.01751e-10 3.13689e-08 8.47528e-08)
(-1.59548e-08 3.69564e-08 8.82169e-08)
(-5.50824e-08 4.04941e-08 6.28384e-08)
(6.58608e-08 2.53954e-08 7.84062e-08)
(2.29919e-08 2.44492e-08 1.03664e-07)
(1.44625e-09 2.11424e-08 9.88372e-08)
(-1.97393e-08 2.33205e-08 1.02821e-07)
(-6.07403e-08 2.31404e-08 7.83157e-08)
(6.73342e-08 1.2459e-08 8.84936e-08)
(2.37634e-08 1.3155e-08 1.14136e-07)
(2.40389e-09 1.14451e-08 1.08951e-07)
(-1.86042e-08 1.16786e-08 1.13468e-07)
(-6.03343e-08 9.67131e-09 8.87453e-08)
(6.856e-08 2.98619e-09 9.75222e-08)
(2.41041e-08 3.60895e-09 1.2386e-07)
(3.45059e-09 2.02706e-09 1.18399e-07)
(-1.68533e-08 1.80976e-09 1.23322e-07)
(-5.94782e-08 -3.11981e-10 9.80287e-08)
(7.20485e-08 -5.46501e-09 1.07418e-07)
(2.58307e-08 -5.67773e-09 1.34818e-07)
(4.58885e-09 -7.77036e-09 1.29175e-07)
(-1.6303e-08 -7.78217e-09 1.34379e-07)
(-6.06954e-08 -9.24806e-09 1.08119e-07)
(7.96012e-08 -1.66274e-08 1.19485e-07)
(3.01209e-08 -1.74742e-08 1.4855e-07)
(5.8154e-09 -1.97218e-08 1.4295e-07)
(-1.81484e-08 -1.98742e-08 1.48189e-07)
(-6.58272e-08 -2.0872e-08 1.20341e-07)
(9.23666e-08 -4.67239e-08 1.34142e-07)
(3.71521e-08 -4.657e-08 1.66547e-07)
(7.09724e-09 -4.72084e-08 1.61767e-07)
(-2.26279e-08 -4.91057e-08 1.66279e-07)
(-7.6081e-08 -5.11893e-08 1.35139e-07)
(8.83357e-08 -9.57522e-08 1.30361e-07)
(4.14173e-08 -1.06229e-07 1.40987e-07)
(7.91407e-09 -1.04122e-07 1.38221e-07)
(-2.526e-08 -1.08058e-07 1.41476e-07)
(-7.10208e-08 -9.93177e-08 1.31671e-07)
(3.64979e-08 1.92698e-08 6.06817e-09)
(0 0 0)
(0 0 0)
(0 0 0)
(-3.44553e-08 1.83566e-08 6.21304e-09)
(7.74803e-08 3.07862e-08 2.00149e-08)
(1.48928e-08 1.7323e-08 2.27414e-08)
(4.81759e-10 1.18451e-08 2.25162e-08)
(-1.36119e-08 1.64711e-08 2.30358e-08)
(-7.26622e-08 2.86654e-08 2.05882e-08)
(8.3127e-08 1.66352e-08 3.30564e-08)
(1.95451e-08 1.20713e-08 3.66721e-08)
(1.20144e-09 9.03329e-09 3.65718e-08)
(-1.67901e-08 1.08206e-08 3.72308e-08)
(-7.67562e-08 1.39221e-08 3.41421e-08)
(8.48367e-08 5.71872e-09 4.22212e-08)
(2.01455e-08 4.31187e-09 4.59964e-08)
(2.05731e-09 2.70107e-09 4.59485e-08)
(-1.56859e-08 2.73271e-09 4.67611e-08)
(-7.67012e-08 2.42087e-09 4.37092e-08)
(8.67928e-08 -2.6013e-09 5.0038e-08)
(2.04635e-08 -4.24538e-09 5.37981e-08)
(3.02563e-09 -5.75719e-09 5.37267e-08)
(-1.40668e-08 -6.12298e-09 5.47177e-08)
(-7.66505e-08 -6.45557e-09 5.1831e-08)
(9.14374e-08 -1.00984e-08 5.80697e-08)
(2.21843e-08 -1.36298e-08 6.17853e-08)
(4.10257e-09 -1.56806e-08 6.16641e-08)
(-1.36301e-08 -1.57947e-08 6.28241e-08)
(-7.90725e-08 -1.44786e-08 6.00979e-08)
(1.00779e-07 -1.9604e-08 6.71161e-08)
(2.64742e-08 -2.53241e-08 7.07925e-08)
(5.28035e-09 -2.76057e-08 7.06545e-08)
(-1.55693e-08 -2.77678e-08 7.19239e-08)
(-8.60341e-08 -2.44731e-08 6.93269e-08)
(1.16848e-07 -4.62091e-08 7.62394e-08)
(3.34833e-08 -5.05932e-08 7.99487e-08)
(6.52706e-09 -5.12234e-08 7.99158e-08)
(-2.00958e-08 -5.31463e-08 8.11397e-08)
(-9.96461e-08 -5.13008e-08 7.85733e-08)
(9.29089e-08 -1.04285e-07 8.19934e-08)
(3.78541e-08 -1.37226e-07 8.315e-08)
(7.79399e-09 -1.33122e-07 8.31451e-08)
(-2.19304e-08 -1.38311e-07 8.4351e-08)
(-7.55598e-08 -1.07676e-07 8.40846e-08)
(2.98995e-08 1.14399e-08 3.50697e-10)
(0 0 0)
(0 0 0)
(0 0 0)
(-2.79321e-08 1.06572e-08 5.25165e-10)
(6.32646e-08 1.68344e-08 5.42175e-09)
(1.03576e-08 6.52911e-09 9.17012e-09)
(3.62095e-10 1.93202e-09 1.01433e-08)
(-9.31554e-09 5.74784e-09 9.49549e-09)
(-5.87265e-08 1.49419e-08 6.01643e-09)
(6.74899e-08 6.03693e-09 1.48929e-08)
(1.36488e-08 2.46477e-09 1.9786e-08)
(9.7609e-10 -1.55798e-10 2.119e-08)
(-1.13467e-08 1.25347e-09 2.034e-08)
(-6.1629e-08 3.49271e-09 1.59253e-08)
(6.86174e-08 -2.31072e-09 2.36017e-08)
(1.39601e-08 -3.46283e-09 2.87402e-08)
(1.7424e-09 -4.9454e-09 3.03058e-08)
(-1.0133e-08 -5.01807e-09 2.94699e-08)
(-6.11685e-08 -5.48252e-09 2.4979e-08)
(7.02798e-08 -9.07228e-09 3.11138e-08)
(1.41779e-08 -1.06212e-08 3.63023e-08)
(2.63721e-09 -1.20976e-08 3.79241e-08)
(-8.55852e-09 -1.24797e-08 3.71704e-08)
(-6.09545e-08 -1.28271e-08 3.27655e-08)
(7.48055e-08 -1.51384e-08 3.8156e-08)
(1.58159e-08 -1.86356e-08 4.33572e-08)
(3.6549e-09 -2.06791e-08 4.49975e-08)
(-8.15364e-09 -2.07822e-08 4.43344e-08)
(-6.33452e-08 -1.94368e-08 4.00241e-08)
(8.43916e-08 -2.22846e-08 4.48173e-08)
(2.00826e-08 -2.80471e-08 4.99982e-08)
(4.78577e-09 -3.03261e-08 5.16478e-08)
(-1.01589e-08 -3.04694e-08 5.10566e-08)
(-7.06037e-08 -2.70805e-08 4.68485e-08)
(1.01505e-07 -4.42984e-08 4.94957e-08)
(2.71696e-08 -4.86652e-08 5.46327e-08)
(5.99696e-09 -4.92094e-08 5.62964e-08)
(-1.48317e-08 -5.11869e-08 5.57342e-08)
(-8.53016e-08 -4.93113e-08 5.16246e-08)
(8.08649e-08 -9.68229e-08 5.18396e-08)
(3.15348e-08 -1.26461e-07 5.40497e-08)
(7.2391e-09 -1.21562e-07 5.56971e-08)
(-1.67119e-08 -1.27477e-07 5.51378e-08)
(-6.45721e-08 -1.00118e-07 5.37308e-08)
(2.59318e-08 8.58159e-09 3.5964e-10)
(0 0 0)
(0 0 0)
(0 0 0)
(-2.40714e-08 7.89734e-09 4.89114e-10)
(5.4766e-08 1.10088e-08 4.06237e-09)
(7.62664e-09 2.62952e-09 6.38754e-09)
(2.70087e-10 -1.36902e-09 7.26497e-09)
(-6.77974e-09 1.91741e-09 6.62986e-09)
(-5.05278e-08 9.32325e-09 4.51183e-09)
(5.83151e-08 2.91695e-10 1.14193e-08)
(1.00591e-08 -2.65237e-09 1.44858e-08)
(7.95781e-10 -4.95026e-09 1.57437e-08)
(-8.12709e-09 -3.78343e-09 1.49063e-08)
(-5.29187e-08 -2.04417e-09 1.22099e-08)
(5.9324e-08 -7.46817e-09 1.91211e-08)
(1.02317e-08 -8.49585e-09 2.23192e-08)
(1.48452e-09 -9.86754e-09 2.37156e-08)
(-6.92763e-09 -9.97675e-09 2.2879e-08)
(-5.24856e-08 -1.04536e-08 2.01876e-08)
(6.09827e-08 -1.32159e-08 2.60591e-08)
(1.04435e-08 -1.47599e-08 2.92493e-08)
(2.31403e-09 -1.62066e-08 3.06971e-08)
(-5.47579e-09 -1.65529e-08 2.99231e-08)
(-5.2387e-08 -1.68111e-08 2.73548e-08)
(6.55557e-08 -1.77903e-08 3.21386e-08)
(1.20777e-08 -2.13102e-08 3.53046e-08)
(3.27821e-09 -2.33468e-08 3.67752e-08)
(-5.17164e-09 -2.33985e-08 3.6071e-08)
(-5.49123e-08 -2.19532e-08 3.36212e-08)
(7.53173e-08 -2.29369e-08 3.70413e-08)
(1.63513e-08 -2.87326e-08 4.01855e-08)
(4.36604e-09 -3.10164e-08 4.16675e-08)
(-7.26656e-09 -3.11008e-08 4.10204e-08)
(-6.24014e-08 -2.76147e-08 3.86649e-08)
(9.27197e-08 -4.24156e-08 3.96741e-08)
(2.34335e-08 -4.6847e-08 4.2836e-08)
(5.54225e-09 -4.74289e-08 4.43296e-08)
(-1.20009e-08 -4.93151e-08 4.37038e-08)
(-7.74188e-08 -4.73178e-08 4.13787e-08)
(7.38723e-08 -9.19348e-08 4.05953e-08)
(2.78261e-08 -1.19968e-07 4.22903e-08)
(6.75497e-09 -1.15046e-07 4.38374e-08)
(-1.39658e-08 -1.2094e-07 4.31373e-08)
(-5.85145e-08 -9.51408e-08 4.20923e-08)
(2.38245e-08 7.53341e-09 6.62651e-10)
(0 0 0)
(0 0 0)
(0 0 0)
(-2.20494e-08 6.91951e-09 7.53774e-10)
(5.02435e-08 8.77608e-09 3.93024e-09)
(6.4669e-09 1.2926e-09 5.03773e-09)
(2.09524e-10 -2.37576e-09 5.55635e-09)
(-5.75755e-09 6.35088e-10 5.21126e-09)
(-4.62423e-08 7.24987e-09 4.25228e-09)
(5.34859e-08 -2.24012e-09 9.67554e-09)
(8.53399e-09 -4.90229e-09 1.11342e-08)
(6.68785e-10 -7.0143e-09 1.1884e-08)
(-6.87188e-09 -5.95728e-09 1.14402e-08)
(-4.84544e-08 -4.3947e-09 1.0251e-08)
(5.45615e-08 -1.00954e-08 1.58706e-08)
(8.6915e-09 -1.11045e-08 1.73619e-08)
(1.2949e-09 -1.24073e-08 1.8196e-08)
(-5.77995e-09 -1.2506e-08 1.7774e-08)
(-4.82042e-08 -1.29024e-08 1.66573e-08)
(5.63396e-08 -1.54268e-08 2.16178e-08)
(8.9555e-09 -1.70111e-08 2.30654e-08)
(2.06963e-09 -1.8436e-08 2.39293e-08)
(-4.48804e-09 -1.87297e-08 2.35667e-08)
(-4.83253e-08 -1.88598e-08 2.25857e-08)
(6.10102e-08 -1.91285e-08 2.64845e-08)
(1.06238e-08 -2.26788e-08 2.78938e-08)
(2.98777e-09 -2.47057e-08 2.87717e-08)
(-4.30847e-09 -2.47e-08 2.84692e-08)
(-5.10273e-08 -2.31495e-08 2.76043e-08)
(7.08417e-08 -2.32419e-08 3.00678e-08)
(1.48941e-08 -2.90443e-08 3.14713e-08)
(4.03756e-09 -3.13328e-08 3.23602e-08)
(-6.47398e-09 -3.13523e-08 3.21018e-08)
(-5.8642e-08 -2.77967e-08 3.13041e-08)
(8.82222e-08 -4.1584e-08 3.18334e-08)
(2.19186e-08 -4.60786e-08 3.32915e-08)
(5.18181e-09 -4.67286e-08 3.4199e-08)
(-1.12115e-08 -4.84927e-08 3.39478e-08)
(-7.36711e-08 -4.63776e-08 3.3137e-08)
(7.05217e-08 -8.9311e-08 3.23224e-08)
(2.63294e-08 -1.16353e-07 3.32663e-08)
(6.36696e-09 -1.11595e-07 3.42374e-08)
(-1.32482e-08 -1.17282e-07 3.3903e-08)
(-5.59358e-08 -9.2433e-08 3.34609e-08)
(2.27195e-08 7.09519e-09 6.83274e-10)
(0 0 0)
(0 0 0)
(0 0 0)
(-2.10013e-08 6.52985e-09 7.44706e-10)
(4.79159e-08 7.89357e-09 3.3417e-09)
(6.05251e-09 7.79677e-10 3.81828e-09)
(1.71152e-10 -2.72211e-09 4.07941e-09)
(-5.43344e-09 1.62796e-10 3.93787e-09)
(-4.40756e-08 6.48169e-09 3.5612e-09)
(5.10771e-08 -3.22736e-09 7.60442e-09)
(8.00991e-09 -5.79418e-09 8.21649e-09)
(5.83961e-10 -7.81328e-09 8.5963e-09)
(-6.53141e-09 -6.78928e-09 8.42937e-09)
(-4.6298e-08 -5.24354e-09 8.00136e-09)
(5.22586e-08 -1.1206e-08 1.21608e-08)
(8.2002e-09 -1.22398e-08 1.27619e-08)
(1.16324e-09 -1.35073e-08 1.31853e-08)
(-5.56399e-09 -1.35752e-08 1.30511e-08)
(-4.62406e-08 -1.38691e-08 1.27098e-08)
(5.41618e-08 -1.64375e-08 1.64369e-08)
(8.52011e-09 -1.80644e-08 1.69942e-08)
(1.8951e-09 -1.94753e-08 1.74327e-08)
(-4.41224e-09 -1.97185e-08 1.73488e-08)
(-4.65653e-08 -1.9734e-08 1.71198e-08)
(5.89128e-08 -1.98158e-08 2.00144e-08)
(1.02182e-08 -2.33828e-08 2.05426e-08)
(2.77603e-09 -2.53981e-08 2.09903e-08)
(-4.33571e-09 -2.53447e-08 2.09526e-08)
(-4.94134e-08 -2.37144e-08 2.0812e-08)
(6.87483e-08 -2.35716e-08 2.25666e-08)
(1.44704e-08 -2.93584e-08 2.31031e-08)
(3.7943e-09 -3.16434e-08 2.35621e-08)
(-6.54465e-09 -3.16138e-08 2.35546e-08)
(-5.7082e-08 -2.802e-08 2.34538e-08)
(8.60121e-08 -4.14373e-08 2.38574e-08)
(2.14268e-08 -4.59572e-08 2.44509e-08)
(4.91173e-09 -4.66512e-08 2.49287e-08)
(-1.12657e-08 -4.83256e-08 2.49219e-08)
(-7.20285e-08 -4.61387e-08 2.47972e-08)
(6.90022e-08 -8.80593e-08 2.42294e-08)
(2.58336e-08 -1.14465e-07 2.46996e-08)
(6.07391e-09 -1.0985e-07 2.52199e-08)
(-1.33435e-08 -1.15357e-07 2.5155e-08)
(-5.50047e-08 -9.11101e-08 2.50488e-08)
(2.21243e-08 6.89161e-09 5.20842e-10)
(0 0 0)
(0 0 0)
(0 0 0)
(-2.04409e-08 6.35741e-09 5.58702e-10)
(4.66908e-08 7.52544e-09 2.37268e-09)
(5.90526e-09 5.6389e-10 2.57551e-09)
(1.47836e-10 -2.85573e-09 2.69765e-09)
(-5.34177e-09 -2.52863e-11 2.65059e-09)
(-4.29498e-08 6.18901e-09 2.50877e-09)
(4.98523e-08 -3.57597e-09 5.19211e-09)
(7.84174e-09 -6.1193e-09 5.44133e-09)
(5.30531e-10 -8.09457e-09 5.6193e-09)
(-6.47953e-09 -7.07252e-09 5.57571e-09)
(-4.52326e-08 -5.49702e-09 5.44013e-09)
(5.1119e-08 -1.15995e-08 8.15801e-09)
(8.06672e-09 -1.26617e-08 8.38924e-09)
(1.07784e-09 -1.39123e-08 8.58797e-09)
(-5.60949e-09 -1.39495e-08 8.57288e-09)
(-4.53198e-08 -1.41601e-08 8.50404e-09)
(5.3109e-08 -1.68412e-08 1.09457e-08)
(8.42447e-09 -1.84969e-08 1.11477e-08)
(1.77925e-09 -1.98987e-08 1.13543e-08)
(-4.55545e-09 -2.01033e-08 1.13742e-08)
(-4.57874e-08 -2.00378e-08 1.13798e-08)
(5.79064e-08 -2.01731e-08 1.32741e-08)
(1.01377e-08 -2.3744e-08 1.34608e-08)
(2.63293e-09 -2.57483e-08 1.36739e-08)
(-4.54769e-09 -2.56616e-08 1.37241e-08)
(-4.87306e-08 -2.39803e-08 1.37849e-08)
(6.77204e-08 -2.38787e-08 1.49335e-08)
(1.43682e-08 -2.96422e-08 1.51322e-08)
(3.62765e-09 -3.1918e-08 1.53551e-08)
(-6.7811e-09 -3.18582e-08 1.54233e-08)
(-5.64165e-08 -2.82469e-08 1.55052e-08)
(8.48725e-08 -4.1557e-08 1.58172e-08)
(2.12694e-08 -4.60739e-08 1.60581e-08)
(4.72492e-09 -4.67845e-08 1.62951e-08)
(-1.14862e-08 -4.84082e-08 1.63623e-08)
(-7.12796e-08 -4.61894e-08 1.6425e-08)
(6.82599e-08 -8.7515e-08 1.6107e-08)
(2.56592e-08 -1.13512e-07 1.63395e-08)
(5.86999e-09 -1.08975e-07 1.65976e-08)
(-1.35808e-08 -1.14374e-07 1.66331e-08)
(-5.46714e-08 -9.05123e-08 1.66367e-08)
(2.18217e-08 6.79735e-09 2.75486e-10)
(0 0 0)
(0 0 0)
(0 0 0)
(-2.01569e-08 6.28039e-09 2.93533e-10)
(4.60751e-08 7.37252e-09 1.21975e-09)
(5.84627e-09 4.76302e-10 1.29811e-09)
(1.35349e-10 -2.90473e-09 1.34676e-09)
(-5.31273e-09 -9.68782e-11 1.33431e-09)
(-4.23876e-08 6.07869e-09 1.28481e-09)
(4.92477e-08 -3.68504e-09 2.62117e-09)
(7.78097e-09 -6.2243e-09 2.71405e-09)
(5.01231e-10 -8.17995e-09 2.78492e-09)
(-6.48263e-09 -7.15297e-09 2.77903e-09)
(-4.47151e-08 -5.55094e-09 2.74025e-09)
(5.05634e-08 -1.17127e-08 4.07836e-09)
(8.027e-09 -1.2793e-08 4.1607e-09)
(1.03008e-09 -1.40359e-08 4.23997e-09)
(-5.66989e-09 -1.40525e-08 4.24982e-09)
(-4.4886e-08 -1.42127e-08 4.24537e-09)
(5.25999e-08 -1.69816e-08 5.44609e-09)
(8.40406e-09 -1.86519e-08 5.51486e-09)
(1.71338e-09 -2.00482e-08 5.59772e-09)
(-4.67077e-09 -2.02296e-08 5.62519e-09)
(-4.54334e-08 -2.0118e-08 5.6567e-09)
(5.74181e-08 -2.0346e-08 6.58999e-09)
(1.01224e-08 -2.39156e-08 6.653e-09)
(2.55049e-09 -2.59119e-08 6.7395e-09)
(-4.70077e-09 -2.58061e-08 6.78164e-09)
(-4.84273e-08 -2.40975e-08 6.83901e-09)
(6.72112e-08 -2.40859e-08 7.41089e-09)
(1.43371e-08 -2.98311e-08 7.48168e-09)
(3.53068e-09 -3.20983e-08 7.57382e-09)
(-6.94682e-09 -3.20229e-08 7.62431e-09)
(-5.61168e-08 -2.8405e-08 7.69063e-09)
(8.42906e-08 -4.16994e-08 7.86472e-09)
(2.12042e-08 -4.62053e-08 7.95723e-09)
(4.61548e-09 -4.69185e-08 8.05676e-09)
(-1.16421e-08 -4.85187e-08 8.10646e-09)
(-7.09256e-08 -4.62894e-08 8.16291e-09)
(6.78838e-08 -8.73046e-08 8.02782e-09)
(2.55778e-08 -1.13068e-07 8.12889e-09)
(5.75001e-09 -1.08564e-07 8.23624e-09)
(-1.37415e-08 -1.13912e-07 8.27269e-09)
(-5.45353e-08 -9.0269e-08 8.2877e-09)
(1.74076e-08 7.10982e-09 0)
(2.07651e-09 1.8438e-09 0)
(-2.94347e-12 -2.42175e-10 0)
(-1.96889e-09 1.6518e-09 0)
(-1.61542e-08 6.55877e-09 0)
(2.86906e-08 5.51412e-09 0)
(5.82896e-09 4.53018e-10 0)
(1.31428e-10 -2.91654e-09 0)
(-5.30485e-09 -1.14944e-10 0)
(-2.64626e-08 4.43055e-09 0)
(3.17948e-08 -4.11583e-09 0)
(7.76364e-09 -6.24714e-09 0)
(4.91915e-10 -8.1971e-09 0)
(-6.48562e-09 -7.16775e-09 0)
(-2.87562e-08 -5.7343e-09 0)
(3.25742e-08 -1.18131e-08 0)
(8.01628e-09 -1.282e-08 0)
(1.01474e-09 -1.40606e-08 0)
(-5.69132e-09 -1.40701e-08 0)
(-2.84447e-08 -1.39903e-08 0)
(3.38026e-08 -1.7351e-08 0)
(8.39901e-09 -1.86888e-08 0)
(1.69204e-09 -2.00833e-08 0)
(-4.70967e-09 -2.0257e-08 0)
(-2.8247e-08 -2.00839e-08 0)
(3.73579e-08 -2.14215e-08 0)
(1.01183e-08 -2.39662e-08 0)
(2.5236e-09 -2.59597e-08 0)
(-4.75158e-09 -2.58477e-08 0)
(-3.00494e-08 -2.46968e-08 0)
(4.52017e-08 -2.61698e-08 0)
(1.43273e-08 -2.98962e-08 0)
(3.49888e-09 -3.21599e-08 0)
(-7.00159e-09 -3.20799e-08 0)
(-3.58618e-08 -2.99554e-08 0)
(5.88248e-08 -4.39373e-08 0)
(2.11831e-08 -4.62572e-08 0)
(4.57947e-09 -4.697e-08 0)
(-1.16937e-08 -4.85636e-08 0)
(-4.72699e-08 -4.79578e-08 0)
(5.83887e-08 -7.83412e-08 0)
(2.53553e-08 -8.60711e-08 0)
(5.42456e-09 -8.34459e-08 0)
(-1.41726e-08 -8.7632e-08 0)
(-4.58956e-08 -8.1458e-08 0)
)
;

boundaryField
{
    interface
    {
        type            calculated;
    }
    symmetry
    {
        type            symmetry;
    }
    bottom
    {
        type            calculated;
    }
}


// ************************************************************************* //
