/*--------------------------------*- C++ -*----------------------------------*\
| =========                 |                                                 |
| \\      /  F ield         | OpenFOAM: The Open Source CFD Toolbox           |
|  \\    /   O peration     | Version:  v1912                                 |
|   \\  /    A nd           | Website:  www.openfoam.com                      |
|    \\/     M anipulation  |                                                 |
\*---------------------------------------------------------------------------*/
FoamFile
{
    version     2.0;
    format      ascii;
    class       volScalarField;
    location    "0.57/solid";
    object      T;
}
// * * * * * * * * * * * * * * * * * * * * * * * * * * * * * * * * * * * * * //

dimensions      [0 0 0 1 0 0 0];


internalField   nonuniform List<scalar> 
256
(
291.558
292.196
292.203
291.592
291.224
291.993
292.001
291.263
291.175
291.964
291.973
291.216
291.139
291.945
291.953
291.182
291.084
291.914
291.923
291.127
290.984
291.852
291.86
291.028
290.72
291.641
291.651
290.764
289.651
290.595
290.611
289.715
292.269
292.833
292.834
292.287
292.082
292.777
292.778
292.103
292.055
292.77
292.771
292.076
292.036
292.766
292.767
292.058
292.005
292.76
292.761
292.027
291.943
292.739
292.741
291.966
291.737
292.6
292.602
291.762
290.719
291.641
291.65
290.764
292.411
292.917
292.917
292.427
292.261
292.888
292.889
292.279
292.239
292.885
292.885
292.258
292.222
292.883
292.883
292.241
292.194
292.879
292.879
292.214
292.137
292.863
292.864
292.158
291.943
292.739
292.741
291.966
290.983
291.851
291.86
291.028
292.455
292.927
292.928
292.471
292.316
292.902
292.903
292.333
292.294
292.899
292.899
292.312
292.277
292.897
292.897
292.296
292.25
292.894
292.894
292.269
292.193
292.879
292.879
292.214
292.004
292.76
292.761
292.027
291.083
291.913
291.922
291.127
292.477
292.93
292.93
292.492
292.342
292.906
292.906
292.359
292.321
292.903
292.903
292.338
292.304
292.901
292.901
292.322
292.277
292.897
292.897
292.296
292.221
292.883
292.883
292.241
292.035
292.766
292.767
292.057
291.136
291.943
291.952
291.181
292.489
292.931
292.932
292.505
292.357
292.907
292.908
292.373
292.336
292.904
292.904
292.353
292.319
292.902
292.903
292.337
292.292
292.899
292.899
292.311
292.236
292.884
292.885
292.256
292.052
292.769
292.77
292.074
291.168
291.961
291.97
291.213
292.497
292.932
292.932
292.511
292.366
292.908
292.908
292.382
292.345
292.905
292.905
292.361
292.328
292.903
292.903
292.345
292.3
292.9
292.9
292.319
292.245
292.885
292.886
292.265
292.062
292.771
292.772
292.084
291.187
291.971
291.979
291.231
292.5
292.932
292.933
292.515
292.369
292.909
292.909
292.385
292.349
292.905
292.906
292.365
292.332
292.904
292.904
292.349
292.304
292.9
292.9
292.323
292.249
292.886
292.886
292.268
292.066
292.772
292.773
292.088
291.195
291.975
291.984
291.239
)
;

boundaryField
{
    interface
    {
        type            fixedValue;
        value           nonuniform List<scalar> 
192
(
290.147
289.921
289.85
289.774
289.661
289.474
289.101
288.109
290.937
290.8
290.746
290.685
290.592
290.432
290.09
289.1
291.227
291.115
291.067
291.01
290.921
290.765
290.43
289.47
291.368
291.263
291.218
291.161
291.073
290.918
290.588
289.655
291.448
291.347
291.302
291.246
291.158
291.004
290.677
289.763
291.495
291.396
291.351
291.295
291.208
291.055
290.731
289.83
291.523
291.424
291.379
291.324
291.236
291.084
290.762
289.869
291.535
291.437
291.392
291.337
291.249
291.097
290.776
289.887
290.079
289.856
289.784
289.707
289.594
289.406
289.031
288.037
290.74
290.593
290.537
290.475
290.382
290.221
289.874
288.864
290.77
290.625
290.57
290.509
290.417
290.257
289.911
288.907
290.184
289.969
289.901
289.827
289.716
289.53
289.158
288.181
290.293
290.077
290.011
289.938
289.828
289.643
289.272
288.299
291.067
290.935
290.885
290.827
290.737
290.581
290.242
289.272
291.353
291.245
291.201
291.147
291.062
290.91
290.58
289.642
291.49
291.39
291.347
291.295
291.211
291.061
290.737
289.826
291.568
291.471
291.429
291.377
291.293
291.145
290.825
289.935
291.614
291.518
291.477
291.425
291.342
291.194
290.878
290.002
291.64
291.546
291.504
291.453
291.37
291.223
290.908
290.041
291.652
291.558
291.517
291.465
291.382
291.236
290.923
290.059
288.036
289.028
289.401
289.586
289.695
289.762
289.802
289.82
288.863
289.872
290.218
290.377
290.466
290.521
290.552
290.567
288.907
289.909
290.254
290.413
290.502
290.557
290.588
290.603
288.181
289.157
289.528
289.713
289.822
289.889
289.929
289.947
)
;
    }
    symmetry
    {
        type            symmetry;
    }
    bottom
    {
        type            fixedValue;
        value           uniform 293;
    }
}


// ************************************************************************* //
