/*--------------------------------*- C++ -*----------------------------------*\
| =========                 |                                                 |
| \\      /  F ield         | OpenFOAM: The Open Source CFD Toolbox           |
|  \\    /   O peration     | Version:  v1912                                 |
|   \\  /    A nd           | Website:  www.openfoam.com                      |
|    \\/     M anipulation  |                                                 |
\*---------------------------------------------------------------------------*/
FoamFile
{
    version     2.0;
    format      ascii;
    class       volVectorField;
    location    "0.8/solid";
    object      D;
}
// * * * * * * * * * * * * * * * * * * * * * * * * * * * * * * * * * * * * * //

dimensions      [0 1 0 0 0 0 0];


internalField   nonuniform List<vector> 
256
(
(2.88311e-08 4.06188e-08 3.16923e-08)
(3.86287e-09 2.3786e-08 2.89045e-08)
(-3.78194e-09 2.34044e-08 2.87666e-08)
(-2.77868e-08 3.90491e-08 3.1349e-08)
(4.74629e-08 3.18744e-08 6.17765e-08)
(9.78889e-09 2.1467e-08 5.80537e-08)
(-8.67006e-09 2.09201e-08 5.79048e-08)
(-4.50451e-08 3.00724e-08 6.14043e-08)
(5.02396e-08 1.55852e-08 7.87034e-08)
(1.13108e-08 1.14164e-08 7.46576e-08)
(-8.90801e-09 1.08036e-08 7.4549e-08)
(-4.65433e-08 1.37011e-08 7.84347e-08)
(4.97027e-08 7.1916e-10 9.19805e-08)
(1.12403e-08 -1.52988e-09 8.74608e-08)
(-7.49073e-09 -2.18381e-09 8.73823e-08)
(-4.46604e-08 -1.26349e-09 9.17922e-08)
(5.05361e-08 -1.36599e-08 1.05118e-07)
(1.16379e-08 -1.66559e-08 1.0004e-07)
(-6.49849e-09 -1.73483e-08 9.99758e-08)
(-4.40864e-08 -1.57448e-08 1.0497e-07)
(5.52538e-08 -2.98331e-08 1.19988e-07)
(1.3626e-08 -3.42788e-08 1.14399e-07)
(-7.06698e-09 -3.50108e-08 1.14336e-07)
(-4.73709e-08 -3.20158e-08 1.19844e-07)
(6.62968e-08 -5.46341e-08 1.3773e-07)
(1.78448e-08 -5.8065e-08 1.32176e-07)
(-9.88926e-09 -5.8813e-08 1.32103e-07)
(-5.70044e-08 -5.68523e-08 1.3756e-07)
(8.18011e-08 -1.12175e-07 1.55281e-07)
(2.24306e-08 -1.08331e-07 1.50867e-07)
(-1.32541e-08 -1.08831e-07 1.50771e-07)
(-7.11943e-08 -1.13743e-07 1.55053e-07)
(1.9994e-08 1.83349e-08 6.69037e-09)
(2.0165e-09 4.52015e-09 8.11111e-09)
(-1.88855e-09 4.27294e-09 8.15961e-09)
(-1.89413e-08 1.71226e-08 6.82834e-09)
(3.32573e-08 1.20699e-08 2.55821e-08)
(6.20561e-09 3.36804e-09 2.83553e-08)
(-5.02984e-09 2.8848e-09 2.84368e-08)
(-3.08766e-08 1.04395e-08 2.58168e-08)
(3.48877e-08 7.8694e-10 4.14509e-08)
(7.29446e-09 -2.80807e-09 4.46642e-08)
(-4.86446e-09 -3.40331e-09 4.47784e-08)
(-3.12834e-08 -1.04433e-09 4.17778e-08)
(3.40293e-08 -1.13742e-08 5.4381e-08)
(7.16573e-09 -1.34337e-08 5.76163e-08)
(-3.42144e-09 -1.40855e-08 5.77585e-08)
(-2.91189e-08 -1.33462e-08 5.47856e-08)
(3.45835e-08 -2.43099e-08 6.64383e-08)
(7.52511e-09 -2.72437e-08 6.95399e-08)
(-2.41347e-09 -2.79379e-08 6.96988e-08)
(-2.82847e-08 -2.63984e-08 6.68877e-08)
(3.91016e-08 -3.86512e-08 7.88631e-08)
(9.48078e-09 -4.31478e-08 8.17996e-08)
(-2.95877e-09 -4.38836e-08 8.19632e-08)
(-3.13681e-08 -4.08467e-08 7.93232e-08)
(5.03982e-08 -5.8571e-08 9.09219e-08)
(1.37544e-08 -6.19656e-08 9.379e-08)
(-5.83073e-09 -6.27241e-08 9.39486e-08)
(-4.12349e-08 -6.0821e-08 9.13644e-08)
(6.69154e-08 -1.053e-07 9.77272e-08)
(1.84505e-08 -1.00334e-07 1.00639e-07)
(-9.28382e-09 -1.0086e-07 1.0079e-07)
(-5.64039e-08 -1.06932e-07 9.81467e-08)
(1.38667e-08 1.13517e-08 3.2261e-09)
(3.91992e-10 -1.57146e-10 5.15254e-09)
(-2.9528e-10 -3.68572e-10 5.19341e-09)
(-1.28753e-08 1.02528e-08 3.34308e-09)
(2.30575e-08 1.97847e-09 1.58574e-08)
(2.91779e-09 -5.19109e-09 1.95026e-08)
(-1.82988e-09 -5.63487e-09 1.95823e-08)
(-2.08028e-08 4.62411e-10 1.60886e-08)
(2.3909e-08 -9.05628e-09 2.94657e-08)
(3.58218e-09 -1.21117e-08 3.36536e-08)
(-1.28131e-09 -1.26816e-08 3.37581e-08)
(-2.04758e-08 -1.08145e-08 2.977e-08)
(2.29839e-08 -1.97859e-08 4.17743e-08)
(3.41553e-09 -2.17431e-08 4.60633e-08)
(1.70029e-10 -2.23828e-08 4.61873e-08)
(-1.82762e-08 -2.1722e-08 4.21346e-08)
(2.35041e-08 -3.06548e-08 5.29096e-08)
(3.76267e-09 -3.36276e-08 5.71637e-08)
(1.17078e-09 -3.43185e-08 5.73005e-08)
(-1.74244e-08 -3.2734e-08 5.33048e-08)
(2.80619e-08 -4.19083e-08 6.3009e-08)
(5.71076e-09 -4.64942e-08 6.71869e-08)
(6.2385e-10 -4.72335e-08 6.73287e-08)
(-2.05475e-08 -4.41158e-08 6.34158e-08)
(3.95963e-08 -5.72253e-08 7.07274e-08)
(1.00292e-08 -6.06968e-08 7.48167e-08)
(-2.29224e-09 -6.14656e-08 7.49578e-08)
(-3.0637e-08 -5.95063e-08 7.11278e-08)
(5.63909e-08 -9.82031e-08 7.2887e-08)
(1.47872e-08 -9.32237e-08 7.69218e-08)
(-5.79685e-09 -9.37646e-08 7.70626e-08)
(-4.60582e-08 -9.98738e-08 7.32811e-08)
(1.10917e-08 9.13514e-09 2.94501e-09)
(-2.98658e-10 -1.0239e-09 4.18996e-09)
(3.65523e-10 -1.22664e-09 4.21644e-09)
(-1.01614e-08 8.08124e-09 3.02482e-09)
(1.83228e-08 -2.07486e-09 1.23558e-08)
(1.39696e-09 -8.32083e-09 1.47273e-08)
(-4.03894e-10 -8.74606e-09 1.47862e-08)
(-1.61986e-08 -3.52852e-09 1.25329e-08)
(1.89072e-08 -1.39835e-08 2.32005e-08)
(1.86122e-09 -1.67155e-08 2.59173e-08)
(2.97162e-10 -1.72671e-08 2.59965e-08)
(-1.5648e-08 -1.56865e-08 2.34383e-08)
(1.81526e-08 -2.43189e-08 3.37118e-08)
(1.73417e-09 -2.62456e-08 3.64665e-08)
(1.67838e-09 -2.68728e-08 3.65599e-08)
(-1.36473e-08 -2.62187e-08 3.39916e-08)
(1.88607e-08 -3.36907e-08 4.31367e-08)
(2.14058e-09 -3.6723e-08 4.58397e-08)
(2.6017e-09 -3.74082e-08 4.59424e-08)
(-1.29989e-08 -3.57543e-08 4.34433e-08)
(2.3574e-08 -4.26675e-08 5.09123e-08)
(4.12163e-09 -4.73348e-08 5.35482e-08)
(2.01304e-09 -4.80746e-08 5.36556e-08)
(-1.62805e-08 -4.4878e-08 5.12307e-08)
(3.5161e-08 -5.5482e-08 5.59359e-08)
(8.42957e-09 -5.91233e-08 5.85183e-08)
(-8.94329e-10 -5.9897e-08 5.86269e-08)
(-2.64143e-08 -5.7779e-08 5.62547e-08)
(5.17995e-08 -9.39957e-08 5.68048e-08)
(1.31596e-08 -8.95158e-08 5.94253e-08)
(-4.36752e-09 -9.00636e-08 5.9535e-08)
(-4.1664e-08 -9.56853e-08 5.71222e-08)
(1.0047e-08 8.24193e-09 2.66788e-09)
(-4.65975e-10 -1.23919e-09 3.29469e-09)
(5.12917e-10 -1.43737e-09 3.31231e-09)
(-9.1604e-09 7.21771e-09 2.72233e-09)
(1.65969e-08 -3.53129e-09 9.81907e-09)
(9.69502e-10 -9.33217e-09 1.10043e-08)
(-4.75201e-11 -9.7469e-09 1.10462e-08)
(-1.45738e-08 -4.94481e-09 9.94703e-09)
(1.72071e-08 -1.59084e-08 1.79726e-08)
(1.39928e-09 -1.85092e-08 1.93091e-08)
(6.45337e-10 -1.90488e-08 1.93669e-08)
(-1.40884e-08 -1.75727e-08 1.81489e-08)
(1.66838e-08 -2.61638e-08 2.60872e-08)
(1.34309e-09 -2.81127e-08 2.7407e-08)
(1.92663e-09 -2.87302e-08 2.74755e-08)
(-1.23453e-08 -2.80343e-08 2.62962e-08)
(1.76144e-08 -3.47763e-08 3.33397e-08)
(1.82368e-09 -3.78665e-08 3.45984e-08)
(2.7582e-09 -3.85461e-08 3.46741e-08)
(-1.19347e-08 -3.68238e-08 3.35698e-08)
(2.2456e-08 -4.26327e-08 3.90313e-08)
(3.83613e-09 -4.7355e-08 4.0239e-08)
(2.12906e-09 -4.80932e-08 4.03187e-08)
(-1.53501e-08 -4.48397e-08 3.92724e-08)
(3.3981e-08 -5.44458e-08 4.24404e-08)
(8.1039e-09 -5.82226e-08 4.36339e-08)
(-7.41622e-10 -5.89976e-08 4.37153e-08)
(-2.5419e-08 -5.67482e-08 4.26845e-08)
(5.03789e-08 -9.18306e-08 4.30594e-08)
(1.27803e-08 -8.78006e-08 4.43246e-08)
(-4.16099e-09 -8.83511e-08 4.44069e-08)
(-4.04204e-08 -9.35285e-08 4.33036e-08)
(9.66302e-09 7.82418e-09 2.09827e-09)
(-4.67672e-10 -1.33209e-09 2.38141e-09)
(5.01991e-10 -1.52684e-09 2.39298e-09)
(-8.8045e-09 6.82086e-09 2.13398e-09)
(1.60444e-08 -3.99429e-09 7.20068e-09)
(9.28665e-10 -9.60861e-09 7.72072e-09)
(-5.46527e-11 -1.00162e-08 7.74898e-09)
(-1.40895e-08 -5.37962e-09 7.28678e-09)
(1.67691e-08 -1.64338e-08 1.28604e-08)
(1.38596e-09 -1.90053e-08 1.34259e-08)
(5.78086e-10 -1.95368e-08 1.34655e-08)
(-1.37492e-08 -1.80709e-08 1.29812e-08)
(1.64368e-08 -2.66303e-08 1.8505e-08)
(1.39239e-09 -2.86192e-08 1.90369e-08)
(1.77256e-09 -2.92298e-08 1.90843e-08)
(-1.22194e-08 -2.84791e-08 1.86498e-08)
(1.75328e-08 -3.49526e-08 2.35352e-08)
(1.92791e-09 -3.80868e-08 2.40183e-08)
(2.53358e-09 -3.87618e-08 2.40709e-08)
(-1.19881e-08 -3.69862e-08 2.36959e-08)
(2.24465e-08 -4.24291e-08 2.74087e-08)
(3.95683e-09 -4.71785e-08 2.78618e-08)
(1.8792e-09 -4.79145e-08 2.79175e-08)
(-1.5482e-08 -4.46303e-08 2.75783e-08)
(3.38864e-08 -5.39509e-08 2.96942e-08)
(8.18422e-09 -5.77958e-08 3.01537e-08)
(-9.5531e-10 -5.85704e-08 3.0211e-08)
(-2.54662e-08 -5.62533e-08 2.98674e-08)
(5.00848e-08 -9.07599e-08 3.02151e-08)
(1.28135e-08 -8.69948e-08 3.0735e-08)
(-4.32899e-09 -8.75459e-08 3.07929e-08)
(-4.02652e-08 -9.24604e-08 3.03888e-08)
(9.50508e-09 7.63049e-09 1.32762e-09)
(-4.46431e-10 -1.37059e-09 1.44631e-09)
(4.73342e-10 -1.56304e-09 1.45295e-09)
(-8.66292e-09 6.64028e-09 1.34794e-09)
(1.58576e-08 -4.10092e-09 4.39744e-09)
(9.59148e-10 -9.6425e-09 4.6065e-09)
(-1.14299e-10 -1.00453e-08 4.62287e-09)
(-1.39436e-08 -5.4679e-09 4.447e-09)
(1.66787e-08 -1.64579e-08 7.72652e-09)
(1.44705e-09 -1.90342e-08 7.94255e-09)
(4.66459e-10 -1.95605e-08 7.96572e-09)
(-1.372e-08 -1.80771e-08 7.79683e-09)
(1.64684e-08 -2.6591e-08 1.10277e-08)
(1.49391e-09 -2.86134e-08 1.12176e-08)
(1.60349e-09 -2.92194e-08 1.12455e-08)
(-1.2328e-08 -2.84251e-08 1.11127e-08)
(1.76616e-08 -3.48322e-08 1.39617e-08)
(2.06074e-09 -3.79935e-08 1.41227e-08)
(2.32151e-09 -3.86653e-08 1.41538e-08)
(-1.22044e-08 -3.68559e-08 1.40567e-08)
(2.26083e-08 -4.22437e-08 1.62114e-08)
(4.09561e-09 -4.70022e-08 1.63586e-08)
(1.65416e-09 -4.77363e-08 1.63917e-08)
(-1.57368e-08 -4.44397e-08 1.63123e-08)
(3.39831e-08 -5.37288e-08 1.75489e-08)
(8.29482e-09 -5.75966e-08 1.7706e-08)
(-1.15593e-09 -5.83704e-08 1.77402e-08)
(-2.56577e-08 -5.60296e-08 1.76524e-08)
(5.00497e-08 -9.0245e-08 1.79073e-08)
(1.28919e-08 -8.66037e-08 1.81008e-08)
(-4.49923e-09 -8.71547e-08 1.81353e-08)
(-4.03242e-08 -9.19454e-08 1.80113e-08)
(9.44103e-09 7.55514e-09 4.53056e-10)
(-4.349e-10 -1.38146e-09 4.85856e-10)
(4.58398e-10 -1.57278e-09 4.88025e-10)
(-8.60641e-09 6.57118e-09 4.59659e-10)
(1.57887e-08 -4.10706e-09 1.47812e-09)
(9.78453e-10 -9.62327e-09 1.53417e-09)
(-1.4731e-10 -1.00237e-08 1.53954e-09)
(-1.38938e-08 -5.46501e-09 1.4943e-09)
(1.6658e-08 -1.63937e-08 2.57663e-09)
(1.48228e-09 -1.89774e-08 2.63235e-09)
(4.07045e-10 -1.95011e-08 2.63997e-09)
(-1.37284e-08 -1.8004e-08 2.5997e-09)
(1.65046e-08 -2.6487e-08 3.66094e-09)
(1.5478e-09 -2.8527e-08 3.70734e-09)
(1.51673e-09 -2.91308e-08 3.71656e-09)
(-1.24013e-08 -2.83138e-08 3.68898e-09)
(1.77408e-08 -3.47146e-08 4.62312e-09)
(2.12806e-09 -3.78881e-08 4.66019e-09)
(2.21511e-09 -3.85582e-08 4.6705e-09)
(-1.23264e-08 -3.6733e-08 4.65455e-09)
(2.26995e-08 -4.21388e-08 5.36096e-09)
(4.16439e-09 -4.68989e-08 5.39424e-09)
(1.54238e-09 -4.7632e-08 5.40524e-09)
(-1.5874e-08 -4.43317e-08 5.39447e-09)
(3.40413e-08 -5.36407e-08 5.80311e-09)
(8.34977e-09 -5.75131e-08 5.84063e-09)
(-1.25607e-09 -5.82863e-08 5.85199e-09)
(-2.57631e-08 -5.59402e-08 5.83758e-09)
(5.00434e-08 -9.00345e-08 5.93081e-09)
(1.29308e-08 -8.64384e-08 5.9802e-09)
(-4.5845e-09 -8.69892e-08 5.99166e-09)
(-4.03652e-08 -9.17344e-08 5.96544e-09)
)
;

boundaryField
{
    interface
    {
        type            solidTraction;
        traction        nonuniform List<vector> 
192
(
(39.8078 -0.356774 -2.68184)
(41.487 -0.355719 -4.35083)
(43.148 -0.105696 -4.97951)
(44.2503 0.331151 -5.16929)
(44.6365 0.721147 -5.14293)
(45.6051 1.40716 -5.02557)
(44.074 1.93259 -4.6543)
(47.699 4.39654 -4.36897)
(38.8089 -0.261973 -1.3143)
(39.5604 -0.282899 -2.28236)
(40.57 -0.0660345 -2.57908)
(41.3109 0.376328 -2.61742)
(41.4217 0.785842 -2.53384)
(42.2622 1.53976 -2.40244)
(40.4391 2.12006 -2.16274)
(44.1423 4.70261 -1.97413)
(41.3415 -0.227709 -1.02943)
(41.9986 -0.247137 -1.76374)
(42.9915 -0.0376216 -1.98387)
(43.7455 0.423741 -2.0068)
(43.7819 0.86855 -1.93702)
(44.5458 1.70257 -1.83083)
(42.2865 2.36495 -1.65916)
(45.7477 5.11575 -1.51706)
(41.567 -0.175331 -0.623646)
(42.0419 -0.172427 -1.13058)
(42.8275 0.0390046 -1.27564)
(43.4588 0.50294 -1.27772)
(43.3708 0.962472 -1.21585)
(44.052 1.82987 -1.13237)
(41.6337 2.52838 -1.02451)
(45.0162 5.31742 -0.941136)
(42.3422 -0.150143 -0.453778)
(42.7656 -0.125474 -0.82279)
(43.4577 0.0956719 -0.929599)
(44.0354 0.566673 -0.930936)
(43.869 1.04222 -0.885426)
(44.4741 1.93821 -0.823585)
(41.8858 2.66957 -0.748833)
(45.1201 5.49828 -0.689537)
(42.5539 -0.130569 -0.274973)
(42.9301 -0.0873308 -0.516362)
(43.5408 0.142649 -0.587013)
(44.0658 0.618006 -0.586542)
(43.8408 1.10232 -0.555102)
(44.3974 2.01237 -0.513529)
(41.7281 2.76062 -0.467955)
(44.9018 5.60841 -0.433678)
(42.8099 -0.121098 -0.160717)
(43.1697 -0.0651867 -0.301567)
(43.7377 0.172305 -0.343218)
(44.2337 0.651691 -0.343205)
(43.972 1.14272 -0.325191)
(44.4928 2.06248 -0.300786)
(41.7604 2.82259 -0.275251)
(44.8789 5.6849 -0.254891)
(42.8745 -0.115301 -0.0473154)
(43.2226 -0.052843 -0.092222)
(43.7668 0.188061 -0.105721)
(44.2465 0.668635 -0.10557)
(43.9685 1.16231 -0.099718)
(44.4722 2.08552 -0.0917751)
(41.7205 2.85101 -0.0842759)
(44.8111 5.71924 -0.0779712)
(3.73101 0.89799 14.0699)
(6.3667 1.10792 10.0368)
(7.48439 0.96691 6.03615)
(7.91942 0.728208 4.32284)
(8.07841 0.621439 3.84788)
(8.2068 0.659073 4.41141)
(8.37512 0.800381 6.21391)
(9.22489 1.00788 7.72004)
(2.19275 0.53808 17.893)
(4.21541 0.854177 17.0011)
(5.00561 0.780982 15.6238)
(5.28064 0.511159 15.1077)
(5.38301 0.322798 14.9395)
(5.5275 0.218751 15.1677)
(5.86156 0.236858 15.7487)
(6.97489 0.312795 16.0675)
(2.16761 0.397135 15.0972)
(4.21421 0.703469 14.4251)
(5.04254 0.654553 13.1309)
(5.33846 0.359588 12.6018)
(5.43951 0.115404 12.4525)
(5.55715 -0.0857313 12.6746)
(5.8393 -0.192241 13.3228)
(6.91311 -0.20858 14.0887)
(2.35505 0.328167 15.3553)
(4.76357 0.613152 14.9719)
(5.81007 0.562979 13.8372)
(6.20288 0.244374 13.4229)
(6.33388 -0.0263696 13.3804)
(6.48503 -0.273103 13.5992)
(6.73159 -0.451372 14.0827)
(7.8651 -0.616702 14.7031)
(-7.59128 0.745784 0.623393)
(-5.07846 0.99639 1.26047)
(-2.40738 0.762637 1.47503)
(-0.996306 0.252446 1.58304)
(-0.456962 -0.0311615 1.66833)
(1.01899 -0.426411 1.91319)
(0.56114 -0.397076 2.12169)
(9.03536 -2.5688 2.71871)
(-11.5437 0.306098 -0.311687)
(-11.0586 0.460181 -0.310434)
(-10.2232 0.354434 -0.392485)
(-9.61605 0.0596395 -0.407486)
(-9.3955 -0.0213798 -0.348652)
(-7.87434 -0.248781 -0.123992)
(-7.89526 0.00336312 0.163655)
(0.597003 -1.9987 0.606963)
(-11.8231 0.175758 -0.182521)
(-11.4772 0.252786 -0.0931731)
(-10.8312 0.202274 -0.0575806)
(-10.1974 0.0203395 -0.00244142)
(-9.89278 0.0614757 0.0859278)
(-8.02893 -0.0685634 0.271866)
(-7.7421 0.296678 0.468401)
(1.26513 -1.78487 0.724341)
(-13.1301 0.0867216 -0.199389)
(-12.999 0.108126 -0.119819)
(-12.6649 0.0961241 -0.0635395)
(-12.1154 0.00853486 -0.00208121)
(-11.786 0.152398 0.0741869)
(-9.69287 0.111545 0.208507)
(-9.08809 0.550152 0.338678)
(0.165986 -1.53239 0.49378)
(-13.4178 0.0719844 -0.081658)
(-13.2803 0.0745001 0.0255146)
(-12.9814 0.0817542 0.107692)
(-12.3856 0.039061 0.173838)
(-11.982 0.234149 0.23578)
(-9.7353 0.232243 0.321098)
(-8.99926 0.689678 0.387448)
(0.377423 -1.43544 0.458859)
(-13.838 0.0674051 -0.0548572)
(-13.7052 0.0645612 0.0279462)
(-13.4312 0.0852313 0.0957906)
(-12.8096 0.0701328 0.146126)
(-12.3583 0.297478 0.189188)
(-10.0116 0.319807 0.242171)
(-9.17816 0.784578 0.279379)
(0.289666 -1.36305 0.317473)
(-13.9592 0.0710877 -0.0163058)
(-13.8108 0.068923 0.0403188)
(-13.5252 0.0967707 0.0856032)
(-12.8736 0.0939708 0.117188)
(-12.3889 0.335906 0.142466)
(-9.98671 0.367603 0.170217)
(-9.11322 0.832577 0.187411)
(0.401806 -1.3343 0.202665)
(-14.0636 0.0720737 -0.00885949)
(-13.9125 0.0708863 0.00897065)
(-13.6241 0.102656 0.0240402)
(-12.9603 0.105874 0.0344762)
(-12.4586 0.354716 0.042959)
(-10.0297 0.391299 0.0520036)
(-9.12877 0.856454 0.0580842)
(0.406965 -1.31825 0.0630579)
(9.29327 -7.12099 -0.856622)
(8.48036 -5.31772 -0.646404)
(8.37535 -2.88129 -0.443079)
(8.3482 -1.39614 -0.291803)
(8.39881 -0.241404 -0.206788)
(8.43077 0.565365 -0.12805)
(8.46215 1.07707 -0.076094)
(8.47533 1.32249 -0.0231328)
(7.0089 -15.5883 -0.129794)
(5.89934 -15.1327 -0.0450315)
(5.5757 -14.1685 0.0520704)
(5.45047 -13.4885 0.0747881)
(5.419 -12.8998 0.0718498)
(5.39938 -12.4741 0.0583359)
(5.39662 -12.1944 0.0359544)
(5.39398 -12.0484 0.0132499)
(6.94578 -13.6389 0.409656)
(5.86003 -12.7334 0.406674)
(5.57926 -11.7086 0.383987)
(5.48492 -11.0375 0.314128)
(5.46926 -10.4393 0.247938)
(5.45887 -10.0451 0.174272)
(5.4604 -9.77242 0.104022)
(5.45898 -9.64767 0.0342851)
(7.86159 -14.3055 0.821456)
(6.71334 -13.5872 0.671459)
(6.46141 -12.8314 0.57035)
(6.33945 -12.3028 0.448412)
(6.32084 -11.7839 0.349223)
(6.30332 -11.4642 0.241246)
(6.3038 -11.2294 0.144749)
(6.30156 -11.1236 0.047159)
)
;
        pressure        uniform 0;
        secondOrder     false;
        setEffectiveTraction false;
        relaxationFactor 1;
        value           nonuniform List<vector> 
192
(
(8.75273e-08 5.96923e-08 2.92103e-08)
(1.02491e-07 3.72264e-08 5.76602e-08)
(1.06426e-07 1.61451e-08 7.42586e-08)
(1.0765e-07 7.93345e-10 8.75074e-08)
(1.10603e-07 -1.2272e-08 1.00645e-07)
(1.18069e-07 -2.58927e-08 1.15533e-07)
(1.32726e-07 -4.79969e-08 1.33355e-07)
(1.55146e-07 -1.07646e-07 1.51052e-07)
(6.86014e-08 3.16477e-08 2.94904e-09)
(7.94101e-08 1.57933e-08 1.94804e-08)
(8.16937e-08 9.7993e-10 3.48679e-08)
(8.21533e-08 -1.14501e-08 4.77009e-08)
(8.46003e-08 -2.30417e-08 5.96799e-08)
(9.1914e-08 -3.46973e-08 7.20648e-08)
(1.07463e-07 -5.16172e-08 8.42464e-08)
(1.33392e-07 -1.0062e-07 9.13744e-08)
(5.62776e-08 2.05828e-08 1.00035e-09)
(6.44509e-08 4.489e-09 1.21235e-08)
(6.60449e-08 -9.0747e-09 2.54702e-08)
(6.63621e-08 -1.9887e-08 3.78048e-08)
(6.87698e-08 -2.93851e-08 4.89786e-08)
(7.62761e-08 -3.7885e-08 5.91268e-08)
(9.24672e-08 -5.01427e-08 6.69179e-08)
(1.1933e-07 -9.34328e-08 6.91077e-08)
(4.98103e-08 1.64887e-08 1.98998e-09)
(5.65329e-08 -1.21007e-10 1.07405e-08)
(5.79742e-08 -1.40261e-08 2.15248e-08)
(5.84885e-08 -2.43305e-08 3.21366e-08)
(6.11242e-08 -3.23351e-08 4.16641e-08)
(6.88849e-08 -3.85922e-08 4.95107e-08)
(8.53138e-08 -4.84252e-08 5.4532e-08)
(1.12134e-07 -8.91941e-08 5.53016e-08)
(4.65974e-08 1.49029e-08 2.31064e-09)
(5.27753e-08 -1.74128e-09 9.24933e-09)
(5.43065e-08 -1.58867e-08 1.74379e-08)
(5.50973e-08 -2.60619e-08 2.56581e-08)
(5.80024e-08 -3.33331e-08 3.30075e-08)
(6.59499e-08 -3.85407e-08 3.87493e-08)
(8.23831e-08 -4.74646e-08 4.21216e-08)
(1.08896e-07 -8.70342e-08 4.26306e-08)
(4.49512e-08 1.4251e-08 1.96276e-09)
(5.0999e-08 -2.21779e-09 7.01576e-09)
(5.26781e-08 -1.63357e-08 1.27282e-08)
(5.3697e-08 -2.64393e-08 1.8451e-08)
(5.68046e-08 -3.345e-08 2.3547e-08)
(6.48555e-08 -3.83403e-08 2.74467e-08)
(8.12174e-08 -4.70408e-08 2.96947e-08)
(1.07437e-07 -8.59858e-08 3.01327e-08)
(4.40922e-08 1.39711e-08 1.2721e-09)
(5.01248e-08 -2.30753e-09 4.33346e-09)
(5.19178e-08 -1.63051e-08 7.6987e-09)
(5.30826e-08 -2.63451e-08 1.10446e-08)
(5.63105e-08 -3.32971e-08 1.40136e-08)
(6.44093e-08 -3.8163e-08 1.62746e-08)
(8.07026e-08 -4.68679e-08 1.75875e-08)
(1.06719e-07 -8.54942e-08 1.78969e-08)
(4.37139e-08 1.38626e-08 4.37037e-10)
(4.9747e-08 -2.30283e-09 1.46088e-09)
(5.15957e-08 -1.62147e-08 2.57145e-09)
(5.28286e-08 -2.62162e-08 3.66997e-09)
(5.61104e-08 -3.31657e-08 4.6429e-09)
(6.4227e-08 -3.80634e-08 5.38376e-09)
(8.04824e-08 -4.68043e-08 5.81763e-09)
(1.06398e-07 -8.52976e-08 5.92922e-09)
(2.93758e-08 6.39862e-08 9.17494e-08)
(4.85914e-08 4.36273e-08 1.17842e-07)
(5.14517e-08 2.31363e-08 1.3594e-07)
(5.08106e-08 7.32301e-09 1.51101e-07)
(5.15044e-08 -6.65796e-09 1.66443e-07)
(5.6085e-08 -2.168e-08 1.8402e-07)
(6.70973e-08 -4.58108e-08 2.05234e-07)
(8.28134e-08 -1.07471e-07 2.29581e-07)
(3.1318e-09 4.55256e-08 8.25472e-08)
(8.82164e-09 3.29054e-08 1.0791e-07)
(1.0273e-08 1.87683e-08 1.24789e-07)
(1.00916e-08 4.81581e-09 1.38873e-07)
(1.03531e-08 -9.92142e-09 1.533e-07)
(1.2214e-08 -2.62448e-08 1.70213e-07)
(1.64389e-08 -4.89478e-08 1.91871e-07)
(2.13045e-08 -1.03433e-07 2.19927e-07)
(-3.17044e-09 4.50723e-08 8.14953e-08)
(-7.83174e-09 3.23658e-08 1.06887e-07)
(-7.96289e-09 1.81731e-08 1.23777e-07)
(-6.40702e-09 4.17295e-09 1.37864e-07)
(-5.2652e-09 -1.06098e-08 1.52286e-07)
(-5.70462e-09 -2.6979e-08 1.69183e-07)
(-8.54224e-09 -4.97042e-08 1.90814e-07)
(-1.22066e-08 -1.03937e-07 2.18858e-07)
(-2.83997e-08 6.22375e-08 8.87946e-08)
(-4.62388e-08 4.18439e-08 1.14982e-07)
(-4.77899e-08 2.12982e-08 1.33088e-07)
(-4.57792e-08 5.37028e-09 1.48252e-07)
(-4.50538e-08 -8.73173e-09 1.63579e-07)
(-4.82004e-08 -2.38682e-08 1.81114e-07)
(-5.78119e-08 -4.80502e-08 2.02264e-07)
(-7.22302e-08 -1.09047e-07 2.26629e-07)
(-8.19438e-08 5.72572e-08 2.88313e-08)
(-9.54776e-08 3.47617e-08 5.72655e-08)
(-9.80395e-08 1.3605e-08 7.39967e-08)
(-9.78165e-08 -1.87767e-09 8.73477e-08)
(-9.92707e-08 -1.50672e-08 1.00536e-07)
(-1.05223e-07 -2.87863e-08 1.15429e-07)
(-1.18407e-07 -5.08965e-08 1.33214e-07)
(-1.39405e-07 -1.09833e-07 1.50838e-07)
(-6.30759e-08 2.95771e-08 3.10041e-09)
(-7.25897e-08 1.35251e-08 1.97561e-08)
(-7.35745e-08 -1.48368e-09 3.52609e-08)
(-7.26259e-08 -1.40959e-08 4.81894e-08)
(-7.35757e-08 -2.58361e-08 6.02221e-08)
(-7.93447e-08 -3.76092e-08 7.26173e-08)
(-9.33632e-08 -5.4562e-08 8.47726e-08)
(-1.17819e-07 -1.02889e-07 9.18627e-08)
(-5.09609e-08 1.86723e-08 1.14806e-09)
(-5.78914e-08 2.36257e-09 1.24191e-08)
(-5.82305e-08 -1.14461e-08 2.58612e-08)
(-5.71684e-08 -2.24849e-08 3.82667e-08)
(-5.80834e-08 -3.21661e-08 4.94834e-08)
(-6.40192e-08 -4.08126e-08 5.96439e-08)
(-7.8627e-08 -5.31286e-08 6.74227e-08)
(-1.03956e-07 -9.57527e-08 6.95962e-08)
(-4.46731e-08 1.46712e-08 2.09606e-09)
(-5.02181e-08 -2.15684e-09 1.09756e-08)
(-5.04458e-08 -1.63243e-08 2.18414e-08)
(-4.96066e-08 -2.6881e-08 3.25089e-08)
(-5.07566e-08 -3.5096e-08 4.20709e-08)
(-5.69325e-08 -4.15241e-08 4.99314e-08)
(-7.17403e-08 -5.1433e-08 5.49502e-08)
(-9.69781e-08 -9.15401e-08 5.57128e-08)
(-4.15849e-08 1.31513e-08 2.3831e-09)
(-4.66416e-08 -3.71281e-09 9.41976e-09)
(-4.69972e-08 -1.81298e-08 1.76742e-08)
(-4.64581e-08 -2.85727e-08 2.59393e-08)
(-4.78865e-08 -3.60726e-08 3.33171e-08)
(-5.42433e-08 -4.14686e-08 3.90728e-08)
(-6.90343e-08 -5.04805e-08 4.24475e-08)
(-9.39354e-08 -8.9392e-08 4.2954e-08)
(-4.0017e-08 1.25444e-08 2.0096e-09)
(-4.49832e-08 -4.14343e-09 7.12923e-09)
(-4.55162e-08 -1.85384e-08 1.28892e-08)
(-4.52249e-08 -2.89193e-08 1.86455e-08)
(-4.68651e-08 -3.61706e-08 2.37633e-08)
(-5.33247e-08 -4.12607e-08 2.7675e-08)
(-6.8034e-08 -5.00574e-08 2.99271e-08)
(-9.26252e-08 -8.83474e-08 3.03648e-08)
(-3.92035e-08 1.22919e-08 1.29842e-09)
(-4.41788e-08 -4.20361e-09 4.39809e-09)
(-4.48452e-08 -1.8481e-08 7.79164e-09)
(-4.47135e-08 -2.8804e-08 1.11582e-08)
(-4.64818e-08 -3.60036e-08 1.41413e-08)
(-5.29906e-08 -4.10763e-08 1.64103e-08)
(-6.76267e-08 -4.98826e-08 1.77266e-08)
(-9.20066e-08 -8.7856e-08 1.80363e-08)
(-3.8846e-08 1.21962e-08 4.4553e-10)
(-4.38332e-08 -4.1845e-09 1.48185e-09)
(-4.4565e-08 -1.83771e-08 2.6018e-09)
(-4.45086e-08 -2.86643e-08 3.7073e-09)
(-4.6335e-08 -3.58647e-08 4.68505e-09)
(-5.28627e-08 -4.09725e-08 5.42879e-09)
(-6.74593e-08 -4.98173e-08 5.86393e-09)
(-9.17348e-08 -8.76588e-08 5.9757e-09)
(8.31063e-08 -1.86533e-07 1.55914e-07)
(6.80153e-08 -1.72891e-07 9.42341e-08)
(5.75326e-08 -1.62389e-07 7.00608e-08)
(5.30817e-08 -1.55642e-07 5.52116e-08)
(5.17709e-08 -1.5165e-07 4.22504e-08)
(5.1532e-08 -1.49379e-07 2.98187e-08)
(5.15161e-08 -1.48153e-07 1.77259e-08)
(5.15142e-08 -1.47614e-07 5.87817e-09)
(2.15958e-08 -1.77447e-07 1.51317e-07)
(1.73416e-08 -1.60122e-07 9.68617e-08)
(1.36785e-08 -1.49205e-07 7.42173e-08)
(1.21775e-08 -1.43091e-07 5.80696e-08)
(1.19113e-08 -1.39769e-07 4.36943e-08)
(1.20109e-08 -1.37923e-07 3.04358e-08)
(1.21202e-08 -1.36909e-07 1.79618e-08)
(1.21704e-08 -1.36453e-07 5.93888e-09)
(-1.19e-08 -1.76966e-07 1.51226e-07)
(-7.63339e-09 -1.59651e-07 9.70238e-08)
(-4.13341e-09 -1.48757e-07 7.43635e-08)
(-2.82425e-09 -1.42657e-07 5.81816e-08)
(-2.72811e-09 -1.39341e-07 4.37775e-08)
(-2.9617e-09 -1.37497e-07 3.04938e-08)
(-3.16291e-09 -1.36484e-07 1.79961e-08)
(-3.25962e-09 -1.36027e-07 5.95028e-09)
(-7.19201e-08 -1.8535e-07 1.55698e-07)
(-5.69065e-08 -1.71682e-07 9.46795e-08)
(-4.65904e-08 -1.61233e-07 7.04695e-08)
(-4.23302e-08 -1.5452e-07 5.55359e-08)
(-4.11932e-08 -1.50544e-07 4.24975e-08)
(-4.1092e-08 -1.48279e-07 2.9993e-08)
(-4.11701e-08 -1.47054e-07 1.78298e-08)
(-4.12156e-08 -1.46516e-07 5.91269e-09)
)
;
        gradient        nonuniform List<vector> 
192
(
(4.69569e-06 1.52588e-06 -1.98564e-07)
(4.40224e-06 4.28164e-07 -3.29307e-07)
(4.49488e-06 4.47956e-08 -3.5559e-07)
(4.63577e-06 5.93474e-09 -3.57852e-07)
(4.80539e-06 1.11031e-07 -3.5785e-07)
(5.0252e-06 3.15233e-07 -3.56359e-07)
(5.31434e-06 5.30971e-07 -3.50055e-07)
(5.86758e-06 3.6235e-07 -3.38263e-07)
(3.88859e-06 1.06502e-06 -2.99306e-07)
(3.69222e-06 2.9787e-07 -4.88136e-07)
(3.74448e-06 1.54392e-08 -5.26645e-07)
(3.84992e-06 -6.07889e-09 -5.34411e-07)
(4.00134e-06 1.01456e-07 -5.40671e-07)
(4.22499e-06 3.16314e-07 -5.43869e-07)
(4.56516e-06 5.56304e-07 -5.34039e-07)
(5.31812e-06 3.74403e-07 -5.08229e-07)
(3.39287e-06 7.38482e-07 -1.7806e-07)
(3.31147e-06 2.00842e-07 -2.98714e-07)
(3.37088e-06 -1.47383e-09 -3.19636e-07)
(3.47026e-06 -8.09072e-09 -3.17561e-07)
(3.62126e-06 1.01572e-07 -3.14481e-07)
(3.85713e-06 3.21865e-07 -3.10576e-07)
(4.22968e-06 5.66611e-07 -3.04765e-07)
(5.03513e-06 3.81626e-07 -3.02337e-07)
(3.09749e-06 5.88288e-07 -7.64029e-08)
(3.0568e-06 1.56308e-07 -1.29227e-07)
(3.12536e-06 -3.40374e-09 -1.34055e-07)
(3.22687e-06 -9.23487e-10 -1.26019e-07)
(3.38109e-06 1.08442e-07 -1.17811e-07)
(3.62487e-06 3.26031e-07 -1.12132e-07)
(4.01223e-06 5.64543e-07 -1.12318e-07)
(4.82672e-06 3.84127e-07 -1.20253e-07)
(2.92404e-06 5.32876e-07 -2.85793e-08)
(2.89427e-06 1.43201e-07 -4.55787e-08)
(2.96796e-06 1.73823e-09 -4.27746e-08)
(3.07308e-06 8.15364e-09 -3.43284e-08)
(3.23104e-06 1.1546e-07 -2.6569e-08)
(3.4795e-06 3.27359e-07 -2.25602e-08)
(3.87216e-06 5.58492e-07 -2.55018e-08)
(4.68136e-06 3.83711e-07 -3.43032e-08)
(2.82305e-06 5.14147e-07 -1.08412e-08)
(2.79637e-06 1.4212e-07 -1.47934e-08)
(2.87272e-06 7.84931e-09 -1.05758e-08)
(2.98082e-06 1.5283e-08 -4.31476e-09)
(3.14174e-06 1.2021e-07 9.37036e-10)
(3.39272e-06 3.27099e-07 3.03759e-09)
(3.78648e-06 5.52802e-07 3.61982e-11)
(4.58817e-06 3.81927e-07 -6.58953e-09)
(2.76697e-06 5.07252e-07 -4.442e-09)
(2.74138e-06 1.43471e-07 -5.11829e-09)
(2.81913e-06 1.22188e-08 -2.22582e-09)
(2.92913e-06 1.96672e-08 1.35154e-09)
(3.09191e-06 1.22812e-07 4.15561e-09)
(3.34408e-06 3.26459e-07 5.05541e-09)
(3.73756e-06 5.48866e-07 3.09417e-09)
(4.53357e-06 3.80063e-07 -8.32003e-10)
(2.74183e-06 5.04593e-07 -1.28159e-09)
(2.71666e-06 1.44339e-07 -1.37907e-09)
(2.79502e-06 1.43203e-08 -4.14629e-10)
(2.90593e-06 2.16649e-08 7.22052e-10)
(3.06957e-06 1.23914e-07 1.58295e-09)
(3.3222e-06 3.26038e-07 1.82403e-09)
(3.71529e-06 5.46915e-07 1.162e-09)
(4.5084e-06 3.78948e-07 -1.26899e-10)
(4.35728e-08 1.86939e-06 4.80456e-06)
(9.02808e-08 9.40236e-07 4.48521e-06)
(9.69748e-08 6.04093e-07 4.57889e-06)
(8.86355e-08 5.28308e-07 4.72961e-06)
(7.74635e-08 5.60155e-07 4.90595e-06)
(6.65013e-08 6.52249e-07 5.12253e-06)
(6.40431e-08 7.05865e-07 5.40028e-06)
(8.09852e-08 3.76348e-07 5.94402e-06)
(-5.8486e-08 1.73917e-06 4.29142e-06)
(-7.73799e-08 9.15073e-07 3.9885e-06)
(-8.30236e-08 5.88152e-07 4.01051e-06)
(-9.18963e-08 5.07656e-07 4.11299e-06)
(-1.02781e-07 5.3876e-07 4.26081e-06)
(-1.12962e-07 6.42717e-07 4.46517e-06)
(-1.12472e-07 7.29377e-07 4.77562e-06)
(-9.00929e-08 3.9182e-07 5.52481e-06)
(4.89201e-08 1.73343e-06 4.21829e-06)
(6.70662e-08 9.15656e-07 3.91856e-06)
(7.5609e-08 5.89558e-07 3.93821e-06)
(8.66965e-08 5.08541e-07 4.03857e-06)
(9.86638e-08 5.3908e-07 4.18481e-06)
(1.08989e-07 6.42543e-07 4.38774e-06)
(1.07762e-07 7.28702e-07 4.69688e-06)
(8.38063e-08 3.91546e-07 5.44693e-06)
(-4.9029e-08 1.85507e-06 4.59565e-06)
(-9.54991e-08 9.41721e-07 4.28619e-06)
(-9.97316e-08 6.07765e-07 4.37227e-06)
(-8.95e-08 5.30702e-07 4.51682e-06)
(-7.73948e-08 5.61046e-07 4.68879e-06)
(-6.63543e-08 6.51804e-07 4.90157e-06)
(-6.4603e-08 7.04168e-07 5.17633e-06)
(-8.28671e-08 3.75667e-07 5.72603e-06)
(-4.33256e-06 1.45665e-06 -2.01416e-07)
(-4.03461e-06 3.75141e-07 -3.31103e-07)
(-4.1197e-06 -7.68362e-09 -3.55044e-07)
(-4.25249e-06 -4.91344e-08 -3.55559e-07)
(-4.41474e-06 5.42096e-08 -3.5471e-07)
(-4.6282e-06 2.58354e-07 -3.53209e-07)
(-4.91221e-06 4.76462e-07 -3.47663e-07)
(-5.45684e-06 3.12798e-07 -3.37207e-07)
(-3.53077e-06 9.96362e-07 -2.98235e-07)
(-3.33705e-06 2.46847e-07 -4.8485e-07)
(-3.38329e-06 -3.5148e-08 -5.21354e-07)
(-3.48056e-06 -5.99731e-08 -5.2769e-07)
(-3.62328e-06 4.49827e-08 -5.33244e-07)
(-3.83812e-06 2.59e-07 -5.3647e-07)
(-4.17027e-06 5.00715e-07 -5.27345e-07)
(-4.91324e-06 3.23458e-07 -5.02715e-07)
(-3.04685e-06 6.73564e-07 -1.75602e-07)
(-2.96709e-06 1.52013e-07 -2.93561e-07)
(-3.02038e-06 -5.05294e-08 -3.12707e-07)
(-3.11138e-06 -6.10279e-08 -3.09432e-07)
(-3.25272e-06 4.54266e-08 -3.05715e-07)
(-3.47774e-06 2.64251e-07 -3.01748e-07)
(-3.8392e-06 5.10217e-07 -2.96406e-07)
(-4.63179e-06 3.29687e-07 -2.94788e-07)
(-2.76094e-06 5.272e-07 -7.43008e-08)
(-2.72156e-06 1.09734e-07 -1.24581e-07)
(-2.78382e-06 -5.10242e-08 -1.27749e-07)
(-2.87674e-06 -5.29835e-08 -1.18616e-07)
(-3.02062e-06 5.26656e-08 -1.09792e-07)
(-3.25216e-06 2.6831e-07 -1.03945e-07)
(-3.62608e-06 5.07677e-07 -1.04356e-07)
(-4.42513e-06 3.3162e-07 -1.1275e-07)
(-2.59396e-06 4.74685e-07 -2.71385e-08)
(-2.56542e-06 9.85602e-08 -4.21817e-08)
(-2.63271e-06 -4.45684e-08 -3.79748e-08)
(-2.72902e-06 -4.30725e-08 -2.85558e-08)
(-2.87614e-06 6.00981e-08 -2.02121e-08)
(-3.11145e-06 2.69688e-07 -1.59664e-08)
(-3.48922e-06 5.01413e-07 -1.89566e-08)
(-4.2812e-06 3.30922e-07 -2.79708e-08)
(-2.497e-06 4.5788e-07 -9.95035e-09)
(-2.4715e-06 9.88951e-08 -1.2604e-08)
(-2.54136e-06 -3.74004e-08 -7.36568e-09)
(-2.64044e-06 -3.52217e-08 -3.45418e-10)
(-2.79016e-06 6.5255e-08 5.3953e-09)
(-3.02742e-06 2.69566e-07 7.73654e-09)
(-3.40542e-06 4.95673e-07 4.77682e-09)
(-4.1888e-06 3.29034e-07 -1.92012e-09)
(-2.44325e-06 4.52131e-07 -3.96198e-09)
(-2.41881e-06 1.01143e-07 -3.91304e-09)
(-2.49001e-06 -3.23111e-08 -4.15222e-10)
(-2.59085e-06 -3.0312e-08 3.63859e-09)
(-2.7422e-06 6.81801e-08 6.76693e-09)
(-2.9803e-06 2.6907e-07 7.84333e-09)