/*--------------------------------*- C++ -*----------------------------------*\
| =========                 |                                                 |
| \\      /  F ield         | OpenFOAM: The Open Source CFD Toolbox           |
|  \\    /   O peration     | Version:  v1912                                 |
|   \\  /    A nd           | Website:  www.openfoam.com                      |
|    \\/     M anipulation  |                                                 |
\*---------------------------------------------------------------------------*/
FoamFile
{
    version     2.0;
    format      ascii;
    class       volVectorField;
    location    "0.8/solid";
    object      D_0_0;
}
// * * * * * * * * * * * * * * * * * * * * * * * * * * * * * * * * * * * * * //

dimensions      [0 1 0 0 0 0 0];


internalField   nonuniform List<vector> 
256
(
(2.84117e-08 4.01747e-08 3.11705e-08)
(3.76339e-09 2.34994e-08 2.84025e-08)
(-3.65171e-09 2.31298e-08 2.82799e-08)
(-2.73751e-08 3.86463e-08 3.08728e-08)
(4.66759e-08 3.14831e-08 6.05437e-08)
(9.58485e-09 2.1219e-08 5.68543e-08)
(-8.39633e-09 2.06768e-08 5.67365e-08)
(-4.42428e-08 2.96893e-08 6.02656e-08)
(4.93693e-08 1.55304e-08 7.69606e-08)
(1.10913e-08 1.14267e-08 7.29619e-08)
(-8.57409e-09 1.08063e-08 7.28937e-08)
(-4.56142e-08 1.36153e-08 7.68142e-08)
(4.88498e-08 1.05613e-09 8.9811e-08)
(1.10494e-08 -1.16548e-09 8.5357e-08)
(-7.1258e-09 -1.83935e-09 8.53255e-08)
(-4.369e-08 -9.92921e-10 8.97652e-08)
(4.96919e-08 -1.2895e-08 1.02534e-07)
(1.14775e-08 -1.58594e-08 9.75421e-08)
(-6.08837e-09 -1.65833e-08 9.75305e-08)
(-4.30501e-08 -1.50794e-08 1.02544e-07)
(5.43378e-08 -2.8546e-08 1.16957e-07)
(1.34693e-08 -3.29488e-08 1.11472e-07)
(-6.56745e-09 -3.3724e-08 1.11468e-07)
(-4.61711e-08 -3.08614e-08 1.16989e-07)
(6.51924e-08 -5.25897e-08 1.34227e-07)
(1.76553e-08 -5.60114e-08 1.28772e-07)
(-9.2436e-09 -5.68159e-08 1.28763e-07)
(-5.55067e-08 -5.49792e-08 1.34248e-07)
(8.05011e-08 -1.09126e-07 1.51421e-07)
(2.22141e-08 -1.05356e-07 1.47072e-07)
(-1.24438e-08 -1.05933e-07 1.47044e-07)
(-6.93733e-08 -1.10926e-07 1.51399e-07)
(1.9716e-08 1.81727e-08 6.46244e-09)
(1.95312e-09 4.49122e-09 7.85909e-09)
(-1.81257e-09 4.24806e-09 7.91433e-09)
(-1.86839e-08 1.69841e-08 6.62032e-09)
(3.27197e-08 1.20662e-08 2.48724e-08)
(6.06894e-09 3.48447e-09 2.75975e-08)
(-4.86676e-09 2.99933e-09 2.76976e-08)
(-3.03584e-08 1.04314e-08 2.51609e-08)
(3.42953e-08 1.09302e-09 4.02958e-08)
(7.14782e-09 -2.44846e-09 4.34566e-08)
(-4.66491e-09 -3.05524e-09 4.35974e-08)
(-3.06838e-08 -7.75627e-10 4.07008e-08)
(3.3461e-08 -1.07124e-08 5.28256e-08)
(7.04474e-09 -1.27487e-08 5.60138e-08)
(-3.20221e-09 -1.34227e-08 5.61888e-08)
(-2.84981e-08 -1.27538e-08 5.33265e-08)
(3.40273e-08 -2.32556e-08 6.45009e-08)
(7.43106e-09 -2.61567e-08 6.75651e-08)
(-2.15721e-09 -2.68838e-08 6.77618e-08)
(-2.76127e-08 -2.54448e-08 6.50623e-08)
(3.84708e-08 -3.71389e-08 7.65466e-08)
(9.38568e-09 -4.15865e-08 7.94558e-08)
(-2.61865e-09 -4.23662e-08 7.96621e-08)
(-3.054e-08 -3.94668e-08 7.71332e-08)
(4.95531e-08 -5.64334e-08 8.82615e-08)
(1.36165e-08 -5.9818e-08 9.11085e-08)
(-5.34362e-09 -6.06324e-08 9.13139e-08)
(-4.00928e-08 -5.8851e-08 8.88433e-08)
(6.58226e-08 -1.0232e-07 9.48725e-08)
(1.82729e-08 -9.74649e-08 9.77642e-08)
(-8.62704e-09 -9.80646e-08 9.79647e-08)
(-5.48955e-08 -1.04174e-07 9.54375e-08)
(1.37132e-08 1.12997e-08 3.11247e-09)
(3.64014e-10 -1.08654e-10 5.00146e-09)
(-2.63036e-10 -3.16958e-10 5.04689e-09)
(-1.27492e-08 1.02249e-08 3.24245e-09)
(2.27482e-08 2.17049e-09 1.54136e-08)
(2.85079e-09 -4.90648e-09 1.89863e-08)
(-1.76073e-09 -5.35275e-09 1.90788e-08)
(-2.05345e-08 6.52464e-10 1.56811e-08)
(2.35704e-08 -8.53705e-09 2.86541e-08)
(3.51236e-09 -1.15496e-08 3.27598e-08)
(-1.19738e-09 -1.21308e-08 3.28836e-08)
(-2.01656e-08 -1.03282e-08 2.90138e-08)
(2.2671e-08 -1.89295e-08 4.06045e-08)
(3.36856e-09 -2.08638e-08 4.48127e-08)
(2.63707e-10 -2.15246e-08 4.49612e-08)
(-1.79585e-08 -2.0929e-08 4.10358e-08)
(2.32011e-08 -2.94529e-08 5.14035e-08)
(3.73856e-09 -3.23882e-08 5.55823e-08)
(1.29466e-09 -3.31104e-08 5.57482e-08)
(-1.7064e-08 -3.16257e-08 5.18837e-08)
(2.76777e-08 -4.03312e-08 6.12014e-08)
(5.6806e-09 -4.48605e-08 6.53111e-08)
(8.27211e-10 -4.56414e-08 6.5486e-08)
(-2.0034e-08 -4.26626e-08 6.17057e-08)
(3.89806e-08 -5.5145e-08 6.86965e-08)
(9.948e-09 -5.86012e-08 7.27256e-08)
(-1.94179e-09 -5.94227e-08 7.29028e-08)
(-2.9801e-08 -5.75835e-08 6.92043e-08)
(5.55017e-08 -9.54084e-08 7.07891e-08)
(1.4657e-08 -9.05456e-08 7.47707e-08)
(-5.27496e-09 -9.11559e-08 7.49482e-08)
(-4.48384e-08 -9.72891e-08 7.12933e-08)
(1.10003e-08 9.12726e-09 2.85838e-09)
(-3.09233e-10 -9.55087e-10 4.07609e-09)
(3.76372e-10 -1.15416e-09 4.10597e-09)
(-1.01016e-08 8.10057e-09 2.94763e-09)
(1.81288e-08 -1.80386e-09 1.20194e-08)
(1.36518e-09 -7.97645e-09 1.43389e-08)
(-3.83559e-10 -8.40259e-09 1.44071e-08)
(-1.60592e-08 -3.25291e-09 1.22222e-08)
(1.86941e-08 -1.33705e-08 2.25718e-08)
(1.82871e-09 -1.60658e-08 2.52306e-08)
(3.19658e-10 -1.66264e-08 2.53238e-08)
(-1.5487e-08 -1.50982e-08 2.28495e-08)
(1.79593e-08 -2.33792e-08 3.27866e-08)
(1.71969e-09 -2.52813e-08 3.54854e-08)
(1.70517e-09 -2.5927e-08 3.5597e-08)
(-1.3483e-08 -2.53333e-08 3.31189e-08)
(1.86682e-08 -3.24435e-08 4.19368e-08)
(2.14304e-09 -3.54333e-08 4.45888e-08)
(2.65524e-09 -3.6147e-08 4.47135e-08)
(-1.27921e-08 -3.4591e-08 4.23073e-08)
(2.32917e-08 -4.11065e-08 4.94855e-08)
(4.11286e-09 -4.57109e-08 5.20759e-08)
(2.14299e-09 -4.64891e-08 5.22087e-08)
(-1.59204e-08 -4.34307e-08 4.98781e-08)
(3.46415e-08 -5.34916e-08 5.43685e-08)
(8.36591e-09 -5.71088e-08 5.69107e-08)
(-6.20749e-10 -5.79317e-08 5.70469e-08)
(-2.57336e-08 -5.59354e-08 5.47689e-08)
(5.10043e-08 -9.13554e-08 5.52243e-08)
(1.3044e-08 -8.69773e-08 5.78073e-08)
(-3.92632e-09 -8.75909e-08 5.79445e-08)
(-4.06045e-08 -9.32445e-08 5.56249e-08)
(9.97804e-09 8.25068e-09 2.59421e-09)
(-4.71598e-10 -1.16583e-09 3.20675e-09)
(5.16712e-10 -1.35975e-09 3.22682e-09)
(-9.12573e-09 7.25611e-09 2.65535e-09)
(1.64429e-08 -3.23668e-09 9.5537e-09)
(9.4721e-10 -8.97313e-09 1.07126e-08)
(-4.46608e-11 -9.38703e-09 1.07611e-08)
(-1.44829e-08 -4.63959e-09 9.69965e-09)
(1.70332e-08 -1.52705e-08 1.74861e-08)
(1.3743e-09 -1.7836e-08 1.87947e-08)
(6.45087e-10 -1.83822e-08 1.88626e-08)
(-1.39822e-08 -1.69517e-08 1.76904e-08)
(1.6521e-08 -2.52089e-08 2.53746e-08)
(1.33072e-09 -2.71301e-08 2.66695e-08)
(1.92838e-09 -2.77634e-08 2.67512e-08)
(-1.22348e-08 -2.7125e-08 2.56209e-08)
(1.74426e-08 -3.35383e-08 3.24204e-08)
(1.82244e-09 -3.65815e-08 3.36588e-08)
(2.78505e-09 -3.72866e-08 3.37504e-08)
(-1.17792e-08 -3.56606e-08 3.26966e-08)
(2.21874e-08 -4.11147e-08 3.79505e-08)
(3.81942e-09 -4.57694e-08 3.91419e-08)
(2.22972e-09 -4.6543e-08 3.924e-08)
(-1.50412e-08 -4.34262e-08 3.82455e-08)
(3.34753e-08 -5.25325e-08 4.12705e-08)
(8.03093e-09 -5.62778e-08 4.24504e-08)
(-5.02148e-10 -5.7099e-08 4.2552e-08)
(-2.47959e-08 -5.49727e-08 4.15742e-08)
(4.96022e-08 -8.92955e-08 4.18915e-08)
(1.26549e-08 -8.53516e-08 4.31428e-08)
(-3.75911e-09 -8.59651e-08 4.32452e-08)
(-3.94292e-08 -9.11845e-08 4.21964e-08)
(9.60052e-09 7.83841e-09 2.0411e-09)
(-4.73115e-10 -1.25828e-09 2.31802e-09)
(5.04456e-10 -1.44835e-09 2.33122e-09)
(-8.77782e-09 6.86641e-09 2.08124e-09)
(1.58993e-08 -3.69821e-09 7.00594e-09)
(9.05642e-10 -9.25093e-09 7.51539e-09)
(-5.58075e-11 -9.65633e-09 7.54799e-09)
(-1.40128e-08 -5.06857e-09 7.10389e-09)
(1.65997e-08 -1.5801e-08 1.25114e-08)
(1.35711e-09 -1.83361e-08 1.3067e-08)
(5.72227e-10 -1.88723e-08 1.31133e-08)
(-1.36574e-08 -1.7449e-08 1.26507e-08)
(1.6271e-08 -2.56899e-08 1.79994e-08)
(1.37164e-09 -2.76479e-08 1.85243e-08)
(1.76784e-09 -2.82721e-08 1.85805e-08)
(-1.21208e-08 -2.75774e-08 1.81691e-08)
(1.73503e-08 -3.37428e-08 2.28884e-08)
(1.91384e-09 -3.68266e-08 2.33679e-08)
(2.55294e-09 -3.75248e-08 2.34312e-08)
(-1.18424e-08 -3.58441e-08 2.30801e-08)
(2.21627e-08 -4.09542e-08 2.66549e-08)
(3.92431e-09 -4.5633e-08 2.71071e-08)
(1.97013e-09 -4.6402e-08 2.71753e-08)
(-1.51836e-08 -4.32528e-08 2.68611e-08)
(3.33669e-08 -5.20936e-08 2.8885e-08)
(8.09483e-09 -5.59023e-08 2.93448e-08)
(-7.29766e-10 -5.67209e-08 2.94156e-08)
(-2.48601e-08 -5.45271e-08 2.90986e-08)
(4.92993e-08 -8.82934e-08 2.94099e-08)
(1.26716e-08 -8.46042e-08 2.99292e-08)
(-3.94543e-09 -8.52163e-08 3.00006e-08)
(-3.93003e-08 -9.01789e-08 2.96247e-08)
(9.44405e-09 7.64597e-09 1.29149e-09)
(-4.52587e-10 -1.29741e-09 1.40779e-09)
(4.7592e-10 -1.48493e-09 1.41537e-09)
(-8.63861e-09 6.6881e-09 1.31433e-09)
(1.57129e-08 -3.80966e-09 4.27825e-09)
(9.33692e-10 -9.29003e-09 4.48376e-09)
(-1.15684e-10 -9.68985e-09 4.50261e-09)
(-1.38703e-08 -5.15891e-09 4.33454e-09)
(1.65057e-08 -1.58373e-08 7.51636e-09)
(1.41326e-09 -1.83758e-08 7.72989e-09)
(4.60027e-10 -1.89055e-08 7.75686e-09)
(-1.36304e-08 -1.74636e-08 7.59718e-09)
(1.62938e-08 -2.56702e-08 1.07261e-08)
(1.46522e-09 -2.76593e-08 1.09155e-08)
(1.59784e-09 -2.82775e-08 1.09485e-08)
(-1.22298e-08 -2.75386e-08 1.08254e-08)
(1.74655e-08 -3.36491e-08 1.35785e-08)
(2.03589e-09 -3.67577e-08 1.3741e-08)
(2.33922e-09 -3.7451e-08 1.37783e-08)
(-1.20578e-08 -3.57356e-08 1.36913e-08)
(2.23083e-08 -4.08012e-08 1.57674e-08)
(4.05045e-09 -4.54873e-08 1.59176e-08)
(1.74182e-09 -4.62529e-08 1.59579e-08)
(-1.54385e-08 -4.30898e-08 1.58894e-08)
(3.34488e-08 -5.19077e-08 1.70742e-08)
(8.1924e-09 -5.5737e-08 1.72348e-08)
(-9.36526e-10 -5.65534e-08 1.72768e-08)
(-2.50561e-08 -5.43351e-08 1.72012e-08)
(4.92525e-08 -8.78207e-08 1.74355e-08)
(1.2737e-08 -8.42499e-08 1.76318e-08)
(-4.12475e-09 -8.48606e-08 1.76741e-08)
(-3.937e-08 -8.97022e-08 1.75633e-08)
(9.38028e-09 7.57066e-09 4.40715e-10)
(-4.41502e-10 -1.30888e-09 4.72906e-10)
(4.61168e-10 -1.49513e-09 4.75379e-10)
(-8.58279e-09 6.61954e-09 4.48132e-10)
(1.56433e-08 -3.81963e-09 1.438e-09)
(9.51564e-10 -9.27451e-09 1.49325e-09)
(-1.48458e-10 -9.67155e-09 1.49943e-09)
(-1.38212e-08 -5.15852e-09 1.45636e-09)
(1.64823e-08 -1.57815e-08 2.50646e-09)
(1.44577e-09 -1.83264e-08 2.56182e-09)
(4.00795e-10 -1.88529e-08 2.57068e-09)
(-1.36387e-08 -1.73969e-08 2.53294e-09)
(1.63248e-08 -2.55786e-08 3.56079e-09)
(1.51494e-09 -2.7584e-08 3.60751e-09)
(1.5111e-09 -2.81992e-08 3.61837e-09)
(-1.23021e-08 -2.74373e-08 3.59343e-09)
(1.75372e-08 -3.35467e-08 4.49634e-09)
(2.09768e-09 -3.66664e-08 4.5344e-09)
(2.23245e-09 -3.73573e-08 4.54674e-09)
(-1.21783e-08 -3.56256e-08 4.53357e-09)
(2.23909e-08 -4.07132e-08 5.21447e-09)
(4.11281e-09 -4.54001e-08 5.2492e-09)
(1.62883e-09 -4.61639e-08 5.26256e-09)
(-1.55748e-08 -4.29964e-08 5.25485e-09)
(3.34989e-08 -5.18376e-08 5.64674e-09)
(8.24071e-09 -5.56704e-08 5.68584e-09)
(-1.0393e-09 -5.64855e-08 5.69978e-09)
(-2.51628e-08 -5.42615e-08 5.68887e-09)
(4.92398e-08 -8.76305e-08 5.77544e-09)
(1.27692e-08 -8.41027e-08 5.82617e-09)
(-4.21411e-09 -8.47125e-08 5.84021e-09)
(-3.94155e-08 -8.95095e-08 5.81787e-09)
)
;

boundaryField
{
    interface
    {
        type            solidTraction;
        traction        uniform (0 0 0);
        pressure        uniform 0;
        secondOrder     false;
        setEffectiveTraction false;
        relaxationFactor 1;
        value           nonuniform List<vector> 
192
(
(8.70193e-08 5.89466e-08 2.87322e-08)
(1.0161e-07 3.67224e-08 5.65049e-08)
(1.05455e-07 1.60739e-08 7.26004e-08)
(1.06689e-07 1.13685e-09 8.54217e-08)
(1.09649e-07 -1.15229e-08 9.81419e-08)
(1.1705e-07 -2.46706e-08 1.1258e-07)
(1.3152e-07 -4.60485e-08 1.29921e-07)
(1.53731e-07 -1.04649e-07 1.47251e-07)
(6.82823e-08 3.12815e-08 2.7876e-09)
(7.88177e-08 1.5711e-08 1.88901e-08)
(8.10436e-08 1.27832e-09 3.38457e-08)
(8.15255e-08 -1.07794e-08 4.62805e-08)
(8.3986e-08 -2.2003e-08 5.78778e-08)
(9.12321e-08 -3.32572e-08 6.98812e-08)
(1.06558e-07 -4.95951e-08 8.17081e-08)
(1.32195e-07 -9.77041e-08 8.86223e-08)
(5.61111e-08 2.0415e-08 9.33371e-10)
(6.41094e-08 4.63476e-09 1.17656e-08)
(6.56698e-08 -8.55636e-09 2.47535e-08)
(6.60104e-08 -1.90217e-08 3.67287e-08)
(6.84276e-08 -2.82011e-08 4.75634e-08)
(7.58548e-08 -3.6386e-08 5.74063e-08)
(9.17986e-08 -4.81886e-08 6.49684e-08)
(1.18333e-07 -9.07097e-08 6.70843e-08)
(4.97184e-08 1.64095e-08 1.92449e-09)
(5.63134e-08 1.19564e-10 1.04429e-08)
(5.7729e-08 -1.34129e-08 2.09373e-08)
(5.82594e-08 -2.33856e-08 3.12489e-08)
(6.08932e-08 -3.11102e-08 4.0497e-08)
(6.85617e-08 -3.71129e-08 4.81128e-08)
(8.4732e-08 -4.65631e-08 5.2992e-08)
(1.1122e-07 -8.66288e-08 5.37493e-08)
(4.65349e-08 1.48559e-08 2.2442e-09)
(5.26017e-08 -1.47292e-09 8.99619e-09)
(5.41052e-08 -1.52509e-08 1.69624e-08)
(5.4902e-08 -2.51065e-08 2.49524e-08)
(5.77932e-08 -3.21216e-08 3.20908e-08)
(6.56387e-08 -3.71062e-08 3.76681e-08)
(8.18103e-08 -4.56784e-08 4.09517e-08)
(1.07997e-07 -8.4575e-08 4.14651e-08)
(4.48985e-08 1.42133e-08 1.90756e-09)
(5.08381e-08 -1.94843e-09 6.82335e-09)
(5.24843e-08 -1.5708e-08 1.23794e-08)
(5.35007e-08 -2.55022e-08 1.79425e-08)
(5.65852e-08 -3.22697e-08 2.28941e-08)
(6.4528e-08 -3.69497e-08 2.66851e-08)
(8.06282e-08 -4.5309e-08 2.88783e-08)
(1.06527e-07 -8.35953e-08 2.93224e-08)
(4.40423e-08 1.39352e-08 1.2364e-09)
(4.9966e-08 -2.04426e-09 4.2142e-09)
(5.17218e-08 -1.5692e-08 7.48695e-09)
(5.28782e-08 -2.54301e-08 1.07395e-08)
(5.60774e-08 -3.21453e-08 1.36252e-08)
(6.40646e-08 -3.6805e-08 1.58245e-08)
(8.00966e-08 -4.51712e-08 1.71071e-08)
(1.05797e-07 -8.31457e-08 1.74206e-08)
(4.36646e-08 1.38265e-08 4.24766e-10)
(4.95881e-08 -2.04414e-09 1.4206e-09)
(5.13974e-08 -1.56111e-08 2.50059e-09)
(5.26191e-08 -2.53147e-08 3.5685e-09)
(5.58696e-08 -3.203e-08 4.51425e-09)
(6.38728e-08 -3.67225e-08 5.23511e-09)
(7.98673e-08 -4.51249e-08 5.65925e-09)
(1.05469e-07 -8.29694e-08 5.77223e-09)
(2.89394e-08 6.31034e-08 9.11919e-08)
(4.7774e-08 4.29308e-08 1.16575e-07)
(5.05509e-08 2.28474e-08 1.34157e-07)
(4.99322e-08 7.44949e-09 1.48882e-07)
(5.06412e-08 -6.10849e-09 1.63806e-07)
(5.51564e-08 -2.06225e-08 1.80947e-07)
(6.59831e-08 -4.39734e-08 2.01699e-07)
(8.15002e-08 -1.04529e-07 2.25688e-07)
(3.0411e-09 4.48137e-08 8.20349e-08)
(8.63375e-09 3.2359e-08 1.0671e-07)
(1.00754e-08 1.85525e-08 1.23099e-07)
(9.92883e-09 4.97966e-09 1.36776e-07)
(1.02276e-08 -9.33056e-09 1.50815e-07)
(1.2098e-08 -2.51412e-08 1.67316e-07)
(1.62903e-08 -4.71114e-08 1.88503e-07)
(2.1121e-08 -1.00571e-07 2.16134e-07)
(-3.03379e-09 4.43839e-08 8.10175e-08)
(-7.54281e-09 3.18303e-08 1.05734e-07)
(-7.61018e-09 1.79536e-08 1.22143e-07)
(-6.02289e-09 4.31992e-09 1.35832e-07)
(-4.83691e-09 -1.00477e-08 1.49871e-07)
(-5.18728e-09 -2.59159e-08 1.66362e-07)
(-7.87358e-09 -4.79219e-08 1.87529e-07)
(-1.1361e-08 -1.0115e-07 2.15153e-07)
(-2.79588e-08 6.1431e-08 8.8341e-08)
(-4.53793e-08 4.11747e-08 1.13862e-07)
(-4.67943e-08 2.09903e-08 1.31483e-07)
(-4.47405e-08 5.43967e-09 1.46233e-07)
(-4.39501e-08 -8.27347e-09 1.61161e-07)
(-4.69342e-08 -2.29355e-08 1.78277e-07)
(-5.62455e-08 -4.63769e-08 1.98982e-07)
(-7.03327e-08 -1.06334e-07 2.23003e-07)
(-8.15635e-08 5.65509e-08 2.84083e-08)
(-9.47009e-08 3.42492e-08 5.62265e-08)
(-9.71322e-08 1.34772e-08 7.24918e-08)
(-9.68631e-08 -1.63391e-09 8.54422e-08)
(-9.8252e-08 -1.44592e-08 9.82354e-08)
(-1.04052e-07 -2.77473e-08 1.127e-07)
(-1.16944e-07 -4.91787e-08 1.30026e-07)
(-1.37616e-07 -1.07137e-07 1.473e-07)
(-6.28889e-08 2.92447e-08 2.9638e-09)
(-7.21267e-08 1.34315e-08 1.92338e-08)
(-7.30286e-08 -1.24066e-09 3.43386e-08)
(-7.2059e-08 -1.35216e-08 4.68936e-08)
(-7.29616e-08 -2.49343e-08 5.85657e-08)
(-7.85845e-08 -3.63468e-08 7.05989e-08)
(-9.22867e-08 -5.27621e-08 8.24169e-08)
(-1.16345e-07 -1.00259e-07 8.93039e-08)
(-5.09297e-08 1.85458e-08 1.09685e-09)
(-5.76965e-08 2.50658e-09 1.21063e-08)
(-5.799e-08 -1.09722e-08 2.52146e-08)
(-5.69202e-08 -2.17044e-08 3.72821e-08)
(-5.77945e-08 -3.11068e-08 4.81786e-08)
(-6.35828e-08 -3.94784e-08 5.80509e-08)
(-7.78584e-08 -5.13824e-08 6.56146e-08)
(-1.02762e-07 -9.32999e-08 6.77207e-08)
(-4.47192e-08 1.46408e-08 2.04172e-09)
(-5.01571e-08 -1.90653e-09 1.07093e-08)
(-5.03573e-08 -1.57422e-08 2.13036e-08)
(-4.95129e-08 -2.6007e-08 3.16879e-08)
(-5.06201e-08 -3.39817e-08 4.09862e-08)
(-5.66439e-08 -4.01953e-08 4.863e-08)
(-7.11162e-08 -4.97643e-08 5.35177e-08)
(-9.59321e-08 -8.92309e-08 5.42727e-08)
(-4.16624e-08 1.31583e-08 2.3244e-09)
(-4.66341e-08 -3.42547e-09 9.18806e-09)
(-4.69671e-08 -1.75137e-08 1.7233e-08)
(-4.64202e-08 -2.76758e-08 2.52804e-08)
(-4.78013e-08 -3.49589e-08 3.24592e-08)
(-5.40032e-08 -4.0172e-08 3.80614e-08)
(-6.84623e-08 -4.88756e-08 4.13559e-08)
(-9.29528e-08 -8.71777e-08 4.18704e-08)
(-4.01056e-08 1.25641e-08 1.95946e-09)
(-4.49932e-08 -3.84867e-09 6.95074e-09)
(-4.55031e-08 -1.7922e-08 1.25628e-08)
(-4.52005e-08 -2.80312e-08 1.81678e-08)
(-4.67899e-08 -3.50783e-08 2.31497e-08)
(-5.30936e-08 -3.99984e-08 2.69604e-08)
(-6.74758e-08 -4.84978e-08 2.91637e-08)
(-9.1667e-08 -8.61936e-08 2.961e-08)
(-3.92955e-08 1.23153e-08 1.26557e-09)
(-4.41938e-08 -3.91095e-09 4.28666e-09)
(-4.48354e-08 -1.78737e-08 7.59253e-09)
(-4.46899e-08 -2.79317e-08 1.08707e-08)
(-4.64052e-08 -3.49334e-08 1.37753e-08)
(-5.27582e-08 -3.98401e-08 1.59872e-08)
(-6.7071e-08 -4.83521e-08 1.72769e-08)
(-9.1058e-08 -8.57388e-08 1.75922e-08)
(-3.8939e-08 1.22206e-08 4.34176e-10)
(-4.38494e-08 -3.89453e-09 1.44409e-09)
(-4.45555e-08 -1.77767e-08 2.53502e-09)
(-4.4484e-08 -2.78024e-08 3.61152e-09)
(-4.62565e-08 -3.48074e-08 4.5637e-09)
(-5.26285e-08 -3.97503e-08 5.28895e-09)
(-6.69038e-08 -4.83012e-08 5.71556e-09)
(-9.07901e-08 -8.55591e-08 5.82925e-09)
(8.17983e-08 -1.83448e-07 1.52018e-07)
(6.69182e-08 -1.69876e-07 9.1443e-08)
(5.66367e-08 -1.59547e-07 6.80479e-08)
(5.22744e-08 -1.52939e-07 5.3696e-08)
(5.09779e-08 -1.49047e-07 4.11259e-08)
(5.07274e-08 -1.46842e-07 2.90412e-08)
(5.06987e-08 -1.45658e-07 1.72698e-08)
(5.06898e-08 -1.45139e-07 5.7279e-09)
(2.1417e-08 -1.74472e-07 1.47491e-07)
(1.721e-08 -1.57285e-07 9.40617e-08)
(1.35947e-08 -1.46551e-07 7.21488e-08)
(1.21037e-08 -1.40556e-07 5.65088e-08)
(1.18232e-08 -1.37313e-07 4.25495e-08)
(1.19032e-08 -1.35519e-07 2.96537e-08)
(1.19978e-08 -1.34539e-07 1.75064e-08)
(1.20406e-08 -1.341e-07 5.78937e-09)
(-1.10502e-08 -1.74088e-07 1.47468e-07)
(-6.94874e-09 -1.56907e-07 9.42705e-08)
(-3.58817e-09 -1.46191e-07 7.23298e-08)
(-2.35861e-09 -1.40206e-07 5.66469e-08)
(-2.29997e-09 -1.36967e-07 4.26516e-08)
(-2.55084e-09 -1.35173e-07 2.97245e-08)
(-2.76078e-09 -1.34193e-07 1.75482e-08)
(-2.86149e-09 -1.33752e-07 5.80319e-09)
(-7.00181e-08 -1.8256e-07 1.52007e-07)
(-5.53244e-08 -1.68951e-07 9.20285e-08)
(-4.52986e-08 -1.58663e-07 6.8561e-08)
(-4.11968e-08 -1.52079e-07 5.40988e-08)
(-4.01267e-08 -1.48194e-07 4.143e-08)
(-4.00512e-08 -1.4599e-07 2.92542e-08)
(-4.01403e-08 -1.44803e-07 1.7396e-08)
(-4.01904e-08 -1.44283e-07 5.76973e-09)
)
;
        gradient        uniform (0 0 0);
    }
    symmetry
    {
        type            solidSymmetry;
        patchType       symmetry;
        secondOrder     false;
        value           nonuniform List<vector> 
32
(
(9.38028e-09 7.57066e-09 0)
(1.56433e-08 -3.81963e-09 0)
(1.64823e-08 -1.57815e-08 0)
(1.63248e-08 -2.55786e-08 0)
(1.75372e-08 -3.35467e-08 0)
(2.23909e-08 -4.07132e-08 0)
(3.34989e-08 -5.18376e-08 0)
(4.92398e-08 -8.76305e-08 0)
(-4.41502e-10 -1.30888e-09 0)
(9.51564e-10 -9.27451e-09 0)
(1.44577e-09 -1.83264e-08 0)
(1.51494e-09 -2.7584e-08 0)
(2.09768e-09 -3.66664e-08 0)
(4.11281e-09 -4.54001e-08 0)
(8.24071e-09 -5.56704e-08 0)
(1.27692e-08 -8.41027e-08 0)
(4.61168e-10 -1.49513e-09 0)
(-1.48458e-10 -9.67155e-09 0)
(4.00795e-10 -1.88529e-08 0)
(1.5111e-09 -2.81992e-08 0)
(2.23245e-09 -3.73573e-08 0)
(1.62883e-09 -4.61639e-08 0)
(-1.0393e-09 -5.64855e-08 0)
(-4.21411e-09 -8.47125e-08 0)
(-8.58279e-09 6.61954e-09 0)
(-1.38212e-08 -5.15852e-09 0)
(-1.36387e-08 -1.73969e-08 0)
(-1.23021e-08 -2.74373e-08 0)
(-1.21783e-08 -3.56256e-08 0)
(-1.55748e-08 -4.29964e-08 0)
(-2.51628e-08 -5.42615e-08 0)
(-3.94155e-08 -8.95095e-08 0)
)
;
    }
    bottom
    {
        type            fixedDisplacement;
        value           uniform (0 0 0);
    }
}


// ************************************************************************* //
