/*--------------------------------*- C++ -*----------------------------------*\
| =========                 |                                                 |
| \\      /  F ield         | OpenFOAM: The Open Source CFD Toolbox           |
|  \\    /   O peration     | Version:  v1912                                 |
|   \\  /    A nd           | Website:  www.openfoam.com                      |
|    \\/     M anipulation  |                                                 |
\*---------------------------------------------------------------------------*/
FoamFile
{
    version     2.0;
    format      ascii;
    class       pointVectorField;
    location    "0.8/solid";
    object      pointD;
}
// * * * * * * * * * * * * * * * * * * * * * * * * * * * * * * * * * * * * * //

dimensions      [0 1 0 0 0 0 0];


internalField   nonuniform List<vector> 
405
(
(3.89677e-08 4.12261e-08 4.03199e-08)
(8.1269e-09 2.73779e-08 4.35742e-08)
(-9.66146e-12 2.26495e-08 4.10106e-08)
(-7.89254e-09 2.68275e-08 4.25725e-08)
(-3.67812e-08 3.98316e-08 3.92087e-08)
(6.69963e-08 5.1133e-08 7.41154e-08)
(2.24802e-08 4.65111e-08 1.00012e-07)
(2.37814e-10 3.89673e-08 9.47098e-08)
(-2.14102e-08 4.53799e-08 9.80396e-08)
(-6.3015e-08 4.90251e-08 7.24683e-08)
(7.72399e-08 3.00338e-08 9.6425e-08)
(2.97844e-08 2.96093e-08 1.2162e-07)
(8.24999e-10 2.55532e-08 1.15841e-07)
(-2.74558e-08 2.84202e-08 1.19683e-07)
(-7.18865e-08 2.78772e-08 9.4833e-08)
(7.90844e-08 1.18495e-08 1.12202e-07)
(3.06568e-08 1.35109e-08 1.37676e-07)
(1.49868e-09 1.14825e-08 1.31326e-07)
(-2.69847e-08 1.22536e-08 1.35745e-07)
(-7.23563e-08 9.59895e-09 1.10671e-07)
(8.01421e-08 -2.7034e-09 1.26424e-07)
(3.06899e-08 -1.11014e-09 1.52429e-07)
(2.19314e-09 -2.88561e-09 1.45581e-07)
(-2.56263e-08 -2.44957e-09 1.50496e-07)
(-7.198e-08 -5.07658e-09 1.24929e-07)
(8.40654e-08 -1.66257e-08 1.4166e-07)
(3.25391e-08 -1.61261e-08 1.68494e-07)
(2.89933e-09 -1.84388e-08 1.61246e-07)
(-2.6056e-08 -1.75472e-08 1.66541e-07)
(-7.44371e-08 -1.91134e-08 1.40165e-07)
(9.34943e-08 -3.53451e-08 1.59535e-07)
(3.79588e-08 -3.56708e-08 1.87834e-07)
(3.60151e-09 -3.79689e-08 1.8052e-07)
(-3.00648e-08 -3.71504e-08 1.85844e-07)
(-8.24107e-08 -3.79003e-08 1.58005e-07)
(1.09446e-07 -7.72311e-08 1.79805e-07)
(4.69135e-08 -7.64157e-08 2.11653e-07)
(4.24864e-09 -7.65056e-08 2.05368e-07)
(-3.76977e-08 -7.76847e-08 2.09641e-07)
(-9.69635e-08 -7.94567e-08 1.78236e-07)
(1.07022e-07 -1.33883e-07 1.78849e-07)
(5.2205e-08 -1.43721e-07 1.89185e-07)
(4.69842e-09 -1.40446e-07 1.85332e-07)
(-4.20642e-08 -1.43825e-07 1.88103e-07)
(-9.45184e-08 -1.34743e-07 1.77722e-07)
(3.90322e-08 2.2835e-08 8.03983e-09)
(0 0 0)
(0 0 0)
(0 0 0)
(-3.62549e-08 2.17086e-08 7.98294e-09)
(8.45074e-08 3.60899e-08 2.7325e-08)
(1.89274e-08 1.95049e-08 3.11457e-08)
(3.12934e-10 1.30779e-08 3.08366e-08)
(-1.77525e-08 1.85207e-08 3.10833e-08)
(-7.82718e-08 3.37803e-08 2.72383e-08)
(9.2505e-08 1.75362e-08 4.65668e-08)
(2.50559e-08 1.172e-08 5.16555e-08)
(8.90921e-10 8.08107e-09 5.1425e-08)
(-2.26526e-08 1.05467e-08 5.16378e-08)
(-8.49204e-08 1.5102e-08 4.65698e-08)
(9.44806e-08 1.61707e-09 6.10837e-08)
(2.57338e-08 -7.97704e-11 6.63644e-08)
(1.54083e-09 -1.90304e-09 6.61084e-08)
(-2.20363e-08 -1.35274e-09 6.64073e-08)
(-8.55141e-08 -9.63044e-10 6.11987e-08)
(9.62517e-08 -1.14926e-08 7.38833e-08)
(2.58026e-08 -1.3436e-08 7.90719e-08)
(2.21812e-09 -1.50523e-08 7.86841e-08)
(-2.07468e-08 -1.47885e-08 7.91563e-08)
(-8.58222e-08 -1.42192e-08 7.40738e-08)
(1.01297e-07 -2.39759e-08 8.69808e-08)
(2.77181e-08 -2.84725e-08 9.20232e-08)
(2.91651e-09 -3.06884e-08 9.1469e-08)
(-2.1256e-08 -2.98983e-08 9.21249e-08)
(-8.93536e-08 -2.68247e-08 8.72012e-08)
(1.12543e-07 -4.0051e-08 1.013e-07)
(3.32195e-08 -4.73933e-08 1.06208e-07)
(3.62003e-09 -4.97361e-08 1.05564e-07)
(-2.53405e-08 -4.88709e-08 1.06305e-07)
(-9.90846e-08 -4.29635e-08 1.01508e-07)
(1.32182e-07 -7.697e-08 1.15007e-07)
(4.22365e-08 -8.2422e-08 1.19891e-07)
(4.27779e-09 -8.24906e-08 1.19386e-07)
(-3.30119e-08 -8.36972e-08 1.19967e-07)
(-1.17249e-07 -7.95451e-08 1.15172e-07)
(1.09915e-07 -1.41922e-07 1.23144e-07)
(4.75147e-08 -1.74248e-07 1.24582e-07)
(4.85098e-09 -1.68547e-07 1.24107e-07)
(-3.709e-08 -1.73412e-07 1.24657e-07)
(-9.65127e-08 -1.42438e-07 1.2327e-07)
(3.12198e-08 1.30576e-08 9.87348e-10)
(0 0 0)
(0 0 0)
(0 0 0)
(-2.85092e-08 1.20624e-08 1.06212e-09)
(6.7185e-08 1.81282e-08 8.88832e-09)
(1.27134e-08 5.78438e-09 1.40597e-08)
(3.11042e-10 4.61783e-10 1.53117e-08)
(-1.15674e-08 4.92895e-09 1.41811e-08)
(-6.11295e-08 1.60343e-08 9.10594e-09)
(7.28999e-08 3.04687e-09 2.29855e-08)
(1.68889e-08 -1.37047e-09 2.98165e-08)
(8.74318e-10 -4.44722e-09 3.15914e-08)
(-1.45555e-08 -2.47399e-09 3.00011e-08)
(-6.55716e-08 7.39462e-10 2.33243e-08)
(7.40635e-08 -9.85798e-09 3.6461e-08)
(1.71585e-08 -1.11907e-08 4.36337e-08)
(1.50759e-09 -1.28312e-08 4.556e-08)
(-1.35689e-08 -1.2435e-08 4.38688e-08)
(-6.53998e-08 -1.23776e-08 3.68945e-08)
(7.54714e-08 -2.0941e-08 4.85411e-08)
(1.71212e-08 -2.27716e-08 5.57358e-08)
(2.17187e-09 -2.43466e-08 5.7666e-08)
(-1.21998e-08 -2.41157e-08 5.60072e-08)
(-6.53634e-08 -2.36457e-08 4.90404e-08)
(8.039e-08 -3.12523e-08 5.99625e-08)
(1.89663e-08 -3.57547e-08 6.71138e-08)
(2.86271e-09 -3.79858e-08 6.89977e-08)
(-1.26503e-08 -3.71835e-08 6.74028e-08)
(-6.87557e-08 -3.4106e-08 6.04917e-08)
(9.203e-08 -4.35855e-08 7.0589e-08)
(2.45166e-08 -5.10825e-08 7.76393e-08)
(3.56466e-09 -5.34514e-08 7.9474e-08)
(-1.67807e-08 -5.25746e-08 7.79287e-08)
(-7.88385e-08 -4.65281e-08 7.11141e-08)
(1.13163e-07 -7.39532e-08 7.79116e-08)
(3.37903e-08 -7.944e-08 8.48038e-08)
(4.2272e-09 -7.93794e-08 8.66158e-08)
(-2.46922e-08 -8.07435e-08 8.50849e-08)
(-9.84413e-08 -7.6583e-08 7.84136e-08)
(9.45675e-08 -1.32333e-07 8.11943e-08)
(3.9142e-08 -1.61152e-07 8.38435e-08)
(4.8133e-09 -1.54434e-07 8.56166e-08)
(-2.88159e-08 -1.60331e-07 8.4134e-08)
(-8.13179e-08 -1.32889e-07 8.1652e-08)
(2.6522e-08 9.26788e-09 7.47582e-10)
(0 0 0)
(0 0 0)
(0 0 0)
(-2.39085e-08 8.33589e-09 8.11029e-10)
(5.67679e-08 1.03599e-08 6.46357e-09)
(8.84335e-09 7.12191e-10 9.74458e-09)
(2.80568e-10 -3.83364e-09 1.09188e-08)
(-7.77519e-09 -8.85272e-11 9.84597e-09)
(-5.09359e-08 8.38733e-09 6.65972e-09)
(6.12507e-08 -4.6832e-09 1.74647e-08)
(1.17443e-08 -8.18442e-09 2.1835e-08)
(8.17527e-10 -1.08336e-08 2.34905e-08)
(-9.54289e-09 -9.23709e-09 2.19941e-08)
(-5.41965e-08 -6.89117e-09 1.77744e-08)
(6.22174e-08 -1.68296e-08 2.92341e-08)
(1.18182e-08 -1.79951e-08 3.37816e-08)
(1.43217e-09 -1.95025e-08 3.55753e-08)
(-8.39788e-09 -1.92057e-08 3.39795e-08)
(-5.38628e-08 -1.92841e-08 2.96195e-08)
(6.36862e-08 -2.64844e-08 4.0146e-08)
(1.18193e-08 -2.83487e-08 4.46332e-08)
(2.08423e-09 -2.99152e-08 4.64404e-08)
(-7.09073e-09 -2.96764e-08 4.4858e-08)
(-5.39037e-08 -2.9157e-08 4.05825e-08)
(6.87638e-08 -3.45493e-08 4.982e-08)
(1.3717e-08 -3.91376e-08 5.42133e-08)
(2.76813e-09 -4.14018e-08 5.59957e-08)
(-7.60524e-09 -4.05646e-08 5.44527e-08)
(-5.74479e-08 -3.73997e-08 5.02824e-08)
(8.07355e-08 -4.37612e-08 5.75218e-08)
(1.93355e-08 -5.13665e-08 6.18318e-08)
(3.46769e-09 -5.379e-08 6.35799e-08)
(-1.18036e-08 -5.28687e-08 6.20747e-08)
(-6.78298e-08 -4.67246e-08 5.79871e-08)
(1.02311e-07 -7.02987e-08 6.14648e-08)
(2.86692e-08 -7.59332e-08 6.57547e-08)
(4.13183e-09 -7.59688e-08 6.74831e-08)
(-1.97656e-08 -7.72544e-08 6.5996e-08)
(-8.78253e-08 -7.29636e-08 6.19205e-08)
(8.55195e-08 -1.25165e-07 6.24205e-08)
(3.41176e-08 -1.52582e-07 6.43898e-08)
(4.72457e-09 -1.45927e-07 6.6208e-08)
(-2.39695e-08 -1.51792e-07 6.46376e-08)
(-7.24635e-08 -1.25762e-07 6.28286e-08)
(2.41019e-08 7.8479e-09 1.07515e-09)
(0 0 0)
(0 0 0)
(0 0 0)
(-2.15645e-08 6.95563e-09 1.11979e-09)
(5.1429e-08 7.38233e-09 6.0726e-09)
(7.20753e-09 -1.01815e-09 7.62549e-09)
(2.53607e-10 -5.13413e-09 8.32217e-09)
(-6.20839e-09 -1.79142e-09 7.69853e-09)
(-4.57794e-08 5.48822e-09 6.21864e-09)
(5.53972e-08 -7.94377e-09 1.47381e-08)
(9.58262e-09 -1.1047e-08 1.67882e-08)
(7.64755e-10 -1.34608e-08 1.77692e-08)
(-7.50221e-09 -1.20677e-08 1.69079e-08)
(-4.85757e-08 -1.00809e-08 1.49778e-08)
(5.64666e-08 -2.00763e-08 2.41894e-08)
(9.66104e-09 -2.12447e-08 2.6259e-08)
(1.36066e-09 -2.26877e-08 2.73123e-08)
(-6.39769e-09 -2.24289e-08 2.64092e-08)
(-4.83769e-08 -2.24769e-08 2.4491e-08)
(5.81781e-08 -2.90151e-08 3.31166e-08)
(9.79411e-09 -3.09872e-08 3.50734e-08)
(2.0008e-09 -3.25631e-08 3.61204e-08)
(-5.24517e-09 -3.22985e-08 3.52441e-08)
(-4.86769e-08 -3.16556e-08 3.34591e-08)
(6.34904e-08 -3.57003e-08 4.07329e-08)
(1.18034e-08 -4.03808e-08 4.25807e-08)
(2.678e-09 -4.26752e-08 4.3602e-08)
(-5.88278e-09 -4.18022e-08 4.27634e-08)
(-5.24547e-08 -3.85403e-08 4.10981e-08)
(7.56329e-08 -4.32557e-08 4.62284e-08)
(1.74579e-08 -5.0908e-08 4.80324e-08)
(3.37467e-09 -5.33872e-08 4.9032e-08)
(-1.01197e-08 -5.24134e-08 4.82199e-08)
(-6.29876e-08 -4.62266e-08 4.66005e-08)
(9.71816e-08 -6.80295e-08 4.86464e-08)
(2.67242e-08 -7.38021e-08 5.05178e-08)
(4.03863e-09 -7.39964e-08 5.15233e-08)
(-1.80103e-08 -7.51313e-08 5.07061e-08)
(-8.2922e-08 -7.07114e-08 4.90161e-08)
(8.14705e-08 -1.2088e-07 4.88486e-08)
(3.22354e-08 -1.47538e-07 4.98065e-08)
(4.63412e-09 -1.41215e-07 5.09308e-08)
(-2.22689e-08 -1.46766e-07 4.99981e-08)
(-6.86092e-08 -1.21499e-07 4.91751e-08)
(2.28871e-08 7.28847e-09 1.06835e-09)
(0 0 0)
(0 0 0)
(0 0 0)
(-2.04005e-08 6.42391e-09 1.09817e-09)
(4.88307e-08 6.29871e-09 5.13462e-09)
(6.66448e-09 -1.62144e-09 5.77337e-09)
(2.34657e-10 -5.52992e-09 6.11269e-09)
(-5.71443e-09 -2.37664e-09 5.82382e-09)
(-4.33067e-08 4.45985e-09 5.23542e-09)
(5.26897e-08 -9.04537e-09 1.16078e-08)
(8.91261e-09 -1.20404e-08 1.24141e-08)
(7.25582e-10 -1.43505e-08 1.28859e-08)
(-6.92245e-09 -1.30396e-08 1.24989e-08)
(-4.60346e-08 -1.11311e-08 1.17781e-08)
(5.39447e-08 -2.11809e-08 1.85688e-08)
(9.07717e-09 -2.24229e-08 1.93255e-08)
(1.30542e-09 -2.3849e-08 1.98214e-08)
(-5.93497e-09 -2.35878e-08 1.94336e-08)
(-4.60491e-08 -2.35401e-08 1.8787e-08)
(5.59003e-08 -2.98211e-08 2.51659e-08)
(9.34434e-09 -3.1901e-08 2.5816e-08)
(1.93475e-09 -3.34941e-08 2.62957e-08)
(-4.93708e-09 -3.31989e-08 2.59396e-08)
(-4.66086e-08 -3.24338e-08 2.54163e-08)
(6.14031e-08 -3.5916e-08 3.06876e-08)
(1.14493e-08 -4.06597e-08 3.12541e-08)
(2.60557e-09 -4.29753e-08 3.17123e-08)
(-5.68187e-09 -4.20744e-08 3.13872e-08)
(-5.05799e-08 -3.87431e-08 3.09571e-08)
(7.36015e-08 -4.28466e-08 3.45031e-08)
(1.71064e-08 -5.05013e-08 3.50579e-08)
(3.29905e-09 -5.30159e-08 3.55064e-08)
(-9.92575e-09 -5.20059e-08 3.51956e-08)
(-6.11591e-08 -4.58168e-08 3.47806e-08)
(9.49833e-08 -6.68814e-08 3.61449e-08)
(2.62766e-08 -7.27251e-08 3.6782e-08)
(3.96189e-09 -7.30348e-08 3.72467e-08)
(-1.77197e-08 -7.40569e-08 3.69213e-08)
(-8.09072e-08 -6.95693e-08 3.64233e-08)
(7.99089e-08 -1.18512e-07 3.62081e-08)
(3.18063e-08 -1.4468e-07 3.65498e-08)
(4.55811e-09 -1.38633e-07 3.71004e-08)
(-2.19938e-08 -1.43915e-07 3.66904e-08)
(-6.72114e-08 -1.19141e-07 3.64523e-08)
(2.22608e-08 7.05554e-09 8.08713e-10)
(0 0 0)
(0 0 0)
(0 0 0)
(-1.98051e-08 6.20907e-09 8.27004e-10)
(4.75418e-08 5.92421e-09 3.64602e-09)
(6.50548e-09 -1.82429e-09 3.89737e-09)
(2.22512e-10 -5.63814e-09 4.04659e-09)
(-5.58676e-09 -2.56722e-09 3.92919e-09)
(-4.20956e-08 4.12231e-09 3.70883e-09)
(5.14299e-08 -9.29154e-09 7.94403e-09)
(8.75882e-09 -1.22847e-08 8.23509e-09)
(6.99552e-10 -1.45562e-08 8.43735e-09)
(-6.82834e-09 -1.32693e-08 8.28937e-09)
(-4.48808e-08 -1.13416e-08 8.05203e-09)
(5.28439e-08 -2.13563e-08 1.24806e-08)
(9.00903e-09 -2.26731e-08 1.27178e-08)
(1.26749e-09 -2.41023e-08 1.2923e-08)
(-5.9495e-09 -2.38248e-08 1.27877e-08)
(-4.5075e-08 -2.36857e-08 1.26211e-08)
(5.49737e-08 -2.98829e-08 1.6764e-08)
(9.37181e-09 -3.20399e-08 1.69281e-08)
(1.88826e-09 -3.36487e-08 1.71187e-08)
(-5.06359e-09 -3.33278e-08 1.70087e-08)
(-4.58213e-08 -3.24744e-08 1.69271e-08)
(6.0595e-08 -3.58126e-08 2.03204e-08)
(1.15363e-08 -4.05898e-08 2.04348e-08)
(2.55369e-09 -4.29174e-08 2.06119e-08)
(-5.87785e-09 -4.19987e-08 2.05221e-08)
(-4.99156e-08 -3.86278e-08 2.04975e-08)
(7.27962e-08 -4.2603e-08 2.27509e-08)
(1.7182e-08 -5.02407e-08 2.28679e-08)
(3.2442e-09 -5.27706e-08 2.30426e-08)
(-1.01151e-08 -5.1743e-08 2.29588e-08)
(-6.0494e-08 -4.55692e-08 2.29348e-08)
(9.40191e-08 -6.63472e-08 2.38279e-08)
(2.62736e-08 -7.22094e-08 2.40076e-08)
(3.90563e-09 -7.2579e-08 2.41969e-08)
(-1.78316e-08 -7.35413e-08 2.40999e-08)
(-8.00731e-08 -6.90359e-08 2.40137e-08)
(7.93011e-08 -1.17253e-07 2.38935e-08)
(3.17948e-08 -1.43091e-07 2.39855e-08)
(4.50163e-09 -1.37203e-07 2.42219e-08)
(-2.20967e-08 -1.42328e-07 2.40782e-08)
(-6.67235e-08 -1.17884e-07 2.4056e-08)
(2.19515e-08 6.95842e-09 4.27283e-10)
(0 0 0)
(0 0 0)
(0 0 0)
(-1.95124e-08 6.12204e-09 4.35987e-10)
(4.69195e-08 5.80583e-09 1.87587e-09)
(6.45608e-09 -1.88002e-09 1.96613e-09)
(2.158e-10 -5.65284e-09 2.02203e-09)
(-5.55457e-09 -2.61579e-09 1.98154e-09)
(-4.15154e-08 4.02501e-09 1.90597e-09)
(5.08463e-08 -9.28253e-09 4.01612e-09)
(8.73123e-09 -1.22921e-08 4.11178e-09)
(6.84853e-10 -1.4551e-08 4.18546e-09)
(-6.83424e-09 -1.32681e-08 4.13824e-09)
(-4.43555e-08 -1.13116e-08 4.06834e-09)
(5.23562e-08 -2.12703e-08 6.24617e-09)
(9.03508e-09 -2.26352e-08 6.31145e-09)
(1.2456e-09 -2.40705e-08 6.38346e-09)
(-6.02299e-09 -2.3779e-08 6.34575e-09)
(-4.46581e-08 -2.35816e-08 6.31474e-09)
(5.4583e-08 -2.9756e-08 8.34276e-09)
(9.45073e-09 -3.19559e-08 8.37265e-09)
(1.86092e-09 -3.35745e-08 8.43677e-09)
(-5.20039e-09 -3.32377e-08 8.41241e-09)
(-4.55097e-08 -3.23342e-08 8.42295e-09)
(6.02643e-08 -3.56723e-08 1.00787e-08)
(1.16449e-08 -4.0464e-08 1.00866e-08)
(2.52275e-09 -4.27968e-08 1.01446e-08)
(-6.05105e-09 -4.1869e-08 1.01299e-08)
(-4.96675e-08 -3.84793e-08 1.01664e-08)
(7.24553e-08 -4.24747e-08 1.12659e-08)
(1.72796e-08 -5.00954e-08 1.1278e-08)
(3.21114e-09 -5.26295e-08 1.13361e-08)
(-1.02809e-08 -5.15958e-08 1.13232e-08)
(-6.02348e-08 -4.54372e-08 1.13574e-08)
(9.35757e-08 -6.6116e-08 1.18078e-08)
(2.63231e-08 -7.19751e-08 1.18522e-08)
(3.87145e-09 -7.23691e-08 1.19184e-08)
(-1.79507e-08 -7.33063e-08 1.18982e-08)
(-7.97068e-08 -6.88037e-08 1.19006e-08)
(7.9037e-08 -1.1664e-07 1.18575e-08)
(3.18302e-08 -1.42282e-07 1.18762e-08)
(4.46701e-09 -1.36468e-07 1.19618e-08)
(-2.22021e-08 -1.4152e-07 1.19222e-08)
(-6.65318e-08 -1.17271e-07 1.19386e-08)
(1.77183e-08 7.13923e-09 0)
(2.25153e-09 1.54342e-09 0)
(5.87443e-12 -7.38561e-10 0)
(-2.037e-09 1.2496e-09 0)
(-1.58175e-08 6.25581e-09 0)
(2.96726e-08 3.75195e-09 0)
(6.44332e-09 -1.88917e-09 0)
(2.1366e-10 -5.65031e-09 0)
(-5.54728e-09 -2.62258e-09 0)
(-2.62948e-08 2.27948e-09 0)
(3.34473e-08 -9.75455e-09 0)
(8.72686e-09 -1.22754e-08 0)
(6.80117e-10 -1.45314e-08 0)
(-6.84061e-09 -1.32485e-08 0)
(-2.90051e-08 -1.15077e-08 0)
(3.43967e-08 -2.13279e-08 0)
(9.04816e-09 -2.25963e-08 0)
(1.23846e-09 -2.40341e-08 0)
(-6.05147e-09 -2.37374e-08 0)
(-2.88008e-08 -2.33398e-08 0)
(3.57961e-08 -3.01459e-08 0)
(9.4803e-09 -3.19042e-08 0)
(1.85192e-09 -3.3526e-08 0)
(-5.24895e-09 -3.31839e-08 0)
(-2.88928e-08 -3.23939e-08 0)
(4.01944e-08 -3.70206e-08 0)
(1.16832e-08 -4.04101e-08 0)
(2.51249e-09 -4.27443e-08 0)
(-6.11073e-09 -4.18137e-08 0)
(-3.18495e-08 -3.94755e-08 0)
(5.03625e-08 -4.51618e-08 0)
(1.73137e-08 -5.00479e-08 0)
(3.20012e-09 -5.25826e-08 0)
(-1.03377e-08 -5.15476e-08 0)
(-4.04898e-08 -4.77655e-08 0)
(6.77413e-08 -6.89443e-08 0)
(2.63413e-08 -7.19067e-08 0)
(3.86e-09 -7.23067e-08 0)
(-1.79922e-08 -7.32375e-08 0)
(-5.63306e-08 -7.12877e-08 0)
(6.93186e-08 -1.07649e-07 0)
(3.16647e-08 -1.15135e-07 0)
(4.31426e-09 -1.11477e-07 0)
(-2.23562e-08 -1.15317e-07 0)
(-5.77719e-08 -1.08636e-07 0)
)
;

boundaryField
{
    interface
    {
        type            calculated;
    }
    symmetry
    {
        type            symmetry;
    }
    bottom
    {
        type            calculated;
    }
}


// ************************************************************************* //
