/*--------------------------------*- C++ -*----------------------------------*\
| =========                 |                                                 |
| \\      /  F ield         | OpenFOAM: The Open Source CFD Toolbox           |
|  \\    /   O peration     | Version:  v1912                                 |
|   \\  /    A nd           | Website:  www.openfoam.com                      |
|    \\/     M anipulation  |                                                 |
\*---------------------------------------------------------------------------*/
FoamFile
{
    version     2.0;
    format      ascii;
    class       pointVectorField;
    location    "0.8/solid";
    object      pointDD;
}
// * * * * * * * * * * * * * * * * * * * * * * * * * * * * * * * * * * * * * //

dimensions      [0 1 0 0 0 0 0];


internalField   nonuniform List<vector> 
405
(
(1.56552e-10 2.70087e-10 1.71987e-10)
(6.54833e-11 1.98544e-10 1.33455e-10)
(-5.78056e-12 1.74428e-10 1.236e-10)
(-7.18568e-11 1.86026e-10 1.16079e-10)
(-1.36071e-10 2.50795e-10 1.45402e-10)
(3.28653e-10 3.5224e-10 4.30792e-10)
(1.90459e-10 3.53585e-10 4.41019e-10)
(-1.85093e-11 3.09445e-10 4.17083e-10)
(-2.14912e-10 3.36277e-10 3.99234e-10)
(-3.05683e-10 3.35444e-10 3.7775e-10)
(4.44102e-10 1.94782e-10 7.30742e-10)
(2.61572e-10 2.18194e-10 7.40716e-10)
(-3.22848e-11 1.89543e-10 7.08165e-10)
(-3.11195e-10 2.16283e-10 6.86947e-10)
(-4.40718e-10 2.02011e-10 6.56105e-10)
(4.61726e-10 -1.3269e-11 9.6558e-10)
(2.66038e-10 2.72233e-11 9.71399e-10)
(-4.74659e-11 1.61084e-11 9.29877e-10)
(-3.45742e-10 3.94436e-11 9.0895e-10)
(-4.85482e-10 1.60878e-11 8.76321e-10)
(4.54991e-10 -2.20096e-10 1.17749e-09)
(2.5226e-10 -1.77821e-10 1.17704e-09)
(-6.60917e-11 -1.8175e-10 1.12642e-09)
(-3.68979e-10 -1.5334e-10 1.1077e-09)
(-5.13212e-10 -1.70994e-10 1.0768e-09)
(4.68348e-10 -4.45855e-10 1.39214e-09)
(2.52446e-10 -4.1108e-10 1.38329e-09)
(-8.87863e-11 -4.13023e-10 1.32438e-09)
(-4.14213e-10 -3.75105e-10 1.30782e-09)
(-5.69091e-10 -3.77737e-10 1.28129e-09)
(5.30442e-10 -7.56031e-10 1.61978e-09)
(2.86063e-10 -7.2693e-10 1.60505e-09)
(-1.16173e-10 -7.2038e-10 1.54272e-09)
(-5.01889e-10 -6.78605e-10 1.5237e-09)
(-6.82084e-10 -6.67467e-10 1.49919e-09)
(6.26283e-10 -1.21121e-09 1.82686e-09)
(3.41402e-10 -1.18031e-09 1.81812e-09)
(-1.49037e-10 -1.15381e-09 1.76374e-09)
(-6.21187e-10 -1.1144e-09 1.73116e-09)
(-8.36965e-10 -1.09476e-09 1.69735e-09)
(6.66713e-10 -1.49788e-09 1.92473e-09)
(3.68684e-10 -1.47723e-09 1.91924e-09)
(-1.6806e-10 -1.43202e-09 1.87861e-09)
(-6.85388e-10 -1.38938e-09 1.84019e-09)
(-9.281e-10 -1.35936e-09 1.80144e-09)
(1.03093e-10 1.38333e-10 7.97106e-11)
(0 0 0)
(0 0 0)
(0 0 0)
(-7.06069e-11 1.2921e-10 6.96714e-11)
(2.86728e-10 2.11498e-10 2.97374e-10)
(0 0 0)
(0 0 0)
(0 0 0)
(-2.25114e-10 2.0493e-10 2.64139e-10)
(3.85702e-10 4.50647e-11 5.51919e-10)
(0 0 0)
(0 0 0)
(0 0 0)
(-3.35851e-10 6.17747e-11 4.96839e-10)
(4.00182e-10 -1.54316e-10 7.71485e-10)
(0 0 0)
(0 0 0)
(0 0 0)
(-3.71234e-10 -1.15394e-10 7.01232e-10)
(3.93732e-10 -3.48892e-10 9.741e-10)
(0 0 0)
(0 0 0)
(0 0 0)
(-3.93977e-10 -2.89063e-10 8.91834e-10)
(4.07649e-10 -5.54474e-10 1.17735e-09)
(0 0 0)
(0 0 0)
(0 0 0)
(-4.45616e-10 -4.73917e-10 1.0844e-09)
(4.74765e-10 -8.26816e-10 1.38484e-09)
(0 0 0)
(0 0 0)
(0 0 0)
(-5.58689e-10 -7.2422e-10 1.28188e-09)
(5.86866e-10 -1.2314e-09 1.56096e-09)
(0 0 0)
(0 0 0)
(0 0 0)
(-7.23922e-10 -1.10036e-09 1.44963e-09)
(6.22216e-10 -1.49624e-09 1.64975e-09)
(3.35838e-10 -1.48414e-09 1.65862e-09)
(-1.5434e-10 -1.42469e-09 1.6365e-09)
(-6.26324e-10 -1.38727e-09 1.60086e-09)
(-8.40994e-10 -1.3493e-09 1.549e-09)
(6.0803e-11 6.6588e-11 2.85907e-11)
(0 0 0)
(0 0 0)
(0 0 0)
(-2.73435e-11 5.72089e-11 2.34759e-11)
(1.77627e-10 5.88775e-11 1.46958e-10)
(0 0 0)
(0 0 0)
(0 0 0)
(-1.09668e-10 5.12058e-11 1.27606e-10)
(2.45148e-10 -1.09273e-10 3.35309e-10)
(0 0 0)
(0 0 0)
(0 0 0)
(-1.80858e-10 -9.49483e-11 2.99647e-10)
(2.50998e-10 -2.92792e-10 5.28317e-10)
(0 0 0)
(0 0 0)
(0 0 0)
(-2.00826e-10 -2.57296e-10 4.79675e-10)
(2.42479e-10 -4.68074e-10 7.12573e-10)
(0 0 0)
(0 0 0)
(0 0 0)
(-2.15698e-10 -4.12205e-10 6.531e-10)
(2.57825e-10 -6.43112e-10 8.87951e-10)
(0 0 0)
(0 0 0)
(0 0 0)
(-2.6358e-10 -5.66934e-10 8.18837e-10)
(3.34325e-10 -8.62066e-10 1.04623e-09)
(0 0 0)
(0 0 0)
(0 0 0)
(-3.8117e-10 -7.64652e-10 9.68568e-10)
(4.69004e-10 -1.19852e-09 1.15492e-09)
(0 0 0)
(0 0 0)
(0 0 0)
(-5.63995e-10 -1.07412e-09 1.07115e-09)
(5.20052e-10 -1.43286e-09 1.19439e-09)
(2.73523e-10 -1.41493e-09 1.20568e-09)
(-1.27968e-10 -1.34682e-09 1.20322e-09)
(-5.1268e-10 -1.32212e-09 1.16462e-09)
(-6.91543e-10 -1.29264e-09 1.12062e-09)
(3.25498e-11 3.09112e-11 1.65538e-11)
(0 0 0)
(0 0 0)
(0 0 0)
(1.66088e-12 1.96384e-11 1.3163e-11)
(1.02969e-10 -1.70045e-11 9.82801e-11)
(0 0 0)
(0 0 0)
(0 0 0)
(-3.0588e-11 -2.92282e-11 8.52806e-11)
(1.48367e-10 -1.88706e-10 2.44291e-10)
(0 0 0)
(0 0 0)
(0 0 0)
(-7.37781e-11 -1.80092e-10 2.19593e-10)
(1.51007e-10 -3.66184e-10 4.07306e-10)
(0 0 0)
(0 0 0)
(0 0 0)
(-8.48192e-11 -3.36967e-10 3.72294e-10)
(1.45207e-10 -5.25473e-10 5.66558e-10)
(0 0 0)
(0 0 0)
(0 0 0)
(-9.71333e-11 -4.76141e-10 5.22357e-10)
(1.65574e-10 -6.71296e-10 7.10419e-10)
(0 0 0)
(0 0 0)
(0 0 0)
(-1.45211e-10 -6.01859e-10 6.57949e-10)
(2.49679e-10 -8.47187e-10 8.2349e-10)
(0 0 0)
(0 0 0)
(0 0 0)
(-2.65961e-10 -7.56846e-10 7.63964e-10)
(3.93948e-10 -1.13522e-09 8.80697e-10)
(0 0 0)
(0 0 0)
(0 0 0)
(-4.54259e-10 -1.0183e-09 8.16595e-10)
(4.49222e-10 -1.35071e-09 8.85713e-10)
(2.30658e-10 -1.33879e-09 8.92154e-10)
(-1.07665e-10 -1.27291e-09 8.96849e-10)
(-4.295e-10 -1.24984e-09 8.61464e-10)
(-5.8237e-10 -1.21718e-09 8.29905e-10)
(1.95721e-11 1.5858e-11 1.64377e-11)
(0 0 0)
(0 0 0)
(0 0 0)
(1.52435e-11 2.98242e-12 1.40583e-11)
(6.90551e-11 -4.7345e-11 8.50338e-11)
(0 0 0)
(0 0 0)
(0 0 0)
(6.4112e-12 -6.37817e-11 7.60195e-11)
(1.05744e-10 -2.18638e-10 2.01007e-10)
(0 0 0)
(0 0 0)
(0 0 0)
(-2.40685e-11 -2.15745e-10 1.83794e-10)
(1.09806e-10 -3.92083e-10 3.30897e-10)
(0 0 0)
(0 0 0)
(0 0 0)
(-3.22106e-11 -3.69289e-10 3.06017e-10)
(1.09101e-10 -5.40204e-10 4.58089e-10)
(0 0 0)
(0 0 0)
(0 0 0)
(-4.53185e-11 -4.97553e-10 4.25997e-10)
(1.35256e-10 -6.66825e-10 5.68456e-10)
(0 0 0)
(0 0 0)
(0 0 0)
(-9.51058e-11 -6.0413e-10 5.29738e-10)
(2.24024e-10 -8.18417e-10 6.46514e-10)
(0 0 0)
(0 0 0)
(0 0 0)
(-2.16731e-10 -7.34778e-10 6.02203e-10)
(3.69948e-10 -1.08163e-09 6.76435e-10)
(0 0 0)
(0 0 0)
(0 0 0)
(-4.03239e-10 -9.71225e-10 6.28611e-10)
(4.24438e-10 -1.28821e-09 6.67867e-10)
(2.1858e-10 -1.2845e-09 6.66227e-10)
(-9.23538e-11 -1.22456e-09 6.68619e-10)
(-3.86694e-10 -1.1987e-09 6.43515e-10)
(-5.27844e-10 -1.16024e-09 6.26362e-10)
(1.46585e-11 1.06671e-11 1.51452e-11)
(0 0 0)
(0 0 0)
(0 0 0)
(2.05612e-11 -3.29463e-12 1.35325e-11)
(5.68245e-11 -5.6138e-11 7.06244e-11)
(0 0 0)
(0 0 0)
(0 0 0)
(2.06291e-11 -7.56353e-11 6.4558e-11)
(9.19905e-11 -2.24062e-10 1.58133e-10)
(0 0 0)
(0 0 0)
(0 0 0)
(-5.69589e-12 -2.25656e-10 1.46534e-10)
(9.92648e-11 -3.92968e-10 2.53893e-10)
(0 0 0)
(0 0 0)
(0 0 0)
(-1.40143e-11 -3.75447e-10 2.3695e-10)
(1.03505e-10 -5.33757e-10 3.46761e-10)
(0 0 0)
(0 0 0)
(0 0 0)
(-2.88642e-11 -4.96698e-10 3.24599e-10)
(1.34282e-10 -6.50323e-10 4.25088e-10)
(0 0 0)
(0 0 0)
(0 0 0)
(-8.00933e-11 -5.9325e-10 3.98021e-10)
(2.25453e-10 -7.91245e-10 4.77058e-10)
(0 0 0)
(0 0 0)
(0 0 0)
(-2.01114e-10 -7.13057e-10 4.45832e-10)
(3.70368e-10 -1.04371e-09 4.93753e-10)
(0 0 0)
(0 0 0)
(0 0 0)
(-3.83869e-10 -9.38426e-10 4.59921e-10)
(4.23635e-10 -1.24573e-09 4.83328e-10)
(2.22535e-10 -1.2474e-09 4.77176e-10)
(-8.11855e-11 -1.19244e-09 4.76234e-10)
(-3.68168e-10 -1.16398e-09 4.61146e-10)
(-5.05186e-10 -1.122e-09 4.53974e-10)
(1.30806e-11 9.28371e-12 1.1316e-11)
(0 0 0)
(0 0 0)
(0 0 0)
(2.23866e-11 -5.35583e-12 1.03211e-11)
(5.33771e-11 -5.68994e-11 5.01222e-11)
(0 0 0)
(0 0 0)
(0 0 0)
(2.52961e-11 -7.83868e-11 4.63873e-11)
(8.94292e-11 -2.2063e-10 1.08606e-10)
(0 0 0)
(0 0 0)
(0 0 0)
(-2.71997e-13 -2.25287e-10 1.01454e-10)
(9.96943e-11 -3.85144e-10 1.71131e-10)
(0 0 0)
(0 0 0)
(0 0 0)
(-9.60578e-12 -3.71359e-10 1.60616e-10)
(1.0758e-10 -5.21332e-10 2.31032e-10)
(0 0 0)
(0 0 0)
(0 0 0)
(-2.59137e-11 -4.88318e-10 2.17156e-10)
(1.41411e-10 -6.33406e-10 2.80649e-10)
(0 0 0)
(0 0 0)
(0 0 0)
(-7.79516e-11 -5.80416e-10 2.63559e-10)
(2.33764e-10 -7.70609e-10 3.1253e-10)
(0 0 0)
(0 0 0)
(0 0 0)
(-1.97993e-10 -6.96348e-10 2.92689e-10)
(3.77363e-10 -1.0188e-09 3.21943e-10)
(0 0 0)
(0 0 0)
(0 0 0)
(-3.77455e-10 -9.17152e-10 3.00368e-10)
(4.29553e-10 -1.21845e-09 3.1412e-10)
(2.29882e-10 -1.22308e-09 3.07956e-10)
(-7.36006e-11 -1.17122e-09 3.05856e-10)
(-3.60235e-10 -1.1413e-09 2.97736e-10)
(-4.96237e-10 -1.09768e-09 2.9539e-10)
(1.26476e-11 9.07154e-12 5.97192e-12)
(0 0 0)
(0 0 0)
(0 0 0)
(2.29547e-11 -5.93824e-12 5.49824e-12)
(5.2675e-11 -5.57893e-11 2.58371e-11)
(0 0 0)
(0 0 0)
(0 0 0)
(2.666e-11 -7.83877e-11 2.40591e-11)
(8.9712e-11 -2.16314e-10 5.50574e-11)
(0 0 0)
(0 0 0)
(0 0 0)
(9.97941e-13 -2.22728e-10 5.16472e-11)
(1.01882e-10 -3.77727e-10 8.58224e-11)
(0 0 0)
(0 0 0)
(0 0 0)
(-9.13165e-12 -3.66133e-10 8.07911e-11)
(1.11887e-10 -5.11364e-10 1.15034e-10)
(0 0 0)
(0 0 0)
(0 0 0)
(-2.62852e-11 -4.80758e-10 1.08361e-10)
(1.47396e-10 -6.21686e-10 1.38996e-10)
(0 0 0)
(0 0 0)
(0 0 0)
(-7.86713e-11 -5.71144e-10 1.30737e-10)
(2.40302e-10 -7.57903e-10 1.54186e-10)
(0 0 0)
(0 0 0)
(0 0 0)
(-1.97971e-10 -6.85993e-10 1.4456e-10)
(3.83025e-10 -1.00452e-09 1.58527e-10)
(0 0 0)
(0 0 0)
(0 0 0)
(-3.75366e-10 -9.05039e-10 1.48035e-10)
(4.3448e-10 -1.20306e-09 1.54519e-10)
(2.35145e-10 -1.20913e-09 1.50957e-10)
(-6.92103e-11 -1.15884e-09 1.4951e-10)
(-3.56649e-10 -1.12831e-09 1.45987e-10)
(-4.92549e-10 -1.08404e-09 1.45405e-10)
(1.85131e-11 3.49471e-12 0)
(8.44844e-12 -1.09344e-11 0)
(4.83704e-13 -1.86697e-11 0)
(-3.30599e-12 -1.56841e-11 0)
(1.14624e-11 -1.20764e-11 0)
(5.21183e-11 -6.52818e-11 0)
(3.00768e-11 -9.00958e-11 0)
(4.00186e-12 -1.05904e-10 0)
(-1.2278e-11 -9.76514e-11 0)
(1.44973e-12 -8.32549e-11 0)
(8.52645e-11 -2.19265e-10 0)
(4.83035e-11 -2.36464e-10 0)
(8.87532e-12 -2.49008e-10 0)
(-1.94997e-11 -2.3823e-10 0)
(-1.97364e-11 -2.24477e-10 0)
(9.60274e-11 -3.76834e-10 0)
(5.34316e-11 -3.87949e-10 0)
(1.01629e-11 -3.95272e-10 0)
(-2.23835e-11 -3.81413e-10 0)
(-2.83422e-11 -3.66689e-10 0)
(1.04865e-10 -5.12565e-10 0)
(5.6152e-11 -5.28404e-10 0)
(6.39174e-12 -5.35285e-10 0)
(-3.27529e-11 -5.12641e-10 0)
(-4.44238e-11 -4.85977e-10 0)
(1.38906e-10 -6.32085e-10 0)
(7.44565e-11 -6.62294e-10 0)
(-2.87476e-12 -6.71474e-10 0)
(-6.93289e-11 -6.36753e-10 0)
(-9.56878e-11 -5.88184e-10 0)
(2.27516e-10 -7.79462e-10 0)
(1.26222e-10 -8.19169e-10 0)
(-1.81094e-11 -8.2388e-10 0)
(-1.50635e-10 -7.82934e-10 0)
(-2.11586e-10 -7.16814e-10 0)
(3.60033e-10 -1.02453e-09 0)
(2.01051e-10 -1.04558e-09 0)
(-4.00313e-11 -1.02923e-09 0)
(-2.66997e-10 -9.94604e-10 0)
(-3.80851e-10 -9.36891e-10 0)
(4.2402e-10 -1.19832e-09 0)
(2.38363e-10 -1.19322e-09 0)
(-6.02697e-11 -1.15241e-09 0)
(-3.42571e-10 -1.12296e-09 0)
(-4.85548e-10 -1.08927e-09 0)
)
;

boundaryField
{
    interface
    {
        type            calculated;
    }
    symmetry
    {
        type            symmetry;
    }
    bottom
    {
        type            calculated;
    }
}


// ************************************************************************* //
