/*--------------------------------*- C++ -*----------------------------------*\
| =========                 |                                                 |
| \\      /  F ield         | OpenFOAM: The Open Source CFD Toolbox           |
|  \\    /   O peration     | Version:  v1912                                 |
|   \\  /    A nd           | Website:  www.openfoam.com                      |
|    \\/     M anipulation  |                                                 |
\*---------------------------------------------------------------------------*/
FoamFile
{
    version     2.0;
    format      ascii;
    class       volSymmTensorField;
    location    "0.8/solid";
    object      sigma;
}
// * * * * * * * * * * * * * * * * * * * * * * * * * * * * * * * * * * * * * //

dimensions      [1 -1 -2 0 0 0 0];


internalField   nonuniform List<symmTensor> 
256
(
(-144591 32791.2 -11923.5 516497 37615.8 -153070)
(94894.8 -5481.01 -5092.24 334483 37250.9 -198846)
(97027.9 4324.87 4792.27 330795 37237.1 -193478)
(-114825 -31955.3 11720.4 504992 37615.4 -136649)
(-172219 456.812 -18388.7 205308 5693.38 -174049)
(-15138.4 -5394.38 -8493.11 119518 7349.74 -240609)
(-11099.3 5352.83 8175.59 118849 7470.21 -234478)
(-139550 -347.097 18119.9 204733 6015.02 -156480)
(-173159 -4690.54 -19896 196519 466.829 -174464)
(-31918.3 -5123.28 -9377.2 79314.6 736.684 -250714)
(-27868.8 5329.29 9123.82 79054.6 817.88 -244397)
(-140230 4753.94 19635.1 196053 689.758 -156648)
(-169422 -3232.16 -20711.7 215536 1713.71 -173986)
(-23743.4 -3962.87 -9808.4 65860 1211.1 -255976)
(-19727.3 4116.77 9589.58 65653.8 1248.62 -249534)
(-136059 3305.88 20461.4 214821 1822.6 -155891)
(-173741 -339.569 -21571.2 221584 5159.25 -180805)
(-21605.3 -2004.19 -10285.9 53119.8 4432.27 -267715)
(-17541.8 2053.64 10074 52911.5 4442.12 -261151)
(-139772 381.865 21327.2 220856 5188.6 -162372)
(-193167 5283.44 -22300 195398 11519.6 -199106)
(-40949.3 1583.45 -10727.5 23394.4 11075 -292972)
(-36826.5 -1734.96 10506.7 23272.8 11062.8 -286271)
(-158546 -5329.39 22061.1 194998 11483.6 -180243)
(-222333 15141.7 -22004.6 82185.8 21091 -223886)
(-76126.5 7116.47 -10624.6 -69561.2 22051.8 -327173)
(-71871.6 -7653.02 10382.8 -68706.9 22010 -320263)
(-186912 -15309.5 21769.3 84451.3 20978.2 -204400)
(-141128 19846.1 -19795.4 -141733 25051 -141417)
(54389.2 9630.78 -9595.35 -233127 27372.8 -232668)
(58423.4 -9336.19 9324.58 -226692 27322.7 -226283)
(-105854 -19589.6 19559.5 -123524 24927.7 -123380)
(-194096 19709.2 -9324.7 253895 4623.74 72753.2)
(-32627.3 -8984.45 -3079.45 58975.1 19266.6 -38379.1)
(-30500.5 8744.67 3390.61 56008.9 19728.4 -38547.9)
(-164766 -18552.6 9422.15 244108 5921.17 73129.7)
(-227903 -1930.65 -14505.7 85355.9 7484.11 -1939.77)
(-136315 -6010.96 -6179.07 -41056.7 15223.1 -137127)
(-132089 6300.86 6617.91 -41609.1 15482.7 -135905)
(-195463 2128.98 14616.9 84863.4 8214.56 1328.9)
(-234905 -4936.92 -15309.5 65898.8 6396.02 -13466.4)
(-162884 -4969.44 -6771.05 -92267.2 8819.87 -166736)
(-158544 5187.9 7292.7 -92059.1 8979.2 -165353)
(-202024 4981.37 15435.4 66331.9 6851.04 -10218.8)
(-236559 -3402.79 -15574.3 65025.3 6895.88 -12234.2)
(-165022 -3816.45 -6841.98 -124975 7173.07 -177166)
(-160671 3905.43 7430.79 -124516 7263.82 -175779)
(-203143 3444.07 15721.5 65648.9 7155.88 -9131.27)
(-245673 -612.291 -16020.8 61450 11518.9 -15262.9)
(-171724 -2019.9 -7099.55 -149315 11094.7 -189814)
(-167306 2012.36 7718.47 -148808 11130 -188431)
(-211550 638.28 16184.2 62150.8 11613.1 -12201.2)
(-271500 5246.49 -16398 39221.5 19089.9 -30679.1)
(-200232 1533.64 -7407.9 -177652 18514.9 -216082)
(-195743 -1717.09 8022.29 -177089 18503.3 -214692)
(-236585 -5289.63 16571.8 40152.8 19041.1 -27558.4)
(-309972 16171.8 -16125.4 -51129.8 25035.2 -52219.3)
(-243256 7410.19 -7367.45 -246202 24934.2 -246733)
(-238637 -7969.88 7955.98 -244752 24883.9 -245270)
(-274123 -16330.3 16306.9 -47737.2 24876 -48804.5)
(-222658 22035.2 -15066.3 -224176 21217.1 82031.7)
(-75991.3 10642.8 -7046.59 -327516 22157.4 -69056.7)
(-71703 -10384.8 7639.08 -320512 22115.8 -68178.2)
(-186985 -21783.7 15268.6 -204399 21103.3 84335)
(-174769 10697.4 -3883.66 168698 15205.7 116158)
(-35134.8 -12939.3 -535.142 -8015.57 29401.6 -3624.53)
(-32996.6 12745.8 684.017 -10646.3 29655.5 -4306.99)
(-146246 -9565.57 3907.06 159804 15985.2 115131)
(-191105 -3305.15 -5879.26 62797.6 18607.4 84895.2)
(-101843 -6804.83 -1667.36 -62049.9 25864.9 -67199.2)
(-97783.3 7180.72 1864.65 -62683.3 26052 -66798.8)
(-159780 3534.02 5915.9 62013.3 19167.6 85962.3)
(-195410 -4757.28 -5848.78 59464.8 17148.4 70276.7)
(-121080 -4811.69 -1755.18 -94501.2 19466.5 -101255)
(-116921 5072.43 1966.28 -94428.4 19601.9 -100687)
(-163645 4816.1 5891.74 59491.4 17544.3 71322.1)
(-197290 -3322.75 -5613.51 63406.4 16152.6 66265.7)
(-123032 -3717.57 -1567.11 -119039 16459 -117912)
(-118857 3804.85 1801.71 -118688 16546.4 -117340)
(-164963 3363.73 5666.31 63686.6 16403.5 67149.7)
(-206368 -667.885 -5548.71 64864 18236.8 61235.8)
(-129755 -2105.37 -1528.69 -137194 17914.5 -133960)
(-125496 2073 1778.85 -136769 17955.5 -133402)
(-173254 690.552 5611.16 65267.4 18346.6 62034.7)
(-231963 5322.51 -5515.89 51756.6 21233 47509.6)
(-157254 1448.28 -1599.19 -156119 20716.9 -159757)
(-152894 -1668.64 1847.22 -155629 20717.4 -159200)
(-197895 -5367.11 5586.11 52389.7 21217.8 48327.8)
(-271606 16449.6 -5428.81 -28485.2 19949.3 37080.4)
(-199394 7440.15 -1683.71 -214289 19349.6 -179035)
(-194860 -8046.59 1919.11 -212906 19324.8 -178415)
(-236363 -16609.2 5508.3 -25388 19857.3 38145.2)
(-193489 22333.5 -5419.32 -199239 12017.8 195924)
(-39788.9 10736.9 -1715.65 -293026 11560.5 24748.1)
(-35590.3 -10504.4 1962.31 -286171 11543.7 24686.3)
(-158292 -22080.8 5520.89 -179925 11964.4 195651)
(-159694 6997.34 -1022.64 135346 18755.4 111905)
(-30568.4 -14251.5 636.091 -26317.8 27438.7 -3281.27)
(-28459 13948.9 -549.149 -28797.5 27590.6 -3900.2)
(-131816 -5957.01 1024.27 126962 19265.6 111044)
(-167127 -3597.2 -1320.76 48956.5 22685.7 101511)
(-79286.5 -6940.51 741.77 -69947.7 27055.8 -47814.5)
(-75318.7 7267.63 -633.85 -70533.8 27181.6 -47443.4)
(-136584 3806.53 1324.75 48234.1 23086.6 102468)
(-169434 -4334.02 -974.912 54984 22313.6 88063.9)
(-93151.8 -4532.8 943.245 -91043.2 23602.7 -80027.2)
(-89085.1 4786.67 -849.781 -90984.9 23702.3 -79490.9)
(-138455 4394.26 977.701 54931.1 22616.2 88989.7)
(-171323 -3000.13 -607.54 66778.8 20858.9 79148)
(-94366.5 -3499.22 1193.24 -105238 20850.4 -101081)
(-90276.5 3586.79 -1105.14 -104922 20920.8 -100524)
(-139759 3044.08 611.013 66937.3 21065.8 79951.2)
(-180449 -495.234 -371.565 74623.2 20121.4 70865.3)
(-100964 -2046.34 1333.39 -115827 19758.1 -120368)
(-96778.9 2005.08 -1244.53 -115432 19797.1 -119816)
(-148036 519.025 378.119 74908 20229.7 71598)
(-205704 5357.4 -256.429 65935.4 18576.6 59208.1)
(-127625 1356.83 1336.43 -130207 18181.2 -144200)
(-123314 -1598.8 -1249.57 -129734 18192.1 -143646)
(-172217 -5401.68 267.518 66469.1 18596 59950)
(-244910 16108.6 -346.076 -11959.3 13341.5 58936.5)
(-168301 7112.29 1177.99 -187150 12848.2 -153309)
(-163784 -7748.1 -1096.89 -185769 12842.1 -152703)
(-210059 -16267 364.345 -8936.99 13307.1 59875.5)
(-172715 21660.9 -592.583 -180402 6238.47 225687)
(-16824.1 10304.5 1112.86 -267211 5567.09 55698.3)
(-12632.9 -10086.4 -1026.58 -260416 5561.37 55576.1)
(-137771 -21405 625.062 -161315 6215.82 225144)
(-151580 5909.03 -134.432 120187 17193.8 103088)
(-29317.8 -14116.6 731.408 -32509.6 21524.2 -5547.12)
(-27244.6 13726.6 -670.604 -34905.7 21628.2 -6103.2)
(-124141 -4941.56 136.043 112152 17552.3 102417)
(-156366 -3416.6 71.1709 40046.2 20592.7 98493.1)
(-71754.3 -6692.86 1167.46 -73679.2 22656.3 -42099.2)
(-67861 6953.51 -1089.2 -74224.3 22745.4 -41688.6)
(-126338 3597.11 -68.6338 39420.5 20885.4 99556.8)
(-158063 -3934.5 411.868 49241.8 21258.2 87064.7)
(-83439.1 -4256.53 1413.94 -90266.1 21712.2 -70915)
(-79445.7 4478 -1352.66 -90201.4 21784 -70348.1)
(-127604 3985.1 -413.16 49201.7 21484.2 88070.7)
(-160123 -2685.25 710.969 65414.4 20085.6 76679.3)
(-84434 -3295.3 1610.01 -98588.2 19870.3 -92657.2)
(-80411.1 3371.15 -1563.92 -98284.6 19923.3 -92063.9)
(-129061 2727.2 -715.808 65543.1 20246.9 77571.8)
(-169417 -314.349 915.562 77037.9 17972.5 67399.3)
(-91115.7 -1964.17 1725.78 -104611 17643.3 -112547)
(-86988.8 1915.52 -1687.36 -104234 17676.3 -111952)
(-137460 338.426 -921.332 77281.7 18068 68229.4)
(-194445 5323.75 991.102 69979.4 14367.9 58182.1)
(-117307 1261.17 1727.06 -117397 14141.2 -133798)
(-113041 -1514.71 -1693.01 -116934 14156 -133201)
(-161335 -5367.1 -995.304 70483.3 14403.8 59012.5)
(-232991 15667.3 856.08 -6888.84 8552.56 63745.6)
(-156907 6757.63 1583.99 -174516 8327.83 -137343)
(-152412 -7408.68 -1554.44 -173135 8330.48 -136698)
(-198402 -15823.9 -856.426 -3881.84 8549.08 64738.3)
(-164125 20952.6 627.767 -171481 3441.34 229853)
(-11122.8 9873.82 1540.59 -254124 3001.93 68414.3)
(-6942.62 -9663.91 -1511.39 -247352 3000.76 68314.6)
(-129342 -20694.6 -621.069 -152486 3433.49 229292)
(-146979 5688.44 18.9116 113134 13365.4 97226.2)
(-29395.7 -13677 483.467 -34871.6 15339.6 -6895.25)
(-27347.9 13231.2 -441.555 -37213.1 15409.7 -7417.23)
(-119804 -4768.1 -15.8129 105343 13605.1 96679.9)
(-151275 -3171.2 231.605 35700.5 15680.8 93658.7)
(-69925.9 -6412.68 827.61 -74769.5 16514.1 -40075.7)
(-66084.7 6623.21 -770.341 -75290.2 16575.6 -39639.1)
(-121558 3329.54 -226.279 35151.6 15883.3 94818.6)
(-152965 -3654.4 463.847 45696.9 16545.9 83819.9)
(-81012.6 -4060.31 1004.48 -89688.4 16601.8 -66168.1)
(-77071.4 4248.63 -959.324 -89620.4 16651.7 -65582.2)
(-122820 3693.67 -461.698 45678.7 16705.5 84901.4)
(-155216 -2472.7 652.969 63387.8 15765.7 74031.5)
(-82074.9 -3165.42 1123.26 -95666.6 15525.6 -86767.6)
(-78100.4 3224.08 -1092.64 -95372 15563.2 -86156.5)
(-124453 2509.66 -654.963 63509.1 15882.8 74991.6)
(-164624 -199.535 779.754 76451.6 13612 65438.5)
(-88856.4 -1915.02 1188.74 -99810.2 13381.3 -105707)
(-84772.6 1857.28 -1167.81 -99445.4 13406.2 -105093)
(-132937 222.129 -784.165 76676.9 13686.8 66332.6)
(-189459 5271.96 814.417 69955 10073.8 58195.9)
(-114739 1186.05 1181.96 -112097 9981.89 -124933)
(-110506 -1447.22 -1166.71 -111644 9995.36 -124316)
(-156569 -5315.03 -819.079 70444.3 10110 59081.2)
(-227467 15343.6 708.819 -5825.79 5420.66 66295.2)
(-153632 6518.77 1088.73 -168938 5383.38 -126205)
(-149158 -7178.08 -1077.97 -167561 5388.43 -125542)
(-193030 -15499 -712.074 -2826.13 5429.26 67321.7)
(-160487 20476.4 546.874 -166858 2021.03 229739)
(-11306.1 9597.02 1060.5 -247126 1815.01 75432.6)
(-7137.85 -9391.8 -1053.09 -240366 1815.59 75345.5)
(-125792 -20217.2 -547.523 -147907 2020.07 229174)
(-144292 5661.99 11.9197 110032 8393.87 94109.6)
(-29591.9 -13355.1 243.235 -35688.4 9236.06 -7634.47)
(-27558.2 12876.8 -218.405 -37994.7 9276.74 -8138.13)
(-117264 -4769.11 -9.18248 102397 8531.18 93638.2)
(-148591 -3007.34 125.072 34007.7 9670.96 90517.9)
(-69579.1 -6232.19 423.417 -74784.5 9971.65 -39470.4)
(-65767.9 6411.87 -387.926 -75290.1 10008 -39019.3)
(-119048 3152.13 -120.026 33512.7 9790 91743.2)
(-150394 -3493.91 247.092 44128.4 10262.2 81686.2)
(-80586.3 -3950.52 516.186 -89074.6 10213.9 -63913.6)
(-76675.6 4115.25 -487.317 -89004.8 10243.6 -63317.1)
(-120424 3524.87 -243.768 44128.3 10357.9 82822.7)
(-152776 -2355.69 344.562 62081.2 9813.04 72943.8)
(-81764.3 -3099.63 574.261 -94362.4 9649.72 -83193.9)
(-77818.2 3143.57 -554.973 -94073.3 9672.39 -82574.6)
(-122178 2387.89 -344.131 62202.6 9884.82 73950.1)
(-162233 -141.146 407.859 75446.9 8341.13 65418.2)
(-88600.8 -1894.33 603.479 -97981.5 8214.87 -100964)
(-84542.4 1828.18 -591.496 -97624.8 8230.47 -100343)
(-130693 161.662 -409.52 75664.5 8388.94 66351.3)
(-186921 5233.3 421.217 69134.6 5965.27 59438.6)
(-114281 1140.76 596.742 -110125 5942.91 -118938)
(-110070 -1407.53 -589.382 -109678 5952.08 -118315)
(-154152 -5276.74 -423.637 69617.1 5991.16 60355)
(-224582 15156.8 361.105 -5732.36 3086.24 68452.6)
(-152753 6391.74 549.048 -166484 3115.33 -119443)
(-148292 -7055.9 -545.228 -165110 3119.44 -118774)
(-190225 -15311.6 -363.292 -2735.92 3095.48 69497.7)
(-158628 20214.1 266.044 -164274 1109.43 229719)
(-12305.2 9452.32 531.243 -243286 1035.4 79368.9)
(-8143.98 -9249.77 -530.919 -236532 1036.23 79286.4)
(-123977 -19954.4 -267.675 -145343 1110.62 229151)
(-143014 5658.92 1.2156 108893 2855.12 92804.5)
(-29669.5 -13206.7 71.5363 -35891.3 3091 -7975.73)
(-27641.9 12713.4 -63.2925 -38180.4 3104.34 -8471.04)
(-116051 -4778.64 -0.172993 101334 2899.79 92368.7)
(-147351 -2934.95 33.2786 33504.2 3257.59 89114.1)
(-69503.1 -6153.06 124.188 -74610.7 3331.87 -39363.6)
(-65705.4 6318.33 -112.129 -75108.5 3343.9 -38905.9)
(-117886 3073.45 -31.2935 33037.1 3296.82 90372.2)
(-149224 -3424.48 69.8707 43610.9 3456.97 80770.3)
(-80525.9 -3904.68 151.648 -88688.4 3430.74 -63061.1)
(-76628.8 4057.64 -141.635 -88617.6 3440.66 -62459.6)
(-119332 3451.28 -68.3952 43621.3 3488.9 81935.8)
(-151666 -2305.97 99.2617 61515.3 3308.38 72691.6)
(-81771.5 -3073.88 168.481 -93841.8 3252.6 -81578)
(-77838.1 3109.73 -161.744 -93555.2 3260.21 -80955.1)
(-121142 2335.48 -98.792 61638.2 3332.61 73722.2)
(-161137 -117.636 118.016 74863.5 2796.42 65839.1)
(-88627.9 -1887.71 176.449 -97385.4 2757.38 -98650)
(-84580.8 1816.6 -172.369 -97032.5 2762.69 -98026.5)
(-129662 136.774 -118.34 75078.5 2812.87 66791.6)
(-185749 5214.59 121.447 68600.9 1976.75 60458.8)
(-114209 1120.85 173.94 -109494 1974.95 -116042)
(-110006 -1390.77 -171.613 -109051 1978.17 -115417)
(-153031 -5258.42 -122.127 69080.8 1986.06 61390)
(-223243 15074.9 102.5 -5771.69 1012.13 69747.2)
(-152483 6339.67 159.744 -165536 1030.02 -116327)
(-148028 -7006.24 -158.767 -164164 1031.55 -115657)
(-188920 -15229.5 -103.206 -2776.3 1015.86 70801.1)
(-157743 20101.6 71.1812 -163068 358.383 229902)
(-12849 9392.99 153.44 -241543 341.875 81141.3)
(-8690.69 -9191.72 -153.9 -234791 342.227 81060.1)
(-123107 -19841.8 -71.8675 -144145 359.055 229333)
)
;

boundaryField
{
    interface
    {
        type            calculated;
        value           nonuniform List<symmTensor> 
192
(
(-39.9637 0.349713 2.68677 945430 37615.8 275863)
(-41.6473 0.342529 4.35667 600200 5693.38 220843)
(-43.3012 0.0859794 4.9824 595614 466.829 224631)
(-44.3942 -0.353926 5.169 623167 1713.71 233645)
(-44.7723 -0.745052 5.14012 645240 5159.25 242850)
(-45.7348 -1.43076 5.0208 646987 11519.6 252483)
(-44.2 -1.95507 4.64786 564187 21091 258115)
(-47.8198 -4.41597 4.36106 268021 25051 268336)
(-38.9593 0.25253 1.31653 691759 4623.74 510618)
(-39.7139 0.267951 2.28517 514000 7484.11 426704)
(-40.7182 0.0449775 2.58013 503897 6396.02 424532)
(-41.4525 -0.400337 2.61656 515033 6895.88 437774)
(-41.5571 -0.810985 2.53147 531620 11518.9 454907)
(-42.3929 -1.56458 2.39882 544537 19089.9 474636)
(-40.567 -2.14369 2.15784 497218 25035.2 496128)
(-44.2667 -4.72338 1.96797 258402 21217.1 564609)
(-41.4954 0.216695 1.03155 562955 15205.7 510415)
(-42.1553 0.230842 1.7666 446620 18607.4 468718)
(-43.143 0.0153183 1.98533 451586 17148.4 462398)
(-43.8904 -0.449046 2.00656 467385 16152.6 470244)
(-43.92 -0.895027 1.93536 489004 18236.8 485375)
(-44.6785 -1.7287 1.82791 511605 21233 507358)
(-42.4158 -2.38984 1.65489 477462 19949.3 543028)
(-45.8738 -5.13791 1.51141 253510 12017.8 648674)
(-41.7203 0.16325 0.625101 498219 18755.4 474778)
(-42.1976 0.155239 1.13269 399101 22685.7 451656)
(-42.9787 -0.0620928 1.27668 412338 22313.6 445418)
(-43.6041 -0.529126 1.27737 435761 20858.9 448130)
(-43.5099 -0.989898 1.21427 463666 20121.4 459908)
(-44.1861 -1.85702 1.12964 490578 18576.6 483851)
(-41.7643 -2.55427 1.02048 459291 13341.5 530187)
(-45.1444 -5.34088 0.935765 244663 6238.47 650751)
(-42.4963 0.137284 0.454921 464304 17193.8 447204)
(-42.9216 0.107567 0.824466 370921 20592.7 429368)
(-43.6097 -0.119442 0.930382 386926 21258.2 424749)
(-44.1817 -0.593693 0.930536 414682 20085.6 425947)
(-44.0092 -1.07056 0.883921 446366 17972.5 436727)
(-44.6095 -1.96634 0.821002 474742 14367.9 462945)
(-42.0174 -2.69648 0.745031 444297 8552.56 514932)
(-45.2498 -5.52297 0.684477 237014 3441.34 638349)
(-42.7079 0.117105 0.2757 446057 13365.4 430149)
(-43.0859 0.0688574 0.517411 355527 15680.8 413485)
(-43.6928 -0.166981 0.587354 372264 16545.9 410387)
(-44.2125 -0.645723 0.585947 401563 15765.7 412206)
(-43.9815 -1.13144 0.55359 434689 13612 423676)
(-44.5334 -2.04136 0.511098 463456 10073.8 451697)
(-41.8602 -2.78842 0.464486 433784 5420.66 505905)
(-45.0324 -5.63419 0.429125 231839 2021.03 628437)
(-42.9642 0.107166 0.161133 436505 8393.87 420583)
(-43.3256 0.0462651 0.302119 347589 9670.96 404100)
(-43.89 -0.197121 0.343268 364468 10262.2 402026)
(-44.3807 -0.679996 0.342596 394055 9813.04 404918)
(-44.1131 -1.17251 0.323913 427472 8341.13 417443)
(-44.6292 -2.09221 0.298823 456287 5965.27 446591)
(-41.8929 -2.85116 0.272523 427271 3086.24 501456)
(-45.0101 -5.71159 0.251356 228714 1109.43 622707)
(-43.0288 0.101068 0.0474336 432387 2855.12 416298)
(-43.3783 0.0336246 0.0923639 344216 3257.59 399826)
(-43.9191 -0.213201 0.10567 361098 3456.97 398257)
(-44.3935 -0.697328 0.105267 390649 3308.38 401825)
(-44.1097 -1.19253 0.0991556 424038 2796.42 415013)
(-44.6087 -2.11573 0.0909446 452828 1976.75 444686)
(-41.8531 -2.88011 0.083147 424170 1012.13 499689)
(-44.9425 -5.74652 0.076526 227237 358.383 620206)
(301117 32791.2 -3.74115 962206 -0.904878 -14.165)
(235469 456.812 -6.38124 612996 -1.10948 -10.1189)
(238898 -4690.54 -7.49463 608577 -0.964257 -6.12493)
(252684 -3232.16 -7.92418 637643 -0.723957 -4.42672)
(265426 -339.569 -8.07898 660751 -0.616765 -3.96721)
(273439 5283.44 -8.20418 662003 -0.654211 -4.54392)
(272927 15141.7 -8.36941 577445 -0.794897 -6.35655)
(280427 19846.1 -9.2156 279822 -1.00264 -7.87287)
(559853 -5481.01 -2.20017 799441 -0.540852 -18.0072)
(440881 -5394.38 -4.22868 575537 -0.852849 -17.1114)
(434994 -5123.28 -5.01672 546227 -0.775686 -15.7384)
(456772 -3962.87 -5.28805 546375 -0.504855 -15.2288)
(480003 -2004.19 -5.3876 554728 -0.316789 -15.0673)
(495177 1583.45 -5.52989 559521 -0.213286 -15.3016)
(500276 7116.47 -5.86122 506842 -0.231373 -15.887)
(557476 9630.78 -6.971 269960 -0.307843 -16.2117)
(551569 4324.87 -2.17733 785336 -0.395718 -15.2062)
(434121 5352.83 -4.23183 564069 -0.699221 -14.5308)
(427852 5329.29 -5.05906 534776 -0.647097 -13.2415)
(449303 4116.77 -5.35166 534684 -0.351922 -12.7193)
(472345 2053.64 -5.4498 542799 -0.108776 -12.5773)
(487341 -1734.96 -5.56481 547440 0.0911344 -12.8053)
(492278 -7653.02 -5.84356 495443 0.197057 -13.4583)
(549899 -9336.19 -6.91325 264783 0.212771 -14.2295)
(299872 -31955.3 -2.37082 919689 -0.323134 -15.4699)
(237122 -347.097 -4.79081 581405 -0.606398 -15.0842)
(239943 4753.94 -5.83638 576225 -0.553614 -13.9557)
(253399 3305.88 -6.22498 604279 -0.235509 -13.5494)
(266087 381.865 -6.35199 626716 0.03348 -13.5135)
(274047 -5329.39 -6.49932 627590 0.278497 -13.7362)
(273513 -15309.5 -6.74096 544876 0.455751 -14.2227)
(282878 -19589.6 -7.86884 265209 0.620159 -14.8463)
(-7.64158 0.743659 0.631522 879221 37615.4 237580)
(-5.1045 0.985878 1.2745 542709 6015.02 181496)
(-2.42727 0.740673 1.4901 537380 689.758 184679)
(-1.02281 0.223654 1.59727 563625 1822.6 192914)
(-0.494878 -0.0629599 1.68084 584568 5188.6 201339)
(0.972192 -0.460049 1.92388 585548 11483.6 210307)
(0.497209 -0.430817 2.1298 504256 20978.2 215404)
(8.98156 -2.60459 2.72512 223820 24927.7 223963)
(-11.6311 0.298687 -0.310877 627990 5921.17 457011)
(-11.1402 0.447003 -0.306596 457484 8214.56 373949)
(-10.3053 0.332906 -0.388094 447310 6851.04 370759)
(-9.70152 0.0323179 -0.403398 457449 7155.88 382668)
(-9.48571 -0.0518294 -0.345154 472801 11613.1 398449)
(-7.96428 -0.281617 -0.120494 484557 19041.1 416846)
(-7.99147 -0.0289341 0.16663 438232 24876 437164)
(0.533087 -2.0358 0.610415 215543 21103.3 504277)
(-11.9107 0.165736 -0.179443 501704 15985.2 457031)
(-11.5608 0.237792 -0.0861508 391642 19167.6 415591)
(-10.9153 0.180406 -0.0497977 396403 17544.3 408233)
(-10.2827 -0.00686345 0.00438397 411219 16403.5 414682)
(-9.98192 0.0309636 0.0914301 431504 18346.6 428271)
(-8.11463 -0.102031 0.276508 452652 21217.8 448591)
(-7.83205 0.263941 0.472076 419075 19857.3 482608)
(1.2171 -1.8249 0.727233 210779 11964.4 586355)
(-13.226 0.0750883 -0.196892 438755 19265.6 422837)
(-13.0922 0.0920225 -0.113875 345557 23086.6 399791)
(-12.759 0.0739891 -0.0572641 358452 22616.2 392511)
(-12.2089 -0.0188676 0.00306463 380817 21065.8 393830)
(-11.882 0.121562 0.0778997 407285 20229.7 403975)
(-9.78221 0.0773035 0.211386 432554 18596 426035)
(-9.17945 0.517044 0.340631 401520 13307.1 470332)
(0.125761 -1.57481 0.494829 202092 6215.82 588551)
(-13.5134 0.0595067 -0.0790882 406051 17552.3 396316)
(-13.3734 0.0577023 0.0308968 318389 20885.4 378525)
(-13.0747 0.0589928 0.113087 333974 21484.2 372843)
(-12.478 0.0107026 0.177996 360602 20246.9 372631)
(-12.0763 0.202155 0.238483 390762 18068 381709)
(-9.82185 0.196568 0.322814 417369 14403.8 405898)
(-9.08731 0.655381 0.388135 386982 8549.08 455602)
(0.346203 -1.48033 0.458509 194611 3433.49 576390)
(-13.9351 0.0542718 -0.0531766 388575 13605.1 379911)
(-13.8002 0.0470921 0.0314885 303626 15883.3 363293)
(-13.526 0.0616872 0.0991868 319890 16705.5 359113)
(-12.903 0.040751 0.148412 348008 15882.8 359490)
(-12.4533 0.264351 0.190268 379547 13686.8 369203)
(-10.0977 0.28287 0.24242 406463 10110 395100)
(-9.26505 0.749212 0.278774 376732 5429.26 446880)
(0.263818 -1.40986 0.315993 189528 2020.07 566609)
(-14.0563 0.057464 -0.0152776 379477 8531.18 370718)
(-13.9056 0.0508679 0.04237 296058 9790 354288)
(-13.6199 0.0725192 0.0874168 312428 10357.9 351122)
(-12.9666 0.0636654 0.118207 340798 9884.82 352545)
(-12.4835 0.301782 0.14263 372588 8388.94 363275)
(-10.0718 0.329596 0.169747 399502 5991.16 390240)
(-9.1988 0.796271 0.186291 370361 3095.48 442595)
(0.379857 -1.38257 0.200853 186449 1110.62 560943)
(-14.1609 0.0581322 -0.00856833 375569 2899.79 366604)
(-14.0078 0.0524556 0.0095648 292855 3296.82 350190)
(-13.7192 0.0779472 0.0245234 309210 3488.9 347524)
(-13.0535 0.0749966 0.0346607 337526 3332.61 349610)
(-12.5534 0.319988 0.0428252 369269 2812.87 360982)
(-10.1146 0.352652 0.0516239 396136 1986.06 388445)
(-9.21395 0.819555 0.057453 367320 1015.86 440898)
(0.386662 -1.36737 0.0621478 184989 359.055 558467)
(281134 9.31008 -19795.4 -7.27983 -0.853838 280844)
(273675 8.50052 -15066.3 -5.46889 -0.643292 578365)
(274654 8.39808 -5419.32 -3.02817 -0.441132 664068)
(268543 8.373 -592.583 -1.53778 -0.29067 666944)
(260445 8.42524 627.767 -0.379082 -0.206425 654423)
(253843 8.45854 546.874 0.430807 -0.128157 644069)
(249645 8.49097 266.044 0.944605 -0.0764396 637992)
(247683 8.50482 71.1812 1.19111 -0.023317 635328)
(558163 7.03058 -9595.35 -15.7372 -0.127404 271106)
(501379 5.92494 -7046.59 -15.2761 -0.0421843 508313)
(497642 5.60427 -1715.65 -14.3107 0.0539759 562179)
(486550 5.48102 1112.86 -13.6282 0.0761527 559072)
(471785 5.45104 1540.59 -13.0378 0.0726393 551322)
(459368 5.43261 1060.5 -12.6107 0.0587532 546107)
(451288 5.43081 531.243 -12.33 0.0360932 542962)
(447460 5.42876 153.44 -12.1835 0.0132731 541451)
(550488 6.97143 9324.58 -13.784 0.411526 265782)
(493240 5.8904 7639.08 -12.874 0.408919 496765)
(489602 5.61336 1962.31 -11.8476 0.385689 549879)
(478602 5.52149 -1026.58 -11.1741 0.315575 546811)
(463865 5.50765 -1511.39 -10.5742 0.249068 539122)
(451453 5.49863 -1053.09 -10.1786 0.175151 533937)
(443373 5.50122 -530.919 -9.90491 0.104605 530804)
(439546 5.50046 -153.9 -9.77968 0.0345013 529296)
(283262 7.89213 19559.5 -14.4526 0.822874 265736)
(273980 6.74991 15268.6 -13.7315 0.673449 545300)
(275009 6.50324 5520.89 -12.9752 0.572201 628952)
(268959 6.38482 625.062 -12.446 0.450189 631874)
(260827 6.36888 -621.069 -11.9264 0.350857 619461)
(254194 6.35327 -547.523 -11.6065 0.242687 609159)
(249977 6.35518 -267.675 -11.3714 0.145843 603104)
(248008 6.35376 -71.8675 -11.2654 0.0475948 600449)
)
;
    }
    symmetry
    {
        type            symmetry;
    }
    bottom
    {
        type            calculated;
        value           nonuniform List<symmTensor> 
32
(
(-726497 92838.3 -11923.5 211459 88847.4 -734976)
(-516712 60824.1 -9324.7 63386.6 -3854.76 -249863)
(-433147 39224.4 -3883.66 9017.92 5699.38 -142220)
(-395267 30000.8 -1022.64 -9518.26 13338.8 -123668)
(-376103 26745.9 -134.432 -17390.7 14400.9 -121435)
(-365446 25603.3 18.9116 -20818.9 11971.8 -121240)
(-359423 25135.3 11.9197 -22045.6 7756.06 -121022)
(-356640 24942.6 1.2156 -22356.4 2672.12 -120822)
(-251613 -2712.2 -5092.24 141486 81342.7 -545354)
(-130917 -9224.65 -3079.45 -7953.27 13079 -136669)
(-86756.2 -15619 -535.142 -45115 23178.6 -55245.9)
(-71495 -17779.1 636.091 -51093.2 24119.7 -44207.9)
(-66949.4 -17758.8 731.408 -52865.4 19800.9 -43178.6)
(-65890.3 -17264.2 483.467 -54097.5 14452.7 -43389.8)
(-65658.3 -16891.2 243.235 -54737.1 8824.44 -43700.9)
(-65578.8 -16719.3 71.5363 -54942.6 2973.15 -43885.1)
(-245299 208.305 4792.27 140139 80921.9 -535805)
(-127807 7766.49 3390.61 -10731.4 13639.2 -135854)
(-83941.1 14198.2 684.017 -47654.9 23498.5 -55251.5)
(-68770.8 16257.3 -549.149 -53521.1 24303 -44212)
(-64292.1 16167 -670.604 -55230.8 19921.6 -43150.7)
(-63275.3 15632.2 -441.555 -56415.4 14532.7 -43344.6)
(-63066.7 15237.3 -218.405 -57022.6 8870.56 -43646.6)
(-62997.6 15055.7 -63.2925 -57211.8 2988.24 -43826.7)
(-673752 -90902.2 11720.4 213988 87835.1 -695577)
(-473693 -58471.8 9422.15 61114.2 -2281.51 -235797)
(-392028 -36985.8 3907.06 7241.32 6663.04 -130650)
(-355185 -27934.8 1024.27 -10952.8 13944.9 -112324)
(-336705 -24799.1 136.043 -18572.1 14813.7 -110146)
(-326457 -23728.1 -15.8129 -21795.1 12243.8 -109973)
(-320663 -23300.1 -9.18248 -22882.6 7910.92 -109761)
(-317982 -23125.5 -0.172993 -23124.4 2722.37 -109562)
)
;
    }
}


// ************************************************************************* //
