/*--------------------------------*- C++ -*----------------------------------*\
| =========                 |                                                 |
| \\      /  F ield         | OpenFOAM: The Open Source CFD Toolbox           |
|  \\    /   O peration     | Version:  v1912                                 |
|   \\  /    A nd           | Website:  www.openfoam.com                      |
|    \\/     M anipulation  |                                                 |
\*---------------------------------------------------------------------------*/
FoamFile
{
    version     2.0;
    format      ascii;
    class       volScalarField;
    location    "0.8/solid";
    object      sigmaEq;
}
// * * * * * * * * * * * * * * * * * * * * * * * * * * * * * * * * * * * * * //

dimensions      [1 -1 -2 0 0 0 0];


internalField   nonuniform List<scalar> 
256
(
671276
467326
459605
637100
379912
315905
310268
354599
372022
291420
286018
346558
388970
288288
282937
362998
400750
291432
286092
374379
394081
290848
285540
367526
310937
258196
253864
286591
65116.1
292123
289717
66879.2
392236
101662
98368.4
357641
281453
100351
97550.5
251000
271675
75620.9
73494.8
241375
272996
50754.4
49511
242222
278959
42042
41733.3
247552
285826
48156.9
47849.6
253823
264884
46938.6
47737.9
233376
311109
258879
254482
286534
322128
63010.5
61713.3
288231
267845
59660.4
57495.4
237323
262463
42286
40568.5
231661
263868
29719.3
29607.4
232427
271454
32013.1
33015.7
239243
284322
36220.6
36554.3
251342
285378
47301.4
47100.7
253085
394883
292221
286828
367945
286159
59294.6
58990.7
253621
249797
55910.7
55160.9
220840
245834
43411.9
43245.6
216195
247233
37888
39047.6
216663
255604
38704.9
40514.4
224067
270421
35229.9
36459.2
237871
277705
38906.9
39092.5
245663
404191
294154
288706
377224
265508
51385
51357.2
233723
234053
51172.4
50918.6
205931
231624
41994.8
42256.1
202673
234026
37100
38460.6
203985
243781
36146.6
38039.1
212683
260091
29733.9
30979.7
227869
270260
37281.3
37176.6
238469
399405
291599
286124
372526
253786
43900.5
43924.1
222349
223436
44750.9
44555.4
195598
222161
36107.6
36364.9
193437
225816
29999.3
31392.2
195951
236942
27780.8
29726.8
206011
254506
21098.5
22054.2
222437
266659
40303.2
39701.3
235056
395062
289619
284102
368211
247371
38004.3
38006.5
216079
217168
38803.6
38537.4
189385
216583
29191.5
29350.9
187887
221181
21258.1
22820.4
191340
233276
18416.9
20697.8
202386
251725
13009.6
13588.2
219721
265239
43681.6
42779.4
233764
392769
288450
282902
365922
244507
34586.6
34560.5
213264
214280
35147.5
34813.5
186492
214016
24399.2
24481.4
185304
219095
14430.3
16393
189244
231671
11088.8
14187.9
200785
250565
7056.01
7278.97
218585
264773
45534.6
44510.3
233363
391885
287916
282353
365039
)
;

boundaryField
{
    interface
    {
        type            calculated;
        value           nonuniform List<scalar> 
192
(
844644
525921
521016
545320
564565
565178
490587
271713
621408
476605
469446
481268
498159
514276
498604
490964
539295
459243
458095
469699
488266
510865
514598
566634
488046
429649
431610
443592
463155
488355
499111
569455
457008
404950
408862
421909
442765
469659
483768
558966
438973
388761
393804
407948
429979
458067
474112
550488
429055
379430
385079
400003
422838
451680
468859
545613
424643
375210
381130
396441
419670
448870
466581
543505
854411
535610
531151
556193
575905
576271
501024
282234
710694
521518
500072
507602
521423
530308
503758
483170
698491
511724
490240
497582
511251
520023
494060
476621
814275
506367
501424
525628
544818
545050
472635
276575
790469
478630
472910
496154
514434
514145
439743
228007
562450
422215
414552
425212
440827
455703
439823
439768
481734
405522
403605
413948
431080
452139
455495
514856
432320
377757
378682
389214
407163
430548
440593
518081
402436
354193
356966
368450
387593
412518
425730
507900
385052
338573
342435
354969
375244
401294
416378
499590
375479
329510
333959
347256
368319
395099
411308
494809
371216
325397
330108
343789
365241
392372
409115
492744
283081
501803
578034
581231
570667
561934
556852
554641
483748
505044
532872
526587
516190
508334
503437
501123
477116
495202
522378
516112
505728
497860
492949
490627
277012
472997
546211
549243
538704
529959
524853
522628
)
;
    }
    symmetry
    {
        type            symmetry;
    }
    bottom
    {
        type            calculated;
        value           nonuniform List<scalar> 
32
(
968376
514129
395308
347902
323954
310871
303815
300688
613375
129063
61312.5
57436
50522.9
43606.1
38096.2
34901.9
603856
124447
57978.1
55017.1
48099.7
40924.9
35057.4
31573.8
925354
475314
357291
311134
288036
275442
268638
265617
)
;
    }
}


// ************************************************************************* //
