/*--------------------------------*- C++ -*----------------------------------*\
| =========                 |                                                 |
| \\      /  F ield         | OpenFOAM: The Open Source CFD Toolbox           |
|  \\    /   O peration     | Version:  v1912                                 |
|   \\  /    A nd           | Website:  www.openfoam.com                      |
|    \\/     M anipulation  |                                                 |
\*---------------------------------------------------------------------------*/
FoamFile
{
    version     2.0;
    format      ascii;
    class       surfaceScalarField;
    location    "0.04/fluid";
    object      meshPhi;
}
// * * * * * * * * * * * * * * * * * * * * * * * * * * * * * * * * * * * * * //

dimensions      [0 3 -1 0 0 0 0];
oriented        oriented;


internalField   nonuniform List<scalar> 
41600
(
2.84337e-12
-6.65047e-12
1.62269e-12
-1.76958e-12
4.0222e-12
-2.13262e-11
5.22982e-12
-5.63787e-12
3.11364e-12
-4.00448e-11
9.89187e-12
-1.0493e-11
1.60595e-13
-6.47983e-11
1.6128e-11
-1.68552e-11
-4.58704e-12
-9.653e-11
2.42411e-11
-2.50464e-11
-1.1192e-11
-1.35599e-10
3.45555e-11
-3.54269e-11
-2.05293e-11
-1.82368e-10
4.77903e-11
-4.87341e-11
-3.45743e-11
-2.37326e-10
6.53436e-11
-6.6355e-11
-5.61887e-11
-3.00246e-10
8.91553e-11
-9.02032e-11
-8.80935e-11
-3.68366e-10
1.2092e-10
-1.21905e-10
-1.30518e-10
-4.34193e-10
1.60895e-10
-1.61353e-10
-1.79512e-10
-4.84522e-10
2.07338e-10
-2.05174e-10
-2.33599e-10
-5.02957e-10
2.57745e-10
-2.4705e-10
-3.02814e-10
-4.71695e-10
3.10369e-10
-2.79592e-10
-3.89466e-10
-3.72542e-10
3.63348e-10
-2.93048e-10
-1.31429e-10
5.23301e-10
-2.07685e-10
8.14871e-12
-1.29159e-11
4.81523e-12
-5.24199e-12
1.16002e-11
-4.14014e-11
1.55077e-11
-1.6696e-11
9.06828e-12
-7.76991e-11
2.92956e-11
-3.10549e-11
5.52284e-13
-1.25722e-10
4.77099e-11
-4.98629e-11
-1.33674e-11
-1.87425e-10
7.16623e-11
-7.40954e-11
-3.29009e-11
-2.63589e-10
1.02131e-10
-1.04832e-10
-6.04488e-11
-3.54845e-10
1.41229e-10
-1.44244e-10
-1.01366e-10
-4.61978e-10
1.93037e-10
-1.96371e-10
-1.63304e-10
-5.8468e-10
2.63289e-10
-2.66833e-10
-2.52891e-10
-7.18561e-10
3.57197e-10
-3.60606e-10
-3.68568e-10
-8.51349e-10
4.7594e-10
-4.77779e-10
-4.95113e-10
-9.61322e-10
6.14574e-10
-6.09137e-10
-6.19439e-10
-1.02311e-09
7.64382e-10
-7.36875e-10
-7.47103e-10
-1.01725e-09
9.16573e-10
-8.40486e-10
-8.63156e-10
-9.41048e-10
1.0623e-09
-8.97085e-10
-8.06674e-10
1.28678e-09
-8.41108e-10
1.28951e-11
-1.83477e-11
7.83485e-12
-8.51321e-12
1.85569e-11
-5.88828e-11
2.52163e-11
-2.71131e-11
1.48473e-11
-1.10689e-10
4.7583e-11
-5.04215e-11
1.51597e-12
-1.79438e-10
7.74128e-11
-8.09545e-11
-2.07621e-11
-2.68054e-10
1.16212e-10
-1.20336e-10
-5.22812e-11
-3.7766e-10
1.65577e-10
-1.70324e-10
-9.63196e-11
-5.08924e-10
2.28845e-10
-2.34346e-10
-1.60218e-10
-6.62733e-10
3.12486e-10
-3.18787e-10
-2.5422e-10
-8.3916e-10
4.25862e-10
-4.32771e-10
-3.85804e-10
-1.03417e-09
5.78134e-10
-5.84981e-10
-5.48422e-10
-1.23477e-09
7.72666e-10
-7.77039e-10
-7.12607e-10
-1.41601e-09
1.00243e-09
-9.96201e-10
-8.47214e-10
-1.54732e-09
1.251e-09
-1.21521e-09
-9.38294e-10
-1.607e-09
1.49745e-09
-1.4018e-09
-9.57539e-10
-1.59553e-09
1.72126e-09
-1.52465e-09
-1.52146e-09
2.01533e-09
-1.55813e-09
1.73615e-11
-2.28084e-11
1.06042e-11
-1.15063e-11
2.52719e-11
-7.33335e-11
3.4115e-11
-3.66528e-11
2.08303e-11
-1.38187e-10
6.43258e-11
-6.81773e-11
3.45999e-12
-2.24552e-10
1.0458e-10
-1.09495e-10
-2.61347e-11
-3.36166e-10
1.5693e-10
-1.62829e-10
-6.81086e-11
-4.74333e-10
2.23481e-10
-2.305e-10
-1.25787e-10
-6.39544e-10
3.08526e-10
-3.1691e-10
-2.06841e-10
-8.32694e-10
4.20522e-10
-4.30386e-10
-3.21586e-10
-1.05478e-09
5.72251e-10
-5.83327e-10
-4.75624e-10
-1.30401e-09
7.77377e-10
-7.88638e-10
-6.56199e-10
-1.57004e-09
1.04309e-09
-1.05129e-09
-8.22665e-10
-1.82858e-09
1.36209e-09
-1.35771e-09
-9.3448e-10
-2.04541e-09
1.70994e-09
-1.67279e-09
-9.78827e-10
-2.19163e-09
2.04978e-09
-1.95016e-09
-9.47665e-10
-2.25668e-09
2.34382e-09
-2.14299e-09
-2.23775e-09
2.67111e-09
-2.21026e-09
2.15472e-11
-2.63483e-11
1.31321e-11
-1.42315e-11
3.16617e-11
-8.48548e-11
4.2222e-11
-4.53381e-11
2.68067e-11
-1.60234e-10
7.95349e-11
-8.43329e-11
6.112e-12
-2.60867e-10
1.29191e-10
-1.35447e-10
-2.96633e-11
-3.91107e-10
1.93721e-10
-2.0143e-10
-8.02896e-11
-5.52306e-10
2.75608e-10
-2.8502e-10
-1.48422e-10
-7.44692e-10
3.79815e-10
-3.91302e-10
-2.40605e-10
-9.69251e-10
5.16357e-10
-5.3011e-10
-3.64946e-10
-1.22832e-09
7.01089e-10
-7.16772e-10
-5.227e-10
-1.52322e-09
9.52412e-10
-9.68674e-10
-6.94328e-10
-1.84779e-09
1.2826e-09
-1.29555e-09
-8.32674e-10
-2.18056e-09
1.68613e-09
-1.68574e-09
-8.99142e-10
-2.48625e-09
2.1318e-09
-2.09864e-09
-8.9887e-10
-2.73084e-09
2.56535e-09
-2.47269e-09
-8.53197e-10
-2.89002e-09
2.92694e-09
-2.73846e-09
-2.94139e-09
3.28164e-09
-2.82978e-09
2.52677e-11
-2.90731e-11
1.54619e-11
-1.6734e-11
3.74006e-11
-9.37171e-11
4.96624e-11
-5.32946e-11
3.23659e-11
-1.77147e-10
9.34071e-11
-9.90757e-11
9.06361e-12
-2.88616e-10
1.51506e-10
-1.59033e-10
-3.16465e-11
-4.32898e-10
2.26907e-10
-2.36373e-10
-8.89779e-11
-6.11311e-10
3.22357e-10
-3.34129e-10
-1.64432e-10
-8.23872e-10
4.43239e-10
-4.57807e-10
-2.6241e-10
-1.07177e-09
6.00676e-10
-6.18303e-10
-3.87007e-10
-1.35864e-09
8.12995e-10
-8.33302e-10
-5.32974e-10
-1.68847e-09
1.10286e-09
-1.12421e-09
-6.72967e-10
-2.05837e-09
1.48791e-09
-1.50607e-09
-7.56176e-10
-2.44991e-09
1.96623e-09
-1.97156e-09
-7.51415e-10
-2.83166e-09
2.504e-09
-2.47965e-09
-6.85039e-10
-3.17625e-09
3.03559e-09
-2.96004e-09
-6.0919e-10
-3.46054e-09
3.48265e-09
-3.32309e-09
-3.62531e-09
3.88938e-09
-3.46767e-09
2.83537e-11
-3.10872e-11
1.76378e-11
-1.90611e-11
4.22472e-11
-1.00186e-10
5.65596e-11
-6.06479e-11
3.73045e-11
-1.89248e-10
1.06133e-10
-1.12583e-10
1.22428e-11
-3.08059e-10
1.71784e-10
-1.8047e-10
-3.19466e-11
-4.61651e-10
2.56838e-10
-2.67919e-10
-9.37918e-11
-6.51274e-10
3.64222e-10
-3.7817e-10
-1.73366e-10
-8.76768e-10
4.99515e-10
-5.16921e-10
-2.72363e-10
-1.13951e-09
6.74429e-10
-6.95629e-10
-3.89958e-10
-1.44394e-09
9.0874e-10
-9.33304e-10
-5.1333e-10
-1.79495e-09
1.22782e-09
-1.25398e-09
-6.07256e-10
-2.19017e-09
1.65329e-09
-1.67687e-09
-6.18343e-10
-2.61248e-09
2.18761e-09
-2.20028e-09
-5.20484e-10
-3.03576e-09
2.80018e-09
-2.78917e-09
-3.45038e-10
-3.44527e-09
3.42724e-09
-3.37838e-09
-1.57856e-10
-3.82936e-09
3.98674e-09
-3.87522e-09
-4.25643e-09
4.49657e-09
-4.17822e-09
3.07753e-11
1.96813e-11
-2.12389e-11
-3.24619e-11
4.62504e-11
6.2965e-11
-6.74608e-11
-1.04406e-10
4.18244e-11
1.17774e-10
-1.24923e-10
-1.96656e-10
1.60483e-11
1.90102e-10
-1.99813e-10
-3.19247e-10
-2.98903e-11
2.83628e-10
-2.96118e-10
-4.77261e-10
-9.36851e-11
4.01385e-10
-4.17205e-10
-6.71786e-10
-1.73828e-10
5.48912e-10
-5.68738e-10
-9.02517e-10
-2.69258e-10
7.37859e-10
-7.62064e-10
-1.17091e-09
-3.74638e-10
9.87929e-10
-1.01609e-09
-1.48139e-09
-4.70937e-10
1.32457e-09
-1.35502e-09
-1.83792e-09
-5.17804e-10
1.77024e-09
-1.79932e-09
-2.2357e-09
-4.62308e-10
2.33002e-09
-2.35141e-09
-2.65558e-09
-2.80608e-10
2.97917e-09
-2.98465e-09
-3.07251e-09
4.9486e-12
3.66458e-09
-3.6478e-09
-3.47272e-09
3.32076e-10
4.30798e-09
-4.25755e-09
-3.83526e-09
4.95318e-09
-4.8388e-09
-4.18524e-09
2.79521e-12
-6.05385e-12
1.4434e-12
3.77355e-12
-1.9801e-11
4.70412e-12
2.42041e-12
-3.82013e-11
9.02995e-12
-1.27044e-12
-6.33466e-11
1.49133e-11
-7.06725e-12
-9.61532e-11
2.26329e-11
-1.50855e-11
-1.36885e-10
3.24933e-11
-2.63742e-11
-1.85887e-10
4.51932e-11
-4.32897e-11
-2.43823e-10
6.20771e-11
-6.92384e-11
-3.10767e-10
8.4946e-11
-1.07814e-10
-3.84223e-10
1.15294e-10
-1.61726e-10
-4.57366e-10
1.53466e-10
-2.34397e-10
-5.19892e-10
1.98822e-10
-3.36889e-10
-5.62163e-10
2.50385e-10
-4.93118e-10
-5.77284e-10
3.05914e-10
-7.1631e-10
-5.60908e-10
3.60438e-10
-5.14862e-10
4.18588e-10
8.00523e-12
-1.17647e-11
4.29726e-12
1.0865e-11
-3.84593e-11
1.39849e-11
7.03213e-12
-7.41318e-11
2.67851e-11
-3.63416e-12
-1.22862e-10
4.41437e-11
-2.06078e-11
-1.86544e-10
6.69006e-11
-4.42522e-11
-2.65799e-10
9.59798e-11
-7.74679e-11
-3.61253e-10
1.33441e-10
-1.2663e-10
-4.74037e-10
1.83223e-10
-2.00864e-10
-6.04389e-10
2.50673e-10
-3.09118e-10
-7.48373e-10
3.40454e-10
-4.5618e-10
-8.94615e-10
4.53999e-10
-6.44692e-10
-1.025e-09
5.89141e-10
-8.87858e-10
-1.12129e-09
7.40615e-10
-1.21142e-09
-1.17166e-09
8.97295e-10
-1.60347e-09
-1.17609e-09
1.04064e-09
-1.17335e-09
1.10406e-09
1.26712e-11
-1.66906e-11
7.02042e-12
1.73877e-11
-5.46373e-11
2.28114e-11
1.16103e-11
-1.05492e-10
4.35825e-11
-5.12488e-12
-1.75136e-10
7.16618e-11
-3.22329e-11
-2.66407e-10
1.08436e-10
-7.02457e-11
-3.80231e-10
1.55424e-10
-1.23173e-10
-5.1731e-10
2.15905e-10
-1.99756e-10
-6.79016e-10
2.96159e-10
-3.12221e-10
-8.66152e-10
4.04995e-10
-4.71126e-10
-1.07522e-09
5.50767e-10
-6.78038e-10
-1.29387e-09
7.37105e-10
-9.25059e-10
-1.49985e-09
9.60402e-10
-1.20712e-09
-1.66749e-09
1.20804e-09
-1.51717e-09
-1.77866e-09
1.45498e-09
-1.80532e-09
-1.83276e-09
1.66756e-09
-1.85957e-09
1.78726e-09
1.70742e-11
-2.07171e-11
9.53517e-12
2.37392e-11
-6.79532e-11
3.09407e-11
1.65831e-11
-1.31522e-10
5.89914e-11
-5.24185e-12
-2.18847e-10
9.68127e-11
-4.11601e-11
-3.33571e-10
1.46293e-10
-9.16207e-11
-4.76793e-10
2.09448e-10
-1.60768e-10
-6.49087e-10
2.90538e-10
-2.57774e-10
-8.51947e-10
3.97847e-10
-3.9498e-10
-1.08722e-09
5.43528e-10
-5.81108e-10
-1.35361e-09
7.40232e-10
-8.11731e-10
-1.64086e-09
9.95125e-10
-1.0682e-09
-1.92556e-09
1.30404e-09
-1.33385e-09
-2.17524e-09
1.64589e-09
-1.59598e-09
-2.36194e-09
1.97978e-09
-1.81998e-09
-2.47567e-09
2.25741e-09
-2.5387e-09
2.41609e-09
2.11814e-11
-2.39185e-11
1.18439e-11
2.979e-11
-7.85768e-11
3.83742e-11
2.16952e-11
-1.52369e-10
7.30024e-11
-4.29785e-12
-2.53948e-10
1.19564e-10
-4.76025e-11
-3.8758e-10
1.80386e-10
-1.0831e-10
-5.54428e-10
2.57866e-10
-1.89864e-10
-7.5486e-10
3.56983e-10
-3.0015e-10
-9.90548e-10
4.87642e-10
-4.48971e-10
-1.26474e-09
6.6507e-10
-6.40158e-10
-1.57909e-09
9.06466e-10
-8.61841e-10
-1.92668e-09
1.22349e-09
-1.08818e-09
-2.28458e-09
1.61251e-09
-1.30356e-09
-2.61586e-09
2.04424e-09
-1.51441e-09
-2.88532e-09
2.4615e-09
-1.72e-09
-3.07179e-09
2.8002e-09
-3.18189e-09
2.99249e-09
2.47732e-11
-2.64182e-11
1.39847e-11
3.51565e-11
-8.68327e-11
4.5225e-11
2.6461e-11
-1.68449e-10
8.58044e-11
-2.79258e-12
-2.80815e-10
1.40186e-10
-5.1967e-11
-4.28644e-10
2.11079e-10
-1.20605e-10
-6.13103e-10
3.01158e-10
-2.10877e-10
-8.344e-10
4.15878e-10
-3.28203e-10
-1.09446e-09
5.66338e-10
-4.77736e-10
-1.3978e-09
7.70285e-10
-6.55782e-10
-1.74846e-09
1.04899e-09
-8.41275e-10
-2.14171e-09
1.41858e-09
-1.00281e-09
-2.55527e-09
1.87691e-09
-1.13169e-09
-2.95265e-09
2.38931e-09
-1.26087e-09
-3.30329e-09
2.88708e-09
-1.43022e-09
-3.58968e-09
3.29307e-09
-3.76903e-09
3.53167e-09
2.76632e-11
-2.83295e-11
1.5999e-11
3.95643e-11
-9.30124e-11
5.16141e-11
3.06227e-11
-1.80125e-10
9.75955e-11
-8.75269e-13
-2.99782e-10
1.58966e-10
-5.42157e-11
-4.56989e-10
2.38782e-10
-1.28249e-10
-6.52886e-10
3.39905e-10
-2.23562e-10
-8.87537e-10
4.68039e-10
-3.42438e-10
-1.16304e-09
6.34957e-10
-4.84297e-10
-1.4846e-09
8.59909e-10
-6.36508e-10
-1.85673e-09
1.16669e-09
-7.67769e-10
-2.27421e-09
1.57445e-09
-8.40535e-10
-2.71389e-09
2.08289e-09
-8.4856e-10
-3.14136e-09
2.65668e-09
-8.33129e-10
-3.5344e-09
3.22549e-09
-8.53458e-10
-3.88319e-09
3.70596e-09
-4.25813e-09
4.00781e-09
2.98322e-11
1.7906e-11
-2.97158e-11
4.30687e-11
5.759e-11
-9.7242e-11
3.43796e-11
1.08445e-10
-1.8748e-10
1.83496e-12
1.76007e-10
-3.10827e-10
-5.3709e-11
2.63659e-10
-4.72432e-10
-1.30248e-10
3.74372e-10
-6.73314e-10
-2.26599e-10
5.13837e-10
-9.13345e-10
-3.41866e-10
6.93818e-10
-1.1946e-09
-4.70127e-10
9.33549e-10
-1.52205e-09
-5.91064e-10
1.25683e-09
-1.89889e-09
-6.65475e-10
1.68301e-09
-2.31687e-09
-6.51377e-10
2.2126e-09
-2.7496e-09
-5.40155e-10
2.81346e-09
-3.1612e-09
-3.61893e-10
3.422e-09
-3.52546e-09
-1.65993e-10
3.95395e-09
-3.81519e-09
4.32541e-09
-3.96143e-09
2.68859e-12
-5.58957e-12
1.22853e-12
3.43239e-12
-1.86192e-11
4.04946e-12
1.6472e-12
-3.67823e-11
7.88637e-12
-2.71307e-12
-6.22351e-11
1.31799e-11
-9.45137e-12
-9.58584e-11
2.01674e-11
-1.87686e-11
-1.37848e-10
2.9119e-11
-3.19469e-11
-1.88589e-10
4.06826e-11
-5.17281e-11
-2.4898e-10
5.60957e-11
-8.2066e-11
-3.19465e-10
7.6968e-11
-1.27438e-10
-3.98014e-10
1.04586e-10
-1.92867e-10
-4.78951e-10
1.39275e-10
-2.87426e-10
-5.55394e-10
1.80492e-10
-4.29983e-10
-6.24396e-10
2.26749e-10
-6.52203e-10
-6.89451e-10
2.73785e-10
-9.68603e-10
-7.58314e-10
3.12988e-10
-8.28507e-10
3.65662e-10
7.70454e-12
-1.08601e-11
3.66613e-12
9.88504e-12
-3.61538e-11
1.20588e-11
4.79408e-12
-7.13423e-11
2.34105e-11
-7.82371e-12
-1.20609e-10
3.90123e-11
-2.75418e-11
-1.85781e-10
5.95842e-11
-5.49854e-11
-2.67383e-10
8.59524e-11
-9.36998e-11
-3.66156e-10
1.20036e-10
-1.5112e-10
-4.8368e-10
1.65462e-10
-2.378e-10
-6.20825e-10
2.27016e-10
-3.64999e-10
-7.74352e-10
3.08747e-10
-5.4351e-10
-9.34471e-10
4.11962e-10
-7.89672e-10
-1.08741e-09
5.34681e-10
-1.13246e-09
-1.22185e-09
6.70413e-10
-1.60619e-09
-1.33226e-09
8.03451e-10
-2.18659e-09
-1.41786e-09
9.08047e-10
-1.48978e-09
9.58639e-10
1.22106e-11
-1.53788e-11
6.00593e-12
1.58589e-11
-5.12825e-11
1.97061e-11
8.09188e-12
-1.01382e-10
3.81174e-11
-1.17339e-11
-1.71689e-10
6.33112e-11
-4.31976e-11
-2.64959e-10
9.64862e-11
-8.72505e-11
-3.82033e-10
1.39015e-10
-1.4884e-10
-5.23831e-10
1.93972e-10
-2.38184e-10
-6.92367e-10
2.67163e-10
-3.69371e-10
-8.89227e-10
3.66503e-10
-5.55984e-10
-1.11155e-09
4.99317e-10
-8.07332e-10
-1.34814e-09
6.68768e-10
-1.1321e-09
-1.58e-09
8.71226e-10
-1.53956e-09
-1.78628e-09
1.09256e-09
-2.01898e-09
-1.95156e-09
1.30308e-09
-2.48878e-09
-2.07135e-09
1.46337e-09
-2.15841e-09
1.55799e-09
1.64662e-11
-1.90543e-11
8.17596e-12
2.17301e-11
-6.36806e-11
2.67665e-11
1.19703e-11
-1.26219e-10
5.16083e-11
-1.39044e-11
-2.14245e-10
8.54754e-11
-5.55525e-11
-3.3133e-10
1.30009e-10
-1.13951e-10
-4.78536e-10
1.87052e-10
-1.94327e-10
-6.56774e-10
2.60629e-10
-3.07439e-10
-8.68345e-10
3.58442e-10
-4.67507e-10
-1.11594e-09
4.91482e-10
-6.86267e-10
-1.39856e-09
6.709e-10
-9.67295e-10
-1.70594e-09
9.02732e-10
-1.3088e-09
-2.01576e-09
1.18206e-09
-1.70591e-09
-2.29762e-09
1.48612e-09
-2.13553e-09
-2.52534e-09
1.77112e-09
-2.52716e-09
-2.68878e-09
1.98688e-09
-2.80286e-09
2.11625e-09
2.04065e-11
-2.19846e-11
1.01766e-11
2.73199e-11
-7.35866e-11
3.32384e-11
1.61206e-11
-1.46109e-10
6.38767e-11
-1.47004e-11
-2.48379e-10
1.05489e-10
-6.48589e-11
-3.84621e-10
1.60108e-10
-1.35031e-10
-5.56027e-10
2.29948e-10
-2.29735e-10
-7.6343e-10
3.1975e-10
-3.58303e-10
-1.00943e-09
4.38783e-10
-5.32061e-10
-1.29805e-09
6.00903e-10
-7.57346e-10
-1.63069e-09
8.21279e-10
-1.02974e-09
-1.99885e-09
1.10942e-09
-1.33968e-09
-2.37778e-09
1.45958e-09
-1.68238e-09
-2.72971e-09
1.84039e-09
-2.05374e-09
-3.02099e-09
2.19429e-09
-2.41939e-09
-3.23455e-09
2.46044e-09
-3.37773e-09
2.61948e-09
2.37892e-11
-2.43133e-11
1.20442e-11
3.22021e-11
-8.13843e-11
3.9232e-11
1.9994e-11
-1.61563e-10
7.51147e-11
-1.46996e-11
-2.74598e-10
1.23641e-10
-7.16069e-11
-4.25197e-10
1.87186e-10
-1.50865e-10
-6.14634e-10
2.68237e-10
-2.556e-10
-8.43678e-10
3.7203e-10
-3.92324e-10
-1.11523e-09
5.0901e-10
-5.67109e-10
-1.43443e-09
6.95388e-10
-7.7788e-10
-1.80431e-09
9.49849e-10
-1.00993e-09
-2.21686e-09
1.28512e-09
-1.24699e-09
-2.64512e-09
1.69507e-09
-1.49149e-09
-3.04867e-09
2.14167e-09
-1.76956e-09
-3.39714e-09
2.5572e-09
-2.09291e-09
-3.67918e-09
2.87197e-09
-3.85647e-09
3.0619e-09
2.6421e-11
-2.61629e-11
1.382e-11
3.60836e-11
-8.73924e-11
4.48702e-11
2.32976e-11
-1.72991e-10
8.55322e-11
-1.4102e-11
-2.93296e-10
1.40246e-10
-7.582e-11
-4.53353e-10
2.11698e-10
-1.61277e-10
-6.54468e-10
3.02562e-10
-2.71814e-10
-8.97328e-10
4.18338e-10
-4.10349e-10
-1.18499e-09
5.7015e-10
-5.76446e-10
-1.52296e-09
7.75606e-10
-7.57936e-10
-1.91408e-09
1.05548e-09
-9.28249e-10
-2.34844e-09
1.42439e-09
-1.0631e-09
-2.79596e-09
1.87613e-09
-1.16717e-09
-3.21544e-09
2.36997e-09
-1.27908e-09
-3.58112e-09
2.83495e-09
-1.43539e-09
-3.88605e-09
3.19576e-09
-4.21763e-09
3.41676e-09
2.82982e-11
1.55238e-11
-2.75894e-11
3.90436e-11
5.02076e-11
-9.17099e-11
2.62546e-11
9.5216e-11
-1.80417e-10
-1.25111e-11
1.55444e-10
-3.04361e-10
-7.68518e-11
2.33862e-10
-4.68792e-10
-1.65282e-10
3.33252e-10
-6.74938e-10
-2.77148e-10
4.59124e-10
-9.23293e-10
-4.11729e-10
6.22609e-10
-1.21677e-09
-5.62426e-10
8.41293e-10
-1.56036e-09
-7.08165e-10
1.13583e-09
-1.95505e-09
-8.12498e-10
1.52052e-09
-2.38729e-09
-8.43988e-10
1.98897e-09
-2.82283e-09
-8.03955e-10
2.50205e-09
-3.21741e-09
-7.21356e-10
2.99309e-09
-3.53811e-09
-6.24785e-10
3.38559e-09
-3.75747e-09
3.63674e-09
-3.80958e-09
2.58216e-12
-5.25255e-12
9.89672e-13
3.10698e-12
-1.77538e-11
3.29867e-12
9.44324e-13
-3.57163e-11
6.50907e-12
-3.97156e-12
-6.13277e-11
1.0984e-11
-1.14741e-11
-9.54351e-11
1.69088e-11
-2.18768e-11
-1.38211e-10
2.45083e-11
-3.6725e-11
-1.90155e-10
3.43544e-11
-5.91367e-11
-2.52465e-10
4.7524e-11
-9.35542e-11
-3.25997e-10
6.53777e-11
-1.4521e-10
-4.09264e-10
8.89876e-11
-2.20612e-10
-4.9771e-10
1.18635e-10
-3.3073e-10
-5.86648e-10
1.53749e-10
-4.95439e-10
-6.75966e-10
1.92507e-10
-7.45745e-10
-7.71925e-10
2.30761e-10
-1.08785e-09
-8.81716e-10
2.62455e-10
-9.82527e-10
3.10036e-10
7.39557e-12
-1.01811e-11
2.95893e-12
8.94397e-12
-3.44018e-11
9.83394e-12
2.7626e-12
-6.91483e-11
1.93271e-11
-1.14674e-11
-1.18656e-10
3.25017e-11
-3.34226e-11
-1.84701e-10
4.99272e-11
-6.40689e-11
-2.67802e-10
7.23021e-11
-1.0768e-10
-3.68954e-10
1.01321e-10
-1.72726e-10
-4.90294e-10
1.4014e-10
-2.71037e-10
-6.33383e-10
1.92815e-10
-4.15847e-10
-7.95785e-10
2.62721e-10
-6.21674e-10
-9.69217e-10
3.5094e-10
-9.09022e-10
-1.14251e-09
4.55359e-10
-1.30727e-09
-1.30669e-09
5.68814e-10
-1.84397e-09
-1.45588e-09
6.76524e-10
-2.47047e-09
-1.58231e-09
7.59755e-10
-1.67489e-09
8.04032e-10
1.17191e-11
-1.43588e-11
4.85564e-12
1.43785e-11
-4.86347e-11
1.60844e-11
4.90475e-12
-9.80092e-11
3.1465e-11
-1.74664e-11
-1.68563e-10
5.27056e-11
-5.25098e-11
-2.63006e-10
8.07676e-11
-1.0172e-10
-3.82225e-10
1.16828e-10
-1.71103e-10
-5.27542e-10
1.63609e-10
-2.72326e-10
-7.01739e-10
2.2617e-10
-4.21156e-10
-9.0722e-10
3.11243e-10
-6.3374e-10
-1.14181e-09
4.24948e-10
-9.23971e-10
-1.39532e-09
5.69791e-10
-1.30473e-09
-1.65037e-09
7.417e-10
-1.78223e-09
-1.88694e-09
9.25998e-10
-2.33031e-09
-2.08785e-09
1.09562e-09
-2.83421e-09
-2.242e-09
1.2215e-09
-2.34837e-09
1.29877e-09
1.58017e-11
-1.77205e-11
6.61607e-12
1.97759e-11
-6.01988e-11
2.18526e-11
7.7983e-12
-1.21721e-10
4.25795e-11
-2.14204e-11
-2.09952e-10
7.1087e-11
-6.78317e-11
-3.28443e-10
1.08707e-10
-1.33096e-10
-4.78378e-10
1.57034e-10
-2.23669e-10
-6.61218e-10
2.19645e-10
-3.51884e-10
-8.80187e-10
3.03274e-10
-5.33668e-10
-1.13877e-09
4.17311e-10
-7.83309e-10
-1.43617e-09
5.71073e-10
-1.10888e-09
-1.76192e-09
7.69168e-10
-1.51194e-09
-2.09344e-09
1.00559e-09
-1.98187e-09
-2.39979e-09
1.25739e-09
-2.47627e-09
-2.65384e-09
1.48585e-09
-2.89122e-09
-2.84255e-09
1.65453e-09
-2.97217e-09
1.75798e-09
1.95602e-11
-2.0396e-11
8.24232e-12
2.49205e-11
-6.94228e-11
2.71437e-11
1.10795e-11
-1.40676e-10
5.26814e-11
-2.37581e-11
-2.43095e-10
8.76641e-11
-7.96876e-11
-3.80923e-10
1.33755e-10
-1.58139e-10
-5.55561e-10
1.92879e-10
-2.64865e-10
-7.6852e-10
2.69267e-10
-4.10652e-10
-1.0234e-09
3.71056e-10
-6.08242e-10
-1.32486e-09
5.10124e-10
-8.66109e-10
-1.67373e-09
6.99097e-10
-1.18375e-09
-2.05966e-09
9.44979e-10
-1.55417e-09
-2.45548e-09
1.2399e-09
-1.96628e-09
-2.82167e-09
1.55272e-09
-2.39699e-09
-3.1251e-09
1.83386e-09
-2.78042e-09
-3.34954e-09
2.03997e-09
-3.49706e-09
2.16492e-09
2.27356e-11
-2.25554e-11
9.77022e-12
2.93484e-11
-7.67634e-11
3.20679e-11
1.41401e-11
-1.55496e-10
6.19655e-11
-2.51248e-11
-2.68634e-10
1.02733e-10
-8.86231e-11
-4.20946e-10
1.56323e-10
-1.77248e-10
-6.13996e-10
2.24902e-10
-2.95235e-10
-8.49322e-10
3.13156e-10
-4.50233e-10
-1.13083e-09
4.30281e-10
-6.49226e-10
-1.46398e-09
5.90196e-10
-8.91558e-10
-1.85035e-09
8.08349e-10
-1.1656e-09
-2.27843e-09
1.09374e-09
-1.45735e-09
-2.71684e-09
1.43685e-09
-1.76414e-09
-3.12249e-09
1.79996e-09
-2.09563e-09
-3.4666e-09
2.12547e-09
-2.43433e-09
-3.74157e-09
2.3642e-09
-3.90625e-09
2.50754e-09
2.51277e-11
-2.43329e-11
1.12404e-11
3.27502e-11
-8.25712e-11
3.67496e-11
1.66637e-11
-1.66633e-10
7.0648e-11
-2.57444e-11
-2.87007e-10
1.16617e-10
-9.4671e-11
-4.48838e-10
1.76869e-10
-1.90245e-10
-6.53783e-10
2.53737e-10
-3.14699e-10
-9.03337e-10
3.52153e-10
-4.71671e-10
-1.20148e-09
4.8192e-10
-6.60972e-10
-1.55366e-09
6.5815e-10
-8.70957e-10
-1.96049e-09
8.97853e-10
-1.07721e-09
-2.40731e-09
1.21095e-09
-1.25773e-09
-2.85832e-09
1.58674e-09
-1.41413e-09
-3.26906e-09
1.98431e-09
-1.57135e-09
-3.61552e-09
2.34285e-09
-1.73962e-09
-3.89692e-09
2.60902e-09
-4.20852e-09
2.76771e-09
2.67459e-11
1.26755e-11
-2.57769e-11
3.5232e-11
4.12528e-11
-8.6921e-11
1.8916e-11
7.88304e-11
-1.74063e-10
-2.51599e-11
1.29468e-10
-2.98022e-10
-9.71094e-11
1.9563e-10
-4.64192e-10
-1.96068e-10
2.79752e-10
-6.74181e-10
-3.22038e-10
3.86771e-10
-9.29281e-10
-4.74567e-10
5.26483e-10
-1.23318e-09
-6.4662e-10
7.13936e-10
-1.59049e-09
-8.16722e-10
9.65882e-10
-1.99947e-09
-9.49642e-10
1.29163e-09
-2.4413e-09
-1.01636e-09
1.67989e-09
-2.87572e-09
-1.01717e-09
2.09062e-09
-3.25508e-09
-9.70505e-10
2.4655e-09
-3.54773e-09
-8.83365e-10
2.74953e-09
-3.73328e-09
2.92315e-09
-3.76812e-09
2.44772e-12
-5.07797e-12
7.43509e-13
2.77022e-12
-1.72919e-11
2.49651e-12
3.12373e-13
-3.51046e-11
4.96607e-12
-5.00376e-12
-6.07133e-11
8.42334e-12
-1.30649e-11
-9.49644e-11
1.3002e-11
-2.4345e-11
-1.38098e-10
1.8883e-11
-4.06696e-11
-1.90823e-10
2.6537e-11
-6.54901e-11
-2.54654e-10
3.68347e-11
-1.03539e-10
-3.30772e-10
5.08488e-11
-1.60285e-10
-4.18063e-10
6.93996e-11
-2.42388e-10
-5.1266e-10
9.26835e-11
-3.60425e-10
-6.10732e-10
1.20127e-10
-5.33134e-10
-7.12283e-10
1.49982e-10
-7.89494e-10
-8.22358e-10
1.78882e-10
-1.1321e-09
-9.44861e-10
2.0265e-10
-1.04812e-09
2.38693e-10
7.00126e-12
-9.80725e-12
2.22371e-12
7.96133e-12
-3.34106e-11
7.44318e-12
9.24067e-13
-6.78234e-11
1.47422e-11
-1.44777e-11
-1.17297e-10
2.4918e-11
-3.80932e-11
-1.83619e-10
3.8388e-11
-7.13543e-11
-2.67459e-10
5.57164e-11
-1.19317e-10
-3.70224e-10
7.82993e-11
-1.91361e-10
-4.94641e-10
1.08686e-10
-3.0008e-10
-6.42823e-10
1.50072e-10
-4.59261e-10
-8.12863e-10
2.05049e-10
-6.83586e-10
-9.97296e-10
2.74358e-10
-9.91965e-10
-1.18571e-09
3.55891e-10
-1.40979e-09
-1.36832e-09
4.43077e-10
-1.958e-09
-1.5361e-09
5.24021e-10
-2.57933e-09
-1.6758e-09
5.85608e-10
-1.76941e-09
6.17001e-10
1.10825e-11
-1.37642e-11
3.64797e-12
1.28113e-11
-4.70568e-11
1.21673e-11
1.98628e-12
-9.58882e-11
2.39839e-11
-2.22674e-11
-1.66362e-10
4.03832e-11
-6.00284e-11
-2.61222e-10
6.20836e-11
-1.13507e-10
-3.81597e-10
9.00397e-11
-1.8986e-10
-5.29409e-10
1.26494e-10
-3.02028e-10
-7.08247e-10
1.75533e-10
-4.6677e-10
-9.21168e-10
2.42465e-10
-7.00803e-10
-1.16636e-09
3.31999e-10
-1.0177e-09
-1.43391e-09
4.45818e-10
-1.42709e-09
-1.7063e-09
5.79802e-10
-1.92818e-09
-1.96187e-09
7.20875e-10
-2.48467e-09
-2.18025e-09
8.47477e-10
-2.9727e-09
-2.34621e-09
9.393e-10
-2.45513e-09
9.93462e-10
1.49375e-11
-1.69061e-11
4.96556e-12
1.76857e-11
-5.80368e-11
1.65133e-11
3.92718e-12
-1.18807e-10
3.24248e-11
-2.78217e-11
-2.06914e-10
5.44309e-11
-7.7934e-11
-3.25972e-10
8.35384e-11
-1.48954e-10
-4.77503e-10
1.21042e-10
-2.48681e-10
-6.63728e-10
1.69887e-10
-3.90851e-10
-8.88831e-10
2.35515e-10
-5.92363e-10
-1.1569e-09
3.25346e-10
-8.67822e-10
-1.467e-09
4.46539e-10
-1.22426e-09
-1.80785e-09
6.02129e-10
-1.65861e-09
-2.15549e-09
7.85854e-10
-2.15151e-09
-2.47695e-09
9.77609e-10
-2.64949e-09
-2.74338e-09
1.14698e-09
-3.04157e-09
-2.94008e-09
1.2689e-09
-3.07139e-09
1.34075e-09
1.8477e-11
-1.93933e-11
6.18106e-12
2.23508e-11
-6.67603e-11
2.04961e-11
6.35311e-12
-1.37082e-10
4.00948e-11
-3.15954e-11
-2.3934e-10
6.7109e-11
-9.21027e-11
-3.77879e-10
1.02801e-10
-1.77558e-10
-5.54524e-10
1.4873e-10
-2.95075e-10
-7.71674e-10
2.08374e-10
-4.56753e-10
-1.03395e-09
2.88313e-10
-6.76068e-10
-1.3464e-09
3.97946e-10
-9.61382e-10
-1.70898e-09
5.46932e-10
-1.31054e-09
-2.1092e-09
7.39766e-10
-1.71128e-09
-2.51725e-09
9.68013e-10
-2.14369e-09
-2.89173e-09
1.20469e-09
-2.57432e-09
-3.19984e-09
1.41137e-09
-2.93178e-09
-3.42599e-09
1.55874e-09
-3.57134e-09
1.64442e-09
2.14343e-11
-2.14214e-11
7.32879e-12
2.63207e-11
-7.37512e-11
2.42214e-11
8.62657e-12
-1.51423e-10
4.71799e-11
-3.42512e-11
-2.64373e-10
7.86916e-11
-1.0306e-10
-4.17506e-10
1.2024e-10
-1.9964e-10
-6.12881e-10
1.73569e-10
-3.29458e-10
-8.52997e-10
2.42521e-10
-5.01208e-10
-1.14274e-09
3.34537e-10
-7.22192e-10
-1.48764e-09
4.60629e-10
-9.91173e-10
-1.88757e-09
6.32522e-10
-1.29453e-09
-2.32769e-09
8.55826e-10
-1.6133e-09
-2.77306e-09
1.12011e-09
-1.93716e-09
-3.17942e-09
1.39285e-09
-2.26654e-09
-3.52035e-09
1.62972e-09
-2.57904e-09
-3.79096e-09
1.79786e-09
-3.95023e-09
1.89409e-09
2.36031e-11
-2.31369e-11
8.44858e-12
2.92815e-11
-7.93872e-11
2.78076e-11
1.04389e-11
-1.62306e-10
5.38782e-11
-3.59807e-11
-2.82452e-10
8.94658e-11
-1.10768e-10
-4.45144e-10
1.36251e-10
-2.14914e-10
-6.52573e-10
1.96102e-10
-3.51656e-10
-9.07205e-10
2.73054e-10
-5.2529e-10
-1.21387e-09
3.75028e-10
-7.3546e-10
-1.57774e-09
5.13945e-10
-9.69514e-10
-1.99702e-09
7.02626e-10
-1.20103e-09
-2.45296e-09
9.47032e-10
-1.40407e-09
-2.90595e-09
1.23529e-09
-1.57441e-09
-3.31127e-09
1.53202e-09
-1.72858e-09
-3.64897e-09
1.7903e-09
-1.87177e-09
-3.92331e-09
1.97481e-09
-4.23362e-09
2.07948e-09
2.50084e-11
9.5636e-12
-2.45769e-11
3.13836e-11
3.1319e-11
-8.37013e-11
1.21326e-11
6.02897e-11
-1.69629e-10
-3.62161e-11
9.9578e-11
-2.93276e-10
-1.14358e-10
1.51059e-10
-4.60241e-10
-2.2216e-10
2.16684e-10
-6.72669e-10
-3.6037e-10
3.00492e-10
-9.32763e-10
-5.28791e-10
4.10366e-10
-1.24491e-09
-7.1978e-10
5.58126e-10
-1.61312e-09
-9.105e-10
7.56294e-10
-2.03297e-09
-1.06393e-09
1.01019e-09
-2.48125e-09
-1.14853e-09
1.30737e-09
-2.91419e-09
-1.16077e-09
1.61289e-09
-3.28462e-09
-1.11198e-09
1.88127e-09
-3.56557e-09
-1.00422e-09
2.07624e-09
-3.74282e-09
2.19002e-09
-3.78299e-09
2.26354e-12
-5.07255e-12
4.95719e-13
2.39895e-12
-1.72565e-11
1.67187e-12
-2.54114e-13
-3.49892e-11
3.33718e-12
-5.7911e-12
-6.0454e-11
5.66568e-12
-1.41982e-11
-9.45469e-11
8.74409e-12
-2.61635e-11
-1.37695e-10
1.27057e-11
-4.37999e-11
-1.90915e-10
1.78967e-11
-7.08121e-11
-2.56016e-10
2.49354e-11
-1.12e-10
-3.34316e-10
3.45594e-11
-1.72601e-10
-4.248e-10
4.73239e-11
-2.58456e-10
-5.23833e-10
6.33518e-11
-3.78417e-10
-6.27613e-10
8.21755e-11
-5.49136e-10
-7.35179e-10
1.02382e-10
-8.003e-10
-8.49866e-10
1.21487e-10
-1.14176e-09
-9.74173e-10
1.36795e-10
-1.07385e-09
1.59907e-10
6.46204e-12
-9.77303e-12
1.48368e-12
6.86858e-12
-3.32879e-11
4.98657e-12
-7.53407e-13
-6.75516e-11
9.90965e-12
-1.68388e-11
-1.16794e-10
1.67673e-11
-4.15307e-11
-1.82902e-10
2.58356e-11
-7.6865e-11
-2.66893e-10
3.75314e-11
-1.287e-10
-3.70745e-10
5.28779e-11
-2.07109e-10
-4.97727e-10
7.36847e-11
-3.24858e-10
-6.50218e-10
1.02155e-10
-4.95009e-10
-8.26395e-10
1.40044e-10
-7.29792e-10
-1.0189e-09
1.8779e-10
-1.04316e-09
-1.21692e-09
2.43663e-10
-1.4548e-09
-1.40874e-09
3.02492e-10
-1.98803e-09
-1.58274e-09
3.55733e-10
-2.60401e-09
-1.72403e-09
3.95051e-10
-1.81397e-09
4.13395e-10
1.02106e-11
-1.36798e-11
2.43362e-12
1.10379e-11
-4.68041e-11
8.15012e-12
-7.60888e-13
-9.54428e-11
1.61214e-11
-2.62008e-11
-1.65672e-10
2.7184e-11
-6.5824e-11
-2.60373e-10
4.18207e-11
-1.22744e-10
-3.81152e-10
6.07357e-11
-2.05296e-10
-5.30719e-10
8.55683e-11
-3.27412e-10
-7.13425e-10
1.1922e-10
-5.06058e-10
-9.32667e-10
1.65367e-10
-7.56683e-10
-1.18651e-09
2.27196e-10
-1.0889e-09
-1.46458e-09
3.05664e-10
-1.50469e-09
-1.74814e-09
3.9731e-10
-1.99542e-09
-2.01317e-09
4.92055e-10
-2.52913e-09
-2.23727e-09
5.7478e-10
-3.00642e-09
-2.40461e-09
6.32909e-10
-2.51085e-09
6.65134e-10
1.37529e-11
-1.67582e-11
3.3089e-12
1.52752e-11
-5.76301e-11
1.10527e-11
1.5811e-13
-1.18184e-10
2.179e-11
-3.33017e-11
-2.06087e-10
3.66547e-11
-8.60677e-11
-3.25119e-10
5.63277e-11
-1.61772e-10
-4.77382e-10
8.17586e-11
-2.69601e-10
-6.6606e-10
1.15096e-10
-4.24421e-10
-8.96259e-10
1.60211e-10
-6.4327e-10
-1.17239e-09
2.22264e-10
-9.38961e-10
-1.49297e-09
3.06088e-10
-1.31333e-09
-1.84535e-09
4.13352e-10
-1.75394e-09
-2.20342e-09
5.38671e-10
-2.23295e-09
-2.53208e-09
6.66776e-10
-2.70312e-09
-2.80195e-09
7.76766e-10
-3.08102e-09
-2.9989e-09
8.53574e-10
-3.12766e-09
8.96463e-10
1.70054e-11
-1.91838e-11
4.11488e-12
1.9356e-11
-6.62077e-11
1.37118e-11
1.63353e-12
-1.36302e-10
2.69495e-11
-3.85363e-11
-2.38416e-10
4.52293e-11
-1.02432e-10
-3.77086e-10
6.9405e-11
-1.936e-10
-5.54796e-10
1.00611e-10
-3.20572e-10
-7.75027e-10
1.41378e-10
-4.96539e-10
-1.0434e-09
1.964e-10
-7.34929e-10
-1.36514e-09
2.72231e-10
-1.04185e-09
-1.73904e-09
3.75354e-10
-1.40922e-09
-2.15028e-09
5.08163e-10
-1.81497e-09
-2.56623e-09
6.63306e-10
-2.23118e-09
-2.94419e-09
8.20541e-10
-2.63184e-09
-3.25282e-09
9.5391e-10
-2.97393e-09
-3.47779e-09
1.04616e-09
-3.6203e-09
1.09712e-09
1.97045e-11
-2.11698e-11
4.88026e-12
2.2803e-11
-7.31005e-11
1.62137e-11
3.05996e-12
-1.50538e-10
3.17454e-11
-4.24922e-11
-2.63386e-10
5.31146e-11
-1.15306e-10
-4.16773e-10
8.13195e-11
-2.18339e-10
-6.13472e-10
1.17618e-10
-3.5836e-10
-8.57112e-10
1.64807e-10
-5.44939e-10
-1.15355e-09
2.282e-10
-7.8502e-10
-1.50821e-09
3.1547e-10
-1.07481e-09
-1.91922e-09
4.3444e-10
-1.39479e-09
-2.36858e-09
5.87983e-10
-1.71687e-09
-2.81844e-09
7.66965e-10
-2.02405e-09
-3.2247e-09
9.47198e-10
-2.32427e-09
-3.56418e-09
1.09904e-09
-2.62184e-09
-3.83349e-09
1.20352e-09
-3.99129e-09
1.26036e-09
2.16465e-11
-2.28704e-11
5.63709e-12
2.53269e-11
-7.86907e-11
1.86526e-11
4.18896e-12
-1.61345e-10
3.63323e-11
-4.52539e-11
-2.81378e-10
6.05258e-11
-1.24487e-10
-4.44364e-10
9.23591e-11
-2.355e-10
-6.53221e-10
1.33179e-10
-3.82601e-10
-9.11515e-10
1.85927e-10
-5.70627e-10
-1.22492e-09
2.56252e-10
-7.98541e-10
-1.59822e-09
3.52443e-10
-1.05105e-09
-2.02742e-09
4.82981e-10
-1.29647e-09
-2.49022e-09
6.50753e-10
-1.50153e-09
-2.94456e-09
8.45379e-10
-1.65699e-09
-3.34744e-09