/*--------------------------------*- C++ -*----------------------------------*\
| =========                 |                                                 |
| \\      /  F ield         | OpenFOAM: The Open Source CFD Toolbox           |
|  \\    /   O peration     | Version:  v1912                                 |
|   \\  /    A nd           | Website:  www.openfoam.com                      |
|    \\/     M anipulation  |                                                 |
\*---------------------------------------------------------------------------*/
FoamFile
{
    version     2.0;
    format      ascii;
    class       surfaceScalarField;
    location    "0.04/fluid";
    object      phi;
}
// * * * * * * * * * * * * * * * * * * * * * * * * * * * * * * * * * * * * * //

dimensions      [0 3 -1 0 0 0 0];
oriented        oriented;


internalField   nonuniform List<scalar> 
41600
(
5.88617e-05
3.69283e-06
-1.19185e-06
1.13732e-06
5.72038e-05
1.71126e-06
-1.501e-06
1.44768e-06
5.62436e-05
9.97911e-07
-1.76573e-06
1.72801e-06
5.55686e-05
6.94584e-07
-2.14274e-06
2.1231e-06
5.49687e-05
6.01479e-07
-2.675e-06
2.67342e-06
5.43426e-05
6.10237e-07
-3.39692e-06
3.41277e-06
5.36312e-05
6.782e-07
-4.35817e-06
4.39141e-06
5.27874e-05
7.90924e-07
-5.63169e-06
5.68455e-06
5.17629e-05
9.4366e-07
-7.32261e-06
7.40346e-06
5.04942e-05
1.13441e-06
-9.58257e-06
9.71686e-06
4.8873e-05
1.35951e-06
-1.26323e-05
1.2894e-05
4.6668e-05
1.60881e-06
-1.67962e-05
1.73924e-05
4.33204e-05
1.86107e-06
-2.25587e-05
2.40452e-05
3.73337e-05
2.033e-06
-3.06616e-05
3.46154e-05
2.57996e-05
2.21341e-06
-4.23015e-05
5.16222e-05
1.62081e-06
-5.26406e-05
7.68201e-05
6.35163e-05
2.73403e-06
-1.33026e-06
1.27274e-06
6.32759e-05
2.00807e-06
-1.67995e-06
1.6236e-06
6.2819e-05
1.49436e-06
-1.97359e-06
1.93402e-06
6.22886e-05
1.24502e-06
-2.38981e-06
2.36981e-06
6.17077e-05
1.18276e-06
-2.9775e-06
2.97707e-06
6.10519e-05
1.24751e-06
-3.77502e-06
3.79349e-06
6.02843e-05
1.40853e-06
-4.83729e-06
4.87461e-06
5.93625e-05
1.65425e-06
-6.24498e-06
6.30349e-06
5.82356e-05
1.98197e-06
-8.11442e-06
8.203e-06
5.68326e-05
2.39167e-06
-1.06137e-05
1.07595e-05
5.50299e-05
2.88014e-06
-1.39883e-05
1.42703e-05
5.25647e-05
3.43376e-06
-1.86e-05
1.92403e-05
4.88132e-05
4.01803e-06
-2.49922e-05
2.65868e-05
4.20471e-05
4.54934e-06
-3.39988e-05
3.82485e-05
2.92148e-05
5.00355e-06
-4.69486e-05
5.69908e-05
4.532e-06
-5.84112e-05
8.47156e-05
6.31136e-05
2.17842e-06
-1.30646e-06
1.24849e-06
6.31137e-05
2.06484e-06
-1.65029e-06
1.59338e-06
6.28698e-05
1.77841e-06
-1.93785e-06
1.8977e-06
6.24936e-05
1.64186e-06
-2.34472e-06
2.32409e-06
6.20204e-05
1.65714e-06
-2.91845e-06
2.91731e-06
6.14462e-05
1.80399e-06
-3.696e-06
3.71367e-06
6.07483e-05
2.0701e-06
-4.73046e-06
4.76686e-06
5.98916e-05
2.45347e-06
-6.10009e-06
6.15757e-06
5.88271e-05
2.95894e-06
-7.9182e-06
8.00569e-06
5.74803e-05
3.59366e-06
-1.03494e-05
1.04942e-05
5.57178e-05
4.36126e-06
-1.36353e-05
1.39167e-05
5.32581e-05
5.25275e-06
-1.81346e-05
1.87754e-05
4.94479e-05
6.23126e-06
-2.43896e-05
2.59865e-05
4.25376e-05
7.20178e-06
-3.32397e-05
3.74976e-05
2.9425e-05
8.07371e-06
-4.60077e-05
5.60501e-05
7.65094e-06
-5.74487e-05
8.37555e-05
6.28197e-05
1.91722e-06
-1.26437e-06
1.20584e-06
6.28895e-05
2.05269e-06
-1.59758e-06
1.53998e-06
6.27675e-05
1.9413e-06
-1.87484e-06
1.8339e-06
6.25103e-05
1.92059e-06
-2.26615e-06
2.24461e-06
6.21424e-05
2.0273e-06
-2.81667e-06
2.81445e-06
6.16645e-05
2.26549e-06
-3.56104e-06
3.57741e-06
6.10606e-05
2.63914e-06
-4.54921e-06
4.58407e-06
6.03004e-05
3.15808e-06
-5.85516e-06
5.91081e-06
5.93359e-05
3.83817e-06
-7.58658e-06
7.67187e-06
5.80884e-05
4.69915e-06
-9.90097e-06
1.00429e-05
5.64127e-05
5.75987e-06
-1.30315e-05
1.33086e-05
5.40037e-05
7.02924e-06
-1.73277e-05
1.79602e-05
5.01694e-05
8.4879e-06
-2.33246e-05
2.49023e-05
4.31183e-05
1.00413e-05
-3.18642e-05
3.60757e-05
2.97034e-05
1.15749e-05
-4.42437e-05
5.41574e-05
1.13312e-05
-5.55992e-05
8.16231e-05
6.2703e-05
1.77345e-06
-1.20985e-06
1.15059e-06
6.27984e-05
2.01585e-06
-1.52929e-06
1.47078e-06
6.27564e-05
2.02525e-06
-1.79313e-06
1.75117e-06
6.25976e-05
2.1021e-06
-2.16415e-06
2.14141e-06
6.23337e-05
2.2949e-06
-2.6843e-06
2.68065e-06
6.19642e-05
2.62029e-06
-3.38506e-06
3.3997e-06
6.14766e-05
3.09401e-06
-4.31197e-06
4.34471e-06
6.08444e-05
3.73733e-06
-5.53287e-06
5.58588e-06
6.00214e-05
4.57929e-06
-7.14704e-06
7.22886e-06
5.89265e-05
5.65728e-06
-9.30077e-06
9.43757e-06
5.74026e-05
7.0157e-06
-1.22129e-05
1.24809e-05
5.51175e-05
8.70141e-06
-1.62159e-05
1.68289e-05
5.1324e-05
1.07502e-05
-2.18282e-05
2.33595e-05
4.41387e-05
1.31249e-05
-2.989e-05
3.39917e-05
3.03307e-05
1.57449e-05
-4.16516e-05
5.12896e-05
1.6187e-05
-5.28629e-05
7.83384e-05
6.26721e-05
1.66148e-06
-1.14536e-06
1.08524e-06
6.27966e-05
1.9509e-06
-1.44851e-06
1.38894e-06
6.28238e-05
2.04125e-06
-1.69643e-06
1.65324e-06
6.27559e-05
2.19415e-06
-2.04326e-06
2.01909e-06
6.25971e-05
2.45908e-06
-2.5271e-06
2.52173e-06
6.23466e-05
2.85828e-06
-3.17545e-06
3.18797e-06
6.19953e-05
3.41522e-06
-4.02819e-06
4.05827e-06
6.15222e-05
4.16095e-06
-5.14499e-06
5.19453e-06
6.08865e-05
5.13801e-06
-6.61351e-06
6.69041e-06
6.00106e-05
6.40457e-06
-8.56365e-06
8.69234e-06
5.87344e-05
8.03994e-06
-1.11915e-05
1.14435e-05
5.67073e-05
1.01523e-05
-1.47993e-05
1.53755e-05
5.31247e-05
1.28915e-05
-1.98688e-05
2.13101e-05
4.59349e-05
1.6427e-05
-2.72185e-05
3.11063e-05
3.17061e-05
2.0851e-05
-3.80066e-05
4.71292e-05
2.33754e-05
-4.89186e-05
7.34368e-05
6.26854e-05
1.53722e-06
-1.07356e-06
1.01247e-06
6.28534e-05
1.84361e-06
-1.35858e-06
1.29781e-06
6.29507e-05
1.98848e-06
-1.58871e-06
1.54416e-06
6.29727e-05
2.19804e-06
-1.90849e-06
1.8827e-06
6.29213e-05
2.51779e-06
-2.35157e-06
2.34423e-06
6.27981e-05
2.97138e-06
-2.94079e-06
2.95087e-06
6.25999e-05
3.5865e-06
-3.70924e-06
3.73617e-06
6.23144e-05
4.40117e-06
-4.70646e-06
4.7517e-06
6.1913e-05
5.46915e-06
-6.00508e-06
6.07538e-06
6.13323e-05
6.86851e-06
-7.71265e-06
7.82937e-06
6.043e-05
8.71625e-06
-9.99209e-06
1.02181e-05
5.88742e-05
1.1195e-05
-1.30965e-05
1.36096e-05
5.58723e-05
1.46136e-05
-1.74372e-05
1.8717e-05
4.9233e-05
1.95872e-05
-2.37537e-05
2.72328e-05
3.51666e-05
2.68129e-05
-3.29856e-05
4.109e-05
3.60861e-05
-4.31069e-05
6.55627e-05
6.27243e-05
-9.97407e-07
9.35279e-07
1.3751e-06
6.29498e-05
-1.2632e-06
1.20114e-06
1.68009e-06
6.31212e-05
-1.47448e-06
1.42846e-06
1.86315e-06
6.3233e-05
-1.76553e-06
1.73801e-06
2.11374e-06
6.32897e-05
-2.16526e-06
2.1558e-06
2.4705e-06
6.3298e-05
-2.69137e-06
2.69878e-06
2.95568e-06
6.32634e-05
-3.36935e-06
3.39275e-06
3.59775e-06
6.31872e-05
-4.23704e-06
4.27722e-06
4.43721e-06
6.30615e-05
-5.34897e-06
5.41092e-06
5.53287e-06
6.28549e-05
-6.78418e-06
6.88436e-06
6.97489e-06
6.24704e-05
-8.66064e-06
8.84812e-06
8.91335e-06
6.16275e-05
-1.11617e-05
1.1577e-05
1.16226e-05
5.95497e-05
-1.45966e-05
1.56283e-05
1.56597e-05
5.38121e-05
-1.95807e-05
2.24416e-05
2.2464e-05
4.03055e-05
-2.68113e-05
3.3556e-05
3.35748e-05
-3.60844e-05
5.62274e-05
5.62477e-05
5.8775e-05
3.70604e-06
-1.17293e-06
5.70133e-05
1.72878e-06
-1.468e-06
5.59406e-05
1.01829e-06
-1.71137e-06
5.51373e-05
7.19935e-07
-2.05935e-06
5.4382e-05
6.34278e-07
-2.55401e-06
5.35591e-05
6.53625e-07
-3.2276e-06
5.25897e-05
7.36282e-07
-4.12503e-06
5.13992e-05
8.69076e-07
-5.31027e-06
4.98995e-05
1.0489e-06
-6.87183e-06
4.79712e-05
1.27594e-06
-8.93023e-06
4.54366e-05
1.54934e-06
-1.16471e-05
4.2011e-05
1.86348e-06
-1.5234e-05
3.71993e-05
2.20512e-06
-1.99522e-05
3.00303e-05
2.50946e-06
-2.6002e-05
1.85178e-05
2.88722e-06
-3.36763e-05
2.54973e-06
-3.6671e-05
6.34203e-05
2.76253e-06
-1.30703e-06
6.30659e-05
2.04405e-06
-1.64086e-06
6.24846e-05
1.53713e-06
-1.91114e-06
6.1812e-05
1.29829e-06
-2.29558e-06
6.10592e-05
1.25171e-06
-2.84207e-06
6.01855e-05
1.33882e-06
-3.58653e-06
5.91323e-05
1.53094e-06
-4.57873e-06
5.78266e-05
1.81926e-06
-5.8895e-06
5.61734e-05
2.2047e-06
-7.61699e-06
5.4039e-05
2.69175e-06
-9.89516e-06
5.12214e-05
3.28261e-06
-1.29041e-05
4.73954e-05
3.96973e-06
-1.68802e-05
4.20004e-05
4.72445e-06
-2.21166e-05
3.38851e-05
5.46524e-06
-2.88392e-05
2.10034e-05
6.17829e-06
-3.73579e-05
5.7813e-06
-4.06374e-05
6.30199e-05
2.22081e-06
-1.2846e-06
6.29085e-05
2.11804e-06
-1.61291e-06
6.25433e-05
1.84192e-06
-1.87742e-06
6.20288e-05
1.72105e-06
-2.25299e-06
6.13885e-05
1.75978e-06
-2.78624e-06
6.06029e-05
1.94021e-06
-3.51181e-06
5.96279e-05
2.25324e-06
-4.47775e-06
5.83984e-05
2.70138e-06
-5.75269e-06
5.68216e-05
3.29539e-06
-7.43205e-06
5.47606e-05
4.05011e-06
-9.64674e-06
5.20031e-05
4.97858e-06
-1.25738e-05
4.82037e-05
6.0823e-06
-1.64478e-05
4.27685e-05
7.33284e-06
-2.15628e-05
3.45154e-05
8.6303e-06
-2.81517e-05
2.13245e-05
9.89245e-06
-3.65309e-05
9.47516e-06
-3.9816e-05
6.27295e-05
1.97177e-06
-1.24478e-06
6.26919e-05
2.12105e-06
-1.56304e-06
6.24537e-05
2.02305e-06
-1.81779e-06
6.20646e-05
2.02266e-06
-2.17863e-06
6.15378e-05
2.15984e-06
-2.68992e-06
6.08592e-05
2.44184e-06
-3.38415e-06
5.99926e-05
2.87714e-06
-4.30645e-06
5.88785e-05
3.48191e-06
-5.52155e-06
5.74263e-05
4.28081e-06
-7.11988e-06
5.54963e-05
5.30545e-06
-9.22625e-06
5.28642e-05
6.59015e-06
-1.2011e-05
4.91586e-05
8.16249e-06
-1.57023e-05
4.37377e-05
1.00207e-05
-2.05916e-05
3.53578e-05
1.20667e-05
-2.69206e-05
2.18083e-05
1.42058e-05
-3.50075e-05
1.39781e-05
-3.82917e-05
6.26172e-05
1.83794e-06
-1.19319e-06
6.26107e-05
2.09664e-06
-1.49842e-06
6.24591e-05
2.12196e-06
-1.74047e-06
6.21768e-05
2.223e-06
-2.08211e-06
6.17648e-05
2.45217e-06
-2.5647e-06
6.12093e-05
2.83011e-06
-3.21776e-06
6.04785e-05
3.37831e-06
-4.08241e-06
5.9519e-05
4.12641e-06
-5.21781e-06
5.82443e-05
5.11546e-06
-6.70699e-06
5.65142e-05
6.40001e-06
-8.66528e-06
5.40946e-05
8.0485e-06
-1.12516e-05
5.05837e-05
1.01397e-05
-1.46822e-05
4.52704e-05
1.27456e-05
-1.92398e-05
3.67827e-05
1.58397e-05
-2.51753e-05
2.2749e-05
1.9389e-05
-3.28011e-05
1.9931e-05
-3.60648e-05
6.25915e-05
1.73327e-06
-1.13217e-06
6.26208e-05
2.04083e-06
-1.422e-06
6.25463e-05
2.14896e-06
-1.64897e-06
6.23649e-05
2.32891e-06
-1.96775e-06
6.20714e-05
2.63462e-06
-2.41603e-06
6.16527e-05
3.09301e-06
-3.0197e-06
6.10831e-05
3.73441e-06
-3.81466e-06
6.03172e-05
4.60013e-06
-4.85279e-06
5.92781e-05
5.74806e-06
-6.207e-06
5.78339e-05
7.25946e-06
-7.97894e-06
5.57525e-05
9.24811e-06
-1.03097e-05
5.26142e-05
1.18725e-05
-1.33939e-05
4.76335e-05
1.535e-05
-1.74926e-05
3.92086e-05
1.99024e-05
-2.28563e-05
2.46315e-05
2.57302e-05
-2.97706e-05
2.85818e-05
-3.29361e-05
6.26106e-05
1.61337e-06
-1.06425e-06
6.26908e-05
1.93899e-06
-1.33692e-06
6.26954e-05
2.10269e-06
-1.54708e-06
6.26151e-05
2.34097e-06
-1.84028e-06
6.24442e-05
2.70407e-06
-2.2501e-06
6.21738e-05
3.22075e-06
-2.7981e-06
6.17867e-05
3.92633e-06
-3.51405e-06
6.12507e-05
4.87051e-06
-4.44081e-06
6.05068e-05
6.12518e-06
-5.63838e-06
5.94468e-05
7.79686e-06
-7.19001e-06
5.78663e-05
1.00475e-05
-9.21105e-06
5.53738e-05
1.31296e-05
-1.18611e-05
5.11906e-05
1.7454e-05
-1.5358e-05
4.35035e-05
2.37598e-05
-1.9924e-05
2.90208e-05
3.29869e-05
-2.57595e-05
4.31087e-05
-2.86119e-05
6.26557e-05
-9.92219e-07
1.45247e-06
6.28012e-05
-1.2467e-06
1.77698e-06
6.28894e-05
-1.43903e-06
1.9791e-06
6.29112e-05
-1.70509e-06
2.25872e-06
6.28647e-05
-2.07403e-06
2.65929e-06
6.27486e-05
-2.5627e-06
3.2082e-06
6.25579e-05
-3.194e-06
3.94172e-06
6.22795e-05
-4.00054e-06
4.91238e-06
6.18844e-05
-5.02693e-06
6.1982e-06
6.13095e-05
-6.33334e-06
7.92098e-06
6.04123e-05
-8.0006e-06
1.02847e-05
5.88613e-05
-1.01379e-05
1.36569e-05
5.58641e-05
-1.28959e-05
1.87505e-05
4.92291e-05
-1.64441e-05
2.72581e-05
3.51661e-05
-2.08745e-05
4.1113e-05
-2.33991e-05
6.55895e-05
5.86961e-05
3.71855e-06
-1.08757e-06
5.68385e-05
1.74534e-06
-1.35578e-06
5.56606e-05
1.03758e-06
-1.57108e-06
5.47364e-05
7.43936e-07
-1.87907e-06
5.38353e-05
6.65327e-07
-2.31818e-06
5.28294e-05
6.94692e-07
-2.91646e-06
5.16248e-05
7.91236e-07
-3.71166e-06
5.01272e-05
9.42955e-07
-4.75563e-06
4.82239e-05
1.14823e-06
-6.11676e-06
4.57666e-05
1.409e-06
-7.88193e-06
4.25489e-05
1.72638e-06
-1.01557e-05
3.82705e-05
2.0963e-06
-1.30519e-05
3.2475e-05
2.5049e-06
-1.66616e-05
2.45051e-05
2.88701e-06
-2.09191e-05
1.33052e-05
3.32518e-06
-2.58015e-05
2.97936e-06
-2.63431e-05
6.33326e-05
2.7895e-06
-1.21063e-06
6.28732e-05
2.0781e-06
-1.51412e-06
6.21754e-05
1.57761e-06
-1.75343e-06
6.13689e-05
1.34872e-06
-2.0939e-06
6.04545e-05
1.31697e-06
-2.57924e-06
5.93782e-05
1.4252e-06
-3.24077e-06
5.80644e-05
1.64664e-06
-4.12034e-06
5.64183e-05
1.975e-06
-5.27544e-06
5.43172e-05
2.41439e-06
-6.78201e-06
5.15947e-05
2.97308e-06
-8.73675e-06
4.8016e-05
3.65734e-06
-1.12563e-05
4.32374e-05
4.46306e-06
-1.44684e-05
3.67404e-05
5.36196e-06
-1.84766e-05
2.77329e-05
6.26651e-06
-2.32113e-05
1.51852e-05
7.15006e-06
-2.8635e-05
6.74356e-06
-2.92136e-05
6.29344e-05
2.26093e-06
-1.19044e-06
6.27202e-05
2.16838e-06
-1.48898e-06
6.22415e-05
1.90202e-06
-1.72308e-06
6.15967e-05
1.79599e-06
-2.05555e-06
6.07996e-05
1.85689e-06
-2.52899e-06
5.98175e-05
2.069e-06
-3.17357e-06
5.85899e-05
2.42622e-06
-4.02968e-06
5.703e-05
2.93505e-06
-5.15291e-06
5.50179e-05
3.61147e-06
-6.61697e-06
5.23836e-05
4.47672e-06
-8.51612e-06
4.8881e-05
5.55105e-06
-1.09649e-05
4.41434e-05
6.84268e-06
-1.40899e-05
3.76133e-05
8.32607e-06
-1.79969e-05
2.8459e-05
9.89172e-06
-2.26225e-05
1.55651e-05
1.14527e-05
-2.79396e-05
1.10271e-05
-2.85316e-05
6.26473e-05
2.02338e-06
-1.15449e-06
6.25108e-05
2.18573e-06
-1.44396e-06
6.21639e-05
2.1004e-06
-1.66927e-06
6.16505e-05
2.11924e-06
-1.98849e-06
6.09745e-05
2.28519e-06
-2.4422e-06
6.01096e-05
2.60849e-06
-3.0587e-06
5.90035e-05
3.10171e-06
-3.87585e-06
5.75763e-05
3.78669e-06
-4.94598e-06
5.57109e-05
4.69568e-06
-6.33867e-06
5.32347e-05
5.87006e-06
-8.14344e-06
4.98888e-05
7.35593e-06
-1.04699e-05
4.52769e-05
9.19346e-06
-1.34412e-05
3.87851e-05
1.13898e-05
-1.71635e-05
2.95034e-05
1.38376e-05
-2.15848e-05
1.61898e-05
1.64469e-05
-2.66881e-05
1.62352e-05
-2.73071e-05
6.25392e-05
1.89895e-06
-1.10792e-06
6.2439e-05
2.17308e-06
-1.38564e-06
6.2185e-05
2.21345e-06
-1.59951e-06
6.17863e-05
2.33736e-06
-1.90146e-06
6.12353e-05
2.60085e-06
-2.32941e-06
6.05068e-05
3.02827e-06
-2.90908e-06
5.95547e-05
3.6463e-06
-3.67488e-06
5.83061e-05
4.49197e-06
-4.67447e-06
5.66496e-05
5.6166e-06
-5.97144e-06
5.44137e-05
7.08867e-06
-7.64795e-06
5.13288e-05
8.9947e-06
-9.80552e-06
4.69646e-05
1.14354e-05
-1.25599e-05
4.0625e-05
1.45044e-05
-1.60149e-05
3.1245e-05
1.81751e-05
-2.01328e-05
1.7355e-05
2.24412e-05
-2.49053e-05
2.30792e-05
-2.55511e-05
6.25184e-05
1.80119e-06
-1.05285e-06
6.24603e-05
2.12591e-06
-1.31667e-06
6.22909e-05
2.25083e-06
-1.51697e-06
6.20025e-05
2.45635e-06
-1.79837e-06
6.15824e-05
2.80052e-06
-2.19557e-06
6.10075e-05
3.31456e-06
-2.7311e-06
6.02391e-05
4.03497e-06
-3.43497e-06
5.92151e-05
5.01204e-06
-4.34876e-06
5.7836e-05
6.31658e-06
-5.52794e-06
5.59417e-05
8.04827e-06
-7.0442e-06
5.32664e-05
1.03466e-05
-8.98638e-06
4.93594e-05
1.34051e-05
-1.14567e-05
4.34365e-05
1.74843e-05
-1.45495e-05
3.41592e-05
2.28345e-05
-1.82384e-05
1.96042e-05
2.97413e-05
-2.25157e-05
3.29061e-05
-2.31564e-05
6.25431e-05
1.68539e-06
-9.91558e-07
6.25428e-05
2.0292e-06
-1.2399e-06
6.24609e-05
2.21072e-06
-1.42507e-06
6.22844e-05
2.47611e-06
-1.6835e-06
6.2001e-05
2.88005e-06
-2.04624e-06
6.15936e-05
3.45598e-06
-2.53212e-06
6.10344e-05
4.24601e-06
-3.16593e-06
6.02775e-05
5.30998e-06
-3.98184e-06
5.92459e-05
6.73481e-06
-5.02505e-06
5.78081e-05
8.6494e-06
-6.35333e-06
5.57322e-05
1.12489e-05
-8.03741e-06
5.25989e-05
1.48349e-05
-1.01575e-05
4.76229e-05
1.98887e-05
-1.27865e-05
3.92027e-05
2.72288e-05
-1.58981e-05
2.46289e-05
3.80134e-05
-1.94579e-05
4.89273e-05
-2.00023e-05
6.25941e-05
-9.26555e-07
1.52565e-06
6.26665e-05
-1.15851e-06
1.86862e-06
6.2677e-05
-1.32764e-06
2.08875e-06
6.2614e-05
-1.56171e-06
2.39577e-06
6.24703e-05
-1.88786e-06
2.8376e-06
6.22381e-05
-2.32088e-06
3.44633e-06
6.19048e-05
-2.87979e-06
4.26512e-06
6.14478e-05
-3.59041e-06
5.35687e-06
6.08262e-05
-4.48586e-06
6.81534e-06
5.99623e-05
-5.60671e-06
8.78663e-06
5.86969e-05
-6.99967e-06
1.15135e-05
5.66797e-05
-8.71303e-06
1.54271e-05
5.31066e-05
-1.07834e-05
2.13493e-05
4.59259e-05
-1.31737e-05
3.11392e-05
3.17041e-05
-1.58023e-05
4.71631e-05
-1.62465e-05
7.34792e-05
5.86266e-05
3.72983e-06
-9.44035e-07
5.66844e-05
1.76029e-06
-1.1738e-06
5.54128e-05
1.05498e-06
-1.35451e-06
5.43809e-05
7.65583e-07
-1.61274e-06
5.33506e-05
6.93311e-07
-1.98117e-06
5.2185e-05
7.3166e-07
-2.48255e-06
5.07792e-05
8.4061e-07
-3.14644e-06
4.90264e-05
1.00915e-06
-4.01197e-06
4.68008e-05
1.23687e-06
-5.12809e-06
4.3944e-05
1.52708e-06
-6.55212e-06
4.02502e-05
1.88224e-06
-8.34419e-06
3.54522e-05
2.29925e-06
-1.05531e-05
2.92083e-05
2.76354e-06
-1.31812e-05
2.11682e-05
3.21182e-06
-1.60909e-05
1.08267e-05
3.70806e-06
-1.9168e-05
3.38102e-06
-1.88953e-05
6.32555e-05
2.81385e-06
-1.05014e-06
6.2703e-05
2.10883e-06
-1.31013e-06
6.19015e-05
1.61414e-06
-1.51115e-06
6.09757e-05
1.39419e-06
-1.79674e-06
5.99182e-05
1.37576e-06
-2.20412e-06
5.86649e-05
1.5029e-06
-2.75872e-06
5.7128e-05
1.7505e-06
-3.49334e-06
5.51987e-05
2.11438e-06
-4.4514e-06
5.27397e-05
2.60123e-06
-5.68733e-06
4.95728e-05
3.22227e-06
-7.26501e-06
4.54638e-05
3.98661e-06
-9.25172e-06
4.01053e-05
4.892e-06
-1.17026e-05
3.31054e-05
5.90903e-06
-1.46222e-05
2.4021e-05
6.94422e-06
-1.78593e-05
1.24133e-05
7.95745e-06
-2.12768e-05
7.538e-06
-2.09542e-05
6.28592e-05
2.29714e-06
-1.03297e-06
6.25541e-05
2.21381e-06
-1.28876e-06
6.19742e-05
1.95624e-06
-1.48536e-06
6.12135e-05
1.86356e-06
-1.76416e-06
6.02774e-05
1.94436e-06
-2.16147e-06
5.91237e-05
2.18481e-06
-2.70178e-06
5.76798e-05
2.58136e-06
-3.41669e-06
5.58455e-05
3.1439e-06
-4.34814e-06
5.3486e-05
3.89259e-06
-5.54882e-06
5.04194e-05
4.85359e-06
-7.08086e-06
4.63991e-05
6.05219e-06
-9.01014e-06
4.10922e-05
7.50048e-06
-1.13916e-05
3.4064e-05
9.17243e-06
-1.4232e-05
2.48244e-05
1.09472e-05
-1.7386e-05
1.28419e-05
1.27264e-05
-2.07261e-05
1.22712e-05
-2.04198e-05
6.2575e-05
2.06997e-06
-1.00235e-06
6.23512e-05
2.2441e-06
-1.25041e-06
6.19075e-05
2.17017e-06
-1.43954e-06
6.12834e-05
2.20629e-06
-1.70712e-06
6.04753e-05
2.39804e-06
-2.08774e-06
5.94475e-05
2.75823e-06
-2.60437e-06
5.81367e-05
3.30292e-06
-3.2866e-06
5.64498e-05
4.05866e-06
-4.17377e-06
5.42553e-05
5.06377e-06
-5.31543e-06
5.13687e-05
6.36705e-06
-6.77029e-06
4.75291e-05
8.02291e-06
-8.60104e-06
4.23703e-05
1.0079e-05
-1.08609e-05
3.53933e-05
1.25451e-05
-1.35592e-05
2.60166e-05
1.53e-05
-1.65609e-05
1.35606e-05
1.82442e-05
-1.97499e-05
1.80051e-05
-1.94773e-05
6.24707e-05
1.95401e-06
-9.62674e-07
6.22879e-05
2.24205e-06
-1.20073e-06
6.19427e-05
2.29596e-06
-1.38016e-06
6.14402e-05
2.44041e-06
-1.63311e-06
6.07662e-05
2.73465e-06
-1.99196e-06
5.98867e-05
3.20619e-06
-2.47759e-06
5.87454e-05
3.88614e-06
-3.11681e-06
5.72574e-05
4.81759e-06
-3.94532e-06
5.52979e-05
6.05999e-06
-5.00815e-06
5.26834e-05
7.69228e-06
-6.35873e-06
4.91416e-05
9.81368e-06
-8.05444e-06
4.4267e-05
1.25384e-05
-1.01447e-05
3.74675e-05
1.59697e-05
-1.264e-05
2.79845e-05
2.00694e-05
-1.54192e-05
1.48711e-05
2.48307e-05
-1.83785e-05
2.5474e-05
-1.81458e-05
6.24544e-05
1.86247e-06
-9.15761e-07
6.23192e-05
2.20267e-06
-1.142e-06
6.20654e-05
2.3427e-06
-1.30991e-06
6.16817e-05
2.57116e-06
-1.54547e-06
6.11494e-05
2.94974e-06
-1.87837e-06
6.0438e-05
3.51334e-06
-2.32689e-06
5.94999e-05
4.30363e-06
-2.91435e-06
5.82623e-05
5.37824e-06
-3.67175e-06
5.66142e-05
6.81809e-06
-4.63801e-06
5.43849e-05
8.73656e-06
-5.85914e-06
5.13055e-05
1.1291e-05
-7.38426e-06
4.6946e-05
1.46966e-05
-9.25529e-06
4.0611e-05
1.92354e-05
-1.14803e-05
3.12359e-05
2.51582e-05
-1.3952e-05
1.73492e-05
3.27775e-05
-1.65758e-05
3.60412e-05
-1.63717e-05
6.24841e-05
1.75039e-06
-8.6355e-07
6.24129e-05
2.11059e-06
-1.07662e-06
6.22541e-05
2.30812e-06
-1.23171e-06
6.19918e-05
2.59783e-06
-1.44783e-06
6.16087e-05
3.03829e-06
-1.75168e-06
6.10815e-05
3.66691e-06
-2.15852e-06
6.03753e-05
4.53149e-06
-2.68757e-06
5.94357e-05
5.70005e-06
-3.3641e-06
5.81771e-05
7.27115e-06
-4.21945e-06
5.646e-05
9.39011e-06
-5.28985e-06
5.40514e-05
1.22749e-05
-6.61263e-06
5.05503e-05
1.62573e-05
-8.21719e-06
4.52464e-05
2.18555e-05
-1.01027e-05
3.67683e-05
2.99095e-05
-1.21714e-05
2.27412e-05
4.16704e-05
-1.43236e-05
5.28859e-05
-1.41037e-05
6.25403e-05
-8.08188e-07
1.59168e-06
6.25485e-05
-1.00731e-06
1.95128e-06
6.24901e-05
-1.14881e-06
2.18761e-06
6.23514e-05
-1.34434e-06
2.5192e-06
6.21213e-05
-1.61736e-06
2.99789e-06
6.17874e-05
-1.97989e-06
3.6598e-06
6.13319e-05
-2.44662e-06
4.55378e-06
6.07269e-05
-3.03643e-06
5.75107e-06
5.99266e-05
-3.77185e-06
7.35744e-06
5.88507e-05
-4.67717e-06
9.53656e-06
5.73432e-05
-5.77425e-06
1.25569e-05
5.5073e-05
-7.07383e-06
1.68883e-05
5.12939e-05
-8.55767e-06
2.34089e-05
4.4123e-05
-1.0132e-05
3.40387e-05
3.0325e-05
-1.16777e-05
5.13439e-05
-1.14448e-05
7.84098e-05
5.85686e-05
3.73945e-06
-7.52077e-07
5.65553e-05
1.77302e-06
-9.33544e-07
5.52051e-05
1.06978e-06
-1.0741e-06
5.4083e-05
7.83998e-07
-1.2746e-06
5.29453e-05
7.17085e-07
-1.56056e-06
5.16487e-05
7.63009e-07
-1.94898e-06
5.00812e-05
8.82379e-07
-2.46126e-06
4.81289e-05
1.06496e-06
-3.1247e-06
4.56613e-05
1.31126e-06
-3.97174e-06
4.25209e-05
1.62558e-06
-5.03722e-06
3.85173e-05
2.01126e-06
-6.35195e-06
3.34282e-05
2.46558e-06
-7.92962e-06
2.70138e-05
2.97291e-06
-9.73967e-06
1.91049e-05
3.47002e-06
-1.1652e-05
9.47876e-06
4.00466e-06
-1.35466e-05
3.67973e-06
-1.3094e-05
6.3191e-05
2.83459e-06
-8.36261e-07
6.25604e-05
2.13501e-06
-1.04158e-06
6.16719e-05
1.64522e-06
-1.19802e-06
6.06461e-05
1.43286e-06
-1.41982e-06
5.94695e-05
1.42568e-06
-1.73612e-06
5.80709e-05
1.56877e-06
-2.16591e-06
5.63546e-05
1.8383e-06
-2.73294e-06
5.4204e-05
2.23177e-06
-3.46758e-06
5.14759e-05
2.75785e-06
-4.40587e-06
4.79934e-05
3.42983e-06
-5.58673e-06
4.3539e-05
4.25866e-06
-7.04474e-06
3.78549e-05
5.24281e-06
-8.79575e-06
3.06618e-05
6.35088e-06
-1.0807e-05
2.17235e-05
7.48336e-06
-1.29344e-05
1.09011e-05
8.58756e-06
-1.50373e-05
8.14875e-06
-1.4519e-05
6.27964e-05
2.32798e-06
-8.22762e-07
6.24149e-05
2.25251e-06
-1.0248e-06
6.17502e-05
2.00239e-06
-1.17781e-06
6.08922e-05
1.92102e-06
-1.3943e-06
5.98405e-05
2.01861e-06
-1.70274e-06
5.8546e-05
2.28292e-06
-2.12141e-06
5.69284e-05
2.71242e-06
-2.67318e-06
5.48797e-05
3.31961e-06
-3.38731e-06
5.22596e-05
4.12783e-06
-4.29865e-06
4.88867e-05
5.16673e-06
-5.44489e-06
4.45302e-05
6.46487e-06
-6.85984e-06
3.89049e-05
8.03606e-06
-8.55948e-06
3.1685e-05
9.85193e-06
-1.05132e-05
2.25829e-05
1.17811e-05
-1.25815e-05
1.13628e-05
1.37127e-05
-1.46312e-05
1.32226e-05
-1.41276e-05
6.25147e-05
2.10965e-06
-7.98685e-07
6.22176e-05
2.29381e-06
-9.94638e-07
6.16927e-05
2.22955e-06
-1.1418e-06
6.09758e-05
2.28029e-06
-1.3495e-06
6.00578e-05
2.49381e-06
-1.64493e-06
5.88965e-05
2.885e-06
-2.04518e-06
5.74213e-05
3.47271e-06
-2.57165e-06
5.55317e-05
4.28712e-06
-3.25168e-06
5.30909e-05
5.37109e-06
-4.11794e-06
4.99145e-05
6.77869e-06
-5.20583e-06
4.57559e-05
8.56964e-06
-6.54725e-06
4.02932e-05
1.07955e-05
-8.15767e-06
3.31305e-05
1.34647e-05
-1.00092e-05
2.38791e-05
1.64423e-05
-1.19706e-05
1.21439e-05
1.96164e-05
-1.39185e-05
1.93375e-05
-1.34449e-05
6.24136e-05
2.00091e-06
-7.67486e-07
6.21614e-05
2.30079e-06
-9.55578e-07
6.17398e-05
2.36617e-06
-1.09514e-06
6.11504e-05
2.52799e-06
-1.29142e-06
6.0374e-05
2.84814e-06
-1.56987e-06
5.93707e-05
3.35672e-06
-1.94605e-06
5.80776e-05
4.0883e-06
-2.43927e-06
5.6403e-05
5.09065e-06
-3.07427e-06
5.42172e-05
6.42923e-06
-3.88053e-06
5.13368e-05
8.19034e-06
-4.88995e-06
4.7502e-05
1.04813e-05
-6.13124e-06
4.23472e-05
1.34237e-05
-7.61822e-06
3.53744e-05
1.7123e-05
-9.32541e-06
2.60033e-05
2.15269e-05
-1.11328e-05
1.35494e-05
2.66197e-05
-1.29278e-05
2.72358e-05
-1.24916e-05
6.24011e-05
1.91467e-06
-7.30597e-07
6.22012e-05
2.26803e-06
-9.094e-07
6.18766e-05
2.42086e-06
-1.03996e-06
6.14131e-05
2.66871e-06
-1.22265e-06
6.07875e-05
3.07626e-06
-1.48089e-06
5.99642e-05
3.68139e-06
-1.82828e-06
5.88899e-05
4.52984e-06
-2.28157e-06
5.74861e-05
5.6848e-06
-2.86212e-06
5.56378e-05
7.23463e-06
-3.59516e-06
5.31746e-05
9.3022e-06
-4.50771e-06
4.98388e-05
1.20562e-05
-5.62347e-06
4.52358e-05
1.57239e-05
-6.95251e-06
3.87525e-05
2.05961e-05
-8.47007e-06
2.94814e-05
2.6914e-05
-1.0068e-05
1.61727e-05
3.49966e-05
-1.1644e-05
3.8281e-05
-1.12413e-05
6.24349e-05
1.80573e-06
-6.89544e-07
6.23045e-05
2.17988e-06
-8.5801e-07
6.20812e-05
2.39097e-06
-9.78531e-07
6.17469e-05
2.70122e-06
-1.14606e-06
6.12808e-05
3.17241e-06
-1.38169e-06
6.06553e-05
3.84514e-06
-1.6968e-06
5.9831e-05
4.77164e-06
-2.1051e-06
5.87495e-05
6.02611e-06
-2.6239e-06
5.73223e-05
7.71558e-06
-3.27321e-06
5.54117e-05
9.99662e-06
-4.07363e-06
5.27954e-05
1.31015e-05
-5.04171e-06
4.91038e-05
1.73793e-05
-6.18092e-06
4.36964e-05
2.33646e-05
-7.46386e-06
3.5332e-05
3.18995e-05
-8.79251e-06
2.17901e-05
4.4282e-05
-1.00671e-05
5.56442e-05
-9.67474e-06
6.24957e-05
-6.46014e-07
1.64791e-06
6.24501e-05
-8.03526e-07
2.02166e-06
6.2334e-05
-9.13421e-07
2.2717e-06
6.21317e-05
-1.06489e-06
2.62404e-06
6.18296e-05
-1.27655e-06
3.13374e-06
6.1412e-05
-1.55736e-06
3.84013e-06
6.08583e-05
-1.91775e-06
4.79651e-06
6.01381e-05
-2.37051e-06
6.08037e-06
5.92054e-05
-2.92963e-06
7.80612e-06
5.79836e-05
-3.60798e-06
1.01492e-05
5.63294e-05
-4.41273e-06
1.33942e-05
5.39396e-05
-5.33709e-06
1.80323e-05
5.01237e-05
-6.34604e-06
2.49689e-05
4.30926e-05
-7.34844e-06
3.61471e-05
2.96877e-05
-8.23896e-06
5.42481e-05
-7.8605e-06
8.17483e-05
5.85236e-05
3.74698e-06
-5.22638e-07
5.64552e-05
1.78303e-06
-6.48246e-07
5.5044e-05
1.08141e-06
-7.44269e-07
5.3852e-05
7.98462e-07
-8.81102e-07
5.26319e-05
7.35735e-07
-1.07615e-06
5.1236e-05
7.87554e-07
-1.34062e-06
4.9548e-05
9.14995e-07
-1.68825e-06
4.74509e-05
1.10839e-06
-2.13606e-06
4.48136e-05
1.3689e-06
-2.70334e-06
4.14841e-05
1.70148e-06
-3.4092e-06
3.72897e-05
2.10997e-06
-4.26747e-06
3.20457e-05
2.59168e-06
-5.27728e-06
2.55823e-05
3.12986e-06
-6.40617e-06
1.78295e-05
3.66071e-06
-7.55989e-06
8.71289e-06
4.22066e-06
-8.65063e-06
3.89355e-06
-8.27247e-06
6.31409e-05
2.8509e-06
-5.81113e-07
6.24498e-05
2.15559e-06
-7.2305e-07
6.14936e-05
1.66964e-06
-8.30017e-07
6.03904e-05
1.4632e-06
-9.81381e-07
5.91224e-05
1.46481e-06
-1.19717e-06
5.76136e-05
1.62028e-06
-1.48987e-06
5.57637e-05
1.90678e-06
-1.87474e-06
5.34522e-05
2.32301e-06
-2.37071e-06
5.05354e-05
2.87903e-06
-2.99927e-06
4.68425e-05
3.58951e-06
-3.78176e-06
4.2175e-05
4.46645e-06
-4.73378e-06
3.63173e-05
5.50839e-06
-5.85473e-06
2.90675e-05
6.68186e-06
-7.10921e-06
2.03038e-05
7.88243e-06
-8.39245e-06
1.00418e-05
9.04785e-06
-9.6025e-06
8.59122e-06
-9.17175e-06
6.27477e-05
2.35223e-06
-5.71746e-07
6.2307e-05
2.28293e-06
-7.11498e-07
6.15764e-05
2.03865e-06
-8.16176e-07
6.06431e-05
1.96611e-06
-9.63896e-07
5.95027e-05
2.0768e-06
-1.17431e-06
5.81013e-05
2.35962e-06
-1.45943e-06
5.63543e-05
2.81458e-06
-1.83393e-06
5.415e-05
3.45605e-06
-2.31603e-06
5.13472e-05
4.30959e-06
-2.92645e-06
4.77705e-05
5.40718e-06
-3.68584e-06
4.32072e-05
6.77924e-06
-4.60934e-06
3.74126e-05
8.44011e-06
-5.69665e-06
3.01365e-05
1.03587e-05
-6.91394e-06
2.12016e-05
1.23953e-05
-8.15946e-06
1.05257e-05
1.44291e-05
-9.33647e-06
1.39089e-05
-8.91635e-06
6.24679e-05
2.14085e-06
-5.55179e-07
6.2114e-05
2.33289e-06
-6.90697e-07
6.1526e-05
2.2762e-06
-7.91361e-07
6.07373e-05
2.33834e-06
-9.3305e-07
5.97349e-05
2.56881e-06
-1.13455e-06
5.84724e-05
2.98406e-06
-1.4071e-06
5.68748e-05
3.60495e-06
-1.76438e-06
5.48382e-05
4.4643e-06
-2.2234e-06
5.22252e-05
5.60811e-06
-2.80349e-06
4.88566e-05
7.09391e-06
-3.52391e-06
4.45028e-05
8.98458e-06
-4.3988e-06
3.88798e-05
1.13333e-05
-5.42785e-06
3.16629e-05
1.41459e-05
-6.57942e-06
2.25682e-05
1.72767e-05
-7.75734e-06
1.13476e-05
2.0603e-05
-8.87183e-06
2.02882e-05
-8.47335e-06
6.23693e-05
2.03779e-06
-5.3368e-07
6.20634e-05
2.34695e-06
-6.63788e-07
6.15824e-05
2.42132e-06
-7.59243e-07
6.09257e-05
2.59668e-06
-8.93102e-07
6.00707e-05
2.93699e-06
-1.083e-06
5.89736e-05
3.47426e-06
-1.33913e-06
5.75675e-05
4.2456e-06
-1.67384e-06
5.57579e-05
5.30211e-06
-2.10244e-06
5.34143e-05
6.71341e-06
-2.64227e-06
5.03582e-05
8.57055e-06
-3.31052e-06
4.63454e-05
1.09857e-05
-4.11958e-06
4.10449e-05
1.40841e-05
-5.06857e-06
3.40233e-05
1.79702e-05
-6.12812e-06
2.47967e-05
2.258e-05
-7.20947e-06
1.28145e-05
2.78885e-05
-8.23111e-06
2.84742e-05
-7.85988e-06
6.23598e-05
1.95571e-06
-5.08266e-07
6.21099e-05
2.31939e-06
-6.31975e-07
6.17303e-05
2.48224e-06
-7.21253e-07
6.12049e-05
2.74519e-06
-8.45807e-07
6.05076e-05
3.17528e-06
-1.02189e-06
5.95995e-05
3.81254e-06
-1.25842e-06
5.84239e-05
4.70569e-06
-1.56605e-06
5.68999e-05
5.92187e-06
-1.95793e-06
5.49124e-05
7.55452e-06
-2.44879e-06
5.22955e-05
9.73262e-06
-3.05289e-06
4.8806e-05
1.26317e-05
-3.77986e-06
4.40795e-05
1.64852e-05
-4.62716e-06
3.75602e-05
2.15863e-05
-5.56693e-06
2.84235e-05
2.81672e-05
-6.51849e-06
1.55303e-05
3.6546e-05
-7.40835e-06
3.98288e-05
-7.06273e-06
6.23969e-05
1.84924e-06
-4.79981e-07
6.22205e-05
2.23434e-06
-5.96575e-07
6.19472e-05
2.45602e-06
-6.78971e-07
6.15572e-05
2.78228e-06
-7.93144e-07
6.10272e-05
3.27734e-06
-9.53792e-07
6.03271e-05
3.98416e-06
-1.16834e-06
5.9415e-05
4.95819e-06
-1.44551e-06
5.82309e-05
6.27798e-06
-1.79585e-06
5.66868e-05
8.05627e-06
-2.23087e-06
5.465e-05
1.04568e-05
-2.76103e-06
5.19115e-05
1.37206e-05
-3.39201e-06
4.81284e-05
1.82055e-05
-4.11811e-06
4.27088e-05
2.44535e-05
-4.91136e-06
3.44785e-05
3.33036e-05
-5.69867e-06
2.1289e-05
4.60795e-05
-6.41108e-06
5.75258e-05
-6.08067e-06
6.24611e-05
-4.49993e-07
1.69211e-06
6.2374e-05
-5.59045e-07
2.07696e-06
6.22131e-05
-6.34158e-07
2.33772e-06
6.19616e-05
-7.37337e-07
2.70622e-06
6.1604e-05
-8.81622e-07
3.24002e-06
6.11228e-05
-1.07285e-06
3.98077e-06
6.04959e-05
-1.31762e-06
4.98501e-06
5.96924e-05
-1.62362e-06
6.3346e-06
5.86679e-05
-1.99866e-06
8.14975e-06
5.7352e-05
-2.44865e-06
1.06134e-05
5.56144e-05
-2.97402e-06
1.40194e-05
5.3176e-05
-3.56382e-06
1.88706e-05
4.93851e-05
-4.1869e-06
2.60852e-05
4.24991e-05
-4.77532e-06
3.76166e-05
2.93853e-05
-5.25964e-06
5.6214e-05
-4.94141e-06
8.39928e-05
5.8493e-05