/*--------------------------------*- C++ -*----------------------------------*\
| =========                 |                                                 |
| \\      /  F ield         | OpenFOAM: The Open Source CFD Toolbox           |
|  \\    /   O peration     | Version:  v1912                                 |
|   \\  /    A nd           | Website:  www.openfoam.com                      |
|    \\/     M anipulation  |                                                 |
\*---------------------------------------------------------------------------*/
FoamFile
{
    version     2.0;
    format      ascii;
    class       pointVectorField;
    location    "0.04/fluid";
    object      pointMotionU;
}
// * * * * * * * * * * * * * * * * * * * * * * * * * * * * * * * * * * * * * //

dimensions      [0 1 -1 0 0 0 0];


internalField   nonuniform List<vector> 
16859
(
(0 0 0)
(0 0 0)
(0 0 0)
(0 0 0)
(0 0 0)
(0 0 0)
(0 0 0)
(0 0 0)
(0 0 0)
(0 0 0)
(0 0 0)
(0 0 0)
(0 0 0)
(0 0 0)
(0 0 0)
(0 0 0)
(-2.26496e-07 6.82912e-07 -1.38591e-07)
(0 0 0)
(9.07538e-09 -1.98762e-08 1.0067e-08)
(1.31023e-08 -4.32512e-08 2.20063e-08)
(1.0892e-08 -7.367e-08 3.76874e-08)
(2.65504e-09 -1.13086e-07 5.81999e-08)
(-1.08186e-08 -1.62268e-07 8.42863e-08)
(-2.96874e-08 -2.21627e-07 1.17253e-07)
(-5.65274e-08 -2.91846e-07 1.59989e-07)
(-9.70473e-08 -3.73394e-07 2.17497e-07)
(-1.59487e-07 -4.64742e-07 2.95659e-07)
(-2.51056e-07 -5.59296e-07 3.97845e-07)
(-3.68655e-07 -6.41911e-07 5.20073e-07)
(-4.88643e-07 -6.87554e-07 6.47137e-07)
(-5.85891e-07 -6.67656e-07 7.58302e-07)
(-6.70222e-07 -5.49909e-07 8.32265e-07)
(-7.33431e-07 -3.05937e-07 8.34853e-07)
(-1.21126e-07 4.35488e-07 4.85234e-07)
(0 0 0)
(1.6964e-08 -3.8597e-08 1.97542e-08)
(2.47491e-08 -8.39444e-08 4.31543e-08)
(2.08964e-08 -1.42931e-07 7.38197e-08)
(5.40593e-09 -2.19512e-07 1.13957e-07)
(-2.06624e-08 -3.15373e-07 1.65077e-07)
(-5.77094e-08 -4.31337e-07 2.29761e-07)
(-1.1018e-07 -5.68452e-07 3.13586e-07)
(-1.87878e-07 -7.27443e-07 4.26058e-07)
(-3.04516e-07 -9.05922e-07 5.78768e-07)
(-4.70049e-07 -1.09326e-06 7.79175e-07)
(-6.72951e-07 -1.26464e-06 1.02094e-06)
(-8.61926e-07 -1.3801e-06 1.27716e-06)
(-9.77765e-07 -1.40025e-06 1.5094e-06)
(-9.96783e-07 -1.30177e-06 1.68147e-06)
(-8.79463e-07 -1.09992e-06 1.75483e-06)
(1.13577e-07 -7.06575e-07 1.71005e-06)
(0 0 0)
(2.42679e-08 -5.488e-08 2.86766e-08)
(3.58431e-08 -1.19549e-07 6.26582e-08)
(3.10586e-08 -2.03908e-07 1.0721e-07)
(9.44679e-09 -3.13822e-07 1.65554e-07)
(-2.78739e-08 -4.51867e-07 2.3999e-07)
(-8.12761e-08 -6.19038e-07 3.34123e-07)
(-1.55845e-07 -8.16319e-07 4.55698e-07)
(-2.63062e-07 -1.04464e-06 6.18202e-07)
(-4.18466e-07 -1.30222e-06 8.38958e-07)
(-6.30607e-07 -1.57858e-06 1.13099e-06)
(-8.77869e-07 -1.84681e-06 1.48939e-06)
(-1.08644e-06 -2.06091e-06 1.87979e-06)
(-1.17427e-06 -2.17566e-06 2.24687e-06)
(-1.11029e-06 -2.17208e-06 2.53695e-06)
(-8.83392e-07 -2.07298e-06 2.70031e-06)
(1.21355e-07 -1.80079e-06 2.69882e-06)
(0 0 0)
(3.12302e-08 -6.82966e-08 3.67813e-08)
(4.66021e-08 -1.49155e-07 8.03974e-08)
(4.14064e-08 -2.55041e-07 1.37587e-07)
(1.46902e-08 -3.93488e-07 2.12553e-07)
(-3.23563e-08 -5.67748e-07 3.08219e-07)
(-9.96536e-08 -7.78702e-07 4.28959e-07)
(-1.91722e-07 -1.02697e-06 5.84084e-07)
(-3.19271e-07 -1.31379e-06 7.90437e-07)
(-4.96082e-07 -1.6395e-06 1.07089e-06)
(-7.25857e-07 -1.99764e-06 1.44564e-06)
(-9.77009e-07 -2.36511e-06 1.91465e-06)
(-1.16257e-06 -2.69569e-06 2.44006e-06)
(-1.19686e-06 -2.93814e-06 2.94961e-06)
(-1.06902e-06 -3.06376e-06 3.3608e-06)
(-8.10085e-07 -3.07334e-06 3.59317e-06)
(1.44812e-07 -2.88512e-06 3.58164e-06)
(0 0 0)
(3.76475e-08 -7.89471e-08 4.418e-08)
(5.66057e-08 -1.72831e-07 9.65649e-08)
(5.1307e-08 -2.96182e-07 1.65211e-07)
(2.04252e-08 -4.57829e-07 2.55194e-07)
(-3.46979e-08 -6.61482e-07 3.69948e-07)
(-1.13197e-07 -9.07726e-07 5.14319e-07)
(-2.18091e-07 -1.19673e-06 6.98712e-07)
(-3.57521e-07 -1.53041e-06 9.42505e-07)
(-5.40404e-07 -1.91211e-06 1.27381e-06)
(-7.62206e-07 -2.3411e-06 1.72034e-06)
(-9.80812e-07 -2.80079e-06 2.28963e-06)
(-1.10305e-06 -3.2487e-06 2.94564e-06)
(-1.05422e-06 -3.63119e-06 3.60362e-06)
(-8.56709e-07 -3.91138e-06 4.15282e-06)
(-5.82818e-07 -4.05792e-06 4.47201e-06)
(2.9927e-07 -3.97006e-06 4.45151e-06)
(0 0 0)
(4.32068e-08 -8.71038e-08 5.10181e-08)
(6.53487e-08 -1.90984e-07 1.11424e-07)
(6.02276e-08 -3.27674e-07 1.9043e-07)
(2.62309e-08 -5.0694e-07 2.93886e-07)
(-3.50567e-08 -7.32725e-07 4.25671e-07)
(-1.21768e-07 -1.00528e-06 5.90887e-07)
(-2.34917e-07 -1.3245e-06 8.00494e-07)
(-3.78825e-07 -1.69313e-06 1.07575e-06)
(-5.55419e-07 -2.11736e-06 1.4485e-06)
(-7.49334e-07 -2.60116e-06 1.95286e-06)
(-9.06627e-07 -3.13333e-06 2.60502e-06)
(-9.3217e-07 -3.67698e-06 3.37569e-06)
(-7.64815e-07 -4.18752e-06 4.18149e-06)
(-4.51672e-07 -4.63992e-06 4.90141e-06)
(-1.02621e-07 -4.98865e-06 5.37848e-06)
(7.18964e-07 -5.0845e-06 5.42519e-06)
(0 0 0)
(4.77232e-08 -9.30485e-08 5.74184e-08)
(7.26416e-08 -2.04049e-07 1.25158e-07)
(6.81631e-08 -3.49931e-07 2.1346e-07)
(3.24517e-08 -5.41021e-07 3.28895e-07)
(-3.26434e-08 -7.81384e-07 4.7571e-07)
(-1.2406e-07 -1.07094e-06 6.59096e-07)
(-2.40443e-07 -1.40941e-06 8.90229e-07)
(-3.81884e-07 -1.80031e-06 1.19089e-06)
(-5.42857e-07 -2.25136e-06 1.59433e-06)
(-6.97047e-07 -2.76792e-06 2.13804e-06)
(-7.81555e-07 -3.33983e-06 2.84358e-06)
(-7.01469e-07 -3.93525e-06 3.69286e-06)
(-4.03702e-07 -4.52332e-06 4.61724e-06)
(7.69947e-08 -5.10459e-06 5.51911e-06)
(6.3238e-07 -5.63983e-06 6.24672e-06)
(1.65427e-06 -6.39216e-06 6.71907e-06)
(0 0 0)
(5.12803e-08 -9.69952e-08 6.34072e-08)
(7.88464e-08 -2.12239e-07 1.37793e-07)
(7.58043e-08 -3.63096e-07 2.34263e-07)
(4.0075e-08 -5.6011e-07 3.60096e-07)
(-2.60168e-08 -8.07141e-07 5.19879e-07)
(-1.1794e-07 -1.10381e-06 7.18747e-07)
(-2.31899e-07 -1.44985e-06 9.67414e-07)
(-3.64027e-07 -1.84909e-06 1.28677e-06)
(-5.03138e-07 -2.30917e-06 1.70847e-06)
(-6.16655e-07 -2.83334e-06 2.26774e-06)
(-6.39219e-07 -3.40734e-06 2.98676e-06)
(-4.85709e-07 -3.99954e-06 3.85371e-06)
(-1.11373e-07 -4.58566e-06 4.81556e-06)
(4.59267e-07 -5.1696e-06 5.80003e-06)
(1.11308e-06 -5.6959e-06 6.65487e-06)
(2.60043e-06 -6.52772e-06 7.9068e-06)
(0 0 0)
(0 0 0)
(0 0 0)
(0 0 0)
(0 0 0)
(0 0 0)
(0 0 0)
(0 0 0)
(0 0 0)
(0 0 0)
(0 0 0)
(0 0 0)
(0 0 0)
(0 0 0)
(0 0 0)
(0 0 0)
(-1.32664e-06 1.0627e-07 4.0828e-07)
(0 0 0)
(9.12215e-09 -1.79576e-08 9.23129e-09)
(1.26398e-08 -4.02375e-08 2.05206e-08)
(9.03525e-09 -7.06516e-08 3.57531e-08)
(-1.6273e-09 -1.11223e-07 5.59972e-08)
(-1.85386e-08 -1.62572e-07 8.19076e-08)
(-4.19415e-08 -2.24938e-07 1.14675e-07)
(-7.48603e-08 -2.99062e-07 1.57199e-07)
(-1.24229e-07 -3.8582e-07 2.14533e-07)
(-2.00121e-07 -4.8411e-07 2.92661e-07)
(-3.12743e-07 -5.87445e-07 3.95241e-07)
(-4.6666e-07 -6.81425e-07 5.20072e-07)
(-6.60231e-07 -7.45503e-07 6.59454e-07)
(-9.0914e-07 -7.60551e-07 8.06829e-07)
(-1.26779e-06 -7.05306e-07 9.58823e-07)
(-1.75915e-06 -5.582e-07 1.10822e-06)
(-2.56111e-06 -3.19034e-07 1.46049e-06)
(0 0 0)
(1.69901e-08 -3.48804e-08 1.8162e-08)
(2.37499e-08 -7.81062e-08 4.03079e-08)
(1.72132e-08 -1.3704e-07 7.00778e-08)
(-2.89921e-09 -2.15738e-07 1.09588e-07)
(-3.55318e-08 -3.15615e-07 1.60186e-07)
(-8.12277e-08 -4.37202e-07 2.24243e-07)
(-1.45305e-07 -5.81683e-07 3.07318e-07)
(-2.39587e-07 -7.50565e-07 4.19113e-07)
(-3.81025e-07 -9.42247e-07 5.71512e-07)
(-5.84654e-07 -1.14639e-06 7.72641e-07)
(-8.50573e-07 -1.33894e-06 1.01962e-06)
(-1.15792e-06 -1.48517e-06 1.2971e-06)
(-1.49161e-06 -1.55485e-06 1.5851e-06)
(-1.84666e-06 -1.53017e-06 1.86353e-06)
(-2.15214e-06 -1.42165e-06 2.11272e-06)
(-2.47358e-06 -1.36093e-06 2.63889e-06)
(0 0 0)
(2.43065e-08 -4.9498e-08 2.64096e-08)
(3.44219e-08 -1.11051e-07 5.85733e-08)
(2.58542e-08 -1.95187e-07 1.01735e-07)
(-2.2515e-09 -3.07884e-07 1.58991e-07)
(-4.88097e-08 -4.51353e-07 2.32352e-07)
(-1.14387e-07 -6.26205e-07 3.25167e-07)
(-2.05116e-07 -8.33651e-07 4.45146e-07)
(-3.34872e-07 -1.0756e-06 6.06118e-07)
(-5.23003e-07 -1.35142e-06 8.25938e-07)
(-7.83838e-07 -1.65107e-06 1.11885e-06)
(-1.10851e-06 -1.94802e-06 1.4845e-06)
(-1.4544e-06 -2.1998e-06 1.9015e-06)
(-1.77851e-06 -2.36613e-06 2.33309e-06)
(-2.05133e-06 -2.42817e-06 2.73709e-06)
(-2.21323e-06 -2.40357e-06 3.07875e-06)
(-2.48749e-06 -2.3781e-06 3.63466e-06)
(0 0 0)
(3.13091e-08 -6.1458e-08 3.39166e-08)
(4.48727e-08 -1.38276e-07 7.51767e-08)
(3.49948e-08 -2.4366e-07 1.30457e-07)
(2.58241e-10 -3.85262e-07 2.0376e-07)
(-5.82227e-08 -5.65914e-07 2.97656e-07)
(-1.40579e-07 -7.86063e-07 4.16183e-07)
(-2.52356e-07 -1.04657e-06 5.68673e-07)
(-4.06576e-07 -1.34979e-06 7.72363e-07)
(-6.20603e-07 -1.69746e-06 1.05105e-06)
(-9.0369e-07 -2.08375e-06 1.42657e-06)
(-1.23629e-06 -2.4853e-06 1.9041e-06)
(-1.56164e-06 -2.8565e-06 2.45869e-06)
(-1.83101e-06 -3.14577e-06 3.0344e-06)
(-2.03383e-06 -3.3203e-06 3.55642e-06)
(-2.15832e-06 -3.38058e-06 3.96148e-06)
(-2.45897e-06 -3.39127e-06 4.52075e-06)
(0 0 0)
(3.77149e-08 -7.09454e-08 4.07902e-08)
(5.45544e-08 -1.60006e-07 9.03129e-08)
(4.38544e-08 -2.82534e-07 1.56518e-07)
(3.74298e-09 -4.47498e-07 2.44216e-07)
(-6.45687e-08 -6.58157e-07 3.56425e-07)
(-1.60424e-07 -9.14642e-07 4.97636e-07)
(-2.87735e-07 -1.21737e-06 6.78233e-07)
(-4.56501e-07 -1.56945e-06 9.1823e-07)
(-6.78563e-07 -1.9758e-06 1.24677e-06)
(-9.53527e-07 -2.4364e-06 1.69376e-06)
(-1.24959e-06 -2.93356e-06 2.27216e-06)
(-1.50184e-06 -3.4219e-06 2.95725e-06)
(-1.6724e-06 -3.84221e-06 3.67723e-06)
(-1.79319e-06 -4.15065e-06 4.32592e-06)
(-1.90921e-06 -4.32106e-06 4.80719e-06)
(-2.27468e-06 -4.38422e-06 5.37947e-06)
(0 0 0)
(4.31439e-08 -7.82898e-08 4.71708e-08)
(6.28551e-08 -1.76768e-07 1.0425e-07)
(5.17529e-08 -3.12343e-07 1.80302e-07)
(7.60782e-09 -4.94947e-07 2.80864e-07)
(-6.82144e-08 -7.28096e-07 4.09345e-07)
(-1.7407e-07 -1.01158e-06 5.70449e-07)
(-3.11621e-07 -1.34555e-06 7.75218e-07)
(-4.86576e-07 -1.73398e-06 1.0455e-06)
(-7.02458e-07 -2.18469e-06 1.41454e-06)
(-9.45966e-07 -2.70227e-06 1.91897e-06)
(-1.16996e-06 -3.27305e-06 2.57967e-06)
(-1.30246e-06 -3.85392e-06 3.37658e-06)
(-1.3176e-06 -4.39059e-06 4.2339e-06)
(-1.28264e-06 -4.8513e-06 5.03211e-06)
(-1.30412e-06 -5.20676e-06 5.6472e-06)
(-1.76312e-06 -5.34413e-06 6.29235e-06)
(0 0 0)
(4.73895e-08 -8.38031e-08 5.31685e-08)
(6.95369e-08 -1.89045e-07 1.17172e-07)
(5.8605e-08 -3.33584e-07 2.02053e-07)
(1.20636e-08 -5.27978e-07 3.14039e-07)
(-6.85438e-08 -7.75895e-07 4.56874e-07)
(-1.8037e-07 -1.0768e-06 6.35353e-07)
(-3.22564e-07 -1.43067e-06 8.60666e-07)
(-4.95842e-07 -1.84217e-06 1.15537e-06)
(-6.94998e-07 -2.3206e-06 1.55432e-06)
(-8.92963e-07 -2.87139e-06 2.09711e-06)
(-1.02829e-06 -3.4805e-06 2.80964e-06)
(-1.02128e-06 -4.10653e-06 3.67918e-06)
(-8.44955e-07 -4.70501e-06 4.64024e-06)
(-5.50883e-07 -5.26685e-06 5.59096e-06)
(-2.35856e-07 -5.77355e-06 6.40988e-06)
(-4.25754e-07 -6.40888e-06 7.23105e-06)
(0 0 0)
(5.0569e-08 -8.76768e-08 5.87962e-08)
(7.49773e-08 -1.97044e-07 1.29064e-07)
(6.51037e-08 -3.46377e-07 2.21715e-07)
(1.81185e-08 -5.46579e-07 3.43664e-07)
(-6.40941e-08 -8.01253e-07 4.98951e-07)
(-1.77215e-07 -1.10951e-06 6.92258e-07)
(-3.1759e-07 -1.47115e-06 9.3442e-07)
(-4.81497e-07 -1.89106e-06 1.24714e-06)
(-6.56692e-07 -2.37811e-06 1.66339e-06)
(-8.07327e-07 -2.93508e-06 2.2205e-06)
(-8.64869e-07 -3.54287e-06 2.94347e-06)
(-7.50303e-07 -4.15753e-06 3.82295e-06)
(-4.35843e-07 -4.73647e-06 4.8058e-06)
(4.63258e-08 -5.26422e-06 5.81043e-06)
(6.1574e-07 -5.68866e-06 6.69636e-06)
(1.66112e-06 -5.89716e-06 7.84086e-06)
(0 0 0)
(0 0 0)
(0 0 0)
(0 0 0)
(0 0 0)
(0 0 0)
(0 0 0)
(0 0 0)
(0 0 0)
(0 0 0)
(0 0 0)
(0 0 0)
(0 0 0)
(0 0 0)
(0 0 0)
(0 0 0)
(-2.00724e-06 -3.00963e-07 2.44591e-07)
(0 0 0)
(8.76718e-09 -1.64821e-08 8.21131e-09)
(1.1511e-08 -3.79686e-08 1.85499e-08)
(6.45533e-09 -6.84649e-08 3.28205e-08)
(-6.50359e-09 -1.10033e-07 5.20196e-08)
(-2.66919e-08 -1.63178e-07 7.67366e-08)
(-5.46057e-08 -2.28035e-07 1.08114e-07)
(-9.39348e-08 -3.05457e-07 1.48985e-07)
(-1.52826e-07 -3.96746e-07 2.04164e-07)
(-2.43005e-07 -5.01243e-07 2.79084e-07)
(-3.77269e-07 -6.13003e-07 3.76812e-07)
(-5.6839e-07 -7.20031e-07 4.96236e-07)
(-8.39912e-07 -8.10644e-07 6.34837e-07)
(-1.24695e-06 -8.81381e-07 7.89575e-07)
(-1.88816e-06 -9.36865e-07 9.50734e-07)
(-2.82523e-06 -9.90567e-07 1.09975e-06)
(-4.08265e-06 -1.06118e-06 1.03695e-06)
(0 0 0)
(1.6354e-08 -3.20479e-08 1.62353e-08)
(2.16352e-08 -7.37564e-08 3.65622e-08)
(1.23017e-08 -1.32825e-07 6.44449e-08)
(-1.22287e-08 -2.13346e-07 1.01844e-07)
(-5.1128e-08 -3.1653e-07 1.4999e-07)
(-1.0544e-07 -4.42753e-07 2.11178e-07)
(-1.81694e-07 -5.93491e-07 2.90856e-07)
(-2.93794e-07 -7.71007e-07 3.9833e-07)
(-4.6138e-07 -9.74482e-07 5.44474e-07)
(-7.03688e-07 -1.19429e-06 7.36436e-07)
(-1.03393e-06 -1.40975e-06 9.73267e-07)
(-1.46796e-06 -1.59725e-06 1.24721e-06)
(-2.03459e-06 -1.74164e-06 1.54165e-06)
(-2.75045e-06 -1.8388e-06 1.82265e-06)
(-3.52566e-06 -1.9e-06 2.04694e-06)
(-4.17873e-06 -1.99246e-06 2.09723e-06)
(0 0 0)
(2.34452e-08 -4.54527e-08 2.37031e-08)
(3.14741e-08 -1.04824e-07 5.32707e-08)
(1.89367e-08 -1.89068e-07 9.36579e-08)
(-1.54201e-08 -3.04189e-07 1.47729e-07)
(-7.08213e-08 -4.52136e-07 2.17319e-07)
(-1.48519e-07 -6.33396e-07 3.05706e-07)
(-2.5619e-07 -8.49665e-07 4.20518e-07)
(-4.10187e-07 -1.10393e-06 5.75109e-07)
(-6.32809e-07 -1.39649e-06 7.86059e-07)
(-9.43029e-07 -1.7178e-06 1.06629e-06)
(-1.34643e-06 -2.04377e-06 1.41732e-06)
(-1.84009e-06 -2.3409e-06 1.82582e-06)
(-2.42088e-06 -2.57931e-06 2.2577e-06)
(-3.06144e-06 -2.745e-06 2.65523e-06)
(-3.66301e-06 -2.84959e-06 2.96177e-06)
(-4.21237e-06 -2.94762e-06 3.06161e-06)
(0 0 0)
(3.02139e-08 -5.63994e-08 3.05414e-08)
(4.11618e-08 -1.30444e-07 6.85031e-08)
(2.63457e-08 -2.35833e-07 1.20164e-07)
(-1.61348e-08 -3.80238e-07 1.89205e-07)
(-8.55713e-08 -5.6623e-07 2.77991e-07)
(-1.82889e-07 -7.94214e-07 3.90512e-07)
(-3.15257e-07 -1.06574e-06 5.36102e-07)
(-4.98121e-07 -1.38454e-06 7.31578e-07)
(-7.51458e-07 -1.75331e-06 9.99326e-07)
(-1.08853e-06 -2.16604e-06 1.35943e-06)
(-1.50385e-06 -2.59957e-06 1.81812e-06)
(-1.98033e-06 -3.0129e-06 2.35729e-06)
(-2.5062e-06 -3.35955e-06 2.92245e-06)
(-3.06766e-06 -3.6112e-06 3.42734e-06)
(-3.61328e-06 -3.77172e-06 3.79779e-06)
(-4.17273e-06 -3.89879e-06 3.92367e-06)
(0 0 0)
(3.63229e-08 -6.51245e-08 3.68372e-08)
(5.00668e-08 -1.50939e-07 8.24249e-08)
(3.36544e-08 -2.73332e-07 1.4421e-07)
(-1.5373e-08 -4.41318e-07 2.26605e-07)
(-9.62939e-08 -6.57923e-07 3.32394e-07)
(-2.09291e-07 -9.23354e-07 4.66072e-07)
(-3.59784e-07 -1.23895e-06 6.38148e-07)
(-5.5976e-07 -1.60935e-06 8.68315e-07)
(-8.22787e-07 -2.04036e-06 1.18429e-06)
(-1.15126e-06 -2.53073e-06 1.61374e-06)
(-1.52606e-06 -3.05995e-06 2.16901e-06)
(-1.92055e-06 -3.58132e-06 2.82896e-06)
(-2.33314e-06 -4.03588e-06 3.52079e-06)
(-2.79751e-06 -4.38552e-06 4.13262e-06)
(-3.32714e-06 -4.61782e-06 4.57225e-06)
(-3.9555e-06 -4.7783e-06 4.73021e-06)
(0 0 0)
(4.13668e-08 -7.20003e-08 4.272e-08)
(5.7525e-08 -1.66923e-07 9.5298e-08)
(4.00886e-08 -3.02252e-07 1.66198e-07)
(-1.38506e-08 -4.87985e-07 2.60487e-07)
(-1.03512e-07 -7.27477e-07 3.81319e-07)
(-2.28086e-07 -1.02072e-06 5.33468e-07)
(-3.90475e-07 -1.36895e-06 7.28195e-07)
(-5.97659e-07 -1.77775e-06 9.87179e-07)
(-8.53699e-07 -2.25552e-06 1.34228e-06)
(-1.14625e-06 -2.80432e-06 1.82726e-06)
(-1.43855e-06 -3.40428e-06 2.46012e-06)
(-1.69309e-06 -4.0054e-06 3.21947e-06)
(-1.91964e-06 -4.54741e-06 4.0233e-06)
(-2.19616e-06 -5.00275e-06 4.74758e-06)
(-2.61287e-06 -5.36045e-06 5.28148e-06)
(-3.3484e-06 -5.53021e-06 5.50732e-06)
(0 0 0)
(4.51445e-08 -7.73599e-08 4.82965e-08)
(6.32945e-08 -1.78929e-07 1.07312e-07)
(4.55389e-08 -3.23153e-07 1.86401e-07)
(-1.14227e-08 -5.20711e-07 2.91254e-07)
(-1.0671e-07 -7.75176e-07 4.25343e-07)
(-2.38266e-07 -1.08632e-06 5.93553e-07)
(-4.06139e-07 -1.4553e-06 8.07408e-07)
(-6.11525e-07 -1.88829e-06 1.08942e-06)
(-8.48343e-07 -2.39466e-06 1.47305e-06)
(-1.08847e-06 -2.97608e-06 1.99459e-06)
(-1.27691e-06 -3.60973e-06 2.67491e-06)
(-1.36258e-06 -4.24224e-06 3.49481e-06)
(-1.34856e-06 -4.81707e-06 4.376e-06)
(-1.30229e-06 -5.31786e-06 5.20259e-06)
(-1.30921e-06 -5.73279e-06 5.85117e-06)
(-1.75489e-06 -6.30877e-06 6.16001e-06)
(0 0 0)
(4.78233e-08 -8.13731e-08 5.35685e-08)
(6.7831e-08 -1.87104e-07 1.18446e-07)
(5.07818e-08 -3.36026e-07 2.0477e-07)
(-7.01568e-09 -5.39278e-07 3.1886e-07)
(-1.0439e-07 -8.00503e-07 4.64471e-07)
(-2.37735e-07 -1.11914e-06 6.46396e-07)
(-4.03938e-07 -1.49611e-06 8.75804e-07)
(-5.99076e-07 -1.93761e-06 1.17443e-06)
(-8.08778e-07 -2.45198e-06 1.57397e-06)
(-9.9404e-07 -3.0374e-06 2.10838e-06)
(-1.08896e-06 -3.66508e-06 2.7966e-06)
(-1.03463e-06 -4.27672e-06 3.62094e-06)
(-8.2761e-07 -4.81303e-06 4.51373e-06)
(-5.09227e-07 -5.24223e-06 5.37508e-06)
(-1.32965e-07 -5.50909e-06 6.06476e-06)
(7.3519e-07 -5.44125e-06 6.53091e-06)
(0 0 0)
(0 0 0)
(0 0 0)
(0 0 0)
(0 0 0)
(0 0 0)
(0 0 0)
(0 0 0)
(0 0 0)
(0 0 0)
(0 0 0)
(0 0 0)
(0 0 0)
(0 0 0)
(0 0 0)
(0 0 0)
(-2.2116e-06 -4.58401e-07 2.25303e-07)
(0 0 0)
(8.43978e-09 -1.53164e-08 6.98894e-09)
(1.04563e-08 -3.61552e-08 1.6048e-08)
(4.08671e-09 -6.66617e-08 2.88167e-08)
(-1.08601e-08 -1.08889e-07 4.61621e-08)
(-3.3797e-08 -1.63228e-07 6.85682e-08)
(-6.55134e-08 -2.29762e-07 9.70868e-08)
(-1.10525e-07 -3.09607e-07 1.34352e-07)
(-1.78234e-07 -4.0461e-07 1.8477e-07)
(-2.82217e-07 -5.148e-07 2.53092e-07)
(-4.38333e-07 -6.35211e-07 3.41884e-07)
(-6.65956e-07 -7.56451e-07 4.50436e-07)
(-9.99614e-07 -8.72449e-07 5.76364e-07)
(-1.50494e-06 -9.87644e-07 7.13584e-07)
(-2.28594e-06 -1.11632e-06 8.43949e-07)
(-3.37383e-06 -1.27021e-06 9.36603e-07)
(-4.60443e-06 -1.39132e-06 9.18302e-07)
(0 0 0)
(1.57481e-08 -2.97342e-08 1.38672e-08)
(1.96618e-08 -7.01365e-08 3.16968e-08)
(7.8383e-09 -1.2914e-07 5.66182e-08)
(-2.04795e-08 -2.10818e-07 9.03396e-08)
(-6.46511e-08 -3.16195e-07 1.33898e-07)
(-1.26348e-07 -4.45635e-07 1.89421e-07)
(-2.13525e-07 -6.01145e-07 2.62009e-07)
(-3.42317e-07 -7.85961e-07 3.60162e-07)
(-5.35316e-07 -1.00035e-06 4.93445e-07)
(-8.16704e-07 -1.23607e-06 6.68005e-07)
(-1.21019e-06 -1.47599e-06 8.83281e-07)
(-1.74642e-06 -1.70316e-06 1.13166e-06)
(-2.46129e-06 -1.9089e-06 1.39229e-06)
(-3.35505e-06 -2.08971e-06 1.62092e-06)
(-4.26944e-06 -2.2375e-06 1.76431e-06)
(-4.84214e-06 -2.34524e-06 1.83438e-06)
(0 0 0)
(2.26008e-08 -4.20355e-08 2.02998e-08)
(2.87258e-08 -9.94282e-08 4.62422e-08)
(1.27112e-08 -1.83432e-07 8.22882e-08)
(-2.69692e-08 -3.00029e-07 1.30925e-07)
(-8.98644e-08 -4.50969e-07 1.93737e-07)
(-1.78097e-07 -6.36841e-07 2.73786e-07)
(-3.0117e-07 -8.60115e-07 3.7827e-07)
(-4.7808e-07 -1.12509e-06 5.1942e-07)
(-7.34467e-07 -1.43321e-06 7.11967e-07)
(-1.09488e-06 -1.77599e-06 9.67139e-07)
(-1.57638e-06 -2.13183e-06 1.28612e-06)
(-2.19095e-06 -2.47196e-06 1.65524e-06)
(-2.93643e-06 -2.76979e-06 2.03626e-06)
(-3.75451e-06 -3.00811e-06 2.36363e-06)
(-4.47007e-06 -3.18095e-06 2.57607e-06)
(-4.90508e-06 -3.30078e-06 2.68848e-06)
(0 0 0)
(2.91237e-08 -5.19986e-08 2.62123e-08)
(3.77107e-08 -1.23429e-07 5.95172e-08)
(1.86162e-08 -2.28341e-07 1.05546e-07)
(-3.04642e-08 -3.74403e-07 1.67501e-07)
(-1.09279e-07 -5.6403e-07 2.47441e-07)
(-2.19783e-07 -7.97864e-07 3.49155e-07)
(-3.71075e-07 -1.07849e-06 4.81481e-07)
(-5.81222e-07 -1.41114e-06 6.59965e-07)
(-8.73309e-07 -1.79948e-06 9.04635e-07)
(-1.26567e-06 -2.23741e-06 1.23294e-06)
(-1.76403e-06 -2.70189e-06 1.64934e-06)
(-2.36494e-06 -3.15304e-06 2.13388e-06)
(-3.05431e-06 -3.5454e-06 2.62897e-06)
(-3.78378e-06 -3.85024e-06 3.04687e-06)
(-4.42744e-06 -4.063e-06 3.31657e-06)
(-4.85984e-06 -4.2116e-06 3.45797e-06)
(0 0 0)
(3.49412e-08 -5.99436e-08 3.16814e-08)
(4.59083e-08 -1.42619e-07 7.16788e-08)
(2.45555e-08 -2.64305e-07 1.26646e-07)
(-3.21108e-08 -4.34043e-07 2.00424e-07)
(-1.23953e-07 -6.5478e-07 2.95472e-07)
(-2.52235e-07 -9.27119e-07 4.16079e-07)
(-4.24188e-07 -1.25365e-06 5.72307e-07)
(-6.54039e-07 -1.64057e-06 7.82433e-07)
(-9.57634e-07 -2.09417e-06 1.07144e-06)
(-1.34155e-06 -2.61157e-06 1.46316e-06)
(-1.79642e-06 -3.16897e-06 1.96593e-06)
(-2.30813e-06 -3.7167e-06 2.55422e-06)
(-2.87355e-06 -4.19509e-06 3.15268e-06)
(-3.49493e-06 -4.56959e-06 3.65453e-06)
(-4.11622e-06 -4.82803e-06 3.97922e-06)
(-4.61888e-06 -4.99137e-06 4.14815e-06)
(0 0 0)
(3.96204e-08 -6.63154e-08 3.68369e-08)
(5.25932e-08 -1.57747e-07 8.29892e-08)
(2.9663e-08 -2.92194e-07 1.46005e-07)
(-3.27432e-08 -4.79729e-07 2.30304e-07)
(-1.34526e-07 -7.23709e-07 3.38681e-07)
(-2.75926e-07 -1.02468e-06 4.75741e-07)
(-4.61395e-07 -1.38524e-06 6.5231e-07)
(-6.99416e-07 -1.81246e-06 8.88649e-07)
(-9.95375e-07 -2.31458e-06 1.21347e-06)
(-1.33937e-06 -2.89012e-06 1.65553e-06)
(-1.70251e-06 -3.51274e-06 2.22631e-06)
(-2.05897e-06 -4.12537e-06 2.89661e-06)
(-2.41915e-06 -4.66534e-06 3.58021e-06)
(-2.83652e-06 -5.11045e-06 4.16023e-06)
(-3.33834e-06 -5.45677e-06 4.54431e-06)
(-3.95693e-06 -5.59158e-06 4.74712e-06)
(0 0 0)
(4.29626e-08 -7.14776e-08 4.17837e-08)
(5.7522e-08 -1.69399e-07 9.36518e-08)
(3.38142e-08 -3.12647e-07 1.63936e-07)
(-3.22364e-08 -5.12016e-07 2.57601e-07)
(-1.405e-07 -7.7117e-07 3.77739e-07)
(-2.89898e-07 -1.09053e-06 5.29079e-07)
(-4.81598e-07 -1.47265e-06 7.22749e-07)
(-7.17633e-07 -1.92501e-06 9.79812e-07)
(-9.91833e-07 -2.45599e-06 1.33041e-06)
(-1.27669e-06 -3.06226e-06 1.80511e-06)
(-1.52281e-06 -3.71198e-06 2.41627e-06)
(-1.68918e-06 -4.34196e-06 3.13392e-06)
(-1.78254e-06 -4.89099e-06 3.87177e-06)
(-1.85108e-06 -5.34663e-06 4.51551e-06)
(-1.92602e-06 -5.70999e-06 4.96027e-06)
(-2.26638e-06 -6.24205e-06 5.18585e-06)
(0 0 0)
(4.51781e-08 -7.55797e-08 4.65295e-08)
(6.12318e-08 -1.7767e-07 1.0366e-07)
(3.78948e-08 -3.25572e-07 1.80425e-07)
(-2.93962e-08 -5.30598e-07 2.8234e-07)
(-1.40252e-07 -7.96523e-07 4.12737e-07)
(-2.91905e-07 -1.12347e-06 5.76279e-07)
(-4.82071e-07 -1.51378e-06 7.83798e-07)
(-7.0683e-07 -1.97455e-06 1.0556e-06)
(-9.5057e-07 -2.51256e-06 1.42021e-06)
(-1.17305e-06 -3.12014e-06 1.90586e-06)
(-1.3113e-06 -3.75842e-06 2.52283e-06)
(-1.31512e-06 -4.35856e-06 3.24203e-06)
(-1.18658e-06 -4.85516e-06 3.98619e-06)
(-9.54045e-07 -5.2175e-06 4.65392e-06)
(-6.30374e-07 -5.407e-06 5.13054e-06)
(3.18254e-07 -5.31494e-06 5.41239e-06)
(0 0 0)
(0 0 0)
(0 0 0)
(0 0 0)
(0 0 0)
(0 0 0)
(0 0 0)
(0 0 0)
(0 0 0)
(0 0 0)
(0 0 0)
(0 0 0)
(0 0 0)
(0 0 0)
(0 0 0)
(0 0 0)
(-2.2768e-06 -5.1039e-07 1.97201e-07)
(0 0 0)
(8.08601e-09 -1.45648e-08 5.63013e-09)
(9.42837e-09 -3.49628e-08 1.31356e-08)
(1.95694e-09 -6.54062e-08 2.38937e-08)
(-1.45579e-08 -1.0793e-07 3.85928e-08)
(-3.96373e-08 -1.62873e-07 5.75995e-08)
(-7.44979e-08 -2.30403e-07 8.18257e-08)
(-1.24515e-07 -3.11996e-07 1.13613e-07)
(-2.00241e-07 -4.10034e-07 1.56746e-07)
(-3.16529e-07 -5.25116e-07 2.1518e-07)
(-4.91011e-07 -6.53129e-07 2.9106e-07)
(-7.4596e-07 -7.86627e-07 3.83843e-07)
(-1.11706e-06 -9.21849e-07 4.90815e-07)
(-1.66587e-06 -1.06355e-06 6.04336e-07)
(-2.48683e-06 -1.22388e-06 7.08435e-07)
(-3.58839e-06 -1.40557e-06 7.84643e-07)
(-4.77861e-06 -1.52239e-06 7.81913e-07)
(0 0 0)
(1.50577e-08 -2.81849e-08 1.12029e-08)
(1.76949e-08 -6.76525e-08 2.59756e-08)
(3.79864e-09 -1.26448e-07 4.69446e-08)
(-2.74941e-08 -2.08613e-07 7.54672e-08)
(-7.58192e-08 -3.15118e-07 1.12371e-07)
(-1.43682e-07 -4.46549e-07 1.59523e-07)
(-2.40584e-07 -6.05611e-07 2.2144e-07)
(-3.84652e-07 -7.9651e-07 3.05443e-07)
(-6.00575e-07 -1.02042e-06 4.19532e-07)
(-9.15373e-07 -1.27029e-06 5.68815e-07)
(-1.35661e-06 -1.53142e-06 7.52737e-07)
(-1.95465e-06 -1.78906e-06 9.63091e-07)
(-2.73441e-06 -2.03248e-06 1.17767e-06)
(-3.67359e-06 -2.25123e-06 1.35822e-06)
(-4.57935e-06 -2.42312e-06 1.47086e-06)
(-5.07939e-06 -2.52239e-06 1.53663e-06)
(0 0 0)
(2.15956e-08 -3.96502e-08 1.64203e-08)
(2.59395e-08 -9.55635e-08 3.79034e-08)
(7.04217e-09 -1.7914e-07 6.81774e-08)
(-3.68426e-08 -2.96334e-07 1.09247e-07)
(-1.05728e-07 -4.48878e-07 1.62393e-07)
(-2.02878e-07 -6.37746e-07 2.30336e-07)
(-3.39782e-07 -8.66427e-07 3.19454e-07)
(-5.37836e-07 -1.14048e-06 4.4032e-07)
(-8.25039e-07 -1.46229e-06 6.05333e-07)
(-1.22898e-06 -1.82416e-06 8.238e-07)
(-1.77024e-06 -2.20584e-06 1.09612e-06)
(-2.45824e-06 -2.57912e-06 1.4075e-06)
(-3.2741e-06 -2.91372e-06 1.71964e-06)
(-4.13083e-06 -3.18592e-06 1.97731e-06)
(-4.82007e-06 -3.37951e-06 2.1426e-06)
(-5.16638e-06 -3.4984e-06 2.23846e-06)
(0 0 0)
(2.78111e-08 -4.88113e-08 2.12177e-08)
(3.41898e-08 -1.18225e-07 4.87757e-08)
(1.15394e-08 -2.22464e-07 8.73738e-08)
(-4.28146e-08 -3.69187e-07 1.39608e-07)
(-1.29251e-07 -5.60858e-07 2.07173e-07)
(-2.51054e-07 -7.9869e-07 2.93446e-07)
(-4.19455e-07 -1.08655e-06 4.06298e-07)
(-6.54918e-07 -1.4311e-06 5.59217e-07)
(-9.82659e-07 -1.83663e-06 7.69168e-07)
(-1.42365e-06 -2.29669e-06 1.05047e-06)
(-1.98617e-06 -2.78736e-06 1.40532e-06)
(-2.6623e-06 -3.26702e-06 1.81174e-06)
(-3.4191e-06 -3.68667e-06 2.21427e-06)
(-4.17898e-06 -4.01509e-06 2.54164e-06)
(-4.78617e-06 -4.24258e-06 2.7509e-06)
(-5.12414e-06 -4.39116e-06 2.869e-06)
(0 0 0)
(3.33091e-08 -5.60868e-08 2.56719e-08)
(4.16821e-08 -1.36289e-07 5.87524e-08)
(1.61973e-08 -2.57077e-07 1.04797e-07)
(-4.66623e-08 -4.27518e-07 1.66933e-07)
(-1.47518e-07 -6.50688e-07 2.47203e-07)
(-2.89018e-07 -9.27935e-07 3.49445e-07)
(-4.80418e-07 -1.26332e-06 4.82641e-07)
(-7.37992e-07 -1.66449e-06 6.6274e-07)
(-1.07915e-06 -2.13776e-06 9.10913e-07)
(-1.51223e-06 -2.67819e-06 1.24653e-06)
(-2.02936e-06 -3.25843e-06 1.67356e-06)
(-2.61131e-06 -3.82483e-06 2.16305e-06)
(-3.23724e-06 -4.31551e-06 2.64417e-06)
(-3.88301e-06 -4.69814e-06 3.03253e-06)
(-4.46481e-06 -4.95938e-06 3.28011e-06)
(-4.87408e-06 -5.11559e-06 3.41595e-06)
(0 0 0)
(3.76373e-08 -6.19999e-08 2.99097e-08)
(4.76461e-08 -1.50636e-07 6.80968e-08)
(2.00808e-08 -2.84022e-07 1.20869e-07)
(-4.9283e-08 -4.72284e-07 1.91838e-07)
(-1.61192e-07 -7.18993e-07 2.83328e-07)
(-3.17207e-07 -1.02557e-06 3.99466e-07)
(-5.23505e-07 -1.39621e-06 5.49956e-07)
(-7.90042e-07 -1.83925e-06 7.52485e-07)
(-1.12289e-06 -2.36214e-06 1.03142e-06)
(-1.51282e-06 -2.95962e-06 1.40974e-06)
(-1.93151e-06 -3.59926e-06 1.89233e-06)
(-2.34862e-06 -4.21841e-06 2.44512e-06)
(-2.76053e-06 -4.75435e-06 2.98743e-06)
(-3.19752e-06 -5.19096e-06 3.42743e-06)
(-3.66032e-06 -5.52715e-06 3.70963e-06)
(-4.19139e-06 -5.64671e-06 3.85944e-06)
(0 0 0)
(4.05968e-08 -6.69496e-08 3.40355e-08)
(5.18402e-08 -1.61912e-07 7.7022e-08)
(2.30893e-08 -3.03997e-07 1.35921e-07)
(-5.05019e-08 -5.04087e-07 2.14795e-07)
(-1.69677e-07 -7.66117e-07 3.16225e-07)
(-3.34538e-07 -1.09148e-06 4.44465e-07)
(-5.47575e-07 -1.48432e-06 6.09474e-07)
(-8.11601e-07 -1.95308e-06 8.29675e-07)
(-1.12013e-06 -2.50454e-06 1.13056e-06)
(-1.44525e-06 -3.13021e-06 1.53606e-06)
(-1.73732e-06 -3.79048e-06 2.05082e-06)
(-1.95272e-06 -4.41622e-06 2.63851e-06)
(-2.08817e-06 -4.94813e-06 3.21744e-06)
(-2.17145e-06 -5.38254e-06 3.69594e-06)
(-2.20885e-06 -5.72998e-06 4.00945e-06)
(-2.46984e-06 -6.25973e-06 4.16664e-06)
(0 0 0)
(4.24362e-08 -7.10621e-08 3.80738e-08)
(5.48905e-08 -1.70172e-07 8.55513e-08)
(2.62643e-08 -3.16812e-07 1.49963e-07)
(-4.88887e-08 -5.22431e-07 2.35851e-07)
(-1.71072e-07 -7.91182e-07 3.46045e-07)
(-3.38493e-07 -1.12416e-06 4.84741e-07)
(-5.49801e-07 -1.52516e-06 6.6162e-07)
(-8.01166e-07 -2.00192e-06 8.94334e-07)
(-1.07584e-06 -2.55907e-06 1.20694e-06)
(-1.33203e-06 -3.18299e-06 1.62124e-06)
(-1.50627e-06 -3.82671e-06 2.1398e-06)
(-1.54766e-06 -4.41594e-06 2.72757e-06)
(-1.45256e-06 -4.88812e-06 3.30978e-06)
(-1.23462e-06 -5.22184e-06 3.80281e-06)
(-8.88248e-07 -5.39188e-06 4.1336e-06)
(1.47029e-07 -5.32257e-06 4.31981e-06)
(0 0 0)
(0 0 0)
(0 0 0)
(0 0 0)
(0 0 0)
(0 0 0)
(0 0 0)
(0 0 0)
(0 0 0)
(0 0 0)
(0 0 0)
(0 0 0)
(0 0 0)
(0 0 0)
(0 0 0)
(0 0 0)
(-2.29318e-06 -5.24245e-07 1.52376e-07)
(0 0 0)
(7.57939e-09 -1.43232e-08 4.22974e-09)
(8.30105e-09 -3.45211e-08 9.97262e-09)
(4.2217e-11 -6.48161e-08 1.82788e-08)
(-1.74662e-08 -1.07239e-07 2.96406e-08)
(-4.39781e-08 -1.62201e-07 4.43261e-08)
(-8.13102e-08 -2.30149e-07 6.30969e-08)
(-1.35771e-07 -3.1302e-07 8.78694e-08)
(-2.18896e-07 -4.13651e-07 1.21679e-07)
(-3.4612e-07 -5.32925e-07 1.67594e-07)
(-5.34813e-07 -6.67145e-07 2.27212e-07)
(-8.05323e-07 -8.09561e-07 3.00053e-07)
(-1.18966e-06 -9.56347e-07 3.83335e-07)
(-1.74618e-06 -1.11035e-06 4.69899e-07)
(-2.56593e-06 -1.28052e-06 5.47739e-07)
(-3.65702e-06 -1.46523e-06 6.05111e-07)
(-4.82019e-06 -1.56944e-06 6.00408e-07)
(0 0 0)
(1.4085e-08 -2.76074e-08 8.4207e-09)
(1.55281e-08 -6.66245e-08 1.97204e-08)
(1.16149e-10 -1.25115e-07 3.58952e-08)
(-3.31392e-08 -2.07113e-07 5.7941e-08)
(-8.43623e-08 -3.13743e-07 8.64775e-08)
(-1.57178e-07 -4.46136e-07 1.23064e-07)
(-2.62757e-07 -6.07868e-07 1.71406e-07)
(-4.20924e-07 -8.03965e-07 2.3735e-07)
(-6.57287e-07 -1.03606e-06 3.27118e-07)
(-9.98072e-07 -1.29753e-06 4.44577e-07)
(-1.46706e-06 -1.57427e-06 5.88949e-07)
(-2.08721e-06 -1.85062e-06 7.52288e-07)
(-2.87617e-06 -2.11205e-06 9.15093e-07)
(-3.80486e-06 -2.34295e-06 1.04837e-06)
(-4.68296e-06 -2.51615e-06 1.13024e-06)
(-5.13766e-06 -2.60433e-06 1.17429e-06)
(0 0 0)
(2.01899e-08 -3.8653e-08 1.23322e-08)
(2.283e-08 -9.38343e-08 2.87453e-08)
(1.75509e-09 -1.7696e-07 5.20809e-08)
(-4.50355e-08 -2.9398e-07 8.38182e-08)
(-1.18272e-07 -4.46869e-07 1.2495e-07)
(-2.22708e-07 -6.37372e-07 1.77734e-07)
(-3.71981e-07 -8.70205e-07 2.47408e-07)
(-5.89567e-07 -1.15202e-06 3.42424e-07)
(-9.04427e-07 -1.48562e-06 4.72462e-07)
(-1.34271e-06 -1.86322e-06 6.4455e-07)
(-1.91937e-06 -2.2641e-06 8.58132e-07)
(-2.63326e-06 -2.65788e-06 1.09906e-06)
(-3.45569e-06 -3.01016e-06 1.33453e-06)
(-4.2926e-06 -3.29338e-06 1.52321e-06)
(-4.94286e-06 -3.48853e-06 1.64175e-06)
(-5.23714e-06 -3.60053e-06 1.70541e-06)
(0 0 0)
(2.60032e-08 -4.73657e-08 1.59163e-08)
(3.02291e-08 -1.15763e-07 3.69487e-08)
(4.79711e-09 -2.19428e-07 6.6686e-08)
(-5.33661e-08 -3.66029e-07 1.07066e-07)
(-1.45527e-07 -5.58344e-07 1.59406e-07)
(-2.76666e-07 -7.98568e-07 2.26506e-07)
(-4.60341e-07 -1.09207e-06 3.14821e-07)
(-7.19127e-07 -1.44674e-06 4.35168e-07)
(-1.079e-06 -1.86702e-06 6.00805e-07)
(-1.55872e-06 -2.34524e-06 8.22495e-07)
(-2.1595e-06 -2.85537e-06 1.10027e-06)
(-2.8613e-06 -3.35256e-06 1.41318e-06)
(-3.62073e-06 -3.78485e-06 1.71474e-06)
(-4.35429e-06 -4.12015e-06 1.95257e-06)
(-4.91689e-06 -4.34797e-06 2.10112e-06)