/*--------------------------------*- C++ -*----------------------------------*\
| =========                 |                                                 |
| \\      /  F ield         | OpenFOAM: The Open Source CFD Toolbox           |
|  \\    /   O peration     | Version:  v1912                                 |
|   \\  /    A nd           | Website:  www.openfoam.com                      |
|    \\/     M anipulation  |                                                 |
\*---------------------------------------------------------------------------*/
FoamFile
{
    version     2.0;
    format      ascii;
    class       volScalarField;
    location    "0.04/fluid";
    object      T;
}
// * * * * * * * * * * * * * * * * * * * * * * * * * * * * * * * * * * * * * //

dimensions      [0 0 0 1 0 0 0];


internalField   nonuniform List<scalar> 
14592
(
273.117
273.258
273.286
273.247
273.188
273.136
273.104
273.098
273.13
273.224
273.426
273.829
274.598
276.021
278.585
283.143
273.117
273.258
273.286
273.247
273.188
273.136
273.103
273.098
273.13
273.222
273.424
273.825
274.592
276.014
278.577
283.138
273.117
273.258
273.286
273.247
273.188
273.136
273.103
273.097
273.128
273.219
273.418
273.816
274.579
275.997
278.56
283.127
273.117
273.258
273.286
273.247
273.188
273.136
273.102
273.095
273.125
273.214
273.408
273.8
274.554
275.963
278.523
283.102
273.117
273.258
273.286
273.247
273.188
273.135
273.101
273.093
273.12
273.205
273.392
273.772
274.508
275.897
278.444
283.044
273.117
273.258
273.286
273.247
273.188
273.134
273.1
273.09
273.114
273.192
273.368
273.726
274.429
275.772
278.277
282.901
273.117
273.258
273.286
273.247
273.187
273.134
273.098
273.086
273.106
273.175
273.333
273.658
274.301
275.547
277.932
282.532
273.117
273.258
273.285
273.247
273.187
273.133
273.096
273.081
273.095
273.153
273.288
273.565
274.113
275.177
277.251
281.51
273.117
273.258
273.286
273.248
273.189
273.138
273.107
273.105
273.146
273.256
273.492
273.961
274.856
276.504
279.414
284.262
273.117
273.258
273.286
273.248
273.189
273.138
273.107
273.105
273.145
273.254
273.489
273.956
274.85
276.496
279.406
284.257
273.117
273.258
273.286
273.248
273.189
273.137
273.106
273.104
273.143
273.251
273.483
273.946
274.835
276.478
279.388
284.247
273.117
273.258
273.286
273.248
273.189
273.137
273.105
273.102
273.139
273.244
273.472
273.928
274.807
276.441
279.349
284.224
273.117
273.258
273.286
273.247
273.189
273.136
273.104
273.099
273.134
273.234
273.454
273.896
274.756
276.368
279.265
284.167
273.117
273.258
273.286
273.247
273.188
273.136
273.102
273.096
273.127
273.22
273.426
273.845
274.666
276.228
279.084
284.022
273.117
273.258
273.286
273.247
273.188
273.135
273.1
273.091
273.117
273.2
273.385
273.766
274.519
275.972
278.701
283.635
273.117
273.258
273.286
273.247
273.187
273.134
273.098
273.086
273.106
273.175
273.333
273.658
274.301
275.547
277.932
282.532
273.117
273.258
273.286
273.248
273.19
273.139
273.11
273.111
273.158
273.281
273.542
274.057
275.031
276.797
279.834
284.666
273.117
273.258
273.286
273.248
273.19
273.139
273.11
273.111
273.157
273.279
273.539
274.052
275.024
276.789
279.826
284.661
273.117
273.258
273.286
273.248
273.19
273.139
273.109
273.11
273.155
273.275
273.532
274.042
275.009
276.77
279.807
284.651
273.117
273.258
273.286
273.248
273.189
273.138
273.108
273.108
273.151
273.269
273.52
274.022
274.979
276.73
279.766
284.627
273.117
273.258
273.286
273.248
273.189
273.138
273.107
273.105
273.146
273.258
273.5
273.987
274.923
276.652
279.678
284.569
273.117
273.258
273.286
273.247
273.189
273.137
273.105
273.101
273.138
273.242
273.47
273.93
274.826
276.502
279.487
284.421
273.117
273.258
273.286
273.247
273.188
273.136
273.102
273.096
273.127
273.22
273.426
273.845
274.666
276.228
279.084
284.022
273.117
273.258
273.286
273.247
273.188
273.134
273.1
273.09
273.114
273.192
273.368
273.726
274.429
275.772
278.277
282.901
273.117
273.258
273.286
273.248
273.19
273.14
273.112
273.116
273.168
273.3
273.577
274.121
275.139
276.96
280.035
284.818
273.117
273.258
273.286
273.248
273.19
273.14
273.112
273.115
273.167
273.298
273.574
274.116
275.131
276.951
280.026
284.813
273.117
273.258
273.286
273.248
273.19
273.14
273.111
273.114
273.164
273.294
273.567
274.104
275.115
276.931
280.007
284.803
273.117
273.258
273.286
273.248
273.19
273.139
273.11
273.112
273.16
273.286
273.554
274.083
275.084
276.89
279.965
284.779
273.117
273.258
273.286
273.248
273.19
273.139
273.109
273.109
273.154
273.275
273.533
274.047
275.025
276.808
279.874
284.72
273.117
273.258
273.286
273.248
273.189
273.138
273.107
273.105
273.146
273.258
273.5
273.987
274.923
276.652
279.678
284.569
273.117
273.258
273.286
273.247
273.189
273.136
273.104
273.099
273.134
273.234
273.454
273.896
274.756
276.368
279.265
284.167
273.117
273.258
273.286
273.247
273.188
273.135
273.101
273.093
273.12
273.205
273.392
273.772
274.508
275.897
278.444
283.044
273.117
273.258
273.286
273.248
273.191
273.141
273.114
273.119
273.174
273.312
273.6
274.16
275.2
277.045
280.129
284.879
273.117
273.258
273.286
273.248
273.191
273.141
273.113
273.119
273.173
273.31
273.597
274.155
275.193
277.036
280.12
284.874
273.117
273.258
273.286
273.248
273.19
273.141
273.113
273.117
273.171
273.306
273.589
274.143
275.176
277.015
280.101
284.863
273.117
273.258
273.286
273.248
273.19
273.14
273.112
273.115
273.167
273.298
273.576
274.121
275.143
276.973
280.058
284.839
273.117
273.258
273.286
273.248
273.19
273.139
273.11
273.112
273.16
273.286
273.554
274.083
275.083
276.89
279.965
284.779
273.117
273.258
273.286
273.248
273.189
273.138
273.108
273.108
273.151
273.269
273.52
274.022
274.979
276.73
279.766
284.627
273.117
273.258
273.286
273.248
273.189
273.137
273.105
273.102
273.139
273.244
273.472
273.928
274.807
276.441
279.349
284.224
273.117
273.258
273.286
273.247
273.188
273.136
273.102
273.095
273.125
273.214
273.408
273.799
274.554
275.963
278.522
283.102
273.117
273.258
273.286
273.248
273.191
273.142
273.115
273.122
273.179
273.32
273.614
274.183
275.234
277.088
280.172
284.904
273.117
273.258
273.286
273.248
273.191
273.141
273.115
273.121
273.177
273.318
273.611
274.177
275.226
277.079
280.164
284.899
273.117
273.258
273.286
273.248
273.191
273.141
273.114
273.12
273.175
273.314
273.603
274.165
275.209
277.058
280.144
284.888
273.117
273.258
273.286
273.248
273.19
273.141
273.113
273.117
273.171
273.306
273.589
274.143
275.176
277.015
280.1
284.863
273.117
273.258
273.286
273.248
273.19
273.14
273.111
273.114
273.164
273.294
273.567
274.104
275.115
276.931
280.007
284.803
273.117
273.258
273.286
273.248
273.19
273.139
273.109
273.11
273.155
273.275
273.532
274.041
275.009
276.769
279.807
284.651
273.117
273.258
273.286
273.248
273.189
273.138
273.106
273.104
273.143
273.25
273.483
273.946
274.835
276.478
279.388
284.247
273.117
273.258
273.286
273.247
273.188
273.136
273.103
273.097
273.128
273.219
273.418
273.816
274.579
275.997
278.559
283.127
273.117
273.258
273.286
273.248
273.191
273.142
273.116
273.123
273.181
273.325
273.622
274.195
275.251
277.109
280.192
284.914
273.117
273.258
273.286
273.248
273.191
273.142
273.115
273.122
273.18
273.323
273.618
274.189
275.243
277.1
280.184
284.909
273.117
273.258
273.286
273.248
273.191
273.141
273.115
273.121
273.177
273.318
273.61
274.177
275.226
277.079
280.163
284.899
273.117
273.258
273.286
273.248
273.191
273.141
273.113
273.119
273.173
273.31
273.597
274.154
275.192
277.035
280.12
284.873
273.117
273.258
273.286
273.248
273.19
273.14
273.112
273.115
273.166
273.298
273.574
274.115
275.131
276.95
280.026
284.813
273.117
273.258
273.286
273.248
273.19
273.139
273.11
273.111
273.157
273.279
273.539
274.052
275.024
276.788
279.825
284.66
273.117
273.258
273.286
273.248
273.189
273.138
273.107
273.105
273.145
273.254
273.489
273.956
274.849
276.496
279.405
284.257
273.117
273.258
273.286
273.247
273.188
273.136
273.103
273.098
273.129
273.222
273.423
273.824
274.591
276.013
278.576
283.137
273.117
273.258
273.286
273.248
273.191
273.142
273.116
273.124
273.182
273.327
273.625
274.2
275.258
277.117
280.2
284.918
273.117
273.258
273.286
273.248
273.191
273.142
273.116
273.123
273.181
273.325
273.622
274.194
275.25
277.108
280.191
284.913
273.117
273.258
273.286
273.248
273.191
273.142
273.115
273.122
273.179
273.32
273.614
274.182
275.233
277.087
280.171
284.902
273.117
273.258
273.286
273.248
273.191
273.141
273.114
273.119
273.174
273.312
273.6
274.159
275.199
277.043
280.127
284.877
273.117
273.258
273.286
273.248
273.19
273.14
273.112
273.116
273.168
273.3
273.577
274.12
275.137
276.958
280.033
284.817
273.117
273.258
273.286
273.248
273.19
273.139
273.11
273.111
273.158
273.281
273.542
274.056
275.03
276.796
279.832
284.664
273.117
273.258
273.286
273.248
273.189
273.138
273.107
273.105
273.146
273.256
273.491
273.96
274.855
276.503
279.412
284.26
273.117
273.258
273.286
273.247
273.189
273.136
273.104
273.098
273.13
273.224
273.426
273.828
274.597
276.02
278.583
283.141
273.117
273.258
273.285
273.245
273.184
273.127
273.083
273.055
273.04
273.035
273.041
273.057
273.082
273.117
273.16
273.202
273.117
273.258
273.285
273.245
273.184
273.127
273.084
273.055
273.04
273.035
273.041
273.056
273.082
273.116
273.158
273.201
273.117
273.258
273.285
273.245
273.184
273.127
273.083
273.055
273.039
273.035
273.04
273.055
273.08
273.114
273.156
273.198
273.117
273.258
273.285
273.245
273.184
273.127
273.083
273.055
273.039
273.034
273.039
273.053
273.077
273.111
273.151
273.192
273.117
273.258
273.285
273.245
273.184
273.127
273.083
273.054
273.038
273.033
273.037
273.051
273.074
273.106
273.144
273.183
273.117
273.258
273.285
273.245
273.184
273.127
273.083
273.054
273.038
273.032
273.035
273.048
273.069
273.098
273.134
273.17
273.117
273.258
273.285
273.245
273.184
273.127
273.083
273.053
273.037
273.03
273.033
273.043
273.062
273.088
273.12
273.154
273.117
273.258
273.285
273.245
273.184
273.127
273.082
273.053
273.036
273.029
273.03
273.038
273.054
273.077
273.104
273.133
273.117
273.258
273.285
273.246
273.184
273.127
273.084
273.056
273.042
273.04
273.05
273.072
273.108
273.159
273.221
273.286
273.117
273.258
273.285
273.246
273.184
273.127
273.084
273.056
273.042
273.04
273.049
273.071
273.107
273.158
273.22
273.284
273.117
273.258
273.285
273.246
273.184
273.127
273.084
273.056
273.042
273.039
273.048
273.07
273.106
273.155
273.216
273.28
273.117
273.258
273.285
273.246
273.184
273.127
273.084
273.056
273.041
273.038
273.047
273.068
273.102
273.151
273.21
273.273
273.117
273.258
273.285
273.246
273.184
273.127
273.084
273.055
273.041
273.037
273.045
273.065
273.098
273.144
273.201
273.261
273.117
273.258
273.285
273.246
273.184
273.127
273.084
273.055
273.04
273.036
273.043
273.061
273.091
273.134
273.187
273.244
273.117
273.258
273.285
273.246
273.184
273.127
273.083
273.054
273.039
273.034
273.039
273.055
273.082
273.121
273.169
273.22
273.117
273.258
273.285
273.245
273.184
273.127
273.083
273.054
273.037
273.032
273.035
273.048
273.071
273.104
273.146
273.189
273.117
273.258
273.285
273.246
273.185
273.128
273.085
273.059
273.047
273.05
273.068
273.105
273.166
273.253
273.364
273.483
273.117
273.258
273.285
273.246
273.185
273.128
273.085
273.059
273.047
273.049
273.067
273.104
273.165
273.251
273.362
273.48
273.117
273.258
273.285
273.246
273.185
273.128
273.085
273.058
273.046
273.049
273.066
273.103
273.162
273.248
273.357
273.475
273.117
273.258
273.285
273.246
273.185
273.128
273.085
273.058
273.046
273.048
273.064
273.1
273.157
273.241
273.348
273.464
273.117
273.258
273.285
273.246
273.185
273.128
273.085
273.058
273.045
273.046
273.062
273.095
273.15
273.231
273.334
273.446
273.117
273.258
273.285
273.246
273.185
273.128
273.085
273.057
273.044
273.044
273.058
273.089
273.14
273.215
273.312
273.418
273.117
273.258
273.285
273.246
273.184
273.127
273.084
273.056
273.042
273.041
273.053
273.08
273.126
273.194
273.281
273.377
273.117
273.258
273.285
273.246
273.184
273.127
273.084
273.055
273.041
273.038
273.047
273.07
273.109
273.167
273.242
273.323
273.117
273.258
273.285
273.246
273.185
273.129
273.087
273.063
273.055
273.065
273.098
273.161
273.266
273.421
273.627
273.857
273.117
273.258
273.285
273.246
273.185
273.129
273.087
273.062
273.055
273.065
273.097
273.16
273.264
273.419
273.623
273.853
273.117
273.258
273.285
273.246
273.185
273.129
273.087
273.062
273.054
273.064
273.096
273.157
273.26
273.413
273.616
273.845
273.117
273.258
273.285
273.246
273.185
273.129
273.087
273.062
273.053
273.062
273.093
273.153
273.253
273.403
273.603
273.829
273.117
273.258
273.285
273.246
273.185
273.128
273.086
273.061
273.052
273.06
273.089
273.146
273.242
273.387
273.581
273.8
273.117
273.258
273.285
273.246
273.185
273.128
273.086
273.06
273.05
273.057
273.083
273.136
273.226
273.362
273.545
273.754
273.117
273.258
273.285
273.246
273.185
273.128
273.086
273.059
273.048
273.053
273.076
273.123
273.204
273.327
273.492
273.682
273.117
273.258
273.285
273.246
273.185
273.128
273.085
273.058
273.046
273.048
273.067
273.107
273.176
273.28
273.421
273.583
273.117
273.258
273.285
273.246
273.186
273.13
273.09
273.068
273.066
273.087
273.142
273.245
273.421
273.693
274.072
274.519
273.117
273.258
273.285
273.246
273.186
273.13
273.09
273.068
273.065
273.087
273.141
273.243
273.418
273.69
274.068
274.514
273.117
273.258
273.285
273.246
273.186
273.13
273.089
273.067
273.065
273.085
273.138
273.24
273.413
273.682
274.058
274.502
273.117
273.258
273.285
273.246
273.186
273.13
273.089
273.067
273.063
273.083
273.135
273.234
273.403
273.668
274.039
274.479
273.117
273.258
273.285
273.246
273.185
273.13
273.089
273.066
273.062
273.08
273.129
273.224
273.387
273.644
274.005
274.436
273.117
273.258
273.285
273.246
273.185
273.129
273.088
273.065
273.059
273.075
273.12
273.209
273.362
273.605
273.948
274.361
273.117
273.258
273.285
273.246
273.185
273.129
273.087
273.063
273.056
273.07
273.109
273.189
273.327
273.546
273.859
274.237
273.117
273.258
273.285
273.246
273.185
273.128
273.086
273.061
273.053
273.062
273.096
273.163
273.281
273.467
273.733
274.055
273.117
273.258
273.285
273.246
273.186
273.131
273.093
273.074
273.08
273.116
273.2
273.361
273.643
274.103
274.78
275.634
273.117
273.258
273.285
273.246
273.186
273.131
273.093
273.074
273.079
273.115
273.198
273.358
273.64
274.098
274.775
275.628
273.117
273.258
273.285
273.246
273.186
273.131
273.092
273.074
273.078
273.113
273.196
273.354
273.633
274.088
274.762
275.613
273.117
273.258
273.285
273.246
273.186
273.131
273.092
273.073
273.077
273.11
273.19
273.345
273.619
274.069
274.736
275.583
273.117
273.258
273.285
273.246
273.186
273.131
273.091
273.072
273.074
273.106
273.182
273.331
273.596
274.034
274.688
275.523
273.117
273.258
273.285
273.246
273.186
273.13
273.091
273.07
273.071
273.1
273.171
273.31
273.56
273.975
274.602
275.411
273.117
273.258
273.285
273.246
273.186
273.13
273.09
273.068
273.067
273.091
273.155
273.28
273.506
273.884
274.458
275.209
273.117
273.258
273.285
273.246
273.185
273.129
273.088
273.066
273.062
273.081
273.134
273.241
273.433
273.754
274.242
274.881
273.117
273.258
273.286
273.247
273.187
273.133
273.096
273.082
273.096
273.15
273.271
273.506
273.934
274.666
275.822
277.413
273.117
273.258
273.285
273.247
273.187
273.133
273.096
273.082
273.095
273.149
273.269
273.503
273.93
274.661
275.815
277.406
273.117
273.258
273.285
273.247
273.187
273.133
273.096
273.081
273.094
273.147
273.266
273.497
273.92
274.648
275.8
277.39
273.117
273.258
273.285
273.247
273.187
273.133
273.095
273.08
273.092
273.143
273.259
273.486
273.903
274.623
275.768
277.355
273.117
273.258
273.285
273.247
273.187
273.132
273.095
273.078
273.089
273.137
273.248
273.467
273.872
274.576
275.705
277.282
273.117
273.258
273.285
273.246
273.186
273.132
273.094
273.076
273.085
273.129
273.232
273.438
273.822
274.494
275.586
277.132
273.117
273.258
273.285
273.246
273.186
273.131
273.092
273.074
273.079
273.118
273.21
273.396
273.744
274.359
275.371
276.832
273.117
273.258
273.285
273.246
273.186
273.13
273.091
273.07
273.072
273.104
273.182
273.34
273.636
274.158
275.019
276.276
273.117
273.258
273.286
273.247
273.188
273.135
273.1
273.09
273.113
273.187
273.35
273.67
274.27
275.348
277.178
280.013
273.117
273.258
273.286
273.247
273.188
273.135
273.1
273.09
273.113
273.186
273.347
273.666
274.265
275.341
277.171
280.007
273.117
273.258
273.286
273.247
273.188
273.134
273.099
273.089
273.111
273.183
273.343
273.659
274.254
275.326
277.154
279.992
273.117
273.258
273.286
273.247
273.188
273.134
273.099
273.088
273.109
273.179
273.334
273.645
274.232
275.296
277.118
279.959
273.117
273.258
273.286
273.247
273.187
273.134
273.098
273.086
273.105
273.172
273.321
273.621
274.194
275.239
277.044
279.886
273.117
273.258
273.286
273.247
273.187
273.133
273.097
273.083
273.099
273.161
273.301
273.584
274.128
275.133
276.896
279.72
273.117
273.258
273.285
273.247
273.187
273.132
273.095
273.08
273.092
273.147
273.272
273.528
274.024
274.95
276.606
279.341
273.117
273.258
273.285
273.246
273.186
273.132
273.093
273.076
273.084
273.129
273.235
273.453
273.875
274.663
276.082
278.495
273.117
273.258
273.285
273.246
273.186
273.132
273.093
273.076
273.084
273.129
273.235
273.453
273.875
274.663
276.082
278.495
273.117
273.258
273.285
273.246
273.186
273.13
273.091
273.07
273.072
273.104
273.182
273.34
273.636
274.158
275.019
276.276
273.117
273.258
273.285
273.246
273.185
273.129
273.088
273.066
273.062
273.081
273.134
273.241
273.433
273.754
274.242
274.881
273.117
273.258
273.285
273.246
273.185
273.128
273.086
273.061
273.053
273.062
273.096
273.163
273.281
273.467
273.733
274.055
273.117
273.258
273.285
273.246
273.185
273.128
273.085
273.058
273.046
273.048
273.067
273.107
273.176
273.28
273.421
273.583
273.117
273.258
273.285
273.246
273.184
273.127
273.084
273.055
273.041
273.038
273.047
273.07
273.109
273.167
273.242
273.323
273.117
273.258
273.285
273.245
273.184
273.127
273.083
273.054
273.037
273.032
273.035
273.048
273.071
273.104
273.146
273.189
273.117
273.258
273.285
273.245
273.184
273.127
273.082
273.053
273.036
273.029
273.03
273.038
273.054
273.077
273.104
273.133
273.117
273.258
273.285
273.247
273.187
273.132
273.095
273.08
273.092
273.147
273.272
273.528
274.024
274.95
276.606
279.341
273.117
273.258
273.285
273.246
273.186
273.131
273.092
273.074
273.079
273.118
273.21
273.396
273.744
274.359
275.371
276.832
273.117
273.258
273.285
273.246
273.186
273.13
273.09
273.068
273.067
273.091
273.155
273.28
273.506
273.884
274.458
275.209
273.117
273.258
273.285
273.246
273.185
273.129
273.087
273.063
273.056
273.07
273.109
273.189
273.327
273.546
273.859
274.237
273.117
273.258
273.285
273.246
273.185
273.128
273.086
273.059
273.048
273.053
273.076
273.123
273.204
273.327
273.492
273.682
273.117
273.258
273.285
273.246
273.184
273.127
273.084
273.056
273.042
273.041
273.053
273.08
273.126
273.194
273.281
273.377
273.117
273.258
273.285
273.245
273.184
273.127
273.083
273.054
273.039
273.034
273.039
273.055
273.082
273.121
273.169
273.22
273.117
273.258
273.285
273.245
273.184
273.127
273.083
273.053
273.037
273.03
273.033
273.043
273.062
273.088
273.12
273.154
273.117
273.258
273.286
273.247
273.187
273.133
273.097
273.083
273.099
273.161
273.301
273.584
274.128
275.133
276.896
279.72
273.117
273.258
273.285
273.246
273.186
273.132
273.094
273.076
273.085
273.129
273.232
273.438
273.822
274.494
275.586
277.132
273.117
273.258
273.285
273.246
273.186
273.13
273.091
273.07
273.071
273.1
273.171
273.31
273.56
273.975
274.602
275.411
273.117
273.258
273.285
273.246
273.185
273.129
273.088
273.065
273.059
273.075
273.12
273.209
273.362
273.605
273.948
274.361
273.117
273.258
273.285
273.246
273.185
273.128
273.086
273.06
273.05
273.057
273.083
273.136
273.226
273.362
273.545
273.754
273.117
273.258
273.285
273.246
273.185
273.128
273.085
273.057
273.044
273.044
273.058
273.089
273.14
273.215
273.312
273.418
273.117
273.258
273.285
273.246
273.184
273.127
273.084
273.055
273.04
273.036
273.043
273.06
273.091
273.134
273.187
273.244
273.117
273.258
273.285
273.245
273.184
273.127
273.083
273.054
273.038
273.032
273.035
273.048
273.069
273.098
273.134
273.17
273.117
273.258
273.286
273.247
273.187
273.134
273.098
273.086
273.105
273.172
273.321
273.621
274.193
275.239
277.044
279.886
273.117
273.258
273.285
273.247
273.187
273.132
273.095
273.078
273.089
273.137
273.248
273.467
273.872
274.576
275.705
277.282
273.117
273.258
273.285
273.246
273.186
273.131
273.091
273.072
273.074
273.106
273.182
273.331
273.596
274.034
274.688
275.523
273.117
273.258
273.285
273.246
273.185
273.13
273.089
273.066
273.062
273.08
273.129
273.224
273.387
273.644
274.005
274.436
273.117
273.258
273.285
273.246
273.185
273.128
273.086
273.061
273.052
273.06
273.089
273.146
273.242
273.387
273.581
273.8
273.117
273.258
273.285
273.246
273.185
273.128
273.085
273.058
273.045
273.046
273.062
273.095
273.15
273.231
273.334
273.446
273.117
273.258
273.285
273.246
273.184
273.127
273.084
273.055
273.041
273.037
273.045
273.065
273.098
273.144
273.201
273.261
273.117
273.258
273.285
273.245
273.184
273.127
273.083
273.054
273.038
273.033
273.037
273.051
273.074
273.106
273.144
273.183
273.117
273.258
273.286
273.247
273.188
273.134
273.099
273.088
273.109
273.179
273.334
273.645
274.232
275.296
277.118
279.959
273.117
273.258
273.285
273.247
273.187
273.133
273.095
273.08
273.092
273.143
273.259
273.486
273.903
274.623
275.768
277.355
273.117
273.258
273.285
273.246
273.186
273.131
273.092
273.073
273.077
273.11
273.19
273.345
273.619
274.069
274.736
275.583
273.117
273.258
273.285
273.246
273.186
273.13
273.089
273.067
273.063
273.083
273.135
273.233
273.403
273.668
274.039
274.479
273.117
273.258
273.285
273.246
273.185
273.129
273.087
273.062
273.053
273.062
273.093
273.153
273.253
273.403
273.603
273.829
273.117
273.258
273.285
273.246
273.185
273.128
273.085
273.058
273.046
273.048
273.064
273.1
273.157
273.241
273.348
273.464
273.117
273.258
273.285
273.246
273.184
273.127
273.084
273.056
273.041
273.038
273.047
273.068
273.102
273.151
273.21
273.273
273.117
273.258
273.285
273.245
273.184
273.127
273.083
273.055
273.039
273.034
273.039
273.053
273.077
273.111
273.151
273.192
273.117
273.258
273.286
273.247
273.188
273.134
273.099
273.089
273.111
273.183
273.343
273.658
274.253
275.326
277.154
279.992
273.117
273.258
273.285
273.247
273.187
273.133
273.096
273.081
273.094
273.147
273.265
273.497
273.92
274.648
275.8
277.389
273.117
273.258
273.285
273.246
273.186
273.131
273.092
273.074
273.078
273.113
273.195
273.354
273.632
274.088
274.762
275.613
273.117
273.258
273.285
273.246
273.186
273.13
273.089
273.067
273.065
273.085
273.138
273.24
273.413
273.682
274.058
274.502
273.117
273.258
273.285
273.246
273.185
273.129
273.087
273.062
273.054
273.064
273.096
273.157
273.26
273.413
273.616
273.845
273.117
273.258
273.285
273.246
273.185
273.128
273.085
273.058
273.046
273.049
273.066
273.103
273.162
273.248
273.357
273.474
273.117
273.258
273.285
273.246
273.184
273.127
273.084
273.056
273.042
273.039
273.048
273.07
273.105
273.155
273.216
273.28
273.117
273.258
273.285
273.245
273.184
273.127
273.083
273.055
273.039
273.035
273.04
273.055
273.08
273.114
273.155
273.198
273.117
273.258
273.286
273.247
273.188
273.135
273.1
273.09
273.112
273.186
273.347
273.666
274.264
275.34
277.17
280.007
273.117
273.258
273.286
273.247
273.187
273.133
273.096
273.082
273.095
273.149
273.269
273.503
273.929
274.66
275.815
277.405
273.117
273.258
273.285
273.246
273.186
273.131
273.093
273.074
273.079
273.115
273.198
273.358
273.64
274.098
274.775
275.627
273.117
273.258
273.285
273.246
273.186
273.13
273.09
273.068
273.065
273.087
273.14
273.243
273.418
273.69
274.067
274.513
273.117
273.258
273.285
273.246
273.185
273.129
273.087
273.062
273.055
273.065
273.097
273.16
273.264
273.418
273.623
273.853
273.117
273.258
273.285
273.246
273.185
273.128
273.085
273.059
273.047
273.049
273.067
273.104
273.165
273.251
273.361
273.48
273.117
273.258
273.285
273.246
273.184
273.127
273.084
273.056
273.042
273.04
273.049
273.071
273.107
273.158
273.22
273.284
273.117
273.258
273.285
273.246
273.184
273.127
273.084
273.055
273.04
273.035
273.041
273.056
273.081
273.116
273.158
273.201
273.117
273.258
273.286
273.247
273.188
273.135
273.1
273.09
273.113
273.187
273.349
273.669
274.269
275.346
277.177
280.012
273.117
273.258
273.286
273.247
273.187
273.133
273.096
273.082
273.096
273.15
273.271
273.506
273.933
274.665
275.821
277.412
273.117
273.258
273.285
273.246
273.186
273.131
273.093
273.074
273.079
273.116
273.2
273.36
273.643
274.102
274.78
275.633
273.117
273.258
273.285
273.246
273.186
273.13
273.09
273.068
273.066
273.087
273.141
273.245
273.42
273.693
274.072
274.518
273.117
273.258
273.285
273.246
273.185
273.129
273.087
273.063
273.055
273.065
273.098
273.161
273.265
273.421
273.626
273.857
273.117
273.258
273.285
273.246
273.185
273.128
273.085
273.059
273.047
273.05
273.068
273.105
273.166
273.253
273.364
273.483
273.117
273.258
273.285
273.246
273.184
273.127
273.084
273.056
273.042
273.04
273.05
273.072
273.108
273.159
273.221
273.286
273.117
273.258
273.285
273.246
273.184
273.127
273.084
273.055
273.04
273.035
273.041
273.057
273.082
273.117
273.159
273.202
273.117
273.258
273.285
273.245
273.184
273.126
273.082
273.052
273.035
273.027
273.026
273.033
273.046
273.064
273.086
273.109
273.117
273.258
273.285
273.245
273.184
273.126
273.082
273.052
273.034
273.025
273.023
273.027
273.037
273.051
273.068
273.086
273.117
273.258
273.285
273.245
273.184
273.126
273.082
273.051
273.033
273.023
273.02
273.022
273.029
273.039
273.051
273.064
273.117
273.258
273.285
273.245
273.184
273.126
273.081
273.051
273.032
273.021
273.017
273.018
273.022
273.029
273.037
273.046
273.117
273.258
273.285
273.245
273.184
273.126
273.081
273.05
273.031
273.02
273.015
273.014
273.017
273.021
273.026
273.032
273.117
273.258
273.285
273.245
273.184
273.126
273.081
273.05
273.031
273.019
273.014
273.012
273.013
273.015
273.019
273.022
273.117
273.258
273.285
273.245
273.184
273.126
273.081
273.05
273.03
273.019
273.013
273.01
273.01
273.011
273.014
273.016
273.117
273.258
273.285
273.245
273.184
273.126
273.081
273.05
273.03
273.018
273.012
273.009
273.009
273.01
273.011
273.013
273.117
273.258
273.285
273.245
273.184
273.127
273.083
273.053
273.036
273.029
273.031
273.041
273.06
273.086
273.12
273.155
273.117
273.258
273.285
273.245
273.184
273.126
273.082
273.052
273.035
273.027
273.027
273.034
273.048
273.068
273.093
273.12
273.117
273.258
273.285
273.245
273.184
273.126
273.082
273.052
273.034
273.025
273.023
273.027
273.037
273.051
273.069
273.088
273.117
273.258
273.285
273.245
273.184
273.126
273.082
273.051
273.032
273.023
273.019
273.021
273.027
273.037
273.049
273.062
273.117
273.258
273.285
273.245
273.184
273.126
273.081
273.051
273.032
273.021
273.017
273.017
273.02
273.026
273.034
273.042
273.117
273.258
273.285
273.245
273.184
273.126
273.081
273.05
273.031
273.02
273.015
273.013
273.015
273.019
273.023
273.028
273.117
273.258
273.285
273.245
273.184
273.126
273.081
273.05
273.03
273.019
273.013
273.011
273.012
273.014
273.017
273.02
273.117
273.258
273.285
273.245
273.184
273.126
273.081
273.05
273.03
273.019
273.013
273.01
273.01
273.011
273.014
273.016
273.117
273.258
273.285
273.246
273.184
273.127
273.083
273.054
273.039
273.034
273.041
273.059
273.09
273.137
273.196
273.261
273.117
273.258
273.285
273.245
273.184
273.127
273.083
273.053
273.037
273.031
273.034
273.047
273.071
273.106
273.15
273.198
273.117
273.258
273.285
273.245
273.184
273.126
273.082
273.053
273.035
273.028
273.028
273.037
273.054
273.078
273.109
273.142
273.117
273.258
273.285
273.245
273.184
273.126
273.082
273.052
273.034
273.025
273.023
273.028
273.039
273.055
273.075
273.097
273.117
273.258
273.285
273.245
273.184
273.126
273.082
273.051
273.032
273.023
273.019
273.021
273.028
273.038
273.051
273.064
273.117
273.258
273.285
273.245
273.184
273.126
273.081
273.051
273.031
273.021
273.016
273.016
273.02
273.026
273.034
273.042
273.117
273.258
273.285
273.245
273.184
273.126
273.081
273.05
273.031
273.02
273.015
273.013
273.015
273.019
273.023
273.028
273.117
273.258
273.285
273.245
273.184
273.126
273.081
273.05
273.031
273.019
273.014
273.012
273.013
273.015
273.019
273.022
273.117
273.258
273.285
273.246
273.185
273.127
273.084
273.056
273.043
273.043
273.057
273.089
273.144
273.227
273.338
273.464
273.117
273.258
273.285
273.246
273.184
273.127
273.084
273.055
273.04
273.037
273.047
273.07
273.111
273.173
273.253
273.344
273.117
273.258
273.285
273.245
273.184
273.127
273.083
273.054
273.038
273.033
273.038
273.054
273.082
273.124
273.179
273.239
273.117
273.258
273.285
273.245
273.184
273.127
273.082
273.053
273.035
273.028
273.03
273.04
273.058
273.086
273.121
273.158
273.117
273.258
273.285
273.245
273.184
273.126
273.082
273.052
273.034
273.025
273.024
273.029
273.04
273.057
273.078
273.101
273.117
273.258
273.285
273.245
273.184
273.126
273.082
273.051
273.032
273.023
273.019
273.021
273.028
273.038
273.051
273.064
273.117
273.258
273.285
273.245
273.184
273.126
273.081
273.051
273.032
273.021
273.017
273.017
273.02
273.026
273.034
273.042
273.117
273.258
273.285
273.245
273.184
273.126
273.081
273.05
273.031
273.02
273.015
273.014
273.017
273.021
273.026
273.032
273.117
273.258
273.285
273.246
273.185
273.128
273.086
273.059
273.049
273.055
273.08
273.134
273.227
273.374
273.579
273.825
273.117
273.258
273.285
273.246
273.185
273.128
273.085
273.057
273.045
273.047
273.065
273.104
273.173
273.28
273.425
273.594
273.117
273.258
273.285
273.246
273.184
273.127
273.084
273.056
273.041
273.039
273.051
273.078
273.125
273.197
273.292
273.4
273.117
273.258
273.285
273.246
273.184
273.127
273.083
273.054
273.038
273.033
273.039
273.056
273.087
273.132
273.191
273.256
273.117
273.258
273.285
273.245
273.184
273.127
273.082
273.053
273.035
273.028
273.03
273.04
273.058
273.086
273.121
273.158
273.117
273.258
273.285
273.245
273.184
273.126
273.082
273.052
273.034
273.025
273.023
273.028
273.039
273.055
273.075
273.097
273.117
273.258