/*--------------------------------*- C++ -*----------------------------------*\
| =========                 |                                                 |
| \\      /  F ield         | OpenFOAM: The Open Source CFD Toolbox           |
|  \\    /   O peration     | Version:  v1912                                 |
|   \\  /    A nd           | Website:  www.openfoam.com                      |
|    \\/     M anipulation  |                                                 |
\*---------------------------------------------------------------------------*/
FoamFile
{
    version     2.0;
    format      ascii;
    class       volScalarField;
    location    "0.86/fluid";
    object      p;
}
// * * * * * * * * * * * * * * * * * * * * * * * * * * * * * * * * * * * * * //

dimensions      [0 2 -2 0 0 0 0];


internalField   nonuniform List<scalar> 
14592
(
0.0501018
0.0444769
0.0425684
0.0409643
0.0400558
0.0393734
0.0388667
0.038448
0.0380641
0.0377615
0.0374089
0.0372557
0.0368137
0.037057
0.03629
0.0380731
0.0459452
0.0441947
0.0425123
0.0411419
0.0402214
0.0395126
0.038973
0.0385346
0.0381421
0.0378433
0.0375018
0.0373807
0.0369728
0.0373491
0.0365284
0.0392514
0.0439513
0.0433401
0.0421044
0.0410974
0.0402542
0.0395721
0.0390204
0.0385717
0.0381748
0.0378845
0.037567
0.0375023
0.0371588
0.0377294
0.0369821
0.0405346
0.0427728
0.0426318
0.041773
0.0410177
0.0402687
0.0396186
0.0390544
0.0385845
0.0381685
0.0378716
0.0375629
0.0375419
0.0372615
0.0380065
0.0373774
0.0414362
0.0420724
0.0420559
0.0414315
0.0408414
0.0401792
0.0395669
0.0390004
0.0385109
0.0380659
0.037739
0.0373999
0.0373632
0.0370634
0.0378736
0.037269
0.0416883
0.0416199
0.0416397
0.0411626
0.040671
0.0400696
0.0394823
0.0389109
0.0384001
0.0379247
0.0375668
0.0372017
0.037165
0.0368894
0.0378527
0.0374241
0.0424094
0.0413237
0.0413485
0.0409476
0.0405065
0.0399368
0.0393564
0.0387682
0.0382203
0.0376884
0.0372503
0.0367739
0.0365804
0.0360677
0.0367422
0.035766
0.0408488
0.0411458
0.0411712
0.0408019
0.0403792
0.039817
0.0392287
0.0386176
0.0380331
0.0374534
0.0369552
0.0364162
0.0361637
0.0356317
0.0364784
0.0357716
0.0432872
0.0500216
0.0443988
0.0425278
0.0409653
0.0401104
0.0394873
0.0390475
0.0387034
0.0384056
0.0381986
0.0379608
0.0379047
0.0376022
0.0377594
0.037121
0.0377056
0.0458652
0.0441148
0.0424709
0.0411426
0.0402762
0.0396275
0.0391552
0.0387921
0.0384863
0.0382836
0.0380561
0.0380271
0.0377437
0.0379819
0.0372629
0.0382386
0.0438671
0.0432543
0.0420557
0.0410906
0.0403017
0.0396805
0.0391971
0.0388245
0.0385146
0.038321
0.0381159
0.0381408
0.0379118
0.0383028
0.0376045
0.0390427
0.042686
0.0425429
0.0417198
0.0410053
0.0403097
0.0397197
0.0392231
0.0388289
0.0384992
0.0382989
0.0381012
0.0381696
0.0379954
0.038541
0.0379225
0.0396669
0.0419825
0.0419637
0.0413737
0.0408229
0.0402126
0.0396586
0.0391576
0.0387413
0.038379
0.038145
0.0379096
0.0379565
0.0377443
0.0383387
0.0376864
0.0396854
0.0415271
0.0415445
0.0411009
0.0406475
0.0400961
0.0395647
0.0390562
0.0386155
0.0382189
0.0379506
0.0376836
0.0377312
0.037533
0.0382921
0.0377774
0.0402939
0.0412274
0.0412499
0.0408816
0.0404772
0.0399557
0.0394282
0.0388988
0.0384157
0.0379545
0.0375959
0.0371996
0.0370727
0.0365904
0.0370423
0.0358315
0.0384392
0.0410456
0.0410687
0.0407315
0.0403442
0.0398285
0.0392903
0.0387345
0.03821
0.0376948
0.0372698
0.0368025
0.0366184
0.0361082
0.0367923
0.0358083
0.040914
0.0499757
0.0443546
0.0425122
0.0409834
0.0401744
0.0396048
0.039229
0.0389611
0.03876
0.0386728
0.038606
0.0387554
0.0388098
0.0393032
0.0394556
0.0401608
0.0458193
0.0440693
0.0424549
0.0411608
0.0403409
0.0397463
0.0393388
0.0390529
0.0388452
0.0387643
0.0387104
0.0388892
0.038967
0.0395343
0.0396597
0.0406527
0.0438171
0.0432033
0.042033
0.0411015
0.0403594
0.0397931
0.0393753
0.0390807
0.0388695
0.0387989
0.0387681
0.0390043
0.0391432
0.0398727
0.0400632
0.0414652
0.0426331
0.0424886
0.0416923
0.0410105
0.0403607
0.0398251
0.0393934
0.039077
0.0388455
0.0387688
0.0387457
0.0390301
0.0392283
0.0401253
0.0404221
0.0421118
0.041926
0.0419055
0.0413412
0.0408218
0.0402557
0.0397544
0.0393164
0.0389755
0.038708
0.0385943
0.0385273
0.0387876
0.0389368
0.0398853
0.0401288
0.0420634
0.0414673
0.0414831
0.0410642
0.0406408
0.0401319
0.0396511
0.0392028
0.0388345
0.0385282
0.0383761
0.0382701
0.0385286
0.0386773
0.0397979
0.0401418
0.0425971
0.0411639
0.0411847
0.0408403
0.0404648
0.0399835
0.0395038
0.0390306
0.0386144
0.0382349
0.037981
0.0377246
0.0377841
0.0375874
0.0383539
0.0378171
0.0403281
0.0409782
0.0409997
0.0406856
0.0403262
0.0398488
0.0393555
0.038852
0.0383891
0.0379476
0.0376174
0.0372725
0.0372584
0.0369891
0.0379756
0.0375247
0.0425505
0.0499516
0.0443317
0.0425108
0.0410079
0.0402345
0.0397059
0.0393784
0.0391645
0.0390262
0.0390037
0.0390154
0.0392178
0.0393584
0.0398105
0.0400295
0.040506
0.0457953
0.0440455
0.0424531
0.0411854
0.0404018
0.0398487
0.0394898
0.0392583
0.0391141
0.0390981
0.0391227
0.0393516
0.0395107
0.0400121
0.0401985
0.0408657
0.0437894
0.0431747
0.0420253
0.0411198
0.0404141
0.03989
0.0395213
0.0392816
0.0391336
0.0391275
0.0391725
0.039454
0.0396632
0.0403025
0.0405247
0.0415114
0.0426024
0.0424568
0.0416803
0.0410234
0.0404093
0.0399153
0.0395323
0.0392703
0.0391011
0.0390883
0.0391383
0.0394653
0.0397248
0.0405165
0.0408203
0.0420516
0.0418918
0.04187
0.0413244
0.0408288
0.0402969
0.039836
0.039445
0.0391568
0.0389487
0.038896
0.0388963
0.0391943
0.0393903
0.0402217
0.0404355
0.0418876
0.0414299
0.0414444
0.0410435
0.0406427
0.0401664
0.0397243
0.0393209
0.0390029
0.038753
0.0386592
0.0386152
0.0389098
0.0390939
0.040097
0.0403788
0.0423412
0.0411229
0.0411424
0.0408153
0.0404613
0.040011
0.0395677
0.0391365
0.0387669
0.0384383
0.0382366
0.0380316
0.038119
0.0379326
0.0385747
0.0379093
0.039918
0.0409336
0.0409538
0.0406565
0.0403177
0.0398696
0.0394108
0.0389464
0.0385268
0.0381315
0.037849
0.0375483
0.037561
0.0372897
0.0381663
0.0375479
0.0420619
0.0499421
0.0443231
0.0425186
0.0410363
0.0402917
0.0397975
0.0395117
0.0393463
0.0392678
0.0393122
0.0394124
0.0396984
0.0399715
0.0404926
0.0408874
0.0413068
0.0457858
0.0440364
0.0424608
0.0412142
0.0404599
0.0399416
0.039625
0.0394428
0.0393593
0.0394115
0.0395262
0.0398399
0.0401334
0.0406969
0.0410635
0.041636
0.0437767
0.0431616
0.0420281
0.0411433
0.0404671
0.0399783
0.0396523
0.0394624
0.0393752
0.0394371
0.0395707
0.0399345
0.0402726
0.0409625
0.0413559
0.0422065
0.0425871
0.0424407
0.0416794
0.0410424
0.0404571
0.0399979
0.0396572
0.0394447
0.0393355
0.0393904
0.0395274
0.0399358
0.0403193
0.0411558
0.0416198
0.0426988
0.0418733
0.0418507
0.0413193
0.0408425
0.0403383
0.0399111
0.039561
0.0393207
0.0391703
0.0391829
0.0392655
0.0396412
0.039951
0.0408204
0.0411712
0.0424606
0.0414085
0.0414221
0.0410347
0.0406518
0.040202
0.039792
0.0394276
0.0391554
0.0389602
0.0389288
0.0389619
0.0393312
0.0396177
0.0406554
0.0410468
0.0428405
0.0410984
0.041117
0.0408027
0.0404656
0.0400403
0.0396273
0.0392325
0.0389053
0.0386264
0.0384814
0.0383431
0.0384959
0.0383882
0.0390512
0.0384361
0.0402576
0.0409059
0.0409253
0.0406403
0.0403176
0.039893
0.0394626
0.039032
0.0386514
0.0383009
0.0380696
0.0378264
0.0378968
0.0376842
0.0385741
0.0379537
0.0422607
0.0499398
0.0443215
0.0425284
0.0410608
0.0403364
0.039866
0.0396084
0.0394739
0.0394309
0.0395094
0.0396496
0.0399581
0.040266
0.0407669
0.0411784
0.0415459
0.0457835
0.0440343
0.0424707
0.041239
0.0405052
0.040011
0.0397228
0.0395719
0.0395242
0.039611
0.0397658
0.0401012
0.0404285
0.0409657
0.0413443
0.0418404
0.0437719
0.0431564
0.0420342
0.0411641
0.0405085
0.0400442
0.0397469
0.0395885
0.0395368
0.0396327
0.0398043
0.0401863
0.0405508
0.0412015
0.0415931
0.0423409
0.0425803
0.0424333
0.0416825
0.0410596
0.0404945
0.0400594
0.0397471
0.0395657
0.0394915
0.0395797
0.0397526
0.040177
0.0405808
0.0413703
0.0418188
0.0427845
0.041864
0.0418407
0.0413191
0.0408555
0.0403708
0.0399668
0.0396441
0.0394339
0.0393169
0.039361
0.0394761
0.0398649
0.0401868
0.0410025
0.0413194
0.042489
0.0413968
0.0414097
0.0410317
0.0406613
0.0402298
0.0398421
0.0395038
0.0392603
0.0390965
0.039095
0.0391573
0.0395379
0.0398293
0.0408103
0.0411498
0.0428208
0.0410841
0.0411021
0.0407967
0.0404714
0.0400634
0.0396713
0.0393009
0.0390004
0.0387501
0.0386321
0.0385181
0.0386788
0.0385657
0.0391681
0.038474
0.0401625
0.0408891
0.0409079
0.0406315
0.0403199
0.0399117
0.0395009
0.039093
0.0387371
0.0384126
0.0382058
0.0379829
0.0380599
0.0378346
0.0386648
0.0379456
0.0421084
0.0499409
0.0443231
0.0425377
0.0410799
0.0403693
0.0399155
0.0396779
0.0395661
0.0395502
0.0396569
0.0398316
0.0401673
0.0405143
0.0410243
0.041468
0.0418129
0.0457846
0.0440356
0.0424799
0.0412583
0.0405387
0.0400613
0.0397934
0.0396656
0.0396456
0.0397611
0.0399514
0.0403147
0.040682
0.0412267
0.0416379
0.0420981
0.0437714
0.0431557
0.042041
0.0411807
0.0405394
0.0400921
0.0398154
0.0396803
0.0396562
0.0397806
0.0399865
0.0403946
0.0407951
0.0414465
0.0418633
0.0425616
0.0425783
0.042431
0.0416872
0.0410738
0.0405225
0.0401043
0.0398123
0.0396541
0.039607
0.0397234
0.0399295
0.0403787
0.040815
0.0416013
0.0420674
0.0429779
0.0418602
0.0418365
0.0413215
0.0408669
0.0403954
0.0400077
0.0397046
0.0395168
0.0394258
0.0394969
0.0396429
0.0400545
0.0404037
0.041212
0.0415354
0.0426466
0.0413914
0.0414039
0.041032
0.0406701
0.0402512
0.0398789
0.0395593
0.0393373
0.0391979
0.0392222
0.0393128
0.0397144
0.0400278
0.0409985
0.0413321
0.042943
0.0410769
0.0410945
0.0407949
0.0404776
0.0400815
0.0397039
0.0393509
0.0390703
0.0388424
0.0387477
0.0386582
0.038837
0.0387379
0.0393256
0.0386063
0.0402263
0.0408801
0.0408986
0.0406277
0.0403237
0.0399266
0.0395295
0.0391377
0.0388001
0.0384957
0.0383101
0.0381079
0.0382001
0.0379819
0.038794
0.0380328
0.0421196
0.0499418
0.0443249
0.0425425
0.0410897
0.0403854
0.0399392
0.0397105
0.0396082
0.0396028
0.0397188
0.0399039
0.0402437
0.0405976
0.0411002
0.0415463
0.0418823
0.045786
0.0440368
0.0424849
0.0412682
0.040555
0.0400853
0.0398263
0.0397079
0.0396984
0.039823
0.0400233
0.0403899
0.0407631
0.0412987
0.041712
0.0421584
0.0437716
0.0431559
0.0420448
0.0411892
0.0405544
0.0401149
0.0398471
0.0397214
0.0397074
0.0398403
0.0400549
0.0404645
0.0408679
0.0415058
0.0419211
0.0426002
0.0425779
0.0424303
0.04169
0.0410809
0.0405361
0.0401255
0.0398423
0.0396934
0.0396561
0.0397807
0.0399947
0.0404444
0.0408813
0.0416514
0.0421119
0.0430009
0.0418589
0.0418349
0.0413231
0.0408727
0.0404074
0.0400269
0.0397323
0.0395535
0.0394718
0.0395507
0.0397036
0.040115
0.0404626
0.0412529
0.0415655
0.0426536
0.0413892
0.0414015
0.0410326
0.0406746
0.0402616
0.0398963
0.0395848
0.0393712
0.0392407
0.0392723
0.039369
0.0397698
0.0400795
0.0410306
0.0413472
0.0429334
0.0410738
0.0410911
0.0407944
0.0404808
0.0400902
0.0397192
0.0393738
0.0391012
0.0388814
0.0387936
0.0387092
0.0388869
0.0387824
0.0393498
0.0386073
0.0401992
0.0408762
0.0408943
0.0406262
0.0403257
0.0399338
0.0395429
0.0391582
0.0388281
0.0385311
0.0383517
0.0381536
0.0382443
0.0380184
0.0388086
0.0380164
0.0420677
0.0593739
0.048618
0.044954
0.0419494
0.0402211
0.0388906
0.0378714
0.0369605
0.0360854
0.0351925
0.0342013
0.0331266
0.0318327
0.0304344
0.0286798
0.0268912
0.0551131
0.0478755
0.044592
0.0418699
0.0401937
0.0388881
0.0378769
0.0369712
0.0361025
0.0352195
0.0342386
0.0331774
0.0318978
0.0305179
0.0287778
0.0269997
0.0530997
0.0468248
0.0439438
0.0415562
0.0400084
0.0387865
0.0378139
0.0369307
0.0360768
0.035209
0.0342443
0.0332021
0.0319496
0.0306014
0.0288992
0.0271522
0.0518519
0.0460182
0.0434732
0.0413176
0.0398855
0.0387305
0.0377839
0.0369106
0.0360591
0.0351922
0.034231
0.0331956
0.0319577
0.030628
0.0289522
0.0272302
0.0511061
0.0454026
0.0430637
0.0410623
0.0397294
0.0386369
0.0377198
0.036859
0.0360104
0.0351415
0.0341796
0.0331449
0.0319157
0.0305976
0.0289462
0.027249
0.0506245
0.0449702
0.0427664
0.0408623
0.0396001
0.0385512
0.0376546
0.0368002
0.0359495
0.0350744
0.0341079
0.03307
0.0318468
0.030538
0.028913
0.0272435
0.0503202
0.04468
0.0425485
0.0406983
0.0394789
0.0384562
0.0375717
0.0367185
0.0358616
0.0349764
0.0340006
0.0329528
0.0317295
0.030422
0.0288234
0.0271826
0.0501504
0.0445147
0.0424153
0.0405878
0.0393861
0.038372
0.0374893
0.0366311
0.0357649
0.0348687
0.0338848
0.0328293
0.0316104
0.0303095
0.0287459
0.0271405
0.0551147
0.0478752
0.0445893
0.0418636
0.0401822
0.0388699
0.0378507
0.0369389
0.036059
0.0351584
0.0341559
0.0330728
0.0317622
0.030359
0.0285784
0.0268062
0.0509302
0.0474976
0.0444152
0.0419156
0.0402443
0.0389259
0.037889
0.0369655
0.0360793
0.0351768
0.0341751
0.0330961
0.0317927
0.0304041
0.0286404
0.0268811
0.0489157
0.0465425
0.0438462
0.0416752
0.0401083
0.0388544
0.0378414
0.0369316
0.0360534
0.0351586
0.0341676
0.033102
0.0318205
0.030456
0.0287234
0.0269945
0.0476831
0.0457578
0.0434094
0.0414722
0.0400149
0.0388209
0.0378272
0.0369215
0.0360402
0.0351427
0.0341526
0.0330918
0.0318236
0.0304762
0.0287687
0.0270628
0.0469434
0.0451387
0.0430066
0.041226
0.0398671
0.0387341
0.0377688
0.036874
0.0359937
0.0350938
0.034103
0.033043
0.0317838
0.030448
0.0287647
0.027083
0.0464652
0.0447004
0.0427099
0.0410282
0.0397405
0.0386513
0.0377069
0.0368184
0.0359361
0.035031
0.0340372
0.0329759
0.031725
0.0304007
0.0287462
0.0270924
0.0461624
0.044406
0.042491
0.0408642
0.0396199
0.0385573
0.0376255
0.0367387
0.0358513
0.0349374
0.033936
0.0328666
0.0316179
0.0302964
0.0286713
0.0270456
0.0459932
0.0442392
0.0423577
0.0407543
0.0395282
0.0384749
0.0375452
0.0366542
0.0357593
0.0348363
0.0338292
0.0327548
0.0315146
0.0302031
0.0286181
0.0270278
0.0531259
0.0468503
0.0439764
0.041596
0.0400571
0.038844
0.0378828
0.0370166
0.0361665
0.0352918
0.0343027
0.0332348
0.0318975
0.0304774
0.0285479
0.0266911
0.0489417
0.0465699
0.0438847
0.0417262
0.040175
0.0389388
0.0379484
0.0370646
0.0362043
0.0353246
0.0343349
0.0332708
0.031941
0.0305364
0.0286248
0.0267838
0.0469237
0.0456831
0.0434075
0.0415887
0.0401182
0.0389214
0.037935
0.0370546
0.0361965
0.0353194
0.034338
0.0332856
0.0319771
0.0305934
0.0287035
0.0268784
0.0457068
0.0449328
0.0430232
0.0414474
0.0400781
0.0389286
0.037949
0.0370634
0.0361962
0.0353115
0.0343288
0.0332799
0.0319845
0.0306175
0.0287504
0.0269465
0.0449778
0.0443276
0.042647
0.0412341
0.0399603
0.0388654
0.0379063
0.037025
0.0361536
0.0352623
0.0342758
0.0332253
0.0319372
0.0305797
0.0287359
0.0269559
0.0445069
0.0438944
0.0423614
0.0410509
0.0398478
0.0387937
0.0378509
0.0369716
0.0360949
0.0351957
0.0342045
0.0331517
0.0318736
0.03053
0.028723
0.026978
0.0442072
0.0436009
0.0421464
0.0408924
0.0397324
0.0387032
0.0377693
0.0368879
0.0360031
0.0350913
0.0340891
0.0330237
0.0317457
0.0304023
0.0286345
0.0269253
0.0440388
0.0434337
0.0420138
0.0407837
0.0396418
0.0386205
0.0376858
0.0367974
0.0359033
0.03498
0.0339705
0.0328987
0.031632
0.0303022
0.028593
0.0269334
0.0519057
0.0460721
0.0435486
0.041418
0.0400183
0.0388983
0.0379919
0.0371656
0.0363448
0.0355014
0.0345302
0.0334872
0.0321131
0.0306742
0.0285112
0.0265252
0.0477372
0.0458136
0.0434919
0.0415866
0.04017
0.0390211
0.0380801
0.0372308
0.0363952
0.0355448
0.0345726
0.0335341
0.0321693
0.0307494
0.0286023
0.0266341
0.0457343
0.0449602
0.0430667
0.0415113
0.0401686
0.039048
0.0381003
0.0372451
0.036405
0.0355537
0.0345884
0.0335613
0.0322167
0.0308137
0.0286699
0.0266887
0.0445346
0.0442332
0.042714
0.0414077
0.0401631
0.0390832
0.0381339
0.0372668
0.0364127
0.0355509
0.0345832
0.0335595
0.0322284
0.0308414
0.0287125
0.0267437
0.0438179
0.043642
0.0423565
0.0412168
0.0400658
0.0390356
0.0381006
0.0372323
0.0363697
0.0354975
0.0345231
0.0334946
0.0321683
0.0307876
0.0286791
0.0267318
0.0433552
0.0432163
0.0420802
0.0410438
0.0399622
0.0389697
0.0380468
0.0371767
0.0363058
0.0354229
0.0344423
0.0334109
0.032097
0.0307346
0.0286754
0.0267759
0.0430594
0.042926
0.0418687
0.0408888
0.0398492
0.038879
0.0379613
0.0370855
0.0362024
0.0353018
0.0343047
0.0332537
0.0319361
0.0305686
0.0285647
0.0267144
0.0428916
0.042759
0.0417363
0.0407799
0.0397572
0.0387932
0.037872
0.0369864
0.0360912
0.0351756
0.0341688
0.0331093
0.031808
0.0304611
0.0285481
0.0267769
0.0511908
0.0454891
0.0431923
0.0412428
0.0399786
0.038964
0.0381348
0.0373751
0.0366143
0.0358385
0.0349245
0.0339577
0.0325851
0.0311826
0.0287228
0.0265798
0.0470286
0.0452264
0.0431426
0.0414217
0.0401413
0.0390979
0.0382332
0.0374492
0.0366739
0.0358925
0.0349795
0.0340213
0.0326624
0.0312876
0.0288413
0.0267106
0.0450351
0.0443847
0.0427417
0.0413783
0.0401709
0.0391518
0.0382756
0.0374807
0.0366978
0.0359149
0.0350102
0.0340656
0.0327277
0.0313665
0.0288934
0.0267024
0.0438475
0.0436713
0.0424072
0.0412966
0.0401861
0.0392035
0.0383211
0.0375098
0.0367098
0.0359152
0.0350084
0.0340694
0.032747
0.0314045
0.0289352
0.0267439
0.0431408
0.0430906
0.042063
0.041121
0.0401028
0.0391662
0.0382932
0.0374757
0.0366625
0.0358532
0.034936
0.0339885
0.0326676
0.0313285
0.0288754
0.0267045
0.0426849
0.0426716
0.041794
0.0409554
0.0400052
0.0391032
0.0382383
0.0374149
0.0365891
0.0357651
0.0348388
0.0338871
0.0325817
0.0312689
0.0288845
0.0267849
0.0423921
0.0423841
0.0415856
0.0408028
0.0398929
0.03901
0.0381463
0.0373119
0.0364672
0.035617
0.0346643
0.0336797
0.0323598
0.0310289
0.0287191
0.0266905
0.0422242
0.0422168
0.0414525
0.0406925
0.039798
0.0389186
0.0380479
0.0371995
0.0363372
0.0354655
0.0344974
0.0334979
0.0321971
0.0308946
0.0287226
0.0268305
0.0507298
0.0450788
0.0429419
0.0411213
0.0399709
0.0390502
0.0382978
0.0376095
0.0369164
0.0362179
0.0353698
0.0344891
0.0331073
0.0317315
0.0288298
0.0264587
0.0465711
0.0448089
0.0428917
0.0413019
0.0401365
0.0391882
0.0384002
0.037688
0.0369814
0.0362791
0.0354342
0.0345671
0.0332036
0.0318655
0.0289549
0.0265413
0.0445826
0.0439688
0.042498
0.0412694
0.0401781
0.039254
0.0384527
0.0377275
0.0370129
0.0363102
0.0354759
0.0346262
0.0332829
0.0319511
0.0289476
0.0263625
0.0434024
0.0432618
0.0421708
0.0411962
0.0402011
0.0393117
0.0385014
0.0377572
0.0370242
0.0363097
0.0354745
0.0346336
0.0333074
0.0319959
0.028967
0.0263389
0.0427018
0.042687
0.041833
0.0410269
0.040123
0.0392771
0.0384727
0.0377183
0.036968
0.0362349
0.0353849
0.0345315
0.0332008
0.0318884
0.0288632
0.0262455
0.0422502
0.0422719
0.0415677
0.0408642
0.0400266
0.0392126
0.0384132
0.0376489
0.036882
0.0361305
0.0352688
0.0344106
0.0331003
0.0318281
0.0289
0.0263915
0.0419589
0.0419858
0.0413601
0.0407113
0.0399121
0.0391143
0.0383123
0.0375313
0.036738
0.0359504
0.0350499
0.0341418
0.0328011
0.0314915
0.0286668
0.0262659
0.0417899
0.0418173
0.0412253
0.0405983
0.0398128
0.0390155
0.0382038
0.0374042
0.0365875
0.0357716
0.0348501
0.0339225
0.0326099
0.0313524
0.0287507
0.0266156
0.050429
0.044794
0.0427615
0.0410341
0.0399804
0.039149
0.0384819
0.0378837
0.0372886
0.0367141
0.0360066
0.035331
0.0341267
0.0330663
0.030013
0.0277502
0.0462717
0.0445183
0.0427089
0.0412134
0.0401462
0.0392876
0.0385856
0.0379652
0.0373585
0.0367833
0.0360824
0.0354276
0.0342482
0.0332424
0.0301521
0.0277824
0.0442836
0.0436749
0.0423135
0.0411812
0.0401893
0.0393559
0.0386402
0.0380071
0.0373934
0.0368203
0.0361341
0.0355055
0.0343524
0.0333692
0.0301433
0.0275292
0.0431066
0.0429698
0.0419879
0.0411092
0.0402128
0.0394132
0.038687
0.0380335
0.0374009
0.0368172
0.036133
0.0355215
0.0343942
0.0334529
0.0301877
0.0275055
0.0424085
0.0423971
0.0416518
0.0409409
0.0401342
0.0393762
0.038653
0.0379856
0.0373317
0.0367253
0.0360216
0.0353946
0.0342584
0.0333215
0.030051
0.0273782
0.0419585
0.0419835
0.0413873
0.0407778
0.0400355
0.0393071
0.0385856
0.0379041
0.0372289
0.0365997
0.03588
0.035248
0.0341358
0.0332611
0.0301173
0.0276088
0.0416669
0.041697
0.0411786
0.0406226
0.0399165
0.039201
0.0384723
0.0377673
0.0370563
0.036377
0.0355985
0.034887
0.0337039
0.0327404
0.0296795
0.027302
0.0414957
0.0415263
0.041041
0.0405056
0.0398112
0.0390934
0.0383507
0.0376209
0.0368786
0.0361604
0.0353486
0.0346036
0.0334414
0.0325434
0.0297719
0.027877
0.0502301
0.0446019
0.042642
0.0409838
0.0400087
0.0392542
0.038666
0.0381516
0.0376478
0.0371821
0.036591
0.0360622
0.0349549
0.0340184
0.0305638
0.027867
0.0460733
0.0443222
0.0425873
0.041162
0.0401742
0.0393929
0.0387707
0.0382353
0.0377211
0.0372564
0.0366735
0.0361686
0.035081
0.0341827
0.0305227
0.0272617
0.044083
0.0434736
0.0421864
0.0411246
0.0402135
0.039458
0.0388226
0.0382756
0.0377555
0.0372954
0.0367295
0.036257
0.0351903
0.0343057
0.0303642
0.0264193
0.0429062
0.0427677
0.0418588
0.0410499
0.0402337
0.0395111
0.0388638
0.0382959
0.0377565
0.037287
0.0367246
0.0362752
0.035236
0.0343994
0.0303581
0.0261523
0.0422079
0.0421943
0.041521
0.0408787
0.0401509
0.039468
0.0388209
0.0382362
0.0376717
0.0371755
0.0365876
0.0361189
0.0350603
0.0342274
0.030157
0.0259071
0.0417574
0.0417801
0.0412551
0.0407129
0.0400476
0.0393921
0.0387434
0.0381412
0.0375512
0.0370285
0.0364211
0.0359497
0.0349203
0.0341809
0.0302857
0.0262456
0.041464
0.0414918
0.0410438
0.0405537
0.0399222
0.039277
0.0386166
0.0379845
0.0373495
0.0367639
0.0360778
0.035499
0.0343545
0.0334747
0.0296401
0.0257019
0.0412898
0.0413181
0.0409025
0.0404319
0.0398099
0.03916
0.0384818
0.0378193
0.0371464
0.036514
0.0357868
0.0351726
0.034061
0.0333179
0.0299246
0.0267911
0.0410713
0.0410978
0.0407232
0.0402887
0.0397066
0.0390907
0.0384405
0.0377995
0.0371411
0.0365182
0.0357938
0.035177
0.0340493
0.0332811
0.0298173
0.0265814
0.0411019
0.0411291
0.0407127
0.0402417
0.0396192
0.0389618
0.038271
0.037582
0.0368684
0.0361696
0.0353662
0.0346212
0.0334408
0.0325151
0.0296701
0.0276982
0.0412532
0.0412756
0.0407692
0.0402268
0.0395409
0.0388297
0.0380887
0.0373461
0.0365701
0.0357818
0.034873
0.0339462
0.0326134
0.0313244
0.0286507
0.0264464
0.0415751
0.0415623
0.0408952
0.040234
0.0394575
0.0386871
0.0379078
0.037129
0.0363175
0.0354809
0.0345303
0.0335344
0.0322161
0.0308838
0.0286496
0.0266968
0.0421539
0.0420158
0.0410983
0.0402521
0.0393629
0.0385218
0.0377106
0.0369074
0.0360702
0.0351958
0.0342106
0.0331568
0.0318405
0.0304659
0.028499
0.026673
0.0432398
0.0426306
0.0413231
0.0402125
0.0392156
0.0383283
0.037514
0.0367178
0.0358882
0.0350098
0.0340242
0.0329593
0.0316795
0.0303234
0.0285664
0.0268557
0.0451562
0.0434023
0.0416412
0.0401642
0.0390882
0.0381724
0.0373617
0.0365681
0.0357475
0.0348722
0.0338912
0.0328247
0.0315729
0.0302364
0.0286081
0.0269691
0.0493138
0.0436884
0.0417141
0.0400154
0.0389639
0.038087
0.0373196
0.0365579
0.0357671
0.0349162
0.0339565
0.0329069
0.0316751
0.0303477
0.0287399
0.0270842
0.0409667
0.0409909
0.0406475
0.0402472
0.0397098
0.0391409
0.0385412
0.0379536
0.0373494
0.0367851
0.0361085
0.0355319
0.0343648
0.0334517
0.0294981
0.0254028
0.0409926
0.0410176
0.040632
0.0401943
0.0396146
0.0390018
0.0383576
0.0377169
0.0370507
0.0364024
0.0356386
0.0349307
0.033722
0.0327205
0.0295399
0.0270415
0.0411389
0.0411591
0.0406831
0.0401735
0.0395289
0.0388592
0.0381607
0.0374605
0.0367241
0.0359753
0.0350932
0.0341882
0.0328194
0.0314668
0.028532
0.0260292
0.0414558
0.041441
0.040804
0.0401746
0.0394386
0.0387082
0.0379679
0.0372273
0.0364501
0.0356465
0.0347175
0.033739
0.0323956
0.0310254
0.0286248
0.02651
0.0420303
0.0418904
0.0410027
0.0401877
0.0393372
0.0385346
0.0377599
0.0369906
0.0361828
0.0353353
0.0343665
0.0333243
0.0319878
0.030585
0.0285067
0.0265824
0.0431131
0.0425025
0.0412247
0.0401449
0.0391858
0.0383348
0.0375564
0.0367927
0.0359893
0.0351346
0.0341636
0.0331087
0.0318154
0.03044
0.0286094
0.0268333
0.0450285
0.0432745
0.0415435
0.0400968
0.0390573
0.0381765
0.0373982
0.0366348
0.0358402
0.0349866
0.0340191
0.0329616
0.0317005
0.0303497
0.02867
0.0269823
0.0491861
0.0435625
0.0416182
0.0399502
0.0389354
0.038094
0.0373592
0.0366286
0.0358658
0.0350381
0.0340943
0.0330565
0.0318193
0.0304809
0.0288265
0.0271216
0.0408949
0.0409176
0.0405966
0.0402228
0.0397221
0.0391947
0.0386425
0.038109
0.0375663
0.0370776
0.0364877
0.0360246
0.0349626
0.0341738
0.0300729
0.0257524
0.0409166
0.0409402
0.0405765
0.0401644
0.0396191
0.0390453
0.0384444
0.0378517
0.0372378
0.0366518
0.0359541
0.0353306
0.0341824
0.0332532
0.029914
0.0272005
0.0410584
0.0410773
0.0406229
0.0401382
0.0395265
0.0388923
0.0382329
0.0375742
0.0368805
0.0361795
0.0353426
0.0344903
0.0331413
0.0318088
0.0287111
0.0260428
0.0413712
0.0413551
0.0407391
0.0401338
0.0394301
0.0387333
0.0380282
0.0373243
0.0365829
0.0358175
0.0349217
0.0339792
0.0326429
0.031278
0.0287616
0.0265361
0.0419422
0.0418012
0.0409342
0.0401426
0.0393226
0.0385522
0.0378097
0.0370723
0.0362945
0.0354771
0.0345323
0.0335135
0.0321766
0.03077
0.0286092
0.0266085
0.0430225
0.042411
0.041154
0.0400971
0.0391676
0.0383463
0.0375993
0.0368659
0.0360885
0.0352593
0.0343076
0.0332699
0.031975
0.0305938
0.028706
0.0268746
0.0449373
0.0431832
0.0414733
0.0400492
0.0390382
0.0381859
0.0374357
0.0366999
0.0359304
0.0350995
0.0341486
0.0331048
0.031842
0.0304852
0.0287641
0.0270334
0.0490949
0.0434726
0.0415494
0.0399043
0.0389183
0.038106
0.0373993
0.0366971
0.035961
0.0351571
0.0342316
0.0332092
0.0319727
0.0306297
0.0289372
0.0271881
0.0408465
0.040868
0.0405629
0.0402089
0.0397361
0.0392407
0.0387244
0.0382295
0.0377264
0.0372776
0.0367189
0.0362722
0.035178
0.0342857
0.0298959
0.025188
0.0408645
0.0408871
0.040539
0.0401458
0.0396267
0.0390831
0.0385152
0.0379574
0.0373783
0.036827
0.0361546
0.0355459
0.0343682
0.0333655
0.0298069
0.0268224
0.0410026
0.0410205
0.0405814
0.0401154
0.0395285
0.0389218
0.0382926
0.0376649
0.0370007
0.0363283
0.03551
0.0346678
0.03329
0.0319016
0.028634
0.0257834
0.0413121
0.041295
0.040694
0.0401065
0.0394273
0.0387566
0.038079
0.037403
0.0366875
0.0359464
0.0350662
0.0341327
0.0327754
0.0313731
0.028741
0.0263989
0.0418803
0.0417384
0.0408862
0.0401119
0.039315
0.0385697
0.0378526
0.0371401
0.0363848
0.0355881
0.0346562
0.033645
0.0322929
0.0308609
0.0286214
0.0265445
0.0429586
0.0423465
0.0411042
0.0400643
0.0391572
0.0383593
0.0376372
0.0369276
0.0361705
0.0353601
0.0344204
0.0333903
0.0320856
0.0306873
0.0287454
0.0268602
0.0448729
0.0431188
0.0414239
0.0400167
0.0390272
0.038197
0.0374695
0.0367562
0.0360066
0.0351932
0.034254
0.0332179
0.031949
0.0305802
0.0288201
0.0270484
0.0490306
0.0434092
0.0415012
0.0398731
0.0389091
0.0381197
0.0374356
0.0367564
0.0360419
0.035257
0.0343451
0.0333325
0.0320928
0.0307401
0.0290117
0.0272212
0.0408155
0.0408362
0.0405429
0.0402041
0.0397534
0.0392844
0.0387987
0.0383387
0.0378739
0.0374678
0.0369523
0.0365472
0.0354731
0.0345639
0.0300214
0.025042
0.0408304
0.0408523
0.0405156
0.0401369
0.0396383
0.0391194
0.0385795
0.0380528
0.0375067
0.0369913
0.0363527
0.0357758
0.034605
0.0335842
0.0298932
0.0267244
0.0409655
0.0409826
0.0405548
0.0401028
0.0395353
0.0389509
0.0383471
0.0377465
0.0371102
0.0364668
0.0356734
0.0348534
0.0334733
0.0320653
0.0286878
0.0257048
0.0412721
0.0412544
0.0406643
0.0400902
0.03943
0.0387802
0.0381254
0.0374735
0.0367818
0.0360647
0.0352039
0.0342868
0.0329255
0.0315074
0.0287962
0.0263652
0.0418382
0.0416957
0.0408541
0.0400928
0.0393135
0.0385882
0.0378921
0.0372007
0.0364658
0.0356891
0.0347724
0.0337735
0.0324175
0.0309735
0.0286785
0.0265411
0.0429149
0.0423024
0.0410707
0.0400434
0.0391534
0.0383742
0.0376721
0.0369821
0.0362434
0.0354505
0.034524
0.0335042
0.0321969
0.0307895
0.0288081
0.0268792
0.0448288
0.0430748
0.0413906
0.0399957
0.0390227
0.0382094
0.0375008
0.0368066
0.0360739
0.0352766
0.0343493
0.0333224
0.0320521
0.0306765
0.0288873
0.0270816
0.0489865
0.0433658
0.0414687
0.0398533
0.038906
0.0381344
0.0374687
0.0368087
0.0361129
0.0353449
0.0344462
0.0334441
0.0322047
0.0308464
0.0290907
0.0272657
0.0407962
0.0408162
0.040531
0.0402028
0.0397677
0.039317
0.0388521
0.0384143
0.0379722
0.0375872
0.0370867
0.036685
0.0355878
0.0346168
0.0299275
0.0247424
0.0408087
0.0408301
0.0405013
0.0401326
0.0396485
0.0391468
0.0386259
0.0381194
0.0375933
0.0370964
0.0364699
0.0358961
0.0347037
0.0336348
0.0298277
0.0265214
0.0409415
0.0409582
0.040538
0.0400958
0.0395419
0.0389731
0.0383869
0.0378044
0.0371854
0.0365578
0.0357741
0.0349567
0.0335581
0.0321137
0.0286459
0.0255632
0.0412461
0.0412279
0.0406453
0.0400805
0.0394337
0.0387987
0.0381598
0.0375242
0.0368478
0.0361447
0.0352923
0.0343781
0.033003
0.0315593
0.0287841
0.0262851
0.0418105
0.0416677
0.0408333
0.040081
0.0393142
0.0386032
0.0379218
0.037245
0.0365238
0.0357593
0.0348503
0.0338548
0.0324893
0.031028
0.0286884
0.0265041
0.0428861
0.0422733
0.0410488
0.0400304
0.0391524
0.0383867
0.0376988
0.0370225
0.0362965
0.0355151
0.0345961
0.0335804
0.032267
0.0308477
0.0288345
0.0268711
0.0447997
0.0430457
0.0413688
0.0399827
0.0390213
0.03822
0.037525
0.0368447
0.0361239
0.0353375
0.0344177
0.0333954
0.0321215
0.0307376
0.0289248
0.027092
0.0489574
0.0433373
0.0414476
0.0398412
0.0389057
0.0381469
0.0374945
0.0368485
0.0361659
0.0354098
0.0345197
0.0335235
0.032282
0.0309167
0.0291388
0.0272864
0.0407854
0.0408051
0.0405252
0.0402041
0.0397794
0.0393413
0.0388911
0.0384699
0.0380453
0.0376784
0.0371941
0.0368035
0.0357035
0.0347067
0.0299358
0.0246134
0.0407963
0.0408174
0.0404937
0.0401316
0.0396572
0.0391674
0.03866
0.0381682
0.0376574
0.037176
0.0365624
0.0359972
0.0347996
0.0337091
0.0298348
0.0264391
0.0409276
0.040944
0.0405287
0.0400931
0.0395482
0.0389901
0.0384161
0.0378467
0.0372408
0.0366263
0.0358527
0.0350419
0.0336375
0.032176
0.028655
0.0255065
0.0412308
0.0412123
0.0406344
0.0400758
0.0394379
0.0388129
0.0381851
0.0375611
0.0368961
0.0362041
0.0353599
0.0344512
0.0330712
0.0316149
0.028801
0.0262568
0.0417941
0.041651
0.0408212
0.0400749
0.0393163
0.0386149
0.0379436
0.0372771
0.0365659
0.035811
0.0349089
0.0339181
0.0325493
0.0310793
0.0287124
0.0264967
0.0428689
0.042256
0.041036
0.0400233
0.0391533
0.0383965
0.0377183
0.0370517
0.0363349
0.0355621
0.0346494
0.0336381
0.0323227
0.0308972
0.0288642
0.0268774
0.0447822
0.0430282
0.0413561
0.0399756
0.0390217
0.0382285
0.0375428
0.036872
0.0361597
0.0353815
0.0344677
0.0334497
0.0321747
0.0307863
0.0289586
0.0271074
0.0489399
0.0433202
0.0414352
0.0398346
0.0389069
0.0381566
0.0375133
0.0368768
0.0362036
0.0354561
0.0345727
0.0335815
0.0323397
0.0309705
0.0291784
0.0273075