/*--------------------------------*- C++ -*----------------------------------*\
| =========                 |                                                 |
| \\      /  F ield         | OpenFOAM: The Open Source CFD Toolbox           |
|  \\    /   O peration     | Version:  v1912                                 |
|   \\  /    A nd           | Website:  www.openfoam.com                      |
|    \\/     M anipulation  |                                                 |
\*---------------------------------------------------------------------------*/
FoamFile
{
    version     2.0;
    format      ascii;
    class       surfaceScalarField;
    location    "0.86/fluid";
    object      phi;
}
// * * * * * * * * * * * * * * * * * * * * * * * * * * * * * * * * * * * * * //

dimensions      [0 3 -1 0 0 0 0];
oriented        oriented;


internalField   nonuniform List<scalar> 
41600
(
5.00632e-05
1.26307e-05
3.33236e-07
-5.27122e-07
3.98173e-05
1.05989e-05
5.84664e-07
-9.37641e-07
3.2124e-05
8.08027e-06
5.10807e-07
-8.978e-07
2.72675e-05
5.20021e-06
1.69901e-07
-5.1356e-07
2.43213e-05
3.20479e-06
-3.96267e-07
1.37647e-07
2.25655e-05
1.92003e-06
-1.12689e-06
9.6268e-07
2.14398e-05
1.20004e-06
-2.01098e-06
1.93664e-06
2.05977e-05
8.29291e-07
-3.07016e-06
3.08294e-06
1.98327e-05
6.60747e-07
-4.36422e-06
4.46853e-06
1.90176e-05
5.80441e-07
-5.97586e-06
6.21045e-06
1.80748e-05
5.16927e-07
-8.05347e-06
8.47932e-06
1.68845e-05
3.64759e-07
-1.07122e-05
1.15379e-05
1.52858e-05
1.03599e-07
-1.43191e-05
1.58142e-05
1.27657e-05
-6.09618e-07
-1.84802e-05
2.16099e-05
8.09383e-06
-1.17079e-06
-2.32101e-05
2.90528e-05
-3.57807e-06
-1.86634e-05
3.03353e-05
6.47719e-05
1.06332e-05
4.70836e-07
-7.45265e-07
6.34126e-05
1.24983e-05
8.81044e-07
-1.42108e-06
6.07979e-05
1.13498e-05
8.6462e-07
-1.51942e-06
5.79402e-05
8.70619e-06
4.15852e-07
-1.06413e-06
5.54274e-05
6.26921e-06
-4.60054e-07
-9.15988e-08
5.33732e-05
4.38283e-06
-1.69814e-06
1.28959e-06
5.16587e-05
3.16635e-06
-3.26932e-06
3.01742e-06
5.00904e-05
2.49019e-06
-5.19398e-06
5.10147e-06
4.84763e-05
2.20113e-06
-7.55947e-06
7.63312e-06
4.66217e-05
2.1456e-06
-1.05089e-05
1.07984e-05
4.43373e-05
2.20443e-06
-1.42849e-05
1.48817e-05
4.12762e-05
2.23119e-06
-1.9125e-05
2.03197e-05
3.69938e-05
2.16217e-06
-2.55238e-05
2.77476e-05
3.02061e-05
1.53639e-06
-3.29041e-05
3.75458e-05
1.9623e-05
6.33578e-07
-4.01938e-05
4.89725e-05
-2.54161e-06
-3.13738e-05
4.99603e-05
6.63708e-05
7.05911e-06
5.23271e-07
-8.20019e-07
6.87847e-05
1.06853e-05
9.988e-07
-1.5998e-06
6.98501e-05
1.10318e-05
1.01964e-06
-1.76701e-06
6.97745e-05
9.54269e-06
5.69887e-07
-1.33077e-06
6.90537e-05
7.66116e-06
-3.53769e-07
-3.17408e-07
6.79772e-05
5.9809e-06
-1.69712e-06
1.17562e-06
6.66844e-05
4.80724e-06
-3.43484e-06
3.08668e-06
6.51814e-05
4.15957e-06
-5.58951e-06
5.42319e-06
6.33905e-05
3.9666e-06
-8.25221e-06
8.27763e-06
6.11511e-05
4.11554e-06
-1.15816e-05
1.18511e-05
5.82353e-05
4.50531e-06
-1.58401e-05
1.64549e-05
5.41915e-05
4.99998e-06
-2.13155e-05
2.25906e-05
4.84063e-05
5.5216e-06
-2.85319e-05
3.09577e-05
3.9236e-05
5.5536e-06
-3.69865e-05
4.21396e-05
2.51056e-05
4.82779e-06
-4.53308e-05
5.5267e-05
7.92763e-07
-3.5829e-05
5.76002e-05
6.53114e-05
4.54753e-06
5.47533e-07
-8.47334e-07
6.84916e-05
8.12278e-06
1.05916e-06
-1.67682e-06
7.10354e-05
9.26221e-06
1.10454e-06
-1.87876e-06
7.25388e-05
8.83256e-06
6.69746e-07
-1.46301e-06
7.3136e-05
7.76979e-06
-2.42677e-07
-4.63157e-07
7.30169e-05
6.656e-06
-1.5786e-06
1.02258e-06
7.23533e-05
5.85132e-06
-3.31438e-06
2.9339e-06
7.12262e-05
5.48139e-06
-5.47482e-06
5.28008e-06
6.96256e-05
5.56509e-06
-8.15073e-06
8.15291e-06
6.74261e-05
6.06268e-06
-1.15053e-05
1.17576e-05
6.43937e-05
6.93009e-06
-1.58016e-05
1.64093e-05
6.00241e-05
8.08149e-06
-2.13546e-05
2.26427e-05
5.35985e-05
9.46066e-06
-2.86949e-05
3.11814e-05
4.32971e-05
1.05017e-05
-3.74233e-05
4.27766e-05
2.73145e-05
1.03782e-05
-4.61723e-05
5.66046e-05
5.00416e-06
-3.69573e-05
6.00603e-05
6.43725e-05
2.97203e-06
5.67598e-07
-8.64608e-07
6.72304e-05
5.88265e-06
1.10931e-06
-1.72706e-06
7.0019e-05
7.24968e-06
1.18096e-06
-1.95706e-06
7.2152e-05
7.49451e-06
7.69932e-07
-1.56486e-06
7.34887e-05
7.13976e-06
-1.13185e-07
-5.93549e-07
7.40645e-05
6.63754e-06
-1.40858e-06
8.51247e-07
7.39859e-05
6.31353e-06
-3.08887e-06
2.70526e-06
7.33284e-05
6.3395e-06
-5.17653e-06
4.97593e-06
7.2102e-05
6.79862e-06
-7.75696e-06
7.74988e-06
7.02013e-05
7.72506e-06
-1.09913e-05
1.12295e-05
6.7397e-05
9.14612e-06
-1.51314e-05
1.57197e-05
6.31506e-05
1.10652e-05
-2.05094e-05
2.17721e-05
5.66503e-05
1.34999e-05
-2.7641e-05
3.01021e-05
4.58738e-05
1.59158e-05
-3.62652e-05
4.16277e-05
2.8674e-05
1.70459e-05
-4.50312e-05
5.55634e-05
1.01683e-05
-3.64514e-05
5.99612e-05
6.38204e-05
1.94507e-06
5.87622e-07
-8.81041e-07
6.62339e-05
4.08248e-06
1.1598e-06
-1.77315e-06
6.88951e-05
5.35957e-06
1.26341e-06
-2.03447e-06
7.12302e-05
5.94811e-06
8.85591e-07
-1.67429e-06
7.29617e-05
6.10775e-06
4.35224e-08
-7.43089e-07
7.40103e-05
6.13998e-06
-1.19587e-06
6.44879e-07
7.44075e-05
6.2966e-06
-2.79844e-06
2.41816e-06
7.41977e-05
6.75141e-06
-4.78065e-06
4.57857e-06
7.33879e-05
7.62347e-06
-7.21833e-06
7.2032e-06
7.18797e-05
9.0128e-06
-1.02658e-05
1.04863e-05
6.9447e-05
1.10218e-05
-1.41562e-05
1.47132e-05
6.55205e-05
1.3782e-05
-1.92336e-05
2.04432e-05
5.9209e-05
1.74313e-05
-2.59806e-05
2.83606e-05
4.82597e-05
2.16114e-05
-3.43109e-05
3.95646e-05
3.01188e-05
2.47906e-05
-4.28881e-05
5.32844e-05
1.68073e-05
-3.52669e-05
5.87466e-05
6.35625e-05
1.17331e-06
6.10929e-07
-9.01649e-07
6.56864e-05
2.56782e-06
1.21708e-06
-1.82633e-06
6.82089e-05
3.60313e-06
1.3592e-06
-2.1253e-06
7.06166e-05
4.32343e-06
1.02412e-06
-1.80713e-06
7.25846e-05
4.83349e-06
2.34162e-07
-9.27885e-07
7.3974e-05
5.29752e-06
-9.35975e-07
3.89096e-07
7.47699e-05
5.88067e-06
-2.44255e-06
2.06251e-06
7.49992e-05
6.73074e-06
-4.29103e-06
4.0824e-06
7.46786e-05
7.97678e-06
-6.54007e-06
6.50742e-06
7.37399e-05
9.76835e-06
-9.32526e-06
9.50835e-06
7.20058e-05
1.2271e-05
-1.28401e-05
1.3325e-05
6.89428e-05
1.57786e-05
-1.74117e-05
1.84781e-05
6.36683e-05
2.06001e-05
-2.34271e-05
2.55328e-05
5.35298e-05
2.70261e-05
-3.09827e-05
3.57066e-05
3.5186e-05
3.37579e-05
-3.86468e-05
4.80234e-05
2.99342e-05
-3.23734e-05
5.44324e-05
6.34689e-05
6.37178e-07
-9.26673e-07
4.93911e-07
6.54791e-05
1.28057e-06
-1.88792e-06
1.16499e-06
6.79614e-05
1.46564e-06
-2.22956e-06
1.8847e-06
7.04425e-05
1.17964e-06
-1.96042e-06
2.62314e-06
7.25864e-05
4.49029e-07
-1.1411e-06
3.38161e-06
7.42323e-05
-6.44471e-07
9.70277e-08
4.19906e-06
7.53474e-05
-2.0466e-06
1.66228e-06
5.14996e-06
7.59556e-05
-3.75009e-06
3.53059e-06
6.34199e-06
7.60881e-05
-5.79409e-06
5.73968e-06
7.89872e-06
7.57082e-05
-8.29164e-06
8.43256e-06
1.00073e-05
7.46883e-05
-1.13936e-05
1.18007e-05
1.28838e-05
7.2548e-05
-1.54014e-05
1.63153e-05
1.70051e-05
6.84864e-05
-2.06033e-05
2.24241e-05
2.28408e-05
5.96031e-05
-2.73008e-05
3.14738e-05
3.17362e-05
4.22858e-05
-3.40643e-05
4.24153e-05
4.27242e-05
-3.00443e-05
5.09053e-05
5.1359e-05
4.99978e-05
1.26368e-05
1.98639e-07
3.96273e-05
1.06174e-05
3.37735e-07
3.17962e-05
8.10233e-06
2.39564e-07
2.68114e-05
5.2196e-06
-6.49188e-08
2.37464e-05
3.22302e-06
-5.54282e-07
2.18686e-05
1.94049e-06
-1.18954e-06
2.05988e-05
1.22785e-06
-1.969e-06
1.95718e-05
8.68168e-07
-2.9114e-06
1.85606e-05
7.14393e-07
-4.06739e-06
1.74215e-05
6.52256e-07
-5.48896e-06
1.60466e-05
6.15055e-07
-7.29367e-06
1.43236e-05
5.00363e-07
-9.48963e-06
1.20374e-05
3.01392e-07
-1.23343e-05
8.96577e-06
-3.16085e-07
-1.50925e-05
4.17493e-06
-8.82084e-07
-1.75372e-05
-2.7534e-06
-1.17351e-05
6.46798e-05
1.06476e-05
2.80159e-07
6.314e-05
1.25341e-05
5.04208e-07
6.02991e-05
1.13999e-05
4.07939e-07
5.71999e-05
8.76105e-06
-2.64814e-08
5.4442e-05
6.32829e-06
-8.07338e-07
5.21304e-05
4.45139e-06
-1.89753e-06
5.01222e-05
3.25454e-06
-3.28773e-06
4.81902e-05
2.60837e-06
-5.00222e-06
4.61026e-05
2.36044e-06
-7.11794e-06
4.3625e-05
2.35568e-06
-9.73474e-06
4.05145e-05
2.48036e-06
-1.30396e-05
3.6419e-05
2.58198e-06
-1.71112e-05
3.08506e-05
2.60481e-06
-2.22588e-05
2.2998e-05
2.054e-06
-2.74215e-05
1.20344e-05
1.0819e-06
-3.11941e-05
-2.00618e-06
-2.00866e-05
6.62779e-05
7.07716e-06
3.15804e-07
6.8503e-05
1.07302e-05
5.77644e-07
6.93255e-05
1.11011e-05
4.96018e-07
6.89808e-05
9.62892e-06
4.66865e-08
6.79773e-05
7.76363e-06
-7.85637e-07
6.65989e-05
6.10622e-06
-1.97352e-06
6.4962e-05
4.96932e-06
-3.51272e-06
6.30377e-05
4.37542e-06
-5.43226e-06
6.07032e-05
4.25677e-06
-7.81407e-06
5.77498e-05
4.50033e-06
-1.07728e-05
5.38865e-05
5.01282e-06
-1.45092e-05
4.86458e-05
5.64657e-06
-1.91395e-05
4.13623e-05
6.33251e-06
-2.49761e-05
3.09105e-05
6.46455e-06
-3.09452e-05
1.6296e-05
5.6485e-06
-3.52829e-05
1.16968e-06
-2.27089e-05
6.5221e-05
4.56718e-06
3.36513e-07
6.82142e-05
8.17237e-06
6.23748e-07
7.05175e-05
9.34405e-06
5.58345e-07
7.17535e-05
8.9435e-06
1.19104e-07
7.20681e-05
7.91103e-06
-7.04635e-07
7.16455e-05
6.83607e-06
-1.88588e-06
7.06353e-05
6.08747e-06
-3.42232e-06
6.90844e-05
5.79716e-06
-5.3456e-06
6.69366e-05
5.99153e-06
-7.73775e-06
6.40158e-05
6.6342e-06
-1.07183e-05
6.00195e-05
7.69462e-06
-1.44871e-05
5.44192e-05
9.07479e-06
-1.91826e-05
4.64317e-05
1.07379e-05
-2.51128e-05
3.47598e-05
1.19745e-05
-3.12614e-05
1.82038e-05
1.18246e-05
-3.57923e-05
5.50937e-06
-2.30932e-05
6.42843e-05
2.99348e-06
3.56997e-07
6.69583e-05
5.93704e-06
6.70652e-07
6.95124e-05
7.34239e-06
6.28529e-07
7.13876e-05
7.62659e-06
2.11606e-07
7.24546e-05
7.31507e-06
-5.84171e-07
7.27425e-05
6.86679e-06
-1.72723e-06
7.23359e-05
6.61731e-06
-3.21212e-06
7.12773e-05
6.74771e-06
-5.06844e-06
6.95318e-05
7.35317e-06
-7.37312e-06
6.69425e-05
8.47676e-06
-1.02446e-05
6.32099e-05
1.01683e-05
-1.38724e-05
5.77618e-05
1.24247e-05
-1.84112e-05
4.97065e-05
1.53047e-05
-2.41525e-05
3.75196e-05
1.8085e-05
-3.01888e-05
1.962e-05
1.9376e-05
-3.46831e-05
1.10723e-05
-2.23944e-05
6.37338e-05
1.96912e-06
3.78157e-07
6.59669e-05
4.14265e-06
7.21105e-07
6.84005e-05
5.4628e-06
7.09445e-07
7.04894e-05
6.09859e-06
3.24636e-07
7.1968e-05
6.31185e-06
-4.31794e-07
7.27503e-05
6.41076e-06
-1.52218e-06
7.28463e-05
6.65802e-06
-2.93514e-06
7.22686e-05
7.23952e-06
-4.69479e-06
7.09816e-05
8.291e-06
-6.86921e-06
6.88358e-05
9.92849e-06
-9.57171e-06
6.55351e-05
1.2288e-05
-1.29753e-05
6.04674e-05
1.55075e-05
-1.72487e-05
5.26489e-05
1.97969e-05
-2.26542e-05
4.02828e-05
2.4577e-05
-2.84369e-05
2.13046e-05
2.82467e-05
-3.27807e-05
1.83731e-05
-2.1263e-05
6.34778e-05
1.20022e-06
4.02021e-07
6.54256e-05
2.63381e-06
7.7811e-07
6.77285e-05
3.7156e-06
8.03485e-07
6.99032e-05
4.48845e-06
4.59603e-07
7.16374e-05
5.05916e-06
-2.47361e-07
7.27865e-05
5.59881e-06
-1.27311e-06
7.33158e-05
6.28392e-06
-2.59778e-06
7.32236e-05
7.27651e-06
-4.2358e-06
7.24891e-05
8.72585e-06
-6.24037e-06
7.09988e-05
1.08045e-05
-8.711e-06
6.85145e-05
1.37212e-05
-1.1789e-05
6.44558e-05
1.77958e-05
-1.56412e-05
5.78488e-05
2.34385e-05
-2.04617e-05
4.63955e-05
3.07383e-05
-2.56907e-05
2.71053e-05
3.84033e-05
-2.95131e-05
3.23572e-05
-1.92522e-05
6.33863e-05
4.27826e-07
5.23307e-07
6.52252e-05
8.39812e-07
1.23562e-06
6.74968e-05
9.06223e-07
2.00344e-06
6.97589e-05
6.08889e-07
2.79712e-06
7.16891e-05
-4.21028e-08
3.62008e-06
7.31217e-05
-9.96424e-07
4.51813e-06
7.40068e-05
-2.22488e-06
5.57713e-06
7.43433e-05
-3.73052e-06
6.92043e-06
7.41305e-05
-5.54969e-06
8.69425e-06
7.32927e-05
-7.76477e-06
1.11154e-05
7.16527e-05
-1.04823e-05
1.445e-05
6.86813e-05
-1.38615e-05
1.92273e-05
6.35019e-05
-1.80238e-05
2.60383e-05
5.34668e-05
-2.26338e-05
3.61065e-05
3.52105e-05
-2.59529e-05
4.85481e-05
-1.76339e-05
5.51573e-05
4.99477e-05
1.26427e-05
1.08173e-07
3.94789e-05
1.06343e-05
1.72348e-07
3.15315e-05
8.12316e-06
6.37842e-08
2.64292e-05
5.23926e-06
-2.01959e-07
2.32476e-05
3.24171e-06
-6.14328e-07
2.12451e-05
1.96107e-06
-1.14811e-06
1.98273e-05
1.25466e-06
-1.80584e-06
1.86123e-05
9.0434e-07
-2.60072e-06
1.7352e-05
7.62969e-07
-3.57014e-06
1.58853e-05
7.15676e-07
-4.73788e-06
1.40757e-05
6.98524e-07
-6.18262e-06
1.18246e-05
6.10744e-07
-7.84927e-06
8.93447e-06
4.47134e-07
-9.89128e-06
5.55261e-06
-1.1383e-07
-1.15968e-05
1.43569e-06
-7.5723e-07
-1.2663e-05
-2.41076e-06
-7.88862e-06
6.46088e-05
1.06623e-05
1.51868e-07
6.29261e-05
1.25687e-05
2.52415e-07
5.98959e-05
1.1449e-05
1.12252e-07
5.65814e-05
8.81686e-06
-2.89591e-07
5.35921e-05
6.38915e-06
-9.65455e-07
5.10283e-05
4.52127e-06
-1.89393e-06
4.87285e-05
3.34232e-06
-3.07554e-06
4.64387e-05
2.72336e-06
-4.53149e-06
4.38919e-05
2.51314e-06
-6.32131e-06
4.08211e-05
2.55513e-06
-8.50338e-06
3.69423e-05
2.74008e-06
-1.12023e-05
3.19273e-05
2.90898e-06
-1.43944e-05
2.53415e-05
3.0079e-06
-1.82339e-05
1.69557e-05
2.51015e-06
-2.16597e-05
6.87694e-06
1.43772e-06
-2.33103e-05
-1.70344e-06
-1.3917e-05
6.62067e-05
7.09622e-06
1.75152e-07
6.8283e-05
1.07753e-05
2.9478e-07
6.89028e-05
1.11706e-05
1.54638e-07
6.83198e-05
9.71656e-06
-2.70001e-07
6.70524e-05
7.86791e-06
-9.96949e-07
6.53809e-05
6.23225e-06
-2.01309e-06
6.34055e-05
5.12931e-06
-3.32423e-06
6.1069e-05
4.58479e-06
-4.95721e-06
5.821e-05
4.53479e-06
-6.97671e-06
5.45805e-05
4.86582e-06
-9.45401e-06
4.9842e-05
5.49158e-06
-1.25222e-05
4.35431e-05
6.25199e-06
-1.61836e-05
3.50694e-05
7.08393e-06
-2.05784e-05
2.3933e-05
7.2993e-06
-2.4598e-05
1.02084e-05
6.39611e-06
-2.65167e-05
1.5145e-06
-1.57184e-05
6.51523e-05
4.5883e-06
1.92138e-07
6.79991e-05
8.22326e-06
3.28981e-07
7.01026e-05
9.4267e-06
1.98758e-07
7.11025e-05
9.0554e-06
-2.19676e-07
7.11536e-05
8.05263e-06
-9.40466e-07
7.04369e-05
7.01439e-06
-1.95128e-06
6.90858e-05
6.31791e-06
-3.25984e-06
6.71196e-05
6.10111e-06
-4.89577e-06
6.4443e-05
6.39779e-06
-6.9241e-06
6.08371e-05
7.17417e-06
-9.42078e-06
5.5947e-05
8.41197e-06
-1.25174e-05
4.92508e-05
9.99923e-06
-1.62335e-05
4.0005e-05
1.19165e-05
-2.06996e-05
2.75591e-05
1.33248e-05
-2.4841e-05
1.18332e-05
1.31714e-05
-2.68417e-05
6.1222e-06
-1.58678e-05
6.42178e-05
3.0162e-06
2.11269e-07
6.67488e-05
5.9925e-06
3.704e-07
6.91091e-05
7.4352e-06
2.59816e-07
7.07572e-05
7.7578e-06
-1.38909e-07
7.15723e-05
7.48783e-06
-8.34533e-07
7.15803e-05
7.0905e-06
-1.81134e-06
7.085e-05
6.91061e-06
-3.07448e-06
6.93967e-05
7.13792e-06
-4.652e-06
6.7147e-05
7.87913e-06
-6.60467e-06
6.39e-05
9.1847e-06
-9.00813e-06
5.93e-05
1.1125e-05
-1.19854e-05
5.27712e-05
1.36874e-05
-1.55706e-05
4.34463e-05
1.69686e-05
-1.98797e-05
3.04315e-05
2.00749e-05
-2.3924e-05
1.32494e-05
2.15541e-05
-2.58836e-05
1.22205e-05
-1.52432e-05
6.36691e-05
1.99373e-06
2.31552e-07
6.57628e-05
4.20267e-06
4.17204e-07
6.80092e-05
5.56433e-06
3.3394e-07
6.98819e-05
6.24538e-06
-3.56392e-08
7.11238e-05
6.50973e-06
-6.95627e-07
7.1646e-05
6.67167e-06
-1.62553e-06
7.1443e-05
7.00384e-06
-2.8254e-06
7.05015e-05
7.70348e-06
-4.3188e-06
6.87483e-05
8.92209e-06
-6.15901e-06
6.59901e-05
1.07895e-05
-8.41831e-06
6.18731e-05
1.34732e-05
-1.12065e-05
5.57715e-05
1.71123e-05
-1.45721e-05
4.67105e-05
2.1985e-05
-1.86096e-05
3.34896e-05
2.73157e-05
-2.24569e-05
1.50839e-05
3.15062e-05
-2.43271e-05
2.03769e-05
-1.43356e-05
6.34149e-05
1.22671e-06
2.54098e-07
6.52276e-05
2.69793e-06
4.70147e-07
6.7351e-05
3.824e-06
4.2043e-07
6.93215e-05
4.64659e-06
8.78688e-08
7.08368e-05
5.27491e-06
-5.27756e-07
7.17498e-05
5.88607e-06
-1.40052e-06
7.20121e-05
6.66706e-06
-2.52332e-06
7.15985e-05
7.7933e-06
-3.912e-06
7.0455e-05
9.43318e-06
-5.60798e-06
6.84282e-05
1.17798e-05
-7.67437e-06
6.52279e-05
1.50827e-05
-1.01982e-05
6.02524e-05
1.96814e-05
-1.32349e-05
5.25276e-05
2.60851e-05
-1.6837e-05
4.02649e-05
3.42025e-05
-2.03149e-05
2.13468e-05
4.2851e-05
-2.19398e-05
3.54832e-05
-1.30117e-05
6.33254e-05
2.77918e-07
5.51215e-07
6.5034e-05
5.26684e-07
1.30246e-06
6.71345e-05
5.1409e-07
2.11565e-06
6.92053e-05
2.23432e-07
2.96126e-06
7.09351e-05
-3.42292e-07
3.8453e-06
7.21572e-05
-1.15199e-06
4.81947e-06
7.28098e-05
-2.1908e-06
5.98043e-06
7.28716e-05
-3.46537e-06
7.46628e-06
7.23142e-05
-5.00367e-06
9.44465e-06
7.10271e-05
-6.85718e-06
1.21592e-05
6.87905e-05
-9.08776e-06
1.59247e-05
6.50495e-05
-1.17538e-05
2.13147e-05
5.89294e-05
-1.48645e-05
2.90459e-05
4.81888e-05
-1.79262e-05
4.02355e-05
3.02001e-05
-1.93404e-05
5.42273e-05
-1.1956e-05
6.00053e-05
4.99095e-05
1.26482e-05
5.04494e-08
3.9364e-05
1.0649e-05
6.88595e-08
3.13226e-05
8.14185e-06
-3.6644e-08
2.6122e-05
5.2575e-06
-2.58905e-07
2.28413e-05
3.25948e-06
-5.93103e-07
2.07354e-05
1.98102e-06
-1.02325e-06
1.92022e-05
1.28078e-06
-1.5534e-06
1.78537e-05
9.40048e-07
-2.19228e-06
1.64372e-05
8.12302e-07
-2.96589e-06
1.47963e-05
7.83543e-07
-3.88057e-06
1.28037e-05
7.9451e-07
-4.98449e-06
1.04023e-05
7.52064e-07
-6.19999e-06
7.45579e-06
6.60728e-07
-7.60545e-06
4.23829e-06
2.34564e-07
-8.61385e-06
8.04103e-07
-3.08413e-07
-8.92041e-06
-1.78332e-06
-5.3012e-06
6.45541e-05
1.06759e-05
7.01482e-08
6.27596e-05
1.26e-05
9.58837e-08
5.95764e-05
1.14938e-05
-5.6503e-08
5.60822e-05
8.86849e-06
-4.06367e-07
5.28959e-05
6.44608e-06
-9.65794e-07
5.01187e-05
4.58683e-06
-1.7225e-06
4.75808e-05
3.42424e-06
-2.6811e-06
4.50172e-05
2.83034e-06
-3.85822e-06
4.21492e-05
2.65591e-06
-5.29692e-06
3.8711e-05
2.74488e-06
-7.02653e-06
3.44303e-05
2.99519e-06
-9.12227e-06
2.90502e-05
3.25039e-06
-1.15126e-05
2.22527e-05
3.47092e-06
-1.42465e-05
1.41172e-05
3.13186e-06
-1.64216e-05
5.19436e-06
2.17758e-06
-1.68735e-05
-9.42725e-07
-9.56328e-06
6.61521e-05
7.11435e-06
8.46265e-08
6.8112e-05
1.08171e-05
1.17697e-07
6.85683e-05
1.12348e-05
-4.2624e-08
6.77866e-05
9.79785e-06
-4.17642e-07
6.62946e-05
7.96486e-06
-1.02369e-06
6.43745e-05
6.34895e-06
-1.85512e-06
6.21197e-05
5.27616e-06
-2.92136e-06
5.94619e-05
4.77541e-06
-4.24452e-06
5.62265e-05
4.7869e-06
-5.87233e-06
5.2164e-05
5.19802e-06
-7.84461e-06
4.69473e-05
5.93115e-06
-1.02415e-05
4.02001e-05
6.82209e-06
-1.30082e-05
3.14417e-05
7.82319e-06
-1.61722e-05
2.05442e-05
8.20328e-06
-1.87719e-05
8.12535e-06
7.39548e-06
-1.93158e-05
2.2837e-06
-1.08195e-05
6.50999e-05
4.60862e-06
9.79308e-08
6.78328e-05
8.2711e-06
1.42176e-07
6.97754e-05
9.50352e-06
-1.26354e-08
7.05788e-05
9.15906e-06
-3.84249e-07
7.0406e-05
8.18334e-06
-9.86197e-07
6.94396e-05
7.17776e-06
-1.81371e-06
6.78072e-05
6.52682e-06
-2.87804e-06
6.5517e-05
6.3737e-06
-4.20392e-06
6.24607e-05
6.75882e-06
-5.83964e-06
5.84165e-05
7.65066e-06
-7.82927e-06
5.30396e-05
9.04203e-06
-1.02514e-05
4.58809e-05
1.08116e-05
-1.30643e-05
3.63305e-05
1.29585e-05
-1.62845e-05
2.41043e-05
1.45569e-05
-1.89685e-05
9.69453e-06
1.44982e-05
-1.95346e-05
6.97473e-06
-1.08643e-05
6.41675e-05
3.03793e-06
1.1446e-07
6.65878e-05
6.04453e-06
1.76619e-07
6.87925e-05
7.52114e-06
3.75657e-08
7.02518e-05
7.87852e-06
-3.17699e-07
7.08532e-05
7.64577e-06
-8.98404e-07
7.06238e-05
7.29321e-06
-1.69736e-06
6.96266e-05
7.17347e-06
-2.72392e-06
6.78667e-05
7.48336e-06
-4.00173e-06
6.52578e-05
8.33881e-06
-5.57578e-06
6.15959e-05
9.79484e-06
-7.49037e-06
5.65333e-05
1.19368e-05
-9.81761e-06
4.95619e-05
1.47403e-05
-1.2528e-05
3.99394e-05
1.8328e-05
-1.56267e-05
2.71265e-05
2.16804e-05
-1.82346e-05
1.12052e-05
2.33016e-05
-1.87658e-05
1.32916e-05
-1.03548e-05
6.36203e-05
2.01684e-06
1.32343e-07
6.56067e-05
4.25829e-06
2.17021e-07
6.77034e-05
5.65741e-06
1.01016e-07
6.93966e-05
6.37912e-06
-2.29501e-07
7.04379e-05
6.68876e-06
-7.79915e-07
7.07395e-05
6.90557e-06
-1.53942e-06
7.02904e-05
7.31049e-06
-2.51335e-06
6.90674e-05
8.1094e-06
-3.72184e-06
6.69857e-05
9.46556e-06
-5.20402e-06
6.38478e-05
1.15165e-05
-7.00212e-06
5.93071e-05
1.44495e-05
-9.17851e-06
5.27983e-05
1.83935e-05
-1.17165e-05
4.34611e-05
2.36628e-05
-1.46072e-05
3.04279e-05
2.9326e-05
-1.70693e-05
1.31928e-05
3.37634e-05
-1.75538e-05
2.18041e-05
-9.65534e-06
6.33678e-05
1.25102e-06
1.52089e-07
6.5077e-05
2.75636e-06
2.62864e-07
6.70573e-05
3.92217e-06
1.75403e-07
6.88589e-05
4.78913e-06
-1.23692e-07
7.01884e-05
5.46812e-06
-6.36624e-07
7.09006e-05
6.1412e-06
-1.34839e-06
7.09426e-05
7.00382e-06
-2.25865e-06
7.02804e-05
8.24126e-06
-3.38166e-06
6.88502e-05
1.00354e-05
-4.74761e-06
6.64951e-05
1.25903e-05
-6.39305e-06
6.29322e-05
1.61791e-05
-8.36486e-06
5.7611e-05
2.11361e-05
-1.06564e-05
4.96583e-05
2.80141e-05
-1.32356e-05
3.75754e-05
3.65519e-05
-1.54578e-05
1.9681e-05
4.5569e-05
-1.5851e-05
3.72506e-05
-8.77716e-06
6.328e-05
1.72664e-07
5.76226e-07
6.48893e-05
3.1144e-07
1.36232e-06
6.68541e-05
2.55566e-07
2.21594e-06
6.87671e-05
-7.99594e-09
3.10751e-06
7.03268e-05
-4.78886e-07
4.04505e-06
7.13691e-05
-1.13808e-06
5.08493e-06
7.18289e-05
-1.97894e-06
6.33225e-06
7.16777e-05
-3.00873e-06
7.93579e-06
7.08793e-05
-4.2475e-06
1.00776e-05
6.93212e-05
-5.72426e-06
1.30155e-05
6.67918e-05
-7.46889e-06
1.70897e-05
6.27788e-05
-9.48246e-06
2.28777e-05
5.64973e-05
-1.17105e-05
3.11417e-05
4.59462e-05
-1.36642e-05
4.28409e-05
2.88502e-05
-1.40114e-05
5.7336e-05
-8.09557e-06
6.22403e-05
4.988e-05
1.26528e-05
1.75796e-08
3.92752e-05
1.06611e-05
1.26254e-08
3.11588e-05
8.15727e-06
-7.75373e-08
2.58775e-05
5.27264e-06
-2.50175e-07
2.25132e-05
3.2743e-06
-5.0312e-07
2.03188e-05
1.99749e-06
-8.26387e-07
1.86871e-05
1.30199e-06
-1.22362e-06
1.72259e-05
9.686e-07
-1.69974e-06
1.56799e-05
8.51155e-07
-2.27108e-06
1.38981e-05
8.36071e-07
-2.93483e-06
1.17639e-05
8.67254e-07
-3.71756e-06
9.25495e-06
8.56479e-07
-4.54749e-06
6.29603e-06
8.14238e-07
-5.46077e-06
3.24986e-06
4.73883e-07
-6.04156e-06
3.73039e-07
-6.84367e-09
-6.03675e-06
-1.42741e-06
-3.50075e-06
6.45117e-05
1.06876e-05
2.36924e-08
6.26304e-05
1.26264e-05
1.18635e-08
5.93256e-05
1.15316e-05
-1.26006e-07
5.56849e-05
8.91245e-06
-4.05454e-07
5.23346e-05
6.49485e-06
-8.36049e-07
4.93773e-05
4.64294e-06
-1.41067e-06
4.66387e-05
3.49389e-06
-2.13435e-06
4.3847e-05
2.92064e-06
-3.01853e-06
4.07171e-05
2.77569e-06
-4.09163e-06
3.69885e-05
2.90325e-06
-5.36505e-06
3.24063e-05
3.20696e-06
-6.87976e-06
2.67767e-05
3.53189e-06
-8.55844e-06
1.98947e-05
3.84943e-06
-1.03997e-05
1.20587e-05
3.6304e-06
-1.17421e-05
4.11336e-06
2.75946e-06
-1.16944e-05
-4.18819e-07
-6.45852e-06
6.61098e-05
7.13018e-06
3.21659e-08
6.79795e-05
1.08532e-05
2.12808e-08
6.83058e-05
1.12898e-05
-1.27193e-07
6.73625e-05
9.86778e-06
-4.29603e-07
6.56839e-05
8.04841e-06
-8.98687e-07
6.35546e-05
6.44934e-06
-1.53225e-06
6.10646e-05
5.40181e-06
-2.33925e-06
5.81389e-05
4.9375e-06
-3.33569e-06
5.45959e-05
5.00016e-06
-4.5538e-06
5.01896e-05
5.47775e-06
-6.01283e-06
4.46117e-05
6.29967e-06
-7.75627e-06
3.75544e-05
7.29792e-06
-9.71689e-06
2.86665e-05
8.43722e-06
-1.18722e-05
1.80818e-05
8.94973e-06
-1.35066e-05
6.78125e-06
8.21706e-06
-1.34728e-05
2.88068e-06
-7.33776e-06
6.50596e-05
4.62657e-06
4.19291e-08
6.77043e-05
8.31276e-06
3.79122e-08
6.95193e-05
9.57003e-06
-1.07894e-07
7.01629e-05
9.24862e-06
-4.0871e-07
6.98043e-05
8.29609e-06
-8.75276e-07
6.8628e-05
7.3182e-06
-1.50622e-06
6.67584e-05
6.70545e-06
-2.31206e-06
6.41975e-05
6.60541e-06
-3.31099e-06
6.08299e-05
7.06402e-06
-4.53588e-06
5.64365e-05
8.05133e-06
-6.00941e-06
5.06898e-05
9.56891e-06
-7.77393e-06
4.32079e-05
1.14871e-05
-9.77162e-06
3.35115e-05
1.38195e-05
-1.19703e-05
2.1586e-05
1.55712e-05
-1.36645e-05
8.30972e-06
1.55912e-05
-1.36325e-05
7.68345e-06
-7.35735e-06
6.41289e-05
3.05714e-06
5.49802e-08
6.64639e-05
6.08996e-06
6.4401e-08
6.85455e-05
7.59564e-06
-6.96284e-08
6.98516e-05
7.98272e-06
-3.57896e-07
7.02756e-05
7.78167e-06
-8.07956e-07
6.98463e-05
7.46694e-06
-1.41679e-06
6.86238e-05
7.39764e-06
-2.19361e-06
6.6607e-05
7.77636e-06
-3.15596e-06
6.37031e-05
8.72657e-06
-4.33435e-06
5.97095e-05
1.03066e-05
-5.752e-06
5.42943e-05
1.26132e-05
-7.44682e-06
4.70122e-05
1.56116e-05
-9.37041e-06
3.72449e-05
1.94432e-05
-1.14831e-05
2.47154e-05
2.29913e-05
-1.31251e-05
9.88675e-06
2.4727e-05
-1.30729e-05
1.4206e-05
-6.99061e-06
6.35831e-05
2.03711e-06
6.93078e-08
6.54871e-05
4.30661e-06
9.63346e-08
6.74657e-05
5.73776e-06
-1.97594e-08
6.90136e-05
6.49406e-06
-2.8867e-07
6.98883e-05
6.84213e-06
-7.15057e-07
7.00038e-05
7.10524e-06
-1.29328e-06
6.93466e-05
7.57114e-06
-2.02963e-06
6.78875e-05
8.45277e-06
-2.93913e-06
6.55352e-05
9.92284e-06
-4.04804e-06
6.20935e-05
1.21246e-05
-5.37844e-06
5.72297e-05
1.52602e-05
-6.96166e-06
5.04354e-05
1.94489e-05
-8.75948e-06
4.09653e-05
2.50304e-05
-1.07243e-05
2.81986e-05
3.09554e-05
-1.22667e-05
1.1985e-05
3.55846e-05
-1.21978e-05
2.30305e-05
-6.49487e-06
6.33321e-05
1.27207e-06
8.5078e-08
6.49622e-05
2.80667e-06
1.32681e-07
6.68301e-05
4.0063e-06
3.89579e-08
6.84949e-05
4.91094e-06
-2.05382e-07
6.96702e-05
5.63286e-06
-6.02602e-07
7.02129e-05
6.35814e-06
-1.14398e-06
7.00678e-05
7.28926e-06
-1.83168e-06
6.9196e-05
8.61944e-06
-2.67655e-06
6.75284e-05
1.05415e-05
-3.69859e-06
6.4909e-05
1.32675e-05
-4.91659e-06
6.10678e-05
1.70886e-05
-6.35207e-06
5.55034e-05
2.2333e-05
-7.9762e-06
4.74448e-05
2.95837e-05
-9.73016e-06
3.56114e-05
3.8453e-05
-1.11221e-05
1.86243e-05
4.77566e-05
-1.10359e-05
3.88049e-05
-5.92723e-06
6.32458e-05
1.01376e-07
5.97579e-07
6.47796e-05
1.71024e-07
1.41329e-06
6.66381e-05
1.02084e-07
2.30121e-06
6.84238e-05
-1.14508e-07
3.23176e-06
6.98424e-05
-4.79067e-07
4.2145e-06
7.07326e-05
-9.79943e-07
5.30975e-06
7.1028e-05
-1.61464e-06
6.62959e-06
7.06963e-05
-2.38902e-06
8.33136e-06
6.96976e-05
-3.316e-06
1.06087e-05
6.79206e-05
-4.40979e-06
1.37301e-05
6.51665e-05
-5.68118e-06
1.80549e-05
6.09648e-05
-7.10932e-06
2.41616e-05
5.462e-05
-8.62565e-06
3.28436e-05
4.4314e-05
-9.84928e-06
4.49442e-05
2.80129e-05
-9.78579e-06
5.98321e-05
-5.49516e-06
6.42174e-05
4.98589e-05
1.26564e-05
2.26506e-09
3.92112e-05
1.06704e-05
-1.00512e-08
3.10398e-05
8.16919e-06
-7.53461e-08
2.56986e-05
5.28457e-06
-1.93606e-07
2.22728e-05
3.28619e-06
-3.63476e-07
2.00148e-05
2.01093e-06
-5.79362e-07
1.83155e-05
1.31949e-06
-8.43802e-07
1.67826e-05
9.92522e-07
-1.1593e-06
1.51623e-05
8.84367e-07
-1.53514e-06
1.33112e-05
8.82144e-07
-1.96595e-06
1.11257e-05
9.32697e-07
-2.46476e-06
8.60476e-06
9.5198e-07
-2.97848e-06
5.70873e-06
9.55925e-07
-3.52067e-06
2.80917e-06
6.87504e-07
-3.8295e-06
2.33018e-07
2.68322e-07
-3.72892e-06
-1.14152e-06
-2.12622e-06
6.44812e-05
1.06968e-05
2.16959e-09
6.25368e-05
1.2647e-05
-2.02919e-08
5.91424e-05
1.15611e-05
-1.23495e-07
5.53928e-05
8.94699e-06
-3.18251e-07
5.19204e-05
6.53341e-06
-6.1085e-07
4.88306e-05
4.68748e-06
-9.97442e-07
4.59484e-05
3.54922e-06
-1.48189e-06
4.30011e-05
2.99249e-06
-2.07121e-06
3.97047e-05
2.8714e-06
-2.7823e-06
3.58087e-05
3.03079e-06
-3.61769e-06
3.10793e-05
3.37928e-06
-4.59698e-06
2.53674e-05
3.76411e-06
-5.65858e-06
1.85412e-05
4.16624e-06
-6.7839e-06
1.09791e-05
4.05173e-06
-7.54424e-06
3.63428e-06
3.26297e-06
-7.34418e-06
1.32976e-08
-3.97906e-06
6.60794e-05
7.14277e-06
6.75452e-09
6.78834e-05
1.08816e-05
-1.72735e-08
6.8114e-05
1.13331e-05
-1.29841e-07
6.70503e-05
9.92288e-06
-3.41831e-07
6.52325e-05
8.11433e-06
-6.61845e-07
6.29485e-05
6.52846e-06
-1.0892e-06
6.02885e-05
5.50054e-06
-1.63053e-06
5.71769e-05
5.06446e-06
-2.29613e-06
5.34333e-05
5.16683e-06
-3.10555e-06
4.88214e-05
5.69631e-06
-4.06653e-06
4.30563e-05
6.58804e-06
-5.19987e-06
3.58808e-05
7.67216e-06
-6.4494e-06
2.70314e-05
8.92364e-06
-7.78025e-06
1.67512e-05
9.54859e-06
-8.72319e-06
6.15942e-06
8.8905e-06
-8.50855e-06
3.3724e-06
-4.53745e-06
6.50306e-05
4.64093e-06
1.31246e-08
6.76113e-05
8.34585e-06
-6.99652e-09
6.93324e-05
9.62257e-06
-1.18509e-07
6.98573e-05
9.31925e-06
-3.29899e-07
6.936e-05
8.38484e-06
-6.48538e-07
6.80282e-05
7.42836e-06
-1.07433e-06
6.5987e-05
6.84483e-06
-1.61509e-06
6.32379e-05
6.78513e-06
-2.28265e-06
5.96667e-05
7.29931e-06
-3.09712e-06
5.50638e-05
8.3585e-06
-4.06868e-06
4.91246e-05
9.97067e-06
-5.21738e-06
4.15179e-05
1.20004e-05
-6.4931e-06
3.18537e-05
1.44715e-05
-7.85412e-06
2.02314e-05
1.63421e-05
-8.83564e-06
7.677e-06
1.64285e-05
-8.61605e-06
8.23793e-06
-4.54588e-06
6.41013e-05
3.07251e-06
2.21214e-08
6.63745e-05
6.12604e-06
1.09388e-08
6.83658e-05
7.6545e-06
-9.27625e-08
6.9558e-05
8.06475e-06
-2.95667e-07
6.98497e-05
7.88828e-06
-6.03045e-07
6.92725e-05
7.60255e-06
-1.01377e-06
6.78871e-05
7.57146e-06
-1.53489e-06
6.56924e-05
8.00178e-06
-2.17785e-06
6.25964e-05
9.02226e-06
-2.96131e-06
5.84058e-05
1.0693e-05
-3.89592e-06
5.28104e-05
1.31183e-05
-4.99909e-06
4.54126e-05
1.62548e-05
-6.22701e-06
3.56795e-05
2.02551e-05
-7.53357e-06
2.34422e-05
2.39372e-05
-8.483e-06
9.30678e-06
2.57445e-05
-8.25351e-06
1.48642e-05
-4.31011e-06
6.35565e-05
2.05323e-06
3.20964e-08
6.5401e-05
4.34484e-06
3.29814e-08
6.72932e-05
5.80106e-06
-5.84606e-08
6.87331e-05
6.58423e-06
-2.48095e-07
6.94837e-05
6.96193e-06
-5.3924e-07
6.94617e-05
7.2603e-06
-9.29085e-07
6.86542e-05
7.77206e-06
-1.42276e-06
6.7032e-05
8.715e-06
-2.03011e-06
6.45051e-05
1.02682e-05
-2.76704e-06
6.08856e-05
1.25776e-05
-3.64364e-06
5.58612e-05
1.58544e-05
-4.67332e-06
4.89674e-05
2.02082e-05
-5.81918e-06
3.95377e-05
2.59918e-05
-7.03118e-06
2.705e-05
3.2077e-05
-7.91873e-06
1.14813e-05
3.68017e-05
-7.6863e-06
2.38433e-05
-3.99267e-06
6.33066e-05
1.28866e-06
4.3062e-08
6.48797e-05
2.84623e-06
5.81287e-08
6.66655e-05
4.07225e-06
-1.79505e-08
6.8229e-05
5.00607e-06
-1.90739e-07
6.92893e-05
5.76095e-06
-4.61944e-07
6.97065e-05
6.52583e-06
-8.26752e-07
6.94263e-05
7.50819e-06
-1.2876e-06
6.84099e-05
8.90657e-06
-1.85168e-06
6.65897e-05
1.09208e-05
-2.53097e-06
6.38175e-05
1.3767e-05
-3.33379e-06
5.98418e-05
1.7746e-05
-4.26795e-06
5.41999e-05
2.31774e-05
-5.30347e-06
4.61902e-05
3.06571e-05
-6.38574e-06
3.46179e-05
3.97133e-05
-7.18612e-06
1.8207e-05
4.91408e-05
-6.96408e-06
3.97774e-05
-3.65437e-06
6.32214e-05
5.43424e-08
6.14257e-07
6.4701e-05
8.45954e-08
1.45306e-06
6.64821e-05
2.5562e-08
2.36767e-06
6.81736e-05
-1.28201e-07
3.32833e-06
6.94869e-05
-3.77109e-07
4.3457e-06
7.02644e-05
-7.14419e-07
5.4828e-06
7.04408e-05
-1.13952e-06
6.85667e-06
6.99845e-05
-1.65641e-06
8.63024e-06
6.88574e-05
-2.2726e-06
1.10044e-05
6.69557e-05
-2.99386e-06
1.42528e-05
6.40977e-05
-3.82184e-06
1.87446e-05
5.9846e-05
-4.7327e-06
2.50525e-05
5.35653e-05
-5.66867e-06
3.39808e-05
4.35074e-05
-6.37141e-06
4.62934e-05
2.77119e-05
-6.18827e-06
6.13388e-05
-3.39935e-06
6.53935e-05
4.98449e-05
1.26589e-05
-1.45962e-09
3.91688e-05
1.06767e-05
-1.06836e-08
3.09607e-05