/*--------------------------------*- C++ -*----------------------------------*\
| =========                 |                                                 |
| \\      /  F ield         | OpenFOAM: The Open Source CFD Toolbox           |
|  \\    /   O peration     | Version:  v1912                                 |
|   \\  /    A nd           | Website:  www.openfoam.com                      |
|    \\/     M anipulation  |                                                 |
\*---------------------------------------------------------------------------*/
FoamFile
{
    version     2.0;
    format      ascii;
    class       volVectorField;
    location    "0.66/fluid";
    object      cellMotionU;
}
// * * * * * * * * * * * * * * * * * * * * * * * * * * * * * * * * * * * * * //

dimensions      [0 1 -1 0 0 0 0];


internalField   nonuniform List<vector> 
14592
(
(1.43185e-10 -3.19947e-10 2.43839e-10)
(3.99731e-10 -8.94531e-10 6.90244e-10)
(6.37129e-10 -1.42844e-09 1.12966e-09)
(8.6449e-10 -1.94042e-09 1.59104e-09)
(1.09126e-09 -2.44387e-09 2.10202e-09)
(1.32617e-09 -2.94388e-09 2.68753e-09)
(1.57952e-09 -3.43722e-09 3.37253e-09)
(1.86456e-09 -3.90834e-09 4.18171e-09)
(2.20086e-09 -4.32366e-09 5.14047e-09)
(2.62095e-09 -4.61904e-09 6.27538e-09)
(3.18695e-09 -4.67484e-09 7.61842e-09)
(4.03225e-09 -4.25711e-09 9.22539e-09)
(5.46541e-09 -2.86033e-09 1.12413e-08)
(8.27073e-09 7.73196e-10 1.4119e-08)
(1.42375e-08 9.76584e-09 1.90596e-08)
(2.46881e-08 2.76227e-08 2.69185e-08)
(4.25943e-10 -9.49996e-10 7.24855e-10)
(1.18918e-09 -2.65645e-09 2.05193e-09)
(1.8946e-09 -4.24304e-09 3.35697e-09)
(2.57036e-09 -5.76709e-09 4.72776e-09)
(3.24207e-09 -7.26683e-09 6.2428e-09)
(3.93628e-09 -8.76098e-09 7.97733e-09)
(4.6824e-09 -1.02429e-08 1.00042e-08)
(5.51732e-09 -1.16728e-08 1.23957e-08)
(6.49266e-09 -1.29614e-08 1.52234e-08)
(7.68933e-09 -1.39417e-08 1.8557e-08)
(9.24887e-09 -1.43185e-08 2.24644e-08)
(1.14338e-08 -1.35819e-08 2.7021e-08)
(1.47774e-08 -1.08437e-08 3.23636e-08)
(2.02474e-08 -4.64513e-09 3.87652e-08)
(2.91706e-08 6.85056e-09 4.66101e-08)
(4.03331e-08 2.18463e-08 5.4766e-08)
(6.98789e-10 -1.55195e-09 1.18763e-09)
(1.95049e-09 -4.34098e-09 3.36125e-09)
(3.10668e-09 -6.93832e-09 5.49794e-09)
(4.21154e-09 -9.43849e-09 7.73876e-09)
(5.30712e-09 -1.19091e-08 1.02127e-08)
(6.4352e-09 -1.43866e-08 1.30415e-08)
(7.64162e-09 -1.68711e-08 1.63436e-08)
(8.98115e-09 -1.93153e-08 2.02363e-08)
(1.05255e-08 -2.16052e-08 2.48346e-08)
(1.23763e-08 -2.35276e-08 3.02455e-08)
(1.46885e-08 -2.47214e-08 3.65571e-08)
(1.77181e-08 -2.46163e-08 4.38285e-08)
(2.19045e-08 -2.23899e-08 5.20911e-08)
(2.79502e-08 -1.70923e-08 6.13726e-08)
(3.66534e-08 -8.39829e-09 7.16827e-08)
(4.67502e-08 6.92204e-10 8.18064e-08)
(9.55521e-10 -2.1068e-09 1.62081e-09)
(2.66633e-09 -5.89562e-09 4.58617e-09)
(4.24433e-09 -9.43083e-09 7.49797e-09)
(5.74868e-09 -1.28461e-08 1.05471e-08)
(7.23442e-09 -1.62394e-08 1.39065e-08)
(8.75688e-09 -1.9672e-08 1.77407e-08)
(1.03749e-08 -2.31629e-08 2.22098e-08)
(1.21559e-08 -2.66788e-08 2.74729e-08)
(1.41818e-08 -3.01168e-08 3.36861e-08)
(1.6555e-08 -3.32752e-08 4.09935e-08)
(1.94057e-08 -3.58138e-08 4.95062e-08)
(2.29042e-08 -3.72116e-08 5.92689e-08)
(2.7278e-08 -3.67643e-08 7.02166e-08)
(3.28074e-08 -3.3738e-08 8.2111e-08)
(3.97276e-08 -2.79651e-08 9.44242e-08)
(4.7026e-08 -2.1589e-08 1.05201e-07)
(1.19065e-09 -2.59574e-09 2.01449e-09)
(3.32139e-09 -7.26763e-09 5.69847e-09)
(5.283e-09 -1.16371e-08 9.31058e-09)
(7.1464e-09 -1.58755e-08 1.30839e-08)
(8.97825e-09 -2.01142e-08 1.72304e-08)
(1.08442e-08 -2.44445e-08 2.19505e-08)
(1.28135e-08 -2.89151e-08 2.74404e-08)
(1.49629e-08 -3.3526e-08 3.38959e-08)
(1.73813e-08 -3.82163e-08 4.15121e-08)
(2.01703e-08 -4.28436e-08 5.04749e-08)
(2.34386e-08 -4.71512e-08 6.09351e-08)
(2.72873e-08 -5.07246e-08 7.29658e-08)
(3.17877e-08 -5.29387e-08 8.64937e-08)
(3.69037e-08 -5.29271e-08 1.01142e-07)
(4.24497e-08 -4.97485e-08 1.15933e-07)
(4.76045e-08 -4.39963e-08 1.27963e-07)
(1.39994e-09 -3.00068e-09 2.36092e-09)
(3.90322e-09 -8.40579e-09 6.67561e-09)
(6.20217e-09 -1.3474e-08 1.08976e-08)
(8.37716e-09 -1.84128e-08 1.52952e-08)
(1.05027e-08 -2.33856e-08 2.01101e-08)
(1.26524e-08 -2.85167e-08 2.55714e-08)
(1.49031e-08 -3.38913e-08 3.1903e-08)
(1.73398e-08 -3.95546e-08 3.93303e-08)
(2.00596e-08 -4.55089e-08 4.8082e-08)
(2.3174e-08 -5.17037e-08 5.83863e-08)
(2.67995e-08 -5.80173e-08 7.04495e-08)
(3.10598e-08 -6.42194e-08 8.44385e-08)
(3.60359e-08 -6.98771e-08 1.00401e-07)
(4.16986e-08 -7.41155e-08 1.18114e-07)
(4.77415e-08 -7.51508e-08 1.36568e-07)
(5.29192e-08 -7.1059e-08 1.51828e-07)
(1.57997e-09 -3.30444e-09 2.6544e-09)
(4.40267e-09 -9.26212e-09 7.50152e-09)
(6.98751e-09 -1.48638e-08 1.2233e-08)
(9.42049e-09 -2.03475e-08 1.71422e-08)
(1.17815e-08 -2.59066e-08 2.24928e-08)
(1.41486e-08 -3.16965e-08 2.85323e-08)
(1.66032e-08 -3.78388e-08 3.55022e-08)
(1.92357e-08 -4.44263e-08 4.36456e-08)
(2.21519e-08 -5.15287e-08 5.32129e-08)
(2.54792e-08 -5.91972e-08 6.44625e-08)
(2.93758e-08 -6.74704e-08 7.76592e-08)
(3.40474e-08 -7.63787e-08 9.30742e-08)
(3.97834e-08 -8.59277e-08 1.10992e-07)
(4.69695e-08 -9.59451e-08 1.31635e-07)
(5.59495e-08 -1.05485e-07 1.54659e-07)
(6.51546e-08 -1.1128e-07 1.75627e-07)
(1.72881e-09 -3.4923e-09 2.89179e-09)
(4.8143e-09 -9.79503e-09 8.1676e-09)
(7.63053e-09 -1.57379e-08 1.33026e-08)
(1.0266e-08 -2.15828e-08 1.86062e-08)
(1.28016e-08 -2.7546e-08 2.43531e-08)
(1.53164e-08 -3.38081e-08 3.07994e-08)
(1.78919e-08 -4.05209e-08 3.81916e-08)
(2.0619e-08 -4.78158e-08 4.67755e-08)
(2.36058e-08 -5.58154e-08 5.68033e-08)
(2.69879e-08 -6.46477e-08 6.85367e-08)
(3.09486e-08 -7.44701e-08 8.22565e-08)
(3.57619e-08 -8.55189e-08 9.82875e-08)
(4.18869e-08 -9.82032e-08 1.17066e-07)
(5.01555e-08 -1.13264e-07 1.39248e-07)
(6.20139e-08 -1.31816e-07 1.65636e-07)
(7.70312e-08 -1.52211e-07 1.92996e-07)
(1.44052e-10 -3.26874e-10 2.31565e-10)
(4.02003e-10 -9.13978e-10 6.55299e-10)
(6.3998e-10 -1.45987e-09 1.07132e-09)
(8.6708e-10 -1.98411e-09 1.50723e-09)
(1.09164e-09 -2.5003e-09 1.98767e-09)
(1.32177e-09 -3.01473e-09 2.53572e-09)
(1.56613e-09 -3.52525e-09 3.17317e-09)
(1.83521e-09 -4.01827e-09 3.92055e-09)
(2.14375e-09 -4.46417e-09 4.79675e-09)
(2.51567e-09 -4.80727e-09 5.81697e-09)
(2.99594e-09 -4.94835e-09 6.99053e-09)
(3.679e-09 -4.70687e-09 8.32023e-09)
(4.7833e-09 -3.72844e-09 9.81452e-09)
(6.79506e-09 -1.25936e-09 1.15055e-08)
(1.06194e-08 4.1748e-09 1.34064e-08)
(1.62098e-08 1.30465e-08 1.47288e-08)
(4.28599e-10 -9.7047e-10 6.88429e-10)
(1.19587e-09 -2.71391e-09 1.94764e-09)
(1.90352e-09 -4.33595e-09 3.18384e-09)
(2.57809e-09 -5.89547e-09 4.47793e-09)
(3.24397e-09 -7.43325e-09 5.90294e-09)
(3.92483e-09 -8.97002e-09 7.52675e-09)
(4.64549e-09 -1.05023e-08 9.41337e-09)
(5.43507e-09 -1.19955e-08 1.1623e-08)
(6.33166e-09 -1.33703e-08 1.42088e-08)
(7.39221e-09 -1.44818e-08 1.72099e-08)
(8.7124e-09 -1.50847e-08 2.06365e-08)
(1.04739e-08 -1.47816e-08 2.44493e-08)
(1.30107e-08 -1.29697e-08 2.85087e-08)
(1.68737e-08 -8.86052e-09 3.24666e-08)
(2.24812e-08 -2.05913e-09 3.54248e-08)
(2.81635e-08 4.85212e-09 3.56635e-08)
(7.03289e-10 -1.58523e-09 1.12787e-09)
(1.96203e-09 -4.43438e-09 3.19046e-09)
(3.1221e-09 -7.089e-09 5.21405e-09)
(4.22622e-09 -9.64735e-09 7.33018e-09)
(5.31368e-09 -1.21798e-08 9.65755e-09)
(6.42225e-09 -1.47261e-08 1.23065e-08)
(7.5908e-09 -1.72908e-08 1.53814e-08)
(8.8624e-09 -1.98335e-08 1.89805e-08)
(1.02887e-08 -2.22534e-08 2.31908e-08)
(1.19358e-08 -2.4365e-08 2.80749e-08)
(1.38967e-08 -2.5867e-08 3.36443e-08)
(1.63133e-08 -2.63213e-08 3.98121e-08)
(1.94029e-08 -2.51985e-08 4.631e-08)
(2.34284e-08 -2.21561e-08 5.25281e-08)
(2.83601e-08 -1.79013e-08 5.72581e-08)
(3.26315e-08 -1.54554e-08 5.877e-08)
(9.61989e-10 -2.15176e-09 1.5392e-09)
(2.68327e-09 -6.0217e-09 4.35335e-09)
(4.26769e-09 -9.63445e-09 7.11124e-09)
(5.77248e-09 -1.3128e-08 9.99089e-09)
(7.24992e-09 -1.66046e-08 1.3152e-08)
(8.75016e-09 -2.01293e-08 1.67436e-08)
(1.03237e-08 -2.37256e-08 2.09072e-08)
(1.20241e-08 -2.73674e-08 2.57773e-08)
(1.39091e-08 -3.09638e-08 3.14745e-08)
(1.60394e-08 -3.43389e-08 3.80895e-08)
(1.84738e-08 -3.72059e-08 4.56461e-08)
(2.12551e-08 -3.91606e-08 5.40364e-08)
(2.43765e-08 -3.97473e-08 6.29039e-08)
(2.7694e-08 -3.87362e-08 7.14326e-08)
(3.07318e-08 -3.68022e-08 7.80423e-08)
(3.24161e-08 -3.61164e-08 8.04951e-08)
(1.19938e-09 -2.65092e-09 1.91327e-09)
(3.34436e-09 -7.42227e-09 5.40953e-09)
(5.31554e-09 -1.18867e-08 8.83109e-09)
(7.18223e-09 -1.62214e-08 1.23956e-08)
(9.00775e-09 -2.05619e-08 1.62983e-08)
(1.08526e-08 -2.50038e-08 2.07213e-08)
(1.27774e-08 -2.96002e-08 2.58386e-08)
(1.48444e-08 -3.43561e-08 3.18168e-08)
(1.71177e-08 -3.92197e-08 3.88105e-08)
(1.96555e-08 -4.40652e-08 4.69434e-08)
(2.24928e-08 -4.86716e-08 5.62717e-08)
(2.56033e-08 -5.27021e-08 6.67119e-08)
(2.88107e-08 -5.5704e-08 7.78925e-08)
(3.16531e-08 -5.71965e-08 8.88899e-08)
(3.32531e-08 -5.70374e-08 9.7767e-08)
(3.28162e-08 -5.63404e-08 1.01519e-07)
(1.41102e-09 -3.06416e-09 2.24254e-09)
(3.93275e-09 -8.58382e-09 6.3378e-09)
(6.24524e-09 -1.37616e-08 1.03378e-08)
(8.42718e-09 -1.88109e-08 1.44926e-08)
(1.05504e-08 -2.39008e-08 1.90257e-08)
(1.26837e-08 -2.91593e-08 2.41452e-08)
(1.48958e-08 -3.46748e-08 3.00502e-08)
(1.72584e-08 -4.0496e-08 3.69336e-08)
(1.98458e-08 -4.66284e-08 4.49787e-08)
(2.27289e-08 -5.30274e-08 5.43451e-08)
(2.5962e-08 -5.95842e-08 6.51397e-08)
(2.95366e-08 -6.60954e-08 7.73391e-08)
(3.33043e-08 -7.21977e-08 9.06722e-08)
(3.67801e-08 -7.72077e-08 1.04282e-07)
(3.88726e-08 -7.99314e-08 1.16103e-07)
(3.82106e-08 -7.94014e-08 1.22251e-07)
(1.59352e-09 -3.37416e-09 2.52162e-09)
(4.43908e-09 -9.45764e-09 7.12295e-09)
(7.04172e-09 -1.51796e-08 1.16064e-08)
(9.48647e-09 -2.0785e-08 1.62459e-08)
(1.18507e-08 -2.64727e-08 2.12848e-08)
(1.42086e-08 -3.24016e-08 2.69485e-08)
(1.66349e-08 -3.86958e-08 3.34522e-08)
(1.92089e-08 -4.54491e-08 4.10046e-08)
(2.20177e-08 -5.27296e-08 4.98078e-08)
(2.51572e-08 -6.05846e-08 6.00486e-08)
(2.873e-08 -6.90441e-08 7.18754e-08)
(3.28405e-08 -7.81216e-08 8.53551e-08)
(3.75649e-08 -8.77837e-08 1.00364e-07)
(4.28535e-08 -9.77911e-08 1.16297e-07)
(4.81588e-08 -1.07163e-07 1.31266e-07)
(5.14882e-08 -1.13042e-07 1.40558e-07)
(1.74475e-09 -3.56583e-09 2.74756e-09)
(4.85753e-09 -1.00013e-08 7.75669e-09)
(7.69609e-09 -1.60713e-08 1.26236e-08)
(1.03482e-08 -2.20449e-08 1.7637e-08)
(1.28933e-08 -2.8144e-08 2.3051e-08)
(1.54074e-08 -3.45527e-08 2.90987e-08)
(1.79671e-08 -4.14243e-08 3.60003e-08)
(2.0655e-08 -4.88893e-08 4.3967e-08)
(2.35651e-08 -5.70654e-08 5.32024e-08)
(2.68106e-08 -6.60696e-08 6.38977e-08)
(3.05343e-08 -7.60378e-08 7.62142e-08)
(3.49332e-08 -8.71604e-08 9.02607e-08)
(4.02988e-08 -9.97427e-08 1.06024e-07)
(4.70776e-08 -1.14267e-07 1.23155e-07)
(5.57173e-08 -1.31158e-07 1.40204e-07)
(6.4784e-08 -1.47974e-07 1.52312e-07)
(1.44299e-10 -3.32877e-10 2.10987e-10)
(4.02386e-10 -9.30859e-10 5.9672e-10)
(6.39765e-10 -1.48718e-09 9.74932e-10)
(8.64754e-10 -2.02199e-09 1.36978e-09)
(1.0849e-09 -2.54948e-09 1.80324e-09)
(1.30689e-09 -3.07695e-09 2.29504e-09)
(1.53703e-09 -3.60342e-09 2.86291e-09)
(1.78203e-09 -4.11853e-09 3.52251e-09)
(2.04961e-09 -4.59779e-09 4.28491e-09)
(2.351e-09 -4.99814e-09 5.15328e-09)
(2.7063e-09 -5.24798e-09 6.1151e-09)
(3.15839e-09 -5.23149e-09 7.12941e-09)
(3.79688e-09 -4.758e-09 8.09987e-09)
(4.80708e-09 -3.48801e-09 8.82956e-09)
(6.43703e-09 -8.58784e-10 8.88646e-09)
(8.32667e-09 3.14255e-09 7.54448e-09)
(4.2937e-10 -9.88215e-10 6.27174e-10)
(1.19728e-09 -2.76377e-09 1.77373e-09)
(1.90315e-09 -4.41654e-09 2.89709e-09)
(2.57186e-09 -6.00711e-09 4.06963e-09)
(3.22519e-09 -7.57817e-09 5.35543e-09)
(3.88278e-09 -9.15272e-09 6.81268e-09)
(4.56302e-09 -1.07314e-08 8.4941e-09)
(5.28383e-09 -1.22862e-08 1.04447e-08)
(6.06446e-09 -1.37531e-08 1.26967e-08)
(6.92765e-09 -1.50174e-08 1.52561e-08)
(7.90717e-09 -1.5899e-08 1.80787e-08)
(9.05774e-09 -1.61425e-08 2.10208e-08)
(1.04753e-08 -1.54333e-08 2.37575e-08)
(1.22451e-08 -1.35196e-08 2.56035e-08)
(1.41779e-08 -1.06218e-08 2.53227e-08)
(1.52051e-08 -8.33606e-09 2.20156e-08)
(7.04778e-10 -1.61403e-09 1.02754e-09)
(1.96503e-09 -4.51525e-09 2.90568e-09)
(3.12287e-09 -7.21966e-09 4.7447e-09)
(4.2184e-09 -9.82813e-09 6.66227e-09)
(5.287e-09 -1.24139e-08 8.76263e-09)
(6.36037e-09 -1.50201e-08 1.11406e-08)
(7.4674e-09 -1.7656e-08 1.3882e-08)
(8.63503e-09 -2.02907e-08 1.70617e-08)
(9.88685e-09 -2.28413e-08 2.07337e-08)
(1.12413e-08 -2.51597e-08 2.4912e-08)
(1.27063e-08 -2.70217e-08 2.95317e-08)
(1.42707e-08 -2.81434e-08 3.43806e-08)
(1.58777e-08 -2.82802e-08 3.89824e-08)
(1.73438e-08 -2.75162e-08 4.24257e-08)
(1.81876e-08 -2.6799e-08 4.33028e-08)
(1.77333e-08 -2.78052e-08 4.09366e-08)
(9.64523e-10 -2.19055e-09 1.40252e-09)
(2.6888e-09 -6.1307e-09 3.96485e-09)
(4.27145e-09 -9.81021e-09 6.47168e-09)
(5.76649e-09 -1.33708e-08 9.08147e-09)
(7.22139e-09 -1.6918e-08 1.19349e-08)
(8.67884e-09 -2.05203e-08 1.51601e-08)
(1.01776e-08 -2.42063e-08 1.88742e-08)
(1.17513e-08 -2.79574e-08 2.31803e-08)
(1.34256e-08 -3.16994e-08 2.81568e-08)
(1.52064e-08 -3.52882e-08 3.38332e-08)
(1.70591e-08 -3.85035e-08 4.01434e-08)
(1.88673e-08 -4.10698e-08 4.68447e-08)
(2.03566e-08 -4.27622e-08 5.33846e-08)
(2.09881e-08 -4.36805e-08 5.87251e-08)
(1.99586e-08 -4.466e-08 6.12998e-08)
(1.716e-08 -4.67861e-08 6.01714e-08)
(1.20329e-09 -2.69838e-09 1.74345e-09)
(3.35349e-09 -7.55541e-09 4.9274e-09)
(5.32451e-09 -1.21013e-08 8.03781e-09)
(7.18204e-09 -1.65172e-08 1.12689e-08)
(8.98432e-09 -2.09424e-08 1.47927e-08)
(1.07839e-08 -2.54754e-08 1.87661e-08)
(1.26286e-08 -3.01724e-08 2.33333e-08)
(1.45605e-08 -3.50436e-08 2.86238e-08)
(1.66096e-08 -4.00461e-08 3.47405e-08)
(1.87791e-08 -4.5073e-08 4.17363e-08)
(2.10113e-08 -4.99426e-08 4.95626e-08)
(2.31203e-08 -5.43967e-08 5.79799e-08)
(2.46786e-08 -5.81348e-08 6.64227e-08)
(2.48504e-08 -6.09204e-08 7.37744e-08)
(2.24622e-08 -6.28299e-08 7.82659e-08)
(1.76484e-08 -6.43719e-08 7.84675e-08)
(1.41659e-09 -3.11859e-09 2.04369e-09)
(3.9466e-09 -8.73654e-09 5.77373e-09)
(6.26145e-09 -1.40074e-08 9.41062e-09)
(8.43659e-09 -1.91493e-08 1.31777e-08)
(1.05387e-08 -2.43344e-08 1.72719e-08)
(1.26289e-08 -2.96931e-08 2.18728e-08)
(1.47637e-08 -3.53149e-08 2.71462e-08)
(1.6995e-08 -4.12485e-08 3.32422e-08)
(1.93655e-08 -4.74996e-08 4.02864e-08)
(2.1895e-08 -5.40244e-08 4.83564e-08)
(2.45463e-08 -6.07173e-08 5.74278e-08)
(2.71696e-08 -6.73903e-08 6.73041e-08)
(2.93607e-08 -7.37147e-08 7.7436e-08)
(3.02633e-08 -7.90983e-08 8.66947e-08)
(2.84558e-08 -8.25198e-08 9.31358e-08)
(2.3451e-08 -8.29716e-08 9.47989e-08)
(1.60108e-09 -3.43372e-09 2.29845e-09)
(4.45838e-09 -9.62466e-09 6.49005e-09)
(7.06693e-09 -1.54483e-08 1.05673e-08)
(9.50855e-09 -2.11544e-08 1.4775e-08)
(1.18562e-08 -2.69447e-08 1.93276e-08)
(1.41769e-08 -3.29794e-08 2.44202e-08)
(1.65345e-08 -3.93815e-08 3.02318e-08)
(1.89912e-08 -4.62403e-08 3.69257e-08)
(2.16061e-08 -5.36151e-08 4.46415e-08)
(2.4429e-08 -6.15363e-08 5.34728e-08)
(2.74857e-08 -7.00042e-08 6.34244e-08)
(3.07446e-08 -7.89783e-08 7.43292e-08)
(3.40438e-08 -8.8326e-08 8.56886e-08)
(3.69476e-08 -9.76424e-08 9.63673e-08)
(3.85268e-08 -1.05773e-07 1.04212e-07)
(3.76553e-08 -1.10114e-07 1.06627e-07)
(1.75437e-09 -3.62844e-09 2.50481e-09)
(4.88286e-09 -1.01768e-08 7.0688e-09)
(7.73125e-09 -1.63537e-08 1.14959e-08)
(1.03848e-08 -2.24328e-08 1.60439e-08)
(1.29193e-08 -2.86388e-08 2.09375e-08)
(1.54045e-08 -3.51561e-08 2.63783e-08)
(1.79082e-08 -4.2135e-08 3.255e-08)
(2.04986e-08 -4.96984e-08 3.96179e-08)
(2.32469e-08 -5.79484e-08 4.77228e-08)
(2.6228e-08 -6.69734e-08 5.69592e-08)
(2.9521e-08 -7.68567e-08 6.73385e-08)
(3.32059e-08 -8.76908e-08 7.87095e-08)
(3.73573e-08 -9.95879e-08 9.06e-08)
(4.20331e-08 -1.1266e-07 1.01879e-07)
(4.71958e-08 -1.26773e-07 1.10178e-07)
(5.19671e-08 -1.39578e-07 1.12005e-07)
(1.44068e-10 -3.37881e-10 1.83026e-10)
(4.01468e-10 -9.44924e-10 5.17509e-10)
(6.3724e-10 -1.50991e-09 8.44694e-10)
(8.59139e-10 -2.0535e-09 1.18559e-09)
(1.07357e-09 -2.59051e-09 1.55811e-09)
(1.28566e-09 -3.12887e-09 1.97835e-09)
(1.49934e-09 -3.66921e-09 2.46003e-09)
(1.71726e-09 -4.20345e-09 3.01373e-09)
(1.94057e-09 -4.7127e-09 3.6445e-09)
(2.16906e-09 -5.16434e-09 4.34738e-09)
(2.40225e-09 -5.50857e-09 5.09896e-09)
(2.64371e-09 -5.67427e-09 5.84424e-09)
(2.91364e-09 -5.55868e-09 6.48181e-09)
(3.25583e-09 -4.99159e-09 6.83678e-09)
(3.72073e-09 -3.65061e-09 6.68219e-09)
(4.1255e-09 -1.30187e-09 5.90477e-09)
(4.2878e-10 -1.003e-09 5.44102e-10)
(1.19473e-09 -2.80531e-09 1.53811e-09)
(1.89621e-09 -4.48366e-09 2.51052e-09)
(2.55593e-09 -6.10005e-09 3.5224e-09)
(3.1928e-09 -7.69871e-09 4.62751e-09)
(3.82201e-09 -9.30486e-09 5.873e-09)
(4.45494e-09 -1.09225e-08 7.29934e-09)
(5.09847e-09 -1.25306e-08 8.93747e-09)
(5.75351e-09 -1.40782e-08 1.08019e-08)
(6.41239e-09 -1.54773e-08 1.28765e-08)
(7.05673e-09 -1.65989e-08 1.50896e-08)
(7.65967e-09 -1.72799e-08 1.72764e-08)
(8.18101e-09 -1.73566e-08 1.91122e-08)
(8.55899e-09 -1.67378e-08 2.00597e-08)
(8.65013e-09 -1.55413e-08 1.94336e-08)
(8.2779e-09 -1.43304e-08 1.73293e-08)
(7.04065e-10 -1.63799e-09 8.91511e-10)
(1.96166e-09 -4.58264e-09 2.51984e-09)
(3.11296e-09 -7.32827e-09 4.11175e-09)
(4.19486e-09 -9.97814e-09 5.76688e-09)
(5.23823e-09 -1.26076e-08 7.57234e-09)
(6.26797e-09 -1.52625e-08 9.60509e-09)
(7.30266e-09 -1.79569e-08 1.19316e-08)
(8.35258e-09 -2.06677e-08 1.46036e-08)
(9.41509e-09 -2.33283e-08 1.76473e-08)
(1.04662e-08 -2.58219e-08 2.10426e-08)
(1.14478e-08 -2.7982e-08 2.46872e-08)
(1.22496e-08 -2.96222e-08 2.83413e-08)
(1.26883e-08 -3.06308e-08 3.15596e-08)
(1.25005e-08 -3.11691e-08 3.3656e-08)
(1.14503e-08 -3.19003e-08 3.3927e-08)
(9.91347e-09 -3.34969e-08 3.27294e-08)
(9.64054e-10 -2.22283e-09 1.21677e-09)
(2.68578e-09 -6.2212e-09 3.43887e-09)
(4.26088e-09 -9.95595e-09 5.60894e-09)
(5.7393e-09 -1.35713e-08 7.86183e-09)
(7.16304e-09 -1.71752e-08 1.03151e-08)
(8.56652e-09 -2.08391e-08 1.3073e-08)
(9.97575e-09 -2.45949e-08 1.62264e-08)
(1.1405e-08 -2.84311e-08 1.98476e-08)
(1.28491e-08 -3.22862e-08 2.39777e-08)
(1.4267e-08 -3.6041e-08 2.86014e-08)
(1.55548e-08 -3.95205e-08 3.36052e-08)
(1.65019e-08 -4.25236e-08 3.87161e-08)
(1.67352e-08 -4.49181e-08 4.3434e-08)
(1.57094e-08 -4.68354e-08 4.70168e-08)
(1.29858e-08 -4.88591e-08 4.87359e-08)
(9.49944e-09 -5.13591e-08 4.87784e-08)
(1.20351e-09 -2.73771e-09 1.51283e-09)
(3.35221e-09 -7.66572e-09 4.27417e-09)
(5.31585e-09 -1.22785e-08 6.96722e-09)
(7.15585e-09 -1.67599e-08 9.75699e-09)
(8.92436e-09 -2.12517e-08 1.27874e-08)
(1.0665e-08 -2.58541e-08 1.61863e-08)
(1.2412e-08 -3.06251e-08 2.00659e-08)
(1.41869e-08 -3.55773e-08 2.4518e-08)
(1.59884e-08 -4.06729e-08 2.95997e-08)
(1.77723e-08 -4.58151e-08 3.53068e-08)
(1.94145e-08 -5.08419e-08 4.15295e-08)
(2.0648e-08 -5.55297e-08 4.79904e-08)
(2.09644e-08 -5.96151e-08 5.4162e-08)
(1.95673e-08 -6.28663e-08 5.92669e-08)
(1.56921e-08 -6.52044e-08 6.24945e-08)
(1.04638e-08 -6.67318e-08 6.37379e-08)
(1.41798e-09 -3.16359e-09 1.7737e-09)
(3.94833e-09 -8.86256e-09 5.00906e-09)
(6.25737e-09 -1.42094e-08 8.15854e-09)
(8.41601e-09 -1.9425e-08 1.14118e-08)
(1.0485e-08 -2.46834e-08 1.49338e-08)
(1.25163e-08 -3.01154e-08 1.88711e-08)
(1.45535e-08 -3.58095e-08 2.3353e-08)
(1.66286e-08 -4.18112e-08 2.84865e-08)
(1.87541e-08 -4.8121e-08 3.4343e-08)
(2.0905e-08 -5.46863e-08 4.09303e-08)
(2.29874e-08 -6.13903e-08 4.81522e-08)
(2.47691e-08 -6.80226e-08 5.57228e-08)
(2.57851e-08 -7.42218e-08 6.31092e-08)
(2.52206e-08 -7.93365e-08 6.94682e-08)
(2.2067e-08 -8.22575e-08 7.38646e-08)
(1.68083e-08 -8.19683e-08 7.59729e-08)
(1.60393e-09 -3.48277e-09 1.99508e-09)
(4.46434e-09 -9.76194e-09 5.63149e-09)
(7.06965e-09 -1.56679e-08 9.1631e-09)
(9.49755e-09 -2.14533e-08 1.27978e-08)
(1.18153e-08 -2.73209e-08 1.67156e-08)
(1.40818e-08 -3.34301e-08 2.10758e-08)
(1.63486e-08 -3.98996e-08 2.60182e-08)
(1.86599e-08 -4.68104e-08 3.16595e-08)
(2.10478e-08 -5.42066e-08 3.80791e-08)
(2.35232e-08 -6.20923e-08 4.52937e-08)
(2.60573e-08 -7.04241e-08 5.32077e-08)
(2.85475e-08 -7.90874e-08 6.15392e-08)
(3.07628e-08 -8.78282e-08 6.97109e-08)
(3.22894e-08 -9.60736e-08 7.67595e-08)
(3.25614e-08 -1.02537e-07 8.14681e-08)
(3.14146e-08 -1.05004e-07 8.32966e-08)
(1.759e-09 -3.67983e-09 2.1746e-09)
(4.89382e-09 -1.03207e-08 6.13485e-09)
(7.74241e-09 -1.65836e-08 9.9703e-09)
(1.03863e-08 -2.27449e-08 1.39003e-08)
(1.28961e-08 -2.903e-08 1.81132e-08)
(1.53346e-08 -3.56211e-08 2.27744e-08)
(1.7759e-08 -4.26621e-08 2.80274e-08)
(2.02219e-08 -5.02635e-08 3.399e-08)
(2.27714e-08 -5.8505e-08 4.07414e-08)
(2.54495e-08 -6.74371e-08 4.82965e-08)
(2.82871e-08 -7.70791e-08 5.65553e-08)
(3.12987e-08 -8.74157e-08 6.52243e-08)
(3.44833e-08 -9.83848e-08 7.36852e-08)
(3.78731e-08 -1.09851e-07 8.08285e-08)
(4.16435e-08 -1.2146e-07 8.49985e-08)
(4.57595e-08 -1.31489e-07 8.50933e-08)
(1.43558e-10 -3.41846e-10 1.48852e-10)
(3.9971e-10 -9.56043e-10 4.20636e-10)
(6.33482e-10 -1.52782e-09 6.86382e-10)
(8.5185e-10 -2.07842e-09 9.62184e-10)
(1.06025e-09 -2.62282e-09 1.26266e-09)
(1.26236e-09 -3.16969e-09 1.59974e-09)
(1.46003e-09 -3.72076e-09 1.98347e-09)
(1.65254e-09 -4.26968e-09 2.42027e-09)
(1.83631e-09 -4.80141e-09 2.91163e-09)
(2.00359e-09 -5.29003e-09 3.44933e-09)
(2.14317e-09 -5.69743e-09 4.01039e-09)
(2.24381e-09 -5.97195e-09 4.55003e-09)
(2.30209e-09 -6.04007e-09 4.9946e-09)
(2.34156e-09 -5.76598e-09 5.26426e-09)
(2.41144e-09 -4.83884e-09 5.32639e-09)
(2.47334e-09 -2.88669e-09 5.25836e-09)
(4.27325e-10 -1.01472e-09 4.42465e-10)
(1.18983e-09 -2.83818e-09 1.25061e-09)
(1.88553e-09 -4.53675e-09 2.03971e-09)
(2.53508e-09 -6.17338e-09 2.85904e-09)
(3.15462e-09 -7.79375e-09 3.75035e-09)
(3.75515e-09 -9.42439e-09 4.74962e-09)
(4.34191e-09 -1.10717e-08 5.88589e-09)
(4.91294e-09 -1.27201e-08 7.17887e-09)
(5.45558e-09 -1.43275e-08 8.63176e-09)
(5.94309e-09 -1.58219e-08 1.02206e-08)
(6.33187e-09 -1.71014e-08 1.18766e-08)
(6.5627e-09 -1.80412e-08 1.34604e-08)
(6.57794e-09 -1.85125e-08 1.47501e-08)
(6.35464e-09 -1.83995e-08 1.54375e-08)
(5.96543e-09 -1.7609e-08 1.52631e-08)
(5.64229e-09 -1.62964e-08 1.44439e-08)
(7.01954e-10 -1.657e-09 7.25045e-10)
(1.95447e-09 -4.63598e-09 2.04894e-09)
(3.09698e-09 -7.41413e-09 3.34113e-09)
(4.16326e-09 -1.00964e-08 4.68128e-09)
(5.1797e-09 -1.27594e-08 6.13762e-09)
(6.16505e-09 -1.54512e-08 7.76875e-09)
(7.12884e-09 -1.81889e-08 9.62284e-09)
(8.06793e-09 -2.0955e-08 1.17327e-08)
(8.96078e-09 -2.36935e-08 1.41066e-08)
(9.75785e-09 -2.63051e-08 1.6711e-08)
(1.037e-08 -2.86515e-08 1.94454e-08)
(1.06604e-08 -3.05804e-08 2.21129e-08)
(1.04551e-08 -3.1994e-08 2.4403e-08)
(9.61484e-09 -3.29704e-08 2.59351e-08)
(8.25657e-09 -3.38836e-08 2.64819e-08)
(7.14938e-09 -3.50878e-08 2.64234e-08)
(9.61713e-10 -2.24838e-09 9.89838e-10)
(2.67752e-09 -6.29288e-09 2.79638e-09)
(4.24196e-09 -1.0071e-08 4.55827e-09)
(5.70088e-09 -1.37286e-08 6.38268e-09)
(7.09097e-09 -1.73755e-08 8.36189e-09)
(8.43899e-09 -2.10846e-08 1.05755e-08)
(9.75986e-09 -2.48899e-08 1.30894e-08)
(1.10523e-08 -2.87839e-08 1.59503e-08)
(1.22894e-08 -3.27116e-08 1.9174e-08)
(1.34032e-08 -3.65657e-08 2.27254e-08)
(1.42612e-08 -4.01885e-08 2.64891e-08)
(1.46395e-08 -4.33953e-08 3.02389e-08)
(1.42091e-08 -4.60439e-08 3.36273e-08)
(1.26166e-08 -4.81708e-08 3.6255e-08)
(9.84388e-09 -5.01235e-08 3.79058e-08)
(7.12992e-09 -5.21294e-08 3.88029e-08)
(1.20139e-09 -2.76884e-09 1.23076e-09)
(3.34429e-09 -7.7528e-09 3.47619e-09)
(5.29663e-09 -1.24177e-08 5.66295e-09)
(7.11536e-09 -1.69493e-08 7.92253e-09)
(8.84655e-09 -2.14903e-08 1.03679e-08)
(1.05256e-08 -2.61417e-08 1.30967e-08)
(1.21751e-08 -3.09615e-08 1.61909e-08)
(1.38e-08 -3.59619e-08 1.97099e-08)
(1.53772e-08 -4.11046e-08 2.36786e-08)
(1.68371e-08 -4.62928e-08 2.80654e-08)
(1.80329e-08 -5.13629e-08 3.27501e-08)
(1.86943e-08 -5.60812e-08 3.74888e-08)
(1.8387e-08 -6.01544e-08 4.19185e-08)
(1.65416e-08 -6.32644e-08 4.56139e-08)
(1.28402e-08 -6.51936e-08 4.8331e-08)
(8.63143e-09 -6.60713e-08 5.0099e-08)
(1.41653e-09 -3.1991e-09 1.44314e-09)
(3.94221e-09 -8.96179e-09 4.07455e-09)
(6.24068e-09 -1.43675e-08 6.6324e-09)
(8.37809e-09 -1.96387e-08 9.2679e-09)
(1.04094e-08 -2.49502e-08 1.21107e-08)
(1.23782e-08 -3.04317e-08 1.5273e-08)
(1.43163e-08 -3.61687e-08 1.8849e-08)
(1.62399e-08 -4.22015e-08 2.29087e-08)
(1.81411e-08 -4.85209e-08 2.74846e-08)
(1.99725e-08 -5.50598e-08 3.25493e-08)
(2.16189e-08 -6.16754e-08 3.79746e-08)
(2.28586e-08 -6.81205e-08 4.35115e-08)
(2.33022e-08 -7.3972e-08 4.87476e-08)
(2.23756e-08 -7.85045e-08 5.32037e-08)
(1.95179e-08 -8.05816e-08 5.65633e-08)
(1.54092e-08 -7.94472e-08 5.87966e-08)
(1.60356e-09 -3.52137e-09 1.62359e-09)
(4.46127e-09 -9.86967e-09 4.58166e-09)
(7.05779e-09 -1.58391e-08 7.45041e-09)
(9.46648e-09 -2.16836e-08 1.03956e-08)
(1.17487e-08 -2.76058e-08 1.3559e-08)
(1.39557e-08 -3.37625e-08 1.70625e-08)
(1.61283e-08 -4.0267e-08 2.10083e-08)
(1.8296e-08 -4.71896e-08 2.54724e-08)
(2.04727e-08 -5.45565e-08 3.04914e-08)
(2.26485e-08 -6.23429e-08 3.60362e-08)
(2.47787e-08 -7.04597e-08 4.19756e-08)
(2.67666e-08 -7.87242e-08 4.80261e-08)
(2.84524e-08 -8.67918e-08 5.3716e-08)
(2.96384e-08 -9.40063e-08 5.84216e-08)
(3.01746e-08 -9.91399e-08 6.16296e-08)
(3.00979e-08 -1.00504e-07 6.33658e-08)
(1.76004e-09 -3.72016e-09 1.76998e-09)
(4.89476e-09 -1.04332e-08 4.99206e-09)
(7.73735e-09 -1.6762e-08 8.10819e-09)
(1.03651e-08 -2.29841e-08 1.12936e-08)
(1.28438e-08 -2.93239e-08 1.46967e-08)
(1.52292e-08 -3.59598e-08 1.84443e-08)
(1.75688e-08 -4.30282e-08 2.26413e-08)
(1.99026e-08 -5.06253e-08 2.73643e-08)
(2.22627e-08 -5.88072e-08 3.26483e-08)
(2.46727e-08 -6.75859e-08 3.84591e-08)
(2.71487e-08 -7.69227e-08 4.46544e-08)
(2.97058e-08 -8.67179e-08 5.09228e-08)
(3.2394e-08 -9.68021e-08 5.67207e-08)
(3.54113e-08 -1.06952e-07 6.12502e-08)
(3.92835e-08 -1.16915e-07 6.36512e-08)
(4.42109e-08 -1.25627e-07 6.3743e-08)
(1.42943e-10 -3.44739e-10 1.09764e-10)
(3.9777e-10 -9.64174e-10 3.10256e-10)
(6.29525e-10 -1.541e-09 5.05697e-10)
(8.44554e-10 -2.09636e-09 7.08508e-10)
(1.04775e-09 -2.64656e-09 9.28625e-10)
(1.24135e-09 -3.19965e-09 1.17451e-09)
(1.42561e-09 -3.75813e-09 1.4527e-09)
(1.59779e-09 -4.31704e-09 1.76704e-09)
(1.75132e-09 -4.86313e-09 2.11709e-09)
(1.87527e-09 -5.37363e-09 2.49559e-09)
(1.95533e-09 -5.8147e-09 2.88499e-09)
(1.97883e-09 -6.13908e-09 3.25467e-09)
(1.94796e-09 -6.27494e-09 3.56852e-09)
(1.89899e-09 -6.07605e-09 3.79617e-09)
(1.90827e-09 -5.20995e-09 3.97418e-09)
(1.96581e-09 -3.27243e-09 4.15961e-09)
(4.25616e-10 -1.02333e-09 3.26413e-10)
(1.18431e-09 -2.8624e-09 9.22109e-10)
(1.87418e-09 -4.57552e-09 1.50331e-09)
(2.51457e-09 -6.22772e-09 2.10542e-09)
(3.11852e-09 -7.86338e-09 2.75838e-09)
(3.69425e-09 -9.51123e-09 3.48722e-09)
(4.24245e-09 -1.11791e-08 4.31122e-09)
(4.75504e-09 -1.2854e-08 5.2417e-09)
(5.2118e-09 -1.44986e-08 6.2772e-09)
(5.57772e-09 -1.60481e-08 7.39575e-09)
(5.80309e-09 -1.74088e-08 8.5444e-09)
(5.83388e-09 -1.84611e-08 9.63363e-09)
(5.6411e-09 -1.90614e-08 1.05287e-08)
(5.27893e-09 -1.90326e-08 1.10816e-08)
(4.95295e-09 -1.81518e-08 1.11879e-08)
(4.93408e-09 -1.65222e-08 1.09213e-08)
(6.99406e-10 -1.67103e-09 5.34879e-10)
(1.94617e-09 -4.67531e-09 1.5109e-09)
(3.08001e-09 -7.47767e-09 2.46267e-09)
(4.13147e-09 -1.0183e-08 3.44758e-09)
(5.12403e-09 -1.28705e-08 4.51461e-09)
(6.07097e-09 -1.5588e-08 5.7045e-09)
(6.97521e-09 -1.83546e-08 7.04922e-09)
(7.82489e-09 -2.11559e-08 8.5681e-09)
(8.58781e-09 -2.39403e-08 1.02606e-08)
(9.20429e-09 -2.66151e-08 1.2095e-08)
(9.58182e-09 -2.90478e-08 1.39947e-08)
(9.60062e-09 -3.10836e-08 1.58277e-08)
(9.14914e-09 -3.25885e-08 1.74097e-08)
(8.22626e-09 -3.35441e-08 1.85519e-08)
(7.14083e-09 -3.41646e-08 1.91761e-08)
(6.61604e-09 -3.48301e-08 1.94327e-08)
(9.58704e-10 -2.26732e-09 7.3012e-10)
(2.66761e-09 -6.34585e-09 2.06246e-09)
(4.22107e-09 -1.01555e-08 3.36014e-09)
(5.66186e-09 -1.38442e-08 4.70122e-09)
(7.02142e-09 -1.75211e-08 6.15146e-09)
(8.321e-09 -2.12605e-08 7.76648e-09)
(9.56738e-09 -2.50973e-08 9.59021e-09)
(1.07489e-08 -2.90248e-08 1.16503e-08)
(1.18271e-08 -3.29897e-08 1.39496e-08)
(1.27245e-08 -3.68856e-08 1.64519e-08)
(1.33111e-08 -4.05527e-08 1.90672e-08)
(1.33947e-08 -4.37917e-08 2.16414e-08)
(1.27406e-08 -4.64165e-08 2.39681e-08)
(1.11756e-08 -4.83635e-08 2.5849e-08)
(8.89584e-09 -4.98586e-08 2.72101e-08)
(6.99312e-09 -5.12427e-08 2.80753e-08)
(1.19831e-09 -2.79183e-09 9.08016e-10)
(3.33405e-09 -7.81717e-09 2.56413e-09)
(5.27462e-09 -1.25203e-08 4.17509e-09)
(7.07262e-09 -1.70873e-08 5.83617e-09)
(8.76999e-09 -2.16626e-08 7.62827e-09)
(1.0395e-08 -2.63457e-08 9.61968e-09)
(1.19616e-08 -3.11938e-08 1.1865e-08)
(1.34642e-08 -3.6217e-08 1.43998e-08)
(1.48684e-08 -4.13729e-08 1.7231e-08)
(1.60975e-08 -4.65571e-08 2.03211e-08)
(1.70118e-08 -5.15925e-08 2.35718e-08)
(1.73877e-08 -5.62212e-08 2.68184e-08)
(1.69005e-08 -6.00988e-08 2.9828e-08)
(1.51895e-08 -6.28369e-08 3.23934e-08)
(1.2154e-08 -6.41626e-08 3.44222e-08)
(8.92073e-09 -6.43876e-08 3.5816e-08)
(1.41387e-09 -3.22537e-09 1.06494e-09)
(3.93287e-09 -9.03496e-09 3.00595e-09)
(6.21955e-09 -1.44833e-08 4.89053e-09)
(8.33641e-09 -1.97942e-08 6.82833e-09)
(1.03326e-08 -2.51411e-08 8.91213e-09)
(1.22457e-08 -3.06529e-08 1.12205e-08)
(1.40988e-08 -3.64113e-08 1.38164e-08)
(1.58978e-08 -4.24503e-08 1.67416e-08)
(1.76246e-08 -4.87501e-08 2.00062e-08)
(1.92261e-08 -5.52258e-08 2.35706e-08)
(2.06001e-08 -6.17102e-08 2.73332e-08)
(2.15714e-08 -6.7917e-08 3.10982e-08)
(2.18729e-08 -7.33783e-08 3.46072e-08)
(2.11407e-08 -7.73308e-08 3.75994e-08)
(1.90318e-08 -7.86768e-08 3.99492e-08)
(1.59787e-08 -7.69352e-08 4.15643e-08)
(1.60162e-09 -3.54983e-09 1.19823e-09)
(4.45402e-09 -9.94892e-09 3.38057e-09)
(7.04016e-09 -1.59643e-08 5.49454e-09)
(9.42902e-09 -2.18499e-08 7.66045e-09)
(1.16779e-08 -2.7808e-08 9.97986e-09)
(1.38311e-08 -3.39921e-08 1.25383e-08)
(1.59218e-08 -4.05096e-08 1.54039e-08)
(1.797e-08 -4.74207e-08 1.86221e-08)
(1.99802e-08 -5.47347e-08 2.22033e-08)
(2.19389e-08 -6.24008e-08 2.61062e-08)
(2.38127e-08 -7.02935e-08 3.02127e-08)
(2.55504e-08 -7.81821e-08 3.43028e-08)
(2.71052e-08 -8.56761e-08 3.80493e-08)
(2.8476e-08 -9.21136e-08 4.10883e-08)
(2.97178e-08 -9.63897e-08 4.31834e-08)
(3.06296e-08 -9.71931e-08 4.43772e-08)
(1.75916e-09 -3.74988e-09 1.30646e-09)