/*--------------------------------*- C++ -*----------------------------------*\
| =========                 |                                                 |
| \\      /  F ield         | OpenFOAM: The Open Source CFD Toolbox           |
|  \\    /   O peration     | Version:  v1912                                 |
|   \\  /    A nd           | Website:  www.openfoam.com                      |
|    \\/     M anipulation  |                                                 |
\*---------------------------------------------------------------------------*/
FoamFile
{
    version     2.0;
    format      ascii;
    class       pointVectorField;
    location    "0.66/fluid";
    object      pointMotionU;
}
// * * * * * * * * * * * * * * * * * * * * * * * * * * * * * * * * * * * * * //

dimensions      [0 1 -1 0 0 0 0];


internalField   nonuniform List<vector> 
16859
(
(0 0 0)
(0 0 0)
(0 0 0)
(0 0 0)
(0 0 0)
(0 0 0)
(0 0 0)
(0 0 0)
(0 0 0)
(0 0 0)
(0 0 0)
(0 0 0)
(0 0 0)
(0 0 0)
(0 0 0)
(0 0 0)
(1.83752e-08 3.13293e-08 1.9182e-08)
(0 0 0)
(5.3659e-10 -1.19071e-09 9.34113e-10)
(1.02487e-09 -2.27783e-09 1.82045e-09)
(1.48456e-09 -3.30403e-09 2.72285e-09)
(1.93377e-09 -4.30037e-09 3.69788e-09)
(2.39029e-09 -5.28504e-09 4.79815e-09)
(2.87334e-09 -6.26104e-09 6.07459e-09)
(3.40609e-09 -7.21168e-09 7.57779e-09)
(4.01989e-09 -8.09201e-09 9.35897e-09)
(4.76198e-09 -8.81317e-09 1.14703e-08)
(5.71153e-09 -9.21393e-09 1.39669e-08)
(7.01345e-09 -9.00759e-09 1.69159e-08)
(8.95357e-09 -7.67557e-09 2.04342e-08)
(1.21e-08 -4.25605e-09 2.47917e-08)
(1.74712e-08 2.98368e-09 3.06162e-08)
(2.54902e-08 1.51912e-08 3.82418e-08)
(3.81093e-08 3.96812e-08 4.74787e-08)
(0 0 0)
(1.06026e-09 -2.34632e-09 1.84406e-09)
(2.02461e-09 -4.49003e-09 3.59318e-09)
(2.93142e-09 -6.51647e-09 5.37266e-09)
(3.81575e-09 -8.48843e-09 7.29331e-09)
(4.71202e-09 -1.04449e-08 9.45829e-09)
(5.65692e-09 -1.23969e-08 1.19674e-08)
(6.69355e-09 -1.43204e-08 1.49194e-08)
(7.87765e-09 -1.61419e-08 1.84135e-08)
(9.28815e-09 -1.77146e-08 2.25474e-08)
(1.10462e-08 -1.87787e-08 2.74147e-08)
(1.33513e-08 -1.89003e-08 3.31029e-08)
(1.65477e-08 -1.73894e-08 3.97061e-08)
(2.11954e-08 -1.32493e-08 4.73498e-08)
(2.79778e-08 -5.40175e-09 5.61702e-08)
(3.62111e-08 5.20653e-09 6.52578e-08)
(5.07851e-08 2.036e-08 7.9673e-08)
(0 0 0)
(1.559e-09 -3.43219e-09 2.70753e-09)
(2.97586e-09 -6.5715e-09 5.27414e-09)
(4.30575e-09 -9.54587e-09 7.88223e-09)
(5.5989e-09 -1.24514e-08 1.06928e-08)
(6.9043e-09 -1.5352e-08 1.38558e-08)
(8.27343e-09 -1.82753e-08 1.75163e-08)
(9.76481e-09 -2.12048e-08 2.18181e-08)
(1.14501e-08 -2.40648e-08 2.69046e-08)
(1.34226e-08 -2.66959e-08 3.29154e-08)
(1.58088e-08 -2.88168e-08 3.99754e-08)
(1.87866e-08 -2.99768e-08 4.81764e-08)
(2.26102e-08 -2.95187e-08 5.75513e-08)
(2.76068e-08 -2.66409e-08 6.80313e-08)
(3.40281e-08 -2.07837e-08 7.93497e-08)
(4.0968e-08 -1.32388e-08 9.00575e-08)
(5.23713e-08 -2.9636e-09 1.04717e-07)
(0 0 0)
(2.02172e-09 -4.41296e-09 3.50395e-09)
(3.85703e-09 -8.45498e-09 6.82265e-09)
(5.57547e-09 -1.22959e-08 1.01893e-08)
(7.24e-09 -1.60663e-08 1.38093e-08)
(8.91171e-09 -1.98593e-08 1.78739e-08)
(1.06538e-08 -2.37277e-08 2.2568e-08)
(1.25363e-08 -2.76786e-08 2.80755e-08)
(1.46409e-08 -3.16609e-08 3.45805e-08)
(1.70657e-08 -3.55457e-08 4.22634e-08)
(1.99275e-08 -3.90952e-08 5.12842e-08)
(2.33589e-08 -4.19238e-08 6.17522e-08)
(2.7495e-08 -4.34647e-08 7.36708e-08)
(3.24134e-08 -4.29965e-08 8.6831e-08)
(3.79819e-08 -3.98714e-08 1.00614e-07)
(4.32167e-08 -3.46601e-08 1.1291e-07)
(5.1636e-08 -2.53979e-08 1.27644e-07)
(0 0 0)
(2.43906e-09 -5.25377e-09 4.21607e-09)
(4.65e-09 -1.00736e-08 8.20454e-09)
(6.71371e-09 -1.4669e-08 1.22414e-08)
(8.70313e-09 -1.92049e-08 1.65694e-08)
(1.06886e-08 -2.38059e-08 2.14135e-08)
(1.27421e-08 -2.85567e-08 2.69914e-08)
(1.49422e-08 -3.35e-08 3.35201e-08)
(1.73782e-08 -3.863e-08 4.12192e-08)
(2.01536e-08 -4.38816e-08 5.0308e-08)
(2.33833e-08 -4.91092e-08 6.09906e-08)
(2.71847e-08 -5.40549e-08 7.34266e-08)
(3.16468e-08 -5.82991e-08 8.76686e-08)
(3.67448e-08 -6.11806e-08 1.03521e-07)
(4.21653e-08 -6.17178e-08 1.20232e-07)
(4.67873e-08 -5.91984e-08 1.35052e-07)
(5.36811e-08 -4.94805e-08 1.51303e-07)
(0 0 0)
(2.80379e-09 -5.9214e-09 4.83076e-09)
(5.34083e-09 -1.1363e-08 9.39391e-09)
(7.70004e-09 -1.657e-08 1.39992e-08)
(9.9612e-09 -2.17389e-08 1.89177e-08)
(1.22007e-08 -2.70253e-08 2.43997e-08)
(1.44963e-08 -3.25478e-08 3.06863e-08)
(1.69321e-08 -3.83897e-08 3.80179e-08)
(1.9604e-08 -4.46009e-08 4.66399e-08)
(2.2624e-08 -5.11961e-08 5.68035e-08)
(2.61221e-08 -5.81503e-08 6.87578e-08)
(3.02467e-08 -6.53873e-08 8.27359e-08)
(3.51533e-08 -7.27479e-08 9.89174e-08)
(4.09487e-08 -7.98851e-08 1.17315e-07)
(4.75122e-08 -8.59879e-08 1.37426e-07)
(5.3632e-08 -8.93327e-08 1.56144e-07)
(6.23535e-08 -8.28025e-08 1.77185e-07)
(0 0 0)
(3.11104e-09 -6.38584e-09 5.33958e-09)
(5.92041e-09 -1.2265e-08 1.03744e-08)
(8.52145e-09 -1.79116e-08 1.5438e-08)
(1.09973e-08 -2.35483e-08 2.08202e-08)
(1.3427e-08 -2.93578e-08 2.67864e-08)
(1.58902e-08 -3.54889e-08 3.35905e-08)
(1.84728e-08 -4.20629e-08 4.14837e-08)
(2.12734e-08 -4.91805e-08 5.07222e-08)
(2.44103e-08 -5.69302e-08 6.1571e-08)
(2.8031e-08 -6.53989e-08 7.43049e-08)
(3.23281e-08 -7.46894e-08 8.92119e-08)
(3.7567e-08 -8.49459e-08 1.06598e-07)
(4.41079e-08 -9.6357e-08 1.26758e-07)
(5.23427e-08 -1.09022e-07 1.49754e-07)
(6.1419e-08 -1.21429e-07 1.72789e-07)
(7.72961e-08 -1.35514e-07 2.02514e-07)
(0 0 0)
(3.35863e-09 -6.6222e-09 5.7393e-09)
(6.38514e-09 -1.27314e-08 1.11406e-08)
(9.17353e-09 -1.8621e-08 1.65505e-08)
(1.18067e-08 -2.45323e-08 2.22678e-08)
(1.43624e-08 -3.06673e-08 2.85627e-08)
(1.69181e-08 -3.71971e-08 3.569e-08)
(1.95561e-08 -4.42707e-08 4.38976e-08)
(2.23705e-08 -5.20236e-08 5.34335e-08)
(2.54742e-08 -6.05897e-08 6.45499e-08)
(2.9011e-08 -7.01163e-08 7.7505e-08)
(3.31737e-08 -8.07896e-08 9.25705e-08)
(3.82337e-08 -9.28737e-08 1.10043e-07)
(4.45632e-08 -1.0675e-07 1.30242e-07)
(5.25563e-08 -1.2287e-07 1.53389e-07)
(6.11543e-08 -1.39513e-07 1.76606e-07)
(8.5027e-08 -1.69793e-07 2.15414e-07)
(0 0 0)
(0 0 0)
(0 0 0)
(0 0 0)
(0 0 0)
(0 0 0)
(0 0 0)
(0 0 0)
(0 0 0)
(0 0 0)
(0 0 0)
(0 0 0)
(0 0 0)
(0 0 0)
(0 0 0)
(0 0 0)
(1.12081e-08 1.59252e-08 8.72208e-09)
(0 0 0)
(5.41071e-10 -1.21827e-09 9.04225e-10)
(1.03275e-09 -2.33077e-09 1.76086e-09)
(1.49441e-09 -3.3818e-09 2.63072e-09)
(1.94362e-09 -4.40392e-09 3.56742e-09)
(2.39725e-09 -5.41673e-09 4.62034e-09)
(2.87283e-09 -6.42466e-09 5.83633e-09)
(3.39071e-09 -7.41282e-09 7.26053e-09)
(3.97764e-09 -8.3393e-09 8.9363e-09)
(4.67339e-09 -9.12116e-09 1.09036e-08)
(5.54529e-09 -9.60952e-09 1.31961e-08)
(6.72039e-09 -9.54423e-09 1.58407e-08)
(8.45697e-09 -8.46621e-09 1.8868e-08)
(1.1278e-08 -5.54925e-09 2.23481e-08)
(1.60869e-08 5.92532e-10 2.64197e-08)
(2.32379e-08 1.07625e-08 3.08222e-08)
(3.10599e-08 2.35552e-08 3.22913e-08)
(0 0 0)
(1.06927e-09 -2.40042e-09 1.78501e-09)
(2.04056e-09 -4.594e-09 3.47551e-09)
(2.95164e-09 -6.66934e-09 5.19093e-09)
(3.83663e-09 -8.69217e-09 7.03633e-09)
(4.72818e-09 -1.07041e-08 9.1085e-09)
(5.65986e-09 -1.27189e-08 1.14993e-08)
(6.66953e-09 -1.47155e-08 1.42973e-08)
(7.8043e-09 -1.66259e-08 1.75866e-08)
(9.12901e-09 -1.83133e-08 2.14431e-08)
(1.07425e-08 -1.95384e-08 2.59237e-08)
(1.28107e-08 -1.99116e-08 3.10517e-08)
(1.56293e-08 -1.88379e-08 3.67981e-08)
(1.96994e-08 -1.55195e-08 4.30507e-08)
(2.56456e-08 -9.28277e-09 4.95135e-08)
(3.3068e-08 -1.1966e-09 5.52477e-08)
(4.1378e-08 3.7889e-09 5.96209e-08)
(0 0 0)
(1.57271e-09 -3.51105e-09 2.62084e-09)
(3.00037e-09 -6.72316e-09 5.10155e-09)
(4.33746e-09 -9.76907e-09 7.61602e-09)
(5.63301e-09 -1.27491e-08 1.0317e-08)
(6.9337e-09 -1.57309e-08 1.33451e-08)
(8.28694e-09 -1.87456e-08 1.68343e-08)
(9.74433e-09 -2.17807e-08 2.09136e-08)
(1.13661e-08 -2.47668e-08 2.57066e-08)
(1.32264e-08 -2.75557e-08 3.13237e-08)
(1.54214e-08 -2.98893e-08 3.78446e-08)
(1.80819e-08 -3.13647e-08 4.52875e-08)
(2.13941e-08 -3.14262e-08 5.35584e-08)
(2.56052e-08 -2.94778e-08 6.23707e-08)
(3.09191e-08 -2.53487e-08 7.11065e-08)
(3.67871e-08 -2.04419e-08 7.84599e-08)
(4.24665e-08 -1.84165e-08 8.32144e-08)
(0 0 0)
(2.04036e-09 -4.51405e-09 3.39191e-09)
(3.89074e-09 -8.64955e-09 6.5998e-09)
(5.62004e-09 -1.25825e-08 9.84605e-09)
(7.29002e-09 -1.64489e-08 1.33256e-08)
(8.95928e-09 -2.03462e-08 1.72179e-08)
(1.06867e-08 -2.43317e-08 2.1694e-08)
(1.25346e-08 -2.84165e-08 2.69199e-08)
(1.45721e-08 -3.25556e-08 3.30558e-08)
(1.68763e-08 -3.663e-08 4.02481e-08)
(1.95289e-08 -4.04207e-08 4.86076e-08)
(2.26076e-08 -4.35802e-08 5.81678e-08)
(2.61628e-08 -4.56192e-08 6.88112e-08)
(3.01639e-08 -4.5969e-08 8.01352e-08)
(3.44025e-08 -4.42689e-08 9.12178e-08)
(3.82531e-08 -4.11994e-08 1.00168e-07)
(4.16303e-08 -3.95782e-08 1.05227e-07)
(0 0 0)
(2.46284e-09 -5.37387e-09 4.08158e-09)
(4.69346e-09 -1.03049e-08 7.93732e-09)
(6.77237e-09 -1.501e-08 1.18306e-08)
(8.77151e-09 -1.96604e-08 1.59915e-08)
(1.0759e-08 -2.43858e-08 2.06316e-08)
(1.28028e-08 -2.92757e-08 2.59526e-08)
(1.49744e-08 -3.43768e-08 3.21511e-08)
(1.73512e-08 -3.96882e-08 3.942e-08)
(2.00166e-08 -4.51516e-08 4.79416e-08)
(2.30527e-08 -5.0633e-08 5.78682e-08)
(2.65225e-08 -5.58957e-08 6.92814e-08)
(3.04282e-08 -6.05574e-08 8.21143e-08)
(3.46218e-08 -6.40205e-08 9.59859e-08)
(3.86691e-08 -6.54144e-08 1.0985e-07)
(4.17334e-08 -6.40831e-08 1.21242e-07)
(4.34707e-08 -6.15285e-08 1.27676e-07)
(0 0 0)
(2.83277e-09 -6.0566e-09 4.67717e-09)
(5.39429e-09 -1.16235e-08 9.08909e-09)
(7.77349e-09 -1.69544e-08 1.35313e-08)
(1.00496e-08 -2.22527e-08 1.82611e-08)
(1.22973e-08 -2.768e-08 2.35138e-08)
(1.45913e-08 -3.33594e-08 2.95131e-08)
(1.701e-08 -3.93784e-08 3.64777e-08)
(1.96397e-08 -4.57902e-08 4.46244e-08)
(2.25768e-08 -5.26135e-08 5.41655e-08)
(2.59258e-08 -5.98286e-08 6.52958e-08)
(2.9794e-08 -6.73664e-08 7.81663e-08)
(3.42716e-08 -7.50751e-08 9.28296e-08)
(3.93738e-08 -8.26057e-08 1.09095e-07)
(4.4878e-08 -8.90988e-08 1.26116e-07)
(4.98119e-08 -9.28142e-08 1.41108e-07)
(5.21715e-08 -9.04246e-08 1.51149e-07)
(0 0 0)
(3.14508e-09 -6.5316e-09 5.17052e-09)
(5.98368e-09 -1.25461e-08 1.00393e-08)
(8.60962e-09 -1.83266e-08 1.49246e-08)
(1.1106e-08 -2.41037e-08 2.01016e-08)
(1.3551e-08 -3.0066e-08 2.58201e-08)
(1.60223e-08 -3.63673e-08 3.23157e-08)
(1.8602e-08 -4.31325e-08 3.98174e-08)
(2.13824e-08 -5.0465e-08 4.85524e-08)
(2.44719e-08 -5.84548e-08 5.87465e-08)
(2.80029e-08 -6.71902e-08 7.06188e-08)
(3.21465e-08 -7.67752e-08 8.43728e-08)
(3.71396e-08 -8.73546e-08 1.00178e-07)
(4.33238e-08 -9.91155e-08 1.18098e-07)
(5.11119e-08 -1.12111e-07 1.37762e-07)
(6.00372e-08 -1.25016e-07 1.56657e-07)
(6.87972e-08 -1.3638e-07 1.71661e-07)
(0 0 0)
(3.39732e-09 -6.77341e-09 5.55844e-09)
(6.45751e-09 -1.30232e-08 1.07825e-08)
(9.27546e-09 -1.90524e-08 1.60032e-08)
(1.19346e-08 -2.51104e-08 2.1504e-08)
(1.45126e-08 -3.14054e-08 2.75395e-08)
(1.70861e-08 -3.81136e-08 3.43464e-08)
(1.97355e-08 -4.53871e-08 4.21507e-08)
(2.25515e-08 -5.33633e-08 5.11725e-08)
(2.56425e-08 -6.21761e-08 6.16265e-08)
(2.91458e-08 -7.19712e-08 7.37183e-08)
(3.3247e-08 -8.2931e-08 8.76395e-08)
(3.82133e-08 -9.53142e-08 1.03558e-07)
(4.44309e-08 -1.09491e-07 1.21568e-07)
(5.23533e-08 -1.25848e-07 1.41465e-07)
(6.12225e-08 -1.42824e-07 1.6061e-07)
(7.70045e-08 -1.67155e-07 1.82395e-07)
(0 0 0)
(0 0 0)
(0 0 0)
(0 0 0)
(0 0 0)
(0 0 0)
(0 0 0)
(0 0 0)
(0 0 0)
(0 0 0)
(0 0 0)
(0 0 0)
(0 0 0)
(0 0 0)
(0 0 0)
(0 0 0)
(5.67006e-09 7.13361e-09 2.74363e-09)
(0 0 0)
(5.42983e-10 -1.24262e-09 8.41443e-10)
(1.0355e-09 -2.37776e-09 1.63757e-09)
(1.49602e-09 -3.45103e-09 2.44397e-09)
(1.94094e-09 -4.49623e-09 3.30923e-09)
(2.38525e-09 -5.53445e-09 4.27743e-09)
(2.84349e-09 -6.5721e-09 5.38922e-09)
(3.33098e-09 -7.59761e-09 6.68179e-09)
(3.8657e-09 -8.57548e-09 8.18724e-09)
(4.472e-09 -9.43625e-09 9.92792e-09)
(5.18854e-09 -1.00606e-08 1.19071e-08)
(6.08635e-09 -1.02553e-08 1.40926e-08)
(7.3044e-09 -9.71899e-09 1.63875e-08)
(9.0984e-09 -8.00211e-09 1.85732e-08)
(1.18046e-08 -4.56155e-09 2.01807e-08)
(1.52026e-08 4.1752e-10 2.03741e-08)
(1.69014e-08 5.57201e-09 1.51581e-08)
(0 0 0)
(1.07328e-09 -2.44816e-09 1.66106e-09)
(2.04648e-09 -4.68606e-09 3.23215e-09)
(2.95577e-09 -6.8049e-09 4.82246e-09)
(3.83305e-09 -8.87289e-09 6.52732e-09)
(4.70751e-09 -1.09343e-08 8.43313e-09)
(5.60712e-09 -1.30062e-08 1.06197e-08)
(6.56038e-09 -1.50733e-08 1.31601e-08)
(7.5985e-09 -1.7078e-08 1.61175e-08)
(8.75857e-09 -1.89052e-08 1.95354e-08)
(1.00899e-08 -2.0362e-08 2.3418e-08)
(1.16673e-08 -2.11576e-08 2.76942e-08)
(1.36103e-08 -2.09088e-08 3.21527e-08)
(1.60822e-08 -1.92418e-08 3.63228e-08)
(1.91372e-08 -1.61792e-08 3.92915e-08)
(2.21175e-08 -1.30157e-08 3.98368e-08)
(2.33149e-08 -1.35076e-08 3.55836e-08)
(0 0 0)
(1.57921e-09 -3.58045e-09 2.43893e-09)
(3.0104e-09 -6.85692e-09 4.7445e-09)
(4.34596e-09 -9.96595e-09 7.07581e-09)
(5.63195e-09 -1.30113e-08 9.57148e-09)
(6.91045e-09 -1.6064e-08 1.23572e-08)
(8.22139e-09 -1.91593e-08 1.55494e-08)
(9.60404e-09 -2.2291e-08 1.92556e-08)
(1.10979e-08 -2.54009e-08 2.35695e-08)
(1.27416e-08 -2.83637e-08 2.85582e-08)
(1.45699e-08 -3.09687e-08 3.42344e-08)
(1.66053e-08 -3.29116e-08 4.05049e-08)
(1.884e-08 -3.38354e-08 4.70818e-08)
(2.11835e-08 -3.35096e-08 5.33366e-08)
(2.33366e-08 -3.22814e-08 5.81268e-08)
(2.46474e-08 -3.15407e-08 6.00345e-08)
(2.33666e-08 -3.36862e-08 5.6661e-08)
(0 0 0)
(2.04989e-09 -4.60271e-09 3.1567e-09)
(3.90614e-09 -8.82035e-09 6.13837e-09)
(5.6353e-09 -1.28338e-08 9.14858e-09)
(7.29583e-09 -1.6783e-08 1.23643e-08)
(8.94111e-09 -2.07695e-08 1.59461e-08)
(1.06216e-08 -2.48542e-08 2.00431e-08)
(1.23859e-08 -2.90536e-08 2.47939e-08)
(1.42803e-08 -3.33317e-08 3.03226e-08)
(1.63428e-08 -3.75868e-08 3.67231e-08)
(1.85897e-08 -4.16361e-08 4.40283e-08)
(2.09854e-08 -4.52066e-08 5.21496e-08)
(2.33836e-08 -4.79597e-08 6.07721e-08)
(2.5426e-08 -4.96102e-08 6.91782e-08)
(2.64489e-08 -5.02329e-08 7.60246e-08)
(2.58058e-08 -5.0618e-08 7.95034e-08)
(2.2201e-08 -5.27846e-08 7.6878e-08)
(0 0 0)
(2.47594e-09 -5.47876e-09 3.79893e-09)
(4.71549e-09 -1.05069e-08 7.38322e-09)
(6.79685e-09 -1.5307e-08 1.0994e-08)
(8.78866e-09 -2.00548e-08 1.48404e-08)
(1.07538e-08 -2.48839e-08 1.91118e-08)
(1.27518e-08 -2.98867e-08 2.39842e-08)
(1.48405e-08 -3.51133e-08 2.96231e-08)
(1.70746e-08 -4.05672e-08 3.61791e-08)
(1.94996e-08 -4.6198e-08 4.37747e-08)
(2.21339e-08 -5.18882e-08 5.24729e-08)
(2.49303e-08 -5.74375e-08 6.22171e-08)
(2.7698e-08 -6.25419e-08 7.27198e-08)
(2.99627e-08 -6.67718e-08 8.32581e-08)
(3.08238e-08 -6.95927e-08 9.23641e-08)
(2.93962e-08 -7.06755e-08 9.77884e-08)
(2.39629e-08 -7.14703e-08 9.62928e-08)
(0 0 0)
(2.84988e-09 -6.17416e-09 4.35385e-09)
(5.42402e-09 -1.18499e-08 8.45584e-09)
(7.80927e-09 -1.72871e-08 1.25767e-08)
(1.00819e-08 -2.2694e-08 1.69501e-08)
(1.23118e-08 -2.82357e-08 2.17871e-08)
(1.45659e-08 -3.40375e-08 2.72834e-08)
(1.69103e-08 -4.01876e-08 3.36233e-08)
(1.94111e-08 -4.67383e-08 4.09776e-08)
(2.21306e-08 -5.37057e-08 4.94922e-08)
(2.51168e-08 -6.10653e-08 5.92613e-08)
(2.83769e-08 -6.87419e-08 7.02744e-08)
(3.18206e-08 -7.65759e-08 8.23111e-08)
(3.51398e-08 -8.42202e-08 9.47254e-08)
(3.76073e-08 -9.08909e-08 1.06045e-07)
(3.81024e-08 -9.51147e-08 1.13619e-07)
(3.32373e-08 -9.4182e-08 1.13884e-07)
(0 0 0)
(3.16645e-09 -6.65782e-09 4.81387e-09)
(6.02173e-09 -1.27892e-08 9.34147e-09)
(8.658e-09 -1.86837e-08 1.38744e-08)
(1.11559e-08 -2.45772e-08 1.86628e-08)
(1.35896e-08 -3.06613e-08 2.39308e-08)
(1.60303e-08 -3.70908e-08 2.9885e-08)
(1.85498e-08 -4.39892e-08 3.67187e-08)
(2.12237e-08 -5.14545e-08 4.46112e-08)
(2.41326e-08 -5.95653e-08 5.37191e-08)
(2.7362e-08 -6.83883e-08 6.41538e-08)
(3.09994e-08 -7.79867e-08 7.59384e-08)
(3.51236e-08 -8.84239e-08 8.89165e-08)
(3.97721e-08 -9.97251e-08 1.02547e-07)
(4.48138e-08 -1.11654e-07 1.15445e-07)
(4.94366e-08 -1.22697e-07 1.2467e-07)
(5.17468e-08 -1.31183e-07 1.25537e-07)
(0 0 0)
(3.42296e-09 -6.90391e-09 5.17597e-09)
(6.50398e-09 -1.32746e-08 1.0035e-08)
(9.33681e-09 -1.94219e-08 1.48803e-08)
(1.2003e-08 -2.56003e-08 1.997e-08)
(1.45772e-08 -3.20208e-08 2.55327e-08)
(1.71309e-08 -3.886e-08 3.17761e-08)
(1.97367e-08 -4.62669e-08 3.88913e-08)
(2.24724e-08 -5.43706e-08 4.7052e-08)
(2.5425e-08 -6.32886e-08 5.64062e-08)
(2.86964e-08 -7.31356e-08 6.7056e-08)
(3.24083e-08 -8.40366e-08 7.90189e-08)
(3.6705e-08 -9.61392e-08 9.2148e-08)
(4.17352e-08 -1.09596e-07 1.05954e-07)
(4.75196e-08 -1.24395e-07 1.1923e-07)
(5.30935e-08 -1.38731e-07 1.29071e-07)
(6.15875e-08 -1.57176e-07 1.29654e-07)
(0 0 0)
(0 0 0)
(0 0 0)
(0 0 0)
(0 0 0)
(0 0 0)
(0 0 0)
(0 0 0)
(0 0 0)
(0 0 0)
(0 0 0)
(0 0 0)
(0 0 0)
(0 0 0)
(0 0 0)
(0 0 0)
(2.40447e-09 2.95999e-09 1.69174e-09)
(0 0 0)
(5.42798e-10 -1.26335e-09 7.48919e-10)
(1.03403e-09 -2.41777e-09 1.45666e-09)
(1.49101e-09 -3.50999e-09 2.17183e-09)
(1.92852e-09 -4.57494e-09 2.93646e-09)
(2.35923e-09 -5.63503e-09 3.78792e-09)
(2.79396e-09 -6.69873e-09 4.75943e-09)
(3.24199e-09 -7.75816e-09 5.87935e-09)
(3.71122e-09 -8.78507e-09 7.1683e-09)
(4.20853e-09 -9.72488e-09 8.63267e-09)
(4.74157e-09 -1.0489e-08 1.0252e-08)
(5.32399e-09 -1.09478e-08 1.19566e-08)
(5.98579e-09 -1.09293e-08 1.35903e-08)
(6.77924e-09 -1.02304e-08 1.48476e-08)
(7.7316e-09 -8.67619e-09 1.52068e-08)
(8.61511e-09 -6.4373e-09 1.41399e-08)
(8.33077e-09 -3.0954e-09 1.05844e-08)
(0 0 0)
(1.07321e-09 -2.48878e-09 1.47846e-09)
(2.04424e-09 -4.76439e-09 2.87518e-09)
(2.94703e-09 -6.92019e-09 4.28565e-09)
(3.81053e-09 -9.02647e-09 5.79239e-09)
(4.65954e-09 -1.11298e-08 7.46866e-09)
(5.51514e-09 -1.32509e-08 9.3798e-09)
(6.39474e-09 -1.53802e-08 1.15818e-08)
(7.31123e-09 -1.7472e-08 1.41159e-08)
(8.27094e-09 -1.94347e-08 1.69959e-08)
(9.27069e-09 -2.11222e-08 2.01843e-08)
(1.02945e-08 -2.23362e-08 2.35508e-08)
(1.13075e-08 -2.28611e-08 2.68039e-08)
(1.22338e-08 -2.25804e-08 2.93946e-08)
(1.28893e-08 -2.17256e-08 3.04664e-08)
(1.29494e-08 -2.11039e-08 2.93746e-08)
(1.22732e-08 -2.23132e-08 2.67362e-08)
(0 0 0)
(1.57984e-09 -3.6394e-09 2.17095e-09)
(3.00868e-09 -6.97048e-09 4.22079e-09)
(4.3359e-09 -1.01328e-08 6.28869e-09)
(5.60359e-09 -1.32329e-08 8.49467e-09)
(6.84792e-09 -1.63446e-08 1.09455e-08)
(8.09963e-09 -1.9507e-08 1.37366e-08)
(9.38342e-09 -2.27201e-08 1.69509e-08)
(1.07151e-08 -2.59378e-08 2.06511e-08)
(1.20947e-08 -2.90582e-08 2.48631e-08)
(1.34936e-08 -3.19173e-08 2.95446e-08)
(1.48322e-08 -3.42983e-08 3.45313e-08)
(1.59434e-08 -3.59938e-08 3.94554e-08)
(1.6525e-08 -3.69741e-08 4.3648e-08)
(1.61405e-08 -3.76774e-08 4.61362e-08)
(1.46111e-08 -3.89582e-08 4.62352e-08)
(1.19783e-08 -4.17138e-08 4.47658e-08)
(0 0 0)
(2.05196e-09 -4.67781e-09 2.81011e-09)
(3.90662e-09 -8.96487e-09 5.46137e-09)
(5.62705e-09 -1.30457e-08 8.13185e-09)
(7.2671e-09 -1.70633e-08 1.09749e-08)
(8.87342e-09 -2.1122e-08 1.41269e-08)
(1.0486e-08 -2.52859e-08 1.77107e-08)
(1.21372e-08 -2.9576e-08 2.18337e-08)
(1.3847e-08 -3.39643e-08 2.65805e-08)
(1.56122e-08 -3.83652e-08 3.19941e-08)
(1.73831e-08 -4.26282e-08 3.80398e-08)
(1.90221e-08 -4.6541e-08 4.45465e-08)
(2.0234e-08 -4.98687e-08 5.11168e-08)
(2.04813e-08 -5.24666e-08 5.70233e-08)
(1.90268e-08 -5.4482e-08 6.11974e-08)
(1.57338e-08 -5.63503e-08 6.27439e-08)
(1.10941e-08 -5.89597e-08 6.23809e-08)
(0 0 0)
(2.48025e-09 -5.56731e-09 3.38225e-09)
(4.71998e-09 -1.06771e-08 6.56982e-09)
(6.79371e-09 -1.5556e-08 9.7737e-09)
(8.76536e-09 -2.03829e-08 1.31751e-08)
(1.06908e-08 -2.52937e-08 1.69353e-08)
(1.2619e-08 -3.03825e-08 2.11994e-08)
(1.45911e-08 -3.57003e-08 2.60961e-08)
(1.66361e-08 -4.12525e-08 3.173e-08)
(1.87586e-08 -4.69923e-08 3.81624e-08)
(2.09139e-08 -5.28114e-08 4.53752e-08)
(2.29583e-08 -5.85289e-08 5.32087e-08)
(2.4562e-08 -6.38782e-08 6.12659e-08)
(2.50863e-08 -6.84885e-08 6.87918e-08)
(2.35723e-08 -7.18791e-08 7.46206e-08)
(1.96311e-08 -7.36069e-08 7.75923e-08)
(1.33358e-08 -7.42728e-08 7.83182e-08)
(0 0 0)
(2.85715e-09 -6.27305e-09 3.87691e-09)
(5.43413e-09 -1.20398e-08 7.52549e-09)
(7.81426e-09 -1.75644e-08 1.11827e-08)
(1.00692e-08 -2.30582e-08 1.50514e-08)
(1.22624e-08 -2.86877e-08 1.93111e-08)
(1.44505e-08 -3.45779e-08 2.41236e-08)
(1.66844e-08 -4.08145e-08 2.96329e-08)
(1.9006e-08 -4.74441e-08 3.5958e-08)
(2.14407e-08 -5.44727e-08 4.31754e-08)
(2.39786e-08 -6.18594e-08 5.12831e-08)
(2.65384e-08 -6.95018e-08 6.01384e-08)
(2.88979e-08 -7.71962e-08 6.9355e-08)
(3.05842e-08 -8.45302e-08 7.81543e-08)
(3.07915e-08 -9.06548e-08 8.52462e-08)
(2.88675e-08 -9.41432e-08 8.91719e-08)
(2.3268e-08 -9.19615e-08 9.07005e-08)
(0 0 0)
(3.17722e-09 -6.76361e-09 4.28727e-09)
(6.03871e-09 -1.29922e-08 8.31523e-09)
(8.67343e-09 -1.89799e-08 1.23392e-08)
(1.1158e-08 -2.4965e-08 1.65764e-08)
(1.35606e-08 -3.11401e-08 2.12178e-08)
(1.59435e-08 -3.76581e-08 2.64345e-08)
(1.83653e-08 -4.46363e-08 3.23776e-08)
(2.08805e-08 -5.2161e-08 3.91723e-08)
(2.35377e-08 -6.02893e-08 4.69009e-08)
(2.63726e-08 -6.90504e-08 5.55685e-08)
(2.93935e-08 -7.8442e-08 6.5041e-08)
(3.25555e-08 -8.84124e-08 7.49359e-08)
(3.57238e-08 -9.87943e-08 8.44399e-08)
(3.86338e-08 -1.09096e-07 9.20863e-08)
(4.08405e-08 -1.17841e-07 9.59846e-08)
(4.23691e-08 -1.23129e-07 9.63846e-08)
(0 0 0)
(3.43752e-09 -7.01293e-09 4.61062e-09)
(6.5285e-09 -1.34838e-08 8.93435e-09)
(9.36399e-09 -1.97269e-08 1.32369e-08)
(1.20222e-08 -2.59991e-08 1.77424e-08)
(1.45726e-08 -3.25117e-08 2.26461e-08)
(1.70795e-08 -3.9438e-08 2.81204e-08)
(1.96043e-08 -4.69189e-08 3.43147e-08)
(2.22076e-08 -5.50679e-08 4.13499e-08)
(2.49506e-08 -6.39745e-08 4.93018e-08)
(2.78942e-08 -7.37056e-08 5.81679e-08)
(3.10947e-08 -8.43043e-08 6.78083e-08)
(3.45922e-08 -9.57787e-08 7.78407e-08)
(3.83848e-08 -1.08058e-07 8.74634e-08)
(4.23519e-08 -1.20846e-07 9.52434e-08)
(4.58359e-08 -1.32477e-07 9.91943e-08)
(5.2165e-08 -1.46822e-07 9.64436e-08)
(0 0 0)
(0 0 0)
(0 0 0)
(0 0 0)
(0 0 0)
(0 0 0)
(0 0 0)
(0 0 0)
(0 0 0)
(0 0 0)
(0 0 0)
(0 0 0)
(0 0 0)
(0 0 0)
(0 0 0)
(0 0 0)
(1.02794e-09 1.31451e-09 1.82952e-09)
(0 0 0)
(5.41183e-10 -1.28024e-09 6.30663e-10)
(1.02977e-09 -2.45032e-09 1.22602e-09)
(1.48181e-09 -3.55794e-09 1.82632e-09)
(1.9104e-09 -4.63889e-09 2.46598e-09)
(2.3258e-09 -5.7167e-09 3.17492e-09)
(2.73518e-09 -6.80149e-09 3.97868e-09)
(3.14218e-09 -7.8885e-09 4.89738e-09)
(3.5459e-09 -8.95545e-09 5.94252e-09)
(3.93926e-09 -9.95917e-09 7.11046e-09)
(4.30777e-09 -1.08325e-08 8.37117e-09)
(4.63049e-09 -1.14842e-08 9.65082e-09)
(4.88557e-09 -1.18044e-08 1.08087e-08)
(5.06071e-09 -1.16703e-08 1.16171e-08)
(5.15734e-09 -1.09418e-08 1.17879e-08)
(5.15835e-09 -9.5569e-09 1.12052e-08)
(4.73881e-09 -6.38659e-09 9.51339e-09)
(0 0 0)
(1.07035e-09 -2.52185e-09 1.24508e-09)
(2.03654e-09 -4.82811e-09 2.42008e-09)
(2.9301e-09 -7.01385e-09 3.60409e-09)
(3.77681e-09 -9.15092e-09 4.86468e-09)
(4.59694e-09 -1.12878e-08 6.26053e-09)
(5.40482e-09 -1.34479e-08 7.84202e-09)
(6.20753e-09 -1.56267e-08 9.64905e-09)
(7.00211e-09 -1.77876e-08 1.1705e-08)
(7.77056e-09 -1.98567e-08 1.40048e-08)
(8.47323e-09 -2.172e-08 1.64937e-08)
(9.04234e-09 -2.32322e-08 1.90362e-08)
(9.37933e-09 -2.42522e-08 2.1377e-08)
(9.36641e-09 -2.47213e-08 2.31142e-08)
(8.91893e-09 -2.47764e-08 2.37742e-08)
(8.16318e-09 -2.47682e-08 2.32539e-08)
(7.7688e-09 -2.55266e-08 2.24833e-08)
(0 0 0)
(1.5764e-09 -3.68736e-09 1.8284e-09)
(2.99902e-09 -7.06275e-09 3.55302e-09)
(4.31388e-09 -1.0268e-08 5.2891e-09)
(5.55878e-09 -1.34115e-08 7.13495e-09)
(6.76381e-09 -1.65694e-08 9.17616e-09)
(7.95071e-09 -1.97835e-08 1.14866e-08)
(9.13062e-09 -2.30585e-08 1.41256e-08)
(1.0299e-08 -2.63572e-08 1.713e-08)
(1.14261e-08 -2.95942e-08 2.04983e-08)
(1.2441e-08 -3.26345e-08 2.41634e-08)
(1.32106e-08 -3.5308e-08 2.79545e-08)
(1.35174e-08 -3.74635e-08 3.15541e-08)
(1.30661e-08 -3.90916e-08 3.44859e-08)
(1.16222e-08 -4.0489e-08 3.62392e-08)
(9.52859e-09 -4.2105e-08 3.67231e-08)
(7.63349e-09 -4.44338e-08 3.69322e-08)
(0 0 0)
(2.04881e-09 -4.73879e-09 2.36698e-09)
(3.89689e-09 -9.08195e-09 4.59787e-09)
(5.60334e-09 -1.32165e-08 6.84018e-09)
(7.21704e-09 -1.72877e-08 9.21953e-09)
(8.77763e-09 -2.14015e-08 1.18455e-08)
(1.03149e-08 -2.56239e-08 1.4813e-08)
(1.18459e-08 -2.99782e-08 1.81998e-08)
(1.33685e-08 -3.44412e-08 2.2057e-08)
(1.4848e-08 -3.89362e-08 2.63911e-08)
(1.61929e-08 -4.33286e-08 3.11341e-08)
(1.72184e-08 -4.74304e-08 3.6101e-08)
(1.75974e-08 -5.10326e-08 4.0947e-08)
(1.68413e-08 -5.39835e-08 4.51618e-08)
(1.44746e-08 -5.63147e-08 4.82025e-08)
(1.08858e-08 -5.8209e-08 4.98607e-08)
(7.2918e-09 -6.03291e-08 5.10348e-08)
(0 0 0)
(2.47831e-09 -5.63901e-09 2.8493e-09)
(4.7122e-09 -1.08145e-08 5.53188e-09)
(6.77198e-09 -1.57557e-08 8.22254e-09)
(8.71632e-09 -2.06436e-08 1.10699e-08)
(1.05938e-08 -2.56148e-08 1.42034e-08)
(1.24428e-08 -3.07635e-08 1.77357e-08)
(1.4289e-08 -3.61396e-08 2.17602e-08)
(1.61395e-08 -4.17464e-08 2.63411e-08)
(1.79685e-08 -4.75342e-08 3.14947e-08)
(1.96926e-08 -5.33906e-08 3.71573e-08)
(2.1128e-08 -5.91281e-08 4.314e-08)
(2.19261e-08 -6.44646e-08 4.90814e-08)
(2.1518e-08 -6.89919e-08 5.44363e-08)
(1.92278e-08 -7.21511e-08 5.86008e-08)
(1.51787e-08 -7.3432e-08 6.12325e-08)
(1.01337e-08 -7.33656e-08 6.32177e-08)
(0 0 0)
(2.85727e-09 -6.35285e-09 3.26653e-09)
(5.43021e-09 -1.21925e-08 6.33765e-09)
(7.79795e-09 -1.77856e-08 9.4097e-09)
(1.00271e-08 -2.33451e-08 1.2649e-08)
(1.21738e-08 -2.90375e-08 1.62002e-08)
(1.42848e-08 -3.49855e-08 2.01889e-08)
(1.63964e-08 -4.12697e-08 2.47195e-08)
(1.853e-08 -4.79272e-08 2.98657e-08)
(2.06831e-08 -5.49483e-08 3.5651e-08)
(2.28115e-08 -6.22664e-08 4.20149e-08)
(2.4798e-08 -6.9738e-08 4.87637e-08)
(2.64056e-08 -7.70961e-08 5.55104e-08)
(2.72283e-08 -8.38418e-08 6.16421e-08)
(2.67306e-08 -8.90546e-08 6.64223e-08)
(2.47564e-08 -9.14299e-08 6.93697e-08)
(2.04959e-08 -8.82732e-08 7.16552e-08)
(0 0 0)
(3.18009e-09 -6.8487e-09 3.61291e-09)
(6.04017e-09 -1.31548e-08 7.00401e-09)
(8.66533e-09 -1.92148e-08 1.03849e-08)
(1.11274e-08 -2.52683e-08 1.3934e-08)
(1.34881e-08 -3.15068e-08 1.78052e-08)
(1.58008e-08 -3.80788e-08 2.21315e-08)
(1.81107e-08 -4.50932e-08 2.70227e-08)
(2.04544e-08 -5.26205e-08 3.25558e-08)
(2.28561e-08 -6.06917e-08 3.87557e-08)
(2.53207e-08 -6.9293e-08 4.55598e-08)
(2.78238e-08 -7.83539e-08 5.27632e-08)
(3.03014e-08 -8.7719e-08 5.99432e-08)
(3.26631e-08 -9.70862e-08 6.63866e-08)
(3.48594e-08 -1.05867e-07 7.11259e-08)
(3.68932e-08 -1.12834e-07 7.34057e-08)
(3.95253e-08 -1.16652e-07 7.44461e-08)
(0 0 0)
(3.4436e-09 -7.10037e-09 3.88607e-09)
(6.53639e-09 -1.36508e-08 7.52689e-09)
(9.36597e-09 -1.99678e-08 1.11428e-08)
(1.20064e-08 -2.63091e-08 1.49181e-08)
(1.45216e-08 -3.28841e-08 1.90105e-08)
(1.6968e-08 -3.98607e-08 2.35541e-08)
(1.93959e-08 -4.7369e-08 2.86575e-08)
(2.18506e-08 -5.55031e-08 3.43944e-08)
(2.43727e-08 -6.43206e-08 4.07841e-08)
(2.69969e-08 -7.38376e-08 4.77562e-08)
(2.97499e-08 -8.4019e-08 5.50946e-08)
(3.26493e-08 -9.47605e-08 6.23579e-08)
(3.57118e-08 -1.05856e-07 6.87919e-08)
(3.89557e-08 -1.16932e-07 7.33391e-08)
(4.20717e-08 -1.26679e-07 7.50849e-08)
(4.89787e-08 -1.39354e-07 7.30987e-08)
(0 0 0)
(0 0 0)
(0 0 0)
(0 0 0)
(0 0 0)
(0 0 0)
(0 0 0)
(0 0 0)
(0 0 0)
(0 0 0)
(0 0 0)
(0 0 0)
(0 0 0)
(0 0 0)
(0 0 0)
(0 0 0)
(5.54041e-10 7.85332e-10 1.71361e-09)
(0 0 0)
(5.38883e-10 -1.29318e-09 4.91388e-10)
(1.02429e-09 -2.47524e-09 9.54839e-10)
(1.4711e-09 -3.59462e-09 1.42128e-09)
(1.8909e-09 -4.6878e-09 1.9169e-09)
(2.29178e-09 -5.77893e-09 2.46389e-09)
(2.67789e-09 -6.87934e-09 3.08055e-09)
(3.04854e-09 -7.98633e-09 3.78014e-09)
(3.39667e-09 -9.08144e-09 4.56819e-09)
(3.70684e-09 -1.0128e-08 5.43737e-09)
(3.95414e-09 -1.10695e-08 6.3597e-09)
(4.10658e-09 -1.18295e-08 7.27688e-09)
(4.13604e-09 -1.23128e-08 8.09257e-09)
(4.0429e-09 -1.23954e-08 8.67768e-09)
(3.88903e-09 -1.18855e-08 8.91639e-09)
(3.7817e-09 -1.05984e-08 8.81684e-09)
(3.57257e-09 -7.26e-09 7.9769e-09)
(0 0 0)
(1.06613e-09 -2.54724e-09 9.7017e-10)
(2.02643e-09 -4.87699e-09 1.88492e-09)
(2.91014e-09 -7.08557e-09 2.80502e-09)
(3.74016e-09 -9.24593e-09 3.78179e-09)
(4.53279e-09 -1.14077e-08 4.85888e-09)
(5.29673e-09 -1.35962e-08 6.07241e-09)
(6.03115e-09 -1.58099e-08 7.44882e-09)
(6.7221e-09 -1.80181e-08 8.99969e-09)
(7.33737e-09 -2.01563e-08 1.07123e-08)
(7.82121e-09 -2.2125e-08 1.25354e-08)
(8.09305e-09 -2.3797e-08 1.4362e-08)
(8.06011e-09 -2.50403e-08 1.60158e-08)
(7.66224e-09 -2.57629e-08 1.72622e-08)
(6.9738e-09 -2.59695e-08 1.78894e-08)
(6.33219e-09 -2.58182e-08 1.79163e-08)
(6.48896e-09 -2.60124e-08 1.78019e-08)
(0 0 0)
(1.57094e-09 -3.72422e-09 1.42482e-09)
(2.98572e-09 -7.13353e-09 2.76761e-09)
(4.28718e-09 -1.03713e-08 4.11687e-09)
(5.5092e-09 -1.35473e-08 5.54729e-09)
(6.67652e-09 -1.67388e-08 7.1226e-09)
(7.80341e-09 -1.99894e-08 8.89586e-09)
(8.89066e-09 -2.33063e-08 1.09066e-08)
(9.91989e-09 -2.66568e-08 1.3174e-08)
(1.08444e-08 -2.99633e-08 1.56843e-08)
(1.15767e-08 -3.31015e-08 1.83725e-08)
(1.19774e-08 -3.59114e-08 2.11022e-08)
(1.18562e-08 -3.82367e-08 2.36536e-08)
(1.10234e-08 -4.00115e-08 2.57499e-08)
(9.47129e-09 -4.13849e-08 2.71706e-08)
(7.7532e-09 -4.2665e-08 2.79385e-08)
(6.70627e-09 -4.43783e-08 2.84761e-08)
(0 0 0)
(2.04295e-09 -4.78563e-09 1.84474e-09)
(3.88222e-09 -9.17164e-09 3.58195e-09)
(5.57312e-09 -1.33467e-08 5.32488e-09)
(7.15995e-09 -1.74574e-08 7.16901e-09)
(8.67619e-09 -2.16102e-08 9.19598e-09)
(1.01431e-08 -2.58719e-08 1.14742e-08)
(1.15662e-08 -3.02663e-08 1.40557e-08)
(1.29284e-08 -3.47708e-08 1.69679e-08)
(1.41781e-08 -3.931e-08 2.01996e-08)
(1.52099e-08 -4.37497e-08 2.36803e-08)
(1.58417e-08 -4.78982e-08 2.72582e-08)
(1.57942e-08 -5.15254e-08 3.06912e-08)
(1.47201e-08 -5.44186e-08 3.36817e-08)
(1.24071e-08 -5.64967e-08 3.59975e-08)
(9.42614e-09 -5.78962e-08 3.75828e-08)
(6.8881e-09 -5.93763e-08 3.87683e-08)
(0 0 0)
(2.47294e-09 -5.69398e-09 2.22096e-09)
(4.69811e-09 -1.09194e-08 4.31022e-09)
(6.74174e-09 -1.59073e-08 6.40199e-09)
(8.65762e-09 -2.08392e-08 8.60924e-09)
(1.04879e-08 -2.5852e-08 1.10286e-08)
(1.2262e-08 -3.10384e-08 1.37414e-08)
(1.39942e-08 -3.64457e-08 1.68102e-08)
(1.56766e-08 -4.20724e-08 2.02701e-08)
(1.72681e-08 -4.78605e-08 2.41134e-08)
(1.86746e-08 -5.36846e-08 2.8267e-08)
(1.9722e-08 -5.93351e-08 3.25683e-08)
(2.01218e-08 -6.44929e-08 3.67523e-08)
(1.94637e-08 -6.86925e-08 4.0489e-08)
(1.73489e-08 -7.13189e-08 4.35095e-08)
(1.40605e-08 -7.1932e-08 4.56927e-08)