/*--------------------------------*- C++ -*----------------------------------*\
| =========                 |                                                 |
| \\      /  F ield         | OpenFOAM: The Open Source CFD Toolbox           |
|  \\    /   O peration     | Version:  v1912                                 |
|   \\  /    A nd           | Website:  www.openfoam.com                      |
|    \\/     M anipulation  |                                                 |
\*---------------------------------------------------------------------------*/
FoamFile
{
    version     2.0;
    format      ascii;
    class       volVectorField;
    location    "0.66/fluid";
    object      U;
}
// * * * * * * * * * * * * * * * * * * * * * * * * * * * * * * * * * * * * * //

dimensions      [0 1 -1 0 0 0 0];


internalField   nonuniform List<vector> 
14592
(
(0.0877171 0.0173117 0.000621748)
(0.0721843 0.0117675 0.00102977)
(0.0569855 0.00738398 0.000854059)
(0.0484678 0.003638 0.000272667)
(0.0432281 0.00167368 -0.000605279)
(0.0403775 0.000707748 -0.00169042)
(0.0385864 0.000305648 -0.00298549)
(0.0373239 0.000141931 -0.00454573)
(0.0361089 7.0386e-05 -0.00647366)
(0.0349195 2.64262e-06 -0.00892744)
(0.0332934 -9.86702e-05 -0.0121568)
(0.0317282 -0.000335251 -0.016488)
(0.0287607 -0.000686967 -0.022622)
(0.0262667 -0.00157986 -0.0307043)
(0.018563 -0.00211034 -0.0412951)
(0.0105253 -0.00507509 -0.0393222)
(0.103989 0.0179911 0.000848253)
(0.103643 0.0176367 0.00146851)
(0.100514 0.0142872 0.00130697)
(0.0966814 0.00966085 0.000480007)
(0.0930329 0.00615211 -0.000910898)
(0.0901327 0.00385723 -0.00274489)
(0.0876854 0.00260619 -0.00500309)
(0.0854929 0.00202167 -0.00775876)
(0.0831527 0.00182606 -0.0111736)
(0.080593 0.00181647 -0.0155111)
(0.0771838 0.00186894 -0.0211777)
(0.0732671 0.00181878 -0.0287269)
(0.0667868 0.00162468 -0.0391466)
(0.0594477 0.000720762 -0.0526651)
(0.0427425 -0.000283389 -0.0685676)
(0.0247266 -0.00438532 -0.0634067)
(0.103996 0.0119287 0.000916605)
(0.108459 0.0161139 0.0016041)
(0.111484 0.0152164 0.00145698)
(0.112071 0.0119363 0.000589258)
(0.11139 0.00877963 -0.000900399)
(0.110038 0.00639709 -0.00289631)
(0.108291 0.00496811 -0.00538014)
(0.106275 0.00430181 -0.00842976)
(0.103807 0.00418293 -0.0122181)
(0.100873 0.00441388 -0.0170354)
(0.0968299 0.00485353 -0.023324)
(0.0919001 0.00532608 -0.031718)
(0.0838055 0.00575298 -0.0432735)
(0.0740665 0.00551981 -0.0584217)
(0.0531043 0.00454756 -0.0762543)
(0.0298047 -0.000352634 -0.0717557)
(0.102131 0.00766076 0.000944497)
(0.106718 0.0125347 0.00166958)
(0.111442 0.0132344 0.00154061)
(0.114117 0.0116529 0.000681727)
(0.115314 0.00956198 -0.000799776)
(0.115322 0.00778202 -0.00278769)
(0.114492 0.00668324 -0.00526436)
(0.113049 0.00627442 -0.00830846)
(0.110927 0.0064672 -0.0120917)
(0.10817 0.00714464 -0.01691)
(0.104145 0.0082215 -0.0232078)
(0.0990391 0.00957103 -0.0316583)
(0.0904321 0.0111314 -0.043334)
(0.0797639 0.0122396 -0.0588511)
(0.0569511 0.0120369 -0.0773441)
(0.031008 0.00570181 -0.0738414)
(0.101094 0.00499687 0.000970763)
(0.104755 0.00929876 0.00173524)
(0.109329 0.0107465 0.00163928)
(0.11266 0.0103884 0.000812894)
(0.114819 0.00933117 -0.000625657)
(0.115776 0.0083086 -0.00255329)
(0.115769 0.00773606 -0.00494704)
(0.114995 0.00774729 -0.00787992)
(0.113422 0.00836147 -0.0115134)
(0.111134 0.00955213 -0.0161371)
(0.107511 0.0113038 -0.0221768)
(0.102746 0.0135618 -0.0303253)
(0.0942829 0.0163015 -0.0416288)
(0.0834873 0.018797 -0.0569162)
(0.059642 0.0195197 -0.0753527)
(0.0316439 0.0109461 -0.0730037)
(0.100633 0.00336053 0.000999882)
(0.103536 0.0067229 0.00180958)
(0.107633 0.008329 0.00175991)
(0.111104 0.00869438 0.000982154)
(0.113751 0.00844778 -0.000395744)
(0.115344 0.00814566 -0.00224099)
(0.115994 0.00815945 -0.00452113)
(0.115838 0.00867914 -0.0072986)
(0.114847 0.0098026 -0.0107189)
(0.113121 0.011603 -0.0150582)
(0.110046 0.0141684 -0.0207111)
(0.105825 0.0176091 -0.0283799)
(0.0977723 0.0220681 -0.0390517)
(0.0871958 0.027011 -0.0538086)
(0.0626118 0.0304985 -0.0718085)
(0.0327381 0.0202954 -0.0709861)
(0.100461 0.00218726 0.0010352)
(0.10295 0.00460163 0.00189737)
(0.106718 0.00608705 0.00190506)
(0.110224 0.00684026 0.00118918)
(0.113164 0.00718709 -0.000113492)
(0.115213 0.00749683 -0.00185867)
(0.116404 0.00805793 -0.00399918)
(0.11684 0.00906667 -0.00657962)
(0.116503 0.0106624 -0.00971825)
(0.115534 0.0129947 -0.0136585)
(0.113389 0.01623 -0.0187294)
(0.110352 0.0206365 -0.0255865)
(0.103748 0.026487 -0.0350413)
(0.0949455 0.03351 -0.0483824)
(0.0709231 0.0394873 -0.0644641)
(0.0400952 0.0273763 -0.0654286)
(0.100407 0.00121168 0.00107529)
(0.102743 0.00270236 0.00199523)
(0.106403 0.00391496 0.00206684)
(0.109989 0.00485553 0.00142069)
(0.113162 0.0056404 0.000201269)
(0.115559 0.00646049 -0.0014358)
(0.117182 0.00750571 -0.00342655)
(0.118125 0.00895246 -0.00579525)
(0.118392 0.0109626 -0.00863065)
(0.118155 0.0137644 -0.0121385)
(0.116947 0.0176262 -0.0165786)
(0.115121 0.0231361 -0.0225466)
(0.11009 0.0309499 -0.0306747)
(0.103456 0.0425751 -0.0424793)
(0.0808177 0.0568483 -0.056687)
(0.0525184 0.0614538 -0.0611076)
(0.0876859 0.0173145 0.000389314)
(0.0720045 0.0117805 0.000614255)
(0.0565778 0.00739548 0.000409612)
(0.0478588 0.00364429 -0.000107579)
(0.0424291 0.00167796 -0.000871587)
(0.0393942 0.000712987 -0.00182839)
(0.0373908 0.000314226 -0.00299255)
(0.0358605 0.000154382 -0.00441)
(0.0342952 8.79824e-05 -0.00616591)
(0.0326317 2.75696e-05 -0.00836)
(0.0304047 -5.80251e-05 -0.0111788)
(0.0279856 -0.000259811 -0.0146976)
(0.0241417 -0.000537184 -0.019345)
(0.020116 -0.00124822 -0.0241477)
(0.0123628 -0.0016915 -0.0287621)
(0.00334577 -0.00369794 -0.0193154)
(0.103946 0.0180051 0.000523268)
(0.103391 0.0176737 0.000847449)
(0.0999238 0.0143342 0.000582021)
(0.0957338 0.00970775 -0.000200494)
(0.0917176 0.0062018 -0.00144212)
(0.0884421 0.00391815 -0.00307534)
(0.085574 0.0026891 -0.00511078)
(0.0828682 0.0021352 -0.00762014)
(0.0798671 0.00198002 -0.0107432)
(0.0764252 0.00202093 -0.0146645)
(0.0718712 0.00214256 -0.0196892)
(0.0663815 0.00218137 -0.0260295)
(0.0581328 0.00211402 -0.0342599)
(0.0481751 0.00137854 -0.0430888)
(0.0308901 0.000384237 -0.0505701)
(0.0113411 -0.00327968 -0.0334116)
(0.103956 0.0119526 0.000567293)
(0.1082 0.016172 0.000921919)
(0.110869 0.0153006 0.000645348)
(0.111067 0.0120358 -0.000189357)
(0.109973 0.0088959 -0.00152739)
(0.108192 0.00654095 -0.00330849)
(0.105964 0.00515708 -0.0055474)
(0.103367 0.00455453 -0.00832399)
(0.100156 0.00452174 -0.0117895)
(0.0962332 0.00486143 -0.0161526)
(0.090897 0.0054431 -0.0217433)
(0.0842003 0.00608007 -0.0288298)
(0.0740696 0.00670822 -0.0380063)
(0.0613756 0.00662883 -0.047985)
(0.0395966 0.00558691 -0.0564066)
(0.0146031 0.000317518 -0.0373907)
(0.102093 0.00768747 0.000591616)
(0.106462 0.0126019 0.000971619)
(0.110834 0.0133406 0.00070617)
(0.113123 0.0117917 -0.000121985)
(0.113911 0.00973591 -0.00145197)
(0.113492 0.00800459 -0.00322414)
(0.112185 0.00697783 -0.00545413)
(0.110166 0.00667004 -0.00822322)
(0.107305 0.0070013 -0.0116814)
(0.103566 0.00785889 -0.0160426)
(0.0982437 0.00917485 -0.0216349)
(0.0913601 0.0108093 -0.0287549)
(0.0806677 0.0127258 -0.0379906)
(0.0669596 0.0141058 -0.0481378)
(0.043216 0.0139039 -0.0567736)
(0.0154071 0.00649675 -0.0376618)
(0.101058 0.00502748 0.000619664)
(0.104505 0.00937608 0.00103574)
(0.108732 0.0108738 0.00080162)
(0.11169 0.0105634 6.04882e-06)
(0.113458 0.00955847 -0.00128159)
(0.114011 0.00860432 -0.00299608)
(0.113554 0.00812889 -0.00514757)
(0.112238 0.00827595 -0.00781201)
(0.10997 0.00907849 -0.0111295)
(0.106755 0.0105195 -0.0153092)
(0.101897 0.01261 -0.0206608)
(0.0954295 0.0152833 -0.0274995)
(0.0849235 0.0185603 -0.0363811)
(0.0711208 0.0214884 -0.0462589)
(0.0462224 0.0223484 -0.0547228)
(0.0161141 0.0120533 -0.036274)
(0.100598 0.0033951 0.000651122)
(0.10329 0.00680994 0.00111174)
(0.10705 0.00847458 0.000923091)
(0.110164 0.00889961 0.000175846)
(0.112443 0.00871987 -0.00105277)
(0.11366 0.00850393 -0.0026889)
(0.113896 0.00863802 -0.00473318)
(0.113246 0.00932698 -0.00725185)
(0.111618 0.0106891 -0.01037)
(0.109042 0.0128165 -0.0142863)
(0.104822 0.0158399 -0.0192825)
(0.0990176 0.0198732 -0.0256886)
(0.089006 0.0251512 -0.0340065)
(0.0755337 0.0308601 -0.0434089)
(0.0497733 0.0349362 -0.0515105)
(0.0175115 0.0223759 -0.0342486)
(0.100427 0.00222634 0.000687844)
(0.102711 0.00469838 0.00120048)
(0.106151 0.00624859 0.00106803)
(0.109318 0.00706988 0.000381322)
(0.111916 0.0074943 -0.000775047)
(0.113625 0.00790348 -0.00231626)
(0.114448 0.00860228 -0.0042294)
(0.114451 0.0098057 -0.00656484)
(0.113562 0.0116787 -0.00942379)
(0.111864 0.0143985 -0.0129808)
(0.10873 0.0181869 -0.0174656)
(0.104343 0.0233337 -0.023194)
(0.0960116 0.0302405 -0.0305462)
(0.0846938 0.0383263 -0.038966)
(0.0593949 0.0453217 -0.0460242)
(0.0260254 0.0302251 -0.0306668)
(0.100373 0.00125446 0.000727973)
(0.10251 0.00280638 0.00129727)
(0.105856 0.00408758 0.00122709)
(0.109122 0.00510123 0.000607838)
(0.111978 0.00597014 -0.000468971)
(0.114071 0.00689784 -0.00190729)
(0.115376 0.00809174 -0.0036793)
(0.115953 0.00975018 -0.00581712)
(0.115758 0.0120652 -0.00839606)
(0.114921 0.0153037 -0.0115624)
(0.112893 0.0198042 -0.0154903)
(0.109972 0.0262174 -0.0204736)
(0.103478 0.0353824 -0.0267639)
(0.0948102 0.0485857 -0.0341159)
(0.0709047 0.0648067 -0.040155)
(0.0401842 0.0660106 -0.0278026)
(0.0876619 0.0173171 0.000227277)
(0.071865 0.0117912 0.000326708)
(0.0562516 0.00740558 0.000109838)
(0.0473523 0.00364992 -0.000344859)
(0.0417395 0.00168128 -0.000998481)
(0.0385177 0.000716715 -0.00182043)
(0.036297 0.000320093 -0.00283124)
(0.0344933 0.000162345 -0.00406805)
(0.0325746 9.80957e-05 -0.00560008)
(0.030428 3.99078e-05 -0.00748869)
(0.0275934 -4.07234e-05 -0.00987944)
(0.0243046 -0.000228729 -0.0127547)
(0.0195993 -0.000483709 -0.0164355)
(0.0143024 -0.00111176 -0.0199268)
(0.0069821 -0.00161025 -0.0228154)
(-0.000650616 -0.00320106 -0.015183)
(0.103913 0.0180188 0.000297581)
(0.103194 0.0177081 0.000421629)
(0.0994492 0.0143792 9.94583e-05)
(0.0949457 0.00975426 -0.000620827)
(0.0905854 0.00625136 -0.00170708)
(0.0869435 0.00397791 -0.0031241)
(0.083658 0.0027684 -0.00489859)
(0.0804438 0.00224177 -0.00709551)
(0.0767979 0.00212264 -0.00983106)
(0.072501 0.00220806 -0.0132313)
(0.0668641 0.00238872 -0.0175266)
(0.0599066 0.00249964 -0.0227767)
(0.0501277 0.00252113 -0.0293654)
(0.0381773 0.00188753 -0.0358965)
(0.0213174 0.000810225 -0.0404711)
(0.00373154 -0.00274353 -0.0259456)
(0.103925 0.0119768 0.00032387)
(0.107999 0.0162286 0.000453886)
(0.110376 0.0153831 0.000104804)
(0.110232 0.0121346 -0.000672671)
(0.108756 0.0090115 -0.00184973)
(0.106559 0.00668241 -0.0033986)
(0.103858 0.00534003 -0.00535201)
(0.100688 0.00479614 -0.00778449)
(0.0967539 0.00484302 -0.010823)
(0.091879 0.00528309 -0.0146145)
(0.0853281 0.00599484 -0.0194058)
(0.0769971 0.00677906 -0.0252981)
(0.0651122 0.00757903 -0.0326721)
(0.0501678 0.00761474 -0.0400962)
(0.0286659 0.00646611 -0.0452349)
(0.00574143 0.00078732 -0.0289242)
(0.102064 0.00771544 0.000344176)
(0.106265 0.0126692 0.000490297)
(0.110348 0.013446 0.000146943)
(0.1123 0.0119292 -0.00062622)
(0.112709 0.00990745 -0.00179608)
(0.111876 0.00822174 -0.00333622)
(0.110099 0.00726172 -0.0052806)
(0.107512 0.00704735 -0.00770552)
(0.103932 0.00750684 -0.010737)
(0.099243 0.00853034 -0.0145271)
(0.0926987 0.0100649 -0.0193203)
(0.0841628 0.0119543 -0.0252418)
(0.0716556 0.0141824 -0.0326617)
(0.0556017 0.0157865 -0.0402108)
(0.0320117 0.0155803 -0.04547)
(0.00620976 0.00729233 -0.0290534)
(0.101031 0.00505931 0.000371369)
(0.104312 0.00945363 0.000549156)
(0.108258 0.0109995 0.000234002)
(0.11089 0.0107352 -0.000508822)
(0.112296 0.00978033 -0.00163919)
(0.112456 0.0088905 -0.00312658)
(0.111555 0.00850568 -0.00500003)
(0.109702 0.00877917 -0.00733125)
(0.106753 0.00975705 -0.0102376)
(0.102638 0.0114299 -0.0138682)
(0.0966065 0.0138327 -0.0184522)
(0.0885436 0.0168827 -0.0241338)
(0.076237 0.0206429 -0.031257)
(0.060085 0.0239539 -0.0385894)
(0.0351967 0.0249801 -0.0437262)
(0.00690683 0.0133865 -0.0279176)
(0.100572 0.00343026 0.000402308)
(0.103102 0.00689613 0.00062154)
(0.106589 0.00861674 0.000348583)
(0.109392 0.00909888 -0.00034929)
(0.111329 0.00898276 -0.00142496)
(0.112181 0.00884788 -0.00284097)
(0.112006 0.00909471 -0.00461775)
(0.110863 0.0099418 -0.0068185)
(0.108608 0.0115268 -0.00954748)
(0.105203 0.0139576 -0.0129464)
(0.0998876 0.0174042 -0.0172211)
(0.092588 0.0219769 -0.022534)
(0.0808329 0.0279953 -0.0291866)
(0.0650807 0.0343909 -0.0361414)
(0.0391745 0.0390632 -0.041036)
(0.00845997 0.0248552 -0.0262843)
(0.100402 0.00226497 0.000437773)
(0.102529 0.0047925 0.000705772)
(0.105707 0.00640434 0.000484981)
(0.108579 0.00729057 -0.000157016)
(0.110859 0.00778856 -0.00116627)
(0.112235 0.00829144 -0.00249637)
(0.11269 0.00911992 -0.00415553)
(0.112258 0.0105062 -0.00619365)
(0.110819 0.0126397 -0.00869507)
(0.108401 0.015722 -0.0117843)
(0.104308 0.0200272 -0.0156266)
(0.0986243 0.0258589 -0.0203862)
(0.088725 0.033742 -0.0262777)
(0.0754009 0.0428208 -0.0325178)
(0.0497756 0.0508765 -0.036779)
(0.0175801 0.0338549 -0.0236847)
(0.100349 0.00129566 0.000475699)
(0.102334 0.00290587 0.000796517)
(0.10543 0.004252 0.000633404)
(0.108418 0.005335 5.36567e-05)
(0.110982 0.00628344 -0.000882832)
(0.112778 0.0073128 -0.00211984)
(0.11376 0.00864729 -0.00365209)
(0.113965 0.0105055 -0.00551423)
(0.113306 0.0131083 -0.00776877)
(0.111869 0.0167576 -0.0105193)
(0.109041 0.0218598 -0.0138873)
(0.105059 0.0291164 -0.0180312)
(0.0972284 0.0395499 -0.0230729)
(0.0869383 0.0542492 -0.028514)
(0.0626031 0.0725274 -0.0321526)
(0.0329189 0.072042 -0.0214921)
(0.0876439 0.0173195 0.000119807)
(0.0717576 0.0118003 0.000140971)
(0.0559954 0.00741439 -6.85169e-05)
(0.0469453 0.00365512 -0.000454783)
(0.0411766 0.00168491 -0.000994783)
(0.0377966 0.000721246 -0.00167205)
(0.0354006 0.000327477 -0.00250646)
(0.0333917 0.000173495 -0.00352325)
(0.0312352 0.000114651 -0.0047693)
(0.0287993 6.50552e-05 -0.0062663)
(0.0256743 6.62828e-07 -0.00809767)
(0.0220381 -0.000152231 -0.0101647)
(0.0171957 -0.000344136 -0.0126207)
(0.0117593 -0.000822831 -0.014551)
(0.00520933 -0.00118762 -0.0154464)
(-0.00108492 -0.00246038 -0.00925806)
(0.103887 0.0180314 0.000149166)
(0.103041 0.0177387 0.000151172)
(0.0990737 0.0144198 -0.000181286)
(0.0943089 0.00979721 -0.000814267)
(0.0896554 0.00629789 -0.00172906)
(0.0856997 0.0040341 -0.00290893)
(0.0820664 0.0028427 -0.00438382)
(0.0784492 0.00234197 -0.00620416)
(0.0743313 0.00225848 -0.0084531)
(0.0694634 0.002391 -0.0111959)
(0.0632061 0.00263908 -0.0145667)
(0.0555322 0.00284586 -0.0184932)
(0.0452915 0.00300915 -0.0231202)
(0.0329996 0.00259169 -0.0271186)
(0.0173442 0.0016923 -0.0286959)
(0.0021057 -0.00171049 -0.0167403)
(0.103901 0.0119995 0.000163287)
(0.107842 0.0162803 0.000156922)
(0.109986 0.0154585 -0.000209561)
(0.109558 0.0122256 -0.000898668)
(0.107755 0.0091183 -0.00189466)
(0.105202 0.00681256 -0.0031877)
(0.102104 0.00550715 -0.00481412)
(0.0984753 0.00501584 -0.00683377)
(0.0940029 0.00513521 -0.009339)
(0.0884787 0.00566917 -0.0124115)
(0.0812095 0.00650764 -0.0161952)
(0.0720549 0.00744981 -0.0206433)
(0.0595934 0.00845961 -0.0258799)
(0.0442292 0.00872451 -0.0305084)
(0.0240019 0.00772243 -0.0323124)
(0.00373665 0.0018355 -0.018714)
(0.102043 0.00774204 0.000179549)
(0.106112 0.0127317 0.000182654)
(0.109965 0.0135433 -0.000181845)
(0.111636 0.0120559 -0.00086842)
(0.111722 0.0100649 -0.00185851)
(0.110536 0.00841949 -0.00314393)
(0.108364 0.00751789 -0.00476241)
(0.105321 0.00738498 -0.00677568)
(0.101206 0.00795629 -0.00927545)
(0.0958731 0.00912471 -0.012348)
(0.0886103 0.0108514 -0.016134)
(0.0792509 0.0129704 -0.020604)
(0.0661511 0.0154896 -0.0258669)
(0.0496636 0.0173525 -0.0305609)
(0.0273209 0.0172852 -0.0323739)
(0.00421039 0.00842309 -0.0186213)
(0.101011 0.0050895 0.000203971)
(0.104164 0.00952571 0.000233637)
(0.107886 0.0111153 -0.000106864)
(0.110248 0.0108926 -0.000766777)
(0.111345 0.0099823 -0.00172228)
(0.111169 0.00914884 -0.0029621)
(0.109894 0.0088425 -0.00451999)
(0.107613 0.0092244 -0.00645401)
(0.104161 0.0103513 -0.00884889)
(0.099442 0.0122185 -0.0117893)
(0.0927332 0.0148797 -0.0154037)
(0.0838961 0.0182365 -0.0196794)
(0.0710203 0.0223848 -0.0247036)
(0.0544541 0.0260156 -0.0292177)
(0.0307338 0.0272187 -0.0309235)
(0.00503327 0.0147586 -0.0176571)
(0.100552 0.00346319 0.000232118)
(0.102959 0.00697568 0.000298155)
(0.106229 0.00874683 -5.38083e-06)
(0.108774 0.00928001 -0.000625756)
(0.11042 0.00922006 -0.00153358)
(0.110959 0.0091557 -0.00271189)
(0.11044 0.00949921 -0.00418732)
(0.108904 0.0104798 -0.00601111)
(0.106189 0.0122494 -0.00825751)
(0.102236 0.0149248 -0.0110065)
(0.0963012 0.0187017 -0.0143694)
(0.0882998 0.0236753 -0.0183509)
(0.0760155 0.0302143 -0.0230095)
(0.0598931 0.0370513 -0.0272393)
(0.0350537 0.0420411 -0.0288)
(0.00675202 0.0267256 -0.0163915)
(0.100383 0.00230054 0.000264073)
(0.102391 0.00487841 0.000373194)
(0.105361 0.00654558 0.000115479)
(0.10799 0.00748953 -0.000456058)
(0.109999 0.0080522 -0.00130641)
(0.11109 0.00863619 -0.00241118)
(0.111235 0.00957513 -0.00378707)
(0.110456 0.0111141 -0.00547501)
(0.108615 0.0134598 -0.00753424)
(0.105725 0.016827 -0.0100342)
(0.1011 0.0215211 -0.0130591)
(0.0948299 0.0278352 -0.0166257)
(0.0844786 0.0363568 -0.0207431)
(0.0708856 0.0460028 -0.0245153)
(0.0461772 0.0545374 -0.0258001)
(0.0161131 0.0362416 -0.0147336)
(0.100331 0.00133294 0.000297808)
(0.102202 0.00299562 0.000453475)
(0.1051 0.00439969 0.000246341)
(0.107861 0.00554412 -0.000271001)
(0.110176 0.00656225 -0.00105843)
(0.111714 0.00767922 -0.00208358)
(0.112425 0.00913271 -0.00335202)
(0.112332 0.0111559 -0.00489293)
(0.111333 0.0139893 -0.00674908)
(0.109508 0.0179527 -0.00897707)
(0.106245 0.0234894 -0.0116318)
(0.101808 0.0313017 -0.0147386)
(0.0936243 0.0424874 -0.018257)
(0.0832031 0.0578999 -0.0215281)
(0.0596613 0.0769039 -0.0225956)
(0.0318483 0.07503 -0.0134066)
(0.0876298 0.0173213 5.29884e-05)
(0.0716745 0.0118075 3.23931e-05)
(0.055795 0.0074212 -0.000151591)
(0.0466216 0.00365896 -0.00046254)
(0.0407221 0.00168722 -0.000887148)
(0.0372063 0.000723861 -0.00141772)
(0.0346598 0.00033172 -0.0020718)
(0.0324756 0.000179679 -0.00286696)
(0.0301192 0.00012329 -0.00383572)
(0.027444 7.73437e-05 -0.00498358)
(0.0240846 2.01893e-05 -0.00636307)
(0.0201821 -0.000115044 -0.0078754)
(0.015251 -0.000274922 -0.00960725)
(0.00978777 -0.000673883 -0.0108789)
(0.00390007 -0.000978337 -0.0112486)
(-0.00131984 -0.00210916 -0.00675873)
(0.103867 0.018042 5.86189e-05)
(0.102922 0.0177642 -9.44298e-07)
(0.0987791 0.0144538 -0.000303671)
(0.0938016 0.00983348 -0.000825497)
(0.0889044 0.00633728 -0.00155547)
(0.0846834 0.00408132 -0.0024874)
(0.0807549 0.00290449 -0.00364948)
(0.0767981 0.0024245 -0.00508026)
(0.0722892 0.00236929 -0.0068392)
(0.0669586 0.00253864 -0.00896045)
(0.0602162 0.00283851 -0.0115261)
(0.0520137 0.00311694 -0.0144407)
(0.0414852 0.00338359 -0.0177573)
(0.0291103 0.00311328 -0.0204532)
(0.0145463 0.00232106 -0.0210897)
(0.00125187 -0.00107069 -0.0122285)
(0.103883 0.012019 6.5011e-05)
(0.10772 0.0163243 -9.25299e-06)
(0.10968 0.0155227 -0.000346022)
(0.109021 0.0123034 -0.000917472)
(0.106947 0.00920978 -0.00171521)
(0.104093 0.00692366 -0.00273877)
(0.100659 0.00564901 -0.00402219)
(0.0966438 0.0052013 -0.00561224)
(0.0917249 0.00538063 -0.00757581)
(0.085674 0.00599183 -0.0099596)
(0.077842 0.00693372 -0.0128511)
(0.0680775 0.00800325 -0.016171)
(0.055248 0.00918001 -0.0199491)
(0.0397625 0.00962032 -0.0230987)
(0.0207124 0.00872408 -0.0238349)
(0.00266341 0.00260113 -0.0136831)
(0.102026 0.00776533 7.73386e-05)
(0.105994 0.0127857 8.11092e-06)
(0.109665 0.0136269 -0.000328871)
(0.111109 0.0121649 -0.000899071)
(0.110927 0.0102 -0.00169231)
(0.109442 0.00858867 -0.00270977)
(0.106936 0.0077359 -0.00398689)
(0.103508 0.00767078 -0.00557218)
(0.0989484 0.00833481 -0.00753226)
(0.093091 0.00962257 -0.00991774)
(0.0852631 0.0115061 -0.0128137)
(0.0752912 0.0138105 -0.016154)
(0.0618072 0.0165613 -0.0199555)
(0.0451867 0.0186255 -0.0231554)
(0.0240026 0.0186638 -0.023887)
(0.00314702 0.00932471 -0.013615)
(0.100995 0.00511603 9.75905e-05)
(0.104049 0.00958828 4.93741e-05)
(0.107595 0.0112152 -0.000268427)
(0.109738 0.011028 -0.000816854)
(0.110579 0.0101556 -0.00158181)
(0.11012 0.00936968 -0.00256235)
(0.108528 0.00912914 -0.00379089)
(0.105884 0.00960152 -0.0053132)
(0.102013 0.0108522 -0.00719067)
(0.0968011 0.0128799 -0.00947326)
(0.0895577 0.0157524 -0.0122375)
(0.0801428 0.0193576 -0.0154312)
(0.0668946 0.0238154 -0.0190566)
(0.0502021 0.0276996 -0.0221287)
(0.0275741 0.0290439 -0.0227954)
(0.00405773 0.0159118 -0.012906)
(0.100537 0.003492 0.000121186)
(0.102848 0.00704456 0.000102757)
(0.105949 0.00885881 -0.000184835)
(0.108285 0.00943543 -0.000700843)
(0.10969 0.00942314 -0.00142688)
(0.109965 0.00941825 -0.00235769)
(0.109152 0.00984286 -0.00352009)
(0.107283 0.0109348 -0.00495464)
(0.104185 0.0128576 -0.00671479)
(0.0997828 0.0157343 -0.00884765)
(0.0933589 0.0197801 -0.0114175)
(0.0848335 0.0250757 -0.0143874)
(0.0722026 0.0320245 -0.0177411)
(0.0559776 0.0392063 -0.0206088)
(0.0321435 0.044439 -0.0211951)
(0.0058946 0.0283052 -0.0119671)
(0.100368 0.0023314 0.000147847)
(0.102285 0.00495239 0.000164893)
(0.105093 0.00666673 -8.5185e-05)
(0.107525 0.0076597 -0.000561265)
(0.10931 0.00827717 -0.00124063)
(0.110159 0.0089296 -0.00211226)
(0.11004 0.00996134 -0.00319526)
(0.108966 0.0116279 -0.00452248)
(0.106788 0.0141499 -0.00613634)
(0.103509 0.0177519 -0.00807744)
(0.0984599 0.0227631 -0.0103918)
(0.0917493 0.029466 -0.0130552)
(0.0811008 0.0384916 -0.016023)
(0.0674599 0.0485855 -0.018581)
(0.0436317 0.0574907 -0.0190352)
(0.0154108 0.0382927 -0.0108067)
(0.100317 0.00136497 0.000175786)
(0.102101 0.00307241 0.00023112)
(0.104845 0.00452578 2.24915e-05)
(0.107423 0.00572229 -0.000409348)
(0.109532 0.00679944 -0.00103772)
(0.110853 0.00799038 -0.00184528)
(0.11133 0.00954394 -0.00284247)
(0.110982 0.0117051 -0.0040533)
(0.109697 0.0147302 -0.00550805)
(0.107551 0.0189525 -0.00723895)
(0.103942 0.024843 -0.00927218)
(0.0991636 0.0331021 -0.0115938)
(0.0907541 0.04488 -0.0141311)
(0.080369 0.0608565 -0.016345)
(0.0575951 0.0804264 -0.0167132)
(0.0314112 0.077687 -0.00985174)
(0.0876197 0.0173228 1.70725e-05)
(0.0716147 0.011813 -1.70311e-05)
(0.0556495 0.00742644 -0.000159662)
(0.0463846 0.00366215 -0.000387254)
(0.0403879 0.00168943 -0.000692058)
(0.0367728 0.000726636 -0.0010707)
(0.0341203 0.000336352 -0.0015358)
(0.0318192 0.000186909 -0.00209738)
(0.0293406 0.000134288 -0.00277398)
(0.0265333 9.42575e-05 -0.00356008)
(0.0230708 4.75649e-05 -0.00448022)
(0.0190775 -6.72249e-05 -0.00544808)
(0.0141932 -0.000192676 -0.00649742)
(0.00884371 -0.000525076 -0.00717401)
(0.00334764 -0.000769631 -0.00714096)
(-0.00129707 -0.00183559 -0.00411927)
(0.103853 0.0180504 1.21054e-05)
(0.102836 0.017784 -6.24689e-05)
(0.0985638 0.0144802 -0.000302297)
(0.0934278 0.00986214 -0.000690755)
(0.0883483 0.00636869 -0.00122112)
(0.08393 0.00411916 -0.00189164)
(0.079787 0.00295415 -0.00272371)
(0.0755925 0.0024912 -0.00374256)
(0.0708256 0.00245964 -0.00498449)
(0.0652117 0.0026605 -0.00646042)
(0.058208 0.00300536 -0.00820895)
(0.0497667 0.00334683 -0.0101349)
(0.0392029 0.00370473 -0.0122319)
(0.0269845 0.00355844 -0.013793)
(0.0131532 0.00286808 -0.0137792)
(0.00101594 -0.000556967 -0.00771054)
(0.103869 0.0120344 1.42499e-05)
(0.107632 0.0163589 -7.51848e-05)
(0.109456 0.015573 -0.000343439)
(0.108625 0.0123647 -0.000770606)
(0.106349 0.00928194 -0.00135198)
(0.10327 0.00701124 -0.00209003)
(0.0995898 0.00576057 -0.00301079)
(0.0953009 0.00534691 -0.00414574)
(0.0900827 0.00557322 -0.00553657)
(0.0837023 0.00624542 -0.0072028)
(0.0755559 0.00726964 -0.00918551)
(0.0655022 0.00844222 -0.0113983)
(0.0525959 0.0097558 -0.0138135)
(0.0372665 0.0103433 -0.0156712)
(0.0190334 0.00955012 -0.0156782)
(0.0023348 0.00322986 -0.0086746)
(0.102013 0.00778389 2.28491e-05)
(0.105908 0.0128285 -6.42364e-05)
(0.109446 0.0136928 -0.000333627)
(0.11072 0.0122507 -0.000760323)
(0.110337 0.0103064 -0.0013386)
(0.10863 0.00872124 -0.00207232)
(0.105879 0.00790588 -0.00298866)
(0.102179 0.00789248 -0.00412053)
(0.0973212 0.00862695 -0.00550955)
(0.0911363 0.0100051 -0.00717817)
(0.0829931 0.012007 -0.00916558)
(0.0727325 0.0144514 -0.0113943)
(0.0591654 0.0173774 -0.0138263)
(0.0427018 0.0195985 -0.0157155)
(0.0223274 0.0197277 -0.015707)
(0.00284537 0.0100353 -0.00861112)
(0.100984 0.00513717 3.79464e-05)
(0.103967 0.00963782 -3.39815e-05)
(0.107384 0.011294 -0.000289435)
(0.109363 0.0111344 -0.000700055)
(0.110012 0.0102914 -0.00125746)
(0.109341 0.00954191 -0.00196414)
(0.107518 0.00935128 -0.00284521)
(0.104618 0.00989172 -0.00393171)
(0.100467 0.0112347 -0.00526172)
(0.0949502 0.0133807 -0.00685756)
(0.0874131 0.016407 -0.00875294)
(0.0777335 0.0201909 -0.0108803)
(0.0644109 0.0248677 -0.0131926)
(0.0478803 0.0289317 -0.0149962)
(0.0260166 0.0303737 -0.0149494)
(0.00382303 0.0167638 -0.00812395)
(0.100526 0.0035149 5.56727e-05)
(0.102769 0.00709901 5.79472e-06)
(0.105745 0.00894694 -0.000227322)
(0.107926 0.0095573 -0.000613945)
(0.10915 0.0095817 -0.00114266)
(0.109228 0.00962205 -0.00181297)
(0.108201 0.0101077 -0.00264602)
(0.106098 0.0112823 -0.00366928)
(0.102745 0.0133173 -0.00491544)
(0.0980683 0.0163386 -0.00640529)
(0.0913808 0.0205732 -0.00816482)
(0.0826253 0.0260888 -0.0101379)
(0.0699351 0.0333078 -0.0122672)
(0.0538827 0.0407076 -0.0139369)
(0.0307534 0.0460714 -0.0138537)
(0.00573997 0.0293743 -0.00749336)
(0.100358 0.00235576 7.5649e-05)
(0.102208 0.00501062 5.21412e-05)
(0.104899 0.00676174 -0.000153187)
(0.107185 0.00779269 -0.000510345)
(0.108802 0.00845219 -0.00100481)
(0.109471 0.00915647 -0.00163205)
(0.109158 0.0102576 -0.00240781)
(0.107876 0.012018 -0.00335439)
(0.105475 0.0146676 -0.00449723)
(0.10196 0.0184353 -0.00585369)
(0.0966872 0.023664 -0.00743897)
(0.0897929 0.0306233 -0.00920807)
(0.0791062 0.0399662 -0.0110899)
(0.0656544 0.0503246 -0.0125728)
(0.0424522 0.0594101 -0.0124505)
(0.0153445 0.0396087 -0.00677735)
(0.100307 0.00139007 9.64894e-05)
(0.102028 0.00313255 0.00010143)
(0.104661 0.00462429 -7.32033e-05)
(0.107102 0.00586103 -0.000397736)
(0.109058 0.00698335 -0.000854842)
(0.110216 0.00823013 -0.00143549)
(0.110522 0.00985815 -0.00214938)
(0.109994 0.0121202 -0.00301285)
(0.10852 0.0152823 -0.00404343)
(0.106182 0.0196843 -0.00525394)
(0.102394 0.0258117 -0.00664801)
(0.0974869 0.0343554 -0.00819054)
(0.0890713 0.0464875 -0.00979845)
(0.0789026 0.0627722 -0.0110772)
(0.0566838 0.0825885 -0.0109591)
(0.0314784 0.0793086 -0.00621039)
(0.0876129 0.0173237 2.11846e-06)
(0.0715751 0.0118166 -2.68694e-05)
(0.0555528 0.00742981 -0.000116483)
(0.046226 0.00366412 -0.000255998)
(0.040163 0.0016906 -0.000439918)
(0.0364793 0.000727995 -0.000667875)
(0.0337534 0.000338647 -0.000947493)
(0.0313717 0.000190458 -0.00128441)
(0.0288092 0.000139562 -0.00168883)
(0.0259126 0.000102192 -0.00215536)
(0.0223812 6.03842e-05 -0.00269628)
(0.0183317 -4.42848e-05 -0.00325777)
(0.0134824 -0.000152363 -0.00385448)
(0.00822331 -0.000450679 -0.00422773)
(0.00299311 -0.00066806 -0.00416844)
(-0.00128881 -0.00170411 -0.00241366)
(0.103843 0.018056 -4.90694e-06)
(0.102779 0.0177974 -6.2424e-05)
(0.0984206 0.0144982 -0.000215924)
(0.0931777 0.00988168 -0.000455992)
(0.0879741 0.00639006 -0.000778559)
(0.0834205 0.00414481 -0.00118409)
(0.0791301 0.00298764 -0.00168613)
(0.0747729 0.00253597 -0.00229965)
(0.0698308 0.00251993 -0.00304524)
(0.0640276 0.0027413 -0.00392626)
(0.0568532 0.00311513 -0.00496148)
(0.0482657 0.00349651 -0.00608861)
(0.0376959 0.00391128 -0.0072939)
(0.0256157 0.00383886 -0.00816533)
(0.0122862 0.00320372 -0.00807604)
(0.000881843 -0.000261439 -0.00451406)
(0.10386 0.0120451 -4.35614e-06)
(0.107574 0.0163826 -7.27225e-05)
(0.109307 0.0156076 -0.000245184)
(0.10836 0.0124069 -0.000509641)
(0.105945 0.00933159 -0.000863949)
(0.102713 0.00707143 -0.00131084)
(0.0988639 0.00583708 -0.00186696)
(0.0943877 0.00544652 -0.00255115)
(0.088966 0.00570466 -0.00338733)
(0.0823648 0.00641801 -0.00438394)
(0.0740123 0.00749741 -0.00556091)
(0.0637795 0.00873844 -0.00686044)
(0.0508425 0.0101418 -0.00825503)
(0.035656 0.0108228 -0.00929867)
(0.0179854 0.0100906 -0.0092105)
(0.00214625 0.00362542 -0.00508329)
(0.102005 0.00779677 6.25664e-07)
(0.105851 0.012858 -6.66707e-05)
(0.1093 0.0137383 -0.00024027)
(0.11046 0.01231 -0.000504583)
(0.109941 0.0103797 -0.000857109)
(0.108081 0.00881259 -0.00130138)
(0.105161 0.00802277 -0.00185487)
(0.101274 0.0080446 -0.00253731)
(0.096214 0.00882691 -0.00337265)
(0.0898091 0.0102662 -0.00437115)
(0.0814586 0.0123477 -0.00555173)
(0.0710185 0.0148857 -0.00686184)
(0.0574154 0.0179273 -0.00826793)
(0.0410946 0.02025 -0.00933122)
(0.0212789 0.0204343 -0.00923368)
(0.00267203 0.0105001 -0.00504974)
(0.100976 0.0051519 9.94722e-06)
(0.103912 0.00967216 -4.82212e-05)
(0.107243 0.0113484 -0.000213387)
(0.109112 0.011208 -0.000467838)
(0.109631 0.0103852 -0.000807573)
(0.108815 0.00966066 -0.00123532)
(0.106832 0.0095042 -0.00176737)
(0.103756 0.0100911 -0.00242236)
(0.099415 0.0114969 -0.00322221)
(0.0936926 0.0137231 -0.00417722)
(0.0859618 0.0168531 -0.00530332)
(0.0761172 0.0207568 -0.00655399)
(0.0627626 0.0255789 -0.00789111)
(0.0463761 0.0297611 -0.00890627)
(0.0250406 0.0312644 -0.0087912)
(0.00369033 0.0173355 -0.00476964)
(0.100519 0.00353083 2.09236e-05)
(0.102716 0.00713675 -2.37039e-05)
(0.10561 0.0090079 -0.00017513)
(0.107686 0.0096415 -0.00041484)
(0.108788 0.00969113 -0.000736981)
(0.108731 0.00976253 -0.00114252)
(0.107556 0.0102899 -0.00164537)
(0.105292 0.011521 -0.00226205)
(0.101765 0.0136323 -0.00301131)
(0.0969029 0.0167517 -0.00390266)
(0.0900415 0.0211133 -0.00494775)
(0.0811429 0.0267759 -0.0061068)
(0.0684293 0.034173 -0.00733681)
(0.0525254 0.041716 -0.00827421)
(0.0298838 0.0471618 -0.00814302)
(0.00565815 0.030096 -0.0043988)