/*--------------------------------*- C++ -*----------------------------------*\
| =========                 |                                                 |
| \\      /  F ield         | OpenFOAM: The Open Source CFD Toolbox           |
|  \\    /   O peration     | Version:  v1912                                 |
|   \\  /    A nd           | Website:  www.openfoam.com                      |
|    \\/     M anipulation  |                                                 |
\*---------------------------------------------------------------------------*/
FoamFile
{
    version     2.0;
    format      ascii;
    class       volVectorField;
    location    "0.57/fluid";
    object      cellMotionU;
}
// * * * * * * * * * * * * * * * * * * * * * * * * * * * * * * * * * * * * * //

dimensions      [0 1 -1 0 0 0 0];


internalField   nonuniform List<vector> 
14592
(
(1.56446e-10 -3.4518e-10 2.62017e-10)
(4.36524e-10 -9.65238e-10 7.41675e-10)
(6.95102e-10 -1.54177e-09 1.21377e-09)
(9.41508e-10 -2.09524e-09 1.70924e-09)
(1.18572e-09 -2.64074e-09 2.25812e-09)
(1.43644e-09 -3.18383e-09 2.88705e-09)
(1.70408e-09 -3.7216e-09 3.62284e-09)
(2.00197e-09 -4.23788e-09 4.4918e-09)
(2.34999e-09 -4.6973e-09 5.52086e-09)
(2.78149e-09 -5.03053e-09 6.73677e-09)
(3.36218e-09 -5.10914e-09 8.17234e-09)
(4.23577e-09 -4.68089e-09 9.8852e-09)
(5.74066e-09 -3.19544e-09 1.20298e-08)
(8.7457e-09 7.28829e-10 1.50975e-08)
(1.52642e-08 1.05755e-08 2.04147e-08)
(2.68938e-08 3.03628e-08 2.90003e-08)
(4.65594e-10 -1.02498e-09 7.78973e-10)
(1.29932e-09 -2.86659e-09 2.20514e-09)
(2.06792e-09 -4.57992e-09 3.60729e-09)
(2.801e-09 -6.22785e-09 5.08e-09)
(3.52479e-09 -7.85231e-09 6.7075e-09)
(4.26644e-09 -9.47459e-09 8.57086e-09)
(5.05567e-09 -1.10889e-08 1.07482e-08)
(5.92975e-09 -1.26543e-08 1.3317e-08)
(6.94056e-09 -1.40756e-08 1.63518e-08)
(8.17107e-09 -1.51742e-08 1.9924e-08)
(9.76973e-09 -1.56332e-08 2.41009e-08)
(1.20201e-08 -1.49056e-08 2.89574e-08)
(1.55066e-08 -1.20375e-08 3.46325e-08)
(2.1323e-08 -5.43936e-09 4.14222e-08)
(3.10365e-08 6.91673e-09 4.9791e-08)
(4.35051e-08 2.31514e-08 5.86282e-08)
(7.64509e-10 -1.67445e-09 1.27651e-09)
(2.13302e-09 -4.68436e-09 3.61279e-09)
(3.39417e-09 -7.48928e-09 5.90909e-09)
(4.59411e-09 -1.0192e-08 8.31675e-09)
(5.77659e-09 -1.28671e-08 1.09748e-08)
(6.98446e-09 -1.55552e-08 1.40142e-08)
(8.26441e-09 -1.82589e-08 1.75625e-08)
(9.67177e-09 -2.09294e-08 2.17446e-08)
(1.12788e-08 -2.34461e-08 2.66814e-08)
(1.31884e-08 -2.55806e-08 3.2482e-08)
(1.55617e-08 -2.69472e-08 3.92331e-08)
(1.86727e-08 -2.69379e-08 4.69879e-08)
(2.3006e-08 -2.46741e-08 5.57634e-08)
(2.93685e-08 -1.91442e-08 6.55814e-08)
(3.87588e-08 -1.00072e-08 7.6483e-08)
(4.99786e-08 -4.90961e-10 8.72645e-08)
(1.0467e-09 -2.273e-09 1.74248e-09)
(2.91955e-09 -6.36173e-09 4.93041e-09)
(4.64331e-09 -1.01789e-08 8.06038e-09)
(6.28022e-09 -1.387e-08 1.13375e-08)
(7.88772e-09 -1.75421e-08 1.49477e-08)
(9.52328e-09 -2.12637e-08 1.90687e-08)
(1.12474e-08 -2.50577e-08 2.38726e-08)
(1.31291e-08 -2.88911e-08 2.95296e-08)
(1.52509e-08 -3.26548e-08 3.62038e-08)
(1.77167e-08 -3.61335e-08 4.40442e-08)
(2.06597e-08 -3.89642e-08 5.31607e-08)
(2.42587e-08 -4.05913e-08 6.3587e-08)
(2.87649e-08 -4.02635e-08 7.52325e-08)
(3.45164e-08 -3.71954e-08 8.78182e-08)
(4.18884e-08 -3.12086e-08 1.00788e-07)
(4.99752e-08 -2.45658e-08 1.1215e-07)
(1.30628e-09 -2.8003e-09 2.16623e-09)
(3.64264e-09 -7.84149e-09 6.12775e-09)
(5.78947e-09 -1.25586e-08 1.00115e-08)
(7.82178e-09 -1.71375e-08 1.40679e-08)
(9.81005e-09 -2.17219e-08 1.85256e-08)
(1.18231e-08 -2.64128e-08 2.36007e-08)
(1.39334e-08 -3.12655e-08 2.95047e-08)
(1.62207e-08 -3.62822e-08 3.64475e-08)
(1.87766e-08 -4.13997e-08 4.46359e-08)
(2.17061e-08 -4.64655e-08 5.42638e-08)
(2.51209e-08 -5.12057e-08 6.5485e-08)
(2.91255e-08 -5.51767e-08 7.83639e-08)
(3.37959e-08 -5.77012e-08 9.27986e-08)
(3.91089e-08 -5.78351e-08 1.08355e-07)
(4.49439e-08 -5.45385e-08 1.23972e-07)
(5.06005e-08 -4.84214e-08 1.3662e-07)
(1.53871e-09 -3.23684e-09 2.53951e-09)
(4.28881e-09 -9.06835e-09 7.18062e-09)
(6.81033e-09 -1.45384e-08 1.17215e-08)
(9.18916e-09 -1.98719e-08 1.64506e-08)
(1.15046e-08 -2.52473e-08 2.16287e-08)
(1.38351e-08 -3.08013e-08 2.75036e-08)
(1.62625e-08 -3.66283e-08 3.4317e-08)
(1.88774e-08 -4.27796e-08 4.23112e-08)
(2.17834e-08 -4.9259e-08 5.17301e-08)
(2.51003e-08 -5.6013e-08 6.28152e-08)
(2.89543e-08 -6.29123e-08 7.57816e-08)
(3.34826e-08 -6.97075e-08 9.08004e-08)
(3.87766e-08 -7.59229e-08 1.07906e-07)
(4.48119e-08 -8.05812e-08 1.26838e-07)
(5.12739e-08 -8.167e-08 1.46489e-07)
(5.6868e-08 -7.69981e-08 1.62649e-07)
(1.74015e-09 -3.56402e-09 2.85618e-09)
(4.84783e-09 -9.99053e-09 8.07177e-09)
(7.68996e-09 -1.60347e-08 1.31624e-08)
(1.03591e-08 -2.19543e-08 1.84437e-08)
(1.29412e-08 -2.79604e-08 2.42004e-08)
(1.55208e-08 -3.42229e-08 3.07006e-08)
(1.81863e-08 -4.08757e-08 3.82058e-08)
(2.10366e-08 -4.8021e-08 4.69782e-08)
(2.41886e-08 -5.5735e-08 5.72864e-08)
(2.7785e-08 -6.40739e-08 6.94061e-08)
(3.20079e-08 -7.30815e-08 8.362e-08)
(3.7099e-08 -8.27931e-08 1.00218e-07)
(4.34072e-08 -9.32143e-08 1.19509e-07)
(5.14089e-08 -1.0415e-07 1.41747e-07)
(6.1551e-08 -1.14531e-07 1.66595e-07)
(7.20878e-08 -1.20713e-07 1.89299e-07)
(1.90835e-09 -3.76607e-09 3.11286e-09)
(5.31324e-09 -1.05635e-08 8.79197e-09)
(8.41792e-09 -1.69741e-08 1.43189e-08)
(1.13184e-08 -2.32813e-08 2.00268e-08)
(1.41028e-08 -2.97209e-08 2.62127e-08)
(1.68578e-08 -3.649e-08 3.31544e-08)
(1.96738e-08 -4.37548e-08 4.11196e-08)
(2.26524e-08 -5.16589e-08 5.03743e-08)
(2.59165e-08 -6.03356e-08 6.11899e-08)
(2.96228e-08 -6.99242e-08 7.38478e-08)
(3.39896e-08 -8.05987e-08 8.86508e-08)
(3.93497e-08 -9.26229e-08 1.05954e-07)
(4.6272e-08 -1.06459e-07 1.26248e-07)
(5.58004e-08 -1.22957e-07 1.50292e-07)
(6.97814e-08 -1.43456e-07 1.79095e-07)
(8.79311e-08 -1.66347e-07 2.09378e-07)
(1.56741e-10 -3.5239e-10 2.48846e-10)
(4.37176e-10 -9.85481e-10 7.04227e-10)
(6.95077e-10 -1.57446e-09 1.15119e-09)
(9.3983e-10 -2.14069e-09 1.61947e-09)
(1.17983e-09 -2.6992e-09 2.13558e-09)
(1.42304e-09 -3.25715e-09 2.72438e-09)
(1.67779e-09 -3.81273e-09 3.40935e-09)
(1.954e-09 -4.35212e-09 4.21251e-09)
(2.26549e-09 -4.84406e-09 5.15365e-09)
(2.6351e-09 -5.22916e-09 6.24801e-09)
(3.10722e-09 -5.40153e-09 7.50381e-09)
(3.77736e-09 -5.16937e-09 8.9218e-09)
(4.87365e-09 -4.15056e-09 1.0508e-08)
(6.89381e-09 -1.53058e-09 1.22877e-08)
(1.0764e-08 4.31292e-09 1.42622e-08)
(1.63645e-08 1.39267e-08 1.55574e-08)
(4.66589e-10 -1.04626e-09 7.39897e-10)
(1.30111e-09 -2.92628e-09 2.09321e-09)
(2.06847e-09 -4.67642e-09 3.42161e-09)
(2.79596e-09 -6.36085e-09 4.81199e-09)
(3.50822e-09 -8.02445e-09 6.34302e-09)
(4.22865e-09 -9.69063e-09 8.08784e-09)
(4.98122e-09 -1.13571e-08 1.01154e-08)
(5.79338e-09 -1.29887e-08 1.249e-08)
(6.70052e-09 -1.45018e-08 1.52676e-08)
(7.75596e-09 -1.57419e-08 1.84869e-08)
(9.05235e-09 -1.64485e-08 2.21544e-08)
(1.07731e-08 -1.62003e-08 2.62224e-08)
(1.32621e-08 -1.43562e-08 3.05307e-08)
(1.70987e-08 -1.00668e-08 3.46939e-08)
(2.27164e-08 -2.89517e-09 3.77359e-08)
(2.83571e-08 4.41334e-09 3.78146e-08)
(7.66324e-10 -1.70899e-09 1.21237e-09)
(2.13671e-09 -4.78129e-09 3.42944e-09)
(3.39607e-09 -7.64539e-09 5.60434e-09)
(4.58844e-09 -1.04082e-08 7.87835e-09)
(5.75382e-09 -1.31468e-08 1.03793e-08)
(6.92988e-09 -1.59058e-08 1.32262e-08)
(8.15447e-09 -1.86923e-08 1.65315e-08)
(9.46837e-09 -2.14652e-08 2.04002e-08)
(1.0919e-08 -2.41185e-08 2.49239e-08)
(1.25663e-08 -2.64551e-08 3.01651e-08)
(1.4496e-08 -2.8156e-08 3.61304e-08)
(1.68442e-08 -2.8759e-08 4.27173e-08)
(1.98278e-08 -2.7706e-08 4.96231e-08)
(2.37205e-08 -2.46392e-08 5.61767e-08)
(2.84989e-08 -2.03202e-08 6.10683e-08)
(3.25525e-08 -1.79423e-08 6.24663e-08)
(1.0496e-09 -2.31965e-09 1.65484e-09)
(2.92616e-09 -6.49241e-09 4.68047e-09)
(4.64891e-09 -1.03897e-08 7.64517e-09)
(6.27732e-09 -1.41614e-08 1.07404e-08)
(7.86501e-09 -1.79192e-08 1.41382e-08)
(9.46262e-09 -2.17352e-08 1.79993e-08)
(1.11202e-08 -2.56374e-08 2.24763e-08)
(1.28891e-08 -2.96001e-08 2.77131e-08)
(1.48225e-08 -3.3528e-08 3.38373e-08)
(1.69736e-08 -3.72344e-08 4.09412e-08)
(1.93893e-08 -4.04158e-08 4.90441e-08)
(2.2096e-08 -4.26452e-08 5.80188e-08)
(2.50638e-08 -4.34419e-08 6.74652e-08)
(2.81212e-08 -4.25661e-08 7.64846e-08)
(3.07685e-08 -4.07399e-08 8.33643e-08)
(3.19675e-08 -4.02257e-08 8.57378e-08)
(1.31082e-09 -2.85754e-09 2.05758e-09)
(3.65337e-09 -8.0017e-09 5.8175e-09)
(5.80102e-09 -1.28168e-08 9.49667e-09)
(7.82628e-09 -1.74948e-08 1.33291e-08)
(9.79488e-09 -2.21838e-08 1.75253e-08)
(1.17689e-08 -2.69888e-08 2.2282e-08)
(1.38096e-08 -3.19693e-08 2.77869e-08)
(1.59786e-08 -3.71333e-08 3.42188e-08)
(1.83371e-08 -4.24267e-08 4.17418e-08)
(2.09369e-08 -4.77162e-08 5.04849e-08)
(2.38012e-08 -5.27668e-08 6.05022e-08)
(2.68809e-08 -5.72199e-08 7.16937e-08)
(2.99547e-08 -6.05891e-08 8.36411e-08)
(3.24861e-08 -6.23554e-08 9.53285e-08)
(3.35041e-08 -6.23637e-08 1.04652e-07)
(3.22884e-08 -6.18027e-08 1.08416e-07)
(1.54516e-09 -3.30266e-09 2.41246e-09)
(4.30482e-09 -9.2527e-09 6.8179e-09)
(6.83034e-09 -1.48358e-08 1.11204e-08)
(9.20483e-09 -2.0283e-08 1.5589e-08)
(1.15037e-08 -2.57783e-08 2.04648e-08)
(1.37987e-08 -3.14618e-08 2.5973e-08)
(1.61614e-08 -3.7431e-08 3.23286e-08)
(1.86653e-08 -4.37401e-08 3.97394e-08)
(2.13856e-08 -5.03961e-08 4.84013e-08)
(2.43926e-08 -5.73518e-08 5.84824e-08)
(2.77363e-08 -6.44908e-08 7.0094e-08)
(3.13922e-08 -7.15922e-08 8.3201e-08)
(3.51715e-08 -7.82568e-08 9.74992e-08)
(3.84877e-08 -8.3725e-08 1.12046e-07)
(4.00483e-08 -8.66683e-08 1.24592e-07)
(3.83722e-08 -8.60247e-08 1.30981e-07)
(1.74885e-09 -3.6363e-09 2.71366e-09)
(4.87006e-09 -1.0193e-08 7.66529e-09)
(7.72004e-09 -1.63612e-08 1.24896e-08)
(1.03893e-08 -2.24061e-08 1.74813e-08)
(1.29602e-08 -2.85434e-08 2.29034e-08)
(1.55115e-08 -3.49467e-08 2.90001e-08)
(1.81229e-08 -4.17515e-08 3.60043e-08)
(2.08791e-08 -4.90601e-08 4.41415e-08)
(2.38731e-08 -5.69464e-08 5.36285e-08)
(2.72086e-08 -6.5461e-08 6.46645e-08)
(3.09984e-08 -7.46359e-08 7.74063e-08)
(3.53577e-08 -8.44836e-08 9.19219e-08)
(4.03671e-08 -9.49606e-08 1.08071e-07)
(4.59452e-08 -1.05787e-07 1.25188e-07)
(5.13912e-08 -1.15861e-07 1.41211e-07)
(5.43697e-08 -1.22053e-07 1.51041e-07)
(1.91935e-09 -3.84229e-09 2.95802e-09)
(5.34214e-09 -1.07771e-08 8.3507e-09)
(8.45921e-09 -1.73188e-08 1.35897e-08)
(1.13648e-08 -2.37583e-08 1.8986e-08)
(1.41446e-08 -3.03364e-08 2.48142e-08)
(1.68806e-08 -3.72535e-08 3.13275e-08)
(1.96565e-08 -4.46761e-08 3.87646e-08)
(2.25631e-08 -5.2746e-08 4.73546e-08)
(2.57049e-08 -6.15898e-08 5.73165e-08)
(2.92106e-08 -7.1333e-08 6.8855e-08)
(3.32469e-08 -8.21223e-08 8.21432e-08)
(3.80489e-08 -9.41643e-08 9.72968e-08)
(4.39692e-08 -1.0779e-07 1.14299e-07)
(5.155e-08 -1.23529e-07 1.32769e-07)
(6.13583e-08 -1.41869e-07 1.51122e-07)
(7.17716e-08 -1.60162e-07 1.64005e-07)
(1.56383e-10 -3.58603e-10 2.26746e-10)
(4.35765e-10 -1.00292e-09 6.41274e-10)
(6.91822e-10 -1.60266e-09 1.04771e-09)
(9.32867e-10 -2.17973e-09 1.47189e-09)
(1.16636e-09 -2.74977e-09 1.93763e-09)
(1.39852e-09 -3.32107e-09 2.46619e-09)
(1.63488e-09 -3.89306e-09 3.07668e-09)
(1.88084e-09 -4.45556e-09 3.78614e-09)
(2.14198e-09 -4.98282e-09 4.60605e-09)
(2.42636e-09 -5.42953e-09 5.53916e-09)
(2.7495e-09 -5.72044e-09 6.57095e-09)
(3.14811e-09 -5.73509e-09 7.65631e-09)
(3.6984e-09 -5.27606e-09 8.68792e-09)
(4.55655e-09 -3.98923e-09 9.44679e-09)
(5.87802e-09 -1.30244e-09 9.44105e-09)
(7.2017e-09 2.76582e-09 7.85116e-09)
(4.65549e-10 -1.06459e-09 6.74064e-10)
(1.2973e-09 -2.97777e-09 1.90638e-09)
(2.0591e-09 -4.75951e-09 3.11356e-09)
(2.77612e-09 -6.47576e-09 4.37352e-09)
(3.46974e-09 -8.17333e-09 5.75529e-09)
(4.15846e-09 -9.87807e-09 7.32163e-09)
(4.85851e-09 -1.15923e-08 9.12962e-09)
(5.5841e-09 -1.32879e-08 1.12275e-08)
(6.34848e-09 -1.48979e-08 1.36494e-08)
(7.16522e-09 -1.63016e-08 1.63996e-08)
(8.0556e-09 -1.73105e-08 1.94285e-08)
(9.05719e-09 -1.76598e-08 2.25783e-08)
(1.02425e-08 -1.70252e-08 2.54951e-08)
(1.1657e-08 -1.51522e-08 2.74313e-08)
(1.30512e-08 -1.22915e-08 2.70413e-08)
(1.34054e-08 -1.01149e-08 2.33504e-08)
(7.64912e-10 -1.73872e-09 1.10453e-09)
(2.13133e-09 -4.86467e-09 3.12346e-09)
(3.38243e-09 -7.77996e-09 5.10006e-09)
(4.55891e-09 -1.0594e-08 7.16097e-09)
(5.69583e-09 -1.3387e-08 9.4185e-09)
(6.82341e-09 -1.6207e-08 1.1975e-08)
(7.96755e-09 -1.9066e-08 1.49232e-08)
(9.1499e-09 -2.19336e-08 1.83436e-08)
(1.0385e-08 -2.47229e-08 2.22931e-08)
(1.16775e-08 -2.72785e-08 2.67844e-08)
(1.30153e-08 -2.93663e-08 3.17448e-08)
(1.43602e-08 -3.06928e-08 3.69427e-08)
(1.56192e-08 -3.10101e-08 4.18604e-08)
(1.65655e-08 -3.04224e-08 4.55125e-08)
(1.66885e-08 -2.99411e-08 4.63833e-08)
(1.54543e-08 -3.12748e-08 4.37572e-08)
(1.04833e-09 -2.35963e-09 1.50799e-09)
(2.9206e-09 -6.6047e-09 4.26289e-09)
(4.63373e-09 -1.05705e-08 6.95792e-09)
(6.24285e-09 -1.44108e-08 9.76345e-09)
(7.79555e-09 -1.82403e-08 1.28312e-08)
(9.3333e-09 -2.21349e-08 1.62994e-08)
(1.08919e-08 -2.61275e-08 2.02948e-08)
(1.24993e-08 -3.02006e-08 2.49281e-08)
(1.41708e-08 -3.4277e-08 3.02825e-08)
(1.58959e-08 -3.82051e-08 3.63875e-08)
(1.76147e-08 -4.17544e-08 4.31695e-08)
(1.91727e-08 -4.46385e-08 5.03633e-08)
(2.02399e-08 -4.66274e-08 5.73701e-08)
(2.02101e-08 -4.78389e-08 6.30718e-08)
(1.82485e-08 -4.91631e-08 6.57889e-08)
(1.44752e-08 -5.16786e-08 6.45286e-08)
(1.31019e-09 -2.90645e-09 1.87505e-09)
(3.64936e-09 -8.13873e-09 5.29928e-09)
(5.78755e-09 -1.30374e-08 8.6441e-09)
(7.79248e-09 -1.77984e-08 1.21185e-08)
(9.72337e-09 -2.25731e-08 1.5908e-08)
(1.16325e-08 -2.74695e-08 2.01823e-08)
(1.35655e-08 -3.255e-08 2.50973e-08)
(1.556e-08 -3.78277e-08 3.07921e-08)
(1.7637e-08 -4.32578e-08 3.73768e-08)
(1.97845e-08 -4.87277e-08 4.49068e-08)
(2.19185e-08 -5.40456e-08 5.33272e-08)
(2.38079e-08 -5.89377e-08 6.23763e-08)
(2.49504e-08 -6.30854e-08 7.14429e-08)
(2.43987e-08 -6.62411e-08 7.93251e-08)
(2.08906e-08 -6.85011e-08 8.41304e-08)
(1.48341e-08 -7.04048e-08 8.43378e-08)
(1.54569e-09 -3.35871e-09 2.19868e-09)
(4.3041e-09 -9.40982e-09 6.21149e-09)
(6.82174e-09 -1.50883e-08 1.01238e-08)
(9.17721e-09 -2.06299e-08 1.41759e-08)
(1.14393e-08 -2.62213e-08 1.85804e-08)
(1.36701e-08 -3.20044e-08 2.35317e-08)
(1.59263e-08 -3.80774e-08 2.92091e-08)
(1.82576e-08 -4.44936e-08 3.57747e-08)
(2.07019e-08 -5.12597e-08 4.33631e-08)
(2.32691e-08 -5.83287e-08 5.20569e-08)
(2.59025e-08 -6.55862e-08 6.18269e-08)
(2.84154e-08 -7.28272e-08 7.246e-08)
(3.0326e-08 -7.96903e-08 8.33595e-08)
(3.06336e-08 -8.55246e-08 9.33104e-08)
(2.77139e-08 -8.92218e-08 1.00232e-07)
(2.11981e-08 -8.9719e-08 1.02046e-07)
(1.75108e-09 -3.69761e-09 2.47368e-09)
(4.87397e-09 -1.03648e-08 6.98474e-09)
(7.71912e-09 -1.66372e-08 1.13724e-08)
(1.03726e-08 -2.27844e-08 1.59001e-08)
(1.29107e-08 -2.90248e-08 2.07997e-08)
(1.54035e-08 -3.55325e-08 2.62824e-08)
(1.7917e-08 -4.24408e-08 3.25425e-08)
(2.0515e-08 -4.9846e-08 3.97566e-08)
(2.32572e-08 -5.78113e-08 4.80747e-08)
(2.61926e-08 -6.63675e-08 5.75966e-08)
(2.93431e-08 -7.55116e-08 6.8326e-08)
(3.26637e-08 -8.51922e-08 8.00787e-08)
(3.59549e-08 -9.52516e-08 9.23116e-08)
(3.86865e-08 -1.05226e-07 1.03791e-07)
(3.97347e-08 -1.13835e-07 1.12177e-07)
(3.78645e-08 -1.18286e-07 1.14681e-07)
(1.92353e-09 -3.90673e-09 2.69692e-09)
(5.35179e-09 -1.09576e-08 7.61077e-09)
(8.46783e-09 -1.76087e-08 1.23769e-08)
(1.13623e-08 -2.41553e-08 1.72728e-08)
(1.41155e-08 -3.08405e-08 2.25415e-08)
(1.68019e-08 -3.78639e-08 2.84018e-08)
(1.94938e-08 -4.53879e-08 3.50533e-08)
(2.22642e-08 -5.35444e-08 4.26752e-08)
(2.51904e-08 -6.24415e-08 5.1419e-08)
(2.83551e-08 -7.21717e-08 6.13861e-08)
(3.18484e-08 -8.28201e-08 7.25858e-08)
(3.57658e-08 -9.44782e-08 8.48512e-08)
(4.01995e-08 -1.07254e-07 9.76647e-08)
(4.52232e-08 -1.21244e-07 1.09781e-07)
(5.0799e-08 -1.36267e-07 1.18562e-07)
(5.60191e-08 -1.49815e-07 1.20177e-07)
(1.55548e-10 -3.63739e-10 1.96692e-10)
(4.33115e-10 -1.01736e-09 5.56172e-10)
(6.86278e-10 -1.62595e-09 9.07703e-10)
(9.2273e-10 -2.21196e-09 1.27403e-09)
(1.14848e-09 -2.79167e-09 1.67439e-09)
(1.36795e-09 -3.37399e-09 2.12622e-09)
(1.58388e-09 -3.96018e-09 2.64443e-09)
(1.797e-09 -4.5424e-09 3.24056e-09)
(2.00545e-09 -5.10113e-09 3.91998e-09)
(2.20439e-09 -5.60249e-09 4.67709e-09)
(2.38656e-09 -5.99539e-09 5.48654e-09)
(2.54523e-09 -6.20875e-09 6.28947e-09)
(2.68312e-09 -6.141e-09 6.97805e-09)
(2.80293e-09 -5.62773e-09 7.36304e-09)
(2.8688e-09 -4.35783e-09 7.20379e-09)
(2.66216e-09 -2.09189e-09 6.384e-09)
(4.63197e-10 -1.07976e-09 5.84794e-10)
(1.28959e-09 -3.02034e-09 1.65309e-09)
(2.04336e-09 -4.82824e-09 2.69815e-09)
(2.7469e-09 -6.57075e-09 3.78557e-09)
(3.41816e-09 -8.29627e-09 4.97345e-09)
(4.07035e-09 -1.0033e-08 6.31273e-09)
(4.71153e-09 -1.17867e-08 7.84738e-09)
(5.34325e-09 -1.35369e-08 9.61094e-09)
(5.95789e-09 -1.52311e-08 1.1619e-08)
(6.535e-09 -1.67776e-08 1.38535e-08)
(7.03821e-09 -1.80445e-08 1.62374e-08)
(7.41672e-09 -1.88683e-08 1.85954e-08)
(7.5986e-09 -1.9089e-08 2.05802e-08)
(7.4853e-09 -1.86278e-08 2.16208e-08)
(6.92585e-09 -1.76196e-08 2.09938e-08)
(5.94193e-09 -1.65917e-08 1.88165e-08)
(7.61371e-10 -1.76326e-09 9.5834e-10)
(2.11971e-09 -4.9337e-09 2.70865e-09)
(3.35842e-09 -7.89107e-09 4.41975e-09)
(4.51415e-09 -1.07472e-08 6.1988e-09)
(5.61647e-09 -1.35843e-08 8.13982e-09)
(6.68756e-09 -1.64532e-08 1.0326e-08)
(7.74125e-09 -1.93709e-08 1.28295e-08)
(8.78004e-09 -2.23153e-08 1.57062e-08)
(9.78872e-09 -2.52175e-08 1.89843e-08)
(1.07245e-08 -2.79563e-08 2.26419e-08)
(1.15027e-08 -3.03611e-08 2.65696e-08)
(1.19791e-08 -3.22446e-08 3.05123e-08)
(1.19315e-08 -3.35028e-08 3.39968e-08)
(1.10724e-08 -3.43212e-08 3.6299e-08)
(9.22143e-09 -3.53978e-08 3.66889e-08)
(7.04909e-09 -3.73487e-08 3.5561e-08)
(1.04409e-09 -2.39269e-09 1.30824e-09)
(2.90673e-09 -6.69731e-09 3.69743e-09)
(4.60458e-09 -1.07195e-08 6.03046e-09)
(6.18776e-09 -1.46152e-08 8.45261e-09)
(7.6971e-09 -1.85017e-08 1.10907e-08)
(9.16425e-09 -2.24575e-08 1.40574e-08)
(1.06101e-08 -2.65189e-08 1.74513e-08)
(1.20401e-08 -3.06759e-08 2.13506e-08)
(1.34348e-08 -3.48647e-08 2.57995e-08)
(1.47311e-08 -3.89614e-08 3.0782e-08)
(1.57933e-08 -4.27849e-08 3.61772e-08)
(1.63672e-08 -4.61294e-08 4.16951e-08)
(1.6028e-08 -4.88653e-08 4.68064e-08)
(1.41955e-08 -5.11434e-08 5.07322e-08)
(1.05013e-08 -5.35797e-08 5.27214e-08)
(6.24819e-09 -5.64812e-08 5.29747e-08)
(1.30594e-09 -2.94667e-09 1.62705e-09)
(3.63514e-09 -8.25153e-09 4.59681e-09)
(5.75681e-09 -1.32183e-08 7.49294e-09)
(7.73323e-09 -1.80455e-08 1.04932e-08)
(9.61609e-09 -2.28867e-08 1.37527e-08)
(1.14469e-08 -2.78512e-08 1.741e-08)
(1.32555e-08 -3.30028e-08 2.15867e-08)
(1.50555e-08 -3.83567e-08 2.6382e-08)
(1.68323e-08 -4.38734e-08 3.18579e-08)
(1.85207e-08 -4.94512e-08 3.80104e-08)
(1.99639e-08 -5.49193e-08 4.47228e-08)
(2.08462e-08 -6.00413e-08 5.17018e-08)
(2.059e-08 -6.45393e-08 5.83877e-08)
(1.83287e-08 -6.81723e-08 6.39683e-08)
(1.33221e-08 -7.08693e-08 6.761e-08)
(7.10435e-09 -7.27252e-08 6.91951e-08)
(1.54209e-09 -3.40471e-09 1.90827e-09)
(4.29142e-09 -9.53859e-09 5.38896e-09)
(6.79315e-09 -1.52944e-08 8.77711e-09)
(9.12004e-09 -2.09102e-08 1.22769e-08)
(1.13334e-08 -2.65742e-08 1.60665e-08)
(1.34846e-08 -3.24282e-08 2.03046e-08)
(1.56144e-08 -3.85682e-08 2.51314e-08)
(1.77497e-08 -4.50436e-08 3.06629e-08)
(1.98936e-08 -5.18545e-08 3.69765e-08)
(2.20054e-08 -5.89438e-08 4.40808e-08)
(2.39661e-08 -6.6184e-08 5.18751e-08)
(2.55e-08 -7.33445e-08 6.00523e-08)
(2.60716e-08 -8.00288e-08 6.80491e-08)
(2.47619e-08 -8.55257e-08 7.49786e-08)
(2.04826e-08 -8.86375e-08 7.98773e-08)
(1.39971e-08 -8.8289e-08 8.24111e-08)
(1.74862e-09 -3.74774e-09 2.14725e-09)
(4.86464e-09 -1.0505e-08 6.06091e-09)
(7.69587e-09 -1.68611e-08 9.86159e-09)
(1.0323e-08 -2.30879e-08 1.37732e-08)
(1.28152e-08 -2.94044e-08 1.79902e-08)
(1.52323e-08 -3.59828e-08 2.26852e-08)
(1.76259e-08 -4.29508e-08 2.80103e-08)
(2.00385e-08 -5.0395e-08 3.40918e-08)
(2.24984e-08 -5.83605e-08 4.10157e-08)
(2.50104e-08 -6.68486e-08 4.88005e-08)
(2.75345e-08 -7.58064e-08 5.73434e-08)
(2.99482e-08 -8.50994e-08 6.63414e-08)
(3.19831e-08 -9.44362e-08 7.51748e-08)
(3.31591e-08 -1.03172e-07 8.28151e-08)
(3.28325e-08 -1.09897e-07 8.79759e-08)
(3.09291e-08 -1.12273e-07 9.01074e-08)
(1.92271e-09 -3.95922e-09 2.34144e-09)
(5.34706e-09 -1.11044e-08 6.60541e-09)
(8.45245e-09 -1.78429e-08 1.07347e-08)
(1.13245e-08 -2.44719e-08 1.49657e-08)
(1.4037e-08 -3.12344e-08 1.95022e-08)
(1.66558e-08 -3.83267e-08 2.45234e-08)
(1.92401e-08 -4.59033e-08 3.01856e-08)
(2.18445e-08 -5.40813e-08 3.66167e-08)
(2.45193e-08 -6.29432e-08 4.3902e-08)
(2.73088e-08 -7.25382e-08 5.20577e-08)
(3.02487e-08 -8.28791e-08 6.09753e-08)
(3.33601e-08 -9.39361e-08 7.03359e-08)
(3.66518e-08 -1.05621e-07 7.9467e-08)
(4.01801e-08 -1.17761e-07 8.71646e-08)
(4.42078e-08 -1.29965e-07 9.16388e-08)
(4.88475e-08 -1.40471e-07 9.16979e-08)
(1.54492e-10 -3.67777e-10 1.59953e-10)
(4.29751e-10 -1.02866e-09 4.51965e-10)
(6.79799e-10 -1.64411e-09 7.37551e-10)
(9.11333e-10 -2.23724e-09 1.03386e-09)
(1.12925e-09 -2.82438e-09 1.35686e-09)
(1.3363e-09 -3.41524e-09 1.71944e-09)
(1.5328e-09 -4.01229e-09 2.13254e-09)
(1.71577e-09 -4.60937e-09 2.60331e-09)
(1.87812e-09 -5.19137e-09 3.13345e-09)
(2.00695e-09 -5.73154e-09 3.71419e-09)
(2.08386e-09 -6.1919e-09 4.3213e-09)
(2.08749e-09 -6.52239e-09 4.90829e-09)
(1.99782e-09 -6.65313e-09 5.39715e-09)
(1.80398e-09 -6.45465e-09 5.70697e-09)
(1.48326e-09 -5.62263e-09 5.80684e-09)
(9.82364e-10 -3.75196e-09 5.78042e-09)
(4.60122e-10 -1.09167e-09 4.75484e-10)
(1.28002e-09 -3.05376e-09 1.34399e-09)
(2.02467e-09 -4.8822e-09 2.1919e-09)
(2.71401e-09 -6.64512e-09 3.07246e-09)
(3.36269e-09 -8.39253e-09 4.03071e-09)
(3.97903e-09 -1.01538e-08 5.10567e-09)
(4.56412e-09 -1.19373e-08 6.32897e-09)
(5.10959e-09 -1.37281e-08 7.72234e-09)
(5.593e-09 -1.54833e-08 9.28956e-09)
(5.97361e-09 -1.71293e-08 1.10053e-08)
(6.18916e-09 -1.85637e-08 1.27975e-08)
(6.15782e-09 -1.96644e-08 1.45195e-08)
(5.79756e-09 -2.03087e-08 1.59392e-08)
(5.06853e-09 -2.03886e-08 1.67329e-08)
(4.07654e-09 -1.98043e-08 1.66305e-08)
(3.26971e-09 -1.86363e-08 1.58462e-08)
(7.56658e-10 -1.78261e-09 7.79291e-10)
(2.10504e-09 -4.98797e-09 2.20228e-09)
(3.32964e-09 -7.9783e-09 3.5911e-09)
(4.46334e-09 -1.08671e-08 5.03165e-09)
(5.53035e-09 -1.37377e-08 6.59762e-09)
(6.54569e-09 -1.66431e-08 8.35248e-09)
(7.51288e-09 -1.96035e-08 1.03487e-08)
(8.41936e-09 -2.26024e-08 1.26222e-08)
(9.22935e-09 -2.55826e-08 1.51826e-08)
(9.87286e-09 -2.84422e-08 1.7995e-08)
(1.02343e-08 -3.10413e-08 2.09542e-08)
(1.01468e-08 -3.32295e-08 2.38542e-08)
(9.41123e-09 -3.49167e-08 2.63702e-08)
(7.89613e-09 -3.61971e-08 2.81064e-08)
(5.82594e-09 -3.74544e-08 2.88305e-08)
(4.26168e-09 -3.89666e-08 2.89172e-08)
(1.03832e-09 -2.41867e-09 1.06419e-09)
(2.88856e-09 -6.77022e-09 3.00633e-09)
(4.56879e-09 -1.08363e-08 4.90048e-09)
(6.12401e-09 -1.47744e-08 6.86204e-09)
(7.58879e-09 -1.87036e-08 8.99067e-09)
(8.98574e-09 -2.27034e-08 1.13726e-08)
(1.03231e-08 -2.68122e-08 1.40795e-08)
(1.15889e-08 -3.1024e-08 1.71625e-08)
(1.27398e-08 -3.52819e-08 2.06395e-08)
(1.36845e-08 -3.9475e-08 2.44746e-08)
(1.42596e-08 -4.3441e-08 2.85475e-08)
(1.42042e-08 -4.69917e-08 3.2622e-08)
(1.31568e-08 -4.99857e-08 3.63358e-08)
(1.07696e-08 -5.24711e-08 3.92767e-08)
(7.15049e-09 -5.48087e-08 4.1225e-08)
(3.88222e-09 -5.71594e-08 4.23715e-08)
(1.29971e-09 -2.97832e-09 1.32358e-09)
(3.6154e-09 -8.34005e-09 3.73829e-09)
(5.71747e-09 -1.33595e-08 6.0899e-09)
(7.66267e-09 -1.82369e-08 8.52002e-09)
(9.49533e-09 -2.31264e-08 1.11506e-08)
(1.12473e-08 -2.81375e-08 1.40876e-08)
(1.29351e-08 -3.33337e-08 1.742e-08)
(1.45535e-08 -3.87292e-08 2.12128e-08)
(1.60643e-08 -4.42839e-08 2.54937e-08)
(1.73753e-08 -4.98955e-08 3.02312e-08)
(1.83086e-08 -5.53916e-08 3.53003e-08)
(1.85535e-08 -6.05243e-08 4.04447e-08)
(1.76296e-08 -6.49834e-08 4.52878e-08)
(1.4943e-08 -6.84347e-08 4.93903e-08)
(1.026e-08 -7.06562e-08 5.25054e-08)
(5.30279e-09 -7.17741e-08 5.46106e-08)
(1.53605e-09 -3.4408e-09 1.55248e-09)
(4.27211e-09 -9.63942e-09 4.38327e-09)
(6.75404e-09 -1.54547e-08 7.13488e-09)
(9.04866e-09 -2.11258e-08 9.97019e-09)
(1.12102e-08 -2.68412e-08 1.30293e-08)
(1.32802e-08 -3.2741e-08 1.64339e-08)
(1.52857e-08 -3.89174e-08 2.02862e-08)
(1.72357e-08 -4.54131e-08 2.46628e-08)
(1.91106e-08 -5.22176e-08 2.95996e-08)
(2.08465e-08 -5.92573e-08 3.50698e-08)
(2.23038e-08 -6.63759e-08 4.09376e-08)
(2.32268e-08 -7.33028e-08 4.69428e-08)
(2.31779e-08 -7.95751e-08 5.26501e-08)
(2.15282e-08 -8.44038e-08 5.7563e-08)
(1.77041e-08 -8.65642e-08 6.13599e-08)
(1.2636e-08 -8.5264e-08 6.39666e-08)
(1.74335e-09 -3.78695e-09 1.74727e-09)
(4.8475e-09 -1.06144e-08 4.93068e-09)
(7.66015e-09 -1.70344e-08 8.01791e-09)
(1.02565e-08 -2.33198e-08 1.11875e-08)
(1.26985e-08 -2.96885e-08 1.45927e-08)
(1.50367e-08 -3.63095e-08 1.83658e-08)
(1.73103e-08 -4.33035e-08 2.2618e-08)
(1.95447e-08 -5.07447e-08 2.7432e-08)
(2.17482e-08 -5.86582e-08 3.28482e-08)
(2.39032e-08 -6.70129e-08 3.88369e-08)
(2.59547e-08 -7.57055e-08 4.52589e-08)
(2.7793e-08 -8.45272e-08 5.18115e-08)
(2.92404e-08 -9.30893e-08 5.79918e-08)
(3.0079e-08 -1.00664e-07 6.31392e-08)
(3.0152e-08 -1.05918e-07 6.67131e-08)
(2.95757e-08 -1.07094e-07 6.87187e-08)
(1.91871e-09 -4.00018e-09 1.9056e-09)
(5.33351e-09 -1.12186e-08 5.37457e-09)
(8.4229e-09 -1.80234e-08 8.72932e-09)
(1.12671e-08 -2.47123e-08 1.21588e-08)
(1.39339e-08 -3.15266e-08 1.58233e-08)
(1.64803e-08 -3.86578e-08 1.98609e-08)
(1.89543e-08 -4.62509e-08 2.43853e-08)
(2.13958e-08 -5.44066e-08 2.94801e-08)
(2.38371e-08 -6.3181e-08 3.51838e-08)
(2.63028e-08 -7.25805e-08 4.14601e-08)
(2.88133e-08 -8.25534e-08 4.81561e-08)
(3.13945e-08 -9.29775e-08 5.49361e-08)
(3.41209e-08 -1.03651e-07 6.12141e-08)
(3.72503e-08 -1.14314e-07 6.61302e-08)
(4.14572e-08 -1.24707e-07 6.87465e-08)
(4.7116e-08 -1.33824e-07 6.88686e-08)
(1.53421e-10 -3.70683e-10 1.17918e-10)
(4.26503e-10 -1.03683e-09 3.33341e-10)
(6.73598e-10 -1.65738e-09 5.43228e-10)
(9.00663e-10 -2.25515e-09 7.61167e-10)
(1.11198e-09 -2.84829e-09 9.97819e-10)
(1.30857e-09 -3.44542e-09 1.26239e-09)
(1.48906e-09 -4.04977e-09 1.56206e-09)
(1.64822e-09 -4.65683e-09 1.90119e-09)
(1.77588e-09 -5.25325e-09 2.27945e-09)
(1.85608e-09 -5.81591e-09 2.68923e-09)
(1.86793e-09 -6.31152e-09 3.1124e-09)
(1.7903e-09 -6.69448e-09 3.51724e-09)
(1.61177e-09 -6.89628e-09 3.86763e-09)
(1.3407e-09 -6.77396e-09 4.13183e-09)
(9.85902e-10 -5.99645e-09 4.35254e-09)
(5.1922e-10 -4.1206e-09 4.58355e-09)
(4.57084e-10 -1.10036e-09 3.5073e-10)
(1.27065e-09 -3.07821e-09 9.90735e-10)
(2.00672e-09 -4.92117e-09 1.61519e-09)
(2.68371e-09 -6.70009e-09 2.26226e-09)
(3.31252e-09 -8.46261e-09 2.96434e-09)
(3.89838e-09 -1.02409e-08 3.74861e-09)
(4.43729e-09 -1.20445e-08 4.63623e-09)
(4.91421e-09 -1.38614e-08 5.63984e-09)
(5.29895e-09 -1.56536e-08 6.75839e-09)
(5.54292e-09 -1.73556e-08 7.96915e-09)
(5.57976e-09 -1.8874e-08 9.21705e-09)
(5.33789e-09 -2.00918e-08 1.04102e-08)
(4.77345e-09 -2.08691e-08 1.14076e-08)
(3.93662e-09 -2.103e-08 1.20547e-08)
(3.07478e-09 -2.03331e-08 1.22367e-08)
(2.64741e-09 -1.88072e-08 1.2006e-08)
(7.51985e-10 -1.79679e-09 5.74828e-10)
(2.09055e-09 -5.02771e-09 1.62364e-09)
(3.30222e-09 -8.04264e-09 2.64647e-09)
(4.41579e-09 -1.09543e-08 3.70509e-09)
(5.45222e-09 -1.38493e-08 4.85257e-09)
(6.42015e-09 -1.67798e-08 6.13307e-09)
(7.31571e-09 -1.97679e-08 7.58155e-09)
(8.11695e-09 -2.28003e-08 9.21955e-09)
(8.77714e-09 -2.58247e-08 1.10474e-08)
(9.21706e-09 -2.87462e-08 1.30325e-08)
(9.32131e-09 -3.14316e-08 1.50959e-08)
(8.94799e-09 -3.37272e-08 1.71012e-08)
(7.97533e-09 -3.55022e-08 1.88572e-08)
(6.4278e-09 -3.67465e-08 2.01668e-08)
(4.72835e-09 -3.76733e-08 2.09418e-08)
(3.84616e-09 -3.85957e-08 2.13044e-08)
(1.03249e-09 -2.43786e-09 7.84791e-10)
(2.87052e-09 -6.82388e-09 2.21695e-09)
(4.53398e-09 -1.09218e-08 3.61182e-09)
(6.0643e-09 -1.48911e-08 5.05364e-09)
(7.48961e-09 -1.88494e-08 6.61347e-09)
(8.82636e-09 -2.2878e-08 8.35168e-09)
(1.00736e-08 -2.70158e-08 1.03162e-08)
(1.1208e-08 -3.12572e-08 1.25378e-08)
(1.21747e-08 -3.55472e-08 1.50205e-08)
(1.28743e-08 -3.9776e-08 1.77277e-08)
(1.31502e-08 -4.37788e-08 2.05668e-08)
(1.27846e-08 -4.73511e-08 2.33788e-08)
(1.15283e-08 -5.03041e-08 2.595e-08)
(9.23483e-09 -5.25772e-08 2.80744e-08)
(6.22982e-09 -5.44025e-08 2.9666e-08)
(3.88754e-09 -5.60703e-08 3.07005e-08)
(1.29324e-09 -3.00159e-09 9.76312e-10)
(3.59543e-09 -8.40525e-09 2.75701e-09)
(5.67896e-09 -1.34633e-08 4.48918e-09)
(7.59516e-09 -1.83756e-08 6.27551e-09)
(9.3836e-09 -2.32981e-08 8.20347e-09)
(1.10677e-08 -2.83384e-08 1.03472e-08)
(1.26544e-08 -3.35586e-08 1.27661e-08)
(1.41269e-08 -3.89701e-08 1.54996e-08)
(1.54356e-08 -4.45282e-08 1.85564e-08)
(1.64828e-08 -5.01224e-08 2.18987e-08)
(1.71037e-08 -5.55653e-08 2.54249e-08)
(1.70464e-08 -6.05832e-08 2.89656e-08)
(1.59607e-08 -6.48101e-08 3.22771e-08)
(1.34856e-08 -6.7837e-08 3.51456e-08)
(9.60695e-09 -6.93826e-08 3.74652e-08)
(5.75402e-09 -6.97743e-08 3.90765e-08)
(1.52961e-09 -3.46742e-09 1.14544e-09)
(4.25188e-09 -9.7135e-09 3.23317e-09)
(6.71436e-09 -1.55715e-08 5.26025e-09)
(8.97947e-09 -2.12818e-08 7.34484e-09)
(1.10944e-08 -2.70306e-08 9.58722e-09)
(1.30934e-08 -3.2957e-08 1.20727e-08)
(1.49941e-08 -3.91483e-08 1.48699e-08)
(1.67939e-08 -4.56401e-08 1.80247e-08)
(1.84631e-08 -5.24096e-08 2.15493e-08)
(1.99335e-08 -5.93642e-08 2.54033e-08)
(2.10847e-08 -6.63209e-08 2.9482e-08)
(2.17199e-08 -7.2967e-08 3.35789e-08)
(2.15457e-08 -7.87926e-08 3.74234e-08)
(2.01693e-08 -8.29706e-08 4.07422e-08)
(1.72419e-08 -8.43194e-08 4.33958e-08)
(1.33734e-08 -8.2346e-08 4.52393e-08)
(1.73736e-09 -3.81577e-09 1.28929e-09)
(4.82859e-09 -1.06946e-08 3.63748e-09)
(7.6228e-09 -1.71607e-08 5.91215e-09)
(1.01896e-08 -2.34862e-08 8.24291e-09)
(1.25862e-08 -2.98883e-08 1.07396e-08)
(1.48551e-08 -3.65316e-08 1.34952e-08)
(1.70261e-08 -4.35303e-08 1.65838e-08)
(1.91147e-08 -5.09464e-08 2.0055e-08)
(2.11193e-08 -5.87865e-08 2.39214e-08)
(2.30202e-08 -6.6991e-08 2.81402e-08)
(2.47792e-08 -7.5417e-08 3.25872e-08)
(2.63433e-08 -8.38048e-08 3.70284e-08)
(2.76681e-08 -9.17191e-08 4.11143e-08)
(2.87589e-08 -9.84312e-08 4.44565e-08)
(2.9675e-08 -1.02748e-07 4.67945e-08)
(3.02299e-08 -1.03324e-07 4.81445e-08)
(1.91363e-09 -4.03027e-09 1.4063e-09)