/*--------------------------------*- C++ -*----------------------------------*\
| =========                 |                                                 |
| \\      /  F ield         | OpenFOAM: The Open Source CFD Toolbox           |
|  \\    /   O peration     | Version:  v1912                                 |
|   \\  /    A nd           | Website:  www.openfoam.com                      |
|    \\/     M anipulation  |                                                 |
\*---------------------------------------------------------------------------*/
FoamFile
{
    version     2.0;
    format      ascii;
    class       surfaceScalarField;
    location    "0.57/fluid";
    object      meshPhi;
}
// * * * * * * * * * * * * * * * * * * * * * * * * * * * * * * * * * * * * * //

dimensions      [0 3 -1 0 0 0 0];
oriented        oriented;


internalField   nonuniform List<scalar> 
41600
(
1.83974e-13
-4.5693e-13
1.70816e-13
-1.76449e-13
3.51005e-13
-1.33127e-12
5.03441e-13
-5.20304e-13
5.07493e-13
-2.14323e-12
8.29526e-13
-8.58129e-13
6.59228e-13
-2.92176e-12
1.17069e-12
-1.21266e-12
8.1175e-13
-3.68654e-12
1.54642e-12
-1.60455e-12
9.70867e-13
-4.44661e-12
1.97491e-12
-2.05332e-12
1.14343e-12
-5.19808e-12
2.47353e-12
-2.57812e-12
1.33854e-12
-5.91928e-12
3.05887e-12
-3.19796e-12
1.56998e-12
-6.56186e-12
3.74623e-12
-3.93185e-12
1.86145e-12
-7.0351e-12
4.54871e-12
-4.79914e-12
2.2581e-12
-7.17745e-12
5.47658e-12
-5.82164e-12
2.85204e-12
-6.70095e-12
6.5392e-12
-7.03254e-12
3.83128e-12
-5.07935e-12
7.75394e-12
-8.50358e-12
5.53396e-12
-1.3673e-12
9.16057e-12
-1.04063e-11
8.11635e-12
5.43614e-12
1.07426e-11
-1.29323e-11
1.69456e-11
1.35035e-11
-1.98551e-11
5.47766e-13
-9.00362e-13
5.08058e-13
-5.24832e-13
1.04496e-12
-2.6238e-12
1.49729e-12
-1.54749e-12
1.51048e-12
-4.22593e-12
2.46676e-12
-2.55184e-12
1.96135e-12
-5.76479e-12
3.48048e-12
-3.60521e-12
2.41389e-12
-7.28078e-12
4.59613e-12
-4.76869e-12
2.8851e-12
-8.79489e-12
5.8676e-12
-6.10017e-12
3.39459e-12
-1.03045e-11
7.34632e-12
-7.65621e-12
3.96758e-12
-1.17755e-11
9.08126e-12
-9.49284e-12
4.64049e-12
-1.31287e-11
1.11172e-11
-1.16653e-11
5.47231e-12
-1.42169e-11
1.34907e-11
-1.42273e-11
6.56844e-12
-1.47917e-11
1.62252e-11
-1.72326e-11
8.12922e-12
-1.44568e-11
1.93259e-11
-2.07452e-11
1.05276e-11
-1.26319e-11
2.27801e-11
-2.48749e-11
1.43417e-11
-8.64332e-12
2.65492e-11
-2.98426e-11
1.95756e-11
-2.53004e-12
3.03907e-11
-3.57038e-11
4.66988e-12
3.33778e-11
-4.34003e-11
8.99356e-13
-1.31697e-12
8.32491e-13
-8.59988e-13
1.71528e-12
-3.83915e-12
2.45309e-12
-2.53534e-12
2.4783e-12
-6.18764e-12
4.04025e-12
-4.17953e-12
3.21589e-12
-8.44994e-12
5.69809e-12
-5.90198e-12
3.95432e-12
-1.06893e-11
7.52031e-12
-7.80196e-12
4.72063e-12
-1.29431e-11
9.5946e-12
-9.97364e-12
5.54511e-12
-1.52186e-11
1.20047e-11
-1.25089e-11
6.46462e-12
-1.74844e-11
1.48305e-11
-1.54986e-11
7.5281e-12
-1.96562e-11
1.81444e-11
-1.9031e-11
8.80609e-12
-2.15754e-11
2.20043e-11
-2.31886e-11
1.0409e-11
-2.29805e-11
2.64388e-11
-2.80406e-11
1.25188e-11
-2.34846e-11
3.14256e-11
-3.3637e-11
1.54223e-11
-2.25981e-11
3.68569e-11
-4.00026e-11
1.94546e-11
-1.99226e-11
4.24794e-11
-4.71195e-11
2.4251e-11
-1.58258e-11
4.7709e-11
-5.45343e-11
-1.13069e-11
5.18047e-11
-6.37191e-11
1.23122e-12
-1.69313e-12
1.13635e-12
-1.17385e-12
2.34735e-12
-4.93779e-12
3.34772e-12
-3.45984e-12
3.38936e-12
-7.96527e-12
5.51124e-12
-5.70085e-12
4.39397e-12
-1.08926e-11
7.76745e-12
-8.04462e-12
5.39624e-12
-1.38076e-11
1.02428e-11
-1.0625e-11
6.43189e-12
-1.6769e-11
1.30557e-11
-1.35691e-11
7.53976e-12
-1.98028e-11
1.63196e-11
-1.70011e-11
8.7647e-12
-2.28958e-11
2.01433e-11
-2.10437e-11
1.01607e-11
-2.59844e-11
2.46268e-11
-2.58169e-11
1.17946e-11
-2.89366e-11
2.98512e-11
-3.14305e-11
1.37498e-11
-3.15293e-11
3.58563e-11
-3.79696e-11
1.61299e-11
-3.34258e-11
4.26035e-11
-4.54689e-11
1.90464e-11
-3.41832e-11
4.99101e-11
-5.38689e-11
2.25489e-11
-3.33643e-11
5.73441e-11
-6.29377e-11
2.61852e-11
-3.10047e-11
6.40184e-11
-7.18458e-11
-2.74883e-11
6.88007e-11
-8.16109e-11
1.53657e-12
-2.01546e-12
1.41277e-12
-1.45929e-12
2.92804e-12
-5.88063e-12
4.16076e-12
-4.29974e-12
4.22418e-12
-9.49562e-12
6.84534e-12
-7.08011e-12
5.46955e-12
-1.30059e-11
9.63871e-12
-9.98132e-12
6.70663e-12
-1.65249e-11
1.26954e-11
-1.3167e-11
7.97833e-12
-2.01354e-11
1.61604e-11
-1.67925e-11
9.33066e-12
-2.38891e-11
2.01729e-11
-2.10097e-11
1.0815e-11
-2.78033e-11
2.48677e-11
-2.59699e-11
1.24898e-11
-3.18547e-11
3.0372e-11
-3.18226e-11
1.44186e-11
-3.59678e-11
3.67942e-11
-3.87083e-11
1.66643e-11
-3.99971e-11
4.42005e-11
-4.67402e-11
1.92712e-11
-4.36967e-11
5.25692e-11
-5.59697e-11
2.22189e-11
-4.66712e-11
6.17045e-11
-6.63162e-11
2.5338e-11
-4.83157e-11
7.1072e-11
-7.74275e-11
2.80728e-11
-4.79927e-11
7.94773e-11
-8.8126e-11
-4.49415e-11
8.53226e-11
-9.89286e-11
1.80978e-12
-2.27122e-12
1.65623e-12
-1.71057e-12
3.44643e-12
-6.63032e-12
4.87574e-12
-5.038e-12
4.96666e-12
-1.07177e-11
8.01494e-12
-8.28867e-12
6.42112e-12
-1.47046e-11
1.12717e-11
-1.16705e-11
7.85801e-12
-1.87285e-11
1.48232e-11
-1.53709e-11
9.32601e-12
-2.2897e-11
1.88351e-11
-1.95673e-11
1.08771e-11
-2.72901e-11
2.3467e-11
-2.44335e-11
1.25695e-11
-3.1961e-11
2.88748e-11
-3.01433e-11
1.44691e-11
-3.69366e-11
3.52093e-11
-3.68721e-11
1.6649e-11
-4.22155e-11
4.26083e-11
-4.47917e-11
1.91837e-11
-4.77624e-11
5.11775e-11
-5.40575e-11
2.21327e-11
-5.34907e-11
6.09521e-11
-6.47813e-11
2.54912e-11
-5.9204e-11
7.1812e-11
-7.6963e-11
2.90799e-11
-6.44361e-11
8.32806e-11
-9.03198e-11
3.22075e-11
-6.8176e-11
9.40035e-11
-1.03501e-10
-6.75841e-11
1.01973e-10
-1.16741e-10
2.04655e-12
-2.44896e-12
1.86279e-12
-1.92364e-12
3.89433e-12
-7.15316e-12
5.48103e-12
-5.66258e-12
5.60478e-12
-1.15759e-11
9.00059e-12
-9.30643e-12
7.2326e-12
-1.59097e-11
1.26384e-11
-1.30831e-11
8.82976e-12
-2.03123e-11
1.65876e-11
-1.71968e-11
1.04487e-11
-2.4913e-11
2.10278e-11
-2.18397e-11
1.21456e-11
-2.98176e-11
2.61316e-11
-2.71995e-11
1.39847e-11
-3.51126e-11
3.20681e-11
-3.34642e-11
1.60412e-11
-4.08714e-11
3.90036e-11
-4.08256e-11
1.84065e-11
-4.71621e-11
4.70978e-11
-4.94789e-11
2.11932e-11
-5.40589e-11
5.64943e-11
-5.96205e-11
2.45422e-11
-6.16591e-11
6.73e-11
-7.144e-11
2.86157e-11
-7.00943e-11
7.95316e-11
-8.50901e-11
3.35234e-11
-7.94746e-11
9.29366e-11
-1.00555e-10
3.86766e-11
-8.93002e-11
1.06289e-10
-1.16649e-10
-9.91386e-11
1.17432e-10
-1.34309e-10
2.24417e-12
2.0303e-12
-2.09626e-12
-2.53917e-12
4.26673e-12
5.9704e-12
-6.16708e-12
-7.4213e-12
6.13144e-12
9.7923e-12
-1.01231e-11
-1.20244e-11
7.89476e-12
1.37247e-11
-1.42046e-11
-1.65553e-11
9.61001e-12
1.79697e-11
-1.86252e-11
-2.11863e-11
1.13308e-11
2.27133e-11
-2.35838e-11
-2.60626e-11
1.31146e-11
2.81324e-11
-2.92723e-11
-3.13084e-11
1.50275e-11
3.43985e-11
-3.58815e-11
-3.70337e-11
1.71496e-11
4.16797e-11
-4.36047e-11
-4.33419e-11
1.95837e-11
5.01393e-11
-5.26405e-11
-5.03407e-11
2.24698e-11
5.99323e-11
-6.31968e-11
-5.81585e-11
2.60091e-11
7.11984e-11
-7.54978e-11
-6.69706e-11
3.04915e-11
8.40369e-11
-8.97863e-11
-7.70315e-11
3.6264e-11
9.83836e-11
-1.06262e-10
-8.86702e-11
4.28116e-11
1.13173e-10
-1.23944e-10
-1.01453e-10
1.27501e-10
-1.46346e-10
-1.18908e-10
1.84299e-13
-4.66407e-13
1.58964e-13
3.51299e-13
-1.35897e-12
4.6832e-13
5.07112e-13
-2.18823e-12
7.71021e-13
6.57145e-13
-2.98416e-12
1.08675e-12
8.06368e-13
-3.76747e-12
1.43306e-12
9.59657e-13
-4.54846e-12
1.82599e-12
1.12232e-12
-5.32489e-12
2.28029e-12
1.30087e-12
-6.07798e-12
2.80899e-12
1.50468e-12
-6.76507e-12
3.42209e-12
1.74966e-12
-7.30755e-12
4.12387e-12
2.06677e-12
-7.57057e-12
4.90799e-12
2.51996e-12
-7.32705e-12
5.74886e-12
3.23685e-12
-6.19328e-12
6.58481e-12
4.42301e-12
-3.55754e-12
7.28222e-12
6.10625e-12
1.08251e-12
7.58923e-12
7.34384e-12
7.0211e-12
5.48811e-13
-9.18936e-13
4.72807e-13
1.04601e-12
-2.67808e-12
1.39283e-12
1.50968e-12
-4.31413e-12
2.29277e-12
1.95578e-12
-5.88713e-12
3.23096e-12
2.39896e-12
-7.4395e-12
4.25935e-12
2.85355e-12
-8.99435e-12
5.42549e-12
3.33475e-12
-1.05519e-11
6.77307e-12
3.86046e-12
-1.20831e-11
8.34075e-12
4.45465e-12
-1.35178e-11
1.01581e-11
5.15486e-12
-1.47284e-11
1.22376e-11
6.02857e-12
-1.55078e-11
1.45587e-11
7.20549e-12
-1.55471e-11
1.70404e-11
8.92254e-12
-1.44454e-11
1.94892e-11
1.15034e-11
-1.18601e-11
2.15066e-11
1.48197e-11
-8.10494e-12
2.24353e-11
-5.29455e-12
2.06133e-11
9.01358e-13
-1.34398e-12
7.74741e-13
1.71764e-12
-3.91811e-12
2.28197e-12
2.47818e-12
-6.31596e-12
3.75537e-12
3.20881e-12
-8.62798e-12
5.28984e-12
3.93328e-12
-1.09201e-11
6.96985e-12
4.67456e-12
-1.32325e-11
8.87279e-12
5.45629e-12
-1.55757e-11
1.107e-11
6.30439e-12
-1.79238e-11
1.3625e-11
7.24933e-12
-2.02027e-11
1.65872e-11
8.3306e-12
-2.22742e-11
1.99786e-11
9.60569e-12
-2.39194e-11
2.37681e-11
1.11652e-11
-2.48375e-11
2.78257e-11
1.31419e-11
-2.47065e-11
3.18432e-11
1.56442e-11
-2.34082e-11
3.52174e-11
1.83432e-11
-2.14945e-11
3.70592e-11
-2.05997e-11
3.59148e-11
1.23457e-12
-1.72768e-12
1.05758e-12
2.35193e-12
-5.03882e-12
3.11439e-12
3.3916e-12
-8.12947e-12
5.12301e-12
4.38832e-12
-1.11204e-11
7.21166e-12
5.37412e-12
-1.41026e-11
9.49433e-12
6.37975e-12
-1.71377e-11
1.20757e-11
7.43609e-12
-2.0255e-11
1.50527e-11
8.57486e-12
-2.34459e-11
1.85126e-11
9.82824e-12
-2.6655e-11
2.25261e-11
1.12266e-11
-2.97663e-11
2.71297e-11
1.27926e-11
-3.25893e-11
3.22945e-11
1.45286e-11
-3.48535e-11
3.78668e-11
1.63866e-11
-3.6244e-11
4.34713e-11
1.82115e-11
-3.65463e-11
4.8377e-11
1.96476e-11
-3.59762e-11
5.15049e-11
-3.57107e-11
5.12289e-11
1.54175e-12
-2.05642e-12
1.31497e-12
2.9359e-12
-6.00041e-12
3.87116e-12
4.23073e-12
-9.69031e-12
6.36389e-12
5.46872e-12
-1.32759e-11
8.95029e-12
6.68911e-12
-1.68741e-11
1.17698e-11
7.92966e-12
-2.05705e-11
1.49507e-11
9.22803e-12
-2.44196e-11
1.86122e-11
1.0622e-11
-2.84415e-11
2.28637e-11
1.21473e-11
-3.26172e-11
2.7797e-11
1.38303e-11
-3.68795e-11
3.34691e-11
1.56712e-11
-4.10993e-11
3.98677e-11
1.76091e-11
-4.50638e-11
4.68462e-11
1.94578e-11
-4.84453e-11
5.40116e-11
2.08358e-11
-5.07738e-11
6.05532e-11
2.12825e-11
-5.15815e-11
6.51732e-11
-5.12928e-11
6.59309e-11
1.81723e-12
-2.31724e-12
1.54178e-12
3.45859e-12
-6.76489e-12
4.53702e-12
4.97936e-12
-1.09364e-11
7.45239e-12
6.42827e-12
-1.50079e-11
1.04686e-11
7.85048e-12
-1.91204e-11
1.37454e-11
9.28978e-12
-2.33842e-11
1.74297e-11
1.07904e-11
-2.7881e-11
2.16586e-11
1.23979e-11
-3.2665e-11
2.6559e-11
1.41575e-11
-3.77633e-11
3.2242e-11
1.61078e-11
-4.31743e-11
3.87865e-11
1.82654e-11
-4.88621e-11
4.6207e-11
2.05895e-11
-5.47383e-11
5.43905e-11
2.29092e-11
-6.06051e-11
6.2976e-11
2.48122e-11
-6.60024e-11
7.11407e-11
2.56524e-11
-6.99831e-11
7.7399e-11
-7.07031e-11
7.9499e-11
2.05662e-12
-2.49847e-12
1.73434e-12
3.91154e-12
-7.29799e-12
5.10111e-12
5.62505e-12
-1.18114e-11
8.37041e-12
7.25021e-12
-1.62362e-11
1.17403e-11
8.83637e-12
-2.0734e-11
1.53853e-11
1.04318e-11
-2.54364e-11
1.94646e-11
1.20863e-11
-3.04502e-11
2.41268e-11
1.38532e-11
-3.5861e-11
2.95101e-11
1.5791e-11
-4.17392e-11
3.57376e-11
1.79629e-11
-4.81459e-11
4.29044e-11
2.04338e-11
-5.51418e-11
5.105e-11
2.32598e-11
-6.27972e-11
6.01023e-11
2.64563e-11
-7.11903e-11
6.97599e-11
2.9903e-11
-8.03242e-11
7.92466e-11
3.30118e-11
-8.96242e-11
8.69477e-11
-9.79373e-11
9.01628e-11
2.25702e-12
1.89063e-12
-2.59046e-12
4.28941e-12
5.55762e-12
-7.57136e-12
6.16006e-12
9.10858e-12
-1.22685e-11
7.92423e-12
1.27525e-11
-1.6894e-11
9.6332e-12
1.66719e-11
-2.16238e-11
1.13374e-11
2.1032e-11
-2.66053e-11
1.30892e-11
2.59853e-11
-3.19632e-11
1.49467e-11
3.1672e-11
-3.78055e-11
1.69774e-11
3.82166e-11
-4.423e-11
1.92635e-11
4.57165e-11
-5.13337e-11
2.19101e-11
5.42186e-11
-5.92244e-11
2.50556e-11
6.36705e-11
-6.80383e-11
2.88786e-11
7.3815e-11
-7.79544e-11
3.35383e-11
8.39536e-11
-8.91509e-11
3.85271e-11
9.24626e-11
-1.01068e-10
9.60471e-11
-1.15291e-10
1.83849e-13
-4.74596e-13
1.41488e-13
3.50042e-13
-1.38295e-12
4.16674e-13
5.04266e-13
-2.22726e-12
6.85463e-13
6.51373e-13
-3.03833e-12
9.64993e-13
7.95524e-13
-3.83783e-12
1.27031e-12
9.40335e-13
-4.63736e-12
1.61482e-12
1.08904e-12
-5.43681e-12
2.01024e-12
1.24468e-12
-6.22137e-12
2.46583e-12
1.41062e-12
-6.95653e-12
2.98659e-12
1.59196e-12
-7.58097e-12
3.5696e-12
1.79917e-12
-7.99702e-12
4.19756e-12
2.05513e-12
-8.05878e-12
4.82748e-12
2.40248e-12
-7.55971e-12
5.37153e-12
2.88753e-12
-6.24811e-12
5.67214e-12
3.43113e-12
-4.05775e-12
5.52885e-12
-1.24277e-12
4.9622e-12
5.47575e-13
-9.34967e-13
4.20832e-13
1.0425e-12
-2.725e-12
1.23925e-12
1.50163e-12
-4.39043e-12
2.0384e-12
1.93933e-12
-5.99295e-12
2.86906e-12
2.36795e-12
-7.57671e-12
3.77582e-12
2.79817e-12
-9.16704e-12
4.79839e-12
3.23931e-12
-1.07677e-11
5.97154e-12
3.69949e-12
-1.23559e-11
7.32294e-12
4.18602e-12
-1.38749e-11
8.86778e-12
4.70716e-12
-1.52239e-11
1.05983e-11
5.27729e-12
-1.62509e-11
1.24652e-11
5.92606e-12
-1.67573e-11
1.43454e-11
6.70259e-12
-1.65461e-11
1.59922e-11
7.62706e-12
-1.55793e-11
1.69829e-11
8.47922e-12
-1.42921e-11
1.68352e-11
-1.40812e-11
1.52803e-11
8.99684e-13
-1.36724e-12
6.89608e-13
1.71264e-12
-3.98617e-12
2.03046e-12
2.46634e-12
-6.42653e-12
3.33892e-12
3.18418e-12
-8.78107e-12
4.69767e-12
3.88635e-12
-1.1118e-11
6.17921e-12
4.5903e-12
-1.34799e-11
7.84825e-12
5.31083e-12
-1.58813e-11
9.76173e-12
6.05935e-12
-1.83029e-11
1.19656e-11
6.84217e-12
-2.06841e-11
1.44866e-11
7.65786e-12
-2.29139e-11
1.73166e-11
8.49362e-12
-2.48276e-11
2.0384e-11
9.31863e-12
-2.62273e-11
2.35084e-11
1.00663e-11
-2.69652e-11
2.63354e-11
1.05896e-11
-2.71455e-11
2.82923e-11
1.06446e-11
-2.7325e-11
2.87878e-11
-2.84994e-11
2.78925e-11
1.23301e-12
-1.75734e-12
9.41446e-13
2.34665e-12
-5.12553e-12
2.77139e-12
3.37814e-12
-8.27019e-12
4.55536e-12
4.35923e-12
-1.13148e-11
6.40511e-12
5.31754e-12
-1.43528e-11
8.41852e-12
6.27709e-12
-1.74481e-11
1.06832e-11
7.25807e-12
-2.0633e-11
1.32769e-11
8.27494e-12
-2.39038e-11
1.62635e-11
9.33173e-12
-2.72148e-11
1.96835e-11
1.04125e-11
-3.04696e-11
2.35349e-11
1.14641e-11
-3.35169e-11
2.77393e-11
1.23651e-11
-3.61609e-11
3.20888e-11
1.28828e-11
-3.82172e-11
3.61768e-11
1.26611e-11
-3.96504e-11
3.93596e-11
1.15067e-11
-4.07276e-11
4.09623e-11
-4.22119e-11
4.10267e-11
1.54094e-12
-2.09144e-12
1.17071e-12
2.93177e-12
-6.10273e-12
3.44524e-12
4.21822e-12
-9.85617e-12
5.65954e-12
5.43952e-12
-1.35046e-11
7.95054e-12
6.63014e-12
-1.7167e-11
1.04381e-11
7.82057e-12
-2.0931e-11
1.32297e-11
9.03712e-12
-2.48521e-11
1.64213e-11
1.02995e-11
-2.89521e-11
2.00934e-11
1.16144e-11
-3.32152e-11
2.43015e-11
1.29611e-11
-3.75812e-11
2.90549e-11
1.42645e-11
-4.1936e-11
3.4281e-11
1.53433e-11
-4.60996e-11
3.97672e-11
1.58367e-11
-4.98113e-11
4.50857e-11
1.5184e-11
-5.27249e-11
4.95419e-11
1.31054e-11
-5.45003e-11
5.23369e-11
-5.54413e-11
5.33868e-11
1.81783e-12
-2.3564e-12
1.37284e-12
3.45703e-12
-6.8793e-12
4.03847e-12
4.97034e-12
-1.11217e-11
6.62868e-12
6.40326e-12
-1.52628e-11
9.30099e-12
7.79619e-12
-1.94457e-11
1.21929e-11
9.18583e-12
-2.37814e-11
1.54276e-11
1.06054e-11
-2.8351e-11
1.91155e-11
1.20832e-11
-3.32067e-11
2.33507e-11
1.36367e-11
-3.83712e-11
2.82018e-11
1.52605e-11
-4.38356e-11
3.36908e-11
1.68996e-11
-4.95523e-11
3.97564e-11
1.83969e-11
-5.54149e-11
4.61932e-11
1.94066e-11
-6.12027e-11
5.25645e-11
1.93231e-11
-6.64489e-11
5.81221e-11
1.76531e-11
-7.02843e-11
6.19176e-11
-7.10312e-11
6.37887e-11
2.05917e-12
-2.54044e-12
1.54457e-12
3.91377e-12
-7.42057e-12
4.54139e-12
5.6217e-12
-1.20098e-11
7.44668e-12
7.23302e-12
-1.65088e-11
1.04332e-11
8.79273e-12
-2.10807e-11
1.36511e-11
1.03427e-11
-2.58573e-11
1.72342e-11
1.19227e-11
-3.09429e-11
2.13023e-11
1.35707e-11
-3.64177e-11
2.5958e-11
1.5321e-11
-4.23416e-11
3.12778e-11
1.71975e-11
-4.87567e-11
3.72919e-11
1.92006e-11
-5.56896e-11
4.39479e-11
2.12767e-11
-6.31488e-11
5.10467e-11
2.32633e-11
-7.11002e-11
5.81399e-11
2.48077e-11
-7.9365e-11
6.44023e-11
2.53904e-11
-8.72301e-11
6.86775e-11
-9.34549e-11
7.05947e-11
2.26191e-12
1.68407e-12
-2.63379e-12
4.29627e-12
4.94874e-12
-7.6979e-12
6.1639e-12
8.10508e-12
-1.24733e-11
7.91742e-12
1.13354e-11
-1.71751e-11
9.6044e-12
1.4797e-11
-2.19808e-11
1.12697e-11
1.8629e-11
-2.7037e-11
1.29574e-11
2.29543e-11
-3.24651e-11
1.47128e-11
2.7877e-11
-3.83653e-11
1.65832e-11
3.34738e-11
-4.48215e-11
1.86186e-11
3.97748e-11
-5.1905e-11
2.08694e-11
4.67274e-11
-5.96792e-11
2.33787e-11
5.41323e-11
-6.82001e-11
2.61612e-11
6.15338e-11
-7.7505e-11
2.9137e-11
6.80663e-11
-8.75385e-11
3.18197e-11
7.24317e-11
-9.75756e-11
7.34105e-11
-1.08559e-10
1.82857e-13
-4.81381e-13
1.1914e-13
3.47713e-13
-1.40281e-12
3.50742e-13
4.99771e-13
-2.25957e-12
5.76602e-13
6.4326e-13
-3.08319e-12
8.10847e-13
7.8145e-13
-3.89613e-12
1.06569e-12
9.16603e-13
-4.71114e-12
1.35169e-12
1.04984e-12
-5.53007e-12
1.67757e-12
1.18084e-12
-6.34192e-12
2.04938e-12
1.30741e-12
-7.11983e-12
2.46865e-12
1.42537e-12
-7.81766e-12
2.92906e-12
1.52934e-12
-8.36764e-12
3.41121e-12
1.61473e-12
-8.68054e-12
3.87516e-12
1.67895e-12
-8.65014e-12
4.25228e-12
1.71369e-12
-8.16702e-12
4.44677e-12
1.68254e-12
-7.19718e-12
4.384e-12
-5.44948e-12
4.32855e-12
5.44746e-13
-9.4825e-13
3.54375e-13
1.03583e-12
-2.76387e-12
1.04321e-12
1.48871e-12
-4.45358e-12
1.71475e-12
1.91596e-12
-6.08041e-12
2.41088e-12
2.32735e-12
-7.6899e-12
3.16779e-12
2.72971e-12
-9.30926e-12
4.01675e-12
3.12637e-12
-1.09454e-11
4.98374e-12
3.51597e-12
-1.25818e-11
6.08694e-12
3.89056e-12
-1.41733e-11
7.33139e-12
4.23365e-12
-1.56427e-11
8.69964e-12
4.51938e-12
-1.68811e-11
1.01369e-11
4.71326e-12
-1.77645e-11
1.15306e-11
4.77336e-12
-1.82026e-11
1.26901e-11
4.64806e-12
-1.82392e-11
1.33577e-11
4.30578e-12
-1.81491e-11
1.3353e-11
-1.85757e-11
1.27469e-11
8.95434e-13
-1.3865e-12
5.80752e-13
1.70255e-12
-4.04246e-12
1.70939e-12
2.44663e-12
-6.51782e-12
2.80902e-12
3.1483e-12
-8.90704e-12
3.94783e-12
3.82382e-12
-1.12799e-11
5.18467e-12
4.48479e-12
-1.36813e-11
6.57059e-12
5.137e-12
-1.61286e-11
8.14825e-12
5.7779e-12
-1.86087e-11
9.94816e-12
6.39202e-12
-2.10726e-11
1.19807e-11
6.94418e-12
-2.34316e-11
1.42222e-11
7.37075e-12
-2.55614e-11
1.65931e-11
7.56968e-12
-2.7329e-11
1.89302e-11
7.39761e-12
-2.8668e-11
2.09648e-11
6.71047e-12
-2.9714e-11
2.23539e-11
5.59251e-12
-3.0833e-11
2.28814e-11
-3.24804e-11
2.28759e-11
1.22797e-12
-1.78183e-12
7.9292e-13
2.33451e-12
-5.19706e-12
2.3334e-12
3.35406e-12
-8.38591e-12
3.83286e-12
4.31492e-12
-1.14738e-11
5.38341e-12
5.23985e-12
-1.45557e-11
7.06457e-12
6.14566e-12
-1.7697e-11
8.94557e-12
7.04171e-12
-2.09321e-11
1.10847e-11
7.92596e-12
-2.42608e-11
1.35251e-11
8.77743e-12
-2.76444e-11
1.62847e-11
9.54331e-12
-3.10007e-11
1.93398e-11
1.01186e-11
-3.42036e-11
2.25996e-11
1.03184e-11
-3.70986e-11
2.58754e-11
9.86146e-12
-3.95515e-11
2.88629e-11
8.45513e-12
-4.15448e-11
3.11884e-11
6.27779e-12
-4.32224e-11
3.26033e-11
-4.49714e-11
3.34032e-11
1.53586e-12
-2.12026e-12
9.86148e-13
2.9192e-12
-6.18681e-12
2.90117e-12
4.19263e-12
-9.99187e-12
4.76261e-12
5.39157e-12
-1.36901e-11
6.68339e-12
6.54513e-12
-1.74019e-11
8.76093e-12
7.67604e-12
-2.12152e-11
1.10802e-11
8.79901e-12
-2.51854e-11
1.37135e-11
9.91645e-12
-2.9334e-11
1.67154e-11
1.10094e-11
-3.36448e-11
2.01128e-11
1.20211e-11
-3.80584e-11
2.38861e-11
1.28276e-11
-4.24638e-11
2.79418e-11
1.3193e-11
-4.66876e-11
3.20798e-11
1.2728e-11
-5.04779e-11
3.59749e-11
1.09654e-11
-5.34908e-11
3.92243e-11
8.00289e-12
-5.53514e-11
4.15158e-11
-5.61426e-11
4.30758e-11
1.81346e-12
-2.38853e-12
1.15659e-12
3.44566e-12
-6.97292e-12
3.40126e-12
4.94614e-12
-1.12725e-11
5.57912e-12
6.35648e-12
-1.54681e-11
7.82008e-12
7.71173e-12
-1.97036e-11
1.02359e-11
9.04082e-12
-2.40893e-11
1.29243e-11
1.03656e-11
-2.87037e-11
1.59683e-11
1.16975e-11
-3.35941e-11
1.94321e-11
1.30301e-11
-3.87747e-11
2.335e-11
1.43236e-11
-4.4223e-11
2.77071e-11
1.54783e-11
-4.98693e-11
3.2409e-11
1.62873e-11
-5.55726e-11
3.72452e-11
1.63803e-11
-6.10625e-11
4.18616e-11
1.52455e-11
-6.58207e-11
4.57979e-11
1.2762e-11
-6.89923e-11
4.86549e-11
-6.89365e-11
5.06706e-11
2.05619e-12
-2.57474e-12
1.30149e-12
3.90507e-12
-7.52048e-12
3.8255e-12
5.60145e-12
-1.21704e-11
6.26877e-12
7.19167e-12
-1.67267e-11
8.77386e-12
8.71567e-12
-2.13528e-11
1.1463e-11
1.0208e-11
-2.61785e-11
1.44422e-11
1.16981e-11
-3.13036e-11
1.78019e-11
1.32087e-11
-3.67993e-11
2.16118e-11
1.47521e-11
-4.27104e-11
2.591e-11
1.63216e-11
-4.90533e-11
3.06832e-11
1.78762e-11
-5.58122e-11
3.58333e-11
1.93129e-11
-6.29256e-11
4.1133e-11
2.04352e-11
-7.02527e-11
4.61809e-11
2.0954e-11
-7.74852e-11
5.04097e-11
2.06917e-11
-8.39074e-11
5.32692e-11
-8.84268e-11
5.49913e-11
2.26083e-12
1.41927e-12
-2.66908e-12
4.29137e-12
4.16937e-12
-7.80067e-12
6.14959e-12
6.82435e-12
-1.26383e-11
7.88476e-12
9.53476e-12
-1.73986e-11
9.53993e-12
1.24288e-11
-2.22587e-11
1.11536e-11
1.56168e-11
-2.73626e-11
1.27607e-11
1.91915e-11
-3.28255e-11
1.43932e-11
2.32234e-11
-3.87366e-11
1.608e-11
2.77499e-11
-4.51607e-11
1.78443e-11
3.27543e-11
-5.21373e-11
1.96997e-11
3.81315e-11
-5.96782e-11
2.16416e-11
4.36374e-11
-6.77578e-11
2.364e-11
4.88293e-11
-7.62927e-11
2.56371e-11
5.30447e-11
-8.50877e-11
2.74291e-11
5.55834e-11
-9.34537e-11
5.61854e-11
-1.02432e-10
1.81599e-13
-4.86717e-13
9.28151e-14
3.44889e-13
-1.41842e-12
2.73164e-13
4.94602e-13
-2.28496e-12
4.48803e-13
6.3437e-13
-3.11843e-12
6.30552e-13
7.66621e-13
-3.94188e-12
8.27607e-13
8.92413e-13
-4.76885e-12
1.04769e-12
1.01111e-12
-5.60269e-12
1.29688e-12
1.1198e-12
-6.43521e-12
1.57882e-12
1.2125e-12
-7.24488e-12
1.8933e-12
1.27965e-12
-7.99523e-12
2.23384e-12
1.30858e-12
-8.63489e-12
2.58463e-12
1.28591e-12
-9.09952e-12
2.91731e-12
1.20251e-12
-9.31247e-12
3.19054e-12
1.06027e-12
-9.17516e-12
3.35942e-12
8.8379e-13
-8.57935e-12
3.40347e-12
-6.99409e-12
3.57455e-12
5.41127e-13
-9.58715e-13
2.76088e-13
1.0277e-12
-2.79448e-12
8.12512e-13
1.47379e-12
-4.50326e-12
1.33477e-12
1.89024e-12
-6.14907e-12
1.87493e-12
2.28442e-12
-7.7784e-12
2.46022e-12
2.65971e-12
-9.4198e-12
3.11357e-12
3.01448e-12
-1.10825e-11
3.85306e-12
3.34011e-12
-1.27542e-11
4.68974e-12
3.61836e-12
-1.4398e-11
5.62342e-12
3.81874e-12
-1.59508e-11
6.63599e-12
3.89803e-12
-1.73263e-11
7.68264e-12
3.8052e-12
-1.84301e-11
8.68313e-12
3.49837e-12
-1.91919e-11
9.52074e-12
2.98619e-12
-1.96161e-11
1.00685e-11
2.41314e-12
-1.9809e-11
1.0268e-11
-2.01202e-11
1.01219e-11
8.89891e-13
-1.40168e-12
4.52489e-13
1.69005e-12
-4.08681e-12
1.33149e-12
2.42358e-12
-6.58957e-12
2.18678e-12
3.10842e-12
-9.00557e-12
3.0705e-12
3.75715e-12
-1.14057e-11
4.02699e-12
4.37616e-12
-1.38361e-11
5.09371e-12
4.9638e-12
-1.63163e-11
6.30041e-12
5.50694e-12
-1.8837e-11
7.66585e-12
5.97569e-12
-2.13561e-11
9.19146e-12
6.31677e-12
-2.37975e-11
1.08514e-11
6.44758e-12
-2.60554e-11
1.258e-11
6.25719e-12
-2.80171e-11
1.42602e-11
5.633e-12
-2.96186e-11
1.57259e-11
4.5606e-12
-3.09333e-11
1.68038e-11
3.36437e-12
-3.21687e-11
1.74168e-11
-3.36106e-11
1.77208e-11
1.22114e-12
-1.80113e-12
6.17866e-13
2.31901e-12
-5.25332e-12
1.81777e-12
3.32526e-12
-8.47657e-12
2.98419e-12
4.26482e-12
-1.15974e-11
4.18757e-12
5.15588e-12
-1.47118e-11
5.48784e-12
6.00889e-12
-1.78857e-11
6.93585e-12
6.82421e-12
-2.11542e-11
8.5724e-12
7.58743e-12
-2.45185e-11
1.04242e-11
8.26152e-12
-2.79428e-11
1.24962e-11
8.77526e-12
-3.13497e-11
1.47596e-11
9.00867e-12
-3.46205e-11
1.71373e-11
8.78164e-12
-3.7605e-11
1.9492e-11
7.87522e-12
-4.0157e-11
2.16344e-11
6.17279e-12
-4.2203e-11
2.3377e-11
4.09762e-12
-4.37868e-11
2.46229e-11
-4.52165e-11
2.54829e-11
1.52849e-12
-2.14291e-12
7.68538e-13
2.9023e-12
-6.25276e-12
2.26039e-12
4.16089e-12
-1.00977e-11
3.70862e-12
5.33589e-12
-1.38335e-11
5.19956e-12
6.45141e-12
-1.75808e-11
6.80669e-12
7.52322e-12
-2.1427e-11
8.5925e-12
8.55644e-12
-2.54265e-11
1.06075e-11
9.54062e-12
-2.9598e-11
1.2886e-11
1.04409e-11
-3.39218e-11
1.54372e-11
1.11837e-11
-3.83328e-11
1.82321e-11
1.16352e-11
-4.2711e-11
2.11871e-11
1.15761e-11
-4.68675e-11
2.41515e-11
1.06996e-11
-5.05228e-11
2.69176e-11
8.73868e-12
-5.32903e-11
2.92793e-11
6.02605e-12
-5.47711e-11
3.11035e-11
-5.50604e-11
3.24559e-11
1.80632e-12
-2.41371e-12
9.01508e-13
3.42901e-12
-7.04609e-12
2.65044e-12
4.91433e-12
-1.13895e-11
4.34512e-12
6.29997e-12
-1.56256e-11
6.08491e-12
7.61586e-12
-1.98978e-11
7.95419e-12
8.88397e-12
-2.43149e-11
1.00248e-11
1.01167e-11
-2.89516e-11
1.23549e-11
1.13131e-11
-3.38485e-11
1.49846e-11
1.24516e-11
-3.90092e-11
1.79267e-11
1.34781e-11
-4.43942e-11
2.11516e-11
1.42861e-11
-4.99075e-11
2.45691e-11
1.46897e-11
-5.53699e-11
2.80111e-11
1.4407e-11
-6.04626e-11
3.12379e-11
1.31304e-11
-6.46291e-11
3.39981e-11
1.09685e-11
-6.70675e-11
3.61161e-11
-6.63346e-11
3.76935e-11
2.04996e-12
-2.60155e-12
1.0146e-12
3.89017e-12
-7.59827e-12
2.98148e-12
5.57218e-12
-1.22945e-11
4.88302e-12
7.13858e-12
-1.68928e-11
6.82831e-12
8.62443e-12
-2.15557e-11
8.90961e-12
1.00577e-11
-2.64102e-11
1.12051e-11
1.1459e-11
-3.15502e-11
1.3778e-11
1.28396e-11
-3.70371e-11
1.66717e-11
1.41985e-11
-4.28987e-11
1.98998e-11
1.55158e-11
-4.91257e-11
2.34306e-11
1.67445e-11
-5.56623e-11
2.71638e-11
1.78001e-11
-6.23909e-11
3.09066e-11
1.85641e-11
-6.91026e-11
3.43678e-11
1.89338e-11
-7.54454e-11
3.72077e-11
1.89546e-11
-8.08088e-11
3.91702e-11
-8.44112e-11
4.04312e-11
2.25607e-12
1.10658e-12
-2.69658e-12
4.2794e-12
3.24996e-12
-7.88044e-12
6.12493e-12
5.31663e-12
-1.27653e-11
7.83849e-12
7.42191e-12
-1.7568e-11
9.45868e-12
9.66269e-12
-2.24641e-11
1.1018e-11
1.21203e-11
-2.75943e-11
1.25437e-11
1.48597e-11
-3.30665e-11
1.40577e-11
1.79243e-11
-3.89577e-11
1.55768e-11
2.13262e-11
-4.53129e-11
1.71128e-11
2.50288e-11
-5.21414e-11
1.86723e-11
2.89217e-11
-5.941e-11
2.0262e-11
3.2789e-11
-6.70326e-11
2.19097e-11
3.62917e-11
-7.48582e-11
2.37034e-11
3.90016e-11
-8.26587e-11
2.56356e-11
4.05675e-11
-8.98894e-11
4.09318e-11
-9.78876e-11
1.80349e-13
-4.90611e-13
6.34901e-14
3.42146e-13
-1.42983e-12
1.86817e-13
4.89721e-13
-2.30354e-12
3.06807e-13
6.26199e-13
-3.14425e-12
4.30767e-13
7.53326e-13
-3.97531e-12
5.64821e-13
8.71244e-13
-4.81075e-12
7.13996e-13
9.78084e-13
-5.65479e-12
8.82077e-13
1.06932e-12
-6.50094e-12
1.07109e-12
1.13709e-12
-7.33048e-12
1.28033e-12
1.17003e-12
-8.11145e-12
1.50502e-12
1.15468e-12
-8.79833e-12
1.73487e-12
1.07998e-12
-9.33163e-12
1.95323e-12
9.45839e-13
-9.63178e-12
2.13848e-12
7.73546e-13
-9.57695e-12
2.27072e-12
6.08367e-13
-9.00938e-12
2.34125e-12
-7.35089e-12
2.52598e-12
5.37527e-13
-9.66401e-13
1.88868e-13
1.01979e-12
-2.81697e-12
5.55717e-13
1.45968e-12
-4.53976e-12
9.12544e-13
1.86656e-12
-6.19941e-12
1.28098e-12
2.24586e-12
-7.84295e-12
1.67916e-12
2.59834e-12
-9.49967e-12
2.12203e-12
2.91888e-12
-1.11802e-11
2.62086e-12
3.19444e-12
-1.28744e-11
3.18182e-12
3.40172e-12
-1.45497e-11
3.80313e-12
3.50599e-12
-1.61486e-11
4.4713e-12
3.46379e-12
-1.75919e-11
5.15701e-12
3.23473e-12
-1.87865e-11
5.81258e-12
2.80976e-12
-1.96453e-11
6.37523e-12
2.2609e-12
-2.01157e-11
6.78362e-12
1.78503e-12
-2.02196e-11
7.00552e-12
-2.02558e-11
6.99479e-12
8.84345e-13
-1.41288e-12
3.0957e-13
1.67783e-12
-4.11949e-12
9.10774e-13
2.40166e-12
-6.64232e-12
1.49522e-12
3.07152e-12
-9.07768e-12
2.09805e-12
3.69701e-12
-1.1497e-11
2.74882e-12
4.28054e-12
-1.39469e-11
3.47193e-12
4.81529e-12
-1.64481e-11
4.28602e-12
5.28174e-12
-1.89928e-11
5.20161e-12
5.64329e-12
-2.15419e-11
6.21695e-12
5.84228e-12
-2.40227e-11
7.31235e-12
5.8002e-12
-2.6332e-11
8.44433e-12
5.43034e-12
-2.83514e-11
9.54234e-12
4.6817e-12
-2.99889e-11
1.05149e-11
3.64389e-12
-3.12504e-11
1.12735e-11
2.6975e-12
-3.22728e-11
1.1767e-11
-3.33505e-11
1.20349e-11
1.21421e-12
-1.81537e-12
4.22761e-13
2.30368e-12
-5.29479e-12
1.24356e-12
3.2976e-12
-8.54312e-12
2.04071e-12
4.21807e-12
-1.16875e-11
2.8617e-12
5.07958e-12
-1.48241e-11
3.74644e-12
5.88773e-12
-1.80191e-11
4.72813e-12
6.63666e-12
-2.13071e-11
5.83236e-12
7.30462e-12
-2.46891e-11
7.07422e-12
7.84763e-12
-2.81284e-11
8.45322e-12
8.19184e-12
-3.15461e-11
9.94643e-12
8.22749e-12
-3.48185e-11
1.15017e-11
7.81282e-12
-3.77819e-11
1.30349e-11
6.81467e-12
-4.02584e-11
1.44397e-11
5.24499e-12
-4.2119e-11
1.56179e-11
3.56447e-12
-4.33733e-11
1.65014e-11
-4.43791e-11
1.7094e-11
1.52085e-12
-2.15963e-12
5.25925e-13
2.88525e-12
-6.30129e-12
1.54657e-12
4.12992e-12
-1.01752e-11
2.53645e-12
5.28327e-12
-1.39374e-11
3.55374e-12
6.36534e-12
-1.77083e-11
4.64741e-12
7.38661e-12
-2.15746e-11
5.8583e-12
8.34559e-12
-2.55884e-11
7.21813e-12
9.22435e-12
-2.97652e-11
8.74627e-12
9.98168e-12
-3.40795e-11
1.04439e-11
1.05436e-11
-3.84577e-11
1.22865e-11
1.0792e-11
-4.27658e-11
1.42156e-11
1.05558e-11
-4.67934e-11
1.61358e-11
9.62948e-12
-5.02307e-11
1.79266e-11
7.88679e-12
-5.26601e-11
1.94767e-11
5.67956e-12
-5.36969e-11
2.06952e-11
-5.35266e-11
2.15607e-11
1.79862e-12
-2.43224e-12
6.17005e-13
3.41169e-12
-7.0998e-12
1.81369e-12
4.88254e-12
-1.14748e-11
2.97217e-12
6.24555e-12
-1.5739e-11
4.15942e-12
7.52649e-12
-2.0035e-11
5.43171e-12
8.74201e-12
-2.44695e-11
6.83598e-12
9.89794e-12
-2.91134e-11
8.40877e-12
1.09862e-11
-3.40005e-11
1.01727e-11
1.19798e-11
-3.91239e-11
1.21301e-11
1.28258e-11
-4.44278e-11
1.42543e-11
1.34357e-11
-4.97936e-11
1.64795e-11
1.36757e-11
-5.50129e-11
1.86943e-11
1.33694e-11
-5.97383e-11
2.07535e-11
1.23526e-11
-6.34085e-11
2.25157e-11
1.07464e-11
-6.52929e-11
2.38706e-11
-6.41338e-11
2.48325e-11
2.04282e-12
-2.62124e-12
6.94495e-13
3.87388e-12
-7.65522e-12
2.04048e-12
5.54185e-12
-1.23845e-11
3.34054e-12
7.08609e-12
-1.70117e-11
4.66824e-12
8.53762e-12
-2.16977e-11
6.08518e-12
9.91939e-12
-2.65666e-11
7.64249e-12
1.12458e-11
-3.17066e-11
9.37972e-12
1.25216e-11
-3.71698e-11
1.13211e-11
1.37409e-11
-4.29693e-11
1.34689e-11
1.48855e-11
-4.90741e-11
1.57929e-11
1.59255e-11
-5.53989e-11
1.82173e-11
1.68251e-11
-6.17912e-11
2.06096e-11
1.75638e-11
-6.80149e-11
2.27858e-11
1.81754e-11
-7.37308e-11
2.45473e-11
1.87246e-11
-7.84438e-11
2.57456e-11
-8.15997e-11
2.64712e-11
2.24999e-12
7.57531e-13
-2.71674e-12
4.26522e-12
2.22446e-12
-7.93868e-12
6.09794e-12
3.63762e-12
-1.28572e-11
7.79095e-12
5.07481e-12
-1.76886e-11
9.37918e-12
6.60079e-12
-2.26068e-11
1.08905e-11
8.26878e-12
-2.77486e-11
1.23466e-11
1.01193e-11
-3.32155e-11
1.37635e-11
1.21766e-11
-3.90733e-11
1.51537e-11
1.44409e-11
-4.53502e-11
1.65297e-11
1.68779e-11
-5.20315e-11
1.79122e-11
1.94025e-11