/*--------------------------------*- C++ -*----------------------------------*\
| =========                 |                                                 |
| \\      /  F ield         | OpenFOAM: The Open Source CFD Toolbox           |
|  \\    /   O peration     | Version:  v1912                                 |
|   \\  /    A nd           | Website:  www.openfoam.com                      |
|    \\/     M anipulation  |                                                 |
\*---------------------------------------------------------------------------*/
FoamFile
{
    version     2.0;
    format      ascii;
    class       volScalarField;
    location    "0.57/fluid";
    object      p;
}
// * * * * * * * * * * * * * * * * * * * * * * * * * * * * * * * * * * * * * //

dimensions      [0 2 -2 0 0 0 0];


internalField   nonuniform List<scalar> 
14592
(
0.0559773
0.0503792
0.0485018
0.0469257
0.0460137
0.0452894
0.0447044
0.0441898
0.0437003
0.0432986
0.0428496
0.0426259
0.0421175
0.0423665
0.0415543
0.0435891
0.0517908
0.0500503
0.048382
0.0470393
0.0461243
0.0453885
0.0447853
0.0442631
0.0437741
0.0433834
0.0429518
0.0427683
0.0422991
0.0427028
0.0418775
0.0449074
0.0498201
0.0492068
0.0479777
0.0469828
0.0461352
0.0454231
0.0448089
0.0442779
0.043785
0.0434019
0.0429915
0.0428595
0.0424533
0.0430329
0.0422698
0.0460097
0.0486334
0.0484798
0.0476167
0.0468588
0.0460961
0.0454154
0.0447958
0.044253
0.0437484
0.0433623
0.0429599
0.042865
0.0425124
0.0432407
0.0425953
0.0467147
0.047928
0.0478981
0.0472609
0.0466576
0.0459729
0.0453265
0.0447067
0.0441484
0.0436185
0.0432031
0.0427671
0.0426473
0.0422633
0.0430279
0.0423902
0.0467845
0.0474603
0.0474689
0.0469732
0.0464625
0.0458337
0.0452108
0.0445888
0.0440138
0.0434581
0.0430143
0.042552
0.0424268
0.0420587
0.0429544
0.0424793
0.0473735
0.0471557
0.0471721
0.0467491
0.0462853
0.0456847
0.0450667
0.0444281
0.0438174
0.0432068
0.0426832
0.042109
0.0418229
0.0412144
0.0418093
0.0407868
0.0457247
0.0469725
0.0469911
0.0465983
0.0461508
0.045556
0.0449291
0.0442682
0.0436219
0.042965
0.0423819
0.0417455
0.0413985
0.040768
0.0415244
0.0407642
0.0480528
0.0558807
0.0502845
0.048444
0.0469088
0.0460501
0.045385
0.0448674
0.0444292
0.0440284
0.0437264
0.043396
0.0432737
0.0429045
0.04306
0.0423634
0.0430732
0.0516942
0.0499538
0.0483233
0.047022
0.0461612
0.0454855
0.0449503
0.0445054
0.0441059
0.0438156
0.0435024
0.0434158
0.0430745
0.0433247
0.0425789
0.0437165
0.0497198
0.0491051
0.0479128
0.0469591
0.0461662
0.0455147
0.0449691
0.0445157
0.0441121
0.0438292
0.043535
0.0434967
0.0432069
0.0435991
0.0428704
0.0443934
0.0485309
0.0483753
0.047548
0.0468304
0.0461215
0.0455009
0.0449491
0.044483
0.0440666
0.04378
0.0434915
0.0434893
0.0432446
0.0437687
0.0431222
0.04488
0.0478225
0.0477905
0.047188
0.0466237
0.0459913
0.0454034
0.0448491
0.0443649
0.0439191
0.0435988
0.0432685
0.0432346
0.042939
0.0434857
0.042792
0.0447551
0.047352
0.0473584
0.0468965
0.0464237
0.0458454
0.045279
0.0447199
0.044216
0.0437403
0.043388
0.0430256
0.0429866
0.0426971
0.043389
0.0428232
0.045266
0.0470438
0.0470581
0.0466681
0.0462409
0.0456887
0.0451243
0.0445447
0.0439997
0.043461
0.0430185
0.0425261
0.0423085
0.0417318
0.0421065
0.0408474
0.0433448
0.0468568
0.0468734
0.0465127
0.0461008
0.0455524
0.0449766
0.044371
0.0437858
0.0431946
0.0426866
0.0421236
0.0418475
0.0412419
0.0418425
0.0408113
0.0457604
0.0558212
0.0502267
0.0484145
0.0469128
0.0461001
0.0454887
0.0450363
0.0446768
0.0443764
0.0442
0.044048
0.0441427
0.0441453
0.0446576
0.044798
0.0456414
0.0516348
0.0498947
0.0482932
0.0470261
0.0462121
0.0455909
0.0451218
0.0447568
0.0444593
0.0442968
0.0441651
0.0442982
0.0443352
0.0449357
0.0450695
0.0462378
0.0496569
0.0490412
0.047877
0.0469572
0.0462114
0.0456151
0.0451359
0.0447628
0.0444612
0.0443067
0.0441939
0.0443777
0.0444698
0.0452199
0.0454144
0.0469259
0.0484654
0.0483085
0.0475082
0.0468236
0.0461612
0.0455953
0.0451092
0.0447229
0.0444074
0.0442491
0.0441412
0.0443641
0.0445033
0.0453956
0.0456885
0.0474278
0.0477537
0.0477202
0.0471437
0.0466112
0.0460239
0.0454891
0.0449984
0.0445914
0.0442426
0.0440464
0.0438893
0.0440757
0.0441495
0.0450628
0.0452795
0.0472167
0.0472801
0.047285
0.0468483
0.0464061
0.0458712
0.0453559
0.0448578
0.0444277
0.0440446
0.0438117
0.0436141
0.0437914
0.0438541
0.0449166
0.0452156
0.047635
0.0469681
0.046981
0.0466154
0.0462175
0.0457066
0.0451906
0.0446679
0.0441911
0.0437361
0.0434011
0.0430516
0.0430246
0.042737
0.0434322
0.0428455
0.0452781
0.0467773
0.0467924
0.0464556
0.0460718
0.0455627
0.0450325
0.0444799
0.0439576
0.0434419
0.0430312
0.0425936
0.0424914
0.0421301
0.0430394
0.0425403
0.0474504
0.0557858
0.0501923
0.0484012
0.0469254
0.0461481
0.0455781
0.0451745
0.0448703
0.0446345
0.0445254
0.0444543
0.0446043
0.0446937
0.0451597
0.0453671
0.0459635
0.0515994
0.0498593
0.0482795
0.0470388
0.0462608
0.0456815
0.0452618
0.0449528
0.0447206
0.0446259
0.0445751
0.0447611
0.0448804
0.0454129
0.0455988
0.0464196
0.0496182
0.0490015
0.0478581
0.0469645
0.046255
0.0457011
0.0452716
0.0449545
0.0447176
0.04463
0.0445951
0.0448267
0.0449903
0.0456489
0.0458725
0.0469623
0.0484242
0.048266
0.0474857
0.0468265
0.0461998
0.0456758
0.0452387
0.0449078
0.0446559
0.0445634
0.0445305
0.0447985
0.0450006
0.0457894
0.0460877
0.0473755
0.0477093
0.0476744
0.0471169
0.0466088
0.0460561
0.0455618
0.0451186
0.0447649
0.0444767
0.044343
0.0442548
0.0444812
0.0446035
0.0454035
0.0455916
0.0470621
0.0472326
0.0472362
0.0468178
0.0463989
0.0458973
0.045421
0.0449683
0.0445893
0.0442634
0.0440903
0.0439564
0.0441721
0.0442723
0.0452229
0.0454629
0.0474111
0.0469172
0.0469287
0.0465807
0.0462051
0.0457258
0.0452467
0.0447665
0.0443371
0.0439338
0.0436524
0.0433556
0.0433587
0.0430832
0.0436595
0.0429458
0.0448988
0.0467227
0.0467367
0.0464169
0.0460543
0.0455754
0.0450801
0.0445672
0.0440888
0.0436202
0.0432588
0.0428669
0.042794
0.0424337
0.0432412
0.0425801
0.0470149
0.0557675
0.0501749
0.0484001
0.0469448
0.0461964
0.0456611
0.0453002
0.0450463
0.0448726
0.0448337
0.0448549
0.0450935
0.0453208
0.0458593
0.04625
0.0467857
0.0515812
0.0498412
0.0482782
0.0470585
0.04631
0.045766
0.0453896
0.0451317
0.0449627
0.0449397
0.0449831
0.0452589
0.045518
0.0461173
0.0464901
0.0472061
0.0495972
0.0489799
0.0478526
0.0469798
0.0463
0.0457818
0.0453959
0.0451301
0.0449561
0.0449398
0.0449972
0.0453161
0.0456138
0.0463282
0.0467301
0.0476842
0.0484009
0.0482419
0.0474769
0.046838
0.0462405
0.0457518
0.0453577
0.0450776
0.0448877
0.0448659
0.0449234
0.0452776
0.045609
0.0464491
0.0469143
0.0480552
0.0476832
0.0476473
0.0471044
0.0466157
0.0460911
0.0456311
0.0452295
0.0449249
0.0446961
0.0446303
0.0446274
0.0449359
0.0451769
0.0460219
0.046354
0.047671
0.0472037
0.0472063
0.0468019
0.0464016
0.0459269
0.0454834
0.0450705
0.0447385
0.0444689
0.0443606
0.0443064
0.0446009
0.0448083
0.0458006
0.046157
0.0479478
0.0468852
0.0468958
0.0465612
0.0462031
0.0457494
0.0453013
0.0448582
0.0444724
0.0441202
0.0438976
0.04367
0.0437419
0.043549
0.0441523
0.043493
0.0452694
0.0466876
0.0467007
0.0463938
0.0460479
0.0455931
0.045127
0.0446485
0.0442103
0.043788
0.0434796
0.0431475
0.043136
0.0428383
0.0436664
0.0430087
0.0472555
0.0557586
0.0501666
0.0484031
0.0469623
0.0462341
0.0457229
0.0453905
0.0451684
0.0450312
0.0450279
0.0450903
0.0453527
0.0456156
0.046133
0.0465397
0.0470186
0.0515723
0.0498324
0.0482811
0.0470762
0.0463484
0.0458287
0.0454812
0.0452554
0.0451234
0.0451365
0.0452212
0.04552
0.0458134
0.0463851
0.0467694
0.0474016
0.0495862
0.0489683
0.0478523
0.0469941
0.0463351
0.0458415
0.0454846
0.045251
0.0451135
0.0451324
0.045229
0.0455675
0.0458925
0.0465681
0.0469688
0.0478191
0.0483881
0.0482284
0.0474741
0.0468493
0.0462722
0.0458078
0.0454424
0.045194
0.0450399
0.0450524
0.0451472
0.0455189
0.0458722
0.0466671
0.0471186
0.0481481
0.047668
0.0476313
0.0470986
0.0466234
0.0461185
0.045682
0.045308
0.0450341
0.0448392
0.044806
0.0448368
0.04516
0.0454151
0.0462095
0.046511
0.0477128
0.0471864
0.0471882
0.0467935
0.0464061
0.0459501
0.0455292
0.0451427
0.04484
0.0446024
0.044525
0.0445013
0.0448089
0.0450235
0.0459632
0.0462721
0.0479463
0.0468654
0.0468753
0.0465499
0.046204
0.0457681
0.0453413
0.0449229
0.0445644
0.0442413
0.0440467
0.0438445
0.0439262
0.0437298
0.0442762
0.0435408
0.0451902
0.0466654
0.0466778
0.0463797
0.0460454
0.0456075
0.0451614
0.044706
0.0442931
0.0438973
0.0436145
0.0433038
0.0433008
0.0429929
0.0437661
0.0430136
0.0471282
0.0557555
0.0501639
0.048408
0.046977
0.0462627
0.0457682
0.0454563
0.0452578
0.0451488
0.0451752
0.0452738
0.0455653
0.0458691
0.0463966
0.0468373
0.0472907
0.0515692
0.0498294
0.048286
0.0470911
0.0463775
0.0458749
0.0455482
0.0453465
0.0452432
0.0452867
0.0454085
0.045737
0.046072
0.0466519
0.04707
0.0476623
0.0495816
0.0489634
0.047855
0.0470067
0.046362
0.0458858
0.0455498
0.0453403
0.0452313
0.0452802
0.0454127
0.0457792
0.0461422
0.0468201
0.047248
0.0480479
0.0483823
0.0482221
0.047475
0.0468599
0.0462968
0.0458495
0.0455048
0.0452803
0.0451542
0.0451963
0.0453258
0.0457245
0.0461125
0.0469065
0.0473781
0.0483536
0.0476606
0.0476234
0.0470975
0.0466315
0.0461401
0.0457201
0.0453662
0.0451153
0.0449472
0.0449423
0.0450054
0.0453536
0.0456385
0.0464285
0.0467396
0.0478853
0.0471774
0.0471787
0.0467905
0.0464118
0.0459688
0.0455637
0.0451963
0.0449156
0.0447034
0.0446528
0.0446589
0.0449896
0.0452287
0.0461615
0.0464681
0.0480852
0.0468547
0.0468641
0.0465448
0.0462072
0.0457835
0.0453716
0.0449711
0.0446331
0.0443332
0.044163
0.0439866
0.0440882
0.0439081
0.0444428
0.0436846
0.0452682
0.0466529
0.0466649
0.0463727
0.0460462
0.0456198
0.0451877
0.044749
0.0443549
0.0439801
0.0437194
0.0434307
0.0434448
0.0431462
0.043905
0.0431133
0.0471581
0.0557542
0.0501634
0.0484105
0.0469846
0.0462765
0.0457897
0.0454868
0.045298
0.0451999
0.0452361
0.0453454
0.0456414
0.0459522
0.046472
0.0469148
0.0473582
0.0515684
0.0498284
0.0482886
0.0470986
0.0463915
0.0458967
0.045579
0.045387
0.0452945
0.0453475
0.0454796
0.0458118
0.0461527
0.0467227
0.0471422
0.0477194
0.0495798
0.0489615
0.0478567
0.047013
0.0463749
0.0459064
0.0455794
0.0453795
0.045281
0.0453389
0.0454805
0.045849
0.0462152
0.0468795
0.0473053
0.0480862
0.0483799
0.0482194
0.0474758
0.0468651
0.0463085
0.0458688
0.045533
0.045318
0.045202
0.0452528
0.0453906
0.0457905
0.0461797
0.0469581
0.0474238
0.0483787
0.0476574
0.0476199
0.0470973
0.0466355
0.0461503
0.0457378
0.0453924
0.0451506
0.0449922
0.0449954
0.0450661
0.0454148
0.0456989
0.0464718
0.0467725
0.0478965
0.0471734
0.0471745
0.0467893
0.0464146
0.0459776
0.0455796
0.0452204
0.0449485
0.0447454
0.0447026
0.0447153
0.0450461
0.0452825
0.046197
0.0464875
0.0480814
0.0468498
0.046859
0.0465426
0.0462088
0.0457908
0.0453856
0.0449928
0.044663
0.0443716
0.0442085
0.0440379
0.0441392
0.0439546
0.0444703
0.0436894
0.0452464
0.0466472
0.046659
0.0463695
0.0460467
0.0456257
0.0451999
0.0447684
0.044382
0.0440148
0.0437607
0.0434768
0.0434902
0.043185
0.0439234
0.0431017
0.047114
0.0653605
0.0546324
0.0510124
0.0480484
0.0463347
0.0449769
0.043885
0.0428718
0.0418722
0.0408424
0.0397072
0.0384881
0.037045
0.0355027
0.0335976
0.0316747
0.0610829
0.0538692
0.050623
0.0479456
0.0462924
0.0449683
0.0438883
0.0428835
0.0418926
0.040872
0.0397466
0.0385406
0.0371121
0.0355876
0.0336973
0.0317853
0.0590888
0.05284
0.050002
0.0476612
0.0461352
0.0448912
0.0438436
0.0428576
0.0418789
0.0408682
0.039755
0.0385637
0.0371569
0.0356572
0.033797
0.0319081
0.057839
0.0520297
0.0495284
0.0474182
0.0460052
0.0448257
0.0438034
0.0428286
0.0418541
0.0408453
0.0397361
0.0385514
0.0371578
0.0356743
0.033837
0.0319685
0.0570944
0.0514166
0.0491208
0.0471628
0.0458449
0.044724
0.0437292
0.0427665
0.0417948
0.0407849
0.0396754
0.0384912
0.0371055
0.0356322
0.0338182
0.0319733
0.0566049
0.0509771
0.0488147
0.0469518
0.0457016
0.044622
0.0436475
0.0426919
0.0417197
0.0407058
0.0395937
0.0384077
0.0370293
0.0355661
0.0337803
0.0319641
0.0562968
0.0506842
0.0485927
0.0467819
0.0455721
0.0445165
0.043553
0.0425983
0.0416202
0.0405969
0.0394763
0.0382812
0.0369039
0.0354434
0.0336869
0.0319017
0.0561239
0.0505163
0.0484558
0.0466666
0.0454731
0.044425
0.0434628
0.0425028
0.0415158
0.0404821
0.0393541
0.0381519
0.0367806
0.0353285
0.0336103
0.0318623
0.0610824
0.0538662
0.0506164
0.0479341
0.0462755
0.0449442
0.0438599
0.0428495
0.0418448
0.0408079
0.0396613
0.0384334
0.0369726
0.0354245
0.0334891
0.0315787
0.0568711
0.0534511
0.0503882
0.0479324
0.0462941
0.0449714
0.0438825
0.0428699
0.0418645
0.0408284
0.0396843
0.0384616
0.0370087
0.035473
0.0335538
0.0316574
0.0548746
0.0525114
0.0498397
0.0477139
0.0461788
0.0449183
0.0438503
0.0428492
0.0418495
0.0408185
0.0396827
0.0384711
0.0370369
0.0355217
0.0336274
0.0317509
0.0536385
0.0517189
0.0493952
0.0475014
0.0460726
0.0448694
0.043821
0.0428266
0.0418274
0.0407963
0.0396634
0.0384576
0.0370361
0.0355365
0.0336649
0.0318087
0.0528997
0.0511015
0.0489937
0.0472546
0.04592
0.0447736
0.0437511
0.0427673
0.0417702
0.0407379
0.0396051
0.0384002
0.0369873
0.0354982
0.0336502
0.0318169
0.0524132
0.0506564
0.0486883
0.0470463
0.0457799
0.0446749
0.0436722
0.0426955
0.0416986
0.0406631
0.0395292
0.0383242
0.0369209
0.0354439
0.0336265
0.031822
0.0521065
0.05036
0.0484661
0.0468773
0.0456519
0.0445714
0.0435794
0.0426037
0.0416023
0.0405584
0.0394174
0.0382046
0.0368043
0.0353311
0.033546
0.0317717
0.0519342
0.0501908
0.0483295
0.0467632
0.0455546
0.0444822
0.0434912
0.0425109
0.0415023
0.0404496
0.0393032
0.0380858
0.0366951
0.0352331
0.0334912
0.0317544
0.0591055
0.0528553
0.050022
0.0476856
0.0461666
0.0449305
0.0438991
0.0429277
0.0419489
0.040938
0.0398064
0.0385974
0.0371124
0.035552
0.0334671
0.0314751
0.0548935
0.0525319
0.0498705
0.0477556
0.0462345
0.0449904
0.0439454
0.0429671
0.0419834
0.0409719
0.0398428
0.0386395
0.0371633
0.0356162
0.033546
0.0315697
0.0528986
0.0516597
0.0494091
0.0476297
0.046187
0.0449814
0.0439415
0.0429649
0.0419807
0.0409711
0.0398492
0.0386568
0.0371996
0.0356717
0.0336205
0.0316546
0.0516784
0.0508977
0.049009
0.0474659
0.0461192
0.0449595
0.0439295
0.0429528
0.0419648
0.0409526
0.0398327
0.0386459
0.0372024
0.035691
0.0336621
0.031716
0.0509498
0.0502927
0.0486294
0.0472441
0.0459872
0.0448781
0.0438676
0.0428966
0.0419071
0.0408908
0.0397688
0.0385811
0.0371452
0.0356433
0.0336393
0.0317177
0.0504696
0.0498517
0.0483327
0.047046
0.0458559
0.0447852
0.0437906
0.0428236
0.0418321
0.0408107
0.0396865
0.038498
0.0370736
0.0355864
0.033622
0.0317366
0.0501655
0.0495562
0.0481135
0.0468806
0.0457305
0.0446824
0.0436953
0.0427262
0.0417277
0.0406943
0.0395595
0.0383587
0.0369352
0.0354488
0.033527
0.0316791
0.0499936
0.0493865
0.0479771
0.046767
0.0456331
0.0445917
0.0436029
0.0426269
0.0416197
0.040575
0.0394332
0.0382259
0.0368147
0.0353425
0.0334821
0.0316849
0.0578737
0.0520638
0.0495801
0.0474899
0.0461044
0.0449568
0.0439769
0.0430458
0.0421002
0.0411258
0.0400176
0.0388406
0.037325
0.0357562
0.0334416
0.0313399
0.0536763
0.0517584
0.0494594
0.0475934
0.0462002
0.0450389
0.044039
0.0430961
0.0421438
0.0411683
0.0400631
0.0388935
0.0373891
0.0358393
0.033539
0.0314543
0.0516967
0.0509158
0.0490419
0.0475163
0.0461921
0.0450588
0.0440543
0.043106
0.0421495
0.0411741
0.0400761
0.0389182
0.0374335
0.0359014
0.0336082
0.0315147
0.0504922
0.0501735
0.048666
0.0473788
0.0461458
0.0450522
0.0440515
0.0430988
0.0421357
0.0411563
0.0400601
0.0389085
0.0374389
0.0359249
0.0336511
0.0315745
0.0497746
0.0495803
0.0483005
0.047172
0.0460258
0.0449784
0.0439928
0.043042
0.0420742
0.0410877
0.0399869
0.0388317
0.0373679
0.0358612
0.0336131
0.0315623
0.049301
0.0491454
0.0480104
0.0469803
0.045899
0.0448873
0.043915
0.0429656
0.0419932
0.0409994
0.039895
0.0387385
0.0372888
0.0358011
0.0336063
0.0316044
0.0489998
0.0488523
0.0477935
0.0468168
0.0457741
0.0447824
0.0438152
0.0428609
0.0418772
0.0408665
0.0397463
0.0385702
0.0371174
0.0356242
0.0334875
0.0315342
0.0488281
0.0486825
0.0476569
0.0467023
0.0456748
0.0446879
0.0437174
0.042754
0.0417586
0.0407331
0.0396036
0.0384187
0.0369827
0.0355092
0.0334646
0.0315869
0.0571477
0.0514706
0.0492121
0.0472992
0.0460428
0.0449942
0.0440876
0.0432237
0.0423411
0.0414396
0.0403952
0.0393038
0.037798
0.0362798
0.0336697
0.0314282
0.0529564
0.0511604
0.0490977
0.0474123
0.0461485
0.0450857
0.0441577
0.0432814
0.0423929
0.0414921
0.040453
0.0393737
0.0378844
0.0363958
0.0338006
0.0315705
0.050986
0.0503284
0.0487003
0.0473593
0.0461614
0.0451222
0.0441847
0.0432994
0.0424053
0.0415045
0.0404743
0.0394094
0.0379419
0.0364708
0.033861
0.0315887
0.0497923
0.0495976
0.0483382
0.0472367
0.0461274
0.0451243
0.0441868
0.043294
0.0423915
0.041486
0.040458
0.0394016
0.037952
0.0365038
0.0339096
0.0316505
0.0490831
0.0490132
0.0479828
0.0470402
0.0460154
0.045055
0.0441285
0.0432335
0.0423224
0.0414059
0.0403696
0.0393058
0.0378591
0.0364163
0.0338491
0.0316219
0.0486148
0.0485836
0.0476978
0.046853
0.0458912
0.0449636
0.0440472
0.0431501
0.0422308
0.0413034
0.0402609
0.0391943
0.0377647
0.0363487
0.0338568
0.0317051
0.0483157
0.0482924
0.0474826
0.0466901
0.045765
0.0448547
0.0439397
0.0430326
0.0420958
0.0411433
0.0400752
0.0389754
0.0375319
0.0360963
0.0336825
0.0315998
0.0481434
0.048122
0.0473449
0.0465737
0.0456621
0.0447541
0.0438329
0.0429125
0.0419589
0.0409853
0.0399023
0.0387872
0.0373629
0.035953
0.0336764
0.0317232
0.0566643
0.0510384
0.048937
0.0471494
0.0460022
0.0450431
0.0442121
0.0434216
0.0426109
0.0417928
0.0408212
0.0398256
0.0383192
0.0368414
0.033782
0.0313172
0.0524758
0.050721
0.0488222
0.0472645
0.0461113
0.0451382
0.0442857
0.0434836
0.042668
0.0418527
0.0408891
0.0399115
0.0384275
0.0369929
0.0339291
0.0314159
0.0505098
0.0498902
0.04843
0.0472187
0.0461313
0.0451805
0.0443164
0.0435043
0.0426829
0.0418687
0.040916
0.0399566
0.038495
0.037073
0.0339396
0.0312881
0.0493222
0.0491646
0.0480732
0.0471012
0.0461011
0.0451846
0.0443182
0.0434969
0.042666
0.0418467
0.040897
0.0399488
0.0385072
0.0371123
0.033977
0.0313139
0.0486178
0.0485848
0.0477221
0.0469082
0.0459907
0.0451146
0.0442562
0.0434291
0.0425858
0.0417514
0.0407887
0.0398284
0.0383839
0.036991
0.0338801
0.0312553
0.0481525
0.0481579
0.0474393
0.0467221
0.0458656
0.0450203
0.0441691
0.0433363
0.0424812
0.0416323
0.0406606
0.0396966
0.0382742
0.036922
0.0339214
0.0314203
0.047854
0.0478673
0.047224
0.0465578
0.045736
0.0449053
0.0440518
0.0432036
0.0423239
0.0414401
0.0404305
0.039416
0.0379635
0.0365721
0.0336813
0.0312907
0.0476802
0.0476955
0.0470842
0.0464383
0.0456281
0.0447976
0.0439348
0.0430686
0.0421669
0.0412556
0.0402256
0.039191
0.0377662
0.0364228
0.033754
0.031622
0.0563438
0.050735
0.048736
0.0470392
0.0459852
0.0451127
0.0443668
0.043668
0.0429593
0.0422721
0.0414497
0.0406723
0.0393563
0.0382114
0.0349819
0.0325882
0.0521566
0.0504123
0.0486193
0.0471539
0.0460952
0.0452094
0.0444431
0.0437341
0.0430226
0.0423411
0.0415308
0.0407797
0.039494
0.0384142
0.0351562
0.0326252
0.050191
0.0495787
0.0482257
0.0471077
0.0461154
0.0452519
0.0444738
0.0437549
0.0430381
0.0423596
0.0415635
0.0408383
0.0395811
0.0385268
0.0351569
0.0324016
0.049006
0.0488546
0.0478698
0.0469905
0.0460846
0.0452542
0.0444724
0.0437431
0.043016
0.0423331
0.0415415
0.0408339
0.0396039
0.0385952
0.0352152
0.0324271
0.0483032
0.0482762
0.0475195
0.0467972
0.0459724
0.0451802
0.0444033
0.0436648
0.0429211
0.0422183
0.0414078
0.0406831
0.0394435
0.038439
0.0350809
0.0323445
0.0478387
0.0478501
0.0472366
0.0466098
0.0458442
0.0450803
0.0443073
0.0435594
0.0427993
0.0420773
0.0412529
0.0405228
0.0393075
0.0383641
0.0351534
0.0326152
0.0475393
0.0475586
0.0470196
0.0464424
0.0457093
0.0449569
0.0441767
0.0434067
0.0426126
0.0418417
0.040959
0.040148
0.0388618
0.0378276
0.0347144
0.0323341
0.0473631
0.0473844
0.0468768
0.0463186
0.0455951
0.0448401
0.0440461
0.0432524
0.0424283
0.0416194
0.040704
0.0398586
0.0385924
0.0376201
0.0348023
0.0329215
0.0561236
0.0505218
0.0485939
0.0469648
0.0459871
0.0451906
0.0445235
0.0439105
0.0432965
0.0427236
0.0420244
0.0414031
0.0401918
0.0391744
0.0355063
0.0325629
0.0519368
0.0501954
0.0484753
0.0470789
0.0460973
0.0452883
0.0446018
0.0439798
0.0433644
0.0427994
0.0421142
0.041524
0.0403399
0.0393793
0.0355194
0.0319006
0.0499692
0.0493571
0.0480769
0.0470284
0.0461137
0.0453274
0.0446296
0.043998
0.0433778
0.0428175
0.0421482
0.0415888
0.0404285
0.0394813
0.0353728
0.031097
0.048784
0.0486322
0.0477192
0.0469085
0.0460794
0.0453254
0.0446229
0.0439801
0.0433488
0.0427842
0.0421197
0.0415823
0.0404498
0.0395538
0.0353921
0.0309361
0.0480807
0.0480529
0.0473669
0.046712
0.0459626
0.0452448
0.0445446
0.0438895
0.0432374
0.0426482
0.0419577
0.0413972
0.0402433
0.0393492
0.0351983
0.0307896
0.0476152
0.0476258
0.0470822
0.0465212
0.0458296
0.0451378
0.0444385
0.0437705
0.0430979
0.0424855
0.041777
0.0412123
0.0400872
0.0392855
0.0353415
0.0312184
0.0473136
0.0473321
0.0468621
0.0463493
0.0456882
0.0450048
0.0442939
0.0435976
0.0428818
0.0422075
0.0414206
0.0407468
0.0395068
0.0385648
0.0347062
0.0307554
0.0471342
0.0471547
0.0467156
0.0462205
0.0455672
0.0448784
0.0441497
0.0434245
0.0426722
0.0419521
0.0411248
0.0404146
0.0392069
0.0383996
0.0349967
0.0319084
0.0468992
0.046919
0.0465194
0.0460594
0.0454452
0.0447899
0.0440894
0.0433862
0.0426502
0.0419418
0.0411203
0.0404111
0.0391934
0.0383688
0.0349149
0.0317543
0.0469393
0.0469593
0.046519
0.0460224
0.0453674
0.0446725
0.0439306
0.0431781
0.0423854
0.0415993
0.0406969
0.0398565
0.0385801
0.0375891
0.0347178
0.0327819
0.0471038
0.0471165
0.0465904
0.0460269
0.0453106
0.0445608
0.0437688
0.04296
0.042102
0.0412224
0.0402111
0.039184
0.0377488
0.0363848
0.033664
0.0314817
0.0474477
0.0474235
0.0467436
0.0460684
0.0452709
0.0444637
0.0436283
0.0427778
0.0418781
0.0409439
0.0398849
0.0387809
0.0373491
0.0359206
0.0335991
0.0316011
0.0480387
0.0478903
0.0469707
0.0461239
0.0452237
0.0443536
0.0434825
0.0425983
0.0416647
0.0406846
0.0395835
0.0384124
0.0369719
0.0354818
0.0333989
0.0314809
0.0491399
0.0485314
0.0472357
0.0461429
0.0451473
0.044232
0.0433531
0.0424635
0.0415224
0.0405265
0.0394156
0.0382239
0.0368102
0.035323
0.0334291
0.0315944
0.0510373
0.0492958
0.0475553
0.0461127
0.0450481
0.0441041
0.043228
0.0423414
0.0414031
0.0404018
0.0392881
0.0380874
0.0366958
0.0352201
0.0334483
0.0316763
0.0552273
0.0496312
0.0476949
0.0460302
0.0449798
0.0440592
0.0432079
0.0423408
0.041426
0.0404424
0.039346
0.0381593
0.0367863
0.0353196
0.0335712
0.0317872
0.0467789
0.0467968
0.0464287
0.0460031
0.0454333
0.0448258
0.0441759
0.0435269
0.0428463
0.0421984
0.0414268
0.0407605
0.0395068
0.0385408
0.0345939
0.0305294
0.0468146
0.0468328
0.0464234
0.0459603
0.0453477
0.0446979
0.0440029
0.0432994
0.0425554
0.0418217
0.0409611
0.040161
0.0388603
0.0377996
0.0345973
0.0321283
0.0469743
0.0469854
0.0464897
0.045959
0.0452834
0.0445755
0.0438265
0.0430607
0.0422435
0.0414055
0.040423
0.0394208
0.0379536
0.0365332
0.0335611
0.0310951
0.0473135
0.0472878
0.0466381
0.0459949
0.0452373
0.0444698
0.0436742
0.0428625
0.0419985
0.0410993
0.040064
0.0389802
0.0375264
0.0360653
0.0335843
0.0314364
0.0479006
0.0477508
0.046861
0.0460455
0.0451838
0.0443518
0.0435176
0.0426682
0.0417656
0.0408143
0.0397316
0.0385745
0.0371157
0.0356008
0.0334096
0.0314001
0.0489988
0.0483893
0.0471234
0.0460616
0.0451037
0.0442255
0.0433818
0.0425246
0.041612
0.0406418
0.0395473
0.0383676
0.0369415
0.0354363
0.0334689
0.0315706
0.050895
0.0491536
0.0474429
0.0460307
0.0450025
0.0440934
0.0432511
0.0423957
0.041484
0.0405061
0.0394075
0.0382173
0.036817
0.0353276
0.0335035
0.0316832
0.0550852
0.049491
0.0475845
0.0459503
0.0449366
0.0440506
0.0432334
0.0423987
0.0415117
0.0405532
0.0394739
0.0383002
0.0369222
0.0354446
0.033649
0.0318166
0.0466951
0.0467116
0.0463664
0.0459679
0.0454352
0.0448701
0.0442682
0.0436744
0.043057
0.0424871
0.0418047
0.0412555
0.0401105
0.0392719
0.0351729
0.0308458
0.0467265
0.0467435
0.0463565
0.0459193
0.0453418
0.0447316
0.0440805
0.0434259
0.0427358
0.0420666
0.0412747
0.0405626
0.0393264
0.0383439
0.0349854
0.0322952
0.046882
0.0468919
0.0464183
0.0459126
0.0452701
0.0445986
0.0438891
0.0431657
0.0423926
0.0416045
0.0406695
0.0397234
0.0382798
0.0368863
0.0337585
0.0311388
0.0472172
0.0471905
0.0465622
0.0459435
0.045218
0.0444844
0.0437248
0.0429505
0.0421238
0.0412648
0.0402648
0.0392199
0.0377761
0.0363254
0.0337341
0.0314862
0.0478009
0.0476502
0.0467816
0.0459897
0.0451587
0.0443589
0.0435575
0.0427408
0.0418698
0.0409505
0.0398936
0.0387622
0.037305
0.0357892
0.0335181
0.0314382
0.0488967
0.0482865
0.0470417
0.0460032
0.045075
0.0442278
0.0434151
0.0425879
0.0417034
0.0407606
0.0396872
0.0385265
0.0370999
0.03559
0.0335652
0.0316129
0.0507919
0.0490505
0.047361
0.0459716
0.0449721
0.0440919
0.0432789
0.0424519
0.0415659
0.0406123
0.0395317
0.0383565
0.0369551
0.0354598
0.0335934
0.03173
0.0549822
0.0493894
0.0475041
0.0458929
0.0449081
0.0440506
0.0432632
0.0424581
0.0415977
0.0406644
0.0396045
0.0384473
0.0370702
0.035588
0.0337533
0.0318772
0.0466368
0.0466521
0.0463233
0.0459451
0.0454409
0.0449083
0.0443427
0.0437883
0.0432114
0.0426826
0.0420329
0.041502
0.0403264
0.0393863
0.0349903
0.0302436
0.0466646
0.0466804
0.0463094
0.0458915
0.0453411
0.0447615
0.0441437
0.0435248
0.0428704
0.0422371
0.041472
0.0407768
0.0395134
0.0384608
0.0348804
0.0319085
0.0468164
0.0468254
0.0463675
0.0458804
0.0452632
0.0446202
0.0439411
0.0432493
0.0425066
0.0417482
0.0408331
0.039899
0.0384287
0.0369831
0.0336878
0.0308896
0.0471484
0.0471207
0.0465078
0.0459074
0.0452064
0.0444994
0.0437678
0.0430219
0.042222
0.0413886
0.0404054
0.039371
0.0379076
0.0364225
0.0337179
0.0313587
0.0477293
0.0475778
0.0467243
0.04595
0.0451426
0.044368
0.0435924
0.0428013
0.0419538
0.0410564
0.0400135
0.0388908
0.037419
0.0358794
0.0335304
0.0313776
0.0488231
0.0482124
0.0469826
0.0459615
0.045056
0.0442334
0.0434454
0.0426418
0.0417791
0.0408562
0.0397958
0.0386435
0.0372071
0.03568
0.0336002
0.0315946
0.0507176
0.0489762
0.0473018
0.0459294
0.0449519
0.0440944
0.0433049
0.0425009
0.0416354
0.0407003
0.039632
0.038465
0.0370572
0.0355494
0.0336427
0.031738
0.054908
0.0493162
0.0474462
0.0458522
0.0448896
0.0440547
0.0432912
0.0425103
0.0416713
0.0407578
0.039712
0.0385649
0.0371841
0.0356914
0.0338196
0.031902
0.0465983
0.0466128
0.0462963
0.045934
0.0454525
0.0449469
0.0444127
0.043894
0.0433567
0.0428723
0.0422677
0.0417812
0.0406281
0.0396736
0.0351185
0.030076
0.046623
0.0466382
0.046279
0.045876
0.0453471
0.0447926
0.0442033
0.0436163
0.0429961
0.0424004
0.0416708
0.04101
0.0397561
0.0386888
0.0349738
0.0318084
0.0467718
0.0467802
0.0463339
0.045861
0.0452638
0.0446439
0.0439905
0.0433266
0.0426128
0.0418849
0.0409963
0.0400865
0.0386161
0.0371544
0.0337505
0.030822
0.0471011
0.0470729
0.0464711
0.0458847
0.0452026
0.044517
0.043809
0.0430879
0.0423128
0.0415047
0.0405422
0.0395259
0.03806
0.0365617
0.0337797
0.031335
0.0476798
0.0475278
0.0466852
0.0459242
0.045135
0.0443806
0.0436263
0.0428571
0.042031
0.0411547
0.0401282
0.039019
0.0375441
0.0359938
0.0335898
0.0313789
0.048772
0.0481609
0.0469419
0.0459339
0.0450458
0.0442428
0.0434749
0.0426915
0.0418481
0.0409438
0.0398975
0.0387562
0.0373173
0.0357813
0.0336612
0.0316119
0.0506658
0.0489245
0.0472609
0.0459013
0.0449406
0.0441011
0.0433307
0.0425458
0.0416982
0.0407801
0.0397244
0.0385671
0.0371577
0.0356428
0.0337057
0.0317667
0.0548564
0.0492653
0.0474064
0.0458253
0.0448796
0.0440626
0.0433185
0.0425577
0.0417373
0.0408415
0.0398093
0.038673
0.0372921
0.0357934
0.0338931
0.0319408
0.0465735
0.0465874
0.0462793
0.045928
0.0454624
0.0449755
0.0444624
0.0439666
0.0434524
0.0429901
0.0424014
0.0419197
0.0407446
0.0397296
0.0350222
0.0297568
0.0465959
0.0466104
0.0462594
0.0458667
0.045353
0.0448159
0.0442461
0.0436798
0.04308
0.0425037
0.0417871
0.0411308
0.0398564
0.0387428
0.0349085
0.031598
0.0467424
0.0467502
0.0463119
0.0458489
0.0452657
0.0446621
0.0440264
0.0433811
0.0426851
0.0419738
0.0410956
0.0401895
0.0387015
0.0372053
0.0337109
0.0306827
0.0470696
0.047041
0.0464468
0.0458702
0.0452016
0.044531
0.0438394
0.043135
0.0423758
0.0415823
0.0406289
0.0396164
0.0381373
0.0366146
0.0337689
0.0312578
0.0476466
0.0474943
0.0466592
0.0459074
0.0451312
0.0443911
0.0436519
0.0428978
0.0420859
0.0412225
0.0402041
0.0390988
0.0376146
0.0360474
0.0335987
0.0313421
0.0487377
0.0481263
0.0469148
0.0459159
0.0450402
0.0442511
0.0434977
0.0427283
0.0418982
0.0410059
0.0399674
0.0388304
0.0373852
0.035837
0.0336841
0.0316002
0.0506311
0.0488897
0.0472336
0.0458829
0.0449341
0.0441075
0.0433509
0.0425798
0.0417447
0.040838
0.03979
0.0386375
0.037224
0.0357001
0.0337384
0.0317719
0.0548216
0.0492312
0.0473798
0.0458078
0.0448743
0.04407
0.04334
0.0425938
0.0417865
0.040903
0.0398796
0.0387491
0.0373656
0.0358591
0.0339356
0.0319557
0.0465593
0.0465727
0.0462702
0.0459263
0.0454715
0.0449976
0.0444996
0.0440208
0.0435249
0.0430815
0.0425101
0.0420409
0.0408644
0.0398247
0.0350319
0.0296179
0.04658
0.0465942
0.0462485
0.0458627
0.0453592
0.0448341
0.0442781
0.0437271
0.0431433
0.0425833
0.0418804
0.041234
0.0399556
0.0388219
0.0349184
0.0315132
0.0467249
0.0467325
0.0462993
0.0458429
0.045269
0.0446766
0.0440534
0.0434216
0.0427394
0.0420417
0.0411744
0.040276
0.0387831
0.0372713
0.0337234
0.0306292
0.0470508
0.0470218
0.0464327
0.0458625
0.0452028
0.0445425
0.0438623
0.04317
0.0424228
0.041641
0.0406964
0.0396901
0.0382067
0.0366724
0.0337883
0.0312328
0.0476267
0.0474741
0.0466438
0.0458981
0.0451305
0.0444001
0.0436712
0.0429279
0.0421265
0.0412732
0.0402622
0.0391621
0.0376748
0.0360993
0.0336233
0.0313358
0.0487169
0.0481054
0.0468986
0.0459057
0.0450381
0.0442584
0.0435148
0.0427554
0.0419349
0.0410517
0.0400199
0.0388876
0.0374402
0.0358857
0.0337123
0.031605
0.0506099
0.0488686
0.0472172
0.0458724
0.0449314
0.0441135
0.0433662
0.0426046
0.0417786
0.0408804
0.0398386
0.0386905
0.0372758
0.035747
0.0337696
0.0317845
0.0548006
0.0492104
0.0473639
0.0457979
0.0448723
0.0440766
0.0433561
0.0426199
0.0418221
0.0409475
0.0399308
0.0388054
0.0374213
0.0359106
0.0339722
0.0319735
0.0465527