/*--------------------------------*- C++ -*----------------------------------*\
| =========                 |                                                 |
| \\      /  F ield         | OpenFOAM: The Open Source CFD Toolbox           |
|  \\    /   O peration     | Version:  v1912                                 |
|   \\  /    A nd           | Website:  www.openfoam.com                      |
|    \\/     M anipulation  |                                                 |
\*---------------------------------------------------------------------------*/
FoamFile
{
    version     2.0;
    format      ascii;
    class       volVectorField;
    location    "0.45/solid";
    object      D;
}
// * * * * * * * * * * * * * * * * * * * * * * * * * * * * * * * * * * * * * //

dimensions      [0 1 0 0 0 0 0];


internalField   nonuniform List<vector> 
256
(
(1.9421e-08 3.11039e-08 2.06259e-08)
(1.75324e-09 1.80528e-08 1.86991e-08)
(-1.22964e-09 1.7856e-08 1.87795e-08)
(-1.85538e-08 3.02103e-08 2.09526e-08)
(3.05502e-08 2.43687e-08 3.67132e-08)
(5.50154e-09 1.70754e-08 3.42615e-08)
(-3.44453e-09 1.66139e-08 3.45462e-08)
(-2.80514e-08 2.27588e-08 3.76733e-08)
(3.19363e-08 1.51754e-08 4.39225e-08)
(6.7033e-09 1.23607e-08 4.13663e-08)
(-2.7944e-09 1.16622e-08 4.18122e-08)
(-2.76038e-08 1.29269e-08 4.53557e-08)
(3.18699e-08 8.1264e-09 4.89667e-08)
(7.13507e-09 6.5679e-09 4.62759e-08)
(-1.10339e-09 5.65772e-09 4.68377e-08)
(-2.5425e-08 5.28534e-09 5.07427e-08)
(3.28019e-08 2.17003e-09 5.3903e-08)
(7.97075e-09 1.91608e-10 5.10929e-08)
(4.50849e-10 -9.17039e-10 5.17425e-08)
(-2.39658e-08 -1.22982e-09 5.59414e-08)
(3.56717e-08 -3.8101e-09 5.96995e-08)
(9.6768e-09 -6.7021e-09 5.67958e-08)
(1.40111e-09 -8.00776e-09 5.7518e-08)
(-2.41859e-08 -7.75808e-09 6.1955e-08)
(4.16718e-08 -1.3484e-08 6.72574e-08)
(1.25531e-08 -1.60928e-08 6.43952e-08)
(1.43623e-09 -1.75911e-08 6.51817e-08)
(-2.73221e-08 -1.79785e-08 6.97024e-08)
(5.08452e-08 -4.85907e-08 7.62046e-08)
(1.57417e-08 -4.68279e-08 7.37442e-08)
(1.33287e-09 -4.83614e-08 7.45781e-08)
(-3.34854e-08 -5.32921e-08 7.87843e-08)
(1.43414e-08 1.51089e-08 2.35139e-09)
(8.20203e-10 4.26371e-09 3.13253e-09)
(-5.14443e-10 4.08202e-09 3.27383e-09)
(-1.36369e-08 1.42984e-08 2.76541e-09)
(2.27663e-08 1.25005e-08 1.17906e-08)
(3.62804e-09 6.27318e-09 1.32973e-08)
(-2.13008e-09 5.78164e-09 1.36326e-08)
(-2.07703e-08 1.08744e-08 1.27661e-08)
(2.3622e-08 7.53548e-09 1.89585e-08)
(4.55607e-09 5.01561e-09 2.07418e-08)
(-1.48233e-09 4.28175e-09 2.12192e-08)
(-2.00728e-08 5.25098e-09 2.03493e-08)
(2.33753e-08 2.48962e-09 2.40503e-08)
(4.89681e-09 1.01188e-09 2.59226e-08)
(7.74172e-11 7.45267e-11 2.65066e-08)
(-1.79316e-08 -3.77307e-10 2.57579e-08)
(2.41622e-08 -2.6152e-09 2.85092e-08)
(5.65829e-09 -4.55742e-09 3.0406e-08)
(1.52668e-09 -5.68495e-09 3.10737e-08)
(-1.64975e-08 -6.02924e-09 3.04673e-08)
(2.69432e-08 -7.95169e-09 3.32063e-08)
(7.30187e-09 -1.08344e-08 3.51046e-08)
(2.39296e-09 -1.21514e-08 3.58411e-08)
(-1.67645e-08 -1.1902e-08 3.53697e-08)
(3.2991e-08 -1.57178e-08 3.81018e-08)
(1.01423e-08 -1.83057e-08 4.00122e-08)
(2.34515e-09 -1.98028e-08 4.08008e-08)
(-2.00601e-08 -2.01895e-08 4.04234e-08)
(4.24366e-08 -4.48146e-08 4.10858e-08)
(1.33077e-08 -4.2678e-08 4.30327e-08)
(2.17847e-09 -4.41839e-08 4.38406e-08)
(-2.65921e-08 -4.94325e-08 4.34727e-08)
(1.1083e-08 1.04855e-08 1.07261e-09)
(2.2964e-11 1.11551e-09 2.04606e-09)
(1.36134e-10 9.54371e-10 2.15033e-09)
(-1.05293e-08 9.78592e-09 1.36977e-09)
(1.77052e-08 6.37191e-09 7.09637e-09)
(1.9726e-09 1.01856e-09 8.94112e-09)
(-8.95727e-10 5.55359e-10 9.19736e-09)
(-1.61229e-08 4.88545e-09 7.82729e-09)
(1.82915e-08 1.93564e-09 1.33592e-08)
(2.65558e-09 -2.97298e-10 1.55063e-08)
(-2.42099e-10 -1.00352e-09 1.58755e-08)
(-1.53891e-08 -2.19293e-10 1.44211e-08)
(1.79991e-08 -2.08024e-09 1.85281e-08)
(2.92271e-09 -3.48898e-09 2.07779e-08)
(1.18941e-09 -4.3997e-09 2.12362e-08)
(-1.33993e-08 -4.83029e-09 1.98569e-08)
(1.87306e-08 -6.09615e-09 2.29084e-08)
(3.62195e-09 -8.02507e-09 2.51995e-08)
(2.53387e-09 -9.12577e-09 2.57312e-08)
(-1.20714e-08 -9.40234e-09 2.44579e-08)
(2.15084e-08 -1.01172e-08 2.689e-08)
(5.21595e-09 -1.30034e-08 2.91958e-08)
(3.31351e-09 -1.42914e-08 2.97872e-08)
(-1.24651e-08 -1.39623e-08 2.86204e-08)
(2.76484e-08 -1.60236e-08 3.0148e-08)
(8.03342e-09 -1.86182e-08 3.24556e-08)
(3.17858e-09 -2.00811e-08 3.30879e-08)
(-1.59578e-08 -2.03836e-08 3.20074e-08)
(3.71665e-08 -4.23926e-08 3.13713e-08)
(1.11801e-08 -4.02504e-08 3.36944e-08)
(2.93874e-09 -4.17148e-08 3.43338e-08)
(-2.26511e-08 -4.68845e-08 3.32659e-08)
(9.57856e-09 9.1397e-09 1.21516e-09)
(-3.06422e-10 5.86844e-10 1.8131e-09)
(3.8236e-10 4.41614e-10 1.88694e-09)
(-9.14101e-09 8.52503e-09 1.42628e-09)
(1.53065e-08 3.86416e-09 5.55231e-09)
(1.20177e-09 -9.81814e-10 6.71469e-09)
(-4.0282e-10 -1.40597e-09 6.90132e-09)
(-1.40367e-08 2.52682e-09 6.08475e-09)
(1.5821e-08 -1.1585e-09 1.04946e-08)
(1.74887e-09 -3.20869e-09 1.18587e-08)
(1.95652e-10 -3.86818e-09 1.21316e-08)
(-1.34134e-08 -3.14964e-09 1.12798e-08)
(1.55826e-08 -5.03366e-09 1.50422e-08)
(1.97909e-09 -6.39561e-09 1.647e-08)
(1.49308e-09 -7.25964e-09 1.68133e-08)
(-1.16432e-08 -7.62584e-09 1.60395e-08)
(1.63338e-08 -8.39634e-09 1.89388e-08)
(2.64343e-09 -1.03158e-08 2.03907e-08)
(2.72622e-09 -1.13717e-08 2.07937e-08)
(-1.04776e-08 -1.15559e-08 2.0118e-08)
(1.91289e-08 -1.14832e-08 2.21654e-08)
(4.20182e-09 -1.43704e-08 2.36272e-08)
(3.41988e-09 -1.5615e-08 2.40792e-08)
(-1.10069e-08 -1.51918e-08 2.34948e-08)
(2.52973e-08 -1.64468e-08 2.44821e-08)
(6.98724e-09 -1.90667e-08 2.5949e-08)
(3.21616e-09 -2.04875e-08 2.6433e-08)
(-1.46242e-08 -2.06785e-08 2.59157e-08)
(3.47836e-08 -4.16624e-08 2.54075e-08)
(1.01039e-08 -3.96443e-08 2.6905e-08)
(2.91901e-09 -4.10697e-08 2.7392e-08)
(-2.13671e-08 -4.60362e-08 2.68648e-08)
(8.94185e-09 8.55886e-09 1.16651e-09)
(-3.94279e-10 4.31185e-10 1.46649e-09)
(4.22249e-10 2.98387e-10 1.51828e-09)
(-8.58274e-09 8.00674e-09 1.31433e-09)
(1.42931e-08 2.83568e-09 4.39787e-09)
(9.40294e-10 -1.74797e-09 4.99363e-09)
(-3.19995e-10 -2.13834e-09 5.12611e-09)
(-1.32389e-08 1.61922e-09 4.77488e-09)
(1.48126e-08 -2.64387e-09 8.06336e-09)
(1.42626e-09 -4.59833e-09 8.76926e-09)
(1.98299e-10 -5.21412e-09 8.96476e-09)
(-1.27559e-08 -4.49116e-09 8.62507e-09)
(1.46433e-08 -6.67397e-09 1.16145e-08)
(1.63767e-09 -8.01003e-09 1.23534e-08)
(1.37982e-09 -8.82829e-09 1.26017e-08)
(-1.11848e-08 -9.12003e-09 1.23357e-08)
(1.54311e-08 -9.8285e-09 1.47176e-08)
(2.27931e-09 -1.17378e-08 1.54688e-08)
(2.51558e-09 -1.27494e-08 1.57629e-08)
(-1.0173e-08 -1.28495e-08 1.55789e-08)
(1.82321e-08 -1.25266e-08 1.72067e-08)
(3.80604e-09 -1.54051e-08 1.79673e-08)
(3.13801e-09 -1.66081e-08 1.82991e-08)
(-1.08086e-08 -1.61078e-08 1.81853e-08)
(2.43786e-08 -1.7161e-08 1.89455e-08)
(6.55263e-09 -1.97916e-08 1.97182e-08)
(2.88588e-09 -2.11744e-08 2.00745e-08)
(-1.44879e-08 -2.12783e-08 2.00054e-08)
(3.38006e-08 -4.17891e-08 1.98145e-08)
(9.63512e-09 -3.98707e-08 2.06169e-08)
(2.54752e-09 -4.12632e-08 2.09749e-08)
(-2.12378e-08 -4.60639e-08 2.08923e-08)
(8.655e-09 8.23915e-09 9.26881e-10)
(-4.08649e-10 3.33677e-10 1.06714e-09)
(4.08533e-10 2.09971e-10 1.10162e-09)
(-8.34514e-09 7.7303e-09 1.02461e-09)
(1.38546e-08 2.36544e-09 3.20851e-09)
(8.61125e-10 -2.08637e-09 3.49109e-09)
(-3.53079e-10 -2.45168e-09 3.57968e-09)
(-1.29396e-08 1.23619e-09 3.45914e-09)
(1.43954e-08 -3.3263e-09 5.72996e-09)
(1.31938e-09 -5.23378e-09 6.06771e-09)
(9.55547e-11 -5.81601e-09 6.19918e-09)
(-1.25714e-08 -5.06538e-09 6.10592e-09)
(1.42749e-08 -7.51555e-09 8.21263e-09)
(1.51746e-09 -8.83752e-09 8.56735e-09)
(1.1925e-09 -9.61952e-09 8.73535e-09)
(-1.11436e-08 -9.84778e-09 8.69903e-09)
(1.50873e-08 -1.0689e-08 1.04158e-08)
(2.14013e-09 -1.25878e-08 1.07784e-08)
(2.25636e-09 -1.35637e-08 1.09786e-08)
(-1.02451e-08 -1.35999e-08 1.10011e-08)
(1.78819e-08 -1.33251e-08 1.21858e-08)
(3.63866e-09 -1.61889e-08 1.25582e-08)
(2.82677e-09 -1.73587e-08 1.27851e-08)
(-1.09527e-08 -1.6805e-08 1.28549e-08)
(2.39927e-08 -1.79037e-08 1.34467e-08)
(6.35003e-09 -2.05269e-08 1.38332e-08)
(2.54071e-09 -2.18801e-08 1.40775e-08)
(-1.4663e-08 -2.19314e-08 1.41742e-08)
(3.33552e-08 -4.22077e-08 1.41829e-08)
(9.40215e-09 -4.0333e-08 1.4591e-08)
(2.17334e-09 -4.17002e-08 1.48362e-08)
(-2.14106e-08 -4.64061e-08 1.49235e-08)
(8.5122e-09 8.06401e-09 5.8597e-10)
(-4.09855e-10 2.74422e-10 6.47871e-10)
(3.94166e-10 1.56592e-10 6.67633e-10)
(-8.23085e-09 7.58209e-09 6.41647e-10)
(1.36438e-08 2.13696e-09 1.95103e-09)
(8.3152e-10 -2.24907e-09 2.07681e-09)
(-3.88973e-10 -2.59814e-09 2.1277e-09)
(-1.28107e-08 1.06338e-09 2.09421e-09)
(1.41998e-08 -3.63781e-09 3.42757e-09)
(1.27515e-09 -5.52218e-09 3.57907e-09)
(1.38462e-11 -6.0823e-09 3.65483e-09)
(-1.25162e-08 -5.30618e-09 3.64326e-09)
(1.41052e-08 -7.92823e-09 4.88394e-09)
(1.4628e-09 -9.24185e-09 5.04415e-09)
(1.05805e-09 -9.99954e-09 5.14135e-09)
(-1.11753e-08 -1.01845e-08 5.16441e-09)
(1.49282e-08 -1.11775e-08 6.18841e-09)
(2.0704e-09 -1.30672e-08 6.35394e-09)
(2.07645e-09 -1.4019e-08 6.4702e-09)
(-1.03464e-08 -1.40139e-08 6.5276e-09)
(1.77126e-08 -1.3864e-08 7.24786e-09)
(3.54778e-09 -1.6714e-08 7.421e-09)
(2.61331e-09 -1.78612e-08 7.55321e-09)
(-1.10972e-08 -1.72751e-08 7.63728e-09)
(2.37946e-08 -1.8473e-08 8.02235e-09)
(6.23408e-09 -2.10824e-08 8.20616e-09)
(2.30461e-09 -2.24155e-08 8.34876e-09)
(-1.48251e-08 -2.24398e-08 8.44709e-09)
(3.31158e-08 -4.26084e-08 8.51403e-09)
(9.26432e-09 -4.07423e-08 8.71003e-09)
(1.91828e-09 -4.20923e-08 8.85321e-09)
(-2.1571e-08 -4.67551e-08 8.94673e-09)
(8.4489e-09 7.98641e-09 1.99598e-10)
(-4.10293e-10 2.47622e-10 2.17333e-10)
(3.87688e-10 1.32661e-10 2.23772e-10)
(-8.18061e-09 7.51736e-09 2.17677e-10)
(1.35506e-08 2.0411e-09 6.54257e-10)
(8.18434e-10 -2.31681e-09 6.90458e-10)
(-4.05988e-10 -2.65794e-09 7.07053e-10)
(-1.27555e-08 9.94507e-10 7.00808e-10)
(1.4113e-08 -3.76213e-09 1.14067e-09)
(1.25492e-09 -5.63653e-09 1.18449e-09)
(-2.48574e-11 -6.18576e-09 1.20924e-09)
(-1.24952e-08 -5.3958e-09 1.21094e-09)
(1.40286e-08 -8.09952e-09 1.61984e-09)
(1.43659e-09 -9.4089e-09 1.66645e-09)
(9.9448e-10 -1.01545e-08 1.69826e-09)
(-1.11944e-08 -1.03181e-08 1.71145e-09)
(1.48545e-08 -1.14003e-08 2.05083e-09)
(2.03575e-09 -1.32848e-08 2.09941e-09)
(1.99118e-09 -1.42245e-08 2.13753e-09)
(-1.03978e-08 -1.41994e-08 2.1619e-09)
(1.76322e-08 -1.41337e-08 2.40357e-09)
(3.50191e-09 -1.69755e-08 2.45501e-09)
(2.51161e-09 -1.81113e-08 2.49843e-09)
(-1.11689e-08 -1.75101e-08 2.53137e-09)
(2.36991e-08 -1.87739e-08 2.66543e-09)
(6.17548e-09 -2.13738e-08 2.72076e-09)
(2.19134e-09 -2.26967e-08 2.76765e-09)
(-1.49052e-08 -2.27099e-08 2.80504e-09)
(3.29999e-08 -4.28388e-08 2.83769e-09)
(9.19447e-09 -4.09706e-08 2.89689e-09)
(1.7955e-09 -4.2312e-08 2.94397e-09)
(-2.1651e-08 -4.69594e-08 2.97998e-09)
)
;

boundaryField
{
    interface
    {
        type            solidTraction;
        traction        nonuniform List<vector> 
192
(
(48.7936 -0.348717 -3.12548)
(50.6889 -0.209912 -4.91783)
(51.9833 0.123287 -5.40882)
(52.7741 0.532759 -5.47403)
(52.8841 0.880468 -5.35362)
(53.6603 1.52512 -5.16373)
(51.9524 1.99877 -4.71617)
(55.3829 4.37505 -4.35784)
(47.4562 -0.243971 -1.55737)
(48.3787 -0.117297 -2.62747)
(49.1407 0.188614 -2.86139)
(49.6827 0.614733 -2.84015)
(49.5916 0.989695 -2.71202)
(50.3088 1.70796 -2.54429)
(48.353 2.23607 -2.25529)
(51.983 4.74447 -2.01724)
(50.1849 -0.208992 -1.23601)
(51.0075 -0.0744903 -2.0653)
(51.7672 0.2342 -2.24315)
(52.3155 0.692951 -2.22273)
(52.1233 1.11196 -2.11962)
(52.7408 1.91589 -1.98374)
(50.3131 2.52626 -1.76853)
(53.7248 5.21358 -1.58043)
(50.3559 -0.157757 -0.767528)
(50.9842 -0.00448169 -1.3499)
(51.581 0.306762 -1.46787)
(52.0366 0.77865 -1.44185)
(51.7419 1.21926 -1.35905)
(52.2965 2.06242 -1.25574)
(49.7094 2.71015 -1.11507)
(53.0883 5.44898 -0.99576)
(51.164 -0.134314 -0.565145)
(51.7321 0.0373012 -0.993523)
(52.2576 0.359156 -1.08105)
(52.6693 0.846069 -1.06193)
(52.3012 1.30831 -1.00093)
(52.7831 2.18495 -0.923827)
(50.0163 2.86727 -0.823789)
(53.2688 5.65523 -0.736271)
(51.3597 -0.115604 -0.349212)
(51.8749 0.0707654 -0.631753)
(52.3367 0.401046 -0.689808)
(52.7071 0.896982 -0.675755)
(52.289 1.3717 -0.634192)
(52.7301 2.26606 -0.582476)
(49.8795 2.96685 -0.519674)
(53.0891 5.78071 -0.465815)
(51.6235 -0.106941 -0.205941)
(52.1193 0.0895725 -0.371746)
(52.5479 0.427247 -0.406195)
(52.8953 0.930233 -0.398164)
(52.4442 1.41428 -0.374124)
(52.8523 2.32092 -0.34356)
(49.935 3.03485 -0.307693)
(53.0978 5.86751 -0.275449)
(51.6833 -0.101276 -0.0615318)
(52.1652 0.100221 -0.114773)
(52.5751 0.440936 -0.125954)
(52.91 0.946482 -0.12315)
(52.4455 1.43445 -0.115354)
(52.8389 2.34582 -0.105421)
(49.9017 3.06581 -0.094561)
(53.0412 5.90648 -0.08435)
(4.53213 0.948113 19.341)
(7.45194 1.00834 14.6901)
(8.33905 0.742762 11.2828)
(8.55351 0.512113 10.3112)
(8.56257 0.425515 10.5321)
(8.57468 0.47448 11.6668)
(8.6006 0.585707 13.9589)
(9.25459 0.802456 15.9854)
(2.89788 0.538813 24.5877)
(5.32277 0.682432 23.5335)
(5.98256 0.484826 22.5046)
(6.10202 0.248894 22.2871)
(6.10696 0.108931 22.412)
(6.17128 0.0433852 22.8656)
(6.36792 0.0559788 23.6258)
(7.2664 0.140708 24.1746)
(3.02794 0.357885 21.5311)
(5.57231 0.475077 20.7276)
(6.3028 0.314954 19.7987)
(6.44382 0.0776708 19.5694)
(6.43397 -0.094927 19.7129)
(6.44979 -0.236683 20.1407)
(6.56272 -0.322476 20.9743)
(7.38635 -0.331605 21.9068)
(3.52501 0.275973 22.1104)
(6.53656 0.353753 21.619)
(7.45021 0.197668 20.8704)
(7.64205 -0.0479738 20.7365)
(7.62228 -0.23113 20.9042)
(7.62771 -0.412159 21.2089)
(7.6442 -0.554426 21.7798)
(8.47214 -0.704194 22.4466)
(-10.2256 0.933535 1.28769)
(-6.43532 0.884843 2.32545)
(-3.7661 0.353612 2.58926)
(-2.70102 -0.224448 2.65056)
(-2.68079 -0.527746 2.65323)
(-1.6329 -0.980726 2.79899)
(-2.99038 -0.961695 2.85175)
(6.02563 -3.25137 3.33639)
(-16.4407 0.361591 -0.073804)
(-15.6433 0.321441 0.225723)
(-14.934 0.0221798 0.223838)
(-14.423 -0.34575 0.209895)
(-14.4032 -0.48618 0.242281)
(-12.806 -0.814602 0.436168)
(-13.1983 -0.54759 0.652109)
(-2.92972 -2.77814 1.08342)
(-16.5867 0.196036 0.146248)
(-15.9845 0.11613 0.532647)
(-15.3919 -0.0903565 0.63075)
(-14.7688 -0.372514 0.662657)
(-14.6201 -0.427664 0.701134)
(-12.6037 -0.699196 0.835804)
(-12.6801 -0.323947 0.955272)
(-1.38412 -2.72257 1.15752)
(-18.2984 0.0933142 0.0423328)
(-17.9811 -0.0151849 0.35874)
(-17.6536 -0.163789 0.452647)
(-17.036 -0.375566 0.484185)
(-16.7915 -0.352516 0.515263)
(-14.4123 -0.566021 0.61143)
(-14.0925 -0.110112 0.690013)
(-2.09641 -2.57639 0.808145)
(-18.538 0.0767282 0.12437)
(-18.2241 -0.0446165 0.407179)
(-17.9004 -0.176861 0.503924)
(-17.21 -0.366107 0.537114)
(-16.8875 -0.310253 0.558019)
(-14.3084 -0.50421 0.611928)
(-13.8408 -0.019592 0.641137)
(-1.45365 -2.56972 0.682352)
(-19.0331 0.0700129 0.0794265)
(-18.7352 -0.0562995 0.278382)
(-18.4226 -0.179849 0.350315)
(-17.688 -0.355781 0.374996)
(-17.3051 -0.277525 0.389309)
(-14.5712 -0.45747 0.422847)
(-13.9689 0.0462612 0.43846)
(-1.29515 -2.55343 0.459359)
(-19.1432 0.0721049 0.0646941)
(-18.834 -0.0559187 0.187491)
(-18.5074 -0.176947 0.232545)
(-17.7371 -0.348817 0.247825)
(-17.3177 -0.261007 0.25583)
(-14.5007 -0.436192 0.272218)
(-13.8387 0.0749198 0.277639)
(-0.999454 -2.56056 0.282883)
(-19.2625 0.071916 0.016048)
(-18.9533 -0.0564245 0.0553899)
(-18.6222 -0.175558 0.070245)
(-17.8359 -0.344793 0.0752917)
(-17.3953 -0.252014 0.0782616)
(-14.536 -0.423969 0.0838148)
(-13.8328 0.0907034 0.0865156)
(-0.916917 -2.56068 0.0883926)
(9.28841 -15.6236 -0.719268)
(8.65425 -13.4019 -0.50015)
(8.66055 -10.7133 -0.352244)
(8.69766 -8.98181 -0.22823)
(8.78638 -7.6515 -0.169182)
(8.84097 -6.71434 -0.104352)
(8.88644 -6.12132 -0.06424)
(8.90623 -5.83512 -0.0190911)
(7.28108 -23.8733 -0.0427019)
(6.3853 -23.2137 0.0449525)
(6.19266 -22.2009 0.0980044)
(6.1287 -21.4388 0.103309)
(6.13112 -20.799 0.0849271)
(6.12976 -20.3286 0.0654473)
(6.13831 -20.0216 0.0386095)
(6.14081 -19.8601 0.0142584)
(7.39912 -21.6159 0.438344)
(6.57044 -20.5666 0.432986)
(6.45727 -19.481 0.387798)
(6.44545 -18.7406 0.311229)
(6.47825 -18.0868 0.240723)
(6.49505 -17.6481 0.167996)
(6.51356 -17.3453 0.099378)
(6.51997 -17.2055 0.0328323)
(8.46467 -22.1827 0.812164)
(7.62985 -21.42 0.666318)
(7.61109 -20.6562 0.559037)
(7.61607 -20.1358 0.433622)
(7.67964 -19.6143 0.335004)
(7.71101 -19.2942 0.23007)
(7.74231 -19.0544 0.137755)
(7.75427 -18.9452 0.0449019)
)
;
        pressure        uniform 0;
        secondOrder     false;
        setEffectiveTraction false;
        relaxationFactor 1;
        value           nonuniform List<vector> 
192
(
(7.69216e-08 4.35966e-08 1.92527e-08)
(8.44868e-08 2.74975e-08 3.45253e-08)
(8.6957e-08 1.55054e-08 4.1575e-08)
(8.85178e-08 8.34288e-09 4.65815e-08)
(9.15538e-08 3.12062e-09 5.14893e-08)
(9.74047e-08 -1.59238e-09 5.72719e-08)
(1.07289e-07 -9.69034e-09 6.48388e-08)
(1.22372e-07 -4.58247e-08 7.38099e-08)
(6.31945e-08 2.43858e-08 2.6663e-10)
(6.91509e-08 1.48206e-08 8.57892e-09)
(7.06896e-08 7.68777e-09 1.55468e-08)
(7.17764e-08 2.62477e-09 2.05821e-08)
(7.45551e-08 -1.72307e-09 2.4991e-08)
(8.04228e-08 -5.74421e-09 2.9665e-08)
(9.09007e-08 -1.18441e-08 3.45956e-08)
(1.08072e-07 -4.20202e-08 3.76658e-08)
(5.41877e-08 1.76825e-08 -1.18293e-10)
(5.95367e-08 8.17404e-09 5.23109e-09)
(6.08497e-08 2.00915e-09 1.14086e-08)
(6.18072e-08 -1.97035e-09 1.65795e-08)
(6.44812e-08 -5.21864e-09 2.09509e-08)
(7.03793e-08 -7.88742e-09 2.49361e-08)
(8.11567e-08 -1.21087e-08 2.82243e-08)
(9.89537e-08 -3.95748e-08 2.94578e-08)
(4.91646e-08 1.5361e-08 6.79749e-10)
(5.39818e-08 5.42478e-09 4.69907e-09)
(5.52913e-08 -1.08944e-09 9.62458e-09)
(5.62994e-08 -4.90534e-09 1.4203e-08)
(5.89821e-08 -7.50956e-09 1.81137e-08)
(6.4902e-08 -9.24196e-09 2.13461e-08)
(7.57609e-08 -1.25327e-08 2.36645e-08)
(9.36649e-08 -3.88346e-08 2.45658e-08)
(4.64618e-08 1.43676e-08 9.35524e-10)
(5.10073e-08 4.30337e-09 4.03473e-09)
(5.23596e-08 -2.55625e-09 7.70678e-09)
(5.34533e-08 -6.5192e-09 1.12874e-08)
(5.61794e-08 -8.93111e-09 1.44058e-08)
(6.21049e-08 -1.02893e-08 1.68948e-08)
(7.29378e-08 -1.32684e-08 1.86193e-08)
(9.07644e-08 -3.8966e-08 1.94572e-08)
(4.49559e-08 1.38665e-08 8.19413e-10)
(4.93899e-08 3.80056e-09 3.04607e-09)
(5.07821e-08 -3.22117e-09 5.57667e-09)
(5.19396e-08 -7.34243e-09 8.078e-09)
(5.46989e-08 -9.78706e-09 1.029e-08)
(6.06141e-08 -1.10983e-08 1.20559e-08)
(7.13896e-08 -1.40349e-08 1.33006e-08)
(8.91135e-08 -3.93971e-08 1.40116e-08)
(4.4123e-08 1.3603e-08 5.34412e-10)
(4.8508e-08 3.55889e-09 1.87495e-09)
(4.99244e-08 -3.52236e-09 3.35689e-09)
(5.11173e-08 -7.74598e-09 4.82231e-09)
(5.38928e-08 -1.02754e-08 6.13015e-09)
(5.97931e-08 -1.1647e-08 7.18538e-09)
(7.0519e-08 -1.46217e-08 7.94891e-09)
(8.8166e-08 -3.98101e-08 8.42516e-09)
(4.37457e-08 1.34863e-08 1.83763e-10)
(4.81091e-08 3.45714e-09 6.30939e-10)
(4.95355e-08 -3.64253e-09 1.11894e-09)
(5.07431e-08 -7.91398e-09 1.60068e-09)
(5.3524e-08 -1.04992e-08 2.03239e-09)
(5.94145e-08 -1.19222e-08 2.38344e-09)
(7.01135e-08 -1.49314e-08 2.64155e-09)
(8.77214e-08 -4.00477e-08 2.8087e-09)
(1.96267e-08 4.54388e-08 8.07631e-08)
(3.10324e-08 3.0193e-08 9.31327e-08)
(3.24724e-08 1.82389e-08 1.01442e-07)
(3.23912e-08 1.06216e-08 1.08194e-07)
(3.33076e-08 4.8533e-09 1.15303e-07)
(3.6161e-08 -4.71433e-10 1.24107e-07)
(4.21669e-08 -9.35767e-09 1.35598e-07)
(5.1429e-08 -4.62375e-08 1.5061e-07)
(1.2921e-09 3.1293e-08 7.33514e-08)
(4.96067e-09 2.27423e-08 8.56436e-08)
(6.1767e-09 1.53643e-08 9.3236e-08)
(6.60382e-09 8.9996e-09 9.95028e-08)
(7.43163e-09 2.82162e-09 1.06355e-07)
(9.13242e-09 -3.37652e-09 1.15113e-07)
(1.20352e-08 -1.18557e-08 1.2709e-07)
(1.53362e-08 -4.44032e-08 1.44287e-07)
(-6.65759e-10 3.11875e-08 7.28187e-08)
(-2.59066e-09 2.23721e-08 8.53009e-08)
(-1.79601e-09 1.47351e-08 9.30298e-08)
(1.43773e-11 8.14032e-09 9.93988e-08)
(1.66401e-09 1.75301e-09 1.0633e-07)
(2.69197e-09 -4.64801e-09 1.15152e-07)
(2.76409e-09 -1.33261e-08 1.27188e-07)
(2.59409e-09 -4.59256e-08 1.44472e-07)
(-1.8648e-08 4.48669e-08 7.93974e-08)
(-2.82209e-08 2.88596e-08 9.24216e-08)
(-2.76759e-08 1.61942e-08 1.0114e-07)
(-2.53703e-08 7.93175e-09 1.08196e-07)
(-2.38089e-08 1.57322e-09 1.15542e-07)
(-2.39418e-08 -4.31789e-09 1.2454e-07)
(-2.70235e-08 -1.37713e-08 1.36201e-07)
(-3.323e-08 -5.09081e-08 1.5146e-07)
(-7.35395e-08 4.18618e-08 1.96765e-08)
(-7.94169e-08 2.50215e-08 3.57687e-08)
(-8.00016e-08 1.22703e-08 4.34373e-08)
(-7.94033e-08 4.3758e-09 4.88971e-08)
(-8.00116e-08 -1.53969e-09 5.41532e-08)
(-8.31971e-08 -6.91918e-09 6.02222e-08)
(-9.02642e-08 -1.56538e-08 6.80367e-08)
(-1.02485e-07 -5.20611e-08 7.71892e-08)
(-5.98563e-08 2.29002e-08 7.59265e-10)
(-6.45186e-08 1.24834e-08 9.78398e-09)
(-6.44522e-08 4.54132e-09 1.72957e-08)
(-6.35843e-08 -1.27118e-09 2.27515e-08)
(-6.40811e-08 -6.3211e-09 2.74938e-08)
(-6.73821e-08 -1.10115e-08 3.24395e-08)
(-7.51149e-08 -1.77327e-08 3.75824e-08)
(-8.95378e-08 -4.81314e-08 4.07643e-08)
(-5.10721e-08 1.6449e-08 2.45821e-10)
(-5.53696e-08 6.10042e-09 6.14398e-09)
(-5.53044e-08 -9.00197e-10 1.27564e-08)
(-5.44978e-08 -5.65978e-09 1.82849e-08)
(-5.5039e-08 -9.63597e-09 2.2953e-08)
(-5.84786e-08 -1.29909e-08 2.71811e-08)
(-6.65827e-08 -1.78372e-08 3.06485e-08)
(-8.16816e-08 -4.55164e-08 3.19598e-08)
(-4.62527e-08 1.43195e-08 9.39651e-10)
(-5.02065e-08 3.59492e-09 5.36383e-09)
(-5.03151e-08 -3.74803e-09 1.06216e-08)
(-4.97195e-08 -8.35987e-09 1.5486e-08)
(-5.04044e-08 -1.17151e-08 1.96435e-08)
(-5.39711e-08 -1.41553e-08 2.30808e-08)
(-6.22306e-08 -1.80885e-08 2.55483e-08)
(-7.74827e-08 -4.46177e-08 2.65116e-08)
(-4.36926e-08 1.34622e-08 1.11539e-09)
(-4.75084e-08 2.66249e-09 4.50067e-09)
(-4.77914e-08 -5.00473e-09 8.41465e-09)
(-4.74074e-08 -9.7658e-09 1.22108e-08)
(-4.82478e-08 -1.29436e-08 1.55209e-08)
(-5.19124e-08 -1.50291e-08 1.81718e-08)
(-6.02161e-08 -1.8671e-08 2.00152e-08)
(-7.54384e-08 -4.46154e-08 2.09033e-08)
(-4.22767e-08 1.30515e-08 9.36657e-10)
(-4.60687e-08 2.29275e-09 3.35213e-09)
(-4.6483e-08 -5.51441e-09 6.04607e-09)
(-4.62546e-08 -1.04294e-08 8.69672e-09)
(-4.72132e-08 -1.36477e-08 1.10445e-08)
(-5.09408e-08 -1.57006e-08 1.29271e-08)
(-5.92451e-08 -1.93169e-08 1.42586e-08)
(-7.44069e-08 -4.49427e-08 1.50068e-08)
(-4.14961e-08 1.28425e-08 6.00526e-10)
(-4.52916e-08 2.13471e-09 2.04824e-09)
(-4.57872e-08 -5.71507e-09 3.62424e-09)
(-4.56536e-08 -1.0727e-08 5.17716e-09)
(-4.66851e-08 -1.40335e-08 6.56581e-09)
(-5.04481e-08 -1.61555e-08 7.69138e-09)
(-5.87439e-08 -1.98214e-08 8.50769e-09)
(-7.38598e-08 -4.5285e-08 9.00686e-09)
(-4.11429e-08 1.27514e-08 2.05119e-10)
(-4.49412e-08 2.07314e-09 6.87016e-10)
(-4.54742e-08 -5.78612e-09 1.2057e-09)
(-4.53842e-08 -1.08425e-08 1.71623e-09)
(-4.64495e-08 -1.42058e-08 2.17476e-09)
(-5.02281e-08 -1.63833e-08 2.54929e-09)
(-5.85183e-08 -2.00894e-08 2.8251e-09)
(-7.36112e-08 -4.54868e-08 2.99999e-09)
(5.1789e-08 -1.2302e-07 7.64371e-08)
(4.3301e-08 -1.13187e-07 3.95362e-08)
(3.80413e-08 -1.06857e-07 3.05832e-08)
(3.56944e-08 -1.03204e-07 2.52566e-08)
(3.47339e-08 -1.01385e-07 1.99507e-08)
(3.42932e-08 -1.00568e-07 1.43877e-08)
(3.40499e-08 -1.00239e-07 8.6718e-09)
(3.39298e-08 -1.00131e-07 2.89529e-09)
(1.56856e-08 -1.17394e-07 7.39191e-08)
(1.3151e-08 -1.0541e-07 4.13884e-08)
(1.10117e-08 -9.86397e-08 3.2936e-08)
(9.95673e-09 -9.50602e-08 2.681e-08)
(9.50466e-09 -9.34015e-08 2.07891e-08)
(9.27628e-09 -9.26837e-08 1.48089e-08)
(9.13631e-09 -9.23961e-08 8.86945e-09)
(9.06377e-09 -9.22996e-08 2.95398e-09)
(2.95014e-09 -1.18276e-07 7.47518e-08)
(3.86818e-09 -1.06223e-07 4.2179e-08)
(4.5983e-09 -9.9414e-08 3.35554e-08)
(4.51804e-09 -9.58007e-08 2.72792e-08)
(4.0969e-09 -9.41118e-08 2.11325e-08)
(3.69271e-09 -9.33701e-08 1.50435e-08)
(3.42256e-09 -9.30662e-08 9.00618e-09)
(3.29378e-09 -9.29615e-08 2.9989e-09)
(-3.28669e-08 -1.25978e-07 7.90115e-08)
(-2.59293e-08 -1.15945e-07 4.18709e-08)
(-2.20414e-08 -1.09503e-07 3.24169e-08)
(-2.08334e-08 -1.05746e-07 2.66598e-08)
(-2.07607e-08 -1.03838e-07 2.09848e-08)
(-2.09646e-08 -1.0295e-07 1.50963e-08)
(-2.11391e-08 -1.02573e-07 9.08507e-09)
(-2.12241e-08 -1.0244e-07 3.03107e-09)
)
;
        gradient        nonuniform List<vector> 
192
(
(4.60005e-06 9.9942e-07 -1.0986e-07)
(4.31493e-06 2.50304e-07 -1.75032e-07)
(4.40165e-06 2.63966e-08 -1.878e-07)
(4.53183e-06 1.73186e-08 -1.90814e-07)
(4.70015e-06 7.60471e-08 -1.93093e-07)
(4.93864e-06 1.77418e-07 -1.94209e-07)
(5.24934e-06 3.03496e-07 -1.93483e-07)
(5.72216e-06 2.21277e-07 -1.9158e-07)
(3.90825e-06 7.42151e-07 -1.66781e-07)
(3.71077e-06 1.85611e-07 -2.56935e-07)
(3.76541e-06 1.21833e-08 -2.72933e-07)
(3.87208e-06 1.08119e-08 -2.77454e-07)
(4.03144e-06 7.13699e-08 -2.8146e-07)
(4.27837e-06 1.76598e-07 -2.833e-07)
(4.63278e-06 3.09897e-07 -2.80497e-07)
(5.25086e-06 2.23552e-07 -2.73599e-07)
(3.44838e-06 5.75761e-07 -9.52724e-08)
(3.34652e-06 1.4417e-07 -1.49222e-07)
(3.40465e-06 5.88112e-09 -1.56048e-07)
(3.50465e-06 8.79143e-09 -1.55884e-07)
(3.66004e-06 7.02011e-08 -1.56595e-07)
(3.90968e-06 1.7838e-07 -1.56312e-07)
(4.28066e-06 3.13196e-07 -1.53897e-07)
(4.94297e-06 2.25421e-07 -1.53081e-07)
(3.16688e-06 4.977e-07 -4.28329e-08)
(3.09402e-06 1.2485e-07 -6.8259e-08)
(3.15762e-06 5.52534e-09 -6.95986e-08)
(3.25734e-06 1.02652e-08 -6.71336e-08)
(3.41186e-06 7.09422e-08 -6.60085e-08)
(3.66185e-06 1.79297e-07 -6.5543e-08)
(4.03709e-06 3.13129e-07 -6.54115e-08)
(4.71051e-06 2.26229e-07 -6.73322e-08)
(3.0016e-06 4.64698e-07 -1.84786e-08)
(2.93714e-06 1.17415e-07 -2.90513e-08)
(3.00376e-06 7.00928e-09 -2.85266e-08)
(3.1048e-06 1.23821e-08 -2.61679e-08)
(3.25987e-06 7.17919e-08 -2.49422e-08)
(3.50983e-06 1.78978e-07 -2.4953e-08)
(3.88474e-06 3.11408e-07 -2.61027e-08)
(4.5571e-06 2.25849e-07 -2.85772e-08)
(2.90407e-06 4.50191e-07 -8.59748e-09)
(2.84282e-06 1.1481e-07 -1.29955e-08)
(2.91093e-06 8.41079e-09 -1.22636e-08)
(3.01317e-06 1.38501e-08 -1.07708e-08)
(3.16893e-06 7.21572e-08 -1.00665e-08)
(3.41858e-06 1.78137e-07 -1.03968e-08)
(3.79176e-06 3.09505e-07 -1.16857e-08)
(4.46067e-06 2.24847e-07 -1.37016e-08)
(2.84886e-06 4.43118e-07 -4.12464e-09)
(2.78914e-06 1.13754e-07 -6.0865e-09)
(2.85796e-06 9.23541e-09 -5.65409e-09)
(2.96097e-06 1.45796e-08 -4.93047e-09)
(3.11717e-06 7.2166e-08 -4.66119e-09)
(3.36644e-06 1.77359e-07 -4.99818e-09)
(3.73795e-06 3.08104e-07 -5.87497e-09)
(4.40402e-06 2.23863e-07 -7.10956e-09)
(2.82374e-06 4.39988e-07 -1.26683e-09)
(2.76468e-06 1.13283e-07 -1.86547e-09)
(2.8338e-06 9.56767e-09 -1.73875e-09)
(2.93716e-06 1.48432e-08 -1.53349e-09)
(3.09356e-06 7.20896e-08 -1.47526e-09)
(3.34259e-06 1.76923e-07 -1.60991e-09)
(3.71315e-06 3.07394e-07 -1.91076e-09)
(4.37772e-06 2.23291e-07 -2.31963e-09)
(1.64523e-08 1.1468e-06 4.81097e-06)
(3.85793e-08 4.65944e-07 4.51356e-06)
(4.28844e-08 2.45079e-07 4.60154e-06)
(4.17016e-08 1.99617e-07 4.73822e-06)
(4.04564e-08 2.14662e-07 4.91199e-06)
(3.9142e-08 2.67094e-07 5.15259e-06)
(3.96111e-08 3.3011e-07 5.46727e-06)
(4.67022e-08 1.88254e-07 5.95243e-06)
(-3.68911e-08 1.05922e-06 4.37219e-06)
(-4.32697e-08 4.53353e-07 4.11057e-06)
(-4.2128e-08 2.40293e-07 4.14958e-06)
(-4.25002e-08 1.94536e-07 4.25815e-06)
(-4.31298e-08 2.10401e-07 4.42096e-06)
(-4.35505e-08 2.66047e-07 4.66535e-06)
(-4.14307e-08 3.38969e-07 5.01561e-06)
(-3.24354e-08 1.93976e-07 5.6434e-06)
(4.51108e-08 1.06652e-06 4.32314e-06)
(6.83092e-08 4.6066e-07 4.06037e-06)
(7.98715e-08 2.45833e-07 4.09741e-06)
(8.94212e-08 1.98608e-07 4.20489e-06)
(9.70531e-08 2.13604e-07 4.36702e-06)
(1.03268e-07 2.6878e-07 4.61073e-06)
(1.06229e-07 3.41199e-07 4.96051e-06)
(1.00898e-07 1.9487e-07 5.59152e-06)
(-7.53456e-09 1.17252e-06 4.67558e-06)
(-1.35583e-08 4.88066e-07 4.37986e-06)
(-5.76639e-09 2.6139e-07 4.46275e-06)
(4.37818e-09 2.11712e-07 4.59628e-06)
(1.25485e-08 2.24244e-07 4.76804e-06)
(1.95273e-08 2.75215e-07 5.00676e-06)
(2.38848e-08 3.36578e-07 5.31989e-06)
(2.04301e-08 1.90718e-07 5.81403e-06)
(-4.39885e-06 9.32117e-07 -1.02088e-07)
(-4.10923e-06 1.81011e-07 -1.52372e-07)
(-4.19182e-06 -5.25241e-08 -1.5347e-07)
(-4.31827e-06 -7.27635e-08 -1.47644e-07)
(-4.48366e-06 -2.47892e-08 -1.43057e-07)
(-4.7209e-06 6.71122e-08 -1.38627e-07)
(-5.03537e-06 1.85977e-07 -1.33258e-07)
(-5.51999e-06 9.8483e-08 -1.27607e-07)
(-3.69755e-06 6.88148e-07 -1.60492e-07)
(-3.49987e-06 1.28721e-07 -2.38568e-07)
(-3.55035e-06 -5.67728e-08 -2.4429e-07)
(-3.65221e-06 -7.15102e-08 -2.4051e-07)
(-3.80669e-06 -2.33485e-08 -2.37884e-07)
(-4.04941e-06 7.12422e-08 -2.3441e-07)
(-4.40438e-06 1.96544e-07 -2.27277e-07)
(-5.03566e-06 1.04089e-07 -2.16673e-07)
(-3.24343e-06 5.33045e-07 -8.99156e-08)
(-3.13974e-06 9.71981e-08 -1.34665e-07)
(-3.19322e-06 -5.44723e-08 -1.33178e-07)
(-3.28788e-06 -6.63593e-08 -1.25759e-07)
(-3.4374e-06 -1.86905e-08 -1.20388e-07)
(-3.68108e-06 7.77174e-08 -1.15142e-07)
(-4.04999e-06 2.03714e-07 -1.08707e-07)
(-4.72245e-06 1.09444e-07 -1.04486e-07)
(-2.96894e-06 4.63554e-07 -3.893e-08)
(-2.89359e-06 8.54481e-08 -5.76737e-08)
(-2.95213e-06 -4.78707e-08 -5.26589e-08)
(-3.0461e-06 -5.87218e-08 -4.42841e-08)
(-3.19414e-06 -1.27322e-08 -3.79604e-08)
(-3.43714e-06 8.29233e-08 -3.31213e-08)
(-3.80852e-06 2.07201e-07 -2.93884e-08)
(-4.48925e-06 1.13478e-07 -2.82537e-08)
(-2.80879e-06 4.36434e-07 -1.59158e-08)
(-2.74155e-06 8.34616e-08 -2.19365e-08)
(-2.80284e-06 -4.10855e-08 -1.68333e-08)
(-2.89781e-06 -5.16615e-08 -9.98628e-09)
(-3.04598e-06 -7.52782e-09 -4.64243e-09)
(-3.2883e-06 8.62896e-08 -1.0764e-09)
(-3.65826e-06 2.08583e-07 7.85609e-10)
(-4.33604e-06 1.15877e-07 8.79704e-10)
(-2.71453e-06 4.25695e-07 -7.03659e-09)
(-2.65033e-06 8.4525e-08 -8.56035e-09)
(-2.71293e-06 -3.59224e-08 -4.78835e-09)
(-2.80888e-06 -4.65313e-08 -1.85103e-10)
(-2.95745e-06 -3.82235e-09 3.47269e-09)
(-3.19905e-06 8.83516e-08 5.77775e-09)
(-3.56657e-06 2.09159e-07 6.74924e-09)
(-4.23971e-06 1.17076e-07 6.66862e-09)
(-2.66122e-06 4.20832e-07 -3.28968e-09)
(-2.59847e-06 8.57062e-08 -3.67801e-09)
(-2.66168e-06 -3.27115e-08 -1.52184e-09)
(-2.75826e-06 -4.34007e-08 1.01936e-09)
(-2.90709e-06 -1.56496e-09 3.05697e-09)
(-3.14807e-06 8.95664e-08 4.32804e-09)
(-3.51351e-06 2.09475e-07 4.84758e-09)
(-4.1831e-06 1.17607e-07 4.81103e-09)