/*--------------------------------*- C++ -*----------------------------------*\
| =========                 |                                                 |
| \\      /  F ield         | OpenFOAM: The Open Source CFD Toolbox           |
|  \\    /   O peration     | Version:  v1912                                 |
|   \\  /    A nd           | Website:  www.openfoam.com                      |
|    \\/     M anipulation  |                                                 |
\*---------------------------------------------------------------------------*/
FoamFile
{
    version     2.0;
    format      ascii;
    class       volVectorField;
    location    "0.45/solid";
    object      D_0;
}
// * * * * * * * * * * * * * * * * * * * * * * * * * * * * * * * * * * * * * //

dimensions      [0 1 0 0 0 0 0];


internalField   nonuniform List<vector> 
256
(
(1.90642e-08 3.07588e-08 2.02256e-08)
(1.6794e-09 1.78608e-08 1.83487e-08)
(-1.1456e-09 1.76685e-08 1.84339e-08)
(-1.8203e-08 2.98828e-08 2.05678e-08)
(2.99388e-08 2.41318e-08 3.58479e-08)
(5.35259e-09 1.69508e-08 3.3465e-08)
(-3.27595e-09 1.64917e-08 3.37589e-08)
(-2.74421e-08 2.25278e-08 3.6837e-08)
(3.12908e-08 1.51922e-08 4.27449e-08)
(6.54495e-09 1.24228e-08 4.02623e-08)
(-2.60561e-09 1.17229e-08 4.07196e-08)
(-2.69495e-08 1.29371e-08 4.4214e-08)
(3.12468e-08 8.40825e-09 4.75197e-08)
(6.99325e-09 6.8758e-09 4.49129e-08)
(-9.15773e-10 5.96052e-09 4.54878e-08)
(-2.47779e-08 5.55003e-09 4.93365e-08)
(3.21821e-08 2.73413e-09 5.21813e-08)
(7.83998e-09 8.00875e-10 4.94707e-08)
(6.4748e-10 -3.16244e-10 5.01346e-08)
(-2.33023e-08 -6.92498e-10 5.42645e-08)
(3.4979e-08 -2.90838e-09 5.76658e-08)
(9.52689e-09 -5.72618e-09 5.4878e-08)
(1.64174e-09 -7.04348e-09 5.56157e-08)
(-2.34251e-08 -6.89224e-09 5.99698e-08)
(4.07688e-08 -1.20744e-08 6.48536e-08)
(1.23371e-08 -1.46354e-08 6.21122e-08)
(1.77345e-09 -1.61487e-08 6.29157e-08)
(-2.63218e-08 -1.66145e-08 6.73511e-08)
(4.9642e-08 -4.63376e-08 7.3452e-08)
(1.54527e-08 -4.46759e-08 7.10898e-08)
(1.78125e-09 -4.62303e-08 7.19424e-08)
(-3.21516e-08 -5.11025e-08 7.60884e-08)
(1.4149e-08 1.50029e-08 2.21204e-09)
(7.83522e-10 4.26863e-09 2.96552e-09)
(-4.73757e-10 4.08852e-09 3.1088e-09)
(-1.34538e-08 1.42031e-08 2.63207e-09)
(2.24259e-08 1.25379e-08 1.13352e-08)
(3.54845e-09 6.3945e-09 1.27882e-08)
(-2.04458e-09 5.90318e-09 1.31289e-08)
(-2.0441e-08 1.09134e-08 1.23264e-08)
(2.3268e-08 7.79167e-09 1.82144e-08)
(4.47348e-09 5.30633e-09 1.99363e-08)
(-1.38794e-09 4.56996e-09 2.04212e-08)
(-1.97236e-08 5.49886e-09 1.96272e-08)
(2.30478e-08 2.98821e-09 2.30455e-08)
(4.82998e-09 1.53212e-09 2.48576e-08)
(1.67725e-10 5.89138e-10 2.54506e-08)
(-1.75972e-08 1.03552e-10 2.47797e-08)
(2.38439e-08 -1.85034e-09 2.72477e-08)
(5.60212e-09 -3.74999e-09 2.90887e-08)
(1.62342e-09 -4.88624e-09 2.97667e-08)
(-1.61555e-08 -5.29112e-09 2.92362e-08)
(2.65608e-08 -6.88551e-09 3.16774e-08)
(7.22743e-09 -9.6946e-09 3.35245e-08)
(2.53026e-09 -1.10233e-08 3.42723e-08)
(-1.63367e-08 -1.08712e-08 3.38747e-08)
(3.24025e-08 -1.42547e-08 3.63196e-08)
(1.00025e-08 -1.67964e-08 3.81803e-08)
(2.57607e-09 -1.83082e-08 3.89814e-08)
(-1.93997e-08 -1.87706e-08 3.86786e-08)
(4.15365e-08 -4.27308e-08 3.91766e-08)
(1.30947e-08 -4.07178e-08 4.10724e-08)
(2.51845e-09 -4.22432e-08 4.18932e-08)
(-2.55893e-08 -4.74087e-08 4.16028e-08)
(1.10009e-08 1.04641e-08 1.00229e-09)
(1.83797e-11 1.17044e-09 1.93612e-09)
(1.42265e-10 1.0105e-09 2.04179e-09)
(-1.04581e-08 9.77483e-09 1.30342e-09)
(1.75576e-08 6.54422e-09 6.79965e-09)
(1.95619e-09 1.24898e-09 8.57165e-09)
(-8.80387e-10 7.85676e-10 8.83169e-09)
(-1.59921e-08 5.05958e-09 7.54131e-09)
(1.81467e-08 2.33413e-09 1.28128e-08)
(2.64302e-09 1.26112e-10 1.48779e-08)
(-2.28774e-10 -5.82612e-10 1.52528e-08)
(-1.52587e-08 1.71901e-10 1.38907e-08)
(1.78804e-08 -1.45397e-09 1.77399e-08)
(2.92499e-09 -2.84276e-09 1.99072e-08)
(1.19612e-09 -3.75883e-09 2.03725e-08)
(-1.32866e-08 -4.22013e-09 1.90888e-08)
(1.86208e-08 -5.23789e-09 2.18896e-08)
(3.63395e-09 -7.12368e-09 2.41e-08)
(2.54502e-09 -8.23261e-09 2.46397e-08)
(-1.19536e-08 -8.5688e-09 2.34627e-08)
(2.13355e-08 -9.02146e-09 2.566e-08)
(5.20999e-09 -1.18332e-08 2.78867e-08)
(3.36243e-09 -1.31322e-08 2.84872e-08)
(-1.2265e-08 -1.28996e-08 2.74172e-08)
(2.7271e-08 -1.46335e-08 2.87657e-08)
(7.96297e-09 -1.71806e-08 3.09951e-08)
(3.31801e-09 -1.86573e-08 3.16374e-08)
(-1.55291e-08 -1.90349e-08 3.06547e-08)
(3.64818e-08 -4.0499e-08 2.99702e-08)
(1.10374e-08 -3.84758e-08 3.22146e-08)
(3.18444e-09 -3.99585e-08 3.28642e-08)
(-2.18865e-08 -4.50477e-08 3.18955e-08)
(9.53995e-09 9.14681e-09 1.1555e-09)
(-2.98481e-10 6.50642e-10 1.7281e-09)
(3.74897e-10 5.06748e-10 1.80298e-09)
(-9.11444e-09 8.54327e-09 1.36952e-09)
(1.52382e-08 4.08725e-09 5.31641e-09)
(1.21199e-09 -7.15474e-10 6.43257e-09)
(-4.1784e-10 -1.13936e-09 6.62196e-09)
(-1.39888e-08 2.75341e-09 5.85654e-09)
(1.57617e-08 -6.99679e-10 1.00558e-08)
(1.76569e-09 -2.73007e-09 1.13684e-08)
(1.7292e-10 -3.39153e-09 1.16454e-08)
(-1.3375e-08 -2.69601e-09 1.08527e-08)
(1.55452e-08 -4.35712e-09 1.43996e-08)
(2.00865e-09 -5.69899e-09 1.57764e-08)
(1.46295e-09 -6.56769e-09 1.61249e-08)
(-1.16212e-08 -6.96304e-09 1.54119e-08)
(1.62998e-08 -7.51921e-09 1.81071e-08)
(2.68017e-09 -9.39396e-09 1.95099e-08)
(2.70046e-09 -1.04573e-08 1.99192e-08)
(-1.04476e-08 -1.07009e-08 1.93043e-08)
(1.90281e-08 -1.04179e-08 2.11783e-08)
(4.2193e-09 -1.32292e-08 2.25927e-08)
(3.43091e-09 -1.4484e-08 2.30518e-08)
(-1.08932e-08 -1.41568e-08 2.25284e-08)
(2.49937e-08 -1.51424e-08 2.34056e-08)
(6.94115e-09 -1.77109e-08 2.48257e-08)
(3.31481e-09 -1.91445e-08 2.53174e-08)
(-1.42857e-08 -1.94127e-08 2.4862e-08)
(3.4182e-08 -3.98984e-08 2.43423e-08)
(9.9872e-09 -3.79839e-08 2.57906e-08)
(3.12063e-09 -3.94268e-08 2.62855e-08)
(-2.0704e-08 -4.43267e-08 2.58232e-08)
(8.91533e-09 8.57574e-09 1.11395e-09)
(-3.84452e-10 4.95948e-10 1.40155e-09)
(4.12337e-10 3.64647e-10 1.4541e-09)
(-8.56896e-09 8.03542e-09 1.26384e-09)
(1.42454e-08 3.07162e-09 4.20843e-09)
(9.55083e-10 -1.47488e-09 4.78243e-09)
(-3.41786e-10 -1.86451e-09 4.91687e-09)
(-1.32142e-08 1.86029e-09 4.59083e-09)
(1.4773e-08 -2.1722e-09 7.71885e-09)
(1.4471e-09 -4.10818e-09 8.40145e-09)
(1.67307e-10 -4.72532e-09 8.59989e-09)
(-1.27415e-08 -4.0226e-09 8.28877e-09)
(1.46206e-08 -5.9939e-09 1.11135e-08)
(1.66876e-09 -7.30858e-09 1.18304e-08)
(1.34173e-09 -8.13082e-09 1.20825e-08)
(-1.11839e-08 -8.4514e-09 1.18453e-08)
(1.54059e-08 -8.96867e-09 1.40748e-08)
(2.31487e-09 -1.08315e-08 1.48062e-08)
(2.48246e-09 -1.18498e-08 1.51048e-08)
(-1.01604e-08 -1.20094e-08 1.49492e-08)
(1.81363e-08 -1.15052e-08 1.64556e-08)
(3.82081e-09 -1.43064e-08 1.71978e-08)
(3.14129e-09 -1.55188e-08 1.75348e-08)
(-1.07105e-08 -1.51143e-08 1.74494e-08)
(2.40823e-08 -1.59227e-08 1.81405e-08)
(6.50465e-09 -1.84983e-08 1.8895e-08)
(2.97432e-09 -1.98932e-08 1.92569e-08)
(-1.41689e-08 -2.00764e-08 1.92172e-08)
(3.32143e-08 -4.01085e-08 1.90239e-08)
(9.51788e-09 -3.82805e-08 1.98056e-08)
(2.73617e-09 -3.969e-08 2.01692e-08)
(-2.06038e-08 -4.4436e-08 2.0119e-08)
(8.63059e-09 8.25892e-09 8.85777e-10)
(-3.99873e-10 3.9784e-10 1.02064e-09)
(3.99355e-10 2.75745e-10 1.05562e-09)
(-8.33391e-09 7.76234e-09 9.84881e-10)
(1.38084e-08 2.59986e-09 3.0687e-09)
(8.73686e-10 -1.81649e-09 3.3426e-09)
(-3.73972e-10 -2.1807e-09 3.43249e-09)
(-1.29177e-08 1.47694e-09 3.32289e-09)
(1.4354e-08 -2.86181e-09 5.48146e-09)
(1.33632e-09 -4.75028e-09 5.8108e-09)
(6.57708e-11 -5.33336e-09 5.94422e-09)
(-1.2558e-08 -4.60238e-09 5.86286e-09)
(1.42459e-08 -6.85101e-09 7.85553e-09)
(1.54251e-09 -8.15004e-09 8.20334e-09)
(1.15623e-09 -8.93546e-09 8.37388e-09)
(-1.11406e-08 -9.19287e-09 8.34912e-09)
(1.50514e-08 -9.85638e-09 9.96237e-09)
(2.16762e-09 -1.17073e-08 1.03197e-08)
(2.22554e-09 -1.26893e-08 1.05229e-08)
(-1.02276e-08 -1.27852e-08 1.05565e-08)
(1.7773e-08 -1.23422e-08 1.16617e-08)
(3.64427e-09 -1.51279e-08 1.20298e-08)
(2.83199e-09 -1.63065e-08 1.22603e-08)
(-1.08487e-08 -1.58482e-08 1.23411e-08)
(2.36853e-08 -1.67111e-08 1.28899e-08)
(6.29348e-09 -1.92772e-08 1.3272e-08)
(2.62922e-09 -2.06419e-08 1.35201e-08)
(-1.43416e-08 -2.07735e-08 1.36289e-08)
(3.27636e-08 -4.05811e-08 1.36371e-08)
(9.27728e-09 -3.87888e-08 1.40388e-08)
(2.36004e-09 -4.01725e-08 1.4288e-08)
(-2.07811e-08 -4.48308e-08 1.43895e-08)
(8.48778e-09 8.08416e-09 5.59937e-10)
(-4.02145e-10 3.37618e-10 6.19641e-10)
(3.85884e-10 2.21473e-10 6.39691e-10)
(-8.21986e-09 7.6148e-09 6.16396e-10)
(1.35955e-08 2.36638e-09 1.8653e-09)
(8.41602e-10 -1.98432e-09 1.98797e-09)
(-4.08148e-10 -2.33207e-09 2.03961e-09)
(-1.27877e-08 1.29988e-09 2.01051e-09)
(1.41536e-08 -3.1844e-09 3.2776e-09)
(1.28822e-09 -5.04887e-09 3.4266e-09)
(-1.36411e-11 -5.6095e-09 3.50349e-09)
(-1.24996e-08 -4.8532e-09 3.4964e-09)
(1.40684e-08 -7.28092e-09 4.67061e-09)
(1.48254e-09 -8.57037e-09 4.82936e-09)
(1.02455e-09 -9.33109e-09 4.92802e-09)
(-1.11671e-08 -9.5456e-09 4.9552e-09)
(1.48818e-08 -1.03679e-08 5.91964e-09)
(2.09132e-09 -1.22088e-08 6.08471e-09)
(2.04866e-09 -1.31663e-08 6.20273e-09)
(-1.0322e-08 -1.32209e-08 6.26392e-09)
(1.7592e-08 -1.29083e-08 6.93923e-09)
(3.54618e-09 -1.56796e-08 7.11245e-09)
(2.62122e-09 -1.68352e-08 7.24671e-09)
(-1.09861e-08 -1.63441e-08 7.33462e-09)
(2.3477e-08 -1.73093e-08 7.69588e-09)
(6.17069e-09 -1.98607e-08 7.87958e-09)
(2.39457e-09 -2.1205e-08 8.02442e-09)
(-1.44988e-08 -2.13097e-08 8.12727e-09)
(3.25177e-08 -4.1015e-08 8.19416e-09)
(9.1332e-09 -3.92271e-08 8.38889e-09)
(2.10511e-09 -4.05933e-08 8.53434e-09)
(-2.09411e-08 -4.5212e-08 8.63371e-09)
(8.42432e-09 8.00637e-09 1.90701e-10)
(-4.03101e-10 3.1014e-10 2.07838e-10)
(3.7985e-10 1.96899e-10 2.14371e-10)
(-8.16958e-09 7.55001e-09 2.09034e-10)
(1.35011e-08 2.26704e-09 6.2538e-10)
(8.27272e-10 -2.05542e-09 6.60814e-10)
(-4.24264e-10 -2.39511e-09 6.77652e-10)
(-1.27317e-08 1.22789e-09 6.7259e-10)
(1.40641e-08 -3.3158e-09 1.09056e-09)
(1.26603e-09 -5.16975e-09 1.13387e-09)
(-5.11204e-11 -5.71932e-09 1.15899e-09)
(-1.24767e-08 -4.94938e-09 1.16184e-09)
(1.39877e-08 -7.46248e-09 1.54895e-09)
(1.45368e-09 -8.74705e-09 1.59542e-09)
(9.62441e-10 -9.49549e-09 1.6277e-09)
(-1.11833e-08 -9.68885e-09 1.64189e-09)
(1.48028e-08 -1.06034e-08 1.96188e-09)
(2.05343e-09 -1.24385e-08 2.01065e-09)
(1.96494e-09 -1.33838e-08 2.04934e-09)
(-1.03698e-08 -1.34184e-08 2.07461e-09)
(1.75057e-08 -1.31919e-08 2.30174e-09)
(3.49679e-09 -1.59547e-08 2.35353e-09)
(2.52088e-09 -1.70988e-08 2.39763e-09)
(-1.10541e-08 -1.65924e-08 2.43149e-09)
(2.33764e-08 -1.76243e-08 2.55791e-09)
(6.10875e-09 -2.01659e-08 2.61351e-09)
(2.28204e-09 -2.14998e-08 2.66113e-09)
(-1.45765e-08 -2.15934e-08 2.6997e-09)
(3.23984e-08 -4.12613e-08 2.73235e-09)
(9.06029e-09 -3.94697e-08 2.79144e-09)
(1.98242e-09 -4.08271e-08 2.83926e-09)
(-2.10208e-08 -4.54318e-08 2.87688e-09)
)
;

boundaryField
{
    interface
    {
        type            solidTraction;
        traction        uniform (0 0 0);
        pressure        uniform 0;
        secondOrder     false;
        setEffectiveTraction false;
        relaxationFactor 1;
        value           nonuniform List<vector> 
192
(
(7.65504e-08 4.30095e-08 1.88988e-08)
(8.38759e-08 2.71884e-08 3.37388e-08)
(8.63108e-08 1.55192e-08 4.04823e-08)
(8.78899e-08 8.63116e-09 4.52191e-08)
(9.09295e-08 3.66733e-09 4.98516e-08)
(9.67184e-08 -7.61454e-10 5.53223e-08)
(1.06412e-07 -8.40832e-09 6.25198e-08)
(1.21128e-07 -4.36549e-08 7.11419e-08)
(6.30594e-08 2.41466e-08 1.95962e-10)
(6.88782e-08 1.48176e-08 8.23948e-09)
(7.04068e-08 7.94718e-09 1.49279e-08)
(7.15222e-08 3.13229e-09 1.97035e-08)
(7.43158e-08 -9.71913e-10 2.3857e-08)
(8.01341e-08 -4.74557e-09 2.82661e-08)
(9.04264e-08 -1.05104e-08 3.29448e-08)
(1.07198e-07 -4.00196e-08 3.58863e-08)
(5.41717e-08 1.76037e-08 -1.50182e-10)
(5.94523e-08 8.33067e-09 5.00238e-09)
(6.07699e-08 2.41487e-09 1.09358e-08)
(6.17554e-08 -1.33533e-09 1.58639e-08)
(6.44422e-08 -4.37394e-09 2.00033e-08)
(7.02873e-08 -6.8586e-09 2.37765e-08)
(8.08722e-08 -1.08465e-08 2.69132e-08)
(9.82734e-08 -3.77638e-08 2.81313e-08)
(4.91949e-08 1.53413e-08 6.33973e-10)
(5.39735e-08 5.64268e-09 4.48815e-09)
(5.52923e-08 -6.22852e-10 9.21211e-09)
(5.63233e-08 -4.22244e-09 1.35844e-08)
(5.90117e-08 -6.64829e-09 1.73031e-08)
(6.48717e-08 -8.24409e-09 2.03783e-08)
(7.55347e-08 -1.13535e-08 2.26082e-08)
(9.30553e-08 -3.71527e-08 2.35253e-08)
(4.65063e-08 1.43659e-08 8.86521e-10)
(5.10204e-08 4.53605e-09 3.85082e-09)
(5.23802e-08 -2.07833e-09 7.36675e-09)
(5.34908e-08 -5.83552e-09 1.07884e-08)
(5.62153e-08 -8.08954e-09 1.37626e-08)
(6.20751e-08 -9.33575e-09 1.61417e-08)
(7.27119e-08 -1.21527e-08 1.78133e-08)
(9.01664e-08 -3.7367e-08 1.86692e-08)
(4.50031e-08 1.38686e-08 7.78831e-10)
(4.94049e-08 4.03072e-09 2.90612e-09)
(5.08007e-08 -2.75237e-09 5.3265e-09)
(5.19699e-08 -6.6765e-09 7.71736e-09)
(5.47224e-08 -8.97437e-09 9.83124e-09)
(6.05684e-08 -1.01834e-08 1.15255e-08)
(7.11486e-08 -1.29629e-08 1.27385e-08)
(8.85088e-08 -3.78515e-08 1.34629e-08)
(4.41701e-08 1.3605e-08 5.08334e-10)
(4.85209e-08 3.78286e-09 1.78841e-09)
(4.99378e-08 -3.06611e-09 3.20506e-09)
(5.1139e-08 -7.0987e-09 4.60599e-09)
(5.39044e-08 -9.48677e-09 5.85742e-09)
(5.97337e-08 -1.07591e-08 6.87236e-09)
(7.0265e-08 -1.35774e-08 7.6186e-09)
(8.75537e-08 -3.82972e-08 8.10281e-09)
(4.37924e-08 1.34877e-08 1.74826e-10)
(4.81206e-08 3.677e-09 6.01753e-10)
(4.9546e-08 -3.19408e-09 1.06816e-09)
(5.07601e-08 -7.27764e-09 1.52875e-09)
(5.35294e-08 -9.72362e-09 1.9421e-09)
(5.93481e-08 -1.10481e-08 2.28015e-09)
(6.9853e-08 -1.39007e-08 2.53274e-09)
(8.71053e-08 -3.85503e-08 2.70252e-09)
(1.92591e-08 4.47773e-08 8.0401e-08)
(3.03988e-08 2.97618e-08 9.2327e-08)
(3.18028e-08 1.81103e-08 1.00323e-07)
(3.17468e-08 1.07674e-08 1.068e-07)
(3.26707e-08 5.27071e-09 1.13633e-07)
(3.54552e-08 2.59765e-10 1.22138e-07)
(4.12517e-08 -8.12775e-09 1.33285e-07)
(5.0208e-08 -4.40725e-08 1.47892e-07)
(1.23196e-09 3.08143e-08 7.30906e-08)
(4.83123e-09 2.24294e-08 8.49674e-08)
(6.03963e-09 1.52849e-08 9.22621e-08)
(6.48627e-09 9.17793e-09 9.82735e-08)
(7.32932e-09 3.29215e-09 1.04874e-07)
(9.01539e-09 -2.56579e-09 1.13358e-07)
(1.18537e-08 -1.05824e-08 1.25003e-07)
(1.50765e-08 -4.23431e-08 1.41743e-07)
(-5.90315e-10 3.07168e-08 7.25697e-08)
(-2.43204e-09 2.20632e-08 8.46393e-08)
(-1.61663e-09 1.46552e-08 9.20731e-08)
(1.91184e-10 8.31427e-09 9.81887e-08)
(1.84698e-09 2.21572e-09 1.04871e-07)
(2.91577e-09 -3.84825e-09 1.1342e-07)
(3.08426e-09 -1.20671e-08 1.25125e-07)
(3.03209e-09 -4.38859e-08 1.41955e-07)
(-1.82823e-08 4.4234e-08 7.90729e-08)
(-2.75812e-08 2.84395e-08 9.16636e-08)
(-2.69871e-08 1.6062e-08 1.00077e-07)
(-2.46899e-08 8.06263e-09 1.06863e-07)
(-2.31149e-08 1.96579e-09 1.13938e-07)
(-2.31532e-08 -3.62064e-09 1.22641e-07)
(-2.5995e-08 -1.2585e-08 1.33963e-07)
(-3.18611e-08 -4.88058e-08 1.48823e-07)
(-7.32295e-08 4.12942e-08 1.93411e-08)
(-7.88635e-08 2.47146e-08 3.50175e-08)
(-7.94036e-08 1.22711e-08 4.23892e-08)
(-7.88101e-08 4.63818e-09 4.75858e-08)
(-7.94038e-08 -1.0308e-09 5.25719e-08)
(-8.25048e-08 -6.13753e-09 5.83342e-08)
(-8.93559e-08 -1.4433e-08 6.57844e-08)
(-1.01187e-07 -4.99729e-08 7.45936e-08)
(-5.97782e-08 2.26768e-08 6.95851e-10)
(-6.43037e-08 1.24809e-08 9.46393e-09)
(-6.42217e-08 4.7879e-09 1.67045e-08)
(-6.3372e-08 -7.8853e-10 2.19069e-08)
(-6.38683e-08 -5.60634e-09 2.63991e-08)
(-6.70999e-08 -1.00603e-08 3.10848e-08)
(-7.46237e-08 -1.64576e-08 3.59805e-08)
(-8.86268e-08 -4.62078e-08 3.90368e-08)
(-5.11124e-08 1.63874e-08 2.18612e-10)
(-5.53461e-08 6.25973e-09 5.92837e-09)
(-5.52837e-08 -5.04508e-10 1.23037e-08)
(-5.44979e-08 -5.04647e-09 1.75949e-08)
(-5.50395e-08 -8.82428e-09 2.20359e-08)
(-5.84088e-08 -1.20059e-08 2.60565e-08)
(-6.62997e-08 -1.66296e-08 2.93764e-08)
(-8.09852e-08 -4.37782e-08 3.06743e-08)
(-4.63392e-08 1.43191e-08 8.97237e-10)
(-5.02615e-08 3.81854e-09 5.16211e-09)
(-5.03803e-08 -3.28795e-09 1.02235e-08)
(-4.98033e-08 -7.69494e-09 1.48863e-08)
(-5.04841e-08 -1.0883e-08 1.8856e-08)
(-5.39761e-08 -1.31974e-08 2.21399e-08)
(-6.20214e-08 -1.696e-08 2.4522e-08)
(-7.68742e-08 -4.30054e-08 2.55026e-08)
(-4.37934e-08 1.34812e-08 1.06874e-09)
(-4.75863e-08 2.90342e-09 4.32311e-09)
(-4.78797e-08 -4.53021e-09 8.08462e-09)
(-4.75104e-08 -9.09675e-09 1.17253e-08)
(-4.83416e-08 -1.21278e-08 1.48943e-08)
(-5.1928e-08 -1.41122e-08 1.74384e-08)
(-6.0019e-08 -1.76031e-08 1.92312e-08)
(-7.48548e-08 -4.30834e-08 2.01384e-08)
(-4.23804e-08 1.30752e-08 8.97622e-10)
(-4.61496e-08 2.53295e-09 3.21633e-09)
(-4.65718e-08 -5.04669e-09 5.80245e-09)
(-4.63543e-08 -9.77555e-09 8.34499e-09)
(-4.73001e-08 -1.28582e-08 1.0597e-08)
(-5.09474e-08 -1.48198e-08 1.24101e-08)
(-5.90412e-08 -1.82904e-08 1.37114e-08)
(-7.38261e-08 -4.34622e-08 1.44739e-08)
(-4.15997e-08 1.28667e-08 5.75325e-10)
(-4.5371e-08 2.36982e-09 1.96405e-09)
(-4.58722e-08 -5.2584e-09 3.47612e-09)
(-4.57469e-08 -1.00901e-08 4.96591e-09)
(-4.67635e-08 -1.32662e-08 6.29951e-09)
(-5.04453e-08 -1.53e-08 7.38602e-09)
(-5.85325e-08 -1.88209e-08 8.18604e-09)
(-7.32775e-08 -4.38358e-08 8.69368e-09)
(-4.12461e-08 1.27753e-08 1.96467e-10)
(-4.50196e-08 2.30467e-09 6.58589e-10)
(-4.55568e-08 -5.33652e-09 1.15612e-09)
(-4.54741e-08 -1.02157e-08 1.64595e-09)
(-4.65233e-08 -1.34508e-08 2.08656e-09)
(-5.02206e-08 -1.55408e-08 2.4485e-09)
(-5.8303e-08 -1.91017e-08 2.71913e-09)
(-7.30281e-08 -4.40526e-08 2.89682e-09)
(5.05695e-08 -1.20801e-07 7.36827e-08)
(4.23902e-08 -1.11192e-07 3.77169e-08)
(3.7345e-08 -1.05025e-07 2.92621e-08)
(3.50776e-08 -1.01487e-07 2.42446e-08)
(3.41295e-08 -9.97479e-08 1.91945e-08)
(3.36818e-08 -9.89836e-08 1.38637e-08)
(3.34311e-08 -9.86876e-08 8.36421e-09)
(3.33075e-08 -9.85948e-08 2.79393e-09)
(1.54271e-08 -1.15351e-07 7.12667e-08)
(1.29739e-08 -1.03644e-07 3.95223e-08)
(1.09033e-08 -9.70262e-08 3.15311e-08)
(9.8703e-09 -9.35372e-08 2.57418e-08)
(9.41427e-09 -9.19379e-08 2.00068e-08)
(9.17613e-09 -9.12607e-08 1.42755e-08)
(9.0288e-09 -9.09995e-08 8.55914e-09)
(8.95275e-09 -9.0916e-08 2.8521e-09)
(3.3891e-09 -1.16262e-07 7.21178e-08)
(4.19225e-09 -1.04484e-07 4.03254e-08)
(4.82849e-09 -9.78261e-08 3.21602e-08)
(4.70741e-09 -9.43023e-08 2.62184e-08)
(4.2761e-09 -9.26722e-08 2.03557e-08)
(3.87162e-09 -9.19707e-08 1.45139e-08)
(3.60242e-09 -9.16928e-08 8.69802e-09)
(3.47402e-09 -9.1601e-08 2.89772e-09)
(-3.14969e-08 -1.23847e-07 7.63134e-08)
(-2.48971e-08 -1.14035e-07 4.00893e-08)
(-2.12477e-08 -1.07752e-07 3.11251e-08)
(-2.01384e-08 -1.04107e-07 2.56703e-08)
(-2.00924e-08 -1.02276e-07 2.02451e-08)
(-2.02995e-08 -1.0144e-07 1.45836e-08)
(-2.04733e-08 -1.01096e-07 8.78398e-09)
(-2.05579e-08 -1.00978e-07 2.93184e-09)
)
;
        gradient        uniform (0 0 0);
    }
    symmetry
    {
        type            solidSymmetry;
        patchType       symmetry;
        secondOrder     false;
        value           nonuniform List<vector> 
32
(
(8.42432e-09 8.00637e-09 0)
(1.35011e-08 2.26704e-09 0)
(1.40641e-08 -3.3158e-09 0)
(1.39877e-08 -7.46248e-09 0)
(1.48028e-08 -1.06034e-08 0)
(1.75057e-08 -1.31919e-08 0)
(2.33764e-08 -1.76243e-08 0)
(3.23984e-08 -4.12613e-08 0)
(-4.03101e-10 3.1014e-10 0)
(8.27272e-10 -2.05542e-09 0)
(1.26603e-09 -5.16975e-09 0)
(1.45368e-09 -8.74705e-09 0)
(2.05343e-09 -1.24385e-08 0)
(3.49679e-09 -1.59547e-08 0)
(6.10875e-09 -2.01659e-08 0)
(9.06029e-09 -3.94697e-08 0)
(3.7985e-10 1.96899e-10 0)
(-4.24264e-10 -2.39511e-09 0)
(-5.11204e-11 -5.71932e-09 0)
(9.62441e-10 -9.49549e-09 0)
(1.96494e-09 -1.33838e-08 0)
(2.52088e-09 -1.70988e-08 0)
(2.28204e-09 -2.14998e-08 0)
(1.98242e-09 -4.08271e-08 0)
(-8.16958e-09 7.55001e-09 0)
(-1.27317e-08 1.22789e-09 0)
(-1.24767e-08 -4.94938e-09 0)
(-1.11833e-08 -9.68885e-09 0)
(-1.03698e-08 -1.34184e-08 0)
(-1.10541e-08 -1.65924e-08 0)
(-1.45765e-08 -2.15934e-08 0)
(-2.10208e-08 -4.54318e-08 0)
)
;
    }
    bottom
    {
        type            fixedDisplacement;
        value           uniform (0 0 0);
    }
}


// ************************************************************************* //
