/*--------------------------------*- C++ -*----------------------------------*\
| =========                 |                                                 |
| \\      /  F ield         | OpenFOAM: The Open Source CFD Toolbox           |
|  \\    /   O peration     | Version:  v1912                                 |
|   \\  /    A nd           | Website:  www.openfoam.com                      |
|    \\/     M anipulation  |                                                 |
\*---------------------------------------------------------------------------*/
FoamFile
{
    version     2.0;
    format      ascii;
    class       volVectorField;
    location    "0.45/solid";
    object      heatFlux;
}
// * * * * * * * * * * * * * * * * * * * * * * * * * * * * * * * * * * * * * //

dimensions      [1 0 -3 0 0 0 0];


internalField   nonuniform List<vector> 
256
(
(-73268.5 58518.1 -78044.5)
(-12328.1 31893.6 -74528)
(11806.3 31701.5 -73619.9)
(69281.1 57593.4 -75221.3)
(-72037.5 5805.78 -76980.9)
(-14488.4 3364.45 -75220.6)
(13893.5 3343.21 -74254.6)
(67835.9 5726.95 -74006)
(-73332.8 1228.98 -78339.8)
(-14790.7 664.379 -76637.5)
(14168.8 656.028 -75628.7)
(69033.8 1191.6 -75247.6)
(-75311.8 1440.84 -80344)
(-15061.4 762.393 -78624.7)
(14420.7 757.598 -77591.1)
(70926.7 1414.57 -77180.9)
(-78276 2484.78 -83325.2)
(-15474 1412.46 -81672.8)
(14821 1409.63 -80624.4)
(73825 2470.6 -80118.5)
(-82869.1 5885.89 -87965.2)
(-16136.5 4197.82 -86661.1)
(15478.9 4189.76 -85600.4)
(78387.2 5874.99 -84723.6)
(-89342 24361.9 -94652)
(-17170.1 22488.3 -94472)
(16498.2 22375.1 -93394.4)
(84890.9 24073.4 -91363.2)
(-89251.1 95366.2 -95326)
(-18123.3 97662.7 -97631.9)
(17064 96603.1 -96579.2)
(84752.7 92154.3 -92139.3)
(-67035.4 29021.5 -15900.7)
(-10620.9 5713.51 -13221.8)
(10429.8 5711.6 -13129.5)
(63146.1 28637.2 -15637.4)
(-67702.5 3109.25 -18777)
(-12689 755.987 -15869.4)
(12493.9 757.201 -15757.5)
(63672.2 3094.04 -18457.5)
(-69071.3 650.549 -19141)
(-12973 117.545 -16204.4)
(12767.8 115.915 -16087.5)
(64944.8 629.692 -18808.4)
(-71036.3 769.035 -19435.3)
(-13223.6 118.072 -16472.3)
(13006.1 116.141 -16353.2)
(66812.1 746.438 -19098.8)
(-74073.1 1418.08 -19880.2)
(-13625.9 320.753 -16900.5)
(13396.2 318.713 -16780.7)
(69755.1 1398.31 -19545.9)
(-79030.8 4136.77 -20604)
(-14323 2224.41 -17658.8)
(14083.6 2215.63 -17539.3)
(74633.9 4112.51 -20278.2)
(-86670.8 21874.9 -21865.8)
(-15547 19143.4 -19139.9)
(15284.3 19023.9 -19021.7)
(82248.1 21555.8 -21555)
(-89376.2 94718.8 -24350.3)
(-17173.9 94523.2 -22483.1)
(16496 93433.1 -22371.7)
(84889.7 91387.6 -24072)
(-59346.1 23840.3 -3067.47)
(-9556.87 2802.3 -1420.08)
(9390.72 2814.52 -1412.91)
(55541.7 23498.5 -3039.74)
(-60182.4 2565.57 -3686.5)
(-11468.9 381.917 -1794.26)
(11305.5 385.186 -1785.11)
(56245.4 2555.96 -3652.1)
(-61482.1 570.731 -3748.77)
(-11737.3 61.5567 -1833.74)
(11564.8 60.3591 -1824.23)
(57448.7 550.257 -3713.52)
(-63371.7 701.604 -3780.64)
(-11979.3 66.2446 -1854.83)
(11794.2 64.3544 -1845.22)
(59234.6 677.084 -3745.97)
(-66342.6 1316.09 -3822.94)
(-12374.5 225.924 -1888.57)
(12175.6 223.592 -1879.06)
(62095.2 1291.22 -3790.57)
(-71278.4 3900.25 -3893.1)
(-13071.8 1958.41 -1957.83)
(12859.5 1948.8 -1948.66)
(66919 3865.87 -3865.94)
(-79073.6 20615.5 -4129.25)
(-14326 17664.1 -2223.67)
(14083.1 17542.7 -2215.38)
(74634.6 20279.6 -4112.52)
(-82948.1 88071.6 -5871.67)
(-16144.6 86743.4 -4192.15)
(15475 85661.5 -4186.06)
(78386.5 84762.4 -5873.01)
(-54624 22267.5 -1089.32)
(-8966.36 2499.17 -166.381)
(8810.14 2513.58 -164.801)
(50907.3 21945.4 -1073.11)
(-55432.6 2427.95 -1273.34)
(-10787.6 342.33 -210.167)
(10636.1 345.889 -208.156)
(51589.3 2420.26 -1253.82)
(-56692.6 556.409 -1288)
(-11048.4 56.9807 -214.098)
(10888.1 55.8024 -212.046)
(52753.7 535.816 -1268.21)
(-58550.1 694.861 -1291.69)
(-11288.2 63.2386 -215.275)
(11114.9 61.3055 -213.233)
(54504.2 669.385 -1272.24)
(-61492.8 1305.62 -1294.92)
(-11682 217.75 -217.142)
(11494.2 215.283 -215.15)
(57327.2 1278.34 -1276.52)
(-66400.6 3830.46 -1305.15)
(-12378.5 1889.31 -225.287)
(12175.5 1879.31 -223.441)
(62103.3 3790.57 -1289.29)
(-74176.5 19896.3 -1405.92)
(-13633.1 16909 -319.589)
(13395.5 16786.5 -318.186)
(69764.3 19548.7 -1396.02)
(-78419.6 83491.5 -2460.93)
(-15488.3 81803.3 -1402.28)
(14815.2 80722.8 -1402.28)
(73832.1 80182.8 -2463.9)
(-51830.8 21477.7 -575.975)
(-8632.35 2425.75 -49.2139)
(8483.99 2441.57 -48.1711)
(48176.4 21171.6 -563.911)
(-52619.2 2366.89 -664.498)
(-10403.8 334.2 -60.2782)
(10261.8 337.942 -58.9468)
(48842.4 2360.86 -649.817)
(-53861.9 552.38 -669.973)
(-10661.3 56.4481 -60.9948)
(10510.7 55.2817 -59.6358)
(49990.3 531.84 -655.018)
(-55707.8 694.689 -669.876)
(-10900.9 63.2007 -60.9354)
(10737.2 61.2495 -59.5806)
(51727.1 668.779 -655.062)
(-58638.8 1302.63 -669.608)
(-11294.7 215.912 -60.9316)
(11116.2 213.384 -59.5994)
(54532.5 1274.17 -655.322)
(-63521.7 3789.25 -675.079)
(-11990.1 1855.96 -63.7029)
(11795.5 1845.76 -62.4398)
(59272.5 3746.37 -662.128)
(-71238.3 19459.7 -738.255)
(-13238.2 16487.1 -113.172)
(13006.6 16363.9 -112.133)
(66853 19105 -728.688)
(-75559.3 80611.3 -1381.62)
(-15086 78840.7 -732.756)
(14413.4 77759.2 -732.492)
(70963.2 77296.4 -1380.08)
(-50156 21027 -326.845)
(-8438.55 2389.67 -25.1254)
(8295.44 2406.46 -24.436)
(46538.7 20731.7 -319.118)
(-50934.5 2333.96 -375.108)
(-10182 330.549 -30.41)
(10046.6 334.424 -29.5229)
(47197 2329.15 -365.584)
(-52169.9 551.031 -377.542)
(-10438.1 56.3234 -30.6798)
(10294 55.1686 -29.7711)
(48337.8 530.57 -367.798)
(-54011.1 695.226 -376.943)
(-10677.9 63.3018 -30.5736)
(10520.8 61.3418 -29.6662)
(50068.6 669.081 -367.265)
(-56935.2 1300.41 -376.639)
(-11072 214.983 -30.5104)
(10899.8 212.423 -29.6154)
(52863.5 1271.28 -367.257)
(-61796.3 3761.81 -380.893)
(-11765.9 1837.07 -32.0336)
(11577.1 1826.77 -31.1755)
(57574.7 3717.2 -372.262)
(-69452.9 19189.7 -421.188)
(-13007 16240 -59.946)
(12779.9 16116.5 -59.201)
(65082.5 18830.7 -414.48)
(-73762.5 78795.3 -809.415)
(-14839.2 77025.6 -419.426)
(14167.9 75943.1 -419.058)
(69158.7 75474.8 -807.388)
(-49194.4 20775.7 -170.076)
(-8329.94 2370.22 -12.7375)
(8190 2387.61 -12.3469)
(45597.4 20486.9 -165.814)
(-49968 2316.19 -194.623)
(-10058.2 328.645 -15.3549)
(9926.64 332.607 -14.8497)
(46252.2 2312.18 -189.316)
(-51200 550.546 -195.704)
(-10313.5 56.2845 -15.4726)
(10173.5 55.1385 -14.9536)
(47389.8 530.159 -190.253)
(-53039.3 695.591 -195.275)
(-10553.6 63.37 -15.4057)
(10400.5 61.4053 -14.887)
(49117.7 669.32 -189.851)
(-55958.6 1298.68 -195.188)
(-10947.7 214.452 -15.3736)
(10779.5 211.875 -14.8616)
(51905.8 1269.17 -189.921)
(-60803.2 3744.7 -197.96)
(-11640.4 1826.53 -16.1835)
(11455.2 1816.18 -15.6905)
(56596.5 3699.14 -193.086)
(-68415.2 19031.2 -220.528)
(-12876.2 16099.7 -30.6922)
(12652.1 15976 -30.2524)
(64052.4 18669.9 -216.65)
(-72696.4 77713 -430.19)
(-14695.6 75961.1 -220.597)
(14025.4 74877.9 -220.326)
(68087.1 74388.5 -428.759)
(-48753.1 20662.4 -52.9113)
(-8280.83 2361.58 -3.92032)
(8142.37 2379.26 -3.79395)
(45165 20376.5 -51.5512)
(-49524.5 2308.33 -60.4635)
(-10002.3 327.814 -4.71781)
(9872.6 331.818 -4.5539)
(45818.3 2304.71 -58.7607)
(-50755.2 550.379 -60.7755)
(-10257.3 56.2727 -4.75162)
(10119.3 55.1314 -4.58296)
(46954.7 530.035 -59.0219)
(-52593.5 695.743 -60.6301)
(-10497.5 63.4009 -4.72963)
(10346.4 61.4338 -4.56102)
(48681.2 669.412 -58.8846)
(-55510.4 1297.73 -60.6243)
(-10891.6 214.205 -4.72075)
(10725.3 211.62 -4.55438)
(51465.8 1268.04 -58.9292)
(-60346.2 3736.47 -61.5844)
(-11583.6 1821.75 -4.97669)
(11400.2 1811.38 -4.81632)
(56146 3690.47 -60.0143)
(-67934.8 18957.5 -68.8581)
(-12816.7 16035.6 -9.49193)
(12594 15911.8 -9.34733)
(63575.1 18595.1 -67.5997)
(-72197.6 77204.6 -135.295)
(-14629.3 75465.2 -69.0782)
(13959.7 74381.6 -68.9811)
(67585 73878 -134.801)
)
;

boundaryField
{
    interface
    {
        type            calculated;
        value           nonuniform List<vector> 
192
(
(-122057 58518.1 -78044.5)
(-115306 5805.78 -76980.9)
(-117303 1228.98 -78339.8)
(-120725 1440.84 -80344)
(-125832 2484.78 -83325.2)
(-133695 5885.89 -87965.2)
(-144588 24361.9 -94652)
(-142712 95366.2 -95326)
(-112833 29021.5 -15900.7)
(-110027 3109.25 -18777)
(-112198 650.549 -19141)
(-115629 769.035 -19435.3)
(-120900 1418.08 -19880.2)
(-129423 4136.77 -20604)
(-142270 21874.9 -21865.8)
(-144651 94718.8 -24350.3)
(-99569.9 23840.3 -3067.47)
(-97411.1 2565.57 -3686.5)
(-99474.5 570.731 -3748.77)
(-102771 701.604 -3780.64)
(-107925 1316.09 -3822.94)
(-116404 3900.25 -3893.1)
(-129503 20615.5 -4129.25)
(-133841 88071.6 -5871.67)
(-91304.8 22267.5 -1089.32)
(-89271.9 2427.95 -1273.34)
(-91270.6 556.409 -1288)
(-94507.9 694.861 -1291.69)
(-99607.9 1305.62 -1294.92)
(-108033 3830.46 -1305.15)
(-121093 19896.3 -1405.92)
(-126097 83491.5 -2460.93)
(-86385.1 21477.7 -575.975)
(-84411.1 2366.89 -664.498)
(-86382 552.38 -669.973)
(-89596.3 694.689 -669.876)
(-94672.7 1302.63 -669.608)
(-103051 3789.25 -675.079)
(-116005 19459.7 -738.255)
(-121181 80611.3 -1381.62)
(-83422.2 21027 -326.845)
(-81484 2333.96 -375.108)
(-83443.1 551.031 -377.542)
(-86647.9 695.226 -376.943)
(-91710.1 1300.41 -376.639)
(-100047 3761.81 -380.893)
(-112896 19189.7 -421.188)
(-118080 78795.3 -809.415)
(-81715.8 20775.7 -170.076)
(-79798 2316.19 -194.623)
(-81751.9 550.546 -195.704)
(-84952 695.591 -195.275)
(-90004.6 1298.68 -195.188)
(-98311.4 3744.7 -197.96)
(-111081 19031.2 -220.528)
(-116235 77713 -430.19)
(-80931 20662.4 -52.9113)
(-79022.6 2308.33 -60.4635)
(-80974.3 550.379 -60.7755)
(-84172.4 695.743 -60.6301)
(-89220 1297.73 -60.6243)
(-97510.6 3736.47 -61.5844)
(-110239 18957.5 -68.8581)
(-115370 77204.6 -135.295)
(-73268.5 58518.1 -128976)
(-72037.5 5805.78 -122081)
(-73332.8 1228.98 -124174)
(-75311.8 1440.84 -127651)
(-78276 2484.78 -132801)
(-82869.1 5885.89 -140759)
(-89342 24361.9 -151957)
(-89251.1 95366.2 -150507)
(-12328.1 31893.6 -125185)
(-14488.4 3364.45 -121952)
(-14790.7 664.379 -124188)
(-15061.4 762.393 -127666)
(-15474 1412.46 -132970)
(-16136.5 4197.82 -141555)
(-17170.1 22488.3 -154621)
(-18123.3 97662.7 -156807)
(11806.3 31701.5 -123542)
(13893.5 3343.21 -120228)
(14168.8 656.028 -122387)
(14420.7 757.598 -125820)
(14821 1409.63 -131096)
(15478.9 4189.76 -139657)
(16498.2 22375.1 -152688)
(17064 96603.1 -154912)
(69281.1 57593.4 -123819)
(67835.9 5726.95 -116723)
(69033.8 1191.6 -118606)
(70926.7 1414.57 -121949)
(73825 2470.6 -127011)
(78387.2 5874.99 -134890)
(84890.9 24073.4 -145976)
(84752.7 92154.3 -144686)
(114773 57593.4 -75221.3)
(107677 5726.95 -74006)
(109511 1191.6 -75247.6)
(112787 1414.57 -77180.9)
(117780 2470.6 -80118.5)
(125586 5874.99 -84723.6)
(136541 24073.4 -91363.2)
(134921 92154.3 -92139.3)
(105429 28637.2 -15637.4)
(102356 3094.04 -18457.5)
(104353 629.692 -18808.4)
(107609 746.438 -19098.8)
(112713 1398.31 -19545.9)
(121093 4112.51 -20278.2)
(133905 21555.8 -21555)
(136541 91387.6 -24072)
(92310.6 23498.5 -3039.74)
(89895.7 2555.96 -3652.1)
(91783.1 550.257 -3713.52)
(94894.2 677.084 -3745.97)
(99850.5 1291.22 -3790.57)
(108128 3865.87 -3865.94)
(121095 20279.6 -4112.52)
(125589 84762.4 -5873.01)
(84204.8 21945.4 -1073.11)
(81924.7 2420.26 -1253.82)
(83748.9 535.816 -1268.21)
(86794.5 669.385 -1272.24)
(91679.8 1278.34 -1276.52)
(99866.6 3790.57 -1289.29)
(112732 19548.7 -1396.02)
(117800 80182.8 -2463.9)
(79396.6 21171.6 -563.911)
(77181 2360.86 -649.817)
(78978.6 531.84 -655.018)
(81997.3 668.779 -655.062)
(86848 1274.17 -655.322)
(94966.6 3746.37 -662.128)
(107688 19105 -728.688)
(112866 77296.4 -1380.08)
(76499.1 20731.7 -319.118)
(74321.9 2329.15 -365.584)
(76108 530.57 -367.798)
(79114.2 669.081 -367.265)
(83943.9 1271.28 -367.257)
(92008.7 3717.2 -372.262)
(104601 18830.7 -414.48)
(109748 75474.8 -807.388)
(74828 20486.9 -165.814)
(72672.7 2312.18 -189.316)
(74453.7 530.159 -190.253)
(77453.7 669.32 -189.851)
(82269.7 1269.17 -189.921)
(90296.8 3699.14 -193.086)
(102797 18669.9 -216.65)
(107890 74388.5 -428.759)
(74058.6 20376.5 -51.5512)
(71913.2 2304.71 -58.7607)
(73692.3 530.035 -59.0219)
(76689.4 669.412 -58.8846)
(81498.5 1268.04 -58.9292)
(89506.1 3690.47 -60.0143)
(101959 18595.1 -67.5997)
(107018 73878 -134.801)
(-89251.1 150576 -95326)
(-89376.2 152078 -24350.3)
(-82948.1 140955 -5871.67)
(-78419.6 133109 -2460.93)
(-75559.3 128145 -1381.62)
(-73762.5 125003 -809.415)
(-72696.4 123125 -430.19)
(-72197.6 122241 -135.295)
(-18123.3 156863 -97631.9)
(-17173.9 154717 -22483.1)
(-16144.6 141710 -4192.15)
(-15488.3 133215 -1402.28)
(-15086 128070 -732.756)
(-14839.2 124898 -419.426)
(-14695.6 123030 -220.597)
(-14629.3 122157 -69.0782)
(17064 154956 -96579.2)
(16496 152761 -22371.7)
(15475 139773 -4186.06)
(14815.2 131281 -1402.28)
(14413.4 126136 -732.492)
(14167.9 122963 -419.058)
(14025.4 121093 -220.326)
(13959.7 120220 -68.9811)
(84752.7 144714 -92139.3)
(84889.7 146023 -24072)
(78386.5 134964 -5873.01)
(73832.1 127134 -2463.9)
(70963.2 122168 -1380.08)
(69158.7 119021 -807.388)
(68087.1 117138 -428.759)
(67585 116252 -134.801)
)
;
    }
    symmetry
    {
        type            symmetry;
    }
    bottom
    {
        type            calculated;
        value           nonuniform List<vector> 
32
(
(-73268.5 106766 -78044.5)
(-67035.4 52540.5 -15900.7)
(-59346.1 43162.7 -3067.47)
(-54624 40270.6 -1089.32)
(-51830.8 38805.4 -575.975)
(-50156 37966.7 -326.845)
(-49194.4 37498.1 -170.076)
(-48753.1 37286.4 -52.9113)
(-12328.1 57805.4 -74528)
(-10620.9 10064.4 -13221.8)
(-9556.87 4917.99 -1420.08)
(-8966.36 4384.08 -166.381)
(-8632.35 4252.46 -49.2139)
(-8438.55 4187.23 -25.1254)
(-8329.94 4151.96 -12.7375)
(-8280.83 4136.28 -3.92032)
(11806.3 57453.1 -73619.9)
(10429.8 10056.8 -13129.5)
(9390.72 4935.24 -1412.91)
(8810.14 4405.19 -164.801)
(8483.99 4276.04 -48.1711)
(8295.44 4212.51 -24.436)
(8190 4178.3 -12.3469)
(8142.37 4163.12 -3.79395)
(69281.1 105031 -75221.3)
(63146.1 51783.6 -15637.4)
(55541.7 42480.9 -3039.74)
(50907.3 39624.6 -1073.11)
(48176.4 38188.4 -563.911)
(46538.7 37369 -319.118)
(45597.4 36911.9 -165.814)
(45165 36705.7 -51.5512)
)
;
    }
}


// ************************************************************************* //
