/*--------------------------------*- C++ -*----------------------------------*\
| =========                 |                                                 |
| \\      /  F ield         | OpenFOAM: The Open Source CFD Toolbox           |
|  \\    /   O peration     | Version:  v1912                                 |
|   \\  /    A nd           | Website:  www.openfoam.com                      |
|    \\/     M anipulation  |                                                 |
\*---------------------------------------------------------------------------*/
FoamFile
{
    version     2.0;
    format      ascii;
    class       pointVectorField;
    location    "0.45/solid";
    object      pointDD;
}
// * * * * * * * * * * * * * * * * * * * * * * * * * * * * * * * * * * * * * //

dimensions      [0 1 0 0 0 0 0];


internalField   nonuniform List<vector> 
405
(
(2.46246e-10 4.16212e-10 2.38643e-10)
(1.06918e-10 2.85043e-10 1.55716e-10)
(-3.82586e-12 2.37353e-10 1.27451e-10)
(-1.10285e-10 2.75893e-10 1.43386e-10)
(-2.25232e-10 4.00139e-10 2.1999e-10)
(4.95829e-10 4.9723e-10 5.77049e-10)
(2.97686e-10 4.71072e-10 5.26217e-10)
(-1.11214e-11 3.92821e-10 4.619e-10)
(-3.09875e-10 4.58184e-10 4.9827e-10)
(-4.67187e-10 4.81862e-10 5.42277e-10)
(6.40086e-10 2.13784e-10 9.51048e-10)
(3.92431e-10 2.38059e-10 8.93778e-10)
(-1.78717e-11 1.95316e-10 8.17103e-10)
(-4.16616e-10 2.35326e-10 8.59923e-10)
(-6.19935e-10 2.14605e-10 9.05188e-10)
(6.47025e-10 -7.98143e-11 1.24223e-09)
(3.92147e-10 -2.90108e-11 1.17923e-09)
(-2.53914e-11 -4.82235e-11 1.09249e-09)
(-4.31332e-10 -2.31718e-11 1.14079e-09)
(-6.40093e-10 -6.54665e-11 1.18897e-09)
(6.33398e-10 -3.49558e-10 1.51622e-09)
(3.75299e-10 -3.03025e-10 1.44359e-09)
(-3.49792e-11 -3.21382e-10 1.34486e-09)
(-4.33566e-10 -2.90027e-10 1.40156e-09)
(-6.43873e-10 -3.23677e-10 1.45728e-09)
(6.6335e-10 -6.31561e-10 1.80671e-09)
(3.90516e-10 -6.07464e-10 1.71854e-09)
(-4.6856e-11 -6.35931e-10 1.60654e-09)
(-4.72375e-10 -5.8807e-10 1.67338e-09)
(-6.9569e-10 -5.95086e-10 1.74283e-09)
(7.96047e-10 -1.01852e-09 2.1378e-09)
(4.79883e-10 -1.01127e-09 2.0311e-09)
(-6.13566e-11 -1.03569e-09 1.9093e-09)
(-5.90272e-10 -9.85598e-10 1.98288e-09)
(-8.54438e-10 -9.71504e-10 2.06912e-09)
(1.06416e-09 -1.71169e-09 2.50448e-09)
(6.44345e-10 -1.68206e-09 2.41569e-09)
(-7.92359e-11 -1.65801e-09 2.30321e-09)
(-7.88894e-10 -1.64684e-09 2.36393e-09)
(-1.1509e-09 -1.6494e-09 2.43066e-09)
(1.22802e-09 -2.18461e-09 2.71335e-09)
(7.39652e-10 -2.12168e-09 2.66718e-09)
(-8.96976e-11 -2.03897e-09 2.587e-09)
(-9.03964e-10 -2.07166e-09 2.62163e-09)
(-1.34558e-09 -2.1072e-09 2.64358e-09)
(1.26585e-10 2.06573e-10 1.06132e-10)
(0 0 0)
(0 0 0)
(0 0 0)
(-9.70177e-11 1.97754e-10 9.97134e-11)
(3.47517e-10 2.84599e-10 3.87621e-10)
(0 0 0)
(0 0 0)
(0 0 0)
(-2.89093e-10 2.75103e-10 3.67512e-10)
(4.53178e-10 9.72152e-12 7.09414e-10)
(0 0 0)
(0 0 0)
(0 0 0)
(-3.9918e-10 1.54982e-11 6.77635e-10)
(4.52791e-10 -2.67256e-10 9.88189e-10)
(0 0 0)
(0 0 0)
(0 0 0)
(-4.08508e-10 -2.48109e-10 9.48833e-10)
(4.36454e-10 -5.23421e-10 1.2532e-09)
(0 0 0)
(0 0 0)
(0 0 0)
(-4.06524e-10 -4.92169e-10 1.20799e-09)
(4.59667e-10 -7.81862e-10 1.53008e-09)
(0 0 0)
(0 0 0)
(0 0 0)
(-4.48738e-10 -7.39112e-10 1.47969e-09)
(5.81544e-10 -1.11133e-09 1.82961e-09)
(0 0 0)
(0 0 0)
(0 0 0)
(-5.93477e-10 -1.05718e-09 1.77423e-09)
(8.67336e-10 -1.69654e-09 2.10435e-09)
(0 0 0)
(0 0 0)
(0 0 0)
(-9.02082e-10 -1.62691e-09 2.04431e-09)
(1.06211e-09 -2.096e-09 2.25529e-09)
(6.41469e-10 -2.0056e-09 2.27302e-09)
(-8.18506e-11 -1.89042e-09 2.25148e-09)
(-7.91289e-10 -1.94874e-09 2.24181e-09)
(-1.15275e-09 -2.01344e-09 2.20071e-09)
(3.77757e-11 7.94972e-11 2.56395e-11)
(0 0 0)
(0 0 0)
(0 0 0)
(-9.45522e-12 7.12459e-11 2.26561e-11)
(1.2706e-10 4.10981e-11 1.67677e-10)
(0 0 0)
(0 0 0)
(0 0 0)
(-6.90785e-11 3.20595e-11 1.56571e-10)
(1.79935e-10 -2.04681e-10 4.14957e-10)
(0 0 0)
(0 0 0)
(0 0 0)
(-1.22423e-10 -1.99754e-10 3.94899e-10)
(1.67158e-10 -4.51918e-10 6.71467e-10)
(0 0 0)
(0 0 0)
(0 0 0)
(-1.1586e-10 -4.34561e-10 6.44639e-10)
(1.46091e-10 -6.84602e-10 9.18953e-10)
(0 0 0)
(0 0 0)
(0 0 0)
(-1.06128e-10 -6.55606e-10 8.8662e-10)
(1.64761e-10 -9.05831e-10 1.16005e-09)
(0 0 0)
(0 0 0)
(0 0 0)
(-1.41067e-10 -8.6565e-10 1.1228e-09)
(2.84878e-10 -1.15582e-09 1.3801e-09)
(0 0 0)
(0 0 0)
(0 0 0)
(-2.81525e-10 -1.10473e-09 1.33836e-09)
(5.78403e-10 -1.60186e-09 1.51695e-09)
(0 0 0)
(0 0 0)
(0 0 0)
(-5.95397e-10 -1.53612e-09 1.47177e-09)
(7.90479e-10 -1.90946e-09 1.5616e-09)
(4.73161e-10 -1.8015e-09 1.60281e-09)
(-6.71795e-11 -1.67676e-09 1.62991e-09)
(-5.9504e-10 -1.74735e-09 1.58056e-09)
(-8.58347e-10 -1.83096e-09 1.52162e-09)
(-3.59193e-12 2.46162e-11 1.94164e-11)
(0 0 0)
(0 0 0)
(0 0 0)
(3.16964e-11 1.54781e-11 1.7406e-11)
(1.9573e-11 -6.90155e-11 1.29324e-10)
(0 0 0)
(0 0 0)
(0 0 0)
(3.9565e-11 -8.02538e-11 1.21738e-10)
(4.28731e-11 -3.11706e-10 3.31205e-10)
(0 0 0)
(0 0 0)
(0 0 0)
(1.89944e-11 -3.09673e-10 3.17049e-10)
(2.66658e-11 -5.47555e-10 5.54844e-10)
(0 0 0)
(0 0 0)
(0 0 0)
(3.21058e-11 -5.335e-10 5.35121e-10)
(9.30964e-12 -7.55975e-10 7.731e-10)
(0 0 0)
(0 0 0)
(0 0 0)
(4.10371e-11 -7.305e-10 7.48537e-10)
(3.29552e-11 -9.33164e-10 9.71421e-10)
(0 0 0)
(0 0 0)
(0 0 0)
(3.85123e-12 -8.96657e-10 9.42512e-10)
(1.58268e-10 -1.117e-09 1.12369e-09)
(0 0 0)
(0 0 0)
(0 0 0)
(-1.39248e-10 -1.06974e-09 1.09099e-09)
(4.50132e-10 -1.48357e-09 1.18356e-09)
(0 0 0)
(0 0 0)
(0 0 0)
(-4.49294e-10 -1.42164e-09 1.14824e-09)
(6.50736e-10 -1.76043e-09 1.175e-09)
(3.76968e-10 -1.67133e-09 1.20151e-09)
(-5.61891e-11 -1.55573e-09 1.23224e-09)
(-4.77074e-10 -1.61913e-09 1.18431e-09)
(-6.98437e-10 -1.68517e-09 1.14395e-09)
(-1.87064e-11 5.32625e-12 2.36949e-11)
(0 0 0)
(0 0 0)
(0 0 0)
(4.683e-11 -4.67068e-12 2.22665e-11)
(-1.99024e-11 -1.07319e-10 1.22403e-10)
(0 0 0)
(0 0 0)
(0 0 0)
(8.00725e-11 -1.20809e-10 1.17087e-10)
(-6.57658e-12 -3.4877e-10 2.8683e-10)
(0 0 0)
(0 0 0)
(0 0 0)
(7.16401e-11 -3.49787e-10 2.76859e-10)
(-2.07355e-11 -5.77768e-10 4.67521e-10)
(0 0 0)
(0 0 0)
(0 0 0)
(8.50988e-11 -5.6714e-10 4.53337e-10)
(-3.17304e-11 -7.67353e-10 6.42855e-10)
(0 0 0)
(0 0 0)
(0 0 0)
(9.01011e-11 -7.45445e-10 6.24792e-10)
(-1.34843e-12 -9.13573e-10 7.93701e-10)
(0 0 0)
(0 0 0)
(0 0 0)
(4.85357e-11 -8.80651e-10 7.72096e-10)
(1.28039e-10 -1.06159e-09 8.95796e-10)
(0 0 0)
(0 0 0)
(0 0 0)
(-9.64302e-11 -1.01781e-09 8.71157e-10)
(4.14912e-10 -1.39397e-09 9.22696e-10)
(0 0 0)
(0 0 0)
(0 0 0)
(-3.99607e-10 -1.3352e-09 8.9602e-10)
(6.07186e-10 -1.65887e-09 8.99172e-10)
(3.4949e-10 -1.58528e-09 9.04657e-10)
(-4.79379e-11 -1.48115e-09 9.22039e-10)
(-4.32969e-10 -1.53454e-09 8.91697e-10)
(-6.38868e-10 -1.58613e-09 8.75752e-10)
(-2.29283e-11 -1.07346e-13 2.23964e-11)
(0 0 0)
(0 0 0)
(0 0 0)
(5.11041e-11 -1.06992e-11 2.14218e-11)
(-2.99357e-11 -1.15818e-10 1.03362e-10)
(0 0 0)
(0 0 0)
(0 0 0)
(9.08222e-11 -1.30981e-10 9.97625e-11)
(-1.67961e-11 -3.5239e-10 2.28515e-10)
(0 0 0)
(0 0 0)
(0 0 0)
(8.39885e-11 -3.55843e-10 2.21755e-10)
(-2.67317e-11 -5.74078e-10 3.62454e-10)
(0 0 0)
(0 0 0)
(0 0 0)
(9.49344e-11 -5.66289e-10 3.52732e-10)
(-3.17795e-11 -7.50965e-10 4.90405e-10)
(0 0 0)
(0 0 0)
(0 0 0)
(9.5838e-11 -7.32043e-10 4.77845e-10)
(4.02021e-12 -8.80707e-10 5.96363e-10)
(0 0 0)
(0 0 0)
(0 0 0)
(5.07004e-11 -8.5075e-10 5.81156e-10)
(1.35598e-10 -1.01404e-09 6.62885e-10)
(0 0 0)
(0 0 0)
(0 0 0)
(-9.47187e-11 -9.73068e-10 6.45408e-10)
(4.17422e-10 -1.33306e-09 6.76213e-10)
(0 0 0)
(0 0 0)
(0 0 0)
(-3.91359e-10 -1.27677e-09 6.57223e-10)
(6.04641e-10 -1.5916e-09 6.54233e-10)
(3.51593e-10 -1.52706e-09 6.48967e-10)
(-4.1897e-11 -1.43138e-09 6.5556e-10)
(-4.22859e-10 -1.47739e-09 6.39748e-10)
(-6.24443e-10 -1.52077e-09 6.37558e-10)
(-2.35806e-11 -1.02269e-12 1.66648e-11)
(0 0 0)
(0 0 0)
(0 0 0)
(5.17959e-11 -1.19909e-11 1.6059e-11)
(-3.05369e-11 -1.14555e-10 7.32874e-11)
(0 0 0)
(0 0 0)
(0 0 0)
(9.18843e-11 -1.30817e-10 7.10576e-11)
(-1.49595e-11 -3.44796e-10 1.57123e-10)
(0 0 0)
(0 0 0)
(0 0 0)
(8.35122e-11 -3.49925e-10 1.52934e-10)
(-2.09906e-11 -5.59565e-10 2.4474e-10)
(0 0 0)
(0 0 0)
(0 0 0)
(9.16866e-11 -5.53799e-10 2.38679e-10)
(-2.17386e-11 -7.2864e-10 3.27105e-10)
(0 0 0)
(0 0 0)
(0 0 0)
(8.95621e-11 -7.11883e-10 3.19207e-10)
(1.75349e-11 -8.51063e-10 3.93705e-10)
(0 0 0)
(0 0 0)
(0 0 0)
(4.22508e-11 -8.23258e-10 3.84063e-10)
(1.50061e-10 -9.79776e-10 4.33946e-10)
(0 0 0)
(0 0 0)
(0 0 0)
(-1.02882e-10 -9.40822e-10 4.22799e-10)
(4.28029e-10 -1.2937e-09 4.40877e-10)
(0 0 0)
(0 0 0)
(0 0 0)
(-3.94601e-10 -1.23917e-09 4.28725e-10)
(6.11803e-10 -1.54861e-09 4.25659e-10)
(3.59461e-10 -1.48884e-09 4.18815e-10)
(-3.77806e-11 -1.39809e-09 4.20383e-10)
(-4.22401e-10 -1.4399e-09 4.12916e-10)
(-6.23477e-10 -1.47913e-09 4.14985e-10)
(-2.34578e-11 -8.5927e-13 8.75348e-12)
(0 0 0)
(0 0 0)
(0 0 0)
(5.16938e-11 -1.20355e-11 8.46316e-12)
(-2.95432e-11 -1.11815e-10 3.76843e-11)
(0 0 0)
(0 0 0)
(0 0 0)
(9.11475e-11 -1.28694e-10 3.66177e-11)
(-1.20438e-11 -3.37134e-10 7.9582e-11)
(0 0 0)
(0 0 0)
(0 0 0)
(8.13592e-11 -3.43227e-10 7.75775e-11)
(-1.56054e-11 -5.47084e-10 1.22713e-10)
(0 0 0)
(0 0 0)
(0 0 0)
(8.77077e-11 -5.42507e-10 1.19804e-10)
(-1.38827e-11 -7.1196e-10 1.62816e-10)
(0 0 0)
(0 0 0)
(0 0 0)
(8.38504e-11 -6.96494e-10 1.59008e-10)
(2.72302e-11 -8.31567e-10 1.94834e-10)
(0 0 0)
(0 0 0)
(0 0 0)
(3.54666e-11 -8.05054e-10 1.90164e-10)
(1.60092e-10 -9.5928e-10 2.13859e-10)
(0 0 0)
(0 0 0)
(0 0 0)
(-1.09267e-10 -9.2154e-10 2.08439e-10)
(4.3572e-10 -1.27135e-09 2.16912e-10)
(0 0 0)
(0 0 0)
(0 0 0)
(-3.98008e-10 -1.21789e-09 2.10991e-10)
(6.17381e-10 -1.52443e-09 2.0937e-10)
(3.64919e-10 -1.46688e-09 2.05287e-10)
(-3.53935e-11 -1.37851e-09 2.05384e-10)
(-4.2303e-10 -1.41838e-09 2.02414e-10)
(-6.24327e-10 -1.45576e-09 2.04168e-10)
(-7.38409e-12 -7.13613e-12 0)
(4.3476e-12 -2.06195e-11 0)
(1.615e-13 -3.1689e-11 0)
(-7.98177e-13 -2.42219e-11 0)
(3.07302e-11 -1.88612e-11 0)
(3.96293e-12 -1.16801e-10 0)
(1.45048e-11 -1.42452e-10 0)
(2.52105e-12 -1.62743e-10 0)
(-2.18681e-12 -1.48275e-10 0)
(3.6678e-11 -1.30374e-10 0)
(1.9126e-11 -3.35145e-10 0)
(1.96087e-11 -3.50111e-10 0)
(6.14674e-12 -3.6436e-10 0)
(5.62699e-13 -3.52266e-10 0)
(2.96794e-11 -3.40231e-10 0)
(1.56295e-11 -5.42043e-10 0)
(1.54222e-11 -5.53002e-10 0)
(7.52533e-12 -5.63524e-10 0)
(7.18829e-12 -5.50276e-10 0)
(3.57341e-11 -5.38017e-10 0)
(1.75877e-11 -7.11467e-10 0)
(1.44827e-11 -7.35514e-10 0)
(5.87928e-12 -7.51958e-10 0)
(4.78395e-12 -7.27475e-10 0)
(3.11315e-11 -6.97996e-10 0)
(5.97935e-11 -8.47124e-10 0)
(4.14005e-11 -9.01446e-10 0)
(1.10583e-12 -9.30053e-10 0)
(-3.14705e-11 -8.87966e-10 0)
(-1.91466e-11 -8.24038e-10 0)
(1.94019e-10 -9.99086e-10 0)
(1.30258e-10 -1.08002e-09 0)
(-7.02775e-12 -1.10951e-09 0)
(-1.35873e-10 -1.06092e-09 0)
(-1.66598e-10 -9.66128e-10 0)
(4.50202e-10 -1.31379e-09 0)
(2.81281e-10 -1.35895e-09 0)
(-1.91764e-11 -1.34764e-09 0)
(-3.0913e-10 -1.33148e-09 0)
(-4.39316e-10 -1.26652e-09 0)
(6.13316e-10 -1.5369e-09 0)
(3.67262e-10 -1.49944e-09 0)
(-3.04899e-11 -1.43245e-09 0)
(-4.15889e-10 -1.45879e-09 0)
(-6.26485e-10 -1.47466e-09 0)
)
;

boundaryField
{
    interface
    {
        type            calculated;
    }
    symmetry
    {
        type            symmetry;
    }
    bottom
    {
        type            calculated;
    }
}


// ************************************************************************* //
