/*--------------------------------*- C++ -*----------------------------------*\
| =========                 |                                                 |
| \\      /  F ield         | OpenFOAM: The Open Source CFD Toolbox           |
|  \\    /   O peration     | Version:  v1912                                 |
|   \\  /    A nd           | Website:  www.openfoam.com                      |
|    \\/     M anipulation  |                                                 |
\*---------------------------------------------------------------------------*/
FoamFile
{
    version     2.0;
    format      ascii;
    class       volScalarField;
    location    "0.45/solid";
    object      sigmaHyd;
}
// * * * * * * * * * * * * * * * * * * * * * * * * * * * * * * * * * * * * * //

dimensions      [1 -1 -2 0 0 0 0];


internalField   nonuniform List<scalar> 
256
(
-719151
-367979
-364738
-698011
-955373
-544718
-540566
-930083
-971730
-565340
-560972
-945512
-981360
-573165
-568642
-954423
-1.00822e+06
-589440
-584821
-980755
-1.06808e+06
-629600
-624940
-1.04038e+06
-1.23657e+06
-767116
-762074
-1.20818e+06
-1.82017e+06
-1.31059e+06
-1.30117e+06
-1.78055e+06
-343905
-69906.5
-70742
-333237
-496992
-164883
-165158
-483435
-512584
-187419
-187575
-498452
-519566
-194563
-194655
-504935
-535752
-201251
-201310
-520665
-575042
-219662
-219717
-559625
-708802
-314763
-314429
-692467
-1.23692e+06
-767150
-762011
-1.20816e+06
-271827
-33774.1
-34764.7
-261396
-380613
-88654.3
-89282
-368024
-392228
-106414
-106958
-379209
-399108
-113300
-113792
-385624
-414057
-119088
-119550
-400073
-450009
-134218
-134661
-435539
-575089
-219267
-219275
-559387
-1.06846e+06
-629221
-624373
-1.03999e+06
-253198
-33902.5
-34770
-242501
-348173
-78174.6
-78731.6
-335669
-357355
-92587.4
-93089.2
-344537
-363961
-98736.9
-99201.3
-350721
-378757
-104377
-104816
-365007
-414024
-118962
-119376
-399709
-535396
-200308
-200265
-519665
-1.00766e+06
-587838
-582913
-978897
-244233
-35274.5
-36045.8
-233334
-334426
-76220.8
-76711.3
-321938
-342516
-88891.2
-89348.2
-329794
-348799
-94352.1
-94785.5
-335696
-363413
-99742.8
-100158
-349809
-398279
-114056
-114446
-384077
-517475
-193580
-193504
-501759
-977127
-569026
-564049
-948202
-238804
-36059.3
-36762.8
-227743
-326921
-75640
-76083.6
-314404
-334554
-87470.7
-87895.3
-321853
-340600
-92485.5
-92897
-327546
-355030
-97657.6
-98057.2
-341487
-389604
-111801
-112178
-375451
-507475
-190360
-190267
-491758
-959315
-558654
-553648
-930280
-235566
-36475
-37134.6
-224390
-322656
-75433.2
-75845.9
-310100
-330094
-86873.3
-87275.7
-317383
-335997
-91643.8
-92039.8
-322951
-350293
-96676.3
-97065
-336767
-384679
-110726
-111094
-370539
-501783
-188769
-188667
-486055
-948980
-552863
-547841
-919872
-234036
-36652
-37290
-222801
-320677
-75359.9
-75757.1
-308097
-328040
-86645
-87035.8
-315317
-333877
-91310
-91697.7
-320827
-348104
-96277.6
-96660.4
-334579
-382400
-110285
-110649
-368261
-499151
-188100
-187993
-483414
-944163
-550220
-545190
-915017
)
;

boundaryField
{
    interface
    {
        type            zeroGradient;
    }
    symmetry
    {
        type            symmetry;
    }
    bottom
    {
        type            zeroGradient;
    }
}


// ************************************************************************* //
