/*--------------------------------*- C++ -*----------------------------------*\
| =========                 |                                                 |
| \\      /  F ield         | OpenFOAM: The Open Source CFD Toolbox           |
|  \\    /   O peration     | Version:  v1912                                 |
|   \\  /    A nd           | Website:  www.openfoam.com                      |
|    \\/     M anipulation  |                                                 |
\*---------------------------------------------------------------------------*/
FoamFile
{
    version     2.0;
    format      ascii;
    class       volSymmTensorField;
    location    "0.45/solid";
    object      sigma;
}
// * * * * * * * * * * * * * * * * * * * * * * * * * * * * * * * * * * * * * //

dimensions      [1 -1 -2 0 0 0 0];


internalField   nonuniform List<symmTensor> 
256
(
(-238801 18360.9 -7186.62 340097 19498.8 -256893)
(42988.2 -9220.15 -2857.27 214615 19524.7 -277690)
(44087.9 11512.9 2832.27 212632 19828.8 -273688)
(-218475 -16843.1 7271.11 336185 20616.8 -242418)
(-274736 -1593.25 -10498.9 85244.2 -338.822 -289627)
(-45655.5 -4315.01 -4551.92 41429.6 817.238 -321759)
(-44021.2 6336.48 4643.87 40160.8 1052.26 -317467)
(-252319 2492.67 10673.7 86309.9 487.735 -274060)
(-276535 -3315.29 -11150.3 89717.7 -2328.37 -291083)
(-52858.5 -2891.87 -4929.77 21674.7 -2058.51 -328653)
(-51263.1 4472.82 5084.18 20586 -1899.7 -324251)
(-253755 3966.13 11356.9 91265.3 -1755.76 -275202)
(-277721 -1732.14 -11473.3 106972 -994.906 -294155)
(-45597.5 -1848.03 -5084.24 18415.7 -1065.8 -334317)
(-44002.9 3019.53 5249.4 17476.6 -950.849 -329828)
(-254580 2225.45 11689 108871 -568.932 -278007)
(-287498 -119.736 -11744.5 113727 893.927 -305525)
(-43160.9 -838.98 -5222.61 15550 786.04 -347345)
(-41540.1 1666.26 5381.46 14678.5 880.396 -342795)
(-264030 471.667 11964.7 115861 1241.27 -289159)
(-310806 2372.99 -11931.6 100907 3900.69 -328797)
(-53348 591.808 -5334.96 1994.16 3875.09 -373516)
(-51745.8 -108.608 5491.28 1142.4 3963.06 -368923)
(-287187 -2198.13 12160.9 103154 4210.34 -312248)
(-353879 7657.44 -11840.2 1726.94 9259.34 -370755)
(-85481.8 3012.04 -5308.71 -85144 9632.79 -422521)
(-83936.6 -3006.14 5477.45 -85409 9720.68 -417839)
(-330399 -7750.03 12083.1 5319.77 9544.34 -353888)
(-310737 11218.2 -11149.4 -328606 13049.1 -328498)
(-9490.32 5085.52 -4999.42 -385968 13845 -385750)
(-7803.89 -5127.76 5174.19 -381257 13922.3 -381030)
(-287655 -11376.7 11382.3 -311863 13273.8 -311792)
(-251948 11859.6 -5211.32 175242 -9963.64 30126.1)
(-31204.3 -10120.9 -1242.82 46927.1 -780.672 -36734.2)
(-30603.3 11369.5 1536.39 44229.8 7.32391 -37286.5)
(-231859 -10749.4 5390.51 170399 -7527.58 32689.7)
(-291243 -2441.52 -7561.51 29784.7 -2137.95 -38041.3)
(-110819 -4589.23 -2595.36 -31901 2388.46 -112124)
(-109477 5589.76 3104.01 -33790.9 2902.81 -112402)
(-268977 2884.53 7842.88 29759.7 -445.318 -34236)
(-297068 -3408.34 -7750.98 20440.6 -1507.89 -42797.7)
(-125193 -3053.78 -2749.31 -64137.7 -50.2312 -127518)
(-123855 3758.25 3322.76 -65634.8 320.506 -127879)
(-274389 3674.69 8057.8 21295.7 -237.418 -39266.9)
(-300987 -1858.24 -7787.98 22490.2 -1009.12 -39934.3)
(-123510 -2019.79 -2701.58 -81279.3 -604.203 -130279)
(-122170 2492.04 3274.02 -82595.5 -312.101 -130702)
(-277896 2054.89 8098.8 23747.2 3.67289 -36577.8)
(-312616 -244.051 -7904.59 22302.7 1368.97 -40938.3)
(-124221 -1022.61 -2745.04 -91023.5 1485.14 -134245)
(-122851 1298.03 3299.06 -92298.2 1731.88 -134715)
(-289082 367.825 8216.74 23738.1 2214.21 -37673.6)
(-338771 2355.51 -7973.09 10452.8 5054.69 -50183.8)
(-136720 437.398 -2809.35 -103483 5084.45 -146104)
(-135362 -383.218 3349.94 -104751 5297.66 -146636)
(-314888 -2357.19 8291.01 11980.4 5771.91 -47017.6)
(-388626 7935.59 -7847.08 -75378.6 8215.3 -76137.1)
(-171844 2955.08 -2801.01 -175529 8311.9 -175825)
(-170533 -3228.25 3313.12 -176163 8476.18 -176352)
(-364666 -8154.9 8161.36 -72406.8 8766.04 -72913.1)
(-354121 11880.5 -7525.71 -370862 9358.2 1470.38)
(-85498.1 5358.12 -2779.69 -422664 9706.59 -84857.4)
(-83915.9 -5448.91 3147.39 -417945 9789.5 -84975.9)
(-330427 -12081 7768.69 -353833 9620.53 5399.66)
(-217712 7729.42 -2165.46 133448 3384.32 78082.8)
(-26327.2 -11593.2 -75.2385 13921.7 11246.6 3295.59)
(-25691 12170.5 339.24 11422.8 11857.4 2510.08)
(-197772 -6914.56 2257.59 129682 5267.21 80418.5)
(-243092 -2690.85 -2899.17 36433.1 5615.71 43545.7)
(-79289.5 -4898.36 -500.417 -26403 9546.52 -42310.1)
(-77971.2 5367.16 943.741 -28317.1 10057.8 -43004.3)
(-221200 2923.38 3072.17 36385.9 7236.59 46613.3)
(-247643 -3209.34 -2696.32 36357.3 4211.88 36321)
(-90412.6 -3060.08 -447.41 -47255.4 5557.59 -60718.6)
(-89095 3327.9 912.055 -48819.2 5983.02 -61534.7)
(-225364 3301.48 2885.34 36980.4 5583 38968.8)
(-251774 -1829.87 -2532.11 39490.7 3116.8 36486.7)
(-89301.5 -2081.68 -322.378 -61357.2 3516.52 -66664.3)
(-87973.9 2207.15 761.027 -62743.8 3879.15 -67577.9)
(-229059 1889.44 2715.42 40487.3 4289.52 38840.2)
(-263239 -268.653 -2495.91 40062.5 3970.44 35344.1)
(-90340.6 -1132.89 -295.5 -69779.6 4091.74 -71320.7)
(-88968.9 1148.97 704.444 -71117.6 4406.56 -72312.4)
(-239997 292.903 2672.13 41259.5 4979.72 37513.8)
(-289007 2418.46 -2462.55 31321.5 5704.83 27895.6)
(-102397 365.009 -312.004 -79007.3 5723.23 -81728.2)
(-101013 -483.397 694.538 -80318.8 5989.53 -82800.5)
(-265243 -2483.67 2634.18 32678 6553.35 29928.5)
(-338821 8051.79 -2367.21 -48494.8 5772.73 8907.32)
(-136190 2933.38 -330.988 -144735 5749.91 -104170)
(-134821 -3292.61 650.481 -145381 5941.38 -105210)
(-314708 -8300.98 2519.55 -45588.2 6394.78 11071.5)
(-311086 11960.4 -2312.16 -328738 4306.56 100859)
(-52822.3 5365.59 -371.065 -373385 4239.48 2870.12)
(-51169.6 -5468.81 480.159 -368711 4312.48 2315.53)
(-287011 -12165.5 2376.92 -311893 4549.08 103891)
(-197621 5984.22 -726.728 116413 7447.38 76689.6)
(-24366.4 -12004.2 391.603 2714.28 12066.9 2146.26)
(-23722.5 12181.1 -154.943 493.658 12511.2 1516.15)
(-177914 -5392.91 788.644 113774 8818.24 79598)
(-217447 -2653.44 -835.718 32267 8835.65 55650.7)
(-67378.8 -4945.9 487.226 -30720.8 11198.6 -31188.4)
(-66087 5110.65 -83.3871 -32460.4 11616.8 -31726.4)
(-195939 2763.94 962.346 32673 10134.4 59203)
(-221202 -2941.94 -576.664 37613.1 7554.41 48696.2)
(-76218.3 -2972.87 627.21 -44798 8391.21 -48869.5)
(-74920 3007.6 -213.091 -46278 8771.33 -49530.6)
(-199326 2946.44 715.463 38395.9 8742.97 51800.8)
(-225488 -1701.3 -383.96 44663.3 5923.85 45661.1)
(-75205.6 -2048.35 747.795 -53721.1 6170.59 -57774.6)
(-73890.7 2000.52 -369.296 -55063.5 6513.23 -58543.7)
(-203165 1694.73 513.381 45704.1 6997.53 48427.4)
(-237030 -225.668 -303.766 47700.6 5216.75 42343)
(-76590.5 -1157.86 788.163 -59258.9 5299.15 -64661.7)
(-75224.8 1056.39 -447.703 -60561.3 5603.52 -65524)
(-214133 205.863 420.882 48917.6 6166.34 44877.7)
(-262695 2452.1 -270.765 40144.6 4821.4 35120.6)
(-88746.7 326.072 775.132 -67337.3 4856.43 -74960.7)
(-87356.7 -509.998 -473.653 -68609.5 5111.66 -75908.9)
(-239172 -2538.87 375.51 41543.7 5618.89 37505.2)
(-312019 8010.06 -257.913 -37995.1 3237.89 20395.1)
(-121844 2863.69 723.316 -131668 3237.57 -93094)
(-120447 -3250.2 -501.636 -132272 3414.65 -93991.6)
(-287965 -8263.22 335.058 -35014.8 3808.14 22961.8)
(-286940 11800.5 -284.853 -304959 1887.73 115785)
(-40336.7 5253.95 676.272 -346629 1762.9 17469.8)
(-38642.3 -5370.73 -663.639 -341944 1822.87 17086.9)
(-262699 -12007.9 276.403 -288117 2091.65 119281)
(-186169 5368.99 -248.64 108510 7175.11 72562.9)
(-24057.1 -11868.4 383.922 -1894.57 9549.15 -138.189)
(-23424.8 11812 -193.814 -3890.9 9865.77 -645.921)
(-166630 -4926.87 298.512 106757 8145.37 75902.5)
(-204137 -2535.85 -199.802 28412.3 8304.82 55670.5)
(-63665.6 -4851.49 596.304 -34177.7 9535.72 -28621)
(-62422.3 4835.76 -260.009 -35755.4 9847.34 -29014.3)
(-182908 2570.73 303.776 29276.3 9261.71 59652.6)
(-207667 -2737.66 -10.0891 35319.6 7767.46 49919.8)
(-71574.2 -2881.34 726.018 -45875 8207.18 -44425.7)
(-70319.9 2779.99 -375.827 -47267.1 8504.22 -44936.1)
(-186082 2692.26 125.35 36336.1 8684.68 53460.3)
(-212107 -1580.11 131.343 44634.4 6419.03 45727)
(-70654.3 -2001.94 808.526 -51811 6550.23 -54159.3)
(-69378.5 1857.36 -489.707 -53110.1 6828.06 -54779.9)
(-190066 1537.75 -24.6373 45784.7 7279.86 48916.4)
(-223746 -177.471 197.372 49471.6 5076.15 41255)
(-72279.9 -1157.69 833.793 -55293.8 5141.31 -62116)
(-70949.9 994.615 -553.471 -56572.9 5392.81 -62835.5)
(-201105 135.157 -103.902 50742.4 5854.79 44191.2)
(-249323 2453.06 211.292 42489.9 3670.83 34345)
(-84530 295.041 814.176 -62867.7 3739.74 -72145.2)
(-83169.5 -511.372 -577.068 -64124.5 3950.57 -72952.2)
(-225997 -2549.65 -133.04 43927.4 4328.13 37124.1)
(-298122 7927.36 185.602 -34485.7 1770.62 21597.8)
(-117236 2793.36 756.494 -126384 1830.04 -88384.5)
(-115855 -3195.8 -597.336 -126977 1974.24 -89132.5)
(-274156 -8182.38 -135.828 -31466.6 2237 24578.6)
(-274097 11632.3 136.202 -291720 917.283 116267)
(-37052.9 5149.91 705.599 -332092 852.964 21221.1)
(-35361.8 -5281.31 -723.61 -327402 900.346 20998.7)
(-249789 -11845.1 -160.229 -274855 1080 120196)
(-179312 5152.89 -114.535 104595 5600.84 70179.6)
(-24167.7 -11656.5 244.858 -4186.83 6771.48 -1312.74)
(-23543 11464.7 -108.629 -6020.6 6983.84 -1740.41)
(-159856 -4803.07 152.262 103477 6244.78 73817.9)
(-196605 -2433.27 -64.4618 26468.1 6314.41 54525.4)
(-62510.5 -4752.45 403.674 -35925.1 6922.27 -27769.3)
(-61303.6 4630.13 -155.273 -37381.5 7135.01 -28065.9)
(-175528 2422.62 144.092 27700 6962.26 58823.2)
(-200125 -2611.52 48.6317 33623.6 6169.51 49762.7)
(-70122.3 -2820.58 489.382 -46895.5 6388.34 -42092.5)
(-68902.8 2636.9 -224.991 -48216.7 6596.15 -42500.1)
(-178699 2536.25 41.0584 34859 6807.5 53634.9)
(-204677 -1502.02 132.136 43705.2 5279.38 45650.3)
(-69302.2 -1974.19 535.146 -51676.4 5352.14 -51538.7)
(-68057.8 1770.06 -292.456 -52940 5550.98 -52055.7)
(-182788 1438.11 -48.3761 44976.8 5893.37 49171.6)
(-216370 -147.294 171.325 49356 4037.23 40987.7)
(-71072.5 -1159.26 544.386 -54212.4 4094.45 -59638.4)
(-69771.9 957.108 -333.026 -55476.4 4277.03 -60256.3)
(-193864 91.0198 -98.5393 50690.8 4602.22 44247.4)
(-241849 2443.14 173.578 42745.4 2605.22 34301.7)
(-83370 271.109 524.624 -61474.6 2685.99 -69496.7)
(-82035.2 -510.325 -350.793 -62727.5 2839.68 -70203.1)
(-218625 -2546.76 -114.416 44219.2 3085.92 37399.1)
(-290220 7865.38 145.75 -33131.5 1053.97 22128.4)
(-115851 2749.4 480.347 -124134 1141.37 -85266.2)
(-114488 -3166.09 -369.612 -124729 1246.24 -85911)
(-266291 -8123.57 -110.256 -30086.1 1395.58 25430.3)
(-266557 11526.4 101.265 -283648 502.373 115502)
(-36350.7 5089.04 434.663 -323507 495.313 22956.8)
(-34668.5 -5233.57 -456.492 -318814 529.67 22842.5)
(-242187 -11745.5 -121.79 -266757 621.11 119755)
(-175317 5059.11 -63.1996 102666 3514.24 69040.8)
(-24280.7 -11516.5 123.107 -5377.98 4059.43 -1916.94)
(-23658.8 11250.6 -41.6448 -7106.69 4181.58 -2295.29)
(-155895 -4761.96 86.6153 101954 3881.4 72869.8)
(-192318 -2372.69 -40.2058 25647.5 3872.71 53793.8)
(-62094.9 -4692.46 206.125 -36752.9 4155.02 -27534.6)
(-60909 4510.96 -54.6342 -38129.4 4278.37 -27771.7)
(-171316 2336.64 90.1318 27130.8 4246.05 58299.8)
(-195871 -2544.27 16.0195 32771.1 3841.67 49620)
(-69626.4 -2789.55 250.466 -47493.4 3945.51 -41002.5)
(-68427 2558.49 -86.4874 -48765.7 4067.54 -41345.8)
(-174521 2451.96 40.9716 34168.7 4215.05 53716.1)
(-200486 -1461.16 57.2338 42981.4 3349.05 45895)
(-68878.1 -1963.17 271.594 -51948.5 3389.99 -49966.4)
(-67651.9 1723 -119.622 -53186.2 3508.27 -50418.1)
(-178671 1384.33 -3.46816 44351.5 3713.91 49644.2)
(-212197 -133.114 75.7615 48883.2 2542.53 41408.9)
(-70723.5 -1163.93 272.939 -54170.8 2584.4 -57884.3)
(-69439.8 936.318 -140.807 -55423.9 2694.03 -58437.4)
(-189756 67.7954 -29.001 50273.9 2882.2 44893.5)
(-237596 2434.61 74.4779 42497.1 1577.29 34845.5)
(-83041.3 256.185 259.385 -61244.1 1639.51 -67668.7)
(-81721.5 -512.195 -152.118 -62495.2 1732.24 -68311.2)
(-214417 -2543.63 -36.8514 44002.2 1868.31 38163.4)
(-285680 7832.6 57.1411 -32557.5 609.207 22713.7)
(-115396 2729.3 233.622 -123206 680.211 -83465.2)
(-114044 -3157.54 -166.83 -123804 743.597 -84045.9)
(-261761 -8094.1 -34.886 -29491.9 816.817 26233.8)
(-262104 11475.2 28.3692 -278857 270.915 115147)
(-36178 5062.01 202.308 -318547 284.687 23832.6)
(-34501.1 -5216.32 -217.143 -313853 305.488 23785.2)
(-237685 -11699.5 -40.8812 -261944 343.138 119618)
(-173455 5016.88 -21.3769 101869 1194.24 68598)
(-24326.5 -11454.8 36.5184 -5889.46 1355.37 -2184.89)
(-23705.3 11156.1 -9.43929 -7566.74 1395.22 -2539.44)
(-154045 -4743.62 29.2773 101354 1313.46 72520)
(-190332 -2347.55 -15.94 25362.2 1300.33 53495.3)
(-61927.7 -4667.43 61.0917 -37089.5 1383.72 -27499.1)
(-60751.2 4459.65 -10.2524 -38426.5 1424.1 -27707.5)
(-169359 2300.2 32.8889 26972.1 1422.14 58104.8)
(-193904 -2516.17 0.663046 32441.8 1294.25 49587.6)
(-69438.9 -2777.65 74.3613 -47759.7 1325.59 -40595)
(-68248.6 2524.93 -18.8488 -49007 1365.76 -40907)
(-172585 2416.12 18.8277 33924.4 1416.96 53796.4)
(-198547 -1444.51 12.8483 42630.7 1136.72 46121.1)
(-68725.1 -1960.24 80.317 -52153.1 1150.57 -49268)
(-67507.2 1702.86 -28.5712 -53377.2 1189.74 -49687.6)
(-176760 1361.54 5.64876 44054.9 1257.5 49986.3)
(-210261 -128 18.1091 48580.1 862.964 41795.4)
(-70601.1 -1167.49 80.073 -54303.4 878.476 -57031.9)
(-69325 926.999 -35.0516 -55550.5 914.952 -57553.3)
(-187844 58.1004 -1.99314 50002.7 976.063 45395.1)
(-235617 2430.46 17.3299 42295.1 530.59 35286.3)
(-82926.3 249.418 75.3741 -61290.7 553.61 -66789.2)
(-81613.2 -514.527 -38.985 -62540.7 584.551 -67400.4)
(-212454 -2542.49 -4.39783 43818.6 627.881 38716.8)
(-283558 7819.92 11.7316 -32335.7 205.032 23102.2)
(-115225 2722.61 67.1032 -122878 231.616 -82668.1)
(-113877 -3157.34 -44.6042 -123477 252.801 -83217.7)
(-259638 -8083.43 -4.09632 -29258.5 274.614 26732.8)
(-259987 11456.3 1.94736 -276603 87.7716 115080)
(-36096.3 5052.93 56.0314 -316251 95.3248 24203.6)
(-34421.5 -5212.46 -61.0618 -311556 102.283 24188.5)
(-235540 -11683.5 -6.07291 -259678 111.994 119660)
)
;

boundaryField
{
    interface
    {
        type            calculated;
        value           nonuniform List<symmTensor> 
192
(
(-49.2279 0.341304 3.14832 878336 19498.8 281347)
(-51.129 0.195532 4.94297 614774 -338.822 239903)
(-52.4072 -0.142173 5.42604 627148 -2328.37 246348)
(-53.1895 -0.55277 5.48627 657135 -994.906 256007)
(-53.2907 -0.901077 5.36239 686319 893.927 267067)
(-54.0617 -1.54634 5.16988 711571 3900.69 281866)
(-52.345 -2.01903 4.71893 669753 9259.34 297270)
(-55.7689 -4.39398 4.35724 314231 13049.1 314339)
(-47.8738 0.234621 1.57045 686174 -9963.64 541058)
(-48.8011 0.101116 2.64275 547536 -2137.95 479710)
(-49.5526 -0.209121 2.87225 548441 -1507.89 485203)
(-50.0896 -0.636629 2.8482 564422 -1009.12 501998)
(-49.9923 -1.01236 2.71808 588044 1368.97 524803)
(-50.7072 -1.73152 2.54876 617844 5054.69 557207)
(-48.7445 -2.25864 2.25734 599263 8215.3 598504)
(-52.3747 -4.7666 2.01693 297492 9358.2 669824)
(-50.6126 0.198743 1.24737 582338 3384.32 526973)
(-51.44 0.0572523 2.07912 488490 5615.71 495603)
(-52.1897 -0.256158 2.25362 497734 4211.88 497698)
(-52.7324 -0.716701 2.23089 514411 3116.8 511407)
(-52.5328 -1.13672 2.12601 538302 3970.44 533584)
(-53.1474 -1.9418 1.98858 570889 5704.83 567463)
(-50.7113 -2.55124 1.77106 559204 5772.73 616606)
(-54.1244 -5.23876 1.58057 282564 4306.56 712162)
(-50.7805 0.146943 0.775491 527174 7447.38 487451)
(-51.4133 -0.0132 1.35973 444265 8835.65 467648)
(-52.0019 -0.329336 1.4753 458358 7554.41 469441)
(-52.4528 -0.803368 1.44752 478807 5923.85 479804)
(-52.1514 -1.24517 1.36334 505005 5216.75 499647)
(-52.7038 -2.08965 1.25875 538538 4821.4 533514)
(-50.1084 -2.73644 1.11619 528181 3237.89 586571)
(-53.491 -5.47596 0.994886 268337 1887.73 689081)
(-51.5907 0.123128 0.571337 496793 7175.11 460845)
(-52.163 -0.0553037 1.00118 417345 8304.82 444604)
(-52.681 -0.382266 1.0869 432804 7767.46 447405)
(-53.0884 -0.871647 1.06636 455501 6419.03 456594)
(-52.7135 -1.33526 1.00418 483457 5076.15 475241)
(-53.1934 -2.21339 0.925935 517358 3670.83 509214)
(-50.4178 -2.89479 0.824296 507563 1770.62 563647)
(-53.675 -5.68377 0.735064 258514 917.283 666502)
(-51.7853 0.104067 0.353302 479358 5600.84 444942)
(-52.3046 -0.089051 0.636778 401719 6314.41 429776)
(-52.7595 -0.424567 0.693547 417380 6169.51 433519)
(-53.126 -0.923188 0.678436 440858 5279.38 442803)
(-52.7013 -1.39942 0.635967 469599 4037.23 461231)
(-53.1407 -2.29537 0.583349 503684 2605.22 495240)
(-50.2813 -2.99528 0.519327 494427 1053.97 549687)
(-53.4964 -5.81036 0.464149 252282 502.373 651433)
(-52.0498 0.0951466 0.208414 469622 3514.24 435996)
(-52.5495 -0.108087 0.374732 393040 3872.71 421186)
(-52.9715 -0.451113 0.408373 408664 3841.67 425513)
(-53.3152 -0.95695 0.399637 432281 3349.05 435195)
(-52.8576 -1.44262 0.37497 461247 2542.53 453773)
(-53.2641 -2.35095 0.343763 495413 1577.29 487762)
(-50.3377 -3.06403 0.307064 486575 609.207 541846)
(-53.5064 -5.89805 0.273907 248574 270.915 642579)
(-52.1092 0.0892935 0.0623066 465224 1194.24 431953)
(-52.5951 -0.118905 0.11571 389134 1300.33 417267)
(-52.9984 -0.465029 0.126606 404715 1294.25 421861)
(-53.3298 -0.973514 0.123544 428315 1136.72 431806)
(-52.8588 -1.46317 0.115515 457312 862.964 450528)
(-53.2507 -2.37627 0.105341 491503 530.59 484494)
(-50.3044 -3.09544 0.0941769 482880 205.032 538318)
(-53.45 -5.93754 0.0836319 246831 87.7716 638514)
(331918 18360.9 -4.57406 910815 -0.951075 -19.5879)
(285388 -1593.25 -7.5016 645368 -1.00279 -14.9125)
(291689 -3315.29 -8.37627 657941 -0.732792 -11.5394)
(304236 -1732.14 -8.58277 688929 -0.504484 -10.5959)
(317726 -119.736 -8.58715 718952 -0.419345 -10.8416)
(332814 2372.99 -8.59551 744527 -0.468985 -11.9965)
(347713 7657.44 -8.61564 703318 -0.578525 -14.3081)
(367565 11218.2 -9.26039 349697 -0.795047 -16.3568)
(609079 -9220.15 -2.93706 780706 -0.537384 -24.9097)
(527772 -4315.01 -5.37584 614857 -0.673433 -23.851)
(531510 -2891.87 -6.02725 606043 -0.473143 -22.8406)
(553622 -1848.03 -6.14106 617635 -0.24094 -22.6334)
(580583 -838.98 -6.14327 639294 -0.103516 -22.7679)
(612275 591.808 -6.20508 667617 -0.0396016 -23.228)
(647807 3012.04 -6.39597 648145 -0.0516468 -23.9934)
(715846 5085.52 -7.28389 339368 -0.135963 -24.5493)
(602593 11512.9 -3.07459 771138 -0.352688 -21.8361)
(521411 6336.48 -5.63586 605593 -0.463925 -21.0305)
(524790 4472.82 -6.35828 596639 -0.30282 -20.1204)
(546701 3019.53 -6.49309 608181 -0.0700216 -19.901)
(573563 1666.26 -6.47985 629781 0.0994266 -20.0541)
(605130 -108.608 -6.49244 658019 0.238989 -20.4876)
(640441 -3006.14 -6.59855 638968 0.324067 -21.327)
(708743 -5127.76 -7.41012 335290 0.333449 -22.2633)
(327620 -16843.1 -3.58485 882280 -0.268181 -22.4238)
(281995 2492.67 -6.61457 620623 -0.341453 -21.9313)
(287772 3966.13 -7.51714 632792 -0.185466 -21.2008)
(300089 2225.45 -7.70087 663540 0.055297 -21.0745)
(313498 471.667 -7.67632 693390 0.235173 -21.2478)
(328375 -2198.13 -7.67699 718715 0.414031 -21.5535)
(342600 -7750.03 -7.68449 678319 0.554955 -22.1268)
(362696 -11376.7 -8.49849 338488 0.704481 -22.7927)
(-10.3284 0.930975 1.32259 839718 20616.8 261115)
(-6.48787 0.867827 2.37551 579004 487.735 218633)
(-3.83265 0.325486 2.63834 591127 -1755.76 224660)
(-2.78165 -0.254085 2.69647 620787 -568.932 233910)
(-2.78275 -0.560077 2.69542 649658 1241.27 244638)
(-1.75185 -1.01758 2.83625 674756 4210.34 259354)
(-3.14985 -1.00085 2.88104 634565 9544.34 275357)
(5.88833 -3.29601 3.35926 293280 13273.8 293351)
(-16.6569 0.353785 -0.0574072 646292 -7527.58 508582)
(-15.8484 0.304217 0.255555 510588 -445.318 446592)
(-15.1487 -0.00273457 0.25556 511572 -237.418 451010)
(-14.6393 -0.373968 0.240373 527156 3.67289 466831)
(-14.6267 -0.519032 0.270578 550169 2214.21 488757)
(-13.025 -0.854274 0.461198 579402 5771.91 520404)
(-13.4361 -0.588966 0.671521 562104 8766.04 561598)
(-3.08816 -2.82896 1.09993 275424 9620.53 634657)
(-16.7906 0.186887 0.16564 544115 5267.21 494851)
(-16.1791 0.0992487 0.564393 452235 7236.59 462462)
(-15.5913 -0.114303 0.662939 461355 5583 463343)
(-14.9678 -0.401926 0.692636 477557 4289.52 475910)
(-14.8254 -0.463651 0.728159 500718 4979.72 496972)
(-12.8028 -0.744119 0.858934 532519 6553.35 529770)
(-12.8997 -0.371096 0.972826 521764 6394.78 578424)
(-1.50293 -2.78173 1.17099 259644 4549.08 675428)
(-18.5186 0.0835798 0.0561727 490747 8818.24 456570)
(-18.1949 -0.031571 0.381697 409227 10134.4 435757)
(-17.8686 -0.187366 0.475252 422917 8742.97 436322)
(-17.248 -0.406195 0.50458 442748 6997.53 445471)
(-17.0073 -0.391057 0.532996 468109 6166.34 464069)
(-14.6172 -0.614846 0.626007 500706 5618.89 496668)
(-14.3161 -0.161132 0.700509 491005 3808.14 548982)
(-2.19923 -2.64098 0.815929 245181 2091.65 652579)
(-18.7549 0.066494 0.135326 461721 8145.37 430866)
(-18.4351 -0.0613807 0.424268 383304 9261.71 413680)
(-18.1115 -0.201324 0.520005 398144 8684.68 415268)
(-17.4178 -0.398615 0.551072 420082 7279.86 423213)
(-17.0991 -0.351546 0.569669 447094 5854.79 440543)
(-14.5075 -0.556543 0.621043 479943 4328.13 473140)
(-14.0592 -0.0740323 0.647326 470622 2237 526667)
(-1.53906 -2.63853 0.686504 235289 1080 630340)
(-19.2528 0.0593041 0.0865028 445190 6244.78 415531)
(-18.9496 -0.073622 0.289285 368353 6962.26 399477)
(-18.6365 -0.205258 0.360232 383250 6807.5 402026)
(-17.8981 -0.389822 0.383267 405858 5893.37 410053)
(-17.5184 -0.32086 0.395881 433568 4602.22 427124)
(-14.7704 -0.512233 0.427634 466512 3085.92 459692)
(-14.1866 -0.0104158 0.441319 457608 1395.58 513124)
(-1.37099 -2.62496 0.46087 228994 621.11 615506)
(-19.3622 0.0610151 0.0688459 436001 3881.4 406917)
(-19.0477 -0.0737914 0.193704 360089 4246.05 391258)
(-18.7205 -0.203192 0.238024 374861 4215.05 394409)
(-17.9463 -0.384033 0.25222 397537 3713.91 402830)
(-17.5301 -0.305818 0.25913 425411 2882.2 420030)
(-14.6981 -0.492634 0.274378 458378 1868.31 452539)
(-14.0545 0.0166913 0.27862 449818 816.817 505543)
(-1.06807 -2.63394 0.282962 225242 343.138 606804)
(-19.4819 0.0605767 0.0173589 431860 1313.46 403026)
(-19.1677 -0.0746375 0.0573686 356380 1422.14 387512)
(-18.8359 -0.202286 0.071958 371068 1416.96 390940)
(-18.0455 -0.380655 0.0766193 393692 1257.5 399624)
(-17.608 -0.297616 0.0792026 421566 976.063 416958)
(-14.7332 -0.481289 0.0843524 454528 627.881 449427)
(-14.0482 0.031648 0.0866459 446148 274.614 502140)
(-0.982554 -2.63504 0.0881889 223473 111.994 602812)
(367857 9.31291 -11149.4 -16.002 -0.714478 350096)
(347951 8.68773 -7525.71 -13.761 -0.495715 703542)
(333209 8.69929 -2312.16 -11.0601 -0.350506 745154)
(319140 8.7392 -284.853 -9.31826 -0.227538 721865)
(308582 8.82982 136.202 -7.98099 -0.169395 698947)
(301442 8.8857 101.265 -7.03862 -0.104832 683501)
(297135 8.93217 28.3692 -6.44256 -0.064788 674386)
(295129 8.95252 1.94736 -6.15472 -0.0193241 670196)
(716137 7.31713 -4999.42 -24.2533 -0.0406662 339878)
(648196 6.43234 -2779.69 -23.5875 0.0463549 648836)
(613298 6.24575 -371.065 -22.5735 0.0976395 668990)
(583976 6.18455 676.272 -21.8094 0.102512 641782)
(562657 6.18881 705.599 -21.1687 0.0838739 620931)
(548351 6.18872 434.663 -20.6972 0.0645625 607659)
(539726 6.19823 202.308 -20.3897 0.0379662 599737)
(535708 6.20128 56.0314 -20.2278 0.014034 596007)
(708996 7.44146 5174.19 -21.9773 0.437681 335770)
(640768 6.62548 3147.39 -20.9251 0.431811 639708)
(606029 6.51959 480.159 -19.8376 0.386111 659514)
(576759 6.51119 -663.639 -19.0959 0.309661 632488)
(555432 6.5463 -723.61 -18.4408 0.23941 611792)
(541111 6.56468 -456.492 -18.0013 0.167108 598622)
(532475 6.58436 -217.143 -17.6979 0.0988685 590762)
(528452 6.59144 -61.0618 -17.5578 0.0326852 587062)
(362827 8.51071 11382.3 -22.5329 0.810267 338691)
(342716 7.69037 7768.69 -21.7714 0.664422 678543)
(328664 7.68109 2376.92 -21.0078 0.557455 719566)
(314821 7.69095 276.403 -20.4889 0.432325 696802)
(304312 7.7579 -160.229 -19.968 0.334162 674297)
(297204 7.79155 -121.79 -19.6486 0.229666 659146)
(292919 7.82445 -40.8812 -19.409 0.137676 650222)
(290926 7.83729 -6.07291 -19.2999 0.0449345 646127)
)
;
    }
    symmetry
    {
        type            symmetry;
    }
    bottom
    {
        type            calculated;
        value           nonuniform List<symmTensor> 
32
(
(-746987 60996 -7186.62 44042.6 58213.6 -765079)
(-504574 43025.5 -5211.32 23620.1 -17250.5 -222499)
(-429591 31642.9 -2165.46 -1247.74 -2582.65 -133797)
(-394955 26644.4 -726.728 -8444.6 4513.79 -120644)
(-375993 24649.6 -248.64 -11034.5 5793.05 -117261)
(-365023 23784.2 -114.535 -12339.7 4942.58 -115531)
(-358784 23355.8 -63.1996 -12938.7 3217.14 -114426)
(-355915 23164.8 -21.3769 -13150.5 1108.91 -113862)
(-232719 -9592.18 -2857.27 53008.9 53118.2 -553398)
(-79065.5 -11917 -1242.82 19121.2 -6780.17 -84595.4)
(-51692.4 -14522 -75.2385 -4280.5 6934.44 -22069.6)
(-45438.5 -15267.3 391.603 -9919.76 10104.8 -18925.8)
(-43616 -15134.7 383.922 -12095 8635.04 -19697.2)
(-43213.1 -14867.3 244.858 -13732.5 6325.84 -20358.1)
(-43140.5 -14687.4 123.107 -14784.4 3854.5 -20776.7)
(-43117.4 -14607.6 36.5184 -15266 1296.21 -20975.9)
(-229715 11136.9 2832.27 52534.4 53355.3 -547491)
(-78540.7 12272.2 1536.39 16182.9 -5855.85 -85223.9)
(-51210.7 14176.8 339.24 -6996.15 7632.19 -23009.6)
(-44953 14565.6 -154.943 -12334.4 10602.8 -19714.4)
(-43149.6 14253.2 -193.814 -14281.9 8986.91 -20370.8)
(-42759.8 13893.5 -108.629 -15755.6 6561.03 -20957.2)
(-42693.4 13668.2 -41.6448 -16701.5 3989.57 -21329.8)
(-42672.7 13570 -9.43929 -17131.3 1340.24 -21506.8)
(-718289 -59320.1 7271.11 45209.4 59362.3 -742231)
(-481612 -41734.7 5390.51 19171.5 -14404.3 -217064)
(-406803 -30706.8 2257.59 -4049.97 -452.769 -128612)
(-372380 -25987.4 788.644 -9773.72 6039.89 -114868)
(-353613 -24171.9 298.512 -11300.2 6865.56 -111081)
(-342748 -23412.1 152.262 -11861.6 5652.02 -109074)
(-336558 -23041.7 86.6153 -11991.5 3620.99 -107792)
(-333707 -22876.4 29.2773 -11977.2 1239.96 -107143)
)
;
    }
}


// ************************************************************************* //
