/*--------------------------------*- C++ -*----------------------------------*\
| =========                 |                                                 |
| \\      /  F ield         | OpenFOAM: The Open Source CFD Toolbox           |
|  \\    /   O peration     | Version:  v1912                                 |
|   \\  /    A nd           | Website:  www.openfoam.com                      |
|    \\/     M anipulation  |                                                 |
\*---------------------------------------------------------------------------*/
FoamFile
{
    version     2.0;
    format      ascii;
    class       volScalarField;
    location    "0.45/solid";
    object      sigmaEq;
}
// * * * * * * * * * * * * * * * * * * * * * * * * * * * * * * * * * * * * * //

dimensions      [1 -1 -2 0 0 0 0];


internalField   nonuniform List<scalar> 
256
(
590110
434455
429592
569022
368112
328606
324140
350522
374303
319819
315352
356850
393685
325622
321187
376279
411043
337520
333089
393611
421578
351312
346859
404089
365507
337786
333770
349336
39732.5
377334
374330
43472.4
377305
82951.3
80868.2
354943
293408
80207.2
78142.5
272821
291468
62656.2
60958.4
270971
297551
46371.8
45029.9
276841
308516
39594.2
38515.1
287463
323640
40080.5
39084.3
302262
313788
16485
17678.6
293083
365423
338067
334108
349405
327359
45693.4
44638.3
306208
283398
50545.9
48420.4
263250
284169
39801.1
37613.9
263631
289875
26667.5
24483.8
268891
301080
21160.9
19038.7
279574
318839
24286
22199.9
296839
323359
38694.7
37956.6
302048
421644
351932
347596
404565
296641
39848.4
39077.2
276773
262679
42157
40487
243652
264905
33388.9
31557.3
245224
270863
22790.8
20993.6
250554
282235
18057.3
16279.6
261273
300506
20643.2
18647.7
278924
307771
35540.6
34928.2
286808
412550
339051
334811
395867
278883
35068
34149.3
259864
247765
37533.2
36022.1
229494
251012
30468.9
28830.1
231991
257544
21425.1
19779.3
237782
269348
17452.6
15716.7
248843
287929
19964.1
17919.8
266730
296029
34859.7
34328.1
275421
399979
328208
324054
383687
268684
31784.9
30676.2
250200
238631
34671.7
33151.3
220813
242500
28655.4
27025.7
223892
249541
20288
18568.7
230131
261736
16656.4
14725.4
241530
280536
19768.8
17597.7
259594
289040
35841.7
35345.4
268686
391396
321069
316972
375385
263005
29700
28442
244839
233448
32844.8
31274.7
215890
237649
27311.1
25628.2
219281
245019
19244.6
17402.2
225819
257463
15831.5
13702.3
237438
276393
19616.8
17364.2
255609
285134
36794.9
36325.8
264945
386413
316790
312728
370584
260441
28654.8
27314.4
242422
231096
31909.6
30304.1
213658
235439
26553.4
24828
217183
242963
18608.7
16683.8
223863
255521
15330.2
13086.4
235583
274508
19506.2
17219.6
253800
283367
37283.8
36831.9
263259
384158
314790
310746
368420
)
;

boundaryField
{
    interface
    {
        type            calculated;
        value           nonuniform List<scalar> 
192
(
777631
536711
547328
573748
599265
620736
581506
315152
626638
517033
519771
535996
559167
589983
599101
581560
556805
492233
497821
512997
536055
569323
590138
621204
508692
456714
464235
479469
502481
536162
559743
601659
480042
431912
440544
456237
479535
513427
537862
582071
463263
416653
425866
441981
465577
499589
524299
568960
453837
407950
417450
433837
457630
491693
516484
561263
449570
403995
413613
430129
454013
488091
512901
557735
799045
560167
571050
598001
624038
646008
609261
359507
710814
576343
572472
588277
612079
641763
648021
620302
702508
568326
564230
579934
603665
633254
639748
614169
773032
538256
548822
575546
601428
623226
587624
351793
745206
506421
516830
543034
568313
589588
551396
294209
589784
481805
484156
499746
522207
552375
562070
551478
521328
457622
462469
476809
498945
531284
552402
590178
474846
423499
430061
444299
466242
498809
522468
570954
447334
399700
407272
421862
443988
476652
501030
551708
431281
385068
393170
408117
430473
463185
487762
538833
422284
376733
385095
400279
422793
455512
480128
531290
418215
372949
381419
396715
419302
452015
476631
527836
359840
609448
646544
626557
606692
593306
585413
581786
620541
648558
642979
614943
593964
580304
572117
568282
614378
640283
634485
606567
585669
572058
563900
560079
351956
587818
623970
604399
584898
571771
564044
560500
)
;
    }
    symmetry
    {
        type            symmetry;
    }
    bottom
    {
        type            calculated;
        value           nonuniform List<scalar> 
32
(
813541
464857
383808
347570
328076
316876
310608
307772
533730
103840
49978.7
45042.8
41509.7
38743
36903.1
35978.6
528464
101055
47763.7
43029.2
39325.7
36387.9
34422.6
33430.1
789347
440708
361113
326431
308014
297506
291649
289005
)
;
    }
}


// ************************************************************************* //
