/*--------------------------------*- C++ -*----------------------------------*\
| =========                 |                                                 |
| \\      /  F ield         | OpenFOAM: The Open Source CFD Toolbox           |
|  \\    /   O peration     | Version:  v1912                                 |
|   \\  /    A nd           | Website:  www.openfoam.com                      |
|    \\/     M anipulation  |                                                 |
\*---------------------------------------------------------------------------*/
FoamFile
{
    version     2.0;
    format      ascii;
    class       volScalarField;
    location    "0.45/solid";
    object      T;
}
// * * * * * * * * * * * * * * * * * * * * * * * * * * * * * * * * * * * * * //

dimensions      [0 0 0 1 0 0 0];


internalField   nonuniform List<scalar> 
256
(
291.665
292.277
292.282
291.687
291.409
292.128
292.133
291.433
291.375
292.109
292.115
291.401
291.347
292.095
292.1
291.374
291.303
292.071
292.077
291.33
291.223
292.024
292.03
291.25
291.009
291.861
291.867
291.036
290.005
290.9
290.911
290.046
292.343
292.874
292.874
292.353
292.206
292.84
292.84
292.215
292.188
292.836
292.836
292.198
292.173
292.834
292.834
292.184
292.149
292.83
292.831
292.161
292.102
292.818
292.818
292.114
291.942
292.719
292.72
291.955
291.009
291.861
291.867
291.036
292.46
292.939
292.938
292.469
292.348
292.921
292.921
292.356
292.332
292.919
292.919
292.341
292.319
292.918
292.918
292.329
292.297
292.916
292.916
292.307
292.253
292.907
292.907
292.264
292.102
292.818
292.818
292.114
291.222
292.024
292.03
291.25
292.497
292.945
292.945
292.505
292.39
292.93
292.929
292.398
292.375
292.928
292.928
292.384
292.362
292.927
292.927
292.371
292.34
292.925
292.925
292.35
292.297
292.916
292.916
292.307
292.149
292.83
292.831
292.161
291.302
292.071
292.077
291.33
292.515
292.947
292.947
292.523
292.411
292.932
292.931
292.419
292.397
292.93
292.93
292.405
292.384
292.929
292.929
292.392
292.362
292.927
292.927
292.371
292.318
292.918
292.918
292.328
292.172
292.834
292.834
292.184
291.345
292.094
292.1
291.373
292.525
292.948
292.947
292.533
292.423
292.933
292.932
292.431
292.409
292.931
292.931
292.416
292.396
292.93
292.93
292.404
292.374
292.928
292.928
292.383
292.331
292.919
292.919
292.34
292.186
292.836
292.836
292.197
291.371
292.107
292.113
291.399
292.531
292.948
292.948
292.539
292.43
292.933
292.933
292.437
292.415
292.932
292.931
292.423
292.402
292.931
292.93
292.411
292.381
292.928
292.928
292.39
292.337
292.92
292.919
292.347
292.193
292.837
292.837
292.205
291.386
292.115
292.121
291.414
292.534
292.948
292.948
292.541
292.433
292.934
292.933
292.44
292.419
292.932
292.931
292.426
292.405
292.931
292.93
292.413
292.384
292.929
292.928
292.392
292.341
292.92
292.92
292.35
292.197
292.838
292.838
292.208
291.393
292.118
292.124
291.42
)
;

boundaryField
{
    interface
    {
        type            fixedValue;
        value           nonuniform List<scalar> 
192
(
290.141
289.964
289.905
289.834
289.725
289.546
289.194
288.212
290.934
290.829
290.783
290.725
290.635
290.481
290.159
289.193
291.217
291.129
291.088
291.033
290.947
290.796
290.48
289.544
291.357
291.274
291.234
291.18
291.094
290.945
290.633
289.721
291.437
291.356
291.316
291.263
291.178
291.029
290.72
289.826
291.484
291.405
291.365
291.312
291.227
291.079
290.772
289.891
291.511
291.432
291.393
291.34
291.255
291.107
290.802
289.929
291.524
291.445
291.406
291.353
291.268
291.121
290.816
289.946
290.056
289.881
289.821
289.749
289.64
289.46
289.104
288.117
290.716
290.604
290.556
290.498
290.408
290.253
289.925
288.934
290.741
290.631
290.585
290.527
290.438
290.283
289.956
288.97
290.144
289.974
289.918
289.848
289.741
289.562
289.208
288.233
290.256
290.087
290.031
289.962
289.856
289.678
289.326
288.355
291.038
290.937
290.894
290.839
290.751
290.6
290.279
289.325
291.319
291.234
291.195
291.143
291.06
290.913
290.6
289.678
291.456
291.376
291.338
291.288
291.205
291.06
290.751
289.855
291.534
291.456
291.419
291.369
291.287
291.142
290.838
289.961
291.58
291.503
291.467
291.416
291.335
291.191
290.889
290.026
291.607
291.53
291.494
291.444
291.362
291.219
290.92
290.064
291.619
291.543
291.506
291.456
291.375
291.232
290.933
290.081
288.116
289.102
289.457
289.635
289.741
289.806
289.844
289.862
288.934
289.924
290.251
290.404
290.492
290.545
290.576
290.591
288.969
289.955
290.281
290.435
290.523
290.576
290.607
290.621
288.233
289.207
289.561
289.739
289.845
289.91
289.948
289.966
)
;
    }
    symmetry
    {
        type            symmetry;
    }
    bottom
    {
        type            fixedValue;
        value           uniform 293;
    }
}


// ************************************************************************* //
