/*--------------------------------*- C++ -*----------------------------------*\
| =========                 |                                                 |
| \\      /  F ield         | OpenFOAM: The Open Source CFD Toolbox           |
|  \\    /   O peration     | Version:  v1912                                 |
|   \\  /    A nd           | Website:  www.openfoam.com                      |
|    \\/     M anipulation  |                                                 |
\*---------------------------------------------------------------------------*/
FoamFile
{
    version     2.0;
    format      ascii;
    class       volVectorField;
    location    "0.56/solid";
    object      heatFlux;
}
// * * * * * * * * * * * * * * * * * * * * * * * * * * * * * * * * * * * * * //

dimensions      [1 0 -3 0 0 0 0];


internalField   nonuniform List<vector> 
256
(
(-69511.3 63922 -73774.1)
(-12851.4 35881.5 -71283.4)
(12069.7 35606.7 -70263)
(64656.5 62501 -70672)
(-67680.5 7505.35 -72168.6)
(-15463.9 4526.77 -71883.1)
(14549.8 4493.46 -70805.8)
(62569.1 7367.54 -68940.3)
(-68931.9 1651.17 -73499.1)
(-15863.3 937.208 -73367.2)
(14910.4 925.056 -72242.3)
(63705.9 1598.22 -70145.2)
(-70852.5 1788.17 -75445.1)
(-16190 986.381 -75357.4)
(15210.8 979.17 -74202.6)
(65517.5 1750.88 -72008.5)
(-73664.1 3053.39 -78269.3)
(-16672.3 1821.35 -78337.8)
(15674.9 1816.42 -77163.9)
(68236.9 3029.4 -74777.7)
(-77907.2 7183.2 -82552.4)
(-17427 5350.72 -83111.4)
(16418.9 5336.41 -81920.2)
(72414.4 7150.66 -79011.9)
(-83328.1 26502 -88168.6)
(-18519.1 24953.8 -90017.6)
(17474.9 24803.5 -88804)
(77799.6 26105.1 -84567)
(-80876.2 86430.6 -86372)
(-19125.5 90516.5 -90471)
(17570.2 89330.2 -89294)
(75155 82934.1 -82909.2)
(-64708.6 32666.3 -16969.4)
(-11250.5 7629.87 -14330.3)
(10887 7596.45 -14212.5)
(60053.3 31935.2 -16628.4)
(-65265.5 4168.54 -20606.3)
(-13819.3 1212.69 -17752.4)
(13418.3 1210.47 -17606.9)
(60442.4 4117.64 -20186.3)
(-66687.3 906.743 -21113.7)
(-14208.5 208.451 -18234.4)
(13792 205.697 -18081.9)
(61753.3 877.07 -20675.5)
(-68656.5 986.399 -21480.9)
(-14520.4 192.983 -18579)
(14086.9 190.027 -18423.3)
(63604.7 956.108 -21036.5)
(-71633.5 1816.57 -22016.5)
(-15004.9 515.186 -19110.2)
(14555.1 511.959 -18953.3)
(66464.7 1788.93 -21573.6)
(-76392 5258.19 -22868.8)
(-15825 3103.01 -20031.4)
(15360.7 3088.81 -19874.5)
(71114.5 5214.04 -22434.8)
(-83178.1 24290 -24274.2)
(-17174.3 21747.5 -21741.1)
(16666.1 21589.6 -21585.3)
(77816.1 23858.5 -23856)
(-83374.3 88262.4 -26482.1)
(-18525.4 90091.5 -24944.3)
(17471.7 88861.9 -24796.9)
(77801.8 84607.4 -26101.2)
(-57597.6 26346.3 -3671.43)
(-10094.4 3798.83 -1855.83)
(9771.54 3787.29 -1844.92)
(53075.2 25686.3 -3627.98)
(-58448.5 3361.04 -4585.19)
(-12464.5 622.623 -2448.22)
(12116 624.014 -2433.83)
(53771 3320.49 -4529.95)
(-59809 776.545 -4692.16)
(-12831.5 110.634 -2521.1)
(12469.4 108.656 -2506.04)
(55020.6 748.001 -4635.22)
(-61708.8 885.458 -4741.86)
(-13132.4 110.598 -2556.26)
(12753.3 107.732 -2541.04)
(56796.7 852.751 -4685.61)
(-64637.1 1665.55 -4805.91)
(-13609.2 368.938 -2609.85)
(13211.6 365.269 -2594.78)
(59590.4 1631.12 -4752.91)
(-69411.5 4925.42 -4913.11)
(-14432.7 2719.83 -2718.56)
(14015.5 2704.45 -2704.04)
(64221.3 4868.27 -4867.35)
(-76450.1 22888.7 -5245.19)
(-15830.1 20040.9 -3101.4)
(15360 19881 -3088.17)
(71120.6 22438.7 -5212.94)
(-78013.5 82699.4 -7159.24)
(-17440.4 83228.5 -5340.69)
(16413.3 82011.1 -5329.56)
(72422.3 79075.8 -7145.45)
(-53053.8 24409.6 -1306.3)
(-9423.96 3325.82 -253.433)
(9114.89 3317.69 -251.122)
(48643.2 23777.3 -1284.87)
(-53882.6 3147.81 -1585.02)
(-11668 547.414 -335.76)
(11336.6 549.348 -332.694)
(49324.3 3110.4 -1558.54)
(-55195.8 750.064 -1612.48)
(-12022.4 100.418 -344.767)
(11677.9 98.4881 -341.612)
(50527.7 721.417 -1585.51)
(-57060.3 872.652 -1620.02)
(-12319.6 104.237 -347.476)
(11957.6 101.286 -344.342)
(52264.8 838.42 -1593.62)
(-59961.4 1645.33 -1627.27)
(-12793.8 352.884 -351.555)
(12412.1 348.954 -348.53)
(55020.5 1607.19 -1602.65)
(-64715.2 4818.91 -1647.03)
(-13615.9 2611.47 -367.534)
(13211.9 2595.43 -364.79)
(59608.3 4754 -1626.36)
(-71773.1 22043.9 -1795.71)
(-15017.3 19125.4 -512.632)
(14554.6 18964.1 -510.61)
(66488.8 21580.4 -1783.28)
(-73856.3 78496 -3013.47)
(-16695.7 78521.4 -1803.41)
(15666.9 77308.2 -1802.92)
(68261.6 74881 -3015.07)
(-50344.8 23454.9 -683.574)
(-9039.25 3209.64 -75.4016)
(8740.1 3203.48 -73.994)
(46011.6 22842.9 -668.608)
(-51148.9 3054.87 -815.93)
(-11212.2 531.288 -96.7957)
(10893.2 533.524 -94.9244)
(46673.2 3019.85 -797.296)
(-52439.6 741.542 -826.813)
(-11560.6 98.918 -98.6499)
(11228.7 97.0083 -96.7272)
(47854.9 712.926 -807.783)
(-54289.7 870.66 -828.041)
(-11856.8 103.81 -98.7612)
(11507.2 100.814 -96.8513)
(49574.9 835.608 -809.325)
(-57178.4 1638.54 -829.175)
(-12330.4 348.88 -99.0757)
(11960.5 344.821 -97.2209)
(52310.6 1598.38 -811.451)
(-61909.7 4756.98 -839.443)
(-13150.5 2558.76 -104.809)
(12756.7 2542.37 -103.098)
(56862.3 4687.65 -823.92)
(-68927.9 21522.3 -931.918)
(-14545 18605 -181.965)
(14089.4 18442.9 -180.648)
(63680.2 21050 -921.205)
(-71181.7 75804.9 -1686.94)
(-16229.8 75658.1 -932.813)
(15201.6 74445.3 -932.484)
(65590.3 72187.8 -1685.51)
(-48720 22910.1 -388.761)
(-8814.38 3153.62 -38.1056)
(8521.68 3148.78 -37.1962)
(44433.1 22311.4 -379.415)
(-49511.1 3004.58 -461.201)
(-10947 524.166 -48.2203)
(10636.1 526.614 -47.0003)
(45085 2971.23 -449.425)
(-50791.5 737.953 -466.433)
(-11292.3 98.4528 -48.9649)
(10968.7 96.5613 -47.7071)
(46256.7 709.388 -454.371)
(-52635.5 870.29 -466.46)
(-11588.4 103.811 -48.8883)
(11247 100.792 -47.6365)
(47968.5 834.752 -454.582)
(-55516.6 1633.93 -466.961)
(-12061.8 346.836 -48.9424)
(11699.7 342.706 -47.7214)
(50691.8 1592.59 -455.662)
(-60227.1 4716.17 -474.336)
(-12879.6 2528.58 -52.101)
(12492.8 2512 -50.9592)
(55214.2 4644.25 -464.298)
(-67196.5 21196.4 -533.078)
(-14266 18297.4 -96.1655)
(13815.4 18134.7 -95.2347)
(61969.3 20718.8 -525.82)
(-69495.5 74101.8 -992.866)
(-15941.3 73901 -535.819)
(14914.2 72687.8 -535.445)
(63903.5 70481.1 -991.236)
(-47787.6 22605 -203.077)
(-8687.68 3123.32 -19.3976)
(8398.8 3119.28 -18.8895)
(43526.5 22014.1 -198.015)
(-48572.3 2977.2 -240.178)
(-10798 520.429 -24.435)
(10492 523.013 -23.7485)
(44173.7 2944.89 -233.742)
(-49847.7 736.283 -242.66)
(-11141.9 98.25 -24.7789)
(10823.3 96.3722 -24.069)
(45340.5 707.77 -236.046)
(-51688.6 870.131 -242.539)
(-11437.9 103.832 -24.7195)
(11101.5 100.8 -24.0121)
(47048.1 834.318 -236.02)
(-54564.7 1630.66 -242.919)
(-11911.2 345.667 -24.7494)
(11553.7 341.498 -24.0584)
(49763.5 1588.66 -236.709)
(-59259.2 4690.86 -247.519)
(-12727.1 2511.53 -26.4326)
(12344.5 2494.86 -25.7825)
(54265.1 4617.49 -241.971)
(-66190.2 21003.7 -280.384)
(-14107.2 18121.3 -49.5568)
(13659.7 17958.4 -49.0111)
(60973.6 20523.1 -276.29)
(-68494.2 73085.3 -530.202)
(-15772.4 72870.3 -283.258)
(14746.2 71656.6 -282.994)
(62900.5 69461.6 -529.123)
(-47359.8 22466.9 -63.3219)
(-8630.19 3109.79 -5.99233)
(8343.06 3106.14 -5.82911)
(43110.1 21879.6 -61.7232)
(-48141.7 2964.99 -74.7836)
(-10730.5 518.785 -7.53493)
(10426.8 521.435 -7.31356)
(43755.3 2933.2 -72.7394)
(-49415 735.592 -75.5248)
(-11073.7 98.1682 -7.63699)
(10757.5 96.2976 -7.40764)
(44920.1 707.11 -73.4196)
(-51254.6 870.031 -75.475)
(-11369.8 103.841 -7.61672)
(11035.7 100.803 -7.38809)
(46625.8 834.089 -73.3992)
(-54128 1628.95 -75.6249)
(-11843 345.123 -7.62814)
(11487.7 340.936 -7.4048)
(49337.2 1586.64 -73.6483)
(-58813.9 4678.7 -77.1893)
(-12657.9 2503.77 -8.16068)
(12277.2 2487.05 -7.95022)
(53828.1 4604.66 -75.4226)
(-65724.4 20913.7 -87.781)
(-14034.6 18040.5 -15.3941)
(13588.6 17877.5 -15.2154)
(60512.1 20431.6 -86.4713)
(-68025.4 72607.5 -167.191)
(-15694.1 72390 -88.9602)
(14668.3 71176 -88.8672)
(62430.2 68982.1 -166.834)
)
;

boundaryField
{
    interface
    {
        type            calculated;
        value           nonuniform List<vector> 
192
(
(-113569 63922 -73774.1)
(-104734 7505.35 -72168.6)
(-106453 1651.17 -73499.1)
(-109650 1788.17 -75445.1)
(-114314 3053.39 -78269.3)
(-121295 7183.2 -82552.4)
(-129977 26502 -88168.6)
(-124137 86430.6 -86372)
(-106949 32666.3 -16969.4)
(-102927 4168.54 -20606.3)
(-104994 906.743 -21113.7)
(-108312 986.399 -21480.9)
(-113300 1816.57 -22016.5)
(-121180 5258.19 -22868.8)
(-132079 24290 -24274.2)
(-130060 88262.4 -26482.1)
(-95020 26346.3 -3671.43)
(-91977.4 3361.04 -4585.19)
(-93965.9 776.545 -4692.16)
(-97166.2 885.458 -4741.86)
(-102072 1665.55 -4805.91)
(-109978 4925.42 -4913.11)
(-121287 22888.7 -5245.19)
(-121487 82699.4 -7159.24)
(-87270.3 24409.6 -1306.3)
(-84434.9 3147.81 -1585.02)
(-86353.6 750.064 -1612.48)
(-89491 872.652 -1620.02)
(-94348 1645.33 -1627.27)
(-102216 4818.91 -1647.03)
(-113556 22043.9 -1795.71)
(-114661 78496 -3013.47)
(-82620.2 23454.9 -683.574)
(-79876.6 3054.87 -815.93)
(-81762.4 741.542 -826.813)
(-84873.1 870.66 -828.041)
(-89706.4 1638.54 -829.175)
(-97533.9 4756.98 -839.443)
(-108809 21522.3 -931.918)
(-110243 75804.9 -1686.94)
(-79819.1 22910.1 -388.761)
(-77130.2 3004.58 -461.201)
(-79001.2 737.953 -466.433)
(-82099.8 870.29 -466.46)
(-86918.6 1633.93 -466.961)
(-94708.9 4716.17 -474.336)
(-105903 21196.4 -533.078)
(-107448 74101.8 -992.866)
(-78207 22605 -203.077)
(-75549.5 2977.2 -240.178)
(-77413.6 736.283 -242.66)
(-80506.1 870.131 -242.539)
(-85315 1630.66 -242.919)
(-93077.2 4690.86 -247.519)
(-104207 21003.7 -280.384)
(-105782 73085.3 -530.202)
(-77466 22466.9 -63.3219)
(-74822.7 2964.99 -74.7836)
(-76684 735.592 -75.5248)
(-79773.8 870.031 -75.475)
(-84577.6 1628.95 -75.6249)
(-92324.7 4678.7 -77.1893)
(-103421 20913.7 -87.781)
(-105001 72607.5 -167.191)
(-69511.3 63922 -119209)
(-67680.5 7505.35 -110165)
(-68931.9 1651.17 -111985)
(-70852.5 1788.17 -115229)
(-73664.1 3053.39 -119922)
(-77907.2 7183.2 -126970)
(-83328.1 26502 -135870)
(-80876.2 86430.6 -130186)
(-12851.4 35881.5 -117212)
(-15463.9 4526.77 -112617)
(-15863.3 937.208 -114752)
(-16190 986.381 -118108)
(-16672.3 1821.35 -123106)
(-17427 5350.72 -131004)
(-18519.1 24953.8 -141970)
(-19125.5 90516.5 -139311)
(12069.7 35606.7 -115388)
(14549.8 4493.46 -110729)
(14910.4 925.056 -112781)
(15210.8 979.17 -116084)
(15674.9 1816.42 -121046)
(16418.9 5336.41 -128910)
(17474.9 24803.5 -139831)
(17570.2 89330.2 -137230)
(64656.5 62501 -113624)
(62569.1 7367.54 -104469)
(63705.9 1598.22 -106071)
(65517.5 1750.88 -109163)
(68236.9 3029.4 -113746)
(72414.4 7150.66 -120689)
(77799.6 26105.1 -129452)
(75155 82934.1 -123990)
(104924 62501 -70672)
(95738.1 7367.54 -68940.3)
(97275 1598.22 -70145.2)
(100289 1750.88 -72008.5)
(104794 3029.4 -74777.7)
(111656 7150.66 -79011.9)
(120291 26105.1 -84567)
(114534 82934.1 -82909.2)
(98300.1 31935.2 -16628.4)
(94013.8 4117.64 -20186.3)
(95885.7 877.07 -20675.5)
(98995.6 956.108 -21036.5)
(103776 1788.93 -21573.6)
(111461 5214.04 -22434.8)
(122229 23858.5 -23856)
(120298 84607.4 -26101.2)
(86593.8 25686.3 -3627.98)
(83300.6 3320.49 -4529.95)
(85091.5 748.001 -4635.22)
(88073.2 852.751 -4685.61)
(92741.2 1631.12 -4752.91)
(100391 4868.27 -4867.35)
(111474 22438.7 -5212.94)
(111677 79075.8 -7145.45)
(79045.9 23777.3 -1284.87)
(75969.9 3110.4 -1558.54)
(77692.9 721.417 -1585.51)
(80605 838.42 -1593.62)
(85204.2 1607.19 -1602.65)
(92775.6 4754 -1626.36)
(103824 21580.4 -1783.28)
(104850 74881 -3015.07)
(74534.1 22842.9 -668.608)
(71556.7 3019.85 -797.296)
(73248 712.926 -807.783)
(76128.3 835.608 -809.325)
(80689.7 1598.38 -811.451)
(88195.9 4687.65 -823.92)
(99138.5 21050 -921.205)
(100438 72187.8 -1685.51)
(71815 22311.4 -379.415)
(68896.1 2971.23 -449.425)
(70572.9 709.388 -454.371)
(73437.4 834.752 -454.582)
(77975.3 1592.59 -455.662)
(85428.9 4644.25 -464.298)
(96265.9 20718.8 -525.82)
(97639.5 70481.1 -991.236)
(70248.2 22014.1 -198.015)
(67362.5 2944.89 -233.742)
(69032.5 707.77 -236.046)
(71888.5 834.318 -236.02)
(76411.5 1588.66 -236.709)
(83828.2 4617.49 -241.971)
(94586.4 20523.1 -276.29)
(95969.7 69461.6 -529.123)
(69527.3 21879.6 -61.7232)
(66656.7 2933.2 -72.7394)
(68323.8 707.11 -73.4196)
(71175.9 834.089 -73.3992)
(75691.3 1586.64 -73.6483)
(83089.1 4604.66 -75.4226)
(93805.9 20431.6 -86.4713)
(95185.1 68982.1 -166.834)
(-80876.2 130282 -86372)
(-83374.3 136038 -26482.1)
(-78013.5 127235 -7159.24)
(-73856.3 120333 -3013.47)
(-71181.7 115882 -1686.94)
(-69495.5 113054 -992.866)
(-68494.2 111362 -530.202)
(-68025.4 110565 -167.191)
(-19125.5 139390 -90471)
(-18525.4 142107 -24944.3)
(-17440.4 131221 -5340.69)
(-16695.7 123445 -1803.41)
(-16229.8 118662 -932.813)
(-15941.3 115706 -535.819)
(-15772.4 113965 -283.258)
(-15694.1 113152 -88.9602)
(17570.2 137294 -89294)
(17471.7 139939 -24796.9)
(16413.3 129079 -5329.56)
(15666.9 121314 -1802.92)
(15201.6 116532 -932.484)
(14914.2 113577 -535.445)
(14746.2 111835 -282.994)
(14668.3 111021 -88.8672)
(75155 124035 -82909.2)
(77801.8 129528 -26101.2)
(72422.3 120809 -7145.45)
(68261.6 113940 -3015.07)
(65590.3 109496 -1685.51)
(63903.5 106669 -991.236)
(62900.5 104975 -529.123)
(62430.2 104177 -166.834)
)
;
    }
    symmetry
    {
        type            symmetry;
    }
    bottom
    {
        type            calculated;
        value           nonuniform List<vector> 
32
(
(-69511.3 114725 -73774.1)
(-64708.6 58045.7 -16969.4)
(-57597.6 46846.9 -3671.43)
(-53053.8 43359.9 -1306.3)
(-50344.8 41621.7 -683.574)
(-48720 40625.6 -388.761)
(-47787.6 40066.6 -203.077)
(-47359.8 39813.3 -63.3219)
(-12851.4 63817.4 -71283.4)
(-11250.5 13108.7 -14330.3)
(-10094.4 6496.32 -1855.83)
(-9423.96 5685.39 -253.433)
(-9039.25 5482.58 -75.4016)
(-8814.38 5383.78 -38.1056)
(-8687.68 5330.16 -19.3976)
(-8630.19 5306.19 -5.99233)
(12069.7 63319 -70263)
(10887 13043.8 -14212.5)
(9771.54 6469.17 -1844.92)
(9114.89 5664.11 -251.122)
(8740.1 5464.68 -73.994)
(8521.68 5368.13 -37.1962)
(8398.8 5315.89 -18.8895)
(8343.06 5292.58 -5.82911)
(64656.5 112096 -70672)
(60053.3 56656.9 -16628.4)
(53075.2 45582.5 -3627.98)
(48643.2 42144.9 -1284.87)
(46011.6 40443 -668.608)
(44433.1 39470.5 -379.415)
(43526.5 38925.3 -198.015)
(43110.1 38678.5 -61.7232)
)
;
    }
}


// ************************************************************************* //
