/*--------------------------------*- C++ -*----------------------------------*\
| =========                 |                                                 |
| \\      /  F ield         | OpenFOAM: The Open Source CFD Toolbox           |
|  \\    /   O peration     | Version:  v1912                                 |
|   \\  /    A nd           | Website:  www.openfoam.com                      |
|    \\/     M anipulation  |                                                 |
\*---------------------------------------------------------------------------*/
FoamFile
{
    version     2.0;
    format      ascii;
    class       pointVectorField;
    location    "0.56/solid";
    object      pointDD;
}
// * * * * * * * * * * * * * * * * * * * * * * * * * * * * * * * * * * * * * //

dimensions      [0 1 0 0 0 0 0];


internalField   nonuniform List<vector> 
405
(
(2.09437e-10 3.54809e-10 2.11005e-10)
(8.99373e-11 2.48939e-10 1.4883e-10)
(-4.34127e-12 2.11813e-10 1.29599e-10)
(-9.40805e-11 2.38725e-10 1.34742e-10)
(-1.88438e-10 3.37566e-10 1.89788e-10)
(4.28897e-10 4.38144e-10 5.16646e-10)
(2.54495e-10 4.23132e-10 4.96152e-10)
(-1.30705e-11 3.5954e-10 4.51183e-10)
(-2.69851e-10 4.08673e-10 4.63579e-10)
(-4.01483e-10 4.21818e-10 4.76133e-10)
(5.6376e-10 2.09336e-10 8.5942e-10)
(3.40971e-10 2.31955e-10 8.35253e-10)
(-2.16531e-11 1.9434e-10 7.7924e-10)
(-3.71716e-10 2.29004e-10 7.94995e-10)
(-5.47623e-10 2.11208e-10 8.04719e-10)
(5.76426e-10 -4.80246e-11 1.12562e-09)
(3.43935e-10 -2.84014e-12 1.09619e-09)
(-3.11583e-11 -1.96837e-11 1.03056e-09)
(-3.93574e-10 4.29918e-12 1.05015e-09)
(-5.77068e-10 -3.02666e-11 1.06138e-09)
(5.66966e-10 -2.90009e-10 1.37231e-09)
(3.29761e-10 -2.46716e-10 1.33453e-09)
(-4.3125e-11 -2.60383e-10 1.25817e-09)
(-4.03192e-10 -2.31011e-10 1.28388e-09)
(-5.89446e-10 -2.58433e-10 1.30063e-09)
(5.92e-10 -5.46577e-10 1.63027e-09)
(3.40675e-10 -5.19723e-10 1.5797e-09)
(-5.79092e-11 -5.38794e-10 1.49219e-09)
(-4.43447e-10 -4.96187e-10 1.52498e-09)
(-6.41829e-10 -5.02013e-10 1.55199e-09)
(6.98785e-10 -9.015e-10 1.91839e-09)
(4.09677e-10 -8.86792e-10 1.85479e-09)
(-7.5952e-11 -9e-10 1.76032e-09)
(-5.47972e-10 -8.55177e-10 1.79607e-09)
(-7.81415e-10 -8.43445e-10 1.83365e-09)
(8.97291e-10 -1.49657e-09 2.21697e-09)
(5.31697e-10 -1.46882e-09 2.16662e-09)
(-9.80303e-11 -1.44633e-09 2.08195e-09)
(-7.12493e-10 -1.42508e-09 2.10366e-09)
(-1.01704e-09 -1.41916e-09 2.12577e-09)
(1.00964e-09 -1.89274e-09 2.37738e-09)
(6.00148e-10 -1.8514e-09 2.35162e-09)
(-1.1083e-10 -1.78865e-09 2.29164e-09)
(-8.05397e-10 -1.79032e-09 2.29558e-09)
(-1.16583e-09 -1.79757e-09 2.29093e-09)
(1.19251e-10 1.78701e-10 9.46559e-11)
(0 0 0)
(0 0 0)
(0 0 0)
(-8.85137e-11 1.69557e-10 8.72277e-11)
(3.28859e-10 2.56533e-10 3.48277e-10)
(0 0 0)
(0 0 0)
(0 0 0)
(-2.68662e-10 2.47242e-10 3.24447e-10)
(4.3383e-10 2.82149e-11 6.40433e-10)
(0 0 0)
(0 0 0)
(0 0 0)
(-3.79782e-10 3.62675e-11 6.01973e-10)
(4.40285e-10 -2.15714e-10 8.92986e-10)
(0 0 0)
(0 0 0)
(0 0 0)
(-3.98731e-10 -1.91868e-10 8.44702e-10)
(4.28906e-10 -4.44629e-10 1.13068e-09)
(0 0 0)
(0 0 0)
(0 0 0)
(-4.0547e-10 -4.0622e-10 1.07466e-09)
(4.49723e-10 -6.78947e-10 1.37596e-09)
(0 0 0)
(0 0 0)
(0 0 0)
(-4.50173e-10 -6.26393e-10 1.31301e-09)
(5.52167e-10 -9.83995e-10 1.63672e-09)
(0 0 0)
(0 0 0)
(0 0 0)
(-5.8167e-10 -9.16864e-10 1.56712e-09)
(7.67809e-10 -1.4951e-09 1.86976e-09)
(0 0 0)
(0 0 0)
(0 0 0)
(-8.28879e-10 -1.40833e-09 1.79424e-09)
(8.94877e-10 -1.84163e-09 1.99469e-09)
(5.28339e-10 -1.7894e-09 2.01035e-09)
(-1.01109e-10 -1.70167e-09 1.99057e-09)
(-7.15346e-10 -1.72059e-09 1.97113e-09)
(-1.01926e-09 -1.74031e-09 1.92613e-09)
(5.07505e-11 7.51079e-11 2.65226e-11)
(0 0 0)
(0 0 0)
(0 0 0)
(-2.04032e-11 6.62959e-11 2.29863e-11)
(1.55801e-10 5.093e-11 1.57178e-10)
(0 0 0)
(0 0 0)
(0 0 0)
(-9.36482e-11 4.16675e-11 1.43861e-10)
(2.15645e-10 -1.6179e-10 3.77936e-10)
(0 0 0)
(0 0 0)
(0 0 0)
(-1.54483e-10 -1.55001e-10 3.53584e-10)
(2.10664e-10 -3.81509e-10 6.06568e-10)
(0 0 0)
(0 0 0)
(0 0 0)
(-1.57544e-10 -3.59916e-10 5.73624e-10)
(1.95213e-10 -5.88636e-10 8.26546e-10)
(0 0 0)
(0 0 0)
(0 0 0)
(-1.56388e-10 -5.52985e-10 7.86475e-10)
(2.13504e-10 -7.88452e-10 1.03922e-09)
(0 0 0)
(0 0 0)
(0 0 0)
(-1.95125e-10 -7.39016e-10 9.92743e-10)
(3.18417e-10 -1.02422e-09 1.2325e-09)
(0 0 0)
(0 0 0)
(0 0 0)
(-3.25858e-10 -9.60805e-10 1.18022e-09)
(5.48569e-10 -1.42544e-09 1.35676e-09)
(0 0 0)
(0 0 0)
(0 0 0)
(-5.84266e-10 -1.34351e-09 1.30018e-09)
(6.92327e-10 -1.70665e-09 1.39923e-09)
(4.01846e-10 -1.64146e-09 1.42886e-09)
(-8.28978e-11 -1.54352e-09 1.44477e-09)
(-5.53835e-10 -1.57583e-09 1.4011e-09)
(-7.86358e-10 -1.61032e-09 1.34931e-09)
(1.43524e-11 2.79192e-11 1.76544e-11)
(0 0 0)
(0 0 0)
(0 0 0)
(1.60685e-11 1.79539e-11 1.53031e-11)
(6.0781e-11 -4.54413e-11 1.14412e-10)
(0 0 0)
(0 0 0)
(0 0 0)
(3.50437e-12 -5.75457e-11 1.05426e-10)
(9.38649e-11 -2.57635e-10 2.91625e-10)
(0 0 0)
(0 0 0)
(0 0 0)
(-2.65798e-11 -2.54541e-10 2.74641e-10)
(8.53882e-11 -4.68057e-10 4.88997e-10)
(0 0 0)
(0 0 0)
(0 0 0)
(-2.22728e-11 -4.50646e-10 4.65061e-10)
(7.30522e-11 -6.54313e-10 6.81781e-10)
(0 0 0)
(0 0 0)
(0 0 0)
(-2.06639e-11 -6.23108e-10 6.51687e-10)
(9.61383e-11 -8.16191e-10 8.56494e-10)
(0 0 0)
(0 0 0)
(0 0 0)
(-6.08804e-11 -7.71395e-10 8.20826e-10)
(2.06932e-10 -9.95161e-10 9.91268e-10)
(0 0 0)
(0 0 0)
(0 0 0)
(-1.94363e-10 -9.3662e-10 9.50769e-10)
(4.397e-10 -1.32914e-09 1.04858e-09)
(0 0 0)
(0 0 0)
(0 0 0)
(-4.52607e-10 -1.25223e-09 1.00484e-09)
(5.78424e-10 -1.58397e-09 1.0451e-09)
(3.25689e-10 -1.53209e-09 1.0642e-09)
(-6.91149e-11 -1.44028e-09 1.08526e-09)
(-4.50356e-10 -1.46904e-09 1.04311e-09)
(-6.46887e-10 -1.49204e-09 1.00686e-09)
(-2.55322e-15 1.02712e-11 2.03023e-11)
(0 0 0)
(0 0 0)
(0 0 0)
(3.06059e-11 -7.48248e-13 1.86373e-11)
(2.33401e-11 -8.05817e-11 1.05561e-10)
(0 0 0)
(0 0 0)
(0 0 0)
(4.25629e-11 -9.5476e-11 9.92899e-11)
(4.69795e-11 -2.91743e-10 2.48882e-10)
(0 0 0)
(0 0 0)
(0 0 0)
(2.46206e-11 -2.92466e-10 2.36977e-10)
(4.03064e-11 -4.9642e-10 4.07682e-10)
(0 0 0)
(0 0 0)
(0 0 0)
(3.00734e-11 -4.83325e-10 3.90564e-10)
(3.37814e-11 -6.66977e-10 5.62273e-10)
(0 0 0)
(0 0 0)
(0 0 0)
(2.885e-11 -6.40293e-10 5.40275e-10)
(6.3162e-11 -8.02733e-10 6.95482e-10)
(0 0 0)
(0 0 0)
(0 0 0)
(-1.4798e-11 -7.62517e-10 6.68989e-10)
(1.78098e-10 -9.50617e-10 7.86518e-10)
(0 0 0)
(0 0 0)
(0 0 0)
(-1.4975e-10 -8.96596e-10 7.56185e-10)
(4.08211e-10 -1.25403e-09 8.13325e-10)
(0 0 0)
(0 0 0)
(0 0 0)
(-4.02989e-10 -1.18136e-09 7.80492e-10)
(5.41264e-10 -1.49811e-09 7.95424e-10)
(3.0331e-10 -1.45897e-09 7.98671e-10)
(-5.87651e-11 -1.37637e-09 8.10726e-10)
(-4.07163e-10 -1.39794e-09 7.82905e-10)
(-5.89666e-10 -1.4097e-09 7.66762e-10)
(-4.5286e-12 4.91656e-12 1.91556e-11)
(0 0 0)
(0 0 0)
(0 0 0)
(3.5266e-11 -6.82613e-12 1.80185e-11)
(1.23445e-11 -8.9209e-11 8.8926e-11)
(0 0 0)
(0 0 0)
(0 0 0)
(5.46058e-11 -1.06156e-10 8.46816e-11)
(3.52483e-11 -2.96046e-10 1.97757e-10)
(0 0 0)
(0 0 0)
(0 0 0)
(3.91605e-11 -2.99792e-10 1.89699e-10)
(3.24108e-11 -4.94505e-10 3.1525e-10)
(0 0 0)
(0 0 0)
(0 0 0)
(4.2871e-11 -4.84967e-10 3.03544e-10)
(3.14281e-11 -6.54546e-10 4.28048e-10)
(0 0 0)
(0 0 0)
(0 0 0)
(3.83819e-11 -6.31639e-10 4.12796e-10)
(6.58785e-11 -7.76478e-10 5.21865e-10)
(0 0 0)
(0 0 0)
(0 0 0)
(-8.07642e-12 -7.40055e-10 5.03277e-10)
(1.82973e-10 -9.11366e-10 5.81488e-10)
(0 0 0)
(0 0 0)
(0 0 0)
(-1.43092e-10 -8.60989e-10 5.60041e-10)
(4.09416e-10 -1.20243e-09 5.95196e-10)
(0 0 0)
(0 0 0)
(0 0 0)
(-3.90817e-10 -1.13308e-09 5.71893e-10)
(5.38668e-10 -1.44094e-09 5.77569e-10)
(3.05395e-10 -1.4095e-09 5.72402e-10)
(-5.12077e-11 -1.33393e-09 5.76466e-10)
(-3.94001e-10 -1.34996e-09 5.61223e-10)
(-5.7227e-10 -1.35518e-09 5.57221e-10)
(-5.54847e-12 3.80327e-12 1.43062e-11)
(0 0 0)
(0 0 0)
(0 0 0)
(3.63674e-11 -8.39465e-12 1.35994e-11)
(1.05824e-11 -8.87728e-11 6.31495e-11)
(0 0 0)
(0 0 0)
(0 0 0)
(5.70095e-11 -1.07063e-10 6.0521e-11)
(3.52763e-11 -2.90117e-10 1.36007e-10)
(0 0 0)
(0 0 0)
(0 0 0)
(4.08824e-11 -2.95937e-10 1.31016e-10)
(3.59795e-11 -4.82656e-10 2.128e-10)
(0 0 0)
(0 0 0)
(0 0 0)
(4.24282e-11 -4.75646e-10 2.0551e-10)
(3.90325e-11 -6.36184e-10 2.85426e-10)
(0 0 0)
(0 0 0)
(0 0 0)
(3.54525e-11 -6.1601e-10 2.75847e-10)
(7.67716e-11 -7.51971e-10 3.44502e-10)
(0 0 0)
(0 0 0)
(0 0 0)
(-1.27099e-11 -7.18297e-10 3.32733e-10)
(1.94835e-10 -8.82645e-10 3.80682e-10)
(0 0 0)
(0 0 0)
(0 0 0)
(-1.47171e-10 -8.34884e-10 3.67024e-10)
(4.18287e-10 -1.16892e-09 3.8797e-10)
(0 0 0)
(0 0 0)
(0 0 0)
(-3.90566e-10 -1.10192e-09 3.73081e-10)
(5.44841e-10 -1.40437e-09 3.75531e-10)
(3.12541e-10 -1.37708e-09 3.69249e-10)
(-4.60689e-11 -1.30568e-09 3.69661e-10)
(-3.90772e-10 -1.31857e-09 3.62106e-10)
(-5.68348e-10 -1.32048e-09 3.62522e-10)
(-5.6381e-12 3.80962e-12 7.53263e-12)
(0 0 0)
(0 0 0)
(0 0 0)
(3.65031e-11 -8.63921e-12 7.19424e-12)
(1.09009e-11 -8.66998e-11 3.25138e-11)
(0 0 0)
(0 0 0)
(0 0 0)
(5.70432e-11 -1.05744e-10 3.12571e-11)
(3.71227e-11 -2.83804e-10 6.89232e-11)
(0 0 0)
(0 0 0)
(0 0 0)
(3.99994e-11 -2.90814e-10 6.6536e-11)
(4.00648e-11 -4.72205e-10 1.06712e-10)
(0 0 0)
(0 0 0)
(0 0 0)
(4.00836e-11 -4.66679e-10 1.03215e-10)
(4.54431e-11 -6.22198e-10 1.42079e-10)
(0 0 0)
(0 0 0)
(0 0 0)
(3.16723e-11 -6.03652e-10 1.37464e-10)
(8.49464e-11 -7.35615e-10 1.70508e-10)
(0 0 0)
(0 0 0)
(0 0 0)
(-1.73356e-11 -7.03586e-10 1.64811e-10)
(2.03394e-10 -8.65316e-10 1.87641e-10)
(0 0 0)
(0 0 0)
(0 0 0)
(-1.5126e-10 -8.19118e-10 1.81006e-10)
(4.25007e-10 -1.14983e-09 1.90893e-10)
(0 0 0)
(0 0 0)
(0 0 0)
(-3.91994e-10 -1.08424e-09 1.83644e-10)
(5.49875e-10 -1.38379e-09 1.84673e-10)
(3.1762e-10 -1.35848e-09 1.80941e-10)
(-4.30925e-11 -1.28912e-09 1.80572e-10)
(-3.89839e-10 -1.30057e-09 1.77463e-10)
(-5.67522e-10 -1.30101e-09 1.78337e-10)
(5.43917e-12 -2.1343e-12 0)
(6.29026e-12 -1.62564e-11 0)
(2.67504e-13 -2.59269e-11 0)
(-2.23411e-12 -2.02506e-11 0)
(2.01992e-11 -1.51382e-11 0)
(2.75338e-11 -9.36936e-11 0)
(2.15732e-11 -1.19307e-10 0)
(3.03614e-12 -1.37927e-10 0)
(-7.43232e-12 -1.25854e-10 0)
(1.75994e-11 -1.08962e-10 0)
(5.06111e-11 -2.83889e-10 0)
(3.22402e-11 -3.00138e-10 0)
(7.19059e-12 -3.14121e-10 0)
(-8.9758e-12 -3.0258e-10 0)
(4.17783e-12 -2.89728e-10 0)
(5.30281e-11 -4.6889e-10 0)
(3.19843e-11 -4.80256e-10 0)
(8.78713e-12 -4.90025e-10 0)
(-5.8498e-12 -4.76965e-10 0)
(4.67309e-12 -4.64042e-10 0)
(5.80589e-11 -6.22491e-10 0)
(3.28764e-11 -6.43684e-10 0)
(6.82499e-12 -6.57008e-10 0)
(-1.0734e-11 -6.34063e-10 0)
(-3.7589e-12 -6.06371e-10 0)
(9.75774e-11 -7.4927e-10 0)
(5.69467e-11 -7.94463e-10 0)
(1.08652e-12 -8.16182e-10 0)
(-4.60536e-11 -7.78221e-10 0)
(-5.33885e-11 -7.21432e-10 0)
(2.14675e-10 -8.97861e-10 0)
(1.3173e-10 -9.62643e-10 0)
(-8.75786e-12 -9.83199e-10 0)
(-1.39739e-10 -9.39315e-10 0)
(-1.87131e-10 -8.57583e-10 0)
(4.207e-10 -1.18325e-09 0)
(2.52635e-10 -1.21973e-09 0)
(-2.34044e-11 -1.20823e-09 0)
(-2.87819e-10 -1.18605e-09 0)
(-4.15108e-10 -1.12535e-09 0)
(5.41958e-10 -1.3881e-09 0)
(3.19657e-10 -1.36723e-09 0)
(-3.70791e-11 -1.31392e-09 0)
(-3.80252e-10 -1.31823e-09 0)
(-5.65043e-10 -1.31287e-09 0)
)
;

boundaryField
{
    interface
    {
        type            calculated;
    }
    symmetry
    {
        type            symmetry;
    }
    bottom
    {
        type            calculated;
    }
}


// ************************************************************************* //
