/*--------------------------------*- C++ -*----------------------------------*\
| =========                 |                                                 |
| \\      /  F ield         | OpenFOAM: The Open Source CFD Toolbox           |
|  \\    /   O peration     | Version:  v1912                                 |
|   \\  /    A nd           | Website:  www.openfoam.com                      |
|    \\/     M anipulation  |                                                 |
\*---------------------------------------------------------------------------*/
FoamFile
{
    version     2.0;
    format      ascii;
    class       pointVectorField;
    location    "0.56/solid";
    object      pointD;
}
// * * * * * * * * * * * * * * * * * * * * * * * * * * * * * * * * * * * * * //

dimensions      [0 1 0 0 0 0 0];


internalField   nonuniform List<vector> 
405
(
(3.46612e-08 3.387e-08 3.57908e-08)
(6.29901e-09 2.20912e-08 4.02023e-08)
(1.11405e-10 1.80709e-08 3.79636e-08)
(-5.93951e-09 2.18147e-08 3.95813e-08)
(-3.29772e-08 3.29172e-08 3.5256e-08)
(5.80534e-08 4.17808e-08 6.28874e-08)
(1.72314e-08 3.72981e-08 8.88301e-08)
(6.15002e-10 3.10119e-08 8.43029e-08)
(-1.5688e-08 3.65516e-08 8.77564e-08)
(-5.46861e-08 4.0077e-08 6.23675e-08)
(6.53032e-08 2.51866e-08 7.75538e-08)
(2.26549e-08 2.42178e-08 1.02834e-07)
(1.46825e-09 2.09482e-08 9.80613e-08)
(-1.9371e-08 2.30921e-08 1.02032e-07)
(-6.01984e-08 2.29297e-08 7.75188e-08)
(6.67635e-08 1.25048e-08 8.73768e-08)
(2.34233e-08 1.31561e-08 1.13047e-07)
(2.43558e-09 1.14628e-08 1.07926e-07)
(-1.82135e-08 1.16724e-08 1.12425e-07)
(-5.97622e-08 9.69907e-09 8.76937e-08)
(6.79984e-08 3.27199e-09 9.61607e-08)
(2.3778e-08 3.85165e-09 1.22534e-07)
(3.49446e-09 2.28302e-09 1.17148e-07)
(-1.64523e-08 2.03649e-09 1.22047e-07)
(-5.88931e-08 -5.82891e-11 9.674e-08)
(7.14623e-08 -4.92447e-09 1.05801e-07)
(2.54941e-08 -5.16433e-09 1.33249e-07)
(4.64776e-09 -7.23866e-09 1.27691e-07)
(-1.58617e-08 -7.29269e-09 1.32866e-07)
(-6.00578e-08 -8.75283e-09 1.06582e-07)
(7.89103e-08 -1.57343e-08 1.17583e-07)
(2.97169e-08 -1.65965e-08 1.46709e-07)
(5.89268e-09 -1.88318e-08 1.41201e-07)
(-1.76036e-08 -1.90287e-08 1.46408e-07)
(-6.50516e-08 -2.00381e-08 1.18526e-07)
(9.14827e-08 -4.52434e-08 1.31947e-07)
(3.66295e-08 -4.51172e-08 1.64399e-07)
(7.19697e-09 -4.5778e-08 1.59702e-07)
(-2.19212e-08 -4.76973e-08 1.64195e-07)
(-7.50744e-08 -4.97875e-08 1.33036e-07)
(8.73433e-08 -9.38814e-08 1.28008e-07)
(4.08283e-08 -1.04398e-07 1.3866e-07)
(8.0268e-09 -1.02353e-07 1.35952e-07)
(-2.44621e-08 -1.06289e-07 1.39205e-07)
(-6.98688e-08 -9.75437e-08 1.29407e-07)
(3.63794e-08 1.90932e-08 5.97436e-09)
(0 0 0)
(0 0 0)
(0 0 0)
(-3.43676e-08 1.81892e-08 6.12675e-09)
(7.71533e-08 3.05319e-08 1.96695e-08)
(1.46943e-08 1.7223e-08 2.23379e-08)
(4.87757e-10 1.17936e-08 2.21174e-08)
(-1.34107e-08 1.63768e-08 2.26453e-08)
(-7.23956e-08 2.84204e-08 2.0267e-08)
(8.26951e-08 1.66058e-08 3.2421e-08)
(1.92784e-08 1.21004e-08 3.59584e-08)
(1.21208e-09 9.09235e-09 3.58639e-08)
(-1.65128e-08 1.08477e-08 3.65379e-08)
(-7.63785e-08 1.38844e-08 3.35458e-08)
(8.43979e-08 5.93076e-09 4.13352e-08)
(1.98773e-08 4.53693e-09 4.50298e-08)
(2.07494e-09 2.93796e-09 4.49905e-08)
(-1.53932e-08 2.94752e-09 4.58204e-08)
(-7.63037e-08 2.60862e-09 4.28722e-08)
(8.63649e-08 -2.16233e-09 4.89163e-08)
(2.02071e-08 -3.78931e-09 5.25992e-08)
(3.05332e-09 -5.29213e-09 5.2541e-08)
(-1.37657e-08 -5.68506e-09 5.35485e-08)
(-7.62455e-08 -6.05568e-09 5.07663e-08)
(9.09889e-08 -9.42688e-09 5.67051e-08)
(2.19147e-08 -1.29027e-08 6.03476e-08)
(4.14347e-09 -1.49383e-08 6.02448e-08)
(-1.32897e-08 -1.50934e-08 6.14196e-08)
(-7.86226e-08 -1.38605e-08 5.87974e-08)
(1.0023e-07 -1.86292e-08 6.54937e-08)
(2.6135e-08 -2.42533e-08 6.91001e-08)
(5.33788e-09 -2.65225e-08 6.8984e-08)
(-1.51266e-08 -2.67306e-08 7.02681e-08)
(-8.54538e-08 -2.35666e-08 6.77753e-08)
(1.16088e-07 -4.47289e-08 7.4387e-08)
(3.30239e-08 -4.90471e-08 7.80268e-08)
(6.60538e-09 -4.97006e-08 7.8014e-08)
(-1.94931e-08 -5.16452e-08 7.92572e-08)
(-9.88233e-08 -4.9909e-08 7.67978e-08)
(9.20274e-08 -1.02463e-07 8.0018e-08)
(3.73348e-08 -1.35453e-07 8.11592e-08)
(7.89684e-09 -1.31435e-07 8.1174e-08)
(-2.12208e-08 -1.36608e-07 8.24001e-08)
(-7.4551e-08 -1.05956e-07 8.21791e-08)
(2.98479e-08 1.13652e-08 3.24083e-10)
(0 0 0)
(0 0 0)
(0 0 0)
(-2.79111e-08 1.05913e-08 5.0214e-10)
(6.3107e-08 1.67828e-08 5.26525e-09)
(1.02503e-08 6.5726e-09 8.93732e-09)
(3.63751e-10 2.01144e-09 9.89395e-09)
(-9.21314e-09 5.7948e-09 9.27005e-09)
(-5.86315e-08 1.48997e-08 5.87346e-09)
(6.72721e-08 6.19562e-09 1.45176e-08)
(1.35044e-08 2.66061e-09 1.93075e-08)
(9.79129e-10 6.22829e-11 2.06891e-08)
(-1.12053e-08 1.4462e-09 1.98748e-08)
(-6.14727e-08 3.64444e-09 1.55747e-08)
(6.84039e-08 -1.93435e-09 2.29997e-08)
(1.38203e-08 -3.0791e-09 2.80301e-08)
(1.74984e-09 -4.55272e-09 2.95729e-08)
(-9.98735e-09 -4.64477e-09 2.87775e-08)
(-6.10083e-08 -5.12813e-09 2.44105e-08)
(7.00812e-08 -8.49064e-09 3.0294e-08)
(1.40505e-08 -1.00241e-08 3.53752e-08)
(2.65261e-09 -1.14922e-08 3.6976e-08)
(-8.40934e-09 -1.19004e-08 3.62645e-08)
(-6.07947e-08 -1.22817e-08 3.19864e-08)
(7.45887e-08 -1.43584e-08 3.71256e-08)
(1.56761e-08 -1.78002e-08 4.22213e-08)
(3.6817e-09 -1.98279e-08 4.38429e-08)
(-7.96946e-09 -1.99717e-08 4.32228e-08)
(-6.31463e-08 -1.87071e-08 3.9041e-08)
(8.40712e-08 -2.12699e-08 4.35956e-08)
(1.98725e-08 -2.69339e-08 4.86728e-08)
(4.82759e-09 -2.91998e-08 5.03059e-08)
(-9.875e-09 -2.93886e-08 4.97585e-08)
(-7.02749e-08 -2.61304e-08 4.56799e-08)
(1.00959e-07 -4.28859e-08 4.81506e-08)
(2.68347e-08 -4.71867e-08 5.31865e-08)
(6.05814e-09 -4.77561e-08 5.48346e-08)
(-1.43863e-08 -4.9751e-08 5.4317e-08)
(-8.47186e-08 -4.79823e-08 5.03371e-08)
(8.01806e-08 -9.51314e-08 5.04522e-08)
(3.11388e-08 -1.24832e-07 5.26336e-08)
(7.32344e-09 -1.20029e-07 5.42659e-08)
(-1.61611e-08 -1.25914e-07 5.37499e-08)
(-6.37915e-08 -9.85241e-08 5.23942e-08)
(2.59163e-08 8.55346e-09 3.42087e-10)
(0 0 0)
(0 0 0)
(0 0 0)
(-2.40865e-08 7.87926e-09 4.73945e-10)
(5.47025e-08 1.10526e-08 3.94899e-09)
(7.57753e-09 2.72901e-09 6.22511e-09)
(2.69545e-10 -1.2431e-09 7.08581e-09)
(-6.73961e-09 2.02081e-09 6.47254e-09)
(-5.0529e-08 9.37919e-09 4.40756e-09)
(5.82178e-08 5.45378e-10 1.11305e-08)
(9.99369e-09 -2.37599e-09 1.41305e-08)
(7.94415e-10 -4.65721e-09 1.53658e-08)
(-8.07315e-09 -3.50919e-09 1.45604e-08)
(-5.28892e-08 -1.79369e-09 1.19383e-08)
(5.92345e-08 -7.00594e-09 1.86368e-08)
(1.01737e-08 -8.02853e-09 2.17661e-08)
(1.48547e-09 -9.39267e-09 2.31392e-08)
(-6.87631e-09 -9.51844e-09 2.23388e-08)
(-5.24596e-08 -1.00091e-08 1.97277e-08)
(6.09051e-08 -1.2569e-08 2.53839e-08)
(1.03961e-08 -1.40962e-08 2.85075e-08)
(2.32104e-09 -1.55339e-08 2.99334e-08)
(-5.42285e-09 -1.59052e-08 2.91973e-08)
(-5.2362e-08 -1.61959e-08 2.67103e-08)
(6.54551e-08 -1.69826e-08 3.12905e-08)
(1.20159e-08 -2.04451e-08 3.43925e-08)
(3.29497e-09 -2.24646e-08 3.5843e-08)
(-5.08504e-09 -2.25564e-08 3.51777e-08)
(-5.48469e-08 -2.1191e-08 3.28094e-08)
(7.51071e-08 -2.19505e-08 3.60597e-08)
(1.62178e-08 -2.7646e-08 3.91417e-08)
(4.39638e-09 -2.99149e-08 4.0605e-08)
(-7.0819e-09 -3.00444e-08 3.99976e-08)
(-6.22032e-08 -2.66879e-08 3.77245e-08)
(9.22813e-08 -4.10977e-08 3.86353e-08)
(2.3175e-08 -4.54604e-08 4.17348e-08)
(5.59067e-09 -4.60646e-08 4.32104e-08)
(-1.16571e-08 -4.79686e-08 4.26248e-08)
(-7.69663e-08 -4.60782e-08 4.03844e-08)
(7.32999e-08 -9.0364e-08 3.95596e-08)
(2.75046e-08 -1.18446e-07 4.1236e-08)
(6.82528e-09 -1.13615e-07 4.27629e-08)
(-1.35173e-08 -1.19482e-07 4.21045e-08)
(-5.78717e-08 -9.36634e-08 4.10954e-08)
(2.38233e-08 7.5228e-09 6.42585e-10)
(0 0 0)
(0 0 0)
(0 0 0)
(-2.2079e-08 6.92002e-09 7.35396e-10)
(5.02172e-08 8.85474e-09 3.82589e-09)
(6.4404e-09 1.41009e-09 4.9115e-09)
(2.07798e-10 -2.23693e-09 5.42035e-09)
(-5.74244e-09 7.5744e-10 5.08868e-09)
(-4.62825e-08 7.34355e-09 4.15429e-09)
(5.34353e-08 -1.95255e-09 9.42942e-09)
(8.49882e-09 -4.59763e-09 1.08591e-08)
(6.64791e-10 -6.6956e-09 1.15961e-08)
(-6.85348e-09 -5.65322e-09 1.11718e-08)
(-4.8476e-08 -4.10644e-09 1.0017e-08)
(5.4517e-08 -9.60492e-09 1.54673e-08)
(8.66301e-09 -1.06081e-08 1.69301e-08)
(1.29165e-09 -1.19034e-08 1.77515e-08)
(-5.76649e-09 -1.20167e-08 1.73516e-08)
(-4.82305e-08 -1.24253e-08 1.62714e-08)
(5.63013e-08 -1.47672e-08 2.10615e-08)
(8.93399e-09 -1.63317e-08 2.24837e-08)
(2.07091e-09 -1.77466e-08 2.33363e-08)
(-4.47244e-09 -1.80643e-08 2.29968e-08)
(-4.83499e-08 -1.82273e-08 2.20517e-08)
(6.09425e-08 -1.83338e-08 2.57963e-08)
(1.05846e-08 -2.18244e-08 2.71831e-08)
(2.99739e-09 -2.38327e-08 2.80513e-08)
(-4.25873e-09 -2.38663e-08 2.77726e-08)
(-5.10081e-08 -2.23957e-08 2.6943e-08)
(7.06603e-08 -2.22992e-08 2.92893e-08)
(1.47822e-08 -2.80005e-08 3.06716e-08)
(4.05952e-09 -3.02721e-08 3.15518e-08)
(-6.32761e-09 -3.03364e-08 3.1318e-08)
(-5.84886e-08 -2.6909e-08 3.05564e-08)
(8.7815e-08 -4.03401e-08 3.10281e-08)
(2.16834e-08 -4.4763e-08 3.24632e-08)
(5.22072e-09 -4.5431e-08 3.33621e-08)
(-1.091e-08 -4.72151e-08 3.31362e-08)
(-7.32682e-08 -4.52076e-08 3.23649e-08)
(6.99858e-08 -8.78248e-08 3.15344e-08)
(2.60298e-08 -1.14903e-07 3.24752e-08)
(6.42674e-09 -1.10226e-07 3.34348e-08)
(-1.28429e-08 -1.15894e-07 3.3128e-08)
(-5.53499e-08 -9.10366e-08 3.2702e-08)
(2.27228e-08 7.08993e-09 6.64352e-10)
(0 0 0)
(0 0 0)
(0 0 0)
(-2.10356e-08 6.53644e-09 7.26936e-10)
(4.79008e-08 7.98087e-09 3.25382e-09)
(6.03137e-09 9.00889e-10 3.72275e-09)
(1.68739e-10 -2.58162e-09 3.97955e-09)
(-5.42514e-09 2.89659e-10 3.84485e-09)
(-4.41279e-08 6.58609e-09 3.47762e-09)
(5.10383e-08 -2.93543e-09 7.40892e-09)
(7.98068e-09 -5.48569e-09 8.0119e-09)
(5.78346e-10 -7.4914e-09 8.38643e-09)
(-6.52228e-09 -6.48003e-09 8.22941e-09)
(-4.63343e-08 -4.94784e-09 7.81403e-09)
(5.22221e-08 -1.07173e-08 1.18491e-08)
(8.17525e-09 -1.1743e-08 1.24428e-08)
(1.15726e-09 -1.30023e-08 1.28616e-08)
(-5.55955e-09 -1.30838e-08 1.27385e-08)
(-4.62801e-08 -1.33901e-08 1.24099e-08)
(5.41259e-08 -1.579e-08 1.60134e-08)
(8.49865e-09 -1.73943e-08 1.65662e-08)
(1.89251e-09 -1.87939e-08 1.70014e-08)
(-4.40447e-09 -1.90605e-08 1.69291e-08)
(-4.65997e-08 -1.91097e-08 1.67118e-08)
(5.88426e-08 -1.90468e-08 1.9498e-08)
(1.01762e-08 -2.25522e-08 2.00241e-08)
(2.78067e-09 -2.45479e-08 2.04696e-08)
(-4.29315e-09 -2.4533e-08 2.0444e-08)
(-4.94013e-08 -2.29824e-08 2.03145e-08)
(6.85622e-08 -2.26675e-08 2.19911e-08)
(1.43551e-08 -2.83528e-08 2.2526e-08)
(3.81027e-09 -3.06195e-08 2.29836e-08)
(-6.4069e-09 -3.06343e-08 2.29888e-08)
(-5.69357e-08 -2.71671e-08 2.29001e-08)
(8.56038e-08 -4.02443e-08 2.3268e-08)
(2.11902e-08 -4.46906e-08 2.38582e-08)
(4.94376e-09 -4.53993e-08 2.43345e-08)
(-1.09767e-08 -4.70953e-08 2.43411e-08)
(-7.16382e-08 -4.50162e-08 2.42316e-08)
(6.84689e-08 -8.66295e-08 2.36574e-08)
(2.55319e-08 -1.13065e-07 2.41327e-08)
(6.126e-09 -1.08523e-07 2.46492e-08)
(-1.29516e-08 -1.14016e-07 2.45994e-08)
(-5.44365e-08 -8.97674e-08 2.44974e-08)
(2.21286e-08 6.88747e-09 5.06707e-10)
(0 0 0)
(0 0 0)
(0 0 0)
(-2.04764e-08 6.36559e-09 5.45283e-10)
(4.66775e-08 7.61236e-09 2.31027e-09)
(5.88415e-09 6.84069e-10 2.51088e-09)
(1.45025e-10 -2.7169e-09 2.63144e-09)
(-5.33437e-09 1.0109e-10 2.58754e-09)
(-4.30046e-08 6.29441e-09 2.44903e-09)
(4.98137e-08 -3.28983e-09 5.05766e-09)
(7.81115e-09 -5.81551e-09 5.30505e-09)
(5.23938e-10 -7.77723e-09 5.48142e-09)
(-6.47105e-09 -6.76701e-09 5.44234e-09)
(-4.52707e-08 -5.20501e-09 5.31074e-09)
(5.10791e-08 -1.11224e-08 7.94756e-09)
(8.03807e-09 -1.21744e-08 8.17863e-09)
(1.07017e-09 -1.34161e-08 8.37646e-09)
(-5.60479e-09 -1.34665e-08 8.36637e-09)
(-4.5359e-08 -1.36902e-08 8.301e-09)
(5.30657e-08 -1.62117e-08 1.06634e-08)
(8.39674e-09 -1.78427e-08 1.08672e-08)
(1.77418e-09 -1.92322e-08 1.10738e-08)
(-4.54641e-09 -1.946e-08 1.10989e-08)
(-4.58192e-08 -1.94288e-08 1.11072e-08)
(5.78255e-08 -1.94282e-08 1.29332e-08)
(1.00875e-08 -2.29363e-08 1.31232e-08)
(2.63431e-09 -2.49201e-08 1.33371e-08)
(-4.50351e-09 -2.48715e-08 1.33928e-08)
(-4.87142e-08 -2.32696e-08 1.3456e-08)
(6.75226e-08 -2.30029e-08 1.45568e-08)
(1.42444e-08 -2.8665e-08 1.4759e-08)
(3.63962e-09 -3.09215e-08 1.4983e-08)
(-6.64295e-09 -3.09057e-08 1.50572e-08)
(-5.62664e-08 -2.74197e-08 1.51423e-08)
(8.44554e-08 -4.0397e-08 1.54331e-08)
(2.10259e-08 -4.48395e-08 1.56762e-08)
(4.75231e-09 -4.55629e-08 1.59142e-08)
(-1.11996e-08 -4.7209e-08 1.5988e-08)
(-7.08898e-08 -4.50976e-08 1.6056e-08)
(6.77205e-08 -8.61212e-08 1.5735e-08)
(2.53504e-08 -1.12143e-07 1.59738e-08)
(5.91685e-09 -1.07676e-07 1.62316e-08)
(-1.31924e-08 -1.13065e-07 1.62746e-08)
(-5.41074e-08 -8.92038e-08 1.6278e-08)
(2.18262e-08 6.79322e-09 2.68042e-10)
(0 0 0)
(0 0 0)
(0 0 0)
(-2.01925e-08 6.28883e-09 2.86432e-10)
(4.60615e-08 7.45743e-09 1.18761e-09)
(5.82448e-09 5.94702e-10 1.26544e-09)
(1.32332e-10 -2.76783e-09 1.31361e-09)
(-5.30509e-09 2.80321e-11 1.3024e-09)
(-4.24426e-08 6.18284e-09 1.25395e-09)
(4.92073e-08 -3.40511e-09 2.55303e-09)
(7.7485e-09 -5.92571e-09 2.64584e-09)
(4.94114e-10 -7.86753e-09 2.71637e-09)
(-6.47336e-09 -6.85211e-09 2.71222e-09)
(-4.47525e-08 -5.26393e-09 2.67453e-09)
(5.05195e-08 -1.12459e-08 3.97283e-09)
(7.99498e-09 -1.23146e-08 4.05601e-09)
(1.02148e-09 -1.3548e-08 4.13536e-09)
(-5.6637e-09 -1.35777e-08 4.14711e-09)
(-4.4923e-08 -1.37516e-08 4.14338e-09)
(5.25504e-08 -1.63659e-08 5.30554e-09)
(8.37148e-09 -1.80103e-08 5.37613e-09)
(1.70693e-09 -1.93937e-08 5.45953e-09)
(-4.65967e-09 -1.9598e-08 5.489e-09)
(-4.54616e-08 -1.95211e-08 5.52083e-09)
(5.73292e-08 -1.96172e-08 6.42127e-09)
(1.00663e-08 -2.31234e-08 6.4868e-09)
(2.55003e-09 -2.50988e-08 6.57422e-09)
(-4.65441e-09 -2.50307e-08 6.61849e-09)
(-4.84064e-08 -2.34013e-08 6.67608e-09)
(6.7005e-08 -2.32272e-08 7.22517e-09)
(1.42073e-08 -2.88711e-08 7.29854e-09)
(3.54037e-09 -3.11185e-08 7.39178e-09)
(-6.80728e-09 -3.10869e-08 7.44466e-09)
(-5.59628e-08 -2.75932e-08 7.51164e-09)
(8.38669e-08 -4.05582e-08 7.67571e-09)
(2.09556e-08 -4.49895e-08 7.77014e-09)
(4.64018e-09 -4.57145e-08 7.87067e-09)
(-1.13558e-08 -4.73374e-08 7.92308e-09)
(-7.05345e-08 -4.52149e-08 7.98127e-09)
(6.73394e-08 -8.59311e-08 7.84491e-09)
(2.52639e-08 -1.11717e-07 7.94969e-09)
(5.79384e-09 -1.07282e-07 8.05745e-09)
(-1.33541e-08 -1.12621e-07 8.09702e-09)
(-5.39723e-08 -8.89796e-08 8.11123e-09)
(1.74013e-08 7.11161e-09 0)
(2.07008e-09 1.85975e-09 0)
(-3.22005e-12 -2.16665e-10 0)
(-1.96656e-09 1.67178e-09 0)
(-1.61738e-08 6.57369e-09 0)
(2.86615e-08 5.60616e-09 0)
(5.80688e-09 5.70654e-10 0)
(1.28346e-10 -2.78042e-09 0)
(-5.29708e-09 9.30442e-12 0)
(-2.64791e-08 4.53802e-09 0)
(3.1742e-08 -3.83565e-09 0)
(7.73047e-09 -5.95063e-09 0)
(4.84634e-10 -7.88664e-09 0)
(-6.47599e-09 -6.86878e-09 0)
(-2.87588e-08 -5.44822e-09 0)
(3.25185e-08 -1.13495e-08 0)
(7.98306e-09 -1.2345e-08 0)
(1.00584e-09 -1.35759e-08 0)
(-5.68455e-09 -1.35985e-08 0)
(-2.84473e-08 -1.35316e-08 0)
(3.37416e-08 -1.67349e-08 0)
(8.36476e-09 -1.80518e-08 0)
(1.68514e-09 -1.94332e-08 0)
(-4.6978e-09 -1.96297e-08 0)
(-2.82409e-08 -1.94842e-08 0)
(3.72577e-08 -2.06792e-08 0)
(1.00602e-08 -2.31794e-08 0)
(2.52254e-09 -2.51517e-08 0)
(-4.70442e-09 -2.50774e-08 0)
(-2.99937e-08 -2.39828e-08 0)
(4.49857e-08 -2.52791e-08 0)
(1.41956e-08 -2.89419e-08 0)
(3.50783e-09 -3.11859e-08 0)
(-6.86153e-09 -3.11493e-08 0)
(-3.56733e-08 -2.91056e-08 0)
(5.84067e-08 -4.27634e-08 0)
(2.09327e-08 -4.50475e-08 0)
(4.60329e-09 -4.57719e-08 0)
(-1.14075e-08 -4.73882e-08 0)
(-4.68568e-08 -4.68428e-08 0)
(5.78525e-08 -7.69639e-08 0)
(2.50394e-08 -8.47136e-08 0)
(5.46228e-09 -8.21408e-08 0)
(-1.3795e-08 -8.63243e-08 0)
(-4.53353e-08 -8.01572e-08 0)
)
;

boundaryField
{
    interface
    {
        type            calculated;
    }
    symmetry
    {
        type            symmetry;
    }
    bottom
    {
        type            calculated;
    }
}


// ************************************************************************* //
