/*--------------------------------*- C++ -*----------------------------------*\
| =========                 |                                                 |
| \\      /  F ield         | OpenFOAM: The Open Source CFD Toolbox           |
|  \\    /   O peration     | Version:  v1912                                 |
|   \\  /    A nd           | Website:  www.openfoam.com                      |
|    \\/     M anipulation  |                                                 |
\*---------------------------------------------------------------------------*/
FoamFile
{
    version     2.0;
    format      ascii;
    class       volScalarField;
    location    "0.56/solid";
    object      T;
}
// * * * * * * * * * * * * * * * * * * * * * * * * * * * * * * * * * * * * * //

dimensions      [0 0 0 1 0 0 0];


internalField   nonuniform List<scalar> 
256
(
291.566
292.202
292.209
291.599
291.238
292.004
292.011
291.276
291.191
291.976
291.984
291.23
291.155
291.957
291.965
291.196
291.101
291.927
291.935
291.143
291.003
291.866
291.874
291.045
290.742
291.659
291.668
290.785
289.678
290.618
290.634
289.74
292.274
292.836
292.837
292.292
292.092
292.782
292.783
292.111
292.066
292.776
292.776
292.086
292.047
292.772
292.773
292.068
292.017
292.766
292.767
292.038
291.956
292.746
292.747
291.978
291.754
292.611
292.612
291.777
290.742
291.659
291.668
290.785
292.414
292.919
292.919
292.43
292.268
292.891
292.891
292.285
292.246
292.888
292.888
292.264
292.229
292.886
292.886
292.248
292.202
292.882
292.883
292.222
292.146
292.867
292.868
292.167
291.956
292.746
292.747
291.978
291.002
291.865
291.874
291.045
292.458
292.929
292.929
292.473
292.322
292.905
292.905
292.338
292.301
292.902
292.902
292.318
292.284
292.9
292.9
292.302
292.257
292.896
292.897
292.276
292.202
292.882
292.883
292.222
292.016
292.766
292.767
292.038
291.1
291.926
291.934
291.142
292.48
292.931
292.932
292.494
292.348
292.908
292.908
292.363
292.327
292.905
292.905
292.343
292.31
292.903
292.903
292.328
292.283
292.9
292.9
292.302
292.229
292.886
292.886
292.248
292.046
292.772
292.773
292.067
291.152
291.955
291.964
291.195
292.492
292.933
292.933
292.507
292.362
292.91
292.91
292.378
292.342
292.906
292.907
292.358
292.325
292.905
292.905
292.342
292.298
292.901
292.902
292.316
292.244
292.887
292.888
292.263
292.063
292.775
292.776
292.084
291.184
291.972
291.981
291.227
292.499
292.933
292.934
292.513
292.371
292.91
292.91
292.386
292.35
292.907
292.907
292.366
292.334
292.906
292.906
292.35
292.307
292.902
292.902
292.324
292.252
292.888
292.889
292.271
292.072
292.777
292.778
292.094
291.202
291.982
291.991
291.245
292.502
292.934
292.934
292.517
292.374
292.911
292.911
292.389
292.354
292.908
292.908
292.37
292.338
292.906
292.906
292.354
292.311
292.903
292.903
292.328
292.256
292.889
292.889
292.275
292.077
292.777
292.778
292.098
291.21
291.987
291.995
291.253
)
;

boundaryField
{
    interface
    {
        type            fixedValue;
        value           nonuniform List<scalar> 
192
(
290.146
289.925
289.855
289.78
289.667
289.48
289.109
288.118
290.937
290.803
290.75
290.689
290.596
290.437
290.096
289.108
291.227
291.117
291.07
291.012
290.923
290.768
290.435
289.477
291.368
291.265
291.219
291.163
291.075
290.921
290.592
289.66
291.447
291.348
291.303
291.248
291.16
291.007
290.681
289.769
291.495
291.397
291.353
291.297
291.21
291.057
290.735
289.835
291.522
291.425
291.381
291.326
291.238
291.086
290.766
289.874
291.535
291.438
291.394
291.339
291.251
291.1
290.78
289.893
290.077
289.858
289.787
289.711
289.598
289.411
289.037
288.044
290.739
290.594
290.539
290.478
290.385
290.225
289.879
288.87
290.768
290.626
290.572
290.512
290.419
290.26
289.916
288.913
290.181
289.969
289.903
289.83
289.719
289.533
289.163
288.185
290.29
290.078
290.013
289.94
289.83
289.646
289.277
288.303
291.065
290.936
290.886
290.829
290.739
290.583
290.246
289.277
291.35
291.245
291.201
291.147
291.062
290.911
290.583
289.645
291.488
291.389
291.347
291.295
291.211
291.061
290.739
289.829
291.565
291.47
291.428
291.376
291.293
291.145
290.827
289.937
291.611
291.518
291.476
291.425
291.342
291.195
290.879
290.004
291.638
291.545
291.504
291.452
291.37
291.223
290.91
290.043
291.65
291.557
291.516
291.465
291.382
291.236
290.924
290.061
288.042
289.035
289.406
289.591
289.7
289.767
289.806
289.824
288.869
289.877
290.221
290.38
290.469
290.523
290.555
290.57
288.912
289.914
290.257
290.415
290.505
290.559
290.591
290.605
288.185
289.162
289.531
289.716
289.824
289.891
289.931
289.949
)
;
    }
    symmetry
    {
        type            symmetry;
    }
    bottom
    {
        type            fixedValue;
        value           uniform 293;
    }
}


// ************************************************************************* //
