/*--------------------------------*- C++ -*----------------------------------*\
| =========                 |                                                 |
| \\      /  F ield         | OpenFOAM: The Open Source CFD Toolbox           |
|  \\    /   O peration     | Version:  v1912                                 |
|   \\  /    A nd           | Website:  www.openfoam.com                      |
|    \\/     M anipulation  |                                                 |
\*---------------------------------------------------------------------------*/
FoamFile
{
    version     2.0;
    format      ascii;
    class       volVectorField;
    location    "0.56/solid";
    object      U;
}
// * * * * * * * * * * * * * * * * * * * * * * * * * * * * * * * * * * * * * //

dimensions      [0 1 -1 0 0 0 0];


internalField   nonuniform List<vector> 
256
(
(2.93927e-08 2.93083e-08 3.39583e-08)
(6.47261e-09 1.72593e-08 3.08813e-08)
(-7.62591e-09 1.67622e-08 3.03148e-08)
(-2.88418e-08 2.74375e-08 3.21955e-08)
(5.2125e-08 2.22571e-08 7.58292e-08)
(1.31083e-08 1.2624e-08 7.13631e-08)
(-1.54631e-08 1.23774e-08 7.02556e-08)
(-5.21468e-08 2.16606e-08 7.23946e-08)
(5.60079e-08 5.23359e-10 1.04545e-07)
(1.40754e-08 -3.60277e-09 9.94785e-08)
(-1.78065e-08 -3.41195e-09 9.80742e-08)
(-5.73811e-08 1.36534e-09 1.002e-07)
(5.4455e-08 -2.2969e-08 1.28992e-07)
(1.26284e-08 -2.51938e-08 1.22936e-07)
(-1.82704e-08 -2.45671e-08 1.21321e-07)
(-5.77166e-08 -2.08627e-08 1.24004e-07)
(5.42327e-08 -4.81595e-08 1.53553e-07)
(1.14852e-08 -5.16267e-08 1.46158e-07)
(-1.96083e-08 -5.05936e-08 1.44363e-07)
(-5.99335e-08 -4.48933e-08 1.48019e-07)
(6.02235e-08 -7.85544e-08 1.81004e-07)
(1.27032e-08 -8.39675e-08 1.72283e-07)
(-2.3904e-08 -8.25393e-08 1.70315e-07)
(-6.89512e-08 -7.41564e-08 1.7495e-07)
(7.67552e-08 -1.24054e-07 2.12438e-07)
(1.74637e-08 -1.27199e-07 2.03586e-07)
(-3.24484e-08 -1.25334e-07 2.0143e-07)
(-8.9103e-08 -1.18388e-07 2.05842e-07)
(9.83823e-08 -1.94067e-07 2.39902e-07)
(2.25727e-08 -1.8715e-07 2.33302e-07)
(-4.22497e-08 -1.84561e-07 2.30957e-07)
(-1.14944e-07 -1.86194e-07 2.32801e-07)
(1.71088e-08 9.69436e-09 1.28144e-08)
(3.52228e-09 4.34893e-10 1.49051e-08)
(-3.98037e-09 2.55476e-10 1.46693e-08)
(-1.61323e-08 8.56847e-09 1.21102e-08)
(3.12852e-08 -1.81771e-09 4.10468e-08)
(7.58226e-09 -9.33983e-09 4.51807e-08)
(-8.34315e-09 -9.34272e-09 4.45379e-08)
(-3.0146e-08 -1.91764e-09 3.91675e-08)
(3.32672e-08 -2.0951e-08 6.69985e-08)
(8.019e-09 -2.41864e-08 7.17006e-08)
(-9.5374e-09 -2.38616e-08 7.07857e-08)
(-3.29171e-08 -1.98826e-08 6.43155e-08)
(3.12801e-08 -4.23548e-08 9.03981e-08)
(6.64496e-09 -4.42235e-08 9.49423e-08)
(-9.60148e-09 -4.35251e-08 9.38342e-08)
(-3.23752e-08 -4.01618e-08 8.71252e-08)
(3.0583e-08 -6.58898e-08 1.13212e-07)
(5.57159e-09 -6.92254e-08 1.17317e-07)
(-1.06198e-08 -6.81523e-08 1.16044e-07)
(-3.37403e-08 -6.26049e-08 1.09431e-07)
(3.60587e-08 -9.28137e-08 1.36613e-07)
(6.80971e-09 -9.83387e-08 1.40257e-07)
(-1.45947e-08 -9.68945e-08 1.38825e-07)
(-4.18996e-08 -8.84504e-08 1.32347e-07)
(5.28701e-08 -1.29004e-07 1.58463e-07)
(1.17245e-08 -1.32071e-07 1.61913e-07)
(-2.29824e-08 -1.30238e-07 1.60336e-07)
(-6.19983e-08 -1.23484e-07 1.53752e-07)
(7.64008e-08 -1.82908e-07 1.69885e-07)
(1.71045e-08 -1.73724e-07 1.73394e-07)
(-3.27746e-08 -1.71281e-07 1.71749e-07)
(-8.94077e-08 -1.75432e-07 1.64945e-07)
(8.07567e-09 2.42634e-09 6.34513e-09)
(9.08413e-10 -4.14642e-09 9.42928e-09)
(-1.07254e-09 -4.28363e-09 9.26739e-09)
(-6.88002e-09 1.3192e-09 5.8854e-09)
(1.52202e-08 -1.3792e-08 2.62217e-08)
(2.42107e-09 -1.92184e-08 3.20103e-08)
(-2.33719e-09 -1.91889e-08 3.1561e-08)
(-1.33645e-08 -1.39433e-08 2.49516e-08)
(1.56721e-08 -3.36959e-08 4.83049e-08)
(2.2803e-09 -3.61291e-08 5.48653e-08)
(-2.45519e-09 -3.5808e-08 5.41945e-08)
(-1.41329e-08 -3.2764e-08 4.63872e-08)
(1.36347e-08 -5.38582e-08 6.97542e-08)
(9.93104e-10 -5.55989e-08 7.63388e-08)
(-2.17314e-09 -5.4937e-08 7.54948e-08)
(-1.31244e-08 -5.1869e-08 6.73107e-08)
(1.29749e-08 -7.44128e-08 9.01051e-08)
(3.68813e-11 -7.78594e-08 9.64962e-08)
(-2.93786e-09 -7.68466e-08 9.55019e-08)
(-1.41618e-08 -7.13793e-08 8.71981e-08)
(1.8485e-08 -9.58787e-08 1.08602e-07)
(1.33958e-09 -1.01592e-07 1.14773e-07)
(-6.65799e-09 -1.00231e-07 1.13642e-07)
(-2.20278e-08 -9.18148e-08 1.0527e-07)
(3.5518e-08 -1.23495e-07 1.22009e-07)
(6.35365e-09 -1.26732e-07 1.27983e-07)
(-1.48657e-08 -1.25013e-07 1.26746e-07)
(-4.20443e-08 -1.1834e-07 1.18333e-07)
(5.93268e-08 -1.67799e-07 1.24384e-07)
(1.1862e-08 -1.58711e-07 1.30224e-07)
(-2.45292e-08 -1.56411e-07 1.28967e-07)
(-6.94433e-08 -1.60736e-07 1.20597e-07)
(4.22286e-09 -1.79189e-10 5.19672e-09)
(-1.91617e-10 -5.09059e-09 7.2522e-09)
(1.60396e-10 -5.24563e-09 7.13097e-09)
(-2.89112e-09 -1.38492e-09 4.86084e-09)
(8.16342e-09 -1.84048e-08 2.05384e-08)
(1.18617e-10 -2.25451e-08 2.43556e-08)
(4.23956e-10 -2.25657e-08 2.40302e-08)
(-5.85345e-09 -1.87705e-08 1.96333e-08)
(8.03739e-09 -3.9164e-08 3.83527e-08)
(-2.38155e-10 -4.1156e-08 4.26243e-08)
(8.83692e-10 -4.09047e-08 4.21325e-08)
(-5.6934e-09 -3.85015e-08 3.69635e-08)
(6.3501e-09 -5.85167e-08 5.63268e-08)
(-1.31577e-09 -6.0287e-08 6.05386e-08)
(1.3111e-09 -5.97104e-08 5.99059e-08)
(-4.68863e-09 -5.68317e-08 5.4511e-08)
(6.18354e-09 -7.64422e-08 7.29916e-08)
(-2.01373e-09 -8.00637e-08 7.69997e-08)
(6.12003e-10 -7.91494e-08 7.62411e-08)
(-5.89768e-09 -7.37385e-08 7.07877e-08)
(1.20723e-08 -9.37454e-08 8.6686e-08)
(-5.41685e-10 -9.96506e-08 9.04983e-08)
(-2.99206e-09 -9.84e-08 8.96289e-08)
(-1.38502e-08 -9.00333e-08 8.4134e-08)
(2.90806e-08 -1.1658e-07 9.47093e-08)
(4.47829e-09 -1.20217e-07 9.83981e-08)
(-1.09561e-08 -1.18616e-07 9.74503e-08)
(-3.35771e-08 -1.11787e-07 9.18929e-08)
(5.23315e-08 -1.56917e-07 9.41901e-08)
(9.93013e-09 -1.49043e-07 9.79667e-08)
(-2.03375e-08 -1.46856e-07 9.70111e-08)
(-6.01752e-08 -1.50189e-07 9.13033e-08)
(3.04035e-09 -1.09729e-09 4.54323e-09)
(-4.09471e-10 -5.23632e-09 5.57073e-09)
(4.48116e-10 -5.41112e-09 5.48317e-09)
(-1.6225e-09 -2.38527e-09 4.30386e-09)
(6.1133e-09 -1.96441e-08 1.64225e-08)
(-3.54329e-10 -2.32312e-08 1.82636e-08)
(1.16648e-09 -2.33098e-08 1.80326e-08)
(-3.51653e-09 -2.02119e-08 1.57872e-08)
(6.05752e-09 -4.04224e-08 2.99916e-08)
(-6.43469e-10 -4.23004e-08 3.19658e-08)
(1.80767e-09 -4.2128e-08 3.16157e-08)
(-3.18473e-09 -4.00228e-08 2.9012e-08)
(4.84828e-09 -5.90243e-08 4.37611e-08)
(-1.47021e-09 -6.09251e-08 4.55977e-08)
(2.25167e-09 -6.04383e-08 4.51421e-08)
(-2.39589e-09 -5.76314e-08 4.24631e-08)
(5.22843e-09 -7.52219e-08 5.62586e-08)
(-1.89679e-09 -7.90253e-08 5.78911e-08)
(1.54096e-09 -7.82076e-08 5.73387e-08)
(-3.89319e-09 -7.28251e-08 5.46622e-08)
(1.14682e-08 -9.02645e-08 6.58596e-08)
(-2.57564e-10 -9.63288e-08 6.73321e-08)
(-1.99265e-09 -9.51782e-08 6.6695e-08)
(-1.19558e-08 -8.68635e-08 6.39955e-08)
(2.83142e-08 -1.11086e-07 7.07592e-08)
(4.72785e-09 -1.15073e-07 7.21841e-08)
(-9.71122e-09 -1.13569e-07 7.14891e-08)
(-3.13012e-08 -1.06591e-07 6.86956e-08)
(5.09467e-08 -1.49814e-07 6.97741e-08)
(1.00895e-08 -1.43035e-07 7.13648e-08)
(-1.88154e-08 -1.40934e-07 7.06656e-08)
(-5.70831e-08 -1.43347e-07 6.76595e-08)
(2.78144e-09 -1.37991e-09 3.55153e-09)
(-3.53806e-10 -5.20776e-09 4.00108e-09)
(4.31265e-10 -5.39675e-09 3.9423e-09)
(-1.31053e-09 -2.72392e-09 3.39208e-09)
(5.84028e-09 -1.95824e-08 1.2108e-08)
(-2.1314e-10 -2.30069e-08 1.28497e-08)
(1.18712e-09 -2.31304e-08 1.26956e-08)
(-3.06542e-09 -2.02982e-08 1.16876e-08)
(6.06995e-09 -3.98888e-08 2.16034e-08)
(-3.43694e-10 -4.18158e-08 2.23202e-08)
(1.83354e-09 -4.17071e-08 2.20864e-08)
(-2.85996e-09 -3.96923e-08 2.0954e-08)
(5.27879e-09 -5.78022e-08 3.11456e-08)
(-9.56523e-10 -5.98551e-08 3.17185e-08)
(2.25039e-09 -5.94415e-08 3.14124e-08)
(-2.30608e-09 -5.66397e-08 3.02787e-08)
(6.07049e-09 -7.30313e-08 3.96512e-08)
(-1.17641e-09 -7.69832e-08 4.00644e-08)
(1.52368e-09 -7.62427e-08 3.96907e-08)
(-4.02534e-09 -7.08752e-08 3.85759e-08)
(1.25348e-08 -8.70982e-08 4.59387e-08)
(5.81596e-10 -9.32671e-08 4.62458e-08)
(-1.94796e-09 -9.21939e-08 4.58126e-08)
(-1.21303e-08 -8.3936e-08 4.46749e-08)
(2.92105e-08 -1.07233e-07 4.89256e-08)
(5.53339e-09 -1.11428e-07 4.92277e-08)
(-9.46973e-09 -1.09998e-07 4.87542e-08)
(-3.11381e-08 -1.02961e-07 4.7522e-08)
(5.13748e-08 -1.45204e-07 4.81275e-08)
(1.08266e-08 -1.39109e-07 4.85692e-08)
(-1.83621e-08 -1.37072e-07 4.80932e-08)
(-5.63016e-08 -1.38929e-07 4.66881e-08)
(2.7512e-09 -1.4286e-09 2.24997e-09)
(-2.77446e-10 -5.13667e-09 2.43062e-09)
(3.75549e-10 -5.33464e-09 2.39691e-09)
(-1.24973e-09 -2.80731e-09 2.15892e-09)
(5.94638e-09 -1.91878e-08 7.42314e-09)
(-1.98344e-11 -2.25927e-08 7.6867e-09)
(1.0857e-09 -2.2745e-08 7.59844e-09)
(-3.0678e-09 -1.99974e-08 7.18359e-09)
(6.42233e-09 -3.89787e-08 1.303e-08)
(-1.92894e-11 -4.0987e-08 1.32394e-08)
(1.69995e-09 -4.09206e-08 1.31054e-08)
(-3.01239e-09 -3.89149e-08 1.26595e-08)
(5.91331e-09 -5.63774e-08 1.85966e-08)
(-4.88596e-10 -5.8549e-08 1.87062e-08)
(2.09032e-09 -5.81848e-08 1.85302e-08)
(-2.62585e-09 -5.53687e-08 1.81e-08)
(6.95671e-09 -7.11172e-08 2.3495e-08)
(-5.79538e-10 -7.51674e-08 2.35081e-08)
(1.35847e-09 -7.44791e-08 2.32923e-08)
(-4.47398e-09 -6.91227e-08 2.28758e-08)
(1.35421e-08 -8.48322e-08 2.70467e-08)
(1.24943e-09 -9.10572e-08 2.70029e-08)
(-2.06369e-09 -9.00355e-08 2.6752e-08)
(-1.25791e-08 -8.18288e-08 2.63157e-08)
(3.00958e-08 -1.04778e-07 2.8682e-08)
(6.18034e-09 -1.09072e-07 2.86461e-08)
(-9.45441e-09 -1.07689e-07 2.83714e-08)
(-3.13526e-08 -1.00654e-07 2.78684e-08)
(5.19594e-08 -1.42369e-07 2.81958e-08)
(1.14312e-08 -1.36629e-07 2.82446e-08)
(-1.82078e-08 -1.34633e-07 2.79683e-08)
(-5.61146e-08 -1.36222e-07 2.73608e-08)
(2.75425e-09 -1.41835e-09 7.69085e-10)
(-2.38144e-10 -5.08422e-09 8.17557e-10)
(3.45146e-10 -5.28655e-09 8.06584e-10)
(-1.23879e-09 -2.8137e-09 7.39509e-10)
(6.0314e-09 -1.89035e-08 2.50025e-09)
(8.17569e-11 -2.23169e-08 2.56418e-09)
(1.0257e-09 -2.24832e-08 2.53546e-09)
(-3.10498e-09 -1.97582e-08 2.42247e-09)
(6.63384e-09 -3.8388e-08 4.35296e-09)
(1.49099e-10 -4.0447e-08 4.39374e-09)
(1.61968e-09 -4.04014e-08 4.3501e-09)
(-3.13072e-09 -3.83891e-08 4.2326e-09)
(6.26144e-09 -5.55169e-08 6.17875e-09)
(-2.50678e-10 -5.77506e-08 6.18474e-09)
(1.99675e-09 -5.74111e-08 6.12732e-09)
(-2.82564e-09 -5.45844e-08 6.01713e-09)
(7.42098e-09 -7.00541e-08 7.77484e-09)
(-2.81169e-10 -7.41518e-08 7.749e-09)
(1.26509e-09 -7.34896e-08 7.67847e-09)
(-4.7298e-09 -6.814e-08 7.57278e-09)
(1.40583e-08 -8.36656e-08 8.92306e-09)
(1.58057e-09 -8.99136e-08 8.87969e-09)
(-2.12989e-09 -8.89176e-08 8.79753e-09)
(-1.28268e-08 -8.07411e-08 8.68402e-09)
(3.05508e-08 -1.03574e-07 9.4459e-09)
(6.50225e-09 -1.07904e-07 9.40681e-09)
(-9.45608e-09 -1.06545e-07 9.31677e-09)
(-3.14828e-08 -9.95227e-08 9.17944e-09)
(5.22681e-08 -1.41005e-07 9.28404e-09)
(1.17329e-08 -1.35409e-07 9.27277e-09)
(-1.81408e-08 -1.33434e-07 9.18225e-09)
(-5.60481e-08 -1.3492e-07 9.0105e-09)
)
;

boundaryField
{
    interface
    {
        type            calculated;
        value           nonuniform List<vector> 
192
(
(3.24176e-08 4.96877e-08 3.03771e-08)
(5.46192e-08 2.89108e-08 6.96278e-08)
(5.86677e-08 1.10576e-09 9.78098e-08)
(5.7496e-08 -2.34129e-08 1.22277e-07)
(5.72836e-08 -4.67175e-08 1.46903e-07)
(6.24643e-08 -7.29238e-08 1.74403e-07)
(7.7921e-08 -1.14514e-07 2.05951e-07)
(1.03364e-07 -1.88011e-07 2.33675e-07)
(1.5283e-08 2.17928e-08 7.48525e-09)
(2.92238e-08 2.22181e-09 3.18208e-08)
(3.10212e-08 -2.09524e-08 5.69147e-08)
(2.89291e-08 -4.3026e-08 8.01931e-08)
(2.78536e-08 -6.46953e-08 1.02898e-07)
(3.22878e-08 -8.7242e-08 1.26178e-07)
(4.81939e-08 -1.18918e-07 1.48154e-07)
(7.76444e-08 -1.76595e-07 1.60122e-07)
(5.0172e-09 8.2503e-09 3.12378e-09)
(1.27964e-08 -1.18929e-08 2.04414e-08)
(1.32164e-08 -3.40925e-08 4.19975e-08)
(1.10988e-08 -5.45327e-08 6.35218e-08)
(1.02039e-08 -7.32003e-08 8.40054e-08)
(1.50563e-08 -9.0243e-08 1.02605e-07)
(3.18288e-08 -1.13285e-07 1.16062e-07)
(6.17604e-08 -1.61378e-07 1.18366e-07)
(7.23774e-10 2.91737e-09 3.93798e-09)
(5.77496e-09 -1.74512e-08 1.82618e-08)
(5.75814e-09 -3.96174e-08 3.59492e-08)
(4.08194e-09 -5.89803e-08 5.41303e-08)
(3.83628e-09 -7.50118e-08 7.10551e-08)
(9.35883e-09 -8.80213e-08 8.49319e-08)
(2.65286e-08 -1.06515e-07 9.29084e-08)
(5.57623e-08 -1.5048e-07 9.20951e-08)
(-7.24795e-10 1.19111e-09 4.18294e-09)
(3.56211e-09 -1.88899e-08 1.58418e-08)
(3.69658e-09 -4.07387e-08 2.94999e-08)
(2.58591e-09 -5.92317e-08 4.34934e-08)
(3.00843e-09 -7.35671e-08 5.62304e-08)
(9.06125e-09 -8.44931e-08 6.59753e-08)
(2.62904e-08 -1.01217e-07 7.07917e-08)
(5.47029e-08 -1.434e-07 6.95349e-08)
(-1.08665e-09 7.75516e-10 3.47929e-09)
(3.18712e-09 -1.87603e-08 1.20664e-08)
(3.65352e-09 -4.00293e-08 2.16947e-08)
(3.0283e-09 -5.78022e-08 3.14119e-08)
(3.94859e-09 -7.12174e-08 4.00834e-08)
(1.03331e-08 -8.13134e-08 4.64572e-08)
(2.75044e-08 -9.75231e-08 4.9371e-08)
(5.52687e-08 -1.38832e-07 4.83807e-08)
(-1.13274e-09 7.45792e-10 2.2432e-09)
(3.26522e-09 -1.82701e-08 7.47096e-09)
(4.00468e-09 -3.89871e-08 1.3171e-08)
(3.70529e-09 -5.62439e-08 1.88423e-08)
(4.93081e-09 -6.92101e-08 2.38327e-08)
(1.14961e-08 -7.90476e-08 2.74276e-08)
(2.86004e-08 -9.51739e-08 2.90171e-08)
(5.59413e-08 -1.36038e-07 2.84191e-08)
(-1.1225e-09 7.78057e-10 7.69855e-10)
(3.35038e-09 -1.79337e-08 2.52151e-09)
(4.22882e-09 -3.83306e-08 4.40585e-09)
(4.08713e-09 -5.53203e-08 6.2658e-09)
(5.45401e-09 -6.8105e-08 7.89092e-09)
(1.20976e-08 -7.78832e-08 9.05211e-09)
(2.91634e-08 -9.40216e-08 9.55966e-09)
(5.62975e-08 -1.34699e-07 9.36121e-09)
(3.04136e-08 5.67551e-08 3.29244e-08)
(5.41085e-08 3.99039e-08 7.37291e-08)
(5.81084e-08 1.38141e-08 1.02601e-07)
(5.62982e-08 -1.07168e-08 1.2756e-07)
(5.57087e-08 -3.51563e-08 1.52184e-07)
(6.13435e-08 -6.38332e-08 1.7862e-07)
(7.77853e-08 -1.09329e-07 2.08382e-07)
(9.98457e-08 -1.86772e-07 2.38779e-07)
(5.56133e-09 4.28204e-08 2.66076e-08)
(1.17143e-08 2.97734e-08 6.51997e-08)
(1.24571e-08 9.29051e-09 9.2571e-08)
(1.07102e-08 -1.35239e-08 1.15745e-07)
(9.18727e-09 -3.92897e-08 1.38322e-07)
(1.00304e-08 -6.96103e-08 1.62756e-07)
(1.47114e-08 -1.11944e-07 1.92157e-07)
(2.03363e-08 -1.79483e-07 2.2733e-07)
(-7.29784e-09 4.19048e-08 2.5232e-08)
(-1.5206e-08 2.93174e-08 6.34339e-08)
(-1.76267e-08 9.35457e-09 9.04912e-08)
(-1.8004e-08 -1.29947e-08 1.13417e-07)
(-1.91435e-08 -3.83451e-08 1.35783e-07)
(-2.32378e-08 -6.82726e-08 1.60015e-07)
(-3.18848e-08 -1.10173e-07 1.89198e-07)
(-4.23751e-08 -1.76932e-07 2.24096e-07)
(-3.03344e-08 5.35851e-08 2.86648e-08)
(-5.51023e-08 3.86619e-08 6.8101e-08)
(-6.07514e-08 1.42678e-08 9.59718e-08)
(-6.10474e-08 -8.90797e-09 1.20178e-07)
(-6.30818e-08 -3.21566e-08 1.44174e-07)
(-7.19158e-08 -5.97005e-08 1.70022e-07)
(-9.21505e-08 -1.03925e-07 1.99194e-07)
(-1.18587e-07 -1.79001e-07 2.28974e-07)
(-2.61971e-08 4.76846e-08 2.82715e-08)
(-4.89596e-08 2.87955e-08 6.5416e-08)
(-5.42358e-08 2.758e-09 9.23986e-08)
(-5.47926e-08 -2.02244e-08 1.16002e-07)
(-5.68567e-08 -4.20844e-08 1.39896e-07)
(-6.48774e-08 -6.68637e-08 1.66704e-07)
(-8.36222e-08 -1.06889e-07 1.97542e-07)
(-1.12456e-07 -1.77851e-07 2.24596e-07)
(-9.20841e-09 2.0138e-08 6.6196e-09)
(-2.30997e-08 2.27864e-09 2.94716e-08)
(-2.56175e-08 -1.93251e-08 5.35031e-08)
(-2.48465e-08 -3.99558e-08 7.59768e-08)
(-2.56921e-08 -6.02236e-08 9.79876e-08)
(-3.26429e-08 -8.13856e-08 1.20615e-07)
(-5.15254e-08 -1.11607e-07 1.41987e-07)
(-8.39483e-08 -1.66986e-07 1.5357e-07)
(1.04714e-09 6.38032e-09 2.57491e-09)
(-6.1983e-09 -1.213e-08 1.88781e-08)
(-6.87775e-09 -3.28238e-08 3.95809e-08)
(-5.67573e-09 -5.18616e-08 6.03887e-08)
(-6.34102e-09 -6.91532e-08 8.02371e-08)
(-1.3374e-08 -8.48439e-08 9.82572e-08)
(-3.28006e-08 -1.06486e-07 1.11228e-07)
(-6.54322e-08 -1.52323e-07 1.13289e-07)
(5.38024e-09 8.01217e-10 3.54631e-09)
(1.17267e-09 -1.80698e-08 1.71711e-08)
(1.27145e-09 -3.87925e-08 3.42261e-08)
(2.37291e-09 -5.67804e-08 5.18286e-08)
(1.37826e-09 -7.14478e-08 6.82203e-08)
(-6.01537e-09 -8.31131e-08 8.16158e-08)
(-2.5555e-08 -1.00205e-07 8.9207e-08)
(-5.72551e-08 -1.41877e-07 8.82131e-08)
(6.86213e-09 -1.10052e-09 3.9086e-09)
(3.61014e-09 -1.98213e-08 1.509e-08)
(3.79399e-09 -4.03028e-08 2.83035e-08)
(4.591e-09 -5.74541e-08 4.18673e-08)
(3.19782e-09 -7.04348e-08 5.41939e-08)
(-4.47991e-09 -8.00111e-08 6.35653e-08)
(-2.38497e-08 -9.53091e-08 6.80857e-08)
(-5.45357e-08 -1.35154e-07 6.6691e-08)
(7.24426e-09 -1.62994e-09 3.29881e-09)
(4.12578e-09 -1.99108e-08 1.15752e-08)
(4.13428e-09 -3.9882e-08 2.09108e-08)
(4.62915e-09 -5.63481e-08 3.03361e-08)
(2.93481e-09 -6.84188e-08 3.8721e-08)
(-4.88328e-09 -7.71574e-08 4.48306e-08)
(-2.40239e-08 -9.1918e-08 4.75348e-08)
(-5.39174e-08 -1.3085e-07 4.64459e-08)
(7.30268e-09 -1.72792e-09 2.14094e-09)
(4.13107e-09 -1.95566e-08 7.1934e-09)
(3.96184e-09 -3.90252e-08 1.27271e-08)
(4.246e-09 -5.50031e-08 1.82299e-08)
(2.37104e-09 -6.6634e-08 2.30519e-08)
(-5.50652e-09 -7.51087e-08 2.64898e-08)
(-2.44547e-08 -8.97694e-08 2.79545e-08)
(-5.38305e-08 -1.28231e-07 2.72974e-08)
(7.29855e-09 -1.72776e-09 7.36759e-10)
(4.08497e-09 -1.92851e-08 2.43174e-09)
(3.82186e-09 -3.84587e-08 4.26215e-09)
(4.00373e-09 -5.41844e-08 6.06705e-09)
(2.04815e-09 -6.56394e-08 7.63672e-09)
(-5.84691e-09 -7.40524e-08 8.74592e-09)
(-2.46958e-08 -8.87169e-08 9.21199e-09)
(-5.38164e-08 -1.26978e-07 8.99386e-09)
(9.96811e-08 -1.93039e-07 2.4076e-07)
(7.7261e-08 -1.79006e-07 1.63318e-07)
(6.02652e-08 -1.65682e-07 1.17886e-07)
(5.35816e-08 -1.56047e-07 8.96937e-08)
(5.24587e-08 -1.49318e-07 6.68456e-08)
(5.30368e-08 -1.44825e-07 4.62664e-08)
(5.36894e-08 -1.42054e-07 2.71461e-08)
(5.40219e-08 -1.40726e-07 8.94292e-09)
(2.0196e-08 -1.81268e-07 2.33779e-07)
(1.41976e-08 -1.62449e-07 1.66284e-07)
(9.01456e-09 -1.49447e-07 1.24054e-07)
(7.41434e-09 -1.41661e-07 9.40477e-08)
(7.86921e-09 -1.36561e-07 6.88812e-08)
(8.79323e-09 -1.33095e-07 4.69677e-08)
(9.49681e-09 -1.3086e-07 2.73196e-08)
(9.83983e-09 -1.29751e-07 8.96783e-09)
(-4.24891e-08 -1.77776e-07 2.31452e-07)
(-3.2348e-08 -1.59177e-07 1.64711e-07)
(-2.40233e-08 -1.46335e-07 1.2286e-07)
(-2.00516e-08 -1.38669e-07 9.31419e-08)
(-1.8738e-08 -1.33658e-07 6.82196e-08)
(-1.84075e-08 -1.30256e-07 4.6518e-08)
(-1.83101e-08 -1.28062e-07 2.7059e-08)
(-1.82636e-08 -1.26974e-07 8.88248e-09)
(-1.18708e-07 -1.8242e-07 2.33707e-07)
(-9.25934e-08 -1.68864e-07 1.58581e-07)
(-7.25692e-08 -1.55955e-07 1.14286e-07)
(-6.34985e-08 -1.46659e-07 8.69559e-08)
(-6.05773e-08 -1.40189e-07 6.48446e-08)
(-5.98777e-08 -1.3588e-07 4.49069e-08)
(-5.97136e-08 -1.33231e-07 2.63585e-08)
(-5.96485e-08 -1.31962e-07 8.68509e-09)
)
;
    }
    symmetry
    {
        type            symmetry;
    }
    bottom
    {
        type            calculated;
        value           uniform (0 0 0);
    }
}


// ************************************************************************* //
