/*--------------------------------*- C++ -*----------------------------------*\
| =========                 |                                                 |
| \\      /  F ield         | OpenFOAM: The Open Source CFD Toolbox           |
|  \\    /   O peration     | Version:  v1912                                 |
|   \\  /    A nd           | Website:  www.openfoam.com                      |
|    \\/     M anipulation  |                                                 |
\*---------------------------------------------------------------------------*/
FoamFile
{
    version     2.0;
    format      ascii;
    class       volVectorField;
    location    "0.13/solid";
    object      D;
}
// * * * * * * * * * * * * * * * * * * * * * * * * * * * * * * * * * * * * * //

dimensions      [0 1 0 0 0 0 0];


internalField   nonuniform List<vector> 
256
(
(1.91001e-09 1.5772e-08 8.20055e-10)
(-1.51174e-09 1.0684e-08 3.03264e-09)
(2.15257e-09 1.06203e-08 3.16924e-09)
(-1.46336e-09 1.54954e-08 1.33096e-09)
(2.479e-09 1.6942e-08 -3.81406e-09)
(-1.16957e-09 1.45545e-08 -1.06424e-09)
(3.13832e-09 1.42519e-08 -7.11755e-10)
(-7.68132e-10 1.58585e-08 -2.63425e-09)
(3.16701e-09 2.01105e-08 -1.01541e-08)
(-3.99628e-10 1.90505e-08 -7.60833e-09)
(3.96544e-09 1.84974e-08 -7.09976e-09)
(1.34656e-10 1.82925e-08 -8.51036e-09)
(4.36621e-09 2.54801e-08 -1.69439e-08)
(5.76409e-10 2.50315e-08 -1.42575e-08)
(4.89257e-09 2.42451e-08 -1.36329e-08)
(8.35763e-10 2.29991e-08 -1.49523e-08)
(5.45101e-09 3.25054e-08 -2.4154e-08)
(1.5508e-09 3.27774e-08 -2.09998e-08)
(6.12053e-09 3.1772e-08 -2.0283e-08)
(1.95433e-09 2.94051e-08 -2.18841e-08)
(4.90195e-09 4.14669e-08 -3.22695e-08)
(1.86918e-09 4.25089e-08 -2.85093e-08)
(8.29811e-09 4.12895e-08 -2.77135e-08)
(4.99124e-09 3.77661e-08 -2.97649e-08)
(5.56518e-10 5.32985e-08 -4.19027e-08)
(9.14904e-10 5.34764e-08 -3.77054e-08)
(1.20469e-08 5.20518e-08 -3.68335e-08)
(1.20552e-08 4.90095e-08 -3.9186e-08)
(-6.89628e-09 5.7304e-08 -5.12829e-08)
(-9.93485e-11 5.26732e-08 -4.72603e-08)
(1.61312e-08 5.11375e-08 -4.63138e-08)
(2.2372e-08 5.2612e-08 -4.83807e-08)
(6.61088e-09 1.18021e-08 -4.26364e-09)
(-4.76633e-10 5.94369e-09 -4.88252e-09)
(8.16159e-10 5.84127e-09 -4.73731e-09)
(-6.30337e-09 1.14543e-08 -3.82906e-09)
(9.77547e-09 1.73545e-08 -9.79891e-09)
(6.07234e-10 1.44277e-08 -1.0968e-08)
(6.70594e-10 1.40679e-08 -1.06185e-08)
(-8.53715e-09 1.61826e-08 -8.77598e-09)
(1.058e-08 2.28845e-08 -1.58211e-08)
(1.39785e-09 2.16559e-08 -1.71575e-08)
(1.18767e-09 2.10584e-08 -1.66659e-08)
(-8.03575e-09 2.10098e-08 -1.43819e-08)
(1.15573e-08 2.92638e-08 -2.24711e-08)
(2.22469e-09 2.87628e-08 -2.37242e-08)
(2.03236e-09 2.79472e-08 -2.31266e-08)
(-7.33985e-09 2.67556e-08 -2.07136e-08)
(1.26165e-08 3.65356e-08 -2.96069e-08)
(3.09496e-09 3.67487e-08 -3.0662e-08)
(3.17508e-09 3.57258e-08 -2.99781e-08)
(-6.37972e-09 3.34299e-08 -2.75881e-08)
(1.22994e-08 4.47509e-08 -3.71757e-08)
(3.39653e-09 4.57381e-08 -3.8032e-08)
(5.21219e-09 4.45119e-08 -3.72737e-08)
(-3.7292e-09 4.10658e-08 -3.49324e-08)
(8.36913e-09 5.3535e-08 -4.42378e-08)
(2.49864e-09 5.36753e-08 -4.49927e-08)
(8.77296e-09 5.22624e-08 -4.41731e-08)
(2.7818e-09 4.93001e-08 -4.18088e-08)
(1.20809e-09 5.12014e-08 -4.72726e-08)
(1.55833e-09 4.63799e-08 -4.8055e-08)
(1.26778e-08 4.49014e-08 -4.7208e-08)
(1.26736e-08 4.66505e-08 -4.47527e-08)
(8.90452e-09 1.09144e-08 -2.77409e-09)
(4.27842e-10 4.73515e-09 -3.81471e-09)
(-2.48741e-10 4.6408e-09 -3.70777e-09)
(-8.73078e-09 1.06416e-08 -2.46845e-09)
(1.41992e-08 1.71364e-08 -7.96017e-09)
(2.26077e-09 1.38118e-08 -9.72011e-09)
(-1.43317e-09 1.34671e-08 -9.45426e-09)
(-1.33556e-08 1.60706e-08 -7.20408e-09)
(1.53578e-08 2.35186e-08 -1.34263e-08)
(3.13637e-09 2.21455e-08 -1.5323e-08)
(-1.2512e-09 2.15689e-08 -1.4941e-08)
(-1.34492e-08 2.17596e-08 -1.23306e-08)
(1.6144e-08 3.02782e-08 -1.93633e-08)
(3.8375e-09 2.98028e-08 -2.11905e-08)
(-4.93078e-10 2.90133e-08 -2.07179e-08)
(-1.27697e-08 2.78893e-08 -1.79946e-08)
(1.70347e-08 3.71269e-08 -2.55619e-08)
(4.60199e-09 3.74029e-08 -2.72688e-08)
(5.76987e-10 3.64105e-08 -2.67202e-08)
(-1.1816e-08 3.4143e-08 -2.39622e-08)
(1.67041e-08 4.37908e-08 -3.14233e-08)
(4.88159e-09 4.48212e-08 -3.30318e-08)
(2.48648e-09 4.36311e-08 -3.24187e-08)
(-9.29989e-09 4.02345e-08 -2.96265e-08)
(1.29655e-08 4.97568e-08 -3.54963e-08)
(4.04927e-09 4.99803e-08 -3.70654e-08)
(5.85616e-09 4.86131e-08 -3.64056e-08)
(-3.10913e-09 4.56668e-08 -3.35503e-08)
(6.23759e-09 4.48961e-08 -3.54471e-08)
(3.18231e-09 4.04811e-08 -3.70734e-08)
(9.58104e-09 3.90578e-08 -3.64039e-08)
(6.23352e-09 4.04991e-08 -3.3452e-08)
(9.30915e-09 1.07168e-08 -2.12172e-09)
(6.97854e-10 4.46792e-09 -2.71461e-09)
(-6.00175e-10 4.38795e-09 -2.63994e-09)
(-9.24341e-09 1.05231e-08 -1.9097e-09)
(1.53323e-08 1.68347e-08 -6.6398e-09)
(2.8021e-09 1.3351e-08 -7.62926e-09)
(-2.25099e-09 1.3042e-08 -7.43881e-09)
(-1.47903e-08 1.59098e-08 -6.10018e-09)
(1.67255e-08 2.31375e-08 -1.1359e-08)
(3.71507e-09 2.1713e-08 -1.24037e-08)
(-2.30265e-09 2.11811e-08 -1.21244e-08)
(-1.53057e-08 2.15389e-08 -1.05596e-08)
(1.73958e-08 2.96132e-08 -1.62861e-08)
(4.32268e-09 2.91931e-08 -1.72624e-08)
(-1.6304e-09 2.84511e-08 -1.69104e-08)
(-1.46845e-08 2.7387e-08 -1.52671e-08)
(1.80701e-08 3.57107e-08 -2.11447e-08)
(4.97074e-09 3.60748e-08 -2.20178e-08)
(-6.00767e-10 3.51309e-08 -2.16031e-08)
(-1.36686e-08 3.28863e-08 -1.99343e-08)
(1.75832e-08 4.10925e-08 -2.5229e-08)
(5.17999e-09 4.22001e-08 -2.60125e-08)
(1.24462e-09 4.10598e-08 -2.55451e-08)
(-1.11296e-08 3.76934e-08 -2.38553e-08)
(1.38974e-08 4.56301e-08 -2.73818e-08)
(4.36414e-09 4.60093e-08 -2.81258e-08)
(4.48268e-09 4.46928e-08 -2.76227e-08)
(-5.10685e-09 4.16954e-08 -2.58898e-08)
(7.4776e-09 4.02922e-08 -2.64713e-08)
(3.53052e-09 3.64288e-08 -2.72942e-08)
(8.07352e-09 3.50528e-08 -2.67877e-08)
(3.82536e-09 3.60366e-08 -2.49487e-08)
(9.10733e-09 1.05279e-08 -1.70603e-09)
(6.67124e-10 4.3336e-09 -1.94058e-09)
(-6.14104e-10 4.26602e-09 -1.88958e-09)
(-9.11464e-09 1.03946e-08 -1.56244e-09)
(1.50911e-08 1.63919e-08 -5.37299e-09)
(2.73373e-09 1.29121e-08 -5.71917e-09)
(-2.35418e-09 1.26369e-08 -5.58711e-09)
(-1.47552e-08 1.55872e-08 -5.0008e-09)
(1.64964e-08 2.23184e-08 -9.15269e-09)
(3.6072e-09 2.09191e-08 -9.47649e-09)
(-2.50878e-09 2.04313e-08 -9.27996e-09)
(-1.54194e-08 2.08653e-08 -8.59221e-09)
(1.70723e-08 2.82661e-08 -1.29414e-08)
(4.13787e-09 2.7913e-08 -1.31962e-08)
(-1.89954e-09 2.72185e-08 -1.29449e-08)
(-1.48392e-08 2.61919e-08 -1.22156e-08)
(1.75729e-08 3.36606e-08 -1.64521e-08)
(4.6881e-09 3.41072e-08 -1.66214e-08)
(-9.00291e-10 3.32113e-08 -1.63217e-08)
(-1.37755e-08 3.09861e-08 -1.55779e-08)
(1.69389e-08 3.82757e-08 -1.9122e-08)
(4.82339e-09 3.94608e-08 -1.92161e-08)
(9.05789e-10 3.83677e-08 -1.88756e-08)
(-1.12015e-08 3.50215e-08 -1.81202e-08)
(1.32629e-08 4.22788e-08 -2.02244e-08)
(3.99777e-09 4.28015e-08 -2.02851e-08)
(4.0544e-09 4.15303e-08 -1.99178e-08)
(-5.28722e-09 3.84819e-08 -1.91314e-08)
(7.01664e-09 3.69699e-08 -1.92492e-08)
(3.16555e-09 3.35364e-08 -1.9375e-08)
(7.55527e-09 3.22015e-08 -1.90071e-08)
(3.38294e-09 3.28392e-08 -1.81366e-08)
(8.85469e-09 1.03292e-08 -1.27791e-09)
(5.85798e-10 4.21657e-09 -1.34901e-09)
(-5.57808e-10 4.15814e-09 -1.316e-09)
(-8.90711e-09 1.02379e-08 -1.18602e-09)
(1.4617e-08 1.58972e-08 -3.96794e-09)
(2.53927e-09 1.24822e-08 -4.02648e-09)
(-2.2645e-09 1.22325e-08 -3.94017e-09)
(-1.44116e-08 1.51801e-08 -3.72663e-09)
(1.59296e-08 2.14278e-08 -6.69351e-09)
(3.34338e-09 2.00854e-08 -6.69899e-09)
(-2.44618e-09 1.96321e-08 -6.56922e-09)
(-1.5076e-08 2.00855e-08 -6.32568e-09)
(1.64156e-08 2.68921e-08 -9.33702e-09)
(3.80952e-09 2.66026e-08 -9.28203e-09)
(-1.87288e-09 2.59461e-08 -9.1143e-09)
(-1.45034e-08 2.49372e-08 -8.8548e-09)
(1.67991e-08 3.17843e-08 -1.16655e-08)
(4.28979e-09 3.22956e-08 -1.15484e-08)
(-8.99883e-10 3.14383e-08 -1.13465e-08)
(-1.3417e-08 2.92292e-08 -1.10784e-08)
(1.6069e-08 3.60009e-08 -1.33086e-08)
(4.37034e-09 3.7245e-08 -1.31395e-08)
(8.73235e-10 3.61898e-08 -1.29086e-08)
(-1.08336e-08 3.28623e-08 -1.26301e-08)
(1.23948e-08 3.983e-08 -1.38573e-08)
(3.52935e-09 4.04496e-08 -1.36666e-08)
(3.95861e-09 3.92146e-08 -1.34169e-08)
(-4.99906e-09 3.61429e-08 -1.31137e-08)
(6.24308e-09 3.45958e-08 -1.30733e-08)
(2.68687e-09 3.14261e-08 -1.29254e-08)
(7.39843e-09 3.01243e-08 -1.26763e-08)
(3.50551e-09 3.05662e-08 -1.23177e-08)
(8.68812e-09 1.01735e-08 -7.94874e-10)
(5.30099e-10 4.12357e-09 -8.10934e-10)
(-5.15319e-10 4.07107e-09 -7.92424e-10)
(-8.76611e-09 1.01081e-08 -7.43852e-10)
(1.42789e-08 1.54885e-08 -2.43351e-09)
(2.39775e-09 1.21356e-08 -2.41585e-09)
(-2.18248e-09 1.19026e-08 -2.36715e-09)
(-1.41491e-08 1.48274e-08 -2.2983e-09)
(1.55006e-08 2.07157e-08 -4.06812e-09)
(3.14497e-09 1.94252e-08 -4.00655e-09)
(-2.36626e-09 1.89948e-08 -3.93281e-09)
(-1.47798e-08 1.94461e-08 -3.86029e-09)
(1.59165e-08 2.58465e-08 -5.61802e-09)
(3.56466e-09 2.56047e-08 -5.51581e-09)
(-1.81067e-09 2.49739e-08 -5.41984e-09)
(-1.41991e-08 2.39716e-08 -5.34323e-09)
(1.62288e-08 3.04375e-08 -6.93831e-09)
(4.00069e-09 3.09919e-08 -6.79893e-09)
(-8.57015e-10 3.0161e-08 -6.68267e-09)
(-1.3104e-08 2.79637e-08 -6.60114e-09)
(1.54453e-08 3.44598e-08 -7.82579e-09)
(4.04733e-09 3.57405e-08 -7.65726e-09)
(8.90478e-10 3.47114e-08 -7.52365e-09)
(-1.05262e-08 3.14005e-08 -7.43378e-09)
(1.17727e-08 3.82313e-08 -8.07568e-09)
(3.19403e-09 3.89044e-08 -7.89614e-09)
(3.93378e-09 3.76946e-08 -7.75136e-09)
(-4.74703e-09 3.46204e-08 -7.64454e-09)
(5.6732e-09 3.30466e-08 -7.57816e-09)
(2.34181e-09 3.00143e-08 -7.42203e-09)
(7.33338e-09 2.87357e-08 -7.27802e-09)
(3.65564e-09 2.9088e-08 -7.14052e-09)
(8.61163e-09 1.00902e-08 -2.69928e-10)
(5.05292e-10 4.07187e-09 -2.72121e-10)
(-4.96141e-10 4.02227e-09 -2.66163e-10)
(-8.70115e-09 1.00372e-08 -2.53592e-10)
(1.41208e-08 1.52624e-08 -8.19869e-10)
(2.33231e-09 1.19436e-08 -8.07795e-10)
(-2.14384e-09 1.17187e-08 -7.92066e-10)
(-1.40255e-08 1.46284e-08 -7.76376e-10)
(1.52942e-08 2.03282e-08 -1.3635e-09)
(3.05035e-09 1.90665e-08 -1.33526e-09)
(-2.32636e-09 1.86475e-08 -1.31137e-09)
(-1.4635e-08 1.90943e-08 -1.29635e-09)
(1.56728e-08 2.52935e-08 -1.87306e-09)
(3.44621e-09 2.50767e-08 -1.83065e-09)
(-1.77807e-09 2.44587e-08 -1.79943e-09)
(-1.40473e-08 2.34584e-08 -1.78388e-09)
(1.59513e-08 2.97465e-08 -2.30014e-09)
(3.86076e-09 3.03221e-08 -2.24541e-09)
(-8.34503e-10 2.95045e-08 -2.20747e-09)
(-1.29493e-08 2.73135e-08 -2.19027e-09)
(1.51443e-08 3.36886e-08 -2.58049e-09)
(3.8913e-09 3.49863e-08 -2.51648e-09)
(8.99037e-10 3.39704e-08 -2.47276e-09)
(-1.03777e-08 3.06696e-08 -2.45234e-09)
(1.14729e-08 3.7441e-08 -2.65189e-09)
(3.03144e-09 3.81368e-08 -2.58464e-09)
(3.92107e-09 3.69397e-08 -2.53721e-09)
(-4.6273e-09 3.3869e-08 -2.51069e-09)
(5.3976e-09 3.228e-08 -2.482e-09)
(2.17401e-09 2.93041e-08 -2.42214e-09)
(7.30013e-09 2.80375e-08 -2.37504e-09)
(3.72554e-09 2.8358e-08 -2.33875e-09)
)
;

boundaryField
{
    interface
    {
        type            solidTraction;
        traction        nonuniform List<vector> 
192
(
(77.2325 -0.121852 -5.18628)
(79.0486 0.132231 -6.73158)
(79.6318 0.480244 -6.81103)
(80.1693 0.831766 -6.68238)
(79.784 1.17975 -6.42501)
(80.6075 1.87528 -6.09679)
(77.8296 2.32099 -5.43221)
(81.4789 4.85786 -4.85354)
(73.8004 -0.0134145 -2.75132)
(74.7262 0.247355 -3.66979)
(75.0657 0.596454 -3.68046)
(75.557 0.990316 -3.55991)
(75.0981 1.38609 -3.35896)
(76.1591 2.18732 -3.11133)
(73.2997 2.68397 -2.6891)
(77.8402 5.43899 -2.32567)
(77.6104 -0.000658941 -2.27274)
(78.5301 0.294871 -3.00865)
(78.8613 0.690174 -3.0164)
(79.3498 1.14215 -2.91593)
(78.7103 1.60349 -2.7498)
(79.6836 2.5189 -2.53958)
(76.1738 3.10653 -2.20577)
(80.6403 6.10869 -1.8919)
(77.1115 0.0379824 -1.49007)
(77.8339 0.355938 -2.00424)
(78.0691 0.775104 -2.00197)
(78.5276 1.26031 -1.9213)
(77.8239 1.75891 -1.79637)
(78.8553 2.73146 -1.64164)
(75.2245 3.35799 -1.41879)
(79.9281 6.44796 -1.21047)
(78.0987 0.0514176 -1.1071)
(78.8005 0.391798 -1.48494)
(79.0037 0.837912 -1.48351)
(79.4439 1.35232 -1.42305)
(78.6651 1.8835 -1.32996)
(79.6521 2.90058 -1.21306)
(75.8007 3.56312 -1.05199)
(80.4579 6.72268 -0.894584)
(78.155 0.0646101 -0.719849)
(78.8063 0.420712 -0.971374)
(78.9717 0.884906 -0.969197)
(79.3948 1.41839 -0.927123)
(78.5809 1.97068 -0.863995)
(79.5661 3.01419 -0.785152)
(75.6355 3.69754 -0.681185)
(80.3389 6.89673 -0.579157)
(78.393 0.0710676 -0.417948)
(79.0357 0.437982 -0.564097)
(79.1865 0.914938 -0.562985)
(79.6005 1.46106 -0.538309)
(78.7612 2.02729 -0.501778)
(79.7309 3.08732 -0.455362)
(75.7302 3.78439 -0.39631)
(80.4253 7.00887 -0.335853)
(78.4397 0.0749083 -0.135974)
(79.0708 0.446909 -0.184176)
(79.2127 0.929853 -0.183739)
(79.6211 1.48177 -0.175415)
(78.7741 2.05483 -0.163417)
(79.7373 3.12207 -0.147851)
(75.7171 3.82625 -0.128984)
(80.407 7.06231 -0.108604)
(8.37784 0.527187 32.1476)
(11.0494 0.453634 27.4583)
(11.2665 0.283106 26.3747)
(11.1914 0.256396 26.7713)
(11.021 0.262818 28.1048)
(10.8345 0.336882 30.4523)
(10.5182 0.362095 33.807)
(10.5372 0.509175 37.4419)
(6.77108 0.197981 44.2422)
(9.23647 0.183174 43.4402)
(9.40292 0.0978224 43.3047)
(9.33184 0.0630688 43.4636)
(9.22339 0.0382597 43.885)
(9.12633 0.0401234 44.6097)
(8.99633 0.0363838 45.478)
(9.17056 0.071745 46.3749)
(7.09209 0.0830052 39.7105)
(9.6469 0.0531266 39.185)
(9.83705 -0.0255736 39.0818)
(9.76039 -0.0916699 39.2345)
(9.62878 -0.157326 39.7116)
(9.48549 -0.222007 40.3937)
(9.28838 -0.274415 41.4522)
(9.36646 -0.296237 42.5302)
(8.20978 0.0164193 41.089)
(11.0734 -0.0356578 40.83)
(11.2952 -0.122999 40.7599)
(11.2018 -0.214226 40.7993)
(11.0135 -0.305055 41.094)
(10.797 -0.415846 41.3392)
(10.4265 -0.498866 41.9771)
(10.4245 -0.622362 42.4364)
(-12.0875 0.509516 4.54562)
(-6.92177 0.13659 6.04703)
(-5.72592 -0.429207 6.10731)
(-5.50092 -0.862675 5.99662)
(-6.69011 -1.25045 5.79794)
(-6.68235 -1.92637 5.59894)
(-10.6594 -2.1773 5.10664)
(-0.576813 -4.95482 4.97856)
(-28.0581 0.0785605 1.84419)
(-27.0477 -0.19646 2.67209)
(-26.7493 -0.588366 2.65493)
(-26.266 -0.980803 2.55914)
(-26.5394 -1.33527 2.4411)
(-24.5172 -2.03885 2.35248)
(-26.182 -2.10949 2.14213)
(-10.5696 -5.08528 2.21156)
(-27.1586 -0.00397283 1.87216)
(-26.3015 -0.297084 2.60786)
(-25.9343 -0.684239 2.61962)
(-25.2983 -1.10208 2.54036)
(-25.4257 -1.48378 2.42521)
(-22.881 -2.25659 2.30348)
(-24.3998 -2.31856 2.0855)
(-6.44105 -5.57948 1.97732)
(-30.1711 -0.0557129 1.24969)
(-29.6013 -0.367259 1.78623)
(-29.2837 -0.760419 1.79202)
(-28.5143 -1.19097 1.72838)
(-28.3906 -1.58219 1.63926)
(-25.2035 -2.37873 1.54401)
(-26.212 -2.4045 1.39724)
(-6.15917 -5.78326 1.32541)
(-30.4093 -0.0672089 0.980778)
(-29.8424 -0.399038 1.37838)
(-29.4756 -0.811244 1.38597)
(-28.6019 -1.25991 1.33906)
(-28.3515 -1.66844 1.27064)
(-24.8655 -2.48924 1.19084)
(-25.7265 -2.50989 1.07678)
(-4.55075 -5.98505 0.996854)
(-31.0445 -0.0743612 0.65486)
(-30.4955 -0.420991 0.922272)
(-30.1005 -0.848251 0.927022)
(-29.1541 -1.31004 0.894228)
(-28.797 -1.73089 0.847001)
(-25.0785 -2.56488 0.790847)
(-25.7731 -2.57933 0.716054)
(-3.74706 -6.11283 0.660992)
(-31.2267 -0.0770028 0.385173)
(-30.6686 -0.433432 0.540298)
(-30.2434 -0.871271 0.543373)
(-29.2472 -1.34207 0.524261)
(-28.8239 -1.77181 0.496988)
(-24.9774 -2.61433 0.463026)
(-25.5912 -2.62678 0.420497)
(-3.08159 -6.19745 0.38463)
(-31.347 -0.0786987 0.126628)
(-30.7887 -0.439737 0.177858)
(-30.3495 -0.882649 0.178824)
(-29.331 -1.35761 0.172326)
(-28.8714 -1.79208 0.163337)
(-24.9675 -2.63769 0.151628)
(-25.5256 -2.65014 0.138231)
(-2.78957 -6.23845 0.125289)
(10.5443 -37.3148 -0.491064)
(10.5306 -33.5978 -0.345385)
(10.8548 -30.1009 -0.315317)
(11.054 -27.5351 -0.226428)
(11.2407 -25.7855 -0.184743)
(11.3648 -24.4732 -0.124458)
(11.4482 -23.6849 -0.0762424)
(11.4889 -23.2967 -0.0255779)
(9.17403 -46.2499 -0.0497644)
(9.00236 -45.2821 -0.0160031)
(9.13525 -44.3019 -0.0146061)
(9.2348 -43.4353 -0.00239038)
(9.33944 -42.8083 -0.00595712)
(9.41235 -42.3019 -0.00194384)
(9.4632 -41.9893 -0.00139809)
(9.48855 -41.8173 -1.45453e-05)
(9.3687 -42.4021 0.320754)
(9.29193 -41.246 0.297678)
(9.49114 -40.0689 0.25099)
(9.63706 -39.2322 0.194965)
(9.76817 -38.546 0.145454)
(9.85917 -38.0567 0.100367)
(9.92043 -37.7397 0.0582247)
(9.95014 -37.5877 0.0190062)
(10.4217 -42.3099 0.648152)
(10.4249 -41.7711 0.523852)
(10.7979 -41.0238 0.446467)
(11.0204 -40.6394 0.342143)
(11.2159 -40.1832 0.263105)
(11.3473 -39.902 0.18166)
(11.4343 -39.6936 0.107939)
(11.4767 -39.5882 0.0359282)
)
;
        pressure        uniform 0;
        secondOrder     false;
        setEffectiveTraction false;
        relaxationFactor 1;
        value           nonuniform List<vector> 
192
(
(6.49972e-08 1.68692e-08 2.01614e-09)
(6.36769e-08 1.72562e-08 -1.84293e-09)
(6.52985e-08 2.05824e-08 -8.11014e-09)
(6.7762e-08 2.60512e-08 -1.49974e-08)
(7.07309e-08 3.26395e-08 -2.22938e-08)
(7.34104e-08 4.02435e-08 -3.04329e-08)
(7.41999e-08 5.03493e-08 -4.00003e-08)
(6.74124e-08 5.55937e-08 -4.92541e-08)
(6.64783e-08 1.58987e-08 -2.51547e-09)
(6.82043e-08 1.83468e-08 -6.86948e-09)
(6.97559e-08 2.33301e-08 -1.2774e-08)
(7.19903e-08 2.97731e-08 -1.95273e-08)
(7.50764e-08 3.67213e-08 -2.67116e-08)
(7.83168e-08 4.36894e-08 -3.42257e-08)
(8.02273e-08 5.07626e-08 -4.1136e-08)
(7.48527e-08 4.96203e-08 -4.39895e-08)
(6.29141e-08 1.66903e-08 -2.0999e-09)
(6.7188e-08 1.87498e-08 -6.57145e-09)
(6.90943e-08 2.40049e-08 -1.18904e-08)
(7.10792e-08 3.06975e-08 -1.79042e-08)
(7.39153e-08 3.72672e-08 -2.4199e-08)
(7.70262e-08 4.27739e-08 -3.01027e-08)
(7.89977e-08 4.71407e-08 -3.41146e-08)
(7.47557e-08 4.33918e-08 -3.38801e-08)
(5.99567e-08 1.68772e-08 -2.07127e-09)
(6.50403e-08 1.86888e-08 -6.41716e-09)
(6.72039e-08 2.36535e-08 -1.10747e-08)
(6.90526e-08 2.99495e-08 -1.60543e-08)
(7.16225e-08 3.57578e-08 -2.10104e-08)
(7.44944e-08 4.00497e-08 -2.51706e-08)
(7.64062e-08 4.31043e-08 -2.73077e-08)
(7.27974e-08 3.87987e-08 -2.62767e-08)
(5.79202e-08 1.65775e-08 -1.81983e-09)
(6.29964e-08 1.82392e-08 -5.55206e-09)
(6.51802e-08 2.28138e-08 -9.35192e-09)
(6.69232e-08 2.85354e-08 -1.31867e-08)
(6.92905e-08 3.36275e-08 -1.67701e-08)
(7.19662e-08 3.71986e-08 -1.95007e-08)
(7.38168e-08 3.97987e-08 -2.06002e-08)
(7.05418e-08 3.54627e-08 -1.9558e-08)
(5.66245e-08 1.61971e-08 -1.38283e-09)
(6.1501e-08 1.7666e-08 -4.17115e-09)
(6.35924e-08 2.18776e-08 -6.94262e-09)
(6.52367e-08 2.71097e-08 -9.62615e-09)
(6.74692e-08 3.16979e-08 -1.20017e-08)
(7.00199e-08 3.49003e-08 -1.36821e-08)
(7.18286e-08 3.73741e-08 -1.423e-08)
(6.87292e-08 3.30762e-08 -1.34093e-08)
(5.58797e-08 1.59153e-08 -8.55708e-10)
(6.05979e-08 1.71917e-08 -2.55765e-09)
(6.25967e-08 2.11252e-08 -4.22705e-09)
(6.41645e-08 2.60288e-08 -5.80383e-09)
(6.63153e-08 3.03201e-08 -7.15036e-09)
(6.87967e-08 3.33463e-08 -8.05704e-09)
(7.05817e-08 3.57889e-08 -8.30624e-09)
(6.75749e-08 3.15216e-08 -7.78959e-09)
(5.55434e-08 1.57733e-08 -2.89073e-10)
(6.0186e-08 1.69331e-08 -8.59418e-10)
(6.21351e-08 2.07163e-08 -1.41513e-09)
(6.36625e-08 2.5458e-08 -1.93401e-09)
(6.57745e-08 2.96147e-08 -2.36955e-09)
(6.82251e-08 3.25695e-08 -2.65577e-09)
(6.99999e-08 3.5005e-08 -2.72688e-09)
(6.70345e-08 3.07537e-08 -2.55092e-09)
(1.86652e-09 1.50236e-08 6.88935e-08)
(2.18273e-09 1.41985e-08 6.24725e-08)
(2.78335e-09 1.68281e-08 5.70216e-08)
(4.0664e-09 2.19802e-08 5.14079e-08)
(5.31132e-09 2.8674e-08 4.59996e-08)
(4.92552e-09 3.70298e-08 4.11053e-08)
(6.56415e-10 4.85452e-08 3.67863e-08)
(-6.9033e-09 5.51944e-08 2.86213e-08)
(-9.23289e-10 1.11761e-08 6.96753e-08)
(-3.92449e-10 1.18942e-08 6.43732e-08)
(3.65523e-10 1.57522e-08 5.86003e-08)
(1.40572e-09 2.16836e-08 5.31867e-08)
(2.5201e-09 2.92144e-08 4.84892e-08)
(3.00972e-09 3.83325e-08 4.46595e-08)
(2.18369e-09 4.87887e-08 4.15639e-08)
(1.14444e-09 5.05371e-08 3.38585e-08)
(1.72835e-09 1.12346e-08 6.93688e-08)
(2.74743e-09 1.16846e-08 6.42354e-08)
(3.74157e-09 1.52671e-08 5.86053e-08)
(4.72048e-09 2.09493e-08 5.33044e-08)
(5.90105e-09 2.82518e-08 4.86992e-08)
(7.98578e-09 3.71518e-08 4.49511e-08)
(1.16783e-08 4.74016e-08 4.19413e-08)
(1.58526e-08 4.90168e-08 3.43883e-08)
(-1.26708e-09 1.51696e-08 6.81985e-08)
(-1.10981e-10 1.33981e-08 6.2355e-08)
(1.02938e-09 1.5213e-08 5.73453e-08)
(1.76172e-09 1.96556e-08 5.20737e-08)
(2.81272e-09 2.57019e-08 4.69428e-08)
(5.76385e-09 3.34405e-08 4.2284e-08)
(1.28195e-08 4.43555e-08 3.81814e-08)
(2.33023e-08 5.05406e-08 3.0347e-08)
(-6.43583e-08 1.60534e-08 2.63989e-09)
(-6.17322e-08 1.5459e-08 -3.6239e-10)
(-6.17411e-08 1.78915e-08 -6.01936e-09)
(-6.2279e-08 2.2544e-08 -1.24444e-08)
(-6.3023e-08 2.8366e-08 -1.93704e-08)
(-6.3223e-08 3.52405e-08 -2.71976e-08)
(-6.143e-08 4.4664e-08 -3.64847e-08)
(-5.24407e-08 4.94166e-08 -4.54901e-08)
(-6.54467e-08 1.51644e-08 -2.01187e-09)
(-6.61903e-08 1.66156e-08 -5.62865e-09)
(-6.64021e-08 2.07104e-08 -1.09854e-08)
(-6.69211e-08 2.63415e-08 -1.73118e-08)
(-6.79432e-08 3.25271e-08 -2.41451e-08)
(-6.88252e-08 3.87751e-08 -3.13592e-08)
(-6.82495e-08 4.51991e-08 -3.80173e-08)
(-6.08152e-08 4.36426e-08 -4.07177e-08)
(-6.19895e-08 1.61632e-08 -1.73312e-09)
(-6.55178e-08 1.72502e-08 -5.64034e-09)
(-6.63172e-08 2.1613e-08 -1.05127e-08)
(-6.67893e-08 2.74808e-08 -1.6158e-08)
(-6.77309e-08 3.32753e-08 -2.21396e-08)
(-6.86237e-08 3.80574e-08 -2.7776e-08)
(-6.82226e-08 4.17831e-08 -3.15778e-08)
(-6.1997e-08 3.76227e-08 -3.12396e-08)
(-5.91993e-08 1.65315e-08 -1.81352e-09)
(-6.3719e-08 1.74254e-08 -5.74997e-09)
(-6.49569e-08 2.15123e-08 -1.00667e-08)
(-6.54636e-08 2.69775e-08 -1.47495e-08)
(-6.62916e-08 3.19973e-08 -1.94441e-08)
(-6.7077e-08 3.55526e-08 -2.33797e-08)
(-6.67245e-08 3.79562e-08 -2.53451e-08)
(-6.12035e-08 3.32207e-08 -2.42359e-08)
(-5.72977e-08 1.63621e-08 -1.64635e-09)
(-6.19378e-08 1.71633e-08 -5.09522e-09)
(-6.3329e-08 2.08862e-08 -8.64939e-09)
(-6.38633e-08 2.57807e-08 -1.22606e-08)
(-6.46136e-08 3.00765e-08 -1.56406e-08)
(-6.53144e-08 3.2899e-08 -1.8194e-08)
(-6.49952e-08 3.48354e-08 -1.91582e-08)
(-5.98766e-08 3.00529e-08 -1.80565e-08)
(-5.60955e-08 1.60676e-08 -1.27304e-09)
(-6.06192e-08 1.67223e-08 -3.87802e-09)
(-6.20092e-08 2.01083e-08 -6.48542e-09)
(-6.25408e-08 2.45223e-08 -9.01466e-09)
(-6.32497e-08 2.83115e-08 -1.12461e-08)
(-6.39117e-08 3.07574e-08 -1.27988e-08)
(-6.3626e-08 3.25577e-08 -1.32487e-08)
(-5.87414e-08 2.78025e-08 -1.23858e-08)
(-5.54088e-08 1.58369e-08 -7.95276e-10)
(-5.98234e-08 1.63308e-08 -2.39475e-09)
(-6.11773e-08 1.94585e-08 -3.97045e-09)
(-6.16938e-08 2.35524e-08 -5.45715e-09)
(-6.23829e-08 2.70452e-08 -6.71796e-09)
(-6.30337e-08 2.93109e-08 -7.54768e-09)
(-6.27766e-08 3.10745e-08 -7.7374e-09)
(-5.80271e-08 2.63433e-08 -7.19546e-09)
(-5.51004e-08 1.57189e-08 -2.6981e-10)
(-5.94622e-08 1.61118e-08 -8.07235e-10)
(-6.07931e-08 1.90997e-08 -1.33251e-09)
(-6.1299e-08 2.30368e-08 -1.82181e-09)
(-6.19801e-08 2.63959e-08 -2.22891e-09)
(-6.26296e-08 2.85886e-08 -2.48943e-09)
(-6.23891e-08 3.03427e-08 -2.5406e-09)
(-5.77031e-08 2.56245e-08 -2.3562e-09)
(-6.59202e-09 -2.26024e-08 -5.08121e-08)
(1.62462e-09 -2.74889e-08 -4.41707e-08)
(6.59093e-09 -2.84804e-08 -3.27199e-08)
(7.69853e-09 -2.98805e-08 -2.44898e-08)
(7.12323e-09 -3.14748e-08 -1.78252e-08)
(6.27756e-09 -3.28815e-08 -1.20925e-08)
(5.67062e-09 -3.3896e-08 -6.99923e-09)
(5.38027e-09 -3.44214e-08 -2.29035e-09)
(1.44376e-09 -2.84481e-08 -4.6755e-08)
(3.13481e-09 -3.28914e-08 -4.5007e-08)
(4.64338e-09 -3.26921e-08 -3.45856e-08)
(4.84187e-09 -3.30826e-08 -2.5558e-08)
(4.35916e-09 -3.3991e-08 -1.81243e-08)
(3.80628e-09 -3.50072e-08 -1.20449e-08)
(3.42108e-09 -3.58304e-08 -6.89154e-09)
(3.23619e-09 -3.62809e-08 -2.24459e-09)
(1.6148e-08 -2.95683e-08 -4.58151e-08)
(1.26116e-08 -3.38785e-08 -4.4188e-08)
(9.57809e-09 -3.36161e-08 -3.39417e-08)
(8.17313e-09 -3.39589e-08 -2.50736e-08)
(7.73118e-09 -3.48284e-08 -1.77749e-08)
(7.615e-09 -3.58142e-08 -1.18099e-08)
(7.56656e-09 -3.66164e-08 -6.75632e-09)
(7.53828e-09 -3.70562e-08 -2.20047e-09)
(2.36027e-08 -2.61196e-08 -4.79259e-08)
(1.3742e-08 -3.07237e-08 -4.17244e-08)
(7.31314e-09 -3.15631e-08 -3.07985e-08)
(4.98916e-09 -3.28288e-08 -2.30337e-08)
(4.6185e-09 -3.43064e-08 -1.6769e-08)
(4.77876e-09 -3.56203e-08 -1.13799e-08)
(4.94181e-09 -3.65701e-08 -6.58844e-09)
(5.01402e-09 -3.70623e-08 -2.15623e-09)
)
;
        gradient        nonuniform List<vector> 
192
(
(5.04698e-06 8.7778e-08 9.5687e-08)
(4.89583e-06 2.5141e-08 1.57691e-07)
(4.97052e-06 3.77491e-08 1.63515e-07)
(5.07166e-06 4.56892e-08 1.55726e-07)
(5.22239e-06 1.07283e-08 1.48813e-07)
(5.48068e-06 -9.78674e-08 1.46925e-07)
(5.89147e-06 -2.35936e-07 1.52184e-07)
(5.94469e-06 -1.36824e-07 1.62304e-07)
(4.78939e-06 3.27726e-07 1.39853e-07)
(4.67431e-06 7.93839e-08 2.34354e-07)
(4.73407e-06 3.56433e-08 2.43768e-07)
(4.83464e-06 4.07425e-08 2.35508e-07)
(4.99679e-06 1.4858e-08 2.31629e-07)
(5.28139e-06 -8.49212e-08 2.36001e-07)
(5.74865e-06 -2.21793e-07 2.48143e-07)
(5.89157e-06 -1.26491e-07 2.62646e-07)
(4.32077e-06 4.62073e-07 5.39349e-08)
(4.23911e-06 1.29069e-07 1.11097e-07)
(4.29892e-06 3.89036e-08 1.22871e-07)
(4.39482e-06 3.35505e-08 1.1673e-07)
(4.55045e-06 1.12213e-08 1.09035e-07)
(4.82577e-06 -8.13535e-08 1.05642e-07)
(5.28258e-06 -2.09291e-07 1.10536e-07)
(5.48145e-06 -1.20346e-07 1.25365e-07)
(4.0518e-06 4.92829e-07 4.03597e-09)
(3.97664e-06 1.4833e-07 1.78118e-08)
(4.03827e-06 4.12775e-08 2.27451e-08)
(4.13255e-06 2.69065e-08 1.85422e-08)
(4.2842e-06 3.77007e-09 1.07407e-08)
(4.55289e-06 -8.34199e-08 4.67409e-09)
(5.0007e-06 -2.0207e-07 5.92969e-09)
(5.22559e-06 -1.19477e-07 1.55645e-08)
(3.90503e-06 4.83968e-07 -9.10427e-09)
(3.83242e-06 1.47786e-07 -1.43257e-08)
(3.8947e-06 3.96347e-08 -1.59383e-08)
(3.98807e-06 2.15461e-08 -1.96214e-08)
(4.13741e-06 -2.64676e-09 -2.54367e-08)
(4.40219e-06 -8.61645e-08 -3.03012e-08)
(4.84431e-06 -1.984e-07 -3.0066e-08)
(5.08201e-06 -1.20576e-07 -2.47028e-08)
(3.82158e-06 4.69434e-07 -8.39391e-09)
(3.75072e-06 1.41502e-07 -1.62568e-08)
(3.81302e-06 3.59823e-08 -1.99289e-08)
(3.90569e-06 1.74082e-08 -2.31302e-08)
(4.0536e-06 -6.90977e-09 -2.68944e-08)
(4.31608e-06 -8.80491e-08 -2.98814e-08)
(4.7547e-06 -1.96472e-07 -2.98137e-08)
(4.99889e-06 -1.21567e-07 -2.68768e-08)
(3.77532e-06 4.5934e-07 -4.86675e-09)
(3.70552e-06 1.36255e-07 -9.9317e-09)
(3.76768e-06 3.27617e-08 -1.27139e-08)
(3.85985e-06 1.45806e-08 -1.48649e-08)
(4.00692e-06 -9.39798e-09 -1.6964e-08)
(4.26811e-06 -8.90837e-08 -1.84998e-08)
(4.70472e-06 -1.95395e-07 -1.84449e-08)
(4.95214e-06 -1.22004e-07 -1.69144e-08)
(3.75454e-06 4.54649e-07 -1.53162e-09)
(3.68522e-06 1.33657e-07 -3.16387e-09)
(3.74727e-06 3.10493e-08 -4.13018e-09)
(3.83918e-06 1.31581e-08 -4.87634e-09)
(3.98586e-06 -1.05447e-08 -5.55274e-09)
(4.24647e-06 -8.95299e-08 -6.02302e-09)
(4.68216e-06 -1.94886e-07 -5.99892e-09)
(4.93095e-06 -1.22108e-07 -5.51364e-09)
(-3.47855e-09 -5.98743e-08 5.44587e-06)
(-2.37017e-08 -2.19477e-07 5.30293e-06)
(-3.06931e-08 -2.62594e-07 5.37406e-06)
(-2.39847e-08 -2.79995e-07 5.46815e-06)
(-1.11754e-08 -3.06508e-07 5.61229e-06)
(1.88575e-09 -3.54969e-07 5.86998e-06)
(7.99172e-09 -3.80263e-07 6.29511e-06)
(-5.61562e-10 -1.68768e-07 6.39234e-06)
(4.7076e-08 3.93702e-08 5.33141e-06)
(6.21699e-08 -2.12817e-07 5.23499e-06)
(6.12121e-08 -2.63863e-07 5.29669e-06)
(6.63452e-08 -2.67828e-07 5.39553e-06)
(7.7544e-08 -2.85036e-07 5.55912e-06)
(9.12428e-08 -3.34112e-07 5.8535e-06)
(1.01503e-07 -3.7502e-07 6.34154e-06)
(9.95034e-08 -1.70886e-07 6.48951e-06)
(-3.39374e-08 4.91508e-08 5.29596e-06)
(-3.12714e-08 -2.05379e-07 5.19577e-06)
(-1.79096e-08 -2.58424e-07 5.2564e-06)
(-1.37676e-08 -2.63665e-07 5.35499e-06)
(-1.75585e-08 -2.81613e-07 5.51858e-06)
(-2.49867e-08 -3.31014e-07 5.81317e-06)
(-2.94883e-08 -3.7201e-07 6.30199e-06)
(-2.22828e-08 -1.69661e-07 6.45617e-06)
(1.57029e-08 -2.60652e-08 5.3494e-06)
(5.25721e-08 -1.96827e-07 5.19914e-06)
(7.1578e-08 -2.46363e-07 5.26845e-06)
(7.40763e-08 -2.67478e-07 5.36208e-06)
(6.86712e-08 -2.96256e-07 5.50615e-06)
(6.18087e-08 -3.46044e-07 5.76391e-06)
(6.11424e-08 -3.72321e-07 6.18939e-06)
(7.4423e-08 -1.6571e-07 6.29821e-06)
(-5.0316e-06 4.46367e-08 1.04714e-07)
(-4.87713e-06 -3.19581e-08 1.81749e-07)
(-4.95006e-06 -3.20824e-08 1.9928e-07)
(-5.04918e-06 -3.64032e-08 2.00632e-07)
(-5.19818e-06 -8.31242e-08 2.01095e-07)
(-5.45714e-06 -2.02041e-07 2.05389e-07)
(-5.87881e-06 -3.47641e-07 2.16108e-07)
(-5.98501e-06 -2.5563e-07 2.31245e-07)
(-4.73146e-06 2.96812e-07 1.45375e-07)
(-4.61225e-06 3.46458e-08 2.51786e-07)
(-4.66931e-06 -2.39525e-08 2.71714e-07)
(-4.7665e-06 -3.31318e-08 2.72145e-07)
(-4.92508e-06 -7.22288e-08 2.7544e-07)
(-5.20768e-06 -1.83255e-07 2.85855e-07)
(-5.68251e-06 -3.28083e-07 3.03316e-07)
(-5.8791e-06 -2.40638e-07 3.22799e-07)
(-4.2607e-06 4.41728e-07 5.88268e-08)
(-4.17298e-06 9.43655e-08 1.25099e-07)
(-4.22944e-06 -1.17254e-08 1.45435e-07)
(-4.32157e-06 -3.26774e-08 1.46928e-07)
(-4.47319e-06 -6.94143e-08 1.4581e-07)
(-4.7459e-06 -1.74165e-07 1.48038e-07)
(-5.20908e-06 -3.10698e-07 1.57801e-07)
(-5.45844e-06 -2.30111e-07 1.76992e-07)
(-3.99647e-06 4.80675e-07 7.69469e-09)
(-3.91429e-06 1.21242e-07 2.80165e-08)
(-3.97209e-06 -2.12452e-09 3.94276e-08)
(-4.06233e-06 -3.2757e-08 4.14138e-08)
(-4.20985e-06 -7.11182e-08 3.92128e-08)
(-4.4758e-06 -1.71264e-07 3.80531e-08)
(-4.92941e-06 -2.99129e-07 4.35809e-08)
(-5.20231e-06 -2.25272e-07 5.70296e-08)
(-3.85465e-06 4.77397e-07 -6.71249e-09)
(-3.77461e-06 1.2609e-07 -7.55435e-09)
(-3.83277e-06 1.67113e-09 -4.57492e-09)
(-3.92192e-06 -3.28922e-08 -3.60435e-09)
(-4.06705e-06 -7.2775e-08 -5.01426e-09)
(-4.32903e-06 -1.69797e-07 -5.90242e-09)
(-4.77664e-06 -2.91721e-07 -2.14103e-09)
(-5.06076e-06 -2.22904e-07 6.41064e-09)
(-3.77507e-06 4.66375e-07 -6.96162e-09)
(-3.6966e-06 1.23374e-07 -1.21104e-08)
(-3.75466e-06 1.82491e-09 -1.27791e-08)
(-3.84299e-06 -3.31964e-08 -1.27893e-08)
(-3.98662e-06 -7.34163e-08 -1.3418e-08)
(-4.24625e-06 -1.6839e-07 -1.34949e-08)
(-4.69015e-06 -2.86816e-07 -1.07938e-08)
(-4.97975e-06 -2.21101e-07 -5.44481e-09)
(-3.73142e-06 4.58303e-07 -4.11389e-09)
(-3.65395e-06 1.20269e-07 -7.71574e-09)
(-3.7118e-06 9.91918e-10 -8.81329e-09)
(-3.79957e-06 -3.35311e-08 -9.11388e-09)
(-3.94231e-06 -7.34806e-08 -9.34565e-09)