/*--------------------------------*- C++ -*----------------------------------*\
| =========                 |                                                 |
| \\      /  F ield         | OpenFOAM: The Open Source CFD Toolbox           |
|  \\    /   O peration     | Version:  v1912                                 |
|   \\  /    A nd           | Website:  www.openfoam.com                      |
|    \\/     M anipulation  |                                                 |
\*---------------------------------------------------------------------------*/
FoamFile
{
    version     2.0;
    format      ascii;
    class       volVectorField;
    location    "0.13/solid";
    object      heatFlux;
}
// * * * * * * * * * * * * * * * * * * * * * * * * * * * * * * * * * * * * * //

dimensions      [1 0 -3 0 0 0 0];


internalField   nonuniform List<vector> 
256
(
(-105986 31301.4 -112970)
(-7629.54 15616.1 -102109)
(7760.26 15590 -101454)
(105350 31597 -110767)
(-106049 1005.06 -113075)
(-8081.93 518.79 -102544)
(8220.68 516.862 -101843)
(105348 1010.74 -110720)
(-107055 153.748 -114063)
(-8117.74 70.2346 -103425)
(8252.21 69.3119 -102702)
(106294 146.301 -111641)
(-108803 253.949 -115755)
(-8166.36 117.115 -104964)
(8296.74 116.644 -104229)
(107985 246.32 -113300)
(-111794 502.386 -118661)
(-8255.04 245.949 -107688)
(8381.42 245.871 -106950)
(110934 495.767 -116194)
(-117053 1309.28 -123842)
(-8422.88 804.058 -112750)
(8546.56 804.316 -112015)
(116207 1309.37 -121382)
(-126695 11266.7 -133570)
(-8760.01 10075.9 -122803)
(8886.73 10055.9 -122081)
(126049 11226 -131145)
(-139073 146834 -146832)
(-9633.76 138173 -138172)
(9696.66 137474 -137473)
(139162 144495 -144495)
(-90953.1 14516.2 -8746.89)
(-6570.79 937 -7347.3)
(6775.45 954.086 -7326.19)
(89822.9 14924.6 -8690.34)
(-91415.4 491.721 -9260.99)
(-6991.3 39.7347 -7816.66)
(7212.18 40.4293 -7793.44)
(90222 505.038 -9198.21)
(-92354.7 75.9757 -9295.95)
(-7022.08 3.05888 -7846.56)
(7240.76 2.93927 -7822.77)
(91092.9 70.4082 -9231.72)
(-93996.6 128.032 -9341.08)
(-7064.34 4.45902 -7885.29)
(7279.53 4.2719 -7861.25)
(92660.1 120.196 -9276.54)
(-96876.1 262.429 -9423.81)
(-7145.84 14.9778 -7961.22)
(7356.49 14.729 -7937.15)
(95465.7 253.147 -9360.04)
(-102121 818.086 -9582.91)
(-7312.04 284.584 -8120.73)
(7517.7 283.926 -8096.89)
(100671 811.598 -9521.63)
(-112193 9923.37 -9923.21)
(-7680 8498.45 -8498.4)
(7883.51 8475.33 -8475.31)
(110871 9867.4 -9867.47)
(-126698 133575 -11266.5)
(-8760.08 122807 -10075.8)
(8886.66 122083 -10055.8)
(126048 131145 -11226.1)
(-80831.3 13293.5 -767.564)
(-6208.84 452.153 -240.813)
(6417.22 470.331 -240.145)
(79621.4 13708.5 -759.272)
(-81292.6 455.998 -809.003)
(-6614.38 19.5265 -260.895)
(6839.13 20.282 -260.164)
(80011.4 469.359 -800.396)
(-82209.2 73.6627 -810.33)
(-6644.55 1.6092 -261.704)
(6867.05 1.50077 -260.966)
(80856.9 67.9714 -801.802)
(-83827.1 126.092 -810.747)
(-6686.54 2.45338 -262.359)
(6905.49 2.26556 -261.618)
(82397.3 117.999 -802.325)
(-86691.2 260.555 -810.695)
(-6768.38 10.5022 -263.703)
(6982.6 10.2367 -262.968)
(85182.2 250.676 -802.5)
(-91954.9 809.88 -809.702)
(-6936.86 266.88 -266.877)
(7145.66 266.158 -266.158)
(90395.3 801.941 -802.027)
(-102125 9583.14 -817.902)
(-7312.1 8120.82 -284.58)
(7517.66 8096.93 -283.926)
(100668 9521.55 -811.685)
(-117060 123851 -1308.89)
(-8423.07 112755 -803.925)
(8546.39 112018 -804.26)
(116203 121382 -1309.49)
(-75510.2 12939.6 -256.259)
(-6043.37 435.293 -9.71207)
(6257 453.777 -9.45941)
(74345.1 13365 -246.938)
(-75968.2 448.955 -266.367)
(-6442.46 18.8432 -10.4748)
(6672.68 19.6081 -10.2049)
(74729.3 462.508 -256.604)
(-76886.5 74.2318 -266.091)
(-6472.71 1.59485 -10.4885)
(6700.66 1.48495 -10.2195)
(75576.1 68.4795 -256.365)
(-78514.3 127.667 -265.055)
(-6515.21 2.45993 -10.4759)
(6739.57 2.26954 -10.2089)
(77126.6 119.497 -255.388)
(-81400.2 263.474 -263.125)
(-6598.11 10.4593 -10.4544)
(6817.7 10.1891 -10.1903)
(79933.7 253.445 -253.534)
(-86698.4 810.878 -260.201)
(-6768.49 263.708 -10.4972)
(6982.55 262.968 -10.2379)
(85179.9 802.413 -250.762)
(-96887.6 9424.19 -262.056)
(-7146.02 7961.4 -14.9689)
(7356.4 7937.23 -14.7284)
(95461.3 9359.94 -253.236)
(-111809 118678 -501.573)
(-8255.46 107699 -245.655)
(8381.09 106956 -245.723)
(110927 116193 -495.89)
(-72591.4 12770.9 -125.101)
(-5962.04 431.966 -2.3563)
(6179.99 450.667 -2.18374)
(71487.4 13205 -117.937)
(-73050.2 446.166 -129.517)
(-6358.22 18.75 -2.49242)
(6593 19.5219 -2.30766)
(71873 459.932 -121.966)
(-73976 74.9749 -129.117)
(-6388.68 1.60814 -2.48638)
(6621.18 1.49679 -2.30233)
(72727.8 69.1869 -121.579)
(-75619 129.058 -128.206)
(-6431.7 2.48747 -2.46893)
(6660.58 2.29471 -2.28682)
(74294.3 120.831 -120.719)
(-78527.5 265.409 -126.803)
(-6515.44 10.4808 -2.44118)
(6739.52 10.2077 -2.26151)
(77125.1 255.302 -119.375)
(-83847.8 810.948 -125.204)
(-6686.9 262.366 -2.43404)
(6905.4 261.619 -2.25699)
(82393.6 802.239 -117.855)
(-94022.2 9341.77 -127.084)
(-7064.77 7885.66 -4.42132)
(7279.39 7861.44 -4.24987)
(92654.2 9276.42 -120.023)
(-108833 115787 -251.87)
(-8167.22 104986 -116.258)
(8296.15 104242 -116.1)
(107976 113301 -245.998)
(-70952.6 12685 -63.5385)
(-5920.45 430.444 -1.09635)
(6141.42 449.286 -0.987981)
(69900 13125.1 -58.7686)
(-71413.2 444.94 -65.619)
(-6315.25 18.7131 -1.15463)
(6553.21 19.4896 -1.03849)
(70288.3 458.866 -60.5818)
(-72346 75.5429 -65.3094)
(-6345.9 1.61834 -1.14954)
(6581.57 1.50579 -1.03389)
(71150.8 69.7269 -60.2774)
(-74001.5 129.981 -64.6987)
(-6389.29 2.50513 -1.13821)
(6621.32 2.31036 -1.02412)
(72730.3 121.7 -59.7096)
(-76925.7 266.476 -63.8584)
(-6473.57 10.4942 -1.12206)
(6700.76 10.2189 -1.00985)
(75577.6 256.308 -58.9213)
(-82256.8 810.598 -63.0988)
(-6645.55 261.728 -1.11803)
(6867.13 260.979 -1.00745)
(80857.2 801.765 -58.215)
(-92408.8 9297.52 -64.5697)
(-7023.19 7847.58 -2.06631)
(7240.8 7823.39 -1.95658)
(91091.7 9231.79 -59.8186)
(-107115 114130 -130.459)
(-8119.69 103473 -58.2524)
(8251.35 102730 -58.072)
(106289 111648 -126.059)
(-70064.2 12641.8 -30.23)
(-5899.49 429.715 -0.500312)
(6122.32 448.64 -0.441004)
(69047.6 13085.6 -27.5217)
(-70526.2 444.395 -31.1658)
(-6293.64 18.6969 -0.5258)
(6533.57 19.476 -0.462229)
(69438.3 458.423 -28.3041)
(-71463.9 75.8952 -30.9839)
(-6324.4 1.62456 -0.522788)
(6562.05 1.51115 -0.459524)
(70306.2 70.0591 -28.1249)
(-73127.3 130.509 -30.6487)
(-6368.02 2.51494 -0.516721)
(6602 2.31875 -0.454437)
(71894 122.187 -27.818)
(-76060.8 267.009 -30.2199)
(-6452.59 10.501 -0.508671)
(6681.72 10.2244 -0.447559)
(74750.9 256.797 -27.4244)
(-81396.4 810.237 -29.8985)
(-6624.81 261.422 -0.507139)
(6848.3 260.673 -0.446923)
(80034.9 801.342 -27.1353)
(-91530.2 9274.41 -30.7863)
(-7002.16 7828.53 -0.939578)
(7221.64 7804.38 -0.878979)
(90249.2 9208.58 -28.0784)
(-106165 113217 -62.962)
(-8094.83 102653 -27.5397)
(8228.35 101912 -27.4155)
(105363 110740 -60.313)
(-69672.3 12623.6 -8.95188)
(-5890.66 429.418 -0.144925)
(6114.39 448.382 -0.126036)
(68674.2 13069.2 -8.07377)
(-70135 444.186 -9.22004)
(-6284.55 18.6906 -0.152122)
(6525.43 19.471 -0.131874)
(69066.2 458.263 -8.29213)
(-71075.1 76.0599 -9.16095)
(-6315.37 1.62742 -0.151147)
(6553.97 1.51358 -0.131003)
(69936.7 70.213 -8.23398)
(-72742.3 130.745 -9.05532)
(-6359.1 2.51925 -0.149258)
(6594.02 2.32233 -0.129448)
(71528.5 122.401 -8.13826)
(-75680 267.226 -8.9251)
(-6443.8 10.5038 -0.146842)
(6673.85 10.2265 -0.127427)
(74389.6 256.991 -8.02042)
(-81017 810.031 -8.83786)
(-6616.1 261.297 -0.146479)
(6840.5 260.548 -0.127347)
(79675.1 801.111 -7.94398)
(-91141.1 9264.46 -9.13051)
(-6993.28 7820.54 -0.271668)
(7213.66 7796.42 -0.252292)
(89878.7 9198.62 -8.25153)
(-105740 112810 -18.783)
(-8084.14 102291 -8.13261)
(8218.58 101551 -8.08947)
(104952 110335 -17.9025)
)
;

boundaryField
{
    interface
    {
        type            calculated;
        value           nonuniform List<vector> 
192
(
(-196739 31301.4 -112970)
(-195961 1005.06 -113075)
(-197903 153.748 -114063)
(-201302 253.949 -115755)
(-207107 502.386 -118661)
(-217291 1309.28 -123842)
(-235899 11266.7 -133570)
(-258947 146834 -146832)
(-168748 14516.2 -8746.89)
(-168830 491.721 -9260.99)
(-170647 75.9757 -9295.95)
(-173847 128.032 -9341.08)
(-179443 262.429 -9423.81)
(-189600 818.086 -9582.91)
(-209010 9923.37 -9923.21)
(-235904 133575 -11266.5)
(-149227 13293.5 -767.564)
(-149338 455.998 -809.003)
(-151110 73.6627 -810.33)
(-154262 126.092 -810.747)
(-159827 260.555 -810.695)
(-170018 809.88 -809.702)
(-189608 9583.14 -817.902)
(-217304 123851 -1308.89)
(-138916 12939.6 -256.259)
(-139032 448.955 -266.367)
(-140808 74.2318 -266.091)
(-143979 127.667 -265.055)
(-149585 263.474 -263.125)
(-159841 810.878 -260.201)
(-179466 9424.19 -262.056)
(-207137 118678 -501.573)
(-133241 12770.9 -125.101)
(-133365 446.166 -129.517)
(-135155 74.9749 -129.117)
(-138355 129.058 -128.206)
(-144005 265.409 -126.803)
(-154303 810.948 -125.204)
(-173897 9341.77 -127.084)
(-201361 115787 -251.87)
(-130046 12685 -63.5385)
(-130176 444.94 -65.619)
(-131981 75.5429 -65.3094)
(-135205 129.981 -64.6987)
(-140885 266.476 -63.8584)
(-151204 810.598 -63.0988)
(-170754 9297.52 -64.5697)
(-198021 114130 -130.459)
(-128311 12641.8 -30.23)
(-128445 444.395 -31.1658)
(-130259 75.8952 -30.9839)
(-133499 130.509 -30.6487)
(-139197 267.009 -30.2199)
(-149524 810.237 -29.8985)
(-169038 9274.41 -30.7863)
(-196170 113217 -62.962)
(-127545 12623.6 -8.95188)
(-127681 444.186 -9.22004)
(-129500 76.0599 -9.16095)
(-132747 130.745 -9.05532)
(-138453 267.226 -8.9251)
(-148783 810.031 -8.83786)
(-168278 9264.46 -9.13051)
(-195341 112810 -18.783)
(-105986 31301.4 -209634)
(-106049 1005.06 -208886)
(-107055 153.748 -210795)
(-108803 253.949 -214089)
(-111794 502.386 -219739)
(-117053 1309.28 -229783)
(-126695 11266.7 -248574)
(-139073 146834 -273077)
(-7629.54 15616.1 -189989)
(-8081.93 518.79 -189959)
(-8117.74 70.2346 -191664)
(-8166.36 117.115 -194664)
(-8255.04 245.949 -199962)
(-8422.88 804.058 -209774)
(-8760.01 10075.9 -229155)
(-9633.76 138173 -257463)
(7760.26 15590 -188719)
(8220.68 516.862 -188601)
(8252.21 69.3119 -190262)
(8296.74 116.644 -193242)
(8381.42 245.871 -198534)
(8546.56 804.316 -208352)
(8886.73 10055.9 -227756)
(9696.66 137474 -256106)
(105350 31597 -205336)
(105348 1010.74 -204295)
(106294 146.301 -206073)
(107985 246.32 -209302)
(110934 495.767 -214925)
(116207 1309.37 -224981)
(126049 11226 -243832)
(139162 144495 -268489)
(195154 31597 -110767)
(194227 1010.74 -110720)
(196056 146.301 -111641)
(199346 246.32 -113300)
(205075 495.767 -116194)
(215291 1309.37 -121382)
(234296 11226 -131145)
(258860 144495 -144495)
(166111 14924.6 -8690.34)
(166037 505.038 -9198.21)
(167722 70.4082 -9231.72)
(170779 120.196 -9276.54)
(176236 253.147 -9360.04)
(186323 811.598 -9521.63)
(205991 9867.4 -9867.47)
(234293 131145 -11226.1)
(146426 13708.5 -759.272)
(146363 469.359 -800.396)
(147999 67.9714 -801.802)
(151002 117.999 -802.325)
(156418 250.676 -802.5)
(166518 801.941 -802.027)
(186319 9521.55 -811.685)
(215284 121382 -1309.49)
(136194 13365 -246.938)
(136133 462.508 -256.604)
(137770 68.4795 -256.365)
(140793 119.497 -255.388)
(146251 253.445 -253.534)
(156413 802.413 -250.762)
(176227 9359.94 -253.236)
(205063 116193 -495.89)
(130633 13205 -117.937)
(130580 459.932 -121.966)
(132233 69.1869 -121.579)
(135287 120.831 -120.719)
(140790 255.302 -119.375)
(150995 802.239 -117.855)
(170767 9276.42 -120.023)
(199330 113301 -245.998)
(127535 13125.1 -58.7686)
(127490 458.866 -60.5818)
(129158 69.7269 -60.2774)
(132237 121.7 -59.7096)
(137773 256.308 -58.9213)
(147999 801.765 -58.215)
(167720 9231.79 -59.8186)
(196046 111648 -126.059)
(125869 13085.6 -27.5217)
(125829 458.423 -28.3041)
(127508 70.0591 -28.1249)
(130604 122.187 -27.818)
(136158 256.797 -27.4244)
(146392 801.342 -27.1353)
(166073 9208.58 -28.0784)
(194241 110740 -60.313)
(125138 13069.2 -8.07377)
(125101 458.263 -8.29213)
(126785 70.213 -8.23398)
(129888 122.401 -8.13826)
(135451 256.991 -8.02042)
(145688 801.111 -7.94398)
(165348 9198.62 -8.25153)
(193438 110335 -17.9025)
(-139073 273081 -146832)
(-126698 248583 -11266.5)
(-117060 229801 -1308.89)
(-111809 219772 -501.573)
(-108833 214152 -251.87)
(-107115 210925 -130.459)
(-106165 209144 -62.962)
(-105740 208349 -18.783)
(-9633.76 257466 -138172)
(-8760.08 229161 -10075.8)
(-8423.07 209785 -803.925)
(-8255.46 199985 -245.655)
(-8167.22 194708 -116.258)
(-8119.69 191757 -58.2524)
(-8094.83 190155 -27.5397)
(-8084.14 189447 -8.13261)
(9696.66 256109 -137473)
(8886.66 227760 -10055.8)
(8546.39 208358 -804.26)
(8381.09 198546 -245.723)
(8296.15 193267 -116.1)
(8251.35 190319 -58.072)
(8228.35 188719 -27.4155)
(8218.58 188013 -8.08947)
(139162 268490 -144495)
(126048 243832 -11226.1)
(116203 224981 -1309.49)
(110927 214924 -495.89)
(107976 209304 -245.998)
(106289 206086 -126.059)
(105363 204314 -60.313)
(104952 203525 -17.9025)
)
;
    }
    symmetry
    {
        type            symmetry;
    }
    bottom
    {
        type            calculated;
        value           nonuniform List<vector> 
32
(
(-105986 60724.6 -112970)
(-90953.1 28113.6 -8746.89)
(-80831.3 25737 -767.564)
(-75510.2 25043.4 -256.259)
(-72591.4 24712 -125.101)
(-70952.6 24543 -63.5385)
(-70064.2 24457.9 -30.23)
(-69672.3 24422.1 -8.95188)
(-7629.54 30256.1 -102109)
(-6570.79 1797.79 -7347.3)
(-6208.84 866.925 -240.813)
(-6043.37 834.538 -9.71207)
(-5962.04 828.077 -2.3563)
(-5920.45 825.113 -1.09635)
(-5899.49 823.691 -0.500312)
(-5890.66 823.112 -0.144925)
(7760.26 30206.5 -101454)
(6775.45 1830.49 -7326.19)
(6417.22 901.706 -240.145)
(6257 869.911 -9.45941)
(6179.99 863.868 -2.18374)
(6141.42 861.176 -0.987981)
(6122.32 859.916 -0.441004)
(6114.39 859.412 -0.126036)
(105350 61297.2 -110767)
(89822.9 28899.6 -8690.34)
(79621.4 26535.8 -759.272)
(74345.1 25862.5 -246.938)
(71487.4 25548.1 -117.937)
(69900 25390.8 -58.7686)
(69047.6 25313 -27.5217)
(68674.2 25280.7 -8.07377)
)
;
    }
}


// ************************************************************************* //
