/*--------------------------------*- C++ -*----------------------------------*\
| =========                 |                                                 |
| \\      /  F ield         | OpenFOAM: The Open Source CFD Toolbox           |
|  \\    /   O peration     | Version:  v1912                                 |
|   \\  /    A nd           | Website:  www.openfoam.com                      |
|    \\/     M anipulation  |                                                 |
\*---------------------------------------------------------------------------*/
FoamFile
{
    version     2.0;
    format      ascii;
    class       pointVectorField;
    location    "0.13/solid";
    object      pointDD;
}
// * * * * * * * * * * * * * * * * * * * * * * * * * * * * * * * * * * * * * //

dimensions      [0 1 0 0 0 0 0];


internalField   nonuniform List<vector> 
405
(
(2.86515e-10 1.03605e-09 4.12012e-10)
(2.78638e-10 6.90099e-10 -1.44338e-10)
(1.16068e-11 5.20072e-10 -3.34164e-10)
(-2.48786e-10 6.88943e-10 -1.32583e-10)
(-1.81058e-10 1.0002e-09 4.43555e-10)
(6.66749e-10 9.87181e-10 1.21059e-09)
(7.47076e-10 9.35303e-10 2.72831e-10)
(5.25453e-11 6.94919e-10 -1.18553e-10)
(-6.26853e-10 9.11442e-10 3.15684e-10)
(-4.50578e-10 9.04661e-10 1.29086e-09)
(9.20829e-10 -6.53062e-11 2.23275e-09)
(9.60972e-10 5.11572e-11 1.27653e-09)
(1.14298e-10 -4.84766e-11 8.78762e-10)
(-7.15972e-10 -1.33235e-11 1.34935e-09)
(-5.86084e-10 -2.03809e-10 2.3648e-09)
(9.22643e-10 -9.72046e-10 3.04125e-09)
(9.77146e-10 -8.16763e-10 2.10849e-09)
(1.82087e-10 -8.78195e-10 1.71573e-09)
(-5.97665e-10 -9.16197e-10 2.19815e-09)
(-4.6017e-10 -1.16188e-09 3.2032e-09)
(9.30505e-10 -1.79337e-09 3.79609e-09)
(9.86496e-10 -1.67866e-09 2.88115e-09)
(2.56278e-10 -1.76704e-09 2.4824e-09)
(-4.5945e-10 -1.80737e-09 2.98066e-09)
(-3.26231e-10 -2.02845e-09 3.97571e-09)
(1.07127e-09 -2.59382e-09 4.5846e-09)
(1.09284e-09 -2.55683e-09 3.67624e-09)
(3.37734e-10 -2.69784e-09 3.2637e-09)
(-4.0346e-10 -2.71055e-09 3.78147e-09)
(-3.0994e-10 -2.86896e-09 4.77482e-09)
(1.48317e-09 -3.50558e-09 5.48807e-09)
(1.40611e-09 -3.52315e-09 4.56174e-09)
(4.26885e-10 -3.67723e-09 4.13555e-09)
(-5.38969e-10 -3.69942e-09 4.67033e-09)
(-5.48486e-10 -3.81758e-09 5.68508e-09)
(2.40179e-09 -5.1469e-09 6.66352e-09)
(1.96753e-09 -5.05252e-09 5.84641e-09)
(5.23156e-10 -5.04397e-09 5.43672e-09)
(-9.0793e-10 -5.24967e-09 5.9573e-09)
(-1.27189e-09 -5.49384e-09 6.86557e-09)
(3.1674e-09 -6.1025e-09 7.52789e-09)
(2.31596e-09 -5.71218e-09 7.15856e-09)
(5.84093e-10 -5.46267e-09 6.8651e-09)
(-1.13402e-09 -5.91641e-09 7.27394e-09)
(-1.9384e-09 -6.44813e-09 7.724e-09)
(-3.83436e-10 3.9929e-10 3.49131e-10)
(0 0 0)
(0 0 0)
(0 0 0)
(4.95723e-10 3.52513e-10 3.71914e-10)
(-6.36454e-10 3.05939e-10 1.22738e-09)
(0 0 0)
(0 0 0)
(0 0 0)
(9.06578e-10 1.85449e-10 1.30513e-09)
(-4.93057e-10 -6.23183e-10 2.17967e-09)
(0 0 0)
(0 0 0)
(0 0 0)
(8.61241e-10 -7.97482e-10 2.31019e-09)
(-4.81463e-10 -1.45433e-09 2.97358e-09)
(0 0 0)
(0 0 0)
(0 0 0)
(9.63464e-10 -1.68042e-09 3.13758e-09)
(-4.44763e-10 -2.22732e-09 3.70472e-09)
(0 0 0)
(0 0 0)
(0 0 0)
(1.05822e-09 -2.50105e-09 3.88978e-09)
(-2.78768e-10 -2.96869e-09 4.45444e-09)
(0 0 0)
(0 0 0)
(0 0 0)
(1.04114e-09 -3.28607e-09 4.65297e-09)
(1.34556e-10 -3.74959e-09 5.28327e-09)
(0 0 0)
(0 0 0)
(0 0 0)
(7.95225e-10 -4.10786e-09 5.49085e-09)
(1.1685e-09 -5.0893e-09 6.12255e-09)
(0 0 0)
(0 0 0)
(0 0 0)
(-4.20816e-11 -5.48562e-09 6.33609e-09)
(2.43736e-09 -5.63994e-09 6.62579e-09)
(2.01426e-09 -4.85722e-09 6.65087e-09)
(5.69603e-10 -4.49274e-09 6.59957e-09)
(-8.61357e-10 -5.0587e-09 6.7603e-09)
(-1.23686e-09 -6.0016e-09 6.81601e-09)
(-7.78742e-10 -4.83514e-12 1.23209e-10)
(0 0 0)
(0 0 0)
(0 0 0)
(8.7864e-10 -4.41681e-11 1.39483e-10)
(-1.54162e-09 -4.04602e-10 6.55263e-10)
(0 0 0)
(0 0 0)
(0 0 0)
(1.77396e-09 -5.11834e-10 7.12289e-10)
(-1.52709e-09 -1.17821e-09 1.47019e-09)
(0 0 0)
(0 0 0)
(0 0 0)
(1.83534e-09 -1.34183e-09 1.56912e-09)
(-1.52409e-09 -1.92331e-09 2.2429e-09)
(0 0 0)
(0 0 0)
(0 0 0)
(1.93057e-09 -2.14047e-09 2.37132e-09)
(-1.47718e-09 -2.63881e-09 2.95554e-09)
(0 0 0)
(0 0 0)
(0 0 0)
(2.00418e-09 -2.90533e-09 3.10435e-09)
(-1.30244e-09 -3.29433e-09 3.6453e-09)
(0 0 0)
(0 0 0)
(0 0 0)
(1.97107e-09 -3.60639e-09 3.8081e-09)
(-8.77611e-10 -3.89163e-09 4.30383e-09)
(0 0 0)
(0 0 0)
(0 0 0)
(1.70928e-09 -4.24643e-09 4.47603e-09)
(1.80986e-10 -4.86015e-09 4.77461e-09)
(0 0 0)
(0 0 0)
(0 0 0)
(8.44708e-10 -5.25417e-09 4.95223e-09)
(1.56598e-09 -5.07359e-09 4.98023e-09)
(1.50089e-09 -4.18295e-09 5.12115e-09)
(5.22347e-10 -3.8038e-09 5.23534e-09)
(-4.42896e-10 -4.38481e-09 5.21201e-09)
(-4.64017e-10 -5.43438e-09 5.13787e-09)
(-9.09016e-10 -1.50571e-10 1.26316e-10)
(0 0 0)
(0 0 0)
(0 0 0)
(1.00494e-09 -1.82285e-10 1.38299e-10)
(-1.87657e-09 -6.96695e-10 5.92717e-10)
(0 0 0)
(0 0 0)
(0 0 0)
(2.09264e-09 -7.87883e-10 6.34702e-10)
(-1.95086e-09 -1.46693e-09 1.28715e-09)
(0 0 0)
(0 0 0)
(0 0 0)
(2.22721e-09 -1.61439e-09 1.36077e-09)
(-1.95763e-09 -2.19231e-09 1.97396e-09)
(0 0 0)
(0 0 0)
(0 0 0)
(2.3189e-09 -2.39527e-09 2.07151e-09)
(-1.89936e-09 -2.85472e-09 2.61344e-09)
(0 0 0)
(0 0 0)
(0 0 0)
(2.37062e-09 -3.10975e-09 2.72895e-09)
(-1.7099e-09 -3.40593e-09 3.1976e-09)
(0 0 0)
(0 0 0)
(0 0 0)
(2.31516e-09 -3.70943e-09 3.32624e-09)
(-1.26615e-09 -3.84586e-09 3.68718e-09)
(0 0 0)
(0 0 0)
(0 0 0)
(2.02968e-09 -4.19501e-09 3.82483e-09)
(-1.94975e-10 -4.6456e-09 3.97565e-09)
(0 0 0)
(0 0 0)
(0 0 0)
(1.15007e-09 -5.03666e-09 4.11853e-09)
(1.19294e-09 -4.78474e-09 4.06079e-09)
(1.23e-09 -3.91375e-09 4.15784e-09)
(4.83575e-10 -3.55025e-09 4.2643e-09)
(-2.49584e-10 -4.11611e-09 4.23132e-09)
(-1.65471e-10 -5.14514e-09 4.18805e-09)
(-9.6815e-10 -1.95995e-10 1.26902e-10)
(0 0 0)
(0 0 0)
(0 0 0)
(1.06284e-09 -2.22222e-10 1.35782e-10)
(-2.02255e-09 -7.99348e-10 5.37419e-10)
(0 0 0)
(0 0 0)
(0 0 0)
(2.2305e-09 -8.77789e-10 5.68306e-10)
(-2.13249e-09 -1.58964e-09 1.10958e-09)
(0 0 0)
(0 0 0)
(0 0 0)
(2.38956e-09 -1.72245e-09 1.16375e-09)
(-2.14508e-09 -2.31554e-09 1.67195e-09)
(0 0 0)
(0 0 0)
(0 0 0)
(2.47655e-09 -2.50454e-09 1.74441e-09)
(-2.07965e-09 -2.94266e-09 2.19367e-09)
(0 0 0)
(0 0 0)
(0 0 0)
(2.512e-09 -3.18587e-09 2.28064e-09)
(-1.87922e-09 -3.4244e-09 2.65039e-09)
(0 0 0)
(0 0 0)
(0 0 0)
(2.43851e-09 -3.71891e-09 2.74849e-09)
(-1.42364e-09 -3.78489e-09 3.00513e-09)
(0 0 0)
(0 0 0)
(0 0 0)
(2.13646e-09 -4.12823e-09 3.11111e-09)
(-3.45397e-10 -4.52954e-09 3.20572e-09)
(0 0 0)
(0 0 0)
(0 0 0)
(1.24726e-09 -4.91813e-09 3.31645e-09)
(1.06774e-09 -4.63038e-09 3.25246e-09)
(1.14936e-09 -3.75438e-09 3.28936e-09)
(4.533e-10 -3.40659e-09 3.34865e-09)
(-2.29585e-10 -3.95726e-09 3.34684e-09)
(-9.76304e-11 -4.99091e-09 3.35165e-09)
(-9.97728e-10 -2.08189e-10 1.05969e-10)
(0 0 0)
(0 0 0)
(0 0 0)
(1.09218e-09 -2.30689e-10 1.12261e-10)
(-2.08572e-09 -8.29602e-10 4.31465e-10)
(0 0 0)
(0 0 0)
(0 0 0)
(2.28937e-09 -8.98969e-10 4.53246e-10)
(-2.20102e-09 -1.63052e-09 8.68624e-10)
(0 0 0)
(0 0 0)
(0 0 0)
(2.44602e-09 -1.75212e-09 9.06783e-10)
(-2.21367e-09 -2.35709e-09 1.29163e-09)
(0 0 0)
(0 0 0)
(0 0 0)
(2.52528e-09 -2.53475e-09 1.3429e-09)
(-2.14421e-09 -2.96589e-09 1.67975e-09)
(0 0 0)
(0 0 0)
(0 0 0)
(2.54955e-09 -3.1991e-09 1.74179e-09)
(-1.93798e-09 -3.41575e-09 2.01088e-09)
(0 0 0)
(0 0 0)
(0 0 0)
(2.46441e-09 -3.70252e-09 2.08144e-09)
(-1.477e-09 -3.74889e-09 2.26042e-09)
(0 0 0)
(0 0 0)
(0 0 0)
(2.15288e-09 -4.08729e-09 2.33719e-09)
(-3.9522e-10 -4.48094e-09 2.40564e-09)
(0 0 0)
(0 0 0)
(0 0 0)
(1.25792e-09 -4.86768e-09 2.48629e-09)
(1.04373e-09 -4.55481e-09 2.44042e-09)
(1.14449e-09 -3.66414e-09 2.44647e-09)
(4.30852e-10 -3.32572e-09 2.47244e-09)
(-2.69768e-10 -3.86749e-09 2.48871e-09)
(-1.16138e-10 -4.9157e-09 2.51303e-09)
(-1.01533e-09 -2.1079e-10 7.39361e-11)
(0 0 0)
(0 0 0)
(0 0 0)
(1.10983e-09 -2.30883e-10 7.7953e-11)
(-2.11874e-09 -8.35797e-10 2.96329e-10)
(0 0 0)
(0 0 0)
(0 0 0)
(2.32004e-09 -8.99184e-10 3.10206e-10)
(-2.23048e-09 -1.63844e-09 5.89696e-10)
(0 0 0)
(0 0 0)
(0 0 0)
(2.46803e-09 -1.7524e-09 6.13997e-10)
(-2.24061e-09 -2.36349e-09 8.70152e-10)
(0 0 0)
(0 0 0)
(0 0 0)
(2.53946e-09 -2.53313e-09 9.02881e-10)
(-2.16876e-09 -2.96472e-09 1.12485e-09)
(0 0 0)
(0 0 0)
(0 0 0)
(2.5563e-09 -3.19066e-09 1.16463e-09)
(-1.96017e-09 -3.40464e-09 1.33931e-09)
(0 0 0)
(0 0 0)
(0 0 0)
(2.46453e-09 -3.68569e-09 1.3848e-09)
(-1.4974e-09 -3.73309e-09 1.49999e-09)
(0 0 0)
(0 0 0)
(0 0 0)
(2.14817e-09 -4.06783e-09 1.54971e-09)
(-4.13686e-10 -4.46551e-09 1.59725e-09)
(0 0 0)
(0 0 0)
(0 0 0)
(1.24963e-09 -4.85094e-09 1.64969e-09)
(1.04477e-09 -4.52077e-09 1.62369e-09)
(1.15472e-09 -3.61444e-09 1.62103e-09)
(4.15505e-10 -3.27942e-09 1.63083e-09)
(-3.10857e-10 -3.8182e-09 1.6487e-09)
(-1.46311e-10 -4.88202e-09 1.67109e-09)
(-1.02563e-09 -2.11196e-10 3.76424e-11)
(0 0 0)
(0 0 0)
(0 0 0)
(1.1202e-09 -2.29938e-10 3.95957e-11)
(-2.13744e-09 -8.35835e-10 1.49839e-10)
(0 0 0)
(0 0 0)
(0 0 0)
(2.3375e-09 -8.95835e-10 1.56581e-10)
(-2.24588e-09 -1.63698e-09 2.96602e-10)
(0 0 0)
(0 0 0)
(0 0 0)
(2.47932e-09 -1.74654e-09 3.08408e-10)
(-2.2538e-09 -2.36017e-09 4.35945e-10)
(0 0 0)
(0 0 0)
(0 0 0)
(2.54549e-09 -2.52511e-09 4.51865e-10)
(-2.18062e-09 -2.95898e-09 5.61702e-10)
(0 0 0)
(0 0 0)
(0 0 0)
(2.55801e-09 -3.18059e-09 5.81098e-10)
(-1.97122e-09 -3.39749e-09 6.6702e-10)
(0 0 0)
(0 0 0)
(0 0 0)
(2.46289e-09 -3.67509e-09 6.8926e-10)
(-1.50806e-09 -3.72755e-09 7.46067e-10)
(0 0 0)
(0 0 0)
(0 0 0)
(2.1443e-09 -4.06009e-09 7.70443e-10)
(-4.23303e-10 -4.46272e-09 7.95229e-10)
(0 0 0)
(0 0 0)
(0 0 0)
(1.24372e-09 -4.8474e-09 8.20994e-10)
(1.04692e-09 -4.50729e-09 8.0996e-10)
(1.16178e-09 -3.58974e-09 8.07562e-10)
(4.0664e-10 -3.2552e-09 8.10699e-10)
(-3.35761e-10 -3.79378e-09 8.2123e-10)
(-1.65341e-10 -4.86881e-09 8.33307e-10)
(-7.41218e-10 -2.40407e-10 0)
(-6.80833e-11 -1.62667e-10 0)
(-1.85636e-12 -1.77778e-10 0)
(6.85048e-11 -1.71136e-10 0)
(8.07321e-10 -2.61483e-10 0)
(-1.19563e-09 -7.90207e-10 0)
(-1.96618e-10 -7.598e-10 0)
(3.39062e-13 -7.81951e-10 0)
(2.06945e-10 -7.89965e-10 0)
(1.30546e-09 -8.425e-10 0)
(-1.30649e-09 -1.61696e-09 0)
(-2.77583e-10 -1.6044e-09 0)
(1.52813e-11 -1.62515e-09 0)
(3.19302e-10 -1.66162e-09 0)
(1.44899e-09 -1.71366e-09 0)
(-1.32777e-09 -2.35795e-09 0)
(-2.95797e-10 -2.38094e-09 0)
(4.42454e-11 -2.42567e-09 0)
(3.95707e-10 -2.46595e-09 0)
(1.52812e-09 -2.50306e-09 0)
(-1.27385e-09 -2.98229e-09 0)
(-2.60294e-10 -3.06941e-09 0)
(8.78721e-11 -3.15921e-09 0)
(4.4777e-10 -3.18232e-09 0)
(1.56051e-09 -3.17676e-09 0)
(-1.08277e-09 -3.47529e-09 0)
(-1.21457e-10 -3.66878e-09 0)
(1.4641e-10 -3.8175e-09 0)
(4.26351e-10 -3.80931e-09 0)
(1.48503e-09 -3.71867e-09 0)
(-6.16836e-10 -3.89413e-09 0)
(2.26041e-10 -4.18867e-09 0)
(2.19461e-10 -4.35757e-09 0)
(2.25344e-10 -4.35663e-09 0)
(1.16451e-09 -4.18582e-09 0)
(3.6264e-10 -4.6466e-09 0)
(8.18599e-10 -4.79395e-09 0)
(3.058e-10 -4.80561e-09 0)
(-1.93792e-10 -4.98822e-09 0)
(3.64048e-10 -4.98492e-09 0)
(1.26243e-09 -4.78324e-09 0)
(1.1666e-09 -4.36948e-09 0)
(3.77917e-10 -4.13486e-09 0)
(-3.97555e-10 -4.57497e-09 0)
(-4.34505e-10 -5.12838e-09 0)
)
;

boundaryField
{
    interface
    {
        type            calculated;
    }
    symmetry
    {
        type            symmetry;
    }
    bottom
    {
        type            calculated;
    }
}


// ************************************************************************* //
