/*--------------------------------*- C++ -*----------------------------------*\
| =========                 |                                                 |
| \\      /  F ield         | OpenFOAM: The Open Source CFD Toolbox           |
|  \\    /   O peration     | Version:  v1912                                 |
|   \\  /    A nd           | Website:  www.openfoam.com                      |
|    \\/     M anipulation  |                                                 |
\*---------------------------------------------------------------------------*/
FoamFile
{
    version     2.0;
    format      ascii;
    class       volScalarField;
    location    "0.13/solid";
    object      sigmaHyd;
}
// * * * * * * * * * * * * * * * * * * * * * * * * * * * * * * * * * * * * * //

dimensions      [1 -1 -2 0 0 0 0];


internalField   nonuniform List<scalar> 
256
(
-793709
-385731
-384617
-789823
-867546
-439176
-438408
-863859
-864366
-435637
-434829
-860082
-868058
-433673
-432781
-863291
-880778
-434978
-434039
-875705
-903041
-439217
-438292
-897987
-969347
-480571
-479670
-964913
-1.51142e+06
-1.01017e+06
-1.00718e+06
-1.50357e+06
-337533
25764.5
24018.2
-338562
-396965
-6828.44
-8899.33
-398428
-396323
-9239.74
-11318.8
-397345
-396556
-4550.76
-6606.78
-397190
-401207
4216.34
2175.96
-401499
-410307
17723.2
15685.4
-410416
-455766
5618.87
3668.62
-456111
-969391
-480605
-479652
-964837
-287677
38538.6
36822.2
-287893
-340510
17055.8
14971.7
-341510
-340302
13785.8
11673.6
-340977
-341279
16940.5
14835.1
-341620
-347396
24016.2
21916.3
-347413
-359634
34597.6
32499
-359444
-410065
18058.4
16062.1
-410029
-903013
-439138
-438105
-897655
-270956
32612.4
31023
-270720
-323128
12209
10226.3
-323925
-323051
8868.17
6831.28
-323633
-324639
11099.8
9052.32
-324953
-332051
16611.7
14559.7
-332077
-346683
24705.5
22651.3
-346513
-400264
5314.15
3366.02
-400209
-880241
-434363
-433240
-874600
-261008
29632.9
28150.2
-260537
-312352
9143.46
7249.94
-313074
-312390
5668.13
3700.95
-312971
-314483
7322.02
5329.86
-314849
-322771
11813.1
9807.59
-322886
-338772
18447.3
16435.6
-338707
-393847
-2245.5
-4151.28
-393880
-865672
-431375
-430199
-859981
-255570
28053.2
26649.8
-254965
-306025
7635.27
5809.86
-306707
-306108
4048.68
2137.68
-306691
-308561
5340.33
3394.51
-308964
-317423
9219.26
7253.33
-317602
-334196
15057
13081.2
-334209
-389965
-6220.39
-8091.66
-390069
-856820
-429273
-428065
-851134
-252904
27108.9
25757.7
-252227
-302763
6863.19
5083.56
-303424
-302866
3219.56
1347.87
-303450
-305541
4303.1
2390.81
-305964
-314741
7843.12
5906.34
-314959
-331929
13268.8
11319.5
-331991
-388014
-8277.17
-10123.5
-388165
-852045
-428054
-426826
-846376
-251841
26635.8
25310.4
-251135
-301425
6512.07
4755.38
-302078
-301543
2847.65
996.142
-302128
-304322
3837.34
1942.6
-304755
-313678
7227.18
5305.86
-313913
-331046
12477.3
10542
-331130
-387255
-9177.13
-11010.3
-387427
-850004
-427520
-426283
-844347
)
;

boundaryField
{
    interface
    {
        type            zeroGradient;
    }
    symmetry
    {
        type            symmetry;
    }
    bottom
    {
        type            zeroGradient;
    }
}


// ************************************************************************* //
