/*--------------------------------*- C++ -*----------------------------------*\
| =========                 |                                                 |
| \\      /  F ield         | OpenFOAM: The Open Source CFD Toolbox           |
|  \\    /   O peration     | Version:  v1912                                 |
|   \\  /    A nd           | Website:  www.openfoam.com                      |
|    \\/     M anipulation  |                                                 |
\*---------------------------------------------------------------------------*/
FoamFile
{
    version     2.0;
    format      ascii;
    class       volSymmTensorField;
    location    "0.13/solid";
    object      sigma;
}
// * * * * * * * * * * * * * * * * * * * * * * * * * * * * * * * * * * * * * //

dimensions      [1 -1 -2 0 0 0 0];


internalField   nonuniform List<symmTensor> 
256
(
(-568720 -4451.51 7089.61 -69303.8 -8410.87 -604518)
(-77197.7 -12050.9 3395.98 -287.285 -5778.68 -512407)
(-77334.2 15542.1 -3368.71 -953.377 -5461.96 -509193)
(-561865 5784.01 -6850.77 -67220.1 -7219.75 -591063)
(-585430 -2706.18 10302.4 -184253 -7807.21 -623934)
(-100714 -2427.65 5115.18 -76999.4 -8380.41 -535907)
(-101320 4795.19 -5009.16 -78317.3 -8182.24 -532712)
(-578421 3701.01 -9941.69 -182631 -7071.63 -610069)
(-587074 -179.303 10212.5 -167481 -5832.33 -624578)
(-97067.5 204.428 5110 -67287.2 -6140.38 -536344)
(-97679.7 1532.73 -4972.4 -68575.2 -5999.46 -533097)
(-579626 918.361 -9828.4 -165094 -5294.94 -610397)
(-595901 1066.4 10129.3 -155975 -4948.21 -631746)
(-95557.3 1100.63 5077.97 -54940.3 -4560.73 -541346)
(-96128.4 188.688 -4939.84 -56081.6 -4445.38 -538060)
(-588067 -517.606 -9740.22 -152994 -4508.07 -617381)
(-612488 830.096 10582.8 -149575 -5588.71 -647258)
(-94080 860.641 5348.63 -42363.5 -4853.28 -553495)
(-94618.6 51.0867 -5216.65 -43416 -4748.3 -550197)
(-604403 -445.497 -10191.7 -146287 -5202.01 -632824)
(-636695 -2162.74 11442.2 -141793 -8600.58 -672405)
(-84416.8 -1251.19 5849.74 -31177.2 -7882.45 -574437)
(-84988.4 1820.83 -5718.31 -32195.5 -7773.57 -571178)
(-628767 2348.34 -11049.8 -138491 -8232.42 -658090)
(-679437 -8802.92 12316.1 -178621 -14262 -718775)
(-72247.9 -4946.58 6331.24 -76328.3 -14117.9 -617836)
(-73065.5 5178.63 -6180.51 -77041.6 -13983.7 -614695)
(-672939 8688.32 -11925.8 -175069 -13872.4 -704926)
(-781659 -12391.5 12436 -824696 -15880.1 -824667)
(-167389 -6299.27 6367.98 -739922 -16254.6 -739881)
(-167899 6241.06 -6179.51 -736506 -16119.2 -736421)
(-778598 12095.4 -12068.7 -810832 -15544.3 -810730)
(-448189 3591.97 4429.7 31745.9 -29107.9 -69025.5)
(11243.2 -8969.59 2255.24 91754.4 -33537.4 8004.37)
(10140.1 10765.1 -2073.62 89327.6 -32823.5 6908.48)
(-439632 -2780.35 -4192 31269.5 -26859.9 -65457.4)
(-475400 -1449.62 7218.79 -53528.2 -17481.6 -100385)
(-20553.6 -2172.38 4016.48 55806.7 -20027.2 -19172)
(-21886.1 3271.29 -3660.73 53072.3 -19559 -20649.5)
(-466461 1920.61 -6846.53 -53939.4 -15908.7 -97402.2)
(-478786 -519.822 7323.46 -49729.9 -14252.6 -96442.4)
(-23066.5 -321.125 4140.29 49940.6 -14863.4 -17904.6)
(-24411.3 1101.06 -3755.41 47320.5 -14517.7 -19511.9)
(-469394 846.093 -6933.77 -49303.7 -13031.7 -93590.9)
(-486056 795.303 7133.88 -43442.2 -13827.3 -92889.5)
(-20192.8 585.337 4008.66 55554.1 -13435.7 -12217.7)
(-21518.2 -30.3694 -3654.04 53041.8 -13144.6 -13888.8)
(-476215 -559.732 -6752.14 -42508 -12793.8 -90084.5)
(-500221 898.071 7289.12 -38902.3 -15512.4 -90887)
(-13790.6 557.082 4123.16 67492 -14895.9 -4029.3)
(-15088.4 -213.702 -3799.48 65032.8 -14628.7 -5742.29)
(-489959 -755.331 -6914.31 -37676.1 -14585.9 -88101.5)
(-522059 -1749.44 7762.9 -36098.2 -18933.7 -85800.4)
(3102.84 -1285.21 4483.78 76991.7 -18489.9 10994.2)
(1787.11 1423.9 -4172.35 74594.3 -18236 9234.72)
(-511654 1744.72 -7389.87 -34720.5 -18080.5 -83125.7)
(-564141 -8317.15 8385.32 -84026.5 -20982.3 -84162.4)
(24588.2 -4785.81 4921.58 25320.3 -20798.8 25315)
(23067.3 4754.36 -4625.89 23394.6 -20573.8 23512.7)
(-554776 8059.1 -8026.28 -82042.2 -20250.8 -81885.4)
(-679499 -12288.1 8900.4 -718807 -14213.6 -178653)
(-72334.4 -6288.32 5148.1 -617897 -14089.8 -76281.3)
(-73129.4 6220.21 -4996.64 -614779 -13961 -76838.2)
(-672948 11941.3 -8635.71 -704998 -13846.5 -174762)
(-396753 8265.55 475.822 48005.7 -18183.9 -31713.9)
(3934.95 -5515.37 370.463 89166.3 -23093.2 38769.3)
(2947.54 6499.25 -107.812 86844.5 -22485.2 37581.4)
(-387306 -7757.55 -353.918 48729.7 -16313.4 -27556)
(-427074 -150.828 1568.44 -25473.1 -17187.7 -54534.9)
(-30406.1 -1478.13 1078.11 71263.6 -19361.6 27966.4)
(-31562.7 1932.92 -623.914 68574.2 -18860.3 26271.4)
(-417249 375.794 -1346.92 -25357.2 -15592.2 -51333.2)
(-431628 -616.778 1810.91 -22901.1 -17154.1 -49607.8)
(-35654.3 -573.688 1234.6 64653.6 -17559 30077.4)
(-36808.1 852.608 -766.112 62058.8 -17139.8 28198.2)
(-421352 743.658 -1574.9 -22113 -15786.8 -46717.3)
(-438876 558.05 1681.49 -21074.3 -18132.7 -43915.3)
(-33537.1 308.821 1143.67 64599.7 -17716.1 37536.1)
(-34668.5 -131.209 -718.208 62096.9 -17346.5 35557.4)
(-428146 -473.331 -1458.72 -19840.3 -16923.4 -41184.7)
(-453385 854.648 1570.51 -23519 -19822.9 -39058.9)
(-28044.7 504.031 1103.89 68804.9 -19254.1 49191.8)
(-29144.6 -431.305 -721.914 66350.2 -18916.5 47141.3)
(-442208 -820.06 -1362.48 -21998.6 -18731.5 -36433.5)
(-476729 -1546.19 1591.15 -30278.4 -20912 -32380.3)
(-13605.9 -1096.05 1212.35 68840.3 -20514.8 67123.5)
(-14719.9 1065.27 -864.98 66461.8 -20211.5 65003.3)
(-465351 1470.83 -1395.59 -28557.9 -19939.3 -29932.6)
(-522022 -7708.8 1839.68 -84834.5 -18351.9 -36370.8)
(3266.89 -4373.87 1471.03 11787.6 -18011.7 77040)
(1947.4 4278.57 -1192.64 9901.37 -17776.7 74897.5)
(-511569 7414.92 -1674.33 -82470.7 -17585.1 -34303.5)
(-636798 -11427 2321.75 -672250 -8316.26 -141743)
(-84522 -5820.2 1562.22 -574335 -7667.06 -30930.1)
(-85076 5749.16 -1512.1 -571089 -7573.01 -31632.8)
(-628765 11062.2 -2264 -657945 -8013.1 -137650)
(-369237 9341.27 -755.349 53710.3 -14073.9 -27777.3)
(-2696.55 -4352.21 -429.127 82621.1 -16531.4 33560.2)
(-3674.09 4929.2 676.223 80545.1 -16082.4 32508.9)
(-359796 -9048.83 828.839 55550.9 -12702.8 -22993.3)
(-401185 345.222 -835.12 -18517.4 -15356.7 -48774.3)
(-39983.7 -1192.98 -501.607 67180.5 -16290.4 26429.4)
(-41143.2 1317.45 935.493 64658.5 -15868.8 24886.2)
(-391454 -251.45 983.754 -17877.4 -14051.3 -44992.9)
(-406574 -604.646 -730.336 -16587.1 -16686.8 -42755.8)
(-46721.7 -670.5 -453.196 60571.4 -16706.9 29815.7)
(-47869 686.95 902.402 58069 -16321.9 28075.2)
(-396405 631.523 892.922 -15535.5 -15478.8 -39347)
(-414038 387.49 -786.902 -17238.6 -18150.4 -36165.8)
(-45151.2 144.011 -498.349 57580.9 -17698.2 37988.7)
(-46272 -160.366 905.847 55134.2 -17343.7 36128.6)
(-403425 -378.313 937.033 -15856.9 -17034 -32990.4)
(-428804 703.49 -928.254 -23623.6 -19091.1 -30914.3)
(-40199.9 427.011 -572.745 57270.3 -18531.9 50010)
(-41288 -482.216 932.696 54859.7 -18206.1 48059)
(-417752 -719.444 1060.98 -21997 -18069.3 -27911.1)
(-452985 -1507 -1023.94 -34077.9 -18080.5 -26749.1)
(-27201 -983.423 -575.872 53639.4 -17643.7 65581.4)
(-28302.2 887.281 886.901 51302 -17358.5 63552)
(-441728 1405.6 1137.71 -32256.9 -17182.4 -23957.8)
(-499900 -7191.81 -914.993 -88359.5 -13416 -38906.9)
(-12948.2 -3979.76 -449.835 -1737.66 -13016.2 67651.7)
(-14253.1 3869.15 667.988 -3594.65 -12808.3 65620.1)
(-489508 6891.2 991.285 -85914.1 -12735.9 -36450.6)
(-612494 -10545.3 -666.125 -646638 -4696.33 -148541)
(-93876.7 -5308.14 -512.636 -552951 -4062.69 -41253.6)
(-94397.9 5227.52 491.851 -549654 -3989.34 -41776.6)
(-604211 10172 637.176 -632161 -4444.22 -143838)
(-352605 9084.54 -709.854 56582.2 -11487.1 -23651.4)
(-4221.52 -4401.53 -454.784 78754.3 -12170.9 29892.4)
(-5209.99 4758.08 646.921 76896.6 -11856.1 28961.4)
(-343363 -8932.77 762.51 59247.4 -10536.1 -18469.9)
(-384245 330.27 -1082.05 -15142.1 -12898.7 -43199.5)
(-41724 -1253.77 -733.765 62986.1 -12930.3 23039.3)
(-42925.4 1200.62 1084.41 60626 -12615.2 21651.7)
(-374806 -310.954 1194 -14077.2 -11937.6 -38991.5)
(-389917 -629.047 -1109.65 -14129.9 -14274.1 -36310.4)
(-48909.3 -743.024 -767.628 55725 -14007.1 27121.3)
(-50093.8 616.677 1139.63 53315.9 -13702.7 25542.4)
(-380052 602.757 1235.48 -12868.8 -13335.6 -32471.3)
(-397594 284.349 -1145.14 -16122.5 -15416.1 -29639.9)
(-47642.1 51.2215 -794.725 51311.8 -14977.5 35287.9)
(-48796.2 -173.313 1135.61 48917.8 -14687.3 33582.7)
(-387295 -315.41 1262.01 -14653 -14516.1 -26063.7)
(-412534 583.571 -1237.4 -23827.1 -15549.2 -25459.2)
(-42956 363.343 -846.96 49416.3 -15075.5 46098.3)
(-44076.6 -485.8 1145.22 47039.9 -14805.2 44293.2)
(-401808 -625.803 1338.49 -22174.2 -14710.4 -22093.4)
(-437110 -1493.54 -1309 -34684.7 -13636.6 -24523.9)
(-30635.5 -920.412 -866.614 45448.7 -13259.7 58306.4)
(-31768.7 792.929 1114.66 43135.6 -13024.8 56420.1)
(-426184 1380.17 1390.45 -32865 -12899.3 -21389.7)
(-484706 -6829.99 -1248.65 -87577 -9119.15 -41945.2)
(-17623 -3701.97 -812.599 -7517.78 -8797.81 55200.9)
(-18958.1 3584.4 968.646 -9361.94 -8630.18 53321.4)
(-474613 6527.62 1293.34 -85150.4 -8567.48 -39124.3)
(-595208 -9926.39 -1142.59 -629968 -2881.66 -151210)
(-93919.2 -4943.64 -925.422 -539638 -2448.02 -51364.8)
(-94465.2 4854.49 866.501 -536330 -2390.03 -51714.4)
(-587027 9548.21 1093.66 -615466 -2677.46 -146035)
(-342950 8651.11 -431.476 57157.4 -8615.68 -20735.6)
(-4383.15 -4686.17 -269.408 75959.3 -8593.1 28054.2)
(-5376.76 4921.51 402.727 74265 -8386.33 27208.1)
(-333902 -8584.09 468.418 60387.5 -7998.68 -15303)
(-373812 188.279 -714.319 -13983.2 -9721.5 -39088.1)
(-41053.1 -1395.48 -474.152 59717.2 -9425.32 21054.2)
(-42284.7 1245.43 725.455 57484.1 -9211.49 19779.6)
(-364631 -210.724 795.26 -12600.7 -9076.03 -34585.9)
(-379440 -682.097 -773.929 -13572.9 -10725.8 -31758.7)
(-48113 -808.43 -519.909 51875.1 -10383.8 25258.3)
(-49325.6 602.742 793.593 49545.1 -10170.1 23802.3)
(-369841 626.713 867.144 -12138.6 -10072.8 -27600.7)
(-387225 222.887 -804.055 -16133.7 -11371.7 -25466.1)
(-46930.6 0.576568 -539.223 46911.7 -11011.9 32973.7)
(-48109.9 -183.263 793.99 44564.4 -10802.9 31391.4)
(-377199 -276.532 892.075 -14586.6 -10727.7 -21575.2)
(-402293 519.084 -853.263 -23960.4 -11068.7 -22714.2)
(-42388.6 330.53 -566.758 44815.6 -10727.4 42293)
(-43533.5 -492.816 789.653 42468 -10530.1 40607.5)
(-391849 -576.593 929.482 -22287.2 -10458.2 -19051.3)
(-427086 -1475.5 -888.279 -34328.7 -9242.55 -24327.2)
(-30425.1 -879.307 -578.574 41420.2 -8982.33 51896.7)
(-31582.3 732.063 760.043 39126.3 -8810.36 50128.2)
(-416446 1354.81 948.289 -32517.4 -8702.04 -20909.3)
(-474969 -6606.87 -852.472 -86267.5 -5864.87 -44563.2)
(-18033.4 -3536.6 -558.926 -9980 -5666.11 46044.1)
(-19391.4 3413.14 664.961 -11813.3 -5543.84 44285.2)
(-465140 6303.14 882.32 -83862 -5460.04 -41453)
(-583935 -9558.94 -805.479 -619813 -1811.8 -152552)
(-91537.6 -4731.03 -656.509 -531677 -1569.05 -58314.2)
(-92106.5 4635.53 593.538 -528371 -1526.6 -58535.9)
(-575903 9177.65 761.884 -605327 -1660.72 -147033)
(-337737 8359.32 -211.457 56734.6 -5334.44 -19124.1)
(-4402.53 -4884.01 -120.088 73944.1 -5186.91 27229.2)
(-5397 5056.58 198.076 72356.5 -5069.91 26437)
(-328832 -8339.23 233.362 60312 -4988.89 -13543.9)
(-368020 81.949 -354.249 -13985.1 -6012.38 -36736.3)
(-40304.1 -1493.92 -216.306 57428.2 -5745.02 20249.9)
(-41552.3 1293.62 366.473 55280.2 -5621.88 19047.4)
(-359022 -126.326 403.238 -12396.1 -5643.29 -32050.7)
(-373544 -726.118 -393.688 -13834 -6590.96 -29304.7)
(-47130.6 -852.255 -242.649 49287.6 -6336.65 24348.2)
(-48358.5 604.213 409.36 47013.7 -6211.19 22972.5)
(-364132 655.398 451.122 -12278.3 -6209.4 -24939.2)
(-381365 187.422 -413.932 -16534.9 -6875.13 -23482.2)
(-45930.5 -26.0538 -254.051 44204.3 -6643.62 31541.8)
(-47123.4 -190.554 411.365 41892 -6518.85 30041.8)
(-371529 -253.539 468.941 -14928 -6491.8 -19379.2)
(-396513 489.513 -437.512 -24161.1 -6531.59 -21847.1)
(-41463.5 317.142 -266.752 42295.3 -6330.72 39732.7)
(-42621.5 -503.198 404.888 39970.1 -6211.66 38128.5)
(-386264 -556.023 485.417 -22468.6 -6163.34 -17979)
(-421429 -1459.03 -451.769 -34061.2 -5307.25 -25032.5)
(-29700.1 -853.978 -272.152 39430.3 -5162.92 47770.2)
(-30870.1 693.639 383.496 37151.6 -5058.59 46081.8)
(-410986 1333.53 489.184 -32252 -4978.67 -21418)
(-469432 -6483.32 -432.781 -85483.5 -3294.29 -46657)
(-17636.2 -3449.69 -267.066 -11135.4 -3196.27 40581.8)
(-19006.4 3321.34 329.34 -12959.1 -3121.97 38903.5)
(-459790 6178.34 450.552 -83090 -3047.21 -43349.9)
(-577446 -9364.46 -409.99 -614170 -1015.97 -153673)
(-89625.3 -4622.43 -327.266 -527286 -902.878 -62415.9)
(-90208.2 4522.59 281.868 -523983 -876.978 -62554.4)
(-569535 8981.19 381.012 -599706 -923.171 -147929)
(-335467 8227.52 -62.1405 56294 -1804.79 -18437.7)
(-4439.33 -4969.75 -32.3719 72862.9 -1740.95 26917.1)
(-5433.6 5115.99 58.0093 71327.7 -1703.12 26151.1)
(-326639 -8228.23 69.3745 60035.9 -1693.66 -12789.3)
(-365478 34.449 -102.921 -14225.7 -2030.32 -35716.8)
(-39945.7 -1536.34 -57.903 56236.7 -1931.08 20018.3)
(-41201.3 1314.81 107.778 54131.1 -1890.93 18851.1)
(-356574 -88.1714 119.275 -12536 -1910.41 -30943.5)
(-370943 -747.637 -115.222 -14153 -2216.51 -28305.3)
(-46634.1 -872.002 -65.3555 47992.7 -2125.49 24019.5)
(-47868.7 605.561 121.259 45747.7 -2084.2 22683.7)
(-361627 670.315 134.571 -12535.4 -2091.24 -23838)
(-378772 171.176 -122.13 -16851.4 -2291.79 -22781.4)
(-45406.6 -37.4915 -68.9708 42920.9 -2212.55 30892.8)
(-46605.3 -194.483 122.102 40627.2 -2171.16 29434.1)
(-369033 -242.907 140.797 -15212.1 -2164.76 -18572.3)
(-393957 478.027 -129.203 -24319.6 -2151.5 -21724.7)
(-40970.4 312.474 -72.6996 41169.2 -2085.62 38506.9)
(-42134 -509.884 119.463 38856.3 -2045.89 36943.7)
(-383808 -548.813 145.508 -22615.1 -2028.6 -17752.8)
(-418928 -1450.01 -133.024 -33976.3 -1727.7 -25632.4)
(-29299.1 -842.277 -74.3216 38577.7 -1682.21 45836.2)
(-30474.7 675.198 111.841 36307.6 -1647.27 44188.2)
(-408585 1322.04 145.706 -32166.4 -1617.53 -21918.2)
(-466977 -6428.9 -127.117 -85171.5 -1064.33 -47829.6)
(-17382.5 -3413.21 -73.7053 -11629.8 -1035.84 38102.3)
(-18758 3281.98 94.214 -13447.8 -1010.92 36464.5)
(-457430 6123.14 132.985 -82782.8 -981.254 -44423.5)
(-574542 -9281.74 -119.848 -611669 -328.329 -154364)
(-88713.7 -4577.85 -93.6002 -525345 -296.305 -64277.9)
(-89303.1 4475.74 77.1374 -522045 -287.599 -64375.3)
(-566697 8897.47 109.671 -597219 -297.024 -148509)
)
;

boundaryField
{
    interface
    {
        type            calculated;
        value           nonuniform List<symmTensor> 
192
(
(-79.0934 0.163112 5.362 877038 -8410.87 341824)
(-80.885 -0.0671051 6.87403 766473 -7807.21 326791)
(-81.4433 -0.384852 6.94167 790885 -5832.33 333788)
(-81.9632 -0.706911 6.80872 818312 -4948.21 342540)
(-81.5511 -1.04148 6.54818 852553 -5588.71 354870)
(-82.4012 -1.72839 6.21106 907078 -8600.58 376466)
(-79.4788 -2.1729 5.53478 955030 -14262 414876)
(-83.2452 -4.7302 4.93997 435077 -15880.1 435106)
(-75.3598 0.0730305 2.85138 826467 -29107.9 725696)
(-76.272 -0.171148 3.75119 753148 -17481.6 706291)
(-76.6004 -0.497092 3.75903 764886 -14252.6 718174)
(-77.0875 -0.86547 3.63985 785716 -13827.3 736269)
(-76.6129 -1.25148 3.44004 816313 -15512.4 764329)
(-77.7376 -2.04745 3.18917 864750 -18933.7 815048)
(-74.7503 -2.54338 2.76283 904181 -20982.3 904045)
(-79.4895 -5.32606 2.39269 414887 -14213.6 955041)
(-79.313 0.0726508 2.35537 750964 -18183.9 671244)
(-80.2346 -0.209827 3.07587 690873 -17187.7 661811)
(-80.5576 -0.58633 3.08256 701728 -17154.1 675021)
(-81.0412 -1.0151 2.98501 717918 -18132.7 695077)
(-80.3823 -1.46928 2.82157 741566 -19822.9 726026)
(-81.4215 -2.38134 2.61036 781206 -20912 779104)
(-77.7565 -2.96927 2.27491 816027 -18351.9 864491)
(-82.4371 -6.00466 1.95608 376714 -8316.26 907222)
(-78.7238 0.0431795 1.5506 708049 -14073.9 626562)
(-79.4474 -0.262788 2.05463 649928 -15356.7 619672)
(-79.6784 -0.665381 2.0529 660512 -16686.8 634343)
(-80.1361 -1.12914 1.97644 674383 -18150.4 655456)
(-79.4181 -1.62294 1.85558 694349 -19091.1 687058)
(-80.529 -2.5942 1.70242 730886 -18080.5 738215)
(-76.7467 -3.22197 1.48047 766800 -13416 816252)
(-81.7 -6.3487 1.27091 355598 -4696.33 853694)
(-79.7085 0.0357729 1.14861 683524 -11487.1 603291)
(-80.4168 -0.292737 1.51869 625802 -12898.7 597744)
(-80.6195 -0.722842 1.51836 635640 -14274.1 613460)
(-81.0611 -1.21623 1.46229 648367 -15416.1 634849)
(-80.2708 -1.74357 1.37384 667243 -15549.2 665610)
(-81.3418 -2.76009 1.26012 703696 -13636.6 713856)
(-77.337 -3.42409 1.10191 741183 -9119.15 786815)
(-82.2531 -6.62184 0.945803 344232 -2881.66 822990)
(-79.7665 0.0277482 0.750327 668553 -8615.68 590659)
(-80.4266 -0.316401 0.997628 611102 -9721.5 585998)
(-80.5939 -0.764833 0.997074 620369 -10725.8 602183)
(-81.0202 -1.27751 0.959124 632660 -11371.7 623328)
(-80.1965 -1.82668 0.9004 651578 -11068.7 652824)
(-81.268 -2.87036 0.825116 688687 -9242.55 698688)
(-77.1828 -3.55556 0.724435 727092 -5864.87 768796)
(-82.1524 -6.79414 0.624731 337628 -1811.8 804888)
(-79.9869 0.024916 0.434859 659699 -5334.44 583841)
(-80.6393 -0.329796 0.578959 602437 -6012.38 579686)
(-80.7933 -0.79079 0.579464 611433 -6590.96 595963)
(-81.2118 -1.31592 0.558077 623655 -6875.13 616707)
(-80.3648 -1.87918 0.525158 642871 -6531.59 645185)
(-81.4234 -2.93955 0.482025 680531 -5307.25 689560)
(-77.2702 -3.63844 0.426252 719377 -3294.29 758203)
(-82.2371 -6.90268 0.368604 333878 -1015.97 794374)
(-80.0359 0.0235051 0.141967 655550 -1804.79 580818)
(-80.6781 -0.336109 0.189702 598377 -2030.32 576886)
(-80.8242 -0.802917 0.190034 607287 -2216.51 593134)
(-81.2379 -1.33368 0.183075 619541 -2291.79 613611)
(-80.3842 -1.9038 0.17257 638960 -2151.5 641555)
(-81.4366 -2.9714 0.158402 676897 -1727.7 685240)
(-77.2637 -3.67739 0.140955 715921 -1064.33 753263)
(-82.2264 -6.95338 0.121806 332175 -328.329 789480)
(439036 -4451.51 -8.7065 938452 -0.449977 -32.6308)
(427979 -2706.18 -11.3202 829156 -0.404826 -28.0633)
(433429 -179.303 -11.5123 853022 -0.262247 -27.1164)
(439437 1066.4 -11.4291 879364 -0.248599 -27.5941)
(449677 830.096 -11.252 912590 -0.262498 -28.9902)
(472120 -2162.74 -11.0517 967022 -0.337892 -31.4329)
(516357 -8802.92 -10.716 1.01717e+06 -0.362326 -34.8479)
(547027 -12391.5 -10.6929 503990 -0.503155 -38.6262)
(820918 -12050.9 -7.10153 897828 -0.16421 -45.3534)
(807367 -2427.65 -9.51843 831082 -0.158594 -44.5924)
(817288 204.428 -9.66637 847068 -0.0883255 -44.4892)
(831657 1100.63 -9.5909 872274 -0.0613604 -44.666)
(857264 860.641 -9.47667 908981 -0.0421333 -45.0994)
(910943 -1251.19 -9.36736 964182 -0.046796 -45.8406)
(1.01093e+06 -4946.58 -9.22016 1.00685e+06 -0.0445878 -46.7092)
(1.06919e+06 -6299.27 -9.35037 496659 -0.0774839 -47.6326)
(814872 15542.1 -7.41035 891252 -0.0849149 -40.7171)
(800545 4795.19 -9.90698 823547 -0.0472528 -40.2197)
(810281 1532.73 -10.0757 839386 0.0297385 -40.1439)
(824602 188.688 -9.9944 864649 0.0930815 -40.3165)
(850213 51.0867 -9.85833 901415 0.15614 -40.8065)
(903898 1820.83 -9.70554 956691 0.218584 -41.5076)
(1.00377e+06 5178.63 -9.49632 999796 0.270004 -42.5783)
(1.06236e+06 6241.06 -9.53396 493749 0.29223 -43.6704)
(424771 5784.01 -8.5644 919416 -0.0447773 -42.2532)
(412642 3701.01 -11.3549 808432 0.0292918 -42.0166)
(417928 918.361 -11.5504 832460 0.123544 -41.9617)
(424013 -517.606 -11.4502 859086 0.215727 -42.0045)
(434378 -445.497 -11.2566 892494 0.306644 -42.2924)
(456758 2348.34 -11.0272 947034 0.415908 -42.525)
(499980 8688.32 -10.6422 997851 0.497687 -43.1551)
(527729 12095.4 -10.5934 495495 0.618294 -43.5857)
(-11.7706 0.520174 4.82683 870554 -7219.75 346711)
(-6.65684 0.173818 6.32361 758927 -7071.63 331489)
(-5.55967 -0.348673 6.37465 783513 -5294.94 338211)
(-5.41045 -0.747885 6.25757 810984 -4508.07 346597)
(-6.6637 -1.1247 6.04955 845151 -5202.01 358613)
(-6.73935 -1.79824 5.82648 899874 -8232.42 380275)
(-10.9105 -2.06952 5.30273 950102 -13872.4 420245)
(-0.751075 -4.88742 5.12287 447353 -15544.3 447455)
(-28.6459 0.13139 2.01886 812925 -26859.9 716199)
(-27.6452 -0.129243 2.85365 738951 -15908.7 695489)
(-27.3554 -0.497342 2.83737 750860 -13031.7 706573)
(-26.8872 -0.866996 2.74116 771497 -12793.8 723920)
(-27.1629 -1.22113 2.6174 801708 -14585.9 751283)
(-25.1083 -1.93182 2.51071 849988 -18080.5 801582)
(-26.8753 -2.03339 2.27809 891389 -20250.8 891545)
(-10.8201 -5.06826 2.31634 420165 -13846.5 950401)
(-27.6742 0.0669238 2.00291 737655 -16313.4 661370)
(-26.8132 -0.215996 2.7344 676179 -15592.2 650203)
(-26.4484 -0.588236 2.74478 687022 -15786.8 662418)
(-25.8247 -0.988541 2.66606 702934 -16923.4 681589)
(-25.9464 -1.37662 2.54851 726143 -18731.5 711708)
(-23.3574 -2.16244 2.41561 765574 -19939.3 764199)
(-24.9885 -2.26415 2.18521 802186 -17585.1 850353)
(-6.4976 -5.59159 2.05717 380393 -8013.1 900689)
(-30.7866 0.0266855 1.34509 696143 -12702.8 617598)
(-30.2042 -0.276624 1.87736 636064 -14051.3 608948)
(-29.877 -0.659828 1.88266 646376 -15478.8 622564)
(-29.1123 -1.07709 1.82094 659860 -17034 642726)
(-28.9702 -1.4808 1.73176 679352 -18069.3 673437)
(-25.7233 -2.29525 1.63022 715663 -17182.4 723962)
(-26.8307 -2.36701 1.47707 753246 -12735.9 802710)
(-6.13618 -5.81622 1.39416 359150 -4444.22 847473)
(-31.0653 0.0210548 1.04247 672936 -10536.1 595218)
(-30.4832 -0.303099 1.43517 612896 -11937.6 587982)
(-30.1021 -0.706842 1.44267 622257 -13335.6 602655)
(-29.2287 -1.14366 1.39841 634485 -14516.1 623074)
(-28.9491 -1.56757 1.33186 652839 -14710.4 652920)
(-25.3933 -2.40844 1.25035 689043 -12899.3 700518)
(-26.3439 -2.47819 1.13503 728127 -8567.48 774153)
(-4.47543 -6.02449 1.051 348008 -2677.46 817439)
(-31.6933 0.0186486 0.698485 658957 -7998.68 583267)
(-31.1258 -0.320626 0.963163 598978 -9076.03 576992)
(-30.7134 -0.740214 0.968591 607631 -10072.8 592169)
(-29.7655 -1.19104 0.938648 619334 -10727.7 612345)
(-29.3744 -1.62931 0.893875 637682 -10458.2 640918)
(-25.5856 -2.48503 0.838006 674516 -8702.04 686124)
(-26.366 -2.55101 0.763824 714471 -5460.04 756880)
(-3.61412 -6.15636 0.707601 341652 -1660.72 799947)
(-31.896 0.0193074 0.409177 650757 -4988.89 576901)
(-31.3187 -0.329816 0.563047 590847 -5643.29 571193)
(-30.8748 -0.760124 0.567158 599151 -6209.4 586490)
(-29.8754 -1.22016 0.550587 610727 -6491.8 606276)
(-29.4135 -1.66822 0.525797 629338 -6163.34 633828)
(-25.4936 -2.53313 0.493324 666703 -4978.67 677537)
(-26.1871 -2.59819 0.452674 707069 -3047.21 746809)
(-2.92897 -6.24068 0.417898 338097 -923.171 789874)
(-32.0146 0.019837 0.134818 646931 -1693.66 574105)
(-31.4359 -0.333844 0.185816 587058 -1910.41 568650)
(-30.977 -0.769182 0.187359 595239 -2091.24 583936)
(-29.9544 -1.23338 0.18199 606820 -2164.76 603459)
(-29.4543 -1.68653 0.174128 625614 -2028.6 630477)
(-25.4769 -2.55478 0.163252 663245 -1617.53 673494)
(-26.1126 -2.62032 0.150843 703775 -981.254 742135)
(-2.62012 -6.28042 0.138624 336499 -297.024 785209)
(547055 10.4887 12436 -38.5084 -0.481155 504047)
(516342 10.5143 8900.4 -34.6543 -0.341645 1.01719e+06)
(472013 10.8542 2321.75 -31.109 -0.312596 967068)
(449523 11.0623 -666.125 -28.4674 -0.223656 913476)
(439596 11.2505 -1142.59 -26.6841 -0.179584 883594)
(434992 11.375 -805.479 -25.3467 -0.119202 866375)
(432701 11.4562 -409.99 -24.5407 -0.0709568 856473)
(431694 11.4948 -119.848 -24.147 -0.0234065 851872)
(1.06922e+06 9.14987 6367.98 -47.5144 -0.0553415 496730)
(1.01089e+06 9.01818 5148.1 -46.5228 -0.0240671 1.00695e+06)
(910835 9.16408 1562.22 -45.5483 -0.0218186 964427)
(857314 9.27135 -512.636 -44.6733 -0.00796718 909937)
(832720 9.37765 -925.422 -44.0447 -0.00904354 875274)
(821152 9.45081 -656.509 -43.5375 -0.00360889 854375)
(815461 9.49963 -327.266 -43.2226 -0.00159261 842671)
(813011 9.52301 -93.6002 -43.0504 5.30568e-05 837447)
(1.0624e+06 9.33231 -6179.51 -43.5475 0.312264 493880)
(1.00376e+06 9.29208 -4996.64 -42.3787 0.288795 1.00005e+06)
(903795 9.49928 -1512.1 -41.1937 0.242216 957238)
(850243 9.65007 491.851 -40.3445 0.187174 902864)
(825612 9.78102 866.501 -39.6549 0.13847 868363)
(814030 9.87109 593.538 -39.1609 0.0946451 847601)
(808337 9.92966 281.868 -38.8417 0.0542243 835991)
(805888 9.95703 77.1374 -38.6889 0.0174836 830816)
(527777 10.3804 -12068.7 -43.4628 0.636118 495645)
(500003 10.4279 -8635.71 -42.9525 0.514564 998189)
(456696 10.8125 -2264 -42.2137 0.437164 947812)
(434283 11.0437 637.176 -41.843 0.333011 894656)
(424239 11.2403 1093.66 -41.397 0.253229 865231)
(419525 11.372 761.884 -41.1177 0.172611 848396)
(417157 11.4569 381.012 -40.9128 0.100569 838763)
(416111 11.4971 109.671 -40.8071 0.0329595 834299)
)
;
    }
    symmetry
    {
        type            symmetry;
    }
    bottom
    {
        type            calculated;
        value           nonuniform List<symmTensor> 
32
(
(-878155 550.055 7089.61 -285280 1241.79 -913952)
(-582241 19064.5 4429.7 -46762 -33711 -203078)
(-521594 27518.5 475.822 -28814.2 -18740.9 -156555)
(-490414 28718.4 -755.349 -20340.9 -13651.4 -148954)
(-471997 27901.3 -709.854 -16066.3 -11095 -143044)
(-461519 27031.2 -431.476 -14979.7 -8409.18 -139305)
(-455909 26490.8 -211.457 -15185.1 -5259.23 -137296)
(-453471 26249.2 -62.1405 -15530.1 -1789.27 -136441)
(-225920 -17228.8 3395.98 -95170.8 9855.42 -661129)
(7860.9 -12103.6 2255.24 98843.9 -39198.3 4622.03)
(-574.88 -7018.82 370.463 85867.7 -25745.5 34259.5)
(-7790.7 -5442.27 -429.127 77689.3 -17323 28466.1)
(-9192.31 -5528.24 -454.784 74056.4 -12328.7 24921.6)
(-9153.57 -5889.06 -269.408 71704.3 -8624.69 23283.8)
(-9008.11 -6126.25 -120.088 70061.8 -5212.99 22623.6)
(-8956.03 -6225.81 -32.3719 69183.2 -1754.14 22400.4)
(-225489 20648.8 -3368.71 -94926.6 10260.3 -657347)
(6674.62 13500.3 -2073.62 96495.6 -38351.9 3443.01)
(-1637.4 7556.08 -107.812 83660.5 -25052.9 32996.4)
(-8829.93 5622.22 676.223 75764.1 -16822.4 27353)
(-10237.1 5545.56 646.921 72365.5 -11981.8 23934.3)
(-10200.9 5830.85 402.727 70185.2 -8398.36 22383.9)
(-10054.7 6035.85 198.076 68654.5 -5085.49 21779.3)
(-10001.6 6124.32 58.0093 67830.8 -1713 21583.1)
(-874293 211.757 -6850.77 -285408 2975.82 -903491)
(-578300 -18738.8 -4192 -51459.5 -31030.9 -204126)
(-516569 -27506.4 -353.918 -31751.1 -16623.1 -156818)
(-485300 -28956.4 828.839 -21770.3 -12131.9 -148497)
(-467046 -28300 762.51 -16445.6 -10053.8 -142153)
(-456748 -27522.1 468.418 -14663.2 -7739.33 -138149)
(-451276 -27030.4 233.362 -14448.7 -4886.2 -135988)
(-448912 -26809.7 69.3745 -14596.8 -1669.66 -135063)
)
;
    }
}


// ************************************************************************* //
