/*--------------------------------*- C++ -*----------------------------------*\
| =========                 |                                                 |
| \\      /  F ield         | OpenFOAM: The Open Source CFD Toolbox           |
|  \\    /   O peration     | Version:  v1912                                 |
|   \\  /    A nd           | Website:  www.openfoam.com                      |
|    \\/     M anipulation  |                                                 |
\*---------------------------------------------------------------------------*/
FoamFile
{
    version     2.0;
    format      ascii;
    class       volScalarField;
    location    "0.13/solid";
    object      T;
}
// * * * * * * * * * * * * * * * * * * * * * * * * * * * * * * * * * * * * * //

dimensions      [0 0 0 1 0 0 0];


internalField   nonuniform List<scalar> 
256
(
292.241
292.622
292.622
292.234
292.194
292.597
292.598
292.186
292.191
292.596
292.597
292.183
292.186
292.594
292.595
292.179
292.178
292.59
292.591
292.171
292.161
292.582
292.582
292.154
292.113
292.55
292.551
292.105
291.598
292.078
292.08
291.593
292.649
292.978
292.977
292.639
292.626
292.976
292.975
292.615
292.624
292.976
292.975
292.614
292.622
292.975
292.975
292.611
292.618
292.975
292.975
292.607
292.609
292.975
292.974
292.599
292.577
292.961
292.961
292.567
292.113
292.55
292.551
292.105
292.678
292.989
292.989
292.668
292.657
292.988
292.988
292.646
292.655
292.988
292.988
292.645
292.653
292.988
292.988
292.643
292.649
292.988
292.988
292.639
292.64
292.988
292.987
292.63
292.609
292.975
292.974
292.599
292.161
292.582
292.582
292.154
292.687
292.99
292.989
292.677
292.666
292.989
292.988
292.655
292.665
292.989
292.988
292.654
292.662
292.989
292.988
292.652
292.658
292.989
292.988
292.648
292.649
292.988
292.988
292.639
292.618
292.975
292.975
292.607
292.178
292.59
292.591
292.171
292.691
292.99
292.989
292.681
292.67
292.989
292.988
292.659
292.669
292.989
292.988
292.658
292.667
292.989
292.988
292.656
292.662
292.989
292.988
292.652
292.653
292.988
292.988
292.643
292.622
292.975
292.975
292.611
292.186
292.594
292.595
292.179
292.693
292.99
292.989
292.683
292.673
292.989
292.988
292.661
292.671
292.989
292.988
292.66
292.669
292.989
292.988
292.658
292.664
292.989
292.988
292.654
292.655
292.988
292.988
292.645
292.624
292.976
292.975
292.613
292.191
292.596
292.597
292.183
292.694
292.99
292.989
292.684
292.674
292.989
292.988
292.662
292.672
292.989
292.988
292.661
292.67
292.989
292.988
292.659
292.666
292.989
292.988
292.655
292.656
292.988
292.988
292.646
292.625
292.976
292.975
292.614
292.193
292.597
292.598
292.185
292.695
292.99
292.989
292.684
292.674
292.989
292.988
292.663
292.673
292.989
292.988
292.661
292.67
292.989
292.988
292.659
292.666
292.989
292.988
292.655
292.657
292.988
292.988
292.646
292.625
292.976
292.975
292.615
292.194
292.597
292.598
292.186
)
;

boundaryField
{
    interface
    {
        type            fixedValue;
        value           nonuniform List<scalar> 
192
(
289.832
289.791
289.762
289.713
289.629
289.482
289.197
288.382
290.593
290.567
290.541
290.497
290.421
290.283
290.007
289.197
290.867
290.843
290.818
290.775
290.699
290.561
290.283
289.482
291.006
290.982
290.957
290.913
290.838
290.699
290.421
289.629
291.083
291.058
291.033
290.99
290.913
290.774
290.496
289.712
291.126
291.102
291.076
291.032
290.956
290.816
290.539
289.76
291.15
291.125
291.1
291.056
290.979
290.839
290.563
289.787
291.16
291.136
291.11
291.066
290.989
290.849
290.573
289.799
289.673
289.631
289.602
289.554
289.472
289.327
289.039
288.206
290.299
290.273
290.249
290.207
290.135
290.001
289.725
288.889
290.316
290.291
290.267
290.226
290.154
290.02
289.743
288.909
289.72
289.682
289.655
289.608
289.527
289.381
289.093
288.261
289.851
289.811
289.784
289.736
289.654
289.506
289.216
288.385
290.621
290.596
290.572
290.53
290.456
290.319
290.039
289.216
290.898
290.874
290.851
290.81
290.736
290.6
290.319
289.506
291.035
291.012
290.989
290.948
290.874
290.737
290.456
289.654
291.11
291.087
291.064
291.022
290.948
290.81
290.53
289.736
291.153
291.13
291.106
291.064
290.989
290.851
290.572
289.784
291.175
291.152
291.129
291.087
291.011
290.873
290.595
289.81
291.185
291.162
291.139
291.096
291.021
290.883
290.605
289.822
288.206
289.039
289.326
289.472
289.553
289.6
289.626
289.637
288.889
289.725
290.001
290.135
290.207
290.247
290.269
290.279
288.909
289.743
290.02
290.154
290.226
290.266
290.288
290.298
288.261
289.093
289.381
289.527
289.608
289.655
289.68
289.692
)
;
    }
    symmetry
    {
        type            symmetry;
    }
    bottom
    {
        type            fixedValue;
        value           uniform 293;
    }
}


// ************************************************************************* //
