/*--------------------------------*- C++ -*----------------------------------*\
| =========                 |                                                 |
| \\      /  F ield         | OpenFOAM: The Open Source CFD Toolbox           |
|  \\    /   O peration     | Version:  v1912                                 |
|   \\  /    A nd           | Website:  www.openfoam.com                      |
|    \\/     M anipulation  |                                                 |
\*---------------------------------------------------------------------------*/
FoamFile
{
    version     2.0;
    format      ascii;
    class       volVectorField;
    location    "0.13/solid";
    object      U;
}
// * * * * * * * * * * * * * * * * * * * * * * * * * * * * * * * * * * * * * //

dimensions      [0 1 -1 0 0 0 0];


internalField   nonuniform List<vector> 
256
(
(1.02878e-07 7.38537e-08 1.31147e-07)
(1.93627e-08 2.7067e-08 9.2073e-08)
(-1.60593e-08 2.63407e-08 9.32582e-08)
(-9.689e-08 6.95556e-08 1.35363e-07)
(1.56225e-07 8.14391e-09 2.6218e-07)
(4.07213e-08 -1.69825e-08 2.1507e-07)
(-2.75505e-08 -1.95956e-08 2.18081e-07)
(-1.39519e-07 -1.30217e-09 2.7202e-07)
(1.57824e-07 -7.43522e-08 3.47274e-07)
(4.6162e-08 -8.32135e-08 3.03624e-07)
(-2.11387e-08 -8.75756e-08 3.07774e-07)
(-1.29451e-07 -8.84635e-08 3.60436e-07)
(1.52556e-07 -1.5704e-07 4.19947e-07)
(4.79675e-08 -1.64155e-07 3.77088e-07)
(-9.44545e-09 -1.7001e-07 3.81899e-07)
(-1.10894e-07 -1.75279e-07 4.35041e-07)
(1.55056e-07 -2.41467e-07 4.91799e-07)
(5.32953e-08 -2.56067e-07 4.47534e-07)
(3.73101e-10 -2.63218e-07 4.52734e-07)
(-9.83908e-08 -2.63362e-07 5.08035e-07)
(1.77352e-07 -3.32395e-07 5.72053e-07)
(6.79466e-08 -3.57256e-07 5.25606e-07)
(2.53125e-09 -3.6557e-07 5.31058e-07)
(-1.04e-07 -3.57584e-07 5.8901e-07)
(2.38627e-07 -4.49182e-07 6.721e-07)
(9.71594e-08 -4.67855e-07 6.24426e-07)
(-8.26343e-09 -4.77266e-07 6.30073e-07)
(-1.4696e-07 -4.77529e-07 6.89617e-07)
(3.41477e-07 -6.56119e-07 7.87732e-07)
(1.28115e-07 -6.15242e-07 7.4244e-07)
(-1.94537e-08 -6.25447e-07 7.48212e-07)
(-2.29972e-07 -6.87502e-07 8.05663e-07)
(3.25206e-08 -3.46543e-10 5.19768e-08)
(5.61355e-09 -2.42022e-08 5.80229e-08)
(-3.95107e-09 -2.5271e-08 5.90201e-08)
(-2.84542e-08 -5.10442e-09 5.49656e-08)
(5.32106e-08 -6.43516e-08 1.56572e-07)
(1.54047e-08 -7.88634e-08 1.69539e-07)
(-6.62116e-09 -8.19205e-08 1.72039e-07)
(-4.13501e-08 -7.44351e-08 1.63953e-07)
(5.30433e-08 -1.35807e-07 2.43196e-07)
(1.87929e-08 -1.42619e-07 2.59653e-07)
(-2.05237e-10 -1.47281e-07 2.63157e-07)
(-3.15411e-08 -1.503e-07 2.53518e-07)
(4.97804e-08 -2.12171e-07 3.17378e-07)
(2.08924e-08 -2.19473e-07 3.34602e-07)
(9.76001e-09 -2.25489e-07 3.38733e-07)
(-1.63607e-08 -2.30558e-07 3.29585e-07)
(5.34561e-08 -2.92519e-07 3.88367e-07)
(2.65296e-08 -3.07541e-07 4.04954e-07)
(1.82937e-08 -3.14775e-07 4.09481e-07)
(-5.95223e-09 -3.1445e-07 4.01788e-07)
(7.64072e-08 -3.76116e-07 4.62713e-07)
(4.13685e-08 -4.01471e-07 4.78215e-07)
(1.96028e-08 -4.09836e-07 4.83005e-07)
(-1.28194e-08 -4.01328e-07 4.76944e-07)
(1.38532e-07 -4.67094e-07 5.37319e-07)
(7.0805e-08 -4.86024e-07 5.5197e-07)
(8.13173e-09 -4.95472e-07 5.5694e-07)
(-5.70051e-08 -4.95467e-07 5.52095e-07)
(2.43433e-07 -6.01366e-07 5.80548e-07)
(1.01946e-07 -5.58259e-07 5.95043e-07)
(-3.53339e-09 -5.68467e-07 6.00094e-07)
(-1.42278e-07 -6.32665e-07 5.9557e-07)
(-3.28465e-09 -2.0283e-08 3.56045e-08)
(-6.56332e-09 -3.32337e-08 4.66572e-08)
(7.22034e-09 -3.42433e-08 4.74209e-08)
(6.13054e-09 -2.44192e-08 3.78459e-08)
(-7.66621e-09 -9.87061e-08 1.17893e-07)
(-8.00564e-09 -1.0544e-07 1.38218e-07)
(1.37831e-08 -1.08394e-07 1.40127e-07)
(1.62472e-08 -1.08002e-07 1.23421e-07)
(-1.12061e-08 -1.73419e-07 1.9648e-07)
(-7.03426e-09 -1.77771e-07 2.19795e-07)
(2.08742e-08 -1.82311e-07 2.22503e-07)
(2.77327e-08 -1.87185e-07 2.04353e-07)
(-1.28471e-08 -2.46788e-07 2.67496e-07)
(-4.7409e-09 -2.54178e-07 2.91294e-07)
(2.92696e-08 -2.60069e-07 2.94547e-07)
(3.99722e-08 -2.64547e-07 2.77027e-07)
(-7.5734e-09 -3.19149e-07 3.33514e-07)
(1.23023e-09 -3.35005e-07 3.56863e-07)
(3.64481e-08 -3.42126e-07 3.6049e-07)
(4.78115e-08 -3.40577e-07 3.44211e-07)
(1.68923e-08 -3.87414e-07 3.95401e-07)
(1.6314e-08 -4.1374e-07 4.17947e-07)
(3.67969e-08 -4.22015e-07 4.21833e-07)
(3.87579e-08 -4.12254e-07 4.06911e-07)
(8.08425e-08 -4.53619e-07 4.45239e-07)
(4.60597e-08 -4.73484e-07 4.6692e-07)
(2.45549e-08 -4.82868e-07 4.70976e-07)
(-7.67209e-09 -4.8175e-07 4.57277e-07)
(1.86729e-07 -5.62318e-07 4.63225e-07)
(7.75187e-08 -5.20596e-07 4.84545e-07)
(1.23069e-08 -5.3076e-07 4.88674e-07)
(-9.41456e-08 -5.9348e-07 4.7549e-07)
(-1.45191e-08 -2.62082e-08 3.0038e-08)
(-1.08019e-08 -3.43547e-08 3.59898e-08)
(1.08543e-08 -3.52644e-08 3.65827e-08)
(1.6578e-08 -2.97883e-08 3.17682e-08)
(-2.94811e-08 -1.12488e-07 9.59326e-08)
(-1.74704e-08 -1.1527e-07 1.0742e-07)
(2.12549e-08 -1.17986e-07 1.08881e-07)
(3.58689e-08 -1.20818e-07 1.00126e-07)
(-3.56242e-08 -1.91804e-07 1.61451e-07)
(-1.82319e-08 -1.94592e-07 1.74879e-07)
(2.87139e-08 -1.98865e-07 1.76949e-07)
(4.86496e-08 -2.04573e-07 1.67429e-07)
(-3.66945e-08 -2.64079e-07 2.22693e-07)
(-1.61071e-08 -2.7145e-07 2.36462e-07)
(3.60905e-08 -2.77099e-07 2.3897e-07)
(5.91796e-08 -2.80963e-07 2.30012e-07)
(-3.01995e-08 -3.29655e-07 2.78314e-07)
(-9.96564e-09 -3.46134e-07 2.91775e-07)
(4.2153e-08 -3.53057e-07 2.94604e-07)
(6.4888e-08 -3.50382e-07 2.8664e-07)
(-4.35855e-09 -3.86571e-07 3.26027e-07)
(5.33757e-09 -4.13752e-07 3.38884e-07)
(4.15915e-08 -4.21882e-07 3.41944e-07)
(5.37975e-08 -4.10908e-07 3.35084e-07)
(6.09687e-08 -4.41081e-07 3.59825e-07)
(3.53113e-08 -4.62084e-07 3.71986e-07)
(2.86737e-08 -4.71383e-07 3.75199e-07)
(5.56936e-09 -4.68926e-07 3.69363e-07)
(1.67569e-07 -5.43961e-07 3.71515e-07)
(6.70505e-08 -5.04514e-07 3.83496e-07)
(1.59146e-08 -5.14658e-07 3.86786e-07)
(-8.18293e-08 -5.75084e-07 3.81291e-07)
(-1.67183e-08 -2.85002e-08 2.46383e-08)
(-1.13146e-08 -3.47724e-08 2.67746e-08)
(1.09945e-08 -3.56041e-08 2.72182e-08)
(1.82608e-08 -3.16832e-08 2.59258e-08)
(-3.40428e-08 -1.17491e-07 7.59598e-08)
(-1.9299e-08 -1.18691e-07 8.03195e-08)
(2.17695e-08 -1.21195e-07 8.14027e-08)
(3.89588e-08 -1.2504e-07 7.90468e-08)
(-4.10664e-08 -1.98922e-07 1.26926e-07)
(-2.08215e-08 -2.01005e-07 1.32197e-07)
(2.89845e-08 -2.0502e-07 1.33728e-07)
(5.1663e-08 -2.10805e-07 1.3132e-07)
(-4.19936e-08 -2.70527e-07 1.74972e-07)
(-1.89613e-08 -2.77876e-07 1.80442e-07)
(3.56865e-08 -2.83281e-07 1.82304e-07)
(6.11501e-08 -2.86587e-07 1.80378e-07)
(-3.48764e-08 -3.32229e-07 2.17832e-07)
(-1.28491e-08 -3.49065e-07 2.2314e-07)
(4.09861e-08 -3.55787e-07 2.25253e-07)
(6.5472e-08 -3.52283e-07 2.24032e-07)
(-8.25129e-09 -3.83794e-07 2.52835e-07)
(2.51666e-09 -4.11536e-07 2.57781e-07)
(3.97595e-08 -4.19524e-07 2.6008e-07)
(5.30173e-08 -4.07653e-07 2.59631e-07)
(5.78198e-08 -4.34771e-07 2.76597e-07)
(3.25821e-08 -4.56608e-07 2.81108e-07)
(2.63535e-08 -4.65834e-07 2.83537e-07)
(3.66756e-09 -4.62371e-07 2.83797e-07)
(1.64994e-07 -5.36668e-07 2.86199e-07)
(6.45255e-08 -4.98827e-07 2.90604e-07)
(1.32019e-08 -5.08967e-07 2.93107e-07)
(-8.44911e-08 -5.67809e-07 2.93623e-07)
(-1.67551e-08 -2.94338e-08 1.82777e-08)
(-1.10172e-08 -3.50531e-08 1.87687e-08)
(1.04676e-08 -3.58304e-08 1.90751e-08)
(1.79627e-08 -3.23461e-08 1.91626e-08)
(-3.3852e-08 -1.18982e-07 5.51265e-08)
(-1.90125e-08 -1.19699e-07 5.62331e-08)
(2.06342e-08 -1.22049e-07 5.69786e-08)
(3.78001e-08 -1.25975e-07 5.72387e-08)
(-4.07792e-08 -2.00799e-07 9.13131e-08)
(-2.07316e-08 -2.02666e-07 9.27249e-08)
(2.73505e-08 -2.06484e-07 9.37775e-08)
(4.97458e-08 -2.12018e-07 9.4317e-08)
(-4.15897e-08 -2.71852e-07 1.25293e-07)
(-1.9059e-08 -2.7921e-07 1.26788e-07)
(3.35581e-08 -2.8442e-07 1.2807e-07)
(5.84631e-08 -2.87269e-07 1.28999e-07)
(-3.4235e-08 -3.31942e-07 1.55237e-07)
(-1.3065e-08 -3.48952e-07 1.56665e-07)
(3.83757e-08 -3.55511e-07 1.58125e-07)
(6.19688e-08 -3.51457e-07 1.59508e-07)
(-7.29261e-09 -3.81862e-07 1.79209e-07)
(2.25002e-09 -4.09904e-07 1.80464e-07)
(3.67291e-08 -4.17777e-07 1.8206e-07)
(4.87435e-08 -4.05339e-07 1.83914e-07)
(5.9137e-08 -4.32473e-07 1.95503e-07)
(3.23299e-08 -4.5474e-07 1.96537e-07)
(2.29945e-08 -4.6391e-07 1.9823e-07)
(-1.26533e-09 -4.59885e-07 2.00512e-07)
(1.66762e-07 -5.34383e-07 2.03077e-07)
(6.44049e-08 -4.97225e-07 2.04027e-07)
(9.56857e-09 -5.0737e-07 2.0578e-07)
(-9.0023e-08 -5.65556e-07 2.08265e-07)
(-1.66002e-08 -2.97742e-08 1.1214e-08)
(-1.07809e-08 -3.51694e-08 1.12267e-08)
(1.00987e-08 -3.59122e-08 1.14057e-08)
(1.7606e-08 -3.25173e-08 1.17294e-08)
(-3.32271e-08 -1.19199e-07 3.3401e-08)
(-1.8625e-08 -1.19818e-07 3.35037e-08)
(1.97393e-08 -1.2207e-07 3.39391e-08)
(3.65876e-08 -1.25842e-07 3.46294e-08)
(-3.9867e-08 -2.0081e-07 5.49693e-08)
(-2.03623e-08 -2.02652e-07 5.51393e-08)
(2.60397e-08 -2.06341e-07 5.57541e-08)
(4.7832e-08 -2.116e-07 5.67165e-08)
(-4.05538e-08 -2.71492e-07 7.50978e-08)
(-1.87895e-08 -2.78873e-07 7.52902e-08)
(3.19086e-08 -2.83953e-07 7.60396e-08)
(5.6006e-08 -2.86483e-07 7.72571e-08)
(-3.31221e-08 -3.31119e-07 9.27098e-08)
(-1.29046e-08 -3.48204e-07 9.28797e-08)
(3.64392e-08 -3.54652e-07 9.37354e-08)
(5.90529e-08 -3.5027e-07 9.52049e-08)
(-6.08543e-09 -3.8088e-07 1.06733e-07)
(2.33594e-09 -4.09056e-07 1.06838e-07)
(3.45497e-08 -4.1685e-07 1.07776e-07)
(4.54279e-08 -4.04098e-07 1.09491e-07)
(6.05171e-08 -4.31924e-07 1.16386e-07)
(3.24091e-08 -4.54349e-07 1.16395e-07)
(2.06084e-08 -4.63483e-07 1.17394e-07)
(-4.9585e-09 -4.59209e-07 1.19331e-07)
(1.68453e-07 -5.34055e-07 1.21267e-07)
(6.45584e-08 -4.97025e-07 1.21217e-07)
(7.01353e-09 -5.07175e-07 1.22253e-07)
(-9.41276e-08 -5.65255e-07 1.24327e-07)
(-1.65452e-08 -2.98741e-08 3.77639e-09)
(-1.06881e-08 -3.51926e-08 3.7474e-09)
(9.94555e-09 -3.59187e-08 3.80623e-09)
(1.74564e-08 -3.25358e-08 3.94541e-09)
(-3.29517e-08 -1.19121e-07 1.11833e-08)
(-1.84623e-08 -1.19732e-07 1.11512e-08)
(1.93405e-08 -1.21937e-07 1.12942e-08)
(3.60356e-08 -1.25595e-07 1.1586e-08)
(-3.94247e-08 -2.00526e-07 1.83434e-08)
(-2.01945e-08 -2.02382e-07 1.83186e-08)
(2.54289e-08 -2.06007e-07 1.85206e-08)
(4.69157e-08 -2.11108e-07 1.89163e-08)
(-4.00362e-08 -2.71035e-07 2.5e-08)
(-1.86633e-08 -2.78432e-07 2.49783e-08)
(3.11271e-08 -2.83448e-07 2.52247e-08)
(5.48113e-08 -2.85817e-07 2.57086e-08)
(-3.2581e-08 -3.30592e-07 3.08062e-08)
(-1.2837e-08 -3.47706e-07 3.07796e-08)
(3.5522e-08 -3.54099e-07 3.10613e-08)
(5.76475e-08 -3.49564e-07 3.1626e-08)
(-5.52325e-09 -3.80496e-07 3.54267e-08)
(2.35855e-09 -4.08719e-07 3.53845e-08)
(3.35205e-08 -4.16475e-07 3.56938e-08)
(4.38505e-08 -4.03585e-07 3.6334e-08)
(6.11543e-08 -4.31893e-07 3.86345e-08)
(3.24269e-08 -4.54358e-07 3.85669e-08)
(1.94785e-08 -4.63475e-07 3.88965e-08)
(-6.71203e-09 -4.59117e-07 3.96051e-08)
(1.69248e-07 -5.34199e-07 4.03197e-08)
(6.46098e-08 -4.9713e-07 4.02296e-08)
(5.80489e-09 -5.07283e-07 4.05724e-08)
(-9.60883e-08 -5.65415e-07 4.13295e-08)
)
;

boundaryField
{
    interface
    {
        type            calculated;
        value           nonuniform List<vector> 
192
(
(-1.56158e-08 1.38629e-07 1.14215e-07)
(2.30623e-08 2.18804e-08 2.35699e-07)
(2.68557e-08 -7.52689e-08 3.19627e-07)
(2.60775e-08 -1.57731e-07 3.92836e-07)
(3.35028e-08 -2.35268e-07 4.65315e-07)
(5.90898e-08 -3.11501e-07 5.4615e-07)
(1.16076e-07 -4.0815e-07 6.46684e-07)
(2.62512e-07 -6.28649e-07 7.62602e-07)
(-1.37758e-07 2.10864e-08 2.54377e-08)
(-1.24269e-07 -5.92207e-08 1.156e-07)
(-1.22871e-07 -1.36664e-07 2.0094e-07)
(-1.22647e-07 -2.12068e-07 2.76028e-07)
(-1.14838e-07 -2.85861e-07 3.47711e-07)
(-8.92617e-08 -3.54846e-07 4.22599e-07)
(-3.20815e-08 -4.25337e-07 4.97874e-07)
(1.20895e-07 -5.73584e-07 5.41862e-07)
(-1.73738e-07 -2.30205e-08 2.38459e-08)
(-1.80882e-07 -1.00686e-07 9.7221e-08)
(-1.82811e-07 -1.74714e-07 1.74314e-07)
(-1.81306e-07 -2.45879e-07 2.45878e-07)
(-1.72081e-07 -3.11714e-07 3.12601e-07)
(-1.44796e-07 -3.65309e-07 3.7521e-07)
(-8.49051e-08 -4.11159e-07 4.25849e-07)
(6.84859e-08 -5.33978e-07 4.44259e-07)
(-1.89868e-07 -3.7208e-08 2.66806e-08)
(-2.06141e-07 -1.17763e-07 8.93392e-08)
(-2.1051e-07 -1.93607e-07 1.53986e-07)
(-2.08426e-07 -2.62723e-07 2.15407e-07)
(-1.97934e-07 -3.2157e-07 2.71489e-07)
(-1.69148e-07 -3.63779e-07 3.19742e-07)
(-1.07611e-07 -3.98099e-07 3.5407e-07)
(4.60402e-08 -5.15004e-07 3.66082e-07)
(-1.97392e-07 -4.11902e-08 2.408e-08)
(-2.1562e-07 -1.23578e-07 7.48675e-08)
(-2.20726e-07 -2.0091e-07 1.25638e-07)
(-2.18371e-07 -2.68979e-07 1.73748e-07)
(-2.0713e-07 -3.23793e-07 2.16824e-07)
(-1.77477e-07 -3.60619e-07 2.52102e-07)
(-1.1522e-07 -3.9146e-07 2.76139e-07)
(3.86324e-08 -5.07252e-07 2.85997e-07)
(-2.01699e-07 -4.20852e-08 1.83077e-08)
(-2.19577e-07 -1.24988e-07 5.53308e-08)
(-2.24484e-07 -2.02733e-07 9.16133e-08)
(-2.21886e-07 -2.70215e-07 1.25653e-07)
(-2.10295e-07 -3.23368e-07 1.55676e-07)
(-1.80292e-07 -3.58519e-07 1.7975e-07)
(-1.1781e-07 -3.88959e-07 1.96178e-07)
(3.63102e-08 -5.04703e-07 2.03942e-07)
(-2.04432e-07 -4.22307e-08 1.12667e-08)
(-2.21789e-07 -1.25015e-07 3.36262e-08)
(-2.26341e-07 -2.02641e-07 5.53081e-08)
(-2.23532e-07 -2.69805e-07 7.54864e-08)
(-2.11792e-07 -3.22501e-07 9.31235e-08)
(-1.8169e-07 -3.5747e-07 1.07176e-07)
(-1.19168e-07 -3.88289e-07 1.1689e-07)
(3.51931e-08 -5.04251e-07 1.21889e-07)
(-2.0582e-07 -4.22479e-08 3.79023e-09)
(-2.22934e-07 -1.2484e-07 1.12522e-08)
(-2.27287e-07 -2.02297e-07 1.84541e-08)
(-2.2436e-07 -2.69323e-07 2.51295e-08)
(-2.12562e-07 -3.21964e-07 3.09416e-08)
(-1.82443e-07 -3.57062e-07 3.55673e-08)
(-1.19922e-07 -3.882e-07 3.87939e-08)
(3.45755e-08 -5.04348e-07 4.05187e-08)
(1.0157e-07 1.72186e-07 9.38886e-09)
(1.57683e-07 6.21762e-08 1.24931e-07)
(1.60731e-07 -3.49102e-08 2.12844e-07)
(1.55393e-07 -1.20908e-07 2.91194e-07)
(1.57228e-07 -2.03441e-07 3.69092e-07)
(1.78688e-07 -2.8732e-07 4.53284e-07)
(2.39413e-07 -3.95262e-07 5.49109e-07)
(3.42716e-07 -6.267e-07 7.07013e-07)
(9.88482e-09 1.03853e-07 -6.71242e-08)
(2.96922e-08 3.59056e-08 4.19366e-08)
(3.6283e-08 -4.27087e-08 1.309e-07)
(3.84516e-08 -1.28178e-07 2.08459e-07)
(4.35252e-08 -2.18937e-07 2.83714e-07)
(5.76945e-08 -3.13033e-07 3.64406e-07)
(8.66493e-08 -4.13646e-07 4.57897e-07)
(1.18232e-07 -5.85401e-07 6.24545e-07)
(-5.24209e-09 1.04176e-07 -6.65416e-08)
(-1.33168e-08 3.40336e-08 4.43082e-08)
(-6.93921e-09 -4.6621e-08 1.3436e-07)
(5.03938e-09 -1.3377e-07 2.12571e-07)
(1.54951e-08 -2.25928e-07 2.88217e-07)
(1.8379e-08 -3.21235e-07 3.69143e-07)
(8.03132e-09 -4.22978e-07 4.62775e-07)
(-3.65052e-09 -5.95564e-07 6.29471e-07)
(-9.42723e-08 1.71401e-07 1.35085e-08)
(-1.3791e-07 5.49662e-08 1.34998e-07)
(-1.28223e-07 -4.77081e-08 2.26074e-07)
(-1.08943e-07 -1.38379e-07 3.06257e-07)
(-9.53711e-08 -2.2487e-07 3.85218e-07)
(-9.98869e-08 -3.12188e-07 4.70011e-07)
(-1.42111e-07 -4.23366e-07 5.66203e-07)
(-2.25442e-07 -6.5796e-07 7.24473e-07)
(3.99549e-08 1.28658e-07 1.19558e-07)
(1.19963e-08 6.83824e-09 2.48278e-07)
(1.97029e-08 -9.56198e-08 3.36568e-07)
(3.33954e-08 -1.83044e-07 4.12379e-07)
(4.04267e-08 -2.65086e-07 4.86431e-07)
(3.08555e-08 -3.45441e-07 5.68268e-07)
(-8.25203e-09 -4.46036e-07 6.6955e-07)
(-1.32953e-07 -6.70173e-07 7.86002e-07)
(1.58334e-07 1.23466e-08 2.92074e-08)
(1.52346e-07 -7.36635e-08 1.25008e-07)
(1.60451e-07 -1.56548e-07 2.1422e-07)
(1.71836e-07 -2.36955e-07 2.91866e-07)
(1.77629e-07 -3.15336e-07 3.65235e-07)
(1.67543e-07 -3.88565e-07 4.41252e-07)
(1.27943e-07 -4.63102e-07 5.17271e-07)
(-3.57116e-09 -6.14937e-07 5.61612e-07)
(1.93122e-07 -3.00138e-08 2.65857e-08)
(2.0578e-07 -1.13403e-07 1.04115e-07)
(2.1556e-07 -1.93117e-07 1.84304e-07)
(2.24379e-07 -2.69567e-07 2.5814e-07)
(2.27827e-07 -3.40273e-07 3.26499e-07)
(2.15429e-07 -3.98383e-07 3.90255e-07)
(1.72796e-07 -4.48523e-07 4.41633e-07)
(4.0715e-08 -5.75104e-07 4.60377e-07)
(2.08856e-07 -4.29003e-08 2.8734e-08)
(2.29298e-07 -1.28836e-07 9.44466e-08)
(2.40246e-07 -2.10401e-07 1.61445e-07)
(2.47373e-07 -2.85022e-07 2.24716e-07)
(2.48667e-07 -3.49036e-07 2.82224e-07)
(2.34143e-07 -3.96078e-07 3.31518e-07)
(1.89506e-07 -4.35018e-07 3.66527e-07)
(5.70108e-08 -5.56017e-07 3.78876e-07)
(2.16281e-07 -4.59884e-08 2.55786e-08)
(2.37764e-07 -1.3339e-07 7.85631e-08)
(2.48514e-07 -2.16353e-07 1.31045e-07)
(2.54484e-07 -2.90039e-07 1.80556e-07)
(2.54275e-07 -3.5025e-07 2.24761e-07)
(2.38318e-07 -3.92201e-07 2.60894e-07)
(1.92618e-07 -4.27992e-07 2.85505e-07)
(5.9771e-08 -5.48224e-07 2.95671e-07)
(2.2059e-07 -4.62872e-08 1.93256e-08)
(2.41114e-07 -1.33922e-07 5.78309e-08)
(2.51016e-07 -2.17184e-07 9.52741e-08)
(2.56097e-07 -2.90325e-07 1.30285e-07)
(2.54962e-07 -3.49027e-07 1.61112e-07)
(2.38209e-07 -3.8953e-07 1.8581e-07)
(1.92006e-07 -4.25191e-07 2.02668e-07)
(5.87751e-08 -5.45662e-07 2.10674e-07)
(2.2334e-07 -4.6066e-08 1.18556e-08)
(2.4297e-07 -1.33399e-07 3.50702e-08)
(2.5211e-07 -2.16455e-07 5.74237e-08)
(2.56563e-07 -2.89288e-07 7.81698e-08)
(2.54897e-07 -3.47625e-07 9.6285e-08)
(2.37744e-07 -3.88094e-07 1.10714e-07)
(1.91309e-07 -4.24318e-07 1.20692e-07)
(5.77612e-08 -5.45206e-07 1.25843e-07)
(2.2474e-07 -4.59092e-08 3.98269e-09)
(2.43951e-07 -1.3296e-07 1.17239e-08)
(2.52695e-07 -2.15802e-07 1.91453e-08)
(2.56827e-07 -2.885e-07 2.60072e-08)
(2.54917e-07 -3.46824e-07 3.19773e-08)
(2.37598e-07 -3.87495e-07 3.67283e-08)
(1.9107e-07 -4.24131e-07 4.00434e-08)
(5.73495e-08 -5.45305e-07 4.18196e-08)
(3.44992e-07 -5.754e-07 7.88753e-07)
(2.46546e-07 -4.78344e-07 5.57098e-07)
(1.90466e-07 -4.43529e-07 4.48873e-07)
(1.72184e-07 -4.21385e-07 3.65103e-07)
(1.70239e-07 -4.0851e-07 2.83804e-07)
(1.7231e-07 -4.01459e-07 2.02424e-07)
(1.74095e-07 -3.97892e-07 1.21221e-07)
(1.74904e-07 -3.96427e-07 4.03555e-08)
(1.20445e-07 -4.97372e-07 7.43115e-07)
(9.37196e-08 -3.91771e-07 5.71382e-07)
(6.96269e-08 -3.59534e-07 4.71109e-07)
(5.97221e-08 -3.41052e-07 3.78053e-07)
(5.75976e-08 -3.30804e-07 2.88782e-07)
(5.76489e-08 -3.2488e-07 2.03576e-07)
(5.78353e-08 -3.21544e-07 1.21193e-07)
(5.78781e-08 -3.20035e-07 4.02559e-08)
(-1.38984e-09 -5.06733e-07 7.48909e-07)
(1.50662e-08 -4.01219e-07 5.76423e-07)
(3.0526e-08 -3.68997e-07 4.75222e-07)
(3.35549e-08 -3.50516e-07 3.81338e-07)
(3.04453e-08 -3.40264e-07 2.91285e-07)
(2.6649e-08 -3.3434e-07 2.05332e-07)
(2.40688e-08 -3.31004e-07 1.22232e-07)
(2.28739e-08 -3.29498e-07 4.05996e-08)
(-2.23124e-07 -6.06305e-07 8.06724e-07)
(-1.35095e-07 -5.09224e-07 5.72065e-07)
(-8.76558e-08 -4.74486e-07 4.61095e-07)
(-7.62585e-08 -4.52447e-07 3.74873e-07)
(-7.95755e-08 -4.39675e-07 2.91241e-07)
(-8.5426e-08 -4.32718e-07 2.07627e-07)
(-8.96345e-08 -4.29219e-07 1.24291e-07)
(-9.16127e-08 -4.27792e-07 4.13694e-08)
)
;
    }
    symmetry
    {
        type            symmetry;
    }
    bottom
    {
        type            calculated;
        value           uniform (0 0 0);
    }
}


// ************************************************************************* //
