/*--------------------------------*- C++ -*----------------------------------*\
| =========                 |                                                 |
| \\      /  F ield         | OpenFOAM: The Open Source CFD Toolbox           |
|  \\    /   O peration     | Version:  v1912                                 |
|   \\  /    A nd           | Website:  www.openfoam.com                      |
|    \\/     M anipulation  |                                                 |
\*---------------------------------------------------------------------------*/
FoamFile
{
    version     2.0;
    format      ascii;
    class       volVectorField;
    location    "0.32/solid";
    object      D_0;
}
// * * * * * * * * * * * * * * * * * * * * * * * * * * * * * * * * * * * * * //

dimensions      [0 1 0 0 0 0 0];


internalField   nonuniform List<vector> 
256
(
(1.36835e-08 2.56867e-08 1.42796e-08)
(6.18173e-10 1.51667e-08 1.33061e-08)
(3.38174e-11 1.50279e-08 1.34452e-08)
(-1.29097e-08 2.5032e-08 1.47994e-08)
(2.09489e-08 2.09463e-08 2.32912e-08)
(3.20991e-09 1.53997e-08 2.21081e-08)
(-9.24327e-10 1.49712e-08 2.25011e-08)
(-1.85145e-08 1.94271e-08 2.45984e-08)
(2.19161e-08 1.5743e-08 2.58052e-08)
(4.2817e-09 1.36029e-08 2.45646e-08)
(-2.94515e-11 1.28927e-08 2.51434e-08)
(-1.75324e-08 1.34337e-08 2.76609e-08)
(2.22445e-08 1.27865e-08 2.67638e-08)
(4.96752e-09 1.16274e-08 2.55365e-08)
(1.5769e-09 1.06615e-08 2.62478e-08)
(-1.55801e-08 9.75677e-09 2.90137e-08)
(2.32412e-08 1.1167e-08 2.74976e-08)
(5.95361e-09 9.92702e-09 2.63879e-08)
(3.20519e-09 8.72296e-09 2.72008e-08)
(-1.3965e-08 7.465e-09 3.00517e-08)
(2.49602e-08 1.03331e-08 2.84836e-08)
(7.31614e-09 8.69068e-09 2.75427e-08)
(4.77821e-09 7.25336e-09 2.8441e-08)
(-1.27592e-08 5.97844e-09 3.12923e-08)
(2.75392e-08 8.36992e-09 3.02238e-08)
(9.06703e-09 6.60348e-09 2.94343e-08)
(6.28274e-09 4.93749e-09 3.04119e-08)
(-1.21482e-08 3.36291e-09 3.32619e-08)
(3.15769e-08 -1.33286e-08 3.34173e-08)
(1.10035e-08 -1.33757e-08 3.27323e-08)
(7.86655e-09 -1.5144e-08 3.37767e-08)
(-1.28054e-08 -1.87463e-08 3.66372e-08)
(1.14199e-08 1.35536e-08 2.44257e-10)
(2.9344e-10 4.46272e-09 5.58969e-10)
(6.24321e-11 4.3026e-09 7.23839e-10)
(-1.08437e-08 1.28911e-08 7.3105e-10)
(1.77049e-08 1.33063e-08 4.81725e-09)
(2.46917e-09 8.34214e-09 5.43244e-09)
(-9.09888e-10 7.8583e-09 5.83054e-09)
(-1.58734e-08 1.17168e-08 5.97847e-09)
(1.84361e-08 1.17462e-08 7.56911e-09)
(3.3669e-09 9.72985e-09 8.33117e-09)
(-1.73029e-10 8.97196e-09 8.89514e-09)
(-1.4986e-08 9.37988e-09 9.21602e-09)
(1.86291e-08 1.04519e-08 8.67767e-09)
(3.94768e-09 9.30629e-09 9.54068e-09)
(1.27539e-09 8.3078e-09 1.02269e-08)
(-1.31548e-08 7.39105e-09 1.06897e-08)
(1.95692e-08 9.46137e-09 9.19007e-09)
(4.85471e-09 8.21093e-09 1.01425e-08)
(2.77154e-09 6.98602e-09 1.09253e-08)
(-1.16853e-08 5.74772e-09 1.1493e-08)
(2.13496e-08 8.74342e-09 9.73973e-09)
(6.17518e-09 7.08645e-09 1.07606e-08)
(4.21336e-09 5.63817e-09 1.16243e-08)
(-1.07055e-08 4.39437e-09 1.22862e-08)
(2.41011e-08 6.94592e-09 1.06698e-08)
(7.9187e-09 5.17097e-09 1.1723e-08)
(5.58214e-09 3.51087e-09 1.26509e-08)
(-1.04072e-08 1.97915e-09 1.34114e-08)
(2.8337e-08 -1.25649e-08 1.17089e-08)
(9.85499e-09 -1.25339e-08 1.27694e-08)
(7.05569e-09 -1.42577e-08 1.37234e-08)
(-1.13896e-08 -1.78582e-08 1.45382e-08)
(9.93794e-09 1.02438e-08 -2.09229e-11)
(1.71739e-11 2.05716e-09 2.97772e-10)
(1.62747e-10 1.91227e-09 4.19022e-10)
(-9.53091e-09 9.68645e-09 3.25149e-10)
(1.57179e-08 9.24183e-09 2.47209e-09)
(1.83596e-09 4.73559e-09 3.13153e-09)
(-7.80095e-10 4.27548e-09 3.43334e-09)
(-1.43644e-08 7.79237e-09 3.33218e-09)
(1.64185e-08 8.31329e-09 4.87672e-09)
(2.59596e-09 6.43329e-09 5.69338e-09)
(-1.91131e-10 5.70255e-09 6.12852e-09)
(-1.37232e-08 6.08682e-09 6.12727e-09)
(1.65479e-08 7.81922e-09 6.32238e-09)
(3.08784e-09 6.71686e-09 7.23221e-09)
(1.10523e-09 5.7481e-09 7.77114e-09)
(-1.20632e-08 4.89313e-09 7.88486e-09)
(1.74208e-08 7.38635e-09 7.14131e-09)
(3.92013e-09 6.15475e-09 8.11745e-09)
(2.47651e-09 4.96218e-09 8.74173e-09)
(-1.07203e-08 3.8032e-09 8.96271e-09)
(1.92192e-08 6.98515e-09 7.84123e-09)
(5.20284e-09 5.33037e-09 8.85407e-09)
(3.79235e-09 3.91869e-09 9.54912e-09)
(-9.91736e-09 2.76813e-09 9.87835e-09)
(2.2116e-08 5.42704e-09 8.73064e-09)
(6.95389e-09 3.66377e-09 9.74971e-09)
(5.0199e-09 2.04807e-09 1.04948e-08)
(-9.89616e-09 6.0374e-10 1.09264e-08)
(2.65488e-08 -1.32149e-08 9.70951e-09)
(8.9022e-09 -1.30698e-08 1.07201e-08)
(6.36925e-09 -1.47402e-08 1.14752e-08)
(-1.11891e-08 -1.8351e-08 1.19536e-08)
(9.09838e-09 9.32439e-09 2.69972e-10)
(-1.18232e-10 1.64655e-09 4.59994e-10)
(2.0272e-10 1.5191e-09 5.46554e-10)
(-8.81999e-09 8.86108e-09 5.16755e-10)
(1.45307e-08 7.5009e-09 1.8448e-09)
(1.48208e-09 3.27203e-09 2.27128e-09)
(-7.4729e-10 2.85498e-09 2.49107e-09)
(-1.3532e-08 6.21901e-09 2.46973e-09)
(1.52539e-08 6.13393e-09 3.63704e-09)
(2.1518e-09 4.35743e-09 4.18279e-09)
(-2.93224e-10 3.67907e-09 4.50434e-09)
(-1.31285e-08 4.09421e-09 4.56009e-09)
(1.53736e-08 5.61904e-09 5.03278e-09)
(2.57733e-09 4.56523e-09 5.6488e-09)
(8.65504e-10 3.65025e-09 6.05311e-09)
(-1.16566e-08 2.87678e-09 6.20557e-09)
(1.61827e-08 5.34376e-09 6.00427e-09)
(3.3391e-09 4.14383e-09 6.67327e-09)
(2.13149e-09 3.00424e-09 7.14788e-09)
(-1.04219e-08 1.93521e-09 7.3918e-09)
(1.7944e-08 5.10105e-09 6.82121e-09)
(4.57101e-09 3.46375e-09 7.52391e-09)
(3.35093e-09 2.10444e-09 8.05659e-09)
(-9.72626e-09 1.05003e-09 8.38822e-09)
(2.09025e-08 3.63219e-09 7.7529e-09)
(6.311e-09 1.90205e-09 8.46393e-09)
(4.46713e-09 3.3776e-10 9.03549e-09)
(-9.88663e-09 -1.03353e-09 9.44729e-09)
(2.54625e-08 -1.45122e-08 8.8717e-09)
(8.25993e-09 -1.42425e-08 9.56726e-09)
(5.71111e-09 -1.58658e-08 1.01436e-08)
(-1.14088e-08 -1.95072e-08 1.05991e-08)
(8.63391e-09 8.8872e-09 3.33591e-10)
(-1.82698e-10 1.49991e-09 4.37796e-10)
(2.12762e-10 1.3867e-09 4.98684e-10)
(-8.4421e-09 8.49419e-09 5.06571e-10)
(1.38115e-08 6.66073e-09 1.41606e-09)
(1.28411e-09 2.6025e-09 1.67156e-09)
(-7.53361e-10 2.22437e-09 1.82746e-09)
(-1.30556e-08 5.51798e-09 1.85767e-09)
(1.45267e-08 4.83714e-09 2.66811e-09)
(1.88699e-09 3.13594e-09 3.00949e-09)
(-3.97441e-10 2.50805e-09 3.23963e-09)
(-1.28023e-08 2.96434e-09 3.32683e-09)
(1.46407e-08 4.01883e-09 3.79334e-09)
(2.25952e-09 3.00937e-09 4.18758e-09)
(6.54368e-10 2.1477e-09 4.4799e-09)
(-1.1479e-08 1.44782e-09 4.64003e-09)
(1.53994e-08 3.62198e-09 4.70335e-09)
(2.96094e-09 2.45746e-09 5.13994e-09)
(1.83647e-09 1.37018e-09 5.4863e-09)
(-1.03351e-08 3.77898e-10 5.71607e-09)
(1.71109e-08 3.35204e-09 5.51499e-09)
(4.14098e-09 1.74244e-09 5.98286e-09)
(2.98329e-09 4.32837e-10 6.37413e-09)
(-9.71211e-09 -5.45867e-10 6.66793e-09)
(2.00807e-08 1.87886e-09 6.41764e-09)
(5.85669e-09 1.90784e-10 6.89736e-09)
(4.01826e-09 -1.32798e-09 7.31823e-09)
(-9.98689e-09 -2.64864e-09 7.66958e-09)
(2.47015e-08 -1.59292e-08 7.51244e-09)
(7.79333e-09 -1.55541e-08 7.97804e-09)
(5.18448e-09 -1.71383e-08 8.4017e-09)
(-1.16579e-08 -2.08064e-08 8.78893e-09)
(8.37125e-09 8.60916e-09 2.76613e-10)
(-2.17245e-10 1.39121e-09 3.32297e-10)
(2.15583e-10 1.28839e-09 3.72812e-10)
(-8.23378e-09 8.2647e-09 3.90933e-10)
(1.33788e-08 6.16155e-09 1.00808e-09)
(1.16507e-09 2.21097e-09 1.15668e-09)
(-7.61939e-10 1.86192e-09 1.26078e-09)
(-1.2779e-08 5.11949e-09 1.30116e-09)
(1.40653e-08 4.03827e-09 1.83556e-09)
(1.71662e-09 2.39182e-09 2.04324e-09)
(-4.67678e-10 1.80305e-09 2.19773e-09)
(-1.26056e-08 2.29172e-09 2.27557e-09)
(1.41636e-08 2.92923e-09 2.63353e-09)
(2.0464e-09 1.95631e-09 2.8798e-09)
(5.1129e-10 1.13713e-09 3.07732e-09)
(-1.13784e-08 4.92043e-10 3.2036e-09)
(1.48835e-08 2.33011e-09 3.34516e-09)
(2.7008e-09 1.19704e-09 3.62293e-09)
(1.63174e-09 1.5182e-10 3.85848e-09)
(-1.0302e-08 -7.83459e-10 4.03241e-09)
(1.65534e-08 1.94656e-09 4.02067e-09)
(3.8382e-09 3.64442e-10 4.32316e-09)
(2.72452e-09 -9.0562e-10 4.59056e-09)
(-9.73234e-09 -1.83022e-09 4.80808e-09)
(1.95167e-08 4.25558e-10 4.77309e-09)
(5.52876e-09 -1.22419e-09 5.08676e-09)
(3.70132e-09 -2.70747e-09 5.37515e-09)
(-1.00822e-08 -3.9941e-09 5.63157e-09)
(2.41648e-08 -1.71796e-08 5.67689e-09)
(7.44921e-09 -1.67234e-08 5.9805e-09)
(4.81281e-09 -1.82773e-08 6.27059e-09)
(-1.18504e-08 -2.19657e-08 6.55279e-09)
(8.22459e-09 8.43862e-09 1.74665e-10)
(-2.36684e-10 1.31608e-09 2.02166e-10)
(2.17505e-10 1.21996e-09 2.25365e-10)
(-8.11859e-09 8.12438e-09 2.39735e-10)
(1.31301e-08 5.85306e-09 6.02127e-10)
(1.09494e-09 1.96697e-09 6.80225e-10)
(-7.66064e-10 1.63676e-09 7.3994e-10)
(-1.26223e-08 4.87522e-09 7.69352e-10)
(1.3789e-08 3.55275e-09 1.07694e-09)
(1.61159e-09 1.94269e-09 1.18987e-09)
(-5.06783e-10 1.37975e-09 1.27878e-09)
(-1.24888e-08 1.88874e-09 1.32901e-09)
(1.38694e-08 2.24674e-09 1.54956e-09)
(1.91097e-09 1.29988e-09 1.68641e-09)
(4.28322e-10 5.09257e-10 1.80055e-09)
(-1.13156e-08 -1.01059e-10 1.87782e-09)
(1.45618e-08 1.48075e-09 1.99535e-09)
(2.5332e-09 3.70485e-10 2.15178e-09)
(1.50887e-09 -6.46181e-10 2.28845e-09)
(-1.02821e-08 -1.54448e-09 2.39317e-09)
(1.62035e-08 9.84884e-10 2.43736e-09)
(3.64132e-09 -5.76742e-10 2.60933e-09)
(2.56528e-09 -1.81993e-09 2.76501e-09)
(-9.74865e-09 -2.70953e-09 2.8952e-09)
(1.91589e-08 -5.90364e-10 2.93327e-09)
(5.31315e-09 -2.21257e-09 3.11273e-09)
(3.50345e-09 -3.67177e-09 3.28097e-09)
(-1.01468e-08 -4.93669e-09 3.43395e-09)
(2.38205e-08 -1.80893e-08 3.52357e-09)
(7.22055e-09 -1.75781e-08 3.697e-09)
(4.57921e-09 -1.91116e-08 3.86618e-09)
(-1.19769e-08 -2.28134e-08 4.03471e-09)
(8.15768e-09 8.35749e-09 5.91145e-11)
(-2.45735e-10 1.27833e-09 6.74586e-11)
(2.18803e-10 1.18548e-09 7.50108e-11)
(-8.06611e-09 8.05771e-09 8.02305e-11)
(1.30154e-08 5.70222e-09 1.99991e-10)
(1.06202e-09 1.84651e-09 2.24436e-10)
(-7.67214e-10 1.5255e-09 2.43893e-10)
(-1.25502e-08 4.75548e-09 2.5432e-10)
(1.36588e-08 3.31797e-09 3.55197e-10)
(1.5612e-09 1.72615e-09 3.91163e-10)
(-5.23739e-10 1.17593e-09 4.20179e-10)
(-1.24334e-08 1.69446e-09 4.37256e-10)
(1.37282e-08 1.91557e-09 5.11578e-10)
(1.84488e-09 9.8224e-10 5.5567e-10)
(3.90906e-10 2.05832e-10 5.92994e-10)
(-1.12842e-08 -3.87851e-10 6.18714e-10)
(1.44061e-08 1.06092e-09 6.62813e-10)
(2.45076e-09 -3.74845e-11 7.13557e-10)
(1.45201e-09 -1.03984e-09 7.58343e-10)
(-1.02712e-08 -1.92006e-09 7.92992e-10)
(1.60337e-08 5.0041e-10 8.15993e-10)
(3.54412e-09 -1.05056e-09 8.72011e-10)
(2.49007e-09 -2.28024e-09 9.23119e-10)
(-9.75604e-09 -3.15255e-09 9.66161e-10)
(1.89847e-08 -1.10866e-09 9.88713e-10)
(5.20629e-09 -2.71677e-09 1.04731e-09)
(3.40874e-09 -4.16386e-09 1.1026e-09)
(-1.01785e-08 -5.41798e-09 1.15319e-09)
(2.36526e-08 -1.85637e-08 1.19333e-09)
(7.10677e-09 -1.80249e-08 1.2499e-09)
(4.4666e-09 -1.9548e-08 1.30548e-09)
(-1.20394e-08 -2.32565e-08 1.3613e-09)
)
;

boundaryField
{
    interface
    {
        type            solidTraction;
        traction        uniform (0 0 0);
        pressure        uniform 0;
        secondOrder     false;
        setEffectiveTraction false;
        relaxationFactor 1;
        value           nonuniform List<vector> 
192
(
(7.12954e-08 3.43447e-08 1.36859e-08)
(7.53409e-08 2.30045e-08 2.24049e-08)
(7.73749e-08 1.60669e-08 2.48497e-08)
(7.92609e-08 1.31179e-08 2.5761e-08)
(8.23612e-08 1.18461e-08 2.64563e-08)
(8.72306e-08 1.14079e-08 2.74348e-08)
(9.40774e-08 1.00244e-08 2.92073e-08)
(1.02733e-07 -1.19729e-08 3.24494e-08)
(6.16966e-08 2.08348e-08 -6.9243e-10)
(6.57555e-08 1.50604e-08 3.509e-09)
(6.72297e-08 1.19773e-08 6.19422e-09)
(6.87894e-08 1.07352e-08 7.25303e-09)
(7.18105e-08 1.01417e-08 7.73449e-09)
(7.69191e-08 9.87671e-09 8.30404e-09)
(8.45171e-08 8.69316e-09 9.31363e-09)
(9.48848e-08 -1.11561e-08 1.04515e-08)
(5.45338e-08 1.66577e-08 -6.01546e-10)
(5.90459e-08 1.0862e-08 1.67815e-09)
(6.05085e-08 8.52086e-09 4.08076e-09)
(6.19201e-08 8.06992e-09 5.50811e-09)
(6.48003e-08 8.0544e-09 6.29433e-09)
(6.98898e-08 8.15931e-09 6.98946e-09)
(7.77046e-08 7.25987e-09 7.93069e-09)
(8.88497e-08 -1.17593e-08 8.9906e-09)
(5.01994e-08 1.52316e-08 -5.61887e-11)
(5.46296e-08 9.03979e-09 1.36795e-09)
(5.61618e-08 6.34474e-09 3.16382e-09)
(5.75482e-08 5.85142e-09 4.55573e-09)
(6.03309e-08 5.98658e-09 5.49867e-09)
(6.53422e-08 6.28137e-09 6.2939e-09)
(7.3195e-08 5.51229e-09 7.24386e-09)
(8.46646e-08 -1.3035e-08 8.4097e-09)
(4.76946e-08 1.44985e-08 1.51693e-10)
(5.19517e-08 8.13396e-09 1.12789e-09)
(5.35009e-08 5.04453e-09 2.37077e-09)
(5.48849e-08 4.23716e-09 3.49063e-09)
(5.76059e-08 4.23977e-09 4.37835e-09)
(6.25405e-08 4.52276e-09 5.16718e-09)
(7.0363e-08 3.77701e-09 6.07103e-09)
(8.19398e-08 -1.44492e-08 7.18789e-09)
(4.6221e-08 1.40466e-08 1.74209e-10)
(5.03437e-08 7.58509e-09 8.37607e-10)
(5.18753e-08 4.23457e-09 1.65101e-09)
(5.32482e-08 3.13395e-09 2.44059e-09)
(5.59261e-08 2.92782e-09 3.13565e-09)
(6.08001e-08 3.10527e-09 3.79372e-09)
(6.85766e-08 2.32893e-09 4.54255e-09)
(8.01835e-08 -1.57039e-08 5.45656e-09)
(4.53829e-08 1.37773e-08 1.21229e-10)
(4.94219e-08 7.24421e-09 5.11215e-10)
(5.09304e-08 3.73768e-09 9.75245e-10)
(5.22883e-08 2.44013e-09 1.44065e-09)
(5.49365e-08 2.06452e-09 1.87595e-09)
(5.97694e-08 2.13456e-09 2.30736e-09)
(6.7509e-08 1.31442e-09 2.80022e-09)
(7.91233e-08 -1.66183e-08 3.39547e-09)
(4.49994e-08 1.36508e-08 4.23737e-11)
(4.89988e-08 7.07755e-09 1.71296e-10)
(5.04934e-08 3.49628e-09 3.22626e-10)
(5.18414e-08 2.10257e-09 4.76248e-10)
(5.4474e-08 1.63754e-09 6.23862e-10)
(5.92862e-08 1.64548e-09 7.73511e-10)
(6.70066e-08 7.96608e-10 9.4515e-10)
(7.86227e-08 -1.70951e-08 1.15133e-09)
(1.37378e-08 3.50795e-08 7.54188e-08)
(2.10977e-08 2.38279e-08 8.1158e-08)
(2.20852e-08 1.66113e-08 8.4749e-08)
(2.24405e-08 1.32097e-08 8.73087e-08)
(2.34859e-08 1.1597e-08 9.01874e-08)
(2.52509e-08 1.10147e-08 9.43694e-08)
(2.78515e-08 9.6034e-09 1.00514e-07)
(3.18911e-08 -1.23914e-08 1.08646e-07)
(4.10206e-10 2.40204e-08 6.99329e-08)
(3.01345e-09 1.82144e-08 7.60355e-08)
(4.11737e-09 1.44601e-08 7.91304e-08)
(4.83966e-09 1.20833e-08 8.15046e-08)
(5.88053e-09 1.04286e-08 8.45066e-08)
(7.30662e-09 9.45227e-09 8.90549e-08)
(9.11521e-09 7.90088e-09 9.59038e-08)
(1.10946e-08 -1.24167e-08 1.05482e-07)
(4.07804e-10 2.40145e-08 6.95466e-08)
(-3.00632e-10 1.78957e-08 7.58701e-08)
(7.45832e-10 1.38294e-08 7.91303e-08)
(2.44742e-09 1.11759e-08 8.16288e-08)
(4.12234e-09 9.27123e-09 8.47283e-08)
(5.71681e-09 8.0561e-09 8.93584e-08)
(7.24083e-09 6.27138e-09 9.62863e-08)
(8.84408e-09 -1.41701e-08 1.05986e-07)
(-1.28013e-08 3.48815e-08 7.45268e-08)
(-1.82535e-08 2.26425e-08 8.10264e-08)
(-1.71154e-08 1.45375e-08 8.51179e-08)
(-1.50601e-08 1.03544e-08 8.80474e-08)
(-1.33923e-08 8.03462e-09 9.12164e-08)
(-1.21488e-08 6.78091e-09 9.56396e-08)
(-1.14862e-08 4.69905e-09 1.02001e-07)
(-1.20855e-08 -1.77692e-08 1.10444e-07)
(-6.87953e-08 3.28882e-08 1.43374e-08)
(-7.11303e-08 2.05829e-08 2.40692e-08)
(-7.11831e-08 1.27001e-08 2.72334e-08)
(-7.07638e-08 8.86481e-09 2.8668e-08)
(-7.12378e-08 6.75963e-09 2.97687e-08)
(-7.31937e-08 5.52404e-09 3.10847e-08)
(-7.69487e-08 3.37424e-09 3.31582e-08)
(-8.25486e-08 -1.91294e-08 3.66439e-08)
(-5.91485e-08 1.95704e-08 -1.13588e-10)
(-6.19324e-08 1.27524e-08 4.94109e-09)
(-6.17487e-08 8.7002e-09 8.26385e-09)
(-6.12422e-08 6.56577e-09 9.81064e-09)
(-6.18129e-08 5.13525e-09 1.0682e-08)
(-6.41338e-08 4.07466e-09 1.15759e-08)
(-6.87353e-08 2.15001e-09 1.28485e-08)
(-7.61927e-08 -1.81325e-08 1.41344e-08)
(-5.21865e-08 1.56603e-08 -1.80679e-10)
(-5.57102e-08 8.84043e-09 2.74701e-09)
(-5.57838e-08 5.51146e-09 5.66311e-09)
(-5.53569e-08 4.14231e-09 7.5105e-09)
(-5.59696e-08 3.26661e-09 8.64709e-09)
(-5.84121e-08 2.56189e-09 9.63377e-09)
(-6.33331e-08 9.21531e-10 1.07965e-08)
(-7.16391e-08 -1.85236e-08 1.19586e-08)
(-4.80512e-08 1.44491e-08 2.44609e-10)
(-5.17081e-08 7.29612e-09 2.14267e-09)
(-5.20599e-08 3.62531e-09 4.33002e-09)
(-5.18002e-08 2.20003e-09 6.05968e-09)
(-5.24814e-08 1.45251e-09 7.29565e-09)
(-5.49806e-08 9.16011e-10 8.33706e-09)
(-6.00415e-08 -6.13038e-10 9.47013e-09)
(-6.87379e-08 -1.96084e-08 1.07165e-08)
(-4.56876e-08 1.38686e-08 3.60077e-10)
(-4.93222e-08 6.60799e-09 1.66954e-09)
(-4.9845e-08 2.57013e-09 3.19624e-09)
(-4.97335e-08 8.30914e-10 4.57063e-09)
(-5.04904e-08 -6.39551e-11 5.68621e-09)
(-5.30298e-08 -6.33109e-10 6.66958e-09)
(-5.81528e-08 -2.16232e-09 7.71861e-09)
(-6.70207e-08 -2.08625e-08 8.89948e-09)
(-4.43039e-08 1.35179e-08 3.10094e-10)
(-4.7903e-08 6.21242e-09 1.19292e-09)
(-4.85144e-08 1.94151e-09 2.19729e-09)
(-4.85012e-08 -8.39901e-11 3.16283e-09)
(-4.93187e-08 -1.1951e-09 4.01925e-09)
(-5.18888e-08 -1.88535e-09 4.81731e-09)
(-5.70404e-08 -3.4647e-09 5.67164e-09)
(-6.59934e-08 -2.19927e-08 6.63263e-09)
(-4.35183e-08 1.33096e-08 1.97843e-10)
(-4.70931e-08 5.96774e-09 7.12217e-10)
(-4.77477e-08 1.56199e-09 1.286e-09)
(-4.77899e-08 -6.52853e-10 1.85432e-09)
(-4.86464e-08 -1.93634e-09 2.38552e-09)
(-5.12377e-08 -2.74354e-09 2.90118e-09)
(-5.64046e-08 -4.37975e-09 3.45806e-09)
(-6.54046e-08 -2.28222e-08 4.08201e-09)
(-4.31592e-08 1.32118e-08 6.71175e-11)
(-4.6722e-08 5.84727e-09 2.36314e-10)
(-4.73944e-08 1.37788e-09 4.23416e-10)
(-4.74611e-08 -9.28522e-10 6.10873e-10)
(-4.83362e-08 -2.30222e-09 7.90274e-10)
(-5.09382e-08 -3.17591e-09 9.68026e-10)
(-5.61124e-08 -4.84724e-09 1.16112e-09)
(-6.51348e-08 -2.3256e-08 1.37695e-09)
(3.22681e-08 -8.85694e-08 3.36949e-08)
(2.90351e-08 -8.28681e-08 1.16803e-08)
(2.72418e-08 -7.9126e-08 1.01963e-08)
(2.61352e-08 -7.7281e-08 9.55026e-09)
(2.53493e-08 -7.67151e-08 8.17926e-09)
(2.47901e-08 -7.67329e-08 6.21689e-09)
(2.44298e-08 -7.69187e-08 3.86958e-09)
(2.42537e-08 -7.70565e-08 1.31191e-09)
(1.14586e-08 -8.61376e-08 3.30014e-08)
(1.02793e-08 -7.90221e-08 1.26929e-08)
(9.28467e-09 -7.4621e-08 1.11473e-08)
(8.59945e-09 -7.24547e-08 1.01883e-08)
(8.09674e-09 -7.17272e-08 8.59827e-09)
(7.72478e-09 -7.16483e-08 6.48651e-09)
(7.47725e-09 -7.1775e-08 4.0224e-09)
(7.35399e-09 -7.18843e-08 1.36159e-09)
(9.21048e-09 -8.73645e-08 3.40422e-08)
(8.38797e-09 -8.01501e-08 1.36225e-08)
(7.69075e-09 -7.56954e-08 1.18772e-08)
(7.02849e-09 -7.3485e-08 1.07432e-08)
(6.49877e-09 -7.27204e-08 9.00462e-09)
(6.12462e-09 -7.26128e-08 6.76392e-09)
(5.88927e-09 -7.272e-08 4.18385e-09)
(5.77573e-09 -7.28195e-08 1.41459e-09)
(-1.17118e-08 -9.25584e-08 3.69039e-08)
(-1.03509e-08 -8.66051e-08 1.44395e-08)
(-1.01988e-08 -8.27183e-08 1.23659e-08)
(-1.04464e-08 -8.07453e-08 1.1213e-08)
(-1.07114e-08 -8.00707e-08 9.4036e-09)
(-1.09134e-08 -8.00048e-08 7.05459e-09)
(-1.10456e-08 -8.01338e-08 4.35744e-09)
(-1.11111e-08 -8.02428e-08 1.47207e-09)
)
;
        gradient        uniform (0 0 0);
    }
    symmetry
    {
        type            solidSymmetry;
        patchType       symmetry;
        secondOrder     false;
        value           nonuniform List<vector> 
32
(
(8.15768e-09 8.35749e-09 0)
(1.30154e-08 5.70222e-09 0)
(1.36588e-08 3.31797e-09 0)
(1.37282e-08 1.91557e-09 0)
(1.44061e-08 1.06092e-09 0)
(1.60337e-08 5.0041e-10 0)
(1.89847e-08 -1.10866e-09 0)
(2.36526e-08 -1.85637e-08 0)
(-2.45735e-10 1.27833e-09 0)
(1.06202e-09 1.84651e-09 0)
(1.5612e-09 1.72615e-09 0)
(1.84488e-09 9.8224e-10 0)
(2.45076e-09 -3.74845e-11 0)
(3.54412e-09 -1.05056e-09 0)
(5.20629e-09 -2.71677e-09 0)
(7.10677e-09 -1.80249e-08 0)
(2.18803e-10 1.18548e-09 0)
(-7.67214e-10 1.5255e-09 0)
(-5.23739e-10 1.17593e-09 0)
(3.90906e-10 2.05832e-10 0)
(1.45201e-09 -1.03984e-09 0)
(2.49007e-09 -2.28024e-09 0)
(3.40874e-09 -4.16386e-09 0)
(4.4666e-09 -1.9548e-08 0)
(-8.06611e-09 8.05771e-09 0)
(-1.25502e-08 4.75548e-09 0)
(-1.24334e-08 1.69446e-09 0)
(-1.12842e-08 -3.87851e-10 0)
(-1.02712e-08 -1.92006e-09 0)
(-9.75604e-09 -3.15255e-09 0)
(-1.01785e-08 -5.41798e-09 0)
(-1.20394e-08 -2.32565e-08 0)
)
;
    }
    bottom
    {
        type            fixedDisplacement;
        value           uniform (0 0 0);
    }
}


// ************************************************************************* //
