/*--------------------------------*- C++ -*----------------------------------*\
| =========                 |                                                 |
| \\      /  F ield         | OpenFOAM: The Open Source CFD Toolbox           |
|  \\    /   O peration     | Version:  v1912                                 |
|   \\  /    A nd           | Website:  www.openfoam.com                      |
|    \\/     M anipulation  |                                                 |
\*---------------------------------------------------------------------------*/
FoamFile
{
    version     2.0;
    format      ascii;
    class       volScalarField;
    location    "0.32/solid";
    object      epsilonEq;
}
// * * * * * * * * * * * * * * * * * * * * * * * * * * * * * * * * * * * * * //

dimensions      [0 0 0 0 0 0 0];


internalField   nonuniform List<scalar> 
256
(
2.40242e-06
1.86655e-06
1.84886e-06
2.33004e-06
1.60601e-06
1.5126e-06
1.49417e-06
1.54107e-06
1.65447e-06
1.5027e-06
1.48402e-06
1.59081e-06
1.74074e-06
1.54266e-06
1.52414e-06
1.67818e-06
1.82638e-06
1.61073e-06
1.59231e-06
1.76439e-06
1.9086e-06
1.70129e-06
1.68286e-06
1.84689e-06
1.74955e-06
1.69776e-06
1.68065e-06
1.69285e-06
1.34956e-07
1.86889e-06
1.85458e-06
1.41769e-07
1.64583e-06
3.51305e-07
3.43516e-07
1.56735e-06
1.34449e-06
3.24904e-07
3.16416e-07
1.27046e-06
1.35103e-06
2.653e-07
2.58e-07
1.27752e-06
1.38796e-06
2.18428e-07
2.12024e-07
1.31404e-06
1.44725e-06
2.03175e-07
1.97216e-07
1.37244e-06
1.53136e-06
1.96798e-07
1.91209e-07
1.45588e-06
1.52535e-06
1.69574e-08
2.33519e-08
1.45375e-06
1.749e-06
1.69841e-06
1.6817e-06
1.6935e-06
1.46442e-06
2.03925e-07
1.97992e-07
1.39073e-06
1.30005e-06
2.42193e-07
2.32712e-07
1.22733e-06
1.31593e-06
2.14847e-07
2.0542e-07
1.24184e-06
1.34986e-06
1.78294e-07
1.68869e-07
1.2744e-06
1.40677e-06
1.63177e-07
1.53588e-07
1.32972e-06
1.49448e-06
1.62475e-07
1.52977e-07
1.41611e-06
1.53059e-06
1.91032e-07
1.86876e-07
1.45585e-06
1.90812e-06
1.70275e-06
1.68509e-06
1.84926e-06
1.34138e-06
1.77437e-07
1.72078e-07
1.27296e-06
1.20748e-06
2.15097e-07
2.06712e-07
1.13885e-06
1.22955e-06
1.97437e-07
1.88675e-07
1.15852e-06
1.26389e-06
1.67657e-07
1.58674e-07
1.19082e-06
1.31918e-06
1.543e-07
1.45039e-07
1.24407e-06
1.405e-06
1.5437e-07
1.4516e-07
1.32819e-06
1.44534e-06
1.86837e-07
1.83208e-07
1.3719e-06
1.83039e-06
1.61508e-06
1.59789e-06
1.77342e-06
1.26951e-06
1.63085e-07
1.57582e-07
1.20489e-06
1.14427e-06
1.97772e-07
1.90222e-07
1.07885e-06
1.16948e-06
1.84062e-07
1.76119e-07
1.1012e-06
1.20486e-06
1.58e-07
1.49708e-07
1.13408e-06
1.25976e-06
1.45954e-07
1.3726e-07
1.18658e-06
1.34426e-06
1.46247e-07
1.37537e-07
1.26912e-06
1.38443e-06
1.75408e-07
1.72576e-07
1.31252e-06
1.76147e-06
1.55159e-06
1.53482e-06
1.70643e-06
1.22712e-06
1.54423e-07
1.48802e-07
1.16504e-06
1.10562e-06
1.87431e-07
1.80414e-07
1.04238e-06
1.13222e-06
1.75601e-07
1.68265e-07
1.06588e-06
1.16829e-06
1.51385e-07
1.43668e-07
1.09918e-06
1.22311e-06
1.39968e-07
1.31753e-07
1.15136e-06
1.30683e-06
1.40585e-07
1.3228e-07
1.23289e-06
1.3463e-06
1.67945e-07
1.65754e-07
1.27551e-06
1.71624e-06
1.51132e-06
1.49484e-06
1.66267e-06
1.2029e-06
1.49308e-07
1.4364e-07
1.14237e-06
1.0834e-06
1.81488e-07
1.74802e-07
1.02151e-06
1.11056e-06
1.70536e-07
1.63581e-07
1.04546e-06
1.14697e-06
1.47212e-07
1.3988e-07
1.07894e-06
1.20175e-06
1.35968e-07
1.28084e-07
1.13092e-06
1.28498e-06
1.36766e-07
1.2873e-07
1.21183e-06
1.32391e-06
1.63672e-07
1.61912e-07
1.25386e-06
1.68943e-06
1.48764e-06
1.47136e-06
1.63683e-06
1.19178e-06
1.46895e-07
1.41215e-07
1.13199e-06
1.07321e-06
1.78731e-07
1.72207e-07
1.01197e-06
1.10056e-06
1.68128e-07
1.6136e-07
1.03606e-06
1.13709e-06
1.45171e-07
1.38033e-07
1.0696e-06
1.19183e-06
1.33949e-07
1.26236e-07
1.12147e-06
1.27483e-06
1.34809e-07
1.26908e-07
1.20207e-06
1.31349e-06
1.61751e-07
1.60208e-07
1.24381e-06
1.67697e-06
1.47668e-06
1.46048e-06
1.62488e-06
)
;

boundaryField
{
    interface
    {
        type            calculated;
        value           nonuniform List<scalar> 
192
(
3.26202e-06
2.4037e-06
2.47257e-06
2.58778e-06
2.70983e-06
2.84728e-06
2.78229e-06
1.48791e-06
2.79785e-06
2.40475e-06
2.43407e-06
2.51308e-06
2.62732e-06
2.7937e-06
2.9066e-06
2.78217e-06
2.50767e-06
2.26399e-06
2.30084e-06
2.37398e-06
2.48384e-06
2.65149e-06
2.79425e-06
2.8481e-06
2.30316e-06
2.09731e-06
2.14052e-06
2.21286e-06
2.32e-06
2.48447e-06
2.6296e-06
2.71671e-06
2.18273e-06
1.98887e-06
2.03526e-06
2.10817e-06
2.21443e-06
2.37682e-06
2.52072e-06
2.6151e-06
2.1114e-06
1.923e-06
1.97079e-06
2.04422e-06
2.15018e-06
2.31124e-06
2.45346e-06
2.54971e-06
2.07066e-06
1.88515e-06
1.93352e-06
2.00724e-06
2.11305e-06
2.27325e-06
2.41416e-06
2.51102e-06
2.05199e-06
1.86779e-06
1.91636e-06
1.9902e-06
2.09592e-06
2.2557e-06
2.39592e-06
2.49302e-06
3.38987e-06
2.546e-06
2.61512e-06
2.73122e-06
2.8545e-06
2.99446e-06
2.94463e-06
1.76308e-06
3.16425e-06
2.70806e-06
2.72234e-06
2.80413e-06
2.92631e-06
3.09956e-06
3.2176e-06
3.05444e-06
3.13281e-06
2.67503e-06
2.68827e-06
2.76983e-06
2.89192e-06
3.06497e-06
3.18378e-06
3.02835e-06
3.29577e-06
2.45941e-06
2.52787e-06
2.64402e-06
2.76734e-06
2.90692e-06
2.86015e-06
1.72271e-06
3.15547e-06
2.3008e-06
2.36994e-06
2.4855e-06
2.6077e-06
2.74569e-06
2.68725e-06
1.44151e-06
2.67089e-06
2.28083e-06
2.30901e-06
2.38622e-06
2.49845e-06
2.66331e-06
2.78057e-06
2.68784e-06
2.38535e-06
2.14137e-06
2.17558e-06
2.24604e-06
2.35303e-06
2.51809e-06
2.66394e-06
2.74831e-06
2.18725e-06
1.97972e-06
2.01933e-06
2.08836e-06
2.1921e-06
2.35337e-06
2.50076e-06
2.61782e-06
2.07156e-06
1.87525e-06
1.91755e-06
1.98669e-06
2.08917e-06
2.24797e-06
2.39362e-06
2.51761e-06
2.00335e-06
1.81204e-06
1.85549e-06
1.92487e-06
2.02677e-06
2.18396e-06
2.3276e-06
2.45331e-06
1.96451e-06
1.77585e-06
1.81974e-06
1.88925e-06
1.99082e-06
2.14697e-06
2.2891e-06
2.41537e-06
1.94674e-06
1.75928e-06
1.80332e-06
1.87287e-06
1.97428e-06
2.12992e-06
2.27126e-06
2.39775e-06
1.76382e-06
2.94475e-06
2.99526e-06
2.86142e-06
2.75916e-06
2.69335e-06
2.65437e-06
2.63622e-06
3.05501e-06
3.21886e-06
3.1027e-06
2.93472e-06
2.82294e-06
2.75311e-06
2.71206e-06
2.69298e-06
3.02888e-06
3.18524e-06
3.06853e-06
2.90102e-06
2.78958e-06
2.71999e-06
2.67909e-06
2.66008e-06
1.72315e-06
2.86096e-06
2.90979e-06
2.77807e-06
2.67763e-06
2.61318e-06
2.57511e-06
2.55742e-06
)
;
    }
    symmetry
    {
        type            symmetry;
    }
    bottom
    {
        type            calculated;
        value           nonuniform List<scalar> 
32
(
3.19323e-06
1.95243e-06
1.67546e-06
1.53856e-06
1.46183e-06
1.41604e-06
1.38967e-06
1.37753e-06
2.19846e-06
4.30745e-07
2.27244e-07
2.01847e-07
1.90769e-07
1.83113e-07
1.78238e-07
1.75887e-07
2.18079e-06
4.20955e-07
2.18517e-07
1.93786e-07
1.82727e-07
1.75083e-07
1.70245e-07
1.67923e-07
3.11515e-06
1.86935e-06
1.59868e-06
1.46856e-06
1.39666e-06
1.35407e-06
1.32963e-06
1.31841e-06
)
;
    }
}


// ************************************************************************* //
