/*--------------------------------*- C++ -*----------------------------------*\
| =========                 |                                                 |
| \\      /  F ield         | OpenFOAM: The Open Source CFD Toolbox           |
|  \\    /   O peration     | Version:  v1912                                 |
|   \\  /    A nd           | Website:  www.openfoam.com                      |
|    \\/     M anipulation  |                                                 |
\*---------------------------------------------------------------------------*/
FoamFile
{
    version     2.0;
    format      ascii;
    class       volSymmTensorField;
    location    "0.32/solid";
    object      epsilon;
}
// * * * * * * * * * * * * * * * * * * * * * * * * * * * * * * * * * * * * * //

dimensions      [0 0 0 0 0 0 0];


internalField   nonuniform List<symmTensor> 
256
(
(-2.57177e-06 7.20594e-08 -2.38248e-08 9.46374e-07 7.12759e-08 -2.72859e-06)
(-2.84393e-07 -6.77691e-08 -8.41086e-09 6.17996e-07 7.4461e-08 -2.51604e-06)
(-2.81644e-07 8.88066e-08 8.69221e-09 6.06516e-07 7.68852e-08 -2.49424e-06)
(-2.4976e-06 -6.12198e-08 2.49925e-08 9.02399e-07 8.02381e-08 -2.67191e-06)
(-2.53916e-06 -1.40626e-08 -3.28882e-08 -2.09023e-07 -1.75269e-08 -2.68803e-06)
(-4.56796e-07 -2.35189e-08 -1.29412e-08 -3.81854e-08 -1.27604e-08 -2.48664e-06)
(-4.53412e-07 3.98543e-08 1.41062e-08 -4.95385e-08 -1.1118e-08 -2.46398e-06)
(-2.46234e-06 2.1136e-08 3.48883e-08 -2.41765e-07 -1.15736e-08 -2.63264e-06)
(-2.58012e-06 -1.54856e-08 -3.49958e-08 -1.76179e-07 -2.20376e-08 -2.72677e-06)
(-4.59022e-07 -1.15431e-08 -1.41339e-08 -8.62768e-08 -2.09439e-08 -2.50295e-06)
(-4.55991e-07 2.38236e-08 1.5651e-08 -9.69254e-08 -1.98316e-08 -2.47985e-06)
(-2.50232e-06 2.05925e-08 3.72092e-08 -2.06074e-07 -1.79108e-08 -2.67067e-06)
(-2.63523e-06 -5.48489e-09 -3.58932e-08 -1.04918e-07 -1.42188e-08 -2.78834e-06)
(-4.32524e-07 -5.11758e-09 -1.44985e-08 -8.71153e-08 -1.35226e-08 -2.55411e-06)
(-4.29723e-07 1.41498e-08 1.60239e-08 -9.69006e-08 -1.2682e-08 -2.53088e-06)
(-2.55662e-06 9.27369e-09 3.81424e-08 -1.32506e-07 -1.10551e-08 -2.7318e-06)
(-2.7197e-06 9.96537e-10 -3.56521e-08 -6.40303e-08 -7.32316e-09 -2.87909e-06)
(-4.19779e-07 -1.31159e-09 -1.42845e-08 -7.51963e-08 -6.1535e-09 -2.64493e-06)
(-4.17024e-07 7.69889e-09 1.57296e-08 -8.4544e-08 -5.43211e-09 -2.62162e-06)
(-2.6405e-06 1.68213e-09 3.7906e-08 -9.02961e-08 -4.66326e-09 -2.82223e-06)
(-2.85356e-06 5.87625e-09 -3.43419e-08 -7.60489e-08 -4.82206e-11 -3.01613e-06)
(-4.25444e-07 6.20027e-10 -1.35627e-08 -8.68376e-08 1.27454e-09 -2.79106e-06)
(-4.229e-07 3.33013e-09 1.49771e-08 -9.6005e-08 1.98258e-09 -2.76767e-06)
(-2.77496e-06 -4.49583e-09 3.66293e-08 -1.01939e-07 2.40908e-09 -2.95893e-06)
(-3.04311e-06 1.83001e-08 -3.23478e-08 -5.07032e-07 1.45557e-08 -3.20983e-06)
(-4.54866e-07 3.9414e-09 -1.25762e-08 -4.6975e-07 1.58176e-08 -3.00867e-06)
(-4.53609e-07 -2.97217e-09 1.41021e-08 -4.76262e-07 1.65962e-08 -2.98555e-06)
(-2.96957e-06 -1.88673e-08 3.47034e-08 -5.27976e-07 1.69873e-08 -3.15281e-06)
(-3.28146e-06 3.06535e-08 -3.02125e-08 -3.4618e-06 3.13875e-08 -3.4615e-06)
(-5.15411e-07 1.22671e-08 -1.16671e-08 -3.31845e-06 3.28629e-08 -3.31759e-06)
(-5.16861e-07 -1.29257e-08 1.33215e-08 -3.29847e-06 3.35923e-08 -3.29741e-06)
(-3.22305e-06 -3.23808e-08 3.24883e-08 -3.41184e-06 3.34045e-08 -3.41141e-06)
(-2.23084e-06 5.6361e-08 -1.71365e-08 5.37823e-07 -1.00873e-07 -2.94584e-07)
(-2.32525e-07 -6.50619e-08 -1.772e-09 2.51941e-07 -6.5894e-08 -2.65827e-07)
(-2.27871e-07 7.58123e-08 3.57795e-09 2.39005e-07 -6.03451e-08 -2.66134e-07)
(-2.14539e-06 -4.93242e-08 1.85123e-08 4.92469e-07 -8.34984e-08 -2.97885e-07)
(-2.22517e-06 -1.47217e-08 -2.24378e-08 -4.56103e-08 -4.14073e-08 -4.30363e-07)
(-3.81783e-07 -2.42326e-08 -4.68395e-09 9.79625e-08 -2.53062e-08 -3.89197e-07)
(-3.76031e-07 3.18153e-08 7.98591e-09 8.60476e-08 -2.16455e-08 -3.90952e-07)
(-2.13789e-06 1.80098e-08 2.46483e-08 -7.94305e-08 -2.91691e-08 -4.39059e-07)
(-2.25142e-06 -1.60841e-08 -2.23852e-08 -6.85463e-08 -3.36137e-08 -4.33685e-07)
(-3.8181e-07 -1.34964e-08 -4.74031e-09 9.24619e-09 -2.81723e-08 -3.87964e-07)
(-3.76389e-07 1.8846e-08 8.38745e-09 -9.73638e-10 -2.55086e-08 -3.90765e-07)
(-2.16286e-06 1.81883e-08 2.47589e-08 -9.77184e-08 -2.43266e-08 -4.45532e-07)
(-2.29788e-06 -6.3001e-09 -2.23737e-08 -5.82437e-08 -3.12962e-08 -4.24424e-07)
(-3.55712e-07 -7.07845e-09 -4.43407e-09 -4.33186e-08 -2.88103e-08 -3.76878e-07)
(-3.50393e-07 1.07713e-08 7.92601e-09 -5.25796e-08 -2.66632e-08 -3.80254e-07)
(-2.20769e-06 7.82637e-09 2.47238e-08 -8.49534e-08 -2.3747e-08 -4.37913e-07)
(-2.38146e-06 8.6198e-10 -2.21719e-08 -4.80206e-08 -2.42671e-08 -4.23675e-07)
(-3.4433e-07 -2.81121e-09 -4.15374e-09 -5.97934e-08 -2.26699e-08 -3.76824e-07)
(-3.38877e-07 5.05293e-09 7.41918e-09 -6.87151e-08 -2.07932e-08 -3.80522e-07)
(-2.28945e-06 8.55801e-11 2.44874e-08 -7.35686e-08 -1.77839e-08 -4.38068e-07)
(-2.52403e-06 6.79874e-09 -2.12137e-08 -6.68349e-08 -1.45007e-08 -4.31769e-07)
(-3.53537e-07 -1.55843e-10 -3.54782e-09 -7.76138e-08 -1.36581e-08 -3.87167e-07)
(-3.48117e-07 9.03584e-10 6.69169e-09 -8.62535e-08 -1.19649e-08 -3.91158e-07)
(-2.43089e-06 -6.76818e-09 2.35402e-08 -9.17033e-08 -8.79131e-09 -4.46942e-07)
(-2.73996e-06 2.00187e-08 -1.94148e-08 -4.50555e-07 -4.61958e-09 -4.54352e-07)
(-3.88765e-07 3.79338e-09 -2.67009e-09 -4.11096e-07 -4.17142e-09 -4.1243e-07)
(-3.84568e-07 -4.8914e-09 5.63873e-09 -4.16519e-07 -2.7828e-09 -4.17002e-07)
(-2.65003e-06 -2.15707e-08 2.16918e-08 -4.69157e-07 -9.35191e-12 -4.70938e-07)
(-3.04372e-06 3.26113e-08 -1.74149e-08 -3.20952e-06 1.50962e-08 -5.07968e-07)
(-4.55362e-07 1.29314e-08 -2.26446e-09 -3.00932e-06 1.61969e-08 -4.68632e-07)
(-4.54191e-07 -1.38601e-08 4.14926e-09 -2.98645e-06 1.69365e-08 -4.74322e-07)
(-2.96996e-06 -3.4652e-08 1.91109e-08 -3.15282e-06 1.73549e-08 -5.27194e-07)
(-1.97744e-06 4.65498e-08 -8.85962e-09 3.85002e-07 -1.45285e-08 -1.23497e-09)
(-1.97048e-07 -6.57603e-08 2.34307e-10 1.28009e-07 1.16462e-08 -3.85592e-09)
(-1.92274e-07 7.09925e-08 1.70949e-09 1.15867e-07 1.6171e-08 -5.41072e-09)
(-1.89326e-06 -4.18275e-08 9.61379e-09 3.44569e-07 -5.75052e-10 -5.99359e-09)
(-2.00672e-06 -1.30914e-08 -1.00184e-08 -4.9377e-08 -5.37304e-09 -6.44707e-08)
(-3.32632e-07 -2.45178e-08 -4.85306e-10 7.81167e-08 8.03529e-09 -6.85517e-08)
(-3.26398e-07 2.76669e-08 3.82881e-09 6.64343e-08 1.18175e-08 -7.20867e-08)
(-1.91947e-06 1.46367e-08 1.14284e-08 -8.25237e-08 6.66705e-09 -7.50956e-08)
(-2.03575e-06 -1.51484e-08 -8.49588e-09 -3.96893e-08 -1.39997e-08 -8.5591e-08)
(-3.34428e-07 -1.40793e-08 1.21103e-10 2.91614e-08 -8.78975e-09 -9.03143e-08)
(-3.28349e-07 1.58745e-08 3.35349e-09 1.90519e-08 -5.64238e-09 -9.5124e-08)
(-1.94674e-06 1.58377e-08 1.00177e-08 -6.89909e-08 -3.77698e-09 -9.99449e-08)
(-2.07935e-06 -6.48345e-09 -7.88497e-09 -2.98714e-08 -2.19891e-08 -8.11044e-08)
(-3.10134e-07 -7.9455e-09 5.7345e-10 -1.75452e-08 -1.94712e-08 -8.64388e-08)
(-3.04037e-07 8.90326e-09 2.61745e-09 -2.67094e-08 -1.67617e-08 -9.20354e-08)
(-1.9883e-06 6.92613e-09 9.32886e-09 -5.67832e-08 -1.31555e-08 -9.77591e-08)
(-2.16021e-06 7.98824e-10 -7.8557e-09 -2.80893e-08 -2.18032e-08 -7.35094e-08)
(-2.99923e-07 -3.43523e-09 6.47598e-10 -4.07226e-08 -2.0325e-08 -7.95184e-08)
(-2.93577e-07 3.68737e-09 2.24018e-09 -4.95119e-08 -1.79275e-08 -8.56388e-08)
(-2.06679e-06 -6.26978e-10 9.20903e-09 -5.37007e-08 -1.40639e-08 -9.16818e-08)
(-2.30262e-06 7.59757e-09 -7.58953e-09 -5.14985e-08 -1.58521e-08 -7.09279e-08)
(-3.1192e-07 -1.22465e-10 8.11382e-10 -6.24431e-08 -1.52571e-08 -7.75642e-08)
(-3.05508e-07 -4.10467e-10 1.83761e-09 -7.08462e-08 -1.31768e-08 -8.41405e-08)
(-2.20722e-06 -8.06177e-09 8.87826e-09 -7.61157e-08 -9.18568e-09 -9.03754e-08)
(-2.52455e-06 2.17342e-08 -6.53466e-09 -4.22773e-07 -1.02409e-08 -7.50522e-08)
(-3.52675e-07 4.46037e-09 1.28055e-09 -3.81299e-07 -9.84623e-09 -8.21373e-08)
(-3.4744e-07 -6.13899e-09 8.97108e-10 -3.86389e-07 -8.3035e-09 -8.92168e-08)
(-2.43115e-06 -2.35213e-08 7.65424e-09 -4.40871e-07 -5.21209e-09 -9.58429e-08)
(-2.85488e-06 3.45183e-08 -5.10295e-09 -3.01515e-06 2.29483e-09 -7.68403e-08)
(-4.25336e-07 1.37947e-08 1.38809e-09 -2.79172e-06 3.27662e-09 -8.4351e-08)
(-4.23154e-07 -1.47928e-08 -7.90077e-10 -2.76867e-06 3.87372e-09 -9.18512e-08)
(-2.77598e-06 -3.66243e-08 5.53153e-09 -2.95868e-06 4.25345e-09 -9.87129e-08)
(-1.8228e-06 4.10126e-08 -4.6065e-09 3.29948e-07 1.09418e-08 6.68342e-09)
(-1.78088e-07 -6.56361e-08 9.24868e-10 8.95386e-08 2.63861e-08 1.60791e-09)
(-1.73979e-07 6.78419e-08 8.91641e-10 7.8602e-08 2.97388e-08 4.09935e-10)
(-1.74217e-06 -3.79315e-08 5.12854e-09 2.94722e-07 2.12206e-08 3.25014e-09)
(-1.85995e-06 -1.20138e-08 -5.24829e-09 -7.53538e-08 1.18807e-08 -2.37357e-08)
(-3.05604e-07 -2.44409e-08 1.14133e-09 4.36651e-08 2.05013e-08 -3.32401e-08)
(-3.00046e-07 2.52123e-08 2.01999e-09 3.26782e-08 2.36473e-08 -3.6133e-08)
(-1.77581e-06 1.26064e-08 6.30377e-09 -1.06658e-07 2.16377e-08 -3.20314e-08)
(-1.89311e-06 -1.39982e-08 -3.94951e-09 -4.88496e-08 1.29259e-09 -4.90652e-08)
(-3.10285e-07 -1.40445e-08 1.80114e-09 1.50561e-08 5.11681e-09 -6.01901e-08)
(-3.04686e-07 1.39615e-08 1.45608e-09 5.15786e-09 7.97076e-09 -6.42557e-08)
(-1.80675e-06 1.39749e-08 5.10162e-09 -7.78337e-08 1.02437e-08 -6.08002e-08)
(-1.93731e-06 -6.30853e-09 -3.27519e-09 -2.60743e-08 -1.00976e-08 -5.75104e-08)
(-2.88661e-07 -8.2491e-09 2.17205e-09 -1.53451e-08 -7.97776e-09 -6.94859e-08)
(-2.82917e-07 7.80194e-09 7.77128e-10 -2.45e-08 -5.39404e-09 -7.43792e-08)
(-1.84858e-06 6.21007e-09 4.33869e-09 -5.32341e-08 -1.96059e-09 -7.17096e-08)
(-2.01709e-06 6.46538e-10 -3.27338e-09 -1.97215e-08 -1.54449e-08 -5.78553e-08)
(-2.79433e-07 -3.78845e-09 2.12136e-09 -3.30006e-08 -1.39841e-08 -7.03164e-08)
(-2.73364e-07 3.09744e-09 4.84975e-10 -4.182e-08 -1.16641e-08 -7.58328e-08)
(-1.92567e-06 -8.36499e-10 4.21821e-09 -4.56926e-08 -8.16684e-09 -7.39023e-08)
(-2.15832e-06 7.88785e-09 -3.34715e-09 -4.3946e-08 -1.47907e-08 -5.81875e-08)
(-2.9269e-07 -7.18777e-11 2.0126e-09 -5.49176e-08 -1.39663e-08 -7.07582e-08)
(-2.86499e-07 -9.68059e-10 2.58375e-10 -6.3353e-08 -1.19913e-08 -7.67888e-08)
(-2.06447e-06 -8.5345e-09 4.1741e-09 -6.89039e-08 -8.5819e-09 -7.57348e-08)
(-2.38098e-06 2.28849e-08 -2.9259e-09 -4.08691e-07 -1.20675e-08 -6.03752e-08)
(-3.36789e-07 5.10485e-09 2.09479e-09 -3.65451e-07 -1.14329e-08 -7.28341e-08)
(-3.31722e-07 -6.96445e-09 -4.3521e-10 -3.70645e-07 -1.0039e-08 -7.92694e-08)
(-2.28833e-06 -2.47174e-08 3.52521e-09 -4.27274e-07 -7.54692e-09 -7.91043e-08)
(-2.7213e-06 3.59746e-08 -2.21209e-09 -2.87913e-06 -1.22013e-09 -5.87453e-08)
(-4.13772e-07 1.45298e-08 1.86831e-09 -2.64681e-06 -3.64928e-10 -7.13043e-08)
(-4.11697e-07 -1.56323e-08 -1.77123e-09 -2.62397e-06 1.10075e-10 -7.78813e-08)
(-2.64165e-06 -3.81296e-08 2.14837e-09 -2.82351e-06 3.93064e-10 -7.79413e-08)
(-1.73289e-06 3.79348e-08 -2.50308e-09 3.03896e-07 1.33173e-08 -3.58708e-10)
(-1.68311e-07 -6.51684e-08 8.17512e-10 7.30631e-08 2.20889e-08 -3.58051e-09)
(-1.64842e-07 6.56468e-08 6.45356e-10 6.31831e-08 2.44834e-08 -4.49345e-09)
(-1.65512e-06 -3.59342e-08 2.91696e-09 2.72833e-07 2.05947e-08 -2.98484e-09)
(-1.77084e-06 -1.15905e-08 -3.0333e-09 -9.26195e-08 1.35144e-08 -1.91863e-08)
(-2.90793e-07 -2.43099e-08 1.19189e-09 2.19163e-08 1.88916e-08 -2.57305e-08)
(-2.86009e-07 2.37269e-08 1.43893e-09 1.16493e-08 2.12458e-08 -2.8024e-08)
(-1.68948e-06 1.16179e-08 3.89026e-09 -1.22006e-07 2.07156e-08 -2.57653e-08)
(-1.80622e-06 -1.32656e-08 -2.31423e-09 -6.38156e-08 6.63993e-09 -4.08036e-08)
(-2.97274e-07 -1.39465e-08 1.64405e-09 -2.60428e-09 9.34396e-09 -4.86893e-08)
(-2.92311e-07 1.27998e-08 1.11841e-09 -1.22167e-08 1.15875e-08 -5.20017e-08)
(-1.72234e-06 1.28484e-08 3.26558e-09 -9.21631e-08 1.3571e-08 -5.03818e-08)
(-1.8516e-06 -6.09969e-09 -1.85637e-09 -3.38034e-08 -2.68507e-09 -5.5088e-08)
(-2.77804e-07 -8.37292e-09 1.86172e-09 -2.39434e-08 -9.91213e-10 -6.36298e-08)
(-2.72588e-07 7.14036e-09 6.50741e-10 -3.30625e-08 1.11395e-09 -6.77314e-08)
(-1.76509e-06 5.70618e-09 2.73588e-09 -6.10142e-08 3.85696e-09 -6.70422e-08)
(-1.93126e-06 5.34418e-10 -1.84579e-09 -2.15013e-08 -9.24258e-09 -6.25656e-08)
(-2.69403e-07 -4.01621e-09 1.77134e-09 -3.51157e-08 -7.91198e-09 -7.1528e-08)
(-2.63801e-07 2.81354e-09 4.18145e-10 -4.40077e-08 -5.99287e-09 -7.62707e-08)
(-1.84183e-06 -9.17558e-10 2.60984e-09 -4.78352e-08 -3.27596e-09 -7.64578e-08)
(-2.07159e-06 7.96698e-09 -1.97168e-09 -4.33998e-08 -1.1326e-08 -6.74949e-08)
(-2.83209e-07 -7.63025e-11 1.5912e-09 -5.42819e-08 -1.03843e-08 -7.66237e-08)
(-2.77443e-07 -1.23096e-09 2.43009e-10 -6.28524e-08 -8.75931e-09 -8.18874e-08)
(-1.97946e-06 -8.70577e-09 2.6043e-09 -6.88804e-08 -6.23268e-09 -8.29619e-08)
(-2.29338e-06 2.35653e-08 -1.85147e-09 -4.01168e-07 -1.01917e-08 -7.24798e-08)
(-3.29068e-07 5.54183e-09 1.4888e-09 -3.56672e-07 -9.43964e-09 -8.15462e-08)
(-3.24378e-07 -7.51832e-09 -2.51943e-10 -3.62076e-07 -8.31497e-09 -8.71649e-08)
(-2.20197e-06 -2.54261e-08 2.25619e-09 -4.20451e-07 -6.52822e-09 -8.9063e-08)
(-2.63665e-06 3.69108e-08 -1.59576e-09 -2.79274e-06 -1.72413e-09 -7.67213e-08)
(-4.08587e-07 1.50299e-08 1.09904e-09 -2.55753e-06 -1.02672e-09 -8.57127e-08)
(-4.06845e-07 -1.6247e-08 -1.19081e-09 -2.5349e-06 -6.54913e-10 -9.13913e-08)
(-2.55724e-06 -3.91262e-08 1.43235e-09 -2.73789e-06 -4.44395e-10 -9.36099e-08)
(-1.6798e-06 3.61893e-08 -1.42481e-09 2.8834e-07 1.06512e-08 -3.87526e-09)
(-1.63009e-07 -6.48125e-08 5.20394e-10 6.31647e-08 1.55705e-08 -5.67034e-09)
(-1.59992e-07 6.42935e-08 5.25759e-10 5.40687e-08 1.71746e-08 -6.41758e-09)
(-1.6039e-06 -3.48555e-08 1.73209e-09 2.60242e-07 1.5476e-08 -6.01495e-09)
(-1.71748e-06 -1.14608e-08 -1.79242e-09 -1.02787e-07 1.02222e-08 -1.89403e-08)
(-2.82379e-07 -2.42515e-08 8.00725e-10 9.36336e-09 1.3517e-08 -2.29578e-08)
(-2.78162e-07 2.2883e-08 1.13315e-09 -3.33213e-10 1.51235e-08 -2.4865e-08)
(-1.63802e-06 1.11542e-08 2.43791e-09 -1.30632e-07 1.50916e-08 -2.43818e-08)
(-1.75383e-06 -1.29032e-08 -1.44994e-09 -7.52783e-08 6.35161e-09 -3.67485e-08)
(-2.89613e-07 -1.39199e-08 1.05827e-09 -1.55582e-08 8.2055e-09 -4.18405e-08)
(-2.85133e-07 1.21469e-08 1.01802e-09 -2.49044e-08 9.77744e-09 -4.46413e-08)
(-1.67166e-06 1.22574e-08 2.17929e-09 -1.02969e-07 1.11734e-08 -4.48143e-08)
(-1.80001e-06 -5.97652e-09 -1.2079e-09 -4.31605e-08 3.26111e-10 -5.21013e-08)
(-2.71402e-07 -8.46031e-09 1.15825e-09 -3.37865e-08 1.59012e-09 -5.77657e-08)
(-2.66592e-07 6.75389e-09 7.52511e-10 -4.28475e-08 3.09988e-09 -6.13e-08)
(-1.71504e-06 5.40861e-09 1.89046e-09 -7.02879e-08 4.99534e-09 -6.23856e-08)
(-1.87976e-06 4.67841e-10 -1.2048e-09 -2.72484e-08 -4.84174e-09 -6.3513e-08)
(-2.63572e-07 -4.16758e-09 1.07213e-09 -4.1031e-08 -3.79208e-09 -6.96087e-08)
(-2.58328e-07 2.64191e-09 5.86529e-10 -4.99817e-08 -2.39765e-09 -7.37688e-08)
(-1.79171e-06 -9.70621e-10 1.79651e-09 -5.38357e-08 -5.13441e-10 -7.57124e-08)
(-2.01942e-06 7.99447e-09 -1.29846e-09 -4.61992e-08 -7.28258e-09 -7.25993e-08)
(-2.77682e-07 -9.53423e-11 9.19529e-10 -5.69605e-08 -6.46881e-09 -7.89886e-08)
(-2.7224e-07 -1.40207e-09 4.39695e-10 -6.56618e-08 -5.28562e-09 -8.36627e-08)
(-1.92849e-06 -8.79872e-09 1.77786e-09 -7.21313e-08 -3.56577e-09 -8.63903e-08)
(-2.24003e-06 2.39862e-08 -1.27435e-09 -3.97736e-07 -6.92547e-09 -8.16315e-08)
(-3.24505e-07 5.8215e-09 7.89324e-10 -3.52343e-07 -6.26362e-09 -8.81041e-08)
(-3.20103e-07 -7.90598e-09 8.76847e-11 -3.57931e-07 -5.44813e-09 -9.31162e-08)
(-2.14949e-06 -2.58801e-08 1.56732e-09 -4.17615e-07 -4.25274e-09 -9.65359e-08)
(-2.58401e-06 3.75255e-08 -1.1981e-09 -2.73912e-06 -1.3605e-09 -9.15275e-08)
(-4.05505e-07 1.53644e-08 4.21426e-10 -2.50281e-06 -8.29115e-10 -9.78816e-08)
(-4.04028e-07 -1.66832e-08 -5.43276e-10 -2.48034e-06 -5.60317e-10 -1.0293e-07)
(-2.50486e-06 -3.98002e-08 1.06034e-09 -2.68489e-06 -4.28932e-10 -1.06708e-07)
(-1.64957e-06 3.52028e-08 -7.60203e-10 2.78883e-07 6.68532e-09 -5.18653e-09)
(-1.60078e-07 -6.46227e-08 2.70226e-10 5.69372e-08 9.21467e-09 -6.25286e-09)
(-1.57339e-07 6.35584e-08 3.54137e-10 4.83484e-08 1.01362e-08 -6.90662e-09)
(-1.5748e-06 -3.42493e-08 9.4859e-10 2.52661e-07 9.4343e-09 -7.03538e-09)
(-1.68699e-06 -1.14324e-08 -9.70647e-10 -1.08806e-07 6.10429e-09 -1.90046e-08)
(-2.77616e-07 -2.42424e-08 4.29271e-10 2.11285e-09 7.90841e-09 -2.16798e-08)
(-2.73754e-07 2.2441e-08 7.45616e-10 -7.20391e-09 8.83882e-09 -2.33588e-08)
(-1.60868e-06 1.09408e-08 1.37061e-09 -1.35613e-07 8.90677e-09 -2.37414e-08)
(-1.72371e-06 -1.27439e-08 -8.19653e-10 -8.24602e-08 4.09015e-09 -3.46411e-08)
(-2.85084e-07 -1.39336e-08 5.59227e-10 -2.35357e-08 5.18944e-09 -3.8268e-08)
(-2.80909e-07 1.1806e-08 7.23162e-10 -3.26889e-08 6.11232e-09 -4.07573e-08)
(-1.6426e-06 1.19697e-08 1.27776e-09 -1.09652e-07 6.90993e-09 -4.17434e-08)
(-1.77032e-06 -5.92596e-09 -7.12026e-10 -5.01421e-08 8.6132e-10 -4.96513e-08)
(-2.67474e-07 -8.52943e-09 5.97368e-10 -4.10403e-08 1.65053e-09 -5.38639e-08)
(-2.62922e-07 6.5424e-09 5.95969e-10 -5.00473e-08 2.54914e-09 -5.70423e-08)
(-1.68629e-06 5.2559e-09 1.14566e-09 -7.71551e-08 3.63534e-09 -5.88375e-08)
(-1.85012e-06 4.2733e-10 -7.16744e-10 -3.25923e-08 -2.19113e-09 -6.2795e-08)
(-2.59958e-07 -4.26394e-09 5.38075e-10 -4.64702e-08 -1.5251e-09 -6.74765e-08)
(-2.5494e-07 2.53284e-09 4.9941e-10 -5.54548e-08 -6.8735e-10 -7.12615e-08)
(-1.76292e-06 -1.00553e-09 1.09405e-09 -5.93201e-08 4.10101e-10 -7.38493e-08)
(-1.98933e-06 8.01273e-09 -7.69966e-10 -4.94036e-08 -3.8556e-09 -7.46756e-08)
(-2.74258e-07 -1.08843e-10 4.43132e-10 -6.0071e-08 -3.32496e-09 -7.97265e-08)
(-2.69016e-07 -1.52449e-09 3.99372e-10 -6.88619e-08 -2.61118e-09 -8.40182e-08)
(-1.89913e-06 -8.86452e-09 1.07377e-09 -7.56352e-08 -1.60754e-09 -8.73206e-08)
(-2.20899e-06 2.42515e-08 -7.65426e-10 -3.96574e-07 -3.80162e-09 -8.69537e-08)
(-3.21646e-07 5.99575e-09 3.53059e-10 -3.5058e-07 -3.36867e-09 -9.21785e-08)
(-3.17421e-07 -8.16708e-09 1.80723e-10 -3.56295e-07 -2.87617e-09 -9.68034e-08)
(-2.11899e-06 -2.61753e-08 9.49103e-10 -4.16859e-07 -2.18002e-09 -1.00724e-07)
(-2.55309e-06 3.79223e-08 -7.42449e-10 -2.70787e-06 -7.9481e-10 -1.00743e-07)
(-4.0353e-07 1.55796e-08 1.07093e-10 -2.47105e-06 -4.62524e-10 -1.05848e-07)
(-4.02221e-07 -1.69731e-08 -1.9055e-10 -2.44869e-06 -2.99958e-10 -1.10501e-07)
(-2.47412e-06 -4.02427e-08 6.58691e-10 -2.65407e-06 -2.28815e-10 -1.14788e-07)
(-1.63574e-06 3.47455e-08 -2.41624e-10 2.74337e-07 2.26713e-09 -5.57848e-09)
(-1.58735e-07 -6.45471e-08 8.24514e-11 5.38743e-08 3.05097e-09 -6.36437e-09)
(-1.56129e-07 6.32432e-08 1.24865e-10 4.55332e-08 3.35141e-09 -6.97443e-09)
(-1.56151e-06 -3.39644e-08 3.04828e-10 2.49021e-07 3.15947e-09 -7.28867e-09)
(-1.67303e-06 -1.1431e-08 -3.10178e-10 -1.11711e-07 2.01739e-09 -1.89756e-08)
(-2.75411e-07 -2.42461e-08 1.33337e-10 -1.31909e-09 2.59405e-09 -2.11182e-08)
(-2.71718e-07 2.22531e-08 2.60148e-10 -1.0448e-08 2.89841e-09 -2.26891e-08)
(-1.59526e-06 1.08573e-08 4.45205e-10 -1.38001e-07 2.93115e-09 -2.33724e-08)
(-1.70988e-06 -1.26843e-08 -2.66994e-10 -8.59026e-08 1.38058e-09 -3.37215e-08)
(-2.82929e-07 -1.39485e-08 1.73352e-10 -2.73247e-08 1.74607e-09 -3.67713e-08)
(-2.78902e-07 1.16602e-08 2.59779e-10 -3.63786e-08 2.04976e-09 -3.91112e-08)
(-1.62927e-06 1.18523e-08 4.22781e-10 -1.12832e-07 2.30673e-09 -4.03528e-08)
(-1.75665e-06 -5.91097e-09 -2.36995e-10 -5.37074e-08 3.72839e-10 -4.83945e-08)
(-2.65547e-07 -8.56814e-09 1.82892e-10 -4.47302e-08 6.417e-10 -5.20549e-08)
(-2.61121e-07 6.44893e-09 2.22722e-10 -5.3706e-08 9.39289e-10 -5.50604e-08)
(-1.67308e-06 5.19302e-09 3.85392e-10 -8.06466e-08 1.29085e-09 -5.70358e-08)
(-1.83647e-06 4.06854e-10 -2.40094e-10 -3.55733e-08 -6.1488e-10 -6.21562e-08)
(-2.58161e-07 -4.31169e-09 1.61963e-10 -4.94989e-08 -3.87244e-10 -6.63133e-08)
(-2.53252e-07 2.47857e-09 1.91409e-10 -5.84977e-08 -1.0847e-10 -6.99142e-08)
(-1.74968e-06 -1.0224e-09 3.69597e-10 -6.23598e-08 2.51075e-10 -7.26351e-08)
(-1.97544e-06 8.02393e-09 -2.57176e-10 -5.1345e-08 -1.18331e-09 -7.53722e-08)
(-2.72554e-07 -1.14678e-10 1.30188e-10 -6.1965e-08 -1.00109e-09 -7.99296e-08)
(-2.67408e-07 -1.59074e-09 1.56022e-10 -7.07996e-08 -7.62909e-10 -8.40333e-08)
(-1.88559e-06 -8.90114e-09 3.61323e-10 -7.77212e-08 -4.32048e-10 -8.74383e-08)
(-2.19461e-06 2.43849e-08 -2.55969e-10 -3.96332e-07 -1.18921e-09 -8.93507e-08)
(-3.2022e-07 6.08195e-09 9.91863e-11 -3.50035e-07 -1.0409e-09 -9.41154e-08)
(-3.1608e-07 -8.3015e-09 8.11783e-11 -3.55813e-07 -8.76322e-10 -9.85509e-08)
(-2.10487e-06 -2.63259e-08 3.1885e-10 -4.16819e-07 -6.46067e-10 -1.0255e-07)
(-2.53872e-06 3.81218e-08 -2.50141e-10 -2.69346e-06 -2.53779e-10 -1.05067e-07)
(-4.02539e-07 1.56868e-08 1.41586e-11 -2.4564e-06 -1.4134e-10 -1.09708e-07)
(-4.0131e-07 -1.71199e-08 -4.23454e-11 -2.4341e-06 -8.6975e-11 -1.14168e-07)
(-2.45984e-06 -4.04668e-08 2.22508e-10 -2.63987e-06 -6.4037e-11 -1.18542e-07)
)
;

boundaryField
{
    interface
    {
        type            calculated;
        value           nonuniform List<symmTensor> 
192
(
(-4.6056e-06 1.89931e-12 2.33765e-11 9.46374e-07 7.12759e-08 -2.72859e-06)
(-4.34508e-06 5.50716e-13 3.52282e-11 -2.09023e-07 -1.75269e-08 -2.68803e-06)
(-4.43056e-06 -1.73341e-12 3.75843e-11 -1.76179e-07 -2.20376e-08 -2.72677e-06)
(-4.55568e-06 -4.27974e-12 3.75585e-11 -1.04918e-07 -1.42188e-08 -2.78834e-06)
(-4.72404e-06 -6.46269e-12 3.64613e-11 -6.40303e-08 -7.32316e-09 -2.87909e-06)
(-4.97504e-06 -1.06857e-11 3.49798e-11 -7.60489e-08 -4.82206e-11 -3.01613e-06)
(-5.31359e-06 -1.36526e-11 3.16949e-11 -5.07032e-07 1.45557e-08 -3.20983e-06)
(-5.69284e-06 -2.90991e-11 2.89888e-11 -3.4618e-06 3.13875e-08 -3.4615e-06)
(-4.00908e-06 1.18958e-12 1.19146e-11 5.37823e-07 -1.00873e-07 -2.94584e-07)
(-3.82897e-06 -1.18799e-13 1.90796e-11 -4.56103e-08 -4.14073e-08 -4.30363e-07)
(-3.88804e-06 -2.25859e-12 2.01673e-11 -6.85463e-08 -3.36137e-08 -4.33685e-07)
(-3.99719e-06 -4.9639e-12 1.98054e-11 -5.82437e-08 -3.12962e-08 -4.24424e-07)
(-4.16315e-06 -7.35652e-12 1.88141e-11 -4.80206e-08 -2.42671e-08 -4.23675e-07)
(-4.42784e-06 -1.21058e-11 1.75944e-11 -6.68349e-08 -1.45007e-08 -4.31769e-07)
(-4.81235e-06 -1.54267e-11 1.54706e-11 -4.50555e-07 -4.61958e-09 -4.54352e-07)
(-5.31441e-06 -3.18534e-11 1.36934e-11 -3.20952e-06 1.50962e-08 -5.07968e-07)
(-3.55464e-06 9.95941e-13 9.57933e-12 3.85002e-07 -1.45285e-08 -1.23497e-09)
(-3.45287e-06 -4.07022e-13 1.52084e-11 -4.9377e-08 -5.37304e-09 -6.44707e-08)
(-3.51359e-06 -2.6355e-12 1.60502e-11 -3.96893e-08 -1.39997e-08 -8.5591e-08)
(-3.61598e-06 -5.61244e-12 1.57482e-11 -2.98714e-08 -2.19891e-08 -8.11044e-08)
(-3.77616e-06 -8.3316e-12 1.49508e-11 -2.80893e-08 -2.18032e-08 -7.35094e-08)
(-4.03831e-06 -1.36827e-11 1.39518e-11 -5.14985e-08 -1.58521e-08 -7.09279e-08)
(-4.42942e-06 -1.75526e-11 1.23372e-11 -4.22773e-07 -1.02409e-08 -7.50522e-08)
(-4.9776e-06 -3.52289e-11 1.0894e-11 -3.01515e-06 2.29483e-09 -7.68403e-08)
(-3.27501e-06 6.89876e-13 6.0671e-12 3.29948e-07 1.09418e-08 6.68342e-09)
(-3.19513e-06 -8.29367e-13 1.00259e-11 -7.53538e-08 1.18807e-08 -2.37357e-08)
(-3.25973e-06 -3.10387e-12 1.05797e-11 -4.88496e-08 1.29259e-09 -4.90652e-08)
(-3.36093e-06 -6.20947e-12 1.02987e-11 -2.60743e-08 -1.00976e-08 -5.75104e-08)
(-3.51854e-06 -9.095e-12 9.68036e-12 -1.97215e-08 -1.54449e-08 -5.78553e-08)
(-3.77766e-06 -1.47277e-11 8.93197e-12 -4.3946e-08 -1.47907e-08 -5.81875e-08)
(-4.16733e-06 -1.88415e-11 7.86513e-12 -4.08691e-07 -1.20675e-08 -6.03752e-08)
(-4.73087e-06 -3.69085e-11 6.9297e-12 -2.87913e-06 -1.22013e-09 -5.87453e-08)
(-3.11163e-06 5.67577e-13 4.51124e-12 3.03896e-07 1.33173e-08 -3.58708e-10)
(-3.03844e-06 -1.0684e-12 7.43448e-12 -9.26195e-08 1.35144e-08 -1.91863e-08)
(-3.10511e-06 -3.43911e-12 7.85119e-12 -6.38156e-08 6.63993e-09 -4.08036e-08)
(-3.20665e-06 -6.67725e-12 7.64402e-12 -3.38034e-08 -2.68507e-09 -5.5088e-08)
(-3.36345e-06 -9.72685e-12 7.1878e-12 -2.15013e-08 -9.24258e-09 -6.25656e-08)
(-3.62057e-06 -1.55993e-11 6.62576e-12 -4.33998e-08 -1.1326e-08 -6.74949e-08)
(-4.00713e-06 -1.99433e-11 5.85963e-12 -4.01168e-07 -1.01917e-08 -7.24798e-08)
(-4.57394e-06 -3.83645e-11 5.16393e-12 -2.79274e-06 -1.72413e-09 -7.67213e-08)
(-3.01469e-06 4.60629e-13 2.82524e-12 2.8834e-07 1.06512e-08 -3.87526e-09)
(-2.94439e-06 -1.26382e-12 4.75701e-12 -1.02787e-07 1.02222e-08 -1.89403e-08)
(-3.01198e-06 -3.70075e-12 5.03366e-12 -7.52783e-08 6.35161e-09 -3.67485e-08)
(-3.11395e-06 -7.01818e-12 4.88722e-12 -4.31605e-08 3.26111e-10 -5.21013e-08)
(-3.27049e-06 -1.01633e-11 4.57949e-12 -2.72484e-08 -4.84174e-09 -6.3513e-08)
(-3.52616e-06 -1.6165e-11 4.20385e-12 -4.61992e-08 -7.28258e-09 -7.25993e-08)
(-3.90965e-06 -2.06322e-11 3.71996e-12 -3.97736e-07 -6.92547e-09 -8.16315e-08)
(-4.47638e-06 -3.92426e-11 3.28475e-12 -2.73912e-06 -1.3605e-09 -9.15275e-08)
(-2.95936e-06 4.16218e-13 1.67265e-12 2.78883e-07 6.68532e-09 -5.18653e-09)
(-2.89054e-06 -1.37004e-12 2.80741e-12 -1.08806e-07 6.10429e-09 -1.90046e-08)
(-2.95853e-06 -3.863e-12 2.97319e-12 -8.24602e-08 4.09015e-09 -3.46411e-08)
(-3.06076e-06 -7.24035e-12 2.88858e-12 -5.01421e-08 8.6132e-10 -4.96513e-08)
(-3.21715e-06 -1.04565e-11 2.71045e-12 -3.25923e-08 -2.19113e-09 -6.2795e-08)
(-3.47184e-06 -1.65476e-11 2.48762e-12 -4.94036e-08 -3.8556e-09 -7.46756e-08)
(-3.85305e-06 -2.11033e-11 2.20955e-12 -3.96574e-07 -3.80162e-09 -8.69537e-08)
(-4.41909e-06 -3.98477e-11 1.94768e-12 -2.70787e-06 -7.9481e-10 -1.00743e-07)
(-2.93404e-06 3.83562e-13 5.08858e-13 2.74337e-07 2.26713e-09 -5.57848e-09)
(-2.86588e-06 -1.43118e-12 8.76004e-13 -1.11711e-07 2.01739e-09 -1.89756e-08)
(-2.934e-06 -3.94644e-12 9.29747e-13 -8.59026e-08 1.38058e-09 -3.37215e-08)
(-3.03634e-06 -7.34725e-12 9.00792e-13 -5.37074e-08 3.72839e-10 -4.83945e-08)
(-3.19267e-06 -1.05941e-11 8.43188e-13 -3.55733e-08 -6.1488e-10 -6.21562e-08)
(-3.44685e-06 -1.67207e-11 7.70689e-13 -5.1345e-08 -1.18331e-09 -7.53722e-08)
(-3.82687e-06 -2.13178e-11 6.85513e-13 -3.96332e-07 -1.18921e-09 -8.93507e-08)
(-4.39246e-06 -4.01199e-11 6.01813e-13 -2.69346e-06 -2.53779e-10 -1.05067e-07)
(-2.57177e-06 7.20594e-08 -3.5025e-11 9.46374e-07 -5.85448e-12 -4.88168e-06)
(-2.53916e-06 -1.40626e-08 -5.46737e-11 -2.09023e-07 -5.61479e-12 -4.61631e-06)
(-2.58012e-06 -1.54856e-08 -5.90799e-11 -1.76179e-07 -3.67823e-12 -4.70269e-06)
(-2.63523e-06 -5.48489e-09 -5.97434e-11 -1.04918e-07 -2.56093e-12 -4.83158e-06)
(-2.7197e-06 9.96537e-10 -5.9384e-11 -6.40303e-08 -2.17731e-12 -5.0035e-06)
(-2.85356e-06 5.87625e-09 -5.91011e-11 -7.60489e-08 -2.57052e-12 -5.25811e-06)
(-3.04311e-06 1.83001e-08 -5.86325e-11 -5.07032e-07 -3.0991e-12 -5.60712e-06)
(-3.28146e-06 3.06535e-08 -6.17822e-11 -3.4618e-06 -4.45668e-12 -6.0111e-06)
(-2.84393e-07 -6.77691e-08 -2.42707e-11 6.17996e-07 -3.04638e-12 -4.51332e-06)
(-4.56796e-07 -2.35189e-08 -4.14125e-11 -3.81854e-08 -3.33644e-12 -4.29317e-06)
(-4.59022e-07 -1.15431e-08 -4.47589e-11 -8.62768e-08 -1.98848e-12 -4.34334e-06)
(-4.32524e-07 -5.11758e-09 -4.50281e-11 -8.71153e-08 -9.2136e-13 -4.45535e-06)
(-4.19779e-07 -1.31159e-09 -4.48215e-11 -7.51963e-08 -2.76549e-13 -4.6268e-06)
(-4.25444e-07 6.20027e-10 -4.49793e-11 -8.68376e-08 -1.30746e-14 -4.89622e-06)
(-4.54866e-07 3.9414e-09 -4.56096e-11 -4.6975e-07 -2.87961e-14 -5.28868e-06)
(-5.15411e-07 1.22671e-08 -5.01536e-11 -3.31845e-06 -5.02967e-13 -5.8026e-06)
(-2.81644e-07 8.88066e-08 -2.58922e-11 6.06516e-07 -1.81163e-12 -4.47085e-06)
(-4.53412e-07 3.98543e-08 -4.40199e-11 -4.95385e-08 -1.98794e-12 -4.24815e-06)
(-4.55991e-07 2.38236e-08 -4.7796e-11 -9.69254e-08 -9.61315e-13 -4.29665e-06)
(-4.29723e-07 1.41498e-08 -4.81331e-11 -9.69006e-08 1.16522e-13 -4.40798e-06)
(-4.17024e-07 7.69889e-09 -4.77705e-11 -8.4544e-08 9.48159e-13 -4.57908e-06)
(-4.229e-07 3.33013e-09 -4.75566e-11 -9.6005e-08 1.66826e-12 -4.84818e-06)
(-4.53609e-07 -2.97217e-09 -4.75651e-11 -4.76262e-07 2.16173e-12 -5.24057e-06)
(-5.16861e-07 -1.29257e-08 -5.14819e-11 -3.29847e-06 2.26631e-12 -5.75877e-06)
(-2.4976e-06 -6.12198e-08 -3.04679e-11 9.02399e-07 -1.28648e-12 -4.7673e-06)
(-2.46234e-06 2.1136e-08 -5.15683e-11 -2.41765e-07 -1.24822e-12 -4.50006e-06)
(-2.50232e-06 2.05925e-08 -5.61846e-11 -2.06074e-07 -2.75743e-13 -4.5825e-06)
(-2.55662e-06 9.27369e-09 -5.66832e-11 -1.32506e-07 8.72355e-13 -4.70937e-06)
(-2.6405e-06 1.68213e-09 -5.61356e-11 -9.02961e-08 1.78955e-12 -4.88011e-06)
(-2.77496e-06 -4.49583e-09 -5.57148e-11 -1.01939e-07 2.78351e-12 -5.13359e-06)
(-2.96957e-06 -1.88673e-08 -5.48991e-11 -5.27976e-07 3.58693e-12 -5.48159e-06)
(-3.22305e-06 -3.23808e-08 -5.86784e-11 -3.41184e-06 4.55609e-12 -5.89572e-06)
(-4.46277e-06 5.93925e-12 1.30179e-11 9.02399e-07 8.02381e-08 -2.67191e-06)
(-4.19822e-06 4.423e-12 2.1445e-11 -2.41765e-07 -1.15736e-08 -2.63264e-06)
(-4.28103e-06 3.43778e-13 2.29931e-11 -2.06074e-07 -1.79108e-08 -2.67067e-06)
(-4.40406e-06 -3.20226e-12 2.30793e-11 -1.32506e-07 -1.10551e-08 -2.7318e-06)
(-4.57116e-06 -5.31231e-12 2.27198e-11 -9.02961e-08 -4.66326e-09 -2.82223e-06)
(-4.82292e-06 -8.70245e-12 2.31099e-11 -1.01939e-07 2.40908e-09 -2.95893e-06)
(-5.16902e-06 -8.90343e-12 2.25045e-11 -5.27976e-07 1.69873e-08 -3.15281e-06)
(-5.57311e-06 -2.44666e-11 2.48164e-11 -3.41184e-06 3.34045e-08 -3.41141e-06)
(-3.84749e-06 2.01947e-12 1.97568e-12 4.92469e-07 -8.34984e-08 -2.97885e-07)
(-3.66591e-06 9.90342e-13 5.52218e-12 -7.94305e-08 -2.91691e-08 -4.39059e-07)
(-3.72176e-06 -1.36592e-12 5.70782e-12 -9.77184e-08 -2.43266e-08 -4.45532e-07)
(-3.82746e-06 -3.85011e-12 5.51296e-12 -8.49534e-08 -2.3747e-08 -4.37913e-07)
(-3.99004e-06 -5.13327e-12 5.49365e-12 -7.35686e-08 -1.77839e-08 -4.38068e-07)
(-4.25239e-06 -8.00047e-12 6.34731e-12 -9.17033e-08 -8.79131e-09 -4.46942e-07)
(-4.6409e-06 -6.58511e-12 7.04209e-12 -4.69157e-07 -9.35191e-12 -4.70938e-07)
(-5.16924e-06 -2.2201e-11 9.42094e-12 -3.15282e-06 1.73549e-08 -5.27194e-07)
(-3.39583e-06 1.00275e-12 3.56179e-12 3.44569e-07 -5.75052e-10 -5.99359e-09)
(-3.29084e-06 -1.51882e-13 7.41753e-12 -8.25237e-08 6.66705e-09 -7.50956e-08)
(-3.34772e-06 -1.95282e-12 8.0753e-12 -6.89909e-08 -3.77698e-09 -9.99449e-08)
(-3.44607e-06 -4.14494e-12 8.08983e-12 -5.67832e-08 -1.31555e-08 -9.77591e-08)