/*--------------------------------*- C++ -*----------------------------------*\
| =========                 |                                                 |
| \\      /  F ield         | OpenFOAM: The Open Source CFD Toolbox           |
|  \\    /   O peration     | Version:  v1912                                 |
|   \\  /    A nd           | Website:  www.openfoam.com                      |
|    \\/     M anipulation  |                                                 |
\*---------------------------------------------------------------------------*/
FoamFile
{
    version     2.0;
    format      ascii;
    class       volScalarField;
    location    "0.32/solid";
    object      T;
}
// * * * * * * * * * * * * * * * * * * * * * * * * * * * * * * * * * * * * * //

dimensions      [0 0 0 1 0 0 0];


internalField   nonuniform List<scalar> 
256
(
291.829
292.388
292.391
291.838
291.66
292.294
292.297
291.67
291.641
292.284
292.287
291.652
291.622
292.275
292.278
291.633
291.592
292.259
292.263
291.603
291.536
292.229
292.232
291.547
291.384
292.12
292.123
291.395
290.505
291.299
291.306
290.525
292.443
292.919
292.918
292.443
292.356
292.903
292.902
292.356
292.346
292.901
292.901
292.346
292.337
292.9
292.9
292.337
292.321
292.899
292.898
292.322
292.289
292.893
292.893
292.291
292.182
292.834
292.834
292.184
291.384
292.12
292.123
291.395
292.528
292.961
292.96
292.528
292.454
292.953
292.952
292.454
292.445
292.952
292.951
292.445
292.437
292.952
292.951
292.437
292.422
292.951
292.95
292.422
292.392
292.947
292.946
292.393
292.289
292.893
292.893
292.291
291.535
292.228
292.232
291.547
292.554
292.964
292.964
292.554
292.484
292.957
292.956
292.483
292.475
292.956
292.955
292.474
292.466
292.956
292.955
292.466
292.451
292.955
292.954
292.452
292.422
292.951
292.95
292.422
292.32
292.899
292.898
292.322
291.591
292.259
292.263
291.603
292.568
292.965
292.964
292.568
292.498
292.958
292.957
292.497
292.49
292.957
292.956
292.489
292.481
292.957
292.956
292.481
292.466
292.956
292.955
292.466
292.436
292.952
292.951
292.437
292.336
292.9
292.9
292.337
291.622
292.275
292.278
291.633
292.575
292.965
292.965
292.575
292.507
292.958
292.957
292.505
292.498
292.958
292.957
292.497
292.49
292.957
292.956
292.489
292.475
292.956
292.955
292.474
292.445
292.952
292.951
292.445
292.345
292.901
292.901
292.346
291.639
292.284
292.287
291.651
292.58
292.966
292.965
292.579
292.511
292.958
292.958
292.51
292.503
292.958
292.957
292.502
292.494
292.957
292.957
292.493
292.479
292.956
292.956
292.479
292.449
292.952
292.952
292.45
292.35
292.902
292.901
292.351
291.649
292.288
292.292
291.661
292.581
292.966
292.965
292.581
292.513
292.959
292.958
292.512
292.505
292.958
292.957
292.504
292.496
292.957
292.957
292.495
292.481
292.956
292.956
292.481
292.451
292.952
292.952
292.451
292.353
292.902
292.901
292.353
291.654
292.291
292.294
291.666
)
;

boundaryField
{
    interface
    {
        type            fixedValue;
        value           nonuniform List<scalar> 
192
(
290.113
289.992
289.943
289.878
289.775
289.605
289.276
288.328
290.902
290.831
290.792
290.738
290.651
290.502
290.199
289.276
291.18
291.118
291.082
291.03
290.946
290.799
290.501
289.603
291.319
291.26
291.225
291.174
291.09
290.945
290.649
289.773
291.4
291.341
291.307
291.256
291.172
291.027
290.734
289.873
291.447
291.39
291.355
291.304
291.221
291.076
290.786
289.935
291.475
291.417
291.383
291.332
291.248
291.104
290.815
289.971
291.487
291.43
291.396
291.344
291.261
291.117
290.829
289.988
290.003
289.882
289.833
289.767
289.664
289.492
289.159
288.201
290.654
290.579
290.54
290.485
290.398
290.248
289.941
288.988
290.675
290.602
290.563
290.509
290.422
290.273
289.966
289.017
290.073
289.956
289.91
289.846
289.744
289.573
289.241
288.29
290.195
290.079
290.033
289.969
289.867
289.697
289.366
288.42
290.98
290.911
290.874
290.822
290.737
290.589
290.286
289.366
291.257
291.197
291.163
291.113
291.031
290.887
290.589
289.697
291.395
291.337
291.304
291.255
291.174
291.031
290.737
289.867
291.474
291.417
291.385
291.336
291.255
291.113
290.822
289.969
291.521
291.465
291.432
291.384
291.303
291.161
290.873
290.031
291.547
291.492
291.46
291.411
291.33
291.189
290.902
290.067
291.56
291.504
291.472
291.423
291.343
291.202
290.916
290.084
288.201
289.158
289.49
289.661
289.762
289.824
289.861
289.878
288.988
289.94
290.247
290.396
290.481
290.533
290.563
290.577
289.016
289.965
290.272
290.421
290.507
290.558
290.588
290.602
288.29
289.24
289.573
289.743
289.844
289.907
289.943
289.96
)
;
    }
    symmetry
    {
        type            symmetry;
    }
    bottom
    {
        type            fixedValue;
        value           uniform 293;
    }
}


// ************************************************************************* //
