/*--------------------------------*- C++ -*----------------------------------*\
| =========                 |                                                 |
| \\      /  F ield         | OpenFOAM: The Open Source CFD Toolbox           |
|  \\    /   O peration     | Version:  v1912                                 |
|   \\  /    A nd           | Website:  www.openfoam.com                      |
|    \\/     M anipulation  |                                                 |
\*---------------------------------------------------------------------------*/
FoamFile
{
    version     2.0;
    format      ascii;
    class       volVectorField;
    location    "0.32/solid";
    object      U;
}
// * * * * * * * * * * * * * * * * * * * * * * * * * * * * * * * * * * * * * //

dimensions      [0 1 -1 0 0 0 0];


internalField   nonuniform List<vector> 
256
(
(4.72566e-08 4.35041e-08 5.1756e-08)
(8.96201e-09 2.21656e-08 4.26865e-08)
(-9.74144e-09 2.17759e-08 4.23431e-08)
(-4.64702e-08 4.18138e-08 5.05937e-08)
(7.73344e-08 2.50631e-08 1.07257e-07)
(1.8147e-08 1.11689e-08 9.55235e-08)
(-1.93185e-08 1.09003e-08 9.49217e-08)
(-7.64702e-08 2.42646e-08 1.05296e-07)
(7.985e-08 -7.246e-09 1.43699e-07)
(1.91006e-08 -1.23813e-08 1.31831e-07)
(-2.07077e-08 -1.24042e-08 1.31115e-07)
(-7.94403e-08 -7.17892e-09 1.41384e-07)
(7.63764e-08 -3.98489e-08 1.75667e-07)
(1.71408e-08 -4.2983e-08 1.6274e-07)
(-1.94865e-08 -4.27618e-08 1.61949e-07)
(-7.6706e-08 -3.90696e-08 1.73118e-07)
(7.57734e-08 -7.42342e-08 2.08766e-07)
(1.61457e-08 -8.03665e-08 1.9399e-07)
(-1.95244e-08 -7.99291e-08 1.9314e-07)
(-7.71177e-08 -7.2836e-08 2.06034e-07)
(8.5063e-08 -1.14662e-07 2.46888e-07)
(1.92639e-08 -1.25293e-07 2.29988e-07)
(-2.39576e-08 -1.24667e-07 2.29085e-07)
(-8.77026e-08 -1.12717e-07 2.44009e-07)
(1.13355e-07 -1.74769e-07 2.93774e-07)
(2.8984e-08 -1.82201e-07 2.75753e-07)
(-3.53291e-08 -1.81407e-07 2.74783e-07)
(-1.17536e-07 -1.72322e-07 2.90738e-07)
(1.57686e-07 -2.83647e-07 3.42181e-07)
(3.98242e-08 -2.67401e-07 3.26083e-07)
(-4.83353e-08 -2.66244e-07 3.25002e-07)
(-1.63591e-07 -2.80127e-07 3.38905e-07)
(2.27106e-08 1.15511e-08 1.65354e-08)
(3.8723e-09 -2.62602e-09 2.05179e-08)
(-4.16949e-09 -2.78544e-09 2.03876e-08)
(-2.17691e-08 1.04604e-08 1.61194e-08)
(3.85553e-08 -8.43043e-09 5.52759e-08)
(8.68766e-09 -1.81562e-08 6.27942e-08)
(-8.88176e-09 -1.82765e-08 6.24511e-08)
(-3.721e-08 -8.8986e-09 5.4249e-08)
(3.89477e-08 -3.57569e-08 9.01475e-08)
(8.84955e-09 -3.95271e-08 9.87775e-08)
(-9.19156e-09 -3.94841e-08 9.83166e-08)
(-3.78047e-08 -3.55745e-08 8.87722e-08)
(3.52842e-08 -6.57145e-08 1.21556e-07)
(7.02388e-09 -6.834e-08 1.30129e-07)
(-7.90449e-09 -6.80948e-08 1.29598e-07)
(-3.4689e-08 -6.49182e-08 1.19957e-07)
(3.40542e-08 -9.84927e-08 1.5281e-07)
(6.06997e-09 -1.04228e-07 1.60887e-07)
(-7.83378e-09 -1.03787e-07 1.60301e-07)
(-3.43176e-08 -9.71263e-08 1.51031e-07)
(4.21065e-08 -1.34974e-07 1.85907e-07)
(8.99257e-09 -1.45323e-07 1.93468e-07)
(-1.19535e-08 -1.44708e-07 1.92829e-07)
(-4.35268e-08 -1.33093e-07 1.8396e-07)
(6.90506e-08 -1.81123e-07 2.17844e-07)
(1.83723e-08 -1.88301e-07 2.25245e-07)
(-2.28803e-08 -1.87541e-07 2.2455e-07)
(-7.18729e-08 -1.78786e-07 2.15727e-07)
(1.13243e-07 -2.56916e-07 2.33275e-07)
(2.8869e-08 -2.38771e-07 2.40936e-07)
(-3.54336e-08 -2.37718e-07 2.40203e-07)
(-1.17632e-07 -2.53621e-07 2.31035e-07)
(8.05412e-09 1.1033e-09 8.88381e-09)
(-4.68427e-10 -8.26954e-09 1.43885e-08)
(3.35486e-10 -8.39218e-09 1.42907e-08)
(-7.02774e-09 6.57277e-11 8.59717e-09)
(1.342e-08 -2.46568e-08 3.7356e-08)
(1.98813e-10 -3.09599e-08 4.71998e-08)
(5.9607e-11 -3.10462e-08 4.69434e-08)
(-1.17534e-08 -2.51011e-08 3.66255e-08)
(1.20259e-08 -5.27328e-08 6.81233e-08)
(-5.00548e-10 -5.52999e-08 7.91344e-08)
(8.55429e-10 -5.52486e-08 7.87729e-08)
(-1.0334e-08 -5.25891e-08 6.70861e-08)
(8.6141e-09 -8.08416e-08 9.76881e-08)
(-2.19239e-09 -8.32802e-08 1.08777e-07)
(2.20877e-09 -8.30489e-08 1.08346e-07)
(-7.27703e-09 -8.01314e-08 9.64327e-08)
(7.53806e-09 -1.09396e-07 1.26025e-07)
(-3.05317e-09 -1.15172e-07 1.3692e-07)
(2.34872e-09 -1.14759e-07 1.36435e-07)
(-6.89641e-09 -1.08143e-07 1.24593e-07)
(1.5412e-08 -1.37882e-07 1.52284e-07)
(-2.63611e-10 -1.48244e-07 1.63017e-07)
(-1.50382e-09 -1.47668e-07 1.62483e-07)
(-1.57822e-08 -1.36136e-07 1.50693e-07)
(4.17835e-08 -1.70957e-07 1.71327e-07)
(8.77742e-09 -1.78289e-07 1.82064e-07)
(-1.19799e-08 -1.77579e-07 1.81487e-07)
(-4.34197e-08 -1.68776e-07 1.69595e-07)
(8.46356e-08 -2.31743e-07 1.73114e-07)
(1.89235e-08 -2.1472e-07 1.84146e-07)
(-2.40936e-08 -2.13723e-07 1.8355e-07)
(-8.77134e-08 -2.28575e-07 1.71303e-07)
(2.82599e-09 -2.16622e-09 7.78908e-09)
(-2.01877e-09 -9.06606e-09 1.11358e-08)
(1.95029e-09 -9.19528e-09 1.10625e-08)
(-1.73674e-09 -3.24824e-09 7.58094e-09)
(3.87949e-09 -3.06219e-08 3.01669e-08)
(-3.16854e-09 -3.50993e-08 3.61516e-08)
(3.65569e-09 -3.52024e-08 3.59649e-08)
(-1.99348e-09 -3.11522e-08 2.96445e-08)
(1.73929e-09 -5.98894e-08 5.53994e-08)
(-4.25817e-09 -6.18282e-08 6.20446e-08)
(5.02267e-09 -6.18016e-08 6.17762e-08)
(3.45181e-10 -5.98533e-08 5.46399e-08)
(-1.16654e-09 -8.66845e-08 8.05237e-08)
(-5.73977e-09 -8.91387e-08 8.71239e-08)
(6.33812e-09 -8.89398e-08 8.67951e-08)
(3.06313e-09 -8.60975e-08 7.95776e-08)
(-1.58643e-09 -1.11244e-07 1.03843e-07)
(-6.34408e-09 -1.17194e-07 1.10222e-07)
(6.37389e-09 -1.16819e-07 1.09845e-07)
(2.93843e-09 -1.10124e-07 1.0274e-07)
(6.70827e-09 -1.33493e-07 1.2312e-07)
(-3.46478e-09 -1.43994e-07 1.29318e-07)
(2.56163e-09 -1.43459e-07 1.28898e-07)
(-6.23374e-09 -1.31885e-07 1.2188e-07)
(3.28011e-08 -1.59816e-07 1.34275e-07)
(5.37456e-09 -1.67604e-07 1.40464e-07)
(-7.60689e-09 -1.66936e-07 1.40011e-07)
(-3.34734e-08 -1.57768e-07 1.32922e-07)
(7.43453e-08 -2.15619e-07 1.3279e-07)
(1.52545e-08 -2.00629e-07 1.39394e-07)
(-1.93784e-08 -1.99665e-07 1.38929e-07)
(-7.63587e-08 -2.12539e-07 1.31379e-07)
(1.56801e-09 -3.25391e-09 6.84951e-09)
(-2.16415e-09 -9.09884e-09 8.42561e-09)
(2.1292e-09 -9.23706e-09 8.37409e-09)
(-4.36543e-10 -4.37552e-09 6.70567e-09)
(1.72845e-09 -3.20567e-08 2.42801e-08)
(-3.62729e-09 -3.58262e-08 2.69964e-08)
(4.24781e-09 -3.59541e-08 2.68661e-08)
(2.99471e-10 -3.26777e-08 2.392e-08)
(-3.27306e-10 -6.13453e-08 4.3659e-08)
(-4.6982e-09 -6.31202e-08 4.65726e-08)
(5.72136e-09 -6.31257e-08 4.63833e-08)
(2.67419e-09 -6.14216e-08 4.3129e-08)
(-2.68017e-09 -8.69442e-08 6.30402e-08)
(-5.94456e-09 -8.95346e-08 6.58103e-08)
(6.93431e-09 -8.93711e-08 6.55742e-08)
(4.96791e-09 -8.64778e-08 6.2367e-08)
(-2.44576e-09 -1.08846e-07 8.05439e-08)
(-6.28388e-09 -1.14989e-07 8.30892e-08)
(6.83095e-09 -1.14651e-07 8.28135e-08)
(4.3131e-09 -1.07849e-07 7.97451e-08)
(6.27626e-09 -1.27772e-07 9.397e-08)
(-3.26793e-09 -1.38421e-07 9.63466e-08)
(2.9929e-09 -1.37923e-07 9.6037e-08)
(-5.17373e-09 -1.26285e-07 9.30612e-08)
(3.21376e-08 -1.51533e-07 1.0075e-07)
(5.4492e-09 -1.59731e-07 1.03128e-07)
(-6.96262e-09 -1.59097e-07 1.02793e-07)
(-3.20836e-08 -1.49596e-07 9.9754e-08)
(7.27322e-08 -2.05486e-07 9.90945e-08)
(1.51632e-08 -1.92124e-07 1.01832e-07)
(-1.85008e-08 -1.91188e-07 1.01489e-07)
(-7.39367e-08 -2.02488e-07 9.80588e-08)
(1.43934e-09 -3.56468e-09 5.33144e-09)
(-1.97626e-09 -9.00049e-09 6.00297e-09)
(1.95993e-09 -9.14524e-09 5.96944e-09)
(-2.81357e-10 -4.71349e-09 5.2389e-09)
(1.79992e-09 -3.18037e-08 1.79081e-08)
(-3.2749e-09 -3.53947e-08 1.89591e-08)
(3.97548e-09 -3.55427e-08 1.8874e-08)
(3.16726e-10 -3.24927e-08 1.76755e-08)
(1.28246e-10 -6.04124e-08 3.15293e-08)
(-4.17682e-09 -6.22441e-08 3.25533e-08)
(5.36244e-09 -6.22766e-08 3.24288e-08)
(2.3867e-09 -6.05779e-08 3.11837e-08)
(-1.75298e-09 -8.49636e-08 4.50086e-08)
(-5.2199e-09 -8.77195e-08 4.58743e-08)
(6.46532e-09 -8.75856e-08 4.57172e-08)
(4.29935e-09 -8.45944e-08 4.45638e-08)
(-1.05186e-09 -1.05399e-07 5.69258e-08)
(-5.36563e-09 -1.11699e-07 5.76164e-08)
(6.26151e-09 -1.11392e-07 5.74307e-08)
(3.26975e-09 -1.04499e-07 5.63909e-08)
(7.93749e-09 -1.22938e-07 6.56991e-08)
(-2.25301e-09 -1.33688e-07 6.62746e-08)
(2.41159e-09 -1.33219e-07 6.60641e-08)
(-6.39875e-09 -1.21547e-07 6.50842e-08)
(3.35986e-08 -1.45939e-07 6.98563e-08)
(6.3837e-09 -1.54378e-07 7.04497e-08)
(-7.39218e-09 -1.53772e-07 7.02213e-08)
(-3.30327e-08 -1.44092e-07 6.91786e-08)
(7.35539e-08 -1.99001e-07 6.86647e-08)
(1.5996e-08 -1.8662e-07 6.9507e-08)
(-1.87727e-08 -1.85707e-07 6.92748e-08)
(-7.41817e-08 -1.96075e-07 6.79629e-08)
(1.49636e-09 -3.59332e-09 3.36583e-09)
(-1.81958e-09 -8.87101e-09 3.63688e-09)
(1.81292e-09 -9.01992e-09 3.61815e-09)
(-3.23e-10 -4.7592e-09 3.31453e-09)
(2.15118e-09 -3.11616e-08 1.09722e-08)
(-2.93936e-09 -3.47484e-08 1.13409e-08)
(3.68509e-09 -3.49095e-08 1.12931e-08)
(1.72249e-11 -3.18938e-08 1.08424e-08)
(8.12153e-10 -5.90353e-08 1.90336e-08)
(-3.69185e-09 -6.09677e-08 1.93326e-08)
(4.97232e-09 -6.10187e-08 1.92623e-08)
(1.80255e-09 -5.92599e-08 1.88394e-08)
(-7.46956e-10 -8.28307e-08 2.69122e-08)
(-4.59566e-09 -8.57174e-08 2.7099e-08)
(5.99435e-09 -8.56042e-08 2.70096e-08)
(3.44997e-09 -8.25275e-08 2.66601e-08)
(2.31415e-10 -1.02545e-07 3.37792e-08)
(-4.62492e-09 -1.08948e-07 3.3861e-08)
(5.73453e-09 -1.08662e-07 3.37543e-08)
(2.20286e-09 -1.01714e-07 3.34733e-08)
(9.35579e-09 -1.19606e-07 3.87366e-08)
(-1.46003e-09 -1.30407e-07 3.87574e-08)
(1.88901e-09 -1.29959e-07 3.86358e-08)
(-7.54354e-09 -1.18281e-07 3.83821e-08)
(3.48716e-08 -1.42452e-07 4.10296e-08)
(7.126e-09 -1.50998e-07 4.10713e-08)
(-7.81491e-09 -1.50412e-07 4.09389e-08)
(-3.39806e-08 -1.40669e-07 4.06375e-08)
(7.44275e-08 -1.95055e-07 4.03441e-08)
(1.66757e-08 -1.83168e-07 4.05269e-08)
(-1.90923e-08 -1.82273e-07 4.03931e-08)
(-7.46849e-08 -1.92185e-07 3.99393e-08)
(1.53343e-09 -3.56245e-09 1.14863e-09)
(-1.74737e-09 -8.78258e-09 1.22245e-09)
(1.74477e-09 -8.93356e-09 1.21645e-09)
(-3.52955e-10 -4.73667e-09 1.13224e-09)
(2.33832e-09 -3.07236e-08 3.69406e-09)
(-2.77876e-09 -3.43307e-08 3.78424e-09)
(3.54488e-09 -3.44982e-08 3.76888e-09)
(-1.45892e-10 -3.1477e-08 3.65241e-09)
(1.16867e-09 -5.81638e-08 6.36045e-09)
(-3.45488e-09 -6.01591e-08 6.42065e-09)
(4.77921e-09 -6.02193e-08 6.39794e-09)
(1.49279e-09 -5.84177e-08 6.29787e-09)
(-2.32803e-10 -8.15714e-08 8.94687e-09)
(-4.29046e-09 -8.45269e-08 8.9676e-09)
(5.76119e-09 -8.44242e-08 8.93858e-09)
(3.01006e-09 -8.13014e-08 8.86526e-09)
(8.71851e-10 -1.00995e-07 1.11854e-08)
(-4.26625e-09 -1.07447e-07 1.11716e-08)
(5.47763e-09 -1.07172e-07 1.11369e-08)
(1.66607e-09 -1.00198e-07 1.10859e-08)
(1.00504e-08 -1.17922e-07 1.27892e-08)
(-1.07937e-09 -1.28742e-07 1.2757e-08)
(1.63853e-09 -1.28306e-07 1.27172e-08)
(-8.10583e-09 -1.16631e-07 1.26735e-08)
(3.54909e-08 -1.40762e-07 1.35256e-08)
(7.48212e-09 -1.49344e-07 1.35022e-08)
(-8.01559e-09 -1.48769e-07 1.34589e-08)
(-3.44413e-08 -1.39012e-07 1.33973e-08)
(7.48528e-08 -1.93173e-07 1.33034e-08)
(1.70009e-08 -1.81481e-07 1.33255e-08)
(-1.92406e-08 -1.80596e-07 1.32818e-08)
(-7.4928e-08 -1.90332e-07 1.31713e-08)
)
;

boundaryField
{
    interface
    {
        type            calculated;
        value           nonuniform List<vector> 
192
(
(4.30672e-08 7.46518e-08 4.50877e-08)
(6.94817e-08 3.32114e-08 9.62886e-08)
(7.21717e-08 -7.48565e-09 1.32044e-07)
(6.93308e-08 -4.08682e-08 1.64126e-07)
(6.8824e-08 -7.20626e-08 1.97324e-07)
(7.68224e-08 -1.05267e-07 2.35387e-07)
(1.0152e-07 -1.56613e-07 2.8201e-07)
(1.58176e-07 -2.71578e-07 3.3005e-07)
(6.39095e-09 2.68676e-08 6.73529e-09)
(1.97082e-08 -4.37128e-09 3.92978e-08)
(1.96282e-08 -3.65748e-08 7.31919e-08)
(1.57449e-08 -6.6938e-08 1.04615e-07)
(1.385e-08 -9.67872e-08 1.35752e-07)
(1.99583e-08 -1.26225e-07 1.68495e-07)
(4.28889e-08 -1.63339e-07 1.99952e-07)
(1.0147e-07 -2.4521e-07 2.15012e-07)
(-8.22821e-09 6.47178e-09 3.91307e-09)
(-3.28963e-09 -2.3664e-08 2.86875e-08)
(-4.98859e-09 -5.39344e-08 5.88216e-08)
(-8.64002e-09 -8.19637e-08 8.85758e-08)
(-1.02161e-08 -1.07696e-07 1.17115e-07)
(-3.7541e-09 -1.2932e-07 1.43435e-07)
(1.96959e-08 -1.53652e-07 1.62264e-07)
(7.65516e-08 -2.20297e-07 1.6339e-07)
(-1.35167e-08 -4.89883e-10 6.16783e-09)
(-1.20994e-08 -3.08936e-08 2.72443e-08)
(-1.43953e-08 -6.1151e-08 5.23113e-08)
(-1.74671e-08 -8.7516e-08 7.77004e-08)
(-1.82358e-08 -1.09275e-07 1.01347e-07)
(-1.10349e-08 -1.24896e-07 1.20836e-07)
(1.27143e-08 -1.42907e-07 1.31863e-07)
(6.77124e-08 -2.0427e-07 1.29814e-07)
(-1.4964e-08 -2.42982e-09 6.50307e-09)
(-1.42397e-08 -3.25307e-08 2.37604e-08)
(-1.63597e-08 -6.24476e-08 4.32565e-08)
(-1.87884e-08 -8.74739e-08 6.28938e-08)
(-1.87798e-08 -1.06607e-07 8.06777e-08)
(-1.09714e-08 -1.19127e-07 9.42775e-08)
(1.28128e-08 -1.3492e-07 1.0095e-07)
(6.63309e-08 -1.94182e-07 9.88968e-08)
(-1.51765e-08 -2.75488e-09 5.31367e-09)
(-1.42053e-08 -3.21316e-08 1.8014e-08)
(-1.58866e-08 -6.13007e-08 3.18143e-08)
(-1.77703e-08 -8.52587e-08 4.5492e-08)
(-1.72074e-08 -1.02976e-07 5.75952e-08)
(-9.03309e-09 -1.14276e-07 6.64691e-08)
(1.46673e-08 -1.29536e-07 7.05399e-08)
(6.71505e-08 -1.87747e-07 6.90887e-08)
(-1.51338e-08 -2.68145e-09 3.38943e-09)
(-1.38545e-08 -3.13327e-08 1.11068e-08)
(-1.51715e-08 -5.97599e-08 1.92937e-08)
(-1.66851e-08 -8.2976e-08 2.72923e-08)
(-1.57919e-08 -1.0002e-07 3.42602e-08)
(-7.43304e-09 -1.10946e-07 3.92649e-08)
(1.61698e-08 -1.26185e-07 4.15028e-08)
(6.80036e-08 -1.83852e-07 4.06689e-08)
(-1.50921e-08 -2.59453e-09 1.15793e-09)
(-1.36589e-08 -3.08149e-08 3.74087e-09)
(-1.47918e-08 -5.88067e-08 6.44961e-09)
(-1.61248e-08 -8.16457e-08 9.07544e-09)
(-1.50809e-08 -9.84246e-08 1.13455e-08)
(-6.64788e-09 -1.09268e-07 1.29629e-08)
(1.68962e-08 -1.24562e-07 1.36805e-08)
(6.84163e-08 -1.82002e-07 1.34098e-08)
(4.83219e-08 8.32575e-08 3.99317e-08)
(7.98838e-08 4.80491e-08 9.09683e-08)
(8.27092e-08 9.85669e-09 1.27677e-07)
(7.89141e-08 -2.3582e-08 1.6066e-07)
(7.77997e-08 -5.64287e-08 1.94167e-07)
(8.65874e-08 -9.34101e-08 2.30956e-07)
(1.14731e-07 -1.50945e-07 2.73696e-07)
(1.59727e-07 -2.71966e-07 3.33151e-07)
(6.6073e-09 5.67183e-08 2.16672e-08)
(1.50614e-08 3.34553e-08 6.92513e-08)
(1.59533e-08 4.42296e-09 1.04423e-07)
(1.37098e-08 -2.74431e-08 1.35122e-07)
(1.22378e-08 -6.35543e-08 1.65624e-07)
(1.48117e-08 -1.04852e-07 1.99044e-07)
(2.42352e-08 -1.58177e-07 2.39647e-07)
(3.55287e-08 -2.55396e-07 3.04384e-07)
(-7.76628e-09 5.60922e-08 2.07641e-08)
(-1.68773e-08 3.30935e-08 6.82123e-08)
(-1.8321e-08 4.35272e-09 1.03236e-07)
(-1.68934e-08 -2.72556e-08 1.33824e-07)
(-1.6515e-08 -6.3145e-08 1.64235e-07)
(-2.04538e-08 -1.04257e-07 1.97564e-07)
(-3.15842e-08 -1.57428e-07 2.38052e-07)
(-4.51307e-08 -2.54259e-07 3.02566e-07)
(-4.78403e-08 8.07861e-08 3.69793e-08)
(-7.95594e-08 4.69625e-08 8.75748e-08)
(-8.29598e-08 9.77681e-09 1.23811e-07)
(-7.99889e-08 -2.29071e-08 1.56453e-07)
(-7.9956e-08 -5.51133e-08 1.89699e-07)
(-9.00933e-08 -9.15412e-08 2.26267e-07)
(-1.1983e-07 -1.48598e-07 2.68792e-07)
(-1.66618e-07 -2.68489e-07 3.27902e-07)
(-3.63764e-08 7.2549e-08 4.37322e-08)
(-6.26587e-08 3.25074e-08 9.39344e-08)
(-6.56602e-08 -7.11962e-09 1.29214e-07)
(-6.34174e-08 -3.965e-08 1.60971e-07)
(-6.37858e-08 -7.00866e-08 1.93913e-07)
(-7.28987e-08 -1.02612e-07 2.31768e-07)
(-9.87695e-08 -1.53349e-07 2.78174e-07)
(-1.55659e-07 -2.67088e-07 3.259e-07)
(-6.5435e-10 2.52052e-08 6.25804e-09)
(-1.36992e-08 -4.8895e-09 3.80688e-08)
(-1.37275e-08 -3.62045e-08 7.14946e-08)
(-1.0272e-08 -6.57897e-08 1.02598e-07)
(-9.10318e-09 -9.49165e-08 1.33475e-07)
(-1.61914e-08 -1.23704e-07 1.65979e-07)
(-4.01833e-08 -1.60259e-07 1.97197e-07)
(-9.88676e-08 -2.41017e-07 2.12065e-07)
(1.37355e-08 4.76103e-09 3.58839e-09)
(9.27995e-09 -2.42744e-08 2.78205e-08)
(1.10865e-08 -5.37079e-08 5.75477e-08)
(1.45026e-08 -8.09905e-08 8.69938e-08)
(1.55325e-08 -1.06016e-07 1.15278e-07)
(8.27131e-09 -1.27004e-07 1.41369e-07)
(-1.60624e-08 -1.50792e-07 1.59994e-07)
(-7.29227e-08 -2.16283e-07 1.60984e-07)
(1.89389e-08 -2.3157e-09 5.93266e-09)
(1.81445e-08 -3.16725e-08 2.66306e-08)
(2.07137e-08 -6.11172e-08 5.13872e-08)
(2.37198e-08 -8.67456e-08 7.65158e-08)
(2.41099e-08 -1.07799e-07 9.99372e-08)
(1.62762e-08 -1.22782e-07 1.19227e-07)
(-8.1971e-09 -1.40236e-07 1.30087e-07)
(-6.30973e-08 -2.00387e-07 1.27935e-07)
(2.03509e-08 -4.34128e-09 6.34146e-09)
(2.03413e-08 -3.34553e-08 2.3342e-08)
(2.28521e-08 -6.25885e-08 4.26182e-08)
(2.53477e-08 -8.68872e-08 6.20575e-08)
(2.50976e-08 -1.05313e-07 7.96619e-08)
(1.67915e-08 -1.17185e-07 9.31021e-08)
(-7.5907e-09 -1.32405e-07 9.96435e-08)
(-6.09232e-08 -1.90417e-07 9.75143e-08)
(2.05544e-08 -4.72237e-09 5.21028e-09)
(2.03566e-08 -3.31596e-08 1.77457e-08)
(2.25084e-08 -6.15733e-08 3.14013e-08)
(2.45536e-08 -8.48148e-08 4.4943e-08)
(2.38504e-08 -1.01824e-07 5.69182e-08)
(1.52784e-08 -1.1247e-07 6.56764e-08)
(-8.92716e-09 -1.27145e-07 6.96527e-08)
(-6.11567e-08 -1.84084e-07 6.81498e-08)
(2.05138e-08 -4.68281e-09 3.33229e-09)
(2.00438e-08 -3.24252e-08 1.09578e-08)
(2.18801e-08 -6.01179e-08 1.90627e-08)
(2.36156e-08 -8.26272e-08 2.69822e-08)
(2.26478e-08 -9.89647e-08 3.38741e-08)
(1.39568e-08 -1.09234e-07 3.88088e-08)
(-1.00898e-08 -1.23882e-07 4.09896e-08)
(-6.16229e-08 -1.80266e-07 4.01258e-08)
(2.04757e-08 -4.61202e-09 1.13969e-09)
(1.98684e-08 -3.19384e-08 3.69313e-09)
(2.15433e-08 -5.92064e-08 6.37526e-09)
(2.31274e-08 -8.13444e-08 8.97519e-09)
(2.20413e-08 -9.74184e-08 1.12201e-08)
(1.33087e-08 -1.07603e-07 1.2814e-08)
(-1.06484e-08 -1.22306e-07 1.35125e-08)
(-6.18432e-08 -1.78456e-07 1.3232e-08)
(1.59659e-07 -2.74696e-07 3.41339e-07)
(1.14559e-07 -2.36951e-07 2.20299e-07)
(8.61021e-08 -2.16013e-07 1.6279e-07)
(7.62713e-08 -2.0144e-07 1.26225e-07)
(7.50428e-08 -1.91374e-07 9.494e-08)
(7.60848e-08 -1.84671e-07 6.60573e-08)
(7.70563e-08 -1.8055e-07 3.88871e-08)
(7.75145e-08 -1.78581e-07 1.28328e-08)
(3.54729e-08 -2.45775e-07 3.24928e-07)
(2.40685e-08 -2.02785e-07 2.27766e-07)
(1.44173e-08 -1.84001e-07 1.74611e-07)
(1.12647e-08 -1.72683e-07 1.33745e-07)
(1.15874e-08 -1.65208e-07 9.83294e-08)
(1.26713e-08 -1.60066e-07 6.7268e-08)
(1.34788e-08 -1.56729e-07 3.92422e-08)
(1.38553e-08 -1.55073e-07 1.29038e-08)
(-4.51544e-08 -2.43865e-07 3.23864e-07)
(-3.1722e-08 -2.01082e-07 2.27072e-07)
(-2.06311e-08 -1.82383e-07 1.74037e-07)
(-1.6402e-08 -1.71116e-07 1.33295e-07)
(-1.59113e-08 -1.63673e-07 9.8e-08)
(-1.64103e-08 -1.58554e-07 6.70463e-08)
(-1.68395e-08 -1.55233e-07 3.91153e-08)
(-1.70293e-08 -1.53584e-07 1.28625e-08)
(-1.66641e-07 -2.6915e-07 3.38098e-07)
(-1.19959e-07 -2.31709e-07 2.18147e-07)
(-9.01475e-08 -2.1091e-07 1.61032e-07)
(-7.92174e-08 -1.96438e-07 1.24858e-07)
(-7.71484e-08 -1.86451e-07 9.39429e-08)
(-7.75868e-08 -1.7981e-07 6.53873e-08)
(-7.8168e-08 -1.75732e-07 3.85035e-08)
(-7.84334e-08 -1.73787e-07 1.2708e-08)
)
;
    }
    symmetry
    {
        type            symmetry;
    }
    bottom
    {
        type            calculated;
        value           uniform (0 0 0);
    }
}


// ************************************************************************* //
