/*--------------------------------*- C++ -*----------------------------------*\
| =========                 |                                                 |
| \\      /  F ield         | OpenFOAM: The Open Source CFD Toolbox           |
|  \\    /   O peration     | Version:  v1912                                 |
|   \\  /    A nd           | Website:  www.openfoam.com                      |
|    \\/     M anipulation  |                                                 |
\*---------------------------------------------------------------------------*/
FoamFile
{
    version     2.0;
    format      ascii;
    class       volVectorField;
    location    "0.73/fluid";
    object      cellMotionU;
}
// * * * * * * * * * * * * * * * * * * * * * * * * * * * * * * * * * * * * * //

dimensions      [0 1 -1 0 0 0 0];


internalField   nonuniform List<vector> 
14592
(
(1.32891e-10 -3.03361e-10 2.31592e-10)
(3.71209e-10 -8.48144e-10 6.55639e-10)
(5.923e-10 -1.3543e-09 1.07319e-09)
(8.04977e-10 -1.83953e-09 1.51185e-09)
(1.01838e-09 -2.31636e-09 1.99785e-09)
(1.24101e-09 -2.78941e-09 2.55499e-09)
(1.48302e-09 -3.25533e-09 3.20719e-09)
(1.75757e-09 -3.69922e-09 3.97856e-09)
(2.08403e-09 -4.0888e-09 4.89404e-09)
(2.49417e-09 -4.36267e-09 5.97976e-09)
(3.0477e-09 -4.40662e-09 7.26724e-09)
(3.87079e-09 -3.99835e-09 8.81049e-09)
(5.25248e-09 -2.66099e-09 1.07481e-08)
(7.91965e-09 7.81244e-10 1.35062e-08)
(1.35163e-08 9.22193e-09 1.8206e-08)
(2.31978e-08 2.58422e-08 2.56032e-08)
(3.95226e-10 -9.00775e-10 6.88422e-10)
(1.10402e-09 -2.51876e-09 1.94895e-09)
(1.76076e-09 -4.02286e-09 3.18897e-09)
(2.39258e-09 -5.4672e-09 4.49204e-09)
(3.02425e-09 -6.88764e-09 5.93289e-09)
(3.68161e-09 -8.30136e-09 7.58328e-09)
(4.39359e-09 -9.70152e-09 9.51321e-09)
(5.19675e-09 -1.10495e-08 1.17928e-08)
(6.14224e-09 -1.22598e-08 1.44924e-08)
(7.30934e-09 -1.31723e-08 1.76808e-08)
(8.83448e-09 -1.35045e-08 2.14256e-08)
(1.09672e-08 -1.27701e-08 2.58019e-08)
(1.42037e-08 -1.01257e-08 3.09417e-08)
(1.94305e-08 -4.19392e-09 3.70997e-08)
(2.78227e-08 6.73871e-09 4.46104e-08)
(3.81312e-08 2.09299e-08 5.23268e-08)
(6.48015e-10 -1.47161e-09 1.12784e-09)
(1.8097e-09 -4.11614e-09 3.19228e-09)
(2.88527e-09 -6.57852e-09 5.22225e-09)
(3.91719e-09 -8.94802e-09 7.35207e-09)
(4.94601e-09 -1.12883e-08 9.70457e-09)
(6.01231e-09 -1.36331e-08 1.23958e-08)
(7.1609e-09 -1.59816e-08 1.55395e-08)
(8.44593e-09 -1.82882e-08 1.92494e-08)
(9.93828e-09 -2.04433e-08 2.36378e-08)
(1.1738e-08 -2.22423e-08 2.88103e-08)
(1.39962e-08 -2.33391e-08 3.48556e-08)
(1.69569e-08 -2.31875e-08 4.18359e-08)
(2.10293e-08 -2.10008e-08 4.9787e-08)
(2.6847e-08 -1.58687e-08 5.87366e-08)
(3.50845e-08 -7.47193e-09 6.86743e-08)
(4.44436e-08 1.33636e-09 7.83763e-08)
(8.85308e-10 -1.99788e-09 1.53906e-09)
(2.47157e-09 -5.59062e-09 4.35512e-09)
(3.93785e-09 -8.94234e-09 7.12108e-09)
(5.34075e-09 -1.21795e-08 1.00187e-08)
(6.73313e-09 -1.53942e-08 1.32125e-08)
(8.16839e-09 -1.86441e-08 1.68595e-08)
(9.7037e-09 -2.19463e-08 2.11134e-08)
(1.14051e-08 -2.52682e-08 2.61274e-08)
(1.3353e-08 -2.85107e-08 3.20537e-08)
(1.56485e-08 -3.14801e-08 3.90338e-08)
(1.84197e-08 -3.38503e-08 4.71791e-08)
(2.18317e-08 -3.51223e-08 5.65404e-08)
(2.60973e-08 -3.46217e-08 6.70659e-08)
(3.14583e-08 -3.16438e-08 7.85374e-08)
(3.80669e-08 -2.60241e-08 9.04454e-08)
(4.48499e-08 -1.98242e-08 1.00855e-07)
(1.10188e-09 -2.46175e-09 1.91264e-09)
(3.07511e-09 -6.89223e-09 5.41068e-09)
(4.89514e-09 -1.10354e-08 8.84128e-09)
(6.62951e-09 -1.50532e-08 1.24264e-08)
(8.3419e-09 -1.90699e-08 1.63677e-08)
(1.00952e-08 -2.31714e-08 2.08563e-08)
(1.19557e-08 -2.74033e-08 2.608e-08)
(1.39979e-08 -3.17648e-08 3.22272e-08)
(1.63075e-08 -3.61968e-08 3.94868e-08)
(1.89836e-08 -4.05622e-08 4.80393e-08)
(2.21324e-08 -4.46153e-08 5.80344e-08)
(2.58554e-08 -4.79608e-08 6.95515e-08)
(3.0217e-08 -5.00053e-08 8.25283e-08)
(3.51762e-08 -4.993e-08 9.6622e-08)
(4.05119e-08 -4.68543e-08 1.10907e-07)
(4.53363e-08 -4.13556e-08 1.22554e-07)
(1.29384e-09 -2.84607e-09 2.2413e-09)
(3.60867e-09 -7.97241e-09 6.33756e-09)
(5.73797e-09 -1.27787e-08 1.03467e-08)
(7.75786e-09 -1.74612e-08 1.4524e-08)
(9.73892e-09 -2.21749e-08 1.90995e-08)
(1.17511e-08 -2.70371e-08 2.42915e-08)
(1.38671e-08 -3.21282e-08 3.0314e-08)
(1.61676e-08 -3.74906e-08 3.73829e-08)
(1.87443e-08 -4.31253e-08 4.57183e-08)
(2.17022e-08 -4.89827e-08 5.554e-08)
(2.51537e-08 -5.4946e-08 6.70511e-08)
(2.92071e-08 -6.07968e-08 8.04089e-08)
(3.39435e-08 -6.61313e-08 9.56745e-08)
(3.93259e-08 -7.01359e-08 1.12639e-07)
(4.50591e-08 -7.11729e-08 1.30354e-07)
(4.994e-08 -6.74816e-08 1.45046e-07)
(1.45797e-09 -3.13452e-09 2.51951e-09)
(4.06397e-09 -8.78558e-09 7.1206e-09)
(6.45346e-09 -1.40984e-08 1.16127e-08)
(8.7074e-09 -1.92987e-08 1.6275e-08)
(1.0901e-08 -2.45697e-08 2.13583e-08)
(1.31076e-08 -3.00585e-08 2.70983e-08)
(1.54031e-08 -3.58803e-08 3.37253e-08)
(1.78718e-08 -4.21228e-08 4.14716e-08)
(2.0611e-08 -4.8851e-08 5.05769e-08)
(2.37379e-08 -5.61115e-08 6.12891e-08)
(2.73913e-08 -6.39386e-08 7.3858e-08)
(3.17584e-08 -7.23629e-08 8.85496e-08)
(3.70824e-08 -8.13857e-08 1.05622e-07)
(4.36934e-08 -9.08504e-08 1.2528e-07)
(5.18687e-08 -9.98865e-08 1.47168e-07)
(6.01643e-08 -1.05458e-07 1.67036e-07)
(1.59274e-09 -3.31312e-09 2.7445e-09)
(4.43641e-09 -9.29223e-09 7.75178e-09)
(7.0345e-09 -1.49296e-08 1.26261e-08)
(9.46979e-09 -2.04734e-08 1.76619e-08)
(1.18179e-08 -2.61291e-08 2.31204e-08)
(1.41522e-08 -3.20677e-08 2.9245e-08)
(1.6548e-08 -3.84332e-08 3.62706e-08)
(1.90883e-08 -4.53501e-08 4.44317e-08)
(2.18707e-08 -5.29337e-08 5.39684e-08)
(2.50155e-08 -6.13025e-08 6.51299e-08)
(2.8683e-08 -7.06038e-08 7.81824e-08)
(3.31059e-08 -8.10548e-08 9.34292e-08)
(3.86723e-08 -9.30307e-08 1.11271e-07)
(4.60779e-08 -1.07199e-07 1.32298e-07)
(5.65119e-08 -1.2453e-07 1.57176e-07)
(6.94725e-08 -1.43347e-07 1.82706e-07)
(1.34151e-10 -3.10116e-10 2.19944e-10)
(3.7462e-10 -8.6712e-10 6.22462e-10)
(5.97131e-10 -1.38498e-09 1.01781e-09)
(8.10559e-10 -1.88219e-09 1.43225e-09)
(1.02312e-09 -2.37153e-09 1.88927e-09)
(1.24287e-09 -2.8588e-09 2.41085e-09)
(1.47853e-09 -3.34158e-09 3.01781e-09)
(1.74093e-09 -3.8068e-09 3.73018e-09)
(2.0452e-09 -4.22564e-09 4.5664e-09)
(2.41571e-09 -4.54469e-09 5.54179e-09)
(2.89752e-09 -4.66853e-09 6.66613e-09)
(3.58365e-09 -4.42446e-09 7.94352e-09)
(4.68636e-09 -3.47514e-09 9.38371e-09)
(6.67808e-09 -1.10898e-09 1.10215e-08)
(1.04467e-08 4.05545e-09 1.28805e-08)
(1.59824e-08 1.24365e-08 1.42265e-08)
(3.99036e-10 -9.20762e-10 6.53855e-10)
(1.11409e-09 -2.57485e-09 1.84998e-09)
(1.77548e-09 -4.11362e-09 3.02464e-09)
(2.40909e-09 -5.59271e-09 4.25488e-09)
(3.03888e-09 -7.05052e-09 5.61025e-09)
(3.68831e-09 -8.50617e-09 7.15542e-09)
(4.3825e-09 -9.95575e-09 8.95184e-09)
(5.15119e-09 -1.13653e-08 1.10577e-08)
(6.0339e-09 -1.26586e-08 1.35253e-08)
(7.08916e-09 -1.36959e-08 1.6394e-08)
(8.41413e-09 -1.42411e-08 1.96762e-08)
(1.01887e-08 -1.39124e-08 2.33377e-08)
(1.27387e-08 -1.21319e-08 2.725e-08)
(1.65943e-08 -8.14874e-09 3.10873e-08)
(2.21585e-08 -1.59605e-09 3.40035e-08)
(2.78215e-08 5.04783e-09 3.43573e-08)
(6.54371e-10 -1.50413e-09 1.07115e-09)
(1.82664e-09 -4.20743e-09 3.03025e-09)
(2.90998e-09 -6.72587e-09 4.95289e-09)
(3.94587e-09 -9.15241e-09 6.96432e-09)
(4.97276e-09 -1.15534e-08 9.17756e-09)
(6.028e-09 -1.39659e-08 1.16978e-08)
(7.15054e-09 -1.63934e-08 1.46251e-08)
(8.38449e-09 -1.87963e-08 1.80546e-08)
(9.78332e-09 -2.10774e-08 2.20713e-08)
(1.14164e-08 -2.30579e-08 2.6738e-08)
(1.33811e-08 -2.44471e-08 3.20693e-08)
(1.58229e-08 -2.48225e-08 3.79878e-08)
(1.89586e-08 -2.36718e-08 4.42441e-08)
(2.30432e-08 -2.066e-08 5.02663e-08)
(2.80422e-08 -1.64568e-08 5.49128e-08)
(3.24204e-08 -1.39726e-08 5.65196e-08)
(8.94236e-10 -2.04186e-09 1.46166e-09)
(2.49566e-09 -5.71401e-09 4.13432e-09)
(3.97345e-09 -9.14172e-09 6.75426e-09)
(5.38292e-09 -1.24557e-08 9.49094e-09)
(6.77494e-09 -1.57524e-08 1.24964e-08)
(8.19872e-09 -1.9093e-08 1.59128e-08)
(9.70451e-09 -2.24993e-08 1.98756e-08)
(1.13464e-08 -2.59451e-08 2.45146e-08)
(1.3184e-08 -2.9343e-08 2.99474e-08)
(1.52824e-08 -3.25229e-08 3.62635e-08)
(1.77077e-08 -3.52088e-08 4.34905e-08)
(2.05139e-08 -3.70103e-08 5.15315e-08)
(2.37092e-08 -3.74862e-08 6.00551e-08)
(2.71684e-08 -3.6409e-08 6.82961e-08)
(3.04337e-08 -3.44202e-08 7.4761e-08)
(3.24105e-08 -3.36281e-08 7.72925e-08)
(1.11358e-09 -2.5158e-09 1.81671e-09)
(3.10661e-09 -7.04379e-09 5.13676e-09)
(4.94222e-09 -1.12801e-08 8.38665e-09)
(6.68704e-09 -1.53925e-08 1.17735e-08)
(8.40222e-09 -1.95096e-08 1.54832e-08)
(1.01466e-08 -2.37215e-08 1.96894e-08)
(1.19794e-08 -2.8078e-08 2.45584e-08)
(1.39628e-08 -3.25836e-08 3.02506e-08)
(1.61612e-08 -3.71879e-08 3.69156e-08)
(1.86365e-08 -4.17696e-08 4.46747e-08)
(2.14316e-08 -4.6116e-08 5.35858e-08)
(2.45335e-08 -4.9904e-08 6.35734e-08)
(2.77979e-08 -5.27012e-08 7.42964e-08)
(3.08118e-08 -5.40482e-08 8.48855e-08)
(3.27624e-08 -5.38082e-08 9.35116e-08)
(3.28125e-08 -5.30419e-08 9.72873e-08)
(1.3082e-09 -2.90834e-09 2.12907e-09)
(3.64771e-09 -8.14712e-09 6.01744e-09)
(5.79718e-09 -1.3061e-08 9.8161e-09)
(7.83178e-09 -1.78525e-08 1.3763e-08)
(9.82034e-09 -2.26817e-08 1.80709e-08)
(1.18289e-08 -2.76701e-08 2.2938e-08)
(1.39238e-08 -3.29017e-08 2.85546e-08)
(1.61744e-08 -3.84223e-08 3.51056e-08)
(1.86534e-08 -4.4237e-08 4.27678e-08)
(2.14314e-08 -5.03022e-08 5.16956e-08)
(2.45633e-08 -5.65129e-08 6.19911e-08)
(2.80543e-08 -6.2678e-08 7.36446e-08)
(3.17776e-08 -6.84552e-08 8.63949e-08)
(3.53175e-08 -7.32088e-08 9.94444e-08)
(3.77135e-08 -7.58298e-08 1.1084e-07)
(3.76721e-08 -7.54048e-08 1.16867e-07)
(1.47505e-09 -3.203e-09 2.39378e-09)
(4.11048e-09 -8.97771e-09 6.76196e-09)
(6.5247e-09 -1.44089e-08 1.1019e-08)
(8.79841e-09 -1.97292e-08 1.54254e-08)
(1.10051e-08 -2.51273e-08 2.02128e-08)
(1.32152e-08 -3.07542e-08 2.55958e-08)
(1.54995e-08 -3.6728e-08 3.17795e-08)
(1.79332e-08 -4.31382e-08 3.89638e-08)
(2.0598e-08 -5.00492e-08 4.73423e-08)
(2.3583e-08 -5.75049e-08 5.70933e-08)
(2.69854e-08 -6.55341e-08 6.83629e-08)
(3.0898e-08 -7.41499e-08 8.12108e-08)
(3.53969e-08 -8.33255e-08 9.55291e-08)
(4.04499e-08 -9.2845e-08 1.10746e-07)
(4.5606e-08 -1.01805e-07 1.25083e-07)
(4.90999e-08 -1.07518e-07 1.34068e-07)
(1.61227e-09 -3.38543e-09 2.6079e-09)
(4.48994e-09 -9.49513e-09 7.36259e-09)
(7.11735e-09 -1.52577e-08 1.19829e-08)
(9.57719e-09 -2.09287e-08 1.67435e-08)
(1.19444e-08 -2.67189e-08 2.18859e-08)
(1.42901e-08 -3.28034e-08 2.76321e-08)
(1.6686e-08 -3.93284e-08 3.41915e-08)
(1.92085e-08 -4.64186e-08 4.17662e-08)
(2.19436e-08 -5.41854e-08 5.05505e-08)
(2.49928e-08 -6.27391e-08 6.07262e-08)
(2.84824e-08 -7.22078e-08 7.24473e-08)
(3.25839e-08 -8.27711e-08 8.58174e-08)
(3.75485e-08 -9.47154e-08 1.00824e-07)
(4.37591e-08 -1.0849e-07 1.17138e-07)
(5.15912e-08 -1.24478e-07 1.33405e-07)
(5.97331e-08 -1.40352e-07 1.45052e-07)
(1.34818e-10 -3.15993e-10 2.00406e-10)
(3.76227e-10 -8.83649e-10 5.66844e-10)
(5.99022e-10 -1.41174e-09 9.26264e-10)
(8.1143e-10 -1.91934e-09 1.30169e-09)
(1.02103e-09 -2.41986e-09 1.71407e-09)
(1.23464e-09 -2.91996e-09 2.18212e-09)
(1.459e-09 -3.41864e-09 2.72291e-09)
(1.70139e-09 -3.90528e-09 3.35132e-09)
(1.97077e-09 -4.35639e-09 4.07848e-09)
(2.28005e-09 -4.72983e-09 4.90775e-09)
(2.65199e-09 -4.95632e-09 5.82792e-09)
(3.13327e-09 -4.9231e-09 6.80079e-09)
(3.82053e-09 -4.44432e-09 7.7365e-09)
(4.91584e-09 -3.18887e-09 8.4526e-09)
(6.7159e-09 -6.0376e-10 8.55539e-09)
(8.9207e-09 3.34234e-09 7.3796e-09)
(4.01044e-10 -9.38147e-10 5.95706e-10)
(1.1191e-09 -2.62373e-09 1.68487e-09)
(1.78131e-09 -4.19267e-09 2.75236e-09)
(2.41224e-09 -5.70235e-09 3.86711e-09)
(3.03369e-09 -7.193e-09 5.09014e-09)
(3.66574e-09 -8.68616e-09 6.47693e-09)
(4.32769e-09 -1.01814e-08 8.07775e-09)
(5.03952e-09 -1.16516e-08 9.93623e-09)
(5.82354e-09 -1.30339e-08 1.20839e-08)
(6.70776e-09 -1.42173e-08 1.45279e-08)
(7.73347e-09 -1.50264e-08 1.72276e-08)
(8.96633e-09 -1.52119e-08 2.0048e-08)
(1.05164e-08 -1.44649e-08 2.26818e-08)
(1.2492e-08 -1.25335e-08 2.44821e-08)
(1.47386e-08 -9.61854e-09 2.42845e-08)
(1.61631e-08 -7.26737e-09 2.12359e-08)
(6.5785e-10 -1.53238e-09 9.75922e-10)
(1.83542e-09 -4.28681e-09 2.75993e-09)
(2.92067e-09 -6.85421e-09 4.5073e-09)
(3.95303e-09 -9.33019e-09 6.33009e-09)
(4.96773e-09 -1.17839e-08 8.32756e-09)
(5.99688e-09 -1.42559e-08 1.059e-08)
(7.07083e-09 -1.67541e-08 1.31996e-08)
(8.21907e-09 -1.92477e-08 1.62285e-08)
(9.47019e-09 -2.16564e-08 1.97297e-08)
(1.08505e-08 -2.38362e-08 2.37183e-08)
(1.23806e-08 -2.5569e-08 2.81344e-08)
(1.40673e-08 -2.65761e-08 3.27778e-08)
(1.58775e-08 -2.66131e-08 3.71966e-08)
(1.76564e-08 -2.57482e-08 4.05253e-08)
(1.89428e-08 -2.48847e-08 4.14266e-08)
(1.89765e-08 -2.56778e-08 3.92458e-08)
(8.99415e-10 -2.07998e-09 1.33196e-09)
(2.50884e-09 -5.82116e-09 3.76562e-09)
(3.99031e-09 -9.31466e-09 6.14721e-09)
(5.39664e-09 -1.26949e-08 8.62756e-09)
(6.77473e-09 -1.60616e-08 1.13406e-08)
(8.16747e-09 -1.94797e-08 1.44084e-08)
(9.61473e-09 -2.29753e-08 1.79431e-08)
(1.11532e-08 -2.65304e-08 2.20439e-08)
(1.28136e-08 -3.00723e-08 2.67872e-08)
(1.46119e-08 -3.34617e-08 3.22031e-08)
(1.65296e-08 -3.64841e-08 3.82304e-08)
(1.84761e-08 -3.88701e-08 4.46397e-08)
(2.02148e-08 -4.03955e-08 5.09063e-08)
(2.12533e-08 -4.11442e-08 5.60414e-08)
(2.08137e-08 -4.1912e-08 5.85502e-08)
(1.86448e-08 -4.37858e-08 5.75272e-08)
(1.12064e-09 -2.56252e-09 1.65555e-09)
(3.12489e-09 -7.17489e-09 4.6793e-09)
(4.9668e-09 -1.14916e-08 7.63386e-09)
(6.7102e-09 -1.56846e-08 1.07041e-08)
(8.41214e-09 -1.98859e-08 1.40538e-08)
(1.01247e-08 -2.41889e-08 1.78323e-08)
(1.18962e-08 -2.86469e-08 2.21776e-08)
(1.37705e-08 -3.32693e-08 2.7214e-08)
(1.57826e-08 -3.80145e-08 3.30416e-08)
(1.79442e-08 -4.27791e-08 3.97118e-08)
(2.02146e-08 -4.73875e-08 4.718e-08)
(2.24393e-08 -5.15907e-08 5.52225e-08)
(2.42393e-08 -5.50964e-08 6.32959e-08)
(2.48566e-08 -5.76729e-08 7.03394e-08)
(2.31819e-08 -5.93798e-08 7.46606e-08)
(1.91784e-08 -6.07008e-08 7.48815e-08)
(1.31733e-09 -2.962e-09 1.94052e-09)
(3.67179e-09 -8.29776e-09 5.48235e-09)
(5.83077e-09 -1.33038e-08 8.93645e-09)
(7.86702e-09 -1.81871e-08 1.25153e-08)
(9.84525e-09 -2.31115e-08 1.64062e-08)
(1.18251e-08 -2.82007e-08 2.07803e-08)
(1.38623e-08 -3.35404e-08 2.57958e-08)
(1.60092e-08 -3.91774e-08 3.1597e-08)
(1.83103e-08 -4.5117e-08 3.83044e-08)
(2.07904e-08 -5.13173e-08 4.59931e-08)
(2.34264e-08 -5.7678e-08 5.46449e-08)
(2.60884e-08 -6.40195e-08 6.40648e-08)
(2.84294e-08 -7.00349e-08 7.37415e-08)
(2.96863e-08 -7.51662e-08 8.25939e-08)
(2.85745e-08 -7.84471e-08 8.87641e-08)
(2.45384e-08 -7.8898e-08 9.03584e-08)
(1.48639e-09 -3.26181e-09 2.18208e-09)
(4.14067e-09 -9.14271e-09 6.16172e-09)
(6.56832e-09 -1.46747e-08 1.00334e-08)
(8.84768e-09 -2.00951e-08 1.403e-08)
(1.10488e-08 -2.5596e-08 1.83556e-08)
(1.32362e-08 -3.133e-08 2.31956e-08)
(1.54715e-08 -3.74148e-08 2.87213e-08)
(1.78149e-08 -4.39366e-08 3.50887e-08)
(2.03237e-08 -5.09524e-08 4.24317e-08)
(2.30478e-08 -5.8492e-08 5.08414e-08)
(2.60127e-08 -6.65561e-08 6.03196e-08)
(2.91986e-08 -7.51118e-08 7.07163e-08)
(3.2466e-08 -8.40401e-08 8.15524e-08)
(3.54423e-08 -9.29734e-08 9.17606e-08)
(3.73227e-08 -1.00837e-07 9.93023e-08)
(3.70576e-08 -1.05141e-07 1.01695e-07)
(1.62578e-09 -3.44733e-09 2.37773e-09)
(4.52643e-09 -9.6688e-09 6.71031e-09)
(7.17127e-09 -1.55374e-08 1.09135e-08)
(9.64137e-09 -2.13135e-08 1.52324e-08)
(1.20086e-08 -2.72111e-08 1.98807e-08)
(1.43396e-08 -3.34061e-08 2.50503e-08)
(1.66982e-08 -4.00426e-08 3.09162e-08)
(1.91486e-08 -4.7239e-08 3.76366e-08)
(2.17571e-08 -5.50936e-08 4.53458e-08)
(2.45921e-08 -6.36911e-08 5.41346e-08)
(2.77247e-08 -7.3113e-08 6.40147e-08)
(3.12253e-08 -8.34505e-08 7.48443e-08)
(3.51585e-08 -9.4818e-08 8.6181e-08)
(3.95717e-08 -1.07335e-07 9.6969e-08)
(4.44215e-08 -1.20885e-07 1.05003e-07)
(4.88669e-08 -1.33221e-07 1.07008e-07)
(1.35e-10 -3.20913e-10 1.73855e-10)
(3.76511e-10 -8.97491e-10 4.91618e-10)
(5.98568e-10 -1.43413e-09 8.02569e-10)
(8.0895e-10 -1.95042e-09 1.12671e-09)
(1.01423e-09 -2.46035e-09 1.4811e-09)
(1.21991e-09 -2.97134e-09 1.8811e-09)
(1.43051e-09 -3.4837e-09 2.33972e-09)
(1.64969e-09 -3.98928e-09 2.86707e-09)
(1.88025e-09 -4.46946e-09 3.46809e-09)
(2.12465e-09 -4.8921e-09 4.13823e-09)
(2.38657e-09 -5.2082e-09 4.85543e-09)
(2.67604e-09 -5.34666e-09 5.56717e-09)
(3.02408e-09 -5.20362e-09 6.17613e-09)
(3.49766e-09 -4.60522e-09 6.51559e-09)
(4.19621e-09 -3.22245e-09 6.36926e-09)
(4.95666e-09 -8.26393e-10 5.62622e-09)
(4.01672e-10 -9.52702e-10 5.16828e-10)
(1.12008e-09 -2.66465e-09 1.46113e-09)
(1.78045e-09 -4.25885e-09 2.38522e-09)
(2.40552e-09 -5.79409e-09 3.34727e-09)
(3.01462e-09 -7.31221e-09 4.39847e-09)
(3.62391e-09 -8.8368e-09 5.5837e-09)
(4.24646e-09 -1.03709e-08 6.94153e-09)
(4.89205e-09 -1.18937e-08 8.50162e-09)
(5.56626e-09 -1.33548e-08 1.02782e-08)
(6.26893e-09 -1.4668e-08 1.22563e-08)
(6.99294e-09 -1.57058e-08 1.43678e-08)
(7.72708e-09 -1.63053e-08 1.64547e-08)
(8.45171e-09 -1.62987e-08 1.82054e-08)
(9.12735e-09 -1.55847e-08 1.91029e-08)
(9.61322e-09 -1.42701e-08 1.84863e-08)
(9.61302e-09 -1.29413e-08 1.64367e-08)
(6.59101e-10 -1.55601e-09 8.46778e-10)
(1.83775e-09 -4.35327e-09 2.39358e-09)
(2.92053e-09 -6.96146e-09 3.90625e-09)
(3.94424e-09 -9.47854e-09 5.47964e-09)
(4.9402e-09 -1.19758e-08 7.19667e-09)
(5.93463e-09 -1.44966e-08 9.13065e-09)
(6.94853e-09 -1.70533e-08 1.1345e-08)
(7.99638e-09 -1.9623e-08 1.38893e-08)
(9.08252e-09 -2.21403e-08 1.67893e-08)
(1.01941e-08 -2.44905e-08 2.00261e-08)
(1.12901e-08 -2.65096e-08 2.3502e-08)
(1.22834e-08 -2.80105e-08 2.69867e-08)
(1.30171e-08 -2.88741e-08 3.00504e-08)
(1.32458e-08 -2.9242e-08 3.20295e-08)
(1.27001e-08 -2.97532e-08 3.22367e-08)
(1.15717e-08 -3.11172e-08 3.10027e-08)
(9.01555e-10 -2.11185e-09 1.15564e-09)
(2.51339e-09 -5.91059e-09 3.2663e-09)
(3.99268e-09 -9.45883e-09 5.32808e-09)
(5.3889e-09 -1.28936e-08 7.46934e-09)
(6.74429e-09 -1.63172e-08 9.80195e-09)
(8.09452e-09 -1.97972e-08 1.24252e-08)
(9.46815e-09 -2.33638e-08 1.54258e-08)
(1.08841e-08 -2.70052e-08 1.88733e-08)
(1.23451e-08 -3.06611e-08 2.28074e-08)
(1.38236e-08 -3.42154e-08 2.7214e-08)
(1.52364e-08 -3.74963e-08 3.19842e-08)
(1.64026e-08 -4.0304e-08 3.68548e-08)
(1.69858e-08 -4.25016e-08 4.13414e-08)
(1.64679e-08 -4.42034e-08 4.47235e-08)
(1.43701e-08 -4.59688e-08 4.62846e-08)
(1.13919e-08 -4.82069e-08 4.61997e-08)
(1.124e-09 -2.60142e-09 1.43672e-09)
(3.13266e-09 -7.28409e-09 4.05928e-09)
(4.97359e-09 -1.16672e-08 6.61757e-09)
(6.70714e-09 -1.59257e-08 9.2686e-09)
(8.38518e-09 -2.01941e-08 1.21493e-08)
(1.0052e-08 -2.45678e-08 1.53814e-08)
(1.17441e-08 -2.9102e-08 1.90722e-08)
(1.34866e-08 -3.3809e-08 2.33095e-08)
(1.52858e-08 -3.86519e-08 2.81486e-08)
(1.71104e-08 -4.35375e-08 3.3586e-08)
(1.88577e-08 -4.83087e-08 3.95161e-08)
(2.02924e-08 -5.27474e-08 4.5668e-08)
(2.09569e-08 -5.65982e-08 5.15362e-08)
(2.01044e-08 -5.96306e-08 5.636e-08)
(1.69622e-08 -6.17577e-08 5.93409e-08)
(1.23931e-08 -6.30827e-08 6.03732e-08)
(1.32222e-09 -3.0066e-09 1.68423e-09)
(3.68366e-09 -8.42275e-09 4.75667e-09)
(5.84394e-09 -1.35044e-08 7.74809e-09)
(7.87212e-09 -1.84617e-08 1.0839e-08)
(9.82792e-09 -2.34603e-08 1.41862e-08)
(1.17633e-08 -2.86251e-08 1.79294e-08)
(1.37224e-08 -3.40408e-08 2.21918e-08)
(1.57397e-08 -3.97521e-08 2.70762e-08)
(1.78326e-08 -4.576e-08 3.26514e-08)
(1.99857e-08 -5.20149e-08 3.89253e-08)
(2.21193e-08 -5.84049e-08 4.58014e-08)
(2.40341e-08 -6.47331e-08 5.30145e-08)
(2.531e-08 -7.06568e-08 6.00369e-08)
(2.52063e-08 -7.55621e-08 6.60593e-08)
(2.27703e-08 -7.83942e-08 7.01581e-08)
(1.83106e-08 -7.81678e-08 7.20054e-08)
(1.493e-09 -3.3105e-09 1.89429e-09)
(4.15745e-09 -9.27912e-09 5.34707e-09)
(6.58935e-09 -1.48933e-08 8.70088e-09)
(8.86381e-09 -2.03935e-08 1.21535e-08)
(1.10461e-08 -2.59731e-08 1.5876e-08)
(1.31939e-08 -3.17845e-08 2.002e-08)
(1.53581e-08 -3.7942e-08 2.47191e-08)
(1.75829e-08 -4.45247e-08 3.00849e-08)
(1.99017e-08 -5.15762e-08 3.61939e-08)
(2.23279e-08 -5.9102e-08 4.30608e-08)
(2.48409e-08 -6.70643e-08 5.05991e-08)
(2.73495e-08 -7.53585e-08 5.85301e-08)
(2.96518e-08 -8.37551e-08 6.63101e-08)
(3.13765e-08 -9.17248e-08 7.30136e-08)
(3.20077e-08 -9.80588e-08 7.74648e-08)
(3.13287e-08 -1.00619e-07 7.91212e-08)
(1.63427e-09 -3.49842e-09 2.06446e-09)
(4.5485e-09 -9.81192e-09 5.82424e-09)
(7.20116e-09 -1.57666e-08 9.46598e-09)
(9.67037e-09 -2.16256e-08 1.31982e-08)
(1.2024e-08 -2.76041e-08 1.72002e-08)
(1.43226e-08 -3.38764e-08 2.16291e-08)
(1.6621e-08 -4.05815e-08 2.66219e-08)
(1.89696e-08 -4.78269e-08 3.22913e-08)
(2.14143e-08 -5.56909e-08 3.87133e-08)
(2.3994e-08 -6.42238e-08 4.5902e-08)
(2.67368e-08 -7.34481e-08 5.3763e-08)
(2.96545e-08 -8.33563e-08 6.20181e-08)
(3.27416e-08 -9.39012e-08 7.00817e-08)
(3.60136e-08 -1.04968e-07 7.6906e-08)
(3.95904e-08 -1.16224e-07 8.09244e-08)
(4.33501e-08 -1.2596e-07 8.10704e-08)
(1.34865e-10 -3.2483e-10 1.41402e-10)
(3.75845e-10 -9.08488e-10 3.99627e-10)
(5.96688e-10 -1.45187e-09 6.52189e-10)
(8.04493e-10 -1.97513e-09 9.14459e-10)
(1.00498e-09 -2.49244e-09 1.20031e-09)
(1.20238e-09 -3.01199e-09 1.52118e-09)
(1.39926e-09 -3.53502e-09 1.88644e-09)
(1.59623e-09 -4.05532e-09 2.30234e-09)
(1.79153e-09 -4.55748e-09 2.77001e-09)
(1.98055e-09 -5.01609e-09 3.28183e-09)
(2.1564e-09 -5.3926e-09 3.81541e-09)
(2.31442e-09 -5.63462e-09 4.32744e-09)
(2.46145e-09 -5.66563e-09 4.74628e-09)
(2.64065e-09 -5.34522e-09 4.99294e-09)
(2.94066e-09 -4.35959e-09 5.03305e-09)
(3.32875e-09 -2.35915e-09 4.94092e-09)
(4.01325e-10 -9.64285e-10 4.2032e-10)
(1.11841e-09 -2.6972e-09 1.1881e-09)
(1.7753e-09 -4.31149e-09 1.93806e-09)
(2.393e-09 -5.86691e-09 2.71707e-09)
(2.98843e-09 -7.40677e-09 3.56492e-09)
(3.57393e-09 -8.95592e-09 4.5158e-09)
(4.15709e-09 -1.05201e-08 5.59739e-09)
(4.7393e-09 -1.20831e-08 6.82817e-09)
(5.31357e-09 -1.36033e-08 8.21137e-09)
(5.86125e-09 -1.50092e-08 9.72366e-09)
(6.35071e-09 -1.61991e-08 1.12987e-08)
(6.73772e-09 -1.70455e-08 1.28014e-08)
(6.98095e-09 -1.74143e-08 1.40152e-08)
(7.06707e-09 -1.7182e-08 1.46403e-08)
(7.04444e-09 -1.626e-08 1.44232e-08)
(7.01098e-09 -1.48535e-08 1.3582e-08)
(6.58779e-10 -1.57484e-09 6.88723e-10)
(1.83574e-09 -4.40617e-09 1.94643e-09)
(2.91344e-09 -7.04672e-09 3.17439e-09)
(3.926e-09 -9.5962e-09 4.44842e-09)
(4.90084e-09 -1.21273e-08 5.83346e-09)
(5.85869e-09 -1.46855e-08 7.38531e-09)
(6.81226e-09 -1.72863e-08 9.14969e-09)
(7.76369e-09 -1.99122e-08 1.1158e-08)
(8.69933e-09 -2.25074e-08 1.34179e-08)
(9.58207e-09 -2.49743e-08 1.5897e-08)
(1.03397e-08 -2.71746e-08 1.84977e-08)
(1.08567e-08 -2.89538e-08 2.1028e-08)
(1.0977e-08 -3.02058e-08 2.31847e-08)
(1.05585e-08 -3.09951e-08 2.45947e-08)
(9.64969e-09 -3.16879e-08 2.50324e-08)
(8.83391e-09 -3.26895e-08 2.48804e-08)
(9.01598e-10 -2.1372e-09 9.40189e-10)
(2.51203e-09 -5.98177e-09 2.65628e-09)
(3.98555e-09 -9.57325e-09 4.33037e-09)
(5.36815e-09 -1.30505e-08 6.06448e-09)
(6.69749e-09 -1.65177e-08 7.94641e-09)
(8.00237e-09 -2.00441e-08 1.00519e-08)
(9.30138e-09 -2.3662e-08 1.24437e-08)
(1.05989e-08 -2.73635e-08 1.51664e-08)
(1.18775e-08 -3.10948e-08 1.82352e-08)
(1.30831e-08 -3.47506e-08 2.16156e-08)
(1.41042e-08 -3.81754e-08 2.51949e-08)
(1.47422e-08 -4.11848e-08 2.87521e-08)
(1.46934e-08 -4.36327e-08 3.1947e-08)
(1.36044e-08 -4.55442e-08 3.43857e-08)
(1.13791e-08 -4.72552e-08 3.58517e-08)
(9.03271e-09 -4.90358e-08 3.65873e-08)
(1.12474e-09 -2.63237e-09 1.1689e-09)
(3.13302e-09 -7.37075e-09 3.30171e-09)
(4.96848e-09 -1.18061e-08 5.37922e-09)
(6.68772e-09 -1.61152e-08 7.52656e-09)
(8.33736e-09 -2.04339e-08 9.85117e-09)
(9.95455e-09 -2.48586e-08 1.24461e-08)
(1.15649e-08 -2.94449e-08 1.53893e-08)
(1.31787e-08 -3.42047e-08 1.87379e-08)
(1.47816e-08 -3.91012e-08 2.25153e-08)
(1.63177e-08 -4.4041e-08 2.66904e-08)
(1.76603e-08 -4.88653e-08 3.11453e-08)
(1.85689e-08 -5.33476e-08 3.56453e-08)
(1.86408e-08 -5.72017e-08 3.98267e-08)
(1.7329e-08 -6.01174e-08 4.32761e-08)
(1.42655e-08 -6.18769e-08 4.57462e-08)
(1.05557e-08 -6.26085e-08 4.72966e-08)
(1.324e-09 -3.04197e-09 1.37055e-09)
(3.68683e-09 -8.52171e-09 3.8696e-09)
(5.84301e-09 -1.36625e-08 6.29929e-09)
(7.85768e-09 -1.86762e-08 8.8034e-09)
(9.78558e-09 -2.37295e-08 1.15053e-08)
(1.16713e-08 -2.89466e-08 1.45117e-08)
(1.35485e-08 -3.44102e-08 1.79125e-08)
(1.54371e-08 -4.01599e-08 2.17747e-08)
(1.73356e-08 -4.61882e-08 2.61291e-08)
(1.92064e-08 -5.24318e-08 3.09485e-08)
(2.09512e-08 -5.87563e-08 3.61134e-08)
(2.23696e-08 -6.49258e-08 4.13682e-08)
(2.31093e-08 -7.05427e-08 4.63242e-08)
(2.26341e-08 -7.49196e-08 5.05064e-08)
(2.03932e-08 -7.69749e-08 5.35984e-08)
(1.69063e-08 -7.59704e-08 5.55934e-08)
(1.49607e-09 -3.34903e-09 1.54167e-09)
(4.1643e-09 -9.38676e-09 4.35067e-09)
(6.59431e-09 -1.50648e-08 7.07523e-09)
(8.85763e-09 -2.06253e-08 9.87305e-09)
(1.10146e-08 -2.62617e-08 1.28789e-08)
(1.31162e-08 -3.21245e-08 1.62088e-08)
(1.52038e-08 -3.83233e-08 1.99604e-08)
(1.73082e-08 -4.49276e-08 2.42062e-08)
(1.94459e-08 -5.19649e-08 2.89811e-08)
(2.16118e-08 -5.94142e-08 3.42589e-08)
(2.37663e-08 -6.71936e-08 3.99079e-08)
(2.58248e-08 -7.51367e-08 4.56614e-08)
(2.76401e-08 -8.29247e-08 5.10596e-08)
(2.90282e-08 -8.99467e-08 5.55063e-08)
(2.98402e-08 -9.50407e-08 5.85e-08)
(3.00629e-08 -9.65576e-08 6.00715e-08)
(1.63886e-09 -3.53873e-09 1.6805e-09)
(4.55965e-09 -9.92449e-09 4.73975e-09)
(7.21334e-09 -1.59457e-08 7.69877e-09)
(9.67465e-09 -2.18668e-08 1.07242e-08)
(1.20074e-08 -2.79026e-08 1.3957e-08)
(1.42659e-08 -3.42245e-08 1.75181e-08)
(1.64967e-08 -4.09645e-08 2.15073e-08)
(1.87389e-08 -4.82174e-08 2.5998e-08)
(2.10236e-08 -5.604e-08 3.10236e-08)
(2.33731e-08 -6.44473e-08 3.6552e-08)
(2.58009e-08 -7.34075e-08 4.2447e-08)
(2.83173e-08 -8.28336e-08 4.84105e-08)
(3.0959e-08 -9.25756e-08 5.39265e-08)
(3.38833e-08 -1.02429e-07 5.82375e-08)
(3.75159e-08 -1.12141e-07 6.05229e-08)
(4.19559e-08 -1.20608e-07 6.06127e-08)
(1.34559e-10 -3.27707e-10 1.04281e-10)
(3.74808e-10 -9.16593e-10 2.94778e-10)
(5.94269e-10 -1.46501e-09 4.80558e-10)
(7.99507e-10 -1.99308e-09 6.73418e-10)
(9.95795e-10 -2.51618e-09 8.82838e-10)
(1.18597e-09 -3.04195e-09 1.11687e-09)
(1.37122e-09 -3.57255e-09 1.38168e-09)
(1.55014e-09 -4.10284e-09 1.68083e-09)
(1.71818e-09 -4.61946e-09 2.01378e-09)
(1.86734e-09 -5.09952e-09 2.37341e-09)
(1.98738e-09 -5.50887e-09 2.74265e-09)
(2.07111e-09 -5.79901e-09 3.09157e-09)
(2.12895e-09 -5.89549e-09 3.38391e-09)
(2.21339e-09 -5.64926e-09 3.58925e-09)
(2.43606e-09 -4.72834e-09 3.74088e-09)
(2.79475e-09 -2.75497e-09 3.89776e-09)
(4.00535e-10 -9.72866e-10 3.10099e-10)
(1.11554e-09 -2.72133e-09 8.76109e-10)
(1.7685e-09 -4.3502e-09 1.42852e-09)
(2.37932e-09 -5.92117e-09 2.00104e-09)
(2.96205e-09 -7.47647e-09 2.62218e-09)
(3.52664e-09 -9.04317e-09 3.31574e-09)
(4.07633e-09 -1.06283e-08 4.09996e-09)
(4.60686e-09 -1.22183e-08 4.9854e-09)
(5.10369e-09 -1.3776e-08 5.9704e-09)
(5.53983e-09 -1.52366e-08 7.03348e-09)
(5.87612e-09 -1.65059e-08 8.12297e-09)
(6.07054e-09 -1.74618e-08 9.15072e-09)
(6.10432e-09 -1.79564e-08 9.98489e-09)
(6.03272e-09 -1.78096e-08 1.04804e-08)
(6.03051e-09 -1.68109e-08 1.0539e-08)
(6.25109e-09 -1.5114e-08 1.02483e-08)
(6.57708e-10 -1.58882e-09 5.08127e-10)
(1.83173e-09 -4.44539e-09 1.43545e-09)
(2.9038e-09 -7.11016e-09 2.33999e-09)
(3.90517e-09 -9.68293e-09 3.27638e-09)
(4.86079e-09 -1.22389e-08 4.29122e-09)
(5.78637e-09 -1.48234e-08 5.42325e-09)
(6.68854e-09 -1.74543e-08 6.70281e-09)
(7.56109e-09 -2.01167e-08 8.14809e-09)
(8.38009e-09 -2.27593e-08 9.75821e-09)
(9.09753e-09 -2.52902e-08 1.1502e-08)
(9.63599e-09 -2.75769e-08 1.33042e-08)
(9.89154e-09 -2.94625e-08 1.50348e-08)
(9.76154e-09 -3.08072e-08 1.65125e-08)
(9.22938e-09 -3.15844e-08 1.7552e-08)
(8.52975e-09 -3.20084e-08 1.80808e-08)
(8.22904e-09 -3.25047e-08 1.82677e-08)
(9.00561e-10 -2.15609e-09 6.93563e-10)
(2.50782e-09 -6.03466e-09 1.95932e-09)
(3.97438e-09 -9.65789e-09 3.19246e-09)
(5.34366e-09 -1.31666e-08 4.46724e-09)
(6.64859e-09 -1.66645e-08 5.84627e-09)
(7.91309e-09 -2.02227e-08 7.38243e-09)
(9.14815e-09 -2.38742e-08 9.11747e-09)
(1.03484e-08 -2.7612e-08 1.10776e-08)
(1.14849e-08 -3.13839e-08 1.32651e-08)
(1.24937e-08 -3.50856e-08 1.56442e-08)
(1.32622e-08 -3.85595e-08 1.81262e-08)
(1.36175e-08 -4.16076e-08 2.05593e-08)
(1.33374e-08 -4.40419e-08 2.27382e-08)
(1.22344e-08 -4.57931e-08 2.44695e-08)
(1.04227e-08 -4.7081e-08 2.56846e-08)
(8.8094e-09 -4.82798e-08 2.64392e-08)
(1.12403e-09 -2.65534e-09 8.62513e-10)
(3.12963e-09 -7.43513e-09 2.43567e-09)
(4.95812e-09 -1.1909e-08 3.96628e-09)
(6.66236e-09 -1.62542e-08 5.54499e-09)
(8.28543e-09 -2.06085e-08 7.24873e-09)
(9.85797e-09 -2.50671e-08 9.14248e-09)
(1.13978e-08 -2.96851e-08 1.12782e-08)
(1.29052e-08 -3.44726e-08 1.36897e-08)
(1.43546e-08 -3.93888e-08 1.63833e-08)
(1.56821e-08 -4.43334e-08 1.93221e-08)
(1.67653e-08 -4.9135e-08 2.24102e-08)
(1.74004e-08 -5.35428e-08 2.54798e-08)
(1.72838e-08 -5.7224e-08 2.83078e-08)
(1.60581e-08 -5.98002e-08 3.06874e-08)
(1.35692e-08 -6.1002e-08 3.25332e-08)
(1.07471e-08 -6.11284e-08 3.37857e-08)
(1.324e-09 -3.06826e-09 1.01141e-09)
(3.68518e-09 -8.59503e-09 2.85505e-09)
(5.83495e-09 -1.37789e-08 4.64537e-09)
(7.83542e-09 -1.88333e-08 6.48672e-09)
(9.7362e-09 -2.39239e-08 8.46736e-09)
(1.15765e-08 -2.91745e-08 1.0662e-08)
(1.33822e-08 -3.46642e-08 1.31307e-08)
(1.51635e-08 -4.04272e-08 1.59133e-08)
(1.69087e-08 -4.64459e-08 1.90192e-08)
(1.85742e-08 -5.2641e-08 2.24111e-08)
(2.0069e-08 -5.8853e-08 2.59837e-08)
(2.12354e-08 -6.48118e-08 2.95522e-08)
(2.18251e-08 -7.00734e-08 3.28589e-08)
(2.14953e-08 -7.39145e-08 3.56537e-08)
(1.99064e-08 -7.52892e-08 3.78155e-08)
(1.7377e-08 -7.37189e-08 3.92842e-08)
(1.49697e-09 -3.37755e-09 1.13793e-09)
(4.16527e-09 -9.46631e-09 3.21046e-09)
(6.59061e-09 -1.5191e-08 5.21838e-09)
(8.84082e-09 -2.07939e-08 7.2761e-09)
(1.09728e-08 -2.64686e-08 9.4802e-09)
(1.30315e-08 -3.23627e-08 1.1912e-08)
(1.50511e-08 -3.85807e-08 1.46367e-08)
(1.70537e-08 -4.51826e-08 1.76974e-08)
(1.9047e-08 -5.21804e-08 2.11045e-08)
(2.10204e-08 -5.95286e-08 2.48166e-08)
(2.29448e-08 -6.71115e-08 2.87211e-08)
(2.47715e-08 -7.47152e-08 3.2601e-08)
(2.64544e-08 -8.19768e-08 3.61461e-08)
(2.79869e-08 -8.82752e-08 3.90069e-08)
(2.94153e-08 -9.25608e-08 4.09579e-08)
(3.05309e-08 -9.35416e-08 4.20566e-08)
(1.64094e-09 -3.56854e-09 1.24054e-09)