/*--------------------------------*- C++ -*----------------------------------*\
| =========                 |                                                 |
| \\      /  F ield         | OpenFOAM: The Open Source CFD Toolbox           |
|  \\    /   O peration     | Version:  v1912                                 |
|   \\  /    A nd           | Website:  www.openfoam.com                      |
|    \\/     M anipulation  |                                                 |
\*---------------------------------------------------------------------------*/
FoamFile
{
    version     2.0;
    format      ascii;
    class       surfaceScalarField;
    location    "0.73/fluid";
    object      meshPhi;
}
// * * * * * * * * * * * * * * * * * * * * * * * * * * * * * * * * * * * * * //

dimensions      [0 3 -1 0 0 0 0];
oriented        oriented;


internalField   nonuniform List<scalar> 
41600
(
1.56319e-13
-4.01506e-13
1.5097e-13
-1.55955e-13
2.98705e-13
-1.16959e-12
4.45001e-13
-4.59922e-13
4.3303e-13
-1.88227e-12
7.33387e-13
-7.58688e-13
5.64688e-13
-2.56452e-12
1.03528e-12
-1.0724e-12
6.98936e-13
-3.23307e-12
1.36793e-12
-1.41935e-12
8.41399e-13
-3.89519e-12
1.74747e-12
-1.8169e-12
9.98818e-13
-4.54656e-12
2.18944e-12
-2.28225e-12
1.1802e-12
-5.16707e-12
2.70894e-12
-2.83278e-12
1.39896e-12
-5.71307e-12
3.32033e-12
-3.48627e-12
1.67738e-12
-6.10338e-12
4.03651e-12
-4.26127e-12
2.05615e-12
-6.19402e-12
4.86827e-12
-5.1789e-12
2.61543e-12
-5.72987e-12
5.82596e-12
-6.27067e-12
3.51376e-12
-4.25088e-12
6.927e-12
-7.6014e-12
5.02683e-12
-9.47728e-13
8.20576e-12
-9.31935e-12
7.2545e-12
5.00089e-12
9.63786e-12
-1.1579e-11
1.48293e-11
1.20827e-11
-1.75383e-11
4.6508e-13
-7.91166e-13
4.4898e-13
-4.63807e-13
8.88561e-13
-2.30518e-12
1.32331e-12
-1.36769e-12
1.28774e-12
-3.71147e-12
2.18056e-12
-2.25577e-12
1.67845e-12
-5.06023e-12
3.07744e-12
-3.1877e-12
2.07608e-12
-6.38599e-12
4.06499e-12
-4.21761e-12
2.497e-12
-7.70592e-12
5.19102e-12
-5.39695e-12
2.96044e-12
-9.01613e-12
6.50149e-12
-6.77648e-12
3.49134e-12
-1.02849e-11
8.04095e-12
-8.4073e-12
4.12532e-12
-1.14403e-11
9.8513e-12
-1.0341e-11
4.91834e-12
-1.23505e-11
1.19686e-11
-1.26293e-11
5.9661e-12
-1.27927e-11
1.44185e-11
-1.5325e-11
7.44308e-12
-1.24127e-11
1.72117e-11
-1.84915e-11
9.66086e-12
-1.06943e-11
2.03435e-11
-2.22314e-11
1.30768e-11
-7.04566e-12
2.37801e-11
-2.67357e-11
1.76121e-11
-1.51674e-12
2.72857e-11
-3.20224e-11
5.06015e-12
2.99879e-11
-3.87235e-11
7.62482e-13
-1.15733e-12
7.35521e-13
-7.59809e-13
1.4563e-12
-3.37325e-12
2.16754e-12
-2.2402e-12
2.10929e-12
-5.43498e-12
3.57058e-12
-3.69362e-12
2.74677e-12
-7.41847e-12
5.03689e-12
-5.21706e-12
3.39334e-12
-9.378e-12
6.64937e-12
-6.89843e-12
4.07474e-12
-1.13448e-11
8.48576e-12
-8.82133e-12
4.82033e-12
-1.33234e-11
1.06208e-11
-1.10681e-11
5.6664e-12
-1.52839e-11
1.31269e-11
-1.37212e-11
6.66104e-12
-1.71497e-11
1.60718e-11
-1.68631e-11
7.87225e-12
-1.87778e-11
1.95116e-11
-2.05724e-11
9.40213e-12
-1.99336e-11
2.34793e-11
-2.49191e-11
1.14105e-11
-2.02689e-11
2.79649e-11
-2.99584e-11
1.41322e-11
-1.93437e-11
3.28851e-11
-3.57246e-11
1.78055e-11
-1.6798e-11
3.8022e-11
-4.22057e-11
2.20166e-11
-1.29606e-11
4.28387e-11
-4.89726e-11
-8.72038e-12
4.66345e-11
-5.71723e-11
1.04162e-12
-1.48811e-12
1.00368e-12
-1.03678e-12
1.98848e-12
-4.33926e-12
2.95711e-12
-3.05609e-12
2.87761e-12
-6.99779e-12
4.86896e-12
-5.03639e-12
3.74254e-12
-9.56553e-12
6.86372e-12
-7.10856e-12
4.61567e-12
-1.21183e-11
9.0532e-12
-9.39108e-12
5.53038e-12
-1.47058e-11
1.15422e-11
-1.19966e-11
6.52363e-12
-1.7349e-11
1.44319e-11
-1.5036e-11
7.63875e-12
-2.00341e-11
1.78204e-11
-1.86205e-11
8.92849e-12
-2.27028e-11
2.18002e-11
-2.28605e-11
1.04578e-11
-2.5236e-11
2.64488e-11
-2.78603e-11
1.23066e-11
-2.74334e-11
3.18102e-11
-3.37052e-11
1.45686e-11
-2.89941e-11
3.78626e-11
-4.04405e-11
1.73316e-11
-2.95248e-11
4.44609e-11
-4.80317e-11
2.0595e-11
-2.86405e-11
5.12374e-11
-5.6289e-11
2.3867e-11
-2.63859e-11
5.73936e-11
-6.44602e-11
-2.31192e-11
6.18796e-11
-7.3311e-11
1.29643e-12
-1.77177e-12
1.24737e-12
-1.28842e-12
2.4733e-12
-5.16897e-12
3.67388e-12
-3.79654e-12
3.57517e-12
-8.34453e-12
6.0452e-12
-6.25243e-12
4.64219e-12
-1.14254e-11
8.5137e-12
-8.81624e-12
5.71292e-12
-1.45096e-11
1.1216e-11
-1.16327e-11
6.82662e-12
-1.76683e-11
1.42801e-11
-1.48391e-11
8.02573e-12
-2.09452e-11
1.78297e-11
-1.85707e-11
9.35825e-12
-2.43534e-11
2.19858e-11
-2.29636e-11
1.0879e-11
-2.78704e-11
2.68645e-11
-2.8154e-11
1.26486e-11
-3.14279e-11
3.25671e-11
-3.42728e-11
1.47267e-11
-3.48957e-11
3.91606e-11
-4.14297e-11
1.71558e-11
-3.80573e-11
4.66379e-11
-4.96844e-11
1.99171e-11
-4.05712e-11
5.48434e-11
-5.89853e-11
2.2842e-11
-4.1926e-11
6.33239e-11
-6.9043e-11
2.53769e-11
-4.15993e-11
7.10189e-11
-7.88124e-11
-3.89239e-11
7.64765e-11
-8.86474e-11
1.52205e-12
-1.9971e-12
1.4617e-12
-1.50964e-12
2.90136e-12
-5.82952e-12
4.30332e-12
-4.44648e-12
4.1881e-12
-9.42147e-12
7.07486e-12
-7.31642e-12
5.42725e-12
-1.29226e-11
9.95135e-12
-1.03034e-11
6.66171e-12
-1.64524e-11
1.30891e-11
-1.35728e-11
7.93481e-12
-2.01038e-11
1.66342e-11
-1.72813e-11
9.29283e-12
-2.39454e-11
2.07279e-11
-2.15827e-11
1.07874e-11
-2.80224e-11
2.55093e-11
-2.66325e-11
1.24769e-11
-3.2357e-11
3.11143e-11
-3.25886e-11
1.4425e-11
-3.69461e-11
3.76689e-11
-3.96076e-11
1.66951e-11
-4.17573e-11
4.52727e-11
-4.78338e-11
1.93352e-11
-4.67149e-11
5.39654e-11
-5.73748e-11
2.23354e-11
-5.16535e-11
6.36531e-11
-6.82423e-11
2.55322e-11
-5.61881e-11
7.39286e-11
-8.02003e-11
2.83114e-11
-5.94833e-11
8.35968e-11
-9.2059e-11
-5.93443e-11
9.08733e-11
-1.04001e-10
1.71499e-12
-2.15399e-12
1.6432e-12
-1.69687e-12
3.26604e-12
-6.29113e-12
4.83517e-12
-4.99532e-12
4.70681e-12
-1.01795e-11
7.94088e-12
-8.21072e-12
6.08515e-12
-1.39874e-11
1.1152e-11
-1.15444e-11
7.44634e-12
-1.78524e-11
1.46388e-11
-1.51765e-11
8.83572e-12
-2.18867e-11
1.85592e-11
-1.92761e-11
1.03015e-11
-2.61817e-11
2.30654e-11
-2.40087e-11
1.18978e-11
-3.08123e-11
2.83073e-11
-2.95411e-11
1.36869e-11
-3.58416e-11
3.44334e-11
-3.60444e-11
1.57416e-11
-4.13272e-11
4.1587e-11
-4.36935e-11
1.81478e-11
-4.73315e-11
4.98978e-11
-5.26638e-11
2.10064e-11
-5.39348e-11
5.94629e-11
-6.3123e-11
2.44239e-11
-6.12437e-11
7.02977e-11
-7.52004e-11
2.8449e-11
-6.93387e-11
8.21752e-11
-8.88651e-11
3.25652e-11
-7.77634e-11
9.39991e-11
-1.03043e-10
-8.61154e-11
1.03878e-10
-1.18412e-10
1.87333e-12
1.79002e-12
-1.84821e-12
-2.23401e-12
3.56388e-12
5.26407e-12
-5.43757e-12
-6.52904e-12
5.12662e-12
8.63468e-12
-8.92652e-12
-1.05776e-11
6.61015e-12
1.21037e-11
-1.25271e-11
-1.45609e-11
8.05996e-12
1.5849e-11
-1.64273e-11
-1.86292e-11
9.52117e-12
2.00338e-11
-2.08017e-11
-2.29089e-11
1.10413e-11
2.48134e-11
-2.58191e-11
-2.75081e-11
1.26738e-11
3.03392e-11
-3.16475e-11
-3.25222e-11
1.44812e-11
3.67599e-11
-3.8458e-11
-3.80407e-11
1.65406e-11
4.42205e-11
-4.64261e-11
-4.41557e-11
1.89518e-11
5.28576e-11
-5.57332e-11
-5.09749e-11
2.18517e-11
6.2792e-11
-6.65696e-11
-5.86424e-11
2.54282e-11
7.41022e-11
-7.91292e-11
-6.73611e-11
2.98835e-11
8.67094e-11
-9.35424e-11
-7.73775e-11
3.47487e-11
9.9642e-11
-1.08881e-10
-8.82616e-11
1.12068e-10
-1.27654e-10
-1.02536e-10
1.5778e-13
-4.10411e-13
1.40494e-13
3.01301e-13
-1.19565e-12
4.1395e-13
4.36311e-13
-1.92467e-12
6.8164e-13
5.68006e-13
-2.62345e-12
9.6101e-13
7.01304e-13
-3.30967e-12
1.26758e-12
8.41226e-13
-3.99169e-12
1.61553e-12
9.93455e-13
-4.66655e-12
2.018e-12
1.1652e-12
-5.31648e-12
2.48676e-12
1.36679e-12
-5.90247e-12
3.03124e-12
1.61508e-12
-6.35332e-12
3.65614e-12
1.94089e-12
-6.54711e-12
4.35712e-12
2.4048e-12
-6.27929e-12
5.11326e-12
3.12395e-12
-5.20857e-12
5.8728e-12
4.28334e-12
-2.8027e-12
6.52287e-12
5.89892e-12
1.35087e-12
6.84868e-12
6.8755e-12
6.55862e-12
4.69472e-13
-8.08653e-13
4.17826e-13
8.96391e-13
-2.35635e-12
1.23098e-12
1.29772e-12
-3.79473e-12
2.02671e-12
1.68871e-12
-5.17596e-12
2.85671e-12
2.08381e-12
-6.53642e-12
3.76691e-12
2.49764e-12
-7.89519e-12
4.79937e-12
2.94642e-12
-9.25081e-12
5.99298e-12
3.45e-12
-1.05755e-11
7.38268e-12
4.03526e-12
-1.18052e-11
8.99628e-12
4.74305e-12
-1.28239e-11
1.08472e-11
5.64238e-12
-1.34433e-11
1.29208e-11
6.85798e-12
-1.33826e-11
1.515e-11
8.60682e-12
-1.22783e-11
1.73702e-11
1.11718e-11
-9.82348e-12
1.92389e-11
1.43987e-11
-6.30998e-12
2.01855e-11
-3.57667e-12
1.88428e-11
7.69855e-13
-1.18282e-12
6.84503e-13
1.46953e-12
-3.44782e-12
2.01635e-12
2.12637e-12
-5.55636e-12
3.3188e-12
2.76489e-12
-7.5872e-12
4.6759e-12
3.4082e-12
-9.59718e-12
6.16231e-12
4.07944e-12
-1.16201e-11
7.84652e-12
4.80346e-12
-1.36633e-11
9.79197e-12
5.60891e-12
-1.57017e-11
1.2056e-11
6.53091e-12
-1.7667e-11
1.46846e-11
7.61529e-12
-1.94335e-11
1.77007e-11
8.92629e-12
-2.08018e-11
2.10817e-11
1.05579e-11
-2.14968e-11
2.47189e-11
1.26351e-11
-2.12225e-11
2.83475e-11
1.52381e-11
-1.9865e-11
3.14436e-11
1.80005e-11
-1.7925e-11
3.32224e-11
-1.69061e-11
3.24773e-11
1.05207e-12
-1.52077e-12
9.34117e-13
2.00737e-12
-4.43483e-12
2.75103e-12
2.90244e-12
-7.15338e-12
4.52598e-12
3.76983e-12
-9.78179e-12
6.37246e-12
4.6402e-12
-1.2399e-11
8.39121e-12
5.54382e-12
-1.50576e-11
1.06747e-11
6.51228e-12
-1.77815e-11
1.33091e-11
7.57983e-12
-2.05612e-11
1.6373e-11
8.78379e-12
-2.33453e-11
1.99313e-11
1.01631e-11
-2.60284e-11
2.40203e-11
1.17536e-11
-2.84373e-11
2.86194e-11
1.3575e-11
-3.03272e-11
3.36e-11
1.55992e-11
-3.14135e-11
3.86391e-11
1.76791e-11
-3.15029e-11
4.30988e-11
1.94113e-11
-3.07961e-11
4.60225e-11
-3.03556e-11
4.60395e-11
1.31004e-12
-1.81054e-12
1.16103e-12
2.49814e-12
-5.28246e-12
3.41821e-12
3.6084e-12
-8.52931e-12
5.62003e-12
4.68006e-12
-1.16822e-11
7.90548e-12
5.74986e-12
-1.48427e-11
1.03977e-11
6.8539e-12
-1.80849e-11
1.32099e-11
8.02912e-12
-2.14552e-11
1.64478e-11
9.31418e-12
-2.49699e-11
2.02092e-11
1.07481e-11
-2.86107e-11
2.45778e-11
1.23647e-11
-3.23165e-11
2.96074e-11
1.41788e-11
-3.59711e-11
3.5292e-11
1.61568e-11
-3.93866e-11
4.15089e-11
1.81596e-11
-4.22778e-11
4.79194e-11
1.98683e-11
-4.4243e-11
5.38153e-11
2.08137e-11
-4.48903e-11
5.80458e-11
-4.45147e-11
5.8959e-11
1.53887e-12
-2.04072e-12
1.36069e-12
2.93231e-12
-5.9572e-12
4.00439e-12
4.2302e-12
-9.6294e-12
6.57829e-12
5.47678e-12
-1.32116e-11
9.24207e-12
6.71335e-12
-1.68271e-11
1.21368e-11
7.98035e-12
-2.05718e-11
1.53918e-11
9.31909e-12
-2.45164e-11
1.91282e-11
1.07727e-11
-2.87081e-11
2.34593e-11
1.23854e-11
-3.317e-11
2.84847e-11
1.41965e-11
-3.78999e-11
3.42772e-11
1.62289e-11
-4.28662e-11
4.08533e-11
1.84604e-11
-4.7994e-11
4.8119e-11
2.07664e-11
-5.31186e-11
5.57631e-11
2.28268e-11
-5.78591e-11
6.30687e-11
2.40811e-11
-6.14198e-11
6.87244e-11
-6.23129e-11
7.07956e-11
1.73495e-12
-2.20097e-12
1.52989e-12
3.30304e-12
-6.4287e-12
4.50002e-12
4.75789e-12
-1.04036e-11
7.38485e-12
6.14684e-12
-1.4299e-11
1.03593e-11
7.51395e-12
-1.82564e-11
1.35771e-11
8.90229e-12
-2.2391e-11
1.71784e-11
1.0356e-11
-2.67958e-11
2.1294e-11
1.19223e-11
-3.15463e-11
2.60463e-11
1.36522e-11
-3.67042e-11
3.15453e-11
1.55992e-11
-4.2323e-11
3.78768e-11
1.78172e-11
-4.84562e-11
4.50784e-11
2.03506e-11
-5.51666e-11
5.30907e-11
2.32114e-11
-6.25245e-11
6.16551e-11
2.6306e-11
-7.05347e-11
7.01016e-11
2.91495e-11
-7.86916e-11
7.70259e-11
-8.6016e-11
8.01631e-11
1.89623e-12
1.66687e-12
-2.28272e-12
3.6066e-12
4.90009e-12
-6.67172e-12
5.18629e-12
8.03168e-12
-1.08102e-11
6.6837e-12
1.1246e-11
-1.48846e-11
8.14359e-12
1.47037e-11
-1.90491e-11
9.60942e-12
1.85499e-11
-2.34331e-11
1.11259e-11
2.29183e-11
-2.81459e-11
1.27412e-11
2.79328e-11
-3.32828e-11
1.451e-11
3.37037e-11
-3.893e-11
1.64958e-11
4.03182e-11
-4.51726e-11
1.87759e-11
4.78191e-11
-5.21045e-11
2.14474e-11
5.61637e-11
-5.98431e-11
2.463e-11
6.5132e-11
-6.854e-11
2.84155e-11
7.41267e-11
-7.8338e-11
3.23631e-11
8.17526e-11
-8.87287e-11
8.53989e-11
-1.00979e-10
1.58546e-13
-4.18176e-13
1.25052e-13
3.02504e-13
-1.2184e-12
3.68308e-13
4.37378e-13
-1.96177e-12
6.06008e-13
5.68003e-13
-2.67509e-12
8.53325e-13
6.98751e-13
-3.37695e-12
1.12355e-12
8.33734e-13
-4.07688e-12
1.42852e-12
9.77092e-13
-4.77375e-12
1.77855e-12
1.1334e-12
-5.45316e-12
2.18195e-12
1.30836e-12
-6.08296e-12
2.64339e-12
1.51047e-12
-6.60647e-12
3.16072e-12
1.75463e-12
-6.93307e-12
3.71906e-12
2.06933e-12
-6.92654e-12
4.28071e-12
2.50562e-12
-6.3942e-12
4.76859e-12
3.12572e-12
-5.10184e-12
5.04496e-12
3.86455e-12
-2.98787e-12
4.93556e-12
-2.64968e-13
4.45946e-12
4.71818e-13
-8.23886e-13
3.71909e-13
9.00122e-13
-2.40097e-12
1.09528e-12
1.30116e-12
-3.86744e-12
1.80189e-12
1.68919e-12
-5.27706e-12
2.5367e-12
2.07706e-12
-6.66791e-12
3.33908e-12
2.4768e-12
-8.06109e-12
4.24408e-12
2.90027e-12
-9.45825e-12
5.28242e-12
3.35986e-12
-1.08371e-11
6.47884e-12
3.86967e-12
-1.21447e-11
7.84754e-12
4.44781e-12
-1.32878e-11
9.38272e-12
5.12173e-12
-1.41248e-11
1.10417e-11
5.93737e-12
-1.44686e-11
1.2716e-11
6.96387e-12
-1.41304e-11
1.41877e-11
8.24652e-12
-1.30652e-11
1.50831e-11
9.55952e-12
-1.16727e-11
1.49755e-11
-1.12075e-11
1.3571e-11
7.73932e-13
-1.20498e-12
6.09314e-13
1.47614e-12
-3.5127e-12
1.79419e-12
2.13292e-12
-5.66198e-12
2.95083e-12
2.76725e-12
-7.73385e-12
4.15242e-12
3.39983e-12
-9.78737e-12
5.46296e-12
4.04986e-12
-1.18588e-11
6.93958e-12
4.73565e-12
-1.39589e-11
8.63264e-12
5.47488e-12
-1.60686e-11
1.05832e-11
6.28404e-12
-1.81311e-11
1.2816e-11
7.17713e-12
-2.00437e-11
1.5325e-11
8.16292e-12
-2.16531e-11
1.8048e-11
9.23845e-12
-2.27724e-11
2.08249e-11
1.03684e-11
-2.32567e-11
2.33403e-11
1.14256e-11
-2.31886e-11
2.50814e-11
1.21031e-11
-2.3083e-11
2.55151e-11
-2.3898e-11
2.46278e-11
1.05811e-12
-1.54908e-12
8.31581e-13
2.01743e-12
-4.5177e-12
2.44814e-12
2.9132e-12
-7.28815e-12
4.02459e-12
3.77614e-12
-9.96858e-12
5.65973e-12
4.63395e-12
-1.26404e-11
7.44e-12
5.51214e-12
-1.53586e-11
9.44269e-12
6.43446e-12
-1.81502e-11
1.17365e-11
7.42217e-12
-2.101e-11
1.43785e-11
8.49098e-12
-2.38954e-11
1.74056e-11
9.64384e-12
-2.67175e-11
2.08172e-11
1.08563e-11
-2.9337e-11
2.45444e-11
1.20488e-11
-3.15729e-11
2.84024e-11
1.30416e-11
-3.32524e-11
3.20268e-11
1.35175e-11
-3.43358e-11
3.48372e-11
1.31889e-11
-3.50669e-11
3.622e-11
-3.61458e-11
3.61354e-11
1.31831e-12
-1.84404e-12
1.0337e-12
2.51227e-12
-5.38046e-12
3.04224e-12
3.62462e-12
-8.68855e-12
4.99812e-12
4.69264e-12
-1.19025e-11
7.02239e-12
5.74995e-12
-1.51264e-11
9.22081e-12
6.82757e-12
-1.84365e-11
1.16881e-11
7.9542e-12
-2.18808e-11
1.4509e-11
9.15504e-12
-2.54777e-11
1.77553e-11
1.0447e-11
-2.92121e-11
2.14767e-11
1.18276e-11
-3.30294e-11
2.56827e-11
1.32523e-11
-3.68272e-11
3.03089e-11
1.45914e-11
-4.04453e-11
3.51662e-11
1.55632e-11
-4.36543e-11
3.98705e-11
1.56941e-11
-4.61508e-11
4.37934e-11
1.4639e-11
-4.76347e-11
4.62071e-11
-4.82782e-11
4.69539e-11
1.54957e-12
-2.07825e-12
1.21165e-12
2.95105e-12
-6.067e-12
3.56449e-12
4.253e-12
-9.80767e-12
5.85131e-12
5.49778e-12
-1.34579e-11
8.21126e-12
6.72368e-12
-1.71433e-11
1.07656e-11
7.96626e-12
-2.09613e-11
1.36227e-11
9.25898e-12
-2.49831e-11
1.68799e-11
1.06323e-11
-2.92547e-11
2.06209e-11
1.21096e-11
-3.37968e-11
2.49068e-11
1.36969e-11
-3.86022e-11
2.97578e-11
1.53617e-11
-4.36309e-11
3.51199e-11
1.69919e-11
-4.87945e-11
4.08109e-11
1.8325e-11
-5.39096e-11
4.64409e-11
1.88818e-11
-5.85843e-11
5.13374e-11
1.82e-11
-6.20666e-11
5.46417e-11
-6.29367e-11
5.60971e-11
1.74823e-12
-2.24127e-12
1.36254e-12
3.32676e-12
-6.54654e-12
4.00638e-12
4.78806e-12
-1.05948e-11
6.57001e-12
6.17784e-12
-1.4563e-11
9.20594e-12
7.53748e-12
-1.85946e-11
1.20464e-11
8.90572e-12
-2.28057e-11
1.52091e-11
1.03198e-11
-2.72887e-11
1.87994e-11
1.18159e-11
-3.21154e-11
2.2908e-11
1.34269e-11
-3.73399e-11
2.76029e-11
1.51775e-11
-4.30018e-11
3.29117e-11
1.70733e-11
-4.91282e-11
3.87887e-11
1.90773e-11
-5.57342e-11
4.50592e-11
2.10693e-11
-6.28029e-11
5.13291e-11
2.27814e-11
-7.01962e-11
5.68719e-11
2.37723e-11
-7.72962e-11
6.06647e-11
-8.30086e-11
6.227e-11
1.9121e-12
1.48481e-12
-2.32436e-12
3.63538e-12
4.36339e-12
-6.79353e-12
5.22415e-12
7.14696e-12
-1.10079e-11
6.72549e-12
9.99637e-12
-1.51573e-11
8.18194e-12
1.305e-11
-1.93982e-11
9.63342e-12
1.64299e-11
-2.38602e-11
1.11189e-11
2.0244e-11
-2.8651e-11
1.26776e-11
2.45842e-11
-3.38607e-11
1.43496e-11
2.95184e-11
-3.95652e-11
1.61749e-11
3.50739e-11
-4.58302e-11
1.81913e-11
4.12059e-11
-5.27152e-11
2.04276e-11
4.77419e-11
-6.02766e-11
2.28873e-11
5.42872e-11
-6.85574e-11
2.54938e-11
6.00941e-11
-7.75245e-11
2.78239e-11
6.40371e-11
-8.65484e-11
6.50223e-11
-9.64511e-11
1.58753e-13
-4.24684e-13
1.05313e-13
3.026e-13
-1.23748e-12
3.10065e-13
4.36727e-13
-1.99287e-12
5.09812e-13
5.65546e-13
-2.71838e-12
7.17053e-13
6.92777e-13
-3.43339e-12
9.42559e-13
8.21511e-13
-4.14849e-12
1.19561e-12
9.54237e-13
-4.86432e-12
1.48384e-12
1.09282e-12
-5.56978e-12
1.81255e-12
1.23846e-12
-6.23921e-12
2.18308e-12
1.39196e-12
-6.82883e-12
2.58981e-12
1.55487e-12
-7.27331e-12
3.01521e-12
1.73221e-12
-7.48464e-12
3.42294e-12
1.93548e-12
-7.35504e-12
3.75048e-12
2.17626e-12
-6.76933e-12
3.91022e-12
2.41448e-12
-5.68996e-12
3.83338e-12
-3.88819e-12
3.74317e-12
4.7252e-13
-8.36649e-13
3.13216e-13
9.00589e-13
-2.43836e-12
9.22115e-13
1.29955e-12
-3.92832e-12
1.51593e-12
1.68242e-12
-5.36165e-12
2.1317e-12
2.06021e-12
-6.7778e-12
2.80133e-12
2.44202e-12
-8.19971e-12
3.55235e-12
2.83502e-12
-9.63191e-12
4.40751e-12
3.24405e-12
-1.10575e-11
5.38277e-12
3.67073e-12
-1.24336e-11
6.48255e-12
4.11264e-12
-1.36868e-11
7.69118e-12
4.56307e-12
-1.47123e-11
8.95895e-12
5.01226e-12
-1.5387e-11
1.01831e-11
5.4474e-12
-1.56142e-11
1.11893e-11
5.83881e-12
-1.54197e-11
1.17406e-11
6.09331e-12
-1.50669e-11
1.16694e-11
-1.5178e-11
1.10313e-11
7.75354e-13
-1.22352e-12
5.1319e-13
1.4775e-12
-3.56697e-12
1.51064e-12
2.13131e-12
-5.75021e-12
2.48274e-12
2.75789e-12
-7.85606e-12
3.48978e-12
3.37512e-12
-9.94531e-12
4.58365e-12
3.99778e-12
-1.20563e-11
5.80928e-12
4.63721e-12
-1.42028e-11
7.20414e-12
5.2999e-12
-1.63711e-11
8.79505e-12
5.98459e-12
-1.85144e-11
1.05911e-11
6.67713e-12
-2.05492e-11
1.25706e-11
7.3426e-12
-2.23567e-11
1.4661e-11
7.91448e-12
-2.38061e-11
1.67126e-11
8.28279e-12
-2.48232e-11
1.84779e-11
8.29978e-12
-2.55196e-11
1.96384e-11
7.90424e-12
-2.62469e-11
1.99916e-11
-2.74901e-11
1.98245e-11
1.06058e-12
-1.57273e-12
7.00464e-13
2.02042e-12
-4.58684e-12
2.06146e-12
2.91299e-12
-7.40032e-12
3.38655e-12
3.76671e-12
-1.01234e-11
4.75716e-12
4.60579e-12
-1.28392e-11
6.24338e-12
5.4504e-12
-1.56047e-11
7.90615e-12
6.31588e-12
-1.84487e-11
9.79677e-12
7.21039e-12
-2.13698e-11
1.19531e-11
8.12933e-12
-2.43315e-11
1.43909e-11
9.04478e-12
-2.72572e-11
1.7088e-11
9.88741e-12
-3.00296e-11
1.99608e-11
1.0519e-11
-3.25028e-11
2.28357e-11
1.07057e-11
-3.45475e-11
2.54305e-11
1.01547e-11
-3.61383e-11
2.73947e-11
8.85991e-12
-3.74109e-11
2.84955e-11
-3.87405e-11
2.90012e-11
1.3222e-12
-1.87193e-12
8.70835e-13
2.51773e-12
-5.46195e-12
2.56208e-12
3.62742e-12
-8.8205e-12
4.20636e-12
4.686e-12
-1.20839e-11
5.90346e-12
5.72336e-12
-1.53579e-11
7.73924e-12
6.76475e-12
-1.87198e-11
9.78846e-12
7.83003e-12
-2.22181e-11
1.21147e-11
8.93077e-12
-2.58715e-11
1.4766e-11
1.00633e-11
-2.96652e-11
1.77658e-11
1.11949e-11
-3.35458e-11
2.10955e-11
1.22391e-11
-3.74139e-11
2.46688e-11
1.30149e-11
-4.1115e-11
2.83013e-11
1.3202e-11
-4.4426e-11
3.16915e-11
1.23731e-11
-4.7041e-11
3.44605e-11
1.04639e-11
-4.86234e-11
3.63166e-11
-4.91697e-11
3.74672e-11
1.55524e-12
-2.10941e-12
1.0209e-12
2.95981e-12
-6.15796e-12
3.00237e-12
4.26036e-12
-9.95469e-12
4.92524e-12
5.49672e-12
-1.36594e-11
6.90422e-12
6.70348e-12
-1.7399e-11
9.03782e-12
7.91058e-12
-2.12709e-11
1.14118e-11
9.14287e-12
-2.53451e-11
1.40994e-11
1.04179e-11
-2.96644e-11
1.71569e-11
1.17396e-11
-3.42429e-11
2.06144e-11
1.30863e-11
-3.90629e-11
2.44574e-11
1.43877e-11
-4.40664e-11
2.85998e-11
1.54861e-11
-4.91362e-11
3.2849e-11
1.6086e-11
-5.40459e-11
3.68804e-11
1.57549e-11
-5.83534e-11
4.0267e-11
1.42968e-11
-6.13066e-11
4.26374e-11
-6.15148e-11
4.41907e-11
1.75595e-12
-2.2746e-12
1.14823e-12
3.33945e-12
-6.64381e-12
3.37517e-12
4.80123e-12
-1.07519e-11
5.53123e-12
6.18464e-12
-1.47776e-11
7.74225e-12
7.52765e-12
-1.88657e-11
1.01158e-11
8.86386e-12
-2.31313e-11
1.27451e-11
1.02228e-11
-2.76639e-11
1.57094e-11
1.16289e-11
-3.25289e-11
1.90702e-11
1.3098e-11
-3.77686e-11
2.28609e-11
1.46306e-11
-4.3402e-11
2.7069e-11
1.61984e-11
-4.94219e-11
3.16063e-11
1.77227e-11
-5.57861e-11
3.62689e-11
1.90477e-11
-6.23886e-11
4.06969e-11
1.99345e-11
-6.89783e-11
4.4379e-11
2.01783e-11
-7.492e-11
4.68167e-11
-7.9205e-11
4.81895e-11
1.92201e-12
1.25148e-12
-2.35872e-12
3.6524e-12
3.67659e-12
-6.89374e-12
5.24393e-12
6.01816e-12
-1.11696e-11
6.74164e-12
8.409e-12
-1.5378e-11
8.18514e-12
1.09618e-11
-1.96761e-11
9.60992e-12
1.37735e-11
-2.41921e-11
1.10483e-11
1.69254e-11
-2.90298e-11
1.25297e-11
2.04796e-11
-3.42708e-11
1.40797e-11
2.44688e-11
-3.99761e-11
1.5718e-11
2.88783e-11
-4.61862e-11
1.74534e-11
3.36154e-11
-5.29189e-11
1.92769e-11
3.8465e-11
-6.01641e-11
2.1154e-11
4.3038e-11
-6.78658e-11
2.30141e-11
4.67508e-11
-7.58728e-11
2.46291e-11
4.89834e-11
-8.35711e-11
4.95004e-11
-9.17762e-11
1.58586e-13
-4.2987e-13
8.20626e-14
3.01977e-13
-1.25267e-12
2.41538e-13
4.3504e-13
-2.01762e-12
3.96897e-13
5.61754e-13
-2.75283e-12
5.577e-13
6.85208e-13
-3.47825e-12
7.32044e-13
8.07544e-13
-4.20529e-12
9.26694e-13
9.29826e-13
-4.93597e-12
1.14691e-12
1.05173e-12
-5.66168e-12
1.3958e-12
1.17115e-12
-6.36132e-12
1.673e-12
1.28402e-12
-6.99933e-12
1.97249e-12
1.38489e-12
-7.52441e-12
2.27951e-12
1.46959e-12
-7.87e-12
2.56756e-12
1.54064e-12
-7.9542e-12
2.79788e-12
1.61197e-12
-7.67267e-12
2.92835e-12
1.69026e-12
-6.92814e-12
2.94091e-12
-5.2968e-12
3.05545e-12
4.72114e-13
-8.46827e-13
2.44074e-13
8.98934e-13
-2.46816e-12
7.18355e-13
1.29486e-12
-3.9768e-12
1.18024e-12
1.67169e-12
-5.42888e-12
1.65806e-12
2.03859e-12
-6.86489e-12
2.17579e-12
2.40199e-12
-8.30911e-12
2.75354e-12
2.765e-12
-9.76826e-12
3.40701e-12
3.12635e-12
-1.12293e-11
4.14562e-12
3.47868e-12
-1.26562e-11
4.96872e-12
3.80674e-12
-1.39878e-11
5.85931e-12
4.08679e-12
-1.51388e-11
6.77552e-12
4.29014e-12
-1.60115e-11
7.64215e-12
4.39488e-12
-1.65271e-11
8.34986e-12
4.40784e-12
-1.66787e-11
8.77984e-12
4.37808e-12
-1.65853e-11
8.88225e-12
-1.66132e-11
8.67948e-12
7.74971e-13
-1.2383e-12
3.99934e-13
1.47539e-12
-3.61021e-12
1.17693e-12
2.12466e-12
-5.82037e-12
1.93314e-12
2.74198e-12
-7.95288e-12
2.71464e-12
3.34247e-12
-1.00698e-11
3.56046e-12
3.93685e-12
-1.22108e-11
4.50349e-12
4.53041e-12
-1.43919e-11
5.56963e-12
5.12075e-12
-1.66027e-11
6.77499e-12
5.69397e-12
-1.88028e-11
8.12007e-12
6.21905e-12
-2.09192e-11
9.58031e-12
6.64147e-12
-2.28489e-11
1.10939e-11
6.87984e-12
-2.4479e-11
1.25509e-11
6.83756e-12
-2.5738e-11
1.37948e-11
6.45961e-12
-2.66836e-11
1.46633e-11
5.88734e-12
-2.75286e-11
1.50924e-11
-2.86026e-11
1.52484e-11
1.06059e-12
-1.59155e-12
5.45938e-13
2.01867e-12
-4.64182e-12
1.60625e-12
2.90587e-12
-7.48925e-12
2.63719e-12
3.7482e-12
-1.02454e-11
3.70097e-12
4.56652e-12
-1.29948e-11
4.85036e-12
5.37605e-12
-1.5795e-11
6.13002e-12
6.18489e-12
-1.86762e-11
7.57556e-12
6.99082e-12
-2.16384e-11
9.21009e-12
7.77512e-12
-2.46477e-11
1.10369e-11
8.49248e-12
-2.76321e-11
1.30284e-11
9.05648e-12
-3.04801e-11
1.51115e-11
9.32428e-12
-3.30501e-11
1.71568e-11
9.09981e-12
-3.52021e-11
1.89852e-11
8.22126e-12
-3.68615e-11
2.04194e-11
6.8935e-12
-3.80761e-11
2.13802e-11
-3.91492e-11
2.2004e-11
1.32303e-12
-1.89409e-12
6.78813e-13
2.51728e-12
-5.52658e-12
1.99659e-12
3.62153e-12
-8.92469e-12
3.27606e-12
4.66788e-12
-1.22261e-11
4.59346e-12
5.68256e-12
-1.55375e-11
6.01349e-12
6.68549e-12
-1.89362e-11
7.591e-12
7.68888e-12
-2.24701e-11
9.37026e-12
8.69358e-12
-2.61564e-11
1.1381e-11
9.68198e-12
-2.99776e-11
1.36302e-11
1.06054e-11
-3.38756e-11
1.60898e-11
1.13644e-11
-3.77434e-11
1.86808e-11
1.17829e-11
-4.14129e-11
2.12614e-11
1.15943e-11
-4.46362e-11
2.3636e-11
1.05207e-11
-4.70687e-11
2.56098e-11
8.6994e-12
-4.83515e-11
2.7071e-11
-4.84982e-11
2.81181e-11
1.55728e-12
-2.1341e-12
7.9591e-13
2.96156e-12
-6.22985e-12
2.34007e-12
4.25738e-12
-1.00703e-11
3.83655e-12
5.48193e-12
-1.38164e-11
5.37307e-12
6.66613e-12
-1.75955e-11
7.02392e-12
7.83464e-12
-2.15042e-11
8.8521e-12
9.00486e-12
-2.561e-11
1.09087e-11
1.01841e-11
-2.99506e-11
1.32286e-11
1.13636e-11
-3.45317e-11
1.5822e-11
1.25076e-11
-3.93214e-11
1.86608e-11
1.35364e-11
-4.42395e-11
2.16605e-11
1.43015e-11
-4.91356e-11
2.46652e-11
1.45663e-11
-5.37395e-11
2.74535e-11
1.40483e-11
-5.75716e-11
2.9792e-11
1.27408e-11
-5.9919e-11
3.15284e-11
-5.95609e-11
3.27827e-11
1.75953e-12
-2.30093e-12
8.95317e-13
3.34417e-12
-6.72043e-12
2.63104e-12
4.8026e-12
-1.08748e-11
4.30931e-12
6.1757e-12
-1.4944e-11
6.02641e-12
7.49798e-12
-1.90724e-11
7.86351e-12
8.79816e-12
-2.33737e-11
9.88922e-12
1.00989e-11
-2.79331e-11
1.21589e-11
1.14155e-11
-3.28081e-11
1.47105e-11
1.27526e-11
-3.80278e-11
1.75555e-11
1.40984e-11
-4.35896e-11
2.0664e-11
1.54169e-11
-4.94527e-11
2.39443e-11
1.66382e-11
-5.55263e-11
2.72219e-11
1.76592e-11
-6.16431e-11
3.02345e-11
1.83752e-11
-6.75068e-11
3.26761e-11
1.8756e-11
-7.25568e-11
3.43233e-11
-7.6034e-11
3.53497e-11
1.92737e-12
9.75969e-13
-2.38577e-12
3.66062e-12
2.86644e-12
-6.97244e-12
5.25067e-12
4.68948e-12
-1.12957e-11
6.74036e-12
6.54675e-12
-1.55482e-11
8.16622e-12
8.52346e-12
-1.98865e-11
9.55947e-12
1.0691e-11
-2.44367e-11
1.09464e-11
1.31062e-11
-2.92973e-11
1.23487e-11
1.58072e-11
-3.45403e-11
1.3782e-11
1.88042e-11
-4.02108e-11
1.52558e-11
2.20641e-11
-4.63241e-11
1.67716e-11
2.54877e-11
-5.28604e-11
1.83256e-11
2.88837e-11
-5.97574e-11
1.99226e-11
3.19525e-11
-6.68986e-11
2.1596e-11
3.43161e-11
-7.40955e-11
2.32662e-11
3.56684e-11
-8.08387e-11
3.59801e-11
-8.81605e-11
1.58238e-13
-4.33712e-13
5.61565e-14
3.01051e-13
-1.26392e-12
1.65252e-13
4.33023e-13
-2.03598e-12
2.71424e-13
5.57757e-13
-2.77837e-12
3.81118e-13
6.77814e-13
-3.51143e-12
4.99721e-13
7.94596e-13
-4.24708e-12
6.31623e-13
9.08114e-13
-4.98823e-12
7.80079e-13
1.01661e-12
-5.72777e-12
9.46743e-13
1.11612e-12
-6.44707e-12
1.1308e-12
1.2005e-12
-7.11436e-12
1.32768e-12
1.26258e-12
-7.68338e-12
1.52756e-12
1.29837e-12
-8.0921e-12
1.71452e-12
1.31557e-12
-8.25695e-12
1.86806e-12
1.34285e-12
-8.05504e-12
1.96972e-12
1.40906e-12
-7.34782e-12
2.01374e-12
-5.67028e-12
2.15515e-12
4.7117e-13
-8.54392e-13
1.67031e-13
8.96369e-13
-2.4903e-12
4.91502e-13
1.28917e-12
-4.01281e-12
8.0718e-13
1.66027e-12
-5.47873e-12
1.13315e-12
2.01736e-12
-6.92919e-12
1.48537e-12
2.36474e-12
-8.38931e-12
1.87691e-12
2.70256e-12
-9.86714e-12
2.31747e-12
3.02555e-12
-1.13518e-11
2.81214e-12
3.32139e-12
-1.28109e-11
3.35879e-12
3.56963e-12
-1.41882e-11
3.94442e-12
3.74341e-12
-1.5404e-11
4.54099e-12
3.8183e-12
-1.63628e-11
5.10296e-12
3.79431e-12
-1.69716e-11
5.57104e-12
3.72975e-12
-1.71747e-11
5.88906e-12
3.73341e-12
-1.70162e-11
6.03482e-12
-1.68132e-11
5.98547e-12
7.73691e-13
-1.24931e-12
2.73716e-13
1.47174e-12
-3.64238e-12
8.05335e-13
2.11625e-12
-5.87247e-12
1.32223e-12
2.72474e-12
-8.02452e-12
1.85542e-12
3.31005e-12
-1.01613e-11
2.43091e-12
3.87973e-12
-1.23233e-11
3.07005e-12
4.43464e-12
-1.45276e-11
3.78897e-12
4.96664e-12
-1.67655e-11
4.59644e-12
5.45506e-12
-1.8999e-11
5.49003e-12
5.86285e-12
-2.11581e-11
6.45057e-12
6.13462e-12
-2.31423e-11
7.43627e-12
6.20296e-12
-2.48339e-11
8.37968e-12
6.01632e-12
-2.6137e-11
9.19436e-12
5.60814e-12
-2.70507e-11
9.79973e-12
5.19228e-12
-2.77231e-11
1.01609e-11
-2.84858e-11
1.03361e-11
1.05933e-12
-1.60557e-12
3.73681e-13
2.0147e-12
-4.6827e-12
1.09923e-12
2.89608e-12
-7.55515e-12
1.80398e-12
3.72742e-12
-1.03354e-11
2.52986e-12
4.52676e-12
-1.31084e-11
3.31198e-12
5.30544e-12
-1.59322e-11
4.17942e-12
6.06633e-12
-1.88371e-11
5.1544e-12
6.80057e-12
-2.1823e-11
6.24965e-12
7.48225e-12
-2.48556e-11
7.46363e-12
8.06104e-12
-2.78614e-11
8.77382e-12
8.45412e-12
-3.07246e-11
1.01299e-11
8.54355e-12
-3.3292e-11
1.14512e-11
8.19838e-12
-3.53955e-11
1.26374e-11
7.36802e-12
-3.6912e-11
1.35989e-11
6.31915e-12
-3.78575e-11
1.42883e-11
-3.85753e-11
1.47383e-11
1.32217e-12
-1.91057e-12
4.64687e-13
2.51384e-12
-5.57453e-12
1.36653e-12
3.6119e-12
-9.00167e-12
2.24129e-12
4.64621e-12
-1.23305e-11
3.14034e-12
5.63988e-12
-1.56678e-11
4.10676e-12
6.6087e-12
-1.90905e-11
5.17634e-12
7.5593e-12
-2.26453e-11
6.37671e-12
8.48583e-12
-2.63467e-11
7.72438e-12
9.36396e-12
-3.01727e-11
9.21929e-12
1.01418e-11
-3.40577e-11
1.08372e-11
1.07278e-11
-3.78827e-11
1.25219e-11
1.09787e-11
-4.14604e-11
1.41827e-11
1.07059e-11
-4.45153e-11
1.5707e-11
9.75245e-12
-4.66747e-11
1.69934e-11
8.30373e-12
-4.75913e-11
1.79747e-11
-4.73587e-11
1.86623e-11
1.55719e-12
-2.15241e-12
5.44919e-13
2.95948e-12
-6.28305e-12
1.60182e-12
4.24947e-12
-1.01554e-11
2.62509e-12
5.46201e-12
-1.3931e-11
3.67384e-12
6.62495e-12
-1.77369e-11
4.79758e-12
7.75879e-12
-2.16686e-11
6.03745e-12
8.87553e-12
-2.57906e-11
7.42536e-12
9.97615e-12
-3.01353e-11
8.98075e-12
1.1046e-11
-3.46996e-11
1.07047e-11
1.20477e-11
-3.94378e-11
1.25712e-11
1.29116e-11
-4.42499e-11
1.45179e-11
1.35257e-11
-4.89591e-11
1.64415e-11
1.3734e-11
-5.32679e-11
1.82089e-11
1.3375e-11
-5.66885e-11
1.9693e-11
1.24821e-11
-5.85677e-11
2.08073e-11
-5.78442e-11
2.15888e-11
1.76055e-12
-2.32042e-12
6.13055e-13
3.34419e-12
-6.77697e-12
1.80123e-12
4.79774e-12
-1.0965e-11
2.94896e-12
6.15984e-12
-1.50647e-11
4.12117e-12
7.4621e-12
-1.92201e-11
5.37203e-12
8.72935e-12
-2.35426e-11
6.74636e-12
9.97929e-12
-2.81132e-11
8.27877e-12
1.12215e-11
-3.29819e-11
9.99029e-12
1.24555e-11
-3.81655e-11
1.1882e-11
1.36686e-11
-4.3643e-11
1.39252e-11
1.48351e-11
-4.93477e-11
1.60502e-11
1.59194e-11
-5.51571e-11
1.8137e-11
1.68926e-11
-6.08761e-11
2.00212e-11
1.77628e-11
-6.62125e-11
2.15273e-11
1.85387e-11
-7.07002e-11
2.25338e-11
-7.37737e-11
2.31382e-11
1.92972e-12
6.68356e-13
-2.40575e-12
3.66327e-12
1.96262e-12
-7.03038e-12
5.24987e-12
3.20954e-12
-1.13879e-11
6.73031e-12
4.47772e-12
-1.56712e-11
8.13853e-12
5.82409e-12
-2.0036e-11
9.50226e-12
7.29532e-12
-2.46056e-11
1.08435e-11
8.92696e-12
-2.94735e-11
1.21787e-11
1.074e-11
-3.47028e-11
1.35194e-11
1.27343e-11
-4.03248e-11
1.4874e-11
1.4878e-11
-4.63339e-11
1.62525e-11
1.70944e-11
-5.26831e-11
1.76793e-11
1.92488e-11
-5.92781e-11
1.92204e-11
2.11484e-11