/*--------------------------------*- C++ -*----------------------------------*\
| =========                 |                                                 |
| \\      /  F ield         | OpenFOAM: The Open Source CFD Toolbox           |
|  \\    /   O peration     | Version:  v1912                                 |
|   \\  /    A nd           | Website:  www.openfoam.com                      |
|    \\/     M anipulation  |                                                 |
\*---------------------------------------------------------------------------*/
FoamFile
{
    version     2.0;
    format      ascii;
    class       surfaceScalarField;
    location    "0.73/fluid";
    object      phi;
}
// * * * * * * * * * * * * * * * * * * * * * * * * * * * * * * * * * * * * * //

dimensions      [0 3 -1 0 0 0 0];
oriented        oriented;


internalField   nonuniform List<scalar> 
41600
(
5.01082e-05
1.25876e-05
3.47658e-07
-5.43517e-07
4.00205e-05
1.04398e-05
5.85338e-07
-9.37447e-07
3.259e-05
7.81016e-06
4.77255e-07
-8.56973e-07
2.80352e-05
4.88607e-06
1.07814e-07
-4.39049e-07
2.53568e-05
2.92422e-06
-4.66798e-07
2.21007e-07
2.37941e-05
1.7175e-06
-1.18996e-06
1.03514e-06
2.27834e-05
1.08094e-06
-2.06066e-06
1.99048e-06
2.19935e-05
7.77959e-07
-3.10944e-06
3.12133e-06
2.12361e-05
6.57788e-07
-4.40007e-06
4.49965e-06
2.03963e-05
6.12267e-07
-6.01917e-06
6.24669e-06
1.93988e-05
5.78822e-07
-8.11681e-06
8.53553e-06
1.81169e-05
4.59504e-07
-1.0819e-05
1.16413e-05
1.6369e-05
2.42459e-07
-1.45053e-05
1.60108e-05
1.36106e-05
-4.20584e-07
-1.88168e-05
2.19958e-05
8.59825e-06
-9.66352e-07
-2.37837e-05
2.97623e-05
-3.43625e-06
-1.9277e-05
3.13115e-05
6.48391e-05
1.05241e-05
4.8035e-07
-7.55871e-07
6.36453e-05
1.21664e-05
8.49625e-07
-1.38233e-06
6.129e-05
1.07968e-05
7.55172e-07
-1.38657e-06
5.87409e-05
8.04394e-06
2.3222e-07
-8.40948e-07
5.65284e-05
5.64034e-06
-6.79751e-07
1.76076e-07
5.47217e-05
3.88702e-06
-1.91033e-06
1.54753e-06
5.3183e-05
2.83545e-06
-3.44433e-06
3.22849e-06
5.17217e-05
2.30849e-06
-5.3213e-06
5.25216e-06
5.01592e-05
2.13558e-06
-7.64111e-06
7.7258e-06
4.83135e-05
2.16784e-06
-1.05555e-05
1.08456e-05
4.60016e-05
2.30087e-06
-1.4311e-05
1.49008e-05
4.28716e-05
2.40518e-06
-1.91594e-05
2.03437e-05
3.84647e-05
2.43142e-06
-2.56234e-05
2.78412e-05
3.14326e-05
1.94619e-06
-3.32204e-05
3.78857e-05
2.04124e-05
1.17107e-06
-4.09269e-05
4.98097e-05
-2.01253e-06
-3.22968e-05
5.12855e-05
6.63705e-05
6.95012e-06
5.25405e-07
-8.21946e-07
6.8793e-05
1.03318e-05
9.41359e-07
-1.52932e-06
6.98813e-05
1.04206e-05
8.61153e-07
-1.57331e-06
6.98469e-05
8.78138e-06
3.1567e-07
-1.01869e-06
6.91861e-05
6.90078e-06
-6.59846e-07
6.02222e-08
6.81828e-05
5.33989e-06
-2.00099e-06
1.55146e-06
6.69659e-05
4.33858e-06
-3.69428e-06
3.40799e-06
6.55326e-05
3.86205e-06
-5.78258e-06
5.66234e-06
6.38013e-05
3.81232e-06
-8.37236e-06
8.42696e-06
6.16114e-05
4.07437e-06
-1.16328e-05
1.19162e-05
5.87369e-05
4.55908e-06
-1.58315e-05
1.64478e-05
5.4725e-05
5.14884e-06
-2.12691e-05
2.25373e-05
4.89558e-05
5.78413e-06
-2.8498e-05
3.09146e-05
3.97531e-05
5.99133e-06
-3.71019e-05
4.22594e-05
2.54855e-05
5.45628e-06
-4.58206e-05
5.5803e-05
1.47237e-06
-3.65872e-05
5.85878e-05
6.52678e-05
4.48145e-06
5.45932e-07
-8.45013e-07
6.83405e-05
7.86078e-06
9.889e-07
-1.59061e-06
7.07269e-05
8.76713e-06
9.23328e-07
-1.6563e-06
7.20625e-05
8.17239e-06
3.85469e-07
-1.11202e-06
7.25207e-05
7.06623e-06
-5.83697e-07
-3.99344e-08
7.2314e-05
6.01901e-06
-1.91963e-06
1.44722e-06
7.16157e-05
5.34376e-06
-3.60983e-06
3.30293e-06
7.04968e-05
5.11891e-06
-5.69839e-06
5.56046e-06
6.8935e-05
5.33366e-06
-8.29114e-06
8.3316e-06
6.67971e-05
5.93888e-06
-1.15615e-05
1.18349e-05
6.38472e-05
6.89492e-06
-1.57773e-05
1.63913e-05
5.95829e-05
8.12995e-06
-2.1264e-05
2.25471e-05
5.32879e-05
9.60548e-06
-2.85784e-05
3.10521e-05
4.31359e-05
1.08042e-05
-3.73983e-05
4.27375e-05
2.72834e-05
1.08829e-05
-4.64509e-05
5.68768e-05
5.59142e-06
-3.74805e-05
6.06448e-05
6.43301e-05
2.94787e-06
5.65196e-07
-8.61685e-07
6.70588e-05
5.73333e-06
1.03562e-06
-1.63693e-06
6.96364e-05
6.92292e-06
9.93429e-07
-1.7268e-06
7.15211e-05
7.01383e-06
4.78176e-07
-1.20429e-06
7.26255e-05
6.58443e-06
-4.61653e-07
-1.60941e-07
7.3022e-05
6.09452e-06
-1.75672e-06
1.28471e-06
7.28302e-05
5.84393e-06
-3.39092e-06
3.08255e-06
7.2122e-05
5.96932e-06
-5.40512e-06
5.26287e-06
7.0897e-05
6.52614e-06
-7.89862e-06
7.93116e-06
6.90407e-05
7.53493e-06
-1.10416e-05
1.13018e-05
6.63209e-05
9.02014e-06
-1.50895e-05
1.56841e-05
6.2202e-05
1.09932e-05
-2.03825e-05
2.16381e-05
5.58803e-05
1.34857e-05
-2.74588e-05
2.99002e-05
4.53418e-05
1.60147e-05
-3.61277e-05
4.14558e-05
2.84209e-05
1.73283e-05
-4.51329e-05
5.56084e-05
1.05769e-05
-3.67804e-05
6.02158e-05
6.37958e-05
1.94545e-06
5.85844e-07
-8.79204e-07
6.61052e-05
4.02144e-06
1.08719e-06
-1.68474e-06
6.85715e-05
5.18564e-06
1.07695e-06
-1.80596e-06
7.0653e-05
5.65311e-06
5.95379e-07
-1.31618e-06
7.21244e-05
5.73001e-06
-3.0262e-07
-3.14347e-07
7.29499e-05
5.73668e-06
-1.54125e-06
1.07357e-06
7.31842e-05
5.91672e-06
-3.09776e-06
2.79071e-06
7.28767e-05
6.42227e-06
-5.00632e-06
4.86085e-06
7.20294e-05
7.3503e-06
-7.35579e-06
7.37891e-06
7.05364e-05
8.78663e-06
-1.03084e-05
1.05498e-05
6.81686e-05
1.0826e-05
-1.40997e-05
1.46617e-05
6.43595e-05
1.36022e-05
-1.90794e-05
2.02795e-05
5.82281e-05
1.7263e-05
-2.57488e-05
2.8103e-05
4.75387e-05
2.15008e-05
-3.40856e-05
3.92888e-05
2.97397e-05
2.48247e-05
-4.28452e-05
5.31478e-05
1.70074e-05
-3.54368e-05
5.87458e-05
6.35524e-05
1.18416e-06
6.10262e-07
-9.01335e-07
6.56016e-05
2.56649e-06
1.14718e-06
-1.74144e-06
6.79606e-05
3.55178e-06
1.17637e-06
-1.90154e-06
7.01335e-05
4.19689e-06
7.37842e-07
-1.45456e-06
7.18412e-05
4.63559e-06
-1.07914e-07
-5.05325e-07
7.29899e-05
5.05378e-06
-1.27756e-06
8.11709e-07
7.35947e-05
5.62111e-06
-2.73857e-06
2.42943e-06
7.36943e-05
6.47671e-06
-4.51354e-06
4.3595e-06
7.3305e-05
7.73547e-06
-6.67363e-06
6.67772e-06
7.23536e-05
9.53511e-06
-9.36162e-06
9.56454e-06
7.06592e-05
1.20313e-05
-1.27724e-05
1.32615e-05
6.76895e-05
1.55164e-05
-1.72365e-05
1.82921e-05
6.25706e-05
2.03047e-05
-2.31554e-05
2.52325e-05
5.26732e-05
2.67328e-05
-3.06819e-05
3.53473e-05
3.46805e-05
3.35528e-05
-3.84709e-05
4.77356e-05
2.98578e-05
-3.23895e-05
5.42196e-05
6.34667e-05
6.37587e-07
-9.27653e-07
5.07565e-07
6.542e-05
1.21352e-06
-1.80636e-06
1.20604e-06
6.77602e-05
1.28665e-06
-2.01031e-06
1.93519e-06
7.00223e-05
8.96882e-07
-1.61245e-06
2.65031e-06
7.19106e-05
1.09412e-07
-7.22358e-07
3.36033e-06
7.33088e-05
-9.84991e-07
5.17418e-07
4.12312e-06
7.42173e-05
-2.343e-06
2.02836e-06
5.02727e-06
7.46757e-05
-3.97376e-06
3.80795e-06
6.18408e-06
7.47172e-05
-5.92894e-06
5.91088e-06
7.71199e-06
7.4301e-05
-8.32847e-06
8.48939e-06
9.79045e-06
7.32951e-05
-1.13239e-05
1.1736e-05
1.26251e-05
7.12188e-05
-1.52188e-05
1.61229e-05
1.66885e-05
6.72801e-05
-2.03102e-05
2.21032e-05
2.24503e-05
5.86104e-05
-2.69471e-05
3.106e-05
3.12897e-05
4.16442e-05
-3.37758e-05
4.20073e-05
4.22874e-05
-2.99175e-05
5.05085e-05
5.0911e-05
5.00436e-05
1.25935e-05
2.10544e-07
3.98337e-05
1.04576e-05
3.37701e-07
3.22691e-05
7.83102e-06
2.10827e-07
2.75895e-05
4.90471e-06
-1.17319e-07
2.4794e-05
2.94255e-06
-6.13844e-07
2.31084e-05
1.73933e-06
-1.24367e-06
2.19502e-05
1.11117e-06
-2.01363e-06
2.09703e-05
8.19956e-07
-2.94956e-06
1.99602e-05
7.15297e-07
-4.10521e-06
1.87878e-05
6.89239e-07
-5.53601e-06
1.73473e-05
6.84246e-07
-7.36057e-06
1.5518e-05
6.06323e-07
-9.59594e-06
1.30629e-05
4.57595e-07
-1.25079e-05
9.72647e-06
-9.19439e-08
-1.53884e-05
4.563e-06
-6.21763e-07
-1.79984e-05
-2.57511e-06
-1.21389e-05
6.47482e-05
1.0538e-05
2.87656e-07
6.33776e-05
1.22009e-05
4.76936e-07
6.08031e-05
1.08446e-05
3.16107e-07
5.80215e-05
8.09686e-06
-1.78339e-07
5.55725e-05
5.69906e-06
-9.87273e-07
5.35141e-05
3.95776e-06
-2.07034e-06
5.16831e-05
2.92847e-06
-3.43063e-06
4.9856e-05
2.43363e-06
-5.10785e-06
4.78147e-05
2.30403e-06
-7.1886e-06
4.53379e-05
2.39035e-06
-9.7798e-06
4.21879e-05
2.5946e-06
-1.30713e-05
3.8006e-05
2.78284e-06
-1.71541e-05
3.22852e-05
2.9158e-06
-2.23607e-05
2.41471e-05
2.52978e-06
-2.77041e-05
1.26957e-05
1.71471e-06
-3.1812e-05
-1.42506e-06
-2.07512e-05
6.62785e-05
6.96784e-06
3.17039e-07
6.85159e-05
1.03758e-05
5.29006e-07
6.93687e-05
1.04882e-05
3.64797e-07
6.90763e-05
8.8658e-06
-1.60847e-07
6.81453e-05
7.0027e-06
-1.03254e-06
6.68511e-05
5.46721e-06
-2.21621e-06
6.52981e-05
4.50567e-06
-3.71851e-06
6.3448e-05
4.08574e-06
-5.5846e-06
6.11744e-05
4.11336e-06
-7.9081e-06
5.82693e-05
4.47443e-06
-1.08118e-05
5.44435e-05
5.08894e-06
-1.45e-05
4.92275e-05
5.8297e-06
-1.91e-05
4.19452e-05
6.64904e-06
-2.4949e-05
3.14344e-05
6.98699e-06
-3.10483e-05
1.6636e-05
6.39958e-06
-3.5707e-05
1.92491e-06
-2.33012e-05
6.51779e-05
4.50133e-06
3.34544e-07
6.80669e-05
7.91093e-06
5.64783e-07
7.022e-05
8.84899e-06
4.09449e-07
7.12996e-05
8.28283e-06
-1.11153e-07
7.14887e-05
7.20727e-06
-9.774e-07
7.09916e-05
6.20047e-06
-2.15577e-06
6.99578e-05
5.58366e-06
-3.65405e-06
6.84232e-05
5.44103e-06
-5.51908e-06
6.632e-05
5.76947e-06
-7.84404e-06
6.34647e-05
6.52416e-06
-1.07559e-05
5.95542e-05
7.68025e-06
-1.44581e-05
5.40614e-05
9.15598e-06
-1.90975e-05
4.62027e-05
1.09359e-05
-2.50065e-05
3.46674e-05
1.23641e-05
-3.12402e-05
1.82014e-05
1.24628e-05
-3.60481e-05
6.19865e-06
-2.35529e-05
6.42423e-05
2.97007e-06
3.54181e-07
6.67904e-05
5.78957e-06
6.08841e-07
6.91406e-05
7.01744e-06
4.74775e-07
7.0779e-05
7.14674e-06
-2.40794e-08
7.16269e-05
6.75978e-06
-8.62122e-07
7.17486e-05
6.32418e-06
-2.0021e-06
7.12404e-05
6.1494e-06
-3.44847e-06
7.01403e-05
6.38111e-06
-5.24512e-06
6.84037e-05
7.08674e-06
-7.47922e-06
6.58654e-05
8.29636e-06
-1.02755e-05
6.22245e-05
1.0058e-05
-1.38262e-05
5.69121e-05
1.23787e-05
-1.82928e-05
4.90423e-05
1.53353e-05
-2.39884e-05
3.70904e-05
1.82622e-05
-3.00739e-05
1.94368e-05
1.97881e-05
-3.48046e-05
1.15989e-05
-2.27438e-05
6.37097e-05
1.97051e-06
3.75669e-07
6.58423e-05
4.08416e-06
6.6e-07
6.80885e-05
5.29172e-06
5.56452e-07
6.99355e-05
5.80508e-06
9.0113e-08
7.11667e-05
5.93393e-06
-7.08042e-07
7.17384e-05
6.00651e-06
-1.79525e-06
7.16825e-05
6.27732e-06
-3.1698e-06
7.10163e-05
6.91058e-06
-4.86955e-06
6.96995e-05
8.01973e-06
-6.97203e-06
6.75768e-05
9.70687e-06
-9.59616e-06
6.43503e-05
1.21011e-05
-1.29164e-05
5.94119e-05
1.53446e-05
-1.71069e-05
5.17855e-05
1.96612e-05
-2.24484e-05
3.96823e-05
2.45306e-05
-2.82508e-05
2.10185e-05
2.83981e-05
-3.27914e-05
1.86958e-05
-2.15151e-05
6.34684e-05
1.21207e-06
4.00345e-07
6.53455e-05
2.63511e-06
7.19129e-07
6.7493e-05
3.66723e-06
6.5332e-07
6.94446e-05
4.3632e-06
2.28063e-07
7.09312e-05
4.8603e-06
-5.20874e-07
7.18518e-05
5.35228e-06
-1.54393e-06
7.22006e-05
6.02066e-06
-2.83063e-06
7.19874e-05
7.01894e-06
-4.40874e-06
7.11921e-05
8.48182e-06
-6.34046e-06
6.96977e-05
1.05701e-05
-8.73034e-06
6.72639e-05
1.34829e-05
-1.17204e-05
6.33128e-05
1.75405e-05
-1.54813e-05
5.68774e-05
2.31629e-05
-2.02216e-05
4.56729e-05
3.04937e-05
-2.54406e-05
2.67115e-05
3.83006e-05
-2.9412e-05
3.24069e-05
-1.93892e-05
6.33849e-05
4.27043e-07
5.37764e-07
6.51714e-05
7.8326e-07
1.27885e-06
6.73096e-05
7.59309e-07
2.05638e-06
6.93645e-05
3.80242e-07
2.82489e-06
7.10516e-05
-3.14046e-07
3.59663e-06
7.22488e-05
-1.26712e-06
4.43728e-06
7.29375e-05
-2.45879e-06
5.44772e-06
7.31326e-05
-3.90508e-06
6.75518e-06
7.28365e-05
-5.65125e-06
8.50016e-06
7.19711e-05
-7.78454e-06
1.08915e-05
7.03568e-05
-1.04118e-05
1.41852e-05
6.74656e-05
-1.36945e-05
1.89073e-05
6.2429e-05
-1.77645e-05
2.56538e-05
5.26211e-05
-2.23369e-05
3.56915e-05
3.47031e-05
-2.57526e-05
4.81953e-05
-1.76546e-05
5.48471e-05
4.99938e-05
1.25992e-05
1.17566e-07
3.96865e-05
1.04737e-05
1.71311e-07
3.20076e-05
7.8507e-06
3.90298e-08
2.72128e-05
4.92322e-06
-2.45712e-07
2.43018e-05
2.96074e-06
-6.63601e-07
2.24908e-05
1.76058e-06
-1.19326e-06
2.11818e-05
1.13958e-06
-1.84422e-06
2.00092e-05
8.58365e-07
-2.63531e-06
1.87435e-05
7.66709e-07
-3.60617e-06
1.72345e-05
7.56423e-07
-4.78341e-06
1.53472e-05
7.72865e-07
-6.24623e-06
1.29739e-05
7.2398e-07
-7.94659e-06
9.89796e-06
6.12336e-07
-1.00443e-05
6.23143e-06
1.27116e-07
-1.1849e-05
1.73123e-06
-4.62798e-07
-1.30354e-05
-2.21704e-06
-8.19064e-06
6.46776e-05
1.0552e-05
1.57282e-07
6.31658e-05
1.2234e-05
2.28374e-07
6.04059e-05
1.08912e-05
3.54722e-08
5.74148e-05
8.14982e-06
-4.13778e-07
5.47406e-05
5.75813e-06
-1.11052e-06
5.24347e-05
4.02816e-06
-2.032e-06
5.0314e-05
3.01911e-06
-3.18949e-06
4.81276e-05
2.5535e-06
-4.61659e-06
4.56222e-05
2.46359e-06
-6.38009e-06
4.25434e-05
2.59937e-06
-8.54387e-06
3.86114e-05
2.86794e-06
-1.12344e-05
3.34901e-05
3.12981e-06
-1.44385e-05
2.67215e-05
3.34882e-06
-1.83285e-05
1.80177e-05
3.02986e-06
-2.19031e-05
7.43268e-06
2.1335e-06
-2.38232e-05
-1.09414e-06
-1.44414e-05
6.62073e-05
6.98631e-06
1.75348e-07
6.82972e-05
1.04197e-05
2.53421e-07
6.89514e-05
1.05552e-05
4.66159e-08
6.84276e-05
8.95024e-06
-4.37455e-07
6.72418e-05
7.10448e-06
-1.19308e-06
6.56641e-05
5.59295e-06
-2.2033e-06
6.37802e-05
4.66812e-06
-3.48365e-06
6.15227e-05
4.30032e-06
-5.07388e-06
5.8726e-05
4.39948e-06
-7.04733e-06
5.51429e-05
4.85191e-06
-9.48119e-06
5.04364e-05
5.58547e-06
-1.25111e-05
4.41525e-05
6.46209e-06
-1.61483e-05
3.56646e-05
7.44227e-06
-2.05545e-05
2.44475e-05
7.88543e-06
-2.46868e-05
1.05139e-05
7.23824e-06
-2.68782e-05
2.32506e-06
-1.62065e-05
6.51089e-05
4.5223e-06
1.89679e-07
6.78523e-05
7.96166e-06
2.79477e-07
6.98091e-05
8.93056e-06
7.73012e-08
7.06594e-05
8.39259e-06
-4.03882e-07
7.05951e-05
7.34664e-06
-1.1552e-06
6.98151e-05
6.37783e-06
-2.16066e-06
6.84509e-05
5.81534e-06
-3.43709e-06
6.65094e-05
5.74884e-06
-5.02606e-06
6.38828e-05
6.18266e-06
-7.00069e-06
6.03457e-05
7.07525e-06
-9.44211e-06
5.55422e-05
8.41501e-06
-1.24841e-05
4.89525e-05
1.01079e-05
-1.61536e-05
3.9832e-05
1.21588e-05
-2.06026e-05
2.75135e-05
1.37856e-05
-2.48218e-05
1.18552e-05
1.39179e-05
-2.70696e-05
6.89626e-06
-1.62689e-05
6.41753e-05
2.99314e-06
2.08034e-07
6.65811e-05
5.84606e-06
3.18659e-07
6.87407e-05
7.11084e-06
1.34872e-07
7.01586e-05
7.27733e-06
-3.26771e-07
7.07648e-05
6.93093e-06
-1.05257e-06
7.0618e-05
6.54636e-06
-2.0238e-06
6.97969e-05
6.44241e-06
-3.25452e-06
6.83115e-05
6.77307e-06
-4.78389e-06
6.60777e-05
7.61718e-06
-6.67995e-06
6.28874e-05
9.01263e-06
-9.0226e-06
5.83837e-05
1.1029e-05
-1.19365e-05
5.19951e-05
1.36652e-05
-1.54615e-05
4.28597e-05
1.70398e-05
-1.97339e-05
3.00787e-05
2.03216e-05
-2.38289e-05
1.3124e-05
2.20782e-05
-2.60101e-05
1.28492e-05
-1.55728e-05
6.36445e-05
1.99583e-06
2.28484e-07
6.56385e-05
4.14607e-06
3.65969e-07
6.7701e-05
5.39513e-06
2.09689e-07
6.93385e-05
5.95244e-06
-2.22475e-07
7.0343e-05
6.13064e-06
-9.12296e-07
7.06656e-05
6.26522e-06
-1.83665e-06
7.03213e-05
6.6212e-06
-3.00431e-06
6.93003e-05
7.37388e-06
-4.44936e-06
6.7525e-05
8.65225e-06
-6.2318e-06
6.47965e-05
1.05725e-05
-8.42753e-06
6.07605e-05
1.32958e-05
-1.11473e-05
5.47959e-05
1.69672e-05
-1.44443e-05
4.59356e-05
2.18827e-05
-1.8431e-05
3.29818e-05
2.73311e-05
-2.23065e-05
1.48748e-05
3.17638e-05
-2.437e-05
2.08063e-05
-1.45975e-05
6.34051e-05
1.2394e-06
2.51627e-07
6.51483e-05
2.70146e-06
4.20586e-07
6.71202e-05
3.77812e-06
2.98434e-07
6.8875e-05
4.52241e-06
-9.66749e-08
7.01524e-05
5.07479e-06
-7.42483e-07
7.08476e-05
5.63642e-06
-1.61029e-06
7.09395e-05
6.40002e-06
-2.70135e-06
7.04139e-05
7.53242e-06
-4.04167e-06
6.92175e-05
9.18716e-06
-5.67903e-06
6.7194e-05
1.15455e-05
-7.67986e-06
6.40525e-05
1.48484e-05
-1.01315e-05
5.91947e-05
1.94367e-05
-1.3093e-05
5.16536e-05
2.58337e-05
-1.66315e-05
3.96476e-05
3.40093e-05
-2.01129e-05
2.10461e-05
4.28442e-05
-2.18909e-05
3.5644e-05
-1.31807e-05
6.33238e-05
2.76178e-07
5.66476e-07
6.49815e-05
4.79154e-07
1.34784e-06
6.69531e-05
3.94792e-07
2.17107e-06
6.88246e-05
4.11966e-08
2.98994e-06
7.03212e-05
-5.55909e-07
3.82008e-06
7.13181e-05
-1.36209e-06
4.73442e-06
7.17842e-05
-2.37022e-06
5.84536e-06
7.17134e-05
-3.59687e-06
7.29506e-06
7.10806e-05
-5.07635e-06
9.24507e-06
6.97738e-05
-6.86333e-06
1.19311e-05
6.75722e-05
-9.01971e-06
1.56579e-05
6.39234e-05
-1.16064e-05
2.09974e-05
5.7961e-05
-1.46433e-05
2.8675e-05
4.74594e-05
-1.76851e-05
3.98591e-05
2.98009e-05
-1.92063e-05
5.39564e-05
-1.20266e-05
5.98169e-05
4.99557e-05
1.26044e-05
5.74996e-08
3.95721e-05
1.04878e-05
6.70956e-08
3.18002e-05
7.86836e-06
-5.73602e-08
2.69084e-05
4.94033e-06
-2.94309e-07
2.38993e-05
2.97805e-06
-6.32527e-07
2.19846e-05
1.78103e-06
-1.05953e-06
2.05583e-05
1.167e-06
-1.585e-06
1.92491e-05
8.95923e-07
-2.22196e-06
1.78226e-05
8.18347e-07
-2.99805e-06
1.61338e-05
8.2717e-07
-3.92178e-06
1.40567e-05
8.72385e-07
-5.04158e-06
1.15261e-05
8.69173e-07
-6.28512e-06
8.38808e-06
8.29283e-07
-7.73551e-06
4.88502e-06
4.75065e-07
-8.821e-06
1.07454e-06
-7.96063e-09
-9.217e-06
-1.59211e-06
-5.52399e-06
6.4623e-05
1.05649e-05
7.37455e-08
6.29998e-05
1.2264e-05
7.53077e-08
6.00888e-05
1.09337e-05
-1.18835e-07
5.69217e-05
8.19869e-06
-5.05018e-07
5.40554e-05
5.81314e-06
-1.0793e-06
5.15403e-05
4.09364e-06
-1.82946e-06
4.9184e-05
3.10293e-06
-2.76912e-06
4.67238e-05
2.66408e-06
-3.92459e-06
4.38949e-05
2.61144e-06
-5.34429e-06
4.04439e-05
2.79591e-06
-7.06164e-06
3.61032e-05
3.13182e-06
-9.15312e-06
3.06073e-05
3.48214e-06
-1.15555e-05
2.36155e-05
3.82454e-06
-1.4332e-05
1.515e-05
3.66352e-06
-1.6626e-05
5.71995e-06
2.88295e-06
-1.72841e-05
-3.48743e-07
-9.96486e-06
6.61524e-05
7.00382e-06
8.40309e-08
6.8126e-05
1.04603e-05
8.3509e-08
6.86184e-05
1.0617e-05
-1.2905e-07
6.79004e-05
9.02825e-06
-5.49049e-07
6.64971e-05
7.19852e-06
-1.1751e-06
6.46788e-05
5.70844e-06
-1.99986e-06
6.25232e-05
4.81602e-06
-3.04113e-06
5.99502e-05
4.49426e-06
-4.33109e-06
5.6781e-05
4.65711e-06
-5.92376e-06
5.27667e-05
5.19211e-06
-7.86312e-06
4.75824e-05
6.03601e-06
-1.0231e-05
4.08491e-05
7.04678e-06
-1.29797e-05
3.20735e-05
8.20042e-06
-1.61548e-05
2.10863e-05
8.81226e-06
-1.88483e-05
8.44233e-06
8.26179e-06
-1.96131e-05
3.08789e-06
-1.12008e-05
6.50559e-05
4.54233e-06
9.52293e-08
6.76849e-05
8.00902e-06
1.01773e-07
6.94821e-05
9.00603e-06
-1.08979e-07
7.01404e-05
8.49372e-06
-5.27617e-07
6.98598e-05
7.47443e-06
-1.15051e-06
6.88398e-05
6.53917e-06
-1.97142e-06
6.72042e-05
6.02397e-06
-3.00944e-06
6.49477e-05
6.0233e-06
-4.29852e-06
6.19489e-05
6.54786e-06
-5.89271e-06
5.79798e-05
7.55861e-06
-7.83946e-06
5.26951e-05
9.05534e-06
-1.02188e-05
4.5648e-05
1.0935e-05
-1.29948e-05
3.62265e-05
1.32219e-05
-1.62025e-05
2.41231e-05
1.50476e-05
-1.89537e-05
9.75913e-06
1.5284e-05
-1.97278e-05
7.76551e-06
-1.11874e-05
6.41242e-05
3.01502e-06
1.11108e-07
6.64187e-05
5.89866e-06
1.34546e-07
6.84239e-05
7.19688e-06
-6.11542e-08
6.96573e-05
7.3968e-06
-4.6329e-07
7.00572e-05
7.0865e-06
-1.06453e-06
6.96827e-05
6.74659e-06
-1.85668e-06
6.86051e-05
6.70371e-06
-2.85671e-06
6.68227e-05
7.11858e-06
-4.09675e-06
6.42385e-05
8.07895e-06
-5.62686e-06
6.06412e-05
9.62737e-06
-7.49402e-06
5.56827e-05
1.18487e-05
-9.7713e-06
4.88594e-05
1.47308e-05
-1.2434e-05
3.94328e-05
1.84196e-05
-1.55049e-05
2.68512e-05
2.19601e-05
-1.81599e-05
1.11328e-05
2.38755e-05
-1.88832e-05
1.39562e-05
-1.06307e-05
6.3595e-05
2.01943e-06
1.29067e-07
6.54812e-05
4.20308e-06
1.75331e-07
6.73953e-05
5.48952e-06
2.94264e-09
6.88577e-05
6.08609e-06
-3.74084e-07
6.96688e-05
6.30787e-06
-9.44831e-07
6.97801e-05
6.49633e-06
-1.69766e-06
6.91996e-05
6.92513e-06
-2.6453e-06
6.79067e-05
7.77804e-06
-3.8159e-06
6.58116e-05
9.19549e-06
-5.2532e-06
6.27118e-05
1.13013e-05
-7.00169e-06
5.82606e-05
1.42768e-05
-9.12424e-06
5.18976e-05
1.82576e-05
-1.16081e-05
4.27687e-05
2.35779e-05
-1.44605e-05
3.00011e-05
2.93739e-05
-1.69528e-05
1.30398e-05
3.40759e-05
-1.7609e-05
2.22823e-05
-9.88384e-06
6.33574e-05
1.26439e-06
1.49249e-07
6.49969e-05
2.76175e-06
2.22469e-07
6.68274e-05
3.87827e-06
7.91228e-08
6.84178e-05
4.66555e-06
-2.66485e-07
6.95168e-05
5.2665e-06
-8.00137e-07
7.00203e-05
5.88835e-06
-1.50581e-06
6.99014e-05
6.73289e-06
-2.39023e-06
6.91364e-05
7.97674e-06
-3.47537e-06
6.7662e-05
9.78665e-06
-4.79577e-06
6.53188e-05
1.23548e-05
-6.39004e-06
6.18236e-05
1.59456e-05
-8.30517e-06
5.66298e-05
2.0896e-05
-1.05376e-05
4.88694e-05
2.77755e-05
-1.30687e-05
3.70436e-05
3.63883e-05
-1.53015e-05
1.94428e-05
4.56196e-05
-1.58338e-05
3.74783e-05
-8.93386e-06
6.32779e-05
1.70414e-07
5.92226e-07
6.48365e-05
2.72699e-07
1.40962e-06
6.66745e-05
1.61508e-07
2.27361e-06
6.83931e-05
-1.48976e-07
3.13712e-06
6.9727e-05
-6.41675e-07
4.01834e-06
7.05531e-05
-1.29599e-06
4.99613e-06
7.08356e-05
-2.11193e-06
6.1921e-06
7.05606e-05
-3.10421e-06
7.75908e-06
6.96954e-05
-4.29722e-06
9.87277e-06
6.81261e-05
-5.72204e-06
1.27827e-05
6.56409e-05
-7.40838e-06
1.68195e-05
6.17303e-05
-9.3597e-06
2.25599e-05
5.56163e-05
-1.15316e-05
3.07778e-05
4.53065e-05
-1.34766e-05
4.24897e-05
2.85206e-05
-1.39245e-05
5.71237e-05
-8.17366e-06
6.21459e-05
4.99262e-05
1.26087e-05
2.25675e-08
3.94833e-05
1.04993e-05
1.06564e-08
3.16368e-05
7.88291e-06
-9.37341e-08
2.6665e-05
4.95455e-06
-2.77065e-07
2.35727e-05
2.99244e-06
-5.32738e-07
2.1569e-05
1.79784e-06
-8.53669e-07
2.00426e-05
1.18918e-06
-1.24774e-06
1.86178e-05
9.25853e-07
-1.72303e-06
1.70579e-05
8.58854e-07
-2.29698e-06
1.52228e-05
8.81626e-07
-2.96833e-06
1.29978e-05
9.47243e-07
-3.76381e-06
1.03528e-05
9.75406e-07
-4.61547e-06
7.1968e-06
9.83367e-07
-5.56293e-06
3.86618e-06
7.1068e-07
-6.20105e-06
6.21658e-07
2.8835e-07
-6.26084e-06
-1.24119e-06
-3.66114e-06
6.45805e-05
1.05761e-05
2.59026e-08
6.28705e-05
1.22892e-05
-4.55192e-09
5.98386e-05
1.09695e-05
-1.73577e-07
5.65272e-05
8.2403e-06
-4.79341e-07
5.35001e-05
5.86015e-06
-9.19936e-07
5.0808e-05
4.14943e-06
-1.48896e-06
4.82528e-05
3.17383e-06
-2.19851e-06
4.55643e-05
2.75696e-06
-3.06721e-06
4.24712e-05
2.73488e-06
-4.12725e-06
3.87251e-05
2.95898e-06
-5.39289e-06
3.4076e-05
3.3492e-06
-6.90599e-06
2.83217e-05
3.76969e-06
-8.59547e-06
2.12355e-05
4.20834e-06
-1.04708e-05
1.30598e-05
4.16382e-06
-1.19035e-05
4.61024e-06
3.46087e-06
-1.2007e-05
1.58755e-07
-6.75457e-06
6.61098e-05
7.01906e-06
3.12131e-08
6.79926e-05
1.04952e-05
-5.23633e-09
6.83556e-05
1.06699e-05
-1.92368e-07
6.74786e-05
9.09524e-06
-5.27043e-07
6.58937e-05
7.27934e-06
-1.00934e-06
6.38725e-05
5.80738e-06
-1.6366e-06
6.14876e-05
4.94204e-06
-2.42447e-06
5.86514e-05
4.65855e-06
-3.39645e-06
5.51774e-05
4.87423e-06
-4.5891e-06
5.08203e-05
5.47738e-06
-6.02446e-06
4.5274e-05
6.41175e-06
-7.74715e-06
3.8228e-05
7.53142e-06
-9.6954e-06
2.93182e-05
8.82431e-06
-1.18609e-05
1.86346e-05
9.56824e-06
-1.35692e-05
7.09564e-06
9.09096e-06
-1.37042e-05
3.67416e-06
-7.62057e-06
6.50149e-05
4.55995e-06
3.94101e-08
6.75549e-05
8.05012e-06
6.90749e-09
6.92246e-05
9.07114e-06
-1.80023e-07
6.97257e-05
8.58083e-06
-5.14277e-07
6.92647e-05
7.58431e-06
-9.94451e-07
6.80421e-05
6.67737e-06
-1.61889e-06
6.61774e-05
6.20179e-06
-2.40439e-06
6.36574e-05
6.25598e-06
-3.37598e-06
6.03534e-05
6.85587e-06
-4.57039e-06
5.60397e-05
7.96411e-06
-6.01244e-06
5.03887e-05
9.58932e-06
-7.74536e-06
4.30208e-05
1.16203e-05
-9.71581e-06
3.34533e-05
1.4096e-05
-1.19067e-05
2.1644e-05
1.60791e-05
-1.36553e-05
8.39444e-06
1.63986e-05
-1.37858e-05
8.48182e-06
-7.6006e-06
6.40848e-05
3.03426e-06
5.19647e-08
6.62929e-05
5.94436e-06
3.22337e-08
6.8175e-05
7.27117e-06
-1.43269e-07
6.92576e-05
7.4996e-06
-4.64691e-07
6.94854e-05
7.21998e-06
-9.27952e-07
6.89184e-05
6.91775e-06
-1.5301e-06
6.76239e-05
6.92608e-06
-2.28644e-06
6.55926e-05
7.41118e-06
-3.22069e-06
6.27203e-05
8.46803e-06
-4.36675e-06
5.87974e-05
1.01425e-05
-5.74942e-06
5.34916e-05
1.2531e-05
-7.40719e-06
4.63619e-05
1.56114e-05
-9.29537e-06
3.67926e-05
1.95493e-05
-1.13889e-05
2.44888e-05
2.32938e-05
-1.30708e-05
9.84116e-06
2.53342e-05
-1.31711e-05
1.48938e-05
-7.2016e-06
6.3557e-05
2.04005e-06
6.63261e-08
6.53598e-05
4.25242e-06
6.44675e-08
6.71559e-05
5.57076e-06
-9.28383e-08
6.84753e-05
6.20071e-06
-3.94584e-07
6.91251e-05
6.45944e-06
-8.34027e-07
6.90576e-05
6.69334e-06
-1.40573e-06
6.82769e-05
7.18322e-06
-2.12183e-06
6.67557e-05
8.11974e-06
-3.00317e-06
6.4397e-05
9.6525e-06
-4.07907e-06
6.09998e-05
1.1911e-05
-5.3729e-06
5.62312e-05
1.50916e-05
-6.91627e-06
4.95878e-05
1.93208e-05
-8.67411e-06
4.03288e-05
2.49599e-05
-1.06121e-05
2.78232e-05
3.10288e-05
-1.21822e-05
1.1861e-05
3.59384e-05
-1.22511e-05
2.35434e-05
-6.67245e-06
6.33209e-05
1.28598e-06
8.24038e-08
6.48805e-05
2.81356e-06
1.01776e-07
6.65991e-05
3.96404e-06
-3.27701e-08
6.80555e-05
4.78779e-06
-3.09958e-07
6.90055e-05
5.42987e-06
-7.20571e-07
6.93464e-05
6.10252e-06
-1.25594e-06
6.90482e-05
7.01504e-06
-1.92379e-06
6.80811e-05
8.35197e-06
-2.74055e-06
6.63762e-05
1.02907e-05
-3.72911e-06
6.37751e-05
1.30314e-05
-4.90943e-06
6.00079e-05
1.68568e-05
-6.30306e-06
5.45766e-05
2.20982e-05
-7.88374e-06
4.67141e-05
2.93574e-05
-9.60371e-06
3.51348e-05
3.83151e-05
-1.10086e-05
1.84209e-05
4.78538e-05
-1.10352e-05
3.90825e-05
-6.05207e-06
6.3243e-05
9.91505e-08
6.1423e-07
6.47256e-05
1.41393e-07
1.46227e-06
6.64582e-05
3.20617e-08
2.36088e-06
6.80525e-05
-2.17698e-07
3.26222e-06
6.92506e-05
-5.96552e-07
4.18668e-06
6.99315e-05
-1.0924e-06
5.21801e-06
7.00571e-05
-1.70798e-06
6.48547e-06
6.96089e-05
-2.45454e-06
8.15048e-06
6.85502e-05
-3.34789e-06
1.04001e-05
6.67686e-05
-4.40344e-06
1.34945e-05
6.40652e-05
-5.63184e-06
1.77836e-05
5.99722e-05
-7.01423e-06
2.38457e-05
5.37998e-05
-8.49059e-06
3.24888e-05
4.37336e-05
-9.71222e-06
4.4617e-05
2.77248e-05
-9.73182e-06
5.96699e-05
-5.56131e-06
6.4195e-05
4.9905e-05
1.26121e-05
5.42918e-09
3.94191e-05
1.05083e-05
-1.17101e-08
3.15176e-05
7.89419e-06
-8.65121e-08
2.64865e-05
4.96582e-06
-2.11751e-07
2.3333e-05
3.00404e-06
-3.83298e-07
2.12654e-05
1.81156e-06
-5.9763e-07
1.96704e-05
1.20745e-06
-8.60146e-07
1.81719e-05
9.50864e-07
-1.17541e-06
1.6535e-05
8.93339e-07
-1.55341e-06
1.46273e-05
9.29098e-07
-1.98977e-06
1.2347e-05
1.01405e-06
-2.49758e-06
9.68606e-06
1.0717e-06
-3.02619e-06
6.5902e-06
1.12437e-06
-3.59144e-06
3.40693e-06
9.20259e-07
-3.93805e-06
4.68913e-07
5.5592e-07
-3.87873e-06
-9.61729e-07
-2.2305e-06
6.45499e-05
1.05848e-05
3.38276e-09
6.27764e-05
1.2309e-05
-3.17711e-08
5.96552e-05
1.09975e-05
-1.55714e-07
5.62362e-05
8.27307e-06
-3.67595e-07
5.30892e-05
5.89735e-06
-6.66309e-07
5.0267e-05
4.19365e-06
-1.04881e-06
4.75698e-05
3.23003e-06
-1.52387e-06
4.4726e-05
2.83066e-06
-2.10325e-06
4.14652e-05
2.83311e-06
-2.80625e-06
3.75491e-05
3.08954e-06
-3.63722e-06
3.27488e-05
3.52464e-06
-4.61631e-06
2.69068e-05
4.00428e-06
-5.68601e-06
1.98704e-05
4.52508e-06
-6.83516e-06
1.19638e-05
4.57974e-06
-7.65636e-06
4.11595e-06
3.95264e-06
-7.55591e-06
5.7336e-07
-4.17372e-06
6.6079e-05
7.03118e-06
5.85046e-09
6.78955e-05
1.05227e-05
-3.54442e-08
6.81628e-05
1.07115e-05
-1.73593e-07
6.71672e-05
9.14804e-06
-4.06418e-07
6.54466e-05
7.34303e-06
-7.34381e-07
6.32753e-05
5.8852e-06
-1.15687e-06
6.07253e-05
5.04078e-06
-1.68524e-06
5.77074e-05
4.78683e-06
-2.3347e-06
5.40357e-05
5.04328e-06
-3.12759e-06
4.94749e-05
5.69918e-06
-4.07331e-06
4.37419e-05
6.70382e-06
-5.19335e-06
3.65769e-05
7.90908e-06
-6.43519e-06
2.77024e-05
9.31248e-06
-7.77384e-06
1.73155e-05
1.01651e-05
-8.76763e-06
6.47319e-06
9.75755e-06
-8.66674e-06
4.15028e-06
-4.7243e-06
6.49854e-05
4.57402e-06
1.11822e-08
6.74604e-05
8.0827e-06
-2.80806e-08
6.9036e-05
9.12251e-06
-1.66674e-07
6.94198e-05
8.64946e-06
-3.99509e-07
6.88239e-05
7.67066e-06
-7.26201e-07
6.74516e-05
6.78553e-06
-1.14687e-06
6.54215e-05
6.34017e-06
-1.67374e-06
6.27196e-05
6.43592e-06
-2.32315e-06
5.92176e-05
7.09256e-06
-3.1176e-06
5.4699e-05
8.27375e-06
-4.06847e-06
4.88594e-05
9.99441e-06
-5.19634e-06
4.13693e-05
1.21375e-05
-6.45407e-06
3.18335e-05
1.4752e-05
-7.81048e-06
2.03199e-05
1.68536e-05
-8.83011e-06
7.77456e-06
1.72388e-05
-8.72179e-06
9.03237e-06
-4.70813e-06
6.40565e-05
3.04961e-06
1.98477e-08
6.62018e-05
5.98058e-06
-1.08721e-08
6.7993e-05
7.32975e-06
-1.41797e-07
6.89633e-05
7.58041e-06
-3.65869e-07
6.90625e-05
7.3245e-06
-6.8098e-07
6.83533e-05
7.05107e-06
-1.08645e-06
6.69025e-05
7.09811e-06
-1.59358e-06
6.46998e-05
7.63574e-06
-2.21788e-06
6.16418e-05
8.76394e-06
-2.98006e-06
5.75275e-05
1.05302e-05
-3.89162e-06
5.20464e-05
1.30386e-05
-4.97026e-06
4.48048e-05
1.62583e-05
-6.17469e-06
3.52701e-05
2.03669e-05
-7.46909e-06
2.32514e-05
2.42486e-05
-8.44712e-06
9.27712e-06
2.63648e-05
-8.32283e-06
1.55598e-05
-4.4519e-06
6.35297e-05
2.0564e-06
2.98346e-08
6.5272e-05
4.29138e-06
1.13797e-08
6.69813e-05
5.63464e-06
-1.07067e-07
6.81943e-05
6.2905e-06
-3.17629e-07
6.87235e-05
6.57765e-06
-6.16416e-07
6.85239e-05
6.84608e-06
-1.00114e-06
6.75994e-05
7.38181e-06
-1.48102e-06
6.59215e-05
8.38019e-06
-2.06969e-06
6.33943e-05
9.99692e-06
-2.7849e-06
5.98249e-05
1.23641e-05
-3.63741e-06
5.49008e-05
1.56872e-05
-4.64076e-06
4.81619e-05
2.00833e-05
-5.76021e-06
3.89441e-05
2.59277e-05
-6.95511e-06
2.67106e-05
3.2163e-05
-7.86315e-06
1.13736e-05
3.71771e-05
-7.72637e-06
2.43739e-05
-4.11306e-06
6.32948e-05
1.30299e-06
4.09971e-08
6.47966e-05
2.85425e-06
3.717e-08
6.64329e-05
4.03121e-06
-6.5639e-08
6.77896e-05
4.88318e-06
-2.59366e-07
6.86283e-05
5.55681e-06
-5.3846e-07
6.88491e-05
6.26792e-06
-8.98526e-07
6.84218e-05
7.23119e-06
-1.34588e-06
6.73163e-05
8.63648e-06
-1.89133e-06
6.54647e-05
1.06679e-05
-2.54862e-06
6.27164e-05
1.35297e-05
-3.32667e-06
5.88198e-05
1.7514e-05
-4.23325e-06
5.33151e-05
2.29445e-05
-5.24017e-06
4.5503e-05
3.04368e-05
-6.30068e-06
3.41794e-05
3.95898e-05
-7.11173e-06
1.80237e-05
4.92661e-05
-6.96845e-06
4.00858e-05
-3.7402e-06
6.32181e-05
5.25818e-08
6.31415e-07
6.46459e-05
6.4511e-08
1.50339e-06
6.63012e-05
-2.09664e-08
2.42893e-06
6.78031e-05
-1.95895e-07
3.35948e-06
6.88997e-05
-4.53323e-07
4.317e-06
6.9473e-05
-7.86579e-07
5.38875e-06
6.94855e-05
-1.19869e-06
6.70938e-06
6.89187e-05
-1.69716e-06
8.44595e-06
6.77374e-05
-2.29126e-06
1.07926e-05
6.58366e-05
-2.9874e-06
1.40145e-05
6.30344e-05
-3.78709e-06
1.84714e-05
5.88959e-05
-4.6679e-06
2.47367e-05
5.27898e-05
-5.57815e-06
3.36305e-05
4.29679e-05
-6.28147e-06
4.5981e-05
2.74491e-05
-6.15676e-06
6.12098e-05
-3.44622e-06
6.54197e-05
4.98909e-05
1.26144e-05
7.74404e-11
3.93765e-05
1.05143e-05