/*--------------------------------*- C++ -*----------------------------------*\
| =========                 |                                                 |
| \\      /  F ield         | OpenFOAM: The Open Source CFD Toolbox           |
|  \\    /   O peration     | Version:  v1912                                 |
|   \\  /    A nd           | Website:  www.openfoam.com                      |
|    \\/     M anipulation  |                                                 |
\*---------------------------------------------------------------------------*/
FoamFile
{
    version     2.0;
    format      ascii;
    class       volVectorField;
    location    "0.51/fluid";
    object      cellMotionU;
}
// * * * * * * * * * * * * * * * * * * * * * * * * * * * * * * * * * * * * * //

dimensions      [0 1 -1 0 0 0 0];


internalField   nonuniform List<vector> 
14592
(
(1.64235e-10 -3.67188e-10 2.78237e-10)
(4.58115e-10 -1.0268e-09 7.87543e-10)
(7.28998e-10 -1.64033e-09 1.28883e-09)
(9.86383e-10 -2.22947e-09 1.81447e-09)
(1.24029e-09 -2.81068e-09 2.39636e-09)
(1.49965e-09 -3.38998e-09 3.0624e-09)
(1.77507e-09 -3.96473e-09 3.84103e-09)
(2.07995e-09 -4.51812e-09 4.75977e-09)
(2.43439e-09 -5.01349e-09 5.84667e-09)
(2.87228e-09 -5.37796e-09 7.1287e-09)
(3.46188e-09 -5.4771e-09 8.63963e-09)
(4.35459e-09 -5.0437e-09 1.04381e-08)
(5.9111e-09 -3.49135e-09 1.26861e-08)
(9.06728e-09 6.64911e-10 1.59077e-08)
(1.60122e-08 1.11994e-08 2.15305e-08)
(2.85684e-08 3.25507e-08 3.07029e-08)
(4.88881e-10 -1.09027e-09 8.27176e-10)
(1.36385e-09 -3.04939e-09 2.34161e-09)
(2.16923e-09 -4.87238e-09 3.8301e-09)
(2.93509e-09 -6.62674e-09 5.39277e-09)
(3.68823e-09 -8.35728e-09 7.11806e-09)
(4.45632e-09 -1.00876e-08 9.09179e-09)
(5.2696e-09 -1.18124e-08 1.13965e-08)
(6.16562e-09 -1.349e-08 1.41135e-08)
(7.19657e-09 -1.50207e-08 1.73197e-08)
(8.44681e-09 -1.62183e-08 2.10882e-08)
(1.00697e-08 -1.67497e-08 2.54852e-08)
(1.23632e-08 -1.60388e-08 3.0584e-08)
(1.59541e-08 -1.30744e-08 3.65269e-08)
(2.20338e-08 -6.1624e-09 4.36308e-08)
(3.236e-08 6.88055e-09 5.24211e-08)
(4.58618e-08 2.41088e-08 6.18014e-08)
(8.03118e-10 -1.78096e-09 1.35549e-09)
(2.24003e-09 -4.98255e-09 3.83619e-09)
(3.56222e-09 -7.96685e-09 6.27397e-09)
(4.817e-09 -1.08435e-08 8.82853e-09)
(6.04911e-09 -1.36929e-08 1.16468e-08)
(7.30249e-09 -1.65593e-08 1.48672e-08)
(8.62477e-09 -1.9447e-08 1.86245e-08)
(1.00719e-08 -2.2306e-08 2.30499e-08)
(1.17165e-08 -2.50114e-08 2.82688e-08)
(1.36628e-08 -2.73242e-08 3.4392e-08)
(1.60755e-08 -2.88401e-08 4.15037e-08)
(1.92407e-08 -2.892e-08 4.96493e-08)
(2.36799e-08 -2.66389e-08 5.88375e-08)
(3.02835e-08 -2.09326e-08 6.90891e-08)
(4.02098e-08 -1.14488e-08 8.04695e-08)
(5.23222e-08 -1.59644e-09 9.17796e-08)
(1.10034e-09 -2.41725e-09 1.8502e-09)
(3.06826e-09 -6.76582e-09 5.23504e-09)
(4.87712e-09 -1.08265e-08 8.5577e-09)
(6.59103e-09 -1.47546e-08 1.20351e-08)
(8.26928e-09 -1.8665e-08 1.58638e-08)
(9.97106e-09 -2.26319e-08 2.02318e-08)
(1.17586e-08 -2.66813e-08 2.53211e-08)
(1.37022e-08 -3.07805e-08 3.13106e-08)
(1.58854e-08 -3.48166e-08 3.83712e-08)
(1.84132e-08 -3.85647e-08 4.6655e-08)
(2.14193e-08 -4.16437e-08 5.62676e-08)
(2.50865e-08 -4.34698e-08 6.72301e-08)
(2.96885e-08 -4.32529e-08 7.94377e-08)
(3.56089e-08 -4.01667e-08 9.25832e-08)
(4.33364e-08 -3.40208e-08 1.06088e-07)
(5.20578e-08 -2.71671e-08 1.17928e-07)
(1.37449e-09 -2.97754e-09 2.29998e-09)
(3.83185e-09 -8.33832e-09 6.506e-09)
(6.08738e-09 -1.33556e-08 1.06289e-08)
(8.21893e-09 -1.82274e-08 1.49337e-08)
(1.02996e-08 -2.3108e-08 1.96624e-08)
(1.2401e-08 -2.81057e-08 2.50439e-08)
(1.45983e-08 -3.32809e-08 3.13018e-08)
(1.69742e-08 -3.86382e-08 3.86571e-08)
(1.9623e-08 -4.4113e-08 4.73261e-08)
(2.26516e-08 -4.95462e-08 5.7508e-08)
(2.61702e-08 -5.46499e-08 6.93522e-08)
(3.02912e-08 -5.89567e-08 8.29221e-08)
(3.50866e-08 -6.17496e-08 9.80869e-08)
(4.05486e-08 -6.20224e-08 1.14379e-07)
(4.66089e-08 -5.86551e-08 1.30671e-07)
(5.26723e-08 -5.22645e-08 1.43829e-07)
(1.62078e-09 -3.44118e-09 2.69611e-09)
(4.51664e-09 -9.6414e-09 7.62337e-09)
(7.16964e-09 -1.54585e-08 1.24439e-08)
(9.6694e-09 -2.11322e-08 1.74634e-08)
(1.20989e-08 -2.68529e-08 2.2958e-08)
(1.45405e-08 -3.2767e-08 2.91902e-08)
(1.70802e-08 -3.89762e-08 3.64155e-08)
(1.98136e-08 -4.55365e-08 4.48896e-08)
(2.28497e-08 -5.2454e-08 5.48685e-08)
(2.63134e-08 -5.96738e-08 6.66016e-08)
(3.03404e-08 -6.70605e-08 8.03121e-08)
(3.50709e-08 -7.43504e-08 9.61654e-08)
(4.06105e-08 -8.10352e-08 1.14198e-07)
(4.69309e-08 -8.60575e-08 1.3412e-07)
(5.37086e-08 -8.72211e-08 1.54743e-07)
(5.96191e-08 -8.21128e-08 1.71632e-07)
(1.83508e-09 -3.78834e-09 3.03195e-09)
(5.11156e-09 -1.06201e-08 8.5687e-09)
(8.10651e-09 -1.70467e-08 1.3973e-08)
(1.09171e-08 -2.33425e-08 1.95794e-08)
(1.36341e-08 -2.97322e-08 2.56899e-08)
(1.63467e-08 -3.63974e-08 3.25882e-08)
(1.91493e-08 -4.34809e-08 4.0551e-08)
(2.21478e-08 -5.10925e-08 4.98551e-08)
(2.54685e-08 -5.93146e-08 6.07836e-08)
(2.92655e-08 -6.82085e-08 7.36248e-08)
(3.37385e-08 -7.7823e-08 8.86744e-08)
(3.91574e-08 -8.81981e-08 1.06238e-07)
(4.59153e-08 -9.93408e-08 1.26647e-07)
(5.45522e-08 -1.11038e-07 1.50181e-07)
(6.55926e-08 -1.22125e-07 1.76511e-07)
(7.71557e-08 -1.28645e-07 2.00618e-07)
(2.01482e-09 -4.00237e-09 3.30396e-09)
(5.6093e-09 -1.12272e-08 9.33217e-09)
(8.88615e-09 -1.80422e-08 1.51997e-08)
(1.19468e-08 -2.47488e-08 2.12601e-08)
(1.48848e-08 -3.15976e-08 2.7828e-08)
(1.77924e-08 -3.87985e-08 3.51977e-08)
(2.07671e-08 -4.65284e-08 4.36523e-08)
(2.39196e-08 -5.49403e-08 5.3473e-08)
(2.73849e-08 -6.41772e-08 6.49467e-08)
(3.13367e-08 -7.43888e-08 7.83702e-08)
(3.60199e-08 -8.57632e-08 9.40638e-08)
(4.18131e-08 -9.85868e-08 1.12408e-07)
(4.93687e-08 -1.13364e-07 1.33938e-07)
(5.9893e-08 -1.31035e-07 1.59501e-07)
(7.55526e-08 -1.53119e-07 1.90278e-07)
(9.61871e-08 -1.78034e-07 2.22935e-07)
(1.64027e-10 -3.74759e-10 2.64283e-10)
(4.57302e-10 -1.04809e-09 7.47939e-10)
(7.26453e-10 -1.6746e-09 1.22255e-09)
(9.80881e-10 -2.27711e-09 1.7195e-09)
(1.22893e-09 -2.87172e-09 2.2667e-09)
(1.47852e-09 -3.46633e-09 2.89043e-09)
(1.73778e-09 -4.0595e-09 3.6156e-09)
(2.01619e-09 -4.63701e-09 4.4653e-09)
(2.32679e-09 -5.16646e-09 5.45998e-09)
(2.69147e-09 -5.58631e-09 6.61519e-09)
(3.15385e-09 -5.7859e-09 7.93835e-09)
(3.80953e-09 -5.56441e-09 9.42866e-09)
(4.89107e-09 -4.51764e-09 1.10904e-08)
(6.90249e-09 -1.77975e-09 1.29459e-08)
(1.0769e-08 4.38461e-09 1.49868e-08)
(1.63029e-08 1.4582e-08 1.6271e-08)
(4.88402e-10 -1.11261e-09 7.85801e-10)
(1.36136e-09 -3.11194e-09 2.22299e-09)
(2.1624e-09 -4.97345e-09 3.63345e-09)
(2.91896e-09 -6.76562e-09 5.10887e-09)
(3.65574e-09 -8.53664e-09 6.7322e-09)
(4.396e-09 -1.03122e-08 8.58098e-09)
(5.16319e-09 -1.20912e-08 1.07281e-08)
(5.98345e-09 -1.38375e-08 1.32412e-08)
(6.89e-09 -1.54647e-08 1.61781e-08)
(7.93316e-09 -1.68122e-08 1.95775e-08)
(9.20232e-09 -1.76087e-08 2.34432e-08)
(1.08804e-08 -1.7413e-08 2.77196e-08)
(1.33162e-08 -1.55518e-08 3.22322e-08)
(1.71041e-08 -1.11268e-08 3.65689e-08)
(2.26811e-08 -3.66742e-09 3.96925e-08)
(2.82219e-08 3.94942e-09 3.96607e-08)
(8.02582e-10 -1.81714e-09 1.2875e-09)
(2.23689e-09 -5.08399e-09 3.64184e-09)
(3.5524e-09 -8.12993e-09 5.95093e-09)
(4.79372e-09 -1.1069e-08 8.36397e-09)
(6.00114e-09 -1.39839e-08 1.10162e-08)
(7.21239e-09 -1.69235e-08 1.40337e-08)
(8.46464e-09 -1.98967e-08 1.75352e-08)
(9.79698e-09 -2.28619e-08 2.16314e-08)
(1.12536e-08 -2.57099e-08 2.64172e-08)
(1.28893e-08 -2.82359e-08 3.19557e-08)
(1.47829e-08 -3.01071e-08 3.82469e-08)
(1.70638e-08 -3.08413e-08 4.51756e-08)
(1.99471e-08 -2.98564e-08 5.2415e-08)
(2.37102e-08 -2.67814e-08 5.92495e-08)
(2.83298e-08 -2.24205e-08 6.4292e-08)
(3.21652e-08 -2.01023e-08 6.5627e-08)
(1.10015e-09 -2.46605e-09 1.75727e-09)
(3.06593e-09 -6.90238e-09 4.97003e-09)
(4.86743e-09 -1.10465e-08 8.11747e-09)
(6.56525e-09 -1.5058e-08 1.14022e-08)
(8.21392e-09 -1.90569e-08 1.50064e-08)
(9.86457e-09 -2.3121e-08 1.91002e-08)
(1.1567e-08 -2.72817e-08 2.38452e-08)
(1.33711e-08 -3.1514e-08 2.93929e-08)
(1.53268e-08 -3.57201e-08 3.58763e-08)
(1.74804e-08 -3.97055e-08 4.33883e-08)
(1.98678e-08 -4.31535e-08 5.19407e-08)
(2.25041e-08 -4.5618e-08 6.13939e-08)
(2.53353e-08 -4.65983e-08 7.13111e-08)
(2.81684e-08 -4.58466e-08 8.07388e-08)
(3.04811e-08 -4.41194e-08 8.78606e-08)
(3.12657e-08 -4.3747e-08 9.02036e-08)
(1.37539e-09 -3.0374e-09 2.18479e-09)
(3.83205e-09 -8.50563e-09 6.17702e-09)
(6.081e-09 -1.36248e-08 1.0083e-08)
(8.19668e-09 -1.85993e-08 1.41505e-08)
(1.02465e-08 -2.35876e-08 1.86027e-08)
(1.22939e-08 -2.87023e-08 2.3648e-08)
(1.44008e-08 -3.40082e-08 2.94849e-08)
(1.66288e-08 -3.95158e-08 3.63023e-08)
(1.90368e-08 -4.51701e-08 4.42715e-08)
(2.16702e-08 -5.08323e-08 5.35233e-08)
(2.45453e-08 -5.62563e-08 6.41115e-08)
(2.7586e-08 -6.10654e-08 7.59112e-08)
(3.0544e-08 -6.47488e-08 8.84868e-08)
(3.28133e-08 -6.6757e-08 1.00745e-07)
(3.33484e-08 -6.69236e-08 1.10455e-07)
(3.14916e-08 -6.64905e-08 1.14265e-07)
(1.62323e-09 -3.50996e-09 2.56142e-09)
(4.52111e-09 -9.83382e-09 7.2388e-09)
(7.17006e-09 -1.57684e-08 1.18066e-08)
(9.656e-09 -2.15596e-08 1.65501e-08)
(1.2057e-08 -2.74036e-08 2.17247e-08)
(1.44474e-08 -3.345e-08 2.7569e-08)
(1.69008e-08 -3.98036e-08 3.43109e-08)
(1.94929e-08 -4.6523e-08 4.21696e-08)
(2.22995e-08 -5.36175e-08 5.13504e-08)
(2.53906e-08 -6.10381e-08 6.20285e-08)
(2.88082e-08 -6.86621e-08 7.43101e-08)
(3.25215e-08 -7.62567e-08 8.81629e-08)
(3.62997e-08 -8.33945e-08 1.0325e-07)
(3.94712e-08 -8.92583e-08 1.1857e-07)
(4.05781e-08 -9.24121e-08 1.3173e-07)
(3.80563e-08 -9.17111e-08 1.3835e-07)
(1.8396e-09 -3.86388e-09 2.88092e-09)
(5.12179e-09 -1.08313e-08 8.13786e-09)
(8.11628e-09 -1.73867e-08 1.32597e-08)
(1.09174e-08 -2.38118e-08 1.85593e-08)
(1.36111e-08 -3.03362e-08 2.43152e-08)
(1.62799e-08 -3.71446e-08 3.07862e-08)
(1.90075e-08 -4.43816e-08 3.8219e-08)
(2.18831e-08 -5.21561e-08 4.6852e-08)
(2.50048e-08 -6.05472e-08 5.69132e-08)
(2.84823e-08 -6.96093e-08 6.8611e-08)
(3.24352e-08 -7.93765e-08 8.21076e-08)
(3.69862e-08 -8.98613e-08 9.74733e-08)
(4.2214e-08 -1.01014e-07 1.14559e-07)
(4.8003e-08 -1.12525e-07 1.32654e-07)
(5.35202e-08 -1.23196e-07 1.4956e-07)
(5.61563e-08 -1.29673e-07 1.59859e-07)
(2.02166e-09 -4.08202e-09 3.13994e-09)
(5.6262e-09 -1.14499e-08 8.86466e-09)
(8.90721e-09 -1.8401e-08 1.4427e-08)
(1.19636e-08 -2.5244e-08 2.01569e-08)
(1.48853e-08 -3.22347e-08 2.63455e-08)
(1.77593e-08 -3.95856e-08 3.32609e-08)
(2.06746e-08 -4.74739e-08 4.11561e-08)
(2.37291e-08 -5.60496e-08 5.02734e-08)
(2.70363e-08 -6.54475e-08 6.0844e-08)
(3.07367e-08 -7.58009e-08 7.30835e-08)
(3.50155e-08 -8.72659e-08 8.7174e-08)
(4.0136e-08 -1.00062e-07 1.03238e-07)
(4.64946e-08 -1.14542e-07 1.21261e-07)
(5.47032e-08 -1.31274e-07 1.4084e-07)
(6.54124e-08 -1.50788e-07 1.60273e-07)
(7.68645e-08 -1.70273e-07 1.7382e-07)
(1.63135e-10 -3.81253e-10 2.40822e-10)
(4.54349e-10 -1.0663e-09 6.81092e-10)
(7.2052e-10 -1.70399e-09 1.11266e-09)
(9.69885e-10 -2.31767e-09 1.56287e-09)
(1.20965e-09 -2.9241e-09 2.05673e-09)
(1.44575e-09 -3.53242e-09 2.61689e-09)
(1.68312e-09 -4.14242e-09 3.26353e-09)
(1.92614e-09 -4.74389e-09 4.01467e-09)
(2.17863e-09 -5.31037e-09 4.8821e-09)
(2.44611e-09 -5.79525e-09 5.86852e-09)
(2.7401e-09 -6.12142e-09 6.95806e-09)
(3.09123e-09 -6.16432e-09 8.1022e-09)
(3.56261e-09 -5.72064e-09 9.18551e-09)
(4.27901e-09 -4.42597e-09 9.97214e-09)
(5.30918e-09 -1.70149e-09 9.92446e-09)
(6.09943e-09 2.40493e-09 8.14477e-09)
(4.85805e-10 -1.13173e-09 7.15887e-10)
(1.353e-09 -3.1656e-09 2.02458e-09)
(2.14522e-09 -5.05987e-09 3.30636e-09)
(2.88733e-09 -6.88482e-09 4.6434e-09)
(3.60031e-09 -8.69069e-09 6.10884e-09)
(4.30179e-09 -1.05058e-08 7.76912e-09)
(5.00635e-09 -1.23338e-08 9.68479e-09)
(5.72523e-09 -1.41461e-08 1.19066e-08)
(6.46695e-09 -1.58744e-08 1.447e-08)
(7.23774e-09 -1.73946e-08 1.73786e-08)
(8.04816e-09 -1.85122e-08 2.05781e-08)
(8.92e-09 -1.89547e-08 2.38994e-08)
(9.90259e-09 -1.83886e-08 2.69663e-08)
(1.10025e-08 -1.65574e-08 2.89848e-08)
(1.19145e-08 -1.37352e-08 2.85219e-08)
(1.16704e-08 -1.16526e-08 2.45368e-08)
(7.98681e-10 -1.84811e-09 1.17297e-09)
(2.22428e-09 -5.17077e-09 3.31692e-09)
(3.52634e-09 -8.26972e-09 5.4154e-09)
(4.74549e-09 -1.12616e-08 7.60253e-09)
(5.91632e-09 -1.42322e-08 9.99713e-09)
(7.06796e-09 -1.72341e-08 1.27078e-08)
(8.224e-09 -2.02813e-08 1.58327e-08)
(9.40189e-09 -2.33436e-08 1.94568e-08)
(1.06092e-08 -2.63325e-08 2.36394e-08)
(1.18394e-08 -2.90876e-08 2.8392e-08)
(1.30641e-08 -3.13674e-08 3.36351e-08)
(1.42213e-08 -3.28698e-08 3.912e-08)
(1.51857e-08 -3.33437e-08 4.42984e-08)
(1.5692e-08 -3.29081e-08 4.8131e-08)
(1.52056e-08 -3.26229e-08 4.90168e-08)
(1.33199e-08 -3.42183e-08 4.62028e-08)
(1.09562e-09 -2.50767e-09 1.60134e-09)
(3.05089e-09 -7.01916e-09 4.52657e-09)
(4.83601e-09 -1.12341e-08 7.38781e-09)
(6.50643e-09 -1.53162e-08 1.03654e-08)
(8.10962e-09 -1.93884e-08 1.36201e-08)
(9.68612e-09 -2.35323e-08 1.72985e-08)
(1.12695e-08 -2.77846e-08 2.15351e-08)
(1.28833e-08 -3.21289e-08 2.64465e-08)
(1.45348e-08 -3.64865e-08 3.21201e-08)
(1.62008e-08 -4.07006e-08 3.85848e-08)
(1.78004e-08 -4.45323e-08 4.57584e-08)
(1.91454e-08 -4.76855e-08 5.33537e-08)
(1.98641e-08 -4.99272e-08 6.07456e-08)
(1.92911e-08 -5.13883e-08 6.67522e-08)
(1.65691e-08 -5.2999e-08 6.96064e-08)
(1.20096e-08 -5.58262e-08 6.82623e-08)
(1.3709e-09 -3.08829e-09 1.991e-09)
(3.81686e-09 -8.64804e-09 5.62683e-09)
(6.04844e-09 -1.38536e-08 9.17796e-09)
(8.13433e-09 -1.89133e-08 1.28659e-08)
(1.01343e-08 -2.39888e-08 1.68873e-08)
(1.21004e-08 -2.91958e-08 2.1422e-08)
(1.40768e-08 -3.46019e-08 2.66354e-08)
(1.60979e-08 -4.02227e-08 3.26748e-08)
(1.81778e-08 -4.60129e-08 3.96558e-08)
(2.02923e-08 -5.18555e-08 4.76342e-08)
(2.23331e-08 -5.75495e-08 5.65425e-08)
(2.40399e-08 -6.28108e-08 6.61157e-08)
(2.48407e-08 -6.73057e-08 7.56921e-08)
(2.37015e-08 -7.07799e-08 8.40182e-08)
(1.92908e-08 -7.33421e-08 8.91009e-08)
(1.22444e-08 -7.55484e-08 8.93364e-08)
(1.6195e-09 -3.56827e-09 2.33449e-09)
(4.50809e-09 -9.99704e-09 6.59515e-09)
(7.14051e-09 -1.60302e-08 1.07489e-08)
(9.59718e-09 -2.1918e-08 1.50505e-08)
(1.19484e-08 -2.78594e-08 1.97256e-08)
(1.42571e-08 -3.40057e-08 2.49801e-08)
(1.65801e-08 -4.04618e-08 3.10043e-08)
(1.89661e-08 -4.72852e-08 3.79698e-08)
(2.1449e-08 -5.44837e-08 4.60182e-08)
(2.403e-08 -6.20078e-08 5.52323e-08)
(2.66396e-08 -6.97372e-08 6.55841e-08)
(2.90554e-08 -7.74528e-08 7.68364e-08)
(3.0735e-08 -8.47705e-08 8.837e-08)
(3.05554e-08 -9.09943e-08 9.88998e-08)
(2.67311e-08 -9.49458e-08 1.06238e-07)
(1.89988e-08 -9.5509e-08 1.08201e-07)
(1.83738e-09 -3.92764e-09 2.62627e-09)
(5.11284e-09 -1.10097e-08 7.41571e-09)
(8.09354e-09 -1.76725e-08 1.20743e-08)
(1.08683e-08 -2.42022e-08 1.68815e-08)
(1.3516e-08 -3.08308e-08 2.20832e-08)
(1.61088e-08 -3.77432e-08 2.79032e-08)
(1.87148e-08 -4.50807e-08 3.45478e-08)
(2.13995e-08 -5.29457e-08 4.22039e-08)
(2.42234e-08 -6.14047e-08 5.10297e-08)
(2.72346e-08 -7.04894e-08 6.11284e-08)
(3.04512e-08 -8.01944e-08 7.25021e-08)
(3.3816e-08 -9.0461e-08 8.49552e-08)
(3.70943e-08 -1.01113e-07 9.79116e-08)
(3.96725e-08 -1.11642e-07 1.10061e-07)
(4.0268e-08 -1.20669e-07 1.18921e-07)
(3.75646e-08 -1.25249e-07 1.21534e-07)
(2.02136e-09 -4.14901e-09 2.86298e-09)
(5.62295e-09 -1.16373e-08 8.07975e-09)
(8.894e-09 -1.87011e-08 1.31403e-08)
(1.19288e-08 -2.56534e-08 1.8339e-08)
(1.4811e-08 -3.27518e-08 2.39337e-08)
(1.76187e-08 -4.0208e-08 3.01562e-08)
(2.04278e-08 -4.81934e-08 3.72183e-08)
(2.33157e-08 -5.68474e-08 4.531e-08)
(2.6365e-08 -6.62833e-08 5.45912e-08)
(2.96645e-08 -7.65972e-08 6.51678e-08)
(3.33124e-08 -8.78765e-08 7.70484e-08)
(3.74136e-08 -1.00212e-07 9.0055e-08)
(4.2069e-08 -1.13708e-07 1.03635e-07)
(4.73591e-08 -1.28449e-07 1.16454e-07)
(5.3251e-08 -1.44221e-07 1.25669e-07)
(5.88122e-08 -1.58372e-07 1.27155e-07)
(1.61781e-10 -3.86584e-10 2.08884e-10)
(4.50174e-10 -1.08125e-09 5.90626e-10)
(7.12362e-10 -1.72805e-09 9.63862e-10)
(9.55785e-10 -2.35085e-09 1.35264e-09)
(1.18609e-09 -2.96715e-09 1.77728e-09)
(1.40717e-09 -3.58666e-09 2.25633e-09)
(1.62081e-09 -4.21118e-09 2.80556e-09)
(1.82624e-09 -4.83293e-09 3.43723e-09)
(2.01915e-09 -5.43212e-09 4.15693e-09)
(2.19108e-09 -5.97449e-09 4.95883e-09)
(2.3291e-09 -6.40875e-09 5.81637e-09)
(2.41717e-09 -6.66341e-09 6.66733e-09)
(2.44085e-09 -6.63797e-09 7.39899e-09)
(2.36413e-09 -6.17256e-09 7.8122e-09)
(2.06926e-09 -4.96716e-09 7.6561e-09)
(1.30415e-09 -2.77799e-09 6.81211e-09)
(4.8192e-10 -1.14746e-09 6.21011e-10)
(1.34085e-09 -3.20967e-09 1.7554e-09)
(2.12181e-09 -5.13082e-09 2.86489e-09)
(2.84657e-09 -6.98265e-09 4.01887e-09)
(3.53218e-09 -8.81688e-09 5.27895e-09)
(4.1903e-09 -1.06644e-08 6.69915e-09)
(4.82642e-09 -1.25325e-08 8.32614e-09)
(5.43773e-09 -1.44009e-08 1.01954e-08)
(6.01e-09 -1.62163e-08 1.23233e-08)
(6.51274e-09 -1.7886e-08 1.46912e-08)
(6.8947e-09 -1.92761e-08 1.72173e-08)
(7.08385e-09 -2.02221e-08 1.97172e-08)
(6.97828e-09 -2.05667e-08 2.18264e-08)
(6.44359e-09 -2.02405e-08 2.29494e-08)
(5.31896e-09 -1.93902e-08 2.23324e-08)
(3.80052e-09 -1.85119e-08 2.01054e-08)
(7.927e-10 -1.87354e-09 1.01764e-09)
(2.20556e-09 -5.24219e-09 2.8761e-09)
(3.49016e-09 -8.38444e-09 4.69262e-09)
(4.68242e-09 -1.14192e-08 6.58071e-09)
(5.81073e-09 -1.44346e-08 8.64001e-09)
(6.89512e-09 -1.74857e-08 1.09589e-08)
(7.94569e-09 -2.0592e-08 1.36138e-08)
(8.95871e-09 -2.37323e-08 1.66642e-08)
(9.90938e-09 -2.68368e-08 2.01399e-08)
(1.07401e-08 -2.97818e-08 2.40176e-08)
(1.13446e-08 -3.23935e-08 2.81809e-08)
(1.15497e-08 -3.44834e-08 3.23615e-08)
(1.10993e-08 -3.5953e-08 3.60658e-08)
(9.68253e-09 -3.70064e-08 3.85426e-08)
(7.16643e-09 -3.83654e-08 3.90403e-08)
(4.47184e-09 -4.05986e-08 3.79782e-08)
(1.08817e-09 -2.54192e-09 1.38912e-09)
(3.02771e-09 -7.11497e-09 3.9259e-09)
(4.79093e-09 -1.13879e-08 6.40271e-09)
(6.42745e-09 -1.55265e-08 8.97354e-09)
(7.97699e-09 -1.96562e-08 1.17729e-08)
(9.46903e-09 -2.38612e-08 1.49205e-08)
(1.09204e-08 -2.81819e-08 1.85207e-08)
(1.23298e-08 -3.26095e-08 2.2657e-08)
(1.36668e-08 -3.70795e-08 2.73765e-08)
(1.4851e-08 -4.14645e-08 3.26607e-08)
(1.57206e-08 -4.5578e-08 3.83808e-08)
(1.59881e-08 -4.92111e-08 4.42374e-08)
(1.51818e-08 -5.2235e-08 4.96689e-08)
(1.26947e-08 -5.48165e-08 5.388e-08)
(8.21831e-09 -5.75923e-08 5.60988e-08)
(3.35759e-09 -6.08143e-08 5.65298e-08)
(1.36284e-09 -3.12995e-09 1.7276e-09)
(3.79164e-09 -8.76472e-09 4.8808e-09)
(5.99892e-09 -1.40402e-08 7.95555e-09)
(8.04699e-09 -1.91672e-08 1.11403e-08)
(9.98695e-09 -2.43094e-08 1.45998e-08)
(1.18586e-08 -2.95837e-08 1.84809e-08)
(1.36887e-08 -3.50589e-08 2.29129e-08)
(1.54847e-08 -4.07526e-08 2.80013e-08)
(1.72219e-08 -4.66247e-08 3.38117e-08)
(1.8818e-08 -5.25692e-08 4.0338e-08)
(2.00929e-08 -5.84089e-08 4.74634e-08)
(2.06861e-08 -6.38959e-08 5.48629e-08)
(1.99686e-08 -6.87439e-08 6.19732e-08)
(1.70128e-08 -7.27041e-08 6.79478e-08)
(1.1104e-08 -7.57085e-08 7.19361e-08)
(4.11059e-09 -7.78385e-08 7.38037e-08)
(1.6117e-09 -3.6159e-09 2.02615e-09)
(4.48326e-09 -1.01302e-08 5.7218e-09)
(7.09124e-09 -1.62425e-08 9.3191e-09)
(9.50917e-09 -2.22056e-08 1.30347e-08)
(1.17987e-08 -2.82194e-08 1.70573e-08)
(1.40106e-08 -3.44348e-08 2.15557e-08)
(1.61839e-08 -4.09541e-08 2.66788e-08)
(1.83416e-08 -4.783e-08 3.25498e-08)
(2.04798e-08 -5.50627e-08 3.92504e-08)
(2.25463e-08 -6.25916e-08 4.67908e-08)
(2.43995e-08 -7.02803e-08 5.50578e-08)
(2.57324e-08 -7.78845e-08 6.37403e-08)
(2.59457e-08 -8.498e-08 7.22393e-08)
(2.40353e-08 -9.08111e-08 7.96439e-08)
(1.88519e-08 -9.41084e-08 8.49651e-08)
(1.13896e-08 -9.37394e-08 8.78523e-08)
(1.83051e-09 -3.97951e-09 2.27976e-09)
(5.09077e-09 -1.11545e-08 6.43502e-09)
(8.04864e-09 -1.7903e-08 1.04705e-08)
(1.07865e-08 -2.45131e-08 1.46236e-08)
(1.3375e-08 -3.12171e-08 1.91007e-08)
(1.58747e-08 -3.81973e-08 2.40851e-08)
(1.83374e-08 -4.5589e-08 2.97384e-08)
(2.08048e-08 -5.3483e-08 3.61947e-08)
(2.33029e-08 -6.19259e-08 4.35448e-08)
(2.58315e-08 -7.09167e-08 5.18079e-08)
(2.83414e-08 -8.03954e-08 6.08748e-08)
(3.06922e-08 -9.02129e-08 7.04259e-08)
(3.25803e-08 -1.00049e-07 7.98096e-08)
(3.34684e-08 -1.09207e-07 8.79487e-08)
(3.26497e-08 -1.16179e-07 9.35012e-08)
(3.0123e-08 -1.18522e-07 9.58993e-08)
(2.01609e-09 -4.2033e-09 2.48575e-09)
(5.60539e-09 -1.17888e-08 7.01276e-09)
(8.85687e-09 -1.89418e-08 1.13973e-08)
(1.18588e-08 -2.59771e-08 1.589e-08)
(1.46873e-08 -3.31518e-08 2.07071e-08)
(1.74104e-08 -4.06732e-08 2.60388e-08)
(2.00895e-08 -4.87042e-08 3.20513e-08)
(2.27814e-08 -5.73671e-08 3.88803e-08)
(2.55382e-08 -6.6747e-08 4.66161e-08)
(2.8407e-08 -7.68924e-08 5.52752e-08)
(3.14256e-08 -8.78111e-08 6.47423e-08)
(3.46174e-08 -9.94619e-08 7.46787e-08)
(3.79947e-08 -1.11737e-07 8.43712e-08)
(4.16319e-08 -1.24434e-07 9.2543e-08)
(4.5864e-08 -1.37136e-07 9.72923e-08)
(5.09308e-08 -1.48044e-07 9.73621e-08)
(1.60255e-10 -3.90748e-10 1.69832e-10)
(4.45445e-10 -1.09287e-09 4.79844e-10)
(7.03534e-10 -1.74661e-09 7.82999e-10)
(9.40835e-10 -2.37669e-09 1.0974e-09)
(1.16179e-09 -3.00041e-09 1.44006e-09)
(1.36839e-09 -3.62855e-09 1.82462e-09)
(1.55982e-09 -4.26405e-09 2.26272e-09)
(1.73122e-09 -4.90098e-09 2.76198e-09)
(1.87276e-09 -5.52407e-09 3.3242e-09)
(1.96753e-09 -6.10715e-09 3.94075e-09)
(1.99122e-09 -6.61207e-09 4.58619e-09)
(1.91336e-09 -6.99042e-09 5.21262e-09)
(1.69744e-09 -7.17485e-09 5.73863e-09)
(1.29879e-09 -7.0417e-09 6.08299e-09)
(6.25007e-10 -6.29272e-09 6.21741e-09)
(-3.946e-10 -4.49655e-09 6.22893e-09)
(4.7747e-10 -1.15973e-09 5.04825e-10)
(1.32728e-09 -3.24398e-09 1.42687e-09)
(2.09623e-09 -5.18617e-09 2.32683e-09)
(2.80334e-09 -7.05857e-09 3.26127e-09)
(3.46188e-09 -8.91493e-09 4.27791e-09)
(4.07818e-09 -1.07871e-08 5.41825e-09)
(4.65005e-09 -1.26851e-08 6.71585e-09)
(5.16392e-09 -1.45945e-08 8.19387e-09)
(5.58987e-09 -1.64726e-08 9.85692e-09)
(5.87617e-09 -1.82453e-08 1.16788e-08)
(5.94559e-09 -1.98107e-08 1.35847e-08)
(5.69596e-09 -2.10478e-08 1.54214e-08)
(5.02082e-09 -2.18387e-08 1.69486e-08)
(3.86025e-09 -2.20813e-08 1.78319e-08)
(2.34251e-09 -2.1669e-08 1.77919e-08)
(1.10321e-09 -2.06198e-08 1.70374e-08)
(7.8579e-10 -1.89346e-09 8.27356e-10)
(2.1845e-09 -5.29804e-09 2.33803e-09)
(3.45042e-09 -8.47391e-09 3.81219e-09)
(4.61515e-09 -1.15418e-08 5.34098e-09)
(5.7011e-09 -1.45907e-08 7.00265e-09)
(6.72031e-09 -1.7678e-08 8.86457e-09)
(7.67151e-09 -2.08267e-08 1.09825e-08)
(8.53481e-09 -2.40211e-08 1.33951e-08)
(9.26343e-09 -2.72039e-08 1.61132e-08)
(9.77174e-09 -3.02724e-08 1.91008e-08)
(9.92308e-09 -3.3085e-08 2.22484e-08)
(9.52454e-09 -3.54922e-08 2.53413e-08)
(8.35261e-09 -3.74096e-08 2.80408e-08)
(6.27885e-09 -3.8944e-08 2.99451e-08)
(3.61532e-09 -4.04828e-08 3.08161e-08)
(1.66938e-09 -4.22411e-08 3.10202e-08)
(1.07951e-09 -2.56871e-09 1.12984e-09)
(3.00115e-09 -7.19003e-09 3.19168e-09)
(4.74077e-09 -1.15079e-08 5.20237e-09)
(6.34217e-09 -1.56893e-08 7.28437e-09)
(7.83796e-09 -1.98613e-08 9.54342e-09)
(9.24755e-09 -2.41095e-08 1.20711e-08)
(1.05739e-08 -2.84759e-08 1.49437e-08)
(1.17968e-08 -3.2956e-08 1.82163e-08)
(1.28606e-08 -3.74926e-08 2.19086e-08)
(1.36561e-08 -4.1972e-08 2.59841e-08)
(1.39956e-08 -4.6228e-08 3.0319e-08)
(1.35862e-08 -5.00685e-08 3.46575e-08)
(1.20397e-08 -5.33541e-08 3.86365e-08)
(9.00936e-09 -5.61408e-08 4.18327e-08)
(4.70746e-09 -5.87962e-08 4.40237e-08)
(9.97776e-10 -6.14229e-08 4.53698e-08)
(1.35318e-09 -3.16259e-09 1.40525e-09)
(3.76195e-09 -8.85586e-09 3.96889e-09)
(5.9426e-09 -1.41851e-08 6.46544e-09)
(7.95101e-09 -1.93627e-08 9.04507e-09)
(9.83005e-09 -2.45523e-08 1.18372e-08)
(1.16088e-08 -2.98713e-08 1.49544e-08)
(1.32989e-08 -3.53879e-08 1.84916e-08)
(1.48879e-08 -4.11181e-08 2.25183e-08)
(1.63258e-08 -4.7021e-08 2.70652e-08)
(1.75038e-08 -5.29901e-08 3.21016e-08)
(1.82181e-08 -5.88447e-08 3.74886e-08)
(1.81277e-08 -6.43283e-08 4.29729e-08)
(1.67088e-08 -6.91153e-08 4.81495e-08)
(1.33486e-08 -7.28614e-08 5.25844e-08)
(7.88289e-09 -7.53371e-08 5.60238e-08)
(2.33768e-09 -7.66591e-08 5.83986e-08)
(1.60185e-09 -3.65309e-09 1.64827e-09)
(4.45293e-09 -1.02339e-08 4.65376e-09)
(7.03333e-09 -1.64068e-08 7.57515e-09)
(9.4098e-09 -2.24252e-08 1.05852e-08)
(1.16358e-08 -2.84891e-08 1.38325e-08)
(1.37511e-08 -3.47474e-08 1.74465e-08)
(1.57797e-08 -4.12978e-08 2.15362e-08)
(1.77252e-08 -4.81858e-08 2.61834e-08)
(1.95596e-08 -5.53996e-08 3.14273e-08)
(2.12058e-08 -6.28601e-08 3.72383e-08)
(2.25065e-08 -7.04016e-08 4.34809e-08)
(2.31747e-08 -7.7734e-08 4.987e-08)
(2.27329e-08 -8.43667e-08 5.59655e-08)
(2.05031e-08 -8.94611e-08 6.12552e-08)
(1.59028e-08 -9.17209e-08 6.5412e-08)
(1.00658e-08 -9.03143e-08 6.832e-08)
(1.82122e-09 -4.01988e-09 1.85504e-09)
(5.06201e-09 -1.12669e-08 5.2349e-09)
(7.9932e-09 -1.80803e-08 8.51275e-09)
(1.06907e-08 -2.47488e-08 1.1878e-08)
(1.32169e-08 -3.15031e-08 1.54932e-08)
(1.56221e-08 -3.85219e-08 1.94989e-08)
(1.79441e-08 -4.59325e-08 2.40138e-08)
(2.02062e-08 -5.38122e-08 2.9126e-08)
(2.24128e-08 -6.21853e-08 3.4879e-08)
(2.45405e-08 -7.10156e-08 4.12415e-08)
(2.65257e-08 -8.01888e-08 4.80674e-08)
(2.82456e-08 -8.94767e-08 5.50382e-08)
(2.95037e-08 -9.84575e-08 6.16268e-08)
(3.00612e-08 -1.06349e-07 6.71445e-08)
(2.97531e-08 -1.11738e-07 7.10285e-08)
(2.8756e-08 -1.12806e-07 7.32616e-08)
(2.00801e-09 -4.24541e-09 2.02304e-09)
(5.5801e-09 -1.19059e-08 5.70599e-09)
(8.80741e-09 -1.91262e-08 9.26797e-09)
(1.1772e-08 -2.62208e-08 1.29094e-08)
(1.45428e-08 -3.34449e-08 1.68004e-08)
(1.71782e-08 -4.10004e-08 2.10875e-08)
(1.9727e-08 -4.90394e-08 2.58922e-08)
(2.22298e-08 -5.76662e-08 3.13034e-08)
(2.47196e-08 -6.69368e-08 3.73622e-08)
(2.7222e-08 -7.68532e-08 4.40303e-08)
(2.97596e-08 -8.73536e-08 5.1146e-08)
(3.23637e-08 -9.82981e-08 5.83543e-08)
(3.51241e-08 -1.0946e-07 6.50354e-08)
(3.8346e-08 -1.20553e-07 7.02805e-08)
(4.28281e-08 -1.31315e-07 7.30959e-08)
(4.90824e-08 -1.40777e-07 7.3261e-08)
(1.58804e-10 -3.93712e-10 1.25164e-10)
(4.41097e-10 -1.10115e-09 3.53807e-10)
(6.95416e-10 -1.76008e-09 5.7649e-10)
(9.27339e-10 -2.39466e-09 8.07712e-10)
(1.14042e-09 -3.02455e-09 1.05878e-09)
(1.33497e-09 -3.65898e-09 1.3395e-09)
(1.50825e-09 -4.30178e-09 1.65745e-09)
(1.65308e-09 -4.94876e-09 2.01734e-09)
(1.75645e-09 -5.58671e-09 2.41901e-09)
(1.79852e-09 -6.19277e-09 2.85483e-09)
(1.75314e-09 -6.73434e-09 3.30623e-09)
(1.59125e-09 -7.16704e-09 3.7403e-09)
(1.28746e-09 -7.42493e-09 4.12082e-09)
(8.20563e-10 -7.36847e-09 4.41587e-09)
(1.33715e-10 -6.66868e-09 4.67291e-09)
(-8.22114e-10 -4.85134e-09 4.94287e-09)
(4.73318e-10 -1.1686e-09 3.72284e-10)
(1.31465e-09 -3.26893e-09 1.05153e-09)
(2.07275e-09 -5.22569e-09 1.71416e-09)
(2.76459e-09 -7.11441e-09 2.40072e-09)
(3.39974e-09 -8.98579e-09 3.14566e-09)
(3.98091e-09 -1.08748e-08 3.97786e-09)
(4.50038e-09 -1.27928e-08 4.91979e-09)
(4.9377e-09 -1.47281e-08 5.98509e-09)
(5.2549e-09 -1.66434e-08 7.17331e-09)
(5.3931e-09 -1.84733e-08 8.46153e-09)
(5.27265e-09 -2.01248e-08 9.79265e-09)
(4.80551e-09 -2.14826e-08 1.10719e-08)
(3.93051e-09 -2.24091e-08 1.21528e-08)
(2.68755e-09 -2.27301e-08 1.28774e-08)
(1.35242e-09 -2.21875e-08 1.31221e-08)
(5.50087e-10 -2.07479e-08 1.29202e-08)
(7.79324e-10 -1.908e-09 6.10155e-10)
(2.16484e-09 -5.33867e-09 1.72331e-09)
(3.41405e-09 -8.53959e-09 2.8088e-09)
(4.55427e-09 -1.16303e-08 3.93219e-09)
(5.60392e-09 -1.47035e-08 5.14989e-09)
(6.5683e-09 -1.78154e-08 6.5088e-09)
(7.43813e-09 -2.09908e-08 8.04614e-09)
(8.18358e-09 -2.42178e-08 9.78533e-09)
(8.74685e-09 -2.74438e-08 1.17278e-08)
(9.03416e-09 -3.05735e-08 1.38406e-08)
(8.91182e-09 -3.34724e-08 1.60422e-08)
(8.21794e-09 -3.59872e-08 1.81893e-08)
(6.81791e-09 -3.79894e-08 2.00857e-08)
(4.75236e-09 -3.94756e-08 2.1531e-08)
(2.53619e-09 -4.06543e-08 2.24282e-08)
(1.34832e-09 -4.17825e-08 2.28755e-08)
(1.07131e-09 -2.58842e-09 8.33042e-10)
(2.97625e-09 -7.24504e-09 2.35324e-09)
(4.69427e-09 -1.1595e-08 3.83375e-09)
(6.26485e-09 -1.58079e-08 5.36403e-09)
(7.71386e-09 -2.00083e-08 7.01949e-09)
(9.0536e-09 -2.42841e-08 8.86431e-09)
(1.02772e-08 -2.86774e-08 1.09497e-08)
(1.13526e-08 -3.31843e-08 1.33091e-08)
(1.22125e-08 -3.77491e-08 1.59482e-08)
(1.2741e-08 -4.22595e-08 1.88305e-08)
(1.2761e-08 -4.65463e-08 2.18579e-08)
(1.20326e-08 -5.04012e-08 2.48667e-08)
(1.02897e-08 -5.36311e-08 2.76334e-08)
(7.40648e-09 -5.61799e-08 2.99539e-08)
(3.81318e-09 -5.82799e-08 3.17311e-08)
(1.11655e-09 -6.0176e-08 3.29e-08)
(1.3439e-09 -3.18648e-09 1.03641e-09)
(3.73383e-09 -8.92272e-09 2.92673e-09)
(5.89012e-09 -1.42911e-08 4.7655e-09)
(7.86275e-09 -1.95032e-08 6.66164e-09)
(9.68886e-09 -2.4725e-08 8.70799e-09)
(1.13885e-08 -3.0071e-08 1.09833e-08)
(1.29629e-08 -3.5608e-08 1.35514e-08)
(1.43874e-08 -4.13488e-08 1.64548e-08)
(1.56007e-08 -4.72473e-08 1.97043e-08)
(1.64898e-08 -5.31881e-08 2.32606e-08)
(1.68712e-08 -5.89765e-08 2.70229e-08)
(1.64652e-08 -6.43228e-08 3.08015e-08)
(1.49021e-08 -6.885e-08 3.43581e-08)
(1.18154e-08 -7.21301e-08 3.74718e-08)
(7.26205e-09 -7.38727e-08 4.00261e-08)
(2.91831e-09 -7.44105e-08 4.18103e-08)
(1.59227e-09 -3.68043e-09 1.21601e-09)
(4.42361e-09 -1.03098e-08 3.43239e-09)
(6.97823e-09 -1.65259e-08 5.58439e-09)
(9.3176e-09 -2.25831e-08 7.79731e-09)
(1.14875e-08 -2.86787e-08 1.01776e-08)
(1.35198e-08 -3.49603e-08 1.2816e-08)
(1.54278e-08 -4.15204e-08 1.57858e-08)
(1.72032e-08 -4.83962e-08 1.91367e-08)
(1.88077e-08 -5.55629e-08 2.28824e-08)
(2.01624e-08 -6.29211e-08 2.69839e-08)
(2.11311e-08 -7.02747e-08 3.1326e-08)
(2.14996e-08 -7.72938e-08 3.56996e-08)
(2.09479e-08 -8.34351e-08 3.98181e-08)
(1.90557e-08 -8.78228e-08 4.34042e-08)
(1.54677e-08 -8.92069e-08 4.63061e-08)
(1.09393e-08 -8.70747e-08 4.83332e-08)
(1.8119e-09 -4.04942e-09 1.36872e-09)
(5.03352e-09 -1.13489e-08 3.86166e-09)
(7.93955e-09 -1.82087e-08 6.27661e-09)
(1.05998e-08 -2.49165e-08 8.75102e-09)
(1.30707e-08 -3.17021e-08 1.14015e-08)
(1.5394e-08 -3.87391e-08 1.43268e-08)
(1.75974e-08 -4.61475e-08 1.76064e-08)
(1.96934e-08 -5.39914e-08 2.12935e-08)
(2.16765e-08 -6.22748e-08 2.54019e-08)
(2.35226e-08 -7.09309e-08 2.98881e-08)
(2.51887e-08 -7.98035e-08 3.46219e-08)
(2.66176e-08 -8.86111e-08 3.93557e-08)
(2.77628e-08 -9.68856e-08 4.37234e-08)
(2.86283e-08 -1.03848e-07 4.73188e-08)
(2.92726e-08 -1.08237e-07 4.9862e-08)
(2.95157e-08 -1.08672e-07 5.13435e-08)
(1.99957e-09 -4.27621e-09 1.4929e-09)
(5.55405e-09 -1.19912e-08 4.20972e-09)