/*--------------------------------*- C++ -*----------------------------------*\
| =========                 |                                                 |
| \\      /  F ield         | OpenFOAM: The Open Source CFD Toolbox           |
|  \\    /   O peration     | Version:  v1912                                 |
|   \\  /    A nd           | Website:  www.openfoam.com                      |
|    \\/     M anipulation  |                                                 |
\*---------------------------------------------------------------------------*/
FoamFile
{
    version     2.0;
    format      ascii;
    class       pointVectorField;
    location    "0.51/fluid";
    object      pointMotionU;
}
// * * * * * * * * * * * * * * * * * * * * * * * * * * * * * * * * * * * * * //

dimensions      [0 1 -1 0 0 0 0];


internalField   nonuniform List<vector> 
16859
(
(0 0 0)
(0 0 0)
(0 0 0)
(0 0 0)
(0 0 0)
(0 0 0)
(0 0 0)
(0 0 0)
(0 0 0)
(0 0 0)
(0 0 0)
(0 0 0)
(0 0 0)
(0 0 0)
(0 0 0)
(0 0 0)
(2.24888e-08 3.80229e-08 2.22617e-08)
(0 0 0)
(6.17631e-10 -1.36749e-09 1.06578e-09)
(1.17835e-09 -2.61684e-09 2.07682e-09)
(1.70352e-09 -3.79785e-09 3.1056e-09)
(2.21254e-09 -4.94714e-09 4.21631e-09)
(2.72433e-09 -6.0866e-09 5.46857e-09)
(3.25916e-09 -7.22109e-09 6.92007e-09)
(3.8414e-09 -8.33337e-09 8.62777e-09)
(4.50388e-09 -9.37406e-09 1.0648e-08)
(5.29689e-09 -1.02436e-08 1.30362e-08)
(6.30749e-09 -1.07599e-08 1.58491e-08)
(7.70116e-09 -1.05977e-08 1.9155e-08)
(9.81471e-09 -9.16379e-09 2.30773e-08)
(1.33393e-08 -5.34116e-09 2.79186e-08)
(1.95586e-08 2.92392e-09 3.44145e-08)
(2.91456e-08 1.70916e-08 4.30166e-08)
(4.5714e-08 4.62877e-08 5.41915e-08)
(0 0 0)
(1.22158e-09 -2.69459e-09 2.10427e-09)
(2.33015e-09 -5.15814e-09 4.09977e-09)
(3.36748e-09 -7.49001e-09 6.12881e-09)
(4.37137e-09 -9.76392e-09 8.31714e-09)
(5.37866e-09 -1.20266e-08 1.07819e-08)
(6.42839e-09 -1.42937e-08 1.36364e-08)
(7.56603e-09 -1.65407e-08 1.69918e-08)
(8.85007e-09 -1.86872e-08 2.09572e-08)
(1.03641e-08 -2.05693e-08 2.56368e-08)
(1.22403e-08 -2.18945e-08 3.11255e-08)
(1.47047e-08 -2.2173e-08 3.7507e-08)
(1.81643e-08 -2.06234e-08 4.48678e-08)
(2.33158e-08 -1.61078e-08 5.33356e-08)
(3.10883e-08 -7.37924e-09 6.30794e-08)
(4.08949e-08 4.52204e-09 7.31492e-08)
(5.96151e-08 2.11749e-08 8.97485e-08)
(0 0 0)
(1.79905e-09 -3.94119e-09 3.09007e-09)
(3.43066e-09 -7.54834e-09 6.01875e-09)
(4.95532e-09 -1.097e-08 8.99327e-09)
(6.42767e-09 -1.43187e-08 1.21966e-08)
(7.90082e-09 -1.76707e-08 1.57994e-08)
(9.43018e-09 -2.10613e-08 1.99665e-08)
(1.10782e-08 -2.44758e-08 2.486e-08)
(1.29209e-08 -2.78321e-08 3.06385e-08)
(1.5057e-08 -3.09527e-08 3.74516e-08)
(1.76229e-08 -3.35217e-08 4.54259e-08)
(2.08173e-08 -3.50321e-08 5.46431e-08)
(2.49412e-08 -3.47435e-08 6.51113e-08)
(3.04189e-08 -3.17515e-08 7.67226e-08)
(3.76729e-08 -2.54271e-08 8.91641e-08)
(4.58636e-08 -1.72164e-08 1.00871e-07)
(6.06515e-08 -6.04757e-09 1.17375e-07)
(0 0 0)
(2.33801e-09 -5.06643e-09 3.99975e-09)
(4.45656e-09 -9.70964e-09 7.78741e-09)
(6.43256e-09 -1.41265e-08 1.16282e-08)
(8.33541e-09 -1.84692e-08 1.5756e-08)
(1.02323e-08 -2.28481e-08 2.03887e-08)
(1.21925e-08 -2.73279e-08 2.57369e-08)
(1.42923e-08 -3.19212e-08 3.20085e-08)
(1.66203e-08 -3.65743e-08 3.94084e-08)
(1.92825e-08 -4.11442e-08 4.81319e-08)
(2.24047e-08 -4.53643e-08 5.83444e-08)
(2.61343e-08 -4.87999e-08 7.01456e-08)
(3.06311e-08 -5.08088e-08 8.3506e-08)
(3.60159e-08 -5.05658e-08 9.81465e-08)
(4.22364e-08 -4.73188e-08 1.1333e-07)
(4.83501e-08 -4.16703e-08 1.26728e-07)
(5.9541e-08 -3.13679e-08 1.4315e-07)
(0 0 0)
(2.82801e-09 -6.03021e-09 4.81363e-09)
(5.38764e-09 -1.15651e-08 9.36689e-09)
(7.76934e-09 -1.68471e-08 1.39741e-08)
(1.00546e-08 -2.20679e-08 1.89118e-08)
(1.23222e-08 -2.7374e-08 2.44372e-08)
(1.46529e-08 -3.28669e-08 3.07986e-08)
(1.71347e-08 -3.85997e-08 3.8242e-08)
(1.98683e-08 -4.45703e-08 4.70138e-08)
(2.29701e-08 -5.07079e-08 5.7355e-08)
(2.65705e-08 -5.68498e-08 6.94835e-08)
(3.08059e-08 -6.27048e-08 8.35602e-08)
(3.57873e-08 -6.77901e-08 9.96168e-08)
(4.15078e-08 -7.13288e-08 1.17392e-07)
(4.76588e-08 -7.21395e-08 1.35986e-07)
(5.30539e-08 -6.93117e-08 1.52283e-07)
(6.22652e-08 -5.80453e-08 1.70276e-07)
(0 0 0)
(3.26061e-09 -6.79443e-09 5.51673e-09)
(6.2076e-09 -1.3041e-08 1.07276e-08)
(8.9416e-09 -1.9023e-08 1.59858e-08)
(1.15531e-08 -2.49681e-08 2.16008e-08)
(1.41292e-08 -3.10585e-08 2.78589e-08)
(1.67593e-08 -3.74339e-08 3.50359e-08)
(1.95411e-08 -4.4194e-08 4.34057e-08)
(2.25873e-08 -5.13995e-08 5.32452e-08)
(2.60312e-08 -5.90706e-08 6.48347e-08)
(3.00319e-08 -6.71827e-08 7.84491e-08)
(3.47782e-08 -7.56527e-08 9.43425e-08)
(4.04822e-08 -8.42976e-08 1.12709e-07)
(4.73182e-08 -9.27022e-08 1.33555e-07)
(5.52125e-08 -9.98749e-08 1.56294e-07)
(6.27716e-08 -1.03712e-07 1.77376e-07)
(7.40582e-08 -9.48597e-08 2.00866e-07)
(0 0 0)
(3.62968e-09 -7.32488e-09 6.09936e-09)
(6.90483e-09 -1.40712e-08 1.18508e-08)
(9.93242e-09 -2.05548e-08 1.7635e-08)
(1.28082e-08 -2.70336e-08 2.37834e-08)
(1.56238e-08 -3.37203e-08 3.06001e-08)
(1.84733e-08 -4.07888e-08 3.83761e-08)
(2.14597e-08 -4.83818e-08 4.73986e-08)
(2.47038e-08 -5.66179e-08 5.79588e-08)
(2.83539e-08 -6.5602e-08 7.03561e-08)
(3.26013e-08 -7.54389e-08 8.49007e-08)
(3.77075e-08 -8.62563e-08 1.01922e-07)
(4.40488e-08 -9.82341e-08 1.21781e-07)
(5.21638e-08 -1.11614e-07 1.44852e-07)
(6.27017e-08 -1.26555e-07 1.71292e-07)
(7.47523e-08 -1.41337e-07 1.97999e-07)
(9.68278e-08 -1.58463e-07 2.33527e-07)
(0 0 0)
(3.93187e-09 -7.59331e-09 6.55774e-09)
(7.47345e-09 -1.46008e-08 1.27299e-08)
(1.07338e-08 -2.13603e-08 1.89129e-08)
(1.38097e-08 -2.81504e-08 2.54484e-08)
(1.67931e-08 -3.52056e-08 3.26467e-08)
(1.97774e-08 -4.27253e-08 4.08003e-08)
(2.28644e-08 -5.08827e-08 5.01935e-08)
(2.61731e-08 -5.98363e-08 6.11099e-08)
(2.98514e-08 -6.97434e-08 7.38367e-08)
(3.40938e-08 -8.07802e-08 8.86702e-08)
(3.91732e-08 -9.31737e-08 1.05928e-07)
(4.54891e-08 -1.07253e-07 1.25972e-07)
(5.36171e-08 -1.23509e-07 1.49225e-07)
(6.42458e-08 -1.42569e-07 1.76067e-07)
(7.6168e-08 -1.62523e-07 2.03306e-07)
(1.10198e-07 -2.01298e-07 2.51547e-07)
(0 0 0)
(0 0 0)
(0 0 0)
(0 0 0)
(0 0 0)
(0 0 0)
(0 0 0)
(0 0 0)
(0 0 0)
(0 0 0)
(0 0 0)
(0 0 0)
(0 0 0)
(0 0 0)
(0 0 0)
(0 0 0)
(1.22835e-08 1.90361e-08 9.93257e-09)
(0 0 0)
(6.18272e-10 -1.39763e-09 1.03195e-09)
(1.17846e-09 -2.67462e-09 2.00938e-09)
(1.70105e-09 -3.88246e-09 3.00132e-09)
(2.20431e-09 -5.05941e-09 4.06862e-09)
(2.70546e-09 -6.22905e-09 5.26736e-09)
(3.22202e-09 -7.39799e-09 6.65085e-09)
(3.77386e-09 -8.5513e-09 8.27011e-09)
(4.38662e-09 -9.64348e-09 1.0173e-08)
(5.09894e-09 -1.05825e-08 1.24017e-08)
(5.97893e-09 -1.1202e-08 1.49895e-08)
(7.16193e-09 -1.12102e-08 1.79596e-08)
(8.93502e-09 -1.00869e-08 2.13382e-08)
(1.18975e-08 -6.87989e-09 2.51986e-08)
(1.71162e-08 4.91456e-11 2.97105e-08)
(2.50972e-08 1.17485e-08 3.46334e-08)
(3.37872e-08 2.68559e-08 3.64257e-08)
(0 0 0)
(1.22314e-09 -2.75361e-09 2.03733e-09)
(2.33105e-09 -5.27131e-09 3.96639e-09)
(3.36388e-09 -7.65593e-09 5.92282e-09)
(4.35737e-09 -9.98444e-09 8.02593e-09)
(5.34518e-09 -1.23067e-08 1.03859e-08)
(6.36118e-09 -1.46412e-08 1.31072e-08)
(7.44252e-09 -1.69678e-08 1.629e-08)
(8.63432e-09 -1.92127e-08 2.00275e-08)
(9.99859e-09 -2.12247e-08 2.43996e-08)
(1.16328e-08 -2.2737e-08 2.94615e-08)
(1.37098e-08 -2.33148e-08 3.52259e-08)
(1.65557e-08 -2.22918e-08 4.16425e-08)
(2.07536e-08 -1.87656e-08 4.85688e-08)
(2.7089e-08 -1.19574e-08 5.56767e-08)
(3.5269e-08 -3.03708e-09 6.1968e-08)
(4.43312e-08 2.11658e-09 6.68398e-08)
(0 0 0)
(1.80216e-09 -4.02702e-09 2.9917e-09)
(3.43379e-09 -7.71305e-09 5.8229e-09)
(4.95327e-09 -1.12119e-08 8.69124e-09)
(6.41256e-09 -1.46405e-08 1.17704e-08)
(7.8605e-09 -1.80793e-08 1.52208e-08)
(9.34568e-09 -2.15678e-08 1.91949e-08)
(1.09196e-08 -2.50961e-08 2.38388e-08)
(1.26405e-08 -2.85901e-08 2.92898e-08)
(1.45785e-08 -3.18861e-08 3.56656e-08)
(1.68239e-08 -3.46968e-08 4.30437e-08)
(1.95051e-08 -3.65742e-08 5.1426e-08)
(2.28182e-08 -3.68995e-08 6.06813e-08)
(2.70527e-08 -3.50092e-08 7.04577e-08)
(3.2516e-08 -3.07171e-08 8.00464e-08)
(3.8771e-08 -2.55778e-08 8.80312e-08)
(4.46912e-08 -2.36297e-08 9.31549e-08)
(0 0 0)
(2.34356e-09 -5.1763e-09 3.87254e-09)
(4.46388e-09 -9.92068e-09 7.5344e-09)
(6.4356e-09 -1.44366e-08 1.12386e-08)
(8.32515e-09 -1.88821e-08 1.52071e-08)
(1.0195e-08 -2.33723e-08 1.96449e-08)
(1.21069e-08 -2.79766e-08 2.47471e-08)
(1.41251e-08 -3.27126e-08 3.0702e-08)
(1.63185e-08 -3.75335e-08 3.76885e-08)
(1.87609e-08 -4.23086e-08 4.5865e-08)
(2.15272e-08 -4.6794e-08 5.53433e-08)
(2.46838e-08 -5.06017e-08 6.61412e-08)
(2.82653e-08 -5.31824e-08 7.80975e-08)
(3.22242e-08 -5.38928e-08 9.07211e-08)
(3.63642e-08 -5.2314e-08 1.0294e-07)
(4.01578e-08 -4.91735e-08 1.12663e-07)
(4.33477e-08 -4.76232e-08 1.18034e-07)
(0 0 0)
(2.83694e-09 -6.16066e-09 4.66093e-09)
(5.40122e-09 -1.18158e-08 9.06345e-09)
(7.78114e-09 -1.72157e-08 1.35075e-08)
(1.00554e-08 -2.25588e-08 1.82557e-08)
(1.22981e-08 -2.79971e-08 2.35499e-08)
(1.45829e-08 -3.36367e-08 2.96205e-08)
(1.69862e-08 -3.95353e-08 3.66915e-08)
(1.95898e-08 -4.5696e-08 4.49794e-08)
(2.24794e-08 -5.20556e-08 5.46847e-08)
(2.57362e-08 -5.84649e-08 6.59684e-08)
(2.94167e-08 -6.46573e-08 7.89059e-08)
(3.35013e-08 -7.01946e-08 9.3398e-08)
(3.77881e-08 -7.43779e-08 1.0898e-07)
(4.1751e-08 -7.61634e-08 1.24427e-07)
(4.45104e-08 -7.47239e-08 1.36959e-07)
(4.55352e-08 -7.20215e-08 1.43856e-07)
(0 0 0)
(3.27373e-09 -6.94125e-09 5.34239e-09)
(6.2292e-09 -1.33234e-08 1.03815e-08)
(8.9653e-09 -1.94383e-08 1.54544e-08)
(1.15701e-08 -2.55214e-08 2.0855e-08)
(1.41269e-08 -3.17605e-08 2.68527e-08)
(1.6719e-08 -3.83002e-08 3.37038e-08)
(1.94344e-08 -4.52438e-08 4.16578e-08)
(2.237e-08 -5.26552e-08 5.09602e-08)
(2.56343e-08 -6.05579e-08 6.18477e-08)
(2.93468e-08 -6.89315e-08 7.45338e-08)
(3.36323e-08 -7.76986e-08 8.91805e-08)
(3.85969e-08 -8.66813e-08 1.05837e-07)
(4.42496e-08 -9.54579e-08 1.24272e-07)
(5.02946e-08 -1.02979e-07 1.43508e-07)
(5.55484e-08 -1.07137e-07 1.60375e-07)
(5.66178e-08 -1.03525e-07 1.71529e-07)
(0 0 0)
(3.6475e-09 -7.48314e-09 5.90752e-09)
(6.93563e-09 -1.43756e-08 1.14704e-08)
(9.97013e-09 -2.1003e-08 1.70519e-08)
(1.2845e-08 -2.7631e-08 2.29668e-08)
(1.56492e-08 -3.44783e-08 2.95015e-08)
(1.84721e-08 -4.17239e-08 3.69264e-08)
(2.14098e-08 -4.95129e-08 4.5504e-08)
(2.45718e-08 -5.79656e-08 5.54926e-08)
(2.80895e-08 -6.71867e-08 6.71471e-08)
(3.21288e-08 -7.72795e-08 8.07137e-08)
(3.69127e-08 -8.83671e-08 9.64222e-08)
(4.27607e-08 -1.00621e-07 1.1447e-07)
(5.0143e-08 -1.14266e-07 1.34948e-07)
(5.96536e-08 -1.29387e-07 1.57475e-07)
(7.08052e-08 -1.44482e-07 1.79232e-07)
(8.11188e-08 -1.57732e-07 1.9655e-07)
(0 0 0)
(3.95457e-09 -7.75747e-09 6.35262e-09)
(7.51386e-09 -1.49168e-08 1.23236e-08)
(1.07863e-08 -2.18259e-08 1.82912e-08)
(1.38678e-08 -2.87716e-08 2.45801e-08)
(1.68485e-08 -3.59946e-08 3.14824e-08)
(1.9819e-08 -4.36987e-08 3.92705e-08)
(2.28767e-08 -5.20596e-08 4.82038e-08)
(2.61339e-08 -6.12357e-08 5.85342e-08)
(2.97289e-08 -7.13817e-08 7.0506e-08)
(3.38434e-08 -8.26678e-08 8.43533e-08)
(3.87329e-08 -9.53097e-08 1.00297e-07)
(4.47773e-08 -1.09618e-07 1.18541e-07)
(5.2545e-08 -1.2605e-07 1.39224e-07)
(6.27566e-08 -1.45124e-07 1.62177e-07)
(7.4603e-08 -1.65108e-07 1.84436e-07)
(9.66042e-08 -1.94644e-07 2.10117e-07)
(0 0 0)
(0 0 0)
(0 0 0)
(0 0 0)
(0 0 0)
(0 0 0)
(0 0 0)
(0 0 0)
(0 0 0)
(0 0 0)
(0 0 0)
(0 0 0)
(0 0 0)
(0 0 0)
(0 0 0)
(0 0 0)
(4.60595e-09 7.70954e-09 2.60786e-09)
(0 0 0)
(6.15922e-10 -1.42403e-09 9.60424e-10)
(1.17257e-09 -2.72548e-09 1.86895e-09)
(1.68896e-09 -3.95714e-09 2.78871e-09)
(2.18146e-09 -5.15854e-09 3.77489e-09)
(2.66459e-09 -6.35499e-09 4.87774e-09)
(3.15156e-09 -7.55545e-09 6.14368e-09)
(3.65518e-09 -8.74892e-09 7.61497e-09)
(4.18917e-09 -9.89755e-09 9.32724e-09)
(4.77136e-09 -1.09255e-08 1.13038e-08)
(5.43161e-09 -1.17021e-08 1.35447e-08)
(6.2307e-09 -1.20156e-08 1.60085e-08)
(7.2967e-09 -1.15344e-08 1.8578e-08)
(8.87007e-09 -9.75857e-09 2.09933e-08)
(1.12452e-08 -6.07617e-09 2.26997e-08)
(1.4121e-08 -6.79468e-10 2.27174e-08)
(1.45349e-08 4.72659e-09 1.61177e-08)
(0 0 0)
(1.21887e-09 -2.80524e-09 1.89606e-09)
(2.32024e-09 -5.37066e-09 3.68906e-09)
(3.34148e-09 -7.80175e-09 5.50311e-09)
(4.31488e-09 -1.01781e-08 7.44665e-09)
(5.26896e-09 -1.25524e-08 9.61825e-09)
(6.22954e-09 -1.49473e-08 1.2109e-08)
(7.22072e-09 -1.7349e-08 1.50021e-08)
(8.26591e-09 -1.96963e-08 1.83676e-08)
(9.38992e-09 -2.1864e-08 2.22511e-08)
(1.06246e-08 -2.36407e-08 2.66509e-08)
(1.20229e-08 -2.47093e-08 3.14772e-08)
(1.36796e-08 -2.46524e-08 3.64783e-08)
(1.57325e-08 -2.30643e-08 4.11058e-08)
(1.8205e-08 -1.99775e-08 4.43072e-08)
(2.04385e-08 -1.68087e-08 4.46938e-08)
(2.02343e-08 -1.79014e-08 3.92596e-08)
(0 0 0)
(1.79688e-09 -4.10191e-09 2.78431e-09)
(3.42002e-09 -7.85707e-09 5.41587e-09)
(4.92413e-09 -1.14231e-08 8.07572e-09)
(6.35649e-09 -1.49208e-08 1.09217e-08)
(7.75901e-09 -1.84341e-08 1.40975e-08)
(9.16952e-09 -2.20069e-08 1.7736e-08)
(1.06223e-08 -2.56366e-08 2.19595e-08)
(1.21472e-08 -2.92622e-08 2.68726e-08)
(1.37668e-08 -3.27473e-08 3.25467e-08)
(1.54906e-08 -3.58612e-08 3.89877e-08)
(1.73062e-08 -3.82719e-08 4.6078e-08)
(1.91583e-08 -3.95925e-08 5.34767e-08)
(2.08992e-08 -3.95812e-08 6.04552e-08)
(2.21809e-08 -3.86358e-08 6.57059e-08)
(2.24183e-08 -3.82569e-08 6.7634e-08)
(1.94041e-08 -4.09947e-08 6.32538e-08)
(0 0 0)
(2.33847e-09 -5.27183e-09 3.60436e-09)
(4.44983e-09 -1.01043e-08 7.00833e-09)
(6.40445e-09 -1.47057e-08 1.04438e-08)
(8.26337e-09 -1.92386e-08 1.41125e-08)
(1.00812e-08 -2.38216e-08 1.81981e-08)
(1.19074e-08 -2.85285e-08 2.28712e-08)
(1.37869e-08 -3.33822e-08 2.82896e-08)
(1.57572e-08 -3.83464e-08 3.45925e-08)
(1.784e-08 -4.33104e-08 4.18818e-08)
(2.00238e-08 -4.80732e-08 5.01855e-08)
(2.22277e-08 -5.23339e-08 5.9391e-08)
(2.42324e-08 -5.572e-08 6.91263e-08)
(2.55698e-08 -5.7919e-08 7.85613e-08)
(2.5458e-08 -5.90195e-08 8.61598e-08)
(2.33376e-08 -5.98745e-08 8.98863e-08)
(1.762e-08 -6.27403e-08 8.63715e-08)
(0 0 0)
(2.83339e-09 -6.27356e-09 4.33869e-09)
(5.38977e-09 -1.20327e-08 8.43178e-09)
(7.75303e-09 -1.75334e-08 1.25542e-08)
(9.9963e-09 -2.29787e-08 1.69447e-08)
(1.21856e-08 -2.85242e-08 2.18199e-08)
(1.43822e-08 -3.42787e-08 2.73818e-08)
(1.6643e-08 -4.03028e-08 3.3819e-08)
(1.90186e-08 -4.66039e-08 4.13015e-08)
(2.15433e-08 -5.31272e-08 4.99643e-08)
(2.42137e-08 -5.97423e-08 5.98708e-08)
(2.69411e-08 -6.62238e-08 7.09468e-08)
(2.94528e-08 -7.22256e-08 8.28532e-08)
(3.11201e-08 -7.72511e-08 9.4754e-08)
(3.08112e-08 -8.06767e-08 1.0497e-07)
(2.75924e-08 -8.21103e-08 1.1096e-07)
(1.94636e-08 -8.35771e-08 1.08798e-07)
(0 0 0)
(3.27294e-09 -7.0677e-09 4.97383e-09)
(6.22303e-09 -1.35662e-08 9.65963e-09)
(8.94491e-09 -1.97937e-08 1.43664e-08)
(1.15214e-08 -2.59902e-08 1.93613e-08)
(1.40282e-08 -3.23467e-08 2.48859e-08)
(1.6537e-08 -3.90089e-08 3.11651e-08)
(1.91181e-08 -4.60797e-08 3.84096e-08)
(2.18398e-08 -5.36204e-08 4.68133e-08)
(2.47643e-08 -6.16497e-08 5.6539e-08)
(2.7934e-08 -7.01393e-08 6.7688e-08)
(3.13392e-08 -7.90002e-08 8.02415e-08)
(3.48403e-08 -8.80404e-08 9.39398e-08)
(3.80056e-08 -9.68389e-08 1.08034e-07)
(3.98499e-08 -1.04455e-07 1.20829e-07)
(3.89842e-08 -1.09171e-07 1.29299e-07)
(3.06085e-08 -1.07721e-07 1.29216e-07)
(0 0 0)
(3.65047e-09 -7.61885e-09 5.50101e-09)
(6.93685e-09 -1.46362e-08 1.06749e-08)
(9.96113e-09 -2.13841e-08 1.58548e-08)
(1.28127e-08 -2.81331e-08 2.13268e-08)
(1.55737e-08 -3.51044e-08 2.7348e-08)
(1.83239e-08 -4.24764e-08 3.4156e-08)
(2.1144e-08 -5.0391e-08 4.19726e-08)
(2.41196e-08 -5.89602e-08 5.10022e-08)
(2.73435e-08 -6.82724e-08 6.14211e-08)
(3.09166e-08 -7.84012e-08 7.33529e-08)
(3.49458e-08 -8.94137e-08 8.68192e-08)
(3.9528e-08 -1.01372e-07 1.01636e-07)
(4.47012e-08 -1.14283e-07 1.17172e-07)
(5.02737e-08 -1.27845e-07 1.31804e-07)
(5.52312e-08 -1.40305e-07 1.42099e-07)
(5.62801e-08 -1.49714e-07 1.42142e-07)
(0 0 0)
(3.9619e-09 -7.89771e-09 5.91673e-09)
(7.52381e-09 -1.51861e-08 1.14715e-08)
(1.0791e-08 -2.22198e-08 1.70111e-08)
(1.38556e-08 -2.92904e-08 2.28309e-08)
(1.68023e-08 -3.66404e-08 2.91933e-08)
(1.97137e-08 -4.44722e-08 3.63379e-08)
(2.26752e-08 -5.29562e-08 4.44843e-08)
(2.57804e-08 -6.22387e-08 5.38313e-08)
(2.91375e-08 -7.24517e-08 6.45468e-08)
(3.2878e-08 -8.37232e-08 7.67449e-08)
(3.7167e-08 -9.61915e-08 9.04429e-08)
(4.22093e-08 -1.10017e-07 1.05468e-07)
(4.82296e-08 -1.25362e-07 1.2125e-07)
(5.53142e-08 -1.42188e-07 1.36367e-07)
(6.23351e-08 -1.58398e-07 1.47413e-07)
(7.3455e-08 -1.79001e-07 1.4647e-07)
(0 0 0)
(0 0 0)
(0 0 0)
(0 0 0)
(0 0 0)
(0 0 0)
(0 0 0)
(0 0 0)
(0 0 0)
(0 0 0)
(0 0 0)
(0 0 0)
(0 0 0)
(0 0 0)
(0 0 0)
(0 0 0)
(7.53769e-10 2.66845e-09 1.8284e-09)
(0 0 0)
(6.11377e-10 -1.44623e-09 8.54787e-10)
(1.16229e-09 -2.76819e-09 1.66243e-09)
(1.66993e-09 -4.01984e-09 2.47819e-09)
(2.14847e-09 -5.24185e-09 3.34995e-09)
(2.60915e-09 -6.46101e-09 4.32041e-09)
(3.06021e-09 -7.68865e-09 5.42769e-09)
(3.50651e-09 -8.91797e-09 6.70424e-09)
(3.94876e-09 -1.01196e-08 8.17328e-09)
(4.3828e-09 -1.12354e-08 9.84119e-09)
(4.79996e-09 -1.21711e-08 1.16834e-08)
(5.19054e-09 -1.27904e-08 1.36195e-08)
(5.54957e-09 -1.29148e-08 1.54704e-08)
(5.8717e-09 -1.23388e-08 1.6887e-08)
(6.08764e-09 -1.08988e-08 1.72692e-08)
(5.93581e-09 -8.79146e-09 1.60042e-08)
(4.50306e-09 -5.48486e-09 1.20251e-08)
(0 0 0)
(1.21035e-09 -2.84863e-09 1.68756e-09)
(2.3009e-09 -5.45413e-09 3.28153e-09)
(3.30567e-09 -7.92414e-09 4.8906e-09)
(4.25267e-09 -1.03403e-08 6.6088e-09)
(5.16434e-09 -1.27581e-08 8.51999e-09)
(6.0572e-09 -1.52037e-08 1.0699e-08)
(6.94075e-09 -1.76703e-08 1.321e-08)
(7.81489e-09 -2.01104e-08 1.60994e-08)
(8.66569e-09 -2.24262e-08 1.93815e-08)
(9.46019e-09 -2.44624e-08 2.30114e-08)
(1.01408e-08 -2.60099e-08 2.68387e-08)
(1.06176e-08 -2.68477e-08 3.05319e-08)
(1.07483e-08 -2.68706e-08 3.34706e-08)
(1.03033e-08 -2.63533e-08 3.46899e-08)
(9.10853e-09 -2.61369e-08 3.34668e-08)
(7.40946e-09 -2.79507e-08 3.07449e-08)
(0 0 0)
(1.78545e-09 -4.16479e-09 2.47832e-09)
(3.39398e-09 -7.97791e-09 4.81801e-09)
(4.87565e-09 -1.16e-08 7.17759e-09)
(6.27193e-09 -1.51544e-08 9.69403e-09)
(7.61649e-09 -1.87281e-08 1.24895e-08)
(8.93473e-09 -2.23691e-08 1.56735e-08)
(1.02417e-08 -2.60818e-08 1.93408e-08)
(1.15367e-08 -2.98187e-08 2.35625e-08)
(1.27939e-08 -3.34712e-08 2.83664e-08)
(1.39451e-08 -3.68632e-08 3.37013e-08)
(1.48543e-08 -3.97651e-08 3.93785e-08)
(1.52794e-08 -4.19636e-08 4.49814e-08)
(1.48364e-08 -4.34473e-08 4.97606e-08)
(1.3065e-08 -4.47124e-08 5.26335e-08)
(1.00398e-08 -4.66296e-08 5.28419e-08)
(6.23187e-09 -5.00263e-08 5.15528e-08)
(0 0 0)
(2.32558e-09 -5.35184e-09 3.20864e-09)
(4.42017e-09 -1.02578e-08 6.23552e-09)
(6.34869e-09 -1.49299e-08 9.28364e-09)
(8.16538e-09 -1.95333e-08 1.25281e-08)
(9.91525e-09 -2.41895e-08 1.61252e-08)
(1.16337e-08 -2.8975e-08 2.02157e-08)
(1.33439e-08 -3.39176e-08 2.4923e-08)
(1.50496e-08 -3.89897e-08 3.0343e-08)
(1.67204e-08 -4.40992e-08 3.65227e-08)
(1.82636e-08 -4.90823e-08 4.34204e-08)
(1.94758e-08 -5.3709e-08 5.08394e-08)
(1.99643e-08 -5.77269e-08 5.83312e-08)
(1.90694e-08 -6.09876e-08 6.50848e-08)
(1.59853e-08 -6.36663e-08 6.99176e-08)
(1.0863e-08 -6.62087e-08 7.18343e-08)
(4.78251e-09 -6.95435e-08 7.18711e-08)
(0 0 0)
(2.8206e-09 -6.3678e-09 3.86298e-09)
(5.35987e-09 -1.22133e-08 7.50325e-09)
(7.69585e-09 -1.77963e-08 1.11616e-08)
(9.8945e-09 -2.33227e-08 1.50452e-08)
(1.20119e-08 -2.89496e-08 1.93386e-08)
(1.40945e-08 -3.47871e-08 2.42087e-08)
(1.61775e-08 -4.08959e-08 2.98034e-08)
(1.82774e-08 -4.72843e-08 3.62415e-08)
(2.03769e-08 -5.3901e-08 4.35914e-08)
(2.23939e-08 -6.0625e-08 5.18304e-08)
(2.41224e-08 -6.72525e-08 6.07754e-08)
(2.51255e-08 -7.34805e-08 6.99787e-08)
(2.45994e-08 -7.88862e-08 7.8598e-08)
(2.14103e-08 -8.29243e-08 8.53437e-08)
(1.53401e-08 -8.50925e-08 8.89292e-08)
(7.11137e-09 -8.63327e-08 9.03045e-08)
(0 0 0)
(3.26176e-09 -7.17284e-09 4.42929e-09)
(6.19611e-09 -1.37674e-08 8.59755e-09)
(8.89189e-09 -2.00859e-08 1.27754e-08)
(1.14249e-08 -2.63707e-08 1.71946e-08)
(1.38611e-08 -3.28135e-08 2.20614e-08)
(1.62584e-08 -3.95583e-08 2.75617e-08)
(1.8666e-08 -4.67037e-08 3.38609e-08)
(2.11209e-08 -5.43026e-08 4.10952e-08)
(2.36372e-08 -6.23603e-08 4.93503e-08)
(2.61843e-08 -7.08266e-08 5.86223e-08)
(2.8641e-08 -7.95773e-08 6.87471e-08)
(3.07064e-08 -8.83655e-08 7.9286e-08)
(3.17609e-08 -9.66958e-08 8.93605e-08)
(3.0779e-08 -1.0357e-07 9.75223e-08)
(2.70721e-08 -1.07365e-07 1.02139e-07)
(1.88116e-08 -1.04405e-07 1.04485e-07)
(0 0 0)
(3.64216e-09 -7.73122e-09 4.89975e-09)
(6.91562e-09 -1.48511e-08 9.50319e-09)
(9.91693e-09 -2.16955e-08 1.41021e-08)
(1.2729e-08 -2.85372e-08 1.89449e-08)
(1.54252e-08 -3.55966e-08 2.4251e-08)
(1.80727e-08 -4.30486e-08 3.02174e-08)
(2.07339e-08 -5.10263e-08 3.70181e-08)
(2.34664e-08 -5.96255e-08 4.47963e-08)
(2.63209e-08 -6.89071e-08 5.36451e-08)
(2.93335e-08 -7.88966e-08 6.35684e-08)
(3.25087e-08 -8.95782e-08 7.44103e-08)
(3.57847e-08 -1.00869e-07 8.57303e-08)
(3.89838e-08 -1.12542e-07 9.65918e-08)
(4.17706e-08 -1.23992e-07 1.05299e-07)
(4.36829e-08 -1.33549e-07 1.09667e-07)
(4.45582e-08 -1.39156e-07 1.10293e-07)
(0 0 0)
(3.95738e-09 -8.01342e-09 5.27115e-09)
(7.51021e-09 -1.54073e-08 1.02146e-08)
(1.0759e-08 -2.25401e-08 1.51341e-08)
(1.379e-08 -2.97049e-08 2.02865e-08)
(1.66806e-08 -3.7143e-08 2.5896e-08)
(1.95027e-08 -4.50516e-08 3.21614e-08)
(2.23261e-08 -5.35893e-08 3.92551e-08)
(2.52212e-08 -6.28819e-08 4.73158e-08)
(2.82614e-08 -7.30253e-08 5.64291e-08)
(3.15244e-08 -8.40867e-08 6.65902e-08)
(3.50888e-08 -9.61003e-08 7.7635e-08)
(3.90213e-08 -1.09051e-07 8.91187e-08)
(4.33476e-08 -1.22819e-07 1.00108e-07)
(4.79755e-08 -1.37014e-07 1.08924e-07)
(5.22181e-08 -1.49745e-07 1.13252e-07)
(6.09557e-08 -1.65616e-07 1.09718e-07)
(0 0 0)
(0 0 0)
(0 0 0)
(0 0 0)
(0 0 0)
(0 0 0)
(0 0 0)
(0 0 0)
(0 0 0)
(0 0 0)
(0 0 0)
(0 0 0)
(0 0 0)
(0 0 0)
(0 0 0)
(0 0 0)
(-7.14064e-10 8.34657e-10 2.16408e-09)
(0 0 0)
(6.05647e-10 -1.46404e-09 7.19661e-10)
(1.14971e-09 -2.80243e-09 1.39891e-09)
(1.64756e-09 -4.07005e-09 2.08359e-09)
(2.11106e-09 -5.30852e-09 2.81305e-09)
(2.54825e-09 -6.54577e-09 3.62157e-09)
(2.96264e-09 -7.79495e-09 4.53858e-09)
(3.35203e-09 -9.05277e-09 5.58734e-09)
(3.70636e-09 -1.02968e-08 6.78123e-09)
(4.00491e-09 -1.14822e-08 8.11637e-09)
(4.21352e-09 -1.25401e-08 9.55927e-09)
(4.28387e-09 -1.33789e-08 1.10279e-08)
(4.15597e-09 -1.38927e-08 1.23664e-08)
(3.76302e-09 -1.39693e-08 1.33236e-08)
(3.04031e-09 -1.34819e-08 1.35843e-08)
(2.02113e-09 -1.23407e-08 1.30227e-08)
(6.73815e-10 -9.13022e-09 1.12309e-08)
(0 0 0)
(1.19951e-09 -2.88351e-09 1.4209e-09)
(2.2771e-09 -5.52115e-09 2.76162e-09)
(3.26326e-09 -8.0222e-09 4.11229e-09)
(4.18167e-09 -1.04699e-08 5.55017e-09)
(5.04873e-09 -1.29216e-08 7.14255e-09)
(5.8722e-09 -1.54065e-08 8.9474e-09)
(6.64861e-09 -1.79231e-08 1.10109e-08)
(7.35848e-09 -2.04348e-08 1.33602e-08)
(7.95917e-09 -2.28644e-08 1.59902e-08)
(8.37609e-09 -2.50938e-08 1.884e-08)
(8.49525e-09 -2.69763e-08 2.17591e-08)
(8.16313e-09 -2.83767e-08 2.44654e-08)
(7.21453e-09 -2.9255e-08 2.65188e-08)
(5.58856e-09 -2.97725e-08 2.74062e-08)
(3.68602e-09 -3.02349e-08 2.70152e-08)
(2.61575e-09 -3.14818e-08 2.64208e-08)
(0 0 0)
(1.77064e-09 -4.21536e-09 2.08696e-09)
(3.3614e-09 -8.07492e-09 4.0552e-09)
(4.81743e-09 -1.17414e-08 6.03619e-09)
(6.17425e-09 -1.534e-08 8.14232e-09)
(7.45735e-09 -1.89597e-08 1.04718e-08)
(8.68043e-09 -2.26514e-08 1.31095e-08)
(9.84145e-09 -2.64244e-08 1.61242e-08)
(1.0915e-08 -3.02415e-08 1.95588e-08)
(1.18399e-08 -3.40129e-08 2.34127e-08)
(1.25003e-08 -3.75969e-08 2.76115e-08)
(1.27041e-08 -4.08175e-08 3.19658e-08)
(1.21653e-08 -4.35259e-08 3.61262e-08)
(1.05424e-08 -4.57324e-08 3.95766e-08)
(7.67162e-09 -4.7768e-08 4.17724e-08)
(4.27551e-09 -5.00392e-08 4.26096e-08)
(1.63028e-09 -5.29357e-08 4.31945e-08)
(0 0 0)
(2.30827e-09 -5.4161e-09 2.70238e-09)
(4.38196e-09 -1.03808e-08 5.24917e-09)
(6.2801e-09 -1.51083e-08 7.80867e-09)
(8.04995e-09 -1.97656e-08 1.05246e-08)
(9.72699e-09 -2.44756e-08 1.35225e-08)
(1.13332e-08 -2.93163e-08 1.6912e-08)
(1.28726e-08 -3.43176e-08 2.07827e-08)
(1.43218e-08 -3.94567e-08 2.51944e-08)
(1.5613e-08 -4.46517e-08 3.01558e-08)
(1.6607e-08 -4.97569e-08 3.5592e-08)
(1.70519e-08 -5.45704e-08 4.12978e-08)
(1.65359e-08 -5.8869e-08 4.68949e-08)
(1.44955e-08 -6.24964e-08 5.18341e-08)
(1.04972e-08 -6.54946e-08 5.55409e-08)
(5.33953e-09 -6.80211e-08 5.7773e-08)
(7.85707e-10 -7.07516e-08 5.95007e-08)
(0 0 0)
(2.80242e-09 -6.44327e-09 3.25406e-09)
(5.31948e-09 -1.23574e-08 6.31756e-09)
(7.62288e-09 -1.80044e-08 9.39006e-09)
(9.77106e-09 -2.35914e-08 1.26415e-08)
(1.18101e-08 -2.92759e-08 1.62206e-08)
(1.37726e-08 -3.5167e-08 2.02571e-08)
(1.56738e-08 -4.13231e-08 2.4859e-08)
(1.75033e-08 -4.77493e-08 3.01009e-08)
(1.92076e-08 -5.43899e-08 3.60029e-08)
(2.06614e-08 -6.11183e-08 4.24949e-08)
(2.16172e-08 -6.77223e-08 4.93671e-08)
(2.16346e-08 -7.38811e-08 5.62217e-08)
(2.0032e-08 -7.91304e-08 6.24698e-08)
(1.60802e-08 -8.28391e-08 6.7471e-08)
(1.02057e-08 -8.44283e-08 7.08389e-08)
(3.76276e-09 -8.47264e-08 7.35385e-08)
(0 0 0)
(3.24428e-09 -7.25673e-09 3.73184e-09)
(6.15692e-09 -1.39273e-08 7.24037e-09)
(8.82033e-09 -2.03157e-08 1.07499e-08)
(1.13028e-08 -2.66652e-08 1.44507e-08)
(1.36606e-08 -3.31663e-08 1.85088e-08)
(1.59379e-08 -3.99593e-08 2.30692e-08)
(1.81654e-08 -4.71355e-08 2.82526e-08)
(2.03541e-08 -5.47356e-08 3.41444e-08)
(2.24849e-08 -6.27447e-08 4.07725e-08)
(2.44872e-08 -7.10812e-08 4.80699e-08)
(2.62023e-08 -7.95718e-08 5.58194e-08)
(2.73259e-08 -8.78952e-08 6.35895e-08)
(2.73538e-08 -9.54602e-08 7.07042e-08)
(2.56532e-08 -1.01197e-07 7.63624e-08)
(2.21865e-08 -1.03641e-07 8.003e-08)
(1.58728e-08 -9.94932e-08 8.30809e-08)
(0 0 0)
(3.62676e-09 -7.82053e-09 4.12903e-09)
(6.88055e-09 -1.50209e-08 8.00464e-09)
(9.85176e-09 -2.19389e-08 1.18687e-08)
(1.26163e-08 -2.88471e-08 1.59253e-08)
(1.52384e-08 -3.59637e-08 2.03515e-08)
(1.77729e-08 -4.34572e-08 2.53008e-08)
(2.0265e-08 -5.14492e-08 3.09e-08)
(2.27495e-08 -6.00154e-08 3.72383e-08)
(2.52468e-08 -6.91841e-08 4.43446e-08)
(2.77567e-08 -7.89283e-08 5.21482e-08)
(3.02464e-08 -8.91498e-08 6.0416e-08)
(3.26402e-08 -9.96442e-08 6.86675e-08)
(3.48388e-08 -1.10031e-07 7.6095e-08)
(3.68253e-08 -1.19614e-07 8.16043e-08)
(3.87484e-08 -1.27065e-07 8.43377e-08)
(4.12495e-08 -1.31033e-07 8.57385e-08)
(0 0 0)
(3.9451e-09 -8.10508e-09 4.44284e-09)
(7.48147e-09 -1.55814e-08 8.60554e-09)
(1.07039e-08 -2.27889e-08 1.27401e-08)
(1.36926e-08 -3.00204e-08 1.70575e-08)
(1.65167e-08 -3.75136e-08 2.17391e-08)
(1.92374e-08 -4.54579e-08 2.69399e-08)
(2.19097e-08 -5.39975e-08 3.27857e-08)
(2.45842e-08 -6.32336e-08 3.93613e-08)
(2.73084e-08 -7.32226e-08 4.66888e-08)
(3.01279e-08 -8.39694e-08 5.46874e-08)
(3.30859e-08 -9.54133e-08 6.31085e-08)
(3.62261e-08 -1.07406e-07 7.14435e-08)
(3.96101e-08 -1.19673e-07 7.88251e-08)
(4.33518e-08 -1.31761e-07 8.40367e-08)
(4.72412e-08 -1.42256e-07 8.60306e-08)
(5.69598e-08 -1.56369e-07 8.36997e-08)
(0 0 0)
(0 0 0)
(0 0 0)
(0 0 0)
(0 0 0)
(0 0 0)
(0 0 0)
(0 0 0)
(0 0 0)
(0 0 0)
(0 0 0)
(0 0 0)
(0 0 0)
(0 0 0)
(0 0 0)
(0 0 0)
(-1.15358e-09 2.9595e-10 2.04548e-09)
(0 0 0)
(5.99791e-10 -1.47747e-09 5.60519e-10)
(1.13705e-09 -2.82819e-09 1.08907e-09)
(1.6255e-09 -4.10786e-09 1.62095e-09)
(2.07499e-09 -5.35875e-09 2.18619e-09)
(2.49079e-09 -6.6094e-09 2.81033e-09)
(2.87262e-09 -7.87414e-09 3.51451e-09)
(3.21305e-09 -9.152e-09 4.31426e-09)
(3.49499e-09 -1.04249e-08 5.21647e-09)
(3.68866e-09 -1.16557e-08 6.21367e-09)
(3.74974e-09 -1.27875e-08 7.27572e-09)
(3.62109e-09 -1.37462e-08 8.3395e-09)
(3.24279e-09 -1.44419e-08 9.30088e-09)
(2.57542e-09 -1.47586e-08 1.00211e-08)
(1.6401e-09 -1.45049e-08 1.03766e-08)
(6.1128e-10 -1.34417e-08 1.03667e-08)
(-3.84565e-10 -9.98658e-09 9.47524e-09)
(0 0 0)
(1.1884e-09 -2.90993e-09 1.10679e-09)
(2.25309e-09 -5.57187e-09 2.15022e-09)
(3.22135e-09 -8.09631e-09 3.19964e-09)
(4.113e-09 -1.05675e-08 4.31391e-09)
(4.93929e-09 -1.30438e-08 5.5432e-09)
(5.70097e-09 -1.55563e-08 6.92923e-09)
(6.38501e-09 -1.81071e-08 8.50296e-09)
(6.95938e-09 -2.06657e-08 1.02788e-08)
(7.36628e-09 -2.3166e-08 1.22441e-08)
(7.51604e-09 -2.55072e-08 1.43437e-08)
(7.28714e-09 -2.75628e-08 1.64615e-08)
(6.54573e-09 -2.92071e-08 1.84065e-08)
(5.21261e-09 -3.03597e-08 1.99267e-08)
(3.42818e-09 -3.10281e-08 2.0793e-08)
(1.81468e-09 -3.12981e-08 2.10014e-08)
(1.50784e-09 -3.18808e-08 2.10225e-08)
(0 0 0)
(1.75534e-09 -4.2538e-09 1.62583e-09)
(3.32828e-09 -8.14852e-09 3.15792e-09)
(4.75949e-09 -1.18482e-08 4.69734e-09)
(6.07916e-09 -1.54792e-08 6.32963e-09)
(7.30582e-09 -1.91314e-08 8.12803e-09)
(8.44381e-09 -2.28572e-08 1.01539e-08)
(9.47856e-09 -2.66688e-08 1.24535e-08)
(1.03689e-08 -3.05336e-08 1.50505e-08)
(1.10358e-08 -3.43708e-08 1.79317e-08)
(1.13493e-08 -3.80511e-08 2.10279e-08)
(1.11191e-08 -4.14101e-08 2.41903e-08)
(1.01077e-08 -4.42917e-08 2.71814e-08)
(8.11837e-09 -4.66406e-08 2.97074e-08)
(5.2649e-09 -4.86192e-08 3.15327e-08)
(2.47552e-09 -5.04794e-08 3.26456e-08)
(9.23657e-10 -5.2666e-08 3.34431e-08)
(0 0 0)
(2.29014e-09 -5.46498e-09 2.10563e-09)
(4.34262e-09 -1.04741e-08 4.08845e-09)
(6.21107e-09 -1.52428e-08 6.07777e-09)
(7.93644e-09 -1.99388e-08 8.1829e-09)
(9.54614e-09 -2.46854e-08 1.04977e-08)
(1.10514e-08 -2.95606e-08 1.31012e-08)
(1.24422e-08 -3.45946e-08 1.60544e-08)
(1.3678e-08 -3.97647e-08 1.93906e-08)
(1.46738e-08 -4.499e-08 2.31004e-08)
(1.52796e-08 -5.01256e-08 2.71081e-08)
(1.52572e-08 -5.49645e-08 3.12484e-08)
(1.4269e-08 -5.92589e-08 3.52595e-08)
(1.194e-08 -6.27828e-08 3.88275e-08)
(8.15567e-09 -6.54498e-08 4.1706e-08)
(3.87949e-09 -6.73693e-08 4.37854e-08)
(6.51462e-10 -6.93384e-08 4.53409e-08)
(0 0 0)
(2.78294e-09 -6.5006e-09 2.53596e-09)
(5.27707e-09 -1.24664e-08 4.92153e-09)
(7.54818e-09 -1.81604e-08 7.30996e-09)
(9.64793e-09 -2.37899e-08 9.83056e-09)
(1.16138e-08 -2.95119e-08 1.25944e-08)
(1.34672e-08 -3.5433e-08 1.56957e-08)
(1.52091e-08 -4.16079e-08 1.92073e-08)
(1.68122e-08 -4.8035e-08 2.31716e-08)
(1.8207e-08 -5.46488e-08 2.75829e-08)
(1.92611e-08 -6.13071e-08 3.23628e-08)
(1.97493e-08 -6.77721e-08 3.73328e-08)
(1.93199e-08 -7.36807e-08 4.22044e-08)
(1.75018e-08 -7.85053e-08 4.66259e-08)