/*--------------------------------*- C++ -*----------------------------------*\
| =========                 |                                                 |
| \\      /  F ield         | OpenFOAM: The Open Source CFD Toolbox           |
|  \\    /   O peration     | Version:  v1912                                 |
|   \\  /    A nd           | Website:  www.openfoam.com                      |
|    \\/     M anipulation  |                                                 |
\*---------------------------------------------------------------------------*/
FoamFile
{
    version     2.0;
    format      ascii;
    class       volVectorField;
    location    "0.31/fluid";
    object      cellMotionU;
}
// * * * * * * * * * * * * * * * * * * * * * * * * * * * * * * * * * * * * * //

dimensions      [0 1 -1 0 0 0 0];


internalField   nonuniform List<vector> 
14592
(
(1.94832e-10 -5.0211e-10 3.77054e-10)
(5.42264e-10 -1.40491e-09 1.06674e-09)
(8.59738e-10 -2.24585e-09 1.74428e-09)
(1.15592e-09 -3.05589e-09 2.45194e-09)
(1.44132e-09 -3.8591e-09 3.23303e-09)
(1.72339e-09 -4.6637e-09 4.12224e-09)
(2.01124e-09 -5.46694e-09 5.15438e-09)
(2.31604e-09 -6.25039e-09 6.36299e-09)
(2.65544e-09 -6.96811e-09 7.77873e-09)
(3.06275e-09 -7.53222e-09 9.43282e-09)
(3.61286e-09 -7.77301e-09 1.13617e-08)
(4.48095e-09 -7.35337e-09 1.36339e-08)
(6.12386e-09 -5.4962e-09 1.6455e-08)
(9.73549e-09 -1.85763e-10 2.04906e-08)
(1.8256e-08 1.38642e-08 2.767e-08)
(3.46459e-08 4.33322e-08 3.97286e-08)
(5.80801e-10 -1.49111e-09 1.12111e-09)
(1.61742e-09 -4.1725e-09 3.17257e-09)
(2.56258e-09 -6.67237e-09 5.18475e-09)
(3.44738e-09 -9.08598e-09 7.2918e-09)
(4.2969e-09 -1.14749e-08 9.60789e-09)
(5.13664e-09 -1.38737e-08 1.2243e-08)
(5.99285e-09 -1.62806e-08 1.53001e-08)
(6.89708e-09 -1.86458e-08 1.88752e-08)
(7.89511e-09 -2.08512e-08 2.30572e-08)
(9.06821e-09 -2.26662e-08 2.79245e-08)
(1.05842e-08 -2.36803e-08 3.35482e-08)
(1.2798e-08 -2.31671e-08 4.00013e-08)
(1.65211e-08 -1.98196e-08 4.74341e-08)
(2.33976e-08 -1.13915e-08 5.6257e-08)
(3.61471e-08 5.13402e-09 6.72522e-08)
(5.43762e-08 2.75107e-08 7.93332e-08)
(9.57105e-10 -2.43508e-09 1.83742e-09)
(2.66516e-09 -6.81634e-09 5.19871e-09)
(4.22378e-09 -1.0909e-08 8.49709e-09)
(5.6813e-09 -1.48631e-08 1.19431e-08)
(7.08206e-09 -1.8791e-08 1.57294e-08)
(8.46749e-09 -2.27562e-08 2.00331e-08)
(9.88058e-09 -2.67707e-08 2.50223e-08)
(1.13703e-08 -3.07799e-08 3.08553e-08)
(1.30001e-08 -3.46324e-08 3.76758e-08)
(1.48711e-08 -3.80383e-08 4.5608e-08)
(1.71588e-08 -4.05009e-08 5.47347e-08)
(2.01991e-08 -4.1232e-08 6.50775e-08)
(2.47157e-08 -3.90497e-08 7.66011e-08)
(3.20226e-08 -3.26043e-08 8.92982e-08)
(4.41858e-08 -2.14409e-08 1.0332e-07)
(6.0662e-08 -9.86729e-09 1.17433e-07)
(1.3173e-09 -3.30325e-09 2.50849e-09)
(3.66765e-09 -9.2517e-09 7.09615e-09)
(5.81288e-09 -1.4817e-08 1.15949e-08)
(7.81998e-09 -2.02119e-08 1.62911e-08)
(9.74907e-09 -2.55921e-08 2.14404e-08)
(1.16593e-08 -3.10635e-08 2.72856e-08)
(1.36107e-08 -3.66693e-08 3.40561e-08)
(1.56687e-08 -4.23761e-08 4.19687e-08)
(1.79113e-08 -4.80511e-08 5.12252e-08)
(2.04417e-08 -5.34208e-08 6.19979e-08)
(2.33862e-08 -5.80273e-08 7.43896e-08)
(2.69899e-08 -6.11396e-08 8.83954e-08)
(3.16219e-08 -6.17645e-08 1.03795e-07)
(3.79696e-08 -5.88455e-08 1.20142e-07)
(4.72109e-08 -5.20809e-08 1.36701e-07)
(5.9184e-08 -4.42007e-08 1.51198e-07)
(1.65471e-09 -4.06627e-09 3.1189e-09)
(4.60773e-09 -1.13947e-08 8.8225e-09)
(7.30264e-09 -1.82652e-08 1.44089e-08)
(9.82297e-09 -2.49454e-08 2.02274e-08)
(1.2247e-08 -3.16455e-08 2.65954e-08)
(1.46501e-08 -3.85163e-08 3.38091e-08)
(1.71106e-08 -4.56455e-08 4.21518e-08)
(1.97143e-08 -5.30486e-08 5.1896e-08)
(2.25587e-08 -6.06516e-08 6.33015e-08)
(2.57549e-08 -6.82667e-08 7.66021e-08)
(2.94276e-08 -7.55457e-08 9.19675e-08)
(3.37062e-08 -8.19023e-08 1.09423e-07)
(3.8721e-08 -8.64225e-08 1.28744e-07)
(4.4569e-08 -8.77822e-08 1.49227e-07)
(5.15684e-08 -8.44317e-08 1.69358e-07)
(5.97983e-08 -7.69299e-08 1.85369e-07)
(1.96412e-09 -4.69664e-09 3.65797e-09)
(5.46865e-09 -1.31659e-08 1.03433e-08)
(8.66492e-09 -2.11218e-08 1.68793e-08)
(1.16531e-08 -2.88884e-08 2.3671e-08)
(1.45252e-08 -3.67225e-08 3.10802e-08)
(1.7374e-08 -4.48252e-08 3.94488e-08)
(2.02971e-08 -5.33372e-08 4.91035e-08)
(2.34037e-08 -6.23377e-08 6.03627e-08)
(2.6824e-08 -7.18419e-08 7.35418e-08)
(3.07081e-08 -8.17904e-08 8.89438e-08)
(3.52349e-08 -9.20226e-08 1.06839e-07)
(4.05999e-08 -1.02213e-07 1.27413e-07)
(4.6976e-08 -1.11694e-07 1.5067e-07)
(5.43631e-08 -1.19028e-07 1.76147e-07)
(6.24616e-08 -1.21105e-07 2.02167e-07)
(6.99204e-08 -1.14294e-07 2.22982e-07)
(2.23986e-09 -5.16682e-09 4.11618e-09)
(6.23513e-09 -1.44903e-08 1.16332e-08)
(9.87567e-09 -2.32684e-08 1.89658e-08)
(1.32732e-08 -3.18699e-08 2.65578e-08)
(1.65339e-08 -4.0598e-08 3.4808e-08)
(1.97636e-08 -4.96984e-08 4.40874e-08)
(2.30772e-08 -5.93638e-08 5.47513e-08)
(2.66083e-08 -6.97402e-08 6.71489e-08)
(3.05233e-08 -8.09373e-08 8.16347e-08)
(3.50349e-08 -9.30412e-08 9.85717e-08)
(4.04359e-08 -1.06126e-07 1.18338e-07)
(4.71454e-08 -1.20256e-07 1.4133e-07)
(5.57926e-08 -1.3546e-07 1.67996e-07)
(6.72403e-08 -1.51457e-07 1.98725e-07)
(8.23954e-08 -1.66621e-07 2.3313e-07)
(9.87503e-08 -1.75368e-07 2.64625e-07)
(2.47756e-09 -5.45458e-09 4.48852e-09)
(6.89479e-09 -1.5305e-08 1.26779e-08)
(1.09137e-08 -2.46006e-08 2.06437e-08)
(1.46553e-08 -3.37464e-08 2.88574e-08)
(1.82327e-08 -4.30787e-08 3.77359e-08)
(2.17613e-08 -5.28792e-08 4.76654e-08)
(2.5367e-08 -6.33823e-08 5.90114e-08)
(2.91986e-08 -7.47879e-08 7.21312e-08)
(3.34485e-08 -8.72799e-08 8.73897e-08)
(3.83748e-08 -1.01054e-07 1.05167e-07)
(4.43603e-08 -1.16362e-07 1.25887e-07)
(5.20222e-08 -1.33597e-07 1.50072e-07)
(6.24448e-08 -1.53474e-07 1.78496e-07)
(7.76529e-08 -1.77377e-07 2.12447e-07)
(1.01428e-07 -2.07716e-07 2.53929e-07)
(1.34302e-07 -2.42948e-07 2.99177e-07)
(1.91153e-10 -5.11809e-10 3.58357e-10)
(5.31645e-10 -1.43203e-09 1.01393e-09)
(8.40103e-10 -2.28983e-09 1.65583e-09)
(1.12532e-09 -3.11719e-09 2.32642e-09)
(1.39395e-09 -3.93733e-09 3.06227e-09)
(1.65156e-09 -4.7615e-09 3.89714e-09)
(1.90263e-09 -5.58885e-09 4.86169e-09)
(2.15105e-09 -6.40395e-09 5.98404e-09)
(2.40225e-09 -7.16815e-09 7.28744e-09)
(2.66738e-09 -7.80848e-09 8.78929e-09)
(2.9747e-09 -8.19171e-09 1.04966e-08)
(3.41045e-09 -8.06723e-09 1.24092e-08)
(4.16446e-09 -6.93138e-09 1.45213e-08)
(5.66981e-09 -3.65381e-09 1.68669e-08)
(8.52325e-09 4.03724e-09 1.94228e-08)
(1.19296e-08 1.70131e-08 2.0949e-08)
(5.70269e-10 -1.51952e-09 1.06571e-09)
(1.58558e-09 -4.25229e-09 3.0137e-09)
(2.50625e-09 -6.80129e-09 4.92265e-09)
(3.35718e-09 -9.26244e-09 6.91444e-09)
(4.15902e-09 -1.1703e-08 9.09808e-09)
(4.92857e-09 -1.416e-08 1.15729e-08)
(5.67929e-09 -1.66365e-08 1.443e-08)
(6.42247e-09 -1.90919e-08 1.77506e-08)
(7.16998e-09 -2.14265e-08 2.16025e-08)
(7.94338e-09 -2.34473e-08 2.60274e-08)
(8.7988e-09 -2.48277e-08 3.10246e-08)
(9.87889e-09 -2.50311e-08 3.6512e-08)
(1.15119e-08 -2.32119e-08 4.22608e-08)
(1.42417e-08 -1.82224e-08 4.77316e-08)
(1.83867e-08 -9.41083e-09 5.16131e-08)
(2.19707e-08 -3.21449e-10 5.14525e-08)
(9.40438e-10 -2.48105e-09 1.74631e-09)
(2.61517e-09 -6.94522e-09 4.93811e-09)
(4.13463e-09 -1.11155e-08 8.06518e-09)
(5.54022e-09 -1.51488e-08 1.13251e-08)
(6.86707e-09 -1.91598e-08 1.48954e-08)
(8.14421e-09 -2.32177e-08 1.89379e-08)
(9.39546e-09 -2.73412e-08 2.36019e-08)
(1.06395e-08 -3.1487e-08 2.90222e-08)
(1.18911e-08 -3.55267e-08 3.53103e-08)
(1.31641e-08 -3.92185e-08 4.25363e-08)
(1.4486e-08 -4.21641e-08 5.06901e-08)
(1.59405e-08 -4.37822e-08 5.96165e-08)
(1.76916e-08 -4.33576e-08 6.88644e-08)
(2.00122e-08 -4.04294e-08 7.75185e-08)
(2.28901e-08 -3.59813e-08 8.3828e-08)
(2.47448e-08 -3.40132e-08 8.54379e-08)
(1.29564e-09 -3.36517e-09 2.3835e-09)
(3.60394e-09 -9.42455e-09 6.74087e-09)
(5.69916e-09 -1.50948e-08 1.10059e-08)
(7.64009e-09 -2.0594e-08 1.54476e-08)
(9.47648e-09 -2.60852e-08 2.03042e-08)
(1.12516e-08 -3.16782e-08 2.57955e-08)
(1.30024e-08 -3.74223e-08 3.21258e-08)
(1.47588e-08 -4.32955e-08 3.94816e-08)
(1.65406e-08 -4.91859e-08 4.80225e-08)
(1.83481e-08 -5.48632e-08 5.78542e-08)
(2.01659e-08 -5.99513e-08 6.89908e-08)
(2.19155e-08 -6.39129e-08 8.12119e-08)
(2.34633e-08 -6.61305e-08 9.39553e-08)
(2.45073e-08 -6.62879e-08 1.05962e-07)
(2.44703e-08 -6.52643e-08 1.14916e-07)
(2.2593e-08 -6.56788e-08 1.17753e-07)
(1.63031e-09 -4.14211e-09 2.96417e-09)
(4.53513e-09 -1.16058e-08 8.38084e-09)
(7.17334e-09 -1.86035e-08 1.36775e-08)
(9.61982e-09 -2.54118e-08 1.91827e-08)
(1.19403e-08 -3.22453e-08 2.5189e-08)
(1.41941e-08 -3.92594e-08 3.19666e-08)
(1.64353e-08 -4.65468e-08 3.97685e-08)
(1.87124e-08 -5.41303e-08 4.88301e-08)
(2.10622e-08 -6.19491e-08 5.93601e-08)
(2.34982e-08 -6.98419e-08 7.15202e-08)
(2.59764e-08 -7.75154e-08 8.53617e-08)
(2.83361e-08 -8.4508e-08 1.00719e-07)
(3.0154e-08 -9.0178e-08 1.16992e-07)
(3.0551e-08 -9.3812e-08 1.32747e-07)
(2.81519e-08 -9.51445e-08 1.45089e-07)
(2.26625e-08 -9.55875e-08 1.49792e-07)
(1.93858e-09 -4.78329e-09 3.47686e-09)
(5.39261e-09 -1.34077e-08 9.82645e-09)
(8.53007e-09 -2.15099e-08 1.60248e-08)
(1.14414e-08 -2.94215e-08 2.24507e-08)
(1.42077e-08 -3.7406e-08 2.94399e-08)
(1.69054e-08 -4.56672e-08 3.73034e-08)
(1.96092e-08 -5.43483e-08 4.63334e-08)
(2.23938e-08 -6.35305e-08 5.68059e-08)
(2.5332e-08 -7.32321e-08 6.89771e-08)
(2.8485e-08 -8.33984e-08 8.30674e-08)
(3.18726e-08 -9.38846e-08 9.92089e-08)
(3.54022e-08 -1.044e-07 1.17352e-07)
(3.86768e-08 -1.14386e-07 1.37048e-07)
(4.06124e-08 -1.22746e-07 1.56976e-07)
(3.89355e-08 -1.27502e-07 1.73992e-07)
(3.17124e-08 -1.26971e-07 1.82465e-07)
(2.21487e-09 -5.26175e-09 3.91287e-09)
(6.16074e-09 -1.47551e-08 1.10536e-08)
(9.74372e-09 -2.36925e-08 1.80082e-08)
(1.30675e-08 -3.24525e-08 2.51931e-08)
(1.62268e-08 -4.13426e-08 3.29764e-08)
(1.93137e-08 -5.06111e-08 4.16967e-08)
(2.24235e-08 -6.04501e-08 5.1672e-08)
(2.56602e-08 -7.10027e-08 6.32052e-08)
(2.91414e-08 -8.23708e-08 7.65853e-08)
(3.30062e-08 -9.46254e-08 9.20818e-08)
(3.74106e-08 -1.07813e-07 1.09907e-07)
(4.25175e-08 -1.2195e-07 1.30161e-07)
(4.84046e-08 -1.36962e-07 1.52665e-07)
(5.47798e-08 -1.52415e-07 1.76499e-07)
(6.00887e-08 -1.66657e-07 1.9875e-07)
(6.03032e-08 -1.7516e-07 2.12229e-07)
(2.45445e-09 -5.55437e-09 4.26747e-09)
(6.82605e-09 -1.55833e-08 1.20483e-08)
(1.07921e-08 -2.50467e-08 1.96052e-08)
(1.44658e-08 -3.43583e-08 2.73792e-08)
(1.79516e-08 -4.3859e-08 3.57564e-08)
(2.13531e-08 -5.38318e-08 4.50891e-08)
(2.47804e-08 -6.45087e-08 5.57043e-08)
(2.83593e-08 -7.60821e-08 6.79119e-08)
(3.22446e-08 -8.87202e-08 8.20084e-08)
(3.66387e-08 -1.02589e-07 9.8277e-08)
(4.18218e-08 -1.17886e-07 1.16963e-07)
(4.82069e-08 -1.34888e-07 1.38249e-07)
(5.64229e-08 -1.54052e-07 1.6215e-07)
(6.74397e-08 -1.76126e-07 1.88184e-07)
(8.23164e-08 -2.01813e-07 2.14074e-07)
(9.86574e-08 -2.27349e-07 2.31952e-07)
(1.86703e-10 -5.2005e-10 3.26683e-10)
(5.18273e-10 -1.45512e-09 9.23554e-10)
(8.16705e-10 -2.32701e-09 1.50813e-09)
(1.08808e-09 -3.16834e-09 2.11624e-09)
(1.33722e-09 -4.00341e-09 2.78193e-09)
(1.56609e-09 -4.84454e-09 3.5336e-09)
(1.77378e-09 -5.69398e-09 4.39721e-09)
(1.956e-09 -6.53891e-09 5.39339e-09)
(2.10352e-09 -7.35286e-09 6.53837e-09)
(2.20186e-09 -8.07987e-09 7.83336e-09)
(2.2321e-09 -8.63306e-09 9.26101e-09)
(2.16514e-09 -8.87252e-09 1.07574e-08)
(1.95543e-09 -8.56445e-09 1.21839e-08)
(1.413e-09 -7.31632e-09 1.32184e-08)
(-1.43205e-10 -4.55902e-09 1.31242e-08)
(-3.93963e-09 -5.3822e-10 1.05815e-08)
(5.57118e-10 -1.54376e-09 9.71137e-10)
(1.54697e-09 -4.32004e-09 2.74595e-09)
(2.43754e-09 -6.91006e-09 4.48193e-09)
(3.24882e-09 -9.41211e-09 6.28969e-09)
(3.99431e-09 -1.1896e-08 8.26501e-09)
(4.68093e-09 -1.44028e-08 1.04938e-08)
(5.30725e-09 -1.69401e-08 1.30511e-08)
(5.8609e-09 -1.94812e-08 1.60013e-08)
(6.31442e-09 -2.19466e-08 1.93851e-08)
(6.62181e-09 -2.41963e-08 2.32081e-08)
(6.71436e-09 -2.6007e-08 2.74026e-08)
(6.49823e-09 -2.70676e-08 3.17597e-08)
(5.82762e-09 -2.7002e-08 3.57937e-08)
(4.39604e-09 -2.55385e-08 3.84898e-08)
(1.51729e-09 -2.30649e-08 3.79579e-08)
(-3.15178e-09 -2.15776e-08 3.27231e-08)
(9.19656e-10 -2.52019e-09 1.59134e-09)
(2.55421e-09 -7.05446e-09 4.49949e-09)
(4.02641e-09 -1.12908e-08 7.34358e-09)
(5.36992e-09 -1.53895e-08 1.03025e-08)
(6.60895e-09 -1.94693e-08 1.35325e-08)
(7.75742e-09 -2.36035e-08 1.71731e-08)
(8.81682e-09 -2.7819e-08 2.13494e-08)
(9.77068e-09 -3.20851e-08 2.61658e-08)
(1.05771e-08 -3.63051e-08 3.1696e-08)
(1.11561e-08 -4.02932e-08 3.79542e-08)
(1.13744e-08 -4.37754e-08 4.48436e-08)
(1.10162e-08 -4.64094e-08 5.20443e-08)
(9.7695e-09 -4.79154e-08 5.88769e-08)
(7.14299e-09 -4.84641e-08 6.40106e-08)
(2.56695e-09 -4.93161e-08 6.53927e-08)
(-3.33653e-09 -5.22724e-08 6.1967e-08)
(1.26905e-09 -3.41767e-09 2.17288e-09)
(3.52513e-09 -9.57127e-09 6.14179e-09)
(5.55995e-09 -1.53292e-08 1.00223e-08)
(7.42152e-09 -2.09148e-08 1.40542e-08)
(9.14638e-09 -2.64951e-08 1.8448e-08)
(1.07593e-08 -3.21842e-08 2.33939e-08)
(1.22699e-08 -3.80371e-08 2.90627e-08)
(1.36669e-08 -4.40452e-08 3.56021e-08)
(1.4903e-08 -5.0119e-08 4.31191e-08)
(1.58771e-08 -5.60804e-08 5.16546e-08)
(1.63811e-08 -6.16558e-08 6.10963e-08)
(1.60719e-08 -6.65027e-08 7.11098e-08)
(1.4333e-08 -7.03544e-08 8.08754e-08)
(1.02655e-08 -7.33768e-08 8.89119e-08)
(3.01909e-09 -7.66389e-08 9.2955e-08)
(-5.89364e-09 -8.10897e-08 9.15519e-08)
(1.59956e-09 -4.20616e-09 2.70227e-09)
(4.44445e-09 -1.1784e-08 7.63755e-09)
(7.01335e-09 -1.88879e-08 1.24571e-08)
(9.3694e-09 -2.57996e-08 1.74549e-08)
(1.15637e-08 -3.27371e-08 2.28894e-08)
(1.36354e-08 -3.98587e-08 2.89941e-08)
(1.561e-08 -4.72605e-08 3.59821e-08)
(1.74914e-08 -5.49699e-08 4.4039e-08)
(1.92496e-08 -6.29398e-08 5.33124e-08)
(2.07865e-08 -7.10342e-08 6.38729e-08)
(2.18841e-08 -7.90192e-08 7.56491e-08)
(2.20934e-08 -8.65533e-08 8.82953e-08)
(2.05558e-08 -9.32277e-08 1.00992e-07)
(1.58402e-08 -9.87247e-08 1.12138e-07)
(6.3934e-09 -1.0316e-07 1.19181e-07)
(-5.84001e-09 -1.07064e-07 1.19936e-07)
(1.90567e-09 -4.85634e-09 3.16979e-09)
(5.29604e-09 -1.36112e-08 8.95667e-09)
(8.35993e-09 -2.18339e-08 1.45975e-08)
(1.1176e-08 -2.98611e-08 2.04318e-08)
(1.38105e-08 -3.79594e-08 2.67561e-08)
(1.632e-08 -4.6333e-08 3.38397e-08)
(1.87508e-08 -5.51234e-08 4.19282e-08)
(2.11358e-08 -6.44094e-08 5.12412e-08)
(2.34821e-08 -7.42037e-08 6.19604e-08)
(2.57458e-08 -8.44483e-08 7.41958e-08)
(2.77772e-08 -9.49966e-08 8.79225e-08)
(2.92007e-08 -1.0557e-07 1.02848e-07)
(2.91711e-08 -1.15668e-07 1.18194e-07)
(2.60066e-08 -1.24374e-07 1.32323e-07)
(1.71876e-08 -1.30132e-07 1.42425e-07)
(3.12297e-09 -1.31417e-07 1.45587e-07)
(2.18189e-09 -5.3413e-09 3.56831e-09)
(6.06378e-09 -1.49764e-08 1.00771e-08)
(9.5734e-09 -2.40444e-08 1.64074e-08)
(1.28027e-08 -3.29284e-08 2.29319e-08)
(1.58326e-08 -4.19376e-08 2.99757e-08)
(1.87368e-08 -5.13184e-08 3.78323e-08)
(2.1585e-08 -6.1257e-08 4.67691e-08)
(2.44425e-08 -7.18844e-08 5.70265e-08)
(2.73704e-08 -8.32815e-08 6.88103e-08)
(3.04105e-08 -9.54838e-08 8.22595e-08)
(3.35638e-08 -1.08476e-07 9.73908e-08)
(3.67177e-08 -1.22165e-07 1.13968e-07)
(3.94786e-08 -1.3629e-07 1.31267e-07)
(4.0833e-08 -1.50141e-07 1.47594e-07)
(3.87009e-08 -1.61872e-07 1.59681e-07)
(3.13846e-08 -1.67704e-07 1.6351e-07)
(2.42291e-09 -5.63759e-09 3.89249e-09)
(6.73352e-09 -1.58147e-08 1.09863e-08)
(1.06298e-08 -2.54147e-08 1.78662e-08)
(1.42144e-08 -3.48543e-08 2.4927e-08)
(1.75794e-08 -4.44758e-08 3.25098e-08)
(2.08124e-08 -5.4558e-08 4.09201e-08)
(2.40012e-08 -6.53235e-08 5.04329e-08)
(2.72403e-08 -7.69457e-08 6.12937e-08)
(3.06351e-08 -8.95603e-08 7.37122e-08)
(3.43079e-08 -1.03275e-07 8.78329e-08)
(3.84032e-08 -1.18181e-07 1.0368e-07)
(4.30868e-08 -1.34361e-07 1.21042e-07)
(4.85277e-08 -1.51894e-07 1.39218e-07)
(5.48769e-08 -1.70799e-07 1.56446e-07)
(6.21829e-08 -1.90653e-07 1.68853e-07)
(6.94813e-08 -2.07982e-07 1.7063e-07)
(1.81895e-10 -5.26756e-10 2.83359e-10)
(5.04262e-10 -1.47386e-09 8.0119e-10)
(7.91624e-10 -2.35692e-09 1.30663e-09)
(1.04898e-09 -3.20941e-09 1.83291e-09)
(1.27805e-09 -4.05648e-09 2.40633e-09)
(1.4776e-09 -4.91162e-09 3.05107e-09)
(1.64181e-09 -5.77843e-09 3.78681e-09)
(1.7588e-09 -6.64953e-09 4.629e-09)
(1.80741e-09 -7.50483e-09 5.58554e-09)
(1.75329e-09 -8.3071e-09 6.6499e-09)
(1.54079e-09 -9.00423e-09 7.79138e-09)
(1.08509e-09 -9.52456e-09 8.94113e-09)
(2.22644e-10 -9.78203e-09 9.95398e-09)
(-1.40919e-09 -9.65503e-09 1.06048e-08)
(-4.64393e-09 -8.94416e-09 1.05976e-08)
(-1.00484e-08 -7.40844e-09 9.79936e-09)
(5.4317e-10 -1.56351e-09 8.42592e-10)
(1.5057e-09 -4.37505e-09 2.38109e-09)
(2.36487e-09 -6.99811e-09 3.88516e-09)
(3.13471e-09 -9.53294e-09 5.44732e-09)
(3.82197e-09 -1.20513e-08 7.14921e-09)
(4.42372e-09 -1.45971e-08 9.06034e-09)
(4.92463e-09 -1.71838e-08 1.12399e-08)
(5.29113e-09 -1.97937e-08 1.37334e-08)
(5.4633e-09 -2.23698e-08 1.65623e-08)
(5.34188e-09 -2.48129e-08 1.97073e-08)
(4.77374e-09 -2.69803e-08 2.30734e-08)
(3.53486e-09 -2.8707e-08 2.64383e-08)
(1.30406e-09 -2.98498e-08 2.93652e-08)
(-2.34331e-09 -3.03834e-08 3.11148e-08)
(-7.66954e-09 -3.0502e-08 3.07621e-08)
(-1.31758e-08 -3.04951e-08 2.84284e-08)
(8.976e-10 -2.55208e-09 1.38089e-09)
(2.48896e-09 -7.1436e-09 3.90216e-09)
(3.91151e-09 -1.14328e-08 6.36603e-09)
(5.18997e-09 -1.55833e-08 8.92375e-09)
(6.33774e-09 -1.97164e-08 1.17064e-08)
(7.35393e-09 -2.39092e-08 1.48283e-08)
(8.21893e-09 -2.81941e-08 1.83874e-08)
(8.88536e-09 -3.25542e-08 2.24599e-08)
(9.26416e-09 -3.6916e-08 2.70862e-08)
(9.20226e-09 -4.11439e-08 3.22411e-08)
(8.4588e-09 -4.50524e-08 3.77902e-08)
(6.68761e-09 -4.84473e-08 4.34238e-08)
(3.42037e-09 -5.12492e-08 4.85243e-08)
(-1.76583e-09 -5.37281e-08 5.21915e-08)
(-8.63781e-09 -5.66814e-08 5.35161e-08)
(-1.45953e-08 -6.03935e-08 5.29604e-08)
(1.24026e-09 -3.46065e-09 1.88502e-09)
(3.44086e-09 -9.69045e-09 5.32838e-09)
(5.41142e-09 -1.55189e-08 8.68979e-09)
(7.1893e-09 -2.11717e-08 1.21751e-08)
(8.79744e-09 -2.68191e-08 1.59605e-08)
(1.02423e-08 -3.25777e-08 2.02015e-08)
(1.15082e-08 -3.85079e-08 2.50331e-08)
(1.25463e-08 -4.46091e-08 3.05632e-08)
(1.32555e-08 -5.08122e-08 3.68538e-08)
(1.34508e-08 -5.69764e-08 4.3888e-08)
(1.28305e-08 -6.28953e-08 5.1533e-08)
(1.09056e-08 -6.83407e-08 5.94018e-08)
(7.00237e-09 -7.31786e-08 6.68488e-08)
(4.23906e-10 -7.76142e-08 7.28901e-08)
(-8.66739e-09 -8.23288e-08 7.6594e-08)
(-1.6892e-08 -8.72357e-08 7.80908e-08)
(1.56624e-09 -4.25822e-09 2.34519e-09)
(4.34672e-09 -1.19288e-08 6.62705e-09)
(6.84134e-09 -1.9117e-08 1.0803e-08)
(9.1012e-09 -2.61075e-08 1.51238e-08)
(1.11622e-08 -3.31205e-08 1.98057e-08)
(1.30436e-08 -4.03151e-08 2.50405e-08)
(1.47433e-08 -4.77879e-08 3.09965e-08)
(1.62264e-08 -5.55686e-08 3.78104e-08)
(1.7405e-08 -6.3615e-08 4.55694e-08)
(1.81036e-08 -7.1805e-08 5.42793e-08)
(1.80014e-08 -7.99326e-08 6.38011e-08)
(1.6543e-08 -8.7703e-08 7.3764e-08)
(1.28375e-08 -9.47668e-08 8.34698e-08)
(5.74657e-09 -1.00815e-07 9.19e-08)
(-5.17623e-09 -1.05734e-07 9.80113e-08)
(-1.62134e-08 -1.09429e-07 1.01468e-07)
(1.86991e-09 -4.91563e-09 2.75204e-09)
(5.19079e-09 -1.37755e-08 7.7733e-09)
(8.1752e-09 -2.2093e-08 1.26619e-08)
(1.08888e-08 -3.0207e-08 1.77063e-08)
(1.33823e-08 -3.83845e-08 2.31552e-08)
(1.56924e-08 -4.68282e-08 2.92296e-08)
(1.78382e-08 -5.56748e-08 3.61242e-08)
(1.9814e-08 -6.49948e-08 4.39998e-08)
(2.15719e-08 -7.47889e-08 5.29651e-08)
(2.29939e-08 -8.49814e-08 6.30475e-08)
(2.3833e-08 -9.54001e-08 7.41206e-08)
(2.36132e-08 -1.0573e-07 8.58134e-08)
(2.14616e-08 -1.15417e-07 9.73959e-08)
(1.59969e-08 -1.23477e-07 1.07758e-07)
(5.85044e-09 -1.2825e-07 1.15681e-07)
(-6.7002e-09 -1.28162e-07 1.20566e-07)
(2.14543e-09 -5.4055e-09 3.09846e-09)
(5.95685e-09 -1.51543e-08 8.74772e-09)
(9.38594e-09 -2.4324e-08 1.42348e-08)
(1.25122e-08 -3.32992e-08 1.98768e-08)
(1.54016e-08 -4.23881e-08 2.59464e-08)
(1.81091e-08 -5.18323e-08 3.26847e-08)
(2.06787e-08 -6.1808e-08 4.03033e-08)
(2.3141e-08 -7.24283e-08 4.89779e-08)
(2.55055e-08 -8.37448e-08 5.88306e-08)
(2.77466e-08 -9.57443e-08 6.99e-08)
(2.97727e-08 -1.08334e-07 8.20647e-08)
(3.13652e-08 -1.21293e-07 9.49385e-08)
(3.20714e-08 -1.34167e-07 1.07713e-07)
(3.10965e-08 -1.46014e-07 1.19044e-07)
(2.74251e-08 -1.54878e-07 1.27225e-07)
(2.14149e-08 -1.57698e-07 1.31392e-07)
(2.38751e-09 -5.70433e-09 3.38075e-09)
(6.62962e-09 -1.59998e-08 9.53908e-09)
(1.04482e-08 -2.57049e-08 1.55039e-08)
(1.39339e-08 -3.52375e-08 2.16108e-08)
(1.71654e-08 -4.49368e-08 2.81463e-08)
(2.02132e-08 -5.50749e-08 3.53614e-08)
(2.31432e-08 -6.58599e-08 4.34737e-08)
(2.60184e-08 -7.74404e-08 5.26618e-08)
(2.89001e-08 -8.99093e-08 6.30471e-08)
(3.18503e-08 -1.03305e-07 7.46647e-08)
(3.49287e-08 -1.17607e-07 8.73827e-08)
(3.81915e-08 -1.32709e-07 1.00783e-07)
(4.17039e-08 -1.48401e-07 1.13961e-07)
(4.56851e-08 -1.64335e-07 1.25281e-07)
(5.0917e-08 -1.79925e-07 1.32245e-07)
(5.83559e-08 -1.93108e-07 1.33082e-07)
(1.77302e-10 -5.3194e-10 2.30306e-10)
(4.90605e-10 -1.48817e-09 6.50454e-10)
(7.67862e-10 -2.37935e-09 1.06154e-09)
(1.0117e-09 -3.24096e-09 1.48716e-09)
(1.2222e-09 -4.0965e-09 1.95059e-09)
(1.39497e-09 -4.96207e-09 2.4693e-09)
(1.5205e-09 -5.84151e-09 3.05752e-09)
(1.5813e-09 -6.73166e-09 3.72625e-09)
(1.54902e-09 -7.61604e-09 4.47802e-09)
(1.37851e-09 -8.47035e-09 5.30491e-09)
(1.00255e-09 -9.25773e-09 6.18046e-09)
(3.16733e-10 -9.93978e-09 7.04567e-09)
(-8.52895e-10 -1.04707e-08 7.81878e-09)
(-2.86176e-09 -1.07711e-08 8.40178e-09)
(-6.45442e-09 -1.0617e-08 8.80068e-09)
(-1.19411e-08 -9.46472e-09 9.10959e-09)
(5.29654e-10 -1.57875e-09 6.84547e-10)
(1.46617e-09 -4.4172e-09 1.93505e-09)
(2.29523e-09 -7.06591e-09 3.15509e-09)
(3.02616e-09 -9.6248e-09 4.42129e-09)
(3.6593e-09 -1.21699e-08 5.79645e-09)
(4.18349e-09 -1.47444e-08 7.3337e-09)
(4.57243e-09 -1.73666e-08 9.07693e-09)
(4.77759e-09 -2.00249e-08 1.10562e-08)
(4.7188e-09 -2.26784e-08 1.32816e-08)
(4.27065e-09 -2.52502e-08 1.57257e-08)
(3.25096e-09 -2.76413e-08 1.83058e-08)
(1.41187e-09 -2.97426e-08 2.08491e-08)
(-1.54901e-09 -3.14594e-08 2.30619e-08)
(-5.89849e-09 -3.27205e-08 2.45489e-08)
(-1.14437e-08 -3.33645e-08 2.49553e-08)
(-1.61803e-08 -3.304e-08 2.44159e-08)
(8.76168e-10 -2.57688e-09 1.1221e-09)
(2.42638e-09 -7.2125e-09 3.17173e-09)
(3.8014e-09 -1.1542e-08 5.17161e-09)
(5.01854e-09 -1.57318e-08 7.2445e-09)
(6.08115e-09 -1.99031e-08 9.49262e-09)
(6.97617e-09 -2.41366e-08 1.20037e-08)
(7.66718e-09 -2.84685e-08 1.48499e-08)
(8.08521e-09 -3.28907e-08 1.80837e-08)
(8.11175e-09 -3.73437e-08 2.17227e-08)
(7.56157e-09 -4.17208e-08 2.5733e-08)
(6.16418e-09 -4.58775e-08 2.99952e-08)
(3.56033e-09 -4.96702e-08 3.42491e-08)
(-6.20598e-10 -5.30369e-08 3.8115e-08)
(-6.4992e-09 -5.61169e-08 4.10895e-08)
(-1.31885e-08 -5.92727e-08 4.28709e-08)
(-1.77227e-08 -6.23514e-08 4.37443e-08)
(1.21258e-09 -3.49397e-09 1.53304e-09)
(3.35947e-09 -9.78322e-09 4.33111e-09)
(5.26872e-09 -1.56653e-08 7.0613e-09)
(6.96722e-09 -2.13672e-08 9.88601e-09)
(8.46612e-09 -2.70619e-08 1.29442e-08)
(9.75622e-09 -3.28663e-08 1.63551e-08)
(1.0802e-08 -3.88438e-08 2.02193e-08)
(1.15282e-08 -4.49975e-08 2.46099e-08)
(1.1802e-08 -5.12694e-08 2.95591e-08)
(1.14064e-08 -5.75345e-08 3.50363e-08)
(1.00086e-08 -6.36128e-08 4.08888e-08)
(7.15646e-09 -6.92974e-08 4.68571e-08)
(2.31864e-09 -7.44371e-08 5.24738e-08)
(-4.77669e-09 -7.90974e-08 5.72408e-08)
(-1.32354e-08 -8.36156e-08 6.08522e-08)
(-1.95241e-08 -8.77374e-08 6.32727e-08)
(1.53394e-09 -4.29889e-09 1.90733e-09)
(4.25193e-09 -1.2041e-08 5.38873e-09)
(6.67525e-09 -1.92929e-08 8.7806e-09)
(8.84345e-09 -2.63405e-08 1.22828e-08)
(1.07787e-08 -3.34034e-08 1.6065e-08)
(1.24837e-08 -4.06416e-08 2.02752e-08)
(1.39343e-08 -4.81492e-08 2.50382e-08)
(1.50686e-08 -5.59542e-08 3.0448e-08)
(1.57663e-08 -6.40115e-08 3.65514e-08)
(1.58204e-08 -7.21979e-08 4.33203e-08)
(1.48966e-08 -8.03017e-08 5.06119e-08)
(1.24863e-08 -8.80149e-08 5.81197e-08)
(7.89637e-09 -9.49383e-08 6.53693e-08)
(4.73885e-10 -1.00641e-07 7.18232e-08)
(-9.45942e-09 -1.048e-07 7.71303e-08)
(-1.8183e-08 -1.07373e-07 8.09265e-08)
(1.83481e-09 -4.96171e-09 2.23843e-09)
(5.08824e-09 -1.39027e-08 6.32244e-09)
(7.99571e-09 -2.22911e-08 1.02939e-08)
(1.06107e-08 -3.04658e-08 1.43828e-08)
(1.29704e-08 -3.86939e-08 1.87849e-08)
(1.5094e-08 -4.71737e-08 2.36706e-08)
(1.69792e-08 -5.60358e-08 2.91843e-08)
(1.85929e-08 -6.53389e-08 3.54356e-08)
(1.98577e-08 -7.50674e-08 4.24846e-08)
(2.06257e-08 -8.5119e-08 5.03067e-08)
(2.06425e-08 -9.52817e-08 5.87539e-08)
(1.94857e-08 -1.0518e-07 6.7491e-08)
(1.64937e-08 -1.14177e-07 7.59809e-08)
(1.07914e-08 -1.21191e-07 8.35904e-08)
(1.81047e-09 -1.24529e-07 8.98745e-08)
(-8.17743e-09 -1.22998e-07 9.44051e-08)
(2.10948e-09 -5.45519e-09 2.52109e-09)
(5.85167e-09 -1.5291e-08 7.11672e-09)
(9.20218e-09 -2.45361e-08 1.15751e-08)
(1.22286e-08 -3.3574e-08 1.61491e-08)
(1.49831e-08 -4.27104e-08 2.10533e-08)
(1.75044e-08 -5.21807e-08 2.64736e-08)
(1.9816e-08 -6.21494e-08 3.25669e-08)
(2.19238e-08 -7.27097e-08 3.94522e-08)
(2.38087e-08 -8.38822e-08 4.71947e-08)
(2.54185e-08 -9.56046e-08 5.57683e-08)
(2.66523e-08 -1.0771e-07 6.50085e-08)
(2.73384e-08 -1.19876e-07 7.45304e-08)
(2.72108e-08 -1.31523e-07 8.36775e-08)
(2.59424e-08 -1.41622e-07 9.15816e-08)
(2.33079e-08 -1.4838e-07 9.74943e-08)
(1.97489e-08 -1.49581e-07 1.01141e-07)
(2.35218e-09 -5.75568e-09 2.75145e-09)
(6.52651e-09 -1.61413e-08 7.76229e-09)
(1.02684e-08 -2.59236e-08 1.261e-08)
(1.36571e-08 -3.55188e-08 1.75618e-08)
(1.6759e-08 -4.52618e-08 2.28435e-08)
(1.96295e-08 -5.54165e-08 2.86489e-08)
(2.23161e-08 -6.6175e-08 3.51392e-08)
(2.48592e-08 -7.76601e-08 4.24337e-08)
(2.72954e-08 -8.99232e-08 5.05953e-08)
(2.96606e-08 -1.02939e-07 5.95869e-08)
(3.2002e-08 -1.16592e-07 6.92201e-08)
(3.44032e-08 -1.30648e-07 7.90544e-08)
(3.70688e-08 -1.44751e-07 8.83043e-08)
(4.05913e-08 -1.58481e-07 9.5802e-08)
(4.64644e-08 -1.71538e-07 1.00238e-07)
(5.59461e-08 -1.83014e-07 1.01111e-07)
(1.73353e-10 -5.35485e-10 1.69539e-10)
(4.79164e-10 -1.49793e-09 4.7948e-10)
(7.4762e-10 -2.39537e-09 7.80845e-10)
(9.80459e-10 -3.26118e-09 1.09429e-09)
(1.1757e-09 -4.12509e-09 1.43417e-09)
(1.32696e-09 -4.99779e-09 1.81317e-09)
(1.42209e-09 -5.88603e-09 2.24103e-09)
(1.44072e-09 -6.78731e-09 2.72425e-09)
(1.35108e-09 -7.68986e-09 3.26417e-09)
(1.106e-09 -8.57197e-09 3.85351e-09)
(6.38493e-10 -9.40534e-09 4.47193e-09)
(-1.47568e-10 -1.01577e-08 5.08891e-09)
(-1.39934e-09 -1.07734e-08 5.6564e-09)
(-3.43765e-09 -1.11611e-08 6.15374e-09)
(-6.95826e-09 -1.10343e-08 6.65213e-09)
(-1.22822e-08 -9.78275e-09 7.18749e-09)
(5.18218e-10 -1.58949e-09 5.04564e-10)
(1.43253e-09 -4.44723e-09 1.42498e-09)
(2.23631e-09 -7.11221e-09 2.32333e-09)
(2.93483e-09 -9.69218e-09 3.25401e-09)
(3.52321e-09 -1.22534e-08 4.26225e-09)
(3.98477e-09 -1.48467e-08 5.38537e-09)
(4.28563e-09 -1.74907e-08 6.65273e-09)
(4.36919e-09 -2.01787e-08 8.08373e-09)
(4.14634e-09 -2.28752e-08 9.68136e-09)
(3.48727e-09 -2.55157e-08 1.14229e-08)
(2.21691e-09 -2.80122e-08 1.32481e-08)
(1.23582e-10 -3.02562e-08 1.50485e-08)
(-3.01961e-09 -3.214e-08 1.66603e-08)
(-7.33241e-09 -3.34789e-08 1.78769e-08)
(-1.24616e-08 -3.39162e-08 1.85173e-08)
(-1.65312e-08 -3.30437e-08 1.84973e-08)
(8.58041e-10 -2.59464e-09 8.27187e-10)
(2.37304e-09 -7.26173e-09 2.33629e-09)
(3.70825e-09 -1.16216e-08 3.80909e-09)
(4.87368e-09 -1.58361e-08 5.3326e-09)
(5.86618e-09 -2.00354e-08 6.98104e-09)
(6.66289e-09 -2.42949e-08 8.81525e-09)
(7.21684e-09 -2.86549e-08 1.08847e-08)
(7.44645e-09 -3.31105e-08 1.32222e-08)
(7.22254e-09 -3.76102e-08 1.58353e-08)
(6.35596e-09 -4.20559e-08 1.86908e-08)
(4.59373e-09 -4.63111e-08 2.16992e-08)
(1.64568e-09 -5.02285e-08 2.47176e-08)
(-2.72277e-09 -5.36807e-08 2.74884e-08)
(-8.4018e-09 -5.66746e-08 2.97681e-08)
(-1.42969e-08 -5.93442e-08 3.13852e-08)
(-1.77555e-08 -6.16091e-08 3.23042e-08)
(1.1889e-09 -3.51844e-09 1.12946e-09)
(3.29024e-09 -9.85051e-09 3.19213e-09)
(5.14726e-09 -1.57699e-08 5.20202e-09)
(6.77939e-09 -2.15086e-08 7.27873e-09)
(8.18736e-09 -2.72317e-08 9.52058e-09)
(9.35146e-09 -3.30629e-08 1.20119e-08)
(1.02228e-08 -3.90635e-08 1.4821e-08)
(1.07119e-08 -4.52389e-08 1.79948e-08)
(1.06741e-08 -5.15312e-08 2.15472e-08)
(9.89178e-09 -5.78177e-08 2.54393e-08)
(8.0695e-09 -6.39149e-08 2.95848e-08)
(4.84106e-09 -6.95899e-08 3.37771e-08)
(-1.27777e-10 -7.46276e-08 3.77618e-08)
(-6.82565e-09 -7.89494e-08 4.12641e-08)
(-1.41507e-08 -8.27286e-08 4.40989e-08)
(-1.90667e-08 -8.59076e-08 4.59857e-08)
(1.50624e-09 -4.32837e-09 1.40601e-09)
(4.17106e-09 -1.2123e-08 3.9723e-09)
(6.53381e-09 -1.94209e-08 6.47034e-09)
(8.62407e-09 -2.65046e-08 9.04476e-09)
(1.04549e-08 -3.35997e-08 1.18175e-08)
(1.20155e-08 -4.08598e-08 1.48924e-08)
(1.32679e-08 -4.83778e-08 1.83548e-08)
(1.41351e-08 -5.61765e-08 2.22642e-08)
(1.44862e-08 -6.42042e-08 2.66411e-08)
(1.41195e-08 -7.23258e-08 3.14524e-08)
(1.27432e-08 -8.03109e-08 3.65897e-08)
(9.96158e-09 -8.78066e-08 4.18411e-08)
(5.30831e-09 -9.43512e-08 4.69035e-08)
(-1.54954e-09 -9.94116e-08 5.14896e-08)
(-1.00916e-08 -1.02586e-07 5.53756e-08)
(-1.72218e-08 -1.04117e-07 5.80713e-08)
(1.80483e-09 -4.99561e-09 1.65086e-09)
(5.00021e-09 -1.39953e-08 4.66169e-09)
(7.84163e-09 -2.2433e-08 7.58688e-09)
(1.03735e-08 -3.06494e-08 1.05931e-08)
(1.26206e-08 -3.89049e-08 1.38202e-08)
(1.45906e-08 -4.73981e-08 1.73885e-08)
(1.62664e-08 -5.6251e-08 2.13964e-08)
(1.76009e-08 -6.55114e-08 2.5913e-08)
(1.85065e-08 -7.51458e-08 3.09634e-08)
(1.88433e-08 -8.50248e-08 3.65144e-08)
(1.84028e-08 -9.48965e-08 4.24433e-08)
(1.6886e-08 -1.04338e-07 4.85016e-08)
(1.38671e-08 -1.12649e-07 5.43245e-08)
(8.80599e-09 -1.18708e-07 5.95541e-08)
(1.34792e-09 -1.20884e-07 6.39168e-08)
(-6.9015e-09 -1.18389e-07 6.69426e-08)
(2.07845e-09 -5.49138e-09 1.85955e-09)
(5.76099e-09 -1.53903e-08 5.24841e-09)
(9.04411e-09 -2.46882e-08 8.53292e-09)
(1.19846e-08 -3.37655e-08 1.1896e-08)
(1.46257e-08 -4.29271e-08 1.54916e-08)
(1.69925e-08 -5.24005e-08 1.94508e-08)
(1.90954e-08 -6.23395e-08 2.38802e-08)
(2.09263e-08 -7.28198e-08 2.88541e-08)
(2.24576e-08 -8.38339e-08 3.43978e-08)
(2.36445e-08 -9.52794e-08 4.04718e-08)
(2.44301e-08 -1.06936e-07 4.6932e-08)
(2.47533e-08 -1.18415e-07 5.34746e-08)
(2.45749e-08 -1.29092e-07 5.96302e-08)
(2.38928e-08 -1.37962e-07 6.48746e-08)
(2.27083e-08 -1.43444e-07 6.87743e-08)