/*--------------------------------*- C++ -*----------------------------------*\
| =========                 |                                                 |
| \\      /  F ield         | OpenFOAM: The Open Source CFD Toolbox           |
|  \\    /   O peration     | Version:  v1912                                 |
|   \\  /    A nd           | Website:  www.openfoam.com                      |
|    \\/     M anipulation  |                                                 |
\*---------------------------------------------------------------------------*/
FoamFile
{
    version     2.0;
    format      ascii;
    class       volScalarField;
    location    "0.31/fluid";
    object      p;
}
// * * * * * * * * * * * * * * * * * * * * * * * * * * * * * * * * * * * * * //

dimensions      [0 2 -2 0 0 0 0];


internalField   nonuniform List<scalar> 
14592
(
0.0684891
0.0629892
0.0611439
0.0595439
0.0585015
0.0575961
0.0567937
0.0560697
0.055368
0.0547918
0.0541606
0.0538388
0.0532029
0.0535296
0.0526761
0.0552914
0.0642258
0.0625204
0.0608957
0.0595606
0.0585457
0.0576542
0.0568524
0.0561337
0.0554415
0.0548842
0.0542777
0.0540068
0.0534231
0.0539234
0.0531074
0.0567479
0.0623211
0.0616784
0.0604431
0.0594128
0.0584659
0.0576118
0.0568159
0.0560999
0.0554087
0.0548582
0.0542656
0.0540331
0.0534984
0.0541419
0.0534023
0.0575378
0.0610785
0.0608799
0.0599893
0.0591819
0.0583273
0.0575232
0.0567435
0.0560329
0.0553417
0.054794
0.0542102
0.0540099
0.053522
0.0542909
0.0536706
0.0580819
0.0603393
0.0602693
0.0595824
0.0589144
0.0581338
0.0573692
0.0565988
0.0558806
0.0551682
0.054589
0.0539639
0.053722
0.053183
0.0539536
0.0533219
0.0579507
0.0598207
0.0597972
0.0592437
0.0586656
0.0579417
0.0572062
0.0564418
0.0557143
0.0549823
0.0543775
0.0537282
0.0534774
0.0529521
0.0538374
0.0533623
0.0584418
0.0594854
0.0594762
0.0589891
0.0584545
0.0577564
0.0570262
0.0562469
0.0554841
0.0546959
0.0540047
0.0532343
0.052804
0.0520201
0.0525693
0.0515268
0.0565775
0.0592819
0.0592782
0.0588188
0.0582997
0.0576066
0.0568681
0.0560678
0.0552703
0.0544373
0.053686
0.0528544
0.0523596
0.0515534
0.0522517
0.0514725
0.0587865
0.0683609
0.0628628
0.0610548
0.059497
0.0585102
0.0576674
0.0569369
0.0562953
0.0556879
0.0552187
0.05471
0.0544941
0.0539903
0.0541903
0.0534027
0.0544167
0.0640978
0.0623922
0.060806
0.059514
0.0585555
0.0577274
0.0569983
0.056363
0.055766
0.0553167
0.0548328
0.0546639
0.0542015
0.0545193
0.0537119
0.0551821
0.0621902
0.0615461
0.0603489
0.0593616
0.0584713
0.0576808
0.0569573
0.0563241
0.055727
0.0552832
0.0548098
0.0546752
0.0542494
0.0546821
0.0539127
0.0556525
0.0609456
0.0607453
0.059892
0.0591271
0.0583287
0.0575875
0.0568792
0.0562506
0.055652
0.0552102
0.0547431
0.0546402
0.0542537
0.0548014
0.0541202
0.0560492
0.0602032
0.0601316
0.0594811
0.0588545
0.0581287
0.0574253
0.056724
0.0560846
0.0554601
0.0549813
0.0544637
0.0543112
0.0538537
0.0543938
0.0536513
0.0557701
0.0596815
0.0596565
0.0591385
0.0586009
0.0579302
0.0572541
0.0565562
0.0559046
0.0552567
0.0547492
0.0542023
0.0540426
0.0535922
0.0542689
0.0536614
0.0562481
0.0593422
0.0593316
0.0588793
0.0583836
0.0577368
0.0570631
0.0563461
0.0556535
0.0549408
0.0543358
0.053649
0.0532914
0.0525366
0.0528642
0.0515541
0.0541512
0.0591344
0.0591294
0.0587041
0.0582227
0.057579
0.0568944
0.056153
0.0554212
0.0546579
0.0539873
0.0532324
0.052815
0.0520372
0.0525921
0.0515443
0.056598
0.0682759
0.062779
0.0610001
0.059477
0.0585383
0.0577534
0.0570939
0.0565399
0.056044
0.0557175
0.0554074
0.0554396
0.0553443
0.0559504
0.0560774
0.057254
0.0640131
0.0623073
0.0607509
0.0594944
0.058585
0.0578157
0.0571586
0.0566126
0.0561291
0.0558254
0.0555438
0.055627
0.0555802
0.0562999
0.0564484
0.0579763
0.0621027
0.0614574
0.0602897
0.0593378
0.0584968
0.0577652
0.0571136
0.0565693
0.0560852
0.0557866
0.0555144
0.0556328
0.0556229
0.0564621
0.0566726
0.0584552
0.0608558
0.0606542
0.0598297
0.0590997
0.05835
0.0576671
0.05703
0.0564894
0.0560026
0.0557055
0.0554382
0.0555903
0.0556191
0.0565811
0.0568836
0.0588531
0.0601103
0.0600372
0.0594148
0.0588221
0.0581437
0.0574969
0.0568642
0.0563097
0.055792
0.0554524
0.055125
0.0552198
0.0551584
0.056106
0.0563052
0.0584564
0.0595853
0.0595589
0.0590682
0.0585633
0.0579387
0.0573172
0.0566853
0.0561151
0.0555691
0.0551956
0.0548298
0.0549122
0.054839
0.055925
0.0562077
0.0588276
0.0592419
0.0592301
0.0588041
0.05834
0.0577371
0.057115
0.0564596
0.0558421
0.0552212
0.0547365
0.0542067
0.0540619
0.0536175
0.0542989
0.0536795
0.0562582
0.0590299
0.0590238
0.058624
0.058173
0.0575713
0.0569355
0.0562515
0.055589
0.0549091
0.0543477
0.0537316
0.0535093
0.0529976
0.053896
0.0534073
0.0584896
0.0682203
0.062724
0.0609669
0.0594704
0.0585689
0.0578279
0.0572206
0.0567261
0.0562983
0.056043
0.0558147
0.0559024
0.0558874
0.0564326
0.0566072
0.0574927
0.0639577
0.0622514
0.0607175
0.0594882
0.0586167
0.0578919
0.0572877
0.0568018
0.0563872
0.0561553
0.0559554
0.0560914
0.0561196
0.0567561
0.0569347
0.0580691
0.0620448
0.0613982
0.0602525
0.0593278
0.0585248
0.0578377
0.0572387
0.0567541
0.0563377
0.0561096
0.0559155
0.056082
0.0561368
0.0568746
0.0570928
0.0584357
0.0607958
0.0605926
0.0597897
0.0590863
0.0583742
0.0577354
0.0571502
0.0566686
0.0562483
0.0560206
0.055829
0.0560273
0.0561137
0.0569664
0.0572563
0.0587676
0.0600472
0.0599726
0.059371
0.0588041
0.0581622
0.0575582
0.0569757
0.0564779
0.0560232
0.0557493
0.0554911
0.055627
0.0556093
0.0564408
0.0565969
0.058282
0.059519
0.0594912
0.0590207
0.0585409
0.0579515
0.0573714
0.0567877
0.0562721
0.0557861
0.0554759
0.0551749
0.0552981
0.0552602
0.0562357
0.0564514
0.0586075
0.059172
0.0591587
0.0587523
0.0583122
0.057743
0.0571602
0.0565498
0.0559829
0.0554164
0.0549884
0.0545122
0.0543997
0.053966
0.0545308
0.0537781
0.0558857
0.0589561
0.0589488
0.0585679
0.05814
0.0575704
0.056972
0.0563302
0.0557151
0.0550851
0.0545767
0.0540081
0.0538192
0.0533106
0.0541164
0.0534726
0.0581141
0.0681864
0.0626906
0.0609501
0.0594748
0.0586039
0.0579002
0.0573394
0.0569007
0.056542
0.0563667
0.0562419
0.0564328
0.0565711
0.0572007
0.0575748
0.0583802
0.063924
0.0622173
0.0607007
0.0594931
0.0586528
0.057966
0.057409
0.05698
0.0566359
0.0564859
0.0563917
0.0566327
0.0568164
0.0575313
0.0579121
0.0589202
0.0620088
0.0613612
0.0602326
0.0593295
0.0585577
0.0579089
0.057357
0.0569291
0.0565825
0.0564356
0.0563456
0.0566149
0.0568201
0.0576281
0.058039
0.0592358
0.0607579
0.0605536
0.0597673
0.0590852
0.0584039
0.0578029
0.0572643
0.0568388
0.0564873
0.0563402
0.0562508
0.0565512
0.0567838
0.0577039
0.0581761
0.0595343
0.0600068
0.0599309
0.0593453
0.0587989
0.058187
0.0576197
0.0570821
0.0566383
0.0562494
0.0560527
0.0558907
0.056124
0.0562413
0.0571343
0.0574497
0.0589768
0.0594758
0.0594468
0.0589918
0.0585318
0.0579713
0.0574265
0.0568858
0.056422
0.0559985
0.0557622
0.0555517
0.0557689
0.0558545
0.0568894
0.0572386
0.0592346
0.0591255
0.0591112
0.0587196
0.0582984
0.0577567
0.0572072
0.056637
0.056118
0.0556081
0.0552469
0.0548495
0.0548195
0.0544831
0.0550914
0.0544079
0.0563355
0.0589063
0.0588981
0.0585314
0.0581215
0.0575781
0.057011
0.0564067
0.0558358
0.0552571
0.0548095
0.0543097
0.0541953
0.0537641
0.0546096
0.0539885
0.0584533
0.0681664
0.0626708
0.0609421
0.0594818
0.0586321
0.057954
0.0574239
0.0570194
0.0566994
0.0565618
0.0564784
0.0566924
0.0568628
0.057464
0.0578471
0.0585809
0.0639042
0.0621971
0.0606927
0.0595004
0.0586818
0.058021
0.0574951
0.0571008
0.0567958
0.0566838
0.0566311
0.056894
0.0571079
0.057787
0.0581715
0.0590811
0.0619873
0.0613388
0.0602221
0.0593343
0.0585843
0.0579615
0.0574405
0.057047
0.0567388
0.056629
0.0565784
0.0568667
0.0570961
0.0578596
0.0582629
0.0593478
0.0607349
0.0605296
0.0597549
0.0590877
0.058428
0.0578528
0.0573446
0.0569531
0.0566392
0.0565285
0.0564769
0.056795
0.0570474
0.0579189
0.058373
0.0596147
0.0599816
0.0599047
0.0593303
0.0587983
0.0582074
0.057665
0.0571568
0.0567457
0.0563925
0.0562303
0.0561026
0.0563511
0.0564811
0.0573217
0.0576043
0.0590124
0.0594485
0.0594185
0.0589743
0.0585281
0.0579878
0.0574672
0.0569547
0.0565223
0.0561328
0.0559296
0.0557506
0.0559822
0.0560752
0.0570577
0.0573602
0.059237
0.0590956
0.0590804
0.0586992
0.0582912
0.0577686
0.057242
0.0566983
0.0562086
0.0557296
0.0553985
0.0550274
0.0550087
0.0546691
0.0552215
0.0544626
0.0562601
0.0588737
0.0588648
0.058508
0.0581108
0.0575856
0.0570401
0.0564607
0.0559172
0.0553669
0.0549471
0.0544704
0.0543668
0.0539273
0.0547219
0.0540109
0.0583496
0.068156
0.0626605
0.0609396
0.0594893
0.0586543
0.0579942
0.0574864
0.057108
0.0568193
0.0567155
0.0566732
0.0569221
0.0571393
0.0577537
0.0581747
0.0588737
0.0638938
0.0621864
0.0606902
0.0595082
0.0587046
0.0580622
0.0575589
0.0571913
0.0569183
0.0568411
0.0568305
0.057129
0.0573905
0.0580807
0.058503
0.0593636
0.0619758
0.0613267
0.0602179
0.0593404
0.0586055
0.0580011
0.0575028
0.0571358
0.0568594
0.056784
0.0567744
0.057097
0.0573711
0.0581415
0.0585766
0.0596053
0.0607223
0.0605164
0.0597494
0.0590923
0.0584475
0.0578905
0.0574047
0.0570394
0.0567567
0.05668
0.0566685
0.0570202
0.0573148
0.0581911
0.0586711
0.0598542
0.0599675
0.05989
0.0593229
0.0588008
0.0582242
0.0576995
0.0572129
0.0568271
0.0565037
0.0563739
0.0562838
0.0565638
0.0567312
0.0575737
0.0578727
0.0592205
0.0594329
0.0594023
0.0589652
0.0585284
0.058002
0.0574983
0.0570065
0.0565984
0.0562371
0.0560648
0.0559208
0.0561823
0.0563075
0.0572903
0.0575985
0.0594146
0.0590782
0.0590625
0.058688
0.058289
0.0577796
0.057269
0.0567446
0.0562774
0.0558242
0.0555212
0.0551805
0.0551879
0.0548718
0.0554193
0.0546447
0.0563725
0.0588545
0.0588451
0.0584948
0.0581061
0.0575933
0.057063
0.0565015
0.0559789
0.055452
0.0550578
0.0546074
0.0545269
0.0541038
0.0548919
0.0541503
0.0584207
0.0681512
0.0626563
0.0609385
0.0594934
0.0586651
0.0580132
0.057515
0.0571472
0.05687
0.0567767
0.0567451
0.056998
0.057221
0.0578249
0.0582453
0.0589309
0.0638895
0.0621818
0.0606893
0.0595123
0.0587156
0.0580814
0.0575879
0.0572308
0.0569693
0.0569023
0.056902
0.0572035
0.0574692
0.0581465
0.0585667
0.059409
0.0619706
0.0613212
0.0602163
0.0593436
0.0586157
0.0580195
0.0575308
0.0571743
0.056909
0.0568432
0.0568431
0.0571675
0.0574437
0.0581983
0.058628
0.0596358
0.0607168
0.0605103
0.0597471
0.0590947
0.0584567
0.0579079
0.0574316
0.0570766
0.0568048
0.0567376
0.0567349
0.0570879
0.0573832
0.0582424
0.058714
0.059875
0.0599612
0.0598832
0.0593198
0.0588021
0.0582322
0.0577154
0.057238
0.0568621
0.0565491
0.0564284
0.0563464
0.0566272
0.0567938
0.0576185
0.0579052
0.0592299
0.0594257
0.0593948
0.0589611
0.0585287
0.0580087
0.0575126
0.0570297
0.0566311
0.0562798
0.0561163
0.0559796
0.0562418
0.0563648
0.0573291
0.0576204
0.0594121
0.0590702
0.0590541
0.0586829
0.058288
0.0577848
0.0572814
0.0567654
0.0563072
0.0558632
0.0555684
0.0552341
0.0552419
0.0549218
0.0554505
0.0546527
0.0563524
0.0588456
0.0588358
0.0584887
0.0581039
0.057597
0.0570735
0.0565199
0.0560058
0.0554874
0.0551008
0.0546559
0.0545757
0.054147
0.0549159
0.0541449
0.0583834
0.078155
0.0675481
0.0639855
0.061008
0.0591591
0.0575955
0.0562439
0.0549594
0.0536757
0.0523675
0.0509467
0.0494525
0.0477112
0.0458904
0.0436617
0.0414602
0.0738348
0.0667284
0.0635535
0.0608876
0.0591147
0.0575905
0.056253
0.0549787
0.053703
0.0524034
0.0509917
0.0495094
0.0477802
0.0459754
0.043758
0.0415648
0.0718997
0.065744
0.0629644
0.0606164
0.0589599
0.0575077
0.0562008
0.0549452
0.0536803
0.0523892
0.050987
0.0495159
0.0478026
0.0460149
0.0438179
0.0416402
0.0706152
0.0648966
0.0624508
0.0603311
0.0587888
0.0574054
0.0561312
0.0548932
0.0536371
0.0523511
0.0509544
0.0494897
0.0477881
0.0460139
0.0438379
0.0416784
0.0698524
0.0642699
0.0620209
0.0600459
0.0585938
0.0572684
0.0560247
0.0548022
0.0535525
0.0522678
0.0508722
0.0494077
0.0477141
0.045949
0.0437983
0.0416631
0.0693274
0.0637991
0.0616801
0.0597995
0.058415
0.0571334
0.0559131
0.0547012
0.0534548
0.0521685
0.0507725
0.0493074
0.0476238
0.04587
0.0437526
0.0416474
0.0689981
0.0634882
0.0614367
0.0596062
0.0582602
0.0570031
0.0557943
0.054584
0.0533337
0.0520387
0.0506354
0.0491609
0.0474807
0.0457303
0.0436485
0.041576
0.0688101
0.0633065
0.0612848
0.0594755
0.0581452
0.0568961
0.055688
0.0544721
0.0532141
0.0519084
0.0504985
0.0490171
0.0473463
0.0456058
0.0435691
0.0415348
0.0738261
0.0667151
0.0635338
0.0608622
0.0590835
0.0575557
0.0562148
0.0549316
0.0536416
0.052326
0.0508927
0.0493889
0.0476267
0.045799
0.0435336
0.0413414
0.0695382
0.0661799
0.0632034
0.0607974
0.0590675
0.057567
0.0562333
0.0549542
0.0536663
0.052354
0.0509248
0.0494275
0.0476726
0.0458552
0.0435984
0.0414156
0.0676046
0.0652683
0.0626691
0.0605725
0.0589389
0.0574983
0.056188
0.0549225
0.053642
0.0523359
0.0509144
0.0494264
0.047686
0.0458841
0.0436469
0.0414787
0.0663296
0.0644298
0.0621741
0.0603051
0.05878
0.0574039
0.0561233
0.0548736
0.0536009
0.0522995
0.0508835
0.049402
0.047674
0.0458859
0.04367
0.0415198
0.0655725
0.0638003
0.0617498
0.0600267
0.0585901
0.0572703
0.056019
0.0547845
0.0535183
0.0522183
0.050804
0.0493234
0.0476042
0.0458257
0.0436361
0.0415098
0.0650495
0.0633248
0.0614102
0.0597829
0.0584142
0.0571375
0.0559096
0.0546864
0.0534242
0.0521237
0.0507106
0.0492311
0.0475242
0.045759
0.0436055
0.0415094
0.0647216
0.063012
0.0611677
0.0595912
0.0582614
0.0570086
0.0557921
0.0545714
0.0533061
0.0519976
0.0505781
0.0490901
0.0473882
0.045627
0.0435122
0.0414482
0.0645342
0.0628297
0.0610166
0.0594621
0.0581483
0.0569032
0.0556877
0.0544627
0.0531908
0.0518729
0.0504489
0.0489562
0.0472671
0.0455185
0.0434542
0.0414286
0.0718961
0.0657362
0.062956
0.0606098
0.0589595
0.0575208
0.0562291
0.0549854
0.0537272
0.0524464
0.0510357
0.0495638
0.0477847
0.0459629
0.043548
0.0413007
0.0676125
0.0652771
0.0626852
0.0605968
0.0589762
0.0575534
0.0562621
0.055019
0.0537619
0.0524846
0.0510791
0.0496152
0.0478449
0.0460358
0.0436285
0.0413915
0.0656899
0.0644178
0.0622059
0.0604226
0.0588802
0.0575045
0.0562282
0.0549936
0.0537415
0.0524692
0.0510713
0.0496171
0.0478623
0.0460693
0.0436799
0.0414546
0.0644278
0.0635996
0.0617352
0.0601784
0.0587372
0.0574202
0.0561693
0.0549478
0.0537019
0.0524334
0.0510411
0.0495941
0.0478533
0.0460761
0.0437101
0.0415044
0.0636789
0.0629789
0.0613229
0.0599114
0.0585552
0.0572909
0.056066
0.0548571
0.0536155
0.0523462
0.0509537
0.0495056
0.0477729
0.0460045
0.0436685
0.0414896
0.0631595
0.0625058
0.0609874
0.059672
0.0583821
0.057159
0.0559557
0.0547564
0.0535171
0.0522459
0.0508539
0.0494063
0.0476883
0.0459357
0.043646
0.0415036
0.062833
0.0621934
0.0607461
0.0594813
0.0582291
0.0570282
0.0558344
0.0546352
0.05339
0.052107
0.0507048
0.0492433
0.0475277
0.0457745
0.0435339
0.0414281
0.0626452
0.0620103
0.0605946
0.0593514
0.0581146
0.0569201
0.0557259
0.0545206
0.0532668
0.051972
0.0505637
0.0490954
0.0473955
0.0456567
0.0434847
0.0414268
0.0706119
0.0648887
0.062453
0.0603483
0.0588319
0.0574854
0.0562536
0.0550612
0.0538451
0.0526108
0.0512306
0.0498034
0.0479998
0.0461915
0.0435467
0.0412325
0.0663387
0.0644389
0.0622019
0.0603549
0.058863
0.0575281
0.0562936
0.0551005
0.0538852
0.052655
0.0512809
0.0498641
0.0480723
0.0462835
0.0436494
0.0413522
0.0644283
0.0635987
0.0617459
0.0602029
0.0587824
0.0574888
0.0562648
0.0550776
0.0538657
0.0526397
0.0512734
0.0498671
0.0480923
0.0463213
0.0437012
0.0414099
0.0631765
0.0627926
0.0612872
0.0599702
0.0586474
0.0574095
0.0562083
0.0550323
0.0538254
0.0526026
0.0512422
0.0498443
0.0480857
0.0463338
0.0437391
0.0414691
0.0624345
0.0621794
0.060882
0.0597097
0.0584693
0.0572816
0.0561039
0.0549379
0.0537328
0.0525067
0.0511435
0.0497414
0.0479892
0.046244
0.0436832
0.0414437
0.0619187
0.0617096
0.0605496
0.0594727
0.0582972
0.0571494
0.0559913
0.0548329
0.0536286
0.0523986
0.0510352
0.0496333
0.0478992
0.0461738
0.0436743
0.0414817
0.0615934
0.0613982
0.0603089
0.059282
0.0581428
0.0570156
0.0558649
0.0547035
0.0534895
0.0522427
0.0508637
0.0494397
0.0477033
0.0459685
0.0435325
0.0413811
0.061405
0.0612145
0.0601565
0.0591508
0.058026
0.056904
0.0557513
0.0545814
0.0533566
0.0520951
0.0507083
0.0492753
0.0475593
0.0458428
0.0435045
0.0414187
0.0698482
0.064262
0.0620417
0.0601058
0.0587135
0.0574663
0.0563148
0.0552006
0.0540597
0.052915
0.0516141
0.0502972
0.048522
0.0468028
0.0438692
0.0414729
0.0655811
0.0638086
0.0617963
0.0601198
0.0587513
0.0575146
0.05636
0.0552456
0.0541068
0.0529685
0.0516768
0.0503759
0.0486186
0.0469315
0.0440139
0.0416389
0.0636781
0.062976
0.061351
0.0599786
0.0586785
0.0574803
0.0563338
0.0552238
0.0540876
0.0529535
0.0516706
0.0503827
0.0486453
0.0469796
0.0440685
0.0416877
0.0624334
0.0621773
0.0608995
0.0597525
0.058548
0.0574033
0.0562775
0.0551771
0.0540448
0.0529136
0.0516371
0.0503598
0.0486423
0.0470024
0.0441198
0.0417654
0.0616963
0.0615692
0.0604988
0.0594955
0.0583713
0.0572743
0.0561691
0.0550755
0.0539415
0.0528027
0.051519
0.0502326
0.0485179
0.0468823
0.0440398
0.0417266
0.0611828
0.0611019
0.0601681
0.0592592
0.0581983
0.0571392
0.056051
0.054962
0.0538257
0.0526798
0.0513935
0.0501054
0.048412
0.0468032
0.0440453
0.0418042
0.0608577
0.0607907
0.0599269
0.0590669
0.0580405
0.0569994
0.055915
0.0548181
0.0536659
0.0524941
0.0511813
0.0498556
0.0481469
0.0465104
0.0438332
0.0416459
0.0606677
0.0606055
0.0597725
0.0589327
0.057919
0.0568812
0.0557918
0.0546823
0.0535145
0.0523217
0.0509955
0.0496536
0.0479672
0.0463522
0.0438144
0.0417364
0.0693054
0.0637737
0.0617072
0.0598957
0.0586125
0.0574591
0.0563907
0.0553597
0.0543
0.0532516
0.0520344
0.0508324
0.0490708
0.0474249
0.0440385
0.0414673
0.06504
0.063314
0.0614615
0.0599116
0.0586527
0.0575102
0.0564392
0.0554089
0.0543525
0.0533128
0.0521079
0.0509287
0.0491927
0.0475956
0.0442151
0.0416182
0.0631395
0.0624815
0.0610181
0.0597727
0.0585815
0.0574764
0.0564124
0.0553856
0.0543314
0.0532961
0.0521008
0.0509376
0.049223
0.0476485
0.0442452
0.0415906
0.061898
0.0616855
0.0605688
0.0595482
0.0584515
0.0573987
0.056354
0.0553356
0.0542844
0.0532517
0.0520634
0.0509134
0.0492221
0.047681
0.044304
0.0416756
0.0611629
0.0610794
0.0601692
0.0592913
0.0582733
0.0572661
0.0562393
0.0552245
0.0541677
0.0531226
0.0519215
0.0507559
0.0490611
0.0475209
0.0441913
0.0416254
0.0606501
0.0606128
0.0598384
0.0590539
0.0580977
0.0571263
0.0561142
0.0551011
0.0540389
0.0529834
0.0517772
0.0506093
0.048941
0.0474415
0.0442356
0.041794
0.0603239
0.0603006
0.0595955
0.0588584
0.0579351
0.0569792
0.055967
0.0549406
0.0538553
0.0527635
0.0515174
0.0502924
0.0485903
0.0470389
0.0439425
0.0415893
0.0601316
0.0601133
0.0594383
0.0587204
0.0578084
0.0568534
0.055833
0.05479
0.0536843
0.0525653
0.051301
0.050055
0.0483832
0.0468731
0.0439951
0.0418688
0.0689381
0.0634262
0.0614597
0.0597376
0.0585478
0.0574854
0.0565094
0.0555817
0.054638
0.053741
0.0526956
0.0517475
0.0502096
0.0489501
0.0453833
0.0428428
0.0646741
0.0629626
0.0612135
0.0597543
0.0585897
0.0575392
0.0565615
0.0556362
0.0546981
0.0538136
0.0527854
0.0518703
0.0503694
0.0491845
0.0456064
0.0429076
0.0627737
0.0621281
0.0607687
0.0596141
0.058517
0.0575038
0.0565327
0.0556105
0.0546743
0.053795
0.0527782
0.0518847
0.0504104
0.0492596
0.0456304
0.042798
0.0615334
0.0613327
0.0603193
0.0593889
0.0583855
0.0574236
0.0564706
0.0555557
0.0546216
0.0537449
0.052736
0.0518608
0.0504163
0.0493164
0.0457178
0.042913
0.0607982
0.0607265
0.0599186
0.0591299
0.0582035
0.057285
0.056347
0.055432
0.0544873
0.0535922
0.0525622
0.0516632
0.050205
0.0491049
0.0455625
0.0428681
0.0602845
0.0602591
0.0595861
0.0588897
0.0580235
0.0571384
0.0562121
0.0552951
0.0543404
0.0534298
0.0523893
0.051485
0.0500548
0.0490152
0.0456446
0.0431834
0.0599561
0.0599448
0.05934
0.0586899
0.0578542
0.0569811
0.0560499
0.0551123
0.0541242
0.0531616
0.0520585
0.051063
0.0495539
0.0484069
0.0451392
0.0428509
0.0597606
0.0597544
0.0591789
0.0585467
0.0577204
0.0568451
0.0559015
0.0549413
0.0539248
0.052924
0.0517899
0.050758
0.0492702
0.0481783
0.0452078
0.0434242
0.0686723
0.0631685
0.0612726
0.0596187
0.0585076
0.0575255
0.0566338
0.0558001
0.0549594
0.0541889
0.0532784
0.0525046
0.051089
0.0499592
0.0458958
0.042391
0.0644087
0.0627016
0.0610252
0.0596352
0.0585505
0.0575812
0.0566888
0.0558587
0.0550251
0.0542697
0.0533795
0.0526458
0.0512696
0.0502145
0.0459981
0.0416549
0.0625064
0.0618635
0.0605768
0.0594915
0.0584746
0.0575426
0.0566564
0.0558289
0.0549968
0.0542468
0.0533681
0.0526588
0.0513055
0.050274
0.0459065
0.0410517
0.0612654
0.0610669
0.0601255
0.0592639
0.0583399
0.0574586
0.0565895
0.0557684
0.0549372
0.0541897
0.0533187
0.0526315
0.0513099
0.0503386
0.045988
0.0410901
0.0605286
0.060459
0.0597223
0.0590012
0.0581527
0.0573128
0.056456
0.0556313
0.0547846
0.0540126
0.0531116
0.0523918
0.0510425
0.0500689
0.0457823
0.0410627
0.0600129
0.0599897
0.0593871
0.0587572
0.0579671
0.0571587
0.0563109
0.0554809
0.0546203
0.053829
0.0529134
0.0521895
0.0508736
0.0499963
0.0459582
0.0416312
0.0596814
0.0596723
0.0591371
0.0585522
0.0577904
0.0569908
0.0561336
0.0552765
0.0543728
0.0535152
0.0525153
0.0516696
0.0502279
0.0491951
0.0452589
0.0412195
0.0594821
0.0594784
0.0589716
0.0584036
0.0576491
0.0568445
0.0559712
0.0550864
0.0541481
0.053245
0.0522066
0.0513234
0.0499156
0.0490185
0.0455557
0.0425185
0.0592038
0.0592014
0.0587339
0.0582022
0.0574882
0.0567194
0.0558771
0.0550181
0.0541004
0.0532134
0.0521858
0.0513087
0.0498987
0.0489936
0.0455014
0.0424231
0.0592581
0.0592543
0.0587456
0.0581757
0.0574207
0.0566099
0.0557232
0.0548108
0.053833
0.0528626
0.0517497
0.0507313
0.0492446
0.0481459
0.0451451
0.0433295
0.0594485
0.0594327
0.0588438
0.0582084
0.0573903
0.0565219
0.055579
0.0546014
0.053549
0.052472
0.0512373
0.0500102
0.0483422
0.0468262
0.0439197
0.041764
0.0598436
0.0597841
0.05905
0.0583085
0.0574076
0.0564728
0.0554769
0.0544467
0.053344
0.0522025
0.0509132
0.0495955
0.0479172
0.0462992
0.0437381
0.0416343
0.0604711
0.0602833
0.0593337
0.0584368
0.0574393
0.056434
0.0553867
0.0543067
0.0531561
0.0519532
0.0506091
0.0492046
0.0475003
0.0457835
0.0434269
0.0413187
0.0616373
0.0610068
0.0597072
0.0585812
0.0574806
0.0564125
0.0553318
0.0542228
0.0530489
0.0518175
0.0504556
0.0490186
0.0473331
0.0455961
0.0434098
0.0413319
0.0634722
0.0617745
0.0600839
0.0586527
0.0574812
0.0563682
0.0552724
0.0541485
0.0529606
0.0517093
0.0503343
0.0488748
0.0472021
0.0454571
0.0433813
0.0413377
0.0677455
0.0622566
0.0603583
0.0586717
0.0574831
0.0563629
0.0552745
0.0541626
0.0529884
0.0517489
0.0503876
0.0489391
0.0472843
0.045547
0.043499
0.0414464
0.0590514
0.059048
0.0586138
0.0581184
0.0574516
0.0567334
0.0559449
0.0551444
0.0542857
0.053464
0.052489
0.05166
0.050218
0.049175
0.045186
0.0410783
0.0591011
0.0590964
0.0586203
0.0580856
0.0573759
0.056613
0.0557764
0.0549172
0.053992
0.0530792
0.0520113
0.0510392
0.0495325
0.048376
0.0450556
0.0427137
0.0592867
0.0592703
0.0587135
0.0581121
0.0573371
0.0565136
0.0556166
0.054686
0.053678
0.0526471
0.0514439
0.050247
0.0485498
0.0469893
0.043846
0.0414468
0.0596775
0.0596175
0.0589151
0.0582071
0.0573478
0.0564556
0.0555026
0.0545153
0.0534521
0.0523504
0.0510878
0.0497953
0.0480965
0.0464549
0.0437404
0.0415137
0.0603011
0.0601131
0.0591948
0.0583306
0.0573734
0.0564087
0.0554013
0.0543602
0.0532444
0.0520748
0.0507517
0.0493652
0.0476431
0.0459069
0.0434425
0.0412581
0.0614648
0.0608342
0.0595659
0.0584722
0.0574113
0.0563826
0.0553401
0.0542678
0.0531266
0.0519255
0.0505831
0.049162
0.0474643
0.0457126
0.0434504
0.0413159
0.063298
0.0616011
0.0599414
0.0585422
0.0574089
0.0563344
0.055276
0.0541868
0.0530296
0.0518061
0.0504491
0.0490036
0.0473223
0.0455651
0.0434335
0.0413443
0.0675717
0.0620853
0.0602178
0.0585631
0.0574129
0.0563305
0.0552797
0.054204
0.0530616
0.0518515
0.0505102
0.0490779
0.047418
0.0456714
0.0435733
0.0414755
0.0589423
0.0589379
0.0585284
0.058062
0.0574348
0.0567618
0.0560252
0.0552855
0.0544965
0.0537627
0.052888
0.0521929
0.0508773
0.0499846
0.0458534
0.041404
0.0589875
0.058982
0.0585298
0.0580229
0.0573508
0.0566302
0.0558409
0.0550358
0.0541703
0.0533309
0.0523409
0.0514715
0.0500442
0.0489903
0.0455312
0.0429793
0.0591688
0.0591517
0.0586182
0.0580433
0.0573038
0.0565194
0.0556647
0.0547809
0.0538219
0.0528479
0.0516991
0.0505695
0.0489064
0.0473931
0.0441122
0.041599
0.0595557
0.0594952
0.0588158
0.0581335
0.0573079
0.0564523
0.055538
0.0545922
0.0535708
0.0525154
0.0512936
0.0500489
0.048367
0.0467501
0.0439349
0.0416353
0.0601759
0.0599875
0.0590916
0.0582524
0.0573278
0.0563972
0.0554254
0.0544209
0.0533405
0.052208
0.0509148
0.0495603
0.0478434
0.0461151
0.0435735
0.0413341
0.0613372
0.0607066
0.0594605
0.0583914
0.0573623
0.0563664
0.0553574
0.054319
0.0532098
0.0520406
0.0507229
0.0493259
0.0476297
0.0458785
0.0435579
0.0413763
0.0631689
0.0614724
0.059835
0.0584599
0.0573568
0.0563144
0.0552884
0.0542306
0.0531027
0.0519076
0.0505716
0.0491449
0.0474633
0.0457029
0.0435263
0.0413968
0.0674429
0.0619583
0.0601129
0.0584824
0.0573629
0.0563117
0.0552933
0.0542503
0.053138
0.0519569
0.0506378
0.0492252
0.0475669
0.0458178
0.0436784
0.0415398
0.0588644
0.0588589
0.0584676
0.0580232
0.0574265
0.0567883
0.0560904
0.0553931
0.0546471
0.0539578
0.0531172
0.0524437
0.0510985
0.0501064
0.0456683
0.0407397
0.0589057
0.0588993
0.0584645
0.0579788
0.0573358
0.0566478
0.0558942
0.0551279
0.0543008
0.0535008
0.0525395
0.0516909
0.0502382
0.049121
0.0454405
0.0426019
0.0590832
0.0590654
0.0585488
0.057994
0.057282
0.056528
0.055706
0.0548566
0.0539304
0.0529893
0.051862
0.0507476
0.0490589
0.0475007
0.0440576
0.0413855
0.0594667
0.0594056
0.0587429
0.0580802
0.0572808
0.0564538
0.0555699
0.0546554
0.0536634
0.0526368
0.0514335
0.0502024
0.0485013
0.0468552
0.043929
0.041533
0.060084
0.0598952
0.0590156
0.0581955
0.0572959
0.0563923
0.0554486
0.0544726
0.0534183
0.0523106
0.0510329
0.0496895
0.0479576
0.0462083
0.0435879
0.0412844
0.0612434
0.0606125
0.0593828
0.0583323
0.0573278
0.056358
0.0553758
0.0543642
0.0532796
0.0521334
0.0508304
0.049444
0.0477374
0.0459704
0.0435919
0.0413609
0.0630739
0.0613776
0.0597563
0.0583994
0.05732
0.0563031
0.0553032
0.0542707
0.0531661
0.0519924
0.0506704
0.0492538
0.047565
0.0457925
0.0435721
0.0414027
0.0673482
0.0618647
0.0600357
0.0584235
0.0573278
0.0563015
0.0553095
0.0542931
0.0532051
0.0520466
0.0507432
0.0493425
0.0476797
0.0459207
0.0437411
0.0415629
0.058811
0.0588046
0.058427
0.0579998
0.0574275
0.0568183
0.0561543
0.0554964
0.0547944
0.0541558
0.0533676
0.0527492
0.0514377
0.050444
0.045847
0.0405813
0.0588489
0.0588418
0.0584202
0.0579508
0.0573308
0.0566698
0.0559471
0.0552159
0.0544268
0.05367
0.0527503
0.0519453
0.0505115
0.0493932
0.0455842
0.0425492
0.0590232
0.0590049
0.0585008
0.0579615
0.0572711
0.0565419
0.0557476
0.054929
0.0540348
0.0531286
0.0520322
0.0509492
0.0492668
0.0477042
0.0441607
0.0413744
0.059404
0.0593424
0.0586921
0.0580441
0.0572651
0.0564613
0.0556027
0.0547157
0.0537512
0.0527537
0.0515746
0.050367
0.0486674
0.0470163
0.0440173
0.0415487
0.0600189
0.0598297
0.058962
0.0581563
0.0572762
0.0563941
0.0554736
0.054522
0.0534914
0.052408
0.051149
0.0498229
0.0480897
0.0463346
0.0436601
0.0413063
0.0611767
0.0605456
0.0593277
0.0582912
0.0573058
0.0563566
0.0553962
0.0544072
0.0533442
0.0522195
0.0509325
0.0495599
0.0478515
0.0460782
0.0436581
0.0413869
0.0630061
0.0613099
0.0597003
0.0583572
0.0572958
0.056299
0.0553203
0.0543088
0.0532243
0.0520699
0.0507621
0.0493572
0.0476667
0.0458881
0.0436351
0.0414326
0.0672807
0.0617981
0.0599808
0.0583825
0.057305
0.0562984
0.0553276
0.0543332
0.0532659
0.0521273
0.0508391
0.0494509
0.0477876
0.0460235
0.0438134
0.0416021
0.0587757
0.0587686
0.0584005
0.0579853
0.0574303
0.0568412
0.0562
0.0555668
0.0548897
0.0542753
0.0535044
0.0528927
0.0515601
0.0505073
0.0457513
0.0402358
0.058811
0.0588033
0.0583907
0.0579329
0.0573291
0.056687
0.0559854
0.0552768
0.05451
0.0537747
0.0528695
0.0520712
0.0506182
0.049457
0.0455272
0.0423421
0.0589829
0.058964
0.0584687
0.0579402
0.0572652
0.0565534
0.0557784
0.0549801
0.0541054
0.0532178
0.0521329
0.0510556
0.0493564
0.0477628
0.0441306
0.0412526
0.0593615
0.0592995
0.0586578
0.0580203
0.0572558
0.0564684
0.0556276
0.0547592
0.0538122
0.0528313
0.0516623
0.0504603
0.0487476
0.0470748
0.0440128
0.0414845
0.0599746
0.0597851
0.0589257
0.0581302
0.057264
0.0563972
0.0554933
0.0545586
0.0535438
0.052475
0.0512251
0.0499042
0.0481612
0.0463907
0.0436705
0.0412751
0.0611312
0.0604999
0.0592902
0.0582637
0.0572919
0.0563575
0.0554128
0.0544399
0.0533919
0.0522809
0.0510027
0.0496356
0.0479202
0.0461352
0.0436802
0.0413763
0.0629598
0.0612636
0.0596622
0.0583288
0.0572805
0.0562981
0.0553347
0.0543385
0.0532682
0.0521268
0.0508277
0.0494284
0.0477331
0.0459455
0.0436656
0.0414361
0.0672345
0.0617526
0.0599436
0.0583552
0.0572906
0.0562983
0.0553431
0.0543646
0.0533122
0.0521875
0.0509089
0.0495275
0.047861
0.0460892
0.0438538
0.0416158
0.0587546
0.058747
0.0583852
0.057978
0.0574346
0.0568595
0.0562347
0.0556202
0.0549634
0.0543709
0.0536206
0.0530264
0.0516975
0.0506257
0.0457838
0.0401023
0.0587881
0.05878
0.0583733
0.0579231
0.0573303
0.0567011
0.0560145
0.0553227
0.0545737
0.0538573
0.0529686
0.0521845
0.0507317
0.0495564
0.0455592
0.0422769
0.0589583
0.0589391
0.0584495
0.057928
0.0572634
0.0565635
0.055802
0.0550186
0.054159
0.0532872
0.0522152
0.0511488
0.0494477
0.0478435
0.0441608
0.0412228
0.0593354
0.0592731
0.058637
0.0580063
0.0572514
0.0564752
0.0556468
0.0547917
0.053858
0.0528905
0.0517319
0.0505384
0.0488233
0.0471424
0.0440437
0.0414761
0.0599473
0.0597575
0.0589035
0.0581146
0.0572575
0.0564011
0.0555085
0.0545858
0.0535827
0.0525254
0.0512839
0.0499698
0.0482245
0.0464477
0.0437003
0.0412771
0.061103
0.0604716
0.0592672
0.0582471
0.0572843
0.0563598
0.0554258
0.0544641
0.0534267
0.0523261
0.0510554
0.0496941
0.0479767
0.0461863
0.0437101
0.0413841
0.0629311
0.0612349
0.0596387
0.0583117
0.0572719
0.0562991
0.0553459
0.0543603
0.0533
0.0521682
0.0508759
0.0494818
0.047785
0.0459929
0.043696
0.0414484
0.0672059
0.0617244
0.0599206
0.0583387
0.0572826
0.0562998
0.0553551
0.0543875
0.0533454
0.0522307
0.0509595
0.0495837
0.0479164
0.0461405
0.0438892
0.041633
0.0587446
0.0587368