/*--------------------------------*- C++ -*----------------------------------*\
| =========                 |                                                 |
| \\      /  F ield         | OpenFOAM: The Open Source CFD Toolbox           |
|  \\    /   O peration     | Version:  v1912                                 |
|   \\  /    A nd           | Website:  www.openfoam.com                      |
|    \\/     M anipulation  |                                                 |
\*---------------------------------------------------------------------------*/
FoamFile
{
    version     2.0;
    format      ascii;
    class       pointVectorField;
    location    "0.31/fluid";
    object      pointMotionU;
}
// * * * * * * * * * * * * * * * * * * * * * * * * * * * * * * * * * * * * * //

dimensions      [0 1 -1 0 0 0 0];


internalField   nonuniform List<vector> 
16859
(
(0 0 0)
(0 0 0)
(0 0 0)
(0 0 0)
(0 0 0)
(0 0 0)
(0 0 0)
(0 0 0)
(0 0 0)
(0 0 0)
(0 0 0)
(0 0 0)
(0 0 0)
(0 0 0)
(0 0 0)
(0 0 0)
(3.09712e-08 5.37674e-08 2.87608e-08)
(0 0 0)
(7.38636e-10 -1.87225e-09 1.4434e-09)
(1.40571e-09 -3.58502e-09 2.81083e-09)
(2.02365e-09 -5.20826e-09 4.19867e-09)
(2.61236e-09 -6.79333e-09 5.69127e-09)
(3.19051e-09 -8.37126e-09 7.36538e-09)
(3.7775e-09 -9.9509e-09 9.29345e-09)
(4.39624e-09 -1.15132e-08 1.15446e-08)
(5.07831e-09 -1.29987e-08 1.4184e-08)
(5.87555e-09 -1.42849e-08 1.72737e-08)
(6.88613e-09 -1.51457e-08 2.08746e-08)
(8.31079e-09 -1.51709e-08 2.50586e-08)
(1.05884e-08 -1.35927e-08 2.99604e-08)
(1.46627e-08 -8.92599e-09 3.59392e-08)
(2.23749e-08 1.63788e-09 4.39189e-08)
(3.50256e-08 2.03135e-08 5.45176e-08)
(6.11329e-08 6.07877e-08 6.912e-08)
(0 0 0)
(1.46425e-09 -3.68888e-09 2.85046e-09)
(2.78661e-09 -7.06629e-09 5.55054e-09)
(4.01136e-09 -1.02707e-08 8.28929e-09)
(5.17774e-09 -1.34044e-08 1.12316e-08)
(6.32277e-09 -1.65334e-08 1.45286e-08)
(7.48472e-09 -1.96832e-08 1.83232e-08)
(8.70723e-09 -2.28285e-08 2.27509e-08)
(1.00471e-08 -2.58733e-08 2.79393e-08)
(1.15907e-08 -2.8617e-08 3.40052e-08)
(1.3486e-08 -3.06983e-08 4.1049e-08)
(1.6009e-08 -3.15055e-08 4.91475e-08)
(1.97056e-08 -3.00401e-08 5.83662e-08)
(2.55844e-08 -2.48222e-08 6.88164e-08)
(3.51594e-08 -1.4188e-08 8.06756e-08)
(4.82406e-08 6.49257e-10 9.28012e-08)
(7.71529e-08 2.07521e-08 1.13528e-07)
(0 0 0)
(2.16433e-09 -5.39374e-09 4.18695e-09)
(4.1189e-09 -1.03374e-08 8.1517e-09)
(5.92892e-09 -1.50366e-08 1.21696e-08)
(7.65216e-09 -1.96459e-08 1.64803e-08)
(9.34373e-09 -2.42718e-08 2.13047e-08)
(1.106e-08 -2.89682e-08 2.68518e-08)
(1.28635e-08 -3.37245e-08 3.33207e-08)
(1.48303e-08 -3.84443e-08 4.08993e-08)
(1.7064e-08 -4.29121e-08 4.97583e-08)
(1.97158e-08 -4.67415e-08 6.00315e-08)
(2.30322e-08 -4.93021e-08 7.17832e-08)
(2.74343e-08 -4.96574e-08 8.49622e-08)
(3.3598e-08 -4.66508e-08 9.93511e-08)
(4.2411e-08 -3.94617e-08 1.14477e-07)
(5.33537e-08 -2.9829e-08 1.28418e-07)
(7.67862e-08 -1.6471e-08 1.48527e-07)
(0 0 0)
(2.8265e-09 -6.93008e-09 5.42142e-09)
(5.37869e-09 -1.32898e-08 1.0552e-08)
(7.74128e-09 -1.93497e-08 1.57442e-08)
(9.98974e-09 -2.53176e-08 2.13048e-08)
(1.21965e-08 -3.1346e-08 2.75169e-08)
(1.44357e-08 -3.75285e-08 3.46491e-08)
(1.67886e-08 -4.38906e-08 4.29591e-08)
(1.93497e-08 -5.03728e-08 5.26937e-08)
(2.22355e-08 -5.68043e-08 6.4081e-08)
(2.55902e-08 -6.28611e-08 7.73033e-08)
(2.96027e-08 -6.8003e-08 9.24448e-08)
(3.45135e-08 -7.1416e-08 1.09399e-07)
(4.05883e-08 -7.20351e-08 1.27712e-07)
(4.80483e-08 -6.88471e-08 1.46323e-07)
(5.61878e-08 -6.24527e-08 1.62299e-07)
(7.46635e-08 -4.98542e-08 1.82099e-07)
(0 0 0)
(3.43911e-09 -8.24313e-09 6.52774e-09)
(6.5433e-09 -1.58176e-08 1.26991e-08)
(9.41474e-09 -2.30552e-08 1.89326e-08)
(1.21451e-08 -3.02161e-08 2.55921e-08)
(1.4823e-08 -3.75011e-08 3.30126e-08)
(1.754e-08 -4.50519e-08 4.1513e-08)
(2.0397e-08 -5.29461e-08 5.14016e-08)
(2.35112e-08 -6.11895e-08 6.298e-08)
(2.70223e-08 -6.97019e-08 7.65374e-08)
(3.10963e-08 -7.82889e-08 9.23292e-08)
(3.59223e-08 -8.65901e-08 1.10526e-07)
(4.16852e-08 -9.39888e-08 1.31112e-07)
(4.84585e-08 -9.94565e-08 1.5366e-07)
(5.60169e-08 -1.01363e-07 1.76857e-07)
(6.31527e-08 -9.828e-08 1.96641e-07)
(7.85441e-08 -8.4036e-08 2.18188e-07)
(0 0 0)
(3.99146e-09 -9.28102e-09 7.48562e-09)
(7.59183e-09 -1.78208e-08 1.45529e-08)
(1.0918e-08 -2.60054e-08 2.1673e-08)
(1.40751e-08 -3.4143e-08 2.92546e-08)
(1.71659e-08 -4.24809e-08 3.76726e-08)
(2.02975e-08 -5.12104e-08 4.72828e-08)
(2.35902e-08 -6.04678e-08 5.84318e-08)
(2.71873e-08 -7.03377e-08 7.14643e-08)
(3.12659e-08 -8.08541e-08 8.67257e-08)
(3.60505e-08 -9.19965e-08 1.04555e-07)
(4.18292e-08 -1.03671e-07 1.25263e-07)
(4.8956e-08 -1.15652e-07 1.4908e-07)
(5.77719e-08 -1.27387e-07 1.75974e-07)
(6.8337e-08 -1.37494e-07 2.05096e-07)
(7.89417e-08 -1.4296e-07 2.3173e-07)
(9.63579e-08 -1.29475e-07 2.60092e-07)
(0 0 0)
(4.47437e-09 -9.99744e-09 8.28148e-09)
(8.50655e-09 -1.92102e-08 1.60869e-08)
(1.22242e-08 -2.80674e-08 2.39254e-08)
(1.57425e-08 -3.69169e-08 3.22363e-08)
(1.91739e-08 -4.60457e-08 4.14196e-08)
(2.26372e-08 -5.56884e-08 5.18527e-08)
(2.62669e-08 -6.60349e-08 6.39018e-08)
(3.02282e-08 -7.72421e-08 7.7934e-08)
(3.47337e-08 -8.94501e-08 9.43266e-08)
(4.00737e-08 -1.02803e-07 1.13476e-07)
(4.66683e-08 -1.17482e-07 1.35812e-07)
(5.51499e-08 -1.3375e-07 1.61832e-07)
(6.64564e-08 -1.51977e-07 1.92078e-07)
(8.18179e-08 -1.72455e-07 2.26866e-07)
(1.0026e-07 -1.9294e-07 2.62251e-07)
(1.36146e-07 -2.17386e-07 3.10622e-07)
(0 0 0)
(4.88114e-09 -1.03548e-08 8.90946e-09)
(9.27498e-09 -1.99133e-08 1.7291e-08)
(1.33151e-08 -2.91332e-08 2.56757e-08)
(1.71217e-08 -3.83893e-08 3.45187e-08)
(2.08116e-08 -4.79962e-08 4.42296e-08)
(2.45078e-08 -5.82198e-08 5.51894e-08)
(2.83497e-08 -6.92881e-08 6.77623e-08)
(3.2509e-08 -8.14068e-08 8.23089e-08)
(3.72091e-08 -9.47805e-08 9.91962e-08)
(4.27595e-08 -1.09642e-07 1.1881e-07)
(4.9616e-08 -1.26302e-07 1.41582e-07)
(5.84716e-08 -1.45229e-07 1.68033e-07)
(7.03622e-08 -1.67149e-07 1.98817e-07)
(8.66435e-08 -1.93053e-07 2.3463e-07)
(1.05847e-07 -2.20538e-07 2.71439e-07)
(1.6275e-07 -2.78559e-07 3.41731e-07)
(0 0 0)
(0 0 0)
(0 0 0)
(0 0 0)
(0 0 0)
(0 0 0)
(0 0 0)
(0 0 0)
(0 0 0)
(0 0 0)
(0 0 0)
(0 0 0)
(0 0 0)
(0 0 0)
(0 0 0)
(0 0 0)
(1.2167e-08 2.58392e-08 1.32304e-08)
(0 0 0)
(7.26746e-10 -1.91078e-09 1.39865e-09)
(1.3807e-09 -3.65888e-09 2.7218e-09)
(1.98181e-09 -5.31636e-09 4.06151e-09)
(2.54712e-09 -6.93698e-09 5.49823e-09)
(3.09142e-09 -8.55416e-09 7.10457e-09)
(3.62827e-09 -1.0179e-08 8.94768e-09)
(4.17158e-09 -1.17956e-08 1.10899e-08)
(4.73868e-09 -1.33507e-08 1.35873e-08)
(5.35806e-09 -1.47335e-08 1.64875e-08)
(6.08904e-09 -1.57409e-08 1.98256e-08)
(7.06736e-09 -1.60114e-08 2.36234e-08)
(8.6112e-09 -1.48847e-08 2.79034e-08)
(1.14207e-08 -1.11141e-08 3.27522e-08)
(1.67947e-08 -2.47861e-09 3.8413e-08)
(2.55294e-08 1.26449e-08 4.46777e-08)
(3.43125e-08 3.29343e-08 4.78031e-08)
(0 0 0)
(1.44149e-09 -3.76414e-09 2.7617e-09)
(2.73882e-09 -7.21055e-09 5.37409e-09)
(3.93166e-09 -1.04823e-08 8.01802e-09)
(5.05389e-09 -1.36861e-08 1.08507e-08)
(6.13524e-09 -1.6892e-08 1.40147e-08)
(7.20314e-09 -2.01296e-08 1.76426e-08)
(8.28469e-09 -2.33792e-08 2.18572e-08)
(9.41071e-09 -2.65552e-08 2.67686e-08)
(1.06254e-08 -2.94759e-08 3.24677e-08)
(1.20093e-08 -3.18179e-08 3.90117e-08)
(1.37305e-08 -3.30482e-08 4.64006e-08)
(1.61571e-08 -3.23314e-08 5.4546e-08)
(2.00143e-08 -2.85108e-08 6.32457e-08)
(2.64105e-08 -2.05433e-08 7.21024e-08)
(3.54204e-08 -9.79877e-09 7.99588e-08)
(4.49065e-08 -4.43128e-09 8.68819e-08)
(0 0 0)
(2.1328e-09 -5.5028e-09 4.05619e-09)
(4.0528e-09 -1.05468e-08 7.8921e-09)
(5.81901e-09 -1.53442e-08 1.17712e-08)
(7.48203e-09 -2.00557e-08 1.5922e-08)
(9.08716e-09 -2.4793e-08 2.05527e-08)
(1.06765e-08 -2.96149e-08 2.58573e-08)
(1.22908e-08 -3.45177e-08 3.20167e-08)
(1.39726e-08 -3.94168e-08 3.91952e-08)
(1.5771e-08 -4.41171e-08 4.75288e-08)
(1.77528e-08 -4.8273e-08 5.71002e-08)
(2.00302e-08 -5.13388e-08 6.78883e-08)
(2.28172e-08 -5.25461e-08 7.96897e-08)
(2.65005e-08 -5.10587e-08 9.20171e-08)
(3.16586e-08 -4.66168e-08 1.03961e-07)
(3.82426e-08 -4.10659e-08 1.13823e-07)
(4.38024e-08 -3.9319e-08 1.20796e-07)
(0 0 0)
(2.78905e-09 -7.06919e-09 5.25193e-09)
(5.30031e-09 -1.35571e-08 1.02159e-08)
(7.61136e-09 -1.97429e-08 1.52295e-08)
(9.78946e-09 -2.58414e-08 2.05847e-08)
(1.1896e-08 -3.20107e-08 2.65482e-08)
(1.39893e-08 -3.83502e-08 3.33699e-08)
(1.61267e-08 -4.48918e-08 4.12848e-08)
(1.83659e-08 -5.1586e-08 5.05107e-08)
(2.07644e-08 -5.82788e-08 6.12355e-08)
(2.33749e-08 -6.4679e-08 7.35855e-08)
(2.6238e-08 -7.03128e-08 8.75574e-08)
(2.93635e-08 -7.44948e-08 1.02904e-07)
(3.26947e-08 -7.64029e-08 1.18946e-07)
(3.61248e-08 -7.54561e-08 1.34268e-07)
(3.94549e-08 -7.24148e-08 1.46272e-07)
(4.14839e-08 -7.11588e-08 1.53369e-07)
(0 0 0)
(3.39898e-09 -8.4078e-09 6.32388e-09)
(6.45939e-09 -1.61343e-08 1.22955e-08)
(9.27603e-09 -2.35209e-08 1.83153e-08)
(1.19322e-08 -3.08358e-08 2.47296e-08)
(1.45055e-08 -3.82859e-08 3.1854e-08)
(1.7072e-08 -4.60182e-08 3.99856e-08)
(1.97096e-08 -5.41156e-08 4.94065e-08)
(2.25001e-08 -6.25902e-08 6.03844e-08)
(2.55279e-08 -7.13715e-08 7.31643e-08)
(2.88697e-08 -8.02832e-08 8.79388e-08)
(3.25695e-08 -8.89988e-08 1.04786e-07)
(3.65715e-08 -9.69629e-08 1.23545e-07)
(4.05779e-08 -1.03256e-07 1.43569e-07)
(4.39016e-08 -1.06444e-07 1.63213e-07)
(4.56514e-08 -1.05246e-07 1.78902e-07)
(4.45017e-08 -1.02671e-07 1.87822e-07)
(0 0 0)
(3.95182e-09 -9.46594e-09 7.25256e-09)
(7.50894e-09 -1.81765e-08 1.40918e-08)
(1.07812e-08 -2.65281e-08 2.09688e-08)
(1.38661e-08 -3.48377e-08 2.82721e-08)
(1.68563e-08 -4.33589e-08 3.63551e-08)
(1.98455e-08 -5.22877e-08 4.55495e-08)
(2.29341e-08 -6.17638e-08 5.61728e-08)
(2.62358e-08 -7.18742e-08 6.85327e-08)
(2.98819e-08 -8.26547e-08 8.29255e-08)
(3.40235e-08 -9.40877e-08 9.96196e-08)
(3.88274e-08 -1.06083e-07 1.18819e-07)
(4.44394e-08 -1.18415e-07 1.40579e-07)
(5.08557e-08 -1.30518e-07 1.64591e-07)
(5.76096e-08 -1.40941e-07 1.89548e-07)
(6.3071e-08 -1.4671e-07 2.11292e-07)
(6.0278e-08 -1.40996e-07 2.25825e-07)
(0 0 0)
(4.43793e-09 -1.01964e-08 8.02474e-09)
(8.43023e-09 -1.95927e-08 1.55795e-08)
(1.20984e-08 -2.86294e-08 2.31513e-08)
(1.55508e-08 -3.76632e-08 3.1158e-08)
(1.88921e-08 -4.69873e-08 3.99769e-08)
(2.223e-08 -5.68407e-08 4.99597e-08)
(2.56843e-08 -6.74147e-08 6.1442e-08)
(2.9398e-08 -7.88651e-08 7.47519e-08)
(3.35516e-08 -9.13273e-08 9.02145e-08)
(3.83854e-08 -1.04937e-07 1.08149e-07)
(4.42401e-08 -1.1986e-07 1.28863e-07)
(5.16196e-08 -1.3633e-07 1.5264e-07)
(6.12722e-08 -1.54665e-07 1.79645e-07)
(7.41676e-08 -1.75023e-07 2.09467e-07)
(8.97802e-08 -1.95454e-07 2.38483e-07)
(1.02219e-07 -2.13614e-07 2.61961e-07)
(0 0 0)
(4.84991e-09 -1.05608e-08 8.63467e-09)
(9.20928e-09 -2.03094e-08 1.67483e-08)
(1.32066e-08 -2.97151e-08 2.4849e-08)
(1.69568e-08 -3.91617e-08 3.33696e-08)
(2.05706e-08 -4.89701e-08 4.26964e-08)
(2.41634e-08 -5.94097e-08 5.31845e-08)
(2.78646e-08 -7.07088e-08 6.51676e-08)
(3.18315e-08 -8.30691e-08 7.89673e-08)
(3.62683e-08 -9.6686e-08 9.48993e-08)
(4.14571e-08 -1.11776e-07 1.13273e-07)
(4.78127e-08 -1.2862e-07 1.34393e-07)
(5.59709e-08 -1.47637e-07 1.58565e-07)
(6.69071e-08 -1.69462e-07 1.86049e-07)
(8.19425e-08 -1.94859e-07 2.16749e-07)
(1.00213e-07 -2.21628e-07 2.46837e-07)
(1.36093e-07 -2.62233e-07 2.82395e-07)
(0 0 0)
(0 0 0)
(0 0 0)
(0 0 0)
(0 0 0)
(0 0 0)
(0 0 0)
(0 0 0)
(0 0 0)
(0 0 0)
(0 0 0)
(0 0 0)
(0 0 0)
(0 0 0)
(0 0 0)
(0 0 0)
(-1.0875e-09 8.33742e-09 2.70116e-09)
(0 0 0)
(7.10964e-10 -1.94433e-09 1.30238e-09)
(1.34788e-09 -3.72346e-09 2.53321e-09)
(1.9275e-09 -5.41103e-09 3.77692e-09)
(2.46299e-09 -7.06248e-09 5.10676e-09)
(2.96396e-09 -8.71358e-09 6.58809e-09)
(3.43626e-09 -1.03785e-08 8.27968e-09)
(3.88167e-09 -1.20469e-08 1.02337e-08)
(4.29757e-09 -1.36763e-08 1.24928e-08)
(4.67807e-09 -1.51783e-08 1.50839e-08)
(5.0193e-09 -1.63989e-08 1.80054e-08)
(5.33408e-09 -1.70872e-08 2.12029e-08)
(5.67652e-09 -1.68435e-08 2.45247e-08)
(6.14749e-09 -1.50551e-08 2.76333e-08)
(6.75056e-09 -1.09661e-08 2.98031e-08)
(6.8866e-09 -4.80272e-09 2.9728e-08)
(2.32622e-09 9.41342e-10 2.00613e-08)
(0 0 0)
(1.41118e-09 -3.82957e-09 2.57147e-09)
(2.67585e-09 -7.3362e-09 5.00132e-09)
(3.82762e-09 -1.06663e-08 7.45564e-09)
(4.89319e-09 -1.39301e-08 1.00778e-08)
(5.89256e-09 -1.72015e-08 1.29961e-08)
(6.83874e-09 -2.05151e-08 1.63263e-08)
(7.73655e-09 -2.38602e-08 2.01715e-08)
(8.58077e-09 -2.71688e-08 2.46167e-08)
(9.35475e-09 -3.0295e-08 2.9715e-08)
(1.00324e-08 -3.29912e-08 3.54609e-08)
(1.05884e-08 -3.48831e-08 4.17367e-08)
(1.10168e-08 -3.54722e-08 4.8216e-08)
(1.13242e-08 -3.42677e-08 5.41933e-08)
(1.13942e-08 -3.13034e-08 5.83178e-08)
(1.06985e-08 -2.82447e-08 5.87965e-08)
(6.3374e-09 -3.07302e-08 5.10635e-08)
(0 0 0)
(2.09041e-09 -5.59745e-09 3.77679e-09)
(3.96483e-09 -1.07282e-08 7.34465e-09)
(5.67399e-09 -1.56097e-08 1.09458e-08)
(7.25883e-09 -2.04071e-08 1.47887e-08)
(8.75142e-09 -2.52366e-08 1.906e-08)
(1.01746e-08 -3.01629e-08 2.393e-08)
(1.15401e-08 -3.51915e-08 2.95514e-08)
(1.28435e-08 -4.02562e-08 3.60525e-08)
(1.40571e-08 -4.5199e-08 4.35184e-08)
(1.51191e-08 -4.97502e-08 5.19525e-08)
(1.59189e-08 -5.35192e-08 6.12004e-08)
(1.62752e-08 -5.60456e-08 7.08193e-08)
(1.58982e-08 -5.70395e-08 7.98719e-08)
(1.43593e-08 -5.69698e-08 8.66868e-08)
(1.13818e-08 -5.75318e-08 8.92251e-08)
(3.93291e-09 -6.15722e-08 8.30102e-08)
(0 0 0)
(2.7379e-09 -7.18959e-09 4.89048e-09)
(5.19431e-09 -1.37876e-08 9.50797e-09)
(7.43708e-09 -2.00794e-08 1.41628e-08)
(9.52222e-09 -2.62854e-08 1.91212e-08)
(1.14959e-08 -3.25679e-08 2.46226e-08)
(1.33948e-08 -3.90309e-08 3.08862e-08)
(1.52434e-08 -4.57134e-08 3.81115e-08)
(1.70481e-08 -5.25793e-08 4.64709e-08)
(1.87831e-08 -5.95017e-08 5.60895e-08)
(2.03647e-08 -6.62452e-08 6.7e-08)
(2.1603e-08 -7.24523e-08 7.90542e-08)
(2.21154e-08 -7.76709e-08 9.17687e-08)
(2.12088e-08 -8.15115e-08 1.04072e-07)
(1.78998e-08 -8.40512e-08 1.13987e-07)
(1.19446e-08 -8.62035e-08 1.18897e-07)
(1.153e-09 -9.06654e-08 1.13836e-07)
(0 0 0)
(3.34279e-09 -8.54957e-09 5.88933e-09)
(6.34312e-09 -1.64055e-08 1.14448e-08)
(9.08542e-09 -2.39162e-08 1.70346e-08)
(1.16411e-08 -3.13552e-08 2.29743e-08)
(1.40722e-08 -3.89332e-08 2.95473e-08)
(1.64325e-08 -4.67997e-08 3.70145e-08)
(1.87673e-08 -5.50399e-08 4.56161e-08)
(2.11074e-08 -6.36706e-08 5.55658e-08)
(2.34552e-08 -7.26309e-08 6.70333e-08)
(2.57532e-08 -8.17673e-08 8.00998e-08)
(2.78179e-08 -9.08059e-08 9.46695e-08)
(2.91988e-08 -9.93114e-08 1.10305e-07)
(2.8946e-08 -1.0664e-07 1.25926e-07)
(2.54598e-08 -1.11949e-07 1.39359e-07)
(1.77908e-08 -1.14622e-07 1.47308e-07)
(3.51155e-09 -1.17855e-07 1.44139e-07)
(0 0 0)
(3.89427e-09 -9.62413e-09 6.75521e-09)
(7.39004e-09 -1.84789e-08 1.3119e-08)
(1.05868e-08 -2.6968e-08 1.95057e-08)
(1.35707e-08 -3.54136e-08 2.62695e-08)
(1.64192e-08 -4.40719e-08 3.37275e-08)
(1.92056e-08 -5.31386e-08 4.21718e-08)
(2.20001e-08 -6.27507e-08 5.18727e-08)
(2.48698e-08 -7.29894e-08 6.30765e-08)
(2.78717e-08 -8.38805e-08 7.59922e-08)
(3.1034e-08 -9.53908e-08 9.07542e-08)
(3.43078e-08 -1.07407e-07 1.07345e-07)
(3.74462e-08 -1.19674e-07 1.25438e-07)
(3.97454e-08 -1.31623e-07 1.44071e-07)
(3.96431e-08 -1.4198e-07 1.6103e-07)
(3.51795e-08 -1.48427e-07 1.7233e-07)
(1.85584e-08 -1.46361e-07 1.72073e-07)
(0 0 0)
(4.38228e-09 -1.03656e-08 7.4758e-09)
(8.31538e-09 -1.9916e-08 1.45065e-08)
(1.19112e-08 -2.9099e-08 2.15398e-08)
(1.52676e-08 -3.82761e-08 2.89562e-08)
(1.84758e-08 -4.77418e-08 3.70946e-08)
(2.16258e-08 -5.77323e-08 4.62645e-08)
(2.48115e-08 -6.84318e-08 5.67519e-08)
(2.81367e-08 -7.9981e-08 6.88192e-08)
(3.17194e-08 -9.24882e-08 8.26959e-08)
(3.56953e-08 -1.06041e-07 9.85491e-08)
(4.0216e-08 -1.20715e-07 1.1642e-07)
(4.54203e-08 -1.3657e-07 1.3609e-07)
(5.13454e-08 -1.53585e-07 1.56753e-07)
(5.76523e-08 -1.7131e-07 1.7626e-07)
(6.28894e-08 -1.87399e-07 1.8996e-07)
(6.01574e-08 -1.99669e-07 1.89058e-07)
(0 0 0)
(4.79869e-09 -1.0735e-08 8.04558e-09)
(9.10366e-09 -2.06424e-08 1.5598e-08)
(1.30349e-08 -3.01985e-08 2.31241e-08)
(1.66981e-08 -3.97913e-08 3.10181e-08)
(2.01929e-08 -4.9742e-08 3.96271e-08)
(2.36202e-08 -6.03157e-08 4.9264e-08)
(2.70886e-08 -7.17301e-08 6.02127e-08)
(3.07247e-08 -8.41662e-08 7.273e-08)
(3.46839e-08 -9.77818e-08 8.70364e-08)
(3.91673e-08 -1.12727e-07 1.03289e-07)
(4.44414e-08 -1.2916e-07 1.21524e-07)
(5.08532e-08 -1.47259e-07 1.41542e-07)
(5.88091e-08 -1.67185e-07 1.62615e-07)
(6.85729e-08 -1.88792e-07 1.82847e-07)
(7.87265e-08 -2.0922e-07 1.9758e-07)
(9.61596e-08 -2.33881e-07 1.94395e-07)
(0 0 0)
(0 0 0)
(0 0 0)
(0 0 0)
(0 0 0)
(0 0 0)
(0 0 0)
(0 0 0)
(0 0 0)
(0 0 0)
(0 0 0)
(0 0 0)
(0 0 0)
(0 0 0)
(0 0 0)
(0 0 0)
(-6.15497e-09 1.35759e-09 2.60521e-09)
(0 0 0)
(6.93011e-10 -1.97227e-09 1.15944e-09)
(1.31074e-09 -3.77702e-09 2.2542e-09)
(1.86642e-09 -5.48936e-09 3.3585e-09)
(2.36902e-09 -7.16625e-09 4.53608e-09)
(2.82249e-09 -8.84541e-09 5.84266e-09)
(3.22448e-09 -1.05441e-08 7.32672e-09)
(3.56429e-09 -1.22575e-08 9.029e-09)
(3.81943e-09 -1.39547e-08 1.09785e-08)
(3.95093e-09 -1.55713e-08 1.31837e-08)
(3.89748e-09 -1.70026e-08 1.56159e-08)
(3.56804e-09 -1.80995e-08 1.81781e-08)
(2.82414e-09 -1.86712e-08 2.06492e-08)
(1.42079e-09 -1.85114e-08 2.25906e-08)
(-1.11036e-09 -1.74954e-08 2.32337e-08)
(-5.15687e-09 -1.58862e-08 2.17468e-08)
(-1.08423e-08 -1.27892e-08 1.69583e-08)
(0 0 0)
(1.37667e-09 -3.88409e-09 2.28933e-09)
(2.60452e-09 -7.44061e-09 4.45067e-09)
(3.71047e-09 -1.08187e-08 6.63e-09)
(4.7133e-09 -1.41314e-08 8.95206e-09)
(5.62237e-09 -1.74557e-08 1.15261e-08)
(6.43545e-09 -2.08312e-08 1.44479e-08)
(7.13446e-09 -2.42564e-08 1.77985e-08)
(7.67838e-09 -2.76815e-08 2.16362e-08)
(7.99262e-09 -3.0998e-08 2.598e-08)
(7.95542e-09 -3.40327e-08 3.07776e-08)
(7.38227e-09 -3.65558e-08 3.5847e-08)
(6.0073e-09 -3.8331e-08 4.07783e-08)
(3.46893e-09 -3.92663e-08 4.47958e-08)
(-5.99154e-10 -3.97098e-08 4.66794e-08)
(-5.81031e-09 -4.05379e-08 4.54635e-08)
(-1.04285e-08 -4.37323e-08 4.28093e-08)
(0 0 0)
(2.04197e-09 -5.6763e-09 3.36274e-09)
(3.86481e-09 -1.08789e-08 6.53669e-09)
(5.51e-09 -1.58289e-08 9.73466e-09)
(7.00765e-09 -2.06949e-08 1.31379e-08)
(8.37543e-09 -2.55968e-08 1.69055e-08)
(9.61584e-09 -3.06041e-08 2.11787e-08)
(1.07104e-08 -3.57315e-08 2.6078e-08)
(1.16086e-08 -4.09307e-08 3.16933e-08)
(1.22107e-08 -4.60808e-08 3.80616e-08)
(1.23414e-08 -5.09841e-08 4.51251e-08)
(1.17158e-08 -5.53849e-08 5.26554e-08)
(9.90081e-09 -5.90497e-08 6.01381e-08)
(6.32398e-09 -6.19851e-08 6.66412e-08)
(5.43429e-10 -6.47686e-08 7.08077e-08)
(-6.55457e-09 -6.82446e-08 7.16285e-08)
(-1.3188e-08 -7.30551e-08 7.0985e-08)
(0 0 0)
(2.67903e-09 -7.28965e-09 4.35502e-09)
(5.0729e-09 -1.39784e-08 8.46337e-09)
(7.23844e-09 -2.03558e-08 1.25975e-08)
(9.2189e-09 -2.66457e-08 1.69889e-08)
(1.10438e-08 -3.30134e-08 2.18417e-08)
(1.27265e-08 -3.95661e-08 2.73381e-08)
(1.42578e-08 -4.63483e-08 3.36362e-08)
(1.5593e-08 -5.33348e-08 4.08587e-08)
(1.66289e-08 -6.04227e-08 4.90687e-08)
(1.71644e-08 -6.74249e-08 5.82218e-08)
(1.68389e-08 -7.40753e-08 6.80813e-08)
(1.50428e-08 -8.00784e-08 7.80946e-08)
(1.08756e-08 -8.52573e-08 8.72532e-08)
(3.48064e-09 -8.97991e-08 9.40727e-08)
(-6.15877e-09 -9.4085e-08 9.72237e-08)
(-1.54725e-08 -9.90662e-08 9.83758e-08)
(0 0 0)
(3.27742e-09 -8.66698e-09 5.24548e-09)
(6.20848e-09 -1.66289e-08 1.01893e-08)
(8.86565e-09 -2.42384e-08 1.51545e-08)
(1.13068e-08 -3.17721e-08 2.04154e-08)
(1.35763e-08 -3.94421e-08 2.62138e-08)
(1.57042e-08 -4.73977e-08 3.27669e-08)
(1.77012e-08 -5.57237e-08 4.02652e-08)
(1.9547e-08 -6.44363e-08 4.88622e-08)
(2.11673e-08 -7.3477e-08 5.86504e-08)
(2.23907e-08 -8.27022e-08 6.96111e-08)
(2.28683e-08 -9.18631e-08 8.15267e-08)
(2.19345e-08 -1.00579e-07 9.38465e-08)
(1.8452e-08 -1.08309e-07 1.05521e-07)
(1.09807e-08 -1.14333e-07 1.14927e-07)
(-1.71934e-10 -1.17919e-07 1.20357e-07)
(-1.25521e-08 -1.2067e-07 1.23395e-07)
(0 0 0)
(3.8263e-09 -9.75452e-09 6.01793e-09)
(7.25024e-09 -1.87266e-08 1.1682e-08)
(1.03593e-08 -2.73239e-08 1.7356e-08)
(1.32258e-08 -3.58707e-08 2.33475e-08)
(1.59107e-08 -4.46227e-08 2.99275e-08)
(1.84639e-08 -5.37719e-08 3.73389e-08)
(2.09232e-08 -6.34475e-08 4.57963e-08)
(2.33079e-08 -7.3717e-08 5.54765e-08)
(2.56033e-08 -8.45846e-08 6.64962e-08)
(2.77304e-08 -9.5983e-08 7.88627e-08)
(2.94804e-08 -1.07746e-07 9.23833e-08)
(3.03849e-08 -1.19537e-07 1.06517e-07)
(2.95145e-08 -1.30693e-07 1.20161e-07)
(2.53871e-08 -1.39892e-07 1.31466e-07)
(1.72983e-08 -1.45014e-07 1.38258e-07)
(2.97404e-09 -1.40783e-07 1.4274e-07)
(0 0 0)
(4.31519e-09 -1.05042e-08 6.66128e-09)
(8.17763e-09 -2.01792e-08 1.29203e-08)
(1.16876e-08 -2.94759e-08 1.91698e-08)
(1.49303e-08 -3.87572e-08 2.57406e-08)
(1.79813e-08 -4.83152e-08 3.29221e-08)
(2.09099e-08 -5.8379e-08 4.09722e-08)
(2.37813e-08 -6.91184e-08 5.01174e-08)
(2.66567e-08 -8.06493e-08 6.0545e-08)
(2.95908e-08 -9.3038e-08 7.23822e-08)
(3.26229e-08 -1.06301e-07 8.5647e-08)
(3.57537e-08 -1.20391e-07 1.00156e-07)
(3.88928e-08 -1.3516e-07 1.15361e-07)
(4.17841e-08 -1.50255e-07 1.30065e-07)
(4.39647e-08 -1.64827e-07 1.42046e-07)
(4.49828e-08 -1.76728e-07 1.48327e-07)
(4.38485e-08 -1.84004e-07 1.5017e-07)
(0 0 0)
(4.7353e-09 -1.08771e-08 7.17055e-09)
(8.9737e-09 -2.0912e-08 1.38955e-08)
(1.28245e-08 -3.05839e-08 2.05844e-08)
(1.63822e-08 -4.0281e-08 2.758e-08)
(1.97328e-08 -5.03209e-08 3.5179e-08)
(2.29593e-08 -6.0959e-08 4.36422e-08)
(2.61463e-08 -7.23947e-08 5.31945e-08)
(2.93848e-08 -8.4777e-08 6.40177e-08)
(3.27779e-08 -9.82098e-08 7.62296e-08)
(3.64454e-08 -1.12753e-07 8.98361e-08)
(4.05248e-08 -1.28411e-07 1.04639e-07)
(4.51579e-08 -1.45105e-07 1.20078e-07)
(5.04638e-08 -1.62589e-07 1.34943e-07)
(5.64843e-08 -1.8022e-07 1.47004e-07)
(6.25612e-08 -1.95503e-07 1.53076e-07)
(7.77597e-08 -2.14375e-07 1.48896e-07)
(0 0 0)
(0 0 0)
(0 0 0)
(0 0 0)
(0 0 0)
(0 0 0)
(0 0 0)
(0 0 0)
(0 0 0)
(0 0 0)
(0 0 0)
(0 0 0)
(0 0 0)
(0 0 0)
(0 0 0)
(0 0 0)
(-7.8644e-09 -9.00245e-10 3.2691e-09)
(0 0 0)
(6.74844e-10 -1.9944e-09 9.76073e-10)
(1.27329e-09 -3.81932e-09 1.89703e-09)
(1.80514e-09 -5.55105e-09 2.82464e-09)
(2.27538e-09 -7.24779e-09 3.81141e-09)
(2.68266e-09 -8.94867e-09 4.90212e-09)
(3.01739e-09 -1.06732e-08 6.13444e-09)
(3.25852e-09 -1.24213e-08 7.53824e-09)
(3.36842e-09 -1.41711e-08 9.13153e-09)
(3.28536e-09 -1.58762e-08 1.09119e-08)
(2.91405e-09 -1.74655e-08 1.28424e-08)
(2.11458e-09 -1.88497e-08 1.48282e-08)
(6.8417e-10 -1.99345e-08 1.66843e-08)
(-1.6735e-09 -2.06365e-08 1.81088e-08)
(-5.34055e-09 -2.08697e-08 1.87233e-08)
(-1.01947e-08 -2.04795e-08 1.83586e-08)
(-1.5332e-08 -1.73019e-08 1.63648e-08)
(0 0 0)
(1.34172e-09 -3.92745e-09 1.92752e-09)
(2.53253e-09 -7.52339e-09 3.74599e-09)
(3.5928e-09 -1.09389e-08 5.57685e-09)
(4.53369e-09 -1.42892e-08 7.5227e-09)
(5.35468e-09 -1.76535e-08 9.67134e-09)
(6.04006e-09 -2.1075e-08 1.20975e-08)
(6.55281e-09 -2.45596e-08 1.48609e-08)
(6.82466e-09 -2.80714e-08 1.79982e-08)
(6.7418e-09 -3.15295e-08 2.15075e-08)
(6.12801e-09 -3.48099e-08 2.53215e-08)
(4.73029e-09 -3.77648e-08 2.92656e-08)
(2.21869e-09 -4.02703e-08 3.30033e-08)
(-1.744e-09 -4.2318e-08 3.60014e-08)
(-7.18081e-09 -4.40962e-08 3.76311e-08)
(-1.28267e-08 -4.57626e-08 3.77067e-08)
(-1.61003e-08 -4.8157e-08 3.75814e-08)
(0 0 0)
(1.99279e-09 -5.73917e-09 2.8318e-09)
(3.76359e-09 -1.09986e-08 5.50276e-09)
(5.34476e-09 -1.60016e-08 8.18976e-09)
(6.75593e-09 -2.09193e-08 1.10416e-08)
(8.00138e-09 -2.58738e-08 1.41865e-08)
(9.06561e-09 -3.0938e-08 1.77348e-08)
(9.90517e-09 -3.61332e-08 2.17758e-08)
(1.04348e-08 -4.14241e-08 2.63673e-08)
(1.05068e-08 -4.67146e-08 3.1515e-08)
(9.88539e-09 -5.18517e-08 3.71382e-08)
(8.22151e-09 -5.66492e-08 4.30174e-08)
(5.05385e-09 -6.09572e-08 4.87367e-08)
(-6.21284e-11 -6.48073e-08 5.36717e-08)
(-7.04337e-09 -6.85569e-08 5.71556e-08)
(-1.40579e-08 -7.24521e-08 5.89877e-08)
(-1.86642e-08 -7.66297e-08 6.04661e-08)
(0 0 0)
(2.619e-09 -7.3694e-09 3.66823e-09)
(4.94946e-09 -1.41297e-08 7.12624e-09)
(7.03724e-09 -2.05726e-08 1.06003e-08)
(8.91321e-09 -2.6924e-08 1.42804e-08)
(1.05913e-08 -3.33507e-08 1.8331e-08)
(1.20642e-08 -3.99612e-08 2.28949e-08)
(1.32946e-08 -4.68023e-08 2.80898e-08)
(1.41998e-08 -5.38547e-08 3.39956e-08)
(1.46263e-08 -6.10277e-08 4.06322e-08)
(1.43148e-08 -6.8157e-08 4.79198e-08)
(1.28536e-08 -7.50123e-08 5.56222e-08)
(9.64327e-09 -8.13346e-08 6.32881e-08)
(3.99032e-09 -8.69361e-08 7.0252e-08)
(-4.33385e-09 -9.18308e-08 7.58052e-08)
(-1.34189e-08 -9.60316e-08 7.95433e-08)
(-2.02432e-08 -1.00192e-07 8.25363e-08)
(0 0 0)
(3.21032e-09 -8.76031e-09 4.41932e-09)
(6.07065e-09 -1.68053e-08 8.58136e-09)
(8.64145e-09 -2.44894e-08 1.27544e-08)
(1.09672e-08 -3.20904e-08 1.71633e-08)
(1.30759e-08 -3.98201e-08 2.20033e-08)
(1.49761e-08 -4.78258e-08 2.74449e-08)
(1.66496e-08 -5.6188e-08 3.36296e-08)
(1.80378e-08 -6.49174e-08 4.0658e-08)
(1.90181e-08 -7.39482e-08 4.85655e-08)
(1.93646e-08 -8.31274e-08 5.72802e-08)
(1.86877e-08 -9.2193e-08 6.65595e-08)
(1.63522e-08 -1.00741e-07 7.59255e-08)
(1.14622e-08 -1.08178e-07 8.46609e-08)
(3.25425e-09 -1.1368e-07 9.19711e-08)
(-7.0311e-09 -1.16409e-07 9.7258e-08)
(-1.65859e-08 -1.17788e-07 1.01567e-07)
(0 0 0)
(3.7559e-09 -9.85769e-09 5.07128e-09)
(7.10582e-09 -1.8921e-08 9.84073e-09)
(1.01249e-08 -2.75988e-08 1.46101e-08)
(1.28722e-08 -3.62154e-08 1.96318e-08)
(1.53922e-08 -4.5024e-08 2.51248e-08)
(1.7714e-08 -5.42104e-08 3.12797e-08)
(1.9848e-08 -6.38925e-08 3.82555e-08)
(2.17769e-08 -7.41194e-08 4.61676e-08)
(2.34411e-08 -8.48666e-08 5.50622e-08)
(2.47106e-08 -9.60219e-08 6.48713e-08)
(2.53379e-08 -1.07351e-07 7.53401e-08)
(2.488e-08 -1.1842e-07 8.59426e-08)
(2.26331e-08 -1.28449e-07 9.58426e-08)
(1.77776e-08 -1.36043e-07 1.04031e-07)
(1.0585e-08 -1.39309e-07 1.09723e-07)
(-6.36841e-10 -1.33407e-07 1.14564e-07)
(0 0 0)
(4.2449e-09 -1.06134e-08 5.6147e-09)
(8.03366e-09 -2.03844e-08 1.08862e-08)
(1.14546e-08 -2.97648e-08 1.61403e-08)
(1.45801e-08 -3.91158e-08 2.16485e-08)
(1.74707e-08 -4.87252e-08 2.76448e-08)
(2.01763e-08 -5.88121e-08 3.43315e-08)
(2.2737e-08 -6.95288e-08 4.18761e-08)
(2.51815e-08 -8.09622e-08 5.03992e-08)
(2.75232e-08 -9.31317e-08 5.99484e-08)
(2.9754e-08 -1.0598e-07 7.04495e-08)
(3.18318e-08 -1.19346e-07 8.16228e-08)
(3.36691e-08 -1.32921e-07 9.28702e-08)
(3.51713e-08 -1.46162e-07 1.0317e-07)
(3.64287e-08 -1.58147e-07 1.11114e-07)
(3.79475e-08 -1.67265e-07 1.15491e-07)
(3.94738e-08 -1.72596e-07 1.18096e-07)
(0 0 0)
(4.66793e-09 -1.09884e-08 6.04532e-09)
(8.83592e-09 -2.1121e-08 1.17105e-08)
(1.26022e-08 -3.08771e-08 1.73352e-08)
(1.60495e-08 -4.06423e-08 2.3201e-08)
(1.92505e-08 -5.07281e-08 2.95478e-08)
(2.22711e-08 -6.13777e-08 3.65805e-08)
(2.51744e-08 -7.27688e-08 4.44651e-08)
(2.8023e-08 -8.50149e-08 5.33165e-08)
(3.08842e-08 -9.81634e-08 6.3173e-08)
(3.38352e-08 -1.12186e-07 7.39442e-08)
(3.69697e-08 -1.26957e-07 8.53249e-08)
(4.04108e-08 -1.42218e-07 9.66695e-08)
(4.4364e-08 -1.5753e-07 1.06864e-07)
(4.9238e-08 -1.72217e-07 1.14318e-07)
(5.51264e-08 -1.84535e-07 1.17565e-07)
(7.23417e-08 -2.01455e-07 1.15169e-07)
(0 0 0)
(0 0 0)
(0 0 0)
(0 0 0)
(0 0 0)
(0 0 0)
(0 0 0)
(0 0 0)
(0 0 0)
(0 0 0)
(0 0 0)
(0 0 0)
(0 0 0)
(0 0 0)
(0 0 0)
(0 0 0)
(-8.28543e-09 -1.47031e-09 3.0418e-09)
(0 0 0)
(6.58375e-10 -2.01078e-09 7.59865e-10)
(1.23944e-09 -3.85042e-09 1.47635e-09)
(1.75002e-09 -5.5965e-09 2.19719e-09)
(2.19169e-09 -7.308e-09 2.96253e-09)
(2.55883e-09 -9.02447e-09 3.80563e-09)
(2.83636e-09 -1.0767e-08 4.75372e-09)
(2.99618e-09 -1.25384e-08 5.82733e-09)
(2.99176e-09 -1.43228e-08 7.03694e-09)
(2.75096e-09 -1.60835e-08 8.37652e-09)
(2.16892e-09 -1.77656e-08 9.81416e-09)
(1.10169e-09 -1.93016e-08 1.12798e-08)
(-6.3953e-10 -2.06175e-08 1.26537e-08)
(-3.2939e-09 -2.16219e-08 1.37723e-08)
(-7.10604e-09 -2.2133e-08 1.44883e-08)
(-1.17816e-08 -2.17829e-08 1.4767e-08)
(-1.62826e-08 -1.81864e-08 1.37627e-08)
(0 0 0)
(1.31002e-09 -3.9598e-09 1.50081e-09)
(2.46741e-09 -7.58504e-09 2.9159e-09)
(3.4868e-09 -1.10283e-08 4.33894e-09)
(4.37288e-09 -1.44058e-08 5.8481e-09)
(5.11715e-09 -1.77981e-08 7.50879e-09)
(5.69367e-09 -2.12504e-08 9.37528e-09)
(6.05257e-09 -2.47732e-08 1.14888e-08)
(6.10973e-09 -2.8339e-08 1.38708e-08)
(5.73436e-09 -3.18813e-08 1.65117e-08)
(4.73765e-09 -3.52981e-08 1.93526e-08)
(2.87091e-09 -3.84674e-08 2.22641e-08)
(-1.46316e-10 -4.12768e-08 2.50237e-08)
(-4.50549e-09 -4.36635e-08 2.73261e-08)
(-9.94033e-09 -4.56111e-08 2.88765e-08)
(-1.49476e-08 -4.69927e-08 2.95863e-08)
(-1.70063e-08 -4.85146e-08 2.99547e-08)
(0 0 0)
(1.9481e-09 -5.78649e-09 2.20538e-09)
(3.67184e-09 -1.10883e-08 4.28441e-09)
(5.19556e-09 -1.61303e-08 6.37323e-09)
(6.52995e-09 -2.10845e-08 8.58503e-09)
(7.66844e-09 -2.60741e-08 1.10155e-08)
(8.58194e-09 -3.1174e-08 1.37451e-08)
(9.21006e-09 -3.64085e-08 1.68357e-08)
(9.44776e-09 -4.1749e-08 2.03219e-08)
(9.12825e-09 -4.71104e-08 2.41955e-08)
(8.00646e-09 -5.23557e-08 2.83834e-08)
(5.75494e-09 -5.73128e-08 3.27211e-08)
(2.00638e-09 -6.1821e-08 3.693e-08)
(-3.45698e-09 -6.58276e-08 4.06502e-08)
(-1.01719e-08 -6.94749e-08 4.35712e-08)
(-1.61176e-08 -7.28208e-08 4.55643e-08)
(-1.91201e-08 -7.61044e-08 4.69751e-08)
(0 0 0)
(2.5643e-09 -7.42967e-09 2.85752e-09)
(4.83722e-09 -1.42433e-08 5.54982e-09)
(6.8549e-09 -2.07337e-08 8.25082e-09)
(8.63766e-09 -2.71272e-08 1.11049e-08)
(1.01868e-08 -3.35909e-08 1.42352e-08)
(1.14792e-08 -4.02331e-08 1.7746e-08)
(1.24588e-08 -4.71002e-08 2.17188e-08)
(1.30215e-08 -5.41729e-08 2.6202e-08)
(1.29958e-08 -6.13615e-08 3.11934e-08)
(1.21195e-08 -6.8502e-08 3.66154e-08)
(1.00204e-08 -7.53561e-08 4.22838e-08)
(6.23011e-09 -8.16329e-08 4.78879e-08)
(3.39694e-10 -8.70568e-08 5.30408e-08)
(-7.45188e-09 -9.14787e-08 5.74093e-08)
(-1.51166e-08 -9.48581e-08 6.07142e-08)
(-2.00688e-08 -9.8024e-08 6.31135e-08)
(0 0 0)
(3.14891e-09 -8.83082e-09 3.44348e-09)
(5.94473e-09 -1.69375e-08 6.68461e-09)
(8.43727e-09 -2.46748e-08 9.92939e-09)
(1.06596e-08 -3.23203e-08 1.33489e-08)
(1.26261e-08 -4.00844e-08 1.70893e-08)
(1.4329e-08 -4.81109e-08 2.12751e-08)
(1.57307e-08 -5.64743e-08 2.60043e-08)
(1.67518e-08 -6.51762e-08 3.13377e-08)
(1.72532e-08 -7.4137e-08 3.72793e-08)
(1.70117e-08 -8.31823e-08 4.37491e-08)
(1.56881e-08 -9.20163e-08 5.0544e-08)
(1.27981e-08 -1.00182e-07 5.73165e-08)
(7.76089e-09 -1.07008e-07 6.36294e-08)