/*--------------------------------*- C++ -*----------------------------------*\
| =========                 |                                                 |
| \\      /  F ield         | OpenFOAM: The Open Source CFD Toolbox           |
|  \\    /   O peration     | Version:  v1912                                 |
|   \\  /    A nd           | Website:  www.openfoam.com                      |
|    \\/     M anipulation  |                                                 |
\*---------------------------------------------------------------------------*/
FoamFile
{
    version     2.0;
    format      ascii;
    class       volScalarField;
    location    "0.31/fluid";
    object      T;
}
// * * * * * * * * * * * * * * * * * * * * * * * * * * * * * * * * * * * * * //

dimensions      [0 0 0 1 0 0 0];


internalField   nonuniform List<scalar> 
14592
(
273.133
273.408
273.71
274.05
274.445
274.909
275.459
276.111
276.886
277.802
278.883
280.154
281.645
283.402
285.505
288.156
273.131
273.404
273.703
274.04
274.432
274.891
275.436
276.083
276.851
277.76
278.834
280.099
281.586
283.341
285.446
288.09
273.129
273.398
273.691
274.023
274.408
274.86
275.396
276.032
276.788
277.684
278.744
279.996
281.473
283.225
285.339
288.01
273.127
273.389
273.676
274
274.376
274.817
275.34
275.961
276.699
277.575
278.614
279.843
281.303
283.048
285.173
287.891
273.123
273.378
273.657
273.972
274.336
274.763
275.269
275.87
276.585
277.434
278.441
279.638
281.068
282.793
284.926
287.708
273.119
273.365
273.634
273.938
274.289
274.7
275.186
275.763
276.448
277.261
278.227
279.377
280.757
282.439
284.559
287.408
273.114
273.351
273.609
273.9
274.236
274.628
275.092
275.64
276.29
277.06
277.973
279.059
280.363
281.961
284.008
286.879
273.109
273.336
273.583
273.86
274.179
274.552
274.99
275.507
276.117
276.837
277.686
278.69
279.886
281.34
283.194
285.847
273.139
273.427
273.742
274.1
274.515
275.004
275.585
276.277
277.101
278.08
279.238
280.605
282.215
284.117
286.384
289.15
273.137
273.423
273.735
274.089
274.501
274.985
275.561
276.247
277.064
278.036
279.187
280.547
282.154
284.056
286.328
289.096
273.135
273.416
273.723
274.072
274.476
274.953
275.519
276.194
276.998
277.956
279.093
280.44
282.038
283.939
286.225
289.026
273.132
273.407
273.707
274.047
274.442
274.907
275.46
276.119
276.905
277.841
278.955
280.281
281.862
283.759
286.063
288.921
273.129
273.395
273.687
274.017
274.4
274.851
275.386
276.024
276.785
277.692
278.774
280.066
281.617
283.498
285.819
288.754
273.124
273.382
273.663
273.982
274.35
274.784
275.298
275.91
276.639
277.509
278.547
279.79
281.291
283.13
285.447
288.472
273.119
273.367
273.637
273.942
274.295
274.709
275.198
275.78
276.472
277.296
278.278
279.452
280.872
282.625
284.875
287.949
273.114
273.351
273.609
273.9
274.235
274.628
275.091
275.639
276.289
277.059
277.971
279.057
280.361
281.959
284.006
286.878
273.144
273.444
273.773
274.146
274.579
275.091
275.701
276.428
277.295
278.326
279.547
280.987
282.678
284.656
286.965
289.645
273.143
273.44
273.765
274.135
274.565
275.072
275.676
276.397
277.257
278.28
279.494
280.928
282.615
284.595
286.91
289.598
273.141
273.433
273.753
274.116
274.539
275.038
275.632
276.341
277.188
278.197
279.396
280.817
282.496
284.477
286.809
289.532
273.138
273.423
273.736
274.091
274.504
274.991
275.57
276.263
277.09
278.078
279.254
280.653
282.316
284.294
286.648
289.431
273.134
273.411
273.715
274.059
274.459
274.931
275.493
276.163
276.965
277.922
279.065
280.429
282.063
284.028
286.403
289.269
273.129
273.397
273.69
274.022
274.408
274.861
275.401
276.044
276.812
277.73
278.828
280.142
281.724
283.65
286.027
288.991
273.124
273.381
273.663
273.981
274.349
274.783
275.296
275.908
276.637
277.507
278.545
279.788
281.288
283.128
285.444
288.47
273.119
273.365
273.634
273.937
274.287
274.698
275.183
275.76
276.444
277.257
278.223
279.372
280.752
282.435
284.555
287.406
273.149
273.459
273.8
274.186
274.636
275.168
275.802
276.559
277.461
278.534
279.803
281.295
283.034
285.044
287.34
289.914
273.148
273.455
273.792
274.175
274.621
275.148
275.776
276.526
277.422
278.488
279.749
281.234
282.97
284.983
287.286
289.868
273.146
273.448
273.779
274.156
274.594
275.113
275.73
276.469
277.351
278.402
279.649
281.121
282.849
284.864
287.185
289.804
273.142
273.438
273.762
274.13
274.558
275.064
275.667
276.388
277.25
278.278
279.501
280.952
282.665
284.679
287.025
289.704
273.138
273.425
273.74
274.097
274.512
275.002
275.586
276.284
277.119
278.117
279.306
280.722
282.406
284.409
286.779
289.543
273.134
273.411
273.714
274.058
274.458
274.93
275.491
276.161
276.962
277.918
279.061
280.425
282.059
284.024
286.4
289.267
273.128
273.394
273.686
274.016
274.398
274.848
275.382
276.019
276.78
277.686
278.768
280.06
281.61
283.491
285.813
288.751
273.123
273.377
273.655
273.97
274.333
274.76
275.265
275.865
276.579
277.427
278.433
279.63
281.059
282.785
284.919
287.703
273.153
273.472
273.822
274.22
274.684
275.232
275.886
276.666
277.597
278.702
280.005
281.53
283.297
285.315
287.583
290.07
273.152
273.468
273.814
274.209
274.668
275.211
275.859
276.633
277.557
278.654
279.95
281.469
283.232
285.253
287.529
290.025
273.15
273.46
273.801
274.189
274.641
275.175
275.812
276.574
277.484
278.566
279.847
281.353
283.11
285.134
287.428
289.961
273.146
273.45
273.783
274.162
274.603
275.125
275.747
276.491
277.38
278.439
279.697
281.181
282.923
284.947
287.268
289.862
273.142
273.437
273.761
274.128
274.556
275.061
275.664
276.384
277.246
278.273
279.496
280.946
282.66
284.674
287.02
289.701
273.137
273.422
273.734
274.089
274.5
274.987
275.565
276.257
277.083
278.07
279.245
280.643
282.306
284.285
286.641
289.426
273.132
273.405
273.705
274.045
274.438
274.902
275.454
276.111
276.896
277.831
278.944
280.269
281.85
283.747
286.053
288.914
273.126
273.388
273.674
273.997
274.371
274.811
275.332
275.952
276.689
277.564
278.601
279.83
281.289
283.034
285.161
287.883
273.157
273.482
273.84
274.247
274.721
275.282
275.95
276.748
277.699
278.827
280.154
281.7
283.48
285.497
287.737
290.163
273.155
273.478
273.832
274.235
274.705
275.26
275.923
276.715
277.658
278.778
280.097
281.638
283.415
285.435
287.684
290.118
273.153
273.47
273.818
274.215
274.677
275.223
275.875
276.654
277.584
278.689
279.993
281.521
283.291
285.314
287.583
290.055
273.149
273.459
273.8
274.187
274.638
275.172
275.808
276.569
277.478
278.559
279.84
281.346
283.102
285.126
287.421
289.956
273.145
273.446
273.777
274.153
274.59
275.107
275.723
276.46
277.341
278.391
279.636
281.108
282.836
284.851
287.174
289.795
273.14
273.431
273.75
274.112
274.533
275.031
275.623
276.33
277.175
278.183
279.381
280.801
282.479
284.46
286.793
289.521
273.135
273.414
273.72
274.067
274.47
274.944
275.509
276.181
276.984
277.94
279.075
280.421
282.018
283.92
286.207
289.013
273.129
273.396
273.688
274.019
274.401
274.851
275.385
276.019
276.773
277.667
278.725
279.975
281.451
283.204
285.319
287.994
273.159
273.489
273.852
274.265
274.746
275.315
275.994
276.803
277.768
278.91
280.251
281.809
283.595
285.608
287.829
290.216
273.157
273.484
273.844
274.253
274.729
275.294
275.966
276.769
277.726
278.86
280.194
281.746
283.53
285.546
287.775
290.172
273.155
273.477
273.83
274.232
274.701
275.256
275.918
276.708
277.651
278.77
280.089
281.628
283.405
285.425
287.674
290.108
273.151
273.466
273.811
274.204
274.662
275.204
275.85
276.622
277.544
278.639
279.934
281.452
283.215
285.236
287.513
290.009
273.147
273.453
273.788
274.169
274.613
275.138
275.764
276.512
277.405
278.468
279.728
281.212
282.948
284.96
287.265
289.849
273.142
273.437
273.761
274.128
274.556
275.06
275.662
276.38
277.237
278.258
279.47
280.902
282.588
284.568
286.884
289.576
273.137
273.42
273.73
274.082
274.491
274.973
275.546
276.229
277.043
278.012
279.16
280.519
282.125
284.026
286.299
289.071
273.131
273.401
273.698
274.033
274.422
274.878
275.42
276.064
276.829
277.736
278.807
280.069
281.555
283.31
285.414
288.06
273.16
273.493
273.858
274.274
274.759
275.332
276.015
276.831
277.802
278.951
280.299
281.862
283.651
285.661
287.872
290.241
273.159
273.488
273.85
274.262
274.742
275.31
275.988
276.797
277.76
278.901
280.242
281.799
283.586
285.599
287.818
290.197
273.156
273.48
273.836
274.241
274.713
275.272
275.939
276.735
277.685
278.81
280.136
281.681
283.461
285.478
287.717
290.133
273.153
273.469
273.817
274.213
274.674
275.22
275.871
276.648
277.577
278.679
279.98
281.504
283.27
285.289
287.555
290.034
273.148
273.456
273.794
274.178
274.625
275.154
275.784
276.538
277.437
278.507
279.774
281.263
283.001
285.012
287.307
289.874
273.143
273.44
273.766
274.136
274.567
275.076
275.681
276.405
277.268
278.296
279.514
280.952
282.641
284.619
286.927
289.601
273.138
273.423
273.736
274.09
274.502
274.987
275.565
276.253
277.073
278.048
279.203
280.567
282.176
284.077
286.342
289.097
273.132
273.404
273.703
274.041
274.432
274.892
275.438
276.087
276.857
277.77
278.848
280.116
281.605
283.361
285.459
288.09
273.098
273.3
273.518
273.76
274.033
274.342
274.694
275.094
275.543
276.039
276.576
277.144
277.725
278.293
278.818
279.262
273.097
273.297
273.514
273.754
274.024
274.33
274.68
275.076
275.521
276.013
276.546
277.109
277.685
278.249
278.77
279.212
273.096
273.293
273.506
273.742
274.008
274.31
274.653
275.043
275.481
275.964
276.489
277.043
277.61
278.166
278.679
279.115
273.094
273.287
273.495
273.726
273.986
274.281
274.616
274.997
275.424
275.896
276.407
276.948
277.502
278.044
278.546
278.973
273.091
273.279
273.482
273.706
273.958
274.245
274.57
274.939
275.352
275.809
276.304
276.827
277.362
277.887
278.373
278.786
273.088
273.27
273.466
273.683
273.926
274.202
274.516
274.87
275.267
275.705
276.18
276.682
277.194
277.697
278.162
278.559
273.085
273.26
273.449
273.657
273.891
274.155
274.455
274.793
275.172
275.589
276.041
276.517
277.003
277.48
277.92
278.296
273.081
273.249
273.43
273.629
273.853
274.105
274.39
274.711
275.07
275.464
275.89
276.338
276.795
277.241
277.653
278.005
273.099
273.303
273.524
273.77
274.046
274.361
274.72
275.129
275.589
276.1
276.657
277.248
277.857
278.457
279.015
279.491
273.098
273.301
273.52
273.763
274.037
274.349
274.705
275.11
275.566
276.073
276.625
277.211
277.815
278.411
278.965
279.439
273.097
273.296
273.512
273.751
274.02
274.327
274.678
275.076
275.525
276.023
276.566
277.143
277.738
278.325
278.871
279.339
273.095
273.29
273.501
273.734
273.998
274.298
274.64
275.029
275.467
275.953
276.483
277.046
277.626
278.2
278.735
279.193
273.092
273.282
273.487
273.714
273.97
274.261
274.593
274.97
275.393
275.864
276.376
276.921
277.483
278.038
278.556
279
273.089
273.273
273.471
273.69
273.937
274.218
274.537
274.9
275.307
275.758
276.249
276.772
277.309
277.841
278.337
278.763
273.086
273.263
273.453
273.664
273.901
274.17
274.475
274.821
275.209
275.639
276.106
276.601
277.111
277.614
278.084
278.487
273.082
273.252
273.435
273.636
273.863
274.119
274.409
274.737
275.105
275.511
275.95
276.416
276.894
277.365
277.803
278.179
273.101
273.311
273.537
273.789
274.074
274.4
274.773
275.2
275.683
276.224
276.818
277.457
278.122
278.787
279.414
279.956
273.1
273.308
273.532
273.782
274.064
274.387
274.757
275.18
275.659
276.195
276.785
277.418
278.078
278.738
279.362
279.902
273.099
273.303
273.524
273.769
274.047
274.365
274.729
275.145
275.616
276.143
276.723
277.346
277.996
278.648
279.264
279.798
273.097
273.296
273.513
273.753
274.024
274.334
274.69
275.096
275.555
276.07
276.635
277.244
277.879
278.516
279.12
279.644
273.094
273.288
273.498
273.732
273.995
274.296
274.641
275.034
275.479
275.976
276.524
277.112
277.727
278.344
278.93
279.439
273.091
273.279
273.482
273.707
273.962
274.252
274.583
274.961
275.388
275.866
276.39
276.954
277.543
278.134
278.695
279.183
273.088
273.269
273.464
273.68
273.924
274.202
274.519
274.879
275.286
275.74
276.238
276.773
277.33
277.889
278.418
278.88
273.084
273.258
273.445
273.652
273.884
274.149
274.45
274.792
275.177
275.605
276.073
276.575
277.095
277.616
278.109
278.538
273.105
273.321
273.556
273.818
274.116
274.457
274.851
275.304
275.821
276.406
277.056
277.764
278.514
279.28
280.018
280.669
273.104
273.318
273.551
273.811
274.105
274.444
274.834
275.283
275.796
276.375
277.02
277.722
278.468
279.229
279.964
280.613
273.102
273.313
273.542
273.798
274.088
274.421
274.804
275.246
275.75
276.32
276.954
277.646
278.381
279.133
279.86
280.504
273.1
273.307
273.531
273.78
274.063
274.389
274.763
275.194
275.686
276.242
276.861
277.537
278.256
278.992
279.707
280.34
273.097
273.298
273.516
273.758
274.033
274.349
274.712
275.129
275.605
276.143
276.742
277.396
278.092
278.807
279.501
280.119
273.094
273.289
273.499
273.733
273.998
274.302
274.651
275.052
275.509
276.024
276.598
277.224
277.891
278.576
279.242
279.836
273.091
273.278
273.48
273.705
273.959
274.25
274.583
274.965
275.4
275.89
276.434
277.027
277.657
278.303
278.932
279.492
273.087
273.266
273.46
273.675
273.917
274.194
274.511
274.872
275.283
275.745
276.255
276.81
277.396
277.996
278.577
279.094
273.109
273.335
273.581
273.856
274.169
274.531
274.95
275.437
275.997
276.637
277.358
278.158
279.023
279.929
280.828
281.645
273.108
273.332
273.576
273.848
274.158
274.517
274.932
275.414
275.97
276.604
277.32
278.113
278.973
279.875
280.771
281.587
273.107
273.327
273.566
273.834
274.139
274.492
274.901
275.375
275.921
276.545
277.25
278.032
278.881
279.773
280.662
281.474
273.104
273.32
273.554
273.816
274.114
274.458
274.857
275.319
275.852
276.462
277.15
277.914
278.746
279.622
280.499
281.302
273.101
273.311
273.539
273.793
274.082
274.416
274.802
275.25
275.766
276.355
277.021
277.761
278.568
279.42
280.275
281.063
273.098
273.301
273.521
273.766
274.045
274.366
274.738
275.168
275.663
276.227
276.865
277.574
278.347
279.164
279.987
280.748
273.094
273.289
273.501
273.736
274.004
274.311
274.666
275.075
275.546
276.082
276.686
277.356
278.085
278.855
279.631
280.35
273.09
273.277
273.48
273.704
273.959
274.252
274.588
274.976
275.419
275.923
276.488
277.113
277.79
278.501
279.213
279.871
273.115
273.352
273.61
273.9
274.232
274.617
275.066
275.591
276.202
276.906
277.712
278.621
279.628
280.714
281.836
282.901
273.114
273.348
273.604
273.891
274.22
274.602
275.047
275.567
276.173
276.872
277.671
278.574
279.576
280.658
281.777
282.843
273.112
273.343
273.595
273.877
274.2
274.576
275.014
275.525
276.12
276.808
277.596
278.487
279.477
280.551
281.665
282.729
273.109
273.335
273.581
273.857
274.173
274.54
274.967
275.466
276.047
276.719
277.488
278.36
279.332
280.39
281.493
282.553
273.106
273.326
273.565
273.833
274.139
274.495
274.909
275.392
275.954
276.604
277.349
278.194
279.138
280.17
281.253
282.301
273.103
273.315
273.546
273.805
274.1
274.442
274.84
275.304
275.842
276.465
277.179
277.988
278.894
279.886
280.933
281.954
273.099
273.303
273.525
273.773
274.056
274.383
274.762
275.204
275.716
276.306
276.981
277.746
278.6
279.535
280.522
281.491
273.095
273.29
273.503
273.739
274.009
274.319
274.679
275.097
275.579
276.133
276.763
277.473
278.262
279.121
280.022
280.901
273.12
273.37
273.642
273.948
274.301
274.711
275.194
275.761
276.425
277.201
278.099
279.13
280.299
281.602
283.014
284.45
273.119
273.366
273.636
273.939
274.288
274.695
275.173
275.735
276.394
277.164
278.055
279.08
280.243
281.543
282.955
284.392
273.117
273.36
273.626
273.924
274.267
274.668
275.138
275.69
276.339
277.096
277.975
278.987
280.139
281.432
282.841
284.283
273.115
273.353
273.612
273.903
274.239
274.629
275.088
275.627
276.26
277
277.859
278.851
279.985
281.263
282.666
284.112
273.112
273.343
273.595
273.878
274.203
274.581
275.025
275.547
276.16
276.876
277.708
278.671
279.775
281.028
282.415
283.86
273.108
273.331
273.575
273.847
274.161
274.525
274.952
275.453
276.04
276.726
277.523
278.446
279.507
280.716
282.067
283.495
273.104
273.319
273.552
273.814
274.114
274.462
274.869
275.346
275.903
276.553
277.307
278.177
279.177
280.318
281.599
282.968
273.099
273.305
273.528
273.778
274.064
274.394
274.78
275.23
275.754
276.363
277.065
277.872
278.793
279.835
280.996
282.231
273.126
273.389
273.676
273.999
274.373
274.81
275.326
275.937
276.657
277.505
278.497
279.652
280.989
282.529
284.29
286.265
273.125
273.385
273.669
273.99
274.36
274.793
275.305
275.91
276.624
277.465
278.451
279.599
280.932
282.469
284.231
286.207
273.123
273.379
273.658
273.974
274.338
274.764
275.267
275.862
276.565
277.393
278.365
279.501
280.823
282.355
284.12
286.108
273.121
273.371
273.644
273.952
274.307
274.723
275.214
275.795
276.481
277.29
278.242
279.357
280.66
282.18
283.947
285.958
273.117
273.36
273.625
273.924
274.269
274.672
275.147
275.709
276.374
277.157
278.08
279.163
280.436
281.933
283.694
285.729
273.113
273.348
273.604
273.893
274.224
274.612
275.069
275.608
276.245
276.996
277.879
278.919
280.145
281.598
283.33
285.376
273.109
273.335
273.581
273.857
274.175
274.545
274.98
275.493
276.097
276.808
277.644
278.625
279.781
281.156
282.811
284.814
273.104
273.32
273.555
273.819
274.121
274.473
274.885
275.368
275.936
276.601
277.379
278.287
279.349
280.6
282.095
283.907
273.104
273.32
273.555
273.819
274.121
274.472
274.884
275.367
275.935
276.6
277.378
278.285
279.347
280.599
282.094
283.906
273.099
273.305
273.528
273.778
274.063
274.393
274.778
275.228
275.752
276.361
277.063
277.87
278.791
279.833
280.993
282.229
273.095
273.29
273.502
273.739
274.008
274.318
274.678
275.095
275.577
276.13
276.76
277.47
278.259
279.118
280.019
280.898
273.09
273.277
273.479
273.704
273.958
274.25
274.586
274.973
275.417
275.92
276.485
277.11
277.786
278.497
279.21
279.868
273.087
273.266
273.459
273.674
273.916
274.192
274.509
274.87
275.28
275.741
276.252
276.806
277.393
277.992
278.573
279.091
273.084
273.257
273.444
273.651
273.883
274.147
274.448
274.789
275.174
275.602
276.07
276.571
277.091
277.612
278.105
278.534
273.082
273.251
273.434
273.635
273.861
274.117
274.407
274.735
275.102
275.507
275.947
276.412
276.89
277.361
277.799
278.175
273.081
273.249
273.429
273.628
273.851
274.103
274.388
274.708
275.067
275.461
275.886
276.334
276.791
277.237
277.65
278.001
273.109
273.334
273.58
273.856
274.174
274.544
274.979
275.491
276.095
276.806
277.641
278.622
279.778
281.152
282.808
284.812
273.104
273.318
273.551
273.813
274.112
274.46
274.867
275.343
275.9
276.549
277.303
278.173
279.173
280.314
281.595
282.965
273.099
273.303
273.524
273.772
274.054
274.381
274.76
275.201
275.713
276.302
276.977
277.741
278.595
279.53
280.518
281.487
273.094
273.289
273.5
273.735
274.002
274.309
274.663
275.072
275.542
276.077
276.681
277.351
278.08
278.85
279.626
280.345
273.09
273.277
273.479
273.703
273.957
274.247
274.58
274.962
275.396
275.886
276.429
277.022
277.651
278.298
278.926
279.488
273.088
273.268
273.463
273.679
273.922
274.199
274.516
274.876
275.282
275.736
276.233
276.767
277.324
277.883
278.413
278.875
273.086
273.262
273.452
273.663
273.899
274.167
274.472
274.818
275.205
275.634
276.101
276.596
277.105
277.608
278.078
278.482
273.085
273.259
273.448
273.655
273.889
274.152
274.452
274.79
275.168
275.584
276.035
276.511
276.997
277.474
277.915
278.291
273.113
273.348
273.603
273.891
274.223
274.61
275.066
275.604
276.24
276.991
277.874
278.913
280.139
281.592
283.324
285.372
273.108
273.331
273.573
273.846
274.158
274.522
274.948
275.448
276.035
276.72
277.517
278.439
279.5
280.709
282.061
283.489
273.103
273.315
273.545
273.803
274.098
274.439
274.836
275.299
275.837
276.459
277.172
277.981
278.886
279.879
280.926
281.948
273.098
273.3
273.519
273.764
274.042
274.363
274.734
275.163
275.657
276.221
276.858
277.566
278.339
279.156
279.979
280.741
273.094
273.288
273.498
273.731
273.995
274.298
274.647
275.047
275.503
276.018
276.591
277.217
277.883
278.568
279.234
279.829
273.091
273.278
273.481
273.705
273.959
274.248
274.579
274.956
275.382
275.859
276.383
276.946
277.535
278.126
278.687
279.177
273.089
273.272
273.47
273.688
273.935
274.215
274.533
274.894
275.301
275.751
276.242
276.764
277.301
277.833
278.33
278.756
273.088
273.269
273.465
273.681
273.923
274.199
274.511
274.865
275.261
275.699
276.173
276.674
277.186
277.689
278.155
278.552
273.117
273.359
273.624
273.922
274.266
274.668
275.142
275.703
276.366
277.149
278.071
279.154
280.426
281.924
283.685
285.722
273.111
273.342
273.593
273.875
274.199
274.577
275.02
275.541
276.152
276.867
277.699
278.661
279.765
281.017
282.405
283.851
273.106
273.325
273.563
273.83
274.136
274.49
274.903
275.385
275.946
276.594
277.339
278.183
279.127
280.159
281.242
282.291
273.101
273.31
273.537
273.79
274.079
274.411
274.797
275.243
275.758
276.346
277.011
277.751
278.557
279.409
280.265
281.053
273.097
273.297
273.514
273.756
274.03
274.344
274.706
275.122
275.597
276.133
276.731
277.385
278.081
278.796
279.49
280.109
273.094
273.287
273.497
273.729
273.992
274.292
274.635
275.027
275.471
275.967
276.514
277.102
277.716
278.333
278.919
279.43
273.092
273.281
273.485
273.711
273.966
274.256
274.587
274.963
275.385
275.855
276.366
276.91
277.472
278.027
278.546
278.991
273.091
273.278
273.48
273.703
273.955
274.24
274.564
274.932
275.344
275.799
276.294
276.816
277.351
277.876
278.363
278.778
273.12
273.369
273.641
273.948
274.302
274.717
275.206
275.785
276.47
277.278
278.228
279.342
280.645
282.165
283.933
285.946
273.114
273.351
273.609
273.9
274.234
274.623
275.08
275.617
276.249
276.987
277.845
278.836
279.969
281.247
282.651
284.098
273.109
273.334
273.579
273.854
274.168
274.533
274.959
275.456
276.036
276.706
277.474
278.345
279.317
280.374
281.478
282.539
273.104
273.318
273.552
273.812
274.109
274.452
274.849
275.31
275.841
276.449
277.136
277.899
278.731
279.607
280.484
281.288
273.1
273.305
273.528
273.776
274.058
274.382
274.755
275.184
275.675
276.229
276.847
277.522
278.24
278.977
279.692
280.327
273.096
273.295
273.51
273.749
274.019
274.328
274.682
275.086
275.544
276.057
276.622
277.229
277.864
278.502
279.106
279.632
273.094
273.288
273.498
273.731
273.993
274.292
274.632
275.02
275.456
275.941
276.469
277.032
277.612
278.186
278.721
279.181
273.093
273.285
273.493
273.722
273.981
274.275
274.609
274.988
275.413
275.884
276.394
276.934
277.487
278.03
278.533
278.961
273.123
273.377
273.655
273.968
274.331
274.755
275.255
275.848
276.549
277.375
278.345
279.48
280.801
282.333
284.098
286.089
273.117
273.359
273.622
273.919
274.26
274.658
275.126
275.676
276.323
277.078
277.955
278.965
280.117
281.41
282.82
284.262
273.111
273.341
273.591
273.872
274.193
274.566
275.002
275.512
276.104
276.79
277.576
278.466
279.455
280.529
281.643
282.709
273.106
273.325
273.563
273.829
274.133
274.483
274.89
275.361
275.905
276.528
277.23
278.011
278.86
279.752
280.642
281.455
273.102
273.312
273.539
273.793
274.081
274.412
274.794
275.233
275.735
276.303
276.935
277.626
278.36
279.113
279.841
280.486
273.098
273.301
273.521
273.765
274.041
274.356
274.718
275.132
275.601
276.127
276.705
277.327
277.977
278.628
279.245
279.781
273.096
273.294
273.508
273.746
274.014
274.319
274.668
275.064
275.511
276.007
276.549
277.125
277.719
278.306
278.854
279.324
273.095
273.291
273.503
273.737
274.001
274.302
274.644
275.031
275.467
275.949
276.472
277.025
277.592
278.147
278.662
279.101
273.124
273.382
273.664
273.982
274.35
274.78
275.289
275.891
276.602
277.44
278.423
279.57
280.901
282.438
284.2
286.175
273.118
273.364
273.631
273.932
274.278
274.683
275.158
275.716
276.372
277.139
278.028
279.05
280.213
281.513
282.925
284.363
273.113
273.346
273.599
273.884
274.21
274.589
275.032
275.549
276.151
276.847
277.644
278.545
279.546
280.628
281.749
282.816
273.107
273.33
273.571
273.841
274.149
274.504
274.917
275.396
275.949
276.581
277.294
278.086
278.945
279.846
280.744
281.562
273.103
273.316
273.547
273.804
274.096
274.432
274.82
275.266
275.776
276.352
276.995
277.696
278.44
279.202
279.938
280.59
273.1
273.305
273.528
273.775
274.055
274.376
274.743
275.164
275.64
276.174
276.761
277.393
278.052
278.713
279.338
279.881
273.097
273.298
273.515
273.756
274.028
274.338
274.692
275.094
275.548
276.052
276.602
277.188
277.791
278.387
278.943
279.419
273.096
273.295
273.51
273.748
274.015
274.32
274.667
275.061
275.503
275.993
276.524
277.086
277.662
278.226
278.749
279.194
273.125
273.385
273.669
273.989
274.36
274.793
275.306
275.912
276.629
277.472
278.461
279.614
280.95
282.488
284.248
286.216
273.119
273.366
273.635
273.939
274.288
274.695
275.173
275.736
276.397
277.169
278.064
279.092
280.26
281.563
282.975
284.411
273.113
273.348
273.604
273.89
274.219
274.601
275.047
275.568
276.174
276.876
277.678
278.585
279.591
280.677
281.8
282.867
273.108
273.332
273.575
273.847
274.157
274.515
274.931
275.414
275.971
276.607
277.326
278.123
278.987
279.893
280.794
281.614
273.104
273.318
273.55
273.809
274.104
274.442
274.833
275.282
275.796
276.378
277.025
277.731
278.48
279.246
279.986
280.641
273.1
273.307
273.531
273.781
274.063
274.386
274.756
275.179
275.66
276.197
276.789
277.426
278.09
278.755
279.384
279.93
273.098
273.3
273.519
273.761
274.035
274.348
274.704
275.11
275.567
276.075
276.63
277.219
277.827
278.427
278.987
279.467
273.097
273.297
273.513
273.753
274.023
274.329
274.679
275.076
275.522
276.015
276.551
277.117
277.697
278.266
278.792
279.24
273.078
273.239
273.411
273.601
273.814
274.053
274.323
274.627
274.964
275.335
275.734
276.152
276.577
276.991
277.373
277.697
273.074
273.228
273.393
273.574
273.775
274.002
274.257
274.543
274.86
275.206
275.578
275.966
276.359
276.74
277.09
277.387
273.071
273.218
273.375
273.547
273.739
273.954
274.195
274.463
274.761
275.084
275.429
275.788
276.15
276.499
276.819
277.09
273.068
273.209
273.359
273.524
273.706
273.91
274.138
274.392
274.67
274.973
275.294
275.626
275.96
276.281
276.573
276.819
273.066
273.201
273.346
273.504
273.679
273.873
274.09
274.33
274.594
274.878
275.179
275.488
275.797
276.093
276.362
276.588
273.064
273.195
273.335
273.488
273.657
273.844
274.053
274.283
274.534
274.804
275.088
275.38
275.67
275.946
276.196
276.406
273.063
273.191
273.328
273.478
273.643
273.825
274.027
274.25
274.493
274.753
275.026
275.306
275.583
275.846
276.083
276.281
273.062
273.189
273.325
273.473
273.636
273.816
274.015
274.234
274.473
274.728
274.996
275.269
275.539
275.795
276.026
276.218
273.079
273.241
273.415
273.608
273.823
274.066
274.341
274.651
274.997
275.377
275.789
276.223
276.667
277.102
277.506
277.852
273.075
273.23
273.397
273.58
273.784
274.014
274.274
274.565
274.89
275.245
275.628
276.029
276.438
276.838
277.207
277.522
273.072
273.22
273.379
273.553
273.747
273.965
274.21
274.484
274.788
275.119
275.474
275.844
276.22
276.585
276.92
277.205
273.069
273.211
273.363
273.529
273.714
273.921
274.152
274.41
274.695
275.004
275.334
275.676
276.021
276.354
276.659
276.917
273.066
273.203
273.349
273.509
273.686
273.883
274.103
274.348
274.616
274.907
275.215
275.533
275.852
276.158
276.436
276.672
273.064
273.197
273.338
273.493
273.664
273.854
274.065
274.299
274.555
274.83
275.121
275.42
275.718
276.003
276.262
276.479
273.063
273.193
273.332
273.483
273.649
273.834
274.04
274.266
274.513
274.779
275.058
275.344
275.628
275.898
276.142
276.347
273.063
273.191
273.328
273.478
273.643
273.825
274.027
274.25
274.493
274.753
275.026
275.306
275.583
275.846
276.083
276.281
273.08
273.246
273.425
273.622
273.844
274.094
274.379
274.702
275.063
275.464
275.901
276.367
276.849
277.328
277.779
278.17
273.077
273.235
273.405
273.593
273.803
274.04
274.309
274.612
274.951
275.324
275.729
276.159
276.6
277.036
277.445
277.797
273.073
273.225
273.387
273.566
273.765
273.989
274.243
274.527
274.843
275.191
275.565
275.959
276.362
276.757
277.124
277.439
273.07
273.215
273.37
273.541
273.731
273.943
274.183
274.45
274.746
275.069
275.416
275.778
276.146
276.503
276.833
277.114
273.068
273.207
273.356
273.52
273.701
273.904
274.131
274.384
274.663
274.966
275.288
275.624
275.961
276.287
276.586
276.839
273.066
273.201
273.346
273.504
273.679
273.874
274.092
274.333
274.598
274.885
275.189
275.503
275.817
276.118
276.393
276.625
273.064
273.197
273.338
273.493
273.664
273.854
274.065
274.299
274.555
274.83
275.121
275.42
275.718
276.003
276.262
276.479
273.064
273.195
273.335
273.488
273.657
273.844
274.053
274.282
274.534
274.804
275.088
275.38
275.67
275.946
276.196
276.406
273.083
273.254
273.439
273.644
273.874
274.136
274.436
274.777
275.162
275.593
276.068
276.58
277.12
277.667
278.194
278.659
273.079
273.243
273.419
273.613
273.832
274.08
274.362
274.681
275.041
275.441
275.88
276.35
276.84
277.334
277.803
278.215
273.076
273.232
273.4
273.585
273.792
274.026
274.291
274.591
274.926
275.297
275.7
276.129
276.572
277.014
277.429
277.79
273.073
273.222
273.382
273.559
273.756
273.977
274.228
274.508
274.821
275.165
275.536
275.928
276.329
276.724
277.092
277.408
273.07
273.214
273.368
273.537
273.725
273.936
274.173
274.439
274.732
275.053
275.397
275.757
276.122
276.478
276.807
277.087
273.068
273.207
273.356
273.52
273.701
273.904
274.131
274.384
274.663
274.966
275.288
275.623
275.961
276.287
276.586
276.839
273.066
273.203
273.349
273.509
273.686
273.883
274.103
274.348
274.616
274.906
275.214
275.533
275.851
276.157
276.436
276.671
273.066
273.201
273.346
273.504
273.678
273.873
274.09
274.33
274.593
274.878
275.178
275.488
275.797
276.093
276.362
276.587
273.086
273.265
273.458
273.672
273.914
274.191
274.508
274.873
275.288
275.757
276.281
276.856
277.473
278.116
278.752
279.333
273.083
273.253
273.436
273.64
273.869
274.13
274.429
274.77
275.157
275.591
276.072
276.596
277.152
277.723
278.28
278.78
273.079
273.241
273.416
273.609
273.826
274.073
274.354
274.672
275.031
275.432
275.872
276.347
276.844
277.347
277.83
278.256
273.075
273.231
273.398
273.582
273.788
274.021
274.285
274.584
274.918
275.288
275.691
276.12
276.565
277.009
277.428
277.792
273.073
273.222
273.382
273.559
273.756
273.977
274.227
274.508
274.821
275.165
275.536
275.928
276.329
276.724
277.091
277.408
273.07
273.215
273.37
273.541
273.73
273.943
274.182
274.449
274.746
275.069
275.415
275.778
276.145
276.503
276.833
277.114
273.069
273.211
273.362
273.529
273.714
273.92
274.152
274.41
274.695
275.004
275.333
275.676
276.02
276.354
276.658
276.917
273.068