/*--------------------------------*- C++ -*----------------------------------*\
| =========                 |                                                 |
| \\      /  F ield         | OpenFOAM: The Open Source CFD Toolbox           |
|  \\    /   O peration     | Version:  v1912                                 |
|   \\  /    A nd           | Website:  www.openfoam.com                      |
|    \\/     M anipulation  |                                                 |
\*---------------------------------------------------------------------------*/
FoamFile
{
    version     2.0;
    format      ascii;
    class       volVectorField;
    location    "0.31/fluid";
    object      U;
}
// * * * * * * * * * * * * * * * * * * * * * * * * * * * * * * * * * * * * * //

dimensions      [0 1 -1 0 0 0 0];


internalField   nonuniform List<vector> 
14592
(
(0.0880884 0.0163792 0.000515248)
(0.0752575 0.00998144 0.000494687)
(0.064114 0.00556929 1.87828e-05)
(0.0589806 0.00246357 -0.000637855)
(0.0560276 0.00112335 -0.00147452)
(0.0543602 0.000555523 -0.0025041)
(0.0530891 0.000347928 -0.00378006)
(0.051946 0.00027316 -0.00538209)
(0.050626 0.00025289 -0.00742264)
(0.0492131 0.000232465 -0.0100934)
(0.0471518 0.000204543 -0.0136547)
(0.0450611 6.78248e-05 -0.0185554)
(0.0410361 -0.000124724 -0.0255793)
(0.0372798 -0.000817155 -0.0355132)
(0.0265302 -0.00132472 -0.0494841)
(0.0151045 -0.00427134 -0.050575)
(0.104086 0.0158482 0.000546631)
(0.104762 0.0132533 0.00040123)
(0.103411 0.00924566 -0.000322424)
(0.101447 0.00551627 -0.001318)
(0.0994675 0.00341507 -0.00258788)
(0.097733 0.0023525 -0.0041689)
(0.0960285 0.00192924 -0.00614683)
(0.0942507 0.00184267 -0.00864733)
(0.0921088 0.00195345 -0.0118472)
(0.0896611 0.00217155 -0.0160372)
(0.0861953 0.00246271 -0.0216181)
(0.0822768 0.00271065 -0.0292627)
(0.075395 0.0029335 -0.0400701)
(0.0678031 0.00265832 -0.0552204)
(0.0492385 0.00225975 -0.075453)
(0.0287358 -0.00137578 -0.0761999)
(0.103748 0.00995003 0.000545912)
(0.107254 0.0116085 0.000371863)
(0.109323 0.00964796 -0.000391168)
(0.109361 0.00693336 -0.00143146)
(0.10863 0.00507593 -0.00275681)
(0.107498 0.00402377 -0.00440993)
(0.106098 0.00361718 -0.00648099)
(0.104446 0.00364234 -0.00910239)
(0.102322 0.00397836 -0.0124593)
(0.0997942 0.00453893 -0.0168603)
(0.0961229 0.00527993 -0.0227263)
(0.0918218 0.00609715 -0.0307842)
(0.0842193 0.00697333 -0.0421809)
(0.075499 0.00748398 -0.0582626)
(0.0547111 0.00748162 -0.0797364)
(0.0313376 0.00353195 -0.0812708)
(0.101938 0.00664866 0.000566685)
(0.105101 0.00939071 0.0004123)
(0.107931 0.0087682 -0.000335462)
(0.108995 0.00715109 -0.00135771)
(0.109188 0.00584013 -0.00265945)
(0.108712 0.00508306 -0.00428035)
(0.107781 0.00488471 -0.00630669)
(0.106466 0.00514237 -0.00886769)
(0.104598 0.00578768 -0.0121431)
(0.102272 0.00677398 -0.0164405)
(0.0987355 0.00808421 -0.0221729)
(0.0944896 0.00966147 -0.0300879)
(0.0867564 0.0114962 -0.0413208)
(0.0777003 0.0131778 -0.0573535)
(0.0560927 0.0140866 -0.0789175)
(0.03142 0.00901459 -0.0811845)
(0.101065 0.00457865 0.000603902)
(0.103604 0.00735644 0.000492241)
(0.106377 0.00756363 -0.000220151)
(0.107872 0.0068187 -0.00120626)
(0.108622 0.00609289 -0.00246183)
(0.108662 0.00573132 -0.00401854)
(0.108184 0.00583162 -0.00595422)
(0.107266 0.00638025 -0.00838938)
(0.10577 0.00736217 -0.0114901)
(0.103809 0.00877937 -0.0155523)
(0.100633 0.010645 -0.0209614)
(0.0967346 0.0129603 -0.0284683)
(0.0892235 0.0157272 -0.0391507)
(0.0801893 0.0185424 -0.0546501)
(0.0578939 0.0204058 -0.0756475)
(0.0317709 0.0137244 -0.07878)
(0.100691 0.00330627 0.000649195)
(0.102806 0.0057276 0.000591625)
(0.105413 0.00632707 -7.55658e-05)
(0.107127 0.00616077 -0.00101716)
(0.108245 0.00592648 -0.00221621)
(0.108693 0.00595759 -0.00369395)
(0.108622 0.00638491 -0.00551768)
(0.108102 0.00725473 -0.00779659)
(0.107009 0.00860328 -0.0106798)
(0.105465 0.0105027 -0.0144462)
(0.102726 0.0130353 -0.019446)
(0.0992627 0.0163544 -0.0264257)
(0.0920815 0.0206022 -0.036378)
(0.0831931 0.0256461 -0.0511301)
(0.0602452 0.0303145 -0.071257)
(0.0325763 0.0228597 -0.0755473)
(0.100551 0.00230892 0.0007021)
(0.102466 0.00426506 0.000707196)
(0.104992 0.00505748 9.27903e-05)
(0.106859 0.00530052 -0.000797094)
(0.108251 0.0054785 -0.00192995)
(0.109039 0.00586735 -0.00331387)
(0.109353 0.0066001 -0.005002)
(0.109266 0.00775763 -0.00708601)
(0.108686 0.00941085 -0.00968769)
(0.107772 0.0116892 -0.0130495)
(0.105851 0.0147214 -0.0174514)
(0.103447 0.0187979 -0.0235751)
(0.097603 0.0241514 -0.0322084)
(0.0903184 0.0309585 -0.0452817)
(0.0678601 0.0379481 -0.0629423)
(0.0392891 0.0292843 -0.0684186)
(0.100508 0.00144445 0.000759355)
(0.102375 0.00289152 0.000831949)
(0.104927 0.00374331 0.000274378)
(0.106945 0.00427107 -0.000560373)
(0.108565 0.00478221 -0.00162298)
(0.109639 0.00547644 -0.00290761)
(0.110291 0.00647195 -0.00445277)
(0.110599 0.00786958 -0.00633197)
(0.110504 0.00976968 -0.00864012)
(0.110183 0.0123721 -0.0115817)
(0.10904 0.0158875 -0.0153694)
(0.107622 0.0209184 -0.0206128)
(0.10308 0.0280624 -0.0278996)
(0.0975811 0.0393363 -0.0392558)
(0.0763058 0.0546156 -0.0545164)
(0.0504112 0.0627077 -0.0625497)
(0.0880542 0.0163814 0.000280685)
(0.0750757 0.00999204 0.000136642)
(0.063721 0.00557843 -0.000315676)
(0.0584026 0.0024708 -0.00089415)
(0.0552593 0.00113189 -0.00163355)
(0.0533886 0.000567067 -0.00256238)
(0.0518705 0.0003641 -0.00373313)
(0.0504148 0.000295454 -0.00521128)
(0.0486854 0.000284522 -0.00709043)
(0.0467311 0.000277747 -0.00950014)
(0.0439746 0.000274603 -0.0126311)
(0.0409306 0.000182409 -0.0166455)
(0.0358847 7.88197e-05 -0.0219973)
(0.0304588 -0.00040602 -0.0280879)
(0.0194971 -0.000672783 -0.0348324)
(0.00664644 -0.00272567 -0.0257723)
(0.104039 0.0158617 0.000243991)
(0.104511 0.0132866 -7.72459e-05)
(0.102858 0.0092869 -0.00078904)
(0.100595 0.00556325 -0.0016868)
(0.0983009 0.00347392 -0.00282162)
(0.0962252 0.00243 -0.00425571)
(0.094111 0.00203357 -0.00607718)
(0.091816 0.00198316 -0.00839434)
(0.0889971 0.00214349 -0.0113566)
(0.0856524 0.00242704 -0.0151723)
(0.0810142 0.00281013 -0.0201381)
(0.0755088 0.00317926 -0.0265499)
(0.0668092 0.00358079 -0.0350366)
(0.0565462 0.00355534 -0.0449338)
(0.0372236 0.0033853 -0.055385)
(0.0147468 9.22667e-05 -0.0412572)
(0.103701 0.00997609 0.000232271)
(0.106997 0.0116666 -0.000127515)
(0.108752 0.00972712 -0.00088059)
(0.108477 0.00703006 -0.00182025)
(0.107416 0.00519749 -0.00300531)
(0.105926 0.00418193 -0.004505)
(0.104096 0.00382777 -0.00641251)
(0.101902 0.00392438 -0.00884267)
(0.0990667 0.0043575 -0.011952)
(0.0955966 0.00504455 -0.0159635)
(0.0906851 0.00595536 -0.0211877)
(0.0847059 0.00697968 -0.0279557)
(0.0751503 0.00813013 -0.0369135)
(0.0635886 0.00891633 -0.0474334)
(0.041916 0.00910657 -0.0585143)
(0.0164129 0.00469439 -0.0435873)
(0.101893 0.00668301 0.000252033)
(0.104847 0.00946741 -9.10256e-05)
(0.107369 0.00887718 -0.000829095)
(0.108128 0.00728897 -0.00175075)
(0.108 0.0060158 -0.00291272)
(0.107177 0.00531293 -0.0043813)
(0.105831 0.00519193 -0.00624585)
(0.103993 0.00555621 -0.00861822)
(0.101438 0.00634795 -0.0116496)
(0.0981988 0.00752816 -0.0155623)
(0.0934522 0.00910094 -0.0206575)
(0.0875645 0.0110026 -0.0272822)
(0.0778952 0.0132672 -0.0360627)
(0.0660065 0.0153607 -0.0464508)
(0.0434691 0.0165925 -0.0574383)
(0.0165485 0.0105234 -0.0427774)
(0.101022 0.00462154 0.000289277)
(0.103357 0.00745164 -1.27721e-05)
(0.105831 0.00770087 -0.000716272)
(0.107034 0.00699474 -0.00160285)
(0.107481 0.00631844 -0.00272054)
(0.107195 0.00602709 -0.00412791)
(0.10633 0.00622754 -0.00590624)
(0.104927 0.00691534 -0.00815943)
(0.102792 0.00808981 -0.0110262)
(0.0999819 0.00976507 -0.0147196)
(0.0956709 0.0119835 -0.0195164)
(0.0902298 0.0147412 -0.0257718)
(0.0808595 0.018104 -0.0340619)
(0.0690814 0.0214911 -0.043978)
(0.045764 0.0238517 -0.0545004)
(0.0171971 0.0156859 -0.0406053)
(0.100649 0.003356 0.000334307)
(0.102566 0.00583753 8.47179e-05)
(0.104886 0.00648651 -0.000574947)
(0.106325 0.00636685 -0.00141856)
(0.10716 0.00619181 -0.00248208)
(0.107309 0.00630693 -0.00381413)
(0.106885 0.00685469 -0.00548592)
(0.105924 0.00789418 -0.00759124)
(0.104249 0.00948143 -0.0102533)
(0.101936 0.0117094 -0.0136722)
(0.0981536 0.0147046 -0.0180938)
(0.0932744 0.0186326 -0.0238797)
(0.0843332 0.0237447 -0.0315355)
(0.0728396 0.0297007 -0.0408354)
(0.0487715 0.0353578 -0.0507213)
(0.0184233 0.0259563 -0.037941)
(0.10051 0.0023642 0.000386376)
(0.102236 0.00438634 0.000197593)
(0.104489 0.00523361 -0.00041113)
(0.106099 0.00552882 -0.00120497)
(0.107232 0.00577302 -0.00220522)
(0.107753 0.00625575 -0.00344801)
(0.107757 0.00712348 -0.00499146)
(0.10729 0.00847272 -0.00691412)
(0.106213 0.0103979 -0.00931548)
(0.10465 0.0130565 -0.0123687)
(0.101848 0.0166315 -0.0162641)
(0.0982714 0.0214432 -0.0213372)
(0.0909214 0.0278673 -0.0279514)
(0.0814396 0.0358604 -0.0360824)
(0.0577974 0.0442662 -0.044521)
(0.0264095 0.0331418 -0.0333238)
(0.100468 0.00150296 0.000442254)
(0.102154 0.00301906 0.000318871)
(0.104448 0.00392846 -0.000235105)
(0.106229 0.00451135 -0.000975868)
(0.107617 0.00509252 -0.0019089)
(0.108457 0.00588616 -0.00305706)
(0.108844 0.00702513 -0.00446487)
(0.108833 0.00862851 -0.00619509)
(0.108326 0.0108236 -0.00832361)
(0.107477 0.0138487 -0.0109953)
(0.105614 0.0179821 -0.0143465)
(0.103266 0.0238994 -0.018683)
(0.0974761 0.0324004 -0.0242251)
(0.0902537 0.0454088 -0.0311692)
(0.0678487 0.0631199 -0.0381906)
(0.0393206 0.0686808 -0.0294603)
(0.0880277 0.0163832 0.000120264)
(0.0749282 0.010001 -9.43875e-05)
(0.0633923 0.00558646 -0.000511861)
(0.057902 0.00247726 -0.00101328)
(0.054574 0.00113928 -0.00165192)
(0.0524996 0.000576583 -0.00246411)
(0.0507319 0.000376636 -0.00349856)
(0.0489557 0.000311309 -0.00480786)
(0.0468035 0.00030447 -0.0064692)
(0.0442747 0.000302093 -0.00857137)
(0.0407734 0.000305728 -0.0112664)
(0.0366892 0.000225013 -0.0146093)
(0.0305441 0.000140265 -0.0189456)
(0.0235991 -0.00028222 -0.0235628)
(0.0129517 -0.000569287 -0.0282257)
(0.00155447 -0.00229162 -0.0207175)
(0.104001 0.0158745 4.32961e-05)
(0.104305 0.0133175 -0.000371672)
(0.102391 0.0093259 -0.00104325)
(0.0998528 0.00560804 -0.00183567)
(0.0972584 0.00352962 -0.00282517)
(0.0948472 0.00250257 -0.00408532)
(0.0923271 0.00213019 -0.00570004)
(0.0895161 0.00211168 -0.0077595)
(0.0860214 0.00231463 -0.010387)
(0.0817706 0.0026524 -0.0137314)
(0.0759551 0.00310752 -0.0180227)
(0.0688555 0.00356382 -0.0233952)
(0.0584189 0.00407759 -0.030294)
(0.0459412 0.00418016 -0.0378349)
(0.0268688 0.00403989 -0.0450169)
(0.00638652 0.000735579 -0.0328779)
(0.103664 0.0100013 2.51229e-05)
(0.106786 0.011722 -0.00043259)
(0.108271 0.00980283 -0.00114467)
(0.107708 0.00712264 -0.0019752)
(0.106331 0.00531338 -0.00300911)
(0.104489 0.00433189 -0.00432731)
(0.102233 0.00402644 -0.00601884)
(0.099499 0.00418921 -0.00817986)
(0.0959558 0.00471176 -0.0109395)
(0.0915358 0.00551383 -0.0144586)
(0.0853823 0.00657631 -0.0189765)
(0.0777234 0.00777897 -0.0246531)
(0.0663065 0.00915376 -0.031939)
(0.0523823 0.0101393 -0.039961)
(0.0308641 0.0104278 -0.0475661)
(0.00739644 0.00553349 -0.0346772)
(0.101858 0.00671648 4.29592e-05)
(0.10464 0.00954104 -0.000400878)
(0.106897 0.00898158 -0.00109904)
(0.107375 0.00742085 -0.00191262)
(0.10694 0.00618328 -0.00292513)
(0.105776 0.00553129 -0.00421478)
(0.104019 0.0054829 -0.00586718)
(0.101658 0.00594719 -0.00797592)
(0.0984151 0.00687612 -0.0106654)
(0.0942512 0.0082368 -0.0140965)
(0.088285 0.0100521 -0.0185003)
(0.0807405 0.0122477 -0.0240517)
(0.0692041 0.0148938 -0.0311844)
(0.0549289 0.0173357 -0.0390942)
(0.0324656 0.0188359 -0.0466223)
(0.00750113 0.011952 -0.0339997)
(0.100988 0.00466315 7.80411e-05)
(0.103155 0.00754294 -0.000328175)
(0.105374 0.00783209 -0.000994221)
(0.106309 0.00716276 -0.00177537)
(0.106465 0.00653323 -0.00274732)
(0.105858 0.00630816 -0.0039813)
(0.104608 0.00660329 -0.00555558)
(0.102717 0.00742277 -0.00755703)
(0.0999377 0.00877985 -0.0100994)
(0.0962621 0.0106994 -0.0133369)
(0.0907963 0.0132517 -0.0174808)
(0.0837796 0.0164244 -0.022718)
(0.072589 0.0203435 -0.0294429)
(0.0584674 0.0242599 -0.0369783)
(0.0350965 0.0271097 -0.0441695)
(0.00828314 0.0178206 -0.0322499)
(0.100616 0.00340396 0.000120389)
(0.102372 0.00594263 -0.00023731)
(0.104447 0.00663855 -0.000862764)
(0.105633 0.00656307 -0.00160435)
(0.106198 0.00644412 -0.00252676)
(0.10605 0.00663876 -0.00369215)
(0.105273 0.00730082 -0.00516981)
(0.103867 0.00850158 -0.00703793)
(0.101605 0.0103165 -0.00939695)
(0.0985008 0.0128577 -0.0123916)
(0.0936496 0.0162948 -0.0162074)
(0.0873095 0.0208006 -0.0210432)
(0.0766269 0.0267302 -0.0272374)
(0.0628879 0.0335451 -0.0342785)
(0.0386251 0.0401667 -0.0410014)
(0.00975185 0.0293915 -0.0300647)
(0.100479 0.00241715 0.000169083)
(0.10205 0.00450189 -0.000132346)
(0.104072 0.00540108 -0.000710733)
(0.105446 0.00574572 -0.00140666)
(0.106332 0.00605274 -0.00227133)
(0.106587 0.00662461 -0.00335573)
(0.10628 0.00762095 -0.00471758)
(0.105426 0.00915341 -0.00642246)
(0.10384 0.01134 -0.00855101)
(0.101602 0.0143654 -0.0112283)
(0.0978806 0.0184677 -0.0145963)
(0.0930624 0.0239933 -0.0188458)
(0.0841787 0.0314599 -0.0242101)
(0.0727575 0.0406216 -0.0303759)
(0.0487572 0.0504766 -0.0361114)
(0.0184425 0.037763 -0.0265491)
(0.100437 0.00155869 0.000221082)
(0.101978 0.00314017 -1.98453e-05)
(0.104055 0.00410402 -0.0005477)
(0.105619 0.00473918 -0.00119495)
(0.106783 0.00538686 -0.00199822)
(0.10739 0.0062751 -0.00299656)
(0.107509 0.00755115 -0.00423567)
(0.107172 0.00935185 -0.00576784)
(0.106241 0.0118321 -0.00765364)
(0.104837 0.0152673 -0.00999696)
(0.102217 0.0200064 -0.0128956)
(0.0988723 0.0267918 -0.0165277)
(0.0918009 0.0366308 -0.0210176)
(0.0830474 0.0513479 -0.0262621)
(0.0602187 0.0715833 -0.0309957)
(0.0326333 0.0760044 -0.0234047)
(0.0880074 0.016385 2.0895e-05)
(0.0748101 0.0100088 -0.000218005)
(0.0631238 0.00559373 -0.000585635)
(0.057486 0.0024834 -0.00100561)
(0.0539992 0.00114649 -0.00153614)
(0.0517528 0.000586255 -0.00221366)
(0.0497851 0.00039015 -0.00307832)
(0.0477692 0.000330124 -0.00416613)
(0.0453323 0.000331294 -0.00552937)
(0.0424585 0.000341181 -0.0072097)
(0.0385927 0.000365367 -0.00929339)
(0.0340852 0.00032158 -0.0117271)
(0.0277177 0.000298249 -0.0146767)
(0.020576 5.48093e-06 -0.0173971)
(0.0107376 -0.00015184 -0.0195074)
(0.00081523 -0.00161272 -0.0131187)
(0.103972 0.0158862 -7.30202e-05)
(0.104138 0.0133453 -0.000510405)
(0.102006 0.00936128 -0.00111032)
(0.0992317 0.00564894 -0.00178352)
(0.0963769 0.00358045 -0.00261255)
(0.0936789 0.00256882 -0.00366962)
(0.0908249 0.00221865 -0.00502616)
(0.0876125 0.00223019 -0.00674823)
(0.0836342 0.00247426 -0.00892192)
(0.0787946 0.0028666 -0.0116283)
(0.0723265 0.00339722 -0.0150003)
(0.0644796 0.00395373 -0.0190132)
(0.0535323 0.00460685 -0.0238611)
(0.0406702 0.00489881 -0.0285729)
(0.0227565 0.00493129 -0.0320737)
(0.00460694 0.00166924 -0.0216655)
(0.103635 0.0100245 -9.35476e-05)
(0.106614 0.0117723 -0.000572903)
(0.107874 0.00987152 -0.00120993)
(0.107064 0.00720665 -0.00191632)
(0.105414 0.00541823 -0.00278317)
(0.10327 0.00446704 -0.00388955)
(0.100663 0.00420488 -0.0053116)
(0.0975076 0.00442645 -0.00712039)
(0.0934552 0.00502852 -0.00940642)
(0.0884152 0.00593338 -0.0122594)
(0.081568 0.00713233 -0.0158171)
(0.0731167 0.00850035 -0.0200701)
(0.0611386 0.0100894 -0.0252064)
(0.0467979 0.0112966 -0.0302424)
(0.0264693 0.0117662 -0.0339556)
(0.00547779 0.00656911 -0.0228429)
(0.10183 0.00674717 -7.82435e-05)
(0.104472 0.00960797 -0.00054644)
(0.106508 0.00907629 -0.00117131)
(0.106745 0.00754019 -0.00186271)
(0.106045 0.00633416 -0.00271087)
(0.104589 0.00572695 -0.00379255)
(0.102492 0.00574203 -0.00518101)
(0.0997249 0.00629299 -0.00694527)
(0.0959911 0.00733956 -0.00917202)
(0.0912295 0.00885283 -0.0119511)
(0.0845913 0.0108702 -0.0154136)
(0.0762802 0.0133068 -0.0195615)
(0.064194 0.0162611 -0.0245675)
(0.0495109 0.0189895 -0.0294972)
(0.0282008 0.0207219 -0.0331195)
(0.00567211 0.013267 -0.0222129)
(0.100961 0.00470118 -4.71357e-05)
(0.102993 0.00762584 -0.000482521)
(0.104998 0.00795086 -0.00107918)
(0.105703 0.00731434 -0.00174224)
(0.105608 0.00672608 -0.00255528)
(0.104727 0.00655895 -0.00358909)
(0.10316 0.00693603 -0.00491083)
(0.100891 0.00786788 -0.00658423)
(0.0976555 0.00937811 -0.00868768)
(0.0934274 0.0114974 -0.011307)
(0.0873374 0.0143153 -0.0145584)
(0.0796121 0.0178056 -0.0184567)
(0.0679035 0.0221338 -0.0231464)
(0.0534006 0.0264201 -0.0277926)
(0.031096 0.0295842 -0.0311784)
(0.00658005 0.0194954 -0.0208528)
(0.10059 0.0034476 -9.59767e-06)
(0.102216 0.00603781 -0.000402405)
(0.104088 0.00677582 -0.000963499)
(0.105057 0.0067396 -0.00159209)
(0.105387 0.00666994 -0.00236228)
(0.104987 0.00693368 -0.00333717)
(0.10392 0.00769372 -0.00457642)
(0.102171 0.00903004 -0.00613707)
(0.0994948 0.0110317 -0.00808717)
(0.0958932 0.0138208 -0.0105068)
(0.0904764 0.0175934 -0.0134936)
(0.0835012 0.0225113 -0.0170771)
(0.0723417 0.0289883 -0.0213632)
(0.0582656 0.0363186 -0.0256497)
(0.034967 0.0434394 -0.0287326)
(0.00819931 0.0316749 -0.0192119)
(0.100454 0.00246515 3.34223e-05)
(0.101902 0.00460626 -0.000309971)
(0.103732 0.00555193 -0.000829916)
(0.104905 0.0059404 -0.00141886)
(0.105576 0.00630248 -0.00213929)
(0.105603 0.00695148 -0.00304494)
(0.10504 0.00805736 -0.00418606)
(0.103886 0.00974226 -0.00561026)
(0.101945 0.0121401 -0.00737097)
(0.0992874 0.0154493 -0.0095365)
(0.0950912 0.0199397 -0.0121753)
(0.0897592 0.0259524 -0.0153235)
(0.0804855 0.0340788 -0.0190233)
(0.0688384 0.0438864 -0.0227417)
(0.0456612 0.054423 -0.0252758)
(0.0171659 0.040574 -0.0168823)
(0.100414 0.00160897 7.92206e-05)
(0.101838 0.00324925 -0.000211073)
(0.103736 0.00426181 -0.000686855)
(0.105115 0.00494325 -0.00123355)
(0.106085 0.00564911 -0.00190104)
(0.106491 0.0066189 -0.00273303)
(0.106388 0.00801097 -0.00377003)
(0.105799 0.00997419 -0.00504963)
(0.104572 0.0126812 -0.00661044)
(0.10283 0.0164256 -0.00850793)
(0.0998291 0.0215937 -0.0107812)
(0.0961 0.0289361 -0.0134709)
(0.0887405 0.0395517 -0.0165548)
(0.079907 0.0550873 -0.019683)
(0.0577988 0.0763206 -0.0216918)
(0.0318036 0.0796619 -0.0148361)
(0.0879916 0.0163864 -3.14732e-05)
(0.0747169 0.0100151 -0.000257007)
(0.0629092 0.00559964 -0.000560324)
(0.0571487 0.00248834 -0.000894243)
(0.0535276 0.00115211 -0.00131273)
(0.0511339 0.000593513 -0.00184853)
(0.0489946 0.000399788 -0.00253364)
(0.0467725 0.000342631 -0.00339326)
(0.0440913 0.000347509 -0.00446451)
(0.0409209 0.000362283 -0.00576832)
(0.0367437 0.000393872 -0.00736168)
(0.031883 0.000364022 -0.00917659)
(0.0253374 0.00036289 -0.0113151)
(0.0181028 0.000126843 -0.013201)
(0.00900024 9.03933e-06 -0.0144927)
(0.000315055 -0.00133255 -0.00975373)
(0.103949 0.0158962 -0.000123794)
(0.104006 0.0133687 -0.000525372)
(0.101697 0.00939123 -0.001025)
(0.0987263 0.00568361 -0.00156575)
(0.0956524 0.00362332 -0.00222387)
(0.0927108 0.00262428 -0.00306308)
(0.089573 0.00229201 -0.00414123)
(0.0860203 0.00232736 -0.00550648)
(0.0816356 0.00260315 -0.00722027)
(0.0763049 0.00303618 -0.00932923)
(0.0693029 0.00362075 -0.0119187)
(0.0608648 0.00424518 -0.0149281)
(0.0495517 0.00498745 -0.0184611)
(0.0365205 0.00539182 -0.0217458)
(0.0196911 0.00550816 -0.0238961)
(0.0034967 0.002205 -0.0160621)
(0.103613 0.0100443 -0.00014331)
(0.106478 0.0118151 -0.000581952)
(0.107555 0.00993005 -0.00111307)
(0.10654 0.00727821 -0.00168096)
(0.10466 0.00550728 -0.00236953)
(0.102259 0.0045814 -0.0032483)
(0.0993547 0.00435522 -0.00437915)
(0.0958415 0.00462531 -0.00581424)
(0.091361 0.0052924 -0.00761822)
(0.0858038 0.00628017 -0.00984402)
(0.078389 0.00758726 -0.0125796)
(0.0693108 0.00908304 -0.0157742)
(0.056929 0.0108328 -0.0195235)
(0.0424013 0.0121973 -0.0230414)
(0.0231922 0.0127832 -0.0253228)
(0.00428416 0.00731485 -0.0169451)
(0.101808 0.00677353 -0.000131017)
(0.104339 0.0096652 -0.000561101)
(0.106195 0.00915714 -0.0010823)
(0.106233 0.00764193 -0.00163785)
(0.105309 0.00646251 -0.00231117)
(0.103605 0.00589289 -0.00316997)
(0.10122 0.00596112 -0.00427385)
(0.0981073 0.00658431 -0.00567343)
(0.0939594 0.00772837 -0.00743055)
(0.0886977 0.00936699 -0.00959853)
(0.0815073 0.0115484 -0.0122605)
(0.0725862 0.0141777 -0.015375)
(0.0600995 0.0173732 -0.0190268)
(0.0452292 0.0203189 -0.0224676)
(0.0250054 0.0222175 -0.0246861)
(0.00453255 0.0143 -0.0164775)
(0.100941 0.00473384 -0.000105327)
(0.102864 0.00769673 -0.000508619)
(0.104697 0.00805225 -0.00100669)
(0.105212 0.00744355 -0.00153907)
(0.104905 0.00689015 -0.00218391)
(0.10379 0.00677183 -0.0030041)
(0.101953 0.00721781 -0.00405444)
(0.0993619 0.00824386 -0.00538163)
(0.0957409 0.00988204 -0.00704131)
(0.0910484 0.0121673 -0.00908445)
(0.0844425 0.0152044 -0.0115838)
(0.0761492 0.018954 -0.0145095)
(0.064058 0.0236111 -0.0179272)
(0.0493781 0.0281914 -0.0211643)
(0.0280851 0.0315982 -0.0232263)
(0.00552419 0.0208832 -0.0154712)
(0.100571 0.00348502 -7.43311e-05)
(0.102093 0.00611913 -0.000442689)
(0.103801 0.00689291 -0.000911609)
(0.10459 0.00688997 -0.00141587)
(0.104723 0.00686196 -0.00202596)
(0.104107 0.00718396 -0.00279858)
(0.102792 0.00802647 -0.00378264)
(0.10075 0.00947658 -0.0050198)
(0.0977242 0.0116345 -0.00655795)
(0.0937033 0.0146298 -0.0084445)
(0.0878178 0.0186798 -0.0107389)
(0.0803314 0.0239349 -0.0134244)
(0.0688177 0.0308523 -0.0165408)
(0.0545891 0.038593 -0.0195157)
(0.0322115 0.0460989 -0.0213741)
(0.00725289 0.0335813 -0.0142365)
(0.100435 0.00250619 -3.8873e-05)
(0.101785 0.0046953 -0.000366662)
(0.103461 0.00568048 -0.000801905)
(0.104468 0.0061061 -0.0012739)
(0.104958 0.00651474 -0.00184374)
(0.104791 0.00722885 -0.00256067)
(0.104007 0.00842708 -0.00346629)
(0.102598 0.0102402 -0.00459532)
(0.100354 0.0128155 -0.005985)
(0.0973392 0.016362 -0.00767537)
(0.0927451 0.0211755 -0.00970576)
(0.0869928 0.0275906 -0.012069)
(0.0774239 0.0362541 -0.0147635)
(0.0656899 0.0465865 -0.017344)
(0.0433093 0.0576629 -0.0188552)
(0.0164086 0.0429791 -0.0125601)
(0.100396 0.00165188 -1.19838e-06)
(0.101728 0.00334218 -0.000285394)
(0.103483 0.00439612 -0.0006845)
(0.104709 0.00511679 -0.00112212)
(0.105516 0.00587187 -0.00164909)
(0.10575 0.00691052 -0.00230667)
(0.105457 0.00840049 -0.00312884)
(0.104651 0.0105005 -0.00414291)
(0.103171 0.0133981 -0.00537506)
(0.10114 0.0174013 -0.00685697)
(0.0978201 0.0229266 -0.00860728)
(0.0937753 0.0307288 -0.0106262)
(0.0862007 0.0419757 -0.0128704)
(0.0773808 0.0581742 -0.0150309)
(0.0559693 0.0802012 -0.0162046)
(0.031383 0.0828353 -0.011035)
(0.0879801 0.0163874 -4.76247e-05)
(0.0746481 0.01002 -0.000230012)
(0.0627496 0.00560425 -0.000456105)
(0.0568963 0.00249235 -0.000698373)
(0.0531742 0.00115679 -0.000999427)
(0.0506719 0.000599768 -0.00138444)
(0.0484106 0.000408486 -0.00187555)
(0.0460495 0.000354712 -0.00248736)
(0.0432161 0.00036455 -0.00324122)
(0.0398777 0.000386807 -0.00414108)
(0.0355537 0.000430173 -0.00521416)
(0.0305573 0.000420261 -0.00639045)
(0.0240208 0.000449367 -0.00771491)
(0.0168797 0.000268184 -0.00879109)
(0.00822464 0.000199228 -0.00935464)
(0.00021581 -0.00108853 -0.00610798)
(0.103932 0.015904 -0.000123876)
(0.103907 0.0133871 -0.00044367)
(0.101465 0.00941474 -0.00081856)
(0.098346 0.00571095 -0.00121392)
(0.0951061 0.00365713 -0.00169006)
(0.0919825 0.00266809 -0.00229574)
(0.0886388 0.00235011 -0.00307209)
(0.0848491 0.00240467 -0.0040494)
(0.0801983 0.0027064 -0.00526441)
(0.0745696 0.00317336 -0.00673537)
(0.0672832 0.00380365 -0.00850326)
(0.0585787 0.00448687 -0.010493)
(0.0471991 0.00530685 -0.0127369)
(0.0342833 0.00580642 -0.014691)
(0.0181741 0.00600171 -0.0157053)
(0.00312627 0.00264358 -0.0102748)
(0.103596 0.0100599 -0.000139711)
(0.106377 0.0118488 -0.000488391)
(0.107317 0.00997603 -0.000887232)
(0.106145 0.00733444 -0.00130272)
(0.104091 0.00557711 -0.00180119)
(0.101498 0.00467088 -0.00243578)
(0.0983772 0.00447254 -0.00325068)
(0.0946144 0.0047801 -0.00427898)
(0.0898524 0.00549726 -0.00555956)
(0.0839798 0.00654878 -0.00711468)
(0.0762598 0.0079388 -0.00898636)
(0.0668963 0.00953286 -0.0111046)
(0.054432 0.0114059 -0.0134938)
(0.0400223 0.0128924 -0.0155968)
(0.0215667 0.0135723 -0.0166775)
(0.0038882 0.00789832 -0.0108584)
(0.101793 0.00679433 -0.000130744)
(0.10424 0.00971025 -0.000473368)
(0.105962 0.00922068 -0.000864902)
(0.105847 0.00772177 -0.00127121)
(0.104755 0.00656291 -0.00175845)
(0.102865 0.0060222 -0.00237841)
(0.10027 0.00613102 -0.00317368)
(0.0969169 0.00680897 -0.00417632)
(0.092498 0.00802621 -0.00542325)
(0.0869336 0.00975781 -0.00693716)
(0.0794496 0.0120593 -0.00875676)
(0.0702562 0.0148276 -0.0108187)
(0.057691 0.0181944 -0.0131396)
(0.0429411 0.0212932 -0.0151878)
(0.0234471 0.0233063 -0.0162235)
(0.00417971 0.0150553 -0.0105261)
(0.100926 0.0047596 -0.000111596)
(0.102769 0.00775251 -0.000434401)
(0.104472 0.00813189 -0.000808791)
(0.104842 0.00754479 -0.00119798)
(0.104375 0.00701825 -0.00166432)
(0.103086 0.00693726 -0.0022561)
(0.101052 0.00743547 -0.00301251)
(0.0982378 0.00853213 -0.00396297)
(0.0943658 0.0102649 -0.0051403)
(0.089395 0.0126706 -0.00656604)
(0.0825193 0.0158634 -0.00827237)
(0.0739801 0.0197929 -0.0102047)
(0.06182 0.0246722 -0.0123682)
(0.047264 0.0294454 -0.0142821)
(0.0266504 0.0330013 -0.0152219)
(0.00522784 0.0218448 -0.00984508)
(0.100556 0.00351448 -8.85043e-05)
(0.102002 0.00618305 -0.000385375)
(0.103587 0.00698478 -0.000738154)
(0.10424 0.00700762 -0.0011066)
(0.104224 0.00701161 -0.00154746)
(0.103446 0.00737795 -0.00210454)
(0.101951 0.00828255 -0.00281287)
(0.0997068 0.00981708 -0.00369851)
(0.096454 0.0120889 -0.00478915)
(0.0921848 0.0152307 -0.00610456)
(0.0860591 0.0194721 -0.00766852)
(0.0783607 0.0249515 -0.00943713)
(0.0667919 0.0321507 -0.0113997)
(0.0526959 0.0401408 -0.013143)
(0.0309384 0.0478586 -0.0139623)
(0.00702625 0.0348221 -0.00901775)
(0.100422 0.00253846 -6.21121e-05)
(0.101699 0.00476523 -0.000328857)
(0.103259 0.00578123 -0.000656707)
(0.10414 0.0062356 -0.00100141)
(0.104493 0.00667993 -0.00141284)
(0.104181 0.00744343 -0.00192946)
(0.103237 0.00871087 -0.00258122)
(0.101651 0.0106185 -0.00338968)
(0.0992108 0.0133218 -0.00437569)
(0.0959874 0.0170344 -0.00555529)
(0.0911941 0.0220666 -0.00694035)
(0.0852791 0.0287424 -0.00849645)
(0.0756796 0.0377378 -0.0101898)
(0.0641009 0.0483753 -0.0116918)
(0.0422661 0.0597334 -0.012323)
(0.0162922 0.0444871 -0.00795645)
(0.100383 0.00168554 -3.41066e-05)
(0.101647 0.00341506 -0.000268482)
(0.103295 0.00450129 -0.000569584)
(0.104405 0.00525228 -0.000888993)
(0.105089 0.00604503 -0.00126907)
(0.105194 0.00713579 -0.00174255)
(0.104762 0.00869881 -0.00233409)
(0.103806 0.010899 -0.00306042)
(0.102163 0.0139327 -0.00393532)
(0.099965 0.0181145 -0.00497044)
(0.0964916 0.0238767 -0.00616548)
(0.0923398 0.0319675 -0.00749451)
(0.0847704 0.0435885 -0.00890094)
(0.0761451 0.0601503 -0.0101473)
(0.055221 0.0825648 -0.0106051)
(0.0314509 0.0847543 -0.00699976)
(0.0879725 0.0163881 -3.83365e-05)
(0.0746022 0.0100233 -0.000157044)
(0.0626427 0.0056073 -0.000295912)
(0.0567263 0.00249501 -0.000443292)
(0.0529353 0.00115981 -0.000624939)
(0.0503583 0.000603709 -0.00085747)
(0.048013 0.000413768 -0.00115404)
(0.0455558 0.000361694 -0.0015228)
(0.0426173 0.000373777 -0.00197592)
(0.0391626 0.000399132 -0.00251354)
(0.0347364 0.000447065 -0.00315049)
(0.0296479 0.000445059 -0.00384128)
(0.023118 0.000485973 -0.00460898)
(0.0160528 0.00032882 -0.00522279)
(0.00771537 0.00027762 -0.00551786)
(0.000152377 -0.000983994 -0.0036166)
(0.10392 0.0159093 -8.87086e-05)
(0.103841 0.0133996 -0.000293776)
(0.10131 0.00943084 -0.000525937)
(0.0980894 0.0057297 -0.000767136)
(0.0947364 0.00368024 -0.00105554)
(0.091488 0.00269789 -0.00142214)
(0.0880033 0.00238938 -0.00189191)
(0.0840516 0.00245651 -0.00248222)
(0.0792194 0.00277489 -0.00321398)
(0.0733889 0.00326312 -0.00409484)
(0.0659117 0.00392125 -0.00514634)
(0.0570341 0.00463906 -0.00631731)
(0.0456209 0.00550333 -0.00762027)
(0.0328096 0.00605486 -0.00873446)
(0.017208 0.00628854 -0.00926565)
(0.00290932 0.00288496 -0.00606371)
(0.103585 0.0100706 -9.8643e-05)
(0.10631 0.0118719 -0.000322204)
(0.107156 0.0100077 -0.000569595)
(0.105879 0.00737311 -0.000823052)
(0.103705 0.00562506 -0.00112517)
(0.100982 0.00473219 -0.00150938)
(0.0977119 0.00455269 -0.00200267)
(0.0937783 0.00488551 -0.00262408)
(0.0888244 0.00563617 -0.00339581)
(0.0827379 0.00672995 -0.00432777)
(0.074813 0.00817427 -0.00544198)
(0.065264 0.00983164 -0.00668989)
(0.0527558 0.0117826 -0.00807894)
(0.038454 0.0133436 -0.0092797)
(0.0205303 0.0140773 -0.00984665)
(0.00365597 0.00826236 -0.00641243)
(0.101782 0.00680868 -9.33521e-05)
(0.104174 0.0097413 -0.000313145)
(0.105805 0.00926445 -0.000556095)
(0.105587 0.00777673 -0.000803842)
(0.104379 0.00663193 -0.00109909)
(0.102362 0.00611095 -0.00147435)
(0.0996235 0.00624741 -0.00195571)
(0.0961056 0.00696252 -0.00256158)
(0.0915015 0.00822922 -0.00331303)
(0.0857313 0.0100233 -0.0042203)
(0.0780495 0.0124049 -0.00530357)
(0.0686782 0.0152651 -0.00651824)
(0.0560704 0.0187433 -0.00786757)
(0.0414285 0.0219401 -0.00903688)
(0.0224505 0.0240227 -0.00957921)
(0.00397249 0.015549 -0.00621898)
(0.100916 0.00477739 -8.14923e-05)
(0.102705 0.00779098 -0.000289131)
(0.104322 0.00818676 -0.000521579)
(0.104593 0.0076145 -0.000758834)
(0.104017 0.00710634 -0.00104134)
(0.102607 0.00705087 -0.00139944)
(0.100439 0.00758475 -0.00185724)
(0.0974715 0.00872954 -0.00243157)
(0.0934276 0.0105266 -0.00314118)
(0.0882669 0.013014 -0.00399576)
(0.0812087 0.0163119 -0.00501192)
(0.0725078 0.020362 -0.00615051)
(0.0603098 0.0253886 -0.00740868)
(0.0458616 0.0302891 -0.00850123)
(0.0257301 0.0339401 -0.00899214)
(0.00505481 0.0224916 -0.00582365)
(0.100547 0.00353481 -6.72891e-05)
(0.101941 0.00622713 -0.000258973)
(0.103443 0.00704807 -0.000478103)
(0.104004 0.00708861 -0.000702638)
(0.103886 0.00711452 -0.000969569)
(0.102997 0.00751118 -0.00130652)
(0.101379 0.00845821 -0.00173509)
(0.0989953 0.0100503 -0.00227014)
(0.0955872 0.0123996 -0.00292742)
(0.0911485 0.0156409 -0.00371568)
(0.0848599 0.0200117 -0.00464684)
(0.0770218 0.0256421 -0.00568812)