/*--------------------------------*- C++ -*----------------------------------*\
| =========                 |                                                 |
| \\      /  F ield         | OpenFOAM: The Open Source CFD Toolbox           |
|  \\    /   O peration     | Version:  v1912                                 |
|   \\  /    A nd           | Website:  www.openfoam.com                      |
|    \\/     M anipulation  |                                                 |
\*---------------------------------------------------------------------------*/
FoamFile
{
    version     2.0;
    format      ascii;
    class       volVectorField;
    location    "0.32/fluid";
    object      cellMotionU;
}
// * * * * * * * * * * * * * * * * * * * * * * * * * * * * * * * * * * * * * //

dimensions      [0 1 -1 0 0 0 0];


internalField   nonuniform List<vector> 
14592
(
(1.94669e-10 -4.93347e-10 3.70247e-10)
(5.41872e-10 -1.37981e-09 1.04725e-09)
(8.59159e-10 -2.20485e-09 1.71205e-09)
(1.15547e-09 -2.99883e-09 2.40639e-09)
(1.4408e-09 -3.78482e-09 3.1722e-09)
(1.72333e-09 -4.57109e-09 4.04377e-09)
(2.01246e-09 -5.35468e-09 5.05516e-09)
(2.31955e-09 -6.11702e-09 6.23912e-09)
(2.66262e-09 -6.81353e-09 7.6268e-09)
(3.07526e-09 -7.35752e-09 9.2491e-09)
(3.63271e-09 -7.58288e-09 1.11431e-08)
(4.50953e-09 -7.15754e-09 1.33765e-08)
(6.15873e-09 -5.31838e-09 1.61527e-08)
(9.7619e-09 -8.7363e-11 2.0127e-08)
(1.82207e-08 1.37137e-08 2.71945e-08)
(3.44195e-08 4.25996e-08 3.90542e-08)
(5.8014e-10 -1.46473e-09 1.10065e-09)
(1.61551e-09 -4.09725e-09 3.11406e-09)
(2.55984e-09 -6.54953e-09 5.08835e-09)
(3.44367e-09 -8.91439e-09 7.15479e-09)
(4.29313e-09 -1.12527e-08 9.42591e-09)
(5.1342e-09 -1.35975e-08 1.20091e-08)
(5.99377e-09 -1.59461e-08 1.50049e-08)
(6.90409e-09 -1.82496e-08 1.85082e-08)
(7.91168e-09 -2.03916e-08 2.26076e-08)
(9.09906e-09 -2.21466e-08 2.73822e-08)
(1.06343e-08 -2.31108e-08 3.29037e-08)
(1.28707e-08 -2.25694e-08 3.92458e-08)
(1.66094e-08 -1.92381e-08 4.65593e-08)
(2.34682e-08 -1.09104e-08 5.52489e-08)
(3.61003e-08 5.36871e-09 6.60793e-08)
(5.40399e-08 2.73713e-08 7.79679e-08)
(9.55641e-10 -2.39183e-09 1.80382e-09)
(2.66091e-09 -6.69321e-09 5.10274e-09)
(4.21668e-09 -1.07073e-08 8.33841e-09)
(5.67213e-09 -1.4582e-08 1.17182e-08)
(7.07186e-09 -1.84268e-08 1.54306e-08)
(8.45829e-09 -2.23034e-08 1.96493e-08)
(9.87506e-09 -2.62227e-08 2.45388e-08)
(1.13718e-08 -3.01302e-08 3.02551e-08)
(1.30135e-08 -3.38778e-08 3.69417e-08)
(1.49021e-08 -3.71808e-08 4.47226e-08)
(1.72139e-08 -3.95508e-08 5.36818e-08)
(2.0283e-08 -4.02118e-08 6.38438e-08)
(2.48199e-08 -3.80025e-08 7.51781e-08)
(3.21099e-08 -3.15949e-08 8.76796e-08)
(4.41482e-08 -2.0544e-08 1.01494e-07)
(6.03273e-08 -9.09592e-09 1.15393e-07)
(1.31476e-09 -3.24484e-09 2.4628e-09)
(3.65996e-09 -9.08496e-09 6.96558e-09)
(5.79993e-09 -1.4544e-08 1.1379e-08)
(7.8022e-09 -1.98302e-08 1.59841e-08)
(9.72821e-09 -2.50971e-08 2.10325e-08)
(1.16374e-08 -3.04473e-08 2.67616e-08)
(1.35901e-08 -3.59222e-08 3.33962e-08)
(1.56526e-08 -4.14891e-08 4.11506e-08)
(1.79037e-08 -4.70177e-08 5.0225e-08)
(2.04475e-08 -5.22395e-08 6.07914e-08)
(2.34117e-08 -5.67035e-08 7.29532e-08)
(2.70374e-08 -5.96912e-08 8.67088e-08)
(3.16871e-08 -6.02262e-08 1.01848e-07)
(3.80255e-08 -5.72704e-08 1.17936e-07)
(4.71747e-08 -5.0533e-08 1.34249e-07)
(5.89137e-08 -4.27214e-08 1.48536e-07)
(1.65069e-09 -3.99459e-09 3.0624e-09)
(4.59537e-09 -1.11901e-08 8.66084e-09)
(7.28152e-09 -1.79297e-08 1.41411e-08)
(9.794e-09 -2.44762e-08 1.98467e-08)
(1.22113e-08 -3.10356e-08 2.60888e-08)
(1.46092e-08 -3.77552e-08 3.31577e-08)
(1.70661e-08 -4.47211e-08 4.13319e-08)
(1.96674e-08 -5.19485e-08 5.08804e-08)
(2.25112e-08 -5.93654e-08 6.2061e-08)
(2.57082e-08 -6.67871e-08 7.51049e-08)
(2.93827e-08 -7.38703e-08 9.01806e-08)
(3.36626e-08 -8.00396e-08 1.07317e-07)
(3.86737e-08 -8.43974e-08 1.263e-07)
(4.45048e-08 -8.56435e-08 1.46445e-07)
(5.14412e-08 -8.2261e-08 1.66268e-07)
(5.95067e-08 -7.48192e-08 1.82055e-07)
(1.95798e-09 -4.61379e-09 3.59174e-09)
(5.45016e-09 -1.29296e-08 1.01538e-08)
(8.63386e-09 -2.07344e-08 1.65655e-08)
(1.16097e-08 -2.83461e-08 2.32246e-08)
(1.44707e-08 -3.60165e-08 3.04862e-08)
(1.73086e-08 -4.39427e-08 3.86854e-08)
(2.02205e-08 -5.22632e-08 4.81436e-08)
(2.3315e-08 -6.10567e-08 5.91753e-08)
(2.67204e-08 -7.03387e-08 7.20928e-08)
(3.05852e-08 -8.00509e-08 8.71946e-08)
(3.50851e-08 -9.00349e-08 1.04747e-07)
(4.04116e-08 -9.99717e-08 1.24937e-07)
(4.67329e-08 -1.09208e-07 1.47771e-07)
(5.40483e-08 -1.16333e-07 1.72805e-07)
(6.20546e-08 -1.18301e-07 1.98402e-07)
(6.93962e-08 -1.11574e-07 2.18918e-07)
(2.23122e-09 -5.07535e-09 4.04139e-09)
(6.20955e-09 -1.42296e-08 1.14193e-08)
(9.83285e-09 -2.28411e-08 1.86119e-08)
(1.32138e-08 -3.12716e-08 2.60549e-08)
(1.64579e-08 -3.98187e-08 3.41396e-08)
(1.96701e-08 -4.87233e-08 4.32297e-08)
(2.29637e-08 -5.81752e-08 5.36749e-08)
(2.64706e-08 -6.83193e-08 6.58202e-08)
(3.03542e-08 -7.92646e-08 8.00162e-08)
(3.48226e-08 -9.10956e-08 9.66196e-08)
(4.01614e-08 -1.03886e-07 1.16002e-07)
(4.67796e-08 -1.17701e-07 1.38554e-07)
(5.52911e-08 -1.32568e-07 1.64718e-07)
(6.65402e-08 -1.48215e-07 1.9488e-07)
(8.14115e-08 -1.63046e-07 2.28665e-07)
(9.74412e-08 -1.71595e-07 2.59614e-07)
(2.46619e-09 -5.35752e-09 4.40648e-09)
(6.86151e-09 -1.50284e-08 1.24433e-08)
(1.08586e-08 -2.41474e-08 2.02561e-08)
(1.45785e-08 -3.3112e-08 2.83078e-08)
(1.81338e-08 -4.22521e-08 3.70071e-08)
(2.1638e-08 -5.18442e-08 4.67326e-08)
(2.52148e-08 -6.21192e-08 5.78441e-08)
(2.90106e-08 -7.32751e-08 7.06949e-08)
(3.32132e-08 -8.54942e-08 8.56452e-08)
(3.80743e-08 -9.89701e-08 1.03069e-07)
(4.39663e-08 -1.13951e-07 1.23382e-07)
(5.14899e-08 -1.30827e-07 1.47096e-07)
(6.17009e-08 -1.50298e-07 1.7497e-07)
(7.65719e-08 -1.73723e-07 2.08263e-07)
(9.97762e-08 -2.03453e-07 2.4893e-07)
(1.31801e-07 -2.37954e-07 2.93251e-07)
(1.91286e-10 -5.02852e-10 3.51877e-10)
(5.32021e-10 -1.40637e-09 9.95299e-10)
(8.40905e-10 -2.24791e-09 1.62514e-09)
(1.12678e-09 -3.05868e-09 2.28286e-09)
(1.39647e-09 -3.86122e-09 3.00428e-09)
(1.65597e-09 -4.66651e-09 3.82246e-09)
(1.91022e-09 -5.47354e-09 4.76738e-09)
(2.16363e-09 -6.26705e-09 5.86673e-09)
(2.42232e-09 -7.00884e-09 7.14348e-09)
(2.69869e-09 -7.62765e-09 8.61561e-09)
(3.02307e-09 -7.99201e-09 1.02901e-08)
(3.48424e-09 -7.85532e-09 1.2167e-08)
(4.27878e-09 -6.72096e-09 1.42408e-08)
(5.85529e-09 -3.47643e-09 1.65436e-08)
(8.8573e-09 4.11446e-09 1.90485e-08)
(1.25531e-08 1.69076e-08 2.05322e-08)
(5.70467e-10 -1.49259e-09 1.04623e-09)
(1.58618e-09 -4.1755e-09 2.95805e-09)
(2.50756e-09 -6.67582e-09 4.83079e-09)
(3.3599e-09 -9.08719e-09 6.78408e-09)
(4.16457e-09 -1.14756e-08 8.92494e-09)
(4.93937e-09 -1.38768e-08 1.13504e-08)
(5.69882e-09 -1.62932e-08 1.41496e-08)
(6.4556e-09 -1.86848e-08 1.74024e-08)
(7.22356e-09 -2.09534e-08 2.11765e-08)
(8.02746e-09 -2.29095e-08 2.55139e-08)
(8.92793e-09 -2.42318e-08 3.04149e-08)
(1.00736e-08 -2.43915e-08 3.57998e-08)
(1.17999e-08 -2.2556e-08 4.14437e-08)
(1.46631e-08 -1.75957e-08 4.6814e-08)
(1.90006e-08 -8.87185e-09 5.06147e-08)
(2.28298e-08 1.18652e-10 5.0429e-08)
(9.4041e-10 -2.43694e-09 1.71434e-09)
(2.61502e-09 -6.81957e-09 4.84687e-09)
(4.13458e-09 -1.09097e-08 7.91434e-09)
(5.54147e-09 -1.48616e-08 1.11111e-08)
(6.87184e-09 -1.8787e-08 1.46112e-08)
(8.15598e-09 -2.27535e-08 1.85729e-08)
(9.4191e-09 -2.67787e-08 2.31424e-08)
(1.06817e-08 -3.08197e-08 2.84525e-08)
(1.19613e-08 -3.47503e-08 3.46139e-08)
(1.3276e-08 -3.8333e-08 4.16972e-08)
(1.4659e-08 -4.11757e-08 4.96935e-08)
(1.61998e-08 -4.27057e-08 5.84514e-08)
(1.80696e-08 -4.22193e-08 6.75288e-08)
(2.05449e-08 -3.92635e-08 7.60226e-08)
(2.36117e-08 -3.48111e-08 8.22041e-08)
(2.56668e-08 -3.28152e-08 8.37502e-08)
(1.29505e-09 -3.30549e-09 2.34012e-09)
(3.6018e-09 -9.25421e-09 6.61673e-09)
(5.6956e-09 -1.48158e-08 1.08006e-08)
(7.63639e-09 -2.02037e-08 1.51558e-08)
(9.47534e-09 -2.55783e-08 1.99162e-08)
(1.12569e-08 -3.10464e-08 2.5297e-08)
(1.30193e-08 -3.66561e-08 3.14986e-08)
(1.47942e-08 -4.23854e-08 3.87047e-08)
(1.6604e-08 -4.81248e-08 4.70737e-08)
(1.84537e-08 -5.36477e-08 5.67108e-08)
(2.03326e-08 -5.85839e-08 6.76305e-08)
(2.21705e-08 -6.24043e-08 7.96188e-08)
(2.38407e-08 -6.45025e-08 9.21238e-08)
(2.50494e-08 -6.45697e-08 1.03907e-07)
(2.52206e-08 -6.34793e-08 1.12685e-07)
(2.35693e-08 -6.38324e-08 1.15441e-07)
(1.62859e-09 -4.06874e-09 2.91051e-09)
(4.5295e-09 -1.13965e-08 8.22724e-09)
(7.16367e-09 -1.82602e-08 1.3423e-08)
(9.60746e-09 -2.49314e-08 1.88206e-08)
(1.19278e-08 -3.16202e-08 2.47069e-08)
(1.41848e-08 -3.84793e-08 3.1347e-08)
(1.64336e-08 -4.55994e-08 3.89892e-08)
(1.87237e-08 -5.30032e-08 4.78658e-08)
(2.10938e-08 -6.06315e-08 5.81832e-08)
(2.35605e-08 -6.83255e-08 7.01013e-08)
(2.60844e-08 -7.57964e-08 8.36711e-08)
(2.85118e-08 -8.25909e-08 9.87316e-08)
(3.0432e-08 -8.80792e-08 1.14695e-07)
(3.09858e-08 -9.15618e-08 1.30153e-07)
(2.88197e-08 -9.27838e-08 1.42259e-07)
(2.36113e-08 -9.31508e-08 1.46852e-07)
(1.93509e-09 -4.69844e-09 3.41403e-09)
(5.38178e-09 -1.31657e-08 9.64656e-09)
(8.51174e-09 -2.11132e-08 1.57267e-08)
(1.14166e-08 -2.88658e-08 2.20262e-08)
(1.41786e-08 -3.66825e-08 2.88747e-08)
(1.68742e-08 -4.47632e-08 3.65772e-08)
(1.95784e-08 -5.3249e-08 4.54211e-08)
(2.23659e-08 -6.22205e-08 5.56787e-08)
(2.53099e-08 -7.16964e-08 6.76032e-08)
(2.84723e-08 -8.16231e-08 8.14111e-08)
(3.18747e-08 -9.18582e-08 9.72324e-08)
(3.54289e-08 -1.02117e-07 1.15019e-07)
(3.8751e-08 -1.11854e-07 1.34334e-07)
(4.07883e-08 -1.19993e-07 1.53877e-07)
(3.93259e-08 -1.24594e-07 1.70564e-07)
(3.24545e-08 -1.24022e-07 1.78859e-07)
(2.20907e-09 -5.16805e-09 3.84201e-09)
(6.14332e-09 -1.4488e-08 1.08507e-08)
(9.71452e-09 -2.32547e-08 1.76721e-08)
(1.30274e-08 -3.18394e-08 2.4715e-08)
(1.6177e-08 -4.05442e-08 3.23405e-08)
(1.92551e-08 -4.96127e-08 4.0881e-08)
(2.2356e-08 -5.92348e-08 5.06492e-08)
(2.55827e-08 -6.95521e-08 6.19444e-08)
(2.90515e-08 -8.06661e-08 7.50515e-08)
(3.28986e-08 -9.26471e-08 9.02351e-08)
(3.72774e-08 -1.05542e-07 1.07703e-07)
(4.23486e-08 -1.1937e-07 1.27554e-07)
(4.81919e-08 -1.34058e-07 1.49611e-07)
(5.45322e-08 -1.49186e-07 1.72972e-07)
(5.98728e-08 -1.63132e-07 1.94779e-07)
(6.029e-08 -1.71451e-07 2.07977e-07)
(2.446e-09 -5.45494e-09 4.18977e-09)
(6.80116e-09 -1.52999e-08 1.18259e-08)
(1.07508e-08 -2.45824e-08 1.92374e-08)
(1.44086e-08 -3.37081e-08 2.68569e-08)
(1.7879e-08 -4.30124e-08 3.50633e-08)
(2.12642e-08 -5.27729e-08 4.42021e-08)
(2.46727e-08 -6.32188e-08 5.45954e-08)
(2.82285e-08 -7.45404e-08 6.65494e-08)
(3.20829e-08 -8.69049e-08 8.03564e-08)
(3.64332e-08 -1.00477e-07 9.62942e-08)
(4.15525e-08 -1.15453e-07 1.14603e-07)
(4.78438e-08 -1.32109e-07 1.3546e-07)
(5.59218e-08 -1.50896e-07 1.58878e-07)
(6.67355e-08 -1.72554e-07 1.84383e-07)
(8.13202e-08 -1.9778e-07 2.0974e-07)
(9.73255e-08 -2.22884e-07 2.2724e-07)
(1.87138e-10 -5.10889e-10 3.20778e-10)
(5.19554e-10 -1.42894e-09 9.06634e-10)
(8.18978e-10 -2.28434e-09 1.48019e-09)
(1.09177e-09 -3.10866e-09 2.07656e-09)
(1.34299e-09 -3.92577e-09 2.72914e-09)
(1.57514e-09 -4.7475e-09 3.46562e-09)
(1.78789e-09 -5.57608e-09 4.31144e-09)
(1.97779e-09 -6.39885e-09 5.2869e-09)
(2.13666e-09 -7.18951e-09 6.40793e-09)
(2.25206e-09 -7.89326e-09 7.67612e-09)
(2.30828e-09 -8.42422e-09 9.0744e-09)
(2.28262e-09 -8.6438e-09 1.05399e-08)
(2.14197e-09 -8.32018e-09 1.19358e-08)
(1.72945e-09 -7.06161e-09 1.29443e-08)
(4.4223e-10 -4.29439e-09 1.28407e-08)
(-2.88342e-09 -2.46905e-10 1.0336e-08)
(5.58258e-10 -1.51626e-09 9.53449e-10)
(1.55024e-09 -4.24192e-09 2.69542e-09)
(2.44338e-09 -6.78226e-09 4.39843e-09)
(3.2583e-09 -9.23371e-09 6.17121e-09)
(4.00953e-09 -1.1664e-08 8.10739e-09)
(4.70527e-09 -1.41135e-08 1.02912e-08)
(5.34571e-09 -1.65893e-08 1.27961e-08)
(5.9205e-09 -1.90648e-08 1.5685e-08)
(6.40541e-09 -2.14617e-08 1.89986e-08)
(6.75935e-09 -2.36422e-08 2.27428e-08)
(6.92166e-09 -2.53862e-08 2.68512e-08)
(6.8108e-09 -2.63861e-08 3.11185e-08)
(6.30088e-09 -2.62695e-08 3.50663e-08)
(5.11752e-09 -2.4766e-08 3.76947e-08)
(2.60895e-09 -2.22551e-08 3.71455e-08)
(-1.6417e-09 -2.07162e-08 3.19819e-08)
(9.21168e-10 -2.47525e-09 1.56238e-09)
(2.55842e-09 -6.9263e-09 4.41659e-09)
(4.03375e-09 -1.10814e-08 7.20666e-09)
(5.38206e-09 -1.50967e-08 1.01079e-08)
(6.62911e-09 -1.90889e-08 1.32737e-08)
(7.79061e-09 -2.31295e-08 1.68407e-08)
(8.87013e-09 -2.72443e-08 2.09312e-08)
(9.85414e-09 -3.14031e-08 2.56479e-08)
(1.07049e-08 -3.55104e-08 3.10637e-08)
(1.13493e-08 -3.93837e-08 3.71931e-08)
(1.16638e-08 -4.27526e-08 4.39412e-08)
(1.1447e-08 -4.52793e-08 5.0994e-08)
(1.0404e-08 -4.66878e-08 5.76818e-08)
(8.06256e-09 -4.7147e-08 6.2694e-08)
(3.84957e-09 -4.79051e-08 6.40105e-08)
(-1.71632e-09 -5.07602e-08 6.06048e-08)
(1.27049e-09 -3.35657e-09 2.13348e-09)
(3.52884e-09 -9.39745e-09 6.02922e-09)
(5.56619e-09 -1.50444e-08 9.83569e-09)
(7.43224e-09 -2.05166e-08 1.37887e-08)
(9.16539e-09 -2.59776e-08 1.80946e-08)
(1.07923e-08 -3.15391e-08 2.29399e-08)
(1.23249e-08 -3.72549e-08 2.84918e-08)
(1.37546e-08 -4.31164e-08 3.48957e-08)
(1.50388e-08 -4.90356e-08 4.22573e-08)
(1.6083e-08 -5.48372e-08 5.06171e-08)
(1.66901e-08 -6.02517e-08 5.98654e-08)
(1.65299e-08 -6.49421e-08 6.96724e-08)
(1.50047e-08 -6.86463e-08 7.92331e-08)
(1.1232e-08 -7.15308e-08 8.70884e-08)
(4.35299e-09 -7.4658e-08 9.10117e-08)
(-4.22291e-09 -7.89883e-08 8.95881e-08)
(1.60029e-09 -4.13103e-09 2.65361e-09)
(4.44583e-09 -1.15698e-08 7.49804e-09)
(7.01542e-09 -1.85371e-08 1.22257e-08)
(9.37408e-09 -2.53086e-08 1.7125e-08)
(1.15749e-08 -3.20986e-08 2.245e-08)
(1.36585e-08 -3.90623e-08 2.84295e-08)
(1.56522e-08 -4.62943e-08 3.52726e-08)
(1.75623e-08 -5.38216e-08 4.3162e-08)
(1.93623e-08 -6.15982e-08 5.22435e-08)
(2.09601e-08 -6.94906e-08 6.25862e-08)
(2.21465e-08 -7.72685e-08 7.412e-08)
(2.24867e-08 -8.45967e-08 8.65051e-08)
(2.11432e-08 -9.10745e-08 9.89354e-08)
(1.67122e-08 -9.63919e-08 1.09837e-07)
(7.65038e-09 -1.00668e-07 1.16702e-07)
(-4.20144e-09 -1.04441e-07 1.17395e-07)
(1.90494e-09 -4.76935e-09 3.11283e-09)
(5.29306e-09 -1.33632e-08 8.79325e-09)
(8.3546e-09 -2.14277e-08 1.43261e-08)
(1.11701e-08 -2.92928e-08 2.00449e-08)
(1.38073e-08 -3.72202e-08 2.62408e-08)
(1.63239e-08 -4.54107e-08 3.31779e-08)
(1.8767e-08 -5.40037e-08 4.10976e-08)
(2.11707e-08 -6.30774e-08 5.02163e-08)
(2.35443e-08 -7.26448e-08 6.07129e-08)
(2.58471e-08 -8.26498e-08 7.26953e-08)
(2.79354e-08 -9.29485e-08 8.61379e-08)
(2.9445e-08 -1.03269e-07 1.00753e-07)
(2.95532e-08 -1.13121e-07 1.15776e-07)
(2.66187e-08 -1.21606e-07 1.29596e-07)
(1.8171e-08 -1.27198e-07 1.39456e-07)
(4.56295e-09 -1.28408e-07 1.42505e-07)
(2.17902e-09 -5.24521e-09 3.50401e-09)
(6.05465e-09 -1.47026e-08 9.89263e-09)
(9.55797e-09 -2.3596e-08 1.61014e-08)
(1.27823e-08 -3.23012e-08 2.2496e-08)
(1.58098e-08 -4.1122e-08 2.93958e-08)
(1.87142e-08 -5.03006e-08 3.70888e-08)
(2.15651e-08 -6.00207e-08 4.5838e-08)
(2.44279e-08 -7.04123e-08 5.58803e-08)
(2.73632e-08 -8.15562e-08 6.74185e-08)
(3.04131e-08 -9.34884e-08 8.05882e-08)
(3.35796e-08 -1.06196e-07 9.54046e-08)
(3.67546e-08 -1.1959e-07 1.11634e-07)
(3.95574e-08 -1.33418e-07 1.28565e-07)
(4.10059e-08 -1.46986e-07 1.44534e-07)
(3.90791e-08 -1.58481e-07 1.56331e-07)
(3.21057e-08 -1.64183e-07 1.60031e-07)
(2.41744e-09 -5.5356e-09 3.8219e-09)
(6.71708e-09 -1.55243e-08 1.0784e-08)
(1.06024e-08 -2.49389e-08 1.75312e-08)
(1.41771e-08 -3.41891e-08 2.44507e-08)
(1.75337e-08 -4.36112e-08 3.18777e-08)
(2.0759e-08 -5.34794e-08 4.01116e-08)
(2.394e-08 -6.40131e-08 4.94235e-08)
(2.71697e-08 -7.53842e-08 6.00554e-08)
(3.05514e-08 -8.77279e-08 7.2214e-08)
(3.42044e-08 -1.01152e-07 8.604e-08)
(3.82694e-08 -1.1575e-07 1.01556e-07)
(4.29085e-08 -1.31608e-07 1.18552e-07)
(4.82873e-08 -1.48809e-07 1.36338e-07)
(5.45542e-08 -1.6738e-07 1.53183e-07)
(6.17514e-08 -1.86916e-07 1.6529e-07)
(6.89125e-08 -2.04007e-07 1.66979e-07)
(1.82646e-10 -5.17397e-10 2.78275e-10)
(5.06429e-10 -1.44728e-09 7.86622e-10)
(7.95416e-10 -2.31355e-09 1.28261e-09)
(1.05491e-09 -3.14883e-09 1.7987e-09)
(1.28693e-09 -3.97748e-09 2.36071e-09)
(1.49094e-09 -4.81284e-09 2.99228e-09)
(1.66189e-09 -5.65842e-09 3.71271e-09)
(1.78887e-09 -6.50689e-09 4.5371e-09)
(1.85214e-09 -7.33826e-09 5.47315e-09)
(1.81977e-09 -8.11585e-09 6.51453e-09)
(1.64037e-09 -8.78786e-09 7.631e-09)
(1.23629e-09 -9.28288e-09 8.75445e-09)
(4.59212e-10 -9.51354e-09 9.74157e-09)
(-1.01901e-09 -9.35419e-09 1.03687e-08)
(-3.95691e-09 -8.59454e-09 1.03411e-08)
(-8.8862e-09 -6.9911e-09 9.52751e-09)
(5.4524e-10 -1.53553e-09 8.27385e-10)
(1.51164e-09 -4.29554e-09 2.33766e-09)
(2.3752e-09 -6.86837e-09 3.8133e-09)
(3.15071e-09 -9.3516e-09 5.34511e-09)
(3.84631e-09 -1.18153e-08 7.01302e-09)
(4.46066e-09 -1.43027e-08 8.88517e-09)
(4.98047e-09 -1.68268e-08 1.10194e-08)
(5.3748e-09 -1.93698e-08 1.34603e-08)
(5.58766e-09 -2.18754e-08 1.6229e-08)
(5.52603e-09 -2.42456e-08 1.93063e-08)
(5.04668e-09 -2.63394e-08 2.2599e-08)
(3.94048e-09 -2.79926e-08 2.58878e-08)
(1.90839e-09 -2.90616e-08 2.87416e-08)
(-1.44459e-09 -2.9518e-08 3.04308e-08)
(-6.36812e-09 -2.9553e-08 3.00439e-08)
(-1.14888e-08 -2.94741e-08 2.77079e-08)
(9.00621e-10 -2.50611e-09 1.35598e-09)
(2.49749e-09 -7.01317e-09 3.831e-09)
(3.926e-09 -1.12197e-08 6.2481e-09)
(5.21255e-09 -1.52855e-08 8.75578e-09)
(6.3724e-09 -1.93293e-08 1.14827e-08)
(7.40705e-09 -2.34268e-08 1.45407e-08)
(8.29963e-09 -2.76096e-08 1.80258e-08)
(9.00643e-09 -3.18605e-08 2.20124e-08)
(9.44375e-09 -3.61071e-08 2.65404e-08)
(9.46696e-09 -4.02156e-08 3.1585e-08)
(8.84743e-09 -4.40029e-08 3.70138e-08)
(7.25473e-09 -4.72765e-08 4.25211e-08)
(4.23965e-09 -4.99575e-08 4.7499e-08)
(-6.1084e-10 -5.23133e-08 5.10585e-08)
(-7.09783e-09 -5.51379e-08 5.2304e-08)
(-1.2773e-08 -5.87387e-08 5.17005e-08)
(1.2437e-09 -3.39821e-09 1.85124e-09)
(3.45024e-09 -9.51295e-09 5.23146e-09)
(5.42708e-09 -1.52287e-08 8.52891e-09)
(7.21365e-09 -2.07662e-08 1.19456e-08)
(8.8354e-09 -2.62922e-08 1.56546e-08)
(1.03013e-08 -3.19214e-08 1.98084e-08)
(1.15985e-08 -3.77129e-08 2.45392e-08)
(1.26821e-08 -4.36657e-08 2.99526e-08)
(1.34568e-08 -4.97119e-08 3.61097e-08)
(1.37463e-08 -5.57129e-08 4.29939e-08)
(1.32607e-08 -6.14651e-08 5.04733e-08)
(1.15275e-08 -6.67436e-08 5.81683e-08)
(7.88889e-09 -7.14176e-08 6.54412e-08)
(1.65271e-09 -7.56925e-08 7.13233e-08)
(-7.06177e-09 -8.02499e-08 7.48983e-08)
(-1.50207e-08 -8.50298e-08 7.6308e-08)
(1.56935e-09 -4.1812e-09 2.30337e-09)
(4.3548e-09 -1.17097e-08 6.50685e-09)
(6.8545e-09 -1.87587e-08 1.0603e-08)
(9.12199e-09 -2.56067e-08 1.48382e-08)
(1.11956e-08 -3.24702e-08 1.94251e-08)
(1.3097e-08 -3.95054e-08 2.45515e-08)
(1.48263e-08 -4.6807e-08 3.03826e-08)
(1.63523e-08 -5.44044e-08 3.70523e-08)
(1.75918e-08 -6.22565e-08 4.46467e-08)
(1.83769e-08 -7.02434e-08 5.31708e-08)
(1.83975e-08 -7.81624e-08 6.24872e-08)
(1.71134e-08 -8.57246e-08 7.22305e-08)
(1.36529e-08 -9.25876e-08 8.17137e-08)
(6.89096e-09 -9.845e-08 8.99341e-08)
(-3.64511e-09 -1.03205e-07 9.5868e-08)
(-1.43808e-08 -1.06776e-07 9.92018e-08)
(1.87179e-09 -4.82635e-09 2.70292e-09)
(5.19521e-09 -1.35216e-08 7.63215e-09)
(8.18215e-09 -2.16777e-08 1.2427e-08)
(1.09006e-08 -2.9627e-08 1.7371e-08)
(1.34035e-08 -3.76317e-08 2.27084e-08)
(1.57291e-08 -4.5891e-08 2.86563e-08)
(1.78983e-08 -5.45394e-08 3.54054e-08)
(1.99074e-08 -6.36471e-08 4.31139e-08)
(2.17119e-08 -7.32153e-08 5.18889e-08)
(2.31984e-08 -8.31704e-08 6.17559e-08)
(2.41281e-08 -9.33441e-08 7.25898e-08)
(2.40373e-08 -1.03429e-07 8.4025e-08)
(2.20736e-08 -1.12882e-07 9.5343e-08)
(1.68827e-08 -1.20738e-07 1.05452e-07)
(7.1087e-09 -1.25366e-07 1.13157e-07)
(-5.07006e-09 -1.25232e-07 1.17887e-07)
(2.14532e-09 -5.30684e-09 3.04291e-09)
(5.95551e-09 -1.48736e-08 8.5881e-09)
(9.38335e-09 -2.38653e-08 1.39695e-08)
(1.25104e-08 -3.26588e-08 1.94987e-08)
(1.54042e-08 -4.15575e-08 2.54434e-08)
(1.81204e-08 -5.07988e-08 3.20404e-08)
(2.07037e-08 -6.05562e-08 3.94974e-08)
(2.31853e-08 -7.09419e-08 4.79874e-08)
(2.55757e-08 -8.20083e-08 5.76304e-08)
(2.78507e-08 -9.37437e-08 6.8463e-08)
(2.99216e-08 -1.06059e-07 8.03644e-08)
(3.15759e-08 -1.18741e-07 9.29535e-08)
(3.23728e-08 -1.31348e-07 1.05435e-07)
(3.15384e-08 -1.42955e-07 1.16486e-07)
(2.80817e-08 -1.51635e-07 1.24434e-07)
(2.23366e-08 -1.54377e-07 1.28449e-07)
(2.38482e-09 -5.59968e-09 3.31967e-09)
(6.62106e-09 -1.57021e-08 9.36382e-09)
(1.04337e-08 -2.5218e-08 1.52132e-08)
(1.39153e-08 -3.45583e-08 2.11974e-08)
(1.7145e-08 -4.40567e-08 2.75977e-08)
(2.01934e-08 -5.39805e-08 3.46605e-08)
(2.31259e-08 -6.45346e-08 4.26e-08)
(2.60048e-08 -7.58666e-08 5.15919e-08)
(2.88902e-08 -8.80698e-08 6.17558e-08)
(3.18422e-08 -1.01185e-07 7.31244e-08)
(3.49188e-08 -1.15194e-07 8.55667e-08)
(3.81738e-08 -1.29999e-07 9.86696e-08)
(4.16701e-08 -1.454e-07 1.11544e-07)
(4.56177e-08 -1.61063e-07 1.2258e-07)
(5.07651e-08 -1.76416e-07 1.29326e-07)
(5.80149e-08 -1.89418e-07 1.3006e-07)
(1.78349e-10 -5.22422e-10 2.26241e-10)
(4.93621e-10 -1.46121e-09 6.38862e-10)
(7.73143e-10 -2.33543e-09 1.04225e-09)
(1.01962e-09 -3.17954e-09 1.45972e-09)
(1.23389e-09 -4.0164e-09 1.91385e-09)
(1.41209e-09 -4.86187e-09 2.42187e-09)
(1.54569e-09 -5.71986e-09 2.99775e-09)
(1.61828e-09 -6.58702e-09 3.65211e-09)
(1.60312e-09 -7.44707e-09 4.38743e-09)
(1.45761e-09 -8.27573e-09 5.19581e-09)
(1.1188e-09 -9.03639e-09 6.05102e-09)
(4.89865e-10 -9.68996e-09 6.89492e-09)
(-5.88466e-10 -1.0189e-08 7.64613e-09)
(-2.43816e-09 -1.04495e-08 8.20692e-09)
(-5.73245e-09 -1.02386e-08 8.58016e-09)
(-1.07517e-08 -9.01846e-09 8.85965e-09)
(5.32601e-10 -1.55028e-09 6.72433e-10)
(1.47468e-09 -4.33647e-09 1.9003e-09)
(2.30963e-09 -6.93436e-09 3.09758e-09)
(3.04814e-09 -9.44093e-09 4.33912e-09)
(3.69162e-09 -1.19304e-08 5.68663e-09)
(4.23124e-09 -1.44456e-08 7.19226e-09)
(4.64294e-09 -1.70044e-08 8.89888e-09)
(4.88121e-09 -1.95951e-08 1.08358e-08)
(4.87011e-09 -2.21767e-08 1.30125e-08)
(4.49093e-09 -2.46735e-08 1.54022e-08)
(3.57148e-09 -2.69867e-08 1.79229e-08)
(1.87854e-09 -2.90075e-08 2.04042e-08)
(-8.69785e-10 -3.064e-08 2.25562e-08)
(-4.91612e-09 -3.18112e-08 2.39887e-08)
(-1.00669e-08 -3.23636e-08 2.43532e-08)
(-1.44494e-08 -3.19765e-08 2.37928e-08)
(8.80605e-10 -2.53005e-09 1.10226e-09)
(2.43882e-09 -7.07987e-09 3.11477e-09)
(3.82246e-09 -1.13256e-08 5.07701e-09)
(5.05033e-09 -1.54295e-08 7.10926e-09)
(6.12853e-09 -1.95104e-08 9.31202e-09)
(7.04652e-09 -2.36475e-08 1.17713e-08)
(7.7712e-09 -2.78763e-08 1.45577e-08)
(8.23765e-09 -3.21882e-08 1.77223e-08)
(8.33346e-09 -3.65245e-08 2.1282e-08)
(7.88202e-09 -4.07796e-08 2.52034e-08)
(6.62494e-09 -4.48105e-08 2.93682e-08)
(4.21854e-09 -4.84747e-08 3.35207e-08)
(3.06623e-10 -5.17104e-08 3.72852e-08)
(-5.22974e-09 -5.46565e-08 4.01669e-08)
(-1.15532e-08 -5.76797e-08 4.18706e-08)
(-1.585e-08 -6.06564e-08 4.26898e-08)
(1.21784e-09 -3.43021e-09 1.50601e-09)
(3.37396e-09 -9.60232e-09 4.25353e-09)
(5.29269e-09 -1.53701e-08 6.93194e-09)
(7.00364e-09 -2.09551e-08 9.70086e-09)
(8.52058e-09 -2.65271e-08 1.2697e-08)
(9.83754e-09 -3.22011e-08 1.60373e-08)
(1.09223e-08 -3.80389e-08 1.982e-08)
(1.17043e-08 -4.40435e-08 2.41165e-08)
(1.20568e-08 -5.01574e-08 2.89583e-08)
(1.17717e-08 -5.62576e-08 3.43143e-08)
(1.05286e-08 -6.21665e-08 4.00347e-08)
(7.88888e-09 -6.76804e-08 4.58621e-08)
(3.33294e-09 -7.26515e-08 5.1338e-08)
(-3.41755e-09 -7.71472e-08 5.59722e-08)
(-1.1527e-08 -8.15105e-08 5.94678e-08)
(-1.7602e-08 -8.55161e-08 6.1806e-08)
(1.53915e-09 -4.22006e-09 1.87382e-09)
(4.26596e-09 -1.18174e-08 5.29217e-09)
(6.69823e-09 -1.89277e-08 8.61937e-09)
(8.87831e-09 -2.58311e-08 1.2052e-08)
(1.08316e-08 -3.27433e-08 1.5757e-08)
(1.25632e-08 -3.98212e-08 1.98796e-08)
(1.40524e-08 -4.71573e-08 2.45417e-08)
(1.52409e-08 -5.47791e-08 2.98354e-08)
(1.60141e-08 -6.26423e-08 3.58063e-08)
(1.61726e-08 -7.06261e-08 4.2426e-08)
(1.53925e-08 -7.85226e-08 4.95533e-08)
(1.31781e-08 -8.60295e-08 5.68863e-08)
(8.84959e-09 -9.27558e-08 6.39583e-08)
(1.75551e-09 -9.82795e-08 7.02427e-08)
(-7.82384e-09 -1.02287e-07 7.53997e-08)
(-1.63019e-08 -1.04755e-07 7.90897e-08)
(1.83902e-09 -4.87034e-09 2.19903e-09)
(5.09913e-09 -1.36432e-08 6.20865e-09)
(8.01331e-09 -2.18676e-08 1.01041e-08)
(1.0638e-08 -2.98756e-08 1.41113e-08)
(1.30128e-08 -3.79297e-08 1.8423e-08)
(1.51592e-08 -4.62248e-08 2.32064e-08)
(1.70771e-08 -5.4889e-08 2.86029e-08)
(1.8736e-08 -6.39809e-08 3.47198e-08)
(2.00623e-08 -7.34854e-08 4.16157e-08)
(2.0913e-08 -8.33032e-08 4.92656e-08)
(2.10412e-08 -9.32271e-08 5.75228e-08)
(2.00349e-08 -1.0289e-07 6.60569e-08)
(1.72467e-08 -1.11667e-07 7.43403e-08)
(1.18168e-08 -1.18495e-07 8.17523e-08)
(3.17367e-09 -1.21713e-07 8.78623e-08)
(-6.50107e-09 -1.20162e-07 9.22701e-08)
(2.11176e-09 -5.35415e-09 2.47631e-09)
(5.8571e-09 -1.50041e-08 6.9877e-09)
(9.2108e-09 -2.40678e-08 1.13602e-08)
(1.22429e-08 -3.29223e-08 1.58425e-08)
(1.50078e-08 -4.18675e-08 2.06454e-08)
(1.75453e-08 -5.11351e-08 2.59516e-08)
(1.98799e-08 -6.08866e-08 3.19148e-08)
(2.20186e-08 -7.12147e-08 3.86518e-08)
(2.39439e-08 -8.2141e-08 4.62261e-08)
(2.56051e-08 -9.36061e-08 5.46111e-08)
(2.69038e-08 -1.05449e-07 6.36433e-08)
(2.76724e-08 -1.17354e-07 7.29436e-08)
(2.76516e-08 -1.28757e-07 8.18665e-08)
(2.65238e-08 -1.38648e-07 8.95602e-08)
(2.4072e-08 -1.45256e-07 9.52945e-08)
(2.07205e-08 -1.46398e-07 9.88227e-08)
(2.35194e-09 -5.64861e-09 2.70208e-09)
(6.52473e-09 -1.58368e-08 7.62022e-09)
(1.02652e-08 -2.54267e-08 1.2374e-08)
(1.36547e-08 -3.48275e-08 1.72261e-08)
(1.67608e-08 -4.43692e-08 2.23982e-08)
(1.96391e-08 -5.43102e-08 2.80808e-08)
(2.23371e-08 -6.48397e-08 3.44319e-08)
(2.48948e-08 -7.60798e-08 4.15692e-08)
(2.73481e-08 -8.80829e-08 4.95535e-08)
(2.97314e-08 -1.00827e-07 5.83474e-08)
(3.20896e-08 -1.14202e-07 6.77639e-08)
(3.45027e-08 -1.27984e-07 7.7369e-08)
(3.71687e-08 -1.41828e-07 8.63901e-08)
(4.0661e-08 -1.55325e-07 9.368e-08)
(4.64229e-08 -1.68183e-07 9.79547e-08)
(5.56561e-08 -1.79494e-07 9.87412e-08)
(1.74662e-10 -5.25854e-10 1.66631e-10)
(4.82991e-10 -1.47063e-09 4.71076e-10)
(7.5407e-10 -2.35099e-09 7.67028e-10)
(9.90292e-10 -3.19921e-09 1.07441e-09)
(1.18954e-09 -4.04402e-09 1.40746e-09)
(1.3469e-09 -4.89642e-09 1.77861e-09)
(1.45103e-09 -5.76301e-09 2.19741e-09)
(1.48271e-09 -6.64118e-09 2.67016e-09)
(1.41175e-09 -7.51909e-09 3.19805e-09)
(1.19353e-09 -8.37512e-09 3.77381e-09)
(7.65121e-10 -9.18085e-09 4.37739e-09)
(3.74688e-11 -9.90324e-09 4.97833e-09)
(-1.12304e-09 -1.04858e-08 5.52918e-09)
(-3.00399e-09 -1.08325e-08 6.00861e-09)
(-6.22969e-09 -1.06499e-08 6.48512e-09)
(-1.10879e-08 -9.33554e-09 6.99593e-09)
(5.21957e-10 -1.56055e-09 4.95816e-10)
(1.44312e-09 -4.36548e-09 1.40001e-09)
(2.25445e-09 -6.97914e-09 2.28178e-09)
(2.96134e-09 -9.50584e-09 3.19439e-09)
(3.56191e-09 -1.20111e-08 4.18232e-09)
(4.04097e-09 -1.45446e-08 5.28222e-09)
(4.3674e-09 -1.71248e-08 6.52279e-09)
(4.48768e-09 -1.97446e-08 7.92279e-09)
(4.31712e-09 -2.23687e-08 9.48488e-09)
(3.7323e-09 -2.49329e-08 1.11866e-08)
(2.56735e-09 -2.73495e-08 1.29682e-08)
(6.23456e-10 -2.95106e-08 1.47226e-08)
(-2.30756e-09 -3.13069e-08 1.62881e-08)
(-6.32388e-09 -3.25546e-08 1.74618e-08)
(-1.10716e-08 -3.29047e-08 1.80673e-08)
(-1.47978e-08 -3.19802e-08 1.80306e-08)
(8.63629e-10 -2.54706e-09 8.12866e-10)
(2.38889e-09 -7.12711e-09 2.29532e-09)
(3.73438e-09 -1.14021e-08 3.74063e-09)
(4.91312e-09 -1.553e-08 5.23434e-09)
(5.92346e-09 -1.96379e-08 6.84942e-09)
(6.74648e-09 -2.38003e-08 8.64567e-09)
(7.33848e-09 -2.80567e-08 1.06713e-08)
(7.62224e-09 -3.24016e-08 1.29582e-08)
(7.4746e-09 -3.67839e-08 1.55134e-08)
(6.7147e-09 -4.11064e-08 1.83038e-08)
(5.10048e-09 -4.52339e-08 2.12414e-08)
(2.3544e-09 -4.90203e-08 2.41838e-08)
(-1.74667e-09 -5.23401e-08 2.68792e-08)
(-7.09484e-09 -5.5201e-08 2.90879e-08)
(-1.26446e-08 -5.7745e-08 3.06454e-08)
(-1.5883e-08 -5.99195e-08 3.15264e-08)
(1.19563e-09 -3.45346e-09 1.11008e-09)
(3.30879e-09 -9.66654e-09 3.13603e-09)
(5.17812e-09 -1.54702e-08 5.10817e-09)
(6.82511e-09 -2.10906e-08 7.14387e-09)
(8.25483e-09 -2.66904e-08 9.34015e-09)
(9.45021e-09 -3.23906e-08 1.17797e-08)
(1.03662e-08 -3.82513e-08 1.45293e-08)
(1.09183e-08 -4.42774e-08 1.76343e-08)
(1.0968e-08 -5.04116e-08 2.11081e-08)
(1.03061e-08 -5.65329e-08 2.49122e-08)
(8.64714e-09 -6.24604e-08 2.89603e-08)
(5.63628e-09 -6.7965e-08 3.30498e-08)
(9.46169e-10 -7.28355e-08 3.69303e-08)
(-5.42194e-09 -7.69976e-08 4.03338e-08)
(-1.24232e-08 -8.06323e-08 4.30837e-08)
(-1.71449e-08 -8.37077e-08 4.49155e-08)
(1.51316e-09 -4.24799e-09 1.38184e-09)
(4.18978e-09 -1.18951e-08 3.90227e-09)
(6.56431e-09 -1.90496e-08 6.35297e-09)
(8.67023e-09 -2.5988e-08 8.87627e-09)
(1.05229e-08 -3.29315e-08 1.15924e-08)
(1.21154e-08 -4.00311e-08 1.46031e-08)
(1.34128e-08 -4.73777e-08 1.79919e-08)
(1.43424e-08 -5.49937e-08 2.18165e-08)
(1.47788e-08 -6.28283e-08 2.60967e-08)
(1.45271e-08 -7.07488e-08 3.07995e-08)
(1.33041e-08 -7.85289e-08 3.5817e-08)
(1.07236e-08 -8.58226e-08 4.09408e-08)
(6.32757e-09 -9.21764e-08 4.58741e-08)
(-2.19378e-10 -9.70674e-08 5.03372e-08)
(-8.43574e-09 -1.00106e-07 5.41169e-08)
(-1.53411e-08 -1.01547e-07 5.67442e-08)
(1.8108e-09 -4.90224e-09 1.62223e-09)
(5.01612e-09 -1.37307e-08 4.57885e-09)
(7.86775e-09 -2.20021e-08 7.44824e-09)
(1.04128e-08 -3.00504e-08 1.03945e-08)
(1.26797e-08 -3.81315e-08 1.35553e-08)
(1.46781e-08 -4.64401e-08 1.70488e-08)
(1.63936e-08 -5.50961e-08 2.09711e-08)
(1.77819e-08 -6.41467e-08 2.53896e-08)
(1.87591e-08 -7.35595e-08 3.03288e-08)
(1.91895e-08 -8.32085e-08 3.57547e-08)
(1.88702e-08 -9.28473e-08 4.15457e-08)
(1.7509e-08 -1.02061e-07 4.74572e-08)
(1.46894e-08 -1.10164e-07 5.31323e-08)
(9.88243e-09 -1.16053e-07 5.82217e-08)
(2.73235e-09 -1.18126e-07 6.24646e-08)
(-5.22566e-09 -1.15625e-07 6.54139e-08)
(2.08261e-09 -5.3882e-09 1.82692e-09)
(5.77165e-09 -1.50977e-08 5.15411e-09)
(9.06127e-09 -2.42118e-08 8.37552e-09)
(1.20117e-08 -3.31041e-08 1.16711e-08)
(1.46677e-08 -4.20745e-08 1.51926e-08)
(1.70564e-08 -5.13457e-08 1.90684e-08)
(1.91893e-08 -6.10691e-08 2.3403e-08)
(2.10597e-08 -7.13196e-08 2.82688e-08)
(2.26413e-08 -8.20914e-08 3.36905e-08)
(2.38903e-08 -9.32856e-08 3.96279e-08)
(2.47505e-08 -1.04688e-07 4.59379e-08)
(2.51619e-08 -1.1592e-07 5.23215e-08)
(2.50866e-08 -1.2637e-07 5.83187e-08)
(2.4528e-08 -1.35049e-07 6.34163e-08)
(2.34963e-08 -1.40397e-07 6.71952e-08)