/*--------------------------------*- C++ -*----------------------------------*\
| =========                 |                                                 |
| \\      /  F ield         | OpenFOAM: The Open Source CFD Toolbox           |
|  \\    /   O peration     | Version:  v1912                                 |
|   \\  /    A nd           | Website:  www.openfoam.com                      |
|    \\/     M anipulation  |                                                 |
\*---------------------------------------------------------------------------*/
FoamFile
{
    version     2.0;
    format      ascii;
    class       volScalarField;
    location    "0.32/fluid";
    object      T;
}
// * * * * * * * * * * * * * * * * * * * * * * * * * * * * * * * * * * * * * //

dimensions      [0 0 0 1 0 0 0];


internalField   nonuniform List<scalar> 
14592
(
273.138
273.425
273.739
274.091
274.497
274.971
275.53
276.191
276.972
277.892
278.973
280.241
281.726
283.471
285.556
288.182
273.137
273.421
273.732
274.081
274.483
274.953
275.507
276.162
276.936
277.85
278.924
280.186
281.666
283.41
285.497
288.114
273.135
273.415
273.72
274.063
274.459
274.922
275.467
276.111
276.873
277.773
278.834
280.083
281.553
283.294
285.39
288.033
273.132
273.406
273.704
274.04
274.427
274.878
275.41
276.04
276.784
277.664
278.703
279.931
281.384
283.117
285.225
287.915
273.129
273.395
273.685
274.011
274.386
274.824
275.339
275.949
276.67
277.523
278.531
279.726
281.149
282.863
284.978
287.731
273.124
273.382
273.662
273.977
274.338
274.76
275.255
275.84
276.532
277.35
278.317
279.466
280.84
282.511
284.612
287.433
273.12
273.367
273.637
273.938
274.285
274.688
275.161
275.717
276.374
277.149
278.065
279.149
280.448
282.036
284.065
286.906
273.115
273.352
273.609
273.898
274.228
274.61
275.058
275.584
276.201
276.927
277.779
278.782
279.975
281.42
283.258
285.879
273.144
273.444
273.772
274.141
274.567
275.067
275.657
276.357
277.186
278.168
279.326
280.689
282.291
284.18
286.429
289.169
273.143
273.44
273.764
274.13
274.553
275.048
275.633
276.326
277.149
278.124
279.275
280.631
282.23
284.118
286.372
289.115
273.141
273.433
273.752
274.112
274.528
275.015
275.59
276.273
277.083
278.044
279.18
280.524
282.113
284.002
286.268
289.044
273.138
273.424
273.736
274.087
274.493
274.969
275.531
276.198
276.989
277.929
279.043
280.365
281.938
283.822
286.107
288.939
273.134
273.412
273.715
274.057
274.451
274.912
275.456
276.102
276.869
277.78
278.862
280.151
281.694
283.562
285.864
288.772
273.13
273.398
273.691
274.021
274.4
274.844
275.368
275.988
276.723
277.597
278.636
279.876
281.369
283.196
285.493
288.491
273.125
273.383
273.665
273.981
274.344
274.768
275.268
275.858
276.556
277.384
278.367
279.54
280.953
282.695
284.925
287.969
273.12
273.367
273.636
273.938
274.284
274.687
275.159
275.716
276.373
277.148
278.063
279.147
280.446
282.034
284.064
286.904
273.15
273.462
273.802
274.187
274.632
275.154
275.773
276.507
277.379
278.413
279.633
281.068
282.75
284.715
287.005
289.663
273.149
273.457
273.795
274.176
274.617
275.135
275.748
276.476
277.341
278.367
279.58
281.009
282.687
284.653
286.95
289.614
273.146
273.45
273.782
274.157
274.591
275.1
275.703
276.42
277.272
278.284
279.482
280.898
282.568
284.536
286.848
289.548
273.143
273.44
273.765
274.131
274.555
275.052
275.641
276.341
277.174
278.164
279.34
280.734
282.389
284.353
286.689
289.447
273.139
273.428
273.744
274.099
274.51
274.993
275.563
276.241
277.048
278.009
279.151
280.512
282.137
284.088
286.444
289.285
273.135
273.414
273.719
274.062
274.458
274.922
275.471
276.122
276.896
277.818
278.915
280.225
281.8
283.713
286.07
289.008
273.13
273.398
273.691
274.02
274.399
274.843
275.366
275.986
276.721
277.595
278.633
279.873
281.367
283.194
285.491
288.489
273.124
273.381
273.661
273.975
274.336
274.758
275.253
275.837
276.528
277.346
278.313
279.461
280.835
282.507
284.608
287.43
273.155
273.477
273.83
274.228
274.689
275.232
275.874
276.638
277.546
278.621
279.888
281.374
283.104
285.1
287.378
289.93
273.154
273.473
273.822
274.217
274.674
275.211
275.848
276.606
277.506
278.574
279.834
281.314
283.04
285.038
287.324
289.883
273.151
273.465
273.809
274.197
274.647
275.175
275.802
276.548
277.435
278.488
279.733
281.2
282.919
284.92
287.223
289.819
273.148
273.455
273.791
274.17
274.61
275.126
275.738
276.466
277.333
278.364
279.586
281.032
282.736
284.736
287.063
289.719
273.144
273.442
273.769
274.137
274.563
275.064
275.657
276.363
277.203
278.203
279.391
280.803
282.478
284.466
286.818
289.559
273.139
273.428
273.743
274.098
274.509
274.991
275.561
276.239
277.045
278.005
279.147
280.508
282.133
284.084
286.441
289.283
273.134
273.411
273.714
274.055
274.448
274.909
275.452
276.097
276.863
277.774
278.856
280.144
281.687
283.555
285.858
288.769
273.128
273.394
273.683
274.009
274.383
274.82
275.335
275.943
276.663
277.515
278.523
279.717
281.14
282.854
284.971
287.726
273.159
273.49
273.853
274.262
274.737
275.296
275.958
276.746
277.681
278.788
280.089
281.608
283.365
285.369
287.619
290.085
273.158
273.486
273.844
274.251
274.721
275.275
275.931
276.712
277.64
278.739
280.034
281.547
283.3
285.307
287.565
290.04
273.156
273.478
273.831
274.23
274.693
275.238
275.884
276.653
277.567
278.651
279.931
281.432
283.178
285.188
287.464
289.976
273.152
273.467
273.813
274.203
274.655
275.187
275.818
276.569
277.463
278.525
279.781
281.26
282.992
285.002
287.304
289.877
273.148
273.455
273.79
274.169
274.608
275.123
275.735
276.463
277.329
278.359
279.581
281.026
282.73
284.73
287.058
289.716
273.143
273.439
273.763
274.129
274.552
275.048
275.636
276.335
277.167
278.156
279.331
280.725
282.379
284.344
286.68
289.442
273.138
273.423
273.734
274.084
274.489
274.963
275.524
276.189
276.98
277.918
279.032
280.353
281.926
283.81
286.097
288.932
273.132
273.404
273.702
274.037
274.422
274.872
275.403
276.03
276.773
277.652
278.69
279.917
281.369
283.103
285.212
287.906
273.163
273.5
273.87
274.289
274.774
275.345
276.023
276.828
277.783
278.912
280.237
281.777
283.547
285.55
287.773
290.178
273.161
273.496
273.862
274.277
274.758
275.324
275.995
276.794
277.742
278.863
280.181
281.715
283.482
285.488
287.719
290.133
273.159
273.488
273.848
274.256
274.73
275.286
275.947
276.733
277.667
278.774
280.076
281.598
283.358
285.368
287.618
290.069
273.155
273.477
273.83
274.228
274.691
275.235
275.88
276.648
277.561
278.645
279.924
281.424
283.17
285.18
287.457
289.97
273.151
273.464
273.806
274.194
274.642
275.169
275.795
276.539
277.425
278.476
279.721
281.187
282.906
284.907
287.211
289.81
273.146
273.448
273.779
274.153
274.585
275.092
275.694
276.409
277.259
278.269
279.466
280.881
282.551
284.518
286.833
289.537
273.14
273.431
273.749
274.107
274.521
275.006
275.579
276.26
277.068
278.027
279.162
280.504
282.093
283.982
286.25
289.031
273.134
273.413
273.716
274.058
274.452
274.912
275.455
276.097
276.857
277.755
278.814
280.061
281.531
283.272
285.369
288.018
273.165
273.507
273.883
274.307
274.8
275.379
276.066
276.883
277.852
278.995
280.334
281.886
283.661
285.66
287.864
290.232
273.163
273.503
273.874
274.295
274.783
275.357
276.039
276.849
277.81
278.946
280.277
281.823
283.597
285.598
287.81
290.187
273.161
273.495
273.86
274.274
274.754
275.319
275.99
276.787
277.735
278.855
280.171
281.705
283.472
285.478
287.709
290.123
273.157
273.484
273.841
274.246
274.715
275.267
275.922
276.701
277.627
278.724
280.017
281.53
283.283
285.29
287.548
290.024
273.153
273.47
273.818
274.21
274.665
275.201
275.835
276.59
277.489
278.554
279.812
281.291
283.017
285.015
287.301
289.864
273.148
273.455
273.79
274.169
274.607
275.123
275.733
276.458
277.321
278.344
279.555
280.982
282.66
284.625
286.923
289.591
273.142
273.437
273.759
274.123
274.542
275.035
275.617
276.307
277.127
278.099
279.247
280.602
282.199
284.088
286.342
289.088
273.136
273.418
273.726
274.073
274.473
274.94
275.491
276.142
276.913
277.824
278.896
280.155
281.634
283.377
285.464
288.083
273.166
273.511
273.889
274.316
274.812
275.396
276.088
276.911
277.886
279.036
280.381
281.939
283.717
285.713
287.906
290.256
273.165
273.506
273.88
274.304
274.796
275.374
276.061
276.876
277.844
278.986
280.324
281.876
283.652
285.651
287.853
290.211
273.162
273.498
273.866
274.283
274.767
275.336
276.011
276.814
277.768
278.895
280.219
281.758
283.527
285.53
287.751
290.147
273.159
273.487
273.847
274.255
274.727
275.283
275.943
276.727
277.66
278.764
280.064
281.582
283.337
285.342
287.59
290.048
273.154
273.474
273.823
274.219
274.677
275.216
275.856
276.616
277.521
278.593
279.858
281.341
283.07
285.066
287.343
289.889
273.149
273.458
273.796
274.177
274.619
275.138
275.753
276.483
277.352
278.382
279.599
281.032
282.712
284.676
286.965
289.616
273.143
273.44
273.765
274.131
274.553
275.049
275.636
276.331
277.157
278.135
279.29
280.65
282.251
284.138
286.385
289.115
273.137
273.421
273.731
274.081
274.483
274.954
275.509
276.165
276.942
277.858
278.936
280.202
281.684
283.428
285.509
288.113
273.103
273.316
273.546
273.799
274.083
274.403
274.767
275.177
275.635
276.14
276.685
277.259
277.845
278.417
278.944
279.391
273.102
273.314
273.541
273.792
274.074
274.392
274.752
275.159
275.613
276.113
276.654
277.224
277.805
278.373
278.896
279.34
273.101
273.309
273.533
273.78
274.057
274.37
274.725
275.125
275.572
276.064
276.597
277.157
277.729
278.289
278.805
279.243
273.099
273.303
273.522
273.764
274.035
274.341
274.687
275.078
275.514
275.995
276.514
277.062
277.62
278.167
278.672
279.101
273.096
273.295
273.508
273.743
274.007
274.304
274.64
275.019
275.442
275.907
276.41
276.94
277.48
278.009
278.498
278.914
273.093
273.285
273.492
273.72
273.974
274.261
274.585
274.949
275.356
275.803
276.286
276.794
277.312
277.819
278.288
278.687
273.09
273.275
273.474
273.693
273.937
274.213
274.523
274.872
275.26
275.686
276.146
276.629
277.121
277.601
278.046
278.424
273.086
273.264
273.455
273.665
273.899
274.161
274.457
274.788
275.157
275.56
275.994
276.449
276.912
277.363
277.779
278.133
273.104
273.32
273.552
273.808
274.096
274.422
274.793
275.212
275.681
276.201
276.765
277.362
277.975
278.579
279.139
279.616
273.103
273.317
273.547
273.801
274.087
274.41
274.777
275.192
275.658
276.173
276.732
277.325
277.933
278.532
279.089
279.564
273.102
273.312
273.539
273.789
274.07
274.388
274.749
275.158
275.616
276.123
276.673
277.256
277.856
278.446
278.995
279.465
273.1
273.306
273.527
273.772
274.047
274.358
274.711
275.11
275.557
276.052
276.589
277.158
277.744
278.321
278.858
279.318
273.097
273.298
273.513
273.751
274.018
274.32
274.663
275.05
275.483
275.962
276.482
277.033
277.599
278.158
278.679
279.125
273.094
273.288
273.497
273.727
273.985
274.276
274.606
274.979
275.395
275.855
276.354
276.883
277.426
277.961
278.46
278.888
273.091
273.278
273.479
273.7
273.948
274.228
274.543
274.899
275.297
275.735
276.21
276.712
277.227
277.734
278.207
278.612
273.087
273.267
273.46
273.672
273.909
274.175
274.476
274.815
275.192
275.606
276.054
276.526
277.01
277.485
277.927
278.305
273.107
273.327
273.565
273.828
274.124
274.461
274.845
275.282
275.775
276.324
276.925
277.568
278.237
278.904
279.533
280.076
273.106
273.324
273.56
273.82
274.114
274.448
274.829
275.262
275.75
276.295
276.891
277.529
278.193
278.856
279.481
280.021
273.104
273.319
273.551
273.808
274.097
274.425
274.8
275.226
275.706
276.242
276.828
277.457
278.111
278.765
279.383
279.917
273.102
273.312
273.539
273.79
274.073
274.394
274.76
275.176
275.645
276.168
276.74
277.354
277.994
278.633
279.238
279.763
273.099
273.304
273.525
273.769
274.044
274.355
274.71
275.113
275.568
276.074
276.628
277.222
277.841
278.461
279.048
279.559
273.096
273.295
273.508
273.744
274.009
274.31
274.652
275.04
275.476
275.962
276.494
277.063
277.656
278.251
278.813
279.303
273.093
273.284
273.49
273.717
273.971
274.259
274.587
274.957
275.374
275.836
276.341
276.882
277.444
278.006
278.538
279.001
273.089
273.273
273.47
273.687
273.931
274.206
274.517
274.869
275.263
275.7
276.176
276.683
277.209
277.734
278.229
278.66
273.11
273.338
273.584
273.857
274.166
274.519
274.923
275.386
275.912
276.504
277.16
277.872
278.625
279.392
280.13
280.78
273.109
273.335
273.579
273.849
274.155
274.505
274.906
275.364
275.886
276.473
277.124
277.831
278.579
279.341
280.076
280.724
273.108
273.33
273.57
273.836
274.137
274.481
274.875
275.327
275.84
276.417
277.058
277.754
278.492
279.245
279.972
280.615
273.105
273.323
273.558
273.818
274.112
274.448
274.834
275.274
275.775
276.339
276.964
277.644
278.366
279.104
279.818
280.451
273.103
273.314
273.543
273.796
274.082
274.408
274.781
275.208
275.693
276.239
276.844
277.503
278.202
278.918
279.613
280.23
273.099
273.304
273.525
273.77
274.046
274.36
274.72
275.13
275.596
276.12
276.7
277.331
278.001
278.688
279.355
279.949
273.096
273.293
273.506
273.741
274.006
274.307
274.651
275.043
275.487
275.985
276.536
277.134
277.768
278.416
279.045
279.606
273.092
273.281
273.485
273.71
273.963
274.251
274.578
274.949
275.369
275.839
276.356
276.916
277.507
278.11
278.692
279.21
273.115
273.352
273.609
273.895
274.22
274.592
275.022
275.518
276.087
276.733
277.46
278.262
279.129
280.034
280.93
281.745
273.114
273.349
273.603
273.887
274.208
274.578
275.004
275.495
276.059
276.7
277.421
278.218
279.079
279.98
280.874
281.686
273.112
273.343
273.594
273.873
274.189
274.553
274.972
275.455
276.01
276.641
277.351
278.136
278.987
279.878
280.765
281.573
273.11
273.336
273.581
273.854
274.163
274.518
274.927
275.399
275.941
276.557
277.25
278.018
278.852
279.727
280.601
281.401
273.107
273.327
273.565
273.83
274.131
274.475
274.872
275.329
275.853
276.45
277.121
277.865
278.673
279.525
280.378
281.163
273.103
273.317
273.547
273.803
274.093
274.425
274.807
275.246
275.749
276.321
276.965
277.678
278.452
279.269
280.091
280.85
273.1
273.305
273.527
273.773
274.051
274.369
274.734
275.153
275.632
276.175
276.785
277.46
278.191
278.962
279.737
280.454
273.096
273.293
273.505
273.74
274.006
274.309
274.655
275.052
275.505
276.016
276.588
277.218
277.897
278.609
279.321
279.978
273.12
273.369
273.638
273.939
274.282
274.678
275.138
275.672
276.29
277.001
277.811
278.722
279.728
280.811
281.927
282.986
273.119
273.365
273.632
273.931
274.271
274.663
275.119
275.648
276.261
276.966
277.77
278.674
279.675
280.754
281.868
282.928
273.117
273.359
273.622
273.916
274.25
274.636
275.085
275.605
276.208
276.902
277.694
278.587
279.577
280.647
281.755
282.814
273.115
273.352
273.609
273.896
274.223
274.6
275.037
275.546
276.134
276.812
277.586
278.46
279.432
280.486
281.584
282.638
273.112
273.342
273.592
273.871
274.188
274.554
274.978
275.471
276.041
276.697
277.446
278.294
279.238
280.267
281.345
282.386
273.108
273.331
273.573
273.842
274.148
274.501
274.909
275.382
275.929
276.558
277.276
278.088
278.994
279.984
281.026
282.042
273.104
273.319
273.551
273.81
274.104
274.441
274.831
275.282
275.802
276.399
277.079
277.846
278.701
279.634
280.618
281.582
273.1
273.306
273.529
273.776
274.056
274.377
274.747
275.173
275.664
276.225
276.861
277.575
278.365
279.223
280.121
280.995
273.126
273.387
273.67
273.988
274.352
274.773
275.265
275.841
276.513
277.294
278.195
279.226
280.392
281.689
283.092
284.517
273.125
273.383
273.664
273.979
274.339
274.757
275.245
275.815
276.482
277.256
278.151
279.175
280.336
281.63
283.033
284.459
273.123
273.377
273.654
273.963
274.318
274.729
275.208
275.77
276.426
277.188
278.07
279.082
280.232
281.519
282.919
284.349
273.12
273.369
273.639
273.942
274.288
274.69
275.158
275.706
276.347
277.092
277.954
278.947
280.078
281.35
282.744
284.179
273.117
273.359
273.622
273.916
274.252
274.641
275.095
275.626
276.246
276.967
277.803
278.767
279.869
281.115
282.493
283.928
273.113
273.347
273.601
273.885
274.209
274.584
275.021
275.531
276.125
276.817
277.618
278.542
279.601
280.805
282.147
283.564
273.109
273.334
273.579
273.851
274.162
274.52
274.937
275.423
275.988
276.644
277.402
278.274
279.273
280.41
281.682
283.041
273.105
273.321
273.554
273.815
274.111
274.452
274.847
275.306
275.839
276.454
277.161
277.971
278.891
279.93
281.084
282.309
273.132
273.406
273.704
274.039
274.424
274.872
275.398
276.017
276.744
277.596
278.59
279.743
281.076
282.606
284.354
286.311
273.131
273.402
273.698
274.03
274.411
274.855
275.376
275.989
276.711
277.556
278.543
279.691
281.018
282.546
284.295
286.252
273.129
273.396
273.687
274.013
274.388
274.825
275.338
275.941
276.651
277.484
278.458
279.592
280.909
282.432
284.183
286.154
273.126
273.387
273.672
273.991
274.357
274.784
275.284
275.873
276.567
277.381
278.334
279.448
280.746
282.258
284.011
286.003
273.123
273.377
273.653
273.963
274.319
274.732
275.217
275.788
276.459
277.247
278.172
279.255
280.523
282.012
283.759
285.775
273.119
273.364
273.632
273.931
274.274
274.672
275.138
275.686
276.33
277.086
277.972
279.012
280.234
281.678
283.396
285.423
273.114
273.351
273.607
273.895
274.223
274.604
275.049
275.57
276.182
276.899
277.737
278.718
279.872
281.239
282.881
284.865
273.11
273.336
273.582
273.856
274.169
274.531
274.953
275.445
276.021
276.692
277.473
278.382
279.442
280.687
282.171
283.964
273.11
273.336
273.582
273.856
274.169
274.53
274.952
275.444
276.02
276.691
277.472
278.381
279.44
280.686
282.169
283.963
273.104
273.32
273.554
273.814
274.11
274.451
274.846
275.305
275.837
276.452
277.159
277.968
278.889
279.927
281.081
282.307
273.1
273.305
273.528
273.775
274.055
274.375
274.745
275.171
275.662
276.222
276.858
277.572
278.362
279.22
280.118
280.992
273.095
273.292
273.504
273.74
274.005
274.307
274.653
275.05
275.502
276.013
276.585
277.214
277.893
278.605
279.318
279.974
273.092
273.281
273.485
273.709
273.962
274.249
274.575
274.947
275.366
275.835
276.352
276.912
277.503
278.106
278.688
279.207
273.089
273.272
273.469
273.686
273.929
274.204
274.515
274.866
275.26
275.696
276.172
276.679
277.205
277.73
278.225
278.656
273.087
273.266
273.459
273.671
273.907
274.173
274.474
274.812
275.188
275.602
276.05
276.522
277.005
277.481
277.923
278.302
273.086
273.264
273.455
273.664
273.897
274.159
274.454
274.786
275.153
275.556
275.99
276.445
276.907
277.359
277.775
278.129
273.114
273.35
273.607
273.894
274.222
274.602
275.047
275.568
276.179
276.896
277.734
278.715
279.868
281.235
282.877
284.862
273.109
273.334
273.578
273.85
274.16
274.519
274.935
275.42
275.985
276.64
277.398
278.27
279.269
280.405
281.678
283.037
273.104
273.318
273.551
273.809
274.102
274.439
274.828
275.278
275.798
276.394
277.074
277.841
278.696
279.629
280.613
281.577
273.099
273.304
273.526
273.771
274.049
274.366
274.731
275.149
275.628
276.171
276.78
277.454
278.185
278.956
279.731
280.449
273.096
273.292
273.505
273.74
274.004
274.305
274.648
275.039
275.483
275.98
276.53
277.128
277.762
278.41
279.04
279.601
273.093
273.283
273.489
273.715
273.969
274.257
274.583
274.953
275.369
275.831
276.336
276.876
277.437
278
278.532
278.996
273.091
273.277
273.478
273.699
273.946
274.225
274.54
274.895
275.292
275.73
276.204
276.706
277.221
277.728
278.201
278.607
273.09
273.275
273.473
273.692
273.935
274.21
274.519
274.868
275.255
275.681
276.14
276.622
277.114
277.595
278.04
278.419
273.119
273.364
273.631
273.929
274.272
274.669
275.135
275.682
276.325
277.08
277.966
279.005
280.227
281.672
283.391
285.419
273.113
273.347
273.6
273.884
274.207
274.581
275.017
275.526
276.12
276.811
277.611
278.535
279.594
280.798
282.141
283.558
273.108
273.33
273.572
273.84
274.146
274.497
274.904
275.377
275.923
276.551
277.269
278.08
278.986
279.976
281.019
282.035
273.103
273.316
273.546
273.801
274.09
274.421
274.802
275.241
275.743
276.315
276.957
277.67
278.444
279.261
280.083
280.842
273.099
273.303
273.524
273.768
274.043
274.357
274.715
275.125
275.59
276.113
276.692
277.323
277.993
278.679
279.347
279.941
273.096
273.294
273.507
273.742
274.006
274.306
274.647
275.034
275.47
275.955
276.486
277.055
277.648
278.242
278.805
279.296
273.094
273.287
273.496
273.725
273.982
274.273
274.602
274.973
275.389
275.848
276.346
276.874
277.417
277.953
278.452
278.881
273.093
273.285
273.491
273.717
273.971
274.257
274.58
274.944
275.35
275.796
276.278
276.786
277.304
277.811
278.28
278.68
273.122
273.376
273.652
273.961
274.315
274.728
275.212
275.781
276.451
277.239
278.163
279.245
280.513
282.002
283.749
285.767
273.117
273.358
273.62
273.913
274.248
274.636
275.089
275.619
276.238
276.958
277.793
278.756
279.857
281.104
282.483
283.918
273.111
273.341
273.59
273.868
274.185
274.549
274.972
275.463
276.032
276.687
277.436
278.282
279.226
280.256
281.334
282.376
273.106
273.326
273.564
273.828
274.127
274.47
274.866
275.322
275.845
276.44
277.11
277.854
278.662
279.513
280.367
281.153
273.102
273.313
273.541
273.793
274.078
274.403
274.775
275.201
275.684
276.229
276.833
277.491
278.19
278.907
279.602
280.22
273.099
273.303
273.523
273.766
274.04
274.35
274.704
275.106
275.559
276.064
276.617
277.211
277.83
278.45
279.037
279.549
273.097
273.296
273.511
273.749
274.014
274.315
274.657
275.042
275.474
275.952
276.471
277.022
277.588
278.147
278.668
279.116
273.096
273.294
273.506
273.741
274.003
274.299
274.634
275.011
275.433
275.898
276.399
276.929
277.469
277.998
278.488
278.905
273.126
273.386
273.669
273.987
274.352
274.777
275.276
275.863
276.555
277.368
278.32
279.432
280.73
282.242
283.996
285.991
273.12
273.368
273.637
273.938
274.283
274.683
275.15
275.696
276.335
277.078
277.939
278.931
280.061
281.334
282.728
284.164
273.114
273.35
273.606
273.892
274.217
274.593
275.029
275.535
276.122
276.799
277.571
278.444
279.415
280.47
281.568
282.623
273.109
273.335
273.578
273.85
274.158
274.511
274.919
275.389
275.929
276.543
277.235
278.003
278.835
279.711
280.586
281.387
273.105
273.321
273.555
273.814
274.107
274.442
274.825
275.264
275.763
276.325
276.949
277.629
278.35
279.088
279.803
280.438
273.102
273.311
273.537
273.787
274.068
274.387
274.752
275.166
275.633
276.155
276.726
277.339
277.978
278.618
279.224
279.75
273.099
273.304
273.525
273.768
274.042
274.351
274.703
275.1
275.546
276.039
276.575
277.143
277.728
278.306
278.844
279.305
273.098
273.301
273.519
273.76
274.03
274.334
274.679
275.068
275.503
275.982
276.501
277.047
277.605
278.152
278.658
279.089
273.128
273.394
273.683
274.008
274.381
274.815
275.326
275.927
276.634
277.465
278.437
279.57
280.886
282.409
284.161
286.134
273.122
273.375
273.65
273.958
274.31
274.719
275.196
275.755
276.409
277.169
278.049
279.06
280.209
281.495
282.896
284.328
273.117
273.357
273.619
273.91
274.243
274.627
275.072
275.591
276.192
276.883
277.673
278.565
279.554
280.624
281.733
282.793
273.111
273.341
273.59
273.867
274.182
274.543
274.96
275.441
275.993
276.622
277.33
278.115
278.964
279.855
280.743
281.554
273.107
273.328
273.566
273.831
274.13
274.472
274.864
275.313
275.824
276.399
277.038
277.733
278.47
279.223
279.951
280.596
273.104
273.317
273.547
273.803
274.09
274.416
274.789
275.213
275.691
276.224
276.809
277.437
278.09
278.745
279.363
279.9
273.101
273.31
273.535
273.784
274.063
274.379
274.738
275.145
275.601
276.106
276.655
277.237
277.836
278.426
278.976
279.448
273.1
273.307
273.53
273.775
274.05
274.362
274.714
275.112
275.557
276.048
276.579
277.138
277.71
278.27
278.787
279.228
273.13
273.399
273.692
274.022
274.4
274.841
275.359
275.969
276.687
277.53
278.514
279.66
280.986
282.514
284.262
286.219
273.124
273.38
273.659
273.971
274.328
274.743
275.228
275.795
276.459
277.23
278.122
279.145
280.304
281.598
283.001
284.428
273.118
273.362
273.627
273.923
274.26
274.65
275.102
275.628
276.238
276.941
277.742
278.644
279.644
280.723
281.838
282.899
273.113
273.346
273.598
273.879
274.198
274.565
274.988
275.476
276.037
276.676
277.394
278.189
279.049
279.95
280.845
281.66
273.108
273.332
273.574
273.842
274.146
274.492
274.89
275.346
275.865
276.449
277.097
277.803
278.55
279.313
280.049
280.7
273.105
273.321
273.555
273.813
274.105
274.436
274.814
275.244
275.73
276.272
276.866
277.503
278.166
278.829
279.456
279.999
273.103
273.314
273.542
273.794
274.077
274.398
274.763
275.176
275.639
276.152
276.709
277.3
277.908
278.507
279.065
279.543
273.102
273.311
273.537
273.786
274.065
274.381
274.738
275.142
275.594
276.093
276.632
277.2
277.78
278.349
278.874
279.321
273.131
273.402
273.697
274.029
274.41
274.855
275.376
275.991
276.714
277.562
278.553
279.704
281.034
282.564
284.31
286.26
273.125
273.383
273.663
273.978
274.338
274.756
275.244
275.816
276.484
277.261
278.159
279.187
280.351
281.648
283.052
284.476
273.119
273.365
273.631
273.929
274.269
274.661
275.117
275.648
276.262
276.969
277.776
278.684
279.689
280.772
281.889
282.951
273.114
273.348
273.602
273.885
274.207
274.576
275.002
275.494
276.059
276.703
277.426
278.226
279.092
279.997
280.895
281.713
273.109
273.334
273.578
273.848
274.154
274.503
274.904
275.363
275.886
276.474
277.128
277.838
278.59
279.357
280.097
280.751
273.106
273.323
273.559
273.819
274.112
274.446
274.827
275.26
275.75
276.296
276.894
277.536
278.204
278.871
279.502
280.048
273.103
273.316
273.546
273.8
274.085
274.408
274.775
275.191
275.658
276.175
276.736
277.332
277.944
278.548
279.11
279.591
273.102
273.313
273.54
273.791
274.072
274.39
274.751
275.158
275.613
276.115
276.658
277.231
277.816
278.388
278.917
279.368
273.083
273.253
273.436
273.636
273.859
274.109
274.389
274.703
275.05
275.43
275.837
276.262
276.694
277.113
277.499
277.827
273.079
273.242
273.417
273.608
273.82
274.057
274.322
274.618
274.945
275.301
275.68
276.076
276.475
276.862
277.217
277.518
273.076
273.232
273.399
273.581
273.783
274.008
274.259
274.538
274.845
275.177
275.531
275.898
276.266
276.622
276.947
277.221
273.073
273.223
273.383
273.557
273.75
273.964
274.202
274.465
274.754
275.066
275.395
275.736
276.076
276.403
276.701
276.951
273.07
273.215
273.369
273.537
273.721
273.926
274.153
274.403
274.677
274.97
275.28
275.598
275.914
276.217
276.491
276.721
273.068
273.209
273.358
273.521
273.699
273.897
274.115
274.355
274.616
274.896
275.189
275.489
275.787
276.07
276.325
276.54
273.067
273.205
273.351
273.51
273.685
273.877
274.09
274.323
274.575
274.845
275.127
275.415
275.7
275.969
276.212
276.416
273.066
273.203
273.348
273.505
273.678
273.868
274.077
274.307
274.555
274.82
275.097
275.378
275.656
275.919
276.155
276.353
273.084
273.256
273.44
273.643
273.868
274.122
274.407
274.727
275.083
275.472
275.892
276.333
276.782
277.223
277.631
277.98
273.08
273.244
273.421
273.614
273.829
274.069
274.339
274.641
274.974
275.339
275.73
276.139
276.554
276.959
277.333
277.651
273.077
273.234
273.403
273.587
273.791
274.019
274.274
274.558
274.872
275.212
275.575
275.954
276.336
276.706
277.046
277.335
273.073
273.225
273.386
273.562
273.757
273.974
274.216
274.484
274.779
275.097
275.435
275.786
276.137
276.477
276.786
277.048
273.071
273.217
273.372
273.542
273.729
273.936
274.166
274.421
274.699
274.999
275.316
275.642
275.968
276.28
276.564
276.804
273.069
273.21
273.361
273.526
273.706
273.906
274.128
274.372
274.637
274.922
275.222
275.53
275.835
276.127
276.39
276.612
273.068
273.206
273.354
273.515
273.692
273.887
274.102
274.339
274.596
274.87
275.159
275.453
275.745
276.022
276.272
276.481
273.067
273.205
273.351
273.51
273.685
273.877
274.09
274.323
274.575
274.845
275.127
275.415
275.7
275.969
276.212
276.415
273.085
273.261
273.45
273.657
273.889
274.15
274.445
274.778
275.149
275.559
276.003
276.475
276.963
277.446
277.901
278.294
273.082
273.25
273.43
273.627
273.848
274.095
274.374
274.687
275.035
275.418
275.831
276.267
276.714
277.156
277.568
277.923
273.078
273.239
273.411
273.599
273.809
274.044
274.307
274.601
274.927
275.284
275.666
276.068
276.477
276.877
277.248
277.566
273.075
273.229
273.394
273.574
273.774
273.997
274.246
274.524
274.829
275.162
275.517
275.887
276.261
276.624
276.959
277.244
273.072
273.221
273.38
273.553
273.744
273.957
274.195
274.458
274.746
275.058
275.389
275.732
276.077
276.409
276.713
276.97
273.07
273.215
273.369
273.536
273.721
273.927
274.155
274.406
274.681
274.977
275.29
275.612
275.933
276.241
276.521
276.757
273.069
273.21
273.361
273.526
273.706
273.906
274.128
274.372
274.637
274.922
275.222
275.529
275.835
276.126
276.39
276.612
273.068
273.209
273.358
273.521
273.699
273.897
274.115
274.355
274.616
274.896
275.189
275.489
275.786
276.07
276.325
276.54
273.088
273.269
273.464
273.679
273.92
274.192
274.502
274.852
275.247
275.686
276.168
276.687
277.231
277.782
278.311
278.778
273.084
273.257
273.443
273.648
273.877
274.135
274.427
274.756
275.126
275.534
275.98
276.457
276.953
277.45
277.923
278.336
273.08
273.246
273.424
273.619
273.836
274.08
274.356
274.665
275.01
275.389
275.8
276.236
276.686
277.132
277.551
277.914
273.077
273.236
273.406
273.592
273.799
274.031
274.291
274.582
274.905
275.258
275.637
276.036
276.443
276.843
277.215
277.535
273.074
273.227
273.391
273.57
273.768
273.99
274.237
274.512
274.816
275.146
275.498
275.865
276.237
276.599
276.932
277.216
273.072
273.221
273.38
273.553
273.744
273.957
274.194
274.457
274.746
275.058
275.389
275.732
276.077
276.409
276.713
276.97
273.071
273.217
273.372
273.541
273.728
273.936
274.166
274.421
274.699
274.999
275.315
275.642
275.968
276.28
276.564
276.803
273.07
273.215
273.369
273.536
273.721
273.926
274.153
274.403
274.676
274.97
275.279
275.597
275.914
276.216
276.49
276.72
273.091
273.28
273.483
273.707
273.96
274.247
274.575
274.949
275.373
275.85
276.381
276.961
277.582
278.226
278.863
279.444
273.087
273.267
273.461
273.675
273.914
274.186
274.495
274.845
275.241
275.684
276.172
276.702
277.262
277.836
278.395
278.896
273.084
273.256
273.44
273.644
273.871
274.128
274.418
274.747
275.115
275.525
275.972
276.453
276.956
277.463
277.948
278.376
273.08
273.245
273.422
273.616
273.832
274.075
274.35
274.658
275.002
275.38
275.791
276.227
276.678
277.126
277.549
277.916
273.077
273.236
273.406
273.592
273.799
274.031
274.291
274.582
274.905
275.257
275.637
276.036
276.443
276.843
277.215
277.535
273.075
273.229
273.394
273.574
273.774
273.997
274.246
274.523
274.829
275.161
275.516
275.886
276.26
276.624
276.958
277.243
273.073
273.224
273.386
273.562
273.757
273.974
274.215
274.484
274.778
275.096
275.435
275.785