/*--------------------------------*- C++ -*----------------------------------*\
| =========                 |                                                 |
| \\      /  F ield         | OpenFOAM: The Open Source CFD Toolbox           |
|  \\    /   O peration     | Version:  v1912                                 |
|   \\  /    A nd           | Website:  www.openfoam.com                      |
|    \\/     M anipulation  |                                                 |
\*---------------------------------------------------------------------------*/
FoamFile
{
    version     2.0;
    format      ascii;
    class       volVectorField;
    location    "0.46/solid";
    object      D;
}
// * * * * * * * * * * * * * * * * * * * * * * * * * * * * * * * * * * * * * //

dimensions      [0 1 0 0 0 0 0];


internalField   nonuniform List<vector> 
256
(
(1.97711e-08 3.14435e-08 2.10197e-08)
(1.82616e-09 1.82427e-08 1.90451e-08)
(-1.31288e-09 1.80415e-08 1.91205e-08)
(-1.8898e-08 3.05323e-08 2.13307e-08)
(3.11521e-08 2.46043e-08 3.75671e-08)
(5.64865e-09 1.72002e-08 3.50492e-08)
(-3.61163e-09 1.67364e-08 3.53246e-08)
(-2.86515e-08 2.29885e-08 3.84977e-08)
(3.25729e-08 1.51613e-08 4.50859e-08)
(6.85984e-09 1.23015e-08 4.24585e-08)
(-2.98204e-09 1.16045e-08 4.28927e-08)
(-2.82496e-08 1.29194e-08 4.64824e-08)
(3.24849e-08 7.85039e-09 5.03967e-08)
(7.27531e-09 6.2662e-09 4.76244e-08)
(-1.29045e-09 5.36125e-09 4.81729e-08)
(-2.60647e-08 5.02689e-09 5.21311e-08)
(3.34137e-08 1.61509e-09 5.56046e-08)
(8.09993e-09 -4.07463e-10 5.26978e-08)
(2.54331e-10 -1.50746e-09 5.33327e-08)
(-2.46225e-08 -1.75742e-09 5.75972e-08)
(3.63551e-08 -4.69901e-09 6.17092e-08)
(9.82443e-09 -7.6632e-09 5.86927e-08)
(1.16072e-09 -8.95696e-09 5.93988e-08)
(-2.49393e-08 -8.61033e-09 6.3915e-08)
(4.2561e-08 -1.48754e-08 6.96313e-08)
(1.27649e-08 -1.75302e-08 6.66519e-08)
(1.1004e-09 -1.90132e-08 6.74208e-08)
(-2.8311e-08 -1.93232e-08 7.20225e-08)
(5.20258e-08 -5.08104e-08 7.89195e-08)
(1.60243e-08 -4.89501e-08 7.63644e-08)
(8.87232e-10 -5.04623e-08 7.71792e-08)
(-3.48e-08 -5.54469e-08 8.1441e-08)
(1.45316e-08 1.5214e-08 2.48949e-09)
(8.56752e-10 4.25986e-09 3.29758e-09)
(-5.55049e-10 4.07655e-09 3.43686e-09)
(-1.38178e-08 1.43928e-08 2.8974e-09)
(2.3104e-08 1.24653e-08 1.2241e-08)
(3.70724e-09 6.15494e-09 1.38001e-08)
(-2.21536e-09 5.66321e-09 1.41299e-08)
(-2.10967e-08 1.08377e-08 1.32005e-08)
(2.39738e-08 7.28447e-09 1.96945e-08)
(4.63841e-09 4.73028e-09 2.15377e-08)
(-1.5768e-09 3.99899e-09 2.20074e-08)
(-2.04199e-08 5.00852e-09 2.10629e-08)
(2.37014e-08 1.9993e-09 2.50439e-08)
(4.96361e-09 5.00185e-10 2.69749e-08)
(-1.34501e-11 -4.31408e-10 2.75498e-08)
(-1.8265e-08 -8.49491e-10 2.67245e-08)
(2.44792e-08 -3.36843e-09 2.97566e-08)
(5.71444e-09 -5.35232e-09 3.17076e-08)
(1.42901e-09 -6.47094e-09 3.23649e-08)
(-1.6839e-08 -6.75515e-09 3.16837e-08)
(2.73234e-08 -9.00277e-09 3.47175e-08)
(7.37568e-09 -1.19573e-08 3.66655e-08)
(2.25483e-09 -1.32624e-08 3.73903e-08)
(-1.71915e-08 -1.29169e-08 3.68461e-08)
(3.35734e-08 -1.71622e-08 3.98626e-08)
(1.02799e-08 -1.97946e-08 4.18211e-08)
(2.11442e-09 -2.12768e-08 4.2597e-08)
(-2.07165e-08 -2.15886e-08 4.21458e-08)
(4.33227e-08 -4.68712e-08 4.29721e-08)
(1.35164e-08 -4.46143e-08 4.49686e-08)
(1.83984e-09 -4.61003e-08 4.57631e-08)
(-2.75837e-08 -5.14277e-08 4.53187e-08)
(1.1165e-08 1.05073e-08 1.14212e-09)
(2.80492e-11 1.06205e-09 2.15426e-09)
(1.29496e-10 8.99702e-10 2.25712e-09)
(-1.06002e-08 9.79732e-09 1.43524e-09)
(1.78534e-08 6.2034e-09 7.38923e-09)
(1.98985e-09 7.923e-10 9.30517e-09)
(-9.11926e-10 3.29232e-10 9.55755e-09)
(-1.6254e-08 4.71516e-09 8.10922e-09)
(1.84377e-08 1.54389e-09 1.38985e-08)
(2.66922e-09 -7.13918e-10 1.6126e-08)
(-2.56605e-10 -1.41756e-09 1.64895e-08)
(-1.55208e-08 -6.03534e-10 1.49443e-08)
(1.81197e-08 -2.69691e-09 1.93063e-08)
(2.92171e-09 -4.12534e-09 2.16369e-08)
(1.18113e-09 -5.0306e-09 2.20882e-08)
(-1.35141e-08 -5.43048e-09 2.06146e-08)
(1.88426e-08 -6.94192e-09 2.39142e-08)
(3.61125e-09 -8.9131e-09 2.62845e-08)
(2.52084e-09 -1.00054e-08 2.68078e-08)
(-1.21917e-08 -1.02229e-08 2.54396e-08)
(2.16826e-08 -1.11979e-08 2.81043e-08)
(5.2227e-09 -1.41569e-08 3.04875e-08)
(3.26281e-09 -1.54336e-08 3.10696e-08)
(-1.26673e-08 -1.50093e-08 2.98072e-08)
(2.80236e-08 -1.73967e-08 3.15125e-08)
(8.10319e-09 -2.00372e-08 3.38965e-08)
(3.03828e-09 -2.14861e-08 3.45187e-08)
(-1.63856e-08 -2.17144e-08 3.33416e-08)
(3.78419e-08 -4.4263e-08 3.2755e-08)
(1.13204e-08 -4.20049e-08 3.51548e-08)
(2.69317e-09 -4.34504e-08 3.57839e-08)
(-2.34083e-08 -4.86966e-08 3.46184e-08)
(9.6176e-09 9.13321e-09 1.27395e-09)
(-3.137e-10 5.24456e-10 1.89674e-09)
(3.89179e-10 3.77871e-10 1.96952e-09)
(-9.16791e-09 8.50734e-09 1.48211e-09)
(1.53764e-08 3.64537e-09 5.78483e-09)
(1.19278e-09 -1.2437e-09 6.9926e-09)
(-3.88962e-10 -1.66812e-09 7.17642e-09)
(-1.40857e-08 2.30452e-09 6.30946e-09)
(1.58827e-08 -1.60997e-09 1.09273e-08)
(1.73359e-09 -3.67998e-09 1.23421e-08)
(2.16905e-10 -4.33745e-09 1.26107e-08)
(-1.3454e-08 -3.59577e-09 1.17007e-08)
(1.56228e-08 -5.70019e-09 1.56761e-08)
(1.95126e-09 -7.082e-09 1.71541e-08)
(1.52142e-09 -7.94124e-09 1.7492e-08)
(-1.1668e-08 -8.27834e-09 1.66582e-08)
(1.63707e-08 -9.26111e-09 1.97594e-08)
(2.60843e-09 -1.12244e-08 2.12594e-08)
(2.74994e-09 -1.22726e-08 2.16562e-08)
(-1.05107e-08 -1.23981e-08 2.09202e-08)
(1.92318e-08 -1.25344e-08 2.31395e-08)
(4.18561e-09 -1.54958e-08 2.46476e-08)
(3.40692e-09 -1.673e-08 2.50924e-08)
(-1.11232e-08 -1.62121e-08 2.44477e-08)
(2.55996e-08 -1.7736e-08 2.55445e-08)
(7.03322e-09 -2.04058e-08 2.70572e-08)
(3.11644e-09 -2.18134e-08 2.75334e-08)
(-1.49624e-08 -2.19282e-08 2.69547e-08)
(3.5377e-08 -4.34053e-08 2.6459e-08)
(1.02189e-08 -4.12862e-08 2.80046e-08)
(2.71729e-09 -4.26937e-08 2.84837e-08)
(-2.20237e-08 -4.77233e-08 2.78923e-08)
(8.96883e-09 8.54268e-09 1.21827e-09)
(-4.03473e-10 3.67784e-10 1.53041e-09)
(4.31561e-10 2.33468e-10 1.58144e-09)
(-8.59685e-09 7.97866e-09 1.364e-09)
(1.43423e-08 2.60409e-09 4.58454e-09)
(9.26712e-10 -2.01661e-09 5.20171e-09)
(-2.99303e-10 -2.40771e-09 5.3322e-09)
(-1.32649e-08 1.38247e-09 4.95606e-09)
(1.48544e-08 -3.10814e-09 8.40299e-09)
(1.40696e-09 -5.08113e-09 9.13183e-09)
(2.27903e-10 -5.69553e-09 9.32435e-09)
(-1.27722e-08 -4.95222e-09 8.95635e-09)
(1.46688e-08 -7.34418e-09 1.21087e-08)
(1.60832e-09 -8.70138e-09 1.28691e-08)
(1.41625e-09 -9.51556e-09 1.31135e-08)
(-1.11882e-08 -9.77855e-09 1.28188e-08)
(1.54592e-08 -1.06765e-08 1.53517e-08)
(2.24551e-09 -1.26313e-08 1.61223e-08)
(2.54684e-09 -1.36361e-08 1.64118e-08)
(-1.01885e-08 -1.36773e-08 1.61996e-08)
(1.83299e-08 -1.35348e-08 1.79477e-08)
(3.79256e-09 -1.64889e-08 1.87263e-08)
(3.13302e-09 -1.76823e-08 1.90528e-08)
(-1.09091e-08 -1.70875e-08 1.89108e-08)
(2.46736e-08 -1.83852e-08 1.97399e-08)
(6.60057e-09 -2.10692e-08 2.05304e-08)
(2.79659e-09 -2.24396e-08 2.08809e-08)
(-1.48063e-08 -2.24653e-08 2.07826e-08)
(3.43788e-08 -4.34498e-08 2.05947e-08)
(9.75073e-09 -4.14433e-08 2.14176e-08)
(2.35901e-09 -4.28186e-08 2.17696e-08)
(-2.18652e-08 -4.76708e-08 2.16548e-08)
(8.67982e-09 8.22008e-09 9.67367e-10)
(-4.16844e-10 2.70847e-10 1.11293e-09)
(4.17169e-10 1.45504e-10 1.1469e-09)
(-8.35664e-09 7.69887e-09 1.06371e-09)
(1.39023e-08 2.13529e-09 3.34627e-09)
(8.49688e-10 -2.35189e-09 3.6374e-09)
(-3.33173e-10 -2.71831e-09 3.72466e-09)
(-1.29625e-08 9.99648e-10 3.59327e-09)
(1.4439e-08 -3.78357e-09 5.97493e-09)
(1.30387e-09 -5.71011e-09 6.32096e-09)
(1.24098e-10 -6.29146e-09 6.45043e-09)
(-1.25866e-08 -5.52111e-09 6.34534e-09)
(1.43065e-08 -8.17055e-09 8.56477e-09)
(1.49404e-09 -9.51521e-09 8.92628e-09)
(1.2273e-09 -1.02937e-08 9.09169e-09)
(-1.11488e-08 -1.0493e-08 9.04383e-09)
(1.51259e-08 -1.15103e-08 1.08631e-08)
(2.1143e-09 -1.34561e-08 1.12308e-08)
(2.28553e-09 -1.44259e-08 1.14279e-08)
(-1.02651e-08 -1.4403e-08 1.14393e-08)
(1.79925e-08 -1.42954e-08 1.27029e-08)
(3.63426e-09 -1.72358e-08 1.30794e-08)
(2.82007e-09 -1.83966e-08 1.33027e-08)
(-1.10585e-08 -1.77488e-08 1.33614e-08)
(2.42985e-08 -1.90828e-08 1.3996e-08)
(6.40648e-09 -2.17616e-08 1.43869e-08)
(2.45161e-09 -2.31029e-08 1.46272e-08)
(-1.49834e-08 -2.30752e-08 1.47119e-08)
(3.39386e-08 -4.38152e-08 1.47215e-08)
(9.52534e-09 -4.18603e-08 1.51357e-08)
(1.98705e-09 -4.32108e-08 1.5377e-08)
(-2.20331e-08 -4.79612e-08 1.545e-08)
(8.53701e-09 8.04455e-09 6.11613e-10)
(-4.17017e-10 2.12532e-10 6.75672e-10)
(4.01942e-10 9.29906e-11 6.95143e-10)
(-8.24208e-09 7.54997e-09 6.66496e-10)
(1.36933e-08 1.91171e-09 2.0355e-09)
(8.22504e-10 -2.50955e-09 2.16435e-09)
(-3.70713e-10 -2.85996e-09 2.21448e-09)
(-1.28347e-08 8.30953e-10 2.17662e-09)
(1.42481e-08 -4.08419e-09 3.57539e-09)
(1.26345e-09 -5.9885e-09 3.72935e-09)
(4.01902e-11 -6.54809e-09 3.80397e-09)
(-1.25343e-08 -5.75211e-09 3.78792e-09)
(1.41445e-08 -8.56629e-09 5.0943e-09)
(1.44464e-09 -9.90383e-09 5.25592e-09)
(1.09019e-09 -1.06584e-08 5.35164e-09)
(-1.11855e-08 -1.0814e-08 5.37057e-09)
(1.49771e-08 -1.19762e-08 6.45351e-09)
(2.05109e-09 -1.39139e-08 6.61947e-09)
(2.10274e-09 -1.48599e-08 6.73391e-09)
(-1.03731e-08 -1.47956e-08 6.78749e-09)
(1.78348e-08 -1.48077e-08 7.55232e-09)
(3.55054e-09 -1.77347e-08 7.72535e-09)
(2.60408e-09 -1.88733e-08 7.85546e-09)
(-1.121e-08 -1.81935e-08 7.93563e-09)
(2.41106e-08 -1.96237e-08 8.34444e-09)
(6.29732e-09 -2.22896e-08 8.52834e-09)
(2.21423e-09 -2.36112e-08 8.66864e-09)
(-1.515e-08 -2.35562e-08 8.76239e-09)
(3.37057e-08 -4.41832e-08 8.82967e-09)
(9.39374e-09 -4.22411e-08 9.02688e-09)
(1.73202e-09 -4.35746e-08 9.16774e-09)
(-2.21936e-08 -4.82785e-08 9.25537e-09)
(8.47385e-09 7.96713e-09 2.08362e-10)
(-4.16949e-10 1.86395e-10 2.26685e-10)
(3.95033e-10 6.96865e-11 2.33029e-10)
(-8.19186e-09 7.48528e-09 2.26183e-10)
(1.36013e-08 1.81926e-09 6.82711e-10)
(8.10639e-10 -2.57399e-09 7.19666e-10)
(-3.88596e-10 -2.91658e-09 7.36014e-10)
(-1.27803e-08 7.65126e-10 7.28592e-10)
(1.41638e-08 -4.20155e-09 1.19006e-09)
(1.24515e-09 -6.09644e-09 1.23438e-09)
(3.05365e-13 -6.64531e-09 1.25875e-09)
(-1.25151e-08 -5.8353e-09 1.2593e-09)
(1.4072e-08 -8.72749e-09 1.68975e-09)
(1.42105e-09 -1.00614e-08 1.73649e-09)
(1.02522e-09 -1.08042e-08 1.76781e-09)
(-1.12074e-08 -1.09381e-08 1.77998e-09)
(1.49087e-08 -1.21865e-08 2.13857e-09)
(2.01966e-09 -1.41194e-08 2.18695e-09)
(2.01597e-09 -1.50535e-08 2.22448e-09)
(-1.0428e-08 -1.49693e-08 2.24794e-09)
(1.77601e-08 -1.50638e-08 2.50402e-09)
(3.50817e-09 -1.79827e-08 2.5551e-09)
(2.5011e-09 -1.91102e-08 2.59784e-09)
(-1.12852e-08 -1.84155e-08 2.62982e-09)
(2.40202e-08 -1.99106e-08 2.77151e-09)
(6.24205e-09 -2.25673e-08 2.82657e-09)
(2.10029e-09 -2.3879e-08 2.8727e-09)
(-1.52325e-08 -2.3813e-08 2.9089e-09)
(3.35931e-08 -4.43979e-08 2.94164e-09)
(9.32694e-09 -4.24553e-08 3.00093e-09)
(1.60923e-09 -4.37804e-08 3.04724e-09)
(-2.22738e-08 -4.84675e-08 3.08163e-09)
)
;

boundaryField
{
    interface
    {
        type            solidTraction;
        traction        nonuniform List<vector> 
192
(
(48.3765 -0.350312 -3.1025)
(50.2652 -0.216235 -4.89116)
(51.5751 0.115225 -5.38912)
(52.3743 0.525976 -5.45892)
(52.4926 0.874784 -5.34176)
(53.2738 1.51984 -5.15435)
(51.5742 1.99479 -4.71001)
(55.0111 4.37251 -4.35488)
(47.0553 -0.245941 -1.54417)
(47.9722 -0.124437 -2.61094)
(48.7442 0.179527 -2.84841)
(49.2909 0.606435 -2.82945)
(49.2057 0.982215 -2.70296)
(49.925 1.70056 -2.53653)
(47.9756 2.22997 -2.24967)
(51.6056 4.73897 -2.01373)
(49.7745 -0.210843 -1.22474)
(50.5916 -0.0818564 -2.05076)
(51.3606 0.224326 -2.23112)
(51.9142 0.683322 -2.2124)
(51.7288 1.10281 -2.11058)
(52.3493 1.9065 -1.97583)
(49.9294 2.51811 -1.76251)
(53.3397 5.20544 -1.57641)
(49.9486 -0.159472 -0.759642)
(50.5716 -0.0116271 -1.33951)
(51.176 0.296911 -1.45919)
(51.6357 0.768636 -1.43431)
(51.3474 1.20947 -1.35234)
(51.904 2.05218 -1.2498)
(49.3247 2.70112 -1.11053)
(52.7001 5.43946 -0.992732)
(50.755 -0.135887 -0.559026)
(51.318 0.030375 -0.985443)
(51.8502 0.34935 -1.0742)
(52.2658 0.835779 -1.05593)
(51.904 1.29803 -0.995542)
(52.3877 2.17404 -0.919051)
(49.6291 2.85751 -0.820088)
(52.8772 5.64466 -0.733764)
(50.9517 -0.117118 -0.345146)
(51.462 0.0640029 -0.626358)
(51.9299 0.391336 -0.685228)
(52.3038 0.8866 -0.671744)
(51.8917 1.3612 -0.630587)
(52.3343 2.2548 -0.579275)
(49.492 2.95671 -0.517192)
(52.6964 5.76954 -0.464151)
(51.215 -0.108397 -0.203464)
(51.7059 0.0829338 -0.368473)
(52.1403 0.417603 -0.403391)
(52.491 0.91979 -0.395698)
(52.0459 1.40362 -0.3719)
(52.4554 2.30942 -0.341584)
(49.5464 3.02442 -0.30615)
(52.7037 5.85594 -0.274405)
(51.2751 -0.10272 -0.0607473)
(51.7522 0.0936454 -0.113719)
(52.1678 0.431336 -0.125052)
(52.5058 0.936024 -0.122361)
(52.0472 1.42372 -0.114643)
(52.4418 2.33421 -0.104789)
(49.513 3.05526 -0.0940687)
(52.6467 5.89472 -0.0840204)
(4.49072 0.948501 19.1038)
(7.40134 1.01502 14.4765)
(8.29986 0.752978 11.0362)
(8.52195 0.519808 10.0367)
(8.53556 0.431664 10.2328)
(8.55134 0.479901 11.3476)
(8.5829 0.592676 13.6204)
(9.24582 0.809523 15.6252)
(2.85903 0.541204 24.2773)
(5.2687 0.691591 23.2276)
(5.93598 0.496498 22.1806)
(6.06089 0.256907 21.9529)
(6.06855 0.11442 22.0681)
(6.13538 0.0472493 22.5153)
(6.33769 0.0603358 23.27)
(7.24646 0.145399 23.8118)
(2.98182 0.361587 21.2355)
(5.50792 0.485446 20.4346)
(6.24551 0.326851 19.4874)
(6.39251 0.085379 19.2484)
(6.38602 -0.0902797 19.3823)
(6.40508 -0.234181 19.8045)
(6.52476 -0.320651 20.6325)
(7.36016 -0.329527 21.5611)
(3.46623 0.279915 21.8049)
(6.45812 0.364351 21.3154)
(7.38169 0.20934 20.5494)
(7.58129 -0.0406728 20.4081)
(7.56617 -0.22695 20.5703)
(7.57628 -0.410069 20.8742)
(7.60157 -0.553585 21.4429)
(8.44304 -0.703517 22.1106)
(-10.1224 0.930086 1.25321)
(-6.38218 0.893458 2.27483)
(-3.7006 0.370614 2.53877)
(-2.62188 -0.208115 2.60279)
(-2.58119 -0.510472 2.60892)
(-1.51683 -0.960029 2.75933)
(-2.83524 -0.939191 2.81971)
(6.15892 -3.22355 3.31041)
(-16.2283 0.36193 -0.0899196)
(-15.4425 0.329458 0.195538)
(-14.7245 0.0355438 0.191007)
(-14.2122 -0.331223 0.177755)
(-14.1856 -0.468691 0.211894)
(-12.5928 -0.791426 0.408609)
(-12.9672 -0.523229 0.629665)
(-2.77574 -2.7446 1.06345)
(-16.3858 0.196774 0.127362)
(-15.7933 0.123066 0.500902)
(-15.1967 -0.0785883 0.597761)
(-14.5743 -0.357372 0.631225)
(-14.4198 -0.407577 0.672085)
(-12.4098 -0.67132 0.810083)
(-12.4666 -0.294405 0.934542)
(-1.2686 -2.68129 1.14035)
(-18.0812 0.0939776 0.0288472)
(-17.7711 -0.00934824 0.335686)
(-17.4431 -0.15304 0.429237)
(-16.8288 -0.359844 0.462333)
(-16.5809 -0.330493 0.495459)
(-14.2128 -0.534852 0.594168)
(-13.8751 -0.0772997 0.676229)
(-1.99653 -2.53025 0.796535)
(-18.3239 0.077379 0.113664)
(-18.0166 -0.0389443 0.389926)
(-17.6935 -0.165831 0.48707)
(-17.0069 -0.349129 0.521785)
(-16.6811 -0.286099 0.544405)
(-14.1144 -0.470146 0.600244)
(-13.6288 0.0160384 0.631791)
(-1.37084 -2.51993 0.674498)
(-18.8161 0.0707296 0.0724818)
(-18.5244 -0.0505233 0.267268)
(-18.213 -0.168397 0.339697)
(-17.4827 -0.337831 0.365518)
(-17.097 -0.251909 0.381007)
(-14.3774 -0.421556 0.415787)
(-13.7575 0.0835531 0.432791)
(-1.22176 -2.50147 0.454522)
(-18.9269 0.0728825 0.0605919)
(-18.6237 -0.0499529 0.181069)
(-18.2985 -0.165077 0.226508)
(-17.5326 -0.330152 0.242495)
(-17.1106 -0.234403 0.251199)
(-14.3087 -0.399098 0.268306)
(-13.6294 0.113259 0.274482)
(-0.933206 -2.50724 0.280203)
(-19.0456 0.0727396 0.0147487)
(-18.7424 -0.050351 0.0533234)
(-18.4127 -0.16348 0.0683078)
(-17.631 -0.325791 0.0735904)
(-17.1879 -0.224949 0.0767867)
(-14.3442 -0.38634 0.0825724)
(-13.624 0.129509 0.0855057)
(-0.853638 -2.50674 0.0875355)
(9.2806 -15.2561 -0.724246)
(8.63795 -13.0532 -0.50492)
(8.63945 -10.3764 -0.354523)
(8.6742 -8.65488 -0.229593)
(8.76153 -7.33131 -0.169726)
(8.81534 -6.39913 -0.104625)
(8.86031 -5.809 -0.0643128)
(8.87987 -5.52432 -0.0191158)
(7.2616 -23.5051 -0.0448896)
(6.35547 -22.8517 0.0433201)
(6.15725 -21.8402 0.0980742)
(6.09097 -21.08 0.103788)
(6.09205 -20.4412 0.0856552)
(6.08996 -19.9719 0.0660321)
(6.09804 -19.6654 0.0390172)
(6.10031 -19.5042 0.0143874)
(7.37338 -21.2655 0.438981)
(6.53265 -20.2192 0.434139)
(6.41266 -19.1354 0.389515)
(6.39786 -18.3965 0.312892)
(6.42885 -17.7439 0.242182)
(6.4446 -17.3062 0.169059)
(6.46243 -17.004 0.100046)
(6.46852 -16.8645 0.0330478)
(8.43554 -21.8428 0.814202)
(7.58688 -21.079 0.668455)
(7.5591 -20.3152 0.561021)
(7.55965 -19.7933 0.435465)
(7.62034 -19.2713 0.336495)
(7.64998 -18.9508 0.23115)
(7.68016 -18.7107 0.138409)
(7.69159 -18.6015 0.0451122)
)
;
        pressure        uniform 0;
        secondOrder     false;
        setEffectiveTraction false;
        relaxationFactor 1;
        value           nonuniform List<vector> 
192
(
(7.72882e-08 4.41743e-08 1.96012e-08)
(8.50915e-08 2.78047e-08 3.53021e-08)
(8.75974e-08 1.54945e-08 4.26554e-08)
(8.91407e-08 8.06067e-09 4.79289e-08)
(9.21732e-08 2.58278e-09 5.31089e-08)
(9.80852e-08 -2.41195e-09 5.91994e-08)
(1.08156e-07 -1.09574e-08 6.71301e-08)
(1.23594e-07 -4.79636e-08 7.64424e-08)
(6.33321e-08 2.46228e-08 3.37702e-10)
(6.94264e-08 1.48259e-08 8.91591e-09)
(7.09759e-08 7.43388e-09 1.61602e-08)
(7.20349e-08 2.12574e-09 2.14522e-08)
(7.47991e-08 -2.46278e-09 2.61133e-08)
(8.07156e-08 -6.72895e-09 3.10489e-08)
(9.13766e-08 -1.3162e-08 3.62279e-08)
(1.08937e-07 -4.39956e-08 3.94258e-08)
(5.42078e-08 1.77619e-08 -8.65678e-11)
(5.96262e-08 8.02157e-09 5.45701e-09)
(6.09356e-08 1.61052e-09 1.18754e-08)
(6.18657e-08 -2.59556e-09 1.72862e-08)
(6.45273e-08 -6.05101e-09 2.18868e-08)
(7.0478e-08 -8.90231e-09 2.60811e-08)
(8.14453e-08 -1.33565e-08 2.95188e-08)
(9.96279e-08 -4.13645e-08 3.07684e-08)
(4.91387e-08 1.53817e-08 7.24784e-10)
(5.39959e-08 5.21165e-09 4.90685e-09)
(5.52971e-08 -1.54834e-09 1.00312e-08)
(5.62827e-08 -5.57807e-09 1.48132e-08)
(5.89601e-08 -8.35864e-09 1.89134e-08)
(6.49395e-08 -1.02268e-08 2.23011e-08)
(7.59917e-08 -1.36992e-08 2.47068e-08)
(9.42696e-08 -4.04972e-08 2.55931e-08)
(4.64218e-08 1.43704e-08 9.83727e-10)
(5.1e-08 4.0755e-09 4.21584e-09)
(5.23457e-08 -3.02645e-09 8.04189e-09)
(5.3423e-08 -7.19285e-09 1.17794e-08)
(5.6151e-08 -9.761e-09 1.50403e-08)
(6.21415e-08 -1.12308e-08 1.76378e-08)
(7.31682e-08 -1.43725e-08 1.94145e-08)
(9.13575e-08 -4.0547e-08 2.0235e-08)
(4.4913e-08 1.38656e-08 8.59354e-10)
(4.93805e-08 3.5751e-09 3.18391e-09)
(5.07699e-08 -3.68245e-09 5.82322e-09)
(5.19162e-08 -7.99867e-09 8.43358e-09)
(5.46826e-08 -1.05886e-08 1.07424e-08)
(6.06664e-08 -1.20019e-08 1.2579e-08)
(7.16349e-08 -1.50958e-08 1.38552e-08)
(8.97133e-08 -4.09254e-08 1.45531e-08)
(4.40802e-08 1.36021e-08 5.60088e-10)
(4.85005e-08 3.33949e-09 1.96019e-09)
(4.99172e-08 -3.97131e-09 3.50653e-09)
(5.11025e-08 -8.38389e-09 5.0356e-09)
(5.38882e-08 -1.10533e-08 6.39913e-09)
(5.9859e-08 -1.2524e-08 7.49418e-09)
(7.0777e-08 -1.56555e-08 8.2748e-09)
(8.87732e-08 -4.13063e-08 8.74325e-09)
(4.37033e-08 1.34859e-08 1.92563e-10)
(4.8103e-08 3.24178e-09 6.59691e-10)
(4.95313e-08 -4.08381e-09 1.16898e-09)
(5.07328e-08 -8.54112e-09 1.6716e-09)
(5.35255e-08 -1.12642e-08 2.12144e-09)
(5.94872e-08 -1.27856e-08 2.48534e-09)
(7.03779e-08 -1.59519e-08 2.7489e-09)
(8.83324e-08 -4.15284e-08 2.91347e-09)
(1.99875e-08 4.60904e-08 8.1122e-08)
(3.16564e-08 3.0621e-08 9.39316e-08)
(3.31327e-08 1.83688e-08 1.02551e-07)
(3.30271e-08 1.04802e-08 1.09577e-07)
(3.39363e-08 4.44329e-09 1.16957e-07)
(3.68573e-08 -1.19227e-09 1.26057e-07)
(4.30681e-08 -1.05727e-08 1.37887e-07)
(5.2627e-08 -4.83708e-08 1.53293e-07)
(1.35183e-09 3.17664e-08 7.36133e-08)
(5.08888e-09 2.30537e-08 8.63179e-08)
(6.31252e-09 1.54454e-08 9.42052e-08)
(6.72034e-09 8.82607e-09 1.00725e-07)
(7.53295e-09 2.35964e-09 1.07825e-07)
(9.24783e-09 -4.17468e-09 1.16854e-07)
(1.22133e-08 -1.31123e-08 1.29161e-07)
(1.55904e-08 -4.64351e-08 1.46802e-07)
(-7.40984e-10 3.16529e-08 7.30687e-08)
(-2.74861e-09 2.26795e-08 8.59601e-08)
(-1.97503e-09 1.48166e-08 9.39814e-08)
(-1.6273e-10 7.97126e-09 1.00601e-07)
(1.48022e-09 1.29901e-09 1.07779e-07)
(2.46734e-09 -5.43497e-09 1.1687e-07)
(2.44412e-09 -1.45681e-08 1.29233e-07)
(2.15759e-09 -4.79366e-08 1.4696e-07)
(-1.90071e-08 4.54895e-08 7.97183e-08)
(-2.88513e-08 2.92765e-08 9.31719e-08)
(-2.83561e-08 1.63278e-08 1.02193e-07)
(-2.60433e-08 7.80557e-09 1.09516e-07)
(-2.44964e-08 1.18854e-09 1.17129e-07)
(-2.47232e-08 -5.00407e-09 1.26417e-07)
(-2.80409e-08 -1.49418e-08 1.38413e-07)
(-3.458e-08 -5.29774e-08 1.5406e-07)
(-7.38448e-08 4.24199e-08 2.00063e-08)
(-7.99641e-08 2.53265e-08 3.65095e-08)
(-8.05943e-08 1.22727e-08 4.44722e-08)
(-7.99924e-08 4.12008e-09 5.01922e-08)
(-8.06157e-08 -2.03887e-09 5.57148e-08)
(-8.38854e-08 -7.68837e-09 6.20866e-08)
(-9.11656e-08 -1.68581e-08 7.02594e-08)
(-1.03765e-07 -5.41163e-08 7.97475e-08)
(-5.99365e-08 2.31215e-08 8.2295e-10)
(-6.47361e-08 1.24883e-08 1.01012e-08)
(-6.46861e-08 4.30059e-09 1.78807e-08)
(-6.38011e-08 -1.74477e-09 2.35869e-08)
(-6.42991e-08 -7.0236e-09 2.8576e-08)
(-6.76695e-08 -1.19477e-08 3.37781e-08)
(-7.56092e-08 -1.89906e-08 3.91645e-08)
(-9.0442e-08 -5.00279e-08 4.24709e-08)
(-5.10356e-08 1.65109e-08 2.72791e-10)
(-5.53979e-08 5.94532e-09 6.35656e-09)
(-5.53308e-08 -1.28854e-09 1.32029e-08)
(-5.45043e-08 -6.26281e-09 1.89654e-08)
(-5.50457e-08 -1.04346e-08 2.38576e-08)
(-5.85556e-08 -1.3961e-08 2.82902e-08)
(-6.6871e-08 -1.90292e-08 3.19033e-08)
(-8.23742e-08 -4.72315e-08 3.32286e-08)
(-4.61703e-08 1.43208e-08 9.8127e-10)
(-5.01568e-08 3.37603e-09 5.56225e-09)
(-5.0256e-08 -4.20024e-09 1.10136e-08)
(-4.96426e-08 -9.01422e-09 1.60768e-08)
(-5.03321e-08 -1.25343e-08 2.04195e-08)
(-5.39735e-08 -1.50993e-08 2.40082e-08)
(-6.24453e-08 -1.92031e-08 2.656e-08)
(-7.8088e-08 -4.62092e-08 2.75067e-08)
(-4.35958e-08 1.34441e-08 1.1612e-09)
(-4.74355e-08 2.42629e-09 4.67532e-09)
(-4.7709e-08 -5.47143e-09 8.73959e-09)
(-4.73111e-08 -1.04245e-08 1.26891e-08)
(-4.8161e-08 -1.37471e-08 1.61383e-08)
(-5.19038e-08 -1.59332e-08 1.88947e-08)
(-6.04182e-08 -1.97263e-08 2.07879e-08)
(-7.60185e-08 -4.61279e-08 2.16573e-08)
(-4.2177e-08 1.30287e-08 9.7503e-10)
(-4.59928e-08 2.05713e-09 3.48575e-09)
(-4.64e-08 -5.97457e-09 6.28595e-09)
(-4.61612e-08 -1.10734e-08 9.04321e-09)
(-4.71331e-08 -1.44256e-08 1.14855e-08)
(-5.09407e-08 -1.65693e-08 1.34367e-08)
(-5.94535e-08 -2.03315e-08 1.47979e-08)
(-7.49839e-08 -4.64045e-08 1.55322e-08)
(-4.13964e-08 1.28192e-08 6.25311e-10)
(-4.52169e-08 1.90401e-09 2.13109e-09)
(-4.57077e-08 -6.16443e-09 3.7701e-09)
(-4.55663e-08 -1.13544e-08 5.38527e-09)
(-4.66132e-08 -1.47895e-08 6.82824e-09)
(-5.0457e-08 -1.69993e-08 7.99234e-09)
(-5.89595e-08 -2.08103e-08 8.82471e-09)
(-7.44379e-08 -4.6716e-08 9.31559e-09)
(-4.10435e-08 1.27283e-08 2.13631e-10)
(-4.48676e-08 1.84594e-09 7.14996e-10)
(-4.53969e-08 -6.22854e-09 1.25452e-09)
(-4.53004e-08 -1.14599e-08 1.78547e-09)
(-4.63819e-08 -1.49499e-08 2.26167e-09)
(-5.02417e-08 -1.72144e-08 2.64863e-09)
(-5.87376e-08 -2.10658e-08 2.92955e-09)
(-7.419e-08 -4.69031e-08 3.10169e-09)
(5.29856e-08 -1.25208e-07 7.91544e-08)
(4.41977e-08 -1.1516e-07 4.13352e-08)
(3.8728e-08 -1.0867e-07 3.18885e-08)
(3.63027e-08 -1.04904e-07 2.62557e-08)
(3.53301e-08 -1.03007e-07 2.06972e-08)
(3.48962e-08 -1.02138e-07 1.49048e-08)
(3.46601e-08 -1.01777e-07 8.97534e-09)
(3.45436e-08 -1.01653e-07 2.99531e-09)
(1.59384e-08 -1.19413e-07 7.65379e-08)
(1.33247e-08 -1.07162e-07 4.32323e-08)
(1.11183e-08 -1.00241e-07 3.43228e-08)
(1.0042e-08 -9.6572e-08 2.78642e-08)
(9.59393e-09 -9.48547e-08 2.15611e-08)
(9.37524e-09 -9.40968e-08 1.53352e-08)
(9.24259e-09 -9.37833e-08 9.17563e-09)
(9.17356e-09 -9.3674e-08 3.0545e-09)
(2.51265e-09 -1.20265e-07 7.73517e-08)
(3.54425e-09 -1.07947e-07 4.40102e-08)
(4.36716e-09 -1.00989e-07 3.49323e-08)
(4.3276e-09 -9.72873e-08 2.83258e-08)
(3.91692e-09 -9.55405e-08 2.18989e-08)
(3.51333e-09 -9.47593e-08 1.5566e-08)
(3.24244e-09 -9.44298e-08 9.31016e-09)
(3.11335e-09 -9.43124e-08 3.0987e-09)
(-3.42178e-08 -1.28077e-07 8.16712e-08)
(-2.69505e-08 -1.17833e-07 4.36312e-08)
(-2.2828e-08 -1.11234e-07 3.36924e-08)
(-2.15221e-08 -1.07367e-07 2.76359e-08)
(-2.14223e-08 -1.05382e-07 2.17144e-08)
(-2.16226e-08 -1.04443e-07 1.5602e-08)
(-2.17976e-08 -1.04035e-07 9.38197e-09)
(-2.18829e-08 -1.03888e-07 3.12891e-09)
)
;
        gradient        nonuniform List<vector> 
192
(
(4.60137e-06 1.01846e-06 -1.13486e-07)
(4.31515e-06 2.56034e-07 -1.81196e-07)
(4.40196e-06 2.66566e-08 -1.94443e-07)
(4.53246e-06 1.68224e-08 -1.97429e-07)
(4.70076e-06 7.74156e-08 -1.99662e-07)
(4.9384e-06 1.82965e-07 -2.00789e-07)
(5.2476e-06 3.13439e-07 -2.00099e-07)
(5.72549e-06 2.27746e-07 -1.9817e-07)
(3.90404e-06 7.52707e-07 -1.72143e-07)
(3.7058e-06 1.88844e-07 -2.6601e-07)
(3.76016e-06 1.19523e-08 -2.82742e-07)
(3.86668e-06 1.01156e-08 -2.87341e-07)
(4.02559e-06 7.24516e-08 -2.91457e-07)
(4.27138e-06 1.81906e-07 -2.93483e-07)
(4.62425e-06 3.20015e-07 -2.90776e-07)
(5.24917e-06 2.30047e-07 -2.83703e-07)
(3.44343e-06 5.80364e-07 -9.8295e-08)
(3.34183e-06 1.45453e-07 -1.54578e-07)
(3.39983e-06 5.32966e-09 -1.61852e-07)
(3.49969e-06 8.10785e-09 -1.61603e-07)
(3.65477e-06 7.12734e-08 -1.62198e-07)
(3.90363e-06 1.83645e-07 -1.61857e-07)
(4.27373e-06 3.23219e-07 -1.59499e-07)
(4.94288e-06 2.31879e-07 -1.58933e-07)
(3.16169e-06 4.99879e-07 -4.3933e-08)
(3.08956e-06 1.25302e-07 -7.02386e-08)
(3.15315e-06 4.93082e-09 -7.16839e-08)
(3.2528e-06 9.77008e-09 -6.90362e-08)
(3.40715e-06 7.21973e-08 -6.76858e-08)
(3.65662e-06 1.84605e-07 -6.70714e-08)
(4.03137e-06 3.2294e-07 -6.70157e-08)
(4.71141e-06 2.32648e-07 -6.92743e-08)
(2.99623e-06 4.66221e-07 -1.87631e-08)
(2.93262e-06 1.17713e-07 -2.9496e-08)
(2.9993e-06 6.53481e-09 -2.88885e-08)
(3.10034e-06 1.21066e-08 -2.63389e-08)
(3.25534e-06 7.32384e-08 -2.49089e-08)
(3.50493e-06 1.84316e-07 -2.47984e-08)
(3.87957e-06 3.21017e-07 -2.60319e-08)
(4.55829e-06 2.32229e-07 -2.87785e-08)
(2.89866e-06 4.5164e-07 -8.64099e-09)
(2.83826e-06 1.15185e-07 -1.29889e-08)
(2.90647e-06 8.09e-09 -1.21364e-08)
(3.00878e-06 1.37502e-08 -1.0495e-08)
(3.16454e-06 7.37381e-08 -9.65095e-09)
(3.41391e-06 1.83482e-07 -9.90908e-09)
(3.78691e-06 3.18961e-07 -1.12669e-08)
(4.46198e-06 2.31181e-07 -1.34688e-08)
(2.84345e-06 4.44604e-07 -4.12203e-09)
(2.78458e-06 1.14223e-07 -6.02488e-09)
(2.85353e-06 9.03016e-09 -5.50847e-09)
(2.95664e-06 1.45924e-08 -4.69587e-09)
(3.11289e-06 7.38245e-08 -4.34966e-09)
(3.36194e-06 1.827e-07 -4.65137e-09)
(3.73332e-06 3.17458e-07 -5.57134e-09)
(4.4054e-06 2.30154e-07 -6.91362e-09)
(2.81835e-06 4.41501e-07 -1.26394e-09)
(2.76014e-06 1.13801e-07 -1.84155e-09)
(2.8294e-06 9.41988e-09 -1.68645e-09)
(2.93287e-06 1.49092e-08 -1.45212e-09)
(3.08934e-06 7.37827e-08 -1.36969e-09)
(3.33817e-06 1.82261e-07 -1.49395e-09)
(3.70862e-06 3.16699e-07 -1.80933e-09)
(4.37915e-06 2.29557e-07 -2.25351e-09)
(1.73083e-08 1.17175e-06 4.80818e-06)
(4.03372e-08 4.81337e-07 4.50916e-06)
(4.47823e-08 2.56602e-07 4.59723e-06)
(4.33788e-08 2.10381e-07 4.73438e-06)
(4.18062e-08 2.26256e-07 4.90821e-06)
(4.01752e-08 2.8054e-07 5.14781e-06)
(4.05722e-08 3.44213e-07 5.46047e-06)
(4.8103e-08 1.9517e-07 5.94985e-06)
(-3.79462e-08 1.08189e-06 4.36546e-06)
(-4.47813e-08 4.68278e-07 4.10149e-06)
(-4.37858e-08 2.5151e-07 4.13974e-06)
(-4.43971e-08 2.0479e-07 4.24803e-06)
(-4.53587e-08 2.21368e-07 4.41019e-06)
(-4.61276e-08 2.79081e-07 4.65287e-06)
(-4.41269e-08 3.53435e-07 5.0007e-06)
(-3.47116e-08 2.01193e-07 5.63504e-06)
(4.5752e-08 1.08891e-06 4.31585e-06)
(6.90416e-08 4.7545e-07 4.05084e-06)
(8.05604e-08 2.56971e-07 4.0871e-06)
(9.02174e-08 2.08801e-07 4.19426e-06)
(9.80708e-08 2.24518e-07 4.35572e-06)
(1.0453e-07 2.81759e-07 4.5977e-06)
(1.07498e-07 3.55603e-07 4.94501e-06)
(1.01629e-07 2.02061e-07 5.5825e-06)
(-8.72637e-09 1.19657e-06 4.67101e-06)
(-1.59816e-08 5.0304e-07 4.37394e-06)
(-8.51881e-09 2.7267e-07 4.45684e-06)
(1.70986e-09 2.22294e-07 4.59076e-06)
(1.00934e-08 2.35676e-07 4.76251e-06)
(1.72839e-08 2.885e-07 5.00017e-06)
(2.16076e-08 3.50513e-07 5.31124e-06)
(1.76065e-08 1.97566e-07 5.80951e-06)
(-4.39575e-06 9.51003e-07 -1.0595e-07)
(-4.105e-06 1.87043e-07 -1.59057e-07)
(-4.18757e-06 -5.1732e-08 -1.6082e-07)
(-4.31421e-06 -7.25445e-08 -1.55105e-07)
(-4.47945e-06 -2.2516e-08 -1.50589e-07)
(-4.71569e-06 7.37562e-08 -1.46277e-07)
(-5.02837e-06 1.97203e-07 -1.4105e-07)
(-5.51724e-06 1.0645e-07 -1.35481e-07)
(-3.6895e-06 6.98295e-07 -1.65956e-07)
(-3.49115e-06 1.32046e-07 -2.47947e-07)
(-3.54129e-06 -5.66343e-08 -2.54573e-07)
(-3.64289e-06 -7.16226e-08 -2.5101e-07)
(-3.79681e-06 -2.14767e-08 -2.48613e-07)
(-4.03824e-06 7.75384e-08 -2.45433e-07)
(-4.39142e-06 2.07836e-07 -2.38499e-07)
(-5.02867e-06 1.11979e-07 -2.27821e-07)
(-3.23483e-06 5.37088e-07 -9.2996e-08)
(-3.13151e-06 9.84123e-08 -1.40213e-07)
(-3.1848e-06 -5.48005e-08 -1.39311e-07)
(-3.27922e-06 -6.65864e-08 -1.31932e-07)
(-3.42832e-06 -1.69405e-08 -1.26558e-07)
(-3.67107e-06 8.38687e-08 -1.21355e-07)
(-4.03883e-06 2.14814e-07 -1.1507e-07)
(-4.71727e-06 1.17208e-07 -1.11185e-07)
(-2.96019e-06 4.65074e-07 -4.00673e-08)
(-2.88568e-06 8.57205e-08 -5.9777e-08)
(-2.94417e-06 -4.83577e-08 -5.49668e-08)
(-3.03797e-06 -5.88707e-08 -4.65103e-08)
(-3.18572e-06 -1.09002e-08 -4.0057e-08)
(-3.42802e-06 8.90262e-08 -3.51567e-08)
(-3.79863e-06 2.18008e-07 -3.15782e-08)
(-4.48514e-06 1.21129e-07 -3.08514e-08)
(-2.79992e-06 4.37237e-07 -1.62238e-08)
(-2.73365e-06 8.35054e-08 -2.24595e-08)
(-2.79495e-06 -4.15365e-08 -1.73407e-08)
(-2.88983e-06 -5.16774e-08 -1.03771e-08)
(-3.0378e-06 -5.58699e-09 -4.90328e-09)
(-3.27958e-06 9.23478e-08 -1.28553e-09)
(-3.64895e-06 2.19121e-07 4.29944e-10)
(-4.33226e-06 1.23431e-07 1.9683e-10)
(-2.70563e-06 4.26384e-07 -7.09444e-09)
(-2.64242e-06 8.45982e-08 -8.60152e-09)
(-2.70507e-06 -3.62771e-08 -4.75173e-09)
(-2.801e-06 -4.64337e-08 -4.9793e-11)
(-2.94943e-06 -1.8087e-09 3.69579e-09)
(-3.19057e-06 9.43597e-08 6.02315e-09)
(-3.5576e-06 2.19491e-07 6.88039e-09)
(-4.23607e-06 1.24539e-07 6.57386e-09)
(-2.65235e-06 4.21536e-07 -3.29476e-09)
(-2.59058e-06 8.58444e-08 -3.64222e-09)
(-2.65387e-06 -3.2986e-08 -1.42587e-09)
(-2.75046e-06 -4.32301e-08 1.17583e-09)
(-2.89921e-06 4.85969e-10 3.25993e-09)
(-3.13976e-06 9.55326e-08 4.5365e-09)
(-3.50476e-06 2.19672e-07 4.98554e-09)
(-4.17955e-06 1.24998e-07 4.81725e-09)