/*--------------------------------*- C++ -*----------------------------------*\
| =========                 |                                                 |
| \\      /  F ield         | OpenFOAM: The Open Source CFD Toolbox           |
|  \\    /   O peration     | Version:  v1912                                 |
|   \\  /    A nd           | Website:  www.openfoam.com                      |
|    \\/     M anipulation  |                                                 |
\*---------------------------------------------------------------------------*/
FoamFile
{
    version     2.0;
    format      ascii;
    class       volVectorField;
    location    "0.46/solid";
    object      heatFlux;
}
// * * * * * * * * * * * * * * * * * * * * * * * * * * * * * * * * * * * * * //

dimensions      [1 0 -3 0 0 0 0];


internalField   nonuniform List<vector> 
256
(
(-72870.8 59061.7 -77594.8)
(-12388.1 32279.4 -74187)
(11843.3 32080.4 -73269.1)
(68805.4 58093.2 -74747.9)
(-71586.5 5962.3 -76482.9)
(-14593.2 3468.1 -74873.9)
(13970.5 3445.9 -73898.3)
(67302.7 5878.66 -73486.1)
(-72878.5 1266.63 -77839.8)
(-14904.5 687.884 -76297.3)
(14253.8 679.216 -75278.3)
(68495.7 1227.96 -74724.9)
(-74851.8 1473.63 -79838.5)
(-15180.6 782.781 -78284.6)
(14510.6 777.787 -77240.3)
(70380.8 1446.47 -76651.5)
(-77801.2 2538.69 -82804.6)
(-15600.3 1449.62 -81326.3)
(14917.5 1446.63 -80266.8)
(73261.8 2523.77 -79573)
(-82361 6010.13 -87410.9)
(-16272.7 4304.35 -86294.8)
(15584.8 4295.8 -85222.6)
(77787.5 5997.58 -84143)
(-88733.6 24590.4 -93996.1)
(-17314.6 22740.4 -94022.1)
(16610.8 22623.9 -92932.4)
(84184.6 24292.3 -90679.5)
(-88397.5 94457.3 -94415.5)
(-18239.2 96942.9 -96910.8)
(17136.7 95871.8 -95846.9)
(83786.2 91219.8 -91204)
(-66787.2 29372.2 -16015.5)
(-10687.8 5884.96 -13335.1)
(10481.6 5880.69 -13240.5)
(62830.1 28957.8 -15745.2)
(-67447.1 3203.79 -18963.8)
(-12803.8 793.39 -16054.2)
(12591.2 794.398 -15939.4)
(63346.6 3185.85 -18635.3)
(-68821.1 672.703 -19340.4)
(-13097.2 124.596 -16401.9)
(12874.1 122.882 -16281.8)
(64622.9 651.139 -18998.5)
(-70786.1 788.851 -19641.7)
(-13353.6 124.143 -16676.8)
(13117.8 122.131 -16554.5)
(66488.4 765.62 -19295.6)
(-73816.8 1454.32 -20095.5)
(-13763.9 336.677 -17114.9)
(13515.6 334.547 -16991.8)
(69423.2 1433.93 -19751.6)
(-78755.8 4240.32 -20832.4)
(-14473.4 2301.49 -17888.9)
(14215 2292.27 -17766.1)
(74280.4 4214.53 -20497)
(-86316.1 22120.3 -22110.7)
(-15711.9 19397.8 -19394.2)
(15428.6 19275 -19272.6)
(81809.6 21791.3 -21790.5)
(-88768.9 94065.3 -24578.1)
(-17318.7 94075.2 -22734.8)
(16608.5 92972.7 -22620.2)
(84183.7 90705.2 -24290.7)
(-59155 24082.4 -3126.01)
(-9613.08 2890.06 -1459.96)
(9433.21 2900.56 -1452.48)
(55287.5 23712.8 -3096.99)
(-59994.4 2637.33 -3770.58)
(-11568.8 401.369 -1852.23)
(11389.5 404.554 -1842.65)
(55992.1 2625.37 -3734.49)
(-61299.6 588.763 -3836.41)
(-11845.9 65.3188 -1894.26)
(11657.2 64.0634 -1884.29)
(57199.5 567.636 -3799.4)
(-63189.5 718.512 -3869.79)
(-12093.5 69.7774 -1916.47)
(11891.8 67.8087 -1906.42)
(58983.9 693.307 -3833.38)
(-66155.7 1348 -3913.98)
(-12496.6 237.487 -1951.87)
(12280.7 235.051 -1941.91)
(61837.5 1322.36 -3879.96)
(-71075.9 3994.94 -3987.38)
(-13206.4 2025.06 -2024.43)
(12976.7 2014.98 -2014.83)
(66642.6 3958.74 -3958.75)
(-78799.9 20844.6 -4232.37)
(-14476.5 17894.5 -2300.69)
(14214.4 17769.8 -2292)
(74281.5 20498.6 -4214.46)
(-82442.5 87520.9 -5995.12)
(-16281.2 86380.1 -4298.35)
(15580.7 85286.3 -4291.87)
(77787.5 84183.9 -5995.37)
(-54450.9 22475.6 -1110.16)
(-9014.24 2572.78 -173.757)
(8844.61 2585.55 -172.119)
(50673.3 22126.3 -1093.53)
(-55262.8 2493.39 -1302.23)
(-10875.8 359.094 -220.472)
(10709 362.588 -218.378)
(51356.6 2483.44 -1282.15)
(-56527.4 573.494 -1317.88)
(-11145 60.3497 -224.752)
(10969 59.1156 -222.613)
(52524.4 552.248 -1297.51)
(-58385 711.274 -1321.88)
(-11390.2 66.5286 -226.036)
(11200.8 64.5137 -223.908)
(54273.1 685.063 -1301.87)
(-61323 1336.72 -1325.44)
(-11791.8 228.72 -228.062)
(11587.5 226.139 -225.99)
(57088.8 1308.56 -1306.55)
(-66215.5 3921.93 -1336.46)
(-12500.8 1952.67 -236.797)
(12280.7 1942.18 -234.88)
(61846.4 3880.02 -1320.22)
(-73923.5 20112.6 -1441.47)
(-13771.6 17123.9 -335.417)
(13514.8 16998 -333.966)
(69433.6 19754.7 -1431.41)
(-77949.2 82976.3 -2513.56)
(-15615.4 81461.4 -1438.84)
(14911.5 80369.1 -1438.81)
(73270.3 79640.6 -2516.52)
(-51666.5 21670 -586.532)
(-8675.04 2495.84 -51.4299)
(8513.44 2510.06 -50.3566)
(47952.6 21337.1 -574.234)
(-52457.6 2429.61 -678.838)
(-10484.9 350.374 -63.2688)
(10327.8 354.06 -61.8929)
(48619.5 2421.39 -663.835)
(-53704.6 569.115 -684.732)
(-10750.6 59.7545 -64.0604)
(10584.5 58.533 -62.655)
(49770.3 547.919 -669.445)
(-55550.2 710.952 -684.741)
(-10995.5 66.4669 -64.0103)
(10816 64.4323 -62.6096)
(51504.9 684.275 -669.609)
(-58476.3 1333.42 -684.591)
(-11397.1 226.726 -64.0257)
(11202.3 224.079 -62.65)
(54302.8 1304 -670.026)
(-63344.1 3878.9 -690.466)
(-12104.8 1917.7 -67.0153)
(11893.2 1907.01 -65.7141)
(59024.2 3833.87 -677.309)
(-70994.3 19667.5 -756.241)
(-13369 16692.5 -118.824)
(13118.4 16565.9 -117.761)
(66532.1 19302.3 -746.597)
(-75106.7 80114 -1411.1)
(-15206.5 78508 -751.317)
(14503.1 77414.9 -751.051)
(70420.3 76772.5 -1409.63)
(-49996.8 21210.3 -332.971)
(-8478.06 2458.08 -26.2391)
(8321.81 2473.3 -25.5309)
(46320.9 20888.3 -325.114)
(-50777.8 2395.19 -383.33)
(-10258.9 346.464 -31.8901)
(10108.4 350.289 -30.975)
(46980 2388.23 -373.624)
(-52017.1 567.591 -385.98)
(-10523 59.6083 -32.191)
(10363.6 58.399 -31.253)
(48123.4 546.473 -376.049)
(-53858 711.415 -385.43)
(-10768.1 66.5632 -32.0853)
(10595.2 64.5188 -31.1487)
(49851.7 684.482 -375.574)
(-56777.1 1331 -385.195)
(-11169.9 225.715 -32.0286)
(10981.5 223.035 -31.1057)
(52638.9 1300.86 -375.659)
(-61623 3850.28 -389.717)
(-11876.1 1897.87 -33.6725)
(11670.4 1887.07 -32.7895)
(57331.3 3803.45 -380.974)
(-69214.2 19391.9 -431.651)
(-13133.1 16439.6 -62.9458)
(12887.1 16312.6 -62.1837)
(64767.3 19022.4 -424.908)
(-73320.5 78308.7 -827.218)
(-14955.4 76698.2 -430.3)
(14253.2 75604.2 -429.932)
(68626.9 74961.7 -825.259)
(-49038.3 20953.7 -173.348)
(-8367.6 2437.71 -13.3099)
(8214.56 2453.56 -12.9092)
(45383.1 20638.3 -169.024)
(-49814.1 2376.6 -198.984)
(-10132.6 344.423 -16.1111)
(9986.06 348.338 -15.5904)
(46038.5 2370.46 -193.587)
(-51050 567.015 -200.172)
(-10395.9 59.5593 -16.2434)
(10240.6 58.3592 -15.7082)
(47178.6 545.969 -194.628)
(-52888.7 711.736 -199.767)
(-10641.2 66.6293 -16.1761)
(10472.5 64.5796 -15.6412)
(48903.9 684.665 -194.256)
(-55803 1329.13 -199.721)
(-11043 225.138 -16.1475)
(10858.6 222.438 -15.62)
(51684.1 1298.6 -194.378)
(-60632.4 3832.45 -202.65)
(-11747.9 1886.79 -17.0218)
(11545.9 1875.93 -16.5149)
(56356 3784.62 -197.724)
(-68179.4 19230 -226.133)
(-12999.5 16295.8 -32.2545)
(12756.5 16168.7 -31.8048)
(63740.5 18858 -222.243)
(-72260.5 77232.5 -439.909)
(-14809.2 75636.8 -226.46)
(14108.1 74542 -226.19)
(67561.7 73881.5 -438.527)
(-48598.3 20837.9 -53.9443)
(-8317.62 2428.66 -4.09832)
(8166.09 2444.8 -3.96875)
(44952.3 20525.7 -52.566)
(-49372 2368.37 -61.8351)
(-10075.5 343.53 -4.95228)
(9930.91 347.49 -4.78343)
(45606.1 2362.62 -60.1053)
(-50606.4 566.808 -62.18)
(-10338.5 59.5432 -4.9905)
(10185.2 58.3481 -4.81664)
(46744.9 545.804 -60.3985)
(-52444.1 711.866 -62.0421)
(-10584 66.6592 -4.96834)
(10417.2 64.6069 -4.79455)
(48468.8 684.731 -60.2702)
(-55355.9 1328.11 -62.0498)
(-10985.8 224.87 -4.96061)
(10803.3 222.161 -4.78927)
(51245.5 1297.39 -60.3323)
(-60176.6 3823.87 -63.0621)
(-11689.9 1881.77 -5.23695)
(11489.7 1870.89 -5.0721)
(55906.7 3775.59 -61.4769)
(-67700.4 19154.7 -70.6308)
(-12938.7 16230.1 -9.98027)
(12697.1 16102.9 -9.83243)
(63264.6 18781.6 -69.3701)
(-71764.5 76726.9 -138.396)
(-14741.6 75142.2 -70.9392)
(14041.1 74047 -70.8426)
(67062.6 73373.9 -137.92)
)
;

boundaryField
{
    interface
    {
        type            calculated;
        value           nonuniform List<vector> 
192
(
(-121148 59061.7 -77594.8)
(-114202 5962.3 -76482.9)
(-116175 1266.63 -77839.8)
(-119575 1473.63 -79838.5)
(-124638 2538.69 -82804.6)
(-132416 6010.13 -87410.9)
(-143092 24590.4 -93996.1)
(-140789 94457.3 -94415.5)
(-112205 29372.2 -16015.5)
(-109289 3203.79 -18963.8)
(-111452 672.703 -19340.4)
(-114871 788.851 -19641.7)
(-120114 1454.32 -20095.5)
(-128575 4240.32 -20832.4)
(-141235 22120.3 -22110.7)
(-143156 94065.3 -24578.1)
(-99076.9 24082.4 -3126.01)
(-96837.2 2637.33 -3770.58)
(-98894.1 588.763 -3836.41)
(-102181 718.512 -3869.79)
(-107309 1348 -3913.98)
(-115732 3994.94 -3987.38)
(-128658 20844.6 -4232.37)
(-132565 87520.9 -5995.12)
(-90864.4 22475.6 -1110.16)
(-88757.3 2493.39 -1302.23)
(-90748.8 573.494 -1317.88)
(-93975.4 711.274 -1321.88)
(-99050.5 1336.72 -1325.44)
(-107420 3921.93 -1336.46)
(-120313 20112.6 -1441.47)
(-124910 82976.3 -2513.56)
(-85972.6 21670 -586.532)
(-83927.2 2429.61 -678.838)
(-85890.4 569.115 -684.732)
(-89093.6 710.952 -684.741)
(-94144.8 1333.42 -684.591)
(-102468 3878.9 -690.466)
(-115258 19667.5 -756.241)
(-120043 80114 -1411.1)
(-83026.4 21210.3 -332.971)
(-81018.4 2395.19 -383.33)
(-82969.5 567.591 -385.98)
(-86162.9 711.415 -385.43)
(-91199.8 1331 -385.195)
(-99482.4 3850.28 -389.717)
(-112169 19391.9 -431.651)
(-116973 78308.7 -827.218)
(-81329.7 20953.7 -173.348)
(-79343.1 2376.6 -198.984)
(-81288.7 567.015 -200.172)
(-84477.3 711.736 -199.767)
(-89504.5 1329.13 -199.721)
(-97756.8 3832.45 -202.65)
(-110366 19230 -226.133)
(-115145 77232.5 -439.909)
(-80549.4 20837.9 -53.9443)
(-78572.5 2368.37 -61.8351)
(-80515.9 566.808 -62.18)
(-83702.4 711.866 -62.0421)
(-88724.6 1328.11 -62.0498)
(-96960.7 3823.87 -63.0621)
(-109529 19154.7 -70.6308)
(-114288 76726.9 -138.396)
(-72870.8 59061.7 -127936)
(-71586.5 5962.3 -120840)
(-72878.5 1266.63 -122909)
(-74851.8 1473.63 -126363)
(-77801.2 2538.69 -131469)
(-82361 6010.13 -139340)
(-88733.6 24590.4 -150313)
(-88397.5 94457.3 -148409)
(-12388.1 32279.4 -124345)
(-14593.2 3468.1 -120988)
(-14904.5 687.884 -123216)
(-15180.6 782.781 -126683)
(-15600.3 1449.62 -131957)
(-16272.7 4304.35 -140477)
(-17314.6 22740.4 -153343)
(-18239.2 96942.9 -155024)
(11843.3 32080.4 -122686)
(13970.5 3445.9 -119250)
(14253.8 679.216 -121401)
(14510.6 777.787 -124821)
(14917.5 1446.63 -130067)
(15584.8 4295.8 -138562)
(16610.8 22623.9 -151391)
(17136.7 95871.8 -153113)
(68805.4 58093.2 -122744)
(67302.7 5878.66 -115454)
(68495.7 1227.96 -117312)
(70380.8 1446.47 -120631)
(73261.8 2523.77 -125646)
(77787.5 5997.58 -133434)
(84184.6 24292.3 -144293)
(83786.2 91219.8 -142554)
(113742 58093.2 -74747.9)
(106449 5878.66 -73486.1)
(108257 1227.96 -74724.9)
(111507 1446.47 -76651.5)
(116452 2523.77 -79573)
(124166 5997.58 -84143)
(134894 24292.3 -90679.5)
(132827 91219.8 -91204)
(104691 28957.8 -15745.2)
(101508 3185.85 -18635.3)
(103494 651.139 -18998.5)
(106735 765.62 -19295.6)
(111807 1433.93 -19751.6)
(120121 4214.53 -20497)
(132735 21791.3 -21790.5)
(134895 90705.2 -24290.7)
(91715.5 23712.8 -3096.99)
(89219.3 2625.37 -3734.49)
(91098 567.636 -3799.4)
(94195.8 693.307 -3833.38)
(99123 1322.36 -3879.96)
(107339 3958.74 -3958.75)
(120123 20498.6 -4214.46)
(124171 84183.9 -5995.37)
(83666.4 22126.3 -1093.53)
(81311.9 2483.44 -1282.15)
(83126.8 552.248 -1297.51)
(86158.6 685.063 -1301.87)
(91014.5 1308.56 -1306.55)
(99140.4 3880.02 -1320.22)
(111828 19754.7 -1431.41)
(116475 79640.6 -2516.52)
(78888.6 21337.1 -574.234)
(76601.6 2421.39 -663.835)
(78389.4 547.919 -669.445)
(81393.6 684.275 -669.609)
(86214.7 1304 -670.026)
(94272.3 3833.87 -677.309)
(106820 19302.3 -746.597)
(111592 76772.5 -1409.63)
(76009.3 20888.3 -325.114)
(73762.5 2388.23 -373.624)
(75538.4 546.473 -376.049)
(78529.9 684.482 -375.574)
(83329.6 1300.86 -375.659)
(91333.4 3803.45 -380.974)
(103754 19022.4 -424.908)
(108505 74961.7 -825.259)
(74348.8 20638.3 -169.024)
(72124.9 2370.46 -193.587)
(73895.6 545.969 -194.628)
(76880.4 684.665 -194.256)
(81666.3 1298.6 -194.378)
(89632.3 3784.62 -197.724)
(101962 18858 -222.243)
(106665 73881.5 -438.527)
(73584.3 20525.7 -52.566)
(71370.8 2362.62 -60.1053)
(73139.3 545.804 -60.3985)
(76121.3 684.731 -60.2702)
(80900.1 1297.39 -60.3323)
(88846.6 3775.59 -61.4769)
(101129 18781.6 -69.3701)
(105801 73373.9 -137.92)
(-88397.5 148480 -94415.5)
(-88768.9 150439 -24578.1)
(-82442.5 139542 -5995.12)
(-77949.2 131786 -2513.56)
(-75106.7 126872 -1411.1)
(-73320.5 123761 -827.218)
(-72260.5 121900 -439.909)
(-71764.5 121025 -138.396)
(-18239.2 155082 -96910.8)
(-17318.7 153443 -22734.8)
(-16281.2 140638 -4298.35)
(-15615.4 132210 -1438.84)
(-15206.5 127100 -751.317)
(-14955.4 123949 -430.3)
(-14809.2 122092 -226.46)
(-14741.6 121225 -70.9392)
(17136.7 153158 -95846.9)
(16608.5 151467 -22620.2)
(15580.7 138682 -4291.87)
(14911.5 130259 -1438.81)
(14503.1 125149 -751.051)
(14253.2 121996 -429.932)
(14108.1 120138 -226.19)
(14041.1 119271 -70.8426)
(83786.2 142584 -91204)
(84183.7 144343 -24290.7)
(77787.5 133512 -5995.37)
(73270.3 125775 -2516.52)
(70420.3 120860 -1409.63)
(68626.9 117743 -825.259)
(67561.7 115879 -438.527)
(67062.6 115000 -137.92)
)
;
    }
    symmetry
    {
        type            symmetry;
    }
    bottom
    {
        type            calculated;
        value           nonuniform List<vector> 
32
(
(-72870.8 107588 -77594.8)
(-66787.2 53081.1 -16015.5)
(-59155 43525.9 -3126.01)
(-54450.9 40577.1 -1110.16)
(-51666.5 39085.2 -586.532)
(-49996.8 38231 -332.971)
(-49038.3 37753.4 -173.348)
(-48598.3 37537.6 -53.9443)
(-12388.1 58400.1 -74187)
(-10687.8 10342.1 -13335.1)
(-9613.08 5059.64 -1459.96)
(-9014.24 4502.22 -173.757)
(-8675.04 4364.61 -51.4299)
(-8478.06 4296.5 -26.2391)
(-8367.6 4259.65 -13.3099)
(-8317.62 4243.26 -4.09832)
(11843.3 58035.5 -73269.1)
(10481.6 10330.1 -13240.5)
(9433.21 5073.57 -1452.48)
(8844.61 4520.16 -172.119)
(8513.44 4385.09 -50.3566)
(8321.81 4318.73 -25.5309)
(8214.56 4282.97 -12.9092)
(8166.09 4267.09 -3.96875)
(68805.4 105773 -74747.9)
(62830.1 52268.6 -15745.2)
(55287.5 42792.5 -3096.99)
(50673.3 39880.7 -1093.53)
(47952.6 38418.4 -574.234)
(46320.9 37583.7 -325.114)
(45383.1 37117.9 -169.024)
(44952.3 36907.6 -52.566)
)
;
    }
}


// ************************************************************************* //
