/*--------------------------------*- C++ -*----------------------------------*\
| =========                 |                                                 |
| \\      /  F ield         | OpenFOAM: The Open Source CFD Toolbox           |
|  \\    /   O peration     | Version:  v1912                                 |
|   \\  /    A nd           | Website:  www.openfoam.com                      |
|    \\/     M anipulation  |                                                 |
\*---------------------------------------------------------------------------*/
FoamFile
{
    version     2.0;
    format      ascii;
    class       pointVectorField;
    location    "0.46/solid";
    object      pointDD;
}
// * * * * * * * * * * * * * * * * * * * * * * * * * * * * * * * * * * * * * //

dimensions      [0 1 0 0 0 0 0];


internalField   nonuniform List<vector> 
405
(
(2.42453e-10 4.09731e-10 2.35798e-10)
(1.05133e-10 2.8124e-10 1.55215e-10)
(-3.87458e-12 2.34695e-10 1.27976e-10)
(-1.08577e-10 2.71991e-10 1.42715e-10)
(-2.2148e-10 3.93555e-10 2.16895e-10)
(4.88978e-10 4.91097e-10 5.70776e-10)
(2.93166e-10 4.66089e-10 5.23493e-10)
(-1.13078e-11 3.89401e-10 4.6134e-10)
(-3.05666e-10 4.53057e-10 4.951e-10)
(-4.60517e-10 4.7565e-10 5.35445e-10)
(6.32329e-10 2.13538e-10 9.41415e-10)
(3.87072e-10 2.37576e-10 8.87975e-10)
(-1.82356e-11 1.95346e-10 8.13572e-10)
(-4.11899e-10 2.34828e-10 8.53502e-10)
(-6.12632e-10 2.14471e-10 8.94696e-10)
(6.39888e-10 -7.61722e-11 1.22985e-09)
(3.87151e-10 -2.60162e-11 1.1707e-09)
(-2.59474e-11 -4.50065e-11 1.08627e-09)
(-4.27354e-10 -2.00469e-11 1.13153e-09)
(-6.33755e-10 -6.14884e-11 1.17552e-09)
(6.26722e-10 -3.42874e-10 1.50085e-09)
(3.70611e-10 -2.96742e-10 1.43219e-09)
(-3.57649e-11 -3.14641e-10 1.33589e-09)
(-4.30352e-10 -2.83481e-10 1.38933e-09)
(-6.38421e-10 -3.16441e-10 1.44068e-09)
(6.56208e-10 -6.22064e-10 1.78784e-09)
(3.85428e-10 -5.9775e-10 1.70389e-09)
(-4.79227e-11 -6.25278e-10 1.59454e-09)
(-4.69316e-10 -5.77958e-10 1.65781e-09)
(-6.90301e-10 -5.8481e-10 1.72257e-09)
(7.86316e-10 -1.00562e-09 2.11439e-09)
(4.72753e-10 -9.97656e-10 2.01247e-09)
(-6.27667e-11 -1.02094e-09 1.89362e-09)
(-5.85849e-10 -9.71411e-10 1.96324e-09)
(-8.47112e-10 -9.5754e-10 2.04415e-09)
(1.04722e-09 -1.68857e-09 2.47382e-09)
(6.32881e-10 -1.65923e-09 2.38933e-09)
(-8.1055e-11 -1.6354e-09 2.27989e-09)
(-7.80947e-10 -1.62319e-09 2.33648e-09)
(-1.13722e-09 -1.62482e-09 2.3983e-09)
(1.20565e-09 -2.15356e-09 2.67747e-09)
(7.25427e-10 -2.09305e-09 2.63359e-09)
(-9.1744e-11 -2.01258e-09 2.55566e-09)
(-8.93712e-10 -2.04197e-09 2.58702e-09)
(-1.32701e-09 -2.07442e-09 2.60607e-09)
(1.26038e-10 2.03678e-10 1.04886e-10)
(0 0 0)
(0 0 0)
(0 0 0)
(-9.6404e-11 1.94837e-10 9.83694e-11)
(3.46069e-10 2.81795e-10 3.83337e-10)
(0 0 0)
(0 0 0)
(0 0 0)
(-2.87569e-10 2.72334e-10 3.62868e-10)
(4.51715e-10 1.19138e-11 7.01883e-10)
(0 0 0)
(0 0 0)
(0 0 0)
(-3.97811e-10 1.7921e-11 6.69459e-10)
(4.52031e-10 -2.6151e-10 9.77786e-10)
(0 0 0)
(0 0 0)
(0 0 0)
(-4.0811e-10 -2.41903e-10 9.3757e-10)
(4.36204e-10 -5.14694e-10 1.23983e-09)
(0 0 0)
(0 0 0)
(0 0 0)
(-4.06997e-10 -4.82748e-10 1.19358e-09)
(4.59174e-10 -7.70463e-10 1.51331e-09)
(0 0 0)
(0 0 0)
(0 0 0)
(-4.49438e-10 -7.26767e-10 1.46171e-09)
(5.7911e-10 -1.0973e-09 1.80872e-09)
(0 0 0)
(0 0 0)
(0 0 0)
(-5.92832e-10 -1.0419e-09 1.75196e-09)
(8.57614e-10 -1.6748e-09 2.07901e-09)
(0 0 0)
(0 0 0)
(0 0 0)
(-8.95006e-10 -1.60351e-09 2.01746e-09)
(1.04514e-09 -2.06894e-09 2.2272e-09)
(6.2996e-10 -1.98281e-09 2.24476e-09)
(-8.37113e-11 -1.87064e-09 2.22347e-09)
(-7.83382e-10 -1.92479e-09 2.21277e-09)
(-1.13911e-09 -1.98456e-09 2.17125e-09)
(3.94247e-11 7.91012e-11 2.56992e-11)
(0 0 0)
(0 0 0)
(0 0 0)
(-1.09428e-11 7.08046e-11 2.26637e-11)
(1.30682e-10 4.22982e-11 1.66425e-10)
(0 0 0)
(0 0 0)
(0 0 0)
(-7.23701e-11 3.32536e-11 1.5511e-10)
(1.84297e-10 -1.99936e-10 4.10776e-10)
(0 0 0)
(0 0 0)
(0 0 0)
(-1.26512e-10 -1.94819e-10 3.90309e-10)
(1.72299e-10 -4.44193e-10 6.64249e-10)
(0 0 0)
(0 0 0)
(0 0 0)
(-1.20904e-10 -4.26421e-10 6.36836e-10)
(1.51788e-10 -6.7408e-10 9.08754e-10)
(0 0 0)
(0 0 0)
(0 0 0)
(-1.12011e-10 -6.4444e-10 8.75678e-10)
(1.70398e-10 -8.92927e-10 1.14678e-09)
(0 0 0)
(0 0 0)
(0 0 0)
(-1.47289e-10 -8.51857e-10 1.10864e-09)
(2.88981e-10 -1.14133e-09 1.36393e-09)
(0 0 0)
(0 0 0)
(0 0 0)
(-2.86744e-10 -1.08905e-09 1.32116e-09)
(5.75926e-10 -1.58269e-09 1.49936e-09)
(0 0 0)
(0 0 0)
(0 0 0)
(-5.94813e-10 -1.5154e-09 1.45307e-09)
(7.80664e-10 -1.88779e-09 1.54373e-09)
(4.65928e-10 -1.78458e-09 1.58377e-09)
(-6.86918e-11 -1.66274e-09 1.60972e-09)
(-5.90714e-10 -1.72933e-09 1.56097e-09)
(-8.51111e-10 -1.80757e-09 1.50279e-09)
(-1.44004e-12 2.50197e-11 1.91899e-11)
(0 0 0)
(0 0 0)
(0 0 0)
(2.97373e-11 1.5811e-11 1.71473e-11)
(2.44681e-11 -6.63811e-11 1.27614e-10)
(0 0 0)
(0 0 0)
(0 0 0)
(3.51011e-11 -7.76871e-11 1.19896e-10)
(4.8809e-11 -3.05784e-10 3.26797e-10)
(0 0 0)
(0 0 0)
(0 0 0)
(1.35098e-11 -3.03638e-10 3.12372e-10)
(3.33734e-11 -5.38868e-10 5.47594e-10)
(0 0 0)
(0 0 0)
(0 0 0)
(2.57444e-11 -5.24485e-10 5.27467e-10)
(1.6507e-11 -7.44846e-10 7.631e-10)
(0 0 0)
(0 0 0)
(0 0 0)
(3.39701e-11 -7.18818e-10 7.38004e-10)
(4.00679e-11 -9.20293e-10 9.58867e-10)
(0 0 0)
(0 0 0)
(0 0 0)
(-3.47092e-12 -8.82993e-10 9.29303e-10)
(1.63903e-10 -1.10352e-09 1.1092e-09)
(0 0 0)
(0 0 0)
(0 0 0)
(-1.45571e-10 -1.05517e-09 1.07574e-09)
(4.496e-10 -1.46665e-09 1.16868e-09)
(0 0 0)
(0 0 0)
(0 0 0)
(-4.5017e-10 -1.40329e-09 1.13253e-09)
(6.43509e-10 -1.74144e-09 1.16058e-09)
(3.71749e-10 -1.65653e-09 1.18636e-09)
(-5.74275e-11 -1.54351e-09 1.21612e-09)
(-4.74218e-10 -1.60328e-09 1.16877e-09)
(-6.93262e-10 -1.66457e-09 1.12884e-09)
(-1.6475e-11 5.90021e-12 2.33094e-11)
(0 0 0)
(0 0 0)
(0 0 0)
(4.47993e-11 -4.18555e-12 2.18584e-11)
(-1.47896e-11 -1.0435e-10 1.20531e-10)
(0 0 0)
(0 0 0)
(0 0 0)
(7.54397e-11 -1.17959e-10 1.15124e-10)
(-3.58267e-13 -3.42525e-10 2.82664e-10)
(0 0 0)
(0 0 0)
(0 0 0)
(6.59819e-11 -3.43503e-10 2.72508e-10)
(-1.37638e-11 -5.6887e-10 4.6099e-10)
(0 0 0)
(0 0 0)
(0 0 0)
(7.86368e-11 -5.57999e-10 4.46524e-10)
(-2.43222e-11 -7.56336e-10 6.34086e-10)
(0 0 0)
(0 0 0)
(0 0 0)
(8.30395e-11 -7.3397e-10 6.15641e-10)
(5.93136e-12 -9.01319e-10 7.83015e-10)
(0 0 0)
(0 0 0)
(0 0 0)
(4.13121e-11 -8.67704e-10 7.60933e-10)
(1.33843e-10 -1.04921e-09 8.83865e-10)
(0 0 0)
(0 0 0)
(0 0 0)
(-1.0261e-10 -1.00446e-09 8.58668e-10)
(4.14765e-10 -1.37853e-09 9.10644e-10)
(0 0 0)
(0 0 0)
(0 0 0)
(-4.00513e-10 -1.31843e-09 8.83363e-10)
(6.00583e-10 -1.64149e-09 8.87646e-10)
(3.44762e-10 -1.57183e-09 8.92923e-10)
(-4.89707e-11 -1.47006e-09 9.0978e-10)
(-4.30192e-10 -1.52011e-09 8.79686e-10)
(-6.33922e-10 -1.56725e-09 8.6371e-10)
(-2.07252e-11 4.75475e-13 2.20362e-11)
(0 0 0)
(0 0 0)
(0 0 0)
(4.91098e-11 -1.02176e-11 2.10468e-11)
(-2.49152e-11 -1.12857e-10 1.01774e-10)
(0 0 0)
(0 0 0)
(0 0 0)
(8.63138e-11 -1.28176e-10 9.81139e-11)
(-1.07227e-11 -3.46203e-10 2.25155e-10)
(0 0 0)
(0 0 0)
(0 0 0)
(7.85409e-11 -3.49675e-10 2.1827e-10)
(-1.99391e-11 -5.65345e-10 3.57317e-10)
(0 0 0)
(0 0 0)
(0 0 0)
(8.87538e-11 -5.57386e-10 3.47403e-10)
(-2.45871e-11 -7.40337e-10 4.8363e-10)
(0 0 0)
(0 0 0)
(0 0 0)
(8.91333e-11 -7.21037e-10 4.70807e-10)
(1.10517e-11 -8.69118e-10 5.8826e-10)
(0 0 0)
(0 0 0)
(0 0 0)
(4.39046e-11 -8.3855e-10 5.72721e-10)
(1.41148e-10 -1.00251e-09 6.53989e-10)
(0 0 0)
(0 0 0)
(0 0 0)
(-1.00429e-10 -9.60647e-10 6.36121e-10)
(4.17147e-10 -1.31857e-09 6.67271e-10)
(0 0 0)
(0 0 0)
(0 0 0)
(-3.91884e-10 -1.26102e-09 6.47855e-10)
(5.98011e-10 -1.57525e-09 6.45697e-10)
(3.46838e-10 -1.51453e-09 6.40458e-10)
(-4.2781e-11 -1.42107e-09 6.46807e-10)
(-4.19758e-10 -1.46391e-09 6.31043e-10)
(-6.19186e-10 -1.503e-09 6.28659e-10)
(-2.14116e-11 -4.6001e-13 1.64044e-11)
(0 0 0)
(0 0 0)
(0 0 0)
(4.98488e-11 -1.15378e-11 1.57896e-11)
(-2.56291e-11 -1.11676e-10 7.21763e-11)
(0 0 0)
(0 0 0)
(0 0 0)
(8.7516e-11 -1.28119e-10 6.99092e-11)
(-9.06464e-12 -3.38774e-10 1.54821e-10)
(0 0 0)
(0 0 0)
(0 0 0)
(7.82814e-11 -3.43962e-10 1.50554e-10)
(-1.44103e-11 -5.51096e-10 2.41266e-10)
(0 0 0)
(0 0 0)
(0 0 0)
(8.5779e-11 -5.4521e-10 2.35086e-10)
(-1.47819e-11 -7.18407e-10 3.22575e-10)
(0 0 0)
(0 0 0)
(0 0 0)
(8.31799e-11 -7.01328e-10 3.14512e-10)
(2.43146e-11 -8.39991e-10 3.88347e-10)
(0 0 0)
(0 0 0)
(0 0 0)
(3.58211e-11 -8.11635e-10 3.78495e-10)
(1.5536e-10 -9.68805e-10 4.28115e-10)
(0 0 0)
(0 0 0)
(0 0 0)
(-1.082e-10 -9.2902e-10 4.16718e-10)
(4.27582e-10 -1.27979e-09 4.35024e-10)
(0 0 0)
(0 0 0)
(0 0 0)
(-3.94786e-10 -1.22407e-09 4.226e-10)
(6.05058e-10 -1.53292e-09 4.20063e-10)
(3.54614e-10 -1.47692e-09 4.13287e-10)
(-3.85643e-11 -1.38831e-09 4.14747e-10)
(-4.19008e-10 -1.42707e-09 4.07263e-10)
(-6.17913e-10 -1.46206e-09 4.09156e-10)
(-2.13081e-11 -3.127e-13 8.61905e-12)
(0 0 0)
(0 0 0)
(0 0 0)
(4.97694e-11 -1.1603e-11 8.32435e-12)
(-2.46997e-11 -1.09004e-10 3.71184e-11)
(0 0 0)
(0 0 0)
(0 0 0)
(8.68538e-11 -1.26078e-10 3.60338e-11)
(-6.25317e-12 -3.31246e-10 7.84203e-11)
(0 0 0)
(0 0 0)
(0 0 0)
(7.62521e-11 -3.37422e-10 7.63787e-11)
(-9.15154e-12 -5.38817e-10 1.20973e-10)
(0 0 0)
(0 0 0)
(0 0 0)
(8.19589e-11 -5.3415e-10 1.18007e-10)
(-7.06535e-12 -7.01997e-10 1.60561e-10)
(0 0 0)
(0 0 0)
(0 0 0)
(7.76551e-11 -6.86243e-10 1.56674e-10)
(3.38646e-11 -8.2081e-10 1.92183e-10)
(0 0 0)
(0 0 0)
(0 0 0)
(2.9246e-11 -7.9378e-10 1.87411e-10)
(1.6525e-10 -9.48628e-10 2.10985e-10)
(0 0 0)
(0 0 0)
(0 0 0)
(-1.14364e-10 -9.10091e-10 2.05444e-10)
(4.35177e-10 -1.25777e-09 2.14028e-10)
(0 0 0)
(0 0 0)
(0 0 0)
(-3.98002e-10 -1.20315e-09 2.07975e-10)
(6.10572e-10 -1.50911e-09 2.06607e-10)
(3.60023e-10 -1.45532e-09 2.02565e-10)
(-3.61191e-11 -1.36905e-09 2.0262e-10)
(-4.19471e-10 -1.40591e-09 1.99631e-10)
(-6.18589e-10 -1.43908e-09 2.01292e-10)
(-5.83262e-12 -6.54885e-12 0)
(4.57324e-12 -2.01268e-11 0)
(1.72258e-13 -3.10502e-11 0)
(-9.76764e-13 -2.37637e-11 0)
(2.93776e-11 -1.83879e-11 0)
(6.77693e-12 -1.14212e-10 0)
(1.53014e-11 -1.39882e-10 0)
(2.5713e-12 -1.60007e-10 0)
(-2.81352e-12 -1.4577e-10 0)
(3.42597e-11 -1.27937e-10 0)
(2.27971e-11 -3.29474e-10 0)
(2.09971e-11 -3.44589e-10 0)
(6.24737e-12 -3.58822e-10 0)
(-5.36266e-13 -3.46769e-10 0)
(2.6542e-11 -3.34627e-10 0)
(1.9907e-11 -5.3395e-10 0)
(1.72151e-11 -5.44956e-10 0)
(7.64753e-12 -5.55407e-10 0)
(5.72723e-12 -5.42176e-10 0)
(3.20239e-11 -5.29847e-10 0)
(2.21717e-11 -7.01578e-10 0)
(1.64599e-11 -7.2533e-10 0)
(5.97318e-12 -7.41458e-10 0)
(3.08038e-12 -7.17143e-10 0)
(2.70457e-11 -6.87861e-10 0)
(6.40848e-11 -8.36162e-10 0)
(4.3075e-11 -8.89536e-10 0)
(1.11042e-12 -9.17438e-10 0)
(-3.30487e-11 -8.75797e-10 0)
(-2.3129e-11 -8.12631e-10 0)
(1.96533e-10 -9.87664e-10 0)
(1.30459e-10 -1.06691e-09 0)
(-7.18353e-12 -1.09548e-09 0)
(-1.36293e-10 -1.04741e-09 0)
(-1.69131e-10 -9.54017e-10 0)
(4.47422e-10 -1.29925e-09 0)
(2.78319e-10 -1.34353e-09 0)
(-1.95692e-11 -1.33223e-09 0)
(-3.06856e-10 -1.31546e-09 0)
(-4.37083e-10 -1.25097e-09 0)
(6.06015e-10 -1.52062e-09 0)
(3.62316e-10 -1.48507e-09 0)
(-3.11086e-11 -1.41961e-09 0)
(-4.12074e-10 -1.44362e-09 0)
(-6.20161e-10 -1.45714e-09 0)
)
;

boundaryField
{
    interface
    {
        type            calculated;
    }
    symmetry
    {
        type            symmetry;
    }
    bottom
    {
        type            calculated;
    }
}


// ************************************************************************* //
