/*--------------------------------*- C++ -*----------------------------------*\
| =========                 |                                                 |
| \\      /  F ield         | OpenFOAM: The Open Source CFD Toolbox           |
|  \\    /   O peration     | Version:  v1912                                 |
|   \\  /    A nd           | Website:  www.openfoam.com                      |
|    \\/     M anipulation  |                                                 |
\*---------------------------------------------------------------------------*/
FoamFile
{
    version     2.0;
    format      ascii;
    class       volScalarField;
    location    "0.46/solid";
    object      sigmaEq;
}
// * * * * * * * * * * * * * * * * * * * * * * * * * * * * * * * * * * * * * //

dimensions      [1 -1 -2 0 0 0 0];


internalField   nonuniform List<scalar> 
256
(
592740
435081
430150
571308
368196
327588
323100
350401
373991
318313
313829
356322
393320
323849
319397
375683
410500
335464
331015
392826
420437
348751
344280
402698
363158
334409
330386
346755
40634.7
373885
370902
44385.6
377426
83278.5
81168.7
354737
292557
80704.2
78627.6
271703
290365
62890.2
61188.7
269599
296277
46252.1
44920.9
275290
307057
39308
38257.6
285716
321881
39973.5
39005.7
300205
311507
17574.6
18746.3
290491
363079
334700
330733
346819
326865
45921
44881.9
305386
282513
50446.9
48329.3
262099
283076
39386.7
37208.1
262270
288632
25982.1
23824.5
267371
299704
20466.5
18410.7
277911
317288
23841.3
21814.6
294989
321594
38595.5
37879.8
299975
420519
349393
345034
403170
295982
40138.8
39400.9
275790
261858
42037
40401.1
242577
263876
32964.4
31174.6
243936
269688
22229.2
20518.7
249110
280961
17519.6
15883.5
259717
299118
20154.6
18246.7
277239
306292
35259
34671.9
285024
412056
337033
332768
395096
278138
35237.5
34353.3
258791
246919
37377.6
35903.4
228396
249977
30072.4
28480.2
230699
256386
20924.4
19367.5
236355
268126
16951.1
15342.4
247340
286636
19442.2
17458.7
265140
294709
34650.7
34133.1
273795
399732
326468
322287
383159
267902
31820.6
30740.8
249087
237758
34427.3
32934.3
219684
241459
28187.7
26590.3
222590
248403
19670.4
18008.6
228720
260564
15987.4
14127.4
240074
279325
19159
17004.1
258083
287846
35778.7
35284
267186
391287
319494
315368
374989
262212
29627.5
28390.8
243711
232561
32507.4
30953.5
214741
236608
26740.7
25072.7
217975
243899
18472.3
16650.3
224424
256330
14984.5
12865.1
236019
275241
18952.3
16685.1
254156
284030
36847.3
36372.4
263535
386393
315309
311219
370274
259645
28519.9
27195.4
241289
230202
31514
29917.5
212501
234399
25913.8
24192
215876
241854
17735.9
15805.9
222476
254410
14378.9
12104
234184
273387
18819.2
16503.6
252377
282308
37393.8
36932.9
261894
384184
313353
309279
368153
)
;

boundaryField
{
    interface
    {
        type            calculated;
        value           nonuniform List<scalar> 
192
(
779624
535847
546036
572423
597741
618485
577723
313382
625813
514930
517364
533442
556387
586673
594717
577785
555692
490563
495935
510989
533885
566773
586831
618978
507503
455251
462592
477718
500610
533991
556970
600201
478788
430462
438941
454549
477761
511404
535320
580902
461982
415191
424269
440323
463860
497656
521899
567940
452551
406484
415860
432202
455954
489821
514176
560337
448284
402529
412029
428506
452360
486250
510639
556856
800546
558724
569188
596121
621966
643194
604824
356443
710041
573591
569178
584738
608211
637162
642058
614850
701643
565536
560901
576357
599757
628609
633748
608708
774178
536642
546779
573467
599146
620197
583013
348826
746604
505073
515034
541181
566240
586765
547009
291716
588374
479191
481230
496656
518874
548490
557082
547088
519644
455456
460080
474282
496238
528174
548509
587356
473095
421555
427929
442044
463846
496088
519117
568907
445520
397775
405187
419676
441696
474083
497914
549952
429439
383131
391093
405961
428240
460708
484788
537226
420436
374791
383024
398146
420600
453096
477247
529774
416367
371006
379353
394595
417131
449630
473796
526367
356790
605026
643759
624560
604983
591741
583936
580355
615098
642615
638416
611145
590522
577051
568969
565181
608924
634298
629872
602718
582176
568753
560699
556925
348994
583210
620950
602157
582938
569949
562307
558807
)
;
    }
    symmetry
    {
        type            symmetry;
    }
    bottom
    {
        type            calculated;
        value           nonuniform List<scalar> 
32
(
818909
466161
383865
347285
327658
316408
310123
307282
535959
104360
50056.7
45190.1
41556.9
38680.7
36755.6
35783.2
530592
101530
47822.1
43168.1
39356.7
36297.8
34236.2
33188.7
794225
441626
360775
325748
307194
296632
290755
288104
)
;
    }
}


// ************************************************************************* //
