/*--------------------------------*- C++ -*----------------------------------*\
| =========                 |                                                 |
| \\      /  F ield         | OpenFOAM: The Open Source CFD Toolbox           |
|  \\    /   O peration     | Version:  v1912                                 |
|   \\  /    A nd           | Website:  www.openfoam.com                      |
|    \\/     M anipulation  |                                                 |
\*---------------------------------------------------------------------------*/
FoamFile
{
    version     2.0;
    format      ascii;
    class       volSymmTensorField;
    location    "0.46/solid";
    object      sigma;
}
// * * * * * * * * * * * * * * * * * * * * * * * * * * * * * * * * * * * * * //

dimensions      [1 -1 -2 0 0 0 0];


internalField   nonuniform List<symmTensor> 
256
(
(-234434 18863 -7399.68 347187 20097.8 -252144)
(45068.9 -9118.76 -2953.76 218998 20098.6 -274316)
(46202.2 11330.9 2922.57 216978 20396.1 -270277)
(-213852 -17359.5 7476.54 343070 21191.7 -237636)
(-270256 -1543.23 -10837.8 90051.1 -163.343 -284634)
(-44576.9 -4360.26 -4714.46 44107.7 1017.31 -318493)
(-42873 6337.16 4797.97 42859.7 1250.36 -314152)
(-247545 2425.49 11001.6 91077 653.863 -269023)
(-272029 -3374.53 -11515.3 94150.2 -2249.56 -286060)
(-52088.8 -2969.4 -5107.63 23668.1 -1975.05 -325502)
(-50423.3 4521.64 5254.08 22605.3 -1817.6 -321049)
(-248955 4012.93 11710.6 95646.2 -1683.42 -270135)
(-273003 -1790.75 -11853.1 111535 -910.61 -288976)
(-44745.1 -1921.63 -5270.13 20074.5 -994.526 -331129)
(-43081.3 3072.39 5428.07 19159 -881.04 -326588)
(-249564 2275.53 12057.7 113368 -490.747 -272782)
(-282554 -134.988 -12146 118318 1034.77 -300155)
(-42295.7 -882.196 -5420.65 16873.5 906.574 -344098)
(-40605.2 1694.17 5572.72 16023.3 999.266 -339493)
(-258776 480.907 12355.2 120381 1375.89 -283739)
(-305724 2475.3 -12358.3 105047 4168.34 -323250)
(-52867.2 626.196 -5547.6 2737.81 4127.49 -370266)
(-51193.6 -155.487 5697.19 1907.82 4213.41 -365616)
(-281776 -2304.5 12576.8 107228 4471.1 -306641)
(-348408 7968.97 -12275.2 5052.15 9720.2 -364699)
(-85448.5 3172.34 -5526.58 -84914.1 10109.9 -418949)
(-83825.8 -3179.17 5688.01 -85147.3 10194.9 -414205)
(-324563 -8062.62 12507.3 8618.66 9996.63 -347754)
(-303100 11617.2 -11548.5 -320305 13566.1 -320192)
(-6699.32 5285.84 -5200.55 -379642 14408.5 -379417)
(-4944.2 -5321.83 5366.97 -374882 14482.7 -374650)
(-279619 -11766.1 11770.8 -303513 13782.9 -303441)
(-249417 12098 -5376.11 178138 -9547.2 31808.7)
(-31542.3 -10113 -1308.83 46923.5 -127.792 -37093.6)
(-30893 11327 1603.4 44228 653.756 -37628)
(-229087 -10986 5552.93 173161 -7133.95 34312.1)
(-288693 -2444.96 -7830.02 31652.1 -1839.8 -36804.4)
(-112172 -4646.88 -2722.95 -32819.3 2818.75 -113479)
(-110747 5632.39 3231.03 -34665.8 3328.2 -113710)
(-266148 2882.45 8106.85 31623.5 -165.977 -33004.6)
(-294561 -3470.02 -8036.2 21972.8 -1253.01 -41785.1)
(-126925 -3121.7 -2888.84 -65706.5 245.34 -129331)
(-125501 3815.63 3462.51 -67151.5 612.071 -129639)
(-271601 3731.38 8338.4 22824.1 1.62304 -38255.7)
(-298375 -1917.89 -8077.98 23938.2 -746.518 -38946.6)
(-125333 -2084.12 -2842.65 -83387.7 -340.984 -132326)
(-123908 2547.9 3417.14 -84650.4 -52.7734 -132696)
(-274999 2111.15 8384.74 25186.2 251.452 -35591.6)
(-309896 -266.543 -8205.63 23650.5 1717.72 -40006)
(-126242 -1062.21 -2892.79 -93649.5 1822.94 -136591)
(-124787 1331.46 3450.17 -94871.2 2065.48 -137006)
(-286067 388.283 8514.19 25074 2547.88 -36741.9)
(-336062 2449.18 -8288.31 11441 5549.51 -49516.4)
(-139384 470.617 -2967.52 -106687 5569.03 -149035)
(-137938 -421.766 3511.81 -107903 5777.6 -149513)
(-311868 -2451.58 8602.87 12959.1 6250.94 -46346.8)
(-385696 8256.19 -8168.33 -74830.3 8820.42 -75600.6)
(-175233 3117.14 -2965.11 -178919 8917.12 -179221)
(-173828 -3398.43 3480.84 -179495 9076.76 -179692)
(-361393 -8473.94 8479.53 -71838 9356.02 -72361.3)
(-348654 12315.4 -7838.05 -364810 9820.12 4795.26)
(-85461.5 5575.41 -2942.88 -419097 10184.8 -84620.9)
(-83801.7 -5660.2 3316.9 -414314 10264.9 -84710.1)
(-324592 -12505.6 8079.77 -347699 10074.3 8692.29)
(-215711 7790.69 -2222.2 134853 3770.11 79695.1)
(-26752.6 -11676.5 -85.3156 12908.5 11883.1 2892.51)
(-26069.6 12235.1 346.472 10414.1 12486.1 2117.9)
(-195556 -6968.39 2312.49 130945 5629.18 81936.9)
(-240841 -2730.35 -2995.62 37453.8 6056.09 45168.4)
(-80222.8 -4973.85 -532.515 -27948 10112.4 -43429.6)
(-78826.1 5441.17 969.917 -29821.2 10617.1 -44086.5)
(-218699 2962.6 3165.13 37390 7655.08 48189.3)
(-245378 -3268.82 -2796.04 37280.6 4650.15 37690.1)
(-91573.6 -3122.46 -482.847 -49183.9 6032.96 -62346.8)
(-90176 3389.91 941.56 -50698.5 6452.61 -63119.5)
(-222846 3359.96 2981.41 37888.3 6001.65 40299.1)
(-249405 -1886.46 -2627.74 40454.3 3563.38 37740.5)
(-90530.4 -2141.02 -354.511 -63640.1 3963.55 -68629.9)
(-89123 2265.09 788.6 -64975.4 4320.75 -69498.4)
(-226433 1945.44 2807.89 41432.6 4717.68 40057.3)
(-260759 -292.414 -2589.77 41086.5 4469.8 36483)
(-91745.9 -1173.04 -326.772 -72391.3 4582.44 -73673.1)
(-90293.4 1187.57 732.436 -73678.1 4891.82 -74618.9)
(-237250 316.552 2763.32 42263 5461.03 38618)
(-286521 2509.04 -2556.87 32235.1 6256.5 28779.1)
(-104389 394.211 -345.861 -81940.9 6267.07 -84690.8)
(-102923 -515.402 725.835 -83201.5 6527.99 -85716)
(-262475 -2573.74 2726.2 33572.2 7087.43 30781.9)
(-336114 8366.65 -2465.18 -47810.1 6272.19 9872.87)
(-138844 3089.82 -370.064 -147652 6240.17 -107393)
(-137386 -3456.64 687.929 -148241 6427.15 -108385)
(-311686 -8613.71 2615.81 -44894.6 6879.4 12016.8)
(-306007 12387.2 -2419.33 -323197 4577.44 105009)
(-52323.4 5577.75 -413.35 -370140 4495.92 3629.45)
(-50598.4 -5675.21 524.681 -365406 4567.08 3091.71)
(-281598 -12581.8 2484.42 -306285 4814.03 107962)
(-195817 5982 -730.823 117267 7837.12 78182.3)
(-24652.1 -12117.3 406.228 1529.99 12607.8 1823.49)
(-23962.3 12281.7 -173.17 -688.558 13045.7 1202.44)
(-175908 -5380.51 791.235 114473 9189.1 80986.1)
(-215256 -2702.33 -842.035 32988.5 9313.89 57414.7)
(-67882.1 -5024.93 505.302 -32309.9 11748.4 -31999.2)
(-66513.4 5193.76 -108.483 -34011.3 12160.4 -32503.6)
(-193512 2814.79 965.689 33367.5 10593.7 60905.8)
(-218957 -2995.3 -579.006 38373.1 8060.42 50219.3)
(-76851.4 -3029.23 647.948 -46612.9 8914.25 -50169.3)
(-75474.8 3068.6 -241.315 -48045.9 9288.66 -50790.6)
(-196843 3000.78 714.567 39133.3 9230.84 53271.6)
(-223138 -1750.87 -380.056 45601.9 6438.29 46997.5)
(-75884.4 -2101.84 773.053 -55709.2 6678.96 -59473.4)
(-74491.3 2056.45 -401.154 -57001.9 7016.15 -60200.2)
(-200570 1745.25 506.549 46618.6 7494.47 49715.8)
(-234567 -244.8 -294.26 48839 5736.59 43520.9)
(-77430.6 -1195.66 816.89 -61409.1 5808.18 -66788.5)
(-75985.6 1095.06 -481.921 -62661.6 6107.27 -67606.9)
(-211415 225.896 408.893 50030.7 6669.27 46011.4)
(-260211 2542.06 -258.186 41286.4 5304.85 36112)
(-90132.8 352.457 804.277 -69691.4 5331.99 -77629.3)
(-88661.2 -538.165 -507.316 -70913.4 5582.33 -78531.9)
(-236417 -2627.81 360.891 42661.8 6086.63 38457.7)
(-309294 8310.68 -249.131 -37048.5 3586.28 21715.5)
(-123828 3008.99 748.132 -134005 3576.94 -95775.8)
(-122343 -3403.11 -529.564 -134552 3750.3 -96626.7)
(-284935 -8561.54 324.931 -34063 4144.18 24251.2)
(-281982 12202.6 -285.651 -299595 2032.38 120427)
(-39407.8 5451.53 699.924 -343384 1889.45 18815.4)
(-37641.9 -5562.41 -686.76 -338641 1948.11 18445.2)
(-257421 -12399.3 277.645 -282693 2231.84 123829)
(-184507 5354.94 -240.873 109108 7522.57 73867.2)
(-24304.9 -11978.4 400.05 -3109.65 9966.94 -448.058)
(-23627.2 11912.5 -212.953 -5106.78 10278.9 -947.946)
(-164775 -4901.05 289.588 107187 8479.38 77095.9)
(-202059 -2581.4 -183.971 28956.5 8730.23 57301.9)
(-64039.5 -4925.18 622.427 -35754.3 9989.58 -29312.1)
(-62719.8 4916.03 -292.085 -37296.2 10296.5 -29673.9)
(-180603 2619.24 285.559 29784.9 9673.03 61214.8)
(-205524 -2784.41 11.2736 35957.7 8231.59 51329.8)
(-72041.4 -2931.97 756.379 -47605.2 8672.71 -45563.1)
(-70709.5 2837.64 -412.763 -48951.8 8965.11 -46036.2)
(-183709 2740.91 101.289 36946 9134.53 54809.5)
(-209860 -1623.22 157.904 45526.6 6889.73 46932.7)
(-71159.7 -2050.52 842.542 -53614 7011.24 -55698.9)
(-69806.2 1910.41 -529.784 -54864.5 7284.53 -56279.3)
(-187582 1582.62 -53.7234 46649 7736.35 50066.5)
(-221389 -191.941 228.611 50631.5 5522.8 42306)
(-72942.4 -1192.83 870.75 -57173.5 5577.5 -64069.2)
(-71533.5 1032.01 -595.628 -58403.2 5824.63 -64746.6)
(-198499 151.107 -137.321 51874.4 6287.67 45191.6)
(-246939 2542.09 244.86 43682.7 4041.75 35289.3)
(-85717.8 319.298 851.812 -64920.9 4104.62 -74552.9)
(-84275.8 -536.782 -618.961 -66127.8 4311.54 -75316)
(-223347 -2637.34 -168.38 45094.9 4686.52 38023.4)
(-295482 8214.75 215.766 -33490.1 2000.19 23022.6)
(-118983 2928.81 791.152 -128452 2054.62 -90655.1)
(-117514 -3338.76 -634.864 -128989 2195.96 -91358)
(-271216 -8467.31 -167.131 -30466.8 2457.02 25965.3)
(-269320 12013.1 159.771 -286533 999.766 120981)
(-36052.3 5335.02 740.539 -328905 923.295 22874)
(-34289.5 -5460.29 -758.393 -324157 969.707 22662)
(-244698 -12214.8 -183.491 -269611 1159.1 124805)
(-177745 5141.29 -108.051 105081 5870.02 71351.6)
(-24413 -11756.5 255.364 -5392.65 7069.35 -1619.38)
(-23743.2 11557 -121.294 -7229.43 7278.59 -2040.18)
(-158101 -4778.74 144.963 103786 6505.06 74874.7)
(-194627 -2473.27 -51.0543 26928.4 6638.73 56019.5)
(-62865 -4819.82 421.817 -37466.6 7253.99 -28409.4)
(-61582.1 4705.34 -177.75 -38889.1 7463.51 -28676)
(-173328 2466.09 128.968 28117.9 7277.1 60242.6)
(-198083 -2653.16 66.2684 34196.9 6526.83 51053)
(-70563.5 -2866.98 510.764 -48558.6 6740.79 -43140.7)
(-69266.6 2691.5 -251.281 -49835.7 6945.33 -43512.5)
(-176431 2580.25 21.4315 35399.2 7154.89 54858.3)
(-202533 -1540.76 153.187 44559.5 5640.03 46751.5)
(-69781.7 -2019.63 558.822 -53372 5703.72 -52963.2)
(-68459.9 1821.05 -320.779 -54587.9 5899.29 -53441.8)
(-180413 1479.04 -71.3362 45800 6243.88 50211.2)
(-214118 -158.838 195.242 50498.2 4366.85 41964.9)
(-71708.2 -1192.74 569.805 -55955 4416.26 -61439)
(-70328.8 993.669 -362.507 -57170.1 4595.67 -62016.3)
(-191368 104.388 -124.132 51803 4921.92 45168.4)
(-239566 2531.03 198.691 43922.3 2861.55 35236.4)
(-84518.8 293.834 550.406 -63389.6 2938.84 -71683.4)
(-83102.6 -533.733 -379.903 -64592.7 3089.72 -72347.2)
(-216079 -2633.09 -140.895 45369.5 3333.27 38283.3)
(-287672 8143.63 168.45 -32148.9 1200.12 23618.3)
(-117535 2878.46 504.412 -126081 1286.02 -87242.6)
(-116083 -3302.48 -395.903 -126619 1388.86 -87843.8)
(-263447 -8399.21 -133.838 -29099.9 1534.95 26876.3)
(-261936 11893.2 119.742 -278596 551.873 120210)
(-35392.5 5266.26 459.294 -320378 538.501 24794.8)
(-33638.6 -5404.43 -481.1 -315628 572.176 24689.2)
(-237257 -12100.9 -140.089 -261651 668.218 124350)
(-173804 5051.01 -59.7811 103109 3683.33 70139.1)
(-24527.4 -11609.3 128.347 -6564.15 4239.34 -2223.32)
(-23860.6 11336.4 -48.1733 -8297.3 4359.7 -2595.44)
(-154197 -4740.59 82.7138 102214 4045.42 73849.8)
(-190403 -2408.85 -33.1257 26078.4 4073.46 55202)
(-62452.6 -4755.69 215.275 -38258.9 4356.28 -28156.5)
(-61190.8 4582.69 -66.392 -39602.8 4477.79 -28364.5)
(-169182 2376.56 82.0265 27514.7 4441.39 59629.8)
(-193895 -2582.83 25.4108 33320.3 4062.79 50837.6)
(-70072.6 -2833.49 261.328 -49107.7 4161.9 -42007.1)
(-68796.1 2611.23 -100.345 -50336.7 4282.01 -42315.8)
(-172323 2493.09 30.3741 34681.5 4430.4 54862.8)
(-198411 -1497.45 68.4404 43816.4 3571.05 46945.4)
(-69364.7 -2006.95 283.609 -53583.5 3606 -51320.1)
(-68061.4 1772.9 -134.524 -54774 3722.34 -51734.4)
(-176366 1423.03 -15.8507 45153.1 3929.91 50629)
(-210014 -143.157 88.4091 50006.8 2741.36 42366.6)
(-71365.9 -1196.6 285.789 -55847.4 2778.67 -59579.9)
(-70003.7 972.553 -156.211 -57051.9 2886.4 -60093.6)
(-187331 79.8594 -42.6934 51365.9 3075.1 45790.9)
(-235380 2521.63 87.641 43651.5 1726.97 35801.3)
(-84189.6 277.986 272.383 -63097.3 1787.64 -69708.3)
(-82788.4 -534.356 -167.219 -64298.7 1878.68 -70309.3)
(-211940 -2628.95 -50.8707 45129.2 2012.63 39064.7)
(-283193 8105.51 68.9427 -31591.2 691.652 24257.8)
(-117065 2854.9 245.795 -125096 762.725 -85262.3)
(-115625 -3290.3 -180.413 -125637 824.905 -85800.4)
(-258979 -8364.29 -47.2436 -28522.4 895.209 27729.9)
(-257583 11834.1 37.7538 -273889 298.223 119854)
(-35265.4 5234.96 214.855 -315457 309.309 25777.3)
(-33516.6 -5382.75 -229.722 -310706 329.704 25737.4)
(-232858 -12046.9 -50.1775 -256923 369.018 124207)
(-171965 5010.54 -20.363 102299 1251.78 69664.2)
(-24573.2 -11544.2 38.0531 -7061.72 1415.71 -2491.75)
(-23907.3 11239 -11.4016 -8744.14 1454.98 -2840.38)
(-152372 -4723.77 28.1038 101599 1369.36 73466.6)
(-188446 -2382.01 -13.86 25786.2 1368.09 54864.6)
(-62288.3 -4728.84 63.7513 -38574.4 1451.15 -28116.5)
(-61036 4529.83 -13.7804 -39879.4 1490.93 -28296.3)
(-167255 2338.53 30.469 27346.9 1488.15 59394.1)
(-191959 -2553.37 3.44164 32985.1 1368.73 50773.7)
(-69890 -2820.53 77.5215 -49348.1 1398.27 -41582.9)
(-68622.6 2576.86 -23.0142 -50552.7 1437.81 -41860.9)
(-170419 2455.98 15.6465 34429.7 1489.54 54909.6)
(-196503 -1479.75 16.1829 43458.8 1211.25 47153.8)
(-69218 -2003.32 83.8168 -53760.3 1223.04 -50589.3)
(-67922.9 1752.31 -33.0471 -54937.5 1261.57 -50972.1)
(-174489 1399.27 1.91854 44848.4 1330.05 50951.2)
(-208110 -137.427 21.8751 49693.9 929.132 42753.2)
(-71249.5 -1199.86 83.8137 -55952.9 943.173 -58676.4)
(-69895 963.143 -39.6621 -57151.6 979.019 -59158.8)
(-185452 69.6389 -6.11288 51084.4 1040.27 46290.5)
(-233430 2517.04 21.2383 43437.2 579.787 36261.3)
(-84077 270.806 79.1549 -63119.6 602.393 -68758.2)
(-82682.5 -536.112 -43.4844 -64319.9 632.775 -69328.5)
(-210008 -2627.29 -8.59716 44932.9 675.292 39635.3)
(-281099 8090.42 15.2067 -31377.7 231.834 24678)
(-116890 2846.73 70.6461 -124744 258.607 -84382.2)
(-115454 -3288.53 -48.6301 -125286 279.391 -84889.8)
(-256885 -8351.16 -7.76115 -28297.6 300.068 28258.5)
(-255513 11811.8 4.62712 -271673 96.5767 119790)
(-35206.7 5224.06 59.6941 -313181 103.419 26196.5)
(-33460 -5376.97 -64.7439 -308429 110.242 26188.3)
(-230761 -12027.4 -8.72629 -254696 120.324 124250)
)
;

boundaryField
{
    interface
    {
        type            calculated;
        value           nonuniform List<symmTensor> 
192
(
(-48.7959 0.342988 3.12427 880309 20097.8 280977)
(-50.6904 0.201949 4.91529 613719 -163.343 239033)
(-51.9845 -0.134127 5.4056 625622 -2249.56 245411)
(-52.775 -0.546056 5.47047 655569 -910.61 255057)
(-52.8847 -0.89547 5.34987 684527 1034.77 266054)
(-53.6607 -1.54107 5.15987 708961 4168.34 280664)
(-51.9526 -2.01505 4.71224 665390 9720.2 295639)
(-55.3829 -4.3913 4.35386 312388 13566.1 312501)
(-47.4587 0.23666 1.5566 685742 -9547.2 539413)
(-48.3805 0.108338 2.6256 545676 -1839.8 477219)
(-49.1421 -0.200034 2.85878 546234 -1253.01 482476)
(-49.6837 -0.628373 2.83705 562046 -746.518 499161)
(-49.5923 -1.00491 2.70858 585420 1717.72 521763)
(-50.3091 -1.72407 2.54059 614643 5549.51 553685)
(-48.3532 -2.25248 2.25137 594857 8820.42 594087)
(-51.9831 -4.76087 2.01312 295863 9820.12 665469)
(-50.1877 0.200629 1.23553 581125 3770.11 525967)
(-51.0095 0.0646886 2.06401 486497 6056.09 494211)
(-51.7687 -0.246272 2.24115 495613 4650.15 496023)
(-52.3165 -0.707087 2.22014 512251 3563.38 509537)
(-52.1239 -1.12757 2.11655 536064 4469.8 531460)
(-52.7412 -1.93231 1.98027 568337 6256.5 564881)
(-50.3133 -2.54297 1.7647 555708 6272.19 613391)
(-53.7247 -5.23028 1.57625 281373 4577.44 709580)
(-50.3589 0.148673 0.767207 525682 7837.12 486598)
(-50.9863 -0.00600074 1.34897 442209 9313.89 466635)
(-51.5826 -0.319475 1.46631 456293 8060.42 468139)
(-52.0376 -0.793359 1.43969 476837 6438.29 478232)
(-51.7426 -1.23537 1.35634 503097 5736.59 497779)
(-52.2968 -2.07929 1.25253 536428 5304.85 531253)
(-49.7095 -2.72727 1.11141 525174 3586.28 583938)
(-53.0882 -5.46608 0.99165 267341 2032.38 687362)
(-51.1672 0.124696 0.564908 495206 7522.57 459965)
(-51.7344 -0.0483389 0.992806 415271 8730.23 443617)
(-52.2592 -0.372452 1.0798 430769 8231.59 446141)
(-52.6704 -0.861357 1.06012 453635 6889.73 455041)
(-52.3019 -1.32496 0.998562 481722 5522.8 473396)
(-52.7834 -2.20233 0.920936 515449 4041.75 507055)
(-50.0163 -2.88488 0.820395 504761 2000.19 561273)
(-53.2687 -5.67282 0.732382 257593 999.766 665107)
(-51.363 0.105566 0.349029 477758 5870.02 444029)
(-51.8772 -0.08226 0.63119 399669 6638.73 428760)
(-52.3384 -0.414851 0.688807 415387 6526.83 432243)
(-52.7082 -0.912805 0.67427 439061 5640.03 441253)
(-52.2896 -1.38889 0.632207 467954 4366.85 459421)
(-52.7303 -2.28397 0.579995 501865 2861.55 493179)
(-49.8795 -2.98497 0.516704 491722 1200.12 547489)
(-53.0889 -5.7988 0.462357 251399 551.873 650205)
(-51.6269 0.0965776 0.205811 468037 3683.33 435067)
(-52.1217 -0.101429 0.371343 391026 4073.46 420149)
(-52.5496 -0.441466 0.40547 406712 4062.79 424230)
(-52.8964 -0.946505 0.397075 430531 3571.05 433661)
(-52.4448 -1.43193 0.372648 459649 2741.36 452009)
(-52.8525 -2.33929 0.34169 493637 1726.97 485787)
(-49.9348 -3.05344 0.305428 483920 691.652 539769)
(-53.0975 -5.88608 0.272778 247712 298.223 641455)
(-51.6867 0.090705 0.0614814 463653 1251.78 431018)
(-52.1676 -0.112311 0.114616 387143 1368.09 416221)
(-52.5768 -0.455428 0.125669 402787 1368.73 420576)
(-52.9111 -0.963055 0.122721 426589 1211.25 430284)
(-52.446 -1.45241 0.114769 455735 929.132 448794)
(-52.839 -2.36451 0.104674 489745 579.787 482569)
(-49.9014 -3.08473 0.0936504 480249 231.834 536304)
(-53.0408 -5.92539 0.0832699 245979 96.5767 637443)
(330535 18863 -4.53068 912156 -0.9518 -19.3432)
(283296 -1543.23 -7.44909 643603 -1.00988 -14.6917)
(289526 -3374.53 -8.33558 655705 -0.743305 -11.2841)
(302137 -1790.75 -8.54977 686676 -0.512257 -10.3122)
(315613 -134.988 -8.55872 716485 -0.425504 -10.5327)
(330449 2475.3 -8.57079 741219 -0.474395 -11.6673)
(344716 7968.97 -8.5967 698177 -0.585548 -13.9591)
(364149 11617.2 -9.25072 346944 -0.80221 -15.9855)
(606711 -9118.76 -2.89616 780640 -0.540083 -24.5884)
(524010 -4360.26 -5.31954 612695 -0.682961 -23.534)
(527460 -2969.4 -5.97878 603217 -0.484997 -22.5049)
(549596 -1921.63 -6.09808 614416 -0.248924 -22.2874)
(576440 -882.196 -6.103 635609 -0.10891 -22.4122)
(607513 626.196 -6.16736 663118 -0.0433389 -22.8658)
(641743 3172.34 -6.36409 642278 -0.0559039 -23.6258)
(709555 5285.84 -7.26271 336613 -0.140607 -24.1747)
(600189 11330.9 -3.02622 770965 -0.356623 -21.5305)
(517647 6337.16 -5.56908 603379 -0.474551 -20.7271)
(520735 4521.64 -6.29901 593764 -0.314783 -19.7983)
(542666 3072.39 -6.43988 604907 -0.0776391 -19.5691)
(569407 1694.17 -6.43001 626035 0.0949087 -19.7126)
(600354 -155.487 -6.44587 653455 0.23664 -20.1405)
(634363 -3179.17 -6.55889 633041 0.322404 -20.9742)
(702441 -5321.83 -7.38267 332504 0.331505 -21.9068)
(326352 -17359.5 -3.52356 883274 -0.272291 -22.1082)
(280077 2425.49 -6.5337 618698 -0.352216 -21.6174)
(285780 4012.93 -7.44674 630381 -0.197125 -20.8692)
(298158 2275.53 -7.63831 661090 0.0481184 -20.7355)
(311555 480.907 -7.61843 690712 0.231121 -20.9035)
(326183 -2304.5 -7.62382 715188 0.412076 -21.2084)
(339798 -8062.62 -7.6403 672980 0.554268 -21.7796)
(359539 -11766.1 -8.46827 335645 0.703949 -22.4465)
(-10.2233 0.927807 1.28648 840938 21191.7 260232)
(-6.43375 0.87688 2.32291 577339 653.863 217238)
(-3.76491 0.34277 2.58604 588972 -1683.42 223190)
(-2.70012 -0.237747 2.64699 618563 -490.747 232413)
(-2.68017 -0.542749 2.64948 647183 1375.89 243064)
(-1.63252 -0.996677 2.79513 671440 4471.1 257571)
(-2.99021 -0.977973 2.84783 629480 9996.63 273107)
(6.02568 -3.26761 3.33241 290708 13782.9 290780)
(-16.4382 0.354281 -0.0745704 645231 -7133.95 506382)
(-15.6415 0.312481 0.223856 508209 -165.977 443581)
(-14.9327 0.0107587 0.221233 508838 1.62304 447759)
(-14.4221 -0.359391 0.206796 524234 251.452 463456)
(-14.4026 -0.501399 0.238838 546979 2547.88 485163)
(-12.8056 -0.830706 0.432468 575613 6250.94 516307)
(-13.1981 -0.564 0.648196 557094 9356.02 556571)
(-2.9297 -2.79454 1.0793 273176 10074.3 629568)
(-16.584 0.187674 0.14577 542303 5629.18 493295)
(-15.9825 0.106327 0.531352 449752 7655.08 460551)
(-15.3905 -0.10243 0.628749 458737 6001.65 461148)
(-14.7678 -0.386651 0.660069 474883 4717.68 473507)
(-14.6194 -0.443268 0.698065 497946 5461.03 494301)
(-12.6034 -0.715617 0.832331 529408 7087.43 526618)
(-12.68 -0.34065 0.95144 517692 6879.4 574604)
(-1.38414 -2.73927 1.15334 257866 4814.03 672113)
(-18.2954 0.0842315 0.0420118 488662 9189.1 455176)
(-17.979 -0.0256677 0.357806 406693 10593.7 434231)
(-17.6521 -0.176502 0.45109 420368 9230.84 434507)
(-17.035 -0.390275 0.482027 440279 7494.47 443376)
(-16.7908 -0.368621 0.512555 465682 6669.27 461662)
(-14.412 -0.582887 0.608224 498050 6086.63 493846)
(-14.0924 -0.127229 0.686348 487433 4144.18 545747)
(-2.09648 -2.59349 0.804035 243611 2231.84 650132)
(-18.5349 0.0671113 0.124133 459542 8479.38 429451)
(-18.2218 -0.0556543 0.406463 380755 9673.03 412185)
(-17.8988 -0.190158 0.502676 395633 9134.53 413496)
(-17.2089 -0.381395 0.535306 417726 7736.35 421143)
(-16.8869 -0.326905 0.555658 444848 6287.67 438165)
(-14.3081 -0.521588 0.60904 477496 4686.52 470424)
(-13.8408 -0.037198 0.637745 467261 2457.02 523693)
(-1.45379 -2.58731 0.678466 233800 1159.1 628217)
(-19.0298 0.0599765 0.079244 442997 6505.06 414086)
(-18.7329 -0.0677935 0.277821 365831 7277.1 397955)
(-18.421 -0.193655 0.349316 380785 7154.89 400244)
(-17.687 -0.371603 0.373515 403576 6243.88 407987)
(-17.3045 -0.294709 0.387329 431416 4921.92 424782)
(-14.571 -0.475366 0.420373 464159 3333.27 457073)
(-13.9689 0.0281468 0.435498 454349 1534.95 510325)
(-1.29535 -2.57152 0.455908 227548 668.218 613549)
(-19.1399 0.0617443 0.0645651 433822 4045.42 405458)
(-18.8316 -0.0677725 0.187089 357602 4441.39 389717)
(-18.5057 -0.191164 0.231823 372439 4430.4 392620)
(-17.736 -0.365086 0.246739 395304 3929.91 400780)
(-17.3172 -0.278653 0.254358 423309 3075.1 417734)
(-14.5005 -0.454553 0.270352 456070 2012.63 450005)
(-13.8389 0.0563379 0.275375 446611 895.209 502864)
(-0.999738 -2.57912 0.280206 223820 369.018 604950)
(-19.259 0.061349 0.0159981 429694 1369.36 401562)
(-18.9509 -0.0685118 0.0552335 353915 1488.15 385963)
(-18.6205 -0.190047 0.0699615 368670 1489.54 389150)
(-17.8349 -0.361365 0.0748626 391483 1330.05 397586)
(-17.3948 -0.269979 0.0776758 419486 1040.27 414692)
(-14.5359 -0.442658 0.0830671 452239 675.292 446942)
(-13.833 0.0717778 0.085601 442965 300.068 499522)
(-0.917264 -2.5796 0.087301 222063 120.324 601009)
(364452 9.30447 -11548.5 -15.6235 -0.719556 347360)
(344968 8.67049 -7838.05 -13.4018 -0.500539 698417)
(330865 8.67709 -2419.33 -10.7131 -0.352765 741881)
(317076 8.7146 -285.651 -8.98159 -0.228876 719486)
(306592 8.8038 159.771 -7.65122 -0.169911 696893)
(299461 8.85889 119.742 -6.71397 -0.105087 681608)
(295153 8.90485 37.7538 -6.12085 -0.0648516 672590)
(293146 8.92497 4.62712 -5.83457 -0.0193454 668450)
(709858 7.29668 -5200.55 -23.8733 -0.0428117 337140)
(642150 6.40112 -2942.88 -23.2136 0.0448181 642991)
(608575 6.20878 -413.35 -22.2009 0.097832 664528)
(579927 6.14522 699.924 -21.4387 0.103097 638150)
(558827 6.1481 740.539 -20.7989 0.0846884 617753)
(544578 6.14725 459.294 -20.3285 0.0652068 604765)
(535966 6.15627 214.855 -20.0215 0.0384088 597009)
(531952 6.1591 59.6941 -19.8599 0.0141745 593355)
(702703 7.41472 5366.97 -21.6159 0.438453 332997)
(634705 6.58626 3316.9 -20.5667 0.433121 633797)
(601288 6.47339 524.681 -19.481 0.387972 654978)
(572694 6.46196 -686.76 -18.7407 0.311443 628781)
(551587 6.49524 -758.393 -18.0869 0.240964 608539)
(537323 6.51254 -481.1 -17.6483 0.168238 595651)
(528702 6.53152 -229.722 -17.3454 0.0995776 587955)
(524683 6.53827 -64.7439 -17.2057 0.0329145 584331)
(359676 8.48073 11770.8 -22.1828 0.812451 335854)
(339922 7.6461 8079.77 -21.4201 0.666709 673206)
(326489 7.62763 2484.42 -20.6564 0.55956 716048)
(312922 7.63301 277.645 -20.136 0.43427 694171)
(302484 7.69705 -183.491 -19.6145 0.335734 671987)
(295383 7.72894 -140.089 -19.2946 0.230806 656990)
(291096 7.76071 -50.1775 -19.0548 0.138368 648160)
(289102 7.77302 -8.72629 -18.9457 0.0451577 644113)
)
;
    }
    symmetry
    {
        type            symmetry;
    }
    bottom
    {
        type            calculated;
        value           nonuniform List<symmTensor> 
32
(
(-745951 62187.9 -7399.68 50213 59316.4 -763661)
(-504613 43622.1 -5376.11 25023.9 -16889.6 -223387)
(-429320 31854.7 -2222.2 -853.159 -2326.61 -133914)
(-394606 26714.9 -730.823 -8432.59 4817.12 -120607)
(-375658 24684.5 -240.873 -11199.5 6092.2 -117283)
(-364708 23813.9 -108.051 -12574.5 5186.67 -115611)
(-358481 23386 -59.7811 -13192.9 3374.61 -114538)
(-355617 23195.6 -20.363 -13407 1163.13 -113987)
(-233329 -9380.56 -2953.76 56071.4 54077 -552713)
(-80892.6 -11862.2 -1308.83 17956.7 -6139.07 -86443.9)
(-52851 -14608.4 -85.3156 -5824.35 7510.23 -23206)
(-46290 -15400.2 406.228 -11440.1 10604.1 -19814.4)
(-44383.8 -15266.3 400.05 -13588.7 9027.73 -20526.9)
(-43963.5 -14987.6 255.364 -15206.5 6609.96 -21170)
(-43887.5 -14799.4 128.347 -16240.8 4028.06 -21583.5)
(-43863.1 -14715.7 38.0531 -16711.1 1354.77 -21781.7)
(-230239 10827.7 2922.57 55577.2 54299.3 -546718)
(-80302.7 12173.5 1603.4 15022.7 -5222.14 -87037.7)
(-52310.5 14235.8 346.472 -8534.8 8199.67 -24122.9)
(-45747.7 14676.3 -173.17 -13853.3 11095.1 -20583)
(-43861.5 14364.8 -212.953 -15777.6 9374.47 -21182.2)
(-43454.9 13994.9 -121.294 -17234 6841.71 -21751.9)
(-43385.5 13761.9 -48.1733 -18163.9 4161.16 -22120.3)
(-43363.6 13660 -11.4016 -18583.1 1398.17 -22296.7)
(-716607 -60501.8 7476.54 51417.7 60413.9 -740391)
(-481134 -42303.9 5552.93 20624.9 -14069.8 -217734)
(-406063 -30886.4 2312.49 -3632.53 -222.353 -128570)
(-371583 -26023.6 791.235 -9764.29 6322.74 -114689)
(-352843 -24171.2 289.588 -11486 7150.04 -110972)
(-342006 -23405.6 144.963 -12129.1 5886.39 -109031)
(-335832 -23035.3 82.7138 -12285.9 3772.91 -107786)
(-332989 -22870.4 28.1038 -12277.5 1292.37 -107151)
)
;
    }
}


// ************************************************************************* //
