/*--------------------------------*- C++ -*----------------------------------*\
| =========                 |                                                 |
| \\      /  F ield         | OpenFOAM: The Open Source CFD Toolbox           |
|  \\    /   O peration     | Version:  v1912                                 |
|   \\  /    A nd           | Website:  www.openfoam.com                      |
|    \\/     M anipulation  |                                                 |
\*---------------------------------------------------------------------------*/
FoamFile
{
    version     2.0;
    format      ascii;
    class       volVectorField;
    location    "0.46/solid";
    object      U;
}
// * * * * * * * * * * * * * * * * * * * * * * * * * * * * * * * * * * * * * //

dimensions      [0 1 -1 0 0 0 0];


internalField   nonuniform List<vector> 
256
(
(3.50105e-08 3.39631e-08 3.93797e-08)
(7.2916e-09 1.89994e-08 3.45975e-08)
(-8.32408e-09 1.85517e-08 3.41068e-08)
(-3.44186e-08 3.21991e-08 3.78068e-08)
(6.01946e-08 2.35582e-08 8.53877e-08)
(1.47104e-08 1.24842e-08 7.87691e-08)
(-1.67098e-08 1.22542e-08 7.78337e-08)
(-6.00121e-08 2.29681e-08 8.24354e-08)
(6.36613e-08 -1.41655e-09 1.16341e-07)
(1.56542e-08 -5.91744e-09 1.09224e-07)
(-1.8764e-08 -5.76935e-09 1.08055e-07)
(-6.45806e-08 -7.47825e-10 1.12673e-07)
(6.14955e-08 -2.76002e-08 1.43002e-07)
(1.40238e-08 -3.01696e-08 1.34851e-07)
(-1.8706e-08 -2.96476e-08 1.3352e-07)
(-6.39715e-08 -2.58457e-08 1.38836e-07)
(6.11805e-08 -5.54939e-08 1.70164e-07)
(1.29179e-08 -5.9907e-08 1.60491e-07)
(-1.96519e-08 -5.90419e-08 1.59023e-07)
(-6.56745e-08 -5.27593e-08 1.65582e-07)
(6.83386e-08 -8.8891e-08 2.00971e-07)
(1.47628e-08 -9.61091e-08 1.89687e-07)
(-2.40399e-08 -9.49195e-08 1.88088e-07)
(-7.53365e-08 -8.52248e-08 1.95999e-07)
(8.8917e-08 -1.39132e-07 2.37393e-07)
(2.11816e-08 -1.43742e-07 2.25661e-07)
(-3.35833e-08 -1.42209e-07 2.23914e-07)
(-9.88931e-08 -1.34465e-07 2.3201e-07)
(1.18058e-07 -2.21978e-07 2.71487e-07)
(2.82591e-08 -2.12219e-07 2.62018e-07)
(-4.45641e-08 -2.10091e-07 2.60107e-07)
(-1.31463e-07 -2.15484e-07 2.65675e-07)
(1.90183e-08 1.05113e-08 1.38097e-08)
(3.65488e-09 -3.85907e-10 1.65042e-08)
(-4.06059e-09 -5.46532e-10 1.63023e-08)
(-1.80902e-08 9.44359e-09 1.31992e-08)
(3.37643e-08 -3.51609e-09 4.50427e-08)
(7.92027e-09 -1.18239e-08 5.02785e-08)
(-8.52818e-09 -1.18432e-08 4.97344e-08)
(-3.26477e-08 -3.66626e-09 4.34454e-08)
(3.51861e-08 -2.51008e-08 7.3598e-08)
(8.23447e-09 -2.85337e-08 7.95824e-08)
(-9.44704e-09 -2.82759e-08 7.8819e-08)
(-3.47151e-08 -2.42458e-08 7.13527e-08)
(3.26097e-08 -4.90323e-08 9.93674e-08)
(6.68014e-09 -5.11695e-08 1.05235e-07)
(-9.08673e-09 -5.05935e-08 1.04321e-07)
(-3.33393e-08 -4.72184e-08 9.66594e-08)
(3.17051e-08 -7.53232e-08 1.24734e-07)
(5.61475e-09 -7.949e-08 1.30159e-07)
(-9.76719e-09 -7.85988e-08 1.29118e-07)
(-3.41523e-08 -7.25905e-08 1.21631e-07)
(3.80189e-08 -1.05108e-07 1.5112e-07)
(7.38173e-09 -1.12288e-07 1.56089e-07)
(-1.3813e-08 -1.11093e-07 1.54925e-07)
(-4.26975e-08 -1.01489e-07 1.4764e-07)
(5.82418e-08 -1.44434e-07 1.76077e-07)
(1.37589e-08 -1.48892e-07 1.80893e-07)
(-2.30722e-08 -1.47393e-07 1.79614e-07)
(-6.56318e-08 -1.39904e-07 1.72242e-07)
(8.86126e-08 -2.0566e-07 1.88632e-07)
(2.08748e-08 -1.93636e-07 1.9359e-07)
(-3.38633e-08 -1.91642e-07 1.92252e-07)
(-9.91544e-08 -1.99519e-07 1.84602e-07)
(8.19943e-09 2.17946e-09 6.95072e-09)
(5.08521e-10 -5.34598e-09 1.08198e-08)
(-6.63812e-10 -5.46692e-09 1.06784e-08)
(-7.09685e-09 1.14068e-09 6.54741e-09)
(1.4817e-08 -1.68505e-08 2.92857e-08)
(1.7251e-09 -2.26257e-08 3.64055e-08)
(-1.61995e-09 -2.26127e-08 3.6019e-08)
(-1.31154e-08 -1.70283e-08 2.8193e-08)
(1.4614e-08 -3.91742e-08 5.39385e-08)
(1.36418e-09 -4.1662e-08 6.19671e-08)
(-1.45061e-09 -4.14046e-08 6.13982e-08)
(-1.31676e-08 -3.84241e-08 5.23126e-08)
(1.20603e-08 -6.16671e-08 7.78191e-08)
(-9.92061e-11 -6.36366e-08 8.59003e-08)
(-8.27158e-10 -6.30901e-08 8.51935e-08)
(-1.14738e-08 -6.00187e-08 7.57719e-08)
(1.11968e-08 -8.45771e-08 1.00587e-07)
(-1.06978e-09 -8.88031e-08 1.08493e-07)
(-1.30244e-09 -8.79621e-08 1.07669e-07)
(-1.20313e-08 -8.20513e-08 9.81741e-08)
(1.74228e-08 -1.08071e-07 1.21431e-07)
(6.75669e-10 -1.15346e-07 1.29165e-07)
(-5.0699e-09 -1.1422e-07 1.28233e-07)
(-2.02224e-08 -1.04699e-07 1.18682e-07)
(3.75221e-08 -1.37312e-07 1.36456e-07)
(6.97764e-09 -1.41904e-07 1.44094e-07)
(-1.40305e-08 -1.40499e-07 1.43077e-07)
(-4.2786e-08 -1.33078e-07 1.33428e-07)
(6.75379e-08 -1.87038e-07 1.38376e-07)
(1.40311e-08 -1.75441e-07 1.46042e-07)
(-2.45575e-08 -1.73562e-07 1.45003e-07)
(-7.57206e-08 -1.81215e-07 1.35245e-07)
(3.90459e-09 -6.48573e-10 5.8786e-09)
(-7.27785e-10 -6.23882e-09 8.36326e-09)
(6.81896e-10 -6.37423e-09 8.25726e-09)
(-2.68984e-09 -1.76899e-09 5.5835e-09)
(6.98717e-09 -2.18789e-08 2.32523e-08)
(-8.99458e-10 -2.61884e-08 2.77912e-08)
(1.38582e-09 -2.62148e-08 2.75105e-08)
(-4.90856e-09 -2.22293e-08 2.24708e-08)
(6.16689e-09 -4.51468e-08 4.32721e-08)
(-1.52867e-09 -4.71293e-08 4.83337e-08)
(2.12527e-09 -4.69269e-08 4.79146e-08)
(-4.05172e-09 -4.46129e-08 4.20881e-08)
(4.01523e-09 -6.66535e-08 6.33957e-08)
(-2.7829e-09 -6.86385e-08 6.84064e-08)
(2.83394e-09 -6.81598e-08 6.78734e-08)
(-2.47317e-09 -6.52493e-08 6.18652e-08)
(3.69197e-09 -8.64766e-08 8.20643e-08)
(-3.49954e-09 -9.08588e-08 8.68758e-08)
(2.37155e-09 -9.00961e-08 8.62427e-08)
(-3.30618e-09 -8.42154e-08 8.02231e-08)
(1.02917e-08 -1.05118e-07 9.74055e-08)
(-1.62043e-09 -1.1254e-07 1.02045e-07)
(-1.29586e-09 -1.11501e-07 1.01324e-07)
(-1.16317e-08 -1.02027e-07 9.52862e-08)
(3.02302e-08 -1.28915e-07 1.06238e-07)
(4.59816e-09 -1.33903e-07 1.10819e-07)
(-9.9719e-09 -1.32589e-07 1.10034e-07)
(-3.38185e-08 -1.24966e-07 1.03903e-07)
(5.93483e-08 -1.74285e-07 1.05155e-07)
(1.1499e-08 -1.64194e-07 1.09959e-07)
(-2.01723e-08 -1.62399e-07 1.09163e-07)
(-6.56618e-08 -1.68708e-07 1.0275e-07)
(2.69834e-09 -1.61847e-09 5.17584e-09)
(-9.19462e-10 -6.34009e-09 6.3922e-09)
(9.31208e-10 -6.49191e-09 6.31596e-09)
(-1.41153e-09 -2.80776e-09 4.96646e-09)
(4.91862e-09 -2.31586e-08 1.86669e-08)
(-1.35815e-09 -2.68636e-08 2.08083e-08)
(2.06918e-09 -2.69374e-08 2.06092e-08)
(-2.60011e-09 -2.36751e-08 1.81186e-08)
(4.18708e-09 -4.6427e-08 3.39636e-08)
(-1.93027e-09 -4.82798e-08 3.62575e-08)
(2.96037e-09 -4.81409e-08 3.59589e-08)
(-1.62969e-09 -4.61067e-08 3.31276e-08)
(2.54688e-09 -6.70209e-08 4.94157e-08)
(-2.93516e-09 -6.91349e-08 5.15702e-08)
(3.64331e-09 -6.87279e-08 5.11855e-08)
(-3.44152e-10 -6.58522e-08 4.8319e-08)
(2.80999e-09 -8.47972e-08 6.34056e-08)
(-3.38095e-09 -8.93546e-08 6.53534e-08)
(3.1261e-09 -8.86685e-08 6.48909e-08)
(-1.54926e-09 -8.27813e-08 6.20674e-08)
(9.78003e-09 -1.0082e-07 7.41029e-08)
(-1.34803e-09 -1.08379e-07 7.58986e-08)
(-4.99447e-10 -1.07418e-07 7.53683e-08)
(-1.00467e-08 -9.79751e-08 7.25491e-08)
(2.95007e-08 -1.22416e-07 7.9434e-08)
(4.79394e-09 -1.27759e-07 8.12179e-08)
(-8.92902e-09 -1.2652e-07 8.06399e-08)
(-3.18377e-08 -1.18699e-07 7.77167e-08)
(5.78272e-08 -1.66069e-07 7.80267e-08)
(1.15609e-08 -1.57267e-07 8.0062e-08)
(-1.88515e-08 -1.55537e-07 7.9477e-08)
(-6.27326e-08 -1.60686e-07 7.62584e-08)
(2.48198e-09 -1.90675e-09 4.04857e-09)
(-8.19558e-10 -6.28307e-09 4.57914e-09)
(8.63603e-10 -6.44672e-09 4.52814e-09)
(-1.15033e-09 -3.14342e-09 3.90961e-09)
(4.7629e-09 -2.3015e-08 1.3776e-08)
(-1.14376e-09 -2.65522e-08 1.46314e-08)
(1.99058e-09 -2.66628e-08 1.44987e-08)
(-2.29446e-09 -2.36543e-08 1.34135e-08)
(4.35666e-09 -4.5727e-08 2.44964e-08)
(-1.55054e-09 -4.76324e-08 2.5325e-08)
(2.85431e-09 -4.75452e-08 2.51256e-08)
(-1.51584e-09 -4.55728e-08 2.39421e-08)
(3.15961e-09 -6.54998e-08 3.52136e-08)
(-2.34165e-09 -6.77694e-08 3.58926e-08)
(3.48018e-09 -6.74212e-08 3.56339e-08)
(-5.20268e-10 -6.45177e-08 3.44804e-08)
(3.85782e-09 -8.21318e-08 4.47251e-08)
(-2.58269e-09 -8.68349e-08 4.5241e-08)
(2.91734e-09 -8.62102e-08 4.49276e-08)
(-2.00283e-09 -8.03088e-08 4.38224e-08)
(1.10644e-08 -9.70365e-08 5.17066e-08)
(-4.39538e-10 -1.04687e-07 5.21198e-08)
(-6.69441e-10 -1.03787e-07 5.17585e-08)
(-1.05868e-08 -9.43809e-08 5.06513e-08)
(3.05837e-08 -1.17917e-07 5.49371e-08)
(5.6449e-09 -1.23469e-07 5.53657e-08)
(-8.91006e-09 -1.22286e-07 5.4971e-08)
(-3.20408e-08 -1.14374e-07 5.37665e-08)
(5.83418e-08 -1.60748e-07 5.38592e-08)
(1.23198e-08 -1.52739e-07 5.44784e-08)
(-1.86296e-08 -1.51057e-07 5.40791e-08)
(-6.2248e-08 -1.55509e-07 5.26531e-08)
(2.48046e-09 -1.94636e-09 2.56432e-09)
(-7.16145e-10 -6.18897e-09 2.78015e-09)
(7.77516e-10 -6.36009e-09 2.75093e-09)
(-1.12277e-09 -3.21235e-09 2.48491e-09)
(4.95126e-09 -2.25256e-08 8.44746e-09)
(-9.01603e-10 -2.6048e-08 8.75384e-09)
(1.82598e-09 -2.61824e-08 8.67797e-09)
(-2.395e-09 -2.32426e-08 8.24103e-09)
(4.82311e-09 -4.46383e-08 1.47819e-08)
(-1.16962e-09 -4.66322e-08 1.50285e-08)
(2.6344e-09 -4.65794e-08 1.49143e-08)
(-1.81352e-09 -4.45929e-08 1.44658e-08)
(3.92565e-09 -6.38067e-08 2.10355e-08)
(-1.8166e-09 -6.61985e-08 2.11776e-08)
(3.2145e-09 -6.58901e-08 2.10288e-08)
(-1.02134e-09 -6.29493e-08 2.06155e-08)
(4.88752e-09 -7.98647e-08 2.65092e-08)
(-1.93124e-09 -8.46643e-08 2.65526e-08)
(2.62851e-09 -8.40812e-08 2.63716e-08)
(-2.66531e-09 -7.81714e-08 2.59893e-08)
(1.22186e-08 -9.43704e-08 3.0446e-08)
(2.75975e-10 -1.02068e-07 3.04347e-08)
(-9.23085e-10 -1.01209e-07 3.02252e-08)
(-1.12742e-08 -9.18413e-08 2.98353e-08)
(3.15946e-08 -1.15068e-07 3.22098e-08)
(6.32429e-09 -1.20716e-07 3.2218e-08)
(-9.03866e-09 -1.1957e-07 3.19886e-08)
(-3.24939e-08 -1.11642e-07 3.15304e-08)
(5.89909e-08 -1.57478e-07 3.15645e-08)
(1.29419e-08 -1.49878e-07 3.16847e-08)
(-1.86258e-08 -1.48227e-07 3.14528e-08)
(-6.22591e-08 -1.52336e-07 3.08642e-08)
(2.49489e-09 -1.92802e-09 8.76415e-10)
(-6.65595e-10 -6.12268e-09 9.35131e-10)
(7.34499e-10 -6.29742e-09 9.25621e-10)
(-1.1252e-09 -3.20807e-09 8.50599e-10)
(5.07077e-09 -2.21838e-08 2.84535e-09)
(-7.79523e-10 -2.57184e-08 2.92082e-09)
(1.73914e-09 -2.58643e-08 2.89614e-09)
(-2.47384e-09 -2.29381e-08 2.77834e-09)
(5.08455e-09 -4.39423e-08 4.93905e-09)
(-9.76941e-10 -4.5991e-08 4.98896e-09)
(2.51627e-09 -4.59552e-08 4.95178e-09)
(-1.99608e-09 -4.395e-08 4.83635e-09)
(4.33242e-09 -6.27966e-08 6.99024e-09)
(-1.55399e-09 -6.52525e-08 7.00364e-09)
(3.07367e-09 -6.4964e-08 6.95512e-09)
(-1.30298e-09 -6.20011e-08 6.85353e-09)
(5.41533e-09 -7.86185e-08 8.77314e-09)
(-1.60982e-09 -8.34645e-08 8.75406e-09)
(2.47941e-09 -8.29022e-08 8.69488e-09)
(-3.01795e-09 -7.69899e-08 8.60346e-09)
(1.27983e-08 -9.30077e-08 1.0045e-08)
(6.2616e-10 -1.00724e-07 1.00092e-08)
(-1.05158e-09 -9.98847e-08 9.94055e-09)
(-1.16294e-08 -9.05418e-08 9.84521e-09)
(3.21017e-08 -1.13676e-07 1.06082e-08)
(6.65742e-09 -1.19356e-07 1.05806e-08)
(-9.10541e-09 -1.18229e-07 1.05054e-08)
(-3.27308e-08 -1.10308e-07 1.03857e-08)
(5.93215e-08 -1.55907e-07 1.03948e-08)
(1.32471e-08 -1.48472e-07 1.04037e-08)
(-1.86268e-08 -1.46837e-07 1.03276e-08)
(-6.22793e-08 -1.50812e-07 1.01653e-08)
)
;

boundaryField
{
    interface
    {
        type            calculated;
        value           nonuniform List<vector> 
192
(
(3.66554e-08 5.77644e-08 3.48471e-08)
(6.04631e-08 3.07208e-08 7.76819e-08)
(6.40428e-08 -1.09145e-09 1.08036e-07)
(6.22868e-08 -2.82205e-08 1.34733e-07)
(6.1942e-08 -5.37832e-08 1.61952e-07)
(6.80434e-08 -8.1957e-08 1.92745e-07)
(8.67343e-08 -1.26702e-07 2.29124e-07)
(1.22226e-07 -2.13891e-07 2.6325e-07)
(1.37599e-08 2.37069e-08 7.1072e-09)
(2.75491e-08 5.25738e-10 3.36986e-08)
(2.8631e-08 -2.53896e-08 6.13364e-08)
(2.58516e-08 -4.99027e-08 8.70088e-08)
(2.44012e-08 -7.3971e-08 1.12238e-07)
(2.92831e-08 -9.84738e-08 1.38391e-07)
(4.75831e-08 -1.31786e-07 1.63228e-07)
(8.65021e-08 -1.97541e-07 1.76002e-07)
(2.00999e-09 7.93354e-09 3.17248e-09)
(8.95366e-09 -1.52469e-08 2.25917e-08)
(8.5852e-09 -3.98635e-08 4.66839e-08)
(5.85176e-09 -6.25215e-08 7.06707e-08)
(4.61079e-09 -8.32366e-08 9.35842e-08)
(9.86426e-09 -1.01489e-07 1.145e-07)
(2.88619e-08 -1.24783e-07 1.29453e-07)
(6.74234e-08 -1.78966e-07 1.3106e-07)
(-2.586e-09 2.07434e-09 4.50347e-09)
(1.4096e-09 -2.13134e-08 2.07778e-08)
(5.75126e-10 -4.58899e-08 4.06655e-08)
(-1.6627e-09 -6.72724e-08 6.10174e-08)
(-2.19702e-09 -8.49077e-08 7.99677e-08)
(3.74913e-09 -9.84836e-08 9.54949e-08)
(2.30858e-08 -1.16651e-07 1.04232e-07)
(6.04687e-08 -1.66261e-07 1.02728e-07)
(-4.004e-09 2.85745e-10 4.82029e-09)
(-7.35454e-10 -2.27866e-08 1.8111e-08)
(-1.39258e-09 -4.70201e-08 3.35111e-08)
(-3.02537e-09 -6.73653e-08 4.92019e-08)
(-2.84377e-09 -8.29891e-08 6.34471e-08)
(3.66421e-09 -9.41473e-08 7.42961e-08)
(2.30379e-08 -1.10404e-07 7.95224e-08)
(5.93137e-08 -1.58095e-07 7.77751e-08)
(-4.2861e-09 -9.55548e-11 3.99417e-09)
(-9.40545e-10 -2.25465e-08 1.37843e-08)
(-1.22052e-09 -4.6128e-08 2.46555e-08)
(-2.33718e-09 -6.56247e-08 3.55583e-08)
(-1.62852e-09 -8.01558e-08 4.52445e-08)
(5.22878e-09 -9.03552e-08 5.23163e-08)
(2.45282e-08 -1.06097e-07 5.54607e-08)
(5.99792e-08 -1.5283e-07 5.41501e-08)
(-4.27856e-09 -8.84493e-11 2.56759e-09)
(-7.46449e-10 -2.194e-08 8.52448e-09)
(-7.18341e-10 -4.48949e-08 1.4964e-08)
(-1.48809e-09 -6.37907e-08 2.13287e-08)
(-4.58982e-10 -7.77916e-08 2.68986e-08)
(6.58457e-09 -8.76938e-08 3.08795e-08)
(2.58024e-08 -1.03376e-07 3.25894e-08)
(6.0723e-08 -1.49614e-07 3.18094e-08)
(-4.24467e-09 -3.66309e-11 8.80035e-10)
(-6.10215e-10 -2.15364e-08 2.87524e-09)
(-4.26264e-10 -4.41271e-08 5.00442e-09)
(-1.02792e-09 -6.27141e-08 7.09195e-09)
(1.48854e-10 -7.65022e-08 8.90511e-09)
(7.27141e-09 -8.63363e-08 1.01899e-08)
(2.64417e-08 -1.02045e-07 1.0735e-08)
(6.11038e-08 -1.48073e-07 1.04774e-08)
(3.60806e-08 6.5155e-08 3.58924e-08)
(6.2392e-08 4.27987e-08 7.98889e-08)
(6.60337e-08 1.29872e-08 1.10959e-07)
(6.3592e-08 -1.41442e-08 1.38212e-07)
(6.28678e-08 -4.10017e-08 1.65444e-07)
(6.96301e-08 -7.20838e-08 1.94996e-07)
(9.01184e-08 -1.21503e-07 2.2889e-07)
(1.19809e-07 -2.13333e-07 2.68263e-07)
(5.9727e-09 4.73411e-08 2.61935e-08)
(1.2821e-08 3.1141e-08 6.74225e-08)
(1.35819e-08 8.10334e-09 9.69199e-08)
(1.16527e-08 -1.73528e-08 1.22191e-07)
(1.01318e-08 -4.6198e-08 1.47029e-07)
(1.15414e-08 -7.98164e-08 1.74087e-07)
(1.78114e-08 -1.25659e-07 2.07017e-07)
(2.54138e-08 -2.03197e-07 2.51561e-07)
(-7.52253e-09 4.65369e-08 2.49968e-08)
(-1.57943e-08 3.07414e-08 6.59232e-08)
(-1.79029e-08 8.15252e-09 9.51632e-08)
(-1.77107e-08 -1.69056e-08 1.20234e-07)
(-1.83797e-08 -4.54001e-08 1.44903e-07)
(-2.24626e-08 -7.86966e-08 1.71798e-07)
(-3.19969e-08 -1.24204e-07 2.04546e-07)
(-4.36502e-08 -2.01101e-07 2.48832e-07)
(-3.59083e-08 6.22597e-08 3.20891e-08)
(-6.30412e-08 4.16847e-08 7.50306e-08)
(-6.80211e-08 1.33525e-08 1.05284e-07)
(-6.73068e-08 -1.26182e-08 1.31931e-07)
(-6.87434e-08 -3.84684e-08 1.58666e-07)
(-7.81406e-08 -6.8618e-08 1.87759e-07)
(-1.0174e-07 -1.17046e-07 2.21192e-07)
(-1.34992e-07 -2.06924e-07 2.60023e-07)
(-3.05356e-08 5.58067e-08 3.29793e-08)
(-5.47216e-08 3.05087e-08 7.40789e-08)
(-5.9269e-08 2.423e-10 1.03485e-07)
(-5.89052e-08 -2.5572e-08 1.29509e-07)
(-6.04128e-08 -4.99178e-08 1.56167e-07)
(-6.88237e-08 -7.69198e-08 1.86437e-07)
(-9.01407e-08 -1.20433e-07 2.22271e-07)
(-1.28016e-07 -2.05526e-07 2.55833e-07)
(-8.02597e-09 2.21281e-08 6.36849e-09)
(-2.17443e-08 4.90078e-10 3.17207e-08)
(-2.33895e-08 -2.40727e-08 5.84989e-08)
(-2.16801e-08 -4.73588e-08 8.35344e-08)
(-2.18005e-08 -7.02507e-08 1.0822e-07)
(-2.8738e-08 -9.36187e-08 1.33861e-07)
(-4.94304e-08 -1.25789e-07 1.58215e-07)
(-9.04152e-08 -1.89656e-07 1.70666e-07)
(3.64884e-09 6.19376e-09 2.69699e-09)
(-2.8266e-09 -1.55105e-08 2.12577e-08)
(-2.64431e-09 -3.88343e-08 4.46462e-08)
(-6.47753e-10 -6.03025e-08 6.80549e-08)
(-6.75852e-10 -7.98638e-08 9.04621e-08)
(-7.70131e-09 -9.70095e-08 1.10915e-07)
(-2.88278e-08 -1.19203e-07 1.25474e-07)
(-6.92516e-08 -1.71511e-07 1.26871e-07)
(8.24609e-09 1.30617e-10 4.16194e-09)
(4.97211e-09 -2.18888e-08 1.98416e-08)
(5.90271e-09 -4.52215e-08 3.92033e-08)
(7.68711e-09 -6.54355e-08 5.90825e-08)
(7.22454e-09 -8.19254e-08 7.76023e-08)
(-2.35745e-10 -9.43985e-08 9.27419e-08)
(-2.14634e-08 -1.11458e-07 1.01165e-07)
(-6.05251e-08 -1.59144e-07 9.95028e-08)
(9.67364e-09 -1.80484e-09 4.5814e-09)
(7.28404e-09 -2.36205e-08 1.74648e-08)
(8.23389e-09 -4.66705e-08 3.24933e-08)
(9.63099e-09 -6.58721e-08 4.78305e-08)
(8.67318e-09 -8.03552e-08 6.17414e-08)
(8.62887e-10 -9.04024e-08 7.22877e-08)
(-2.02078e-08 -1.05527e-07 7.72722e-08)
(-5.80087e-08 -1.51244e-07 7.54048e-08)
(9.97026e-09 -2.28221e-09 3.8373e-09)
(7.59756e-09 -2.35629e-08 1.33621e-08)
(8.30086e-09 -4.60161e-08 2.39879e-08)
(9.33576e-09 -6.43957e-08 3.46496e-08)
(8.01337e-09 -7.77917e-08 4.41012e-08)
(1.23887e-11 -8.68708e-08 5.09581e-08)
(-2.08389e-08 -1.01458e-07 5.39304e-08)
(-5.76982e-08 -1.4618e-07 5.25347e-08)
(9.96927e-09 -2.3329e-09 2.47856e-09)
(7.46931e-09 -2.30698e-08 8.28576e-09)
(7.94484e-09 -4.49361e-08 1.45858e-08)
(8.73013e-09 -6.27361e-08 2.08111e-08)
(7.1927e-09 -7.56078e-08 2.6243e-08)
(-8.90015e-10 -8.43835e-08 3.00959e-08)
(-2.15634e-08 -9.88952e-08 3.17029e-08)
(-5.7814e-08 -1.43097e-07 3.0872e-08)
(9.93849e-09 -2.3083e-09 8.51185e-10)
(7.36445e-09 -2.27203e-08 2.79801e-09)
(7.72225e-09 -4.42425e-08 4.88195e-09)
(8.38635e-09 -6.17453e-08 6.92391e-09)
(6.75287e-09 -7.44079e-08 8.6916e-09)
(-1.35716e-09 -8.3113e-08 9.93398e-09)
(-2.19352e-08 -9.76445e-08 1.04449e-08)
(-5.78881e-08 -1.41623e-07 1.01703e-08)
(1.19661e-07 -2.18844e-07 2.7173e-07)
(8.96658e-08 -1.97298e-07 1.79897e-07)
(6.86742e-08 -1.8131e-07 1.30532e-07)
(6.08371e-08 -1.70037e-07 9.9913e-08)
(5.96136e-08 -1.62203e-07 7.46423e-08)
(6.02981e-08 -1.56974e-07 5.17114e-08)
(6.10228e-08 -1.53751e-07 3.03543e-08)
(6.13791e-08 -1.52207e-07 1.00019e-08)
(2.5287e-08 -2.01847e-07 2.61883e-07)
(1.73699e-08 -1.75134e-07 1.84396e-07)
(1.06614e-08 -1.60091e-07 1.38682e-07)
(8.52687e-09 -1.51174e-07 1.05415e-07)
(8.92702e-09 -1.45318e-07 7.71983e-08)
(9.89634e-09 -1.41317e-07 5.26311e-08)
(1.06284e-08 -1.38728e-07 3.06179e-08)
(1.09789e-08 -1.37442e-07 1.00521e-08)
(-4.37481e-08 -1.98885e-07 2.59989e-07)
(-3.23932e-08 -1.7239e-07 1.8312e-07)
(-2.31147e-08 -1.5748e-07 1.37693e-07)
(-1.90445e-08 -1.48659e-07 1.04657e-07)
(-1.79976e-08 -1.42872e-07 7.66414e-08)
(-1.79381e-08 -1.38919e-07 5.22518e-08)
(-1.80123e-08 -1.36361e-07 3.03979e-08)
(-1.80427e-08 -1.35091e-07 9.98006e-09)
(-1.35094e-07 -2.09877e-07 2.65964e-07)
(-1.02117e-07 -1.88765e-07 1.76035e-07)
(-7.86603e-08 -1.73097e-07 1.27542e-07)
(-6.88677e-08 -1.62078e-07 9.76178e-08)
(-6.61671e-08 -1.54434e-07 7.29584e-08)
(-6.58004e-08 -1.49341e-07 5.05655e-08)
(-6.58524e-08 -1.46207e-07 2.96901e-08)
(-6.5881e-08 -1.44707e-07 9.78439e-09)
)
;
    }
    symmetry
    {
        type            symmetry;
    }
    bottom
    {
        type            calculated;
        value           uniform (0 0 0);
    }
}


// ************************************************************************* //
