/*--------------------------------*- C++ -*----------------------------------*\
| =========                 |                                                 |
| \\      /  F ield         | OpenFOAM: The Open Source CFD Toolbox           |
|  \\    /   O peration     | Version:  v1912                                 |
|   \\  /    A nd           | Website:  www.openfoam.com                      |
|    \\/     M anipulation  |                                                 |
\*---------------------------------------------------------------------------*/
FoamFile
{
    version     2.0;
    format      ascii;
    class       volScalarField;
    location    "0.89/fluid";
    object      p;
}
// * * * * * * * * * * * * * * * * * * * * * * * * * * * * * * * * * * * * * //

dimensions      [0 2 -2 0 0 0 0];


internalField   nonuniform List<scalar> 
14592
(
0.0497124
0.0440862
0.0421758
0.0405692
0.0396592
0.0389773
0.0384738
0.0380605
0.0376832
0.0373875
0.0370418
0.036894
0.036457
0.0367006
0.0359372
0.037703
0.0455574
0.0438063
0.0421236
0.0407514
0.0398292
0.0391202
0.0385827
0.0381486
0.0377619
0.0374693
0.0371341
0.0370176
0.0366143
0.0369889
0.036169
0.0388693
0.0435623
0.042951
0.041715
0.0407068
0.0398626
0.0391807
0.0386314
0.038187
0.0377959
0.037512
0.0372009
0.0371412
0.0368023
0.0373726
0.0366275
0.0401651
0.0423838
0.0422434
0.0413848
0.0406292
0.0398801
0.0392307
0.0386688
0.0382029
0.0377924
0.0375015
0.0371995
0.0371842
0.0369091
0.0376563
0.0370299
0.0410862
0.0416834
0.0416677
0.0410439
0.0404541
0.0397926
0.0391815
0.0386175
0.0381318
0.0376921
0.0373712
0.037039
0.0370087
0.0367156
0.0375307
0.0369307
0.0413566
0.0412315
0.0412519
0.0407758
0.0402852
0.0396849
0.0390991
0.0385302
0.038023
0.0375526
0.0372006
0.0368423
0.0368127
0.0365445
0.0375151
0.0370929
0.042092
0.0409356
0.0409608
0.0405612
0.0401213
0.039553
0.0389744
0.0383887
0.0378444
0.0373173
0.036885
0.0364154
0.036229
0.035724
0.0364067
0.0354366
0.0405382
0.0407578
0.0407836
0.0404156
0.0399943
0.0394337
0.0388473
0.0382388
0.0376577
0.0370827
0.0365901
0.0360579
0.0358127
0.0352886
0.0361444
0.0354448
0.0429872
0.0496334
0.0440093
0.0421365
0.0405716
0.0397152
0.0390927
0.0386562
0.0383173
0.0380261
0.0378258
0.0375946
0.0375436
0.0372459
0.0374042
0.0367701
0.0373459
0.0454785
0.0437277
0.0420834
0.0407534
0.0398854
0.0392365
0.0387664
0.0384075
0.0381074
0.0379106
0.037689
0.0376644
0.0373853
0.0376228
0.0369059
0.0378695
0.0434792
0.0428664
0.0416675
0.0407013
0.0399115
0.0392905
0.0388094
0.0384411
0.0381371
0.0379495
0.0377507
0.0377802
0.0375555
0.0379468
0.0372515
0.0386827
0.0422981
0.0421556
0.0413327
0.040618
0.0399223
0.039333
0.0388388
0.0384486
0.0381243
0.03793
0.0377388
0.0378126
0.0376436
0.0381916
0.0375762
0.0393212
0.0415946
0.0415764
0.0409871
0.0404368
0.0398272
0.0392743
0.0387759
0.0383634
0.0380065
0.0377784
0.0375497
0.037603
0.0373973
0.0379967
0.037349
0.0393542
0.0411398
0.0411578
0.0407152
0.0402627
0.0397125
0.0391826
0.0386767
0.0382396
0.037848
0.0375855
0.0373254
0.0373799
0.0371893
0.0379555
0.0374469
0.0399742
0.0408404
0.0408633
0.0404962
0.040093
0.039573
0.0390473
0.0385205
0.038041
0.0375846
0.0372316
0.0368422
0.0367225
0.0362477
0.0367075
0.0355027
0.0381245
0.0406587
0.0406821
0.0403462
0.0399603
0.0394463
0.03891
0.0383568
0.0378358
0.0373253
0.0369058
0.0364452
0.0362683
0.0357659
0.0364587
0.0354812
0.040607
0.0495884
0.043966
0.0421219
0.0405908
0.0397803
0.0392112
0.0388388
0.0385761
0.0383813
0.0383005
0.0382398
0.0383936
0.0384518
0.0389446
0.0390986
0.039794
0.0454336
0.0436831
0.0420684
0.0407727
0.0399513
0.0393565
0.0389511
0.0386693
0.0384671
0.0383917
0.0383432
0.0385257
0.0386067
0.039172
0.0392965
0.0402771
0.0434302
0.0428163
0.0416457
0.0407133
0.0399702
0.0394041
0.0389886
0.0386983
0.0384927
0.0384279
0.0384029
0.0386431
0.0387853
0.0395137
0.0397047
0.0410985
0.0422461
0.0421021
0.0413061
0.0406241
0.0399742
0.0394393
0.03901
0.0386976
0.0384713
0.0384004
0.0383834
0.0386727
0.0388754
0.0397737
0.0400718
0.0417597
0.0415389
0.0415191
0.0409554
0.0404365
0.039871
0.039371
0.0389355
0.0385985
0.0383361
0.0382283
0.0381678
0.0384341
0.0385894
0.0395421
0.0397893
0.0417274
0.0410808
0.0410972
0.0406793
0.0402568
0.039749
0.0392698
0.0388241
0.0384593
0.038158
0.0380116
0.0379123
0.0381777
0.0383337
0.0394611
0.0398109
0.0422742
0.0407777
0.0407989
0.0404557
0.0400814
0.0396016
0.0391236
0.0386531
0.0382404
0.0378657
0.0376173
0.0373677
0.0374343
0.0372452
0.0380195
0.0374891
0.0400118
0.0405921
0.0406139
0.0403011
0.0399431
0.0394673
0.0389759
0.038475
0.0380156
0.0375788
0.037254
0.0369158
0.0369088
0.0366474
0.0376425
0.0371987
0.0422415
0.0495652
0.043944
0.0421213
0.0406161
0.0398413
0.0393134
0.0389892
0.0387804
0.0386484
0.038632
0.0386498
0.0388564
0.0390009
0.0394524
0.0396727
0.0401409
0.0454104
0.0436602
0.0420676
0.0407983
0.0400131
0.0394598
0.0391031
0.0388756
0.0387367
0.0387262
0.038756
0.0389883
0.0391503
0.0396502
0.0398365
0.0404927
0.0434032
0.0427885
0.0416388
0.0407324
0.0400257
0.0395018
0.0391355
0.0389001
0.0387576
0.0387572
0.0388077
0.039093
0.0393055
0.0399438
0.0401664
0.0411456
0.0422162
0.0420711
0.0412948
0.0406378
0.0400235
0.0395303
0.0391497
0.0388917
0.0387277
0.0387205
0.0387765
0.0391082
0.039372
0.0401649
0.0404699
0.0416987
0.0415055
0.0414844
0.0409394
0.0404442
0.039913
0.0394533
0.0390648
0.0387804
0.0385775
0.0385306
0.0385373
0.0388412
0.0390431
0.0398784
0.0400955
0.0415495
0.0410441
0.0410592
0.0406593
0.0402594
0.0397842
0.0393436
0.0389428
0.0386284
0.0383834
0.0382952
0.038258
0.0385592
0.0387505
0.0397599
0.0400471
0.0420153
0.0407374
0.0407574
0.0404314
0.0400786
0.0396297
0.0391882
0.0387596
0.0383935
0.0380696
0.0378735
0.0376751
0.0377695
0.0375906
0.0382401
0.0375808
0.0395989
0.0405482
0.0405687
0.0402727
0.0399352
0.0394888
0.0390318
0.03857
0.0381538
0.0377631
0.0374861
0.037192
0.0372117
0.0369481
0.0378327
0.0372209
0.0417485
0.0495562
0.0439361
0.0421298
0.0406453
0.0398992
0.0394057
0.0391232
0.0389628
0.0388905
0.0389408
0.0390468
0.0393367
0.0396133
0.0401338
0.040529
0.0409405
0.0454015
0.0436517
0.042076
0.0408278
0.0400719
0.0395534
0.0392389
0.0390607
0.0389824
0.0390398
0.0391596
0.0394762
0.0397723
0.0403338
0.0407002
0.0412623
0.0433911
0.0427759
0.0416423
0.0407565
0.0400794
0.0395908
0.0392672
0.0390814
0.0389996
0.0390671
0.039206
0.0395733
0.0399143
0.0406027
0.0409961
0.0418393
0.0422015
0.0420556
0.0412945
0.0406573
0.0400719
0.0396135
0.0392752
0.0390666
0.0389626
0.039023
0.0391657
0.0395785
0.039966
0.0408031
0.0412678
0.0423437
0.0414876
0.0414656
0.0409348
0.0404584
0.0399549
0.0395289
0.0391813
0.0389448
0.0387996
0.0388178
0.0389066
0.039288
0.0396034
0.0404762
0.0408297
0.0421199
0.0410233
0.0410375
0.040651
0.040269
0.0398202
0.0394118
0.0390499
0.0387813
0.0385909
0.0385651
0.0386047
0.0389804
0.0392739
0.0403174
0.0407136
0.0425118
0.0407133
0.0407325
0.0404193
0.0400834
0.0396594
0.0392482
0.0388559
0.0385322
0.038258
0.0381185
0.0379868
0.0381463
0.038046
0.0387159
0.0381067
0.0399363
0.0405209
0.0405407
0.040257
0.0399356
0.0395126
0.039084
0.038656
0.0382788
0.0379329
0.0377069
0.0374702
0.0375475
0.0373422
0.0382397
0.0376256
0.0419442
0.0495544
0.043935
0.0421402
0.0406703
0.0399444
0.0394747
0.0392204
0.0390909
0.039054
0.0391385
0.0392842
0.0395965
0.0399079
0.0404083
0.0408201
0.0411799
0.0453997
0.0436501
0.0420863
0.0408531
0.0401178
0.0396234
0.0393373
0.0391903
0.0391478
0.0392396
0.0393994
0.0397377
0.0400675
0.0406026
0.0409811
0.0414673
0.0433869
0.0427713
0.0416489
0.0407778
0.0401213
0.0396572
0.0393623
0.039208
0.0391617
0.039263
0.0394398
0.0398253
0.0401925
0.0408418
0.0412332
0.0419737
0.0421951
0.0420487
0.0412981
0.0406749
0.0401097
0.0396755
0.0393655
0.039188
0.039119
0.0392125
0.0393912
0.0398198
0.0402275
0.0410174
0.0414665
0.0424287
0.0414786
0.041456
0.040935
0.0404719
0.0399877
0.039585
0.0392648
0.0390584
0.0389464
0.0389962
0.0391175
0.0395117
0.039839
0.0406578
0.0409771
0.0421469
0.0410119
0.0410255
0.0406484
0.0402789
0.0398485
0.0394622
0.0391264
0.0388865
0.0387275
0.0387316
0.0388004
0.0391872
0.0394853
0.0404717
0.0408157
0.0424904
0.0406995
0.0407179
0.0404137
0.0400895
0.0396829
0.0392925
0.0389246
0.0386276
0.0383819
0.0382694
0.0381619
0.0383293
0.0382233
0.0388323
0.0381438
0.0398396
0.0405046
0.0405237
0.0402485
0.0399382
0.0395316
0.0391227
0.0387173
0.0383648
0.0380447
0.0378433
0.0376268
0.0377105
0.0374924
0.0383297
0.0376165
0.0417896
0.0495559
0.0439369
0.0421498
0.0406897
0.0399777
0.0395245
0.0392902
0.0391835
0.0391736
0.0392861
0.0394663
0.0398057
0.040156
0.0406654
0.0411093
0.0414467
0.0454012
0.0436518
0.0420959
0.0408728
0.0401516
0.039674
0.0394082
0.0392843
0.0392694
0.0393899
0.039585
0.0399511
0.0403207
0.0408633
0.0412743
0.041725
0.0433866
0.0427708
0.041656
0.0407948
0.0401525
0.0397054
0.0394311
0.0393001
0.0392813
0.0394111
0.0396221
0.0400335
0.0404366
0.0410865
0.041503
0.0421938
0.0421934
0.0420467
0.0413031
0.0406894
0.0401381
0.0397206
0.039431
0.0392767
0.0392347
0.0393564
0.0395681
0.0400215
0.0404615
0.041248
0.0417144
0.0426214
0.0414751
0.0414522
0.0409377
0.0404835
0.0400126
0.0396261
0.0393255
0.0391415
0.0390555
0.0391322
0.0392843
0.0397013
0.0400557
0.0408669
0.0411923
0.0423035
0.0410068
0.04102
0.040649
0.0402879
0.0398701
0.0394993
0.0391822
0.0389636
0.0388291
0.0388588
0.0389558
0.0393636
0.0396835
0.0406594
0.0409971
0.0426112
0.0406925
0.0407106
0.0404121
0.0400959
0.0397011
0.0393253
0.0389748
0.0386976
0.0384743
0.0383851
0.0383021
0.0384874
0.0383953
0.0389894
0.0382754
0.0399023
0.0404958
0.0405146
0.040245
0.0399422
0.0395467
0.0391513
0.0387621
0.0384279
0.038128
0.0379476
0.0377518
0.0378506
0.0376395
0.0384584
0.037703
0.0417993
0.049557
0.0439388
0.0421547
0.0406997
0.039994
0.0395485
0.0393231
0.0392257
0.0392264
0.0393481
0.0395387
0.0398822
0.0402393
0.0407414
0.0411878
0.0415162
0.0454027
0.0436531
0.0421011
0.0408828
0.0401682
0.0396983
0.0394413
0.0393268
0.0393223
0.0394519
0.0396569
0.0400264
0.0404019
0.0409354
0.0413486
0.0417856
0.043387
0.0427712
0.04166
0.0408034
0.0401677
0.0397284
0.039463
0.0393414
0.0393326
0.0394709
0.0396906
0.0401035
0.0405094
0.0411458
0.0415608
0.0422325
0.0421932
0.0420461
0.041306
0.0406967
0.0401519
0.039742
0.0394611
0.0393161
0.0392839
0.0394138
0.0396333
0.0400872
0.0405278
0.0412981
0.0417589
0.0426442
0.0414739
0.0414507
0.0409395
0.0404894
0.0400247
0.0396455
0.0393534
0.0391783
0.0391017
0.0391861
0.0393451
0.0397618
0.0401146
0.0409075
0.0412222
0.0423101
0.0410047
0.0410176
0.0406497
0.0402925
0.0398806
0.0395167
0.0392077
0.0389977
0.038872
0.038909
0.0390121
0.039419
0.0397351
0.0406912
0.0410118
0.0426011
0.0406895
0.0407074
0.0404118
0.0400992
0.03971
0.0393407
0.0389978
0.0387287
0.0385135
0.0384311
0.0383531
0.0385373
0.0384397
0.0390133
0.0382761
0.0398747
0.040492
0.0405105
0.0402436
0.0399443
0.039554
0.0391649
0.0387827
0.0384559
0.0381635
0.0379893
0.0377975
0.0378947
0.0376759
0.0384727
0.0376862
0.0417466
0.0589777
0.0482206
0.0445541
0.0415461
0.0398147
0.038483
0.0374656
0.0365591
0.0356908
0.0348067
0.0338251
0.0327608
0.0314773
0.0300893
0.028345
0.0265656
0.0547177
0.0474792
0.0441938
0.0414685
0.0397888
0.0384814
0.0374717
0.03657
0.0357078
0.0348336
0.0338624
0.0328115
0.0315424
0.0301728
0.0284429
0.0266739
0.0527035
0.0464274
0.043544
0.0411529
0.0396014
0.0383775
0.0374067
0.0365277
0.0356804
0.0348218
0.0338674
0.0328359
0.0315944
0.030257
0.0285658
0.0268286
0.0514554
0.0456205
0.043073
0.0409137
0.0394781
0.0383214
0.0373768
0.0365077
0.0356627
0.0348051
0.0338542
0.0328295
0.0316028
0.0302842
0.0286197
0.0269079
0.0507093
0.0450046
0.0426629
0.0406579
0.0393216
0.0382277
0.0373129
0.0364565
0.0356144
0.0347548
0.0338032
0.0327793
0.0315613
0.0302546
0.0286145
0.0269279
0.0502278
0.0445724
0.0423659
0.0404582
0.0391929
0.0381428
0.0372486
0.0363987
0.0355545
0.0346886
0.0337322
0.032705
0.031493
0.0301954
0.0285817
0.0269227
0.0499235
0.0442821
0.042148
0.0402944
0.039072
0.0380483
0.0371664
0.0363177
0.0354674
0.0345913
0.0336256
0.0325885
0.0313761
0.0300798
0.0284923
0.0268619
0.0497537
0.0441168
0.0420149
0.040184
0.0389794
0.0379645
0.0370843
0.0362308
0.0353713
0.0344842
0.0335102
0.0324653
0.0312573
0.0299675
0.0284148
0.0268195
0.0547194
0.0474789
0.0441912
0.0414624
0.0397777
0.0384635
0.0374454
0.0365377
0.0356644
0.0347725
0.0337797
0.0327069
0.0314068
0.030014
0.0282441
0.0264813
0.0505363
0.0471031
0.0440203
0.0415183
0.0398435
0.0385225
0.0374857
0.0365653
0.0356852
0.0347909
0.0337987
0.0327299
0.031437
0.030059
0.0283058
0.0265557
0.0485209
0.0461472
0.0434501
0.0412765
0.0397059
0.0384494
0.0374365
0.0365298
0.0356577
0.0347715
0.0337902
0.032735
0.0314644
0.0301107
0.0283893
0.0266706
0.0472882
0.0453626
0.0430132
0.0410733
0.0396125
0.038416
0.0374228
0.0365201
0.0356448
0.0347557
0.0337754
0.0327249
0.0314675
0.0301311
0.028435
0.0267396
0.0465482
0.0447432
0.0426101
0.0408266
0.0394644
0.0383292
0.0373647
0.036473
0.0355987
0.0347072
0.0337261
0.0326765
0.0314282
0.0301035
0.0284316
0.0267607
0.0460702
0.0443051
0.0423135
0.0406292
0.0393383
0.0382471
0.0373037
0.0364184
0.0355421
0.0346453
0.033661
0.0326099
0.0313699
0.0300566
0.0284136
0.0267705
0.0457674
0.0440106
0.0420946
0.0404652
0.0392179
0.0381535
0.0372228
0.0363395
0.0354581
0.0345525
0.0335606
0.0325013
0.0312634
0.0299529
0.0283391
0.0267239
0.0455983
0.0438438
0.0419614
0.0403553
0.0391264
0.0380715
0.037143
0.0362555
0.0353666
0.0344519
0.0334542
0.0323901
0.0311605
0.0298599
0.028286
0.0267061
0.0527304
0.0464535
0.0435773
0.0411936
0.0396512
0.0384363
0.0374764
0.0366146
0.0357718
0.0349058
0.0339264
0.0328687
0.0315418
0.0301318
0.0282133
0.0263659
0.0485475
0.0461751
0.0434891
0.0413281
0.0397734
0.0385347
0.0375442
0.0366639
0.0358103
0.0349388
0.0339585
0.0329043
0.0315849
0.0301906
0.02829
0.0264585
0.0465285
0.0452876
0.0430108
0.0411894
0.0397153
0.0385158
0.0375293
0.0366524
0.0358013
0.0349326
0.0339607
0.0329184
0.0316203
0.0302471
0.0283686
0.0265536
0.0453114
0.0445375
0.0426268
0.0410485
0.039676
0.0385242
0.0375444
0.0366623
0.0358019
0.0349253
0.0339519
0.0329129
0.0316279
0.0302715
0.0284157
0.026622
0.0445821
0.0439321
0.0422504
0.0408353
0.0395585
0.0384616
0.0375027
0.0366249
0.0357602
0.0348769
0.0338996
0.0328587
0.0315811
0.0302341
0.0284017
0.026632
0.0441114
0.043499
0.0419652
0.0406527
0.0394469
0.0383911
0.0374487
0.0365729
0.0357028
0.0348113
0.0338292
0.0327859
0.0315181
0.0301849
0.0283891
0.0266544
0.0438118
0.0432055
0.0417502
0.0404943
0.0393319
0.0383012
0.037368
0.0364902
0.0356119
0.0347078
0.0337145
0.0326587
0.0313909
0.0300579
0.0283011
0.026602
0.0436434
0.0430383
0.0416177
0.0403858
0.0392415
0.038219
0.0372851
0.0364003
0.0355127
0.0345971
0.0335964
0.0325342
0.0312778
0.0299584
0.0282598
0.0266103
0.0515106
0.0456758
0.0431499
0.0410161
0.0396132
0.0384919
0.0375873
0.0367658
0.0359522
0.0351173
0.0341555
0.033122
0.031758
0.0303285
0.0281762
0.0261987
0.0473435
0.0454197
0.0430971
0.0411892
0.0397696
0.0386186
0.0376782
0.0368327
0.0360036
0.0351611
0.0341978
0.0331686
0.0318136
0.0304032
0.0282668
0.0263071
0.0453396
0.0445655
0.042671
0.0411133
0.0397677
0.0386451
0.0376978
0.0368465
0.036013
0.0351696
0.0342133
0.0331954
0.0318607
0.0304671
0.0283339
0.0263612
0.0441397
0.043839
0.042319
0.041011
0.039764
0.0386824
0.0377336
0.0368701
0.0360223
0.0351679
0.0342088
0.0331941
0.0318727
0.0304949
0.0283762
0.0264155
0.0434228
0.0432477
0.0419617
0.0408206
0.0396677
0.0386363
0.0377019
0.0368371
0.0359807
0.0351156
0.0341496
0.03313
0.0318133
0.0304416
0.0283429
0.0264034
0.0429604
0.0428223
0.0416859
0.0406484
0.0395653
0.038572
0.0376498
0.0367832
0.0359182
0.0350422
0.0340698
0.033047
0.0317426
0.0303891
0.0283394
0.0264475
0.0426647
0.042532
0.0414746
0.0404938
0.039453
0.0384822
0.0375654
0.036693
0.0358157
0.034922
0.0339329
0.0328906
0.0315824
0.0302238
0.0282291
0.0263865
0.042497
0.042365
0.0413423
0.0403851
0.0393613
0.0383969
0.0374766
0.0365945
0.0357051
0.0347963
0.0337976
0.0327467
0.0314548
0.0301169
0.0282131
0.0264497
0.0507963
0.0450934
0.0427942
0.0408416
0.0395746
0.0385593
0.0377324
0.0369778
0.0362243
0.0354567
0.0345517
0.0335939
0.0322308
0.0308369
0.0283877
0.0262523
0.0466356
0.0448331
0.0427484
0.0410251
0.039742
0.0386972
0.0378338
0.0370539
0.0362849
0.0355111
0.0346067
0.0336571
0.0323074
0.030941
0.0285053
0.0263824
0.044641
0.0439908
0.0423469
0.0409816
0.0397718
0.0387514
0.0378766
0.0370858
0.0363092
0.0355338
0.0346376
0.0337015
0.0323727
0.0310197
0.0285565
0.0263725
0.0434533
0.043278
0.0420133
0.0409015
0.0397894
0.038806
0.0379249
0.0371175
0.0363233
0.0355358
0.0346371
0.0337063
0.0323928
0.031058
0.0285975
0.0264121
0.0427464
0.0426973
0.0416696
0.0407268
0.0397077
0.0387707
0.0378991
0.0370854
0.0362778
0.0354753
0.0345659
0.0336265
0.0323143
0.0309827
0.0285376
0.0263715
0.0422909
0.0422786
0.0414013
0.0405624
0.0396117
0.0387096
0.0378462
0.0370264
0.0362059
0.0353884
0.0344698
0.0335259
0.032229
0.0309237
0.0285466
0.0264514
0.0419984
0.0419912
0.041193
0.0404103
0.0395001
0.0386175
0.0377553
0.0369244
0.0360849
0.0352411
0.0342959
0.0333192
0.0320078
0.0306844
0.0283816
0.0263572
0.0418306
0.0418239
0.0410601
0.0403003
0.0394057
0.0385266
0.0376575
0.0368126
0.0359555
0.0350901
0.0341294
0.0331378
0.0318456
0.0305507
0.0283857
0.0264981
0.0503366
0.0446843
0.0425453
0.0407217
0.039569
0.0386482
0.0378985
0.0372154
0.0365294
0.0358389
0.0349993
0.0341269
0.0327541
0.031386
0.0284956
0.0261323
0.0461794
0.0444168
0.0424989
0.040907
0.0397393
0.03879
0.0380038
0.0372957
0.0365954
0.0359005
0.0350636
0.0342044
0.0328495
0.0315185
0.028619
0.0262141
0.0441898
0.0435761
0.0421047
0.0408746
0.0397815
0.0388568
0.0380573
0.0373362
0.0366278
0.0359324
0.0351061
0.0342642
0.0329292
0.0316042
0.0286106
0.0260326
0.0430096
0.0428698
0.0417787
0.0408033
0.0398073
0.0389178
0.0381093
0.0373689
0.0366416
0.0359339
0.0351064
0.0342731
0.0329548
0.0316497
0.0286286
0.0260052
0.042309
0.0422951
0.0414414
0.0406352
0.0397311
0.0388854
0.0380831
0.0373322
0.0365874
0.0358607
0.0350183
0.0341723
0.0328495
0.031543
0.0285241
0.0259087
0.0418578
0.0418805
0.0411769
0.0404737
0.0396364
0.0388231
0.0380258
0.0372648
0.036503
0.0357576
0.0349032
0.0340524
0.0327498
0.0314835
0.0285603
0.0260525
0.0415668
0.0415944
0.0409696
0.0403215
0.0395228
0.0387258
0.037926
0.0371484
0.03636
0.0355784
0.034685
0.0337842
0.0324511
0.0311474
0.0283269
0.0259259
0.0413978
0.041426
0.0408349
0.0402087
0.039424
0.0386277
0.037818
0.0370218
0.0362099
0.0353999
0.0344855
0.0335652
0.0322603
0.031009
0.0284114
0.0262763
0.050037
0.0444008
0.0423662
0.040636
0.0395803
0.0387491
0.0380851
0.0374921
0.036904
0.0363372
0.0356377
0.0349696
0.0337732
0.0327197
0.029679
0.0274261
0.0458812
0.0441274
0.0423174
0.04082
0.0397507
0.0388916
0.0381916
0.0375754
0.0369749
0.0364066
0.0357133
0.0350654
0.0338937
0.0328934
0.029815
0.0274578
0.0438921
0.0432834
0.0419215
0.0407878
0.0397944
0.0389609
0.0382475
0.0376185
0.037011
0.0364448
0.0357661
0.0351445
0.0339988
0.0330212
0.0298061
0.0272039
0.042715
0.042579
0.0415971
0.0407179
0.0398209
0.0390218
0.0382977
0.0376481
0.0370211
0.036444
0.0357671
0.0351624
0.0340425
0.0331065
0.02985
0.0271773
0.042017
0.0420064
0.0412615
0.0405509
0.0397443
0.0389872
0.0382663
0.0376025
0.036954
0.0363539
0.0356574
0.0350375
0.0339086
0.0329772
0.0297134
0.0270468
0.0415675
0.0415933
0.0409979
0.0403892
0.0396476
0.0389203
0.0382011
0.0375231
0.036853
0.0362297
0.0355171
0.0348922
0.0337873
0.0329182
0.0297793
0.0272744
0.0412762
0.0413069
0.0407896
0.0402346
0.0395295
0.0388154
0.038089
0.0373874
0.0366812
0.0360079
0.0352363
0.0345318
0.033356
0.0323981
0.0293408
0.0269646
0.0411051
0.0411363
0.0406521
0.0401179
0.0394246
0.0387083
0.037968
0.0372416
0.036504
0.0357916
0.0349866
0.0342487
0.0330938
0.0322017
0.0294332
0.0275383
0.0498395
0.04421
0.0422481
0.0405874
0.0396105
0.0388565
0.0382714
0.0377624
0.0372654
0.036807
0.0362236
0.0357017
0.0346018
0.0336716
0.0302324
0.0275514
0.0456843
0.0439327
0.0421973
0.0407701
0.0397806
0.038999
0.0383787
0.0378477
0.0373395
0.0368815
0.0363056
0.035807
0.0347265
0.0338329
0.0301869
0.02695
0.0436929
0.0430834
0.0417958
0.0407329
0.0398206
0.0390652
0.038432
0.0378893
0.0373753
0.0369218
0.0363631
0.0358969
0.0348369
0.0339571
0.0300285
0.0261072
0.042516
0.0423782
0.0414694
0.0406602
0.0398437
0.0391218
0.0384766
0.0379128
0.037379
0.0369158
0.0363605
0.0359175
0.0348851
0.0340534
0.0300214
0.0258336
0.0418178
0.0418049
0.0411322
0.0404903
0.0397629
0.0390812
0.0384364
0.0378555
0.0372964
0.0368063
0.0362256
0.0357637
0.034712
0.0338842
0.0298203
0.025581
0.0413678
0.0413912
0.0408672
0.0403258
0.0396614
0.0390076
0.0383613
0.0377625
0.0371776
0.0366608
0.0360604
0.0355959
0.0345736
0.0338398
0.0299484
0.0259126
0.0410748
0.0411031
0.0406563
0.0401673
0.039537
0.0388936
0.0382358
0.037607
0.0369769
0.036397
0.0357178
0.035146
0.0340084
0.0331339
0.029301
0.0253616
0.0409006
0.0409294
0.0405151
0.0400458
0.0394253
0.0387771
0.0381015
0.0374424
0.0367741
0.0361475
0.035427
0.0348197
0.0337152
0.0329775
0.0295849
0.0264466
0.040683
0.0407099
0.0403367
0.0399036
0.0393231
0.0387092
0.0380616
0.037424
0.0367702
0.0361528
0.0354349
0.0348248
0.0337036
0.0329403
0.0294753
0.026232
0.0407129
0.0407405
0.0403254
0.0398558
0.0392349
0.0385792
0.037891
0.0372054
0.0364965
0.0358033
0.0350064
0.0342681
0.0330944
0.0321738
0.0293301
0.0273562
0.0408633
0.0408862
0.0403807
0.0398393
0.0391548
0.0384453
0.0377067
0.0369676
0.0361964
0.0354139
0.0345117
0.0335918
0.0322659
0.0309822
0.0283108
0.0261049
0.0411838
0.0411716
0.040505
0.0398441
0.039068
0.0382988
0.0375221
0.036747
0.0359408
0.0351104
0.0341669
0.0331784
0.0318678
0.0305424
0.0283136
0.026364
0.0417619
0.0416242
0.0407066
0.0398597
0.03897
0.0381291
0.0373202
0.0365213
0.0356899
0.0348224
0.033845
0.0327993
0.0314916
0.0301252
0.0281661
0.0263467
0.0428472
0.0422377
0.0409294
0.0398171
0.0388184
0.0379308
0.0371182
0.0363267
0.0355041
0.0346335
0.0336566
0.0326007
0.0313304
0.0299839
0.0282363
0.0265346
0.0447643
0.0430098
0.0412478
0.0397683
0.0386899
0.0377734
0.0369647
0.0361756
0.0353618
0.0344949
0.0335232
0.0324663
0.0312245
0.029898
0.0282796
0.0266499
0.0489202
0.0432934
0.0413167
0.0396149
0.0385611
0.0376843
0.0369204
0.0361642
0.0353809
0.0345391
0.0335891
0.0325495
0.0313278
0.0300105
0.0284124
0.0267657
0.0405795
0.040604
0.040262
0.0398631
0.0393275
0.0387605
0.0381634
0.0375793
0.0369797
0.0364208
0.0357507
0.0351806
0.0340198
0.0331113
0.0291568
0.0250564
0.0406046
0.04063
0.0402457
0.0398094
0.0392314
0.0386204
0.0379787
0.0373415
0.0366799
0.0360372
0.0352798
0.0345784
0.0333762
0.0323794
0.0291998
0.0266999
0.0407499
0.0407707
0.0402957
0.0397871
0.0391438
0.0384759
0.0377798
0.0370831
0.0363515
0.0356084
0.0347329
0.0338345
0.0324723
0.0311245
0.0281914
0.0256862
0.0410655
0.0410512
0.0404147
0.0397857
0.0390501
0.038321
0.0375832
0.0368465
0.0360745
0.035277
0.034355
0.0333837
0.0320477
0.030684
0.0282884
0.026176
0.0416392
0.0414997
0.0406119
0.0397963
0.0389453
0.0381429
0.0373706
0.0366057
0.0358036
0.0349628
0.0340016
0.0329674
0.0316393
0.0302445
0.0281738
0.0262556
0.0427213
0.0421105
0.040832
0.0397504
0.0387896
0.0379384
0.0371617
0.0364025
0.0356063
0.0347593
0.0337968
0.0327508
0.0314668
0.0301009
0.0282798
0.0265125
0.0446376
0.0428829
0.041151
0.039702
0.03866
0.0377785
0.0370022
0.0362432
0.0354555
0.0346103
0.033652
0.032604
0.0313528
0.0300121
0.0283423
0.0266639
0.0487934
0.0431684
0.0412217
0.0395506
0.0385337
0.0376924
0.0369611
0.036236
0.0354807
0.0346621
0.033728
0.0327
0.0314729
0.0301446
0.0285
0.026804
0.0405085
0.0405315
0.0402119
0.0398396
0.0393405
0.0388151
0.0382655
0.0377354
0.0371972
0.0367139
0.0361304
0.0356737
0.034618
0.0338339
0.0297327
0.0254096
0.0405294
0.0405534
0.040191
0.0397802
0.0392367
0.0386646
0.0380662
0.037477
0.0368677
0.0362872
0.0355958
0.0349787
0.0338368
0.0329121
0.0295739
0.0268595
0.0406702
0.0406896
0.0402361
0.0397525
0.0391422
0.0385098
0.0378527
0.0371976
0.0365086
0.0358132
0.0349827
0.034137
0.0327944
0.0314663
0.0283699
0.0256986
0.0409816
0.040966
0.0403506
0.0397456
0.0390423
0.0383469
0.0376443
0.0369442
0.036208
0.0354485
0.0345596
0.0336242
0.0322952
0.0309365
0.0284247
0.026201
0.0415519
0.0414112
0.0405441
0.0397519
0.0389314
0.0381612
0.0374212
0.0366881
0.035916
0.0351053
0.0341679
0.033157
0.0318283
0.0304296
0.0282761
0.0262812
0.0426315
0.0420198
0.040762
0.0397033
0.0387721
0.0379506
0.0372054
0.0364765
0.0357062
0.0348846
0.0339413
0.0329124
0.0316269
0.030255
0.0283768
0.0265541
0.0445471
0.0427924
0.0410816
0.0396552
0.0386417
0.0377887
0.0370404
0.0363091
0.0355465
0.0347239
0.0337821
0.0327478
0.0314949
0.0301481
0.028437
0.0267156
0.0487029
0.0430792
0.0411536
0.0395055
0.0385173
0.0377053
0.037002
0.0363053
0.0355767
0.0347819
0.033866
0.0328535
0.0316271
0.0302942
0.0286116
0.0268714
0.0404608
0.0404826
0.0401789
0.0398263
0.0393551
0.0388617
0.0383479
0.0378565
0.0373579
0.0369144
0.036362
0.0359217
0.0348336
0.0339459
0.0295565
0.0248484
0.040478
0.0405009
0.0401541
0.0397623
0.0392449
0.0387029
0.0381376
0.0375833
0.0370088
0.0364628
0.0357967
0.0351943
0.0340227
0.0330244
0.029467
0.0264826
0.0406151
0.0406334
0.0401953
0.0397302
0.0391449
0.0385399
0.0379131
0.0372889
0.0366294
0.0359625
0.0351506
0.0343147
0.0329432
0.031559
0.0282927
0.0254391
0.0409231
0.0409065
0.0403061
0.0397189
0.0390402
0.0383707
0.0376957
0.0370235
0.0363131
0.0355779
0.0347046
0.033778
0.0324279
0.0310316
0.0284039
0.0260634
0.0414906
0.0413491
0.0404967
0.0397218
0.0389245
0.0381793
0.0374647
0.0367565
0.0360069
0.0352167
0.0342923
0.0332888
0.0319449
0.0305207
0.0282885
0.0262171
0.0425683
0.0419559
0.0407128
0.0396711
0.0387623
0.037964
0.0372439
0.036539
0.0357888
0.0349859
0.0340546
0.0330333
0.0317379
0.0303489
0.0284166
0.0265402
0.0444834
0.0427287
0.0410329
0.0396233
0.0386314
0.0378007
0.0370749
0.0363658
0.0356233
0.0348182
0.0338881
0.0328614
0.0316024
0.0302437
0.0284938
0.0267314
0.0486393
0.0430165
0.0411061
0.039475
0.0385088
0.0377196
0.0370389
0.0363653
0.0356584
0.0348825
0.0339802
0.0329774
0.0317478
0.0304053
0.0286869
0.0269053
0.0404303
0.0404513
0.0401593
0.0398219
0.0393728
0.0389058
0.0384226
0.0379659
0.0375057
0.0371049
0.0365956
0.0361967
0.0351286
0.034224
0.0296824
0.0247048
0.0404444
0.0404666
0.0401312
0.0397538
0.0392569
0.0387397
0.0382023
0.037679
0.0371375
0.0366274
0.0359949
0.0354242
0.0342595
0.0332429
0.0295535
0.0263855
0.0405784
0.040596
0.0401691
0.0397181
0.0391521
0.0385694
0.0379679
0.0373709
0.0367392
0.0361013
0.0353142
0.0345004
0.0331265
0.0317226
0.0283463
0.0253604
0.0408837
0.0408665
0.0402768
0.0397031
0.0390433
0.0383948
0.0377426
0.0370944
0.0364077
0.0356966
0.0348425
0.0339322
0.032578
0.0311658
0.028459
0.0260294
0.041449
0.0413069
0.040465
0.0397032
0.0389234
0.0381982
0.0375046
0.0368175
0.0360882
0.035318
0.0344087
0.0334175
0.0320697
0.0306334
0.0283457
0.0262137
0.0425251
0.0419123
0.0406797
0.0396506
0.0387589
0.0379789
0.0372791
0.0365942
0.035862
0.0350767
0.0341585
0.0331474
0.0318494
0.0304514
0.0284797
0.0265595
0.0444398
0.0426851
0.041
0.0396029
0.0386274
0.0378138
0.0371065
0.0364163
0.035691
0.034902
0.0339838
0.0329663
0.0317059
0.0303405
0.0285615
0.0267652
0.0485957
0.0429736
0.0410741
0.0394557
0.0385061
0.0377349
0.0370724
0.036418
0.0357298
0.0349709
0.0340818
0.0330895
0.0318602
0.0305122
0.0287666
0.0269505
0.0404114
0.0404317
0.0401479
0.039821
0.0393874
0.0389386
0.0384762
0.0380419
0.0376042
0.0372244
0.0367301
0.0363345
0.0352433
0.0342768
0.029589
0.024407
0.0404231
0.0404448
0.0401172
0.0397499
0.0392674
0.0387673
0.038249
0.037746
0.0372243
0.0367327
0.0361123
0.0355446
0.0343582
0.0332934
0.0294881
0.0261834
0.0405548
0.040572
0.0401527
0.0397115
0.039159
0.0385919
0.0380081
0.037429
0.0368146
0.0361925
0.0354151
0.0346038
0.0332113
0.0317709
0.0283045
0.025219
0.0408581
0.0408404
0.0402581
0.0396937
0.0390473
0.0384135
0.0377773
0.0371454
0.036474
0.0357767
0.0349311
0.0340237
0.0326556
0.0312177
0.0284469
0.0259493
0.0414217
0.0412792
0.0404446
0.0396918
0.0389244
0.0382135
0.0375346
0.0368621
0.0361464
0.0353884
0.0344868
0.0334989
0.0321416
0.030688
0.0283557
0.0261769
0.0424967
0.0418836
0.0406582
0.039638
0.0387582
0.0379917
0.0373061
0.036635
0.0359155
0.0351415
0.0342308
0.0332238
0.0319198
0.0305098
0.0285064
0.0265518
0.0444111
0.0426564
0.0409787
0.0395902
0.0386263
0.0378248
0.0371311
0.0364546
0.0357413
0.0349632
0.0340525
0.0330397
0.0317757
0.0304019
0.0285994
0.0267761
0.048567
0.0429455
0.0410533
0.0394439
0.0385061
0.0377477
0.0370986
0.0364581
0.0357832
0.0350361
0.0341556
0.0331693
0.031938
0.030583
0.0288152
0.0269719
0.0404009
0.0404209
0.0401423
0.0398224
0.0393993
0.0389631
0.0385155
0.0380975
0.0376774
0.0373157
0.0368375
0.036453
0.035359
0.0343666
0.0295975
0.0242793
0.0404109
0.0404323
0.0401099
0.0397492
0.0392763
0.0387881
0.0382832
0.0377949
0.0372886
0.0368124
0.0362048
0.0356456
0.0344539
0.0333675
0.0294954
0.0261017
0.0405411
0.040558
0.0401437
0.0397089
0.0391655
0.0386091
0.0380374
0.0374715
0.0368702
0.0362611
0.0354937
0.034689
0.0332907
0.0318331
0.0283136
0.0251625
0.0408429
0.040825
0.0402475
0.0396892
0.0390517
0.0384279
0.0378027
0.0371824
0.0365225
0.0358362
0.0349988
0.0340968
0.0327239
0.0312732
0.0284639
0.0259211
0.0414055
0.0412628
0.0404328
0.0396858
0.0389267
0.0382254
0.0375566
0.0368945
0.0361887
0.0354402
0.0345455
0.0335624
0.0322018
0.0307394
0.0283798
0.0261695
0.0424797
0.0418665
0.0406457
0.0396311
0.0387593
0.0380018
0.0373258
0.0366643
0.035954
0.0351887
0.0342843
0.0332816
0.0319756
0.0305595
0.0285363
0.0265584
0.0443938
0.0426392
0.0409662
0.0395833
0.038627
0.0378335
0.037149
0.0364821
0.0357773
0.0350073
0.0341026
0.0330941
0.0318291
0.0304509
0.0286336
0.0267919
0.0485498
0.0429286
0.0410412
0.0394376
0.0385075
0.0377576
0.0371175
0.0364866
0.0358211
0.0350826
0.0342088
0.0332275
0.031996
0.0306371
0.0288552
0.0269933
0.0403961