/*--------------------------------*- C++ -*----------------------------------*\
| =========                 |                                                 |
| \\      /  F ield         | OpenFOAM: The Open Source CFD Toolbox           |
|  \\    /   O peration     | Version:  v1912                                 |
|   \\  /    A nd           | Website:  www.openfoam.com                      |
|    \\/     M anipulation  |                                                 |
\*---------------------------------------------------------------------------*/
FoamFile
{
    version     2.0;
    format      ascii;
    class       pointVectorField;
    location    "0.89/fluid";
    object      pointMotionU;
}
// * * * * * * * * * * * * * * * * * * * * * * * * * * * * * * * * * * * * * //

dimensions      [0 1 -1 0 0 0 0];


internalField   nonuniform List<vector> 
16859
(
(0 0 0)
(0 0 0)
(0 0 0)
(0 0 0)
(0 0 0)
(0 0 0)
(0 0 0)
(0 0 0)
(0 0 0)
(0 0 0)
(0 0 0)
(0 0 0)
(0 0 0)
(0 0 0)
(0 0 0)
(0 0 0)
(1.42978e-08 2.4881e-08 1.62427e-08)
(0 0 0)
(4.20506e-10 -1.02587e-09 8.09308e-10)
(8.04832e-10 -1.9622e-09 1.57779e-09)
(1.16991e-09 -2.84529e-09 2.36109e-09)
(1.53146e-09 -3.70122e-09 3.20848e-09)
(1.90514e-09 -4.54494e-09 4.16606e-09)
(2.30831e-09 -5.37833e-09 5.27896e-09)
(2.76239e-09 -6.18604e-09 6.59284e-09)
(3.29638e-09 -6.92776e-09 8.15447e-09)
(3.95327e-09 -7.52449e-09 1.00122e-08)
(4.80284e-09 -7.83438e-09 1.2218e-08)
(5.96832e-09 -7.60828e-09 1.48359e-08)
(7.6811e-09 -6.4031e-09 1.79723e-08)
(1.03822e-08 -3.41244e-09 2.18584e-08)
(1.48273e-08 2.78095e-09 2.70102e-08)
(2.12161e-08 1.3027e-08 3.36409e-08)
(3.01495e-08 3.29525e-08 4.09087e-08)
(0 0 0)
(8.29528e-10 -2.02144e-09 1.59729e-09)
(1.58716e-09 -3.86772e-09 3.11335e-09)
(2.30565e-09 -5.61151e-09 4.65738e-09)
(3.0152e-09 -7.3058e-09 6.32594e-09)
(3.7459e-09 -8.98283e-09 8.20932e-09)
(4.53059e-09 -1.06508e-08 1.03958e-08)
(5.40867e-09 -1.22871e-08 1.29743e-08)
(6.4315e-09 -1.38257e-08 1.60348e-08)
(7.67105e-09 -1.51357e-08 1.96681e-08)
(9.2355e-09 -1.59878e-08 2.39635e-08)
(1.12961e-08 -1.60022e-08 2.90087e-08)
(1.41313e-08 -1.45813e-08 3.48974e-08)
(1.81643e-08 -1.08683e-08 4.1744e-08)
(2.38457e-08 -3.94768e-09 4.96429e-08)
(3.04336e-08 5.33791e-09 5.77127e-08)
(4.09755e-08 1.89069e-08 6.97942e-08)
(0 0 0)
(1.21642e-09 -2.95698e-09 2.34436e-09)
(2.32616e-09 -5.66072e-09 4.56803e-09)
(3.37585e-09 -8.2204e-09 6.82984e-09)
(4.40825e-09 -1.07174e-08 9.27007e-09)
(5.46567e-09 -1.32052e-08 1.20198e-08)
(6.59336e-09 -1.57056e-08 1.5207e-08)
(7.8438e-09 -1.82021e-08 1.89601e-08)
(9.28205e-09 -2.06261e-08 2.34091e-08)
(1.09928e-08 -2.2835e-08 2.86826e-08)
(1.309e-08 -2.45801e-08 3.49001e-08)
(1.57291e-08 -2.54654e-08 4.21576e-08)
(1.91177e-08 -2.49165e-08 5.0505e-08)
(2.34921e-08 -2.22311e-08 5.99035e-08)
(2.89539e-08 -1.69088e-08 7.01236e-08)
(3.4572e-08 -1.00678e-08 7.98182e-08)
(4.27274e-08 -6.44449e-10 9.25369e-08)
(0 0 0)
(1.57167e-09 -3.80212e-09 3.03263e-09)
(3.00321e-09 -7.28354e-09 5.90638e-09)
(4.35265e-09 -1.05895e-08 8.82417e-09)
(5.67278e-09 -1.38309e-08 1.19648e-08)
(7.01533e-09 -1.70861e-08 1.54952e-08)
(8.43449e-09 -2.03988e-08 1.95778e-08)
(9.99107e-09 -2.37723e-08 2.4376e-08)
(1.17568e-08 -2.71592e-08 3.00552e-08)
(1.38184e-08 -3.04436e-08 3.67792e-08)
(1.62795e-08 -3.34149e-08 4.46988e-08)
(1.92567e-08 -3.57355e-08 5.39273e-08)
(2.2862e-08 -3.69142e-08 6.44933e-08)
(2.71392e-08 -3.63295e-08 7.6249e-08)
(3.19052e-08 -3.34281e-08 8.86861e-08)
(3.6185e-08 -2.87234e-08 9.99006e-08)
(4.1989e-08 -2.04962e-08 1.12905e-07)
(0 0 0)
(1.88762e-09 -4.52693e-09 3.64715e-09)
(3.60348e-09 -8.67873e-09 7.09888e-09)
(5.21402e-09 -1.26349e-08 1.05951e-08)
(6.77931e-09 -1.6536e-08 1.43468e-08)
(8.35743e-09 -2.04875e-08 1.85499e-08)
(1.00082e-08 -2.45604e-08 2.3395e-08)
(1.17969e-08 -2.8789e-08 2.90735e-08)
(1.37979e-08 -3.31651e-08 3.57804e-08)
(1.6097e-08 -3.76282e-08 4.37119e-08)
(1.87889e-08 -4.20483e-08 5.30545e-08)
(2.19684e-08 -4.62015e-08 6.39608e-08)
(2.5702e-08 -4.97321e-08 7.64977e-08)
(2.99555e-08 -5.20938e-08 9.05278e-08)
(3.44369e-08 -5.24992e-08 1.0544e-07)
(3.81477e-08 -5.04068e-08 1.18815e-07)
(4.28402e-08 -4.23854e-08 1.33293e-07)
(0 0 0)
(2.15878e-09 -5.1028e-09 4.17671e-09)
(4.11645e-09 -9.791e-09 8.12339e-09)
(5.94475e-09 -1.42748e-08 1.2109e-08)
(7.70797e-09 -1.87222e-08 1.63687e-08)
(9.46753e-09 -2.32654e-08 2.112e-08)
(1.12856e-08 -2.80047e-08 2.65731e-08)
(1.32288e-08 -3.30096e-08 3.29387e-08)
(1.53717e-08 -3.83199e-08 4.04323e-08)
(1.77992e-08 -4.39438e-08 4.92745e-08)
(2.06062e-08 -4.98546e-08 5.96855e-08)
(2.38941e-08 -5.59838e-08 7.18722e-08)
(2.77577e-08 -6.21974e-08 8.59952e-08)
(3.22385e-08 -6.82177e-08 1.0207e-07)
(3.71869e-08 -7.3413e-08 1.19665e-07)
(4.16294e-08 -7.64055e-08 1.36074e-07)
(4.76366e-08 -7.22338e-08 1.54479e-07)
(0 0 0)
(2.382e-09 -5.5039e-09 4.61421e-09)
(4.53634e-09 -1.05701e-08 8.96621e-09)
(6.53688e-09 -1.54337e-08 1.33451e-08)
(8.4491e-09 -2.02856e-08 1.80021e-08)
(1.03347e-08 -2.52814e-08 2.31673e-08)
(1.2255e-08 -3.05474e-08 2.9061e-08)
(1.42746e-08 -3.6186e-08 3.59021e-08)
(1.64651e-08 -4.22806e-08 4.39134e-08)
(1.89086e-08 -4.8902e-08 5.3324e-08)
(2.17008e-08 -5.61171e-08 6.43699e-08)
(2.4958e-08 -6.40042e-08 7.72944e-08)
(2.8827e-08 -7.26715e-08 9.23454e-08)
(3.34905e-08 -8.22576e-08 1.0974e-07)
(3.90998e-08 -9.28035e-08 1.29447e-07)
(4.49259e-08 -1.02982e-07 1.48942e-07)
(5.44616e-08 -1.14167e-07 1.72964e-07)
(0 0 0)
(2.55653e-09 -5.70866e-09 4.9571e-09)
(4.86232e-09 -1.09741e-08 9.62308e-09)
(6.9902e-09 -1.60485e-08 1.42981e-08)
(9.00389e-09 -2.11386e-08 1.92405e-08)
(1.09624e-08 -2.64168e-08 2.46842e-08)
(1.2923e-08 -3.2029e-08 3.08495e-08)
(1.49448e-08 -3.81012e-08 3.79512e-08)
(1.70918e-08 -4.47466e-08 4.62032e-08)
(1.94362e-08 -5.2074e-08 5.58208e-08)
(2.20629e-08 -6.01994e-08 6.70214e-08)
(2.50767e-08 -6.92655e-08 8.00261e-08)
(2.86139e-08 -7.94691e-08 9.50637e-08)
(3.28472e-08 -9.10828e-08 1.12356e-07)
(3.78994e-08 -1.04383e-07 1.31981e-07)
(4.29278e-08 -1.17813e-07 1.51346e-07)
(5.667e-08 -1.4007e-07 1.81298e-07)
(0 0 0)
(0 0 0)
(0 0 0)
(0 0 0)
(0 0 0)
(0 0 0)
(0 0 0)
(0 0 0)
(0 0 0)
(0 0 0)
(0 0 0)
(0 0 0)
(0 0 0)
(0 0 0)
(0 0 0)
(0 0 0)
(9.80833e-09 1.27693e-08 7.61015e-09)
(0 0 0)
(4.28359e-10 -1.05161e-09 7.83369e-10)
(8.19596e-10 -2.01175e-09 1.52606e-09)
(1.1908e-09 -2.91823e-09 2.28108e-09)
(1.55771e-09 -3.79851e-09 3.09511e-09)
(1.93581e-09 -4.66881e-09 4.01132e-09)
(2.34182e-09 -5.53216e-09 5.07123e-09)
(2.79587e-09 -6.37466e-09 6.31558e-09)
(3.32479e-09 -7.15826e-09 7.7841e-09)
(3.96802e-09 -7.80834e-09 9.51424e-09)
(4.79006e-09 -8.19222e-09 1.15393e-08)
(5.90713e-09 -8.081e-09 1.38882e-08)
(7.54385e-09 -7.07725e-09 1.65945e-08)
(1.01363e-08 -4.48192e-09 1.97235e-08)
(1.44094e-08 8.38677e-10 2.33857e-08)
(2.05668e-08 9.44623e-09 2.73039e-08)
(2.72818e-08 1.9855e-08 2.85123e-08)
(0 0 0)
(8.45082e-10 -2.07209e-09 1.5461e-09)
(1.61644e-09 -3.96523e-09 3.01133e-09)
(2.34722e-09 -5.75517e-09 4.49973e-09)
(3.06773e-09 -7.49759e-09 6.10281e-09)
(3.80767e-09 -9.22712e-09 7.90518e-09)
(4.59874e-09 -1.09542e-08 9.9881e-09)
(5.47796e-09 -1.26589e-08 1.24311e-08)
(6.49253e-09 -1.42791e-08 1.53111e-08)
(7.70752e-09 -1.56916e-08 1.86991e-08)
(9.22012e-09 -1.66825e-08 2.2652e-08)
(1.11866e-08 -1.6906e-08 2.7201e-08)
(1.38684e-08 -1.5839e-08 3.23353e-08)
(1.76784e-08 -1.27865e-08 3.79705e-08)
(2.30766e-08 -7.17664e-09 4.38442e-08)
(2.95733e-08 2.55641e-11 4.9076e-08)
(3.68362e-08 4.72086e-09 5.30777e-08)
(0 0 0)
(1.23946e-09 -3.031e-09 2.26934e-09)
(2.36963e-09 -5.8033e-09 4.41859e-09)
(3.43783e-09 -8.43063e-09 6.5992e-09)
(4.48706e-09 -1.09983e-08 8.9441e-09)
(5.5592e-09 -1.35632e-08 1.15762e-08)
(6.69802e-09 -1.61504e-08 1.46136e-08)
(7.95299e-09 -1.87468e-08 1.81717e-08)
(9.38357e-09 -2.12887e-08 2.23626e-08)
(1.10648e-08 -2.36425e-08 2.72887e-08)
(1.30949e-08 -2.55767e-08 3.30295e-08)
(1.56058e-08 -2.67328e-08 3.96158e-08)
(1.87741e-08 -2.66167e-08 4.69878e-08)
(2.28075e-08 -2.46955e-08 5.49219e-08)
(2.78151e-08 -2.08039e-08 6.28949e-08)
(3.31603e-08 -1.61783e-08 6.9709e-08)
(3.83915e-08 -1.40956e-08 7.42678e-08)
(0 0 0)
(1.60188e-09 -3.89725e-09 2.9358e-09)
(3.0604e-09 -7.4669e-09 5.7137e-09)
(4.43454e-09 -1.08601e-08 8.5272e-09)
(5.7776e-09 -1.41928e-08 1.15459e-08)
(7.14099e-09 -1.75478e-08 1.49263e-08)
(8.57752e-09 -2.09725e-08 1.88187e-08)
(1.01448e-08 -2.44745e-08 2.33707e-08)
(1.19087e-08 -2.80114e-08 2.87264e-08)
(1.39449e-08 -3.14754e-08 3.50196e-08)
(1.6339e-08 -3.46708e-08 4.23573e-08)
(1.91789e-08 -3.72902e-08 5.07853e-08)
(2.25337e-08 -3.89034e-08 6.02271e-08)
(2.63977e-08 -3.90128e-08 7.03681e-08)
(3.05709e-08 -3.73055e-08 8.04397e-08)
(3.43641e-08 -3.43937e-08 8.87455e-08)
(3.77615e-08 -3.27544e-08 9.37003e-08)
(0 0 0)
(1.92458e-09 -4.64021e-09 3.53108e-09)
(3.67362e-09 -8.89722e-09 6.86815e-09)
(5.31488e-09 -1.29576e-08 1.02401e-08)
(6.90924e-09 -1.69681e-08 1.38469e-08)
(8.51486e-09 -2.10392e-08 1.78728e-08)
(1.01905e-08 -2.52465e-08 2.24944e-08)
(1.19988e-08 -2.96286e-08 2.78853e-08)
(1.4009e-08 -3.41823e-08 3.42171e-08)
(1.6297e-08 -3.88534e-08 4.16537e-08)
(1.89411e-08 -4.35223e-08 5.03358e-08)
(2.2009e-08 -4.79829e-08 6.03488e-08)
(2.55254e-08 -5.19099e-08 7.16567e-08)
(2.94022e-08 -5.48077e-08 8.39628e-08)
(3.33153e-08 -5.59754e-08 9.63991e-08)
(3.65111e-08 -5.49065e-08 1.06797e-07)
(3.881e-08 -5.26951e-08 1.12992e-07)
(0 0 0)
(2.20191e-09 -5.23058e-09 4.04432e-09)
(4.19845e-09 -1.00376e-08 7.86053e-09)
(6.06308e-09 -1.46394e-08 1.17052e-08)
(7.86131e-09 -1.92109e-08 1.58016e-08)
(9.65509e-09 -2.38901e-08 2.03542e-08)
(1.15062e-08 -2.87823e-08 2.55581e-08)
(1.34798e-08 -3.39617e-08 3.16053e-08)
(1.56467e-08 -3.94726e-08 3.86866e-08)
(1.80852e-08 -4.53281e-08 4.69895e-08)
(2.08792e-08 -5.15082e-08 5.66876e-08)
(2.41129e-08 -5.79536e-08 6.79197e-08)
(2.78572e-08 -6.4541e-08 8.0742e-08)
(3.2131e-08 -7.0997e-08 9.50055e-08)
(3.67899e-08 -7.66534e-08 1.09995e-07)
(4.11054e-08 -8.01132e-08 1.23278e-07)
(4.4328e-08 -7.91054e-08 1.32386e-07)
(0 0 0)
(2.43053e-09 -5.64188e-09 4.46864e-09)
(4.62874e-09 -1.08365e-08 8.67753e-09)
(6.6706e-09 -1.58281e-08 1.29026e-08)
(8.62319e-09 -2.08149e-08 1.73823e-08)
(1.05493e-08 -2.59589e-08 2.23332e-08)
(1.25106e-08 -3.13919e-08 2.79602e-08)
(1.45713e-08 -3.72209e-08 3.4463e-08)
(1.68016e-08 -4.35336e-08 4.20399e-08)
(1.92804e-08 -5.04048e-08 5.0887e-08)
(2.20995e-08 -5.79064e-08 6.11947e-08)
(2.53706e-08 -6.61233e-08 7.31388e-08)
(2.92412e-08 -7.51739e-08 8.68622e-08)
(3.39184e-08 -8.52101e-08 1.02409e-07)
(3.96381e-08 -9.62558e-08 1.19427e-07)
(4.59936e-08 -1.07139e-07 1.35675e-07)
(5.27311e-08 -1.16801e-07 1.48567e-07)
(0 0 0)
(2.60953e-09 -5.852e-09 4.80151e-09)
(4.96336e-09 -1.12512e-08 9.31494e-09)
(7.13671e-09 -1.64591e-08 1.38268e-08)
(9.19527e-09 -2.16905e-08 1.85825e-08)
(1.11995e-08 -2.71244e-08 2.38024e-08)
(1.32079e-08 -3.29123e-08 2.96914e-08)
(1.52801e-08 -3.91849e-08 3.64458e-08)
(1.74802e-08 -4.60592e-08 4.42561e-08)
(1.98807e-08 -5.36472e-08 5.33069e-08)
(2.25671e-08 -6.20678e-08 6.37731e-08)
(2.56475e-08 -7.14677e-08 7.58145e-08)
(2.927e-08 -8.20501e-08 8.95641e-08)
(3.36394e-08 -9.40953e-08 1.05081e-07)
(3.89552e-08 -1.07854e-07 1.22137e-07)
(4.45689e-08 -1.21901e-07 1.38386e-07)
(5.39621e-08 -1.41066e-07 1.56517e-07)
(0 0 0)
(0 0 0)
(0 0 0)
(0 0 0)
(0 0 0)
(0 0 0)
(0 0 0)
(0 0 0)
(0 0 0)
(0 0 0)
(0 0 0)
(0 0 0)
(0 0 0)
(0 0 0)
(0 0 0)
(0 0 0)
(6.19891e-09 6.38509e-09 2.92284e-09)
(0 0 0)
(4.34167e-10 -1.07464e-09 7.28984e-10)
(8.30261e-10 -2.05622e-09 1.41918e-09)
(1.20509e-09 -2.98388e-09 2.11904e-09)
(1.57387e-09 -3.88628e-09 2.87085e-09)
(1.95114e-09 -4.78098e-09 3.71312e-09)
(2.35188e-09 -5.67275e-09 4.68181e-09)
(2.79309e-09 -6.5504e-09 5.81039e-09)
(3.29592e-09 -7.38104e-09 7.1283e-09)
(3.88956e-09 -8.10085e-09 8.65695e-09)
(4.61931e-09 -8.60094e-09 1.04021e-08)
(5.56356e-09 -8.70629e-09 1.23403e-08)
(6.86669e-09 -8.14589e-09 1.4395e-08)
(8.78564e-09 -6.52111e-09 1.63893e-08)
(1.1668e-08 -3.36173e-09 1.79442e-08)
(1.53496e-08 1.14554e-09 1.83662e-08)
(1.79644e-08 5.95605e-09 1.45176e-08)
(0 0 0)
(8.56657e-10 -2.11735e-09 1.4388e-09)
(1.63774e-09 -4.05261e-09 2.80051e-09)
(2.37591e-09 -5.88412e-09 4.18025e-09)
(3.10058e-09 -7.66993e-09 5.66101e-09)
(3.8397e-09 -9.44718e-09 7.31826e-09)
(4.62172e-09 -1.12294e-08 9.22248e-09)
(5.4779e-09 -1.30011e-08 1.14393e-08)
(6.44511e-09 -1.4709e-08 1.40262e-08)
(7.57001e-09 -1.62473e-08 1.70248e-08)
(8.91642e-09 -1.74395e-08 2.04439e-08)
(1.05783e-08 -1.80204e-08 2.42297e-08)
(1.26969e-08 -1.76392e-08 2.82104e-08)
(1.54538e-08 -1.595e-08 3.19945e-08)
(1.89214e-08 -1.29612e-08 3.48137e-08)
(2.24494e-08 -9.84057e-09 3.56102e-08)
(2.48136e-08 -9.74514e-09 3.26267e-08)
(0 0 0)
(1.25677e-09 -3.09698e-09 2.11196e-09)
(2.4016e-09 -5.93067e-09 4.10953e-09)
(3.48129e-09 -8.61857e-09 6.13121e-09)
(4.53769e-09 -1.12494e-08 8.29763e-09)
(5.61038e-09 -1.38832e-08 1.07185e-08)
(6.73892e-09 -1.6549e-08 1.34965e-08)
(7.96522e-09 -1.9239e-08 1.67274e-08)
(9.33542e-09 -2.1899e-08 2.04963e-08)
(1.09011e-08 -2.4414e-08 2.48662e-08)
(1.27189e-08 -2.65915e-08 2.98547e-08)
(1.48466e-08 -2.81533e-08 3.53909e-08)
(1.73262e-08 -2.8769e-08 4.12394e-08)
(2.01292e-08 -2.82124e-08 4.68734e-08)
(2.30124e-08 -2.67664e-08 5.13224e-08)
(2.52746e-08 -2.56936e-08 5.33399e-08)
(2.56276e-08 -2.7208e-08 5.10885e-08)
(0 0 0)
(1.62487e-09 -3.98181e-09 2.73247e-09)
(3.10306e-09 -7.63012e-09 5.31464e-09)
(4.49312e-09 -1.11008e-08 7.92354e-09)
(5.84717e-09 -1.45141e-08 1.07131e-08)
(7.21415e-09 -1.79565e-08 1.38233e-08)
(8.64222e-09 -2.14794e-08 1.73852e-08)
(1.01808e-08 -2.50953e-08 2.15219e-08)
(1.18811e-08 -2.87698e-08 2.63446e-08)
(1.37939e-08 -3.24098e-08 3.194e-08)
(1.59605e-08 -3.58497e-08 3.83434e-08)
(1.8392e-08 -3.88432e-08 4.54888e-08)
(2.10216e-08 -4.10837e-08 5.31181e-08)
(2.36135e-08 -4.23068e-08 6.06288e-08)
(2.5643e-08 -4.25606e-08 6.68751e-08)
(2.64031e-08 -4.25497e-08 7.02638e-08)
(2.4874e-08 -4.40141e-08 6.86579e-08)
(0 0 0)
(1.95311e-09 -4.74056e-09 3.28695e-09)
(3.72682e-09 -9.09091e-09 6.38937e-09)
(5.38869e-09 -1.32433e-08 9.51676e-09)
(6.99859e-09 -1.73491e-08 1.28509e-08)
(8.61235e-09 -2.15229e-08 1.65564e-08)
(1.02843e-08 -2.58438e-08 2.07878e-08)
(1.20692e-08 -3.03543e-08 2.56909e-08)
(1.40223e-08 -3.50558e-08 3.13997e-08)
(1.61956e-08 -3.9902e-08 3.80248e-08)
(1.86259e-08 -4.47885e-08 4.56269e-08)
(2.13086e-08 -4.954e-08 5.41666e-08)
(2.41396e-08 -5.38951e-08 6.34086e-08)
(2.68089e-08 -5.74898e-08 7.2746e-08)
(2.86693e-08 -5.98748e-08 8.09256e-08)
(2.8919e-08 -6.07605e-08 8.59682e-08)
(2.61935e-08 -6.10181e-08 8.52908e-08)
(0 0 0)
(2.2357e-09 -5.34339e-09 3.76528e-09)
(4.26176e-09 -1.02553e-08 7.3138e-09)
(6.15175e-09 -1.49605e-08 1.08805e-08)
(7.97052e-09 -1.96389e-08 1.46683e-08)
(9.77813e-09 -2.44327e-08 1.88605e-08)
(1.16326e-08 -2.94502e-08 2.36279e-08)
(1.35921e-08 -3.47676e-08 2.91324e-08)
(1.57157e-08 -4.04303e-08 3.55245e-08)
(1.80611e-08 -4.64517e-08 4.29337e-08)
(2.06772e-08 -5.28115e-08 5.14461e-08)
(2.35864e-08 -5.94486e-08 6.10596e-08)
(2.67466e-08 -6.62378e-08 7.15956e-08)
(2.99746e-08 -7.29087e-08 8.25154e-08)
(3.28078e-08 -7.88357e-08 9.25723e-08)
(3.44207e-08 -8.27709e-08 9.94622e-08)
(3.28342e-08 -8.25441e-08 1.00262e-07)
(0 0 0)
(2.46912e-09 -5.7633e-09 4.16104e-09)
(4.70137e-09 -1.1071e-08 8.0755e-09)
(6.77317e-09 -1.61739e-08 1.19962e-08)
(8.75139e-09 -2.12758e-08 1.61399e-08)
(1.06974e-08 -2.65426e-08 2.0701e-08)
(1.26702e-08 -3.21087e-08 2.58593e-08)
(1.47285e-08 -3.80817e-08 3.17837e-08)
(1.69331e-08 -4.45471e-08 3.8631e-08)
(1.93473e-08 -5.15739e-08 4.65384e-08)
(2.20357e-08 -5.9221e-08 5.56048e-08)
(2.50617e-08 -6.75474e-08 6.58546e-08)
(2.84819e-08 -7.66181e-08 7.71632e-08)
(3.23295e-08 -8.64756e-08 8.90876e-08)
(3.65332e-08 -9.69457e-08 1.00484e-07)
(4.05079e-08 -1.06728e-07 1.08872e-07)
(4.36287e-08 -1.14481e-07 1.1074e-07)
(0 0 0)
(2.65233e-09 -5.97778e-09 4.47183e-09)
(5.04419e-09 -1.14942e-08 8.67047e-09)
(7.25163e-09 -1.68177e-08 1.28585e-08)
(9.34053e-09 -2.21686e-08 1.72592e-08)
(1.13707e-08 -2.773e-08 2.20706e-08)
(1.33986e-08 -3.36553e-08 2.7473e-08)
(1.54802e-08 -4.00747e-08 3.36325e-08)
(1.76729e-08 -4.71012e-08 4.07001e-08)
(2.00377e-08 -5.48369e-08 4.88042e-08)
(2.2641e-08 -6.33816e-08 5.80337e-08)
(2.55564e-08 -7.28441e-08 6.84062e-08)
(2.88649e-08 -8.33545e-08 7.9803e-08)
(3.26399e-08 -9.50497e-08 9.18242e-08)
(3.68432e-08 -1.07924e-07 1.03483e-07)
(4.07167e-08 -1.20419e-07 1.12332e-07)
(4.63774e-08 -1.36497e-07 1.14572e-07)
(0 0 0)
(0 0 0)
(0 0 0)
(0 0 0)
(0 0 0)
(0 0 0)
(0 0 0)
(0 0 0)
(0 0 0)
(0 0 0)
(0 0 0)
(0 0 0)
(0 0 0)
(0 0 0)
(0 0 0)
(0 0 0)
(3.61571e-09 3.13684e-09 1.65534e-09)
(0 0 0)
(4.3806e-10 -1.09453e-09 6.48877e-10)
(8.3708e-10 -2.09467e-09 1.26246e-09)
(1.21332e-09 -3.04067e-09 1.88308e-09)
(1.58113e-09 -3.96231e-09 2.54732e-09)
(1.95364e-09 -4.87842e-09 3.28777e-09)
(2.34339e-09 -5.79561e-09 4.13376e-09)
(2.76319e-09 -6.70576e-09 5.11067e-09)
(3.22695e-09 -7.58195e-09 6.23725e-09)
(3.75105e-09 -8.37251e-09 7.51992e-09)
(4.35759e-09 -8.99359e-09 8.94196e-09)
(5.08156e-09 -9.32185e-09 1.04444e-08)
(5.98353e-09 -9.19063e-09 1.18933e-08)
(7.16158e-09 -8.39783e-09 1.30281e-08)
(8.71337e-09 -6.75865e-09 1.34081e-08)
(1.04315e-08 -4.42199e-09 1.25884e-08)
(1.11157e-08 -1.06012e-09 9.51675e-09)
(0 0 0)
(8.64515e-10 -2.15641e-09 1.28075e-09)
(1.65159e-09 -4.12807e-09 2.49137e-09)
(2.39287e-09 -5.99549e-09 3.71502e-09)
(3.11618e-09 -7.81882e-09 5.02345e-09)
(3.84684e-09 -9.63747e-09 6.48064e-09)
(4.60881e-09 -1.14681e-08 8.14415e-09)
(5.4257e-09 -1.33004e-08 1.00639e-08)
(6.3213e-09 -1.50907e-08 1.22773e-08)
(7.31969e-09 -1.67526e-08 1.47978e-08)
(8.44535e-09 -1.81482e-08 1.75947e-08)
(9.72287e-09 -1.90876e-08 2.05562e-08)
(1.11722e-08 -1.93574e-08 2.34302e-08)
(1.27809e-08 -1.88231e-08 2.57394e-08)
(1.4406e-08 -1.76641e-08 2.67371e-08)
(1.55925e-08 -1.6647e-08 2.58504e-08)
(1.59115e-08 -1.72312e-08 2.33919e-08)
(0 0 0)
(1.26874e-09 -3.15384e-09 1.88012e-09)
(2.42288e-09 -6.04045e-09 3.65623e-09)
(3.50789e-09 -8.7804e-09 5.44944e-09)
(4.56356e-09 -1.14652e-08 7.36412e-09)
(5.62596e-09 -1.41579e-08 9.49338e-09)
(6.72877e-09 -1.6891e-08 1.19212e-08)
(7.90392e-09 -1.96625e-08 1.47213e-08)
(9.18081e-09 -2.24281e-08 1.79498e-08)
(1.05828e-08 -2.50926e-08 2.16314e-08)
(1.21193e-08 -2.75018e-08 2.57311e-08)
(1.37691e-08 -2.94498e-08 3.01074e-08)
(1.54468e-08 -3.07296e-08 3.44394e-08)
(1.69429e-08 -3.12827e-08 3.81386e-08)
(1.78619e-08 -3.14732e-08 4.03414e-08)
(1.77961e-08 -3.21229e-08 4.04242e-08)
(1.64332e-08 -3.4185e-08 3.88624e-08)
(0 0 0)
(1.64112e-09 -4.05451e-09 2.43278e-09)
(3.13223e-09 -7.77036e-09 4.729e-09)
(4.53045e-09 -1.13073e-08 7.04349e-09)
(5.88562e-09 -1.47888e-08 9.50956e-09)
(7.24276e-09 -1.83043e-08 1.22461e-08)
(8.64348e-09 -2.19087e-08 1.53607e-08)
(1.01262e-08 -2.56188e-08 1.89485e-08)
(1.17241e-08 -2.94075e-08 2.30851e-08)
(1.3458e-08 -3.31959e-08 2.78095e-08)
(1.53205e-08 -3.68453e-08 3.30936e-08)
(1.72445e-08 -4.01596e-08 3.87893e-08)
(1.90431e-08 -4.29172e-08 4.45485e-08)
(2.03202e-08 -4.49679e-08 4.97267e-08)
(2.04384e-08 -4.64151e-08 5.33661e-08)
(1.90022e-08 -4.76611e-08 5.46503e-08)
(1.59603e-08 -4.95223e-08 5.39713e-08)
(0 0 0)
(1.97372e-09 -4.82659e-09 2.92686e-09)
(3.76421e-09 -9.25675e-09 5.68619e-09)
(5.43768e-09 -1.34871e-08 8.46128e-09)
(7.05175e-09 -1.76725e-08 1.14096e-08)
(8.65838e-09 -2.19304e-08 1.46713e-08)
(1.03054e-08 -2.63424e-08 1.83735e-08)
(1.20367e-08 -3.09527e-08 2.26297e-08)
(1.38901e-08 -3.57656e-08 2.75322e-08)
(1.5889e-08 -4.07391e-08 3.31363e-08)
(1.80247e-08 -4.57777e-08 3.94277e-08)
(2.02206e-08 -5.07231e-08 4.62687e-08)
(2.2263e-08 -5.53435e-08 5.33119e-08)
(2.36967e-08 -5.93169e-08 5.98892e-08)
(2.37687e-08 -6.22197e-08 6.49535e-08)
(2.19565e-08 -6.36422e-08 6.74427e-08)
(1.78064e-08 -6.3835e-08 6.76111e-08)
(0 0 0)
(2.26065e-09 -5.43979e-09 3.35335e-09)
(4.30749e-09 -1.04411e-08 6.51006e-09)
(6.21294e-09 -1.52332e-08 9.67579e-09)
(8.0399e-09 -1.99999e-08 1.30265e-08)
(9.8449e-09 -2.48856e-08 1.67182e-08)
(1.16801e-08 -2.99997e-08 2.08922e-08)
(1.35938e-08 -3.54179e-08 2.56746e-08)
(1.56296e-08 -4.11825e-08 3.11705e-08)
(1.78202e-08 -4.73011e-08 3.74475e-08)
(2.01746e-08 -5.37422e-08 4.45059e-08)
(2.26526e-08 -6.04257e-08 5.22237e-08)
(2.51151e-08 -6.71916e-08 6.02674e-08)
(2.72445e-08 -7.37121e-08 6.79603e-08)
(2.84712e-08 -7.92884e-08 7.41673e-08)
(2.82098e-08 -8.26673e-08 7.75706e-08)
(2.52733e-08 -8.14269e-08 7.84131e-08)
(0 0 0)
(2.49825e-09 -5.86675e-09 3.70649e-09)
(4.75522e-09 -1.12702e-08 7.1895e-09)
(6.84653e-09 -1.64662e-08 1.06704e-08)
(8.8375e-09 -2.16622e-08 1.43373e-08)
(1.07866e-08 -2.70258e-08 1.83562e-08)
(1.27478e-08 -3.26913e-08 2.28757e-08)
(1.47717e-08 -3.87633e-08 2.8028e-08)
(1.69062e-08 -4.532e-08 3.3923e-08)
(1.91939e-08 -5.24155e-08 4.06331e-08)
(2.16669e-08 -6.00825e-08 4.81649e-08)
(2.43367e-08 -6.83315e-08 5.64061e-08)
(2.71761e-08 -7.71407e-08 6.50341e-08)
(3.00957e-08 -8.6403e-08 7.33646e-08)
(3.29077e-08 -9.57364e-08 8.01601e-08)
(3.52125e-08 -1.03832e-07 8.37913e-08)
(3.72113e-08 -1.09042e-07 8.41796e-08)
(0 0 0)
(2.68529e-09 -6.08466e-09 3.98409e-09)
(5.10558e-09 -1.17001e-08 7.7208e-09)
(7.33647e-09 -1.71198e-08 1.14401e-08)
(9.44278e-09 -2.25675e-08 1.53363e-08)
(1.14821e-08 -2.82279e-08 1.95783e-08)
(1.3507e-08 -3.42533e-08 2.43158e-08)
(1.5567e-08 -4.07695e-08 2.96791e-08)
(1.77095e-08 -4.7879e-08 3.57736e-08)
(1.99793e-08 -5.56648e-08 4.26659e-08)
(2.24181e-08 -6.41922e-08 5.0356e-08)
(2.50587e-08 -7.35102e-08 5.87281e-08)
(2.79162e-08 -8.36455e-08 6.74641e-08)
(3.09653e-08 -9.45677e-08 7.58998e-08)
(3.40668e-08 -1.06053e-07 8.28488e-08)
(3.66313e-08 -1.16622e-07 8.66146e-08)
(4.05976e-08 -1.29406e-07 8.48965e-08)
(0 0 0)
(0 0 0)
(0 0 0)
(0 0 0)
(0 0 0)
(0 0 0)
(0 0 0)
(0 0 0)
(0 0 0)
(0 0 0)
(0 0 0)
(0 0 0)
(0 0 0)
(0 0 0)
(0 0 0)
(0 0 0)
(2.36749e-09 1.7104e-09 1.56239e-09)
(0 0 0)
(4.40365e-10 -1.11099e-09 5.4651e-10)
(8.40781e-10 -2.12647e-09 1.06271e-09)
(1.21683e-09 -3.08763e-09 1.58364e-09)
(1.58185e-09 -4.02517e-09 2.13921e-09)
(1.94738e-09 -4.95899e-09 2.75549e-09)
(2.32339e-09 -5.89724e-09 3.45497e-09)
(2.71852e-09 -6.83447e-09 4.25546e-09)
(3.13985e-09 -7.74873e-09 5.16711e-09)
(3.59265e-09 -8.59775e-09 6.18658e-09)
(4.08079e-09 -9.3153e-09 7.28697e-09)
(4.60945e-09 -9.80944e-09 8.40228e-09)
(5.19216e-09 -9.96437e-09 9.4061e-09)
(5.86133e-09 -9.64377e-09 1.00932e-08)
(6.66259e-09 -8.69313e-09 1.02034e-08)
(7.51948e-09 -7.08038e-09 9.62908e-09)
(7.85078e-09 -3.95067e-09 8.03853e-09)
(0 0 0)
(8.69282e-10 -2.18871e-09 1.07876e-09)
(1.65936e-09 -4.19044e-09 2.09732e-09)
(2.40062e-09 -6.08746e-09 3.1245e-09)
(3.11898e-09 -7.9416e-09 4.21901e-09)
(3.83681e-09 -9.79414e-09 5.43204e-09)
(4.57335e-09 -1.16643e-08 6.80781e-09)
(5.34459e-09 -1.35462e-08 8.38159e-09)
(6.16212e-09 -1.54038e-08 1.0174e-08)
(7.03063e-09 -1.71654e-08 1.21802e-08)
(7.94427e-09 -1.87195e-08 1.43509e-08)
(8.88211e-09 -1.99199e-08 1.65642e-08)
(9.80233e-09 -2.06147e-08 1.85888e-08)
(1.06342e-08 -2.07174e-08 2.00582e-08)
(1.12676e-08 -2.03316e-08 2.05364e-08)
(1.1571e-08 -1.98499e-08 1.99213e-08)
(1.18044e-08 -2.01041e-08 1.8978e-08)
(0 0 0)
(1.27624e-09 -3.20081e-09 1.58375e-09)
(2.43537e-09 -6.13103e-09 3.07825e-09)
(3.52114e-09 -8.91367e-09 4.58374e-09)
(4.57081e-09 -1.16424e-08 6.18567e-09)
(5.61656e-09 -1.43826e-08 7.95862e-09)
(6.68583e-09 -1.71695e-08 9.96732e-09)
(7.8007e-09 -2.00054e-08 1.22641e-08)
(8.97505e-09 -2.28538e-08 1.48813e-08)
(1.02085e-08 -2.56331e-08 1.7817e-08)
(1.14751e-08 -2.82136e-08 2.10102e-08)
(1.27053e-08 -3.04276e-08 2.43062e-08)
(1.37584e-08 -3.21146e-08 2.74144e-08)
(1.43988e-08 -3.32332e-08 2.98947e-08)
(1.43373e-08 -3.40308e-08 3.12651e-08)
(1.3553e-08 -3.49882e-08 3.14346e-08)
(1.24643e-08 -3.6702e-08 3.12581e-08)
(0 0 0)
(1.65165e-09 -4.11443e-09 2.04954e-09)
(3.15017e-09 -7.88577e-09 3.98196e-09)
(4.5507e-09 -1.14766e-08 5.92545e-09)
(5.90024e-09 -1.5013e-08 7.98918e-09)
(7.23941e-09 -1.85864e-08 1.02685e-08)
(8.60289e-09 -2.22539e-08 1.28466e-08)
(1.00182e-08 -2.60351e-08 1.57917e-08)
(1.15019e-08 -2.99073e-08 1.91486e-08)
(1.305e-08 -3.37995e-08 2.29222e-08)
(1.46203e-08 -3.75865e-08 2.70502e-08)
(1.61016e-08 -4.10924e-08 3.13644e-08)
(1.72651e-08 -4.41158e-08 3.55478e-08)
(1.77176e-08 -4.64994e-08 3.91245e-08)
(1.69693e-08 -4.82486e-08 4.15744e-08)
(1.50144e-08 -4.95526e-08 4.27031e-08)
(1.24905e-08 -5.104e-08 4.3306e-08)
(0 0 0)
(1.98755e-09 -4.89732e-09 2.46616e-09)
(3.78827e-09 -9.39281e-09 4.78871e-09)
(5.46638e-09 -1.36862e-08 7.11946e-09)
(7.07664e-09 -1.79349e-08 9.58746e-09)
(8.66653e-09 -2.2258e-08 1.23053e-08)
(1.02769e-08 -2.67379e-08 1.53715e-08)
(1.1941e-08 -3.14189e-08 1.88678e-08)
(1.36803e-08 -3.63046e-08 2.28503e-08)
(1.5495e-08 -4.13517e-08 2.73327e-08)
(1.73451e-08 -4.6462e-08 3.22569e-08)
(1.91164e-08 -5.14718e-08 3.74517e-08)
(2.0565e-08 -5.61348e-08 4.25868e-08)
(2.12531e-08 -6.00938e-08 4.71565e-08)
(2.05855e-08 -6.28538e-08 5.05822e-08)
(1.84027e-08 -6.39488e-08 5.25388e-08)
(1.49116e-08 -6.36113e-08 5.37926e-08)
(0 0 0)
(2.27793e-09 -5.51883e-09 2.82599e-09)
(4.33814e-09 -1.0593e-08 5.48353e-09)
(6.25122e-09 -1.5455e-08 8.14302e-09)
(8.07739e-09 -2.02909e-08 1.09488e-08)
(9.86905e-09 -2.52463e-08 1.40265e-08)
(1.16719e-08 -3.04297e-08 1.74855e-08)
(1.35244e-08 -3.59139e-08 2.14174e-08)
(1.54556e-08 -4.17349e-08 2.58865e-08)
(1.74777e-08 -4.78887e-08 3.0913e-08)
(1.95731e-08 -5.43245e-08 3.64432e-08)
(2.16706e-08 -6.09286e-08 4.23043e-08)
(2.36071e-08 -6.74875e-08 4.81506e-08)
(2.50853e-08 -7.35954e-08 5.34298e-08)
(2.5679e-08 -7.84797e-08 5.74605e-08)
(2.51285e-08 -8.09748e-08 5.97834e-08)
(2.28743e-08 -7.89528e-08 6.13116e-08)
(0 0 0)
(2.519e-09 -5.95133e-09 3.12414e-09)
(4.79264e-09 -1.14326e-08 6.05699e-09)
(6.89497e-09 -1.6703e-08 8.98202e-09)
(8.88902e-09 -2.19719e-08 1.20538e-08)
(1.08297e-08 -2.74075e-08 1.5406e-08)
(1.27653e-08 -3.31417e-08 1.91543e-08)
(1.47381e-08 -3.92736e-08 2.33945e-08)
(1.67835e-08 -4.58703e-08 2.8194e-08)
(1.89272e-08 -5.29666e-08 3.35749e-08)
(2.11792e-08 -6.05619e-08 3.94831e-08)
(2.35254e-08 -6.86126e-08 4.57407e-08)
(2.59175e-08 -7.70112e-08 5.19816e-08)
(2.8278e-08 -8.55324e-08 5.75881e-08)
(3.05288e-08 -9.36915e-08 6.17134e-08)
(3.25452e-08 -1.00345e-07 6.36748e-08)
(3.51105e-08 -1.04251e-07 6.44353e-08)
(0 0 0)
(2.70936e-09 -6.17182e-09 3.35873e-09)
(5.14956e-09 -1.18674e-08 6.50588e-09)
(7.395e-09 -1.73635e-08 9.63227e-09)
(9.50868e-09 -2.28857e-08 1.28975e-08)
(1.15452e-08 -2.86185e-08 1.64382e-08)
(1.35527e-08 -3.47112e-08 2.03708e-08)
(1.55737e-08 -4.12821e-08 2.479e-08)
(1.76455e-08 -4.84202e-08 2.97604e-08)
(1.97998e-08 -5.61844e-08 3.52993e-08)
(2.20602e-08 -6.46012e-08 4.13473e-08)
(2.44392e-08 -7.36581e-08 4.77207e-08)
(2.69328e-08 -8.32901e-08 5.40445e-08)
(2.95173e-08 -9.3349e-08 5.9679e-08)
(3.21229e-08 -1.03524e-07 6.37215e-08)
(3.43717e-08 -1.12574e-07 6.5358e-08)
(3.85579e-08 -1.23787e-07 6.38255e-08)
(0 0 0)
(0 0 0)
(0 0 0)
(0 0 0)
(0 0 0)
(0 0 0)
(0 0 0)
(0 0 0)
(0 0 0)
(0 0 0)
(0 0 0)
(0 0 0)
(0 0 0)
(0 0 0)
(0 0 0)
(0 0 0)
(1.87111e-09 1.19883e-09 1.42062e-09)
(0 0 0)
(4.41498e-10 -1.12382e-09 4.25931e-10)
(8.42258e-10 -2.15123e-09 8.27848e-10)
(1.21721e-09 -3.12419e-09 1.23265e-09)
(1.57874e-09 -4.07408e-09 1.66306e-09)
(1.93686e-09 -5.02154e-09 2.13843e-09)
(2.29929e-09 -5.97582e-09 2.67477e-09)
(2.67125e-09 -6.93331e-09 3.28369e-09)
(3.0547e-09 -7.87524e-09 3.96968e-09)
(3.44749e-09 -8.76482e-09 4.72552e-09)
(3.84332e-09 -9.5446e-09 5.52514e-09)
(4.23475e-09 -1.0135e-08 6.31444e-09)
(4.62293e-09 -1.04327e-08 7.00315e-09)
(5.03834e-09 -1.03019e-08 7.46999e-09)
(5.55999e-09 -9.54969e-09 7.6059e-09)
(6.21401e-09 -8.04957e-09 7.42537e-09)
(6.60949e-09 -4.82825e-09 6.62637e-09)
(0 0 0)
(8.7175e-10 -2.2139e-09 8.40797e-10)
(1.6628e-09 -4.23904e-09 1.63392e-09)
(2.40223e-09 -6.15905e-09 2.43219e-09)
(3.11415e-09 -8.03696e-09 3.28021e-09)
(3.81819e-09 -9.91536e-09 4.216e-09)
(4.52942e-09 -1.18153e-08 5.27113e-09)
(5.25763e-09 -1.37336e-08 6.46866e-09)
(6.00529e-09 -1.56392e-08 7.81815e-09)
(6.76439e-09 -1.74683e-08 9.30694e-09)
(7.51289e-09 -1.91215e-08 1.0887e-08)
(8.21277e-09 -2.04676e-08 1.24584e-08)
(8.81431e-09 -2.13625e-08 1.38556e-08)
(9.27479e-09 -2.1693e-08 1.48577e-08)
(9.59568e-09 -2.1454e-08 1.52662e-08)
(9.83686e-09 -2.0876e-08 1.51173e-08)
(1.03949e-08 -2.0671e-08 1.48575e-08)
(0 0 0)
(1.28038e-09 -3.23743e-09 1.23449e-09)
(2.4415e-09 -6.20158e-09 2.39835e-09)
(3.52533e-09 -9.01722e-09 3.56851e-09)
(4.56668e-09 -1.17796e-08 4.80986e-09)
(5.59411e-09 -1.45555e-08 6.17788e-09)
(6.62963e-09 -1.7382e-08 7.7189e-09)
(7.68726e-09 -2.02639e-08 9.46739e-09)
(8.76945e-09 -2.31688e-08 1.14393e-08)
(9.86064e-09 -2.60216e-08 1.36204e-08)
(1.09174e-08 -2.87014e-08 1.59496e-08)
(1.1856e-08 -3.1049e-08 1.82984e-08)
(1.25423e-08 -3.28994e-08 2.04588e-08)
(1.28038e-08 -3.4164e-08 2.21665e-08)
(1.25194e-08 -3.49656e-08 2.32099e-08)
(1.18717e-08 -3.56614e-08 2.36383e-08)
(1.13624e-08 -3.6859e-08 2.38989e-08)
(0 0 0)
(1.65782e-09 -4.1611e-09 1.59776e-09)
(3.15982e-09 -7.9755e-09 3.10286e-09)
(4.55906e-09 -1.16078e-08 4.61369e-09)
(5.89977e-09 -1.51857e-08 6.21321e-09)
(7.21847e-09 -1.8802e-08 7.97245e-09)
(8.54375e-09 -2.25146e-08 9.95108e-09)
(9.89436e-09 -2.63441e-08 1.21943e-08)
(1.12746e-08 -3.02691e-08 1.47254e-08)
(1.26653e-08 -3.42196e-08 1.75321e-08)
(1.40087e-08 -3.80712e-08 2.05477e-08)
(1.51858e-08 -4.1644e-08 2.36294e-08)
(1.59892e-08 -4.47185e-08 2.65468e-08)
(1.61155e-08 -4.70852e-08 2.90139e-08)
(1.52717e-08 -4.8654e-08 3.08044e-08)
(1.36386e-08 -4.9573e-08 3.19035e-08)
(1.18721e-08 -5.05458e-08 3.26981e-08)
(0 0 0)
(1.99608e-09 -4.9523e-09 1.92281e-09)
(3.80223e-09 -9.49831e-09 3.73206e-09)
(5.48052e-09 -1.38399e-08 5.54428e-09)
(7.08284e-09 -1.8136e-08 7.4576e-09)
(8.65252e-09 -2.25063e-08 9.55602e-09)
(1.02243e-08 -2.70329e-08 1.19103e-08)
(1.18226e-08 -3.17588e-08 1.4575e-08)
(1.34573e-08 -3.6684e-08 1.75801e-08)
(1.51149e-08 -4.17591e-08 2.09167e-08)
(1.67428e-08 -4.68752e-08 2.45165e-08)
(1.82251e-08 -5.18494e-08 2.82272e-08)
(1.93487e-08 -5.64026e-08 3.18004e-08)
(1.97779e-08 -6.01263e-08 3.49231e-08)
(1.91199e-08 -6.24763e-08 3.73332e-08)