/*--------------------------------*- C++ -*----------------------------------*\
| =========                 |                                                 |
| \\      /  F ield         | OpenFOAM: The Open Source CFD Toolbox           |
|  \\    /   O peration     | Version:  v1912                                 |
|   \\  /    A nd           | Website:  www.openfoam.com                      |
|    \\/     M anipulation  |                                                 |
\*---------------------------------------------------------------------------*/
FoamFile
{
    version     2.0;
    format      ascii;
    class       volVectorField;
    location    "0.89/fluid";
    object      U;
}
// * * * * * * * * * * * * * * * * * * * * * * * * * * * * * * * * * * * * * //

dimensions      [0 1 -1 0 0 0 0];


internalField   nonuniform List<vector> 
14592
(
(0.0877186 0.0173265 0.000583746)
(0.0718807 0.0119175 0.00103811)
(0.0559684 0.00764445 0.000963489)
(0.046523 0.00390264 0.000460956)
(0.0403876 0.00185956 -0.000397217)
(0.0368599 0.000798386 -0.00150606)
(0.0346426 0.000325222 -0.00283999)
(0.0331656 0.000119556 -0.00442955)
(0.031887 2.56963e-05 -0.00636662)
(0.0307324 -5.58639e-05 -0.00879832)
(0.0292296 -0.000171942 -0.0119688)
(0.0278647 -0.000427586 -0.0161711)
(0.0252474 -0.000813882 -0.0220629)
(0.0232654 -0.00170757 -0.0296637)
(0.0165102 -0.00213914 -0.0394409)
(0.00948705 -0.00495866 -0.0369948)
(0.103948 0.0182407 0.000827285)
(0.103274 0.0184034 0.00157678)
(0.0994743 0.0155325 0.0016443)
(0.094764 0.0110925 0.00102468)
(0.0901912 0.00743824 -0.000272644)
(0.0864894 0.00480111 -0.00213537)
(0.0834448 0.00317839 -0.00450307)
(0.0808684 0.0022876 -0.00739489)
(0.0783236 0.00187014 -0.0109387)
(0.0756875 0.00169913 -0.0153745)
(0.0723136 0.00161254 -0.0210983)
(0.0685153 0.00141045 -0.0286214)
(0.0623181 0.00102163 -0.0388507)
(0.0553794 -0.00015333 -0.0517192)
(0.0397166 -0.00134898 -0.0663183)
(0.0231097 -0.00531592 -0.0601463)
(0.104003 0.0122896 0.000917422)
(0.108477 0.01718 0.00178841)
(0.111481 0.016957 0.00193566)
(0.112001 0.0139975 0.00133488)
(0.111189 0.0107378 -1.91647e-05)
(0.109648 0.00796026 -0.00203228)
(0.107686 0.00603894 -0.00464897)
(0.105457 0.0049212 -0.00788916)
(0.102807 0.00444505 -0.0118839)
(0.0997122 0.00440266 -0.0168946)
(0.0955417 0.00461155 -0.0233503)
(0.0904835 0.00484563 -0.0318476)
(0.0823176 0.00498273 -0.0433627)
(0.0725053 0.00430525 -0.0580684)
(0.0517899 0.00287149 -0.0747736)
(0.0289429 -0.00213794 -0.0691939)
(0.102153 0.00790303 0.000955477)
(0.106978 0.0133967 0.00188953)
(0.112143 0.0147637 0.00208221)
(0.115347 0.0135851 0.00150999)
(0.117022 0.011521 0.000176668)
(0.117362 0.00946967 -0.00182375)
(0.116698 0.00795844 -0.00443801)
(0.115275 0.00712885 -0.00768932)
(0.113074 0.00696204 -0.0117083)
(0.11016 0.00735211 -0.0167629)
(0.105931 0.00818999 -0.0232853)
(0.100536 0.00930562 -0.0319184)
(0.0915984 0.0105895 -0.0436637)
(0.0804676 0.0112598 -0.0589143)
(0.0572315 0.010535 -0.0765195)
(0.0309159 0.00401786 -0.0721693)
(0.101101 0.00510784 0.000983277)
(0.10501 0.00984219 0.00196363)
(0.110124 0.0118387 0.00219693)
(0.114178 0.0118981 0.00166008)
(0.117071 0.0109862 0.000369279)
(0.118631 0.00985059 -0.00157243)
(0.119037 0.0090077 -0.00410557)
(0.118477 0.00869938 -0.00725042)
(0.116961 0.00901815 -0.0111303)
(0.114591 0.00996558 -0.01601)
(0.110785 0.0115237 -0.0223067)
(0.105701 0.013609 -0.0306908)
(0.0968143 0.0161563 -0.042149)
(0.0853875 0.0183064 -0.0573148)
(0.0607834 0.0185124 -0.0750831)
(0.0319351 0.00964499 -0.0720603)
(0.100622 0.00337673 0.00100999)
(0.103696 0.00697852 0.00203389)
(0.108253 0.00896745 0.00231323)
(0.112423 0.00969592 0.00182375)
(0.115855 0.00965493 0.000591464)
(0.11816 0.00936856 -0.00126943)
(0.119363 0.00925643 -0.00368881)
(0.119565 0.00958368 -0.00667864)
(0.118754 0.0105127 -0.0103485)
(0.117042 0.0121518 -0.0149529)
(0.113854 0.014603 -0.0208815)
(0.109358 0.0179629 -0.0288211)
(0.100896 0.0223461 -0.0397121)
(0.0896768 0.0270802 -0.0544647)
(0.0642215 0.0301315 -0.0719838)
(0.0332746 0.0195005 -0.0706228)
(0.100441 0.00216418 0.00104171)
(0.103032 0.00467044 0.00211334)
(0.107154 0.00637159 0.00244745)
(0.111279 0.00738573 0.00201909)
(0.114978 0.00793484 0.000861586)
(0.117771 0.00833623 -0.00089859)
(0.119588 0.00888619 -0.00317682)
(0.120472 0.00982264 -0.00596912)
(0.120407 0.0113328 -0.00935895)
(0.119537 0.0135999 -0.0135702)
(0.117351 0.0168136 -0.01893)
(0.11411 0.0212408 -0.0260847)
(0.107164 0.0271359 -0.035812)
(0.0977976 0.0340911 -0.0492537)
(0.072928 0.0397337 -0.065029)
(0.0409691 0.0270926 -0.0655809)
(0.100382 0.00117193 0.00107851)
(0.102781 0.00263819 0.00220288)
(0.106732 0.00390662 0.00259836)
(0.110879 0.00498263 0.00224068)
(0.11478 0.00592817 0.00116905)
(0.117928 0.00687902 -0.000479055)
(0.120214 0.00800401 -0.00260352)
(0.121659 0.00948895 -0.00518173)
(0.12226 0.0115223 -0.00826742)
(0.122188 0.014358 -0.0120477)
(0.121009 0.0182909 -0.016782)
(0.11906 0.0239164 -0.0230621)
(0.113776 0.0318831 -0.0315004)
(0.106686 0.0435865 -0.0434955)
(0.0832495 0.057714 -0.057573)
(0.0537815 0.0621265 -0.0617263)
(0.0876869 0.0173295 0.00035719)
(0.0716969 0.0119313 0.000621899)
(0.0555472 0.0076571 0.000502309)
(0.0458892 0.0039091 5.12391e-05)
(0.0395556 0.00186344 -0.000694989)
(0.0358429 0.000802337 -0.00166872)
(0.0334204 0.000332169 -0.00286011)
(0.0316886 0.000130346 -0.00429559)
(0.0300774 4.13888e-05 -0.00605213)
(0.02847 -3.35943e-05 -0.00821984)
(0.0263956 -0.000135018 -0.0109825)
(0.0242114 -0.000358428 -0.0143901)
(0.0207701 -0.000671931 -0.0188475)
(0.0173143 -0.00141852 -0.0233023)
(0.0105954 -0.00180764 -0.0274227)
(0.00272652 -0.00364697 -0.0181314)
(0.103904 0.0182559 0.000506176)
(0.103015 0.0184435 0.000939685)
(0.0988617 0.0155845 0.00086412)
(0.0937704 0.011143 0.000250428)
(0.088802 0.00748758 -0.000917693)
(0.0847036 0.00485603 -0.00257627)
(0.0812284 0.00325042 -0.00469914)
(0.0781403 0.00238671 -0.00731516)
(0.0749459 0.00200594 -0.0105381)
(0.0714458 0.00187924 -0.0145333)
(0.0669558 0.00185166 -0.019599)
(0.0616237 0.00172111 -0.0259136)
(0.0537173 0.00143134 -0.033989)
(0.0442678 0.0003701 -0.0423211)
(0.0281384 -0.000887711 -0.0488466)
(0.0102024 -0.00433013 -0.0315038)
(0.103963 0.0123149 0.000568711)
(0.108213 0.0172414 0.00107655)
(0.110845 0.0170474 0.00104091)
(0.110949 0.0141028 0.000419994)
(0.109686 0.0108555 -0.000814816)
(0.107681 0.00809814 -0.00261543)
(0.10521 0.0062141 -0.00496373)
(0.102383 0.00515329 -0.00789411)
(0.0989805 0.00475608 -0.0115262)
(0.0948963 0.00481182 -0.0160469)
(0.0894389 0.00514564 -0.0217767)
(0.0826256 0.00551545 -0.028955)
(0.0724484 0.00580609 -0.0381098)
(0.0597355 0.0052115 -0.0477442)
(0.038288 0.00362054 -0.0552721)
(0.0139525 -0.00163459 -0.0357449)
(0.102116 0.00792975 0.00060181)
(0.106719 0.013464 0.00115493)
(0.111516 0.0148722 0.00115057)
(0.114308 0.0137269 0.000549695)
(0.115534 0.0116958 -0.000669093)
(0.115408 0.00968756 -0.00245794)
(0.114231 0.00824143 -0.00480192)
(0.112203 0.0075059 -0.00773926)
(0.109245 0.00746974 -0.0113896)
(0.105334 0.00802847 -0.0159466)
(0.0997967 0.00908691 -0.0217299)
(0.0926134 0.0104562 -0.0290129)
(0.0815817 0.0120438 -0.0383208)
(0.067422 0.0129002 -0.0482532)
(0.0433075 0.0120624 -0.0561295)
(0.0153149 0.00457377 -0.0364174)
(0.101066 0.00513687 0.000631694)
(0.104757 0.00991577 0.00122611)
(0.109509 0.0119631 0.0012584)
(0.113163 0.0120722 0.000691412)
(0.115626 0.0112133 -0.000485841)
(0.116743 0.0101438 -0.00221773)
(0.116662 0.00939346 -0.00448464)
(0.115531 0.00921537 -0.00732167)
(0.113296 0.0097156 -0.0108412)
(0.109979 0.0109033 -0.0152346)
(0.104918 0.0127838 -0.0208062)
(0.0981063 0.0152561 -0.0278532)
(0.0871475 0.0182907 -0.0368757)
(0.072696 0.0207853 -0.0466402)
(0.0470676 0.0209963 -0.0544659)
(0.0162724 0.0104536 -0.0353558)
(0.100588 0.0034086 0.000661709)
(0.103447 0.00705904 0.00129929)
(0.107649 0.00910622 0.00137678)
(0.111435 0.00989754 0.00085692)
(0.114459 0.00992685 -0.000262572)
(0.116352 0.00972749 -0.00191634)
(0.117107 0.009734 -0.00407579)
(0.116786 0.010227 -0.00676776)
(0.115314 0.0113896 -0.0100915)
(0.112731 0.0133479 -0.0142304)
(0.108371 0.0162443 -0.0194633)
(0.10226 0.0201741 -0.0261069)
(0.0917979 0.0253327 -0.0346162)
(0.077647 0.0307487 -0.0439878)
(0.0510312 0.034249 -0.0515647)
(0.0178365 0.021256 -0.0336073)
(0.100408 0.00220026 0.000695752)
(0.102788 0.00475978 0.00138146)
(0.106565 0.00652493 0.00151323)
(0.110321 0.00761129 0.00105354)
(0.113638 0.00824336 7.22879e-06)
(0.116055 0.00874771 -0.00155038)
(0.117471 0.00943643 -0.00357747)
(0.117895 0.0105662 -0.00608621)
(0.117255 0.0123508 -0.00915308)
(0.115633 0.0150006 -0.0129389)
(0.112429 0.018759 -0.0176725)
(0.1078 0.0239105 -0.0236613)
(0.0990766 0.0308268 -0.031249)
(0.0871456 0.0387678 -0.03972)
(0.0610043 0.0452871 -0.0463861)
(0.0266219 0.0296216 -0.0303452)
(0.10035 0.001212 0.000733109)
(0.102543 0.00273534 0.00147109)
(0.106159 0.00407176 0.00166303)
(0.109954 0.00522583 0.00127217)
(0.113501 0.00626212 0.000309215)
(0.11631 0.0073264 -0.00114178)
(0.118244 0.00860357 -0.00302452)
(0.119298 0.0103009 -0.00533397)
(0.119415 0.0126385 -0.00812081)
(0.118719 0.015909 -0.0115182)
(0.116691 0.0204767 -0.0157006)
(0.113606 0.0269954 -0.020957)
(0.106803 0.0362846 -0.0275145)
(0.0976127 0.0494927 -0.0349915)
(0.0728964 0.0654212 -0.0407831)
(0.0410843 0.0663092 -0.0278003)
(0.0876628 0.0173323 0.000202)
(0.071556 0.0119429 0.000336419)
(0.0552154 0.00766816 0.000190536)
(0.0453701 0.00391543 -0.00021041)
(0.0388482 0.00186672 -0.000849804)
(0.0349481 0.000805136 -0.00168418)
(0.0323144 0.000336881 -0.00271388)
(0.0303206 0.000137248 -0.00396042)
(0.0283731 5.04454e-05 -0.00548682)
(0.0263052 -2.25615e-05 -0.007346)
(0.0236556 -0.000119347 -0.00968163)
(0.0206418 -0.000329029 -0.0124542)
(0.0163957 -0.000617025 -0.0159656)
(0.0117218 -0.00128901 -0.0191512)
(0.00549317 -0.00177501 -0.0216499)
(-0.000985923 -0.00317688 -0.0141788)
(0.103871 0.018271 0.000285939)
(0.102816 0.0184811 0.000503445)
(0.0983783 0.0156346 0.000337692)
(0.092958 0.0111947 -0.000248446)
(0.0876273 0.00753935 -0.0012795)
(0.0831452 0.00491292 -0.00272007)
(0.079243 0.00332248 -0.0045648)
(0.0756462 0.00248275 -0.00684416)
(0.0718171 0.00213486 -0.00965451)
(0.0674812 0.00204797 -0.0131065)
(0.0619415 0.00207226 -0.0174249)
(0.0551879 0.00200286 -0.0226389)
(0.0458211 0.00178622 -0.0290805)
(0.0344813 0.000802343 -0.0351744)
(0.0188559 -0.000585155 -0.0389265)
(0.00292061 -0.00384387 -0.0242899)
(0.103932 0.012341 0.000327825)
(0.108011 0.0173021 0.000586646)
(0.110345 0.0171371 0.000433486)
(0.110091 0.0142102 -0.000176761)
(0.108421 0.0109768 -0.00127823)
(0.105971 0.00823889 -0.00284963)
(0.103001 0.00638925 -0.00489397)
(0.0995828 0.00538058 -0.00744962)
(0.0954494 0.00505643 -0.01062)
(0.0904131 0.00520361 -0.0145353)
(0.0837521 0.0056542 -0.0194356)
(0.075325 0.00615025 -0.0253959)
(0.0634295 0.00657888 -0.0327377)
(0.0485186 0.00605128 -0.0398385)
(0.0274144 0.00429658 -0.0441718)
(0.00522733 -0.00126822 -0.0274202)
(0.102088 0.00795858 0.000355507)
(0.106523 0.013533 0.000645793)
(0.111027 0.0149822 0.000512792)
(0.113465 0.0138715 -8.4373e-05)
(0.114287 0.0118733 -0.00117404)
(0.113715 0.00990608 -0.00273586)
(0.112034 0.00852029 -0.00477579)
(0.109411 0.00787125 -0.00733656)
(0.105714 0.00795557 -0.0105221)
(0.100842 0.00866965 -0.0144699)
(0.0940771 0.00993081 -0.0194183)
(0.0852412 0.0115298 -0.0254716)
(0.0724008 0.0133878 -0.032941)
(0.0559088 0.0144038 -0.0402712)
(0.0319858 0.0134728 -0.0448133)
(0.00608545 0.00517727 -0.0278374)
(0.10104 0.00516816 0.000384517)
(0.104566 0.00999169 0.000710271)
(0.109033 0.012089 0.000608717)
(0.112345 0.0122472 4.22623e-05)
(0.114421 0.0114399 -0.00100901)
(0.115113 0.010433 -0.00251882)
(0.114553 0.00976892 -0.00448898)
(0.112856 0.00971134 -0.00695985)
(0.109918 0.0103796 -0.010029)
(0.105683 0.0117888 -0.0138332)
(0.0994342 0.013966 -0.0185977)
(0.0910144 0.0167897 -0.0244501)
(0.0782426 0.020264 -0.0316803)
(0.0614308 0.023068 -0.038875)
(0.0358312 0.023337 -0.0433795)
(0.00693596 0.0115307 -0.0269381)
(0.100563 0.003442 0.000414609)
(0.103261 0.00714073 0.000780582)
(0.107185 0.00924448 0.000720702)
(0.110643 0.0100965 0.000198439)
(0.1133 0.010193 -0.000799)
(0.114797 0.0100761 -0.00223732)
(0.115108 0.0101935 -0.00411038)
(0.114265 0.0108404 -0.00645152)
(0.112144 0.0122198 -0.00934672)
(0.108712 0.0144727 -0.0129272)
(0.103239 0.0177784 -0.0173969)
(0.0956114 0.0222247 -0.0229051)
(0.0833828 0.0280819 -0.0297063)
(0.0669247 0.0341095 -0.0365906)
(0.0401701 0.0380887 -0.0409417)
(0.00859739 0.0234499 -0.0255212)
(0.100384 0.00223655 0.000448061)
(0.102607 0.00484794 0.000859568)
(0.106115 0.00667446 0.000850346)
(0.109559 0.00782951 0.000384132)
(0.112532 0.00854057 -0.000545885)
(0.114586 0.00914238 -0.00189659)
(0.115602 0.00996132 -0.00365085)
(0.115564 0.0112718 -0.00582959)
(0.11435 0.0133127 -0.00849967)
(0.111986 0.0163183 -0.0117762)
(0.107802 0.0205828 -0.0158244)
(0.101851 0.0264004 -0.0207988)
(0.0915275 0.0342559 -0.0268764)
(0.0775509 0.0431181 -0.0331174)
(0.0510814 0.0505797 -0.0369528)
(0.0179369 0.032973 -0.023202)
(0.100326 0.00125074 0.000483668)
(0.102368 0.00282852 0.000944211)
(0.105724 0.00422937 0.000990979)
(0.109224 0.00545702 0.000588346)
(0.112451 0.00657947 -0.000265417)
(0.114932 0.0077509 -0.00151902)
(0.116514 0.00917129 -0.00314352)
(0.117169 0.0110682 -0.00514507)
(0.116798 0.0136914 -0.00756877)
(0.115482 0.0173685 -0.0105093)
(0.112629 0.0225303 -0.0140886)
(0.108452 0.0298777 -0.018459)
(0.100275 0.0404027 -0.0237151)
(0.0894127 0.055036 -0.0292241)
(0.0642548 0.0729007 -0.032569)
(0.0335275 0.0720122 -0.021301)
(0.0876446 0.017335 0.000100552)
(0.0714484 0.0119525 0.000151703)
(0.0549573 0.00767782 -1.55218e-09)
(0.0449575 0.00392132 -0.00034401)
(0.0382758 0.00187005 -0.000873568)
(0.0342168 0.000808575 -0.00156028)
(0.0314116 0.000342926 -0.00240775)
(0.0292202 0.000147075 -0.00342914)
(0.0270468 6.56291e-05 -0.00466696)
(0.0247041 1.01822e-06 -0.00613647)
(0.0217839 -7.96816e-05 -0.00792054)
(0.0184434 -0.000253214 -0.00990445)
(0.0140824 -0.000474818 -0.0122286)
(0.00928189 -0.000987872 -0.0139292)
(0.00380806 -0.00136649 -0.0145497)
(-0.00135359 -0.00244565 -0.00856668)
(0.103845 0.0182848 0.000141891)
(0.102663 0.0185144 0.000221949)
(0.0980004 0.0156797 1.54322e-05)
(0.0923106 0.0112426 -0.000513318)
(0.0866732 0.00758828 -0.00138891)
(0.0818633 0.00496733 -0.00259066)
(0.0776032 0.00339125 -0.00412153)
(0.0735997 0.00257462 -0.00600481)
(0.0693025 0.00225995 -0.00830915)
(0.0644053 0.0022172 -0.0110883)
(0.058263 0.00230552 -0.0144734)
(0.0508149 0.00232906 -0.0183683)
(0.0410183 0.00225362 -0.0228781)
(0.0293695 0.00149451 -0.0265358)
(0.0149871 0.000285138 -0.0274951)
(0.00136478 -0.00278302 -0.0155213)
(0.103909 0.0123655 0.000168777)
(0.107856 0.0173576 0.000268365)
(0.109956 0.0172193 5.78232e-05)
(0.109408 0.0143096 -0.000503194)
(0.107394 0.01109 -0.00144684)
(0.104564 0.00837036 -0.00276387)
(0.101173 0.00655176 -0.00446518)
(0.0972761 0.00559024 -0.0065823)
(0.0925908 0.00533362 -0.00919062)
(0.0868968 0.00556904 -0.0123604)
(0.0795146 0.00613977 -0.0162314)
(0.0702633 0.00678625 -0.0207366)
(0.0577964 0.00741704 -0.0259508)
(0.042476 0.00711487 -0.0303186)
(0.0226862 0.00551426 -0.0314732)
(0.00321417 -0.000172933 -0.0175734)
(0.102067 0.00798633 0.000190991)
(0.106373 0.0135978 0.00031163)
(0.110648 0.0150845 0.000113137)
(0.112797 0.0140058 -0.000440148)
(0.113277 0.0120383 -0.00137571)
(0.112324 0.0101079 -0.00268555)
(0.11022 0.00877529 -0.00438346)
(0.107113 0.00820201 -0.0065052)
(0.102858 0.00839237 -0.00912708)
(0.0973211 0.00924464 -0.012326)
(0.0898211 0.0106897 -0.0162391)
(0.0801452 0.0125078 -0.020821)
(0.0666983 0.0146431 -0.0261294)
(0.0497643 0.0159013 -0.0306413)
(0.0271235 0.0150917 -0.0318479)
(0.0040045 0.00628828 -0.0176605)
(0.101021 0.00519833 0.000216996)
(0.104421 0.0100633 0.000366817)
(0.108665 0.0122061 0.000194091)
(0.111699 0.0124093 -0.000333133)
(0.113448 0.0116485 -0.00123526)
(0.113777 0.010697 -0.00250014)
(0.112814 0.0101081 -0.00413834)
(0.110659 0.0101541 -0.006184)
(0.107192 0.0109659 -0.00870827)
(0.102329 0.0125629 -0.0117883)
(0.095381 0.01499 -0.0155507)
(0.0861637 0.0181089 -0.0199694)
(0.0728005 0.0219532 -0.0250831)
(0.0555584 0.0250491 -0.0294737)
(0.0311599 0.0254585 -0.0306218)
(0.00496006 0.0128287 -0.0168391)
(0.100544 0.00347379 0.00024463)
(0.103121 0.00721716 0.000429717)
(0.106829 0.0093722 0.000293177)
(0.11002 0.010279 -0.000195405)
(0.112368 0.0104355 -0.00105021)
(0.113527 0.0103906 -0.00225316)
(0.113465 0.0106034 -0.0038083)
(0.112201 0.0113806 -0.00574424)
(0.109594 0.0129403 -0.00812283)
(0.105588 0.015432 -0.0110177)
(0.0994725 0.0190603 -0.0145396)
(0.0911178 0.0238957 -0.0186824)
(0.078335 0.0302528 -0.0234607)
(0.0614869 0.0366848 -0.0276153)
(0.0358304 0.040927 -0.0286786)
(0.0067811 0.0252006 -0.015714)
(0.100366 0.0022703 0.000275069)
(0.102472 0.00492911 0.000500603)
(0.105771 0.00681093 0.000408533)
(0.108962 0.00802751 -3.09317e-05)
(0.111646 0.00880836 -0.000826949)
(0.113389 0.00949476 -0.00195465)
(0.114068 0.010425 -0.00340904)
(0.113656 0.0118866 -0.00520924)
(0.112015 0.0141368 -0.0074026)
(0.109154 0.017423 -0.010053)
(0.104413 0.0220704 -0.0132449)
(0.0978477 0.0283603 -0.0169869)
(0.0870448 0.0368339 -0.0212521)
(0.0727752 0.0462229 -0.025005)
(0.0472488 0.0540993 -0.0258877)
(0.0163393 0.0352256 -0.0142692)
(0.100309 0.00128589 0.000306897)
(0.102237 0.00291275 0.000575799)
(0.105394 0.00437122 0.000532884)
(0.108656 0.0056642 0.000149093)
(0.111614 0.00686222 -0.000580755)
(0.113813 0.00812637 -0.00162535)
(0.115096 0.0096683 -0.00296979)
(0.115427 0.0117304 -0.00462193)
(0.114693 0.014583 -0.00661268)
(0.112964 0.0185717 -0.00899306)
(0.109652 0.0241638 -0.011819)
(0.104991 0.0320582 -0.0151098)
(0.0964305 0.0433147 -0.0187979)
(0.0854084 0.0586132 -0.0221042)
(0.0610647 0.0771173 -0.0228813)
(0.0322991 0.0747669 -0.0131749)
(0.0876304 0.0173371 3.92183e-05)
(0.0713659 0.0119601 4.31616e-05)
(0.0547574 0.00768537 -9.59213e-05)
(0.0446323 0.00392563 -0.00037514)
(0.0378177 0.00187208 -0.000792439)
(0.0336229 0.0008103 -0.00133001)
(0.0306708 0.00034611 -0.00199266)
(0.028311 0.000152292 -0.00278888)
(0.0259485 7.34173e-05 -0.00374807)
(0.0233802 1.25467e-05 -0.00487078)
(0.0202441 -6.07073e-05 -0.00620909)
(0.0166576 -0.000215377 -0.00765201)
(0.0122285 -0.000402416 -0.00927594)
(0.00741527 -0.000827302 -0.0103662)
(0.00258263 -0.0011481 -0.010524)
(-0.0015326 -0.00209373 -0.00622288)
(0.103825 0.0182965 5.48399e-05)
(0.102545 0.018542 5.76311e-05)
(0.0977068 0.0157175 -0.000147987)
(0.0918002 0.011283 -0.000592164)
(0.0859104 0.00762987 -0.00129544)
(0.080825 0.00501348 -0.00224631)
(0.0762624 0.00344899 -0.00345109)
(0.0719168 0.00265094 -0.00492758)
(0.0672328 0.00236299 -0.00672479)
(0.0618828 0.00235547 -0.00886837)
(0.0552733 0.00249434 -0.011438)
(0.0473191 0.00258989 -0.0143191)
(0.0372647 0.0026217 -0.0175333)
(0.025561 0.00202249 -0.0199542)
(0.012292 0.000933868 -0.020115)
(0.0005761 -0.00211229 -0.0112738)
(0.10389 0.0123867 7.12042e-05)
(0.107737 0.0174049 8.04701e-05)
(0.109653 0.0172893 -0.000137211)
(0.10887 0.0143947 -0.000614415)
(0.106574 0.0111875 -0.00137742)
(0.103425 0.00848345 -0.00242356)
(0.0996789 0.00669088 -0.00376584)
(0.0953797 0.00576862 -0.00542942)
(0.0902375 0.00556833 -0.00746917)
(0.0840111 0.00587739 -0.00992378)
(0.0760667 0.00654828 -0.0128777)
(0.0662098 0.00731985 -0.0162352)
(0.0533856 0.00811818 -0.0199847)
(0.0379612 0.00799795 -0.0229144)
(0.0193818 0.0065152 -0.0231287)
(0.00217044 0.000643538 -0.012783)
(0.102051 0.00801078 8.8105e-05)
(0.106258 0.0136541 0.000110813)
(0.110354 0.0151728 -0.00010036)
(0.112271 0.0141219 -0.000573449)
(0.112472 0.0121808 -0.00133131)
(0.1112 0.0102818 -0.00237248)
(0.108738 0.00899375 -0.00371255)
(0.105224 0.00848361 -0.00538047)
(0.100505 0.00876217 -0.00743219)
(0.0944293 0.00972899 -0.0099122)
(0.086353 0.0113258 -0.0129031)
(0.0760561 0.0133237 -0.0163257)
(0.0622207 0.015685 -0.0201531)
(0.0451589 0.0171394 -0.0231926)
(0.0237105 0.0164304 -0.0234244)
(0.00292271 0.00718761 -0.0128434)
(0.101006 0.00522508 0.000109619)
(0.104311 0.010126 0.000155026)
(0.108381 0.0123078 -3.62002e-05)
(0.111193 0.0125495 -0.000488484)
(0.112674 0.0118286 -0.00121926)
(0.112699 0.010924 -0.00222406)
(0.111396 0.010398 -0.00351624)
(0.108855 0.0105306 -0.00512372)
(0.104947 0.0114616 -0.00709868)
(0.0995728 0.0132139 -0.00948647)
(0.0920749 0.0158462 -0.0123622)
(0.0822659 0.0192058 -0.0156627)
(0.0685198 0.0233484 -0.0193481)
(0.0511514 0.026681 -0.0223039)
(0.0278787 0.0272109 -0.0225036)
(0.00395532 0.0139378 -0.0122382)
(0.100529 0.00350186 0.000132903)
(0.103015 0.0072839 0.000207123)
(0.106555 0.00948289 4.53018e-05)
(0.109534 0.0104364 -0.000375377)
(0.111629 0.0106439 -0.00106749)
(0.112504 0.0106597 -0.00202203)
(0.112126 0.0109526 -0.00324746)
(0.110506 0.0118383 -0.00476753)
(0.107494 0.0135472 -0.00662739)
(0.103021 0.0162353 -0.00887036)
(0.0963996 0.0201258 -0.0115602)
(0.0875054 0.025274 -0.0146506)
(0.0743636 0.0320252 -0.0180873)
(0.0574104 0.0387754 -0.0208758)
(0.0327911 0.0432234 -0.0210407)
(0.00589067 0.0266972 -0.011405)
(0.100352 0.00229975 0.000158449)
(0.102369 0.00499938 0.000266066)
(0.105508 0.0069284 0.000140697)
(0.108498 0.0081973 -0.000239823)
(0.110945 0.00903731 -0.000884073)
(0.112428 0.00979507 -0.00177789)
(0.11282 0.0108186 -0.00292282)
(0.11209 0.0124063 -0.0043356)
(0.110092 0.0148299 -0.0060507)
(0.106823 0.0183467 -0.00810535)
(0.101642 0.0233053 -0.0105459)
(0.0946179 0.0299746 -0.0133405)
(0.0835033 0.0389348 -0.0164129)
(0.0691793 0.0487402 -0.0189359)
(0.0445609 0.0569404 -0.019045)
(0.0155841 0.0371781 -0.0104096)
(0.100296 0.00131612 0.00018488)
(0.102139 0.00298491 0.000328237)
(0.105143 0.00449234 0.000243177)
(0.108215 0.00584077 -9.19116e-05)
(0.110955 0.00710271 -0.000682336)
(0.112918 0.00844494 -0.00150917)
(0.113946 0.0100889 -0.00256624)
(0.114 0.0122888 -0.00386187)
(0.11296 0.0153313 -0.00541834)
(0.110891 0.0195758 -0.00726449)
(0.107214 0.0255168 -0.00942724)
(0.102194 0.0338491 -0.0118869)
(0.0933911 0.0456786 -0.0145466)
(0.0823943 0.0615021 -0.0167697)
(0.0588415 0.0805057 -0.0168838)
(0.0317823 0.0772488 -0.0096371)
(0.0876202 0.0173387 7.85663e-06)
(0.0713067 0.011966 -8.0088e-06)
(0.0546128 0.00769111 -0.000118554)
(0.0443953 0.00392909 -0.000324125)
(0.0374822 0.00187397 -0.000624281)
(0.0331881 0.000812246 -0.00100792)
(0.0301322 0.000349722 -0.00147855)
(0.02766 0.000158506 -0.00203989)
(0.0251824 8.34136e-05 -0.00270851)
(0.0224908 2.84472e-05 -0.00347559)
(0.0192634 -3.42814e-05 -0.00436555)
(0.0155981 -0.000167765 -0.00528402)
(0.0112272 -0.000318785 -0.0062577)
(0.00653356 -0.00067314 -0.00680959)
(0.00208114 -0.000931397 -0.00663613)
(-0.0014832 -0.00181723 -0.00376112)
(0.103811 0.0183057 1.04095e-05)
(0.10246 0.0185635 -1.86064e-05)
(0.0974936 0.0157467 -0.000189356)
(0.0914264 0.0113147 -0.000524151)
(0.0853485 0.00766292 -0.00103764)
(0.0800584 0.00505051 -0.00172304)
(0.0752753 0.00349557 -0.00258556)
(0.0706891 0.00271297 -0.00363585)
(0.0657487 0.00244765 -0.00490327)
(0.0601208 0.00247091 -0.00639319)
(0.0532603 0.00265483 -0.00814267)
(0.0450803 0.00281555 -0.0100435)
(0.0350078 0.00294478 -0.0120661)
(0.0234781 0.00248299 -0.0134327)
(0.0109516 0.00151089 -0.0130882)
(0.000379339 -0.00156572 -0.00705616)
(0.103877 0.0124035 1.97063e-05)
(0.107651 0.0174421 -9.28765e-06)
(0.109433 0.0173441 -0.000193431)
(0.108476 0.0144616 -0.000556116)
(0.105969 0.0112643 -0.00111609)
(0.102583 0.00857287 -0.00187277)
(0.0985759 0.00680078 -0.00283643)
(0.0939898 0.00590947 -0.00402339)
(0.088538 0.00575386 -0.0054675)
(0.081975 0.00612216 -0.0071833)
(0.0737129 0.00687483 -0.00921003)
(0.0635661 0.00775128 -0.0114497)
(0.05067 0.00869291 -0.0138438)
(0.0354156 0.00873374 -0.0155423)
(0.0176839 0.00737092 -0.0151755)
(0.00186352 0.00132655 -0.00805437)
(0.102039 0.00803033 3.15347e-05)
(0.106176 0.0136987 1.05849e-05)
(0.110141 0.0152425 -0.000170471)
(0.111887 0.0142134 -0.000531309)
(0.111879 0.0122931 -0.00108831)
(0.11037 0.0104186 -0.00184192)
(0.107644 0.00916494 -0.00280448)
(0.103839 0.00870326 -0.00399525)
(0.0988059 0.0090494 -0.00544911)
(0.0923876 0.0101041 -0.007185)
(0.0839839 0.0118177 -0.00924082)
(0.0733884 0.0139554 -0.0115297)
(0.0594651 0.0164941 -0.0139805)
(0.0425681 0.0181105 -0.0157516)
(0.0219656 0.0174985 -0.0153782)
(0.00261815 0.00791993 -0.00807424)
(0.100995 0.00524653 4.75364e-05)
(0.104232 0.0101758 4.27615e-05)
(0.108176 0.0123883 -0.00012416)
(0.110824 0.0126601 -0.000469933)
(0.112105 0.0119701 -0.00100708)
(0.111904 0.0111017 -0.00173407)
(0.11035 0.0106238 -0.00266184)
(0.107533 0.0108216 -0.00380909)
(0.103328 0.0118422 -0.00520818)
(0.0976315 0.01371 -0.00687905)
(0.0898247 0.0164936 -0.00885472)
(0.0797381 0.0200296 -0.0110597)
(0.0659095 0.024389 -0.0134148)
(0.048709 0.0278973 -0.0151305)
(0.0262378 0.0285195 -0.0147387)
(0.00371503 0.0147833 -0.00765451)
(0.100519 0.00352428 6.50763e-05)
(0.102939 0.00733689 8.15767e-05)
(0.106358 0.00957031 -6.37456e-05)
(0.10918 0.0105601 -0.000386184)
(0.111087 0.0108071 -0.000894778)
(0.11175 0.0108694 -0.0015849)
(0.11114 0.0112227 -0.00246409)
(0.109267 0.0121892 -0.00354827)
(0.105983 0.0140078 -0.00486498)
(0.101218 0.0168378 -0.00643317)
(0.0943178 0.0209141 -0.0082787)
(0.0851801 0.0262782 -0.0103386)
(0.0719705 0.0332926 -0.012526)
(0.0551951 0.0402477 -0.0141334)
(0.031316 0.0448074 -0.0137362)
(0.00573043 0.0277282 -0.00709388)
(0.100342 0.00232309 8.4284e-05)
(0.102297 0.00505486 0.000125632)
(0.10532 0.00702077 7.27744e-06)
(0.108161 0.00833028 -0.000285492)
(0.110432 0.00921581 -0.00075888)
(0.11172 0.0100278 -0.00140468)
(0.111902 0.0111213 -0.00222566)
(0.110946 0.0128021 -0.00323306)
(0.108707 0.0153514 -0.0044474)
(0.105186 0.0190317 -0.00588439)
(0.0997659 0.0242046 -0.00755958)
(0.0925446 0.0311259 -0.00942234)
(0.0813825 0.0403939 -0.0113769)
(0.0672499 0.0504452 -0.0128286)
(0.0432884 0.0587971 -0.0124475)
(0.0154981 0.03844 -0.00649164)
(0.100287 0.00133985 0.00010403)
(0.10207 0.00304148 0.000171942)
(0.104964 0.00458703 8.34751e-05)
(0.107896 0.00597834 -0.000175739)
(0.110474 0.0072893 -0.000609631)
(0.11226 0.00869068 -0.00120663)
(0.1131 0.0104107 -0.00196417)
(0.112958 0.0127116 -0.00288783)
(0.111711 0.0158902 -0.00399017)
(0.109434 0.0203129 -0.00528222)
(0.105564 0.0264882 -0.00676829)
(0.100399 0.0351 -0.00840884)
(0.0915803 0.0472718 -0.0101018)
(0.0807983 0.063378 -0.0113811)
(0.0578269 0.082582 -0.0110707)
(0.031809 0.0787562 -0.00605291)
(0.0876134 0.0173397 -3.1115e-06)
(0.0712676 0.0119698 -2.08292e-05)
(0.0545172 0.00769481 -9.11568e-05)
(0.0442376 0.00393123 -0.000217702)
(0.0372576 0.00187493 -0.000399033)
(0.0328952 0.00081306 -0.000629926)
(0.0297678 0.00035137 -0.000912449)
(0.0272183 0.000161463 -0.00124851)
(0.0246621 8.82052e-05 -0.00164713)
(0.0218878 3.60449e-05 -0.00210097)
(0.0186002 -2.15429e-05 -0.0026222)
(0.0148876 -0.000144195 -0.00315236)
(0.0105595 -0.000276634 -0.00370187)
(0.0059593 -0.000594832 -0.00399945)
(0.00176206 -0.00082503 -0.00385712)
(-0.00145984 -0.00168383 -0.00219563)
(0.103801 0.0183119 -5.44265e-06)
(0.102404 0.0185781 -3.51371e-05)
(0.0973525 0.0157665 -0.000147239)
(0.0911777 0.0113363 -0.000355789)
(0.0849725 0.00768542 -0.000669082)
(0.0795426 0.00507567 -0.00108402)
(0.0746084 0.0035271 -0.00160413)
(0.069858 0.00275482 -0.00223566)
(0.0647441 0.00250459 -0.00299514)
(0.0589313 0.00254828 -0.00388271)
(0.0519083 0.00276188 -0.00491611)
(0.0435921 0.00296493 -0.00602529)
(0.0335258 0.00315644 -0.00718224)
(0.0221456 0.00277822 -0.0079334)
(0.0101233 0.0018705 -0.00764511)
(0.000272368 -0.00124578 -0.00411606)
(0.103868 0.012415 -6.00477e-07)
(0.107594 0.0174675 -3.23034e-05)
(0.109287 0.0173816 -0.000154612)
(0.108213 0.0145076 -0.000381461)
(0.105564 0.0113172 -0.000724263)
(0.102016 0.00863445 -0.00118328)
(0.0978306 0.0068764 -0.00176532)
(0.0930485 0.00600623 -0.00248016)
(0.0873867 0.00588114 -0.00334718)
(0.080599 0.0062899 -0.00437205)
(0.0721295 0.00709823 -0.00557354)
(0.0618047 0.00804568 -0.0068869)
(0.0488822 0.0090833 -0.00826532)
(0.0337806 0.00922876 -0.00920851)
(0.0166295 0.00793864 -0.00889199)
(0.00168925 0.00175766 -0.00470395)
(0.102031 0.00804391 6.31475e-06)
(0.106121 0.0137295 -2.10203e-05)
(0.11 0.0152906 -0.000142161)
(0.111631 0.0142767 -0.000368305)
(0.111482 0.0123707 -0.000709635)
(0.109811 0.0105131 -0.00116699)
(0.106905 0.00928295 -0.00174855)
(0.102901 0.00885437 -0.00246594)
(0.097654 0.0092466 -0.00333927)
(0.0910064 0.0103612 -0.00437698)
(0.0823882 0.0121538 -0.0055972)
(0.0716077 0.014386 -0.00694166)
(0.0576466 0.0170434 -0.00835616)
(0.0408992 0.0187666 -0.00934367)
(0.0208784 0.0182148 -0.00902119)
(0.0024456 0.00840144 -0.0047191)
(0.100988 0.00526149 1.61689e-05)
(0.10418 0.0102104 -1.51557e-06)
(0.108041 0.012444 -0.000114246)
(0.110578 0.0127366 -0.000331265)
(0.111724 0.012068 -0.000660479)
(0.11137 0.0112245 -0.00110157)
(0.109644 0.0107794 -0.001662)
(0.106639 0.0110219 -0.00235306)
(0.10223 0.0121034 -0.00319349)
(0.0963176 0.0140497 -0.00419241)
(0.0883079 0.0169357 -0.00536538)
(0.0780487 0.0205908 -0.00666102)
(0.0641843 0.0250948 -0.00802107)
(0.0471334 0.02872 -0.0089786)
(0.025214 0.0294009 -0.00865008)
(0.00358102 0.0153523 -0.00447916)
(0.100512 0.00353994 2.70494e-05)
(0.102889 0.00737372 2.24073e-05)
(0.106228 0.00963089 -7.70872e-05)
(0.108945 0.0106458 -0.000279809)
(0.110725 0.0109199 -0.000591506)
(0.111244 0.0110141 -0.00101005)
(0.110475 0.0114087 -0.00154091)
(0.108428 0.0124303 -0.00219374)
(0.104958 0.0143236 -0.00298446)
(0.099998 0.0172497 -0.0039217)
(0.0929142 0.0214508 -0.00501704)
(0.0836258 0.0269595 -0.0062265)
(0.0703887 0.0341477 -0.00748866)
(0.0537669 0.041238 -0.00838388)
(0.0303977 0.0458678 -0.00805813)
(0.00564706 0.0284255 -0.00415028)
(0.100336 0.00233934 3.89594e-05)
(0.102249 0.00509332 4.96108e-05)
(0.105195 0.00708467 -3.33086e-05)