/*--------------------------------*- C++ -*----------------------------------*\
| =========                 |                                                 |
| \\      /  F ield         | OpenFOAM: The Open Source CFD Toolbox           |
|  \\    /   O peration     | Version:  v1912                                 |
|   \\  /    A nd           | Website:  www.openfoam.com                      |
|    \\/     M anipulation  |                                                 |
\*---------------------------------------------------------------------------*/
FoamFile
{
    version     2.0;
    format      ascii;
    class       volVectorField;
    location    "0.97/fluid";
    object      cellMotionU;
}
// * * * * * * * * * * * * * * * * * * * * * * * * * * * * * * * * * * * * * //

dimensions      [0 1 -1 0 0 0 0];


internalField   nonuniform List<vector> 
14592
(
(1.02636e-10 -2.65837e-10 2.03278e-10)
(2.87108e-10 -7.43181e-10 5.75643e-10)
(4.5949e-10 -1.1865e-09 9.42645e-10)
(6.27358e-10 -1.61103e-09 1.32877e-09)
(7.9883e-10 -2.02734e-09 1.75705e-09)
(9.81596e-10 -2.43939e-09 2.24896e-09)
(1.18501e-09 -2.84383e-09 2.82597e-09)
(1.42162e-09 -3.22703e-09 3.51011e-09)
(1.70958e-09 -3.5595e-09 4.32409e-09)
(2.0785e-09 -3.78621e-09 5.29255e-09)
(2.58168e-09 -3.80628e-09 6.44554e-09)
(3.32684e-09 -3.42727e-09 7.83374e-09)
(4.55365e-09 -2.24419e-09 9.58045e-09)
(6.84137e-09 7.12619e-10 1.20476e-08)
(1.14737e-08 7.77134e-09 1.61647e-08)
(1.92236e-08 2.1332e-08 2.2453e-08)
(3.04846e-10 -7.893e-10 6.04166e-10)
(8.52768e-10 -2.20687e-09 1.7108e-09)
(1.36397e-09 -3.52406e-09 2.80052e-09)
(1.86182e-09 -4.78743e-09 3.94691e-09)
(2.36794e-09 -6.02781e-09 5.21637e-09)
(2.90553e-09 -7.25941e-09 6.67281e-09)
(3.50141e-09 -8.47526e-09 8.37932e-09)
(4.18992e-09 -9.63962e-09 1.03995e-08)
(5.01967e-09 -1.06746e-08 1.2798e-08)
(6.06497e-09 -1.14366e-08 1.56399e-08)
(7.44904e-09 -1.16748e-08 1.89919e-08)
(9.3897e-09 -1.09613e-08 2.29305e-08)
(1.22868e-08 -8.56887e-09 2.75748e-08)
(1.68285e-08 -3.32628e-09 3.31377e-08)
(2.38172e-08 6.16976e-09 3.98264e-08)
(3.19564e-08 1.8317e-08 4.64517e-08)
(4.98544e-10 -1.28941e-09 9.89497e-10)
(1.39411e-09 -3.60619e-09 2.8013e-09)
(2.22876e-09 -5.7623e-09 4.58435e-09)
(3.03846e-09 -7.83509e-09 6.45731e-09)
(3.85839e-09 -9.87903e-09 8.52872e-09)
(4.72451e-09 -1.19226e-08 1.0902e-08)
(5.67756e-09 -1.39635e-08 1.36791e-08)
(6.76812e-09 -1.59589e-08 1.6963e-08)
(8.06344e-09 -1.78092e-08 2.08569e-08)
(9.65834e-09 -1.93301e-08 2.54607e-08)
(1.16935e-08 -2.02124e-08 3.08644e-08)
(1.43832e-08 -1.9972e-08 3.7138e-08)
(1.80648e-08 -1.79131e-08 4.43326e-08)
(2.32043e-08 -1.32274e-08 5.24749e-08)
(3.01784e-08 -5.6106e-09 6.15022e-08)
(3.76298e-08 2.45496e-09 7.01558e-08)
(6.7853e-10 -1.75043e-09 1.3497e-09)
(1.89657e-09 -4.89767e-09 3.82003e-09)
(3.02909e-09 -7.83242e-09 6.24822e-09)
(4.12349e-09 -1.06643e-08 8.79457e-09)
(5.22472e-09 -1.34728e-08 1.16046e-08)
(6.37908e-09 -1.63067e-08 1.48175e-08)
(7.63744e-09 -1.9179e-08 1.85706e-08)
(9.05993e-09 -2.20586e-08 2.30023e-08)
(1.07216e-08 -2.48545e-08 2.82513e-08)
(1.27184e-08 -2.73922e-08 3.44505e-08)
(1.51724e-08 -2.93806e-08 4.17122e-08)
(1.82362e-08 -3.03774e-08 5.01024e-08)
(2.20908e-08 -2.97845e-08 5.96043e-08)
(2.68968e-08 -2.69719e-08 7.00551e-08)
(3.26209e-08 -2.17753e-08 8.09916e-08)
(3.80703e-08 -1.60282e-08 9.05197e-08)
(8.40443e-10 -2.15675e-09 1.67649e-09)
(2.34797e-09 -6.03767e-09 4.74338e-09)
(3.74542e-09 -9.66534e-09 7.75308e-09)
(5.08828e-09 -1.31806e-08 1.09012e-08)
(6.42962e-09 -1.66908e-08 1.43657e-08)
(7.82249e-09 -2.02695e-08 1.83155e-08)
(9.32379e-09 -2.39545e-08 2.29178e-08)
(1.09985e-08 -2.77425e-08 2.83413e-08)
(1.29231e-08 -3.15783e-08 3.4757e-08)
(1.51874e-08 -3.53381e-08 4.23311e-08)
(1.78904e-08 -3.88039e-08 5.12085e-08)
(2.11293e-08 -4.16305e-08 6.14807e-08)
(2.49667e-08 -4.33068e-08 7.31249e-08)
(2.93599e-08 -4.31387e-08 8.58831e-08)
(3.40317e-08 -4.03947e-08 9.89606e-08)
(3.79758e-08 -3.55938e-08 1.09702e-07)
(9.81288e-10 -2.49335e-09 1.96345e-09)
(2.73921e-09 -6.98374e-09 5.55267e-09)
(4.3627e-09 -1.11922e-08 9.06749e-09)
(5.91312e-09 -1.52897e-08 1.27325e-08)
(7.44769e-09 -1.94103e-08 1.67504e-08)
(9.02349e-09 -2.36551e-08 2.13135e-08)
(1.07002e-08 -2.80924e-08 2.66114e-08)
(1.25442e-08 -3.27569e-08 3.2836e-08)
(1.46311e-08 -3.76466e-08 4.01842e-08)
(1.70471e-08 -4.27151e-08 4.88538e-08)
(1.98833e-08 -4.7859e-08 5.9032e-08)
(2.32265e-08 -5.28922e-08 7.08716e-08)
(2.71379e-08 -5.74833e-08 8.44454e-08)
(3.1585e-08 -6.09855e-08 9.96002e-08)
(3.63185e-08 -6.21236e-08 1.15525e-07)
(4.02968e-08 -5.95124e-08 1.28826e-07)
(1.09874e-09 -2.74602e-09 2.20586e-09)
(3.06457e-09 -7.69608e-09 6.23484e-09)
(4.87235e-09 -1.23484e-08 1.01702e-08)
(6.58579e-09 -1.68996e-08 1.42573e-08)
(8.2643e-09 -2.15088e-08 1.87164e-08)
(9.9655e-09 -2.63029e-08 2.37548e-08)
(1.17487e-08 -3.13807e-08 2.95753e-08)
(1.36786e-08 -3.68168e-08 3.63831e-08)
(1.58286e-08 -4.26648e-08 4.43896e-08)
(1.82833e-08 -4.89619e-08 5.38137e-08)
(2.11381e-08 -5.57339e-08 6.48769e-08)
(2.45124e-08 -6.3005e-08 7.78114e-08)
(2.85497e-08 -7.07803e-08 9.28385e-08)
(3.34357e-08 -7.89468e-08 1.1011e-07)
(3.93046e-08 -8.68278e-08 1.29247e-07)
(4.50776e-08 -9.19205e-08 1.46417e-07)
(1.19215e-09 -2.90252e-09 2.40136e-09)
(3.32188e-09 -8.14009e-09 6.7832e-09)
(5.27119e-09 -1.30769e-08 1.10503e-08)
(7.10375e-09 -1.79296e-08 1.54609e-08)
(8.87744e-09 -2.28763e-08 2.02442e-08)
(1.06478e-08 -2.80651e-08 2.56135e-08)
(1.24708e-08 -3.362e-08 3.17749e-08)
(1.44059e-08 -3.96475e-08 3.89338e-08)
(1.65205e-08 -4.62444e-08 4.73e-08)
(1.88925e-08 -5.35089e-08 5.70897e-08)
(2.16184e-08 -6.15598e-08 6.85315e-08)
(2.48275e-08 -7.057e-08 8.18795e-08)
(2.87267e-08 -8.08323e-08 9.74526e-08)
(3.3683e-08 -9.2847e-08 1.15688e-07)
(4.02695e-08 -1.07229e-07 1.36924e-07)
(4.79124e-08 -1.22249e-07 1.58055e-07)
(1.04716e-10 -2.72257e-10 1.93054e-10)
(2.92917e-10 -7.61229e-10 5.46481e-10)
(4.68512e-10 -1.21569e-09 8.9397e-10)
(6.39365e-10 -1.65165e-09 1.25867e-09)
(8.13017e-10 -2.08004e-09 1.66139e-09)
(9.97106e-10 -2.50569e-09 2.12174e-09)
(1.20037e-09 -2.92616e-09 2.65857e-09)
(1.43391e-09 -3.32914e-09 3.29003e-09)
(1.71363e-09 -3.68809e-09 4.03322e-09)
(2.0647e-09 -3.95418e-09 4.90295e-09)
(2.53194e-09 -4.04162e-09 5.91041e-09)
(3.20368e-09 -3.79707e-09 7.06329e-09)
(4.27223e-09 -2.92805e-09 8.37562e-09)
(6.16704e-09 -8.32039e-10 9.89266e-09)
(9.70521e-09 3.62989e-09 1.16656e-08)
(1.49456e-08 1.07281e-08 1.30866e-08)
(3.11058e-10 -8.08328e-10 5.73824e-10)
(8.6988e-10 -2.2603e-09 1.62394e-09)
(1.39093e-09 -3.61058e-09 2.6561e-09)
(1.8971e-09 -4.90739e-09 3.73838e-09)
(2.41012e-09 -6.18374e-09 4.93232e-09)
(2.95218e-09 -7.45569e-09 6.29562e-09)
(3.54806e-09 -8.71862e-09 7.88352e-09)
(4.22855e-09 -9.94073e-09 9.74898e-09)
(5.03548e-09 -1.10516e-08 1.19405e-08)
(6.03103e-09 -1.19237e-08 1.44967e-08)
(7.31516e-09 -1.23432e-08 1.74355e-08)
(9.0604e-09 -1.19683e-08 2.07356e-08)
(1.15718e-08 -1.02854e-08 2.43026e-08)
(1.53155e-08 -6.6429e-09 2.78675e-08)
(2.06402e-08 -7.51562e-10 3.07174e-08)
(2.60896e-08 5.16792e-09 3.13944e-08)
(5.08737e-10 -1.32042e-09 9.39786e-10)
(1.42229e-09 -3.6933e-09 2.65919e-09)
(2.27296e-09 -5.90317e-09 4.34793e-09)
(3.09701e-09 -8.03082e-09 6.11662e-09)
(3.92888e-09 -1.01335e-08 8.06519e-09)
(4.80331e-09 -1.22426e-08 1.02872e-08)
(5.75822e-09 -1.43594e-08 1.28725e-08)
(6.83871e-09 -1.64467e-08 1.59073e-08)
(8.10207e-09 -1.84144e-08 1.94702e-08)
(9.62492e-09 -2.00991e-08 2.36225e-08)
(1.15138e-08 -2.12369e-08 2.83868e-08)
(1.39254e-08 -2.14439e-08 3.3712e-08)
(1.70733e-08 -2.02542e-08 3.93997e-08)
(2.11958e-08 -1.73517e-08 4.49808e-08)
(2.62387e-08 -1.33111e-08 4.94841e-08)
(3.07512e-08 -1.07565e-08 5.14005e-08)
(6.9251e-10 -1.79244e-09 1.28192e-09)
(1.9354e-09 -5.01568e-09 3.62653e-09)
(3.09024e-09 -8.02343e-09 5.92656e-09)
(4.20467e-09 -1.09295e-08 8.33145e-09)
(5.3234e-09 -1.38176e-08 1.09755e-08)
(6.49114e-09 -1.67401e-08 1.39849e-08)
(7.75539e-09 -1.97141e-08 1.74808e-08)
(9.17005e-09 -2.27141e-08 2.15801e-08)
(1.07983e-08 -2.5659e-08 2.6391e-08)
(1.27145e-08 -2.83938e-08 3.19991e-08)
(1.50026e-08 -3.06681e-08 3.84406e-08)
(1.77461e-08 -3.21288e-08 4.56496e-08)
(2.09985e-08 -3.23731e-08 5.33645e-08)
(2.46902e-08 -3.11788e-08 6.09534e-08)
(2.8418e-08 -2.90934e-08 6.7146e-08)
(3.10426e-08 -2.80503e-08 6.99718e-08)
(8.58104e-10 -2.20847e-09 1.59253e-09)
(2.39688e-09 -6.18291e-09 4.50357e-09)
(3.8226e-09 -9.90039e-09 7.35485e-09)
(5.19155e-09 -1.35074e-08 1.03289e-08)
(6.55632e-09 -1.71156e-08 1.35897e-08)
(7.96863e-09 -2.0803e-08 1.72908e-08)
(9.48229e-09 -2.46115e-08 2.15804e-08)
(1.1156e-08 -2.8543e-08 2.66023e-08)
(1.30545e-08 -3.25501e-08 3.24923e-08)
(1.52458e-08 -3.65227e-08 3.93637e-08)
(1.77911e-08 -4.02709e-08 4.7279e-08)
(2.07181e-08 -4.35092e-08 5.61916e-08)
(2.39623e-08 -4.58583e-08 6.58324e-08)
(2.72515e-08 -4.69174e-08 7.54845e-08)
(2.99548e-08 -4.65607e-08 8.35922e-08)
(3.11505e-08 -4.56959e-08 8.75434e-08)
(1.00222e-09 -2.55305e-09 1.86532e-09)
(2.79741e-09 -7.15149e-09 5.27267e-09)
(4.45492e-09 -1.14639e-08 8.60317e-09)
(6.03695e-09 -1.56674e-08 1.20663e-08)
(7.60105e-09 -1.99015e-08 1.58492e-08)
(9.20317e-09 -2.42716e-08 2.0127e-08)
(1.09005e-08 -2.88502e-08 2.50681e-08)
(1.2754e-08 -3.36762e-08 3.08374e-08)
(1.48296e-08 -3.87522e-08 3.75935e-08)
(1.71943e-08 -4.40387e-08 4.54772e-08)
(1.99073e-08 -4.94446e-08 5.45873e-08)
(2.29973e-08 -5.48089e-08 6.493e-08)
(2.64073e-08 -5.98515e-08 7.6303e-08)
(2.98937e-08 -6.40627e-08 8.80482e-08)
(3.28387e-08 -6.65502e-08 9.8504e-08)
(3.41747e-08 -6.65093e-08 1.0435e-07)
(1.1227e-09 -2.81177e-09 2.096e-09)
(3.13109e-09 -7.88083e-09 5.92144e-09)
(4.97792e-09 -1.26477e-08 9.65116e-09)
(6.72842e-09 -1.73161e-08 1.35142e-08)
(8.44225e-09 -2.20507e-08 1.77141e-08)
(1.01767e-08 -2.6983e-08 2.24396e-08)
(1.19895e-08 -3.22158e-08 2.78718e-08)
(1.39416e-08 -3.78265e-08 3.41875e-08)
(1.60992e-08 -4.3871e-08 4.15586e-08)
(1.85326e-08 -5.0387e-08 5.01444e-08)
(2.13171e-08 -5.74007e-08 6.00773e-08)
(2.45235e-08 -6.49297e-08 7.14204e-08)
(2.82156e-08 -7.29672e-08 8.40936e-08)
(3.241e-08 -8.1368e-08 9.76301e-08)
(3.68852e-08 -8.94206e-08 1.10517e-07)
(4.04854e-08 -9.48385e-08 1.18855e-07)
(1.21859e-09 -2.97203e-09 2.28211e-09)
(3.39545e-09 -8.33548e-09 6.4434e-09)
(5.38831e-09 -1.33938e-08 1.04886e-08)
(7.26236e-09 -1.83708e-08 1.46586e-08)
(9.07655e-09 -2.34507e-08 1.91655e-08)
(1.08866e-08 -2.87864e-08 2.4204e-08)
(1.27476e-08 -3.45054e-08 2.99582e-08)
(1.47173e-08 -4.07163e-08 3.66057e-08)
(1.68582e-08 -4.75158e-08 4.43174e-08)
(1.92403e-08 -5.4999e-08 5.32529e-08)
(2.1945e-08 -6.32757e-08 6.35489e-08)
(2.50761e-08 -7.24998e-08 7.52987e-08)
(2.87827e-08 -8.29149e-08 8.84996e-08)
(3.3286e-08 -9.48886e-08 1.02881e-07)
(3.87971e-08 -1.08702e-07 1.17326e-07)
(4.43546e-08 -1.22266e-07 1.27926e-07)
(1.06292e-10 -2.77912e-10 1.75912e-10)
(2.97185e-10 -7.77139e-10 4.97684e-10)
(4.7502e-10 -1.24149e-09 8.13549e-10)
(6.47346e-10 -1.68755e-09 1.14389e-09)
(8.21395e-10 -2.12685e-09 1.50718e-09)
(1.0041e-09 -2.56499e-09 1.92012e-09)
(1.20292e-09 -3.0007e-09 2.39811e-09)
(1.42666e-09 -3.42382e-09 2.95468e-09)
(1.68698e-09 -3.81206e-09 3.60015e-09)
(2.00109e-09 -4.126e-09 4.33842e-09)
(2.39768e-09 -4.30071e-09 5.16101e-09)
(2.93142e-09 -4.23167e-09 6.03715e-09)
(3.7137e-09 -3.7463e-09 6.89537e-09)
(4.97561e-09 -2.53877e-09 7.59101e-09)
(7.10692e-09 -9.01238e-11 7.82955e-09)
(9.93378e-09 3.6659e-09 7.09083e-09)
(3.15736e-10 -8.25072e-10 5.22836e-10)
(8.82679e-10 -2.30742e-09 1.47906e-09)
(1.41033e-09 -3.68693e-09 2.41705e-09)
(1.92108e-09 -5.01356e-09 3.39761e-09)
(2.43557e-09 -6.32208e-09 4.47473e-09)
(2.97405e-09 -7.63067e-09 5.69782e-09)
(3.5577e-09 -8.93786e-09 7.11206e-09)
(4.21083e-09 -1.02174e-08 8.75708e-09)
(4.96364e-09 -1.14102e-08 1.06623e-08)
(5.85661e-09 -1.2412e-08 1.28362e-08)
(6.94914e-09 -1.3059e-08 1.52471e-08)
(8.33402e-09 -1.31165e-08 1.7784e-08)
(1.01514e-08 -1.22919e-08 2.01847e-08)
(1.25621e-08 -1.03346e-08 2.19057e-08)
(1.54835e-08 -7.39885e-09 2.19615e-08)
(1.77783e-08 -4.90551e-09 1.96028e-08)
(5.16488e-10 -1.34768e-09 8.5632e-10)
(1.44354e-09 -3.77e-09 2.42211e-09)
(2.30533e-09 -6.02742e-09 3.95692e-09)
(3.13738e-09 -8.20346e-09 5.55959e-09)
(3.97261e-09 -1.03581e-08 7.31785e-09)
(4.84274e-09 -1.25258e-08 9.31196e-09)
(5.78042e-09 -1.47122e-08 1.16157e-08)
(6.82125e-09 -1.68872e-08 1.42941e-08)
(8.00552e-09 -1.89751e-08 1.73965e-08)
(9.3795e-09 -2.08413e-08 2.09395e-08)
(1.09956e-08 -2.22811e-08 2.48762e-08)
(1.29053e-08 -2.30308e-08 2.90378e-08)
(1.51413e-08 -2.2846e-08 3.30407e-08)
(1.76222e-08 -2.1752e-08 3.61369e-08)
(1.99437e-08 -2.0533e-08 3.7169e-08)
(2.11525e-08 -2.07789e-08 3.55236e-08)
(7.03316e-10 -1.82931e-09 1.16826e-09)
(1.96504e-09 -5.11944e-09 3.30342e-09)
(3.13563e-09 -8.19134e-09 5.39422e-09)
(4.26197e-09 -1.11626e-08 7.57374e-09)
(5.38694e-09 -1.41203e-08 9.96023e-09)
(6.55175e-09 -1.71201e-08 1.2662e-08)
(7.79766e-09 -2.01838e-08 1.57791e-08)
(9.16743e-09 -2.32928e-08 1.9401e-08)
(1.07048e-08 -2.63789e-08 2.35977e-08)
(1.24499e-08 -2.93126e-08 2.83997e-08)
(1.44263e-08 -3.18949e-08 3.37594e-08)
(1.66118e-08 -3.3873e-08 3.9484e-08)
(1.8874e-08 -3.50248e-08 4.51225e-08)
(2.0853e-08 -3.53906e-08 4.98152e-08)
(2.18557e-08 -3.56522e-08 5.22478e-08)
(2.12829e-08 -3.6882e-08 5.15697e-08)
(8.71877e-10 -2.25375e-09 1.45143e-09)
(2.43469e-09 -6.31021e-09 4.10291e-09)
(3.88096e-09 -1.01064e-08 6.69521e-09)
(5.26616e-09 -1.3793e-08 9.3912e-09)
(6.64114e-09 -1.74856e-08 1.23353e-08)
(8.05406e-09 -2.12655e-08 1.56597e-08)
(9.55234e-09 -2.51785e-08 1.94873e-08)
(1.11834e-08 -2.92313e-08 2.39292e-08)
(1.29924e-08 -3.3385e-08 2.90763e-08)
(1.50139e-08 -3.75453e-08 3.49777e-08)
(1.72502e-08 -4.15537e-08 4.16005e-08)
(1.96276e-08 -4.51862e-08 4.87568e-08)
(2.19064e-08 -4.81776e-08 5.5979e-08)
(2.35399e-08 -5.03056e-08 6.234e-08)
(2.3613e-08 -5.15806e-08 6.63398e-08)
(2.16843e-08 -5.23999e-08 6.67016e-08)
(1.01879e-09 -2.60519e-09 1.70034e-09)
(2.84313e-09 -7.29812e-09 4.80436e-09)
(4.52583e-09 -1.1701e-08 7.83298e-09)
(6.12878e-09 -1.59958e-08 1.09732e-08)
(7.70789e-09 -2.03261e-08 1.439e-08)
(9.31598e-09 -2.48003e-08 1.82344e-08)
(1.10044e-08 -2.94934e-08 2.26466e-08)
(1.28239e-08 -3.44464e-08 2.77552e-08)
(1.48225e-08 -3.96639e-08 3.36685e-08)
(1.70378e-08 -4.51098e-08 4.04556e-08)
(1.9477e-08 -5.06992e-08 4.81066e-08)
(2.20767e-08 -5.62829e-08 5.64596e-08)
(2.4624e-08 -6.16078e-08 6.50755e-08)
(2.6612e-08 -6.62118e-08 7.30144e-08)
(2.71245e-08 -6.92652e-08 7.86292e-08)
(2.54756e-08 -6.98314e-08 8.01633e-08)
(1.14189e-09 -2.86903e-09 1.9109e-09)
(3.18405e-09 -8.04182e-09 5.3965e-09)
(5.06068e-09 -1.2908e-08 8.78897e-09)
(6.83674e-09 -1.76765e-08 1.22929e-08)
(8.57088e-09 -2.25158e-08 1.60879e-08)
(1.03178e-08 -2.75603e-08 2.03372e-08)
(1.21303e-08 -3.29137e-08 2.51919e-08)
(1.40611e-08 -3.86529e-08 3.07904e-08)
(1.61616e-08 -4.48296e-08 3.72519e-08)
(1.84785e-08 -5.14732e-08 4.46589e-08)
(2.10424e-08 -5.85921e-08 5.30196e-08)
(2.38536e-08 -6.61714e-08 6.22098e-08)
(2.68364e-08 -7.41362e-08 7.18291e-08)
(2.97756e-08 -8.22175e-08 8.09722e-08)
(3.21917e-08 -8.95474e-08 8.78943e-08)
(3.32556e-08 -9.38916e-08 9.0356e-08)
(1.24004e-09 -3.03241e-09 2.081e-09)
(3.45497e-09 -8.50527e-09 5.87337e-09)
(5.48168e-09 -1.36683e-08 9.55373e-09)
(7.38574e-09 -1.87508e-08 1.33374e-08)
(9.2254e-09 -2.39409e-08 1.74118e-08)
(1.10546e-08 -2.93936e-08 2.19455e-08)
(1.29248e-08 -3.52365e-08 2.70925e-08)
(1.48874e-08 -4.15752e-08 3.29925e-08)
(1.69938e-08 -4.84983e-08 3.97641e-08)
(1.92954e-08 -5.60843e-08 4.74892e-08)
(2.18418e-08 -6.44111e-08 5.61825e-08)
(2.4678e-08 -7.35705e-08 6.57304e-08)
(2.78415e-08 -8.36832e-08 7.57703e-08)
(3.13616e-08 -9.48879e-08 8.54427e-08)
(3.51882e-08 -1.07105e-07 9.29418e-08)
(3.86215e-08 -1.18306e-07 9.55044e-08)
(1.07392e-10 -2.82706e-10 1.52626e-10)
(3.00142e-10 -7.90643e-10 4.31669e-10)
(4.79231e-10 -1.26338e-09 7.04974e-10)
(6.52019e-10 -1.71803e-09 9.90116e-10)
(8.25122e-10 -2.16667e-09 1.30224e-09)
(1.00461e-09 -2.61559e-09 1.65495e-09)
(1.19642e-09 -3.06467e-09 2.05998e-09)
(1.40674e-09 -3.50583e-09 2.52644e-09)
(1.64266e-09 -3.92089e-09 3.05887e-09)
(1.91321e-09 -4.27861e-09 3.6534e-09)
(2.23212e-09 -4.53063e-09 4.2908e-09)
(2.62469e-09 -4.60625e-09 4.92532e-09)
(3.14557e-09 -4.39957e-09 5.47042e-09)
(3.91195e-09 -3.72948e-09 5.78337e-09)
(5.12381e-09 -2.25484e-09 5.67773e-09)
(6.65897e-09 2.39688e-10 5.0502e-09)
(3.19057e-10 -8.39271e-10 4.53659e-10)
(8.91538e-10 -2.34739e-09 1.2828e-09)
(1.42316e-09 -3.75172e-09 2.09477e-09)
(1.93537e-09 -5.10368e-09 2.94094e-09)
(2.44738e-09 -6.43958e-09 3.86647e-09)
(2.97688e-09 -7.77951e-09 4.9113e-09)
(3.54078e-09 -9.12505e-09 6.10997e-09)
(4.15609e-09 -1.04554e-08 7.48924e-09)
(4.84044e-09 -1.17219e-08 9.06211e-09)
(5.61261e-09 -1.28406e-08 1.08159e-08)
(6.49373e-09 -1.3687e-08 1.26909e-08)
(7.51031e-09 -1.40981e-08 1.45457e-08)
(8.69582e-09 -1.38957e-08 1.61068e-08)
(1.00606e-08 -1.2953e-08 1.69071e-08)
(1.14679e-08 -1.13459e-08 1.63492e-08)
(1.23435e-08 -9.71713e-09 1.44693e-08)
(5.22056e-10 -1.37078e-09 7.43087e-10)
(1.4585e-09 -3.83504e-09 2.10087e-09)
(2.32712e-09 -6.13269e-09 3.42955e-09)
(3.16219e-09 -8.34964e-09 4.8128e-09)
(3.99434e-09 -1.0548e-08 6.32389e-09)
(4.85157e-09 -1.27651e-08 8.02785e-09)
(5.76017e-09 -1.50104e-08 9.98133e-09)
(6.74503e-09 -1.72608e-08 1.22289e-08)
(7.82846e-09 -1.94531e-08 1.47939e-08)
(9.02656e-09 -2.14772e-08 1.76604e-08)
(1.03412e-08 -2.31732e-08 2.07413e-08)
(1.17472e-08 -2.43529e-08 2.38329e-08)
(1.31594e-08 -2.48767e-08 2.65448e-08)
(1.43863e-08 -2.48325e-08 2.82731e-08)
(1.50871e-08 -2.47882e-08 2.83672e-08)
(1.50042e-08 -2.55428e-08 2.70803e-08)
(7.11182e-10 -1.86052e-09 1.01377e-09)
(1.98627e-09 -5.2072e-09 2.86571e-09)
(3.16694e-09 -8.33329e-09 4.67586e-09)
(4.29847e-09 -1.13592e-08 6.55733e-09)
(5.42117e-09 -1.43747e-08 8.60887e-09)
(6.57174e-09 -1.74384e-08 1.09184e-08)
(7.78394e-09 -2.05757e-08 1.35633e-08)
(9.08803e-09 -2.37739e-08 1.66055e-08)
(1.05072e-08 -2.69756e-08 2.00811e-08)
(1.20483e-08 -3.0071e-08 2.39779e-08)
(1.36828e-08 -3.28966e-08 2.81993e-08)
(1.53108e-08 -3.52573e-08 3.25089e-08)
(1.67007e-08 -3.70031e-08 3.64661e-08)
(1.74221e-08 -3.81992e-08 3.94013e-08)
(1.69201e-08 -3.93289e-08 4.06217e-08)
(1.53015e-08 -4.08883e-08 4.02532e-08)
(8.8206e-10 -2.29196e-09 1.25975e-09)
(2.46236e-09 -6.41767e-09 3.55973e-09)
(3.92217e-09 -1.02799e-08 5.8045e-09)
(5.31555e-09 -1.40327e-08 8.13239e-09)
(6.69054e-09 -1.77945e-08 1.06641e-08)
(8.09068e-09 -2.16489e-08 1.35073e-08)
(9.55559e-09 -2.56442e-08 1.67572e-08)
(1.112e-08 -2.97904e-08 2.0492e-08)
(1.28085e-08 -3.40534e-08 2.47614e-08)
(1.46232e-08 -3.83482e-08 2.95627e-08)
(1.65178e-08 -4.25322e-08 3.48021e-08)
(1.83489e-08 -4.64068e-08 4.02366e-08)
(1.97941e-08 -4.97347e-08 4.54043e-08)
(2.02592e-08 -5.22888e-08 4.95934e-08)
(1.89848e-08 -5.3951e-08 5.20223e-08)
(1.61828e-08 -5.48058e-08 5.25653e-08)
(1.03129e-09 -2.64912e-09 1.476e-09)
(2.87715e-09 -7.42152e-09 4.16901e-09)
(4.57721e-09 -1.19e-08 6.79219e-09)
(6.19188e-09 -1.62701e-08 9.50437e-09)
(7.77461e-09 -2.0678e-08 1.24437e-08)
(9.37381e-09 -2.52339e-08 1.57334e-08)
(1.10335e-08 -3.00132e-08 1.94825e-08)
(1.27927e-08 -3.50564e-08 2.37824e-08)
(1.4681e-08 -4.0366e-08 2.86944e-08)
(1.67065e-08 -4.59011e-08 3.42265e-08)
(1.88342e-08 -5.15687e-08 4.0294e-08)
(2.09429e-08 -5.7205e-08 4.66601e-08)
(2.27459e-08 -6.25244e-08 5.28505e-08)
(2.36995e-08 -6.70076e-08 5.81136e-08)
(2.30238e-08 -6.97347e-08 6.15511e-08)
(2.0608e-08 -6.97667e-08 6.28e-08)
(1.15656e-09 -2.91713e-09 1.65913e-09)
(3.22427e-09 -8.17691e-09 4.68373e-09)
(5.12204e-09 -1.31257e-08 7.62276e-09)
(6.91381e-09 -1.79759e-08 1.06501e-08)
(8.65605e-09 -2.28986e-08 1.39162e-08)
(1.03997e-08 -2.80289e-08 1.75546e-08)
(1.21913e-08 -3.34693e-08 2.16832e-08)
(1.40734e-08 -3.92923e-08 2.64009e-08)
(1.60817e-08 -4.55404e-08 3.17759e-08)
(1.82383e-08 -5.22258e-08 3.78227e-08)
(2.05413e-08 -5.93271e-08 4.44662e-08)
(2.29376e-08 -6.67732e-08 5.14668e-08)
(2.52948e-08 -7.43969e-08 5.83455e-08)
(2.73605e-08 -8.17871e-08 6.42809e-08)
(2.8757e-08 -8.79318e-08 6.81901e-08)
(2.91602e-08 -9.08605e-08 6.95013e-08)
(1.25676e-09 -3.08301e-09 1.80713e-09)
(3.5009e-09 -8.64738e-09 5.09866e-09)
(5.55247e-09 -1.38972e-08 8.2879e-09)
(7.47625e-09 -1.90653e-08 1.1558e-08)
(9.32889e-09 -2.4342e-08 1.50664e-08)
(1.11613e-08 -2.98824e-08 1.89511e-08)
(1.302e-08 -3.58113e-08 2.33328e-08)
(1.4948e-08 -4.22273e-08 2.83112e-08)
(1.69843e-08 -4.92049e-08 3.39538e-08)
(1.91615e-08 -5.67973e-08 4.02751e-08)
(2.15016e-08 -6.50378e-08 4.71961e-08)
(2.40099e-08 -7.39415e-08 5.44805e-08)
(2.66722e-08 -8.34999e-08 6.16306e-08)
(2.94715e-08 -9.36514e-08 6.7751e-08)
(3.24089e-08 -1.04111e-07 7.15006e-08)
(3.51844e-08 -1.13189e-07 7.18749e-08)
(1.08102e-10 -2.86575e-10 1.24164e-10)
(3.01951e-10 -8.01524e-10 3.50987e-10)
(4.81629e-10 -1.28099e-09 5.72952e-10)
(6.54157e-10 -1.74261e-09 8.03696e-10)
(8.25538e-10 -2.19872e-09 1.05538e-09)
(1.00099e-09 -2.6563e-09 1.33819e-09)
(1.185e-09 -3.11606e-09 1.6605e-09)
(1.38142e-09 -3.57152e-09 2.02785e-09)
(1.59364e-09 -4.00744e-09 2.44115e-09)
(1.82458e-09 -4.39768e-09 2.89313e-09)
(2.07843e-09 -4.70316e-09 3.36322e-09)
(2.36581e-09 -4.86827e-09 3.81109e-09)
(2.71756e-09 -4.81002e-09 4.17186e-09)
(3.21698e-09 -4.37715e-09 4.36774e-09)
(4.03182e-09 -3.25088e-09 4.36239e-09)
(5.1325e-09 -1.13875e-09 4.2204e-09)
(3.212e-10 -8.50721e-10 3.69039e-10)
(8.97122e-10 -2.37962e-09 1.04329e-09)
(1.43065e-09 -3.80397e-09 1.70235e-09)
(1.94221e-09 -5.17626e-09 2.38747e-09)
(2.44957e-09 -6.53417e-09 3.13381e-09)
(2.96769e-09 -7.89912e-09 3.97168e-09)
(3.50949e-09 -9.27504e-09 4.92574e-09)
(4.08555e-09 -1.06453e-08 6.01242e-09)
(4.70321e-09 -1.19682e-08 7.23407e-09)
(5.36541e-09 -1.31727e-08 8.56892e-09)
(6.07005e-09 -1.4155e-08 9.95533e-09)
(6.81207e-09 -1.47819e-08 1.12708e-08)
(7.58925e-09 -1.49034e-08 1.23094e-08)
(8.40978e-09 -1.43763e-08 1.27948e-08)
(9.25353e-09 -1.31204e-08 1.24834e-08)
(9.89357e-09 -1.14687e-08 1.15885e-08)
(5.25733e-10 -1.38941e-09 6.04532e-10)
(1.46817e-09 -3.88747e-09 1.70872e-09)
(2.34029e-09 -6.21749e-09 2.78744e-09)
(3.17499e-09 -8.46722e-09 3.90749e-09)
(4.00033e-09 -1.07004e-08 5.12619e-09)
(4.84065e-09 -1.29563e-08 6.49296e-09)
(5.71623e-09 -1.52474e-08 8.04845e-09)
(6.6425e-09 -1.75552e-08 9.82036e-09)
(7.62731e-09 -1.98253e-08 1.18149e-08)
(8.66532e-09 -2.19611e-08 1.40013e-08)
(9.72983e-09 -2.38247e-08 1.62897e-08)
(1.07607e-08 -2.52546e-08 1.85001e-08)
(1.16551e-08 -2.61219e-08 2.0349e-08)
(1.22689e-08 -2.64507e-08 2.14769e-08)
(1.24842e-08 -2.65809e-08 2.16567e-08)
(1.24151e-08 -2.70485e-08 2.12683e-08)
(7.16525e-10 -1.88566e-09 8.24935e-10)
(2.00038e-09 -5.27791e-09 2.33098e-09)
(3.18664e-09 -8.44744e-09 3.8009e-09)
(4.31867e-09 -1.15168e-08 5.32463e-09)
(5.43406e-09 -1.45777e-08 6.9796e-09)
(6.5649e-09 -1.76907e-08 8.8328e-09)
(7.73785e-09 -2.08836e-08 1.09398e-08)
(8.97227e-09 -2.41473e-08 1.33402e-08)
(1.0275e-08 -2.74301e-08 1.60461e-08)
(1.16303e-08 -3.06316e-08 1.9025e-08)
(1.29811e-08 -3.36017e-08 2.21721e-08)
(1.42017e-08 -3.61577e-08 2.52805e-08)
(1.50624e-08 -3.81409e-08 2.8026e-08)
(1.52267e-08 -3.95411e-08 3.00233e-08)
(1.4416e-08 -4.0652e-08 3.10444e-08)
(1.30647e-08 -4.18448e-08 3.13692e-08)
(8.89145e-10 -2.32273e-09 1.02516e-09)
(2.48122e-09 -6.50405e-09 2.89596e-09)
(3.94905e-09 -1.0419e-08 4.7191e-09)
(5.34484e-09 -1.42241e-08 6.60477e-09)
(6.71347e-09 -1.80393e-08 8.64769e-09)
(8.09387e-09 -2.19499e-08 1.093e-08)
(9.51828e-09 -2.60051e-08 1.35207e-08)
(1.10102e-08 -3.02154e-08 1.64699e-08)
(1.25784e-08 -3.45473e-08 1.97979e-08)
(1.42036e-08 -3.89161e-08 2.34744e-08)
(1.58155e-08 -4.31779e-08 2.73906e-08)
(1.7254e-08 -4.71259e-08 3.13267e-08)
(1.82153e-08 -5.04946e-08 3.49372e-08)
(1.8223e-08 -5.29879e-08 3.78131e-08)
(1.68057e-08 -5.43786e-08 3.96893e-08)
(1.44471e-08 -5.47756e-08 4.06884e-08)
(1.04016e-09 -2.6844e-09 1.20136e-09)
(2.90097e-09 -7.5205e-09 3.39221e-09)
(4.61193e-09 -1.20591e-08 5.52311e-09)
(6.23151e-09 -1.64881e-08 7.72062e-09)
(7.81049e-09 -2.09553e-08 1.00933e-08)
(9.39262e-09 -2.55711e-08 1.27354e-08)
(1.1015e-08 -3.04102e-08 1.5726e-08)
(1.27063e-08 -3.551e-08 1.91245e-08)
(1.44814e-08 -4.08666e-08 2.29575e-08)
(1.63309e-08 -4.64288e-08 2.7199e-08)
(1.82007e-08 -5.20846e-08 3.17398e-08)
(1.99582e-08 -5.76369e-08 3.63472e-08)
(2.13461e-08 -6.27494e-08 4.06557e-08)
(2.19393e-08 -6.68344e-08 4.42069e-08)
(2.12286e-08 -6.89443e-08 4.66669e-08)
(1.93311e-08 -6.83558e-08 4.807e-08)
(1.16718e-09 -2.95567e-09 1.3506e-09)
(3.25306e-09 -8.28497e-09 3.81172e-09)
(5.16473e-09 -1.32991e-08 6.19972e-09)
(6.96469e-09 -1.82128e-08 8.65329e-09)
(8.70671e-09 -2.31983e-08 1.12909e-08)
(1.04378e-08 -2.839e-08 1.42147e-08)
(1.21985e-08 -3.38877e-08 1.75108e-08)
(1.40222e-08 -3.97571e-08 2.12431e-08)
(1.59325e-08 -4.60286e-08 2.54425e-08)
(1.79374e-08 -5.26937e-08 3.00849e-08)
(2.00182e-08 -5.96951e-08 3.50548e-08)
(2.21194e-08 -6.69083e-08 4.01126e-08)
(2.41325e-08 -7.40861e-08 4.48463e-08)
(2.59108e-08 -8.07343e-08 4.87087e-08)
(2.73124e-08 -8.586e-08 5.12237e-08)
(2.81984e-08 -8.78856e-08 5.24105e-08)
(1.26907e-09 -3.12346e-09 1.47136e-09)
(3.53446e-09 -8.76077e-09 4.15017e-09)
(5.60309e-09 -1.40789e-08 6.74204e-09)
(7.5384e-09 -1.93131e-08 9.39333e-09)
(9.39514e-09 -2.46542e-08 1.22279e-08)
(1.12208e-08 -3.02561e-08 1.53519e-08)
(1.30568e-08 -3.62391e-08 1.88534e-08)
(1.49389e-08 -4.26926e-08 2.27971e-08)
(1.68963e-08 -4.9675e-08 2.72127e-08)
(1.895e-08 -5.72116e-08 3.2073e-08)
(2.11106e-08 -6.5292e-08 3.72599e-08)
(2.33787e-08 -7.38637e-08 4.25147e-08)
(2.57595e-08 -8.28262e-08 4.73875e-08)
(2.8316e-08 -9.20261e-08 5.12195e-08)
(3.12346e-08 -1.012e-07 5.32794e-08)
(3.4383e-08 -1.09125e-07 5.34055e-08)
(1.08495e-10 -2.89463e-10 9.15991e-11)
(3.02941e-10 -8.09666e-10 2.5895e-10)
(4.82764e-10 -1.29422e-09 4.22302e-10)
(6.5456e-10 -1.76085e-09 5.91955e-10)
(8.24297e-10 -2.22275e-09 7.76313e-10)
(9.95944e-10 -2.68673e-09 9.82505e-10)
(1.17295e-09 -3.15422e-09 1.21601e-09)
(1.35754e-09 -3.61975e-09 1.4799e-09)
(1.55055e-09 -4.06961e-09 1.77339e-09)
(1.75155e-09 -4.48015e-09 2.08951e-09)
(1.9605e-09 -4.81563e-09 2.412e-09)
(2.18345e-09 -5.02419e-09 2.71277e-09)
(2.44874e-09 -5.02485e-09 2.9543e-09)
(2.84129e-09 -4.66209e-09 3.10727e-09)
(3.53975e-09 -3.60744e-09 3.19605e-09)
(4.54894e-09 -1.55151e-09 3.28369e-09)
(3.22462e-10 -8.59313e-10 2.7233e-10)
(9.00271e-10 -2.40382e-09 7.6954e-10)
(1.43425e-09 -3.843e-09 1.25506e-09)
(1.94457e-09 -5.23089e-09 1.75859e-09)
(2.44655e-09 -6.60489e-09 2.30529e-09)
(2.95372e-09 -7.98812e-09 2.91621e-09)
(3.47558e-09 -9.38582e-09 3.6075e-09)
(4.018e-09 -1.07837e-08 4.38827e-09)
(4.58162e-09 -1.21439e-08 5.25616e-09)
(5.1606e-09 -1.34009e-08 6.19035e-09)
(5.74308e-09 -1.44575e-08 7.14227e-09)
(6.31757e-09 -1.51848e-08 8.02576e-09)
(6.89077e-09 -1.54227e-08 8.71737e-09)
(7.51357e-09 -1.49812e-08 9.07618e-09)
(8.27254e-09 -1.36806e-08 9.01681e-09)
(9.03381e-09 -1.1805e-08 8.65954e-09)
(5.27977e-10 -1.4034e-09 4.46123e-10)
(1.47381e-09 -3.92681e-09 1.26048e-09)
(2.34749e-09 -6.28126e-09 2.05519e-09)
(3.17981e-09 -8.55511e-09 2.87845e-09)
(3.99772e-09 -1.08141e-08 3.77132e-09)
(4.82159e-09 -1.30981e-08 4.76806e-09)
(5.66718e-09 -1.54215e-08 5.89545e-09)
(6.5431e-09 -1.77685e-08 7.16915e-09)
(7.44776e-09 -2.00882e-08 8.5871e-09)
(8.36448e-09 -2.22891e-08 1.01191e-08)
(9.25606e-09 -2.42382e-08 1.16927e-08)
(1.00626e-08 -2.57716e-08 1.31839e-08)
(1.07082e-08 -2.67327e-08 1.4416e-08)
(1.11404e-08 -2.70685e-08 1.52098e-08)
(1.14046e-08 -2.69879e-08 1.55009e-08)
(1.16686e-08 -2.70354e-08 1.55045e-08)
(7.19897e-10 -1.90458e-09 6.08725e-10)
(2.00904e-09 -5.33102e-09 1.71979e-09)
(3.19774e-09 -8.53291e-09 2.80273e-09)
(4.3282e-09 -1.16348e-08 3.92292e-09)
(5.43452e-09 -1.47286e-08 5.1356e-09)
(6.54565e-09 -1.78767e-08 6.48742e-09)
(7.68253e-09 -2.11078e-08 8.01518e-09)
(8.85654e-09 -2.44141e-08 9.74153e-09)
(1.00643e-08 -2.77452e-08 1.16668e-08)
(1.12785e-08 -3.10019e-08 1.37563e-08)
(1.24351e-08 -3.40321e-08 1.5925e-08)
(1.34163e-08 -3.66408e-08 1.80261e-08)
(1.4043e-08 -3.86334e-08 1.98594e-08)
(1.41008e-08 -3.9919e-08 2.12326e-08)
(1.3502e-08 -4.06917e-08 2.20848e-08)
(1.26703e-08 -4.14039e-08 2.25509e-08)
(8.9372e-10 -2.34581e-09 7.56639e-10)
(2.49324e-09 -6.56888e-09 2.13687e-09)
(3.96537e-09 -1.05232e-08 3.48031e-09)
(5.35998e-09 -1.43665e-08 4.86679e-09)
(6.7202e-09 -1.82205e-08 6.3641e-09)
(8.08026e-09 -2.21703e-08 8.02951e-09)
(9.46676e-09 -2.62651e-08 9.90875e-09)
(1.08952e-08 -3.05142e-08 1.20312e-08)
(1.23645e-08 -3.48815e-08 1.44008e-08)
(1.38457e-08 -3.92764e-08 1.69819e-08)
(1.52652e-08 -4.35441e-08 1.9683e-08)
(1.648e-08 -4.74558e-08 2.23436e-08)
(1.72483e-08 -5.07048e-08 2.47466e-08)
(1.72352e-08 -5.29357e-08 2.6685e-08)
(1.61619e-08 -5.3879e-08 2.80794e-08)
(1.44506e-08 -5.37889e-08 2.89674e-08)
(1.0461e-09 -2.71087e-09 8.86785e-10)
(2.91658e-09 -7.59463e-09 2.50342e-09)
(4.63362e-09 -1.21778e-08 4.07389e-09)
(6.25439e-09 -1.665e-08 5.69002e-09)
(7.82619e-09 -2.11592e-08 7.42952e-09)
(9.38957e-09 -2.58159e-08 9.35819e-09)
(1.0976e-08 -3.06927e-08 1.15288e-08)
(1.26066e-08 -3.58226e-08 1.39761e-08)
(1.4288e-08 -4.11945e-08 1.67074e-08)
(1.60028e-08 -4.67434e-08 1.96869e-08)
(1.76968e-08 -5.23361e-08 2.28171e-08)
(1.92599e-08 -5.77435e-08 2.59246e-08)
(2.0501e-08 -6.25865e-08 2.87661e-08)
(2.11347e-08 -6.62415e-08 3.10981e-08)
(2.0835e-08 -6.77907e-08 3.28053e-08)
(1.96309e-08 -6.67351e-08 3.39033e-08)
(1.1744e-09 -2.98452e-09 9.9714e-10)
(3.27241e-09 -8.36574e-09 2.81345e-09)
(5.19268e-09 -1.34282e-08 4.57372e-09)
(6.99564e-09 -1.83879e-08 6.37858e-09)
(8.73353e-09 -2.34176e-08 8.31296e-09)
(1.04494e-08 -2.86501e-08 1.04484e-08)
(1.21789e-08 -3.41818e-08 1.28422e-08)
(1.39491e-08 -4.00713e-08 1.55322e-08)
(1.57766e-08 -4.63369e-08 1.85271e-08)
(1.76633e-08 -5.29497e-08 2.17891e-08)
(1.9594e-08 -5.98229e-08 2.52157e-08)
(2.15324e-08 -6.67893e-08 2.86122e-08)
(2.34343e-08 -7.35569e-08 3.16962e-08)
(2.52783e-08 -7.96118e-08 3.41491e-08)
(2.70813e-08 -8.4044e-08 3.57656e-08)
(2.86095e-08 -8.55863e-08 3.6637e-08)
(1.27763e-09 -3.15371e-09 1.08644e-09)
(3.55747e-09 -8.84535e-09 3.06369e-09)