/*--------------------------------*- C++ -*----------------------------------*\
| =========                 |                                                 |
| \\      /  F ield         | OpenFOAM: The Open Source CFD Toolbox           |
|  \\    /   O peration     | Version:  v1912                                 |
|   \\  /    A nd           | Website:  www.openfoam.com                      |
|    \\/     M anipulation  |                                                 |
\*---------------------------------------------------------------------------*/
FoamFile
{
    version     2.0;
    format      ascii;
    class       surfaceScalarField;
    location    "0.97/fluid";
    object      meshPhi;
}
// * * * * * * * * * * * * * * * * * * * * * * * * * * * * * * * * * * * * * //

dimensions      [0 3 -1 0 0 0 0];
oriented        oriented;


internalField   nonuniform List<scalar> 
41600
(
1.20739e-13
-3.51805e-13
1.32522e-13
-1.36898e-13
2.31219e-13
-1.02472e-12
3.90702e-13
-4.0381e-13
3.36455e-13
-1.64875e-12
6.44151e-13
-6.66386e-13
4.41133e-13
-2.24548e-12
9.09796e-13
-9.42439e-13
5.49932e-13
-2.82919e-12
1.20292e-12
-1.24818e-12
6.68001e-13
-3.4059e-12
1.53793e-12
-1.59913e-12
8.01676e-13
-3.97125e-12
1.92882e-12
-2.01074e-12
9.59531e-13
-4.50671e-12
2.38932e-12
-2.49879e-12
1.15431e-12
-4.97267e-12
2.93275e-12
-3.07965e-12
1.40658e-12
-5.29639e-12
3.57151e-12
-3.77074e-12
1.75251e-12
-5.35039e-12
4.31679e-12
-4.59226e-12
2.25974e-12
-4.9121e-12
5.1799e-12
-5.5736e-12
3.05657e-12
-3.58776e-12
6.17818e-12
-6.77183e-12
4.35649e-12
-7.02113e-13
7.34104e-12
-8.31137e-12
6.20856e-12
4.39275e-12
8.63701e-12
-1.03097e-11
1.2574e-11
1.07992e-11
-1.53568e-11
3.58752e-13
-6.93187e-13
3.9405e-13
-4.07067e-13
6.86862e-13
-2.01951e-12
1.16165e-12
-1.20061e-12
9.9904e-13
-3.2508e-12
1.91488e-12
-1.98094e-12
1.30895e-12
-4.43048e-12
2.70386e-12
-2.80078e-12
1.63022e-12
-5.58819e-12
3.57381e-12
-3.70809e-12
1.97773e-12
-6.73821e-12
4.56735e-12
-4.74875e-12
2.36944e-12
-7.8761e-12
5.72581e-12
-5.96837e-12
2.82907e-12
-8.9724e-12
7.08965e-12
-7.41328e-12
3.3906e-12
-9.96188e-12
8.69771e-12
-9.13096e-12
4.10627e-12
-1.0726e-11
1.05848e-11
-1.11701e-11
5.06195e-12
-1.10663e-11
1.27783e-11
-1.3582e-11
6.40568e-12
-1.067e-11
1.52944e-11
-1.6428e-11
8.38732e-12
-9.08532e-12
1.81356e-11
-1.9801e-11
1.13468e-11
-5.80042e-12
2.12731e-11
-2.3859e-11
1.51359e-11
-8.73674e-13
2.44776e-11
-2.85792e-11
5.04098e-12
2.69378e-11
-3.42835e-11
5.86639e-13
-1.01395e-12
6.45348e-13
-6.66647e-13
1.12266e-12
-2.95503e-12
1.90214e-12
-1.96588e-12
1.63153e-12
-4.76014e-12
3.13447e-12
-3.24245e-12
2.13488e-12
-6.49511e-12
4.42378e-12
-4.58201e-12
2.65418e-12
-8.20667e-12
5.84345e-12
-6.06237e-12
3.21253e-12
-9.92118e-12
7.46263e-12
-7.75793e-12
3.83698e-12
-1.16412e-11
9.34839e-12
-9.74245e-12
4.56178e-12
-1.33385e-11
1.15663e-11
-1.20906e-11
5.4329e-12
-1.49435e-11
1.41788e-11
-1.48779e-11
6.51491e-12
-1.63275e-11
1.72403e-11
-1.81787e-11
7.90173e-12
-1.72807e-11
2.07869e-11
-2.20621e-11
9.73166e-12
-1.74936e-11
2.4821e-11
-2.65867e-11
1.21906e-11
-1.65748e-11
2.92822e-11
-3.17922e-11
1.54285e-11
-1.41994e-11
3.39876e-11
-3.7667e-11
1.89997e-11
-1.06503e-11
3.84452e-11
-4.37979e-11
-6.69408e-12
4.20095e-11
-5.09951e-11
7.98376e-13
-1.30368e-12
8.80269e-13
-9.0927e-13
1.52683e-12
-3.80111e-12
2.59393e-12
-2.68066e-12
2.21617e-12
-6.12875e-12
4.27228e-12
-4.41907e-12
2.89462e-12
-8.37503e-12
6.02516e-12
-6.23995e-12
3.58995e-12
-1.06055e-11
7.95137e-12
-8.24803e-12
4.33143e-12
-1.28624e-11
1.0144e-11
-1.05433e-11
5.15225e-12
-1.51627e-11
1.26933e-11
-1.32247e-11
6.0924e-12
-1.74924e-11
1.56878e-11
-1.63923e-11
7.2016e-12
-1.97978e-11
1.92124e-11
-2.01471e-11
8.54207e-12
-2.1972e-11
2.33407e-11
-2.45864e-11
1.01899e-11
-2.38366e-11
2.81204e-11
-2.97948e-11
1.22312e-11
-2.51264e-11
3.35462e-11
-3.58251e-11
1.47364e-11
-2.54964e-11
3.95095e-11
-4.26639e-11
1.76679e-11
-2.46106e-11
4.57058e-11
-5.01572e-11
2.05171e-11
-2.25128e-11
5.14216e-11
-5.76201e-11
-1.95208e-11
5.57053e-11
-6.55608e-11
9.88897e-13
-1.55213e-12
1.09345e-12
-1.12937e-12
1.88946e-12
-4.52782e-12
3.221e-12
-3.32836e-12
2.73818e-12
-7.30824e-12
5.30142e-12
-5.48289e-12
3.56823e-12
-1.00038e-11
7.46899e-12
-7.7341e-12
4.41185e-12
-1.26995e-11
9.84423e-12
-1.02096e-11
5.3024e-12
-1.54563e-11
1.25404e-11
-1.30309e-11
6.27658e-12
-1.8311e-11
1.56677e-11
-1.63183e-11
7.37668e-12
-2.12736e-11
1.93345e-11
-2.01934e-11
8.65196e-12
-2.43221e-11
2.36459e-11
-2.47794e-11
1.0158e-11
-2.73947e-11
2.86964e-11
-3.01966e-11
1.19512e-11
-3.03766e-11
3.45534e-11
-3.65499e-11
1.40744e-11
-3.30813e-11
4.12246e-11
-4.3905e-11
1.65162e-11
-3.52213e-11
4.85937e-11
-5.22349e-11
1.91248e-11
-3.63772e-11
5.62871e-11
-6.13065e-11
2.13765e-11
-3.61306e-11
6.33712e-11
-7.01934e-11
-3.39171e-11
6.85542e-11
-7.9081e-11
1.15439e-12
-1.74951e-12
1.28062e-12
-1.32253e-12
2.20321e-12
-5.10644e-12
3.77066e-12
-3.89584e-12
3.18677e-12
-8.25164e-12
6.20056e-12
-6.41186e-12
4.14142e-12
-1.13155e-11
8.72434e-12
-9.03241e-12
5.10205e-12
-1.44015e-11
1.14796e-11
-1.19032e-11
6.10407e-12
-1.759e-11
1.45954e-11
-1.51622e-11
7.18552e-12
-2.09396e-11
1.81967e-11
-1.89456e-11
8.38898e-12
-2.44884e-11
2.24073e-11
-2.33915e-11
9.76246e-12
-2.82537e-11
2.7349e-11
-2.86406e-11
1.13579e-11
-3.22308e-11
3.31362e-11
-3.4834e-11
1.32262e-11
-3.63905e-11
3.98624e-11
-4.21034e-11
1.54042e-11
-4.0669e-11
4.75726e-11
-5.05506e-11
1.78811e-11
-4.49334e-11
5.61991e-11
-6.01962e-11
2.0521e-11
-4.88806e-11
6.54031e-11
-7.08444e-11
2.28155e-11
-5.1838e-11
7.41362e-11
-8.14466e-11
-5.22114e-11
8.08394e-11
-9.20953e-11
1.29245e-12
-1.88697e-12
1.43878e-12
-1.48566e-12
2.46354e-12
-5.51092e-12
4.23407e-12
-4.37397e-12
3.55553e-12
-8.91591e-12
6.95501e-12
-7.1908e-12
4.60613e-12
-1.22487e-11
9.77004e-12
-1.0113e-11
5.65102e-12
-1.56288e-11
1.28287e-11
-1.32989e-11
6.72575e-12
-1.91532e-11
1.62701e-11
-1.6897e-11
7.86777e-12
-2.29005e-11
2.02283e-11
-2.1053e-11
9.1183e-12
-2.69347e-11
2.48358e-11
-2.5914e-11
1.05236e-11
-3.13085e-11
3.0224e-11
-3.16307e-11
1.21351e-11
-3.60694e-11
3.65203e-11
-3.83568e-11
1.40092e-11
-4.12676e-11
4.38409e-11
-4.62465e-11
1.62059e-11
-4.69677e-11
5.22742e-11
-5.54447e-11
1.87791e-11
-5.32543e-11
6.18369e-11
-6.6057e-11
2.17265e-11
-6.01815e-11
7.23287e-11
-7.80358e-11
2.46355e-11
-6.73299e-11
8.27711e-11
-9.04028e-11
-7.43236e-11
9.15239e-11
-1.03546e-10
1.4021e-12
1.56638e-12
-1.61715e-12
-1.95714e-12
2.66888e-12
4.60676e-12
-4.75817e-12
-5.71957e-12
3.84266e-12
7.55765e-12
-7.81239e-12
-9.26515e-12
4.96072e-12
1.05962e-11
-1.09658e-11
-1.2752e-11
6.05779e-12
1.38784e-11
-1.43833e-11
-1.63106e-11
7.16769e-12
1.75475e-11
-1.82178e-11
-2.00505e-11
8.32528e-12
2.17397e-11
-2.26172e-11
-2.40649e-11
9.56827e-12
2.6588e-11
-2.77285e-11
-2.84355e-11
1.09388e-11
3.22227e-11
-3.37007e-11
-3.32377e-11
1.24848e-11
3.87703e-11
-4.06854e-11
-3.85472e-11
1.42634e-11
4.63496e-11
-4.88373e-11
-4.44508e-11
1.63463e-11
5.50638e-11
-5.83127e-11
-5.10612e-11
1.88239e-11
6.49745e-11
-6.9259e-11
-5.85313e-11
2.17677e-11
7.5993e-11
-8.17409e-11
-6.70265e-11
2.47932e-11
8.72328e-11
-9.4877e-11
-7.61123e-11
9.79226e-11
-1.1026e-10
-8.73965e-11
1.23172e-13
-3.60285e-13
1.23328e-13
2.35802e-13
-1.04955e-12
3.63441e-13
3.42934e-13
-1.68922e-12
5.9869e-13
4.4923e-13
-2.30182e-12
8.44485e-13
5.59256e-13
-2.90255e-12
1.11457e-12
6.77888e-13
-3.49834e-12
1.4216e-12
8.10896e-13
-4.08602e-12
1.77738e-12
9.65861e-13
-4.64894e-12
2.19265e-12
1.15373e-12
-5.15118e-12
2.67621e-12
1.39188e-12
-5.52787e-12
3.23303e-12
1.71059e-12
-5.66905e-12
3.86065e-12
2.16609e-12
-5.39261e-12
4.5429e-12
2.86263e-12
-4.40026e-12
5.23814e-12
3.95986e-12
-2.23996e-12
5.85453e-12
5.45966e-12
1.41025e-12
6.21342e-12
6.16846e-12
6.20502e-12
3.65997e-13
-7.09863e-13
3.66721e-13
7.0052e-13
-2.06834e-12
1.08062e-12
1.01839e-12
-3.3304e-12
1.77978e-12
1.3332e-12
-4.54134e-12
2.50985e-12
1.65829e-12
-5.73253e-12
3.3115e-12
2.00772e-12
-6.91999e-12
4.22221e-12
2.3979e-12
-8.10138e-12
5.27691e-12
2.84969e-12
-9.25053e-12
6.50738e-12
3.39199e-12
-1.03084e-11
7.93957e-12
4.06799e-12
-1.11691e-11
9.58763e-12
4.94749e-12
-1.16619e-11
1.14424e-11
6.14888e-12
-1.15334e-11
1.34509e-11
7.86603e-12
-1.04575e-11
1.54778e-11
1.03353e-11
-8.16188e-12
1.72373e-11
1.33772e-11
-4.91561e-12
1.82429e-11
-2.29694e-12
1.74011e-11
5.98567e-13
-1.03829e-12
6.00613e-13
1.14519e-12
-3.02633e-12
1.76954e-12
1.66354e-12
-4.87641e-12
2.9135e-12
2.17522e-12
-6.65709e-12
4.10669e-12
2.70126e-12
-8.41754e-12
5.41516e-12
3.26357e-12
-1.01865e-11
6.89981e-12
3.8869e-12
-1.19692e-11
8.61751e-12
4.60123e-12
-1.37414e-11
1.06202e-11
5.44493e-12
-1.54404e-11
1.29506e-11
6.46919e-12
-1.69512e-11
1.56323e-11
7.74472e-12
-1.80927e-11
1.8651e-11
9.36939e-12
-1.86152e-11
2.19193e-11
1.14617e-11
-1.82471e-11
2.52167e-11
1.40758e-11
-1.68752e-11
2.80984e-11
1.68167e-11
-1.49416e-11
2.98811e-11
-1.38095e-11
2.95925e-11
8.14809e-13
-1.33493e-12
8.19319e-13
1.55792e-12
-3.89267e-12
2.41331e-12
2.26053e-12
-6.27809e-12
3.9715e-12
2.9509e-12
-8.58313e-12
5.59401e-12
3.65631e-12
-1.08763e-11
7.36983e-12
4.40471e-12
-1.32029e-11
9.38105e-12
5.22661e-12
-1.55826e-11
1.17046e-11
6.15703e-12
-1.80053e-11
1.44114e-11
7.23671e-12
-2.04234e-11
1.7561e-11
8.51217e-12
-2.2741e-11
2.11895e-11
1.00324e-11
-2.48024e-11
2.52851e-11
1.18376e-11
-2.63881e-11
2.97444e-11
1.39249e-11
-2.72429e-11
3.42971e-11
1.61653e-11
-2.71904e-11
3.83985e-11
1.81231e-11
-2.64071e-11
4.12092e-11
-2.58278e-11
4.15966e-11
1.00959e-12
-1.5893e-12
1.01786e-12
1.92869e-12
-4.63673e-12
2.99708e-12
2.79438e-12
-7.48595e-12
4.92888e-12
3.64001e-12
-1.02515e-11
6.9357e-12
4.49745e-12
-1.30219e-11
9.12621e-12
5.39882e-12
-1.58614e-11
1.16005e-11
6.37821e-12
-1.88095e-11
1.44529e-11
7.47298e-12
-2.18793e-11
1.77709e-11
8.72348e-12
-2.50533e-11
2.16305e-11
1.01696e-11
-2.82763e-11
2.60831e-11
1.18408e-11
-3.14462e-11
3.11296e-11
1.37336e-11
-3.44003e-11
3.6672e-11
1.57628e-11
-3.68969e-11
4.24265e-11
1.76848e-11
-3.86012e-11
4.7787e-11
1.90434e-11
-3.91886e-11
5.17414e-11
-3.88312e-11
5.29053e-11
1.17901e-12
-1.79138e-12
1.19225e-12
2.24998e-12
-5.22916e-12
3.50907e-12
3.25402e-12
-8.45197e-12
5.76584e-12
4.22787e-12
-1.15949e-11
8.10308e-12
5.20626e-12
-1.47653e-11
1.0645e-11
6.22368e-12
-1.80469e-11
1.35059e-11
7.316e-12
-2.15009e-11
1.6793e-11
8.52164e-12
-2.51679e-11
2.06071e-11
9.88098e-12
-2.90675e-11
2.50381e-11
1.14327e-11
-3.31974e-11
3.01528e-11
1.32049e-11
-3.75313e-11
3.59714e-11
1.51947e-11
-4.2009e-11
4.24198e-11
1.73276e-11
-4.65016e-11
4.92383e-11
1.93841e-11
-5.07084e-11
5.5815e-11
2.09096e-11
-5.39755e-11
6.10016e-11
-5.51498e-11
6.31588e-11
1.32056e-12
-1.93213e-12
1.33972e-12
2.51703e-12
-5.64333e-12
3.94103e-12
3.6327e-12
-9.13218e-12
6.46868e-12
4.7059e-12
-1.25506e-11
9.07643e-12
5.77242e-12
-1.6022e-11
1.18994e-11
6.86733e-12
-1.96471e-11
1.5061e-11
8.02661e-12
-2.35069e-11
1.86767e-11
9.28849e-12
-2.76671e-11
2.28549e-11
1.06937e-11
-3.21811e-11
2.76934e-11
1.22842e-11
-3.70956e-11
3.32698e-11
1.41003e-11
-4.24572e-11
3.96211e-11
1.61743e-11
-4.83222e-11
4.67022e-11
1.85158e-11
-5.47554e-11
5.43001e-11
2.10619e-11
-6.17645e-11
6.18507e-11
2.34507e-11
-6.89039e-11
6.8146e-11
-7.53658e-11
7.13252e-11
1.43319e-12
1.4588e-12
-2.00401e-12
2.72812e-12
4.28877e-12
-5.85706e-12
3.92833e-12
7.03071e-12
-9.4899e-12
5.07195e-12
9.84649e-12
-1.30659e-11
6.19412e-12
1.28771e-11
-1.672e-11
7.32864e-12
1.62499e-11
-2.05651e-11
8.50963e-12
2.00826e-11
-2.46968e-11
9.77303e-12
2.44841e-11
-2.9198e-11
1.11576e-11
2.9552e-11
-3.41435e-11
1.27057e-11
3.53636e-11
-3.96063e-11
1.44646e-11
4.19592e-11
-4.5666e-11
1.64897e-11
4.93069e-11
-5.2421e-11
1.8844e-11
5.72265e-11
-5.99947e-11
2.15591e-11
6.52231e-11
-6.84905e-11
2.42887e-11
7.21126e-11
-7.74346e-11
7.59182e-11
-8.77489e-11
1.2501e-13
-3.67761e-13
1.09781e-13
2.39194e-13
-1.07148e-12
3.2339e-13
3.47524e-13
-1.72503e-12
5.32276e-13
4.54498e-13
-2.35178e-12
7.4984e-13
5.64387e-13
-2.96777e-12
9.87847e-13
6.81523e-13
-3.581e-12
1.25682e-12
8.10688e-13
-4.18985e-12
1.56603e-12
9.57691e-13
-4.7805e-12
1.92301e-12
1.13028e-12
-5.32268e-12
2.33214e-12
1.33991e-12
-5.76332e-12
2.79187e-12
1.6054e-12
-6.01793e-12
3.28965e-12
1.95988e-12
-5.95984e-12
3.79317e-12
2.45989e-12
-5.41055e-12
4.2362e-12
3.17673e-12
-4.15489e-12
4.50109e-12
4.0543e-12
-2.13938e-12
4.43927e-12
4.61289e-13
4.08448e-12
3.71494e-13
-7.24552e-13
3.26448e-13
7.10681e-13
-2.11142e-12
9.61561e-13
1.03217e-12
-3.40071e-12
1.5824e-12
1.34914e-12
-4.63938e-12
2.22867e-12
1.67405e-12
-5.86036e-12
2.93519e-12
2.01943e-12
-7.08158e-12
3.73313e-12
2.39889e-12
-8.30337e-12
4.65003e-12
2.82834e-12
-9.50429e-12
5.7083e-12
3.32779e-12
-1.06344e-11
6.92115e-12
3.9243e-12
-1.16065e-11
8.28447e-12
4.65766e-12
-1.22881e-11
9.76199e-12
5.58894e-12
-1.2503e-11
1.12602e-11
6.80389e-12
-1.20693e-11
1.25897e-11
8.36452e-12
-1.09326e-11
1.34257e-11
1.00375e-11
-9.45465e-12
1.33952e-11
-8.74531e-12
1.21839e-11
6.07689e-13
-1.0597e-12
5.3469e-13
1.16209e-12
-3.0891e-12
1.5747e-12
1.68661e-12
-4.97882e-12
2.5906e-12
2.20222e-12
-6.79973e-12
3.64697e-12
2.72868e-12
-8.60319e-12
4.80039e-12
3.28558e-12
-1.04203e-11
6.1016e-12
3.89354e-12
-1.22594e-11
7.59562e-12
4.57526e-12
-1.41015e-11
9.31949e-12
5.3563e-12
-1.58934e-11
1.12961e-11
6.2652e-12
-1.75393e-11
1.35214e-11
7.3325e-12
-1.88963e-11
1.59424e-11
8.58466e-12
-1.97876e-11
1.84199e-11
1.00199e-11
-2.00684e-11
2.06766e-11
1.15337e-11
-1.97937e-11
2.22584e-11
1.27651e-11
-1.9428e-11
2.26858e-11
-1.98775e-11
2.18647e-11
8.27506e-13
-1.36236e-12
7.2946e-13
1.58153e-12
-3.97304e-12
2.1478e-12
2.29301e-12
-6.40915e-12
3.53177e-12
2.9895e-12
-8.76548e-12
4.9685e-12
3.69678e-12
-1.11131e-11
6.53433e-12
4.44007e-12
-1.34997e-11
8.29778e-12
5.24504e-12
-1.5948e-11
1.03201e-11
6.13818e-12
-1.84521e-11
1.26524e-11
7.14556e-12
-2.09719e-11
1.53287e-11
8.28837e-12
-2.34258e-11
1.83497e-11
9.57224e-12
-2.56861e-11
2.16567e-11
1.09638e-11
-2.75862e-11
2.5088e-11
1.23444e-11
-2.89631e-11
2.8321e-11
1.34479e-11
-2.97669e-11
3.0835e-11
1.39074e-11
-3.02075e-11
3.20706e-11
-3.09031e-11
3.19022e-11
1.02576e-12
-1.62182e-12
9.06339e-13
1.95889e-12
-4.73203e-12
2.66772e-12
2.83629e-12
-7.64128e-12
4.38383e-12
3.69064e-12
-1.04674e-11
6.16131e-12
4.55231e-12
-1.33016e-11
8.09344e-12
5.45064e-12
-1.62104e-11
1.0264e-11
6.41476e-12
-1.92357e-11
1.27483e-11
7.47343e-12
-2.23929e-11
1.56105e-11
8.65233e-12
-2.5668e-11
1.88956e-11
9.9665e-12
-2.90123e-11
2.26134e-11
1.14037e-11
-3.23357e-11
2.67093e-11
1.28907e-11
-3.5499e-11
3.10176e-11
1.42344e-11
-3.8304e-11
3.51974e-11
1.50646e-11
-4.04879e-11
3.86824e-11
1.4991e-11
-4.17816e-11
4.0805e-11
-4.22203e-11
4.1324e-11
1.19849e-12
-1.82791e-12
1.0618e-12
2.28651e-12
-5.33619e-12
3.12396e-12
3.30515e-12
-8.62637e-12
5.12919e-12
4.29063e-12
-1.1837e-11
7.19992e-12
5.27636e-12
-1.50785e-11
9.44293e-12
6.29428e-12
-1.84362e-11
1.1954e-11
7.37576e-12
-2.1973e-11
1.48192e-11
8.55141e-12
-2.57295e-11
1.8113e-11
9.84845e-12
-2.97246e-11
2.18904e-11
1.12836e-11
-3.39538e-11
2.61706e-11
1.28481e-11
-3.8386e-11
3.09084e-11
1.44772e-11
-4.29522e-11
3.59455e-11
1.59981e-11
-4.75085e-11
4.09388e-11
1.70695e-11
-5.17381e-11
4.52879e-11
1.72801e-11
-5.49982e-11
4.82104e-11
-5.61076e-11
4.9345e-11
1.3431e-12
-1.97142e-12
1.19334e-12
2.55947e-12
-5.75845e-12
3.50918e-12
3.69255e-12
-9.31974e-12
5.75564e-12
4.78039e-12
-1.28109e-11
8.06679e-12
5.85777e-12
-1.63582e-11
1.05589e-11
6.95767e-12
-2.0064e-11
1.33357e-11
8.11234e-12
-2.40098e-11
1.64901e-11
9.35357e-12
-2.82596e-11
2.01026e-11
1.07113e-11
-3.28627e-11
2.42338e-11
1.22097e-11
-3.78563e-11
2.89096e-11
1.38591e-11
-4.32696e-11
3.40927e-11
1.56402e-11
-4.91247e-11
3.96341e-11
1.74775e-11
-5.54231e-11
4.51947e-11
1.91931e-11
-6.20661e-11
5.01443e-11
2.04409e-11
-6.85194e-11
5.35796e-11
-7.38437e-11
5.49917e-11
1.45844e-12
1.29966e-12
-2.04469e-12
2.77582e-12
3.81959e-12
-5.97627e-12
3.99605e-12
6.25715e-12
-9.68417e-12
5.15722e-12
8.75357e-12
-1.33356e-11
6.2938e-12
1.14304e-11
-1.70682e-11
7.43809e-12
1.43948e-11
-2.09963e-11
8.62137e-12
1.77419e-11
-2.52153e-11
9.87469e-12
2.15527e-11
-2.98055e-11
1.12286e-11
2.58876e-11
-3.48351e-11
1.27121e-11
3.07723e-11
-4.03643e-11
1.43498e-11
3.61706e-11
-4.6449e-11
1.6157e-11
4.19379e-11
-5.31442e-11
1.81284e-11
4.77416e-11
-6.04966e-11
2.01966e-11
5.29504e-11
-6.84865e-11
2.20229e-11
5.6596e-11
-7.65583e-11
5.77137e-11
-8.53767e-11
1.26299e-13
-3.74107e-13
9.24658e-14
2.41498e-13
-1.09009e-12
2.72287e-13
3.50429e-13
-1.75545e-12
4.47826e-13
4.57357e-13
-2.39424e-12
6.30118e-13
5.6615e-13
-3.02329e-12
8.2868e-13
6.80455e-13
-3.65155e-12
1.05175e-12
8.039e-13
-4.27896e-12
1.30615e-12
9.4031e-13
-4.89449e-12
1.59663e-12
1.094e-12
-5.47327e-12
1.92436e-12
1.27044e-12
-5.97283e-12
2.28426e-12
1.47774e-12
-6.32945e-12
2.66055e-12
1.72984e-12
-6.45577e-12
3.02046e-12
2.05008e-12
-6.24206e-12
3.30739e-12
2.46423e-12
-5.56759e-12
3.44174e-12
2.92583e-12
-4.39271e-12
3.36021e-12
-2.54557e-12
3.25084e-12
3.75381e-13
-7.37014e-13
2.74971e-13
7.17645e-13
-2.14797e-12
8.09645e-13
1.04101e-12
-3.46038e-12
1.3314e-12
1.35799e-12
-4.72256e-12
1.87293e-12
1.67989e-12
-5.96883e-12
2.46242e-12
2.01733e-12
-7.2188e-12
3.12429e-12
2.38062e-12
-8.47541e-12
3.87884e-12
2.78015e-12
-9.72174e-12
4.74031e-12
3.22648e-12
-1.09164e-11
5.71261e-12
3.73059e-12
-1.19886e-11
6.78151e-12
4.30473e-12
-1.28362e-11
7.90214e-12
4.96373e-12
-1.33356e-11
8.98135e-12
5.72205e-12
-1.3381e-11
9.86011e-12
6.56642e-12
-1.29766e-11
1.03207e-11
7.34398e-12
-1.23708e-11
1.02063e-11
-1.21637e-11
9.54787e-12
6.14222e-13
-1.07785e-12
4.50409e-13
1.17386e-12
-3.14228e-12
1.32602e-12
1.70173e-12
-5.06554e-12
2.17988e-12
2.21781e-12
-6.92036e-12
3.06516e-12
2.74014e-12
-8.75987e-12
4.02769e-12
3.28545e-12
-1.06172e-11
5.1073e-12
3.8695e-12
-1.25035e-11
6.33732e-12
4.50691e-12
-1.44046e-11
7.74165e-12
5.2098e-12
-1.62758e-11
9.32825e-12
5.98468e-12
-1.80372e-11
1.10774e-11
6.82653e-12
-1.95746e-11
1.29231e-11
7.70749e-12
-2.07577e-11
1.47287e-11
8.55557e-12
-2.15007e-11
1.62662e-11
9.22526e-12
-2.18835e-11
1.72374e-11
9.52051e-12
-2.22345e-11
1.74484e-11
-2.30598e-11
1.71334e-11
8.36741e-13
-1.38555e-12
6.14546e-13
1.59828e-12
-4.04098e-12
1.80882e-12
2.31486e-12
-6.51979e-12
2.9722e-12
3.01285e-12
-8.91898e-12
4.17647e-12
3.71602e-12
-1.13116e-11
5.48349e-12
4.44613e-12
-1.37473e-11
6.94718e-12
5.22314e-12
-1.62509e-11
8.61308e-12
6.06416e-12
-1.882e-11
1.05148e-11
6.98012e-12
-2.14202e-11
1.26662e-11
7.96818e-12
-2.39804e-11
1.50468e-11
8.99737e-12
-2.63911e-11
1.75806e-11
9.98265e-12
-2.85148e-11
2.0108e-11
1.07479e-11
-3.02234e-11
2.23664e-11
1.10158e-11
-3.14767e-11
2.40227e-11
1.06092e-11
-3.23907e-11
2.48508e-11
-3.33133e-11
2.50767e-11
1.03773e-12
-1.64926e-12
7.63663e-13
1.98076e-12
-4.81236e-12
2.24701e-12
2.86529e-12
-7.77192e-12
3.68985e-12
3.72282e-12
-1.06482e-11
5.18008e-12
4.58159e-12
-1.35343e-11
6.79338e-12
5.46735e-12
-1.64983e-11
8.59583e-12
6.40336e-12
-1.95832e-11
1.06437e-11
7.40887e-12
-2.28054e-11
1.29796e-11
8.49457e-12
-2.61518e-11
1.56242e-11
9.6525e-12
-2.95755e-11
1.85602e-11
1.08366e-11
-3.29895e-11
2.17091e-11
1.19284e-11
-3.62587e-11
2.4902e-11
1.26886e-11
-3.91878e-11
2.78579e-11
1.27486e-11
-4.15053e-11
3.02147e-11
1.18996e-11
-4.2902e-11
3.16884e-11
-4.32821e-11
3.24489e-11
1.21315e-12
-1.85865e-12
8.94791e-13
2.3135e-12
-5.42615e-12
2.63174e-12
3.34155e-12
-8.77247e-12
4.31801e-12
4.33242e-12
-1.20388e-11
6.05458e-12
5.31753e-12
-1.53371e-11
7.92819e-12
6.32545e-12
-1.8754e-11
1.00145e-11
7.38205e-12
-2.23517e-11
1.23781e-11
8.50922e-12
-2.61694e-11
1.50691e-11
9.72065e-12
-3.02217e-11
1.81138e-11
1.10128e-11
-3.44967e-11
2.14992e-11
1.23478e-11
-3.89496e-11
2.5148e-11
1.36223e-11
-4.34882e-11
2.88862e-11
1.46246e-11
-4.79308e-11
3.24159e-11
1.50156e-11
-5.19114e-11
3.5336e-11
1.45415e-11
-5.47713e-11
3.7289e-11
-5.53476e-11
3.84122e-11
1.36034e-12
-2.0044e-12
1.00583e-12
2.59144e-12
-5.85492e-12
2.9568e-12
3.73632e-12
-9.47631e-12
4.84639e-12
4.83211e-12
-1.30267e-11
6.7852e-12
5.9119e-12
-1.66342e-11
8.86783e-12
7.00576e-12
-2.0401e-11
1.11764e-11
8.14119e-12
-2.44076e-11
1.37808e-11
9.34253e-12
-2.87137e-11
1.67354e-11
1.06284e-11
-3.33604e-11
2.00699e-11
1.20063e-11
-3.837e-11
2.37736e-11
1.34625e-11
-4.37452e-11
2.77693e-11
1.49457e-11
-4.94633e-11
3.18771e-11
1.63459e-11
-5.54531e-11
3.57769e-11
1.74817e-11
-6.15192e-11
3.90075e-11
1.81372e-11
-6.70967e-11
4.11085e-11
-7.12766e-11
4.21864e-11
1.47806e-12
1.09564e-12
-2.07874e-12
2.81244e-12
3.21898e-12
-6.0759e-12
4.04681e-12
5.26983e-12
-9.84583e-12
5.21862e-12
7.36483e-12
-1.35583e-11
6.361e-12
9.60297e-12
-1.73524e-11
7.50391e-12
1.20694e-11
-2.13423e-11
8.67482e-12
1.48357e-11
-2.56211e-11
9.89882e-12
1.79568e-11
-3.02636e-11
1.11976e-11
2.1462e-11
-3.53276e-11
1.2587e-11
2.53393e-11
-4.08545e-11
1.40728e-11
2.95091e-11
-4.68686e-11
1.56443e-11
3.37861e-11
-5.33736e-11
1.72666e-11
3.78331e-11
-6.03376e-11
1.88628e-11
4.11416e-11
-6.76437e-11
2.02005e-11
4.31582e-11
-7.47335e-11
4.36566e-11
-8.21918e-11
1.2713e-13
-3.7923e-13
7.20682e-14
2.4291e-13
-1.10512e-12
2.12153e-13
3.52016e-13
-1.77999e-12
3.48702e-13
4.58454e-13
-2.42851e-12
4.90141e-13
5.65666e-13
-3.06807e-12
6.4362e-13
6.76627e-13
-3.7084e-12
8.15136e-13
7.93889e-13
-4.35065e-12
1.00935e-12
9.19558e-13
-4.98595e-12
1.22896e-12
1.05522e-12
-5.59324e-12
1.47348e-12
1.20204e-12
-6.13689e-12
1.73719e-12
1.36168e-12
-6.56475e-12
2.00628e-12
1.5388e-12
-6.80722e-12
2.25586e-12
1.74561e-12
-6.77605e-12
2.44934e-12
2.00304e-12
-6.36035e-12
2.54671e-12
2.29711e-12
-5.47436e-12
2.53159e-12
-3.79789e-12
2.5953e-12
3.77913e-13
-7.47076e-13
2.1432e-13
7.21984e-13
-2.17747e-12
6.30867e-13
1.04597e-12
-3.50852e-12
1.03676e-12
1.36162e-12
-4.7896e-12
1.45695e-12
1.67907e-12
-6.05609e-12
1.91263e-12
2.00701e-12
-7.3289e-12
2.42159e-12
2.35275e-12
-8.61298e-12
2.99773e-12
2.72186e-12
-9.89474e-12
3.64924e-12
3.11742e-12
-1.11387e-11
4.37507e-12
3.53914e-12
-1.2284e-11
5.15902e-12
3.98311e-12
-1.32448e-11
5.9618e-12
4.44361e-12
-1.39187e-11
6.71264e-12
4.91751e-12
-1.42147e-11
7.30798e-12
5.40471e-12
-1.411e-11
7.63481e-12
5.85912e-12
-1.37337e-11
7.6489e-12
-1.3473e-11
7.38834e-12
6.18564e-13
-1.09249e-12
3.51087e-13
1.18138e-12
-3.18518e-12
1.0333e-12
1.71054e-12
-5.1354e-12
1.69761e-12
2.2249e-12
-7.0173e-12
2.38462e-12
2.74071e-12
-8.88535e-12
3.12878e-12
3.27186e-12
-1.07742e-11
3.95916e-12
3.82964e-12
-1.26969e-11
4.89867e-12
4.42173e-12
-1.46425e-11
5.96131e-12
5.04974e-12
-1.65716e-11
7.14676e-12
5.70519e-12
-1.84134e-11
8.43155e-12
6.36359e-12
-2.00667e-11
9.75744e-12
6.97723e-12
-2.14158e-11
1.10203e-11
7.47048e-12
-2.23768e-11
1.20708e-11
7.75236e-12
-2.29843e-11
1.27527e-11
7.78698e-12
-2.34489e-11
1.30101e-11
-2.414e-11
1.30167e-11
8.4302e-13
-1.40424e-12
4.79077e-13
1.60929e-12
-4.09569e-12
1.40968e-12
2.32816e-12
-6.60867e-12
2.31492e-12
3.02467e-12
-9.04185e-12
3.24963e-12
3.72042e-12
-1.14696e-11
4.26035e-12
4.4338e-12
-1.39428e-11
5.38649e-12
5.1795e-12
-1.64877e-11
6.65951e-12
5.96662e-12
-1.91034e-11
8.09952e-12
6.79446e-12
-2.1758e-11
9.70854e-12
7.64461e-12
-2.43844e-11
1.146e-11
8.46798e-12
-2.6878e-11
1.32848e-11
9.16635e-12
-2.91043e-11
1.50602e-11
9.57706e-12
-3.09248e-11
1.66136e-11
9.50555e-12
-3.22572e-11
1.77714e-11
8.94452e-12
-3.31425e-11
1.84644e-11
-3.38677e-11
1.88506e-11
1.04605e-12
-1.67133e-12
5.95404e-13
1.99554e-12
-4.87689e-12
1.75142e-12
2.88374e-12
-7.87654e-12
2.87429e-12
3.74072e-12
-1.07922e-11
4.03119e-12
4.59247e-12
-1.37184e-11
5.2791e-12
5.46119e-12
-1.67236e-11
6.66642e-12
6.36469e-12
-1.98509e-11
8.23216e-12
7.31416e-12
-2.31161e-11
1.00022e-11
8.30906e-12
-2.65043e-11
1.1982e-11
9.32718e-12
-2.99651e-11
1.41446e-11
1.03079e-11
-3.34052e-11
1.64158e-11
1.11265e-11
-3.66771e-11
1.86617e-11
1.15688e-11
-3.95624e-11
2.06944e-11
1.13605e-11
-4.17541e-11
2.23226e-11
1.0452e-11
-4.29231e-11
2.34457e-11
-4.29975e-11
2.41895e-11
1.22357e-12
-1.88331e-12
6.97744e-13
2.33225e-12
-5.49821e-12
2.05161e-12
3.36566e-12
-8.88908e-12
3.36418e-12
4.35756e-12
-1.21988e-11
4.71264e-12
5.33721e-12
-1.55403e-11
6.16239e-12
6.3298e-12
-1.90001e-11
7.76894e-12
7.35608e-12
-2.26392e-11
9.57726e-12
8.43053e-12
-2.64932e-11
1.16179e-11
9.55687e-12
-3.05705e-11
1.38994e-11
1.07196e-11
-3.4848e-11
1.63951e-11
1.18698e-11
-3.92628e-11
1.90274e-11
1.29029e-11
-4.36938e-11
2.1652e-11
1.36362e-11
-4.79192e-11
2.4061e-11
1.38219e-11
-5.1535e-11
2.60311e-11
1.33467e-11
-5.39085e-11
2.74223e-11
-5.40181e-11
2.8364e-11
1.37284e-12
-2.03079e-12
7.84452e-13
2.6142e-12
-5.93199e-12
2.30541e-12
3.76635e-12
-9.60086e-12
3.77653e-12
4.86522e-12
-1.31972e-11
5.28246e-12
5.94201e-12
-1.68496e-11
6.89459e-12
7.02378e-12
-2.06598e-11
8.6733e-12
8.13355e-12
-2.47055e-11
1.06673e-11
9.28932e-12
-2.9041e-11
1.291e-11
1.05014e-11
-3.36972e-11
1.54112e-11
1.17677e-11
-3.86793e-11
1.8144e-11
1.30663e-11
-4.3963e-11
2.1026e-11
1.43466e-11
-4.94841e-11
2.39006e-11
1.5525e-11
-5.51163e-11
2.65306e-11
1.64992e-11
-6.06162e-11
2.86366e-11
1.71716e-11
-6.54651e-11
3.00166e-11
-6.89411e-11
3.08332e-11
1.49254e-12
8.54633e-13
-2.10595e-12
2.83908e-12
2.51024e-12
-6.15531e-12
4.0827e-12
4.10728e-12
-9.97406e-12
5.2599e-12
5.73505e-12
-1.37335e-11
6.40225e-12
7.4684e-12
-1.75731e-11
7.53722e-12
9.37004e-12
-2.1606e-11
8.68857e-12
1.149e-11
-2.59218e-11
9.87623e-12
1.3862e-11
-3.05885e-11
1.11152e-11
1.6495e-11
-3.56518e-11
1.24141e-11
1.93602e-11
-4.11333e-11
1.37723e-11
2.23707e-11
-4.70271e-11
1.51797e-11
2.53589e-11
-5.32928e-11
1.66212e-11
2.80616e-11
-5.98443e-11
1.80798e-11
3.01453e-11
-6.65227e-11
1.94174e-11
3.13373e-11
-7.28372e-11
3.16271e-11
-7.95096e-11
1.27607e-13
-3.83074e-13
4.93324e-14
2.43667e-13
-1.1164e-12
1.45191e-13
3.52708e-13
-1.79843e-12
2.38525e-13
4.58495e-13
-2.45424e-12
3.35018e-13
5.64098e-13
-3.10163e-12
4.39419e-13
6.71931e-13
-3.75083e-12
5.55611e-13
7.83722e-13
-4.40382e-12
6.86455e-13
9.00345e-13
-5.05301e-12
8.33335e-13
1.02165e-12
-5.67944e-12
9.95322e-13
1.14656e-12
-6.25069e-12
1.16793e-12
1.27423e-12
-6.71884e-12
1.34168e-12
1.40749e-12
-7.01825e-12
1.50119e-12
1.5599e-12
-7.05983e-12
1.62663e-12
1.76185e-12
-6.7186e-12
1.70041e-12
2.0213e-12
-5.87613e-12
1.71918e-12
-4.17865e-12
1.81969e-12
3.79404e-13
-7.5464e-13
1.46714e-13
7.24386e-13
-2.19965e-12
4.31765e-13
1.04826e-12
-3.54469e-12
7.09223e-13
1.36209e-12
-4.83989e-12
9.95907e-13
1.67496e-12
-6.12136e-12
1.30589e-12
1.99399e-12
-7.41085e-12
1.65071e-12
2.32414e-12
-8.71454e-12
2.03892e-12
2.66759e-12
-1.00208e-11
2.47475e-12
3.02273e-12
-1.12971e-11
2.95573e-12
3.38349e-12
-1.2487e-11
3.46911e-12
3.74034e-12
-1.35093e-11
3.98777e-12
4.08569e-12
-1.42632e-11
4.46772e-12
4.42711e-12
-1.46464e-11
4.85174e-12
4.80192e-12
-1.45954e-11
5.08688e-12
5.22626e-12
-1.41751e-11
5.1593e-12
-1.37273e-11
5.0689e-12
6.21206e-13
-1.1035e-12
2.40354e-13
1.18572e-12
-3.21743e-12
7.07248e-13
1.71495e-12
-5.18784e-12
1.1614e-12
2.22671e-12
-7.08989e-12
1.63017e-12
2.73568e-12
-8.97889e-12
2.13646e-12
3.25341e-12
-1.08903e-11
2.69914e-12
3.78774e-12
-1.28385e-11
3.33235e-12
4.34146e-12
-1.4814e-11
4.04346e-12
4.90975e-12
-1.67795e-11
4.82942e-12
5.47694e-12
-1.86669e-11
5.67137e-12
6.01331e-12
-2.03767e-11
6.52884e-12
6.47497e-12
-2.17893e-11
7.33644e-12
6.81374e-12
-2.27998e-11
8.01043e-12
7.00756e-12
-2.3393e-11
8.47468e-12
7.10263e-12
-2.37228e-11
8.70773e-12
-2.41552e-11
8.78772e-12
8.4697e-13
-1.41829e-12
3.28008e-13
1.61593e-12
-4.13677e-12
9.64964e-13
2.33537e-12
-6.67529e-12
1.58391e-12
3.02906e-12
-9.13357e-12
2.22177e-12
3.71673e-12
-1.15869e-11
2.90953e-12
4.41399e-12
-1.40866e-11
3.6728e-12
5.13146e-12
-1.66594e-11
4.53106e-12
5.87269e-12
-1.93046e-11
5.49512e-12
6.63008e-12
-2.19903e-11
6.56253e-12
7.37846e-12
-2.4648e-11
7.71111e-12
8.06632e-12
-2.71694e-11
8.89214e-12
8.60688e-12
-2.94094e-11
1.00274e-11
8.88006e-12
-3.12051e-11
1.1019e-11
8.77971e-12
-3.24325e-11
1.17814e-11
8.37713e-12
-3.31052e-11
1.2284e-11
-3.35423e-11
1.25894e-11
1.05144e-12
-1.68789e-12
4.077e-13
2.00481e-12
-4.92527e-12
1.19903e-12
2.89442e-12
-7.95474e-12
1.96688e-12
3.74901e-12
-1.08994e-11
2.7565e-12
4.5926e-12
-1.38541e-11
3.60583e-12
5.44447e-12
-1.68878e-11
4.5464e-12
6.31824e-12
-2.00427e-11
5.60243e-12
7.21956e-12
-2.33327e-11
6.78805e-12
8.14146e-12
-2.67396e-11
8.10213e-12
9.05648e-12
-3.02068e-11
9.52104e-12
9.9048e-12
-3.36302e-11
1.09909e-11
1.05793e-11
-3.68451e-11
1.24247e-11
1.09172e-11
-3.96078e-11
1.37135e-11
1.074e-11
-4.15856e-11
1.47603e-11
1.00663e-11
-4.24605e-11
1.55163e-11
-4.22314e-11
1.60265e-11
1.2305e-12
-1.90179e-12
4.77838e-13
2.34439e-12
-5.55212e-12
1.40473e-12
3.38039e-12
-8.976e-12
2.30243e-12
4.37095e-12
-1.23173e-11
3.22297e-12
5.34344e-12
-1.56894e-11
4.20993e-12
6.32023e-12
-1.91781e-11
5.29952e-12
7.31815e-12
-2.28425e-11
6.51972e-12
8.34661e-12
-2.67144e-11
7.88736e-12
9.40391e-12
-3.07953e-11
9.40249e-12
1.04709e-11
-3.50505e-11
1.10404e-11
1.15018e-11
-3.93999e-11
1.27428e-11
1.24125e-11
-4.36982e-11
1.44131e-11
1.30733e-11
-4.76967e-11
1.59259e-11
1.33292e-11
-5.09798e-11
1.71629e-11
1.31246e-11
-5.29636e-11
1.80555e-11
-5.27614e-11
1.86623e-11
1.38133e-12
-2.05053e-12
5.37287e-13
2.62935e-12
-5.98953e-12
1.57871e-12
3.7855e-12
-9.69344e-12
2.58501e-12
4.88458e-12
-1.3323e-11
3.61327e-12
5.95604e-12
-1.70068e-11
4.71114e-12
7.02444e-12
-2.08456e-11
5.91801e-12
8.10934e-12
-2.49138e-11
7.26431e-12
9.22444e-12
-2.92603e-11
8.76836e-12
1.03757e-11
-3.39063e-11
1.04306e-11
1.15585e-11
-3.88418e-11
1.22248e-11
1.27554e-11
-4.402e-11
1.40875e-11
1.39353e-11
-4.93476e-11
1.59102e-11
1.50632e-11
-5.46692e-11
1.75439e-11
1.61194e-11
-5.97363e-11
1.88316e-11
1.7056e-11
-6.41041e-11
1.96725e-11
-6.72114e-11
2.01695e-11
1.50255e-12
5.85427e-13
-2.12626e-12
2.85721e-12
1.7192e-12
-6.21447e-12
4.10639e-12
2.81181e-12
-1.00692e-11
5.28562e-12
3.92355e-12
-1.38624e-11
6.42501e-12
5.10442e-12
-1.77335e-11
7.54991e-12
6.39542e-12
-2.17941e-11
8.6812e-12
7.8278e-12
-2.61302e-11
9.83529e-12
9.42001e-12
-3.0803e-11
1.10238e-11
1.11718e-11
-3.58472e-11
1.22536e-11
1.30548e-11
-4.12677e-11
1.35282e-11
1.50012e-11
-4.70346e-11
1.4854e-11
1.6892e-11
-5.30785e-11
1.62553e-11