/*--------------------------------*- C++ -*----------------------------------*\
| =========                 |                                                 |
| \\      /  F ield         | OpenFOAM: The Open Source CFD Toolbox           |
|  \\    /   O peration     | Version:  v1912                                 |
|   \\  /    A nd           | Website:  www.openfoam.com                      |
|    \\/     M anipulation  |                                                 |
\*---------------------------------------------------------------------------*/
FoamFile
{
    version     2.0;
    format      ascii;
    class       volScalarField;
    location    "0.97/fluid";
    object      p;
}
// * * * * * * * * * * * * * * * * * * * * * * * * * * * * * * * * * * * * * //

dimensions      [0 2 -2 0 0 0 0];


internalField   nonuniform List<scalar> 
14592
(
0.0487983
0.0431696
0.041255
0.0396425
0.0387279
0.0380458
0.0375484
0.0371463
0.0367841
0.0365045
0.0361751
0.0360405
0.0356156
0.0358603
0.0351057
0.0368301
0.0446468
0.0428947
0.0412114
0.0398353
0.0389088
0.0381981
0.0376641
0.0372386
0.0368647
0.0365864
0.036266
0.0361608
0.0357684
0.0361392
0.0353215
0.0379664
0.0426493
0.0420377
0.0408011
0.0397903
0.0389433
0.0382607
0.0377153
0.0372799
0.0369019
0.0366325
0.0363367
0.036289
0.0359609
0.0365306
0.0357917
0.0392919
0.0414706
0.0413312
0.040473
0.0397167
0.0389669
0.0383184
0.0377607
0.0373033
0.0369051
0.0366285
0.0363421
0.0363404
0.0360786
0.0368314
0.0362127
0.0402635
0.0407699
0.0407557
0.0401333
0.0395442
0.0388838
0.038275
0.0377157
0.0372383
0.0368106
0.0365039
0.036188
0.0361734
0.0358966
0.0367246
0.0361373
0.0405824
0.0403191
0.0403409
0.039867
0.0393783
0.0387803
0.0381977
0.0376338
0.0371344
0.0366754
0.0363371
0.0359955
0.035983
0.0357337
0.0367236
0.0363189
0.0413564
0.0400237
0.04005
0.0396531
0.0392158
0.0386506
0.0380759
0.0374953
0.0369587
0.0364426
0.0360236
0.0355704
0.0354016
0.0349158
0.0356199
0.0346671
0.0398198
0.039846
0.0398726
0.0395076
0.0390893
0.0385322
0.03795
0.0373469
0.0367732
0.0362089
0.0357293
0.0352134
0.0349859
0.0344816
0.0353615
0.0346817
0.0422968
0.0487221
0.0430954
0.0412186
0.039648
0.0387873
0.0381648
0.0377345
0.0374069
0.0371305
0.0369458
0.0367304
0.0366919
0.0364061
0.0365672
0.0359435
0.036498
0.0445706
0.0428188
0.0411742
0.0398406
0.0389685
0.0383179
0.0378514
0.0375011
0.0372136
0.0370305
0.036823
0.0368089
0.0365403
0.0367759
0.0360644
0.0369984
0.0425689
0.0419557
0.0407564
0.0397878
0.0389954
0.0383737
0.0378968
0.0375375
0.0372463
0.037073
0.0368887
0.0369295
0.0367152
0.0371069
0.0364197
0.037833
0.0413875
0.041246
0.0404236
0.0397083
0.0390121
0.0384236
0.037934
0.0375523
0.0372403
0.03706
0.036884
0.0369709
0.0368147
0.0373688
0.0367618
0.0385087
0.0406836
0.040667
0.040079
0.0395296
0.0389212
0.0383706
0.0378772
0.0374731
0.0371282
0.0369141
0.0367017
0.0367705
0.0365808
0.0371931
0.0365579
0.0385803
0.0402298
0.0402493
0.0398089
0.0393583
0.0388107
0.038284
0.0377832
0.0373541
0.0369739
0.0367252
0.0364816
0.0365533
0.0363814
0.0371666
0.0366748
0.0392318
0.0399309
0.0399548
0.0395905
0.03919
0.0386732
0.0381514
0.03763
0.0371583
0.0367129
0.0363733
0.0360003
0.035898
0.0354424
0.035923
0.0347346
0.0373949
0.0397493
0.0397735
0.0394406
0.0390578
0.0385474
0.0380153
0.0374676
0.0369543
0.0364544
0.036048
0.0356035
0.0354443
0.0349614
0.0356773
0.0347183
0.039899
0.0486794
0.0430544
0.0412064
0.0396698
0.038855
0.0382861
0.0379199
0.0376684
0.037488
0.0374221
0.037376
0.0375406
0.0376081
0.0381
0.0382577
0.0389296
0.044528
0.0427766
0.0411616
0.0398625
0.039037
0.0384406
0.0380388
0.0377655
0.0375754
0.037513
0.0374774
0.0376684
0.0377572
0.038318
0.0384408
0.0393912
0.042522
0.0419078
0.0407369
0.0398022
0.0390565
0.0384898
0.0380786
0.0377972
0.0376041
0.0375527
0.0375413
0.0377911
0.0379414
0.0386671
0.0388601
0.0402331
0.0413375
0.0411946
0.0403991
0.0397166
0.0390661
0.0385322
0.0381075
0.0378035
0.0375894
0.0375319
0.0375294
0.0378306
0.0380444
0.0389464
0.0392485
0.0409327
0.04063
0.0406117
0.0400493
0.0395313
0.038967
0.0384693
0.0380389
0.0377103
0.0374598
0.0373657
0.037321
0.0376021
0.0377725
0.0387365
0.0389939
0.0409425
0.0401729
0.0401906
0.0397749
0.0393545
0.0388491
0.038373
0.0379326
0.0375758
0.0372858
0.037153
0.0370701
0.0373522
0.0375268
0.0386724
0.0390389
0.0415249
0.0398702
0.0398924
0.0395519
0.0391803
0.0387037
0.0382295
0.0377644
0.0373595
0.0369957
0.0367607
0.0365274
0.0366114
0.0364416
0.0372369
0.0367245
0.0392796
0.0396846
0.0397072
0.0393974
0.0390424
0.0385704
0.038083
0.0375877
0.0371359
0.0367097
0.0363979
0.0360757
0.0360864
0.0358448
0.0368631
0.0364397
0.0415298
0.0486582
0.0430343
0.0412079
0.0396973
0.0389183
0.0383906
0.0380727
0.037875
0.0377572
0.0377554
0.0377875
0.0380044
0.0381584
0.038609
0.0388327
0.0392809
0.0445069
0.0427557
0.0411629
0.0398903
0.0391011
0.0385463
0.0381932
0.0379741
0.0378471
0.037849
0.0378912
0.0381318
0.0383007
0.0387971
0.0389834
0.0396131
0.042497
0.041882
0.040732
0.0398233
0.0391141
0.0385897
0.0382277
0.0380011
0.037871
0.0378837
0.0379474
0.0382419
0.0384621
0.0390979
0.0393224
0.0402828
0.0413095
0.0411654
0.0403897
0.0397322
0.0391174
0.0386251
0.0382492
0.0379996
0.0378476
0.0378536
0.0379238
0.038267
0.0385415
0.0393376
0.0396463
0.0408696
0.0405983
0.0405787
0.0400351
0.0395408
0.0390107
0.0385533
0.03817
0.037894
0.037703
0.0376696
0.0376919
0.0380102
0.0382269
0.0390725
0.0392988
0.0407592
0.0401379
0.0401543
0.0397565
0.0393587
0.0388858
0.0384484
0.0380529
0.0377465
0.0375127
0.0374381
0.037417
0.0377349
0.0379442
0.0389705
0.0392731
0.0412583
0.0398316
0.0398525
0.0395292
0.039179
0.0387333
0.0382955
0.0378724
0.0375141
0.0372011
0.0370183
0.0368361
0.0369476
0.0367877
0.037457
0.0368148
0.0388592
0.0396424
0.0396637
0.0393705
0.0390361
0.0385932
0.0381403
0.0376841
0.0372755
0.0368954
0.0366313
0.0363531
0.0363901
0.0361459
0.0370521
0.0364594
0.0410256
0.0486508
0.043028
0.041218
0.0397281
0.038978
0.0384846
0.0382085
0.0380591
0.0380008
0.0380652
0.0381849
0.0384844
0.0387696
0.0392888
0.0396854
0.0400778
0.0444996
0.0427487
0.041173
0.0399215
0.0391617
0.0386417
0.0383308
0.0381607
0.038094
0.0381635
0.038295
0.0386191
0.0389213
0.0394782
0.0398444
0.0403813
0.0424864
0.0418709
0.0407371
0.0398491
0.0391694
0.0386803
0.038361
0.0381839
0.0381142
0.0381944
0.038346
0.0387218
0.0390696
0.0397549
0.0401488
0.0409734
0.0412962
0.0411514
0.0403908
0.0397531
0.0391672
0.0387098
0.0383761
0.0381758
0.0380836
0.0381569
0.0383134
0.038737
0.0391343
0.0399735
0.0404407
0.0415095
0.0405817
0.0405613
0.0400318
0.0395563
0.0390538
0.0386301
0.0382877
0.0380595
0.037926
0.0379577
0.0380617
0.038457
0.0387863
0.0396682
0.0400294
0.0413234
0.0401183
0.0401339
0.0397496
0.0393695
0.0389229
0.0385176
0.0381611
0.0379003
0.0377212
0.0377087
0.0377642
0.0381561
0.0384669
0.0395261
0.0399363
0.0417481
0.0398088
0.0398289
0.0395184
0.039185
0.0387641
0.0383565
0.0379697
0.0376537
0.0373904
0.0372639
0.0371482
0.0373246
0.0372428
0.0379314
0.0373386
0.0391911
0.0396163
0.0396368
0.039356
0.0390375
0.0386181
0.0381934
0.037771
0.0374013
0.0370659
0.0368527
0.0366317
0.0367259
0.0365396
0.0374575
0.0368618
0.0412135
0.0486502
0.0430281
0.0412296
0.0397544
0.0390245
0.0385551
0.0383071
0.0381885
0.0381655
0.0382638
0.038423
0.0387447
0.0390645
0.0395639
0.0399767
0.0403179
0.044499
0.0427484
0.0411846
0.0399481
0.039209
0.0387131
0.0384306
0.0382916
0.0382606
0.0383642
0.0385355
0.038881
0.0392167
0.0397471
0.0401259
0.0405883
0.0424833
0.0418674
0.0407449
0.0398716
0.0392126
0.038748
0.0384574
0.0383117
0.0382775
0.0383913
0.0385805
0.0389742
0.0393481
0.0399941
0.0403858
0.0411081
0.0412909
0.0411456
0.0403955
0.0397719
0.0392061
0.0387729
0.0384675
0.0382984
0.0382411
0.0383474
0.0385396
0.0389788
0.0393959
0.0401873
0.0406384
0.0415927
0.0405738
0.0405527
0.0400331
0.0395708
0.0390877
0.0386872
0.0383722
0.0381741
0.0380738
0.0381369
0.0382732
0.0386811
0.0390219
0.0398489
0.0401751
0.0413471
0.0401079
0.0401229
0.0397479
0.0393802
0.0389521
0.0385689
0.0382384
0.0380064
0.0378585
0.0378758
0.0379604
0.038363
0.0386781
0.0396792
0.0400359
0.0417221
0.0397958
0.0398153
0.0395136
0.039192
0.0387884
0.0384016
0.0380391
0.0377498
0.0375149
0.0374154
0.0373238
0.0375078
0.0374199
0.0380467
0.0373738
0.0390903
0.0396009
0.0396207
0.0393484
0.039041
0.0386379
0.0382328
0.037833
0.037488
0.0371784
0.0369896
0.0367886
0.036889
0.0366895
0.0375461
0.0368502
0.041053
0.0486524
0.0430308
0.0412401
0.0397747
0.0390587
0.0386058
0.0383778
0.0382818
0.0382858
0.0384118
0.0386053
0.0389538
0.0393122
0.0398205
0.0402653
0.0405843
0.0445012
0.0427508
0.0411951
0.0399687
0.0392436
0.0387646
0.0385023
0.0383864
0.0383828
0.0385148
0.0387213
0.0390942
0.0394695
0.0400073
0.0404182
0.0408458
0.0424838
0.0418677
0.0407527
0.0398893
0.0392445
0.038797
0.038527
0.0384046
0.0383977
0.0385398
0.0387631
0.0391823
0.0395918
0.0402381
0.0406544
0.0413272
0.0412899
0.0411443
0.0404013
0.0397871
0.0392352
0.0388187
0.0385337
0.0383877
0.0383574
0.0384917
0.0387167
0.0391803
0.0396294
0.0404169
0.0408849
0.0417836
0.040571
0.0405496
0.0400364
0.039583
0.0391131
0.0387289
0.0384335
0.0382578
0.0381834
0.0382733
0.0384402
0.0388705
0.0392381
0.0400568
0.0403884
0.0415009
0.0401034
0.040118
0.0397491
0.0393899
0.0389742
0.0386065
0.0382946
0.0380839
0.0379605
0.0380033
0.038116
0.0385393
0.0388757
0.0398655
0.0402151
0.0418396
0.0397895
0.0398086
0.0395127
0.0391989
0.0388071
0.0384348
0.0380897
0.0378203
0.0376077
0.0375314
0.037464
0.0376657
0.0375915
0.0382027
0.0375038
0.0391502
0.0395927
0.0396123
0.0393455
0.0390455
0.0386534
0.0382619
0.0378782
0.0375515
0.0372619
0.0370941
0.0369137
0.037029
0.036836
0.0376736
0.0369349
0.0410589
0.0486539
0.0430331
0.0412454
0.0397851
0.0390754
0.0386302
0.0384111
0.0383245
0.0383389
0.0384742
0.038678
0.0390304
0.0393957
0.0398966
0.0403439
0.0406542
0.0445031
0.0427526
0.0412006
0.0399792
0.0392607
0.0387893
0.0385359
0.0384293
0.0384361
0.0385772
0.0387935
0.0391697
0.0395508
0.0400796
0.0404927
0.0409069
0.0424846
0.0418685
0.0407571
0.0398984
0.0392602
0.0388204
0.0385593
0.0384462
0.0384494
0.0386
0.0388318
0.0392525
0.0396647
0.0402976
0.0407123
0.0413659
0.04129
0.0411441
0.0404045
0.0397948
0.0392493
0.0388405
0.0385643
0.0384275
0.0384069
0.0385494
0.0387822
0.0392461
0.0396957
0.0404669
0.0409291
0.0418059
0.0405701
0.0405484
0.0400385
0.0395892
0.0391255
0.0387486
0.0384617
0.0382949
0.0382299
0.0383275
0.0385012
0.038931
0.0392968
0.0400971
0.0404176
0.0415064
0.0401017
0.040116
0.0397501
0.0393948
0.038985
0.0386242
0.0383205
0.0381183
0.0380037
0.0380538
0.0381723
0.0385946
0.038927
0.0398967
0.040229
0.041828
0.0397868
0.0398057
0.0395126
0.0392025
0.0388162
0.0384505
0.038113
0.0378515
0.037647
0.0375775
0.0375151
0.0377155
0.0376356
0.0382261
0.0375038
0.0391213
0.0395892
0.0396085
0.0393444
0.0390479
0.038661
0.0382757
0.037899
0.0375797
0.0372976
0.0371358
0.0369595
0.0370729
0.0368721
0.0376872
0.0369172
0.0410042
0.0580481
0.0472884
0.0436163
0.0406005
0.0388609
0.0375245
0.0365091
0.035611
0.0347571
0.0338929
0.032934
0.031894
0.0306356
0.0292725
0.0275528
0.0257952
0.0537899
0.0465493
0.0432598
0.0405273
0.038839
0.0375256
0.0365169
0.0356226
0.034774
0.0339196
0.0329712
0.0319448
0.0307007
0.029356
0.0276504
0.0259029
0.0517738
0.0454952
0.0426065
0.0402072
0.0386465
0.0374162
0.0364472
0.0355756
0.0347418
0.0339043
0.0329738
0.0319679
0.0307528
0.0294418
0.0277765
0.0260627
0.0505249
0.0446877
0.0421344
0.0399666
0.0385218
0.037359
0.036417
0.0355553
0.0347237
0.0338874
0.0329605
0.0319618
0.0307618
0.0294702
0.0278325
0.0261454
0.0497779
0.0440707
0.041723
0.0397092
0.038364
0.0372647
0.036353
0.0355045
0.0346759
0.0338378
0.0329103
0.0319124
0.0307214
0.029442
0.0278294
0.0261681
0.0492965
0.0436385
0.0414261
0.03951
0.0382361
0.0371813
0.0362906
0.0354489
0.0346183
0.0337736
0.0328411
0.0318395
0.0306543
0.029384
0.0277975
0.0261638
0.0489921
0.043348
0.0412082
0.0393462
0.0381158
0.0370878
0.0362097
0.0353696
0.0345332
0.033678
0.032736
0.0317243
0.0305386
0.0292693
0.0277086
0.0261031
0.0488222
0.0431826
0.041075
0.039236
0.0380236
0.0370047
0.0361286
0.0352839
0.0344385
0.0335721
0.0326216
0.031602
0.0304204
0.0291572
0.0276309
0.02606
0.0537918
0.0465492
0.0432575
0.0405216
0.0388283
0.0375082
0.0364906
0.0355901
0.0347309
0.0338584
0.0328882
0.0318398
0.0305648
0.0291972
0.0274527
0.0257122
0.0496114
0.0461772
0.0430935
0.0405866
0.0389035
0.0375749
0.0365362
0.0356208
0.0347529
0.0338772
0.0329071
0.0318624
0.0305946
0.0292417
0.0275135
0.0257856
0.0475945
0.0452196
0.042521
0.0403417
0.0387624
0.037498
0.0364832
0.0355811
0.0347213
0.0338543
0.0328957
0.0318653
0.0306205
0.029293
0.0275982
0.025904
0.0463612
0.0444349
0.0420836
0.0401377
0.0386683
0.0374645
0.03647
0.0355719
0.0347085
0.0338385
0.0328807
0.031855
0.0306236
0.0293137
0.0276447
0.0259745
0.0456204
0.0438148
0.0416794
0.0398897
0.0385191
0.0373772
0.0364121
0.0355255
0.0346631
0.0337908
0.0328322
0.0318073
0.0305851
0.0292872
0.0276428
0.0259977
0.0451426
0.0433768
0.0413831
0.0396926
0.0383937
0.0372964
0.036353
0.0354731
0.0346087
0.0337308
0.0327688
0.0317422
0.0305281
0.0292415
0.0276258
0.0260086
0.0448396
0.043082
0.0411639
0.0395285
0.0382735
0.0372035
0.0362734
0.0353958
0.0345265
0.0336397
0.0326699
0.031635
0.030423
0.029139
0.0275522
0.0259626
0.0446704
0.0429149
0.0410306
0.0394188
0.0381823
0.0371221
0.0361944
0.035313
0.0344365
0.0335403
0.0325648
0.0315249
0.0303211
0.0290468
0.0274995
0.0259448
0.0518022
0.0455229
0.0426417
0.0402502
0.0386989
0.037478
0.0365184
0.0356649
0.0348375
0.0339914
0.0330347
0.032001
0.0306993
0.0293139
0.0274213
0.0255964
0.0476224
0.0452488
0.0425613
0.0403948
0.0388316
0.0375854
0.0365924
0.0357179
0.0348781
0.0340251
0.0330666
0.0320359
0.0307412
0.0293719
0.0274975
0.0256887
0.0456012
0.0443594
0.0420804
0.0402532
0.0387704
0.0375631
0.0365735
0.0357024
0.0348658
0.0340159
0.0330663
0.0320477
0.030775
0.0294272
0.0275758
0.0257851
0.0443835
0.0436096
0.0416966
0.0401128
0.0387321
0.0375731
0.0365905
0.0357143
0.0348682
0.0340099
0.0330581
0.0320425
0.0307827
0.0294516
0.0276231
0.0258542
0.0436533
0.0430036
0.0413197
0.0398993
0.0386149
0.0375117
0.0365506
0.035679
0.0348285
0.0339631
0.0330071
0.0319894
0.0307368
0.0294153
0.02761
0.0258653
0.043183
0.0425709
0.0410351
0.0397177
0.038505
0.0374436
0.0364998
0.0356303
0.034774
0.0339001
0.0329388
0.0319183
0.0306753
0.0293674
0.0275984
0.0258886
0.0428834
0.0422771
0.04082
0.0395596
0.0383909
0.0373552
0.036421
0.0355497
0.0346852
0.0337986
0.032826
0.0317929
0.0305497
0.0292419
0.0275114
0.025837
0.0427149
0.0421096
0.0406875
0.0394513
0.038301
0.0372739
0.0363395
0.0354613
0.0345873
0.0336893
0.0327094
0.0316698
0.0304379
0.0291436
0.0274709
0.0258458
0.0505834
0.0447462
0.042215
0.0400734
0.0386623
0.0375361
0.0366332
0.035821
0.0350229
0.0342074
0.0332676
0.032257
0.030917
0.0295106
0.0273839
0.0254267
0.0464195
0.044495
0.0421706
0.0402573
0.0388299
0.0376727
0.0367313
0.0358926
0.0350771
0.0342524
0.0333098
0.0323028
0.0309714
0.029584
0.0274731
0.0255342
0.0444133
0.0436393
0.0417425
0.0401797
0.0388267
0.0376979
0.0367491
0.0359046
0.0350853
0.0342596
0.0333241
0.0323283
0.0310172
0.0296465
0.0275388
0.0255869
0.0432128
0.0429135
0.0413917
0.0400795
0.0388262
0.0377395
0.0367893
0.0359324
0.0350983
0.0342607
0.0333216
0.0323282
0.0310299
0.0296744
0.0275802
0.0256394
0.0424952
0.042322
0.0410346
0.0398901
0.0387319
0.0376964
0.0367611
0.0359031
0.0350599
0.034211
0.0332645
0.0322658
0.0309718
0.0296221
0.0275469
0.0256265
0.0420334
0.041897
0.0407598
0.0397197
0.0386323
0.0376357
0.0367131
0.0358531
0.0350009
0.0341405
0.033187
0.0321847
0.0309027
0.0295709
0.027544
0.0256707
0.0417378
0.0416065
0.0405487
0.0395658
0.0385213
0.0375477
0.036631
0.0357652
0.0349006
0.0340223
0.033052
0.03203
0.030744
0.0294072
0.0274346
0.0256106
0.0415701
0.0414393
0.0404164
0.0394574
0.0384304
0.0374635
0.0365437
0.0356681
0.0347912
0.0338978
0.0329178
0.0318874
0.0306177
0.0293018
0.0274199
0.0256755
0.0498704
0.0441651
0.0418605
0.0399004
0.038626
0.0376072
0.0367837
0.0360392
0.0353014
0.0345528
0.033669
0.0327326
0.0313922
0.0300193
0.0275956
0.0254791
0.0457131
0.04391
0.0418234
0.0400948
0.0388048
0.0377551
0.0368927
0.0361205
0.0353651
0.0346085
0.0337239
0.0327949
0.0314672
0.0301212
0.0277109
0.0256077
0.0437161
0.0430662
0.0414204
0.0400505
0.0388347
0.0378097
0.0369359
0.036153
0.0353901
0.0346318
0.0337553
0.0328395
0.0315324
0.0301992
0.02776
0.0255936
0.042528
0.0423544
0.0410886
0.0399738
0.0388572
0.0378704
0.0369906
0.0361907
0.0354093
0.0346378
0.033758
0.0328467
0.0315542
0.0302382
0.0277992
0.0256288
0.0418205
0.0417737
0.0407456
0.0398009
0.0387787
0.0378395
0.0369696
0.0361633
0.035368
0.0345807
0.0336897
0.0327694
0.0314778
0.0301644
0.0277385
0.0255849
0.0413658
0.0413557
0.0404787
0.0396389
0.0386862
0.037783
0.0369213
0.0361086
0.0352999
0.0344971
0.0335962
0.032671
0.0313944
0.030107
0.0277476
0.0256633
0.0410735
0.0410682
0.0402708
0.0394878
0.0385765
0.0376933
0.036833
0.0360091
0.0351812
0.0343517
0.033424
0.0324659
0.0311745
0.0298691
0.027583
0.0255692
0.0409057
0.0409008
0.0401381
0.0393782
0.0384829
0.0376037
0.0367366
0.0358985
0.0350529
0.0342017
0.0332585
0.0322855
0.0310135
0.029737
0.0275886
0.0257123
0.0494136
0.0437589
0.0416148
0.0397843
0.0386252
0.0377022
0.036957
0.0362846
0.0356143
0.0349422
0.0341227
0.0332703
0.0319187
0.0305699
0.027707
0.025363
0.0452597
0.0434965
0.0415772
0.0399804
0.0388067
0.037854
0.03707
0.03637
0.0356832
0.0350049
0.0341869
0.0333465
0.0320121
0.0306986
0.0278258
0.0254426
0.0432679
0.0426545
0.0411816
0.0399478
0.03885
0.0379224
0.0371255
0.0364125
0.0357177
0.0350388
0.0342312
0.0334079
0.0320927
0.0307846
0.0278149
0.0252552
0.0420874
0.0419493
0.0408578
0.0398805
0.0388817
0.0379907
0.0371852
0.0364522
0.0357374
0.0350452
0.0342357
0.0334203
0.0321212
0.0308315
0.0278297
0.0252191
0.0413864
0.0413748
0.0405216
0.0397148
0.0388095
0.0379636
0.0371647
0.0364211
0.0356882
0.0349763
0.0341513
0.033323
0.0320189
0.0307271
0.0277233
0.0251147
0.0409361
0.040961
0.0402587
0.0395561
0.0387188
0.0379061
0.0371124
0.0363586
0.0356079
0.0348765
0.034039
0.0332056
0.0319214
0.0306695
0.0277583
0.0252532
0.0406455
0.040675
0.0400519
0.039405
0.0386072
0.0378113
0.0370154
0.0362449
0.0354672
0.0346992
0.0338225
0.0329388
0.0316238
0.0303345
0.027524
0.0251235
0.0404767
0.0405064
0.0399175
0.0392927
0.0385092
0.0377144
0.0369086
0.0361196
0.0353182
0.0345216
0.0336236
0.0327205
0.0314338
0.0301975
0.0276096
0.0254752
0.0491169
0.0434781
0.0414388
0.0397021
0.0386408
0.0378084
0.0371497
0.0365678
0.0359953
0.0354461
0.0347656
0.0341155
0.0329382
0.0319014
0.0288913
0.0266622
0.0449645
0.0432098
0.0413986
0.0398968
0.0388221
0.0379607
0.0372636
0.0366559
0.0360688
0.0355164
0.0348407
0.0342095
0.0330564
0.0320694
0.0290198
0.0266925
0.042973
0.0423644
0.0410014
0.0398645
0.0388671
0.0380322
0.0373222
0.0367016
0.0361076
0.0355573
0.0348963
0.0342914
0.0331632
0.0321995
0.0290109
0.0264377
0.0417958
0.0416612
0.0406793
0.0397988
0.0388998
0.0381008
0.0373805
0.0367386
0.0361242
0.0355621
0.0349025
0.0343143
0.0332119
0.0322892
0.0290539
0.0264053
0.0410975
0.0410888
0.0403449
0.0396344
0.0388277
0.0380718
0.0373551
0.036699
0.0360625
0.0354769
0.0347975
0.0341943
0.0330831
0.0321652
0.0289177
0.0262673
0.040649
0.0406767
0.0400831
0.0394756
0.0387352
0.03801
0.0372953
0.0366245
0.0359657
0.0353562
0.0346603
0.0340522
0.0329652
0.0321101
0.0289834
0.0264878
0.0403582
0.0403904
0.0398754
0.0393224
0.0386193
0.0379078
0.0371862
0.0364917
0.0357963
0.0351364
0.0343811
0.0336934
0.0325352
0.0315912
0.0285428
0.0261705
0.0401872
0.0402197
0.0397381
0.0392062
0.0385154
0.037802
0.0370667
0.0363471
0.0356201
0.0349208
0.034132
0.0334108
0.0322736
0.031396
0.0286349
0.0267406
0.0489226
0.0432905
0.0413242
0.0396574
0.0386755
0.037921
0.0373417
0.0368439
0.0363624
0.0359211
0.0353557
0.0348504
0.0337685
0.0328537
0.0294512
0.026807
0.0447708
0.0430183
0.041282
0.0398508
0.0388565
0.038073
0.037456
0.0369337
0.0364387
0.0359961
0.0354368
0.0349531
0.0338896
0.0330073
0.0293948
0.0262143
0.0427771
0.0421674
0.0408791
0.0398134
0.0388978
0.0381416
0.037512
0.0369782
0.0364776
0.0360396
0.0354976
0.0350465
0.0340025
0.0331348
0.0292372
0.0253719
0.0416
0.0414634
0.0405549
0.0397449
0.0389272
0.038206
0.0375648
0.0370092
0.036488
0.0360395
0.0355009
0.0350734
0.0340573
0.0332376
0.0292286
0.0250834
0.0409015
0.0408904
0.0402189
0.0395776
0.0388507
0.0381712
0.037531
0.0369581
0.0364109
0.0359353
0.0353714
0.0349257
0.033891
0.0330761
0.0290281
0.0248134
0.0404527
0.0404777
0.0399557
0.0394162
0.0387535
0.0381027
0.0374614
0.0368701
0.0362965
0.0357934
0.0352096
0.0347619
0.0337571
0.033037
0.0291555
0.0251287
0.0401601
0.0401897
0.0397455
0.0392589
0.0386313
0.0379914
0.0373388
0.0367174
0.0360981
0.0355317
0.0348686
0.0343134
0.033193
0.0323319
0.0285034
0.0245596
0.0399861
0.0400159
0.0396044
0.0391379
0.0385206
0.0378762
0.0372059
0.036554
0.0358963
0.0352827
0.0345782
0.0339876
0.0329002
0.0321766
0.0287859
0.025635
0.0397705
0.0397982
0.0394282
0.0389982
0.0384212
0.0378114
0.0371693
0.036539
0.0358957
0.0352911
0.0345885
0.0339944
0.0328891
0.0321381
0.0286706
0.0254082
0.0397985
0.039827
0.0394148
0.0389482
0.0383308
0.0376788
0.0369958
0.0363176
0.0356191
0.0349388
0.0341573
0.033435
0.0322774
0.0313696
0.0285288
0.0265508
0.0399466
0.0399707
0.0394673
0.0389279
0.0382459
0.0375399
0.0368064
0.0360746
0.0353143
0.0345449
0.0336584
0.0327547
0.0314451
0.0301742
0.0275081
0.0252985
0.0402641
0.0402531
0.0395875
0.0389271
0.0381514
0.0373838
0.0366122
0.0358452
0.0350506
0.0342344
0.0333077
0.0323367
0.0310444
0.0297354
0.0275196
0.0255778
0.0408405
0.0407036
0.0397856
0.0389371
0.0380454
0.037204
0.0363987
0.0356087
0.0347906
0.0339387
0.0329795
0.0319533
0.030666
0.0293195
0.0273791
0.0255756
0.0419245
0.0413144
0.0400043
0.0388878
0.0378842
0.0369943
0.036184
0.0354019
0.0345949
0.0337425
0.0327859
0.0317517
0.0305042
0.0291807
0.0274561
0.0257759
0.043843
0.0420872
0.0403233
0.0388383
0.0377534
0.0368336
0.0360279
0.0352476
0.0344485
0.0336013
0.0326515
0.0316178
0.0303999
0.0290977
0.0275032
0.0258958
0.0479951
0.0423655
0.0403831
0.0386739
0.0376137
0.0367354
0.0359778
0.035233
0.0344661
0.0336458
0.032719
0.0317034
0.0305061
0.0292132
0.0276386
0.0260133
0.0396693
0.0396946
0.0393558
0.0389602
0.0384281
0.0378655
0.0372739
0.0366973
0.0361081
0.0355619
0.034907
0.0343527
0.0332073
0.0323107
0.028354
0.0242394
0.0396926
0.0397188
0.0393374
0.0389043
0.0383299
0.0377225
0.0370863
0.0364566
0.0358055
0.0351754
0.0344332
0.0337475
0.0325608
0.031576
0.0283987
0.0258958
0.0398355
0.0398574
0.0393845
0.0388779
0.0382377
0.0375735
0.0368821
0.0361931
0.0354722
0.0347421
0.0338819
0.0329993
0.0316527
0.0303166
0.0273873
0.0248766
0.0401479
0.0401349
0.0394992
0.0388708
0.0381357
0.0374088
0.0366762
0.0359474
0.035187
0.0344036
0.033498
0.0325438
0.0312256
0.0298773
0.0274936
0.0253872
0.04072
0.0405812
0.0396929
0.0388757
0.0380229
0.0372199
0.0364519
0.0356961
0.034907
0.0340816
0.0331383
0.0321231
0.030815
0.0294396
0.0273869
0.0254836
0.0418008
0.0411893
0.0399089
0.0388233
0.0378577
0.0370046
0.03623
0.0354801
0.0346997
0.0338707
0.0329283
0.0319037
0.0306422
0.0292991
0.0275009
0.0257549
0.0437184
0.0419625
0.0402286
0.0387742
0.0377259
0.0368412
0.0360679
0.0353178
0.034545
0.0337193
0.0327828
0.0317578
0.0305304
0.0292139
0.027568
0.0259118
0.0478705
0.0422425
0.0402903
0.0386118
0.0375886
0.0367461
0.0360212
0.0353076
0.0345689
0.0337717
0.0328606
0.0318566
0.0306538
0.0293499
0.0277288
0.0260542
0.0396003
0.039624
0.0393075
0.0389384
0.038443
0.0379218
0.0373777
0.0368552
0.0363274
0.0358567
0.0352882
0.0348472
0.033807
0.033035
0.0289332
0.024602
0.0396192
0.039644
0.0392845
0.0388768
0.038337
0.0377685
0.0371756
0.036594
0.0359951
0.0354271
0.0347508
0.034149
0.0330223
0.0321093
0.0287734
0.0260574
0.0397576
0.039778
0.0393267
0.0388451
0.038238
0.0376092
0.0369569
0.0363095
0.0356311
0.0349486
0.0341332
0.0333028
0.0319754
0.0306583
0.0275648
0.0248868
0.0400659
0.0400514
0.0394368
0.0388325
0.0381296
0.0374366
0.0367391
0.036047
0.0353223
0.0345767
0.033704
0.0327853
0.0314737
0.0301297
0.0276289
0.02541
0.0406344
0.0404944
0.0396268
0.038833
0.0380107
0.0372397
0.0365043
0.0357806
0.0350212
0.0342257
0.033306
0.0323137
0.0310048
0.0296249
0.0274892
0.0255083
0.0417127
0.0411002
0.0398406
0.0387779
0.0378419
0.0370187
0.0362755
0.0355556
0.0348013
0.0339976
0.0330743
0.0320666
0.0308034
0.0294542
0.0275989
0.0257974
0.0436297
0.0418737
0.040161
0.0387292
0.0377094
0.0368534
0.0361079
0.0353854
0.0346379
0.0338347
0.0329147
0.0319032
0.0306741
0.0293516
0.0276645
0.0259654
0.0477818
0.0421551
0.040224
0.0385685
0.0375741
0.0367609
0.0360641
0.035379
0.0346671
0.0338937
0.0330007
0.032012
0.0308101
0.0295017
0.0278427
0.0261238
0.0395542
0.0395766
0.0392761
0.0389267
0.038459
0.0379698
0.0374616
0.0369777
0.0364895
0.0360584
0.035521
0.0350961
0.0340233
0.0331476
0.0287592
0.0240488
0.0395694
0.0395931
0.0392492
0.0388604
0.0383467
0.0378082
0.0372484
0.0367018
0.0361375
0.035604
0.0349528
0.0343654
0.0332088
0.0322217
0.0286674
0.0256836
0.039704
0.0397234
0.0392874
0.0388243
0.0382421
0.0376408
0.0370187
0.0364023
0.0357534
0.0350991
0.0343021
0.0334814
0.0321248
0.030751
0.0274876
0.0246275
0.0400088
0.0399934
0.0393938
0.0388072
0.0381289
0.0374619
0.036792
0.0361279
0.0354289
0.0347074
0.03385
0.0329399
0.0316069
0.030225
0.0276082
0.0252719
0.0405746
0.0404337
0.0395809
0.0388044
0.0380052
0.0372593
0.0365493
0.0358504
0.0351134
0.0343384
0.0334315
0.0324464
0.0311222
0.0297167
0.0275021
0.0254444
0.0416509
0.0410378
0.0397929
0.0387471
0.0378335
0.0370333
0.0363154
0.0356197
0.0348854
0.0341003
0.0331888
0.0321885
0.0309155
0.0295492
0.02764
0.0257849
0.0435675
0.0418115
0.0401139
0.0386989
0.0377007
0.036867
0.0361438
0.0354434
0.0347162
0.0339306
0.0330221
0.0320183
0.0307832
0.0294488
0.0277231
0.0259831
0.0477196
0.0420938
0.0401779
0.0385396
0.0375671
0.0367768
0.0361025
0.0354405
0.0347505
0.033996
0.0331166
0.0321377
0.0309327
0.0296149
0.0279204
0.0261602
0.0395249
0.0395465
0.0392577
0.0389234
0.0384777
0.0380148
0.0375372
0.0370881
0.0366381
0.0362495
0.0357551
0.0353714
0.0343184
0.0334256
0.0288867
0.0239114
0.039537
0.0395599
0.0392274
0.038853
0.0383598
0.0378459
0.037314
0.0367983
0.0362671
0.0357693
0.0351515
0.0345956
0.0334456
0.0324399
0.0287543
0.0255888
0.0396685
0.0396872
0.0392623
0.0388133
0.0382504
0.0376713
0.0370746
0.0364852
0.035864
0.0352386
0.0344663
0.0336674
0.0323082
0.0309143
0.0275412
0.0245492
0.0399706
0.0399545
0.0393656
0.0387924
0.038133
0.0374869
0.0368398
0.0361997
0.0355244
0.0348268
0.0339885
0.0330946
0.0317573
0.0303592
0.0276632
0.0252376
0.0405341
0.0403927
0.0395503
0.0387868
0.0380052
0.0372793
0.0365901
0.0359123
0.0351956
0.0344404
0.0335486
0.0325757
0.0312474
0.0298297
0.0275596
0.0254411
0.0416089
0.0409954
0.0397609
0.0387277
0.0378311
0.0370489
0.0363515
0.0356762
0.0349596
0.0341919
0.0332935
0.0323034
0.0310278
0.0296526
0.0277042
0.0258052
0.0435251
0.0417691
0.0400822
0.0386798
0.0376979
0.0368816
0.0361764
0.0354946
0.034785
0.0340153
0.0331189
0.0321242
0.0308878
0.0295468
0.0277923
0.0260185
0.0476772
0.0420521
0.0401471
0.0385214
0.0375655
0.0367932
0.0361371
0.0354943
0.0348232
0.0340856
0.0332194
0.0322511
0.0310465
0.0297233
0.0280018
0.0262073
0.0395069
0.0395279
0.0392471
0.0389233
0.0384931
0.0380483
0.0375915
0.0371646
0.0367371
0.0363696
0.03589
0.0355094
0.0344332
0.0334784
0.0287946
0.0236183
0.0395166
0.039539
0.0392143
0.0388499
0.038371
0.0378743
0.0373615
0.036866
0.0363545
0.0358752
0.0352693
0.0347162
0.0335443
0.0324902
0.0286897
0.0253891
0.0396458
0.039664
0.0392468
0.0388075
0.0382581
0.0376946
0.0371154
0.0365441
0.0359401
0.0353304
0.0345677
0.0337711
0.0323932
0.0309627
0.0274998
0.0244088
0.0399458
0.0399292
0.0393478
0.0387839
0.0381378
0.0375064
0.0368753
0.0362515
0.0355914
0.0349076
0.0340776
0.0331864
0.0318352
0.0304112
0.0276514
0.0251579
0.0405077
0.0403659
0.0395307
0.0387762
0.0380071
0.0372953
0.0366209
0.0359577
0.0352544
0.0345115
0.0336271
0.0326576
0.0313199
0.0298848
0.0275702
0.0254048
0.0415813
0.0409675
0.0397403
0.0387158
0.0378312
0.0370618
0.0363792
0.0357182
0.0350138
0.0342575
0.0333665
0.0323804
0.0310988
0.0297118
0.0277319
0.0257987
0.0434973
0.0417413
0.0400618
0.038668
0.0376977
0.0368939
0.0362017
0.0355332
0.034836
0.0340773
0.0331883
0.0321984
0.0309585
0.0296094
0.0278315
0.0260309
0.0476494
0.0420249
0.0401272
0.0385105
0.0375664
0.0368069
0.036164
0.0355351
0.0348774
0.0341516
0.0332942
0.0323319
0.0311254
0.0297954
0.028052
0.0262303
0.0394969
0.0395177
0.0392421
0.0389252
0.0385055
0.0380733
0.0376311
0.0372207
0.0368107
0.0364611
0.0359976
0.0356279
0.0345488
0.033568
0.0288037
0.0234936
0.039505
0.0395272
0.0392075
0.0388497
0.0383804
0.0378955
0.0373961
0.0369153
0.0364191
0.0359551
0.0353619
0.0348172
0.03364
0.0325641
0.0286972
0.0253088
0.0396326
0.0396506
0.0392383
0.0388055
0.0382651
0.0377121
0.0371452
0.0365869
0.035996
0.0353993
0.0346465
0.0338564
0.0324726
0.0310248
0.027509
0.0243529
0.0399312
0.0399144
0.0393377
0.0387799
0.0381426
0.0375212
0.0369011
0.036289
0.0356402
0.0349674
0.0341456
0.0332597
0.0319035
0.0304668
0.0276685
0.0251299
0.040492
0.04035
0.0395195
0.0387708
0.0380098
0.0373076
0.0366433
0.0359904
0.0352971
0.0345636
0.0336862
0.0327213
0.0313802
0.0299363
0.0275946
0.0253977
0.0415649
0.040951
0.0397283
0.0387094
0.0378327
0.0370719
0.0363993
0.0357484
0.0350528
0.034305
0.0334203
0.0324386
0.0311551
0.0297619
0.0277624
0.025806
0.0434806
0.0417247
0.0400499
0.0386618
0.037699
0.0369035
0.0362201
0.0355607
0.0348724
0.0341218
0.0332389
0.0322533
0.0310125
0.0296591
0.0278665
0.0260475
0.0476327
0.0420086
0.0401157
0.0385047
0.0375683
0.0368174
0.0361834
0.035564
0.0349159
0.0341987
0.0333479
0.0323907
0.0311841
0.0298504
0.028093
0.0262528
0.0394925
0.039513