/*--------------------------------*- C++ -*----------------------------------*\
| =========                 |                                                 |
| \\      /  F ield         | OpenFOAM: The Open Source CFD Toolbox           |
|  \\    /   O peration     | Version:  v1912                                 |
|   \\  /    A nd           | Website:  www.openfoam.com                      |
|    \\/     M anipulation  |                                                 |
\*---------------------------------------------------------------------------*/
FoamFile
{
    version     2.0;
    format      ascii;
    class       surfaceScalarField;
    location    "0.97/fluid";
    object      phi;
}
// * * * * * * * * * * * * * * * * * * * * * * * * * * * * * * * * * * * * * //

dimensions      [0 3 -1 0 0 0 0];
oriented        oriented;


internalField   nonuniform List<scalar> 
41600
(
5.0044e-05
1.26487e-05
3.21462e-07
-5.14165e-07
3.97204e-05
1.06767e-05
5.75972e-07
-9.29098e-07
3.18856e-05
8.22572e-06
5.20715e-07
-9.11617e-07
2.68487e-05
5.38823e-06
2.00187e-07
-5.51546e-07
2.37237e-05
3.39237e-06
-3.56501e-07
8.91857e-08
2.18226e-05
2.07206e-06
-1.09012e-06
9.19139e-07
2.05981e-05
1.30196e-06
-1.98465e-06
1.90718e-06
1.97015e-05
8.82909e-07
-3.05487e-06
3.06853e-06
1.89176e-05
6.75394e-07
-4.35634e-06
4.46486e-06
1.81113e-05
5.65233e-07
-5.96838e-06
6.20947e-06
1.72019e-05
4.76457e-07
-8.03754e-06
8.47052e-06
1.60729e-05
2.98462e-07
-1.06719e-05
1.15025e-05
1.45773e-05
3.81876e-09
-1.42297e-05
1.57214e-05
1.22209e-05
-7.44163e-07
-1.82991e-05
2.13997e-05
7.77791e-06
-1.31457e-06
-2.28817e-05
2.86393e-05
-3.66505e-06
-1.83088e-05
2.97518e-05
6.47335e-05
1.06889e-05
4.59667e-07
-7.33287e-07
6.32755e-05
1.26783e-05
8.86029e-07
-1.42966e-06
6.04959e-05
1.16734e-05
9.14319e-07
-1.58236e-06
5.74279e-05
9.12915e-06
5.18623e-07
-1.19157e-06
5.46941e-05
6.70993e-06
-3.21791e-07
-2.61968e-07
5.24423e-05
4.76507e-06
-1.55467e-06
1.11348e-06
5.05754e-05
3.44799e-06
-3.14737e-06
2.86819e-06
4.89053e-05
2.6639e-06
-5.10769e-06
4.9968e-06
4.72357e-05
2.28025e-06
-7.51157e-06
7.57637e-06
4.53636e-05
2.14806e-06
-1.04936e-05
1.07828e-05
4.30954e-05
2.14155e-06
-1.42913e-05
1.48944e-05
4.0087e-05
2.10261e-06
-1.91313e-05
2.03356e-05
3.59038e-05
1.95569e-06
-2.54874e-05
2.77188e-05
2.93084e-05
1.22024e-06
-3.2719e-05
3.73499e-05
1.90564e-05
2.21638e-07
-3.97433e-05
4.84591e-05
-2.92748e-06
-3.08165e-05
4.91353e-05
6.63645e-05
7.12107e-06
5.16135e-07
-8.12797e-07
6.87588e-05
1.0892e-05
1.01939e-06
-1.6274e-06
6.97887e-05
1.14116e-05
1.1015e-06
-1.86966e-06
6.96635e-05
1.00524e-05
7.22985e-07
-1.52098e-06
6.88814e-05
8.2122e-06
-1.48503e-07
-5.71703e-07
6.77367e-05
6.48397e-06
-1.47599e-06
9.01801e-07
6.63763e-05
5.20489e-06
-3.23386e-06
2.83735e-06
6.48122e-05
4.43232e-06
-5.43277e-06
5.22841e-06
6.2971e-05
4.12161e-06
-8.15058e-06
8.15048e-06
6.06929e-05
4.16997e-06
-1.15351e-05
1.17913e-05
5.77502e-05
4.47243e-06
-1.58418e-05
1.64537e-05
5.36929e-05
4.88068e-06
-2.13478e-05
2.2627e-05
4.79143e-05
5.30171e-06
-2.85554e-05
3.0988e-05
3.87952e-05
5.1874e-06
-3.69069e-05
4.20589e-05
2.47959e-05
4.31325e-06
-4.50131e-05
5.49207e-05
2.59489e-07
-3.53576e-05
5.69665e-05
6.53317e-05
4.58939e-06
5.43107e-07
-8.43155e-07
6.85649e-05
8.28542e-06
1.08941e-06
-1.71605e-06
7.11928e-05
9.58311e-06
1.20497e-06
-2.00433e-06
7.27953e-05
9.28709e-06
8.4967e-07
-1.68684e-06
7.34839e-05
8.28725e-06
-3.58155e-09
-7.60069e-07
7.34303e-05
7.15649e-06
-1.31826e-06
6.99321e-07
7.27993e-05
6.27565e-06
-3.07134e-06
2.63162e-06
7.16736e-05
5.80138e-06
-5.27678e-06
5.03337e-06
7.00501e-05
5.7781e-06
-8.01265e-06
7.97973e-06
6.78099e-05
6.17923e-06
-1.14315e-05
1.16623e-05
6.47223e-05
6.96168e-06
-1.57891e-05
1.63874e-05
6.02843e-05
8.03072e-06
-2.13912e-05
2.26792e-05
5.37771e-05
9.31591e-06
-2.87484e-05
3.12414e-05
4.33849e-05
1.02175e-05
-3.74152e-05
4.27773e-05
2.73234e-05
9.93693e-06
-4.59795e-05
5.64173e-05
4.52434e-06
-3.6643e-05
5.97015e-05
6.43963e-05
2.99021e-06
5.64144e-07
-8.61293e-07
6.73292e-05
5.97972e-06
1.14324e-06
-1.7704e-06
7.02487e-05
7.46618e-06
1.28863e-06
-2.0912e-06
7.25484e-05
7.82823e-06
9.59749e-07
-1.80061e-06
7.4055e-05
7.54753e-06
1.37208e-07
-9.04091e-07
7.47746e-05
7.05963e-06
-1.13593e-06
5.13167e-07
7.47972e-05
6.69832e-06
-2.83265e-06
2.38736e-06
7.41943e-05
6.65598e-06
-4.96516e-06
4.71351e-06
7.298e-05
7.03675e-06
-7.60694e-06
7.56256e-06
7.10556e-05
7.88861e-06
-1.09094e-05
1.11244e-05
6.81954e-05
9.24409e-06
-1.51181e-05
1.5696e-05
6.38609e-05
1.11023e-05
-2.05578e-05
2.18208e-05
5.72353e-05
1.347e-05
-2.77267e-05
3.01982e-05
4.62884e-05
1.57796e-05
-3.63237e-05
4.17085e-05
2.88794e-05
1.67726e-05
-4.49543e-05
5.55276e-05
9.83629e-06
-3.62762e-05
5.98436e-05
6.38353e-05
1.94815e-06
5.84086e-07
-8.77338e-07
6.63126e-05
4.12477e-06
1.19388e-06
-1.81622e-06
6.91001e-05
5.47584e-06
1.37189e-06
-2.16908e-06
7.16111e-05
6.15141e-06
1.07651e-06
-1.91061e-06
7.35364e-05
6.381e-06
2.94522e-07
-1.05336e-06
7.47642e-05
6.44721e-06
-9.23069e-07
3.07685e-07
7.53031e-05
6.60009e-06
-2.54198e-06
2.10137e-06
7.5187e-05
7.02389e-06
-4.56893e-06
4.31709e-06
7.44228e-05
7.85228e-06
-7.06845e-06
7.01709e-06
7.29159e-05
9.19741e-06
-1.01862e-05
1.03843e-05
7.0443e-05
1.11693e-05
-1.41501e-05
1.46978e-05
6.64343e-05
1.3899e-05
-1.92984e-05
2.05105e-05
5.99914e-05
1.75177e-05
-2.60997e-05
2.84948e-05
4.88459e-05
2.16367e-05
-3.44318e-05
3.97201e-05
3.04353e-05
2.4717e-05
-4.29162e-05
5.33824e-05
1.66577e-05
-3.52105e-05
5.88245e-05
6.35686e-05
1.16979e-06
6.06901e-07
-8.97165e-07
6.57383e-05
2.57278e-06
1.24983e-06
-1.86751e-06
6.83669e-05
3.63862e-06
1.46582e-06
-2.25726e-06
7.09371e-05
4.40844e-06
1.21285e-06
-2.04008e-06
7.3098e-05
4.97158e-06
4.82516e-07
-1.23391e-06
7.46784e-05
5.4762e-06
-6.6615e-07
5.6729e-08
7.5637e-05
6.0798e-06
-2.18892e-06
1.75062e-06
7.59855e-05
6.93188e-06
-4.08205e-06
3.82558e-06
7.57361e-05
8.16895e-06
-6.39334e-06
6.32602e-06
7.48224e-05
9.94918e-06
-9.25038e-06
9.41232e-06
7.30691e-05
1.2446e-05
-1.28426e-05
1.33191e-05
6.99424e-05
1.59555e-05
-1.74925e-05
1.85627e-05
6.45533e-05
2.07834e-05
-2.35766e-05
2.57e-05
5.42289e-05
2.7196e-05
-3.11596e-05
3.59246e-05
3.56033e-05
3.38823e-05
-3.87703e-05
4.82306e-05
3.00228e-05
-3.24241e-05
5.46622e-05
6.34698e-05
6.32647e-07
-9.2154e-07
4.8886e-07
6.55137e-05
1.31177e-06
-1.9272e-06
1.14436e-06
6.80866e-05
1.56993e-06
-2.35871e-06
1.85448e-06
7.07173e-05
1.36581e-06
-2.19002e-06
2.60197e-06
7.30486e-05
6.95074e-07
-1.44386e-06
3.38902e-06
7.48886e-05
-3.76202e-07
-2.32522e-07
4.24497e-06
7.61762e-05
-1.79375e-06
1.35248e-06
5.23343e-06
7.69185e-05
-3.54131e-06
3.27501e-06
6.45592e-06
7.71396e-05
-5.64752e-06
5.55913e-06
8.03627e-06
7.6803e-05
-8.21777e-06
8.33782e-06
1.01657e-05
7.57833e-05
-1.13994e-05
1.17981e-05
1.3067e-05
7.36001e-05
-1.54909e-05
1.64083e-05
1.72212e-05
6.9446e-05
-2.07728e-05
2.26116e-05
2.30987e-05
6.03953e-05
-2.75206e-05
3.17369e-05
3.20305e-05
4.27976e-05
-3.42703e-05
4.27113e-05
4.30391e-05
-3.0192e-05
5.12628e-05
5.17495e-05
4.99779e-05
1.2655e-05
1.88577e-07
3.95279e-05
1.06957e-05
3.30241e-07
3.15523e-05
8.24866e-06
2.47631e-07
2.63841e-05
5.40824e-06
-3.98927e-08
2.31382e-05
3.41065e-06
-5.21252e-07
2.11149e-05
2.09182e-06
-1.15865e-06
1.97481e-05
1.32811e-06
-1.94591e-06
1.867e-05
9.19428e-07
-2.89619e-06
1.76444e-05
7.26064e-07
-4.05682e-06
1.65198e-05
6.3314e-07
-5.47689e-06
1.51858e-05
5.69111e-07
-7.27269e-06
1.35345e-05
4.25666e-07
-9.44634e-06
1.13661e-05
1.88001e-07
-1.22493e-05
8.47738e-06
-4.75667e-07
-1.49347e-05
3.93558e-06
-1.06319e-06
-1.72767e-05
-2.86327e-06
-1.151e-05
6.46403e-05
1.07038e-05
2.70648e-07
6.29986e-05
1.27153e-05
5.08144e-07
5.99874e-05
1.17254e-05
4.48841e-07
5.66707e-05
9.18582e-06
5.77111e-08
5.36846e-05
6.76978e-06
-6.94841e-07
5.11707e-05
4.83252e-06
-1.78147e-06
4.90081e-05
3.53272e-06
-3.18933e-06
4.69756e-05
2.77653e-06
-4.93227e-06
4.48362e-05
2.43203e-06
-7.07815e-06
4.23476e-05
2.34795e-06
-9.71978e-06
3.92626e-05
2.40312e-06
-1.30403e-05
3.52338e-05
2.43193e-06
-1.71088e-05
2.97858e-05
2.36523e-06
-2.22167e-05
2.21565e-05
1.68667e-06
-2.7252e-05
1.15606e-05
6.01425e-07
-3.0812e-05
-2.42448e-06
-1.96947e-05
6.62707e-05
7.13951e-06
3.09733e-07
6.84732e-05
1.09377e-05
5.94452e-07
6.92544e-05
1.14827e-05
5.62988e-07
6.88515e-05
1.01406e-05
1.71093e-07
6.77773e-05
8.31576e-06
-6.20315e-07
6.63223e-05
6.60833e-06
-1.79679e-06
6.46113e-05
5.3632e-06
-3.35328e-06
6.26224e-05
4.64159e-06
-5.30894e-06
6.02367e-05
4.4023e-06
-7.73521e-06
5.72464e-05
4.54145e-06
-1.07383e-05
5.33606e-05
4.96075e-06
-1.45136e-05
4.81145e-05
5.49831e-06
-1.91681e-05
4.08515e-05
6.06797e-06
-2.49951e-05
3.04732e-05
6.03035e-06
-3.08723e-05
1.60235e-05
5.04255e-06
-3.50045e-05
5.88239e-07
-2.23469e-05
6.52407e-05
4.6091e-06
3.32805e-07
6.82843e-05
8.33509e-06
6.48497e-07
7.06662e-05
9.66549e-06
6.40177e-07
7.19928e-05
9.39909e-06
2.64548e-07
7.23889e-05
8.42923e-06
-5.13149e-07
7.20221e-05
7.33583e-06
-1.67895e-06
7.10357e-05
6.50883e-06
-3.23053e-06
6.94796e-05
6.11156e-06
-5.19066e-06
6.73047e-05
6.19595e-06
-7.63144e-06
6.43409e-05
6.73812e-06
-1.06643e-05
6.02889e-05
7.70736e-06
-1.44837e-05
5.46213e-05
8.99496e-06
-1.92202e-05
4.6557e-05
1.05473e-05
-2.51634e-05
3.48067e-05
1.16185e-05
-3.1253e-05
1.82006e-05
1.12818e-05
-3.56127e-05
4.96206e-06
-2.28162e-05
6.43076e-05
3.01139e-06
3.54254e-07
6.70541e-05
6.0333e-06
6.98559e-07
6.97338e-05
7.55811e-06
7.16238e-07
7.17676e-05
7.96024e-06
3.64825e-07
7.29948e-05
7.72308e-06
-3.83853e-07
7.34168e-05
7.28864e-06
-1.51065e-06
7.31022e-05
7.00062e-06
-3.00992e-06
7.20907e-05
7.06079e-06
-4.90291e-06
7.03518e-05
7.58538e-06
-7.25744e-06
6.77344e-05
8.63081e-06
-1.01847e-05
6.3942e-05
1.02512e-05
-1.38695e-05
5.8402e-05
1.24376e-05
-1.84605e-05
5.02198e-05
1.52348e-05
-2.4232e-05
3.78673e-05
1.78831e-05
-3.02358e-05
1.97816e-05
1.90037e-05
-3.45904e-05
1.06611e-05
-2.21937e-05
6.37482e-05
1.97174e-06
3.75506e-07
6.60425e-05
4.1836e-06
7.49342e-07
6.8597e-05
5.57745e-06
7.97998e-07
7.08538e-05
6.30106e-06
4.78864e-07
7.25169e-05
6.58517e-06
-2.30644e-07
7.34688e-05
6.71863e-06
-1.30498e-06
7.36977e-05
6.96198e-06
-2.7322e-06
7.32066e-05
7.51142e-06
-4.52841e-06
7.19593e-05
8.51743e-06
-6.7532e-06
6.98094e-05
1.0108e-05
-9.51347e-06
6.6463e-05
1.2426e-05
-1.29784e-05
6.13064e-05
1.56076e-05
-1.73119e-05
5.33503e-05
1.98528e-05
-2.27615e-05
4.07876e-05
2.45481e-05
-2.85341e-05
2.15584e-05
2.80846e-05
-3.27678e-05
1.81416e-05
-2.11327e-05
6.34833e-05
1.19625e-06
3.99068e-07
6.5474e-05
2.63738e-06
8.0541e-07
6.78772e-05
3.74931e-06
8.90695e-07
7.02064e-05
4.57249e-06
6.12262e-07
7.21243e-05
5.19771e-06
-4.79067e-08
7.34549e-05
5.77944e-06
-1.05762e-06
7.41385e-05
6.48584e-06
-2.39639e-06
7.41586e-05
7.48023e-06
-4.07093e-06
7.34895e-05
8.91959e-06
-6.12638e-06
7.20184e-05
1.09851e-05
-8.65637e-06
6.95082e-05
1.38928e-05
-1.17992e-05
6.53773e-05
1.79638e-05
-1.5718e-05
5.86466e-05
2.36019e-05
-2.05949e-05
4.70036e-05
3.08671e-05
-2.58356e-05
2.74458e-05
3.84526e-05
-2.95804e-05
3.23633e-05
-1.92001e-05
6.33865e-05
4.24484e-07
5.17944e-07
6.52559e-05
8.65831e-07
1.21389e-06
6.76118e-05
9.91486e-07
1.9718e-06
7.00152e-05
7.59541e-07
2.77542e-06
7.21233e-05
1.55759e-07
3.6289e-06
7.37406e-05
-7.8177e-07
4.5677e-06
7.47904e-05
-2.02352e-06
5.66584e-06
7.52544e-05
-3.56522e-06
7.04017e-06
7.51244e-05
-5.43538e-06
8.83739e-06
7.4324e-05
-7.71078e-06
1.12785e-05
7.26767e-05
-1.04955e-05
1.46362e-05
6.96524e-05
-1.39457e-05
1.9443e-05
6.43685e-05
-1.81747e-05
2.62876e-05
5.41576e-05
-2.28166e-05
3.6374e-05
3.56285e-05
-2.60926e-05
4.88039e-05
-1.76596e-05
5.54594e-05
4.99274e-05
1.26612e-05
9.99446e-08
3.93781e-05
1.07131e-05
1.66465e-07
3.12845e-05
8.2704e-06
7.07847e-08
2.5997e-05
5.42889e-06
-1.81219e-07
2.26329e-05
3.43002e-06
-5.87266e-07
2.04848e-05
2.11224e-06
-1.12274e-06
1.89713e-05
1.35393e-06
-1.78634e-06
1.77079e-05
9.53973e-07
-2.5868e-06
1.64376e-05
7.72481e-07
-3.55894e-06
1.49912e-05
6.93686e-07
-4.72421e-06
1.32304e-05
6.48664e-07
-6.16053e-06
1.10617e-05
5.30325e-07
-7.80794e-06
8.30227e-06
3.25871e-07
-9.81579e-06
5.11691e-06
-2.88749e-07
-1.14605e-05
1.25601e-06
-9.61955e-07
-1.24539e-05
-2.53185e-06
-7.72213e-06
6.45687e-05
1.0719e-05
1.44234e-07
6.27827e-05
1.27511e-05
2.56196e-07
5.95791e-05
1.17765e-05
1.46308e-07
5.60425e-05
9.24412e-06
-2.20933e-07
5.28199e-05
6.83264e-06
-8.74932e-07
5.00495e-05
4.90273e-06
-1.80156e-06
4.75932e-05
3.61875e-06
-2.9978e-06
4.52033e-05
2.88782e-06
-4.47627e-06
4.26078e-05
2.57921e-06
-6.28938e-06
3.95321e-05
2.53963e-06
-8.48997e-06
3.56884e-05
2.65184e-06
-1.11998e-05
3.07542e-05
2.74284e-06
-1.43871e-05
2.43101e-05
2.74448e-06
-1.81913e-05
1.61734e-05
2.10796e-06
-2.1512e-05
6.47823e-06
9.11313e-07
-2.29901e-05
-2.13939e-06
-1.3609e-05
6.61992e-05
7.15913e-06
1.704e-07
6.82516e-05
1.09841e-05
3.0906e-07
6.88272e-05
1.15544e-05
2.09549e-07
6.81809e-05
1.02312e-05
-1.69627e-07
6.68358e-05
8.4227e-06
-8.6533e-07
6.50806e-05
6.73538e-06
-1.8742e-06
6.30248e-05
5.52176e-06
-3.20045e-06
6.06196e-05
4.84687e-06
-4.86281e-06
5.77079e-05
4.67347e-06
-6.91779e-06
5.40428e-05
4.89666e-06
-9.43025e-06
4.92861e-05
5.42438e-06
-1.25294e-05
4.29896e-05
6.08105e-06
-1.62099e-05
3.45492e-05
6.78494e-06
-2.05951e-05
2.35045e-05
6.8144e-06
-2.4534e-05
9.96509e-06
5.72283e-06
-2.62766e-05
8.97946e-07
-1.54191e-05
6.5172e-05
4.63053e-06
1.89371e-07
6.80684e-05
8.38655e-06
3.49658e-07
7.02481e-05
9.74948e-06
2.65308e-07
7.13339e-05
9.5131e-06
-1.03148e-07
7.14593e-05
8.57315e-06
-7.89033e-07
7.07899e-05
7.51555e-06
-1.78974e-06
6.94544e-05
6.73871e-06
-3.11195e-06
6.74763e-05
6.41241e-06
-4.77807e-06
6.47677e-05
6.59616e-06
-6.84552e-06
6.11161e-05
7.26823e-06
-9.38432e-06
5.61696e-05
8.40939e-06
-1.25222e-05
4.94071e-05
9.8956e-06
-1.62723e-05
4.00883e-05
1.16886e-05
-2.07482e-05
2.75727e-05
1.29114e-05
-2.48345e-05
1.1815e-05
1.25481e-05
-2.66802e-05
5.51917e-06
-1.56224e-05
6.42413e-05
3.03409e-06
2.09377e-07
6.68442e-05
6.08851e-06
3.93672e-07
6.93281e-05
7.65096e-06
3.30946e-07
7.11302e-05
8.09227e-06
-1.65145e-08
7.20987e-05
7.89742e-06
-6.76556e-07
7.22323e-05
7.51394e-06
-1.64265e-06
7.15854e-05
7.29442e-06
-2.9188e-06
7.01717e-05
7.44959e-06
-4.52636e-06
6.79223e-05
8.10732e-06
-6.51919e-06
6.46424e-05
9.33117e-06
-8.96774e-06
5.99789e-05
1.11951e-05
-1.19918e-05
5.3355e-05
1.36792e-05
-1.56202e-05
4.39008e-05
1.6864e-05
-1.99532e-05
3.07221e-05
1.9817e-05
-2.39627e-05
1.3369e-05
2.10985e-05
-2.57877e-05
1.17409e-05
-1.50464e-05
6.36837e-05
1.9961e-06
2.29833e-07
6.58379e-05
4.24274e-06
4.40851e-07
6.82031e-05
5.67799e-06
4.05799e-07
7.0239e-05
6.44764e-06
8.75384e-08
7.16588e-05
6.78407e-06
-5.37044e-07
7.23427e-05
6.98134e-06
-1.45626e-06
7.22644e-05
7.30945e-06
-2.66893e-06
7.14019e-05
7.97591e-06
-4.19221e-06
6.96819e-05
9.14708e-06
-6.07301e-06
6.6914e-05
1.09646e-05
-8.37905e-06
6.2746e-05
1.36023e-05
-1.12175e-05
5.65495e-05
1.71964e-05
-1.46326e-05
4.73446e-05
2.20124e-05
-1.87049e-05
3.39244e-05
2.72377e-05
-2.25346e-05
1.52799e-05
3.12664e-05
-2.42912e-05
2.00745e-05
-1.41865e-05
6.34206e-05
1.22239e-06
2.52203e-07
6.52753e-05
2.70034e-06
4.9312e-07
6.74964e-05
3.85624e-06
4.91304e-07
6.96164e-05
4.73e-06
2.09891e-07
7.13086e-05
5.41435e-06
-3.70388e-07
7.23957e-05
6.06897e-06
-1.23228e-06
7.28044e-05
6.87194e-06
-2.36764e-06
7.24958e-05
7.99966e-06
-3.78611e-06
7.14113e-05
9.62835e-06
-5.52311e-06
6.93976e-05
1.19596e-05
-7.63761e-06
6.61649e-05
1.52502e-05
-1.02145e-05
6.11096e-05
1.98396e-05
-1.33059e-05
5.32523e-05
2.62278e-05
-1.6953e-05
4.0794e-05
3.42917e-05
-2.04313e-05
2.16174e-05
4.28325e-05
-2.19699e-05
3.54171e-05
-1.29253e-05
6.33256e-05
2.75724e-07
5.45524e-07
6.50636e-05
5.48615e-07
1.27963e-06
6.72454e-05
5.8337e-07
2.08252e-06
6.94522e-05
3.4383e-07
2.93894e-06
7.13531e-05
-1.86045e-07
3.85519e-06
7.27524e-05
-9.84107e-07
4.87205e-06
7.3562e-05
-2.03474e-06
6.07353e-06
7.37443e-05
-3.33869e-06
7.59084e-06
7.32632e-05
-4.91814e-06
9.59217e-06
7.20072e-05
-6.82059e-06
1.23255e-05
6.97562e-05
-9.10618e-06
1.61119e-05
6.59535e-05
-1.18306e-05
2.15273e-05
5.97178e-05
-1.49946e-05
2.92835e-05
4.87928e-05
-1.80744e-05
4.04744e-05
3.05372e-05
-1.94325e-05
5.44281e-05
-1.1935e-05
6.02298e-05
4.9889e-05
1.26669e-05
4.40527e-08
3.92626e-05
1.07283e-05
6.45823e-08
3.10741e-05
8.28986e-06
-3.05713e-08
2.56869e-05
5.44805e-06
-2.42104e-07
2.22228e-05
3.44842e-06
-5.7156e-07
1.9971e-05
2.13214e-06
-1.00309e-06
1.83429e-05
1.3793e-06
-1.53758e-06
1.6948e-05
9.88402e-07
-2.18025e-06
1.55241e-05
8.20141e-07
-2.95518e-06
1.39073e-05
7.59473e-07
-3.86692e-06
1.19677e-05
7.42194e-07
-4.96313e-06
9.65329e-06
6.68921e-07
-6.16245e-06
6.83889e-06
5.3842e-07
-7.53981e-06
3.8196e-06
5.79482e-08
-8.49919e-06
6.3999e-07
-5.20396e-07
-8.75389e-06
-1.90361e-06
-5.17853e-06
6.45137e-05
1.07331e-05
6.43621e-08
6.26152e-05
1.27834e-05
9.95747e-08
5.9257e-05
1.18231e-05
-2.87175e-08
5.55377e-05
9.29813e-06
-3.51765e-07
5.21145e-05
6.89162e-06
-8.94952e-07
4.91271e-05
4.96904e-06
-1.65108e-06
4.64304e-05
3.69971e-06
-2.6215e-06
4.37663e-05
2.99221e-06
-3.81593e-06
4.0851e-05
2.71798e-06
-5.27196e-06
3.74113e-05
2.72391e-06
-7.01471e-06
3.31712e-05
2.89985e-06
-9.11737e-06
2.78796e-05
3.0753e-06
-1.15018e-05
2.12356e-05
3.19686e-06
-1.42057e-05
1.33588e-05
2.71952e-06
-1.62968e-05
4.819e-06
1.64341e-06
-1.66141e-05
-1.36668e-06
-9.3269e-06
6.61445e-05
7.17783e-06
8.11731e-08
6.80802e-05
1.10271e-05
1.29698e-07
6.84908e-05
1.16206e-05
1.39416e-09
6.76426e-05
1.03154e-05
-3.38734e-07
6.60681e-05
8.5226e-06
-9.21781e-07
6.40582e-05
6.8538e-06
-1.74905e-06
6.17172e-05
5.66835e-06
-2.82813e-06
5.89861e-05
5.03502e-06
-4.17451e-06
5.56951e-05
4.92097e-06
-5.82973e-06
5.15956e-05
5.22195e-06
-7.82886e-06
4.63609e-05
5.85439e-06
-1.02492e-05
3.96179e-05
6.63833e-06
-1.303e-05
3.08968e-05
7.50747e-06
-1.61846e-05
2.00993e-05
7.69912e-06
-1.87161e-05
7.87742e-06
6.70479e-06
-1.91161e-05
1.67517e-06
-1.05836e-05
6.51199e-05
4.65124e-06
9.60744e-08
6.79024e-05
8.43513e-06
1.59159e-07
6.99203e-05
9.82781e-06
4.02213e-08
7.08066e-05
9.61926e-06
-2.93338e-07
7.07032e-05
8.70676e-06
-8.69771e-07
6.97773e-05
7.68118e-06
-1.69122e-06
6.81529e-05
6.94832e-06
-2.76749e-06
6.58437e-05
6.68363e-06
-4.11746e-06
6.27493e-05
6.95352e-06
-5.78373e-06
5.86546e-05
7.73843e-06
-7.80613e-06
5.32174e-05
9.03e-06
-1.02606e-05
4.59893e-05
1.06944e-05
-1.31002e-05
3.63641e-05
1.27116e-05
-1.63272e-05
2.40729e-05
1.41183e-05
-1.89624e-05
9.64814e-06
1.38458e-05
-1.93965e-05
6.36431e-06
-1.06634e-05
6.41913e-05
3.05594e-06
1.13339e-07
6.66839e-05
6.14059e-06
1.95637e-07
6.90115e-05
7.73738e-06
9.38399e-08
7.06224e-05
8.21442e-06
-2.2258e-07
7.13723e-05
8.05765e-06
-7.77378e-07
7.12616e-05
7.71904e-06
-1.56985e-06
7.03401e-05
7.55886e-06
-2.60786e-06
6.8612e-05
7.79507e-06
-3.90965e-06
6.59964e-05
8.56502e-06
-5.51511e-06
6.22952e-05
9.93684e-06
-7.46496e-06
5.71633e-05
1.19992e-05
-9.82908e-06
5.00911e-05
1.47201e-05
-1.25738e-05
4.0335e-05
1.82048e-05
-1.56903e-05
2.73607e-05
2.13947e-05
-1.82649e-05
1.12866e-05
2.2809e-05
-1.86769e-05
1.27899e-05
-1.01854e-05
6.36353e-05
2.01909e-06
1.31411e-07
6.56825e-05
4.29781e-06
2.3638e-07
6.78973e-05
5.77061e-06
1.57827e-07
6.97514e-05
6.58173e-06
-1.33862e-07
7.09658e-05
6.96465e-06
-6.58519e-07
7.14225e-05
7.21759e-06
-1.41153e-06
7.10907e-05
7.61842e-06
-2.39665e-06
6.99392e-05
8.38329e-06
-3.62894e-06
6.78836e-05
9.69049e-06
-5.14285e-06
6.47294e-05
1.16895e-05
-6.97749e-06
6.0131e-05
1.45736e-05
-9.19345e-06
5.35207e-05
1.84684e-05
-1.17705e-05
4.4034e-05
2.3674e-05
-1.46874e-05
3.08026e-05
2.92208e-05
-1.71293e-05
1.33474e-05
3.34825e-05
-1.75094e-05
2.14693e-05
-9.51855e-06
6.33738e-05
1.24644e-06
1.51052e-07
6.51251e-05
2.75787e-06
2.8173e-07
6.72023e-05
3.9533e-06
2.31445e-07
6.91507e-05
4.87214e-06
-2.89212e-08
7.06524e-05
5.60861e-06
-5.16079e-07
7.15324e-05
6.32652e-06
-1.22114e-06
7.17137e-05
7.21178e-06
-2.14231e-06
7.11493e-05
8.45052e-06
-3.289e-06
6.97711e-05
1.02326e-05
-4.68701e-06
6.74224e-05
1.27707e-05
-6.37003e-06
6.38202e-05
1.63448e-05
-8.38359e-06
5.84121e-05
2.12888e-05
-1.07182e-05
5.03202e-05
2.81445e-05
-1.33315e-05
3.80412e-05
3.66165e-05
-1.5548e-05
1.9905e-05
4.55077e-05
-1.5859e-05
3.71379e-05
-8.68886e-06
6.32805e-05
1.71403e-07
5.70228e-07
6.49191e-05
3.29485e-07
1.33846e-06
6.6964e-05
3.10331e-07
2.18144e-06
6.901e-05
8.54994e-08
3.08447e-06
7.07359e-05
-3.59159e-07
4.05581e-06
7.19491e-05
-1.01093e-06
5.14013e-06
7.2559e-05
-1.86205e-06
6.42921e-06
7.25213e-05
-2.91517e-06
8.06464e-06
7.17927e-05
-4.18608e-06
1.02292e-05
7.02589e-05
-5.7011e-06
1.31849e-05
6.7708e-05
-7.48895e-06
1.72784e-05
6.36258e-05
-9.54844e-06
2.30889e-05
5.72212e-05
-1.18172e-05
3.13716e-05
4.6484e-05
-1.37797e-05
4.3059e-05
2.91356e-05
-1.40701e-05
5.74938e-05
-8.05972e-06
6.23981e-05
4.98594e-05
1.26717e-05
1.29108e-08
3.91735e-05
1.07408e-05
9.73507e-09
3.09096e-05
8.30595e-06
-7.26153e-08
2.54409e-05
5.464e-06
-2.37373e-07
2.18925e-05
3.4638e-06
-4.86975e-07
1.95521e-05
2.14862e-06
-8.11344e-07
1.78263e-05
1.39997e-06
-1.21168e-06
1.63203e-05
1.01599e-06
-1.69027e-06
1.47695e-05
8.57761e-07
-2.26212e-06
1.30151e-05
8.10551e-07
-2.92308e-06
1.0938e-05
8.13366e-07
-3.69941e-06
8.52019e-06
7.71991e-07
-4.51663e-06
5.69701e-06
6.91565e-07
-5.4082e-06
2.84917e-06
3.00864e-07
-5.95222e-06
2.2161e-07
-2.17222e-07
-5.9091e-06
-1.54508e-06
-3.41185e-06
6.44713e-05
1.07452e-05
1.95817e-08
6.24857e-05
1.28108e-05
1.51538e-08
5.90051e-05
1.18625e-05
-1.04648e-07
5.51376e-05
9.34417e-06
-3.6446e-07
5.15478e-05
6.94223e-06
-7.83625e-07
4.83778e-05
5.02599e-06
-1.35843e-06
4.54786e-05
3.76883e-06
-2.09114e-06
4.25859e-05
3.08068e-06
-2.98794e-06
3.94102e-05
2.83488e-06
-4.0733e-06
3.56831e-05
2.87845e-06
-5.35555e-06
3.11464e-05
3.10698e-06
-6.87425e-06
2.5612e-05
3.35161e-06
-8.54709e-06
1.88915e-05
3.57055e-06
-1.03642e-05
1.13218e-05
3.21587e-06
-1.16421e-05
3.75853e-06
2.22799e-06
-1.1496e-05
-8.30273e-07
-6.28318e-06
6.61024e-05
7.19419e-06
2.98255e-08
6.79478e-05
1.10642e-05
3.07769e-08
6.8228e-05
1.16776e-05
-9.38782e-08
6.72163e-05
1.0388e-05
-3.70928e-07
6.54518e-05
8.60888e-06
-8.23948e-07
6.32282e-05
6.956e-06
-1.45548e-06
6.06474e-05
5.79423e-06
-2.27268e-06
5.76445e-05
5.19557e-06
-3.28651e-06
5.40433e-05
5.13104e-06
-4.52469e-06
4.95991e-05
5.49688e-06
-6.00313e-06
4.40038e-05
6.21655e-06
-7.76342e-06
3.69527e-05
7.1063e-06
-9.73358e-06
2.81062e-05
8.11256e-06
-1.18801e-05
1.76292e-05
8.43703e-06
-1.34603e-05
6.53529e-06
7.52183e-06
-1.33161e-05
2.28268e-06
-7.16124e-06
6.50799e-05
4.66959e-06
4.07888e-08
6.77746e-05
8.47757e-06
5.10658e-08
6.96649e-05
9.8958e-06
-6.82146e-08
7.039e-05
9.71116e-06
-3.41548e-07
7.00972e-05
8.82229e-06
-7.9043e-07
6.89562e-05
7.82397e-06
-1.41814e-06
6.70885e-05
7.12808e-06
-2.2337e-06
6.45027e-05
6.9148e-06
-3.25084e-06
6.1092e-05
7.25635e-06
-4.49834e-06
5.6644e-05
8.13477e-06
-5.99602e-06
5.08339e-05
9.55044e-06
-7.7844e-06
4.32806e-05
1.13611e-05
-9.80174e-06
3.35095e-05
1.35609e-05
-1.20044e-05
2.15243e-05
1.51183e-05
-1.36584e-05
8.24775e-06
1.4924e-05
-1.35221e-05
7.07158e-06
-7.20455e-06
6.41532e-05
3.07532e-06
5.44039e-08
6.65612e-05
6.18621e-06
7.90402e-08
6.87659e-05
7.81248e-06
-2.75409e-08
7.02222e-05
8.32007e-06
-2.87874e-07
7.07914e-05
8.1958e-06
-7.20069e-07
7.04757e-05
7.89521e-06
-1.3254e-06
6.93227e-05
7.78484e-06
-2.11159e-06
6.73313e-05
8.08862e-06
-3.09208e-06
6.44147e-05
8.95166e-06
-4.29377e-06
6.03765e-05
1.04455e-05
-5.7375e-06
5.48873e-05
1.26702e-05
-7.4597e-06
4.75004e-05
1.5583e-05
-9.40872e-06
3.75974e-05
1.93073e-05
-1.15337e-05
2.49105e-05
2.26872e-05
-1.31469e-05
9.9457e-06
2.42107e-05
-1.29987e-05
1.36908e-05
-6.85886e-06
6.35985e-05
2.03931e-06
6.88971e-08
6.55641e-05
4.34579e-06
1.1124e-07
6.7661e-05
5.85068e-06
2.2686e-08
6.93684e-05
6.69716e-06
-2.18361e-07
7.04132e-05
7.11957e-06
-6.27011e-07
7.0679e-05
7.41953e-06
-1.20169e-06
7.0133e-05
7.88135e-06
-1.94717e-06
6.87391e-05
8.72819e-06
-2.87463e-06
6.6407e-05
1.0148e-05
-4.00705e-06
6.29434e-05
1.2296e-05
-5.36446e-06
5.80168e-05
1.53804e-05
-6.97703e-06
5.11163e-05
1.95167e-05
-8.80377e-06
4.14937e-05
2.50294e-05
-1.0787e-05
2.85318e-05
3.08301e-05
-1.23103e-05
1.21148e-05
3.5274e-05
-1.21558e-05
2.26729e-05
-6.38589e-06
6.33385e-05
1.26729e-06
8.46085e-08
6.50113e-05
2.80746e-06
1.4724e-07
6.6976e-05
4.03656e-06
8.08284e-08
6.87863e-05
4.99372e-06
-1.35745e-07
7.01306e-05
5.77432e-06
-5.15175e-07
7.08363e-05
6.54558e-06
-1.05281e-06
7.08248e-05
7.49988e-06
-1.74936e-06
7.00449e-05
8.83116e-06
-2.61205e-06
6.84234e-05
1.07403e-05
-3.65781e-06
6.58048e-05
1.34481e-05
-4.90354e-06
6.19191e-05
1.72525e-05
-6.3699e-06
5.62626e-05
2.24809e-05
-8.0258e-06
4.80608e-05
2.97037e-05
-9.80396e-06
3.6033e-05
3.84978e-05
-1.11879e-05
1.88193e-05
4.7662e-05
-1.10332e-05
3.86573e-05
-5.85395e-06
6.32466e-05
1.00745e-07
5.91305e-07
6.48101e-05
1.84974e-07
1.38855e-06
6.67485e-05
1.42977e-07
2.26551e-06
6.86655e-05
-4.58312e-08
3.20805e-06
7.02469e-05
-3.92215e-07
4.22588e-06
7.13033e-05
-8.8876e-07
5.36701e-06
7.17433e-05
-1.53177e-06
6.72961e-06
7.15194e-05
-2.32368e-06
8.46358e-06
7.05847e-05
-3.27442e-06
1.07633e-05
6.88265e-05
-4.39641e-06
1.39016e-05
6.60455e-05
-5.69973e-06
1.82442e-05
6.17691e-05
-7.16171e-06
2.43706e-05
5.52968e-05
-8.70725e-06
3.3066e-05
4.48049e-05
-9.9341e-06
4.5144e-05
2.82646e-05
-9.82195e-06
5.99542e-05
-5.46122e-06
6.43233e-05
4.98383e-05
1.26754e-05
-7.73678e-10
3.91094e-05
1.07504e-05
-1.18e-08
3.07903e-05
8.31836e-06
-7.18521e-08
2.52613e-05
5.4765e-06
-1.84934e-07
2.16509e-05
3.47608e-06
-3.52685e-07
1.92469e-05
2.16205e-06
-5.69346e-07
1.7454e-05
1.41703e-06
-8.35775e-07
1.58773e-05
1.03917e-06
-1.15274e-06
1.42537e-05
8.90048e-07
-1.52864e-06
1.24323e-05
8.55612e-07
-1.95727e-06
1.03065e-05
8.77864e-07
-2.45145e-06
7.87921e-06
8.67002e-07
-2.95636e-06
5.1208e-06
8.33979e-07
-3.48377e-06
2.41834e-06
5.18209e-07
-3.76798e-06
8.79842e-08
6.36705e-08
-3.64241e-06
-1.25537e-06
-2.0685e-06
6.44407e-05
1.07547e-05
-4.42994e-10
6.2392e-05
1.28321e-05
-1.78024e-08
5.88215e-05
1.18932e-05
-1.0893e-07
5.4844e-05
9.38027e-06
-2.90804e-07
5.11304e-05
6.9822e-06
-5.76145e-07
4.7826e-05
5.0712e-06
-9.63169e-07
4.47818e-05
3.82383e-06
-1.45373e-06
4.17331e-05
3.15126e-06
-2.0513e-06
3.83914e-05
2.92861e-06
-2.77017e-06
3.44988e-05
3.00352e-06
-3.6109e-06
2.9818e-05
3.27668e-06
-4.5922e-06
2.42053e-05
3.58168e-06
-5.64914e-06
1.75455e-05
3.88695e-06
-6.75739e-06
1.02549e-05
3.64083e-06
-7.47411e-06
3.29109e-06
2.74107e-06
-7.20954e-06
-3.8476e-07
-3.8627e-06
6.6072e-05
7.2072e-06
5.33269e-09
6.78521e-05
1.10935e-05
-1.0653e-08
6.80363e-05
1.17224e-05
-1.07392e-07
6.69033e-05
1.04452e-05
-3.02837e-07
6.49973e-05
8.67696e-06
-6.1271e-07
6.26156e-05
7.03665e-06
-1.03925e-06
5.98611e-05
5.89334e-06
-1.5877e-06
5.66691e-05
5.32164e-06
-2.26489e-06
5.28648e-05
5.29571e-06
-3.08747e-06
4.82137e-05
5.71255e-06
-4.06103e-06
4.24306e-05
6.5015e-06
-5.20519e-06
3.52622e-05
7.47715e-06
-6.46058e-06
2.6457e-05
8.59676e-06
-7.78468e-06
1.62906e-05
9.0368e-06
-8.68989e-06
5.91452e-06
8.20144e-06
-8.40037e-06
2.78866e-06
-4.42014e-06
6.50512e-05
4.68429e-06
1.25046e-08
6.76824e-05
8.51128e-06
2.02772e-09
6.9479e-05
9.94953e-06
-9.19394e-08
7.00845e-05
9.78368e-06
-2.85492e-07
6.96507e-05
8.91334e-06
-5.93034e-07
6.83504e-05
7.93617e-06
-1.01733e-06
6.63064e-05
7.26863e-06
-1.56498e-06
6.35275e-05
7.0945e-06
-2.24478e-06
5.99087e-05
7.4904e-06
-3.07422e-06
5.52473e-05
8.43958e-06
-4.06169e-06
4.92416e-05
9.9489e-06
-5.22614e-06
4.15614e-05
1.18705e-05
-6.51479e-06
3.18227e-05
1.42089e-05
-7.87783e-06
2.01463e-05
1.58858e-05
-8.83095e-06
7.60466e-06
1.57603e-05
-8.53933e-06
7.6321e-06
-4.44334e-06
6.4126e-05
3.09084e-06
2.18822e-08
6.64728e-05
6.22251e-06
2.09309e-08
6.85876e-05
7.8719e-06
-6.4675e-08
6.99296e-05
8.40336e-06
-2.4951e-07
7.03642e-05
8.30434e-06
-5.45723e-07
6.98968e-05
8.03295e-06
-9.54802e-07
6.85761e-05
7.9604e-06
-1.48258e-06
6.64014e-05
8.31489e-06
-2.13776e-06
6.32875e-05
9.2471e-06
-2.93666e-06
5.90477e-05
1.08305e-05
-3.88851e-06
5.33741e-05
1.31727e-05
-5.00984e-06
4.58681e-05
1.62223e-05
-6.25463e-06
3.59984e-05
2.01138e-05
-7.56892e-06
2.36088e-05
2.36258e-05
-8.4974e-06
9.35196e-06
2.52192e-05
-8.2008e-06
1.43458e-05
-4.22063e-06
6.35724e-05
2.05541e-06
3.19777e-08
6.54791e-05
4.38381e-06
4.31506e-08
6.749e-05
5.91386e-06
-3.01652e-08
6.9089e-05
6.78784e-06
-2.01808e-07
7.00075e-05
7.24073e-06
-4.81885e-07
7.01322e-05
7.57657e-06
-8.70038e-07
6.94313e-05
8.0843e-06
-1.3702e-06
6.78692e-05
8.99197e-06
-1.98962e-06
6.53574e-05
1.0494e-05
-2.74211e-06
6.17112e-05
1.27487e-05
-3.63654e-06
5.66196e-05
1.59729e-05
-4.68566e-06
4.9616e-05
2.02728e-05
-5.85067e-06
4.00325e-05
2.59847e-05
-7.0744e-06
2.7354e-05
3.19414e-05
-7.94741e-06
1.15966e-05
3.64755e-05
-7.65477e-06
2.34742e-05
-3.91767e-06
6.33134e-05
1.28374e-06
4.29118e-08
6.49299e-05
2.8465e-06
6.80713e-08
6.68127e-05
4.10187e-06
9.95904e-09
6.8521e-05
5.08874e-06
-1.44906e-07
6.97483e-05
5.90326e-06
-4.05004e-07
7.03249e-05
6.71504e-06
-7.67956e-07
7.01739e-05
7.72104e-06
-1.23508e-06
6.92445e-05
9.12045e-06
-1.81111e-06
6.74656e-05
1.11212e-05
-2.50607e-06
6.46896e-05
1.39484e-05
-3.32718e-06
6.06649e-05
1.79094e-05
-4.28173e-06
5.4927e-05
2.33231e-05
-5.33821e-06
4.67723e-05
3.07714e-05
-6.43601e-06
3.50088e-05
3.97465e-05
-7.2294e-06
1.83844e-05
4.90254e-05
-6.95871e-06
3.96075e-05
-3.60283e-06
6.32226e-05
5.40857e-08
6.0776e-07
6.47323e-05
9.41307e-08
1.42765e-06
6.65934e-05
5.28095e-08
2.33102e-06
6.84152e-05
-8.30198e-08
3.30409e-06
6.98892e-05
-3.20543e-07
4.35754e-06
7.08294e-05
-6.55584e-07
5.54166e-06
7.11462e-05
-1.08657e-06
6.95909e-06
7.0793e-05
-1.61519e-06
8.76515e-06
6.97253e-05
-2.24707e-06
1.11615e-05
6.78379e-05
-2.98691e-06
1.44263e-05
6.49486e-05
-3.83594e-06
1.89349e-05
6.06182e-05
-4.76908e-06
2.52609e-05
5.42076e-05
-5.7239e-06
3.41987e-05
4.39659e-05
-6.42729e-06
4.64813e-05
2.79425e-05
-6.2091e-06
6.1436e-05
-3.37398e-06
6.54627e-05
4.98242e-05
1.26779e-05
-2.95868e-09
3.9067e-05
1.07569e-05
-1.15048e-08
3.07111e-05