/*--------------------------------*- C++ -*----------------------------------*\
| =========                 |                                                 |
| \\      /  F ield         | OpenFOAM: The Open Source CFD Toolbox           |
|  \\    /   O peration     | Version:  v1912                                 |
|   \\  /    A nd           | Website:  www.openfoam.com                      |
|    \\/     M anipulation  |                                                 |
\*---------------------------------------------------------------------------*/
FoamFile
{
    version     2.0;
    format      ascii;
    class       pointVectorField;
    location    "0.97/fluid";
    object      pointMotionU;
}
// * * * * * * * * * * * * * * * * * * * * * * * * * * * * * * * * * * * * * //

dimensions      [0 1 -1 0 0 0 0];


internalField   nonuniform List<vector> 
16859
(
(0 0 0)
(0 0 0)
(0 0 0)
(0 0 0)
(0 0 0)
(0 0 0)
(0 0 0)
(0 0 0)
(0 0 0)
(0 0 0)
(0 0 0)
(0 0 0)
(0 0 0)
(0 0 0)
(0 0 0)
(0 0 0)
(1.32838e-08 2.33048e-08 1.55465e-08)
(0 0 0)
(3.81991e-10 -9.8797e-10 7.78802e-10)
(7.31601e-10 -1.88957e-09 1.51843e-09)
(1.06474e-09 -2.73965e-09 2.27257e-09)
(1.39631e-09 -3.56327e-09 3.08886e-09)
(1.74127e-09 -4.37474e-09 4.01188e-09)
(2.1163e-09 -5.17564e-09 5.08537e-09)
(2.54211e-09 -5.95083e-09 6.35351e-09)
(3.04695e-09 -6.66102e-09 7.86184e-09)
(3.67284e-09 -7.22985e-09 9.65796e-09)
(4.4875e-09 -7.5206e-09 1.17933e-08)
(5.60874e-09 -7.29387e-09 1.43315e-08)
(7.25415e-09 -6.12545e-09 1.73761e-08)
(9.83239e-09 -3.24798e-09 2.11481e-08)
(1.4033e-08 2.67679e-09 2.61343e-08)
(2.00034e-08 1.24262e-08 3.25164e-08)
(2.80659e-08 3.1227e-08 3.93001e-08)
(0 0 0)
(7.53001e-10 -1.9467e-09 1.53695e-09)
(1.44166e-09 -3.72444e-09 2.99597e-09)
(2.09667e-09 -5.40302e-09 4.4824e-09)
(2.74656e-09 -7.0333e-09 6.08951e-09)
(3.41996e-09 -8.64616e-09 7.90465e-09)
(4.14838e-09 -1.02491e-08 1.00132e-08)
(4.96982e-09 -1.18197e-08 1.25013e-08)
(5.9343e-09 -1.32935e-08 1.54567e-08)
(7.1123e-09 -1.45441e-08 1.89685e-08)
(8.60911e-09 -1.53502e-08 2.31257e-08)
(1.05891e-08 -1.5346e-08 2.80161e-08)
(1.33146e-08 -1.39569e-08 3.37335e-08)
(1.71742e-08 -1.03613e-08 4.03881e-08)
(2.25608e-08 -3.68395e-09 4.80608e-08)
(2.87226e-08 5.26021e-09 5.58721e-08)
(3.82658e-08 1.84066e-08 6.73469e-08)
(0 0 0)
(1.10287e-09 -2.84754e-09 2.25552e-09)
(2.11024e-09 -5.45081e-09 4.39523e-09)
(3.06566e-09 -7.91469e-09 6.57234e-09)
(4.00931e-09 -1.03173e-08 8.92228e-09)
(4.98125e-09 -1.27098e-08 1.15717e-08)
(6.02462e-09 -1.51128e-08 1.46444e-08)
(7.18985e-09 -1.75096e-08 1.82648e-08)
(8.54005e-09 -1.98331e-08 2.25592e-08)
(1.0158e-08 -2.19455e-08 2.76541e-08)
(1.21551e-08 -2.36066e-08 3.36681e-08)
(1.46815e-08 -2.44347e-08 4.06989e-08)
(1.79338e-08 -2.38762e-08 4.88005e-08)
(2.21261e-08 -2.12533e-08 5.79403e-08)
(2.73239e-08 -1.60788e-08 6.78941e-08)
(3.25946e-08 -9.4232e-09 7.73345e-08)
(3.99496e-08 -2.07412e-10 8.95521e-08)
(0 0 0)
(1.4226e-09 -3.66123e-09 2.91721e-09)
(2.71975e-09 -7.01315e-09 5.682e-09)
(3.94532e-09 -1.01952e-08 8.48999e-09)
(5.14863e-09 -1.33141e-08 1.15138e-08)
(6.37831e-09 -1.64448e-08 1.49144e-08)
(7.68562e-09 -1.96286e-08 1.8849e-08)
(9.12845e-09 -2.28681e-08 2.34755e-08)
(1.07757e-08 -2.61168e-08 2.89545e-08)
(1.27115e-08 -2.92623e-08 3.54465e-08)
(1.50364e-08 -3.21016e-08 4.31006e-08)
(1.78638e-08 -3.43096e-08 5.20314e-08)
(2.13002e-08 -3.54144e-08 6.22742e-08)
(2.53826e-08 -3.48193e-08 7.36951e-08)
(2.99172e-08 -3.19925e-08 8.58091e-08)
(3.39383e-08 -2.74274e-08 9.67568e-08)
(3.91059e-08 -1.94579e-08 1.09325e-07)
(0 0 0)
(1.7051e-09 -4.35896e-09 3.50766e-09)
(3.25639e-09 -8.35615e-09 6.82782e-09)
(4.71518e-09 -1.21641e-08 1.01918e-08)
(6.13718e-09 -1.59177e-08 1.38029e-08)
(7.57652e-09 -1.97181e-08 1.78503e-08)
(9.08911e-09 -2.3633e-08 2.25179e-08)
(1.07363e-08 -2.76946e-08 2.79906e-08)
(1.25883e-08 -3.18943e-08 3.44573e-08)
(1.47264e-08 -3.6173e-08 4.2109e-08)
(1.72407e-08 -4.04055e-08 5.11287e-08)
(2.02203e-08 -4.43771e-08 6.16678e-08)
(2.37267e-08 -4.77489e-08 7.37972e-08)
(2.77233e-08 -5.00034e-08 8.7392e-08)
(3.19246e-08 -5.04002e-08 1.0187e-07)
(3.53711e-08 -4.84337e-08 1.14887e-07)
(3.95189e-08 -4.08645e-08 1.28915e-07)
(0 0 0)
(1.94542e-09 -4.91322e-09 4.01606e-09)
(3.71073e-09 -9.42665e-09 7.81146e-09)
(5.36167e-09 -1.37423e-08 1.16453e-08)
(6.95737e-09 -1.80216e-08 1.57444e-08)
(8.55449e-09 -2.23912e-08 2.03182e-08)
(1.02103e-08 -2.69471e-08 2.55695e-08)
(1.19864e-08 -3.17553e-08 3.17014e-08)
(1.39514e-08 -3.68532e-08 3.8922e-08)
(1.61834e-08 -4.22477e-08 4.74449e-08)
(1.87685e-08 -4.79126e-08 5.74841e-08)
(2.17963e-08 -5.37822e-08 6.92407e-08)
(2.5346e-08 -5.973e-08 8.28712e-08)
(2.9441e-08 -6.54957e-08 9.83893e-08)
(3.39221e-08 -7.04897e-08 1.15375e-07)
(3.78833e-08 -7.34127e-08 1.31209e-07)
(4.3158e-08 -6.98228e-08 1.48909e-07)
(0 0 0)
(2.14095e-09 -5.29917e-09 4.43567e-09)
(4.07803e-09 -1.01763e-08 8.61985e-09)
(5.87841e-09 -1.48575e-08 1.2831e-08)
(7.60177e-09 -1.9526e-08 1.73112e-08)
(9.30434e-09 -2.43311e-08 2.22819e-08)
(1.10418e-08 -2.93937e-08 2.79553e-08)
(1.28726e-08 -3.48113e-08 3.45421e-08)
(1.48611e-08 -4.06631e-08 4.22566e-08)
(1.70799e-08 -4.70157e-08 5.13198e-08)
(1.96121e-08 -5.39319e-08 6.19589e-08)
(2.25546e-08 -6.14849e-08 7.44074e-08)
(2.60237e-08 -6.97749e-08 8.88995e-08)
(3.01549e-08 -7.89277e-08 1.05631e-07)
(3.50349e-08 -8.89669e-08 1.24542e-07)
(3.99757e-08 -9.86053e-08 1.43166e-07)
(4.78791e-08 -1.09084e-07 1.65779e-07)
(0 0 0)
(2.29137e-09 -5.4961e-09 4.76412e-09)
(4.35832e-09 -1.0565e-08 9.24906e-09)
(6.26648e-09 -1.54489e-08 1.37438e-08)
(8.07336e-09 -2.03467e-08 1.84973e-08)
(9.83202e-09 -2.54236e-08 2.37345e-08)
(1.15938e-08 -3.08192e-08 2.96673e-08)
(1.34107e-08 -3.66538e-08 3.65019e-08)
(1.53389e-08 -4.30348e-08 4.44436e-08)
(1.74402e-08 -5.00649e-08 5.36993e-08)
(1.97852e-08 -5.78531e-08 6.44769e-08)
(2.24565e-08 -6.6532e-08 7.69866e-08)
(2.55565e-08 -7.62824e-08 9.1441e-08)
(2.92045e-08 -8.73477e-08 1.08035e-07)
(3.3452e-08 -9.99569e-08 1.26807e-07)
(3.75218e-08 -1.12592e-07 1.4523e-07)
(4.87212e-08 -1.32947e-07 1.73084e-07)
(0 0 0)
(0 0 0)
(0 0 0)
(0 0 0)
(0 0 0)
(0 0 0)
(0 0 0)
(0 0 0)
(0 0 0)
(0 0 0)
(0 0 0)
(0 0 0)
(0 0 0)
(0 0 0)
(0 0 0)
(0 0 0)
(9.40786e-09 1.19624e-08 7.3467e-09)
(0 0 0)
(3.90741e-10 -1.01341e-09 7.53898e-10)
(7.48197e-10 -1.93855e-09 1.46876e-09)
(1.08857e-09 -2.81179e-09 2.19574e-09)
(1.42694e-09 -3.65956e-09 2.97998e-09)
(1.77829e-09 -4.49739e-09 3.86328e-09)
(2.15891e-09 -5.32801e-09 4.88581e-09)
(2.58861e-09 -6.13755e-09 6.087e-09)
(3.09405e-09 -6.88879e-09 7.50556e-09)
(3.7147e-09 -7.50932e-09 9.1785e-09)
(4.51463e-09 -7.87082e-09 1.11394e-08)
(5.60731e-09 -7.75248e-09 1.34183e-08)
(7.20814e-09 -6.77257e-09 1.60496e-08)
(9.72961e-09 -4.26439e-09 1.90974e-08)
(1.38486e-08 8.41353e-10 2.2665e-08)
(1.97315e-08 9.04555e-09 2.647e-08)
(2.6137e-08 1.88337e-08 2.76187e-08)
(0 0 0)
(7.70279e-10 -1.99676e-09 1.48781e-09)
(1.47446e-09 -3.82085e-09 2.89801e-09)
(2.14388e-09 -5.54511e-09 4.33101e-09)
(2.80747e-09 -7.2231e-09 5.87523e-09)
(3.49386e-09 -8.88804e-09 7.61253e-09)
(4.23385e-09 -1.05496e-08 9.62151e-09)
(5.06382e-09 -1.21878e-08 1.19791e-08)
(6.03074e-09 -1.3742e-08 1.47605e-08)
(7.19999e-09 -1.50924e-08 1.80357e-08)
(8.66884e-09 -1.60321e-08 2.18623e-08)
(1.05913e-08 -1.62266e-08 2.62743e-08)
(1.32194e-08 -1.51709e-08 3.12657e-08)
(1.69426e-08 -1.21962e-08 3.67588e-08)
(2.21773e-08 -6.75648e-09 4.24989e-08)
(2.84127e-08 2.0998e-10 4.76166e-08)
(3.53569e-08 4.80081e-09 5.1541e-08)
(0 0 0)
(1.12834e-09 -2.92069e-09 2.18349e-09)
(2.15868e-09 -5.59177e-09 4.25176e-09)
(3.13558e-09 -8.12263e-09 6.35088e-09)
(4.09988e-09 -1.05953e-08 8.60925e-09)
(5.09168e-09 -1.30644e-08 1.11457e-08)
(6.15333e-09 -1.55535e-08 1.40743e-08)
(7.33318e-09 -1.80493e-08 1.7507e-08)
(8.69029e-09 -2.04894e-08 2.15527e-08)
(1.03002e-08 -2.2744e-08 2.63128e-08)
(1.22623e-08 -2.45891e-08 3.18671e-08)
(1.47091e-08 -2.56775e-08 3.82507e-08)
(1.78148e-08 -2.55309e-08 4.54129e-08)
(2.17768e-08 -2.36319e-08 5.31457e-08)
(2.66804e-08 -1.9815e-08 6.09485e-08)
(3.18688e-08 -1.52713e-08 6.76465e-08)
(3.69467e-08 -1.31801e-08 7.21832e-08)
(0 0 0)
(1.4558e-09 -3.75525e-09 2.82427e-09)
(2.78302e-09 -7.19444e-09 5.49703e-09)
(4.03692e-09 -1.04629e-08 8.20486e-09)
(5.26776e-09 -1.36723e-08 1.11115e-08)
(6.52443e-09 -1.6902e-08 1.4368e-08)
(7.85753e-09 -2.01973e-08 1.81198e-08)
(9.32292e-09 -2.35647e-08 2.25095e-08)
(1.09853e-08 -2.69625e-08 2.76772e-08)
(1.29205e-08 -3.02861e-08 3.37545e-08)
(1.52153e-08 -3.33463e-08 4.08481e-08)
(1.79608e-08 -3.58462e-08 4.90081e-08)
(2.1231e-08 -3.73711e-08 5.81688e-08)
(2.50271e-08 -3.74412e-08 6.80378e-08)
(2.9153e-08 -3.57539e-08 7.78833e-08)
(3.29081e-08 -3.2899e-08 8.60534e-08)
(3.62791e-08 -3.12674e-08 9.10185e-08)
(0 0 0)
(1.74544e-09 -4.47093e-09 3.39626e-09)
(3.33339e-09 -8.5722e-09 6.60636e-09)
(4.82694e-09 -1.24834e-08 9.85094e-09)
(6.28307e-09 -1.63454e-08 1.3323e-08)
(7.75656e-09 -2.02647e-08 1.72002e-08)
(9.30307e-09 -2.43135e-08 2.16531e-08)
(1.09824e-08 -2.85284e-08 2.68493e-08)
(1.28614e-08 -3.29057e-08 3.29555e-08)
(1.50141e-08 -3.73927e-08 4.01316e-08)
(1.75183e-08 -4.18741e-08 4.85166e-08)
(2.04429e-08 -4.61524e-08 5.81976e-08)
(2.38182e-08 -4.99176e-08 6.91474e-08)
(2.75705e-08 -5.27005e-08 8.10902e-08)
(3.14042e-08 -5.38417e-08 9.31997e-08)
(3.45927e-08 -5.28676e-08 1.03375e-07)
(3.69993e-08 -5.07853e-08 1.0955e-07)
(0 0 0)
(1.99216e-09 -5.03954e-09 3.88903e-09)
(3.80002e-09 -9.67054e-09 7.5592e-09)
(5.49152e-09 -1.41031e-08 1.12578e-08)
(7.12745e-09 -1.85055e-08 1.52e-08)
(8.76552e-09 -2.30105e-08 1.95831e-08)
(1.04635e-08 -2.7719e-08 2.45952e-08)
(1.22822e-08 -3.27019e-08 3.04213e-08)
(1.42884e-08 -3.80014e-08 3.72462e-08)
(1.65557e-08 -4.36297e-08 4.52519e-08)
(1.91629e-08 -4.95676e-08 5.46078e-08)
(2.21882e-08 -5.57593e-08 6.54509e-08)
(2.56963e-08 -6.20898e-08 7.78392e-08)
(2.97044e-08 -6.83057e-08 9.16336e-08)
(3.40839e-08 -7.37856e-08 1.06148e-07)
(3.81727e-08 -7.72128e-08 1.1903e-07)
(4.1511e-08 -7.65768e-08 1.27931e-07)
(0 0 0)
(2.19315e-09 -5.4356e-09 4.29603e-09)
(4.17784e-09 -1.04399e-08 8.34289e-09)
(6.02376e-09 -1.52479e-08 1.24064e-08)
(7.79261e-09 -2.00503e-08 1.67164e-08)
(9.54215e-09 -2.5003e-08 2.14815e-08)
(1.13291e-08 -3.02324e-08 2.6899e-08)
(1.32125e-08 -3.58411e-08 3.31613e-08)
(1.52562e-08 -4.19129e-08 4.04595e-08)
(1.75319e-08 -4.85191e-08 4.89833e-08)
(2.01209e-08 -5.57284e-08 5.89169e-08)
(2.31198e-08 -6.36218e-08 7.04306e-08)
(2.66518e-08 -7.23124e-08 8.36618e-08)
(3.08862e-08 -8.19431e-08 9.86491e-08)
(3.60089e-08 -9.25287e-08 1.1504e-07)
(4.16358e-08 -1.02932e-07 1.30658e-07)
(4.77624e-08 -1.12198e-07 1.4305e-07)
(0 0 0)
(2.348e-09 -5.63786e-09 4.61491e-09)
(4.46664e-09 -1.08391e-08 8.95353e-09)
(6.42434e-09 -1.58554e-08 1.32918e-08)
(8.28089e-09 -2.08935e-08 1.78662e-08)
(1.00913e-08 -2.61254e-08 2.28886e-08)
(1.19085e-08 -3.16968e-08 2.85564e-08)
(1.37859e-08 -3.77327e-08 3.50582e-08)
(1.57807e-08 -4.43451e-08 4.25773e-08)
(1.7956e-08 -5.16406e-08 5.12911e-08)
(2.03847e-08 -5.97323e-08 6.13684e-08)
(2.31551e-08 -6.87584e-08 7.29621e-08)
(2.63843e-08 -7.89088e-08 8.61977e-08)
(3.02277e-08 -9.04395e-08 1.01124e-07)
(3.48177e-08 -1.03563e-07 1.17503e-07)
(3.9544e-08 -1.16883e-07 1.33057e-07)
(4.72868e-08 -1.34768e-07 1.50306e-07)
(0 0 0)
(0 0 0)
(0 0 0)
(0 0 0)
(0 0 0)
(0 0 0)
(0 0 0)
(0 0 0)
(0 0 0)
(0 0 0)
(0 0 0)
(0 0 0)
(0 0 0)
(0 0 0)
(0 0 0)
(0 0 0)
(6.24369e-09 6.15964e-09 2.97255e-09)
(0 0 0)
(3.97558e-10 -1.03621e-09 7.01599e-10)
(7.60932e-10 -1.9826e-09 1.36598e-09)
(1.10621e-09 -2.87685e-09 2.0399e-09)
(1.44812e-09 -3.74661e-09 2.76427e-09)
(1.80094e-09 -4.60872e-09 3.57636e-09)
(2.17956e-09 -5.46755e-09 4.51094e-09)
(2.60113e-09 -6.31181e-09 5.60038e-09)
(3.08746e-09 -7.10914e-09 6.87336e-09)
(3.66915e-09 -7.79725e-09 8.35131e-09)
(4.39342e-09 -8.27006e-09 1.0041e-08)
(5.34043e-09 -8.35725e-09 1.19218e-08)
(6.65483e-09 -7.79565e-09 1.39223e-08)
(8.59118e-09 -6.19999e-09 1.58769e-08)
(1.14945e-08 -3.11986e-09 1.74289e-08)
(1.52104e-08 1.25572e-09 1.79186e-08)
(1.7994e-08 5.95668e-09 1.44085e-08)
(0 0 0)
(7.83801e-10 -2.04157e-09 1.38463e-09)
(1.49974e-09 -3.90739e-09 2.69529e-09)
(2.17902e-09 -5.67292e-09 4.02378e-09)
(2.84997e-09 -7.39408e-09 5.45029e-09)
(3.53993e-09 -9.10651e-09 7.04784e-09)
(4.27709e-09 -1.08229e-08 8.88455e-09)
(5.09297e-09 -1.25275e-08 1.10239e-08)
(6.02576e-09 -1.41679e-08 1.35221e-08)
(7.12485e-09 -1.56409e-08 1.64205e-08)
(8.45821e-09 -1.67745e-08 1.97301e-08)
(1.01249e-08 -1.731e-08 2.34019e-08)
(1.22704e-08 -1.69046e-08 2.72747e-08)
(1.50792e-08 -1.52198e-08 3.09773e-08)
(1.86252e-08 -1.22595e-08 3.37779e-08)
(2.22597e-08 -9.15845e-09 3.46567e-08)
(2.48707e-08 -8.91948e-09 3.20092e-08)
(0 0 0)
(1.14841e-09 -2.98603e-09 2.03219e-09)
(2.1963e-09 -5.71797e-09 3.95461e-09)
(3.18815e-09 -8.30898e-09 5.90088e-09)
(4.16411e-09 -1.08445e-08 7.98753e-09)
(5.1626e-09 -1.33823e-08 1.03206e-08)
(6.22258e-09 -1.59498e-08 1.29993e-08)
(7.38614e-09 -1.85388e-08 1.61163e-08)
(8.70102e-09 -2.1096e-08 1.97547e-08)
(1.02225e-08 -2.35093e-08 2.3977e-08)
(1.20134e-08 -2.5591e-08 2.8803e-08)
(1.41409e-08 -2.70697e-08 3.41683e-08)
(1.66595e-08 -2.76218e-08 3.98514e-08)
(1.95561e-08 -2.70214e-08 4.53517e-08)
(2.26022e-08 -2.55329e-08 4.97417e-08)
(2.50857e-08 -2.43822e-08 5.18141e-08)
(2.58306e-08 -2.57273e-08 4.98686e-08)
(0 0 0)
(1.48223e-09 -3.83903e-09 2.62882e-09)
(2.83268e-09 -7.35622e-09 5.11341e-09)
(4.10672e-09 -1.07018e-08 7.62452e-09)
(5.35402e-09 -1.39915e-08 1.03108e-08)
(6.62167e-09 -1.73085e-08 1.33073e-08)
(7.95666e-09 -2.07021e-08 1.67406e-08)
(9.40806e-09 -2.41836e-08 2.073e-08)
(1.10284e-08 -2.77193e-08 2.53837e-08)
(1.28718e-08 -3.12184e-08 3.07872e-08)
(1.49868e-08 -3.45203e-08 3.69775e-08)
(1.73967e-08 -3.73856e-08 4.38952e-08)
(2.00556e-08 -3.95164e-08 5.12976e-08)
(2.27595e-08 -4.06533e-08 5.86115e-08)
(2.5022e-08 -4.08349e-08 6.47399e-08)
(2.61252e-08 -4.07394e-08 6.8139e-08)
(2.5114e-08 -4.20262e-08 6.68168e-08)
(0 0 0)
(1.77789e-09 -4.5704e-09 3.16164e-09)
(3.39455e-09 -8.76429e-09 6.14621e-09)
(4.91347e-09 -1.27669e-08 9.15571e-09)
(6.39123e-09 -1.6724e-08 1.23655e-08)
(7.88103e-09 -2.07462e-08 1.59345e-08)
(9.43517e-09 -2.49093e-08 2.00118e-08)
(1.11071e-08 -2.92538e-08 2.47383e-08)
(1.2952e-08 -3.3781e-08 3.02443e-08)
(1.50238e-08 -3.8446e-08 3.66381e-08)
(1.73647e-08 -4.31481e-08 4.39809e-08)
(1.99806e-08 -4.77194e-08 5.22389e-08)
(2.279e-08 -5.19103e-08 6.1191e-08)
(2.55246e-08 -5.53741e-08 7.02596e-08)
(2.76035e-08 -5.76818e-08 7.8244e-08)
(2.8252e-08 -5.85491e-08 8.32279e-08)
(2.62095e-08 -5.87048e-08 8.27886e-08)
(0 0 0)
(2.03016e-09 -5.15141e-09 3.62094e-09)
(3.87188e-09 -9.88661e-09 7.03391e-09)
(5.59378e-09 -1.4422e-08 1.04654e-08)
(7.25662e-09 -1.89312e-08 1.4111e-08)
(8.91696e-09 -2.35512e-08 1.81474e-08)
(1.06298e-08 -2.8386e-08 2.27396e-08)
(1.24507e-08 -3.35094e-08 2.80436e-08)
(1.44367e-08 -3.89648e-08 3.42054e-08)
(1.66445e-08 -4.47657e-08 4.13511e-08)
(1.91234e-08 -5.08932e-08 4.95658e-08)
(2.18993e-08 -5.72912e-08 5.88513e-08)
(2.49418e-08 -6.38444e-08 6.90401e-08)
(2.80968e-08 -7.03028e-08 7.96207e-08)
(3.09664e-08 -7.60804e-08 8.94011e-08)
(3.28039e-08 -7.99818e-08 9.61585e-08)
(3.19791e-08 -7.99703e-08 9.71287e-08)
(0 0 0)
(2.2361e-09 -5.55608e-09 4.00059e-09)
(4.25927e-09 -1.06727e-08 7.76464e-09)
(6.14023e-09 -1.55915e-08 1.15357e-08)
(7.94104e-09 -2.0509e-08 1.55228e-08)
(9.71884e-09 -2.55852e-08 1.99132e-08)
(1.15285e-08 -3.09493e-08 2.48801e-08)
(1.3425e-08 -3.67053e-08 3.05863e-08)
(1.5465e-08 -4.29357e-08 3.71835e-08)
(1.77074e-08 -4.97073e-08 4.48047e-08)
(2.02116e-08 -5.70779e-08 5.35467e-08)
(2.30347e-08 -6.51064e-08 6.34359e-08)
(2.62259e-08 -7.38591e-08 7.43565e-08)
(2.98137e-08 -8.33829e-08 8.58898e-08)
(3.37369e-08 -9.35171e-08 9.69505e-08)
(3.74724e-08 -1.0301e-07 1.05165e-07)
(4.06891e-08 -1.10609e-07 1.07309e-07)
(0 0 0)
(2.39514e-09 -5.76273e-09 4.29837e-09)
(4.55622e-09 -1.10804e-08 8.33471e-09)
(6.55298e-09 -1.6212e-08 1.23619e-08)
(8.44596e-09 -2.13697e-08 1.65952e-08)
(1.02901e-08 -2.67299e-08 2.12252e-08)
(1.21372e-08 -3.24406e-08 2.64254e-08)
(1.40383e-08 -3.86273e-08 3.23558e-08)
(1.60454e-08 -4.53989e-08 3.91619e-08)
(1.82131e-08 -5.28541e-08 4.69678e-08)
(2.05989e-08 -6.10891e-08 5.58604e-08)
(2.32639e-08 -7.02095e-08 6.58583e-08)
(2.62721e-08 -8.03409e-08 7.68505e-08)
(2.96744e-08 -9.1614e-08 8.84588e-08)
(3.34149e-08 -1.04019e-07 9.97479e-08)
(3.67962e-08 -1.16052e-07 1.08377e-07)
(4.16799e-08 -1.31492e-07 1.11039e-07)
(0 0 0)
(0 0 0)
(0 0 0)
(0 0 0)
(0 0 0)
(0 0 0)
(0 0 0)
(0 0 0)
(0 0 0)
(0 0 0)
(0 0 0)
(0 0 0)
(0 0 0)
(0 0 0)
(0 0 0)
(0 0 0)
(3.85359e-09 3.15962e-09 1.66427e-09)
(0 0 0)
(4.02503e-10 -1.05594e-09 6.24532e-10)
(7.6991e-10 -2.02076e-09 1.2152e-09)
(1.11794e-09 -2.93329e-09 1.81286e-09)
(1.46066e-09 -3.82225e-09 2.4529e-09)
(1.81114e-09 -4.70574e-09 3.16685e-09)
(2.18218e-09 -5.58988e-09 3.98304e-09)
(2.58727e-09 -6.46635e-09 4.92594e-09)
(3.04176e-09 -7.30845e-09 6.01385e-09)
(3.56466e-09 -8.06529e-09 7.25341e-09)
(4.18202e-09 -8.65432e-09 8.62921e-09)
(4.93414e-09 -8.95373e-09 1.00852e-08)
(5.88836e-09 -8.79824e-09 1.14937e-08)
(7.15209e-09 -7.98615e-09 1.26056e-08)
(8.83654e-09 -6.33069e-09 1.30006e-08)
(1.07371e-08 -3.97585e-09 1.22539e-08)
(1.16439e-08 -6.12338e-10 9.31797e-09)
(0 0 0)
(7.93698e-10 -2.08033e-09 1.23259e-09)
(1.51777e-09 -3.98233e-09 2.39789e-09)
(2.20274e-09 -5.78364e-09 3.57615e-09)
(2.87574e-09 -7.54226e-09 4.83674e-09)
(3.56189e-09 -9.29611e-09 6.24148e-09)
(4.28554e-09 -1.10608e-08 7.84599e-09)
(5.07153e-09 -1.28258e-08 9.69855e-09)
(5.94641e-09 -1.45477e-08 1.18355e-08)
(6.93917e-09 -1.61414e-08 1.42708e-08)
(8.08186e-09 -1.74714e-08 1.69759e-08)
(9.40956e-09 -1.83498e-08 1.98445e-08)
(1.09556e-08 -1.85636e-08 2.26347e-08)
(1.27224e-08 -1.79728e-08 2.48875e-08)
(1.45767e-08 -1.67423e-08 2.58837e-08)
(1.60326e-08 -1.56263e-08 2.50654e-08)
(1.66048e-08 -1.60469e-08 2.26755e-08)
(0 0 0)
(1.1633e-09 -3.0425e-09 1.80919e-09)
(2.22354e-09 -5.82705e-09 3.51858e-09)
(3.22438e-09 -8.46996e-09 5.245e-09)
(4.20439e-09 -1.10595e-08 7.08929e-09)
(5.19911e-09 -1.36563e-08 9.14139e-09)
(6.2425e-09 -1.62914e-08 1.14824e-08)
(7.36799e-09 -1.89621e-08 1.41836e-08)
(8.60847e-09 -2.16247e-08 1.72998e-08)
(9.9938e-09 -2.41856e-08 2.08558e-08)
(1.15438e-08 -2.64935e-08 2.48192e-08)
(1.32526e-08 -2.8345e-08 2.9055e-08)
(1.50563e-08 -2.95331e-08 3.32547e-08)
(1.67699e-08 -2.99906e-08 3.68501e-08)
(1.80113e-08 -3.00596e-08 3.9004e-08)
(1.83185e-08 -3.05493e-08 3.91041e-08)
(1.73039e-08 -3.24219e-08 3.75409e-08)
(0 0 0)
(1.5021e-09 -3.91126e-09 2.34062e-09)
(2.86926e-09 -7.49567e-09 4.55019e-09)
(4.15598e-09 -1.09073e-08 6.77806e-09)
(5.41024e-09 -1.42653e-08 9.1529e-09)
(6.676e-09 -1.7656e-08 1.17895e-08)
(7.99472e-09 -2.11319e-08 1.47918e-08)
(9.40604e-09 -2.47088e-08 1.82518e-08)
(1.09465e-08 -2.83602e-08 2.2243e-08)
(1.26435e-08 -3.20087e-08 2.68043e-08)
(1.45015e-08 -3.55193e-08 3.19099e-08)
(1.6472e-08 -3.87001e-08 3.74185e-08)
(1.83968e-08 -4.1333e-08 4.29948e-08)
(1.99187e-08 -4.32655e-08 4.80152e-08)
(2.0431e-08 -4.45871e-08 5.15477e-08)
(1.94782e-08 -4.56861e-08 5.27902e-08)
(1.6883e-08 -4.73526e-08 5.20527e-08)
(0 0 0)
(1.80267e-09 -4.65594e-09 2.81544e-09)
(3.44044e-09 -8.92935e-09 5.47011e-09)
(4.97607e-09 -1.30099e-08 8.14075e-09)
(6.46457e-09 -1.7047e-08 1.09793e-08)
(7.95609e-09 -2.11541e-08 1.4121e-08)
(9.49754e-09 -2.54097e-08 1.76885e-08)
(1.11332e-08 -2.98567e-08 2.17915e-08)
(1.2903e-08 -3.44991e-08 2.65199e-08)
(1.48357e-08 -3.92966e-08 3.19279e-08)
(1.69325e-08 -4.41573e-08 3.80032e-08)
(1.91344e-08 -4.89293e-08 4.46145e-08)
(2.12583e-08 -5.33907e-08 5.14278e-08)
(2.28976e-08 -5.72323e-08 5.77963e-08)
(2.33571e-08 -6.00431e-08 6.27005e-08)
(2.20871e-08 -6.14169e-08 6.50966e-08)
(1.85309e-08 -6.15159e-08 6.51484e-08)
(0 0 0)
(2.05964e-09 -5.24736e-09 3.225e-09)
(3.92679e-09 -1.00716e-08 6.26131e-09)
(5.66962e-09 -1.46941e-08 9.30718e-09)
(7.34758e-09 -1.92921e-08 1.25323e-08)
(9.01458e-09 -2.40052e-08 1.60872e-08)
(1.07208e-08 -2.89391e-08 2.0108e-08)
(1.25138e-08 -3.41672e-08 2.47167e-08)
(1.44372e-08 -3.9731e-08 3.0015e-08)
(1.6526e-08 -4.56387e-08 3.60693e-08)
(1.87945e-08 -5.18621e-08 4.28812e-08)
(2.12132e-08 -5.83274e-08 5.03353e-08)
(2.3664e-08 -6.48872e-08 5.81121e-08)
(2.58686e-08 -7.12362e-08 6.55602e-08)
(2.73181e-08 -7.67129e-08 7.15807e-08)
(2.74495e-08 -8.01037e-08 7.48856e-08)
(2.5183e-08 -7.91347e-08 7.55874e-08)
(0 0 0)
(2.26993e-09 -5.65912e-09 3.5638e-09)
(4.32263e-09 -1.08713e-08 6.9132e-09)
(6.22868e-09 -1.58835e-08 1.02615e-08)
(8.04922e-09 -2.08957e-08 1.37901e-08)
(9.83931e-09 -2.60703e-08 1.76588e-08)
(1.165e-08 -3.1537e-08 2.20111e-08)
(1.35295e-08 -3.73973e-08 2.69744e-08)
(1.55239e-08 -4.37276e-08 3.26551e-08)
(1.76744e-08 -5.05817e-08 3.9124e-08)
(2.00126e-08 -5.79936e-08 4.63888e-08)
(2.25508e-08 -6.59781e-08 5.4344e-08)
(2.52655e-08 -7.45216e-08 6.26829e-08)
(2.80768e-08 -8.35325e-08 7.07528e-08)
(3.08144e-08 -9.26549e-08 7.73717e-08)
(3.30959e-08 -1.00618e-07 8.09704e-08)
(3.51712e-08 -1.05853e-07 8.13986e-08)
(0 0 0)
(2.43283e-09 -5.86927e-09 3.82983e-09)
(4.62712e-09 -1.12859e-08 7.42236e-09)
(6.65281e-09 -1.65138e-08 1.09992e-08)
(8.56997e-09 -2.17692e-08 1.47474e-08)
(1.04321e-08 -2.72304e-08 1.88298e-08)
(1.22881e-08 -3.30449e-08 2.33906e-08)
(1.4184e-08 -3.93345e-08 2.85553e-08)
(1.61636e-08 -4.61994e-08 3.44258e-08)
(1.82682e-08 -5.37208e-08 4.10671e-08)
(2.05345e-08 -6.19641e-08 4.84805e-08)
(2.29896e-08 -7.09804e-08 5.65573e-08)
(2.56415e-08 -8.08008e-08 6.49958e-08)
(2.84573e-08 -9.14029e-08 7.31655e-08)
(3.12922e-08 -1.02577e-07 7.99393e-08)
(3.35825e-08 -1.12884e-07 8.36874e-08)
(3.69459e-08 -1.25271e-07 8.22708e-08)
(0 0 0)
(0 0 0)
(0 0 0)
(0 0 0)
(0 0 0)
(0 0 0)
(0 0 0)
(0 0 0)
(0 0 0)
(0 0 0)
(0 0 0)
(0 0 0)
(0 0 0)
(0 0 0)
(0 0 0)
(0 0 0)
(2.64857e-09 1.7976e-09 1.50735e-09)
(0 0 0)
(4.05813e-10 -1.07231e-09 5.26029e-10)
(7.75677e-10 -2.05241e-09 1.02298e-09)
(1.1248e-09 -2.98008e-09 1.52466e-09)
(1.46642e-09 -3.88497e-09 2.06001e-09)
(1.81222e-09 -4.78621e-09 2.65425e-09)
(2.17273e-09 -5.69142e-09 3.32904e-09)
(2.55769e-09 -6.59486e-09 4.10152e-09)
(2.97622e-09 -7.47456e-09 4.98152e-09)
(3.43697e-09 -8.2885e-09 5.96594e-09)
(3.94877e-09 -8.97068e-09 7.02894e-09)
(4.5234e-09 -9.4288e-09 8.10665e-09)
(5.18264e-09 -9.5454e-09 9.07644e-09)
(5.96843e-09 -9.18057e-09 9.73894e-09)
(6.93454e-09 -8.17599e-09 9.8407e-09)
(7.9882e-09 -6.50712e-09 9.27514e-09)
(8.48982e-09 -3.38613e-09 7.71119e-09)
(0 0 0)
(8.00421e-10 -2.11246e-09 1.03825e-09)
(1.52957e-09 -4.04442e-09 2.01872e-09)
(2.217e-09 -5.87533e-09 3.00785e-09)
(2.8883e-09 -7.66487e-09 4.06238e-09)
(3.56605e-09 -9.45277e-09 5.23177e-09)
(4.27043e-09 -1.12572e-08 6.55866e-09)
(5.01948e-09 -1.30718e-08 8.07705e-09)
(5.82857e-09 -1.48607e-08 9.80699e-09)
(6.70867e-09 -1.65525e-08 1.17439e-08)
(7.66309e-09 -1.80364e-08 1.38405e-08)
(8.68313e-09 -1.91659e-08 1.59784e-08)
(9.74124e-09 -1.97857e-08 1.79325e-08)
(1.07781e-08 -1.98013e-08 1.93452e-08)
(1.16773e-08 -1.9306e-08 1.97885e-08)
(1.22436e-08 -1.87016e-08 1.91579e-08)
(1.26353e-08 -1.88231e-08 1.81726e-08)
(0 0 0)
(1.1736e-09 -3.08925e-09 1.52408e-09)
(2.24179e-09 -5.91731e-09 2.9625e-09)
(3.24691e-09 -8.60297e-09 4.412e-09)
(4.22553e-09 -1.12367e-08 5.9551e-09)
(5.20985e-09 -1.38814e-08 7.66383e-09)
(6.22838e-09 -1.6571e-08 9.60062e-09)
(7.30575e-09 -1.93068e-08 1.1816e-08)
(8.46073e-09 -2.20527e-08 1.43414e-08)
(9.70106e-09 -2.47281e-08 1.71751e-08)
(1.10132e-08 -2.72046e-08 2.02584e-08)
(1.23444e-08 -2.93148e-08 2.34406e-08)
(1.35748e-08 -3.08956e-08 2.64385e-08)
(1.44852e-08 -3.18958e-08 2.88201e-08)
(1.47764e-08 -3.25467e-08 3.01081e-08)
(1.43366e-08 -3.33343e-08 3.02076e-08)
(1.34727e-08 -3.48793e-08 2.99321e-08)
(0 0 0)
(1.51614e-09 -3.97096e-09 1.972e-09)
(2.89438e-09 -7.6108e-09 3.83159e-09)
(4.18779e-09 -1.10766e-08 5.70244e-09)
(5.4421e-09 -1.44899e-08 7.68992e-09)
(6.69755e-09 -1.79393e-08 9.8861e-09)
(7.98961e-09 -2.14796e-08 1.23712e-08)
(9.34826e-09 -2.51295e-08 1.52111e-08)
(1.07949e-08 -2.88667e-08 1.84493e-08)
(1.23343e-08 -3.26217e-08 2.20908e-08)
(1.39378e-08 -3.62719e-08 2.60755e-08)
(1.55141e-08 -3.96445e-08 3.02396e-08)
(1.6861e-08 -4.25401e-08 3.42733e-08)
(1.76129e-08 -4.47988e-08 3.77081e-08)
(1.72822e-08 -4.64159e-08 4.00261e-08)
(1.57653e-08 -4.75781e-08 4.10317e-08)
(1.35465e-08 -4.88993e-08 4.14871e-08)
(0 0 0)
(1.82054e-09 -4.72649e-09 2.3724e-09)
(3.47276e-09 -9.06522e-09 4.60698e-09)
(5.01802e-09 -1.32091e-08 6.85013e-09)
(6.50911e-09 -1.73103e-08 9.22637e-09)
(7.99251e-09 -2.14839e-08 1.18444e-08)
(9.50917e-09 -2.58096e-08 1.47991e-08)
(1.10939e-08 -3.03306e-08 1.81694e-08)
(1.27723e-08 -3.50507e-08 2.201e-08)
(1.45517e-08 -3.99284e-08 2.63342e-08)
(1.6404e-08 -4.48697e-08 3.10861e-08)
(1.8234e-08 -4.97173e-08 3.60996e-08)
(1.98257e-08 -5.42347e-08 4.10523e-08)
(2.07778e-08 -5.80777e-08 4.54468e-08)
(2.05205e-08 -6.07659e-08 4.87071e-08)
(1.88265e-08 -6.18391e-08 5.05067e-08)
(1.57708e-08 -6.14553e-08 5.1573e-08)
(0 0 0)
(2.08133e-09 -5.32628e-09 2.71797e-09)
(3.96642e-09 -1.02235e-08 5.27431e-09)
(5.72222e-09 -1.49164e-08 7.83327e-09)
(7.40622e-09 -1.95846e-08 1.05341e-08)
(9.06897e-09 -2.43693e-08 1.34978e-08)
(1.07553e-08 -2.93756e-08 1.68301e-08)
(1.25041e-08 -3.46745e-08 2.06192e-08)
(1.43464e-08 -4.03022e-08 2.49276e-08)
(1.62987e-08 -4.62564e-08 2.97754e-08)
(1.83509e-08 -5.24906e-08 3.5111e-08)
(2.04441e-08 -5.88999e-08 4.07677e-08)
(2.24347e-08 -6.5285e-08 4.64106e-08)
(2.40537e-08 -7.1265e-08 5.1501e-08)
(2.4904e-08 -7.61043e-08 5.53677e-08)
(2.47024e-08 -7.86674e-08 5.75517e-08)
(2.29473e-08 -7.69609e-08 5.88913e-08)
(0 0 0)
(2.29528e-09 -5.74366e-09 3.00406e-09)
(4.36938e-09 -1.10339e-08 5.82459e-09)
(6.29193e-09 -1.6121e-08 8.63839e-09)
(8.12249e-09 -2.12075e-08 1.15945e-08)
(9.9133e-09 -2.64563e-08 1.48217e-08)
(1.17108e-08 -3.19956e-08 1.84316e-08)
(1.35561e-08 -3.79221e-08 2.25166e-08)
(1.54846e-08 -4.43023e-08 2.71422e-08)
(1.75228e-08 -5.11722e-08 3.23301e-08)
(1.96824e-08 -5.8535e-08 3.80291e-08)
(2.19522e-08 -6.63548e-08 4.4069e-08)
(2.42881e-08 -7.4537e-08 5.00981e-08)
(2.66147e-08 -8.2876e-08 5.55213e-08)
(2.88465e-08 -9.09127e-08 5.95192e-08)
(3.08299e-08 -9.75204e-08 6.14232e-08)
(3.33391e-08 -1.01494e-07 6.21277e-08)
(0 0 0)
(2.46155e-09 -5.95647e-09 3.22891e-09)
(4.68048e-09 -1.14535e-08 6.25484e-09)
(6.72615e-09 -1.67586e-08 9.26163e-09)
(8.65744e-09 -2.209e-08 1.24031e-08)
(1.05257e-08 -2.76262e-08 1.58109e-08)
(1.23762e-08 -3.35123e-08 1.95972e-08)
(1.42492e-08 -3.9864e-08 2.38534e-08)
(1.61802e-08 -4.67687e-08 2.8642e-08)
(1.8199e-08 -5.42861e-08 3.39805e-08)
(2.0327e-08 -6.24455e-08 3.98127e-08)
(2.25732e-08 -7.12403e-08 4.59636e-08)
(2.49282e-08 -8.06153e-08 5.20748e-08)
(2.73573e-08 -9.04355e-08 5.75342e-08)
(2.97693e-08 -1.00403e-07 6.14752e-08)
(3.1775e-08 -1.09288e-07 6.31048e-08)
(3.52815e-08 -1.20137e-07 6.17023e-08)
(0 0 0)
(0 0 0)
(0 0 0)
(0 0 0)
(0 0 0)
(0 0 0)
(0 0 0)
(0 0 0)
(0 0 0)
(0 0 0)
(0 0 0)
(0 0 0)
(0 0 0)
(0 0 0)
(0 0 0)
(0 0 0)
(2.15068e-09 1.29314e-09 1.35301e-09)
(0 0 0)
(4.07818e-10 -1.08509e-09 4.09987e-10)
(7.78946e-10 -2.0771e-09 7.96929e-10)
(1.1281e-09 -3.0166e-09 1.1868e-09)
(1.46768e-09 -3.9339e-09 1.60156e-09)
(1.80804e-09 -4.84885e-09 2.05992e-09)
(2.15767e-09 -5.77018e-09 2.57729e-09)
(2.52319e-09 -6.69393e-09 3.16477e-09)
(2.90894e-09 -7.60118e-09 3.82665e-09)
(3.3164e-09 -8.45508e-09 4.55583e-09)
(3.74428e-09 -9.19785e-09 5.32684e-09)
(4.19137e-09 -9.74882e-09 6.08666e-09)
(4.66565e-09 -1.00025e-08 6.74668e-09)
(5.20349e-09 -9.81972e-09 7.18737e-09)
(5.88491e-09 -9.00701e-09 7.30058e-09)
(6.71331e-09 -7.45292e-09 7.10135e-09)
(7.24092e-09 -4.2596e-09 6.31003e-09)
(0 0 0)
(8.04593e-10 -2.13757e-09 8.09257e-10)
(1.53651e-09 -4.09293e-09 1.57276e-09)
(2.22428e-09 -5.9469e-09 2.3415e-09)
(2.89197e-09 -7.76037e-09 3.15857e-09)
(3.55973e-09 -9.57439e-09 4.06069e-09)
(4.24401e-09 -1.14089e-08 5.07826e-09)
(4.9572e-09 -1.32603e-08 6.23342e-09)
(5.70613e-09 -1.50973e-08 7.5353e-09)
(6.48946e-09 -1.68562e-08 8.97147e-09)
(7.29435e-09 -1.84374e-08 1.0495e-08)
(8.09399e-09 -1.97085e-08 1.20076e-08)
(8.84953e-09 -2.05217e-08 1.33466e-08)
(9.522e-09 -2.07572e-08 1.42937e-08)
(1.00934e-08 -2.04058e-08 1.46519e-08)
(1.05532e-08 -1.97159e-08 1.44598e-08)
(1.12082e-08 -1.9406e-08 1.41602e-08)
(0 0 0)
(1.18019e-09 -3.12578e-09 1.18804e-09)
(2.25294e-09 -5.98779e-09 2.30828e-09)
(3.25923e-09 -8.70662e-09 3.43497e-09)
(4.23354e-09 -1.13743e-08 4.63077e-09)
(5.20493e-09 -1.40553e-08 5.94924e-09)
(6.19707e-09 -1.67853e-08 7.43502e-09)
(7.22727e-09 -1.95682e-08 9.12127e-09)
(8.30359e-09 -2.23717e-08 1.10233e-08)
(9.41912e-09 -2.51216e-08 1.31271e-08)
(1.05426e-08 -2.76975e-08 1.53727e-08)
(1.16054e-08 -2.99402e-08 1.76338e-08)
(1.24887e-08 -3.16817e-08 1.97051e-08)
(1.30257e-08 -3.2826e-08 2.13241e-08)
(1.3068e-08 -3.34865e-08 2.22787e-08)
(1.27032e-08 -3.40306e-08 2.26225e-08)
(1.23443e-08 -3.50856e-08 2.28082e-08)
(0 0 0)
(1.5254e-09 -4.01758e-09 1.53738e-09)
(2.91033e-09 -7.70055e-09 2.98583e-09)
(4.20631e-09 -1.12081e-08 4.44027e-09)
(5.45674e-09 -1.46635e-08 5.98076e-09)
(6.69837e-09 -1.81567e-08 7.67584e-09)
(7.96126e-09 -2.17437e-08 9.58302e-09)
(9.26746e-09 -2.54441e-08 1.17459e-08)
(1.06271e-08 -2.92369e-08 1.41868e-08)
(1.203e-08 -3.30538e-08 1.68937e-08)
(1.34319e-08 -3.67727e-08 1.98011e-08)
(1.47311e-08 -4.0217e-08 2.27685e-08)
(1.57401e-08 -4.31693e-08 2.55683e-08)
(1.61693e-08 -4.54197e-08 2.79154e-08)
(1.57089e-08 -4.68731e-08 2.95815e-08)
(1.44398e-08 -4.76768e-08 3.05592e-08)
(1.28954e-08 -4.85153e-08 3.12492e-08)
(0 0 0)
(1.83264e-09 -4.78148e-09 1.8498e-09)
(3.494e-09 -9.1709e-09 3.59061e-09)
(5.04383e-09 -1.33635e-08 5.33483e-09)
(6.53263e-09 -1.75129e-08 7.17711e-09)
(8.00333e-09 -2.17352e-08 9.19847e-09)
(9.49154e-09 -2.611e-08 1.14672e-08)
(1.10243e-08 -3.06794e-08 1.40357e-08)
(1.26163e-08 -3.5444e-08 1.69332e-08)
(1.42619e-08 -4.03568e-08 2.01507e-08)
(1.59202e-08 -4.53135e-08 2.36216e-08)
(1.74913e-08 -5.01381e-08 2.71966e-08)
(1.87828e-08 -5.45622e-08 3.0631e-08)
(1.94803e-08 -5.81918e-08 3.36136e-08)
(1.91954e-08 -6.0499e-08 3.58805e-08)