/*--------------------------------*- C++ -*----------------------------------*\
| =========                 |                                                 |
| \\      /  F ield         | OpenFOAM: The Open Source CFD Toolbox           |
|  \\    /   O peration     | Version:  v1912                                 |
|   \\  /    A nd           | Website:  www.openfoam.com                      |
|    \\/     M anipulation  |                                                 |
\*---------------------------------------------------------------------------*/
FoamFile
{
    version     2.0;
    format      ascii;
    class       volSymmTensorField;
    location    "0.94/solid";
    object      epsilon;
}
// * * * * * * * * * * * * * * * * * * * * * * * * * * * * * * * * * * * * * //

dimensions      [0 0 0 0 0 0 0];


internalField   nonuniform List<symmTensor> 
256
(
(-2.91409e-06 2.42065e-07 -8.36915e-08 1.56018e-06 2.84401e-07 -2.95268e-06)
(-7.2314e-07 -2.68273e-08 -3.62581e-08 9.77507e-07 2.82048e-07 -2.60208e-06)
(-6.98295e-07 7.55692e-09 3.33805e-08 9.56621e-07 2.8076e-07 -2.55494e-06)
(-2.67404e-06 -2.39281e-07 8.15028e-08 1.48614e-06 2.80307e-07 -2.81812e-06)
(-3.05797e-06 8.71728e-09 -1.30496e-07 -5.4968e-07 5.2617e-08 -3.04721e-06)
(-1.26147e-06 -3.68805e-08 -6.1156e-08 -2.85098e-07 6.38742e-08 -2.65341e-06)
(-1.22754e-06 2.90932e-08 5.75945e-08 -2.86611e-07 6.41582e-08 -2.60727e-06)
(-2.80679e-06 -1.08782e-08 1.27337e-07 -5.44767e-07 5.26347e-08 -2.91426e-06)
(-3.14103e-06 -3.23304e-08 -1.42112e-07 -7.1946e-07 1.07317e-08 -3.1264e-06)
(-1.34234e-06 -3.80192e-08 -6.80159e-08 -5.40986e-07 1.20547e-08 -2.67628e-06)
(-1.30831e-06 3.42158e-08 6.48125e-08 -5.39283e-07 1.22488e-08 -2.6289e-06)
(-2.88532e-06 3.05715e-08 1.38893e-07 -7.11458e-07 1.0746e-08 -2.98875e-06)
(-3.20628e-06 -2.35018e-08 -1.48525e-07 -6.94962e-07 1.78521e-08 -3.21516e-06)
(-1.30634e-06 -3.01987e-08 -7.14662e-08 -6.66059e-07 1.34741e-08 -2.72661e-06)
(-1.2722e-06 2.73565e-08 6.85426e-08 -6.6391e-07 1.34083e-08 -2.67793e-06)
(-2.9456e-06 2.2394e-08 1.45362e-07 -6.88256e-07 1.73099e-08 -3.07356e-06)
(-3.30382e-06 -2.06616e-09 -1.5512e-07 -7.39229e-07 4.308e-08 -3.33055e-06)
(-1.30872e-06 -1.52866e-08 -7.51796e-08 -7.83651e-07 3.69633e-08 -2.8157e-06)
(-1.27406e-06 1.26431e-08 7.23299e-08 -7.81553e-07 3.6703e-08 -2.76593e-06)
(-3.0381e-06 1.14896e-09 1.51988e-07 -7.32789e-07 4.20487e-08 -3.18592e-06)
(-3.47685e-06 3.98699e-08 -1.60303e-07 -9.90823e-07 9.00988e-08 -3.49447e-06)
(-1.43542e-06 1.20906e-08 -7.83886e-08 -9.95811e-07 8.63694e-08 -2.9645e-06)
(-1.40026e-06 -1.54328e-08 7.5439e-08 -9.92977e-07 8.59211e-08 -2.91371e-06)
(-3.20657e-06 -4.10249e-08 1.5717e-07 -9.82177e-07 8.85748e-08 -3.34719e-06)
(-3.77756e-06 1.09029e-07 -1.56732e-07 -1.87587e-06 1.56833e-07 -3.76113e-06)
(-1.75389e-06 5.25795e-08 -7.69269e-08 -1.69722e-06 1.64288e-07 -3.2528e-06)
(-1.7179e-06 -5.7768e-08 7.3715e-08 -1.68737e-06 1.63578e-07 -3.2009e-06)
(-3.50237e-06 -1.10418e-07 1.53573e-07 -1.84825e-06 1.54716e-07 -3.61135e-06)
(-4.29201e-06 1.38657e-07 -1.38417e-07 -4.26658e-06 1.79227e-07 -4.26394e-06)
(-2.17334e-06 6.83363e-08 -6.83136e-08 -3.89596e-06 1.97322e-07 -3.89236e-06)
(-2.13408e-06 -6.51122e-08 6.48356e-08 -3.84281e-06 1.96593e-07 -3.83969e-06)
(-4.00679e-06 -1.35621e-07 1.35309e-07 -4.11604e-06 1.77295e-07 -4.11486e-06)
(-2.3473e-06 1.46761e-07 -6.72744e-08 6.31077e-07 6.83672e-08 -6.21987e-07)
(-4.84777e-07 -5.37251e-08 -2.34409e-08 1.482e-07 1.70998e-07 -5.21406e-07)
(-4.61475e-07 4.70423e-08 2.54132e-08 1.33454e-07 1.72671e-07 -5.1622e-07)
(-2.11364e-06 -1.39318e-07 6.76534e-08 5.72101e-07 7.22287e-08 -6.07879e-07)
(-2.46062e-06 -9.53385e-09 -1.06091e-07 -4.12048e-07 7.2687e-08 -1.02215e-06)
(-8.60434e-07 -4.10851e-08 -4.70329e-08 -1.97562e-07 1.27559e-07 -8.62814e-07)
(-8.296e-07 4.02919e-08 4.94455e-08 -2.02e-07 1.28204e-07 -8.55414e-07)
(-2.22117e-06 9.94217e-09 1.06261e-07 -4.14828e-07 7.3573e-08 -1.00123e-06)
(-2.50558e-06 -3.42904e-08 -1.1284e-07 -5.57479e-07 6.02944e-08 -1.1087e-06)
(-9.03454e-07 -3.60089e-08 -5.20037e-08 -4.11561e-07 7.7123e-08 -9.2898e-07)
(-8.73208e-07 3.56292e-08 5.49558e-08 -4.11724e-07 7.73006e-08 -9.21446e-07)
(-2.26336e-06 3.37954e-08 1.13051e-07 -5.54142e-07 6.0008e-08 -1.0869e-06)
(-2.5452e-06 -2.46158e-08 -1.15236e-07 -6.02145e-07 6.26624e-08 -1.13797e-06)
(-8.58029e-07 -2.82539e-08 -5.28844e-08 -5.85144e-07 6.35315e-08 -9.44506e-07)
(-8.27953e-07 2.74481e-08 5.64707e-08 -5.83756e-07 6.33289e-08 -9.36952e-07)
(-2.29847e-06 2.43226e-08 1.15627e-07 -5.97358e-07 6.14261e-08 -1.11596e-06)
(-2.62714e-06 -3.80164e-09 -1.18784e-07 -6.59936e-07 9.64571e-08 -1.18895e-06)
(-8.53083e-07 -1.4661e-08 -5.50113e-08 -7.10583e-07 9.17311e-08 -9.83046e-07)
(-8.22485e-07 1.35925e-08 5.89408e-08 -7.08849e-07 9.11568e-08 -9.75348e-07)
(-2.37484e-06 3.60743e-09 1.19318e-07 -6.54477e-07 9.42283e-08 -1.16651e-06)
(-2.79903e-06 4.04307e-08 -1.21474e-07 -8.31224e-07 1.52404e-07 -1.30343e-06)
(-9.75449e-07 1.25986e-08 -5.72848e-08 -8.36635e-07 1.46373e-07 -1.08772e-06)
(-9.44159e-07 -1.45978e-08 6.12096e-08 -8.34301e-07 1.45472e-07 -1.07974e-06)
(-2.54079e-06 -4.08726e-08 1.22083e-07 -8.23868e-07 1.49269e-07 -1.28027e-06)
(-3.13473e-06 1.18548e-07 -1.18419e-07 -1.52729e-06 1.94929e-07 -1.53497e-06)
(-1.30441e-06 5.61631e-08 -5.63201e-08 -1.31966e-06 1.93138e-07 -1.32373e-06)
(-1.2719e-06 -6.05223e-08 6.01063e-08 -1.31087e-06 1.92054e-07 -1.31518e-06)
(-2.86966e-06 -1.19367e-07 1.19123e-07 -1.50208e-06 1.91363e-07 -1.51044e-06)
(-3.78028e-06 1.56888e-07 -1.08777e-07 -3.764e-06 1.57689e-07 -1.87681e-06)
(-1.75411e-06 7.69234e-08 -5.27637e-08 -3.25711e-06 1.65036e-07 -1.69499e-06)
(-1.71786e-06 -7.3834e-08 5.71385e-08 -3.2044e-06 1.64346e-07 -1.68535e-06)
(-3.50318e-06 -1.53723e-07 1.09956e-07 -3.61178e-06 1.55647e-07 -1.84971e-06)
(-1.99046e-06 7.90785e-08 -2.89372e-08 2.49491e-07 1.26534e-07 -9.42435e-08)
(-3.09135e-07 -8.38607e-08 -4.9235e-09 -1.49346e-07 2.28833e-07 -9.72349e-08)
(-2.86637e-07 8.00464e-08 5.47419e-09 -1.62377e-07 2.29139e-07 -9.71474e-08)
(-1.76447e-06 -7.0785e-08 2.88674e-08 1.94524e-07 1.27417e-07 -9.37621e-08)
(-2.10498e-06 -2.0909e-08 -4.48594e-08 -4.83471e-07 1.49466e-07 -3.15609e-07)
(-5.51364e-07 -4.70108e-08 -1.40443e-08 -3.06958e-07 2.02176e-07 -3.22795e-07)
(-5.21673e-07 4.8995e-08 1.44459e-08 -3.11791e-07 2.02144e-07 -3.21781e-07)
(-1.87324e-06 2.2388e-08 4.46446e-08 -4.87671e-07 1.49029e-07 -3.12331e-07)
(-2.14424e-06 -3.33527e-08 -4.52742e-08 -5.24067e-07 1.39549e-07 -4.37293e-07)
(-5.64768e-07 -3.4522e-08 -1.50653e-08 -4.10147e-07 1.56015e-07 -4.46011e-07)
(-5.35845e-07 3.61726e-08 1.55099e-08 -4.11108e-07 1.55767e-07 -4.44704e-07)
(-1.90998e-06 3.36432e-08 4.50576e-08 -5.22816e-07 1.38358e-07 -4.33019e-07)
(-2.17968e-06 -2.40522e-08 -4.37438e-08 -5.23636e-07 1.32724e-07 -5.00107e-07)
(-5.16148e-07 -2.71425e-08 -1.38087e-08 -5.20253e-07 1.33947e-07 -5.0799e-07)
(-4.87509e-07 2.76227e-08 1.45536e-08 -5.19517e-07 1.33453e-07 -5.06666e-07)
(-1.94099e-06 2.42708e-08 4.36341e-08 -5.20514e-07 1.30824e-07 -4.95641e-07)
(-2.26117e-06 -4.14564e-09 -4.33249e-08 -5.3997e-07 1.47835e-07 -5.67288e-07)
(-5.10072e-07 -1.49659e-08 -1.35677e-08 -5.95579e-07 1.43988e-07 -5.72877e-07)
(-4.80882e-07 1.46381e-08 1.45512e-08 -5.94344e-07 1.43215e-07 -5.71478e-07)
(-2.01643e-06 4.29707e-09 4.33266e-08 -5.35824e-07 1.45155e-07 -5.62522e-07)
(-2.4416e-06 4.13409e-08 -4.30504e-08 -6.5128e-07 1.69109e-07 -6.8023e-07)
(-6.33814e-07 1.23934e-08 -1.40612e-08 -6.57523e-07 1.63489e-07 -6.83212e-07)
(-6.0373e-07 -1.40944e-08 1.51096e-08 -6.55687e-07 1.62503e-07 -6.81574e-07)
(-2.18964e-06 -4.1553e-08 4.31406e-08 -6.45204e-07 1.6581e-07 -6.74756e-07)
(-2.80068e-06 1.21695e-07 -4.21322e-08 -1.28906e-06 1.58273e-07 -8.46942e-07)
(-9.7137e-07 5.71429e-08 -1.44393e-08 -1.07726e-06 1.52147e-07 -8.49526e-07)
(-9.39701e-07 -6.1626e-08 1.56124e-08 -1.06896e-06 1.51198e-07 -8.47461e-07)
(-2.53989e-06 -1.22405e-07 4.23909e-08 -1.26497e-06 1.55071e-07 -8.40291e-07)
(-3.48258e-06 1.60539e-07 -4.1362e-08 -3.49953e-06 9.34978e-08 -9.89005e-07)
(-1.4322e-06 7.83765e-08 -1.41582e-08 -2.97136e-06 8.97734e-08 -9.91884e-07)
(-1.39635e-06 -7.54978e-08 1.62822e-08 -2.91926e-06 8.9337e-08 -9.89394e-07)
(-3.20777e-06 -1.57354e-07 4.21896e-08 -3.34835e-06 9.20538e-08 -9.81201e-07)
(-1.79154e-06 5.07048e-08 -7.78334e-09 1.07621e-07 1.46127e-07 -1.69672e-08)
(-2.29391e-07 -9.43166e-08 4.0582e-09 -2.4031e-07 2.09723e-07 -4.56405e-08)
(-2.07475e-07 9.08993e-08 -4.01984e-09 -2.5314e-07 2.09627e-07 -4.57698e-08)
(-1.57121e-06 -4.24954e-08 7.59154e-09 5.32651e-08 1.46235e-07 -1.72178e-08)
(-1.90038e-06 -2.36884e-08 -1.056e-08 -5.44402e-07 1.76632e-07 -1.45402e-07)
(-4.06306e-07 -4.80247e-08 4.38998e-09 -3.90683e-07 2.08712e-07 -1.99981e-07)
(-3.7732e-07 5.06284e-08 -4.72602e-09 -3.95579e-07 2.08426e-07 -1.99751e-07)
(-1.67433e-06 2.54156e-08 1.01667e-08 -5.49207e-07 1.75844e-07 -1.44587e-07)
(-1.94226e-06 -3.03611e-08 -8.27106e-09 -5.34398e-07 1.76242e-07 -2.74346e-07)
(-4.08138e-07 -3.22356e-08 5.73682e-09 -4.41074e-07 1.85236e-07 -3.37688e-07)
(-3.79889e-07 3.46569e-08 -6.26138e-09 -4.42308e-07 1.84811e-07 -3.37149e-07)
(-1.71363e-06 3.09809e-08 7.8184e-09 -5.34042e-07 1.74838e-07 -2.72587e-07)
(-1.98186e-06 -2.15868e-08 -5.56611e-09 -4.79691e-07 1.66873e-07 -3.76074e-07)
(-3.64266e-07 -2.52701e-08 7.61095e-09 -4.85479e-07 1.6587e-07 -4.41914e-07)
(-3.36295e-07 2.63783e-08 -8.08058e-09 -4.85111e-07 1.65286e-07 -4.41213e-07)
(-1.74874e-06 2.20737e-08 5.14612e-09 -4.77582e-07 1.64925e-07 -3.73754e-07)
(-2.06856e-06 -2.76928e-09 -3.74591e-09 -4.51788e-07 1.61419e-07 -4.71025e-07)
(-3.64184e-07 -1.4346e-08 8.71871e-09 -5.10326e-07 1.57531e-07 -5.37181e-07)
(-3.35621e-07 1.43542e-08 -9.06472e-09 -5.0945e-07 1.56777e-07 -5.36327e-07)
(-1.82899e-06 3.09069e-09 3.39249e-09 -4.48606e-07 1.58949e-07 -4.68173e-07)
(-2.25699e-06 4.16563e-08 -2.85256e-09 -5.38239e-07 1.48759e-07 -5.77561e-07)
(-4.92684e-07 1.17991e-08 8.78496e-09 -5.47203e-07 1.44464e-07 -6.42727e-07)
(-4.63089e-07 -1.34778e-08 -9.0196e-09 -5.45666e-07 1.43617e-07 -6.41643e-07)
(-2.00933e-06 -4.17888e-08 2.58445e-09 -5.32949e-07 1.45977e-07 -5.73983e-07)
(-2.62648e-06 1.19302e-07 -3.56643e-09 -1.17169e-06 1.07991e-07 -6.81383e-07)
(-8.31727e-07 5.47395e-08 7.6385e-09 -9.69048e-07 1.0293e-07 -7.44273e-07)
(-8.00294e-07 -5.94147e-08 -7.61534e-09 -9.60917e-07 1.02211e-07 -7.42923e-07)
(-2.36849e-06 -1.19991e-07 3.47816e-09 -1.14798e-06 1.05527e-07 -6.76968e-07)
(-3.31128e-06 1.55835e-07 -5.30347e-09 -3.34371e-06 5.0124e-08 -7.21886e-07)
(-1.28913e-06 7.5277e-08 7.36116e-09 -2.82906e-06 4.45696e-08 -7.81233e-07)
(-1.25324e-06 -7.25092e-08 -6.42962e-09 -2.7773e-06 4.42854e-08 -7.79783e-07)
(-3.03769e-06 -1.52629e-07 5.7061e-09 -3.19318e-06 4.91179e-08 -7.17073e-07)
(-1.68284e-06 4.22614e-08 -9.90392e-10 5.51115e-08 1.32776e-07 -2.10144e-08)
(-2.01425e-07 -9.37003e-08 5.07028e-09 -2.67637e-07 1.64563e-07 -4.28164e-08)
(-1.79901e-07 9.02765e-08 -5.13582e-09 -2.80532e-07 1.64453e-07 -4.28372e-08)
(-1.46627e-06 -3.42298e-08 8.35116e-10 8.08863e-10 1.32833e-07 -2.11064e-08)
(-1.78717e-06 -2.25198e-08 3.84143e-10 -5.66242e-07 1.59493e-07 -1.22215e-07)
(-3.56579e-07 -4.61151e-08 8.0915e-09 -4.24876e-07 1.745e-07 -1.64324e-07)
(-3.28103e-07 4.87108e-08 -8.50084e-09 -4.29906e-07 1.74245e-07 -1.64172e-07)
(-1.56501e-06 2.42336e-08 -7.20986e-10 -5.71712e-07 1.58899e-07 -1.21851e-07)
(-1.8329e-06 -2.73727e-08 2.84809e-09 -5.41196e-07 1.66461e-07 -2.44362e-07)
(-3.58353e-07 -3.00016e-08 9.88547e-09 -4.58846e-07 1.69249e-07 -2.93298e-07)
(-3.30579e-07 3.25812e-08 -1.05198e-08 -4.60246e-07 1.68864e-07 -2.92922e-07)
(-1.60811e-06 2.80726e-08 -3.2661e-09 -5.41471e-07 1.65318e-07 -2.43338e-07)
(-1.87828e-06 -1.9135e-08 5.12029e-09 -4.58655e-07 1.59121e-07 -3.6039e-07)
(-3.21872e-07 -2.35714e-08 1.14063e-08 -4.69047e-07 1.56692e-07 -4.10814e-07)
(-2.94347e-07 2.48971e-08 -1.20932e-08 -4.68884e-07 1.56182e-07 -4.10239e-07)
(-1.64888e-06 1.97254e-08 -5.54858e-09 -4.57183e-07 1.57524e-07 -3.5874e-07)
(-1.97086e-06 -1.33811e-09 6.73157e-09 -4.06763e-07 1.43575e-07 -4.6604e-07)
(-3.29133e-07 -1.36287e-08 1.23555e-08 -4.66221e-07 1.402e-07 -5.16146e-07)
(-3.00976e-07 1.37701e-08 -1.29956e-08 -4.65552e-07 1.39585e-07 -5.15378e-07)
(-1.73474e-06 1.73718e-09 -7.12772e-09 -4.04174e-07 1.4162e-07 -4.63763e-07)
(-2.16467e-06 4.13566e-08 7.32689e-09 -4.86886e-07 1.15652e-07 -5.59988e-07)
(-4.61585e-07 1.10443e-08 1.2412e-08 -4.97798e-07 1.1303e-07 -6.08896e-07)
(-4.32311e-07 -1.27337e-08 -1.29448e-08 -4.96411e-07 1.12386e-07 -6.07918e-07)
(-1.91988e-06 -4.14506e-08 -7.6549e-09 -4.82014e-07 1.13553e-07 -5.5703e-07)
(-2.53701e-06 1.1584e-07 6.22513e-09 -1.12076e-06 7.03494e-08 -6.26221e-07)
(-7.98119e-07 5.19016e-08 1.13413e-08 -9.27275e-07 6.77525e-08 -6.73287e-07)
(-7.66857e-07 -5.6678e-08 -1.161e-08 -9.19197e-07 6.72402e-08 -6.72132e-07)
(-2.28097e-06 -1.16511e-07 -6.40215e-09 -1.09716e-06 6.85748e-08 -6.22644e-07)
(-3.21488e-06 1.50444e-07 4.49549e-09 -3.24561e-06 2.81382e-08 -6.36009e-07)
(-1.24854e-06 7.19622e-08 1.11626e-08 -2.74822e-06 2.44223e-08 -6.82078e-07)
(-1.21265e-06 -6.92354e-08 -1.07043e-08 -2.69659e-06 2.42314e-08 -6.80919e-07)
(-2.9422e-06 -1.47211e-07 -4.30037e-09 -3.09529e-06 2.7439e-08 -6.32275e-07)
(-1.62281e-06 4.05844e-08 2.18599e-10 3.64501e-08 1.03099e-07 -3.18261e-08)
(-1.92788e-07 -9.05532e-08 3.4077e-09 -2.75045e-07 1.17428e-07 -4.34756e-08)
(-1.715e-07 8.70694e-08 -3.47392e-09 -2.88004e-07 1.17359e-07 -4.34574e-08)
(-1.40856e-06 -3.26856e-08 -3.18844e-10 -1.78261e-08 1.03161e-07 -3.18504e-08)
(-1.72545e-06 -2.07005e-08 1.79164e-09 -5.6711e-07 1.21424e-07 -1.27896e-07)
(-3.4361e-07 -4.39334e-08 5.87027e-09 -4.32483e-07 1.27258e-07 -1.50272e-07)
(-3.15454e-07 4.64127e-08 -6.18481e-09 -4.37652e-07 1.27092e-07 -1.50146e-07)
(-1.5057e-06 2.23572e-08 -2.01877e-09 -5.73135e-07 1.21072e-07 -1.2769e-07)
(-1.77456e-06 -2.52278e-08 3.51981e-09 -5.39276e-07 1.29248e-07 -2.41694e-07)
(-3.49168e-07 -2.84083e-08 7.18206e-09 -4.62298e-07 1.29141e-07 -2.67273e-07)
(-3.21696e-07 3.09451e-08 -7.67968e-09 -4.63837e-07 1.2887e-07 -2.66994e-07)
(-1.55213e-06 2.59187e-08 -3.81672e-09 -5.40064e-07 1.28483e-07 -2.41063e-07)
(-1.82466e-06 -1.74614e-08 4.97761e-09 -4.48767e-07 1.24427e-07 -3.55911e-07)
(-3.19106e-07 -2.24836e-08 8.11879e-09 -4.60979e-07 1.21995e-07 -3.81498e-07)
(-2.91859e-07 2.38389e-08 -8.69286e-09 -4.6095e-07 1.21628e-07 -3.81043e-07)
(-1.59752e-06 1.8074e-08 -5.29856e-09 -4.47738e-07 1.23313e-07 -3.54748e-07)
(-1.92171e-06 -4.25418e-10 5.98866e-09 -3.89669e-07 1.08523e-07 -4.5895e-07)
(-3.3194e-07 -1.31991e-08 8.67512e-09 -4.48878e-07 1.06146e-07 -4.83536e-07)
(-3.04033e-07 1.3376e-08 -9.24244e-09 -4.48326e-07 1.05711e-07 -4.82891e-07)
(-1.68764e-06 8.53904e-10 -6.29815e-09 -3.87441e-07 1.07161e-07 -4.57192e-07)
(-2.11854e-06 4.09131e-08 6.27122e-09 -4.69744e-07 8.12823e-08 -5.41278e-07)
(-4.66627e-07 1.04337e-08 8.66736e-09 -4.81291e-07 7.99924e-08 -5.64721e-07)
(-4.37551e-07 -1.21282e-08 -9.15694e-09 -4.79977e-07 7.95505e-08 -5.63888e-07)
(-1.87545e-06 -4.09844e-08 -6.53471e-09 -4.65091e-07 7.98474e-08 -5.38905e-07)
(-2.49067e-06 1.13246e-07 5.41901e-09 -1.09997e-06 4.49273e-08 -5.9071e-07)
(-8.00018e-07 4.99447e-08 7.983e-09 -9.12091e-07 4.40875e-08 -6.13303e-07)
(-7.68868e-07 -5.4757e-08 -8.26676e-09 -9.04026e-07 4.37466e-08 -6.12334e-07)
(-2.23578e-06 -1.13897e-07 -5.5746e-09 -1.0764e-06 4.37394e-08 -5.87832e-07)
(-3.16098e-06 1.46739e-07 4.18969e-09 -3.18474e-06 1.66445e-08 -5.96458e-07)
(-1.24442e-06 6.97855e-08 7.89635e-09 -2.69925e-06 1.4826e-08 -6.19637e-07)
(-1.20855e-06 -6.70652e-08 -7.66825e-09 -2.64765e-06 1.47025e-08 -6.18684e-07)
(-2.8888e-06 -1.43481e-07 -4.09081e-09 -3.03446e-06 1.61841e-08 -5.93486e-07)
(-1.59046e-06 4.04461e-08 1.5167e-10 3.08365e-08 6.47448e-08 -3.88521e-08)
(-1.89949e-07 -8.81698e-08 1.71664e-09 -2.75804e-07 7.07417e-08 -4.45609e-08)
(-1.68791e-07 8.4631e-08 -1.75911e-09 -2.88798e-07 7.07061e-08 -4.45389e-08)
(-1.37754e-06 -3.26295e-08 -2.06171e-10 -2.34081e-08 6.47894e-08 -3.88646e-08)
(-1.69263e-06 -1.94518e-08 1.00988e-09 -5.62e-07 7.49238e-08 -1.34949e-07)
(-3.40819e-07 -4.2512e-08 3.01318e-09 -4.31044e-07 7.68833e-08 -1.45452e-07)
(-3.12839e-07 4.48945e-08 -3.20124e-09 -4.3631e-07 7.67946e-08 -1.45353e-07)
(-1.47424e-06 2.10641e-08 -1.13612e-09 -5.68383e-07 7.47468e-08 -1.34824e-07)
(-1.74401e-06 -2.39852e-08 1.92765e-09 -5.3447e-07 8.01248e-08 -2.42667e-07)
(-3.49781e-07 -2.75089e-08 3.70362e-09 -4.60021e-07 7.94126e-08 -2.54029e-07)
(-3.22474e-07 2.99747e-08 -4.00598e-09 -4.61661e-07 7.92585e-08 -2.53818e-07)
(-1.52292e-06 2.46519e-08 -2.09778e-09 -5.35614e-07 7.97024e-08 -2.4225e-07)
(-1.79716e-06 -1.65326e-08 2.68426e-09 -4.44052e-07 7.73433e-08 -3.50732e-07)
(-3.23928e-07 -2.19233e-08 4.16563e-09 -4.56829e-07 7.57235e-08 -3.61281e-07)
(-2.9683e-07 2.32522e-08 -4.5259e-09 -4.56887e-07 7.5509e-08 -3.60922e-07)
(-1.57128e-06 1.71403e-08 -2.8741e-09 -4.43317e-07 7.67046e-08 -3.49884e-07)
(-1.89694e-06 4.33687e-11 3.19389e-09 -3.85115e-07 6.64342e-08 -4.47409e-07)
(-3.40092e-07 -1.30075e-08 4.42369e-09 -4.43763e-07 6.51011e-08 -4.56774e-07)
(-3.12316e-07 1.31826e-08 -4.79022e-09 -4.43277e-07 6.48465e-08 -4.56244e-07)
(-1.66399e-06 3.92893e-10 -3.38146e-09 -3.83104e-07 6.56447e-08 -4.46034e-07)
(-2.09524e-06 4.05879e-08 3.3088e-09 -4.66406e-07 4.81519e-08 -5.21873e-07)
(-4.75813e-07 1.00671e-08 4.40337e-09 -4.7789e-07 4.7643e-08 -5.30385e-07)
(-4.4684e-07 -1.17641e-08 -4.72574e-09 -4.7661e-07 4.73871e-08 -5.29685e-07)
(-1.85307e-06 -4.06468e-08 -3.4709e-09 -4.6187e-07 4.73231e-08 -5.19943e-07)
(-2.46648e-06 1.11737e-07 2.8292e-09 -1.09203e-06 2.56128e-08 -5.65062e-07)
(-8.06892e-07 4.88925e-08 4.06523e-09 -9.06883e-07 2.55259e-08 -5.73424e-07)
(-7.75799e-07 -5.37135e-08 -4.26207e-09 -8.98816e-07 2.53309e-08 -5.72605e-07)
(-2.21221e-06 -1.12374e-07 -2.92801e-09 -1.06845e-06 2.4932e-08 -5.62687e-07)
(-3.13136e-06 1.44679e-07 2.1138e-09 -3.14982e-06 9.15473e-09 -5.72856e-07)
(-1.24728e-06 6.86355e-08 4.01841e-09 -2.67072e-06 8.44851e-09 -5.82234e-07)
(-1.21141e-06 -6.59101e-08 -3.91548e-09 -2.61913e-06 8.37896e-09 -5.81433e-07)
(-2.85942e-06 -1.41403e-07 -2.06569e-09 -2.99953e-06 8.89333e-09 -5.70405e-07)
(-1.57614e-06 4.04696e-08 3.13613e-11 2.96694e-08 2.20234e-08 -4.20335e-08)
(-1.88928e-07 -8.70564e-08 5.03333e-10 -2.75113e-07 2.36787e-08 -4.5426e-08)
(-1.67829e-07 8.34865e-08 -5.176e-10 -2.88122e-07 2.36679e-08 -4.54068e-08)
(-1.36382e-06 -3.26922e-08 -4.86164e-11 -2.45555e-08 2.20393e-08 -4.20472e-08)
(-1.67817e-06 -1.88932e-08 2.77225e-10 -5.58136e-07 2.52453e-08 -1.38603e-07)
(-3.40158e-07 -4.1883e-08 8.81485e-10 -4.28834e-07 2.5696e-08 -1.44422e-07)
(-3.12255e-07 4.42148e-08 -9.43351e-10 -4.34147e-07 2.56685e-08 -1.4434e-07)
(-1.46041e-06 2.0483e-08 -3.17487e-10 -5.64689e-07 2.51919e-08 -1.38515e-07)
(-1.73065e-06 -2.34448e-08 5.5338e-10 -5.31184e-07 2.69914e-08 -2.4322e-07)
(-3.50863e-07 -2.71301e-08 1.08556e-09 -4.57758e-07 2.66729e-08 -2.48953e-07)
(-3.23628e-07 2.95531e-08 -1.18585e-09 -4.5945e-07 2.66235e-08 -2.48777e-07)
(-1.51016e-06 2.40964e-08 -6.08348e-10 -5.32505e-07 2.68576e-08 -2.42897e-07)
(-1.78523e-06 -1.61359e-08 7.82151e-10 -4.421e-07 2.60656e-08 -3.47098e-07)
(-3.26999e-07 -2.16999e-08 1.21998e-09 -4.55006e-07 2.55136e-08 -3.51742e-07)
(-2.99965e-07 2.30056e-08 -1.3412e-09 -4.55109e-07 2.54437e-08 -3.51435e-07)
(-1.55991e-06 1.67369e-08 -8.44385e-10 -4.41512e-07 2.58591e-08 -3.46401e-07)
(-1.88626e-06 2.34131e-10 9.34008e-10 -3.84491e-07 2.22631e-08 -4.39507e-07)
(-3.44657e-07 -1.29403e-08 1.29241e-09 -4.42765e-07 2.1842e-08 -4.42993e-07)
(-3.16936e-07 1.31079e-08 -1.41737e-09 -4.42309e-07 2.17587e-08 -4.42528e-07)
(-1.65381e-06 2.02967e-10 -9.96225e-10 -3.82585e-07 2.20057e-08 -4.38327e-07)
(-2.08515e-06 4.04321e-08 9.6492e-10 -4.66628e-07 1.59534e-08 -5.10135e-07)
(-4.80766e-07 9.9076e-09 1.28441e-09 -4.77941e-07 1.58288e-08 -5.12982e-07)
(-4.51835e-07 -1.16062e-08 -1.39531e-09 -4.76677e-07 1.57452e-08 -5.12356e-07)
(-1.84338e-06 -4.04856e-08 -1.01908e-09 -4.62144e-07 1.5683e-08 -5.08437e-07)
(-2.45578e-06 1.11073e-07 8.14791e-10 -1.08946e-06 8.39489e-09 -5.51384e-07)
(-8.10692e-07 4.84585e-08 1.18651e-09 -9.05355e-07 8.43163e-09 -5.5439e-07)
(-7.79619e-07 -5.32807e-08 -1.25568e-09 -8.97286e-07 8.36818e-09 -5.53653e-07)
(-2.20177e-06 -1.11702e-07 -8.4821e-10 -1.06587e-06 8.17324e-09 -5.49268e-07)
(-3.11794e-06 1.43791e-07 5.80437e-10 -3.13403e-06 2.95778e-09 -5.60899e-07)
(-1.24912e-06 6.81612e-08 1.17016e-09 -2.65756e-06 2.78571e-09 -5.64953e-07)
(-1.21324e-06 -6.54312e-08 -1.14101e-09 -2.60597e-06 2.76321e-09 -5.64233e-07)
(-2.84609e-06 -1.40505e-07 -5.65929e-10 -2.98372e-06 2.87301e-09 -5.58711e-07)
)
;

boundaryField
{
    interface
    {
        type            calculated;
        value           nonuniform List<symmTensor> 
192
(
(-4.74817e-06 2.21547e-12 1.69637e-11 1.56018e-06 2.84401e-07 -2.95268e-06)
(-4.45842e-06 2.42533e-12 2.75915e-11 -5.4968e-07 5.2617e-08 -3.04721e-06)
(-4.55492e-06 9.92537e-13 3.17988e-11 -7.1946e-07 1.07317e-08 -3.1264e-06)
(-4.70009e-06 -1.87893e-12 3.32256e-11 -6.94962e-07 1.78521e-08 -3.21516e-06)
(-4.8714e-06 -4.52703e-12 3.3222e-11 -7.39229e-07 4.308e-08 -3.33055e-06)
(-5.08858e-06 -9.13718e-12 3.2597e-11 -9.90823e-07 9.00988e-08 -3.49447e-06)
(-5.37888e-06 -1.26923e-11 3.02987e-11 -1.87587e-06 1.56833e-07 -3.76113e-06)
(-5.93327e-06 -2.89653e-11 2.85451e-11 -4.26658e-06 1.79227e-07 -4.26394e-06)
(-3.91922e-06 1.59431e-12 8.31423e-12 6.31077e-07 6.83672e-08 -6.21987e-07)
(-3.73215e-06 1.96422e-12 1.44395e-11 -4.12048e-07 7.2687e-08 -1.02215e-06)
(-3.78694e-06 7.6204e-13 1.64006e-11 -5.57479e-07 6.02944e-08 -1.1087e-06)
(-3.89394e-06 -2.12634e-12 1.67287e-11 -6.02145e-07 6.26624e-08 -1.13797e-06)
(-4.04539e-06 -4.88553e-12 1.62544e-11 -6.59936e-07 9.64571e-08 -1.18895e-06)
(-4.2669e-06 -9.93105e-12 1.54616e-11 -8.31224e-07 1.52404e-07 -1.30343e-06)
(-4.61411e-06 -1.38438e-11 1.39707e-11 -1.52729e-06 1.94929e-07 -1.53497e-06)
(-5.38369e-06 -3.08793e-11 1.28112e-11 -3.764e-06 1.57689e-07 -1.87681e-06)
(-3.40801e-06 1.36674e-12 6.49928e-12 2.49491e-07 1.26534e-07 -9.42435e-08)
(-3.33768e-06 1.73216e-12 1.11252e-11 -4.83471e-07 1.49466e-07 -3.15609e-07)
(-3.40031e-06 5.90339e-13 1.25675e-11 -5.24067e-07 1.39549e-07 -4.37293e-07)
(-3.50139e-06 -2.40038e-12 1.27697e-11 -5.23636e-07 1.32724e-07 -5.00107e-07)
(-3.65328e-06 -5.37279e-12 1.23629e-11 -5.3997e-07 1.47835e-07 -5.67288e-07)
(-3.88939e-06 -1.0932e-11 1.17172e-11 -6.5128e-07 1.69109e-07 -6.8023e-07)
(-4.27268e-06 -1.53801e-11 1.06578e-11 -1.28906e-06 1.58273e-07 -8.46942e-07)
(-5.10103e-06 -3.35003e-11 9.79224e-12 -3.49953e-06 9.34978e-08 -9.89005e-07)
(-3.10531e-06 1.02123e-12 3.92278e-12 1.07621e-07 1.46127e-07 -1.69672e-08)
(-3.07837e-06 1.23152e-12 7.0992e-12 -5.44402e-07 1.76632e-07 -1.45402e-07)
(-3.15121e-06 7.25479e-14 8.04047e-12 -5.34398e-07 1.76242e-07 -2.74346e-07)
(-3.25522e-06 -2.92119e-12 8.08312e-12 -4.79691e-07 1.66873e-07 -3.76074e-07)
(-3.41161e-06 -5.97537e-12 7.70537e-12 -4.51788e-07 1.61419e-07 -4.71025e-07)
(-3.65788e-06 -1.17399e-11 7.18805e-12 -5.38239e-07 1.48759e-07 -5.77561e-07)
(-4.05871e-06 -1.64182e-11 6.52758e-12 -1.17169e-06 1.07991e-07 -6.81383e-07)
(-4.89757e-06 -3.47636e-11 6.03024e-12 -3.34371e-06 5.0124e-08 -7.21886e-07)
(-2.92778e-06 8.52607e-13 2.84751e-12 5.51115e-08 1.32776e-07 -2.10144e-08)
(-2.91233e-06 9.12584e-13 5.15196e-12 -5.66242e-07 1.59493e-07 -1.22215e-07)
(-2.99092e-06 -3.15888e-13 5.8428e-12 -5.41196e-07 1.66461e-07 -2.44362e-07)
(-3.09928e-06 -3.34518e-12 5.87085e-12 -4.58655e-07 1.59121e-07 -3.6039e-07)
(-3.26045e-06 -6.49296e-12 5.59058e-12 -4.06763e-07 1.43575e-07 -4.6604e-07)
(-3.51288e-06 -1.24332e-11 5.20557e-12 -4.86886e-07 1.15652e-07 -5.59988e-07)
(-3.92057e-06 -1.73208e-11 4.74939e-12 -1.12076e-06 7.03494e-08 -6.26221e-07)
(-4.75418e-06 -3.59053e-11 4.39722e-12 -3.24561e-06 2.81382e-08 -6.36009e-07)
(-2.82476e-06 7.19579e-13 1.71889e-12 3.64501e-08 1.03099e-07 -3.18261e-08)
(-2.81216e-06 6.52308e-13 3.21972e-12 -5.6711e-07 1.21424e-07 -1.27896e-07)
(-2.89376e-06 -6.42202e-13 3.67544e-12 -5.39276e-07 1.29248e-07 -2.41694e-07)
(-3.00565e-06 -3.69271e-12 3.68322e-12 -4.48767e-07 1.24427e-07 -3.55911e-07)
(-3.1705e-06 -6.89072e-12 3.48703e-12 -3.89669e-07 1.08523e-07 -4.5895e-07)
(-3.42636e-06 -1.29142e-11 3.22618e-12 -4.69744e-07 8.12823e-08 -5.41278e-07)
(-3.83595e-06 -1.7907e-11 2.94886e-12 -1.09997e-06 4.49273e-08 -5.9071e-07)
(-4.66164e-06 -3.66004e-11 2.74787e-12 -3.18474e-06 1.66445e-08 -5.96458e-07)
(-2.76784e-06 6.53786e-13 1.00273e-12 3.08365e-08 6.47448e-08 -3.88521e-08)
(-2.75606e-06 4.98649e-13 1.87627e-12 -5.62e-07 7.49238e-08 -1.34949e-07)
(-2.83924e-06 -8.49653e-13 2.14392e-12 -5.3447e-07 8.01248e-08 -2.42667e-07)
(-2.95338e-06 -3.92252e-12 2.14909e-12 -4.44052e-07 7.73433e-08 -3.50732e-07)
(-3.12056e-06 -7.15984e-12 2.03583e-12 -3.85115e-07 6.64342e-08 -4.47409e-07)
(-3.37812e-06 -1.3241e-11 1.88163e-12 -4.66406e-07 4.81519e-08 -5.21873e-07)
(-3.78779e-06 -1.83078e-11 1.72577e-12 -1.09203e-06 2.56128e-08 -5.65062e-07)
(-4.60741e-06 -3.70858e-11 1.60525e-12 -3.14982e-06 9.15473e-09 -5.72856e-07)
(-2.74243e-06 6.13634e-13 2.94171e-13 2.96694e-08 2.20234e-08 -4.20335e-08)
(-2.73093e-06 4.12581e-13 5.718e-13 -5.58136e-07 2.52453e-08 -1.38603e-07)
(-2.8148e-06 -9.60567e-13 6.58148e-13 -5.31184e-07 2.69914e-08 -2.4322e-07)
(-2.93002e-06 -4.03985e-12 6.58552e-13 -4.421e-07 2.60656e-08 -3.47098e-07)
(-3.09828e-06 -7.29231e-12 6.214e-13 -3.84491e-07 2.22631e-08 -4.39507e-07)
(-3.35652e-06 -1.33931e-11 5.70819e-13 -4.66628e-07 1.59534e-08 -5.10135e-07)
(-3.76595e-06 -1.84934e-11 5.2503e-13 -1.08946e-06 8.39489e-09 -5.51384e-07)
(-4.58245e-06 -3.73048e-11 4.87589e-13 -3.13403e-06 2.95778e-09 -5.60899e-07)
(-2.91409e-06 2.42065e-07 -2.33872e-11 1.56018e-06 -5.73566e-12 -4.83074e-06)
(-3.05797e-06 8.71728e-09 -4.00223e-11 -5.4968e-07 -7.2415e-12 -4.51136e-06)
(-3.14103e-06 -3.23304e-08 -4.75079e-11 -7.1946e-07 -6.52349e-12 -4.60886e-06)
(-3.20628e-06 -2.35018e-08 -5.0721e-11 -6.94962e-07 -5.06697e-12 -4.76472e-06)
(-3.30382e-06 -2.06616e-09 -5.20744e-11 -7.39229e-07 -4.40378e-12 -4.943e-06)
(-3.47685e-06 3.98699e-08 -5.31586e-11 -9.90823e-07 -4.66339e-12 -5.15531e-06)
(-3.77756e-06 1.09029e-07 -5.44887e-11 -1.87587e-06 -5.61933e-12 -5.42967e-06)
(-4.29201e-06 1.38657e-07 -6.02812e-11 -4.26658e-06 -6.93556e-12 -5.96936e-06)
(-7.2314e-07 -2.68273e-08 -1.3564e-11 9.77507e-07 -3.42293e-12 -4.30719e-06)
(-1.26147e-06 -3.68805e-08 -2.6112e-11 -2.85098e-07 -5.68497e-12 -4.00132e-06)
(-1.34234e-06 -3.80192e-08 -3.13164e-11 -5.40986e-07 -5.47421e-12 -4.02134e-06)
(-1.30634e-06 -3.01987e-08 -3.33591e-11 -6.66059e-07 -3.81179e-12 -4.12354e-06)
(-1.30872e-06 -1.52866e-08 -3.42463e-11 -7.83651e-07 -2.57909e-12 -4.26906e-06)
(-1.43542e-06 1.20906e-08 -3.53674e-11 -9.95811e-07 -1.86789e-12 -4.46638e-06)
(-1.75389e-06 5.25795e-08 -3.77561e-11 -1.69722e-06 -1.98267e-12 -4.77648e-06)
(-2.17334e-06 6.83363e-08 -4.52713e-11 -3.89596e-06 -2.42446e-12 -5.53631e-06)
(-6.98295e-07 7.55692e-09 -1.32485e-11 9.56621e-07 -2.52559e-12 -4.22288e-06)
(-1.22754e-06 2.90932e-08 -2.58034e-11 -2.86611e-07 -4.79759e-12 -3.92212e-06)
(-1.30831e-06 3.42158e-08 -3.11722e-11 -5.39283e-07 -4.77987e-12 -3.93969e-06)
(-1.2722e-06 2.73565e-08 -3.33209e-11 -6.6391e-07 -2.93702e-12 -4.03943e-06)
(-1.27406e-06 1.26431e-08 -3.4192e-11 -7.81553e-07 -1.2995e-12 -4.18301e-06)
(-1.40026e-06 -1.54328e-08 -3.51662e-11 -9.92977e-07 8.75443e-14 -4.3786e-06)
(-1.7179e-06 -5.7768e-08 -3.7265e-11 -1.68737e-06 8.22911e-13 -4.6871e-06)
(-2.13408e-06 -6.51122e-08 -4.45623e-11 -3.84281e-06 9.83532e-13 -5.4469e-06)
(-2.67404e-06 -2.39281e-07 -1.40659e-11 1.48614e-06 -2.06975e-12 -4.58852e-06)
(-2.80679e-06 -1.08782e-08 -2.87011e-11 -5.44767e-07 -4.2818e-12 -4.28191e-06)
(-2.88532e-06 3.05715e-08 -3.54435e-11 -7.11458e-07 -4.29517e-12 -4.37083e-06)
(-2.9456e-06 2.2394e-08 -3.82591e-11 -6.88256e-07 -2.28324e-12 -4.51932e-06)
(-3.0381e-06 1.14896e-09 -3.94005e-11 -7.32789e-07 -4.34303e-13 -4.69223e-06)
(-3.20657e-06 -4.10249e-08 -4.06754e-11 -9.82177e-07 1.28782e-12 -4.89998e-06)
(-3.50237e-06 -1.10418e-07 -4.26498e-11 -1.84825e-06 2.51719e-12 -5.17074e-06)
(-4.00679e-06 -1.35621e-07 -5.04366e-11 -4.11604e-06 3.6635e-12 -5.71523e-06)
(-4.31776e-06 4.36626e-12 3.37005e-12 1.48614e-06 2.80307e-07 -2.81812e-06)
(-4.02391e-06 6.34732e-12 6.9259e-12 -5.44767e-07 5.26347e-08 -2.91426e-06)
(-4.11158e-06 5.38527e-12 8.14179e-12 -7.11458e-07 1.0746e-08 -2.98875e-06)
(-4.24701e-06 2.35971e-12 8.84282e-12 -6.88256e-07 1.73099e-08 -3.07356e-06)
(-4.40929e-06 5.71602e-13 9.48394e-12 -7.32789e-07 4.20487e-08 -3.18592e-06)
(-4.61833e-06 -1.97812e-12 1.11841e-11 -9.82177e-07 8.85748e-08 -3.34719e-06)
(-4.90049e-06 -1.82453e-12 1.27071e-11 -1.84825e-06 1.54716e-07 -3.61135e-06)
(-5.44137e-06 -1.57944e-11 1.66947e-11 -4.11604e-06 1.77295e-07 -4.11486e-06)
(-3.49849e-06 1.72315e-12 -2.12876e-12 5.72101e-07 7.22287e-08 -6.07879e-07)
(-3.31492e-06 2.95596e-12 -2.44536e-12 -4.14828e-07 7.3573e-08 -1.00123e-06)
(-3.36301e-06 2.63581e-12 -3.10362e-12 -5.54142e-07 6.0008e-08 -1.0869e-06)
(-3.46063e-06 9.36883e-13 -3.24806e-12 -5.97358e-07 6.14261e-08 -1.11596e-06)
(-3.60197e-06 4.7357e-13 -2.87905e-12 -6.54477e-07 9.42283e-08 -1.16651e-06)
(-3.81302e-06 -9.40127e-13 -1.4767e-12 -8.23868e-07 1.49269e-07 -1.28027e-06)
(-4.14898e-06 6.16994e-13 3.75427e-13 -1.50208e-06 1.91363e-07 -1.51044e-06)
(-4.902e-06 -1.2031e-11 3.17152e-12 -3.61178e-06 1.55647e-07 -1.84971e-06)
(-3.00104e-06 9.52012e-13 -1.41905e-12 1.94524e-07 1.27417e-07 -9.37621e-08)
(-2.93359e-06 1.65572e-12 -1.20759e-12 -4.87671e-07 1.49029e-07 -3.12331e-07)
(-2.98963e-06 1.59962e-12 -1.11786e-12 -5.22816e-07 1.38358e-07 -4.33019e-07)
(-3.0813e-06 6.05331e-13 -7.74809e-13 -5.20514e-07 1.30824e-07 -4.95641e-07)
(-3.22218e-06 9.46165e-13 -1.76476e-13 -5.35824e-07 1.45155e-07 -5.62522e-07)
(-3.44563e-06 2.16663e-13 1.02583e-12 -6.45204e-07 1.6581e-07 -6.74756e-07)
(-3.81444e-06 2.48603e-12 2.31028e-12 -1.26497e-06 1.55071e-07 -8.40291e-07)