/*--------------------------------*- C++ -*----------------------------------*\
| =========                 |                                                 |
| \\      /  F ield         | OpenFOAM: The Open Source CFD Toolbox           |
|  \\    /   O peration     | Version:  v1912                                 |
|   \\  /    A nd           | Website:  www.openfoam.com                      |
|    \\/     M anipulation  |                                                 |
\*---------------------------------------------------------------------------*/
FoamFile
{
    version     2.0;
    format      ascii;
    class       pointVectorField;
    location    "0.94/solid";
    object      pointDD;
}
// * * * * * * * * * * * * * * * * * * * * * * * * * * * * * * * * * * * * * //

dimensions      [0 1 0 0 0 0 0];


internalField   nonuniform List<vector> 
405
(
(1.36453e-10 2.38654e-10 1.57929e-10)
(5.57091e-11 1.79554e-10 1.26557e-10)
(-6.80454e-12 1.59487e-10 1.18925e-10)
(-6.37882e-11 1.65786e-10 1.07652e-10)
(-1.175e-10 2.18767e-10 1.28378e-10)
(2.88145e-10 3.18452e-10 3.98724e-10)
(1.63657e-10 3.26278e-10 4.16751e-10)
(-2.24675e-11 2.88956e-10 3.98014e-10)
(-1.95074e-10 3.07812e-10 3.70156e-10)
(-2.70406e-10 3.0275e-10 3.38272e-10)
(3.92471e-10 1.85927e-10 6.82194e-10)
(2.26237e-10 2.1116e-10 7.00632e-10)
(-4.01648e-11 1.86911e-10 6.74023e-10)
(-2.90325e-10 2.10932e-10 6.39153e-10)
(-4.00854e-10 1.98497e-10 5.95211e-10)
(4.09616e-10 -3.55752e-12 9.06147e-10)
(2.29002e-10 3.68897e-11 9.20743e-10)
(-5.96544e-11 2.95017e-11 8.8524e-10)
(-3.31682e-10 5.36342e-11 8.48639e-10)
(-4.53086e-10 3.5506e-11 8.01156e-10)
(4.01615e-10 -1.98187e-10 1.10598e-09)
(2.12986e-10 -1.54357e-10 1.11494e-09)
(-8.32555e-11 -1.52572e-10 1.07073e-09)
(-3.62582e-10 -1.22765e-10 1.03448e-09)
(-4.89063e-10 -1.35254e-10 9.86989e-10)
(4.07388e-10 -4.13944e-10 1.30472e-09)
(2.06032e-10 -3.74025e-10 1.3068e-09)
(-1.11747e-10 -3.67039e-10 1.25519e-09)
(-4.12219e-10 -3.28409e-10 1.21896e-09)
(-5.48591e-10 -3.27869e-10 1.1734e-09)
(4.48011e-10 -7.06722e-10 1.50893e-09)
(2.22296e-10 -6.70028e-10 1.50715e-09)
(-1.45845e-10 -6.53329e-10 1.45299e-09)
(-4.95895e-10 -6.09255e-10 1.41235e-09)
(-6.53238e-10 -5.95656e-10 1.36598e-09)
(5.02763e-10 -1.10886e-09 1.68333e-09)
(2.48719e-10 -1.07335e-09 1.68436e-09)
(-1.86326e-10 -1.04116e-09 1.6362e-09)
(-6.01443e-10 -9.91725e-10 1.58317e-09)
(-7.82278e-10 -9.64794e-10 1.5301e-09)
(5.16048e-10 -1.35473e-09 1.75999e-09)
(2.58646e-10 -1.33663e-09 1.75771e-09)
(-2.09847e-10 -1.29165e-09 1.71913e-09)
(-6.57277e-10 -1.23093e-09 1.66453e-09)
(-8.55872e-10 -1.18689e-09 1.6137e-09)
(9.55343e-11 1.22514e-10 7.44001e-11)
(0 0 0)
(0 0 0)
(0 0 0)
(-6.35216e-11 1.14114e-10 6.25628e-11)
(2.65564e-10 1.92036e-10 2.79352e-10)
(0 0 0)
(0 0 0)
(0 0 0)
(-2.06783e-10 1.88923e-10 2.39699e-10)
(3.5904e-10 4.7807e-11 5.20847e-10)
(0 0 0)
(0 0 0)
(0 0 0)
(-3.16738e-10 7.2265e-11 4.54488e-10)
(3.74864e-10 -1.34981e-10 7.29197e-10)
(0 0 0)
(0 0 0)
(0 0 0)
(-3.60079e-10 -8.38144e-11 6.441e-10)
(3.68373e-10 -3.17866e-10 9.19656e-10)
(0 0 0)
(0 0 0)
(0 0 0)
(-3.91266e-10 -2.41395e-10 8.1977e-10)
(3.76823e-10 -5.14513e-10 1.10767e-09)
(0 0 0)
(0 0 0)
(0 0 0)
(-4.4781e-10 -4.12834e-10 9.94754e-10)
(4.2565e-10 -7.74642e-10 1.2951e-09)
(0 0 0)
(0 0 0)
(0 0 0)
(-5.55006e-10 -6.46055e-10 1.17017e-09)
(4.95889e-10 -1.13826e-09 1.45007e-09)
(0 0 0)
(0 0 0)
(0 0 0)
(-6.93282e-10 -9.75917e-10 1.31534e-09)
(4.97197e-10 -1.37004e-09 1.5251e-09)
(2.41145e-10 -1.36628e-09 1.52904e-09)
(-1.93673e-10 -1.31114e-09 1.50296e-09)
(-6.08686e-10 -1.2513e-09 1.4592e-09)
(-7.87946e-10 -1.1925e-09 1.40337e-09)
(6.23243e-11 6.24228e-11 2.95465e-11)
(0 0 0)
(0 0 0)
(0 0 0)
(-2.85898e-11 5.33325e-11 2.32764e-11)
(1.79965e-10 5.96181e-11 1.4445e-10)
(0 0 0)
(0 0 0)
(0 0 0)
(-1.12222e-10 5.45525e-11 1.20781e-10)
(2.48683e-10 -9.20795e-11 3.22234e-10)
(0 0 0)
(0 0 0)
(0 0 0)
(-1.87346e-10 -7.08474e-11 2.78617e-10)
(2.57788e-10 -2.62486e-10 5.02951e-10)
(0 0 0)
(0 0 0)
(0 0 0)
(-2.15598e-10 -2.15596e-10 4.434e-10)
(2.50529e-10 -4.2725e-10 6.74628e-10)
(0 0 0)
(0 0 0)
(0 0 0)
(-2.38897e-10 -3.55581e-10 6.01811e-10)
(2.6235e-10 -5.95145e-10 8.36687e-10)
(0 0 0)
(0 0 0)
(0 0 0)
(-2.92507e-10 -4.98702e-10 7.52165e-10)
(3.23277e-10 -8.08715e-10 9.82331e-10)
(0 0 0)
(0 0 0)
(0 0 0)
(-4.05933e-10 -6.86251e-10 8.87556e-10)
(4.17899e-10 -1.11975e-09 1.08521e-09)
(0 0 0)
(0 0 0)
(0 0 0)
(-5.62664e-10 -9.65136e-10 9.83199e-10)
(4.34069e-10 -1.3327e-09 1.12289e-09)
(2.05563e-10 -1.32623e-09 1.12614e-09)
(-1.61959e-10 -1.2642e-09 1.11508e-09)
(-5.11113e-10 -1.21583e-09 1.07606e-09)
(-6.66697e-10 -1.16284e-09 1.03307e-09)
(3.77212e-11 3.15272e-11 1.66016e-11)
(0 0 0)
(0 0 0)
(0 0 0)
(-2.75114e-12 1.99974e-11 1.24255e-11)
(1.14644e-10 -7.68816e-12 9.38529e-11)
(0 0 0)
(0 0 0)
(0 0 0)
(-4.08331e-11 -1.85396e-11 7.79053e-11)
(1.63692e-10 -1.64652e-10 2.29247e-10)
(0 0 0)
(0 0 0)
(0 0 0)
(-8.90751e-11 -1.50542e-10 1.9901e-10)
(1.70065e-10 -3.30452e-10 3.80042e-10)
(0 0 0)
(0 0 0)
(0 0 0)
(-1.07626e-10 -2.91276e-10 3.37212e-10)
(1.657e-10 -4.81171e-10 5.27276e-10)
(0 0 0)
(0 0 0)
(0 0 0)
(-1.2743e-10 -4.17435e-10 4.73254e-10)
(1.82945e-10 -6.23281e-10 6.60159e-10)
(0 0 0)
(0 0 0)
(0 0 0)
(-1.8067e-10 -5.34937e-10 5.96129e-10)
(2.52489e-10 -7.99349e-10 7.65828e-10)
(0 0 0)
(0 0 0)
(0 0 0)
(-2.97418e-10 -6.85328e-10 6.9333e-10)
(3.59418e-10 -1.06974e-09 8.23771e-10)
(0 0 0)
(0 0 0)
(0 0 0)
(-4.61506e-10 -9.24046e-10 7.45833e-10)
(3.82923e-10 -1.26736e-09 8.31946e-10)
(1.78015e-10 -1.2648e-09 8.32439e-10)
(-1.3735e-10 -1.20392e-09 8.29431e-10)
(-4.34643e-10 -1.15897e-09 7.95142e-10)
(-5.68693e-10 -1.10549e-09 7.64136e-10)
(2.55101e-11 1.76711e-11 1.52636e-11)
(0 0 0)
(0 0 0)
(0 0 0)
(1.0384e-11 4.13399e-12 1.23417e-11)
(8.26898e-11 -3.58531e-11 7.82578e-11)
(0 0 0)
(0 0 0)
(0 0 0)
(-4.71912e-12 -5.19347e-11 6.72111e-11)
(1.23482e-10 -1.92766e-10 1.84562e-10)
(0 0 0)
(0 0 0)
(0 0 0)
(-3.97946e-11 -1.85694e-10 1.63503e-10)
(1.31234e-10 -3.55243e-10 3.04005e-10)
(0 0 0)
(0 0 0)
(0 0 0)
(-5.44723e-11 -3.23913e-10 2.73607e-10)
(1.31828e-10 -4.96539e-10 4.21303e-10)
(0 0 0)
(0 0 0)
(0 0 0)
(-7.40425e-11 -4.40907e-10 3.82148e-10)
(1.54828e-10 -6.22098e-10 5.23579e-10)
(0 0 0)
(0 0 0)
(0 0 0)
(-1.2815e-10 -5.41883e-10 4.76414e-10)
(2.29507e-10 -7.76541e-10 5.97464e-10)
(0 0 0)
(0 0 0)
(0 0 0)
(-2.45519e-10 -6.70587e-10 5.43578e-10)
(3.40089e-10 -1.0246e-09 6.2941e-10)
(0 0 0)
(0 0 0)
(0 0 0)
(-4.09107e-10 -8.86812e-10 5.71348e-10)
(3.64889e-10 -1.21427e-09 6.245e-10)
(1.71711e-10 -1.21826e-09 6.20044e-10)
(-1.18726e-10 -1.16218e-09 6.17564e-10)
(-3.90975e-10 -1.11625e-09 5.92527e-10)
(-5.14389e-10 -1.05917e-09 5.74175e-10)
(2.05341e-11 1.25995e-11 1.37686e-11)
(0 0 0)
(0 0 0)
(0 0 0)
(1.597e-11 -2.29291e-12 1.17927e-11)
(7.02213e-11 -4.46056e-11 6.42186e-11)
(0 0 0)
(0 0 0)
(0 0 0)
(1.04232e-11 -6.4469e-11 5.67922e-11)
(1.09265e-10 -1.9854e-10 1.44071e-10)
(0 0 0)
(0 0 0)
(0 0 0)
(-1.96886e-11 -1.9696e-10 1.29889e-10)
(1.20035e-10 -3.57133e-10 2.31948e-10)
(0 0 0)
(0 0 0)
(0 0 0)
(-3.36868e-11 -3.32223e-10 2.11264e-10)
(1.25422e-10 -4.92309e-10 3.17629e-10)
(0 0 0)
(0 0 0)
(0 0 0)
(-5.4162e-11 -4.43455e-10 2.90615e-10)
(1.52982e-10 -6.09227e-10 3.90527e-10)
(0 0 0)
(0 0 0)
(0 0 0)
(-1.09017e-10 -5.35807e-10 3.57588e-10)
(2.3037e-10 -7.53873e-10 4.40176e-10)
(0 0 0)
(0 0 0)
(0 0 0)
(-2.25508e-10 -6.54515e-10 4.02232e-10)
(3.4124e-10 -9.91867e-10 4.58623e-10)
(0 0 0)
(0 0 0)
(0 0 0)
(-3.86062e-10 -8.60328e-10 4.17579e-10)
(3.65978e-10 -1.17745e-09 4.51008e-10)
(1.77553e-10 -1.18599e-09 4.43826e-10)
(-1.05128e-10 -1.1342e-09 4.40165e-10)
(-3.6946e-10 -1.0869e-09 4.2444e-10)
(-4.88823e-10 -1.02755e-09 4.15459e-10)
(1.87733e-11 1.11307e-11 1.02548e-11)
(0 0 0)
(0 0 0)
(0 0 0)
(1.80995e-11 -4.60648e-12 9.03741e-12)
(6.62261e-11 -4.57829e-11 4.54711e-11)
(0 0 0)
(0 0 0)
(0 0 0)
(1.60384e-11 -6.81007e-11 4.09026e-11)
(1.05858e-10 -1.96021e-10 9.87678e-11)
(0 0 0)
(0 0 0)
(0 0 0)
(-1.26564e-11 -1.98184e-10 9.00276e-11)
(1.19444e-10 -3.50812e-10 1.56122e-10)
(0 0 0)
(0 0 0)
(0 0 0)
(-2.70523e-11 -3.30443e-10 1.43294e-10)
(1.28381e-10 -4.82107e-10 2.11456e-10)
(0 0 0)
(0 0 0)
(0 0 0)
(-4.84218e-11 -4.38157e-10 1.94554e-10)
(1.58984e-10 -5.95131e-10 2.57797e-10)
(0 0 0)
(0 0 0)
(0 0 0)
(-1.03627e-10 -5.26658e-10 2.37011e-10)
(2.37779e-10 -7.36211e-10 2.88435e-10)
(0 0 0)
(0 0 0)
(0 0 0)
(-2.18947e-10 -6.41622e-10 2.64336e-10)
(3.48152e-10 -9.70138e-10 2.99036e-10)
(0 0 0)
(0 0 0)
(0 0 0)
(-3.76586e-10 -8.43049e-10 2.72874e-10)
(3.72542e-10 -1.15364e-09 2.92992e-10)
(1.85725e-10 -1.16476e-09 2.86474e-10)
(-9.58896e-11 -1.11574e-09 2.82925e-10)
(-3.59028e-10 -1.0677e-09 2.7413e-10)
(-4.7724e-10 -1.00741e-09 2.70327e-10)
(1.82198e-11 1.08437e-11 5.41207e-12)
(0 0 0)
(0 0 0)
(0 0 0)
(1.8849e-11 -5.35404e-12 4.8329e-12)
(6.51743e-11 -4.50178e-11 2.34369e-11)
(0 0 0)
(0 0 0)
(0 0 0)
(1.79565e-11 -6.87034e-11 2.12634e-11)
(1.05614e-10 -1.92443e-10 5.00588e-11)
(0 0 0)
(0 0 0)
(0 0 0)
(-1.04493e-11 -1.9675e-10 4.58941e-11)
(1.21004e-10 -3.44532e-10 7.82824e-11)
(0 0 0)
(0 0 0)
(0 0 0)
(-2.52861e-11 -3.26824e-10 7.21476e-11)
(1.32016e-10 -4.73644e-10 1.05293e-10)
(0 0 0)
(0 0 0)
(0 0 0)
(-4.71924e-11 -4.32613e-10 9.71699e-11)
(1.64314e-10 -5.85129e-10 1.27722e-10)
(0 0 0)
(0 0 0)
(0 0 0)
(-1.02496e-10 -5.19624e-10 1.17681e-10)
(2.43806e-10 -7.25189e-10 1.42368e-10)
(0 0 0)
(0 0 0)
(0 0 0)
(-2.16968e-10 -6.33459e-10 1.30679e-10)
(3.53766e-10 -9.5762e-10 1.47303e-10)
(0 0 0)
(0 0 0)
(0 0 0)
(-3.72732e-10 -8.33183e-10 1.34583e-10)
(3.77849e-10 -1.14018e-09 1.4414e-10)
(1.91488e-10 -1.15256e-09 1.40453e-10)
(-9.05402e-11 -1.10498e-09 1.38361e-10)
(-3.54014e-10 -1.0567e-09 1.34453e-10)
(-4.72028e-10 -9.96116e-10 1.33116e-10)
(2.24918e-11 5.41194e-12 0)
(9.13305e-12 -9.05596e-12 0)
(6.2064e-13 -1.60877e-11 0)
(-3.39103e-12 -1.41172e-11 0)
(9.09017e-12 -1.13253e-11 0)
(5.95456e-11 -5.53567e-11 0)
(3.2933e-11 -7.96117e-11 0)
(4.49969e-12 -9.41061e-11 0)
(-1.32695e-11 -8.72836e-11 0)
(-2.68036e-12 -7.40637e-11 0)
(9.60194e-11 -1.9641e-10 0)
(5.38679e-11 -2.1348e-10 0)
(9.509e-12 -2.24779e-10 0)
(-2.26898e-11 -2.13959e-10 0)
(-2.64574e-11 -1.99715e-10 0)
(1.09704e-10 -3.44443e-10 0)
(6.07495e-11 -3.54814e-10 0)
(1.01217e-11 -3.60164e-10 0)
(-2.86738e-11 -3.45077e-10 0)
(-3.93607e-11 -3.28951e-10 0)
(1.1929e-10 -4.74904e-10 0)
(6.33897e-11 -4.87653e-10 0)
(4.59693e-12 -4.90557e-10 0)
(-4.24945e-11 -4.66592e-10 0)
(-5.97975e-11 -4.39241e-10 0)
(1.49626e-10 -5.93716e-10 0)
(7.79451e-11 -6.16621e-10 0)
(-7.62349e-12 -6.1898e-10 0)
(-8.1219e-11 -5.83556e-10 0)
(-1.13321e-10 -5.36798e-10 0)
(2.24125e-10 -7.41826e-10 0)
(1.18346e-10 -7.7014e-10 0)
(-2.70759e-11 -7.66412e-10 0)
(-1.59522e-10 -7.23929e-10 0)
(-2.23502e-10 -6.61893e-10 0)
(3.25887e-10 -9.71775e-10 0)
(1.7261e-10 -9.84585e-10 0)
(-5.44687e-11 -9.63188e-10 0)
(-2.66112e-10 -9.20894e-10 0)
(-3.72857e-10 -8.62248e-10 0)
(3.67419e-10 -1.13238e-09 0)
(1.96238e-10 -1.12958e-09 0)
(-7.95164e-11 -1.08931e-09 0)
(-3.37413e-10 -1.04476e-09 0)
(-4.63318e-10 -9.9968e-10 0)
)
;

boundaryField
{
    interface
    {
        type            calculated;
    }
    symmetry
    {
        type            symmetry;
    }
    bottom
    {
        type            calculated;
    }
}


// ************************************************************************* //
