/*--------------------------------*- C++ -*----------------------------------*\
| =========                 |                                                 |
| \\      /  F ield         | OpenFOAM: The Open Source CFD Toolbox           |
|  \\    /   O peration     | Version:  v1912                                 |
|   \\  /    A nd           | Website:  www.openfoam.com                      |
|    \\/     M anipulation  |                                                 |
\*---------------------------------------------------------------------------*/
FoamFile
{
    version     2.0;
    format      ascii;
    class       pointVectorField;
    location    "0.94/solid";
    object      pointD;
}
// * * * * * * * * * * * * * * * * * * * * * * * * * * * * * * * * * * * * * //

dimensions      [0 1 0 0 0 0 0];


internalField   nonuniform List<vector> 
405
(
(4.1002e-08 4.47606e-08 4.26169e-08)
(8.96755e-09 3.00087e-08 4.53891e-08)
(-9.82033e-11 2.49751e-08 4.2706e-08)
(-8.835e-09 2.92734e-08 4.41323e-08)
(-3.85392e-08 4.30909e-08 4.11108e-08)
(7.12822e-08 5.58008e-08 7.98947e-08)
(2.49389e-08 5.12482e-08 1.05998e-07)
(-5.06494e-11 4.31403e-08 1.00404e-07)
(-2.42626e-08 4.98655e-08 1.03404e-07)
(-6.70166e-08 5.34648e-08 7.74491e-08)
(8.30582e-08 3.26941e-08 1.06275e-07)
(3.31745e-08 3.26104e-08 1.31679e-07)
(3.14752e-10 2.81867e-08 1.25493e-07)
(-3.16472e-08 3.14065e-08 1.28931e-07)
(-7.77429e-08 3.06774e-08 1.03545e-07)
(8.5148e-08 1.17425e-08 1.25253e-07)
(3.40981e-08 1.3969e-08 1.50881e-07)
(7.44134e-10 1.18128e-08 1.44e-07)
(-3.17113e-08 1.29158e-08 1.48004e-07)
(-7.88964e-08 9.97409e-09 1.22355e-07)
(8.61036e-08 -5.60959e-09 1.42347e-07)
(3.39231e-08 -3.41398e-09 1.68424e-07)
(1.14111e-09 -5.20152e-09 1.6092e-07)
(-3.07359e-08 -4.35849e-09 1.65435e-07)
(-7.89708e-08 -7.19363e-09 1.39305e-07)
(9.01574e-08 -2.26129e-08 1.60463e-07)
(3.57217e-08 -2.1588e-08 1.87263e-07)
(1.48672e-09 -2.38601e-08 1.7925e-07)
(-3.18311e-08 -2.24345e-08 1.8416e-07)
(-8.22366e-08 -2.40146e-08 1.57263e-07)
(1.00291e-07 -4.55391e-08 1.81342e-07)
(4.14795e-08 -4.53998e-08 2.09542e-07)
(1.75579e-09 -4.75291e-08 2.01422e-07)
(-3.70336e-08 -4.61109e-08 2.06311e-07)
(-9.17248e-08 -4.66881e-08 1.77957e-07)
(1.17264e-07 -9.33818e-08 2.04254e-07)
(5.09854e-08 -9.21007e-08 2.36061e-07)
(1.88633e-09 -9.17789e-08 2.29067e-07)
(-4.62256e-08 -9.23304e-08 2.32724e-07)
(-1.08239e-07 -9.37723e-08 2.00694e-07)
(1.15193e-07 -1.53727e-07 2.04499e-07)
(5.65242e-08 -1.633e-07 2.14787e-07)
(2.03648e-09 -1.59399e-07 2.10386e-07)
(-5.1423e-08 -1.62041e-07 2.12492e-07)
(-1.06928e-07 -1.52429e-07 2.01473e-07)
(4.04173e-08 2.46482e-08 9.11394e-09)
(0 0 0)
(0 0 0)
(0 0 0)
(-3.71875e-08 2.33989e-08 8.90309e-09)
(8.83598e-08 3.89004e-08 3.13462e-08)
(2.09849e-08 2.0731e-08 3.56523e-08)
(1.7351e-10 1.38486e-08 3.52935e-08)
(-1.99322e-08 1.9677e-08 3.53131e-08)
(-8.128e-08 3.65235e-08 3.07464e-08)
(9.77029e-08 1.81916e-08 5.40485e-08)
(2.79204e-08 1.17036e-08 5.97837e-08)
(6.22368e-10 7.77819e-09 5.94566e-08)
(-2.58692e-08 1.06257e-08 5.93116e-08)
(-8.94733e-08 1.60478e-08 5.31964e-08)
(9.98934e-08 -3.88738e-10 7.15505e-08)
(2.86554e-08 -2.23069e-09 7.74784e-08)
(1.09187e-09 -4.11902e-09 7.70641e-08)
(-2.56686e-08 -3.22809e-09 7.69466e-08)
(-9.06233e-08 -2.33411e-09 7.05714e-08)
(1.01576e-07 -1.61299e-08 8.70907e-08)
(2.85605e-08 -1.81576e-08 9.28734e-08)
(1.52188e-09 -1.9737e-08 9.2256e-08)
(-2.47075e-08 -1.90611e-08 9.22894e-08)
(-9.13138e-08 -1.78964e-08 8.59981e-08)
(1.06775e-07 -3.14199e-08 1.02914e-07)
(3.04826e-08 -3.62414e-08 1.0848e-07)
(1.90333e-09 -3.83909e-08 1.07626e-07)
(-2.58527e-08 -3.70465e-08 1.0783e-07)
(-9.56045e-08 -3.2985e-08 1.01684e-07)
(1.18822e-07 -5.12122e-08 1.19981e-07)
(3.63962e-08 -5.9082e-08 1.25336e-07)
(2.21386e-09 -6.12642e-08 1.24348e-07)
(-3.11251e-08 -5.97548e-08 1.24603e-07)
(-1.06871e-07 -5.24962e-08 1.18584e-07)
(1.39705e-07 -9.34748e-08 1.35987e-07)
(4.6051e-08 -9.92072e-08 1.41247e-07)
(2.39005e-09 -9.88587e-08 1.40406e-07)
(-4.03708e-08 -9.94333e-08 1.40432e-07)
(-1.27133e-07 -9.39832e-08 1.34419e-07)
(1.17665e-07 -1.61877e-07 1.45259e-07)
(5.14941e-08 -1.94105e-07 1.46785e-07)
(2.39959e-09 -1.8761e-07 1.45972e-07)
(-4.57052e-08 -1.91777e-07 1.45961e-07)
(-1.07856e-07 -1.60108e-07 1.43818e-07)
(3.20846e-08 1.3958e-08 1.39502e-09)
(0 0 0)
(0 0 0)
(0 0 0)
(-2.89023e-08 1.28331e-08 1.38962e-09)
(6.96946e-08 1.89602e-08 1.09252e-08)
(1.40486e-08 5.49638e-09 1.67251e-08)
(2.62928e-10 -1.87928e-10 1.80694e-08)
(-1.28582e-08 4.61064e-09 1.66834e-08)
(-6.26865e-08 1.67772e-08 1.08398e-08)
(7.63659e-08 1.65393e-09 2.75752e-08)
(1.87695e-08 -3.25386e-09 3.52672e-08)
(7.69413e-10 -6.55237e-09 3.71525e-08)
(-1.64826e-08 -4.24118e-09 3.51553e-08)
(-6.81561e-08 -4.02682e-10 2.73556e-08)
(7.76378e-08 -1.37171e-08 4.36555e-08)
(1.9046e-08 -1.51492e-08 5.17274e-08)
(1.28102e-09 -1.68307e-08 5.37398e-08)
(-1.57472e-08 -1.61149e-08 5.15638e-08)
(-6.83272e-08 -1.56563e-08 4.3327e-08)
(7.89377e-08 -2.71704e-08 5.82159e-08)
(1.88552e-08 -2.90941e-08 6.6283e-08)
(1.7469e-09 -3.06349e-08 6.82569e-08)
(-1.46208e-08 -2.9997e-08 6.60721e-08)
(-6.85629e-08 -2.89768e-08 5.77834e-08)
(8.40459e-08 -3.98744e-08 7.19878e-08)
(2.07401e-08 -4.4757e-08 7.99607e-08)
(2.16246e-09 -4.69434e-08 8.18396e-08)
(-1.56579e-08 -4.55814e-08 7.96936e-08)
(-7.26685e-08 -4.15122e-08 7.14346e-08)
(9.66393e-08 -5.52303e-08 8.47308e-08)
(2.67891e-08 -6.33611e-08 9.25243e-08)
(2.50757e-09 -6.55943e-08 9.43081e-08)
(-2.09892e-08 -6.40755e-08 9.21932e-08)
(-8.43641e-08 -5.66239e-08 8.40412e-08)
(1.19347e-07 -9.01099e-08 9.35297e-08)
(3.6858e-08 -9.59441e-08 1.01056e-07)
(2.72004e-09 -9.5449e-08 1.02786e-07)
(-3.05663e-08 -9.62435e-08 1.00677e-07)
(-1.06319e-07 -9.07743e-08 9.27229e-08)
(1.01193e-07 -1.51606e-07 9.73515e-08)
(4.24566e-08 -1.80269e-07 1.00097e-07)
(2.77103e-09 -1.7265e-07 1.01769e-07)
(-3.5968e-08 -1.78017e-07 9.97453e-08)
(-9.07936e-08 -1.49978e-07 9.66569e-08)
(2.70194e-08 9.70589e-09 9.79367e-10)
(0 0 0)
(0 0 0)
(0 0 0)
(-2.39201e-08 8.61373e-09 9.89535e-10)
(5.83041e-08 1.0196e-08 7.80352e-09)
(9.63309e-09 -2.03402e-10 1.15383e-08)
(2.81865e-10 -5.03233e-09 1.28259e-08)
(-8.42504e-09 -1.0483e-09 1.1527e-08)
(-5.14454e-08 8.06152e-09 7.79584e-09)
(6.34521e-08 -7.13508e-09 2.07647e-08)
(1.2878e-08 -1.09879e-08 2.57565e-08)
(8.11849e-10 -1.38137e-08 2.75569e-08)
(-1.05302e-08 -1.19499e-08 2.57064e-08)
(-5.53501e-08 -9.18268e-09 2.06875e-08)
(6.44855e-08 -2.16741e-08 3.472e-08)
(1.29354e-08 -2.29234e-08 3.99061e-08)
(1.35211e-09 -2.44676e-08 4.18313e-08)
(-9.52001e-09 -2.38891e-08 3.98136e-08)
(-5.52284e-08 -2.36467e-08 3.45572e-08)
(6.58854e-08 -3.34905e-08 4.77668e-08)
(1.2815e-08 -3.548e-08 5.28563e-08)
(1.84828e-09 -3.70324e-08 5.47631e-08)
(-8.40365e-09 -3.64061e-08 5.27202e-08)
(-5.54984e-08 -3.53666e-08 4.75114e-08)
(7.12258e-08 -4.35659e-08 5.93683e-08)
(1.47988e-08 -4.85904e-08 6.43132e-08)
(2.29404e-09 -5.0843e-08 6.61575e-08)
(-9.47672e-09 -4.94575e-08 6.4129e-08)
(-5.97542e-08 -4.53049e-08 5.90101e-08)
(8.4265e-08 -5.52407e-08 6.85946e-08)
(2.09791e-08 -6.35544e-08 7.33999e-08)
(2.66912e-09 -6.5881e-08 7.5172e-08)
(-1.48735e-08 -6.43294e-08 7.31677e-08)
(-7.17944e-08 -5.67645e-08 6.81299e-08)
(1.07571e-07 -8.56727e-08 7.33438e-08)
(3.11899e-08 -9.17236e-08 7.8073e-08)
(2.91229e-09 -9.13571e-08 7.97969e-08)
(-2.45227e-08 -9.2097e-08 7.78128e-08)
(-9.42342e-08 -8.64877e-08 7.2799e-08)
(9.1305e-08 -1.43418e-07 7.43946e-08)
(3.69499e-08 -1.70746e-07 7.64085e-08)
(2.99869e-09 -1.63213e-07 7.82332e-08)
(-3.00107e-08 -1.68585e-07 7.61775e-08)
(-8.04988e-08 -1.41935e-07 7.39321e-08)
(2.44234e-08 8.08434e-09 1.29586e-09)
(0 0 0)
(0 0 0)
(0 0 0)
(-2.13894e-08 7.00646e-09 1.30317e-09)
(5.25051e-08 6.81034e-09 7.20923e-09)
(7.743e-09 -2.15759e-09 8.98835e-09)
(2.82371e-10 -6.51012e-09 9.75625e-09)
(-6.54763e-09 -2.99749e-09 8.98125e-09)
(-4.57777e-08 4.68781e-09 7.21401e-09)
(5.70199e-08 -1.08007e-08 1.74221e-08)
(1.0378e-08 -1.41964e-08 1.97727e-08)
(8.19374e-10 -1.67667e-08 2.08409e-08)
(-8.02995e-09 -1.51625e-08 1.97434e-08)
(-4.90367e-08 -1.28674e-08 1.73922e-08)
(5.81756e-08 -2.52749e-08 2.86096e-08)
(1.0455e-08 -2.65433e-08 3.09685e-08)
(1.37603e-09 -2.80321e-08 3.2094e-08)
(-7.00591e-09 -2.75254e-08 3.09092e-08)
(-4.90019e-08 -2.72942e-08 2.85219e-08)
(5.98883e-08 -3.62326e-08 3.92397e-08)
(1.0516e-08 -3.83738e-08 4.14426e-08)
(1.89442e-09 -3.99604e-08 4.25341e-08)
(-6.02583e-09 -3.93302e-08 4.13485e-08)
(-4.95343e-08 -3.81807e-08 3.90804e-08)
(6.55439e-08 -4.46801e-08 4.83374e-08)
(1.26621e-08 -4.98431e-08 5.03851e-08)
(2.36474e-09 -5.21575e-08 5.14208e-08)
(-7.21025e-09 -5.07538e-08 5.02532e-08)
(-5.40412e-08 -4.65136e-08 4.80976e-08)
(7.88228e-08 -5.43791e-08 5.48924e-08)
(1.89156e-08 -6.27814e-08 5.68628e-08)
(2.76488e-09 -6.52018e-08 5.78498e-08)
(-1.26261e-08 -6.36103e-08 5.66957e-08)
(-6.62428e-08 -5.60144e-08 5.45729e-08)
(1.02141e-07 -8.27192e-08 5.77447e-08)
(2.90803e-08 -8.89613e-08 5.97682e-08)
(3.0334e-09 -8.88045e-08 6.07456e-08)
(-2.21731e-08 -8.93932e-08 5.95831e-08)
(-8.86065e-08 -8.36528e-08 5.73687e-08)
(8.69602e-08 -1.38331e-07 5.78555e-08)
(3.49422e-08 -1.65003e-07 5.87692e-08)
(3.14731e-09 -1.57874e-07 5.98898e-08)
(-2.7705e-08 -1.62908e-07 5.86072e-08)
(-7.58836e-08 -1.36957e-07 5.75353e-08)
(2.31393e-08 7.45312e-09 1.2695e-09)
(0 0 0)
(0 0 0)
(0 0 0)
(-2.01488e-08 6.38575e-09 1.27405e-09)
(4.97336e-08 5.60383e-09 6.07281e-09)
(7.11933e-09 -2.81951e-09 6.79854e-09)
(2.79312e-10 -6.94512e-09 7.16781e-09)
(-5.93918e-09 -3.65971e-09 6.79396e-09)
(-4.30988e-08 3.48835e-09 6.07859e-09)
(5.4116e-08 -1.19811e-08 1.37108e-08)
(9.61549e-09 -1.52614e-08 1.46214e-08)
(8.17291e-10 -1.77258e-08 1.51239e-08)
(-7.28166e-09 -1.62372e-08 1.46042e-08)
(-4.62251e-08 -1.40666e-08 1.36996e-08)
(5.55006e-08 -2.63999e-08 2.19505e-08)
(9.81061e-09 -2.77715e-08 2.27881e-08)
(1.38249e-09 -2.92585e-08 2.32985e-08)
(-6.35801e-09 -2.87724e-08 2.27514e-08)
(-4.63996e-08 -2.846e-08 2.19038e-08)
(5.75254e-08 -3.69657e-08 2.97912e-08)
(1.00534e-08 -3.92556e-08 3.04839e-08)
(1.91556e-09 -4.08826e-08 3.09555e-08)
(-5.52953e-09 -4.02396e-08 3.04228e-08)
(-4.72094e-08 -3.89733e-08 2.96953e-08)
(6.34357e-08 -4.46934e-08 3.63667e-08)
(1.2337e-08 -4.99527e-08 3.69409e-08)
(2.40396e-09 -5.23137e-08 3.73686e-08)
(-6.81399e-09 -5.08989e-08 3.68527e-08)
(-5.19247e-08 -4.66013e-08 3.62135e-08)
(7.68062e-08 -5.3625e-08 4.08911e-08)
(1.86132e-08 -6.20509e-08 4.14353e-08)
(2.82348e-09 -6.45355e-08 4.18358e-08)
(-1.22114e-08 -6.29207e-08 4.13225e-08)
(-6.41619e-08 -5.53446e-08 4.06815e-08)
(9.9953e-08 -8.10808e-08 4.278e-08)
(2.86809e-08 -8.74266e-08 4.34082e-08)
(3.11162e-09 -8.74267e-08 4.3818e-08)
(-2.16192e-08 -8.79006e-08 4.32833e-08)
(-8.62925e-08 -8.21007e-08 4.25311e-08)
(8.54011e-08 -1.35413e-07 4.27193e-08)
(3.45823e-08 -1.61663e-07 4.29673e-08)
(3.24577e-09 -1.54875e-07 4.34841e-08)
(-2.71478e-08 -1.59613e-07 4.28586e-08)
(-7.41467e-08 -1.34115e-07 4.25064e-08)
(2.24894e-08 7.20014e-09 9.58781e-10)
(0 0 0)
(0 0 0)
(0 0 0)
(-1.95256e-08 6.14014e-09 9.61489e-10)
(4.8392e-08 5.21538e-09 4.31111e-09)
(6.94605e-09 -3.02226e-09 4.58936e-09)
(2.76261e-10 -7.04781e-09 4.74687e-09)
(-5.77739e-09 -3.86272e-09 4.58681e-09)
(-4.18151e-08 3.10556e-09 4.31545e-09)
(5.28136e-08 -1.21864e-08 9.3871e-09)
(9.45956e-09 -1.54762e-08 9.70184e-09)
(8.13446e-10 -1.79071e-08 9.90715e-09)
(-7.13945e-09 -1.64595e-08 9.69233e-09)
(-4.49831e-08 -1.42842e-08 9.38317e-09)
(5.43976e-08 -2.64775e-08 1.47584e-08)
(9.77018e-09 -2.79516e-08 1.49983e-08)
(1.38279e-09 -2.9456e-08 1.51935e-08)
(-6.32258e-09 -2.89668e-08 1.49774e-08)
(-4.53466e-08 -2.85662e-08 1.47345e-08)
(5.66468e-08 -3.68711e-08 1.98445e-08)
(1.01439e-08 -3.92681e-08 1.99846e-08)
(1.9247e-09 -4.09288e-08 2.01495e-08)
(-5.60679e-09 -4.02724e-08 1.99486e-08)
(-4.63594e-08 -3.89204e-08 1.97907e-08)
(6.27182e-08 -4.43753e-08 2.40696e-08)
(1.25155e-08 -4.96895e-08 2.41379e-08)
(2.42507e-09 -5.20803e-08 2.42747e-08)
(-6.95456e-09 -5.06608e-08 2.40847e-08)
(-5.12054e-08 -4.6335e-08 2.39799e-08)
(7.61098e-08 -5.31159e-08 2.69364e-08)
(1.87915e-08 -6.15353e-08 2.69977e-08)
(2.85804e-09 -6.40538e-08 2.71218e-08)
(-1.23236e-08 -6.2433e-08 2.6929e-08)
(-6.34267e-08 -5.48928e-08 2.68108e-08)
(9.90855e-08 -8.02229e-08 2.81543e-08)
(2.87762e-08 -8.66039e-08 2.82825e-08)
(3.15994e-09 -8.66902e-08 2.84183e-08)
(-2.16189e-08 -8.71061e-08 2.82062e-08)
(-8.53452e-08 -8.13005e-08 2.80039e-08)
(8.48806e-08 -1.33799e-07 2.81243e-08)
(3.46795e-08 -1.59757e-07 2.81276e-08)
(3.30781e-09 -1.5317e-07 2.83236e-08)
(-2.71208e-08 -1.57736e-07 2.80614e-08)
(-7.35135e-08 -1.3255e-07 2.79953e-08)
(2.21731e-08 7.09946e-09 5.06487e-10)
(0 0 0)
(0 0 0)
(0 0 0)
(-1.92235e-08 6.04369e-09 5.07774e-10)
(4.77571e-08 5.10982e-09 2.21871e-09)
(6.89831e-09 -3.06506e-09 2.31553e-09)
(2.74226e-10 -7.04897e-09 2.37247e-09)
(-5.73648e-09 -3.90552e-09 2.31443e-09)
(-4.12115e-08 3.00363e-09 2.22098e-09)
(5.22297e-08 -1.21228e-08 4.74761e-09)
(9.44566e-09 -1.54402e-08 4.84499e-09)
(8.10525e-10 -1.78636e-08 4.91558e-09)
(-7.13445e-09 -1.64276e-08 4.8408e-09)
(-4.44328e-08 -1.4227e-08 4.74649e-09)
(5.39355e-08 -2.62966e-08 7.38838e-09)
(9.829e-09 -2.78366e-08 7.44383e-09)
(1.38168e-09 -2.93566e-08 7.50567e-09)
(-6.38643e-09 -2.88603e-08 7.43443e-09)
(-4.49131e-08 -2.84014e-08 7.37832e-09)
(5.63111e-08 -3.66165e-08 9.8766e-09)
(1.02762e-08 -3.9074e-08 9.88338e-09)
(1.92822e-09 -4.07556e-08 9.92936e-09)
(-5.73458e-09 -4.00904e-08 9.86681e-09)
(-4.60407e-08 -3.869e-08 9.8526e-09)
(6.2466e-08 -4.40844e-08 1.19359e-08)
(1.26936e-08 -4.94249e-08 1.19101e-08)
(2.43529e-09 -5.18313e-08 1.19429e-08)
(-7.11425e-09 -5.04109e-08 1.18853e-08)
(-5.09533e-08 -4.60741e-08 1.18947e-08)
(7.58561e-08 -5.28229e-08 1.33313e-08)
(1.89646e-08 -6.12303e-08 1.33056e-08)
(2.87608e-09 -6.37633e-08 1.33336e-08)
(-1.2462e-08 -6.2144e-08 1.32732e-08)
(-6.31522e-08 -5.46328e-08 1.32728e-08)
(9.87207e-08 -7.98057e-08 1.39386e-08)
(2.88984e-08 -8.61911e-08 1.39477e-08)
(3.18605e-09 -8.63154e-08 1.39827e-08)
(-2.16894e-08 -8.67092e-08 1.39117e-08)
(-8.49362e-08 -8.09163e-08 1.3868e-08)
(8.46881e-08 -1.32986e-07 1.39388e-08)
(3.47921e-08 -1.58767e-07 1.39068e-08)
(3.34181e-09 -1.52274e-07 1.39673e-08)
(-2.71651e-08 -1.56761e-07 1.38756e-08)
(-7.32586e-08 -1.31765e-07 1.38781e-08)
(1.80093e-08 7.20331e-09 0)
(2.37528e-09 1.40513e-09 0)
(1.3678e-11 -9.79605e-10 0)
(-2.08418e-09 1.04236e-09 0)
(-1.5676e-08 6.09279e-09 0)
(3.04618e-08 2.91632e-09 0)
(6.8871e-09 -3.06804e-09 0)
(2.73524e-10 -7.04043e-09 0)
(-5.72752e-09 -3.90847e-09 0)
(-2.63079e-08 1.18603e-09 0)
(3.47271e-08 -1.26441e-08 0)
(9.44725e-09 -1.54052e-08 0)
(8.09475e-10 -1.78277e-08 0)
(-7.13906e-09 -1.63939e-08 0)
(-2.93352e-08 -1.44569e-08 0)
(3.58503e-08 -2.63481e-08 0)
(9.85442e-09 -2.77669e-08 0)
(1.38114e-09 -2.92928e-08 0)
(-6.41378e-09 -2.87934e-08 0)
(-2.92842e-08 -2.81793e-08 0)
(3.738e-08 -3.70239e-08 0)
(1.03248e-08 -3.89808e-08 0)
(1.9291e-09 -4.06692e-08 0)
(-5.78217e-09 -4.00011e-08 0)
(-2.96341e-08 -3.88335e-08 0)
(4.22275e-08 -4.55647e-08 0)
(1.27561e-08 -4.93215e-08 0)
(2.43832e-09 -5.17327e-08 0)
(-7.17131e-09 -5.03123e-08 0)
(-3.33247e-08 -4.73095e-08 0)
(5.35287e-08 -5.57741e-08 0)
(1.90249e-08 -6.11286e-08 0)
(2.88166e-09 -6.36654e-08 0)
(-1.25115e-08 -6.20476e-08 0)
(-4.35418e-08 -5.73734e-08 0)
(7.25246e-08 -8.28689e-08 0)
(2.89419e-08 -8.60638e-08 0)
(3.19428e-09 -8.61984e-08 0)
(-2.17165e-08 -8.6587e-08 0)
(-6.15942e-08 -8.38237e-08 0)
(7.48227e-08 -1.23904e-07 0)
(3.46827e-08 -1.3134e-07 0)
(3.32966e-09 -1.27119e-07 0)
(-2.71032e-08 -1.3043e-07 0)
(-6.43874e-08 -1.2319e-07 0)
)
;

boundaryField
{
    interface
    {
        type            calculated;
    }
    symmetry
    {
        type            symmetry;
    }
    bottom
    {
        type            calculated;
    }
}


// ************************************************************************* //
