/*--------------------------------*- C++ -*----------------------------------*\
| =========                 |                                                 |
| \\      /  F ield         | OpenFOAM: The Open Source CFD Toolbox           |
|  \\    /   O peration     | Version:  v1912                                 |
|   \\  /    A nd           | Website:  www.openfoam.com                      |
|    \\/     M anipulation  |                                                 |
\*---------------------------------------------------------------------------*/
FoamFile
{
    version     2.0;
    format      ascii;
    class       volScalarField;
    location    "0.94/solid";
    object      sigmaEq;
}
// * * * * * * * * * * * * * * * * * * * * * * * * * * * * * * * * * * * * * //

dimensions      [1 -1 -2 0 0 0 0];


internalField   nonuniform List<scalar> 
256
(
698820
483156
474147
659114
386894
318182
311973
358455
373465
288196
282320
344775
389139
281798
275985
359705
398938
281992
276205
368964
387090
277127
271430
356949
298660
240409
235947
271197
70876.7
271139
268933
71536.6
401212
111283
107421
361589
282379
108948
105725
247970
269899
82133.3
79696.2
235703
269774
55135.4
53733.7
235025
274320
46328.8
46039.8
238850
278834
53748
53451.8
242721
256042
55724.7
56356.2
220494
298970
241259
236662
271098
323987
71308.9
69593.3
284606
266648
66343.6
63891.1
231671
259311
47897.1
46136.9
224202
259372
36641.3
36772.7
223609
265914
40502
41740.6
229343
277381
44341.6
44910.8
240007
278359
53032.8
52813
241773
388265
278789
272897
357355
286075
67863
67462.1
248028
249712
64770.9
64024.2
216474
243833
52063.1
52075.8
209985
243637
47652.1
49082.1
208786
250984
48964.8
51074.2
215093
264673
43667.3
45279.5
227671
272956
43367.9
43626.3
236494
403255
285117
279063
372024
264339
59126.1
59259.6
226999
233714
60115.1
60048.2
201379
229506
50978.1
51527.2
196357
230340
46713.3
48441.5
195987
239289
45667.5
47988.1
203810
254803
36676.4
38483.4
218074
266732
40885.3
40766.6
230423
401214
285224
279067
369876
251921
50405.5
50788.9
214833
222357
52609.7
52734.4
190234
219420
43887.5
44547.4
186393
221715
38162.5
40052.3
187431
232367
35577.4
38096.8
196975
249528
25811
27554.7
212883
264070
44015.7
43205.5
227881
398332
284981
278719
366871
245092
43333
43851.8
208048
215467
45408.8
45572.1
183290
213291
35453.9
36156.2
180162
216736
27858.4
30090.9
182356
228635
24589.7
27616.3
193197
247007
15416
17201.9
210366
263366
47921.5
46677.1
227267
396929
284907
278570
365370
242033
39165.1
39755.3
204978
212250
40929.7
41098.8
179996
210430
29613.6
30369.5
177205
214473
20177.2
22958
180012
227005
16559.9
20460.8
191519
245998
7196.21
9644.83
209348
263286
50130.3
48705.4
227234
396491
284901
278528
364882
)
;

boundaryField
{
    interface
    {
        type            calculated;
        value           nonuniform List<scalar> 
192
(
869403
527627
516538
539552
556565
550952
469042
261024
626582
471320
460616
470955
485971
497906
477141
469575
539258
454324
450859
461295
478508
498001
498322
552870
486558
426486
426602
437460
455919
478593
487131
562537
454543
401752
404108
416182
436222
461048
473760
555231
435896
385029
388684
402069
423581
449984
465224
548347
425656
375274
379626
393966
416505
443937
460701
544401
421110
370846
375511
390332
413381
441311
458800
542751
876303
534039
523441
547201
564594
558421
474768
262644
718891
513470
485782
490215
500755
503546
469643
448480
704920
502868
475250
479474
489843
492551
459425
441798
830038
501591
490490
513167
529908
523697
443649
257399
806280
473772
461645
483248
499014
492281
410371
209386
558410
409069
397862
406856
420406
430931
409759
410387
472240
392497
388357
397427
413062
430852
430632
493058
421371
366616
365755
375034
391723
412380
419995
503051
390470
343046
344301
354672
372852
395491
407065
495971
372404
326835
329338
340985
360614
384765
398806
489183
362443
317271
320447
333048
353708
378876
394451
485278
358006
312900
316380
329468
350645
376313
392628
483644
263714
475827
560755
571128
563871
556785
552660
550921
449205
471247
506648
506770
499736
493768
489968
488167
442417
460815
495334
495389
488312
482286
478440
476617
257970
444105
525048
534887
527436
520177
515918
514109
)
;
    }
    symmetry
    {
        type            symmetry;
    }
    bottom
    {
        type            calculated;
        value           nonuniform List<scalar> 
32
(
1.01692e+06
533730
402798
351320
325673
311789
304341
301048
643811
141129
67704.9
63360.7
55359.1
46991.8
40051.9
35889.9
632314
135696
63713.8
60658.9
52885.5
44389
37136.6
32672.8
965701
488709
358126
307641
282691
269170
261876
258633
)
;
    }
}


// ************************************************************************* //
