/*--------------------------------*- C++ -*----------------------------------*\
| =========                 |                                                 |
| \\      /  F ield         | OpenFOAM: The Open Source CFD Toolbox           |
|  \\    /   O peration     | Version:  v1912                                 |
|   \\  /    A nd           | Website:  www.openfoam.com                      |
|    \\/     M anipulation  |                                                 |
\*---------------------------------------------------------------------------*/
FoamFile
{
    version     2.0;
    format      ascii;
    class       volVectorField;
    location    "0.94/solid";
    object      U;
}
// * * * * * * * * * * * * * * * * * * * * * * * * * * * * * * * * * * * * * //

dimensions      [0 1 -1 0 0 0 0];


internalField   nonuniform List<vector> 
256
(
(1.76742e-08 1.94384e-08 2.31518e-08)
(4.22088e-09 1.30721e-08 2.27168e-08)
(-6.05652e-09 1.24275e-08 2.18246e-08)
(-1.74661e-08 1.73308e-08 2.05003e-08)
(3.39295e-08 1.8204e-08 5.61222e-08)
(8.69241e-09 1.2153e-08 5.52544e-08)
(-1.30877e-08 1.19778e-08 5.33857e-08)
(-3.53947e-08 1.80698e-08 5.05134e-08)
(3.79433e-08 3.33343e-09 8.03893e-08)
(9.19364e-09 6.16964e-10 7.88088e-08)
(-1.65386e-08 1.19159e-09 7.63589e-08)
(-4.2269e-08 5.55074e-09 7.30177e-08)
(3.7144e-08 -1.47473e-08 1.00585e-07)
(7.56339e-09 -1.55618e-08 9.8089e-08)
(-1.87502e-08 -1.42424e-08 9.5224e-08)
(-4.5263e-08 -1.03857e-08 9.19543e-08)
(3.63631e-08 -3.47639e-08 1.19912e-07)
(5.622e-09 -3.53267e-08 1.16447e-07)
(-2.16366e-08 -3.3298e-08 1.13232e-07)
(-4.92433e-08 -2.83822e-08 1.10221e-07)
(3.86105e-08 -5.9285e-08 1.40166e-07)
(4.5501e-09 -5.9831e-08 1.35973e-07)
(-2.64501e-08 -5.70859e-08 1.32428e-07)
(-5.72921e-08 -5.08575e-08 1.29482e-07)
(4.47117e-08 -9.39095e-08 1.60596e-07)
(4.55392e-09 -9.29955e-08 1.56683e-07)
(-3.35544e-08 -8.94262e-08 1.52811e-07)
(-7.02842e-08 -8.31166e-08 1.4895e-07)
(4.96625e-08 -1.36469e-07 1.74882e-07)
(3.94928e-09 -1.33278e-07 1.72375e-07)
(-4.14699e-08 -1.28521e-07 1.68238e-07)
(-8.32464e-08 -1.22154e-07 1.625e-07)
(1.24796e-08 7.36051e-09 1.08306e-08)
(2.92936e-09 1.74866e-09 1.16909e-08)
(-3.69557e-09 1.55087e-09 1.12757e-08)
(-1.14859e-08 6.2119e-09 9.6084e-09)
(2.4743e-08 7.42279e-10 3.34197e-08)
(6.33503e-09 -4.479e-09 3.50878e-08)
(-8.1453e-09 -4.27556e-09 3.39508e-08)
(-2.40646e-08 1.3262e-09 3.01136e-08)
(2.76605e-08 -1.32979e-08 5.4325e-08)
(6.73412e-09 -1.55685e-08 5.60361e-08)
(-1.03777e-08 -1.47626e-08 5.4388e-08)
(-2.87949e-08 -1.07059e-08 4.95118e-08)
(2.66434e-08 -2.97155e-08 7.30771e-08)
(5.32559e-09 -3.03889e-08 7.44367e-08)
(-1.19357e-08 -2.89307e-08 7.2413e-08)
(-3.07447e-08 -2.51756e-08 6.71296e-08)
(2.5867e-08 -4.79221e-08 9.0759e-08)
(3.65022e-09 -4.86051e-08 9.15964e-08)
(-1.4363e-08 -4.64888e-08 8.92553e-08)
(-3.40332e-08 -4.14656e-08 8.38467e-08)
(2.85607e-08 -6.93775e-08 1.07986e-07)
(2.93727e-09 -7.02765e-08 1.08269e-07)
(-1.89063e-08 -6.74875e-08 1.05635e-07)
(-4.19059e-08 -6.09689e-08 1.00186e-07)
(3.63083e-08 -9.85851e-08 1.23344e-07)
(3.58732e-09 -9.77504e-08 1.23255e-07)
(-2.61078e-08 -9.42185e-08 1.20371e-07)
(-5.59632e-08 -8.79962e-08 1.14778e-07)
(4.39207e-08 -1.35824e-07 1.32334e-07)
(3.73978e-09 -1.3117e-07 1.32117e-07)
(-3.43325e-08 -1.266e-07 1.2913e-07)
(-7.1047e-08 -1.22044e-07 1.23406e-07)
(7.41987e-09 2.60955e-09 5.50492e-09)
(1.52671e-09 -1.77185e-09 6.89196e-09)
(-1.78473e-09 -1.92253e-09 6.61013e-09)
(-5.98953e-09 1.40386e-09 4.70088e-09)
(1.53537e-08 -8.09772e-09 2.08213e-08)
(3.6091e-09 -1.22556e-08 2.35161e-08)
(-3.93644e-09 -1.20263e-08 2.27311e-08)
(-1.33292e-08 -7.69524e-09 1.859e-08)
(1.71735e-08 -2.30773e-08 3.78238e-08)
(3.79166e-09 -2.49509e-08 4.08354e-08)
(-5.05987e-09 -2.41687e-08 3.96482e-08)
(-1.61086e-08 -2.07753e-08 3.44164e-08)
(1.6115e-08 -3.87101e-08 5.43893e-08)
(2.58389e-09 -3.94298e-08 5.72528e-08)
(-6.03885e-09 -3.80398e-08 5.57421e-08)
(-1.72657e-08 -3.45419e-08 5.00071e-08)
(1.55318e-08 -5.48215e-08 6.98502e-08)
(1.18115e-09 -5.58073e-08 7.23785e-08)
(-8.07111e-09 -5.37938e-08 7.05875e-08)
(-2.00932e-08 -4.87979e-08 6.46142e-08)
(1.87113e-08 -7.26908e-08 8.36168e-08)
(8.18858e-10 -7.40441e-08 8.57172e-08)
(-1.23944e-08 -7.13942e-08 8.3678e-08)
(-2.78743e-08 -6.47859e-08 7.76187e-08)
(2.75938e-08 -9.68314e-08 9.39553e-08)
(2.02028e-09 -9.63207e-08 9.55709e-08)
(-1.96543e-08 -9.29778e-08 9.33497e-08)
(-4.2542e-08 -8.68527e-08 8.73671e-08)
(3.68435e-08 -1.29043e-07 9.77386e-08)
(2.77516e-09 -1.24029e-07 9.89487e-08)
(-2.80317e-08 -1.197e-07 9.67029e-08)
(-5.87654e-08 -1.15985e-07 9.09901e-08)
(4.66593e-09 5.9154e-10 4.04889e-09)
(7.68761e-10 -2.8061e-09 5.11597e-09)
(-7.7787e-10 -2.99186e-09 4.90717e-09)
(-2.96768e-09 -8.07489e-10 3.46744e-09)
(1.01996e-08 -1.17513e-08 1.549e-08)
(2.11303e-09 -1.51138e-08 1.75359e-08)
(-1.59594e-09 -1.49853e-08 1.69705e-08)
(-7.32419e-09 -1.17629e-08 1.39088e-08)
(1.15642e-08 -2.74371e-08 2.88804e-08)
(2.26217e-09 -2.90803e-08 3.11371e-08)
(-2.03904e-09 -2.84341e-08 3.02739e-08)
(-9.02198e-09 -2.56443e-08 2.64321e-08)
(1.07983e-08 -4.26631e-08 4.24941e-08)
(1.33421e-09 -4.35126e-08 4.45997e-08)
(-2.66892e-09 -4.22813e-08 4.34792e-08)
(-9.85722e-09 -3.90516e-08 3.92716e-08)
(1.06738e-08 -5.71738e-08 5.51067e-08)
(2.65601e-10 -5.84578e-08 5.6926e-08)
(-4.46467e-09 -5.66217e-08 5.55751e-08)
(-1.25773e-08 -5.1739e-08 5.11803e-08)
(1.43356e-08 -7.24239e-08 6.55659e-08)
(2.19858e-10 -7.41644e-08 6.70565e-08)
(-8.60337e-09 -7.17101e-08 6.5506e-08)
(-2.03321e-08 -6.51388e-08 6.10188e-08)
(2.36694e-08 -9.33414e-08 7.22818e-08)
(1.70948e-09 -9.33027e-08 7.34332e-08)
(-1.57089e-08 -9.0171e-08 7.17485e-08)
(-3.49906e-08 -8.40092e-08 6.72819e-08)
(3.33376e-08 -1.22693e-07 7.34816e-08)
(2.72518e-09 -1.18248e-07 7.44286e-08)
(-2.39307e-08 -1.14133e-07 7.27444e-08)
(-5.1199e-08 -1.10283e-07 6.83973e-08)
(3.58056e-09 -1.98037e-10 3.37305e-09)
(5.19252e-10 -3.07161e-09 3.94895e-09)
(-3.96439e-10 -3.29337e-09 3.7987e-09)
(-1.7155e-09 -1.75135e-09 2.96142e-09)
(8.25361e-09 -1.28994e-08 1.20966e-08)
(1.66158e-09 -1.58757e-08 1.31589e-08)
(-6.45925e-10 -1.58548e-08 1.27585e-08)
(-4.84248e-09 -1.32835e-08 1.09911e-08)
(9.64672e-09 -2.86709e-08 2.21852e-08)
(1.93495e-09 -3.02769e-08 2.32868e-08)
(-7.68438e-10 -2.97774e-08 2.26745e-08)
(-6.1368e-09 -2.73611e-08 2.04665e-08)
(9.3004e-09 -4.35193e-08 3.25428e-08)
(1.30045e-09 -4.45484e-08 3.34692e-08)
(-1.22113e-09 -4.34828e-08 3.26663e-08)
(-6.93017e-09 -4.04403e-08 3.02514e-08)
(9.66467e-09 -5.70235e-08 4.20486e-08)
(5.46574e-10 -5.8565e-08 4.27305e-08)
(-2.8776e-09 -5.69053e-08 4.1752e-08)
(-9.68771e-09 -5.21423e-08 3.92198e-08)
(1.36927e-08 -7.08134e-08 4.95647e-08)
(7.47885e-10 -7.28382e-08 5.00118e-08)
(-6.8477e-09 -7.05662e-08 4.88817e-08)
(-1.73892e-08 -6.40879e-08 4.626e-08)
(2.3122e-08 -9.01634e-08 5.39062e-08)
(2.36932e-09 -9.05175e-08 5.41658e-08)
(-1.37087e-08 -8.75667e-08 5.29372e-08)
(-3.17585e-08 -8.13795e-08 5.02609e-08)
(3.27413e-08 -1.18212e-07 5.42213e-08)
(3.4817e-09 -1.14427e-07 5.4435e-08)
(-2.16755e-08 -1.10482e-07 5.32119e-08)
(-4.75593e-08 -1.06319e-07 5.0521e-08)
(3.23918e-09 -4.66446e-10 2.599e-09)
(4.88148e-10 -3.11724e-09 2.8492e-09)
(-2.93372e-10 -3.36495e-09 2.74871e-09)
(-1.2732e-09 -2.12428e-09 2.32676e-09)
(7.74372e-09 -1.30237e-08 8.84089e-09)
(1.66655e-09 -1.58772e-08 9.26381e-09)
(-3.55028e-10 -1.59381e-08 8.9974e-09)
(-4.0028e-09 -1.36776e-08 8.11264e-09)
(9.33757e-09 -2.85295e-08 1.58676e-08)
(2.10542e-09 -3.02021e-08 1.62402e-08)
(-3.51327e-10 -2.9819e-08 1.58325e-08)
(-5.21428e-09 -2.75886e-08 1.47327e-08)
(9.36332e-09 -4.29964e-08 2.30382e-08)
(1.7113e-09 -4.42008e-08 2.3254e-08)
(-7.16508e-10 -4.32692e-08 2.27163e-08)
(-6.05815e-09 -4.03354e-08 2.15139e-08)
(1.0106e-08 -5.59309e-08 2.95512e-08)
(1.19791e-09 -5.76695e-08 2.95854e-08)
(-2.28041e-09 -5.61512e-08 2.89258e-08)
(-8.86341e-09 -5.14858e-08 2.7653e-08)
(1.43726e-08 -6.90585e-08 3.45587e-08)
(1.57356e-09 -7.1271e-08 3.44413e-08)
(-6.10776e-09 -6.91413e-08 3.36758e-08)
(-1.6485e-08 -6.27669e-08 3.23262e-08)
(2.37903e-08 -8.77889e-08 3.72945e-08)
(3.26619e-09 -8.83941e-08 3.70834e-08)
(-1.2747e-08 -8.55798e-08 3.62496e-08)
(-3.05463e-08 -7.94187e-08 3.48228e-08)
(3.32832e-08 -1.15257e-07 3.73666e-08)
(4.42422e-09 -1.11922e-07 3.71634e-08)
(-2.04888e-08 -1.08103e-07 3.63344e-08)
(-4.59465e-08 -1.03744e-07 3.48572e-08)
(3.14879e-09 -5.33987e-10 1.63865e-09)
(5.09077e-10 -3.10151e-09 1.7307e-09)
(-2.76772e-10 -3.36564e-09 1.67325e-09)
(-1.12585e-09 -2.25591e-09 1.4841e-09)
(7.67915e-09 -1.2843e-08 5.40177e-09)
(1.76457e-09 -1.56814e-08 5.53421e-09)
(-2.87246e-10 -1.57948e-08 5.38207e-09)
(-3.74864e-09 -1.36669e-08 4.98855e-09)
(9.4556e-09 -2.80319e-08 9.54344e-09)
(2.33238e-09 -2.97861e-08 9.61776e-09)
(-2.37008e-10 -2.94799e-08 9.38464e-09)
(-4.97176e-09 -2.73309e-08 8.89818e-09)
(9.73417e-09 -4.21925e-08 1.37301e-08)
(2.09822e-09 -4.35272e-08 1.37007e-08)
(-5.56744e-10 -4.26858e-08 1.33922e-08)
(-5.86692e-09 -3.98096e-08 1.28597e-08)
(1.07163e-08 -5.48295e-08 1.75005e-08)
(1.73925e-09 -5.66977e-08 1.73622e-08)
(-2.05863e-09 -5.52749e-08 1.69822e-08)
(-8.69688e-09 -5.06772e-08 1.64107e-08)
(1.51229e-08 -6.77048e-08 2.03578e-08)
(2.22541e-09 -7.00283e-08 2.01359e-08)
(-5.78426e-09 -6.79936e-08 1.96935e-08)
(-1.62462e-08 -6.17035e-08 1.90702e-08)
(2.45196e-08 -8.62306e-08 2.18822e-08)
(3.96358e-09 -8.69729e-08 2.16171e-08)
(-1.22701e-08 -8.42486e-08 2.11344e-08)
(-3.00864e-08 -7.81342e-08 2.04524e-08)
(3.39195e-08 -1.13433e-07 2.18955e-08)
(5.1503e-09 -1.10345e-07 2.16435e-08)
(-1.98581e-08 -1.06608e-07 2.11637e-08)
(-4.5209e-08 -1.0217e-07 2.04429e-08)
(3.12798e-09 -5.40891e-10 5.59175e-10)
(5.2524e-10 -3.08149e-09 5.8151e-10)
(-2.76984e-10 -3.35359e-09 5.62842e-10)
(-1.07943e-09 -2.29328e-09 5.09128e-10)
(7.69344e-09 -1.2688e-08 1.81715e-09)
(1.82654e-09 -1.55343e-08 1.84387e-09)
(-2.74924e-10 -1.5673e-08 1.79444e-09)
(-3.67646e-09 -1.35935e-08 1.68331e-09)
(9.56687e-09 -2.76833e-08 3.18499e-09)
(2.46031e-09 -2.94864e-08 3.18843e-09)
(-2.08333e-10 -2.9218e-08 3.11261e-09)
(-4.9162e-09 -2.70992e-08 2.97573e-09)
(9.96869e-09 -4.16768e-08 4.55925e-09)
(2.30394e-09 -4.3079e-08 4.52695e-09)
(-5.07231e-10 -4.22822e-08 4.42646e-09)
(-5.83776e-09 -3.94313e-08 4.27636e-09)
(1.1064e-08 -5.41869e-08 5.79104e-09)
(2.01921e-09 -5.61185e-08 5.72278e-09)
(-1.97715e-09 -5.47432e-08 5.59875e-09)
(-8.67564e-09 -5.01803e-08 5.43596e-09)
(1.55357e-08 -6.69843e-08 6.71908e-09)
(2.55912e-09 -6.93589e-08 6.62421e-09)
(-5.65058e-09 -6.73716e-08 6.47954e-09)
(-1.61842e-08 -6.11275e-08 6.29854e-09)
(2.49222e-08 -8.54557e-08 7.21022e-09)
(4.32126e-09 -8.6257e-08 7.10272e-09)
(-1.20602e-08 -8.35774e-08 6.94473e-09)
(-2.99138e-08 -7.74953e-08 6.74253e-09)
(3.42772e-08 -1.12552e-07 7.21149e-09)
(5.52326e-09 -1.09569e-07 7.10901e-09)
(-1.95719e-08 -1.05872e-07 6.95198e-09)
(-4.48989e-08 -1.01413e-07 6.73608e-09)
)
;

boundaryField
{
    interface
    {
        type            calculated;
        value           nonuniform List<vector> 
192
(
(2.25411e-08 3.23393e-08 2.1493e-08)
(3.91513e-08 2.32713e-08 5.3205e-08)
(4.35364e-08 4.13696e-09 7.72254e-08)
(4.31183e-08 -1.51424e-08 9.75008e-08)
(4.25081e-08 -3.43973e-08 1.1699e-07)
(4.46016e-08 -5.71979e-08 1.37515e-07)
(5.09071e-08 -9.11465e-08 1.58447e-07)
(5.56066e-08 -1.35351e-07 1.73386e-07)
(1.56726e-08 1.66662e-08 8.26708e-09)
(2.88606e-08 4.53748e-09 2.87758e-08)
(3.20677e-08 -1.28229e-08 4.91326e-08)
(3.12232e-08 -3.01639e-08 6.78199e-08)
(3.04998e-08 -4.74428e-08 8.55512e-08)
(3.31197e-08 -6.67672e-08 1.03011e-07)
(4.16315e-08 -9.47451e-08 1.19065e-07)
(5.02105e-08 -1.34063e-07 1.29129e-07)
(9.25712e-09 8.30294e-09 3.55154e-09)
(1.81955e-08 -5.65936e-09 1.71855e-08)
(2.03494e-08 -2.2887e-08 3.37997e-08)
(1.94749e-08 -3.91206e-08 5.0428e-08)
(1.90136e-08 -5.41726e-08 6.60519e-08)
(2.23069e-08 -6.96754e-08 8.00606e-08)
(3.22529e-08 -9.22983e-08 9.07955e-08)
(4.30649e-08 -1.26795e-07 9.50928e-08)
(5.83134e-09 4.30793e-09 3.08908e-09)
(1.25736e-08 -1.00268e-08 1.3715e-08)
(1.43583e-08 -2.72875e-08 2.69987e-08)
(1.38434e-08 -4.28857e-08 4.07905e-08)
(1.39481e-08 -5.62896e-08 5.36399e-08)
(1.79095e-08 -6.91751e-08 6.43112e-08)
(2.85265e-08 -8.85909e-08 7.11639e-08)
(3.99231e-08 -1.20211e-07 7.24561e-08)
(4.37269e-09 2.76052e-09 3.01638e-09)
(1.02983e-08 -1.13829e-08 1.14827e-08)
(1.21627e-08 -2.84092e-08 2.16286e-08)
(1.21294e-08 -4.35149e-08 3.2184e-08)
(1.28104e-08 -5.59255e-08 4.19067e-08)
(1.72633e-08 -6.74491e-08 4.95739e-08)
(2.81036e-08 -8.54013e-08 5.39364e-08)
(3.94824e-08 -1.15636e-07 5.42077e-08)
(3.84095e-09 2.27929e-09 2.49106e-09)
(9.57661e-09 -1.14991e-08 8.69729e-09)
(1.16684e-08 -2.81246e-08 1.58198e-08)
(1.20537e-08 -4.28044e-08 2.31467e-08)
(1.31753e-08 -5.46786e-08 2.98141e-08)
(1.79437e-08 -6.56375e-08 3.49162e-08)
(2.88376e-08 -8.30613e-08 3.76439e-08)
(4.00722e-08 -1.12648e-07 3.76612e-08)
(3.66837e-09 2.17301e-09 1.61085e-09)
(9.40452e-09 -1.12663e-08 5.38921e-09)
(1.16938e-08 -2.75182e-08 9.60078e-09)
(1.23618e-08 -4.18774e-08 1.38815e-08)
(1.37615e-08 -5.34824e-08 1.774e-08)
(1.87133e-08 -6.4254e-08 2.06486e-08)
(2.96168e-08 -8.15315e-08 2.21652e-08)
(4.07341e-08 -1.10815e-07 2.2144e-08)
(3.61957e-09 2.16447e-09 5.53975e-10)
(9.37727e-09 -1.10783e-08 1.82073e-09)
(1.17702e-08 -2.71145e-08 3.21281e-09)
(1.25759e-08 -4.13026e-08 4.61789e-09)
(1.41073e-08 -5.27952e-08 5.87798e-09)
(1.91435e-08 -6.35198e-08 6.82228e-09)
(3.00486e-08 -8.07704e-08 7.31088e-09)
(4.11068e-08 -1.09931e-07 7.30092e-09)
(1.83947e-08 3.92569e-08 2.58858e-08)
(3.5171e-08 3.25134e-08 5.89058e-08)
(3.91299e-08 1.44491e-08 8.35413e-08)
(3.80619e-08 -4.86667e-09 1.04192e-07)
(3.69575e-08 -2.48685e-08 1.23709e-07)
(3.88879e-08 -4.91138e-08 1.43673e-07)
(4.48079e-08 -8.52305e-08 1.63936e-07)
(4.97839e-08 -1.31815e-07 1.77562e-07)
(3.88896e-09 3.25649e-08 2.47369e-08)
(8.00806e-09 2.6176e-08 5.71719e-08)
(8.18585e-09 1.13257e-08 8.0634e-08)
(6.22304e-09 -6.15223e-09 9.99305e-08)
(3.95191e-09 -2.58555e-08 1.18146e-07)
(2.61535e-09 -4.9772e-08 1.37194e-07)
(2.60748e-09 -8.3895e-08 1.58058e-07)
(2.2883e-09 -1.28398e-07 1.74186e-07)
(-6.61078e-09 3.123e-08 2.28332e-08)
(-1.42732e-08 2.56114e-08 5.44636e-08)
(-1.79866e-08 1.16513e-08 7.73397e-08)
(-2.02841e-08 -5.02407e-09 9.61917e-08)
(-2.31931e-08 -2.39971e-08 1.14023e-07)
(-2.80731e-08 -4.71911e-08 1.32715e-07)
(-3.54877e-08 -8.04735e-08 1.53227e-07)
(-4.39386e-08 -1.23699e-07 1.6901e-07)
(-1.89045e-08 3.50842e-08 2.02276e-08)
(-3.82411e-08 3.11992e-08 5.05379e-08)
(-4.56291e-08 1.59111e-08 7.33201e-08)
(-4.87732e-08 -1.0846e-09 9.26039e-08)
(-5.27822e-08 -1.90003e-08 1.10973e-07)
(-6.08389e-08 -4.11753e-08 1.29875e-07)
(-7.39583e-08 -7.48619e-08 1.49122e-07)
(-8.71924e-08 -1.17656e-07 1.6191e-07)
(-1.63454e-08 3.05459e-08 1.82859e-08)
(-3.46714e-08 2.42705e-08 4.62575e-08)
(-4.18e-08 8.0179e-09 6.79689e-08)
(-4.5032e-08 -8.64195e-09 8.65693e-08)
(-4.90378e-08 -2.53748e-08 1.04649e-07)
(-5.67773e-08 -4.55971e-08 1.23862e-07)
(-6.97207e-08 -7.66279e-08 1.43532e-07)
(-8.20398e-08 -1.16772e-07 1.57477e-07)
(-9.06324e-09 1.50995e-08 6.73926e-09)
(-2.26329e-08 5.65346e-09 2.45971e-08)
(-2.75909e-08 -9.03583e-09 4.29716e-08)
(-2.96088e-08 -2.38659e-08 6.01302e-08)
(-3.28278e-08 -3.86752e-08 7.65591e-08)
(-4.04811e-08 -5.54863e-08 9.28315e-08)
(-5.50233e-08 -8.07108e-08 1.07842e-07)
(-7.0529e-08 -1.16256e-07 1.17286e-07)
(-2.3727e-09 6.23351e-09 2.57129e-09)
(-1.08201e-08 -5.16547e-09 1.44049e-08)
(-1.38944e-08 -1.97911e-08 2.94731e-08)
(-1.51452e-08 -3.35456e-08 4.47851e-08)
(-1.7977e-08 -4.61456e-08 5.92501e-08)
(-2.57169e-08 -5.91736e-08 7.22251e-08)
(-4.11517e-08 -7.91298e-08 8.21238e-08)
(-5.83616e-08 -1.09958e-07 8.6028e-08)
(1.27224e-09 1.76546e-09 2.3989e-09)
(-4.41268e-09 -1.02493e-08 1.17871e-08)
(-6.50286e-09 -2.5011e-08 2.39391e-08)
(-7.50815e-09 -3.81627e-08 3.66876e-08)
(-1.03414e-08 -4.91201e-08 4.85788e-08)
(-1.82328e-08 -5.95354e-08 5.83974e-08)
(-3.3866e-08 -7.62924e-08 6.45859e-08)
(-5.12232e-08 -1.04238e-07 6.55956e-08)
(2.88134e-09 -1.11868e-10 2.53776e-09)
(-1.62855e-09 -1.21781e-08 1.01607e-08)
(-3.37375e-09 -2.68391e-08 1.95145e-08)
(-4.40416e-09 -3.95525e-08 2.93016e-08)
(-7.36329e-09 -4.95274e-08 3.82913e-08)
(-1.53225e-08 -5.85701e-08 4.52981e-08)
(-3.07865e-08 -7.38368e-08 4.91498e-08)
(-4.7767e-08 -1.00357e-07 4.92078e-08)
(3.50668e-09 -8.05296e-10 2.17932e-09)
(-5.90177e-10 -1.26923e-08 7.83912e-09)
(-2.28295e-09 -2.70747e-08 1.44414e-08)
(-3.41385e-09 -3.9423e-08 2.1248e-08)
(-6.48348e-09 -4.8879e-08 2.74053e-08)
(-1.44376e-08 -5.73461e-08 3.20404e-08)
(-2.96567e-08 -7.20532e-08 3.44047e-08)
(-4.62146e-08 -9.78837e-08 3.42695e-08)
(3.73313e-09 -1.0373e-09 1.43564e-09)
(-2.34284e-10 -1.27054e-08 4.90694e-09)
(-1.95516e-09 -2.68013e-08 8.82363e-09)
(-3.16894e-09 -3.88782e-08 1.28045e-08)
(-6.30246e-09 -4.80823e-08 1.63637e-08)
(-1.42272e-08 -5.6356e-08 1.8995e-08)
(-2.92572e-08 -7.08934e-08 2.02942e-08)
(-4.55057e-08 -9.63892e-08 2.0181e-08)
(3.80648e-09 -1.10432e-09 4.97518e-10)
(-1.22737e-10 -1.26343e-08 1.66525e-09)
(-1.86755e-09 -2.65588e-08 2.96183e-09)
(-3.12279e-09 -3.84913e-08 4.26906e-09)
(-6.28279e-09 -4.75935e-08 5.43064e-09)
(-1.41858e-08 -5.58178e-08 6.28304e-09)
(-2.9117e-08 -7.03166e-08 6.69935e-09)
(-4.52131e-08 -9.56741e-08 6.65854e-09)
(4.94239e-08 -1.39252e-07 1.77048e-07)
(4.3638e-08 -1.39349e-07 1.30477e-07)
(3.67139e-08 -1.32874e-07 9.44557e-08)
(3.34673e-08 -1.27064e-07 7.07739e-08)
(3.30828e-08 -1.22797e-07 5.23622e-08)
(3.37537e-08 -1.19898e-07 3.61719e-08)
(3.44567e-08 -1.18097e-07 2.12195e-08)
(3.48418e-08 -1.17229e-07 6.99133e-09)
(1.96222e-09 -1.35186e-07 1.74288e-07)
(1.4337e-09 -1.32723e-07 1.29804e-07)
(4.39529e-10 -1.25547e-07 9.57182e-08)
(5.85187e-10 -1.20435e-07 7.2028e-08)
(1.54921e-09 -1.17008e-07 5.28534e-08)
(2.63565e-09 -1.14694e-07 3.61429e-08)
(3.44382e-09 -1.13214e-07 2.10553e-08)
(3.85305e-09 -1.12482e-07 6.91503e-09)
(-4.42508e-08 -1.29378e-07 1.70169e-07)
(-3.66142e-08 -1.27169e-07 1.26924e-07)
(-3.00428e-08 -1.20243e-07 9.35862e-08)
(-2.5922e-08 -1.15343e-07 7.04399e-08)
(-2.37027e-08 -1.12085e-07 5.17042e-08)
(-2.25334e-08 -1.09894e-07 3.53657e-08)
(-2.19019e-08 -1.08494e-07 2.0606e-08)
(-2.1611e-08 -1.07801e-07 6.76809e-09)
(-8.75292e-08 -1.21638e-07 1.64722e-07)
(-7.50802e-08 -1.22336e-07 1.21864e-07)
(-6.27081e-08 -1.16585e-07 8.805e-08)
(-5.51842e-08 -1.11416e-07 6.59805e-08)
(-5.15812e-08 -1.07655e-07 4.88862e-08)
(-4.99666e-08 -1.05126e-07 3.382e-08)
(-4.92091e-08 -1.03566e-07 1.98601e-08)
(-4.88834e-08 -1.02817e-07 6.54675e-09)
)
;
    }
    symmetry
    {
        type            symmetry;
    }
    bottom
    {
        type            calculated;
        value           uniform (0 0 0);
    }
}


// ************************************************************************* //
