/*--------------------------------*- C++ -*----------------------------------*\
| =========                 |                                                 |
| \\      /  F ield         | OpenFOAM: The Open Source CFD Toolbox           |
|  \\    /   O peration     | Version:  v1912                                 |
|   \\  /    A nd           | Website:  www.openfoam.com                      |
|    \\/     M anipulation  |                                                 |
\*---------------------------------------------------------------------------*/
FoamFile
{
    version     2.0;
    format      ascii;
    class       volVectorField;
    location    "0.41/fluid";
    object      cellMotionU;
}
// * * * * * * * * * * * * * * * * * * * * * * * * * * * * * * * * * * * * * //

dimensions      [0 1 -1 0 0 0 0];


internalField   nonuniform List<vector> 
14592
(
(1.78675e-10 -4.18883e-10 3.16549e-10)
(4.98121e-10 -1.17132e-09 8.95628e-10)
(7.91817e-10 -1.87129e-09 1.46486e-09)
(1.06938e-09 -2.54355e-09 2.06016e-09)
(1.34099e-09 -3.20733e-09 2.71734e-09)
(1.61548e-09 -3.86967e-09 3.46702e-09)
(1.90312e-09 -4.52787e-09 4.34015e-09)
(2.21707e-09 -5.16562e-09 5.36781e-09)
(2.57678e-09 -5.74268e-09 6.57945e-09)
(3.0166e-09 -6.1803e-09 8.00427e-09)
(3.60853e-09 -6.32913e-09 9.67692e-09)
(4.51929e-09 -5.891e-09 1.166e-08)
(6.15117e-09 -4.20369e-09 1.41312e-08)
(9.57213e-09 4.35763e-10 1.76815e-08)
(1.73189e-08 1.24189e-08 2.39452e-08)
(3.16944e-08 3.70883e-08 3.4333e-08)
(5.32166e-10 -1.24369e-09 9.41084e-10)
(1.48389e-09 -3.47845e-09 2.6632e-09)
(2.35753e-09 -5.55801e-09 4.35317e-09)
(3.18416e-09 -7.56008e-09 6.12355e-09)
(3.9909e-09 -9.53582e-09 8.07223e-09)
(4.80526e-09 -1.15127e-08 1.02938e-08)
(5.65697e-09 -1.34881e-08 1.288e-08)
(6.58218e-09 -1.54178e-08 1.59191e-08)
(7.63202e-09 -1.71966e-08 1.94952e-08)
(8.89082e-09 -1.86204e-08 2.36845e-08)
(1.05203e-08 -1.9323e-08 2.85549e-08)
(1.28458e-08 -1.86657e-08 3.41782e-08)
(1.65819e-08 -1.55169e-08 4.0705e-08)
(2.31172e-08 -7.96085e-09 4.84887e-08)
(3.4613e-08 6.51907e-09 5.81714e-08)
(5.0202e-08 2.58429e-08 6.86745e-08)
(8.75216e-10 -2.03132e-09 1.54235e-09)
(2.44001e-09 -5.68288e-09 4.3635e-09)
(3.87622e-09 -9.08675e-09 7.1319e-09)
(5.23312e-09 -1.2368e-08 1.00262e-08)
(6.55641e-09 -1.56191e-08 1.32102e-08)
(7.89037e-09 -1.88921e-08 1.6837e-08)
(9.28191e-09 -2.21944e-08 2.10549e-08)
(1.0786e-08 -2.54764e-08 2.60086e-08)
(1.24731e-08 -2.86043e-08 3.18334e-08)
(1.44468e-08 -3.13192e-08 3.86473e-08)
(1.68772e-08 -3.31785e-08 4.65348e-08)
(2.00772e-08 -3.34788e-08 5.55316e-08)
(2.46463e-08 -3.11955e-08 6.56279e-08)
(3.16555e-08 -2.51497e-08 7.68347e-08)
(4.26166e-08 -1.49571e-08 8.92549e-08)
(5.65689e-08 -4.40389e-09 1.01686e-07)
(1.20109e-09 -2.75655e-09 2.10565e-09)
(3.34769e-09 -7.7152e-09 5.95565e-09)
(5.31657e-09 -1.23451e-08 9.72962e-09)
(7.17494e-09 -1.68237e-08 1.36708e-08)
(8.98427e-09 -2.12821e-08 1.79982e-08)
(1.08049e-08 -2.58064e-08 2.292e-08)
(1.26999e-08 -3.04302e-08 2.86379e-08)
(1.47389e-08 -3.5122e-08 3.53481e-08)
(1.70048e-08 -3.97636e-08 4.32378e-08)
(1.96013e-08 -4.41125e-08 5.24704e-08)
(2.26635e-08 -4.77539e-08 6.31533e-08)
(2.63862e-08 -5.00462e-08 7.5291e-08)
(3.10915e-08 -5.01154e-08 8.87413e-08)
(3.72744e-08 -4.70422e-08 1.03131e-07)
(4.56863e-08 -4.06001e-08 1.17822e-07)
(5.57408e-08 -3.33129e-08 1.30703e-07)
(1.50336e-09 -3.3946e-09 2.61809e-09)
(4.18957e-09 -9.5057e-09 7.40328e-09)
(6.65086e-09 -1.5224e-08 1.20876e-08)
(8.96986e-09 -2.07747e-08 1.6968e-08)
(1.12234e-08 -2.63341e-08 2.23152e-08)
(1.34862e-08 -3.2027e-08 2.83834e-08)
(1.58359e-08 -3.79249e-08 3.542e-08)
(1.8358e-08 -4.40389e-08 4.36697e-08)
(2.11489e-08 -5.03038e-08 5.33707e-08)
(2.43182e-08 -5.65514e-08 6.47415e-08)
(2.79763e-08 -6.24702e-08 7.7939e-08)
(3.22432e-08 -6.75446e-08 9.30183e-08)
(3.72038e-08 -7.09711e-08 1.09801e-07)
(4.28885e-08 -7.16107e-08 1.27727e-07)
(4.93678e-08 -6.81692e-08 1.45513e-07)
(5.62965e-08 -6.12615e-08 1.59787e-07)
(1.77686e-09 -3.92205e-09 3.06991e-09)
(4.95026e-09 -1.09876e-08 8.67741e-09)
(7.85379e-09 -1.7614e-08 1.4156e-08)
(1.05837e-08 -2.40738e-08 1.98493e-08)
(1.32286e-08 -3.05838e-08 2.60659e-08)
(1.58762e-08 -3.73114e-08 3.3098e-08)
(1.86184e-08 -4.43746e-08 4.12301e-08)
(2.15574e-08 -5.18409e-08 5.07461e-08)
(2.48113e-08 -5.97242e-08 6.19313e-08)
(2.85159e-08 -6.79721e-08 7.50631e-08)
(3.282e-08 -7.64422e-08 9.03866e-08)
(3.78829e-08 -8.48413e-08 1.08074e-07)
(4.3832e-08 -9.25908e-08 1.28148e-07)
(5.06488e-08 -9.8467e-08 1.50247e-07)
(5.80085e-08 -9.98904e-08 1.72996e-07)
(6.45509e-08 -9.39654e-08 1.91451e-07)
(2.01698e-09 -4.31628e-09 3.45358e-09)
(5.61719e-09 -1.20983e-08 9.75702e-09)
(8.9053e-09 -1.94152e-08 1.59015e-08)
(1.19869e-08 -2.65778e-08 2.2263e-08)
(1.49604e-08 -3.38417e-08 2.91798e-08)
(1.79231e-08 -4.14136e-08 3.6969e-08)
(2.09782e-08 -4.94572e-08 4.59391e-08)
(2.4244e-08 -5.80993e-08 5.63999e-08)
(2.78633e-08 -6.74389e-08 6.86693e-08)
(3.2014e-08 -7.75534e-08 8.30724e-08)
(3.69318e-08 -8.85054e-08 9.99417e-08)
(4.29434e-08 -1.00343e-07 1.19618e-07)
(5.05374e-08 -1.13076e-07 1.42478e-07)
(6.03927e-08 -1.26456e-07 1.68847e-07)
(7.31988e-08 -1.39116e-07 1.98388e-07)
(8.68097e-08 -1.46438e-07 2.25483e-07)
(2.22049e-09 -4.55849e-09 3.76503e-09)
(6.1812e-09 -1.27848e-08 1.06307e-08)
(9.79035e-09 -2.05394e-08 1.73044e-08)
(1.31594e-08 -2.81638e-08 2.41839e-08)
(1.63912e-08 -3.5942e-08 3.16221e-08)
(1.95884e-08 -4.41125e-08 3.99486e-08)
(2.28607e-08 -5.2876e-08 4.94807e-08)
(2.63347e-08 -6.2408e-08 6.05345e-08)
(3.01691e-08 -7.28741e-08 7.3435e-08)
(3.45719e-08 -8.44508e-08 8.85196e-08)
(3.9843e-08 -9.73568e-08 1.06154e-07)
(4.64559e-08 -1.11922e-07 1.26774e-07)
(5.524e-08 -1.28736e-07 1.51008e-07)
(6.77461e-08 -1.4892e-07 1.79883e-07)
(8.68172e-08 -1.74373e-07 2.14927e-07)
(1.12578e-07 -2.03554e-07 2.52672e-07)
(1.77249e-10 -4.2714e-10 3.00749e-10)
(4.93818e-10 -1.19453e-09 8.50891e-10)
(7.83212e-10 -1.90858e-09 1.38994e-09)
(1.05487e-09 -2.59534e-09 1.95315e-09)
(1.3168e-09 -3.27342e-09 2.5715e-09)
(1.57631e-09 -3.95199e-09 3.27395e-09)
(1.84052e-09 -4.63034e-09 4.08807e-09)
(2.11724e-09 -5.29428e-09 5.03942e-09)
(2.41709e-09 -5.90967e-09 6.1505e-09)
(2.75854e-09 -6.41011e-09 7.4375e-09)
(3.18184e-09 -6.67482e-09 8.90746e-09)
(3.77925e-09 -6.48331e-09 1.05572e-08)
(4.78649e-09 -5.3856e-09 1.23889e-08)
(6.69879e-09 -2.41108e-09 1.44212e-08)
(1.03907e-08 4.40797e-09 1.66312e-08)
(1.54854e-08 1.57953e-08 1.79388e-08)
(5.28143e-10 -1.26799e-09 8.94261e-10)
(1.47105e-09 -3.5464e-09 2.52891e-09)
(2.3331e-09 -5.66769e-09 4.13097e-09)
(3.14172e-09 -7.71018e-09 5.8031e-09)
(3.92094e-09 -9.72908e-09 7.63754e-09)
(4.69245e-09 -1.17547e-08 9.72009e-09)
(5.47682e-09 -1.37881e-08 1.21313e-08)
(6.29567e-09 -1.57933e-08 1.4946e-08)
(7.17524e-09 -1.76793e-08 1.82273e-08)
(8.15649e-09 -1.92731e-08 2.20162e-08)
(9.3178e-09 -2.028e-08 2.63129e-08)
(1.08368e-08 -2.02162e-08 3.10502e-08)
(1.30618e-08 -1.83419e-08 3.60256e-08)
(1.66041e-08 -1.36551e-08 4.07727e-08)
(2.18834e-08 -5.61389e-09 4.41284e-08)
(2.69614e-08 2.62845e-09 4.3938e-08)
(8.69002e-10 -2.07054e-09 1.46533e-09)
(2.42035e-09 -5.79269e-09 4.14336e-09)
(3.83835e-09 -9.26287e-09 6.7664e-09)
(5.16802e-09 -1.26111e-08 9.50149e-09)
(6.44909e-09 -1.59322e-08 1.24995e-08)
(7.71725e-09 -1.9283e-08 1.58998e-08)
(9.00595e-09 -2.26772e-08 1.98341e-08)
(1.0348e-08 -2.60743e-08 2.44245e-08)
(1.17775e-08 -2.93596e-08 2.97753e-08)
(1.33349e-08 -3.23137e-08 3.59537e-08)
(1.50807e-08 -3.45764e-08 4.29547e-08)
(1.71273e-08 -3.56242e-08 5.0642e-08)
(1.96813e-08 -3.48218e-08 5.86393e-08)
(2.30269e-08 -3.17661e-08 6.61385e-08)
(2.71444e-08 -2.73424e-08 7.15906e-08)
(3.03623e-08 -2.51599e-08 7.28998e-08)
(1.19338e-09 -2.80926e-09 2.00024e-09)
(3.32373e-09 -7.8625e-09 5.65537e-09)
(5.27011e-09 -1.2582e-08 9.23129e-09)
(7.09456e-09 -1.71496e-08 1.29555e-08)
(8.85168e-09 -2.17019e-08 1.70309e-08)
(1.05912e-08 -2.63295e-08 2.16466e-08)
(1.23594e-08 -3.10713e-08 2.69815e-08)
(1.42001e-08 -3.59058e-08 3.32036e-08)
(1.61528e-08 -4.07318e-08 4.04598e-08)
(1.82466e-08 -4.53423e-08 4.8851e-08)
(2.04927e-08 -4.93963e-08 5.83856e-08)
(2.28758e-08 -5.24087e-08 6.88986e-08)
(2.53011e-08 -5.38336e-08 7.98867e-08)
(2.75349e-08 -5.33981e-08 9.02707e-08)
(2.90226e-08 -5.19188e-08 9.80163e-08)
(2.88354e-08 -5.18565e-08 1.00415e-07)
(1.49536e-09 -3.45908e-09 2.48742e-09)
(4.16415e-09 -9.6856e-09 7.03029e-09)
(6.60113e-09 -1.55128e-08 1.14692e-08)
(8.8835e-09 -2.11729e-08 1.60823e-08)
(1.10802e-08 -2.68462e-08 2.11189e-08)
(1.32546e-08 -3.26622e-08 2.68107e-08)
(1.54674e-08 -3.86974e-08 3.33783e-08)
(1.77763e-08 -4.49693e-08 4.10319e-08)
(2.02328e-08 -5.14241e-08 4.99622e-08)
(2.28675e-08 -5.79167e-08 6.03143e-08)
(2.56742e-08 -6.41819e-08 7.2146e-08)
(2.85327e-08 -6.98084e-08 8.53059e-08)
(3.11261e-08 -7.42283e-08 9.92952e-08)
(3.27279e-08 -7.68252e-08 1.12871e-07)
(3.21504e-08 -7.73986e-08 1.23523e-07)
(2.88777e-08 -7.72829e-08 1.27553e-07)
(1.7695e-09 -3.99589e-09 2.91707e-09)
(4.92645e-09 -1.11938e-08 8.24112e-09)
(7.80649e-09 -1.79455e-08 1.34338e-08)
(1.05001e-08 -2.45299e-08 1.88156e-08)
(1.30887e-08 -3.11695e-08 2.46721e-08)
(1.5649e-08 -3.80352e-08 3.12693e-08)
(1.82566e-08 -4.52478e-08 3.88613e-08)
(2.0988e-08 -5.28777e-08 4.76933e-08)
(2.39183e-08 -6.09416e-08 5.79958e-08)
(2.7113e-08 -6.93928e-08 6.99662e-08)
(3.0602e-08 -7.81016e-08 8.37225e-08)
(3.4327e-08 -8.68086e-08 9.92234e-08)
(3.79848e-08 -9.50286e-08 1.16081e-07)
(4.07323e-08 -1.01822e-07 1.33157e-07)
(4.07748e-08 -1.05526e-07 1.47749e-07)
(3.63881e-08 -1.04801e-07 1.54983e-07)
(2.01115e-09 -4.39714e-09 3.28208e-09)
(5.59768e-09 -1.23241e-08 9.26791e-09)
(8.86512e-09 -1.97778e-08 1.50925e-08)
(1.19141e-08 -2.70769e-08 2.11074e-08)
(1.48363e-08 -3.44818e-08 2.76247e-08)
(1.77193e-08 -4.2202e-08 3.49337e-08)
(2.06526e-08 -5.04021e-08 4.33104e-08)
(2.37322e-08 -5.92076e-08 5.30228e-08)
(2.70645e-08 -6.87124e-08 6.43288e-08)
(3.07696e-08 -7.89832e-08 7.74659e-08)
(3.49801e-08 -9.00627e-08 9.26183e-08)
(3.98323e-08 -1.01963e-07 1.09866e-07)
(4.5403e-08 -1.14618e-07 1.29039e-07)
(5.15087e-08 -1.2766e-07 1.49334e-07)
(5.70342e-08 -1.3969e-07 1.68256e-07)
(5.87956e-08 -1.4688e-07 1.79689e-07)
(2.21682e-09 -4.64353e-09 3.5786e-09)
(6.16801e-09 -1.30222e-08 1.00995e-08)
(9.76108e-09 -2.09211e-08 1.64272e-08)
(1.3103e-08 -2.86889e-08 2.29328e-08)
(1.62915e-08 -3.66148e-08 2.99429e-08)
(1.94212e-08 -4.49393e-08 3.7758e-08)
(2.25906e-08 -5.38625e-08 4.66624e-08)
(2.59095e-08 -6.35551e-08 5.69295e-08)
(2.95078e-08 -7.41718e-08 6.88229e-08)
(3.35505e-08 -8.5867e-08 8.25902e-08)
(3.82594e-08 -9.88175e-08 9.84403e-08)
(4.39565e-08 -1.13267e-07 1.16516e-07)
(5.11322e-08 -1.29609e-07 1.36808e-07)
(6.05491e-08 -1.48485e-07 1.58867e-07)
(7.30338e-08 -1.70506e-07 1.80746e-07)
(8.65612e-08 -1.92491e-07 1.95855e-07)
(1.75096e-10 -4.34138e-10 2.74099e-10)
(4.87177e-10 -1.21413e-09 7.74948e-10)
(7.7102e-10 -1.94016e-09 1.26533e-09)
(1.03445e-09 -2.63878e-09 1.77573e-09)
(1.28404e-09 -3.32934e-09 2.33416e-09)
(1.52457e-09 -4.02222e-09 2.96541e-09)
(1.75916e-09 -4.71873e-09 3.69226e-09)
(1.98921e-09 -5.40836e-09 4.53433e-09)
(2.21409e-09 -6.0649e-09 5.50551e-09)
(2.43235e-09 -6.63843e-09 6.60828e-09)
(2.64498e-09 -7.0472e-09 7.82506e-09)
(2.86605e-09 -7.15802e-09 9.10142e-09)
(3.12129e-09 -6.75651e-09 1.03061e-08)
(3.44887e-09 -5.45974e-09 1.1171e-08)
(3.68266e-09 -2.68391e-09 1.10648e-08)
(3.04038e-09 1.45248e-09 8.92102e-09)
(5.2182e-10 -1.28854e-09 8.1479e-10)
(1.45195e-09 -3.60401e-09 2.30358e-09)
(2.29753e-09 -5.76026e-09 3.75984e-09)
(3.08257e-09 -7.83747e-09 5.27576e-09)
(3.8262e-09 -9.89295e-09 6.93267e-09)
(4.54298e-09 -1.19602e-08 8.80435e-09)
(5.24224e-09 -1.40455e-08 1.09576e-08)
(5.92744e-09 -1.61222e-08 1.34498e-08)
(6.59433e-09 -1.81194e-08 1.63202e-08)
(7.23036e-09 -1.99065e-08 1.95733e-08)
(7.81894e-09 -2.12762e-08 2.31481e-08)
(8.34066e-09 -2.19393e-08 2.68549e-08)
(8.78671e-09 -2.15435e-08 3.02747e-08)
(9.06375e-09 -1.98271e-08 3.2515e-08)
(8.73591e-09 -1.71125e-08 3.19562e-08)
(7.00137e-09 -1.52475e-08 2.74004e-08)
(8.59142e-10 -2.10374e-09 1.33511e-09)
(2.39058e-09 -5.88556e-09 3.77432e-09)
(3.78297e-09 -9.41219e-09 6.15864e-09)
(5.07601e-09 -1.28161e-08 8.63867e-09)
(6.30189e-09 -1.61956e-08 1.13468e-08)
(7.48533e-09 -1.96115e-08 1.44034e-08)
(8.64296e-09 -2.30838e-08 1.79178e-08)
(9.78059e-09 -2.65843e-08 2.19847e-08)
(1.08881e-08 -3.0023e-08 2.66712e-08)
(1.19311e-08 -3.32304e-08 3.19904e-08)
(1.28414e-08 -3.59508e-08 3.78541e-08)
(1.35018e-08 -3.78645e-08 4.39851e-08)
(1.37157e-08 -3.87107e-08 4.97725e-08)
(1.31373e-08 -3.86338e-08 5.40598e-08)
(1.12003e-08 -3.87847e-08 5.50593e-08)
(7.82784e-09 -4.0931e-08 5.19181e-08)
(1.18103e-09 -2.85371e-09 1.82303e-09)
(3.28605e-09 -7.9871e-09 5.15144e-09)
(5.20023e-09 -1.27818e-08 8.40308e-09)
(6.97843e-09 -1.74235e-08 1.17802e-08)
(8.666e-09 -2.20523e-08 1.54621e-08)
(1.02992e-08 -2.67625e-08 1.9612e-08)
(1.1904e-08 -3.15991e-08 2.43791e-08)
(1.34919e-08 -3.65509e-08 2.98948e-08)
(1.50502e-08 -4.15376e-08 3.6257e-08)
(1.65241e-08 -4.63953e-08 4.35004e-08)
(1.77848e-08 -5.08706e-08 5.15343e-08)
(1.85739e-08 -5.46488e-08 6.0038e-08)
(1.84275e-08 -5.74842e-08 6.83188e-08)
(1.65761e-08 -5.95271e-08 7.50622e-08)
(1.21423e-08 -6.17759e-08 7.83024e-08)
(5.87732e-09 -6.52612e-08 7.68553e-08)
(1.48157e-09 -3.51327e-09 2.26707e-09)
(4.12216e-09 -9.83699e-09 6.40502e-09)
(6.52308e-09 -1.57555e-08 1.04416e-08)
(8.75362e-09 -2.15047e-08 1.46255e-08)
(1.08726e-08 -2.72683e-08 1.91766e-08)
(1.29288e-08 -3.31787e-08 2.42949e-08)
(1.4961e-08 -3.93155e-08 3.01653e-08)
(1.69929e-08 -4.57016e-08 3.6953e-08)
(1.90217e-08 -5.2294e-08 4.47895e-08)
(2.09937e-08 -5.89708e-08 5.37406e-08)
(2.27511e-08 -6.55184e-08 6.37318e-08)
(2.39585e-08 -7.16282e-08 7.44729e-08)
(2.39177e-08 -7.69354e-08 8.52244e-08)
(2.14248e-08 -8.11609e-08 9.45964e-08)
(1.50363e-08 -8.44268e-08 1.00373e-07)
(5.89379e-09 -8.73018e-08 1.00743e-07)
(1.75543e-09 -4.05773e-09 2.65891e-09)
(4.88371e-09 -1.13667e-08 7.50935e-09)
(7.72669e-09 -1.82221e-08 1.22323e-08)
(1.0367e-08 -2.4907e-08 1.71141e-08)
(1.28758e-08 -3.16466e-08 2.24069e-08)
(1.53154e-08 -3.8613e-08 2.83408e-08)
(1.77398e-08 -4.59264e-08 3.51286e-08)
(2.01927e-08 -5.36555e-08 4.29641e-08)
(2.26975e-08 -6.18143e-08 5.20089e-08)
(2.52354e-08 -7.03537e-08 6.23599e-08)
(2.77018e-08 -7.91442e-08 7.39905e-08)
(2.98076e-08 -8.79409e-08 8.66384e-08)
(3.08809e-08 -9.63079e-08 9.96157e-08)
(2.95632e-08 -1.03453e-07 1.11492e-07)
(2.37539e-08 -1.08045e-07 1.19833e-07)
(1.34395e-08 -1.08829e-07 1.222e-07)
(1.998e-09 -4.46454e-09 2.99228e-09)
(5.55736e-09 -1.25124e-08 8.44644e-09)
(8.78953e-09 -2.00786e-08 1.37451e-08)
(1.17874e-08 -2.74861e-08 1.92024e-08)
(1.4633e-08 -3.4997e-08 2.50937e-08)
(1.74007e-08 -4.28201e-08 3.16694e-08)
(2.01604e-08 -5.11158e-08 3.91614e-08)
(2.29784e-08 -6.0001e-08 4.77811e-08)
(2.59149e-08 -6.95531e-08 5.77102e-08)
(2.90138e-08 -7.98108e-08 6.90699e-08)
(3.22834e-08 -9.07675e-08 8.18683e-08)
(3.56396e-08 -1.02349e-07 9.58894e-08)
(3.87788e-08 -1.14339e-07 1.10491e-07)
(4.09224e-08 -1.26136e-07 1.24198e-07)
(4.04617e-08 -1.36158e-07 1.34209e-07)
(3.59212e-08 -1.41126e-07 1.37182e-07)
(2.20538e-09 -4.71412e-09 3.26318e-09)
(6.13285e-09 -1.32193e-08 9.20604e-09)
(9.69434e-09 -2.12358e-08 1.49637e-08)
(1.29901e-08 -2.91162e-08 2.08672e-08)
(1.61093e-08 -3.71509e-08 2.72058e-08)
(1.9135e-08 -4.5578e-08 3.42395e-08)
(2.2149e-08 -5.45906e-08 4.2207e-08)
(2.52358e-08 -6.43451e-08 5.13243e-08)
(2.84865e-08 -7.49703e-08 6.17762e-08)
(3.20018e-08 -8.65742e-08 7.36876e-08)
(3.58957e-08 -9.92496e-08 8.70732e-08)
(4.02937e-08 -1.13084e-07 1.01736e-07)
(4.532e-08 -1.28169e-07 1.17055e-07)
(5.10798e-08 -1.4456e-07 1.31507e-07)
(5.75647e-08 -1.61958e-07 1.41818e-07)
(6.3813e-08 -1.77395e-07 1.43207e-07)
(1.72517e-10 -4.39803e-10 2.37755e-10)
(4.79481e-10 -1.23e-09 6.72081e-10)
(7.56792e-10 -1.9656e-09 1.09616e-09)
(1.0113e-09 -2.67372e-09 1.53714e-09)
(1.24753e-09 -3.37443e-09 2.01749e-09)
(1.46782e-09 -4.07898e-09 2.55778e-09)
(1.6714e-09 -4.79051e-09 3.17561e-09)
(1.85365e-09 -5.50197e-09 3.88497e-09)
(2.00422e-09 -6.19419e-09 4.69277e-09)
(2.10546e-09 -6.8317e-09 5.59309e-09)
(2.1299e-09 -7.36202e-09 6.55721e-09)
(2.03727e-09 -7.71319e-09 7.51702e-09)
(1.76916e-09 -7.78751e-09 8.35131e-09)
(1.18665e-09 -7.43826e-09 8.84061e-09)
(-4.5257e-11 -6.3955e-09 8.71565e-09)
(-2.27097e-09 -4.41032e-09 7.85172e-09)
(5.14359e-10 -1.30523e-09 7.06846e-10)
(1.42941e-09 -3.65065e-09 1.99737e-09)
(2.25641e-09 -5.83518e-09 3.25816e-09)
(3.01526e-09 -7.94035e-09 4.5669e-09)
(3.72019e-09 -1.00251e-08 5.99231e-09)
(4.37833e-09 -1.21257e-08 7.59427e-09)
(4.98821e-09 -1.42529e-08 9.42492e-09)
(5.53628e-09 -1.6389e-08 1.15248e-08)
(5.9918e-09 -1.84808e-08 1.39138e-08)
(6.29924e-09 -2.04333e-08 1.65729e-08)
(6.37021e-09 -2.2108e-08 1.94133e-08)
(6.08084e-09 -2.33382e-08 2.22356e-08)
(5.25506e-09 -2.39723e-08 2.46394e-08)
(3.67071e-09 -2.39586e-08 2.59759e-08)
(1.14172e-09 -2.34664e-08 2.54212e-08)
(-1.70154e-09 -2.29183e-08 2.31187e-08)
(8.47445e-10 -2.13063e-09 1.1584e-09)
(2.35526e-09 -5.96104e-09 3.27284e-09)
(3.71848e-09 -9.53305e-09 5.3372e-09)
(4.97062e-09 -1.29815e-08 7.47877e-09)
(6.13601e-09 -1.64069e-08 9.80867e-09)
(7.22826e-09 -1.98731e-08 1.24251e-08)
(8.24752e-09 -2.3406e-08 1.54135e-08)
(9.17465e-09 -2.69879e-08 1.88418e-08)
(9.96122e-09 -3.05499e-08 2.27457e-08)
(1.05136e-08 -3.39643e-08 2.71024e-08)
(1.06744e-08 -3.70517e-08 3.17868e-08)
(1.02029e-08 -3.96205e-08 3.65072e-08)
(8.76823e-09 -4.15812e-08 4.07272e-08)
(6.01774e-09 -4.31696e-08 4.36311e-08)
(1.94497e-09 -4.51471e-08 4.44103e-08)
(-1.938e-09 -4.79754e-08 4.35198e-08)
(1.16599e-09 -2.88985e-09 1.58143e-09)
(3.24103e-09 -8.08805e-09 4.46821e-09)
(5.11791e-09 -1.29433e-08 7.28337e-09)
(6.8439e-09 -1.76434e-08 1.01999e-08)
(8.45455e-09 -2.23306e-08 1.3368e-08)
(9.97237e-09 -2.71022e-08 1.69207e-08)
(1.14033e-08 -3.20073e-08 2.09753e-08)
(1.27291e-08 -3.70429e-08 2.56266e-08)
(1.38928e-08 -4.2145e-08 3.09308e-08)
(1.47729e-08 -4.71825e-08 3.68716e-08)
(1.51488e-08 -5.19607e-08 4.3312e-08)
(1.46555e-08 -5.62623e-08 4.99295e-08)
(1.27329e-08 -5.99586e-08 5.61101e-08)
(8.73313e-09 -6.32372e-08 6.09978e-08)
(2.51082e-09 -6.67642e-08 6.37626e-08)
(-3.65699e-09 -7.06641e-08 6.45983e-08)
(1.46451e-09 -3.55708e-09 1.96724e-09)
(4.07094e-09 -9.95955e-09 5.55621e-09)
(6.42937e-09 -1.59508e-08 9.05182e-09)
(8.60063e-09 -2.17691e-08 1.26658e-08)
(1.06324e-08 -2.75996e-08 1.65821e-08)
(1.25587e-08 -3.3576e-08 2.09646e-08)
(1.43966e-08 -3.97791e-08 2.59585e-08)
(1.61383e-08 -4.62334e-08 3.16843e-08)
(1.77347e-08 -5.29012e-08 3.82192e-08)
(1.90644e-08 -5.96726e-08 4.5562e-08)
(1.98899e-08 -6.6359e-08 5.35932e-08)
(1.97644e-08 -7.2693e-08 6.19551e-08)
(1.79492e-08 -7.83626e-08 7.00415e-08)
(1.34187e-08 -8.30959e-08 7.69361e-08)
(5.54508e-09 -8.6816e-08 8.17253e-08)
(-3.07595e-09 -8.95549e-08 8.42167e-08)
(1.73761e-09 -4.10765e-09 2.30788e-09)
(4.82997e-09 -1.1506e-08 6.51538e-09)
(7.62844e-09 -1.84435e-08 1.06062e-08)
(1.02065e-08 -2.52049e-08 1.48236e-08)
(1.26242e-08 -3.20162e-08 1.9379e-08)
(1.49288e-08 -3.90483e-08 2.44606e-08)
(1.71529e-08 -4.64182e-08 3.02364e-08)
(1.93092e-08 -5.41883e-08 3.68472e-08)
(2.13759e-08 -6.23627e-08 4.43889e-08)
(2.32724e-08 -7.08783e-08 5.28805e-08)
(2.48109e-08 -7.95855e-08 6.22038e-08)
(2.56105e-08 -8.82098e-08 7.20215e-08)
(2.49539e-08 -9.62704e-08 8.16799e-08)
(2.16753e-08 -1.02912e-07 9.01911e-08)
(1.45229e-08 -1.06708e-07 9.64906e-08)
(4.99669e-09 -1.06375e-07 1.00161e-07)
(1.98049e-09 -4.5187e-09 2.59758e-09)
(5.50466e-09 -1.26633e-08 7.32981e-09)
(8.69292e-09 -2.03178e-08 1.19202e-08)
(1.16295e-08 -2.78064e-08 1.66356e-08)
(1.43857e-08 -3.53908e-08 2.17071e-08)
(1.70216e-08 -4.32763e-08 2.73401e-08)
(1.95873e-08 -5.16155e-08 3.37171e-08)
(2.21203e-08 -6.0511e-08 4.09915e-08)
(2.46392e-08 -7.00162e-08 4.92706e-08)
(2.71312e-08 -8.01301e-08 5.85835e-08)
(2.95259e-08 -9.07816e-08 6.88157e-08)
(3.16459e-08 -1.01791e-07 7.96179e-08)
(3.31213e-08 -1.12778e-07 9.02706e-08)
(3.33073e-08 -1.22933e-07 9.95854e-08)
(3.1374e-08 -1.30552e-07 1.06084e-07)
(2.74755e-08 -1.32951e-07 1.09122e-07)
(2.18922e-09 -4.77058e-09 2.83325e-09)
(6.084e-09 -1.33767e-08 7.99048e-09)
(9.60463e-09 -2.14846e-08 1.29793e-08)
(1.28431e-08 -2.94482e-08 1.80815e-08)
(1.5879e-08 -3.75561e-08 2.35396e-08)
(1.87826e-08 -4.60411e-08 2.95674e-08)
(2.16181e-08 -5.5085e-08 3.63529e-08)
(2.44446e-08 -6.48241e-08 4.4052e-08)
(2.73169e-08 -7.53526e-08 5.27716e-08)
(3.02853e-08 -8.67216e-08 6.25378e-08)
(3.33925e-08 -9.893e-08 7.32277e-08)
(3.66695e-08 -1.11911e-07 8.44661e-08)
(4.01438e-08 -1.25511e-07 9.54554e-08)
(4.39416e-08 -1.39463e-07 1.04763e-07)
(4.85699e-08 -1.53281e-07 1.10243e-07)
(5.45532e-08 -1.65079e-07 1.10468e-07)
(1.69903e-10 -4.44158e-10 1.93281e-10)
(4.71576e-10 -1.24209e-09 5.45891e-10)
(7.4261e-10 -1.98481e-09 8.90445e-10)
(9.88245e-10 -2.70047e-09 1.247e-09)
(1.21173e-09 -3.4086e-09 1.63475e-09)
(1.41297e-09 -4.12203e-09 2.06867e-09)
(1.58821e-09 -4.84456e-09 2.56178e-09)
(1.72811e-09 -5.57236e-09 3.12333e-09)
(1.81618e-09 -6.29001e-09 3.75585e-09)
(1.82535e-09 -6.97229e-09 4.45103e-09)
(1.71624e-09 -7.58088e-09 5.18185e-09)
(1.43459e-09 -8.07007e-09 5.89802e-09)
(9.00517e-10 -8.37943e-09 6.51123e-09)
(-2.17717e-11 -8.39979e-09 6.94055e-09)
(-1.61672e-09 -7.85259e-09 7.16315e-09)
(-4.01448e-09 -6.25479e-09 7.27161e-09)
(5.06694e-10 -1.31803e-09 5.74491e-10)
(1.4066e-09 -3.68638e-09 1.62341e-09)
(2.21497e-09 -5.89268e-09 2.64596e-09)
(2.94835e-09 -8.0188e-09 3.70592e-09)
(3.61614e-09 -1.01262e-08 4.85628e-09)
(4.21918e-09 -1.22515e-08 6.14307e-09)
(4.74704e-09 -1.44094e-08 7.6043e-09)
(5.17368e-09 -1.65881e-08 9.26693e-09)
(5.4509e-09 -1.87469e-08 1.11386e-08)
(5.49995e-09 -2.08111e-08 1.3193e-08)
(5.20566e-09 -2.2679e-08 1.53514e-08)
(4.41495e-09 -2.42326e-08 1.74483e-08)
(2.96053e-09 -2.53628e-08 1.92282e-08)
(7.27581e-10 -2.59787e-08 2.03281e-08)
(-2.11275e-09 -2.59558e-08 2.04433e-08)
(-4.46558e-09 -2.51735e-08 1.97612e-08)
(8.35385e-10 -2.1514e-09 9.41629e-10)
(2.31933e-09 -6.01919e-09 2.6603e-09)
(3.65341e-09 -9.62588e-09 4.33557e-09)
(4.86548e-09 -1.31082e-08 6.06983e-09)
(5.97262e-09 -1.65671e-08 7.95031e-09)
(6.97884e-09 -2.00693e-08 1.0052e-08)
(7.87082e-09 -2.36441e-08 1.24377e-08)
(8.61113e-09 -2.72812e-08 1.51529e-08)
(9.12644e-09 -3.09242e-08 1.82128e-08)
(9.29309e-09 -3.44697e-08 2.15826e-08)
(8.92292e-09 -3.77744e-08 2.51467e-08)
(7.762e-09 -4.069e-08 2.86761e-08)
(5.53397e-09 -4.31419e-08 3.1806e-08)
(2.1221e-09 -4.52542e-08 3.41067e-08)
(-1.95067e-09 -4.74138e-08 3.53174e-08)
(-4.79737e-09 -4.96956e-08 3.5779e-08)
(1.15055e-09 -2.91774e-09 1.28616e-09)
(3.19482e-09 -8.16612e-09 3.63221e-09)
(5.03428e-09 -1.30676e-08 5.91766e-09)
(6.70882e-09 -1.78109e-08 8.27993e-09)
(8.24505e-09 -2.25401e-08 1.0837e-08)
(9.65339e-09 -2.73534e-08 1.36911e-08)
(1.09236e-08 -3.23023e-08 1.69283e-08)
(1.20156e-08 -3.73874e-08 2.06129e-08)
(1.28444e-08 -4.25537e-08 2.47713e-08)
(1.32576e-08 -4.76843e-08 2.93696e-08)
(1.30105e-08 -5.26076e-08 3.42794e-08)
(1.17417e-08 -5.71245e-08 3.92234e-08)
(9.00822e-09 -6.10933e-08 4.38171e-08)
(4.48699e-09 -6.45775e-08 4.76055e-08)
(-1.35831e-09 -6.79434e-08 5.03424e-08)
(-6.03851e-09 -7.11608e-08 5.21161e-08)
(1.44673e-09 -3.59098e-09 1.60003e-09)
(4.01782e-09 -1.00541e-08 4.51779e-09)
(6.3333e-09 -1.61004e-08 7.35611e-09)
(8.44561e-09 -2.19693e-08 1.02837e-08)
(1.03923e-08 -2.78457e-08 1.34449e-08)
(1.21944e-08 -3.38637e-08 1.69658e-08)
(1.38513e-08 -4.01024e-08 2.09536e-08)
(1.53322e-08 -4.65851e-08 2.54893e-08)
(1.65596e-08 -5.32719e-08 3.06126e-08)
(1.73846e-08 -6.00517e-08 3.62978e-08)
(1.75466e-08 -6.67316e-08 4.23969e-08)
(1.66344e-08 -7.3034e-08 4.86432e-08)
(1.40494e-08 -7.86029e-08 5.45979e-08)
(9.15554e-09 -8.30591e-08 5.97986e-08)
(1.96737e-09 -8.61444e-08 6.39622e-08)
(-4.82951e-09 -8.79344e-08 6.69101e-08)
(1.71868e-09 -4.14616e-09 1.87725e-09)
(4.77353e-09 -1.16132e-08 5.29884e-09)
(7.52631e-09 -1.86123e-08 8.62101e-09)
(1.00418e-08 -2.54284e-08 1.20378e-08)
(1.23698e-08 -3.22872e-08 1.57154e-08)
(1.4544e-08 -3.93566e-08 1.97988e-08)
(1.65796e-08 -4.67483e-08 2.44115e-08)
(1.84665e-08 -5.45154e-08 2.96486e-08)
(2.01563e-08 -6.26478e-08 3.556e-08)
(2.15412e-08 -7.10604e-08 4.21207e-08)
(2.24208e-08 -7.95696e-08 4.91897e-08)
(2.24475e-08 -8.78493e-08 5.64588e-08)
(2.10643e-08 -9.53453e-08 6.34517e-08)
(1.75094e-08 -1.01113e-07 6.96142e-08)
(1.11993e-08 -1.03696e-07 7.45848e-08)
(3.71195e-09 -1.02149e-07 7.81406e-08)
(1.96155e-09 -4.56033e-09 2.11343e-09)
(5.44816e-09 -1.27789e-08 5.96231e-09)
(8.59065e-09 -2.04991e-08 9.69079e-09)
(1.14648e-08 -2.80448e-08 1.35116e-08)
(1.41316e-08 -3.56755e-08 1.76068e-08)
(1.66386e-08 -4.35918e-08 2.21344e-08)
(1.90191e-08 -5.19365e-08 2.72287e-08)
(2.12895e-08 -6.07958e-08 3.29925e-08)
(2.34437e-08 -7.01969e-08 3.94807e-08)
(2.54435e-08 -8.00976e-08 4.66662e-08)
(2.72059e-08 -9.03639e-08 5.43948e-08)
(2.85824e-08 -1.00727e-07 6.23185e-08)
(2.93444e-08 -1.10696e-07 6.98572e-08)
(2.92188e-08 -1.19375e-07 7.6251e-08)
(2.80264e-08 -1.25182e-07 8.08717e-08)
(2.60633e-08 -1.26152e-07 8.36285e-08)
(2.17125e-09 -4.81385e-09 2.30555e-09)
(6.03031e-09 -1.34967e-08 6.50077e-09)
(9.50738e-09 -2.16722e-08 1.05533e-08)
(1.26864e-08 -2.96932e-08 1.46886e-08)
(1.56377e-08 -3.78455e-08 1.90972e-08)
(1.84199e-08 -4.63547e-08 2.39442e-08)
(2.10822e-08 -5.539e-08 2.93677e-08)
(2.36645e-08 -6.50657e-08 3.54711e-08)
(2.61995e-08 -7.54418e-08 4.23072e-08)
(2.87138e-08 -8.65152e-08 4.98401e-08)
(3.1235e-08 -9.82043e-08 5.78959e-08)
(3.38094e-08 -1.10331e-07 6.60815e-08)
(3.65678e-08 -1.22612e-07 7.37063e-08)
(3.99276e-08 -1.34701e-07 7.9752e-08)
(4.49647e-08 -1.46322e-07 8.30974e-08)
(5.24904e-08 -1.56557e-07 8.34386e-08)
(1.6757e-10 -4.47162e-10 1.42391e-10)
(4.64723e-10 -1.25049e-09 4.02446e-10)
(7.30129e-10 -1.99845e-09 6.55342e-10)
(9.6836e-10 -2.71832e-09 9.17625e-10)
(1.18113e-09 -3.43297e-09 1.20173e-09)
(1.36676e-09 -4.15263e-09 1.5185e-09)
(1.51924e-09 -4.88275e-09 1.87655e-09)
(1.62665e-09 -5.62076e-09 2.28174e-09)
(1.66923e-09 -6.35422e-09 2.73463e-09)
(1.61729e-09 -7.06101e-09 3.22782e-09)
(1.43068e-09 -7.70942e-09 3.74199e-09)
(1.05911e-09 -8.25781e-09 4.24214e-09)
(4.3941e-10 -8.64666e-09 4.69303e-09)
(-5.32128e-10 -8.74545e-09 5.06081e-09)
(-2.09813e-09 -8.23683e-09 5.40384e-09)
(-4.37629e-09 -6.58454e-09 5.7661e-09)
(4.99973e-10 -1.32709e-09 4.23572e-10)
(1.38647e-09 -3.71181e-09 1.19599e-09)
(2.17882e-09 -5.93263e-09 1.94881e-09)
(2.89044e-09 -8.07572e-09 2.72752e-09)
(3.5269e-09 -1.01977e-08 3.57043e-09)
(4.08449e-09 -1.23398e-08 4.50965e-09)
(4.54647e-09 -1.45175e-08 5.5708e-09)
(4.87949e-09 -1.67225e-08 6.77047e-09)
(5.02688e-09 -1.89199e-08 8.11053e-09)
(4.90378e-09 -2.10445e-08 9.56824e-09)
(4.39596e-09 -2.30047e-08 1.10836e-08)
(3.37326e-09 -2.46881e-08 1.25583e-08)
(1.729e-09 -2.59619e-08 1.38337e-08)
(-5.33207e-10 -2.66527e-08 1.47403e-08)
(-3.08451e-09 -2.64641e-08 1.51303e-08)
(-4.88879e-09 -2.52244e-08 1.49936e-08)
(8.24764e-10 -2.1663e-09 6.94284e-10)
(2.28767e-09 -6.06074e-09 1.96032e-09)
(3.59649e-09 -9.69305e-09 3.19373e-09)
(4.77406e-09 -1.31978e-08 4.468e-09)
(5.83217e-09 -1.66809e-08 5.84607e-09)
(6.76721e-09 -2.02068e-08 7.38014e-09)
(7.5568e-09 -2.38074e-08 9.11261e-09)
(8.15248e-09 -2.74758e-08 1.10719e-08)
(8.46986e-09 -3.11615e-08 1.32629e-08)
(8.37886e-09 -3.47688e-08 1.56536e-08)
(7.7002e-09 -3.81621e-08 1.81597e-08)
(6.2243e-09 -4.1189e-08 2.06292e-08)
(3.78774e-09 -4.37222e-08 2.28526e-08)
(4.68833e-10 -4.57644e-08 2.4612e-08)
(-3.00173e-09 -4.7505e-08 2.57841e-08)
(-4.94247e-09 -4.90761e-08 2.64144e-08)
(1.13683e-09 -2.93801e-09 9.48023e-10)
(3.15396e-09 -8.22251e-09 2.67747e-09)
(4.9607e-09 -1.31565e-08 4.36e-09)
(6.59109e-09 -1.79313e-08 6.09617e-09)
(8.06407e-09 -2.26874e-08 7.96998e-09)
(9.38145e-09 -2.75261e-08 1.00531e-08)
(1.05218e-08 -3.24986e-08 1.24041e-08)
(1.14322e-08 -3.76063e-08 1.50628e-08)
(1.20157e-08 -4.27951e-08 1.80403e-08)
(1.21162e-08 -4.79495e-08 2.13019e-08)
(1.15071e-08 -5.28944e-08 2.47458e-08)
(9.89914e-09 -5.74119e-08 2.81996e-08)
(6.99845e-09 -6.12998e-08 3.14228e-08)
(2.73456e-09 -6.44967e-08 3.41936e-08)
(-2.21261e-09 -6.72223e-08 3.63824e-08)
(-5.71203e-09 -6.96138e-08 3.78377e-08)
(1.43084e-09 -3.61548e-09 1.17979e-09)
(3.97065e-09 -1.01226e-08 3.33081e-09)
(6.24841e-09 -1.62085e-08 5.42101e-09)
(8.30939e-09 -2.21107e-08 7.57263e-09)
(1.01839e-08 -2.80173e-08 9.88937e-09)
(1.18822e-08 -3.40582e-08 1.24594e-08)
(1.3392e-08 -4.03112e-08 1.53554e-08)
(1.46692e-08 -4.67954e-08 1.86283e-08)
(1.5625e-08 -5.34644e-08 2.22952e-08)
(1.61092e-08 -6.0197e-08 2.63188e-08)
(1.5892e-08 -6.67843e-08 3.05971e-08)
(1.46424e-08 -7.29105e-08 3.49255e-08)
(1.19492e-08 -7.81633e-08 3.90489e-08)
(7.45683e-09 -8.20717e-08 4.27247e-08)
(1.39596e-09 -8.43095e-08 4.57988e-08)
(-4.0143e-09 -8.51996e-08 4.79502e-08)
(1.70172e-09 -4.17419e-09 1.38467e-09)
(4.72289e-09 -1.16906e-08 3.90739e-09)
(7.43514e-09 -1.87328e-08 6.3542e-09)
(9.8963e-09 -2.55867e-08 8.86583e-09)
(1.2147e-08 -3.24735e-08 1.15611e-08)
(1.42116e-08 -3.95601e-08 1.45421e-08)
(1.60929e-08 -4.69519e-08 1.78923e-08)
(1.77677e-08 -5.46919e-08 2.16707e-08)
(1.91773e-08 -6.27549e-08 2.5898e-08)
(2.02157e-08 -7.10321e-08 3.05385e-08)
(2.07129e-08 -7.93056e-08 3.54724e-08)
(2.04157e-08 -8.72061e-08 4.04743e-08)
(1.89581e-08 -9.4122e-08 4.52314e-08)
(1.58735e-08 -9.90706e-08 4.94367e-08)
(1.08057e-08 -1.00649e-07 5.28979e-08)
(4.83303e-09 -9.82695e-08 5.53213e-08)
(1.94435e-09 -4.59048e-09 1.55902e-09)
(5.39699e-09 -1.28623e-08 4.39731e-09)
(8.49868e-09 -2.06286e-08 7.14372e-09)
(1.13175e-08 -2.82114e-08 9.9526e-09)
(1.39072e-08 -3.58687e-08 1.29545e-08)
(1.63049e-08 -4.37951e-08 1.62605e-08)
(1.85324e-08 -5.21245e-08 1.99613e-08)
(2.05939e-08 -6.09277e-08 2.412e-08)
(2.24735e-08 -7.0208e-08 2.87574e-08)
(2.41351e-08 -7.98881e-08 3.38328e-08)
(2.55253e-08 -8.97869e-08 3.92086e-08)
(2.65801e-08 -9.95779e-08 4.4614e-08)
(2.72537e-08 -1.08723e-07 4.96425e-08)
(2.7555e-08 -1.16337e-07 5.38402e-08)
(2.75356e-08 -1.21018e-07 5.68724e-08)
(2.70208e-08 -1.21291e-07 5.86623e-08)