/*--------------------------------*- C++ -*----------------------------------*\
| =========                 |                                                 |
| \\      /  F ield         | OpenFOAM: The Open Source CFD Toolbox           |
|  \\    /   O peration     | Version:  v1912                                 |
|   \\  /    A nd           | Website:  www.openfoam.com                      |
|    \\/     M anipulation  |                                                 |
\*---------------------------------------------------------------------------*/
FoamFile
{
    version     2.0;
    format      ascii;
    class       volScalarField;
    location    "0.41/fluid";
    object      T;
}
// * * * * * * * * * * * * * * * * * * * * * * * * * * * * * * * * * * * * * //

dimensions      [0 0 0 1 0 0 0];


internalField   nonuniform List<scalar> 
14592
(
273.184
273.563
273.969
274.411
274.903
275.456
276.085
276.802
277.624
278.566
279.648
280.89
282.319
283.974
285.929
288.365
273.183
273.559
273.96
274.399
274.887
275.436
276.06
276.772
277.588
278.524
279.599
280.835
282.259
283.913
285.867
288.284
273.18
273.551
273.947
274.38
274.861
275.403
276.017
276.719
277.524
278.447
279.509
280.733
282.149
283.8
285.76
288.198
273.177
273.541
273.93
274.355
274.827
275.357
275.959
276.647
277.434
278.339
279.381
280.585
281.984
283.628
285.598
288.079
273.173
273.529
273.909
274.324
274.784
275.301
275.887
276.555
277.321
278.201
279.214
280.388
281.76
283.384
285.361
287.897
273.169
273.515
273.885
274.288
274.734
275.235
275.802
276.448
277.186
278.033
279.009
280.14
281.466
283.05
285.011
287.605
273.164
273.5
273.858
274.248
274.679
275.162
275.707
276.326
277.032
277.839
278.767
279.84
281.096
282.603
284.493
287.092
273.158
273.484
273.83
274.206
274.621
275.084
275.605
276.195
276.864
277.626
278.496
279.495
280.654
282.029
283.74
286.115
273.19
273.583
274.002
274.461
274.973
275.55
276.208
276.961
277.828
278.827
279.978
281.307
282.844
284.633
286.745
289.305
273.189
273.578
273.994
274.449
274.957
275.529
276.182
276.93
277.791
278.782
279.927
281.25
282.783
284.572
286.686
289.241
273.187
273.57
273.98
274.429
274.93
275.494
276.138
276.875
277.724
278.702
279.834
281.145
282.67
284.458
286.582
289.166
273.183
273.56
273.963
274.403
274.893
275.447
276.077
276.799
277.63
278.589
279.7
280.991
282.5
284.284
286.424
289.06
273.179
273.547
273.941
274.371
274.849
275.388
276.001
276.703
277.511
278.444
279.525
280.785
282.267
284.034
286.189
288.895
273.174
273.533
273.916
274.333
274.797
275.319
275.912
276.59
277.369
278.267
279.308
280.523
281.959
283.687
285.835
288.619
273.169
273.517
273.888
274.292
274.74
275.243
275.813
276.462
277.207
278.063
279.053
280.205
281.567
283.215
285.296
288.11
273.164
273.5
273.858
274.247
274.678
275.161
275.705
276.324
277.03
277.837
278.764
279.837
281.093
282.6
284.49
287.09
273.196
273.6
274.034
274.508
275.038
275.637
276.321
277.107
278.013
279.059
280.267
281.662
283.273
285.134
287.288
289.782
273.195
273.595
274.025
274.496
275.021
275.615
276.294
277.074
277.974
279.013
280.214
281.604
283.211
285.073
287.232
289.725
273.192
273.588
274.011
274.475
274.993
275.579
276.248
277.017
277.905
278.93
280.118
281.495
283.095
284.958
287.13
289.656
273.189
273.577
273.993
274.448
274.955
275.53
276.185
276.938
277.807
278.813
279.98
281.337
282.922
284.782
286.974
289.555
273.185
273.564
273.97
274.414
274.909
275.468
276.106
276.839
277.684
278.662
279.798
281.123
282.681
284.528
286.739
289.395
273.18
273.549
273.944
274.375
274.855
275.397
276.014
276.721
277.535
278.477
279.572
280.851
282.362
284.172
286.381
289.123
273.174
273.532
273.915
274.332
274.796
275.317
275.91
276.587
277.366
278.264
279.304
280.519
281.954
283.683
285.831
288.617
273.169
273.515
273.884
274.286
274.732
275.232
275.798
276.443
277.18
278.027
279.002
280.133
281.459
283.043
285.005
287.601
273.201
273.616
274.061
274.55
275.095
275.713
276.42
277.233
278.172
279.256
280.508
281.949
283.605
285.497
287.642
290.041
273.2
273.611
274.053
274.537
275.078
275.691
276.393
277.2
278.132
279.209
280.454
281.89
283.543
285.436
287.587
289.987
273.197
273.603
274.038
274.516
275.049
275.654
276.345
277.141
278.061
279.124
280.355
281.78
283.425
285.32
287.486
289.92
273.194
273.592
274.019
274.487
275.01
275.603
276.28
277.06
277.96
279.003
280.213
281.617
283.248
285.142
287.33
289.82
273.189
273.579
273.996
274.453
274.963
275.54
276.199
276.957
277.833
278.847
280.025
281.398
283.003
284.885
287.094
289.662
273.184
273.563
273.969
274.413
274.907
275.466
276.103
276.835
277.679
278.657
279.792
281.118
282.676
284.523
286.734
289.392
273.179
273.546
273.939
274.368
274.845
275.383
275.996
276.697
277.504
278.435
279.516
280.775
282.257
284.025
286.181
288.89
273.173
273.528
273.907
274.321
274.779
275.295
275.88
276.547
277.311
278.19
279.202
280.376
281.747
283.372
285.35
287.89
273.206
273.63
274.085
274.585
275.143
275.777
276.503
277.338
278.302
279.415
280.698
282.171
283.851
285.751
287.872
290.191
273.204
273.625
274.076
274.571
275.126
275.754
276.475
277.304
278.261
279.367
280.643
282.111
283.788
285.69
287.817
290.139
273.202
273.616
274.061
274.55
275.096
275.716
276.426
277.243
278.188
279.28
280.543
281.998
283.669
285.574
287.717
290.073
273.198
273.605
274.042
274.521
275.056
275.664
276.359
277.16
278.085
279.157
280.397
281.833
283.49
285.394
287.561
289.974
273.193
273.591
274.018
274.485
275.008
275.599
276.276
277.054
277.954
278.997
280.206
281.61
283.241
285.135
287.324
289.816
273.188
273.576
273.99
274.444
274.951
275.523
276.177
276.929
277.797
278.802
279.967
281.324
282.909
284.769
286.963
289.548
273.183
273.558
273.959
274.398
274.887
275.439
276.067
276.787
277.617
278.575
279.684
280.974
282.483
284.267
286.41
289.05
273.177
273.539
273.927
274.35
274.819
275.348
275.948
276.633
277.419
278.322
279.363
280.566
281.964
283.608
285.581
288.066
273.209
273.64
274.103
274.612
275.181
275.826
276.566
277.418
278.401
279.535
280.839
282.331
284.023
285.922
288.018
290.281
273.208
273.635
274.094
274.598
275.163
275.803
276.538
277.383
278.359
279.486
280.783
282.27
283.96
285.861
287.963
290.23
273.205
273.627
274.079
274.576
275.133
275.764
276.488
277.322
278.285
279.398
280.681
282.156
283.84
285.744
287.863
290.164
273.201
273.615
274.059
274.547
275.092
275.711
276.42
277.237
278.18
279.272
280.534
281.989
283.659
285.564
287.707
290.065
273.197
273.601
274.035
274.511
275.042
275.645
276.335
277.129
278.047
279.109
280.339
281.762
283.408
285.303
287.47
289.908
273.191
273.585
274.007
274.469
274.984
275.568
276.235
277.002
277.887
278.911
280.097
281.473
283.072
284.935
287.109
289.64
273.186
273.567
273.975
274.422
274.92
275.482
276.122
276.857
277.703
278.679
279.809
281.118
282.643
284.431
286.557
289.147
273.179
273.548
273.942
274.372
274.85
275.389
276
276.7
277.501
278.422
279.482
280.704
282.119
283.77
285.732
288.176
273.212
273.648
274.116
274.63
275.206
275.86
276.609
277.472
278.467
279.614
280.931
282.434
284.132
286.028
288.105
290.333
273.21
273.642
274.106
274.617
275.188
275.837
276.58
277.437
278.425
279.565
280.875
282.373
284.069
285.966
288.051
290.282
273.207
273.634
274.091
274.594
275.157
275.797
276.53
277.375
278.35
279.476
280.772
282.258
283.948
285.849
287.951
290.216
273.203
273.622
274.071
274.564
275.117
275.743
276.461
277.288
278.244
279.348
280.623
282.089
283.766
285.668
287.794
290.118
273.199
273.608
274.047
274.528
275.066
275.676
276.375
277.18
278.109
279.184
280.427
281.861
283.513
285.406
287.557
289.96
273.194
273.592
274.018
274.485
275.007
275.598
276.274
277.05
277.947
278.983
280.182
281.569
283.176
285.037
287.196
289.694
273.188
273.573
273.986
274.438
274.942
275.511
276.16
276.904
277.761
278.749
279.891
281.212
282.744
284.532
286.645
289.204
273.181
273.554
273.953
274.388
274.872
275.417
276.036
276.744
277.556
278.489
279.561
280.795
282.218
283.871
285.824
288.24
273.213
273.651
274.122
274.64
275.219
275.877
276.631
277.499
278.5
279.653
280.977
282.484
284.185
286.078
288.146
290.357
273.211
273.646
274.113
274.626
275.201
275.854
276.602
277.464
278.458
279.604
280.921
282.423
284.121
286.016
288.091
290.306
273.208
273.637
274.097
274.603
275.17
275.814
276.551
277.401
278.382
279.514
280.817
282.308
284.001
285.899
287.991
290.24
273.205
273.626
274.077
274.573
275.129
275.76
276.482
277.314
278.276
279.387
280.667
282.139
283.818
285.718
287.835
290.142
273.2
273.611
274.052
274.537
275.078
275.692
276.395
277.205
278.14
279.221
280.47
281.91
283.564
285.455
287.598
289.984
273.195
273.595
274.024
274.494
275.019
275.614
276.293
277.075
277.977
279.019
280.224
281.617
283.226
285.086
287.237
289.719
273.189
273.577
273.992
274.446
274.953
275.525
276.178
276.928
277.79
278.784
279.932
281.258
282.793
284.581
286.687
289.23
273.182
273.557
273.958
274.396
274.882
275.431
276.054
276.767
277.584
278.522
279.6
280.839
282.266
283.919
285.867
288.27
273.149
273.453
273.776
274.121
274.496
274.905
275.352
275.84
276.368
276.934
277.53
278.146
278.763
279.357
279.899
280.357
273.148
273.45
273.77
274.113
274.485
274.891
275.335
275.82
276.344
276.906
277.499
278.11
278.722
279.313
279.852
280.308
273.146
273.445
273.76
274.099
274.467
274.868
275.306
275.784
276.301
276.855
277.439
278.042
278.646
279.229
279.762
280.212
273.143
273.437
273.748
274.081
274.441
274.835
275.265
275.733
276.24
276.783
277.356
277.946
278.538
279.109
279.631
280.073
273.14
273.428
273.732
274.058
274.41
274.795
275.214
275.671
276.165
276.693
277.25
277.824
278.399
278.954
279.462
279.892
273.137
273.418
273.714
274.031
274.374
274.748
275.155
275.597
276.076
276.587
277.125
277.678
278.233
278.768
279.257
279.672
273.133
273.406
273.694
274.002
274.334
274.696
275.089
275.516
275.977
276.468
276.984
277.514
278.045
278.556
279.023
279.419
273.129
273.394
273.673
273.971
274.292
274.641
275.019
275.43
275.871
276.341
276.833
277.337
277.841
278.325
278.767
279.141
273.15
273.456
273.781
274.13
274.509
274.922
275.376
275.872
276.41
276.99
277.603
278.239
278.881
279.503
280.075
280.561
273.149
273.453
273.775
274.121
274.497
274.908
275.358
275.851
276.385
276.961
277.57
278.201
278.838
279.457
280.026
280.51
273.147
273.447
273.765
274.107
274.478
274.884
275.328
275.813
276.341
276.908
277.509
278.132
278.76
279.371
279.933
280.412
273.144
273.44
273.752
274.088
274.452
274.85
275.286
275.762
276.279
276.835
277.423
278.033
278.649
279.247
279.798
280.269
273.141
273.431
273.737
274.065
274.421
274.809
275.234
275.698
276.202
276.743
277.314
277.908
278.506
279.088
279.624
280.082
273.138
273.42
273.718
274.038
274.384
274.762
275.174
275.624
276.111
276.634
277.186
277.758
278.335
278.895
279.412
279.853
273.134
273.408
273.698
274.008
274.344
274.709
275.108
275.541
276.011
276.513
277.042
277.59
278.141
278.676
279.168
279.589
273.13
273.396
273.677
273.977
274.301
274.653
275.037
275.453
275.903
276.382
276.887
277.407
277.929
278.435
278.9
279.296
273.152
273.464
273.794
274.149
274.535
274.959
275.425
275.938
276.497
277.103
277.75
278.427
279.119
279.798
280.432
280.976
273.151
273.46
273.787
274.14
274.523
274.944
275.407
275.915
276.471
277.072
277.714
278.387
279.074
279.75
280.38
280.922
273.149
273.454
273.777
274.125
274.504
274.919
275.375
275.877
276.424
277.017
277.65
278.314
278.992
279.66
280.283
280.82
273.146
273.446
273.764
274.105
274.477
274.884
275.332
275.824
276.36
276.941
277.561
278.211
278.875
279.53
280.142
280.671
273.143
273.437
273.748
274.082
274.445
274.842
275.279
275.758
276.28
276.845
277.448
278.08
278.725
279.362
279.958
280.473
273.14
273.426
273.729
274.054
274.407
274.793
275.217
275.681
276.186
276.732
277.314
277.923
278.544
279.157
279.731
280.228
273.136
273.414
273.708
274.024
274.366
274.739
275.148
275.595
276.081
276.605
277.162
277.744
278.337
278.921
279.467
279.939
273.132
273.402
273.686
273.992
274.322
274.682
275.075
275.504
275.969
276.469
276.999
277.55
278.111
278.66
279.173
279.616
273.155
273.474
273.813
274.178
274.576
275.014
275.499
276.035
276.625
277.27
277.966
278.705
279.472
280.241
280.973
281.614
273.154
273.471
273.806
274.168
274.563
274.999
275.48
276.012
276.597
277.237
277.928
278.663
279.425
280.19
280.919
281.558
273.152
273.465
273.796
274.153
274.543
274.972
275.447
275.971
276.548
277.179
277.861
278.585
279.338
280.095
280.817
281.451
273.15
273.457
273.782
274.133
274.515
274.936
275.402
275.916
276.481
277.099
277.766
278.476
279.214
279.957
280.667
281.293
273.147
273.447
273.765
274.108
274.482
274.893
275.346
275.847
276.397
276.998
277.646
278.336
279.054
279.776
280.469
281.08
273.143
273.436
273.746
274.079
274.443
274.842
275.282
275.766
276.298
276.878
277.504
278.168
278.859
279.554
280.221
280.811
273.139
273.423
273.724
274.048
274.4
274.786
275.21
275.676
276.188
276.744
277.342
277.975
278.633
279.293
279.926
280.486
273.135
273.41
273.702
274.015
274.354
274.726
275.133
275.581
276.069
276.598
277.166
277.764
278.383
279.002
279.592
280.113
273.16
273.489
273.838
274.215
274.628
275.086
275.594
276.16
276.788
277.483
278.242
279.063
279.932
280.825
281.7
282.488
273.159
273.485
273.831
274.205
274.615
275.069
275.574
276.135
276.759
277.448
278.203
279.018
279.882
280.771
281.643
282.431
273.157
273.478
273.82
274.189
274.594
275.041
275.539
276.093
276.708
277.387
278.131
278.936
279.79
280.67
281.536
282.32
273.154
273.47
273.805
274.168
274.565
275.004
275.492
276.034
276.636
277.302
278.03
278.819
279.657
280.523
281.378
282.153
273.151
273.46
273.788
274.142
274.53
274.958
275.433
275.961
276.547
277.194
277.902
278.669
279.484
280.328
281.163
281.925
273.147
273.448
273.768
274.112
274.489
274.905
275.365
275.876
276.442
277.066
277.748
278.486
279.27
280.083
280.889
281.626
273.143
273.436
273.746
274.08
274.444
274.846
275.29
275.781
276.324
276.921
277.573
278.275
279.02
279.79
280.553
281.252
273.138
273.422
273.722
274.045
274.397
274.783
275.209
275.679
276.197
276.765
277.381
278.042
278.74
279.457
280.163
280.807
273.165
273.505
273.867
274.259
274.69
275.169
275.705
276.306
276.98
277.732
278.567
279.485
280.48
281.533
282.606
283.616
273.164
273.501
273.86
274.249
274.676
275.152
275.684
276.28
276.949
277.696
278.525
279.437
280.427
281.477
282.548
283.558
273.162
273.495
273.848
274.232
274.654
275.123
275.647
276.235
276.894
277.631
278.449
279.35
280.33
281.372
282.437
283.445
273.159
273.486
273.833
274.21
274.624
275.083
275.597
276.173
276.819
277.54
278.341
279.225
280.188
281.215
282.271
283.274
273.156
273.476
273.815
274.183
274.587
275.035
275.536
276.096
276.724
277.425
278.203
279.063
280
281.004
282.041
283.033
273.152
273.463
273.794
274.152
274.544
274.979
275.464
276.006
276.612
277.287
278.037
278.864
279.766
280.734
281.737
282.705
273.148
273.45
273.771
274.117
274.497
274.917
275.384
275.905
276.485
277.131
277.846
278.631
279.487
280.403
281.353
282.272
273.143
273.436
273.746
274.081
274.447
274.85
275.298
275.796
276.349
276.961
277.635
278.372
279.169
280.017
280.888
281.726
273.171
273.524
273.9
274.308
274.758
275.262
275.828
276.467
277.19
278.005
278.923
279.949
281.088
282.336
283.668
285.009
273.17
273.52
273.892
274.297
274.744
275.244
275.805
276.44
277.157
277.967
278.878
279.899
281.033
282.278
283.609
284.95
273.168
273.513
273.88
274.279
274.72
275.213
275.767
276.392
277.099
277.898
278.797
279.806
280.931
282.168
283.497
284.84
273.165
273.504
273.864
274.256
274.689
275.172
275.714
276.327
277.019
277.801
278.683
279.673
280.78
282.004
283.326
284.674
273.161
273.493
273.845
274.228
274.65
275.121
275.649
276.245
276.918
277.678
278.535
279.499
280.579
281.779
283.086
284.432
273.157
273.48
273.823
274.195
274.605
275.061
275.573
276.149
276.798
277.53
278.355
279.283
280.323
281.483
282.757
284.085
273.153
273.466
273.799
274.159
274.555
274.995
275.488
276.041
276.663
277.362
278.147
279.027
280.012
281.11
282.319
283.591
273.148
273.451
273.773
274.121
274.502
274.925
275.397
275.925
276.516
277.177
277.916
278.739
279.653
280.662
281.762
282.911
273.178
273.543
273.934
274.359
274.83
275.359
275.956
276.635
277.408
278.288
279.29
280.428
281.718
283.177
284.823
286.648
273.176
273.539
273.926
274.348
274.815
275.34
275.933
276.606
277.374
278.248
279.243
280.375
281.66
283.118
284.763
286.583
273.174
273.532
273.914
274.33
274.791
275.308
275.892
276.556
277.313
278.175
279.158
280.278
281.553
283.005
284.652
286.482
273.171
273.522
273.897
274.305
274.757
275.264
275.837
276.487
277.228
278.072
279.036
280.137
281.395
282.836
284.483
286.333
273.167
273.511
273.877
274.276
274.717
275.21
275.768
276.4
277.12
277.941
278.878
279.951
281.181
282.6
284.24
286.111
273.163
273.498
273.854
274.241
274.669
275.148
275.687
276.298
276.993
277.783
278.685
279.717
280.905
282.282
283.895
285.772
273.158
273.483
273.828
274.203
274.617
275.078
275.597
276.183
276.848
277.602
278.46
279.439
280.563
281.869
283.409
285.24
273.153
273.467
273.801
274.163
274.561
275.004
275.501
276.059
276.69
277.403
278.208
279.121
280.161
281.355
282.749
284.398
273.153
273.467
273.801
274.162
274.56
275.003
275.499
276.058
276.688
277.401
278.206
279.119
280.158
281.353
282.747
284.397
273.148
273.451
273.772
274.12
274.501
274.923
275.395
275.922
276.513
277.174
277.912
278.735
279.649
280.658
281.758
282.908
273.143
273.435
273.745
274.079
274.445
274.848
275.295
275.792
276.345
276.957
277.63
278.367
279.164
280.012
280.883
281.722
273.138
273.421
273.721
274.043
274.394
274.78
275.206
275.675
276.193
276.76
277.375
278.036
278.734
279.451
280.157
280.802
273.134
273.41
273.701
274.013
274.352
274.723
275.13
275.576
276.064
276.593
277.159
277.758
278.376
278.995
279.586
280.108
273.132
273.401
273.685
273.99
274.319
274.679
275.071
275.499
275.964
276.463
276.992
277.544
278.104
278.653
279.167
279.61
273.13
273.395
273.675
273.975
274.298
274.65
275.033
275.448
275.897
276.376
276.88
277.4
277.922
278.428
278.893
279.29
273.129
273.393
273.671
273.968
274.289
274.637
275.015
275.425
275.865
276.334
276.826
277.33
277.834
278.318
278.76
279.135
273.158
273.482
273.827
274.202
274.615
275.076
275.594
276.18
276.844
277.597
278.455
279.434
280.558
281.864
283.404
285.236
273.152
273.465
273.798
274.157
274.553
274.992
275.484
276.036
276.657
277.356
278.14
279.02
280.005
281.104
282.312
283.586
273.147
273.449
273.769
274.115
274.494
274.913
275.379
275.899
276.479
277.124
277.838
278.624
279.479
280.395
281.345
282.265
273.143
273.435
273.744
274.077
274.441
274.842
275.285
275.775
276.318
276.914
277.565
278.266
279.011
279.782
280.545
281.245
273.139
273.422
273.723
274.045
274.396
274.781
275.205
275.67
276.18
276.735
277.333
277.966
278.623
279.284
279.918
280.478
273.136
273.413
273.706
274.021
274.362
274.735
275.143
275.589
276.074
276.597
277.153
277.735
278.328
278.912
279.458
279.931
273.134
273.407
273.696
274.005
274.34
274.705
275.102
275.535
276.003
276.504
277.033
277.58
278.131
278.666
279.159
279.581
273.133
273.405
273.692
273.999
274.33
274.691
275.083
275.509
275.969
276.459
276.975
277.505
278.035
278.546
279.014
279.411
273.163
273.497
273.852
274.239
274.666
275.144
275.682
276.292
276.985
277.775
278.677
279.708
280.896
282.273
283.887
285.765
273.157
273.479
273.821
274.193
274.601
275.056
275.567
276.142
276.79
277.521
278.345
279.272
280.312
281.473
282.747
284.076
273.151
273.462
273.792
274.149
274.54
274.974
275.457
275.998
276.603
277.277
278.026
278.852
279.754
280.722
281.726
282.695
273.147
273.447
273.766
274.109
274.485
274.899
275.358
275.868
276.433
277.055
277.737
278.474
279.258
280.071
280.877
281.615
273.142
273.434
273.743
274.076
274.438
274.836
275.274
275.758
276.288
276.867
277.492
278.155
278.846
279.541
280.209
280.8
273.139
273.425
273.726
274.05
274.402
274.787
275.209
275.672
276.176
276.721
277.302
277.91
278.531
279.144
279.719
280.217
273.137
273.419
273.716
274.034
274.379
274.756
275.167
275.615
276.101
276.623
277.174
277.746
278.322
278.883
279.4
279.843
273.136
273.416
273.711
274.027
274.369
274.741
275.147
275.588
276.065
276.575
277.112
277.665
278.22
278.755
279.245
279.661
273.167
273.509
273.875
274.272
274.711
275.204
275.76
276.39
277.109
277.929
278.865
279.936
281.167
282.586
284.227
286.1
273.161
273.491
273.842
274.224
274.644
275.113
275.64
276.234
276.906
277.664
278.52
279.483
280.563
281.763
283.071
284.418
273.155
273.474
273.812
274.178
274.581
275.027
275.526
276.085
276.711
277.41
278.188
279.046
279.983
280.987
282.025
283.019
273.15
273.458
273.785
274.137
274.523
274.95
275.423
275.95
276.534
277.179
277.886
278.652
279.466
280.311
281.146
281.909
273.146
273.445
273.762
274.103
274.475
274.884
275.336
275.835
276.383
276.983
277.63
278.319
279.036
279.759
280.452
281.065
273.143
273.435
273.744
274.077
274.438
274.834
275.269
275.746
276.267
276.83
277.432
278.063
278.708
279.344
279.941
280.458
273.141
273.429
273.733
274.06
274.414
274.801
275.224
275.687
276.188
276.727
277.298
277.891
278.489
279.071
279.608
280.068
273.14
273.426
273.729
274.053
274.404
274.786
275.204
275.659
276.151
276.678
277.233
277.807
278.382
278.937
279.446
279.878
273.17
273.52
273.893
274.3
274.75
275.254
275.824
276.472
277.211
278.054
279.016
280.116
281.373
282.814
284.463
286.315
273.164
273.501
273.86
274.25
274.681
275.161
275.701
276.311
277.001
277.782
278.662
279.651
280.757
281.981
283.305
284.654
273.158
273.484
273.829
274.203
274.615
275.073
275.584
276.158
276.801
277.52
278.32
279.202
280.164
281.192
282.248
283.254
273.153
273.468
273.801
274.161
274.556
274.993
275.478
276.018
276.618
277.281
278.009
278.796
279.634
280.5
281.355
282.133
273.149
273.454
273.777
274.126
274.507
274.925
275.388
275.9
276.463
277.079
277.745
278.453
279.191
279.934
280.645
281.273
273.146
273.444
273.759
274.099
274.468
274.873
275.319
275.808
276.342
276.921
277.54
278.189
278.852
279.507
280.121
280.652
273.143
273.437
273.748
274.082
274.444
274.839
275.273
275.747
276.262
276.815
277.402
278.011
278.626
279.225
279.778
280.25
273.142
273.435
273.743
274.074
274.433
274.824
275.252
275.718
276.223
276.764
277.335
277.924
278.516
279.087
279.611
280.055
273.173
273.529
273.908
274.321
274.779
275.293
275.874
276.535
277.289
278.148
279.129
280.248
281.522
282.974
284.621
286.454
273.167
273.509
273.874
274.271
274.709
275.198
275.749
276.371
277.075
277.871
278.768
279.776
280.899
282.136
283.466
284.811
273.161
273.491
273.842
274.223
274.642
275.108
275.629
276.214
276.87
277.603
278.419
279.319
280.298
281.34
282.406
283.416
273.156
273.475
273.814
274.18
274.582
275.026
275.521
276.071
276.683
277.36
278.102
278.905
279.759
280.639
281.507
282.292
273.151
273.461
273.79
274.144
274.531
274.957
275.429
275.95
276.525
277.153
277.832
278.555
279.308
280.065
280.788
281.425
273.148
273.451
273.771
274.116
274.492
274.904
275.358
275.856
276.401
276.991
277.623
278.285
278.962
279.631
280.256
280.796
273.146
273.444
273.76
274.099
274.467
274.869
275.311
275.793
276.318
276.883
277.482
278.103
278.732
279.343
279.907
280.388
273.145
273.441
273.755
274.091
274.456
274.854
275.289
275.764
276.279
276.831
277.413
278.015
278.619
279.202
279.736
280.19
273.175
273.534
273.918
274.336
274.799
275.32
275.908
276.578
277.341
278.212
279.204
280.334
281.618
283.074
284.718
286.537
273.169
273.515
273.884
274.285
274.728
275.223
275.781
276.411
277.125
277.931
278.839
279.858
280.991
282.235
283.566
284.908
273.163
273.496
273.852
274.237
274.66
275.132
275.66
276.252
276.917
277.66
278.486
279.397
280.385
281.436
282.507
283.519
273.157
273.48
273.823
274.193
274.599
275.049
275.55
276.107
276.727
277.413
278.165
278.978
279.841
280.731
281.605
282.395
273.153
273.466
273.798
274.156
274.548
274.979
275.456
275.984
276.566
277.203
277.892
278.624
279.386
280.151
280.882
281.525
273.149
273.455
273.779
274.128
274.508
274.925
275.384
275.889
276.441
277.039
277.679
278.35
279.036
279.713
280.346
280.892
273.147
273.449
273.768
274.11
274.483
274.89
275.337
275.825
276.357
276.929
277.536
278.166
278.803
279.422
279.993
280.481
273.146
273.446
273.763
274.103
274.471
274.874
275.315
275.795
276.317
276.876
277.466
278.076
278.688
279.279
279.821
280.281
273.176
273.537
273.923
274.343
274.81
275.333
275.926
276.6
277.368
278.244
279.242
280.377
281.665
283.123
284.765
286.577
273.17
273.518
273.889
274.292
274.738
275.236
275.797
276.432
277.15
277.961
278.875
279.898
281.036
282.283
283.615
284.954
273.164
273.499
273.856
274.243
274.67
275.144
275.675
276.271
276.94
277.688
278.52
279.435
280.429
281.483
282.557
283.569
273.158
273.483
273.827
274.2
274.608
275.061
275.564
276.126
276.75
277.44
278.196
279.015
279.882
280.776
281.653
282.445
273.154
273.469
273.802
274.163
274.556
274.99
275.471
276.002
276.588
277.228
277.921
278.659
279.425
280.195
280.929
281.574
273.15
273.458
273.784
274.134
274.517
274.936
275.398
275.906
276.461
277.063
277.707
278.383
279.074
279.754
280.39
280.939
273.148
273.451
273.772
274.116
274.491
274.9
275.35
275.842
276.377
276.953
277.563
278.198
278.838
279.462
280.036
280.527
273.147
273.448
273.767
274.109
274.479
274.884
275.328
275.811
276.336
276.899
277.493
278.107
278.723
279.318
279.864
280.326
273.125
273.381
273.651
273.939
274.249
274.584
274.948
275.341
275.762
276.21
276.677
277.154
277.629
278.084
278.498
278.849
273.121
273.369
273.63
273.908
274.207
274.529
274.878
275.253
275.655
276.08
276.522
276.971
277.417
277.842
278.229
278.555
273.117
273.358
273.61
273.879
274.167
274.477
274.812
275.171
275.554
275.957
276.374
276.798
277.215
277.612
277.971
278.274
273.114
273.347
273.592
273.853
274.131
274.43
274.752
275.097
275.462
275.846
276.241
276.64
277.032
277.403
277.738
278.019
273.111
273.339
273.577
273.831
274.101
274.391
274.702
275.034
275.385
275.751
276.128
276.506
276.876
277.225
277.538
277.801
273.109
273.332
273.566
273.814
274.078
274.361
274.663
274.985
275.324
275.678
276.039
276.402
276.755
277.086
277.382
277.63
273.108
273.328
273.559
273.803
274.063
274.341
274.637
274.952
275.284
275.628
275.98
276.331
276.672
276.991
277.276
277.514
273.107
273.326
273.555
273.798
274.056
274.332
274.625
274.937
275.264
275.604
275.95
276.296
276.63
276.943
277.222
277.455
273.126
273.383
273.655
273.945
274.257
274.596
274.964
275.363
275.792
276.248
276.726
277.218
277.709
278.183
278.617
278.987
273.122
273.371
273.633
273.913
274.215
274.54
274.893
275.274
275.682
276.115
276.567
277.029
277.489
277.93
278.333
278.675
273.118
273.359
273.613
273.884
274.174
274.488
274.826
275.19
275.578
275.989
276.415
276.849
277.279
277.689
278.062
278.377
273.115
273.349
273.595
273.857
274.138
274.44
274.765
275.114
275.485
275.875
276.278
276.686
277.088
277.47
277.816
278.107
273.112
273.34
273.58
273.835
274.108
274.4
274.714
275.05
275.406
275.778
276.161
276.547
276.926
277.284
277.606
277.877
273.11
273.334
273.569
273.818
274.084
274.37
274.675
275
275.344
275.703
276.07
276.439
276.799
277.138
277.442
277.697
273.108
273.329
273.561
273.807
274.069
274.35
274.649
274.968
275.303
275.652
276.009
276.366
276.714
277.039
277.331
277.575
273.108
273.328
273.559
273.803
274.063
274.341
274.637
274.952
275.284
275.628
275.98
276.331
276.671
276.991
277.275
277.514
273.128
273.389
273.664
273.959
274.277
274.623
275
275.41
275.854
276.328
276.829
277.348
277.873
278.386
278.861
279.271
273.124
273.376
273.642
273.927
274.233
274.566
274.927
275.318
275.739
276.188
276.66
277.147
277.635
278.109
278.547
278.921
273.12
273.364
273.622
273.896
274.192
274.511
274.857
275.231
275.631
276.056
276.499
276.954
277.408
277.845
278.246
278.588
273.116
273.354
273.603
273.869
274.155
274.462
274.795
275.152
275.533
275.936
276.354
276.78
277.202
277.606
277.974
278.286
273.113
273.345
273.588
273.846
274.123
274.421
274.742
275.085
275.451
275.834
276.231
276.632
277.027
277.403
277.743
278.031
273.111
273.338
273.576
273.829
274.1
274.39
274.701
275.034
275.386
275.755
276.135
276.517
276.891
277.245
277.564
277.832
273.11
273.334
273.569
273.818
274.084
274.37
274.675
275
275.344
275.702
276.07
276.439
276.799
277.138
277.442
277.697
273.109
273.332
273.566
273.814
274.078
274.361
274.663
274.985
275.324
275.677
276.039
276.401
276.754
277.085
277.382
277.63
273.13
273.397
273.679
273.981
274.308
274.665
275.055
275.482
275.946
276.448
276.982
277.544
278.119
278.692
279.234
279.708
273.126
273.384
273.656
273.947
274.262
274.604
274.978
275.385
275.825
276.298
276.8
277.322
277.854
278.378
278.87
279.297
273.122
273.372
273.635
273.916
274.219
274.548
274.905
275.292
275.71
276.156
276.625
277.111
277.601
278.079
278.523
278.905
273.119
273.361
273.616
273.888
274.18
274.497
274.839
275.209
275.606
276.027
276.468
276.92
277.372
277.809
278.21
278.553
273.116
273.352
273.6
273.864
274.148
274.454
274.784
275.139
275.518
275.918
276.334
276.758
277.178
277.58
277.947
278.258
273.113
273.345
273.588
273.846
274.123
274.421
274.742
275.085
275.45
275.834
276.23
276.632
277.027
277.403
277.743
278.03
273.112
273.34
273.58
273.835
274.107
274.4
274.714
275.049
275.405
275.777
276.16
276.547
276.925
277.283
277.605
277.876
273.111
273.339
273.577
273.83
274.101
274.391
274.701
275.033
275.384
275.75
276.127
276.506
276.876
277.224
277.537
277.8
273.134
273.408
273.698
274.009
274.348
274.718
275.126
275.575
276.066
276.602
277.18
277.796
278.441
279.097
279.736
280.311
273.13
273.395
273.674
273.974
274.3
274.655
275.044
275.471
275.936
276.439
276.979
277.55
278.14
278.732
279.301
279.805
273.125
273.382
273.652
273.942
274.255
274.595
274.967
275.372
275.812
276.285
276.788
277.314
277.851
278.384
278.887
279.326
273.122
273.37
273.632
273.912
274.214
274.542
274.898
275.284
275.7
276.145
276.614
277.1
277.591
278.071
278.518
278.903
273.119
273.361
273.616
273.887
274.18
274.496
274.839
275.209
275.606
276.027
276.467
276.919
277.371
277.808
278.209
278.553
273.116
273.353
273.603
273.869
274.154
274.462
274.794
275.151
275.532
275.935
276.353
276.779
277.201
277.605
277.973
278.285
273.115
273.349
273.595
273.857
274.137
274.439
274.764
275.113
275.484
275.873
276.276
276.685
277.087
277.469
277.814