/*--------------------------------*- C++ -*----------------------------------*\
| =========                 |                                                 |
| \\      /  F ield         | OpenFOAM: The Open Source CFD Toolbox           |
|  \\    /   O peration     | Version:  v1912                                 |
|   \\  /    A nd           | Website:  www.openfoam.com                      |
|    \\/     M anipulation  |                                                 |
\*---------------------------------------------------------------------------*/
FoamFile
{
    version     2.0;
    format      ascii;
    class       volScalarField;
    location    "0.19/fluid";
    object      p;
}
// * * * * * * * * * * * * * * * * * * * * * * * * * * * * * * * * * * * * * //

dimensions      [0 2 -2 0 0 0 0];


internalField   nonuniform List<scalar> 
14592
(
0.0801295
0.0747602
0.0728512
0.0711623
0.0699281
0.0688388
0.0678399
0.0669322
0.0660612
0.0653441
0.0645651
0.0642139
0.063461
0.0639853
0.0631222
0.06647
0.0758095
0.0741443
0.0725114
0.0711179
0.0699355
0.068875
0.0678869
0.0669911
0.0661336
0.0654399
0.0646872
0.0643937
0.0636958
0.064403
0.0636091
0.0679235
0.0739513
0.0732532
0.0719645
0.0708568
0.0697664
0.0687654
0.0678023
0.0669203
0.0660688
0.0653824
0.0646369
0.0643718
0.0637055
0.0645261
0.0638094
0.0684888
0.0726341
0.0723828
0.0714322
0.0705518
0.0695693
0.0686323
0.0676978
0.0668289
0.0659812
0.0652989
0.0645605
0.0643256
0.063704
0.0646453
0.0640532
0.0689728
0.071843
0.071726
0.0709641
0.0702203
0.0693183
0.0684295
0.0675132
0.0666425
0.0657757
0.0650592
0.0642712
0.063977
0.0632799
0.0641848
0.0635426
0.0686575
0.0712719
0.0712121
0.0705805
0.0699294
0.0690879
0.0682325
0.067326
0.0664481
0.0655626
0.0648198
0.0640097
0.0637083
0.0630377
0.0640672
0.0636032
0.0691643
0.0708992
0.0708595
0.0702915
0.0696849
0.0688709
0.0680235
0.0671039
0.0661907
0.0652457
0.0644061
0.0634587
0.0629429
0.061971
0.0625928
0.0614907
0.0669561
0.0706729
0.0706423
0.0701005
0.0695099
0.0687003
0.0678443
0.0669026
0.065953
0.0649618
0.0640599
0.0630572
0.0624798
0.0615098
0.062294
0.0614971
0.0691968
0.0799748
0.0746072
0.0727379
0.0710937
0.0699197
0.0688987
0.0679786
0.0671606
0.0663899
0.0657837
0.0651206
0.064861
0.0641972
0.0645209
0.063603
0.065025
0.0756553
0.0739901
0.072398
0.0710501
0.0699287
0.0689373
0.0680288
0.0672237
0.0664672
0.0658852
0.0652473
0.0650407
0.0644188
0.0648705
0.0639565
0.0658076
0.0737947
0.0730957
0.0718478
0.0707855
0.0697561
0.0688239
0.0679398
0.0671475
0.0663953
0.0658187
0.0651837
0.0650007
0.0643967
0.0649389
0.064062
0.0661322
0.0724754
0.0722231
0.0713129
0.0704775
0.0695554
0.0686866
0.06783
0.0670499
0.0663002
0.0657271
0.0650974
0.0649462
0.0643824
0.0650445
0.06427
0.0665304
0.0716809
0.071563
0.0708406
0.070141
0.069298
0.0684756
0.0676346
0.0668493
0.0660753
0.0654621
0.0647727
0.0645539
0.0638931
0.0645129
0.0636418
0.0660997
0.0711061
0.0710456
0.0704528
0.0698449
0.0690609
0.0682699
0.0674362
0.0666408
0.0658448
0.0652037
0.0644898
0.0642714
0.0636394
0.0644209
0.0637273
0.066683
0.0707288
0.0706886
0.0701585
0.0695938
0.0688353
0.0680491
0.067198
0.0663611
0.0654964
0.0647467
0.0638759
0.063424
0.0624454
0.06281
0.0613565
0.0642885
0.0704976
0.0704667
0.069962
0.069412
0.0686559
0.0678585
0.0669816
0.0661039
0.0651883
0.064373
0.0634447
0.0629444
0.0619817
0.0626105
0.0615064
0.0669723
0.0798682
0.0745013
0.0726627
0.071055
0.0699328
0.0689738
0.0681307
0.0674084
0.0667609
0.0663162
0.0658799
0.0659141
0.0657229
0.0665316
0.066639
0.0682359
0.0755493
0.0738833
0.072323
0.0710123
0.0699435
0.0690151
0.0681848
0.0674771
0.0668464
0.0664295
0.0660238
0.0661176
0.0659781
0.0669159
0.0670651
0.0690008
0.0736863
0.0729859
0.0717695
0.0707444
0.0697675
0.0688982
0.0680918
0.0673964
0.0667691
0.0663571
0.0659528
0.0660709
0.0659477
0.0669793
0.067174
0.0693211
0.0723649
0.0721112
0.0712321
0.0704334
0.0695634
0.0687568
0.0679771
0.0672928
0.0666665
0.0662575
0.0658567
0.0660093
0.065925
0.067086
0.0673816
0.0697185
0.071567
0.0714477
0.0707557
0.070092
0.0692998
0.0685377
0.067771
0.0670779
0.0664217
0.0659657
0.0654929
0.0655667
0.0653594
0.0664659
0.0666113
0.0691376
0.0709886
0.0709268
0.0703637
0.0697908
0.069056
0.0683234
0.067561
0.0668541
0.0661705
0.065681
0.0651739
0.0652432
0.0650453
0.0663178
0.0665908
0.0696186
0.0706068
0.0705655
0.0700642
0.0695333
0.0688218
0.068091
0.0673063
0.0665508
0.0657869
0.0651723
0.0644789
0.0642777
0.0636548
0.0644433
0.0637442
0.0666952
0.0703709
0.0703391
0.0698624
0.0693449
0.0686339
0.0678887
0.0670739
0.0662715
0.0654475
0.0647557
0.0639854
0.0637174
0.063066
0.0641116
0.0636423
0.0692037
0.0797966
0.0744296
0.0726144
0.0710351
0.0699536
0.069043
0.0682576
0.0676008
0.0670273
0.0666573
0.0663011
0.0663786
0.0662413
0.0669406
0.0670364
0.0682685
0.0754781
0.073811
0.0722749
0.0709931
0.0699657
0.0690863
0.0683145
0.0676731
0.0671171
0.0667755
0.0664491
0.0665826
0.0664899
0.0672948
0.067411
0.0688876
0.0736129
0.0729108
0.0717185
0.0707223
0.0697867
0.0689663
0.0682178
0.067588
0.0670341
0.0666957
0.066367
0.0665204
0.0664336
0.0673176
0.0674567
0.0691121
0.0722896
0.0720341
0.0711787
0.0704086
0.0695795
0.0688212
0.0680987
0.0674793
0.0669252
0.0665892
0.0662621
0.0664502
0.0663972
0.0674082
0.0676326
0.0694659
0.0714886
0.0713675
0.0706986
0.0700627
0.0693103
0.0685952
0.0678838
0.0672531
0.0666654
0.0662786
0.0658725
0.0659772
0.0657875
0.0667399
0.0667862
0.0688066
0.0709067
0.0708434
0.0703028
0.0697569
0.0690608
0.0683736
0.0676644
0.0670178
0.0663999
0.0659783
0.0655354
0.0656398
0.0654569
0.0665904
0.0667519
0.0692832
0.0705208
0.0704782
0.0699986
0.0694937
0.0688193
0.0681316
0.0673969
0.0666972
0.0659929
0.0654392
0.0647981
0.0646242
0.0639921
0.0646397
0.0637683
0.0662204
0.0702806
0.0702477
0.069792
0.0692996
0.0686239
0.0679197
0.0671519
0.0664021
0.0656337
0.0650005
0.0642794
0.0640454
0.0633863
0.0643289
0.063686
0.0688079
0.0797503
0.0743831
0.0725856
0.0710285
0.0699796
0.0691088
0.0683731
0.0677759
0.0672766
0.0669937
0.0667527
0.0669496
0.0669916
0.067798
0.0681292
0.0692533
0.0754322
0.073764
0.0722463
0.0709872
0.0699931
0.0691542
0.0684329
0.0678523
0.0673721
0.0671198
0.0669116
0.0671675
0.0672583
0.0681673
0.0685238
0.0698512
0.0735652
0.0728615
0.0716875
0.0707139
0.0698116
0.0690315
0.0683333
0.0677639
0.0672851
0.0670356
0.0668236
0.0670983
0.0671909
0.0681737
0.0685446
0.0700359
0.0722401
0.071983
0.0711457
0.0703979
0.0696016
0.0688834
0.0682105
0.0676508
0.0671709
0.0669232
0.0667111
0.0670207
0.0671438
0.0682535
0.0687009
0.0703655
0.0714364
0.0713138
0.0706624
0.0700481
0.0693278
0.0686515
0.0679879
0.0674147
0.0668978
0.0665955
0.0662976
0.0665183
0.0664912
0.0675361
0.0677815
0.06963
0.0708516
0.0707869
0.0702633
0.0697384
0.0690732
0.0684235
0.0677603
0.0671688
0.0666183
0.0662779
0.0659372
0.0661548
0.0661233
0.0673496
0.0676866
0.0700474
0.0704622
0.0704183
0.0699551
0.0694704
0.0688254
0.0681731
0.0674814
0.0668327
0.0661892
0.0657087
0.0651556
0.0650806
0.0645685
0.0652896
0.0645246
0.0667892
0.0702182
0.0701843
0.0697444
0.0692713
0.0686237
0.0679528
0.0672251
0.0665226
0.0658096
0.0652431
0.0645996
0.0644564
0.0638966
0.0649112
0.0643316
0.069287
0.0797218
0.0743542
0.0725694
0.0710283
0.0700028
0.0691605
0.0684591
0.0679004
0.0674448
0.0672038
0.0670078
0.0672248
0.0672932
0.0680496
0.0683702
0.0693942
0.0754041
0.0737348
0.0722303
0.0709876
0.0700173
0.0692073
0.0685208
0.0679793
0.0675434
0.0673334
0.0671703
0.0674449
0.0675594
0.06841
0.0687491
0.069951
0.0735355
0.0728305
0.0716697
0.0707123
0.0698339
0.0690825
0.0684188
0.0678882
0.067453
0.0672449
0.067076
0.067367
0.067478
0.0683956
0.0687384
0.0700945
0.0722091
0.0719506
0.0711262
0.0703944
0.0696219
0.068932
0.0682933
0.067772
0.0673349
0.0671281
0.0669578
0.0672836
0.0674216
0.0684644
0.0688754
0.0704017
0.0714032
0.0712793
0.0706404
0.0700417
0.0693444
0.0686957
0.0680651
0.0675288
0.0670527
0.0667894
0.0665296
0.0667644
0.0667455
0.0677216
0.0679174
0.0696263
0.0708161
0.0707502
0.0702387
0.0697289
0.069086
0.0684629
0.0678314
0.0672755
0.066764
0.0664616
0.0661568
0.0663899
0.0663634
0.0675255
0.0678037
0.0700269
0.0704239
0.070379
0.0699274
0.0694572
0.0688335
0.0682064
0.0675444
0.066929
0.066321
0.0658751
0.0653522
0.0652898
0.0647721
0.065428
0.0645772
0.0666944
0.070177
0.0701422
0.0697135
0.0692543
0.0686268
0.0679799
0.0672802
0.0666087
0.0659287
0.0653951
0.0647791
0.0646505
0.064083
0.0650441
0.0643716
0.0691947
0.0797058
0.0743379
0.0725614
0.0710307
0.0700208
0.0691976
0.0685197
0.0679884
0.0675655
0.0673594
0.0672069
0.0674605
0.0675815
0.0683537
0.0687201
0.069699
0.0753882
0.0737182
0.0722224
0.0709904
0.0700361
0.0692455
0.068583
0.0680694
0.067667
0.0674928
0.0673744
0.0676868
0.0678554
0.0687206
0.0691062
0.0702501
0.0735187
0.0728127
0.0716604
0.0707138
0.0698513
0.0691193
0.0684795
0.0679766
0.0675746
0.067402
0.0672771
0.0676052
0.0677681
0.0686978
0.0690826
0.0703756
0.0721913
0.0719319
0.0711158
0.0703947
0.0696379
0.0689673
0.0683521
0.0678582
0.0674538
0.0672823
0.0671551
0.0675178
0.0677058
0.06876
0.0692084
0.0706699
0.0713839
0.0712591
0.0706283
0.0700399
0.0693579
0.0687279
0.06812
0.0676102
0.0671652
0.0669358
0.0667163
0.0669862
0.067012
0.0679971
0.0682212
0.0698644
0.0707952
0.0707285
0.0702248
0.069725
0.0690969
0.0684918
0.0678822
0.0673516
0.0668698
0.0665999
0.0663329
0.0666
0.0666134
0.0677841
0.0680812
0.0702394
0.0704011
0.0703554
0.0699114
0.0694507
0.0688411
0.068231
0.0675895
0.0669976
0.0664168
0.0660004
0.0655101
0.0654774
0.0649894
0.0656483
0.064794
0.066838
0.0701522
0.0701167
0.0696952
0.0692451
0.0686311
0.0680002
0.0673196
0.0666701
0.0660148
0.0655082
0.0649208
0.0648193
0.0642743
0.0652382
0.0645484
0.0693061
0.0796983
0.0743309
0.0725577
0.0710325
0.07003
0.0692159
0.068549
0.0680298
0.0676204
0.0674264
0.0672869
0.0675446
0.0676716
0.0684281
0.0687899
0.0697477
0.0753813
0.0737107
0.072219
0.0709923
0.0700455
0.0692642
0.0686127
0.0681113
0.0677225
0.0675603
0.0674545
0.0677701
0.0679432
0.0687901
0.069169
0.0702869
0.0735109
0.0728045
0.0716564
0.0707149
0.0698601
0.0691373
0.0685085
0.0680176
0.0676288
0.067468
0.067355
0.0676856
0.0678514
0.0687607
0.0691358
0.0704009
0.0721833
0.0719232
0.0711113
0.0703951
0.069646
0.0689844
0.0683801
0.067898
0.0675067
0.0673468
0.0672312
0.0675963
0.0677861
0.0688192
0.0692555
0.0706881
0.071375
0.0712496
0.0706229
0.0700394
0.0693648
0.0687435
0.0681462
0.0676479
0.0672155
0.0669972
0.0667885
0.0670605
0.0670868
0.0680508
0.0682596
0.0698731
0.0707855
0.0707183
0.0702185
0.0697234
0.0691025
0.0685058
0.0679064
0.0673869
0.0669171
0.0666581
0.0664013
0.0666708
0.0666837
0.0678339
0.0681122
0.0702401
0.0703904
0.0703443
0.069904
0.0694478
0.0688451
0.0682431
0.0676112
0.0670297
0.06646
0.0660538
0.0655724
0.065542
0.0650515
0.0656904
0.0648115
0.0668219
0.0701405
0.0701047
0.0696868
0.069241
0.0686334
0.0680102
0.0673386
0.0666988
0.0660539
0.0655569
0.0649775
0.0648786
0.06433
0.0652751
0.0645564
0.0692796
0.0900951
0.0796747
0.0760435
0.0729641
0.070874
0.0690744
0.0674587
0.0659212
0.0643892
0.0628289
0.0611644
0.059415
0.0574094
0.0553266
0.0527902
0.0503164
0.0857505
0.0788055
0.0755939
0.0728397
0.07083
0.069071
0.0674709
0.0659439
0.0644199
0.0628679
0.0612118
0.0594733
0.0574769
0.055407
0.0528751
0.0504071
0.0838617
0.0778228
0.0749804
0.0725263
0.070637
0.0689554
0.0673938
0.06589
0.0643797
0.0628375
0.06119
0.0594612
0.0574771
0.0554217
0.0529071
0.0504542
0.0825248
0.0769283
0.0744213
0.0721991
0.0704314
0.0688248
0.0673023
0.0658206
0.064322
0.0627865
0.0611446
0.0594216
0.057448
0.0554044
0.0529106
0.0504755
0.081724
0.0762676
0.0739497
0.0718709
0.0701969
0.0686529
0.0671661
0.0657045
0.0642155
0.0626833
0.0610434
0.0593213
0.0573567
0.0553226
0.0528579
0.050448
0.081158
0.0757626
0.0735743
0.0715928
0.0699894
0.0684919
0.0670313
0.0655828
0.0640983
0.0625654
0.0609251
0.0592021
0.0572487
0.0552256
0.0527995
0.0504197
0.0807989
0.0754254
0.0733035
0.0713734
0.0698104
0.068339
0.0668915
0.0654466
0.0639591
0.0624183
0.0607712
0.0590394
0.0570916
0.0550721
0.0526876
0.05034
0.0805931
0.075228
0.0731353
0.0712272
0.0696802
0.0682167
0.0667695
0.065319
0.0638225
0.0622702
0.0606154
0.0588758
0.056939
0.054929
0.0525963
0.0502859
0.0857304
0.0787788
0.0755603
0.0728006
0.0707869
0.0690259
0.06742
0.0658819
0.0643437
0.0627766
0.0610983
0.0593412
0.0573097
0.0552235
0.0526393
0.0501827
0.0813846
0.0781179
0.0751696
0.0727084
0.0707591
0.0690322
0.0674371
0.065905
0.0643709
0.0628084
0.0611347
0.0593845
0.0573582
0.0552811
0.0526992
0.0502493
0.0795044
0.0771873
0.0745887
0.0724196
0.0705783
0.0689225
0.0673623
0.065851
0.0643291
0.0627753
0.0611095
0.0593682
0.0573538
0.0552905
0.0527258
0.0502911
0.0781713
0.0762961
0.0740399
0.0721023
0.0703791
0.0687964
0.0672741
0.0657842
0.0642738
0.0627269
0.0610671
0.059332
0.0573291
0.0552783
0.0527354
0.0503183
0.0773761
0.0756345
0.0735725
0.0717783
0.0701471
0.0686261
0.0671395
0.0656698
0.0641693
0.0626261
0.0609691
0.0592356
0.0572428
0.0552017
0.0526895
0.0502969
0.0768112
0.0751263
0.0731984
0.0715025
0.0699418
0.0684672
0.0670074
0.0655513
0.0640562
0.0625132
0.0608576
0.0591248
0.0571462
0.0551181
0.0526484
0.0502855
0.0764536
0.0747883
0.0729288
0.0712847
0.069764
0.0683155
0.0668694
0.0654175
0.0639201
0.0623699
0.0607085
0.0589673
0.056996
0.0549713
0.0525472
0.0502145
0.0762484
0.0745909
0.0727618
0.0711401
0.0696355
0.0681949
0.0667496
0.065293
0.0637879
0.0622275
0.0605606
0.0588138
0.0568578
0.0548451
0.0524797
0.050184
0.0838384
0.0777918
0.0749473
0.0724953
0.0706159
0.0689493
0.0674027
0.0659138
0.0644163
0.0628931
0.0612444
0.0595355
0.0574906
0.0554417
0.0527003
0.0502342
0.0795043
0.0771861
0.0745929
0.0724318
0.0706049
0.0689658
0.067427
0.0659433
0.0644501
0.0629326
0.0612896
0.0595899
0.0575517
0.0555158
0.0527758
0.0503206
0.0776371
0.0762876
0.0740381
0.0721648
0.0704367
0.0688631
0.0673555
0.0658907
0.0644087
0.0628995
0.0612644
0.0595742
0.0575491
0.0555287
0.0528065
0.0503671
0.0763124
0.0754087
0.0735011
0.071858
0.0702441
0.0687409
0.0672692
0.0658244
0.0643531
0.0628503
0.0612214
0.0595381
0.0575264
0.0555206
0.0528241
0.0504042
0.0755225
0.0747525
0.0730392
0.0715385
0.0700144
0.068571
0.0671331
0.0657068
0.0642437
0.0627426
0.0611148
0.0594305
0.0574285
0.0554302
0.0527696
0.0503753
0.0749594
0.0742453
0.0726667
0.0712642
0.0698095
0.0684114
0.0669988
0.0655846
0.0641255
0.0626231
0.0609961
0.0593114
0.0573265
0.0553425
0.0527367
0.0503758
0.074602
0.0739071
0.072397
0.0710459
0.0696303
0.0682571
0.0668566
0.0654442
0.0639802
0.0624665
0.0608298
0.0591297
0.0571492
0.0551599
0.0526102
0.0502776
0.0743957
0.0737086
0.072229
0.0709
0.0694997
0.0681335
0.0667324
0.0653135
0.0638397
0.062313
0.0606694
0.0589604
0.056999
0.0550211
0.0525501
0.0502587
0.0824854
0.0768793
0.0743804
0.0721737
0.0704366
0.0688703
0.0673941
0.0659647
0.0645174
0.0630498
0.0614348
0.0597847
0.0577062
0.0556966
0.0526939
0.050214
0.0781556
0.0762766
0.0740365
0.0721205
0.0704326
0.068892
0.0674223
0.0659978
0.0645547
0.0630935
0.0614847
0.0598464
0.0577761
0.0557866
0.0527867
0.0503291
0.0762959
0.0753893
0.0734923
0.071863
0.07027
0.0687922
0.0673517
0.0659447
0.0645117
0.0630582
0.0614572
0.0598289
0.0577729
0.055801
0.0528185
0.0503771
0.0749765
0.0745171
0.0729614
0.0715618
0.070081
0.0686719
0.0672658
0.0658776
0.0644545
0.0630069
0.0614123
0.0597919
0.057752
0.0557981
0.0528464
0.0504275
0.0741904
0.073865
0.0725025
0.0712445
0.0698519
0.068501
0.0671269
0.0657552
0.0643383
0.0628898
0.061294
0.0596689
0.0576373
0.0556876
0.0527784
0.0503867
0.0736286
0.0733593
0.0721311
0.0709708
0.0696467
0.0683398
0.0669895
0.0656282
0.0642138
0.0627622
0.061167
0.059541
0.0575323
0.0556008
0.0527661
0.0504156
0.0732711
0.0730211
0.071861
0.0707514
0.0694654
0.0681819
0.0668415
0.0654793
0.0640565
0.0625883
0.0609781
0.0593272
0.0573183
0.055369
0.0526067
0.0502808
0.0730638
0.0728216
0.0716917
0.0706038
0.0693322
0.0680545
0.0667118
0.0653408
0.0639061
0.0624219
0.0608044
0.0591426
0.0571613
0.0552276
0.0525786
0.0503062
0.0816709
0.0762051
0.0739151
0.0718765
0.0702691
0.0688106
0.0674263
0.0660863
0.0647266
0.0633658
0.0618445
0.0603409
0.0583072
0.0564555
0.0531599
0.050704
0.0773471
0.0756008
0.0735755
0.071828
0.070269
0.068836
0.0674586
0.0661246
0.0647706
0.063419
0.0619072
0.060422
0.0584028
0.0565857
0.053299
0.0508805
0.0754926
0.074718
0.0730361
0.0715746
0.0701087
0.0687369
0.0673874
0.06607
0.0647256
0.0633816
0.0618781
0.060405
0.0584025
0.0566078
0.0533374
0.0509346
0.0741772
0.0738502
0.0725084
0.071276
0.0699208
0.0686165
0.0673
0.0660002
0.0646647
0.063326
0.0618293
0.0603658
0.0583835
0.0566138
0.053381
0.0510087
0.073393
0.0732003
0.0720505
0.0709589
0.0696902
0.068442
0.0671551
0.0658689
0.0645361
0.063192
0.0616888
0.0602138
0.0582348
0.0564635
0.0532803
0.0509428
0.0728314
0.072695
0.0716788
0.0706839
0.0694823
0.0682762
0.0670107
0.065732
0.0643985
0.0630473
0.0615422
0.0600633
0.0581113
0.0563637
0.0532814
0.0510058
0.0724727
0.0723556
0.0714066
0.0704615
0.0692963
0.0681111
0.066852
0.0655674
0.0642189
0.0628407
0.0613081
0.0597842
0.0578153
0.0560219
0.0530251
0.0507711
0.0722628
0.0721537
0.0712344
0.07031
0.0691577
0.067976
0.0667116
0.0654139
0.0640484
0.062647
0.0611016
0.0595577
0.0576193
0.0558415
0.0530015
0.0508338
0.0810691
0.0756634
0.0735282
0.0716176
0.0701258
0.0687687
0.0674769
0.0662297
0.0649606
0.063708
0.062273
0.0609016
0.0588693
0.0571194
0.0533375
0.0507801
0.0767463
0.0750541
0.0731887
0.0715706
0.0701278
0.0687966
0.0675123
0.0662719
0.0650096
0.0637685
0.0623453
0.0609987
0.0589873
0.0572897
0.0535149
0.0509805
0.0748925
0.0741708
0.0726495
0.0713172
0.0699669
0.0686963
0.0674389
0.0662142
0.0649606
0.0637268
0.0623115
0.0609786
0.0589847
0.0573129
0.0535416
0.051004
0.0735782
0.0733039
0.0721223
0.0710188
0.0697783
0.0685742
0.0673486
0.0661405
0.0648947
0.0636656
0.0622574
0.0609368
0.0589675
0.0573303
0.0536034
0.0511063
0.0727941
0.0726541
0.0716636
0.0706999
0.0695445
0.0683947
0.0671963
0.0659986
0.0647515
0.0635118
0.0620909
0.0607506
0.058777
0.0571318
0.0534641
0.0510226
0.0722315
0.072148
0.0712903
0.0704227
0.0693327
0.0682232
0.0670438
0.0658508
0.0646
0.0633501
0.0619259
0.0605823
0.0586445
0.0570402
0.0535173
0.0511883
0.0718705
0.0718066
0.0710152
0.0701963
0.069141
0.0680497
0.066873
0.0656686
0.0643955
0.0631073
0.0616415
0.0602303
0.0582544
0.0565726
0.0531574
0.0508666
0.0716577
0.0716019
0.0708395
0.0700404
0.0689963
0.067906
0.0667208
0.0654991
0.0642047
0.0628876
0.0614067
0.0599734
0.0580418
0.0564002
0.053222
0.051126
0.0806533
0.0752704
0.0732358
0.0714179
0.0700259
0.068767
0.0675774
0.0664455
0.0653076
0.0642315
0.062996
0.0619357
0.0601778
0.0589186
0.0549928
0.0525585
0.0763321
0.0746586
0.0728964
0.071372
0.0700298
0.0687979
0.0676169
0.0664937
0.065365
0.0643049
0.0630869
0.0620636
0.0603399
0.0591601
0.0552351
0.0526865
0.074478
0.0737735
0.0723556
0.071117
0.0698671
0.0686952
0.0675405
0.0664324
0.0653118
0.0642592
0.0630497
0.0620441
0.0603414
0.0591983
0.0552646
0.052675
0.0731637
0.0729064
0.0718276
0.0708172
0.0696764
0.0685701
0.0674461
0.0663533
0.0652393
0.0641911
0.062989
0.0620003
0.0603285
0.059239
0.0553627
0.0528392
0.0723781
0.0722551
0.0713667
0.070495
0.0694376
0.0683836
0.0672838
0.0661975
0.0650766
0.0640102
0.0627847
0.061764
0.0600719
0.0589672
0.0551573
0.0527544
0.0718134
0.0717471
0.0709907
0.0702139
0.0692203
0.0682042
0.0671203
0.0660346
0.064905
0.0638223
0.0625876
0.0615601
0.0599054
0.0588639
0.0552506
0.0530876
0.0714491
0.0714025
0.0707116
0.0699821
0.0690208
0.0680195
0.0669333
0.0658283
0.0646646
0.0635251
0.0622212
0.0610834
0.0593337
0.0581441
0.0546154
0.0525763
0.0712322
0.071194
0.0705312
0.0698204
0.0688679
0.0678645
0.0667652
0.0656364
0.064443
0.0632625
0.0619302
0.0607537
0.0590403
0.0579057
0.0546917
0.0531323
0.0803468
0.0749734
0.0730115
0.0712656
0.0699579
0.0687858
0.067689
0.0666601
0.0656335
0.0646938
0.0635952
0.0627156
0.0610797
0.0599155
0.0554863
0.0514091
0.0760262
0.0743591
0.0726717
0.0712204
0.0699635
0.0688191
0.0677318
0.0667127
0.0656967
0.0647756
0.0636974
0.0628621
0.0612666
0.0601876
0.055655
0.0506943
0.0741702
0.0734711
0.072128
0.0709625
0.0697977
0.0687131
0.0676514
0.0666466
0.0656374
0.0647231
0.0636517
0.0628353
0.061257
0.0602084
0.0556069
0.0503212
0.0728547
0.0726026
0.0715981
0.0706604
0.0696041
0.0685843
0.0675521
0.0665616
0.0655578
0.0646476
0.0635834
0.0627884
0.0612452
0.0602664
0.0557316
0.0505075
0.0720667
0.0719489
0.0711339
0.0703338
0.0693595
0.0683901
0.0673793
0.0663915
0.0653754
0.0644401
0.0633418
0.0625036
0.0609216
0.0599245
0.055469
0.0505031
0.0714991
0.0714382
0.0707544
0.0700482
0.0691361
0.0682025
0.0672049
0.0662144
0.0651859
0.0642312
0.0631215
0.0622814
0.0607469
0.0598614
0.0556932
0.0512149
0.0711308
0.0710899
0.0704707
0.0698104
0.0689283
0.0680063
0.0670016
0.0659849
0.0649121
0.063885
0.062682
0.0616974
0.0600127
0.0589293
0.054834
0.0507254
0.0709094
0.0708772
0.0702853
0.0696423
0.0687671
0.06784
0.0668184
0.0657728
0.0646648
0.0635909
0.0623559
0.0613378
0.0597082
0.0587821
0.055184
0.0522465
0.0705872
0.0705589
0.0700081
0.0694045
0.0685728
0.0676851
0.0666984
0.0656825
0.0645989
0.0635446
0.062324
0.0613157
0.0596888
0.0587598
0.0551436
0.0521794
0.0706499
0.070618
0.0700245
0.0693816
0.0685061
0.0675732
0.0665374
0.065463
0.064315
0.0631711
0.0618664
0.0607094
0.0590044
0.0578704
0.0546391
0.0530591
0.0708657
0.070818
0.0701449
0.0694341
0.0684918
0.0674962
0.0663972
0.0652499
0.0640179
0.0627514
0.0613087
0.0599026
0.0579844
0.056346
0.0531528
0.0510382
0.0713064
0.0712062
0.0703911
0.0695707
0.0685384
0.0674698
0.0663089
0.0651013
0.0638117
0.0624721
0.0609739
0.059464
0.0575443
0.0557737
0.0529237
0.0507408
0.0719796
0.0717468
0.0707308
0.069759
0.0686215
0.0674704
0.0662445
0.0649757
0.0636273
0.0622136
0.0606505
0.0590282
0.0570703
0.0551472
0.0524928
0.0502084
0.0732253
0.0725491
0.0711909
0.0699856
0.0687292
0.0674988
0.066223
0.0649141
0.0635336
0.062083
0.0604986
0.0588328
0.0568981
0.0549335
0.0524608
0.0501599
0.0750143
0.0733697
0.0716675
0.0701756
0.0688214
0.0675231
0.0662092
0.0648681
0.0634611
0.061981
0.0603767
0.0586758
0.0567492
0.0547519
0.0523875
0.0500843
0.0793516
0.0740055
0.0720394
0.0702609
0.0688629
0.0675421
0.0662283
0.0648942
0.0634964
0.0620246
0.0604325
0.0587388
0.0568314
0.0548367
0.0525053
0.0501876
0.0704067
0.0703783
0.0698636
0.0692994
0.0685186
0.0676859
0.0667586
0.0658069
0.0647875
0.0638037
0.0626331
0.0616719
0.0599958
0.058911
0.054783
0.0506281
0.0704641
0.0704325
0.0698742
0.0692695
0.0684429
0.067562
0.0665816
0.0655663
0.0644766
0.0633969
0.0621382
0.061033
0.0592973
0.0581092
0.0545492
0.0524745
0.070675
0.0706277
0.069989
0.0693151
0.0684195
0.0674727
0.0664244
0.0653294
0.064147
0.062932
0.0615215
0.0601498
0.0581923
0.0565144
0.0530725
0.0507512
0.0711113
0.0710119
0.0702307
0.0694462
0.0684589
0.0674366
0.0663233
0.0651636
0.063919
0.062625
0.0611564
0.0596786
0.0577338
0.0559489
0.0529335
0.0506549
0.0717806
0.0715488
0.0705661
0.0696295
0.0685355
0.0674285
0.066247
0.0650216
0.0637131
0.0623376
0.0607982
0.0591987
0.0572191
0.0552822
0.0525086
0.0501634
0.0730238
0.0723491
0.0710238
0.0698534
0.0686397
0.067452
0.0662189
0.0649513
0.0636084
0.0621929
0.0606318
0.0589868
0.0570394
0.0550658
0.0525105
0.0501627
0.0748109
0.0731683
0.0714989
0.0700412
0.068729
0.0674726
0.0661998
0.064898
0.0635267
0.0620788
0.0604965
0.0588131
0.0568779
0.0548713
0.0524458
0.050101
0.0791487
0.073806
0.0718725
0.0701282
0.0687717
0.0674928
0.0662213
0.0649273
0.0635662
0.0621279
0.06056
0.058886
0.0569744
0.0549732
0.0525879
0.0502285
0.0702748
0.0702459
0.0697583
0.0692251
0.068487
0.0677027
0.0668315
0.0659455
0.0650021
0.0641164
0.0630584
0.062257
0.0607361
0.0598493
0.055623
0.0510629
0.0703274
0.0702953
0.0697633
0.0691885
0.0684023
0.0675667
0.0666375
0.0656807
0.0646565
0.0636591
0.0624884
0.061508
0.0598722
0.0588326
0.0551653
0.0529433
0.0705336
0.0704862
0.0698729
0.0692276
0.0683702
0.0674653
0.066463
0.0654184
0.0642893
0.0631372
0.0617864
0.0604956
0.0585806
0.0569801
0.0534123
0.0510362
0.0709659
0.0708667
0.0701103
0.0693535
0.0684026
0.0674197
0.0663486
0.0652338
0.0640349
0.0627921
0.0613689
0.0599492
0.0580265
0.0562884
0.0531748
0.0508623
0.0716316
0.0714001
0.0704418
0.0695322
0.0684731
0.067403
0.0662603
0.0650747
0.0638051
0.0624701
0.0609634
0.0594015
0.0574278
0.0555106
0.052656
0.0502773
0.0728726
0.0721984
0.0708973
0.0697535
0.0685739
0.0674218
0.0662255
0.0649949
0.0636875
0.0623071
0.0607734
0.0591565
0.0572113
0.0552455
0.0526287
0.0502459
0.0746579
0.0730163
0.0713709
0.0699394
0.0686606
0.0674387
0.0662012
0.0649343
0.0635958
0.0621788
0.06062
0.0589577
0.0570222
0.0550154
0.052541
0.0501608
0.0789961
0.0736557
0.0717459
0.0700279
0.0687043
0.0674601
0.0662248
0.0649662
0.0636387
0.0622319
0.0606887
0.0590362
0.0571262
0.0551246
0.0526949
0.0502983
0.07018
0.0701501
0.0696828
0.0691736
0.0684689
0.0677228
0.0668947
0.0660559
0.0651604
0.0643242
0.0633014
0.0625228
0.0609631
0.0599672
0.0554143
0.0503054
0.0702281
0.0701954
0.0696829
0.0691312
0.0683767
0.0675769
0.0666877
0.0657742
0.0647933
0.0638411
0.0627019
0.0617475
0.0600813
0.0589812
0.0550831
0.0525852
0.0704302
0.0703823
0.0697879
0.0691645
0.0683372
0.0674656
0.0664997
0.0654935
0.0644017
0.0632872
0.06196
0.060689
0.0587433
0.0571027
0.0533626
0.0508497
0.070859
0.0707595
0.0700215
0.069286
0.0683637
0.0674121
0.0663749
0.0652951
0.0641301
0.0629207
0.061519
0.0601186
0.0581746
0.0564143
0.0531809
0.0507894
0.0715215
0.0712899
0.0703497
0.0694606
0.0684289
0.0673884
0.066277
0.0651233
0.0638837
0.0625773
0.0610888
0.059542
0.0575513
0.0556177
0.0526757
0.0502434
0.0727606
0.0720866
0.0708033
0.0696798
0.0685269
0.0674033
0.0662371
0.0650366
0.0637575
0.0624036
0.0608877
0.059285
0.0573292
0.0553518
0.0526718
0.0502462
0.0745444
0.0729033
0.0712755
0.0698639
0.0686114
0.0674172
0.0662085
0.0649704
0.0636587
0.0622663
0.0607244
0.0590749
0.0571323
0.0551155
0.0525931
0.0501757
0.0788829
0.073544
0.0716519
0.0699538
0.0686561
0.0674398
0.0662342
0.0650049
0.0637052
0.0623241
0.0607996
0.0591616
0.0572478
0.0552383
0.0527653
0.0503314
0.0701137
0.070083
0.0696308
0.06914
0.0684617
0.0677465
0.0669548
0.0661578
0.0653095
0.0645285
0.0635637
0.0628518
0.0613394
0.0603653
0.0556718
0.0502012
0.0701582
0.0701247
0.0696268
0.0690926
0.068363
0.067592
0.066736
0.06586
0.0649201
0.064015
0.0629217
0.0620209
0.0603828
0.0593035
0.0552915
0.0526239
0.0703567
0.0703083
0.0697277
0.0691211
0.0683172
0.0674721
0.0665361
0.0655628
0.0645052
0.0634284
0.0621343
0.0609008
0.0589648
0.057335
0.0534996
0.050902
0.0707825
0.0706828
0.0699583
0.0692387
0.0683386
0.0674119
0.0664021
0.0653518
0.0642165
0.0630386
0.0616629
0.0602905
0.0583494
0.056595
0.0532892
0.0508454
0.0714425
0.0712106
0.0702836
0.06941
0.0683993
0.0673821
0.066296
0.0651686
0.0639548
0.0626743
0.0612057
0.0596786
0.057686
0.0557522
0.0527531
0.0502821
0.0726799
0.0720059
0.0707356
0.0696274
0.068495
0.0673937
0.0662515
0.0650756
0.0638204
0.0624894
0.0609908
0.0594036
0.0574456
0.055465
0.0527407
0.0502815
0.0744624
0.0728216
0.0712067
0.0698101
0.0685776
0.0674051
0.0662194
0.0650045
0.0637151
0.0623435
0.0608171
0.0591801
0.0572352
0.0552133
0.0526553
0.0502074
0.0788012
0.0734634
0.0715841
0.0699011
0.0686231
0.0674286
0.0662466
0.0650411
0.0637644
0.0624046
0.0608966
0.0592718
0.0573572
0.055343
0.052837
0.0503721
0.0700695
0.070038
0.0695965
0.0691189
0.0684596
0.0677667
0.0670006
0.0662318
0.0654123
0.0646599
0.0637159
0.0630147
0.0614811
0.0604467
0.0555853
0.0498336
0.070111
0.0700769
0.0695893
0.0690677
0.0683561
0.0676058
0.0667735
0.0659232
0.0650093
0.06413
0.0630549
0.0621658
0.0605094
0.0593913
0.0552551
0.0524421
0.0703068
0.0702579
0.0696872
0.0690925
0.0683055
0.0674797
0.0665653
0.0656149
0.0645799
0.0635251
0.0622455
0.061022
0.0590689
0.0574131
0.0534846
0.050807
0.0707303
0.0706303
0.0699153
0.0692071
0.0683231
0.0674144
0.0664246
0.0653953
0.0642803
0.0631221
0.0617593
0.0603965
0.0584428
0.0566718
0.0532989
0.0508046
0.0713883
0.0711562
0.0702385
0.0693759
0.0683804
0.0673802
0.0663126
0.0652043
0.0640087
0.0627453
0.0612879
0.0597689
0.0577667
0.0558209
0.0527719
0.0502649
0.0726245
0.0719504
0.0706893
0.0695919
0.0684743
0.0673894
0.0662648
0.065107
0.063869
0.0625539
0.0610663
0.0594868
0.0575223
0.0555325
0.0527708
0.0502822
0.0744059
0.0727653
0.0711594
0.0697734
0.0685555
0.0673989
0.0662301
0.0650325
0.0637594
0.0624028
0.0608869
0.0592571
0.0573078
0.0552783
0.052691
0.0502176
0.0787449
0.0734079
0.0715376
0.0698654
0.0686017
0.0674232
0.0662587
0.0650709
0.0638111
0.062467
0.0609706
0.059354
0.0574367
0.0554161
0.0528832
0.0503926
0.0700426
0.0700105
0.069576
0.069107
0.0684603
0.0677822
0.0670336
0.0662845
0.0654864
0.064757
0.0638351
0.0631543
0.061628
0.0605816
0.0556395
0.0497121
0.0700821
0.0700476
0.0695666
0.0690531
0.0683533
0.067617
0.0668006
0.0659681
0.065073
0.0642137
0.0631563
0.062284
0.06063
0.0595046
0.0553058
0.0524055
0.070276
0.0702267
0.0696623
0.0690754
0.0682995
0.0674865
0.0665866
0.065652
0.0646331
0.0635949
0.0623286
0.0611177
0.059163
0.0575017
0.0535238
0.050798
0.070698
0.0705977
0.0698888
0.069188
0.0683145
0.0674178
0.0664414
0.0654262
0.0643255
0.0631815
0.0618295
0.0604766
0.0585202
0.0567446
0.0533345
0.050809
0.0713545
0.0711223
0.0702105
0.069355
0.0683695
0.0673805
0.0663252
0.0652297
0.0640468
0.0627955
0.0613469
0.0598353
0.0578299
0.0558796
0.0528016
0.0502716
0.0725899
0.0719158
0.0706604
0.0695701
0.0684622
0.067388
0.0662752
0.0651295
0.0639032
0.0625991
0.0611195
0.0595462
0.057579
0.0555848
0.0528002
0.0502923
0.0743706
0.07273
0.07113
0.0697509
0.0685424
0.0673963
0.0662387
0.0650526
0.0637906
0.0624442
0.0609357
0.0593113
0.05736
0.055326
0.0527203
0.0502297
0.0787098
0.0733732
0.0715087
0.0698435
0.0685891
0.0674211
0.0662683
0.0650923
0.0638439
0.0625104
0.0610219
0.0594112
0.0574927
0.0554679
0.0529177
0.0504097
0.0700299
0.0699975
0.0695663