/*--------------------------------*- C++ -*----------------------------------*\
| =========                 |                                                 |
| \\      /  F ield         | OpenFOAM: The Open Source CFD Toolbox           |
|  \\    /   O peration     | Version:  v1912                                 |
|   \\  /    A nd           | Website:  www.openfoam.com                      |
|    \\/     M anipulation  |                                                 |
\*---------------------------------------------------------------------------*/
FoamFile
{
    version     2.0;
    format      ascii;
    class       surfaceScalarField;
    location    "0.19/fluid";
    object      phi;
}
// * * * * * * * * * * * * * * * * * * * * * * * * * * * * * * * * * * * * * //

dimensions      [0 3 -1 0 0 0 0];
oriented        oriented;


internalField   nonuniform List<scalar> 
41600
(
5.2854e-05
9.82609e-06
3.03288e-08
-2.10387e-07
4.70357e-05
6.06264e-06
-2.48995e-07
4.5933e-09
4.3689e-05
3.56211e-06
-6.11318e-07
3.95905e-07
4.19756e-05
1.87836e-06
-1.025e-06
8.60095e-07
4.09394e-05
1.14788e-06
-1.56457e-06
1.45287e-06
4.01636e-05
8.3801e-07
-2.25646e-06
2.1942e-06
3.94339e-05
7.44669e-07
-3.14193e-06
3.12702e-06
3.86383e-05
7.57924e-07
-4.27619e-06
4.31385e-06
3.76956e-05
8.36673e-07
-5.74024e-06
5.84626e-06
3.65213e-05
9.50732e-07
-7.65612e-06
7.87972e-06
3.49999e-05
1.09851e-06
-1.01926e-05
1.06154e-05
3.29138e-05
1.21066e-06
-1.35995e-05
1.44749e-05
2.98764e-05
1.33552e-06
-1.83121e-05
2.00139e-05
2.48866e-05
1.16473e-06
-2.46043e-05
2.84295e-05
1.61183e-05
1.04537e-06
-3.3203e-05
4.09259e-05
-8.5555e-07
-3.20887e-05
4.90626e-05
6.51982e-05
7.34747e-06
-8.54033e-08
-1.34158e-07
6.51963e-05
6.36985e-06
-5.29539e-07
2.24236e-07
6.44913e-05
4.54296e-06
-1.05001e-06
7.74166e-07
6.35857e-05
2.99776e-06
-1.63232e-06
1.41849e-06
6.2689e-05
2.19013e-06
-2.38305e-06
2.23748e-06
6.17869e-05
1.82104e-06
-3.352e-06
3.27105e-06
6.0811e-05
1.73955e-06
-4.60002e-06
4.58106e-06
5.96801e-05
1.84e-06
-6.20737e-06
6.25619e-06
5.83058e-05
2.07533e-06
-8.29014e-06
8.42577e-06
5.65621e-05
2.41233e-06
-1.10223e-05
1.13044e-05
5.42872e-05
2.84139e-06
-1.46449e-05
1.5177e-05
5.11014e-05
3.29887e-06
-1.95169e-05
2.06145e-05
4.64833e-05
3.80208e-06
-2.62263e-05
2.83778e-05
3.87024e-05
4.07802e-06
-3.52114e-05
4.0079e-05
2.56126e-05
4.22667e-06
-4.71497e-05
5.70583e-05
2.20769e-06
-4.55479e-05
6.80972e-05
6.52199e-05
4.85143e-06
-9.56662e-08
-1.28154e-07
6.63683e-05
5.53372e-06
-5.54717e-07
2.42407e-07
6.65987e-05
4.59513e-06
-1.0859e-06
8.03293e-07
6.62844e-05
3.53153e-06
-1.67766e-06
1.45826e-06
6.5735e-05
2.88925e-06
-2.43998e-06
2.29023e-06
6.50325e-05
2.6073e-06
-3.42411e-06
3.34033e-06
6.4175e-05
2.61772e-06
-4.69158e-06
4.67096e-06
6.31141e-05
2.85254e-06
-6.32405e-06
6.37238e-06
6.17743e-05
3.27854e-06
-8.43945e-06
8.57604e-06
6.00268e-05
3.8741e-06
-1.1217e-05
1.15027e-05
5.76928e-05
4.6339e-06
-1.49023e-05
1.54438e-05
5.43541e-05
5.51501e-06
-1.98737e-05
2.09963e-05
4.94284e-05
6.51677e-06
-2.67278e-05
2.89388e-05
4.10699e-05
7.40564e-06
-3.59641e-05
4.09949e-05
2.69929e-05
8.03345e-06
-4.82419e-05
5.85122e-05
5.66599e-06
-4.67542e-05
7.02887e-05
6.41355e-05
3.43987e-06
-7.42174e-08
-1.49752e-07
6.53709e-05
4.61151e-06
-5.15854e-07
2.02701e-07
6.59862e-05
4.26319e-06
-1.03331e-06
7.49964e-07
6.60816e-05
3.65625e-06
-1.61031e-06
1.39012e-06
6.58541e-05
3.26753e-06
-2.3526e-06
2.20182e-06
6.539e-05
3.15671e-06
-3.30836e-06
3.22312e-06
6.47146e-05
3.31581e-06
-4.53602e-06
4.51335e-06
6.38027e-05
3.7189e-06
-6.11396e-06
6.1594e-06
6.25918e-05
4.35694e-06
-8.15534e-06
8.28791e-06
6.09538e-05
5.23185e-06
-1.0836e-05
1.11162e-05
5.8699e-05
6.3545e-06
-1.4393e-05
1.49273e-05
5.53814e-05
7.71837e-06
-1.92118e-05
2.0326e-05
5.03731e-05
9.32175e-06
-2.58691e-05
2.80724e-05
4.17811e-05
1.09598e-05
-3.49315e-05
3.99694e-05
2.72289e-05
1.22877e-05
-4.7032e-05
5.73299e-05
9.28439e-06
-4.58449e-05
6.94553e-05
6.36027e-05
2.56101e-06
-3.96809e-08
-1.84198e-07
6.4732e-05
3.79574e-06
-4.51621e-07
1.38134e-07
6.54663e-05
3.81274e-06
-9.4749e-07
6.63654e-07
6.57872e-05
3.55629e-06
-1.50203e-06
1.28104e-06
6.57927e-05
3.41421e-06
-2.21329e-06
2.06116e-06
6.55445e-05
3.49228e-06
-3.12459e-06
3.03719e-06
6.50687e-05
3.81769e-06
-4.28929e-06
4.26327e-06
6.43497e-05
4.39768e-06
-5.77973e-06
5.81994e-06
6.33343e-05
5.24803e-06
-7.70013e-06
7.82443e-06
6.18985e-05
6.40123e-06
-1.02171e-05
1.04835e-05
5.9847e-05
7.89489e-06
-1.35493e-05
1.40604e-05
5.67044e-05
9.78849e-06
-1.80806e-05
1.91531e-05
5.1779e-05
1.21181e-05
-2.43431e-05
2.64722e-05
4.30303e-05
1.48015e-05
-3.29923e-05
3.78993e-05
2.78874e-05
1.73812e-05
-4.4587e-05
5.46363e-05
1.39703e-05
-4.38395e-05
6.7041e-05
6.33495e-05
1.93542e-06
1.43598e-09
-2.25364e-07
6.43883e-05
3.07093e-06
-3.74309e-07
6.03395e-08
6.51833e-05
3.30233e-06
-8.44314e-07
5.59699e-07
6.56607e-05
3.30107e-06
-1.37206e-06
1.14989e-06
6.5854e-05
3.37485e-06
-2.04595e-06
1.89199e-06
6.58028e-05
3.63374e-06
-2.90345e-06
2.81323e-06
6.55286e-05
4.12229e-06
-3.99163e-06
3.96125e-06
6.50207e-05
4.87221e-06
-5.37521e-06
5.40849e-06
6.4232e-05
5.92362e-06
-7.14723e-06
7.26042e-06
6.30388e-05
7.347e-06
-9.46251e-06
9.70986e-06
6.1237e-05
9.21801e-06
-1.25166e-05
1.29953e-05
5.83131e-05
1.16994e-05
-1.66904e-05
1.77034e-05
5.35092e-05
1.4899e-05
-2.24578e-05
2.44807e-05
4.46077e-05
1.89897e-05
-3.05854e-05
3.52986e-05
2.88169e-05
2.34888e-05
-4.15196e-05
5.12028e-05
2.01715e-05
-4.13891e-05
6.40047e-05
6.3254e-05
1.40555e-06
4.83318e-08
-2.72507e-07
6.42618e-05
2.37793e-06
-2.8619e-07
-2.85294e-08
6.5113e-05
2.73685e-06
-7.26785e-07
4.41025e-07
6.57137e-05
2.92424e-06
-1.22394e-06
1.00013e-06
6.60673e-05
3.17754e-06
-1.85477e-06
1.69841e-06
6.6203e-05
3.59194e-06
-2.64965e-06
2.55577e-06
6.6144e-05
4.21747e-06
-3.64747e-06
3.6113e-06
6.58924e-05
5.1003e-06
-4.90191e-06
4.92545e-06
6.54227e-05
6.29715e-06
-6.48876e-06
6.58488e-06
6.46432e-05
7.91173e-06
-8.53929e-06
8.75404e-06
6.33919e-05
1.00536e-05
-1.12052e-05
1.1621e-05
6.1188e-05
1.30226e-05
-1.48285e-05
1.57092e-05
5.72801e-05
1.70545e-05
-1.97558e-05
2.15082e-05
4.90836e-05
2.30416e-05
-2.68206e-05
3.09652e-05
3.31482e-05
3.09226e-05
-3.61897e-05
4.46913e-05
3.25907e-05
-3.66607e-05
5.73896e-05
6.32376e-05
9.84846e-08
-3.23089e-07
8.92579e-07
6.42679e-05
-1.91949e-07
-1.23758e-07
1.66329e-06
6.51914e-05
-6.01173e-07
3.13985e-07
2.10055e-06
6.59048e-05
-1.06576e-06
8.39989e-07
2.43657e-06
6.6401e-05
-1.6507e-06
1.49159e-06
2.8405e-06
6.6707e-05
-2.37892e-06
2.28098e-06
3.3839e-06
6.68507e-05
-3.28084e-06
3.23838e-06
4.11616e-06
6.68451e-05
-4.39885e-06
4.41202e-06
5.09276e-06
6.66801e-05
-5.79202e-06
5.8705e-06
6.38372e-06
6.62853e-05
-7.5686e-06
7.75047e-06
8.1246e-06
6.55254e-05
-9.84104e-06
1.0196e-05
1.04585e-05
6.39471e-05
-1.29138e-05
1.36693e-05
1.38455e-05
6.08507e-05
-1.70192e-05
1.85263e-05
1.86438e-05
5.3503e-05
-2.30558e-05
2.66808e-05
2.67643e-05
3.84995e-05
-3.09469e-05
3.83942e-05
3.84788e-05
-3.26e-05
5.17949e-05
5.18953e-05
5.27835e-05
9.83256e-06
-8.57116e-08
4.68519e-05
6.07801e-06
-3.95458e-07
4.33869e-05
3.5799e-06
-7.2614e-07
4.15532e-05
1.89922e-06
-1.09055e-06
4.0385e-05
1.17451e-06
-1.57093e-06
3.94522e-05
8.73158e-07
-2.1968e-06
3.85247e-05
7.91902e-07
-3.0063e-06
3.74735e-05
8.21794e-07
-4.04679e-06
3.6197e-05
9.23815e-07
-5.38751e-06
3.45906e-05
1.06988e-06
-7.11963e-06
3.25106e-05
1.2645e-06
-9.3771e-06
2.97443e-05
1.44312e-06
-1.22763e-05
2.58676e-05
1.67349e-06
-1.61089e-05
2.01581e-05
1.67412e-06
-2.0569e-05
1.10124e-05
1.77242e-06
-2.58298e-05
2.83987e-07
-2.13603e-05
6.51039e-05
7.3646e-06
-2.21384e-07
6.49513e-05
6.40358e-06
-7.02468e-07
6.40801e-05
4.58567e-06
-1.18457e-06
6.30003e-05
3.04978e-06
-1.7031e-06
6.19106e-05
2.25642e-06
-2.37523e-06
6.07784e-05
1.90802e-06
-3.25465e-06
5.95128e-05
1.85572e-06
-4.39823e-06
5.80065e-05
1.99615e-06
-5.87545e-06
5.61395e-05
2.28601e-06
-7.78535e-06
5.37517e-05
2.69536e-06
-1.026e-05
5.06361e-05
3.22296e-06
-1.34878e-05
4.64071e-05
3.80518e-06
-1.765e-05
4.04986e-05
4.48137e-06
-2.31256e-05
3.15896e-05
4.95773e-06
-2.95861e-05
1.78799e-05
5.32726e-06
-3.69949e-05
3.25811e-06
-3.06421e-05
6.51251e-05
4.87785e-06
-2.33986e-07
6.61207e-05
5.58441e-06
-7.31136e-07
6.61825e-05
4.66131e-06
-1.22342e-06
6.56915e-05
3.61345e-06
-1.75029e-06
6.49467e-05
2.99389e-06
-2.43266e-06
6.40116e-05
2.74482e-06
-3.32574e-06
6.28612e-05
2.80165e-06
-4.48715e-06
6.14206e-05
3.1003e-06
-5.98761e-06
5.95815e-05
3.61345e-06
-7.92776e-06
5.71791e-05
4.3246e-06
-1.04438e-05
5.3987e-05
5.24017e-06
-1.37274e-05
4.95774e-05
6.31458e-06
-1.79736e-05
4.33194e-05
7.57494e-06
-2.35633e-05
3.37826e-05
8.726e-06
-3.01956e-05
1.90395e-05
9.6263e-06
-3.77978e-05
6.84111e-06
-3.12977e-05
6.40428e-05
3.47451e-06
-2.13691e-07
6.51287e-05
4.67741e-06
-6.94699e-07
6.55803e-05
4.35024e-06
-1.17386e-06
6.55053e-05
3.76486e-06
-1.68672e-06
6.509e-05
3.40673e-06
-2.35022e-06
6.4403e-05
3.34013e-06
-3.21666e-06
6.34475e-05
3.56193e-06
-4.34079e-06
6.21723e-05
4.05195e-06
-5.79037e-06
6.04825e-05
4.80968e-06
-7.66177e-06
5.82143e-05
5.84525e-06
-1.00885e-05
5.51295e-05
7.18651e-06
-1.32546e-05
5.07692e-05
8.82521e-06
-1.73622e-05
4.44507e-05
1.07997e-05
-2.27754e-05
3.46838e-05
1.28097e-05
-2.92482e-05
1.94262e-05
1.45414e-05
-3.66895e-05
1.08545e-05
-3.0432e-05
6.3513e-05
2.60253e-06
-1.80728e-07
6.4498e-05
3.87449e-06
-6.3369e-07
6.50759e-05
3.91725e-06
-1.09239e-06
6.52356e-05
3.68721e-06
-1.58407e-06
6.5065e-05
3.58245e-06
-2.21842e-06
6.46092e-05
3.71454e-06
-3.0432e-06
6.38734e-05
4.11697e-06
-4.10848e-06
6.28176e-05
4.80469e-06
-5.47667e-06
6.13584e-05
5.80492e-06
-7.23624e-06
5.93373e-05
7.16259e-06
-9.51334e-06
5.65116e-05
8.93946e-06
-1.24766e-05
5.23871e-05
1.12e-05
-1.63308e-05
4.62079e-05
1.40408e-05
-2.1405e-05
3.62992e-05
1.72651e-05
-2.75392e-05
2.0365e-05
2.04876e-05
-3.4599e-05
1.61543e-05
-2.87742e-05
6.32633e-05
1.98227e-06
-1.41555e-07
6.41642e-05
3.15947e-06
-5.60263e-07
6.48116e-05
3.42008e-06
-9.94512e-07
6.51388e-05
3.44894e-06
-1.46096e-06
6.51702e-05
3.56529e-06
-2.06021e-06
6.49298e-05
3.88605e-06
-2.83455e-06
6.44201e-05
4.46337e-06
-3.82831e-06
6.36078e-05
5.33881e-06
-5.09706e-06
6.24177e-05
6.56714e-06
-6.71939e-06
6.06928e-05
8.23695e-06
-8.81197e-06
5.81829e-05
1.04566e-05
-1.15238e-05
5.43483e-05
1.3407e-05
-1.50628e-05
4.83594e-05
1.72829e-05
-1.9711e-05
3.8322e-05
2.21377e-05
-2.54205e-05
2.16418e-05
2.76343e-05
-3.19861e-05
2.31658e-05
-2.67588e-05
6.31718e-05
1.45578e-06
-9.69818e-08
6.40492e-05
2.47259e-06
-4.76676e-07
6.47628e-05
2.86283e-06
-8.83163e-07
6.5226e-05
3.0826e-06
-1.32084e-06
6.54346e-05
3.38167e-06
-1.87967e-06
6.54037e-05
3.86269e-06
-2.59544e-06
6.51405e-05
4.58411e-06
-3.50506e-06
6.46285e-05
5.60338e-06
-4.65448e-06
6.38204e-05
6.99398e-06
-6.10743e-06
6.25977e-05
8.88264e-06
-7.96235e-06
6.07639e-05
1.14183e-05
-1.03331e-05
5.78125e-05
1.49384e-05
-1.34085e-05
5.29237e-05
1.97937e-05
-1.73777e-05
4.37341e-05
2.68116e-05
-2.23051e-05
2.68318e-05
3.61755e-05
-2.78286e-05
3.66666e-05
-2.33298e-05
6.31596e-05
-4.94083e-08
9.44063e-07
6.40676e-05
-3.87391e-07
1.76008e-06
6.48641e-05
-7.64277e-07
2.22936e-06
6.54538e-05
-1.1713e-06
2.59853e-06
6.58225e-05
-1.68706e-06
3.04931e-06
6.59857e-05
-2.34041e-06
3.661e-06
6.59576e-05
-3.16055e-06
4.49189e-06
6.57359e-05
-4.18354e-06
5.60974e-06
6.52936e-05
-5.45837e-06
7.1027e-06
6.45387e-05
-7.06539e-06
9.13427e-06
6.331e-05
-9.08573e-06
1.18916e-05
6.11282e-05
-1.16904e-05
1.58968e-05
5.72418e-05
-1.49813e-05
2.16421e-05
4.90679e-05
-1.91431e-05
3.10728e-05
3.31493e-05
-2.36668e-05
4.48139e-05
-2.03241e-05
5.75399e-05
5.27248e-05
9.8387e-06
-1.49237e-07
4.66952e-05
6.09235e-06
-4.58185e-07
4.31226e-05
3.59669e-06
-7.50247e-07
4.11754e-05
1.91894e-06
-1.06225e-06
3.98798e-05
1.19954e-06
-1.47484e-06
3.87935e-05
9.05932e-07
-2.01644e-06
3.76706e-05
8.3542e-07
-2.71891e-06
3.63623e-05
8.79601e-07
-3.61808e-06
3.47395e-05
1.00041e-06
-4.76508e-06
3.2666e-05
1.17019e-06
-6.21633e-06
2.99547e-05
1.39495e-06
-8.06078e-06
2.63907e-05
1.60915e-06
-1.03214e-05
2.15765e-05
1.88233e-06
-1.3177e-05
1.52679e-05
1.93686e-06
-1.61972e-05
6.76545e-06
2.04701e-06
-1.93744e-05
6.11862e-07
-1.52067e-05
6.50246e-05
7.38094e-06
-2.88216e-07
6.47406e-05
6.43552e-06
-7.61655e-07
6.37183e-05
4.62622e-06
-1.19181e-06
6.24746e-05
3.09916e-06
-1.6396e-06
6.11996e-05
2.31913e-06
-2.21983e-06
5.98446e-05
1.99002e-06
-2.98369e-06
5.82966e-05
1.96479e-06
-3.97959e-06
5.64203e-05
2.14193e-06
-5.26147e-06
5.40579e-05
2.4811e-06
-6.90371e-06
5.10058e-05
2.95434e-06
-8.99205e-06
4.69999e-05
3.56556e-06
-1.16524e-05
4.16524e-05
4.24742e-06
-1.49409e-05
3.44394e-05
5.04964e-06
-1.90798e-05
2.46969e-05
5.64841e-06
-2.35551e-05
1.17636e-05
6.11497e-06
-2.81296e-05
3.87838e-06
-2.21449e-05
6.50453e-05
4.90309e-06
-3.01454e-07
6.59078e-05
5.63258e-06
-7.90664e-07
6.58165e-05
4.72419e-06
-1.23011e-06
6.51592e-05
3.69119e-06
-1.68508e-06
6.42268e-05
3.093e-06
-2.27411e-06
6.30662e-05
2.87476e-06
-3.04986e-06
6.16302e-05
2.97509e-06
-4.06143e-06
5.98149e-05
3.33344e-06
-5.36378e-06
5.74729e-05
3.92776e-06
-7.0325e-06
5.4394e-05
4.74589e-06
-9.15642e-06
5.02913e-05
5.8042e-06
-1.18634e-05
4.47311e-05
7.05247e-06
-1.52184e-05
3.71206e-05
8.53956e-06
-1.94427e-05
2.67e-05
9.90817e-06
-2.40348e-05
1.27143e-05
1.10239e-05
-2.8721e-05
7.87456e-06
-2.25795e-05
6.3965e-05
3.50756e-06
-2.83186e-07
6.49209e-05
4.74006e-06
-7.58061e-07
6.5224e-05
4.43289e-06
-1.1856e-06
6.49885e-05
3.86786e-06
-1.62796e-06
6.43929e-05
3.53854e-06
-2.20011e-06
6.34896e-05
3.51354e-06
-2.95213e-06
6.22602e-05
3.79437e-06
-3.93065e-06
6.06251e-05
4.36626e-06
-5.18814e-06
5.8451e-05
5.23684e-06
-6.7967e-06
5.55275e-05
6.42396e-06
-8.84304e-06
5.15544e-05
7.97186e-06
-1.14492e-05
4.60614e-05
9.8698e-06
-1.46865e-05
3.8395e-05
1.21938e-05
-1.87632e-05
2.77247e-05
1.45529e-05
-2.32227e-05
1.31687e-05
1.6671e-05
-2.77805e-05
1.24628e-05
-2.18516e-05
6.34381e-05
2.64208e-06
-2.53295e-07
6.42981e-05
3.94926e-06
-7.02913e-07
6.47342e-05
4.01638e-06
-1.11202e-06
6.47421e-05
3.81127e-06
-1.5354e-06
6.44021e-05
3.74167e-06
-2.08155e-06
6.37443e-05
3.9247e-06
-2.79656e-06
6.27535e-05
4.39983e-06
-3.7231e-06
6.13628e-05
5.18945e-06
-4.90923e-06
5.94521e-05
6.3321e-06
-6.42075e-06
5.6817e-05
7.88491e-06
-8.33915e-06
5.31526e-05
9.93445e-06
-1.07748e-05
4.7946e-05
1.255e-05
-1.38044e-05
4.04563e-05
1.58897e-05
-1.76111e-05
2.9635e-05
1.96471e-05
-2.1812e-05
1.42889e-05
2.3518e-05
-2.60999e-05
1.85306e-05
-2.05531e-05
6.31915e-05
2.0268e-06
-2.17807e-07
6.39736e-05
3.24343e-06
-6.36531e-07
6.44875e-05
3.53164e-06
-1.02364e-06
6.46733e-05
3.58893e-06
-1.42444e-06
6.45486e-05
3.74543e-06
-1.9393e-06
6.41238e-05
4.12457e-06
-2.60956e-06
6.33825e-05
4.78583e-06
-3.473e-06
6.22667e-05
5.78032e-06
-4.57215e-06
6.06666e-05
7.17764e-06
-5.96485e-06
5.83809e-05
9.08451e-06
-7.72591e-06
5.50981e-05
1.16444e-05
-9.95082e-06
5.02515e-05
1.50569e-05
-1.27232e-05
4.30122e-05
1.96096e-05
-1.61916e-05
3.20655e-05
2.52435e-05
-2.00702e-05
1.58305e-05
3.17783e-05
-2.40113e-05
2.65805e-05
-1.89783e-05
6.31039e-05
1.50343e-06
-1.77486e-07
6.38694e-05
2.56226e-06
-5.61019e-07
6.4459e-05
2.98208e-06
-9.23181e-07
6.47929e-05
3.23242e-06
-1.29827e-06
6.48612e-05
3.57468e-06
-1.77719e-06
6.46673e-05
4.11863e-06
-2.39566e-06
6.42025e-05
4.93091e-06
-3.18527e-06
6.34292e-05
6.08003e-06
-4.18095e-06
6.22717e-05
7.65677e-06
-5.42905e-06
6.05743e-05
9.81149e-06
-6.99187e-06
5.80883e-05
1.2737e-05
-8.93972e-06
5.42775e-05
1.681e-05
-1.13508e-05
4.83121e-05
2.25085e-05
-1.43112e-05
3.83014e-05
3.0594e-05
-1.76449e-05
2.16385e-05
4.15326e-05
-2.092e-05
4.14285e-05
-1.65392e-05
6.30957e-05
-1.34508e-07
9.92815e-07
6.38994e-05
-4.80423e-07
1.85165e-06
6.4582e-05
-8.15998e-07
2.35118e-06
6.50552e-05
-1.16371e-06
2.75163e-06
6.53005e-05
-1.60431e-06
3.24664e-06
6.53234e-05
-2.16755e-06
3.92287e-06
6.51251e-05
-2.8786e-06
4.84726e-06
6.46864e-05
-3.76447e-06
6.09966e-06
6.39576e-05
-4.85999e-06
7.78717e-06
6.28166e-05
-6.21489e-06
1.0102e-05
6.10614e-05
-7.87546e-06
1.32819e-05
5.8183e-05
-9.91492e-06
1.79129e-05
5.34238e-05
-1.2359e-05
2.46454e-05
4.45716e-05
-1.51477e-05
3.54509e-05
2.88156e-05
-1.77736e-05
5.13955e-05
-1.43276e-05
6.42475e-05
5.26766e-05
9.84425e-06
-1.70046e-07
4.65643e-05
6.10519e-06
-4.51115e-07
4.28988e-05
3.61184e-06
-6.96625e-07
4.08522e-05
1.93679e-06
-9.52418e-07
3.94458e-05
1.2222e-06
-1.29066e-06
3.82301e-05
9.35669e-07
-1.7364e-06
3.6951e-05
8.75138e-07
-2.31498e-06
3.54524e-05
9.32991e-07
-3.05245e-06
3.35999e-05
1.07253e-06
-3.98509e-06
3.12612e-05
1.26785e-06
-5.14543e-06
2.82614e-05
1.52803e-06
-6.58903e-06
2.44393e-05
1.79152e-06
-8.29089e-06
1.94775e-05
2.13343e-06
-1.03486e-05
1.33276e-05
2.28976e-06
-1.2337e-05
5.62775e-06
2.50289e-06
-1.41774e-05
1.14014e-06
-1.07191e-05
6.49586e-05
7.39575e-06
-2.98354e-07
6.45633e-05
6.46435e-06
-7.25499e-07
6.34101e-05
4.66286e-06
-1.08963e-06
6.20227e-05
3.14375e-06
-1.45909e-06
6.0586e-05
2.37565e-06
-1.93662e-06
5.90412e-05
2.06381e-06
-2.56705e-06
5.72633e-05
2.06279e-06
-3.38932e-06
5.51053e-05
2.27286e-06
-4.44334e-06
5.23999e-05
2.65637e-06
-5.78219e-06
4.89457e-05
3.18768e-06
-7.45765e-06
4.44931e-05
3.87581e-06
-9.54764e-06
3.87292e-05
4.65293e-06
-1.20384e-05
3.12453e-05
5.57903e-06
-1.50415e-05
2.16961e-05
6.31448e-06
-1.80306e-05
9.87581e-06
6.91528e-06
-2.07218e-05
4.5806e-06
-1.57095e-05
6.49791e-05
4.92599e-06
-3.1076e-07
6.57287e-05
5.67615e-06
-7.52124e-07
6.55047e-05
4.78101e-06
-1.12427e-06
6.47017e-05
3.76133e-06
-1.49967e-06
6.36056e-05
3.18218e-06
-1.98447e-06
6.2253e-05
2.99133e-06
-2.62478e-06
6.05844e-05
3.13009e-06
-3.46017e-06
5.8484e-05
3.54081e-06
-4.53135e-06
5.57945e-05
4.20567e-06
-5.89231e-06
5.23071e-05
5.11571e-06
-7.59703e-06
4.77492e-05
6.29478e-06
-9.7245e-06
4.17621e-05
7.68812e-06
-1.22665e-05
3.38697e-05
9.36048e-06
-1.53317e-05
2.36394e-05
1.09084e-05
-1.83984e-05
1.0785e-05
1.21993e-05
-2.11505e-05
8.78652e-06
-1.60004e-05
6.39005e-05
3.53752e-06
-2.95262e-07
6.47465e-05
4.7967e-06
-7.2456e-07
6.49209e-05
4.50754e-06
-1.08655e-06
6.45449e-05
3.96068e-06
-1.45126e-06
6.37918e-05
3.65697e-06
-1.92183e-06
6.27045e-05
3.66875e-06
-2.54224e-06
6.12527e-05
4.00131e-06
-3.35005e-06
5.93453e-05
4.64409e-06
-4.38402e-06
5.6839e-05
5.61078e-06
-5.69549e-06
5.35247e-05
6.92389e-06
-7.33697e-06
4.91151e-05
8.63852e-06
-9.38328e-06
4.32113e-05
1.07371e-05
-1.18317e-05
3.5271e-05
1.33195e-05
-1.47819e-05
2.47819e-05
1.59208e-05
-1.77461e-05
1.13188e-05
1.82841e-05
-2.04023e-05
1.36791e-05
-1.54253e-05
6.33761e-05
2.67788e-06
-2.69736e-07
6.41306e-05
4.01683e-06
-6.77566e-07
6.44442e-05
4.10582e-06
-1.0239e-06
6.43191e-05
3.92295e-06
-1.37257e-06
6.38313e-05
3.88455e-06
-1.82128e-06
6.30017e-05
4.11243e-06
-2.41069e-06
6.18042e-05
4.65088e-06
-3.17519e-06
6.01614e-05
5.52783e-06
-4.15015e-06
5.79438e-05
6.78981e-06
-5.38215e-06
5.4948e-05
8.50077e-06
-6.92024e-06
5.08805e-05
1.07623e-05
-8.83104e-06
4.5294e-05
1.36372e-05
-1.11181e-05
3.75477e-05
1.73185e-05
-1.38639e-05
2.68925e-05
2.14032e-05
-1.66392e-05
1.25592e-05
2.56279e-05
-1.91103e-05
2.01284e-05
-1.44431e-05
6.31325e-05
2.06706e-06
-2.39451e-07
6.38145e-05
3.31924e-06
-6.20989e-07
6.42131e-05
3.63221e-06
-9.48654e-07
6.42751e-05
3.71483e-06
-1.27826e-06
6.40141e-05
3.90687e-06
-1.70066e-06
6.34324e-05
4.33722e-06
-2.25261e-06
6.25037e-05
5.07115e-06
-2.96457e-06
6.11603e-05
6.16669e-06
-3.86762e-06
5.92842e-05
7.70346e-06
-5.00235e-06
5.66744e-05
9.79789e-06
-6.41328e-06
5.30291e-05
1.26133e-05
-8.15653e-06
4.784e-05
1.63466e-05
-1.02434e-05
4.03666e-05
2.13335e-05
-1.27332e-05
2.95714e-05
2.74017e-05
-1.52735e-05
1.42501e-05
3.44458e-05
-1.7508e-05
2.865e-05
-1.32499e-05
6.30482e-05
1.54646e-06
-2.05069e-07
6.37199e-05
2.64315e-06
-5.56656e-07
6.42026e-05
3.0895e-06
-8.63181e-07
6.44233e-05
3.36705e-06
-1.17112e-06
6.43688e-05
3.74749e-06
-1.56336e-06
6.40359e-05
4.34652e-06
-2.07207e-06
6.34075e-05
5.23714e-06
-2.72284e-06
6.24385e-05
6.49568e-06
-3.541e-06
6.10474e-05
8.22424e-06
-4.5587e-06
5.90804e-05
1.05854e-05
-5.81233e-06
5.62996e-05
1.37952e-05
-7.34096e-06
5.22188e-05
1.82344e-05
-9.15774e-06
4.60828e-05
2.44405e-05
-1.12822e-05
3.62296e-05
3.30645e-05
-1.34545e-05
2.03351e-05
4.46929e-05
-1.52725e-05
4.39829e-05
-1.1537e-05
6.30436e-05
-1.68454e-07
1.03678e-06
6.37602e-05
-4.88028e-07
1.93418e-06
6.43449e-05
-7.7202e-07
2.46082e-06
6.4716e-05
-1.05688e-06
2.88912e-06
6.48529e-05
-1.41695e-06
3.42318e-06
6.47556e-05
-1.87953e-06
4.15579e-06
6.44188e-05
-2.4651e-06
5.16053e-06
6.38173e-05
-3.19298e-06
6.52563e-06
6.2898e-05
-4.0867e-06
8.37026e-06
6.15417e-05
-5.17434e-06
1.09011e-05
5.95585e-05
-6.47835e-06
1.43813e-05
5.6482e-05
-8.01402e-06
1.94101e-05
5.16219e-05
-9.76198e-06
2.67037e-05
4.29517e-05
-1.15615e-05
3.81485e-05
2.78653e-05
-1.29738e-05
5.49795e-05
-9.95591e-06
6.74765e-05
5.26379e-05
9.84898e-06
-1.56976e-07
4.64587e-05
6.11604e-06
-3.8787e-07
4.27166e-05
3.62468e-06
-5.79218e-07
4.0587e-05
1.95192e-06
-7.74783e-07
3.90879e-05
1.24132e-06
-1.03283e-06
3.77641e-05
9.60634e-07
-1.37323e-06
3.63552e-05
9.08189e-07
-1.81434e-06
3.46993e-05
9.7684e-07
-2.37336e-06
3.26572e-05
1.13055e-06
-3.07349e-06
3.00982e-05
1.34409e-06
-3.93057e-06
2.68578e-05
1.62732e-06
-4.9759e-06
2.28173e-05
1.91971e-06
-6.17012e-06
1.7739e-05
2.29619e-06
-7.56645e-06
1.17432e-05
2.49926e-06
-8.84054e-06
4.73358e-06
2.74346e-06
-9.91125e-06
1.38756e-06
-7.373e-06
6.49055e-05
7.40838e-06
-2.63303e-07
6.44195e-05
6.48887e-06
-6.12319e-07
6.31581e-05
4.69403e-06
-8.9755e-07
6.16507e-05
3.18165e-06
-1.18137e-06
6.00787e-05
2.42357e-06
-1.54688e-06
5.83757e-05
2.12616e-06
-2.0296e-06
5.64076e-05
2.14521e-06
-2.6582e-06
5.40184e-05
2.38233e-06
-3.4597e-06
5.10337e-05
2.80169e-06
-4.46864e-06
4.72538e-05
3.379e-06
-5.71266e-06
4.24431e-05
4.1261e-06
-7.23565e-06
3.63503e-05
4.97323e-06
-8.99917e-06
2.86775e-05
5.9852e-06
-1.10577e-05
1.93407e-05
6.80757e-06
-1.30021e-05
8.47548e-06
7.48169e-06
-1.45948e-05
5.04142e-06
-1.08879e-05
6.49257e-05
4.94554e-06
-2.73659e-07
6.55835e-05
5.71328e-06
-6.34303e-07
6.52498e-05
4.8294e-06
-9.2593e-07
6.43251e-05
3.82096e-06
-1.21433e-06
6.30919e-05
3.25783e-06
-1.58545e-06
6.15791e-05
3.08994e-06
-2.07581e-06
5.9718e-05
3.26075e-06
-2.71458e-06
5.73835e-05
3.71488e-06
-3.52938e-06
5.44105e-05
4.43772e-06
-4.55538e-06
5.05916e-05
5.42249e-06
-5.82165e-06
4.56676e-05
6.69826e-06
-7.37265e-06
3.9342e-05
8.2056e-06
-9.17325e-06
3.12511e-05
1.00196e-05
-1.12752e-05
2.12316e-05
1.16994e-05
-1.32708e-05
9.35004e-06
1.31113e-05
-1.48985e-05
9.48027e-06
-1.10891e-05
6.38487e-05
3.5631e-06
-2.61535e-07
6.46052e-05
4.84499e-06
-6.12764e-07
6.46734e-05
4.57109e-06
-8.96421e-07
6.41799e-05
4.03959e-06
-1.17643e-06
6.3295e-05
3.75741e-06
-1.53649e-06
6.20541e-05
3.80003e-06
-2.01143e-06
6.0418e-05
4.17579e-06
-2.62895e-06
5.82865e-05
4.87749e-06
-3.41522e-06
5.55088e-05
5.92355e-06
-4.40357e-06
5.18765e-05
7.33999e-06
-5.62214e-06
4.71139e-05
9.19013e-06
-7.11262e-06
4.08819e-05
1.14502e-05
-8.84421e-06
3.2745e-05
1.42373e-05
-1.08627e-05
2.24554e-05
1.70281e-05
-1.27851e-05
9.93446e-06
1.9577e-05
-1.43471e-05
1.4659e-05
-1.06695e-05
6.33264e-05
2.70842e-06
-2.41432e-07
6.39952e-05
4.07441e-06
-5.75813e-07
6.42076e-05
4.18195e-06
-8.47205e-07
6.39715e-05
4.01784e-06
-1.11472e-06
6.33598e-05
4.00569e-06
-1.4578e-06
6.23867e-05
4.27116e-06
-1.90877e-06
6.10178e-05
4.8625e-06
-2.49298e-06
5.91673e-05
5.81207e-06
-3.23419e-06
5.66983e-05
7.1728e-06
-4.16242e-06
5.34078e-05
9.0139e-06
-5.30367e-06
4.90125e-05
1.14488e-05
-6.69438e-06
4.31193e-05
1.45346e-05
-8.30928e-06
3.51854e-05
1.84905e-05
-1.01834e-05
2.47128e-05
2.28374e-05
-1.19759e-05
1.12586e-05
2.73382e-05
-1.34173e-05
2.1446e-05
-9.97143e-06
6.30852e-05
2.10138e-06
-2.17606e-07
6.36862e-05
3.3838e-06
-5.31331e-07
6.39898e-05
3.71776e-06
-7.881e-07
6.39484e-05
3.82175e-06
-1.04076e-06
6.35732e-05
4.04367e-06
-1.36343e-06
6.28602e-05
4.51692e-06
-1.78545e-06
6.17759e-05
5.31152e-06
-2.32928e-06
6.0245e-05
6.49099e-06
-3.01563e-06
5.81427e-05
8.14311e-06
-3.87034e-06
5.5268e-05
1.03919e-05
-4.91663e-06
5.13276e-05
1.34167e-05
-6.184e-06
4.58611e-05
1.74118e-05
-7.65413e-06
3.82157e-05
2.27497e-05
-9.34695e-06
2.75869e-05
2.91699e-05
-1.09771e-05
1.30632e-05
3.66174e-05
-1.22636e-05
3.03788e-05
-9.11932e-06
6.30038e-05
1.58311e-06
-1.90564e-07
6.35997e-05
2.712e-06
-4.80762e-07
6.39944e-05
3.18083e-06
-7.2099e-07
6.41205e-05
3.48133e-06
-9.5679e-07
6.3963e-05
3.89388e-06
-1.2561e-06
6.35136e-05
4.53904e-06
-1.6448e-06
6.27491e-05
5.49506e-06
-2.14182e-06
6.16184e-05
6.84452e-06
-2.76386e-06
6.00351e-05
8.6988e-06
-3.53104e-06
5.78461e-05
1.12302e-05
-4.46167e-06
5.48225e-05
1.46739e-05
-5.57448e-06
5.05186e-05
1.94133e-05
-6.85534e-06
4.42532e-05
2.60327e-05
-8.29975e-06
3.45617e-05
3.5096e-05
-9.68919e-06
1.93483e-05
4.72776e-05
-1.07192e-05
4.61457e-05
-7.95569e-06
6.30022e-05
-1.61784e-07
1.0742e-06
6.36486e-05
-4.26834e-07
2.0044e-06
6.41529e-05
-6.49435e-07
2.55401e-06
6.44388e-05
-8.6728e-07
3.00579e-06
6.44847e-05
-1.14167e-06
3.57267e-06
6.42866e-05
-1.49482e-06
4.35248e-06
6.38342e-05
-1.94191e-06
5.42423e-06
6.30983e-05
-2.49545e-06
6.88289e-06
6.20226e-05
-3.16963e-06
8.85746e-06
6.04899e-05
-3.97768e-06
1.15662e-05
5.832e-05
-4.92755e-06
1.52931e-05
5.50813e-05
-6.00936e-06
2.06473e-05
5.01482e-05
-7.19424e-06
2.83981e-05
4.16543e-05
-8.33526e-06
4.03636e-05
2.7161e-05
-9.11297e-06
5.79101e-05
-6.86029e-06
7.0211e-05
5.26089e-05
9.85267e-06
-1.1858e-07
4.63789e-05
6.12456e-06
-2.82396e-07
4.25782e-05
3.63474e-06
-4.133e-07
4.03852e-05
1.96381e-06
-5.4557e-07
3.88156e-05
1.25634e-06
-7.19573e-07
3.74113e-05
9.80245e-07
-9.49175e-07
3.5909e-05
9.3419e-07
-1.24625e-06
3.41453e-05
1.01148e-06
-1.6211e-06
3.19825e-05
1.17671e-06
-2.08737e-06
2.9298e-05
1.40556e-06
-2.6517e-06
2.59435e-05
1.70893e-06
-3.33032e-06
2.18334e-05
2.02803e-06
-4.08809e-06
1.67797e-05
2.43842e-06
-4.95111e-06
1.09555e-05
2.68657e-06
-5.70291e-06
4.35658e-06
2.96925e-06
-6.28157e-06
1.60872e-06
-4.62511e-06
6.48655e-05
7.41832e-06
-1.94462e-07
6.43105e-05
6.50816e-06
-4.40957e-07
6.29662e-05
4.71849e-06
-6.36969e-07
6.13667e-05
3.21139e-06
-8.29445e-07
5.96916e-05
2.46111e-06
-1.07652e-06
5.78701e-05
2.1749e-06
-1.40274e-06
5.57634e-05
2.20952e-06
-1.82688e-06
5.32131e-05
2.46756e-06
-2.36546e-06
5.00455e-05
2.91461e-06
-3.03899e-06
4.60715e-05
3.52747e-06
-3.86056e-06
4.10773e-05
4.32016e-06
-4.85262e-06
3.48612e-05
5.22197e-06
-5.977e-06
2.71969e-05
6.3012e-06
-7.25621e-06
1.81025e-05
7.19282e-06
-8.41397e-06
7.83396e-06
7.92773e-06
-9.28469e-06
5.40557e-06
-6.85071e-06
6.48855e-05
4.96092e-06
-2.01759e-07
6.54734e-05
5.74247e-06
-4.56532e-07
6.50557e-05
4.86739e-06
-6.57093e-07
6.40377e-05
3.86774e-06
-8.52666e-07
6.26999e-05
3.31703e-06
-1.10357e-06
6.10671e-05
3.1669e-06
-1.435e-06
5.90657e-05
3.36238e-06
-1.8661e-06
5.65679e-05
3.84973e-06
-2.41377e-06
5.34095e-05
4.61656e-06
-3.09893e-06
4.93934e-05
5.65749e-06
-3.93553e-06
4.42822e-05
7.00502e-06
-4.94629e-06
3.78298e-05
8.59598e-06
-6.09483e-06
2.97452e-05
1.05122e-05
-7.40152e-06
1.99712e-05
1.22863e-05
-8.59028e-06
8.69746e-06
1.37826e-05
-9.47964e-06
9.99176e-06
-6.97782e-06
6.38097e-05
3.58323e-06
-1.93502e-07
6.44982e-05
4.88295e-06
-4.41769e-07
6.4485e-05
4.62099e-06
-6.36846e-07
6.39015e-05
4.10145e-06
-8.26636e-07
6.29161e-05
3.83596e-06
-1.06999e-06
6.15601e-05
3.90236e-06
-1.39091e-06
5.97899e-05
4.31122e-06
-1.80759e-06
5.75028e-05
5.05765e-06
-2.33601e-06
5.45484e-05
6.16326e-06
-2.9959e-06
5.07284e-05
7.65604e-06
-3.80068e-06
4.5788e-05
9.60427e-06
-4.77146e-06
3.94361e-05
1.19784e-05
-5.87476e-06
3.1307e-05
1.49061e-05
-7.12749e-06
2.12545e-05
1.78229e-05
-8.26931e-06
9.3187e-06
2.0489e-05
-9.11768e-06
1.53451e-05
-6.70417e-06
6.3289e-05
2.73245e-06
-1.79618e-07
6.38927e-05
4.11966e-06
-4.16298e-07
6.40278e-05
4.24171e-06
-6.0297e-07
6.37065e-05
4.0922e-06
-7.84212e-07
6.30004e-05
4.10034e-06
-1.016e-06
6.19198e-05
4.39474e-06
-1.32062e-06
6.04264e-05
5.02646e-06
-1.71476e-06
5.84318e-05
6.03086e-06
-2.21283e-06
5.58001e-05
7.46502e-06
-2.83253e-06
5.23377e-05
9.40094e-06
-3.58608e-06
4.77801e-05
1.19589e-05
-4.49153e-06
4.17794e-05
1.51894e-05
-5.51944e-06
3.38561e-05
1.93266e-05
-6.6806e-06
2.36071e-05
2.38376e-05
-7.74157e-06
1.06965e-05
2.85004e-05
-8.51815e-06
2.23281e-05
-6.25776e-06
6.30497e-05
2.12836e-06
-1.63212e-07
6.35892e-05
3.43453e-06
-3.85669e-07
6.38202e-05
3.7849e-06
-5.62285e-07
6.36995e-05
3.90548e-06
-7.33363e-07
6.32372e-05
4.15048e-06
-9.51231e-07
6.2426e-05
4.65667e-06
-1.23617e-06
6.12287e-05
5.4974e-06
-1.60298e-06
5.95682e-05
6.73989e-06
-2.06411e-06
5.73204e-05
8.47705e-06
-2.63463e-06
5.42931e-05
1.08368e-05
-3.3252e-06
5.02102e-05
1.40075e-05
-4.14971e-06
4.46521e-05
1.81771e-05
-5.08376e-06
3.70225e-05
2.37387e-05
-6.12941e-06
2.66027e-05
3.03686e-05
-7.08846e-06
1.25712e-05
3.80401e-05
-7.77172e-06
3.14886e-05
-5.70867e-06
6.29705e-05
1.6119e-06
-1.44579e-07
6.3509e-05
2.76607e-06
-3.5084e-07
6.38365e-05
3.25247e-06
-5.16106e-07
6.38901e-05
3.5708e-06
-6.7567e-07
6.3654e-05
4.00812e-06
-8.77639e-07
6.31172e-05
4.68865e-06
-1.13999e-06
6.22537e-05
5.69429e-06
-1.47521e-06
6.10113e-05
7.11174e-06
-1.89327e-06
5.93048e-05
9.05817e-06
-2.40571e-06
5.69897e-05
1.17107e-05
-3.02049e-06
5.38531e-05
1.5315e-05
-3.74534e-06
4.94846e-05
2.02501e-05
-4.55976e-06
4.32508e-05
2.71249e-05
-5.45223e-06
3.37582e-05
3.64391e-05
-6.26709e-06
1.89697e-05
4.89138e-05
-6.80439e-06
4.74905e-05
-4.98786e-06
6.29713e-05
-1.2476e-07
1.10359e-06
6.35647e-05
-3.13709e-07
2.05953e-06
6.40075e-05
-4.66875e-07
2.62709e-06
6.42281e-05
-6.1417e-07
3.09708e-06
6.42045e-05
-7.99167e-07
3.68928e-06
6.39305e-05
-1.03739e-06
4.50523e-06
6.3394e-05
-1.3389e-06
5.62773e-06
6.25652e-05
-1.71099e-06
7.15612e-06
6.13898e-05
-2.16155e-06
9.22543e-06
5.97588e-05
-2.69562e-06
1.20597e-05
5.75072e-05
-3.31462e-06
1.59537e-05
5.42341e-05
-4.00194e-06
2.15158e-05
4.93556e-05
-4.7323e-06
2.95414e-05
4.1061e-05
-5.39568e-06
4.17942e-05
2.69418e-05
-5.7876e-06
5.97076e-05
-4.29641e-06
7.18684e-05
5.25895e-05
9.8552e-06