/*--------------------------------*- C++ -*----------------------------------*\
| =========                 |                                                 |
| \\      /  F ield         | OpenFOAM: The Open Source CFD Toolbox           |
|  \\    /   O peration     | Version:  v1912                                 |
|   \\  /    A nd           | Website:  www.openfoam.com                      |
|    \\/     M anipulation  |                                                 |
\*---------------------------------------------------------------------------*/
FoamFile
{
    version     2.0;
    format      ascii;
    class       volVectorField;
    location    "0.88/solid";
    object      D_0_0;
}
// * * * * * * * * * * * * * * * * * * * * * * * * * * * * * * * * * * * * * //

dimensions      [0 1 0 0 0 0 0];


internalField   nonuniform List<vector> 
256
(
(3.0029e-08 4.19002e-08 3.32033e-08)
(4.14824e-09 2.46231e-08 3.03671e-08)
(-4.16434e-09 2.42048e-08 3.01814e-08)
(-2.89641e-08 4.02056e-08 3.27171e-08)
(4.97261e-08 3.30246e-08 6.53735e-08)
(1.03751e-08 2.2207e-08 6.15666e-08)
(-9.47981e-09 2.16471e-08 6.13191e-08)
(-4.73651e-08 3.1202e-08 6.47041e-08)
(5.27513e-08 1.57616e-08 8.38079e-08)
(1.19393e-08 1.14064e-08 7.96362e-08)
(-9.90555e-09 1.08196e-08 7.93994e-08)
(-4.92531e-08 1.39808e-08 8.31517e-08)
(5.21646e-08 -2.52007e-10 9.83437e-08)
(1.17807e-08 -2.57416e-09 9.36429e-08)
(-8.59232e-09 -3.16322e-09 9.34149e-08)
(-4.75101e-08 -2.0191e-09 9.77033e-08)
(5.29666e-08 -1.58891e-08 1.12701e-07)
(1.20801e-08 -1.89627e-08 1.0738e-07)
(-7.74589e-09 -1.95532e-08 1.07148e-07)
(-4.7145e-08 -1.76532e-08 1.12046e-07)
(5.78771e-08 -3.35996e-08 1.28872e-07)
(1.40424e-08 -3.81459e-08 1.2299e-07)
(-8.58757e-09 -3.87389e-08 1.22742e-07)
(-5.09168e-08 -3.53553e-08 1.2817e-07)
(6.94267e-08 -6.06139e-08 1.47973e-07)
(1.83315e-08 -6.40487e-08 1.42141e-07)
(-1.18431e-08 -6.46151e-08 1.41866e-07)
(-6.14078e-08 -6.22825e-08 1.47194e-07)
(8.54297e-08 -1.21028e-07 1.66526e-07)
(2.29646e-08 -1.16975e-07 1.61936e-07)
(-1.56946e-08 -1.1723e-07 1.61624e-07)
(-7.6506e-08 -1.21856e-07 1.65648e-07)
(2.08027e-08 1.88085e-08 7.36386e-09)
(2.20271e-09 4.61289e-09 8.85057e-09)
(-2.11476e-09 4.35354e-09 8.87758e-09)
(-1.96887e-08 1.75252e-08 7.43849e-09)
(3.48329e-08 1.20921e-08 2.76731e-08)
(6.60753e-09 3.04352e-09 3.05772e-08)
(-5.51864e-09 2.5676e-09 3.05997e-08)
(-3.2398e-08 1.04805e-08 2.77362e-08)
(3.66315e-08 -9.36309e-11 4.48527e-08)
(7.72506e-09 -3.84268e-09 4.82073e-08)
(-5.46939e-09 -4.39975e-09 4.82362e-08)
(-3.30603e-08 -1.80154e-09 4.49304e-08)
(3.57051e-08 -1.32964e-08 5.89602e-08)
(7.51791e-09 -1.54179e-08 6.23192e-08)
(-4.09491e-09 -1.59976e-08 6.2357e-08)
(-3.09749e-08 -1.50436e-08 5.90574e-08)
(3.62206e-08 -2.73832e-08 7.21372e-08)
(7.79149e-09 -3.03993e-08 7.53331e-08)
(-3.20739e-09 -3.09871e-08 7.53711e-08)
(-3.03062e-08 -2.91472e-08 7.22294e-08)
(4.09453e-08 -4.30715e-08 8.56678e-08)
(9.73773e-09 -4.76883e-08 8.8667e-08)
(-4.00947e-09 -4.82829e-08 8.86945e-08)
(-3.38582e-08 -4.48413e-08 8.57243e-08)
(5.28329e-08 -6.48303e-08 9.87247e-08)
(1.41143e-08 -6.82317e-08 1.01636e-07)
(-7.31839e-09 -6.88108e-08 1.01645e-07)
(-4.46363e-08 -6.65418e-08 9.87231e-08)
(7.00073e-08 -1.13998e-07 1.061e-07)
(1.88982e-08 -1.08719e-07 1.09049e-07)
(-1.12744e-08 -1.0901e-07 1.09046e-07)
(-6.08429e-08 -1.1492e-07 1.06056e-07)
(1.43229e-08 1.15084e-08 3.56344e-09)
(4.78573e-10 -2.90547e-10 5.59337e-09)
(-3.95358e-10 -5.1131e-10 5.61967e-09)
(-1.32481e-08 1.03367e-08 3.63895e-09)
(2.39845e-08 1.43056e-09 1.71628e-08)
(3.12411e-09 -6.00883e-09 2.10088e-08)
(-2.04595e-09 -6.44354e-09 2.10478e-08)
(-2.16065e-08 -7.50631e-11 1.72786e-08)
(2.49304e-08 -1.05605e-08 3.18488e-08)
(3.79811e-09 -1.37403e-08 3.62637e-08)
(-1.5481e-09 -1.42731e-08 3.63067e-08)
(-2.14171e-08 -1.22098e-08 3.19768e-08)
(2.39328e-08 -2.22788e-08 4.52073e-08)
(3.56232e-09 -2.42978e-08 4.97177e-08)
(-1.34089e-10 -2.48689e-08 4.97635e-08)
(-1.92532e-08 -2.40093e-08 4.53409e-08)
(2.44226e-08 -3.41622e-08 5.73265e-08)
(3.83702e-09 -3.72325e-08 6.17847e-08)
(7.67597e-10 -3.78225e-08 6.18287e-08)
(-1.8541e-08 -3.59395e-08 5.74507e-08)
(2.92093e-08 -4.65244e-08 6.83062e-08)
(5.7924e-09 -5.12544e-08 7.26657e-08)
(-2.30153e-11 -5.18599e-08 7.27018e-08)
(-2.21247e-08 -4.83328e-08 6.84021e-08)
(4.13913e-08 -6.33326e-08 7.66791e-08)
(1.02411e-08 -6.68279e-08 8.09246e-08)
(-3.37749e-09 -6.74274e-08 8.09504e-08)
(-3.31546e-08 -6.51076e-08 7.67375e-08)
(5.89272e-08 -1.0639e-07 7.90475e-08)
(1.51172e-08 -1.01078e-07 8.32163e-08)
(-7.39165e-09 -1.01397e-07 8.32405e-08)
(-4.96712e-08 -1.07389e-07 7.9091e-08)
(1.13679e-08 9.16249e-09 3.19949e-09)
(-2.62336e-10 -1.21865e-09 4.52085e-09)
(3.28476e-10 -1.4325e-09 4.5365e-09)
(-1.03406e-08 8.0261e-09 3.24924e-09)
(1.89145e-08 -2.85445e-09 1.33401e-08)
(1.5022e-09 -9.31553e-09 1.58576e-08)
(-4.7545e-10 -9.73679e-09 1.58873e-08)
(-1.66235e-08 -4.31878e-09 1.34353e-08)
(1.95639e-08 -1.57632e-08 2.50389e-08)
(1.97096e-09 -1.86024e-08 2.79186e-08)
(2.1353e-10 -1.91238e-08 2.7953e-08)
(-1.61485e-08 -1.73834e-08 2.515e-08)
(1.87543e-08 -2.70579e-08 3.64175e-08)
(1.78985e-09 -2.90523e-08 3.9328e-08)
(1.57504e-09 -2.96191e-08 3.93632e-08)
(-1.4169e-08 -2.87809e-08 3.65303e-08)
(1.9459e-08 -3.73356e-08 4.66459e-08)
(2.14218e-09 -4.04811e-08 4.94892e-08)
(2.41071e-09 -4.10747e-08 4.95218e-08)
(-1.36578e-08 -3.91281e-08 4.67489e-08)
(2.44281e-08 -4.72453e-08 5.50857e-08)
(4.14701e-09 -5.20768e-08 5.78444e-08)
(1.58807e-09 -5.2693e-08 5.78714e-08)
(-1.74002e-08 -4.90892e-08 5.51681e-08)
(3.66827e-08 -6.13376e-08 6.05253e-08)
(8.59837e-09 -6.50299e-08 6.32131e-08)
(-1.74767e-09 -6.56453e-08 6.32342e-08)
(-2.84702e-08 -6.31626e-08 6.05841e-08)
(5.40746e-08 -1.01744e-07 6.1443e-08)
(1.34576e-08 -9.69726e-08 6.41599e-08)
(-5.71965e-09 -9.73097e-08 6.41819e-08)
(-4.48047e-08 -1.02796e-07 6.14958e-08)
(1.02563e-08 8.22012e-09 2.88309e-09)
(-4.44591e-10 -1.44827e-09 3.55026e-09)
(4.97551e-10 -1.65941e-09 3.56008e-09)
(-9.2643e-09 7.10554e-09 2.91622e-09)
(1.70696e-08 -4.38117e-09 1.05934e-08)
(1.0466e-09 -1.03713e-08 1.1853e-08)
(-6.53542e-11 -1.07876e-08 1.18742e-08)
(-1.48523e-08 -5.82454e-09 1.06641e-08)
(1.77467e-08 -1.77626e-08 1.93924e-08)
(1.48715e-09 -2.0467e-08 2.08075e-08)
(6.32169e-10 -2.09838e-08 2.08335e-08)
(-1.44221e-08 -1.93691e-08 1.94797e-08)
(1.71939e-08 -2.89502e-08 2.81681e-08)
(1.39347e-09 -3.09764e-08 2.95568e-08)
(1.90169e-09 -3.1542e-08 2.95837e-08)
(-1.27018e-08 -3.06714e-08 2.82582e-08)
(1.81508e-08 -3.83995e-08 3.60252e-08)
(1.8378e-09 -4.16168e-08 3.73393e-08)
(2.65149e-09 -4.22139e-08 3.73642e-08)
(-1.24344e-08 -4.02046e-08 3.61085e-08)
(2.32693e-08 -4.70913e-08 4.21911e-08)
(3.8873e-09 -5.19927e-08 4.34414e-08)
(1.79683e-09 -5.26169e-08 4.34624e-08)
(-1.63097e-08 -4.8961e-08 4.22604e-08)
(3.54634e-08 -6.00825e-08 4.58651e-08)
(8.30366e-09 -6.39329e-08 4.70921e-08)
(-1.48776e-09 -6.4559e-08 4.71096e-08)
(-2.72961e-08 -6.19415e-08 4.59196e-08)
(5.26035e-08 -9.92773e-08 4.64856e-08)
(1.3112e-08 -9.50007e-08 4.7784e-08)
(-5.39036e-09 -9.53493e-08 4.78026e-08)
(-4.33525e-08 -1.00364e-07 4.6537e-08)
(9.85271e-09 7.78604e-09 2.26497e-09)
(-4.47251e-10 -1.54294e-09 2.56571e-09)
(4.9127e-10 -1.75198e-09 2.57206e-09)
(-8.88366e-09 6.68703e-09 2.28656e-09)
(1.6489e-08 -4.84952e-09 7.76835e-09)
(1.00733e-09 -1.06449e-08 8.31831e-09)
(-5.88745e-11 -1.10583e-08 8.33274e-09)
(-1.43231e-08 -6.27862e-09 7.8167e-09)
(1.72935e-08 -1.82749e-08 1.38782e-08)
(1.48494e-09 -2.09534e-08 1.44713e-08)
(5.84087e-10 -2.14682e-08 1.44898e-08)
(-1.40362e-08 -1.98733e-08 1.39402e-08)
(1.69545e-08 -2.93769e-08 1.99804e-08)
(1.46762e-09 -3.14531e-08 2.0531e-08)
(1.77011e-09 -3.20188e-08 2.05505e-08)
(-1.25352e-08 -3.10982e-08 2.00462e-08)
(1.80996e-08 -3.8497e-08 2.54243e-08)
(1.98051e-09 -4.17692e-08 2.59157e-08)
(2.45311e-09 -4.23691e-08 2.5934e-08)
(-1.24526e-08 -4.03111e-08 2.54864e-08)
(2.33038e-08 -4.67655e-08 2.96122e-08)
(4.05583e-09 -5.17038e-08 3.00654e-08)
(1.58043e-09 -5.23332e-08 3.00813e-08)
(-1.64034e-08 -4.8652e-08 2.96658e-08)
(3.54094e-08 -5.94274e-08 3.20633e-08)
(8.43428e-09 -6.33601e-08 3.25187e-08)
(-1.65519e-09 -6.39929e-08 3.25326e-08)
(-2.72862e-08 -6.1308e-08 3.21078e-08)
(5.23375e-08 -9.80094e-08 3.25769e-08)
(1.31962e-08 -9.40272e-08 3.30949e-08)
(-5.49885e-09 -9.43829e-08 3.31095e-08)
(-4.31134e-08 -9.91184e-08 3.26197e-08)
(9.69002e-09 7.58849e-09 1.43292e-09)
(-4.24147e-10 -1.5798e-09 1.55829e-09)
(4.62677e-10 -1.7874e-09 1.56195e-09)
(-8.73446e-09 6.49931e-09 1.44523e-09)
(1.63002e-08 -4.94281e-09 4.74472e-09)
(1.04465e-09 -1.06643e-08 4.96366e-09)
(-1.16851e-10 -1.10757e-08 4.97214e-09)
(-1.41655e-08 -6.36235e-09 4.77286e-09)
(1.72128e-08 -1.82641e-08 8.33923e-09)
(1.56043e-09 -2.09522e-08 8.56191e-09)
(4.75649e-10 -2.14658e-08 8.57299e-09)
(-1.39981e-08 -1.98572e-08 8.3761e-09)
(1.70111e-08 -2.92819e-08 1.19075e-08)
(1.5927e-09 -3.1399e-08 1.20981e-08)
(1.60575e-09 -3.19648e-08 1.211e-08)
(-1.26397e-08 -3.1003e-08 1.19474e-08)
(1.82676e-08 -3.83008e-08 1.50805e-08)
(2.14561e-09 -4.16072e-08 1.5236e-08)
(2.24835e-09 -4.22087e-08 1.52474e-08)
(-1.26679e-08 -4.01201e-08 1.51189e-08)
(2.35127e-08 -4.64881e-08 1.75092e-08)
(4.23274e-09 -5.14412e-08 1.76464e-08)
(1.36791e-09 -5.20736e-08 1.76565e-08)
(-1.6654e-08 -4.83844e-08 1.75432e-08)
(3.55503e-08 -5.91012e-08 1.89386e-08)
(8.58461e-09 -6.30643e-08 1.90839e-08)
(-1.83452e-09 -6.3701e-08 1.90929e-08)
(-2.74601e-08 -6.09943e-08 1.89677e-08)
(5.2338e-08 -9.7373e-08 1.92912e-08)
(1.33148e-08 -9.35306e-08 1.94746e-08)
(-5.63887e-09 -9.38903e-08 1.9484e-08)
(-4.31366e-08 -9.84948e-08 1.93194e-08)
(9.625e-09 7.51291e-09 4.89016e-10)
(-4.11393e-10 -1.58909e-09 5.23494e-10)
(4.47327e-10 -1.79596e-09 5.24694e-10)
(-8.67567e-09 6.42844e-09 4.93021e-10)
(1.62329e-08 -4.93815e-09 1.595e-09)
(1.06807e-09 -1.06347e-08 1.65321e-09)
(-1.50156e-10 -1.1045e-08 1.65601e-09)
(-1.41129e-08 -6.35286e-09 1.60424e-09)
(1.71998e-08 -1.81761e-08 2.78119e-09)
(1.60364e-09 -2.08745e-08 2.83773e-09)
(4.16335e-10 -2.13874e-08 2.84143e-09)
(-1.40057e-08 -1.97663e-08 2.7934e-09)
(1.70625e-08 -2.91428e-08 3.95315e-09)
(1.65902e-09 -3.12814e-08 3.99832e-09)
(1.51977e-09 -3.18473e-08 4.00231e-09)
(-1.27145e-08 -3.08638e-08 3.9665e-09)
(1.83688e-08 -3.81396e-08 4.99336e-09)
(2.2295e-09 -4.14617e-08 5.02715e-09)
(2.14412e-09 -4.2064e-08 5.03101e-09)
(-1.27926e-08 -3.99612e-08 5.00635e-09)
(2.36294e-08 -4.63347e-08 5.78925e-09)
(4.32094e-09 -5.1292e-08 5.81783e-09)
(1.261e-09 -5.19258e-08 5.82131e-09)
(-1.67921e-08 -4.82355e-08 5.80089e-09)
(3.56325e-08 -5.89617e-08 6.26095e-09)
(8.65985e-09 -6.29324e-08 6.29328e-09)
(-1.92547e-09 -6.35708e-08 6.29641e-09)
(-2.75596e-08 -6.08605e-08 6.27107e-09)
(5.23516e-08 -9.71039e-08 6.38658e-09)
(1.33743e-08 -9.33133e-08 6.43135e-09)
(-5.71052e-09 -9.36749e-08 6.43462e-09)
(-4.31629e-08 -9.82316e-08 6.39641e-09)
)
;

boundaryField
{
    interface
    {
        type            solidTraction;
        traction        uniform (0 0 0);
        pressure        uniform 0;
        secondOrder     false;
        setEffectiveTraction false;
        relaxationFactor 1;
        value           nonuniform List<vector> 
192
(
(8.89991e-08 6.18389e-08 3.05997e-08)
(1.05047e-07 3.87051e-08 6.1042e-08)
(1.09249e-07 1.63712e-08 7.91281e-08)
(1.10447e-07 -1.98128e-10 9.36387e-08)
(1.13377e-07 -1.44608e-08 1.08004e-07)
(1.21018e-07 -2.94843e-08 1.24206e-07)
(1.36184e-07 -5.37254e-08 1.43412e-07)
(1.59123e-07 -1.16367e-07 1.62148e-07)
(6.95558e-08 3.27173e-08 3.43715e-09)
(8.11773e-08 1.60493e-08 2.12373e-08)
(8.36403e-08 1.24394e-10 3.78971e-08)
(8.40389e-08 -1.33991e-08 5.19019e-08)
(8.64453e-08 -2.6073e-08 6.50008e-08)
(9.39497e-08 -3.89182e-08 7.85004e-08)
(1.10121e-07 -5.75645e-08 9.17156e-08)
(1.36817e-07 -1.09151e-07 9.94739e-08)
(5.67957e-08 2.10852e-08 1.20457e-09)
(6.54982e-08 4.08239e-09 1.31829e-08)
(6.72022e-08 -1.05734e-08 2.75815e-08)
(6.74548e-08 -2.24057e-08 4.09693e-08)
(6.98352e-08 -3.28429e-08 5.31358e-08)
(7.75679e-08 -4.2282e-08 6.41766e-08)
(9.446e-08 -5.59027e-08 7.26413e-08)
(1.22206e-07 -1.01428e-07 7.50641e-08)
(5.01099e-08 1.67331e-08 2.18272e-09)
(5.72222e-08 -8.05485e-10 1.16111e-08)
(5.875e-08 -1.58033e-08 2.32428e-08)
(5.92216e-08 -2.70841e-08 3.47326e-08)
(6.18643e-08 -3.5917e-08 4.50778e-08)
(6.98909e-08 -4.2939e-08 5.36005e-08)
(8.70563e-08 -5.39256e-08 5.90431e-08)
(1.14778e-07 -9.67395e-08 5.9862e-08)
(4.68087e-08 1.50515e-08 2.50423e-09)
(5.33274e-08 -2.50859e-09 9.98692e-09)
(5.49506e-08 -1.77315e-08 1.88247e-08)
(5.57283e-08 -2.88491e-08 2.7718e-08)
(5.86757e-08 -3.68805e-08 3.56852e-08)
(6.69185e-08 -4.27628e-08 4.19099e-08)
(8.40984e-08 -5.27486e-08 4.55466e-08)
(1.11501e-07 -9.42746e-08 4.60512e-08)
(4.51322e-08 1.43714e-08 2.12337e-09)
(5.15113e-08 -2.98933e-09 7.57592e-09)
(5.32973e-08 -1.81585e-08 1.37446e-08)
(5.43288e-08 -2.91753e-08 1.99346e-08)
(5.75055e-08 -3.69095e-08 2.54534e-08)
(6.58705e-08 -4.24377e-08 2.96729e-08)
(8.29801e-08 -5.21686e-08 3.20849e-08)
(1.10074e-07 -9.30282e-08 3.25105e-08)
(4.42643e-08 1.4086e-08 1.37597e-09)
(5.06295e-08 -3.06214e-09 4.68066e-09)
(5.2542e-08 -1.80864e-08 8.31575e-09)
(5.37368e-08 -2.90181e-08 1.19344e-08)
(5.70506e-08 -3.66753e-08 1.51478e-08)
(6.54742e-08 -4.21671e-08 1.75905e-08)
(8.25143e-08 -5.18945e-08 1.89943e-08)
(1.09394e-07 -9.24154e-08 1.92947e-08)
(4.38838e-08 1.39774e-08 4.72752e-10)
(5.02512e-08 -3.04444e-09 1.57817e-09)
(5.22261e-08 -1.79687e-08 2.77794e-09)
(5.34974e-08 -2.88505e-08 3.96598e-09)
(5.6873e-08 -3.64977e-08 5.01863e-09)
(6.53192e-08 -4.20184e-08 5.81843e-09)
(8.23209e-08 -5.17807e-08 6.28149e-09)
(1.09094e-07 -9.21605e-08 6.38998e-09)
(3.06223e-08 6.65445e-08 9.33851e-08)
(5.09411e-08 4.56759e-08 1.21561e-07)
(5.40495e-08 2.40043e-08 1.41186e-07)
(5.33431e-08 6.97137e-09 1.57633e-07)
(5.39861e-08 -8.25693e-09 1.74204e-07)
(5.87406e-08 -2.47814e-08 1.93056e-07)
(7.02504e-08 -5.12003e-08 2.15606e-07)
(8.64727e-08 -1.16016e-07 2.40946e-07)
(3.3931e-09 4.76066e-08 8.407e-08)
(9.36214e-09 3.45244e-08 1.11461e-07)
(1.0838e-08 1.94256e-08 1.29791e-07)
(1.05493e-08 4.36178e-09 1.45076e-07)
(1.06927e-08 -1.16259e-08 1.60646e-07)
(1.2511e-08 -2.94555e-08 1.78767e-07)
(1.68056e-08 -5.4312e-08 2.01789e-07)
(2.17401e-08 -1.11753e-07 2.31027e-07)
(-3.57649e-09 4.708e-08 8.2911e-08)
(-8.69478e-09 3.39517e-08 1.1029e-07)
(-9.02587e-09 1.88436e-08 1.28601e-07)
(-7.57637e-09 3.77396e-09 1.43866e-07)
(-6.57852e-09 -1.22213e-08 1.59411e-07)
(-7.29154e-09 -3.00594e-08 1.77497e-07)
(-1.0579e-08 -5.48948e-08 2.00474e-07)
(-1.47654e-08 -1.12014e-07 2.29679e-07)
(-2.96643e-08 6.4561e-08 9.01104e-08)
(-4.87302e-08 4.38107e-08 1.18242e-07)
(-5.06997e-08 2.22307e-08 1.3778e-07)
(-4.88351e-08 5.20441e-09 1.5416e-07)
(-4.83174e-08 -1.00365e-08 1.70656e-07)
(-5.19491e-08 -2.65684e-08 1.8941e-07)
(-6.24255e-08 -5.2913e-08 2.11841e-07)
(-7.7773e-08 -1.16861e-07 2.37151e-07)
(-8.30344e-08 5.92881e-08 3.00483e-08)
(-9.77314e-08 3.62744e-08 6.02799e-08)
(-1.00696e-07 1.40172e-08 7.83804e-08)
(-1.00627e-07 -2.54606e-09 9.29073e-08)
(-1.02289e-07 -1.68015e-08 1.0725e-07)
(-1.08702e-07 -3.17897e-08 1.2339e-07)
(-1.22729e-07 -5.58853e-08 1.42492e-07)
(-1.44627e-07 -1.17596e-07 1.611e-07)
(-6.36324e-08 3.05469e-08 3.50942e-09)
(-7.3971e-08 1.38235e-08 2.12965e-08)
(-7.52188e-08 -2.15724e-09 3.79714e-08)
(-7.43498e-08 -1.57321e-08 5.19931e-08)
(-7.54555e-08 -2.84264e-08 6.50783e-08)
(-8.16681e-08 -4.12588e-08 7.85263e-08)
(-9.66126e-08 -5.97956e-08 9.16598e-08)
(-1.22179e-07 -1.10504e-07 9.93472e-08)
(-5.107e-08 1.90503e-08 1.3019e-09)
(-5.84968e-08 1.96722e-09 1.33349e-08)
(-5.89863e-08 -1.27981e-08 2.77488e-08)
(-5.79622e-08 -2.47283e-08 4.11394e-08)
(-5.90125e-08 -3.52216e-08 5.32886e-08)
(-6.53968e-08 -4.46794e-08 6.42876e-08)
(-8.09797e-08 -5.82209e-08 7.2696e-08)
(-1.07507e-07 -1.02884e-07 7.50815e-08)
(-4.4554e-08 1.47671e-08 2.25326e-09)
(-5.04266e-08 -2.86678e-09 1.17467e-08)
(-5.07496e-08 -1.7997e-08 2.34012e-08)
(-4.99386e-08 -2.94035e-08 3.48925e-08)
(-5.12285e-08 -3.83203e-08 4.52223e-08)
(-5.78652e-08 -4.5386e-08 5.37144e-08)
(-7.36588e-08 -5.63114e-08 5.91195e-08)
(-1.00092e-07 -9.82662e-08 5.99162e-08)
(-4.13708e-08 1.31347e-08 2.55198e-09)
(-4.66878e-08 -4.53508e-09 1.0089e-08)
(-4.71221e-08 -1.99067e-08 1.89516e-08)
(-4.66171e-08 -3.11683e-08 2.78498e-08)
(-4.81972e-08 -3.93026e-08 3.58072e-08)
(-5.50218e-08 -4.52455e-08 4.20113e-08)
(-7.07881e-08 -5.51807e-08 4.56236e-08)
(-9.68537e-08 -9.58489e-08 4.61142e-08)
(-3.97685e-08 1.24887e-08 2.15409e-09)
(-4.49739e-08 -4.99047e-09 7.64501e-09)
(-4.5586e-08 -2.03203e-08 1.38342e-08)
(-4.53381e-08 -3.14941e-08 2.00307e-08)
(-4.71395e-08 -3.9344e-08 2.55447e-08)
(-5.40688e-08 -4.49435e-08 2.97519e-08)
(-6.97386e-08 -5.46303e-08 3.21488e-08)
(-9.54647e-08 -9.46329e-08 3.25658e-08)
(-3.89436e-08 1.22243e-08 1.39323e-09)
(-4.41527e-08 -5.04642e-09 4.72033e-09)
(-4.4902e-08 -2.02386e-08 8.36846e-09)
(-4.48208e-08 -3.13356e-08 1.19922e-08)
(-4.6756e-08 -3.91165e-08 1.5204e-08)
(-5.37339e-08 -4.46863e-08 1.76404e-08)
(-6.93191e-08 -5.43735e-08 1.90361e-08)
(-9.48133e-08 -9.40377e-08 1.93318e-08)
(-3.85828e-08 1.21256e-08 4.78322e-10)
(-4.38024e-08 -5.02035e-09 1.59109e-09)
(-4.46196e-08 -2.01159e-08 2.79528e-09)
(-4.46171e-08 -3.1167e-08 3.98522e-09)
(-4.66128e-08 -3.89418e-08 5.03755e-09)
(-5.3609e-08 -4.45437e-08 5.83542e-09)
(-6.91487e-08 -5.42677e-08 6.29597e-09)
(-9.45283e-08 -9.37909e-08 6.40299e-09)
(8.67483e-08 -1.95511e-07 1.67274e-07)
(7.11123e-08 -1.81729e-07 1.0244e-07)
(6.00815e-08 -1.70747e-07 7.59839e-08)
(5.53853e-08 -1.63602e-07 5.96648e-08)
(5.40371e-08 -1.59324e-07 4.55519e-08)
(5.38339e-08 -1.5686e-07 3.21008e-08)
(5.38576e-08 -1.55514e-07 1.90648e-08)
(5.38771e-08 -1.54918e-07 6.31931e-09)
(2.20162e-08 -1.86127e-07 1.62483e-07)
(1.76522e-08 -1.6847e-07 1.05075e-07)
(1.38698e-08 -1.57039e-07 8.02798e-08)
(1.23499e-08 -1.50582e-07 6.26406e-08)
(1.21308e-08 -1.47034e-07 4.70477e-08)
(1.22905e-08 -1.45035e-07 3.27273e-08)
(1.2445e-08 -1.43923e-07 1.92961e-08)
(1.25179e-08 -1.43418e-07 6.37705e-09)
(-1.44732e-08 -1.85339e-07 1.62177e-07)
(-9.72313e-09 -1.67706e-07 1.05088e-07)
(-5.81288e-09 -1.56312e-07 8.03154e-08)
(-4.26299e-09 -1.4988e-07 6.267e-08)
(-4.0486e-09 -1.46347e-07 4.7071e-08)
(-4.22518e-09 -1.44356e-07 3.27447e-08)
(-4.39692e-09 -1.43249e-07 1.9307e-08)
(-4.48008e-09 -1.42746e-07 6.38078e-09)
(-7.74784e-08 -1.93395e-07 1.66412e-07)
(-6.15724e-08 -1.7962e-07 1.02439e-07)
(-5.04249e-08 -1.68731e-07 7.60599e-08)
(-4.5697e-08 -1.61654e-07 5.97397e-08)
(-4.43554e-08 -1.57417e-07 4.56178e-08)
(-4.41712e-08 -1.54978e-07 3.21524e-08)
(-4.4213e-08 -1.53646e-07 1.90977e-08)
(-4.42431e-08 -1.53057e-07 6.3306e-09)
)
;
        gradient        uniform (0 0 0);
    }
    symmetry
    {
        type            solidSymmetry;
        patchType       symmetry;
        secondOrder     false;
        value           nonuniform List<vector> 
32
(
(9.625e-09 7.51291e-09 0)
(1.62329e-08 -4.93815e-09 0)
(1.71998e-08 -1.81761e-08 0)
(1.70625e-08 -2.91428e-08 0)
(1.83688e-08 -3.81396e-08 0)
(2.36294e-08 -4.63347e-08 0)
(3.56325e-08 -5.89617e-08 0)
(5.23516e-08 -9.71039e-08 0)
(-4.11393e-10 -1.58909e-09 0)
(1.06807e-09 -1.06347e-08 0)
(1.60364e-09 -2.08745e-08 0)
(1.65902e-09 -3.12814e-08 0)
(2.2295e-09 -4.14617e-08 0)
(4.32094e-09 -5.1292e-08 0)
(8.65985e-09 -6.29324e-08 0)
(1.33743e-08 -9.33133e-08 0)
(4.47327e-10 -1.79596e-09 0)
(-1.50156e-10 -1.1045e-08 0)
(4.16335e-10 -2.13874e-08 0)
(1.51977e-09 -3.18473e-08 0)
(2.14412e-09 -4.2064e-08 0)
(1.261e-09 -5.19258e-08 0)
(-1.92547e-09 -6.35708e-08 0)
(-5.71052e-09 -9.36749e-08 0)
(-8.67567e-09 6.42844e-09 0)
(-1.41129e-08 -6.35286e-09 0)
(-1.40057e-08 -1.97663e-08 0)
(-1.27145e-08 -3.08638e-08 0)
(-1.27926e-08 -3.99612e-08 0)
(-1.67921e-08 -4.82355e-08 0)
(-2.75596e-08 -6.08605e-08 0)
(-4.31629e-08 -9.82316e-08 0)
)
;
    }
    bottom
    {
        type            fixedDisplacement;
        value           uniform (0 0 0);
    }
}


// ************************************************************************* //
