/*--------------------------------*- C++ -*----------------------------------*\
| =========                 |                                                 |
| \\      /  F ield         | OpenFOAM: The Open Source CFD Toolbox           |
|  \\    /   O peration     | Version:  v1912                                 |
|   \\  /    A nd           | Website:  www.openfoam.com                      |
|    \\/     M anipulation  |                                                 |
\*---------------------------------------------------------------------------*/
FoamFile
{
    version     2.0;
    format      ascii;
    class       volVectorField;
    location    "0.88/solid";
    object      DD;
}
// * * * * * * * * * * * * * * * * * * * * * * * * * * * * * * * * * * * * * //

dimensions      [0 1 0 0 0 0 0];


internalField   nonuniform List<vector> 
256
(
(1.89148e-10 2.04758e-10 2.4246e-10)
(4.51933e-11 1.35541e-10 2.3622e-10)
(-6.22883e-11 1.29267e-10 2.27842e-10)
(-1.86271e-10 1.83792e-10 2.17484e-10)
(3.60056e-10 1.87427e-10 5.81953e-10)
(9.29672e-11 1.22584e-10 5.7054e-10)
(-1.33035e-10 1.20569e-10 5.53153e-10)
(-3.71661e-10 1.84822e-10 5.2962e-10)
(4.01045e-10 3.13344e-11 8.29273e-10)
(9.92062e-11 1.94821e-12 8.10824e-10)
(-1.65704e-10 6.85911e-12 7.88123e-10)
(-4.38299e-10 5.05961e-11 7.60792e-10)
(3.92994e-10 -1.55133e-10 1.03543e-09)
(8.38916e-11 -1.6559e-10 1.00781e-09)
(-1.85101e-10 -1.53789e-10 9.81312e-10)
(-4.64518e-10 -1.16008e-10 9.55416e-10)
(3.86734e-10 -3.60403e-10 1.23408e-09)
(6.62899e-11 -3.70134e-10 1.19644e-09)
(-2.11342e-10 -3.51781e-10 1.16672e-09)
(-5.01467e-10 -3.0261e-10 1.14432e-09)
(4.1466e-10 -6.1154e-10 1.44445e-09)
(5.92331e-11 -6.23293e-10 1.39896e-09)
(-2.5791e-10 -5.98337e-10 1.36618e-09)
(-5.82219e-10 -5.34891e-10 1.3455e-09)
(4.88615e-10 -9.70182e-10 1.66081e-09)
(6.58156e-11 -9.6652e-10 1.61803e-09)
(-3.29418e-10 -9.33972e-10 1.58221e-09)
(-7.19059e-10 -8.71714e-10 1.55287e-09)
(5.56408e-10 -1.42456e-09 1.81662e-09)
(6.75582e-11 -1.39148e-09 1.78955e-09)
(-4.09443e-10 -1.34777e-09 1.75119e-09)
(-8.60113e-10 -1.29286e-09 1.70166e-09)
(1.30288e-10 7.65497e-11 1.10456e-10)
(3.02933e-11 1.64341e-11 1.20355e-10)
(-3.73776e-11 1.44221e-11 1.16534e-10)
(-1.20156e-10 6.48344e-11 9.9195e-11)
(2.55876e-10 5.52259e-12 3.41912e-10)
(6.54449e-11 -4.98139e-11 3.61403e-10)
(-8.14269e-11 -4.82632e-11 3.50925e-10)
(-2.47729e-10 9.74818e-12 3.1143e-10)
(2.84518e-10 -1.4035e-10 5.56032e-10)
(6.99398e-11 -1.6477e-10 5.76688e-10)
(-1.02051e-10 -1.57707e-10 5.61518e-10)
(-2.92396e-10 -1.17573e-10 5.1171e-10)
(2.73782e-10 -3.09619e-10 7.48253e-10)
(5.64993e-11 -3.18413e-10 7.65727e-10)
(-1.15258e-10 -3.05331e-10 7.47116e-10)
(-3.08331e-10 -2.68845e-10 6.93528e-10)
(2.66853e-10 -4.96934e-10 9.30362e-10)
(4.12034e-11 -5.07639e-10 9.42796e-10)
(-1.37115e-10 -4.8848e-10 9.21265e-10)
(-3.38191e-10 -4.38462e-10 8.66756e-10)
(2.98058e-10 -7.16813e-10 1.10915e-09)
(3.7256e-11 -7.31964e-10 1.11621e-09)
(-1.80971e-10 -7.06606e-10 1.09197e-09)
(-4.16463e-10 -6.40351e-10 1.03732e-09)
(3.87224e-10 -1.01678e-09 1.26967e-09)
(4.97539e-11 -1.01375e-09 1.27325e-09)
(-2.53277e-10 -9.8156e-10 1.24669e-09)
(-5.63101e-10 -9.20247e-10 1.19069e-09)
(4.81636e-10 -1.40772e-09 1.36234e-09)
(5.86399e-11 -1.35842e-09 1.36486e-09)
(-3.36224e-10 -1.31652e-09 1.33732e-09)
(-7.25691e-10 -1.28117e-09 1.27997e-09)
(7.52493e-11 2.61301e-11 5.56517e-11)
(1.48492e-11 -2.01541e-11 7.13553e-11)
(-1.72349e-11 -2.16962e-11 6.87636e-11)
(-6.11416e-11 1.40023e-11 4.82658e-11)
(1.54175e-10 -8.65164e-11 2.13186e-10)
(3.52364e-11 -1.30018e-10 2.43707e-10)
(-3.75256e-11 -1.28189e-10 2.36475e-10)
(-1.33692e-10 -8.38552e-11 1.92646e-10)
(1.7108e-10 -2.4151e-10 3.88381e-10)
(3.69861e-11 -2.61421e-10 4.22753e-10)
(-4.71715e-11 -2.54553e-10 4.11817e-10)
(-1.58761e-10 -2.21349e-10 3.57013e-10)
(1.5973e-10 -4.02389e-10 5.59079e-10)
(2.52821e-11 -4.11378e-10 5.92285e-10)
(-5.49189e-11 -3.98918e-10 5.78374e-10)
(-1.67153e-10 -3.65031e-10 5.1874e-10)
(1.544e-10 -5.67759e-10 7.18756e-10)
(1.24239e-11 -5.81233e-10 7.48865e-10)
(-7.3046e-11 -5.63026e-10 7.3237e-10)
(-1.92567e-10 -5.13298e-10 6.70539e-10)
(1.89824e-10 -7.49673e-10 8.61308e-10)
(1.15793e-11 -7.69064e-10 8.87447e-10)
(-1.1472e-10 -7.45003e-10 8.68654e-10)
(-2.69703e-10 -6.77904e-10 8.06029e-10)
(2.89309e-10 -9.94976e-10 9.67765e-10)
(2.90648e-11 -9.94966e-10 9.89387e-10)
(-1.87436e-10 -9.64549e-10 9.68899e-10)
(-4.21781e-10 -9.04149e-10 9.0699e-10)
(3.98855e-10 -1.33042e-09 1.00395e-09)
(4.34572e-11 -1.27767e-09 1.02169e-09)
(-2.71694e-10 -1.23803e-09 1.00096e-09)
(-5.94864e-10 -1.21064e-09 9.41668e-10)
(4.634e-11 5.19002e-12 4.15065e-11)
(6.82488e-12 -3.04404e-11 5.33063e-11)
(-6.92944e-12 -3.23011e-11 5.13827e-11)
(-2.98003e-11 -8.69205e-12 3.61575e-11)
(1.00224e-10 -1.24199e-10 1.59796e-10)
(1.9223e-11 -1.59095e-10 1.82406e-10)
(-1.37625e-11 -1.58182e-10 1.77193e-10)
(-7.19585e-11 -1.25319e-10 1.45236e-10)
(1.12361e-10 -2.86378e-10 2.98274e-10)
(2.0342e-11 -3.03665e-10 3.23378e-10)
(-1.68164e-11 -2.9804e-10 3.15421e-10)
(-8.64849e-11 -2.70883e-10 2.75722e-10)
(1.0392e-10 -4.42738e-10 4.3896e-10)
(1.12685e-11 -4.52839e-10 4.62741e-10)
(-2.13867e-11 -4.41839e-10 4.52412e-10)
(-9.21114e-11 -4.10507e-10 4.09269e-10)
(1.0313e-10 -5.90962e-10 5.69297e-10)
(1.58587e-12 -6.0721e-10 5.90384e-10)
(-3.74114e-11 -5.90643e-10 5.77929e-10)
(-1.16827e-10 -5.4195e-10 5.33105e-10)
(1.43168e-10 -7.44977e-10 6.77184e-10)
(3.67007e-12 -7.67957e-10 6.95201e-10)
(-7.73723e-11 -7.45713e-10 6.80897e-10)
(-1.9386e-10 -6.78965e-10 6.3524e-10)
(2.46509e-10 -9.56236e-10 7.45489e-10)
(2.36531e-11 -9.60824e-10 7.60387e-10)
(-1.48483e-10 -9.32369e-10 7.44836e-10)
(-3.45515e-10 -8.71416e-10 6.99332e-10)
(3.59057e-10 -1.26163e-09 7.55369e-10)
(4.02216e-11 -1.21523e-09 7.68494e-10)
(-2.31059e-10 -1.17757e-09 7.52938e-10)
(-5.17578e-10 -1.14784e-09 7.08406e-10)
(3.53182e-11 -2.87146e-12 3.48785e-11)
(4.32699e-12 -3.29485e-11 4.11685e-11)
(-3.22504e-12 -3.514e-11 3.97831e-11)
(-1.72637e-11 -1.81622e-11 3.10876e-11)
(8.05379e-11 -1.35813e-10 1.25327e-10)
(1.45989e-11 -1.66594e-10 1.36937e-10)
(-4.57027e-12 -1.6667e-10 1.33244e-10)
(-4.73762e-11 -1.40353e-10 1.15143e-10)
(9.29831e-11 -2.98764e-10 2.29835e-10)
(1.68463e-11 -3.15538e-10 2.42008e-10)
(-4.65646e-12 -3.11261e-10 2.36363e-10)
(-5.82313e-11 -2.87713e-10 2.13997e-10)
(8.87684e-11 -4.50938e-10 3.36975e-10)
(1.06045e-11 -4.62726e-10 3.47493e-10)
(-7.71165e-12 -4.53253e-10 3.40089e-10)
(-6.38208e-11 -4.23618e-10 3.15854e-10)
(9.28832e-11 -5.88303e-10 4.35133e-10)
(3.96408e-12 -6.0698e-10 4.43303e-10)
(-2.25775e-11 -5.92044e-10 4.34276e-10)
(-8.92635e-11 -5.44411e-10 4.09044e-10)
(1.36498e-10 -7.26835e-10 5.12376e-10)
(8.36967e-12 -7.52455e-10 5.18335e-10)
(-6.10097e-11 -7.31898e-10 5.07906e-10)
(-1.65982e-10 -6.66008e-10 4.8188e-10)
(2.40388e-10 -9.21894e-10 5.5617e-10)
(2.94128e-11 -9.30319e-10 5.60451e-10)
(-1.29696e-10 -9.03538e-10 5.49106e-10)
(-3.14617e-10 -8.42147e-10 5.22508e-10)
(3.51689e-10 -1.21387e-09 5.57721e-10)
(4.66583e-11 -1.17452e-09 5.61766e-10)
(-2.09701e-10 -1.13843e-09 5.50462e-10)
(-4.82116e-10 -1.10483e-09 5.23521e-10)
(3.19798e-11 -5.57692e-12 2.69579e-11)
(4.09566e-12 -3.33152e-11 2.96965e-11)
(-2.33515e-12 -3.5745e-11 2.87695e-11)
(-1.30077e-11 -2.18226e-11 2.44486e-11)
(7.56626e-11 -1.36868e-10 9.1759e-11)
(1.4758e-11 -1.66341e-10 9.64104e-11)
(-2.0178e-12 -1.6717e-10 9.39534e-11)
(-3.94861e-11 -1.43888e-10 8.50477e-11)
(9.0193e-11 -2.96931e-10 1.64599e-10)
(1.86201e-11 -3.14316e-10 1.68815e-10)
(-1.03301e-12 -3.11112e-10 1.65055e-10)
(-4.98148e-11 -2.89279e-10 1.54139e-10)
(8.97267e-11 -4.44952e-10 2.38779e-10)
(1.4715e-11 -4.5843e-10 2.41474e-10)
(-3.39674e-12 -4.50193e-10 2.36515e-10)
(-5.61824e-11 -4.21491e-10 2.24724e-10)
(9.76293e-11 -5.76185e-10 3.05959e-10)
(1.0401e-11 -5.96735e-10 3.06898e-10)
(-1.75076e-11 -5.83105e-10 3.00811e-10)
(-8.23518e-11 -5.36325e-10 2.88449e-10)
(1.43563e-10 -7.0776e-10 3.57287e-10)
(1.64427e-11 -7.35116e-10 3.56799e-10)
(-5.46403e-11 -7.15872e-10 3.49732e-10)
(-1.58439e-10 -6.50944e-10 3.36682e-10)
(2.47079e-10 -8.96546e-10 3.84759e-10)
(3.80273e-11 -9.07398e-10 3.83463e-10)
(-1.21159e-10 -8.81876e-10 3.75762e-10)
(-3.03955e-10 -8.20621e-10 3.61931e-10)
(3.56657e-10 -1.18251e-09 3.84422e-10)
(5.55438e-11 -1.14789e-09 3.83349e-10)
(-1.98937e-10 -1.11295e-09 3.75684e-10)
(-4.67196e-10 -1.07697e-09 3.61219e-10)
(3.1138e-11 -6.23541e-12 1.7016e-11)
(4.35932e-12 -3.30957e-11 1.80417e-11)
(-2.25506e-12 -3.56762e-11 1.75116e-11)
(-1.16474e-11 -2.30666e-11 1.55908e-11)
(7.51883e-11 -1.34836e-10 5.61058e-11)
(1.58228e-11 -1.64135e-10 5.76106e-11)
(-1.56236e-12 -1.65446e-10 5.62073e-11)
(-3.72772e-11 -1.4342e-10 5.22974e-11)
(9.16012e-11 -2.91509e-10 9.90502e-11)
(2.09556e-11 -3.09689e-10 1e-10)
(-2.32773e-13 -3.07194e-10 9.78501e-11)
(-4.79141e-11 -2.86069e-10 9.31039e-11)
(9.36775e-11 -4.36239e-10 1.42352e-10)
(1.86068e-11 -4.50983e-10 1.42288e-10)
(-2.256e-12 -4.43578e-10 1.39442e-10)
(-5.4963e-11 -4.15345e-10 1.34325e-10)
(1.03964e-10 -5.64292e-10 1.8121e-10)
(1.57813e-11 -5.86073e-10 1.8009e-10)
(-1.58533e-11 -5.73324e-10 1.76584e-10)
(-8.15299e-11 -5.27136e-10 1.71155e-10)
(1.51245e-10 -6.93245e-10 2.10453e-10)
(2.28542e-11 -7.21617e-10 2.0855e-10)
(-5.20537e-11 -7.03252e-10 2.04465e-10)
(-1.56998e-10 -6.3911e-10 1.98567e-10)
(2.54391e-10 -8.80008e-10 2.25725e-10)
(4.47869e-11 -8.92159e-10 2.23465e-10)
(-1.17081e-10 -8.67468e-10 2.19006e-10)
(-3.00292e-10 -8.06611e-10 2.12518e-10)
(3.62763e-10 -1.16319e-09 2.25257e-10)
(6.24755e-11 -1.13113e-09 2.23206e-10)
(-1.93348e-10 -1.09694e-09 2.18767e-10)
(-4.60625e-10 -1.05994e-09 2.11822e-10)
(3.09546e-11 -6.28775e-12 5.80895e-12)
(4.54365e-12 -3.286e-11 6.06334e-12)
(-2.2932e-12 -3.55135e-11 5.89107e-12)
(-1.12305e-11 -2.33972e-11 5.34738e-12)
(7.5401e-11 -1.33149e-10 1.88792e-11)
(1.64769e-11 -1.62519e-10 1.91986e-11)
(-1.53514e-12 -1.64064e-10 1.87427e-11)
(-3.66982e-11 -1.42483e-10 1.76458e-11)
(9.28084e-11 -2.87761e-10 3.3063e-11)
(2.22596e-11 -3.06423e-10 3.31568e-11)
(-9.78183e-14 -3.04275e-10 3.24578e-11)
(-4.75894e-11 -2.83399e-10 3.11356e-11)
(9.61218e-11 -4.30708e-10 4.72745e-11)
(2.06668e-11 -4.46108e-10 4.70182e-11)
(-1.96619e-12 -4.39116e-10 4.60913e-11)
(-5.4981e-11 -4.11085e-10 4.4666e-11)
(1.07532e-10 -5.57412e-10 5.99637e-11)
(1.85547e-11 -5.79794e-10 5.93591e-11)
(-1.52944e-11 -5.67485e-10 5.82145e-11)
(-8.16969e-11 -5.21602e-10 5.66875e-11)
(1.55432e-10 -6.85565e-10 6.9455e-11)
(2.61271e-11 -7.144e-10 6.86016e-11)
(-5.10142e-11 -6.96472e-10 6.7266e-11)
(-1.56805e-10 -6.32765e-10 6.55728e-11)
(2.58398e-10 -8.71805e-10 7.43708e-11)
(4.82467e-11 -8.84507e-10 7.34159e-11)
(-1.15302e-10 -8.60227e-10 7.19563e-11)
(-2.9899e-10 -7.99663e-10 7.00502e-11)
(3.66189e-10 -1.15387e-09 7.41878e-11)
(6.60316e-11 -1.12288e-09 7.33079e-11)
(-1.90822e-10 -1.08906e-09 7.18551e-11)
(-4.57888e-10 -1.05175e-09 6.97905e-11)
)
;

boundaryField
{
    interface
    {
        type            calculated;
        value           nonuniform List<vector> 
192
(
(2.3622e-10 3.42059e-10 2.23882e-10)
(4.10518e-10 2.40401e-10 5.49132e-10)
(4.54997e-10 3.9568e-11 7.93509e-10)
(4.50756e-10 -1.58711e-10 1.0003e-09)
(4.46031e-10 -3.54987e-10 1.2004e-09)
(4.71708e-10 -5.86071e-10 1.41316e-09)
(5.46845e-10 -9.34745e-10 1.63414e-09)
(6.15173e-10 -1.40747e-09 1.79621e-09)
(1.58228e-10 1.73091e-10 8.19815e-11)
(2.92266e-10 4.40798e-11 2.90443e-10)
(3.23237e-10 -1.35875e-10 4.98542e-10)
(3.13925e-10 -3.14036e-10 6.89938e-10)
(3.07075e-10 -4.90866e-10 8.72278e-10)
(3.36507e-10 -6.86721e-10 1.05294e-09)
(4.32161e-10 -9.70888e-10 1.21984e-09)
(5.40785e-10 -1.38447e-09 1.32295e-09)
(8.93577e-11 8.34863e-11 3.46651e-11)
(1.78217e-10 -6.25591e-11 1.74274e-10)
(1.98043e-10 -2.40122e-10 3.45343e-10)
(1.88248e-10 -4.0656e-10 5.16614e-10)
(1.8376e-10 -5.60236e-10 6.77826e-10)
(2.19488e-10 -7.15946e-10 8.22586e-10)
(3.28735e-10 -9.42718e-10 9.32586e-10)
(4.58152e-10 -1.30269e-09 9.73303e-10)
(5.38835e-11 4.18311e-11 3.15239e-11)
(1.20053e-10 -1.07695e-10 1.41387e-10)
(1.36059e-10 -2.85454e-10 2.7875e-10)
(1.2988e-10 -4.45046e-10 4.2122e-10)
(1.31069e-10 -5.81151e-10 5.53919e-10)
(1.73407e-10 -7.09132e-10 6.63852e-10)
(2.88916e-10 -9.02264e-10 7.33259e-10)
(4.22678e-10 -1.23185e-09 7.43577e-10)
(3.921e-11 2.60926e-11 3.12886e-11)
(9.72085e-11 -1.21397e-10 1.19187e-10)
(1.14076e-10 -2.96707e-10 2.24293e-10)
(1.12776e-10 -4.50964e-10 3.33427e-10)
(1.19788e-10 -5.76372e-10 4.33758e-10)
(1.67026e-10 -6.89959e-10 5.12475e-10)
(2.84459e-10 -8.68096e-10 5.56313e-10)
(4.17053e-10 -1.18333e-09 5.57121e-10)
(3.40427e-11 2.13338e-11 2.5913e-11)
(9.02989e-11 -1.22315e-10 9.04219e-11)
(1.09548e-10 -2.93415e-10 1.64254e-10)
(1.12486e-10 -4.43094e-10 2.40006e-10)
(1.23937e-10 -5.62727e-10 3.0873e-10)
(1.74303e-10 -6.70398e-10 3.60974e-10)
(2.92063e-10 -8.43273e-10 3.8826e-10)
(4.2259e-10 -1.15176e-09 3.87191e-10)
(3.2442e-11 2.03462e-11 1.67598e-11)
(8.882e-11 -1.1972e-10 5.60406e-11)
(1.10113e-10 -2.86887e-10 9.97042e-11)
(1.1591e-10 -4.33149e-10 1.43951e-10)
(1.30153e-10 -5.49901e-10 1.83685e-10)
(1.8232e-10 -6.55639e-10 2.13421e-10)
(3.00039e-10 -8.27129e-10 2.28555e-10)
(4.29019e-10 -1.13241e-09 2.2764e-10)
(3.20137e-11 2.03012e-11 5.76312e-12)
(8.8656e-11 -1.17686e-10 1.89325e-11)
(1.11017e-10 -2.82582e-10 3.33649e-11)
(1.18205e-10 -4.27028e-10 4.78856e-11)
(1.33764e-10 -5.42585e-10 6.08556e-11)
(1.86755e-10 -6.47849e-10 7.05018e-11)
(3.04422e-10 -8.19116e-10 7.53725e-11)
(4.32631e-10 -1.12311e-09 7.50443e-11)
(1.96876e-10 4.10861e-10 2.66287e-10)
(3.73611e-10 3.3413e-10 6.05871e-10)
(4.14313e-10 1.44705e-10 8.56638e-10)
(4.03652e-10 -5.39302e-11 1.06739e-09)
(3.94165e-10 -2.58149e-10 1.26778e-09)
(4.18929e-10 -5.04857e-10 1.47443e-09)
(4.91255e-10 -8.77138e-10 1.68797e-09)
(5.59848e-10 -1.37543e-09 1.83972e-09)
(4.15377e-11 3.37231e-10 2.5105e-10)
(8.57647e-11 2.66235e-10 5.82967e-10)
(8.89165e-11 1.11267e-10 8.2155e-10)
(7.0359e-11 -6.91859e-11 1.01834e-09)
(4.94474e-11 -2.72347e-10 1.20498e-09)
(3.96653e-11 -5.17893e-10 1.40138e-09)
(4.61645e-11 -8.68871e-10 1.6204e-09)
(5.12019e-11 -1.33981e-09 1.80079e-09)
(-6.6974e-11 3.24516e-10 2.32671e-10)
(-1.43268e-10 2.60639e-10 5.57277e-10)
(-1.78215e-10 1.139e-10 7.90489e-10)
(-1.98202e-10 -5.91392e-11 9.83149e-10)
(-2.24373e-10 -2.55562e-10 1.16626e-09)
(-2.71277e-10 -4.94463e-10 1.35935e-09)
(-3.4571e-10 -8.37718e-10 1.57506e-09)
(-4.31416e-10 -1.29665e-09 1.75211e-09)
(-2.00747e-10 3.70568e-10 2.11504e-10)
(-4.00167e-10 3.2065e-10 5.26295e-10)
(-4.71735e-10 1.57046e-10 7.60031e-10)
(-4.99188e-10 -2.01252e-11 9.58172e-10)
(-5.36151e-10 -2.05089e-10 1.14794e-09)
(-6.16746e-10 -4.32751e-10 1.34472e-09)
(-7.54835e-10 -7.82671e-10 1.54871e-09)
(-8.99031e-10 -1.24521e-09 1.69242e-09)
(-1.73223e-10 3.23275e-10 1.93716e-10)
(-3.62373e-10 2.47829e-10 4.84381e-10)
(-4.31338e-10 7.38114e-11 7.07596e-10)
(-4.5992e-10 -1.00215e-10 8.99032e-10)
(-4.96918e-10 -2.73183e-10 1.08616e-09)
(-5.73815e-10 -4.80491e-10 1.28679e-09)
(-7.09175e-10 -8.02239e-10 1.49599e-09)
(-8.46426e-10 -1.23669e-09 1.6486e-09)
(-9.18526e-11 1.56805e-10 6.79124e-11)
(-2.28618e-10 5.28082e-11 2.51937e-10)
(-2.75008e-10 -1.02422e-10 4.41825e-10)
(-2.91301e-10 -2.57395e-10 6.19185e-10)
(-3.19985e-10 -4.11427e-10 7.8953e-10)
(-3.94996e-10 -5.84122e-10 9.59192e-10)
(-5.45257e-10 -8.42938e-10 1.11637e-09)
(-7.16232e-10 -1.22108e-09 1.21366e-09)
(-2.07454e-11 6.27105e-11 2.56766e-11)
(-1.04324e-10 -5.94502e-11 1.48703e-10)
(-1.31907e-10 -2.12983e-10 3.05534e-10)
(-1.40932e-10 -3.56578e-10 4.64684e-10)
(-1.65985e-10 -4.87659e-10 6.15197e-10)
(-2.41824e-10 -6.20599e-10 7.50377e-10)
(-4.00628e-10 -8.22857e-10 8.52592e-10)
(-5.87512e-10 -1.14837e-09 8.89638e-10)
(1.65796e-11 1.67475e-11 2.51876e-11)
(-3.91073e-11 -1.11148e-10 1.23656e-10)
(-5.72115e-11 -2.65844e-10 2.50589e-10)
(-6.4252e-11 -4.0292e-10 3.83435e-10)
(-8.97321e-11 -5.16512e-10 5.07278e-10)
(-1.67392e-10 -6.21792e-10 6.09309e-10)
(-3.28055e-10 -7.90485e-10 6.7254e-10)
(-5.1525e-10 -1.08552e-09 6.80217e-10)
(3.25315e-11 -2.00236e-12 2.6889e-11)
(-1.16981e-11 -1.30111e-10 1.07024e-10)
(-2.67525e-11 -2.83601e-10 2.04829e-10)
(-3.44521e-11 -4.15858e-10 3.06871e-10)
(-6.15871e-11 -5.18869e-10 4.00424e-10)
(-1.40202e-10 -6.09668e-10 4.73024e-10)
(-2.99137e-10 -7.63113e-10 5.12118e-10)
(-4.81856e-10 -1.04339e-09 5.10925e-10)
(3.84946e-11 -8.69927e-12 2.30443e-11)
(-1.95007e-12 -1.34686e-10 8.25224e-11)
(-1.68037e-11 -2.85104e-10 1.51559e-10)
(-2.58038e-11 -4.13355e-10 2.22509e-10)
(-5.43195e-11 -5.10759e-10 2.86515e-10)
(-1.3308e-10 -5.95542e-10 3.34435e-10)
(-2.89552e-10 -7.43431e-10 3.58349e-10)
(-4.67686e-10 -1.01656e-09 3.55846e-10)
(4.05519e-11 -1.08356e-11 1.51463e-11)
(1.18121e-12 -1.34353e-10 5.16e-11)
(-1.41537e-11 -2.81647e-10 9.25472e-11)
(-2.41708e-11 -4.0694e-10 1.34025e-10)
(-5.34914e-11 -5.01626e-10 1.70991e-10)
(-1.32072e-10 -5.84418e-10 1.98158e-10)
(-2.86631e-10 -7.30703e-10 2.11277e-10)
(-4.61529e-10 -1.00033e-09 2.09494e-10)
(4.11894e-11 -1.14151e-11 5.24312e-12)
(2.10786e-12 -1.33393e-10 1.75009e-11)
(-1.35336e-11 -2.78828e-10 3.10543e-11)
(-2.40793e-11 -4.02557e-10 4.46704e-11)
(-5.37448e-11 -4.96144e-10 5.67291e-11)
(-1.32163e-10 -5.7844e-10 6.55246e-11)
(-2.85735e-10 -7.24391e-10 6.97244e-11)
(-4.59018e-10 -9.92561e-10 6.91061e-11)
(5.56681e-10 -1.44868e-09 1.83698e-09)
(4.8094e-10 -1.43669e-09 1.3388e-09)
(3.99532e-10 -1.36358e-09 9.67425e-10)
(3.62348e-10 -1.30098e-09 7.26232e-10)
(3.57123e-10 -1.25555e-09 5.37941e-10)
(3.6338e-10 -1.22483e-09 3.71753e-10)
(3.70137e-10 -1.20579e-09 2.18096e-10)
(3.73825e-10 -1.19662e-09 7.1857e-11)
(4.83611e-11 -1.40368e-09 1.80712e-09)
(3.58396e-11 -1.36254e-09 1.33641e-09)
(2.03608e-11 -1.28303e-09 9.85887e-10)
(1.92049e-11 -1.22861e-09 7.42705e-10)
(2.77966e-11 -1.19241e-09 5.44931e-10)
(3.8152e-11 -1.16798e-09 3.72501e-10)
(4.59107e-11 -1.15236e-09 2.16953e-10)
(4.98285e-11 -1.14462e-09 7.12462e-11)
(-4.34097e-10 -1.34954e-09 1.76894e-09)
(-3.55539e-10 -1.31087e-09 1.30988e-09)
(-2.88455e-10 -1.23371e-09 9.66224e-10)
(-2.47908e-10 -1.18127e-09 7.28037e-10)
(-2.27126e-10 -1.14663e-09 5.34307e-10)
(-2.16669e-10 -1.12333e-09 3.65312e-10)
(-2.11147e-10 -1.10844e-09 2.12795e-10)
(-2.08607e-10 -1.10106e-09 6.98861e-11)
(-9.01927e-10 -1.28434e-09 1.72256e-09)
(-7.64578e-10 -1.27817e-09 1.25941e-09)
(-6.32849e-10 -1.21185e-09 9.08335e-10)
(-5.56171e-10 -1.1552e-09 6.81954e-10)
(-5.21237e-10 -1.11444e-09 5.05804e-10)
(-5.06403e-10 -1.08711e-09 3.49997e-10)
(-4.99686e-10 -1.07028e-09 2.05517e-10)
(-4.96815e-10 -1.0622e-09 6.77427e-11)
)
;
    }
    symmetry
    {
        type            symmetry;
    }
    bottom
    {
        type            calculated;
        value           uniform (0 0 0);
    }
}


// ************************************************************************* //
