/*--------------------------------*- C++ -*----------------------------------*\
| =========                 |                                                 |
| \\      /  F ield         | OpenFOAM: The Open Source CFD Toolbox           |
|  \\    /   O peration     | Version:  v1912                                 |
|   \\  /    A nd           | Website:  www.openfoam.com                      |
|    \\/     M anipulation  |                                                 |
\*---------------------------------------------------------------------------*/
FoamFile
{
    version     2.0;
    format      ascii;
    class       volSymmTensorField;
    location    "0.88/solid";
    object      epsilon;
}
// * * * * * * * * * * * * * * * * * * * * * * * * * * * * * * * * * * * * * //

dimensions      [0 0 0 0 0 0 0];


internalField   nonuniform List<symmTensor> 
256
(
(-2.88596e-06 2.30133e-07 -8.12982e-08 1.51424e-06 2.6766e-07 -2.93125e-06)
(-6.93974e-07 -3.04617e-08 -3.50209e-08 9.46948e-07 2.65263e-07 -2.58425e-06)
(-6.71558e-07 1.64454e-08 3.25556e-08 9.2705e-07 2.64517e-07 -2.54008e-06)
(-2.66274e-06 -2.26141e-07 7.94922e-08 1.44295e-06 2.65411e-07 -2.80557e-06)
(-3.0146e-06 6.25925e-09 -1.26231e-07 -5.29754e-07 4.59245e-08 -3.01303e-06)
(-1.20392e-06 -3.61223e-08 -5.88075e-08 -2.69711e-07 5.70073e-08 -2.62489e-06)
(-1.17347e-06 3.17221e-08 5.59186e-08 -2.72636e-07 5.75212e-08 -2.58161e-06)
(-2.7812e-06 -7.12475e-09 1.23698e-07 -5.2988e-07 4.68899e-08 -2.88938e-06)
(-3.09259e-06 -3.16207e-08 -1.37102e-07 -6.79282e-07 7.39542e-09 -3.08734e-06)
(-1.27589e-06 -3.60368e-08 -6.52072e-08 -5.07189e-07 8.92598e-09 -2.64498e-06)
(-1.24543e-06 3.45573e-08 6.27067e-08 -5.07223e-07 9.27352e-09 -2.60056e-06)
(-2.85504e-06 3.08413e-08 1.34559e-07 -6.76513e-07 8.06551e-09 -2.95949e-06)
(-3.15598e-06 -2.25011e-08 -1.43053e-07 -6.48722e-07 1.49772e-08 -3.1733e-06)
(-1.23833e-06 -2.83372e-08 -6.83869e-08 -6.2231e-07 1.10779e-08 -2.69429e-06)
(-1.20782e-06 2.72316e-08 6.6143e-08 -6.21851e-07 1.11531e-08 -2.64869e-06)
(-2.91387e-06 2.21106e-08 1.40573e-07 -6.46857e-07 1.50031e-08 -3.0419e-06)
(-3.25175e-06 -2.15422e-09 -1.49245e-07 -6.85248e-07 3.90604e-08 -3.28626e-06)
(-1.23824e-06 -1.43451e-08 -7.18548e-08 -7.29797e-07 3.35303e-08 -2.78236e-06)
(-1.20728e-06 1.30406e-08 6.96726e-08 -7.29354e-07 3.34168e-08 -2.73579e-06)
(-3.00502e-06 1.77612e-09 1.46801e-07 -6.8353e-07 3.85821e-08 -3.15216e-06)
(-3.42115e-06 3.76212e-08 -1.54287e-07 -9.18952e-07 8.38119e-08 -3.44727e-06)
(-1.35627e-06 1.13764e-08 -7.4946e-08 -9.25645e-07 8.04334e-08 -2.92898e-06)
(-1.32492e-06 -1.36603e-08 7.26831e-08 -9.24599e-07 8.0151e-08 -2.8815e-06)
(-3.17033e-06 -3.83899e-08 1.51858e-07 -9.15428e-07 8.28688e-08 -3.3108e-06)
(-3.71382e-06 1.04918e-07 -1.51465e-07 -1.78124e-06 1.48915e-07 -3.7081e-06)
(-1.65824e-06 5.01099e-08 -7.38466e-08 -1.60743e-06 1.55888e-07 -3.20996e-06)
(-1.62631e-06 -5.45529e-08 7.13772e-08 -1.59992e-06 1.55373e-07 -3.16152e-06)
(-3.45897e-06 -1.06174e-07 1.49031e-07 -1.7605e-06 1.47415e-07 -3.56949e-06)
(-4.2214e-06 1.35087e-07 -1.34806e-07 -4.20779e-06 1.72878e-07 -4.2054e-06)
(-2.06131e-06 6.61584e-08 -6.60417e-08 -3.84262e-06 1.8977e-07 -3.83928e-06)
(-2.02672e-06 -6.35254e-08 6.33387e-08 -3.79337e-06 1.8922e-07 -3.79045e-06)
(-3.95811e-06 -1.32658e-07 1.32397e-07 -4.06926e-06 1.71445e-07 -4.06819e-06)
(-2.32834e-06 1.38887e-07 -6.46078e-08 6.21298e-07 5.19255e-08 -6.00308e-07)
(-4.65076e-07 -5.57769e-08 -2.20479e-08 1.51771e-07 1.51674e-07 -5.02092e-07)
(-4.43868e-07 5.1387e-08 2.40504e-08 1.37045e-07 1.53956e-07 -4.97622e-07)
(-2.11026e-06 -1.3139e-07 6.51009e-08 5.63095e-07 5.78786e-08 -5.88372e-07)
(-2.4288e-06 -1.09089e-08 -1.01342e-07 -3.86756e-07 6.23804e-08 -9.79021e-07)
(-8.20552e-07 -4.03083e-08 -4.4223e-08 -1.76388e-07 1.15492e-07 -8.24262e-07)
(-7.92669e-07 4.07278e-08 4.68463e-08 -1.81983e-07 1.16614e-07 -8.18129e-07)
(-2.20562e-06 1.17147e-08 1.0176e-07 -3.93878e-07 6.503e-08 -9.62052e-07)
(-2.47014e-06 -3.34428e-08 -1.0745e-07 -5.20415e-07 5.23228e-08 -1.05687e-06)
(-8.57503e-07 -3.44862e-08 -4.87179e-08 -3.80006e-07 6.87785e-08 -8.83001e-07)
(-8.30225e-07 3.49205e-08 5.1884e-08 -3.81623e-07 6.93482e-08 -8.76938e-07)
(-2.24436e-06 3.32998e-08 1.07934e-07 -5.21674e-07 5.35147e-08 -1.03971e-06)
(-2.50897e-06 -2.36265e-08 -1.09557e-07 -5.60093e-07 5.51231e-08 -1.08183e-06)
(-8.11572e-07 -2.68388e-08 -4.94166e-08 -5.44891e-07 5.64337e-08 -8.95149e-07)
(-7.84464e-07 2.66565e-08 5.31305e-08 -5.45025e-07 5.65915e-08 -8.89173e-07)
(-2.27893e-06 2.35861e-08 1.10204e-07 -5.59795e-07 5.52152e-08 -1.06478e-06)
(-2.58978e-06 -3.9349e-09 -1.12842e-07 -6.11829e-07 8.74243e-08 -1.12815e-06)
(-8.04723e-07 -1.40579e-08 -5.13577e-08 -6.62004e-07 8.35772e-08 -9.29824e-07)
(-7.77137e-07 1.34476e-08 5.53498e-08 -6.61814e-07 8.33664e-08 -9.23784e-07)
(-2.35451e-06 3.90442e-09 1.13615e-07 -6.10862e-07 8.64799e-08 -1.11091e-06)
(-2.7578e-06 3.77925e-08 -1.15462e-07 -7.69783e-07 1.40667e-07 -1.2347e-06)
(-9.18272e-07 1.14899e-08 -5.35365e-08 -7.76945e-07 1.35656e-07 -1.02697e-06)
(-8.90085e-07 -1.31308e-08 5.75127e-08 -7.76254e-07 1.35126e-07 -1.02075e-06)
(-2.51704e-06 -3.81618e-08 1.16306e-07 -7.67223e-07 1.388e-07 -1.21701e-06)
(-3.08298e-06 1.13203e-07 -1.12996e-07 -1.44626e-06 1.81727e-07 -1.4537e-06)
(-1.2287e-06 5.29406e-08 -5.29012e-08 -1.24573e-06 1.80457e-07 -1.24953e-06)
(-1.19959e-06 -5.69949e-08 5.67245e-08 -1.23901e-06 1.79712e-07 -1.24291e-06)
(-2.83635e-06 -1.14118e-07 1.13915e-07 -1.42732e-06 1.79295e-07 -1.43506e-06)
(-3.71628e-06 1.51641e-07 -1.04558e-07 -3.71055e-06 1.49758e-07 -1.78222e-06)
(-1.65847e-06 7.38981e-08 -5.00058e-08 -3.21387e-06 1.56611e-07 -1.60523e-06)
(-1.62632e-06 -7.14489e-08 5.41647e-08 -3.16472e-06 1.56107e-07 -1.5978e-06)
(-3.45968e-06 -1.49156e-07 1.05799e-07 -3.56979e-06 1.48296e-07 -1.76171e-06)
(-1.97931e-06 7.49142e-08 -2.73988e-08 2.56343e-07 1.14756e-07 -8.60493e-08)
(-2.98067e-07 -8.41317e-08 -4.29489e-09 -1.3203e-07 2.13087e-07 -8.92809e-08)
(-2.77575e-07 8.14556e-08 5.03553e-09 -1.4513e-07 2.14004e-07 -8.94328e-08)
(-1.76843e-06 -6.70239e-08 2.74283e-08 2.02413e-07 1.1754e-07 -8.6312e-08)
(-2.08441e-06 -2.12723e-08 -4.20752e-08 -4.52122e-07 1.37456e-07 -2.93955e-07)
(-5.28272e-07 -4.59414e-08 -1.26614e-08 -2.7868e-07 1.87972e-07 -3.01563e-07)
(-5.01366e-07 4.81407e-08 1.34623e-08 -2.84587e-07 1.88507e-07 -3.01212e-07)
(-1.8683e-06 2.27562e-08 4.20635e-08 -4.60392e-07 1.38872e-07 -2.92681e-07)
(-2.12101e-06 -3.24027e-08 -4.22189e-08 -4.86857e-07 1.27757e-07 -4.06598e-07)
(-5.38286e-07 -3.32069e-08 -1.34843e-08 -3.77069e-07 1.43699e-07 -4.15921e-07)
(-5.12121e-07 3.48805e-08 1.43503e-08 -3.79374e-07 1.43963e-07 -4.15524e-07)
(-1.90243e-06 3.27332e-08 4.22251e-08 -4.89977e-07 1.28275e-07 -4.05067e-07)
(-2.15591e-06 -2.30806e-08 -4.06801e-08 -4.85116e-07 1.21119e-07 -4.63238e-07)
(-4.89899e-07 -2.59368e-08 -1.22364e-08 -4.82678e-07 1.22713e-07 -4.71961e-07)
(-4.63985e-07 2.64547e-08 1.33376e-08 -4.83371e-07 1.22701e-07 -4.71683e-07)
(-1.9331e-06 2.33198e-08 4.07744e-08 -4.86313e-07 1.2082e-07 -4.61932e-07)
(-2.2362e-06 -4.2952e-09 -4.02572e-08 -4.98832e-07 1.35644e-07 -5.24285e-07)
(-4.82168e-07 -1.44844e-08 -1.19906e-08 -5.5348e-07 1.3259e-07 -5.30995e-07)
(-4.55732e-07 1.42067e-08 1.32692e-08 -5.53708e-07 1.32287e-07 -5.30742e-07)
(-2.00764e-06 4.44433e-09 4.04414e-08 -4.99022e-07 1.34498e-07 -5.22979e-07)
(-2.41214e-06 3.85021e-08 -4.00135e-08 -6.00522e-07 1.56224e-07 -6.28948e-07)
(-5.96805e-07 1.11127e-08 -1.24751e-08 -6.08488e-07 1.51626e-07 -6.33323e-07)
(-5.69573e-07 -1.26995e-08 1.37831e-08 -6.08193e-07 1.51086e-07 -6.32941e-07)
(-2.17684e-06 -3.87499e-08 4.02691e-08 -5.99033e-07 1.54366e-07 -6.27244e-07)
(-2.75928e-06 1.15734e-07 -3.92677e-08 -1.2206e-06 1.46421e-07 -7.85005e-07)
(-9.14461e-07 5.3553e-08 -1.29457e-08 -1.01684e-06 1.41286e-07 -7.89024e-07)
(-8.85967e-07 -5.78139e-08 1.42839e-08 -1.0105e-06 1.40691e-07 -7.8835e-07)
(-2.51619e-06 -1.16593e-07 3.96429e-08 -1.20251e-06 1.44389e-07 -7.82492e-07)
(-3.42633e-06 1.54514e-07 -3.88456e-08 -3.45153e-06 8.71477e-08 -9.1748e-07)
(-1.35328e-06 7.49666e-08 -1.29055e-08 -2.93513e-06 8.3735e-08 -9.21705e-07)
(-1.32138e-06 -7.27085e-08 1.47982e-08 -2.88653e-06 8.34456e-08 -9.20727e-07)
(-3.17141e-06 -1.52016e-07 3.95977e-08 -3.31167e-06 8.6197e-08 -9.14137e-07)
(-1.78444e-06 4.83491e-08 -7.28042e-09 1.21374e-07 1.35968e-07 -1.4436e-08)
(-2.22914e-07 -9.37882e-08 4.12706e-09 -2.18302e-07 1.96683e-07 -4.20725e-08)
(-2.03027e-07 9.10075e-08 -3.85083e-09 -2.31043e-07 1.97078e-07 -4.23543e-08)
(-1.5791e-06 -4.07752e-08 7.17933e-09 6.87564e-08 1.37531e-07 -1.5141e-08)
(-1.88535e-06 -2.36729e-08 -9.67775e-09 -5.10218e-07 1.6444e-07 -1.34904e-07)
(-3.92344e-07 -4.69051e-08 4.6351e-09 -3.58642e-07 1.9504e-07 -1.87397e-07)
(-3.6615e-07 4.9301e-08 -4.50363e-09 -3.64495e-07 1.95254e-07 -1.87614e-07)
(-1.67476e-06 2.52355e-08 9.47263e-09 -5.18726e-07 1.6519e-07 -1.35394e-07)
(-1.92484e-06 -2.95055e-08 -7.39447e-09 -4.96845e-07 1.63206e-07 -2.55476e-07)
(-3.92149e-07 -3.11242e-08 5.97442e-09 -4.0652e-07 1.71977e-07 -3.16374e-07)
(-3.66641e-07 3.32014e-08 -5.98887e-09 -4.0903e-07 1.72039e-07 -3.16502e-07)
(-1.7117e-06 3.00214e-08 7.15328e-09 -5.00692e-07 1.63329e-07 -2.55675e-07)
(-1.96372e-06 -2.07664e-08 -4.81731e-09 -4.43657e-07 1.5382e-07 -3.49684e-07)
(-3.48563e-07 -2.42591e-08 7.74673e-09 -4.49751e-07 1.53249e-07 -4.13036e-07)
(-3.23283e-07 2.5123e-08 -7.74609e-09 -4.50762e-07 1.53137e-07 -4.13156e-07)
(-1.74623e-06 2.11619e-08 4.59639e-09 -4.45773e-07 1.53363e-07 -3.49787e-07)
(-2.0488e-06 -3.02413e-09 -3.11337e-09 -4.15853e-07 1.48679e-07 -4.37392e-07)
(-3.46549e-07 -1.39679e-08 8.77334e-09 -4.73126e-07 1.45474e-07 -5.01162e-07)
(-3.207e-07 1.38486e-08 -8.70199e-09 -4.73669e-07 1.45176e-07 -5.0125e-07)
(-1.82517e-06 3.26995e-09 2.93835e-09 -4.16931e-07 1.47643e-07 -4.37331e-07)
(-2.23209e-06 3.87735e-08 -2.27901e-09 -4.94664e-07 1.37121e-07 -5.36291e-07)
(-4.6559e-07 1.05102e-08 8.81897e-09 -5.05138e-07 1.33605e-07 -5.99294e-07)
(-4.38817e-07 -1.21487e-08 -8.69234e-09 -5.05102e-07 1.33172e-07 -5.99264e-07)
(-2.00087e-06 -3.89767e-08 2.16425e-09 -4.93893e-07 1.3565e-07 -5.35837e-07)
(-2.5889e-06 1.13383e-07 -2.94693e-09 -1.11069e-06 9.91085e-08 -6.32785e-07)
(-7.84412e-07 5.12436e-08 7.71141e-09 -9.1583e-07 9.48745e-08 -6.93862e-07)
(-7.56145e-07 -5.56968e-08 -7.46126e-09 -9.09633e-07 9.44617e-08 -6.93664e-07)
(-2.34845e-06 -1.14227e-07 2.95169e-09 -1.09295e-06 9.76537e-08 -6.31785e-07)
(-3.25833e-06 1.49901e-07 -4.65493e-09 -3.29784e-06 4.61059e-08 -6.69128e-07)
(-1.21955e-06 7.1962e-08 7.35343e-09 -2.79445e-06 4.10497e-08 -7.27097e-07)
(-1.18762e-06 -6.98066e-08 -6.59189e-09 -2.74618e-06 4.08769e-08 -7.26834e-07)
(-3.00448e-06 -1.4738e-07 4.96998e-09 -3.15865e-06 4.54875e-08 -6.67853e-07)
(-1.67764e-06 4.0498e-08 -9.19713e-10 7.12036e-08 1.23999e-07 -1.92726e-08)
(-1.96711e-07 -9.30497e-08 4.9655e-09 -2.44409e-07 1.54308e-07 -4.00507e-08)
(-1.77255e-07 9.00075e-08 -4.823e-09 -2.5705e-07 1.54554e-07 -4.01971e-08)
(-1.47605e-06 -3.32366e-08 8.38853e-10 1.92502e-08 1.25087e-07 -1.97229e-08)
(-1.77472e-06 -2.24923e-08 4.59396e-10 -5.31531e-07 1.48801e-07 -1.14161e-07)
(-3.46088e-07 -4.51189e-08 7.93036e-09 -3.91715e-07 1.63164e-07 -1.54238e-07)
(-3.20446e-07 4.73146e-08 -7.92576e-09 -3.97573e-07 1.63286e-07 -1.54433e-07)
(-1.56799e-06 2.39627e-08 -6.37417e-10 -5.40322e-07 1.49338e-07 -1.14787e-07)
(-1.81805e-06 -2.6678e-08 2.82552e-09 -5.04017e-07 1.54665e-07 -2.28575e-07)
(-3.46173e-07 -2.90762e-08 9.64948e-09 -4.2398e-07 1.57541e-07 -2.7515e-07)
(-3.21167e-07 3.11453e-08 -9.81833e-09 -4.26588e-07 1.57541e-07 -2.75301e-07)
(-1.60868e-06 2.72096e-08 -3.05929e-09 -5.0831e-07 1.54704e-07 -2.29075e-07)
(-1.86239e-06 -1.84827e-08 4.96223e-09 -4.24341e-07 1.47214e-07 -3.3677e-07)
(-3.09673e-07 -2.27189e-08 1.10677e-08 -4.34684e-07 1.45239e-07 -3.84819e-07)
(-2.84855e-07 2.36684e-08 -1.13097e-08 -4.35867e-07 1.45116e-07 -3.8492e-07)
(-1.64854e-06 1.89294e-08 -5.21193e-09 -4.27011e-07 1.46813e-07 -3.3709e-07)
(-1.95292e-06 -1.6977e-09 6.45738e-09 -3.7387e-07 1.32433e-07 -4.34995e-07)
(-3.1457e-07 -1.3328e-08 1.19346e-08 -4.31942e-07 1.29606e-07 -4.82846e-07)
(-2.89141e-07 1.32604e-08 -1.21731e-08 -4.32672e-07 1.29366e-07 -4.8288e-07)
(-1.73265e-06 1.9872e-09 -6.69201e-09 -3.75508e-07 1.31642e-07 -4.35072e-07)
(-2.14113e-06 3.8507e-08 7.01068e-09 -4.47013e-07 1.06372e-07 -5.22302e-07)
(-4.37322e-07 9.80975e-09 1.19704e-08 -4.59271e-07 1.0427e-07 -5.6916e-07)
(-4.1089e-07 -1.1488e-08 -1.21627e-08 -4.59379e-07 1.03959e-07 -5.69093e-07)
(-1.91271e-06 -3.86862e-08 -7.20323e-09 -4.46665e-07 1.05325e-07 -5.2203e-07)
(-2.50053e-06 1.10155e-07 5.99968e-09 -1.06325e-06 6.41526e-08 -5.83709e-07)
(-7.53833e-07 4.86208e-08 1.09535e-08 -8.77064e-07 6.20673e-08 -6.29012e-07)
(-7.25766e-07 -5.31743e-08 -1.10152e-08 -8.70934e-07 6.17938e-08 -6.28846e-07)
(-2.26198e-06 -1.10984e-07 -6.09834e-09 -1.04568e-06 6.3168e-08 -5.83068e-07)
(-3.16318e-06 1.44813e-07 4.35974e-09 -3.20078e-06 2.56994e-08 -5.92196e-07)
(-1.18239e-06 6.88492e-08 1.07204e-08 -2.71385e-06 2.23469e-08 -6.36751e-07)
(-1.1505e-06 -6.674e-08 -1.03869e-08 -2.66572e-06 2.22388e-08 -6.36586e-07)
(-2.9102e-06 -1.42271e-07 -4.23453e-09 -3.06187e-06 2.52931e-08 -5.91451e-07)
(-1.61843e-06 3.89364e-08 1.90554e-10 5.30054e-08 9.63317e-08 -2.97198e-08)
(-1.88598e-07 -9.00128e-08 3.31298e-09 -2.51778e-07 1.10053e-07 -4.07677e-08)
(-1.6941e-07 8.67731e-08 -3.22623e-09 -2.64357e-07 1.10222e-07 -4.08572e-08)
(-1.41918e-06 -3.18868e-08 -2.36669e-10 1.51222e-09 9.70716e-08 -3.00422e-08)
(-1.71411e-06 -2.0761e-08 1.69505e-09 -5.32912e-07 1.13298e-07 -1.19751e-07)
(-3.34052e-07 -4.30861e-08 5.69431e-09 -3.99485e-07 1.18968e-07 -1.40972e-07)
(-3.08769e-07 4.50703e-08 -5.69891e-09 -4.05377e-07 1.19058e-07 -1.41135e-07)
(-1.50979e-06 2.21348e-08 -1.80434e-09 -5.4195e-07 1.13702e-07 -1.20349e-07)
(-1.7607e-06 -2.46676e-08 3.33508e-09 -5.02902e-07 1.20202e-07 -2.26311e-07)
(-3.37818e-07 -2.76174e-08 6.94146e-09 -4.27878e-07 1.20304e-07 -2.5061e-07)
(-3.13144e-07 2.95658e-08 -7.08211e-09 -4.30565e-07 1.20302e-07 -2.50772e-07)
(-1.55368e-06 2.51611e-08 -3.49196e-09 -5.07534e-07 1.20253e-07 -2.26926e-07)
(-1.8095e-06 -1.6931e-08 4.69776e-09 -4.15632e-07 1.15275e-07 -3.33019e-07)
(-3.07385e-07 -2.17346e-08 7.80913e-09 -4.27641e-07 1.13225e-07 -3.57409e-07)
(-2.82867e-07 2.26501e-08 -8.03435e-09 -4.28928e-07 1.13134e-07 -3.57528e-07)
(-1.59787e-06 1.73753e-08 -4.87999e-09 -4.18666e-07 1.1501e-07 -3.33505e-07)
(-1.90417e-06 -8.53462e-10 5.63101e-09 -3.58292e-07 1.00164e-07 -4.29081e-07)
(-3.17503e-07 -1.29446e-08 8.3102e-09 -4.16104e-07 9.81746e-08 -4.52629e-07)
(-2.92344e-07 1.28702e-08 -8.55996e-09 -4.16941e-07 9.80095e-08 -4.52679e-07)
(-1.68591e-06 1.15493e-09 -5.81397e-09 -3.60272e-07 9.9637e-08 -4.29342e-07)
(-2.09513e-06 3.81085e-08 5.8903e-09 -4.31429e-07 7.46771e-08 -5.0575e-07)
(-4.42373e-07 9.25054e-09 8.28638e-09 -4.44256e-07 7.37023e-08 -5.28332e-07)
(-4.16159e-07 -1.09538e-08 -8.51019e-09 -4.44443e-07 7.34996e-08 -5.28297e-07)
(-1.86838e-06 -3.82743e-08 -6.04871e-09 -4.31327e-07 7.39966e-08 -5.05719e-07)
(-2.45426e-06 1.0776e-07 5.10608e-09 -1.04391e-06 4.08439e-08 -5.51785e-07)
(-7.56031e-07 4.68304e-08 7.63167e-09 -8.63002e-07 4.02779e-08 -5.73684e-07)
(-7.28102e-07 -5.14278e-08 -7.75654e-09 -8.56904e-07 4.01056e-08 -5.73581e-07)
(-2.21685e-06 -1.08574e-07 -5.20141e-09 -1.02643e-06 4.02171e-08 -5.5148e-07)
(-3.10963e-06 1.4135e-07 3.94343e-09 -3.14048e-06 1.51583e-08 -5.57219e-07)
(-1.17901e-06 6.6824e-08 7.49711e-09 -2.66484e-06 1.35445e-08 -5.79769e-07)
(-1.14717e-06 -6.47316e-08 -7.35326e-09 -2.61676e-06 1.34785e-08 -5.79679e-07)
(-2.85715e-06 -1.38791e-07 -3.89245e-09 -3.00167e-06 1.49031e-08 -5.56859e-07)
(-1.5864e-06 3.87906e-08 1.2617e-10 4.72442e-08 6.04982e-08 -3.63678e-08)
(-1.85879e-07 -8.77456e-08 1.66806e-09 -2.52806e-07 6.62857e-08 -4.1793e-08)
(-1.66845e-07 8.43799e-08 -1.61842e-09 -2.6534e-07 6.63859e-08 -4.18661e-08)
(-1.38849e-06 -3.1867e-08 -1.48133e-10 -3.94603e-09 6.09271e-08 -3.66381e-08)
(-1.68172e-06 -1.95865e-08 9.38131e-10 -5.28501e-07 6.98979e-08 -1.26392e-07)
(-3.314e-07 -4.17678e-08 2.91873e-09 -3.98547e-07 7.18604e-08 -1.36401e-07)
(-3.0632e-07 4.36082e-08 -2.91769e-09 -4.04465e-07 7.19189e-08 -1.36554e-07)
(-1.47879e-06 2.08961e-08 -9.92684e-10 -5.37693e-07 7.01517e-08 -1.26956e-07)
(-1.73049e-06 -2.35081e-08 1.80524e-09 -4.98866e-07 7.45306e-08 -2.27219e-07)
(-3.38397e-07 -2.67968e-08 3.57417e-09 -4.26197e-07 7.39919e-08 -2.38116e-07)
(-3.13911e-07 2.8637e-08 -3.65529e-09 -4.28941e-07 7.3995e-08 -2.3829e-07)
(-1.52481e-06 2.39639e-08 -1.88892e-09 -5.03728e-07 7.45808e-08 -2.27876e-07)
(-1.78214e-06 -1.60726e-08 2.51048e-09 -4.11663e-07 7.16886e-08 -3.2823e-07)
(-3.11919e-07 -2.12308e-08 4.00062e-09 -4.24182e-07 7.03123e-08 -3.38458e-07)
(-2.87569e-07 2.20887e-08 -4.14166e-09 -4.25534e-07 7.02614e-08 -3.38607e-07)
(-1.57177e-06 1.65004e-08 -2.61349e-09 -4.14929e-07 7.15495e-08 -3.28823e-07)
(-1.87934e-06 -4.21565e-10 2.97903e-09 -3.54412e-07 6.13343e-08 -4.18488e-07)
(-3.2515e-07 -1.27772e-08 4.22963e-09 -4.1169e-07 6.02279e-08 -4.27704e-07)
(-3.00137e-07 1.26773e-08 -4.39547e-09 -4.12587e-07 6.01342e-08 -4.27796e-07)
(-1.6622e-06 7.21318e-10 -3.08691e-09 -3.56596e-07 6.1042e-08 -4.18905e-07)
(-2.07164e-06 3.78146e-08 3.08235e-09 -4.28643e-07 4.42261e-08 -4.88006e-07)
(-4.51007e-07 8.91429e-09 4.19873e-09 -4.41398e-07 4.38838e-08 -4.96516e-07)
(-4.24911e-07 -1.06351e-08 -4.35398e-09 -4.41627e-07 4.37705e-08 -4.96537e-07)
(-1.84581e-06 -3.79744e-08 -3.17847e-09 -4.2868e-07 4.38478e-08 -4.88181e-07)
(-2.42989e-06 1.06371e-07 2.6391e-09 -1.03654e-06 2.32701e-08 -5.28497e-07)
(-7.62568e-07 4.5872e-08 3.87039e-09 -8.5819e-07 2.33123e-08 -5.36948e-07)
(-7.34712e-07 -5.04883e-08 -3.96768e-09 -8.52107e-07 2.32174e-08 -5.36914e-07)
(-2.19309e-06 -1.07175e-07 -2.69998e-09 -1.0191e-06 2.29235e-08 -5.2845e-07)
(-3.08005e-06 1.39432e-07 1.96037e-09 -3.10583e-06 8.33078e-09 -5.36248e-07)
(-1.18185e-06 6.57583e-08 3.79017e-09 -2.63625e-06 7.7216e-09 -5.45706e-07)
(-1.15002e-06 -6.36708e-08 -3.73479e-09 -2.58819e-06 7.68587e-09 -5.45686e-07)
(-2.82782e-06 -1.36861e-07 -1.93971e-09 -2.96705e-06 8.19085e-09 -5.3616e-07)
(-1.57219e-06 3.87983e-08 2.31436e-11 4.58919e-08 2.05788e-08 -3.93549e-08)
(-1.8488e-07 -8.66925e-08 4.89763e-10 -2.52324e-07 2.2186e-08 -4.26034e-08)
(-1.65915e-07 8.32656e-08 -4.73371e-10 -2.64835e-07 2.22194e-08 -4.26726e-08)
(-1.37489e-06 -3.19334e-08 -2.95762e-11 -5.14867e-09 2.0719e-08 -3.96061e-08)
(-1.66742e-06 -1.90637e-08 2.54774e-10 -5.25076e-07 2.35493e-08 -1.29804e-07)
(-3.30729e-07 -4.11866e-08 8.54851e-10 -3.96684e-07 2.40151e-08 -1.35421e-07)
(-3.0574e-07 4.29568e-08 -8.53366e-10 -4.02615e-07 2.40354e-08 -1.35572e-07)
(-1.46512e-06 2.03426e-08 -2.71056e-10 -5.34337e-07 2.36355e-08 -1.30351e-07)
(-1.71722e-06 -2.30049e-08 5.15319e-10 -4.96024e-07 2.51068e-08 -2.2771e-07)
(-3.39369e-07 -2.64524e-08 1.0487e-09 -4.24307e-07 2.48525e-08 -2.33338e-07)
(-3.14966e-07 2.82345e-08 -1.0743e-09 -4.27081e-07 2.48547e-08 -2.3352e-07)
(-1.51215e-06 2.34402e-08 -5.41168e-10 -5.00998e-07 2.51274e-08 -2.28379e-07)
(-1.77022e-06 -1.57067e-08 7.28322e-10 -4.10073e-07 2.4163e-08 -3.24822e-07)
(-3.14754e-07 -2.10313e-08 1.17258e-09 -4.22705e-07 2.36935e-08 -3.29526e-07)
(-2.90476e-07 2.18528e-08 -1.2193e-09 -4.2409e-07 2.36776e-08 -3.29694e-07)
(-1.56041e-06 1.61229e-08 -7.6112e-10 -4.13453e-07 2.4121e-08 -3.25464e-07)
(-1.86858e-06 -2.46544e-10 8.6762e-10 -3.54039e-07 2.05564e-08 -4.11155e-07)
(-3.29379e-07 -1.27203e-08 1.23617e-09 -4.10963e-07 2.02094e-08 -4.14872e-07)
(-3.04429e-07 1.26018e-08 -1.29272e-09 -4.11888e-07 2.01793e-08 -4.14992e-07)
(-1.65193e-06 5.42773e-10 -9.02732e-10 -3.56319e-07 2.04637e-08 -4.11653e-07)
(-2.0614e-06 3.76731e-08 8.94941e-10 -4.29024e-07 1.46528e-08 -4.77198e-07)
(-4.55607e-07 8.76741e-09 1.2244e-09 -4.41614e-07 1.45802e-08 -4.80404e-07)
(-4.29562e-07 -1.04983e-08 -1.27842e-09 -4.41861e-07 1.45438e-08 -4.80461e-07)
(-1.83596e-06 -3.78311e-08 -9.26673e-10 -4.29124e-07 1.4532e-08 -4.77484e-07)
(-2.41905e-06 1.05761e-07 7.55798e-10 -1.03416e-06 7.62818e-09 -5.16027e-07)
(-7.66121e-07 4.54775e-08 1.12817e-09 -8.56789e-07 7.70267e-09 -5.19454e-07)
(-7.38296e-07 -5.01016e-08 -1.16343e-09 -8.50711e-07 7.67235e-09 -5.19462e-07)
(-2.18251e-06 -1.0656e-07 -7.76283e-10 -1.01674e-06 7.51743e-09 -5.16116e-07)
(-3.06661e-06 1.38606e-07 5.32938e-10 -3.09013e-06 2.69134e-09 -5.25563e-07)
(-1.18359e-06 6.53197e-08 1.09993e-09 -2.62305e-06 2.5474e-09 -5.30012e-07)
(-1.15177e-06 -6.32333e-08 -1.08602e-09 -2.575e-06 2.53608e-09 -5.30032e-07)
(-2.81447e-06 -1.3603e-07 -5.27329e-10 -2.95136e-06 2.64679e-09 -5.25616e-07)
)
;

boundaryField
{
    interface
    {
        type            calculated;
        value           nonuniform List<symmTensor> 
192
(
(-4.72512e-06 2.24263e-12 1.71539e-11 1.51424e-06 2.6766e-07 -2.93125e-06)
(-4.43368e-06 2.34899e-12 2.78716e-11 -5.29754e-07 4.59245e-08 -3.01303e-06)
(-4.52845e-06 8.16661e-13 3.20275e-11 -6.79282e-07 7.39542e-09 -3.08734e-06)
(-4.67178e-06 -2.05331e-12 3.33692e-11 -6.48722e-07 1.49772e-08 -3.1733e-06)
(-4.84231e-06 -4.65732e-12 3.32906e-11 -6.85248e-07 3.90604e-08 -3.28626e-06)
(-5.06037e-06 -9.20082e-12 3.26035e-11 -9.18952e-07 8.38119e-08 -3.44727e-06)
(-5.34985e-06 -1.26926e-11 3.02545e-11 -1.78124e-06 1.48915e-07 -3.7081e-06)
(-5.90487e-06 -2.8846e-11 2.84568e-11 -4.20779e-06 1.72878e-07 -4.2054e-06)
(-3.90466e-06 1.61796e-12 8.40461e-12 6.21298e-07 5.19255e-08 -6.00308e-07)
(-3.7133e-06 1.87922e-12 1.45969e-11 -3.86756e-07 6.23804e-08 -9.79021e-07)
(-3.76681e-06 5.72499e-13 1.65435e-11 -5.20415e-07 5.23228e-08 -1.05687e-06)
(-3.87304e-06 -2.32181e-12 1.68362e-11 -5.60093e-07 5.51231e-08 -1.08183e-06)
(-4.02432e-06 -5.0435e-12 1.63305e-11 -6.11829e-07 8.74243e-08 -1.12815e-06)
(-4.24639e-06 -1.00247e-11 1.55095e-11 -7.69783e-07 1.40667e-07 -1.2347e-06)
(-4.59014e-06 -1.38735e-11 1.39886e-11 -1.44626e-06 1.81727e-07 -1.4537e-06)
(-5.35421e-06 -3.07927e-11 1.27996e-11 -3.71055e-06 1.49758e-07 -1.78222e-06)
(-3.40001e-06 1.38842e-12 6.57569e-12 2.56343e-07 1.14756e-07 -8.60493e-08)
(-3.32488e-06 1.64391e-12 1.12609e-11 -4.52122e-07 1.37456e-07 -2.93955e-07)
(-3.38599e-06 3.92966e-13 1.26975e-11 -4.86857e-07 1.27757e-07 -4.06598e-07)
(-3.48624e-06 -2.61226e-12 1.2875e-11 -4.85116e-07 1.21119e-07 -4.63238e-07)
(-3.63762e-06 -5.55394e-12 1.2446e-11 -4.98832e-07 1.35644e-07 -5.24285e-07)
(-3.87334e-06 -1.10515e-11 1.17792e-11 -6.00522e-07 1.56224e-07 -6.28948e-07)
(-4.25169e-06 -1.54347e-11 1.0694e-11 -1.2206e-06 1.46421e-07 -7.85005e-07)
(-5.07172e-06 -3.34421e-11 9.80211e-12 -3.45153e-06 8.71477e-08 -9.1748e-07)
(-3.10051e-06 1.04211e-12 3.9746e-12 1.21374e-07 1.35968e-07 -1.4436e-08)
(-3.06773e-06 1.14725e-12 7.19902e-12 -5.10218e-07 1.6444e-07 -1.34904e-07)
(-3.13862e-06 -1.18414e-13 8.14021e-12 -4.96845e-07 1.63206e-07 -2.55476e-07)
(-3.24147e-06 -3.13214e-12 8.16862e-12 -4.43657e-07 1.5382e-07 -3.49684e-07)
(-3.39682e-06 -6.16151e-12 7.77827e-12 -4.15853e-07 1.48679e-07 -4.37392e-07)
(-3.64178e-06 -1.18695e-11 7.24803e-12 -4.94664e-07 1.37121e-07 -5.36291e-07)
(-4.03658e-06 -1.64849e-11 6.56825e-12 -1.11069e-06 9.91085e-08 -6.32785e-07)
(-4.86638e-06 -3.47278e-11 6.05002e-12 -3.29784e-06 4.61059e-08 -6.69128e-07)
(-2.92476e-06 8.73336e-13 2.88811e-12 7.12036e-08 1.23999e-07 -1.92726e-08)
(-2.90324e-06 8.32269e-13 5.23058e-12 -5.31531e-07 1.48801e-07 -1.14161e-07)
(-2.97963e-06 -5.00163e-13 5.92219e-12 -5.04017e-07 1.54665e-07 -2.28575e-07)
(-3.08653e-06 -3.55363e-12 5.94021e-12 -4.24341e-07 1.47214e-07 -3.3677e-07)
(-3.24623e-06 -6.68118e-12 5.6512e-12 -3.7387e-07 1.32433e-07 -4.34995e-07)
(-3.49674e-06 -1.25693e-11 5.25684e-12 -4.47013e-07 1.06372e-07 -5.22302e-07)
(-3.89776e-06 -1.7396e-11 4.78591e-12 -1.06325e-06 6.41526e-08 -5.83709e-07)
(-4.72221e-06 -3.58864e-11 4.41754e-12 -3.20078e-06 2.56994e-08 -5.92196e-07)
(-2.82263e-06 7.41068e-13 1.74605e-12 5.30054e-08 9.63317e-08 -2.97198e-08)
(-2.80407e-06 5.75661e-13 3.2744e-12 -5.32912e-07 1.13298e-07 -1.19751e-07)
(-2.88334e-06 -8.19082e-13 3.73093e-12 -5.02902e-07 1.20202e-07 -2.26311e-07)
(-2.99353e-06 -3.89672e-12 3.73246e-12 -4.15632e-07 1.15275e-07 -3.33019e-07)
(-3.15662e-06 -7.07757e-12 3.53098e-12 -3.58292e-07 1.00164e-07 -4.29081e-07)
(-3.41018e-06 -1.30526e-11 3.26421e-12 -4.31429e-07 7.46771e-08 -5.0575e-07)
(-3.81277e-06 -1.79866e-11 2.97687e-12 -1.04391e-06 4.08439e-08 -5.51785e-07)
(-4.62943e-06 -3.65928e-11 2.76463e-12 -3.14048e-06 1.51583e-08 -5.57219e-07)
(-2.7661e-06 6.75885e-13 1.01929e-12 4.72442e-08 6.04982e-08 -3.63678e-08)
(-2.74848e-06 4.24669e-13 1.90973e-12 -5.28501e-07 6.98979e-08 -1.26392e-07)
(-2.82924e-06 -1.0213e-12 2.17798e-12 -4.98866e-07 7.45306e-08 -2.27219e-07)
(-2.94155e-06 -4.12324e-12 2.1797e-12 -4.11663e-07 7.16886e-08 -3.2823e-07)
(-3.10676e-06 -7.34534e-12 2.06342e-12 -3.54412e-07 6.13343e-08 -4.18488e-07)
(-3.36182e-06 -1.33805e-11 1.90584e-12 -4.28643e-07 4.42261e-08 -4.88006e-07)
(-3.76435e-06 -1.839e-11 1.74413e-12 -1.03654e-06 2.32701e-08 -5.28497e-07)
(-4.57506e-06 -3.70853e-11 1.617e-12 -3.10583e-06 8.33078e-09 -5.36248e-07)
(-2.74081e-06 6.36014e-13 2.99436e-13 4.58919e-08 2.05788e-08 -3.93549e-08)
(-2.72353e-06 3.40274e-13 5.82756e-13 -5.25076e-07 2.35493e-08 -1.29804e-07)
(-2.80496e-06 -1.12943e-12 6.69397e-13 -4.96024e-07 2.51068e-08 -2.2771e-07)
(-2.91827e-06 -4.23843e-12 6.68728e-13 -4.10073e-07 2.4163e-08 -3.24822e-07)
(-3.08448e-06 -7.47662e-12 6.30637e-13 -3.54039e-07 2.05564e-08 -4.11155e-07)
(-3.34012e-06 -1.35328e-11 5.79011e-13 -4.29024e-07 1.46528e-08 -4.77198e-07)
(-3.74235e-06 -1.85764e-11 5.31332e-13 -1.03416e-06 7.62818e-09 -5.16027e-07)
(-4.55002e-06 -3.73076e-11 4.91734e-13 -3.09013e-06 2.69134e-09 -5.25563e-07)
(-2.88596e-06 2.30133e-07 -2.37439e-11 1.51424e-06 -5.79394e-12 -4.8183e-06)
(-3.0146e-06 6.25925e-09 -4.05899e-11 -5.29754e-07 -7.23555e-12 -4.49875e-06)
(-3.09259e-06 -3.16207e-08 -4.79831e-11 -6.79282e-07 -6.4295e-12 -4.59453e-06)
(-3.15598e-06 -2.25011e-08 -5.10252e-11 -6.48722e-07 -4.92595e-12 -4.7482e-06)
(-3.25175e-06 -2.15422e-09 -5.22336e-11 -6.85248e-07 -4.24475e-12 -4.92559e-06)
(-3.42115e-06 3.76212e-08 -5.32041e-11 -9.18952e-07 -4.49477e-12 -5.13945e-06)
(-3.71382e-06 1.04918e-07 -5.44297e-11 -1.78124e-06 -5.43352e-12 -5.41484e-06)
(-4.2214e-06 1.35087e-07 -6.01052e-11 -4.20779e-06 -6.76368e-12 -5.95722e-06)
(-6.93974e-07 -3.04617e-08 -1.38433e-11 9.46948e-07 -3.46228e-12 -4.29853e-06)
(-1.20392e-06 -3.61223e-08 -2.66424e-11 -2.69711e-07 -5.63586e-12 -3.99341e-06)
(-1.27589e-06 -3.60368e-08 -3.18207e-11 -5.07189e-07 -5.30737e-12 -4.01402e-06)
(-1.23833e-06 -2.83372e-08 -3.37517e-11 -6.2231e-07 -3.59792e-12 -4.11622e-06)
(-1.23824e-06 -1.43451e-08 -3.45383e-11 -7.29797e-07 -2.36403e-12 -4.26254e-06)
(-1.35627e-06 1.13764e-08 -3.55764e-11 -9.25645e-07 -1.66537e-12 -4.46241e-06)
(-1.65824e-06 5.01099e-08 -3.78696e-11 -1.60743e-06 -1.78125e-12 -4.77207e-06)
(-2.06131e-06 6.61584e-08 -4.52646e-11 -3.84262e-06 -2.24709e-12 -5.52894e-06)
(-6.71558e-07 1.64454e-08 -1.35891e-11 9.2705e-07 -2.54917e-12 -4.21906e-06)
(-1.17347e-06 3.17221e-08 -2.64584e-11 -2.72636e-07 -4.70531e-12 -3.91822e-06)
(-1.24543e-06 3.45573e-08 -3.18381e-11 -5.07223e-07 -4.55445e-12 -3.93642e-06)
(-1.20782e-06 2.72316e-08 -3.38849e-11 -6.21851e-07 -2.66981e-12 -4.03629e-06)
(-1.20728e-06 1.30406e-08 -3.46655e-11 -7.29354e-07 -1.04903e-12 -4.18083e-06)
(-1.32492e-06 -1.36603e-08 -3.55459e-11 -9.24599e-07 3.05492e-13 -4.3791e-06)
(-1.62631e-06 -5.45529e-08 -3.7529e-11 -1.59992e-06 1.02141e-12 -4.68728e-06)
(-2.02672e-06 -6.35254e-08 -4.46902e-11 -3.79337e-06 1.15564e-12 -5.44451e-06)
(-2.66274e-06 -2.26141e-07 -1.45758e-11 1.44295e-06 -2.08857e-12 -4.59046e-06)
(-2.7812e-06 -7.12475e-09 -2.96472e-11 -5.2988e-07 -4.15442e-12 -4.28248e-06)
(-2.85504e-06 3.08413e-08 -3.64249e-11 -6.76513e-07 -4.01706e-12 -4.37011e-06)
(-2.91387e-06 2.21106e-08 -3.91295e-11 -6.46857e-07 -1.96857e-12 -4.51692e-06)
(-3.00502e-06 1.77612e-09 -4.01429e-11 -6.8353e-07 -1.52527e-13 -4.68937e-06)
(-3.17033e-06 -3.83899e-08 -4.12869e-11 -9.15428e-07 1.51816e-12 -4.899e-06)
(-3.45897e-06 -1.06174e-07 -4.30984e-11 -1.7605e-06 2.71526e-12 -5.17105e-06)
(-3.95811e-06 -1.32658e-07 -5.07042e-11 -4.06926e-06 3.82635e-12 -5.71872e-06)
(-4.32351e-06 4.55882e-12 3.6468e-12 1.44295e-06 2.65411e-07 -2.80557e-06)
(-4.02778e-06 6.38563e-12 7.44841e-12 -5.2988e-07 4.68899e-08 -2.88938e-06)
(-4.11427e-06 5.16724e-12 8.74304e-12 -6.76513e-07 8.06551e-09 -2.95949e-06)
(-4.24856e-06 1.99414e-12 9.4476e-12 -6.46857e-07 1.50031e-08 -3.0419e-06)
(-4.41076e-06 1.70276e-13 1.0054e-11 -6.8353e-07 3.85821e-08 -3.15216e-06)
(-4.62144e-06 -2.3894e-12 1.17091e-11 -9.15428e-07 8.28688e-08 -3.3108e-06)
(-4.90402e-06 -2.21962e-12 1.31622e-11 -1.7605e-06 1.47415e-07 -3.56949e-06)
(-5.44748e-06 -1.62504e-11 1.71059e-11 -4.06926e-06 1.71445e-07 -4.06819e-06)
(-3.51091e-06 1.81647e-12 -2.09737e-12 5.63095e-07 5.78786e-08 -5.88372e-07)
(-3.32272e-06 2.94691e-12 -2.2842e-12 -3.93878e-07 6.503e-08 -9.62052e-07)
(-3.36982e-06 2.45525e-12 -2.89238e-12 -5.21674e-07 5.35147e-08 -1.03971e-06)
(-3.46718e-06 6.46766e-13 -3.01646e-12 -5.59795e-07 5.52152e-08 -1.06478e-06)
(-3.60895e-06 1.4874e-13 -2.63989e-12 -6.10862e-07 8.64799e-08 -1.11091e-06)
(-3.82125e-06 -1.2932e-12 -1.20809e-12 -7.67223e-07 1.388e-07 -1.21701e-06)
(-4.15512e-06 2.9944e-13 6.57084e-13 -1.42732e-06 1.79295e-07 -1.43506e-06)
(-4.90531e-06 -1.25081e-11 3.49467e-12 -3.56979e-06 1.48296e-07 -1.76171e-06)
(-3.01923e-06 1.00773e-12 -1.33214e-12 2.02413e-07 1.1754e-07 -8.6312e-08)
(-2.94647e-06 1.62025e-12 -9.68933e-13 -4.60392e-07 1.38872e-07 -2.92681e-07)
(-3.00117e-06 1.43557e-12 -8.21264e-13 -4.89977e-07 1.28275e-07 -4.05067e-07)
(-3.09246e-06 3.47576e-13 -4.6955e-13 -4.86313e-07 1.2082e-07 -4.61932e-07)
(-3.23339e-06 6.53036e-13 1.20213e-13 -4.99022e-07 1.34498e-07 -5.22979e-07)
(-3.45722e-06 -1.26176e-13 1.32832e-12 -5.99033e-07 1.54366e-07 -6.27244e-07)