/*--------------------------------*- C++ -*----------------------------------*\
| =========                 |                                                 |
| \\      /  F ield         | OpenFOAM: The Open Source CFD Toolbox           |
|  \\    /   O peration     | Version:  v1912                                 |
|   \\  /    A nd           | Website:  www.openfoam.com                      |
|    \\/     M anipulation  |                                                 |
\*---------------------------------------------------------------------------*/
FoamFile
{
    version     2.0;
    format      ascii;
    class       volScalarField;
    location    "0.88/solid";
    object      epsilonEq;
}
// * * * * * * * * * * * * * * * * * * * * * * * * * * * * * * * * * * * * * //

dimensions      [0 0 0 0 0 0 0];


internalField   nonuniform List<scalar> 
256
(
2.9782e-06
2.06399e-06
2.02735e-06
2.8164e-06
1.6633e-06
1.3733e-06
1.34746e-06
1.54579e-06
1.61534e-06
1.25337e-06
1.22879e-06
1.49693e-06
1.68571e-06
1.23162e-06
1.20729e-06
1.56452e-06
1.73181e-06
1.23781e-06
1.21357e-06
1.60854e-06
1.68968e-06
1.22434e-06
1.20037e-06
1.56564e-06
1.31525e-06
1.07208e-06
1.05297e-06
1.20192e-06
2.97506e-07
1.21131e-06
1.20138e-06
3.02433e-07
1.72148e-06
4.64045e-07
4.48375e-07
1.55906e-06
1.22095e-06
4.56123e-07
4.42965e-07
1.0791e-06
1.17179e-06
3.43646e-07
3.33695e-07
1.03074e-06
1.17385e-06
2.30394e-07
2.24672e-07
1.03055e-06
1.19607e-06
1.92451e-07
1.91253e-07
1.04979e-06
1.21978e-06
2.22463e-07
2.21231e-07
1.0708e-06
1.12399e-06
2.25947e-07
2.29018e-07
9.77289e-07
1.31633e-06
1.07546e-06
1.0559e-06
1.20157e-06
1.39976e-06
2.93638e-07
2.8705e-07
1.23931e-06
1.1568e-06
2.7481e-07
2.64799e-07
1.0135e-06
1.12852e-06
1.96682e-07
1.89237e-07
9.84344e-07
1.1312e-06
1.45887e-07
1.46189e-07
9.84201e-07
1.16141e-06
1.60262e-07
1.65341e-07
1.01096e-06
1.21358e-06
1.77454e-07
1.79622e-07
1.05969e-06
1.21776e-06
2.1914e-07
2.1829e-07
1.06708e-06
1.69406e-06
1.23101e-06
1.20641e-06
1.56743e-06
1.23906e-06
2.78395e-07
2.76897e-07
1.08446e-06
1.08137e-06
2.6417e-07
2.6103e-07
9.45292e-07
1.05931e-06
2.09528e-07
2.09383e-07
9.20429e-07
1.06137e-06
1.88884e-07
1.94705e-07
9.18258e-07
1.09508e-06
1.93977e-07
2.0266e-07
9.47575e-07
1.15643e-06
1.74188e-07
1.80586e-07
1.00428e-06
1.19033e-06
1.79418e-07
1.80487e-07
1.04045e-06
1.74886e-06
1.25062e-06
1.22553e-06
1.62142e-06
1.14687e-06
2.42002e-07
2.42325e-07
9.95416e-07
1.01248e-06
2.43862e-07
2.43315e-07
8.80184e-07
9.9742e-07
2.04284e-07
2.06246e-07
8.6155e-07
1.00393e-06
1.85088e-07
1.92003e-07
8.6304e-07
1.04422e-06
1.8098e-07
1.9033e-07
8.98559e-07
1.11289e-06
1.46522e-07
1.53436e-07
9.62038e-07
1.16119e-06
1.70172e-07
1.69757e-07
1.01217e-06
1.735e-06
1.24629e-06
1.2209e-06
1.60748e-06
1.09436e-06
2.06409e-07
2.07432e-07
9.44185e-07
9.64655e-07
2.13252e-07
2.13276e-07
8.33407e-07
9.54907e-07
1.75653e-07
1.77879e-07
8.19767e-07
9.67385e-07
1.50567e-07
1.5795e-07
8.27005e-07
1.01446e-06
1.40289e-07
1.50243e-07
8.69332e-07
1.08954e-06
1.03257e-07
1.09518e-07
9.39192e-07
1.148e-06
1.83569e-07
1.80505e-07
9.99638e-07
1.71984e-06
1.24209e-06
1.21637e-06
1.59209e-06
1.06556e-06
1.77852e-07
1.79158e-07
9.15773e-07
9.35984e-07
1.84243e-07
1.84225e-07
8.04706e-07
9.29418e-07
1.41714e-07
1.43875e-07
7.94086e-07
9.46508e-07
1.08647e-07
1.17233e-07
8.0595e-07
9.9847e-07
9.55849e-08
1.07445e-07
8.53319e-07
1.07819e-06
6.20728e-08
6.78433e-08
9.27982e-07
1.14368e-06
1.99567e-07
1.94865e-07
9.95782e-07
1.71214e-06
1.23978e-06
1.21382e-06
1.58417e-06
1.05268e-06
1.61123e-07
1.62544e-07
9.02962e-07
9.22673e-07
1.66264e-07
1.6613e-07
7.91201e-07
9.17596e-07
1.18169e-07
1.20338e-07
7.82005e-07
9.37066e-07
7.68615e-08
8.76094e-08
7.96296e-07
9.91487e-07
6.2202e-08
7.77276e-08
8.46231e-07
1.07357e-06
3.00411e-08
3.70349e-08
9.23384e-07
1.14264e-06
2.08504e-07
2.03128e-07
9.94989e-07
1.70944e-06
1.23879e-06
1.21272e-06
1.58134e-06
)
;

boundaryField
{
    interface
    {
        type            calculated;
        value           nonuniform List<scalar> 
192
(
3.722e-06
2.28221e-06
2.24559e-06
2.34783e-06
2.42565e-06
2.41238e-06
2.06968e-06
1.14964e-06
2.70438e-06
2.05027e-06
2.01037e-06
2.05788e-06
2.12631e-06
2.1854e-06
2.10394e-06
2.0717e-06
2.3356e-06
1.9764e-06
1.9656e-06
2.01295e-06
2.08997e-06
2.17994e-06
2.18702e-06
2.41981e-06
2.10996e-06
1.85265e-06
1.85649e-06
1.90561e-06
1.9876e-06
2.09035e-06
2.13093e-06
2.44949e-06
1.97304e-06
1.74554e-06
1.75856e-06
1.81268e-06
1.90102e-06
2.01228e-06
2.06946e-06
2.41203e-06
1.89339e-06
1.67408e-06
1.69243e-06
1.75185e-06
1.84603e-06
1.96342e-06
2.03048e-06
2.37928e-06
1.84964e-06
1.63263e-06
1.65384e-06
1.71708e-06
1.8153e-06
1.93664e-06
2.00959e-06
2.3605e-06
1.8302e-06
1.61384e-06
1.63633e-06
1.70149e-06
1.80171e-06
1.92495e-06
2.00068e-06
2.35252e-06
3.75691e-06
2.31566e-06
2.28108e-06
2.38655e-06
2.46618e-06
2.45106e-06
2.10277e-06
1.1722e-06
3.0986e-06
2.23745e-06
2.12885e-06
2.15376e-06
2.20537e-06
2.22825e-06
2.09383e-06
2.00374e-06
3.04136e-06
2.19299e-06
2.08449e-06
2.10852e-06
2.15943e-06
2.18189e-06
2.05047e-06
1.975e-06
3.56781e-06
2.18096e-06
2.14423e-06
2.24546e-06
2.32251e-06
2.30702e-06
1.9729e-06
1.14876e-06
3.46502e-06
2.06084e-06
2.02013e-06
2.11691e-06
2.18985e-06
2.17211e-06
1.82972e-06
9.40247e-07
2.426e-06
1.79499e-06
1.7529e-06
1.79492e-06
1.85734e-06
1.91062e-06
1.82772e-06
1.82981e-06
2.06275e-06
1.7235e-06
1.70957e-06
1.75118e-06
1.82161e-06
1.90448e-06
1.90949e-06
2.17536e-06
1.84509e-06
1.60802e-06
1.60749e-06
1.64998e-06
1.72457e-06
1.81893e-06
1.85589e-06
2.20663e-06
1.71309e-06
1.5059e-06
1.51406e-06
1.56104e-06
1.64158e-06
1.74374e-06
1.79641e-06
2.17032e-06
1.6361e-06
1.43678e-06
1.45006e-06
1.50218e-06
1.58841e-06
1.69642e-06
1.7587e-06
2.13815e-06
1.59369e-06
1.3963e-06
1.41235e-06
1.46826e-06
1.55851e-06
1.67039e-06
1.73856e-06
2.11966e-06
1.57481e-06
1.37786e-06
1.39516e-06
1.45299e-06
1.54524e-06
1.65901e-06
1.73001e-06
2.1118e-06
1.17642e-06
2.10683e-06
2.46009e-06
2.49223e-06
2.45474e-06
2.42102e-06
2.40141e-06
2.39302e-06
2.00661e-06
2.10019e-06
2.2407e-06
2.22987e-06
2.19334e-06
2.16407e-06
2.14562e-06
2.13688e-06
1.97745e-06
2.05603e-06
2.19317e-06
2.18222e-06
2.14562e-06
2.11619e-06
2.0976e-06
2.0888e-06
1.15098e-06
1.9747e-06
2.31253e-06
2.34307e-06
2.30518e-06
2.27102e-06
2.25104e-06
2.24246e-06
)
;
    }
    symmetry
    {
        type            symmetry;
    }
    bottom
    {
        type            calculated;
        value           nonuniform List<scalar> 
32
(
4.31936e-06
2.27672e-06
1.73107e-06
1.51545e-06
1.40744e-06
1.34878e-06
1.31724e-06
1.30329e-06
2.73399e-06
5.88898e-07
2.8135e-07
2.63641e-07
2.30923e-07
1.97274e-07
1.69803e-07
1.53547e-07
2.6879e-06
5.66885e-07
2.65326e-07
2.52498e-07
2.20302e-07
1.85817e-07
1.56866e-07
1.39294e-07
4.11273e-06
2.09315e-06
1.54989e-06
1.3391e-06
1.23442e-06
1.17758e-06
1.14691e-06
1.13328e-06
)
;
    }
}


// ************************************************************************* //
