/*--------------------------------*- C++ -*----------------------------------*\
| =========                 |                                                 |
| \\      /  F ield         | OpenFOAM: The Open Source CFD Toolbox           |
|  \\    /   O peration     | Version:  v1912                                 |
|   \\  /    A nd           | Website:  www.openfoam.com                      |
|    \\/     M anipulation  |                                                 |
\*---------------------------------------------------------------------------*/
FoamFile
{
    version     2.0;
    format      ascii;
    class       volVectorField;
    location    "0.88/solid";
    object      heatFlux;
}
// * * * * * * * * * * * * * * * * * * * * * * * * * * * * * * * * * * * * * //

dimensions      [1 0 -3 0 0 0 0];


internalField   nonuniform List<vector> 
256
(
(-63434.3 74730.6 -66650)
(-13399.9 45069.7 -65735.8)
(11761.9 44478.2 -64344.6)
(55922.7 71665.5 -62591.9)
(-59808.3 12020.4 -63437.3)
(-16852.4 8015.63 -65741.2)
(14833.9 7927.17 -64306.6)
(51946.9 11642.1 -59371.9)
(-60850.9 2955.8 -64620.8)
(-17493.2 1894.66 -67370.3)
(15388.4 1867.17 -65880)
(52832.3 2842.69 -60421.7)
(-62663.5 2688.4 -66462.8)
(-17941.1 1652.3 -69415.8)
(15781.9 1635.16 -67884.4)
(54480.4 2608.34 -62157.3)
(-65161.4 4472.73 -68958.3)
(-18546.4 3011.52 -72266.8)
(16344.4 2996.24 -70704.2)
(56818.2 4403 -64570.8)
(-68572.1 10177.7 -72382)
(-19417.5 8377.29 -76459.9)
(17173.4 8335.35 -74867.5)
(60073.7 10048 -67916.8)
(-71548.7 29569.6 -75477.7)
(-20388.8 29302.2 -80995.1)
(18015.1 29032.5 -79372.8)
(62852.5 28835.9 -70941.1)
(-65245.9 69592.3 -69472.2)
(-19954.7 76337 -76240.7)
(16707.1 74784.6 -74703.9)
(56101.2 65278.3 -65213.3)
(-61016.9 41234.3 -18538)
(-12222 13313.9 -16346.1)
(11265 13123.1 -16147)
(53922.4 39301.5 -17956.9)
(-60921.2 7344.94 -23928.5)
(-15889.2 3016.64 -21757.2)
(14722.6 2986.67 -21502.6)
(53586.6 7121.35 -23195.4)
(-62439.5 1795.27 -24869.2)
(-16580.3 648.328 -22729.3)
(15369.7 638.844 -22460.7)
(54955.2 1725.93 -24101.1)
(-64467.2 1629.19 -25418.2)
(-17045.6 511.119 -23290.2)
(15800.2 503.255 -23015)
(56813.3 1568.26 -24636.2)
(-67347.2 2977.25 -26139.1)
(-17706.2 1289.41 -24068.3)
(16426.8 1279.71 -23789.9)
(59514.6 2913.39 -25354.5)
(-71588.6 8222.29 -27208.5)
(-18743.2 5847.23 -25332.7)
(17424.2 5808.22 -25052.8)
(63566.5 8087.81 -26430.9)
(-76172.2 28698.7 -28653)
(-20120.3 27322.4 -27301.1)
(18667.4 27037.4 -27021.8)
(67911.1 27907.2 -27892.2)
(-71627.6 75656.1 -29513.4)
(-20404.5 81143.2 -29272.1)
(18009 79497.1 -29009.9)
(62869.3 71041.7 -28815.5)
(-55125.6 32264.1 -5008.26)
(-11008.9 6966.27 -3024.72)
(10151.1 6828.61 -2998.69)
(48284.4 30513.1 -4904.71)
(-55796.3 5689.28 -6860.2)
(-14426.6 1632.48 -4427.74)
(13395.8 1613.49 -4390.92)
(48743.7 5497.94 -6721.16)
(-57320.9 1466.04 -7158.44)
(-15084.7 361.749 -4666.02)
(14016.6 354.776 -4626.96)
(50117.9 1401.92 -7013.52)
(-59311 1418.51 -7274.52)
(-15537.9 313.258 -4762.21)
(14435.9 305.883 -4722.61)
(51933 1354.92 -7129.88)
(-62205.7 2682.41 -7407.72)
(-16197.3 969.01 -4890.1)
(15058.2 958.522 -4850.82)
(54630.6 2608.25 -7268.58)
(-66591.9 7663.75 -7627.86)
(-17261.8 5144.55 -5138.53)
(16075.2 5103.45 -5100.53)
(58789.3 7510.34 -7501.12)
(-71692.8 27264.7 -8183.97)
(-18757.6 25362.8 -5839.68)
(17424 25075.3 -5804.13)
(63595.2 26451.3 -8077.65)
(-68755.9 72653.3 -10111.6)
(-19451.2 76689.6 -8346.04)
(17163.7 75060 -8312.06)
(60118 68072.7 -10022.8)
(-50936.1 29365.8 -1823.8)
(-10212.4 5861.49 -557.981)
(9384.96 5733.45 -552.223)
(44269.2 27675.7 -1781.07)
(-51652.2 5194.75 -2433.91)
(-13419.9 1375.34 -832.063)
(12429.2 1358.39 -823.769)
(44785.1 5012.54 -2378.34)
(-53118.4 1380.95 -2523.81)
(-14048.8 313.857 -876.377)
(13022.2 307.16 -867.675)
(46102 1317.21 -2466.64)
(-55067.6 1379.92 -2548.96)
(-14493.7 287.042 -889.456)
(13432.6 279.401 -880.817)
(47871.8 1313.2 -2492.96)
(-57944.3 2623.91 -2572.19)
(-15149.3 913.097 -906.51)
(14048.3 901.787 -898.275)
(50537.3 2542.14 -2520.26)
(-62346 7446.04 -2628.9)
(-16215.8 4897.64 -961.858)
(15061.6 4854.91 -954.537)
(54684.7 7278.74 -2585.25)
(-67597.6 26215 -2915.17)
(-17740.4 24114.9 -1276.74)
(16429.4 23825.9 -1271.12)
(59597.8 25385.4 -2885.73)
(-65493.6 69368.2 -4361.68)
(-18605 72622 -2954.78)
(16332.2 71003.6 -2950.26)
(56913.7 64813.6 -4345.67)
(-48363.6 28006.4 -922.473)
(-9737.31 5576.23 -169.18)
(8928.02 5452.62 -166.229)
(41813.3 26353.7 -895.881)
(-49054.1 4989.27 -1200.25)
(-12816.5 1314.08 -245.098)
(11849.5 1298.04 -240.865)
(42309.9 4812.38 -1165.89)
(-50483.7 1350.99 -1236.88)
(-13428.5 304.356 -255.938)
(12426.3 297.727 -251.524)
(43591 1287.3 -1201.59)
(-52411.7 1370.13 -1244.29)
(-13869.7 283.125 -257.925)
(12832.4 275.283 -253.584)
(45336.2 1301.29 -1209.93)
(-55276.6 2602.46 -1250.74)
(-14523.4 896.607 -260.981)
(13444.5 884.802 -256.893)
(47980.5 2515.96 -1219)
(-59669.8 7320.78 -1278.93)
(-15587.4 4774.32 -282.765)
(14451.8 4730.6 -279.214)
(52101.6 7144.87 -1252.24)
(-64951 25532 -1457.06)
(-17113.6 23369.9 -455.744)
(15815 23079.6 -453.234)
(57017.1 24690.9 -1439.12)
(-63227.2 67100.3 -2396.52)
(-18039.7 69989.2 -1475.76)
(15772.8 68375.2 -1474.34)
(54684.7 62554.3 -2388.65)
(-46814.9 27243.1 -520.456)
(-9456.2 5447.21 -81.8543)
(8658.26 5326.35 -80.0616)
(40336.6 25613.9 -504.323)
(-47488.4 4880.35 -670.573)
(-12460.5 1288.58 -116.159)
(11508.4 1273.1 -113.571)
(40819.7 4706.83 -649.615)
(-48899.5 1336.91 -688.924)
(-13063.4 301.03 -120.582)
(12076.5 294.44 -117.88)
(42082.4 1273.17 -667.412)
(-50817 1366.05 -691.89)
(-13503 282 -121.085)
(12480.6 274.032 -118.431)
(43814.4 1295.79 -671.032)
(-53674.3 2589.27 -695.225)
(-14155.5 888.257 -122.25)
(13090.3 876.157 -119.748)
(46444.4 2499.84 -676.006)
(-58053.7 7239.72 -713.661)
(-15216.1 4702.88 -134.186)
(14092.2 4658.57 -131.994)
(50540.6 7058.62 -697.435)
(-63325.9 25097.4 -826.146)
(-16736.6 22921.9 -234.57)
(15446.1 22630.8 -232.984)
(55430.9 24249 -815.081)
(-61776.8 65642.9 -1407.66)
(-17682.8 68359.2 -840.803)
(15419.3 66746.9 -839.992)
(53254.9 61099.7 -1403.13)
(-45927.5 26815.4 -272.288)
(-9296.92 5378.21 -41.4586)
(8505.55 5258.99 -40.4882)
(39490.5 25199.8 -263.694)
(-46592.3 4820.8 -349.476)
(-12259.5 1275.35 -58.4441)
(11316 1260.22 -57.0327)
(39966.8 4649.29 -338.253)
(-47994 1329.67 -358.544)
(-12857.5 299.431 -60.5424)
(11879.5 292.867 -59.0662)
(41220.1 1265.88 -347.017)
(-49906.2 1363.83 -359.875)
(-13296.3 281.457 -60.7334)
(12282.5 273.416 -59.2828)
(42944.9 1292.7 -348.723)
(-52758.3 2580.69 -361.841)
(-13947.9 883.505 -61.3329)
(12890.7 871.239 -59.9638)
(45565.6 2489.56 -351.586)
(-57125.6 7189.86 -372.756)
(-15005.7 4662 -67.6925)
(13888.5 4617.37 -66.486)
(49643.2 7005.8 -364.098)
(-62382 24837.9 -435.566)
(-16520.4 22663.3 -121.016)
(15234.5 22371.6 -120.128)
(54508.4 23985.2 -429.65)
(-60913.5 64770.5 -754.132)
(-17472.1 67403.6 -445.682)
(15210.5 65792.1 -445.24)
(52402.4 60228 -751.839)
(-45520.9 26621.3 -85.0558)
(-9224.4 5347.3 -12.8428)
(8436.03 5228.83 -12.5362)
(39102.6 25012 -82.366)
(-46182 4794.09 -108.998)
(-12168.1 1269.49 -18.066)
(11228.6 1254.52 -17.6181)
(39576.2 4623.51 -105.474)
(-47579.8 1326.51 -111.765)
(-12764 298.741 -18.7015)
(11790 292.19 -18.2324)
(40825.4 1262.7 -108.142)
(-49489.6 1362.76 -112.162)
(-13202.4 281.209 -18.7559)
(12192.6 273.134 -18.2948)
(42547 1291.22 -108.661)
(-52338.9 2576.39 -112.834)
(-13853.6 881.298 -18.9492)
(12800.1 868.954 -18.514)
(45162.9 2484.46 -109.619)
(-56699.4 7165.99 -116.465)
(-14909.9 4643.2 -20.9639)
(13795.7 4598.41 -20.5798)
(49230.7 6980.56 -113.756)
(-61945.6 24716.1 -136.701)
(-16421.2 22543.9 -37.7541)
(15137.4 22252 -37.4697)
(54081.4 23861.3 -134.859)
(-60509.3 64360.2 -238.362)
(-17373.9 66958.9 -140.33)
(15113.1 65347.6 -140.19)
(52002.6 59817.7 -237.682)
)
;

boundaryField
{
    interface
    {
        type            calculated;
        value           nonuniform List<vector> 
192
(
(-100589 74730.6 -66650)
(-86574 12020.4 -63437.3)
(-87412.8 2955.8 -64620.8)
(-90162.2 2688.4 -66462.8)
(-93961.6 4472.73 -68958.3)
(-99057 10177.7 -72382)
(-103136 29569.6 -75477.7)
(-91869.7 69592.3 -69472.2)
(-97756.1 41234.3 -18538)
(-90279.5 7344.94 -23928.5)
(-91944.8 1795.27 -24869.2)
(-95077.5 1629.19 -25418.2)
(-99524.1 2977.25 -26139.1)
(-105945 8222.29 -27208.5)
(-112424 28698.7 -28653)
(-103270 75656.1 -29513.4)
(-88355.6 32264.1 -5008.26)
(-82892.5 5689.28 -6860.2)
(-84632.5 1466.04 -7158.44)
(-87713.3 1418.51 -7274.52)
(-92191.7 2682.41 -7407.72)
(-98848.4 7663.75 -7627.86)
(-106127 27264.7 -8183.97)
(-99372.5 72653.3 -10111.6)
(-81561.7 29365.8 -1823.8)
(-76606.4 5194.75 -2433.91)
(-78287.4 1380.95 -2523.81)
(-81303 1379.92 -2548.96)
(-85753.4 2623.91 -2572.19)
(-92438.1 7446.04 -2628.9)
(-99963.2 26215 -2915.17)
(-94533 69368.2 -4361.68)
(-77363.2 28006.4 -922.473)
(-72611.8 4989.27 -1200.25)
(-74253.2 1350.99 -1236.88)
(-77233.7 1370.13 -1244.29)
(-81665 2602.46 -1250.74)
(-88338.2 7320.78 -1278.93)
(-95920.7 25532 -1457.06)
(-91128.9 67100.3 -2396.52)
(-74825.8 27243.1 -520.456)
(-70189 4880.35 -670.573)
(-71811.4 1336.91 -688.924)
(-74774.4 1366.05 -691.89)
(-79192.9 2589.27 -695.225)
(-85845.8 7239.72 -713.661)
(-93422.5 25097.4 -826.146)
(-88940.8 65642.9 -1407.66)
(-73368.3 26815.4 -272.288)
(-68797 4820.8 -349.476)
(-70410.4 1329.67 -358.544)
(-73364.4 1363.83 -359.875)
(-77774.2 2580.69 -361.841)
(-84408.7 7189.86 -372.756)
(-91965.9 24837.9 -435.566)
(-87635.1 64770.5 -754.132)
(-72699.5 26621.3 -85.0558)
(-68158.3 4794.09 -108.998)
(-69768 1326.51 -111.765)
(-72718 1362.76 -112.162)
(-77123.2 2576.39 -112.834)
(-83747.3 7165.99 -116.465)
(-91291.1 24716.1 -136.701)
(-87022.9 64360.2 -238.362)
(-63434.3 74730.6 -103771)
(-59808.3 12020.4 -89410.6)
(-60850.9 2955.8 -90361.9)
(-62663.5 2688.4 -93140.6)
(-65161.4 4472.73 -96918.5)
(-68572.1 10177.7 -101988)
(-71548.7 29569.6 -106047)
(-65245.9 69592.3 -94426.5)
(-13399.9 45069.7 -103945)
(-16852.4 8015.63 -95497.8)
(-17493.2 1894.66 -97215.6)
(-17941.1 1652.3 -100354)
(-18546.4 3011.52 -104726)
(-19417.5 8377.29 -110998)
(-20388.8 29302.2 -117123)
(-19954.7 76337 -106600)
(11761.9 44478.2 -101516)
(14833.9 7927.17 -93075.7)
(15388.4 1867.17 -94706.2)
(15781.9 1635.16 -97774.6)
(16344.4 2996.24 -102091)
(17173.4 8335.35 -108308)
(18015.1 29032.5 -114374)
(16707.1 74784.6 -103990)
(55922.7 71665.5 -96662.9)
(51946.9 11642.1 -82536.8)
(52832.3 2842.69 -83281)
(54480.4 2608.34 -85874.1)
(56818.2 4403 -89499.1)
(60073.7 10048 -94413.7)
(62852.5 28835.9 -98319.3)
(56101.2 65278.3 -87149.2)
(87801.2 71665.5 -62591.9)
(73563.7 11642.1 -59371.9)
(74190.5 2842.69 -60421.7)
(76679.5 2608.34 -62157.3)
(80215.8 4403 -64570.8)
(85052.6 10048 -67916.8)
(88859.2 28835.9 -70941.1)
(77501 65278.3 -65213.3)
(85148.5 39301.5 -17956.9)
(77512.6 7121.35 -23195.4)
(78944.7 1725.93 -24101.1)
(81791.8 1568.26 -24636.2)
(85933.5 2913.39 -25354.5)
(92030.8 8087.81 -26430.9)
(98167.4 27907.2 -27892.2)
(88896.9 71041.7 -28815.5)
(76144.4 30513.1 -4904.71)
(70542.7 5497.94 -6721.16)
(72042.4 1401.92 -7013.52)
(74827.1 1354.92 -7129.88)
(78969.8 2608.25 -7268.58)
(85240.2 7510.34 -7501.12)
(92085.2 26451.3 -8077.65)
(85145.5 68072.7 -10022.8)
(69654.2 27675.7 -1781.07)
(64570 5012.54 -2378.34)
(66011.4 1317.21 -2466.64)
(68723.3 1313.2 -2492.96)
(72814.5 2542.14 -2520.26)
(79068.3 7278.74 -2585.25)
(86087.8 25385.4 -2885.73)
(80407.2 64813.6 -4345.67)
(65659.8 26353.7 -895.881)
(60784.2 4812.38 -1165.89)
(62186.7 1287.3 -1201.59)
(64857.8 1301.29 -1209.93)
(68913.5 2515.96 -1219)
(75126.3 7144.87 -1252.24)
(82158.2 24690.9 -1439.12)
(77069.9 62554.3 -2388.65)
(63248.2 25613.9 -504.323)
(58489.2 4706.83 -649.615)
(59872.3 1273.17 -667.412)
(62521.2 1295.79 -671.032)
(66552.8 2499.84 -676.006)
(72726.3 7058.62 -697.435)
(79725.8 24249 -815.081)
(74918.3 61099.7 -1403.13)
(61862.8 25199.8 -263.694)
(57170.2 4649.29 -338.253)
(58543.8 1265.88 -347.017)
(61180.4 1292.7 -348.723)
(65196.3 2489.56 -351.586)
(71340.4 7005.8 -364.098)
(78305 23985.2 -429.65)
(73631.5 60228 -751.839)
(61226.7 25012 -82.366)
(56564.6 4623.51 -105.474)
(57934.3 1262.7 -108.142)
(60565.2 1291.22 -108.661)
(64573.2 2484.46 -109.619)
(70701.6 6980.56 -113.756)
(77645.7 23861.3 -134.859)
(73026.9 59817.7 -237.682)
(-65245.9 94608.3 -69472.2)
(-71627.6 106345 -29513.4)
(-68755.9 102451 -10111.6)
(-65493.6 97624.5 -4361.68)
(-63227.2 94238.2 -2396.52)
(-61776.8 92052.8 -1407.66)
(-60913.5 90741.8 -754.132)
(-60509.3 90124.3 -238.362)
(-19954.7 106758 -76240.7)
(-20404.5 117384 -29272.1)
(-19451.2 111405 -8346.04)
(-18605 105354 -2954.78)
(-18039.7 101360 -1475.76)
(-17682.8 98868.6 -840.803)
(-17472.1 97401.7 -445.682)
(-17373.9 96717.3 -140.33)
(16707.1 104125 -74703.9)
(18009 114595 -29009.9)
(17163.7 108652 -8312.06)
(16332.2 102624 -2950.26)
(15772.8 98640.3 -1474.34)
(15419.3 96153 -839.992)
(15210.5 94688.2 -445.24)
(15113.1 94004.6 -140.19)
(56101.2 87256.4 -65213.3)
(62869.3 98497.8 -28815.5)
(60118 94691.9 -10022.8)
(56913.7 89931.8 -4345.67)
(54684.7 86574.9 -2388.65)
(53254.9 84403.1 -1403.13)
(52402.4 83098.4 -751.839)
(52002.6 82483.6 -237.682)
)
;
    }
    symmetry
    {
        type            symmetry;
    }
    bottom
    {
        type            calculated;
        value           nonuniform List<vector> 
32
(
(-63434.3 129108 -66650)
(-61016.9 70050.9 -18538)
(-55125.6 54956.1 -5008.26)
(-50936.1 50017.9 -1823.8)
(-48363.6 47660.9 -922.473)
(-46814.9 46328 -520.456)
(-45927.5 45579.1 -272.288)
(-45520.9 45238.9 -85.0558)
(-13399.9 76549.5 -65735.8)
(-12222 21495.7 -16346.1)
(-11008.9 11165 -3024.72)
(-10212.4 9396.8 -557.981)
(-9737.31 8933.03 -169.18)
(-9456.2 8720.08 -81.8543)
(-9296.92 8605.61 -41.4586)
(-9224.4 8554.24 -12.8428)
(11761.9 75508.5 -64344.6)
(11265 21162.9 -16147)
(10151.1 10920.6 -2998.69)
(9384.96 9168.16 -552.223)
(8928.02 8711.68 -166.229)
(8658.26 8503.24 -80.0616)
(8505.55 8391.43 -40.4882)
(8436.03 8341.29 -12.5362)
(55922.7 123597 -62591.9)
(53922.4 66555.5 -17956.9)
(48284.4 51769.4 -4904.71)
(44269.2 46936.6 -1781.07)
(41813.3 44645.1 -895.881)
(40336.6 43353.1 -504.323)
(39490.5 42627.8 -263.694)
(39102.6 42298.3 -82.366)
)
;
    }
}


// ************************************************************************* //
