/*--------------------------------*- C++ -*----------------------------------*\
| =========                 |                                                 |
| \\      /  F ield         | OpenFOAM: The Open Source CFD Toolbox           |
|  \\    /   O peration     | Version:  v1912                                 |
|   \\  /    A nd           | Website:  www.openfoam.com                      |
|    \\/     M anipulation  |                                                 |
\*---------------------------------------------------------------------------*/
FoamFile
{
    version     2.0;
    format      ascii;
    class       volScalarField;
    location    "0.88/solid";
    object      sigmaHyd;
}
// * * * * * * * * * * * * * * * * * * * * * * * * * * * * * * * * * * * * * //

dimensions      [1 -1 -2 0 0 0 0];


internalField   nonuniform List<scalar> 
256
(
-717163
-388546
-380764
-670894
-1.0929e+06
-683087
-671287
-1.03341e+06
-1.1432e+06
-738008
-725536
-1.08184e+06
-1.163e+06
-759154
-746394
-1.10044e+06
-1.20388e+06
-791732
-778737
-1.14012e+06
-1.2979e+06
-868484
-855170
-1.23276e+06
-1.53386e+06
-1.07927e+06
-1.06463e+06
-1.46483e+06
-2.10577e+06
-1.62387e+06
-1.60176e+06
-2.01593e+06
-384559
-135900
-134074
-355923
-632429
-303534
-298797
-593592
-674571
-353418
-348131
-634292
-691816
-375269
-369777
-650584
-721627
-399425
-393789
-679380
-793714
-453698
-447848
-750212
-997156
-620660
-613584
-949788
-1.53484e+06
-1.0796e+06
-1.06481e+06
-1.4652e+06
-301504
-86562.9
-85356.3
-275388
-471748
-184752
-181194
-436895
-502410
-221879
-217837
-466246
-517377
-240756
-236506
-480224
-543219
-261107
-256697
-504941
-606934
-306436
-301784
-567186
-794147
-453388
-447469
-750200
-1.29922e+06
-868352
-854773
-1.23287e+06
-279584
-80548.1
-79404
-254247
-421745
-156397
-153043
-388147
-446194
-185840
-182029
-411345
-459511
-201892
-197867
-423632
-483674
-220140
-215936
-446572
-543840
-261670
-257197
-505099
-722062
-399017
-393240
-678863
-1.20422e+06
-790183
-776772
-1.1385e+06
-270951
-80195.2
-79083.6
-246087
-403402
-148674
-145409
-370517
-425106
-174217
-170510
-391011
-437250
-188196
-184274
-402107
-460298
-204893
-200782
-423871
-518408
-244292
-239894
-480235
-691247
-376652
-370924
-648454
-1.15936e+06
-755499
-742135
-1.09392e+06
-265858
-80190.6
-79104.1
-241284
-394462
-145752
-142547
-362015
-414986
-169384
-165747
-381357
-426358
-182073
-178221
-391674
-448591
-197706
-193661
-412587
-505385
-235827
-231483
-467571
-674994
-365453
-359764
-632460
-1.13455e+06
-737271
-723935
-1.06928e+06
-262588
-80079.7
-79008.6
-238178
-389436
-144391
-141223
-357240
-409429
-167118
-163524
-376069
-420339
-179093
-175285
-385920
-442041
-194091
-190087
-406283
-498048
-231487
-227179
-460444
-665821
-359618
-353956
-623439
-1.12035e+06
-727300
-713983
-1.05517e+06
-260943
-79967.9
-78903.8
-236607
-387050
-143806
-140655
-354968
-406826
-166169
-162594
-373588
-417519
-177831
-174043
-383221
-438962
-192536
-188551
-403317
-494604
-229604
-225314
-457096
-661540
-357061
-351412
-619228
-1.11372e+06
-722775
-709467
-1.04858e+06
)
;

boundaryField
{
    interface
    {
        type            zeroGradient;
    }
    symmetry
    {
        type            symmetry;
    }
    bottom
    {
        type            zeroGradient;
    }
}


// ************************************************************************* //
