/*--------------------------------*- C++ -*----------------------------------*\
| =========                 |                                                 |
| \\      /  F ield         | OpenFOAM: The Open Source CFD Toolbox           |
|  \\    /   O peration     | Version:  v1912                                 |
|   \\  /    A nd           | Website:  www.openfoam.com                      |
|    \\/     M anipulation  |                                                 |
\*---------------------------------------------------------------------------*/
FoamFile
{
    version     2.0;
    format      ascii;
    class       volScalarField;
    location    "0.88/solid";
    object      sigmaEq;
}
// * * * * * * * * * * * * * * * * * * * * * * * * * * * * * * * * * * * * * //

dimensions      [1 -1 -2 0 0 0 0];


internalField   nonuniform List<scalar> 
256
(
687277
476305
467850
649938
383839
316916
310952
356722
372771
289239
283567
345446
389011
284220
278606
361044
399648
285649
280054
371202
389925
282540
277008
361301
303519
247403
242994
277367
68655.2
279533
277242
69792.2
397265
107087
103471
359782
281758
105259
102223
249022
270414
79302.9
77006.6
237864
270888
53167.9
51847.3
237818
276015
44411.9
44135.2
242260
281489
51337.6
51053.3
247107
259382
52141.6
52850.4
225528
303767
248182
243669
277286
323023
67762.6
66242.3
285994
266953
63417.7
61107.4
233885
260428
45388.2
43670.1
227156
261047
33666.3
33735.9
227123
268018
36983.5
38155.6
233299
280056
40951
41451.3
244544
281022
50570.9
50374.7
246250
390936
284079
278402
361714
285938
64245
63899.4
250259
249546
60962.4
60237.7
218144
244456
48352.5
48319.1
212407
244931
43588.5
44931.9
211906
252710
44763.9
46767.6
218671
266868
40197.3
41673.7
231756
274692
41404.2
41650.9
240104
403584
288605
282815
374174
264662
55846.7
55921.1
229711
233650
56276
56149.6
203119
230174
47142.5
47595.3
198819
231675
42712.7
44308.4
199163
240973
41764.5
43922.3
207360
256821
33812.7
35408.3
222009
267967
39270.5
39174.6
233578
400385
287605
281747
370957
252545
47632.8
47868.9
217889
222613
49211.9
49217.5
192325
220363
40535.3
41049
189177
223243
34746.1
36450.1
190847
234105
32374.4
34671.4
200615
251432
23828.5
25273.5
216737
264922
42362.1
41654.9
230686
396886
286636
280701
367404
245899
41042.8
41344.3
211332
215996
42517.7
42513.4
185701
214481
32703.3
33202
183251
218425
25072.5
27053.7
185988
230416
22058.1
24795
196920
248814
14324.5
15656.2
214150
263925
46053.8
44968.8
229796
395110
286103
280113
365577
242927
37182.1
37510.2
208376
212925
38368.6
38337.6
182585
211753
27269.8
27770.4
180463
216246
17737.3
20217.5
183761
228805
14354.3
17937.1
195284
247747
6932.55
8546.52
213089
263687
48116.3
46875.6
229613
394485
285874
279858
364925
)
;

boundaryField
{
    interface
    {
        type            calculated;
        value           nonuniform List<scalar> 
192
(
858923
526665
518213
541806
559765
556702
477620
265303
624087
473140
463931
474895
490686
504324
485524
478085
538983
456091
453600
464526
482301
503064
504698
558418
486914
427535
428421
439755
458677
482388
491754
565268
455318
402816
405821
418310
438697
464371
477569
556621
436936
386327
390561
404273
426008
453098
468572
549065
426840
376760
381654
396248
418916
446917
463751
544731
422355
372425
377615
392651
415779
444219
461696
542889
866978
534383
526404
550742
569119
565630
485255
270507
715062
516335
491273
497021
508931
514212
483192
462403
701852
506075
481036
486583
498330
503513
473185
455770
823341
503298
494822
518184
535963
532390
455285
265097
799621
475578
466183
488518
505349
501256
422244
216980
559847
414229
404515
414211
428616
440912
421782
422264
476019
397730
394516
404118
420372
439496
440652
502005
425790
371081
370959
380764
397978
419754
428281
509223
395328
347515
349398
360241
378825
402401
414557
500843
377561
331564
334630
346656
366556
391481
405853
493418
367775
322224
325927
338828
359657
385475
401206
489151
363417
317969
321960
335305
356595
382849
399232
487339
271480
486191
567714
575130
566479
558697
554170
552234
463064
484659
517084
514585
506155
499401
495143
493127
456335
474469
506115
503589
495142
488350
484061
482030
265611
455700
533660
540709
531964
524082
519471
517490
)
;
    }
    symmetry
    {
        type            symmetry;
    }
    bottom
    {
        type            calculated;
        value           nonuniform List<scalar> 
32
(
996774
525398
399477
349719
324795
311256
303979
300760
630921
135899
64926.9
60840.3
53289.8
45524.8
39185.3
35433.9
620284
130820
61229
58268.8
50839
42880.9
36199.9
32144.7
949092
483035
357667
309023
284867
271749
264671
261527
)
;
    }
}


// ************************************************************************* //
