/*--------------------------------*- C++ -*----------------------------------*\
| =========                 |                                                 |
| \\      /  F ield         | OpenFOAM: The Open Source CFD Toolbox           |
|  \\    /   O peration     | Version:  v1912                                 |
|   \\  /    A nd           | Website:  www.openfoam.com                      |
|    \\/     M anipulation  |                                                 |
\*---------------------------------------------------------------------------*/
FoamFile
{
    version     2.0;
    format      ascii;
    class       volVectorField;
    location    "0.88/solid";
    object      U;
}
// * * * * * * * * * * * * * * * * * * * * * * * * * * * * * * * * * * * * * //

dimensions      [0 1 -1 0 0 0 0];


internalField   nonuniform List<vector> 
256
(
(1.89148e-08 2.04758e-08 2.4246e-08)
(4.51933e-09 1.35541e-08 2.3622e-08)
(-6.22883e-09 1.29267e-08 2.27842e-08)
(-1.86271e-08 1.83792e-08 2.17484e-08)
(3.60056e-08 1.87427e-08 5.81953e-08)
(9.29672e-09 1.22584e-08 5.7054e-08)
(-1.33035e-08 1.20569e-08 5.53153e-08)
(-3.71661e-08 1.84822e-08 5.2962e-08)
(4.01045e-08 3.13344e-09 8.29273e-08)
(9.92062e-09 1.94821e-10 8.10824e-08)
(-1.65704e-08 6.85911e-10 7.88123e-08)
(-4.38299e-08 5.05961e-09 7.60792e-08)
(3.92994e-08 -1.55133e-08 1.03543e-07)
(8.38916e-09 -1.6559e-08 1.00781e-07)
(-1.85101e-08 -1.53789e-08 9.81312e-08)
(-4.64518e-08 -1.16008e-08 9.55416e-08)
(3.86734e-08 -3.60403e-08 1.23408e-07)
(6.62899e-09 -3.70134e-08 1.19644e-07)
(-2.11342e-08 -3.51781e-08 1.16672e-07)
(-5.01467e-08 -3.0261e-08 1.14432e-07)
(4.1466e-08 -6.1154e-08 1.44445e-07)
(5.92331e-09 -6.23293e-08 1.39896e-07)
(-2.5791e-08 -5.98337e-08 1.36618e-07)
(-5.82219e-08 -5.34891e-08 1.3455e-07)
(4.88615e-08 -9.70182e-08 1.66081e-07)
(6.58156e-09 -9.6652e-08 1.61803e-07)
(-3.29418e-08 -9.33972e-08 1.58221e-07)
(-7.19059e-08 -8.71714e-08 1.55287e-07)
(5.56408e-08 -1.42456e-07 1.81662e-07)
(6.75582e-09 -1.39148e-07 1.78955e-07)
(-4.09443e-08 -1.34777e-07 1.75119e-07)
(-8.60113e-08 -1.29286e-07 1.70166e-07)
(1.30288e-08 7.65497e-09 1.10456e-08)
(3.02933e-09 1.64341e-09 1.20355e-08)
(-3.73776e-09 1.44221e-09 1.16534e-08)
(-1.20156e-08 6.48344e-09 9.9195e-09)
(2.55876e-08 5.52259e-10 3.41912e-08)
(6.54449e-09 -4.98139e-09 3.61403e-08)
(-8.14269e-09 -4.82632e-09 3.50925e-08)
(-2.47729e-08 9.74818e-10 3.1143e-08)
(2.84518e-08 -1.4035e-08 5.56032e-08)
(6.99398e-09 -1.6477e-08 5.76688e-08)
(-1.02051e-08 -1.57707e-08 5.61518e-08)
(-2.92396e-08 -1.17573e-08 5.1171e-08)
(2.73782e-08 -3.09619e-08 7.48253e-08)
(5.64993e-09 -3.18413e-08 7.65727e-08)
(-1.15258e-08 -3.05331e-08 7.47116e-08)
(-3.08331e-08 -2.68845e-08 6.93528e-08)
(2.66853e-08 -4.96934e-08 9.30362e-08)
(4.12034e-09 -5.07639e-08 9.42796e-08)
(-1.37115e-08 -4.8848e-08 9.21265e-08)
(-3.38191e-08 -4.38462e-08 8.66756e-08)
(2.98058e-08 -7.16813e-08 1.10915e-07)
(3.7256e-09 -7.31964e-08 1.11621e-07)
(-1.80971e-08 -7.06606e-08 1.09197e-07)
(-4.16463e-08 -6.40351e-08 1.03732e-07)
(3.87224e-08 -1.01678e-07 1.26967e-07)
(4.97539e-09 -1.01375e-07 1.27325e-07)
(-2.53277e-08 -9.8156e-08 1.24669e-07)
(-5.63101e-08 -9.20247e-08 1.19069e-07)
(4.81636e-08 -1.40772e-07 1.36234e-07)
(5.86399e-09 -1.35842e-07 1.36486e-07)
(-3.36224e-08 -1.31652e-07 1.33732e-07)
(-7.25691e-08 -1.28117e-07 1.27997e-07)
(7.52493e-09 2.61301e-09 5.56517e-09)
(1.48492e-09 -2.01541e-09 7.13553e-09)
(-1.72349e-09 -2.16962e-09 6.87636e-09)
(-6.11416e-09 1.40023e-09 4.82658e-09)
(1.54175e-08 -8.65164e-09 2.13186e-08)
(3.52364e-09 -1.30018e-08 2.43707e-08)
(-3.75256e-09 -1.28189e-08 2.36475e-08)
(-1.33692e-08 -8.38552e-09 1.92646e-08)
(1.7108e-08 -2.4151e-08 3.88381e-08)
(3.69861e-09 -2.61421e-08 4.22753e-08)
(-4.71715e-09 -2.54553e-08 4.11817e-08)
(-1.58761e-08 -2.21349e-08 3.57013e-08)
(1.5973e-08 -4.02389e-08 5.59079e-08)
(2.52821e-09 -4.11378e-08 5.92285e-08)
(-5.49189e-09 -3.98918e-08 5.78374e-08)
(-1.67153e-08 -3.65031e-08 5.1874e-08)
(1.544e-08 -5.67759e-08 7.18756e-08)
(1.24239e-09 -5.81233e-08 7.48865e-08)
(-7.3046e-09 -5.63026e-08 7.3237e-08)
(-1.92567e-08 -5.13298e-08 6.70539e-08)
(1.89824e-08 -7.49673e-08 8.61308e-08)
(1.15793e-09 -7.69064e-08 8.87447e-08)
(-1.1472e-08 -7.45003e-08 8.68654e-08)
(-2.69703e-08 -6.77904e-08 8.06029e-08)
(2.89309e-08 -9.94976e-08 9.67765e-08)
(2.90648e-09 -9.94966e-08 9.89387e-08)
(-1.87436e-08 -9.64549e-08 9.68899e-08)
(-4.21781e-08 -9.04149e-08 9.0699e-08)
(3.98855e-08 -1.33042e-07 1.00395e-07)
(4.34572e-09 -1.27767e-07 1.02169e-07)
(-2.71694e-08 -1.23803e-07 1.00096e-07)
(-5.94864e-08 -1.21064e-07 9.41668e-08)
(4.634e-09 5.19002e-10 4.15065e-09)
(6.82488e-10 -3.04404e-09 5.33063e-09)
(-6.92944e-10 -3.23011e-09 5.13827e-09)
(-2.98003e-09 -8.69205e-10 3.61575e-09)
(1.00224e-08 -1.24199e-08 1.59796e-08)
(1.9223e-09 -1.59095e-08 1.82406e-08)
(-1.37625e-09 -1.58182e-08 1.77193e-08)
(-7.19585e-09 -1.25319e-08 1.45236e-08)
(1.12361e-08 -2.86378e-08 2.98274e-08)
(2.0342e-09 -3.03665e-08 3.23378e-08)
(-1.68164e-09 -2.9804e-08 3.15421e-08)
(-8.64849e-09 -2.70883e-08 2.75722e-08)
(1.0392e-08 -4.42738e-08 4.3896e-08)
(1.12685e-09 -4.52839e-08 4.62741e-08)
(-2.13867e-09 -4.41839e-08 4.52412e-08)
(-9.21114e-09 -4.10507e-08 4.09269e-08)
(1.0313e-08 -5.90962e-08 5.69297e-08)
(1.58587e-10 -6.0721e-08 5.90384e-08)
(-3.74114e-09 -5.90643e-08 5.77929e-08)
(-1.16827e-08 -5.4195e-08 5.33105e-08)
(1.43168e-08 -7.44977e-08 6.77184e-08)
(3.67007e-10 -7.67957e-08 6.95201e-08)
(-7.73723e-09 -7.45713e-08 6.80897e-08)
(-1.9386e-08 -6.78965e-08 6.3524e-08)
(2.46509e-08 -9.56236e-08 7.45489e-08)
(2.36531e-09 -9.60824e-08 7.60387e-08)
(-1.48483e-08 -9.32369e-08 7.44836e-08)
(-3.45515e-08 -8.71416e-08 6.99332e-08)
(3.59057e-08 -1.26163e-07 7.55369e-08)
(4.02216e-09 -1.21523e-07 7.68494e-08)
(-2.31059e-08 -1.17757e-07 7.52938e-08)
(-5.17578e-08 -1.14784e-07 7.08406e-08)
(3.53182e-09 -2.87146e-10 3.48785e-09)
(4.32699e-10 -3.29485e-09 4.11685e-09)
(-3.22504e-10 -3.514e-09 3.97831e-09)
(-1.72637e-09 -1.81622e-09 3.10876e-09)
(8.05379e-09 -1.35813e-08 1.25327e-08)
(1.45989e-09 -1.66594e-08 1.36937e-08)
(-4.57027e-10 -1.6667e-08 1.33244e-08)
(-4.73762e-09 -1.40353e-08 1.15143e-08)
(9.29831e-09 -2.98764e-08 2.29835e-08)
(1.68463e-09 -3.15538e-08 2.42008e-08)
(-4.65646e-10 -3.11261e-08 2.36363e-08)
(-5.82313e-09 -2.87713e-08 2.13997e-08)
(8.87684e-09 -4.50938e-08 3.36975e-08)
(1.06045e-09 -4.62726e-08 3.47493e-08)
(-7.71165e-10 -4.53253e-08 3.40089e-08)
(-6.38208e-09 -4.23618e-08 3.15854e-08)
(9.28832e-09 -5.88303e-08 4.35133e-08)
(3.96408e-10 -6.0698e-08 4.43303e-08)
(-2.25775e-09 -5.92044e-08 4.34276e-08)
(-8.92635e-09 -5.44411e-08 4.09044e-08)
(1.36498e-08 -7.26835e-08 5.12376e-08)
(8.36967e-10 -7.52455e-08 5.18335e-08)
(-6.10097e-09 -7.31898e-08 5.07906e-08)
(-1.65982e-08 -6.66008e-08 4.8188e-08)
(2.40388e-08 -9.21894e-08 5.5617e-08)
(2.94128e-09 -9.30319e-08 5.60451e-08)
(-1.29696e-08 -9.03538e-08 5.49106e-08)
(-3.14617e-08 -8.42147e-08 5.22508e-08)
(3.51689e-08 -1.21387e-07 5.57721e-08)
(4.66583e-09 -1.17452e-07 5.61766e-08)
(-2.09701e-08 -1.13843e-07 5.50462e-08)
(-4.82116e-08 -1.10483e-07 5.23521e-08)
(3.19798e-09 -5.57692e-10 2.69579e-09)
(4.09566e-10 -3.33152e-09 2.96965e-09)
(-2.33515e-10 -3.5745e-09 2.87695e-09)
(-1.30077e-09 -2.18226e-09 2.44486e-09)
(7.56626e-09 -1.36868e-08 9.1759e-09)
(1.4758e-09 -1.66341e-08 9.64104e-09)
(-2.0178e-10 -1.6717e-08 9.39534e-09)
(-3.94861e-09 -1.43888e-08 8.50477e-09)
(9.0193e-09 -2.96931e-08 1.64599e-08)
(1.86201e-09 -3.14316e-08 1.68815e-08)
(-1.03301e-10 -3.11112e-08 1.65055e-08)
(-4.98148e-09 -2.89279e-08 1.54139e-08)
(8.97267e-09 -4.44952e-08 2.38779e-08)
(1.4715e-09 -4.5843e-08 2.41474e-08)
(-3.39674e-10 -4.50193e-08 2.36515e-08)
(-5.61824e-09 -4.21491e-08 2.24724e-08)
(9.76293e-09 -5.76185e-08 3.05959e-08)
(1.0401e-09 -5.96735e-08 3.06898e-08)
(-1.75076e-09 -5.83105e-08 3.00811e-08)
(-8.23518e-09 -5.36325e-08 2.88449e-08)
(1.43563e-08 -7.0776e-08 3.57287e-08)
(1.64427e-09 -7.35116e-08 3.56799e-08)
(-5.46403e-09 -7.15872e-08 3.49732e-08)
(-1.58439e-08 -6.50944e-08 3.36682e-08)
(2.47079e-08 -8.96546e-08 3.84759e-08)
(3.80273e-09 -9.07398e-08 3.83463e-08)
(-1.21159e-08 -8.81876e-08 3.75762e-08)
(-3.03955e-08 -8.20621e-08 3.61931e-08)
(3.56657e-08 -1.18251e-07 3.84422e-08)
(5.55438e-09 -1.14789e-07 3.83349e-08)
(-1.98937e-08 -1.11295e-07 3.75684e-08)
(-4.67196e-08 -1.07697e-07 3.61219e-08)
(3.1138e-09 -6.23541e-10 1.7016e-09)
(4.35932e-10 -3.30957e-09 1.80417e-09)
(-2.25506e-10 -3.56762e-09 1.75116e-09)
(-1.16474e-09 -2.30666e-09 1.55908e-09)
(7.51883e-09 -1.34836e-08 5.61058e-09)
(1.58228e-09 -1.64135e-08 5.76106e-09)
(-1.56236e-10 -1.65446e-08 5.62073e-09)
(-3.72772e-09 -1.4342e-08 5.22974e-09)
(9.16012e-09 -2.91509e-08 9.90502e-09)
(2.09556e-09 -3.09689e-08 1e-08)
(-2.32773e-11 -3.07194e-08 9.78501e-09)
(-4.79141e-09 -2.86069e-08 9.31039e-09)
(9.36775e-09 -4.36239e-08 1.42352e-08)
(1.86068e-09 -4.50983e-08 1.42288e-08)
(-2.256e-10 -4.43578e-08 1.39442e-08)
(-5.4963e-09 -4.15345e-08 1.34325e-08)
(1.03964e-08 -5.64292e-08 1.8121e-08)
(1.57813e-09 -5.86073e-08 1.8009e-08)
(-1.58533e-09 -5.73324e-08 1.76584e-08)
(-8.15299e-09 -5.27136e-08 1.71155e-08)
(1.51245e-08 -6.93245e-08 2.10453e-08)
(2.28542e-09 -7.21617e-08 2.0855e-08)
(-5.20537e-09 -7.03252e-08 2.04465e-08)
(-1.56998e-08 -6.3911e-08 1.98567e-08)
(2.54391e-08 -8.80008e-08 2.25725e-08)
(4.47869e-09 -8.92159e-08 2.23465e-08)
(-1.17081e-08 -8.67468e-08 2.19006e-08)
(-3.00292e-08 -8.06611e-08 2.12518e-08)
(3.62763e-08 -1.16319e-07 2.25257e-08)
(6.24755e-09 -1.13113e-07 2.23206e-08)
(-1.93348e-08 -1.09694e-07 2.18767e-08)
(-4.60625e-08 -1.05994e-07 2.11822e-08)
(3.09546e-09 -6.28775e-10 5.80895e-10)
(4.54365e-10 -3.286e-09 6.06334e-10)
(-2.2932e-10 -3.55135e-09 5.89107e-10)
(-1.12305e-09 -2.33972e-09 5.34738e-10)
(7.5401e-09 -1.33149e-08 1.88792e-09)
(1.64769e-09 -1.62519e-08 1.91986e-09)
(-1.53514e-10 -1.64064e-08 1.87427e-09)
(-3.66982e-09 -1.42483e-08 1.76458e-09)
(9.28084e-09 -2.87761e-08 3.3063e-09)
(2.22596e-09 -3.06423e-08 3.31568e-09)
(-9.78183e-12 -3.04275e-08 3.24578e-09)
(-4.75894e-09 -2.83399e-08 3.11356e-09)
(9.61218e-09 -4.30708e-08 4.72745e-09)
(2.06668e-09 -4.46108e-08 4.70182e-09)
(-1.96619e-10 -4.39116e-08 4.60913e-09)
(-5.4981e-09 -4.11085e-08 4.4666e-09)
(1.07532e-08 -5.57412e-08 5.99637e-09)
(1.85547e-09 -5.79794e-08 5.93591e-09)
(-1.52944e-09 -5.67485e-08 5.82145e-09)
(-8.16969e-09 -5.21602e-08 5.66875e-09)
(1.55432e-08 -6.85565e-08 6.9455e-09)
(2.61271e-09 -7.144e-08 6.86016e-09)
(-5.10142e-09 -6.96472e-08 6.7266e-09)
(-1.56805e-08 -6.32765e-08 6.55728e-09)
(2.58398e-08 -8.71805e-08 7.43708e-09)
(4.82467e-09 -8.84507e-08 7.34159e-09)
(-1.15302e-08 -8.60227e-08 7.19563e-09)
(-2.9899e-08 -7.99663e-08 7.00502e-09)
(3.66189e-08 -1.15387e-07 7.41878e-09)
(6.60316e-09 -1.12288e-07 7.33079e-09)
(-1.90822e-08 -1.08906e-07 7.18551e-09)
(-4.57888e-08 -1.05175e-07 6.97905e-09)
)
;

boundaryField
{
    interface
    {
        type            calculated;
        value           nonuniform List<vector> 
192
(
(2.3622e-08 3.42059e-08 2.23882e-08)
(4.10518e-08 2.40401e-08 5.49132e-08)
(4.54997e-08 3.9568e-09 7.93509e-08)
(4.50756e-08 -1.58711e-08 1.0003e-07)
(4.46031e-08 -3.54987e-08 1.2004e-07)
(4.71708e-08 -5.86071e-08 1.41316e-07)
(5.46845e-08 -9.34745e-08 1.63414e-07)
(6.15173e-08 -1.40747e-07 1.79621e-07)
(1.58228e-08 1.73091e-08 8.19815e-09)
(2.92266e-08 4.40798e-09 2.90443e-08)
(3.23237e-08 -1.35875e-08 4.98542e-08)
(3.13925e-08 -3.14036e-08 6.89938e-08)
(3.07075e-08 -4.90866e-08 8.72278e-08)
(3.36507e-08 -6.86721e-08 1.05294e-07)
(4.32161e-08 -9.70888e-08 1.21984e-07)
(5.40785e-08 -1.38447e-07 1.32295e-07)
(8.93577e-09 8.34863e-09 3.46651e-09)
(1.78217e-08 -6.25591e-09 1.74274e-08)
(1.98043e-08 -2.40122e-08 3.45343e-08)
(1.88248e-08 -4.0656e-08 5.16614e-08)
(1.8376e-08 -5.60236e-08 6.77826e-08)
(2.19488e-08 -7.15946e-08 8.22586e-08)
(3.28735e-08 -9.42718e-08 9.32586e-08)
(4.58152e-08 -1.30269e-07 9.73303e-08)
(5.38835e-09 4.18311e-09 3.15239e-09)
(1.20053e-08 -1.07695e-08 1.41387e-08)
(1.36059e-08 -2.85454e-08 2.7875e-08)
(1.2988e-08 -4.45046e-08 4.2122e-08)
(1.31069e-08 -5.81151e-08 5.53919e-08)
(1.73407e-08 -7.09132e-08 6.63852e-08)
(2.88916e-08 -9.02264e-08 7.33259e-08)
(4.22678e-08 -1.23185e-07 7.43577e-08)
(3.921e-09 2.60926e-09 3.12886e-09)
(9.72085e-09 -1.21397e-08 1.19187e-08)
(1.14076e-08 -2.96707e-08 2.24293e-08)
(1.12776e-08 -4.50964e-08 3.33427e-08)
(1.19788e-08 -5.76372e-08 4.33758e-08)
(1.67026e-08 -6.89959e-08 5.12475e-08)
(2.84459e-08 -8.68096e-08 5.56313e-08)
(4.17053e-08 -1.18333e-07 5.57121e-08)
(3.40427e-09 2.13338e-09 2.5913e-09)
(9.02989e-09 -1.22315e-08 9.04219e-09)
(1.09548e-08 -2.93415e-08 1.64254e-08)
(1.12486e-08 -4.43094e-08 2.40006e-08)
(1.23937e-08 -5.62727e-08 3.0873e-08)
(1.74303e-08 -6.70398e-08 3.60974e-08)
(2.92063e-08 -8.43273e-08 3.8826e-08)
(4.2259e-08 -1.15176e-07 3.87191e-08)
(3.2442e-09 2.03462e-09 1.67598e-09)
(8.882e-09 -1.1972e-08 5.60406e-09)
(1.10113e-08 -2.86887e-08 9.97042e-09)
(1.1591e-08 -4.33149e-08 1.43951e-08)
(1.30153e-08 -5.49901e-08 1.83685e-08)
(1.8232e-08 -6.55639e-08 2.13421e-08)
(3.00039e-08 -8.27129e-08 2.28555e-08)
(4.29019e-08 -1.13241e-07 2.2764e-08)
(3.20137e-09 2.03012e-09 5.76312e-10)
(8.8656e-09 -1.17686e-08 1.89325e-09)
(1.11017e-08 -2.82582e-08 3.33649e-09)
(1.18205e-08 -4.27028e-08 4.78856e-09)
(1.33764e-08 -5.42585e-08 6.08556e-09)
(1.86755e-08 -6.47849e-08 7.05018e-09)
(3.04422e-08 -8.19116e-08 7.53725e-09)
(4.32631e-08 -1.12311e-07 7.50443e-09)
(1.96876e-08 4.10861e-08 2.66287e-08)
(3.73611e-08 3.3413e-08 6.05871e-08)
(4.14313e-08 1.44705e-08 8.56638e-08)
(4.03652e-08 -5.39302e-09 1.06739e-07)
(3.94165e-08 -2.58149e-08 1.26778e-07)
(4.18929e-08 -5.04857e-08 1.47443e-07)
(4.91255e-08 -8.77138e-08 1.68797e-07)
(5.59848e-08 -1.37543e-07 1.83972e-07)
(4.15377e-09 3.37231e-08 2.5105e-08)
(8.57647e-09 2.66235e-08 5.82967e-08)
(8.89165e-09 1.11267e-08 8.2155e-08)
(7.0359e-09 -6.91859e-09 1.01834e-07)
(4.94474e-09 -2.72347e-08 1.20498e-07)
(3.96653e-09 -5.17893e-08 1.40138e-07)
(4.61645e-09 -8.68871e-08 1.6204e-07)
(5.12019e-09 -1.33981e-07 1.80079e-07)
(-6.6974e-09 3.24516e-08 2.32671e-08)
(-1.43268e-08 2.60639e-08 5.57277e-08)
(-1.78215e-08 1.139e-08 7.90489e-08)
(-1.98202e-08 -5.91392e-09 9.83149e-08)
(-2.24373e-08 -2.55562e-08 1.16626e-07)
(-2.71277e-08 -4.94463e-08 1.35935e-07)
(-3.4571e-08 -8.37718e-08 1.57506e-07)
(-4.31416e-08 -1.29665e-07 1.75211e-07)
(-2.00747e-08 3.70568e-08 2.11504e-08)
(-4.00167e-08 3.2065e-08 5.26295e-08)
(-4.71735e-08 1.57046e-08 7.60031e-08)
(-4.99188e-08 -2.01252e-09 9.58172e-08)
(-5.36151e-08 -2.05089e-08 1.14794e-07)
(-6.16746e-08 -4.32751e-08 1.34472e-07)
(-7.54835e-08 -7.82671e-08 1.54871e-07)
(-8.99031e-08 -1.24521e-07 1.69242e-07)
(-1.73223e-08 3.23275e-08 1.93716e-08)
(-3.62373e-08 2.47829e-08 4.84381e-08)
(-4.31338e-08 7.38114e-09 7.07596e-08)
(-4.5992e-08 -1.00215e-08 8.99032e-08)
(-4.96918e-08 -2.73183e-08 1.08616e-07)
(-5.73815e-08 -4.80491e-08 1.28679e-07)
(-7.09175e-08 -8.02239e-08 1.49599e-07)
(-8.46426e-08 -1.23669e-07 1.6486e-07)
(-9.18526e-09 1.56805e-08 6.79124e-09)
(-2.28618e-08 5.28082e-09 2.51937e-08)
(-2.75008e-08 -1.02422e-08 4.41825e-08)
(-2.91301e-08 -2.57395e-08 6.19185e-08)
(-3.19985e-08 -4.11427e-08 7.8953e-08)
(-3.94996e-08 -5.84122e-08 9.59192e-08)
(-5.45257e-08 -8.42938e-08 1.11637e-07)
(-7.16232e-08 -1.22108e-07 1.21366e-07)
(-2.07454e-09 6.27105e-09 2.56766e-09)
(-1.04324e-08 -5.94502e-09 1.48703e-08)
(-1.31907e-08 -2.12983e-08 3.05534e-08)
(-1.40932e-08 -3.56578e-08 4.64684e-08)
(-1.65985e-08 -4.87659e-08 6.15197e-08)
(-2.41824e-08 -6.20599e-08 7.50377e-08)
(-4.00628e-08 -8.22857e-08 8.52592e-08)
(-5.87512e-08 -1.14837e-07 8.89638e-08)
(1.65796e-09 1.67475e-09 2.51876e-09)
(-3.91073e-09 -1.11148e-08 1.23656e-08)
(-5.72115e-09 -2.65844e-08 2.50589e-08)
(-6.4252e-09 -4.0292e-08 3.83435e-08)
(-8.97321e-09 -5.16512e-08 5.07278e-08)
(-1.67392e-08 -6.21792e-08 6.09309e-08)
(-3.28055e-08 -7.90485e-08 6.7254e-08)
(-5.1525e-08 -1.08552e-07 6.80217e-08)
(3.25315e-09 -2.00236e-10 2.6889e-09)
(-1.16981e-09 -1.30111e-08 1.07024e-08)
(-2.67525e-09 -2.83601e-08 2.04829e-08)
(-3.44521e-09 -4.15858e-08 3.06871e-08)
(-6.15871e-09 -5.18869e-08 4.00424e-08)
(-1.40202e-08 -6.09668e-08 4.73024e-08)
(-2.99137e-08 -7.63113e-08 5.12118e-08)
(-4.81856e-08 -1.04339e-07 5.10925e-08)
(3.84946e-09 -8.69927e-10 2.30443e-09)
(-1.95007e-10 -1.34686e-08 8.25224e-09)
(-1.68037e-09 -2.85104e-08 1.51559e-08)
(-2.58038e-09 -4.13355e-08 2.22509e-08)
(-5.43195e-09 -5.10759e-08 2.86515e-08)
(-1.3308e-08 -5.95542e-08 3.34435e-08)
(-2.89552e-08 -7.43431e-08 3.58349e-08)
(-4.67686e-08 -1.01656e-07 3.55846e-08)
(4.05519e-09 -1.08356e-09 1.51463e-09)
(1.18121e-10 -1.34353e-08 5.16e-09)
(-1.41537e-09 -2.81647e-08 9.25472e-09)
(-2.41708e-09 -4.0694e-08 1.34025e-08)
(-5.34914e-09 -5.01626e-08 1.70991e-08)
(-1.32072e-08 -5.84418e-08 1.98158e-08)
(-2.86631e-08 -7.30703e-08 2.11277e-08)
(-4.61529e-08 -1.00033e-07 2.09494e-08)
(4.11894e-09 -1.14151e-09 5.24312e-10)
(2.10786e-10 -1.33393e-08 1.75009e-09)
(-1.35336e-09 -2.78828e-08 3.10543e-09)
(-2.40793e-09 -4.02557e-08 4.46704e-09)
(-5.37448e-09 -4.96144e-08 5.67291e-09)
(-1.32163e-08 -5.7844e-08 6.55246e-09)
(-2.85735e-08 -7.24391e-08 6.97244e-09)
(-4.59018e-08 -9.92561e-08 6.91061e-09)
(5.56681e-08 -1.44868e-07 1.83698e-07)
(4.8094e-08 -1.43669e-07 1.3388e-07)
(3.99532e-08 -1.36358e-07 9.67425e-08)
(3.62348e-08 -1.30098e-07 7.26232e-08)
(3.57123e-08 -1.25555e-07 5.37941e-08)
(3.6338e-08 -1.22483e-07 3.71753e-08)
(3.70137e-08 -1.20579e-07 2.18096e-08)
(3.73825e-08 -1.19662e-07 7.1857e-09)
(4.83611e-09 -1.40368e-07 1.80712e-07)
(3.58396e-09 -1.36254e-07 1.33641e-07)
(2.03608e-09 -1.28303e-07 9.85887e-08)
(1.92049e-09 -1.22861e-07 7.42705e-08)
(2.77966e-09 -1.19241e-07 5.44931e-08)
(3.8152e-09 -1.16798e-07 3.72501e-08)
(4.59107e-09 -1.15236e-07 2.16953e-08)
(4.98285e-09 -1.14462e-07 7.12462e-09)
(-4.34097e-08 -1.34954e-07 1.76894e-07)
(-3.55539e-08 -1.31087e-07 1.30988e-07)
(-2.88455e-08 -1.23371e-07 9.66224e-08)
(-2.47908e-08 -1.18127e-07 7.28037e-08)
(-2.27126e-08 -1.14663e-07 5.34307e-08)
(-2.16669e-08 -1.12333e-07 3.65312e-08)
(-2.11147e-08 -1.10844e-07 2.12795e-08)
(-2.08607e-08 -1.10106e-07 6.98861e-09)
(-9.01927e-08 -1.28434e-07 1.72256e-07)
(-7.64578e-08 -1.27817e-07 1.25941e-07)
(-6.32849e-08 -1.21185e-07 9.08335e-08)
(-5.56171e-08 -1.1552e-07 6.81954e-08)
(-5.21237e-08 -1.11444e-07 5.05804e-08)
(-5.06403e-08 -1.08711e-07 3.49997e-08)
(-4.99686e-08 -1.07028e-07 2.05517e-08)
(-4.96815e-08 -1.0622e-07 6.77427e-09)
)
;
    }
    symmetry
    {
        type            symmetry;
    }
    bottom
    {
        type            calculated;
        value           uniform (0 0 0);
    }
}


// ************************************************************************* //
