/*--------------------------------*- C++ -*----------------------------------*\
| =========                 |                                                 |
| \\      /  F ield         | OpenFOAM: The Open Source CFD Toolbox           |
|  \\    /   O peration     | Version:  v1912                                 |
|   \\  /    A nd           | Website:  www.openfoam.com                      |
|    \\/     M anipulation  |                                                 |
\*---------------------------------------------------------------------------*/
FoamFile
{
    version     2.0;
    format      ascii;
    class       volVectorField;
    location    "0.07/solid";
    object      D_0;
}
// * * * * * * * * * * * * * * * * * * * * * * * * * * * * * * * * * * * * * //

dimensions      [0 1 0 0 0 0 0];


internalField   nonuniform List<vector> 
256
(
(-9.72751e-09 9.31033e-09 -1.53229e-08)
(-4.13704e-09 9.10566e-09 -7.85488e-09)
(3.9325e-09 9.16218e-09 -8.01052e-09)
(8.9621e-09 9.78898e-09 -1.58589e-08)
(-1.52494e-08 1.88455e-08 -3.67912e-08)
(-6.70851e-09 1.92133e-08 -2.78082e-08)
(5.59425e-09 1.94632e-08 -2.81743e-08)
(1.33731e-08 1.97786e-08 -3.79656e-08)
(-1.51386e-08 3.25339e-08 -5.43612e-08)
(-7.15127e-09 3.27329e-08 -4.62011e-08)
(4.94273e-09 3.31458e-08 -4.66787e-08)
(1.21902e-08 3.38595e-08 -5.58567e-08)
(-1.3983e-08 4.88129e-08 -7.05378e-08)
(-7.14338e-09 4.96126e-08 -6.25186e-08)
(3.73599e-09 5.01534e-08 -6.30437e-08)
(9.86965e-09 5.04786e-08 -7.21706e-08)
(-1.39228e-08 6.701e-08 -8.66479e-08)
(-7.65014e-09 6.94248e-08 -7.81729e-08)
(2.93325e-09 7.00688e-08 -7.87073e-08)
(8.52544e-09 6.89663e-08 -8.83076e-08)
(-1.7682e-08 8.76187e-08 -1.04335e-07)
(-9.92361e-09 9.19342e-08 -9.52182e-08)
(3.77812e-09 9.26589e-08 -9.57372e-08)
(1.08701e-08 8.98142e-08 -1.05946e-07)
(-2.94025e-08 1.13097e-07 -1.25617e-07)
(-1.51323e-08 1.15949e-07 -1.16246e-07)
(7.45081e-09 1.1674e-07 -1.16733e-07)
(2.10151e-08 1.15494e-07 -1.27129e-07)
(-4.86959e-08 1.37819e-07 -1.4843e-07)
(-2.0689e-08 1.29745e-07 -1.39931e-07)
(1.138e-08 1.30634e-07 -1.4038e-07)
(3.85372e-08 1.40554e-07 -1.49836e-07)
(3.95494e-09 1.3765e-08 -1.2095e-08)
(-1.14752e-09 9.98906e-09 -1.30593e-08)
(1.07666e-09 1.01101e-08 -1.315e-08)
(-4.44412e-09 1.43489e-08 -1.23828e-08)
(5.14571e-09 2.80539e-08 -3.18469e-08)
(-1.37271e-09 2.66036e-08 -3.41589e-08)
(6.65983e-10 2.69109e-08 -3.44012e-08)
(-6.407e-09 2.90768e-08 -3.25853e-08)
(5.60737e-09 4.30413e-08 -4.93517e-08)
(-1.44641e-09 4.28604e-08 -5.23708e-08)
(-1.5654e-10 4.33044e-08 -5.27076e-08)
(-7.74438e-09 4.44107e-08 -5.03675e-08)
(6.29186e-09 5.95353e-08 -6.56285e-08)
(-1.55774e-09 6.03586e-08 -6.87559e-08)
(-1.12797e-09 6.09116e-08 -6.91382e-08)
(-9.48554e-09 6.12138e-08 -6.67832e-08)
(6.10578e-09 7.73427e-08 -8.16809e-08)
(-2.18059e-09 7.98326e-08 -8.45974e-08)
(-1.7629e-09 8.04795e-08 -8.4992e-08)
(-1.05365e-08 7.93013e-08 -8.28781e-08)
(2.24102e-09 9.62346e-08 -9.83472e-08)
(-4.54298e-09 1.00665e-07 -1.00974e-07)
(-8.24768e-10 1.01393e-07 -1.01359e-07)
(-8.08684e-09 9.84429e-08 -9.952e-08)
(-9.74655e-09 1.15857e-07 -1.1459e-07)
(-9.88468e-09 1.18715e-07 -1.17042e-07)
(2.95246e-09 1.19521e-07 -1.17407e-07)
(2.28405e-09 1.18305e-07 -1.15702e-07)
(-2.98555e-08 1.26807e-07 -1.2366e-07)
(-1.55928e-08 1.17873e-07 -1.26116e-07)
(6.98489e-09 1.18808e-07 -1.26474e-07)
(2.05436e-08 1.29671e-07 -1.2474e-07)
(1.07664e-08 1.50827e-08 -8.4267e-09)
(1.41212e-09 9.71131e-09 -1.05624e-08)
(-1.39858e-09 9.83187e-09 -1.0634e-08)
(-1.11145e-08 1.56106e-08 -8.64732e-09)
(1.73783e-08 3.20464e-08 -2.50869e-08)
(3.47747e-09 2.92303e-08 -2.90517e-08)
(-3.91281e-09 2.95338e-08 -2.92333e-08)
(-1.82813e-08 3.30046e-08 -2.56278e-08)
(1.87037e-08 4.84837e-08 -4.09965e-08)
(3.88251e-09 4.78332e-08 -4.55481e-08)
(-5.05198e-09 4.82719e-08 -4.5802e-08)
(-2.03222e-08 4.98018e-08 -4.17503e-08)
(1.90317e-08 6.51192e-08 -5.61193e-08)
(3.68326e-09 6.59723e-08 -6.07307e-08)
(-5.82019e-09 6.65216e-08 -6.10243e-08)
(-2.15987e-08 6.67656e-08 -5.69967e-08)
(1.84569e-08 8.16347e-08 -7.0654e-08)
(2.93585e-09 8.43139e-08 -7.51267e-08)
(-6.26314e-09 8.49627e-08 -7.54356e-08)
(-2.21997e-08 8.35887e-08 -7.15842e-08)
(1.42431e-08 9.72901e-08 -8.42612e-08)
(4.7334e-10 1.01933e-07 -8.85357e-08)
(-5.19959e-09 1.02673e-07 -8.88431e-08)
(-1.93816e-08 9.95321e-08 -8.51928e-08)
(1.84408e-09 1.11457e-07 -9.48474e-08)
(-4.9907e-09 1.14489e-07 -9.89298e-08)
(-1.31071e-09 1.15323e-07 -9.92306e-08)
(-8.61826e-09 1.13987e-07 -9.57561e-08)
(-1.85399e-08 1.17396e-07 -9.80903e-08)
(-1.08353e-08 1.08716e-07 -1.02082e-07)
(2.81474e-09 1.09694e-07 -1.0239e-07)
(9.86196e-09 1.2039e-07 -9.90039e-08)
(1.25836e-08 1.55905e-08 -6.74004e-09)
(2.27735e-09 9.59837e-09 -7.90747e-09)
(-2.20753e-09 9.71028e-09 -7.9647e-09)
(-1.286e-08 1.60686e-08 -6.90907e-09)
(2.13701e-08 3.35794e-08 -2.04916e-08)
(5.36333e-09 3.00908e-08 -2.27298e-08)
(-5.6165e-09 3.03752e-08 -2.28688e-08)
(-2.20706e-08 3.44552e-08 -2.08925e-08)
(2.33667e-08 5.06551e-08 -3.39515e-08)
(6.10786e-09 4.97164e-08 -3.65513e-08)
(-6.9736e-09 5.01368e-08 -3.67433e-08)
(-2.46654e-08 5.18986e-08 -3.4508e-08)
(2.35829e-08 6.70366e-08 -4.68155e-08)
(5.90361e-09 6.7909e-08 -4.945e-08)
(-7.63784e-09 6.84469e-08 -4.96737e-08)
(-2.57365e-08 6.8634e-08 -4.7471e-08)
(2.2676e-08 8.21586e-08 -5.87621e-08)
(5.0601e-09 8.49921e-08 -6.12946e-08)
(-7.91709e-09 8.56398e-08 -6.15335e-08)
(-2.59427e-08 8.40978e-08 -5.947e-08)
(1.81024e-08 9.5363e-08 -6.8969e-08)
(2.49881e-09 1.00199e-07 -7.13484e-08)
(-6.72088e-09 1.0095e-07 -7.15914e-08)
(-2.27354e-08 9.76305e-08 -6.96935e-08)
(5.42794e-09 1.06898e-07 -7.57863e-08)
(-3.03702e-09 1.10199e-07 -7.80153e-08)
(-2.76002e-09 1.11057e-07 -7.82592e-08)
(-1.17005e-08 1.09497e-07 -7.65109e-08)
(-1.50124e-08 1.11902e-07 -7.72996e-08)
(-8.95234e-09 1.03844e-07 -7.95124e-08)
(1.40283e-09 1.04855e-07 -7.97665e-08)
(6.80087e-09 1.14999e-07 -7.80427e-08)
(1.26582e-08 1.57044e-08 -5.35986e-09)
(2.34616e-09 9.55988e-09 -5.77306e-09)
(-2.2424e-09 9.66533e-09 -5.81521e-09)
(-1.28934e-08 1.61507e-08 -5.48097e-09)
(2.17697e-08 3.39369e-08 -1.61865e-08)
(5.61783e-09 3.02322e-08 -1.69893e-08)
(-5.7558e-09 3.04997e-08 -1.70903e-08)
(-2.23484e-08 3.47494e-08 -1.64714e-08)
(2.3975e-08 5.10488e-08 -2.679e-08)
(6.48213e-09 5.00051e-08 -2.77329e-08)
(-7.14727e-09 5.04076e-08 -2.78718e-08)
(-2.50707e-08 5.22277e-08 -2.7185e-08)
(2.4156e-08 6.69797e-08 -3.68429e-08)
(6.2937e-09 6.78758e-08 -3.77917e-08)
(-7.7509e-09 6.84012e-08 -3.79542e-08)
(-2.60343e-08 6.85297e-08 -3.73117e-08)
(2.30559e-08 8.10934e-08 -4.58817e-08)
(5.40302e-09 8.4026e-08 -4.67639e-08)
(-7.9253e-09 8.46699e-08 -4.69396e-08)
(-2.59932e-08 8.30127e-08 -4.63951e-08)
(1.82605e-08 9.30319e-08 -5.31467e-08)
(2.785e-09 9.80002e-08 -5.39318e-08)
(-6.63923e-09 9.87581e-08 -5.41134e-08)
(-2.25342e-08 9.53116e-08 -5.36812e-08)
(5.46399e-09 1.0371e-07 -5.76487e-08)
(-2.77661e-09 1.07227e-07 -5.83469e-08)
(-2.64684e-09 1.08102e-07 -5.85326e-08)
(-1.13738e-08 1.06354e-07 -5.8193e-08)
(-1.49756e-08 1.08756e-07 -5.86291e-08)
(-8.72522e-09 1.0119e-07 -5.9343e-08)
(1.52695e-09 1.02226e-07 -5.95384e-08)
(7.10522e-09 1.11925e-07 -5.91937e-08)
(1.24111e-08 1.56441e-08 -3.9153e-09)
(2.24769e-09 9.51554e-09 -4.00717e-09)
(-2.12493e-09 9.61676e-09 -4.0353e-09)
(-1.26213e-08 1.60702e-08 -3.9949e-09)
(2.13074e-08 3.37898e-08 -1.17126e-08)
(5.4406e-09 3.00728e-08 -1.18754e-08)
(-5.50961e-09 3.03287e-08 -1.19428e-08)
(-2.18112e-08 3.45599e-08 -1.19002e-08)
(2.34613e-08 5.06922e-08 -1.92961e-08)
(6.30103e-09 4.96455e-08 -1.94766e-08)
(-6.84105e-09 5.00347e-08 -1.95694e-08)
(-2.44289e-08 5.18244e-08 -1.95569e-08)
(2.35955e-08 6.62049e-08 -2.64014e-08)
(6.11486e-09 6.71303e-08 -2.65674e-08)
(-7.39332e-09 6.76456e-08 -2.66765e-08)
(-2.52949e-08 6.77177e-08 -2.67128e-08)
(2.24003e-08 7.97405e-08 -3.26381e-08)
(5.208e-09 8.27297e-08 -3.27649e-08)
(-7.50845e-09 8.33693e-08 -3.28839e-08)
(-2.51181e-08 8.16408e-08 -3.29824e-08)
(1.75042e-08 9.11721e-08 -3.74842e-08)
(2.57029e-09 9.62138e-08 -3.75609e-08)
(-6.17599e-09 9.69745e-08 -3.76855e-08)
(-2.15339e-08 9.34551e-08 -3.7847e-08)
(4.66981e-09 1.01685e-07 -4.04084e-08)
(-2.9939e-09 1.05321e-07 -4.04461e-08)
(-2.1741e-09 1.06207e-07 -4.05749e-08)
(-1.03301e-08 1.04355e-07 -4.07823e-08)
(-1.57561e-08 1.06886e-07 -4.10995e-08)
(-8.95674e-09 9.95868e-08 -4.11548e-08)
(2.0002e-09 1.00638e-07 -4.12911e-08)
(8.12271e-09 1.10104e-07 -4.149e-08)
(1.22258e-08 1.5548e-08 -2.3844e-09)
(2.17315e-09 9.46338e-09 -2.38621e-09)
(-2.04058e-09 9.56201e-09 -2.40213e-09)
(-1.24218e-08 1.5962e-08 -2.42908e-09)
(2.09081e-08 3.35246e-08 -7.08185e-09)
(5.27828e-09 2.98472e-08 -7.06746e-09)
(-5.30933e-09 3.0096e-08 -7.10574e-09)
(-2.13687e-08 3.4269e-08 -7.18758e-09)
(2.29637e-08 5.02005e-08 -1.1617e-08)
(6.10685e-09 4.91815e-08 -1.15853e-08)
(-6.57564e-09 4.95624e-08 -1.16382e-08)
(-2.38567e-08 5.13037e-08 -1.17644e-08)
(2.30468e-08 6.54271e-08 -1.58253e-08)
(5.91309e-09 6.63787e-08 -1.57764e-08)
(-7.08731e-09 6.68872e-08 -1.58388e-08)
(-2.46404e-08 6.69157e-08 -1.60021e-08)
(2.18051e-08 7.86806e-08 -1.94653e-08)
(5.00141e-09 8.16995e-08 -1.93959e-08)
(-7.17012e-09 8.23358e-08 -1.94644e-08)
(-2.43912e-08 8.05671e-08 -1.96619e-08)
(1.68711e-08 8.99488e-08 -2.22484e-08)
(2.36057e-09 9.5024e-08 -2.21578e-08)
(-5.81685e-09 9.57858e-08 -2.223e-08)
(-2.07527e-08 9.22317e-08 -2.24572e-08)
(4.03055e-09 1.00482e-07 -2.39175e-08)
(-3.19976e-09 1.0417e-07 -2.38131e-08)
(-1.81363e-09 1.0506e-07 -2.38884e-08)
(-9.53837e-09 1.03167e-07 -2.41341e-08)
(-1.63805e-08 1.05806e-07 -2.43397e-08)
(-9.16702e-09 9.86147e-08 -2.42462e-08)
(2.35708e-09 9.96757e-08 -2.43261e-08)
(8.8924e-09 1.09052e-07 -2.45669e-08)
(1.21427e-08 1.54864e-08 -8.00545e-10)
(2.14133e-09 9.42807e-09 -7.95188e-10)
(-2.00471e-09 9.52549e-09 -8.00326e-10)
(-1.23324e-08 1.58948e-08 -8.14892e-10)
(2.07222e-08 3.33485e-08 -2.36872e-09)
(5.20404e-09 2.96996e-08 -2.35115e-09)
(-5.21874e-09 2.99452e-08 -2.36353e-09)
(-2.11636e-08 3.40811e-08 -2.40276e-09)
(2.27204e-08 4.98909e-08 -3.87606e-09)
(6.01265e-09 4.88924e-08 -3.84905e-09)
(-6.45011e-09 4.92694e-08 -3.86619e-09)
(-2.358e-08 5.09807e-08 -3.92362e-09)
(2.27724e-08 6.4978e-08 -5.26758e-09)
(5.81227e-09 6.59446e-08 -5.23347e-09)
(-6.94004e-09 6.64499e-08 -5.25374e-09)
(-2.43182e-08 6.64552e-08 -5.32473e-09)
(2.15101e-08 7.81212e-08 -6.46313e-09)
(4.89875e-09 8.1153e-08 -6.4226e-09)
(-7.00829e-09 8.17877e-08 -6.44492e-09)
(-2.40364e-08 8.00012e-08 -6.52688e-09)
(1.65636e-08 8.93485e-08 -7.37166e-09)
(2.25829e-09 9.4436e-08 -7.32546e-09)
(-5.64725e-09 9.51982e-08 -7.34909e-09)
(-2.0378e-08 9.16314e-08 -7.43956e-09)
(3.72382e-09 9.99165e-08 -7.91621e-09)
(-3.2993e-09 1.0362e-07 -7.86702e-09)
(-1.64465e-09 1.04514e-07 -7.89172e-09)
(-9.16277e-09 1.02608e-07 -7.98689e-09)
(-1.6678e-08 1.05305e-07 -8.05864e-09)
(-9.26744e-09 9.81467e-08 -8.01291e-09)
(2.52263e-09 9.92124e-08 -8.03919e-09)
(9.25482e-09 1.08566e-07 -8.13291e-09)
)
;

boundaryField
{
    interface
    {
        type            solidTraction;
        traction        uniform (0 0 0);
        pressure        uniform 0;
        secondOrder     false;
        setEffectiveTraction false;
        relaxationFactor 1;
        value           nonuniform List<vector> 
192
(
(7.47844e-08 3.06602e-09 -1.20096e-08)
(6.91201e-08 1.74926e-08 -3.14933e-08)
(7.00123e-08 3.28504e-08 -4.88092e-08)
(7.1934e-08 4.91168e-08 -6.51193e-08)
(7.31572e-08 6.60852e-08 -8.13874e-08)
(7.18186e-08 8.37488e-08 -9.9216e-08)
(6.48794e-08 1.05343e-07 -1.20629e-07)
(4.00957e-08 1.32736e-07 -1.43569e-07)
(9.39069e-08 1.604e-08 -6.97213e-09)
(9.44121e-08 2.84669e-08 -2.36908e-08)
(9.54686e-08 4.33277e-08 -4.08919e-08)
(9.69589e-08 5.96599e-08 -5.73756e-08)
(9.80719e-08 7.633e-08 -7.35867e-08)
(9.68724e-08 9.22716e-08 -9.03666e-08)
(9.02034e-08 1.07833e-07 -1.06779e-07)
(6.44303e-08 1.21596e-07 -1.16121e-07)
(9.5912e-08 2.21188e-08 -6.27004e-09)
(1.01835e-07 3.40306e-08 -2.10314e-08)
(1.03739e-07 4.8897e-08 -3.65572e-08)
(1.04836e-07 6.50575e-08 -5.17972e-08)
(1.05484e-07 8.04375e-08 -6.6512e-08)
(1.03793e-07 9.31371e-08 -8.02964e-08)
(9.65101e-08 1.03261e-07 -9.10542e-08)
(7.09809e-08 1.12051e-07 -9.43799e-08)
(9.55611e-08 2.40788e-08 -6.26743e-09)
(1.036e-07 3.6275e-08 -1.93942e-08)
(1.06177e-07 5.12082e-08 -3.26341e-08)
(1.07129e-07 6.68639e-08 -4.55348e-08)
(1.07375e-07 8.07885e-08 -5.76128e-08)
(1.05212e-07 9.10512e-08 -6.7965e-08)
(9.75065e-08 9.86194e-08 -7.48817e-08)
(7.21351e-08 1.06434e-07 -7.64088e-08)
(9.47359e-08 2.43113e-08 -5.40324e-09)
(1.03093e-07 3.67659e-08 -1.62025e-08)
(1.05867e-07 5.16453e-08 -2.67666e-08)
(1.06752e-07 6.67499e-08 -3.684e-08)
(1.06752e-07 7.96196e-08 -4.5951e-08)
(1.04295e-07 8.86341e-08 -5.32965e-08)
(9.63878e-08 9.54016e-08 -5.78385e-08)
(7.11243e-08 1.03206e-07 -5.88152e-08)
(9.40711e-08 2.40735e-08 -4.02358e-09)
(1.02222e-07 3.65522e-08 -1.19282e-08)
(1.04932e-07 5.12641e-08 -1.95491e-08)
(1.05744e-07 6.59396e-08 -2.66789e-08)
(1.05613e-07 7.82177e-08 -3.2951e-08)
(1.03012e-07 8.67397e-08 -3.78317e-08)
(9.50283e-08 9.33702e-08 -4.07669e-08)
(6.98297e-08 1.01297e-07 -4.14509e-08)
(9.36791e-08 2.38313e-08 -2.4516e-09)
(1.01624e-07 3.6209e-08 -7.22829e-09)
(1.04225e-07 5.07351e-08 -1.18023e-08)
(1.04968e-07 6.51375e-08 -1.60312e-08)
(1.04768e-07 7.71368e-08 -1.96879e-08)
(1.02107e-07 8.55053e-08 -2.24837e-08)
(9.40991e-08 9.21698e-08 -2.41541e-08)
(6.89392e-08 1.00203e-07 -2.45703e-08)
(9.35078e-08 2.37025e-08 -8.21351e-10)
(1.01352e-07 3.59928e-08 -2.41525e-09)
(1.03891e-07 5.04034e-08 -3.93692e-09)
(1.04593e-07 6.46754e-08 -5.33624e-09)
(1.04363e-07 7.65691e-08 -6.53694e-09)
(1.0168e-07 8.49022e-08 -7.44858e-09)
(9.36661e-08 9.16065e-08 -7.99293e-09)
(6.85251e-08 9.96997e-08 -8.13305e-09)
(-9.51519e-09 -3.71824e-09 7.48674e-08)
(-1.56503e-08 9.08588e-09 5.34355e-08)
(-1.58724e-08 2.40973e-08 3.65414e-08)
(-1.46853e-08 4.07413e-08 2.09385e-08)
(-1.44321e-08 5.85609e-08 5.82057e-09)
(-1.79601e-08 7.78765e-08 -9.50659e-09)
(-2.95516e-08 1.02073e-07 -2.58785e-08)
(-4.89995e-08 1.3205e-07 -5.36843e-08)
(-2.30726e-09 1.89875e-10 8.73948e-08)
(-4.55233e-09 9.6267e-09 6.78437e-08)
(-5.22868e-09 2.40553e-08 5.02456e-08)
(-5.26791e-09 4.16196e-08 3.4681e-08)
(-5.66307e-09 6.12499e-08 2.03043e-08)
(-7.77241e-09 8.24158e-08 6.06452e-09)
(-1.29097e-08 1.04771e-07 -9.39072e-09)
(-1.86746e-08 1.23829e-07 -3.87688e-08)
(1.93318e-09 1.16011e-10 8.69328e-08)
(3.05685e-09 9.79613e-09 6.71413e-08)
(2.53081e-09 2.44285e-08 4.94221e-08)
(1.32494e-09 4.21463e-08 3.38054e-08)
(4.01495e-10 6.18954e-08 1.94167e-08)
(1.09816e-09 8.31524e-08 5.19293e-09)
(4.73203e-09 1.05579e-07 -1.02225e-08)
(8.90545e-09 1.24722e-07 -3.95088e-08)
(8.58377e-09 -3.6671e-09 7.3106e-08)
(1.34099e-08 9.77916e-09 5.09177e-08)
(1.24572e-08 2.53082e-08 3.36832e-08)
(1.00571e-08 4.23659e-08 1.79389e-08)
(8.50616e-09 6.05225e-08 2.79701e-09)
(1.06305e-08 8.01088e-08 -1.2469e-08)
(2.06752e-08 1.04521e-07 -2.87131e-08)
(3.83875e-08 1.34799e-07 -5.62767e-08)
(-7.84297e-08 4.2053e-09 -1.26953e-08)
(-7.38454e-08 1.89717e-08 -3.30008e-08)
(-7.57734e-08 3.47354e-08 -5.07381e-08)
(-7.88006e-08 5.13949e-08 -6.72367e-08)
(-8.12253e-08 6.87162e-08 -8.35504e-08)
(-8.12042e-08 8.66918e-08 -1.01325e-07)
(-7.58303e-08 1.08577e-07 -1.22615e-07)
(-5.34192e-08 1.36365e-07 -1.45411e-07)
(-9.68028e-08 1.70618e-08 -7.36301e-09)
(-9.80056e-08 2.99019e-08 -2.4671e-08)
(-9.99005e-08 4.51804e-08 -4.22387e-08)
(-1.02388e-07 6.19118e-08 -5.89153e-08)
(-1.04647e-07 7.89516e-08 -7.51962e-08)
(-1.04743e-07 9.52377e-08 -9.19564e-08)
(-9.96419e-08 1.11147e-07 -1.08293e-07)
(-7.6303e-08 1.25393e-07 -1.1757e-07)
(-9.87184e-08 2.29597e-08 -6.54284e-09)
(-1.05121e-07 3.53067e-08 -2.17113e-08)
(-1.07707e-07 5.06312e-08 -3.75195e-08)
(-1.09696e-07 6.7235e-08 -5.29333e-08)
(-1.1143e-07 8.30343e-08 -6.77321e-08)
(-1.11013e-07 9.61366e-08 -8.15301e-08)
(-1.05306e-07 1.06676e-07 -9.22595e-08)
(-8.22254e-08 1.1601e-07 -9.55678e-08)
(-9.83996e-08 2.48014e-08 -6.46399e-09)
(-1.06792e-07 3.74067e-08 -1.98753e-08)
(-1.09936e-07 5.28152e-08 -3.33204e-08)
(-1.1169e-07 6.89534e-08 -4.63616e-08)
(-1.12962e-07 8.33475e-08 -5.85212e-08)
(-1.12044e-07 9.40697e-08 -6.8905e-08)
(-1.05915e-07 1.02112e-07 -7.58216e-08)
(-8.30039e-08 1.1052e-07 -7.73532e-08)
(-9.76087e-08 2.49613e-08 -5.54038e-09)
(-1.06241e-07 3.77938e-08 -1.6536e-08)
(-1.09506e-07 5.31492e-08 -2.72438e-08)
(-1.11122e-07 6.87603e-08 -3.74218e-08)
(-1.12095e-07 8.21376e-08 -4.66009e-08)
(-1.10854e-07 9.16565e-08 -5.39813e-08)
(-1.04519e-07 9.89438e-08 -5.85353e-08)
(-8.17256e-08 1.0738e-07 -5.9524e-08)
(-9.69653e-08 2.46784e-08 -4.11263e-09)
(-1.05344e-07 3.75119e-08 -1.21449e-08)
(-1.08492e-07 5.26954e-08 -1.98602e-08)
(-1.09986e-07 6.789e-08 -2.7061e-08)
(-1.10788e-07 8.07004e-08 -3.33827e-08)
(-1.09381e-07 8.97579e-08 -3.82922e-08)
(-1.02963e-07 9.69406e-08 -4.12409e-08)
(-8.02422e-08 1.05528e-07 -4.19367e-08)
(-9.65853e-08 2.44098e-08 -2.5012e-09)
(-1.0473e-07 3.71278e-08 -7.34933e-09)
(-1.07738e-07 5.21216e-08 -1.19765e-08)
(-1.09132e-07 6.70493e-08 -1.62461e-08)
(-1.0984e-07 7.95951e-08 -1.99322e-08)
(-1.08356e-07 8.85183e-08 -2.27461e-08)
(-1.01912e-07 9.57556e-08 -2.44258e-08)
(-7.92345e-08 1.04469e-07 -2.48498e-08)
(-9.64195e-08 2.4269e-08 -8.37204e-10)
(-1.04451e-07 3.68931e-08 -2.454e-09)
(-1.07383e-07 5.17694e-08 -3.99274e-09)
(-1.08722e-07 6.65693e-08 -5.40523e-09)
(-1.09388e-07 7.9016e-08 -6.61552e-09)
(-1.07875e-07 8.79127e-08 -7.53319e-09)
(-1.01423e-07 9.51999e-08 -8.08074e-09)
(-7.87682e-08 1.03983e-07 -8.22347e-09)
(-4.92176e-08 4.30666e-08 -1.48562e-07)
(-3.02262e-08 2.70559e-08 -1.18554e-07)
(-1.9041e-08 2.25487e-08 -9.4364e-08)
(-1.57301e-08 1.93996e-08 -7.51395e-08)
(-1.58573e-08 1.71944e-08 -5.73752e-08)
(-1.67241e-08 1.57348e-08 -4.03621e-08)
(-1.73822e-08 1.48524e-08 -2.39443e-08)
(-1.76891e-08 1.44377e-08 -7.9334e-09)
(-1.88911e-08 2.85808e-08 -1.39921e-07)
(-1.35914e-08 1.10148e-08 -1.20858e-07)
(-8.90829e-09 7.43629e-09 -9.85751e-08)
(-7.18917e-09 5.36869e-09 -7.76309e-08)
(-7.09124e-09 3.94093e-09 -5.82787e-08)
(-7.39312e-09 2.88177e-09 -4.05109e-08)
(-7.63293e-09 2.1561e-09 -2.38861e-08)
(-7.74277e-09 1.78653e-09 -7.89591e-09)
(8.67924e-09 2.97605e-08 -1.40379e-07)
(4.03682e-09 1.22965e-08 -1.21239e-07)
(-1.02115e-10 8.77057e-09 -9.89015e-08)
(-1.3843e-09 6.73957e-09 -7.78994e-08)
(-1.15529e-09 5.33666e-09 -5.84841e-08)
(-6.27566e-10 4.29373e-09 -4.06536e-08)
(-2.50749e-10 3.57802e-09 -2.39696e-08)
(-8.05395e-11 3.21345e-09 -7.92337e-09)
(3.81533e-08 4.69898e-08 -1.49993e-07)
(1.99685e-08 3.12466e-08 -1.19699e-07)
(9.37975e-09 2.6903e-08 -9.53357e-08)
(6.50645e-09 2.38761e-08 -7.59266e-08)
(6.95498e-09 2.17557e-08 -5.79701e-08)
(8.04603e-09 2.03516e-08 -4.07718e-08)
(8.84182e-09 1.95034e-08 -2.41823e-08)
(9.20986e-09 1.91059e-08 -8.01124e-09)
)
;
        gradient        uniform (0 0 0);
    }
    symmetry
    {
        type            solidSymmetry;
        patchType       symmetry;
        secondOrder     false;
        value           nonuniform List<vector> 
32
(
(1.21427e-08 1.54864e-08 0)
(2.07222e-08 3.33485e-08 0)
(2.27204e-08 4.98909e-08 0)
(2.27724e-08 6.4978e-08 0)
(2.15101e-08 7.81212e-08 0)
(1.65636e-08 8.93485e-08 0)
(3.72382e-09 9.99165e-08 0)
(-1.6678e-08 1.05305e-07 0)
(2.14133e-09 9.42807e-09 0)
(5.20404e-09 2.96996e-08 0)
(6.01265e-09 4.88924e-08 0)
(5.81227e-09 6.59446e-08 0)
(4.89875e-09 8.1153e-08 0)
(2.25829e-09 9.4436e-08 0)
(-3.2993e-09 1.0362e-07 0)
(-9.26744e-09 9.81467e-08 0)
(-2.00471e-09 9.52549e-09 0)
(-5.21874e-09 2.99452e-08 0)
(-6.45011e-09 4.92694e-08 0)
(-6.94004e-09 6.64499e-08 0)
(-7.00829e-09 8.17877e-08 0)
(-5.64725e-09 9.51982e-08 0)
(-1.64465e-09 1.04514e-07 0)
(2.52263e-09 9.92124e-08 0)
(-1.23324e-08 1.58948e-08 0)
(-2.11636e-08 3.40811e-08 0)
(-2.358e-08 5.09807e-08 0)
(-2.43182e-08 6.64552e-08 0)
(-2.40364e-08 8.00012e-08 0)
(-2.0378e-08 9.16314e-08 0)
(-9.16277e-09 1.02608e-07 0)
(9.25482e-09 1.08566e-07 0)
)
;
    }
    bottom
    {
        type            fixedDisplacement;
        value           uniform (0 0 0);
    }
}


// ************************************************************************* //
