/*--------------------------------*- C++ -*----------------------------------*\
| =========                 |                                                 |
| \\      /  F ield         | OpenFOAM: The Open Source CFD Toolbox           |
|  \\    /   O peration     | Version:  v1912                                 |
|   \\  /    A nd           | Website:  www.openfoam.com                      |
|    \\/     M anipulation  |                                                 |
\*---------------------------------------------------------------------------*/
FoamFile
{
    version     2.0;
    format      ascii;
    class       volSymmTensorField;
    location    "0.07/solid";
    object      epsilon;
}
// * * * * * * * * * * * * * * * * * * * * * * * * * * * * * * * * * * * * * //

dimensions      [0 0 0 0 0 0 0];


internalField   nonuniform List<symmTensor> 
256
(
(-3.05243e-06 -1.02116e-07 1.16078e-07 5.68733e-07 -1.73406e-07 -3.30682e-06)
(2.0779e-07 -9.87071e-08 5.44634e-08 5.36898e-07 -1.34808e-07 -3.5661e-06)
(1.98584e-07 1.01158e-07 -5.58865e-08 5.38796e-07 -1.35454e-07 -3.55112e-06)
(-3.14022e-06 9.88774e-08 -1.16003e-07 5.79507e-07 -1.75895e-07 -3.25546e-06)
(-2.98475e-06 -2.1307e-08 1.62103e-07 3.66893e-07 -8.83873e-08 -3.26723e-06)
(3.19865e-07 -2.03498e-08 7.94961e-08 3.89752e-07 -1.00134e-07 -3.59171e-06)
(3.07457e-07 1.99585e-08 -8.17881e-08 3.91357e-07 -1.00412e-07 -3.57457e-06)
(-3.0743e-06 2.07188e-08 -1.62166e-07 3.68078e-07 -8.94472e-08 -3.20938e-06)
(-3.02361e-06 6.46545e-09 1.59711e-07 4.86539e-07 -5.6381e-08 -3.29219e-06)
(3.09791e-07 2.6845e-09 7.88155e-08 5.00578e-07 -6.30928e-08 -3.61756e-06)
(2.97672e-07 -2.62755e-09 -8.11626e-08 5.01303e-07 -6.31116e-08 -3.59989e-06)
(-3.11147e-06 -6.21815e-09 -1.59782e-07 4.87144e-07 -5.64496e-08 -3.23341e-06)
(-3.07613e-06 1.27202e-08 1.56641e-07 5.71399e-07 -4.84109e-08 -3.32038e-06)
(2.73012e-07 8.94188e-09 7.72322e-08 6.10662e-07 -4.62461e-08 -3.65198e-06)
(2.61361e-07 -8.12136e-09 -7.94052e-08 6.10747e-07 -4.60961e-08 -3.63421e-06)
(-3.1613e-06 -1.21562e-08 -1.56611e-07 5.71304e-07 -4.78794e-08 -3.26176e-06)
(-3.13835e-06 5.92806e-09 1.5862e-07 6.54405e-07 -5.83715e-08 -3.36604e-06)
(2.61034e-07 4.20755e-09 7.85827e-08 7.14928e-07 -5.23344e-08 -3.71445e-06)
(2.49764e-07 -3.10547e-09 -8.05228e-08 7.14456e-07 -5.20557e-08 -3.69671e-06)
(-3.22019e-06 -5.30169e-09 -1.58438e-07 6.53219e-07 -5.73933e-08 -3.30793e-06)
(-3.21779e-06 -2.92203e-08 1.63191e-07 7.91762e-07 -9.58417e-08 -3.45211e-06)
(3.45231e-07 -1.98325e-08 8.14763e-08 7.97611e-07 -9.01447e-08 -3.82743e-06)
(3.34126e-07 2.07861e-08 -8.31604e-08 7.96711e-07 -8.97236e-08 -3.80987e-06)
(-3.29649e-06 2.94717e-08 -1.62853e-07 7.89485e-07 -9.44383e-08 -3.39486e-06)
(-3.30226e-06 -1.10333e-07 1.65698e-07 8.45665e-07 -1.68935e-07 -3.56921e-06)
(6.20597e-07 -6.13351e-08 8.2987e-08 6.26828e-07 -1.70127e-07 -3.9783e-06)
(6.08454e-07 6.20072e-08 -8.43877e-08 6.26822e-07 -1.69499e-07 -3.96139e-06)
(-3.38351e-06 1.09596e-07 -1.65266e-07 8.46063e-07 -1.6708e-07 -3.51355e-06)
(-2.91019e-06 -1.5934e-07 1.593e-07 -3.20095e-06 -1.97193e-07 -3.20005e-06)
(1.03253e-06 -7.9771e-08 7.97121e-08 -3.58911e-06 -2.05159e-07 -3.58872e-06)
(1.01698e-06 8.09122e-08 -8.08783e-08 -3.57556e-06 -2.04485e-07 -3.57519e-06)
(-3.02172e-06 1.5902e-07 -1.58987e-07 -3.15237e-06 -1.95456e-07 -3.15151e-06)
(-3.34031e-06 1.06273e-08 7.53965e-08 7.56918e-07 -3.24079e-07 8.92063e-08)
(-6.77158e-08 -5.93672e-08 3.59115e-08 6.37886e-07 -3.95777e-07 -7.04761e-08)
(-7.38031e-08 6.27832e-08 -3.66335e-08 6.40734e-07 -3.96077e-07 -6.95841e-08)
(-3.40332e-06 -1.17235e-08 -7.47599e-08 7.69101e-07 -3.25857e-07 9.19356e-08)
(-3.33572e-06 -6.72107e-09 1.14751e-07 4.88005e-07 -2.04517e-07 1.60154e-07)
(-1.05116e-07 -1.34786e-08 6.17841e-08 5.61587e-07 -2.47559e-07 -5.60113e-08)
(-1.13114e-07 1.44635e-08 -6.30989e-08 5.62731e-07 -2.47856e-07 -5.41576e-08)
(-3.3978e-06 7.00668e-09 -1.13956e-07 4.88549e-07 -2.05884e-07 1.65691e-07)
(-3.36785e-06 2.49449e-09 1.14211e-07 5.25121e-07 -1.54889e-07 1.89207e-07)
(-1.25285e-07 6.77202e-10 6.23525e-08 5.6902e-07 -1.67928e-07 -2.33406e-08)
(-1.32988e-07 -1.07508e-10 -6.36864e-08 5.69328e-07 -1.67947e-07 -2.12304e-08)
(-3.42805e-06 -2.04621e-09 -1.13412e-07 5.25127e-07 -1.55086e-07 1.95349e-07)
(-3.41632e-06 9.70947e-09 1.1008e-07 5.75666e-07 -1.41885e-07 2.09048e-07)
(-1.51e-07 6.32564e-09 5.94826e-08 6.22114e-07 -1.3985e-07 -2.87008e-09)
(-1.58315e-07 -5.84526e-09 -6.05548e-08 6.22003e-07 -1.39537e-07 -8.40518e-10)
(-3.47368e-06 -9.32106e-09 -1.09195e-07 5.7537e-07 -1.4094e-07 2.14814e-07)
(-3.48327e-06 5.4013e-09 1.09672e-07 6.21376e-07 -1.60943e-07 2.37931e-07)
(-1.57509e-07 2.65113e-09 5.94388e-08 6.83036e-07 -1.5419e-07 1.9192e-08)
(-1.64478e-07 -2.40791e-09 -6.01282e-08 6.82598e-07 -1.53576e-07 2.10154e-08)
(-3.53679e-06 -5.16859e-09 -1.08636e-07 6.20504e-07 -1.59e-07 2.4295e-07)
(-3.5761e-06 -2.84997e-08 1.11313e-07 6.59115e-07 -2.05404e-07 3.11309e-07)
(-7.3479e-08 -2.04435e-08 6.11492e-08 6.64341e-07 -1.98842e-07 8.2721e-08)
(-8.03421e-08 2.03947e-08 -6.14292e-08 6.63809e-07 -1.97977e-07 8.42491e-08)
(-3.62549e-06 2.82529e-08 -1.10119e-07 6.57897e-07 -2.02619e-07 3.15357e-07)
(-3.68728e-06 -1.12082e-07 1.12084e-07 4.99465e-07 -2.36413e-07 5.02037e-07)
(2.01423e-07 -6.22745e-08 6.2126e-08 2.67592e-07 -2.3323e-07 2.69134e-07)
(1.93292e-07 6.23192e-08 -6.21746e-08 2.68607e-07 -2.32268e-07 2.70129e-07)
(-3.73789e-06 1.10869e-07 -1.10859e-07 5.02187e-07 -2.3329e-07 5.04685e-07)
(-3.30252e-06 -1.65722e-07 1.10305e-07 -3.57067e-06 -1.6881e-07 8.47602e-07)
(6.20309e-07 -8.3031e-08 6.11812e-08 -3.97907e-06 -1.70066e-07 6.27421e-07)
(6.08163e-07 8.44167e-08 -6.18998e-08 -3.96214e-06 -1.69436e-07 6.27386e-07)
(-3.38374e-06 1.65289e-07 -1.09574e-07 -3.51495e-06 -1.66948e-07 8.47921e-07)
(-3.1994e-06 7.68515e-08 1.64365e-08 8.3101e-07 -2.59597e-07 8.8792e-08)
(-2.22455e-07 -1.12535e-08 8.99579e-09 6.64171e-07 -3.3063e-07 8.67724e-08)
(-2.27577e-07 1.49108e-08 -9.47788e-09 6.67099e-07 -3.31114e-07 8.67279e-08)
(-3.26249e-06 -7.72893e-08 -1.64544e-08 8.42728e-07 -2.61488e-07 8.87883e-08)
(-3.25151e-06 8.39501e-09 3.25475e-08 5.55781e-07 -2.26739e-07 1.8263e-07)
(-3.87363e-07 -2.3051e-09 2.01004e-08 6.47289e-07 -2.63262e-07 1.85605e-07)
(-3.93782e-07 3.77298e-09 -2.09759e-08 6.48462e-07 -2.63573e-07 1.85886e-07)
(-3.31269e-06 -7.78263e-09 -3.25979e-08 5.56683e-07 -2.27908e-07 1.83759e-07)
(-3.29029e-06 6.30802e-10 3.42411e-08 5.54039e-07 -2.01553e-07 2.48974e-07)
(-4.28481e-07 -5.82359e-10 2.15137e-08 6.20828e-07 -2.12271e-07 2.57505e-07)
(-4.34569e-07 1.54846e-09 -2.23646e-08 6.21224e-07 -2.12273e-07 2.5798e-07)
(-3.34955e-06 -2.42273e-11 -3.42717e-08 5.5461e-07 -2.01695e-07 2.50676e-07)
(-3.33293e-06 6.74385e-09 3.18498e-08 5.57584e-07 -1.95073e-07 3.0813e-07)
(-4.45408e-07 4.36459e-09 1.99288e-08 6.1473e-07 -1.93156e-07 3.17572e-07)
(-4.51178e-07 -3.71406e-09 -2.05144e-08 6.1479e-07 -1.9281e-07 3.18003e-07)
(-3.38943e-06 -6.30558e-09 -3.17885e-08 5.57989e-07 -1.94135e-07 3.09675e-07)
(-3.39281e-06 4.08787e-09 3.00566e-08 5.43016e-07 -2.07583e-07 3.80919e-07)
(-4.43086e-07 2.34146e-09 1.9166e-08 6.07297e-07 -2.01506e-07 3.88186e-07)
(-4.48575e-07 -2.07915e-09 -1.93786e-08 6.07151e-07 -2.00838e-07 3.88408e-07)
(-3.4455e-06 -3.86536e-09 -2.98586e-08 5.43106e-07 -2.05641e-07 3.81825e-07)
(-3.47703e-06 -2.90157e-08 2.90863e-08 5.05641e-07 -2.22808e-07 4.95674e-07)
(-3.53511e-07 -1.9803e-08 1.94943e-08 5.10966e-07 -2.1636e-07 5.00247e-07)
(-3.58968e-07 1.97936e-08 -1.93779e-08 5.10888e-07 -2.15466e-07 5.00135e-07)
(-3.52552e-06 2.87539e-08 -2.87697e-08 5.05754e-07 -2.20087e-07 4.95602e-07)
(-3.57803e-06 -1.11369e-07 2.87796e-08 3.13144e-07 -2.01192e-07 6.62471e-07)
(-7.4901e-08 -6.1315e-08 2.0298e-08 8.50947e-08 -1.95308e-07 6.66132e-07)
(-8.17636e-08 6.16021e-08 -2.02205e-08 8.66453e-08 -1.94429e-07 6.65575e-07)
(-3.6274e-06 1.10191e-07 -2.85079e-08 3.17299e-07 -1.98335e-07 6.61153e-07)
(-3.21931e-06 -1.63275e-07 2.96131e-08 -3.45307e-06 -9.41172e-08 7.9557e-07)
(3.43415e-07 -8.15307e-08 1.98185e-08 -3.82746e-06 -8.88047e-08 7.98958e-07)
(3.32313e-07 8.31955e-08 -2.08677e-08 -3.80986e-06 -8.83783e-08 7.98001e-07)
(-3.29795e-06 1.62935e-07 -2.98887e-08 -3.39573e-06 -9.26804e-08 7.93158e-07)
(-3.11225e-06 9.53927e-08 -3.14196e-09 8.58426e-07 -2.16966e-07 4.88744e-08)
(-2.65222e-07 6.03257e-09 -3.17325e-09 6.71197e-07 -2.52636e-07 7.93141e-08)
(-2.70314e-07 -2.00818e-09 2.74468e-09 6.74084e-07 -2.53134e-07 7.93217e-08)
(-3.1794e-06 -9.56358e-08 2.91044e-09 8.69822e-07 -2.18547e-07 4.90734e-08)
(-3.18252e-06 1.46383e-08 -2.11083e-09 5.78682e-07 -2.11649e-07 1.41815e-07)
(-4.8152e-07 2.92782e-09 -3.01145e-09 6.75487e-07 -2.30247e-07 1.96881e-07)
(-4.87838e-07 -1.17118e-09 2.24787e-09 6.76734e-07 -2.30503e-07 1.9704e-07)
(-3.24767e-06 -1.38925e-08 1.73058e-09 5.79804e-07 -2.12473e-07 1.42591e-07)
(-3.22741e-06 5.06094e-10 -1.40653e-09 5.56988e-07 -2.03706e-07 2.28671e-07)
(-5.38036e-07 -6.61462e-10 -2.62806e-09 6.35165e-07 -2.09254e-07 2.91055e-07)
(-5.44025e-07 1.93713e-09 1.89385e-09 6.35753e-07 -2.09232e-07 2.91326e-07)
(-3.29064e-06 2.22617e-10 1.03684e-09 5.58182e-07 -2.03741e-07 2.298e-07)
(-3.26719e-06 4.92048e-09 -2.32492e-09 5.26732e-07 -2.01244e-07 3.14727e-07)
(-5.51539e-07 3.32684e-09 -3.13676e-09 5.91063e-07 -1.99383e-07 3.77819e-07)
(-5.57248e-07 -2.36406e-09 2.63313e-09 5.9139e-07 -1.99075e-07 3.78062e-07)
(-3.32775e-06 -4.36637e-09 2.04104e-09 5.27968e-07 -2.00453e-07 3.15787e-07)
(-3.3206e-06 2.43541e-09 -3.75877e-09 4.74186e-07 -2.01725e-07 4.10295e-07)
(-5.41036e-07 1.90518e-09 -3.69007e-09 5.41029e-07 -1.96854e-07 4.72125e-07)
(-5.46515e-07 -1.32898e-09 3.48993e-09 5.41212e-07 -1.96286e-07 4.72205e-07)
(-3.37742e-06 -2.09813e-09 3.58718e-09 4.75273e-07 -2.00139e-07 4.10897e-07)
(-3.39654e-06 -2.97302e-08 -4.90946e-09 4.14824e-07 -1.89819e-07 5.21407e-07)
(-4.4406e-07 -1.92371e-08 -3.71284e-09 4.22259e-07 -1.84395e-07 5.81679e-07)
(-4.49562e-07 1.95731e-08 3.7266e-09 4.22551e-07 -1.83663e-07 5.815e-07)
(-3.44923e-06 2.95961e-08 4.81354e-09 4.1606e-07 -1.87641e-07 5.21271e-07)
(-3.48963e-06 -1.09355e-07 -4.97706e-09 2.48977e-07 -1.42841e-07 6.27322e-07)
(-1.62135e-07 -5.92467e-08 -3.03047e-09 3.03607e-08 -1.37356e-07 6.86149e-07)
(-1.69104e-07 5.99089e-08 2.85698e-09 3.22135e-08 -1.36679e-07 6.85692e-07)
(-3.54309e-06 1.08326e-07 4.79473e-09 2.54138e-07 -1.40636e-07 6.26365e-07)
(-3.14395e-06 -1.58524e-07 -4.49654e-09 -3.36591e-06 -5.15922e-08 6.6453e-07)
(2.54103e-07 -7.84909e-08 -3.85691e-09 -3.71309e-06 -4.61371e-08 7.21978e-07)
(2.42852e-07 8.03852e-08 2.51909e-09 -3.69529e-06 -4.58381e-08 7.21403e-07)
(-3.22567e-06 1.58329e-07 3.80143e-09 -3.30767e-06 -5.05136e-08 6.63139e-07)
(-3.06553e-06 9.5504e-08 -4.96609e-09 8.61645e-07 -1.76084e-07 4.46417e-08)
(-2.65867e-07 6.95677e-09 -4.47079e-09 6.69241e-07 -1.87478e-07 6.37029e-08)
(-2.71054e-07 -2.61249e-09 4.09265e-09 6.72127e-07 -1.87886e-07 6.38199e-08)
(-3.13616e-06 -9.56543e-08 4.74852e-09 8.72958e-07 -1.77289e-07 4.50578e-08)
(-3.13786e-06 1.49123e-08 -8.12042e-09 5.78731e-07 -1.77701e-07 1.40845e-07)
(-4.88681e-07 3.25955e-09 -7.49529e-09 6.763e-07 -1.83228e-07 1.76909e-07)
(-4.95152e-07 -1.26592e-09 6.82075e-09 6.77608e-07 -1.8341e-07 1.77181e-07)
(-3.20658e-06 -1.4082e-08 7.75114e-09 5.79988e-07 -1.78248e-07 1.41741e-07)
(-3.18403e-06 2.76084e-10 -8.64887e-09 5.45323e-07 -1.76601e-07 2.37603e-07)
(-5.49254e-07 -7.58012e-10 -8.02158e-09 6.2744e-07 -1.77777e-07 2.79209e-07)
(-5.55418e-07 2.28782e-09 7.35969e-09 6.28184e-07 -1.77742e-07 2.79549e-07)
(-3.25088e-06 5.50047e-10 8.27847e-09 5.46968e-07 -1.76566e-07 2.38713e-07)
(-3.22187e-06 4.04353e-09 -9.07664e-09 4.97797e-07 -1.74179e-07 3.34551e-07)
(-5.61073e-07 2.97641e-09 -8.16861e-09 5.65415e-07 -1.72348e-07 3.76752e-07)
(-5.66985e-07 -1.71692e-09 7.67996e-09 5.65969e-07 -1.72106e-07 3.77063e-07)
(-3.28608e-06 -3.37607e-09 8.77139e-09 4.99698e-07 -1.73564e-07 3.356e-07)
(-3.27085e-06 1.41682e-09 -9.82392e-09 4.31908e-07 -1.66026e-07 4.32345e-07)
(-5.45371e-07 1.71593e-09 -8.34778e-09 5.00361e-07 -1.62664e-07 4.73365e-07)
(-5.51088e-07 -8.10342e-10 8.0766e-09 5.00814e-07 -1.62237e-07 4.73554e-07)
(-3.33138e-06 -9.54588e-10 9.59976e-09 4.33796e-07 -1.64849e-07 4.33068e-07)
(-3.34142e-06 -2.99722e-08 -1.04295e-08 3.75876e-07 -1.42414e-07 5.2458e-07)
(-4.43281e-07 -1.86869e-08 -8.28401e-09 3.8536e-07 -1.38754e-07 5.63911e-07)
(-4.4906e-07 1.93642e-08 8.13261e-09 3.8593e-07 -1.38219e-07 5.63918e-07)
(-3.39787e-06 2.99702e-08 1.02465e-08 3.77977e-07 -1.40826e-07 5.24787e-07)
(-3.43029e-06 -1.07497e-07 -1.02758e-08 2.33678e-07 -9.53743e-08 5.9029e-07)
(-1.59811e-07 -5.74242e-08 -7.80372e-09 2.24727e-08 -9.17357e-08 6.27986e-07)
(-1.67087e-07 5.83952e-08 7.42352e-09 2.45472e-08 -9.12569e-08 6.27833e-07)
(-3.48749e-06 1.06603e-07 9.99493e-09 2.39634e-07 -9.37968e-08 5.89984e-07)
(-3.0915e-06 -1.54887e-07 -1.01729e-08 -3.32037e-06 -3.10026e-08 6.00501e-07)
(2.54905e-07 -7.61185e-08 -8.62015e-09 -3.65017e-06 -2.74899e-08 6.38069e-07)
(2.43355e-07 7.81939e-08 7.23321e-09 -3.63231e-06 -2.72796e-08 6.37922e-07)
(-3.17635e-06 1.54822e-07 9.4593e-09 -3.26154e-06 -3.02216e-08 6.00087e-07)
(-3.03999e-06 9.22322e-08 -3.01047e-09 8.5455e-07 -1.2996e-07 4.77319e-08)
(-2.58875e-07 4.41291e-09 -2.64934e-09 6.62944e-07 -1.3142e-07 5.51386e-08)
(-2.64118e-07 1.44695e-10 2.36435e-09 6.65851e-07 -1.31707e-07 5.52921e-08)
(-3.11296e-06 -9.23175e-08 2.85749e-09 8.65872e-07 -1.30794e-07 4.82025e-08)
(-3.11024e-06 1.35632e-08 -5.60038e-09 5.70016e-07 -1.32583e-07 1.47753e-07)
(-4.75261e-07 2.18439e-09 -5.02949e-09 6.67326e-07 -1.32439e-07 1.61928e-07)
(-4.8183e-07 -1.04333e-11 4.51394e-09 6.68685e-07 -1.32557e-07 1.62249e-07)
(-3.18137e-06 -1.26686e-08 5.33453e-09 5.71387e-07 -1.3293e-07 1.48688e-07)
(-3.15516e-06 -2.26017e-10 -6.39298e-09 5.3074e-07 -1.33056e-07 2.48066e-07)
(-5.33778e-07 -1.03276e-09 -5.68575e-09 6.13531e-07 -1.32151e-07 2.6459e-07)
(-5.40061e-07 2.75752e-09 5.16651e-09 6.14382e-07 -1.32117e-07 2.64965e-07)
(-3.22447e-06 1.12614e-09 6.12042e-09 5.32687e-07 -1.32999e-07 2.49162e-07)
(-3.19123e-06 3.60933e-09 -6.71032e-09 4.7724e-07 -1.29927e-07 3.45928e-07)
(-5.43788e-07 2.90394e-09 -5.77822e-09 5.45788e-07 -1.28328e-07 3.62556e-07)
(-5.4984e-07 -1.41758e-09 5.36954e-09 5.465e-07 -1.28156e-07 3.62902e-07)
(-3.25793e-06 -2.8549e-09 6.47863e-09 4.79603e-07 -1.29487e-07 3.46962e-07)
(-3.23751e-06 9.84969e-10 -7.04088e-09 4.10594e-07 -1.19368e-07 4.37134e-07)
(-5.25264e-07 1.76412e-09 -5.77607e-09 4.79662e-07 -1.17319e-07 4.52765e-07)
(-5.31145e-07 -6.08613e-10 5.5026e-09 4.80305e-07 -1.17028e-07 4.53014e-07)
(-3.30056e-06 -4.27199e-10 6.85921e-09 4.13052e-07 -1.18562e-07 4.37914e-07)
(-3.30515e-06 -2.99214e-08 -7.25776e-09 3.62609e-07 -9.67372e-08 5.126e-07)
(-4.20622e-07 -1.8226e-08 -5.65325e-09 3.73199e-07 -9.46949e-08 5.26842e-07)
(-4.26591e-07 1.91511e-08 5.43356e-09 3.73969e-07 -9.43365e-08 5.26961e-07)
(-3.36415e-06 3.0016e-08 7.09285e-09 3.65333e-07 -9.56662e-08 5.13001e-07)
(-3.39208e-06 -1.06317e-07 -7.09391e-09 2.32766e-07 -6.10655e-08 5.58462e-07)
(-1.36764e-07 -5.63043e-08 -5.38791e-09 2.5542e-08 -5.91918e-08 5.7152e-07)
(-1.44246e-07 5.74853e-08 4.96174e-09 2.77857e-08 -5.88765e-08 5.71545e-07)
(-3.45182e-06 1.05517e-07 6.84192e-09 2.39325e-07 -6.00116e-08 5.58528e-07)
(-3.05679e-06 -1.52861e-07 -7.08927e-09 -3.29697e-06 -1.93008e-08 5.63108e-07)
(2.76964e-07 -7.48063e-08 -5.96456e-09 -3.61822e-06 -1.75785e-08 5.76529e-07)
(2.65225e-07 7.70104e-08 4.77829e-09 -3.60033e-06 -1.74385e-08 5.76621e-07)
(-3.14386e-06 1.52893e-07 6.51257e-09 -3.23774e-06 -1.87726e-08 5.63231e-07)
(-3.02649e-06 8.989e-08 -1.34783e-09 8.45978e-07 -7.95086e-08 5.06492e-08)
(-2.53811e-07 2.57954e-09 -1.1173e-09 6.56242e-07 -7.86443e-08 5.24879e-08)
(-2.59075e-07 2.10044e-09 9.44409e-10 6.59171e-07 -7.88118e-08 5.26413e-08)
(-3.10086e-06 -8.99327e-08 1.25949e-09 8.57327e-07 -7.99923e-08 5.11037e-08)
(-3.09479e-06 1.25099e-08 -2.6292e-09 5.60748e-07 -8.13519e-08 1.52946e-07)
(-4.64228e-07 1.35471e-09 -2.26889e-09 6.57854e-07 -8.00921e-08 1.55991e-07)
(-4.70837e-07 9.34296e-10 1.9502e-09 6.59249e-07 -8.01577e-08 1.5631e-07)
(-3.16736e-06 -1.15726e-08 2.47278e-09 5.6221e-07 -8.15422e-08 1.53846e-07)
(-3.13821e-06 -6.58665e-10 -3.14282e-09 5.19329e-07 -8.1739e-08 2.53537e-07)
(-5.19845e-07 -1.26793e-09 -2.66941e-09 6.01896e-07 -8.06052e-08 2.56719e-07)
(-5.26183e-07 3.12012e-09 2.33892e-09 6.02817e-07 -8.05805e-08 2.57089e-07)
(-3.20897e-06 1.60723e-09 2.97866e-09 5.2147e-07 -8.16893e-08 2.54579e-07)
(-3.1729e-06 3.37117e-09 -3.3583e-09 4.65098e-07 -7.9044e-08 3.48788e-07)
(-5.28186e-07 2.89896e-09 -2.7382e-09 5.33648e-07 -7.79603e-08 3.51539e-07)
(-5.34306e-07 -1.26752e-09 2.4622e-09 5.34459e-07 -7.78565e-08 3.51881e-07)
(-3.24106e-06 -2.5613e-09 3.2136e-09 4.67749e-07 -7.87737e-08 3.49767e-07)
(-3.21764e-06 8.31894e-10 -3.50143e-09 4.01125e-07 -7.09817e-08 4.33005e-07)
(-5.08179e-07 1.86761e-09 -2.70818e-09 4.70251e-07 -6.99052e-08 4.34938e-07)
(-5.14143e-07 -5.56565e-10 2.49824e-09 4.71015e-07 -6.97344e-08 4.35198e-07)
(-3.28217e-06 -2.148e-10 3.38045e-09 4.03944e-07 -7.05039e-08 4.33764e-07)
(-3.28384e-06 -2.98207e-08 -3.56378e-09 3.59056e-07 -5.5835e-08 4.98034e-07)
(-4.02471e-07 -1.79317e-08 -2.61904e-09 3.70013e-07 -5.48856e-08 4.99026e-07)
(-4.08539e-07 1.90061e-08 2.42242e-09 3.70912e-07 -5.46783e-08 4.99183e-07)
(-3.34435e-06 2.99732e-08 3.445e-09 3.62183e-07 -5.52088e-08 4.98481e-07)
(-3.36995e-06 -1.05718e-07 -3.46854e-09 2.34735e-07 -3.44073e-08 5.35164e-07)
(-1.18661e-07 -5.57555e-08 -2.50883e-09 2.91393e-08 -3.36388e-08 5.35487e-07)
(-1.26252e-07 5.70591e-08 2.16663e-09 3.14982e-08 -3.3458e-08 5.35585e-07)
(-3.4312e-06 1.04973e-07 3.28844e-09 2.41697e-07 -3.37948e-08 5.35363e-07)
(-3.03641e-06 -1.51938e-07 -3.46011e-09 -3.2847e-06 -1.08115e-08 5.39151e-07)
(2.94393e-07 -7.42255e-08 -2.82204e-09 -3.60266e-06 -1.01463e-08 5.39875e-07)
(2.82559e-07 7.65093e-08 2.00456e-09 -3.58474e-06 -1.00652e-08 5.40068e-07)
(-3.12485e-06 1.5203e-07 3.07707e-09 -3.22521e-06 -1.05023e-08 5.39484e-07)
(-3.02065e-06 8.88641e-08 -3.65016e-10 8.40705e-07 -2.67373e-08 5.21574e-08)
(-2.51561e-07 1.81551e-09 -2.84333e-10 6.52114e-07 -2.62589e-08 5.21813e-08)
(-2.56833e-07 2.91731e-09 2.26652e-10 6.55056e-07 -2.63136e-08 5.23287e-08)
(-3.09567e-06 -8.88872e-08 3.36118e-10 8.52076e-07 -2.68947e-08 5.25899e-08)
(-3.08801e-06 1.20454e-08 -7.1817e-10 5.55233e-07 -2.73667e-08 1.55372e-07)
(-4.59133e-07 1.00276e-09 -5.96045e-10 6.52281e-07 -2.68095e-08 1.54677e-07)
(-4.65756e-07 1.33892e-09 4.8799e-10 6.53698e-07 -2.68302e-08 1.54985e-07)
(-3.16124e-06 -1.10879e-08 6.66255e-10 5.56748e-07 -2.74263e-08 1.56232e-07)
(-3.13059e-06 -8.73816e-10 -8.8003e-10 5.13329e-07 -2.74761e-08 2.55439e-07)
(-5.13123e-07 -1.37823e-09 -7.18263e-10 5.95675e-07 -2.70191e-08 2.53974e-07)
(-5.19481e-07 3.29024e-09 6.03445e-10 5.9663e-07 -2.70098e-08 2.54332e-07)
(-3.20202e-06 1.84514e-09 8.2442e-10 5.15569e-07 -2.74556e-08 2.56432e-07)
(-3.16454e-06 3.2598e-09 -9.55444e-10 4.59616e-07 -2.6424e-08 3.4854e-07)
(-5.20509e-07 2.9013e-09 -7.43709e-10 5.28027e-07 -2.60431e-08 3.46358e-07)
(-5.26656e-07 -1.20243e-09 6.43466e-10 5.28886e-07 -2.60079e-08 3.4669e-07)
(-3.23338e-06 -2.42432e-09 9.04775e-10 4.62408e-07 -2.63308e-08 3.49469e-07)
(-3.20858e-06 7.81535e-10 -9.97883e-10 3.97629e-07 -2.34789e-08 4.28808e-07)
(-4.99838e-07 1.92874e-09 -7.32674e-10 4.66677e-07 -2.31444e-08 4.25894e-07)
(-5.05836e-07 -5.46807e-10 6.50156e-10 4.675e-07 -2.30876e-08 4.2615e-07)
(-3.27379e-06 -1.37632e-10 9.53275e-10 4.00623e-07 -2.33182e-08 4.29528e-07)
(-3.2742e-06 -2.97646e-08 -1.01137e-09 3.58403e-07 -1.82456e-08 4.89094e-07)
(-3.93753e-07 -1.78001e-08 -7.03908e-10 3.69415e-07 -1.79762e-08 4.85508e-07)
(-3.99862e-07 1.89408e-08 6.20906e-10 3.70378e-07 -1.79077e-08 4.85671e-07)
(-3.33539e-06 2.99426e-08 9.65391e-10 3.61728e-07 -1.80368e-08 4.89525e-07)
(-3.36002e-06 -1.05481e-07 -9.82771e-10 2.36197e-07 -1.11572e-08 5.2294e-07)
(-1.10038e-07 -5.55485e-08 -6.77568e-10 3.10962e-08 -1.09624e-08 5.18973e-07)
(-1.17675e-07 5.69053e-08 5.40732e-10 3.35138e-08 -1.09028e-08 5.19091e-07)
(-3.42197e-06 1.04761e-07 9.14081e-10 2.43363e-07 -1.09537e-08 5.23155e-07)
(-3.02724e-06 -1.51605e-07 -9.75916e-10 -3.27922e-06 -3.50001e-09 5.26995e-07)
(3.02649e-07 -7.4025e-08 -7.74559e-10 -3.59622e-06 -3.34031e-09 5.23379e-07)
(2.90776e-07 7.63456e-08 4.74118e-10 -3.57829e-06 -3.31345e-09 5.23605e-07)
(-3.1163e-06 1.51726e-07 8.37286e-10 -3.21959e-06 -3.3969e-09 5.27375e-07)
)
;

boundaryField
{
    interface
    {
        type            calculated;
        value           nonuniform List<symmTensor> 
192
(
(-6.24468e-06 2.67022e-12 4.39884e-11 5.68733e-07 -1.73406e-07 -3.30682e-06)
(-6.19888e-06 2.244e-12 5.13656e-11 3.66893e-07 -8.83873e-08 -3.26723e-06)
(-6.26155e-06 1.44889e-12 5.13272e-11 4.86539e-07 -5.6381e-08 -3.29219e-06)
(-6.33024e-06 5.73229e-13 5.02724e-11 5.71399e-07 -4.84109e-08 -3.32038e-06)
(-6.43713e-06 -1.17738e-12 4.84214e-11 6.54405e-07 -5.83715e-08 -3.36604e-06)
(-6.6509e-06 -4.97788e-12 4.56663e-11 7.91762e-07 -9.58417e-08 -3.45211e-06)
(-7.05345e-06 -8.23508e-12 4.08701e-11 8.45665e-07 -1.68935e-07 -3.56921e-06)
(-6.75443e-06 -2.56806e-11 3.58453e-11 -3.20095e-06 -1.97193e-07 -3.20005e-06)
(-6.46478e-06 2.89872e-12 2.38685e-11 7.56918e-07 -3.24079e-07 8.92063e-08)
(-6.39611e-06 2.05559e-12 2.83392e-11 4.88005e-07 -2.04517e-07 1.60154e-07)
(-6.44466e-06 8.55707e-13 2.82807e-11 5.25121e-07 -1.54889e-07 1.89207e-07)
(-6.51625e-06 -5.13152e-13 2.75511e-11 5.75666e-07 -1.41885e-07 2.09048e-07)
(-6.63523e-06 -2.83671e-12 2.62689e-11 6.21376e-07 -1.60943e-07 2.37931e-07)
(-6.87249e-06 -7.50536e-12 2.43833e-11 6.59115e-07 -2.05404e-07 3.11309e-07)
(-7.32575e-06 -1.12273e-11 2.14656e-11 4.99465e-07 -2.36413e-07 5.02037e-07)
(-7.05366e-06 -3.06559e-11 1.85093e-11 -3.57067e-06 -1.6881e-07 8.47602e-07)
(-6.0421e-06 3.34229e-12 1.92223e-11 8.3101e-07 -2.59597e-07 8.8792e-08)
(-5.98006e-06 2.12656e-12 2.27227e-11 5.55781e-07 -2.26739e-07 1.8263e-07)
(-6.02783e-06 4.42378e-13 2.2724e-11 5.54039e-07 -2.01553e-07 2.48974e-07)
(-6.09633e-06 -1.39898e-12 2.2205e-11 5.57584e-07 -1.95073e-07 3.0813e-07)
(-6.20947e-06 -4.28056e-12 2.12365e-11 5.43016e-07 -2.07583e-07 3.80919e-07)
(-6.43617e-06 -9.71299e-12 1.97677e-11 5.05641e-07 -2.22808e-07 4.95674e-07)
(-6.87474e-06 -1.41092e-11 1.75763e-11 3.13144e-07 -2.01192e-07 6.62471e-07)
(-6.65215e-06 -3.53532e-11 1.51368e-11 -3.45307e-06 -9.41172e-08 7.9557e-07)
(-5.83788e-06 3.54482e-12 1.32912e-11 8.58426e-07 -2.16966e-07 4.88744e-08)
(-5.77347e-06 2.12101e-12 1.57855e-11 5.78682e-07 -2.11649e-07 1.41815e-07)
(-5.82177e-06 1.53085e-13 1.58001e-11 5.56988e-07 -2.03706e-07 2.28671e-07)
(-5.88805e-06 -2.00022e-12 1.54659e-11 5.26732e-07 -2.01244e-07 3.14727e-07)
(-5.99622e-06 -5.26481e-12 1.48203e-11 4.74186e-07 -2.01725e-07 4.10295e-07)
(-6.2148e-06 -1.11658e-11 1.38316e-11 4.14824e-07 -1.89819e-07 5.21407e-07)
(-6.6426e-06 -1.59268e-11 1.24118e-11 2.48977e-07 -1.42841e-07 6.27322e-07)
(-6.44163e-06 -3.79879e-11 1.08528e-11 -3.36591e-06 -5.15922e-08 6.6453e-07)
(-5.74581e-06 3.72595e-12 9.51756e-12 8.61645e-07 -1.76084e-07 4.46417e-08)
(-5.68147e-06 2.15492e-12 1.13312e-11 5.78731e-07 -1.77701e-07 1.40845e-07)
(-5.72929e-06 -1.64041e-14 1.13758e-11 5.45323e-07 -1.76601e-07 2.37603e-07)
(-5.79346e-06 -2.38353e-12 1.1185e-11 4.97797e-07 -1.74179e-07 3.34551e-07)
(-5.89795e-06 -5.91526e-12 1.07838e-11 4.31908e-07 -1.66026e-07 4.32345e-07)
(-6.11142e-06 -1.21314e-11 1.01495e-11 3.75876e-07 -1.42414e-07 5.2458e-07)
(-6.5333e-06 -1.71536e-11 9.2397e-12 2.33678e-07 -9.53743e-08 5.9029e-07)
(-6.34297e-06 -3.97403e-11 8.21881e-12 -3.32037e-06 -3.10026e-08 6.00501e-07)
(-5.70076e-06 3.87703e-12 6.38268e-12 8.5455e-07 -1.2996e-07 4.77319e-08)
(-5.63739e-06 2.20875e-12 7.62997e-12 5.70016e-07 -1.32583e-07 1.47753e-07)
(-5.68443e-06 -9.48405e-14 7.69531e-12 5.3074e-07 -1.33056e-07 2.48066e-07)
(-5.74685e-06 -2.59804e-12 7.6133e-12 4.7724e-07 -1.29927e-07 3.45928e-07)
(-5.84883e-06 -6.30378e-12 7.40112e-12 4.10594e-07 -1.19368e-07 4.37134e-07)
(-6.05931e-06 -1.27209e-11 7.04215e-12 3.62609e-07 -9.67372e-08 5.126e-07)
(-6.47819e-06 -1.79104e-11 6.51869e-12 2.32766e-07 -6.10655e-08 5.58462e-07)
(-6.29293e-06 -4.08234e-11 5.92497e-12 -3.29697e-06 -1.93008e-08 5.63108e-07)
(-5.6781e-06 4.00451e-12 3.68228e-12 8.45978e-07 -7.95086e-08 5.06492e-08)
(-5.61543e-06 2.27828e-12 4.42959e-12 5.60748e-07 -8.13519e-08 1.52946e-07)
(-5.66181e-06 -1.0239e-13 4.50116e-12 5.19329e-07 -8.1739e-08 2.53537e-07)
(-5.72303e-06 -2.68261e-12 4.49433e-12 4.65098e-07 -7.9044e-08 3.48788e-07)
(-5.82349e-06 -6.48998e-12 4.42052e-12 4.01125e-07 -7.09817e-08 4.33005e-07)
(-6.03236e-06 -1.30226e-11 4.26562e-12 3.59056e-07 -5.5835e-08 4.98034e-07)
(-6.44982e-06 -1.83085e-11 4.0324e-12 2.34735e-07 -3.44073e-08 5.35164e-07)
(-6.26693e-06 -4.14124e-11 3.7486e-12 -3.2847e-06 -1.08115e-08 5.39151e-07)
(-5.66844e-06 4.09112e-12 1.21056e-12 8.40705e-07 -2.67373e-08 5.21574e-08)
(-5.60608e-06 2.34134e-12 1.46521e-12 5.55233e-07 -2.73667e-08 1.55372e-07)
(-5.65207e-06 -7.04957e-14 1.49943e-12 5.13329e-07 -2.74761e-08 2.55439e-07)
(-5.7127e-06 -2.68182e-12 1.50944e-12 4.59616e-07 -2.6424e-08 3.4854e-07)
(-5.81246e-06 -6.53494e-12 1.49982e-12 3.97629e-07 -2.34789e-08 4.28808e-07)
(-6.02065e-06 -1.31143e-11 1.46353e-12 3.58403e-07 -1.82456e-08 4.89094e-07)
(-6.43755e-06 -1.84501e-11 1.40785e-12 2.36197e-07 -1.11572e-08 5.2294e-07)
(-6.2556e-06 -4.16387e-11 1.32755e-12 -3.27922e-06 -3.50001e-09 5.26995e-07)
(-3.05243e-06 -1.02116e-07 -7.4096e-11 5.68733e-07 3.62844e-13 -6.66889e-06)
(-2.98475e-06 -2.1307e-08 -8.67388e-11 3.66893e-07 -6.74831e-13 -6.63587e-06)
(-3.02361e-06 6.46545e-09 -8.7003e-11 4.86539e-07 -1.03971e-12 -6.69113e-06)
(-3.07613e-06 1.27202e-08 -8.61147e-11 5.71399e-07 -1.47917e-12 -6.74604e-06)
(-3.13835e-06 5.92806e-09 -8.46038e-11 6.54405e-07 -1.93806e-12 -6.84036e-06)
(-3.21779e-06 -2.92203e-08 -8.25288e-11 7.91762e-07 -2.4912e-12 -7.04978e-06)
(-3.30226e-06 -1.10333e-07 -7.95165e-11 8.45665e-07 -2.75111e-12 -7.46426e-06)
(-2.91019e-06 -1.5934e-07 -7.71772e-11 -3.20095e-06 -3.33344e-12 -7.21021e-06)
(2.0779e-07 -9.87071e-08 -6.31329e-11 5.36898e-07 2.20571e-13 -6.90636e-06)
(3.19865e-07 -2.03498e-08 -7.48702e-11 3.89752e-07 -1.78983e-13 -6.90679e-06)
(3.09791e-07 2.6845e-09 -7.51043e-11 5.00578e-07 -3.09736e-13 -6.96734e-06)
(2.73012e-07 8.94188e-09 -7.44163e-11 6.10662e-07 -4.06367e-13 -7.03481e-06)
(2.61034e-07 4.20755e-09 -7.33635e-11 7.14928e-07 -5.00696e-13 -7.15219e-06)
(3.45231e-07 -1.98325e-08 -7.20262e-11 7.97611e-07 -6.26968e-13 -7.39974e-06)
(6.20597e-07 -6.13351e-08 -7.03396e-11 6.26828e-07 -7.22815e-13 -7.87387e-06)
(1.03253e-06 -7.9771e-08 -6.92196e-11 -3.58911e-06 -8.3596e-13 -7.60275e-06)
(1.98584e-07 1.01158e-07 -6.40232e-11 5.38796e-07 -7.06554e-13 -6.87819e-06)
(3.07457e-07 1.99585e-08 -7.58694e-11 3.91357e-07 -1.78077e-13 -6.87576e-06)
(2.97672e-07 -2.62755e-09 -7.61471e-11 5.01303e-07 2.87152e-13 -6.93551e-06)
(2.61361e-07 -8.12136e-09 -7.54389e-11 6.10747e-07 6.19183e-13 -7.00267e-06)
(2.49764e-07 -3.10547e-09 -7.43309e-11 7.14456e-07 9.3347e-13 -7.11992e-06)
(3.34126e-07 2.07861e-08 -7.28851e-11 7.96711e-07 1.24439e-12 -7.36761e-06)
(6.08454e-07 6.20072e-08 -7.10606e-11 6.26822e-07 1.54779e-12 -7.84251e-06)
(1.01698e-06 8.09122e-08 -6.96197e-11 -3.57556e-06 1.68177e-12 -7.57668e-06)
(-3.14022e-06 9.88774e-08 -7.38083e-11 5.79507e-07 -1.5335e-12 -6.57167e-06)
(-3.0743e-06 2.07188e-08 -8.68756e-11 3.68078e-07 -1.55888e-13 -6.52968e-06)
(-3.11147e-06 -6.21815e-09 -8.71333e-11 4.87144e-07 8.09105e-13 -6.58359e-06)
(-3.1613e-06 -1.21562e-08 -8.62027e-11 5.71304e-07 1.51031e-12 -6.63832e-06)
(-3.22019e-06 -5.30169e-09 -8.46519e-11 6.53219e-07 2.16169e-12 -6.73291e-06)
(-3.29649e-06 2.94717e-08 -8.24944e-11 7.89485e-07 2.8194e-12 -6.94319e-06)
(-3.38351e-06 1.09596e-07 -7.94042e-11 8.46063e-07 3.34814e-12 -7.35953e-06)
(-3.02172e-06 1.5902e-07 -7.68569e-11 -3.15237e-06 3.90526e-12 -7.1166e-06)
(-6.40183e-06 3.5556e-12 4.61698e-11 5.79507e-07 -1.75895e-07 -3.25546e-06)
(-6.35317e-06 2.67614e-12 5.42044e-11 3.68078e-07 -8.94472e-08 -3.20938e-06)
(-6.41303e-06 1.19206e-12 5.40885e-11 4.87144e-07 -5.64496e-08 -3.23341e-06)
(-6.47727e-06 -1.76729e-14 5.29952e-11 5.71304e-07 -4.78794e-08 -3.26176e-06)
(-6.57827e-06 -2.09497e-12 5.11509e-11 6.53219e-07 -5.73933e-08 -3.30793e-06)
(-6.78608e-06 -6.05062e-12 4.84236e-11 7.89485e-07 -9.44383e-08 -3.39486e-06)
(-7.19164e-06 -9.18912e-12 4.3754e-11 8.46063e-07 -1.6708e-07 -3.51355e-06)
(-6.94638e-06 -2.92712e-11 3.95115e-11 -3.15237e-06 -1.95456e-07 -3.15151e-06)
(-6.57864e-06 2.98651e-12 2.25643e-11 7.69101e-07 -3.25857e-07 9.19356e-08)
(-6.50428e-06 1.97535e-12 2.73112e-11 4.88549e-07 -2.05884e-07 1.65691e-07)
(-6.54966e-06 5.14762e-13 2.71713e-11 5.25127e-07 -1.55086e-07 1.95349e-07)
(-6.61634e-06 -1.01068e-12 2.64717e-11 5.7537e-07 -1.4094e-07 2.14814e-07)
(-6.72833e-06 -3.5132e-12 2.53348e-11 6.20504e-07 -1.59e-07 2.4295e-07)
(-6.95755e-06 -8.12698e-12 2.36983e-11 6.57897e-07 -2.02619e-07 3.15357e-07)
(-7.41071e-06 -1.09341e-11 2.12475e-11 5.02187e-07 -2.3329e-07 5.04685e-07)
(-7.19182e-06 -3.34642e-11 1.95412e-11 -3.51495e-06 -1.66948e-07 8.47921e-07)
(-6.15803e-06 3.25007e-12 1.9223e-11 8.42728e-07 -2.61488e-07 8.87883e-08)
(-6.08959e-06 1.91211e-12 2.30116e-11 5.56683e-07 -2.27908e-07 1.83759e-07)
(-6.13417e-06 8.11458e-14 2.29956e-11 5.5461e-07 -2.01695e-07 2.50676e-07)
(-6.1978e-06 -1.8419e-12 2.2493e-11 5.57989e-07 -1.94135e-07 3.09675e-07)
(-6.30388e-06 -4.84076e-12 2.15946e-11 5.43106e-07 -2.05641e-07 3.81825e-07)
(-6.52224e-06 -1.00974e-11 2.02254e-11 5.05754e-07 -2.20087e-07 4.95602e-07)
(-6.95975e-06 -1.33463e-11 1.82752e-11 3.17299e-07 -1.98335e-07 6.61153e-07)
(-6.78724e-06 -3.80305e-11 1.62955e-11 -3.39573e-06 -9.26804e-08 7.93158e-07)
(-5.96201e-06 3.44774e-12 1.36291e-11 8.69822e-07 -2.18547e-07 4.90734e-08)
(-5.89112e-06 1.88503e-12 1.63781e-11 5.79804e-07 -2.12473e-07 1.42591e-07)