/*--------------------------------*- C++ -*----------------------------------*\
| =========                 |                                                 |
| \\      /  F ield         | OpenFOAM: The Open Source CFD Toolbox           |
|  \\    /   O peration     | Version:  v1912                                 |
|   \\  /    A nd           | Website:  www.openfoam.com                      |
|    \\/     M anipulation  |                                                 |
\*---------------------------------------------------------------------------*/
FoamFile
{
    version     2.0;
    format      ascii;
    class       volVectorField;
    location    "0.07/solid";
    object      heatFlux;
}
// * * * * * * * * * * * * * * * * * * * * * * * * * * * * * * * * * * * * * //

dimensions      [1 0 -3 0 0 0 0];


internalField   nonuniform List<vector> 
256
(
(-143953 21433.6 -151059)
(-5281.08 10713.1 -136438)
(5480.18 10706.7 -135899)
(146572 21844.2 -149249)
(-143947 353.226 -151079)
(-5445.82 181.852 -136587)
(5650.94 181.462 -136018)
(146528 358.403 -149166)
(-144405 31.0959 -151505)
(-5452.85 13.5661 -136956)
(5656.73 13.3923 -136375)
(146923 28.4958 -149555)
(-145335 60.1603 -152361)
(-5463.52 26.7307 -137724)
(5665.87 26.6602 -137138)
(147766 56.6424 -150391)
(-147232 140.898 -154137)
(-5486.35 67.161 -139381)
(5686.64 67.195 -138794)
(149554 136.319 -152157)
(-151215 440.319 -157960)
(-5537.23 269.136 -143122)
(5735.03 269.37 -142541)
(153429 436.617 -155986)
(-159907 6742.85 -166603)
(-5657.3 6224.39 -152055)
(5854.12 6218.33 -151491)
(162176 6727.23 -164672)
(-175006 182502 -182502)
(-6061.75 169851 -169850)
(6237.87 169321 -169320)
(178076 180680 -180680)
(-126301 10078.8 -5811.66)
(-4784.81 342.262 -5187.19)
(5012.1 350.666 -5179.93)
(128392 10533 -5786.82)
(-126474 172.831 -5992.44)
(-4943.37 8.03009 -5359.59)
(5178.68 8.21862 -5351.86)
(128517 179.875 -5966.05)
(-126903 15.645 -5998.84)
(-4949.42 0.323354 -5365.1)
(5183.95 0.303162 -5357.25)
(128878 13.4813 -5972.12)
(-127786 30.9357 -6007.99)
(-4958.71 0.515478 -5372.98)
(5191.84 0.478394 -5365.09)
(129662 27.3322 -5981.19)
(-129638 74.6471 -6027.85)
(-4979.88 2.37485 -5391.54)
(5210.77 2.31421 -5383.66)
(131378 69.139 -6001.28)
(-133667 279.204 -6073.22)
(-5031.04 95.2268 -5438.36)
(5258.6 95.0769 -5430.57)
(135250 272.752 -6047.56)
(-142824 6187.14 -6187.13)
(-5164 5568.37 -5568.37)
(5388.29 5560.88 -5560.88)
(144384 6163.88 -6163.89)
(-159907 166603 -6742.84)
(-5657.3 152055 -6224.39)
(5854.11 151491 -6218.33)
(162175 164672 -6727.25)
(-116824 9629.52 -275.659)
(-4649.36 166.271 -87.4956)
(4880.55 174.917 -87.337)
(118986 10091.3 -268.371)
(-116998 166.041 -283.403)
(-4805.24 3.94304 -91.5719)
(5044.48 4.1387 -91.4057)
(119104 173.108 -276.016)
(-117424 15.5417 -283.455)
(-4811.26 0.173445 -91.6577)
(5049.71 0.154297 -91.4909)
(119460 13.3542 -276.092)
(-118311 31.1553 -283.256)
(-4820.63 0.291086 -91.7214)
(5057.67 0.253558 -91.5546)
(120247 27.4825 -275.932)
(-120189 75.6693 -282.639)
(-4842.16 1.77938 -91.878)
(5076.91 1.7156 -91.7123)
(121984 69.9486 -275.411)
(-124302 281.033 -281.02)
(-4894.58 92.313 -92.3129)
(5125.83 92.1504 -92.1506)
(125929 274.004 -274.015)
(-133668 6073.23 -279.191)
(-5031.04 5438.37 -95.2267)
(5258.6 5430.57 -95.0771)
(135250 6047.55 -272.763)
(-151216 157962 -440.285)
(-5537.24 143123 -269.124)
(5735.01 142541 -269.367)
(153428 155986 -436.637)
(-112596 9519.78 -76.5339)
(-4596.48 163.195 -1.70948)
(4831.23 171.923 -1.6451)
(114933 9988.66 -70.714)
(-112771 165.036 -77.9914)
(-4751.37 3.86795 -1.79065)
(4994.24 4.06476 -1.7241)
(115049 172.154 -72.0528)
(-113203 15.792 -77.8628)
(-4757.45 0.173921 -1.79109)
(4999.51 0.154309 -1.72488)
(115410 13.5653 -71.9527)
(-114106 31.7509 -77.5265)
(-4767.01 0.295256 -1.78831)
(5007.63 0.256951 -1.72275)
(116211 28.013 -71.6697)
(-116016 76.8828 -76.8497)
(-4788.95 1.7833 -1.78295)
(5027.23 1.71825 -1.71831)
(117979 71.0556 -71.0708)
(-120190 282.652 -75.6357)
(-4842.17 91.8781 -1.77912)
(5076.9 91.7121 -1.71575)
(121983 275.4 -69.9635)
(-129640 6027.88 -74.6127)
(-4979.89 5391.56 -2.37455)
(5210.75 5383.66 -2.31446)
(131377 6001.26 -69.1542)
(-147234 154140 -140.815)
(-5486.38 139383 -67.1308)
(5686.6 138795 -67.1844)
(149552 152156 -136.351)
(-110645 9474.99 -31.8774)
(-4574.47 162.771 -0.291406)
(4811.55 171.548 -0.253553)
(113124 9948.54 -28.1834)
(-110820 164.712 -32.4245)
(-4728.97 3.86143 -0.300789)
(4974.22 4.05892 -0.261585)
(113241 171.869 -28.6436)
(-111259 16.0066 -32.3126)
(-4735.12 0.175784 -0.299914)
(4979.55 0.155652 -0.261032)
(113608 13.7373 -28.5574)
(-112175 32.1685 -32.0684)
(-4744.82 0.299226 -0.297619)
(4987.78 0.260128 -0.259359)
(114421 28.3644 -28.3659)
(-114109 77.5601 -31.6486)
(-4767.03 1.78857 -0.293653)
(5007.62 1.7226 -0.256191)
(116210 71.6548 -28.0135)
(-118316 283.27 -31.0499)
(-4820.66 91.7214 -0.289628)
(5057.65 91.5543 -0.252931)
(120245 275.921 -27.4802)
(-127791 6008.05 -30.8262)
(-4958.75 5373.02 -0.513109)
(5191.82 5365.11 -0.477232)
(129660 5981.16 -27.3262)
(-145340 152367 -59.9054)
(-5463.61 137728 -26.6263)
(5665.79 137140 -26.6071)
(147763 150390 -56.6508)
(-109721 9455.47 -13.9396)
(-4564.86 162.603 -0.117804)
(4803.34 171.408 -0.0965108)
(112296 9931.83 -11.7712)
(-109898 164.601 -14.1626)
(-4719.21 3.85944 -0.121157)
(4965.89 4.05728 -0.0990897)
(112416 171.78 -11.9409)
(-110341 16.1481 -14.0885)
(-4725.4 0.17709 -0.120467)
(4971.26 0.156535 -0.0986403)
(112787 13.843 -11.8865)
(-111266 32.4149 -13.9404)
(-4735.2 0.301518 -0.119092)
(4979.56 0.261792 -0.0977342)
(113607 28.5568 -11.7793)
(-113213 77.9014 -13.7114)
(-4757.56 1.79129 -0.116983)
(4999.51 1.72468 -0.096197)
(115409 71.9413 -11.5998)
(-117436 283.475 -13.4374)
(-4811.37 91.6586 -0.115088)
(5049.71 91.4911 -0.0947491)
(119458 276.087 -11.365)
(-126915 5999.02 -13.4466)
(-4949.54 5365.22 -0.205662)
(5183.94 5357.31 -0.185358)
(128875 5972.09 -11.385)
(-144418 151522 -26.564)
(-5453.09 136967 -11.2431)
(5656.57 136380 -11.2172)
(146919 149552 -24.5035)
(-109290 9446.89 -5.89235)
(-4560.63 162.532 -0.0481414)
(4799.89 171.352 -0.0372806)
(111923 9924.83 -4.75932)
(-109467 164.563 -5.98063)
(-4714.91 3.85877 -0.0494067)
(4962.4 4.05679 -0.0381487)
(112043 171.754 -4.81939)
(-109913 16.2287 -5.94051)
(-4721.13 0.17785 -0.0490131)
(4967.79 0.157008 -0.037901)
(112417 13.8989 -4.79148)
(-110843 32.5456 -5.86417)
(-4730.98 0.30271 -0.0483115)
(4976.12 0.262571 -0.0374819)
(113241 28.6511 -4.7402)
(-112797 78.063 -5.754)
(-4753.42 1.79257 -0.0473177)
(4996.14 1.72558 -0.0368221)
(115049 72.0691 -4.65951)
(-117027 283.535 -5.63834)
(-4807.32 91.6327 -0.0465171)
(5046.4 91.4651 -0.0362474)
(119105 276.135 -4.56409)
(-126505 5994.93 -5.67984)
(-4945.49 5361.89 -0.0826313)
(5180.64 5353.98 -0.0722414)
(128520 5968.02 -4.5994)
(-143977 151124 -11.321)
(-5448.26 136618 -4.62251)
(5652.53 136032 -4.60636)
(146528 149160 -10.1974)
(-109118 9443.6 -1.63197)
(-4559 162.505 -0.013093)
(4798.63 171.332 -0.00974763)
(111778 9922.25 -1.27944)
(-109295 164.553 -1.65489)
(-4713.26 3.85857 -0.0134138)
(4961.12 4.05666 -0.00994501)
(111899 171.748 -1.29347)
(-109743 16.2645 -1.6424)
(-4719.5 0.178186 -0.0132907)
(4966.52 0.157201 -0.00987017)
(112274 13.9222 -1.28507)
(-110675 32.6014 -1.61908)
(-4729.37 0.303213 -0.0130781)
(4974.87 0.262871 -0.00975138)
(113100 28.6888 -1.27015)
(-112632 78.1272 -1.58658)
(-4751.84 1.79308 -0.0127879)
(4994.9 1.72592 -0.0095703)
(114910 72.1175 -1.24737)
(-116865 283.549 -1.55491)
(-4805.77 91.6233 -0.0125694)
(5045.19 91.4557 -0.00941838)
(118969 276.147 -1.2218)
(-126342 5993.34 -1.57225)
(-4943.93 5360.64 -0.0222108)
(5179.42 5352.74 -0.0190047)
(128382 5966.45 -1.23529)
(-143799 150965 -3.14453)
(-5446.37 136482 -1.25771)
(5651 135896 -1.25256)
(146374 149005 -2.78791)
)
;

boundaryField
{
    interface
    {
        type            calculated;
        value           nonuniform List<vector> 
192
(
(-277350 21433.6 -151059)
(-277009 353.226 -151079)
(-277911 31.0959 -151505)
(-279749 60.1603 -152361)
(-283498 140.898 -154137)
(-291362 440.319 -157960)
(-308506 6742.85 -166603)
(-337909 182502 -182502)
(-243024 10078.8 -5811.66)
(-243054 172.831 -5992.44)
(-243899 15.645 -5998.84)
(-245646 30.9357 -6007.99)
(-249308 74.6471 -6027.85)
(-257264 279.204 -6073.22)
(-275312 6187.14 -6187.13)
(-308506 166603 -6742.84)
(-224340 9629.52 -275.659)
(-224376 166.041 -283.403)
(-225217 15.5417 -283.455)
(-226973 31.1553 -283.256)
(-230685 75.6693 -282.639)
(-238806 281.033 -281.02)
(-257265 6073.23 -279.191)
(-291363 157962 -440.285)
(-215991 9519.78 -76.5339)
(-216030 165.036 -77.9914)
(-216883 15.792 -77.8628)
(-218669 31.7509 -77.5265)
(-222446 76.8828 -76.8497)
(-230687 282.652 -75.6357)
(-249311 6027.88 -74.6127)
(-283502 154140 -140.815)
(-212133 9474.99 -31.8774)
(-212174 164.712 -32.4245)
(-213039 16.0066 -32.3126)
(-214852 32.1685 -32.0684)
(-218675 77.5601 -31.6486)
(-226981 283.27 -31.0499)
(-245655 6008.05 -30.8262)
(-279759 152367 -59.9054)
(-210305 9455.47 -13.9396)
(-210348 164.601 -14.1626)
(-211222 16.1481 -14.0885)
(-213053 32.4149 -13.9404)
(-216902 77.9014 -13.7114)
(-225240 283.475 -13.4374)
(-243923 5999.02 -13.4466)
(-277936 151522 -26.564)
(-209450 9446.89 -5.89235)
(-209495 164.563 -5.98063)
(-210374 16.2287 -5.94051)
(-212215 32.5456 -5.86417)
(-216078 78.063 -5.754)
(-224430 283.535 -5.63834)
(-243111 5994.93 -5.67984)
(-277064 151124 -11.321)
(-209110 9443.6 -1.63197)
(-209155 164.553 -1.65489)
(-210037 16.2645 -1.6424)
(-211882 32.6014 -1.61908)
(-215751 78.1272 -1.58658)
(-224109 283.549 -1.55491)
(-242787 5993.34 -1.57225)
(-276712 150965 -3.14453)
(-143953 21433.6 -290937)
(-143947 353.226 -290629)
(-144405 31.0959 -291468)
(-145335 60.1603 -293162)
(-147232 140.898 -296674)
(-151215 440.319 -304228)
(-159907 6742.85 -321283)
(-175006 182502 -352199)
(-5281.08 10713.1 -262674)
(-5445.82 181.852 -262636)
(-5452.85 13.5661 -263362)
(-5463.52 26.7307 -264882)
(-5486.35 67.161 -268160)
(-5537.23 269.136 -275549)
(-5657.3 6224.39 -293159)
(-6061.75 169851 -327693)
(5480.18 10706.7 -261609)
(5650.94 181.462 -261512)
(5656.73 13.3923 -262215)
(5665.87 26.6602 -263726)
(5686.64 67.195 -267002)
(5735.03 269.37 -274401)
(5854.12 6218.33 -292047)
(6237.87 169321 -326646)
(146572 21844.2 -287359)
(146528 358.403 -286849)
(146923 28.4958 -287614)
(147766 56.6424 -289269)
(149554 136.319 -292760)
(153429 436.617 -300324)
(162176 6727.23 -317462)
(178076 180680 -348585)
(282178 21844.2 -149249)
(281747 358.403 -149166)
(282526 28.4958 -149555)
(284194 56.6424 -150391)
(287727 136.319 -152157)
(295380 436.617 -155986)
(312637 6727.23 -164672)
(343658 180680 -180680)
(246769 10533 -5786.82)
(246686 179.875 -5966.05)
(247396 13.4813 -5972.12)
(248950 27.3322 -5981.19)
(252344 69.139 -6001.28)
(259992 272.752 -6047.56)
(278000 6163.88 -6163.89)
(312636 164672 -6727.25)
(228220 10091.3 -268.371)
(228128 173.108 -276.016)
(228830 13.3542 -276.092)
(230387 27.4825 -275.932)
(233822 69.9486 -275.411)
(241616 274.004 -274.015)
(259991 6047.55 -272.763)
(295378 155986 -436.637)
(220211 9988.66 -70.714)
(220119 172.154 -72.0528)
(220831 13.5653 -71.9527)
(222416 28.013 -71.6697)
(225913 71.0556 -71.0708)
(233821 275.4 -69.9635)
(252341 6001.26 -69.1542)
(287723 152156 -136.351)
(216633 9948.54 -28.1834)
(216543 171.869 -28.6436)
(217266 13.7373 -28.5574)
(218876 28.3644 -28.3659)
(222414 71.6548 -28.0135)
(230384 275.921 -27.4802)
(248945 5981.16 -27.3262)
(284188 150390 -56.6508)
(214995 9931.83 -11.7712)
(214908 171.78 -11.9409)
(215640 13.843 -11.8865)
(217264 28.5568 -11.7793)
(220827 71.9413 -11.5998)
(228826 276.087 -11.365)
(247391 5972.09 -11.385)
(282518 149552 -24.5035)
(214255 9924.83 -4.75932)
(214171 171.754 -4.81939)
(214907 13.8989 -4.79148)
(216540 28.6511 -4.7402)
(220114 72.0691 -4.65951)
(228126 276.135 -4.56409)
(246688 5968.02 -4.5994)
(281744 149160 -10.1974)
(213968 9922.25 -1.27944)
(213885 171.748 -1.29347)
(214623 13.9222 -1.28507)
(216260 28.6888 -1.27015)
(219840 72.1175 -1.24737)
(227855 276.147 -1.2218)
(246415 5966.45 -1.23529)
(281438 149005 -2.78791)
(-175006 352200 -182502)
(-159907 321284 -6742.84)
(-151216 304231 -440.285)
(-147234 296680 -140.815)
(-145340 293175 -59.9054)
(-144418 291501 -26.564)
(-143977 290714 -11.321)
(-143799 290400 -3.14453)
(-6061.75 327694 -169850)
(-5657.3 293160 -6224.39)
(-5537.24 275551 -269.124)
(-5486.38 268163 -67.1308)
(-5463.61 264891 -26.6263)
(-5453.09 263384 -11.2431)
(-5448.26 262693 -4.62251)
(-5446.37 262422 -1.25771)
(6237.87 326647 -169320)
(5854.11 292047 -6218.33)
(5735.01 274402 -269.367)
(5686.6 267003 -67.1844)
(5665.79 263730 -26.6071)
(5656.57 262225 -11.2172)
(5652.53 261536 -4.60636)
(5651 261266 -1.25256)
(178076 348586 -180680)
(162175 317461 -6727.25)
(153428 300323 -436.637)
(149552 292759 -136.351)
(147763 289266 -56.6508)
(146919 287608 -24.5035)
(146528 286833 -10.1974)
(146374 286525 -2.78791)
)
;
    }
    symmetry
    {
        type            symmetry;
    }
    bottom
    {
        type            calculated;
        value           nonuniform List<vector> 
32
(
(-143953 42185.8 -151059)
(-126301 19824.5 -5811.66)
(-116824 18939.2 -275.659)
(-112596 18721.8 -76.5339)
(-110645 18633 -31.8774)
(-109721 18594.3 -13.9396)
(-109290 18577.3 -5.89235)
(-109118 18570.7 -1.63197)
(-5281.08 21073.6 -136438)
(-4784.81 668.817 -5187.19)
(-4649.36 324.837 -87.4956)
(-4596.48 318.834 -1.70948)
(-4574.47 318 -0.291406)
(-4564.86 317.668 -0.117804)
(-4560.63 317.528 -0.0481414)
(-4559 317.476 -0.013093)
(5480.18 21061.4 -135899)
(5012.1 685.234 -5179.93)
(4880.55 341.728 -87.337)
(4831.23 335.886 -1.6451)
(4811.55 335.147 -0.253553)
(4803.34 334.871 -0.0965108)
(4799.89 334.761 -0.0372806)
(4798.63 334.722 -0.00974763)
(146572 42994.3 -149249)
(128392 20717.2 -5786.82)
(118986 19847 -268.371)
(114933 19643.7 -70.714)
(113124 19564.2 -28.1834)
(112296 19531 -11.7712)
(111923 19517.1 -4.75932)
(111778 19512 -1.27944)
)
;
    }
}


// ************************************************************************* //
