/*--------------------------------*- C++ -*----------------------------------*\
| =========                 |                                                 |
| \\      /  F ield         | OpenFOAM: The Open Source CFD Toolbox           |
|  \\    /   O peration     | Version:  v1912                                 |
|   \\  /    A nd           | Website:  www.openfoam.com                      |
|    \\/     M anipulation  |                                                 |
\*---------------------------------------------------------------------------*/
FoamFile
{
    version     2.0;
    format      ascii;
    class       pointVectorField;
    location    "0.07/solid";
    object      pointD;
}
// * * * * * * * * * * * * * * * * * * * * * * * * * * * * * * * * * * * * * //

dimensions      [0 1 0 0 0 0 0];


internalField   nonuniform List<vector> 
405
(
(2.14653e-08 2.23499e-09 2.12119e-08)
(-2.16461e-09 8.33426e-10 3.83234e-08)
(4.99093e-12 1.3422e-09 4.04847e-08)
(2.05902e-09 8.53358e-10 3.78705e-08)
(-2.23951e-08 2.44588e-09 2.06616e-08)
(2.99207e-08 8.42586e-09 2.35985e-08)
(-5.82815e-09 5.80386e-09 6.83325e-08)
(-5.28683e-11 6.2928e-09 7.30522e-08)
(5.45232e-09 5.89165e-09 6.73199e-08)
(-3.14937e-08 8.74551e-09 2.26253e-08)
(2.79396e-08 1.95185e-08 8.31844e-09)
(-7.36192e-09 1.57903e-08 5.29374e-08)
(-1.75684e-10 1.57123e-08 5.79034e-08)
(6.70568e-09 1.59579e-08 5.17906e-08)
(-2.97893e-08 1.98557e-08 7.15822e-09)
(2.91043e-08 3.22781e-08 -5.44676e-09)
(-6.97263e-09 2.86337e-08 3.93842e-08)
(-2.80061e-10 2.87355e-08 4.42277e-08)
(6.11725e-09 2.88494e-08 3.8217e-08)
(-3.11179e-08 3.26389e-08 -6.63182e-09)
(3.0574e-08 4.62595e-08 -1.87948e-08)
(-6.35922e-09 4.34208e-08 2.67907e-08)
(-3.57816e-10 4.41338e-08 3.18616e-08)
(5.35773e-09 4.36557e-08 2.5658e-08)
(-3.26997e-08 4.66263e-08 -1.99193e-08)
(3.04673e-08 6.13307e-08 -3.24462e-08)
(-7.15892e-09 5.98016e-08 1.46281e-08)
(-4.16697e-10 6.13055e-08 2.01931e-08)
(6.04475e-09 6.00278e-08 1.3564e-08)
(-3.2678e-08 6.16761e-08 -3.34566e-08)
(2.61173e-08 7.90821e-08 -4.73744e-08)
(-1.15623e-08 7.84763e-08 2.25223e-09)
(-4.58318e-10 7.99576e-08 8.40386e-09)
(1.03521e-08 7.86692e-08 1.28344e-09)
(-2.84467e-08 7.9383e-08 -4.82331e-08)
(1.33062e-08 1.00862e-07 -6.5855e-08)
(-2.02136e-08 9.85869e-08 -1.5634e-08)
(-4.81835e-10 9.72401e-08 -9.36523e-09)
(1.88993e-08 9.87711e-08 -1.64528e-08)
(-1.59953e-08 1.01172e-07 -6.65195e-08)
(-9.98053e-09 8.41844e-08 -9.20983e-08)
(-2.5474e-08 6.47589e-08 -7.34028e-08)
(-5.15396e-10 5.98828e-08 -6.84305e-08)
(2.4049e-08 6.5323e-08 -7.3759e-08)
(7.37724e-09 8.48972e-08 -9.24638e-08)
(3.90969e-08 5.40995e-09 -3.5264e-09)
(0 0 0)
(0 0 0)
(0 0 0)
(-4.00995e-08 5.65892e-09 -3.61277e-09)
(7.72366e-08 1.60195e-08 -1.42453e-08)
(-2.221e-09 1.56277e-08 -1.74917e-08)
(-3.3561e-12 1.47145e-08 -1.62196e-08)
(1.99117e-09 1.58009e-08 -1.76209e-08)
(-7.93566e-08 1.64785e-08 -1.45237e-08)
(7.68618e-08 2.73586e-08 -2.85757e-08)
(-2.58775e-09 2.69167e-08 -3.31169e-08)
(-9.23994e-11 2.66234e-08 -3.1995e-08)
(2.15152e-09 2.71178e-08 -3.33173e-08)
(-7.91712e-08 2.77698e-08 -2.89957e-08)
(7.84194e-08 4.0273e-08 -4.26451e-08)
(-2.10499e-09 3.99246e-08 -4.7379e-08)
(-1.89254e-10 3.99998e-08 -4.64201e-08)
(1.48406e-09 4.0136e-08 -4.7591e-08)
(-8.08566e-08 4.06734e-08 -4.30891e-08)
(8.02736e-08 5.41053e-08 -5.65283e-08)
(-1.68933e-09 5.47986e-08 -6.10396e-08)
(-2.79731e-10 5.54094e-08 -5.99968e-08)
(8.97348e-10 5.50074e-08 -6.12208e-08)
(-8.28024e-08 5.44964e-08 -5.69168e-08)
(8.11364e-08 6.82872e-08 -7.09231e-08)
(-2.71048e-09 7.15095e-08 -7.51221e-08)
(-3.64994e-10 7.28782e-08 -7.38598e-08)
(1.75419e-09 7.16997e-08 -7.52446e-08)
(-8.37393e-08 6.86569e-08 -7.12022e-08)
(7.88685e-08 8.34323e-08 -8.64658e-08)
(-7.27795e-09 8.97146e-08 -9.04169e-08)
(-4.41867e-10 9.11437e-08 -8.89524e-08)
(6.15519e-09 8.98741e-08 -9.04645e-08)
(-8.16159e-08 8.37802e-08 -8.66015e-08)
(6.6542e-08 9.97222e-08 -1.01327e-07)
(-1.59721e-08 1.03712e-07 -1.05236e-07)
(-5.04189e-10 1.0233e-07 -1.03763e-07)
(1.46639e-08 1.03897e-07 -1.05213e-07)
(-6.98789e-08 1.00131e-07 -1.01318e-07)
(1.3237e-08 6.42422e-08 -1.09555e-07)
(-2.03096e-08 1.40881e-08 -1.09591e-07)
(-5.86603e-10 7.91849e-09 -1.08153e-07)
(1.87852e-08 1.51157e-08 -1.09568e-07)
(-1.60836e-08 6.52728e-08 -1.095e-07)
(4.27032e-08 8.97065e-09 -2.65852e-09)
(0 0 0)
(0 0 0)
(0 0 0)
(-4.35285e-08 9.19118e-09 -2.69877e-09)
(8.69394e-08 2.27501e-08 -1.16435e-08)
(4.896e-09 1.80624e-08 -1.67237e-08)
(4.44013e-12 1.63118e-08 -1.77836e-08)
(-5.04729e-09 1.82479e-08 -1.67841e-08)
(-8.86492e-08 2.31703e-08 -1.17845e-08)
(8.92562e-08 3.37112e-08 -2.47163e-08)
(6.47262e-09 3.21415e-08 -3.14293e-08)
(-6.64064e-11 3.14372e-08 -3.29621e-08)
(-6.78174e-09 3.23505e-08 -3.1532e-08)
(-9.10824e-08 3.41116e-08 -2.49443e-08)
(9.08301e-08 4.66938e-08 -3.81416e-08)
(7.03388e-09 4.63228e-08 -4.50538e-08)
(-1.5471e-10 4.63147e-08 -4.67218e-08)
(-7.51128e-09 4.65399e-08 -4.51654e-08)
(-9.27657e-08 4.71013e-08 -3.83906e-08)
(9.23895e-08 6.02916e-08 -5.14157e-08)
(7.23118e-09 6.11359e-08 -5.8144e-08)
(-2.50081e-10 6.1775e-08 -5.97687e-08)
(-7.89099e-09 6.13533e-08 -5.82337e-08)
(-9.44247e-08 6.07087e-08 -5.1628e-08)
(9.31283e-08 7.31349e-08 -6.45445e-08)
(6.07078e-09 7.6478e-08 -7.10524e-08)
(-3.51624e-10 7.79005e-08 -7.25649e-08)
(-6.92889e-09 7.66868e-08 -7.10973e-08)
(-9.5262e-08 7.35574e-08 -6.46759e-08)
(9.09148e-08 8.47169e-08 -7.68018e-08)
(1.4246e-09 9.11034e-08 -8.31344e-08)
(-4.53321e-10 9.2588e-08 -8.45384e-08)
(-2.50195e-09 9.13015e-08 -8.31244e-08)
(-9.32288e-08 8.51576e-08 -7.68267e-08)
(7.88092e-08 9.43561e-08 -8.49566e-08)
(-7.36036e-09 9.83864e-08 -9.11971e-08)
(-5.46319e-10 9.70126e-08 -9.25499e-08)
(6.02872e-09 9.86436e-08 -9.11498e-08)
(-8.17649e-08 9.49118e-08 -8.48895e-08)
(2.59817e-08 5.52579e-08 -8.7738e-08)
(-1.17394e-08 5.6973e-09 -8.94966e-08)
(-6.68176e-10 -3.53206e-10 -9.09018e-08)
(1.01091e-08 6.87681e-09 -8.94844e-08)
(-2.8678e-08 5.64855e-08 -8.76775e-08)
(4.25141e-08 1.05303e-08 -2.51759e-09)
(0 0 0)
(0 0 0)
(0 0 0)
(-4.33553e-08 1.07321e-08 -2.54703e-09)
(8.81536e-08 2.57717e-08 -1.06989e-08)
(8.49309e-09 1.8905e-08 -1.3325e-08)
(1.4599e-11 1.67284e-08 -1.43774e-08)
(-8.60735e-09 1.90858e-08 -1.33768e-08)
(-8.98714e-08 2.61606e-08 -1.07952e-08)
(9.23751e-08 3.66368e-08 -2.22989e-08)
(1.14268e-08 3.42628e-08 -2.59624e-08)
(-4.44754e-11 3.32783e-08 -2.74185e-08)
(-1.16708e-08 3.44713e-08 -2.60426e-08)
(-9.41743e-08 3.70231e-08 -2.24498e-08)
(9.41324e-08 4.94766e-08 -3.41401e-08)
(1.2146e-08 4.90566e-08 -3.79776e-08)
(-1.25652e-10 4.89843e-08 -3.95277e-08)
(-1.25445e-08 4.92824e-08 -3.80633e-08)
(-9.60281e-08 4.98942e-08 -3.43052e-08)
(9.53692e-08 6.23387e-08 -4.57297e-08)
(1.21596e-08 6.33698e-08 -4.94264e-08)
(-2.22046e-10 6.40592e-08 -5.09427e-08)
(-1.2744e-08 6.36083e-08 -4.94967e-08)
(-9.73696e-08 6.27942e-08 -4.5871e-08)
(9.57208e-08 7.33543e-08 -5.65315e-08)
(1.08021e-08 7.69044e-08 -6.0021e-08)
(-3.33433e-10 7.84135e-08 -6.14588e-08)
(-1.16061e-08 7.71504e-08 -6.00599e-08)
(-9.78415e-08 7.38485e-08 -5.66172e-08)
(9.31455e-08 8.19401e-08 -6.52923e-08)
(6.01279e-09 8.84899e-08 -6.86061e-08)
(-4.53505e-10 9.00801e-08 -6.99629e-08)
(-7.07474e-09 8.87457e-08 -6.8609e-08)
(-9.54824e-08 8.24923e-08 -6.53058e-08)
(8.1117e-08 8.84707e-08 -6.96733e-08)
(-2.82629e-09 9.27248e-08 -7.29276e-08)
(-5.73278e-10 9.15446e-08 -7.42457e-08)
(1.45358e-09 9.30601e-08 -7.2913e-08)
(-8.41346e-08 8.91767e-08 -6.96315e-08)
(3.0369e-08 5.00028e-08 -6.99382e-08)
(-7.34988e-09 2.97771e-09 -7.09172e-08)
(-7.32436e-10 -2.49111e-09 -7.2376e-08)
(5.60403e-09 4.25659e-09 -7.09427e-08)
(-3.31565e-08 5.13885e-08 -6.99266e-08)
(4.19514e-08 1.09277e-08 -2.36432e-09)
(0 0 0)
(0 0 0)
(0 0 0)
(-4.28348e-08 1.11227e-08 -2.38782e-09)
(8.75209e-08 2.66291e-08 -9.62531e-09)
(9.40749e-09 1.91282e-08 -1.04069e-08)
(2.44366e-11 1.67916e-08 -1.09239e-08)
(-9.50281e-09 1.93062e-08 -1.04517e-08)
(-8.93141e-08 2.70042e-08 -9.69845e-09)
(9.24066e-08 3.75055e-08 -1.94461e-08)
(1.28328e-08 3.48107e-08 -2.05972e-08)
(-2.65144e-11 3.37049e-08 -2.13166e-08)
(-1.30417e-08 3.50195e-08 -2.06628e-08)
(-9.42652e-08 3.78848e-08 -1.95562e-08)
(9.42751e-08 5.00254e-08 -2.91793e-08)
(1.36469e-08 4.95914e-08 -3.04009e-08)
(-1.0246e-10 4.94957e-08 -3.11635e-08)
(-1.40004e-08 4.98263e-08 -3.04697e-08)
(-9.62213e-08 5.04538e-08 -2.92983e-08)
(9.52985e-08 6.20458e-08 -3.84575e-08)
(1.35453e-08 6.32227e-08 -3.95829e-08)
(-1.98577e-10 6.39572e-08 -4.03164e-08)
(-1.40851e-08 6.34827e-08 -3.96408e-08)
(-9.73515e-08 6.25367e-08 -3.85603e-08)
(9.53286e-08 7.16683e-08 -4.66406e-08)
(1.20198e-08 7.53945e-08 -4.76115e-08)
(-3.16174e-10 7.69786e-08 -4.82869e-08)
(-1.27926e-08 7.56771e-08 -4.76482e-08)
(-9.7517e-08 7.22275e-08 -4.67059e-08)
(9.24699e-08 7.86877e-08 -5.26595e-08)
(7.10807e-09 8.5384e-08 -5.35026e-08)
(-4.49979e-10 8.70792e-08 -5.4119e-08)
(-8.16756e-09 8.56928e-08 -5.35163e-08)
(-9.4903e-08 7.93377e-08 -5.26768e-08)
(8.04601e-08 8.42366e-08 -5.52372e-08)
(-1.76107e-09 8.87308e-08 -5.60527e-08)
(-5.91934e-10 8.77642e-08 -5.66506e-08)
(3.45664e-10 8.91336e-08 -5.60592e-08)
(-8.3608e-08 8.50706e-08 -5.5221e-08)
(3.07237e-08 4.65018e-08 -5.47376e-08)
(-6.43875e-09 9.21139e-10 -5.46848e-08)
(-7.82811e-10 -4.05373e-09 -5.54168e-08)
(4.58805e-09 2.27856e-09 -5.47274e-08)
(-3.36393e-08 4.80183e-08 -5.47551e-08)
(4.1462e-08 1.08814e-08 -1.92371e-09)
(0 0 0)
(0 0 0)
(0 0 0)
(-4.23789e-08 1.10739e-08 -1.94128e-09)
(8.65456e-08 2.6555e-08 -7.69305e-09)
(9.33554e-09 1.90524e-08 -7.74383e-09)
(3.1268e-11 1.66885e-08 -7.91381e-09)
(-9.41969e-09 1.923e-08 -7.77793e-09)
(-8.84014e-08 2.69249e-08 -7.74682e-09)
(9.14498e-08 3.73504e-08 -1.53066e-08)
(1.27793e-08 3.46297e-08 -1.53812e-08)
(-1.42988e-11 3.35005e-08 -1.56113e-08)
(-1.29672e-08 3.48405e-08 -1.54304e-08)
(-9.33627e-08 3.77281e-08 -1.53861e-08)
(9.32894e-08 4.95103e-08 -2.26681e-08)
(1.35876e-08 4.91112e-08 -2.27252e-08)
(-8.67112e-11 4.90226e-08 -2.296e-08)
(-1.39136e-08 4.93544e-08 -2.27764e-08)
(-9.52845e-08 4.9949e-08 -2.27529e-08)
(9.41735e-08 6.08768e-08 -2.94871e-08)
(1.34144e-08 6.21502e-08 -2.94766e-08)
(-1.8247e-10 6.29206e-08 -2.96868e-08)
(-1.39266e-08 6.24279e-08 -2.95202e-08)
(-9.62763e-08 6.1396e-08 -2.95607e-08)
(9.40048e-08 6.97044e-08 -3.52514e-08)
(1.17865e-08 7.35409e-08 -3.51478e-08)
(-3.04358e-10 7.51777e-08 -3.53197e-08)
(-1.25411e-08 7.38527e-08 -3.51774e-08)
(-9.62534e-08 7.03145e-08 -3.52999e-08)
(9.09855e-08 7.61076e-08 -3.92607e-08)
(6.80456e-09 8.28975e-08 -3.90853e-08)
(-4.4843e-10 8.46681e-08 -3.92212e-08)
(-7.86708e-09 8.32478e-08 -3.91006e-08)
(-9.35004e-08 7.68331e-08 -3.92775e-08)
(7.89883e-08 8.14559e-08 -4.08814e-08)
(-2.07831e-09 8.61128e-08 -4.06974e-08)
(-6.07716e-10 8.52952e-08 -4.08267e-08)
(6.25081e-10 8.65683e-08 -4.07103e-08)
(-8.22469e-08 8.23892e-08 -4.08778e-08)
(2.97264e-08 4.41728e-08 -4.0332e-08)
(-6.8625e-09 -6.72943e-10 -3.98364e-08)
(-8.23532e-10 -5.33615e-09 -4.00528e-08)
(4.92548e-09 7.4385e-10 -3.98778e-08)
(-3.27504e-08 4.579e-08 -4.0357e-08)
(4.11438e-08 1.0749e-08 -1.32805e-09)
(0 0 0)
(0 0 0)
(0 0 0)
(-4.20823e-08 1.09402e-08 -1.33952e-09)
(8.58084e-08 2.62423e-08 -5.27035e-09)
(9.11146e-09 1.88732e-08 -5.16538e-09)
(3.53707e-11 1.65263e-08 -5.19751e-09)
(-9.18875e-09 1.90514e-08 -5.18773e-09)
(-8.77047e-08 2.66099e-08 -5.30532e-09)
(9.05651e-08 3.68742e-08 -1.04131e-08)
(1.245e-08 3.42229e-08 -1.02416e-08)
(-6.91091e-12 3.31083e-08 -1.02755e-08)
(-1.26251e-08 3.44359e-08 -1.02738e-08)
(-9.25136e-08 3.72528e-08 -1.04644e-08)
(9.23172e-08 4.87281e-08 -1.53099e-08)
(1.32078e-08 4.83822e-08 -1.50931e-08)
(-7.72116e-11 4.83122e-08 -1.51161e-08)
(-1.35171e-08 4.86319e-08 -1.51265e-08)
(-9.43448e-08 4.91753e-08 -1.53643e-08)
(9.31064e-08 5.96844e-08 -1.97498e-08)
(1.29859e-08 6.10183e-08 -1.94867e-08)
(-1.72934e-10 6.18146e-08 -1.94915e-08)
(-1.34819e-08 6.13089e-08 -1.95153e-08)
(-9.52426e-08 6.02242e-08 -1.97967e-08)
(9.28313e-08 6.81334e-08 -2.34014e-08)
(1.13054e-08 7.20285e-08 -2.30894e-08)
(-2.97968e-10 7.36974e-08 -2.30723e-08)
(-1.20506e-08 7.23608e-08 -2.31094e-08)
(-9.51208e-08 6.87793e-08 -2.34325e-08)
(8.97352e-08 7.43466e-08 -2.5872e-08)
(6.29129e-09 8.1184e-08 -2.55264e-08)
(-4.49446e-10 8.29979e-08 -2.54908e-08)
(-7.35962e-09 8.15633e-08 -2.55378e-08)
(-9.23066e-08 7.51253e-08 -2.58833e-08)
(7.77494e-08 7.9708e-08 -2.68581e-08)
(-2.59583e-09 8.44476e-08 -2.65123e-08)
(-6.21252e-10 8.37102e-08 -2.64754e-08)
(1.11179e-09 8.49402e-08 -2.65233e-08)
(-8.10865e-08 8.07115e-08 -2.68574e-08)
(2.873e-08 4.26757e-08 -2.64776e-08)
(-7.43498e-09 -1.81829e-09 -2.59998e-08)
(-8.54899e-10 -6.32693e-09 -2.60074e-08)
(5.43253e-09 -3.59903e-10 -2.60302e-08)
(-3.18335e-08 4.4364e-08 -2.64973e-08)
(4.09778e-08 1.06526e-08 -6.7329e-10)
(0 0 0)
(0 0 0)
(0 0 0)
(-4.19281e-08 1.08431e-08 -6.78888e-10)
(8.54042e-08 2.59893e-08 -2.6617e-09)
(8.96704e-09 1.8719e-08 -2.58992e-09)
(3.74631e-11 1.63911e-08 -2.58857e-09)
(-9.04067e-09 1.88977e-08 -2.60085e-09)
(-8.73227e-08 2.6356e-08 -2.67874e-09)
(9.00464e-08 3.64721e-08 -5.24091e-09)
(1.22239e-08 3.38822e-08 -5.12163e-09)
(-3.15644e-12 3.27854e-08 -5.1123e-09)
(-1.23923e-08 3.40971e-08 -5.13738e-09)
(-9.20147e-08 3.68521e-08 -5.26584e-09)
(9.17269e-08 4.81257e-08 -7.6769e-09)
(1.29379e-08 4.78211e-08 -7.52695e-09)
(-7.24858e-11 4.77668e-08 -7.50846e-09)
(-1.32389e-08 4.80751e-08 -7.54327e-09)
(-9.37728e-08 4.85789e-08 -7.70312e-09)
(9.24588e-08 5.88681e-08 -9.85902e-09)
(1.2686e-08 6.02361e-08 -9.685e-09)
(-1.68464e-10 6.10481e-08 -9.65683e-09)
(-1.31743e-08 6.05345e-08 -9.69898e-09)
(-9.46143e-08 5.94209e-08 -9.88143e-09)
(9.21325e-08 6.71615e-08 -1.1628e-08)
(1.09809e-08 7.10841e-08 -1.14331e-08)
(-2.9564e-10 7.27697e-08 -1.13951e-08)
(-1.1723e-08 7.14288e-08 -1.1443e-08)
(-9.44462e-08 6.78293e-08 -1.16425e-08)
(8.90041e-08 7.33325e-08 -1.28106e-08)
(5.95396e-09 8.01896e-08 -1.26032e-08)
(-4.51807e-10 8.20242e-08 -1.25578e-08)
(-7.02886e-09 8.05863e-08 -1.2609e-08)
(-9.16096e-08 7.41432e-08 -1.28155e-08)
(7.70267e-08 7.87373e-08 -1.32828e-08)
(-2.93349e-09 8.35094e-08 -1.30768e-08)
(-6.31352e-10 8.28069e-08 -1.30316e-08)
(1.42745e-09 8.40242e-08 -1.30827e-08)
(-8.04121e-08 7.9783e-08 -1.32819e-08)
(2.81293e-08 4.18338e-08 -1.30994e-08)
(-7.79444e-09 -2.50804e-09 -1.28351e-08)
(-8.75807e-10 -6.95497e-09 -1.28072e-08)
(5.74899e-09 -1.02471e-09 -1.28508e-08)
(-3.12829e-08 4.35648e-08 -1.31094e-08)
(3.09515e-08 1.16903e-08 0)
(3.16931e-09 5.43392e-09 0)
(2.48006e-11 3.9647e-09 0)
(-3.18561e-09 5.51416e-09 0)
(-3.16423e-08 1.1907e-08 0)
(5.00472e-08 2.34576e-08 0)
(8.92175e-09 1.86602e-08 0)
(3.80825e-11 1.63396e-08 0)
(-8.99429e-09 1.88392e-08 0)
(-5.11206e-08 2.3783e-08 0)
(5.47019e-08 3.56102e-08 0)
(1.21511e-08 3.37541e-08 0)
(-2.0625e-12 3.26644e-08 0)
(-1.23175e-08 3.39697e-08 0)
(-5.58535e-08 3.59616e-08 0)
(5.60234e-08 4.7819e-08 0)
(1.28493e-08 4.76167e-08 0)
(-7.11551e-11 4.75682e-08 0)
(-1.31479e-08 4.78722e-08 0)
(-5.72768e-08 4.82358e-08 0)
(5.62348e-08 5.89026e-08 0)
(1.2587e-08 5.99622e-08 0)
(-1.67312e-10 6.07796e-08 0)
(-1.30735e-08 6.02634e-08 0)
(-5.7635e-08 5.94052e-08 0)
(5.49308e-08 6.79991e-08 0)
(1.08746e-08 7.07661e-08 0)
(-2.95298e-10 7.24568e-08 0)
(-1.16165e-08 7.11149e-08 0)
(-5.65385e-08 6.85981e-08 0)
(4.98401e-08 7.55622e-08 0)
(5.84426e-09 7.98638e-08 0)
(-4.53122e-10 8.17042e-08 0)
(-6.92233e-09 8.02663e-08 0)
(-5.17738e-08 7.62759e-08 0)
(3.71316e-08 8.12263e-08 0)
(-3.04298e-09 8.32049e-08 0)
(-6.35338e-10 8.25118e-08 0)
(1.52842e-09 8.37272e-08 0)
(-3.9712e-08 8.21489e-08 0)
(1.50214e-08 5.62282e-08 0)
(-8.10372e-09 3.98648e-08 0)
(-8.07742e-10 3.61788e-08 0)
(6.19274e-09 4.09168e-08 0)
(-1.78215e-08 5.76981e-08 0)
)
;

boundaryField
{
    interface
    {
        type            calculated;
    }
    symmetry
    {
        type            symmetry;
    }
    bottom
    {
        type            calculated;
    }
}


// ************************************************************************* //
