/*--------------------------------*- C++ -*----------------------------------*\
| =========                 |                                                 |
| \\      /  F ield         | OpenFOAM: The Open Source CFD Toolbox           |
|  \\    /   O peration     | Version:  v1912                                 |
|   \\  /    A nd           | Website:  www.openfoam.com                      |
|    \\/     M anipulation  |                                                 |
\*---------------------------------------------------------------------------*/
FoamFile
{
    version     2.0;
    format      ascii;
    class       volScalarField;
    location    "0.07/solid";
    object      sigmaEq;
}
// * * * * * * * * * * * * * * * * * * * * * * * * * * * * * * * * * * * * * //

dimensions      [1 -1 -2 0 0 0 0];


internalField   nonuniform List<scalar> 
256
(
580974
609301
606607
584632
540955
608207
604802
542565
563636
619990
616496
565057
582509
631883
628402
583770
603466
649838
646375
604444
637691
680217
676745
638336
663295
709986
706469
664535
91436.1
713723
709269
81880.5
592454
152625
153388
603304
568187
120160
120871
578091
577107
110720
111370
586706
589933
116612
117199
599023
606379
126037
126532
614756
629664
117631
118024
637292
648761
67215.9
67215.6
656796
663729
710125
706603
664947
576141
148852
149783
586838
562573
155005
155978
572079
572022
152950
153833
581242
582692
154640
155441
591454
596063
157202
157917
604153
614924
144396
145056
622280
630275
117480
117874
637898
638444
680211
676730
639061
562659
143050
144009
573935
551048
166628
167623
561133
561306
170102
171006
571139
570603
170393
171231
580024
581452
169745
170518
590248
596934
155163
155898
605038
608266
125033
125548
616644
605352
649781
646306
606305
554745
135918
136902
566545
543339
163230
164261
553991
553610
167905
168865
564044
562047
167217
168129
572102
571410
164669
165535
580872
584961
148004
148853
593763
594268
113635
114268
603358
587914
632691
629198
589160
549393
129705
130713
561554
537844
156605
157666
548891
547768
160637
161642
558623
555639
159187
160159
566133
564200
155755
156693
574120
576790
137923
138860
586069
585251
101254
101957
594829
577735
623919
620401
579138
545923
125160
126188
558305
534245
151292
152375
545531
543845
154596
155633
554953
551367
152732
153744
562124
559522
149057
150041
569713
571686
130820
131810
581245
579820
93049.8
93789.1
589686
571590
619616
616077
573061
544208
122738
123777
556693
532472
148521
149617
543870
541905
151483
152537
553130
549263
149477
150509
560141
557250
145790
146796
567565
569257
127462
128478
578944
577281
89233
89987.5
587277
568620
617822
614273
570114
)
;

boundaryField
{
    interface
    {
        type            calculated;
        value           nonuniform List<scalar> 
192
(
911816
876773
901357
922127
947785
995201
1.05583e+06
549277
1.0669e+06
1.03623e+06
1.0482e+06
1.06466e+06
1.08895e+06
1.13422e+06
1.20572e+06
1.05614e+06
1.00756e+06
979939
991420
1.00638e+06
1.02809e+06
1.06886e+06
1.13492e+06
995890
975633
947122
958630
972472
992026
1.02948e+06
1.09118e+06
949730
961024
932456
943721
956703
974862
1.01039e+06
1.06986e+06
927724
953161
924893
935867
948245
965560
1.00006e+06
1.05852e+06
915892
948700
920673
931427
943435
960281
994270
1.0523e+06
909118
946624
918710
929350
941185
957826
991611
1.04949e+06
905929
964686
933313
956392
974944
998588
1.04488e+06
1.10756e+06
641755
1.12097e+06
1.11722e+06
1.13452e+06
1.15113e+06
1.17697e+06
1.22782e+06
1.30742e+06
1.15167e+06
1.11615e+06
1.11163e+06
1.12879e+06
1.14537e+06
1.17118e+06
1.22203e+06
1.30167e+06
1.14608e+06
953407
919038
942119
960779
984480
1.03084e+06
1.09383e+06
621622
932842
896442
920407
940402
965071
1.01148e+06
1.07311e+06
586078
1.08558e+06
1.05329e+06
1.06477e+06
1.0804e+06
1.10351e+06
1.14744e+06
1.21915e+06
1.07339e+06
1.02635e+06
996910
1.00791e+06
1.0221e+06
1.04264e+06
1.08204e+06
1.14813e+06
1.01213e+06
995654
965319
976377
989480
1.00791e+06
1.04403e+06
1.10572e+06
966954
982083
951722
962566
974836
991899
1.02613e+06
1.08559e+06
945877
974927
944892
955467
967149
983382
1.01659e+06
1.07506e+06
934688
970892
941114
951479
962798
978569
1.01128e+06
1.06932e+06
928300
969016
939357
949613
960762
976330
1.00884e+06
1.06672e+06
925289
641876
1.10792e+06
1.04554e+06
1.00022e+06
979647
969106
963187
960398
1.15169e+06
1.30747e+06
1.22778e+06
1.17709e+06
1.15275e+06
1.14118e+06
1.13569e+06
1.13343e+06
1.1461e+06
1.30171e+06
1.22198e+06
1.17129e+06
1.14695e+06
1.13538e+06
1.12989e+06
1.12763e+06
621742
1.09417e+06
1.03147e+06
986091
965476
954875
948894
946065
)
;
    }
    symmetry
    {
        type            symmetry;
    }
    bottom
    {
        type            calculated;
        value           nonuniform List<scalar> 
32
(
625624
621870
605743
593383
585632
580151
576559
574781
627152
168775
152536
141692
133133
126732
122262
119894
624581
169749
153605
142778
134251
127882
123436
121082
630661
633829
617536
605721
598476
593346
589964
588286
)
;
    }
}


// ************************************************************************* //
