/*--------------------------------*- C++ -*----------------------------------*\
| =========                 |                                                 |
| \\      /  F ield         | OpenFOAM: The Open Source CFD Toolbox           |
|  \\    /   O peration     | Version:  v1912                                 |
|   \\  /    A nd           | Website:  www.openfoam.com                      |
|    \\/     M anipulation  |                                                 |
\*---------------------------------------------------------------------------*/
FoamFile
{
    version     2.0;
    format      ascii;
    class       volSymmTensorField;
    location    "0.07/solid";
    object      sigma;
}
// * * * * * * * * * * * * * * * * * * * * * * * * * * * * * * * * * * * * * //

dimensions      [1 -1 -2 0 0 0 0];


internalField   nonuniform List<symmTensor> 
256
(
(-874082 -15710.2 17858.1 -316979 -26677.8 -913218)
(-161870 -15185.7 8378.98 -111238 -20739.6 -742468)
(-162476 15562.7 -8597.93 -110136 -20839.1 -739353)
(-885492 15211.9 -17846.6 -313227 -27060.8 -903223)
(-866063 -3278 24938.9 -350425 -13598.1 -909521)
(-147223 -3130.75 12230.2 -136471 -15405.3 -749003)
(-148484 3070.55 -12582.8 -135576 -15447.9 -745720)
(-878150 3187.51 -24948.6 -348553 -13761.1 -898931)
(-865285 994.685 24570.9 -325263 -8674.01 -906607)
(-139990 413 12125.5 -110638 -9706.58 -744198)
(-141216 -404.238 -12486.6 -109888 -9709.48 -740841)
(-876905 -956.639 -24581.9 -323272 -8684.56 -895665)
(-872422 1956.95 24098.7 -311264 -7447.82 -909999)
(-140963 1375.67 11881.9 -89016.5 -7114.78 -744808)
(-142126 -1249.44 -12216.2 -88374.7 -7091.7 -741445)
(-883453 -1870.19 -24093.9 -309207 -7366.06 -898910)
(-883826 912.009 24403.1 -300325 -8980.23 -918854)
(-138896 647.316 12089.6 -69066 -8051.44 -750509)
(-140025 -477.765 -12388.1 -68533.5 -8008.57 -747174)
(-894197 -815.645 -24375.2 -298288 -8829.74 -907696)
(-896812 -4495.44 25106.2 -279958 -14744.9 -932862)
(-118513 -3051.15 12534.8 -48916.5 -13868.4 -760462)
(-119667 3197.87 -12793.9 -48500.1 -13803.6 -757205)
(-906626 4534.11 -25054.3 -278015 -14529 -921761)
(-918322 -16974.3 25491.9 -280179 -25990 -959390)
(-75971.8 -9436.17 12767.2 -75013.3 -26173.5 -783495)
(-77372.5 9539.57 -12982.7 -74546.5 -26076.7 -780426)
(-928725 16860.9 -25425.5 -278022 -25704.5 -948731)
(-1.07704e+06 -24513.9 24507.7 -1.12177e+06 -30337.4 -1.12163e+06)
(-256478 -12272.5 12263.4 -967500 -31562.9 -967441)
(-257777 12448 -12442.8 -964322 -31459.2 -964264)
(-1.09122e+06 24464.7 -24459.5 -1.11132e+06 -30070.1 -1.11119e+06)
(-677781 1634.97 11599.5 -47438.7 -49858.4 -150164)
(51419.3 -9133.41 5524.84 159973 -60888.8 50994.6)
(50314.6 9658.95 -5635.92 160243 -60934.9 50963.7)
(-687446 -1803.61 -11501.5 -45534.9 -50131.9 -149714)
(-695222 -1034.01 17654 -106957 -31464.2 -157396)
(34411.7 -2073.64 9505.24 136981 -38086 41966.2)
(32711.7 2225.15 -9707.52 136688 -38131.7 41781.9)
(-705460 1077.95 -17531.7 -107560 -31674.5 -157231)
(-696083 383.768 17570.9 -97164.1 -23829 -148843)
(33613.2 104.185 9592.69 140429 -25835 49297)
(31925.6 -16.5398 -9797.91 139974 -25838 49119.2)
(-705826 -314.802 -17448 -97644.6 -23859.4 -148380)
(-700776 1493.77 16935.5 -86624.1 -21828.4 -143027)
(35181.8 973.176 9151.17 154123 -21515.3 57971.1)
(33540.8 -899.27 -9316.13 153590 -21467.2 57767.6)
(-709866 -1434.01 -16799.2 -86935.2 -21683.1 -142405)
(-709655 830.969 16872.7 -78171.5 -24760.5 -137163)
(43013.9 407.866 9144.44 172329 -23721.6 70198.6)
(41403.9 -370.448 -9250.49 171723 -23627 69941.3)
(-717919 -795.167 -16713.3 -78336.3 -24461.6 -136422)
(-720498 -4384.56 17125.1 -68927 -31600.6 -122436)
(70860.5 -3145.15 9407.57 184371 -30591.1 94891.3)
(69233.2 3137.64 -9450.65 183718 -30458 94554.9)
(-727887 4346.6 -16941.4 -68903.6 -31172.2 -121602)
(-741194 -17243.4 17243.6 -97079.4 -36371.2 -96683.6)
(122934 -9580.69 9557.84 133113 -35881.5 133351)
(121079 9587.57 -9565.32 132666 -35733.6 132900)
(-748695 17056.7 -17055.3 -96375.6 -35890.8 -95991.4)
(-918335 -25495.7 16970 -959589 -25970.8 -279855)
(-76069.4 -12774 9412.49 -783666 -26163.9 -74975.2)
(-77471.8 12987.2 -9523.05 -780596 -26067.1 -74514.5)
(-928735 25429 -16857.5 -948921 -25684.3 -277710)
(-636877 11823.3 2528.69 -16813.5 -39938 -131001)
(28785.7 -1731.31 1383.97 165190 -50866.2 76359.2)
(27845.1 2293.97 -1458.14 165487 -50940.6 76199.7)
(-646835 -11890.7 -2531.44 -15263.7 -40229 -131254)
(-667837 1291.54 5007.31 -82099.9 -34883 -139508)
(-6060.3 -354.63 3092.37 153117 -40501.9 82088.5)
(-7510.13 580.459 -3227.06 152835 -40549.8 81669.6)
(-678205 -1197.33 -5015.06 -82916.1 -35062.8 -140289)
(-670672 97.0465 5267.86 -79236.4 -31008.1 -126169)
(-11885.1 -89.5937 3309.8 149547 -32657 93651.2)
(-13313.6 238.225 -3440.71 149116 -32657.4 93232.5)
(-680513 -3.72727 -5272.56 -79872.8 -31030 -126632)
(-674679 1037.51 4899.98 -76139.5 -30011.2 -114517)
(-10213.2 671.476 3065.96 152885 -29716.3 107168)
(-11600.1 -571.393 -3156.07 152395 -29663 106736)
(-683851 -970.089 -4890.54 -76555.9 -29866.9 -114758)
(-683541 628.903 4624.1 -78029.6 -31935.9 -102968)
(-2292.74 360.225 2948.61 159305 -31001 125595)
(-3652.3 -319.869 -2981.32 158767 -30898.2 125114)
(-691854 -594.67 -4593.64 -78221.7 -31637.1 -103034)
(-695938 -4463.95 4474.81 -83219.7 -34278.2 -84753.1)
(23677.7 -3046.61 2999.13 156674 -33286.2 155025)
(22295.2 3045.18 -2981.22 156119 -33148.7 154465)
(-703315 4423.68 -4426.11 -83119.8 -33859.6 -84681.7)
(-720418 -17133.6 4427.63 -121777 -30952.6 -68034.2)
(70958.2 -9433.08 3122.77 95572.9 -30047.4 184963)
(69330.8 9477.25 -3110.84 95239.8 -29912.1 184306)
(-727800 16952.4 -4385.83 -120924 -30513.1 -68022.9)
(-896891 -25119.3 4555.86 -932855 -14479.6 -279218)
(-118850 -12543.2 3049.01 -760523 -13662.3 -48766.3)
(-120005 12799.3 -3210.42 -757264 -13596.7 -48361.2)
(-906696 25067 -4598.25 -921739 -14258.5 -277295)
(-616212 14675.8 -483.378 -5339.78 -33379.4 -129886)
(17184.3 928.087 -488.193 161249 -38867.1 70189.8)
(16253.8 -308.95 422.259 161546 -38943.8 70043.9)
(-627193 -14713.2 447.76 -4235.69 -33622.6 -130505)
(-652715 2252.05 -324.742 -74068.3 -32561.4 -141279)
(-26894.9 450.435 -463.3 151106 -35422.6 77474.4)
(-28322.1 -180.182 345.825 150843 -35462 77043.8)
(-664075 -2137.31 266.243 -75233.6 -32688.2 -142497)
(-657127 77.8607 -216.389 -74912.5 -31339.4 -125423)
(-35894.9 -101.763 -404.317 144598 -32192.9 91657.7)
(-37296.7 298.019 291.362 144208 -32189.6 91218.7)
(-667943 34.2487 159.513 -75816.8 -31344.8 -126337)
(-661160 756.997 -357.68 -77479.2 -30960.6 -110095)
(-34605.6 511.822 -482.578 141179 -30674.3 108372)
(-35966 -363.701 405.096 140748 -30627 107928)
(-671293 -671.749 314.006 -78106.5 -30838.9 -110750)
(-670020 374.679 -578.273 -86207.5 -31034.5 -96036.9)
(-26664.3 293.105 -567.703 139807 -30285.3 129207)
(-27998.5 -204.458 536.912 139344 -30197.9 128728)
(-679277 -322.79 551.874 -86555.3 -30790.5 -96459.3)
(-683128 -4573.88 -755.302 -96763.6 -29202.9 -80366.2)
(-1579.53 -2959.56 -571.206 131700 -28368.5 156227)
(-2938.43 3011.25 573.323 131233 -28255.8 155687)
(-691426 4553.25 740.545 -96766.3 -28867.9 -80580)
(-709408 -16823.8 -765.702 -134237 -21975.5 -76030.2)
(43416.1 -9114.88 -466.226 73030.9 -21131.7 173921)
(41807.3 9216.75 439.536 72779.3 -21027.6 173314)
(-717650 16665.6 737.651 -133461 -21636.3 -76195)
(-884150 -24388.3 -691.776 -918298 -7937.27 -298230)
(-139791 -12075.5 -593.371 -750129 -7098.02 -67810.4)
(-140921 12367 387.552 -746790 -7052.02 -67297.7)
(-894497 24358.3 584.835 -907113 -7771.33 -296219)
(-604306 14692.9 -764.014 -125.899 -27089.9 -125819)
(14978.5 1070.27 -687.813 158841 -28842.8 65681.5)
(14035.4 -401.921 629.639 159140 -28905.5 65554.5)
(-616150 -14716.1 730.541 637.467 -27275.2 -126732)
(-641362 2294.2 -1249.29 -69579.1 -27338.7 -136946)
(-31038.9 501.47 -1153.12 148189 -28188.9 71359.4)
(-32486.7 -194.757 1049.35 147938 -28216.9 70949.1)
(-653595 -2166.46 1192.48 -71047 -27422.7 -138470)
(-646326 42.4744 -1330.6 -72580.1 -27169.3 -119922)
(-41178.6 -116.617 -1234.09 139851 -27350.3 86277.2)
(-42601 351.973 1132.26 139492 -27344.9 85855.5)
(-658007 84.6227 1273.61 -73723.8 -27164 -121148)
(-650568 622.081 -1396.41 -78311.6 -26796.7 -103426)
(-40260.3 457.909 -1256.71 133046 -26515 104020)
(-41640.6 -264.141 1181.53 132660 -26477.8 103598)
(-661552 -519.396 1349.45 -79125 -26702.2 -104371)
(-659513 217.972 -1511.37 -89858.4 -25542.4 -89791.2)
(-32386.2 263.99 -1284.27 128496 -25025.2 124343)
(-33740.2 -124.668 1242.55 128091 -24959.6 123897)
(-669606 -146.86 1476.89 -90347.8 -25361.4 -90460)
(-672957 -4611.11 -1604.54 -101065 -21909.8 -78187.8)
(-7682.8 -2874.91 -1274.46 119800 -21346.8 147270)
(-9061.93 2979.1 1251.17 119398 -21264.4 146781)
(-682074 4610.8 1576.38 -101175 -21665.6 -78588.6)
(-700008 -16538 -1580.89 -136319 -14673 -81456)
(36411.4 -8834.49 -1200.57 64455.1 -14113.2 157611)
(34781.2 8983.88 1142.08 64263.4 -14039.5 157077)
(-709033 16400.5 1537.68 -135630 -14430.3 -81730.3)
(-873200 -23828.7 -1565.06 -908409 -4769.64 -305199)
(-142465 -11710.5 -1326.18 -743246 -4229.22 -83517.1)
(-143619 12029.8 1112.8 -739874 -4196.87 -82916)
(-884160 23818.8 1455.28 -897267 -4649.47 -303170)
(-598134 14189.6 -463.149 1025.31 -19993.8 -123101)
(15144 678.909 -407.591 156962 -20218.4 63453.8)
(14193.2 22.2608 363.746 157265 -20262.6 63333.1)
(-610566 -14202.7 439.614 1562.15 -20122.1 -124233)
(-634380 2086.64 -861.597 -68186.9 -20397.4 -133150)
(-30192 336.061 -773.768 145591 -20375.2 67837)
(-31654.2 -1.60512 694.452 145348 -20393.4 67434.8)
(-647210 -1949.02 820.697 -69862.9 -20450.7 -134894)
(-639275 -34.7718 -983.535 -72213.2 -20470.1 -115702)
(-40306 -158.886 -874.73 136203 -20330.9 82519.8)
(-41743.5 424.234 794.848 135863 -20325.6 82106.7)
(-651549 173.252 941.603 -73525.2 -20461.3 -117144)
(-643621 555.281 -1032.36 -79240.7 -19988.8 -99442.5)
(-39511.4 446.759 -888.957 128116 -19742.7 99926)
(-40906.7 -218.09 826.083 127761 -19716.3 99515.1)
(-655188 -439.216 996.713 -80183.6 -19921.1 -100590)
(-652683 151.534 -1083.21 -91436.2 -18364.4 -87353.2)
(-31740 271.402 -888.627 122864 -18049.1 118726)
(-33108.8 -93.6327 846.554 122499 -18004.3 118300)
(-663346 -65.7229 1055.26 -92021.7 -18240.3 -88196.8)
(-666339 -4603.3 -1116.58 -102069 -14882.7 -78993)
(-7264.64 -2804 -869.73 114862 -14568.4 138499)
(-8658.62 2946.32 835.933 114504 -14513.3 138042)
(-676015 4617.84 1091.21 -102248 -14717.9 -79530.2)
(-693729 -16356.5 -1091.37 -136061 -9394.68 -85954)
(36451.7 -8662.2 -828.909 61421.8 -9106.43 145418)
(34806.3 8843.89 763.345 61272.7 -9057.92 144928)
(-703295 16233.4 1052.6 -135428 -9232.56 -86319.6)
(-865927 -23517.1 -1090.66 -902878 -2969.35 -309020)
(-140138 -11508.7 -917.625 -739397 -2704.38 -94050.8)
(-141310 11847.7 735.121 -736010 -2682.85 -93403.1)
(-877348 23522 1001.93 -891792 -2888.09 -307026)
(-595259 13829.2 -207.359 505.064 -12232.1 -121853)
(15427.5 396.853 -171.892 155436 -12099.1 62550.3)
(14473.5 323.144 145.294 155742 -12124.9 62429.8)
(-608045 -13835.8 193.768 906.072 -12306.5 -123128)
(-630800 1924.6 -404.493 -68408.8 -12515.7 -131148)
(-29000.6 208.417 -349.061 143627 -12321.9 66417.7)
(-30469.4 143.738 300.031 143390 -12332 66014.9)
(-643989 -1780.39 380.427 -70209.9 -12545 -133035)
(-635504 -101.333 -483.511 -72805.5 -12575.2 -113697)
(-38806.3 -195.067 -410.678 133769 -12400.8 80665.1)
(-40250.9 480.019 359.833 133441 -12397 80252.4)
(-648134 247.266 458.256 -74219.8 -12567.6 -115280)
(-639862 518.642 -516.662 -80170.3 -12160.6 -98064.1)
(-37983.7 445.994 -421.261 125375 -11993.9 97358.5)
(-39386 -195.004 378.8 125039 -11977.9 96950.4)
(-651778 -394.046 494.4 -81192.1 -12119 -99343.2)
(-649007 127.984 -538.682 -92273.3 -10920.3 -87368.7)
(-30284.1 287.324 -416.642 120244 -10754.6 114811)
(-31659.9 -85.6255 384.344 119903 -10728.4 114393)
(-660011 -33.0461 520.069 -92916.6 -10846.8 -88328.8)
(-662795 -4587.8 -548.274 -102349 -8590.01 -80967.9)
(-5955.92 -2758.73 -402.929 112888 -8443.93 132736)
(-7357.11 2924.01 372.68 112558 -8412.05 132292)
(-672806 4611.27 530 -102570 -8493.66 -81601.4)
(-690336 -16264.3 -533.622 -135769 -5293.43 -89549.2)
(37581.4 -8577.76 -385.974 60319.9 -5175.2 138220)
(35928.5 8778.33 333.327 60197.8 -5147.38 137750)
(-700230 16149.7 505.914 -135168 -5199.21 -89988.5)
(-861996 -23375.1 -532.324 -900193 -1663.3 -311909)
(-137963 -11419.3 -434.16 -737509 -1560.96 -100197)
(-139147 11770.7 308.394 -734115 -1548.5 -99529.8)
(-873708 23389.3 473.396 -889149 -1615.74 -309965)
(-594163 13671.4 -56.1562 -107.947 -4113.44 -121423)
(15521.1 279.31 -43.7436 154548 -4039.84 62250.7)
(14566 448.818 34.8695 154857 -4048.25 62129.3)
(-607115 -13675 51.7104 230.55 -4137.64 -122767)
(-629371 1853.14 -110.488 -68872.5 -4210.26 -130390)
(-28423.8 154.271 -91.6993 142563 -4124.53 66008.4)
(-29895.1 205.988 75.0755 142329 -4127.73 65603.5)
(-642729 -1705.83 102.501 -70731.1 -4219.43 -132349)
(-633965 -134.433 -135.389 -73363 -4227.1 -113038)
(-38031.5 -212.035 -110.502 132553 -4156.78 79983.5)
(-39478.8 506.191 92.8377 132231 -4155.36 79569.4)
(-646761 283.868 126.834 -74824.8 -4223.94 -114692)
(-638312 501.508 -146.991 -80750.5 -4065.22 -97839)
(-37163.7 446.354 -114.417 124150 -4006.63 96200.5)
(-38568.8 -184.989 98.9947 123822 -4001.22 95792.1)
(-650391 -372.973 139.196 -81809.4 -4050.9 -99184.6)
(-647494 120.236 -153.521 -92692.9 -3612.14 -87896.1)
(-29494.5 296.729 -112.719 119200 -3560.68 112926)
(-30873.1 -84.1241 100.024 118871 -3551.93 112509)
(-658658 -21.1741 146.658 -93363.5 -3587.42 -88916.6)
(-661344 -4579.16 -155.595 -102482 -2807.02 -82376.2)
(-5237.72 -2738.47 -108.294 112173 -2765.57 130033)
(-6641.85 2913.97 95.5239 111857 -2755.03 129594)
(-671511 4606.56 148.522 -102723 -2774.9 -83062.2)
(-688944 -16227.9 -151.196 -135679 -1716.5 -91564.9)
(38222.8 -8545.92 -104.241 59935.7 -1686.52 134994)
(36566.8 8754.67 83.1896 59826.6 -1677.35 134531)
(-698991 16117 140.628 -135093 -1685.18 -92048.3)
(-860373 -23323.9 -150.141 -899139 -538.463 -313568)
(-136933 -11388.5 -119.163 -736759 -513.894 -102974)
(-138121 11745.5 72.9412 -733362 -509.762 -102301)
(-872226 23342.5 128.813 -888116 -522.6 -311660)
)
;

boundaryField
{
    interface
    {
        type            calculated;
        value           nonuniform List<symmTensor> 
192
(
(-95.3051 0.410804 6.76745 1.04812e+06 -26677.8 451883)
(-96.9269 0.34523 7.9024 1.01002e+06 -13598.1 450926)
(-97.2174 0.222906 7.89649 1.03807e+06 -8674.01 456726)
(-97.4884 0.0881891 7.73421 1.06169e+06 -7447.82 462958)
(-97.1701 -0.181135 7.44945 1.09091e+06 -8980.23 472379)
(-97.8087 -0.765828 7.02558 1.14493e+06 -14744.9 492023)
(-93.1746 -1.26694 6.28771 1.21515e+06 -25990 535943)
(-99.3539 -3.95086 5.51467 546590 -30337.4 546728)
(-86.6799 0.445956 3.67207 1.11094e+06 -49858.4 1.00822e+06)
(-87.4592 0.316244 4.35988 1.05901e+06 -31464.2 1.00857e+06)
(-87.6153 0.131647 4.35087 1.07219e+06 -23829 1.02051e+06)
(-87.9649 -0.0789465 4.23863 1.09098e+06 -21828.4 1.03457e+06)
(-87.8119 -0.436418 4.04137 1.11631e+06 -24760.5 1.05732e+06)
(-89.135 -1.15467 3.75128 1.15862e+06 -31600.6 1.10511e+06)
(-84.5683 -1.72728 3.3024 1.20379e+06 -36371.2 1.20419e+06)
(-93.1868 -4.71629 2.84759 535752 -25970.8 1.21549e+06)
(-92.3011 0.514198 2.95728 1.05731e+06 -39938 943122)
(-93.2616 0.327163 3.49579 1.00542e+06 -34883 948013)
(-93.4239 0.0680581 3.496 1.0125e+06 -31008.1 965569)
(-93.7567 -0.215228 3.41615 1.02359e+06 -30011.2 985208)
(-93.4663 -0.658547 3.26715 1.03875e+06 -31935.9 1.01381e+06)
(-94.6636 -1.49431 3.04118 1.06788e+06 -34278.2 1.06634e+06)
(-89.1857 -2.17064 2.70405 1.10574e+06 -30952.6 1.15948e+06)
(-97.8679 -5.43895 2.32874 492069 -14479.6 1.14571e+06)
(-91.3482 0.545357 2.04481 1.03011e+06 -33379.4 905563)
(-92.1485 0.326309 2.42855 977161 -32561.4 909951)
(-92.2401 0.0235516 2.43078 981255 -31339.4 930745)
(-92.5794 -0.307727 2.37937 986797 -30960.6 954180)
(-92.2954 -0.80997 2.28004 995355 -31034.5 985525)
(-93.5895 -1.71781 2.12794 1.01985e+06 -29202.9 1.03625e+06)
(-87.9709 -2.45028 1.90951 1.06015e+06 -21975.5 1.11836e+06)
(-97.3294 -5.8443 1.66965 473089 -7937.27 1.09316e+06)
(-91.7797 0.573222 1.46424 1.01644e+06 -27089.9 890747)
(-92.5872 0.331526 1.74327 963015 -27338.7 895648)
(-92.6584 -0.0025237 1.75013 965233 -27169.3 917891)
(-93.0095 -0.366697 1.72077 967793 -26796.7 942678)
(-92.7185 -0.910039 1.65905 973732 -25542.4 973799)
(-94.0232 -1.86637 1.56146 997951 -21909.8 1.02083e+06)
(-88.2429 -2.63901 1.42149 1.04099e+06 -14673 1.09585e+06)
(-97.7752 -6.11388 1.26443 464918 -4769.64 1.06813e+06)
(-91.956 0.596467 0.981952 1.00842e+06 -19993.8 884291)
(-92.7581 0.339808 1.17384 954893 -20397.4 889930)
(-92.8094 -0.0145908 1.18389 956088 -20470.1 912600)
(-93.1676 -0.399698 1.17128 957459 -19988.8 937258)
(-92.8702 -0.969812 1.13863 962895 -18364.4 966978)
(-94.173 -1.95706 1.08341 987893 -14882.7 1.01097e+06)
(-88.3009 -2.75544 1.00288 1.03237e+06 -9394.68 1.08247e+06)
(-97.9432 -6.28052 0.911533 460820 -2969.35 1.05468e+06)
(-92.0419 0.616078 0.566504 1.00361e+06 -12232.1 881254)
(-92.8461 0.350504 0.681476 950089 -12515.7 887350)
(-92.8865 -0.0157523 0.692486 950851 -12575.2 909960)
(-93.251 -0.41271 0.691436 951926 -12160.6 934032)
(-92.9528 -0.998459 0.68008 957540 -10920.3 962444)
(-94.2537 -2.00348 0.656249 983201 -8590.01 1.00458e+06)
(-88.3315 -2.81669 0.620369 1.02831e+06 -5293.43 1.07453e+06)
(-98.0377 -6.37114 0.576708 458706 -1663.3 1.04699e+06)
(-92.0698 0.629403 0.18624 1.00131e+06 -4113.44 880000)
(-92.8757 0.360207 0.225418 947801 -4210.26 886284)
(-92.9122 -0.0108455 0.230681 948430 -4227.1 908755)
(-93.2808 -0.412587 0.232221 949493 -4065.22 932405)
(-92.9891 -1.00538 0.230741 955305 -3612.14 960102)
(-94.2826 -2.01759 0.225158 981298 -2807.02 1.0014e+06)
(-88.3513 -2.83848 0.216593 1.02664e+06 -1716.5 1.07076e+06)
(-98.0738 -6.40595 0.204238 457807 -538.463 1.04338e+06)
(556343 -15710.2 -11.3994 1.11345e+06 0.0558222 -34.1773)
(561679 -3278 -13.3444 1.07732e+06 -0.10382 -31.0375)
(564203 994.685 -13.3851 1.10423e+06 -0.159955 -30.9974)
(564569 1956.95 -13.2484 1.12573e+06 -0.227564 -32.1169)
(569505 912.009 -13.016 1.15301e+06 -0.298163 -34.1104)
(589500 -4495.44 -12.6967 1.20635e+06 -0.383261 -37.2898)
(640267 -16974.3 -12.2333 1.27841e+06 -0.423248 -41.2198)
(661495 -24513.9 -11.8734 616763 -0.512838 -46.5419)
(1.09443e+06 -15185.7 -9.71276 1.14506e+06 0.033934 -53.1463)
(1.11174e+06 -3130.75 -11.5185 1.12249e+06 -0.0275358 -52.758)
(1.11951e+06 413 -11.5545 1.14886e+06 -0.0476517 -52.8475)
(1.12423e+06 1375.67 -11.4487 1.17617e+06 -0.0625181 -53.1861)
(1.14044e+06 647.316 -11.2867 1.21027e+06 -0.0770301 -53.7588)
(1.19148e+06 -3051.15 -11.0809 1.26108e+06 -0.0964566 -54.6012)
(1.30678e+06 -9436.17 -10.8215 1.30774e+06 -0.111202 -55.5079)
(1.32845e+06 -12272.5 -10.6492 617427 -0.128609 -56.5828)
(1.08869e+06 15562.7 -9.84973 1.14103e+06 -0.108701 -47.571)
(1.10506e+06 3070.55 -11.6722 1.11797e+06 -0.0273965 -47.2734)
(1.11275e+06 -404.238 -11.7149 1.14408e+06 0.0441773 -47.3737)
(1.1175e+06 -1249.44 -11.606 1.17125e+06 0.0952588 -47.6956)
(1.13375e+06 -477.765 -11.4355 1.20524e+06 0.143611 -48.2887)
(1.18483e+06 3197.87 -11.2131 1.256e+06 0.191444 -49.1614)
(1.3001e+06 9539.57 -10.9324 1.30292e+06 0.238122 -50.331)
(1.32205e+06 12448 -10.7107 615505 0.258734 -51.6463)
(527864 15211.9 -11.3551 1.10013e+06 -0.235923 -51.9399)
(531545 3187.51 -13.3655 1.06114e+06 -0.0239828 -51.918)
(534121 -956.639 -13.4051 1.08775e+06 0.124478 -51.9414)
(534875 -1870.19 -13.262 1.10912e+06 0.232356 -51.9723)
(540365 -815.645 -13.0234 1.13627e+06 0.332568 -52.1048)
(560979 4534.11 -12.6914 1.18959e+06 0.433754 -52.1925)
(611644 16860.9 -12.216 1.26235e+06 0.515098 -52.5711)
(629929 24464.7 -11.8241 609828 0.600809 -52.5556)
(-5.81848 0.547016 7.10305 1.07405e+06 -27060.8 484051)
(-1.69853 0.411714 8.33914 1.03404e+06 -13761.1 483659)
(-1.44997 0.183394 8.3213 1.06156e+06 -8684.56 489172)
(-2.00765 -0.00271891 8.1531 1.08439e+06 -7366.06 494692)
(-3.56073 -0.322304 7.86937 1.11253e+06 -8829.74 503126)
(-4.76412 -0.930865 7.44978 1.16547e+06 -14529 521721)
(-10.7101 -1.41371 6.73138 1.23656e+06 -25704.5 565850)
(0.751776 -4.50325 6.0787 583694 -30070.1 583827)
(-32.2978 0.459463 3.47143 1.13039e+06 -50131.9 1.02621e+06)
(-31.4047 0.303899 4.20173 1.07579e+06 -31674.5 1.02612e+06)
(-31.3209 0.0791942 4.18021 1.0884e+06 -23859.4 1.03766e+06)
(-31.0773 -0.155489 4.07257 1.10639e+06 -21683.1 1.05092e+06)
(-31.032 -0.540492 3.89766 1.13056e+06 -24461.6 1.07247e+06)
(-29.2341 -1.2503 3.64589 1.17158e+06 -31172.2 1.11888e+06)
(-32.0016 -1.68217 3.26885 1.21734e+06 -35890.8 1.21772e+06)
(-10.6219 -5.14833 3.00634 565661 -25684.3 1.23687e+06)
(-30.9767 0.500011 2.95739 1.07701e+06 -40229 961018)
(-30.0856 0.29417 3.54025 1.02247e+06 -35062.8 965100)
(-29.879 0.012484 3.53779 1.02901e+06 -31030 982254)
(-29.3996 -0.28337 3.46046 1.03932e+06 -29866.9 1.00112e+06)
(-28.9862 -0.744732 3.32224 1.05335e+06 -31637.1 1.02854e+06)
(-26.5487 -1.55344 3.11161 1.0812e+06 -33859.6 1.07964e+06)
(-29.0997 -2.05327 2.81157 1.11952e+06 -30513.1 1.17242e+06)
(-4.53172 -5.85085 2.507 521766 -14258.5 1.16621e+06)
(-34.2556 0.530422 2.09678 1.05102e+06 -33622.6 924747)
(-33.5114 0.290004 2.51971 995493 -32688.2 928230)
(-33.279 -0.0347687 2.52045 999112 -31344.8 948591)
(-32.6075 -0.375301 2.46884 1.00392e+06 -30838.9 971278)
(-31.8364 -0.89301 2.37266 1.01138e+06 -30790.5 1.00148e+06)
(-28.7943 -1.76094 2.2243 1.03462e+06 -28867.9 1.05081e+06)
(-30.704 -2.29293 2.0261 1.07531e+06 -21636.3 1.13257e+06)
(-3.10449 -6.25065 1.82686 503824 -7771.33 1.11472e+06)
(-35.3697 0.559024 1.511 1.03837e+06 -27275.2 911005)
(-34.6085 0.294457 1.81631 982418 -27422.7 914995)
(-34.3066 -0.0610648 1.82275 984216 -27164 936792)
(-33.4685 -0.432182 1.79377 986082 -26702.2 960837)
(-32.4321 -0.989264 1.73435 990950 -25361.4 990838)
(-29.0142 -1.89631 1.63891 1.01393e+06 -21665.6 1.03652e+06)
(-30.5386 -2.45475 1.51256 1.05732e+06 -14430.3 1.11122e+06)
(-1.23149 -6.51615 1.3788 496616 -4649.47 1.09071e+06)
(-35.9043 0.584281 1.02434 1.03106e+06 -20122.1 905260)
(-35.1144 0.303296 1.23385 975027 -20450.7 909997)
(-34.7639 -0.0730845 1.2437 975836 -20461.3 932217)
(-33.8187 -0.464322 1.2311 976541 -19921.1 956134)
(-32.6207 -1.04774 1.19925 980924 -18240.3 984748)
(-28.9904 -1.97975 1.14427 1.00469e+06 -14717.9 1.02741e+06)
(-30.2682 -2.55595 1.07148 1.04951e+06 -9232.56 1.09862e+06)
(0.137671 -6.68307 0.992656 493209 -2888.09 1.07797e+06)
(-36.2225 0.605104 0.59342 1.02668e+06 -12306.5 902642)
(-35.4112 0.314325 0.718292 970665 -12545 907840)
(-35.0274 -0.0742493 0.729181 971060 -12567.6 930000)
(-34.0116 -0.476965 0.728152 971482 -12119 953331)
(-32.7088 -1.0759 0.717145 976054 -10846.8 980642)
(-28.9491 -2.02188 0.693271 1.0005e+06 -8493.66 1.02147e+06)
(-30.0645 -2.60817 0.662073 1.04595e+06 -5199.21 1.09112e+06)
(1.01773 -6.7742 0.625031 491525 -1615.74 1.07071e+06)
(-36.3711 0.618985 0.195434 1.02458e+06 -4137.64 901582)
(-35.5481 0.324257 0.23783 968585 -4219.43 906967)
(-35.1466 -0.069206 0.24308 968856 -4223.94 928989)
(-34.0952 -0.476537 0.244675 969272 -4050.9 951897)
(-32.7355 -1.0825 0.243332 974046 -3587.42 978493)
(-28.9239 -2.03342 0.23775 998824 -2774.9 1.01849e+06)
(-29.9388 -2.62516 0.230966 1.04451e+06 -1685.18 1.08756e+06)
(1.4424 -6.80874 0.220729 490833 -522.6 1.06729e+06)
(661556 10.3335 24507.7 -46.4815 -0.464739 616963)
(640343 10.6789 16970 -41.1242 -0.375471 1.27882e+06)
(589427 11.123 4555.86 -37.1463 -0.33085 1.2071e+06)
(568962 11.4198 -691.776 -33.8903 -0.238934 1.15488e+06)
(563158 11.6318 -1565.06 -31.7034 -0.166258 1.13116e+06)
(562083 11.7676 -1090.66 -30.1735 -0.0985239 1.11899e+06)
(562054 11.8422 -532.324 -29.212 -0.0453971 1.11214e+06)
(562104 11.8706 -150.141 -28.7606 -0.0117195 1.10891e+06)
(1.32847e+06 9.15873 12263.4 -56.5078 -0.103861 617513)
(1.30676e+06 9.3038 9412.49 -55.3855 -0.0878344 1.30786e+06)
(1.19118e+06 9.53513 3049.01 -54.416 -0.0715309 1.26126e+06)
(1.1394e+06 9.70934 -593.371 -53.4948 -0.0486088 1.21138e+06)
(1.12209e+06 9.83732 -1326.18 -52.7966 -0.0313285 1.18103e+06)
(1.11738e+06 9.91877 -917.625 -52.2702 -0.015894 1.16347e+06)
(1.11628e+06 9.96045 -434.16 -51.9239 -0.00425984 1.15405e+06)
(1.11602e+06 9.97345 -119.163 -51.738 0.000248288 1.14998e+06)
(1.32208e+06 9.21976 -12442.8 -51.5574 0.252101 615589)
(1.30007e+06 9.41379 -9523.05 -50.1767 0.23066 1.30303e+06)
(1.18452e+06 9.66596 -3210.42 -48.925 0.184472 1.25617e+06)
(1.13269e+06 9.85657 387.552 -47.9519 0.137756 1.20632e+06)
(1.11534e+06 9.9934 1112.8 -47.2259 0.0952143 1.17604e+06)
(1.11062e+06 10.0807 735.121 -46.7012 0.0593046 1.15853e+06)
(1.10951e+06 10.1258 308.394 -46.3638 0.0295938 1.14913e+06)
(1.10925e+06 10.1397 72.9412 -46.2064 0.00816526 1.14507e+06)
(629987 10.2808 -24459.5 -52.4586 0.569804 610019)
(611714 10.6568 -16857.5 -52.3953 0.482471 1.26274e+06)
(560896 11.1114 -4598.25 -51.9161 0.398399 1.1903e+06)
(539810 11.419 584.835 -51.7073 0.295492 1.13809e+06)
(533453 11.6342 1455.28 -51.4427 0.204459 1.11444e+06)
(531999 11.773 1001.93 -51.2155 0.12444 1.10232e+06)
(531738 11.8495 473.396 -51.0553 0.059676 1.09548e+06)
(531678 11.8777 128.813 -50.9655 0.0159701 1.09224e+06)
)
;
    }
    symmetry
    {
        type            symmetry;
    }
    bottom
    {
        type            calculated;
        value           nonuniform List<symmTensor> 
32
(
(-1.10623e+06 -30778.3 17858.1 -507103 -35016.4 -1.14536e+06)
(-769423 12760.4 11599.5 -96066.4 -55723.1 -241806)
(-724242 33294.8 2528.69 -62837.6 -40010.1 -218365)
(-702342 37868.6 -483.378 -50292.4 -32802.2 -216015)
(-689938 37557.1 -764.014 -44657.4 -26792.1 -211450)
(-683607 36632 -463.149 -43458 -19948.8 -208573)
(-680675 36034 -207.359 -43988.5 -12284.9 -207269)
(-679555 35777.7 -56.1562 -44601 -4145.27 -206815)
(-270410 -22944 8378.98 -188884 -12314.2 -851008)
(54765 -12322.5 5524.84 173354 -67882.3 54340.4)
(26753.6 -1304.03 1383.97 163155 -54395.9 74327.1)
(12947.4 2264.17 -488.193 154019 -40113.4 65952.9)
(10335.4 2339.33 -687.813 150657 -29213.9 61038.3)
(10606.1 1792.09 -407.591 149021 -20372.5 58915.9)
(11058.7 1429.29 -171.892 147888 -12202 58181.5)
(11251.1 1283.7 -43.7436 147230 -4080.61 57980.7)
(-270964 23841.1 -8597.93 -187763 -12484.9 -847841)
(53688.5 13243.5 -5635.92 173826 -67915.9 54337.6)
(25846.6 2226.78 -1458.14 163672 -54478.3 74201.2)
(12045 -1281.16 422.259 154524 -40209.6 65835.1)
(9418.59 -1300.72 629.639 151161 -29295.2 60937.7)
(9681.31 -717.221 363.746 149528 -20430.1 58821.3)
(10130.4 -333.955 145.294 148398 -12235.5 58086.8)
(10321.5 -179.447 34.8695 147742 -4091.56 57884.8)
(-1.12162e+06 29630.2 -17846.6 -505911 -35651.6 -1.13935e+06)
(-783377 -13323.1 -11501.5 -96729.6 -55980 -245645)
(-738658 -33690.2 -2531.44 -64125.3 -40349.3 -223077)
(-717899 -38231.3 447.76 -52185.2 -33116.4 -221211)
(-706420 -37909.4 730.541 -46958.3 -27039.6 -217002)
(-700713 -36975.9 439.614 -46022.1 -20121.1 -214380)
(-698156 -36371.6 193.768 -46711.1 -12384.7 -213240)
(-697212 -36112.3 51.7104 -47397.2 -4177.72 -212865)
)
;
    }
}


// ************************************************************************* //
