/*--------------------------------*- C++ -*----------------------------------*\
| =========                 |                                                 |
| \\      /  F ield         | OpenFOAM: The Open Source CFD Toolbox           |
|  \\    /   O peration     | Version:  v1912                                 |
|   \\  /    A nd           | Website:  www.openfoam.com                      |
|    \\/     M anipulation  |                                                 |
\*---------------------------------------------------------------------------*/
FoamFile
{
    version     2.0;
    format      ascii;
    class       volScalarField;
    location    "0.07/solid";
    object      T;
}
// * * * * * * * * * * * * * * * * * * * * * * * * * * * * * * * * * * * * * //

dimensions      [0 0 0 1 0 0 0];


internalField   nonuniform List<scalar> 
256
(
292.473
292.737
292.737
292.463
292.456
292.728
292.728
292.445
292.455
292.727
292.728
292.445
292.454
292.727
292.727
292.444
292.452
292.726
292.726
292.442
292.447
292.724
292.724
292.437
292.43
292.713
292.713
292.42
292.11
292.413
292.413
292.101
292.752
292.992
292.991
292.741
292.744
292.991
292.991
292.732
292.744
292.991
292.991
292.732
292.743
292.991
292.991
292.732
292.742
292.991
292.991
292.731
292.739
292.991
292.991
292.728
292.728
292.986
292.986
292.717
292.43
292.713
292.713
292.42
292.763
292.996
292.996
292.752
292.755
292.996
292.996
292.744
292.755
292.996
292.996
292.743
292.754
292.996
292.996
292.743
292.753
292.996
292.996
292.742
292.751
292.996
292.995
292.739
292.739
292.991
292.991
292.728
292.447
292.724
292.724
292.437
292.766
292.996
292.996
292.754
292.758
292.996
292.996
292.746
292.758
292.996
292.996
292.746
292.757
292.996
292.996
292.745
292.756
292.996
292.996
292.744
292.753
292.996
292.996
292.742
292.742
292.991
292.991
292.731
292.452
292.726
292.726
292.442
292.767
292.996
292.996
292.755
292.759
292.996
292.996
292.747
292.759
292.996
292.996
292.747
292.758
292.996
292.996
292.746
292.757
292.996
292.996
292.745
292.754
292.996
292.996
292.743
292.743
292.991
292.991
292.732
292.454
292.727
292.727
292.444
292.768
292.996
292.996
292.756
292.76
292.996
292.996
292.748
292.759
292.996
292.996
292.747
292.759
292.996
292.996
292.747
292.758
292.996
292.996
292.746
292.755
292.996
292.996
292.743
292.744
292.991
292.991
292.732
292.455
292.727
292.728
292.445
292.768
292.996
292.996
292.756
292.76
292.996
292.996
292.748
292.76
292.996
292.996
292.747
292.759
292.996
292.996
292.747
292.758
292.996
292.996
292.746
292.755
292.996
292.996
292.743
292.744
292.991
292.991
292.732
292.455
292.728
292.728
292.445
292.768
292.996
292.996
292.756
292.76
292.996
292.996
292.748
292.76
292.996
292.996
292.748
292.759
292.996
292.996
292.747
292.758
292.996
292.996
292.746
292.755
292.996
292.996
292.743
292.744
292.991
292.991
292.732
292.456
292.728
292.728
292.445
)
;

boundaryField
{
    interface
    {
        type            fixedValue;
        value           nonuniform List<scalar> 
192
(
289.241
289.224
289.209
289.18
289.123
289.008
288.761
288.044
289.967
289.956
289.942
289.915
289.861
289.748
289.498
288.761
290.224
290.213
290.199
290.172
290.117
290.003
289.748
289.008
290.342
290.331
290.317
290.289
290.233
290.117
289.86
289.123
290.399
290.388
290.373
290.345
290.289
290.172
289.915
289.18
290.427
290.416
290.402
290.373
290.316
290.199
289.942
289.209
290.44
290.429
290.415
290.387
290.33
290.212
289.955
289.223
290.446
290.435
290.421
290.392
290.335
290.217
289.96
289.229
289.076
289.059
289.044
289.017
288.963
288.851
288.605
287.868
289.7
289.689
289.677
289.653
289.603
289.498
289.252
288.494
289.714
289.704
289.692
289.668
289.619
289.513
289.267
288.509
289.114
289.099
289.086
289.059
289.005
288.894
288.646
287.908
289.195
289.179
289.166
289.139
289.084
288.971
288.722
287.984
289.935
289.924
289.912
289.888
289.837
289.727
289.476
288.722
290.191
290.181
290.17
290.145
290.093
289.982
289.727
288.971
290.305
290.295
290.283
290.258
290.206
290.093
289.837
289.084
290.359
290.349
290.337
290.311
290.258
290.145
289.888
289.139
290.384
290.375
290.363
290.337
290.283
290.17
289.913
289.166
290.397
290.387
290.375
290.349
290.295
290.181
289.924
289.179
290.402
290.392
290.38
290.354
290.3
290.186
289.929
289.185
287.868
288.604
288.851
288.962
289.017
289.044
289.057
289.063
288.494
289.252
289.497
289.603
289.652
289.676
289.688
289.692
288.509
289.267
289.513
289.619
289.668
289.692
289.703
289.708
287.908
288.646
288.894
289.005
289.059
289.086
289.099
289.104
)
;
    }
    symmetry
    {
        type            symmetry;
    }
    bottom
    {
        type            fixedValue;
        value           uniform 293;
    }
}


// ************************************************************************* //
