/*--------------------------------*- C++ -*----------------------------------*\
| =========                 |                                                 |
| \\      /  F ield         | OpenFOAM: The Open Source CFD Toolbox           |
|  \\    /   O peration     | Version:  v1912                                 |
|   \\  /    A nd           | Website:  www.openfoam.com                      |
|    \\/     M anipulation  |                                                 |
\*---------------------------------------------------------------------------*/
FoamFile
{
    version     2.0;
    format      ascii;
    class       surfaceScalarField;
    location    "0.92/fluid";
    object      meshPhi;
}
// * * * * * * * * * * * * * * * * * * * * * * * * * * * * * * * * * * * * * //

dimensions      [0 3 -1 0 0 0 0];
oriented        oriented;


internalField   nonuniform List<scalar> 
41600
(
1.28726e-13
-3.60364e-13
1.35721e-13
-1.40207e-13
2.46336e-13
-1.04964e-12
4.00109e-13
-4.13542e-13
3.58019e-13
-1.68883e-12
6.59586e-13
-6.82372e-13
4.686e-13
-2.30006e-12
9.31451e-13
-9.64895e-13
5.82888e-13
-2.89799e-12
1.23131e-12
-1.27767e-12
7.06151e-13
-3.48886e-12
1.57386e-12
-1.63654e-12
8.44816e-13
-4.06828e-12
1.97336e-12
-2.05724e-12
1.00755e-12
-4.61741e-12
2.44373e-12
-2.55579e-12
1.20722e-12
-5.09588e-12
2.99843e-12
-3.14876e-12
1.46473e-12
-5.42947e-12
3.64992e-12
-3.85373e-12
1.81706e-12
-5.48786e-12
4.4093e-12
-4.69109e-12
2.33409e-12
-5.043e-12
5.28771e-12
-5.69059e-12
3.14944e-12
-3.68993e-12
6.30251e-12
-6.91069e-12
4.4874e-12
-7.30524e-13
7.484e-12
-8.48001e-12
6.40545e-12
4.51257e-12
8.80201e-12
-1.05225e-11
1.29764e-11
1.10105e-11
-1.57214e-11
3.82585e-13
-7.10042e-13
4.0357e-13
-4.16909e-13
7.31976e-13
-2.0686e-12
1.18964e-12
-1.22958e-12
1.0634e-12
-3.32978e-12
1.96081e-12
-2.02851e-12
1.39096e-12
-4.53811e-12
2.7683e-12
-2.8676e-12
1.72867e-12
-5.72399e-12
3.65828e-12
-3.79584e-12
2.09177e-12
-6.90217e-12
4.67425e-12
-4.86005e-12
2.49851e-12
-8.06826e-12
5.85829e-12
-6.10668e-12
2.97287e-12
-9.19231e-12
7.25149e-12
-7.58279e-12
3.54915e-12
-1.02079e-11
8.89309e-12
-9.33649e-12
4.28029e-12
-1.0994e-11
1.08181e-11
-1.14169e-11
5.25402e-12
-1.13482e-11
1.30534e-11
-1.38756e-11
6.62303e-12
-1.09507e-11
1.56143e-11
-1.67742e-11
8.64804e-12
-9.33888e-12
1.85022e-11
-2.02077e-11
1.16894e-11
-5.98759e-12
2.16874e-11
-2.434e-11
1.561e-11
-9.54048e-13
2.49402e-11
-2.9156e-11
5.07951e-12
2.7439e-11
-3.5031e-11
6.25964e-13
-1.03859e-12
6.60964e-13
-6.82795e-13
1.19711e-12
-3.0268e-12
1.94807e-12
-2.01339e-12
1.73777e-12
-4.87571e-12
3.20981e-12
-3.32047e-12
2.27034e-12
-6.65275e-12
4.52944e-12
-4.69158e-12
2.81697e-12
-8.40588e-12
5.98193e-12
-6.20623e-12
3.40134e-12
-1.01622e-11
7.63786e-12
-7.94035e-12
4.05103e-12
-1.19246e-11
9.56553e-12
-9.9691e-12
4.80072e-12
-1.36644e-11
1.18316e-11
-1.23684e-11
5.69682e-12
-1.53107e-11
1.44992e-11
-1.52148e-11
6.80463e-12
-1.67323e-11
1.76229e-11
-1.85833e-11
8.21959e-12
-1.77151e-11
2.12383e-11
-2.25431e-11
1.00838e-11
-1.79433e-11
2.53454e-11
-2.71523e-11
1.25918e-11
-1.70174e-11
2.98802e-11
-3.24499e-11
1.59087e-11
-1.46072e-11
3.46541e-11
-3.8425e-11
1.95937e-11
-1.10044e-11
3.91681e-11
-4.46632e-11
-6.99788e-12
4.2767e-11
-5.20336e-11
8.52627e-13
-1.33534e-12
9.01629e-13
-9.31353e-13
1.62954e-12
-3.89337e-12
2.65672e-12
-2.74562e-12
2.36282e-12
-6.27742e-12
4.37527e-12
-4.52571e-12
3.08177e-12
-8.5781e-12
6.16955e-12
-6.38967e-12
3.81512e-12
-1.08626e-11
8.14054e-12
-8.44452e-12
4.59304e-12
-1.31744e-11
1.03832e-11
-1.07923e-11
5.44953e-12
-1.55309e-11
1.29897e-11
-1.3534e-11
6.42528e-12
-1.79183e-11
1.605e-11
-1.67715e-11
7.57067e-12
-2.02818e-11
1.96501e-11
-2.06072e-11
8.94853e-12
-2.25122e-11
2.3864e-11
-2.51395e-11
1.06357e-11
-2.44274e-11
2.87389e-11
-3.04528e-11
1.27199e-11
-2.57563e-11
3.42662e-11
-3.65989e-11
1.52743e-11
-2.6146e-11
4.03314e-11
-4.35611e-11
1.82679e-11
-2.52529e-11
4.66196e-11
-5.11801e-11
2.11937e-11
-2.31222e-11
5.24037e-11
-5.87613e-11
-2.00801e-11
5.67147e-11
-6.68578e-11
1.05729e-12
-1.58979e-12
1.12007e-12
-1.15689e-12
2.01898e-12
-4.63763e-12
3.29925e-12
-3.4093e-12
2.92319e-12
-7.48538e-12
5.4297e-12
-5.61572e-12
3.80451e-12
-1.02461e-11
7.64873e-12
-7.92045e-12
4.69649e-12
-1.3007e-11
1.00796e-11
-1.0454e-11
5.63371e-12
-1.58306e-11
1.28379e-11
-1.33405e-11
6.65406e-12
-1.87548e-11
1.6036e-11
-1.67027e-11
7.80099e-12
-2.17899e-11
1.97845e-11
-2.06645e-11
9.12491e-12
-2.49139e-11
2.419e-11
-2.53513e-11
1.06824e-11
-2.80635e-11
2.9348e-11
-3.08848e-11
1.25307e-11
-3.11213e-11
3.53255e-11
-3.73708e-11
1.47127e-11
-3.38957e-11
4.21276e-11
-4.48736e-11
1.72161e-11
-3.60902e-11
4.96315e-11
-5.33627e-11
1.98861e-11
-3.72705e-11
5.74505e-11
-6.25966e-11
2.21926e-11
-3.70018e-11
6.46308e-11
-7.16306e-11
-3.47011e-11
6.98519e-11
-8.06795e-11
1.23592e-12
-1.79193e-12
1.31191e-12
-1.35488e-12
2.35763e-12
-5.2302e-12
3.86262e-12
-3.99096e-12
3.40744e-12
-8.45148e-12
6.35125e-12
-6.56787e-12
4.42344e-12
-1.15893e-11
8.93531e-12
-9.25112e-12
5.44214e-12
-1.47499e-11
1.17556e-11
-1.21897e-11
6.50054e-12
-1.80154e-11
1.49438e-11
-1.55248e-11
7.63835e-12
-2.14462e-11
1.86277e-11
-1.93954e-11
8.89991e-12
-2.50814e-11
2.29336e-11
-2.39424e-11
1.03352e-11
-2.8939e-11
2.79853e-11
-2.93094e-11
1.19985e-11
-3.30145e-11
3.3899e-11
-3.56397e-11
1.39431e-11
-3.72779e-11
4.07691e-11
-4.3067e-11
1.62081e-11
-4.16632e-11
4.86392e-11
-5.1694e-11
1.87835e-11
-4.60325e-11
5.74376e-11
-6.15403e-11
2.15296e-11
-5.00695e-11
6.68147e-11
-7.24047e-11
2.39185e-11
-5.30756e-11
7.56986e-11
-8.32173e-11
-5.3357e-11
8.24915e-11
-9.40892e-11
1.3859e-12
-1.9327e-12
1.47409e-12
-1.52216e-12
2.64057e-12
-5.6444e-12
4.3378e-12
-4.48125e-12
3.80856e-12
-9.13169e-12
7.12485e-12
-7.3666e-12
4.92963e-12
-1.25449e-11
1.00076e-11
-1.03592e-11
6.04136e-12
-1.60064e-11
1.31389e-11
-1.3621e-11
7.18123e-12
-1.96158e-11
1.66612e-11
-1.73039e-11
8.3888e-12
-2.34538e-11
2.07114e-11
-2.1557e-11
9.70776e-12
-2.75859e-11
2.54248e-11
-2.65305e-11
1.11874e-11
-3.20668e-11
3.09354e-11
-3.23782e-11
1.28829e-11
-3.69453e-11
3.73731e-11
-3.92574e-11
1.48563e-11
-4.22735e-11
4.48561e-11
-4.73254e-11
1.7175e-11
-4.81187e-11
5.3474e-11
-5.6731e-11
1.99031e-11
-5.45697e-11
6.32436e-11
-6.75842e-11
2.30485e-11
-6.16861e-11
7.39611e-11
-7.98419e-11
2.61795e-11
-6.90438e-11
8.46296e-11
-9.25123e-11
-7.62622e-11
9.35668e-11
-1.06035e-10
1.50608e-12
1.60499e-12
-1.65707e-12
-2.00455e-12
2.86587e-12
4.72016e-12
-4.87543e-12
-5.85804e-12
4.12422e-12
7.74314e-12
-8.00437e-12
-9.48925e-12
5.32069e-12
1.08553e-11
-1.12343e-11
-1.30601e-11
6.49209e-12
1.42161e-11
-1.47339e-11
-1.67045e-11
7.67447e-12
1.79723e-11
-1.86597e-11
-2.05345e-11
8.90513e-12
2.22631e-11
-2.31631e-11
-2.46459e-11
1.02247e-11
2.72245e-11
-2.83945e-11
-2.91226e-11
1.16791e-11
3.29897e-11
-3.45065e-11
-3.40424e-11
1.33216e-11
3.96879e-11
-4.16543e-11
-3.94835e-11
1.52167e-11
4.74409e-11
-4.99968e-11
-4.55363e-11
1.74479e-11
5.63543e-11
-5.9696e-11
-5.23187e-11
2.01237e-11
6.64931e-11
-7.09076e-11
-5.9993e-11
2.33396e-11
7.77717e-11
-8.37092e-11
-6.87399e-11
2.66948e-11
8.92902e-11
-9.72134e-11
-7.81271e-11
1.00268e-10
-1.13162e-10
-8.99104e-11
1.30975e-13
-3.689e-13
1.26301e-13
2.50544e-13
-1.07463e-12
3.72182e-13
3.63898e-13
-1.72955e-12
6.13018e-13
4.75805e-13
-2.35673e-12
8.64561e-13
5.9092e-13
-2.97175e-12
1.14084e-12
7.14176e-13
-3.58178e-12
1.45478e-12
8.51355e-13
-4.18366e-12
1.8184e-12
1.00999e-12
-4.76051e-12
2.24257e-12
1.20093e-12
-5.27584e-12
2.73617e-12
1.44151e-12
-5.66365e-12
3.3041e-12
1.76215e-12
-5.81194e-12
3.94355e-12
2.21999e-12
-5.53484e-12
4.63752e-12
2.92177e-12
-4.52677e-12
5.34261e-12
4.03196e-12
-2.32186e-12
5.96338e-12
5.55507e-12
1.41756e-12
6.31518e-12
6.31159e-12
6.25809e-12
3.89294e-13
-7.26828e-13
3.75568e-13
7.44541e-13
-2.11774e-12
1.10662e-12
1.08099e-12
-3.40986e-12
1.82241e-12
1.41261e-12
-4.64958e-12
2.56958e-12
1.75297e-12
-5.86907e-12
3.38968e-12
2.11634e-12
-7.08482e-12
4.32094e-12
2.51916e-12
-8.2946e-12
5.39892e-12
2.98218e-12
-9.47191e-12
6.65587e-12
3.53399e-12
-1.05567e-11
8.11797e-12
4.21746e-12
-1.14415e-11
9.79915e-12
5.10242e-12
-1.19523e-11
1.16893e-11
6.30865e-12
-1.18313e-11
1.37328e-11
8.03455e-12
-1.07464e-11
1.57893e-11
1.05252e-11
-8.41937e-12
1.75636e-11
1.36056e-11
-5.12362e-12
1.85551e-11
-2.48103e-12
1.76249e-11
6.37043e-13
-1.06309e-12
6.15127e-13
1.2179e-12
-3.09855e-12
1.8122e-12
1.767e-12
-4.99265e-12
2.98343e-12
2.30656e-12
-6.81558e-12
4.20464e-12
2.85808e-12
-8.61775e-12
5.54334e-12
3.44382e-12
-1.04287e-11
7.06163e-12
4.08866e-12
-1.22539e-11
8.81746e-12
4.82247e-12
-1.40689e-11
1.08636e-11
5.68311e-12
-1.581e-11
1.32431e-11
6.72098e-12
-1.73601e-11
1.59795e-11
8.00584e-12
-1.85353e-11
1.90567e-11
9.6352e-12
-1.90815e-11
2.23837e-11
1.1729e-11
-1.87235e-11
2.57325e-11
1.43463e-11
-1.73485e-11
2.86446e-11
1.70966e-11
-1.54098e-11
3.04202e-11
-1.42957e-11
3.00477e-11
8.6795e-13
-1.36678e-12
8.39169e-13
1.65837e-12
-3.98548e-12
2.47164e-12
2.40355e-12
-6.42759e-12
4.0671e-12
3.13267e-12
-8.78724e-12
5.72788e-12
3.87373e-12
-1.11346e-11
7.54492e-12
4.65526e-12
-1.35161e-11
9.60202e-12
5.50813e-12
-1.59521e-11
1.19776e-11
6.46733e-12
-1.84324e-11
1.47437e-11
7.57317e-12
-2.09087e-11
1.79607e-11
8.871e-12
-2.32834e-11
2.16645e-11
1.04077e-11
-2.53978e-11
2.58416e-11
1.22203e-11
-2.70281e-11
3.03842e-11
1.43015e-11
-2.79144e-11
3.5013e-11
1.65193e-11
-2.78784e-11
3.91675e-11
1.84427e-11
-2.71018e-11
4.1989e-11
-2.65428e-11
4.23054e-11
1.07667e-12
-1.62718e-12
1.04259e-12
2.05554e-12
-4.74718e-12
3.06978e-12
2.97513e-12
-7.66403e-12
5.04796e-12
3.87e-12
-1.0495e-11
7.10236e-12
4.77307e-12
-1.33307e-11
9.34404e-12
5.71734e-12
-1.62368e-11
1.18753e-11
6.7376e-12
-1.92541e-11
1.47921e-11
7.87161e-12
-2.23961e-11
1.81838e-11
9.15967e-12
-2.56449e-11
2.21273e-11
1.06408e-11
-2.89442e-11
2.66744e-11
1.23422e-11
-3.21895e-11
3.18244e-11
1.42555e-11
-3.52137e-11
3.7475e-11
1.62865e-11
-3.77679e-11
4.33331e-11
1.81784e-11
-3.95064e-11
4.87753e-11
1.94718e-11
-4.00944e-11
5.27669e-11
-3.97241e-11
5.3879e-11
1.25909e-12
-1.83405e-12
1.22134e-12
2.40147e-12
-5.35361e-12
3.59452e-12
3.47002e-12
-8.65282e-12
5.90574e-12
4.50302e-12
-1.18699e-11
8.29872e-12
5.53658e-12
-1.51149e-11
1.09005e-11
6.60642e-12
-1.84732e-11
1.38277e-11
7.74958e-12
-2.20079e-11
1.71899e-11
9.00554e-12
-2.57604e-11
2.109e-11
1.04155e-11
-2.97507e-11
2.56191e-11
1.20186e-11
-3.39765e-11
3.08449e-11
1.38423e-11
-3.84104e-11
3.67865e-11
1.5881e-11
-4.29897e-11
4.33665e-11
1.80521e-11
-4.75795e-11
5.03164e-11
2.01196e-11
-5.1866e-11
5.70067e-11
2.16097e-11
-5.51723e-11
6.22625e-11
-5.62893e-11
6.43951e-11
1.41249e-12
-1.97812e-12
1.37255e-12
2.691e-12
-5.77752e-12
4.03743e-12
3.88088e-12
-9.349e-12
6.62638e-12
5.02229e-12
-1.2848e-11
9.29672e-12
6.15272e-12
-1.64009e-11
1.21866e-11
7.30885e-12
-2.01106e-11
1.54223e-11
8.52831e-12
-2.40602e-11
1.91216e-11
9.85113e-12
-2.8317e-11
2.33952e-11
1.13201e-11
-3.29356e-11
2.83428e-11
1.29794e-11
-3.79638e-11
3.40431e-11
1.48721e-11
-4.34492e-11
4.05327e-11
1.70333e-11
-4.94491e-11
4.77642e-11
1.94741e-11
-5.60298e-11
5.55166e-11
2.2128e-11
-6.31994e-11
6.32089e-11
2.46109e-11
-7.05033e-11
6.96004e-11
-7.71043e-11
7.27633e-11
1.53564e-12
1.49471e-12
-2.05167e-12
2.92203e-12
4.39417e-12
-5.99623e-12
4.20503e-12
7.20299e-12
-9.71503e-12
5.42485e-12
1.00868e-11
-1.33753e-11
6.61854e-12
1.31898e-11
-1.7115e-11
7.82182e-12
1.66424e-11
-2.10498e-11
9.07087e-12
2.05647e-11
-2.52776e-11
1.0404e-11
2.50682e-11
-2.98831e-11
1.18631e-11
3.02523e-11
-3.49433e-11
1.34942e-11
3.61956e-11
-4.0533e-11
1.53503e-11
4.29388e-11
-4.67342e-11
1.74946e-11
5.04477e-11
-5.36485e-11
2.00012e-11
5.85359e-11
-6.14051e-11
2.29135e-11
6.66916e-11
-7.01156e-11
2.58677e-11
7.36967e-11
-7.93022e-11
7.74689e-11
-8.99475e-11
1.32607e-13
-3.7641e-13
1.12423e-13
2.53519e-13
-1.09665e-12
3.31156e-13
3.67817e-13
-1.7655e-12
5.44998e-13
4.80078e-13
-2.40685e-12
7.67647e-13
5.94611e-13
-3.03716e-12
1.01112e-12
7.15735e-13
-3.66465e-12
1.28614e-12
8.48148e-13
-4.28779e-12
1.60218e-12
9.97463e-13
-4.89263e-12
1.96684e-12
1.1711e-12
-5.44851e-12
2.38455e-12
1.38002e-12
-5.90177e-12
2.85363e-12
1.64245e-12
-6.16686e-12
3.3611e-12
1.99088e-12
-6.11559e-12
3.8737e-12
2.48124e-12
-5.5671e-12
4.32333e-12
3.18382e-12
-4.30292e-12
4.58887e-12
4.04139e-12
-2.26793e-12
4.51747e-12
3.56976e-13
4.13905e-12
3.9419e-13
-7.4158e-13
3.34312e-13
7.53477e-13
-2.16099e-12
9.84671e-13
1.09282e-12
-3.48043e-12
1.62026e-12
1.42563e-12
-4.74791e-12
2.28165e-12
1.76451e-12
-5.99722e-12
3.00442e-12
2.12198e-12
-7.24673e-12
3.82037e-12
2.51141e-12
-8.49701e-12
4.75754e-12
2.94817e-12
-9.7264e-12
5.83868e-12
3.45127e-12
-1.08844e-11
7.0771e-12
4.04634e-12
-1.18827e-11
8.46831e-12
4.77118e-12
-1.25873e-11
9.97488e-12
5.68461e-12
-1.28204e-11
1.15007e-11
6.87009e-12
-1.23992e-11
1.28515e-11
8.38757e-12
-1.12714e-11
1.3694e-11
1.00052e-11
-9.80574e-12
1.36464e-11
-9.13733e-12
1.23975e-11
6.45207e-13
-1.08458e-12
5.47592e-13
1.23285e-12
-3.16156e-12
1.6126e-12
1.78695e-12
-5.0954e-12
2.65269e-12
2.32892e-12
-6.95861e-12
3.73385e-12
2.87879e-12
-8.80375e-12
4.9139e-12
3.45621e-12
-1.06627e-11
6.24459e-12
4.08151e-12
-1.25443e-11
7.77181e-12
4.7766e-12
-1.44292e-11
9.53321e-12
5.56556e-12
-1.62638e-11
1.15518e-11
6.47454e-12
-1.7951e-11
1.38232e-11
7.53045e-12
-1.9346e-11
1.62927e-11
8.75501e-12
-2.02707e-11
1.88174e-11
1.0141e-11
-2.05807e-11
2.11135e-11
1.15799e-11
-2.03367e-11
2.27169e-11
1.27197e-11
-2.00129e-11
2.31399e-11
-2.05259e-11
2.23016e-11
8.79387e-13
-1.39431e-12
7.47105e-13
1.67942e-12
-4.06613e-12
2.19964e-12
2.43194e-12
-6.55904e-12
3.61666e-12
3.16519e-12
-8.96997e-12
5.08725e-12
3.90545e-12
-1.13717e-11
6.68939e-12
4.67813e-12
-1.3813e-11
8.49303e-12
5.50871e-12
-1.63171e-11
1.05606e-11
6.42291e-12
-1.88784e-11
1.29442e-11
7.44513e-12
-2.14562e-11
1.5678e-11
8.59352e-12
-2.39675e-11
1.87625e-11
9.8687e-12
-2.62826e-11
2.21371e-11
1.12295e-11
-2.82329e-11
2.5636e-11
1.25468e-11
-2.96538e-11
2.89295e-11
1.35449e-11
-3.04981e-11
3.14871e-11
1.38696e-11
-3.0983e-11
3.27409e-11
-3.17424e-11
3.25806e-11
1.09135e-12
-1.65982e-12
9.28334e-13
2.08271e-12
-4.84278e-12
2.73233e-12
3.01219e-12
-7.81975e-12
4.48959e-12
3.91347e-12
-1.07112e-11
6.30915e-12
4.81766e-12
-1.36104e-11
8.28635e-12
5.75458e-12
-1.65855e-11
1.05068e-11
6.75345e-12
-1.96792e-11
1.30472e-11
7.84261e-12
-2.29074e-11
1.59729e-11
9.04637e-12
-2.62558e-11
1.93297e-11
1.03769e-11
-2.96745e-11
2.31269e-11
1.18167e-11
-3.30713e-11
2.73082e-11
1.32829e-11
-3.63035e-11
3.17039e-11
1.45671e-11
-3.91678e-11
3.59656e-11
1.52805e-11
-4.13948e-11
3.9517e-11
1.50392e-11
-4.27115e-11
4.16813e-11
-4.31766e-11
4.22324e-11
1.27692e-12
-1.87069e-12
1.08766e-12
2.43464e-12
-5.46094e-12
3.19991e-12
3.51581e-12
-8.82758e-12
5.25345e-12
4.55792e-12
-1.21123e-11
7.37348e-12
5.59545e-12
-1.54279e-11
9.66918e-12
6.66118e-12
-1.88617e-11
1.22383e-11
7.78704e-12
-2.24779e-11
1.51689e-11
9.00383e-12
-2.6318e-11
1.85368e-11
1.03383e-11
-3.04009e-11
2.23977e-11
1.18056e-11
-3.47217e-11
2.67709e-11
1.33932e-11
-3.92476e-11
3.16094e-11
1.50286e-11
-4.39062e-11
3.67508e-11
1.65237e-11
-4.85471e-11
4.18442e-11
1.75138e-11
-5.28409e-11
4.62772e-11
1.75772e-11
-5.61273e-11
4.92558e-11
-5.71852e-11
5.0437e-11
1.43329e-12
-2.01752e-12
1.22254e-12
2.7299e-12
-5.89292e-12
3.59487e-12
3.93512e-12
-9.53687e-12
5.89573e-12
5.08858e-12
-1.31084e-11
8.26225e-12
6.22643e-12
-1.67367e-11
1.08133e-11
7.38289e-12
-2.05262e-11
1.36549e-11
8.59128e-12
-2.45602e-11
1.68821e-11
9.88438e-12
-2.8904e-11
2.05767e-11
1.12929e-11
-3.36075e-11
2.48006e-11
1.28415e-11
-3.87084e-11
2.95796e-11
1.45399e-11
-4.42352e-11
3.48748e-11
1.63664e-11
-5.02091e-11
4.05328e-11
1.82387e-11
-5.66286e-11
4.62051e-11
1.99645e-11
-6.33892e-11
5.12457e-11
2.11802e-11
-6.99434e-11
5.47322e-11
-7.53247e-11
5.61676e-11
1.55911e-12
1.3316e-12
-2.09245e-12
2.96614e-12
3.9133e-12
-6.1157e-12
4.26709e-12
6.41021e-12
-9.90957e-12
5.50188e-12
8.96682e-12
-1.3645e-11
6.70662e-12
1.17074e-11
-1.74627e-11
7.91516e-12
1.47417e-11
-2.14794e-11
9.16035e-12
1.81667e-11
-2.57926e-11
1.04749e-11
2.20652e-11
-3.0484e-11
1.18913e-11
2.64988e-11
-3.56234e-11
1.34407e-11
3.1493e-11
-4.12717e-11
1.51504e-11
3.701e-11
-4.74854e-11
1.70385e-11
4.29003e-11
-5.432e-11
1.91025e-11
4.88212e-11
-6.18222e-11
2.12745e-11
5.41221e-11
-6.99718e-11
2.32e-11
5.78091e-11
-7.82023e-11
5.88941e-11
-8.72082e-11
1.33691e-13
-3.82769e-13
9.46884e-14
2.55403e-13
-1.1153e-12
2.78814e-13
3.70048e-13
-1.79596e-12
4.58516e-13
4.81931e-13
-2.44935e-12
6.45065e-13
5.94916e-13
-3.09269e-12
8.48186e-13
7.12579e-13
-3.7352e-12
1.07629e-12
8.38368e-13
-4.37692e-12
1.33632e-12
9.75787e-13
-5.0068e-12
1.6331e-12
1.12863e-12
-5.5998e-12
1.96783e-12
1.30159e-12
-6.11323e-12
2.3353e-12
1.50171e-12
-6.48314e-12
2.71943e-12
1.74154e-12
-6.62219e-12
3.08683e-12
2.04264e-12
-6.42114e-12
3.37987e-12
2.42878e-12
-5.7603e-12
3.51761e-12
2.85479e-12
-4.60041e-12
3.43591e-12
-2.76021e-12
3.32844e-12
3.97472e-13
-7.54067e-13
2.81585e-13
7.59207e-13
-2.1976e-12
8.29072e-13
1.09968e-12
-3.54017e-12
1.36321e-12
1.43153e-12
-4.83114e-12
1.91741e-12
1.76609e-12
-6.10565e-12
2.52045e-12
2.11376e-12
-7.38384e-12
3.19727e-12
2.48439e-12
-8.66888e-12
3.96856e-12
2.88745e-12
-9.94383e-12
4.8488e-12
3.332e-12
-1.1167e-11
5.84194e-12
3.82677e-12
-1.22671e-11
6.93345e-12
4.38087e-12
-1.31418e-11
8.07758e-12
5.00519e-12
-1.36677e-11
9.17956e-12
5.70991e-12
-1.37409e-11
1.00777e-11
6.47942e-12
-1.337e-11
1.05513e-11
7.171e-12
-1.28066e-11
1.04418e-11
-1.26547e-11
9.78563e-12
6.50768e-13
-1.10276e-12
4.6126e-13
1.24264e-12
-3.21482e-12
1.35789e-12
1.79889e-12
-5.18219e-12
2.23205e-12
2.33979e-12
-7.07922e-12
3.13809e-12
2.88345e-12
-8.96026e-12
4.12283e-12
3.44635e-12
-1.08592e-11
5.22693e-12
4.04361e-12
-1.27878e-11
6.48436e-12
4.6885e-12
-1.47315e-11
7.91947e-12
5.39091e-12
-1.66456e-11
9.5403e-12
6.15383e-12
-1.84494e-11
1.13267e-11
6.96723e-12
-2.0028e-11
1.32115e-11
7.79677e-12
-2.12514e-11
1.5056e-11
8.56398e-12
-2.20362e-11
1.66287e-11
9.12265e-12
-2.24689e-11
1.76286e-11
9.29922e-12
-2.2883e-11
1.78607e-11
-2.37818e-11
1.75697e-11
8.87338e-13
-1.41753e-12
6.29386e-13
1.69356e-12
-4.13414e-12
1.85241e-12
2.44961e-12
-6.6697e-12
3.04354e-12
3.18236e-12
-9.12334e-12
4.27615e-12
3.91577e-12
-1.15697e-11
5.61347e-12
4.67149e-12
-1.40596e-11
7.11053e-12
5.46879e-12
-1.66185e-11
8.81379e-12
6.32335e-12
-1.9244e-11
1.07575e-11
7.24351e-12
-2.19014e-11
1.29557e-11
8.22219e-12
-2.45184e-11
1.53876e-11
9.22188e-12
-2.69845e-11
1.79757e-11
1.01484e-11
-2.91609e-11
2.05581e-11
1.08155e-11
-3.09197e-11
2.28692e-11
1.09419e-11
-3.22243e-11
2.45733e-11
1.03791e-11
-3.31953e-11
2.54444e-11
-3.4187e-11
2.5717e-11
1.10178e-12
-1.68728e-12
7.82166e-13
2.10146e-12
-4.92315e-12
2.30134e-12
3.03623e-12
-7.95034e-12
3.77873e-12
3.93832e-12
-1.08917e-11
5.3042e-12
4.83643e-12
-1.38424e-11
6.95509e-12
5.75638e-12
-1.68719e-11
8.79891e-12
6.72102e-12
-2.0024e-11
1.0893e-11
7.74841e-12
-2.33155e-11
1.3281e-11
8.8469e-12
-2.6733e-11
1.59836e-11
1.00044e-11
-3.02283e-11
1.89834e-11
1.1168e-11
-3.37123e-11
2.22005e-11
1.22084e-11
-3.70467e-11
2.54632e-11
1.2872e-11
-4.00316e-11
2.84874e-11
1.27789e-11
-4.23902e-11
3.09089e-11
1.17439e-11
-4.38099e-11
3.24435e-11
-4.4211e-11
3.32696e-11
1.28987e-12
-1.90145e-12
9.16552e-13
2.45817e-12
-5.55089e-12
2.69562e-12
3.54671e-12
-8.97355e-12
4.42246e-12
4.59162e-12
-1.23136e-11
6.20032e-12
5.62506e-12
-1.56855e-11
8.11786e-12
6.67605e-12
-1.91773e-11
1.02524e-11
7.77046e-12
-2.28528e-11
1.26699e-11
8.9296e-12
-2.67515e-11
1.54213e-11
1.01657e-11
-3.08879e-11
1.85335e-11
1.14723e-11
-3.52489e-11
2.19932e-11
1.28061e-11
-3.97876e-11
2.57213e-11
1.40547e-11
-4.44075e-11
2.95406e-11
1.49917e-11
-4.89192e-11
3.31493e-11
1.52615e-11
-5.2944e-11
3.61423e-11
1.46192e-11
-5.58083e-11
3.81613e-11
-5.63116e-11
3.93558e-11
1.44871e-12
-2.05049e-12
1.03039e-12
2.7582e-12
-5.98935e-12
3.02889e-12
3.97308e-12
-9.69321e-12
4.96416e-12
5.13179e-12
-1.33236e-11
6.94934e-12
6.26849e-12
-1.70112e-11
9.08114e-12
7.41404e-12
-2.08605e-11
1.14435e-11
8.59653e-12
-2.49531e-11
1.41078e-11
9.84052e-12
-2.93498e-11
1.71294e-11
1.11644e-11
-3.40919e-11
2.05386e-11
1.25748e-11
-3.92009e-11
2.43242e-11
1.40556e-11
-4.4678e-11
2.84069e-11
1.55513e-11
-5.04971e-11
3.26028e-11
1.69444e-11
-5.65812e-11
3.65854e-11
1.80441e-11
-6.27259e-11
3.98856e-11
1.86352e-11
-6.83556e-11
4.20376e-11
-7.25426e-11
4.31619e-11
1.57688e-12
1.12252e-12
-2.1265e-12
2.99902e-12
3.29782e-12
-6.21525e-12
4.31194e-12
5.39852e-12
-1.00709e-11
5.55467e-12
7.54393e-12
-1.38669e-11
6.76169e-12
9.8353e-12
-1.77451e-11
7.9641e-12
1.23597e-11
-2.18221e-11
9.19046e-12
1.51902e-11
-2.61926e-11
1.04668e-11
1.83828e-11
-3.09326e-11
1.18158e-11
2.19672e-11
-3.61004e-11
1.32543e-11
2.5931e-11
-4.17372e-11
1.47888e-11
3.01921e-11
-4.78664e-11
1.64093e-11
3.456e-11
-5.44894e-11
1.80818e-11
3.86892e-11
-6.15708e-11
1.97311e-11
4.20591e-11
-6.89891e-11
2.1124e-11
4.41059e-11
-7.61782e-11
4.46025e-11
-8.37623e-11
1.34333e-13
-3.87891e-13
7.37964e-14
2.56428e-13
-1.13032e-12
2.1723e-13
3.71013e-13
-1.82048e-12
3.57011e-13
4.82101e-13
-2.48356e-12
5.01752e-13
5.93092e-13
-3.13736e-12
6.58758e-13
7.06839e-13
-3.79188e-12
8.34146e-13
8.25656e-13
-4.44842e-12
1.03268e-12
9.51242e-13
-5.09813e-12
1.25711e-12
1.08455e-12
-5.71993e-12
1.50696e-12
1.22588e-12
-6.27823e-12
1.77645e-12
1.3757e-12
-6.72108e-12
2.05161e-12
1.53729e-12
-6.97956e-12
2.30727e-12
1.72143e-12
-6.96672e-12
2.50651e-12
1.9482e-12
-6.57295e-12
2.60901e-12
2.20733e-12
-5.71063e-12
2.59826e-12
-4.04189e-12
2.67032e-12
3.99446e-13
-7.64126e-13
2.19465e-13
7.62407e-13
-2.22709e-12
6.45979e-13
1.1028e-12
-3.58824e-12
1.06149e-12
1.43243e-12
-4.89803e-12
1.4915e-12
1.76133e-12
-6.19264e-12
1.95767e-12
2.09785e-12
-7.49351e-12
2.47814e-12
2.44862e-12
-8.80587e-12
3.06711e-12
2.81808e-12
-1.01162e-11
3.73296e-12
3.20754e-12
-1.13889e-11
4.47464e-12
3.61414e-12
-1.25632e-11
5.27583e-12
4.0307e-12
-1.35533e-11
6.09676e-12
4.44775e-12
-1.42579e-11
6.86596e-12
4.85931e-12
-1.45887e-11
7.47894e-12
5.26684e-12
-1.45262e-11
7.82201e-12
5.64062e-12
-1.41982e-11
7.85037e-12
-1.39879e-11
7.59988e-12
6.54211e-13
-1.11739e-12
3.59529e-13
1.24833e-12
-3.25767e-12
1.0581e-12
1.80476e-12
-5.25192e-12
1.73818e-12
2.34252e-12
-7.17589e-12
2.44129e-12
2.87774e-12
-9.08522e-12
3.20262e-12
3.42386e-12
-1.10153e-11
4.05185e-12
3.99121e-12
-1.29798e-11
5.01236e-12
4.58579e-12
-1.49677e-11
6.09849e-12
5.20659e-12
-1.69395e-11
7.30995e-12
5.84126e-12
-1.88239e-11
8.62309e-12
6.46023e-12
-2.05197e-11
9.97904e-12
7.01009e-12
-2.1912e-11
1.12727e-11
7.41164e-12
-2.29195e-11
1.23539e-11
7.57979e-12
-2.35817e-11
1.30656e-11
7.50887e-12
-2.41107e-11
1.33514e-11
-2.48695e-11
1.3384e-11
8.92422e-13
-1.4362e-12
4.90627e-13
1.70214e-12
-4.18876e-12
1.4436e-12
2.45902e-12
-6.75837e-12
2.3704e-12
3.18842e-12
-9.24576e-12
3.32709e-12
3.91192e-12
-1.17269e-11
4.36122e-12
4.64748e-12
-1.42537e-11
5.51304e-12
5.40877e-12
-1.6853e-11
6.81468e-12
6.20303e-12
-1.95241e-11
8.28667e-12
7.02651e-12
-2.22346e-11
9.9312e-12
7.85618e-12
-2.49166e-11
1.17214e-11
8.63657e-12
-2.74646e-11
1.35877e-11
9.26174e-12
-2.97429e-11
1.5406e-11
9.56292e-12
-3.16134e-11
1.70032e-11
9.35029e-12
-3.29959e-11
1.82057e-11
8.65277e-12
-3.39339e-11
1.89432e-11
-3.47183e-11
1.93707e-11
1.10867e-12
-1.70932e-12
6.09803e-13
2.11334e-12
-4.98755e-12
1.79369e-12
3.05004e-12
-8.05463e-12
2.94342e-12
3.94937e-12
-1.10351e-11
4.12764e-12
4.83752e-12
-1.40252e-11
5.4046e-12
5.73644e-12
-1.7095e-11
6.82374e-12
6.66311e-12
-2.02883e-11
8.4249e-12
7.62707e-12
-2.36209e-11
1.02345e-11
8.62491e-12
-2.70776e-11
1.22582e-11
9.62995e-12
-3.06067e-11
1.44688e-11
1.05749e-11
-3.41124e-11
1.67913e-11
1.13262e-11
-3.74439e-11
1.90905e-11
1.16602e-11
-4.0378e-11
2.11777e-11
1.13008e-11
-4.26017e-11
2.28617e-11
1.02304e-11
-4.37821e-11
2.4041e-11
-4.38621e-11
2.48372e-11
1.29869e-12
-1.92606e-12
7.14684e-13
2.47367e-12
-5.62276e-12
2.10133e-12
3.56564e-12
-9.08971e-12
3.44543e-12
4.60915e-12
-1.24727e-11
4.8259e-12
5.63393e-12
-1.5887e-11
6.3096e-12
6.66524e-12
-1.94206e-11
7.95324e-12
7.72342e-12
-2.31355e-11
9.80274e-12
8.82188e-12
-2.70678e-11
1.18893e-11
9.96233e-12
-3.12252e-11
1.42217e-11
1.1126e-11
-3.55832e-11
1.67729e-11
1.22587e-11
-4.00758e-11
1.9464e-11
1.32484e-11
-4.4577e-11
2.21491e-11
1.3903e-11
-4.88567e-11
2.46183e-11
1.39683e-11
-5.24982e-11
2.66473e-11
1.3349e-11
-5.48561e-11
2.80951e-11
-5.48765e-11
2.90901e-11
1.4595e-12
-2.07682e-12
8.03577e-13
2.7775e-12
-6.06617e-12
2.36152e-12
3.99762e-12
-9.8172e-12
3.86815e-12
5.15688e-12
-1.3493e-11
5.41003e-12
6.28723e-12
-1.72246e-11
7.06016e-12
7.41622e-12
-2.11157e-11
8.88022e-12
8.56698e-12
-2.52451e-11
1.092e-11
9.75726e-12
-2.96678e-11
1.32135e-11
1.09966e-11
-3.44141e-11
1.57708e-11
1.22815e-11
-3.94882e-11
1.85643e-11
1.35877e-11
-4.48626e-11
2.15102e-11
1.48617e-11
-5.04688e-11
2.44487e-11
1.60168e-11
-5.61737e-11
2.71388e-11
1.69504e-11
-6.17251e-11
2.92974e-11
1.75765e-11
-6.65981e-11
3.07198e-11
-7.00636e-11
3.1571e-11
1.5896e-12
8.75563e-13
-2.15362e-12
3.02211e-12
2.57162e-12
-6.29437e-12
4.34223e-12
4.2074e-12
-1.01985e-11
5.58781e-12
5.87426e-12
-1.40408e-11
6.79147e-12
7.64875e-12
-1.79635e-11
7.9815e-12
9.59494e-12
-2.20818e-11
9.18234e-12
1.1764e-11
-2.64867e-11
1.04144e-11
1.41901e-11
-3.12469e-11
1.16932e-11
1.68826e-11
-3.6408e-11
1.30274e-11
1.98116e-11
-4.19906e-11
1.44174e-11
2.28883e-11
-4.79865e-11
1.58542e-11
2.5941e-11
-5.43518e-11
1.73268e-11
2.87008e-11
-6.09956e-11
1.88271e-11
3.08273e-11
-6.7755e-11
2.02264e-11
3.20431e-11
-7.41374e-11
3.23348e-11
-8.0918e-11
1.34653e-13
-3.91726e-13
5.05135e-14
2.56867e-13
-1.14157e-12
1.48658e-13
3.71189e-13
-1.83885e-12
2.442e-13
4.81372e-13
-2.50917e-12
3.42944e-13
5.90416e-13
-3.17074e-12
4.49742e-13
7.0058e-13
-3.83407e-12
5.68561e-13
8.13311e-13
-4.50127e-12
7.02325e-13
9.29039e-13
-5.16485e-12
8.52457e-13
1.04696e-12
-5.8059e-12
1.01804e-12
1.16514e-12
-6.39211e-12
1.19457e-12
1.28169e-12
-6.87597e-12
1.37251e-12
1.39838e-12
-7.1926e-12
1.53639e-12
1.52801e-12
-7.25407e-12
1.66632e-12
1.70107e-12
-6.93595e-12
1.74463e-12
1.92939e-12
-6.11638e-12
1.76764e-12
-4.42244e-12
1.8751e-12
4.00474e-13
-7.71669e-13
1.50229e-13
7.63862e-13
-2.2492e-12
4.42088e-13
1.10356e-12
-3.62428e-12
7.26111e-13
1.43064e-12
-4.94809e-12
1.01949e-12
1.75396e-12
-6.25753e-12
1.33661e-12
2.08023e-12
-7.57489e-12
1.68924e-12
2.41363e-12
-8.90667e-12
2.08612e-12
2.75507e-12
-1.02413e-11
2.53162e-12
3.1011e-12
-1.15464e-11
3.02329e-12
3.44321e-12
-1.27654e-11
3.54833e-12
3.76898e-12
-1.38177e-11
4.07948e-12
4.06813e-12
-1.46037e-11
4.57252e-12
4.34731e-12
-1.50231e-11
4.97002e-12
4.64802e-12
-1.50143e-11
5.2187e-12
5.00269e-12
-1.4639e-11
5.30351e-12
-1.4234e-11
5.22049e-12
6.56102e-13
-1.12837e-12
2.46123e-13
1.25114e-12
-3.28981e-12
7.24188e-13
1.80672e-12
-5.30415e-12
1.18911e-12
2.34068e-12
-7.24808e-12
1.66885e-12
2.86749e-12
-9.1781e-12
2.18682e-12
3.39807e-12
-1.11305e-11
2.76228e-12
3.93914e-12
-1.312e-11
3.40968e-12
4.49163e-12
-1.51372e-11
4.13662e-12
5.04803e-12
-1.71449e-11
4.94009e-12
5.58898e-12
-1.90745e-11
5.80118e-12
6.0804e-12
-2.08266e-11
6.6792e-12
6.47448e-12
-2.22823e-11
7.50853e-12
6.72255e-12
-2.33388e-11
8.20517e-12
6.81213e-12
-2.39843e-11
8.69261e-12
6.81851e-12
-2.43723e-11
8.9474e-12
-2.48633e-11
9.04415e-12
8.95367e-13
-1.45021e-12
3.35901e-13
1.70673e-12
-4.22969e-12
9.88138e-13
2.46296e-12
-6.82466e-12
1.6218e-12
3.18798e-12
-9.33688e-12
2.27465e-12
3.90135e-12
-1.18431e-11
2.97832e-12
4.61803e-12
-1.43959e-11
3.759e-12
5.34742e-12
-1.70223e-11
4.63659e-12
6.09097e-12
-1.97219e-11
5.62218e-12
6.83798e-12
-2.24621e-11
6.71343e-12
7.55894e-12
-2.51738e-11
7.8881e-12
8.19696e-12
-2.77476e-11
9.0972e-12
8.65989e-12
-3.00371e-11
1.02622e-11
8.82553e-12
-3.18793e-11
1.12853e-11
8.59682e-12
-3.31508e-11
1.20804e-11
8.07904e-12
-3.38669e-11
1.26146e-11
-3.43518e-11
1.29453e-11
1.11285e-12
-1.72582e-12
4.17542e-13
2.12014e-12
-5.03571e-12
1.22793e-12
3.0568e-12
-8.13238e-12
2.01411e-12
3.95192e-12
-1.11414e-11
2.82235e-12
4.82949e-12
-1.41596e-11
3.69143e-12
5.70831e-12
-1.7257e-11
4.65356e-12
6.60094e-12
-2.04765e-11
5.73349e-12
7.51114e-12
-2.38323e-11
6.9457e-12
8.42901e-12
-2.73053e-11
8.2892e-12
9.32291e-12
-3.08375e-11
9.74022e-12
1.01276e-11
-3.43222e-11
1.12445e-11
1.07297e-11
-3.75911e-11
1.27147e-11
1.09617e-11
-4.03952e-11
1.40413e-11
1.06481e-11
-4.23955e-11
1.51275e-11
9.83661e-12
-4.32699e-11
1.59214e-11
-4.30339e-11
1.64624e-11
1.30425e-12
-1.94445e-12
4.89418e-13
2.48305e-12
-5.67639e-12
1.43872e-12
3.576e-12
-9.17606e-12
2.35794e-12
4.61615e-12
-1.25902e-11
3.3003e-12
5.6311e-12
-1.60343e-11
4.31034e-12
6.64306e-12
-1.95956e-11
5.42505e-12
7.66817e-12
-2.33342e-11
6.67303e-12
8.71454e-12
-2.72819e-11
8.07148e-12
9.77834e-12
-3.14393e-11
9.62059e-12
1.08374e-11
-3.57701e-11
1.12954e-11
1.1842e-11
-4.01906e-11
1.30369e-11
1.27032e-11
-4.455e-11
1.47476e-11
1.32868e-11
-4.85916e-11
1.63011e-11
1.34367e-11
-5.18875e-11
1.75781e-11
1.3113e-11
-5.38429e-11
1.85076e-11
-5.35429e-11
1.91444e-11
1.46653e-12
-2.09646e-12
5.50363e-13
2.78971e-12
-6.12337e-12
1.61707e-12
4.01213e-12
-9.9091e-12
2.64762e-12
5.16945e-12
-1.36175e-11
3.70038e-12
6.29169e-12
-1.73797e-11
4.82407e-12
7.40362e-12
-2.12979e-11
6.05896e-12
8.52465e-12
-2.54478e-11
7.4361e-12
9.66794e-12
-2.98784e-11
8.97422e-12
1.08385e-11
-3.46101e-11
1.06738e-11
1.20307e-11
-3.96311e-11
1.25081e-11
1.32255e-11
-4.48911e-11
1.44128e-11
1.43916e-11
-5.0292e-11
1.62774e-11
1.54952e-11
-5.56718e-11
1.79506e-11
1.6522e-11
-6.07746e-11
1.92731e-11
1.74344e-11
-6.5153e-11
2.01408e-11
-6.82444e-11
2.06555e-11
1.59811e-12
5.99738e-13
-2.17382e-12
3.03722e-12
1.76116e-12
-6.35315e-12
4.36117e-12
2.88024e-12
-1.02928e-11
5.60662e-12
4.01862e-12
-1.41683e-11
6.80452e-12
5.22745e-12
-1.81216e-11
7.98081e-12
6.54862e-12
-2.2266e-11
9.15676e-12
8.01405e-12
-2.66888e-11
1.0349e-11
9.64255e-12
-3.14516e-11
1.15693e-11
1.14338e-11
-3.65885e-11
1.28251e-11
1.33589e-11
-4.21027e-11
1.41214e-11
1.53484e-11
-4.79616e-11
1.54676e-11
1.72809e-11
-5.40916e-11