/*--------------------------------*- C++ -*----------------------------------*\
| =========                 |                                                 |
| \\      /  F ield         | OpenFOAM: The Open Source CFD Toolbox           |
|  \\    /   O peration     | Version:  v1912                                 |
|   \\  /    A nd           | Website:  www.openfoam.com                      |
|    \\/     M anipulation  |                                                 |
\*---------------------------------------------------------------------------*/
FoamFile
{
    version     2.0;
    format      ascii;
    class       volScalarField;
    location    "0.92/fluid";
    object      p;
}
// * * * * * * * * * * * * * * * * * * * * * * * * * * * * * * * * * * * * * //

dimensions      [0 2 -2 0 0 0 0];


internalField   nonuniform List<scalar> 
14592
(
0.0493497
0.0437225
0.0418104
0.0402015
0.0392897
0.038608
0.0381072
0.0376985
0.0373273
0.0370381
0.0366988
0.0365562
0.0361239
0.0363678
0.0356079
0.0373574
0.0451961
0.0434447
0.0417617
0.0403878
0.039464
0.0387545
0.0382187
0.0377882
0.0374067
0.0371198
0.0367905
0.0366785
0.0362794
0.0366526
0.0358334
0.0385121
0.0432001
0.0425886
0.0413524
0.0403432
0.0394979
0.0388159
0.0382684
0.0378278
0.037442
0.0371639
0.0368589
0.0368039
0.0364692
0.0370393
0.0362965
0.0398197
0.0420215
0.0418815
0.0410231
0.0402672
0.0395179
0.038869
0.038309
0.0378467
0.0374411
0.037156
0.0368601
0.0368501
0.0365802
0.0373295
0.036706
0.04076
0.0413211
0.0413059
0.0406827
0.0400932
0.0394322
0.0388222
0.0382602
0.0377779
0.0373431
0.0370278
0.0367021
0.0366779
0.036391
0.0372111
0.0366157
0.0410487
0.0408696
0.0408906
0.0404154
0.0399255
0.0393262
0.0387418
0.038175
0.037671
0.0372052
0.0368587
0.036507
0.036484
0.0362231
0.037201
0.0367852
0.0417985
0.0405739
0.0405996
0.0402011
0.0397623
0.0391953
0.0386183
0.0380347
0.0374935
0.0369709
0.0365439
0.0360807
0.0359012
0.0354036
0.0360944
0.0351307
0.0402512
0.0403962
0.0404223
0.0400556
0.0396355
0.0390763
0.0384917
0.0378854
0.0373073
0.0367367
0.0362492
0.0357235
0.0354851
0.0349687
0.0358336
0.0351413
0.0427108
0.0492718
0.0436466
0.0417722
0.040205
0.039347
0.0387248
0.038291
0.0379569
0.0376716
0.0374775
0.0372525
0.0372064
0.0369134
0.0370727
0.0364427
0.0370102
0.0451183
0.0433671
0.0417226
0.0403912
0.0395216
0.0388722
0.0384038
0.0380485
0.0377535
0.0375622
0.0373462
0.0373257
0.0370508
0.0372875
0.0365727
0.0375248
0.043118
0.042505
0.041306
0.0403388
0.039548
0.0389269
0.0384478
0.0380832
0.0377844
0.0376026
0.0374095
0.0374434
0.0372229
0.0376143
0.0369221
0.0383464
0.0419369
0.0417947
0.040972
0.0402571
0.0395613
0.0389725
0.0384803
0.0380936
0.0377743
0.0375856
0.0374003
0.0374793
0.0373153
0.0378656
0.0372533
0.038999
0.0412332
0.0412157
0.0406269
0.040077
0.0394679
0.0389161
0.0384198
0.0380108
0.0376586
0.0374361
0.0372139
0.0372732
0.0370737
0.037678
0.0370349
0.0390466
0.0407789
0.0407975
0.0403558
0.039904
0.039355
0.0388264
0.0383226
0.0378888
0.0375018
0.0372448
0.0369911
0.0370523
0.0368689
0.0376423
0.0371399
0.0396782
0.0404797
0.040503
0.0401371
0.039735
0.0392163
0.0386922
0.0381676
0.0376913
0.0372393
0.0368917
0.0365087
0.0363957
0.0359284
0.036396
0.0351973
0.0378334
0.0402981
0.0403218
0.0399871
0.0396025
0.0390899
0.0385554
0.0380044
0.0374866
0.0369803
0.0365661
0.0361118
0.0359418
0.0354469
0.0361484
0.0351777
0.0403239
0.0492277
0.0436042
0.0417586
0.0402252
0.0394132
0.0388444
0.0384747
0.0382166
0.0380277
0.0379528
0.0378978
0.0380558
0.0381177
0.03861
0.0387655
0.0394516
0.0450743
0.0433234
0.0417086
0.0404115
0.0395884
0.0389932
0.0385895
0.0383113
0.038114
0.0380438
0.0380004
0.0381863
0.0382703
0.0388338
0.0389576
0.0399264
0.0430699
0.0424558
0.0412851
0.0403517
0.0396077
0.0390415
0.038628
0.0383414
0.0381409
0.0380815
0.0380618
0.0383058
0.0384511
0.0391785
0.0393702
0.0407559
0.0418857
0.0417421
0.0409463
0.0402641
0.039614
0.0390797
0.0386524
0.0383435
0.0381221
0.0380565
0.0380452
0.0383392
0.0385462
0.0394459
0.0397454
0.0414317
0.0411784
0.0411592
0.040596
0.0400775
0.0395125
0.0390135
0.0385802
0.0382466
0.0379891
0.0378866
0.0378324
0.0381044
0.0382656
0.0392225
0.0394734
0.0414153
0.0407207
0.0407376
0.0403206
0.039899
0.0393922
0.0389143
0.0384708
0.0381093
0.0378125
0.0376715
0.0375786
0.0378505
0.0380136
0.0391478
0.0395038
0.0419753
0.0404178
0.0404394
0.0400973
0.0397241
0.0392456
0.0387692
0.0383009
0.0378914
0.0375211
0.037278
0.0370348
0.0371081
0.0369264
0.0377086
0.0371848
0.0397195
0.0402322
0.0402543
0.0399428
0.039586
0.0391117
0.038622
0.0381234
0.0376671
0.0372345
0.0369149
0.036583
0.0365829
0.036329
0.0373328
0.0368965
0.0419567
0.0492053
0.043583
0.0417588
0.0402514
0.0394751
0.0389475
0.0386261
0.0384218
0.0382955
0.038285
0.0383083
0.038519
0.0386672
0.0391182
0.0393399
0.0398002
0.0450519
0.0433013
0.0417086
0.0404379
0.0396511
0.0390975
0.0387424
0.0385185
0.0383844
0.0383789
0.0384136
0.0386491
0.0388139
0.0393123
0.0394986
0.0401444
0.0430436
0.0424288
0.041279
0.0403716
0.039664
0.0391401
0.0387757
0.038544
0.0384065
0.0384113
0.0384671
0.038756
0.0389715
0.0396088
0.0398321
0.040804
0.0418565
0.0417118
0.0409358
0.0402785
0.0396641
0.0391714
0.0387928
0.0385383
0.0383791
0.0383772
0.0384388
0.038775
0.039043
0.039837
0.0401433
0.0413699
0.0411456
0.0411251
0.0405807
0.0400859
0.0395551
0.0390965
0.0387102
0.0384293
0.0382311
0.0381896
0.0382024
0.0385119
0.0387195
0.0395587
0.0397791
0.0412353
0.0406847
0.0407003
0.0403012
0.0399022
0.039428
0.0389887
0.0385901
0.038279
0.0380385
0.0379557
0.0379247
0.0382324
0.0384306
0.0394463
0.0397392
0.0417135
0.0403782
0.0403985
0.0400736
0.0397219
0.0392743
0.0388343
0.038408
0.0380451
0.0377256
0.0375347
0.0373427
0.0374437
0.0372721
0.037929
0.037276
0.0393037
0.040189
0.0402098
0.0399149
0.0395787
0.0391337
0.0386784
0.038219
0.0378058
0.0374194
0.0371475
0.0368596
0.036886
0.0366298
0.0375225
0.0369177
0.0414594
0.049197
0.0435757
0.0417679
0.0402812
0.0395337
0.0390404
0.0387607
0.0386049
0.0385382
0.0385941
0.0387055
0.0389992
0.0392791
0.039799
0.0401948
0.0405987
0.0450437
0.0432934
0.0417176
0.0404681
0.0397107
0.0391918
0.0388789
0.0387041
0.0386306
0.0386928
0.0388172
0.0391368
0.0394353
0.0399949
0.0403612
0.0409134
0.0430321
0.0424168
0.0412831
0.0403964
0.0397183
0.0392297
0.038908
0.0387259
0.038649
0.0387215
0.0388655
0.0392362
0.0395798
0.040267
0.0406605
0.0414964
0.0418423
0.0416969
0.040936
0.0402986
0.039713
0.0392552
0.0389189
0.0387137
0.0386145
0.03868
0.0388281
0.0392451
0.0396364
0.0404743
0.0409399
0.0420129
0.0411282
0.0411069
0.0405766
0.0401006
0.0395976
0.0391726
0.0388272
0.0385941
0.0384535
0.0384771
0.0385719
0.0389587
0.0392794
0.0401556
0.0405119
0.0418033
0.0406643
0.0406791
0.0402935
0.0399123
0.0394644
0.0390573
0.0386977
0.0384322
0.0382463
0.0382258
0.0382716
0.0386536
0.0389537
0.040003
0.0404044
0.0422074
0.0403546
0.0403741
0.040062
0.0397271
0.0393044
0.0388947
0.0385047
0.0381841
0.0379143
0.0377799
0.0376545
0.0378205
0.0377273
0.0384042
0.037801
0.039639
0.0401622
0.0401823
0.0398997
0.0395795
0.0391579
0.038731
0.0383052
0.0379311
0.0375894
0.0373685
0.0371379
0.0372218
0.0370238
0.0379288
0.0373214
0.0416521
0.0491956
0.0435751
0.0417788
0.0403067
0.0395794
0.03911
0.0388585
0.0387335
0.0387022
0.0387921
0.0389432
0.0392591
0.0395738
0.0400737
0.0404859
0.0408384
0.0450424
0.0432923
0.0417285
0.0404939
0.0397571
0.0392623
0.0389779
0.0388342
0.0387964
0.0388929
0.0390573
0.0393984
0.0397305
0.0402637
0.0406423
0.0411192
0.0430283
0.0424126
0.0412902
0.0404181
0.0397607
0.0392966
0.0390036
0.038853
0.0388116
0.0389178
0.0390996
0.0394883
0.0398581
0.0405061
0.0408975
0.0416309
0.0418364
0.0416904
0.04094
0.0403167
0.0397513
0.0393176
0.0390096
0.0388356
0.0387713
0.0388699
0.0390538
0.0394866
0.0398979
0.0406884
0.0411381
0.0420972
0.0411197
0.0410977
0.0405773
0.0401145
0.0396308
0.0392291
0.038911
0.038708
0.0386008
0.0386558
0.038783
0.0391825
0.039515
0.0403369
0.0406587
0.0418291
0.0406534
0.0406675
0.0402912
0.0399225
0.039493
0.039108
0.0387745
0.0385378
0.0383832
0.0383925
0.0384675
0.0388604
0.039165
0.0401569
0.0405055
0.0421842
0.0403411
0.04036
0.0400567
0.0397336
0.0393282
0.0389393
0.0385737
0.0382798
0.0380384
0.0379311
0.0378298
0.0380036
0.0379045
0.0385202
0.0378374
0.0395407
0.0401462
0.0401656
0.0398916
0.0395825
0.0391773
0.0387699
0.0383668
0.0380174
0.0377015
0.0375051
0.0372947
0.0373848
0.0371738
0.0380183
0.0373114
0.0414952
0.0491974
0.0435773
0.0417887
0.0403265
0.039613
0.0391602
0.0389286
0.0388263
0.038822
0.0389399
0.0391254
0.0394682
0.0398217
0.0403306
0.0407749
0.041105
0.0450441
0.0432943
0.0417384
0.0405139
0.0397912
0.0393132
0.0390491
0.0389285
0.0389182
0.0390433
0.039243
0.0396117
0.0399836
0.0405243
0.0409352
0.0413768
0.0430284
0.0424125
0.0412975
0.0404354
0.0397922
0.0393451
0.0390727
0.0389453
0.0389314
0.0390661
0.0392819
0.0396964
0.040102
0.0407505
0.0411668
0.0418506
0.0418349
0.0416887
0.0409453
0.0403314
0.0397799
0.039363
0.0390754
0.0389245
0.0388872
0.0390139
0.0392309
0.0396882
0.0401318
0.0409186
0.0413855
0.0422892
0.0411164
0.0410941
0.0405802
0.0401263
0.0396559
0.0392704
0.038972
0.0387914
0.03871
0.0387919
0.0389499
0.039372
0.0397315
0.0405455
0.0408731
0.0419846
0.0406484
0.0406622
0.0402921
0.0399318
0.0395148
0.0391453
0.0388304
0.038615
0.038485
0.0385198
0.038623
0.0390367
0.0393629
0.040344
0.040686
0.0423038
0.0403343
0.0403529
0.0400555
0.0397402
0.0393467
0.0389723
0.038624
0.03835
0.038131
0.0380469
0.0379699
0.0381616
0.0380764
0.0386768
0.0379684
0.0396023
0.0401377
0.0401568
0.0398883
0.0395867
0.0391925
0.0387988
0.0384118
0.0380806
0.0377849
0.0376095
0.0374197
0.0375249
0.0373206
0.0381465
0.0373971
0.0415035
0.0491986
0.0435794
0.0417938
0.0403367
0.0396295
0.0391843
0.0389616
0.0388688
0.0388749
0.0390021
0.0391978
0.0395448
0.0399051
0.0404066
0.0408534
0.0411747
0.0450458
0.0432958
0.0417437
0.0405241
0.039808
0.0393377
0.0390824
0.0389712
0.0389713
0.0391055
0.039315
0.0396871
0.0400648
0.0405964
0.0410095
0.0414376
0.0430289
0.042413
0.0413017
0.0404442
0.0398076
0.0393683
0.0391048
0.0389867
0.0389828
0.039126
0.0393505
0.0397664
0.0401749
0.0408099
0.0412246
0.0418893
0.0418348
0.0416883
0.0409484
0.0403389
0.0397939
0.0393845
0.0391057
0.038964
0.0389365
0.0390714
0.0392962
0.039754
0.040198
0.0409686
0.0414298
0.0423118
0.0411154
0.0410928
0.0405821
0.0401323
0.0396681
0.0392899
0.039
0.0388283
0.0387563
0.0388459
0.0390108
0.0394325
0.0397903
0.040586
0.0409027
0.0419908
0.0406465
0.04066
0.0402929
0.0399365
0.0395254
0.0391629
0.0388561
0.0386492
0.038528
0.0385701
0.0386793
0.0390921
0.0394144
0.0403756
0.0407005
0.0422931
0.0403315
0.0403498
0.0400552
0.0397436
0.0393556
0.0389878
0.0386471
0.0383811
0.0381702
0.0380928
0.038021
0.0382115
0.0381206
0.0387005
0.0379688
0.0395743
0.040134
0.0401528
0.039887
0.0395889
0.0392
0.0388124
0.0384325
0.0381088
0.0378204
0.0376511
0.0374654
0.0375689
0.0373569
0.0381605
0.03738
0.04145
0.0586088
0.0478506
0.0441818
0.0411708
0.0394362
0.038103
0.0370868
0.0361839
0.0353217
0.0344456
0.0334731
0.0324183
0.0311447
0.0297665
0.0280319
0.0262611
0.0543496
0.0471102
0.043823
0.0410949
0.0394119
0.0381024
0.0370934
0.0361951
0.0353385
0.0344724
0.0335103
0.0324691
0.0312098
0.0298499
0.0281296
0.0263691
0.0523345
0.0460574
0.0431718
0.0407775
0.0392224
0.0379963
0.0370266
0.036151
0.0353094
0.0344593
0.0335144
0.032493
0.0312619
0.0299348
0.0282538
0.0265258
0.0510862
0.0452503
0.0427004
0.0405378
0.0390987
0.0379399
0.0369967
0.0361309
0.0352917
0.0344426
0.0335012
0.0324868
0.0312706
0.0299625
0.0283086
0.0266065
0.0503397
0.044634
0.0422899
0.0402814
0.0389418
0.037846
0.0369328
0.03608
0.0352436
0.0343927
0.0334506
0.0324369
0.0312295
0.0299335
0.0283042
0.0266275
0.0498583
0.0442018
0.0419929
0.040082
0.0388134
0.0377618
0.0368694
0.0360231
0.0351846
0.0343273
0.0333803
0.0323632
0.0311617
0.0298748
0.0282718
0.0266227
0.049554
0.0439115
0.0417751
0.0399182
0.0386928
0.0376677
0.0367877
0.0359428
0.0350983
0.0342306
0.0332743
0.0322472
0.0310453
0.0297595
0.0281826
0.0265619
0.0493842
0.0437462
0.041642
0.0398079
0.0386004
0.0375842
0.036706
0.0358563
0.0350028
0.034124
0.0331594
0.0321243
0.0309267
0.0296473
0.028105
0.0265192
0.0543514
0.04711
0.0438207
0.041089
0.0394009
0.0380847
0.0370672
0.0361627
0.0352954
0.0344113
0.0334275
0.0323643
0.0310741
0.0296912
0.0279313
0.0261772
0.0501693
0.0467358
0.0436525
0.0411485
0.0394704
0.0381466
0.0371095
0.0361915
0.0353165
0.0344298
0.0334464
0.0323871
0.0311042
0.029736
0.0279927
0.0262513
0.0481534
0.0457791
0.0430814
0.0409054
0.0393314
0.038072
0.0370588
0.0361544
0.0352875
0.0344091
0.0334369
0.0323915
0.031131
0.0297875
0.0280766
0.0263676
0.0469204
0.0449946
0.0426444
0.0407019
0.0392378
0.0380387
0.0370453
0.0361449
0.0352747
0.0343934
0.033422
0.0323813
0.0311341
0.0298081
0.0281227
0.0264372
0.0461801
0.0443749
0.0422408
0.0404548
0.0390893
0.0379518
0.0369874
0.0360982
0.035229
0.0343452
0.0333731
0.0323332
0.0310951
0.0297809
0.0281199
0.0264591
0.0457023
0.0439368
0.0419444
0.0402576
0.0389636
0.0378702
0.0369272
0.0360445
0.0351732
0.0342841
0.0333087
0.0322672
0.0310374
0.0297346
0.0281023
0.0264694
0.0453994
0.0436423
0.0417254
0.0400935
0.0388433
0.037777
0.0368469
0.0359662
0.0350899
0.0341919
0.0332089
0.0321592
0.0309314
0.0296314
0.0280281
0.026423
0.0452303
0.0434754
0.0415922
0.0399838
0.038752
0.0376952
0.0367674
0.0358827
0.0349991
0.0340918
0.033103
0.0320484
0.030829
0.0295387
0.0279752
0.0264052
0.0523621
0.0460842
0.0432059
0.0408191
0.0392733
0.0380563
0.037097
0.0362389
0.0354024
0.0345445
0.0335742
0.0325259
0.0312089
0.0298086
0.0279002
0.0260617
0.0481804
0.0458076
0.0431209
0.0409576
0.0393996
0.0381581
0.0371671
0.0362895
0.0354417
0.0345777
0.0336061
0.0325612
0.0312515
0.029867
0.0279767
0.0261541
0.0461605
0.0449193
0.0426415
0.0408178
0.0393403
0.0381379
0.0371506
0.0362765
0.0354315
0.0345704
0.0336074
0.0325744
0.0312864
0.0299231
0.0280552
0.0262498
0.0449433
0.0441694
0.0422577
0.0406771
0.0393014
0.0381471
0.0371666
0.0362873
0.0354329
0.0345637
0.0335989
0.0325691
0.031294
0.0299475
0.0281025
0.0263185
0.0442136
0.0435637
0.0418811
0.0404639
0.0391842
0.038085
0.0371257
0.0362508
0.035392
0.0345159
0.0335471
0.0325154
0.0312476
0.0299106
0.0280888
0.0263289
0.0437431
0.0431308
0.0415962
0.0402817
0.0390733
0.0380156
0.037073
0.0362001
0.0353357
0.0344514
0.0334776
0.0324433
0.0311852
0.0298619
0.0280766
0.0263517
0.0434435
0.0428372
0.0413812
0.0401235
0.0389587
0.0379263
0.0369931
0.0361183
0.0352457
0.0343487
0.0333636
0.0323167
0.0310587
0.0297355
0.027989
0.0262996
0.0432751
0.0426699
0.0412487
0.0400151
0.0388686
0.0378445
0.0369107
0.036029
0.035147
0.0342385
0.0332461
0.0321928
0.030946
0.0296365
0.027948
0.0263081
0.0511427
0.0453069
0.0427789
0.0406419
0.0392359
0.038113
0.0372095
0.036392
0.0355848
0.0347577
0.0338047
0.0327802
0.0314257
0.0300052
0.0278629
0.0258934
0.0469769
0.0450528
0.0427294
0.0408193
0.0393967
0.0382434
0.0373031
0.0364607
0.0356372
0.0348019
0.0338469
0.0328265
0.0314808
0.0300794
0.027953
0.0260014
0.044972
0.044198
0.0423026
0.0407428
0.0393943
0.0382695
0.0373221
0.0364738
0.0356462
0.03481
0.033862
0.0328528
0.0315274
0.0301428
0.0280196
0.0260549
0.0437719
0.0434719
0.0419511
0.0406414
0.039392
0.0383087
0.0373597
0.0364992
0.035657
0.0348095
0.0338584
0.0328521
0.0315397
0.0301707
0.0280616
0.0261086
0.0430548
0.0428805
0.0415939
0.0404515
0.0392966
0.0382638
0.0373294
0.0364677
0.0356167
0.0347582
0.0338
0.0327886
0.0314808
0.0301177
0.0280283
0.0260962
0.0425927
0.0424553
0.0413186
0.0402801
0.0391954
0.038201
0.0372789
0.0364153
0.0355556
0.0346859
0.033721
0.0327064
0.0314108
0.0300658
0.028025
0.0261404
0.0422971
0.0421649
0.0411074
0.0401258
0.0390836
0.0381119
0.0371955
0.036326
0.035454
0.0345665
0.0335849
0.0325506
0.0312512
0.0299012
0.0279151
0.0260797
0.0421294
0.0419979
0.0409751
0.0400172
0.0389923
0.0380271
0.0371073
0.0362281
0.0353438
0.0344413
0.03345
0.0324072
0.0311241
0.0297948
0.0278996
0.0261436
0.0504289
0.044725
0.0424237
0.040468
0.0391983
0.0381819
0.0373567
0.0366065
0.0358594
0.0350994
0.0342029
0.0332535
0.0318993
0.0305136
0.0280744
0.0259463
0.0462696
0.0444668
0.0423813
0.0406559
0.0393702
0.0383236
0.037461
0.0366845
0.0359211
0.0351543
0.0342578
0.0333163
0.0319752
0.0306168
0.0281911
0.0260758
0.044274
0.0436239
0.0419793
0.0406121
0.0394
0.038378
0.037504
0.0367167
0.0359458
0.0351773
0.0342889
0.0333609
0.0320406
0.0306953
0.0282415
0.0260643
0.0430862
0.0429116
0.0416465
0.0405335
0.0394197
0.0384352
0.037555
0.0367508
0.0359619
0.0351808
0.0342897
0.0333666
0.0320613
0.0307339
0.0282818
0.0261022
0.0423791
0.0423309
0.0413031
0.0403596
0.0393393
0.0384017
0.0375311
0.0367206
0.035918
0.0351216
0.0342196
0.0332878
0.0319837
0.0306592
0.0282216
0.0260603
0.041924
0.0419126
0.0410354
0.0401962
0.0392448
0.0383424
0.03748
0.0366633
0.0358476
0.035036
0.0341245
0.033188
0.0318991
0.0306008
0.0282307
0.0261396
0.0416315
0.0416251
0.0408273
0.0400445
0.039134
0.0382513
0.0373901
0.0365623
0.0357275
0.0348895
0.0339513
0.0329819
0.0316784
0.0303621
0.0280658
0.0260455
0.0414638
0.0414578
0.0406945
0.0399346
0.0390399
0.0381609
0.0372929
0.0364509
0.0355985
0.0347389
0.0337852
0.032801
0.0315167
0.030229
0.0280705
0.0261873
0.0499703
0.0443171
0.042176
0.0403497
0.0391946
0.0382732
0.0375256
0.0368471
0.0361675
0.0354844
0.0346527
0.0337882
0.0324237
0.0310632
0.0281835
0.0258277
0.0458145
0.0440517
0.0421332
0.0405393
0.0393693
0.0384189
0.0376339
0.0369293
0.0362345
0.0355463
0.034717
0.0338652
0.0325183
0.0311942
0.0283052
0.0259086
0.043824
0.0432105
0.0417384
0.0405068
0.039412
0.0384863
0.0376882
0.0369706
0.0362678
0.035579
0.0347602
0.0339257
0.0325984
0.03128
0.0282957
0.0257247
0.0426437
0.0425047
0.0414134
0.0404373
0.0394403
0.0385503
0.0377434
0.0370061
0.0362839
0.0355825
0.0347621
0.0339359
0.0326251
0.031326
0.0283125
0.0256939
0.041943
0.04193
0.0410766
0.0402702
0.0393657
0.0385201
0.0377194
0.0369716
0.0362316
0.0355109
0.0346755
0.0338364
0.032521
0.0312203
0.0282072
0.0255943
0.0414922
0.0415158
0.0408128
0.0401099
0.0392727
0.0384598
0.0376641
0.0369061
0.0361488
0.0354091
0.0345614
0.0337175
0.0324221
0.0311614
0.028243
0.025736
0.0412014
0.0412298
0.0406057
0.0399581
0.0391599
0.0383635
0.0375653
0.0367907
0.0360067
0.0352306
0.0343439
0.0334499
0.0321239
0.0308258
0.0280092
0.0256083
0.0410325
0.0410613
0.0404711
0.0398455
0.0390614
0.0382658
0.0374578
0.0366647
0.0358571
0.0350525
0.0341446
0.0332312
0.0319334
0.030688
0.0280942
0.0259593
0.0496719
0.0440346
0.0419981
0.0402654
0.0392076
0.0383762
0.0377146
0.0371263
0.0365445
0.0359848
0.0352928
0.0346317
0.0334429
0.0323958
0.0293672
0.0271236
0.0455175
0.0437634
0.0419528
0.0404536
0.0393822
0.0385225
0.0378239
0.0372113
0.0366164
0.0360545
0.0353682
0.0347268
0.0335625
0.0325673
0.0295003
0.0271548
0.0435274
0.0429188
0.0415564
0.0404214
0.0394265
0.0385927
0.0378809
0.0372555
0.0366535
0.0360937
0.0354221
0.0348071
0.0336682
0.032696
0.0294913
0.0269004
0.0423504
0.0422149
0.041233
0.0403534
0.0394556
0.0386568
0.0379344
0.037288
0.0366662
0.0360951
0.035425
0.0348269
0.0337138
0.032783
0.0295348
0.0268713
0.0416522
0.0416425
0.040898
0.0401874
0.0393809
0.0386244
0.0379054
0.0372448
0.0366012
0.0360069
0.0353172
0.0347038
0.0335819
0.0326557
0.0293982
0.0267379
0.0412032
0.0412297
0.0406351
0.0400269
0.0392859
0.0385596
0.0378422
0.0371673
0.0365018
0.035884
0.035178
0.0345598
0.0334619
0.0325982
0.029464
0.0269626
0.0409121
0.0409434
0.0404271
0.0398729
0.0391686
0.0384557
0.0377314
0.0370327
0.036331
0.035663
0.0348978
0.0342
0.0330311
0.0320786
0.0290247
0.0266499
0.0407411
0.0407728
0.0402897
0.0397564
0.0390642
0.0383492
0.037611
0.0368874
0.0361541
0.035447
0.0346484
0.0339171
0.0327692
0.0318826
0.029117
0.0272222
0.0494757
0.0438452
0.0418815
0.0402183
0.0392396
0.0384856
0.0379032
0.0373988
0.0369081
0.0364565
0.0358802
0.0353648
0.034272
0.0333478
0.029923
0.0272567
0.0453219
0.04357
0.0418341
0.0404053
0.0394139
0.0386318
0.0380131
0.0374857
0.036983
0.0365312
0.0359619
0.0354691
0.0343953
0.0335061
0.0298733
0.0266588
0.0433295
0.04272
0.0414321
0.040368
0.0394545
0.038699
0.0380675
0.0375286
0.03702
0.0365728
0.0360207
0.0355604
0.0345067
0.0336316
0.0297151
0.025816
0.0421526
0.0420153
0.0411067
0.0402971
0.0394803
0.0387588
0.0381154
0.037555
0.0370263
0.036569
0.0360203
0.0355834
0.0345574
0.0337303
0.0297073
0.0255363
0.0414543
0.0414422
0.04077
0.0401284
0.0394012
0.0387205
0.0380777
0.0375001
0.0369459
0.0364616
0.0358875
0.0354319
0.0343869
0.0335641
0.0295063
0.0252768
0.0410048
0.0410289
0.0405057
0.0399651
0.0393015
0.0386489
0.0380047
0.0374091
0.0368288
0.0363174
0.0357236
0.0352656
0.0342502
0.0335216
0.029634
0.025602
0.040712
0.0407408
0.0402951
0.0398071
0.0391779
0.0385361
0.0378804
0.0372547
0.0366289
0.0360545
0.0353816
0.0348163
0.0336854
0.0328161
0.0289848
0.025044
0.040538
0.0405672
0.040154
0.0396858
0.0390666
0.0384201
0.0377467
0.0370906
0.0364266
0.0358051
0.035091
0.0344903
0.0333924
0.0326601
0.0292682
0.0261251
0.0403212
0.0403484
0.0399765
0.0395447
0.0389656
0.0383534
0.0377081
0.0370735
0.036424
0.0358117
0.0350999
0.034496
0.033381
0.0326224
0.0291564
0.0259058
0.0403503
0.0403783
0.0399644
0.039496
0.0388766
0.0382224
0.0375364
0.0368539
0.0361491
0.0354611
0.0346703
0.0339383
0.032771
0.0318553
0.0290127
0.0270372
0.0404998
0.0405232
0.0400186
0.039478
0.0387946
0.0380866
0.0373501
0.0366141
0.0358473
0.03507
0.0341741
0.0332606
0.0319411
0.0306624
0.0279932
0.0257858
0.0408192
0.0408074
0.0401412
0.0394806
0.0387047
0.0379364
0.0371618
0.0363901
0.0355886
0.0347639
0.0338271
0.0328456
0.0315422
0.0302232
0.0279996
0.026053
0.0413965
0.0412592
0.0403415
0.039494
0.0386036
0.0377627
0.0369555
0.0361603
0.0353343
0.0344731
0.0335029
0.0324649
0.0311653
0.0298066
0.0278549
0.0260417
0.0424813
0.0418716
0.0405626
0.0394486
0.0384481
0.0375599
0.0367485
0.0359609
0.0351447
0.0342814
0.0333125
0.0322652
0.0310038
0.0296663
0.0279278
0.0262345
0.044399
0.042644
0.0408812
0.0393995
0.0383186
0.037401
0.0365938
0.0358085
0.0350008
0.0341418
0.0331788
0.032131
0.0308985
0.0295815
0.0279725
0.0263516
0.0485534
0.0429254
0.0409464
0.0392417
0.0381856
0.0373084
0.0365473
0.035796
0.0350194
0.0341861
0.0332453
0.0322151
0.0310029
0.0296952
0.0281063
0.026468
0.0402186
0.0402434
0.0399027
0.0395051
0.038971
0.0384058
0.037811
0.0372299
0.0366345
0.0360807
0.0354166
0.0348527
0.0336979
0.032794
0.0288386
0.0247329
0.040243
0.0402687
0.0398856
0.0394506
0.038874
0.0382646
0.0376251
0.036991
0.0363337
0.035696
0.0349447
0.0342495
0.0330533
0.0320611
0.0288825
0.0263813
0.0403873
0.0404086
0.0399344
0.0394267
0.0387847
0.0381183
0.0374242
0.0367308
0.0360035
0.0352656
0.0343962
0.033504
0.032148
0.0308047
0.0278731
0.0253657
0.0407017
0.0406879
0.0400517
0.039423
0.0386877
0.0379597
0.0372241
0.0364907
0.0357234
0.0349315
0.0340161
0.0330515
0.0317226
0.0303649
0.027974
0.0258638
0.0412747
0.0411356
0.0402475
0.0394313
0.0385798
0.0377772
0.037007
0.0362459
0.035449
0.0346144
0.0336603
0.0326336
0.0313134
0.0299262
0.0278626
0.0259502
0.0423563
0.0417452
0.0404659
0.0393828
0.0384202
0.0375686
0.036793
0.0360376
0.0352479
0.0344081
0.0334535
0.0324159
0.0311408
0.0297838
0.0279717
0.0262128
0.0442731
0.042518
0.0407853
0.039334
0.0382897
0.0374072
0.0366323
0.0358772
0.0350956
0.0342582
0.0333085
0.0322695
0.0310276
0.0296964
0.028036
0.0263663
0.0484274
0.0428012
0.0408523
0.0391783
0.038159
0.0373176
0.0365891
0.0358689
0.0351203
0.0343103
0.0333852
0.0323666
0.031149
0.0298302
0.0281949
0.0265073
0.0401484
0.0401716
0.0398533
0.0394823
0.0389847
0.038461
0.0379137
0.0373867
0.0368527
0.0363745
0.0357969
0.0353463
0.0342966
0.0335171
0.0294156
0.0250897
0.0401685
0.0401928
0.0398316
0.0394221
0.0388801
0.0383095
0.0377134
0.0371273
0.0365222
0.0359467
0.0352613
0.0346501
0.0335142
0.032594
0.0292567
0.0265416
0.0403084
0.0403282
0.0398756
0.0393928
0.0387839
0.038153
0.0374979
0.0368459
0.0361613
0.035471
0.0346466
0.0338069
0.0324702
0.0311465
0.0280512
0.0253772
0.0406185
0.0406034
0.0399883
0.0393837
0.0386806
0.0379863
0.0372859
0.0365891
0.0358576
0.0351037
0.0342212
0.0332924
0.0319702
0.0306173
0.0281098
0.0258879
0.0411881
0.0410477
0.0401804
0.0393877
0.0385666
0.0377962
0.0370582
0.0363291
0.0355621
0.0347575
0.0338271
0.0328235
0.0315027
0.0301113
0.0279648
0.0259754
0.0422672
0.0416551
0.0403966
0.0393364
0.0384034
0.0375814
0.0368374
0.0361123
0.0353485
0.034534
0.0335986
0.0325781
0.0313012
0.0299383
0.028069
0.0262547
0.0441834
0.0424281
0.0407165
0.039288
0.038272
0.0374182
0.0366713
0.0359437
0.0351873
0.0343725
0.0334393
0.0324139
0.0311703
0.0298331
0.0281314
0.0264187
0.0483377
0.0427127
0.0407849
0.0391339
0.0381434
0.0373312
0.0366308
0.035939
0.0352172
0.0344309
0.033524
0.0325208
0.031304
0.0299806
0.0283073
0.0265755
0.0401013
0.0401234
0.0398209
0.0394696
0.0389999
0.0385082
0.0379967
0.0375084
0.0370139
0.0365754
0.0360289
0.0355946
0.0345125
0.0336293
0.0292402
0.0245316
0.0401177
0.0401409
0.0397953
0.0394047
0.0388889
0.0383484
0.0377853
0.0372342
0.0366638
0.0361228
0.0354626
0.0348661
0.0337003
0.0327063
0.0291501
0.0261659
0.0402539
0.0402726
0.0398354
0.0393711
0.0387871
0.0381836
0.0375588
0.0369378
0.0362826
0.0356208
0.0348148
0.0339849
0.0326193
0.0312391
0.0279739
0.0251177
0.0405606
0.0405445
0.0399444
0.0393575
0.038679
0.0380107
0.0373379
0.036669
0.0359632
0.0352336
0.0343665
0.0334465
0.0321031
0.0307124
0.028089
0.0257501
0.0411274
0.0409861
0.0401336
0.0393582
0.0385602
0.037815
0.0371024
0.036398
0.0356535
0.0348694
0.0339519
0.0329557
0.0316196
0.0302027
0.0279774
0.0259113
0.0422045
0.0415919
0.040348
0.0393047
0.0383941
0.0375952
0.0368764
0.0361754
0.0354316
0.0346358
0.0337124
0.0326993
0.0314127
0.0300326
0.0281093
0.0262413
0.0441203
0.042365
0.0406685
0.0392567
0.0382624
0.0374308
0.0367063
0.0360009
0.0352647
0.0344673
0.0335458
0.0325281
0.0312784
0.0299292
0.0281888
0.0264352
0.0482746
0.0426506
0.0407379
0.039104
0.0381355
0.0373462
0.0366683
0.0359995
0.0352996
0.0345321
0.0336388
0.0326454
0.0314254
0.0300925
0.0283836
0.0266103
0.0400713
0.0400925
0.0398018
0.0394657
0.039018
0.0385526
0.0380718
0.0376182
0.0371621
0.0367661
0.0362627
0.0358697
0.0348075
0.0339073
0.0293667
0.0243904
0.0400846
0.0401071
0.0397729
0.0393967
0.0389013
0.0383855
0.0378504
0.0373302
0.0367928
0.0362876
0.035661
0.035096
0.033937
0.0329246
0.0292367
0.0260697
0.0402176
0.0402357
0.0398096
0.0393595
0.0387947
0.0382135
0.0376141
0.0370202
0.0363927
0.0357598
0.0349786
0.0341707
0.0328026
0.0314025
0.0280275
0.025039
0.0405216
0.0405049
0.0399156
0.0393421
0.0386825
0.0380351
0.0373851
0.0367403
0.0360582
0.0353525
0.0345047
0.0336009
0.0322533
0.0308466
0.0281441
0.0257159
0.0410862
0.0409444
0.0401024
0.0393399
0.0385596
0.0378343
0.0371426
0.0364593
0.0357351
0.0349709
0.0340686
0.0330846
0.0317445
0.0303154
0.0280346
0.0259079
0.0421618
0.0415487
0.0403154
0.0392846
0.0383911
0.0376103
0.036912
0.0362313
0.0355053
0.0347269
0.0338166
0.0328137
0.0315245
0.0301354
0.0281728
0.0262609
0.0440771
0.0423219
0.0406361
0.0392368
0.0382589
0.0374446
0.0367383
0.0360515
0.0353328
0.0345515
0.0336419
0.0326334
0.0313823
0.0300265
0.0282571
0.0264696
0.0482315
0.0426082
0.0407064
0.0390852
0.0381333
0.0373619
0.0367022
0.0360527
0.0353714
0.0346209
0.0337408
0.032758
0.0315383
0.0302
0.0284639
0.0266562
0.0400527
0.0400734
0.0397907
0.0394651
0.0390329
0.0385857
0.0381256
0.0376943
0.0372607
0.0368859
0.0363974
0.0360076
0.0349222
0.0339601
0.0292738
0.0240944
0.0400636
0.0400856
0.0397592
0.0393931
0.038912
0.0384134
0.0378974
0.0373974
0.0368799
0.0363932
0.0357785
0.0352165
0.0340358
0.032975
0.0291716
0.0258685
0.0401944
0.040212
0.0397935
0.0393532
0.0388019
0.0382363
0.0376545
0.0370786
0.0364684
0.0358513
0.0350797
0.0342742
0.0328874
0.0314508
0.0279858
0.0248979
0.0404963
0.0404791
0.0398972
0.0393331
0.0386868
0.0380542
0.0374201
0.0367916
0.0361248
0.0354329
0.0345934
0.0336925
0.032331
0.0308985
0.028132
0.0256359
0.0410593
0.0409171
0.0400823
0.0393288
0.0385609
0.0378498
0.0371729
0.0365043
0.0357936
0.0350416
0.0341469
0.0331662
0.0318166
0.0303702
0.0280449
0.0258712
0.0421337
0.0415204
0.0402942
0.0392723
0.0383907
0.0376231
0.0369392
0.0362726
0.035559
0.0347921
0.0338891
0.0328903
0.0315951
0.0301941
0.0281999
0.0262537
0.0440488
0.0422936
0.0406151
0.0392245
0.0382582
0.0374562
0.0367632
0.0360899
0.0353833
0.034613
0.0337109
0.032707
0.0314525
0.0300883
0.0282955
0.0264811
0.0482031
0.0425804
0.040686
0.0390737
0.0381336
0.0373751
0.0367287
0.036093
0.0354251
0.0346865
0.033815
0.0328381
0.0316165
0.0302713
0.0285131
0.0266782
0.0400424
0.0400627
0.0397853
0.0394667
0.039045
0.0386104
0.038165
0.0377502
0.0373341
0.0369772
0.0365048
0.0361261
0.0350378
0.0340498
0.0292825
0.0239678
0.0400517
0.0400734
0.0397521
0.0393926
0.0389212
0.0384343
0.0379317
0.0374465
0.0369442
0.0364729
0.0358711
0.0353175
0.0341315
0.0330491
0.029179
0.0257873
0.0401809
0.0401982
0.0397847
0.0393508
0.0388086
0.0382536
0.037684
0.0371212
0.0365241
0.0359199
0.0351584
0.0343595
0.0329668
0.031513
0.0279949
0.0248416
0.0404815
0.040464
0.0398868
0.0393288
0.0386914
0.0380687
0.0374457
0.0368288
0.0361734
0.0354925
0.0346612
0.0337656
0.0323993
0.0309541
0.028149
0.0256078
0.0410433
0.0409009
0.0400707
0.0393231
0.0385633
0.0378619
0.0371951
0.0365368
0.0358361
0.0350936
0.0342057
0.0332297
0.0318768
0.0304217
0.0280691
0.025864
0.0421169
0.0415034
0.0402819
0.0392656
0.0383919
0.0376333
0.0369591
0.0363021
0.0355977
0.0348393
0.0339427
0.0329483
0.0316511
0.0302439
0.02823
0.0262606
0.0440318
0.0422766
0.0406028
0.0392178
0.0382591
0.0374651
0.0367813
0.0361176
0.0354195
0.0346573
0.0337611
0.0327616
0.0315061
0.0301376
0.02833
0.0264972
0.0481861
0.0425637
0.0406741
0.0390676
0.0381352
0.0373852
0.0367478
0.0361217
0.0354633
0.0347332
0.0338684
0.0328965
0.0316747
0.0303257
0.0285535
0.0267
0.0400378
0.0400579
0.039783
0.0394677
0.0390509