/*--------------------------------*- C++ -*----------------------------------*\
| =========                 |                                                 |
| \\      /  F ield         | OpenFOAM: The Open Source CFD Toolbox           |
|  \\    /   O peration     | Version:  v1912                                 |
|   \\  /    A nd           | Website:  www.openfoam.com                      |
|    \\/     M anipulation  |                                                 |
\*---------------------------------------------------------------------------*/
FoamFile
{
    version     2.0;
    format      ascii;
    class       surfaceScalarField;
    location    "0.92/fluid";
    object      phi;
}
// * * * * * * * * * * * * * * * * * * * * * * * * * * * * * * * * * * * * * //

dimensions      [0 3 -1 0 0 0 0];
oriented        oriented;


internalField   nonuniform List<scalar> 
41600
(
5.00513e-05
1.26419e-05
3.26697e-07
-5.19888e-07
3.97585e-05
1.06459e-05
5.80479e-07
-9.3357e-07
3.19809e-05
8.16688e-06
5.17758e-07
-9.07068e-07
2.70188e-05
5.31019e-06
1.88455e-07
-5.36573e-07
2.397e-05
3.31237e-06
-3.7269e-07
1.09119e-07
2.21327e-05
2.00537e-06
-1.1053e-06
9.37286e-07
2.09529e-05
1.25585e-06
-1.99526e-06
1.91918e-06
2.0082e-05
8.57617e-07
-3.06031e-06
3.07358e-06
1.93079e-05
6.67468e-07
-4.35803e-06
4.46463e-06
1.8499e-05
5.70874e-07
-5.96926e-06
6.20736e-06
1.75757e-05
4.93586e-07
-8.04147e-06
8.47112e-06
1.64204e-05
3.27185e-07
-1.06858e-05
1.15139e-05
1.48803e-05
4.74124e-08
-1.42642e-05
1.57569e-05
1.24531e-05
-6.85424e-07
-1.8372e-05
2.14846e-05
7.91153e-06
-1.25185e-06
-2.30168e-05
2.88102e-05
-3.62831e-06
-1.84555e-05
2.99953e-05
6.47493e-05
1.06666e-05
4.64899e-07
-7.38864e-07
6.33322e-05
1.26052e-05
8.85473e-07
-1.42767e-06
6.0622e-05
1.15397e-05
8.95543e-07
-1.55814e-06
5.76441e-05
8.95068e-06
4.76992e-07
-1.13956e-06
5.50067e-05
6.51973e-06
-3.79731e-07
-1.90289e-07
5.28429e-05
4.59623e-06
-1.61603e-06
1.18904e-06
5.10453e-05
3.32057e-06
-3.20004e-06
2.93291e-06
4.94224e-05
2.58315e-06
-5.14476e-06
5.04208e-06
4.77794e-05
2.24174e-06
-7.5313e-06
7.60008e-06
4.59164e-05
2.14448e-06
-1.04982e-05
1.07876e-05
4.36419e-05
2.16793e-06
-1.42856e-05
1.48858e-05
4.06103e-05
2.15891e-06
-1.91249e-05
2.03247e-05
3.63829e-05
2.04719e-06
-2.5499e-05
2.77266e-05
2.97019e-05
1.36069e-06
-3.27945e-05
3.74294e-05
1.93036e-05
4.04478e-07
-3.99314e-05
4.86734e-05
-2.75807e-06
-3.10492e-05
4.94825e-05
6.63677e-05
7.09556e-06
5.19739e-07
-8.16451e-07
6.87716e-05
1.08065e-05
1.01239e-06
-1.61755e-06
6.98186e-05
1.12522e-05
1.06913e-06
-1.82867e-06
6.97169e-05
9.83467e-06
6.59659e-07
-1.44196e-06
6.89635e-05
7.97224e-06
-2.35892e-07
-4.63231e-07
6.78503e-05
6.26059e-06
-1.57218e-06
1.02101e-06
6.65211e-05
5.02487e-06
-3.32273e-06
2.94768e-06
6.4985e-05
4.30643e-06
-5.50292e-06
5.31569e-06
6.31668e-05
4.04841e-06
-8.19648e-06
8.20803e-06
6.09062e-05
4.14276e-06
-1.15563e-05
1.18187e-05
5.79752e-05
4.48558e-06
-1.58412e-05
1.64546e-05
5.39229e-05
4.93376e-06
-2.13333e-05
2.26108e-05
4.81395e-05
5.401e-06
-2.85445e-05
3.0974e-05
3.89951e-05
5.35298e-06
-3.69403e-05
4.20924e-05
2.4935e-05
4.54506e-06
-4.51472e-05
5.50667e-05
4.97682e-07
-3.55559e-05
5.72351e-05
6.53239e-05
4.57166e-06
5.45537e-07
-8.45494e-07
6.85362e-05
8.21701e-06
1.07819e-06
-1.70114e-06
7.11305e-05
9.44685e-06
1.16436e-06
-1.9532e-06
7.26923e-05
9.09134e-06
7.74193e-07
-1.59269e-06
7.33424e-05
8.06081e-06
-1.06558e-07
-6.32084e-07
7.32603e-05
6.93391e-06
-1.43284e-06
8.41586e-07
7.26144e-05
6.08398e-06
-3.18033e-06
2.76708e-06
7.14874e-05
5.65477e-06
-5.36715e-06
5.14582e-06
6.98733e-05
5.67931e-06
-8.07701e-06
8.06027e-06
6.76504e-05
6.1246e-06
-1.14674e-05
1.17084e-05
6.45864e-05
6.94662e-06
-1.57977e-05
1.64008e-05
6.01775e-05
8.0543e-06
-2.13781e-05
2.26665e-05
5.37045e-05
9.38349e-06
-2.87278e-05
3.12183e-05
4.33501e-05
1.03491e-05
-3.74208e-05
4.27791e-05
2.73212e-05
1.01387e-05
-4.60622e-05
5.64975e-05
4.74102e-06
-3.67741e-05
5.98519e-05
6.43866e-05
2.98217e-06
5.66113e-07
-8.63215e-07
6.72886e-05
5.9383e-06
1.1303e-06
-1.75357e-06
7.01533e-05
7.37357e-06
1.24459e-06
-2.03604e-06
7.23819e-05
7.68399e-06
8.79459e-07
-1.70071e-06
7.38146e-05
7.36894e-06
2.86135e-08
-7.69385e-07
7.44701e-05
6.87222e-06
-1.25675e-06
6.62935e-07
7.44464e-05
6.52523e-06
-2.94845e-06
2.53084e-06
7.38176e-05
6.512e-06
-5.06259e-06
4.83423e-06
7.25963e-05
6.92762e-06
-7.67795e-06
7.65088e-06
7.06812e-05
7.81365e-06
-1.09505e-05
1.11765e-05
6.78447e-05
9.20001e-06
-1.51289e-05
1.57121e-05
6.35482e-05
1.10874e-05
-2.05415e-05
2.18049e-05
5.69769e-05
1.34874e-05
-2.76941e-05
3.01615e-05
4.61042e-05
1.58464e-05
-3.63023e-05
4.16775e-05
2.87874e-05
1.69003e-05
-4.4988e-05
5.55433e-05
9.98664e-06
-3.63468e-05
5.98885e-05
6.38291e-05
1.94643e-06
5.86053e-07
-8.79388e-07
6.62797e-05
4.10634e-06
1.18077e-06
-1.79941e-06
6.90136e-05
5.42583e-06
1.32731e-06
-2.11351e-06
7.14488e-05
6.06352e-06
9.95467e-07
-1.81016e-06
7.32891e-05
6.26163e-06
1.8533e-07
-9.18395e-07
7.44369e-05
6.31137e-06
-1.04429e-06
4.57421e-07
7.49112e-05
6.46435e-06
-2.65823e-06
2.24475e-06
7.47515e-05
6.90086e-06
-4.66691e-06
4.4378e-06
7.39651e-05
7.74849e-06
-7.13986e-06
7.10535e-06
7.2456e-05
9.11396e-06
-1.02268e-05
1.04356e-05
6.99998e-05
1.11038e-05
-1.41583e-05
1.47108e-05
6.60266e-05
1.3849e-05
-1.92755e-05
2.04871e-05
5.96413e-05
1.74838e-05
-2.60531e-05
2.8442e-05
4.85826e-05
2.16318e-05
-3.43835e-05
3.96569e-05
3.02923e-05
2.47551e-05
-4.29042e-05
5.33397e-05
1.67249e-05
-3.52288e-05
5.87829e-05
6.3566e-05
1.17088e-06
6.09051e-07
-8.99523e-07
6.57165e-05
2.57008e-06
1.23723e-06
-1.85145e-06
6.83001e-05
3.62306e-06
1.42195e-06
-2.20275e-06
7.08002e-05
4.37175e-06
1.13266e-06
-1.94099e-06
7.28764e-05
4.91167e-06
3.74394e-07
-1.10071e-06
7.43717e-05
5.39788e-06
-7.8611e-07
2.04355e-07
7.52566e-05
5.99158e-06
-2.30393e-06
1.89182e-06
7.555e-05
6.84202e-06
-4.17883e-06
3.9442e-06
7.52669e-05
8.08284e-06
-6.46339e-06
6.41218e-06
7.43403e-05
9.86853e-06
-9.28897e-06
9.461e-06
7.25941e-05
1.23691e-05
-1.28471e-05
1.3328e-05
6.94948e-05
1.58794e-05
-1.74627e-05
1.85317e-05
6.4156e-05
2.07065e-05
-2.35166e-05
2.56327e-05
5.39143e-05
2.71264e-05
-3.10868e-05
3.5834e-05
3.54151e-05
3.38309e-05
-3.87168e-05
4.81402e-05
2.99816e-05
-3.2396e-05
5.45543e-05
6.34695e-05
6.34988e-07
-9.24151e-07
4.90583e-07
6.54993e-05
1.29979e-06
-1.91191e-06
1.15238e-06
6.80338e-05
1.52702e-06
-2.30536e-06
1.86683e-06
7.06001e-05
1.28672e-06
-2.09237e-06
2.61109e-06
7.28495e-05
5.88006e-07
-1.3121e-06
3.38643e-06
7.46032e-05
-4.95441e-07
-8.62202e-08
4.22583e-06
7.58129e-05
-1.90832e-06
1.4926e-06
5.19756e-06
7.64937e-05
-3.63789e-06
3.39293e-06
6.40623e-06
7.66733e-05
-5.71739e-06
5.64476e-06
7.97588e-06
7.63156e-05
-8.25579e-06
8.38576e-06
1.00962e-05
7.52945e-05
-1.14023e-05
1.18053e-05
1.29872e-05
7.31295e-05
-1.5457e-05
1.63733e-05
1.7128e-05
6.90162e-05
-2.07037e-05
2.2535e-05
2.29886e-05
6.00403e-05
-2.74286e-05
3.1626e-05
3.19049e-05
4.25682e-05
-3.41807e-05
4.2582e-05
4.29017e-05
-3.0122e-05
5.10994e-05
5.15723e-05
4.99855e-05
1.26481e-05
1.9308e-07
3.95671e-05
1.06648e-05
3.34174e-07
3.16501e-05
8.18944e-06
2.45329e-07
2.65581e-05
5.32992e-06
-4.9497e-08
2.33894e-05
3.33061e-06
-5.34618e-07
2.143e-05
2.0254e-06
-1.17131e-06
2.01072e-05
1.28271e-06
-1.95513e-06
1.90534e-05
8.95178e-07
-2.90166e-06
1.80357e-05
7.19464e-07
-4.0598e-06
1.69059e-05
6.40517e-07
-5.47997e-06
1.55548e-05
5.88661e-07
-7.27909e-06
1.38728e-05
4.58095e-07
-9.46187e-06
1.16533e-05
2.37622e-07
-1.22823e-05
8.68543e-06
-4.06025e-07
-1.49981e-05
4.03652e-06
-9.84443e-07
-1.73834e-05
-2.81685e-06
-1.16021e-05
6.46566e-05
1.06813e-05
2.75146e-07
6.30572e-05
1.26417e-05
5.07881e-07
6.01179e-05
1.15908e-05
4.33531e-07
5.68945e-05
9.00652e-06
2.37408e-08
5.40081e-05
6.57918e-06
-7.41861e-07
5.15844e-05
4.6641e-06
-1.831e-06
4.94919e-05
3.4068e-06
-3.23169e-06
4.75062e-05
2.69826e-06
-4.96213e-06
4.53918e-05
2.39691e-06
-7.09431e-06
4.29094e-05
2.34897e-06
-9.72435e-06
3.98139e-05
2.43595e-06
-1.30373e-05
3.57557e-05
2.49786e-06
-1.71065e-05
3.02542e-05
2.47152e-06
-2.22314e-05
2.25255e-05
1.84982e-06
-2.73217e-05
1.17673e-05
8.1417e-07
-3.09718e-05
-2.24144e-06
-1.98573e-05
6.62743e-05
7.11381e-06
3.12842e-07
6.84878e-05
1.08518e-05
5.88869e-07
6.92886e-05
1.13225e-05
5.36653e-07
6.89131e-05
9.92193e-06
1.1975e-07
6.78718e-05
8.07524e-06
-6.90626e-07
6.64521e-05
6.3853e-06
-1.87365e-06
6.47751e-05
5.18482e-06
-3.42377e-06
6.28159e-05
4.51866e-06
-5.36409e-06
6.04536e-05
4.33342e-06
-7.77074e-06
5.74798e-05
4.52033e-06
-1.07539e-05
5.36036e-05
4.98265e-06
-1.45116e-05
4.83587e-05
5.56453e-06
-1.91552e-05
4.10846e-05
6.18741e-06
-2.49862e-05
3.06709e-05
6.22638e-06
-3.09032e-05
1.61457e-05
5.3146e-06
-3.51224e-05
8.46777e-07
-2.24984e-05
6.52331e-05
4.59133e-06
3.34887e-07
6.82571e-05
8.26659e-06
6.39435e-07
7.06078e-05
9.52894e-06
6.07208e-07
7.18975e-05
9.20279e-06
2.03617e-07
7.22594e-05
8.2024e-06
-5.9561e-07
7.18684e-05
7.11352e-06
-1.77009e-06
7.08711e-05
6.31847e-06
-3.31663e-06
6.93165e-05
5.96749e-06
-5.26147e-06
6.7153e-05
6.10111e-06
-7.68113e-06
6.42074e-05
6.68932e-06
-1.06908e-05
6.01791e-05
7.70099e-06
-1.44878e-05
5.45398e-05
9.03186e-06
-1.92061e-05
4.65073e-05
1.06358e-05
-2.51437e-05
3.4789e-05
1.17824e-05
-3.12586e-05
1.8203e-05
1.15285e-05
-3.56901e-05
5.20758e-06
-2.29318e-05
6.42981e-05
3.00344e-06
3.55882e-07
6.70148e-05
5.99217e-06
6.88013e-07
6.96421e-05
7.46577e-06
6.80462e-07
7.16083e-05
7.81596e-06
3.0008e-07
7.27658e-05
7.54435e-06
-4.70778e-07
7.3128e-05
7.10131e-06
-1.60675e-06
7.27713e-05
6.82819e-06
-3.10146e-06
7.17372e-05
6.91838e-06
-4.97941e-06
6.99938e-05
7.479e-06
-7.31245e-06
6.73876e-05
8.56029e-06
-1.02152e-05
6.36205e-05
1.02141e-05
-1.38749e-05
5.81199e-05
1.24339e-05
-1.8443e-05
4.99924e-05
1.52706e-05
-2.42015e-05
3.77118e-05
1.79797e-05
-3.02189e-05
1.97082e-05
1.91752e-05
-3.46312e-05
1.08454e-05
-2.22765e-05
6.37422e-05
1.9702e-06
3.7706e-07
6.60109e-05
4.16569e-06
7.38561e-07
6.85142e-05
5.52809e-06
7.6169e-07
7.06987e-05
6.21351e-06
4.13441e-07
7.22808e-05
6.46576e-06
-3.18215e-07
7.3157e-05
6.5825e-06
-1.40164e-06
7.33253e-05
6.82603e-06
-2.82437e-06
7.27937e-05
7.38868e-06
-4.60563e-06
7.15269e-05
8.41478e-06
-6.80878e-06
6.93772e-05
1.0027e-05
-9.54376e-06
6.60497e-05
1.2365e-05
-1.29817e-05
6.09314e-05
1.55656e-05
-1.72889e-05
5.30353e-05
1.98329e-05
-2.27193e-05
4.05594e-05
2.45678e-05
-2.84957e-05
2.14426e-05
2.81618e-05
-3.2774e-05
1.82439e-05
-2.11848e-05
6.3481e-05
1.1975e-06
4.00725e-07
6.54537e-05
2.63524e-06
7.9497e-07
6.78144e-05
3.73448e-06
8.54881e-07
7.00769e-05
4.53623e-06
5.47423e-07
7.19143e-05
5.13761e-06
-1.34802e-07
7.3164e-05
5.70026e-06
-1.15357e-06
7.37776e-05
6.39638e-06
-2.4879e-06
7.37457e-05
7.38923e-06
-4.14751e-06
7.30454e-05
8.83282e-06
-6.18112e-06
7.15639e-05
1.09047e-05
-8.68515e-06
6.90637e-05
1.38175e-05
-1.17995e-05
6.49637e-05
1.7892e-05
-1.56891e-05
5.82871e-05
2.35343e-05
-2.05414e-05
4.67283e-05
3.08161e-05
-2.57763e-05
2.72909e-05
3.84341e-05
-2.95517e-05
3.23573e-05
-1.92184e-05
6.33864e-05
4.26284e-07
5.19776e-07
6.52432e-05
8.55896e-07
1.22234e-06
6.75635e-05
9.56467e-07
1.98472e-06
6.99062e-05
6.95546e-07
2.78476e-06
7.19365e-05
6.9583e-08
3.62568e-06
7.34717e-05
-8.77288e-07
4.54692e-06
7.44471e-05
-2.11495e-06
5.62764e-06
7.48525e-05
-3.64192e-06
6.98787e-06
7.46836e-05
-5.49019e-06
8.77451e-06
7.38646e-05
-7.7392e-06
1.1207e-05
7.22191e-05
-1.04944e-05
1.45552e-05
6.92172e-05
-1.39134e-05
1.93502e-05
6.39792e-05
-1.81131e-05
2.61816e-05
5.38465e-05
-2.27404e-05
3.62605e-05
3.544e-05
-2.60322e-05
4.86921e-05
-1.76445e-05
5.53198e-05
4.99352e-05
1.26542e-05
1.0365e-07
3.94179e-05
1.06819e-05
1.69623e-07
3.13837e-05
8.21078e-06
6.87818e-08
2.61732e-05
5.35012e-06
-1.89149e-07
2.28871e-05
3.34965e-06
-5.98181e-07
2.0803e-05
2.04586e-06
-1.1331e-06
1.9333e-05
1.30895e-06
-1.79408e-06
1.80928e-05
9.30432e-07
-2.59183e-06
1.68285e-05
7.66838e-07
-3.56238e-06
1.53745e-05
7.0234e-07
-4.72827e-06
1.35932e-05
6.69956e-07
-6.16778e-06
1.13891e-05
5.6531e-07
-7.82308e-06
8.57295e-06
3.79098e-07
-9.84527e-06
5.30251e-06
-2.1213e-07
-1.15155e-05
1.33153e-06
-8.73004e-07
-1.25394e-05
-2.48056e-06
-7.79002e-06
6.45852e-05
1.06962e-05
1.47886e-07
6.28423e-05
1.26769e-05
2.55809e-07
5.97119e-05
1.16411e-05
1.33599e-07
5.62707e-05
9.06369e-06
-2.48596e-07
5.31501e-05
6.64109e-06
-9.12733e-07
5.04718e-05
4.73408e-06
-1.84093e-06
4.80867e-05
3.49354e-06
-3.03118e-06
4.57435e-05
2.81117e-06
-4.49971e-06
4.31717e-05
2.54657e-06
-6.30218e-06
4.00996e-05
2.54415e-06
-8.49406e-06
3.62411e-05
2.68962e-06
-1.11985e-05
3.12714e-05
2.81599e-06
-1.43874e-05
2.47644e-05
2.86145e-06
-1.82068e-05
1.65169e-05
2.28668e-06
-2.1573e-05
6.65233e-06
1.14414e-06
-2.31244e-05
-1.94892e-06
-1.37366e-05
6.6203e-05
7.13318e-06
1.72888e-07
6.82669e-05
1.08975e-05
3.0433e-07
6.88635e-05
1.13931e-05
1.88004e-07
6.82468e-05
1.00112e-05
-2.11024e-07
6.69377e-05
8.18093e-06
-9.21314e-07
6.52209e-05
6.51179e-06
-1.93462e-06
6.3202e-05
5.34395e-06
-3.25519e-06
6.08283e-05
4.72575e-06
-4.90501e-06
5.79407e-05
4.60769e-06
-6.94429e-06
5.42917e-05
4.88021e-06
-9.44093e-06
4.95426e-05
5.45315e-06
-1.25261e-05
4.32438e-05
6.15756e-06
-1.6198e-05
3.47865e-05
6.91991e-06
-2.05873e-05
2.36982e-05
7.03311e-06
-2.45613e-05
1.00742e-05
6.02447e-06
-2.63787e-05
1.17133e-06
-1.55445e-05
6.51645e-05
4.6126e-06
1.90993e-07
6.80416e-05
8.31776e-06
3.42113e-07
7.01911e-05
9.61228e-06
2.38539e-07
7.1242e-05
9.31582e-06
-1.51956e-07
7.13364e-05
8.34522e-06
-8.54291e-07
7.06465e-05
7.29254e-06
-1.86097e-06
6.93038e-05
6.54854e-06
-3.17845e-06
6.73303e-05
6.26972e-06
-4.83198e-06
6.46352e-05
6.50407e-06
-6.88239e-06
6.10032e-05
7.22395e-06
-9.40255e-06
5.60806e-05
8.41003e-06
-1.25221e-05
4.93459e-05
9.94337e-06
-1.62572e-05
4.00571e-05
1.1794e-05
-2.0729e-05
2.75696e-05
1.31011e-05
-2.48391e-05
1.18237e-05
1.28302e-05
-2.67501e-05
5.78848e-06
-1.57253e-05
6.42318e-05
3.02613e-06
2.10587e-07
6.68052e-05
6.04744e-06
3.849e-07
6.92374e-05
7.55855e-06
3.01965e-07
7.0974e-05
7.94757e-06
-6.82386e-08
7.18757e-05
7.71794e-06
-7.45165e-07
7.19532e-05
7.32585e-06
-1.71762e-06
7.1268e-05
7.12172e-06
-2.98943e-06
6.98351e-05
7.3078e-06
-4.58461e-06
6.75841e-05
8.00278e-06
-6.5601e-06
6.43175e-05
9.26414e-06
-8.98885e-06
5.9681e-05
1.1164e-05
-1.19923e-05
5.3098e-05
1.36852e-05
-1.56018e-05
4.36994e-05
1.69156e-05
-1.99245e-05
3.05918e-05
1.99387e-05
-2.39489e-05
1.33141e-05
2.13067e-05
-2.58299e-05
1.19546e-05
-1.51285e-05
6.36776e-05
1.99464e-06
2.30938e-07
6.58066e-05
4.22517e-06
4.31835e-07
6.81215e-05
5.62901e-06
3.76354e-07
7.00871e-05
6.36013e-06
3.52728e-08
7.14288e-05
6.66417e-06
-6.06143e-07
7.20403e-05
6.84439e-06
-1.53172e-06
7.19051e-05
7.17274e-06
-2.74017e-06
7.10055e-05
7.85292e-06
-4.25117e-06
6.92689e-05
9.04509e-06
-6.11451e-06
6.65038e-05
1.08857e-05
-8.40009e-06
6.23571e-05
1.35454e-05
-1.12165e-05
5.62016e-05
1.71617e-05
-1.46099e-05
4.70594e-05
2.20055e-05
-1.86671e-05
3.37272e-05
2.72793e-05
-2.2504e-05
1.51896e-05
3.13777e-05
-2.43074e-05
2.02072e-05
-1.42478e-05
6.34182e-05
1.22377e-06
2.53358e-07
6.52554e-05
2.69865e-06
4.84337e-07
6.74351e-05
3.842e-06
4.6221e-07
6.94906e-05
4.69397e-06
1.58045e-07
7.11051e-05
5.35385e-06
-4.39018e-07
7.21145e-05
5.98878e-06
-1.30732e-06
7.24567e-05
6.78115e-06
-2.43855e-06
7.20995e-05
7.90747e-06
-3.8448e-06
7.09867e-05
9.54095e-06
-5.56417e-06
6.89653e-05
1.18796e-05
-7.65764e-06
6.57455e-05
1.51769e-05
-1.02113e-05
6.07244e-05
1.97723e-05
-1.32786e-05
5.29251e-05
2.61696e-05
-1.69061e-05
4.05536e-05
3.42583e-05
-2.03838e-05
2.14934e-05
4.28436e-05
-2.19574e-05
3.54419e-05
-1.29597e-05
6.33256e-05
2.76987e-07
5.47474e-07
6.50514e-05
5.40241e-07
1.28851e-06
6.71989e-05
5.54924e-07
2.09605e-06
6.93472e-05
2.92675e-07
2.94855e-06
7.11733e-05
-2.54179e-07
3.85152e-06
7.24938e-05
-1.05895e-06
4.84995e-06
7.32324e-05
-2.10576e-06
6.03337e-06
7.33592e-05
-3.39767e-06
7.53636e-06
7.28421e-05
-4.95944e-06
9.52731e-06
7.15704e-05
-6.84049e-06
1.22526e-05
6.93243e-05
-9.1019e-06
1.60305e-05
6.55479e-05
-1.18007e-05
2.14361e-05
5.9363e-05
-1.49413e-05
2.91828e-05
4.852e-05
-1.80127e-05
4.03735e-05
3.03844e-05
-1.93929e-05
5.434e-05
-1.19414e-05
6.01231e-05
4.98969e-05
1.26598e-05
4.69507e-08
3.93027e-05
1.06969e-05
6.69468e-08
3.1174e-05
8.2299e-06
-3.23578e-08
2.58645e-05
5.36888e-06
-2.48528e-07
2.24788e-05
3.36775e-06
-5.80235e-07
2.02912e-05
2.06574e-06
-1.01129e-06
1.87063e-05
1.33462e-06
-1.54383e-06
1.73337e-05
9.65412e-07
-2.18461e-06
1.59147e-05
8.15231e-07
-2.95864e-06
1.42887e-05
7.69041e-07
-3.87128e-06
1.23268e-05
7.64554e-07
-4.97047e-06
9.97512e-06
7.05094e-07
-6.17646e-06
7.10352e-06
5.91992e-07
-7.56567e-06
3.99832e-06
1.35492e-07
-8.54583e-06
7.08939e-07
-4.28146e-07
-8.8219e-06
-1.85256e-06
-5.22853e-06
6.45304e-05
1.07101e-05
6.71642e-08
6.26752e-05
1.27088e-05
9.90076e-08
5.9391e-05
1.16868e-05
-3.91001e-08
5.57684e-05
9.11662e-06
-3.73759e-07
5.24489e-05
6.69911e-06
-9.24526e-07
4.95552e-05
4.79999e-06
-1.6815e-06
4.69308e-05
3.57487e-06
-2.64704e-06
4.43136e-05
2.91668e-06
-3.83379e-06
4.14214e-05
2.68712e-06
-5.28186e-06
3.79839e-05
2.73088e-06
-7.01836e-06
3.37266e-05
2.94082e-06
-9.11752e-06
2.83959e-05
3.15249e-06
-1.15042e-05
2.16836e-05
3.31863e-06
-1.4221e-05
1.36917e-05
2.90287e-06
-1.63485e-05
4.98274e-06
1.8797e-06
-1.67233e-05
-1.18156e-06
-9.42491e-06
6.61484e-05
7.15162e-06
8.30308e-08
6.80958e-05
1.094e-05
1.25688e-07
6.8528e-05
1.14585e-05
-1.58759e-08
6.77109e-05
1.00941e-05
-3.71277e-07
6.61744e-05
8.27944e-06
-9.65148e-07
6.42056e-05
6.62936e-06
-1.79523e-06
6.19041e-05
5.49059e-06
-2.86938e-06
5.92066e-05
4.91496e-06
-4.2058e-06
5.5941e-05
4.85727e-06
-5.84885e-06
5.18581e-05
5.20865e-06
-7.83587e-06
4.66309e-05
5.88754e-06
-1.02456e-05
3.98848e-05
6.7207e-06
-1.302e-05
3.11448e-05
7.6501e-06
-1.61788e-05
2.02999e-05
7.92655e-06
-1.87401e-05
7.98811e-06
7.01404e-06
-1.92013e-05
1.94467e-06
-1.06827e-05
6.51123e-05
4.63312e-06
9.72339e-08
6.78755e-05
8.36597e-06
1.52949e-07
6.98636e-05
9.68989e-06
1.89627e-08
7.07164e-05
9.4208e-06
-3.31425e-07
7.0584e-05
8.47746e-06
-9.19987e-07
6.96406e-05
7.45707e-06
-1.7453e-06
6.80123e-05
6.75777e-06
-2.81729e-06
6.57109e-05
6.54152e-06
-4.15715e-06
6.26327e-05
6.86311e-06
-5.81008e-06
5.85598e-05
7.69705e-06
-7.81795e-06
5.31482e-05
9.03501e-06
-1.0258e-05
4.59492e-05
1.07484e-05
-1.3086e-05
3.63547e-05
1.28257e-05
-1.631e-05
2.40893e-05
1.43194e-05
-1.89665e-05
9.66895e-06
1.41407e-05
-1.94564e-05
6.63635e-06
-1.0748e-05
6.41817e-05
3.0479e-06
1.14153e-07
6.66446e-05
6.09945e-06
1.88459e-07
6.89209e-05
7.64469e-06
7.09129e-08
7.04672e-05
8.06903e-06
-2.62795e-07
7.11524e-05
7.8771e-06
-8.29995e-07
7.09886e-05
7.52983e-06
-1.62661e-06
7.00322e-05
7.3854e-06
-2.66064e-06
6.82884e-05
7.65324e-06
-3.95248e-06
6.56743e-05
8.46139e-06
-5.54435e-06
6.19893e-05
9.87189e-06
-7.4787e-06
5.6887e-05
1.19717e-05
-9.82659e-06
4.98581e-05
1.47317e-05
-1.25563e-05
4.01595e-05
1.8265e-05
-1.56652e-05
2.72551e-05
2.1529e-05
-1.82541e-05
1.12484e-05
2.30335e-05
-1.8716e-05
1.30128e-05
-1.02566e-05
6.36291e-05
2.01766e-06
1.32117e-07
6.56509e-05
4.28043e-06
2.28987e-07
6.78156e-05
5.72178e-06
1.34548e-07
6.96004e-05
6.49403e-06
-1.74471e-07
7.07388e-05
6.84404e-06
-7.11481e-07
7.1126e-05
7.07957e-06
-1.46864e-06
7.07405e-05
7.48064e-06
-2.44991e-06
6.95553e-05
8.25963e-06
-3.67237e-06
6.74862e-05
9.58854e-06
-5.1726e-06
6.43377e-05
1.16115e-05
-6.99124e-06
5.97637e-05
1.4519e-05
-9.18982e-06
5.31973e-05
1.8438e-05
-1.17498e-05
4.37758e-05
2.36746e-05
-1.46553e-05
3.06318e-05
2.92747e-05
-1.71058e-05
1.32753e-05
3.36119e-05
-1.75293e-05
2.16159e-05
-9.57567e-06
6.33713e-05
1.24791e-06
1.51782e-07
6.51051e-05
2.75653e-06
2.74501e-07
6.71411e-05
3.9395e-06
2.08433e-07
6.90261e-05
4.83627e-06
-6.92151e-08
7.04522e-05
5.54765e-06
-5.68716e-07
7.12572e-05
6.24526e-06
-1.27799e-06
7.13751e-05
7.11961e-06
-2.19542e-06
7.07653e-05
8.35702e-06
-3.33235e-06
6.93619e-05
1.01443e-05
-4.71656e-06
6.70085e-05
1.26904e-05
-6.38314e-06
6.34223e-05
1.62724e-05
-8.37838e-06
5.80516e-05
2.12241e-05
-1.06941e-05
5.00206e-05
2.8092e-05
-1.32925e-05
3.78286e-05
3.65942e-05
-1.55112e-05
1.98015e-05
4.55377e-05
-1.58561e-05
3.71829e-05
-8.72513e-06
6.32804e-05
1.72212e-07
5.7229e-07
6.49068e-05
3.22575e-07
1.34775e-06
6.69179e-05
2.87834e-07
2.19553e-06
6.89067e-05
4.57436e-08
3.09438e-06
7.05599e-05
-4.11423e-07
4.05176e-06
7.1697e-05
-1.0677e-06
5.11689e-06
7.22388e-05
-1.91536e-06
6.38734e-06
7.21488e-05
-2.95888e-06
8.00824e-06
7.13871e-05
-4.21596e-06
1.01625e-05
6.98407e-05
-5.71424e-06
1.31106e-05
6.72978e-05
-7.4831e-06
1.71965e-05
6.32452e-05
-9.52242e-06
2.29984e-05
5.68947e-05
-1.17733e-05
3.12745e-05
4.62403e-05
-1.37316e-05
4.29675e-05
2.90055e-05
-1.4045e-05
5.74246e-05
-8.0735e-06
6.23205e-05
4.98674e-05
1.26645e-05
1.50368e-08
3.92138e-05
1.07092e-05
1.13853e-08
3.10099e-05
8.24569e-06
-7.41028e-08
2.56191e-05
5.38446e-06
-2.42273e-07
2.21495e-05
3.38286e-06
-4.9347e-07
1.98735e-05
2.08219e-06
-8.17449e-07
1.81905e-05
1.3555e-06
-1.21637e-06
1.67062e-05
9.93417e-07
-1.6937e-06
1.51593e-05
8.53395e-07
-2.26508e-06
1.33942e-05
8.20763e-07
-2.92697e-06
1.12931e-05
8.36424e-07
-3.70581e-06
8.83618e-06
8.08765e-07
-4.52829e-06
5.95426e-06
7.45309e-07
-5.42906e-06
3.02023e-06
3.76883e-07
-5.98867e-06
2.85154e-07
-1.25427e-07
-5.9614e-06
-1.49518e-06
-3.4482e-06
6.4488e-05
1.0722e-05
2.15958e-08
6.2546e-05
1.27357e-05
1.45214e-08
5.91397e-05
1.17255e-05
-1.12649e-07
5.53697e-05
9.16171e-06
-3.8098e-07
5.18847e-05
6.74885e-06
-8.05513e-07
4.88095e-05
4.8565e-06
-1.38068e-06
4.59835e-05
3.64417e-06
-2.10963e-06
4.31379e-05
3.00594e-06
-3.00081e-06
3.99847e-05
2.8053e-06
-4.0805e-06
3.62585e-05
2.88715e-06
-5.35851e-06
3.17024e-05
3.15005e-06
-6.87512e-06
2.61261e-05
3.43116e-06
-8.55027e-06
1.93337e-05
3.69454e-06
-1.03779e-05
1.16456e-05
3.40027e-06
-1.16838e-05
3.91346e-06
2.46316e-06
-1.15797e-05
-6.50706e-07
-6.35593e-06
6.61062e-05
7.16774e-06
3.11219e-08
6.79634e-05
1.09766e-05
2.75703e-08
6.82654e-05
1.15146e-05
-1.06961e-07
6.72856e-05
1.01654e-05
-3.9514e-07
6.55606e-05
8.36444e-06
-8.55771e-07
6.33801e-05
6.73067e-06
-1.48892e-06
6.08408e-05
5.61629e-06
-2.30215e-06
5.78732e-05
5.07617e-06
-3.30849e-06
5.42987e-05
5.06877e-06
-4.53773e-06
4.98716e-05
5.48577e-06
-6.00741e-06
4.42834e-05
6.25261e-06
-7.76007e-06
3.72282e-05
7.19229e-06
-9.72593e-06
2.8361e-05
8.25931e-06
-1.18763e-05
1.78331e-05
8.66836e-06
-1.34802e-05
6.64509e-06
7.83297e-06
-1.33831e-05
2.54728e-06
-7.23556e-06
6.50721e-05
4.65128e-06
4.15595e-08
6.77475e-05
8.40803e-06
4.62391e-08
6.9608e-05
9.75718e-06
-8.41833e-08
7.03001e-05
9.51161e-06
-3.69704e-07
6.99799e-05
8.59169e-06
-8.2706e-07
6.88236e-05
7.59874e-06
-1.45708e-06
6.69547e-05
6.93696e-06
-2.26905e-06
6.43794e-05
6.7729e-06
-3.27852e-06
6.09872e-05
7.167e-06
-4.51612e-06
5.65627e-05
8.09538e-06
-6.00308e-06
5.07797e-05
9.55842e-06
-7.78088e-06
4.32564e-05
1.14192e-05
-9.78958e-06
3.35159e-05
1.36804e-05
-1.19906e-05
2.15541e-05
1.53259e-05
-1.36622e-05
8.27545e-06
1.52253e-05
-1.357e-05
7.34383e-06
-7.2691e-06
6.41433e-05
3.06718e-06
5.4909e-08
6.65214e-05
6.14495e-06
7.35018e-08
6.86747e-05
7.71947e-06
-4.46964e-08
7.0067e-05
8.17399e-06
-3.17499e-07
7.05728e-05
8.0142e-06
-7.5832e-07
7.02063e-05
7.70486e-06
-1.36614e-06
6.9021e-05
7.61052e-06
-2.14897e-06
6.70168e-05
7.94651e-06
-3.1219e-06
6.41044e-05
8.84853e-06
-4.31348e-06
6.00849e-05
1.03819e-05
-5.74573e-06
5.46275e-05
1.26451e-05
-7.45588e-06
4.72857e-05
1.55985e-05
-9.39377e-06
3.74412e-05
1.93732e-05
-1.15135e-05
2.48224e-05
2.28298e-05
-1.31392e-05
9.91756e-06
2.44455e-05
-1.30314e-05
1.39193e-05
-6.91446e-06
6.35921e-05
2.03788e-06
6.93104e-08
6.5532e-05
4.32851e-06
1.05533e-07
6.75788e-05
5.80192e-06
5.28408e-09
6.92174e-05
6.60921e-06
-2.48234e-07
7.01873e-05
6.99825e-06
-6.65466e-07
7.03857e-05
7.28047e-06
-1.24266e-06
6.97887e-05
7.74252e-06
-1.98489e-06
6.83639e-05
8.60382e-06
-2.90489e-06
6.60211e-05
1.00459e-05
-4.02715e-06
6.25657e-05
1.22187e-05
-5.37272e-06
5.76658e-05
1.53277e-05
-6.9724e-06
5.08114e-05
1.94896e-05
-8.78648e-06
4.12554e-05
2.50356e-05
-1.07617e-05
2.83796e-05
3.0893e-05
-1.22932e-05
1.2054e-05
3.54164e-05
-1.21746e-05
2.28293e-05
-6.43172e-06
6.33358e-05
1.26882e-06
8.50308e-08
6.49908e-05
2.80639e-06
1.41646e-07
6.69144e-05
4.0231e-06
6.36253e-08
6.86619e-05
4.95793e-06
-1.65373e-07
6.99319e-05
5.71292e-06
-5.53394e-07
7.05646e-05
6.46337e-06
-1.09361e-06
7.04922e-05
7.4065e-06
-1.78703e-06
6.96695e-05
8.73654e-06
-2.64233e-06
6.80255e-05
1.06512e-05
-3.67786e-06
6.54048e-05
1.33678e-05
-4.91145e-06
6.15374e-05
1.71809e-05
-6.36426e-06
5.59207e-05
2.24184e-05
-8.00623e-06
4.77817e-05
2.96559e-05
-9.77382e-06
3.58402e-05
3.84843e-05
-1.1161e-05
1.87289e-05
4.77065e-05
-1.10348e-05
3.87175e-05
-5.88442e-06
6.32463e-05
1.01222e-07
5.93468e-07
6.47975e-05
1.79614e-07
1.39819e-06
6.67022e-05
1.26168e-07
2.2801e-06
6.85627e-05
-7.50575e-08
3.21825e-06
7.00728e-05
-4.30172e-07
4.22158e-06
7.10551e-05
-9.29536e-07
5.34287e-06
7.14295e-05
-1.56964e-06
6.68638e-06
7.11558e-05
-2.35431e-06
8.40567e-06
7.01906e-05
-3.29481e-06
1.06953e-05
6.84222e-05
-4.40445e-06
1.38263e-05
6.56517e-05
-5.69373e-06
1.8162e-05
6.14074e-05
-7.14084e-06
2.42812e-05
5.49912e-05
-8.67356e-06
3.29723e-05
4.45821e-05
-9.89874e-06
4.50606e-05
2.81496e-05
-9.80658e-06
5.99006e-05
-5.4748e-06
6.42683e-05
4.98463e-05
1.26682e-05
6.15509e-10
3.91497e-05
1.07187e-05
-1.07702e-08
3.08907e-05
8.25789e-06
-7.29305e-08
2.544e-05
5.3967e-06
-1.88258e-07
2.19086e-05
3.39495e-06
-3.57025e-07
1.95689e-05
2.0956e-06
-5.73404e-07
1.78187e-05
1.37274e-06
-8.38923e-07
1.62632e-05
1.01691e-06
-1.15512e-06
1.46429e-05
8.86088e-07
-1.53082e-06
1.28098e-05
8.66269e-07
-1.96021e-06
1.06589e-05
9.01335e-07
-2.45622e-06
8.19145e-06
9.03983e-07
-2.96479e-06
5.37348e-06
8.87385e-07
-3.49848e-06
2.5855e-06
5.9247e-07
-3.79317e-06
1.49089e-07
1.53087e-07
-3.67808e-06
-1.20702e-06
-2.0921e-06
6.44575e-05
1.07314e-05
8.49837e-10
6.24523e-05
1.27567e-05
-1.83432e-08
5.89563e-05
1.17556e-05
-1.144e-07
5.50768e-05
9.1971e-06
-3.01872e-07
5.14687e-05
6.78815e-06
-5.90639e-07
4.826e-05
4.90136e-06
-9.77762e-07
4.52896e-05
3.69927e-06
-1.46577e-06
4.22883e-05
3.07706e-06
-2.05965e-06
3.89689e-05
2.89992e-06
-2.7749e-06
3.50764e-05
3.01333e-06
-3.61305e-06
3.03749e-05
3.32095e-06
-4.59324e-06
2.47184e-05
3.66223e-06
-5.65206e-06
1.79845e-05
4.01118e-06
-6.76773e-06
1.0573e-05
3.82367e-06
-7.50345e-06
3.44072e-06
2.97196e-06
-7.26634e-06
-2.1113e-07
-3.9111e-06
6.60758e-05
7.18056e-06
6.14215e-09
6.78675e-05
1.10055e-05
-1.29092e-08
6.80738e-05
1.15587e-05
-1.16217e-07
6.6973e-05
1.02216e-05
-3.18936e-07
6.51075e-05
8.43151e-06
-6.33644e-07
6.27704e-05
6.81058e-06
-1.06102e-06
6.0059e-05
5.71518e-06
-1.60667e-06
5.69038e-05
5.20261e-06
-2.27885e-06
5.31272e-05
5.23435e-06
-3.09556e-06
4.84938e-05
5.70277e-06
-4.06343e-06
4.27182e-05
6.53915e-06
-5.20269e-06
3.55452e-05
7.56473e-06
-6.45545e-06
2.6718e-05
8.7446e-06
-7.78256e-06
1.6498e-05
9.26781e-06
-8.70431e-06
6.02387e-06
8.50972e-06
-8.44677e-06
3.04681e-06
-4.46964e-06
6.50433e-05
4.66582e-06
1.29623e-08
6.7655e-05
8.44144e-06
-1.29555e-09
6.94217e-05
9.81035e-06
-1.02638e-07
6.99945e-05
9.58326e-06
-3.04118e-07
6.95343e-05
8.68167e-06
-6.17015e-07
6.82204e-05
7.70998e-06
-1.04256e-06
6.61772e-05
7.07694e-06
-1.58762e-06
6.3411e-05
6.95259e-06
-2.26224e-06
5.98127e-05
7.40162e-06
-3.08511e-06
5.51766e-05
8.40129e-06
-4.06551e-06
4.91994e-05
9.95843e-06
-5.22297e-06
4.15501e-05
1.19304e-05
-6.50595e-06
3.1842e-05
1.43303e-05
-7.8682e-06
2.01865e-05
1.60949e-05
-8.83376e-06
7.63696e-06
1.60619e-05
-8.57274e-06
7.90138e-06
-4.48672e-06
6.41159e-05
3.08263e-06
2.21604e-08
6.64326e-05
6.18112e-06
1.71418e-08
6.84958e-05
7.77861e-06
-7.61296e-08
6.97739e-05
8.25669e-06
-2.6905e-07
7.01461e-05
8.12184e-06
-5.70694e-07
6.96295e-05
7.84161e-06
-9.81126e-07
6.82787e-05
7.78526e-06
-1.50646e-06
6.60935e-05
8.17237e-06
-2.15652e-06
6.29863e-05
9.14408e-06
-2.94871e-06
5.87672e-05
1.07676e-05
-3.89297e-06
5.31272e-05
1.31488e-05
-5.0063e-06
4.56679e-05
1.62396e-05
-6.24371e-06
3.58571e-05
2.01823e-05
-7.5547e-06
2.35334e-05
2.37717e-05
-8.4923e-06
9.33007e-06
2.54579e-05
-8.22406e-06
1.45755e-05
-4.2585e-06
6.35658e-05
2.05398e-06
3.21899e-08
6.54466e-05
4.36659e-06
3.92481e-08
6.74071e-05
5.86511e-06
-4.17724e-08
6.89374e-05
6.69963e-06
-2.21486e-07
6.9782e-05
7.11878e-06
-5.06958e-07
6.98408e-05
7.4366e-06
-8.96483e-07
6.90909e-05
7.94454e-06
-1.39429e-06
6.75002e-05
8.86688e-06
-2.00867e-06
6.49799e-05
1.03916e-05
-2.75443e-06
6.13442e-05
1.26716e-05
-3.64103e-06
5.62813e-05
1.5921e-05
-4.68161e-06
4.93254e-05
2.02472e-05
-5.83824e-06
3.98092e-05
2.59937e-05
-7.05689e-06
2.72149e-05
3.2009e-05
-7.93615e-06
1.15424e-05
3.66247e-05
-7.66884e-06
2.36355e-05
-3.94934e-06
6.33106e-05
1.28533e-06
4.31266e-08
6.49089e-05
2.84562e-06
6.42414e-08
6.67505e-05
4.08867e-06
-1.51488e-09
6.83962e-05
5.05299e-06
-1.64419e-07
6.955e-05
5.84148e-06
-4.29917e-07
7.00553e-05
6.63205e-06
-7.94301e-07
6.98453e-05
7.62666e-06
-1.25915e-06
6.88752e-05
9.02485e-06
-1.83022e-06
6.7076e-05
1.10314e-05
-2.51841e-06
6.42999e-05
1.38677e-05
-3.3315e-06
6.02957e-05
1.78381e-05
-4.27709e-06
5.45993e-05
2.32617e-05
-5.32438e-06
4.65083e-05
3.07263e-05
-6.41539e-06
3.48297e-05
3.97382e-05
-7.2117e-06
1.8302e-05
4.9079e-05
-6.96135e-06
3.96774e-05
-3.6244e-06
6.32222e-05
5.43351e-08
6.10004e-07
6.47194e-05
9.04533e-08
1.43755e-06
6.65467e-05
4.16009e-08
2.34599e-06
6.83124e-05
-1.02259e-07
3.31452e-06
6.97159e-05
-3.45286e-07
4.35305e-06
7.05835e-05
-6.81926e-07
5.51683e-06
7.08365e-05
-1.11081e-06
6.9148e-06
7.04356e-05
-1.63456e-06
8.70603e-06
6.93395e-05
-2.25967e-06
1.10924e-05
6.7444e-05
-2.99137e-06
1.43502e-05
6.45672e-05
-3.83114e-06
1.88523e-05
6.02708e-05
-4.75448e-06
2.51718e-05
5.39174e-05
-5.70102e-06
3.41071e-05
4.37576e-05
-6.40397e-06
4.64032e-05
2.7837e-05
-6.20029e-06
6.13933e-05
-3.38431e-06
6.54239e-05
4.98323e-05
1.26706e-05
-2.27175e-09
3.91074e-05
1.07251e-05