/*--------------------------------*- C++ -*----------------------------------*\
| =========                 |                                                 |
| \\      /  F ield         | OpenFOAM: The Open Source CFD Toolbox           |
|  \\    /   O peration     | Version:  v1912                                 |
|   \\  /    A nd           | Website:  www.openfoam.com                      |
|    \\/     M anipulation  |                                                 |
\*---------------------------------------------------------------------------*/
FoamFile
{
    version     2.0;
    format      ascii;
    class       pointVectorField;
    location    "0.92/fluid";
    object      pointMotionU;
}
// * * * * * * * * * * * * * * * * * * * * * * * * * * * * * * * * * * * * * //

dimensions      [0 1 -1 0 0 0 0];


internalField   nonuniform List<vector> 
16859
(
(0 0 0)
(0 0 0)
(0 0 0)
(0 0 0)
(0 0 0)
(0 0 0)
(0 0 0)
(0 0 0)
(0 0 0)
(0 0 0)
(0 0 0)
(0 0 0)
(0 0 0)
(0 0 0)
(0 0 0)
(0 0 0)
(1.38986e-08 2.42589e-08 1.59665e-08)
(0 0 0)
(4.07815e-10 -1.01222e-09 7.97618e-10)
(7.80523e-10 -1.93593e-09 1.55498e-09)
(1.13462e-09 -2.80686e-09 2.32696e-09)
(1.48551e-09 -3.65072e-09 3.16222e-09)
(1.84862e-09 -4.48227e-09 4.10631e-09)
(2.2411e-09 -5.30321e-09 5.20379e-09)
(2.68407e-09 -6.09817e-09 6.49962e-09)
(3.20626e-09 -6.82711e-09 8.03998e-09)
(3.85041e-09 -7.41206e-09 9.87297e-09)
(4.68572e-09 -7.71331e-09 1.20505e-08)
(5.8335e-09 -7.4857e-09 1.46366e-08)
(7.51982e-09 -6.29367e-09 1.77365e-08)
(1.0173e-08 -3.34631e-09 2.15776e-08)
(1.45225e-08 2.74248e-09 2.66642e-08)
(2.07473e-08 1.27939e-08 3.31972e-08)
(2.93351e-08 3.22761e-08 4.02738e-08)
(0 0 0)
(8.04223e-10 -1.99445e-09 1.57414e-09)
(1.53869e-09 -3.81577e-09 3.06819e-09)
(2.2353e-09 -5.5355e-09 4.58984e-09)
(2.9236e-09 -7.20583e-09 6.23443e-09)
(3.6332e-09 -8.85853e-09 8.09112e-09)
(4.39646e-09 -1.05015e-08 1.0247e-08)
(5.25228e-09 -1.21119e-08 1.27897e-08)
(6.25154e-09 -1.36242e-08 1.58083e-08)
(7.46592e-09 -1.49094e-08 1.9393e-08)
(9.00284e-09 -1.57413e-08 2.3633e-08)
(1.10312e-08 -1.57461e-08 2.86165e-08)
(1.38232e-08 -1.43353e-08 3.44372e-08)
(1.77886e-08 -1.06661e-08 4.12079e-08)
(2.33548e-08 -3.83929e-09 4.90178e-08)
(2.97759e-08 5.31329e-09 5.69863e-08)
(3.99243e-08 1.87178e-08 6.88302e-08)
(0 0 0)
(1.17872e-09 -2.91734e-09 2.31021e-09)
(2.25395e-09 -5.58439e-09 4.50144e-09)
(3.27105e-09 -8.10862e-09 6.73031e-09)
(4.27178e-09 -1.05702e-08 9.13527e-09)
(5.29766e-09 -1.30217e-08 1.18457e-08)
(6.39321e-09 -1.54844e-08 1.49879e-08)
(7.61017e-09 -1.79415e-08 1.86884e-08)
(9.01299e-09 -2.03249e-08 2.30759e-08)
(1.0686e-08 -2.24939e-08 2.82779e-08)
(1.27426e-08 -2.42032e-08 3.44142e-08)
(1.53366e-08 -2.50627e-08 4.15813e-08)
(1.86715e-08 -2.45066e-08 4.98311e-08)
(2.29749e-08 -2.18426e-08 5.91273e-08)
(2.83338e-08 -1.65759e-08 6.92424e-08)
(3.38161e-08 -9.80638e-09 7.88373e-08)
(4.1656e-08 -4.64621e-10 9.13598e-08)
(0 0 0)
(1.52196e-09 -3.75092e-09 2.98816e-09)
(2.90802e-09 -7.18489e-09 5.81973e-09)
(4.21449e-09 -1.04449e-08 8.69478e-09)
(5.49286e-09 -1.36401e-08 1.17897e-08)
(6.79372e-09 -1.68478e-08 1.52692e-08)
(8.17023e-09 -2.01104e-08 1.92936e-08)
(9.68219e-09 -2.34309e-08 2.40238e-08)
(1.14005e-08 -2.67622e-08 2.96233e-08)
(1.34112e-08 -2.99896e-08 3.62548e-08)
(1.58173e-08 -3.29056e-08 4.40686e-08)
(1.87347e-08 -3.5178e-08 5.31786e-08)
(2.22734e-08 -3.63234e-08 6.36162e-08)
(2.64747e-08 -3.57306e-08 7.52393e-08)
(3.11508e-08 -3.28554e-08 8.75488e-08)
(3.53298e-08 -2.82038e-08 9.86584e-08)
(4.08823e-08 -2.00776e-08 1.11491e-07)
(0 0 0)
(1.82647e-09 -4.46567e-09 3.59327e-09)
(3.48642e-09 -8.56065e-09 6.99398e-09)
(5.04419e-09 -1.24617e-08 1.04387e-08)
(6.55817e-09 -1.63071e-08 1.41354e-08)
(8.08502e-09 -2.02007e-08 1.82774e-08)
(9.68314e-09 -2.42122e-08 2.30527e-08)
(1.14164e-08 -2.83747e-08 2.86498e-08)
(1.3358e-08 -3.268e-08 3.52613e-08)
(1.55923e-08 -3.70679e-08 4.30814e-08)
(1.82129e-08 -4.14105e-08 5.22954e-08)
(2.13127e-08 -4.54878e-08 6.30556e-08)
(2.49568e-08 -4.89511e-08 7.54308e-08)
(2.91102e-08 -5.1266e-08 8.92884e-08)
(3.3483e-08 -5.16643e-08 1.04029e-07)
(3.70915e-08 -4.9619e-08 1.17263e-07)
(4.15693e-08 -4.17736e-08 1.31565e-07)
(0 0 0)
(2.08699e-09 -5.03344e-09 4.11449e-09)
(3.97906e-09 -9.6572e-09 8.0024e-09)
(5.74554e-09 -1.40783e-08 1.19288e-08)
(7.44874e-09 -1.84621e-08 1.61257e-08)
(9.14833e-09 -2.29387e-08 2.08075e-08)
(1.09047e-08 -2.76066e-08 2.61813e-08)
(1.27826e-08 -3.25339e-08 3.24546e-08)
(1.48548e-08 -3.77591e-08 3.984e-08)
(1.72039e-08 -4.329e-08 4.85553e-08)
(1.9922e-08 -4.91002e-08 5.88183e-08)
(2.31064e-08 -5.51225e-08 7.08339e-08)
(2.68464e-08 -6.12263e-08 8.47614e-08)
(3.11765e-08 -6.71415e-08 1.00615e-07)
(3.59433e-08 -7.22534e-08 1.1797e-07)
(4.01992e-08 -7.52161e-08 1.34153e-07)
(4.59209e-08 -7.12735e-08 1.52283e-07)
(0 0 0)
(2.30056e-09 -5.42876e-09 4.54488e-09)
(4.38058e-09 -1.04251e-08 8.83156e-09)
(6.31123e-09 -1.52205e-08 1.3145e-08)
(8.15579e-09 -2.00029e-08 1.77329e-08)
(9.9739e-09 -2.49255e-08 2.2822e-08)
(1.18248e-08 -3.01124e-08 2.86293e-08)
(1.37709e-08 -3.56639e-08 3.53702e-08)
(1.58813e-08 -4.16615e-08 4.3264e-08)
(1.82348e-08 -4.81744e-08 5.25367e-08)
(2.0923e-08 -5.5268e-08 6.34209e-08)
(2.40551e-08 -6.30188e-08 7.6156e-08)
(2.77663e-08 -7.15323e-08 9.0985e-08)
(3.22213e-08 -8.09428e-08 1.08117e-07)
(3.75459e-08 -9.12852e-08 1.27509e-07)
(4.30264e-08 -1.01248e-07 1.4666e-07)
(5.19214e-08 -1.12154e-07 1.70126e-07)
(0 0 0)
(2.46663e-09 -5.63045e-09 4.88198e-09)
(4.69051e-09 -1.08231e-08 9.47737e-09)
(6.74161e-09 -1.58262e-08 1.4082e-08)
(8.68126e-09 -2.08434e-08 1.89507e-08)
(1.05662e-08 -2.60443e-08 2.43137e-08)
(1.24516e-08 -3.15724e-08 3.03881e-08)
(1.43939e-08 -3.7551e-08 3.73848e-08)
(1.64542e-08 -4.40911e-08 4.55143e-08)
(1.87014e-08 -5.12989e-08 5.49883e-08)
(2.12153e-08 -5.92878e-08 6.60208e-08)
(2.40926e-08 -6.81968e-08 7.88285e-08)
(2.74569e-08 -7.8217e-08 9.36343e-08)
(3.14602e-08 -8.961e-08 1.10649e-07)
(3.61973e-08 -1.02634e-07 1.29937e-07)
(4.08504e-08 -1.15749e-07 1.4893e-07)
(5.35908e-08 -1.3725e-07 1.78049e-07)
(0 0 0)
(0 0 0)
(0 0 0)
(0 0 0)
(0 0 0)
(0 0 0)
(0 0 0)
(0 0 0)
(0 0 0)
(0 0 0)
(0 0 0)
(0 0 0)
(0 0 0)
(0 0 0)
(0 0 0)
(0 0 0)
(9.65349e-09 1.24529e-08 7.50576e-09)
(0 0 0)
(4.16031e-10 -1.03786e-09 7.72097e-10)
(7.96026e-10 -1.98527e-09 1.50408e-09)
(1.1567e-09 -2.87951e-09 2.24824e-09)
(1.51353e-09 -3.74766e-09 3.05069e-09)
(1.88186e-09 -4.60571e-09 3.95411e-09)
(2.27827e-09 -5.45653e-09 4.99944e-09)
(2.72274e-09 -6.28611e-09 6.22677e-09)
(3.24205e-09 -7.05657e-09 7.67532e-09)
(3.87578e-09 -7.69417e-09 9.3824e-09)
(4.68853e-09 -8.06808e-09 1.13816e-08)
(5.79567e-09 -7.95272e-09 1.37024e-08)
(7.41833e-09 -6.95699e-09 1.63788e-08)
(9.9834e-09 -4.39465e-09 1.94755e-08)
(1.41968e-08 8.42617e-10 2.31001e-08)
(2.02477e-08 9.29256e-09 2.69735e-08)
(2.68426e-08 1.94587e-08 2.81582e-08)
(0 0 0)
(8.20477e-10 -2.0449e-09 1.52377e-09)
(1.5694e-09 -3.91289e-09 2.9678e-09)
(2.27915e-09 -5.67858e-09 4.43472e-09)
(2.97951e-09 -7.39687e-09 6.01489e-09)
(3.69983e-09 -9.10191e-09 7.79189e-09)
(4.47152e-09 -1.08038e-08 9.84586e-09)
(5.33134e-09 -1.24823e-08 1.22551e-08)
(6.32648e-09 -1.40757e-08 1.50957e-08)
(7.52239e-09 -1.54622e-08 1.84384e-08)
(9.01675e-09 -1.64308e-08 2.23405e-08)
(1.09653e-08 -1.66404e-08 2.68346e-08)
(1.3626e-08 -1.55753e-08 3.19119e-08)
(1.74025e-08 -1.25511e-08 3.74905e-08)
(2.27377e-08 -7.0062e-09 4.33111e-08)
(2.91332e-08 1.04727e-10 4.84975e-08)
(3.62739e-08 4.76097e-09 5.24682e-08)
(0 0 0)
(1.20275e-09 -2.99105e-09 2.23638e-09)
(2.29944e-09 -5.72637e-09 4.35439e-09)
(3.33623e-09 -8.31798e-09 6.50336e-09)
(4.3553e-09 -1.085e-08 8.81452e-09)
(5.39791e-09 -1.33783e-08 1.14093e-08)
(6.50738e-09 -1.59275e-08 1.44039e-08)
(7.73276e-09 -1.84841e-08 1.79123e-08)
(9.13354e-09 -2.09848e-08 2.20453e-08)
(1.07853e-08 -2.32975e-08 2.69049e-08)
(1.27873e-08 -2.51938e-08 3.25709e-08)
(1.52722e-08 -2.63199e-08 3.90762e-08)
(1.84157e-08 -2.61882e-08 4.63645e-08)
(2.24217e-08 -2.42725e-08 5.42184e-08)
(2.73896e-08 -2.04078e-08 6.21235e-08)
(3.26746e-08 -1.5813e-08 6.8891e-08)
(3.78478e-08 -1.37263e-08 7.34399e-08)
(0 0 0)
(1.55339e-09 -3.84565e-09 2.89288e-09)
(2.96767e-09 -7.36747e-09 5.63014e-09)
(4.30029e-09 -1.07143e-08 8.40255e-09)
(5.60338e-09 -1.40005e-08 1.13775e-08)
(6.92746e-09 -1.73075e-08 1.47094e-08)
(8.32459e-09 -2.06819e-08 1.85465e-08)
(9.85182e-09 -2.41305e-08 2.30342e-08)
(1.15747e-08 -2.76113e-08 2.8315e-08)
(1.35697e-08 -3.10176e-08 3.45219e-08)
(1.59232e-08 -3.41564e-08 4.1762e-08)
(1.8725e-08 -3.67247e-08 5.0083e-08)
(2.20463e-08 -3.82988e-08 5.94128e-08)
(2.58843e-08 -3.83887e-08 6.94454e-08)
(3.00402e-08 -3.66861e-08 7.94267e-08)
(3.38195e-08 -3.37947e-08 8.76779e-08)
(3.72083e-08 -3.21575e-08 9.26348e-08)
(0 0 0)
(1.86482e-09 -4.57847e-09 3.47907e-09)
(3.55934e-09 -8.77819e-09 6.76695e-09)
(5.14941e-09 -1.2783e-08 1.00893e-08)
(6.69442e-09 -1.67373e-08 1.36435e-08)
(8.2513e-09 -2.07501e-08 1.76111e-08)
(9.87775e-09 -2.48956e-08 2.21663e-08)
(1.16355e-08 -2.92115e-08 2.74802e-08)
(1.35931e-08 -3.36942e-08 3.37223e-08)
(1.58262e-08 -3.82901e-08 4.10549e-08)
(1.84137e-08 -4.28815e-08 4.96185e-08)
(2.14241e-08 -4.72658e-08 5.94991e-08)
(2.48848e-08 -5.11241e-08 7.06644e-08)
(2.87136e-08 -5.3972e-08 8.28258e-08)
(3.25973e-08 -5.51253e-08 9.5132e-08)
(3.57923e-08 -5.40909e-08 1.05441e-07)
(3.81355e-08 -5.19276e-08 1.11626e-07)
(0 0 0)
(2.1316e-09 -5.16066e-09 3.98425e-09)
(4.06401e-09 -9.90274e-09 7.74377e-09)
(5.86846e-09 -1.44413e-08 1.15315e-08)
(7.60866e-09 -1.89487e-08 1.55677e-08)
(9.345e-09 -2.35609e-08 2.00539e-08)
(1.11378e-08 -2.83814e-08 2.51824e-08)
(1.30508e-08 -3.34831e-08 3.11422e-08)
(1.51535e-08 -3.89091e-08 3.81218e-08)
(1.7523e-08 -4.46723e-08 4.63063e-08)
(2.02418e-08 -5.07532e-08 5.58681e-08)
(2.33924e-08 -5.70939e-08 6.69451e-08)
(2.70436e-08 -6.35749e-08 7.95946e-08)
(3.12142e-08 -6.99313e-08 9.36715e-08)
(3.57659e-08 -7.5514e-08 1.08472e-07)
(3.99958e-08 -7.89579e-08 1.21596e-07)
(4.32697e-08 -7.80949e-08 1.30622e-07)
(0 0 0)
(2.35059e-09 -5.56615e-09 4.40168e-09)
(4.47598e-09 -1.06904e-08 8.54756e-09)
(6.44957e-09 -1.56132e-08 1.27096e-08)
(8.33643e-09 -2.053e-08 1.7123e-08)
(1.01974e-08 -2.56004e-08 2.20013e-08)
(1.20925e-08 -3.09539e-08 2.75461e-08)
(1.4084e-08 -3.66958e-08 3.39541e-08)
(1.624e-08 -4.29121e-08 4.14205e-08)
(1.86372e-08 -4.96762e-08 5.01392e-08)
(2.1364e-08 -5.70588e-08 6.02979e-08)
(2.45266e-08 -6.51435e-08 7.20704e-08)
(2.82637e-08 -7.40471e-08 8.55978e-08)
(3.27679e-08 -8.39186e-08 1.00922e-07)
(3.82555e-08 -9.4779e-08 1.17691e-07)
(4.43282e-08 -1.05471e-07 1.3369e-07)
(5.0831e-08 -1.14975e-07 1.46384e-07)
(0 0 0)
(2.52112e-09 -5.77319e-09 4.72895e-09)
(4.7945e-09 -1.1099e-08 9.17428e-09)
(6.89261e-09 -1.62351e-08 1.36184e-08)
(8.8789e-09 -2.1393e-08 1.83034e-08)
(1.08118e-08 -2.67492e-08 2.34461e-08)
(1.27477e-08 -3.24526e-08 2.92486e-08)
(1.4744e-08 -3.86318e-08 3.59037e-08)
(1.68626e-08 -4.54016e-08 4.35989e-08)
(1.91728e-08 -5.28717e-08 5.25159e-08)
(2.17558e-08 -6.11591e-08 6.28272e-08)
(2.47125e-08 -7.04071e-08 7.46902e-08)
(2.81795e-08 -8.08144e-08 8.8235e-08)
(3.23425e-08 -9.26524e-08 1.03517e-07)
(3.73748e-08 -1.06157e-07 1.20304e-07)
(4.2642e-08 -1.19916e-07 1.36278e-07)
(5.13879e-08 -1.38576e-07 1.5406e-07)
(0 0 0)
(0 0 0)
(0 0 0)
(0 0 0)
(0 0 0)
(0 0 0)
(0 0 0)
(0 0 0)
(0 0 0)
(0 0 0)
(0 0 0)
(0 0 0)
(0 0 0)
(0 0 0)
(0 0 0)
(0 0 0)
(6.22131e-09 6.29862e-09 2.94222e-09)
(0 0 0)
(4.22207e-10 -1.06078e-09 7.18513e-10)
(8.07455e-10 -2.02955e-09 1.39879e-09)
(1.17225e-09 -2.94489e-09 2.08861e-09)
(1.53161e-09 -3.83509e-09 2.82978e-09)
(1.90003e-09 -4.71747e-09 3.66035e-09)
(2.29246e-09 -5.59661e-09 4.61576e-09)
(2.72592e-09 -6.46112e-09 5.7289e-09)
(3.22185e-09 -7.27823e-09 7.02881e-09)
(3.81015e-09 -7.98471e-09 8.53697e-09)
(4.53711e-09 -8.47291e-09 1.02597e-08)
(5.48207e-09 -8.5698e-09 1.21747e-08)
(6.78963e-09 -8.0076e-09 1.42076e-08)
(8.71592e-09 -6.39304e-09 1.61859e-08)
(1.16077e-08 -3.2637e-09 1.77391e-08)
(1.53048e-08 1.19287e-09 1.81872e-08)
(1.79893e-08 5.9618e-09 1.44721e-08)
(0 0 0)
(8.32767e-10 -2.08994e-09 1.41805e-09)
(1.59218e-09 -3.99986e-09 2.7601e-09)
(2.31027e-09 -5.80697e-09 4.12e-09)
(3.01604e-09 -7.56854e-09 5.57968e-09)
(3.73728e-09 -9.32115e-09 7.2137e-09)
(4.50235e-09 -1.10779e-08 9.09151e-09)
(5.34261e-09 -1.28231e-08 1.12777e-08)
(6.29554e-09 -1.45036e-08 1.38291e-08)
(7.40915e-09 -1.60146e-08 1.67873e-08)
(8.74932e-09 -1.71817e-08 2.01623e-08)
(1.04124e-08 -1.77423e-08 2.39022e-08)
(1.25414e-08 -1.73491e-08 2.78396e-08)
(1.53192e-08 -1.56595e-08 3.15907e-08)
(1.88188e-08 -1.26801e-08 3.44017e-08)
(2.23905e-08 -9.56617e-09 3.52296e-08)
(2.48545e-08 -9.41391e-09 3.23773e-08)
(0 0 0)
(1.22108e-09 -3.05673e-09 2.08134e-09)
(2.33352e-09 -5.85318e-09 4.04993e-09)
(3.38312e-09 -8.50512e-09 6.04236e-09)
(4.4111e-09 -1.11e-08 8.17772e-09)
(5.45666e-09 -1.36971e-08 1.05643e-08)
(6.5592e-09 -1.63247e-08 1.33033e-08)
(7.76072e-09 -1.89747e-08 1.64891e-08)
(9.10818e-09 -2.1593e-08 2.02059e-08)
(1.0655e-08 -2.40659e-08 2.45165e-08)
(1.24608e-08 -2.62028e-08 2.94397e-08)
(1.45874e-08 -2.77287e-08 3.49074e-08)
(1.70821e-08 -2.8316e-08 4.06895e-08)
(1.99221e-08 -2.7739e-08 4.62696e-08)
(2.28702e-08 -2.62741e-08 5.06941e-08)
(2.52203e-08 -2.51697e-08 5.27317e-08)
(2.57286e-08 -2.6618e-08 5.05993e-08)
(0 0 0)
(1.57766e-09 -3.92983e-09 2.69259e-09)
(3.01295e-09 -7.52998e-09 5.23704e-09)
(4.36309e-09 -1.09541e-08 7.80795e-09)
(5.67928e-09 -1.43207e-08 1.05572e-08)
(7.00981e-09 -1.77149e-08 1.3623e-08)
(8.40247e-09 -2.11873e-08 1.71342e-08)
(9.90668e-09 -2.47499e-08 2.12126e-08)
(1.15744e-08 -2.83682e-08 2.59679e-08)
(1.34583e-08 -3.19503e-08 3.14864e-08)
(1.56029e-08 -3.53325e-08 3.78044e-08)
(1.80248e-08 -3.82715e-08 4.48587e-08)
(2.06655e-08 -4.04646e-08 5.23971e-08)
(2.33017e-08 -4.165e-08 5.98287e-08)
(2.54234e-08 -4.18723e-08 6.60269e-08)
(2.63188e-08 -4.18265e-08 6.9418e-08)
(2.49935e-08 -4.32209e-08 6.7922e-08)
(0 0 0)
(1.89481e-09 -4.6784e-09 3.23861e-09)
(3.61552e-09 -8.97109e-09 6.29539e-09)
(5.228e-09 -1.30675e-08 9.37692e-09)
(6.79088e-09 -1.71169e-08 1.26625e-08)
(8.35903e-09 -2.12323e-08 1.63146e-08)
(9.98614e-09 -2.54915e-08 2.04853e-08)
(1.17266e-08 -2.9936e-08 2.53184e-08)
(1.3636e-08 -3.45672e-08 3.09465e-08)
(1.57677e-08 -3.93393e-08 3.74792e-08)
(1.81611e-08 -4.41495e-08 4.49776e-08)
(2.08162e-08 -4.88256e-08 5.34047e-08)
(2.36383e-08 -5.31113e-08 6.25307e-08)
(2.63338e-08 -5.66499e-08 7.17605e-08)
(2.82812e-08 -5.90005e-08 7.98612e-08)
(2.86887e-08 -5.98763e-08 8.48787e-08)
(2.62317e-08 -6.00915e-08 8.4293e-08)
(0 0 0)
(2.16696e-09 -5.27302e-09 3.70945e-09)
(4.13052e-09 -1.01196e-08 7.20537e-09)
(5.96223e-09 -1.47612e-08 1.07194e-08)
(7.72538e-09 -1.93753e-08 1.44517e-08)
(9.47874e-09 -2.4102e-08 1.85829e-08)
(1.12793e-08 -2.9048e-08 2.32814e-08)
(1.31844e-08 -3.42883e-08 2.87066e-08)
(1.52528e-08 -3.98677e-08 3.50071e-08)
(1.75423e-08 -4.57994e-08 4.23113e-08)
(2.01026e-08 -5.20638e-08 5.07048e-08)
(2.29581e-08 -5.8602e-08 6.01873e-08)
(2.60716e-08 -6.52932e-08 7.05845e-08)
(2.92718e-08 -7.18755e-08 8.13687e-08)
(3.21214e-08 -7.77393e-08 9.13145e-08)
(3.38255e-08 -8.1658e-08 9.81501e-08)
(3.25423e-08 -8.15135e-08 9.9015e-08)
(0 0 0)
(2.39082e-09 -5.68712e-09 4.09882e-09)
(4.5519e-09 -1.0924e-08 7.95482e-09)
(6.55735e-09 -1.59578e-08 1.18172e-08)
(8.47219e-09 -2.09895e-08 1.58997e-08)
(1.03562e-08 -2.61827e-08 2.03941e-08)
(1.2267e-08 -3.16697e-08 2.54772e-08)
(1.42619e-08 -3.75565e-08 3.13155e-08)
(1.64008e-08 -4.39277e-08 3.80636e-08)
(1.87457e-08 -5.08511e-08 4.58571e-08)
(2.13596e-08 -5.83855e-08 5.47941e-08)
(2.43043e-08 -6.65899e-08 6.48999e-08)
(2.7634e-08 -7.55303e-08 7.60534e-08)
(3.13803e-08 -8.52516e-08 8.78215e-08)
(3.54763e-08 -9.55853e-08 9.90837e-08)
(3.93606e-08 -1.05251e-07 1.07401e-07)
(4.25253e-08 -1.12941e-07 1.09377e-07)
(0 0 0)
(2.56556e-09 -5.89854e-09 4.40442e-09)
(4.87861e-09 -1.13412e-08 8.53986e-09)
(7.01266e-09 -1.65925e-08 1.26651e-08)
(9.03152e-09 -2.18698e-08 1.70006e-08)
(1.09932e-08 -2.73535e-08 2.17411e-08)
(1.29524e-08 -3.31948e-08 2.70642e-08)
(1.49636e-08 -3.9522e-08 3.31335e-08)
(1.70823e-08 -4.64465e-08 4.00977e-08)
(1.93678e-08 -5.40691e-08 4.80833e-08)
(2.18834e-08 -6.24881e-08 5.71785e-08)
(2.46985e-08 -7.18114e-08 6.74014e-08)
(2.7888e-08 -8.21678e-08 7.86365e-08)
(3.15168e-08 -9.36923e-08 9.04928e-08)
(3.554e-08 -1.06378e-07 1.02004e-07)
(3.92226e-08 -1.1869e-07 1.10764e-07)
(4.45812e-08 -1.3452e-07 1.13171e-07)
(0 0 0)
(0 0 0)
(0 0 0)
(0 0 0)
(0 0 0)
(0 0 0)
(0 0 0)
(0 0 0)
(0 0 0)
(0 0 0)
(0 0 0)
(0 0 0)
(0 0 0)
(0 0 0)
(0 0 0)
(0 0 0)
(3.71284e-09 3.14706e-09 1.65788e-09)
(0 0 0)
(4.26479e-10 -1.08058e-09 6.39565e-10)
(8.15064e-10 -2.06783e-09 1.24434e-09)
(1.18178e-09 -3.00146e-09 1.85609e-09)
(1.54088e-09 -3.91086e-09 2.51096e-09)
(1.90548e-09 -4.81462e-09 3.24117e-09)
(2.28824e-09 -5.71909e-09 4.07556e-09)
(2.70222e-09 -6.61595e-09 5.03904e-09)
(3.1619e-09 -7.4783e-09 6.15011e-09)
(3.68487e-09 -8.25476e-09 7.41534e-09)
(4.295e-09 -8.86213e-09 8.81863e-09)
(5.02958e-09 -9.17777e-09 1.03023e-08)
(5.95196e-09 -9.03575e-09 1.17348e-08)
(7.16399e-09 -8.23426e-09 1.28601e-08)
(8.76878e-09 -6.5878e-09 1.32455e-08)
(1.05601e-08 -4.24335e-09 1.24539e-08)
(1.13328e-08 -8.80518e-10 9.43477e-09)
(0 0 0)
(8.41364e-10 -2.12882e-09 1.2623e-09)
(1.60756e-09 -4.075e-09 2.45547e-09)
(2.32975e-09 -5.91792e-09 3.66156e-09)
(3.03549e-09 -7.71693e-09 4.95144e-09)
(3.75008e-09 -9.51088e-09 6.38824e-09)
(4.49764e-09 -1.13159e-08 8.02867e-09)
(5.30228e-09 -1.31216e-08 9.92185e-09)
(6.18894e-09 -1.48841e-08 1.21046e-08)
(7.18395e-09 -1.65176e-08 1.45908e-08)
(8.31512e-09 -1.78854e-08 1.73505e-08)
(9.6115e-09 -1.87985e-08 2.02746e-08)
(1.10985e-08 -1.90439e-08 2.31147e-08)
(1.27694e-08 -1.84854e-08 2.54008e-08)
(1.44852e-08 -1.7297e-08 2.63971e-08)
(1.57782e-08 -1.62405e-08 2.55363e-08)
(1.61966e-08 -1.67607e-08 2.31034e-08)
(0 0 0)
(1.23411e-09 -3.11335e-09 1.85288e-09)
(2.35698e-09 -5.96251e-09 3.60327e-09)
(3.41331e-09 -8.66637e-09 5.37058e-09)
(4.44241e-09 -1.13152e-08 7.25789e-09)
(5.48021e-09 -1.39711e-08 9.35704e-09)
(6.56055e-09 -1.66661e-08 1.17508e-08)
(7.71602e-09 -1.93974e-08 1.45116e-08)
(8.97756e-09 -2.21213e-08 1.76953e-08)
(1.03715e-08 -2.47429e-08 2.13264e-08)
(1.19117e-08 -2.71095e-08 2.53712e-08)
(1.35835e-08 -2.90164e-08 2.96909e-08)
(1.53101e-08 -3.02569e-08 3.39697e-08)
(1.68914e-08 -3.07696e-08 3.76269e-08)
(1.7937e-08 -3.09105e-08 3.98092e-08)
(1.80174e-08 -3.14967e-08 3.98976e-08)
(1.67896e-08 -3.34852e-08 3.83339e-08)
(0 0 0)
(1.59522e-09 -4.00224e-09 2.39731e-09)
(3.04484e-09 -7.66971e-09 4.66005e-09)
(4.40486e-09 -1.11599e-08 6.9409e-09)
(5.72441e-09 -1.45946e-08 9.37141e-09)
(7.04816e-09 -1.8062e-08 1.20688e-08)
(8.41777e-09 -2.16161e-08 1.51392e-08)
(9.87227e-09 -2.52731e-08 1.86764e-08)
(1.14464e-08 -2.90062e-08 2.27549e-08)
(1.3164e-08 -3.27371e-08 2.74139e-08)
(1.5023e-08 -3.63286e-08 3.26264e-08)
(1.69639e-08 -3.95865e-08 3.8247e-08)
(1.88111e-08 -4.2291e-08 4.39327e-08)
(2.0184e-08 -4.42916e-08 4.90474e-08)
(2.04566e-08 -4.56867e-08 5.26432e-08)
(1.92092e-08 -4.68736e-08 5.39096e-08)
(1.63402e-08 -4.86585e-08 5.32063e-08)
(0 0 0)
(1.91695e-09 -4.76412e-09 2.88387e-09)
(3.65604e-09 -9.1364e-09 5.60267e-09)
(5.28205e-09 -1.33106e-08 8.33714e-09)
(6.85161e-09 -1.74396e-08 1.12426e-08)
(8.41602e-09 -2.16393e-08 1.44573e-08)
(1.00229e-08 -2.59899e-08 1.81065e-08)
(1.17165e-08 -3.05351e-08 2.23019e-08)
(1.35358e-08 -3.52791e-08 2.7135e-08)
(1.55068e-08 -4.01806e-08 3.26607e-08)
(1.76253e-08 -4.51455e-08 3.88656e-08)
(1.9822e-08 -5.00184e-08 4.56145e-08)
(2.18956e-08 -5.45715e-08 5.25655e-08)
(2.34098e-08 -5.84887e-08 5.90589e-08)
(2.3634e-08 -6.13516e-08 6.40584e-08)
(2.20342e-08 -6.27525e-08 6.65093e-08)
(1.81144e-08 -6.29067e-08 6.66304e-08)
(0 0 0)
(2.19357e-09 -5.36913e-09 3.3037e-09)
(4.17964e-09 -1.03049e-08 6.4137e-09)
(6.02887e-09 -1.50333e-08 9.53276e-09)
(7.80282e-09 -1.97357e-08 1.28344e-08)
(9.55709e-09 -2.45546e-08 1.64725e-08)
(1.13432e-08 -2.95979e-08 2.05862e-08)
(1.32095e-08 -3.49403e-08 2.52998e-08)
(1.51998e-08 -4.06239e-08 3.07171e-08)
(1.73484e-08 -4.66566e-08 3.69052e-08)
(1.9667e-08 -5.30082e-08 4.3865e-08)
(2.21202e-08 -5.96013e-08 5.14773e-08)
(2.45773e-08 -6.62811e-08 5.9414e-08)
(2.67364e-08 -7.27292e-08 6.70086e-08)
(2.80516e-08 -7.82621e-08 7.31401e-08)
(2.79457e-08 -8.16425e-08 7.65028e-08)
(2.52726e-08 -8.05066e-08 7.72879e-08)
(0 0 0)
(2.42168e-09 -5.7903e-09 3.65117e-09)
(4.60927e-09 -1.11228e-08 7.08225e-09)
(6.6363e-09 -1.62496e-08 1.05114e-08)
(8.5665e-09 -2.13754e-08 1.41244e-08)
(1.04571e-08 -2.66658e-08 1.80845e-08)
(1.2361e-08 -3.22532e-08 2.25382e-08)
(1.43283e-08 -3.82409e-08 2.76159e-08)
(1.64065e-08 -4.47065e-08 3.34257e-08)
(1.86383e-08 -5.17042e-08 4.00397e-08)
(2.10562e-08 -5.92669e-08 4.74649e-08)
(2.36725e-08 -6.74072e-08 5.55916e-08)
(2.6462e-08 -7.61068e-08 6.41038e-08)
(2.93393e-08 -8.52654e-08 7.23295e-08)
(3.21236e-08 -9.45118e-08 7.90533e-08)
(3.44215e-08 -1.02552e-07 8.26696e-08)
(3.64527e-08 -1.07769e-07 8.30711e-08)
(0 0 0)
(2.60026e-09 -6.00518e-09 3.92416e-09)
(4.94351e-09 -1.15466e-08 7.60474e-09)
(7.10303e-09 -1.68941e-08 1.12685e-08)
(9.1418e-09 -2.22684e-08 1.51069e-08)
(1.11159e-08 -2.78515e-08 1.92865e-08)
(1.30766e-08 -3.37941e-08 2.39547e-08)
(1.50724e-08 -4.02202e-08 2.92396e-08)
(1.71497e-08 -4.72317e-08 3.52454e-08)
(1.93526e-08 -5.49106e-08 4.20379e-08)
(2.17212e-08 -6.33225e-08 4.96176e-08)
(2.4287e-08 -7.25174e-08 5.78715e-08)
(2.70625e-08 -8.25241e-08 6.64882e-08)
(3.00198e-08 -9.33159e-08 7.4817e-08)
(3.30174e-08 -1.04675e-07 8.16948e-08)
(3.54758e-08 -1.1514e-07 8.54518e-08)
(3.92055e-08 -1.27768e-07 8.38499e-08)
(0 0 0)
(0 0 0)
(0 0 0)
(0 0 0)
(0 0 0)
(0 0 0)
(0 0 0)
(0 0 0)
(0 0 0)
(0 0 0)
(0 0 0)
(0 0 0)
(0 0 0)
(0 0 0)
(0 0 0)
(0 0 0)
(2.48092e-09 1.74536e-09 1.54008e-09)
(0 0 0)
(4.29144e-10 -1.09695e-09 5.38671e-10)
(8.19513e-10 -2.09948e-09 1.04747e-09)
(1.18652e-09 -3.04824e-09 1.56097e-09)
(1.54348e-09 -3.97352e-09 2.10873e-09)
(1.90199e-09 -4.89496e-09 2.7165e-09)
(2.27225e-09 -5.82045e-09 3.40637e-09)
(2.66332e-09 -6.74433e-09 4.19579e-09)
(3.08312e-09 -7.64457e-09 5.09475e-09)
(3.53839e-09 -8.47901e-09 6.10003e-09)
(4.03514e-09 -9.18159e-09 7.18525e-09)
(4.58133e-09 -9.66036e-09 8.28531e-09)
(5.19384e-09 -9.79904e-09 9.27533e-09)
(5.90891e-09 -9.46008e-09 9.95238e-09)
(6.77545e-09 -8.48758e-09 1.00589e-08)
(7.71057e-09 -6.85245e-09 9.48762e-09)
(8.10969e-09 -3.72619e-09 7.90743e-09)
(0 0 0)
(8.4683e-10 -2.16098e-09 1.06323e-09)
(1.61679e-09 -4.13711e-09 2.06713e-09)
(2.33989e-09 -6.00957e-09 3.07959e-09)
(3.04193e-09 -7.83937e-09 4.15861e-09)
(3.74539e-09 -9.66719e-09 5.3547e-09)
(4.46991e-09 -1.15118e-08 6.71135e-09)
(5.23228e-09 -1.3367e-08 8.26319e-09)
(6.04571e-09 -1.51967e-08 1.00306e-08)
(6.91759e-09 -1.69294e-08 1.20088e-08)
(7.84602e-09 -1.84539e-08 1.41495e-08)
(8.81514e-09 -1.96242e-08 1.63324e-08)
(9.7889e-09 -2.02873e-08 1.83285e-08)
(1.07011e-08 -2.0354e-08 1.97749e-08)
(1.14389e-08 -1.99241e-08 2.02388e-08)
(1.18456e-08 -1.93939e-08 1.96171e-08)
(1.21411e-08 -1.95963e-08 1.86572e-08)
(0 0 0)
(1.24261e-09 -3.16012e-09 1.56082e-09)
(2.37156e-09 -6.05277e-09 3.03369e-09)
(3.42996e-09 -8.79925e-09 4.51749e-09)
(4.45483e-09 -1.14921e-08 6.09656e-09)
(5.47838e-09 -1.41955e-08 7.84446e-09)
(6.52855e-09 -1.69443e-08 9.82491e-09)
(7.62848e-09 -1.97404e-08 1.20894e-08)
(8.79416e-09 -2.25471e-08 1.46698e-08)
(1.00287e-08 -2.52835e-08 1.75645e-08)
(1.13116e-08 -2.78205e-08 2.07135e-08)
(1.25801e-08 -2.99906e-08 2.39636e-08)
(1.37018e-08 -3.16329e-08 2.70275e-08)
(1.44475e-08 -3.27024e-08 2.9468e-08)
(1.45239e-08 -3.34407e-08 3.08052e-08)
(1.38738e-08 -3.4331e-08 3.09467e-08)
(1.28721e-08 -3.59792e-08 3.07314e-08)
(0 0 0)
(1.60701e-09 -4.06195e-09 2.01968e-09)
(3.06538e-09 -7.78477e-09 3.92395e-09)
(4.42935e-09 -1.13288e-08 5.83924e-09)
(5.74543e-09 -1.48184e-08 7.87327e-09)
(7.05417e-09 -1.8344e-08 1.01201e-08)
(8.39062e-09 -2.19615e-08 1.26615e-08)
(9.78345e-09 -2.56902e-08 1.55648e-08)
(1.12513e-08 -2.95077e-08 1.88743e-08)
(1.27942e-08 -3.33434e-08 2.25949e-08)
(1.43756e-08 -3.70735e-08 2.66654e-08)
(1.58926e-08 -4.05232e-08 3.09193e-08)
(1.71269e-08 -4.34926e-08 3.50426e-08)
(1.7696e-08 -4.58238e-08 3.85623e-08)
(1.71105e-08 -4.75186e-08 4.09594e-08)
(1.53259e-08 -4.87658e-08 4.20391e-08)
(1.29196e-08 -5.01881e-08 4.25842e-08)
(0 0 0)
(1.93223e-09 -4.83464e-09 2.42997e-09)
(3.68309e-09 -9.27211e-09 4.71844e-09)
(5.31561e-09 -1.35094e-08 7.01514e-09)
(6.88378e-09 -1.77019e-08 9.44734e-09)
(8.43476e-09 -2.1967e-08 1.21261e-08)
(1.00096e-08 -2.63862e-08 1.51483e-08)
(1.16423e-08 -3.10033e-08 1.85946e-08)
(1.33563e-08 -3.58219e-08 2.25205e-08)
(1.51551e-08 -4.07996e-08 2.69395e-08)
(1.7004e-08 -4.58399e-08 3.17947e-08)
(1.87966e-08 -5.07817e-08 3.69168e-08)
(2.03001e-08 -5.53831e-08 4.19787e-08)
(2.10911e-08 -5.92923e-08 4.64781e-08)
(2.05837e-08 -6.20206e-08 4.98376e-08)
(1.85916e-08 -6.31048e-08 5.17317e-08)
(1.52689e-08 -6.27476e-08 5.29119e-08)
(0 0 0)
(2.21244e-09 -5.44797e-09 2.7842e-09)
(4.21354e-09 -1.04564e-08 5.40247e-09)
(6.07239e-09 -1.52549e-08 8.02283e-09)
(7.84812e-09 -2.00267e-08 1.07876e-08)
(9.59251e-09 -2.49158e-08 1.38206e-08)
(1.1351e-08 -3.00294e-08 1.72297e-08)
(1.31626e-08 -3.54396e-08 2.11049e-08)
(1.50575e-08 -4.11824e-08 2.551e-08)
(1.70502e-08 -4.72548e-08 3.04652e-08)
(1.91264e-08 -5.36075e-08 3.59175e-08)
(2.12203e-08 -6.01306e-08 4.16966e-08)
(2.31769e-08 -6.66164e-08 4.74613e-08)
(2.47099e-08 -7.26693e-08 5.26647e-08)
(2.54045e-08 -7.75319e-08 5.66294e-08)
(2.49912e-08 -8.00507e-08 5.88966e-08)
(2.29335e-08 -7.81508e-08 6.03505e-08)
(0 0 0)
(2.44408e-09 -5.87472e-09 3.07758e-09)
(4.65006e-09 -1.12849e-08 5.96678e-09)
(6.69015e-09 -1.64863e-08 8.84847e-09)
(8.62602e-09 -2.16853e-08 1.18751e-08)
(1.05116e-08 -2.70483e-08 1.51783e-08)
(1.23946e-08 -3.27057e-08 1.88721e-08)
(1.43173e-08 -3.87556e-08 2.30508e-08)
(1.63154e-08 -4.5265e-08 2.77812e-08)
(1.84155e-08 -5.22693e-08 3.30852e-08)
(2.0629e-08 -5.97694e-08 3.89097e-08)
(2.29431e-08 -6.77248e-08 4.508e-08)
(2.5312e-08 -7.60335e-08 5.12359e-08)
(2.76588e-08 -8.44784e-08 5.67685e-08)
(2.99027e-08 -9.25854e-08 6.0842e-08)
(3.19072e-08 -9.92178e-08 6.27795e-08)
(3.44525e-08 -1.03147e-07 6.3517e-08)
(0 0 0)
(2.62601e-09 -6.09223e-09 3.3083e-09)
(4.99088e-09 -1.17138e-08 6.40827e-09)
(7.16694e-09 -1.71378e-08 9.48803e-09)
(9.21557e-09 -2.25869e-08 1.2705e-08)
(1.11902e-08 -2.82433e-08 1.61936e-08)
(1.3138e-08 -3.42546e-08 2.00687e-08)
(1.51009e-08 -4.07381e-08 2.44236e-08)
(1.71161e-08 -4.77824e-08 2.93219e-08)
(1.92149e-08 -5.54467e-08 3.47809e-08)
(2.14209e-08 -6.37587e-08 4.07427e-08)
(2.37456e-08 -7.27082e-08 4.7027e-08)
(2.61832e-08 -8.22346e-08 5.32653e-08)
(2.8706e-08 -9.21953e-08 5.88291e-08)
(3.12358e-08 -1.02285e-07 6.28299e-08)
(3.33896e-08 -1.11269e-07 6.44623e-08)
(3.73083e-08 -1.22338e-07 6.29799e-08)
(0 0 0)
(0 0 0)
(0 0 0)
(0 0 0)
(0 0 0)
(0 0 0)
(0 0 0)
(0 0 0)
(0 0 0)
(0 0 0)
(0 0 0)
(0 0 0)
(0 0 0)
(0 0 0)
(0 0 0)
(0 0 0)
(1.98368e-09 1.23642e-09 1.39373e-09)
(0 0 0)
(4.30585e-10 -1.10972e-09 4.19822e-10)
(8.2163e-10 -2.12413e-09 8.15979e-10)
(1.18796e-09 -3.08466e-09 1.21502e-09)
(1.54197e-09 -4.02228e-09 1.6394e-09)
(1.8938e-09 -4.95733e-09 2.1082e-09)
(2.25152e-09 -5.89883e-09 2.63717e-09)
(2.62088e-09 -6.84296e-09 3.23762e-09)
(3.00482e-09 -7.77084e-09 3.91394e-09)
(3.40273e-09 -8.64566e-09 4.659e-09)
(3.81046e-09 -9.40989e-09 5.44701e-09)
(4.22316e-09 -9.98362e-09 6.22435e-09)
(4.64479e-09 -1.02629e-08 6.90146e-09)
(5.10823e-09 -1.01108e-08 7.35777e-09)
(5.69299e-09 -9.33431e-09 7.48458e-09)
(6.41633e-09 -7.81277e-09 7.29661e-09)
(6.86471e-09 -4.60247e-09 6.50079e-09)
(0 0 0)
(8.49898e-10 -2.18605e-09 8.28693e-10)
(1.62147e-09 -4.18551e-09 1.61041e-09)
(2.34354e-09 -6.08092e-09 2.39727e-09)
(3.0402e-09 -7.93448e-09 3.23331e-09)
(3.73131e-09 -9.78818e-09 4.15603e-09)
(4.43253e-09 -1.16626e-08 5.19647e-09)
(5.15468e-09 -1.35543e-08 6.37722e-09)
(5.90206e-09 -1.5432e-08 7.70763e-09)
(6.66952e-09 -1.72321e-08 9.17519e-09)
(7.43889e-09 -1.88552e-08 1.07324e-08)
(8.17683e-09 -2.01697e-08 1.22801e-08)
(8.83804e-09 -2.10305e-08 1.36538e-08)
(9.38131e-09 -2.1322e-08 1.46338e-08)
(9.80043e-09 -2.10379e-08 1.50223e-08)
(1.01275e-08 -2.04158e-08 1.48563e-08)
(1.07237e-08 -2.01697e-08 1.45811e-08)
(0 0 0)
(1.24761e-09 -3.19659e-09 1.21663e-09)
(2.37947e-09 -6.12306e-09 2.36366e-09)
(3.43708e-09 -8.90252e-09 3.51698e-09)
(4.45513e-09 -1.1629e-08 4.74064e-09)
(5.46243e-09 -1.43683e-08 6.08934e-09)
(6.48168e-09 -1.71569e-08 7.60866e-09)
(7.5283e-09 -1.99993e-08 9.33243e-09)
(8.60712e-09 -2.2863e-08 1.12763e-08)
(9.7063e-09 -2.56733e-08 1.34264e-08)
(1.07876e-08 -2.83098e-08 1.57218e-08)
(1.17734e-08 -3.06133e-08 1.80354e-08)
(1.25358e-08 -3.2418e-08 2.016e-08)
(1.29045e-08 -3.3633e-08 2.18323e-08)
(1.27475e-08 -3.43777e-08 2.28404e-08)
(1.22099e-08 -3.50137e-08 2.32355e-08)
(1.17587e-08 -3.61559e-08 2.3467e-08)
(0 0 0)
(1.61426e-09 -4.10845e-09 1.57449e-09)
(3.07726e-09 -7.87423e-09 3.05768e-09)
(4.44136e-09 -1.14598e-08 4.54663e-09)
(5.75048e-09 -1.4991e-08 6.12317e-09)
(7.04128e-09 -1.85596e-08 7.85731e-09)
(8.34302e-09 -2.22227e-08 9.80778e-09)
(9.6759e-09 -2.60006e-08 1.20191e-08)
(1.10467e-08 -2.98719e-08 1.45141e-08)
(1.24404e-08 -3.37674e-08 1.72807e-08)
(1.38047e-08 -3.75638e-08 2.02528e-08)
(1.5028e-08 -4.10826e-08 2.32886e-08)
(1.59106e-08 -4.41055e-08 2.61589e-08)
(1.61546e-08 -4.64233e-08 2.85781e-08)
(1.54599e-08 -4.79446e-08 3.03193e-08)
(1.39681e-08 -4.88173e-08 3.13706e-08)
(1.22871e-08 -4.97376e-08 3.21245e-08)
(0 0 0)
(1.942e-09 -4.88946e-09 1.89461e-09)
(3.69962e-09 -9.37738e-09 3.67734e-09)
(5.33394e-09 -1.3663e-08 5.46313e-09)
(6.89629e-09 -1.7903e-08 7.34874e-09)
(8.42992e-09 -2.22158e-08 9.41695e-09)
(9.97002e-09 -2.66825e-08 1.17375e-08)
(1.15423e-08 -3.13457e-08 1.4364e-08)
(1.31589e-08 -3.62058e-08 1.7326e-08)
(1.48097e-08 -4.12143e-08 2.0615e-08)
(1.64473e-08 -4.62642e-08 2.41631e-08)
(1.79624e-08 -5.11757e-08 2.78193e-08)
(1.91504e-08 -5.56739e-08 3.1337e-08)
(1.96838e-08 -5.93568e-08 3.44037e-08)
(1.91712e-08 -6.16868e-08 3.67569e-08)