/*--------------------------------*- C++ -*----------------------------------*\
| =========                 |                                                 |
| \\      /  F ield         | OpenFOAM: The Open Source CFD Toolbox           |
|  \\    /   O peration     | Version:  v1912                                 |
|   \\  /    A nd           | Website:  www.openfoam.com                      |
|    \\/     M anipulation  |                                                 |
\*---------------------------------------------------------------------------*/
FoamFile
{
    version     2.0;
    format      ascii;
    class       volVectorField;
    location    "0.87/fluid";
    object      cellMotionU;
}
// * * * * * * * * * * * * * * * * * * * * * * * * * * * * * * * * * * * * * //

dimensions      [0 1 -1 0 0 0 0];


internalField   nonuniform List<vector> 
14592
(
(1.15274e-10 -2.78564e-10 2.13275e-10)
(3.22255e-10 -7.78806e-10 6.03907e-10)
(5.15022e-10 -1.24348e-09 9.88775e-10)
(7.01711e-10 -1.68867e-09 1.3935e-09)
(8.90884e-10 -2.12566e-09 1.84223e-09)
(1.09059e-09 -2.55868e-09 2.35733e-09)
(1.31054e-09 -2.98438e-09 2.96119e-09)
(1.56355e-09 -3.38867e-09 3.67653e-09)
(1.86818e-09 -3.74091e-09 4.52668e-09)
(2.25479e-09 -3.98362e-09 5.53663e-09)
(2.7788e-09 -4.01094e-09 6.73668e-09)
(3.5547e-09 -3.61984e-09 8.17882e-09)
(4.84093e-09 -2.37931e-09 9.99199e-09)
(7.26944e-09 7.53857e-10 1.25608e-08)
(1.22538e-08 8.31031e-09 1.68822e-08)
(2.06977e-08 2.29654e-08 2.35596e-08)
(3.42597e-10 -8.27153e-10 6.33931e-10)
(9.57744e-10 -2.31284e-09 1.79495e-09)
(1.52985e-09 -3.69364e-09 2.93783e-09)
(2.08392e-09 -5.01872e-09 4.13964e-09)
(2.64293e-09 -6.32071e-09 5.46983e-09)
(3.23128e-09 -7.61495e-09 6.99519e-09)
(3.87671e-09 -8.89457e-09 8.78135e-09)
(4.61449e-09 -1.01227e-08 1.08941e-08)
(5.49413e-09 -1.12184e-08 1.33998e-08)
(6.59141e-09 -1.20316e-08 1.63642e-08)
(8.03405e-09 -1.23e-08 1.98537e-08)
(1.00524e-08 -1.15742e-08 2.3945e-08)
(1.30795e-08 -9.08619e-09 2.87608e-08)
(1.78775e-08 -3.5901e-09 3.45312e-08)
(2.53808e-08 6.429e-09 4.15094e-08)
(3.43038e-08 1.93182e-08 4.85239e-08)
(5.60953e-10 -1.35136e-09 1.03839e-09)
(1.56766e-09 -3.77968e-09 2.93952e-09)
(2.50308e-09 -6.04019e-09 4.80991e-09)
(3.40591e-09 -8.21433e-09 6.77377e-09)
(4.31367e-09 -1.03598e-08 8.94478e-09)
(5.2643e-09 -1.25072e-08 1.14309e-08)
(6.30034e-09 -1.46546e-08 1.43386e-08)
(7.47387e-09 -1.67582e-08 1.77743e-08)
(8.85335e-09 -1.87141e-08 2.1844e-08)
(1.05351e-08 -2.03303e-08 2.66487e-08)
(1.26637e-08 -2.12838e-08 3.22775e-08)
(1.54634e-08 -2.10683e-08 3.8797e-08)
(1.92986e-08 -1.89556e-08 4.62541e-08)
(2.4695e-08 -1.41009e-08 5.46757e-08)
(3.21363e-08 -6.19517e-09 6.40213e-08)
(4.02836e-08 2.14548e-09 7.30491e-08)
(7.64804e-10 -1.83468e-09 1.41668e-09)
(2.13656e-09 -5.13377e-09 4.00933e-09)
(3.40852e-09 -8.2109e-09 6.55706e-09)
(4.63203e-09 -1.11815e-08 9.22777e-09)
(5.85535e-09 -1.41295e-08 1.21738e-08)
(7.1278e-09 -1.7107e-08 1.55408e-08)
(8.50292e-09 -2.01284e-08 1.9472e-08)
(1.00432e-08 -2.31618e-08 2.41109e-08)
(1.18258e-08 -2.61129e-08 2.96004e-08)
(1.3948e-08 -2.87995e-08 3.60754e-08)
(1.65342e-08 -3.09175e-08 4.36472e-08)
(1.97408e-08 -3.20041e-08 5.23762e-08)
(2.37601e-08 -3.14336e-08 6.22324e-08)
(2.87813e-08 -2.85501e-08 7.30345e-08)
(3.48366e-08 -2.3192e-08 8.43062e-08)
(4.07722e-08 -1.72792e-08 9.41429e-08)
(9.49464e-10 -2.26076e-09 1.76012e-09)
(2.65124e-09 -6.32929e-09 4.97971e-09)
(4.22507e-09 -1.01333e-08 8.13849e-09)
(5.7315e-09 -1.38209e-08 1.14414e-08)
(7.22801e-09 -1.75055e-08 1.50749e-08)
(8.77166e-09 -2.12649e-08 1.92159e-08)
(1.04233e-08 -2.51399e-08 2.40389e-08)
(1.22517e-08 -2.91276e-08 2.97197e-08)
(1.43368e-08 -3.31712e-08 3.64347e-08)
(1.67716e-08 -3.71412e-08 4.43543e-08)
(1.96577e-08 -4.08091e-08 5.36242e-08)
(2.30935e-08 -4.38111e-08 6.43311e-08)
(2.71416e-08 -4.56059e-08 7.64372e-08)
(3.17594e-08 -4.54551e-08 8.96557e-08)
(3.66883e-08 -4.25759e-08 1.0315e-07)
(4.09579e-08 -3.75121e-08 1.14205e-07)
(1.11156e-09 -2.61383e-09 2.06201e-09)
(3.10166e-09 -7.3217e-09 5.83108e-09)
(4.93608e-09 -1.1735e-08 9.52119e-09)
(6.68229e-09 -1.60335e-08 1.33678e-08)
(8.40299e-09 -2.03586e-08 1.75833e-08)
(1.01605e-08 -2.48172e-08 2.23694e-08)
(1.20197e-08 -2.94819e-08 2.79244e-08)
(1.40527e-08 -3.43901e-08 3.44488e-08)
(1.63414e-08 -3.95402e-08 4.21469e-08)
(1.89785e-08 -4.48842e-08 5.12234e-08)
(2.20632e-08 -5.0313e-08 6.18701e-08)
(2.56897e-08 -5.56276e-08 7.42403e-08)
(2.99259e-08 -6.04697e-08 8.84018e-08)
(3.47392e-08 -6.41326e-08 1.04184e-07)
(3.98655e-08 -6.52144e-08 1.20734e-07)
(4.41995e-08 -6.22026e-08 1.3453e-07)
(1.24846e-09 -2.87896e-09 2.31737e-09)
(3.48112e-09 -8.06912e-09 6.54969e-09)
(5.5313e-09 -1.29482e-08 1.06828e-08)
(7.46977e-09 -1.77227e-08 1.49738e-08)
(9.36235e-09 -2.25605e-08 1.96542e-08)
(1.1273e-08 -2.75955e-08 2.49411e-08)
(1.32677e-08 -3.29325e-08 3.10476e-08)
(1.54188e-08 -3.86507e-08 3.81883e-08)
(1.7809e-08 -4.48076e-08 4.65842e-08)
(2.05347e-08 -5.14428e-08 5.64632e-08)
(2.37072e-08 -5.85844e-08 6.8056e-08)
(2.74695e-08 -6.62572e-08 8.16049e-08)
(3.20015e-08 -7.44634e-08 9.73441e-08)
(3.75427e-08 -8.30746e-08 1.15445e-07)
(4.4289e-08 -9.13517e-08 1.3555e-07)
(5.10161e-08 -9.66054e-08 1.5368e-07)
(1.35915e-09 -3.04324e-09 2.52366e-09)
(3.78646e-09 -8.5352e-09 7.12831e-09)
(6.00597e-09 -1.37128e-08 1.16114e-08)
(8.08908e-09 -1.88035e-08 1.62439e-08)
(1.01008e-08 -2.39954e-08 2.12664e-08)
(1.21039e-08 -2.94446e-08 2.69031e-08)
(1.41622e-08 -3.52825e-08 3.33708e-08)
(1.63442e-08 -4.16218e-08 4.08849e-08)
(1.8729e-08 -4.8566e-08 4.96657e-08)
(2.14098e-08 -5.62198e-08 5.99401e-08)
(2.4506e-08 -6.47111e-08 7.19486e-08)
(2.81832e-08 -7.4227e-08 8.59609e-08)
(3.27124e-08 -8.50881e-08 1.02323e-07)
(3.8586e-08 -9.78581e-08 1.21533e-07)
(4.65974e-08 -1.13279e-07 1.44045e-07)
(5.61861e-08 -1.29639e-07 1.66726e-07)
(1.17048e-10 -2.85091e-10 2.02538e-10)
(3.27163e-10 -7.97151e-10 5.73284e-10)
(5.22474e-10 -1.27314e-09 9.37664e-10)
(7.11283e-10 -1.72992e-09 1.3199e-09)
(9.01457e-10 -2.17907e-09 1.74178e-09)
(1.10087e-09 -2.62579e-09 2.22381e-09)
(1.3183e-09 -3.0677e-09 2.78558e-09)
(1.56486e-09 -3.49225e-09 3.44589e-09)
(1.85612e-09 -3.87192e-09 4.22216e-09)
(2.21689e-09 -4.15607e-09 5.12911e-09)
(2.69206e-09 -4.2553e-09 6.1773e-09)
(3.37202e-09 -4.00929e-09 7.37311e-09)
(4.45647e-09 -3.10947e-09 8.72852e-09)
(6.39344e-09 -9.13324e-10 1.02856e-08)
(1.00295e-08 3.80706e-09 1.20853e-08)
(1.54032e-08 1.13777e-08 1.34767e-08)
(3.47913e-10 -8.46489e-10 6.02064e-10)
(9.72233e-10 -2.36712e-09 1.70372e-09)
(1.55223e-09 -3.78149e-09 2.78617e-09)
(2.11212e-09 -5.14037e-09 3.92066e-09)
(2.67467e-09 -6.47867e-09 5.17161e-09)
(3.26273e-09 -7.81358e-09 6.5993e-09)
(3.90146e-09 -9.14087e-09 8.26132e-09)
(4.62138e-09 -1.04279e-08 1.02124e-08)
(5.46345e-09 -1.16019e-08 1.25019e-08)
(6.48827e-09 -1.25304e-08 1.51681e-08)
(7.79485e-09 -1.29913e-08 1.82266e-08)
(9.55782e-09 -1.26287e-08 2.16507e-08)
(1.20929e-08 -1.09055e-08 2.53349e-08)
(1.58898e-08 -7.13415e-09 2.89885e-08)
(2.13216e-08 -9.96375e-10 3.18527e-08)
(2.68764e-08 5.19515e-09 3.24071e-08)
(5.69719e-10 -1.38285e-09 9.86174e-10)
(1.59168e-09 -3.86812e-09 2.79024e-09)
(2.53999e-09 -6.1831e-09 4.56158e-09)
(3.45324e-09 -8.41275e-09 6.41599e-09)
(4.36765e-09 -1.06175e-08 8.45808e-09)
(5.31926e-09 -1.28309e-08 1.07857e-08)
(6.34668e-09 -1.5055e-08 1.34925e-08)
(7.49488e-09 -1.72517e-08 1.66676e-08)
(8.81962e-09 -1.93279e-08 2.03914e-08)
(1.03947e-08 -2.11139e-08 2.47246e-08)
(1.23227e-08 -2.23361e-08 2.96863e-08)
(1.47575e-08 -2.25965e-08 3.52162e-08)
(1.79131e-08 -2.14129e-08 4.10961e-08)
(2.20367e-08 -1.84627e-08 4.68214e-08)
(2.70829e-08 -1.43559e-08 5.13604e-08)
(3.15708e-08 -1.1821e-08 5.31517e-08)
(7.76924e-10 -1.87733e-09 1.34546e-09)
(2.16991e-09 -5.2535e-09 3.80603e-09)
(3.46015e-09 -8.40457e-09 6.21913e-09)
(4.69859e-09 -1.14502e-08 8.74128e-09)
(5.93267e-09 -1.44785e-08 1.15132e-08)
(7.20913e-09 -1.75451e-08 1.46667e-08)
(8.5769e-09 -2.06687e-08 1.83283e-08)
(1.00901e-08 -2.38234e-08 2.26192e-08)
(1.18108e-08 -2.69253e-08 2.76502e-08)
(1.38094e-08 -2.98132e-08 3.35072e-08)
(1.61634e-08 -3.22273e-08 4.02226e-08)
(1.89453e-08 -3.38008e-08 4.77186e-08)
(2.21928e-08 -3.41172e-08 5.57083e-08)
(2.58162e-08 -3.29534e-08 6.3512e-08)
(2.93928e-08 -3.08933e-08 6.97812e-08)
(3.17987e-08 -2.99371e-08 7.24822e-08)
(9.64916e-10 -2.31323e-09 1.67187e-09)
(2.69369e-09 -6.47656e-09 4.72767e-09)
(4.29104e-09 -1.03714e-08 7.71998e-09)
(5.81768e-09 -1.41517e-08 1.084e-08)
(7.32984e-09 -1.7935e-08 1.42597e-08)
(8.88231e-09 -2.18036e-08 1.81397e-08)
(1.05313e-08 -2.58021e-08 2.26348e-08)
(1.23371e-08 -2.99331e-08 2.78944e-08)
(1.43645e-08 -3.41476e-08 3.40583e-08)
(1.66792e-08 -3.83309e-08 4.12418e-08)
(1.93353e-08 -4.22841e-08 4.95046e-08)
(2.2346e-08 -4.57078e-08 5.87889e-08)
(2.56178e-08 -4.82031e-08 6.87991e-08)
(2.88277e-08 -4.93484e-08 7.87643e-08)
(3.12782e-08 -4.90155e-08 8.70329e-08)
(3.20744e-08 -4.81712e-08 9.08987e-08)
(1.13006e-09 -2.67436e-09 1.95883e-09)
(3.15275e-09 -7.49166e-09 5.53669e-09)
(5.01599e-09 -1.20101e-08 9.03304e-09)
(6.78748e-09 -1.64155e-08 1.26674e-08)
(8.52944e-09 -2.08548e-08 1.66362e-08)
(1.0302e-08 -2.5439e-08 2.11226e-08)
(1.21663e-08 -3.02445e-08 2.63031e-08)
(1.41867e-08 -3.53124e-08 3.23493e-08)
(1.64318e-08 -4.06457e-08 3.94256e-08)
(1.89701e-08 -4.62028e-08 4.76763e-08)
(2.18591e-08 -5.1887e-08 5.72006e-08)
(2.51192e-08 -5.75252e-08 6.79973e-08)
(2.86688e-08 -6.28141e-08 7.98429e-08)
(3.22035e-08 -6.71982e-08 9.203e-08)
(3.49858e-08 -6.97094e-08 1.02797e-07)
(3.58593e-08 -6.95075e-08 1.08684e-07)
(1.26986e-09 -2.94557e-09 2.2018e-09)
(3.54016e-09 -8.25621e-09 6.22002e-09)
(5.62404e-09 -1.3251e-08 1.01368e-08)
(7.59309e-09 -1.81437e-08 1.41924e-08)
(9.51268e-09 -2.31074e-08 1.86002e-08)
(1.14455e-08 -2.82806e-08 2.35585e-08)
(1.34545e-08 -3.37713e-08 2.92568e-08)
(1.56065e-08 -3.96611e-08 3.588e-08)
(1.79736e-08 -4.60085e-08 4.36069e-08)
(2.06333e-08 -5.28528e-08 5.26025e-08)
(2.36686e-08 -6.02203e-08 6.30026e-08)
(2.71586e-08 -6.81257e-08 7.48682e-08)
(3.11722e-08 -7.65535e-08 8.81076e-08)
(3.5715e-08 -8.53349e-08 1.02221e-07)
(4.04846e-08 -9.36888e-08 1.15598e-07)
(4.4106e-08 -9.91922e-08 1.24148e-07)
(1.38299e-09 -3.11362e-09 2.39815e-09)
(3.85251e-09 -8.73291e-09 6.77068e-09)
(6.11022e-09 -1.40331e-08 1.10202e-08)
(8.22847e-09 -1.92492e-08 1.53996e-08)
(1.02727e-08 -2.45748e-08 2.01315e-08)
(1.2305e-08 -3.01706e-08 2.54204e-08)
(1.43872e-08 -3.61707e-08 3.14596e-08)
(1.65842e-08 -4.26892e-08 3.84352e-08)
(1.89676e-08 -4.98281e-08 4.65256e-08)
(2.1619e-08 -5.7687e-08 5.58975e-08)
(2.4636e-08 -6.63817e-08 6.66922e-08)
(2.81463e-08 -7.60736e-08 7.90049e-08)
(3.23379e-08 -8.7022e-08 9.28299e-08)
(3.74926e-08 -9.96241e-08 1.07875e-07)
(4.38897e-08 -1.14205e-07 1.22948e-07)
(5.04274e-08 -1.28593e-07 1.33907e-07)
(1.18289e-10 -2.90825e-10 1.84547e-10)
(3.3045e-10 -8.13275e-10 5.22072e-10)
(5.27262e-10 -1.29927e-09 8.53282e-10)
(7.166e-10 -1.76623e-09 1.19949e-09)
(9.05886e-10 -2.22635e-09 1.58005e-09)
(1.10207e-09 -2.68559e-09 2.01241e-09)
(1.31246e-09 -3.14291e-09 2.51266e-09)
(1.54535e-09 -3.58791e-09 3.09477e-09)
(1.81147e-09 -3.99794e-09 3.76922e-09)
(2.12631e-09 -4.33227e-09 4.53946e-09)
(2.5164e-09 -4.52439e-09 5.39581e-09)
(3.03365e-09 -4.46682e-09 6.30472e-09)
(3.78565e-09 -3.98203e-09 7.18838e-09)
(4.99459e-09 -2.75467e-09 7.88759e-09)
(7.02263e-09 -2.51597e-10 8.07274e-09)
(9.65463e-09 3.58307e-09 7.17298e-09)
(3.51609e-10 -8.63454e-10 5.48543e-10)
(9.82149e-10 -2.41485e-09 1.55167e-09)
(1.56658e-09 -3.85876e-09 2.53532e-09)
(2.12831e-09 -5.24771e-09 3.56314e-09)
(2.68858e-09 -6.61831e-09 4.69164e-09)
(3.2678e-09 -7.99003e-09 5.97252e-09)
(3.88668e-09 -9.36184e-09 7.45288e-09)
(4.56818e-09 -1.07073e-08 9.17373e-09)
(5.33949e-09 -1.19655e-08 1.11647e-08)
(6.23637e-09 -1.30296e-08 1.34334e-08)
(7.31131e-09 -1.37313e-08 1.59441e-08)
(8.64845e-09 -1.38307e-08 1.85778e-08)
(1.0377e-08 -1.30297e-08 2.10543e-08)
(1.26427e-08 -1.10769e-08 2.27946e-08)
(1.5339e-08 -8.14357e-09 2.27486e-08)
(1.73421e-08 -5.69674e-09 2.01333e-08)
(5.759e-10 -1.41045e-09 8.98546e-10)
(1.60832e-09 -3.94574e-09 2.54137e-09)
(2.56432e-09 -6.30875e-09 4.15119e-09)
(3.48122e-09 -8.58713e-09 5.83147e-09)
(4.39309e-09 -1.08441e-08 7.67409e-09)
(5.3321e-09 -1.31161e-08 9.763e-09)
(6.33046e-09 -1.541e-08 1.21751e-08)
(7.42164e-09 -1.76952e-08 1.49779e-08)
(8.64169e-09 -1.9894e-08 1.82211e-08)
(1.00291e-08 -2.18677e-08 2.19202e-08)
(1.16248e-08 -2.34068e-08 2.6023e-08)
(1.34637e-08 -2.42423e-08 3.03485e-08)
(1.55562e-08 -2.41302e-08 3.44895e-08)
(1.77946e-08 -2.31124e-08 3.76544e-08)
(1.97538e-08 -2.20182e-08 3.86231e-08)
(2.05474e-08 -2.24634e-08 3.67706e-08)
(7.85658e-10 -1.91462e-09 1.22611e-09)
(2.19348e-09 -5.35841e-09 3.46676e-09)
(3.49497e-09 -8.5742e-09 5.66026e-09)
(4.73966e-09 -1.16854e-08 7.94597e-09)
(5.97234e-09 -1.47834e-08 1.04478e-08)
(7.23526e-09 -1.79272e-08 1.3279e-08)
(8.56949e-09 -2.11401e-08 1.6544e-08)
(1.00159e-08 -2.44036e-08 2.03355e-08)
(1.16132e-08 -2.76472e-08 2.4725e-08)
(1.33927e-08 -3.07374e-08 2.97419e-08)
(1.53621e-08 -3.34694e-08 3.53328e-08)
(1.74744e-08 -3.55845e-08 4.12915e-08)
(1.95596e-08 -3.68601e-08 4.71401e-08)
(2.12086e-08 -3.73537e-08 5.19728e-08)
(2.16947e-08 -3.77915e-08 5.44123e-08)
(2.05422e-08 -3.92551e-08 5.35935e-08)
(9.76224e-10 -2.35899e-09 1.52366e-09)
(2.7243e-09 -6.60514e-09 4.30686e-09)
(4.33689e-09 -1.05793e-08 7.02724e-09)
(5.87314e-09 -1.44395e-08 9.8555e-09)
(7.38668e-09 -1.83072e-08 1.29429e-08)
(8.92752e-09 -2.22676e-08 1.6428e-08)
(1.05439e-08 -2.63694e-08 2.04389e-08)
(1.2282e-08 -3.06197e-08 2.50912e-08)
(1.41836e-08 -3.49781e-08 3.0478e-08)
(1.62745e-08 -3.93465e-08 3.66484e-08)
(1.85412e-08 -4.356e-08 4.35644e-08)
(2.08808e-08 -4.7385e-08 5.10245e-08)
(2.30025e-08 -5.05466e-08 5.85335e-08)
(2.42815e-08 -5.28192e-08 6.5117e-08)
(2.37283e-08 -5.42335e-08 6.92086e-08)
(2.10428e-08 -5.52226e-08 6.95009e-08)
(1.14389e-09 -2.727e-09 1.78547e-09)
(3.19046e-09 -7.63962e-09 5.04464e-09)
(5.07306e-09 -1.22491e-08 8.22391e-09)
(6.85825e-09 -1.67461e-08 1.15193e-08)
(8.60571e-09 -2.12813e-08 1.51038e-08)
(1.03712e-08 -2.59683e-08 1.91356e-08)
(1.22082e-08 -3.08858e-08 2.37614e-08)
(1.41683e-08 -3.60764e-08 2.91147e-08)
(1.62985e-08 -4.15445e-08 3.53077e-08)
(1.86315e-08 -4.72513e-08 4.24102e-08)
(2.11639e-08 -5.31059e-08 5.04086e-08)
(2.38081e-08 -5.89473e-08 5.91283e-08)
(2.63025e-08 -6.45021e-08 6.81034e-08)
(2.80476e-08 -6.92733e-08 7.63448e-08)
(2.7993e-08 -7.23831e-08 8.21322e-08)
(2.5493e-08 -7.28856e-08 8.36662e-08)
(1.28613e-09 -3.00332e-09 2.00723e-09)
(3.58467e-09 -8.41848e-09 5.66823e-09)
(5.69223e-09 -1.35131e-08 9.23064e-09)
(7.6794e-09 -1.8506e-08 1.2909e-08)
(9.60959e-09 -2.35738e-08 1.68917e-08)
(1.15416e-08 -2.88574e-08 2.13501e-08)
(1.35321e-08 -3.44651e-08 2.64421e-08)
(1.56367e-08 -4.04768e-08 3.23122e-08)
(1.79094e-08 -4.69457e-08 3.9084e-08)
(2.03981e-08 -5.39008e-08 4.6842e-08)
(2.31318e-08 -6.1347e-08 5.5591e-08)
(2.61036e-08 -6.92619e-08 6.51963e-08)
(2.92153e-08 -7.75538e-08 7.52291e-08)
(3.21976e-08 -8.59177e-08 8.47264e-08)
(3.44592e-08 -9.34152e-08 9.18444e-08)
(3.50822e-08 -9.77207e-08 9.42578e-08)
(1.40148e-09 -3.17446e-09 2.18664e-09)
(3.90341e-09 -8.90389e-09 6.17121e-09)
(6.18883e-09 -1.43093e-08 1.00372e-08)
(8.32972e-09 -1.96309e-08 1.40106e-08)
(1.039e-08 -2.50657e-08 1.82881e-08)
(1.24287e-08 -3.07762e-08 2.30467e-08)
(1.45026e-08 -3.68956e-08 2.8448e-08)
(1.66678e-08 -4.35338e-08 3.46376e-08)
(1.89818e-08 -5.07824e-08 4.17392e-08)
(2.15023e-08 -5.87217e-08 4.98369e-08)
(2.42865e-08 -6.74302e-08 5.8943e-08)
(2.73886e-08 -7.69989e-08 6.89326e-08)
(3.08564e-08 -8.75454e-08 7.94136e-08)
(3.47312e-08 -9.92052e-08 8.94607e-08)
(3.89668e-08 -1.11888e-07 9.71249e-08)
(4.28032e-08 -1.23492e-07 9.94693e-08)
(1.19053e-10 -2.95669e-10 1.60112e-10)
(3.32419e-10 -8.26915e-10 4.52807e-10)
(5.29749e-10 -1.32136e-09 7.39377e-10)
(7.18602e-10 -1.79697e-09 1.03822e-09)
(9.05648e-10 -2.26643e-09 1.36518e-09)
(1.0968e-09 -2.73646e-09 1.7345e-09)
(1.29758e-09 -3.20717e-09 2.15846e-09)
(1.51332e-09 -3.67047e-09 2.6465e-09)
(1.74959e-09 -4.10807e-09 3.20321e-09)
(2.01287e-09 -4.48812e-09 3.82421e-09)
(2.31327e-09 -4.76206e-09 4.48919e-09)
(2.6708e-09 -4.85905e-09 5.14992e-09)
(3.13205e-09 -4.67405e-09 5.71541e-09)
(3.79855e-09 -4.02815e-09 6.03489e-09)
(4.83735e-09 -2.58396e-09 5.91023e-09)
(6.11296e-09 -1.21e-10 5.23545e-09)
(3.53939e-10 -8.77793e-10 4.75946e-10)
(9.88109e-10 -2.45519e-09 1.34572e-09)
(1.57434e-09 -3.92412e-09 2.1972e-09)
(2.13476e-09 -5.3385e-09 3.08414e-09)
(2.6888e-09 -6.73651e-09 4.05385e-09)
(3.25375e-09 -8.13952e-09 5.14813e-09)
(3.84536e-09 -9.54969e-09 6.40305e-09)
(4.47822e-09 -1.09464e-08 7.84639e-09)
(5.16544e-09 -1.228e-08 9.49112e-09)
(5.91875e-09 -1.34656e-08 1.13234e-08)
(6.74883e-09 -1.43774e-08 1.32801e-08)
(7.66838e-09 -1.48528e-08 1.52131e-08)
(8.69369e-09 -1.47174e-08 1.68367e-08)
(9.81749e-09 -1.38543e-08 1.76638e-08)
(1.09028e-08 -1.23513e-08 1.70764e-08)
(1.14713e-08 -1.08313e-08 1.51284e-08)
(5.7988e-10 -1.43375e-09 7.79699e-10)
(1.61862e-09 -4.01134e-09 2.20422e-09)
(2.57799e-09 -6.41483e-09 3.59779e-09)
(3.49351e-09 -8.73424e-09 5.04804e-09)
(4.39635e-09 -1.10349e-08 6.63166e-09)
(5.31415e-09 -1.33561e-08 8.41676e-09)
(6.27161e-09 -1.57085e-08 1.04625e-08)
(7.28992e-09 -1.8069e-08 1.28151e-08)
(8.38488e-09 -2.03735e-08 1.54981e-08)
(9.56159e-09 -2.25094e-08 1.84938e-08)
(1.08059e-08 -2.43157e-08 2.17109e-08)
(1.20705e-08 -2.56048e-08 2.49364e-08)
(1.32441e-08 -2.62449e-08 2.77645e-08)
(1.41156e-08 -2.6345e-08 2.95715e-08)
(1.43676e-08 -2.65008e-08 2.96949e-08)
(1.39022e-08 -2.748e-08 2.84187e-08)
(7.91423e-10 -1.94608e-09 1.06392e-09)
(2.20856e-09 -5.44682e-09 3.00729e-09)
(3.51557e-09 -8.71706e-09 4.90629e-09)
(4.75971e-09 -1.18829e-08 6.87941e-09)
(5.98238e-09 -1.50385e-08 9.03012e-09)
(7.2203e-09 -1.82454e-08 1.14505e-08)
(8.50561e-09 -2.15308e-08 1.42212e-08)
(9.86471e-09 -2.48822e-08 1.74066e-08)
(1.13131e-08 -2.82404e-08 2.10434e-08)
(1.28449e-08 -3.14931e-08 2.5118e-08)
(1.44111e-08 -3.44738e-08 2.95287e-08)
(1.58821e-08 -3.6986e-08 3.40295e-08)
(1.69879e-08 -3.88847e-08 3.81639e-08)
(1.72639e-08 -4.02548e-08 4.12452e-08)
(1.61783e-08 -4.16101e-08 4.25748e-08)
(1.40515e-08 -4.3418e-08 4.23003e-08)
(9.83899e-10 -2.39746e-09 1.32238e-09)
(2.74464e-09 -6.71328e-09 3.7365e-09)
(4.36537e-09 -1.07537e-08 6.09211e-09)
(5.90303e-09 -1.468e-08 8.53415e-09)
(7.40754e-09 -1.86161e-08 1.11892e-08)
(8.92313e-09 -2.26497e-08 1.41698e-08)
(1.04886e-08 -2.68315e-08 1.75756e-08)
(1.21353e-08 -3.11716e-08 2.14879e-08)
(1.38813e-08 -3.56347e-08 2.59573e-08)
(1.57161e-08 -4.01322e-08 3.09803e-08)
(1.75727e-08 -4.45162e-08 3.64582e-08)
(1.92739e-08 -4.85812e-08 4.21376e-08)
(2.04474e-08 -5.20829e-08 4.75411e-08)
(2.04406e-08 -5.4794e-08 5.1941e-08)
(1.84833e-08 -5.66099e-08 5.4553e-08)
(1.50209e-08 -5.76262e-08 5.52633e-08)
(1.15358e-09 -2.77118e-09 1.54981e-09)
(3.2163e-09 -7.76364e-09 4.37728e-09)
(5.11029e-09 -1.24488e-08 7.13082e-09)
(6.89978e-09 -1.70208e-08 9.97694e-09)
(8.64104e-09 -2.16325e-08 1.30605e-08)
(1.03842e-08 -2.6399e-08 1.65106e-08)
(1.21737e-08 -3.13989e-08 2.04412e-08)
(1.40472e-08 -3.66737e-08 2.49473e-08)
(1.60297e-08 -4.22246e-08 3.00921e-08)
(1.81209e-08 -4.80074e-08 3.58826e-08)
(2.02695e-08 -5.39219e-08 4.22294e-08)
(2.23257e-08 -5.97921e-08 4.88849e-08)
(2.3954e-08 -6.53107e-08 5.5356e-08)
(2.45376e-08 -6.99241e-08 6.08717e-08)
(2.32311e-08 -7.26656e-08 6.45289e-08)
(2.00703e-08 -7.25848e-08 6.59813e-08)
(1.29782e-09 -3.05162e-09 1.74265e-09)
(3.61619e-09 -8.55405e-09 4.91925e-09)
(5.7386e-09 -1.37312e-08 8.00534e-09)
(7.73377e-09 -1.88053e-08 1.11832e-08)
(9.66197e-09 -2.3955e-08 1.46108e-08)
(1.1577e-08 -2.93214e-08 1.84281e-08)
(1.35275e-08 -3.50109e-08 2.27584e-08)
(1.55567e-08 -4.10978e-08 2.77045e-08)
(1.76999e-08 -4.76244e-08 3.33371e-08)
(1.9976e-08 -5.46003e-08 3.96697e-08)
(2.23763e-08 -6.19978e-08 4.66223e-08)
(2.48342e-08 -6.97329e-08 5.39411e-08)
(2.71919e-08 -7.76153e-08 6.11233e-08)
(2.91557e-08 -8.51913e-08 6.73131e-08)
(3.02981e-08 -9.13778e-08 7.13948e-08)
(3.03286e-08 -9.41493e-08 7.28142e-08)
(1.41512e-09 -3.2252e-09 1.89872e-09)
(3.94042e-09 -9.0463e-09 5.35679e-09)
(6.24435e-09 -1.45383e-08 8.70671e-09)
(8.39727e-09 -1.99447e-08 1.21406e-08)
(1.04606e-08 -2.54643e-08 1.58237e-08)
(1.24891e-08 -3.12589e-08 1.99009e-08)
(1.45329e-08 -3.7458e-08 2.44985e-08)
(1.66379e-08 -4.41628e-08 2.97204e-08)
(1.88459e-08 -5.14489e-08 3.56365e-08)
(2.1192e-08 -5.93679e-08 4.22603e-08)
(2.37004e-08 -6.79492e-08 4.95064e-08)
(2.63786e-08 -7.71993e-08 5.71228e-08)
(2.92162e-08 -8.70958e-08 6.45807e-08)
(3.22097e-08 -9.75587e-08 7.09307e-08)
(3.5403e-08 -1.08288e-07 7.47563e-08)
(3.85501e-08 -1.17589e-07 7.50299e-08)
(1.19453e-10 -2.99564e-10 1.30247e-10)
(3.33326e-10 -8.37862e-10 3.68153e-10)
(5.30558e-10 -1.33907e-09 6.00895e-10)
(7.18297e-10 -1.82167e-09 8.42722e-10)
(9.02444e-10 -2.29859e-09 1.10637e-09)
(1.08796e-09 -2.77727e-09 1.40254e-09)
(1.27861e-09 -3.25854e-09 1.73995e-09)
(1.47731e-09 -3.73633e-09 2.1245e-09)
(1.68538e-09 -4.19504e-09 2.55697e-09)
(1.9031e-09 -4.60892e-09 3.02992e-09)
(2.13041e-09 -4.93888e-09 3.52191e-09)
(2.37261e-09 -5.13065e-09 3.99148e-09)
(2.65281e-09 -5.10364e-09 4.37186e-09)
(3.04114e-09 -4.71038e-09 4.58374e-09)
(3.68041e-09 -3.63357e-09 4.59247e-09)
(4.54148e-09 -1.56002e-09 4.46638e-09)
(3.55174e-10 -8.89313e-10 3.87146e-10)
(9.91019e-10 -2.48761e-09 1.09441e-09)
(1.57717e-09 -3.97664e-09 1.78552e-09)
(2.1344e-09 -5.41137e-09 2.50366e-09)
(2.68038e-09 -6.83138e-09 3.28567e-09)
(3.22919e-09 -8.25918e-09 4.16326e-09)
(3.79211e-09 -9.69966e-09 5.16234e-09)
(4.37636e-09 -1.11361e-08 6.29991e-09)
(4.98424e-09 -1.25271e-08 7.57849e-09)
(5.61034e-09 -1.38008e-08 8.97525e-09)
(6.2417e-09 -1.48545e-08 1.04266e-08)
(6.85951e-09 -1.55574e-08 1.18065e-08)
(7.44773e-09 -1.57653e-08 1.29028e-08)
(8.0086e-09 -1.5343e-08 1.34338e-08)
(8.5474e-09 -1.42078e-08 1.31527e-08)
(8.95227e-09 -1.26463e-08 1.22764e-08)
(5.82092e-10 -1.45249e-09 6.34281e-10)
(1.624e-09 -4.06404e-09 1.7927e-09)
(2.58368e-09 -6.49999e-09 2.92407e-09)
(3.49479e-09 -8.85217e-09 4.09837e-09)
(4.38539e-09 -1.11873e-08 5.37563e-09)
(5.2788e-09 -1.35469e-08 6.80765e-09)
(6.19268e-09 -1.59443e-08 8.43688e-09)
(7.13798e-09 -1.83618e-08 1.02923e-08)
(8.11435e-09 -2.07437e-08 1.238e-08)
(9.1047e-09 -2.29931e-08 1.46684e-08)
(1.00654e-08 -2.4972e-08 1.70647e-08)
(1.09157e-08 -2.65219e-08 1.93838e-08)
(1.15344e-08 -2.75228e-08 2.13365e-08)
(1.17771e-08 -2.80147e-08 2.25587e-08)
(1.1585e-08 -2.83489e-08 2.28267e-08)
(1.12419e-08 -2.9014e-08 2.25232e-08)
(7.94822e-10 -1.97135e-09 8.65696e-10)
(2.21699e-09 -5.51784e-09 2.44601e-09)
(3.52537e-09 -8.83156e-09 3.98804e-09)
(4.76469e-09 -1.20406e-08 5.586e-09)
(5.973e-09 -1.52411e-08 7.32105e-09)
(7.18138e-09 -1.84964e-08 9.26331e-09)
(8.41396e-09 -2.18358e-08 1.1471e-08)
(9.68457e-09 -2.52503e-08 1.3985e-08)
(1.09913e-08 -2.86873e-08 1.68182e-08)
(1.23038e-08 -3.20442e-08 1.99367e-08)
(1.3545e-08 -3.51693e-08 2.32327e-08)
(1.4562e-08 -3.78796e-08 2.64943e-08)
(1.50977e-08 -4.00214e-08 2.9392e-08)
(1.48077e-08 -4.1599e-08 3.15391e-08)
(1.3476e-08 -4.2924e-08 3.27151e-08)
(1.17501e-08 -4.4333e-08 3.31884e-08)
(9.88656e-10 -2.42834e-09 1.07606e-09)
(2.7567e-09 -6.7999e-09 3.0396e-09)
(4.38044e-09 -1.0893e-08 4.95269e-09)
(5.91425e-09 -1.48711e-08 6.93084e-09)
(7.40405e-09 -1.88598e-08 9.07328e-09)
(8.88853e-09 -2.29478e-08 1.14661e-08)
(1.03977e-08 -2.71864e-08 1.41813e-08)
(1.19504e-08 -3.15864e-08 1.72713e-08)
(1.35468e-08 -3.61125e-08 2.07567e-08)
(1.51541e-08 -4.06765e-08 2.46065e-08)
(1.6681e-08 -4.51293e-08 2.87081e-08)
(1.79378e-08 -4.92572e-08 3.28367e-08)
(1.85839e-08 -5.27872e-08 3.66409e-08)
(1.81143e-08 -5.54188e-08 3.97123e-08)
(1.6091e-08 -5.69303e-08 4.17957e-08)
(1.32243e-08 -5.74412e-08 4.29938e-08)
(1.15985e-09 -2.80652e-09 1.26136e-09)
(3.23252e-09 -7.86274e-09 3.56146e-09)
(5.13184e-09 -1.26078e-08 5.79816e-09)
(6.91933e-09 -1.7238e-08 8.10416e-09)
(8.64774e-09 -2.19074e-08 1.05933e-08)
(1.03614e-08 -2.67313e-08 1.33642e-08)
(1.20966e-08 -3.17867e-08 1.64998e-08)
(1.38787e-08 -3.71111e-08 2.00616e-08)
(1.57169e-08 -4.26991e-08 2.40771e-08)
(1.75911e-08 -4.84946e-08 2.85193e-08)
(1.94312e-08 -5.43777e-08 3.32748e-08)
(2.10799e-08 -6.0137e-08 3.81031e-08)
(2.22446e-08 -6.54135e-08 4.26308e-08)
(2.24584e-08 -6.95832e-08 4.63959e-08)
(2.11953e-08 -7.16516e-08 4.90742e-08)
(1.87179e-08 -7.08958e-08 5.06894e-08)
(1.30565e-09 -3.09019e-09 1.41847e-09)
(3.63687e-09 -8.66206e-09 4.00311e-09)
(5.76731e-09 -1.39041e-08 6.51047e-09)
(7.76344e-09 -1.90407e-08 9.08598e-09)
(9.68195e-09 -2.42513e-08 1.18539e-08)
(1.15717e-08 -2.96757e-08 1.49215e-08)
(1.34737e-08 -3.54167e-08 1.83784e-08)
(1.54208e-08 -4.15407e-08 2.22915e-08)
(1.74338e-08 -4.80766e-08 2.66922e-08)
(1.95163e-08 -5.50113e-08 3.15552e-08)
(2.16419e-08 -6.22784e-08 3.67589e-08)
(2.37446e-08 -6.97381e-08 4.20536e-08)
(2.57019e-08 -7.71167e-08 4.7011e-08)
(2.73541e-08 -8.38769e-08 5.10677e-08)
(2.85587e-08 -8.89665e-08 5.37444e-08)
(2.92212e-08 -9.07856e-08 5.50641e-08)
(1.42456e-09 -3.26561e-09 1.5458e-09)
(3.96564e-09 -9.15946e-09 4.35993e-09)
(6.28066e-09 -1.47193e-08 7.08219e-09)
(8.43786e-09 -2.01904e-08 9.86614e-09)
(1.04958e-08 -2.57722e-08 1.28418e-08)
(1.2505e-08 -3.16241e-08 1.61204e-08)
(1.4509e-08 -3.78703e-08 1.97942e-08)
(1.65447e-08 -4.46015e-08 2.39303e-08)
(1.86425e-08 -5.1875e-08 2.85594e-08)
(2.08237e-08 -5.97124e-08 3.36517e-08)
(2.31003e-08 -6.80956e-08 3.90824e-08)
(2.54765e-08 -7.69597e-08 4.45783e-08)
(2.79689e-08 -8.6186e-08 4.96661e-08)
(3.06755e-08 -9.56038e-08 5.36555e-08)
(3.38687e-08 -1.04953e-07 5.57831e-08)
(3.74945e-08 -1.13059e-07 5.58894e-08)
(1.19593e-10 -3.02458e-10 9.60796e-11)
(3.3356e-10 -8.46019e-10 2.71604e-10)
(5.30393e-10 -1.35232e-09 4.42871e-10)
(7.16681e-10 -1.83989e-09 6.2068e-10)
(8.98244e-10 -2.32266e-09 8.13821e-10)
(1.07862e-09 -2.80767e-09 1.02976e-09)
(1.26052e-09 -3.29667e-09 1.27426e-09)
(1.44491e-09 -3.7844e-09 1.55059e-09)
(1.63068e-09 -4.25724e-09 1.85799e-09)
(1.81455e-09 -4.69179e-09 2.18932e-09)
(1.99271e-09 -5.05283e-09 2.52801e-09)
(2.16661e-09 -5.28988e-09 2.8455e-09)
(2.35874e-09 -5.32431e-09 3.10399e-09)
(2.64407e-09 -5.00303e-09 3.27481e-09)
(3.1805e-09 -3.99582e-09 3.38534e-09)
(3.97225e-09 -1.96837e-09 3.49756e-09)
(3.55678e-10 -8.97929e-10 2.85677e-10)
(9.91964e-10 -2.51186e-09 8.07198e-10)
(1.5769e-09 -4.01571e-09 1.31631e-09)
(2.13083e-09 -5.46614e-09 1.84413e-09)
(2.66863e-09 -6.90208e-09 2.41698e-09)
(3.2027e-09 -8.34801e-09 3.05693e-09)
(3.74042e-09 -9.80988e-09 3.78096e-09)
(4.28407e-09 -1.12737e-08 4.59865e-09)
(4.82876e-09 -1.27019e-08 5.50772e-09)
(5.36064e-09 -1.40289e-08 6.48686e-09)
(5.85779e-09 -1.51589e-08 7.48658e-09)
(6.2977e-09 -1.59657e-08 8.4191e-09)
(6.67889e-09 -1.6294e-08 9.15938e-09)
(7.05524e-09 -1.59579e-08 9.56471e-09)
(7.54699e-09 -1.4767e-08 9.54686e-09)
(8.12234e-09 -1.29577e-08 9.21464e-09)
(5.83123e-10 -1.46652e-09 4.6805e-10)
(1.62608e-09 -4.10347e-09 1.32235e-09)
(2.58467e-09 -6.56389e-09 2.15584e-09)
(3.49007e-09 -8.94001e-09 3.01898e-09)
(4.3688e-09 -1.13008e-08 3.9548e-09)
(5.23968e-09 -1.36879e-08 4.99921e-09)
(6.11536e-09 -1.61169e-08 6.18028e-09)
(6.99918e-09 -1.85723e-08 7.51448e-09)
(7.88126e-09 -2.10029e-08 8.99983e-09)
(8.73318e-09 -2.3317e-08 1.06055e-08)
(9.50265e-09 -2.53818e-08 1.22579e-08)
(1.01137e-08 -2.70366e-08 1.38313e-08)
(1.0481e-08 -2.81316e-08 1.51469e-08)
(1.05653e-08 -2.86245e-08 1.60255e-08)
(1.04803e-08 -2.87275e-08 1.64011e-08)
(1.05386e-08 -2.89415e-08 1.64723e-08)
(7.96572e-10 -1.9903e-09 6.38757e-10)
(2.22092e-09 -5.57104e-09 1.80455e-09)
(3.52823e-09 -8.91703e-09 2.94058e-09)
(4.76162e-09 -1.21584e-08 4.11536e-09)
(5.955e-09 -1.53911e-08 5.38675e-09)
(7.1358e-09 -1.86804e-08 6.80366e-09)
(8.3215e-09 -2.20563e-08 8.40461e-09)
(9.51748e-09 -2.5511e-08 1.02133e-08)
(1.07109e-08 -2.89934e-08 1.22304e-08)
(1.18606e-08 -3.2402e-08 1.44204e-08)
(1.28845e-08 -3.55833e-08 1.66971e-08)
(1.36442e-08 -3.83416e-08 1.89117e-08)
(1.39446e-08 -4.04854e-08 2.08632e-08)
(1.35798e-08 -4.19328e-08 2.23606e-08)
(1.25337e-08 -4.28898e-08 2.33421e-08)
(1.14079e-08 -4.37814e-08 2.39141e-08)
(9.9129e-10 -2.45144e-09 7.94157e-10)
(2.76304e-09 -6.86476e-09 2.24273e-09)
(4.38692e-09 -1.09971e-08 3.6524e-09)
(5.91435e-09 -1.50129e-08 5.10686e-09)
(7.38888e-09 -1.90392e-08 6.67715e-09)
(8.84369e-09 -2.31647e-08 8.4233e-09)
(1.03024e-08 -2.74401e-08 1.03931e-08)
(1.1775e-08 -3.18746e-08 1.26174e-08)
(1.32513e-08 -3.64301e-08 1.51002e-08)
(1.46893e-08 -4.10124e-08 1.78053e-08)
(1.59972e-08 -4.54608e-08 2.06395e-08)
(1.70096e-08 -4.9539e-08 2.34399e-08)
(1.74614e-08 -5.2931e-08 2.59883e-08)
(1.70077e-08 -5.52736e-08 2.80794e-08)
(1.54123e-08 -5.62991e-08 2.96341e-08)
(1.32836e-08 -5.62807e-08 3.06554e-08)
(1.1636e-09 -2.833e-09 9.31007e-10)
(3.24177e-09 -7.93677e-09 2.62816e-09)
(5.14253e-09 -1.2726e-08 4.27652e-09)
(6.92546e-09 -1.73987e-08 5.9724e-09)
(8.63911e-09 -2.21086e-08 7.79726e-09)
(1.03239e-08 -2.69708e-08 9.82006e-09)
(1.20094e-08 -3.20596e-08 1.2096e-08)
(1.37128e-08 -3.74079e-08 1.46612e-08)
(1.54339e-08 -4.30018e-08 1.75234e-08)
(1.71457e-08 -4.8771e-08 2.06457e-08)
(1.87807e-08 -5.45731e-08 2.39279e-08)
(2.0211e-08 -6.01642e-08 2.71926e-08)
(2.12246e-08 -6.51412e-08 3.01925e-08)
(2.15143e-08 -6.88441e-08 3.26833e-08)
(2.07489e-08 -7.03103e-08 3.45507e-08)
(1.90635e-08 -6.90528e-08 3.57827e-08)
(1.31054e-09 -3.11897e-09 1.04718e-09)
(3.64942e-09 -8.74256e-09 2.9545e-09)
(5.78354e-09 -1.40325e-08 4.80264e-09)
(7.77663e-09 -1.9214e-08 6.69714e-09)
(9.68312e-09 -2.44668e-08 8.72707e-09)
(1.1547e-08 -2.99287e-08 1.09674e-08)
(1.34037e-08 -3.56983e-08 1.34781e-08)
(1.52786e-08 -4.1834e-08 1.62984e-08)
(1.71847e-08 -4.83515e-08 1.94372e-08)
(1.91198e-08 -5.52158e-08 2.28551e-08)
(2.10634e-08 -6.233e-08 2.64457e-08)
(2.29754e-08 -6.95099e-08 3.00065e-08)
(2.48105e-08 -7.64373e-08 3.3246e-08)
(2.65536e-08 -8.25589e-08 3.58372e-08)
(2.82354e-08 -8.69145e-08 3.75677e-08)
(2.96319e-08 -8.82329e-08 3.85198e-08)
(1.43071e-09 -3.29574e-09 1.1413e-09)