/*--------------------------------*- C++ -*----------------------------------*\
| =========                 |                                                 |
| \\      /  F ield         | OpenFOAM: The Open Source CFD Toolbox           |
|  \\    /   O peration     | Version:  v1912                                 |
|   \\  /    A nd           | Website:  www.openfoam.com                      |
|    \\/     M anipulation  |                                                 |
\*---------------------------------------------------------------------------*/
FoamFile
{
    version     2.0;
    format      ascii;
    class       surfaceScalarField;
    location    "0.87/fluid";
    object      meshPhi;
}
// * * * * * * * * * * * * * * * * * * * * * * * * * * * * * * * * * * * * * //

dimensions      [0 3 -1 0 0 0 0];
oriented        oriented;


internalField   nonuniform List<scalar> 
41600
(
1.35608e-13
-3.68691e-13
1.39035e-13
-1.43638e-13
2.59433e-13
-1.07395e-12
4.09877e-13
-4.2366e-13
3.76864e-13
-1.72816e-12
6.75669e-13
-6.99052e-13
4.92892e-13
-2.35406e-12
9.54125e-13
-9.88455e-13
6.12449e-13
-2.96682e-12
1.26124e-12
-1.30882e-12
7.40902e-13
-3.57291e-12
1.61205e-12
-1.67637e-12
8.84764e-13
-4.168e-12
2.02112e-12
-2.10716e-12
1.05277e-12
-4.73294e-12
2.50264e-12
-2.61751e-12
1.25788e-12
-5.22653e-12
3.0702e-12
-3.22421e-12
1.52123e-12
-5.57281e-12
3.73625e-12
-3.94497e-12
1.88064e-12
-5.63823e-12
4.51174e-12
-4.80027e-12
2.40835e-12
-5.18853e-12
5.4076e-12
-5.82027e-12
3.24375e-12
-3.80621e-12
6.4412e-12
-7.06493e-12
4.62293e-12
-7.6782e-13
7.64381e-12
-8.66743e-12
6.6128e-12
4.63662e-12
8.98666e-12
-1.07588e-11
1.34106e-11
1.12471e-11
-1.6127e-11
4.03176e-13
-7.2651e-13
4.13453e-13
-4.27137e-13
7.71169e-13
-2.1167e-12
1.21876e-12
-1.25973e-12
1.1198e-12
-3.40764e-12
2.00874e-12
-2.07821e-12
1.46367e-12
-4.64508e-12
2.83586e-12
-2.93779e-12
1.81717e-12
-5.8604e-12
3.74744e-12
-3.88862e-12
2.19586e-12
-7.06894e-12
4.78799e-12
-4.97864e-12
2.61823e-12
-8.26645e-12
6.00053e-12
-6.25528e-12
3.10849e-12
-9.42256e-12
7.42688e-12
-7.76649e-12
3.7011e-12
-1.04694e-11
9.10671e-12
-9.56099e-12
4.44953e-12
-1.12833e-11
1.1075e-11
-1.16883e-11
5.44323e-12
-1.16569e-11
1.3358e-11
-1.41999e-11
6.83988e-12
-1.12625e-11
1.597e-11
-1.71581e-11
8.91187e-12
-9.62537e-12
1.89111e-11
-2.06595e-11
1.20418e-11
-6.20502e-12
2.21507e-11
-2.48747e-11
1.61054e-11
-1.05712e-12
2.54582e-11
-2.97968e-11
5.10379e-12
2.80006e-11
-3.58594e-11
6.60075e-13
-1.06278e-12
6.77216e-13
-6.99615e-13
1.26205e-12
-3.09751e-12
1.99594e-12
-2.06297e-12
1.83125e-12
-4.99022e-12
3.28862e-12
-3.40219e-12
2.39089e-12
-6.81025e-12
4.64052e-12
-4.80692e-12
2.96378e-12
-8.60697e-12
6.12845e-12
-6.35864e-12
3.57417e-12
-1.04085e-11
7.82468e-12
-8.13505e-12
4.2501e-12
-1.22181e-11
9.79906e-12
-1.0213e-11
5.02659e-12
-1.40068e-11
1.21194e-11
-1.26698e-11
5.95027e-12
-1.57022e-11
1.48497e-11
-1.5583e-11
7.08682e-12
-1.717e-11
1.80445e-11
-1.90283e-11
8.53306e-12
-1.81913e-11
2.17383e-11
-2.30747e-11
1.0435e-11
-1.84426e-11
2.59288e-11
-2.77795e-11
1.29962e-11
-1.75152e-11
3.05475e-11
-3.31809e-11
1.63984e-11
-1.50723e-11
3.53995e-11
-3.92683e-11
2.02066e-11
-1.14143e-11
3.9978e-11
-4.56251e-11
-7.35399e-12
4.36173e-11
-5.31852e-11
8.99901e-13
-1.36658e-12
9.23921e-13
-9.54425e-13
1.71957e-12
-3.98472e-12
2.72239e-12
-2.81362e-12
2.49246e-12
-6.42551e-12
4.48334e-12
-4.63774e-12
3.24902e-12
-8.78201e-12
6.32181e-12
-6.54772e-12
4.01897e-12
-1.11234e-11
8.34125e-12
-8.65321e-12
4.83334e-12
-1.34945e-11
1.0639e-11
-1.10587e-11
5.72687e-12
-1.59138e-11
1.33092e-11
-1.38675e-11
6.74084e-12
-1.83671e-11
1.64436e-11
-1.71834e-11
7.926e-12
-2.07988e-11
2.01294e-11
-2.11105e-11
9.34547e-12
-2.30971e-11
2.44409e-11
-2.5748e-11
1.10765e-11
-2.50754e-11
2.94241e-11
-3.11804e-11
1.32078e-11
-2.64555e-11
3.50672e-11
-3.74576e-11
1.58157e-11
-2.68749e-11
4.12486e-11
-4.45589e-11
1.88757e-11
-2.59807e-11
4.76417e-11
-5.23189e-11
2.1884e-11
-2.38189e-11
5.35044e-11
-6.00315e-11
-2.0724e-11
5.78488e-11
-6.82991e-11
1.11718e-12
-1.62715e-12
1.14796e-12
-1.18575e-12
2.13306e-12
-4.74693e-12
3.38137e-12
-3.49434e-12
3.0875e-12
-7.66269e-12
5.56479e-12
-5.75573e-12
4.01659e-12
-1.04906e-11
7.83891e-12
-8.11781e-12
4.95518e-12
-1.33202e-11
1.033e-11
-1.07143e-11
5.93908e-12
-1.62162e-11
1.31566e-11
-1.36724e-11
7.00732e-12
-1.92176e-11
1.64337e-11
-1.71177e-11
8.2044e-12
-2.23355e-11
2.02741e-11
-2.11768e-11
9.58164e-12
-2.55474e-11
2.47862e-11
-2.59773e-11
1.11963e-11
-2.87887e-11
3.00664e-11
-3.16425e-11
1.31059e-11
-3.19385e-11
3.61811e-11
-3.82788e-11
1.53528e-11
-3.47991e-11
4.31323e-11
-4.5949e-11
1.79227e-11
-3.70631e-11
5.07896e-11
-5.46176e-11
2.06577e-11
-3.82786e-11
5.87514e-11
-6.40333e-11
2.30216e-11
-3.7992e-11
6.60413e-11
-7.32307e-11
-3.56003e-11
7.13086e-11
-8.24572e-11
1.30769e-12
-1.83422e-12
1.34485e-12
-1.38896e-12
2.49434e-12
-5.35395e-12
3.95957e-12
-4.09133e-12
3.60435e-12
-8.65241e-12
6.51058e-12
-6.73297e-12
4.67763e-12
-1.18667e-11
9.15932e-12
-9.48352e-12
5.75234e-12
-1.5106e-11
1.20501e-11
-1.24957e-11
6.8671e-12
-1.8455e-11
1.5318e-11
-1.59143e-11
8.06327e-12
-2.19759e-11
1.90939e-11
-1.98817e-11
9.38695e-12
-2.57092e-11
2.35068e-11
-2.4542e-11
1.089e-11
-2.96737e-11
2.86831e-11
-3.00418e-11
1.26286e-11
-3.38649e-11
3.47405e-11
-3.65271e-11
1.4658e-11
-3.82518e-11
4.17741e-11
-4.41334e-11
1.70188e-11
-4.27652e-11
4.98261e-11
-5.2964e-11
1.97009e-11
-4.72603e-11
5.88194e-11
-6.30363e-11
2.25596e-11
-5.14052e-11
6.8392e-11
-7.41425e-11
2.5047e-11
-5.44716e-11
7.74461e-11
-8.51883e-11
-5.46546e-11
8.43416e-11
-9.63043e-11
1.4686e-12
-1.97847e-12
1.51144e-12
-1.56079e-12
2.79807e-12
-5.77839e-12
4.44767e-12
-4.59497e-12
4.03536e-12
-9.34943e-12
7.30519e-12
-7.55343e-12
5.22231e-12
-1.28459e-11
1.02606e-11
-1.06217e-11
6.39848e-12
-1.63937e-11
1.3471e-11
-1.39658e-11
7.60339e-12
-2.00951e-11
1.7082e-11
-1.77418e-11
8.87877e-12
-2.40335e-11
2.12345e-11
-2.21025e-11
1.02708e-11
-2.82766e-11
2.60667e-11
-2.72018e-11
1.18317e-11
-3.28806e-11
3.17157e-11
-3.31973e-11
1.36207e-11
-3.78962e-11
3.8314e-11
-4.02497e-11
1.57047e-11
-4.33772e-11
4.59816e-11
-4.852e-11
1.81579e-11
-4.93929e-11
5.48092e-11
-5.81602e-11
2.10544e-11
-5.60354e-11
6.48129e-11
-6.92844e-11
2.44125e-11
-6.33692e-11
7.57843e-11
-8.18537e-11
2.77808e-11
-7.09641e-11
8.67063e-11
-9.48604e-11
-7.84347e-11
9.585e-11
-1.08801e-10
1.59856e-12
1.64605e-12
-1.69953e-12
-2.05214e-12
3.04193e-12
4.84084e-12
-5.00032e-12
-5.99744e-12
4.37758e-12
7.94093e-12
-8.20922e-12
-9.716e-12
5.64737e-12
1.11322e-11
-1.15215e-11
-1.3374e-11
6.89038e-12
1.45785e-11
-1.51101e-11
-1.71091e-11
8.145e-12
1.84301e-11
-1.9136e-11
-2.10368e-11
9.4511e-12
2.28304e-11
-2.37545e-11
-2.52555e-11
1.08524e-11
2.79185e-11
-2.91202e-11
-2.9852e-11
1.23987e-11
3.38311e-11
-3.53895e-11
-3.49065e-11
1.41484e-11
4.07004e-11
-4.2722e-11
-4.05003e-11
1.61736e-11
4.86507e-11
-5.12808e-11
-4.67267e-11
1.85689e-11
5.77904e-11
-6.12333e-11
-5.3709e-11
2.14615e-11
6.8187e-11
-7.27435e-11
-6.16181e-11
2.49721e-11
7.97574e-11
-8.59021e-11
-7.06501e-11
2.86838e-11
9.15875e-11
-9.98149e-11
-8.03746e-11
1.02885e-10
-1.16393e-10
-9.2715e-11
1.37677e-13
-3.77303e-13
1.29384e-13
2.63272e-13
-1.09916e-12
3.81263e-13
3.82139e-13
-1.76922e-12
6.27953e-13
4.99177e-13
-2.41116e-12
8.85584e-13
6.19131e-13
-3.04108e-12
1.16854e-12
7.4697e-13
-3.66643e-12
1.49005e-12
8.88475e-13
-4.28415e-12
1.86239e-12
1.0511e-12
-4.87716e-12
2.29667e-12
1.24554e-12
-5.40831e-12
2.8018e-12
1.48894e-12
-5.81024e-12
3.38251e-12
1.81179e-12
-5.96859e-12
4.03559e-12
2.27209e-12
-5.69316e-12
4.74307e-12
2.97916e-12
-4.67017e-12
5.45965e-12
4.10253e-12
-2.41847e-12
6.08595e-12
5.64953e-12
1.41688e-12
6.43064e-12
6.45761e-12
6.32012e-12
4.09357e-13
-7.43438e-13
3.84758e-13
7.82647e-13
-2.16626e-12
1.13368e-12
1.13562e-12
-3.48835e-12
1.86692e-12
1.48263e-12
-4.75739e-12
2.63224e-12
1.83754e-12
-6.00649e-12
3.47221e-12
2.21474e-12
-7.25279e-12
4.426e-12
2.63069e-12
-8.49431e-12
5.52998e-12
3.1059e-12
-9.70422e-12
6.81698e-12
3.66845e-12
-1.08214e-11
8.31334e-12
4.36056e-12
-1.17361e-11
1.00326e-11
5.25178e-12
-1.2271e-11
1.19633e-11
6.46314e-12
-1.21629e-11
1.40472e-11
8.19764e-12
-1.10724e-11
1.61384e-11
1.07096e-11
-8.71477e-12
1.79309e-11
1.3829e-11
-5.36764e-12
1.89087e-11
-2.70147e-12
1.78826e-11
6.70309e-13
-1.08748e-12
6.30242e-13
1.2811e-12
-3.16983e-12
1.85671e-12
1.85766e-12
-5.10807e-12
3.05662e-12
2.42286e-12
-6.97427e-12
4.30767e-12
2.99871e-12
-8.82029e-12
5.67901e-12
3.60775e-12
-1.06767e-11
7.23428e-12
4.27493e-12
-1.25495e-11
9.03275e-12
5.02979e-12
-1.44139e-11
1.11281e-11
5.9094e-12
-1.6205e-11
1.35638e-11
6.96285e-12
-1.78035e-11
1.63629e-11
8.25846e-12
-1.90215e-11
1.95073e-11
9.8929e-12
-1.96003e-11
2.29019e-11
1.19875e-11
-1.92595e-11
2.63102e-11
1.46062e-11
-1.78865e-11
2.9259e-11
1.73642e-11
-1.59457e-11
3.10299e-11
-1.48528e-11
3.05679e-11
9.1411e-13
-1.39827e-12
8.59902e-13
1.74611e-12
-4.07754e-12
2.53269e-12
2.5295e-12
-6.5768e-12
4.16748e-12
3.29441e-12
-8.99263e-12
5.86913e-12
4.06961e-12
-1.13972e-11
7.73083e-12
4.88414e-12
-1.38384e-11
9.83844e-12
5.76912e-12
-1.63373e-11
1.22722e-11
6.75932e-12
-1.88839e-11
1.51055e-11
7.89419e-12
-2.14288e-11
1.83993e-11
9.21733e-12
-2.38724e-11
2.21892e-11
1.07729e-11
-2.60524e-11
2.64597e-11
1.25936e-11
-2.77398e-11
3.10979e-11
1.46675e-11
-2.8669e-11
3.58144e-11
1.68587e-11
-2.8658e-11
4.00316e-11
1.87423e-11
-2.7894e-11
4.28692e-11
-2.73598e-11
4.31114e-11
1.13524e-12
-1.66482e-12
1.06853e-12
2.16692e-12
-4.85727e-12
3.14613e-12
3.13511e-12
-7.84262e-12
5.17346e-12
4.07566e-12
-1.07411e-11
7.27882e-12
5.02254e-12
-1.36459e-11
9.57605e-12
6.0096e-12
-1.66247e-11
1.217e-11
7.0722e-12
-1.97193e-11
1.51589e-11
8.24831e-12
-2.29439e-11
1.86338e-11
9.57778e-12
-2.62801e-11
2.26729e-11
1.10982e-11
-2.96704e-11
2.73277e-11
1.28336e-11
-3.3007e-11
3.25961e-11
1.47697e-11
-3.61178e-11
3.83706e-11
1.68016e-11
-3.8745e-11
4.43475e-11
1.86582e-11
-4.05299e-11
4.98848e-11
1.98772e-11
-4.11255e-11
5.39222e-11
-4.07468e-11
5.49818e-11
1.3294e-12
-1.87663e-12
1.25197e-12
2.5352e-12
-5.47822e-12
3.68465e-12
3.66219e-12
-8.85513e-12
6.05375e-12
4.75026e-12
-1.21491e-11
8.50658e-12
5.83687e-12
-1.54732e-11
1.11734e-11
6.959e-12
-1.89152e-11
1.41737e-11
8.1548e-12
-2.25398e-11
1.76199e-11
9.46461e-12
-2.63897e-11
2.16169e-11
1.09302e-11
-3.04854e-11
2.62574e-11
1.25906e-11
-3.48243e-11
3.16097e-11
1.4472e-11
-3.93775e-11
3.76919e-11
1.65645e-11
-4.40789e-11
4.44221e-11
1.87759e-11
-4.8786e-11
5.15222e-11
2.08517e-11
-5.31697e-11
5.83431e-11
2.22975e-11
-5.65268e-11
6.36805e-11
-5.75862e-11
6.5791e-11
1.49366e-12
-2.02419e-12
1.40728e-12
2.8454e-12
-5.9124e-12
4.13956e-12
4.10277e-12
-9.56815e-12
6.79391e-12
5.30782e-12
-1.31508e-11
9.53157e-12
6.49977e-12
-1.67903e-11
1.24943e-11
7.71693e-12
-2.05922e-11
1.58115e-11
8.99863e-12
-2.46419e-11
1.96041e-11
1.03866e-11
-2.90083e-11
2.39852e-11
1.19254e-11
-3.37478e-11
2.90565e-11
1.36614e-11
-3.89088e-11
3.48977e-11
1.56395e-11
-4.45399e-11
4.15451e-11
1.78968e-11
-5.06989e-11
4.8948e-11
2.04447e-11
-5.74523e-11
5.68767e-11
2.32118e-11
-6.48076e-11
6.47306e-11
2.57907e-11
-7.22997e-11
7.12335e-11
-7.90589e-11
7.43828e-11
1.62657e-12
1.53288e-12
-2.09958e-12
3.09497e-12
4.50633e-12
-6.13651e-12
4.45349e-12
7.3867e-12
-9.94318e-12
5.74449e-12
1.03438e-11
-1.3691e-11
7.007e-12
1.35256e-11
-1.75219e-11
8.27878e-12
1.70659e-11
-2.15543e-11
9.59813e-12
2.10881e-11
-2.58888e-11
1.10058e-11
2.57062e-11
-3.06127e-11
1.25464e-11
3.10218e-11
-3.58047e-11
1.42701e-11
3.7115e-11
-4.15416e-11
1.62347e-11
4.40264e-11
-4.79077e-11
1.85107e-11
5.17191e-11
-5.50076e-11
2.11832e-11
5.99989e-11
-6.29751e-11
2.43076e-11
6.83356e-11
-7.19297e-11
2.75019e-11
7.54726e-11
-8.13882e-11
7.92107e-11
-9.23989e-11
1.39119e-13
-3.84878e-13
1.15168e-13
2.65852e-13
-1.12137e-12
3.39233e-13
3.85411e-13
-1.80546e-12
5.58273e-13
5.02463e-13
-2.46167e-12
7.86311e-13
6.21355e-13
-3.10694e-12
1.03566e-12
7.46385e-13
-3.74981e-12
1.31732e-12
8.82147e-13
-4.3889e-12
1.64098e-12
1.03401e-12
-5.01018e-12
2.01441e-12
1.20896e-12
-5.58258e-12
2.44201e-12
1.41732e-12
-6.05158e-12
2.92189e-12
1.67652e-12
-6.3304e-12
3.44057e-12
2.01824e-12
-6.28895e-12
3.96376e-12
2.49755e-12
-5.74361e-12
4.42125e-12
3.18337e-12
-4.47212e-12
4.68819e-12
4.01704e-12
-2.41765e-12
4.60694e-12
2.319e-13
4.20398e-12
4.1369e-13
-7.58313e-13
3.4249e-13
7.90421e-13
-2.20986e-12
1.00874e-12
1.14555e-12
-3.55947e-12
1.65982e-12
1.49277e-12
-4.85644e-12
2.33728e-12
1.8448e-12
-6.13548e-12
3.07757e-12
2.21414e-12
-7.41566e-12
3.9133e-12
2.61385e-12
-8.69784e-12
4.87318e-12
3.05862e-12
-9.96021e-12
5.98036e-12
3.56619e-12
-1.11515e-11
7.24817e-12
4.16027e-12
-1.21822e-11
8.67158e-12
4.87619e-12
-1.29163e-11
1.02117e-11
5.76997e-12
-1.31738e-11
1.17696e-11
6.92225e-12
-1.27706e-11
1.31455e-11
8.39031e-12
-1.1656e-11
1.3997e-11
9.94399e-12
-1.0206e-11
1.39326e-11
-9.58351e-12
1.26448e-11
6.77568e-13
-1.10914e-12
5.61042e-13
1.29419e-12
-3.23332e-12
1.6522e-12
1.87457e-12
-5.21156e-12
2.71776e-12
2.44063e-12
-7.11826e-12
3.82534e-12
3.01266e-12
-9.00742e-12
5.03418e-12
3.6103e-12
-1.0912e-11
6.39735e-12
4.25349e-12
-1.28411e-11
7.96181e-12
4.96314e-12
-1.47757e-11
9.76587e-12
5.76139e-12
-1.6661e-11
1.18327e-11
6.6713e-12
-1.83984e-11
1.41571e-11
7.71547e-12
-1.98411e-11
1.66824e-11
8.90996e-12
-2.08087e-11
1.92617e-11
1.02413e-11
-2.11568e-11
2.16039e-11
1.15967e-11
-2.09513e-11
2.32341e-11
1.26344e-11
-2.06763e-11
2.36549e-11
-2.12592e-11
2.28007e-11
9.24351e-13
-1.42599e-12
7.65557e-13
1.76471e-12
-4.15876e-12
2.25395e-12
2.5539e-12
-6.70912e-12
3.7059e-12
3.32094e-12
-9.17649e-12
5.21268e-12
4.09255e-12
-1.16355e-11
6.85423e-12
4.8943e-12
-1.41365e-11
8.70226e-12
5.75132e-12
-1.67035e-11
1.08206e-11
6.68827e-12
-1.93308e-11
1.32624e-11
7.72735e-12
-2.19768e-11
1.60621e-11
8.8829e-12
-2.45574e-11
1.92194e-11
1.01495e-11
-2.694e-11
2.26716e-11
1.14771e-11
-2.89532e-11
2.62484e-11
1.27248e-11
-3.04302e-11
2.96122e-11
1.36067e-11
-3.13258e-11
3.22214e-11
1.37835e-11
-3.18639e-11
3.34988e-11
-3.26952e-11
3.33506e-11
1.14849e-12
-1.69767e-12
9.51418e-13
2.19117e-12
-4.95348e-12
2.80026e-12
3.16746e-12
-7.99927e-12
4.60115e-12
4.11208e-12
-1.09585e-11
6.46585e-12
5.05689e-12
-1.3927e-11
8.4921e-12
6.03209e-12
-1.69745e-11
1.07676e-11
7.06687e-12
-2.0145e-11
1.3371e-11
8.18877e-12
-2.34547e-11
1.63688e-11
9.42026e-12
-2.6889e-11
1.98073e-11
1.07699e-11
-3.03964e-11
2.36954e-11
1.22136e-11
-3.38823e-11
2.79747e-11
1.36576e-11
-3.71995e-11
3.24706e-11
1.48763e-11
-4.01382e-11
3.68269e-11
1.54609e-11
-4.24213e-11
4.04557e-11
1.50354e-11
-4.377e-11
4.26701e-11
-4.42695e-11
4.32601e-11
1.34564e-12
-1.91349e-12
1.11492e-12
2.56513e-12
-5.58616e-12
3.28009e-12
3.70278e-12
-9.03082e-12
5.38503e-12
4.79743e-12
-1.23927e-11
7.55808e-12
5.88461e-12
-1.57874e-11
9.91119e-12
6.99787e-12
-1.93045e-11
1.25446e-11
8.16956e-12
-2.30097e-11
1.55485e-11
9.4304e-12
-2.69454e-11
1.90001e-11
1.08063e-11
-3.11305e-11
2.29561e-11
1.231e-11
-3.55595e-11
2.74355e-11
1.39241e-11
-4.01974e-11
3.23894e-11
1.55669e-11
-4.49676e-11
3.76503e-11
1.7033e-11
-4.97117e-11
4.28587e-11
1.79315e-11
-5.40858e-11
4.73891e-11
1.78308e-11
-5.74091e-11
5.0434e-11
-5.84166e-11
5.16709e-11
1.51276e-12
-2.0638e-12
1.25344e-12
2.88086e-12
-6.02839e-12
3.68571e-12
4.15155e-12
-9.75691e-12
6.04464e-12
5.36608e-12
-1.34124e-11
8.47081e-12
6.562e-12
-1.71272e-11
1.10862e-11
7.77473e-12
-2.10083e-11
1.39995e-11
9.0386e-12
-2.5141e-11
1.73079e-11
1.03871e-11
-2.95919e-11
2.10954e-11
1.18516e-11
-3.44117e-11
2.54246e-11
1.34563e-11
-3.96381e-11
3.03214e-11
1.52099e-11
-4.52991e-11
3.57448e-11
1.70869e-11
-5.14137e-11
4.15362e-11
1.89964e-11
-5.79765e-11
4.73367e-11
2.07298e-11
-6.48756e-11
5.24828e-11
2.19049e-11
-7.15481e-11
5.60307e-11
-7.69978e-11
5.74967e-11
1.64832e-12
1.36555e-12
-2.14054e-12
3.13559e-12
4.01304e-12
-6.25651e-12
4.51004e-12
6.57348e-12
-1.01385e-11
5.8135e-12
9.19503e-12
-1.39617e-11
7.08376e-12
1.20052e-11
-1.78703e-11
8.35623e-12
1.51166e-11
-2.1984e-11
9.66531e-12
1.86287e-11
-2.64024e-11
1.10452e-11
2.26261e-11
-3.12091e-11
1.25302e-11
2.71716e-11
-3.64749e-11
1.41532e-11
3.22906e-11
-4.22616e-11
1.59435e-11
3.79433e-11
-4.8626e-11
1.79216e-11
4.39744e-11
-5.56235e-11
2.00864e-11
5.00295e-11
-6.32999e-11
2.23692e-11
5.54369e-11
-7.16326e-11
2.43985e-11
5.91741e-11
-8.00423e-11
6.02282e-11
-8.92546e-11
1.4001e-13
-3.91286e-13
9.69994e-14
2.67339e-13
-1.14017e-12
2.85615e-13
3.86994e-13
-1.83615e-12
4.69684e-13
5.03331e-13
-2.50447e-12
6.60752e-13
6.20201e-13
-3.16281e-12
8.68784e-13
7.41092e-13
-3.82072e-12
1.10241e-12
8.69258e-13
-4.47844e-12
1.36875e-12
1.00783e-12
-5.12493e-12
1.67274e-12
1.15996e-12
-5.73495e-12
2.01554e-12
1.32936e-12
-6.26545e-12
2.39179e-12
1.52181e-12
-6.65209e-12
2.78502e-12
1.74819e-12
-6.80735e-12
3.16113e-12
2.02801e-12
-6.62226e-12
3.46137e-12
2.3826e-12
-5.97811e-12
3.60332e-12
2.76815e-12
-4.83594e-12
3.52192e-12
-3.00405e-12
3.41726e-12
4.16404e-13
-7.70891e-13
2.88472e-13
7.94983e-13
-2.24674e-12
8.4934e-13
1.1505e-12
-3.61963e-12
1.3965e-12
1.49577e-12
-4.94019e-12
1.96417e-12
1.8421e-12
-6.24452e-12
2.58185e-12
2.19968e-12
-7.55338e-12
3.27513e-12
2.57778e-12
-8.87034e-12
4.06521e-12
2.9848e-12
-1.01784e-11
4.96688e-12
3.42796e-12
-1.14356e-11
5.98403e-12
3.91323e-12
-1.25699e-11
7.10167e-12
4.44599e-12
-1.34782e-11
8.27302e-12
5.03249e-12
-1.40374e-11
9.40141e-12
5.67801e-12
-1.41451e-11
1.03223e-11
6.36415e-12
-1.38139e-11
1.08114e-11
6.95949e-12
-1.32986e-11
1.07087e-11
-1.32074e-11
1.00555e-11
6.82219e-13
-1.12744e-12
4.72586e-13
1.30211e-12
-3.28693e-12
1.39122e-12
1.88348e-12
-5.29889e-12
2.2868e-12
2.4469e-12
-7.23955e-12
3.215e-12
3.01053e-12
-9.16467e-12
4.22382e-12
3.59057e-12
-1.11092e-11
5.35495e-12
4.2013e-12
-1.30852e-11
6.6432e-12
4.85443e-12
-1.50784e-11
8.11339e-12
5.55707e-12
-1.70433e-11
9.77356e-12
6.30798e-12
-1.88985e-11
1.16029e-11
7.09122e-12
-2.05279e-11
1.3533e-11
7.86503e-12
-2.18015e-11
1.54223e-11
8.54373e-12
-2.26379e-11
1.70359e-11
8.98054e-12
-2.31297e-11
1.80691e-11
9.02709e-12
-2.36151e-11
1.83262e-11
-2.45942e-11
1.80623e-11
9.31096e-13
-1.44936e-12
6.44926e-13
1.77637e-12
-4.22716e-12
1.89813e-12
2.56756e-12
-6.82038e-12
3.11863e-12
3.33206e-12
-9.33058e-12
4.38161e-12
4.09401e-12
-1.18343e-11
5.75188e-12
4.87481e-12
-1.43836e-11
7.28589e-12
5.6929e-12
-1.70048e-11
9.03118e-12
6.56216e-12
-1.96956e-11
1.10227e-11
7.48771e-12
-2.24203e-11
1.32745e-11
8.4574e-12
-2.51058e-11
1.57653e-11
9.42611e-12
-2.76396e-11
1.84159e-11
1.02894e-11
-2.98815e-11
2.10618e-11
1.08495e-11
-3.17028e-11
2.34335e-11
1.08219e-11
-3.30699e-11
2.51927e-11
1.009e-11
-3.41074e-11
2.61129e-11
-3.51759e-11
2.64376e-11
1.15749e-12
-1.72528e-12
8.01605e-13
2.20697e-12
-5.03426e-12
2.35852e-12
3.18674e-12
-8.13046e-12
3.87261e-12
4.12979e-12
-1.11397e-11
5.43594e-12
5.06524e-12
-1.41595e-11
7.12786e-12
6.01889e-12
-1.7261e-11
9.01753e-12
7.01292e-12
-2.04889e-11
1.11637e-11
8.06384e-12
-2.38603e-11
1.36108e-11
9.17703e-12
-2.73612e-11
1.63799e-11
1.03354e-11
-3.09418e-11
1.94528e-11
1.1478e-11
-3.45107e-11
2.2748e-11
1.24634e-11
-3.79255e-11
2.60909e-11
1.30221e-11
-4.09807e-11
2.91936e-11
1.27623e-11
-4.33926e-11
3.16893e-11
1.15257e-11
-4.48439e-11
3.32932e-11
-4.52729e-11
3.4192e-11
1.35698e-12
-1.94438e-12
9.39503e-13
2.58538e-12
-5.67649e-12
2.76311e-12
3.7284e-12
-9.17731e-12
4.53317e-12
4.82325e-12
-1.25945e-11
6.35551e-12
5.90282e-12
-1.60452e-11
8.32107e-12
6.99641e-12
-1.96196e-11
1.05091e-11
8.1297e-12
-2.33826e-11
1.29871e-11
9.32309e-12
-2.73743e-11
1.58072e-11
1.05867e-11
-3.16087e-11
1.89965e-11
1.19105e-11
-3.60716e-11
2.25411e-11
1.32446e-11
-4.07132e-11
2.636e-11
1.44659e-11
-4.54319e-11
3.02725e-11
1.53319e-11
-5.00293e-11
3.39718e-11
1.54688e-11
-5.41121e-11
3.70486e-11
1.46421e-11
-5.69892e-11
3.91428e-11
-5.74183e-11
4.0417e-11
1.52647e-12
-2.09689e-12
1.0564e-12
2.90567e-12
-6.12513e-12
3.10535e-12
4.18393e-12
-9.91367e-12
5.08943e-12
5.40104e-12
-1.36279e-11
7.12465e-12
6.59221e-12
-1.74016e-11
9.31023e-12
7.78905e-12
-2.13415e-11
1.17322e-11
9.01998e-12
-2.55309e-11
1.44637e-11
1.03095e-11
-3.00313e-11
1.75613e-11
1.16755e-11
-3.4884e-11
2.10556e-11
1.31227e-11
-4.01097e-11
2.49347e-11
1.46322e-11
-4.57074e-11
2.91171e-11
1.61428e-11
-5.1647e-11
3.34141e-11
1.75283e-11
-5.78446e-11
3.74919e-11
1.8587e-11
-6.40851e-11
4.08725e-11
1.91053e-11
-6.97796e-11
4.3084e-11
-7.3981e-11
4.42615e-11
1.66431e-12
1.15109e-12
-2.17467e-12
3.16489e-12
3.38175e-12
-6.35629e-12
4.54924e-12
5.53584e-12
-1.03002e-11
5.858e-12
7.73573e-12
-1.41838e-11
7.12701e-12
1.00853e-11
-1.81524e-11
8.38852e-12
1.26738e-11
-2.23251e-11
9.67198e-12
1.55763e-11
-2.67986e-11
1.10042e-11
1.88498e-11
-3.16498e-11
1.24085e-11
2.25245e-11
-3.69374e-11
1.3902e-11
2.65869e-11
-4.27021e-11
1.54918e-11
3.09525e-11
-4.89661e-11
1.71676e-11
3.54248e-11
-5.57278e-11
1.88957e-11
3.96486e-11
-6.29474e-11
2.0602e-11
4.309e-11
-7.04967e-11
2.20532e-11
4.51734e-11
-7.77999e-11
4.56705e-11
-8.55247e-11
1.40474e-13
-3.96442e-13
7.55977e-14
2.67999e-13
-1.15529e-12
2.22528e-13
3.87365e-13
-1.86083e-12
3.65708e-13
5.02602e-13
-2.53889e-12
5.13959e-13
6.17054e-13
-3.20773e-12
6.74767e-13
7.33427e-13
-3.87766e-12
8.54414e-13
8.53774e-13
-4.55019e-12
1.05779e-12
9.79329e-13
-5.21655e-12
1.28773e-12
1.1103e-12
-5.85564e-12
1.54374e-12
1.24591e-12
-6.43178e-12
1.81993e-12
1.38525e-12
-6.89311e-12
2.10213e-12
1.52993e-12
-7.17127e-12
2.36483e-12
1.68905e-12
-7.18042e-12
2.57071e-12
1.88161e-12
-6.81216e-12
2.67912e-12
2.10137e-12
-5.97663e-12
2.67334e-12
-4.3166e-12
2.75475e-12
4.17856e-13
-7.81013e-13
2.24831e-13
7.9711e-13
-2.27641e-12
6.61766e-13
1.15188e-12
-3.668e-12
1.08741e-12
1.49404e-12
-5.00747e-12
1.52789e-12
1.83347e-12
-6.33192e-12
2.00539e-12
2.17813e-12
-7.66344e-12
2.53857e-12
2.5339e-12
-9.00762e-12
3.14197e-12
2.90389e-12
-1.0351e-11
3.82419e-12
3.28729e-12
-1.16579e-11
4.58417e-12
3.67821e-12
-1.28673e-11
5.40529e-12
4.06552e-12
-1.38933e-11
6.24723e-12
4.43545e-12
-1.46357e-11
7.0376e-12
4.77864e-12
-1.50083e-11
7.67089e-12
5.09816e-12
-1.49945e-11
8.03251e-12
5.38233e-12
-1.47206e-11
8.07695e-12
-1.45655e-11
7.83741e-12
6.84824e-13
-1.14216e-12
3.68354e-13
1.30608e-12
-3.33002e-12
1.08406e-12
1.88655e-12
-5.36901e-12
1.78081e-12
2.44541e-12
-7.33668e-12
2.50113e-12
2.99863e-12
-9.29007e-12
3.28112e-12
3.55911e-12
-1.12655e-11
4.15121e-12
4.13606e-12
-1.32772e-11
5.1354e-12
4.73351e-12
-1.53141e-11
6.24834e-12
5.34728e-12
-1.73364e-11
7.48975e-12
5.96046e-12
-1.92722e-11
8.83558e-12
6.53752e-12
-2.102e-11
1.02262e-11
7.01857e-12
-2.24652e-11
1.15553e-11
7.32037e-12
-2.35289e-11
1.26716e-11
7.36453e-12
-2.42551e-11
1.34172e-11
7.17874e-12
-2.48565e-11
1.37346e-11
-2.5689e-11
1.37955e-11
9.35072e-13
-1.46813e-12
5.02733e-13
1.78268e-12
-4.28206e-12
1.47922e-12
2.5733e-12
-6.90946e-12
2.42888e-12
3.33257e-12
-9.45343e-12
3.40915e-12
4.08204e-12
-1.19918e-11
4.46882e-12
4.8391e-12
-1.45777e-11
5.64917e-12
5.61616e-12
-1.72386e-11
6.98309e-12
6.41822e-12
-1.99737e-11
8.49158e-12
7.23786e-12
-2.27503e-11
1.01769e-11
8.04661e-12
-2.54991e-11
1.20117e-11
8.7816e-12
-2.81132e-11
1.39255e-11
9.32817e-12
-3.04557e-11
1.57931e-11
9.51088e-12
-3.2388e-11
1.74403e-11
9.14559e-12
-3.38313e-11
1.86931e-11
8.30118e-12
-3.48306e-11
1.94803e-11
-3.56809e-11
1.99528e-11
1.16305e-12
-1.74741e-12
6.24949e-13
2.21614e-12
-5.09892e-12
1.83824e-12
3.19617e-12
-8.23511e-12
3.01652e-12
4.13427e-12
-1.12834e-11
4.23016e-12
5.05675e-12
-1.43423e-11
5.53891e-12
5.98518e-12
-1.74835e-11
6.99345e-12
6.93544e-12
-2.07514e-11
8.63458e-12
7.91498e-12
-2.41619e-11
1.04893e-11
8.9169e-12
-2.76991e-11
1.25633e-11
9.90921e-12
-3.13095e-11
1.4829e-11
1.08169e-11
-3.48948e-11
1.72102e-11
1.14964e-11
-3.83001e-11
1.95705e-11
1.17135e-11
-4.12963e-11
2.17198e-11
1.11909e-11
-4.35629e-11
2.34669e-11
9.9458e-12
-4.47617e-11
2.47087e-11
-4.48523e-11
2.55622e-11
1.36431e-12
-1.96908e-12
7.32563e-13
2.59784e-12
-5.74857e-12
2.1539e-12
3.74246e-12
-9.29373e-12
3.53163e-12
4.83351e-12
-1.27537e-11
4.94666e-12
5.90113e-12
-1.62464e-11
6.46756e-12
6.97052e-12
-1.98616e-11
8.15249e-12
8.06133e-12
-2.36623e-11
1.00484e-11
9.18546e-12
-2.76847e-11
1.21873e-11
1.0342e-11
-3.19357e-11
1.45778e-11
1.15082e-11
-3.63889e-11
1.71925e-11
1.26237e-11
-4.09752e-11
1.99511e-11
1.35678e-11
-4.55624e-11
2.27054e-11
1.41377e-11
-4.99113e-11
2.52432e-11
1.40723e-11
-5.35901e-11
2.73391e-11
1.32962e-11
-5.59386e-11
2.88504e-11
-5.58664e-11
2.99042e-11
1.53567e-12
-2.12328e-12
8.23838e-13
2.92175e-12
-6.2021e-12
2.42106e-12
4.20331e-12
-1.00378e-11
3.96567e-12
5.41847e-12
-1.37972e-11
5.54643e-12
6.59993e-12
-1.76143e-11
7.23822e-12
7.77555e-12
-2.15948e-11
9.1043e-12
8.96837e-12
-2.58188e-11
1.11956e-11
1.01954e-11
-3.03415e-11
1.35469e-11
1.14651e-11
-3.51926e-11
1.61682e-11
1.27717e-11
-4.03745e-11
1.90312e-11
1.40884e-11
-4.58568e-11
2.20501e-11
1.53573e-11
-5.15657e-11
2.50619e-11
1.64881e-11
-5.736e-11
2.7821e-11
1.73776e-11
-6.2977e-11
3.00399e-11
1.7952e-11
-6.78841e-11
3.15106e-11
-7.13444e-11
3.24005e-11
1.67539e-12
8.97815e-13
-2.20183e-12
3.18466e-12
2.63697e-12
-6.43548e-12
4.57426e-12
4.31428e-12
-1.04277e-11
5.88339e-12
6.02347e-12
-1.43574e-11
7.14572e-12
7.84305e-12
-1.83698e-11
8.3903e-12
9.83875e-12
-2.25824e-11
9.64197e-12
1.20629e-11
-2.70878e-11
1.09213e-11
1.45505e-11
-3.19549e-11
1.22439e-11
1.73107e-11
-3.72289e-11
1.36183e-11
2.03128e-11
-4.29293e-11
1.50452e-11
2.34652e-11
-4.90452e-11
1.65165e-11
2.6592e-11
-5.55285e-11
1.80247e-11
2.94175e-11
-6.22825e-11
1.95713e-11
3.15937e-11
-6.91386e-11
2.10376e-11
3.28375e-11
-7.56009e-11
3.31322e-11
-8.25034e-11
1.40647e-13
-4.00298e-13
5.17449e-14
2.68136e-13
-1.1666e-12
1.52281e-13
3.87053e-13
-1.87931e-12
2.50145e-13
5.01139e-13
-2.56466e-12
3.51285e-13
6.13302e-13
-3.24131e-12
4.60674e-13
7.25617e-13
-3.92004e-12
5.82385e-13
8.39218e-13
-4.6032e-12
7.19427e-13
9.54037e-13
-5.2834e-12
8.73275e-13
1.0685e-12
-5.94178e-12
1.04301e-12
1.17964e-12
-6.5461e-12
1.22409e-12
1.28433e-12
-7.04911e-12
1.40688e-12
1.38306e-12
-7.38659e-12
1.5758e-12
1.48767e-12
-7.47161e-12
1.71084e-12
1.62857e-12
-7.18008e-12
1.79425e-12
1.82174e-12
-6.38628e-12
1.82195e-12
-4.69637e-12
1.93705e-12
4.18451e-13
-7.88601e-13
1.53898e-13
7.97678e-13
-2.29865e-12
4.52884e-13
1.15121e-12
-3.70425e-12
7.43834e-13
1.49009e-12
-5.05781e-12
1.04436e-12
1.82294e-12
-6.39712e-12
1.3692e-12
2.15596e-12
-7.74508e-12
1.73046e-12
2.49243e-12
-9.10853e-12
2.13711e-12
2.83185e-12
-1.04761e-11
2.59366e-12
3.16859e-12
-1.18152e-11
3.09767e-12
3.49122e-12
-1.30694e-11
3.63622e-12
3.78387e-12
-1.41583e-11
4.18179e-12
4.0331e-12
-1.49832e-11
4.68985e-12
4.24432e-12
-1.54455e-11
5.10267e-12
4.46337e-12
-1.54852e-11
5.36655e-12
4.74045e-12
-1.516e-11
5.46502e-12
-1.4802e-11
5.38988e-12
6.86023e-13
-1.1532e-12
2.52159e-13
1.30748e-12
-3.36235e-12
7.41946e-13
1.88622e-12
-5.42151e-12
1.21826e-12
2.44013e-12
-7.4092e-12
1.70976e-12
2.98334e-12
-9.38324e-12
2.24044e-12
3.52605e-12
-1.13808e-11
2.83008e-12
4.07369e-12
-1.34171e-11
3.49351e-12
4.62503e-12
-1.54828e-11
4.23853e-12
5.16936e-12
-1.75402e-11
5.06218e-12
5.68297e-12
-1.95206e-11
5.94535e-12
6.12667e-12
-2.13242e-11
6.84703e-12
6.44807e-12
-2.28324e-11
7.70119e-12
6.59788e-12
-2.39442e-11
8.42351e-12
6.57414e-12
-2.46504e-11
8.93691e-12
6.48398e-12
-2.51038e-11
9.21564e-12
-2.56586e-11
9.33054e-12
9.37104e-13
-1.4822e-12
3.44182e-13
1.78541e-12
-4.3232e-12
1.0125e-12
2.57421e-12
-6.97603e-12
1.66179e-12
3.32759e-12
-9.54484e-12
2.33074e-12
4.06482e-12
-1.21081e-11
3.05183e-12
4.80011e-12
-1.47196e-11
3.85188e-12
5.54134e-12
-1.74068e-11
4.75133e-12
6.28751e-12
-2.01693e-11
5.76153e-12
7.0242e-12
-2.29739e-11
6.88018e-12
7.71681e-12
-2.57504e-11
8.08483e-12
8.30218e-12
-2.83879e-11
9.32613e-12
8.68203e-12
-3.07385e-11
1.05252e-11
8.73185e-12
-3.2638e-11
1.15837e-11
8.36478e-12
-3.39633e-11
1.24156e-11
7.72319e-12
-3.47302e-11
1.29847e-11
-3.52684e-11
1.33429e-11
1.16614e-12
-1.76398e-12
4.27901e-13
2.22071e-12
-5.14727e-12
1.2584e-12
3.19933e-12
-8.3131e-12
2.0641e-12
4.1314e-12
-1.13898e-11
2.89243e-12
5.04084e-12
-1.44765e-11
3.78317e-12
5.94579e-12
-1.76446e-11
4.76935e-12
6.85742e-12
-2.09376e-11
5.87633e-12
7.77716e-12
-2.43694e-11
7.11891e-12
8.69159e-12
-2.79201e-11
8.49614e-12
9.56413e-12
-3.15297e-11
9.98398e-12
1.03232e-11
-3.50889e-11
1.15277e-11
1.08483e-11
-3.84249e-11
1.30393e-11
1.09666e-11
-4.12825e-11
1.44089e-11
1.05063e-11
-4.33148e-11
1.5539e-11
9.54659e-12
-4.41943e-11
1.63749e-11
-4.39547e-11
1.69496e-11
1.36865e-12
-1.98754e-12
5.01647e-13
2.60473e-12
-5.80235e-12
1.47467e-12
3.7488e-12
-9.38022e-12
2.41688e-12
4.83449e-12
-1.28711e-11
3.38284e-12
5.88959e-12
-1.63931e-11
4.41823e-12
6.93593e-12
-2.00352e-11
5.56098e-12
7.98868e-12
-2.38579e-11
6.84038e-12
9.05415e-12
-2.7893e-11
8.27398e-12
1.01259e-11
-3.214e-11
9.86197e-12
1.1178e-11
-3.65602e-11
1.1579e-11
1.21559e-11
-4.10664e-11
1.33653e-11
1.29653e-11
-4.55016e-11
1.5122e-11
1.34666e-11
-4.95995e-11
1.67218e-11
1.35021e-11
-5.29181e-11
1.80439e-11
1.30489e-11
-5.48496e-11
1.90145e-11
-5.44472e-11
1.96841e-11
1.54139e-12
-2.14296e-12
5.64219e-13
2.93129e-12
-6.25938e-12
1.65779e-12
4.21354e-12
-1.01297e-11
2.71429e-12
5.42469e-12
-1.39215e-11
3.7936e-12
6.59523e-12
-1.77685e-11
4.94567e-12
7.74998e-12
-2.17749e-11
6.21181e-12
8.90789e-12
-2.60174e-11
7.6238e-12
1.00812e-11
-3.05446e-11
9.20071e-12
1.12735e-11
-3.53759e-11
1.09429e-11
1.24774e-11
-4.04973e-11
1.28233e-11
1.36723e-11
-4.5855e-11
1.47759e-11
1.48256e-11
-5.13451e-11
1.66884e-11
1.59047e-11
-5.67978e-11
1.84069e-11
1.69002e-11
-6.19487e-11
1.97687e-11
1.77855e-11
-6.63461e-11
2.06667e-11
-6.9426e-11
2.12013e-11
1.68256e-12
6.14951e-13
-2.22204e-12
3.19704e-12
1.80584e-12
-6.49428e-12
4.58883e-12
2.9533e-12
-1.0522e-11
5.89574e-12
4.12057e-12
-1.44844e-11
7.14954e-12
5.36012e-12
-1.85266e-11
8.37659e-12
6.71491e-12
-2.2764e-11
9.59826e-12
8.2176e-12
-2.72849e-11
1.0831e-11
9.88734e-12
-3.21507e-11
1.20866e-11
1.17237e-11
-3.73948e-11
1.33724e-11
1.36969e-11
-4.30184e-11
1.46945e-11
1.57357e-11
-4.89856e-11
1.60658e-11
1.77159e-11