/*--------------------------------*- C++ -*----------------------------------*\
| =========                 |                                                 |
| \\      /  F ield         | OpenFOAM: The Open Source CFD Toolbox           |
|  \\    /   O peration     | Version:  v1912                                 |
|   \\  /    A nd           | Website:  www.openfoam.com                      |
|    \\/     M anipulation  |                                                 |
\*---------------------------------------------------------------------------*/
FoamFile
{
    version     2.0;
    format      ascii;
    class       surfaceScalarField;
    location    "0.87/fluid";
    object      phi;
}
// * * * * * * * * * * * * * * * * * * * * * * * * * * * * * * * * * * * * * //

dimensions      [0 3 -1 0 0 0 0];
oriented        oriented;


internalField   nonuniform List<scalar> 
41600
(
5.0061e-05
1.26328e-05
3.3213e-07
-5.25892e-07
3.98063e-05
1.06077e-05
5.84085e-07
-9.37088e-07
3.20976e-05
8.09608e-06
5.12265e-07
-8.9968e-07
2.72222e-05
5.21989e-06
1.73371e-07
-5.17821e-07
2.4258e-05
3.22364e-06
-3.91994e-07
1.32512e-07
2.24883e-05
1.93464e-06
-1.12301e-06
9.58146e-07
2.13536e-05
1.20934e-06
-2.0081e-06
1.93346e-06
2.05069e-05
8.33837e-07
-3.06822e-06
3.08109e-06
1.97405e-05
6.61645e-07
-4.36283e-06
4.46751e-06
1.89267e-05
5.78629e-07
-5.97428e-06
6.20945e-06
1.79874e-05
5.12819e-07
-8.05084e-06
8.47731e-06
1.68032e-05
3.58249e-07
-1.0707e-05
1.1533e-05
1.52147e-05
9.39222e-08
-1.43088e-05
1.58034e-05
1.27108e-05
-6.22692e-07
-1.84604e-05
2.1587e-05
8.06159e-06
-1.18479e-06
-2.31752e-05
2.90092e-05
-3.58698e-06
-1.8626e-05
3.02746e-05
6.47678e-05
1.06393e-05
4.69886e-07
-7.44234e-07
6.33982e-05
1.25177e-05
8.82122e-07
-1.42256e-06
6.07666e-05
1.13839e-05
8.70492e-07
-1.5267e-06
5.78879e-05
8.7494e-06
4.26963e-07
-1.07777e-06
5.53537e-05
6.31269e-06
-4.45804e-07
-1.09062e-07
5.32809e-05
4.41917e-06
-1.68379e-06
1.27206e-06
5.15526e-05
3.19208e-06
-3.25729e-06
3.0028e-06
4.99754e-05
2.50534e-06
-5.18539e-06
5.09116e-06
4.83567e-05
2.20746e-06
-7.5544e-06
7.62724e-06
4.65009e-05
2.14501e-06
-1.05067e-05
1.07962e-05
4.42183e-05
2.19798e-06
-1.42845e-05
1.48819e-05
4.11622e-05
2.21879e-06
-1.91243e-05
2.03199e-05
3.68892e-05
2.1426e-06
-2.55188e-05
2.77432e-05
3.01195e-05
1.50655e-06
-3.28843e-05
3.75247e-05
1.95679e-05
5.94622e-07
-4.0147e-05
4.89192e-05
-2.57876e-06
-3.13159e-05
4.98756e-05
6.63704e-05
7.06568e-06
5.22759e-07
-8.19504e-07
6.87828e-05
1.07071e-05
1.00152e-06
-1.60327e-06
6.98453e-05
1.1071e-05
1.02878e-06
-1.77834e-06
6.97656e-05
9.5938e-06
5.85963e-07
-1.35063e-06
6.90395e-05
7.71477e-06
-3.33113e-07
-3.42932e-07
6.7957e-05
6.02833e-06
-1.67559e-06
1.14898e-06
6.66582e-05
4.84356e-06
-3.41577e-06
3.06305e-06
6.51497e-05
4.18368e-06
-5.57492e-06
5.4051e-06
6.33543e-05
3.97976e-06
-8.2429e-06
8.26601e-06
6.11113e-05
4.11968e-06
-1.15774e-05
1.18457e-05
5.81929e-05
4.50175e-06
-1.58403e-05
1.6455e-05
5.41474e-05
4.98878e-06
-2.13186e-05
2.25941e-05
4.83622e-05
5.50142e-06
-2.8534e-05
3.09604e-05
3.91958e-05
5.52005e-06
-3.69784e-05
4.21312e-05
2.50769e-05
4.78033e-06
-4.52984e-05
5.52316e-05
7.42842e-07
-3.57806e-05
5.75358e-05
6.53137e-05
4.55179e-06
5.47287e-07
-8.47118e-07
6.84999e-05
8.13949e-06
1.06282e-06
-1.68143e-06
7.1053e-05
9.29471e-06
1.11543e-06
-1.89225e-06
7.25669e-05
8.87758e-06
6.8826e-07
-1.48596e-06
7.31734e-05
7.81977e-06
-2.19038e-07
-4.92482e-07
7.30607e-05
6.7031e-06
-1.55372e-06
9.9167e-07
7.24e-05
5.89024e-06
-3.29185e-06
2.90584e-06
7.12728e-05
5.51006e-06
-5.45699e-06
5.25782e-06
6.96697e-05
5.5838e-06
-8.13876e-06
8.13783e-06
6.74662e-05
6.07274e-06
-1.14994e-05
1.17499e-05
6.44282e-05
6.93277e-06
-1.58015e-05
1.64085e-05
6.00517e-05
8.07709e-06
-2.13592e-05
2.26474e-05
5.36177e-05
9.44816e-06
-2.87011e-05
3.11884e-05
4.33069e-05
1.04767e-05
-3.74233e-05
4.27775e-05
2.73159e-05
1.03385e-05
-4.61532e-05
5.65859e-05
4.96003e-06
-3.69246e-05
6.00232e-05
6.43751e-05
2.97376e-06
5.67432e-07
-8.64462e-07
6.72409e-05
5.89242e-06
1.11328e-06
-1.73202e-06
7.0043e-05
7.27138e-06
1.19246e-06
-1.97128e-06
7.21927e-05
7.52741e-06
7.89233e-07
-1.58877e-06
7.3546e-05
7.17911e-06
-8.8688e-08
-6.23927e-07
7.41353e-05
6.67738e-06
-1.3828e-06
8.19261e-07
7.40658e-05
6.34908e-06
-3.06542e-06
2.67609e-06
7.34128e-05
6.3682e-06
-5.15782e-06
4.95262e-06
7.2187e-05
6.81997e-06
-7.74431e-06
7.73397e-06
7.02837e-05
7.73974e-06
-1.09852e-05
1.12215e-05
6.74737e-05
9.15522e-06
-1.51318e-05
1.57193e-05
6.32186e-05
1.10693e-05
-2.05158e-05
2.17787e-05
5.6706e-05
1.34985e-05
-2.7651e-05
3.01133e-05
4.59129e-05
1.59051e-05
-3.62724e-05
4.16371e-05
2.8693e-05
1.70223e-05
-4.50238e-05
5.556e-05
1.01379e-05
-3.64323e-05
5.99474e-05
6.38219e-05
1.94524e-06
5.87435e-07
-8.80843e-07
6.6242e-05
4.08661e-06
1.16375e-06
-1.77805e-06
6.8916e-05
5.37114e-06
1.27492e-06
-2.04867e-06
7.12685e-05
5.96816e-06
9.04903e-07
-1.69815e-06
7.30187e-05
6.13424e-06
6.79691e-08
-7.73319e-07
7.4084e-05
6.16918e-06
-1.17018e-06
6.13098e-07
7.4494e-05
6.32491e-06
-2.77508e-06
2.38923e-06
7.42924e-05
6.77644e-06
-4.76204e-06
4.55548e-06
7.34863e-05
7.64434e-06
-7.20584e-06
7.18756e-06
7.19777e-05
9.02976e-06
-1.02601e-05
1.04787e-05
6.95407e-05
1.10358e-05
-1.41575e-05
1.47139e-05
6.56061e-05
1.37938e-05
-1.92417e-05
2.04518e-05
5.9282e-05
1.74411e-05
-2.5994e-05
2.83756e-05
4.8314e-05
2.1616e-05
-3.43242e-05
3.95813e-05
3.01478e-05
2.47855e-05
-4.28909e-05
5.32939e-05
1.67933e-05
-3.52591e-05
5.87515e-05
6.35631e-05
1.17281e-06
6.10683e-07
-9.01363e-07
6.56918e-05
2.56812e-06
1.22087e-06
-1.83102e-06
6.8225e-05
3.60657e-06
1.37049e-06
-2.13921e-06
7.06488e-05
4.33185e-06
1.04319e-06
-1.83063e-06
7.26353e-05
4.84704e-06
2.58326e-07
-9.57676e-07
7.40426e-05
5.31475e-06
-9.10589e-07
3.57776e-07
7.48534e-05
5.89954e-06
-2.41945e-06
2.03403e-06
7.50932e-05
6.74955e-06
-4.27268e-06
4.05974e-06
7.47786e-05
7.99467e-06
-6.52789e-06
6.49221e-06
7.38416e-05
9.78533e-06
-9.32001e-06
9.50134e-06
7.21053e-05
1.22879e-05
-1.28423e-05
1.33266e-05
6.90359e-05
1.57962e-05
-1.74214e-05
1.84883e-05
6.37504e-05
2.0619e-05
-2.34434e-05
2.5551e-05
5.35944e-05
2.70441e-05
-3.10014e-05
3.57293e-05
3.52244e-05
3.37709e-05
-3.86589e-05
4.80435e-05
2.99418e-05
-3.23761e-05
5.4452e-05
6.3469e-05
6.36873e-07
-9.26313e-07
4.93248e-07
6.54827e-05
1.2842e-06
-1.8924e-06
1.16264e-06
6.79742e-05
1.47669e-06
-2.24317e-06
1.88148e-06
7.04702e-05
1.19846e-06
-1.98359e-06
2.62107e-06
7.26322e-05
4.72986e-07
-1.17058e-06
3.38257e-06
7.42964e-05
-6.19215e-07
6.59433e-08
4.20384e-06
7.54273e-05
-2.02354e-06
1.63395e-06
5.15826e-06
7.60475e-05
-3.73172e-06
3.50799e-06
6.35306e-06
7.61876e-05
-5.78189e-06
5.7245e-06
7.91195e-06
7.58112e-05
-8.28644e-06
8.42561e-06
1.00226e-05
7.47909e-05
-1.1396e-05
1.18025e-05
1.29016e-05
7.26462e-05
-1.54119e-05
1.63263e-05
1.70265e-05
6.85758e-05
-2.06214e-05
2.24441e-05
2.28667e-05
5.96769e-05
-2.73235e-05
3.15007e-05
3.17658e-05
4.23334e-05
-3.40844e-05
4.2444e-05
4.27548e-05
-3.00567e-05
5.09374e-05
5.13945e-05
4.99955e-05
1.26389e-05
1.97705e-07
3.96161e-05
1.06262e-05
3.37252e-07
3.17693e-05
8.11823e-06
2.40788e-07
2.67654e-05
5.23934e-06
-6.20203e-08
2.36822e-05
3.24187e-06
-5.50705e-07
2.17904e-05
1.95502e-06
-1.18625e-06
2.05118e-05
1.23699e-06
-1.96645e-06
1.94806e-05
8.72489e-07
-2.9095e-06
1.84685e-05
7.15011e-07
-4.06578e-06
1.73312e-05
6.50074e-07
-5.487e-06
1.59606e-05
6.10426e-07
-7.29065e-06
1.42447e-05
4.9305e-07
-9.48423e-06
1.197e-05
2.90425e-07
-1.23246e-05
8.91645e-06
-3.31603e-07
-1.50752e-05
4.15039e-06
-8.99805e-07
-1.75094e-05
-2.76465e-06
-1.1711e-05
6.46756e-05
1.06538e-05
2.79365e-07
6.31252e-05
1.25537e-05
5.05122e-07
6.02668e-05
1.14342e-05
4.12822e-07
5.71461e-05
8.80442e-06
-1.73326e-08
5.4366e-05
6.37182e-06
-7.95704e-07
5.20355e-05
4.4876e-06
-1.88589e-06
5.00133e-05
3.27994e-06
-3.27798e-06
4.80725e-05
2.623e-06
-4.99519e-06
4.59807e-05
2.36607e-06
-7.11365e-06
4.35025e-05
2.35414e-06
-9.73261e-06
4.03947e-05
2.47258e-06
-1.30388e-05
3.63056e-05
2.56758e-06
-1.71098e-05
3.07485e-05
2.58215e-06
-2.22535e-05
2.29169e-05
2.01931e-06
-2.74036e-05
1.19884e-05
1.03629e-06
-3.11546e-05
-2.04667e-06
-2.00455e-05
6.62774e-05
7.08377e-06
3.15384e-07
6.85007e-05
1.0752e-05
5.79912e-07
6.93198e-05
1.11404e-05
5.03548e-07
6.89702e-05
9.6802e-06
5.97869e-08
6.79606e-05
7.81731e-06
-7.68979e-07
6.65753e-05
6.15354e-06
-1.95631e-06
6.49318e-05
5.00527e-06
-3.49759e-06
6.30017e-05
4.39893e-06
-5.42077e-06
6.06626e-05
4.26908e-06
-7.80681e-06
5.77058e-05
4.50328e-06
-1.07697e-05
5.38401e-05
5.00753e-06
-1.45097e-05
4.85986e-05
5.63273e-06
-1.91421e-05
4.13163e-05
6.30823e-06
-2.49778e-05
3.08704e-05
6.42467e-06
-3.09379e-05
1.62707e-05
5.59229e-06
-3.52547e-05
1.11484e-06
-2.26714e-05
6.52233e-05
4.57144e-06
3.36324e-07
6.82222e-05
8.18908e-06
6.26778e-07
7.05343e-05
9.37658e-06
5.67259e-07
7.178e-05
8.9886e-06
1.34094e-07
7.21029e-05
7.96106e-06
-6.85703e-07
7.16858e-05
6.88308e-06
-1.86613e-06
7.06777e-05
6.12611e-06
-3.40457e-06
6.9126e-05
5.82532e-06
-5.33169e-06
6.69754e-05
6.00947e-06
-7.72859e-06
6.40502e-05
6.64315e-06
-1.07141e-05
6.00483e-05
7.69562e-06
-1.44877e-05
5.44412e-05
9.06779e-06
-1.91871e-05
4.64456e-05
1.07212e-05
-2.51186e-05
3.47653e-05
1.19429e-05
-3.12613e-05
1.82038e-05
1.17752e-05
-3.57746e-05
5.45847e-06
-2.30644e-05
6.42868e-05
2.99517e-06
3.56889e-07
6.69685e-05
5.94671e-06
6.7395e-07
6.95356e-05
7.36398e-06
6.37926e-07
7.14268e-05
7.65945e-06
2.27202e-07
7.25093e-05
7.35443e-06
-5.6459e-07
7.28098e-05
6.9066e-06
-1.7068e-06
7.24115e-05
6.65273e-06
-3.19367e-06
7.13567e-05
6.77611e-06
-5.05386e-06
6.96113e-05
7.37401e-06
-7.36346e-06
6.70189e-05
8.49062e-06
-1.02403e-05
6.32802e-05
1.0176e-05
-1.38735e-05
5.7823e-05
1.24267e-05
-1.84174e-05
4.97551e-05
1.52998e-05
-2.41617e-05
3.7552e-05
1.80683e-05
-3.01947e-05
1.96347e-05
1.93429e-05
-3.46742e-05
1.1034e-05
-2.23731e-05
6.37353e-05
1.96924e-06
3.78045e-07
6.59748e-05
4.14662e-06
7.24404e-07
6.84206e-05
5.47419e-06
7.18868e-07
7.05262e-05
6.11855e-06
3.4025e-07
7.20224e-05
6.33835e-06
-4.1223e-07
7.28206e-05
6.44003e-06
-1.50178e-06
7.29286e-05
6.68638e-06
-2.91671e-06
7.23584e-05
7.26451e-06
-4.68024e-06
7.10745e-05
8.31168e-06
-6.85965e-06
6.89278e-05
9.94502e-06
-9.56773e-06
6.56223e-05
1.23012e-05
-1.29772e-05
6.05458e-05
1.55179e-05
-1.72564e-05
5.27139e-05
1.98039e-05
-2.26663e-05
4.0329e-05
2.45767e-05
-2.84477e-05
2.13275e-05
2.82332e-05
-3.27796e-05
1.83509e-05
-2.12486e-05
6.34784e-05
1.19967e-06
4.0187e-07
6.54306e-05
2.63396e-06
7.81293e-07
6.77437e-05
3.71886e-06
8.12747e-07
6.99336e-05
4.49678e-06
4.75032e-07
7.16855e-05
5.07276e-06
-2.2798e-07
7.28516e-05
5.61623e-06
-1.25289e-06
7.3395e-05
6.30305e-06
-2.5795e-06
7.33127e-05
7.29557e-06
-4.2214e-06
7.25836e-05
8.7439e-06
-6.23102e-06
7.10945e-05
1.08215e-05
-8.70738e-06
6.86072e-05
1.37377e-05
-1.17916e-05
6.45413e-05
1.78127e-05
-1.56503e-05
5.79223e-05
2.34557e-05
-2.04762e-05
4.64511e-05
3.07526e-05
-2.57062e-05
2.71362e-05
3.84091e-05
-2.95199e-05
3.23565e-05
-1.92455e-05
6.33863e-05
4.27628e-07
5.22604e-07
6.52285e-05
8.42853e-07
1.23315e-06
6.75087e-05
9.15277e-07
2.00007e-06
6.97848e-05
6.24114e-07
2.79499e-06
7.17322e-05
-2.28652e-08
3.62118e-06
7.31822e-05
-9.76258e-07
4.52326e-06
7.40824e-05
-2.20658e-06
5.58593e-06
7.44303e-05
-3.71606e-06
6.93204e-06
7.42245e-05
-5.54028e-06
8.70801e-06
7.33896e-05
-7.76118e-06
1.11312e-05
7.17484e-05
-1.04852e-05
1.44681e-05
6.87716e-05
-1.38712e-05
1.92487e-05
6.35822e-05
-1.80399e-05
2.60636e-05
5.35305e-05
-2.26528e-05
3.61336e-05
3.5249e-05
-2.59666e-05
4.85729e-05
-1.7635e-05
5.51838e-05
4.99454e-05
1.26449e-05
1.07417e-07
3.94675e-05
1.06431e-05
1.71994e-07
3.15043e-05
8.13915e-06
6.48442e-08
2.63827e-05
5.2591e-06
-1.99546e-07
2.31828e-05
3.26061e-06
-6.11385e-07
2.11664e-05
1.97558e-06
-1.14539e-06
1.97399e-05
1.2637e-06
-1.80366e-06
1.85209e-05
9.08504e-07
-2.59899e-06
1.72603e-05
7.63383e-07
-3.56853e-06
1.57959e-05
7.13223e-07
-4.73587e-06
1.39914e-05
6.93527e-07
-6.17962e-06
1.17485e-05
6.02897e-07
-7.84422e-06
8.87111e-06
4.35469e-07
-9.88271e-06
5.5086e-06
-1.30728e-07
-1.15819e-05
1.41716e-06
-7.77288e-07
-1.26406e-05
-2.4231e-06
-7.87072e-06
6.46045e-05
1.06685e-05
1.51246e-07
6.29111e-05
1.25884e-05
2.53243e-07
5.98632e-05
1.14835e-05
1.1633e-07
5.65267e-05
8.86045e-06
-2.82118e-07
5.35148e-05
6.43285e-06
-9.56082e-07
5.09316e-05
4.55748e-06
-1.88465e-06
4.86177e-05
3.36753e-06
-3.06781e-06
4.63192e-05
2.73763e-06
-4.5259e-06
4.37685e-05
2.51826e-06
-6.31781e-06
4.06977e-05
2.55288e-06
-8.50146e-06
3.68225e-05
2.73129e-06
-1.12012e-05
3.18152e-05
2.89308e-06
-1.43927e-05
2.52428e-05
2.98303e-06
-1.82287e-05
1.68805e-05
2.4722e-06
-2.16442e-05
6.83824e-06
1.38766e-06
-2.32773e-05
-1.74574e-06
-1.38847e-05
6.62062e-05
7.10288e-06
1.74843e-07
6.82806e-05
1.07972e-05
2.9671e-07
6.88967e-05
1.12101e-05
1.60828e-07
6.83083e-05
9.7681e-06
-2.59424e-07
6.7034e-05
7.92183e-06
-9.83692e-07
6.53552e-05
6.27963e-06
-1.99958e-06
6.33725e-05
5.16511e-06
-3.31249e-06
6.10298e-05
4.60791e-06
-4.94841e-06
5.81661e-05
4.54648e-06
-6.97127e-06
5.45333e-05
4.86783e-06
-9.45182e-06
4.97929e-05
5.48491e-06
-1.25229e-05
4.34938e-05
6.23609e-06
-1.61861e-05
3.50224e-05
7.05648e-06
-2.05799e-05
2.38937e-05
7.25468e-06
-2.45916e-05
1.01858e-05
6.33343e-06
-2.64925e-05
1.45608e-06
-1.56875e-05
6.51546e-05
4.59258e-06
1.92021e-07
6.80071e-05
8.24001e-06
3.31521e-07
7.0119e-05
9.45934e-06
2.06021e-07
7.11282e-05
9.10068e-06
-2.07665e-07
7.1187e-05
8.10285e-06
-9.25513e-07
7.04749e-05
7.06151e-06
-1.9359e-06
6.91251e-05
6.35648e-06
-3.24619e-06
6.71576e-05
6.12898e-06
-4.88524e-06
6.44777e-05
6.41518e-06
-6.91737e-06
6.08672e-05
7.18224e-06
-9.41806e-06
5.59714e-05
8.4116e-06
-1.25186e-05
4.92683e-05
9.99008e-06
-1.6238e-05
4.00148e-05
1.18965e-05
-2.0705e-05
2.75613e-05
1.32879e-05
-2.4841e-05
1.18316e-05
1.31144e-05
-2.68258e-05
6.0657e-06
-1.58424e-05
6.42204e-05
3.01788e-06
2.11226e-07
6.6759e-05
6.00213e-06
3.73158e-07
6.91321e-05
7.45678e-06
2.67448e-07
7.07957e-05
7.79072e-06
-1.26455e-07
7.16257e-05
7.52732e-06
-8.19115e-07
7.16455e-05
7.13044e-06
-1.79547e-06
7.09225e-05
6.94606e-06
-3.06032e-06
6.94725e-05
7.16619e-06
-4.641e-06
6.72222e-05
7.8996e-06
-6.59763e-06
6.39717e-05
9.19789e-06
-9.00541e-06
5.93653e-05
1.11317e-05
-1.19872e-05
5.28271e-05
1.36875e-05
-1.55766e-05
4.34894e-05
1.69605e-05
-1.9888e-05
3.04584e-05
2.0053e-05
-2.39289e-05
1.326e-05
2.1513e-05
-2.58744e-05
1.21753e-05
-1.52227e-05
6.36706e-05
1.99381e-06
2.31516e-07
6.57706e-05
4.20654e-06
4.1997e-07
6.80291e-05
5.5756e-06
3.41592e-07
6.99179e-05
6.2653e-06
-2.31756e-08
7.11769e-05
6.53631e-06
-6.80226e-07
7.17142e-05
6.7011e-06
-1.60969e-06
7.15224e-05
7.03235e-06
-2.81125e-06
7.05877e-05
7.72852e-06
-4.3078e-06
6.8837e-05
8.94264e-06
-6.15203e-06
6.60773e-05
1.08057e-05
-8.41584e-06
6.19551e-05
1.34856e-05
-1.12089e-05
5.58441e-05
1.71212e-05
-1.45792e-05
4.67691e-05
2.19894e-05
-1.86202e-05
3.35292e-05
2.73108e-05
-2.24656e-05
1.51012e-05
3.14852e-05
-2.43238e-05
2.03476e-05
-1.43197e-05
6.34155e-05
1.22611e-06
2.54035e-07
6.52326e-05
2.69794e-06
4.72826e-07
6.73659e-05
3.82709e-06
4.27959e-07
6.93512e-05
4.65485e-06
1.00193e-07
7.08834e-05
5.28859e-06
-5.1249e-07
7.18127e-05
5.9037e-06
-1.38477e-06
7.20883e-05
6.68647e-06
-2.50925e-06
7.16839e-05
7.8126e-06
-3.90108e-06
7.05453e-05
9.45137e-06
-5.60112e-06
6.85191e-05
1.17967e-05
-7.67217e-06
6.53152e-05
1.50989e-05
-1.02011e-05
6.03318e-05
1.96974e-05
-1.3243e-05
5.25942e-05
2.61004e-05
-1.68496e-05
4.0313e-05
3.42131e-05
-2.03273e-05
2.1371e-05
4.28502e-05
-2.19429e-05
3.54752e-05
-1.30021e-05
6.33255e-05
2.77817e-07
5.50471e-07
6.50371e-05
5.29246e-07
1.29986e-06
6.71459e-05
5.21449e-07
2.11212e-06
6.92302e-05
2.35594e-07
2.95907e-06
7.09766e-05
-3.2713e-07
3.84651e-06
7.22154e-05
-1.13627e-06
4.82489e-06
7.28823e-05
-2.17668e-06
5.98963e-06
7.29549e-05
-3.45435e-06
7.47834e-06
7.24039e-05
-4.99673e-06
9.45881e-06
7.11191e-05
-6.85497e-06
1.21753e-05
6.88807e-05
-9.09083e-06
1.5943e-05
6.51335e-05
-1.17625e-05
2.13359e-05
5.90023e-05
-1.48783e-05
2.90701e-05
4.82443e-05
-1.79416e-05
4.02599e-05
3.02309e-05
-1.93496e-05
5.42466e-05
-1.19529e-05
6.00239e-05
4.99071e-05
1.26504e-05
4.98684e-08
3.93526e-05
1.06579e-05
6.86275e-08
3.12953e-05
8.15791e-06
-3.57426e-08
2.60753e-05
5.27742e-06
-2.56951e-07
2.27762e-05
3.27843e-06
-5.90755e-07
2.06564e-05
1.99551e-06
-1.02108e-06
1.91146e-05
1.28974e-06
-1.55163e-06
1.77623e-05
9.44085e-07
-2.19079e-06
1.63457e-05
8.12554e-07
-2.96441e-06
1.47076e-05
7.8089e-07
-3.87867e-06
1.27204e-05
7.89271e-07
-4.98171e-06
1.03277e-05
7.43951e-07
-6.1955e-06
7.39417e-06
6.48913e-07
-7.59808e-06
4.19614e-06
2.17573e-07
-8.6015e-06
7.87175e-07
-3.2912e-07
-8.90254e-06
-1.79555e-06
-5.288e-06
6.45498e-05
1.06822e-05
6.96891e-08
6.27445e-05
1.26198e-05
9.66226e-08
5.95435e-05
1.15284e-05
-5.31815e-08
5.60269e-05
8.9123e-06
-4.00422e-07
5.28178e-05
6.48995e-06
-9.58457e-07
5.00209e-05
4.62309e-06
-1.71531e-06
4.74686e-05
3.44934e-06
-2.67515e-06
4.48963e-05
2.84436e-06
-3.8539e-06
4.20246e-05
2.66065e-06
-5.29415e-06
3.85867e-05
2.74212e-06
-7.02485e-06
3.43101e-05
2.98573e-06
-9.1211e-06
2.89384e-05
3.23368e-06
-1.15107e-05
2.21553e-05
3.44507e-06
-1.42417e-05
1.40442e-05
3.093e-06
-1.64085e-05
5.15786e-06
2.1268e-06
-1.68469e-05
-9.83899e-07
-9.53847e-06
6.61515e-05
7.12106e-06
8.442e-08
6.81096e-05
1.08392e-05
1.19306e-07
6.85621e-05
1.12744e-05
-3.76628e-08
6.77746e-05
9.84965e-06
-4.09328e-07
6.62753e-05
8.01902e-06
-1.01344e-06
6.43472e-05
6.39646e-06
-1.84481e-06
6.20846e-05
5.31191e-06
-2.91253e-06
5.94203e-05
4.79828e-06
-4.23799e-06
5.61799e-05
4.79817e-06
-5.86838e-06
5.21139e-05
5.19941e-06
-7.84314e-06
4.68953e-05
5.92362e-06
-1.02422e-05
4.0148e-05
6.80503e-06
-1.30102e-05
3.13923e-05
7.79423e-06
-1.61733e-05
2.05032e-05
8.1569e-06
-1.87664e-05
8.10212e-06
7.33112e-06
-1.92957e-05
2.22593e-06
-1.07952e-05
6.51023e-05
4.61293e-06
9.78783e-08
6.78408e-05
8.2879e-06
1.44257e-07
6.97918e-05
9.53629e-06
-6.86687e-09
7.06042e-05
9.20455e-06
-3.74884e-07
7.04386e-05
8.23381e-06
-9.74718e-07
6.94761e-05
7.22506e-06
-1.80207e-06
6.78443e-05
6.56543e-06
-2.86787e-06
6.55521e-05
6.40143e-06
-4.19622e-06
6.24919e-05
6.77588e-06
-5.83489e-06
5.84427e-05
7.65817e-06
-7.82762e-06
5.30597e-05
9.04082e-06
-1.02528e-05
4.58939e-05
1.08012e-05
-1.30683e-05
3.63355e-05
1.29367e-05
-1.62892e-05
2.41021e-05
1.45177e-05
-1.89685e-05
9.69018e-06
1.44383e-05
-1.95211e-05
6.91734e-06
-1.08437e-05
6.41701e-05
3.03962e-06
1.1447e-07
6.65981e-05
6.05415e-06
1.78869e-07
6.88155e-05
7.54274e-06
4.36028e-08
7.02901e-05
7.91156e-06
-3.08027e-07
7.09059e-05
7.68547e-06
-8.86614e-07
7.06875e-05
7.33336e-06
-1.6854e-06
6.9697e-05
7.20905e-06
-2.71341e-06
6.79395e-05
7.51163e-06
-3.99372e-06
6.53295e-05
8.35911e-06
-5.57084e-06
6.16635e-05
9.80764e-06
-7.48882e-06
5.65939e-05
1.19428e-05
-9.8196e-06
4.96126e-05
1.47393e-05
-1.25334e-05
3.99768e-05
1.83183e-05
-1.56338e-05
2.7148e-05
2.1656e-05
-1.82384e-05
1.12121e-05
2.32571e-05
-1.87573e-05
1.32441e-05
-1.03374e-05
6.36219e-05
2.01691e-06
1.32362e-07
6.56146e-05
4.26209e-06
2.19281e-07
6.77233e-05
5.66862e-06
1.07064e-07
6.94324e-05
6.39906e-06
-2.19834e-07
7.04903e-05
6.71548e-06
-7.68149e-07
7.08063e-05
6.93522e-06
-1.52748e-06
7.03677e-05
7.3392e-06
-2.50284e-06
6.91508e-05
8.13457e-06
-3.71383e-06
6.70709e-05
9.48611e-06
-5.19913e-06
6.39309e-05
1.15325e-05
-7.00076e-06
5.93844e-05
1.44615e-05
-9.18095e-06
5.28656e-05
1.84016e-05
-1.17227e-05
4.35139e-05
2.36658e-05
-1.4616e-05
3.04617e-05
2.93186e-05
-1.7076e-05
1.32062e-05
3.37384e-05
-1.75497e-05
2.17717e-05
-9.64111e-06
6.33685e-05
1.25039e-06
1.5209e-07
6.5082e-05
2.75628e-06
2.65058e-07
6.70721e-05
3.92514e-06
1.81354e-07
6.88882e-05
4.79734e-06
-1.14131e-07
7.02342e-05
5.4819e-06
-6.24954e-07
7.09621e-05
6.15906e-06
-1.33651e-06
7.10167e-05
7.02352e-06
-2.24818e-06
7.03631e-05
8.26083e-06
-3.37368e-06
6.89371e-05
1.00538e-05
-4.74279e-06
6.65819e-05
1.26073e-05
-6.39186e-06
6.30148e-05
1.61952e-05
-8.36769e-06
5.76851e-05
2.11516e-05
-1.06634e-05
4.97189e-05
2.80283e-05
-1.32459e-05
3.76174e-05
3.65602e-05
-1.54674e-05
1.97007e-05
4.55641e-05
-1.58519e-05
3.7238e-05
-8.76776e-06
6.32801e-05
1.72637e-07
5.75445e-07
6.48925e-05
3.13541e-07
1.35961e-06
6.68654e-05
2.61378e-07
2.21226e-06
6.87917e-05
1.4359e-09
3.10525e-06
7.03674e-05
-4.67289e-07
4.04635e-06
7.14258e-05
-1.1262e-06
5.09061e-06
7.18992e-05
-1.9684e-06
6.34182e-06
7.17581e-05
-3.00065e-06
7.94824e-06
7.09656e-05
-4.24259e-06
1.00921e-05
6.94091e-05
-5.72305e-06
1.30319e-05
6.68772e-05
-7.47183e-06
1.71082e-05
6.28573e-05
-9.48981e-06
2.28988e-05
5.65639e-05
-1.17218e-05
3.11652e-05
4.59954e-05
-1.36762e-05
4.28633e-05
2.8876e-05
-1.40172e-05
5.73512e-05
-8.0914e-06
6.22525e-05
4.98776e-05
1.26551e-05
1.71595e-08
3.92638e-05
1.067e-05
1.24877e-08
3.11315e-05
8.1734e-06
-7.68212e-08
2.58306e-05
5.29263e-06
-2.48688e-07
2.24479e-05
3.29329e-06
-5.01358e-07
2.02396e-05
2.01197e-06
-8.24762e-07
1.85994e-05
1.31089e-06
-1.22228e-06
1.71346e-05
9.72542e-07
-1.69857e-06
1.55888e-05
8.51289e-07
-2.26987e-06
1.38101e-05
8.33281e-07
-2.93324e-06
1.16817e-05
8.61867e-07
-3.71525e-06
9.18185e-06
8.4824e-07
-4.54384e-06
6.2363e-06
8.02393e-07
-5.45492e-06
3.20952e-06
4.57253e-07
-6.03197e-06
3.5738e-07
-2.72976e-08
-6.02311e-06
-1.43938e-06
-3.49124e-06
6.45075e-05
1.06939e-05
2.33748e-08
6.26153e-05
1.26463e-05
1.24756e-08
5.92926e-05
1.15664e-05
-1.2346e-07
5.56294e-05
8.95645e-06
-4.00994e-07
5.2256e-05
6.53887e-06
-8.3062e-07
4.92788e-05
4.67926e-06
-1.40541e-06
4.65256e-05
3.51892e-06
-2.13003e-06
4.37252e-05
2.93448e-06
-3.01539e-06
4.05917e-05
2.78016e-06
-4.08957e-06
3.68637e-05
2.90014e-06
-5.36372e-06
3.22861e-05
3.19708e-06
-6.87869e-06
2.66656e-05
3.5147e-06
-8.55673e-06
1.97988e-05
3.82315e-06
-1.03956e-05
1.19879e-05
3.59136e-06
-1.17317e-05
4.07892e-06
2.70896e-06
-1.16741e-05
-4.58811e-07
-6.44013e-06
6.61093e-05
7.13694e-06
3.20396e-08
6.79771e-05
1.08753e-05
2.25415e-08
6.82996e-05
1.13297e-05
-1.23443e-07
6.73503e-05
9.91982e-06
-4.23427e-07
6.56641e-05
8.10281e-06
-8.91173e-07
6.35264e-05
6.497e-06
-1.5248e-06
6.10281e-05
5.43756e-06
-2.33294e-06
5.80955e-05
4.96022e-06
-3.33111e-06
5.45473e-05
5.01113e-06
-4.5511e-06
5.01375e-05
5.4787e-06
-6.01191e-06
4.45577e-05
6.29157e-06
-7.7569e-06
3.75005e-05
7.28017e-06
-9.7184e-06
2.86157e-05
8.40747e-06
-1.18728e-05
1.80401e-05
8.90259e-06
-1.3502e-05
6.75821e-06
8.15222e-06
-1.34571e-05
2.82383e-06
-7.31965e-06
6.5062e-05
4.63091e-06
4.19182e-08
6.77124e-05
8.32963e-06
3.95178e-08
6.95358e-05
9.60292e-06
-1.03568e-07
7.01882e-05
9.29432e-06
-4.01798e-07
6.98365e-05
8.34679e-06
-8.66923e-07
6.86636e-05
7.36569e-06
-1.49787e-06
6.6794e-05
6.74415e-06
-2.30487e-06
6.42305e-05
6.63309e-06
-3.30565e-06
6.08586e-05
7.08087e-06
-4.53272e-06
5.64598e-05
8.05845e-06
-6.00854e-06
5.07068e-05
9.56714e-06
-7.77532e-06
4.32175e-05
1.1476e-05
-9.7749e-06
3.35132e-05
1.37967e-05
-1.19741e-05
2.1581e-05
1.55307e-05
-1.36643e-05
8.30389e-06
1.55299e-05
-1.36217e-05
7.62577e-06
-7.34174e-06
6.41315e-05
3.05884e-06
5.50168e-08
6.64743e-05
6.09958e-06
6.61278e-08
6.85687e-05
7.61728e-06
-6.51168e-08
6.98899e-05
8.01588e-06
-3.50784e-07
7.03279e-05
7.82156e-06
-7.99409e-07
6.99091e-05
7.5073e-06
-1.40824e-06
6.86927e-05
7.43337e-06
-2.18621e-06
6.66779e-05
7.80467e-06
-3.15044e-06
6.37722e-05
8.74677e-06
-4.3311e-06
5.9774e-05
1.03191e-05
-5.75125e-06
5.43515e-05
1.26187e-05
-7.44869e-06
4.7059e-05
1.56099e-05
-9.37475e-06
3.72783e-05
1.94323e-05
-1.14887e-05
2.47333e-05
2.29652e-05
-1.31278e-05
9.89159e-06
2.46802e-05
-1.30659e-05
1.41571e-05
-6.97712e-06
6.35847e-05
2.03716e-06
6.93536e-08
6.54951e-05
4.31037e-06
9.80688e-08
6.74858e-05
5.74893e-06
-1.52443e-08
6.90493e-05
6.51404e-06
-2.81572e-07
6.99403e-05
6.86899e-06
-7.06539e-07
7.00698e-05
7.13509e-06
-1.28475e-06
6.94225e-05
7.60006e-06
-2.02224e-06
6.79689e-05
8.47807e-06
-2.9336e-06
6.56179e-05
9.94341e-06
-4.04482e-06
6.21737e-05
1.21404e-05
-5.37783e-06
5.73035e-05
1.52718e-05
-6.96387e-06
5.04988e-05
1.94564e-05
-8.76448e-06
4.10139e-05
2.50323e-05
-1.07311e-05
2.82286e-05
3.09461e-05
-1.22716e-05
1.19962e-05
3.55568e-05
-1.21939e-05
2.29958e-05
-6.48365e-06
6.33327e-05
1.27141e-06
8.51122e-08
6.49673e-05
2.8065e-06
1.34368e-07
6.6845e-05
4.00917e-06
4.33997e-08
6.85242e-05
4.91912e-06
-1.98365e-07
6.97156e-05
5.64673e-06
-5.94155e-07
7.02735e-05
6.3762e-06
-1.1355e-06
7.01405e-05
7.3092e-06
-1.8243e-06
6.92767e-05
8.63923e-06
-2.67102e-06
6.76127e-05
1.056e-05
-3.69541e-06
6.49928e-05
1.32845e-05
-4.91608e-06
6.11469e-05
1.71045e-05
-6.35453e-06
5.55735e-05
2.23481e-05
-7.98173e-06
4.7501e-05
2.95969e-05
-9.73804e-06
3.56493e-05
3.84595e-05
-1.11291e-05
1.86414e-05
4.77485e-05
-1.10358e-05
3.8789e-05
-5.91955e-06
6.32459e-05
1.01388e-07
5.96764e-07
6.47828e-05
1.72641e-07
1.41048e-06
6.66495e-05
1.0642e-07
2.29741e-06
6.84482e-05
-1.07589e-07
3.22943e-06
6.98825e-05
-4.7067e-07
4.21587e-06
7.07883e-05
-9.71448e-07
5.31562e-06
7.10968e-05
-1.60719e-06
6.63945e-06
7.07747e-05
-2.38341e-06
8.34413e-06
6.97813e-05
-3.31273e-06
1.06235e-05
6.80054e-05
-4.40924e-06
1.37466e-05
6.52484e-05
-5.68369e-06
1.80735e-05
6.10393e-05
-7.11508e-06
2.41825e-05
5.46822e-05
-8.63423e-06
3.28664e-05
4.43587e-05
-9.85808e-06
4.49649e-05
2.80356e-05
-9.78943e-06
5.98438e-05
-5.49141e-06
6.42245e-05
4.98565e-05
1.26587e-05
1.99362e-09
3.91998e-05
1.06794e-05
-1.0123e-08
3.10124e-05
8.18536e-06
-7.48459e-08
2.56517e-05
5.30461e-06
-1.926e-07
2.22074e-05
3.30522e-06
-3.62298e-07
1.99356e-05
2.0254e-06
-5.78278e-07
1.82278e-05
1.32834e-06
-8.42894e-07
1.66914e-05
9.9639e-07
-1.15849e-06
1.50714e-05
8.84412e-07
-1.53427e-06
1.32237e-05
8.79256e-07
-1.9648e-06
1.10443e-05
9.27218e-07
-2.46309e-06
8.53264e-06
9.43691e-07
-2.97589e-06
5.65017e-06
9.44141e-07
-3.51659e-06
2.76994e-06
6.71186e-07
-3.82293e-06
2.18129e-07
2.48467e-07
-3.71976e-06
-1.15308e-06
-2.12003e-06
6.4477e-05
1.07031e-05
1.97237e-09
6.25217e-05
1.2667e-05
-1.98516e-08
5.91094e-05
1.1596e-05
-1.21764e-07
5.53371e-05
8.99113e-06
-3.15268e-07
5.18414e-05
6.57755e-06
-6.07258e-07
4.87316e-05
4.72384e-06
-9.93993e-07
4.58347e-05
3.57421e-06
-1.47907e-06
4.28787e-05
3.00621e-06
-2.06916e-06
3.95788e-05
2.87569e-06
-2.78093e-06
3.56836e-05
3.02745e-06
-3.61674e-06
3.09591e-05
3.36916e-06
-4.59615e-06
2.52566e-05
3.74673e-06
-5.65725e-06
1.84461e-05
4.13994e-06
-6.78091e-06
1.09095e-05
4.01305e-06
-7.53699e-06
3.60088e-06
3.21336e-06
-7.33042e-06
-2.54282e-08
-3.96691e-06
6.60789e-05
7.14957e-06
6.68573e-09
6.7881e-05
1.09038e-05
-1.64021e-08
6.81078e-05
1.13731e-05
-1.27317e-07
6.70381e-05
9.9751e-06
-3.37729e-07
6.52125e-05
8.16891e-06
-6.5691e-07
6.29196e-05
6.57624e-06
-1.08435e-06
6.02511e-05
5.5363e-06
-1.62648e-06
5.71323e-05
5.08709e-06
-2.29322e-06
5.33831e-05
5.17762e-06
-3.10387e-06
4.87677e-05
5.69701e-06
-4.066e-06
4.30006e-05
6.57964e-06
-5.20033e-06
3.58253e-05
7.65412e-06
-6.45041e-06
2.69793e-05
8.89372e-06
-7.78063e-06
1.67087e-05
9.50156e-06
-8.71994e-06
6.13648e-06
8.8262e-06
-8.49777e-06
3.31685e-06
-4.52545e-06
6.5033e-05
4.64531e-06
1.31327e-08
6.76195e-05
8.36276e-06
-5.8994e-09
6.93491e-05
9.65556e-06
-1.15614e-07
6.98826e-05
9.36511e-06
-3.25332e-07
6.93919e-05
8.43575e-06
-6.43081e-07
6.80632e-05
7.47603e-06
-1.06894e-06
6.60215e-05
6.88362e-06
-1.6105e-06
6.32694e-05
6.8128e-06
-2.2793e-06
5.96935e-05
7.31604e-06
-3.09521e-06
5.50848e-05
8.36542e-06
-4.06827e-06
4.9139e-05
9.96861e-06
-5.21847e-06
4.15247e-05
1.19889e-05
-6.49543e-06
3.18527e-05
1.44484e-05
-7.85668e-06
2.02242e-05
1.63012e-05
-8.83547e-06
7.67019e-06
1.63671e-05
-8.60859e-06
8.18072e-06
-4.53542e-06
6.41039e-05
3.07421e-06
2.21616e-08
6.63851e-05
6.13567e-06
1.21142e-08
6.83891e-05
7.67618e-06
-8.97539e-08
6.95964e-05
8.09802e-06
-2.90984e-07
6.99018e-05
7.92834e-06
-5.97479e-07
6.93348e-05
7.6431e-06
-1.00827e-06
6.79551e-05
7.60734e-06
-1.53019e-06
6.57617e-05
8.03016e-06
-2.1744e-06
6.26635e-05
9.04243e-06
-2.95936e-06
5.84679e-05
1.07054e-05
-3.89562e-06
5.28648e-05
1.31236e-05
-5.00053e-06
4.54563e-05
1.62527e-05
-6.23009e-06
3.57097e-05
2.02438e-05
-7.53743e-06
2.34574e-05
2.39105e-05
-8.48482e-06
9.31037e-06
2.56967e-05
-8.24848e-06
1.48149e-05
-4.30099e-06
6.35581e-05
2.05328e-06
3.21435e-08
6.54092e-05
4.34857e-06
3.41613e-08
6.73133e-05
5.8122e-06
-5.54531e-08
6.8769e-05
6.60425e-06
-2.43427e-07
6.95356e-05
6.98891e-06
-5.337e-07
6.95272e-05
7.29033e-06
-9.236e-07
6.87292e-05
7.80116e-06
-1.41806e-06
6.7112e-05
8.74044e-06
-2.02666e-06
6.45859e-05
1.02888e-05
-2.76511e-06
6.09634e-05
1.25934e-05
-3.64343e-06
5.59323e-05
1.58659e-05
-4.67497e-06
4.90278e-05
2.02154e-05
-5.82269e-06
3.95832e-05
2.59931e-05
-7.03585e-06
2.70773e-05
3.20667e-05
-7.92195e-06
1.14911e-05
3.67724e-05
-7.68335e-06
2.38074e-05
-3.985e-06
6.33073e-05
1.28799e-06
4.31021e-08
6.4885e-05
2.846e-06
5.92774e-08
6.66805e-05
4.07505e-06
-1.49924e-08
6.82583e-05
5.01424e-06
-1.86125e-07
6.93346e-05
5.7749e-06
-4.5645e-07
6.97666e-05
6.54406e-06
-8.21293e-07
6.94981e-05
7.52833e-06
-1.28291e-06
6.84891e-05
8.92656e-06
-1.84823e-06
6.66721e-05
1.09394e-05
-2.52906e-06
6.3899e-05
1.37841e-05
-3.33364e-06
5.99183e-05
1.77619e-05
-4.26975e-06
5.42669e-05
2.31924e-05
-5.30729e-06
4.62432e-05
3.06698e-05
-6.39107e-06
3.46529e-05
3.97187e-05
-7.19073e-06
1.82225e-05
4.91307e-05
-6.96366e-06
3.97593e-05
-3.64903e-06
6.32216e-05
5.43679e-08
6.13415e-07
6.47044e-05
8.56955e-08
1.45018e-06
6.64936e-05
2.84478e-08
2.36377e-06
6.8198e-05
-1.23653e-07
3.32596e-06
6.95267e-05
-3.71648e-07
4.34711e-06
7.03195e-05
-7.08948e-07
5.48883e-06
7.05086e-05
-1.13478e-06
6.86676e-06
7.00614e-05
-1.65288e-06
8.64326e-06
6.89393e-05
-2.27062e-06
1.10195e-05
6.70383e-05
-2.99367e-06
1.42695e-05
6.41769e-05
-3.82367e-06
1.87633e-05
5.99174e-05
-4.73667e-06
2.50734e-05
5.36243e-05
-5.67445e-06
3.40032e-05
4.3549e-05
-6.3772e-06
4.6313e-05
2.77326e-05
-6.19038e-06
6.13481e-05
-3.39661e-06
6.53971e-05
4.98425e-05
1.26611e-05
-1.59294e-09
3.91574e-05
1.06857e-05