/*--------------------------------*- C++ -*----------------------------------*\
| =========                 |                                                 |
| \\      /  F ield         | OpenFOAM: The Open Source CFD Toolbox           |
|  \\    /   O peration     | Version:  v1912                                 |
|   \\  /    A nd           | Website:  www.openfoam.com                      |
|    \\/     M anipulation  |                                                 |
\*---------------------------------------------------------------------------*/
FoamFile
{
    version     2.0;
    format      ascii;
    class       volVectorField;
    location    "0.87/fluid";
    object      U;
}
// * * * * * * * * * * * * * * * * * * * * * * * * * * * * * * * * * * * * * //

dimensions      [0 1 -1 0 0 0 0];


internalField   nonuniform List<vector> 
14592
(
(0.0877181 0.0173271 0.000587066)
(0.0718946 0.0119119 0.00104004)
(0.0560201 0.00763225 0.000959464)
(0.0466302 0.00388812 0.00045085)
(0.040555 0.00184774 -0.00040983)
(0.0370787 0.00079151 -0.00151748)
(0.0348978 0.000322842 -0.00284818)
(0.0334421 0.000120309 -0.00443452)
(0.0321725 2.83352e-05 -0.00636957)
(0.0310181 -5.20503e-05 -0.00880136)
(0.029508 -0.000167069 -0.0119747)
(0.0281292 -0.000421541 -0.0161846)
(0.0254871 -0.000805509 -0.0220922)
(0.0234677 -0.00170049 -0.0297241)
(0.0166459 -0.00214022 -0.0395539)
(0.00955243 -0.00497231 -0.0371385)
(0.10395 0.0182286 0.000830233)
(0.103296 0.0183622 0.00157399)
(0.09954 0.0154591 0.00162732)
(0.094891 0.0109992 0.000991707)
(0.0903876 0.00734556 -0.000315654)
(0.0867509 0.00472585 -0.00217913)
(0.0837587 0.00312763 -0.00453988)
(0.0812186 0.00226033 -0.00742101)
(0.0786951 0.0018617 -0.0109537)
(0.0760681 0.00170505 -0.0153802)
(0.0726932 0.00163056 -0.021098)
(0.0688854 0.00144097 -0.0286216)
(0.0626651 0.00106766 -0.0388641)
(0.0556919 -8.67425e-05 -0.0517787)
(0.0399456 -0.00126865 -0.0664645)
(0.0232283 -0.00525063 -0.0603559)
(0.104003 0.0122692 0.000919094)
(0.10848 0.0171167 0.00178072)
(0.111491 0.0168457 0.00190873)
(0.112024 0.0138543 0.00128655)
(0.111227 0.0105898 -8.22982e-05)
(0.109705 0.00783198 -0.0020989)
(0.107762 0.00594375 -0.00470858)
(0.105553 0.00486131 -0.00793515)
(0.102918 0.00441605 -0.0119136)
(0.0998368 0.00439869 -0.0169084)
(0.0956757 0.00462883 -0.0233503)
(0.0906249 0.00488421 -0.0318392)
(0.0824606 0.00504645 -0.0433574)
(0.0726467 0.00440608 -0.058095)
(0.0519036 0.00300904 -0.074875)
(0.0290135 -0.00199769 -0.0693631)
(0.102152 0.0078876 0.000956362)
(0.106965 0.0133415 0.00187898)
(0.112106 0.0146604 0.00204981)
(0.115278 0.0134457 0.00145385)
(0.116921 0.0113697 0.000103825)
(0.117236 0.00933046 -0.00190137)
(0.116557 0.00784674 -0.00450914)
(0.115129 0.00705001 -0.00774629)
(0.112933 0.00691432 -0.0117473)
(0.11003 0.00733104 -0.0167832)
(0.105815 0.00819192 -0.0232878)
(0.100441 0.00933006 -0.0319071)
(0.0915252 0.0106401 -0.0436478)
(0.0804243 0.0113491 -0.0589171)
(0.0572154 0.0106663 -0.0765788)
(0.0309245 0.00415808 -0.0722745)
(0.101101 0.00509994 0.000983931)
(0.104995 0.00980591 0.0019521)
(0.110075 0.0117632 0.00216258)
(0.114079 0.011788 0.00160132)
(0.116918 0.0108583 0.000293511)
(0.11843 0.00972457 -0.00165312)
(0.118799 0.00889845 -0.00417988)
(0.118217 0.00861433 -0.00731047)
(0.116693 0.00895832 -0.0111718)
(0.114326 0.00992849 -0.0160315)
(0.110533 0.0115063 -0.0223083)
(0.105471 0.01361 -0.0306747)
(0.0966156 0.016178 -0.0421222)
(0.0852348 0.0183604 -0.0572956)
(0.0606887 0.0186073 -0.0751032)
(0.031908 0.00975451 -0.0721098)
(0.100622 0.00337483 0.00101072)
(0.103686 0.00696087 0.00202243)
(0.108212 0.00892311 0.00227881)
(0.112334 0.00962336 0.00176491)
(0.115706 0.00956281 0.000515872)
(0.117954 0.00927031 -0.00134983)
(0.119108 0.00916425 -0.00376284)
(0.119277 0.00950521 -0.00673841)
(0.118446 0.0104506 -0.0103896)
(0.116729 0.0121051 -0.0149733)
(0.113547 0.0145692 -0.0208806)
(0.109071 0.0179401 -0.0287998)
(0.10064 0.0223347 -0.0396748)
(0.0894695 0.0270897 -0.0544259)
(0.064084 0.030173 -0.0719696)
(0.0332258 0.0195632 -0.0706265)
(0.100442 0.00216492 0.00104263)
(0.103027 0.00466518 0.00210235)
(0.107126 0.00635201 0.00241369)
(0.111208 0.00734712 0.00196103)
(0.11485 0.00787923 0.00078699)
(0.117583 0.00827057 -0.000977926)
(0.119346 0.00881854 -0.00324988)
(0.120189 0.00975914 -0.00602796)
(0.120097 0.0112764 -0.00939899)
(0.119215 0.0135505 -0.0135892)
(0.117029 0.0167691 -0.0189266)
(0.113802 0.0211988 -0.0260586)
(0.106881 0.0270956 -0.0357658)
(0.097558 0.0340599 -0.049198)
(0.0727576 0.0397248 -0.0649855)
(0.0408934 0.0271099 -0.0655469)
(0.100384 0.00117368 0.0010796)
(0.102779 0.00264145 0.00219239)
(0.106711 0.00390707 0.00256532)
(0.11082 0.00497463 0.00218342)
(0.114667 0.0059085 0.00109518)
(0.117756 0.00684838 -0.000557846)
(0.119985 0.00796562 -0.00267631)
(0.121386 0.00944634 -0.00524049)
(0.121955 0.0114777 -0.00830744)
(0.121865 0.0143118 -0.0120664)
(0.12068 0.0182414 -0.0167778)
(0.118738 0.0238611 -0.0230337)
(0.113474 0.0318197 -0.0314487)
(0.106419 0.0435187 -0.0434276)
(0.0830492 0.0576498 -0.057505)
(0.0536772 0.0620577 -0.0616593)
(0.0876864 0.0173301 0.000360096)
(0.0717111 0.0119256 0.000623679)
(0.0556 0.00764482 0.000499092)
(0.0459985 0.00389459 4.29134e-05)
(0.039726 0.00185166 -0.000705501)
(0.0360648 0.000795526 -0.0016784)
(0.0336785 0.00032989 -0.0028674)
(0.0319671 0.000131201 -0.00430059)
(0.0303637 4.41329e-05 -0.00605588)
(0.0287549 -2.96399e-05 -0.00822416)
(0.0266712 -0.000129934 -0.0109896)
(0.0244705 -0.000351968 -0.0144038)
(0.0210008 -0.000662696 -0.0188736)
(0.0175021 -0.00140847 -0.02335)
(0.0107112 -0.00180323 -0.0275022)
(0.00276328 -0.00365622 -0.0182002)
(0.103907 0.0182437 0.000508771)
(0.103038 0.0184021 0.000937542)
(0.0989293 0.0155107 0.000850217)
(0.0939012 0.0110494 0.000223384)
(0.0890045 0.00739484 -0.000952785)
(0.0849731 0.00478112 -0.00261187)
(0.0815512 0.00320048 -0.0047291)
(0.0784995 0.0023606 -0.00733659)
(0.0753255 0.00199898 -0.0105507)
(0.0718331 0.00188712 -0.0145388)
(0.0673398 0.00187241 -0.0195999)
(0.0619949 0.00175576 -0.0259152)
(0.0540604 0.00148381 -0.0340018)
(0.0445686 0.000447297 -0.0423706)
(0.0283459 -0.000792439 -0.0489596)
(0.0102851 -0.00425712 -0.0316219)
(0.103963 0.0122944 0.000570217)
(0.108217 0.0171778 0.00107036)
(0.110857 0.0169356 0.00101894)
(0.110975 0.013959 0.000380704)
(0.109731 0.0107072 -0.000865753)
(0.107747 0.00797019 -0.00266892)
(0.105298 0.00611999 -0.00501134)
(0.102491 0.00509516 -0.00793062)
(0.0991059 0.00472952 -0.0115495)
(0.0950347 0.00481118 -0.0160572)
(0.089586 0.00516768 -0.0217756)
(0.0827785 0.00556117 -0.0289467)
(0.0726001 0.0058808 -0.0381038)
(0.0598802 0.00532897 -0.0477639)
(0.0383979 0.00378044 -0.0553517)
(0.0140047 -0.00148329 -0.0358505)
(0.102115 0.00791427 0.000602624)
(0.106706 0.0134087 0.00114638)
(0.111481 0.0147686 0.00112422)
(0.114243 0.0135872 0.000504303)
(0.11544 0.0115443 -0.000727509)
(0.115291 0.00954862 -0.00251991)
(0.114102 0.0081307 -0.00485841)
(0.112073 0.00742874 -0.00778419)
(0.10912 0.00742447 -0.0114199)
(0.105221 0.0080109 -0.0159614)
(0.0996988 0.00909398 -0.0217298)
(0.0925355 0.0104885 -0.0290007)
(0.0815261 0.0121066 -0.0383043)
(0.0673942 0.0130087 -0.0482527)
(0.0433022 0.0122203 -0.0561783)
(0.0153207 0.00473029 -0.0364957)
(0.101066 0.00512903 0.000632264)
(0.104742 0.00987965 0.00121672)
(0.109462 0.0118877 0.00123045)
(0.113068 0.011962 0.000643958)
(0.11548 0.0110853 -0.000546524)
(0.116551 0.0100179 -0.00228213)
(0.116436 0.00928484 -0.00454367)
(0.115286 0.00913153 -0.00736908)
(0.113044 0.00965769 -0.0108734)
(0.109732 0.0108691 -0.0152503)
(0.104684 0.0127707 -0.0208051)
(0.097897 0.015264 -0.0278367)
(0.0869708 0.0183237 -0.0368498)
(0.0725654 0.0208578 -0.0466225)
(0.0469925 0.0211187 -0.0544879)
(0.0162533 0.0105842 -0.0354102)
(0.100588 0.00340683 0.000662295)
(0.103437 0.00704175 0.00128989)
(0.107611 0.00906229 0.00134871)
(0.111349 0.00982517 0.000809335)
(0.114316 0.00983473 -0.000323309)
(0.116155 0.00962923 -0.00198068)
(0.116864 0.00964197 -0.00413477)
(0.116511 0.010149 -0.00681511)
(0.115023 0.0113285 -0.0101235)
(0.112436 0.013303 -0.0142452)
(0.108084 0.0162136 -0.0194601)
(0.101994 0.0201565 -0.0260859)
(0.0915657 0.0253304 -0.0345818)
(0.0774653 0.030774 -0.0439551)
(0.0509179 0.0343158 -0.051563)
(0.0178023 0.0213413 -0.0336406)
(0.100409 0.00220115 0.00069646)
(0.102783 0.00475496 0.00137239)
(0.106539 0.00650588 0.00148564)
(0.110254 0.00757297 0.00100649)
(0.113516 0.00818772 -5.29539e-05)
(0.115877 0.00868173 -0.00161411)
(0.117241 0.00936836 -0.00363589)
(0.117627 0.0105025 -0.00613303)
(0.116961 0.0122944 -0.00918442)
(0.115328 0.0149518 -0.0129526)
(0.112127 0.0187161 -0.0176672)
(0.107514 0.0238718 -0.0236363)
(0.0988191 0.0307928 -0.031207)
(0.0869342 0.0387491 -0.0396735)
(0.0608614 0.0453001 -0.0463613)
(0.0265661 0.0296611 -0.0303558)
(0.100351 0.00121389 0.000733955)
(0.102542 0.002739 0.00146245)
(0.10614 0.0040727 0.00163606)
(0.1099 0.00521806 0.00122574)
(0.113395 0.00624223 0.000249491)
(0.116147 0.00729505 -0.00120527)
(0.118028 0.00856412 -0.00308292)
(0.119039 0.0102572 -0.0053809)
(0.119125 0.0125929 -0.00815225)
(0.118414 0.0158621 -0.0115317)
(0.116382 0.0204271 -0.0156945)
(0.113307 0.0269411 -0.0209301)
(0.106527 0.0362248 -0.0274677)
(0.0973771 0.0494339 -0.0349345)
(0.0727273 0.0653756 -0.0407377)
(0.0410068 0.0662653 -0.0277886)
(0.0876624 0.017333 0.000204392)
(0.0715704 0.0119371 0.000337795)
(0.0552687 0.00765582 0.000187735)
(0.0454805 0.00390086 -0.000217405)
(0.0390202 0.00185491 -0.000858573)
(0.035172 0.000798369 -0.00169231)
(0.0325742 0.000334674 -0.00272024)
(0.0306001 0.000138168 -0.00396521)
(0.0286593 5.32444e-05 -0.00549095)
(0.0265884 -1.85452e-05 -0.00735109)
(0.0239274 -0.000114201 -0.00968952)
(0.0208944 -0.000322464 -0.0124682)
(0.016616 -0.000607923 -0.0159905)
(0.0118953 -0.0012776 -0.0191953)
(0.0055906 -0.00176692 -0.0217192)
(-0.000968259 -0.00318353 -0.0142371)
(0.103874 0.0182587 0.000288023)
(0.10284 0.0184394 0.000501478)
(0.0984468 0.0155603 0.000326009)
(0.093091 0.0111006 -0.000270712)
(0.0878335 0.00744629 -0.00130808)
(0.0834198 0.0048381 -0.00274878)
(0.0795719 0.00327302 -0.00458887)
(0.0760116 0.00245746 -0.00686147)
(0.0722024 0.002129 -0.00966502)
(0.0678728 0.00205732 -0.0131117)
(0.0623274 0.00209506 -0.0174271)
(0.0555575 0.00204046 -0.0226428)
(0.0461576 0.00184291 -0.029095)
(0.0347674 0.000886099 -0.0352214)
(0.0190419 -0.000480554 -0.039028)
(0.00297858 -0.00376745 -0.0243922)
(0.103932 0.0123204 0.000328985)
(0.108015 0.0172381 0.000581352)
(0.110358 0.0170246 0.000415296)
(0.110119 0.0140656 -0.000208772)
(0.10847 0.0108279 -0.00131921)
(0.106043 0.00811081 -0.00289212)
(0.103097 0.00629566 -0.00493139)
(0.0997012 0.00532362 -0.00747803)
(0.0955853 0.00503166 -0.0106378)
(0.0905621 0.00520554 -0.0145428)
(0.0839089 0.00567993 -0.0194342)
(0.0754858 0.00620143 -0.0253891)
(0.0635862 0.00666185 -0.0327337)
(0.0486637 0.00618066 -0.0398587)
(0.027519 0.00447201 -0.0442463)
(0.0052675 -0.00111021 -0.0275166)
(0.102087 0.00794297 0.000356075)
(0.10651 0.0134775 0.000638582)
(0.110992 0.0148781 0.000491149)
(0.113401 0.013731 -0.000121107)
(0.114196 0.0117212 -0.00122071)
(0.113604 0.00976687 -0.00278472)
(0.111914 0.00840989 -0.00481984)
(0.109291 0.0077951 -0.00737116)
(0.105602 0.00791207 -0.0105449)
(0.100742 0.00865481 -0.0144802)
(0.0939932 0.009942 -0.0194166)
(0.0851773 0.0115683 -0.0254599)
(0.0723586 0.0134604 -0.0329265)
(0.0558929 0.014527 -0.0402729)
(0.031989 0.0136512 -0.044862)
(0.00609242 0.00534676 -0.0279145)
(0.10104 0.00516029 0.000384853)
(0.104551 0.00995556 0.000702348)
(0.108985 0.0120134 0.000585817)
(0.112252 0.0121367 3.95038e-06)
(0.114277 0.0113114 -0.00105737)
(0.114925 0.0103068 -0.00256948)
(0.114335 0.00966035 -0.00453492)
(0.112621 0.00962813 -0.00699628)
(0.109678 0.010323 -0.0100532)
(0.10545 0.0117569 -0.0138439)
(0.0992161 0.0139567 -0.0185946)
(0.0908214 0.0168035 -0.0244344)
(0.0780833 0.0203066 -0.0316574)
(0.0613181 0.0231558 -0.038862)
(0.0357723 0.0234819 -0.0434066)
(0.00692622 0.011679 -0.026998)
(0.100563 0.00344029 0.000414925)
(0.103251 0.00712365 0.000772616)
(0.107147 0.00920075 0.000697685)
(0.110559 0.0100241 0.000160019)
(0.113161 0.0101006 -0.000847384)
(0.114605 0.00997737 -0.00228799)
(0.114873 0.0101012 -0.00415636)
(0.114001 0.0107626 -0.006488)
(0.111865 0.0121595 -0.0093708)
(0.108431 0.0144294 -0.0129373)
(0.102967 0.0177505 -0.0173921)
(0.0953631 0.0222119 -0.0228856)
(0.0831698 0.0280879 -0.0296763)
(0.0667641 0.0341489 -0.0365651)
(0.0400774 0.0381774 -0.0409496)
(0.00857762 0.023555 -0.025565)
(0.100385 0.00223755 0.000448458)
(0.102603 0.00484346 0.000851857)
(0.106089 0.00665582 0.000827692)
(0.109493 0.00779138 0.000346153)
(0.112414 0.00848472 -0.000593829)
(0.114413 0.00907588 -0.00194688)
(0.11538 0.00989267 -0.00369653)
(0.115306 0.0112077 -0.00586577)
(0.114069 0.0132563 -0.0085233)
(0.111696 0.0162702 -0.0117854)
(0.107516 0.0205415 -0.0158179)
(0.101582 0.0263649 -0.020776)
(0.0912905 0.0342284 -0.02684)
(0.0773629 0.0431111 -0.0330802)
(0.0509622 0.0506124 -0.0369406)
(0.0178997 0.0330316 -0.0232261)
(0.100328 0.00125274 0.000484173)
(0.102366 0.00283254 0.000936847)
(0.105707 0.00423076 0.000968836)
(0.109172 0.00544945 0.000550879)
(0.112349 0.0065593 -0.000312998)
(0.114775 0.00771885 -0.0015692)
(0.116306 0.00913087 -0.00318932)
(0.11692 0.0110235 -0.00518148)
(0.116521 0.0136451 -0.00759258)
(0.115191 0.0173213 -0.0105184)
(0.112337 0.0224811 -0.0140814)
(0.108173 0.0298251 -0.0184345)
(0.100021 0.0403473 -0.0236745)
(0.0892025 0.0549866 -0.0291775)
(0.064112 0.0728722 -0.0325383)
(0.0334726 0.0719901 -0.0213049)
(0.0876442 0.0173355 0.000102451)
(0.0714629 0.0119467 0.000152697)
(0.055011 0.00766542 -2.42813e-06)
(0.0450685 0.0039067 -0.000349769)
(0.0384489 0.00185824 -0.00088067)
(0.0344419 0.000801869 -0.00156687)
(0.0316725 0.000340803 -0.00241301)
(0.0295003 0.000148074 -0.00343334)
(0.0273328 6.84963e-05 -0.00467089)
(0.0249863 5.09428e-06 -0.00614143)
(0.0220532 -7.45069e-05 -0.00792795)
(0.0186922 -0.000246732 -0.00991689)
(0.0142973 -0.000466454 -0.0122496)
(0.00945057 -0.000976928 -0.0139655)
(0.00389939 -0.0013564 -0.0146024)
(-0.00133982 -0.00245098 -0.00860637)
(0.103848 0.0182724 0.000143495)
(0.102687 0.0184725 0.00022014)
(0.0980693 0.0156051 5.74694e-06)
(0.0924445 0.0111481 -0.000531336)
(0.0868815 0.0074949 -0.00141164)
(0.0821411 0.00489252 -0.00261322)
(0.0779363 0.00334214 -0.0041403)
(0.0739697 0.00254995 -0.00601831)
(0.0696921 0.00225494 -0.00831749)
(0.0648005 0.00222763 -0.0110928)
(0.0586511 0.00232965 -0.0144758)
(0.051185 0.00236824 -0.0183724)
(0.0413526 0.00231188 -0.022891)
(0.0296491 0.00157939 -0.0265738)
(0.0151653 0.000391291 -0.0275754)
(0.00141647 -0.00270876 -0.0155965)
(0.103909 0.0123447 0.000169619)
(0.10786 0.0172933 0.000263878)
(0.109969 0.0171063 4.2997e-05)
(0.109437 0.0141642 -0.000528771)
(0.107445 0.0109404 -0.00147906)
(0.10464 0.00824198 -0.00279681)
(0.101275 0.00645843 -0.00449379)
(0.0974019 0.00553407 -0.00660366)
(0.0927352 0.00531012 -0.00920365)
(0.0870548 0.00557275 -0.0123654)
(0.0796806 0.00616787 -0.0162292)
(0.0704331 0.0068405 -0.02073)
(0.0579614 0.00750388 -0.0259466)
(0.0426281 0.00724831 -0.0303344)
(0.0227945 0.00569249 -0.0315332)
(0.00325401 -1.88385e-05 -0.0176473)
(0.102066 0.00797059 0.000191349)
(0.10636 0.013542 0.000305629)
(0.110613 0.0149799 9.56639e-05)
(0.112733 0.0138646 -0.000469252)
(0.113188 0.0118853 -0.00141211)
(0.112217 0.0099682 -0.00272313)
(0.110105 0.00866487 -0.00441683)
(0.107001 0.00812642 -0.00653091)
(0.102756 0.00835001 -0.00914339)
(0.0972333 0.00923159 -0.0123323)
(0.0897501 0.0107034 -0.0162356)
(0.0800954 0.0125499 -0.0208092)
(0.066671 0.0147204 -0.0261151)
(0.0497635 0.0160305 -0.030641)
(0.027139 0.0152767 -0.031888)
(0.00401684 0.00645795 -0.0177228)
(0.10102 0.00519041 0.000217153)
(0.104406 0.0100271 0.000360251)
(0.108617 0.0121303 0.000175685)
(0.111606 0.0122983 -0.000363354)
(0.113306 0.0115194 -0.00127286)
(0.113593 0.0105703 -0.00253897)
(0.112602 0.00999921 -0.00417305)
(0.110432 0.0100711 -0.006211)
(0.106963 0.0109101 -0.00872552)
(0.102108 0.0125325 -0.0117948)
(0.0951769 0.0149829 -0.0155459)
(0.0859864 0.0181261 -0.019954)
(0.0726585 0.0220007 -0.0250618)
(0.055464 0.025144 -0.0294618)
(0.0311168 0.0256125 -0.0306463)
(0.00495793 0.0129815 -0.0168913)
(0.100544 0.00347211 0.000244754)
(0.103111 0.0072002 0.000423102)
(0.10679 0.00932853 0.000274691)
(0.109936 0.0102064 -0.000225675)
(0.112231 0.0103427 -0.0010878)
(0.113338 0.0102913 -0.00229198)
(0.113235 0.0105106 -0.00384305)
(0.111944 0.0113026 -0.00577131)
(0.109324 0.0128802 -0.00814002)
(0.105319 0.0153896 -0.0110237)
(0.099215 0.019034 -0.0145335)
(0.0908853 0.0238857 -0.0186642)
(0.0781398 0.0302633 -0.0234341)
(0.0613456 0.0367315 -0.0275942)
(0.0357546 0.0410266 -0.0286894)
(0.00676972 0.0253138 -0.0157559)
(0.100367 0.00227138 0.000275245)
(0.102467 0.00492487 0.00049418)
(0.105745 0.00679255 0.000390328)
(0.108897 0.00798944 -6.09021e-05)
(0.111529 0.00875219 -0.000864239)
(0.113219 0.00942765 -0.00199324)
(0.113852 0.0103556 -0.00344364)
(0.113405 0.0118219 -0.00523618)
(0.111743 0.0140802 -0.00741954)
(0.108876 0.0173751 -0.0100584)
(0.104141 0.02203 -0.0132376)
(0.0975951 0.0283267 -0.0169663)
(0.0868258 0.0368099 -0.0212208)
(0.0726071 0.0462226 -0.0249748)
(0.0471476 0.0541431 -0.0258826)
(0.0163124 0.0352937 -0.0142962)
(0.100311 0.00128799 0.000307156)
(0.102236 0.00291707 0.000569656)
(0.105377 0.004373 0.000515094)
(0.108603 0.00565682 0.000119516)
(0.111514 0.00684182 -0.000617805)
(0.11366 0.00809365 -0.00166392)
(0.114894 0.00962696 -0.00300457)
(0.115186 0.0116848 -0.00464915)
(0.114426 0.0145358 -0.00662986)
(0.112685 0.018524 -0.0089985)
(0.109373 0.0241146 -0.0118113)
(0.104727 0.0320065 -0.015088)
(0.0961948 0.0432619 -0.0187634)
(0.0852189 0.05857 -0.0220666)
(0.060941 0.0771011 -0.0228611)
(0.0322566 0.0747619 -0.0131857)
(0.08763 0.0173376 4.06383e-05)
(0.0713804 0.0119543 4.38056e-05)
(0.0548111 0.00767292 -9.79527e-05)
(0.0447436 0.00391097 -0.000379701)
(0.0379912 0.00186029 -0.000797975)
(0.0338487 0.000803645 -0.00133513)
(0.0309322 0.000344056 -0.00199684)
(0.0285912 0.000153356 -0.00279238)
(0.0262339 7.63335e-05 -0.00375157)
(0.0236609 1.66539e-05 -0.00487534)
(0.0205108 -5.55344e-05 -0.00621586)
(0.0169024 -0.000209016 -0.00766302)
(0.0124381 -0.000394432 -0.00929406)
(0.00757757 -0.000817783 -0.0103964)
(0.00266928 -0.001138 -0.0105674)
(-0.0015222 -0.00209837 -0.00625389)
(0.103828 0.018284 5.59916e-05)
(0.102569 0.0185 5.60214e-05)
(0.0977758 0.0156425 -0.000155705)
(0.0919346 0.0111881 -0.000606176)
(0.0861197 0.00753622 -0.00131285)
(0.0811048 0.00493864 -0.00226339)
(0.0765981 0.00340012 -0.00346519)
(0.0722897 0.00262673 -0.00493777)
(0.0676251 0.00235858 -0.00673128)
(0.0622802 0.00236665 -0.00887228)
(0.0556622 0.00251931 -0.0114408)
(0.0476882 0.00262992 -0.0143239)
(0.0375957 0.00268054 -0.0175457)
(0.0258351 0.00210688 -0.0199871)
(0.0124622 0.00103873 -0.02018)
(0.000623023 -0.0020403 -0.011333)
(0.10389 0.0123658 7.17559e-05)
(0.107741 0.0173403 7.67925e-05)
(0.109666 0.0171758 -0.000148835)
(0.108899 0.0142487 -0.000634091)
(0.106625 0.0110372 -0.00140183)
(0.103504 0.00835476 -0.00244817)
(0.0997848 0.00659766 -0.00378691)
(0.0955105 0.005713 -0.00544493)
(0.0903878 0.00554574 -0.00747845)
(0.0841757 0.00588234 -0.00992711)
(0.0762393 0.00657792 -0.0128759)
(0.0663859 0.0073759 -0.0162304)
(0.0535559 0.00820686 -0.0199826)
(0.0381171 0.00813282 -0.0229292)
(0.0194911 0.00669326 -0.0231791)
(0.00220812 0.000793402 -0.0128417)
(0.10205 0.00799492 8.82791e-05)
(0.106245 0.013598 0.00010599)
(0.110318 0.0150678 -0.000113939)
(0.112208 0.01398 -0.000595676)
(0.112383 0.0120271 -0.00135869)
(0.111095 0.0101415 -0.00240033)
(0.108627 0.00888319 -0.00373691)
(0.105118 0.00840834 -0.0053989)
(0.100411 0.00872058 -0.00744349)
(0.0943501 0.00971717 -0.00991601)
(0.0862917 0.0113412 -0.0128995)
(0.0760167 0.013368 -0.016316)
(0.0622042 0.015765 -0.0201421)
(0.0451686 0.0172716 -0.0231939)
(0.0237336 0.0166182 -0.0234592)
(0.00293678 0.00735627 -0.0128937)
(0.101005 0.00521709 0.000109631)
(0.104296 0.0100896 0.000149777)
(0.108333 0.0122318 -5.04559e-05)
(0.111099 0.012438 -0.000511477)
(0.112532 0.0116988 -0.00124742)
(0.112517 0.0107966 -0.00225272)
(0.111187 0.0102888 -0.00354148)
(0.108633 0.0104476 -0.00514299)
(0.104725 0.0114063 -0.00711054)
(0.0993609 0.0131844 -0.00949016)
(0.0918811 0.0158407 -0.0123574)
(0.0821002 0.0192252 -0.0156499)
(0.0683905 0.0233991 -0.0193313)
(0.0510699 0.0267802 -0.0222959)
(0.0278458 0.0273703 -0.0225265)
(0.00395621 0.014093 -0.0122814)
(0.10053 0.00350018 0.00013288)
(0.103004 0.007267 0.00020183)
(0.106516 0.00943923 3.09942e-05)
(0.10945 0.0103636 -0.00039838)
(0.111492 0.0105505 -0.00109561)
(0.112317 0.0105598 -0.00205067)
(0.1119 0.0108593 -0.00327272)
(0.110255 0.01176 -0.00478686)
(0.107232 0.0134872 -0.0066392)
(0.102761 0.0161934 -0.00887367)
(0.0961524 0.0201008 -0.0115544)
(0.0872846 0.025266 -0.0146357)
(0.0741813 0.0320391 -0.0180664)
(0.0572825 0.0388274 -0.0208607)
(0.0327263 0.0433306 -0.0210531)
(0.0058828 0.0268158 -0.0114406)
(0.100353 0.00230088 0.00015846)
(0.102364 0.00499533 0.000260915)
(0.105482 0.00691022 0.000126614)
(0.108432 0.00815924 -0.000262574)
(0.110829 0.00898084 -0.00091197)
(0.11226 0.0097274 -0.00180638)
(0.112608 0.0107486 -0.00294802)
(0.111845 0.012341 -0.00435489)
(0.109827 0.014773 -0.00606239)
(0.106554 0.0182989 -0.00810828)
(0.101379 0.0232656 -0.0105391)
(0.0943772 0.0299425 -0.0133237)
(0.0832975 0.0389139 -0.0163884)
(0.0690253 0.0487451 -0.0189137)
(0.0444718 0.0569925 -0.0190449)
(0.0155623 0.0372531 -0.0104336)
(0.100297 0.0013183 0.000184955)
(0.102138 0.0029895 0.000323303)
(0.105125 0.00449444 0.000229427)
(0.108163 0.00583353 -0.000114345)
(0.110856 0.0070821 -0.000710055)
(0.112767 0.00841166 -0.00153767)
(0.113748 0.0100468 -0.00259163)
(0.113765 0.0122424 -0.00388142)
(0.1127 0.0152835 -0.00543026)
(0.110621 0.0195278 -0.0072675)
(0.106946 0.0254678 -0.00942022)
(0.101942 0.0337983 -0.0118692)
(0.093169 0.0456283 -0.0145196)
(0.0822194 0.0614643 -0.0167417)
(0.0587309 0.0804994 -0.0168714)
(0.0317469 0.0772569 -0.00964833)
(0.0876198 0.0173392 8.84129e-06)
(0.0713212 0.0119601 -7.62121e-06)
(0.0546666 0.00767862 -0.000120087)
(0.0445067 0.0039144 -0.000327429)
(0.037656 0.00186218 -0.000628234)
(0.0334142 0.000805641 -0.00101157)
(0.0303939 0.000347736 -0.00148155)
(0.0279403 0.000159635 -0.00204247)
(0.0254674 8.63871e-05 -0.00271117)
(0.0227705 3.25996e-05 -0.00347909)
(0.0195283 -2.90844e-05 -0.00437071)
(0.0158403 -0.000161455 -0.00529225)
(0.0114334 -0.000311015 -0.00627099)
(0.00669206 -0.000664233 -0.00683136)
(0.00216499 -0.000922063 -0.00666675)
(-0.00147449 -0.0018221 -0.00378182)
(0.103813 0.0182931 1.11803e-05)
(0.102484 0.0185213 -1.98756e-05)
(0.0975626 0.0156715 -0.000194993)
(0.091561 0.0112195 -0.000534184)
(0.0855585 0.00756906 -0.00104995)
(0.0803394 0.00497564 -0.00173498)
(0.0756126 0.00344689 -0.00259535)
(0.071064 0.00268911 -0.00364289)
(0.066143 0.00244369 -0.00490781)
(0.0605197 0.00248259 -0.00639605)
(0.05365 0.0026803 -0.00814494)
(0.0454493 0.00285591 -0.0100473)
(0.0353372 0.00300348 -0.0120756)
(0.0237491 0.00256618 -0.0134568)
(0.0111174 0.00161322 -0.0131346)
(0.000423831 -0.00149583 -0.00709725)
(0.103877 0.0123824 2.00444e-05)
(0.107655 0.0173772 -1.20291e-05)
(0.109446 0.0172301 -0.000201816)
(0.108505 0.0143151 -0.000570084)
(0.106021 0.0111136 -0.0011332)
(0.102663 0.00844391 -0.0018898)
(0.0986843 0.00670761 -0.00285082)
(0.0941242 0.0058542 -0.0040338)
(0.0886928 0.00573186 -0.00547353)
(0.0821447 0.00612789 -0.00718517)
(0.0738907 0.00690531 -0.00920831)
(0.0637475 0.00780806 -0.011446)
(0.0508452 0.00878186 -0.0138421)
(0.0355752 0.00886778 -0.015553)
(0.0177944 0.00754649 -0.0152119)
(0.0018993 0.0014715 -0.00809514)
(0.102038 0.00801437 3.16036e-05)
(0.106163 0.0136424 7.04265e-06)
(0.110105 0.0151371 -0.000180198)
(0.111823 0.014071 -0.000546993)
(0.11179 0.0121388 -0.00110739)
(0.110265 0.0102779 -0.00186107)
(0.107536 0.0090542 -0.00282097)
(0.103737 0.00862813 -0.00400747)
(0.0987165 0.00900826 -0.00545626)
(0.0923151 0.010093 -0.00718683)
(0.0839303 0.011834 -0.00923737)
(0.0733575 0.0140007 -0.0115218)
(0.0594576 0.0165749 -0.0139717)
(0.0425862 0.018243 -0.0157521)
(0.0219944 0.0176857 -0.0154035)
(0.00263281 0.00808609 -0.0081097)
(0.100994 0.00523847 4.74883e-05)
(0.104217 0.0101394 3.89266e-05)
(0.108128 0.012312 -0.000134329)
(0.110729 0.0125482 -0.000486099)
(0.111963 0.0118398 -0.00102662)
(0.111723 0.0109738 -0.0017537)
(0.110144 0.0105142 -0.00267887)
(0.107316 0.0107385 -0.00382181)
(0.103111 0.011787 -0.00521563)
(0.0974265 0.013681 -0.00688068)
(0.0896392 0.0164888 -0.00885022)
(0.0795817 0.0200501 -0.0110495)
(0.0657903 0.0244409 -0.0134017)
(0.0486374 0.0279979 -0.0151243)
(0.0262119 0.0286802 -0.0147556)
(0.00371693 0.0149381 -0.00768539)
(0.100519 0.0035226 6.49999e-05)
(0.102928 0.00732002 7.77124e-05)
(0.106318 0.00952662 -7.3936e-05)
(0.109095 0.0104871 -0.000402332)
(0.110949 0.0107133 -0.000914269)
(0.111564 0.010769 -0.0016045)
(0.110916 0.0111289 -0.00248114)
(0.10902 0.0121106 -0.00356103)
(0.105726 0.0139478 -0.0048724)
(0.100965 0.0167962 -0.00643456)
(0.0940787 0.0208896 -0.00827351)
(0.0849686 0.0262711 -0.0103269)
(0.0717984 0.033308 -0.0125102)
(0.0550772 0.0403021 -0.0141223)
(0.0312586 0.0449181 -0.013746)
(0.00572371 0.0278492 -0.00711976)
(0.100343 0.00232426 8.42285e-05)
(0.102291 0.00505093 0.000121866)
(0.105293 0.00700274 -2.75537e-06)
(0.108095 0.00829219 -0.000301462)
(0.110316 0.00915906 -0.000778215)
(0.111553 0.00995968 -0.00142418)
(0.111692 0.0110508 -0.00224268)
(0.110705 0.0127364 -0.00324583)
(0.108448 0.0152943 -0.00445479)
(0.104923 0.0189839 -0.00588557)
(0.0995114 0.0241652 -0.00755385)
(0.092313 0.0310945 -0.0094095)
(0.0811868 0.0403744 -0.0113587)
(0.0671061 0.0504531 -0.0128127)
(0.0432071 0.058854 -0.0124484)
(0.0154786 0.0385188 -0.00650947)
(0.100288 0.0013421 0.000104021)
(0.102068 0.00304627 0.000168333)
(0.104945 0.00458938 7.36833e-05)
(0.107844 0.0059712 -0.000191482)
(0.110375 0.00726852 -0.000628846)
(0.11211 0.00865695 -0.00122616)
(0.112905 0.010368 -0.00198135)
(0.112726 0.0126646 -0.00290083)
(0.111457 0.015842 -0.00399777)
(0.10917 0.0202645 -0.00528352)
(0.105303 0.026439 -0.00676248)
(0.100157 0.0350495 -0.00839548)
(0.0913683 0.0472229 -0.010082)
(0.080634 0.0633435 -0.0113611)
(0.0577248 0.0825824 -0.0110629)
(0.0317775 0.0787731 -0.00606175)
(0.087613 0.0173403 -2.53636e-06)
(0.0712821 0.0119639 -2.06328e-05)
(0.054571 0.00768229 -9.21198e-05)
(0.044349 0.00391652 -0.000219714)
(0.0374315 0.00186315 -0.000401418)
(0.0331214 0.000806489 -0.000632123)
(0.0300295 0.000349429 -0.000914276)
(0.0274984 0.000162635 -0.00125013)
(0.0249466 9.12107e-05 -0.00164886)
(0.0221666 4.02148e-05 -0.00210329)
(0.0188636 -1.63505e-05 -0.00262562)
(0.0151278 -0.000137944 -0.00315773)
(0.0107631 -0.000269009 -0.0037104)
(0.00611496 -0.000586245 -0.00401315)
(0.00184368 -0.000816044 -0.00387608)
(-0.0014521 -0.00168872 -0.00220825)
(0.103804 0.0182993 -5.00679e-06)
(0.102428 0.0185358 -3.59581e-05)
(0.0974214 0.0156912 -0.000150688)
(0.0913123 0.0112409 -0.000361841)
(0.0851827 0.00759142 -0.000676437)
(0.0798241 0.00500079 -0.00109111)
(0.0749467 0.00347854 -0.00160992)
(0.0702341 0.00273118 -0.00223985)
(0.0651395 0.0025009 -0.00299792)
(0.059331 0.00256024 -0.0038846)
(0.0522982 0.00278758 -0.00491781)
(0.0439605 0.00300535 -0.00602814)
(0.0338536 0.00321478 -0.00718873)
(0.0224141 0.00286029 -0.00794892)
(0.0102863 0.00197095 -0.00767409)
(0.000315052 -0.0011776 -0.00414107)
(0.103868 0.0123938 -4.25435e-07)
(0.107598 0.0174025 -3.40058e-05)
(0.1093 0.0172674 -0.000159694)
(0.108242 0.0143607 -0.000389833)
(0.105616 0.0111662 -0.000734425)
(0.102097 0.0085053 -0.00119331)
(0.0979405 0.00678324 -0.00177372)
(0.093185 0.00595118 -0.00248619)
(0.0875443 0.0058595 -0.00335065)
(0.0807717 0.00629607 -0.00437312)
(0.0723105 0.00712914 -0.00557259)
(0.0619892 0.0081027 -0.00688489)
(0.0490602 0.009172 -0.00826478)
(0.0339422 0.00936164 -0.00921584)
(0.0167404 0.00811193 -0.00891505)
(0.00172378 0.0018994 -0.00472887)
(0.10203 0.00802788 6.32778e-06)
(0.106108 0.0136731 -2.31974e-05)
(0.109964 0.015185 -0.000148027)
(0.111567 0.0141338 -0.000377666)
(0.111393 0.012216 -0.000720916)
(0.109707 0.010372 -0.00117821)
(0.106798 0.00917206 -0.00175813)
(0.102802 0.0087793 -0.00247295)
(0.097568 0.0092057 -0.00334329)
(0.0909382 0.0103504 -0.00437787)
(0.0823394 0.0121706 -0.005595)
(0.0715821 0.0144317 -0.00693692)
(0.0576447 0.0171244 -0.00835107)
(0.0409225 0.0188987 -0.00934456)
(0.0209104 0.0184009 -0.00903742)
(0.00246035 0.00856576 -0.00474096)
(0.100987 0.00525339 1.61114e-05)
(0.104165 0.0101739 -3.86423e-06)
(0.107992 0.0123676 -0.000120364)
(0.110484 0.0126244 -0.000340889)
(0.111582 0.0119373 -0.000672007)
(0.111189 0.0110962 -0.00111305)
(0.109439 0.0106695 -0.00167185)
(0.106423 0.0109387 -0.00236033)
(0.102017 0.0120483 -0.00319763)
(0.096117 0.014021 -0.00419313)
(0.0881276 0.0169313 -0.00536249)
(0.0778984 0.0206117 -0.00665476)
(0.0640715 0.0251472 -0.0080133)
(0.0470679 0.0288212 -0.00897534)
(0.0251923 0.029562 -0.00866123)
(0.00358333 0.0155067 -0.00449829)
(0.100513 0.00353825 2.69731e-05)
(0.102878 0.00735686 2.0041e-05)
(0.106188 0.00958717 -8.32129e-05)
(0.10886 0.0105726 -0.000289412)
(0.110587 0.0108258 -0.00060299)
(0.111058 0.0109133 -0.00102149)
(0.110252 0.0113145 -0.00155076)
(0.108183 0.0123515 -0.00220102)
(0.104705 0.0142635 -0.00298859)
(0.0997486 0.0172082 -0.00392227)
(0.0926802 0.0214267 -0.00501374)
(0.0834201 0.026953 -0.00621938)
(0.0702229 0.034164 -0.00747924)
(0.0536551 0.0412939 -0.00837767)
(0.0303446 0.0459806 -0.00806494)
(0.00564085 0.028548 -0.00416643)
(0.100336 0.00234052 3.88944e-05)
(0.102243 0.00508948 4.73038e-05)