/*--------------------------------*- C++ -*----------------------------------*\
| =========                 |                                                 |
| \\      /  F ield         | OpenFOAM: The Open Source CFD Toolbox           |
|  \\    /   O peration     | Version:  v1912                                 |
|   \\  /    A nd           | Website:  www.openfoam.com                      |
|    \\/     M anipulation  |                                                 |
\*---------------------------------------------------------------------------*/
FoamFile
{
    version     2.0;
    format      ascii;
    class       surfaceScalarField;
    location    "0.36/fluid";
    object      meshPhi;
}
// * * * * * * * * * * * * * * * * * * * * * * * * * * * * * * * * * * * * * //

dimensions      [0 3 -1 0 0 0 0];
oriented        oriented;


internalField   nonuniform List<scalar> 
41600
(
2.19008e-13
-6.0388e-13
2.23701e-13
-2.30928e-13
4.16946e-13
-1.75957e-12
6.58964e-13
-6.80575e-13
6.00593e-13
-2.83352e-12
1.08472e-12
-1.12127e-12
7.75949e-13
-3.86477e-12
1.52871e-12
-1.58212e-12
9.48536e-13
-4.88005e-12
2.01567e-12
-2.0892e-12
1.12388e-12
-5.8923e-12
2.56821e-12
-2.66676e-12
1.30825e-12
-6.89817e-12
3.20735e-12
-3.33784e-12
1.51006e-12
-7.87274e-12
3.9526e-12
-4.12472e-12
1.74277e-12
-8.75893e-12
4.8214e-12
-5.04892e-12
2.03151e-12
-9.44829e-12
5.82816e-12
-6.13179e-12
2.42811e-12
-9.74444e-12
6.98321e-12
-7.39676e-12
3.04615e-12
-9.28847e-12
8.2948e-12
-8.88e-12
4.12857e-12
-7.40564e-12
9.78148e-12
-1.06657e-11
6.13257e-12
-2.8469e-12
1.14958e-11
-1.29678e-11
9.33951e-12
5.79186e-12
1.34375e-11
-1.60421e-11
2.10062e-11
1.70215e-11
-2.49147e-11
6.52987e-13
-1.18977e-12
6.65391e-13
-6.86948e-13
1.24311e-12
-3.46757e-12
1.96001e-12
-2.02443e-12
1.79053e-12
-5.58636e-12
3.22606e-12
-3.33492e-12
2.31303e-12
-7.6238e-12
4.54567e-12
-4.70453e-12
2.82704e-12
-9.63453e-12
5.99206e-12
-6.21056e-12
3.34895e-12
-1.16481e-11
7.63238e-12
-7.92492e-12
3.89696e-12
-1.36646e-11
9.52912e-12
-9.91612e-12
4.49443e-12
-1.56456e-11
1.17401e-11
-1.22499e-11
5.17666e-12
-1.7498e-11
1.43165e-11
-1.49891e-11
6.00542e-12
-1.90467e-11
1.72985e-11
-1.81928e-11
7.10089e-12
-1.99917e-11
2.07074e-11
-2.19163e-11
8.71174e-12
-1.98459e-11
2.45393e-11
-2.62236e-11
1.13309e-11
-1.78816e-11
2.87671e-11
-3.12338e-11
1.57796e-11
-1.32354e-11
3.33451e-11
-3.7215e-11
2.22714e-11
-5.907e-12
3.80123e-11
-4.42682e-11
2.58192e-12
4.18255e-11
-5.38818e-11
1.07502e-12
-1.73978e-12
1.09043e-12
-1.12585e-12
2.04644e-12
-5.07226e-12
3.21173e-12
-3.31751e-12
2.94725e-12
-8.17678e-12
5.28519e-12
-5.4637e-12
3.80656e-12
-1.11697e-11
7.44439e-12
-7.70443e-12
4.65143e-12
-1.41358e-11
9.80838e-12
-1.01655e-11
5.50865e-12
-1.7127e-11
1.24868e-11
-1.29643e-11
6.40716e-12
-2.01572e-11
1.55821e-11
-1.62129e-11
7.38174e-12
-2.31928e-11
1.91894e-11
-2.00187e-11
8.47954e-12
-2.6136e-11
2.33925e-11
-2.44832e-11
9.77253e-12
-2.87986e-11
2.82546e-11
-2.96964e-11
1.13838e-11
-3.08668e-11
3.37987e-11
-3.57266e-11
1.35407e-11
-3.18693e-11
3.99791e-11
-4.26095e-11
1.66412e-11
-3.12027e-11
4.66412e-11
-5.03442e-11
2.12374e-11
-2.83696e-11
5.34596e-11
-5.88816e-11
2.71255e-11
-2.37974e-11
5.97436e-11
-6.76796e-11
-1.86891e-11
6.47825e-11
-7.87962e-11
1.47741e-12
-2.23566e-12
1.48871e-12
-1.53711e-12
2.81214e-12
-6.52061e-12
4.38412e-12
-4.52856e-12
4.0492e-12
-1.052e-11
7.21186e-12
-7.45526e-12
5.22838e-12
-1.43884e-11
1.01524e-11
-1.05064e-11
6.38695e-12
-1.8243e-11
1.33667e-11
-1.38521e-11
7.5618e-12
-2.21633e-11
1.70033e-11
-1.76515e-11
8.79198e-12
-2.61881e-11
2.12022e-11
-2.20569e-11
1.01218e-11
-3.03074e-11
2.60944e-11
-2.72156e-11
1.16044e-11
-3.44489e-11
3.17974e-11
-3.32669e-11
1.33067e-11
-3.84572e-11
3.84011e-11
-4.03328e-11
1.53178e-11
-4.20643e-11
4.59399e-11
-4.84969e-11
1.77652e-11
-4.48594e-11
5.43429e-11
-5.77698e-11
2.08211e-11
-4.62908e-11
6.3354e-11
-6.80333e-11
2.46682e-11
-4.57975e-11
7.24096e-11
-7.89498e-11
2.89929e-11
-4.33672e-11
8.04246e-11
-8.94883e-11
-3.94003e-11
8.61932e-11
-1.01113e-10
1.85276e-12
-2.65968e-12
1.85132e-12
-1.91144e-12
3.52589e-12
-7.76065e-12
5.45053e-12
-5.62982e-12
5.07526e-12
-1.25318e-11
8.96118e-12
-9.26292e-12
6.55046e-12
-1.71645e-11
1.26046e-11
-1.30429e-11
7.99832e-12
-2.18086e-11
1.6578e-11
-1.71781e-11
9.46561e-12
-2.6575e-11
2.10642e-11
-2.18641e-11
1.10018e-11
-3.15351e-11
2.6236e-11
-2.72889e-11
1.2662e-11
-3.67168e-11
3.2258e-11
-3.36358e-11
1.45081e-11
-4.20972e-11
3.92818e-11
-4.10822e-11
1.66078e-11
-4.75898e-11
4.74324e-11
-4.97884e-11
1.90292e-11
-5.30205e-11
5.67775e-11
-5.98744e-11
2.18245e-11
-5.80857e-11
6.72689e-11
-7.1373e-11
2.49817e-11
-6.22792e-11
7.86328e-11
-8.41381e-11
2.83537e-11
-6.47961e-11
9.01658e-11
-9.76668e-11
3.14306e-11
-6.47299e-11
1.00369e-10
-1.10456e-10
-6.11263e-11
1.07421e-10
-1.23282e-10
2.19432e-12
-2.99502e-12
2.17101e-12
-2.2413e-12
4.17458e-12
-8.74318e-12
6.38933e-12
-6.59882e-12
6.00589e-12
-1.4132e-11
1.04967e-11
-1.08489e-11
7.74635e-12
-1.93861e-11
1.47479e-11
-1.52587e-11
9.45129e-12
-2.46857e-11
1.93695e-11
-2.00679e-11
1.11767e-11
-3.01733e-11
2.45715e-11
-2.55008e-11
1.2983e-11
-3.59556e-11
3.05536e-11
-3.1774e-11
1.49384e-11
-4.21049e-11
3.75079e-11
-3.9101e-11
1.7122e-11
-4.86601e-11
4.56177e-11
-4.76935e-11
1.96232e-11
-5.56256e-11
5.50478e-11
-5.77552e-11
2.25388e-11
-6.29643e-11
6.59206e-11
-6.94659e-11
2.59537e-11
-7.0572e-11
7.82683e-11
-8.29459e-11
2.9876e-11
-7.81952e-11
9.19244e-11
-9.8169e-11
3.41019e-11
-8.5201e-11
1.06265e-10
-1.14734e-10
3.78134e-11
-9.01873e-11
1.19566e-10
-1.30895e-10
-8.89e-11
1.29396e-10
-1.46842e-10
2.49627e-12
-3.22672e-12
2.44252e-12
-2.52124e-12
4.74691e-12
-9.42431e-12
7.18491e-12
-7.41941e-12
6.82421e-12
-1.52486e-11
1.17922e-11
-1.21861e-11
8.79283e-12
-2.09511e-11
1.65442e-11
-1.71148e-11
1.07147e-11
-2.67377e-11
2.16888e-11
-2.24675e-11
1.26536e-11
-3.27781e-11
2.74547e-11
-2.84883e-11
1.46792e-11
-3.92107e-11
3.40589e-11
-3.54126e-11
1.68734e-11
-4.61485e-11
4.17118e-11
-4.34736e-11
1.93366e-11
-5.36879e-11
5.06188e-11
-5.2907e-11
2.21959e-11
-6.19196e-11
6.09768e-11
-6.3952e-11
2.56183e-11
-7.09455e-11
7.2964e-11
-7.68503e-11
2.98263e-11
-8.09025e-11
8.67174e-11
-9.18418e-11
3.50943e-11
-9.19805e-11
1.02268e-10
-1.09131e-10
4.16571e-11
-1.04359e-10
1.19315e-10
-1.28723e-10
4.87996e-11
-1.17429e-10
1.36323e-10
-1.4914e-10
-1.30726e-10
1.50578e-10
-1.71716e-10
2.75414e-12
2.66284e-12
-2.74819e-12
-3.3426e-12
5.2344e-12
7.82862e-12
-8.08274e-12
-9.76834e-12
7.51764e-12
1.28337e-11
-1.32602e-11
-1.5823e-11
9.6725e-12
1.79741e-11
-1.85908e-11
-2.17759e-11
1.17649e-11
2.35095e-11
-2.43492e-11
-2.78511e-11
1.38627e-11
2.96776e-11
-3.0789e-11
-3.42375e-11
1.60414e-11
3.6702e-11
-3.81524e-11
-4.10961e-11
1.83914e-11
4.47976e-11
-4.66777e-11
-4.85684e-11
2.10273e-11
5.41746e-11
-5.6606e-11
-5.67872e-11
2.41039e-11
6.50386e-11
-6.8186e-11
-6.58924e-11
2.78432e-11
7.75891e-11
-8.16839e-11
-7.60548e-11
3.25792e-11
9.20167e-11
-9.74016e-11
-8.7515e-11
3.88126e-11
1.08479e-10
-1.15692e-10
-1.00635e-10
4.71954e-11
1.26952e-10
-1.36903e-10
-1.15914e-10
5.71486e-11
1.46143e-10
-1.59896e-10
-1.32881e-10
1.65009e-10
-1.90392e-10
-1.57257e-10
2.1624e-13
-6.15422e-13
2.08262e-13
4.11016e-13
-1.79327e-12
6.13279e-13
5.9041e-13
-2.88812e-12
1.00881e-12
7.59593e-13
-3.94018e-12
1.42017e-12
9.22939e-13
-4.97757e-12
1.86972e-12
1.08423e-12
-6.01485e-12
2.37747e-12
1.24699e-12
-7.05096e-12
2.96137e-12
1.41517e-12
-8.06507e-12
3.63692e-12
1.59463e-12
-9.00821e-12
4.41571e-12
1.7971e-12
-9.78879e-12
5.30224e-12
2.04979e-12
-1.02471e-11
6.28767e-12
2.41603e-12
-1.0108e-11
7.33835e-12
3.02909e-12
-8.89346e-12
8.37401e-12
4.10632e-12
-5.81768e-12
9.2204e-12
5.68407e-12
-1.83704e-13
9.54726e-12
7.59593e-12
8.4514e-12
6.44944e-13
-1.21228e-12
6.19452e-13
1.2259e-12
-3.53327e-12
1.82405e-12
1.76101e-12
-5.6928e-12
3.00017e-12
2.26568e-12
-7.77101e-12
4.22284e-12
2.75306e-12
-9.82496e-12
5.55822e-12
3.23452e-12
-1.1887e-11
7.06574e-12
3.72047e-12
-1.39611e-11
8.7988e-12
4.22163e-12
-1.60156e-11
1.08036e-11
4.75214e-12
-1.79707e-11
1.31147e-11
5.33728e-12
-1.96781e-11
1.57449e-11
6.03254e-12
-2.08936e-11
1.86658e-11
6.96353e-12
-2.12479e-11
2.17713e-11
8.38129e-12
-2.02524e-11
2.48124e-11
1.06518e-11
-1.74767e-11
2.72783e-11
1.37052e-11
-1.32696e-11
2.8326e-11
-1.03589e-11
2.55998e-11
1.06249e-12
-1.77234e-12
1.01513e-12
2.01964e-12
-5.1673e-12
2.98888e-12
2.90138e-12
-8.33085e-12
4.91506e-12
3.73316e-12
-1.13828e-11
6.91577e-12
4.53697e-12
-1.44112e-11
9.09859e-12
5.33205e-12
-1.74712e-11
1.15606e-11
6.13561e-12
-2.05813e-11
1.43895e-11
6.96364e-12
-2.37154e-11
1.76619e-11
7.83228e-12
-2.67896e-11
2.14362e-11
8.76164e-12
-2.96438e-11
2.57356e-11
9.7871e-12
-3.2021e-11
3.0516e-11
1.09825e-11
-3.35646e-11
3.56082e-11
1.24838e-11
-3.38889e-11
4.06183e-11
1.44505e-11
-3.28497e-11
4.47835e-11
1.66794e-11
-3.10839e-11
4.6986e-11
-3.04855e-11
4.51975e-11
1.46166e-12
-2.2771e-12
1.38595e-12
2.77844e-12
-6.64157e-12
4.08008e-12
3.99156e-12
-1.07161e-11
6.70712e-12
5.13631e-12
-1.46595e-11
9.43212e-12
6.24369e-12
-1.85925e-11
1.24004e-11
7.34145e-12
-2.25981e-11
1.57437e-11
8.45458e-12
-2.67191e-11
1.95822e-11
9.60497e-12
-3.09516e-11
2.40226e-11
1.08093e-11
-3.52342e-11
2.91489e-11
1.20746e-11
-3.94327e-11
3.5002e-11
1.33917e-11
-4.33226e-11
4.1539e-11
1.47231e-11
-4.65806e-11
4.85602e-11
1.59803e-11
-4.88235e-11
5.55878e-11
1.70057e-11
-4.97786e-11
6.16997e-11
1.75931e-11
-4.96634e-11
6.55443e-11
-4.9863e-11
6.48921e-11
1.83532e-12
-2.70858e-12
1.72369e-12
3.48855e-12
-7.90341e-12
5.07302e-12
5.01135e-12
-1.27632e-11
8.33486e-12
6.44842e-12
-1.7484e-11
1.17116e-11
7.8399e-12
-2.22194e-11
1.53814e-11
9.22286e-12
-2.70835e-11
1.95063e-11
1.06321e-11
-3.21503e-11
2.42354e-11
1.20991e-11
-3.74511e-11
2.97034e-11
1.36484e-11
-4.2968e-11
3.60215e-11
1.52863e-11
-4.86243e-11
4.32564e-11
1.69799e-11
-5.42667e-11
5.13867e-11
1.86114e-11
-5.96349e-11
6.02232e-11
1.98986e-11
-6.43148e-11
6.92666e-11
2.03444e-11
-6.76898e-11
7.74931e-11
1.95484e-11
-6.9106e-11
8.32709e-11
-6.92442e-11
8.39772e-11
2.1768e-12
-3.04976e-12
2.02162e-12
4.13693e-12
-8.90294e-12
5.94763e-12
5.9413e-12
-1.43908e-11
9.7644e-12
7.64314e-12
-1.97429e-11
1.3705e-11
9.29132e-12
-2.51435e-11
1.7974e-11
1.09326e-11
-3.07372e-11
2.2758e-11
1.26133e-11
-3.66321e-11
2.82292e-11
1.438e-11
-4.29004e-11
3.45455e-11
1.62767e-11
-4.95795e-11
4.18434e-11
1.83362e-11
-5.66711e-11
5.02186e-11
2.05597e-11
-6.41337e-11
5.96868e-11
2.28655e-11
-7.18569e-11
7.01042e-11
2.49812e-11
-7.95812e-11
8.10144e-11
2.62989e-11
-8.66873e-11
9.13751e-11
2.6017e-11
-9.18936e-11
9.9301e-11
-9.25615e-11
1.01793e-10
2.48012e-12
-3.28545e-12
2.27483e-12
4.71197e-12
-9.59568e-12
6.68934e-12
6.76392e-12
-1.55261e-11
1.09714e-11
8.6962e-12
-2.13333e-11
1.53769e-11
1.0565e-11
-2.72271e-11
2.01299e-11
1.24258e-11
-3.33788e-11
2.54335e-11
1.43366e-11
-3.99266e-11
3.14752e-11
1.63606e-11
-4.69805e-11
3.84281e-11
1.8569e-11
-5.46298e-11
4.64455e-11
2.10414e-11
-6.29521e-11
5.56462e-11
2.38638e-11
-7.2025e-11
6.60807e-11
2.71117e-11
-8.19386e-11
7.76613e-11
3.07972e-11
-9.27926e-11
9.00098e-11
3.47292e-11
-1.04592e-10
1.02133e-10
3.81131e-11
-1.16598e-10
1.11939e-10
-1.2734e-10
1.15726e-10
2.7405e-12
2.4805e-12
-3.40326e-12
5.20454e-12
7.29004e-12
-9.94537e-12
7.46553e-12
1.19428e-11
-1.61095e-11
9.58836e-12
1.67092e-11
-2.21706e-11
1.16341e-11
2.18244e-11
-2.8356e-11
1.36642e-11
2.74996e-11
-3.48559e-11
1.57446e-11
3.3928e-11
-4.18302e-11
1.79514e-11
4.12863e-11
-4.94151e-11
2.03771e-11
4.97311e-11
-5.77328e-11
2.31407e-11
5.93862e-11
-6.69037e-11
2.6403e-11
7.03139e-11
-7.70633e-11
3.03852e-11
8.24546e-11
-8.8385e-11
3.53822e-11
9.54871e-11
-1.01102e-10
4.16903e-11
1.08508e-10
-1.15453e-10
4.8684e-11
1.19375e-10
-1.30731e-10
1.23283e-10
-1.49062e-10
2.12585e-13
-6.25214e-13
1.85403e-13
4.03306e-13
-1.82191e-12
5.45797e-13
5.77389e-13
-2.93457e-12
8.97235e-13
7.38967e-13
-4.00437e-12
1.26184e-12
8.91004e-13
-5.06055e-12
1.65882e-12
1.03518e-12
-6.11939e-12
2.10497e-12
1.17173e-12
-7.18268e-12
2.61465e-12
1.29921e-12
-8.23498e-12
3.19911e-12
1.41432e-12
-9.23833e-12
3.86445e-12
1.51237e-12
-1.01243e-11
4.60738e-12
1.58959e-12
-1.07827e-11
5.40708e-12
1.6469e-12
-1.10474e-11
6.21079e-12
1.68804e-12
-1.06813e-11
6.90961e-12
1.68754e-12
-9.39672e-12
7.30543e-12
1.51755e-12
-7.12307e-12
7.13951e-12
-4.20059e-12
6.48095e-12
6.3429e-13
-1.23136e-12
5.51474e-13
1.20343e-12
-3.589e-12
1.62338e-12
1.7231e-12
-5.78313e-12
2.66842e-12
2.20573e-12
-7.89568e-12
3.75214e-12
2.66037e-12
-9.98581e-12
4.93142e-12
3.0924e-12
-1.20887e-11
6.2561e-12
3.50286e-12
-1.42128e-11
7.76901e-12
3.88737e-12
-1.63354e-11
9.50395e-12
4.23469e-12
-1.8394e-11
1.14796e-11
4.52598e-12
-2.02761e-11
1.36871e-11
4.73729e-12
-2.18104e-11
1.60668e-11
4.84443e-12
-2.27725e-11
1.84679e-11
4.81804e-12
-2.29419e-11
2.05864e-11
4.57404e-12
-2.22852e-11
2.18972e-11
3.91442e-12
-2.12992e-11
2.17882e-11
-2.16699e-11
2.00306e-11
1.04575e-12
-1.79986e-12
9.0378e-13
1.98437e-12
-5.24766e-12
2.66023e-12
2.84193e-12
-8.46088e-12
4.37186e-12
3.63933e-12
-1.15619e-11
6.1453e-12
4.39227e-12
-1.46412e-11
8.07306e-12
5.11084e-12
-1.77571e-11
1.02366e-11
5.79822e-12
-2.0933e-11
1.27066e-11
6.44804e-12
-2.41516e-11
1.55397e-11
7.03981e-12
-2.73469e-11
1.87691e-11
7.53262e-12
-3.03943e-11
2.23853e-11
7.8584e-12
-3.31076e-11
2.63017e-11
7.91368e-12
-3.52633e-11
3.02978e-11
7.54806e-12
-3.66997e-11
3.39406e-11
6.56637e-12
-3.75489e-11
3.65284e-11
4.92284e-12
-3.84288e-11
3.73259e-11
-4.03864e-11
3.65648e-11
1.44024e-12
-2.31199e-12
1.23407e-12
2.73334e-12
-6.74333e-12
3.63185e-12
3.91566e-12
-1.08804e-11
5.96652e-12
5.01677e-12
-1.48852e-11
8.38216e-12
6.0599e-12
-1.88806e-11
1.10038e-11
7.0616e-12
-2.29524e-11
1.39421e-11
8.02988e-12
-2.71468e-11
1.72943e-11
8.96005e-12
-3.14659e-11
2.11399e-11
9.82626e-12
-3.58607e-11
2.55294e-11
1.05671e-11
-4.02221e-11
3.04613e-11
1.10625e-11
-4.43761e-11
3.58408e-11
1.10987e-11
-4.8096e-11
4.14148e-11
1.03314e-11
-5.11675e-11
4.66895e-11
8.34397e-12
-5.35488e-11
5.08833e-11
5.20846e-12
-5.55223e-11
5.31615e-11
-5.79381e-11
5.37057e-11
1.81095e-12
-2.74954e-12
1.53502e-12
3.43724e-12
-8.02274e-12
4.51636e-12
4.9251e-12
-1.29555e-11
7.41555e-12
6.31288e-12
-1.77472e-11
1.04093e-11
7.63222e-12
-2.25532e-11
1.36508e-11
8.90808e-12
-2.74891e-11
1.72765e-11
1.01571e-11
-3.26299e-11
2.14072e-11
1.1383e-11
-3.80079e-11
2.61438e-11
1.25661e-11
-4.36082e-11
3.15559e-11
1.36433e-11
-4.93617e-11
3.76565e-11
1.44715e-11
-5.51332e-11
4.43588e-11
1.47608e-11
-6.0704e-11
5.14053e-11
1.39892e-11
-6.57497e-11
5.82776e-11
1.14369e-11
-6.98291e-11
6.41341e-11
7.01861e-12
-7.24869e-11
6.79864e-11
-7.42645e-11
6.98589e-11
2.15128e-12
-3.09533e-12
1.80064e-12
4.08321e-12
-9.03562e-12
5.29585e-12
5.85104e-12
-1.46043e-11
8.68878e-12
7.50157e-12
-2.00339e-11
1.21828e-11
9.07514e-12
-2.55102e-11
1.59542e-11
1.06066e-11
-3.11779e-11
2.01599e-11
1.21246e-11
-3.71427e-11
2.49396e-11
1.36487e-11
-4.34724e-11
3.0412e-11
1.51809e-11
-5.01967e-11
3.66635e-11
1.66877e-11
-5.73048e-11
4.37239e-11
1.8064e-11
-6.47359e-11
5.15212e-11
1.90569e-11
-7.23514e-11
5.9807e-11
1.91446e-11
-7.98588e-11
6.80499e-11
1.74623e-11
-8.66418e-11
7.53349e-11
1.34885e-11
-9.15675e-11
8.04807e-11
-9.23587e-11
8.34584e-11
2.45514e-12
-3.33405e-12
2.02653e-12
4.65933e-12
-9.73709e-12
5.95734e-12
6.67547e-12
-1.57533e-11
9.76451e-12
8.55765e-12
-2.16421e-11
1.36715e-11
1.03541e-11
-2.76143e-11
1.78713e-11
1.21094e-11
-3.38396e-11
2.25348e-11
1.38654e-11
-4.04514e-11
2.78143e-11
1.56613e-11
-4.75503e-11
3.38396e-11
1.75305e-11
-5.52086e-11
4.07077e-11
1.9493e-11
-6.34747e-11
4.84596e-11
2.15357e-11
-7.23745e-11
5.70345e-11
2.35663e-11
-8.19052e-11
6.61898e-11
2.53268e-11
-9.20009e-11
7.53707e-11
2.62805e-11
-1.02401e-10
8.35424e-11
2.57617e-11
-1.12174e-10
8.92262e-11
-1.19844e-10
9.21346e-11
2.71744e-12
2.21018e-12
-3.45321e-12
5.15586e-12
6.49356e-12
-1.00907e-11
7.38364e-12
1.06311e-11
-1.63428e-11
9.46014e-12
1.48592e-11
-2.24871e-11
1.14394e-11
1.93802e-11
-2.87515e-11
1.33734e-11
2.43723e-11
-3.53235e-11
1.53146e-11
2.99921e-11
-4.23564e-11
1.73184e-11
3.63721e-11
-4.99738e-11
1.94461e-11
4.361e-11
-5.82754e-11
2.17664e-11
5.17465e-11
-6.7343e-11
2.43543e-11
6.072e-11
-7.72445e-11
2.72806e-11
7.02839e-11
-8.80326e-11
3.05809e-11
7.98637e-11
-9.9725e-11
3.41728e-11
8.83476e-11
-1.12203e-10
3.74645e-11
9.40369e-11
-1.24496e-10
9.54368e-11
-1.37671e-10
2.08499e-13
-6.33146e-13
1.56114e-13
3.94748e-13
-1.84508e-12
4.59449e-13
5.6307e-13
-2.97212e-12
7.54872e-13
7.16524e-13
-4.05622e-12
1.06068e-12
8.56619e-13
-5.12757e-12
1.39249e-12
9.82961e-13
-6.20387e-12
1.76358e-12
1.09267e-12
-7.2895e-12
2.18475e-12
1.17944e-12
-8.37405e-12
2.6636e-12
1.23222e-12
-9.42958e-12
3.20252e-12
1.23354e-12
-1.04076e-11
3.79483e-12
1.15811e-12
-1.12372e-11
4.41835e-12
9.70402e-13
-1.18271e-11
5.02619e-12
6.16778e-13
-1.20743e-11
5.53719e-12
1.24812e-14
-1.18831e-11
5.83825e-12
-8.79521e-13
-1.12293e-11
5.83992e-12
-9.66418e-12
5.91824e-12
6.22364e-13
-1.24683e-12
4.64383e-13
1.17847e-12
-3.63418e-12
1.36665e-12
1.68136e-12
-5.85621e-12
2.2452e-12
2.14035e-12
-7.99627e-12
3.15418e-12
2.56034e-12
-1.01151e-11
4.13987e-12
2.94074e-12
-1.22501e-11
5.24166e-12
3.27375e-12
-1.4414e-11
6.49192e-12
3.54143e-12
-1.6592e-11
7.91362e-12
3.71119e-12
-1.87371e-11
9.51449e-12
3.73035e-12
-2.07671e-11
1.1276e-11
3.52115e-12
-2.25668e-11
1.31352e-11
2.97627e-12
-2.40091e-11
1.496e-11
1.95725e-12
-2.50122e-11
1.65248e-11
3.25033e-13
-2.56466e-11
1.75257e-11
-1.78788e-12
-2.61931e-11
1.77434e-11
-2.73268e-11
1.7251e-11
1.02694e-12
-1.82219e-12
7.61152e-13
1.94501e-12
-5.31277e-12
2.23983e-12
2.7762e-12
-8.5659e-12
3.67892e-12
3.53654e-12
-1.17057e-11
5.1665e-12
4.23534e-12
-1.48244e-11
6.7778e-12
4.87365e-12
-1.79826e-11
8.57733e-12
5.44136e-12
-2.12077e-11
1.06187e-11
5.91213e-12
-2.44902e-11
1.29408e-11
6.23513e-12
-2.77789e-11
1.55589e-11
6.32381e-12
-3.09778e-11
1.84479e-11
6.04368e-12
-3.39528e-11
2.15166e-11
5.20341e-12
-3.65637e-11
2.45731e-11
3.57434e-12
-3.87523e-11
2.73015e-11
1.02754e-12
-4.06861e-11
2.92998e-11
-1.95729e-12
-4.27323e-11
3.0302e-11
-4.52586e-11
3.06949e-11
1.41599e-12
-2.34024e-12
1.03949e-12
2.68265e-12
-6.82554e-12
3.05839e-12
3.83108e-12
-1.10125e-11
5.02157e-12
4.88478e-12
-1.50649e-11
7.04798e-12
5.859e-12
-1.91071e-11
9.2393e-12
6.75918e-12
-2.32263e-11
1.16834e-11
7.57727e-12
-2.74708e-11
1.44541e-11
8.28492e-12
-3.18469e-11
1.76066e-11
8.82158e-12
-3.6314e-11
2.11663e-11
9.07639e-12
-4.07807e-11
2.51092e-11
8.86332e-12
-4.51049e-11
2.9331e-11
7.89453e-12
-4.91124e-11
3.36104e-11
5.794e-12
-5.26533e-11
3.75919e-11
2.30326e-12
-5.5709e-11
4.08414e-11
-1.92614e-12
-5.84054e-11
4.3049e-11
-6.11124e-11
4.45293e-11
1.78302e-12
-2.78257e-12
1.29321e-12
3.37889e-12
-8.11871e-12
3.80388e-12
4.82786e-12
-1.31091e-11
6.24209e-12
6.1615e-12
-1.79547e-11
8.75366e-12
7.40262e-12
-2.28117e-11
1.14633e-11
8.56409e-12
-2.77955e-11
1.44794e-11
9.64535e-12
-3.29801e-11
1.78938e-11
1.06252e-11
-3.83961e-11
2.17769e-11
1.14484e-11
-4.40273e-11
2.61655e-11
1.20032e-11
-4.98038e-11
3.10413e-11
1.20846e-11
-5.55931e-11
3.62969e-11
1.13421e-11
-6.11839e-11
4.16977e-11
9.25126e-12
-6.6265e-11
4.6864e-11
5.29618e-12
-7.04051e-11
5.13276e-11
-1.57883e-14
-7.31144e-11
5.46973e-11
-7.46174e-11
5.71887e-11
2.12152e-12
-3.13189e-12
1.51726e-12
4.02105e-12
-9.14168e-12
4.46118e-12
5.74762e-12
-1.47735e-11
7.31503e-12
7.34098e-12
-2.0261e-11
1.02467e-11
8.8325e-12
-2.579e-11
1.33997e-11
1.02449e-11
-3.15029e-11
1.68987e-11
1.15898e-11
-3.7501e-11
2.085e-11
1.28626e-11
-4.38441e-11
2.53363e-11
1.40311e-11
-5.05487e-11
3.04037e-11
1.50157e-11
-5.75839e-11
3.60397e-11
1.56527e-11
-6.48573e-11
4.21359e-11
1.56322e-11
-7.21824e-11
4.84431e-11
1.44311e-11
-7.92036e-11
5.4542e-11
1.13882e-11
-8.52476e-11
5.98884e-11
6.58454e-12
-8.92256e-11
6.39826e-11
-8.88979e-11
6.70756e-11
2.42529e-12
-3.37283e-12
1.7079e-12
4.59702e-12
-9.84944e-12
5.01928e-12
6.57193e-12
-1.5932e-11
8.2221e-12
8.39727e-12
-2.18808e-11
1.15008e-11
1.01128e-11
-2.79055e-11
1.50126e-11
1.17515e-11
-3.41721e-11
1.88934e-11
1.33395e-11
-4.08061e-11
2.32589e-11
1.48938e-11
-4.78945e-11
2.8199e-11
1.64166e-11
-5.54873e-11
3.37647e-11
1.78851e-11
-6.35956e-11
3.99449e-11
1.92298e-11
-7.21852e-11
4.66249e-11
2.02964e-11
-8.11567e-11
5.35306e-11
2.08015e-11
-9.03005e-11
6.01738e-11
2.03573e-11
-9.91926e-11
6.58603e-11
1.88672e-11
-1.06934e-10
6.98914e-11
-1.12344e-10
7.25385e-11
2.68899e-12
1.863e-12
-3.49285e-12
5.09647e-12
5.47205e-12
-1.02055e-11
7.28506e-12
8.9535e-12
-1.65251e-11
9.30778e-12
1.25024e-11
-2.27298e-11
1.1211e-11
1.62839e-11
-2.90455e-11
1.30364e-11
2.04396e-11
-3.56549e-11
1.48226e-11
2.50887e-11
-4.27011e-11
1.66056e-11
3.0322e-11
-5.02909e-11
1.84194e-11
3.61893e-11
-5.8496e-11
2.02948e-11
4.26743e-11
-6.73523e-11
2.22547e-11
4.96511e-11
-7.68546e-11
2.43043e-11
5.68188e-11
-8.69408e-11
2.64278e-11
6.36253e-11
-9.7463e-11
2.86115e-11
6.92369e-11
-1.08119e-10
3.07346e-11
7.27503e-11
-1.18022e-10
7.38098e-11
-1.28607e-10
2.04476e-13
-6.39209e-13
1.21581e-13
3.8636e-13
-1.86276e-12
3.57732e-13
5.49137e-13
-3.00076e-12
5.87475e-13
6.94877e-13
-4.09581e-12
8.24858e-13
8.23803e-13
-5.17867e-12
1.08167e-12
9.33779e-13
-6.268e-12
1.36764e-12
1.0195e-12
-7.3701e-12
1.69037e-12
1.07127e-12
-8.4782e-12
2.05469e-12
1.07323e-12
-9.57123e-12
2.4611e-12
1.00158e-12
-1.06131e-11
2.90306e-12
8.23087e-13
-1.1554e-11
3.36322e-12
4.94158e-13
-1.23347e-11
3.80937e-12
-3.97966e-14
-1.28899e-11
4.19407e-12
-8.35197e-13
-1.31346e-11
4.46573e-12
-1.83536e-12
-1.29367e-11
4.59628e-12
-1.15118e-11
4.92321e-12
6.10614e-13
-1.25872e-12
3.61697e-13
1.15398e-12
-3.66886e-12
1.0642e-12
1.6407e-12
-5.91223e-12
1.74751e-12
2.07721e-12
-8.07313e-12
2.45314e-12
2.46472e-12
-1.02133e-11
3.216e-12
2.79766e-12
-1.23716e-11
4.06505e-12
3.06139e-12
-1.45639e-11
5.02309e-12
3.2284e-12
-1.67806e-11
6.10482e-12
3.25326e-12
-1.89853e-11
7.31223e-12
3.06703e-12
-2.11138e-11
8.62697e-12
2.57402e-12
-2.30798e-11
9.99958e-12
1.65516e-12
-2.47938e-11
1.13384e-11
1.9222e-13
-2.61989e-11
1.25084e-11
-1.84008e-12
-2.73126e-11
1.33612e-11
-4.05815e-12
-2.81951e-11
1.38117e-11
-2.91504e-11
1.38049e-11
1.00836e-12
-1.83942e-12
5.92929e-13
1.90633e-12
-5.36291e-12
1.74442e-12
2.712e-12
-8.64646e-12
2.86388e-12
3.43695e-12
-1.18152e-11
4.01874e-12
4.08484e-12
-1.49623e-11
5.26575e-12
4.64912e-12
-1.81498e-11
6.65243e-12
5.10942e-12
-2.14077e-11
8.2167e-12
5.4255e-12
-2.4731e-11
9.98365e-12
5.5287e-12
-2.80775e-11
1.19585e-11
5.31218e-12
-3.13668e-11
1.41153e-11
4.62423e-12
-3.44879e-11
1.63811e-11
3.27697e-12
-3.73265e-11
1.86212e-11
1.10996e-12
-3.98264e-11
2.06439e-11
-1.79579e-12
-4.20752e-11
2.22451e-11
-4.64092e-12
-4.42409e-11
2.33044e-11
-4.64936e-11
2.39462e-11
1.39194e-12
-2.36204e-12
8.09894e-13
2.63259e-12
-6.88882e-12
2.38236e-12
3.74808e-12
-1.11136e-11
3.90972e-12
4.75626e-12
-1.52008e-11
5.483e-12
5.66533e-12
-1.92755e-11
7.17889e-12
6.4714e-12
-2.34253e-11
9.06222e-12
7.15399e-12
-2.7699e-11
1.11854e-11
7.66851e-12
-3.21041e-11
1.35842e-11
7.93477e-12
-3.66033e-11
1.62691e-11
7.82218e-12
-4.11107e-11
1.92117e-11
7.13451e-12
-4.54928e-11
2.23256e-11
5.60873e-12
-4.95807e-11
2.5453e-11
2.98241e-12
-5.32092e-11
2.8376e-11
-7.31779e-13
-5.62886e-11
3.0874e-11
-4.56911e-12
-5.8821e-11
3.27935e-11
-6.10849e-11
3.4179e-11
1.75513e-12
-2.808e-12
1.00776e-12
3.32087e-12
-8.19232e-12
2.96359e-12
4.73177e-12
-1.3226e-11
4.86079e-12
6.01305e-12
-1.81102e-11
6.81087e-12
7.1797e-12
-2.30011e-11
8.908e-12
8.23437e-12
-2.80128e-11
1.12322e-11
9.16312e-12
-3.32167e-11
1.38486e-11
9.92784e-12
-3.86395e-11
1.68029e-11
1.04539e-11
-4.42591e-11
2.01116e-11
1.06124e-11
-4.99975e-11
2.3746e-11
1.01952e-11
-5.57097e-11
2.76124e-11
8.89291e-12
-6.11643e-11
3.15362e-11
6.32378e-12
-6.60163e-11
3.5277e-11
2.27612e-12
-6.97826e-11
3.85905e-11
-2.44444e-12
-7.19446e-11
4.12738e-11
-7.27336e-11
4.33034e-11
2.09151e-12
-3.15992e-12
1.18255e-12
3.95866e-12
-9.22261e-12
3.47626e-12
5.64445e-12
-1.49012e-11
5.69717e-12
7.18202e-12
-2.04295e-11
7.97368e-12
8.5947e-12
-2.59917e-11
1.04141e-11
9.89485e-12
-3.17273e-11
1.31107e-11
1.10809e-11
-3.77316e-11
1.61387e-11
1.21317e-11
-4.40545e-11
1.95513e-11
1.29968e-11
-5.06973e-11
2.33692e-11
1.35814e-11
-5.76055e-11
2.75631e-11
1.37224e-11
-6.46518e-11
3.20302e-11
1.31561e-11
-7.16008e-11
3.65728e-11
1.15089e-11
-7.80382e-11
4.09072e-11
8.4337e-12
-8.32509e-11
4.47295e-11
4.31323e-12
-8.623e-11
4.77841e-11
-8.49855e-11
5.01025e-11
2.39479e-12
-3.4024e-12
1.33134e-12
4.53367e-12
-9.93467e-12
3.91174e-12
6.46737e-12
-1.6066e-11
6.40459e-12
8.23663e-12
-2.20561e-11
8.95098e-12
9.87337e-12
-2.81123e-11
1.16696e-11
1.14009e-11
-3.43957e-11
1.4661e-11
1.28327e-11
-4.10228e-11
1.8007e-11
1.41704e-11
-4.80662e-11
2.17648e-11
1.53996e-11
-5.55523e-11
2.59559e-11
1.6483e-11
-6.34564e-11
3.05474e-11
1.73509e-11
-7.16915e-11
3.54224e-11
1.78883e-11
-8.00855e-11
4.03486e-11
1.79447e-11
-8.83467e-11
4.49709e-11
1.74247e-11
-9.60125e-11
4.88669e-11
1.65443e-11
-1.02353e-10
5.16814e-11
-1.06629e-10
5.35594e-11
2.65943e-12
1.45246e-12
-3.52293e-12
5.03513e-12
4.26526e-12
-1.02921e-11
7.18398e-12
6.97542e-12
-1.66609e-11
9.15293e-12
9.73219e-12
-2.29064e-11
1.09811e-11
1.26604e-11
-2.92515e-11
1.27014e-11
1.58648e-11
-3.58727e-11
1.4341e-11
1.94294e-11
-4.29023e-11
1.59224e-11
2.34117e-11
-5.04294e-11
1.74643e-11
2.78303e-11
-5.8498e-11
1.89838e-11
3.26452e-11
-6.71022e-11
2.04998e-11
3.77242e-11
-7.61766e-11
2.20437e-11
4.28013e-11
-8.55809e-11
2.36989e-11
4.7453e-11
-9.50855e-11
2.56855e-11
5.11374e-11
-1.04366e-10
2.81705e-11
5.33805e-11
-1.12764e-10
5.4041e-11
-1.22167e-10
2.00983e-13
-6.43458e-13
8.31064e-14
3.79107e-13
-1.87519e-12
2.44482e-13
5.37157e-13
-3.021e-12
4.01367e-13
6.76403e-13
-4.12388e-12
5.63263e-13
7.9608e-13
-5.21486e-12
7.38018e-13
8.92792e-13
-6.31306e-12
9.31968e-13
9.59673e-13
-7.4259e-12
1.14991e-12
9.85154e-13
-8.54878e-12
1.39469e-12
9.51536e-13
-9.66421e-12
1.66617e-12
8.33984e-13
-1.07416e-11
1.95972e-12
6.00691e-13
-1.17381e-11
2.26451e-12
2.14916e-13
-1.26002e-11
2.56207e-12
-3.60978e-13
-1.32576e-11
2.82762e-12
-1.15572e-12
-1.3592e-11
3.03733e-12
-2.10095e-12
-1.34038e-11
3.17497e-12
-1.18472e-11
3.47341e-12
6.00414e-13
-1.26719e-12
2.47264e-13
1.1328e-12
-3.69359e-12
7.27407e-13
1.60571e-12
-5.95222e-12
1.1941e-12
2.02327e-12
-8.12792e-12
1.67538e-12
2.38384e-12
-1.02828e-11
2.19449e-12
2.67827e-12
-1.24566e-11
2.77033e-12
2.88747e-12
-1.46665e-11
3.41733e-12
2.97883e-12
-1.69063e-11
4.14414e-12
2.90208e-12
-1.91445e-11
4.95071e-12
2.58657e-12
-2.1324e-11
5.82395e-12
1.943e-12
-2.33665e-11
6.73257e-12
8.76318e-13
-2.51839e-11
7.623e-12
-6.76643e-13
-2.66966e-11
8.4225e-12
-2.65706e-12
-2.78488e-11
9.05521e-12
-4.65805e-12
-2.85958e-11
9.46284e-12
-2.91867e-11
9.54376e-12
9.92226e-13
-1.85182e-12
4.05412e-13
1.87283e-12
-5.39898e-12
1.19259e-12
2.65666e-12
-8.70425e-12
1.95732e-12
3.35171e-12
-1.18932e-11
2.74507e-12
3.95724e-12
-1.50593e-11
3.59363e-12
4.46129e-12
-1.82652e-11
4.53408e-12
4.83685e-12
-2.15418e-11
5.5905e-12
5.03635e-12
-2.48862e-11
6.77772e-12
4.98512e-12
-2.82594e-11
8.09688e-12
4.57636e-12
-3.15855e-11
9.52891e-12
3.67336e-12
-3.4756e-11
1.10267e-11
2.1338e-12
-3.76484e-11
1.25104e-11
-1.07969e-13
-4.01709e-11
1.38732e-11
-2.84111e-12
-4.23273e-11
1.50036e-11
-5.26039e-12
-4.42015e-11
1.5808e-11
-4.59863e-11
1.62858e-11
1.37099e-12
-2.37781e-12
5.53864e-13
2.58912e-12
-6.9345e-12
1.62904e-12
3.67632e-12
-1.1186e-11
2.67259e-12
4.64589e-12
-1.52971e-11
3.74581e-12
5.50057e-12
-1.93926e-11
4.89981e-12
6.22977e-12
-2.35599e-11
6.17707e-12
6.80504e-12
-2.7847e-11
7.6109e-12
7.17346e-12
-3.22606e-11
9.2225e-12
7.24915e-12
-3.67619e-11
1.10154e-11
6.90497e-12
-4.12628e-11
1.29674e-11
5.96939e-12
-4.56229e-11
1.50216e-11
4.24545e-12
-4.96557e-11
1.70819e-11
1.5973e-12
-5.31566e-11
1.90241e-11
-1.80677e-12
-5.59675e-11
2.0723e-11
-5.03309e-12
-5.80506e-11
2.20566e-11
-5.97554e-11
2.29658e-11
1.73074e-12
-2.82642e-12
6.89303e-13
3.27025e-12
-8.2454e-12
2.02683e-12
4.64832e-12
-1.33094e-11
3.32323e-12
5.88498e-12
-1.82195e-11
4.65357e-12
6.98914e-12
-2.3131e-11
6.08063e-12
7.95611e-12
-2.81561e-11
7.65689e-12
8.76341e-12
-3.33632e-11
9.42379e-12
9.3645e-12
-3.87739e-11
1.14082e-11
9.68014e-12
-4.43583e-11
1.36163e-11
9.58798e-12
-5.00268e-11
1.60241e-11
8.91238e-12
-5.56164e-11
1.8567e-11
7.42423e-12
-6.08695e-11
2.11347e-11
4.88872e-12
-6.54049e-11
2.35847e-11
1.26387e-12
-6.87022e-11
2.5774e-11
-2.70493e-12
-7.02618e-11
2.75478e-11
-7.04291e-11
2.88097e-11
2.0651e-12
-3.18016e-12
8.08983e-13
3.90391e-12
-9.28075e-12
2.3778e-12
5.55431e-12
-1.49919e-11
3.89557e-12
7.04405e-12
-2.05468e-11
5.44872e-12
8.39017e-12
-2.61279e-11
7.10955e-12
9.59753e-12
-3.18712e-11
8.93851e-12
1.06561e-11
-3.78661e-11
1.09833e-11
1.15366e-11
-4.4153e-11
1.32752e-11
1.21849e-11
-5.07188e-11
1.58214e-11
1.25146e-11
-5.74878e-11
1.85954e-11
1.23977e-11
-6.43039e-11
2.1523e-11
1.16557e-11
-7.08971e-11
2.44725e-11
1.00691e-11
-7.68222e-11
2.72679e-11
7.46685e-12
-8.13668e-11
2.97265e-11
4.16565e-12
-8.36161e-11
3.16699e-11
-8.18167e-11
3.30514e-11
2.36775e-12
-3.42367e-12
9.10898e-13
4.47765e-12
-9.99563e-12
2.67604e-12
6.37532e-12
-1.61606e-11
4.37985e-12
8.09614e-12
-2.21771e-11
6.11733e-12
9.6659e-12
-2.82498e-11
7.96771e-12
1.11006e-11
-3.45349e-11
9.99695e-12
1.24058e-11
-4.11407e-11
1.22568e-11
1.35756e-11
-4.81264e-11
1.47802e-11
1.4592e-11
-5.54988e-11
1.7574e-11
1.54259e-11
-6.32047e-11
2.06068e-11
1.60401e-11
-7.11196e-11
2.37908e-11
1.63995e-11
-7.90313e-11
2.69651e-11
1.64986e-11
-8.66219e-11
2.99008e-11
1.64161e-11
-9.34592e-11
3.23409e-11
1.63233e-11
-9.89698e-11
3.40615e-11
-1.02718e-10
3.51226e-11
2.63296e-12
9.93894e-13
-3.54448e-12
4.98036e-12
2.91824e-12
-1.03538e-11
7.09417e-12
4.77082e-12
-1.67563e-11
9.01626e-12
6.65214e-12
-2.30274e-11
1.07801e-11
8.64557e-12
-2.93867e-11
1.24117e-11
1.08199e-11
-3.60048e-11
1.39311e-11
1.32281e-11
-4.30042e-11
1.53538e-11
1.59028e-11
-5.04587e-11
1.6695e-11
1.88482e-11
-5.83893e-11
1.79774e-11
2.20266e-11
-6.67586e-11
1.92468e-11
2.53365e-11
-7.54614e-11