/*--------------------------------*- C++ -*----------------------------------*\
| =========                 |                                                 |
| \\      /  F ield         | OpenFOAM: The Open Source CFD Toolbox           |
|  \\    /   O peration     | Version:  v1912                                 |
|   \\  /    A nd           | Website:  www.openfoam.com                      |
|    \\/     M anipulation  |                                                 |
\*---------------------------------------------------------------------------*/
FoamFile
{
    version     2.0;
    format      ascii;
    class       pointVectorField;
    location    "0.36/fluid";
    object      pointMotionU;
}
// * * * * * * * * * * * * * * * * * * * * * * * * * * * * * * * * * * * * * //

dimensions      [0 1 -1 0 0 0 0];


internalField   nonuniform List<vector> 
16859
(
(0 0 0)
(0 0 0)
(0 0 0)
(0 0 0)
(0 0 0)
(0 0 0)
(0 0 0)
(0 0 0)
(0 0 0)
(0 0 0)
(0 0 0)
(0 0 0)
(0 0 0)
(0 0 0)
(0 0 0)
(0 0 0)
(2.84939e-08 4.86101e-08 2.67854e-08)
(0 0 0)
(7.04381e-10 -1.7001e-09 1.31372e-09)
(1.34196e-09 -3.25361e-09 2.55799e-09)
(1.93536e-09 -4.72325e-09 3.8208e-09)
(2.50489e-09 -6.15531e-09 5.17969e-09)
(3.06975e-09 -7.5775e-09 6.70556e-09)
(3.64995e-09 -8.99676e-09 8.46531e-09)
(4.26925e-09 -1.03941e-08 1.05233e-08)
(4.96037e-09 -1.17135e-08 1.29417e-08)
(5.77585e-09 -1.28407e-08 1.5781e-08)
(6.81187e-09 -1.35658e-08 1.9102e-08)
(8.2602e-09 -1.35081e-08 2.29773e-08)
(1.05314e-08 -1.19576e-08 2.75401e-08)
(1.44957e-08 -7.55069e-09 3.31357e-08)
(2.18259e-08 2.27313e-09 4.06367e-08)
(3.36086e-08 1.94766e-08 5.06252e-08)
(5.65772e-08 5.61871e-08 6.43265e-08)
(0 0 0)
(1.39546e-09 -3.34988e-09 2.59425e-09)
(2.65836e-09 -6.41328e-09 5.05082e-09)
(3.8332e-09 -9.31464e-09 7.54237e-09)
(4.9598e-09 -1.21464e-08 1.02207e-08)
(6.07594e-09 -1.49678e-08 1.32252e-08)
(7.22073e-09 -1.78001e-08 1.66879e-08)
(8.43906e-09 -2.06174e-08 2.07352e-08)
(9.7895e-09 -2.33292e-08 2.54882e-08)
(1.13592e-08 -2.57482e-08 3.10606e-08)
(1.3293e-08 -2.7538e-08 3.75529e-08)
(1.5854e-08 -2.81291e-08 4.5047e-08)
(1.95453e-08 -2.65971e-08 5.3619e-08)
(2.52769e-08 -2.15761e-08 6.3391e-08)
(3.43689e-08 -1.15427e-08 7.45484e-08)
(4.64613e-08 2.33773e-09 8.60264e-08)
(7.19255e-08 2.12813e-08 1.0555e-07)
(0 0 0)
(2.06047e-09 -4.89892e-09 3.81056e-09)
(3.92471e-09 -9.38361e-09 7.41735e-09)
(5.65784e-09 -1.36392e-08 1.10718e-08)
(7.31803e-09 -1.7806e-08 1.49947e-08)
(8.96081e-09 -2.19798e-08 1.93897e-08)
(1.0643e-08 -2.62075e-08 2.44498e-08)
(1.24278e-08 -3.04763e-08 3.03606e-08)
(1.43927e-08 -3.46952e-08 3.73002e-08)
(1.6641e-08 -3.86622e-08 4.5433e-08)
(1.93219e-08 -4.20158e-08 5.48928e-08)
(2.26656e-08 -4.41693e-08 6.57518e-08)
(2.70528e-08 -4.42542e-08 7.79827e-08)
(3.30744e-08 -4.11989e-08 9.141e-08)
(4.14515e-08 -3.42502e-08 1.05621e-07)
(5.15225e-08 -2.50619e-08 1.18826e-07)
(7.19709e-08 -1.24417e-08 1.37861e-07)
(0 0 0)
(2.68685e-09 -6.29573e-09 4.9339e-09)
(5.11675e-09 -1.20664e-08 9.60067e-09)
(7.37362e-09 -1.75561e-08 1.43223e-08)
(9.53254e-09 -2.29538e-08 1.9381e-08)
(1.16654e-08 -2.83973e-08 2.50375e-08)
(1.38457e-08 -3.39701e-08 3.15402e-08)
(1.61536e-08 -3.96931e-08 3.91289e-08)
(1.86829e-08 -4.55092e-08 4.80367e-08)
(2.15479e-08 -5.12576e-08 5.84816e-08)
(2.48881e-08 -5.66343e-08 7.06414e-08)
(2.88755e-08 -6.11372e-08 8.46076e-08)
(3.37202e-08 -6.40112e-08 1.00304e-07)
(3.9634e-08 -6.4271e-08 1.17338e-07)
(4.67323e-08 -6.09924e-08 1.34767e-07)
(5.4204e-08 -5.47898e-08 1.49875e-07)
(7.01308e-08 -4.29172e-08 1.68659e-07)
(0 0 0)
(3.26306e-09 -7.49015e-09 5.94007e-09)
(6.2121e-09 -1.4365e-08 1.15528e-08)
(8.94735e-09 -2.09244e-08 1.722e-08)
(1.15588e-08 -2.7405e-08 2.32761e-08)
(1.4133e-08 -3.39893e-08 3.00296e-08)
(1.67588e-08 -4.08052e-08 3.7775e-08)
(1.95336e-08 -4.79225e-08 4.67992e-08)
(2.25697e-08 -5.53451e-08 5.73855e-08)
(2.60004e-08 -6.29964e-08 6.9808e-08)
(2.99788e-08 -7.06939e-08 8.43099e-08)
(3.46739e-08 -7.81018e-08 1.0106e-07)
(4.02412e-08 -8.46483e-08 1.20062e-07)
(4.6721e-08 -8.93875e-08 1.40949e-07)
(5.38493e-08 -9.0836e-08 1.62561e-07)
(6.04029e-08 -8.7746e-08 1.81168e-07)
(7.36112e-08 -7.43773e-08 2.01636e-07)
(0 0 0)
(3.77897e-09 -8.43478e-09 6.81041e-09)
(7.19105e-09 -1.61882e-08 1.32367e-08)
(1.03496e-08 -2.36092e-08 1.97085e-08)
(1.33568e-08 -3.09787e-08 2.66006e-08)
(1.6311e-08 -3.85219e-08 3.42578e-08)
(1.93145e-08 -4.64131e-08 4.30089e-08)
(2.24805e-08 -5.47773e-08 5.31757e-08)
(2.59424e-08 -6.36919e-08 6.50808e-08)
(2.98635e-08 -7.31875e-08 7.90485e-08)
(3.44456e-08 -8.32435e-08 9.53966e-08)
(3.99407e-08 -9.37711e-08 1.14417e-07)
(4.66527e-08 -1.04559e-07 1.36331e-07)
(5.48668e-08 -1.15102e-07 1.6113e-07)
(6.45956e-08 -1.24144e-07 1.8807e-07)
(7.42185e-08 -1.28974e-07 2.12845e-07)
(8.95402e-08 -1.16843e-07 2.39722e-07)
(0 0 0)
(4.22635e-09 -9.08745e-09 7.53261e-09)
(8.03775e-09 -1.74542e-08 1.46285e-08)
(1.15569e-08 -2.5489e-08 2.17514e-08)
(1.48939e-08 -3.35087e-08 2.93037e-08)
(1.81554e-08 -4.17753e-08 3.76528e-08)
(2.14527e-08 -5.05037e-08 4.71471e-08)
(2.49101e-08 -5.98694e-08 5.81264e-08)
(2.86781e-08 -7.00179e-08 7.09332e-08)
(3.29478e-08 -8.1079e-08 8.59192e-08)
(3.79759e-08 -9.31858e-08 1.03452e-07)
(4.4128e-08 -1.06504e-07 1.23928e-07)
(5.19512e-08 -1.21274e-07 1.47802e-07)
(6.22557e-08 -1.37827e-07 1.75572e-07)
(7.60871e-08 -1.56418e-07 2.0752e-07)
(9.24869e-08 -1.74988e-07 2.40008e-07)
(1.23934e-07 -1.96978e-07 2.84296e-07)
(0 0 0)
(4.59963e-09 -9.41382e-09 8.1015e-09)
(8.74198e-09 -1.8097e-08 1.57192e-08)
(1.25542e-08 -2.64646e-08 2.33365e-08)
(1.615e-08 -3.48581e-08 3.13695e-08)
(1.96389e-08 -4.35653e-08 4.0194e-08)
(2.31344e-08 -5.28308e-08 5.01613e-08)
(2.67638e-08 -6.28659e-08 6.16098e-08)
(3.06808e-08 -7.38622e-08 7.48749e-08)
(3.50832e-08 -8.60107e-08 9.02976e-08)
(4.02418e-08 -9.95284e-08 1.08234e-07)
(4.65506e-08 -1.14702e-07 1.29078e-07)
(5.4606e-08 -1.31961e-07 1.533e-07)
(6.52964e-08 -1.5196e-07 1.81488e-07)
(7.97647e-08 -1.75588e-07 2.14248e-07)
(9.66217e-08 -2.00619e-07 2.47853e-07)
(1.46184e-07 -2.5251e-07 3.10961e-07)
(0 0 0)
(0 0 0)
(0 0 0)
(0 0 0)
(0 0 0)
(0 0 0)
(0 0 0)
(0 0 0)
(0 0 0)
(0 0 0)
(0 0 0)
(0 0 0)
(0 0 0)
(0 0 0)
(0 0 0)
(0 0 0)
(1.27833e-08 2.37008e-08 1.2038e-08)
(0 0 0)
(6.97273e-10 -1.7353e-09 1.2726e-09)
(1.3265e-09 -3.321e-09 2.47617e-09)
(1.90843e-09 -4.82175e-09 3.69469e-09)
(2.46118e-09 -6.28592e-09 5.00198e-09)
(3.00088e-09 -7.74333e-09 6.46492e-09)
(3.54285e-09 -9.20303e-09 8.14532e-09)
(4.10353e-09 -1.0649e-08 1.0101e-08)
(4.70402e-09 -1.20305e-08 1.23849e-08)
(5.37786e-09 -1.32439e-08 1.50435e-08)
(6.18979e-09 -1.40999e-08 1.81123e-08)
(7.27969e-09 -1.42613e-08 2.16144e-08)
(8.96398e-09 -1.31141e-08 2.55738e-08)
(1.19271e-08 -9.50745e-09 3.00719e-08)
(1.74225e-08 -1.41067e-09 3.53263e-08)
(2.61644e-08 1.26102e-08 4.11182e-08)
(3.53296e-08 3.12279e-08 4.36771e-08)
(0 0 0)
(1.382e-09 -3.4186e-09 2.51274e-09)
(2.62911e-09 -6.54487e-09 4.88875e-09)
(3.78238e-09 -9.50737e-09 7.29306e-09)
(4.87749e-09 -1.24025e-08 9.87008e-09)
(5.94649e-09 -1.5293e-08 1.27512e-08)
(7.01974e-09 -1.8204e-08 1.60583e-08)
(8.12864e-09 -2.11151e-08 1.99055e-08)
(9.31041e-09 -2.39445e-08 2.43967e-08)
(1.06177e-08 -2.65222e-08 2.96201e-08)
(1.214e-08 -2.85461e-08 3.56335e-08)
(1.40517e-08 -2.95172e-08 4.24421e-08)
(1.67144e-08 -2.86575e-08 4.99708e-08)
(2.08177e-08 -2.4896e-08 5.80365e-08)
(2.73724e-08 -1.72797e-08 6.62616e-08)
(3.63026e-08 -7.11955e-09 7.35418e-08)
(4.58936e-08 -1.81124e-09 7.96034e-08)
(0 0 0)
(2.0422e-09 -4.99847e-09 3.69058e-09)
(3.88503e-09 -9.57453e-09 7.17909e-09)
(5.58896e-09 -1.39194e-08 1.0706e-08)
(7.20664e-09 -1.81785e-08 1.44812e-08)
(8.78586e-09 -2.24527e-08 1.86963e-08)
(1.03719e-08 -2.67934e-08 2.35303e-08)
(1.20103e-08 -3.11946e-08 2.9151e-08)
(1.37505e-08 -3.55752e-08 3.57132e-08)
(1.5651e-08 -3.97524e-08 4.33476e-08)
(1.77892e-08 -4.34016e-08 5.21359e-08)
(2.02848e-08 -4.60113e-08 6.20655e-08)
(2.33479e-08 -4.6866e-08 7.29582e-08)
(2.73347e-08 -4.51897e-08 8.43708e-08)
(3.27269e-08 -4.07531e-08 9.54568e-08)
(3.9317e-08 -3.53159e-08 1.04614e-07)
(4.51691e-08 -3.3501e-08 1.10781e-07)
(0 0 0)
(2.6659e-09 -6.42271e-09 4.77854e-09)
(5.07119e-09 -1.23102e-08 9.29255e-09)
(7.29442e-09 -1.79142e-08 1.38499e-08)
(9.40441e-09 -2.34301e-08 1.87189e-08)
(1.14644e-08 -2.90011e-08 2.4145e-08)
(1.35349e-08 -3.4716e-08 3.03584e-08)
(1.56768e-08 -4.0602e-08 3.75775e-08)
(1.79531e-08 -4.66111e-08 4.60067e-08)
(2.04282e-08 -5.25981e-08 5.58243e-08)
(2.31636e-08 -5.82885e-08 6.71518e-08)
(2.62076e-08 -6.32391e-08 7.99937e-08)
(2.95764e-08 -6.68127e-08 9.4133e-08)
(3.32121e-08 -6.82485e-08 1.08952e-07)
(3.69661e-08 -6.7025e-08 1.23151e-07)
(4.05114e-08 -6.39042e-08 1.34305e-07)
(4.30594e-08 -6.25328e-08 1.40643e-07)
(0 0 0)
(3.24184e-09 -7.64044e-09 5.75341e-09)
(6.16566e-09 -1.46538e-08 1.11829e-08)
(8.86623e-09 -2.13487e-08 1.66538e-08)
(1.14272e-08 -2.79691e-08 2.24836e-08)
(1.39264e-08 -3.47032e-08 2.89629e-08)
(1.64405e-08 -4.16844e-08 3.63653e-08)
(1.90476e-08 -4.89875e-08 4.49526e-08)
(2.18307e-08 -5.66226e-08 5.49753e-08)
(2.48752e-08 -6.45224e-08 6.66632e-08)
(2.82594e-08 -7.25203e-08 8.01982e-08)
(3.20295e-08 -8.03117e-08 9.56571e-08)
(3.61388e-08 -8.73811e-08 1.12901e-07)
(4.03155e-08 -9.28827e-08 1.31347e-07)
(4.39158e-08 -9.55121e-08 1.49494e-07)
(4.60378e-08 -9.41475e-08 1.64041e-07)
(4.57005e-08 -9.14704e-08 1.72118e-07)
(0 0 0)
(3.75976e-09 -8.60353e-09 6.59721e-09)
(7.14848e-09 -1.65125e-08 1.28146e-08)
(1.02745e-08 -2.40856e-08 1.9063e-08)
(1.32339e-08 -3.16116e-08 2.56985e-08)
(1.61178e-08 -3.93219e-08 3.30458e-08)
(1.90173e-08 -4.73956e-08 4.14107e-08)
(2.20296e-08 -5.59614e-08 5.10875e-08)
(2.5263e-08 -6.50996e-08 6.23628e-08)
(2.88414e-08 -7.48428e-08 7.55127e-08)
(3.29048e-08 -8.51738e-08 9.07864e-08)
(3.76043e-08 -9.60083e-08 1.08373e-07)
(4.30707e-08 -1.07138e-07 1.28328e-07)
(4.93033e-08 -1.18045e-07 1.50372e-07)
(5.58914e-08 -1.27408e-07 1.73316e-07)
(6.13468e-08 -1.3254e-07 1.93347e-07)
(5.99292e-08 -1.27386e-07 2.06615e-07)
(0 0 0)
(4.21103e-09 -9.26901e-09 7.29799e-09)
(8.00292e-09 -1.78031e-08 1.41643e-08)
(1.1494e-08 -2.60014e-08 2.10423e-08)
(1.47895e-08 -3.41891e-08 2.83144e-08)
(1.79901e-08 -4.26346e-08 3.63267e-08)
(2.11983e-08 -5.15573e-08 4.54034e-08)
(2.45264e-08 -6.11346e-08 5.58556e-08)
(2.81064e-08 -7.15119e-08 6.79879e-08)
(3.21017e-08 -8.28157e-08 8.21014e-08)
(3.67273e-08 -9.5173e-08 9.84898e-08)
(4.22838e-08 -1.08738e-07 1.17434e-07)
(4.92138e-08 -1.23729e-07 1.3919e-07)
(5.81779e-08 -1.40438e-07 1.63903e-07)
(7.00313e-08 -1.59004e-07 1.91179e-07)
(8.42659e-08 -1.77633e-07 2.17683e-07)
(9.6247e-08 -1.94085e-07 2.38979e-07)
(0 0 0)
(4.58947e-09 -9.60183e-09 7.85062e-09)
(8.71751e-09 -1.84583e-08 1.52232e-08)
(1.25078e-08 -2.69953e-08 2.25798e-08)
(1.60705e-08 -3.5563e-08 3.0316e-08)
(1.95105e-08 -4.44556e-08 3.87859e-08)
(2.29355e-08 -5.39215e-08 4.83167e-08)
(2.64645e-08 -6.4173e-08 5.92177e-08)
(3.02396e-08 -7.53992e-08 7.17873e-08)
(3.44421e-08 -8.77839e-08 8.63168e-08)
(3.93199e-08 -1.01531e-07 1.03089e-07)
(4.5234e-08 -1.16905e-07 1.22382e-07)
(5.27359e-08 -1.34295e-07 1.44466e-07)
(6.26705e-08 -1.54288e-07 1.69567e-07)
(7.61677e-08 -1.77584e-07 1.9757e-07)
(9.23775e-08 -2.02152e-07 2.24958e-07)
(1.23784e-07 -2.39339e-07 2.571e-07)
(0 0 0)
(0 0 0)
(0 0 0)
(0 0 0)
(0 0 0)
(0 0 0)
(0 0 0)
(0 0 0)
(0 0 0)
(0 0 0)
(0 0 0)
(0 0 0)
(0 0 0)
(0 0 0)
(0 0 0)
(0 0 0)
(1.44945e-09 8.26213e-09 2.57298e-09)
(0 0 0)
(6.86664e-10 -1.76576e-09 1.18478e-09)
(1.304e-09 -3.37966e-09 2.3041e-09)
(1.87019e-09 -4.90776e-09 3.4349e-09)
(2.40021e-09 -6.39983e-09 4.64431e-09)
(2.90592e-09 -7.88778e-09 5.9923e-09)
(3.39621e-09 -9.38366e-09 7.53286e-09)
(3.87723e-09 -1.08765e-08 9.31406e-09)
(4.35307e-09 -1.23253e-08 1.1376e-08)
(4.82773e-09 -1.36469e-08 1.37445e-08)
(5.31166e-09 -1.46966e-08 1.64194e-08)
(5.83891e-09 -1.52371e-08 1.93505e-08)
(6.4986e-09 -1.4891e-08 2.23966e-08)
(7.45904e-09 -1.30814e-08 2.52422e-08)
(8.85789e-09 -9.09658e-09 2.72116e-08)
(1.02137e-08 -3.14804e-09 2.71017e-08)
(7.67964e-09 2.52226e-09 1.84044e-08)
(0 0 0)
(1.36171e-09 -3.47794e-09 2.33922e-09)
(2.58612e-09 -6.65896e-09 4.54872e-09)
(3.70943e-09 -9.67453e-09 6.77989e-09)
(4.76148e-09 -1.2624e-08 9.16419e-09)
(5.76628e-09 -1.55736e-08 1.18193e-08)
(6.74213e-09 -1.85532e-08 1.48517e-08)
(7.70155e-09 -2.15508e-08 1.83567e-08)
(8.6509e-09 -2.45008e-08 2.24137e-08)
(9.59035e-09 -2.72658e-08 2.70738e-08)
(1.05171e-08 -2.96121e-08 3.23335e-08)
(1.14379e-08 -3.11858e-08 3.80843e-08)
(1.23896e-08 -3.15165e-08 4.40232e-08)
(1.34363e-08 -3.01436e-08 4.94931e-08)
(1.45187e-08 -2.71039e-08 5.32361e-08)
(1.50328e-08 -2.39862e-08 5.35939e-08)
(1.21954e-08 -2.60138e-08 4.65342e-08)
(0 0 0)
(2.01406e-09 -5.08415e-09 3.43571e-09)
(3.82546e-09 -9.73905e-09 6.67975e-09)
(5.48804e-09 -1.41603e-08 9.95284e-09)
(7.04658e-09 -1.84973e-08 1.34461e-08)
(8.53794e-09 -2.2855e-08 1.73312e-08)
(9.9913e-09 -2.72904e-08 2.17644e-08)
(1.14274e-08 -3.18061e-08 2.68871e-08)
(1.28554e-08 -3.63382e-08 3.28192e-08)
(1.42674e-08 -4.07374e-08 3.96414e-08)
(1.56281e-08 -4.47486e-08 4.7358e-08)
(1.68629e-08 -4.80023e-08 5.58265e-08)
(1.78362e-08 -5.00655e-08 6.46371e-08)
(1.83071e-08 -5.0669e-08 7.29196e-08)
(1.7865e-08 -5.02663e-08 7.91193e-08)
(1.60956e-08 -5.04977e-08 8.13489e-08)
(1.01792e-08 -5.41143e-08 7.56468e-08)
(0 0 0)
(2.63244e-09 -6.53146e-09 4.44883e-09)
(5.00036e-09 -1.25188e-08 8.64682e-09)
(7.17456e-09 -1.82193e-08 1.28767e-08)
(9.21471e-09 -2.38328e-08 1.73826e-08)
(1.11715e-08 -2.95067e-08 2.23844e-08)
(1.30872e-08 -3.53344e-08 2.80839e-08)
(1.49948e-08 -4.13498e-08 3.46655e-08)
(1.69127e-08 -4.75173e-08 4.22899e-08)
(1.88328e-08 -5.37166e-08 5.10742e-08)
(2.06966e-08 -5.97248e-08 6.10489e-08)
(2.23511e-08 -6.52051e-08 7.20773e-08)
(2.34669e-08 -6.97349e-08 8.37127e-08)
(2.34199e-08 -7.29553e-08 9.49635e-08)
(2.12786e-08 -7.49562e-08 1.04e-07)
(1.66717e-08 -7.66446e-08 1.08406e-07)
(7.57994e-09 -8.05835e-08 1.03762e-07)
(0 0 0)
(3.20587e-09 -7.76835e-09 5.35706e-09)
(6.08949e-09 -1.4899e-08 1.04071e-08)
(8.73738e-09 -2.17066e-08 1.54855e-08)
(1.12236e-08 -2.84402e-08 2.08813e-08)
(1.36131e-08 -3.52913e-08 2.68548e-08)
(1.59638e-08 -4.23959e-08 3.36461e-08)
(1.83258e-08 -4.98316e-08 4.14772e-08)
(2.07378e-08 -5.7613e-08 5.05466e-08)
(2.32133e-08 -6.56821e-08 6.10115e-08)
(2.57128e-08 -7.38936e-08 7.2946e-08)
(2.80832e-08 -8.19915e-08 8.62611e-08)
(2.99306e-08 -8.95724e-08 1.00552e-07)
(3.04036e-08 -9.60438e-08 1.14822e-07)
(2.80433e-08 -1.00642e-07 1.27064e-07)
(2.18887e-08 -1.02836e-07 1.34248e-07)
(9.61552e-09 -1.05469e-07 1.3132e-07)
(0 0 0)
(3.72404e-09 -8.74618e-09 6.1437e-09)
(7.07271e-09 -1.67857e-08 1.19275e-08)
(1.01462e-08 -2.44839e-08 1.77284e-08)
(1.30314e-08 -3.21342e-08 2.38707e-08)
(1.58071e-08 -3.99707e-08 3.06455e-08)
(1.85469e-08 -4.81726e-08 3.83214e-08)
(2.13222e-08 -5.68666e-08 4.71482e-08)
(2.42006e-08 -6.61283e-08 5.73538e-08)
(2.72408e-08 -7.59819e-08 6.91305e-08)
(3.04746e-08 -8.63972e-08 8.26002e-08)
(3.38652e-08 -9.72705e-08 9.7744e-08)
(3.71989e-08 -1.0837e-07 1.14258e-07)
(3.98572e-08 -1.19176e-07 1.31251e-07)
(4.04625e-08 -1.28525e-07 1.46686e-07)
(3.72356e-08 -1.343e-07 1.56914e-07)
(2.32976e-08 -1.32347e-07 1.5661e-07)
(0 0 0)
(4.17793e-09 -9.42153e-09 6.79754e-09)
(7.9325e-09 -1.80951e-08 1.31862e-08)
(1.13745e-08 -2.64265e-08 1.95728e-08)
(1.46008e-08 -3.47456e-08 2.63055e-08)
(1.7701e-08 -4.33223e-08 3.3695e-08)
(2.07627e-08 -5.2374e-08 4.20262e-08)
(2.38759e-08 -6.20719e-08 5.15631e-08)
(2.7138e-08 -7.25485e-08 6.25479e-08)
(3.06578e-08 -8.39069e-08 7.5191e-08)
(3.45584e-08 -9.62319e-08 8.96432e-08)
(3.89751e-08 -1.09599e-07 1.05938e-07)
(4.40314e-08 -1.24074e-07 1.23867e-07)
(4.97637e-08 -1.39647e-07 1.42681e-07)
(5.58819e-08 -1.55922e-07 1.60405e-07)
(6.10758e-08 -1.70753e-07 1.72803e-07)
(5.96827e-08 -1.81951e-07 1.72027e-07)
(0 0 0)
(4.56079e-09 -9.75894e-09 7.31375e-09)
(8.65613e-09 -1.8759e-08 1.41748e-08)
(1.24031e-08 -2.74328e-08 2.10073e-08)
(1.59047e-08 -3.6135e-08 2.81713e-08)
(1.92566e-08 -4.51604e-08 3.59849e-08)
(2.25541e-08 -5.4754e-08 4.4736e-08)
(2.58985e-08 -6.51188e-08 5.46871e-08)
(2.94048e-08 -7.64258e-08 6.60749e-08)
(3.32115e-08 -8.88265e-08 7.91009e-08)
(3.74949e-08 -1.02466e-07 9.39062e-08)
(4.24865e-08 -1.17502e-07 1.1052e-07)
(4.84845e-08 -1.34111e-07 1.2875e-07)
(5.58342e-08 -1.52464e-07 1.47918e-07)
(6.47374e-08 -1.72464e-07 1.66285e-07)
(7.38592e-08 -1.91516e-07 1.79621e-07)
(8.91125e-08 -2.14992e-07 1.76893e-07)
(0 0 0)
(0 0 0)
(0 0 0)
(0 0 0)
(0 0 0)
(0 0 0)
(0 0 0)
(0 0 0)
(0 0 0)
(0 0 0)
(0 0 0)
(0 0 0)
(0 0 0)
(0 0 0)
(0 0 0)
(0 0 0)
(-3.21731e-09 1.91759e-09 2.26034e-09)
(0 0 0)
(6.73882e-10 -1.79101e-09 1.05474e-09)
(1.27715e-09 -3.42818e-09 2.05023e-09)
(1.82509e-09 -4.97884e-09 3.05404e-09)
(2.32917e-09 -6.49399e-09 4.12442e-09)
(2.7965e-09 -8.00733e-09 5.31244e-09)
(3.22893e-09 -9.53376e-09 6.66251e-09)
(3.62184e-09 -1.10676e-08 8.21193e-09)
(3.96188e-09 -1.25785e-08 9.98742e-09)
(4.2239e-09 -1.40051e-08 1.1997e-08)
(4.36751e-09 -1.52472e-08 1.42139e-08)
(4.33445e-09 -1.61607e-08 1.65464e-08)
(4.04152e-09 -1.65586e-08 1.87861e-08)
(3.34437e-09 -1.62336e-08 2.05219e-08)
(1.94232e-09 -1.50452e-08 2.10379e-08)
(-5.01388e-10 -1.32325e-08 1.9578e-08)
(-4.43385e-09 -1.00384e-08 1.5031e-08)
(0 0 0)
(1.3372e-09 -3.52712e-09 2.08253e-09)
(2.53469e-09 -6.75341e-09 4.04771e-09)
(3.62313e-09 -9.81266e-09 6.02838e-09)
(4.62578e-09 -1.28065e-08 8.13868e-09)
(5.55768e-09 -1.58041e-08 1.04788e-08)
(6.42408e-09 -1.88401e-08 1.31365e-08)
(7.21763e-09 -2.19109e-08 1.61861e-08)
(7.91327e-09 -2.49677e-08 1.96815e-08)
(8.45996e-09 -2.79072e-08 2.36403e-08)
(8.76992e-09 -3.05636e-08 2.80133e-08)
(8.70736e-09 -3.27153e-08 3.26284e-08)
(8.07457e-09 -3.41324e-08 3.71007e-08)
(6.59562e-09 -3.47212e-08 4.07049e-08)
(3.95483e-09 -3.48096e-08 4.23058e-08)
(3.07169e-10 -3.52692e-08 4.1029e-08)
(-3.22188e-09 -3.80082e-08 3.83137e-08)
(0 0 0)
(1.97983e-09 -5.15507e-09 3.05897e-09)
(3.75368e-09 -9.87506e-09 5.94455e-09)
(5.36777e-09 -1.43586e-08 8.8504e-09)
(6.85784e-09 -1.87582e-08 1.19425e-08)
(8.24862e-09 -2.31818e-08 1.53668e-08)
(9.55183e-09 -2.76912e-08 1.92527e-08)
(1.0762e-08 -3.22976e-08 2.37111e-08)
(1.18478e-08 -3.69539e-08 2.88249e-08)
(1.2737e-08 -4.15442e-08 3.46283e-08)
(1.32935e-08 -4.58797e-08 4.10654e-08)
(1.32855e-08 -4.97148e-08 4.79205e-08)
(1.23471e-08 -5.28262e-08 5.47114e-08)
(9.96833e-09 -5.52201e-08 6.05675e-08)
(5.6861e-09 -5.74562e-08 6.42278e-08)
(7.06036e-11 -6.03969e-08 6.47801e-08)
(-5.58208e-09 -6.47448e-08 6.38902e-08)
(0 0 0)
(2.59118e-09 -6.62121e-09 3.96152e-09)
(4.91388e-09 -1.26906e-08 7.69613e-09)
(7.02986e-09 -1.84689e-08 1.14518e-08)
(8.98815e-09 -2.41591e-08 1.54405e-08)
(1.08253e-08 -2.99111e-08 1.98495e-08)
(1.25639e-08 -3.58215e-08 2.4846e-08)
(1.4207e-08 -4.19294e-08 3.05754e-08)
(1.57284e-08 -4.82097e-08 3.7151e-08)
(1.70508e-08 -5.4564e-08 4.46297e-08)
(1.80108e-08 -6.08138e-08 5.29676e-08)
(1.83006e-08 -6.6707e-08 6.19409e-08)
(1.73816e-08 -7.1966e-08 7.10316e-08)
(1.44253e-08 -7.64298e-08 7.93007e-08)
(8.57155e-09 -8.02918e-08 8.53733e-08)
(4.96118e-10 -8.39679e-08 8.80484e-08)
(-7.73893e-09 -8.84073e-08 8.8807e-08)
(0 0 0)
(3.16059e-09 -7.87345e-09 4.77104e-09)
(5.99462e-09 -1.50997e-08 9.26434e-09)
(8.57884e-09 -2.19973e-08 1.3774e-08)
(1.0976e-08 -2.88176e-08 1.85508e-08)
(1.32363e-08 -3.57536e-08 2.3817e-08)
(1.53969e-08 -4.29416e-08 2.97716e-08)
(1.74779e-08 -5.04586e-08 3.65899e-08)
(1.94726e-08 -5.83193e-08 4.4413e-08)
(2.13262e-08 -6.64681e-08 5.33241e-08)
(2.28969e-08 -7.47696e-08 6.33025e-08)
(2.38825e-08 -8.29918e-08 7.41414e-08)
(2.36897e-08 -9.07829e-08 8.53249e-08)
(2.1282e-08 -9.76439e-08 9.58779e-08)
(1.53024e-08 -1.02921e-07 1.043e-07)
(5.86241e-09 -1.05972e-07 1.09046e-07)
(-5.17342e-09 -1.08206e-07 1.11518e-07)
(0 0 0)
(3.67771e-09 -8.86279e-09 5.47258e-09)
(6.97568e-09 -1.7008e-08 1.06196e-08)
(9.98422e-09 -2.48046e-08 1.57716e-08)
(1.2779e-08 -3.2548e-08 2.12102e-08)
(1.54244e-08 -4.04719e-08 2.71837e-08)
(1.79744e-08 -4.87524e-08 3.39153e-08)
(2.04714e-08 -5.75091e-08 4.16019e-08)
(2.29409e-08 -6.68057e-08 5.04058e-08)
(2.53774e-08 -7.66475e-08 6.04317e-08)
(2.7717e-08 -8.69739e-08 7.16819e-08)
(2.97783e-08 -9.76341e-08 8.39724e-08)
(3.11448e-08 -1.08325e-07 9.67965e-08)
(3.09825e-08 -1.18438e-07 1.09129e-07)
(2.79505e-08 -1.26757e-07 1.19265e-07)
(2.13394e-08 -1.31335e-07 1.25235e-07)
(8.98903e-09 -1.27436e-07 1.28986e-07)
(0 0 0)
(4.13319e-09 -9.54551e-09 6.05612e-09)
(7.83879e-09 -1.83311e-08 1.17424e-08)
(1.12181e-08 -2.6766e-08 1.74157e-08)
(1.43577e-08 -3.51815e-08 2.33782e-08)
(1.73339e-08 -4.38452e-08 2.98954e-08)
(2.02162e-08 -5.29683e-08 3.72038e-08)
(2.30692e-08 -6.27094e-08 4.55116e-08)
(2.59528e-08 -7.31787e-08 5.49904e-08)
(2.89192e-08 -8.44418e-08 6.57539e-08)
(3.20049e-08 -9.65199e-08 7.78138e-08)
(3.52095e-08 -1.09379e-07 9.09948e-08)
(3.8449e-08 -1.22897e-07 1.04783e-07)
(4.14881e-08 -1.36765e-07 1.18067e-07)
(4.39001e-08 -1.50213e-07 1.28802e-07)
(4.52242e-08 -1.61257e-07 1.34296e-07)
(4.48334e-08 -1.6782e-07 1.35626e-07)
(0 0 0)
(4.51972e-09 -9.88597e-09 6.51731e-09)
(8.57007e-09 -1.90007e-08 1.26253e-08)
(1.22596e-08 -2.778e-08 1.8696e-08)
(1.56817e-08 -3.6579e-08 2.50423e-08)
(1.89209e-08 -4.56895e-08 3.19359e-08)
(2.20569e-08 -5.53478e-08 3.96162e-08)
(2.51695e-08 -6.57404e-08 4.82903e-08)
(2.83422e-08 -7.70101e-08 5.81243e-08)
(3.16666e-08 -8.92598e-08 6.92237e-08)
(3.52464e-08 -1.02555e-07 8.15888e-08)
(3.91966e-08 -1.16913e-07 9.50318e-08)
(4.36307e-08 -1.32283e-07 1.09028e-07)
(4.86317e-08 -1.48467e-07 1.22458e-07)
(5.41866e-08 -1.64917e-07 1.33272e-07)
(5.96138e-08 -1.79349e-07 1.38596e-07)
(7.25033e-08 -1.97339e-07 1.34412e-07)
(0 0 0)
(0 0 0)
(0 0 0)
(0 0 0)
(0 0 0)
(0 0 0)
(0 0 0)
(0 0 0)
(0 0 0)
(0 0 0)
(0 0 0)
(0 0 0)
(0 0 0)
(0 0 0)
(0 0 0)
(0 0 0)
(-4.82604e-09 -1.9686e-10 2.83953e-09)
(0 0 0)
(6.60513e-10 -1.81089e-09 8.88108e-10)
(1.24923e-09 -3.46635e-09 1.72564e-09)
(1.77855e-09 -5.03468e-09 2.56874e-09)
(2.25657e-09 -6.56789e-09 3.46533e-09)
(2.68586e-09 -8.10098e-09 4.4564e-09)
(3.06201e-09 -9.65105e-09 5.57639e-09)
(3.37121e-09 -1.12167e-08 6.85239e-09)
(3.58655e-09 -1.27762e-08 8.30054e-09)
(3.66229e-09 -1.42841e-08 9.91825e-09)
(3.5271e-09 -1.56712e-08 1.16701e-08)
(3.07746e-09 -1.68478e-08 1.34654e-08)
(2.16903e-09 -1.77157e-08 1.51281e-08)
(6.02981e-10 -1.81811e-08 1.63724e-08)
(-1.86247e-09 -1.81417e-08 1.68407e-08)
(-5.12759e-09 -1.74629e-08 1.63819e-08)
(-8.65043e-09 -1.42446e-08 1.44467e-08)
(0 0 0)
(1.31153e-09 -3.56597e-09 1.75372e-09)
(2.48111e-09 -6.82793e-09 3.40727e-09)
(3.53391e-09 -9.92133e-09 5.07101e-09)
(4.48673e-09 -1.29494e-08 6.8387e-09)
(5.34615e-09 -1.59835e-08 8.79081e-09)
(6.10571e-09 -1.90617e-08 1.09956e-08)
(6.74131e-09 -2.21871e-08 1.35074e-08)
(7.2034e-09 -2.53241e-08 1.63594e-08)
(7.40539e-09 -2.83941e-08 1.95487e-08)
(7.20967e-09 -3.12765e-08 2.30107e-08)
(6.416e-09 -3.38248e-08 2.65787e-08)
(4.76295e-09 -3.59129e-08 2.99333e-08)
(1.98331e-09 -3.7525e-08 3.25738e-08)
(-1.95454e-09 -3.88448e-08 3.39145e-08)
(-6.12069e-09 -4.0086e-08 3.38029e-08)
(-8.52617e-09 -4.20958e-08 3.35074e-08)
(0 0 0)
(1.94384e-09 -5.21119e-09 2.57639e-09)
(3.6786e-09 -9.98242e-09 5.00476e-09)
(5.24285e-09 -1.45143e-08 7.44591e-09)
(6.66348e-09 -1.89612e-08 1.0036e-08)
(7.95374e-09 -2.3433e-08 1.28926e-08)
(9.10968e-09 -2.79951e-08 1.61165e-08)
(1.01037e-08 -3.26645e-08 1.97891e-08)
(1.08732e-08 -3.7406e-08 2.3963e-08)
(1.13024e-08 -4.21268e-08 2.86417e-08)
(1.11992e-08 -4.66787e-08 3.3747e-08)
(1.02706e-08 -5.08803e-08 3.90688e-08)
(8.11713e-09 -5.45857e-08 4.42127e-08)
(4.32842e-09 -5.78255e-08 4.85952e-08)
(-1.11022e-09 -6.0957e-08 5.15995e-08)
(-6.78379e-09 -6.42889e-08 5.30678e-08)
(-1.06767e-08 -6.80406e-08 5.42417e-08)
(0 0 0)
(2.54746e-09 -6.69214e-09 3.33714e-09)
(4.82276e-09 -1.28258e-08 6.48053e-09)
(6.87844e-09 -1.86638e-08 9.63593e-09)
(8.75308e-09 -2.44105e-08 1.29773e-08)
(1.04699e-08 -3.02172e-08 1.66554e-08)
(1.20333e-08 -3.61817e-08 2.08009e-08)
(1.34217e-08 -4.23455e-08 2.55212e-08)
(1.45741e-08 -4.86886e-08 3.08886e-08)
(1.53679e-08 -5.51242e-08 3.69194e-08)
(1.55853e-08 -6.14948e-08 4.35355e-08)
(1.48684e-08 -6.75813e-08 5.05093e-08)
(1.26791e-08 -7.31407e-08 5.74147e-08)
(8.35946e-09 -7.80021e-08 6.36334e-08)
(1.59331e-09 -8.21984e-08 6.8514e-08)
(-6.1103e-09 -8.5804e-08 7.17196e-08)
(-1.21508e-08 -8.94826e-08 7.42931e-08)
(0 0 0)
(3.11209e-09 -7.95625e-09 4.0198e-09)
(5.89359e-09 -1.5257e-08 7.80239e-09)
(8.41119e-09 -2.22225e-08 1.15917e-08)
(1.07164e-08 -2.9105e-08 1.55937e-08)
(1.28452e-08 -3.60971e-08 1.99872e-08)
(1.48161e-08 -4.33331e-08 2.49281e-08)
(1.66235e-08 -5.08866e-08 3.05457e-08)
(1.8226e-08 -5.87669e-08 3.6931e-08)
(1.95246e-08 -6.69121e-08 4.41136e-08)
(2.03271e-08 -7.51787e-08 5.20218e-08)
(2.029e-08 -8.33228e-08 6.04226e-08)
(1.8839e-08 -9.09709e-08 6.88669e-08)
(1.51413e-08 -9.75765e-08 7.6689e-08)
(8.42825e-09 -1.02385e-07 8.31605e-08)
(-3.49391e-10 -1.04662e-07 8.77727e-08)
(-8.87159e-09 -1.05651e-07 9.15548e-08)
(0 0 0)
(3.62734e-09 -8.95419e-09 4.61169e-09)
(6.87083e-09 -1.7181e-08 8.94527e-09)
(9.81052e-09 -2.50509e-08 1.3275e-08)
(1.25108e-08 -3.28592e-08 1.7832e-08)
(1.50221e-08 -4.08372e-08 2.28165e-08)
(1.73798e-08 -4.91552e-08 2.8403e-08)
(1.96021e-08 -5.79226e-08 3.47368e-08)
(2.16813e-08 -6.71866e-08 4.19217e-08)
(2.35708e-08 -7.69263e-08 4.99968e-08)
(2.51594e-08 -8.70407e-08 5.88934e-08)
(2.62268e-08 -9.73171e-08 6.83686e-08)
(2.63726e-08 -1.07362e-07 7.79291e-08)
(2.4953e-08 -1.16456e-07 8.67986e-08)
(2.12036e-08 -1.23313e-07 9.40504e-08)
(1.52884e-08 -1.26189e-07 9.90062e-08)
(5.70231e-09 -1.2077e-07 1.03252e-07)
(0 0 0)
(4.08358e-09 -9.64213e-09 5.10433e-09)
(7.7356e-09 -1.85136e-08 9.89281e-09)
(1.10475e-08 -2.70247e-08 1.46615e-08)
(1.40949e-08 -3.55054e-08 1.96585e-08)
(1.69412e-08 -4.42193e-08 2.50979e-08)
(1.9639e-08 -5.33684e-08 3.11651e-08)
(2.22303e-08 -6.30951e-08 3.80127e-08)
(2.47454e-08 -7.34836e-08 4.57497e-08)
(2.71989e-08 -8.4557e-08 5.44156e-08)
(2.9583e-08 -9.62697e-08 6.3936e-08)
(3.18562e-08 -1.08485e-07 7.40458e-08)
(3.39309e-08 -1.2093e-07 8.4186e-08)
(3.57061e-08 -1.33118e-07 9.34084e-08)
(3.72326e-08 -1.442e-07 1.00414e-07)
(3.88978e-08 -1.52667e-07 1.04133e-07)
(4.08606e-08 -1.57366e-07 1.06272e-07)
(0 0 0)
(4.47302e-09 -9.98444e-09 5.49404e-09)
(8.47298e-09 -1.91865e-08 1.06387e-08)
(1.20992e-08 -2.80425e-08 1.57425e-08)
(1.54355e-08 -3.69058e-08 2.10625e-08)
(1.85543e-08 -4.60623e-08 2.68183e-08)
(2.15209e-08 -5.57369e-08 3.31974e-08)
(2.43952e-08 -6.60967e-08 4.03515e-08)
(2.72352e-08 -7.72521e-08 4.83844e-08)
(3.00996e-08 -8.9255e-08 5.7327e-08)
(3.30526e-08 -1.02091e-07 6.70905e-08)
(3.61675e-08 -1.15659e-07 7.73873e-08)
(3.95368e-08 -1.29742e-07 8.76167e-08)
(4.33121e-08 -1.43964e-07 9.67462e-08)
(4.77942e-08 -1.5773e-07 1.03312e-07)
(5.29661e-08 -1.69422e-07 1.06008e-07)
(6.75178e-08 -1.85523e-07 1.03483e-07)
(0 0 0)
(0 0 0)
(0 0 0)
(0 0 0)
(0 0 0)
(0 0 0)
(0 0 0)
(0 0 0)
(0 0 0)
(0 0 0)
(0 0 0)
(0 0 0)
(0 0 0)
(0 0 0)
(0 0 0)
(0 0 0)
(-5.23163e-09 -7.52611e-10 2.66649e-09)
(0 0 0)
(6.48134e-10 -1.8255e-09 6.91662e-10)
(1.22347e-09 -3.49429e-09 1.34343e-09)
(1.73592e-09 -5.07568e-09 1.99865e-09)
(2.19063e-09 -6.62233e-09 2.69388e-09)
(2.58647e-09 -8.16967e-09 3.45962e-09)
(2.91418e-09 -9.73627e-09 4.32071e-09)
(3.1536e-09 -1.13236e-08 5.29559e-09)
(3.26955e-09 -1.2915e-08 6.3933e-09)
(3.20639e-09 -1.44744e-08 7.60761e-09)
(2.883e-09 -1.5947e-08 8.90759e-09)
(2.19029e-09 -1.72632e-08 1.02254e-08)
(9.93568e-10 -1.83437e-08 1.14457e-08)
(-8.57693e-10 -1.90886e-08 1.24139e-08)
(-3.48284e-09 -1.93097e-08 1.29912e-08)
(-6.61879e-09 -1.86809e-08 1.31565e-08)
(-9.58713e-09 -1.51007e-08 1.21846e-08)
(0 0 0)
(1.28775e-09 -3.59475e-09 1.36599e-09)
(2.43167e-09 -6.88308e-09 2.65305e-09)
(3.45207e-09 -1.00017e-08 3.94622e-09)
(4.3602e-09 -1.30547e-08 5.31691e-09)
(5.15571e-09 -1.61145e-08 6.82508e-09)
(5.82315e-09 -1.92212e-08 8.52018e-09)
(6.32673e-09 -2.23822e-08 1.04393e-08)
(6.60225e-09 -2.55694e-08 1.26014e-08)
(6.54674e-09 -2.87175e-08 1.49961e-08)
(6.00916e-09 -3.17258e-08 1.75665e-08)
(4.78994e-09 -3.44716e-08 2.0187e-08)
(2.66743e-09 -3.68398e-08 2.26446e-08)
(-4.98449e-10 -3.87652e-08 2.46549e-08)
(-4.47676e-09 -4.02432e-08 2.59504e-08)
(-8.10516e-09 -4.1225e-08 2.64753e-08)
(-9.43625e-09 -4.24267e-08 2.67181e-08)
(0 0 0)
(1.91041e-09 -5.25306e-09 2.00712e-09)
(3.60914e-09 -1.00623e-08 3.89766e-09)
(5.12794e-09 -1.46297e-08 5.79533e-09)
(6.48606e-09 -1.911e-08 7.80372e-09)
(7.68733e-09 -2.36145e-08 1.00106e-08)
(8.71579e-09 -2.82099e-08 1.24891e-08)
(9.5285e-09 -3.29165e-08 1.52953e-08)
(1.00444e-08 -3.77048e-08 1.84598e-08)
(1.01291e-08 -4.24921e-08 2.19733e-08)
(9.57982e-09 -4.71447e-08 2.57646e-08)
(8.11851e-09 -5.14944e-08 2.96719e-08)
(5.42501e-09 -5.53857e-08 3.34307e-08)
(1.29037e-09 -5.87711e-08 3.67106e-08)
(-3.9516e-09 -6.18078e-08 3.92339e-08)
(-8.69234e-09 -6.4628e-08 4.09163e-08)
(-1.11401e-08 -6.75394e-08 4.21174e-08)
(0 0 0)
(2.5067e-09 -6.74522e-09 2.60027e-09)
(4.73809e-09 -1.29266e-08 5.04792e-09)
(6.73848e-09 -1.88077e-08 7.50108e-09)
(8.53742e-09 -2.45934e-08 1.0092e-08)
(1.01471e-08 -3.04349e-08 1.29336e-08)
(1.15581e-08 -3.64299e-08 1.61207e-08)
(1.27316e-08 -4.26193e-08 1.97273e-08)
(1.35868e-08 -4.89834e-08 2.37963e-08)
(1.39831e-08 -5.54357e-08 2.83237e-08)
(1.36976e-08 -6.18194e-08 3.32317e-08)
(1.24033e-08 -6.7908e-08 3.83399e-08)
(9.67456e-09 -7.3429e-08 4.33571e-08)
(5.10908e-09 -7.81293e-08 4.79297e-08)
(-1.21495e-09 -8.18898e-08 5.17641e-08)
(-7.65598e-09 -8.4734e-08 5.46444e-08)
(-1.19915e-08 -8.74848e-08 5.67628e-08)
(0 0 0)
(3.06657e-09 -8.01814e-09 3.13276e-09)
(5.79909e-09 -1.53738e-08 6.0786e-09)
(8.25522e-09 -2.23877e-08 9.02489e-09)
(1.04767e-08 -2.93116e-08 1.21283e-08)
(1.24878e-08 -3.63369e-08 1.55227e-08)
(1.42923e-08 -4.35943e-08 1.93215e-08)
(1.58671e-08 -5.11519e-08 2.36136e-08)
(1.71512e-08 -5.90105e-08 2.84527e-08)
(1.80296e-08 -6.70957e-08 3.38397e-08)
(1.83091e-08 -7.52441e-08 3.96935e-08)
(1.76875e-08 -8.31807e-08 4.58185e-08)
(1.57219e-08 -9.04826e-08 5.18903e-08)
(1.18623e-08 -9.65296e-08 5.75096e-08)