/*--------------------------------*- C++ -*----------------------------------*\
| =========                 |                                                 |
| \\      /  F ield         | OpenFOAM: The Open Source CFD Toolbox           |
|  \\    /   O peration     | Version:  v1912                                 |
|   \\  /    A nd           | Website:  www.openfoam.com                      |
|    \\/     M anipulation  |                                                 |
\*---------------------------------------------------------------------------*/
FoamFile
{
    version     2.0;
    format      ascii;
    class       volVectorField;
    location    "0.36/fluid";
    object      U;
}
// * * * * * * * * * * * * * * * * * * * * * * * * * * * * * * * * * * * * * //

dimensions      [0 1 -1 0 0 0 0];


internalField   nonuniform List<vector> 
14592
(
(0.0879257 0.0167435 0.00057517)
(0.0742997 0.0105325 0.000666406)
(0.0621611 0.00603688 0.000235781)
(0.0563621 0.00271579 -0.000422931)
(0.0530279 0.00122261 -0.00127109)
(0.0512042 0.000574775 -0.0023063)
(0.0498757 0.000332988 -0.00357728)
(0.0487344 0.000242154 -0.00516151)
(0.0474445 0.000210412 -0.00716843)
(0.0460788 0.000177607 -0.00978286)
(0.0441071 0.000130268 -0.0132615)
(0.0421119 -3.18981e-05 -0.0180264)
(0.0383073 -0.000266623 -0.0248498)
(0.0347789 -0.00101558 -0.034366)
(0.0246791 -0.00156206 -0.0475244)
(0.0139817 -0.00458081 -0.0476563)
(0.104083 0.0164876 0.00066045)
(0.104607 0.0143473 0.000687414)
(0.10298 0.0103125 3.23586e-05)
(0.100752 0.00625568 -0.000978783)
(0.0985429 0.00383324 -0.00229568)
(0.0966659 0.00255315 -0.00392852)
(0.0948685 0.00200917 -0.00595476)
(0.0930386 0.00185736 -0.00849856)
(0.0908642 0.00192792 -0.0117361)
(0.0883865 0.00211349 -0.0159548)
(0.0849157 0.00236656 -0.0215571)
(0.0809554 0.00256589 -0.0291927)
(0.0741174 0.00271671 -0.0399522)
(0.0664699 0.00233202 -0.0548174)
(0.0481876 0.00180791 -0.0741606)
(0.0279932 -0.00201676 -0.0732349)
(0.103839 0.0104558 0.000670357)
(0.107659 0.0126078 0.000675435)
(0.110003 0.0107172 -2.24278e-05)
(0.110181 0.00776497 -0.00108818)
(0.109461 0.00562097 -0.00247513)
(0.108294 0.00434259 -0.00419942)
(0.106834 0.0037907 -0.00634361)
(0.105122 0.00372756 -0.00903999)
(0.102936 0.00400753 -0.0124751)
(0.100328 0.00452651 -0.0169566)
(0.0965812 0.00522696 -0.0229117)
(0.0921324 0.0059966 -0.0310499)
(0.0844231 0.00680912 -0.0425168)
(0.0754258 0.00721136 -0.0584653)
(0.0545604 0.00704059 -0.0792084)
(0.031074 0.00283775 -0.0790671)
(0.101996 0.00689552 0.000689728)
(0.105512 0.0100737 0.00071326)
(0.108733 0.00962217 2.79634e-05)
(0.110078 0.00791216 -0.00102237)
(0.11041 0.00640821 -0.00238856)
(0.109991 0.00546681 -0.00408478)
(0.109058 0.00513454 -0.00619033)
(0.107714 0.00530556 -0.00883496)
(0.105798 0.00589801 -0.0122005)
(0.103391 0.00685179 -0.0165951)
(0.0997689 0.00814014 -0.0224399)
(0.09535 0.00969737 -0.0304682)
(0.0874659 0.0115088 -0.0418203)
(0.0780612 0.0131236 -0.0577921)
(0.0562462 0.0138418 -0.0787324)
(0.0312761 0.00842431 -0.0793633)
(0.101074 0.00468599 0.000723533)
(0.103879 0.0077886 0.000788503)
(0.107006 0.0081848 0.000138659)
(0.108815 0.00743544 -0.000875007)
(0.10977 0.00659865 -0.00219467)
(0.109931 0.00610684 -0.003827)
(0.109503 0.00610254 -0.00584286)
(0.108594 0.00658089 -0.00836341)
(0.107075 0.00752252 -0.0115572)
(0.105049 0.00892157 -0.0157214)
(0.101795 0.0107871 -0.0212513)
(0.0977268 0.0131126 -0.0288861)
(0.090059 0.0159019 -0.0397144)
(0.080662 0.0186972 -0.0552013)
(0.0581253 0.0203668 -0.0756712)
(0.0316245 0.013188 -0.0772302)
(0.10068 0.00333021 0.000764861)
(0.102991 0.00596787 0.000882903)
(0.105896 0.00674022 0.000279875)
(0.107918 0.00661916 -0.000687418)
(0.109267 0.00633674 -0.00194934)
(0.109873 0.00628961 -0.00350219)
(0.10989 0.00664848 -0.00540591)
(0.109409 0.00747353 -0.00777021)
(0.108316 0.00880259 -0.0107466)
(0.106729 0.0107044 -0.0146159)
(0.103929 0.0132619 -0.0197383)
(0.100315 0.0166209 -0.0268506)
(0.0929929 0.0209318 -0.0369611)
(0.0837578 0.0259879 -0.0517333)
(0.0605587 0.0304407 -0.0714136)
(0.0324533 0.0222607 -0.0742182)
(0.100532 0.00228534 0.000813576)
(0.102603 0.00436048 0.000993459)
(0.105388 0.00528739 0.000445717)
(0.107553 0.00559532 -0.000467132)
(0.109186 0.00576948 -0.00166111)
(0.110155 0.0061254 -0.00311917)
(0.110582 0.00682659 -0.00488647)
(0.110558 0.00796827 -0.00705496)
(0.11 0.00962642 -0.00974879)
(0.109062 0.0119311 -0.013213)
(0.107097 0.0150175 -0.0177385)
(0.104561 0.0191716 -0.024001)
(0.0985894 0.0246454 -0.0328091)
(0.0909805 0.0315294 -0.0459528)
(0.0682757 0.0383453 -0.0632868)
(0.0392584 0.0287655 -0.0674401)
(0.100486 0.00138785 0.000866606)
(0.102489 0.00286752 0.00111331)
(0.105281 0.00380825 0.000625334)
(0.10759 0.0044058 -0.000229133)
(0.109457 0.00494589 -0.00135088)
(0.110725 0.00564647 -0.00270857)
(0.111507 0.00664531 -0.00433186)
(0.111895 0.00805565 -0.00629399)
(0.111842 0.00998424 -0.0086917)
(0.111521 0.0126339 -0.011732)
(0.110362 0.0162255 -0.0156373)
(0.10886 0.0213566 -0.0210135)
(0.104246 0.028649 -0.02847)
(0.0985121 0.0400082 -0.0399224)
(0.0770426 0.055072 -0.054959)
(0.0506876 0.0621061 -0.0619177)
(0.0878928 0.0167458 0.000337554)
(0.0741197 0.0105435 0.000288927)
(0.0617671 0.00604637 -0.000127366)
(0.0557813 0.00272241 -0.000707478)
(0.0522586 0.00122997 -0.00145339)
(0.050237 0.000584784 -0.00238231)
(0.0486699 0.000347219 -0.00354367)
(0.0472265 0.000261774 -0.00500099)
(0.0455407 0.000238169 -0.00684519)
(0.0436486 0.000217229 -0.0091998)
(0.0410022 0.000192093 -0.0122534)
(0.038073 7.15235e-05 -0.0161501)
(0.0332757 -7.84333e-05 -0.0213437)
(0.0280988 -0.000622944 -0.0271544)
(0.0178153 -0.000950935 -0.0333974)
(0.00576955 -0.00306013 -0.0240555)
(0.104037 0.0165008 0.000347516)
(0.104357 0.0143808 0.000169424)
(0.10242 0.0103542 -0.000492617)
(0.0998821 0.00630184 -0.00140842)
(0.0973489 0.00389014 -0.00258194)
(0.0951257 0.00262798 -0.00405575)
(0.0929171 0.00211023 -0.00591364)
(0.0905705 0.00199355 -0.00826359)
(0.0877203 0.00211197 -0.0112546)
(0.0843443 0.00236034 -0.0150919)
(0.0797 0.00270146 -0.0200744)
(0.0741429 0.00301688 -0.0264832)
(0.0654797 0.00333852 -0.0349488)
(0.0551391 0.00319326 -0.0446865)
(0.0361035 0.00285981 -0.054559)
(0.014006 -0.000609172 -0.0394606)
(0.103794 0.0104806 0.000343759)
(0.107402 0.0126651 0.000129862)
(0.109423 0.0107965 -0.000579121)
(0.109272 0.0078615 -0.00154715)
(0.108208 0.00574145 -0.00278439)
(0.106671 0.00449874 -0.00434115)
(0.104773 0.00399847 -0.00630746)
(0.102512 0.00400563 -0.00879941)
(0.0996074 0.00438101 -0.0119749)
(0.0960436 0.00502383 -0.0160563)
(0.0910391 0.00589017 -0.0213592)
(0.0848809 0.0068614 -0.0282044)
(0.0751839 0.00793882 -0.0372423)
(0.0632899 0.00860172 -0.0477189)
(0.0415276 0.00857537 -0.0583055)
(0.0159678 0.00390451 -0.0421955)
(0.101953 0.00692756 0.00036187)
(0.105258 0.010148 0.00016251)
(0.108161 0.00973051 -0.000534485)
(0.109185 0.00805021 -0.00148686)
(0.109181 0.00658389 -0.00270354)
(0.108402 0.00569622 -0.00423298)
(0.107045 0.00544089 -0.00616203)
(0.105169 0.00571803 -0.00860437)
(0.102556 0.00645612 -0.0117133)
(0.0992192 0.00760236 -0.0157114)
(0.0943637 0.00915072 -0.0209066)
(0.0882645 0.0110282 -0.0276372)
(0.0784004 0.0132607 -0.0365374)
(0.066093 0.0152699 -0.046932)
(0.0433268 0.016253 -0.0574838)
(0.0161564 0.00979246 -0.0415818)
(0.101033 0.00472565 0.000396095)
(0.103631 0.00788018 0.000236379)
(0.106448 0.00832079 -0.000425984)
(0.107949 0.007612 -0.00134249)
(0.108586 0.00682515 -0.00251449)
(0.10841 0.00640342 -0.0039831)
(0.107586 0.00649912 -0.00582698)
(0.106182 0.00711654 -0.00815199)
(0.104012 0.00825071 -0.0110991)
(0.10112 0.0099076 -0.0148824)
(0.0967072 0.0121254 -0.0197866)
(0.0910547 0.0148918 -0.0261593)
(0.0814792 0.0182719 -0.0345884)
(0.0692593 0.0216225 -0.0445412)
(0.0456756 0.0237247 -0.0546842)
(0.0167702 0.0149806 -0.0395535)
(0.100639 0.00337616 0.000437621)
(0.102749 0.00607351 0.000329473)
(0.105356 0.00689827 -0.00028746)
(0.107087 0.00682637 -0.00115898)
(0.108138 0.00660421 -0.00227568)
(0.108435 0.00664135 -0.00366858)
(0.108089 0.00712092 -0.00540592)
(0.107159 0.00811612 -0.00758322)
(0.105474 0.00968472 -0.0103259)
(0.1031 0.0119161 -0.0138355)
(0.0992323 0.0149374 -0.0183658)
(0.0941611 0.0189056 -0.0242724)
(0.0850297 0.024078 -0.0320748)
(0.073107 0.030027 -0.0414301)
(0.0487583 0.0353932 -0.0509876)
(0.0180039 0.0251435 -0.0370112)
(0.100493 0.00233659 0.00048589)
(0.10237 0.00447725 0.000437849)
(0.104871 0.00546226 -0.000125649)
(0.106763 0.00582542 -0.000944655)
(0.108123 0.00606725 -0.00199647)
(0.108815 0.00651768 -0.00329932)
(0.108924 0.00735448 -0.00490772)
(0.108511 0.00868898 -0.00690175)
(0.107445 0.010621 -0.00938306)
(0.105841 0.0133089 -0.0125267)
(0.10297 0.0169427 -0.0165318)
(0.0992196 0.0218372 -0.0217299)
(0.0916883 0.0283871 -0.0285019)
(0.0817948 0.0364451 -0.0367208)
(0.0578682 0.0446055 -0.0449153)
(0.0260641 0.0324123 -0.0326249)
(0.100448 0.00144238 0.000537818)
(0.102266 0.00299076 0.000554582)
(0.104787 0.00399252 4.88405e-05)
(0.106844 0.00464857 -0.000714011)
(0.108464 0.0052605 -0.00169681)
(0.109489 0.00606141 -0.00290409)
(0.109998 0.00720468 -0.00437602)
(0.110061 0.00882238 -0.00617635)
(0.109585 0.0110488 -0.00838269)
(0.108722 0.0141252 -0.0111418)
(0.106822 0.0183413 -0.0145977)
(0.104353 0.0243661 -0.0190535)
(0.0984428 0.0330225 -0.0247474)
(0.0909067 0.0460937 -0.031791)
(0.068264 0.0634928 -0.0386397)
(0.0392984 0.0677511 -0.0289705)
(0.0878674 0.0167476 0.000172456)
(0.073975 0.0105527 3.80121e-05)
(0.0614404 0.00605447 -0.000351396)
(0.0552818 0.00272821 -0.000854579)
(0.051576 0.00123615 -0.0014965)
(0.049355 0.000592741 -0.00230525)
(0.0475456 0.000357834 -0.00332767)
(0.0457924 0.000275164 -0.00461452)
(0.0436997 0.000254965 -0.00624034)
(0.0412547 0.000237731 -0.00828815)
(0.0378966 0.000218977 -0.0109069)
(0.0339698 0.000110754 -0.0141371)
(0.0281337 -1.82962e-05 -0.0183208)
(0.0215005 -0.000493748 -0.0226877)
(0.0115603 -0.000844941 -0.0269231)
(0.000937408 -0.00259605 -0.0192319)
(0.104001 0.0165133 0.00013522)
(0.104153 0.0144118 -0.000162307)
(0.101951 0.0103935 -0.000798905)
(0.0991302 0.006346 -0.00161068)
(0.096288 0.0039442 -0.00263216)
(0.0937239 0.00269819 -0.0039224)
(0.0911071 0.00220388 -0.0055636)
(0.0882452 0.00211821 -0.00764619)
(0.0847239 0.00227802 -0.0102927)
(0.0804503 0.00257898 -0.0136484)
(0.0746465 0.00299028 -0.0179426)
(0.0675213 0.00339133 -0.0232965)
(0.0571664 0.00382323 -0.0301492)
(0.0446616 0.0038054 -0.0375228)
(0.02591 0.00348208 -0.0441761)
(0.00579106 2.11894e-05 -0.0312683)
(0.103759 0.0105049 0.000122891)
(0.107193 0.0127199 -0.000217258)
(0.108938 0.0108726 -0.000901217)
(0.108488 0.00795433 -0.00176118)
(0.107095 0.00585679 -0.00283924)
(0.105194 0.00464724 -0.00420271)
(0.102863 0.00419482 -0.00594033)
(0.100056 0.00426704 -0.0081501)
(0.0964386 0.0047303 -0.010962)
(0.0919229 0.00548589 -0.0145351)
(0.0856808 0.00650068 -0.0191102)
(0.0778523 0.00764597 -0.024837)
(0.0663197 0.00894024 -0.0321607)
(0.0520921 0.00979112 -0.0401058)
(0.0305106 0.00982378 -0.0472307)
(0.00697665 0.00466242 -0.0333673)
(0.10192 0.0069591 0.00013896)
(0.105052 0.0102198 -0.000190058)
(0.107684 0.00983476 -0.000863148)
(0.108414 0.00818284 -0.00170827)
(0.10809 0.00675199 -0.00276711)
(0.106958 0.00591469 -0.00410541)
(0.10518 0.00573146 -0.00580902)
(0.102773 0.00610795 -0.00797392)
(0.0994659 0.00698219 -0.0107259)
(0.0951995 0.00830702 -0.0142249)
(0.0891243 0.0100946 -0.0187048)
(0.0813713 0.0122603 -0.0243312)
(0.0696576 0.0148636 -0.0315347)
(0.0549812 0.0172018 -0.0394067)
(0.032311 0.0184007 -0.0464944)
(0.00709258 0.0110873 -0.0328419)
(0.101001 0.00476448 0.000171386)
(0.10343 0.00796852 -0.000121433)
(0.105985 0.00845133 -0.000762293)
(0.107206 0.00778109 -0.00157415)
(0.107538 0.00704147 -0.00259202)
(0.107029 0.00668582 -0.00387503)
(0.105811 0.00687592 -0.00550158)
(0.103911 0.00762466 -0.007561)
(0.10109 0.00894084 -0.0101686)
(0.0973254 0.0108406 -0.0134783)
(0.0917548 0.0133895 -0.0177048)
(0.0845252 0.0165654 -0.0230268)
(0.0731416 0.0204905 -0.0298385)
(0.0585871 0.0243469 -0.0373598)
(0.0349711 0.0268751 -0.0441535)
(0.00782024 0.0169459 -0.031211)
(0.100608 0.00342079 0.000210681)
(0.102556 0.00617497 -3.44077e-05)
(0.104911 0.0070494 -0.000633141)
(0.106376 0.00702413 -0.00140354)
(0.107143 0.00685907 -0.00237081)
(0.107132 0.00697596 -0.00358495)
(0.106424 0.00756994 -0.005115)
(0.105041 0.00872649 -0.00704145)
(0.102761 0.0105227 -0.0094662)
(0.0995879 0.0130665 -0.0125341)
(0.0946481 0.0165274 -0.0164344)
(0.0881119 0.0210673 -0.0213586)
(0.0772472 0.027044 -0.0276469)
(0.0630828 0.0338208 -0.0346905)
(0.0385582 0.0400748 -0.0410596)
(0.00928383 0.0283653 -0.0291377)
(0.100463 0.00238591 0.000256009)
(0.102185 0.00458883 6.66492e-05)
(0.104446 0.00562884 -0.000482723)
(0.106091 0.00604436 -0.00120493)
(0.10719 0.00635044 -0.002113)
(0.107605 0.00689061 -0.00324553)
(0.107393 0.00785652 -0.0046594)
(0.106585 0.0093749 -0.00642231)
(0.105004 0.0115693 -0.00861635)
(0.102715 0.0146243 -0.0113673)
(0.0989179 0.018785 -0.0148215)
(0.0939166 0.0243895 -0.0191644)
(0.0848515 0.0319716 -0.0246343)
(0.0730136 0.0411663 -0.0308314)
(0.0487444 0.050693 -0.0362867)
(0.0180304 0.0368062 -0.0258264)
(0.100419 0.00149443 0.000304437)
(0.102089 0.00310788 0.000175111)
(0.104385 0.0041674 -0.000321024)
(0.106213 0.00487897 -0.000991669)
(0.107598 0.00555917 -0.00183672)
(0.108378 0.00645558 -0.00288244)
(0.10861 0.00773679 -0.00417298)
(0.10834 0.00955297 -0.00576234)
(0.107433 0.0120661 -0.00771226)
(0.106006 0.015554 -0.0101274)
(0.103342 0.0203764 -0.0131096)
(0.0998649 0.0272657 -0.016833)
(0.0926696 0.0372477 -0.0214286)
(0.0835927 0.0519838 -0.0267209)
(0.0605331 0.0717986 -0.0312464)
(0.032528 0.0747619 -0.0228869)
(0.0878481 0.0167494 6.67566e-05)
(0.0738603 0.0105606 -0.000106451)
(0.061176 0.00606178 -0.000452803)
(0.05487 0.00273382 -0.000874683)
(0.0510071 0.0012424 -0.00140658)
(0.0486183 0.00060116 -0.00207904)
(0.0466154 0.0003698 -0.00293126)
(0.0446314 0.000291939 -0.00399798)
(0.0422655 0.000279022 -0.00532955)
(0.0394892 0.00027304 -0.00696357)
(0.0357839 0.000273652 -0.00898452)
(0.0314513 0.000201567 -0.011331)
(0.0254115 0.000133997 -0.0141676)
(0.0185946 -0.000207326 -0.0167187)
(0.00945428 -0.00042587 -0.0185413)
(0.000274472 -0.00189852 -0.0120857)
(0.103973 0.0165248 5.71855e-06)
(0.10399 0.0144396 -0.000337368)
(0.101568 0.0104291 -0.000913562)
(0.0985052 0.00638651 -0.00160574)
(0.0953964 0.00399381 -0.00246081)
(0.0925412 0.00276258 -0.00354035)
(0.0895888 0.00228996 -0.00491578)
(0.0863258 0.00223362 -0.00665403)
(0.0823232 0.00243354 -0.00884093)
(0.0774638 0.00278772 -0.011555)
(0.071012 0.00327314 -0.0149289)
(0.0631429 0.00377374 -0.0189308)
(0.0522832 0.0043457 -0.0237496)
(0.0394008 0.00452298 -0.0283541)
(0.0218158 0.00437288 -0.0314743)
(0.00404608 0.000974816 -0.0205522)
(0.103732 0.0105273 -1.06179e-05)
(0.107025 0.0127697 -0.000397057)
(0.108541 0.0109418 -0.00101741)
(0.107835 0.00803881 -0.001752)
(0.106158 0.00596143 -0.00265542)
(0.103947 0.00478136 -0.00379709)
(0.101258 0.00437148 -0.00525456)
(0.0980238 0.00450158 -0.00710124)
(0.0938925 0.00504327 -0.00942859)
(0.088751 0.00590025 -0.0123254)
(0.081809 0.00705006 -0.0159304)
(0.0731798 0.00835988 -0.0202288)
(0.0610804 0.00986818 -0.0254022)
(0.0464351 0.0109432 -0.030398)
(0.0260603 0.0111481 -0.0337514)
(0.00504751 0.00568713 -0.0219359)
(0.101894 0.00698819 2.97059e-06)
(0.104888 0.0102852 -0.00037517)
(0.107294 0.00992952 -0.000986219)
(0.107774 0.00830309 -0.00170765)
(0.107174 0.0069037 -0.00259421)
(0.10574 0.00611067 -0.00371406)
(0.103615 0.00599042 -0.00514232)
(0.100795 0.00645302 -0.00695083)
(0.096989 0.00744425 -0.00922765)
(0.0921167 0.00892073 -0.0120624)
(0.0853605 0.0109091 -0.0155877)
(0.0768291 0.0133147 -0.0198009)
(0.0645569 0.0162239 -0.024869)
(0.0494691 0.018845 -0.0297857)
(0.0279725 0.020256 -0.0330703)
(0.00524737 0.0123544 -0.0214094)
(0.100976 0.00480016 3.18151e-05)
(0.103271 0.00804892 -0.000314869)
(0.105608 0.00856967 -0.000897628)
(0.106589 0.00793383 -0.00158991)
(0.10666 0.00723587 -0.00244095)
(0.105867 0.00693789 -0.00351327)
(0.104323 0.00720959 -0.00487577)
(0.102038 0.00807034 -0.006595)
(0.098754 0.00953935 -0.00875078)
(0.094428 0.0116384 -0.011429)
(0.0882235 0.0144524 -0.0147482)
(0.0802725 0.017945 -0.0187186)
(0.0683612 0.0222768 -0.0234805)
(0.0534212 0.0264963 -0.0281279)
(0.0308936 0.0293108 -0.0312026)
(0.00610395 0.0185508 -0.0201272)
(0.100584 0.00346155 6.67802e-05)
(0.102402 0.00626701 -0.000238027)
(0.104549 0.00718598 -0.000783849)
(0.105788 0.00720214 -0.00143996)
(0.106311 0.00708721 -0.00224721)
(0.106037 0.00727326 -0.0032604)
(0.105031 0.00796513 -0.00454055)
(0.103297 0.00925721 -0.00614735)
(0.100597 0.0112403 -0.00815019)
(0.0969178 0.0140318 -0.0106295)
(0.091403 0.017828 -0.0136851)
(0.0842189 0.022779 -0.0173423)
(0.0728682 0.0292997 -0.0217045)
(0.0583625 0.0365804 -0.0260015)
(0.0348248 0.043296 -0.0288035)
(0.00772256 0.0305545 -0.0185631)
(0.10044 0.00243068 0.000106928)
(0.102038 0.00468968 -0.000148946)
(0.104103 0.0057789 -0.000651569)
(0.105537 0.00624084 -0.0012658)
(0.106412 0.00660316 -0.00202204)
(0.10659 0.0072208 -0.00296549)
(0.106113 0.00829645 -0.00414726)
(0.105 0.00996762 -0.0056174)
(0.103055 0.012374 -0.00743062)
(0.100338 0.0157136 -0.00965592)
(0.0960558 0.0202636 -0.0123644)
(0.0905265 0.0263559 -0.0155889)
(0.0810599 0.0345963 -0.0193716)
(0.0689894 0.0444256 -0.0231183)
(0.0455642 0.0545927 -0.0254254)
(0.0167395 0.0395227 -0.0163779)
(0.100397 0.00154139 0.000149635)
(0.10195 0.00321338 -5.35573e-05)
(0.104062 0.00432449 -0.000509605)
(0.105696 0.00508516 -0.00107907)
(0.106877 0.00582498 -0.00178098)
(0.107448 0.00680353 -0.00265018)
(0.10745 0.00820122 -0.00372739)
(0.106921 0.0101806 -0.00505232)
(0.105711 0.0129216 -0.00666456)
(0.103938 0.0167204 -0.00862028)
(0.100885 0.0219737 -0.010961)
(0.0970104 0.0294212 -0.0137249)
(0.0895159 0.0401775 -0.0168913)
(0.0803512 0.0557145 -0.0200581)
(0.0580284 0.0764699 -0.0218963)
(0.0316758 0.0782747 -0.0144804)
(0.0878331 0.0167508 6.20196e-06)
(0.0737701 0.0105669 -0.000168068)
(0.0609654 0.00606765 -0.000455938)
(0.054537 0.00273824 -0.000791767)
(0.0505412 0.0012471 -0.00121066)
(0.0480081 0.000607196 -0.00174123)
(0.0458384 0.000377921 -0.00241508)
(0.0436551 0.000302499 -0.00325644)
(0.0410548 0.00029277 -0.0043008)
(0.0379952 0.000291132 -0.00556589)
(0.0339963 0.000298923 -0.00710664)
(0.0293317 0.000241494 -0.00884997)
(0.0231358 0.000198621 -0.0108948)
(0.0162451 -7.97958e-05 -0.0126489)
(0.00782304 -0.000252412 -0.0137199)
(-0.00015463 -0.00159478 -0.00895188)
(0.103951 0.0165345 -6.02476e-05)
(0.103861 0.0144629 -0.000389425)
(0.101262 0.0104593 -0.000873713)
(0.0979983 0.00642081 -0.00143141)
(0.0946651 0.00403559 -0.00210997)
(0.0915621 0.00281638 -0.00296555)
(0.0883237 0.00236119 -0.00405678)
(0.0847201 0.00232803 -0.00543282)
(0.080313 0.00255892 -0.00715476)
(0.0749669 0.00295296 -0.00926704)
(0.0679896 0.00349192 -0.0118535)
(0.0595418 0.0040612 -0.0148488)
(0.0483322 0.00472527 -0.0183486)
(0.0353029 0.00502215 -0.0215418)
(0.0188045 0.0049603 -0.0233886)
(0.00299732 0.00153065 -0.0151932)
(0.103711 0.0105464 -7.68725e-05)
(0.106892 0.0128121 -0.000445107)
(0.108224 0.0110007 -0.000967257)
(0.107305 0.00811081 -0.0015599)
(0.10539 0.00605039 -0.00227748)
(0.102915 0.00489493 -0.00318288)
(0.099921 0.00452037 -0.00433998)
(0.0963237 0.00469825 -0.00580317)
(0.0917603 0.00530412 -0.00763773)
(0.0860989 0.00624302 -0.00989556)
(0.0785895 0.00750017 -0.012664)
(0.0693375 0.0089377 -0.0158881)
(0.056843 0.0106077 -0.019654)
(0.0420302 0.0118432 -0.0231287)
(0.0227867 0.01216 -0.0251148)
(0.00389126 0.00642479 -0.0162262)
(0.101873 0.00701325 -6.60951e-05)
(0.104757 0.0103412 -0.00042839)
(0.106983 0.0100105 -0.000943089)
(0.107255 0.00840577 -0.00152487)
(0.106423 0.00703292 -0.00222867)
(0.104732 0.00627708 -0.0031164)
(0.10231 0.00620956 -0.00425006)
(0.0991383 0.00674394 -0.0056829)
(0.094913 0.00783213 -0.00747763)
(0.089536 0.00943321 -0.00968712)
(0.0822255 0.0115847 -0.0123942)
(0.0730855 0.0141819 -0.0155538)
(0.0604193 0.0173305 -0.0192413)
(0.0451628 0.0201658 -0.0226588)
(0.0247675 0.0217282 -0.0245966)
(0.00414247 0.0133492 -0.0158371)
(0.100957 0.00483089 -4.22464e-05)
(0.103145 0.0081178 -0.000378928)
(0.105307 0.00867084 -0.000870433)
(0.106091 0.00806423 -0.00142835)
(0.105941 0.00740149 -0.00210331)
(0.104905 0.00715214 -0.00295271)
(0.103084 0.00749248 -0.00403363)
(0.10047 0.00844715 -0.00539537)
(0.0967942 0.0100438 -0.00709452)
(0.0919986 0.0123084 -0.00918183)
(0.0852753 0.0153405 -0.0117301)
(0.0767564 0.019091 -0.014706)
(0.0644683 0.0237487 -0.0181669)
(0.0493691 0.0282552 -0.0213912)
(0.0278703 0.0312896 -0.0231917)
(0.00508504 0.0198803 -0.0148902)
(0.100566 0.00349659 -1.33138e-05)
(0.102281 0.00634578 -0.000315639)
(0.104262 0.00730263 -0.000776856)
(0.105314 0.00735397 -0.00130524)
(0.10563 0.00728146 -0.00194466)
(0.105132 0.00752588 -0.00274634)
(0.103871 0.00830023 -0.00376113)
(0.101838 0.00970611 -0.00503315)
(0.0987814 0.0118455 -0.00661116)
(0.0946775 0.014843 -0.00854253)
(0.0886906 0.0189156 -0.0108868)
(0.0809949 0.0242016 -0.0136242)
(0.0692951 0.0311574 -0.0167872)
(0.0546543 0.0388368 -0.0197568)
(0.0320558 0.0459058 -0.0213778)
(0.00681541 0.0323826 -0.0137174)
(0.100422 0.00246906 1.98313e-05)
(0.101923 0.00477584 -0.000242307)
(0.103832 0.00590691 -0.000668161)
(0.105091 0.00640824 -0.00116244)
(0.105777 0.0068182 -0.0017606)
(0.105752 0.00750131 -0.0025062)
(0.105049 0.00866959 -0.00344239)
(0.103672 0.0104694 -0.0046062)
(0.101418 0.0130537 -0.00603565)
(0.0983386 0.0166311 -0.00777106)
(0.0936541 0.021504 -0.0098523)
(0.087702 0.0279972 -0.0122695)
(0.0779426 0.0367696 -0.0150164)
(0.0657994 0.0471105 -0.0176051)
(0.0431898 0.0577799 -0.0189211)
(0.016016 0.0418449 -0.0121517)
(0.10038 0.00158151 5.50005e-05)
(0.101842 0.00330332 -0.00016388)
(0.103807 0.00445828 -0.000551619)
(0.105281 0.00526064 -0.00100945)
(0.106291 0.00605098 -0.00156362)
(0.106682 0.00709901 -0.00224942)
(0.106487 0.00859511 -0.00310187)
(0.105734 0.0107121 -0.00415031)
(0.104266 0.0136446 -0.00542159)
(0.102198 0.0177032 -0.00694767)
(0.0988216 0.0233141 -0.00874788)
(0.0946276 0.03122 -0.0108201)
(0.0869189 0.0426013 -0.0131184)
(0.0777781 0.058783 -0.0152971)
(0.0561683 0.0802809 -0.0163223)
(0.0312752 0.0813339 -0.0107462)
(0.0878222 0.0167519 -1.95241e-05)
(0.073704 0.0105718 -0.000165092)
(0.0608097 0.00607224 -0.000380695)
(0.054289 0.00274188 -0.00062452)
(0.0501938 0.00125112 -0.00092542)
(0.0475549 0.000612618 -0.00130587)
(0.0452674 0.000385626 -0.00178787)
(0.042951 0.000313339 -0.00238546)
(0.0402061 0.00030825 -0.0031189)
(0.0369876 0.000313684 -0.00399024)
(0.0328523 0.00033293 -0.0050254)
(0.0280628 0.00029543 -0.00615235)
(0.0218838 0.00028364 -0.00741371)
(0.0150913 6.26521e-05 -0.00840606)
(0.00710195 -5.86522e-05 -0.0088285)
(-0.000221886 -0.00134213 -0.00557725)
(0.103935 0.0165421 -7.70872e-05)
(0.103766 0.0144812 -0.000345507)
(0.101034 0.0104829 -0.00071104)
(0.0976185 0.00644792 -0.00111966)
(0.0941161 0.00406866 -0.00161042)
(0.0908286 0.00285904 -0.002227)
(0.0873832 0.00241783 -0.00301153)
(0.0835433 0.0024035 -0.00399522)
(0.0788721 0.0026599 -0.00521464)
(0.0732314 0.0030874 -0.00668674)
(0.0659739 0.00367193 -0.00845147)
(0.057265 0.00430065 -0.0104315)
(0.0459935 0.00504467 -0.0126531)
(0.033088 0.00544162 -0.0145487)
(0.0173101 0.0054618 -0.0153598)
(0.00265415 0.00197975 -0.00969657)
(0.103695 0.0105615 -9.10501e-05)
(0.106794 0.0128454 -0.000390268)
(0.107987 0.011047 -0.000784794)
(0.106908 0.00816744 -0.00121945)
(0.104813 0.00612022 -0.0017389)
(0.102141 0.00498388 -0.00239188)
(0.0989254 0.00463668 -0.00322453)
(0.0950752 0.00485151 -0.00427182)
(0.0902279 0.00550693 -0.00557312)
(0.0842494 0.00650907 -0.0071502)
(0.0764334 0.00784895 -0.00904438)
(0.066896 0.0093854 -0.011184)
(0.0543195 0.0111806 -0.0135855)
(0.0396334 0.0125418 -0.0156622)
(0.0211533 0.0129517 -0.0165413)
(0.00351241 0.00700687 -0.0103816)
(0.101859 0.00703306 -8.3264e-05)
(0.104661 0.0103853 -0.00037851)
(0.106751 0.0100742 -0.000767624)
(0.106867 0.00848637 -0.00119421)
(0.105859 0.00713404 -0.00170348)
(0.103976 0.00640677 -0.00234352)
(0.10134 0.00637951 -0.00315914)
(0.0979232 0.00696828 -0.00418454)
(0.0934232 0.00812931 -0.00545734)
(0.0877404 0.00982297 -0.00700009)
(0.0801333 0.0120942 -0.00885103)
(0.0707196 0.0148305 -0.0109453)
(0.0579746 0.0181506 -0.0132915)
(0.0428474 0.0211393 -0.0153267)
(0.0231945 0.0228086 -0.0161693)
(0.00380666 0.0140849 -0.0101026)
(0.100943 0.00485517 -6.54794e-05)
(0.103052 0.00817204 -0.00034182)
(0.105084 0.00875033 -0.000713748)
(0.105718 0.0081664 -0.00112268)
(0.105401 0.00753077 -0.00161078)
(0.104185 0.00731855 -0.00222285)
(0.102162 0.00771084 -0.0030002)
(0.0993204 0.00873583 -0.00397438)
(0.0953901 0.0104268 -0.00517889)
(0.0903128 0.0128116 -0.00663531)
(0.0833166 0.0159991 -0.00837548)
(0.0745501 0.0199293 -0.0103434)
(0.0621928 0.0248084 -0.0125367)
(0.0472269 0.0295056 -0.0144439)
(0.0264212 0.0326767 -0.0152029)
(0.0048084 0.0208101 -0.00946023)
(0.100552 0.0035242 -4.38981e-05)
(0.102192 0.00640772 -0.000294742)
(0.104048 0.00739416 -0.000644217)
(0.104959 0.00747273 -0.00103134)
(0.10512 0.00743276 -0.00149337)
(0.104455 0.0077215 -0.00207064)
(0.103009 0.0085578 -0.00280004)
(0.100769 0.0100479 -0.00370964)
(0.0974821 0.0123011 -0.00482773)
(0.0931266 0.0154449 -0.0061742)
(0.0868966 0.0197084 -0.00777259)
(0.0789872 0.025218 -0.0095775)
(0.0672324 0.0324534 -0.0115718)
(0.052734 0.0403768 -0.0133127)
(0.0307695 0.0476395 -0.0139673)
(0.00661084 0.0335791 -0.00867404)
(0.10041 0.00249924 -1.92102e-05)
(0.101839 0.00484349 -0.000240213)
(0.10363 0.0060072 -0.000563505)
(0.104759 0.006539 -0.00092553)
(0.105301 0.00698539 -0.00135739)
(0.105126 0.00771806 -0.00189393)
(0.104257 0.00895554 -0.00256668)
(0.102699 0.0108499 -0.00339906)
(0.100246 0.0135622 -0.00441247)
(0.096954 0.0173059 -0.00562321)
(0.0920671 0.0223975 -0.00704313)
(0.0859497 0.0291509 -0.00863658)
(0.076159 0.0382529 -0.0103649)
(0.0641794 0.0488923 -0.0118725)
(0.0421293 0.0598214 -0.0123673)
(0.0159187 0.0433059 -0.00768536)
(0.100368 0.00161298 6.93961e-06)
(0.101762 0.00337382 -0.000181943)
(0.103619 0.00456296 -0.000477021)
(0.104972 0.00539752 -0.000812223)
(0.105852 0.00622645 -0.00121192)
(0.106109 0.00732689 -0.00170503)
(0.10577 0.0088962 -0.00231738)
(0.104864 0.0111135 -0.00306739)
(0.103229 0.0141825 -0.00396927)
(0.100991 0.0184201 -0.00503494)
(0.0974579 0.0242681 -0.0062642)
(0.0931541 0.0324622 -0.00762992)
(0.0854496 0.044214 -0.00907241)
(0.0765092 0.0607497 -0.0103308)
(0.0553983 0.0826047 -0.0106844)
(0.0313531 0.0831873 -0.0068093)
(0.087815 0.0167525 -2.10309e-05)
(0.07366 0.0105752 -0.000117571)
(0.0607056 0.00607525 -0.000250405)
(0.0541222 0.00274425 -0.000398889)
(0.0499589 0.00125364 -0.000580392)
(0.0472468 0.000615894 -0.000810047)
(0.0448777 0.000390087 -0.001101)
(0.0424687 0.000319277 -0.00146114)
(0.0396233 0.000316172 -0.00190192)
(0.0362945 0.000324421 -0.00242239)
(0.0320643 0.000348128 -0.00303638)
(0.0271911 0.000318823 -0.0036975)
(0.0210252 0.000319995 -0.00442677)
(0.0143135 0.000125387 -0.00499071)
(0.00663019 2.42928e-05 -0.00520195)
(-0.000265176 -0.0012306 -0.00329941)
(0.103925 0.0165474 -6.0093e-05)
(0.103702 0.0144938 -0.000234466)
(0.100881 0.0104991 -0.00046172)
(0.0973625 0.00646648 -0.000711458)
(0.0937444 0.00409121 -0.00100882)
(0.0903301 0.00288799 -0.00138193)
(0.0867424 0.00245601 -0.00185652)
(0.0827401 0.00245396 -0.00245067)
(0.0778881 0.00272669 -0.00318519)
(0.0720473 0.00317517 -0.00406697)
(0.0646021 0.00378758 -0.0051166)
(0.0557252 0.00445161 -0.00628181)
(0.0444251 0.00524196 -0.00757045)
(0.0316328 0.00569461 -0.00864919)
(0.0163616 0.00575581 -0.00905794)
(0.002455 0.00222878 -0.00571872)
(0.103685 0.0105719 -6.90034e-05)
(0.106729 0.0128683 -0.000263208)
(0.107829 0.0110789 -0.00050891)
(0.10664 0.00820639 -0.000774587)
(0.104422 0.00616817 -0.00108956)
(0.101614 0.00504484 -0.00148483)
(0.0982468 0.00471617 -0.00198877)
(0.0942228 0.00495591 -0.0026217)
(0.0891811 0.00564451 -0.00340609)
(0.0829871 0.00668863 -0.00435159)
(0.0749655 0.00808281 -0.00547942)
(0.065244 0.00968319 -0.00674016)
(0.0526266 0.011558 -0.00813541)
(0.0380578 0.0129964 -0.0093194)
(0.0201155 0.0134596 -0.0097637)
(0.00329224 0.00737024 -0.00612692)
(0.101849 0.00704675 -6.44434e-05)
(0.104597 0.0104157 -0.000256219)
(0.106595 0.0101181 -0.000498679)
(0.106605 0.00854189 -0.000759331)
(0.105477 0.00720361 -0.00106808)
(0.103462 0.00649585 -0.00145543)
(0.100678 0.00649602 -0.00194902)
(0.0970931 0.00712176 -0.0025687)
(0.0924048 0.00833209 -0.00333594)
(0.0865136 0.0100881 -0.00426091)
(0.078707 0.0124393 -0.00536313)
(0.0691159 0.0152676 -0.00659721)
(0.0563306 0.0186997 -0.00796047)
(0.0413212 0.0217863 -0.00912084)
(0.0221921 0.0235204 -0.00954529)
(0.00361141 0.0145658 -0.00596539)
(0.100934 0.00487196 -5.34296e-05)
(0.10299 0.00820947 -0.00023363)
(0.104934 0.00880513 -0.000465558)
(0.105466 0.00823681 -0.000715376)
(0.105036 0.00761977 -0.0010112)
(0.103695 0.00743297 -0.00138151)
(0.101534 0.00786079 -0.00185189)
(0.098535 0.00893379 -0.00244059)
(0.0944295 0.010689 -0.00316676)
(0.0891598 0.0131554 -0.00404011)
(0.0819791 0.0164479 -0.00507667)
(0.0730512 0.0204987 -0.00623653)
(0.0606584 0.0255247 -0.00751124)
(0.0458103 0.0303474 -0.00859841)
(0.0254953 0.0336052 -0.00897867)
(0.00464905 0.0214356 -0.00559286)
(0.100543 0.00354329 -4.01424e-05)
(0.102133 0.00645046 -0.00020466)
(0.103906 0.00745726 -0.00042275)
(0.104721 0.00755455 -0.00065919)
(0.104775 0.00753691 -0.000939076)
(0.103995 0.00785603 -0.00128816)
(0.102422 0.00873475 -0.00172938)
(0.100038 0.0102825 -0.00227893)
(0.0965931 0.0126132 -0.00295291)
(0.0920653 0.0158565 -0.00376018)
(0.0856706 0.0202493 -0.00471208)
(0.0776217 0.0259093 -0.00577508)
(0.0658396 0.0333305 -0.006933)
(0.0514624 0.0414152 -0.00792281)