/*--------------------------------*- C++ -*----------------------------------*\
| =========                 |                                                 |
| \\      /  F ield         | OpenFOAM: The Open Source CFD Toolbox           |
|  \\    /   O peration     | Version:  v1912                                 |
|   \\  /    A nd           | Website:  www.openfoam.com                      |
|    \\/     M anipulation  |                                                 |
\*---------------------------------------------------------------------------*/
FoamFile
{
    version     2.0;
    format      ascii;
    class       volVectorField;
    location    "0.35/solid";
    object      D;
}
// * * * * * * * * * * * * * * * * * * * * * * * * * * * * * * * * * * * * * //

dimensions      [0 1 0 0 0 0 0];


internalField   nonuniform List<vector> 
256
(
(1.5507e-08 2.7377e-08 1.62799e-08)
(9.67499e-10 1.6038e-08 1.49688e-08)
(-3.48377e-10 1.58834e-08 1.50933e-08)
(-1.47035e-08 2.6655e-08 1.67509e-08)
(2.39495e-08 2.19446e-08 2.7457e-08)
(3.91636e-09 1.5857e-08 2.58339e-08)
(-1.68355e-09 1.54184e-08 2.6201e-08)
(-2.14861e-08 2.03961e-08 2.86801e-08)
(2.50219e-08 1.54903e-08 3.13961e-08)
(5.02548e-09 1.31483e-08 2.97078e-08)
(-8.48586e-10 1.24388e-08 3.02554e-08)
(-2.06325e-08 1.31891e-08 3.31516e-08)
(2.52178e-08 1.12669e-08 3.36027e-08)
(5.6338e-09 9.98558e-09 3.18851e-08)
(7.99451e-10 9.03102e-09 3.25619e-08)
(-1.85834e-08 8.27625e-09 3.57416e-08)
(2.61914e-08 8.30964e-09 3.5627e-08)
(6.57856e-09 6.83339e-09 3.39546e-08)
(2.42027e-09 5.65011e-09 3.47301e-08)
(-1.69931e-08 4.6737e-09 3.80616e-08)
(2.82706e-08 5.89877e-09 3.80976e-08)
(8.05821e-09 3.84886e-09 3.65115e-08)
(3.81487e-09 2.44063e-09 3.73698e-08)
(-1.62079e-08 1.63429e-09 4.07797e-08)
(3.19414e-08 1.58465e-09 4.16569e-08)
(1.01798e-08 -4.64252e-10 4.01807e-08)
(4.87256e-09 -2.09347e-09 4.11153e-08)
(-1.67603e-08 -3.30938e-09 4.45607e-08)
(3.76729e-08 -2.43333e-08 4.67094e-08)
(1.25298e-08 -2.37654e-08 4.5417e-08)
(5.94467e-09 -2.54811e-08 4.64138e-08)
(-1.91916e-08 -2.95911e-08 4.97845e-08)
(1.23094e-08 1.40124e-08 8.88272e-10)
(4.47117e-10 4.37141e-09 1.35559e-09)
(-1.0397e-10 4.2051e-09 1.51482e-09)
(-1.16962e-08 1.3307e-08 1.35726e-09)
(1.92221e-08 1.3e-08 6.96618e-09)
(2.81183e-09 7.6541e-09 7.87026e-09)
(-1.26385e-09 7.16647e-09 8.25348e-09)
(-1.73399e-08 1.13951e-08 8.08302e-09)
(1.99736e-08 1.03799e-08 1.10759e-08)
(3.71603e-09 8.21482e-09 1.21694e-08)
(-5.43332e-10 7.4605e-09 1.27132e-08)
(-1.64848e-08 8.02667e-09 1.26628e-08)
(2.00249e-08 7.92211e-09 1.34082e-08)
(4.22426e-09 6.6745e-09 1.46e-08)
(9.50782e-10 5.68845e-09 1.52628e-08)
(-1.4539e-08 4.90124e-09 1.535e-08)
(2.09164e-08 5.65766e-09 1.51373e-08)
(5.09146e-09 4.18641e-09 1.63992e-08)
(2.4448e-09 2.98249e-09 1.71559e-08)
(-1.30618e-08 2.00894e-09 1.73617e-08)
(2.30087e-08 3.51861e-09 1.69733e-08)
(6.52158e-09 1.46447e-09 1.82835e-08)
(3.72114e-09 4.49356e-11 1.91187e-08)
(-1.24481e-08 -7.42754e-10 1.94334e-08)
(2.6802e-08 -8.69593e-11 1.91418e-08)
(8.62339e-09 -2.13452e-09 2.04782e-08)
(4.66039e-09 -3.7592e-09 2.13751e-08)
(-1.3257e-08 -4.94531e-09 2.17892e-08)
(3.27327e-08 -2.25537e-08 2.07806e-08)
(1.09611e-08 -2.18291e-08 2.21343e-08)
(5.63938e-09 -2.35048e-08 2.30557e-08)
(-1.60073e-08 -2.76968e-08 2.35104e-08)
(1.02622e-08 1.02957e-08 3.21602e-10)
(3.94574e-12 1.74358e-09 8.5187e-10)
(1.70313e-10 1.59398e-09 9.68939e-10)
(-9.8143e-09 9.6976e-09 6.55489e-10)
(1.62637e-08 8.30236e-09 3.91703e-09)
(1.85191e-09 3.54653e-09 4.95588e-09)
(-7.87773e-10 3.08399e-09 5.24666e-09)
(-1.48452e-08 6.83812e-09 4.74574e-09)
(1.6914e-08 6.28415e-09 7.51688e-09)
(2.58494e-09 4.30224e-09 8.75827e-09)
(-1.70974e-10 3.57534e-09 9.17774e-09)
(-1.41555e-08 4.06883e-09 8.72249e-09)
(1.69103e-08 4.6984e-09 1.01125e-08)
(3.00932e-09 3.50156e-09 1.14501e-08)
(1.17488e-09 2.54459e-09 1.19702e-08)
(-1.23811e-08 1.80835e-09 1.16202e-08)
(1.77399e-08 3.15602e-09 1.20333e-08)
(3.80538e-09 1.70214e-09 1.34297e-08)
(2.54766e-09 5.29331e-10 1.40327e-08)
(-1.10286e-08 -3.67274e-10 1.37918e-08)
(1.9843e-08 1.64454e-09 1.37528e-08)
(5.19282e-09 -4.08005e-10 1.51797e-08)
(3.70899e-09 -1.79264e-09 1.58511e-08)
(-1.0578e-08 -2.49078e-09 1.57198e-08)
(2.37602e-08 -1.2142e-09 1.53803e-08)
(7.28966e-09 -3.25581e-09 1.68134e-08)
(4.52457e-09 -4.83832e-09 1.75329e-08)
(-1.16366e-08 -5.93603e-09 1.74995e-08)
(2.9838e-08 -2.22291e-08 1.64284e-08)
(9.6265e-09 -2.14319e-08 1.78637e-08)
(5.39638e-09 -2.30566e-08 1.85925e-08)
(-1.46424e-08 -2.72211e-08 1.85926e-08)
(9.21865e-09 9.2479e-09 5.69474e-10)
(-1.91649e-10 1.30066e-09 8.88909e-10)
(2.73306e-10 1.16818e-09 9.72337e-10)
(-8.89658e-09 8.74178e-09 8.074e-10)
(1.47045e-08 6.32817e-09 3.00981e-09)
(1.36763e-09 1.92082e-09 3.66813e-09)
(-6.14542e-10 1.50052e-09 3.87988e-09)
(-1.3631e-08 5.02755e-09 3.61227e-09)
(1.53484e-08 3.82545e-09 5.78118e-09)
(1.99548e-09 1.97152e-09 6.58443e-09)
(-1.09827e-10 1.29584e-09 6.89436e-09)
(-1.31426e-08 1.79196e-09 6.67134e-09)
(1.53548e-08 2.26987e-09 8.15326e-09)
(2.36193e-09 1.12103e-09 9.02496e-09)
(1.09756e-09 2.16346e-10 9.41493e-09)
(-1.15686e-08 -4.4194e-10 9.28481e-09)
(1.61462e-08 1.04021e-09 1.0031e-08)
(3.0977e-09 -3.88694e-10 1.0947e-08)
(2.36155e-09 -1.51026e-09 1.14051e-08)
(-1.03432e-08 -2.31449e-09 1.13702e-08)
(1.82285e-08 -7.0504e-11 1.15962e-08)
(4.43806e-09 -2.11086e-09 1.25389e-08)
(3.4285e-09 -3.44504e-09 1.30531e-08)
(-1.00104e-08 -4.04611e-09 1.31086e-08)
(2.21965e-08 -2.57666e-09 1.29595e-08)
(6.51619e-09 -4.60284e-09 1.39102e-08)
(4.14513e-09 -6.13586e-09 1.44618e-08)
(-1.12342e-08 -7.147e-09 1.45942e-08)
(2.83504e-08 -2.28976e-08 1.40183e-08)
(8.84334e-09 -2.20544e-08 1.49694e-08)
(4.92541e-09 -2.36337e-08 1.55253e-08)
(-1.44136e-08 -2.77526e-08 1.56836e-08)
(8.70418e-09 8.76788e-09 5.97248e-10)
(-2.62123e-10 1.15243e-09 7.62723e-10)
(2.90838e-10 1.03379e-09 8.21394e-10)
(-8.46682e-09 8.33029e-09 7.64053e-10)
(1.39e-08 5.43174e-09 2.35369e-09)
(1.15145e-09 1.22278e-09 2.71495e-09)
(-5.96535e-10 8.40284e-10 2.86521e-09)
(-1.3063e-08 4.2662e-09 2.77973e-09)
(1.45394e-08 2.47192e-09 4.35727e-09)
(1.71348e-09 6.9964e-10 4.81203e-09)
(-1.85492e-10 7.29797e-11 5.03394e-09)
(-1.2723e-08 6.00287e-10 4.99295e-09)
(1.4562e-08 6.59487e-10 6.2352e-09)
(2.03647e-09 -4.50399e-10 6.73709e-09)
(9.11273e-10 -1.30337e-09 7.01909e-09)
(-1.1314e-08 -1.88652e-09 7.05247e-09)
(1.53288e-08 -5.88488e-10 7.82514e-09)
(2.72255e-09 -1.98951e-09 8.36049e-09)
(2.08626e-09 -3.06045e-09 8.69476e-09)
(-1.01997e-08 -3.78427e-09 8.80279e-09)
(1.73782e-08 -1.59709e-09 9.15768e-09)
(4.01657e-09 -3.61544e-09 9.71776e-09)
(3.07995e-09 -4.90158e-09 1.00954e-08)
(-9.9514e-09 -5.42504e-09 1.02706e-08)
(2.13478e-08 -4.0069e-09 1.03219e-08)
(6.06564e-09 -6.00698e-09 1.0894e-08)
(3.72416e-09 -7.49604e-09 1.13001e-08)
(-1.12757e-08 -8.44405e-09 1.15299e-08)
(2.75248e-08 -2.39179e-08 1.13495e-08)
(8.37386e-09 -2.30329e-08 1.19215e-08)
(4.43638e-09 -2.45743e-08 1.23301e-08)
(-1.45626e-08 -2.86589e-08 1.25804e-08)
(8.43592e-09 8.47757e-09 4.82048e-10)
(-2.89597e-10 1.04752e-09 5.63961e-10)
(2.87416e-10 9.38978e-10 6.03021e-10)
(-8.25173e-09 8.08734e-09 5.92354e-10)
(1.3469e-08 4.94236e-09 1.6998e-09)
(1.04584e-09 8.48125e-10 1.88955e-09)
(-6.15002e-10 4.93809e-10 1.98995e-09)
(-1.27842e-08 3.87448e-09 1.98275e-09)
(1.40949e-08 1.7096e-09 3.05533e-09)
(1.56333e-09 -1.01987e-11 3.30304e-09)
(-2.68781e-10 -5.9896e-10 3.4521e-09)
(-1.25358e-08 -3.97716e-11 3.48023e-09)
(1.41205e-08 -3.52655e-10 4.37655e-09)
(1.85178e-09 -1.43256e-09 4.65656e-09)
(7.51005e-10 -2.2444e-09 4.84719e-09)
(-1.12376e-08 -2.76921e-09 4.92711e-09)
(1.48671e-08 -1.74577e-09 5.5509e-09)
(2.49867e-09 -3.12152e-09 5.85548e-09)
(1.86059e-09 -4.15177e-09 6.08286e-09)
(-1.02054e-08 -4.81546e-09 6.21461e-09)
(1.68854e-08 -2.81383e-09 6.56656e-09)
(3.75397e-09 -4.80856e-09 6.89136e-09)
(2.80006e-09 -6.05651e-09 7.14948e-09)
(-1.00172e-08 -6.52493e-09 7.32684e-09)
(2.08404e-08 -5.24121e-09 7.47884e-09)
(5.77471e-09 -7.21235e-09 7.81565e-09)
(3.39242e-09 -8.66716e-09 8.09395e-09)
(-1.14051e-08 -9.57448e-09 8.3074e-09)
(2.7019e-08 -2.49137e-08 8.33387e-09)
(8.06261e-09 -2.39861e-08 8.67043e-09)
(4.05653e-09 -2.54983e-08 8.95026e-09)
(-1.47606e-08 -2.95668e-08 9.17878e-09)
(8.29124e-09 8.30587e-09 3.04442e-10)
(-3.03035e-10 9.77433e-10 3.42567e-10)
(2.83775e-10 8.75402e-10 3.64947e-10)
(-8.13784e-09 7.9451e-09 3.67267e-10)
(1.32335e-08 4.65894e-09 1.02602e-09)
(9.8867e-10 6.29403e-10 1.11863e-09)
(-6.30083e-10 2.93343e-10 1.17626e-09)
(-1.26385e-08 3.65335e-09 1.18756e-09)
(1.38449e-08 1.27797e-09 1.81327e-09)
(1.47719e-09 -4.09409e-10 1.93797e-09)
(-3.226e-10 -9.73162e-10 2.0238e-09)
(-1.24409e-08 -3.91498e-10 2.05682e-09)
(1.38655e-08 -9.51676e-10 2.59164e-09)
(1.74087e-09 -2.01072e-09 2.7358e-09)
(6.50265e-10 -2.79492e-09 2.846e-09)
(-1.1207e-08 -3.2818e-09 2.90881e-09)
(1.45956e-08 -2.48351e-09 3.30397e-09)
(2.36031e-09 -3.84049e-09 3.46354e-09)
(1.71788e-09 -4.84314e-09 3.59551e-09)
(-1.02261e-08 -5.46787e-09 3.6883e-09)
(1.6591e-08 -3.64506e-09 3.93805e-09)
(3.58849e-09 -5.62126e-09 4.11078e-09)
(2.6213e-09 -6.84327e-09 4.2611e-09)
(-1.00769e-08 -7.27674e-09 4.38023e-09)
(2.05321e-08 -6.12029e-09 4.52193e-09)
(5.58849e-09 -8.06803e-09 4.70305e-09)
(3.17921e-09 -9.49966e-09 4.86543e-09)
(-1.15049e-08 -1.0383e-08 5.00527e-09)
(2.67082e-08 -2.56683e-08 5.08395e-09)
(7.86077e-09 -2.47051e-08 5.26464e-09)
(3.81191e-09 -2.61975e-08 5.42788e-09)
(-1.49043e-08 -3.02618e-08 5.57718e-09)
(8.22569e-09 8.22593e-09 1.03415e-10)
(-3.09305e-10 9.43133e-10 1.14658e-10)
(2.82476e-10 8.44279e-10 1.21946e-10)
(-8.08641e-09 7.87925e-09 1.2381e-10)
(1.3126e-08 4.5252e-09 3.42718e-10)
(9.61983e-10 5.25284e-10 3.70728e-10)
(-6.36562e-10 1.98145e-10 3.89511e-10)
(-1.25725e-08 3.54979e-09 3.95217e-10)
(1.37284e-08 1.07731e-09 6.01255e-10)
(1.43607e-09 -5.94326e-10 6.39606e-10)
(-3.4689e-10 -1.14576e-09 6.67623e-10)
(-1.23972e-08 -5.52957e-10 6.80562e-10)
(1.37443e-08 -1.23355e-09 8.57992e-10)
(1.68679e-09 -2.28178e-09 9.02902e-10)
(6.03997e-10 -3.05223e-09 9.38948e-10)
(-1.11923e-08 -3.52076e-09 9.61533e-10)
(1.4465e-08 -2.84263e-09 1.0961e-09)
(2.29206e-09 -4.18969e-09 1.14629e-09)
(1.65129e-09 -5.17851e-09 1.18954e-09)
(-1.02358e-08 -5.78427e-09 1.22188e-09)
(1.64484e-08 -4.06351e-09 1.31139e-09)
(3.50638e-09 -6.02979e-09 1.36614e-09)
(2.5367e-09 -7.23877e-09 1.41549e-09)
(-1.01058e-08 -7.65524e-09 1.45644e-09)
(2.03821e-08 -6.57218e-09 1.51232e-09)
(5.49575e-09 -8.50719e-09 1.57002e-09)
(3.07718e-09 -9.92715e-09 1.6234e-09)
(-1.15538e-08 -1.07993e-08 1.67113e-09)
(2.65566e-08 -2.60685e-08 1.70774e-09)
(7.75985e-09 -2.50854e-08 1.76521e-09)
(3.69417e-09 -2.65679e-08 1.81886e-09)
(-1.49753e-08 -3.06319e-08 1.86985e-09)
)
;

boundaryField
{
    interface
    {
        type            solidTraction;
        traction        nonuniform List<vector> 
192
(
(53.9215 -0.321987 -3.4261)
(55.8753 -0.134842 -5.24665)
(56.994 0.211294 -5.65129)
(57.7051 0.607123 -5.66708)
(57.7253 0.945029 -5.51166)
(58.4556 1.59081 -5.2945)
(56.64 2.05221 -4.80792)
(60.0049 4.42362 -4.41066)
(52.3709 -0.213483 -1.73245)
(53.3464 -0.0338901 -2.82978)
(54.0004 0.288462 -3.01894)
(54.502 0.706322 -2.97261)
(54.3482 1.07478 -2.82641)
(55.0547 1.79866 -2.64399)
(53.0139 2.31436 -2.32905)
(56.664 4.82933 -2.06638)
(55.2209 -0.180832 -1.38645)
(56.0988 0.0111405 -2.24467)
(56.7538 0.343438 -2.39001)
(57.2571 0.800182 -2.35058)
(56.9886 1.2168 -2.233)
(57.59 2.03057 -2.08409)
(55.0599 2.62979 -1.84593)
(58.5083 5.33192 -1.63418)
(55.3458 -0.131465 -0.872551)
(56.0273 0.0786855 -1.47621)
(56.5388 0.416416 -1.57191)
(56.9608 0.890904 -1.53306)
(56.5966 1.33183 -1.44084)
(57.1463 2.18747 -1.3286)
(54.4586 2.8242 -1.17129)
(57.9026 5.58361 -1.03436)
(56.1786 -0.110152 -0.646792)
(56.7986 0.117924 -1.09187)
(57.2468 0.46895 -1.16339)
(57.6294 0.962132 -1.13467)
(57.1913 1.42713 -1.06653)
(57.6707 2.31849 -0.982313)
(54.7985 2.99041 -0.869508)
(58.1275 5.80265 -0.767965)
(56.3567 -0.0923066 -0.403357)
(56.923 0.149705 -0.697164)
(57.3132 0.510336 -0.744569)
(57.6596 1.01468 -0.72401)
(57.1741 1.49365 -0.677809)
(57.6174 2.40413 -0.62136)
(54.6613 3.09491 -0.550087)
(57.9578 5.93529 -0.486712)
(56.6277 -0.0844707 -0.238682)
(57.1757 0.1673 -0.411243)
(57.5356 0.536167 -0.439505)
(57.8617 1.04904 -0.427587)
(57.3438 1.53841 -0.400789)
(57.7555 2.46214 -0.367305)
(54.7308 3.1664 -0.326377)
(57.9845 6.02691 -0.288297)
(56.6818 -0.0790426 -0.0720803)
(57.2159 0.177378 -0.127742)
(57.5587 0.549549 -0.136896)
(57.8738 1.06568 -0.132792)
(57.3435 1.55948 -0.124108)
(57.7418 2.48841 -0.113219)
(54.6974 3.19892 -0.100723)
(57.9304 6.06807 -0.0885969)
(5.07717 0.92345 22.1773)
(8.07882 0.916848 17.2838)
(8.82608 0.624371 14.3007)
(8.96016 0.431652 13.637)
(8.92243 0.364108 14.1275)
(8.89504 0.421375 15.4866)
(8.8547 0.512942 18.0012)
(9.39755 0.725551 20.2883)
(3.42441 0.495653 28.3813)
(6.00443 0.569418 27.2963)
(6.56835 0.359492 26.4858)
(6.63106 0.171783 26.3742)
(6.60866 0.0605551 26.5975)
(6.64489 0.0128934 27.116)
(6.77429 0.0190599 27.9279)
(7.54274 0.097147 28.5492)
(3.63721 0.305511 25.119)
(6.36288 0.357102 24.309)
(6.99646 0.193986 23.5947)
(7.07342 0.00651977 23.4651)
(7.02951 -0.133652 23.706)
(7.01057 -0.252739 24.1898)
(7.04668 -0.331025 25.0811)
(7.7247 -0.343972 26.0474)
(4.27594 0.2233 25.7982)
(7.46838 0.238097 25.3032)
(8.24922 0.0825495 24.7488)
(8.35857 -0.113994 24.6811)
(8.29159 -0.265871 24.9012)
(8.24721 -0.425659 25.2071)
(8.16537 -0.553991 25.8007)
(8.82968 -0.702182 26.4479)
(-11.3503 0.941987 1.742)
(-7.0106 0.764289 2.95847)
(-4.54349 0.159473 3.20869)
(-3.62378 -0.39865 3.23658)
(-3.84975 -0.71529 3.19901)
(-2.98782 -1.21279 3.28745)
(-4.81429 -1.22381 3.24438)
(4.44592 -3.58074 3.64727)
(-18.9529 0.34092 0.158518)
(-18.0351 0.218769 0.623971)
(-17.4338 -0.127485 0.645146)
(-16.925 -0.504818 0.62015)
(-16.9792 -0.682063 0.628902)
(-15.3223 -1.08366 0.782526)
(-15.9345 -0.843815 0.928338)
(-4.74113 -3.18609 1.3198)
(-18.9375 0.177675 0.40004)
(-18.231 0.0305007 0.929859)
(-17.6905 -0.224549 1.03294)
(-17.054 -0.543551 1.04448)
(-16.9713 -0.659508 1.05291)
(-14.8776 -1.03019 1.14367)
(-15.199 -0.691467 1.19874)
(-2.73325 -3.22786 1.3535)
(-20.843 0.0791089 0.221738)
(-20.4487 -0.0863783 0.64009)
(-20.1287 -0.289187 0.731125)
(-19.4693 -0.557143 0.743335)
(-19.2627 -0.611585 0.749473)
(-16.7549 -0.940664 0.812416)
(-16.6631 -0.522738 0.846887)
(-3.26372 -3.14115 0.936746)
(-21.0485 0.063521 0.262791)
(-20.6607 -0.114164 0.61275)
(-20.3331 -0.30709 0.699982)
(-19.5965 -0.563513 0.715117)
(-19.3108 -0.595696 0.715918)
(-16.5878 -0.914503 0.74518)
(-16.3533 -0.468094 0.745248)
(-2.42401 -3.17693 0.767663)
(-21.5801 0.0562738 0.169266)
(-21.2124 -0.127388 0.41063)
(-20.8889 -0.315755 0.473769)
(-20.1018 -0.565127 0.48519)
(-19.7493 -0.581101 0.485827)
(-16.8521 -0.890754 0.50335)
(-16.477 -0.423814 0.501445)
(-2.15696 -3.18612 0.511679)
(-21.6816 0.0576314 0.117135)
(-21.3041 -0.129333 0.263142)
(-20.965 -0.317908 0.302114)
(-20.1404 -0.566563 0.309249)
(-19.7501 -0.57648 0.309225)
(-16.7609 -0.883855 0.316369)
(-16.3253 -0.408472 0.312291)
(-1.7794 -3.2087 0.311475)
(-21.8073 0.0569557 0.0330716)
(-21.4312 -0.131098 0.0802279)
(-21.0863 -0.319037 0.0930509)
(-20.2443 -0.566575 0.0953686)
(-19.8308 -0.573164 0.0957013)
(-16.7941 -0.878315 0.0982037)
(-16.3144 -0.398836 0.0979071)
(-1.6624 -3.2161 0.0977802)
(9.42213 -19.9993 -0.663377)
(8.89463 -17.5477 -0.449649)
(8.95905 -14.7126 -0.331262)
(9.02326 -12.8604 -0.216826)
(9.12848 -11.4521 -0.166171)
(9.19243 -10.455 -0.103487)
(9.24389 -9.82949 -0.0646314)
(9.26646 -9.52505 -0.0193212)
(7.55316 -28.3017 -0.0240278)
(6.78812 -27.5794 0.0548655)
(6.66211 -26.5575 0.0894603)
(6.62553 -25.7768 0.0918161)
(6.64457 -25.1313 0.0721844)
(6.65284 -24.651 0.0557747)
(6.66757 -24.3412 0.0322596)
(6.673 -24.1758 0.0121791)
(7.7334 -25.8047 0.423823)
(7.05304 -24.7309 0.412276)
(7.01765 -23.6262 0.362499)
(7.03905 -22.8724 0.288035)
(7.09269 -22.2085 0.221019)
(7.12221 -21.7605 0.153823)
(7.14891 -21.4531 0.0905693)
(7.1593 -21.3103 0.0299714)
(8.82294 -26.2242 0.783374)
(8.15499 -25.4825 0.636798)
(8.23668 -24.7195 0.533057)
(8.28982 -24.2181 0.410284)
(8.38485 -23.7037 0.316453)
(8.43596 -23.3905 0.216809)
(8.47969 -23.153 0.129735)
(8.49768 -23.0445 0.0423508)
)
;
        pressure        uniform 0;
        secondOrder     false;
        setEffectiveTraction false;
        relaxationFactor 1;
        value           nonuniform List<vector> 
192
(
(7.29946e-08 3.7241e-08 1.54313e-08)
(7.80837e-08 2.43233e-08 2.61497e-08)
(8.02291e-08 1.58074e-08 2.99926e-08)
(8.20061e-08 1.15594e-08 3.21558e-08)
(8.50857e-08 9.07301e-09 3.41452e-08)
(9.02639e-08 7.33651e-09 3.66059e-08)
(9.80673e-08 3.93556e-09 4.01878e-08)
(1.08876e-07 -2.25155e-08 4.5276e-08)
(6.2007e-08 2.18953e-08 -4.23222e-10)
(6.66008e-08 1.49161e-08 5.04428e-09)
(6.80765e-08 1.05806e-08 9.04843e-09)
(6.9485e-08 8.15791e-09 1.13308e-08)
(7.24307e-08 6.40379e-09 1.3024e-08)
(7.77751e-08 4.99032e-09 1.4866e-08)
(8.62648e-08 2.34441e-09 1.70961e-08)
(9.88707e-08 -2.06956e-08 1.88215e-08)
(5.42746e-08 1.69272e-08 -4.5132e-10)
(5.89953e-08 9.96533e-09 2.78726e-09)
(6.03957e-08 6.44585e-09 6.36018e-09)
(6.16644e-08 4.90499e-09 8.9446e-09)
(6.44812e-08 3.88941e-09 1.08404e-08)
(6.98204e-08 3.14997e-09 1.25574e-08)
(7.85482e-08 1.28499e-09 1.42286e-08)
(9.18682e-08 -2.03339e-08 1.53326e-08)
(4.97329e-08 1.52287e-08 1.79827e-10)
(5.42344e-08 7.86062e-09 2.41863e-09)
(5.56814e-08 3.98808e-09 5.18727e-09)
(5.69477e-08 2.46946e-09 7.56594e-09)
(5.96988e-08 1.75886e-09 9.42797e-09)
(6.49891e-08 1.44243e-09 1.09798e-08)
(7.37668e-08 -4.57255e-11 1.23562e-08)
(8.73397e-08 -2.09846e-08 1.34398e-08)
(4.71709e-08 1.44189e-08 4.01459e-10)
(5.14716e-08 6.89058e-09 2.04461e-09)
(5.29428e-08 2.63751e-09 4.04369e-09)
(5.42323e-08 8.56992e-10 5.92645e-09)
(5.69527e-08 1.1579e-10 7.50519e-09)
(6.21904e-08 -9.19519e-11 8.82174e-09)
(7.09391e-08 -1.46974e-09 9.98272e-09)
(8.45611e-08 -2.20041e-08 1.10165e-08)
(4.5689e-08 1.39538e-08 3.78745e-10)
(4.98643e-08 6.35712e-09 1.53307e-09)
(5.13352e-08 1.87258e-09 2.88156e-09)
(5.26354e-08 -1.59426e-10 4.2023e-09)
(5.53348e-08 -1.0543e-09 5.36749e-09)
(6.05265e-08 -1.32012e-09 6.36966e-09)
(6.92259e-08 -2.7073e-09 7.27481e-09)
(8.28372e-08 -2.30065e-08 8.12963e-09)
(4.48527e-08 1.3687e-08 2.51846e-10)
(4.8956e-08 6.04738e-09 9.40204e-10)
(5.04182e-08 1.43606e-09 1.7216e-09)
(5.17181e-08 -7.63813e-10 2.49751e-09)
(5.4401e-08 -1.80188e-09 3.20337e-09)
(5.9559e-08 -2.16053e-09 3.82873e-09)
(6.82176e-08 -3.59047e-09 4.40731e-09)
(8.18107e-08 -2.37678e-08 4.96831e-09)
(4.44711e-08 1.35638e-08 8.70175e-11)
(4.85407e-08 5.90092e-09 3.15811e-10)
(4.99962e-08 1.23198e-09 5.72132e-10)
(5.12934e-08 -1.04924e-09 8.27674e-10)
(5.39666e-08 -2.16635e-09 1.06342e-09)
(5.91071e-08 -2.58383e-09 1.27572e-09)
(6.7744e-08 -4.04459e-09 1.4748e-09)
(8.13265e-08 -2.41719e-08 1.66983e-09)
(1.56044e-08 3.83113e-08 7.70023e-08)
(2.41986e-08 2.57238e-08 8.47423e-08)
(2.5303e-08 1.70269e-08 8.97676e-08)
(2.55133e-08 1.23247e-08 9.36127e-08)
(2.65157e-08 9.43343e-09 9.77953e-08)
(2.86214e-08 7.4063e-09 1.03408e-07)
(3.23083e-08 3.73766e-09 1.11213e-07)
(3.80681e-08 -2.29457e-08 1.21614e-07)
(6.7141e-10 2.62387e-08 7.08356e-08)
(3.60335e-09 1.95418e-08 7.88035e-08)
(4.74138e-09 1.46611e-08 8.32705e-08)
(5.37468e-09 1.10473e-08 8.684e-08)
(6.35541e-09 7.98999e-09 9.10285e-08)
(7.87734e-09 5.40537e-09 9.68764e-08)
(1.00455e-08 1.76214e-09 1.05306e-07)
(1.24571e-08 -2.23426e-08 1.17364e-07)
(9.77646e-11 2.6207e-08 7.04118e-08)
(-9.70947e-10 1.9209e-08 7.85943e-08)
(1.35229e-11 1.4029e-08 8.322e-08)
(1.76474e-09 1.01497e-08 8.69088e-08)
(3.44817e-09 6.85208e-09 9.11908e-08)
(4.88308e-09 4.03689e-09 9.71165e-08)
(5.96873e-09 1.6746e-10 1.0562e-07)
(7.0378e-09 -2.40444e-08 1.17791e-07)
(-1.4651e-08 3.80128e-08 7.59877e-08)
(-2.13488e-08 2.44963e-08 8.44671e-08)
(-2.03562e-08 1.49545e-08 8.9972e-08)
(-1.81954e-08 9.50373e-09 9.4172e-08)
(-1.65357e-08 5.93317e-09 9.86332e-08)
(-1.56958e-08 3.259e-09 1.04477e-07)
(-1.61936e-08 -1.05827e-09 1.12489e-07)
(-1.85964e-08 -2.81656e-08 1.23185e-07)
(-7.02326e-08 3.57025e-08 1.60256e-08)
(-7.36099e-08 2.18785e-08 2.77127e-08)
(-7.37916e-08 1.24635e-08 3.22534e-08)
(-7.32931e-08 7.36635e-09 3.4925e-08)
(-7.37885e-08 4.0797e-09 3.7308e-08)
(-7.61061e-08 1.57587e-09 4.00963e-08)
(-8.08744e-08 -2.56368e-09 4.39688e-08)
(-8.86509e-08 -2.94674e-08 4.92866e-08)
(-5.92319e-08 2.05661e-08 1.34993e-10)
(-6.25421e-08 1.25922e-08 6.4229e-09)
(-6.23681e-08 7.32642e-09 1.10437e-08)
(-6.17326e-08 4.04542e-09 1.37995e-08)
(-6.22634e-08 1.48608e-09 1.58706e-08)
(-6.48669e-08 -6.94145e-10 1.80261e-08)
(-7.0412e-08 -4.05564e-09 2.05084e-08)
(-8.01243e-08 -2.74803e-08 2.23734e-08)
(-5.1709e-08 1.58625e-08 -4.43567e-11)
(-5.5423e-08 7.92343e-09 3.81868e-09)
(-5.5433e-08 3.45276e-09 7.88714e-09)
(-5.48768e-08 1.02652e-09 1.08778e-08)
(-5.54537e-08 -8.18139e-10 1.31124e-08)
(-5.81851e-08 -2.33896e-09 1.51106e-08)
(-6.40634e-08 -4.92007e-09 1.6994e-08)
(-7.45567e-08 -2.69149e-08 1.81943e-08)
(-4.73691e-08 1.43737e-08 4.7057e-10)
(-5.10728e-08 6.08905e-09 3.16685e-09)
(-5.13309e-08 1.27629e-09 6.31332e-09)
(-5.09573e-08 -1.14189e-09 9.01816e-09)
(-5.16273e-08 -2.70413e-09 1.11631e-08)
(-5.44376e-08 -3.82353e-09 1.29521e-08)
(-6.04608e-08 -6.0463e-09 1.45041e-08)
(-7.12683e-08 -2.73809e-08 1.56638e-08)
(-4.49495e-08 1.37128e-08 6.02885e-10)
(-4.85992e-08 5.33022e-09 2.56812e-09)
(-4.90303e-08 1.62962e-10 4.84136e-09)
(-4.88249e-08 -2.51743e-09 6.96985e-09)
(-4.95954e-08 -4.12501e-09 8.76844e-09)
(-5.24642e-08 -5.15619e-09 1.02724e-08)
(-5.85454e-08 -7.29134e-09 1.15727e-08)
(-6.94627e-08 -2.82456e-08 1.26672e-08)
(-4.35577e-08 1.33463e-08 5.10137e-10)
(-4.71784e-08 4.94547e-09 1.87668e-09)
(-4.7712e-08 -4.26479e-10 3.40977e-09)
(-4.76224e-08 -3.35191e-09 4.90045e-09)
(-4.84713e-08 -5.12067e-09 6.22129e-09)
(-5.13811e-08 -6.22517e-09 7.3583e-09)
(-5.74837e-08 -8.3887e-09 8.36477e-09)
(-6.84422e-08 -2.9128e-08 9.26429e-09)
(-4.2774e-08 1.31392e-08 3.25956e-10)
(-4.63805e-08 4.72908e-09 1.13467e-09)
(-4.69694e-08 -7.49427e-10 2.02221e-09)
(-4.69474e-08 -3.83557e-09 2.89755e-09)
(-4.78457e-08 -5.75049e-09 3.69594e-09)
(-5.07812e-08 -6.9572e-09 4.40243e-09)
(-5.68926e-08 -9.17624e-09 5.04251e-09)
(-6.78704e-08 -2.98077e-08 5.63089e-09)
(-4.24165e-08 1.3044e-08 1.10959e-10)
(-4.60163e-08 4.62745e-09 3.78729e-10)
(-4.66292e-08 -8.98046e-10 6.69652e-10)
(-4.66376e-08 -4.06121e-09 9.57887e-10)
(-4.75591e-08 -6.05601e-09 1.2243e-09)
(-5.05071e-08 -7.32588e-09 1.46367e-09)
(-5.66221e-08 -9.58201e-09 1.68337e-09)
(-6.76088e-08 -3.01704e-08 1.88761e-09)
(3.84414e-08 -9.92525e-08 4.69582e-08)
(3.3482e-08 -9.21276e-08 2.02544e-08)
(3.05878e-08 -8.75729e-08 1.65143e-08)
(2.90975e-08 -8.51621e-08 1.44405e-08)
(2.8262e-08 -8.42049e-08 1.18535e-08)
(2.77422e-08 -8.39621e-08 8.77146e-09)
(2.74191e-08 -8.39875e-08 5.37264e-09)
(2.72607e-08 -8.40486e-08 1.80779e-09)
(1.2818e-08 -9.57282e-08 4.56443e-08)
(1.12e-08 -8.69785e-08 2.1551e-08)
(9.83447e-09 -8.1845e-08 1.79201e-08)
(9.02845e-09 -7.92388e-08 1.53697e-08)
(8.53906e-09 -7.8221e-08 1.24044e-08)
(8.20983e-09 -7.79424e-08 9.08848e-09)
(7.99416e-09 -7.79395e-08 5.53948e-09)
(7.88579e-09 -7.79845e-08 1.8603e-09)
(7.40236e-09 -9.68723e-08 4.66381e-08)
(7.10746e-09 -8.80318e-08 2.24496e-08)
(6.84483e-09 -8.28484e-08 1.86247e-08)
(6.3511e-09 -8.02005e-08 1.59048e-08)
(5.84402e-09 -7.91469e-08 1.27963e-08)
(5.45289e-09 -7.88406e-08 9.35608e-09)
(5.20226e-09 -7.88189e-08 5.6953e-09)
(5.08196e-09 -7.88544e-08 1.91146e-09)
(-1.82245e-08 -1.02998e-07 5.00238e-08)
(-1.50663e-08 -9.56343e-08 2.2918e-08)
(-1.3753e-08 -9.09413e-08 1.86066e-08)
(-1.35684e-08 -8.84073e-08 1.60431e-08)
(-1.37467e-08 -8.7345e-08 1.3034e-08)
(-1.39615e-08 -8.70213e-08 9.57954e-09)
(-1.41139e-08 -8.69917e-08 5.84347e-09)
(-1.41886e-08 -8.70251e-08 1.9624e-09)
)
;
        gradient        nonuniform List<vector> 
192
(
(4.599e-06 7.89126e-07 -6.78921e-08)
(4.33074e-06 1.90296e-07 -1.04583e-07)
(4.41657e-06 2.53691e-08 -1.12285e-07)
(4.54307e-06 2.33988e-08 -1.15751e-07)
(4.71154e-06 6.10698e-08 -1.18543e-07)
(4.95947e-06 1.1502e-07 -1.19338e-07)
(5.29007e-06 1.88073e-07 -1.17527e-07)
(5.69625e-06 1.45428e-07 -1.14668e-07)
(3.97581e-06 6.30629e-07 -1.0492e-07)
(3.79029e-06 1.53284e-07 -1.53752e-07)
(3.84823e-06 1.60592e-08 -1.62197e-07)
(3.95681e-06 1.88644e-08 -1.66189e-07)
(4.12115e-06 5.96904e-08 -1.69068e-07)
(4.38131e-06 1.17737e-07 -1.68587e-07)
(4.75702e-06 1.94509e-07 -1.63653e-07)
(5.29104e-06 1.4865e-07 -1.56725e-07)
(3.52099e-06 5.30516e-07 -6.18338e-08)
(3.41853e-06 1.33037e-07 -9.03814e-08)
(3.47854e-06 1.29359e-08 -9.25358e-08)
(3.58033e-06 1.65271e-08 -9.34334e-08)
(3.7393e-06 5.86711e-08 -9.54333e-08)
(3.99819e-06 1.20434e-07 -9.56316e-08)
(4.38303e-06 1.99935e-07 -9.21357e-08)
(4.96241e-06 1.51616e-07 -8.76672e-08)
(3.24114e-06 4.78462e-07 -3.11718e-08)
(3.16239e-06 1.22597e-07 -4.72944e-08)
(3.22664e-06 1.30102e-08 -4.7513e-08)
(3.32743e-06 1.59672e-08 -4.69853e-08)
(3.48421e-06 5.7492e-08 -4.82401e-08)
(3.74085e-06 1.21034e-07 -4.93142e-08)
(4.12563e-06 2.02474e-07 -4.82633e-08)
(4.71915e-06 1.53038e-07 -4.62775e-08)
(3.07734e-06 4.52082e-07 -1.56632e-08)
(3.00573e-06 1.16707e-07 -2.47262e-08)
(3.07227e-06 1.32473e-08 -2.50864e-08)
(3.17362e-06 1.58004e-08 -2.47002e-08)
(3.32991e-06 5.63423e-08 -2.55955e-08)
(3.58498e-06 1.20411e-07 -2.6875e-08)
(3.9673e-06 2.02973e-07 -2.71334e-08)
(4.5629e-06 1.53101e-07 -2.6637e-08)
(2.98025e-06 4.38096e-07 -8.26428e-09)
(2.91163e-06 1.13181e-07 -1.33383e-08)
(2.97922e-06 1.3038e-08 -1.39013e-08)
(3.08119e-06 1.54584e-08 -1.394e-08)
(3.23742e-06 5.53173e-08 -1.46729e-08)
(3.49129e-06 1.19497e-07 -1.57519e-08)
(3.87084e-06 2.02713e-07 -1.6322e-08)
(4.46545e-06 1.52579e-07 -1.6339e-08)
(2.92492e-06 4.30494e-07 -4.20768e-09)
(2.8578e-06 1.11075e-07 -6.86539e-09)
(2.92587e-06 1.26468e-08 -7.33401e-09)
(3.02821e-06 1.50291e-08 -7.52988e-09)
(3.18443e-06 5.45305e-08 -8.04785e-09)
(3.43744e-06 1.18762e-07 -8.74526e-09)
(3.81484e-06 2.02386e-07 -9.16973e-09)
(4.4082e-06 1.52039e-07 -9.25141e-09)
(2.89963e-06 4.27032e-07 -1.31181e-09)
(2.83318e-06 1.10058e-07 -2.15257e-09)
(2.90142e-06 1.23742e-08 -2.32988e-09)
(3.00393e-06 1.47447e-08 -2.42542e-09)
(3.16013e-06 5.4102e-08 -2.61435e-09)
(3.4127e-06 1.18375e-07 -2.85389e-09)
(3.78896e-06 2.02207e-07 -3.00173e-09)
(4.38159e-06 1.51733e-07 -3.03269e-09)
(7.78981e-09 8.7475e-07 4.85779e-06)
(1.99354e-08 3.02335e-07 4.58282e-06)
(2.24913e-08 1.22922e-07 4.66972e-06)
(2.36408e-08 8.46236e-08 4.8008e-06)
(2.59402e-08 8.99036e-08 4.97347e-06)
(2.80614e-08 1.20602e-07 5.2248e-06)
(2.93556e-08 1.72241e-07 5.56446e-06)
(3.16098e-08 1.11012e-07 5.99234e-06)
(-2.36871e-08 8.1606e-07 4.46935e-06)
(-2.50403e-08 2.94787e-07 4.23757e-06)
(-2.27278e-08 1.21029e-07 4.28502e-06)
(-2.07299e-08 8.4939e-08 4.39639e-06)
(-1.78519e-08 9.25279e-08 4.56591e-06)
(-1.44689e-08 1.24521e-07 4.8292e-06)
(-1.07424e-08 1.78112e-07 5.21006e-06)
(-5.81332e-09 1.1382e-07 5.75579e-06)
(3.56913e-08 8.2589e-07 4.42548e-06)
(5.70084e-08 3.03246e-07 4.19146e-06)
(6.89687e-08 1.27219e-07 4.23717e-06)
(7.72227e-08 8.94936e-08 4.34775e-06)
(8.22318e-08 9.6158e-08 4.51686e-06)
(8.54564e-08 1.27701e-07 4.77973e-06)
(8.76931e-08 1.80874e-07 5.16041e-06)
(8.745e-08 1.14938e-07 5.71017e-06)
(4.19785e-09 9.08623e-07 4.73894e-06)
(1.0985e-08 3.28017e-07 4.46296e-06)
(2.21024e-08 1.41231e-07 4.54563e-06)
(3.10427e-08 9.81981e-08 4.67443e-06)
(3.65964e-08 1.00758e-07 4.84573e-06)
(4.09707e-08 1.29977e-07 5.09576e-06)
(4.53386e-08 1.80089e-07 5.43428e-06)
(4.76154e-08 1.14038e-07 5.87204e-06)
(-4.44232e-06 7.23804e-07 -5.80227e-08)
(-4.1699e-06 1.18589e-07 -7.73911e-08)
(-4.25273e-06 -5.80517e-08 -7.18603e-08)
(-4.37677e-06 -7.27927e-08 -6.53235e-08)
(-4.54363e-06 -4.75196e-08 -6.02853e-08)
(-4.79186e-06 -4.67312e-09 -5.46683e-08)
(-5.12913e-06 5.96559e-08 -4.73536e-08)
(-5.55675e-06 9.89498e-09 -3.98285e-08)
(-3.80285e-06 5.80728e-07 -9.77815e-08)
(-3.61617e-06 9.57731e-08 -1.3281e-07)
(-3.67067e-06 -5.60201e-08 -1.2953e-07)
(-3.77549e-06 -6.84658e-08 -1.24039e-07)
(-3.93612e-06 -4.18285e-08 -1.19282e-07)
(-4.19351e-06 3.88876e-09 -1.12587e-07)
(-4.5724e-06 7.1174e-08 -1.02462e-07)
(-5.12935e-06 1.73214e-08 -9.09665e-08)
(-3.35158e-06 4.93191e-07 -5.59877e-08)
(-3.24623e-06 8.68247e-08 -7.41652e-08)
(-3.3022e-06 -4.92852e-08 -6.68287e-08)
(-3.39966e-06 -6.25467e-08 -5.93952e-08)
(-3.55401e-06 -3.60692e-08 -5.43578e-08)
(-3.80857e-06 1.21455e-08 -4.87374e-08)
(-4.19414e-06 8.12763e-08 -4.04401e-08)
(-4.79315e-06 2.44987e-08 -3.18571e-08)
(-3.0778e-06 4.50553e-07 -2.69464e-08)
(-2.99534e-06 8.49197e-08 -3.56335e-08)
(-3.05506e-06 -4.12536e-08 -2.8641e-08)
(-3.1511e-06 -5.59958e-08 -2.13319e-08)
(-3.30272e-06 -3.11711e-08 -1.65669e-08)
(-3.55417e-06 1.78064e-08 -1.25221e-08)
(-3.93813e-06 8.80556e-08 -7.20507e-09)
(-4.54838e-06 2.97362e-08 -1.58313e-09)
(-2.91861e-06 4.30598e-07 -1.28935e-08)
(-2.8429e-06 8.51216e-08 -1.69285e-08)
(-2.90458e-06 -3.4986e-08 -1.21271e-08)
(-3.00087e-06 -5.0473e-08 -6.60973e-09)
(-3.15165e-06 -2.72595e-08 -2.7473e-09)
(-3.40102e-06 2.15075e-08 1.44453e-10)
(-3.78157e-06 9.22166e-08 3.42692e-09)
(-4.39201e-06 3.30584e-08 6.95031e-09)
(-2.82448e-06 4.20719e-07 -6.57739e-09)
(-2.75154e-06 8.56798e-08 -8.48578e-09)
(-2.81409e-06 -3.09366e-08 -5.6363e-09)
(-2.91079e-06 -4.66163e-08 -2.13296e-09)
(-3.06127e-06 -2.44169e-08 5.34863e-10)
(-3.30911e-06 2.39809e-08 2.51722e-09)
(-3.68629e-06 9.48625e-08 4.59029e-09)
(-4.29453e-06 3.51032e-08 6.84105e-09)
(-2.77089e-06 4.15527e-07 -3.30484e-09)
(-2.69936e-06 8.60585e-08 -4.23107e-09)
(-2.76228e-06 -2.86343e-08 -2.76914e-09)
(-2.85923e-06 -4.4302e-08 -9.01038e-10)
(-3.00956e-06 -2.26093e-08 6.11274e-10)
(-3.25634e-06 2.55632e-08 1.77612e-09)
(-3.63101e-06 9.65411e-08 2.97901e-09)
(-4.23729e-06 3.6328e-08 4.29699e-09)
(-2.74641e-06 4.13178e-07 -1.02812e-09)
(-2.6755e-06 8.6213e-08 -1.31898e-09)
(-2.73856e-06 -2.76072e-08 -8.72764e-10)