/*--------------------------------*- C++ -*----------------------------------*\
| =========                 |                                                 |
| \\      /  F ield         | OpenFOAM: The Open Source CFD Toolbox           |
|  \\    /   O peration     | Version:  v1912                                 |
|   \\  /    A nd           | Website:  www.openfoam.com                      |
|    \\/     M anipulation  |                                                 |
\*---------------------------------------------------------------------------*/
FoamFile
{
    version     2.0;
    format      ascii;
    class       volVectorField;
    location    "0.35/solid";
    object      D_0_0;
}
// * * * * * * * * * * * * * * * * * * * * * * * * * * * * * * * * * * * * * //

dimensions      [0 1 0 0 0 0 0];


internalField   nonuniform List<vector> 
256
(
(1.46171e-08 2.65482e-08 1.53026e-08)
(7.9582e-10 1.56074e-08 1.41521e-08)
(-1.59743e-10 1.54608e-08 1.42842e-08)
(-1.38279e-08 2.58598e-08 1.57988e-08)
(2.24796e-08 2.14469e-08 2.54147e-08)
(3.56944e-09 1.5625e-08 2.40021e-08)
(-1.30843e-09 1.51912e-08 2.43827e-08)
(-2.0029e-08 1.99123e-08 2.66817e-08)
(2.34978e-08 1.56046e-08 2.86519e-08)
(4.66009e-09 1.33624e-08 2.71786e-08)
(-4.42156e-10 1.26521e-08 2.77426e-08)
(-1.91081e-08 1.32977e-08 3.04599e-08)
(2.37577e-08 1.20025e-08 3.02445e-08)
(5.3068e-09 1.07813e-08 2.87633e-08)
(1.18732e-09 9.82031e-09 2.94583e-08)
(-1.71033e-08 8.98989e-09 3.24418e-08)
(2.47425e-08 9.70184e-09 3.16345e-08)
(6.27264e-09 8.34079e-09 3.02342e-08)
(2.81374e-09 7.14611e-09 3.10294e-08)
(-1.54979e-08 6.02974e-09 3.41321e-08)
(2.66453e-08 8.06634e-09 3.33761e-08)
(7.69615e-09 6.21438e-09 3.21024e-08)
(4.29782e-09 4.79034e-09 3.29819e-08)
(-1.45035e-08 3.75292e-09 3.61251e-08)
(2.97832e-08 4.91021e-09 3.60442e-08)
(9.63826e-09 2.99771e-09 3.49002e-08)
(5.57619e-09 1.34853e-09 3.58576e-08)
(-1.44842e-08 -4.50404e-11 3.90193e-08)
(3.4694e-08 -1.89427e-08 4.01926e-08)
(1.1788e-08 -1.86708e-08 3.91919e-08)
(6.90124e-09 -2.04148e-08 4.02139e-08)
(-1.60509e-08 -2.42864e-08 4.33445e-08)
(1.18709e-08 1.37841e-08 5.71888e-10)
(3.70662e-10 4.4126e-09 9.65109e-10)
(-2.09087e-11 4.24933e-09 1.1273e-09)
(-1.1276e-08 1.30999e-08 1.05016e-09)
(1.84717e-08 1.31431e-08 5.91188e-09)
(2.64203e-09 7.98569e-09 6.67542e-09)
(-1.08736e-09 7.49965e-09 7.06645e-09)
(-1.6614e-08 1.15449e-08 7.05198e-09)
(1.92115e-08 1.10422e-08 9.35473e-09)
(3.54294e-09 8.95085e-09 1.0287e-08)
(-3.57432e-10 8.19418e-09 1.08415e-08)
(-1.574e-08 8.68067e-09 1.09732e-08)
(1.9332e-08 9.15476e-09 1.10858e-08)
(4.08721e-09 7.95724e-09 1.21179e-08)
(1.11566e-09 6.96417e-09 1.2793e-08)
(-1.38483e-08 6.11146e-09 1.30647e-08)
(2.02474e-08 7.51516e-09 1.22175e-08)
(4.9748e-09 6.15154e-09 1.33292e-08)
(2.6123e-09 4.93608e-09 1.40997e-08)
(-1.23726e-08 3.83081e-09 1.44835e-08)
(2.21871e-08 6.0742e-09 1.34226e-08)
(6.35239e-09 4.21317e-09 1.45925e-08)
(3.97153e-09 2.77798e-09 1.54428e-08)
(-1.15766e-08 1.76512e-09 1.59286e-08)
(2.54712e-08 3.36028e-09 1.49847e-08)
(8.28053e-09 1.4443e-09 1.61837e-08)
(5.12299e-09 -1.99664e-10 1.70971e-08)
(-1.18409e-08 -1.55697e-09 1.76822e-08)
(3.05784e-08 -1.76535e-08 1.63293e-08)
(1.04235e-08 -1.7265e-08 1.75408e-08)
(6.34668e-09 -1.89666e-08 1.84795e-08)
(-1.37278e-08 -2.28774e-08 1.9112e-08)
(1.00994e-08 1.02672e-08 1.54479e-10)
(8.74857e-12 1.89476e-09 5.81791e-10)
(1.68429e-10 1.74747e-09 7.01036e-10)
(-9.67192e-09 9.68932e-09 4.94684e-10)
(1.59878e-08 8.75685e-09 3.21057e-09)
(1.84127e-09 4.12499e-09 4.06442e-09)
(-7.80697e-10 3.66337e-09 4.36096e-09)
(-1.46014e-08 7.29911e-09 4.05565e-09)
(1.66615e-08 7.27259e-09 6.22438e-09)
(2.5874e-09 5.34142e-09 7.25856e-09)
(-1.76554e-10 4.61205e-09 7.68624e-09)
(-1.39333e-08 5.05005e-09 7.45354e-09)
(1.67231e-08 6.22201e-09 8.25568e-09)
(3.04541e-09 5.07146e-09 9.38457e-09)
(1.14601e-09 4.10782e-09 9.91458e-09)
(-1.22135e-08 3.31161e-09 9.7922e-09)
(1.75744e-08 5.22374e-09 9.63586e-09)
(3.8601e-09 3.87817e-09 1.08272e-08)
(2.51932e-09 2.69448e-09 1.14415e-08)
(-1.08641e-08 1.66751e-09 1.14276e-08)
(1.95284e-08 4.25789e-09 1.08556e-08)
(5.19735e-09 2.39878e-09 1.20805e-08)
(3.75798e-09 9.99389e-10 1.27645e-08)
(-1.02384e-08 7.8038e-11 1.28597e-08)
(2.29467e-08 2.04217e-09 1.21218e-08)
(7.12642e-09 1.34875e-10 1.33529e-08)
(4.77715e-09 -1.46573e-09 1.4086e-08)
(-1.07656e-08 -2.73484e-09 1.42815e-08)
(2.82246e-08 -1.78054e-08 1.3136e-08)
(9.27461e-09 -1.73248e-08 1.43644e-08)
(5.88535e-09 -1.89742e-08 1.5107e-08)
(-1.29344e-08 -2.2875e-08 1.53424e-08)
(9.15617e-09 9.28286e-09 4.2363e-10)
(-1.57344e-10 1.46815e-09 6.79823e-10)
(2.40426e-10 1.33815e-09 7.64879e-10)
(-8.85601e-09 8.79802e-09 6.66144e-10)
(1.46115e-08 6.89755e-09 2.44085e-09)
(1.4208e-09 2.57925e-09 2.98572e-09)
(-6.76557e-10 2.16031e-09 3.20167e-09)
(-1.35753e-08 5.60557e-09 3.05503e-09)
(1.52929e-08 4.95131e-09 4.7325e-09)
(2.06897e-09 3.13608e-09 5.40971e-09)
(-1.95891e-10 2.45857e-09 5.72573e-09)
(-1.31266e-08 2.91326e-09 5.63988e-09)
(1.5355e-08 3.90593e-09 6.62575e-09)
(2.46484e-09 2.80362e-09 7.37233e-09)
(9.88414e-10 1.89307e-09 7.76985e-09)
(-1.16015e-08 1.17677e-09 7.77899e-09)
(1.61555e-08 3.14434e-09 8.05903e-09)
(3.21414e-09 1.82701e-09 8.85421e-09)
(2.25447e-09 6.95495e-10 9.32099e-09)
(-1.03701e-08 -2.40071e-10 9.42371e-09)
(1.80807e-08 2.46049e-09 9.25756e-09)
(4.50241e-09 6.16136e-10 1.00828e-08)
(3.3976e-09 -7.31772e-10 1.06068e-08)
(-9.85725e-09 -1.55628e-09 1.07988e-08)
(2.15551e-08 4.6791e-10 1.04098e-08)
(6.41645e-09 -1.41528e-09 1.12432e-08)
(4.31161e-09 -2.96536e-09 1.18054e-08)
(-1.0558e-08 -4.15434e-09 1.20761e-08)
(2.69342e-08 -1.8783e-08 1.14987e-08)
(8.56e-09 -1.82179e-08 1.23249e-08)
(5.32132e-09 -1.98209e-08 1.28916e-08)
(-1.29279e-08 -2.37133e-08 1.31969e-08)
(8.6666e-09 8.82403e-09 4.68769e-10)
(-2.24747e-10 1.32081e-09 6.04194e-10)
(2.54105e-10 1.20486e-09 6.64021e-10)
(-8.45214e-09 8.40867e-09 6.38789e-10)
(1.38494e-08 6.02889e-09 1.8958e-09)
(1.21368e-09 1.89528e-09 2.20512e-09)
(-6.70714e-10 1.51475e-09 2.35834e-09)
(-1.30531e-08 4.87415e-09 2.32997e-09)
(1.45246e-08 3.62567e-09 3.53131e-09)
(1.79545e-09 1.88899e-09 3.93042e-09)
(-2.86022e-10 1.26128e-09 4.15665e-09)
(-1.27537e-08 1.75219e-09 4.17908e-09)
(1.45919e-08 2.30058e-09 5.04026e-09)
(2.14305e-09 1.23991e-09 5.48935e-09)
(7.89386e-10 3.81933e-10 5.77678e-09)
(-1.13857e-08 -2.59853e-10 5.87301e-09)
(1.5355e-08 1.47006e-09 6.29684e-09)
(2.83732e-09 1.84313e-10 6.78379e-09)
(1.96886e-09 -8.95668e-10 7.12444e-09)
(-1.02555e-08 -1.75246e-09 7.29299e-09)
(1.7239e-08 8.24829e-10 7.37419e-09)
(4.07646e-09 -9.94738e-10 7.88909e-09)
(3.03893e-09 -2.29371e-09 8.27393e-09)
(-9.82146e-09 -3.04135e-09 8.50825e-09)
(2.072e-08 -1.12113e-09 8.41074e-09)
(5.96381e-09 -2.97039e-09 8.93754e-09)
(3.87602e-09 -4.47566e-09 9.35145e-09)
(-1.06299e-08 -5.6075e-09 9.64197e-09)
(2.6141e-08 -1.99988e-08 9.47221e-09)
(8.09174e-09 -1.93606e-08 9.99201e-09)
(4.8127e-09 -2.09251e-08 1.04086e-08)
(-1.3128e-08 -2.4813e-08 1.07272e-08)
(8.40129e-09 8.53981e-09 3.81871e-10)
(-2.5561e-10 1.21406e-09 4.50878e-10)
(2.53633e-10 1.10836e-09 4.90701e-10)
(-8.24062e-09 8.17244e-09 4.94278e-10)
(1.34179e-08 5.53472e-09 1.36195e-09)
(1.10159e-09 1.51233e-09 1.53141e-09)
(-6.84561e-10 1.16045e-09 1.63375e-09)
(-1.27758e-08 4.47925e-09 1.65021e-09)
(1.40721e-08 2.84535e-09 2.45893e-09)
(1.63541e-09 1.16227e-09 2.68692e-09)
(-3.63204e-10 5.7311e-10 2.83884e-09)
(-1.25625e-08 1.09625e-09 2.89177e-09)
(1.41331e-08 1.25032e-09 3.52372e-09)
(1.94435e-09 2.22878e-10 3.78715e-09)
(6.37211e-10 -5.93239e-10 3.98141e-09)
(-1.1298e-08 -1.17834e-09 4.08456e-09)
(1.48667e-08 2.46596e-10 4.47127e-09)
(2.59549e-09 -1.01083e-09 4.76271e-09)
(1.75307e-09 -2.04939e-09 4.9944e-09)
(-1.02427e-08 -2.84747e-09 5.1474e-09)
(1.67145e-08 -4.84739e-10 5.32037e-09)
(3.79393e-09 -2.27881e-09 5.63423e-09)
(2.76892e-09 -3.53887e-09 5.89726e-09)
(-9.86557e-09 -4.23178e-09 6.09499e-09)
(2.01849e-08 -2.46334e-09 6.1548e-09)
(5.65453e-09 -4.27905e-09 6.48022e-09)
(3.55092e-09 -5.74942e-09 6.76385e-09)
(-1.07435e-08 -6.84372e-09 6.99918e-09)
(2.56204e-08 -2.11203e-08 7.03453e-09)
(7.76423e-09 -2.04205e-08 7.35485e-09)
(4.43609e-09 -2.19552e-08 7.64011e-09)
(-1.33246e-08 -2.58449e-08 7.89583e-09)
(8.25572e-09 8.3687e-09 2.41131e-10)
(-2.71958e-10 1.14149e-09 2.74017e-10)
(2.5267e-10 1.04241e-09 2.96827e-10)
(-8.1262e-09 8.03119e-09 3.05137e-10)
(1.31761e-08 5.23898e-09 8.18954e-10)
(1.0381e-09 1.28116e-09 9.04386e-10)
(-6.94376e-10 9.47848e-10 9.6311e-10)
(-1.2625e-08 4.24682e-09 9.83484e-10)
(1.38093e-08 2.38717e-09 1.45325e-09)
(1.54e-09 7.38486e-10 1.57213e-09)
(-4.0995e-10 1.74769e-10 1.65958e-09)
(-1.24571e-08 7.19379e-10 1.70129e-09)
(1.38589e-08 6.10186e-10 2.08181e-09)
(1.82134e-09 -3.9381e-10 2.22237e-09)
(5.45017e-10 -1.1818e-09 2.33465e-09)
(-1.12518e-08 -1.73046e-09 2.40484e-09)
(1.45706e-08 -5.46115e-10 2.66353e-09)
(2.44265e-09 -1.78278e-09 2.82157e-09)
(1.61989e-09 -2.79323e-09 2.95602e-09)
(-1.02438e-08 -3.55325e-09 3.05499e-09)
(1.63927e-08 -1.38023e-09 3.2036e-09)
(3.61288e-09 -3.15483e-09 3.37597e-09)
(2.59948e-09 -4.38845e-09 3.52912e-09)
(-9.90436e-09 -5.0463e-09 3.65406e-09)
(1.98524e-08 -3.40995e-09 3.74471e-09)
(5.45373e-09 -5.20023e-09 3.92499e-09)
(3.34489e-09 -6.64696e-09 4.09047e-09)
(-1.08265e-08 -7.71833e-09 4.23722e-09)
(2.52934e-08 -2.19515e-08 4.32112e-09)
(7.54912e-09 -2.12066e-08 4.49819e-09)
(4.19643e-09 -2.27212e-08 4.66458e-09)
(-1.34606e-08 -2.66153e-08 4.82383e-09)
(8.18953e-09 8.28818e-09 8.17995e-11)
(-2.79583e-10 1.1055e-09 9.16109e-11)
(2.52628e-10 1.00964e-09 9.90382e-11)
(-8.07429e-09 7.96495e-09 1.02574e-10)
(1.30651e-08 5.09683e-09 2.72993e-10)
(1.00836e-09 1.16899e-09 2.99234e-10)
(-6.98279e-10 8.44753e-10 3.18373e-10)
(-1.25561e-08 4.13534e-09 3.26456e-10)
(1.36862e-08 2.1697e-09 4.8095e-10)
(1.49432e-09 5.37992e-10 5.18114e-10)
(-4.30698e-10 -1.31854e-11 5.46658e-10)
(-1.24077e-08 5.41804e-10 5.61707e-10)
(1.37279e-08 3.04021e-10 6.8852e-10)
(1.76132e-09 -6.87812e-10 7.33023e-10)
(5.03025e-10 -1.46181e-09 7.69744e-10)
(-1.12291e-08 -1.99294e-09 7.93958e-10)
(1.44276e-08 -9.35155e-10 8.84061e-10)
(2.36737e-09 -2.16093e-09 9.34527e-10)
(1.55798e-09 -3.1573e-09 9.7859e-10)
(-1.02434e-08 -3.89876e-09 1.01217e-09)
(1.62367e-08 -1.83125e-09 1.06896e-09)
(3.52328e-09 -3.59556e-09 1.12434e-09)
(2.51938e-09 -4.8159e-09 1.17462e-09)
(-9.92281e-09 -5.45657e-09 1.21672e-09)
(1.96905e-08 -3.89465e-09 1.25619e-09)
(5.35399e-09 -5.67154e-09 1.31432e-09)
(3.2463e-09 -7.10635e-09 1.36871e-09)
(-1.08672e-08 -8.1667e-09 1.41799e-09)
(2.51339e-08 -2.23884e-08 1.4563e-09)
(7.44183e-09 -2.16198e-08 1.51331e-09)
(4.081e-09 -2.31242e-08 1.56799e-09)
(-1.35278e-08 -2.70215e-08 1.62151e-09)
)
;

boundaryField
{
    interface
    {
        type            solidTraction;
        traction        uniform (0 0 0);
        pressure        uniform 0;
        secondOrder     false;
        setEffectiveTraction false;
        relaxationFactor 1;
        value           nonuniform List<vector> 
192
(
(7.2153e-08 3.58223e-08 1.45776e-08)
(7.67246e-08 2.36671e-08 2.43121e-08)
(7.88129e-08 1.59242e-08 2.74664e-08)
(8.06429e-08 1.23138e-08 2.90139e-08)
(8.37328e-08 1.04239e-08 3.03674e-08)
(8.87602e-08 9.32679e-09 3.21001e-08)
(9.60955e-08 6.92271e-09 3.47955e-08)
(1.05864e-07 -1.73491e-08 3.89855e-08)
(6.18343e-08 2.13698e-08 -5.57831e-10)
(6.61599e-08 1.49783e-08 4.28847e-09)
(6.76332e-08 1.12573e-08 7.64515e-09)
(6.91158e-08 9.41388e-09 9.32664e-09)
(7.2099e-08 8.22913e-09 1.0425e-08)
(7.73282e-08 7.38045e-09 1.1643e-08)
(8.53803e-08 5.4585e-09 1.32752e-08)
(9.69015e-08 -1.60138e-08 1.47116e-08)
(5.43816e-08 1.6789e-08 -5.24431e-10)
(5.89944e-08 1.03974e-08 2.24515e-09)
(6.0424e-08 7.45646e-09 5.24435e-09)
(6.1763e-08 6.45037e-09 7.26104e-09)
(6.46115e-08 5.92528e-09 8.61251e-09)
(6.98286e-08 5.60131e-09 9.82869e-09)
(7.81081e-08 4.21664e-09 1.11425e-08)
(9.03731e-08 -1.61241e-08 1.22246e-08)
(4.99423e-08 1.52248e-08 6.52812e-11)
(5.44033e-08 8.43175e-09 1.906e-09)
(5.58907e-08 5.13725e-09 4.19802e-09)
(5.72161e-08 4.12172e-09 6.09271e-09)
(5.99832e-08 3.82599e-09 7.50396e-09)
(6.51368e-08 3.81076e-09 8.68498e-09)
(7.34602e-08 2.68177e-09 9.85291e-09)
(8.60131e-08 -1.70819e-08 1.09777e-08)
(4.74087e-08 1.4453e-08 2.79938e-10)
(5.16827e-08 7.49342e-09 1.59722e-09)
(5.31907e-08 3.81138e-09 3.22591e-09)
(5.45265e-08 2.50835e-09 4.73461e-09)
(5.72474e-08 2.13206e-09 5.97448e-09)
(6.23365e-08 2.16646e-09 7.03247e-09)
(7.06303e-08 1.10486e-09 8.06805e-09)
(8.32609e-08 -1.82959e-08 9.14363e-09)
(4.59309e-08 1.39946e-08 2.79081e-10)
(5.00754e-08 6.95245e-09 1.19351e-09)
(5.15744e-08 3.02423e-09 2.27998e-09)
(5.291e-08 1.44916e-09 3.34035e-09)
(5.5599e-08 8.92183e-10 4.27505e-09)
(6.06347e-08 8.45205e-10 5.1087e-09)
(6.88809e-08 -2.3634e-10 5.9378e-09)
(8.1521e-08 -1.94227e-08 6.82254e-09)
(4.50936e-08 1.37267e-08 1.8815e-10)
(4.91605e-08 6.62741e-09 7.30688e-10)
(5.06437e-08 2.55796e-09 1.3567e-09)
(5.19717e-08 8.00688e-10 1.98044e-09)
(5.46375e-08 8.75966e-11 2.55368e-09)
(5.96359e-08 -5.93794e-11 3.0841e-09)
(6.78432e-08 -1.18427e-09 3.62104e-09)
(8.04778e-08 -2.02596e-08 4.19944e-09)
(4.4711e-08 1.36018e-08 6.52399e-11)
(4.87413e-08 6.47102e-09 2.45221e-10)
(5.02143e-08 2.33549e-09 4.50142e-10)
(5.1536e-08 4.89562e-10 6.55741e-10)
(5.41892e-08 -3.07693e-10 8.48292e-10)
(5.91685e-08 -5.15114e-10 1.02993e-09)
(6.73553e-08 -1.66983e-09 1.2157e-09)
(7.99855e-08 -2.06997e-08 1.4164e-09)
(1.46929e-08 3.67277e-08 7.62153e-08)
(2.26791e-08 2.47844e-08 8.29681e-08)
(2.37237e-08 1.68121e-08 8.72873e-08)
(2.40042e-08 1.27482e-08 9.05008e-08)
(2.50275e-08 1.04848e-08 9.40433e-08)
(2.69663e-08 9.16883e-09 9.8954e-08)
(3.0123e-08 6.61441e-09 1.05945e-07)
(3.50489e-08 -1.77747e-08 1.15247e-07)
(5.41816e-10 2.51461e-08 7.03727e-08)
(3.31246e-09 1.88817e-08 7.74203e-08)
(4.43388e-09 1.45528e-08 8.12126e-08)
(5.11134e-09 1.15452e-08 8.4195e-08)
(6.12247e-09 9.17558e-09 8.78013e-08)
(7.59873e-09 7.38087e-09 9.30115e-08)
(9.59274e-09 4.77009e-09 1.00665e-07)
(1.17946e-08 -1.74745e-08 1.11519e-07)
(2.52556e-10 2.51275e-08 6.99681e-08)
(-6.37434e-10 1.85559e-08 7.72338e-08)
(3.79357e-10 1.3921e-08 8.11882e-08)
(2.10814e-09 1.0642e-08 8.42926e-08)
(3.7894e-09 8.027e-09 8.79945e-08)
(5.30466e-09 5.99734e-09 9.32846e-08)
(6.60714e-09 3.15648e-09 1.01015e-07)
(7.94067e-09 -1.92041e-08 1.11986e-07)
(-1.37472e-08 3.648e-08 7.52634e-08)
(-1.98298e-08 2.35776e-08 8.27673e-08)
(-1.87614e-08 1.47377e-08 8.75772e-08)
(-1.66491e-08 9.90791e-09 9.11534e-08)
(-1.49824e-08 6.95051e-09 9.49808e-08)
(-1.39414e-08 4.97463e-09 1.00128e-07)
(-1.38687e-08 1.75974e-09 1.07331e-07)
(-1.53922e-08 -2.30796e-08 1.16937e-07)
(-6.95202e-08 3.43242e-08 1.52015e-08)
(-7.23794e-08 2.12325e-08 2.59281e-08)
(-7.24938e-08 1.25663e-08 2.97918e-08)
(-7.20315e-08 8.08728e-09 3.18557e-08)
(-7.25141e-08 5.37964e-09 3.36091e-08)
(-7.46518e-08 3.49927e-09 3.5675e-08)
(-7.89206e-08 3.41605e-10 3.86668e-08)
(-8.56415e-08 -2.44112e-08 4.30937e-08)
(-5.91719e-08 2.00725e-08 1.11974e-11)
(-6.22175e-08 1.26609e-08 5.69521e-09)
(-6.2036e-08 7.98922e-09 9.67968e-09)
(-6.14619e-08 5.26952e-09 1.18424e-08)
(-6.20105e-08 3.26278e-09 1.33251e-08)
(-6.4473e-08 1.632e-09 1.48625e-08)
(-6.95517e-08 -1.01934e-09 1.67527e-08)
(-7.8167e-08 -2.29019e-08 1.83331e-08)
(-5.19246e-08 1.57577e-08 -1.10228e-10)
(-5.55396e-08 8.36445e-09 3.29616e-09)
(-5.55786e-08 4.45304e-09 6.8004e-09)
(-5.50846e-08 2.54421e-09 9.23069e-09)
(-5.56777e-08 1.1736e-09 1.09272e-08)
(-5.82652e-08 5.32257e-11 1.24301e-08)
(-6.36702e-08 -2.06098e-09 1.3961e-08)
(-7.30986e-08 -2.28039e-08 1.51426e-08)
(-4.76859e-08 1.44059e-08 3.61247e-10)
(-5.13613e-08 6.6732e-09 2.66807e-09)
(-5.16634e-08 2.41975e-09 5.34513e-09)
(-5.13446e-08 4.87546e-10 7.57215e-09)
(-5.20189e-08 -6.76241e-10 9.27169e-09)
(-5.46744e-08 -1.50949e-09 1.06947e-08)
(-6.02219e-08 -3.38679e-09 1.20423e-08)
(-7.00018e-08 -2.35737e-08 1.32454e-08)
(-4.52942e-08 1.3785e-08 4.84991e-10)
(-4.89316e-08 5.94952e-09 2.13022e-09)
(-4.94057e-08 1.33528e-09 4.03818e-09)
(-4.92454e-08 -8.84518e-10 5.79727e-09)
(-5.00079e-08 -2.14362e-09 7.26126e-09)
(-5.27129e-08 -2.94793e-09 8.51046e-09)
(-5.83207e-08 -4.78097e-09 9.68847e-09)
(-6.82408e-08 -2.46299e-08 1.08265e-08)
(-4.39064e-08 1.34266e-08 4.12825e-10)
(-4.75119e-08 5.55969e-09 1.54326e-09)
(-4.80817e-08 7.26725e-10 2.8177e-09)
(-4.80286e-08 -1.75839e-09 4.05119e-09)
(-4.88607e-08 -3.20568e-09 5.14457e-09)
(-5.16017e-08 -4.10677e-09 6.1158e-09)
(-5.72346e-08 -5.97906e-09 7.04843e-09)
(-6.72178e-08 -2.56345e-08 7.97908e-09)
(-4.31217e-08 1.3219e-08 2.63577e-10)
(-4.67081e-08 5.32952e-09 9.28592e-10)
(-4.73274e-08 3.76033e-10 1.66265e-09)
(-4.73358e-08 -2.28389e-09 2.38766e-09)
(-4.82122e-08 -3.89023e-09 3.05522e-09)
(-5.09768e-08 -4.90079e-09 3.66842e-09)
(-5.66217e-08 -6.82936e-09 4.2682e-09)
(-6.66379e-08 -2.6388e-08 4.87467e-09)
(-4.27634e-08 1.31225e-08 8.96037e-11)
(-4.63405e-08 5.21867e-09 3.09245e-10)
(-4.69808e-08 2.09988e-10 5.49385e-10)
(-4.70167e-08 -2.53412e-09 7.8828e-10)
(-4.79141e-08 -4.22543e-09 1.01209e-09)
(-5.06902e-08 -5.30081e-09 1.22135e-09)
(-5.63406e-08 -7.26555e-09 1.42817e-09)
(-6.63724e-08 -2.67859e-08 1.63832e-09)
(3.54243e-08 -9.40108e-08 4.04541e-08)
(3.13026e-08 -8.75695e-08 1.60449e-08)
(2.89466e-08 -8.34128e-08 1.34183e-08)
(2.7645e-08 -8.12793e-08 1.2047e-08)
(2.68344e-08 -8.05139e-08 1.00565e-08)
(2.62958e-08 -8.0399e-08 7.52269e-09)
(2.59546e-08 -8.05031e-08 4.63815e-09)
(2.57876e-08 -8.06019e-08 1.56552e-09)
(1.21573e-08 -9.10116e-08 3.94386e-08)
(1.0753e-08 -8.30509e-08 1.72043e-08)
(9.56791e-09 -7.82775e-08 1.46026e-08)
(8.82059e-09 -7.58869e-08 1.28339e-08)
(8.32444e-09 -7.50115e-08 1.05427e-08)
(7.97408e-09 -7.48307e-08 7.81634e-09)
(7.74265e-09 -7.48914e-08 4.79803e-09)
(7.62691e-09 -7.49679e-08 1.61662e-09)
(8.30643e-09 -9.21992e-08 4.04573e-08)
(7.75097e-09 -8.41437e-08 1.81195e-08)
(7.27407e-09 -7.93183e-08 1.53207e-08)
(6.69633e-09 -7.68848e-08 1.33794e-08)
(6.17698e-09 -7.59729e-08 1.09422e-08)
(5.79339e-09 -7.57639e-08 8.08914e-09)
(5.54981e-09 -7.58054e-08 4.95684e-09)
(5.43263e-09 -7.58722e-08 1.66875e-09)
(-1.50191e-08 -9.78851e-08 4.35958e-08)
(-1.27365e-08 -9.11978e-08 1.87593e-08)
(-1.19934e-08 -8.68995e-08 1.55514e-08)
(-1.20232e-08 -8.46401e-08 1.36814e-08)
(-1.22461e-08 -8.37677e-08 1.12601e-08)
(-1.2456e-08 -8.35704e-08 8.34645e-09)
(-1.25993e-08 -8.36185e-08 5.11801e-09)
(-1.26698e-08 -8.36891e-08 1.72307e-09)
)
;
        gradient        uniform (0 0 0);
    }
    symmetry
    {
        type            solidSymmetry;
        patchType       symmetry;
        secondOrder     false;
        value           nonuniform List<vector> 
32
(
(8.18953e-09 8.28818e-09 0)
(1.30651e-08 5.09683e-09 0)
(1.36862e-08 2.1697e-09 0)
(1.37279e-08 3.04021e-10 0)
(1.44276e-08 -9.35155e-10 0)
(1.62367e-08 -1.83125e-09 0)
(1.96905e-08 -3.89465e-09 0)
(2.51339e-08 -2.23884e-08 0)
(-2.79583e-10 1.1055e-09 0)
(1.00836e-09 1.16899e-09 0)
(1.49432e-09 5.37992e-10 0)
(1.76132e-09 -6.87812e-10 0)
(2.36737e-09 -2.16093e-09 0)
(3.52328e-09 -3.59556e-09 0)
(5.35399e-09 -5.67154e-09 0)
(7.44183e-09 -2.16198e-08 0)
(2.52628e-10 1.00964e-09 0)
(-6.98279e-10 8.44753e-10 0)
(-4.30698e-10 -1.31854e-11 0)
(5.03025e-10 -1.46181e-09 0)
(1.55798e-09 -3.1573e-09 0)
(2.51938e-09 -4.8159e-09 0)
(3.2463e-09 -7.10635e-09 0)
(4.081e-09 -2.31242e-08 0)
(-8.07429e-09 7.96495e-09 0)
(-1.25561e-08 4.13534e-09 0)
(-1.24077e-08 5.41804e-10 0)
(-1.12291e-08 -1.99294e-09 0)
(-1.02434e-08 -3.89876e-09 0)
(-9.92281e-09 -5.45657e-09 0)
(-1.08672e-08 -8.1667e-09 0)
(-1.35278e-08 -2.70215e-08 0)
)
;
    }
    bottom
    {
        type            fixedDisplacement;
        value           uniform (0 0 0);
    }
}


// ************************************************************************* //
