/*--------------------------------*- C++ -*----------------------------------*\
| =========                 |                                                 |
| \\      /  F ield         | OpenFOAM: The Open Source CFD Toolbox           |
|  \\    /   O peration     | Version:  v1912                                 |
|   \\  /    A nd           | Website:  www.openfoam.com                      |
|    \\/     M anipulation  |                                                 |
\*---------------------------------------------------------------------------*/
FoamFile
{
    version     2.0;
    format      ascii;
    class       volScalarField;
    location    "0.35/solid";
    object      epsilonEq;
}
// * * * * * * * * * * * * * * * * * * * * * * * * * * * * * * * * * * * * * //

dimensions      [0 0 0 0 0 0 0];


internalField   nonuniform List<scalar> 
256
(
2.43891e-06
1.86608e-06
1.84769e-06
2.36217e-06
1.60007e-06
1.48573e-06
1.46715e-06
1.53252e-06
1.64369e-06
1.46925e-06
1.45046e-06
1.57726e-06
1.72957e-06
1.50587e-06
1.48724e-06
1.66403e-06
1.81277e-06
1.57009e-06
1.55152e-06
1.74764e-06
1.88608e-06
1.65317e-06
1.63457e-06
1.82109e-06
1.70475e-06
1.63532e-06
1.61815e-06
1.64488e-06
1.39169e-07
1.80739e-06
1.7934e-06
1.50269e-07
1.63946e-06
3.51077e-07
3.43044e-07
1.55665e-06
1.32239e-06
3.28952e-07
3.20386e-07
1.24475e-06
1.32536e-06
2.65294e-07
2.57998e-07
1.2482e-06
1.35969e-06
2.12292e-07
2.06007e-07
1.282e-06
1.41605e-06
1.92952e-07
1.87213e-07
1.33734e-06
1.49559e-06
1.882e-07
1.82821e-07
1.41602e-06
1.47981e-06
2.31862e-08
3.04083e-08
1.40387e-06
1.70422e-06
1.63609e-06
1.61929e-06
1.64544e-06
1.44994e-06
1.98646e-07
1.93075e-07
1.37212e-06
1.27875e-06
2.33411e-07
2.23941e-07
1.20265e-06
1.2916e-06
2.01553e-07
1.92023e-07
1.21404e-06
1.32328e-06
1.59747e-07
1.50138e-07
1.24421e-06
1.37812e-06
1.41708e-07
1.31887e-07
1.2973e-06
1.46322e-06
1.44075e-07
1.34335e-07
1.38087e-06
1.4947e-06
1.82257e-07
1.78247e-07
1.41578e-06
1.88574e-06
1.65491e-06
1.63702e-06
1.82337e-06
1.32441e-06
1.71927e-07
1.67004e-07
1.25194e-06
1.18665e-06
2.02813e-07
1.94535e-07
1.11484e-06
1.20575e-06
1.80256e-07
1.71455e-07
1.13141e-06
1.23807e-06
1.46029e-07
1.36912e-07
1.16153e-06
1.29192e-06
1.30369e-07
1.20871e-07
1.21314e-06
1.37618e-06
1.33675e-07
1.24141e-07
1.29545e-06
1.41379e-06
1.76077e-07
1.72583e-07
1.33624e-06
1.81731e-06
1.57499e-06
1.55756e-06
1.75682e-06
1.25132e-06
1.56348e-07
1.51079e-07
1.18263e-06
1.1231e-06
1.84833e-07
1.7732e-07
1.05452e-06
1.14566e-06
1.66976e-07
1.5897e-07
1.07411e-06
1.1794e-06
1.37307e-07
1.28854e-07
1.10518e-06
1.23341e-06
1.23746e-07
1.14763e-07
1.15659e-06
1.31701e-06
1.27654e-07
1.1855e-07
1.23795e-06
1.35536e-06
1.67359e-07
1.64595e-07
1.27933e-06
1.75178e-06
1.5154e-06
1.49839e-06
1.69317e-06
1.20854e-06
1.46901e-07
1.41309e-07
1.14235e-06
1.08433e-06
1.74598e-07
1.675e-07
1.01788e-06
1.10861e-06
1.59418e-07
1.51939e-07
1.03897e-06
1.1434e-06
1.32222e-07
1.24265e-07
1.07081e-06
1.19774e-06
1.19804e-07
1.11216e-07
1.12231e-06
1.28095e-06
1.24405e-07
1.15647e-07
1.20308e-06
1.31915e-06
1.63212e-07
1.61013e-07
1.24424e-06
1.70843e-06
1.47725e-06
1.46053e-06
1.65123e-06
1.18427e-06
1.41356e-07
1.3557e-07
1.11959e-06
1.06216e-06
1.68797e-07
1.61932e-07
9.97011e-07
1.08721e-06
1.54978e-07
1.478e-07
1.01877e-06
1.12258e-06
1.29077e-07
1.21432e-07
1.05105e-06
1.17714e-06
1.17135e-07
1.08812e-07
1.1026e-06
1.26009e-06
1.2217e-07
1.13645e-07
1.18297e-06
1.29808e-06
1.61223e-07
1.59403e-07
1.2239e-06
1.68283e-06
1.45469e-06
1.43816e-06
1.62658e-06
1.17318e-06
1.38741e-07
1.32866e-07
1.10922e-06
1.05202e-06
1.66092e-07
1.59336e-07
9.87497e-07
1.07736e-06
1.52832e-07
1.45794e-07
1.0095e-06
1.11299e-06
1.27493e-07
1.19998e-07
1.04196e-06
1.16762e-06
1.15721e-07
1.07533e-07
1.09353e-06
1.25044e-06
1.20937e-07
1.1253e-07
1.17369e-06
1.28832e-06
1.60381e-07
1.58754e-07
1.21449e-06
1.671e-06
1.44421e-06
1.42777e-06
1.61522e-06
)
;

boundaryField
{
    interface
    {
        type            calculated;
        value           nonuniform List<scalar> 
192
(
3.28533e-06
2.37945e-06
2.44331e-06
2.55859e-06
2.67799e-06
2.80463e-06
2.71198e-06
1.45516e-06
2.7711e-06
2.35729e-06
2.38256e-06
2.45953e-06
2.57042e-06
2.72874e-06
2.82238e-06
2.71192e-06
2.47884e-06
2.22591e-06
2.25979e-06
2.33117e-06
2.43861e-06
2.60051e-06
2.72931e-06
2.8057e-06
2.27344e-06
2.06235e-06
2.10306e-06
2.17391e-06
2.27926e-06
2.43918e-06
2.57272e-06
2.68562e-06
2.15212e-06
1.95415e-06
1.99844e-06
2.07021e-06
2.17518e-06
2.33374e-06
2.46721e-06
2.58791e-06
2.08047e-06
1.88827e-06
1.93423e-06
2.00683e-06
2.11187e-06
2.26951e-06
2.40195e-06
2.52448e-06
2.03972e-06
1.8505e-06
1.8972e-06
1.97029e-06
2.0754e-06
2.23243e-06
2.36391e-06
2.487e-06
2.0211e-06
1.83322e-06
1.88019e-06
1.9535e-06
2.05864e-06
2.21534e-06
2.3463e-06
2.46961e-06
3.40365e-06
2.51083e-06
2.57524e-06
2.69185e-06
2.81285e-06
2.94206e-06
2.86372e-06
1.70951e-06
3.13629e-06
2.6481e-06
2.65517e-06
2.73405e-06
2.85184e-06
3.01429e-06
3.10884e-06
2.95849e-06
3.10389e-06
2.61474e-06
2.62077e-06
2.69937e-06
2.81701e-06
2.97921e-06
3.07456e-06
2.93229e-06
3.30547e-06
2.42252e-06
2.48607e-06
2.6025e-06
2.72337e-06
2.85208e-06
2.77718e-06
1.67104e-06
3.17073e-06
2.26968e-06
2.33353e-06
2.44888e-06
2.56818e-06
2.69503e-06
2.60842e-06
1.39776e-06
2.6365e-06
2.22661e-06
2.25061e-06
2.32557e-06
2.4342e-06
2.5907e-06
2.68822e-06
2.60895e-06
2.34928e-06
2.09696e-06
2.12803e-06
2.19651e-06
2.30082e-06
2.45977e-06
2.5912e-06
2.69762e-06
2.15047e-06
1.93868e-06
1.97565e-06
2.04294e-06
2.14459e-06
2.30092e-06
2.4362e-06
2.57857e-06
2.03395e-06
1.83456e-06
1.87462e-06
1.94238e-06
2.04324e-06
2.19778e-06
2.33247e-06
2.48227e-06
1.96543e-06
1.77137e-06
1.81284e-06
1.88114e-06
1.98179e-06
2.13512e-06
2.26845e-06
2.4199e-06
1.92657e-06
1.73523e-06
1.77732e-06
1.84595e-06
1.9465e-06
2.09902e-06
2.2312e-06
2.38314e-06
1.90884e-06
1.71873e-06
1.76104e-06
1.82981e-06
1.93031e-06
2.08241e-06
2.21397e-06
2.36612e-06
1.7104e-06
2.86398e-06
2.94317e-06
2.82065e-06
2.72204e-06
2.65791e-06
2.61995e-06
2.60232e-06
2.95916e-06
3.11033e-06
3.01792e-06
2.86119e-06
2.75428e-06
2.68681e-06
2.64694e-06
2.62837e-06
2.9329e-06
3.07621e-06
2.98317e-06
2.82692e-06
2.72037e-06
2.65313e-06
2.61341e-06
2.59491e-06
1.67153e-06
2.77798e-06
2.85501e-06
2.73458e-06
2.63774e-06
2.57493e-06
2.53784e-06
2.52065e-06
)
;
    }
    symmetry
    {
        type            symmetry;
    }
    bottom
    {
        type            calculated;
        value           nonuniform List<scalar> 
32
(
3.27498e-06
1.96394e-06
1.66919e-06
1.52749e-06
1.4489e-06
1.40248e-06
1.37594e-06
1.36379e-06
2.22207e-06
4.33105e-07
2.21632e-07
1.97135e-07
1.85434e-07
1.77184e-07
1.71942e-07
1.69414e-07
2.20332e-06
4.22825e-07
2.12731e-07
1.88869e-07
1.7697e-07
1.68553e-07
1.63226e-07
1.60665e-07
3.19083e-06
1.87583e-06
1.58747e-06
1.45256e-06
1.37879e-06
1.33553e-06
1.31089e-06
1.29963e-06
)
;
    }
}


// ************************************************************************* //
