/*--------------------------------*- C++ -*----------------------------------*\
| =========                 |                                                 |
| \\      /  F ield         | OpenFOAM: The Open Source CFD Toolbox           |
|  \\    /   O peration     | Version:  v1912                                 |
|   \\  /    A nd           | Website:  www.openfoam.com                      |
|    \\/     M anipulation  |                                                 |
\*---------------------------------------------------------------------------*/
FoamFile
{
    version     2.0;
    format      ascii;
    class       volSymmTensorField;
    location    "0.35/solid";
    object      epsilon;
}
// * * * * * * * * * * * * * * * * * * * * * * * * * * * * * * * * * * * * * //

dimensions      [0 0 0 0 0 0 0];


internalField   nonuniform List<symmTensor> 
256
(
(-2.59029e-06 8.38935e-08 -3.00621e-08 9.86431e-07 8.50361e-08 -2.73673e-06)
(-3.17108e-07 -6.60972e-08 -1.11483e-08 6.37899e-07 8.73463e-08 -2.50694e-06)
(-3.1342e-07 8.58511e-08 1.13428e-08 6.26035e-07 8.96878e-08 -2.48431e-06)
(-2.50826e-06 -7.32288e-08 3.10936e-08 9.41022e-07 9.3675e-08 -2.67735e-06)
(-2.56603e-06 -1.33012e-08 -4.23423e-08 -2.37733e-07 -1.38675e-08 -2.70123e-06)
(-5.1266e-07 -2.46822e-08 -1.73449e-08 -5.77938e-08 -8.33577e-09 -2.47806e-06)
(-5.08049e-07 4.03892e-08 1.84071e-08 -6.8892e-08 -6.70976e-09 -2.45468e-06)
(-2.481e-06 2.01349e-08 4.41585e-08 -2.69317e-07 -8.00791e-09 -2.64342e-06)
(-2.60822e-06 -1.70799e-08 -4.49175e-08 -2.13553e-07 -2.03775e-08 -2.74126e-06)
(-5.1741e-07 -1.33411e-08 -1.88196e-08 -1.17428e-07 -1.90795e-08 -2.49328e-06)
(-5.13159e-07 2.52387e-08 2.02487e-08 -1.27747e-07 -1.79791e-08 -2.46943e-06)
(-2.52204e-06 2.20173e-08 4.69485e-08 -2.42397e-07 -1.63174e-08 -2.68259e-06)
(-2.66321e-06 -6.96785e-09 -4.60769e-08 -1.43614e-07 -1.2295e-08 -2.80429e-06)
(-4.88366e-07 -6.82824e-09 -1.93214e-08 -1.26297e-07 -1.1877e-08 -2.5439e-06)
(-4.84344e-07 1.55954e-08 2.07725e-08 -1.35773e-07 -1.10523e-08 -2.51986e-06)
(-2.57604e-06 1.06478e-08 4.81497e-08 -1.70309e-07 -9.19983e-09 -2.74505e-06)
(-2.74803e-06 4.98736e-10 -4.63237e-08 -1.07363e-07 -4.04616e-09 -2.89653e-06)
(-4.75423e-07 -2.35126e-09 -1.93774e-08 -1.22734e-07 -3.33826e-09 -2.63407e-06)
(-4.71434e-07 8.55724e-09 2.07571e-08 -1.31808e-07 -2.63577e-09 -2.60991e-06)
(-2.66008e-06 2.11091e-09 4.84077e-08 -1.32839e-07 -1.45625e-09 -2.83686e-06)
(-2.88398e-06 8.24536e-09 -4.56618e-08 -1.345e-07 6.34628e-09 -3.03489e-06)
(-4.89115e-07 1.43093e-09 -1.9027e-08 -1.45953e-07 7.28639e-09 -2.77916e-06)
(-4.85323e-07 2.37716e-09 2.03807e-08 -1.54871e-07 7.96996e-09 -2.75489e-06)
(-2.79638e-06 -6.9033e-09 4.77872e-08 -1.59661e-07 8.7266e-09 -2.9748e-06)
(-3.08027e-06 2.65158e-08 -4.41122e-08 -6.04642e-07 2.63409e-08 -3.23253e-06)
(-5.41376e-07 7.93484e-09 -1.8294e-08 -5.52285e-07 2.78251e-08 -2.99908e-06)
(-5.38802e-07 -7.15325e-09 1.97553e-08 -5.58436e-07 2.85633e-08 -2.97501e-06)
(-2.99722e-06 -2.70813e-08 4.6314e-08 -6.24507e-07 2.86664e-08 -3.17257e-06)
(-3.35099e-06 4.20076e-08 -4.15616e-08 -3.51513e-06 4.55443e-08 -3.51475e-06)
(-6.34565e-07 1.77857e-08 -1.71896e-08 -3.34454e-06 4.7817e-08 -3.34355e-06)
(-6.34427e-07 -1.8382e-08 1.87591e-08 -3.3234e-06 4.85004e-08 -3.32225e-06)
(-3.2811e-06 -4.35964e-08 4.36882e-08 -3.46193e-06 4.74566e-08 -3.4615e-06)
(-2.22515e-06 6.12486e-08 -2.15454e-08 5.40249e-07 -9.22678e-08 -3.19167e-07)
(-2.48268e-07 -6.54836e-08 -3.37006e-09 2.4051e-07 -5.06853e-08 -2.82338e-07)
(-2.42867e-07 7.56781e-08 5.20366e-09 2.27431e-07 -4.5211e-08 -2.82487e-07)
(-2.13327e-06 -5.41603e-08 2.2871e-08 4.94042e-07 -7.51711e-08 -3.21909e-07)
(-2.22335e-06 -1.51384e-08 -2.93787e-08 -7.26499e-08 -3.45462e-08 -4.70799e-07)
(-4.0972e-07 -2.56466e-08 -7.77148e-09 7.68681e-08 -1.49669e-08 -4.1756e-07)
(-4.03035e-07 3.3016e-08 1.10854e-08 6.51081e-08 -1.13604e-08 -4.19087e-07)
(-2.12961e-06 1.83439e-08 3.15023e-08 -1.05608e-07 -2.25243e-08 -4.78687e-07)
(-2.24927e-06 -1.76381e-08 -2.95947e-08 -1.01559e-07 -2.76419e-08 -4.77585e-07)
(-4.10339e-07 -1.50698e-08 -8.03261e-09 -1.95919e-08 -2.11625e-08 -4.1899e-07)
(-4.04016e-07 2.02648e-08 1.17108e-08 -2.95604e-08 -1.85411e-08 -4.21553e-07)
(-2.15416e-06 1.96657e-08 3.18836e-08 -1.29876e-07 -1.85331e-08 -4.88582e-07)
(-2.29442e-06 -7.76469e-09 -2.9609e-08 -9.44449e-08 -2.50711e-08 -4.69804e-07)
(-3.81482e-07 -8.58233e-09 -7.69841e-09 -8.05683e-08 -2.25418e-08 -4.08699e-07)
(-3.75266e-07 1.21487e-08 1.12541e-08 -8.95602e-08 -2.04368e-08 -4.11832e-07)
(-2.19754e-06 9.24089e-09 3.18861e-08 -1.20355e-07 -1.76906e-08 -4.82427e-07)
(-2.37707e-06 2.02877e-10 -2.96297e-08 -8.807e-08 -1.58847e-08 -4.71875e-07)
(-3.69432e-07 -3.77852e-09 -7.54574e-09 -1.04201e-07 -1.44781e-08 -4.10498e-07)
(-3.63066e-07 5.92887e-09 1.08986e-08 -1.1287e-07 -1.26487e-08 -4.13949e-07)
(-2.27819e-06 7.16947e-10 3.18825e-08 -1.1288e-07 -9.5759e-09 -4.85395e-07)
(-2.5204e-06 8.88093e-09 -2.90277e-08 -1.14892e-07 -2.49724e-09 -4.86896e-07)
(-3.85752e-07 5.82603e-10 -7.19987e-09 -1.26419e-07 -1.77862e-09 -4.26635e-07)
(-3.79393e-07 8.35955e-11 1.04402e-08 -1.34834e-07 -1.40302e-10 -4.30374e-07)
(-2.42014e-06 -8.85643e-09 3.12989e-08 -1.39085e-07 3.02477e-09 -5.01197e-07)
(-2.74208e-06 2.81365e-08 -2.75342e-08 -5.21447e-07 1.00841e-08 -5.25532e-07)
(-4.42833e-07 7.67276e-09 -6.56794e-09 -4.65872e-07 1.05931e-08 -4.67346e-07)
(-4.37608e-07 -8.92546e-09 9.63028e-09 -4.70994e-07 1.19214e-08 -4.71648e-07)
(-2.64455e-06 -2.96604e-08 2.97624e-08 -5.39081e-07 1.4504e-08 -5.41225e-07)
(-3.08095e-06 4.43771e-08 -2.56299e-08 -3.23229e-06 2.69072e-08 -6.05619e-07)
(-5.41866e-07 1.86441e-08 -6.28154e-09 -2.99987e-06 2.82291e-08 -5.51066e-07)
(-5.39369e-07 -1.95253e-08 8.27801e-09 -2.97599e-06 2.89296e-08 -5.56426e-07)
(-2.99761e-06 -4.62716e-08 2.72977e-08 -3.17253e-06 2.90641e-08 -6.23838e-07)
(-1.96566e-06 4.71087e-08 -1.01466e-08 3.71962e-07 -5.25878e-09 -6.37597e-09)
(-2.01838e-07 -6.84589e-08 8.57176e-11 1.05802e-07 2.737e-08 -9.33352e-09)
(-1.96365e-07 7.33656e-08 1.80895e-09 9.35594e-08 3.17868e-08 -1.08496e-08)
(-1.87548e-06 -4.22605e-08 1.08652e-08 3.30714e-07 8.3596e-09 -1.09972e-08)
(-1.9975e-06 -1.42991e-08 -1.21921e-08 -8.02314e-08 5.23394e-09 -7.91275e-08)
(-3.4103e-07 -2.63738e-08 -1.1457e-09 5.11733e-08 2.17312e-08 -8.40427e-08)
(-3.33941e-07 2.9503e-08 4.39176e-09 3.96273e-08 2.54286e-08 -8.7472e-08)
(-1.90426e-06 1.58352e-08 1.35385e-08 -1.12575e-07 1.69949e-08 -8.94151e-08)
(-2.02585e-06 -1.65875e-08 -1.07043e-08 -7.20792e-08 -3.58965e-09 -1.05894e-07)
(-3.417e-07 -1.5514e-08 -5.96865e-10 -8.99476e-10 2.50945e-09 -1.11699e-07)
(-3.34809e-07 1.72924e-08 3.97726e-09 -1.0788e-08 5.58912e-09 -1.16376e-07)
(-1.93079e-06 1.72545e-08 1.21617e-08 -1.00595e-07 6.39779e-09 -1.1983e-07)
(-2.06818e-06 -7.84195e-09 -9.96688e-09 -6.25627e-08 -1.13582e-08 -1.05098e-07)
(-3.14708e-07 -9.33363e-09 -4.62265e-11 -5.2002e-08 -8.82022e-09 -1.11502e-07)
(-3.07807e-07 1.02543e-08 3.16879e-09 -6.09202e-08 -6.17186e-09 -1.16957e-07)
(-1.97095e-06 8.27054e-09 1.13559e-08 -8.8722e-08 -2.73834e-09 -1.21304e-07)
(-2.14834e-06 1.20934e-10 -9.8794e-09 -6.10772e-08 -9.77128e-09 -1.02127e-07)
(-3.03844e-07 -4.43187e-09 5.61263e-11 -7.81913e-08 -8.45529e-09 -1.09043e-07)
(-2.96679e-07 4.64689e-09 2.78868e-09 -8.67445e-08 -6.11835e-09 -1.15017e-07)
(-2.04853e-06 4.67222e-11 1.11884e-08 -8.59827e-08 -2.23846e-09 -1.1983e-07)
(-2.2921e-06 9.56975e-09 -9.62574e-09 -8.74043e-08 -2.42124e-09 -1.07542e-07)
(-3.22681e-07 4.71023e-10 1.47789e-10 -9.9159e-08 -1.9169e-09 -1.14891e-07)
(-3.15417e-07 -1.05872e-09 2.47474e-09 -1.07353e-07 1.02527e-10 -1.21312e-07)
(-2.19002e-06 -1.00249e-08 1.08787e-08 -1.11375e-07 4.04286e-09 -1.26495e-07)
(-2.52093e-06 2.95504e-08 -8.69098e-09 -4.77473e-07 1.85875e-09 -1.23647e-07)
(-3.84714e-07 8.09566e-09 4.53979e-10 -4.20478e-07 2.15721e-09 -1.3136e-07)
(-3.78524e-07 -9.92823e-09 1.70854e-09 -4.25279e-07 3.64653e-09 -1.38268e-07)
(-2.42029e-06 -3.1301e-08 9.78393e-09 -4.94606e-07 6.71064e-09 -1.439e-07)
(-2.88544e-06 4.58413e-08 -7.55293e-09 -3.03405e-06 8.76106e-09 -1.35245e-07)
(-4.88833e-07 1.92529e-08 4.62825e-10 -2.78005e-06 9.37741e-09 -1.43298e-07)
(-4.85377e-07 -2.02048e-08 1.48508e-10 -2.75604e-06 9.95251e-09 -1.50608e-07)
(-2.79735e-06 -4.7791e-08 7.97426e-09 -2.97451e-06 1.06536e-08 -1.56536e-07)
(-1.80878e-06 4.01441e-08 -4.59283e-09 3.11521e-07 2.05144e-08 5.51293e-09)
(-1.78907e-07 -6.90373e-08 1.36794e-09 6.44296e-08 3.96589e-08 -1.78294e-09)
(-1.74099e-07 7.09987e-08 3.90158e-10 5.33741e-08 4.29203e-08 -2.9509e-09)
(-1.7223e-06 -3.6902e-08 5.08883e-09 2.75387e-07 3.05237e-08 2.17128e-09)
(-1.84793e-06 -1.3425e-08 -5.2307e-09 -1.08449e-07 2.3411e-08 -3.12667e-08)
(-3.06382e-07 -2.64051e-08 1.69614e-09 1.3417e-08 3.37176e-08 -4.48186e-08)
(-2.99973e-07 2.7236e-08 1.35383e-09 2.55324e-09 3.67831e-08 -4.76289e-08)
(-1.758e-06 1.40397e-08 6.23665e-09 -1.38996e-07 3.29201e-08 -3.93203e-08)
(-1.88038e-06 -1.52897e-08 -3.83551e-09 -8.11659e-08 1.33122e-08 -6.31921e-08)
(-3.09165e-07 -1.53531e-08 2.4172e-09 -1.59958e-08 1.75423e-08 -7.89248e-08)
(-3.02762e-07 1.53255e-08 7.23905e-10 -2.56836e-08 2.03269e-08 -8.2876e-08)
(-1.78819e-06 1.52726e-08 4.93501e-09 -1.0939e-07 2.204e-08 -7.45909e-08)
(-1.92357e-06 -7.5026e-09 -3.0193e-09 -5.57048e-08 2.10875e-09 -7.75463e-08)
(-2.85144e-07 -9.51307e-09 2.88829e-09 -4.72042e-08 4.10636e-09 -9.42608e-08)
(-2.7861e-07 9.08411e-09 -3.75968e-11 -5.6122e-08 6.62735e-09 -9.90228e-08)
(-1.82887e-06 7.41224e-09 4.03672e-09 -8.21291e-08 1.00395e-08 -9.13551e-08)
(-2.00308e-06 7.51145e-11 -2.89007e-09 -4.68075e-08 -3.01556e-09 -8.41631e-08)
(-2.75693e-07 -4.74332e-09 2.91251e-09 -6.46379e-08 -1.77687e-09 -1.01385e-07)
(-2.68819e-07 4.05137e-09 -3.8264e-10 -7.32276e-08 4.83918e-10 -1.06758e-07)
(-1.90546e-06 -2.53855e-10 3.79783e-09 -7.20833e-08 4.0683e-09 -9.97811e-08)
(-2.14623e-06 9.84058e-09 -2.89272e-09 -7.23373e-08 -3.13127e-09 -9.19033e-08)
(-2.96e-07 4.39523e-10 2.80646e-09 -8.42829e-08 -2.44259e-09 -1.09239e-07)
(-2.8897e-07 -1.51667e-09 -5.93243e-10 -9.25122e-08 -5.22312e-10 -1.15115e-07)
(-2.04587e-06 -1.04688e-08 3.69123e-09 -9.66501e-08 2.8979e-09 -1.08985e-07)
(-2.37642e-06 3.03382e-08 -2.551e-09 -4.56541e-07 -3.70601e-09 -1.01168e-07)
(-3.61027e-07 8.4607e-09 2.78272e-09 -3.98871e-07 -3.20647e-09 -1.18388e-07)
(-3.55008e-07 -1.04725e-08 -1.16398e-09 -4.03772e-07 -1.85529e-09 -1.24656e-07)
(-2.27665e-06 -3.21291e-08 3.13121e-09 -4.7413e-07 6.69816e-10 -1.19392e-07)
(-2.74971e-06 4.66545e-08 -2.05124e-09 -2.897e-06 2.1437e-09 -1.01578e-07)
(-4.68499e-07 1.9613e-08 2.54342e-09 -2.63641e-06 2.58753e-09 -1.18844e-07)
(-4.65139e-07 -2.06648e-08 -2.45812e-09 -2.61263e-06 3.04759e-09 -1.25247e-07)
(-2.66097e-06 -4.86444e-08 1.98537e-09 -2.8383e-06 3.70681e-09 -1.20244e-07)
(-1.718e-06 3.68666e-08 -2.25677e-09 2.83992e-07 2.18062e-08 -1.74852e-09)
(-1.68267e-07 -6.84476e-08 1.26198e-09 4.75042e-08 3.22453e-08 -6.49897e-09)
(-1.64094e-07 6.87216e-08 1.54408e-10 3.74815e-08 3.45741e-08 -7.38633e-09)
(-1.63446e-06 -3.46841e-08 2.65177e-09 2.5193e-07 2.88935e-08 -4.30092e-09)
(-1.75784e-06 -1.29139e-08 -2.56181e-09 -1.25919e-07 2.37421e-08 -2.62001e-08)
(-2.8993e-07 -2.61585e-08 1.89737e-09 -9.05585e-09 2.97662e-08 -3.55716e-08)
(-2.8429e-07 2.56709e-08 6.43203e-10 -1.92162e-08 3.20584e-08 -3.77987e-08)
(-1.67078e-06 1.29779e-08 3.3814e-09 -1.546e-07 3.07582e-08 -3.25904e-08)
(-1.79266e-06 -1.44141e-08 -1.71635e-09 -9.54451e-08 1.76566e-08 -5.45171e-08)
(-2.94498e-07 -1.51392e-08 2.44518e-09 -3.34635e-08 2.04042e-08 -6.56277e-08)
(-2.88729e-07 1.40846e-08 2.19619e-10 -4.28731e-08 2.25907e-08 -6.88451e-08)
(-1.70304e-06 1.40174e-08 2.62652e-09 -1.23054e-07 2.44101e-08 -6.38222e-08)
(-1.83732e-06 -7.15517e-09 -1.1488e-09 -6.12081e-08 8.4534e-09 -7.55342e-08)
(-2.73015e-07 -9.53793e-09 2.73736e-09 -5.3783e-08 9.9487e-09 -8.7368e-08)
(-2.67008e-07 8.35632e-09 -3.11717e-10 -6.26685e-08 1.20007e-08 -9.13548e-08)
(-1.74494e-06 6.78287e-09 1.99106e-09 -8.76911e-08 1.48257e-08 -8.71539e-08)
(-1.91708e-06 6.5879e-11 -1.03835e-09 -4.51316e-08 1.36493e-09 -8.96014e-08)
(-2.64851e-07 -4.91861e-09 2.70585e-09 -6.33007e-08 2.47848e-09 -1.01831e-07)
(-2.58445e-07 3.73922e-09 -5.86709e-10 -7.19643e-08 4.34782e-09 -1.06444e-07)
(-1.82155e-06 -4.27525e-10 1.77189e-09 -7.07704e-08 7.17138e-09 -1.03111e-07)
(-2.05972e-06 9.90412e-09 -1.1115e-09 -6.83682e-08 -2.46582e-09 -1.00593e-07)
(-2.85964e-07 3.85942e-10 2.53616e-09 -8.03494e-08 -1.64207e-09 -1.12951e-07)
(-2.79359e-07 -1.71702e-09 -7.56256e-10 -8.87119e-08 -6.1542e-11 -1.18072e-07)
(-1.96114e-06 -1.06178e-08 1.7207e-09 -9.31956e-08 2.48259e-09 -1.15636e-07)
(-2.2893e-06 3.07227e-08 -1.0567e-09 -4.46416e-07 -4.72731e-09 -1.09613e-07)
(-3.52474e-07 8.68151e-09 2.36719e-09 -3.8835e-07 -4.05744e-09 -1.21891e-07)
(-3.46827e-07 -1.08065e-08 -1.16822e-09 -3.93455e-07 -2.96594e-09 -1.27356e-07)
(-2.19079e-06 -3.25377e-08 1.44608e-09 -4.64676e-07 -1.17708e-09 -1.25736e-07)
(-2.66447e-06 4.70869e-08 -9.34067e-10 -2.8097e-06 1.9484e-10 -1.13689e-07)
(-4.61769e-07 1.98219e-08 1.99853e-09 -2.54804e-06 6.1747e-10 -1.2598e-07)
(-4.58729e-07 -2.09841e-08 -2.10045e-09 -2.52447e-06 9.7788e-10 -1.31501e-07)
(-2.57598e-06 -4.91312e-08 7.70038e-10 -2.75174e-06 1.43477e-09 -1.30097e-07)
(-1.66463e-06 3.52241e-08 -1.24427e-09 2.68399e-07 1.71985e-08 -5.85613e-09)
(-1.6297e-07 -6.78235e-08 8.0061e-10 3.79129e-08 2.27851e-08 -8.40311e-09)
(-1.59243e-07 6.71223e-08 2.13303e-10 2.86558e-08 2.43458e-08 -9.12896e-09)
(-1.58302e-06 -3.36959e-08 1.53885e-09 2.39236e-07 2.18992e-08 -7.93573e-09)
(-1.70428e-06 -1.26482e-08 -1.43255e-09 -1.35359e-07 1.80048e-08 -2.65534e-08)
(-2.81679e-07 -2.59563e-08 1.27367e-09 -2.11544e-08 2.14571e-08 -3.19263e-08)
(-2.76601e-07 2.47015e-08 5.96582e-10 -3.07588e-08 2.30214e-08 -3.37791e-08)
(-1.61915e-06 1.23858e-08 2.05227e-09 -1.62542e-07 2.27503e-08 -3.18434e-08)
(-1.74024e-06 -1.3942e-08 -9.93312e-10 -1.059e-07 1.4828e-08 -5.088e-08)
(-2.87273e-07 -1.50263e-08 1.60484e-09 -4.56137e-08 1.65796e-08 -5.74813e-08)
(-2.81983e-07 1.33643e-08 4.00792e-10 -5.47641e-08 1.81111e-08 -6.0203e-08)
(-1.65239e-06 1.33238e-08 1.6935e-09 -1.32874e-07 1.95257e-08 -5.87226e-08)
(-1.78597e-06 -6.94125e-09 -6.80155e-10 -6.91075e-08 8.8441e-09 -7.28714e-08)
(-2.6739e-07 -9.56399e-09 1.75054e-09 -6.22264e-08 9.92124e-09 -8.00257e-08)
(-2.61788e-07 7.92725e-09 9.54598e-11 -7.10563e-08 1.13921e-08 -8.34617e-08)
(-1.69516e-06 6.40202e-09 1.33565e-09 -9.55137e-08 1.3391e-08 -8.28732e-08)
(-1.86608e-06 6.19313e-11 -6.17974e-10 -4.92235e-08 2.94991e-09 -9.04233e-08)
(-2.6013e-07 -5.03816e-09 1.69722e-09 -6.75199e-08 3.83821e-09 -9.7939e-08)
(-2.54081e-07 3.55114e-09 -9.25819e-11 -7.62422e-08 5.1959e-09 -1.01985e-07)
(-1.77196e-06 -5.36719e-10 1.187e-09 -7.51143e-08 7.16124e-09 -1.0229e-07)
(-2.00827e-06 9.91111e-09 -6.85869e-10 -6.99089e-08 -1.20027e-09 -1.04393e-07)
(-2.81707e-07 3.33677e-10 1.54843e-09 -8.18165e-08 -4.56523e-10 -1.1214e-07)
(-2.75423e-07 -1.84538e-09 -2.31706e-10 -9.03078e-08 6.94082e-10 -1.16686e-07)
(-1.9109e-06 -1.06856e-08 1.1476e-09 -9.51804e-08 2.4109e-09 -1.17807e-07)
(-2.23673e-06 3.09466e-08 -7.08772e-10 -4.41998e-07 -3.46084e-09 -1.15999e-07)
(-3.48959e-07 8.82688e-09 1.37968e-09 -3.8355e-07 -2.81984e-09 -1.23819e-07)
(-3.43595e-07 -1.10566e-08 -5.32047e-10 -3.88835e-07 -2.02838e-09 -1.28693e-07)
(-2.13909e-06 -3.2792e-08 9.90186e-10 -4.60838e-07 -8.70152e-10 -1.30492e-07)
(-2.61185e-06 4.73826e-08 -7.15931e-10 -2.75539e-06 -2.02225e-10 -1.25311e-07)
(-4.59249e-07 1.99783e-08 1.03311e-09 -2.49373e-06 1.87231e-10 -1.33138e-07)
(-4.56464e-07 -2.12392e-08 -1.16115e-09 -2.47032e-06 4.47727e-10 -1.38044e-07)
(-2.52361e-06 -4.94827e-08 5.78262e-10 -2.69803e-06 6.99984e-10 -1.40063e-07)
(-1.63435e-06 3.43395e-08 -6.69088e-10 2.59296e-07 1.07882e-08 -7.57266e-09)
(-1.60149e-07 -6.74484e-08 4.07977e-10 3.21367e-08 1.35681e-08 -8.98606e-09)
(-1.56696e-07 6.62136e-08 1.97598e-10 2.33749e-08 1.44651e-08 -9.6215e-09)
(-1.55388e-06 -3.31844e-08 8.50217e-10 2.31969e-07 1.34673e-08 -9.37088e-09)
(-1.6738e-06 -1.25279e-08 -7.87509e-10 -1.40558e-07 1.09168e-08 -2.71417e-08)
(-2.77272e-07 -2.58537e-08 6.63799e-10 -2.77368e-08 1.27256e-08 -3.03764e-08)
(-2.72543e-07 2.41757e-08 4.73641e-10 -3.69713e-08 1.36318e-08 -3.20087e-08)
(-1.58985e-06 1.20845e-08 1.17252e-09 -1.66732e-07 1.36486e-08 -3.17507e-08)
(-1.71029e-06 -1.37157e-08 -5.83626e-10 -1.12212e-07 9.33316e-09 -4.90814e-08)
(-2.83349e-07 -1.49893e-08 8.32702e-10 -5.28024e-08 1.03304e-08 -5.32687e-08)
(-2.78361e-07 1.29826e-08 4.07409e-10 -6.17652e-08 1.12295e-08 -5.56896e-08)
(-1.62351e-06 1.2973e-08 1.02454e-09 -1.38703e-07 1.20807e-08 -5.59933e-08)
(-1.7566e-06 -6.84013e-09 -4.38019e-10 -7.52296e-08 6.09808e-09 -7.03711e-08)
(-2.64304e-07 -9.60121e-09 8.93776e-10 -6.86217e-08 6.76356e-09 -7.50731e-08)
(-2.58957e-07 7.69396e-09 2.60018e-10 -7.73996e-08 7.63881e-09 -7.81649e-08)
(-1.66676e-06 6.20276e-09 8.55393e-10 -1.01527e-07 8.79923e-09 -7.93116e-08)
(-1.83692e-06 5.25719e-11 -4.13625e-10 -5.38676e-08 2.49554e-09 -8.90961e-08)
(-2.57555e-07 -5.12024e-09 8.49347e-10 -7.22108e-08 3.06814e-09 -9.41839e-08)
(-2.51729e-07 3.43663e-09 1.54459e-10 -8.0967e-08 3.88358e-09 -9.78663e-08)
(-1.74366e-06 -5.99045e-10 7.77065e-10 -7.98987e-08 5.02614e-09 -9.98545e-08)
(-1.97877e-06 9.91237e-09 -4.56546e-10 -7.27357e-08 -3.17244e-10 -1.05103e-07)
(-2.79394e-07 2.99656e-10 7.54645e-10 -8.45507e-08 1.82709e-10 -1.10504e-07)
(-2.73308e-07 -1.94144e-09 6.09542e-11 -9.31303e-08 8.76638e-10 -1.1468e-07)
(-1.88214e-06 -1.07317e-08 7.49408e-10 -9.83026e-08 1.86668e-09 -1.17408e-07)
(-2.20629e-06 3.10983e-08 -4.7913e-10 -4.40465e-07 -1.85054e-09 -1.1933e-07)
(-3.47058e-07 8.92921e-09 6.45411e-10 -3.81677e-07 -1.40992e-09 -1.24913e-07)
(-3.41868e-07 -1.12436e-08 -1.30128e-10 -3.87085e-07 -9.32037e-10 -1.29411e-07)
(-2.10919e-06 -3.29719e-08 6.55689e-10 -4.59701e-07 -2.7883e-10 -1.32725e-07)
(-2.58105e-06 4.76026e-08 -5.04168e-10 -2.72373e-06 -1.53926e-10 -1.32523e-07)
(-4.57926e-07 2.00989e-08 4.11665e-10 -2.46212e-06 1.19119e-10 -1.38104e-07)
(-4.55301e-07 -2.14328e-08 -4.98236e-10 -2.43881e-06 2.76612e-10 -1.42628e-07)
(-2.49297e-06 -4.97462e-08 4.20807e-10 -2.66677e-06 3.94023e-10 -1.46178e-07)
(-1.62052e-06 3.39304e-08 -2.15051e-10 2.55023e-07 3.66192e-09 -8.15714e-09)
(-1.58864e-07 -6.72898e-08 1.22616e-10 2.93683e-08 4.51085e-09 -9.14449e-09)
(-1.55542e-07 6.58203e-08 7.85408e-11 2.08485e-08 4.80334e-09 -9.73785e-09)
(-1.54058e-06 -3.29445e-08 2.759e-10 2.28581e-07 4.53172e-09 -9.82154e-09)
(-1.65987e-06 -1.24861e-08 -2.57207e-10 -1.42973e-07 3.64103e-09 -2.73748e-08)
(-2.7525e-07 -2.58168e-08 2.01055e-10 -3.07492e-08 4.20829e-09 -2.97872e-08)
(-2.70689e-07 2.39514e-08 1.80098e-10 -3.98007e-08 4.50478e-09 -3.13154e-08)
(-1.57647e-06 1.19622e-08 3.87347e-10 -1.68644e-07 4.53192e-09 -3.16555e-08)
(-1.69656e-06 -1.36265e-08 -1.98072e-10 -1.15175e-07 3.14608e-09 -4.82905e-08)
(-2.81507e-07 -1.49825e-08 2.52444e-10 -5.61413e-08 3.47257e-09 -5.15515e-08)
(-2.76665e-07 1.28193e-08 1.66658e-10 -6.50076e-08 3.76844e-09 -5.38284e-08)
(-1.61029e-06 1.28275e-08 3.48197e-10 -1.41411e-07 4.04857e-09 -5.47476e-08)
(-1.74311e-06 -6.80325e-09 -1.56388e-10 -7.83986e-08 2.12968e-09 -6.89926e-08)
(-2.62806e-07 -9.62692e-09 2.6873e-10 -7.19072e-08 2.3562e-09 -7.27741e-08)
(-2.57583e-07 7.59191e-09 1.23631e-10 -8.06551e-08 2.64603e-09 -7.5699e-08)
(-1.65374e-06 6.11974e-09 2.99386e-10 -1.04626e-07 3.02356e-09 -7.74069e-08)
(-1.82352e-06 4.45555e-11 -1.50846e-10 -5.65993e-08 9.42788e-10 -8.80013e-08)
(-2.56274e-07 -5.16292e-09 2.51959e-10 -7.49602e-08 1.14041e-09 -9.21966e-08)
(-2.50556e-07 3.38129e-09 9.00071e-11 -8.37307e-08 1.41172e-09 -9.57011e-08)
(-1.73068e-06 -6.26691e-10 2.75703e-10 -8.26894e-08 1.78517e-09 -9.82036e-08)
(-1.96519e-06 9.91461e-09 -1.65249e-10 -7.4591e-08 -2.22638e-11 -1.04989e-07)
(-2.78233e-07 2.84329e-10 2.19985e-10 -8.635e-08 1.52055e-10 -1.09538e-07)
(-2.72243e-07 -1.99549e-09 5.70455e-11 -9.49727e-08 3.83571e-10 -1.13532e-07)
(-1.8689e-06 -1.0758e-08 2.65707e-10 -1.00301e-07 7.07497e-10 -1.16734e-07)
(-2.19221e-06 3.11807e-08 -1.7278e-10 -4.40101e-07 -5.55364e-10 -1.20685e-07)
(-3.46098e-07 8.98494e-09 1.83296e-10 -3.81113e-07 -4.00858e-10 -1.25461e-07)
(-3.40991e-07 -1.13466e-08 -9.21953e-12 -3.86582e-07 -2.41198e-10 -1.29777e-07)
(-2.09535e-06 -3.30706e-08 2.33275e-10 -4.59533e-07 -2.89776e-11 -1.33528e-07)
(-2.56673e-06 4.77246e-08 -1.82871e-10 -2.70913e-06 -4.69924e-11 -1.35834e-07)
(-4.57249e-07 2.01662e-08 1.01982e-10 -2.44753e-06 5.01227e-11 -1.40597e-07)
(-4.54702e-07 -2.15389e-08 -1.31071e-10 -2.42428e-06 1.02779e-10 -1.44935e-07)
(-2.47873e-06 -4.98917e-08 1.55453e-10 -2.65238e-06 1.36656e-10 -1.48941e-07)
)
;

boundaryField
{
    interface
    {
        type            calculated;
        value           nonuniform List<symmTensor> 
192
(
(-4.599e-06 2.03164e-12 2.25184e-11 9.86431e-07 8.50361e-08 -2.73673e-06)
(-4.33074e-06 7.71782e-13 3.43537e-11 -2.37733e-07 -1.38675e-08 -2.70123e-06)
(-4.41657e-06 -1.49946e-12 3.69135e-11 -2.13553e-07 -2.03775e-08 -2.74126e-06)
(-4.54307e-06 -4.07623e-12 3.69807e-11 -1.43614e-07 -1.2295e-08 -2.80429e-06)
(-4.71154e-06 -6.27638e-12 3.5946e-11 -1.07363e-07 -4.04616e-09 -2.89653e-06)
(-4.95947e-06 -1.04836e-11 3.45151e-11 -1.345e-07 6.34628e-09 -3.03489e-06)
(-5.29007e-06 -1.34766e-11 3.13217e-11 -6.04642e-07 2.63409e-08 -3.23253e-06)
(-5.69625e-06 -2.88957e-11 2.87091e-11 -3.51513e-06 4.55443e-08 -3.51475e-06)
(-3.97581e-06 1.31644e-12 1.1407e-11 5.40249e-07 -9.22678e-08 -3.19167e-07)
(-3.79029e-06 1.05768e-13 1.85448e-11 -7.26499e-08 -3.45462e-08 -4.70799e-07)
(-3.84823e-06 -2.01163e-12 1.97356e-11 -1.01559e-07 -2.76419e-08 -4.77585e-07)
(-3.95681e-06 -4.73437e-12 1.9415e-11 -9.44449e-08 -2.50711e-08 -4.69804e-07)
(-4.12115e-06 -7.13506e-12 1.8451e-11 -8.807e-08 -1.58847e-08 -4.71875e-07)
(-4.38131e-06 -1.18536e-11 1.7254e-11 -1.14892e-07 -2.49724e-09 -4.86896e-07)
(-4.75702e-06 -1.51995e-11 1.51861e-11 -5.21447e-07 1.00841e-08 -5.25532e-07)
(-5.29104e-06 -3.15622e-11 1.34596e-11 -3.23229e-06 2.69072e-08 -6.05619e-07)
(-3.52099e-06 1.10205e-12 9.13926e-12 3.71962e-07 -5.25878e-09 -6.37597e-09)
(-3.41853e-06 -1.9168e-13 1.47277e-11 -8.02314e-08 5.23394e-09 -7.91275e-08)
(-3.47854e-06 -2.37861e-12 1.56431e-11 -7.20792e-08 -3.58965e-09 -1.05894e-07)
(-3.58033e-06 -5.35799e-12 1.5371e-11 -6.25627e-08 -1.13582e-08 -1.05098e-07)
(-3.7393e-06 -8.07431e-12 1.45945e-11 -6.10772e-08 -9.77128e-09 -1.02127e-07)
(-3.99819e-06 -1.33807e-11 1.36154e-11 -8.74043e-08 -2.42124e-09 -1.07542e-07)
(-4.38303e-06 -1.72706e-11 1.20483e-11 -4.77473e-07 1.85875e-09 -1.23647e-07)
(-4.96241e-06 -3.48573e-11 1.06527e-11 -3.03405e-06 8.76106e-09 -1.35245e-07)
(-3.24114e-06 7.79891e-13 5.76039e-12 3.11521e-07 2.05144e-08 5.51293e-09)
(-3.16239e-06 -6.31603e-13 9.69087e-12 -1.08449e-07 2.3411e-08 -3.12667e-08)
(-3.22664e-06 -2.85624e-12 1.02923e-11 -8.11659e-08 1.33122e-08 -6.31921e-08)
(-3.32743e-06 -5.95392e-12 1.00282e-11 -5.57048e-08 2.10875e-09 -7.75463e-08)
(-3.48421e-06 -8.82991e-12 9.41972e-12 -4.68075e-08 -3.01556e-09 -8.41631e-08)
(-3.74085e-06 -1.44103e-11 8.6816e-12 -7.23373e-08 -3.13127e-09 -9.19033e-08)
(-4.12563e-06 -1.85439e-11 7.64471e-12 -4.56541e-07 -3.70601e-09 -1.01168e-07)
(-4.71915e-06 -3.65073e-11 6.73994e-12 -2.897e-06 2.1437e-09 -1.01578e-07)
(-3.07734e-06 6.41379e-13 4.2733e-12 2.83992e-07 2.18062e-08 -1.74852e-09)
(-3.00573e-06 -8.86876e-13 7.17185e-12 -1.25919e-07 2.37421e-08 -2.62001e-08)
(-3.07227e-06 -3.20053e-12 7.6215e-12 -9.54451e-08 1.76566e-08 -5.45171e-08)
(-3.17362e-06 -6.42239e-12 7.42554e-12 -6.12081e-08 8.4534e-09 -7.55342e-08)
(-3.32991e-06 -9.45651e-12 6.97524e-12 -4.51316e-08 1.36493e-09 -8.96014e-08)
(-3.58498e-06 -1.52707e-11 6.42036e-12 -6.83682e-08 -2.46582e-09 -1.00593e-07)
(-3.9673e-06 -1.96333e-11 5.67542e-12 -4.46416e-07 -4.72731e-09 -1.09613e-07)
(-4.5629e-06 -3.79427e-11 5.00296e-12 -2.8097e-06 1.9484e-10 -1.13689e-07)
(-2.98025e-06 5.24648e-13 2.66747e-12 2.68399e-07 1.71985e-08 -5.85613e-09)
(-2.91163e-06 -1.09417e-12 4.58093e-12 -1.35359e-07 1.80048e-08 -2.65534e-08)
(-2.97922e-06 -3.47153e-12 4.87845e-12 -1.059e-07 1.4828e-08 -5.088e-08)
(-3.08119e-06 -6.76771e-12 4.7381e-12 -6.91075e-08 8.8441e-09 -7.28714e-08)
(-3.23742e-06 -9.89369e-12 4.43235e-12 -4.92235e-08 2.94991e-09 -9.04233e-08)
(-3.49129e-06 -1.58332e-11 4.05983e-12 -6.99089e-08 -1.20027e-09 -1.04393e-07)
(-3.87084e-06 -2.03184e-11 3.58817e-12 -4.41998e-07 -3.46084e-09 -1.15999e-07)
(-4.46545e-06 -3.88124e-11 3.16718e-12 -2.75539e-06 -2.02225e-10 -1.25311e-07)
(-2.92492e-06 4.73143e-13 1.57871e-12 2.59296e-07 1.07882e-08 -7.57266e-09)
(-2.8578e-06 -1.2092e-12 2.70233e-12 -1.40558e-07 1.09168e-08 -2.71417e-08)
(-2.92587e-06 -3.64106e-12 2.87953e-12 -1.12212e-07 9.33316e-09 -4.90814e-08)
(-3.02821e-06 -6.99392e-12 2.7977e-12 -7.52296e-08 6.09808e-09 -7.03711e-08)
(-3.18443e-06 -1.01883e-11 2.61986e-12 -5.38676e-08 2.49554e-09 -8.90961e-08)
(-3.43744e-06 -1.62147e-11 2.39833e-12 -7.27357e-08 -3.17244e-10 -1.05103e-07)
(-3.81484e-06 -2.07878e-11 2.12682e-12 -4.40465e-07 -1.85054e-09 -1.1933e-07)
(-4.4082e-06 -3.94135e-11 1.87325e-12 -2.72373e-06 -1.53926e-10 -1.32523e-07)
(-2.89963e-06 4.37258e-13 4.7749e-13 2.55023e-07 3.66192e-09 -8.15714e-09)
(-2.83318e-06 -1.27528e-12 8.40081e-13 -1.42973e-07 3.64103e-09 -2.73748e-08)
(-2.90142e-06 -3.72909e-12 8.97344e-13 -1.15175e-07 3.14608e-09 -4.82905e-08)
(-3.00393e-06 -7.10381e-12 8.69094e-13 -7.83986e-08 2.12968e-09 -6.89926e-08)
(-3.16013e-06 -1.03275e-11 8.11316e-13 -5.65993e-08 9.42788e-10 -8.80013e-08)
(-3.4127e-06 -1.6388e-11 7.39096e-13 -7.4591e-08 -2.22638e-11 -1.04989e-07)
(-3.78896e-06 -2.10019e-11 6.55909e-13 -4.40101e-07 -5.55364e-10 -1.20685e-07)
(-4.38159e-06 -3.96842e-11 5.74906e-13 -2.70913e-06 -4.69924e-11 -1.35834e-07)
(-2.59029e-06 8.38935e-08 -3.34592e-11 9.86431e-07 -5.98622e-12 -4.85779e-06)
(-2.56603e-06 -1.33012e-08 -5.30032e-11 -2.37733e-07 -5.88718e-12 -4.58282e-06)
(-2.60822e-06 -1.70799e-08 -5.77483e-11 -2.13553e-07 -3.97171e-12 -4.66972e-06)
(-2.66321e-06 -6.96785e-09 -5.85648e-11 -1.43614e-07 -2.7506e-12 -4.8008e-06)
(-2.74803e-06 4.98736e-10 -5.82885e-11 -1.07363e-07 -2.32568e-12 -4.97347e-06)
(-2.88398e-06 8.24536e-09 -5.8083e-11 -1.345e-07 -2.70376e-12 -5.2248e-06)
(-3.08027e-06 2.65158e-08 -5.77704e-11 -6.04642e-07 -3.28321e-12 -5.56446e-06)
(-3.35099e-06 4.20076e-08 -6.12096e-11 -3.51513e-06 -4.65983e-12 -5.99234e-06)
(-3.17108e-07 -6.60972e-08 -2.27096e-11 6.37899e-07 -3.18452e-12 -4.46935e-06)
(-5.1266e-07 -2.46822e-08 -3.95687e-11 -5.77938e-08 -3.61495e-12 -4.23757e-06)
(-5.1741e-07 -1.33411e-08 -4.31544e-11 -1.17428e-07 -2.25139e-12 -4.28502e-06)
(-4.88366e-07 -6.82824e-09 -4.35244e-11 -1.26297e-07 -1.06924e-12 -4.39639e-06)
(-4.75423e-07 -2.35126e-09 -4.33615e-11 -1.22734e-07 -3.6688e-13 -4.56591e-06)
(-4.89115e-07 1.43093e-09 -4.35771e-11 -1.45953e-07 -6.9711e-14 -4.8292e-06)
(-5.41376e-07 7.93484e-09 -4.43673e-11 -5.52285e-07 -1.04766e-13 -5.21006e-06)
(-6.34565e-07 1.77857e-08 -4.9257e-11 -3.34454e-06 -6.05606e-13 -5.75579e-06)
(-3.1342e-07 8.58511e-08 -2.41518e-11 6.26035e-07 -1.93416e-12 -4.42548e-06)
(-5.08049e-07 4.03892e-08 -4.19695e-11 -6.8892e-08 -2.2335e-12 -4.19146e-06)
(-5.13159e-07 2.52387e-08 -4.60035e-11 -1.27747e-07 -1.18249e-12 -4.23717e-06)
(-4.84344e-07 1.55954e-08 -4.64601e-11 -1.35773e-07 -1.24132e-15 -4.34775e-06)
(-4.71434e-07 8.55724e-09 -4.61532e-11 -1.31808e-07 8.87762e-13 -4.51686e-06)
(-4.85323e-07 2.37716e-09 -4.60065e-11 -1.54871e-07 1.64641e-12 -4.77973e-06)
(-5.38802e-07 -7.15325e-09 -4.61858e-11 -5.58436e-07 2.14976e-12 -5.16041e-06)
(-6.34427e-07 -1.8382e-08 -5.04776e-11 -3.3234e-06 2.23709e-12 -5.71017e-06)
(-2.50826e-06 -7.32288e-08 -2.84074e-11 9.41022e-07 -1.3891e-12 -4.73894e-06)
(-2.481e-06 2.01349e-08 -4.9248e-11 -2.69317e-07 -1.4605e-12 -4.46296e-06)
(-2.52204e-06 2.20173e-08 -5.42105e-11 -2.42397e-07 -4.63178e-13 -4.54563e-06)
(-2.57604e-06 1.06478e-08 -5.48649e-11 -1.70309e-07 7.78038e-13 -4.67443e-06)
(-2.66008e-06 2.11091e-09 -5.43988e-11 -1.32839e-07 1.74448e-12 -4.84573e-06)
(-2.79638e-06 -6.9033e-09 -5.40761e-11 -1.59661e-07 2.76914e-12 -5.09576e-06)
(-2.99722e-06 -2.70813e-08 -5.34738e-11 -6.24507e-07 3.59321e-12 -5.43428e-06)
(-3.2811e-06 -4.35964e-08 -5.76638e-11 -3.46193e-06 4.55527e-12 -5.87204e-06)
(-4.44232e-06 6.06939e-12 1.17054e-11 9.41022e-07 9.3675e-08 -2.67735e-06)
(-4.1699e-06 4.81524e-12 1.97324e-11 -2.69317e-07 -8.00791e-09 -2.64342e-06)
(-4.25273e-06 8.30947e-13 2.13372e-11 -2.42397e-07 -1.63174e-08 -2.68259e-06)
(-4.37677e-06 -2.78922e-12 2.14918e-11 -1.70309e-07 -9.19983e-09 -2.74505e-06)
(-4.54363e-06 -4.86748e-12 2.12171e-11 -1.32839e-07 -1.45625e-09 -2.83686e-06)
(-4.79186e-06 -8.14282e-12 2.17464e-11 -1.59661e-07 8.7266e-09 -2.9748e-06)
(-5.12913e-06 -8.24542e-12 2.13888e-11 -6.24507e-07 2.86664e-08 -3.17257e-06)
(-5.55675e-06 -2.36214e-11 2.39365e-11 -3.46193e-06 4.74566e-08 -3.4615e-06)
(-3.80285e-06 2.14559e-12 1.239e-12 4.94042e-07 -7.51711e-08 -3.21909e-07)
(-3.61617e-06 1.28687e-12 4.38361e-12 -1.05608e-07 -2.25243e-08 -4.78687e-07)
(-3.67067e-06 -1.00208e-12 4.52931e-12 -1.29876e-07 -1.85331e-08 -4.88582e-07)
(-3.77549e-06 -3.47203e-12 4.35507e-12 -1.20355e-07 -1.76906e-08 -4.82427e-07)
(-3.93612e-06 -4.66205e-12 4.39084e-12 -1.1288e-07 -9.5759e-09 -4.85395e-07)
(-4.19351e-06 -7.33694e-12 5.35336e-12 -1.39085e-07 3.02477e-09 -5.01197e-07)
(-4.5724e-06 -5.81054e-12 6.24035e-12 -5.39081e-07 1.4504e-08 -5.41225e-07)
(-5.12935e-06 -2.11259e-11 8.74587e-12 -3.17253e-06 2.90641e-08 -6.23838e-07)
(-3.35158e-06 1.08659e-12 2.81729e-12 3.30714e-07 8.3596e-09 -1.09972e-08)
(-3.24623e-06 7.57146e-14 6.35794e-12 -1.12575e-07 1.69949e-08 -8.94151e-08)
(-3.3022e-06 -1.62658e-12 7.0219e-12 -1.00595e-07 6.39779e-09 -1.1983e-07)
(-3.39966e-06 -3.73759e-12 7.07806e-12 -8.8722e-08 -2.73834e-09 -1.21304e-07)
(-3.55401e-06 -4.54735e-12 7.10707e-12 -8.59827e-08 -2.23846e-09 -1.1983e-07)
(-3.80857e-06 -7.04168e-12 7.65912e-12 -1.11375e-07 4.04286e-09 -1.26495e-07)