/*--------------------------------*- C++ -*----------------------------------*\
| =========                 |                                                 |
| \\      /  F ield         | OpenFOAM: The Open Source CFD Toolbox           |
|  \\    /   O peration     | Version:  v1912                                 |
|   \\  /    A nd           | Website:  www.openfoam.com                      |
|    \\/     M anipulation  |                                                 |
\*---------------------------------------------------------------------------*/
FoamFile
{
    version     2.0;
    format      ascii;
    class       volVectorField;
    location    "0.35/solid";
    object      heatFlux;
}
// * * * * * * * * * * * * * * * * * * * * * * * * * * * * * * * * * * * * * //

dimensions      [1 0 -3 0 0 0 0];


internalField   nonuniform List<vector> 
256
(
(-78118.9 52360.3 -83496.7)
(-11543.3 27729.8 -78670.9)
(11244 27601.4 -77854.6)
(74918 51858 -80893.4)
(-77400.4 4232.14 -82899.9)
(-13215.6 2360.39 -79386.9)
(12884.2 2347.43 -78513.5)
(74029.6 4194.73 -80129.5)
(-78715.6 861.71 -84264.5)
(-13428 444.136 -80731.4)
(13078.4 438.654 -79820.5)
(75265.1 835.989 -81388)
(-80750.2 1097.05 -86319.8)
(-13638.7 557.712 -82712)
(13276 554.671 -81781)
(77235 1078.63 -83384.6)
(-83866.9 1918.1 -89450.5)
(-13970.4 1041.07 -85819.5)
(13599.3 1039.58 -84877.8)
(80310.1 1909.5 -86483.4)
(-88804 4573.18 -94432.2)
(-14517.2 3120.27 -90999.2)
(14144.4 3116.37 -90050.2)
(85248.8 4574.7 -91444.8)
(-96326.1 21615.2 -102174)
(-15427.2 19604.4 -99652.1)
(15053.7 19522.9 -98692.9)
(92867.1 21418.3 -99158.1)
(-99088.7 105808 -105783)
(-16609.5 105858 -105839)
(15958.3 104912 -104898)
(95757.8 102854 -102846)
(-70112.3 25261.9 -14502.8)
(-9816.69 4046.06 -11919.3)
(9768.38 4062.09 -11849.3)
(66890 25164.2 -14308.1)
(-70816.7 2192.17 -16634)
(-11383.2 430.32 -13848.1)
(11349.8 432.591 -13765.1)
(67479.7 2198.18 -16401.9)
(-72128.6 441.895 -16876.4)
(-11576.3 59.6884 -14065)
(11536.2 58.7403 -13978.7)
(68710.1 427.117 -16635.8)
(-74093.5 569.527 -17097.8)
(-11766.3 65.6004 -14261.2)
(11717.2 64.3806 -14173.5)
(70595.9 552.526 -16854.8)
(-77194.4 1055.29 -17444.3)
(-12081.4 181.922 -14586.5)
(12023.2 180.635 -14498.4)
(73624.4 1040.49 -17203.6)
(-82345.8 3089.47 -18021.7)
(-12641 1494.76 -15175.9)
(12575.8 1489.63 -15088.1)
(78724.6 3077.38 -17788.3)
(-90801.7 19081.9 -19077.3)
(-13681.3 16380.7 -16379.1)
(13605.8 16293.7 -16292.7)
(87211.3 18857.4 -18857.4)
(-96349.3 102217 -21609.3)
(-15429.2 99684.7 -19601.9)
(15052.5 98716.3 -19521.3)
(92864.2 99170.9 -21418.1)
(-61791 21223.5 -2438.88)
(-8889.77 1962.45 -1023.04)
(8855.21 1987.01 -1018.59)
(58603 21148 -2422.18)
(-62577 1858.46 -2821.39)
(-10346.8 214.663 -1238.03)
(10330.4 217.992 -1232.56)
(59278.9 1867.08 -2801.29)
(-63820.7 397.917 -2853.66)
(-10530.2 31.0027 -1257.05)
(10507.6 30.2731 -1251.4)
(60440.3 383.127 -2833.25)
(-65709.5 529.169 -2871.88)
(-10714.4 36.2207 -1268.45)
(10682.5 35.0179 -1262.76)
(62244.4 510.811 -2851.89)
(-68735.5 994.194 -2896.42)
(-11024.4 126.437 -1287.61)
(10982.2 124.98 -1281.96)
(65183.3 975.94 -2877.87)
(-73840.9 2940.16 -2936.44)
(-11583.6 1327.7 -1327.48)
(11532 1322.05 -1322.01)
(70207.9 2920.87 -2921.25)
(-82375.1 18027.6 -3085.58)
(-12642.5 15178.4 -1494.47)
(12575.4 15089.7 -1489.56)
(78722.2 17788.5 -3077.75)
(-88858.2 94503.3 -4565.61)
(-14521.5 91052.5 -3117.4)
(14142.1 90087.6 -3114.61)
(85243.3 91465.1 -4574.3)
(-56864.7 20001.7 -866.295)
(-8396.4 1784.99 -99.6366)
(8369.24 1810.94 -98.5601)
(53741 19940.8 -853.577)
(-57625 1777.39 -977.056)
(-9794.34 196.311 -120.123)
(9786.53 199.784 -118.815)
(54394.1 1787.11 -962.217)
(-58837.6 391.405 -983.69)
(-9974.01 29.2706 -121.569)
(9960.03 28.547 -120.245)
(55524.7 376.521 -968.727)
(-60699.4 526.761 -984.721)
(-10157.2 35.041 -121.974)
(10133.8 33.8198 -120.654)
(57299.3 507.903 -969.907)
(-63699.9 990.731 -984.972)
(-10467 122.896 -122.651)
(10432.9 121.377 -121.351)
(60205.5 971.135 -970.67)
(-68776.1 2900.32 -988.322)
(-11026.6 1287.9 -126.183)
(10982 1282.03 -124.948)
(65185.3 2877.5 -975.427)
(-77266.2 17452.7 -1048.85)
(-12085.2 14590.7 -181.457)
(12022.5 14501.1 -180.463)
(73624.1 17204.3 -1039.87)
(-83966.7 89564 -1905.17)
(-13978.2 85905.5 -1035.82)
(13595.6 84939.2 -1035.98)
(80306.1 86518.2 -1907.01)
(-53970.6 19380.2 -460.086)
(-8122.04 1742.69 -29.1537)
(8101.27 1769.63 -28.3942)
(50895 19332.2 -450.009)
(-54716.2 1741.07 -513.637)
(-9488.52 192.731 -34.1412)
(9488.26 196.306 -33.2153)
(51536 1751.93 -501.72)
(-55917.1 390.252 -515.71)
(-9666.8 29.1522 -34.3504)
(9660.48 28.4343 -33.4118)
(52655.4 375.437 -503.608)
(-57771 527.887 -514.738)
(-9850.34 35.139 -34.2507)
(9834.55 33.9116 -33.3134)
(54420.8 508.868 -502.66)
(-60762.6 990.593 -513.406)
(-10160.8 122.228 -34.1394)
(10134.2 120.686 -33.2098)
(57314.3 970.42 -501.533)
(-65815.5 2876.28 -515.243)
(-10720.2 1268.9 -35.2447)
(10682.7 1262.94 -34.3432)
(62262.2 2851.66 -504.049)
(-74235 17110.7 -553.711)
(-11774.1 14268.8 -63.7018)
(11717 14178.7 -62.9111)
(70612.3 16856.9 -544.657)
(-80924.4 86505.7 -1065.6)
(-13652.3 82856.9 -542.826)
(13270.9 81888.7 -542.55)
(77246 83450.6 -1062.82)
(-52237.6 19028 -259.085)
(-7964.71 1721.69 -14.9149)
(7948.38 1749.33 -14.4052)
(49190.1 18989 -252.411)
(-52976.6 1721.77 -287.929)
(-9313.92 191.114 -17.2991)
(9318.95 194.766 -16.6743)
(49826.1 1733.51 -279.948)
(-54173.3 390.304 -288.627)
(-9491.71 29.1611 -17.3617)
(9490.78 28.4489 -16.7265)
(50941.9 375.581 -280.481)
(-56025.1 529.065 -287.637)
(-9675.77 35.2521 -17.2697)
(9665.37 34.0217 -16.6349)
(52704.4 509.978 -279.487)
(-59011.9 990.226 -286.713)
(-9986.76 121.902 -17.1788)
(9965.5 120.348 -16.5485)
(55590.8 969.746 -278.667)
(-64044.3 2860.01 -288.522)
(-10545.7 1258.34 -17.7809)
(10513.2 1252.33 -17.1652)
(60513.4 2834.38 -280.847)
(-72398.4 16902.4 -313.208)
(-11594.4 14083.2 -33.5342)
(11541.5 13992.9 -32.9688)
(68787.1 16645.5 -306.723)
(-79022.9 84588.4 -617.831)
(-13455.1 80996.4 -307.528)
(13075.6 80026.9 -307.147)
(75332.2 81526.5 -614.81)
(-51243.4 18833.2 -133.818)
(-7877.36 1710.48 -7.48922)
(7863.78 1738.55 -7.19777)
(48211.1 18799.9 -130.041)
(-51979.2 1711.53 -148.309)
(-9217.27 190.284 -8.6557)
(9225.62 193.985 -8.29741)
(48845.2 1723.86 -143.76)
(-53174.4 390.544 -148.535)
(-9394.9 29.1816 -8.67733)
(9397.36 28.4737 -8.31222)
(49959.8 375.898 -143.874)
(-55025.6 529.801 -147.919)
(-9579.34 35.3219 -8.62295)
(9572.33 34.0896 -8.25801)
(51721.5 510.682 -143.249)
(-58009 989.708 -147.468)
(-9890.61 121.716 -8.57583)
(9872.72 120.155 -8.21362)
(54603.2 969.06 -142.853)
(-63026.1 2849.79 -148.784)
(-10448.9 1252.54 -8.89488)
(10419.7 1246.52 -8.54022)
(59507.6 2823.6 -144.362)
(-71332.7 16781.4 -162.632)
(-11493.9 13979 -16.9632)
(11443.8 13888.7 -16.6298)
(67727.7 16523 -158.817)
(-77898 83450 -325.538)
(-13341.6 79908.3 -160.217)
(12963.6 78937.9 -159.938)
(74199.8 80383.6 -323.46)
(-50787.3 18745.8 -41.4603)
(-7838.09 1705.55 -2.29061)
(7825.83 1733.83 -2.19585)
(47761.7 18715.2 -40.2386)
(-51521.7 1707.05 -45.8882)
(-9173.91 189.926 -2.64309)
(9183.85 193.652 -2.52643)
(48395.1 1719.68 -44.4114)
(-52716.4 390.694 -45.9403)
(-9351.49 29.1938 -2.64841)
(9355.58 28.4883 -2.52937)
(49509.4 376.092 -44.4238)
(-54567.5 530.132 -45.7379)
(-9536.11 35.3536 -2.63082)
(9530.75 34.1203 -2.51184)
(51270.7 510.999 -44.2176)
(-57549.1 989.361 -45.6096)
(-9847.5 121.63 -2.61669)
(9831.23 120.065 -2.49867)
(54150.1 968.633 -44.1076)
(-62558 2844.85 -46.0847)
(-10405.4 1249.95 -2.71738)
(10377.7 1243.92 -2.60177)
(59045 2818.41 -44.6448)
(-70840.1 16725.6 -50.5483)
(-11448.4 13931.8 -5.20851)
(11399.7 13841.5 -5.09882)
(67237.7 16466.4 -49.2974)
(-77372.5 82916.5 -101.905)
(-13289.5 79402.3 -49.9125)
(12912.3 78431.5 -49.8125)
(73670.4 79848 -101.184)
)
;

boundaryField
{
    interface
    {
        type            calculated;
        value           nonuniform List<vector> 
192
(
(-133270 52360.3 -83496.7)
(-128507 4232.14 -82899.9)
(-130720 861.71 -84264.5)
(-134372 1097.05 -86319.8)
(-139944 1918.1 -89450.5)
(-148725 4573.18 -94432.2)
(-161957 21615.2 -102174)
(-165273 105808 -105783)
(-120578 25261.9 -14502.8)
(-118848 2192.17 -16634)
(-121087 441.895 -16876.4)
(-124638 569.527 -17097.8)
(-130211 1055.29 -17444.3)
(-139395 3089.47 -18021.7)
(-154236 19081.9 -19077.3)
(-162000 102217 -21609.3)
(-105781 21223.5 -2438.88)
(-104432 1858.46 -2821.39)
(-106553 397.917 -2853.66)
(-109964 529.169 -2871.88)
(-115397 994.194 -2896.42)
(-124491 2940.16 -2936.44)
(-139451 18027.6 -3085.58)
(-148827 94503.3 -4565.61)
(-96914.4 20001.7 -866.295)
(-95631.8 1777.39 -977.056)
(-97697.9 391.405 -983.69)
(-101056 526.761 -984.721)
(-106439 990.731 -984.972)
(-115474 2900.32 -988.322)
(-130347 17452.7 -1048.85)
(-140131 89564 -1905.17)
(-91673.9 19380.2 -460.086)
(-90424.7 1741.07 -513.637)
(-92470.3 390.252 -515.71)
(-95812.1 527.887 -514.738)
(-101176 990.593 -513.406)
(-110164 2876.28 -515.243)
(-124906 17110.7 -553.711)
(-134698 86505.7 -1065.6)
(-88521.9 19028 -259.085)
(-87293.8 1721.77 -287.929)
(-89332.1 390.304 -288.627)
(-92668.7 529.065 -287.637)
(-98021.6 990.226 -286.713)
(-106970 2860.01 -288.522)
(-121591 16902.4 -313.208)
(-131289 84588.4 -617.831)
(-86707.8 18833.2 -133.818)
(-85491.8 1711.53 -148.309)
(-87527.3 390.544 -148.535)
(-90862.1 529.801 -147.919)
(-96207.7 989.708 -147.468)
(-105127 2849.79 -148.784)
(-119661 16781.4 -162.632)
(-129266 83450 -325.538)
(-85874 18745.8 -41.4603)
(-84663.5 1707.05 -45.8882)
(-86698 390.694 -45.9403)
(-90032.1 530.132 -45.7379)
(-95373.8 989.361 -45.6096)
(-104278 2844.85 -46.0847)
(-118766 16725.6 -50.5483)
(-128319 82916.5 -101.905)
(-78118.9 52360.3 -141720)
(-77400.4 4232.14 -136877)
(-78715.6 861.71 -139175)
(-80750.2 1097.05 -142877)
(-83866.9 1918.1 -148492)
(-88804 4573.18 -157376)
(-96326.1 21615.2 -170972)
(-99088.7 105808 -175011)
(-11543.3 27729.8 -135389)
(-13215.6 2360.39 -133359)
(-13428 444.136 -135650)
(-13638.7 557.712 -139240)
(-13970.4 1041.07 -144842)
(-14517.2 3120.27 -154097)
(-15427.2 19604.4 -169256)
(-16609.5 105858 -177330)
(11244 27601.4 -133889)
(12884.2 2347.43 -131769)
(13078.4 438.654 -133991)
(13276 554.671 -137544)
(13599.3 1039.58 -143125)
(14144.4 3116.37 -152365)
(15053.7 19522.9 -167502)
(15958.3 104912 -175602)
(74918 51858 -136883)
(74029.6 4194.73 -131776)
(75265.1 835.989 -133879)
(77235 1078.63 -137468)
(80310.1 1909.5 -143017)
(85248.8 4574.7 -151851)
(92867.1 21418.3 -165372)
(95757.8 102854 -169530)
(127229 51858 -80893.4)
(122153 4194.73 -80129.5)
(124229 835.989 -81388)
(127769 1078.63 -83384.6)
(133271 1909.5 -86483.4)
(142057 4574.7 -91444.8)
(155468 21418.3 -99158.1)
(159284 102854 -102846)
(114257 25164.2 -14308.1)
(112278 2198.18 -16401.9)
(114366 427.117 -16635.8)
(117774 552.526 -16854.8)
(123218 1040.49 -17203.6)
(132312 3077.38 -17788.3)
(147216 18857.4 -18857.4)
(155464 99170.9 -21418.1)
(99516.5 21148 -2422.18)
(97925.1 1867.08 -2801.29)
(99893 383.127 -2833.25)
(103150 510.811 -2851.89)
(108427 975.94 -2877.87)
(117376 2920.87 -2921.25)
(132308 17788.5 -3077.75)
(142049 91465.1 -4574.3)
(90765.8 19940.8 -853.577)
(89244.8 1787.11 -962.217)
(91158.6 376.521 -968.727)
(94359.1 507.903 -969.907)
(99572 971.135 -970.67)
(108432 2877.5 -975.427)
(123218 17204.3 -1039.87)
(133267 86518.2 -1907.01)
(85610.6 19332.2 -450.009)
(84126.1 1751.93 -501.72)
(86020.2 375.437 -503.608)
(89201.7 508.868 -502.66)
(94388 970.42 -501.533)
(103185 2851.66 -504.049)
(117807 16856.9 -544.657)
(127796 83450.6 -1062.82)
(82507.2 18989 -252.411)
(81045.8 1733.51 -279.948)
(82933.3 375.581 -280.481)
(86108.2 509.978 -279.487)
(91279.3 969.746 -278.667)
(100027 2834.38 -280.847)
(114508 16645.5 -306.723)
(124360 81526.5 -614.81)
(80718.8 18799.9 -130.041)
(79271.1 1723.86 -143.76)
(81156.5 375.898 -143.874)
(84328.8 510.682 -143.249)
(89490.2 969.06 -142.853)
(98203.3 2823.6 -144.362)
(112585 16523 -158.817)
(122319 80383.6 -323.46)
(79896.1 18715.2 -40.2386)
(78454.6 1719.68 -44.4114)
(80339.5 376.092 -44.4238)
(83510.7 510.999 -44.2176)
(88667.1 968.633 -44.1076)
(97362.1 2818.41 -44.6448)
(111693 16466.4 -49.2974)
(121363 79848 -101.184)
(-99088.7 175056 -105783)
(-96349.3 171053 -21609.3)
(-88858.2 157510 -4565.61)
(-83966.7 148706 -1905.17)
(-80924.4 143227 -1065.6)
(-79022.9 139779 -617.831)
(-77898 137725 -325.538)
(-77372.5 136761 -101.905)
(-16609.5 177364 -105839)
(-15429.2 169318 -19601.9)
(-14521.5 154198 -3117.4)
(-13978.2 145006 -1035.82)
(-13652.3 139516 -542.826)
(-13455.1 136146 -307.528)
(-13341.6 134167 -160.217)
(-13289.5 133244 -49.9125)
(15958.3 175629 -104898)
(15052.5 167546 -19521.3)
(14142.1 152436 -3114.61)
(13595.6 143242 -1035.98)
(13270.9 137749 -542.55)
(13075.6 134377 -307.147)
(12963.6 132396 -159.938)
(12912.3 131473 -49.8125)
(95757.8 169546 -102846)
(92864.2 165397 -21418.1)
(85243.3 151890 -4574.3)
(80306.1 143085 -1907.01)
(77246 137595 -1062.82)
(75332.2 134138 -614.81)
(74199.8 132078 -323.46)
(73670.4 131110 -101.184)
)
;
    }
    symmetry
    {
        type            symmetry;
    }
    bottom
    {
        type            calculated;
        value           nonuniform List<vector> 
32
(
(-78118.9 97145 -83496.7)
(-70112.3 46597.7 -14502.8)
(-61791 39133.9 -2438.88)
(-56864.7 36842.2 -866.295)
(-53970.6 35668.8 -460.086)
(-52237.6 35001.8 -259.085)
(-51243.4 34632.4 -133.818)
(-50787.3 34466.6 -41.4603)
(-11543.3 51209.9 -78670.9)
(-9816.69 7304.12 -11919.3)
(-8889.77 3532.76 -1023.04)
(-8396.4 3211.96 -99.6366)
(-8122.04 3134.21 -29.1537)
(-7964.71 3095.35 -14.9149)
(-7877.36 3074.56 -7.48922)
(-7838.09 3065.39 -2.29061)
(11244 50971.9 -77854.6)
(9768.38 7330.94 -11849.3)
(8855.21 3574.85 -1018.59)
(8369.24 3256.57 -98.5601)
(8101.27 3180.61 -28.3942)
(7948.38 3143 -14.4052)
(7863.78 3122.99 -7.19777)
(7825.83 3114.21 -2.19585)
(74918 96186 -80893.4)
(66890 46377.6 -14308.1)
(58603 38953.6 -2422.18)
(53741 36688.9 -853.577)
(50895 35539.3 -450.009)
(49190.1 34888.9 -252.411)
(48211.1 34529.7 -130.041)
(47761.7 34368.7 -40.2386)
)
;
    }
}


// ************************************************************************* //
