/*--------------------------------*- C++ -*----------------------------------*\
| =========                 |                                                 |
| \\      /  F ield         | OpenFOAM: The Open Source CFD Toolbox           |
|  \\    /   O peration     | Version:  v1912                                 |
|   \\  /    A nd           | Website:  www.openfoam.com                      |
|    \\/     M anipulation  |                                                 |
\*---------------------------------------------------------------------------*/
FoamFile
{
    version     2.0;
    format      ascii;
    class       pointVectorField;
    location    "0.35/solid";
    object      pointDD;
}
// * * * * * * * * * * * * * * * * * * * * * * * * * * * * * * * * * * * * * //

dimensions      [0 1 0 0 0 0 0];


internalField   nonuniform List<vector> 
405
(
(2.89737e-10 4.95488e-10 2.7156e-10)
(1.28787e-10 3.31637e-10 1.56564e-10)
(-3.19365e-12 2.69528e-10 1.14561e-10)
(-1.31055e-10 3.23569e-10 1.46192e-10)
(-2.67106e-10 4.80251e-10 2.55966e-10)
(5.74508e-10 5.70343e-10 6.52009e-10)
(3.53018e-10 5.30841e-10 5.50064e-10)
(-8.6502e-12 4.33243e-10 4.57306e-10)
(-3.60783e-10 5.1931e-10 5.27353e-10)
(-5.4165e-10 5.55126e-10 6.24103e-10)
(7.29192e-10 2.1213e-10 1.06976e-09)
(4.58083e-10 2.4043e-10 9.58312e-10)
(-1.29659e-11 1.91667e-10 8.52436e-10)
(-4.73218e-10 2.37254e-10 9.31776e-10)
(-7.00864e-10 2.10505e-10 1.03442e-09)
(7.28823e-10 -1.31274e-10 1.39753e-09)
(4.53568e-10 -7.1685e-11 1.2807e-09)
(-1.78379e-11 -9.34717e-11 1.16456e-09)
(-4.78489e-10 -6.8155e-11 1.25094e-09)
(-7.08938e-10 -1.22251e-10 1.35722e-09)
(7.09825e-10 -4.411e-10 1.71038e-09)
(4.33061e-10 -3.88794e-10 1.58324e-09)
(-2.43039e-11 -4.12518e-10 1.45376e-09)
(-4.70879e-10 -3.7978e-10 1.55105e-09)
(-7.0155e-10 -4.23268e-10 1.66638e-09)
(7.45288e-10 -7.6044e-10 2.04567e-09)
(4.52939e-10 -7.37906e-10 1.90063e-09)
(-3.24282e-11 -7.77427e-10 1.75552e-09)
(-5.06909e-10 -7.24153e-10 1.86638e-09)
(-7.51811e-10 -7.34799e-10 1.99862e-09)
(9.08008e-10 -1.19036e-09 2.43338e-09)
(5.6614e-10 -1.19073e-09 2.26363e-09)
(-4.24098e-11 -1.22868e-09 2.10538e-09)
(-6.39708e-10 -1.17272e-09 2.22739e-09)
(-9.32001e-10 -1.15756e-09 2.38347e-09)
(1.26187e-09 -2.006e-09 2.88988e-09)
(7.81611e-10 -1.97168e-09 2.74422e-09)
(-5.49495e-11 -1.94458e-09 2.59369e-09)
(-8.78771e-10 -1.94715e-09 2.70538e-09)
(-1.3032e-09 -1.96272e-09 2.83658e-09)
(1.49225e-09 -2.57189e-09 3.16451e-09)
(9.09619e-10 -2.47715e-09 3.08823e-09)
(-6.23804e-11 -2.36649e-09 2.97952e-09)
(-1.0205e-09 -2.44067e-09 3.05503e-09)
(-1.55779e-09 -2.51649e-09 3.11463e-09)
(1.27221e-10 2.40973e-10 1.22442e-10)
(0 0 0)
(0 0 0)
(0 0 0)
(-9.71126e-11 2.31985e-10 1.17304e-10)
(3.52465e-10 3.15601e-10 4.43903e-10)
(0 0 0)
(0 0 0)
(0 0 0)
(-2.91941e-10 3.04653e-10 4.28408e-10)
(4.5811e-10 -2.25216e-11 8.0862e-10)
(0 0 0)
(0 0 0)
(0 0 0)
(-3.99337e-10 -2.07847e-11 7.84971e-10)
(4.50063e-10 -3.45069e-10 1.12517e-09)
(0 0 0)
(0 0 0)
(0 0 0)
(-3.97173e-10 -3.32887e-10 1.09654e-09)
(4.28456e-10 -6.40303e-10 1.42856e-09)
(0 0 0)
(0 0 0)
(0 0 0)
(-3.84947e-10 -6.18949e-10 1.39623e-09)
(4.55417e-10 -9.34169e-10 1.74861e-09)
(0 0 0)
(0 0 0)
(0 0 0)
(-4.24585e-10 -9.04417e-10 1.71312e-09)
(6.00437e-10 -1.29755e-09 2.09985e-09)
(0 0 0)
(0 0 0)
(0 0 0)
(-5.84555e-10 -1.26006e-09 2.06137e-09)
(9.7387e-10 -1.97538e-09 2.43024e-09)
(0 0 0)
(0 0 0)
(0 0 0)
(-9.69766e-10 -1.92724e-09 2.38874e-09)
(1.26047e-09 -2.43441e-09 2.6156e-09)
(7.79577e-10 -2.28765e-09 2.63457e-09)
(-5.67653e-11 -2.13513e-09 2.6095e-09)
(-8.80396e-10 -2.24508e-09 2.61293e-09)
(-1.30445e-09 -2.37489e-09 2.57778e-09)
(1.0458e-11 8.28599e-11 2.58708e-11)
(0 0 0)
(0 0 0)
(0 0 0)
(1.71552e-11 7.47336e-11 2.35662e-11)
(6.82066e-11 2.26129e-11 1.86728e-10)
(0 0 0)
(0 0 0)
(0 0 0)
(-1.14263e-11 1.26614e-11 1.78322e-10)
(1.1238e-10 -2.68311e-10 4.72995e-10)
(0 0 0)
(0 0 0)
(0 0 0)
(-5.48053e-11 -2.66903e-10 4.58139e-10)
(9.13817e-11 -5.54137e-10 7.69081e-10)
(0 0 0)
(0 0 0)
(0 0 0)
(-3.72923e-11 -5.43157e-10 7.49614e-10)
(6.49046e-11 -8.23429e-10 1.05501e-09)
(0 0 0)
(0 0 0)
(0 0 0)
(-1.81131e-11 -8.03686e-10 1.03196e-09)
(8.56746e-11 -1.0763e-09 1.33545e-09)
(0 0 0)
(0 0 0)
(0 0 0)
(-4.96514e-11 -1.04841e-09 1.30926e-09)
(2.24835e-10 -1.34787e-09 1.59301e-09)
(0 0 0)
(0 0 0)
(0 0 0)
(-2.01994e-10 -1.31256e-09 1.56394e-09)
(5.98109e-10 -1.85063e-09 1.74983e-09)
(0 0 0)
(0 0 0)
(0 0 0)
(-5.85468e-10 -1.80515e-09 1.71842e-09)
(9.03986e-10 -2.18349e-09 1.79923e-09)
(5.61266e-10 -2.01307e-09 1.85422e-09)
(-4.64092e-11 -1.85277e-09 1.89454e-09)
(-6.42729e-10 -1.97259e-09 1.8386e-09)
(-9.34325e-10 -2.12675e-09 1.77127e-09)
(-3.6924e-11 1.82625e-11 2.31522e-11)
(0 0 0)
(0 0 0)
(0 0 0)
(6.39159e-11 9.58362e-12 2.15646e-11)
(-5.47982e-11 -1.051e-10 1.53546e-10)
(0 0 0)
(0 0 0)
(0 0 0)
(1.11418e-10 -1.16451e-10 1.47689e-10)
(-4.41709e-11 -3.90046e-10 3.90841e-10)
(0 0 0)
(0 0 0)
(0 0 0)
(1.03804e-10 -3.90538e-10 3.80158e-10)
(-6.86236e-11 -6.61941e-10 6.51173e-10)
(0 0 0)
(0 0 0)
(0 0 0)
(1.26983e-10 -6.5318e-10 6.36601e-10)
(-9.05815e-11 -9.0266e-10 9.04708e-10)
(0 0 0)
(0 0 0)
(0 0 0)
(1.43735e-10 -8.85293e-10 8.86894e-10)
(-6.44606e-11 -1.10375e-09 1.13589e-09)
(0 0 0)
(0 0 0)
(0 0 0)
(1.08854e-10 -1.07832e-09 1.11524e-09)
(7.94827e-11 -1.29748e-09 1.31384e-09)
(0 0 0)
(0 0 0)
(0 0 0)
(-4.63416e-11 -1.26469e-09 1.29069e-09)
(4.46953e-10 -1.70641e-09 1.38147e-09)
(0 0 0)
(0 0 0)
(0 0 0)
(-4.22468e-10 -1.66324e-09 1.35649e-09)
(7.34542e-10 -2.00347e-09 1.36908e-09)
(4.41863e-10 -1.85816e-09 1.404e-09)
(-3.88093e-11 -1.71052e-09 1.44587e-09)
(-5.08294e-10 -1.81887e-09 1.39163e-09)
(-7.51227e-10 -1.94857e-09 1.34693e-09)
(-5.31702e-11 -3.13768e-12 2.91172e-11)
(0 0 0)
(0 0 0)
(0 0 0)
(7.99891e-11 -1.24281e-11 2.79895e-11)
(-9.74012e-11 -1.47699e-10 1.47748e-10)
(0 0 0)
(0 0 0)
(0 0 0)
(1.54335e-10 -1.60626e-10 1.4364e-10)
(-9.78049e-11 -4.31494e-10 3.42116e-10)
(0 0 0)
(0 0 0)
(0 0 0)
(1.59248e-10 -4.34083e-10 3.34575e-10)
(-1.20176e-10 -6.9535e-10 5.53241e-10)
(0 0 0)
(0 0 0)
(0 0 0)
(1.82069e-10 -6.8891e-10 5.42727e-10)
(-1.35259e-10 -9.13433e-10 7.57315e-10)
(0 0 0)
(0 0 0)
(0 0 0)
(1.93722e-10 -8.98449e-10 7.44161e-10)
(-1.01956e-10 -1.07752e-09 9.33038e-10)
(0 0 0)
(0 0 0)
(0 0 0)
(1.53407e-10 -1.05444e-09 9.17526e-10)
(4.61153e-11 -1.22944e-09 1.05224e-09)
(0 0 0)
(0 0 0)
(0 0 0)
(-4.25345e-12 -1.19888e-09 1.03471e-09)
(4.06544e-10 -1.60002e-09 1.08318e-09)
(0 0 0)
(0 0 0)
(0 0 0)
(-3.71981e-10 -1.55875e-09 1.06422e-09)
(6.83881e-10 -1.88321e-09 1.05492e-09)
(4.08956e-10 -1.75576e-09 1.06262e-09)
(-3.31108e-11 -1.6221e-09 1.08592e-09)
(-4.63862e-10 -1.7173e-09 1.05325e-09)
(-6.89423e-10 -1.82973e-09 1.03813e-09)
(-5.72321e-11 -8.71744e-12 2.7304e-11)
(0 0 0)
(0 0 0)
(0 0 0)
(8.39729e-11 -1.84345e-11 2.65409e-11)
(-1.06744e-10 -1.56294e-10 1.24562e-10)
(0 0 0)
(0 0 0)
(0 0 0)
(1.6397e-10 -1.70404e-10 1.218e-10)
(-1.06839e-10 -4.34816e-10 2.72793e-10)
(0 0 0)
(0 0 0)
(0 0 0)
(1.69604e-10 -4.39095e-10 2.67709e-10)
(-1.24729e-10 -6.90241e-10 4.29635e-10)
(0 0 0)
(0 0 0)
(0 0 0)
(1.89192e-10 -6.85737e-10 4.22456e-10)
(-1.33563e-10 -8.93076e-10 5.78715e-10)
(0 0 0)
(0 0 0)
(0 0 0)
(1.95955e-10 -8.80091e-10 5.69587e-10)
(-9.45615e-11 -1.03744e-09 7.02098e-10)
(0 0 0)
(0 0 0)
(0 0 0)
(1.51307e-10 -1.01631e-09 6.91188e-10)
(5.57772e-11 -1.1725e-09 7.79855e-10)
(0 0 0)
(0 0 0)
(0 0 0)
(-7.32733e-12 -1.14375e-09 7.67416e-10)
(4.10016e-10 -1.52866e-09 7.9577e-10)
(0 0 0)
(0 0 0)
(0 0 0)
(-3.67797e-10 -1.48892e-09 7.82272e-10)
(6.8178e-10 -1.80406e-09 7.7016e-10)
(4.11626e-10 -1.68643e-09 7.64437e-10)
(-2.89218e-11 -1.56278e-09 7.73699e-10)
(-4.58033e-10 -1.64859e-09 7.57795e-10)
(-6.78959e-10 -1.75169e-09 7.58234e-10)
(-5.76314e-11 -9.41399e-12 2.0176e-11)
(0 0 0)
(0 0 0)
(0 0 0)
(8.43538e-11 -1.94009e-11 1.97072e-11)
(-1.06335e-10 -1.5417e-10 8.80464e-11)
(0 0 0)
(0 0 0)
(0 0 0)
(1.63807e-10 -1.69056e-10 8.63516e-11)
(-1.03277e-10 -4.25547e-10 1.87399e-10)
(0 0 0)
(0 0 0)
(0 0 0)
(1.66948e-10 -4.3099e-10 1.84272e-10)
(-1.16949e-10 -6.73016e-10 2.90141e-10)
(0 0 0)
(0 0 0)
(0 0 0)
(1.83149e-10 -6.69895e-10 2.85691e-10)
(-1.21305e-10 -8.66577e-10 3.86191e-10)
(0 0 0)
(0 0 0)
(0 0 0)
(1.86367e-10 -8.55047e-10 3.80474e-10)
(-7.8722e-11 -1.00222e-09 4.63766e-10)
(0 0 0)
(0 0 0)
(0 0 0)
(1.39096e-10 -9.82517e-10 4.56866e-10)
(7.25423e-11 -1.13211e-09 5.10901e-10)
(0 0 0)
(0 0 0)
(0 0 0)
(-1.95519e-11 -1.10469e-09 5.02981e-10)
(4.22232e-10 -1.48293e-09 5.19493e-10)
(0 0 0)
(0 0 0)
(0 0 0)
(-3.7471e-10 -1.44433e-09 5.10872e-10)
(6.90392e-10 -1.75364e-09 5.02059e-10)
(4.20769e-10 -1.64088e-09 4.94322e-10)
(-2.60591e-11 -1.52295e-09 4.97031e-10)
(-4.61367e-10 -1.60347e-09 4.90097e-10)
(-6.81808e-10 -1.70211e-09 4.94454e-10)
(-5.73887e-11 -9.07168e-12 1.05592e-11)
(0 0 0)
(0 0 0)
(0 0 0)
(8.41162e-11 -1.92079e-11 1.03367e-11)
(-1.04802e-10 -1.50702e-10 4.51859e-11)
(0 0 0)
(0 0 0)
(0 0 0)
(1.62439e-10 -1.66024e-10 4.43815e-11)
(-9.93741e-11 -4.16448e-10 9.48439e-11)
(0 0 0)
(0 0 0)
(0 0 0)
(1.63578e-10 -4.2256e-10 9.33564e-11)
(-1.10361e-10 -6.58384e-10 1.4546e-10)
(0 0 0)
(0 0 0)
(0 0 0)
(1.77564e-10 -6.56077e-10 1.43334e-10)
(-1.12151e-10 -8.47022e-10 1.92256e-10)
(0 0 0)
(0 0 0)
(0 0 0)
(1.78757e-10 -8.36363e-10 1.89509e-10)
(-6.77069e-11 -9.79336e-10 2.2957e-10)
(0 0 0)
(0 0 0)
(0 0 0)
(1.30188e-10 -9.60497e-10 2.26235e-10)
(8.38319e-11 -1.10818e-09 2.51892e-10)
(0 0 0)
(0 0 0)
(0 0 0)
(-2.81941e-11 -1.08158e-09 2.48048e-10)
(4.30784e-10 -1.45712e-09 2.55774e-10)
(0 0 0)
(0 0 0)
(0 0 0)
(-3.80155e-10 -1.41924e-09 2.51581e-10)
(6.96777e-10 -1.72537e-09 2.47226e-10)
(4.26937e-10 -1.6147e-09 2.42615e-10)
(-2.43962e-11 -1.49948e-09 2.43145e-10)
(-4.64159e-10 -1.57756e-09 2.40566e-10)
(-6.84827e-10 -1.67436e-09 2.43531e-10)
(-3.19884e-11 -1.60224e-11 0)
(1.05016e-12 -2.75721e-11 0)
(2.43661e-14 -4.03606e-11 0)
(1.99781e-12 -3.08866e-11 0)
(5.38411e-11 -2.67307e-11 0)
(-3.95351e-11 -1.52689e-10 0)
(3.40153e-12 -1.77529e-10 0)
(1.96336e-12 -1.99687e-10 0)
(7.17459e-12 -1.82936e-10 0)
(7.69949e-11 -1.65094e-10 0)
(-3.53286e-11 -4.11865e-10 0)
(1.0783e-12 -4.24806e-10 0)
(5.15438e-12 -4.39193e-10 0)
(1.6309e-11 -4.27179e-10 0)
(7.97511e-11 -4.17026e-10 0)
(-4.57411e-11 -6.5143e-10 0)
(-7.73247e-12 -6.61943e-10 0)
(6.51908e-12 -6.73491e-10 0)
(2.75478e-11 -6.60474e-10 0)
(9.28034e-11 -6.49388e-10 0)
(-4.67835e-11 -8.45918e-10 0)
(-1.04132e-11 -8.73814e-10 0)
(5.5056e-12 -8.94358e-10 0)
(2.81721e-11 -8.68243e-10 0)
(9.25921e-11 -8.36605e-10 0)
(-7.76524e-14 -9.97765e-10 0)
(2.08697e-11 -1.06395e-09 0)
(2.13271e-12 -1.10142e-09 0)
(-9.6548e-12 -1.05433e-09 0)
(4.07455e-11 -9.81309e-10 0)
(1.56635e-10 -1.15784e-09 0)
(1.28538e-10 -1.2598e-09 0)
(-3.71581e-12 -1.30079e-09 0)
(-1.28357e-10 -1.24628e-09 0)
(-1.24485e-10 -1.13454e-09 0)
(4.79084e-10 -1.51174e-09 0)
(3.1924e-10 -1.56784e-09 0)
(-1.2616e-11 -1.5562e-09 0)
(-3.34873e-10 -1.54832e-09 0)
(-4.56275e-10 -1.47815e-09 0)
(7.00823e-10 -1.7519e-09 0)
(4.29981e-10 -1.68833e-09 0)
(-2.0895e-11 -1.60194e-09 0)
(-4.60441e-10 -1.65801e-09 0)
(-6.96696e-10 -1.70605e-09 0)
)
;

boundaryField
{
    interface
    {
        type            calculated;
    }
    symmetry
    {
        type            symmetry;
    }
    bottom
    {
        type            calculated;
    }
}


// ************************************************************************* //
