/*--------------------------------*- C++ -*----------------------------------*\
| =========                 |                                                 |
| \\      /  F ield         | OpenFOAM: The Open Source CFD Toolbox           |
|  \\    /   O peration     | Version:  v1912                                 |
|   \\  /    A nd           | Website:  www.openfoam.com                      |
|    \\/     M anipulation  |                                                 |
\*---------------------------------------------------------------------------*/
FoamFile
{
    version     2.0;
    format      ascii;
    class       volScalarField;
    location    "0.2/fluid";
    object      p;
}
// * * * * * * * * * * * * * * * * * * * * * * * * * * * * * * * * * * * * * //

dimensions      [0 2 -2 0 0 0 0];


internalField   nonuniform List<scalar> 
14592
(
0.0789138
0.0735295
0.0716322
0.0699537
0.0687414
0.0676708
0.0666918
0.0658031
0.0649481
0.064246
0.0634805
0.0631298
0.062389
0.0628834
0.0620205
0.0652782
0.0745985
0.0729291
0.0713009
0.069915
0.0687522
0.067709
0.0667398
0.0658625
0.0650206
0.0643416
0.0636025
0.0633089
0.0626233
0.0633
0.0625039
0.0667379
0.072737
0.0720455
0.0707649
0.0696657
0.0685918
0.0676059
0.0666599
0.0657953
0.064959
0.064287
0.0635558
0.0632911
0.0626389
0.0634318
0.0627135
0.067324
0.0714279
0.0711822
0.07024
0.0693673
0.0683998
0.0674767
0.0665581
0.0657062
0.0648735
0.0642058
0.0634822
0.0632483
0.0626414
0.0635553
0.0629611
0.0678138
0.070643
0.0705312
0.0697786
0.0690424
0.0681544
0.0672786
0.0663774
0.0655231
0.064671
0.0639692
0.0631967
0.0629051
0.0622252
0.0631073
0.0624685
0.0675196
0.0700774
0.0700215
0.0693995
0.0687557
0.0679278
0.0670851
0.0661934
0.0653318
0.0644612
0.0637336
0.062939
0.0626402
0.0619851
0.0629895
0.0625244
0.0680199
0.069709
0.0696725
0.0691142
0.0685147
0.067714
0.0668788
0.0659739
0.065077
0.0641472
0.0633237
0.0623937
0.0618849
0.0609345
0.0615417
0.0604505
0.0658593
0.0694852
0.0694573
0.0689254
0.0683418
0.0675457
0.066702
0.0657753
0.0648422
0.0638667
0.0629813
0.0619953
0.0614243
0.0604714
0.0612374
0.0604425
0.0680849
0.0787618
0.0733791
0.0715213
0.0698872
0.0687346
0.0677315
0.0668304
0.0660305
0.0652749
0.0646833
0.0640348
0.0637783
0.0631342
0.06344
0.0625418
0.0639137
0.0744469
0.0727774
0.0711898
0.0698492
0.0687468
0.067772
0.0668816
0.0660941
0.0653523
0.0647846
0.0641616
0.0639577
0.0633562
0.0637895
0.0628934
0.0646992
0.072583
0.0718905
0.0706504
0.0695964
0.0685829
0.0676651
0.0667972
0.0660215
0.0652836
0.0647211
0.0641017
0.0639221
0.0633404
0.0638663
0.0630083
0.0650374
0.0712718
0.071025
0.0701229
0.0692949
0.0683872
0.0675316
0.0666902
0.0659262
0.0651906
0.0646317
0.0640181
0.0638706
0.0633294
0.0639743
0.0632171
0.0654345
0.0704836
0.0703707
0.0696574
0.068965
0.0681355
0.0673253
0.0664987
0.0657289
0.0649688
0.06437
0.0636973
0.0634838
0.0628483
0.0634551
0.0626066
0.0650215
0.0699143
0.0698575
0.069274
0.0686731
0.0679022
0.0671232
0.0663035
0.0655237
0.0647418
0.0641153
0.0634178
0.0632038
0.062594
0.0633579
0.0626792
0.0655862
0.0695413
0.0695042
0.0689835
0.0684255
0.0676798
0.0669053
0.0660681
0.0652467
0.0643964
0.0636624
0.06281
0.0623668
0.0614164
0.0617734
0.0603453
0.0632335
0.0693127
0.0692845
0.0687893
0.068246
0.0675028
0.0667172
0.0658545
0.0649927
0.0640918
0.0632923
0.062381
0.0618875
0.060946
0.0615601
0.0604665
0.065876
0.0786574
0.0732754
0.0714481
0.0698503
0.068749
0.0678076
0.0669829
0.066278
0.0656445
0.0652125
0.0647877
0.0648195
0.0646389
0.0654185
0.0655289
0.0670748
0.074343
0.0726728
0.0711167
0.0698131
0.0687629
0.0678507
0.0670379
0.0663471
0.06573
0.0653255
0.0649312
0.0650219
0.0648933
0.0658007
0.0659511
0.0678376
0.0724767
0.0717829
0.0705741
0.0695569
0.0685956
0.0677403
0.0669496
0.06627
0.0656559
0.0652562
0.064864
0.0649796
0.0648691
0.0658725
0.0660708
0.0681727
0.0711634
0.0709152
0.0700439
0.0692524
0.0683964
0.0676027
0.0668376
0.0661687
0.0655554
0.0651589
0.0647708
0.0649211
0.0648501
0.0659815
0.0662794
0.0685692
0.0703718
0.0702575
0.0695743
0.0689176
0.0681385
0.0673884
0.0666354
0.0659572
0.0653138
0.0648705
0.0644113
0.0644847
0.0642943
0.0653762
0.0655307
0.0680097
0.069799
0.0697409
0.0691868
0.0686206
0.0678985
0.0671776
0.0664287
0.0657368
0.0650662
0.0645897
0.0640961
0.064164
0.0639801
0.0652228
0.065497
0.0684711
0.0694215
0.0693833
0.0688911
0.0683666
0.0676676
0.0669481
0.0661768
0.0654363
0.064686
0.0640856
0.0634083
0.0632113
0.0626103
0.0633809
0.0626962
0.0655982
0.0691882
0.0691591
0.0686916
0.0681806
0.0674821
0.0667484
0.0659473
0.0651603
0.0643503
0.0636729
0.0629175
0.0626516
0.0620152
0.0630354
0.0625642
0.0680602
0.0785874
0.0732054
0.0714012
0.0698316
0.0687706
0.067877
0.0671094
0.0664691
0.0659087
0.0655508
0.0652058
0.0652826
0.0651595
0.0658377
0.065946
0.0671378
0.0742734
0.0726021
0.07107
0.0697952
0.068786
0.0679222
0.0671671
0.0665418
0.0659985
0.0656685
0.0653535
0.0654857
0.0654078
0.0661904
0.0663181
0.0677554
0.0724048
0.0717094
0.0705244
0.0695359
0.0686156
0.0678086
0.0670751
0.0664603
0.0659187
0.0655919
0.0652752
0.0654278
0.0653577
0.0662212
0.0663741
0.067993
0.0710896
0.0708396
0.0699918
0.0692287
0.0684132
0.0676672
0.0669587
0.0663538
0.0658119
0.0654876
0.0651731
0.0653604
0.0653243
0.0663128
0.0665492
0.0683435
0.0702949
0.0701789
0.0695185
0.0688894
0.0681497
0.067446
0.0667476
0.066131
0.0655553
0.0651805
0.0647879
0.0648936
0.0647245
0.065659
0.0657239
0.0677044
0.0697186
0.0696591
0.0691272
0.0685878
0.067904
0.067228
0.0665317
0.0658992
0.0652935
0.0648841
0.0644544
0.0645582
0.0643921
0.065501
0.0656716
0.0681555
0.0693372
0.0692976
0.0688269
0.0683282
0.0676658
0.066989
0.066267
0.0655816
0.06489
0.0643499
0.0637247
0.0635556
0.0629483
0.0635826
0.0627328
0.0651414
0.0690996
0.0690694
0.0686227
0.0681365
0.067473
0.0667798
0.0660252
0.06529
0.0645347
0.063915
0.0632084
0.0629763
0.0623337
0.0632531
0.0626126
0.067671
0.0785423
0.0731601
0.0713736
0.069826
0.0687974
0.0679434
0.0672251
0.0666442
0.0661577
0.0658865
0.0656559
0.0658509
0.0659042
0.0666866
0.0670249
0.0681111
0.0742287
0.0725564
0.0710426
0.0697903
0.068814
0.0679906
0.0672857
0.0667208
0.0662531
0.0660121
0.0658144
0.0660676
0.06617
0.0670533
0.0674156
0.0687055
0.0723582
0.0716613
0.0704945
0.0695285
0.0686411
0.0678743
0.0671907
0.0666361
0.0661693
0.065931
0.06573
0.0660025
0.0661085
0.067067
0.0674456
0.0689018
0.0710412
0.0707898
0.0699597
0.0692189
0.068436
0.0677298
0.0670706
0.0665252
0.0660571
0.0658207
0.0656203
0.0659276
0.0660642
0.0671474
0.0676006
0.069227
0.0702439
0.0701263
0.0694833
0.0688757
0.0681678
0.0675027
0.0668519
0.0662926
0.0657873
0.0654965
0.0652113
0.0654315
0.0654218
0.0664449
0.0667028
0.0685122
0.0696647
0.0696038
0.0690887
0.0685702
0.0679171
0.0672783
0.0666277
0.0660502
0.0655115
0.0651829
0.0648546
0.06507
0.0650521
0.0662494
0.0665892
0.068903
0.0692797
0.069239
0.0687845
0.0683058
0.0676727
0.067031
0.0663517
0.0657171
0.065086
0.0646187
0.0640809
0.0640094
0.0635197
0.0642237
0.063475
0.0656958
0.0690385
0.0690072
0.0685762
0.0681092
0.0674735
0.0668135
0.0660986
0.0654105
0.0647104
0.0641571
0.0635274
0.0633847
0.0628391
0.0638264
0.0632436
0.0681333
0.0785146
0.0731322
0.0713582
0.0698265
0.068821
0.0679951
0.0673107
0.0667678
0.0663242
0.0660941
0.0659076
0.0661226
0.0662023
0.0669374
0.0672675
0.068258
0.0742013
0.0725281
0.0710273
0.0697912
0.0688387
0.0680437
0.0673732
0.0668469
0.0664227
0.0662231
0.0660695
0.0663414
0.0664675
0.0672953
0.0676426
0.0688113
0.0723294
0.0716311
0.0704773
0.0695275
0.0686637
0.0679253
0.0672759
0.0667595
0.0663354
0.0661377
0.0659788
0.0662675
0.0663917
0.0672877
0.0676406
0.0689656
0.071011
0.0707582
0.0699409
0.069216
0.0684566
0.0677785
0.0671529
0.0666453
0.0662193
0.066023
0.0658633
0.0661865
0.0663379
0.0673566
0.0677756
0.0692674
0.0702115
0.0700926
0.069462
0.0688699
0.0681847
0.0675469
0.0669287
0.0664057
0.0659404
0.0656878
0.0654397
0.0656737
0.0656721
0.0666285
0.0668389
0.0685122
0.06963
0.0695679
0.0690648
0.0685613
0.0679302
0.0673178
0.0666985
0.0661559
0.0656555
0.0653641
0.0650708
0.065301
0.0652878
0.0664223
0.0667049
0.0688842
0.0692423
0.0692005
0.0687575
0.0682932
0.067681
0.0670643
0.0664144
0.0658125
0.0652163
0.0647828
0.0642744
0.0642149
0.0637195
0.0643593
0.0635262
0.0656025
0.0689981
0.068966
0.068546
0.0680927
0.0674771
0.0668407
0.0661535
0.065496
0.0648281
0.064307
0.0637038
0.0635749
0.0630211
0.063955
0.0632798
0.0680385
0.0784991
0.0731164
0.0713507
0.0698294
0.0688394
0.0680324
0.0673715
0.0668558
0.066445
0.0662499
0.066107
0.066359
0.0664912
0.0672424
0.0676175
0.0685639
0.074186
0.0725121
0.0710199
0.0697945
0.0688578
0.0680821
0.0674355
0.066937
0.0665462
0.0663827
0.0662739
0.0665839
0.0667639
0.0676066
0.0679996
0.069111
0.072313
0.0716139
0.0704685
0.0695294
0.0686815
0.0679624
0.0673367
0.0668479
0.066457
0.066295
0.0661801
0.0665062
0.0666821
0.0675902
0.0679842
0.0692465
0.0709937
0.07074
0.0699311
0.0692166
0.0684729
0.0678139
0.0672118
0.0667315
0.0663381
0.0661773
0.0660607
0.0664211
0.0666222
0.0676521
0.0681075
0.0695349
0.0701927
0.070073
0.0694503
0.0688684
0.0681985
0.0675792
0.0669837
0.066487
0.0660529
0.0658343
0.0656265
0.0658957
0.0659386
0.0669038
0.0671413
0.0687492
0.0696096
0.0695467
0.0690514
0.0685577
0.0679414
0.0673468
0.0667493
0.066232
0.0657612
0.0655024
0.0652468
0.0655111
0.0655376
0.0666803
0.0669804
0.0690949
0.06922
0.0691775
0.0687419
0.068287
0.0676889
0.0670891
0.0664596
0.0658811
0.0653119
0.0649081
0.0644323
0.0644026
0.0639367
0.0645791
0.0637413
0.0657444
0.0689739
0.0689411
0.0685283
0.068084
0.0674816
0.0668612
0.066193
0.0655573
0.0649141
0.06442
0.0638454
0.0637436
0.0632121
0.0641481
0.0634542
0.0681469
0.0784919
0.0731097
0.0713472
0.0698314
0.0688487
0.0680508
0.0674006
0.0668968
0.0664993
0.0663161
0.0661857
0.0664416
0.0665793
0.0673153
0.0676859
0.0686124
0.0741793
0.0725049
0.0710167
0.0697966
0.0688674
0.0681008
0.0674651
0.0669785
0.066601
0.0664492
0.0663526
0.0666656
0.0668496
0.0676744
0.0680608
0.0691475
0.0723055
0.071606
0.0704647
0.0695307
0.0686904
0.0679803
0.0673655
0.0668885
0.0665106
0.0663599
0.0662566
0.0665848
0.066763
0.0676511
0.0680355
0.069271
0.0709859
0.0707316
0.0699267
0.0692173
0.068481
0.067831
0.0672396
0.066771
0.0663904
0.0662408
0.0661354
0.0664977
0.0667001
0.0677092
0.0681524
0.0695521
0.0701841
0.0700638
0.0694452
0.0688681
0.0682055
0.0675949
0.0670097
0.0665243
0.0661025
0.0658947
0.0656972
0.0659682
0.066011
0.0669551
0.0671774
0.0687567
0.0696002
0.0695368
0.0690453
0.0685563
0.0679471
0.0673608
0.0667733
0.066267
0.065808
0.0655597
0.0653138
0.0655801
0.0656055
0.0667277
0.067009
0.069094
0.0692096
0.0691666
0.0687348
0.0682844
0.067693
0.0671012
0.0664811
0.0659129
0.0653546
0.0649606
0.0644933
0.0644655
0.0639966
0.0646189
0.0637565
0.0657268
0.0689625
0.0689293
0.06852
0.06808
0.0674841
0.0668712
0.0662119
0.0655858
0.0649527
0.064468
0.063901
0.0638013
0.0632656
0.0641826
0.0634596
0.0681182
0.088847
0.078404
0.074787
0.0717202
0.0696588
0.0678839
0.0662957
0.0647844
0.0632777
0.0617437
0.0601036
0.0583817
0.0564026
0.0543487
0.0518438
0.0494002
0.0845038
0.0775397
0.0743387
0.0715964
0.0696152
0.0678806
0.0663078
0.064807
0.0633082
0.0617826
0.0601509
0.0584401
0.0564704
0.0544298
0.05193
0.0494926
0.0826113
0.0765592
0.0737299
0.0712889
0.0694269
0.0677688
0.0662335
0.0647554
0.06327
0.061754
0.060131
0.0584301
0.056473
0.054447
0.0519647
0.0495423
0.0812803
0.0756696
0.0731754
0.0709658
0.0692246
0.067641
0.0661441
0.0646877
0.0632137
0.0617043
0.060087
0.0583918
0.0564454
0.0544313
0.05197
0.0495653
0.0804844
0.0750134
0.0727087
0.0706424
0.0689942
0.0674726
0.0660109
0.0645742
0.0631094
0.0616031
0.0599878
0.0582935
0.0563559
0.0543512
0.0519185
0.0495389
0.0799228
0.074512
0.0723369
0.0703676
0.0687897
0.0673143
0.0658785
0.0644546
0.0629943
0.0614872
0.0598716
0.0581764
0.05625
0.0542563
0.0518617
0.0495122
0.0795672
0.0741779
0.0720691
0.0701509
0.0686131
0.0671636
0.0657408
0.0643204
0.062857
0.061342
0.0597195
0.0580152
0.0560943
0.0541041
0.0517505
0.0494331
0.0793633
0.0739821
0.0719027
0.0700063
0.0684844
0.0670431
0.0656207
0.0641945
0.0627224
0.0611959
0.0595659
0.057854
0.0559441
0.0539633
0.051661
0.0493809
0.084485
0.0775145
0.0743066
0.0715587
0.069573
0.0678367
0.0662586
0.0647467
0.0632336
0.0616927
0.0600389
0.058309
0.0563044
0.0542464
0.051695
0.0492674
0.0801438
0.0768667
0.0739211
0.071469
0.0695463
0.0678436
0.0662761
0.0647698
0.0632606
0.0617243
0.060075
0.058352
0.0563529
0.054304
0.0517557
0.0493349
0.0782593
0.0759408
0.0733472
0.0711883
0.0693715
0.0677385
0.0662045
0.0647183
0.0632209
0.061693
0.0600515
0.0583374
0.0563505
0.0543155
0.0517845
0.0493787
0.0769327
0.0750549
0.0728037
0.0708758
0.0691761
0.0676153
0.0661185
0.0646532
0.0631669
0.0616457
0.0600103
0.0583025
0.0563272
0.0543048
0.0517956
0.0494073
0.0761423
0.0743976
0.0723415
0.0705567
0.0689485
0.0674487
0.065987
0.0645414
0.0630647
0.061547
0.0599143
0.0582079
0.0562425
0.0542298
0.0517508
0.0493869
0.075582
0.0738928
0.0719709
0.0702842
0.0687461
0.0672925
0.0658571
0.0644249
0.0629536
0.0614361
0.0598048
0.0580993
0.0561479
0.0541483
0.0517111
0.0493771
0.0752278
0.0735578
0.0717043
0.0700692
0.0685709
0.0671431
0.0657211
0.064293
0.0628193
0.0612945
0.0596574
0.0579433
0.0559992
0.0540028
0.0516105
0.0493069
0.0750246
0.073362
0.0715391
0.0699264
0.0684442
0.0670241
0.0656029
0.0641703
0.062689
0.0611541
0.0595118
0.0577921
0.0558631
0.053879
0.0515445
0.0492781
0.0825901
0.0765306
0.0736992
0.0712601
0.0694075
0.0677644
0.0662441
0.0647804
0.0633071
0.0618095
0.0601844
0.0585012
0.0564832
0.0544588
0.0517517
0.0493086
0.0782599
0.0759405
0.0733525
0.0712014
0.069399
0.0677825
0.0662693
0.0648103
0.063341
0.0618489
0.0602296
0.0585555
0.0565445
0.054533
0.0518281
0.0493956
0.0763885
0.0750487
0.0728071
0.0709446
0.0692383
0.0676853
0.0662016
0.0647606
0.0633018
0.0618177
0.0602063
0.0585418
0.056544
0.0545479
0.0518608
0.0494437
0.0750708
0.0741758
0.0722765
0.0706436
0.0690502
0.0675665
0.0661178
0.0646962
0.0632477
0.0617698
0.0601646
0.058507
0.0565228
0.0545415
0.0518799
0.0494823
0.0742861
0.0735243
0.0718202
0.0703297
0.0688252
0.0674006
0.0659849
0.0645812
0.0631407
0.0616643
0.06006
0.0584014
0.0564266
0.0544529
0.0518265
0.0494547
0.0737276
0.0730207
0.0714515
0.0700589
0.0686235
0.0672438
0.0658531
0.0644613
0.0630246
0.0615468
0.0599435
0.0582845
0.0563269
0.0543677
0.0517951
0.0494572
0.0733738
0.0726855
0.071185
0.0698435
0.068447
0.0670918
0.0657129
0.0643228
0.0628812
0.061392
0.0597789
0.0581046
0.056151
0.054187
0.0516697
0.0493612
0.0731696
0.0724887
0.0710188
0.0696994
0.0683181
0.0669699
0.0655905
0.0641939
0.0627427
0.0612406
0.0596209
0.0579379
0.0560032
0.0540511
0.0516113
0.0493449
0.0812447
0.075625
0.0731388
0.0709446
0.0692332
0.0676897
0.0662388
0.0648338
0.0634095
0.0619666
0.0603745
0.0587484
0.0566981
0.0547095
0.0517466
0.049283
0.0769195
0.0750385
0.0728034
0.0708969
0.0692324
0.0677133
0.0662681
0.0648675
0.0634471
0.0620104
0.0604247
0.0588101
0.0567687
0.0548
0.0518411
0.049399
0.0750561
0.0741585
0.0722697
0.0706506
0.069078
0.0676194
0.0662015
0.0648174
0.0634065
0.0619772
0.0603992
0.0587948
0.0567678
0.0548167
0.0518749
0.0494481
0.0737441
0.0732929
0.0717456
0.0703556
0.0688937
0.0675028
0.0661183
0.0647523
0.0633509
0.0619273
0.0603558
0.0587593
0.0567487
0.0548159
0.0519042
0.0495
0.0729635
0.0726458
0.0712927
0.0700442
0.0686697
0.0673361
0.0659827
0.0646326
0.0632371
0.0618123
0.0602394
0.0586383
0.0566355
0.0547071
0.0518369
0.0494605
0.0724065
0.0721437
0.0709253
0.0697742
0.0684677
0.0671778
0.0658478
0.0645079
0.0631148
0.0616869
0.0601147
0.058513
0.0565327
0.0546229
0.0518255
0.0494911
0.0720528
0.0718087
0.0706584
0.0695578
0.0682891
0.0670223
0.0657019
0.0643609
0.0629593
0.0615147
0.0599275
0.0583009
0.0563202
0.0543934
0.0516673
0.0493597
0.0718475
0.0716109
0.0704909
0.069412
0.0681577
0.0668966
0.065574
0.0642243
0.062811
0.0613506
0.0597562
0.0581191
0.0561652
0.0542545
0.0516393
0.0493867
0.0804362
0.0749564
0.0726794
0.070653
0.0690704
0.0676336
0.0662732
0.0649567
0.0636187
0.062281
0.0607813
0.0592975
0.0572908
0.0554504
0.0521962
0.0497411
0.076117
0.0743681
0.0723485
0.0706103
0.0690737
0.067661
0.0663067
0.0649955
0.063663
0.0623343
0.0608442
0.0593785
0.0573869
0.0555807
0.0523367
0.049917
0.074259
0.073493
0.07182
0.0703687
0.068922
0.0675682
0.0662399
0.0649442
0.0636206
0.0622992
0.0608174
0.0593639
0.0573892
0.0556053
0.0523768
0.0499709
0.0729513
0.072632
0.0712994
0.0700766
0.0687391
0.0674516
0.0661552
0.0648765
0.0635613
0.0622451
0.0607702
0.0593266
0.0573722
0.0556137
0.0524219
0.0500464
0.0721729
0.0719874
0.070848
0.0697656
0.0685138
0.0672815
0.0660138
0.0647481
0.0634352
0.0621134
0.0606319
0.0591769
0.0572256
0.055466
0.0523227
0.0499833
0.0716164
0.0714859
0.0704803
0.0694945
0.0683092
0.0671188
0.0658721
0.0646136
0.0633001
0.0619712
0.060488
0.0590296
0.0571047
0.0553697
0.0523249
0.050049
0.0712615
0.0711498
0.0702115
0.0692752
0.0681261
0.0669561
0.0657156
0.0644511
0.0631224
0.0617666
0.0602559
0.0587531
0.0568114
0.0550329
0.0520728
0.0498232
0.0710539
0.0709498
0.0700412
0.0691255
0.0679894
0.0668229
0.0655771
0.0642995
0.0629543
0.0615755
0.0600522
0.0585301
0.0566179
0.0548561
0.05205
0.0498894
0.0798405
0.0744202
0.0722978
0.0703989
0.0689311
0.0675949
0.0663259
0.065101
0.0638524
0.0626216
0.061208
0.0598542
0.0578523
0.0561105
0.052378
0.0498123
0.0755224
0.0738267
0.071967
0.0703577
0.0689365
0.0676249
0.0663625
0.0651439
0.0639017
0.0626822
0.0612806
0.0599516
0.0579716
0.0562817
0.052557
0.0500085
0.0736653
0.0729511
0.0714388
0.0701163
0.0687844
0.067531
0.0662936
0.0650896
0.0638555
0.062643
0.0612495
0.0599342
0.0579721
0.0563077
0.0525844
0.0500283
0.0723589
0.0720912
0.0709189
0.0698245
0.0686009
0.0674128
0.0662061
0.065018
0.0637914
0.0625836
0.0611973
0.0598947
0.0579573
0.0563278
0.0526471
0.0501306
0.0715808
0.0714468
0.0704667
0.069512
0.0683725
0.0672378
0.0660574
0.0648791
0.0636508
0.0624322
0.061033
0.059711
0.057769
0.0561326
0.0525097
0.0500508
0.0710234
0.0709448
0.0700976
0.0692387
0.0681643
0.0670694
0.0659077
0.0647339
0.063502
0.0622731
0.0608709
0.0595459
0.0576386
0.0560434
0.0525621
0.0502172
0.0706664
0.0706067
0.0698261
0.0690155
0.0679754
0.0668985
0.0657392
0.0645538
0.0632994
0.0620324
0.0605886
0.0591971
0.0572518
0.0555825
0.0522085
0.049909
0.0704558
0.070404
0.0696523
0.0688615
0.0678327
0.0667568
0.0655891
0.0643866
0.0631112
0.0618156
0.0603565
0.0589432
0.0570401
0.055411
0.05227
0.0501685
0.07943
0.0740321
0.07201
0.0702033
0.0688345
0.0675957
0.0664279
0.0653172
0.0641981
0.0631412
0.061924
0.0608739
0.0591399
0.0578729
0.0539905
0.0515278
0.0751135
0.0734359
0.0716793
0.0701632
0.0688419
0.0676287
0.0664686
0.065366
0.0642558
0.0632146
0.0620151
0.0610015
0.0593025
0.0581144
0.0542322
0.0516473
0.0732561
0.0725586
0.0711496
0.0699201
0.0686879
0.0675325
0.0663967
0.0653082
0.0642055
0.0631716
0.0619807
0.0609851
0.0593077
0.058156
0.0542614
0.0516267
0.0719498
0.0716986
0.0706289
0.0696271
0.0685023
0.0674113
0.0663051
0.0652313
0.0641349
0.0631054
0.0619223
0.060944
0.0592977
0.0581996
0.05436
0.0517881
0.0711703
0.0710529
0.0701746
0.0693113
0.0682691
0.0672293
0.0661465
0.0650786
0.063975
0.0629271
0.0617207
0.0607111
0.059045
0.0579336
0.0541598
0.05171
0.070611
0.070549
0.0698029
0.0690343
0.0680554
0.0670532
0.065986
0.0649185
0.0638063
0.0627425
0.061527
0.0605111
0.0588814
0.0578332
0.0542525
0.0520427
0.0702507
0.0702078
0.0695274
0.0688058
0.0678589
0.0668712
0.0658013
0.0647145
0.0635682
0.0624479
0.0611638
0.0600399
0.058317
0.0571267
0.0536332
0.0515569
0.0700362
0.0700013
0.0693491
0.0686461
0.0677081
0.0667183
0.0656356
0.064525
0.0633495
0.0621886
0.0608761
0.0597141
0.058025
0.0568896
0.0537068
0.0521137
0.0791277
0.0737392
0.0717894
0.0700543
0.068769
0.0676163
0.0665402
0.0655314
0.0645226
0.0636009
0.0625209
0.0616513
0.0600417
0.0588766
0.0544903
0.0504737
0.0748116
0.0731404
0.0714581
0.0700147
0.0687779
0.0676516
0.0665841
0.0655846
0.0645861
0.0636827
0.0626233
0.0617979
0.0602293
0.0591485
0.0546531
0.0497522
0.0729524
0.07226
0.0709254
0.0697687
0.068621
0.0675521
0.0665082
0.065522
0.0645298
0.0636331
0.0625809
0.0617746
0.0602239
0.0591728
0.0546009
0.0493547
0.071645
0.0713986
0.0704029
0.0694733
0.0684324
0.0674272
0.0664118
0.0654393
0.0644521
0.0635596
0.062515
0.0617306
0.060215
0.0592329
0.0547229
0.0495275
0.0708631
0.0707506
0.0699454
0.0691533
0.0681935
0.0672376
0.0662428
0.0652724
0.0642727
0.0633549
0.0622764
0.0614496
0.0598962
0.0588979
0.054467
0.0495234
0.0703009
0.0702441
0.0695704
0.0688718
0.0679738
0.0670534
0.0660715
0.0650982
0.0640861
0.0631494
0.0620594
0.0612307
0.0597229
0.0588341
0.0546853
0.0502181
0.0699368
0.0698993
0.0692903
0.0686374
0.0677691
0.06686
0.0658707
0.0648711
0.0638148
0.0628061
0.0616237
0.0606531
0.058998
0.0579176
0.0538471
0.0497434
0.0697179
0.0696887
0.069107
0.0684714
0.0676101
0.0666959
0.06569
0.0646618
0.0635706
0.0625154
0.0613002
0.0602956
0.0586918
0.0577648
0.0541869
0.0512335
0.0694003
0.0693746
0.068834
0.0682373
0.0674192
0.066544
0.0655725
0.0645736
0.0635064
0.0624705
0.0612693
0.0602741
0.0586725
0.0577423
0.0541453
0.051164
0.0694623
0.0694334
0.06885
0.0682143
0.0673526
0.0664326
0.0654127
0.0643559
0.063225
0.0621002
0.0608146
0.0596715
0.0579901
0.0568546
0.0536534
0.0520387
0.0696754
0.069631
0.0689683
0.0682649
0.067337
0.0663549
0.0652724
0.0641434
0.0629295
0.0616835
0.0602618
0.0588749
0.0569842
0.0553575
0.0522004
0.0500792
0.0701116
0.0700156
0.0692107
0.0683982
0.067381
0.0663265
0.0651832
0.0639946
0.0627241
0.061406
0.0599289
0.0584399
0.0565454
0.0547898
0.0519724
0.0497957
0.0707794
0.0705514
0.0695446
0.0685808
0.0674597
0.066324
0.065117
0.0638681
0.0625399
0.0611488
0.0596077
0.0580089
0.0560772
0.0541762
0.0515544
0.0492888
0.0720166
0.0713459
0.0699966
0.0688001
0.0675617
0.066348
0.0650925
0.0638045
0.0624452
0.061018
0.0594562
0.0578152
0.055906
0.0539662
0.0515234
0.0492466
0.0738089
0.0721586
0.070462
0.068978
0.0676451
0.0663662
0.0650751
0.0637563
0.0623717
0.0609157
0.0593347
0.0576597
0.0557588
0.0537888
0.0514541
0.0491793
0.0781409
0.0727781
0.0708248
0.069057
0.0676832
0.0663827
0.0650922
0.0637811
0.0624061
0.0609587
0.05939
0.0577227
0.0558409
0.0538743
0.0515721
0.0492836
0.0692227
0.0691968
0.0686919
0.0681342
0.0673666
0.0665458
0.0656331
0.0646977
0.0636939
0.0627278
0.061577
0.0606292
0.0589818
0.0578992
0.0537942
0.0496423
0.0692795
0.0692507
0.0687022
0.0681043
0.0672911
0.0664227
0.0654575
0.0644591
0.0633857
0.0623243
0.0610844
0.0599923
0.0582821
0.0570924
0.0535658
0.0514522
0.0694877
0.0694436
0.068815
0.0681481
0.0672666
0.0663328
0.0653004
0.064223
0.063058
0.061863
0.0604732
0.0591201
0.0571919
0.0555253
0.0521227
0.0497913
0.0699195
0.0698242
0.0690529
0.068276
0.0673034
0.0662949
0.0651985
0.0640573
0.0628311
0.061558
0.0601099
0.058652
0.0567331
0.0549618
0.0519814
0.0497058
0.0705835
0.0703562
0.0693826
0.0684537
0.0673757
0.0662836
0.0651205
0.0639146
0.0626256
0.0612721
0.0597543
0.0581777
0.0562248
0.0543092
0.05157
0.0492419
0.0718182
0.0711487
0.0698322
0.0686701
0.0674741
0.0663028
0.0650895
0.0638423
0.06252
0.0611274
0.0595884
0.0579677
0.0560457
0.0540961
0.0515717
0.0492467
0.0736086
0.07196
0.0702961
0.068846
0.0675548
0.0663173
0.0650669
0.063787
0.0624374
0.0610131
0.0594535
0.0577957
0.0558861
0.0539066
0.0515113
0.0491945
0.0779409
0.0725816
0.0706606
0.0689268
0.067594
0.0663351
0.0650863
0.0638148
0.062476
0.0610616
0.0595167
0.0578687
0.0559825
0.0540092
0.0516533
0.0493228
0.0690931
0.0690666
0.0685885
0.0680618
0.0673364
0.0665637
0.0657066
0.0648365
0.0639081
0.0630393
0.0619999
0.061209
0.0597136
0.0588222
0.0546122
0.0500598
0.0691452
0.0691158
0.0685934
0.0680252
0.0672521
0.0664286
0.0655142
0.0645739
0.0635655
0.0625856
0.0614328
0.0604629
0.0588505
0.0578027
0.0541649
0.0518935
0.0693487
0.0693044
0.0687009
0.0680624
0.0672188
0.0663265
0.0653398
0.0643125
0.0632003
0.0620678
0.0607373
0.0594638
0.0575776
0.0559846
0.0524556
0.0500616
0.0697765
0.0696813
0.0689346
0.0681852
0.0672488
0.0662792
0.0652247
0.064128
0.0629472
0.0617249
0.0603219
0.0589211
0.0570239
0.0552968
0.0522182
0.0499036
0.0704369
0.0702099
0.0692604
0.0683582
0.0673149
0.0662594
0.0651348
0.0639684
0.0627179
0.0614046
0.0599192
0.05838
0.0564329
0.0545358
0.0517164
0.0493522
0.0716694
0.0710004
0.0697079
0.0685721
0.06741
0.0662739
0.0650971
0.0638866
0.0625994
0.0612417
0.0597298
0.0581369
0.0562171
0.0542746
0.0516891
0.0493278
0.0734581
0.0718105
0.0701702
0.0687461
0.067488
0.0662847
0.0650692
0.0638239
0.0625068
0.0611132
0.0595768
0.05794
0.05603
0.0540501
0.0516064
0.0492537
0.0777908
0.0724336
0.0705362
0.0688284
0.0675282
0.0663037
0.0650908
0.0638543
0.0625487
0.0611657
0.0596451
0.0580186
0.0561339
0.0541601
0.0517601
0.0493923
0.069
0.0689726
0.0685145
0.0680115
0.0673192
0.0665843
0.0657697
0.0649462
0.0640651
0.0632449
0.0622404
0.0614719
0.059939
0.0589402
0.0544069
0.0493147
0.0690477
0.0690176
0.0685145
0.0679691
0.0672275
0.0664394
0.0655644
0.0646669
0.0637011
0.0627656
0.0616438
0.060699
0.0590568
0.0579481
0.0540814
0.0515325
0.0692471
0.0692023
0.0686175
0.0680008
0.0671869
0.0663276
0.0653768
0.0643875
0.063312
0.0622164
0.060909
0.0596546
0.0577384
0.0561045
0.0524055
0.0498722
0.0696714
0.0695759
0.0688476
0.0681191
0.067211
0.0662725
0.0652514
0.0641894
0.0630417
0.0618524
0.0604703
0.059088
0.0571696
0.0554192
0.0522225
0.0498266
0.0703287
0.0701015
0.0691699
0.0682882
0.0672719
0.0662457
0.0651521
0.0640171
0.0627962
0.0615111
0.0600434
0.0585187
0.0565548
0.0546406
0.051735
0.0493159
0.0715593
0.0708904
0.0696155
0.0684999
0.0673642
0.0662564
0.0651092
0.0639285
0.0626692
0.0613375
0.059843
0.058264
0.0563335
0.0543788
0.0517307
0.0493258
0.0733464
0.0716993
0.0700765
0.0686722
0.06744
0.0662642
0.0650772
0.0638602
0.0625696
0.0612002
0.0596804
0.0580561
0.0561389
0.0541487
0.0516574
0.0492671
0.0776795
0.0723239
0.0704438
0.0687559
0.0674813
0.0662843
0.0651008
0.0638933
0.0626152
0.0612574
0.0597552
0.0581429
0.0562542
0.0542724
0.0518293
0.049424
0.068935
0.0689068
0.0684636
0.0679789
0.0673127
0.0666086
0.0658301
0.0650482
0.064214
0.0634489
0.062502
0.0617993
0.0603128
0.0593328
0.0546564
0.0492037
0.068979
0.0689483
0.0684596
0.0679316
0.0672146
0.0664551
0.0656131
0.0647529
0.0638279
0.0629393
0.0618631
0.0609711
0.0593563
0.0582659
0.0542839
0.0515604
0.0691749
0.0691296
0.0685586
0.0679584
0.0671677
0.0663348
0.0654137
0.064457
0.0634155
0.0623575
0.0610831
0.0598659
0.0579594
0.0563347
0.0525404
0.0499185
0.0695963
0.0695006
0.0687856
0.068073
0.0671868
0.0662729
0.0652791
0.0642463
0.0631282
0.0619702
0.060614
0.0592595
0.0573442
0.0555985
0.0523296
0.0498789
0.0702511
0.0700236
0.0691051
0.0682387
0.0672433
0.0662402
0.0651716
0.0640627
0.0628674
0.0616081
0.0601602
0.058655
0.0566895
0.0547747
0.0518126
0.0493534
0.07148
0.0708112
0.0695491
0.0684486
0.0673332
0.0662475
0.0651242
0.0639679
0.0627321
0.0614233
0.059946
0.0583824
0.0564497
0.0544917
0.0517997
0.0493604
0.0732659
0.071619
0.070009
0.0686195
0.0674072
0.0662528
0.0650885
0.0638947
0.062626
0.0612774
0.0597729
0.058161
0.0562416
0.0542463
0.0517197
0.0492988
0.0775993
0.0722447
0.0703774
0.0687043
0.0674492
0.0662739
0.0651138
0.0639299
0.0626743
0.0613379
0.059852
0.0582529
0.0563633
0.0543769
0.0519011
0.0494646
0.0688917
0.0688627
0.0684301
0.0679584
0.0673111
0.066629
0.0658758
0.0651216
0.0643157
0.0635785
0.0626518
0.061959
0.0604509
0.0594106
0.0545672
0.0488374
0.0689328
0.0689014
0.0684229
0.0679073
0.0672082
0.0664692
0.0656506
0.0648158
0.0639162
0.0630529
0.0619942
0.061113
0.0594796
0.0583494
0.0542437
0.0513738
0.069126
0.0690802
0.0685189
0.0679305
0.0671565
0.0663427
0.0654429
0.0645089
0.0634896
0.0624532
0.0611928
0.0599848
0.0580611
0.0564096
0.0525229
0.0498195
0.0695451
0.0694491
0.0687435
0.0680422
0.0671719
0.0662759
0.0653018
0.0642897
0.0631916
0.062053
0.0607092
0.0593637
0.0574356
0.0556724
0.0523371
0.0498346
0.0701979
0.0699702
0.0690608
0.0682054
0.0672251
0.0662388
0.0651884
0.0640984
0.062921
0.0616786
0.0602416
0.0587442
0.0567688
0.0548414
0.0518299
0.049334
0.0714256
0.0707566
0.0695036
0.0684139
0.0673132
0.0662437
0.0651378
0.0639993
0.0627805
0.0614875
0.0600207
0.0584647
0.0565253
0.0545578
0.0518285
0.0493595
0.0732104
0.0715638
0.0699627
0.0685837
0.0673858
0.0662471
0.0650996
0.0639227
0.0626703
0.0613364
0.0598421
0.0582374
0.0563134
0.0543103
0.0517547
0.049308
0.077544
0.0721902
0.0703318
0.0686694
0.0674285
0.066269
0.0651262
0.0639597
0.062721
0.0614
0.0599254
0.0583345
0.0564421
0.054449
0.0519464
0.0494842
0.0688654
0.0688358
0.0684101
0.0679469
0.0673121
0.0666447
0.0659089
0.0651743
0.0643897
0.0636756
0.0627709
0.0620986
0.0605977
0.0595449
0.0546205
0.0487156
0.0689045
0.0688727
0.0684007
0.0678932
0.0672058
0.0664806
0.0656779
0.0648607
0.0639798
0.0631365
0.0620955
0.0612311
0.0596002
0.0584622
0.0542936
0.0513347
0.0690959
0.0690497
0.0684945
0.0679139
0.0671509
0.0663498
0.0654644
0.064546
0.0635427
0.0625229
0.0612759
0.0600805
0.0581555
0.056498
0.0525622
0.0498091
0.0695134
0.0694171
0.0687175
0.0680235
0.0671637
0.0662796
0.0653187
0.0643208
0.0632368
0.0621123
0.0607794
0.0594437
0.057513
0.055745
0.0523728
0.0498382
0.0701648
0.0699369
0.0690334
0.068185
0.0672145
0.0662394
0.0652012
0.064124
0.0629591
0.0617288
0.0603005
0.0588105
0.0568321
0.0549001
0.05186
0.0493406
0.0713916
0.0707226
0.0694753
0.0683926
0.0673015
0.0662427
0.0651484
0.0640219
0.0628147
0.0615326
0.0600737
0.0585239
0.056582
0.0546101
0.0518581
0.0493695
0.0731758
0.0715292
0.0699338
0.0685617
0.0673731
0.0662449
0.0651084
0.063943
0.0627015
0.0613777
0.0598908
0.0582914
0.0563654
0.054358
0.051784
0.0493201
0.0775096
0.0721561
0.0703035
0.068648
0.0674163
0.0662672
0.0651359
0.0639812
0.0627537
0.0614433
0.0599765
0.0583914
0.0564979
0.0545008
0.051981
0.0495014
0.0688529
0.0688231
0.0684007
0.0679416
0.0673128
0.0666525
0.0659249
0.0651991