/*--------------------------------*- C++ -*----------------------------------*\
| =========                 |                                                 |
| \\      /  F ield         | OpenFOAM: The Open Source CFD Toolbox           |
|  \\    /   O peration     | Version:  v1912                                 |
|   \\  /    A nd           | Website:  www.openfoam.com                      |
|    \\/     M anipulation  |                                                 |
\*---------------------------------------------------------------------------*/
FoamFile
{
    version     2.0;
    format      ascii;
    class       volScalarField;
    location    "0.2/fluid";
    object      T;
}
// * * * * * * * * * * * * * * * * * * * * * * * * * * * * * * * * * * * * * //

dimensions      [0 0 0 1 0 0 0];


internalField   nonuniform List<scalar> 
14592
(
273.064
273.2
273.357
273.549
273.792
274.105
274.508
275.026
275.688
276.523
277.566
278.853
280.426
282.341
284.696
287.73
273.063
273.198
273.353
273.543
273.784
274.093
274.491
275.005
275.66
276.488
277.523
278.802
280.37
282.284
284.643
287.681
273.062
273.194
273.346
273.533
273.768
274.071
274.462
274.965
275.608
276.422
277.442
278.707
280.263
282.173
284.541
287.61
273.061
273.189
273.337
273.518
273.746
274.04
274.419
274.908
275.533
276.326
277.323
278.563
280.099
281.999
284.379
287.497
273.058
273.182
273.325
273.499
273.719
274.001
274.365
274.834
275.435
276.199
277.161
278.365
279.865
281.742
284.129
287.315
273.056
273.174
273.31
273.476
273.685
273.953
274.299
274.745
275.316
276.041
276.957
278.107
279.55
281.377
283.747
287.011
273.053
273.165
273.294
273.451
273.648
273.9
274.224
274.642
275.176
275.855
276.711
277.787
279.142
280.871
283.162
286.464
273.05
273.156
273.277
273.424
273.607
273.842
274.143
274.528
275.021
275.645
276.429
277.41
278.64
280.201
282.272
285.36
273.068
273.213
273.38
273.586
273.846
274.182
274.616
275.176
275.892
276.797
277.93
279.33
281.044
283.13
285.672
288.808
273.067
273.21
273.376
273.579
273.837
274.169
274.598
275.153
275.862
276.76
277.884
279.277
280.987
283.072
285.62
288.768
273.066
273.206
273.369
273.568
273.82
274.145
274.567
275.11
275.807
276.69
277.799
279.177
280.875
282.959
285.521
288.705
273.064
273.201
273.358
273.552
273.797
274.112
274.521
275.049
275.726
276.587
277.671
279.024
280.703
282.78
285.361
288.603
273.062
273.193
273.345
273.531
273.767
274.07
274.463
274.97
275.622
276.451
277.499
278.814
280.457
282.514
285.111
288.436
273.059
273.185
273.33
273.507
273.732
274.02
274.393
274.874
275.493
276.282
277.28
278.538
280.123
282.132
284.723
288.148
273.056
273.175
273.313
273.48
273.691
273.962
274.312
274.764
275.343
276.081
277.015
278.194
279.685
281.594
284.112
287.605
273.053
273.165
273.294
273.451
273.648
273.9
274.224
274.641
275.175
275.854
276.71
277.786
279.141
280.87
283.161
286.463
273.072
273.224
273.401
273.619
273.895
274.252
274.714
275.31
276.073
277.038
278.243
279.73
281.539
283.715
286.303
289.335
273.071
273.222
273.397
273.612
273.885
274.238
274.696
275.286
276.042
276.999
278.196
279.675
281.479
283.657
286.252
289.297
273.07
273.218
273.389
273.6
273.868
274.214
274.662
275.241
275.983
276.925
278.106
279.57
281.365
283.542
286.154
289.237
273.068
273.212
273.378
273.583
273.843
274.179
274.614
275.177
275.899
276.817
277.972
279.411
281.186
283.359
285.994
289.139
273.065
273.204
273.365
273.562
273.811
274.134
274.552
275.093
275.788
276.673
277.791
279.19
280.93
283.085
285.742
288.975
273.063
273.195
273.348
273.536
273.774
274.08
274.478
274.991
275.652
276.494
277.56
278.9
280.581
282.689
285.347
288.69
273.059
273.185
273.33
273.507
273.731
274.019
274.392
274.874
275.492
276.281
277.279
278.537
280.121
282.13
284.722
288.147
273.056
273.174
273.31
273.476
273.685
273.953
274.298
274.744
275.314
276.04
276.955
278.105
279.548
281.375
283.745
287.01
273.075
273.235
273.42
273.648
273.938
274.313
274.799
275.426
276.227
277.239
278.5
280.047
281.915
284.13
286.706
289.617
273.074
273.232
273.415
273.641
273.928
274.299
274.78
275.4
276.194
277.198
278.451
279.99
281.854
284.071
286.655
289.58
273.073
273.227
273.407
273.628
273.91
274.273
274.744
275.354
276.134
277.122
278.357
279.882
281.736
283.954
286.556
289.52
273.071
273.221
273.396
273.611
273.884
274.236
274.694
275.286
276.045
277.009
278.218
279.717
281.552
283.767
286.395
289.423
273.068
273.213
273.381
273.588
273.85
274.189
274.629
275.198
275.929
276.859
278.03
279.489
281.289
283.488
286.14
289.259
273.065
273.204
273.364
273.561
273.811
274.133
274.551
275.092
275.786
276.672
277.789
279.188
280.928
283.083
285.74
288.974
273.062
273.193
273.345
273.531
273.766
274.069
274.461
274.968
275.619
276.449
277.496
278.811
280.454
282.511
285.109
288.434
273.058
273.182
273.324
273.498
273.718
273.999
274.363
274.832
275.433
276.196
277.158
278.361
279.861
281.738
284.125
287.313
273.078
273.243
273.436
273.672
273.974
274.364
274.869
275.52
276.352
277.399
278.7
280.287
282.187
284.416
286.962
289.779
273.077
273.24
273.431
273.665
273.963
274.349
274.849
275.494
276.318
277.357
278.649
280.229
282.125
284.356
286.911
289.742
273.076
273.236
273.422
273.652
273.944
274.322
274.812
275.445
276.255
277.278
278.553
280.118
282.005
284.237
286.812
289.683
273.073
273.229
273.41
273.633
273.917
274.284
274.76
275.375
276.163
277.161
278.41
279.949
281.818
284.048
286.649
289.585
273.071
273.221
273.396
273.61
273.883
274.235
274.693
275.284
276.043
277.007
278.215
279.714
281.549
283.764
286.392
289.421
273.068
273.211
273.378
273.582
273.842
274.177
274.612
275.174
275.895
276.813
277.967
279.406
281.181
283.354
285.99
289.136
273.064
273.2
273.358
273.551
273.795
274.11
274.519
275.046
275.722
276.582
277.666
279.018
280.696
282.774
285.356
288.6
273.06
273.188
273.336
273.517
273.745
274.038
274.416
274.904
275.529
276.321
277.316
278.556
280.091
281.992
284.373
287.492
273.08
273.25
273.448
273.691
274.001
274.402
274.922
275.591
276.444
277.517
278.845
280.457
282.375
284.604
287.122
289.874
273.079
273.247
273.443
273.684
273.99
274.387
274.901
275.564
276.41
277.474
278.793
280.398
282.312
284.543
287.071
289.838
273.078
273.242
273.434
273.67
273.971
274.36
274.864
275.514
276.345
277.393
278.695
280.285
282.191
284.424
286.972
289.778
273.075
273.236
273.422
273.651
273.943
274.321
274.81
275.443
276.252
277.274
278.549
280.113
282.001
284.233
286.808
289.68
273.073
273.227
273.406
273.627
273.908
274.271
274.741
275.349
276.129
277.116
278.351
279.874
281.728
283.946
286.549
289.516
273.07
273.217
273.388
273.598
273.866
274.21
274.658
275.236
275.977
276.917
278.097
279.56
281.355
283.532
286.146
289.231
273.066
273.206
273.368
273.566
273.818
274.142
274.562
275.104
275.799
276.681
277.789
279.166
280.864
282.948
285.511
288.698
273.062
273.193
273.345
273.531
273.766
274.067
274.457
274.959
275.601
276.414
277.432
278.696
280.252
282.162
284.531
287.602
273.081
273.254
273.456
273.704
274.02
274.429
274.958
275.639
276.506
277.595
278.939
280.565
282.492
284.718
287.216
289.928
273.081
273.252
273.451
273.696
274.009
274.413
274.937
275.611
276.471
277.551
278.886
280.506
282.429
284.657
287.165
289.892
273.079
273.247
273.442
273.682
273.989
274.385
274.899
275.561
276.405
277.469
278.787
280.392
282.306
284.537
287.065
289.832
273.077
273.24
273.429
273.663
273.961
274.345
274.844
275.488
276.31
277.348
278.639
280.218
282.114
284.345
286.901
289.734
273.074
273.231
273.414
273.639
273.925
274.294
274.774
275.393
276.185
277.187
278.438
279.977
281.839
284.057
286.642
289.569
273.071
273.221
273.395
273.609
273.882
274.233
274.689
275.277
276.031
276.986
278.182
279.659
281.463
283.64
286.237
289.285
273.067
273.209
273.374
273.576
273.833
274.163
274.591
275.144
275.851
276.747
277.869
279.261
280.969
283.055
285.603
288.754
273.063
273.197
273.352
273.541
273.78
274.087
274.484
274.996
275.649
276.475
277.508
278.786
280.353
282.266
284.625
287.665
273.082
273.257
273.46
273.71
274.029
274.442
274.976
275.663
276.537
277.633
278.985
280.618
282.548
284.772
287.26
289.953
273.081
273.254
273.455
273.702
274.018
274.426
274.954
275.635
276.501
277.589
278.932
280.558
282.485
284.711
287.209
289.917
273.08
273.249
273.446
273.689
273.998
274.398
274.916
275.584
276.435
277.507
278.832
280.444
282.361
284.59
287.109
289.857
273.078
273.242
273.433
273.669
273.969
274.358
274.861
275.51
276.339
277.385
278.683
280.269
282.169
284.397
286.944
289.758
273.075
273.233
273.418
273.644
273.933
274.306
274.79
275.415
276.213
277.223
278.481
280.026
281.893
284.109
286.684
289.594
273.071
273.223
273.399
273.615
273.89
274.245
274.704
275.298
276.058
277.02
278.223
279.707
281.515
283.692
286.28
289.31
273.068
273.211
273.378
273.582
273.84
274.174
274.606
275.163
275.876
276.779
277.909
279.307
281.02
283.105
285.646
288.78
273.064
273.199
273.355
273.546
273.787
274.097
274.498
275.014
275.673
276.505
277.545
278.83
280.401
282.316
284.669
287.694
273.04
273.125
273.22
273.332
273.467
273.633
273.837
274.086
274.386
274.74
275.147
275.599
276.081
276.57
277.033
277.431
273.04
273.124
273.218
273.328
273.462
273.626
273.828
274.075
274.372
274.722
275.124
275.572
276.049
276.533
276.992
277.388
273.039
273.121
273.214
273.322
273.453
273.614
273.812
274.053
274.344
274.687
275.082
275.52
275.989
276.464
276.915
277.305
273.038
273.118
273.208
273.314
273.441
273.597
273.789
274.023
274.305
274.637
275.02
275.445
275.9
276.362
276.801
277.18
273.037
273.114
273.201
273.303
273.425
273.575
273.759
273.984
274.254
274.573
274.94
275.348
275.784
276.228
276.65
277.015
273.036
273.11
273.193
273.29
273.407
273.55
273.725
273.938
274.194
274.496
274.843
275.23
275.644
276.064
276.464
276.81
273.034
273.105
273.184
273.276
273.386
273.521
273.685
273.886
274.126
274.409
274.733
275.095
275.481
275.874
276.247
276.571
273.032
273.099
273.174
273.261
273.364
273.49
273.643
273.829
274.052
274.313
274.613
274.946
275.302
275.663
276.006
276.302
273.041
273.127
273.225
273.339
273.478
273.649
273.861
274.12
274.433
274.804
275.233
275.713
276.228
276.755
277.259
277.696
273.041
273.126
273.222
273.336
273.473
273.642
273.851
274.108
274.417
274.785
275.209
275.684
276.195
276.717
277.217
277.651
273.04
273.124
273.218
273.329
273.464
273.63
273.835
274.086
274.389
274.749
275.165
275.63
276.132
276.645
277.137
277.564
273.039
273.121
273.212
273.321
273.451
273.612
273.811
274.054
274.348
274.697
275.1
275.552
276.04
276.539
277.017
277.434
273.038
273.117
273.205
273.31
273.435
273.59
273.781
274.014
274.296
274.63
275.017
275.451
275.919
276.399
276.859
277.261
273.036
273.112
273.197
273.296
273.417
273.564
273.745
273.966
274.233
274.55
274.917
275.328
275.771
276.226
276.663
277.045
273.035
273.107
273.187
273.282
273.395
273.534
273.704
273.912
274.163
274.459
274.802
275.186
275.6
276.025
276.433
276.789
273.033
273.101
273.177
273.266
273.373
273.502
273.66
273.853
274.086
274.36
274.676
275.03
275.41
275.8
276.174
276.501
273.043
273.133
273.234
273.354
273.501
273.683
273.908
274.187
274.526
274.931
275.404
275.94
276.523
277.129
277.717
278.234
273.042
273.131
273.232
273.351
273.496
273.675
273.898
274.174
274.509
274.91
275.379
275.909
276.487
277.088
277.672
278.186
273.042
273.129
273.227
273.344
273.486
273.662
273.881
274.15
274.479
274.872
275.331
275.851
276.42
277.011
277.586
278.094
273.041
273.125
273.221
273.335
273.473
273.643
273.855
274.117
274.435
274.816
275.262
275.768
276.321
276.897
277.458
277.955
273.039
273.121
273.214
273.323
273.456
273.62
273.823
274.074
274.379
274.745
275.173
275.658
276.19
276.744
277.286
277.766
273.038
273.116
273.205
273.309
273.436
273.592
273.785
274.023
274.313
274.659
275.064
275.524
276.028
276.555
277.07
277.527
273.036
273.111
273.195
273.294
273.414
273.561
273.742
273.965
274.237
274.561
274.939
275.369
275.839
276.331
276.811
277.238
273.034
273.105
273.184
273.277
273.389
273.527
273.695
273.903
274.154
274.453
274.802
275.197
275.629
276.078
276.517
276.907
273.045
273.14
273.248
273.377
273.534
273.731
273.978
274.284
274.661
275.116
275.654
276.273
276.96
277.687
278.41
279.059
273.045
273.139
273.245
273.373
273.529
273.723
273.967
274.27
274.643
275.093
275.626
276.24
276.921
277.643
278.362
279.008
273.044
273.136
273.241
273.365
273.518
273.709
273.948
274.244
274.61
275.052
275.574
276.177
276.847
277.559
278.269
278.909
273.043
273.133
273.235
273.356
273.504
273.689
273.92
274.208
274.562
274.991
275.499
276.085
276.738
277.434
278.129
278.758
273.041
273.128
273.226
273.343
273.486
273.664
273.886
274.162
274.502
274.913
275.401
275.964
276.593
277.264
277.938
278.549
273.04
273.123
273.217
273.328
273.464
273.633
273.844
274.106
274.428
274.818
275.28
275.814
276.411
277.05
277.692
278.276
273.038
273.117
273.206
273.312
273.44
273.599
273.797
274.043
274.345
274.709
275.141
275.639
276.196
276.792
277.391
277.938
273.036
273.111
273.195
273.294
273.414
273.563
273.747
273.974
274.253
274.59
274.987
275.444
275.954
276.497
277.042
277.539
273.048
273.15
273.266
273.405
273.577
273.793
274.065
274.407
274.832
275.351
275.973
276.701
277.525
278.422
279.339
280.189
273.048
273.148
273.263
273.401
273.571
273.784
274.054
274.392
274.812
275.326
275.942
276.664
277.483
278.374
279.288
280.136
273.047
273.146
273.258
273.393
273.559
273.769
274.033
274.364
274.776
275.28
275.885
276.595
277.402
278.283
279.188
280.031
273.046
273.142
273.251
273.382
273.544
273.747
274.003
274.324
274.724
275.213
275.802
276.493
277.281
278.144
279.035
279.868
273.044
273.137
273.243
273.369
273.524
273.719
273.965
274.273
274.656
275.126
275.692
276.357
277.118
277.954
278.821
279.637
273.042
273.131
273.232
273.353
273.501
273.686
273.919
274.212
274.575
275.021
275.557
276.188
276.912
277.709
278.539
279.324
273.04
273.125
273.221
273.335
273.474
273.649
273.868
274.142
274.482
274.899
275.399
275.989
276.663
277.408
278.184
278.92
273.038
273.118
273.208
273.315
273.446
273.608
273.812
274.066
274.38
274.764
275.224
275.763
276.379
277.055
277.758
278.424
273.052
273.161
273.287
273.438
273.626
273.864
274.167
274.55
275.031
275.624
276.345
277.203
278.198
279.312
280.496
281.646
273.051
273.16
273.284
273.433
273.619
273.855
274.154
274.534
275.009
275.597
276.311
277.163
278.151
279.261
280.443
281.592
273.05
273.157
273.278
273.425
273.607
273.838
274.131
274.503
274.969
275.546
276.248
277.087
278.063
279.162
280.338
281.485
273.049
273.152
273.271
273.413
273.59
273.814
274.099
274.459
274.911
275.472
276.156
276.974
277.93
279.011
280.174
281.315
273.047
273.147
273.261
273.398
273.568
273.783
274.057
274.402
274.837
275.375
276.033
276.822
277.748
278.8
279.939
281.066
273.045
273.141
273.25
273.381
273.543
273.747
274.007
274.335
274.746
275.257
275.881
276.631
277.513
278.52
279.618
280.715
273.043
273.134
273.237
273.361
273.514
273.706
273.95
274.257
274.642
275.12
275.703
276.402
277.225
278.167
279.197
280.233
273.041
273.127
273.224
273.34
273.483
273.662
273.888
274.172
274.528
274.967
275.502
276.141
276.89
277.743
278.672
279.604
273.056
273.174
273.31
273.474
273.68
273.943
274.278
274.706
275.247
275.922
276.751
277.753
278.942
280.317
281.85
283.442
273.055
273.172
273.306
273.469
273.673
273.932
274.264
274.688
275.223
275.891
276.714
277.709
278.892
280.263
281.796
283.391
273.054
273.169
273.3
273.46
273.659
273.914
274.239
274.654
275.179
275.835
276.644
277.626
278.796
280.158
281.689
283.287
273.053
273.164
273.292
273.447
273.641
273.888
274.203
274.606
275.116
275.754
276.542
277.502
278.651
279.997
281.519
283.122
273.051
273.158
273.282
273.431
273.617
273.854
274.157
274.544
275.033
275.647
276.407
277.334
278.45
279.766
281.269
282.87
273.049
273.152
273.27
273.412
273.589
273.814
274.102
274.469
274.933
275.515
276.237
277.12
278.186
279.452
280.914
282.495
273.046
273.144
273.256
273.39
273.557
273.769
274.039
274.383
274.817
275.361
276.035
276.86
277.856
279.043
280.424
281.939
273.044
273.136
273.241
273.367
273.523
273.72
273.971
274.288
274.689
275.189
275.807
276.559
277.464
278.536
279.777
281.138
273.06
273.187
273.333
273.512
273.736
274.024
274.394
274.868
275.47
276.227
277.166
278.316
279.705
281.363
283.314
285.548
273.059
273.185
273.33
273.506
273.728
274.013
274.378
274.847
275.444
276.194
277.126
278.269
279.652
281.307
283.26
285.499
273.058
273.181
273.323
273.496
273.714
273.993
274.351
274.811
275.396
276.133
277.05
278.179
279.551
281.199
283.154
285.408
273.057
273.176
273.314
273.482
273.694
273.964
274.312
274.758
275.327
276.044
276.939
278.045
279.395
281.03
282.986
285.263
273.055
273.17
273.303
273.465
273.668
273.928
274.261
274.69
275.236
275.927
276.79
277.861
279.176
280.783
282.731
285.034
273.052
273.163
273.29
273.444
273.637
273.884
274.201
274.608
275.126
275.782
276.603
277.624
278.885
280.441
282.355
284.672
273.05
273.155
273.275
273.421
273.603
273.835
274.132
274.513
274.998
275.611
276.378
277.332
278.514
279.979
281.806
284.079
273.047
273.146
273.259
273.395
273.565
273.781
274.057
274.409
274.856
275.419
276.122
276.992
278.064
279.385
281.028
283.088
273.047
273.146
273.259
273.395
273.565
273.781
274.057
274.409
274.856
275.419
276.122
276.992
278.063
279.385
281.027
283.088
273.044
273.136
273.241
273.367
273.523
273.72
273.97
274.288
274.689
275.189
275.806
276.558
277.463
278.536
279.776
281.137
273.041
273.126
273.224
273.34
273.482
273.661
273.887
274.172
274.527
274.966
275.501
276.14
276.889
277.742
278.671
279.603
273.038
273.118
273.208
273.315
273.446
273.608
273.811
274.065
274.379
274.763
275.223
275.762
276.378
277.054
277.757
278.422
273.036
273.111
273.195
273.294
273.414
273.562
273.746
273.974
274.253
274.589
274.986
275.443
275.952
276.496
277.041
277.538
273.034
273.105
273.184
273.277
273.389
273.526
273.695
273.902
274.153
274.452
274.801
275.196
275.627
276.077
276.516
276.906
273.033
273.101
273.177
273.266
273.372
273.502
273.66
273.853
274.085
274.359
274.675
275.028
275.409
275.799
276.173
276.499
273.032
273.099
273.174
273.26
273.364
273.49
273.643
273.828
274.051
274.312
274.612
274.945
275.301
275.661
276.004
276.301
273.05
273.155
273.275
273.42
273.602
273.834
274.132
274.512
274.997
275.61
276.377
277.331
278.512
279.977
281.804
284.078
273.046
273.144
273.256
273.39
273.557
273.769
274.038
274.382
274.816
275.36
276.034
276.858
277.855
279.041
280.422
281.938
273.043
273.134
273.237
273.361
273.513
273.706
273.949
274.256
274.641
275.118
275.701
276.401
277.224
278.165
279.195
280.232
273.04
273.125
273.22
273.334
273.474
273.648
273.867
274.141
274.481
274.897
275.398
275.987
276.661
277.406
278.182
278.918
273.038
273.117
273.206
273.311
273.44
273.599
273.797
274.042
274.343
274.708
275.139
275.638
276.194
276.79
277.389
277.936
273.036
273.111
273.195
273.294
273.413
273.56
273.741
273.964
274.235
274.559
274.938
275.367
275.837
276.329
276.809
277.236
273.034
273.107
273.187
273.282
273.395
273.533
273.703
273.911
274.161
274.458
274.8
275.184
275.598
276.023
276.431
276.787
273.034
273.105
273.184
273.276
273.386
273.52
273.685
273.884
274.124
274.407
274.732
275.093
275.479
275.872
276.245
276.569
273.052
273.163
273.29
273.444
273.637
273.883
274.2
274.606
275.124
275.779
276.6
277.621
278.883
280.438
282.353
284.67
273.049
273.152
273.269
273.411
273.588
273.813
274.101
274.467
274.931
275.513
276.234
277.117
278.183
279.449
280.911
282.493
273.045
273.141
273.25
273.38
273.542
273.746
274.005
274.333
274.744
275.255
275.879
276.628
277.51
278.517
279.615
280.712
273.042
273.131
273.232
273.352
273.5
273.685
273.918
274.21
274.573
275.018
275.554
276.186
276.909
277.706
278.536
279.322
273.04
273.123
273.217
273.328
273.464
273.632
273.843
274.105
274.426
274.816
275.278
275.811
276.408
277.047
277.689
278.273
273.038
273.116
273.205
273.309
273.435
273.591
273.784
274.021
274.311
274.657
275.062
275.521
276.025
276.552
277.067
277.524
273.036
273.112
273.197
273.296
273.416
273.563
273.743
273.965
274.232
274.548
274.914
275.325
275.768
276.223
276.66
277.043
273.035
273.11
273.193
273.29
273.406
273.549
273.723
273.936
274.192
274.494
274.841
275.227
275.641
276.061
276.461
276.808
273.055
273.17
273.303
273.464
273.667
273.926
274.26
274.688
275.233
275.923
276.786
277.856
279.172
280.779
282.727
285.031
273.051
273.158
273.281
273.43
273.616
273.853
274.155
274.541
275.03
275.643
276.402
277.33
278.445
279.761
281.264
282.866
273.047
273.147
273.261
273.398
273.567
273.782
274.055
274.4
274.834
275.372
276.029
276.818
277.743
278.795
279.934
281.062
273.044
273.137
273.242
273.368
273.523
273.718
273.963
274.271
274.653
275.123
275.688
276.353
277.113
277.95
278.817
279.632
273.041
273.128
273.226
273.342
273.485
273.662
273.884
274.159
274.499
274.909
275.397
275.959
276.588
277.26
277.933
278.545
273.039
273.121
273.213
273.322
273.455
273.619
273.821
274.072
274.377
274.742
275.169
275.654
276.185
276.74
277.282
277.762
273.038
273.116
273.205
273.309
273.435
273.589
273.779
274.012
274.293
274.627
275.014
275.447
275.915
276.394
276.855
277.258
273.037
273.114
273.201
273.302
273.425
273.574
273.758
273.982
274.252
274.57
274.936
275.344
275.78
276.224
276.646
277.011
273.057
273.176
273.314
273.481
273.692
273.962
274.309
274.754
275.322
276.038
276.933
278.037
279.387
281.022
282.979
285.257
273.053
273.164
273.291
273.446
273.639
273.885
274.2
274.602
275.111
275.748
276.536
277.495
278.643
279.989
281.511
283.115
273.049
273.152
273.27
273.412
273.588
273.812
274.096
274.455
274.907
275.466
276.149
276.967
277.922
279.004
280.167
281.308
273.046
273.141
273.251
273.381
273.542
273.745
274
274.321
274.719
275.208
275.796
276.486
277.274
278.137
279.028
279.862
273.043
273.132
273.234
273.355
273.503
273.687
273.918
274.205
274.558
274.986
275.493
276.078
276.731
277.427
278.122
278.752
273.04
273.125
273.221
273.334
273.471
273.642
273.853
274.113
274.431
274.812
275.257
275.762
276.314
276.89
277.452
277.949
273.039
273.12
273.212
273.32
273.45
273.611
273.808
274.051
274.344
274.692
275.095
275.547
276.034
276.533
277.012
277.429
273.038
273.118
273.208
273.313
273.44
273.595
273.786
274.02
274.301
274.633
275.015
275.44
275.894
276.356
276.795
277.175
273.058
273.181
273.322
273.494
273.711
273.989
274.346
274.805
275.388
276.124
277.04
278.168
279.539
281.187
283.143
285.398
273.054
273.168
273.299
273.458
273.657
273.91
274.235
274.648
275.172
275.827
276.635
277.615
278.785
280.147
281.677
283.277
273.05
273.156
273.277
273.423
273.605
273.835
274.127
274.497
274.962
275.538
276.239
277.076
278.052
279.151
280.327
281.475
273.047
273.145
273.257
273.391
273.557
273.766
274.028
274.359
274.769
275.272
275.876
276.585
277.391
278.272
279.178
280.022
273.044
273.136
273.24
273.364
273.516
273.706
273.944
274.24
274.604
275.044
275.566
276.168
276.837
277.55
278.26
278.901
273.041
273.128
273.226
273.343
273.484
273.659
273.877
274.146
274.473
274.865
275.323
275.843
276.411
277.002
277.577
278.086
273.04
273.123
273.217
273.328
273.462
273.627
273.831
274.081
274.384
274.742
275.157
275.622
276.123
276.637
277.128
277.557
273.039
273.121
273.213
273.321
273.451
273.612
273.809
274.049
274.339
274.681
275.075
275.512
275.98
276.456
276.907
277.298
273.059
273.184
273.328
273.503
273.724
274.008
274.372
274.839
275.433
276.181
277.111
278.252
279.635
281.29
283.242
285.482
273.055
273.171
273.305
273.466
273.669
273.927
274.258
274.68
275.213
275.879
276.7
277.694
278.875
280.246
281.779
283.374
273.051
273.159
273.282
273.431
273.616
273.85
274.148
274.526
274.999
275.585
276.298
277.148
278.136
279.245
280.428
281.577
273.048
273.148
273.262
273.398
273.567
273.78
274.048
274.385
274.803
275.315
275.93
276.65
277.468
278.359
279.273
280.123
273.045
273.138
273.244
273.37
273.526
273.719
273.961
274.263
274.634
275.084
275.615
276.227
276.907
277.63
278.348
278.996
273.042
273.13
273.23
273.349
273.493
273.671
273.893
274.167
274.501
274.901
275.368
275.897
276.475
277.076
277.66
278.175
273.041
273.125
273.221
273.334
273.47
273.639
273.847
274.102
274.41
274.776
275.199
275.673
276.183
276.706
277.206
277.641
273.04
273.123
273.216
273.326
273.46
273.623
273.824
274.069
274.365
274.714
275.115
275.561
276.038
276.522
276.982
277.379
273.06
273.186
273.331
273.508
273.731
274.017
274.384
274.856
275.455
276.209
277.146
278.294
279.682
281.339
283.289
285.521
273.055
273.173
273.307
273.471
273.675
273.936
274.27
274.695
275.233
275.905
276.732
277.732
278.919
280.294
281.828
283.42
273.052
273.16
273.285
273.435
273.621
273.858
274.159
274.54
275.018
275.609
276.328
277.183
278.177
279.291
280.476
281.626
273.048
273.149
273.264
273.402
273.572
273.787
274.058
274.398
274.82
275.337
275.957
276.682
277.506
278.402
279.32
280.172
273.045
273.139
273.246
273.374
273.53
273.726
273.97
274.275
274.65
275.103
275.639
276.256
276.942
277.669
278.392
279.043
273.042
273.132
273.232
273.352
273.497
273.678
273.902
274.178
274.516
274.919
275.39
275.924
276.507
277.112
277.701
278.22
273.041
273.126
273.223
273.337
273.475
273.645
273.855
274.112
274.424
274.793
275.22
275.699
276.213
276.74
277.244
277.683
273.04
273.124
273.218
273.329
273.464
273.628
273.831
274.079
274.378
274.73
275.135
275.586
276.067
276.556
277.019
277.42
273.03
273.094
273.164
273.245
273.341
273.458
273.599
273.77
273.974
274.214
274.487
274.79
275.113
275.439
275.749
276.017
273.029
273.088
273.154
273.229
273.319
273.426
273.556
273.712
273.897
274.114
274.361
274.633
274.922
275.214
275.489
275.727
273.027
273.083
273.144
273.214
273.297
273.396
273.514
273.656
273.823
274.018
274.239
274.482
274.739
274.996
275.238
275.447
273.025
273.078
273.135
273.201
273.277
273.368
273.476
273.605
273.756
273.931
274.129
274.345
274.571
274.798
275.01
275.191
273.024
273.074
273.128
273.189
273.261
273.344
273.444
273.561
273.699
273.857
274.034
274.226
274.428
274.627
274.814
274.973
273.023
273.071
273.122
273.18
273.247
273.326
273.418
273.527
273.653
273.798
273.959
274.133
274.314
274.493
274.66
274.801
273.022
273.068
273.118
273.174
273.238
273.313
273.401
273.503
273.622
273.757
273.908
274.069
274.236
274.401
274.554
274.683
273.022
273.067
273.116
273.171
273.234
273.307
273.392
273.491
273.606
273.737
273.882
274.037
274.197
274.355
274.5
274.623
273.031
273.095
273.167
273.25
273.349
273.469
273.615
273.792
274.005
274.256
274.544
274.865
275.209
275.561
275.898
276.191
273.029
273.09
273.157
273.234
273.326
273.436
273.57
273.732
273.925
274.151
274.411
274.699
275.007
275.319
275.617
275.876
273.027
273.084
273.147
273.219
273.303
273.405
273.527
273.674
273.848
274.052
274.283
274.539
274.811
275.086
275.347
275.572
273.026
273.079
273.138
273.205
273.283
273.376
273.488
273.621
273.778
273.96
274.167
274.394
274.633
274.874
275.1
275.295
273.024
273.075
273.13
273.193
273.266
273.352
273.454
273.575
273.718
273.882
274.067
274.269
274.48
274.692
274.89
275.059
273.023
273.072
273.124
273.184
273.252
273.333
273.428
273.54
273.671
273.821
273.988
274.171
274.36
274.549
274.724
274.874
273.023
273.069
273.12
273.177
273.243
273.319
273.41
273.515
273.638
273.778
273.935
274.103
274.278
274.451
274.611
274.747
273.022
273.068
273.118
273.174
273.238
273.313
273.401
273.503
273.622
273.757
273.908
274.069
274.236
274.401
274.554
274.683
273.032
273.099
273.173
273.26
273.364
273.491
273.647
273.837
274.067
274.34
274.657
275.015
275.404
275.808
276.2
276.547
273.03
273.093
273.163
273.243
273.34
273.456
273.599
273.772
273.98
274.227
274.511
274.831
275.176
275.533
275.877
276.179
273.028
273.087
273.152
273.227
273.316
273.423
273.553
273.71
273.897
274.118
274.371
274.654
274.957
275.267
275.565
275.825
273.027
273.082
273.143
273.213
273.295
273.393
273.511
273.653
273.822
274.019
274.243
274.492
274.757
275.026
275.282
275.503
273.025
273.077
273.135
273.2
273.276
273.367
273.475
273.604
273.757
273.933
274.134
274.354
274.586
274.82
275.041
275.231
273.024
273.074
273.129
273.19
273.262
273.346
273.447
273.566
273.706
273.866
274.048
274.245
274.452
274.659
274.853
275.019
273.023
273.072
273.124
273.184
273.252
273.333
273.428
273.54
273.671
273.821
273.988
274.17
274.36
274.549
274.724
274.874
273.023
273.071
273.122
273.18
273.247
273.326
273.418
273.527
273.653
273.798
273.959
274.133
274.314
274.493
274.66
274.801
273.034
273.104
273.183
273.276
273.387
273.524
273.694
273.903
274.158
274.464
274.824
275.236
275.693
276.178
276.66
277.097
273.032
273.098
273.171
273.257
273.36
273.486
273.641
273.831
274.062
274.337
274.659
275.025
275.428
275.851
276.268
276.642
273.03
273.092
273.16
273.24
273.335
273.45
273.591
273.762
273.969
274.215
274.5
274.822
275.172
275.536
275.891
276.206
273.028
273.086
273.15
273.224
273.312
273.417
273.545
273.7
273.885
274.104
274.355
274.636
274.939
275.251
275.551
275.814
273.026
273.081
273.142
273.211
273.292
273.389
273.506
273.646
273.813
274.008
274.231
274.478
274.741
275.009
275.263
275.485
273.025
273.077
273.135
273.2
273.276
273.367
273.475
273.604
273.757
273.933
274.134
274.354
274.586
274.82
275.041
275.231
273.024
273.075
273.13
273.193
273.266
273.352
273.454
273.575
273.718
273.882
274.067
274.269
274.48
274.692
274.889
275.059
273.024
273.074
273.128
273.189
273.261
273.344
273.444
273.561
273.698
273.857
274.034
274.226
274.427
274.627
274.814
274.973
273.036
273.111
273.195
273.295
273.416
273.566
273.753
273.986
274.273
274.621
275.037
275.521
276.07
276.668
277.282
277.857
273.034
273.104
273.183
273.275
273.387
273.525
273.695
273.906
274.165
274.477
274.847
275.275
275.754
276.269
276.791
277.27
273.031
273.097
273.171
273.256
273.359
273.485
273.639
273.83
274.061
274.338
274.664
275.037
275.45
275.886
276.321
276.713
273.03
273.091
273.16
273.239
273.333
273.448
273.589
273.76
273.966
274.212
274.498
274.821
275.174
275.541
275.901
276.221
273.028
273.086
273.15
273.224
273.312
273.417
273.545
273.7
273.885
274.104
274.355
274.636
274.939
275.251
275.551
275.814
273.027
273.082
273.143
273.213
273.295
273.393
273.511
273.653
273.821
274.018
274.243
274.492
274.757
275.026
275.281
275.503
273.026
273.079
273.138
273.205
273.283
273.376
273.487
273.621
273.778
273.96