/*--------------------------------*- C++ -*----------------------------------*\
| =========                 |                                                 |
| \\      /  F ield         | OpenFOAM: The Open Source CFD Toolbox           |
|  \\    /   O peration     | Version:  v1912                                 |
|   \\  /    A nd           | Website:  www.openfoam.com                      |
|    \\/     M anipulation  |                                                 |
\*---------------------------------------------------------------------------*/
FoamFile
{
    version     2.0;
    format      ascii;
    class       volVectorField;
    location    "0.37/fluid";
    object      cellMotionU;
}
// * * * * * * * * * * * * * * * * * * * * * * * * * * * * * * * * * * * * * //

dimensions      [0 1 -1 0 0 0 0];


internalField   nonuniform List<vector> 
14592
(
(1.85362e-10 -4.48393e-10 3.37751e-10)
(5.16504e-10 -1.25373e-09 9.55435e-10)
(8.20319e-10 -2.00281e-09 1.56233e-09)
(1.10623e-09 -2.72236e-09 2.19648e-09)
(1.38446e-09 -3.43371e-09 2.89643e-09)
(1.66356e-09 -4.1441e-09 3.69416e-09)
(1.95351e-09 -4.85058e-09 4.62182e-09)
(2.26665e-09 -5.53497e-09 5.71011e-09)
(2.62211e-09 -6.15523e-09 6.98894e-09)
(3.05415e-09 -6.62962e-09 8.48767e-09)
(3.63681e-09 -6.8042e-09 1.02435e-08)
(4.5431e-09 -6.36754e-09 1.23223e-08)
(6.19417e-09 -4.61782e-09 1.49101e-08)
(9.71496e-09 2.61646e-10 1.86238e-08)
(1.77984e-08 1.2973e-08 2.52074e-08)
(3.29846e-08 3.93244e-08 3.61906e-08)
(5.52304e-10 -1.33128e-09 1.00409e-09)
(1.5394e-09 -3.72319e-09 2.8411e-09)
(2.44346e-09 -5.94872e-09 4.64278e-09)
(3.29563e-09 -8.09215e-09 6.52934e-09)
(4.12276e-09 -1.02088e-08 8.60478e-09)
(4.95193e-09 -1.23285e-08 1.09692e-08)
(5.81164e-09 -1.44475e-08 1.37167e-08)
(6.73657e-09 -1.65184e-08 1.69368e-08)
(7.77611e-09 -1.84302e-08 2.07133e-08)
(9.0151e-09 -1.99719e-08 2.51239e-08)
(1.06204e-08 -2.0765e-08 3.024e-08)
(1.29279e-08 -2.01436e-08 3.6134e-08)
(1.66977e-08 -1.69112e-08 4.29587e-08)
(2.34072e-08 -9.03918e-09 5.10882e-08)
(3.54175e-08 6.16205e-09 6.12195e-08)
(5.19955e-08 2.65498e-08 7.22761e-08)
(9.09102e-10 -2.17433e-09 1.64564e-09)
(2.53343e-09 -6.08256e-09 4.65503e-09)
(4.02119e-09 -9.72555e-09 7.60676e-09)
(5.4219e-09 -1.32379e-08 1.06912e-08)
(6.78119e-09 -1.67199e-08 1.40832e-08)
(8.14272e-09 -2.02276e-08 1.7944e-08)
(9.55212e-09 -2.37686e-08 2.24274e-08)
(1.1062e-08 -2.72888e-08 2.76796e-08)
(1.27412e-08 -3.06476e-08 3.38372e-08)
(1.46932e-08 -3.35768e-08 4.1019e-08)
(1.70934e-08 -3.56182e-08 4.93112e-08)
(2.02684e-08 -3.60408e-08 5.87471e-08)
(2.48573e-08 -3.37683e-08 6.93071e-08)
(3.20215e-08 -2.75617e-08 8.10013e-08)
(4.34553e-08 -1.70177e-08 9.3954e-08)
(5.8315e-08 -6.10907e-09 1.06956e-07)
(1.24908e-09 -2.95044e-09 2.24672e-09)
(3.48005e-09 -8.25754e-09 6.35372e-09)
(5.52264e-09 -1.32124e-08 1.03781e-08)
(7.44472e-09 -1.80057e-08 1.45793e-08)
(9.30807e-09 -2.27791e-08 1.91907e-08)
(1.11729e-08 -2.76255e-08 2.44324e-08)
(1.31011e-08 -3.25798e-08 3.05136e-08)
(1.51608e-08 -3.76081e-08 3.76348e-08)
(1.7433e-08 -4.25852e-08 4.59847e-08)
(2.00225e-08 -4.72583e-08 5.5728e-08)
(2.30678e-08 -5.11975e-08 6.69717e-08)
(2.67732e-08 -5.37362e-08 7.9714e-08)
(3.14877e-08 -5.39604e-08 9.37965e-08)
(3.7765e-08 -5.09062e-08 1.08821e-07)
(4.64958e-08 -4.43266e-08 1.24124e-07)
(5.72254e-08 -3.68244e-08 1.37544e-07)
(1.56569e-09 -3.63316e-09 2.79356e-09)
(4.36183e-09 -1.01733e-08 7.89875e-09)
(6.91996e-09 -1.62924e-08 1.28947e-08)
(9.32413e-09 -2.22317e-08 1.80984e-08)
(1.16523e-08 -2.81814e-08 2.37984e-08)
(1.39797e-08 -3.42757e-08 3.02637e-08)
(1.63842e-08 -4.05903e-08 3.77523e-08)
(1.89509e-08 -4.71357e-08 4.65152e-08)
(2.17764e-08 -5.38414e-08 5.67938e-08)
(2.49728e-08 -6.05302e-08 6.88084e-08)
(2.86541e-08 -6.68779e-08 8.27161e-08)
(3.29485e-08 -7.2349e-08 9.85695e-08)
(3.79519e-08 -7.61032e-08 1.16172e-07)
(4.37166e-08 -7.6943e-08 1.34928e-07)
(5.03909e-08 -7.349e-08 1.53483e-07)
(5.7768e-08 -6.63485e-08 1.68338e-07)
(1.85364e-09 -4.19742e-09 3.27603e-09)
(5.16277e-09 -1.17583e-08 9.25919e-09)
(8.18688e-09 -1.8848e-08 1.51035e-08)
(1.10245e-08 -2.57583e-08 2.11755e-08)
(1.37663e-08 -3.27221e-08 2.78044e-08)
(1.6502e-08 -3.99193e-08 3.52998e-08)
(1.93252e-08 -4.74747e-08 4.39595e-08)
(2.23402e-08 -5.54583e-08 5.40757e-08)
(2.56684e-08 -6.38812e-08 6.5939e-08)
(2.94519e-08 -7.26848e-08 7.98304e-08)
(3.3849e-08 -8.17205e-08 9.60004e-08)
(3.9033e-08 -9.06847e-08 1.14628e-07)
(4.51463e-08 -9.89738e-08 1.35734e-07)
(5.21766e-08 -1.05295e-07 1.58938e-07)
(5.98036e-08 -1.06886e-07 1.82774e-07)
(6.66617e-08 -1.00602e-07 2.02028e-07)
(2.10793e-09 -4.61882e-09 3.68585e-09)
(5.86931e-09 -1.29454e-08 1.04125e-08)
(9.30152e-09 -2.07723e-08 1.69683e-08)
(1.25135e-08 -2.84319e-08 2.37545e-08)
(1.56068e-08 -3.61984e-08 3.11322e-08)
(1.86821e-08 -4.42934e-08 3.94377e-08)
(2.18464e-08 -5.289e-08 4.89947e-08)
(2.52228e-08 -6.21201e-08 6.0123e-08)
(2.89611e-08 -7.20826e-08 7.31472e-08)
(3.32511e-08 -8.28535e-08 8.8399e-08)
(3.83484e-08 -9.44977e-08 1.06223e-07)
(4.4612e-08 -1.07073e-07 1.26981e-07)
(5.25811e-08 -1.206e-07 1.51083e-07)
(6.30035e-08 -1.34828e-07 1.78891e-07)
(7.66493e-08 -1.48305e-07 2.10068e-07)
(9.12452e-08 -1.56077e-07 2.38678e-07)
(2.3249e-09 -4.87722e-09 4.01856e-09)
(6.47087e-09 -1.36775e-08 1.13459e-08)
(1.02466e-08 -2.19706e-08 1.84673e-08)
(1.37676e-08 -3.01213e-08 2.58077e-08)
(1.71412e-08 -3.8434e-08 3.37436e-08)
(2.04745e-08 -4.71635e-08 4.26251e-08)
(2.38825e-08 -5.65223e-08 5.27852e-08)
(2.7499e-08 -6.66922e-08 6.45508e-08)
(3.14929e-08 -7.78411e-08 7.82541e-08)
(3.60886e-08 -9.01475e-08 9.42407e-08)
(4.16147e-08 -1.0384e-07 1.12892e-07)
(4.85948e-08 -1.19275e-07 1.34678e-07)
(5.79502e-08 -1.37093e-07 1.60284e-07)
(7.14047e-08 -1.58523e-07 1.90842e-07)
(9.21394e-08 -1.85655e-07 2.28065e-07)
(1.20428e-07 -2.16963e-07 2.68402e-07)
(1.83222e-10 -4.57118e-10 3.20934e-10)
(5.10173e-10 -1.27827e-09 9.07884e-10)
(8.08173e-10 -2.0423e-09 1.48271e-09)
(1.08648e-09 -2.7773e-09 2.08303e-09)
(1.35273e-09 -3.50364e-09 2.74196e-09)
(1.61377e-09 -4.23122e-09 3.4901e-09)
(1.87586e-09 -4.95882e-09 4.35571e-09)
(2.14551e-09 -5.67138e-09 5.36464e-09)
(2.43173e-09 -6.33246e-09 6.53867e-09)
(2.75108e-09 -6.87513e-09 7.89538e-09)
(3.14191e-09 -7.17464e-09 9.44235e-09)
(3.69489e-09 -7.00156e-09 1.11767e-08)
(4.63765e-09 -5.88487e-09 1.30991e-08)
(6.45274e-09 -2.79637e-09 1.52289e-08)
(9.94487e-09 4.3395e-09 1.75408e-08)
(1.4616e-08 1.63033e-08 1.88934e-08)
(5.46215e-10 -1.35692e-09 9.54261e-10)
(1.52051e-09 -3.79493e-09 2.6982e-09)
(2.40875e-09 -6.06464e-09 4.40661e-09)
(3.23781e-09 -8.25062e-09 6.18911e-09)
(4.03084e-09 -1.04128e-08 8.14415e-09)
(4.80815e-09 -1.25837e-08 1.03622e-08)
(5.58796e-09 -1.47642e-08 1.29264e-08)
(6.38837e-09 -1.69148e-08 1.59117e-08)
(7.23129e-09 -1.89419e-08 1.93821e-08)
(8.15288e-09 -2.06662e-08 2.33784e-08)
(9.2263e-09 -2.17859e-08 2.79021e-08)
(1.06248e-08 -2.17983e-08 3.28827e-08)
(1.26917e-08 -1.99269e-08 3.81025e-08)
(1.60266e-08 -1.51189e-08 4.3073e-08)
(2.10231e-08 -6.79543e-09 4.65759e-08)
(2.57076e-08 1.75198e-09 4.63525e-08)
(8.99571e-10 -2.21564e-09 1.5636e-09)
(2.50412e-09 -6.19832e-09 4.4206e-09)
(3.96693e-09 -9.91112e-09 7.21792e-09)
(5.33236e-09 -1.3494e-08 1.0134e-08)
(6.63907e-09 -1.70497e-08 1.33298e-08)
(7.92082e-09 -2.06393e-08 1.69524e-08)
(9.20777e-09 -2.42766e-08 2.11377e-08)
(1.05279e-08 -2.79186e-08 2.60101e-08)
(1.19093e-08 -3.14445e-08 3.16734e-08)
(1.33856e-08 -3.46293e-08 3.81963e-08)
(1.50099e-08 -3.71013e-08 4.55722e-08)
(1.68864e-08 -3.83191e-08 5.36564e-08)
(1.9215e-08 -3.76204e-08 6.20507e-08)
(2.22745e-08 -3.45853e-08 6.9907e-08)
(2.60433e-08 -3.01379e-08 7.56067e-08)
(2.88573e-08 -2.80267e-08 7.69653e-08)
(1.23696e-09 -3.0059e-09 2.13432e-09)
(3.44345e-09 -8.41243e-09 6.03381e-09)
(5.45472e-09 -1.34615e-08 9.84779e-09)
(7.33245e-09 -1.83483e-08 1.38193e-08)
(9.13032e-09 -2.32203e-08 1.81649e-08)
(1.08961e-08 -2.81746e-08 2.30841e-08)
(1.2673e-08 -3.32525e-08 2.87627e-08)
(1.44997e-08 -3.84299e-08 3.53718e-08)
(1.64098e-08 -4.36012e-08 4.30601e-08)
(1.84244e-08 -4.85505e-08 5.19275e-08)
(2.05457e-08 -5.29267e-08 6.1981e-08)
(2.27459e-08 -5.62279e-08 7.30452e-08)
(2.49109e-08 -5.78881e-08 8.45885e-08)
(2.67846e-08 -5.76238e-08 9.54785e-08)
(2.77951e-08 -5.62802e-08 1.03584e-07)
(2.70616e-08 -5.63779e-08 1.06077e-07)
(1.55251e-09 -3.70091e-09 2.65425e-09)
(4.32149e-09 -1.03622e-08 7.50125e-09)
(6.84498e-09 -1.65954e-08 1.22364e-08)
(9.20043e-09 -2.26496e-08 1.71572e-08)
(1.14564e-08 -2.87184e-08 2.25293e-08)
(1.36752e-08 -3.49408e-08 2.85977e-08)
(1.59151e-08 -4.13978e-08 3.55924e-08)
(1.82305e-08 -4.81069e-08 4.37289e-08)
(2.06679e-08 -5.50093e-08 5.31995e-08)
(2.32522e-08 -6.19529e-08 6.41504e-08)
(2.59691e-08 -6.86621e-08 7.66385e-08)
(2.86812e-08 -7.47122e-08 9.05026e-08)
(3.10405e-08 -7.95129e-08 1.05219e-07)
(3.22598e-08 -8.24214e-08 1.19483e-07)
(3.10798e-08 -8.3222e-08 1.30657e-07)
(2.70582e-08 -8.32847e-08 1.34864e-07)
(1.84057e-09 -4.27488e-09 3.11306e-09)
(5.12257e-09 -1.19746e-08 8.79425e-09)
(8.11192e-09 -1.91955e-08 1.43347e-08)
(1.09001e-08 -2.6236e-08 2.00767e-08)
(1.35693e-08 -3.33348e-08 2.63251e-08)
(1.61963e-08 -4.0675e-08 3.33616e-08)
(1.88563e-08 -4.83844e-08 4.14516e-08)
(2.16248e-08 -5.65351e-08 5.08473e-08)
(2.45757e-08 -6.51416e-08 6.17828e-08)
(2.77733e-08 -7.41509e-08 7.44575e-08)
(3.12449e-08 -8.34278e-08 8.8992e-08)
(3.49231e-08 -9.27038e-08 1.05344e-07)
(3.84715e-08 -1.01474e-07 1.2311e-07)
(4.09605e-08 -1.08751e-07 1.41097e-07)
(4.04248e-08 -1.12768e-07 1.5646e-07)
(3.50634e-08 -1.12074e-07 1.64068e-07)
(2.09614e-09 -4.70362e-09 3.50303e-09)
(5.83266e-09 -1.3182e-08 9.89136e-09)
(9.23251e-09 -2.11519e-08 1.61071e-08)
(1.23984e-08 -2.89538e-08 2.2526e-08)
(1.54238e-08 -3.68667e-08 2.94812e-08)
(1.83982e-08 -4.51146e-08 3.72793e-08)
(2.14128e-08 -5.38712e-08 4.62096e-08)
(2.45659e-08 -6.32663e-08 5.65481e-08)
(2.79669e-08 -7.33926e-08 6.85571e-08)
(3.17422e-08 -8.43145e-08 8.2479e-08)
(3.60329e-08 -9.60749e-08 9.85048e-08)
(4.09864e-08 -1.0869e-07 1.16723e-07)
(4.66806e-08 -1.22098e-07 1.36966e-07)
(5.28964e-08 -1.35916e-07 1.58402e-07)
(5.83697e-08 -1.48661e-07 1.78399e-07)
(5.9624e-08 -1.56262e-07 1.90478e-07)
(2.3152e-09 -4.96636e-09 3.81987e-09)
(6.44043e-09 -1.39261e-08 1.078e-08)
(1.01883e-08 -2.23698e-08 1.75336e-08)
(1.3669e-08 -3.06697e-08 2.44774e-08)
(1.69832e-08 -3.91352e-08 3.19601e-08)
(2.02288e-08 -4.80229e-08 4.03008e-08)
(2.35081e-08 -5.75439e-08 4.97971e-08)
(2.69357e-08 -6.78741e-08 6.07311e-08)
(3.06493e-08 -7.91686e-08 7.33711e-08)
(3.48255e-08 -9.15817e-08 8.79704e-08)
(3.97066e-08 -1.05296e-07 1.04748e-07)
(4.56469e-08 -1.20572e-07 1.23862e-07)
(5.31871e-08 -1.37833e-07 1.45317e-07)
(6.31663e-08 -1.57771e-07 1.68662e-07)
(7.64985e-08 -1.81042e-07 1.91843e-07)
(9.10283e-08 -2.04269e-07 2.07833e-07)
(1.80344e-10 -4.64495e-10 2.92542e-10)
(5.01413e-10 -1.29896e-09 8.26992e-10)
(7.9238e-10 -2.07561e-09 1.35007e-09)
(1.06063e-09 -2.82314e-09 1.89434e-09)
(1.31219e-09 -3.56267e-09 2.48982e-09)
(1.55103e-09 -4.30528e-09 3.1627e-09)
(1.77893e-09 -5.05241e-09 3.93653e-09)
(1.99544e-09 -5.79175e-09 4.8304e-09)
(2.19711e-09 -6.49764e-09 5.85892e-09)
(2.37889e-09 -7.11804e-09 7.02406e-09)
(2.53599e-09 -7.57156e-09 8.3088e-09)
(2.6725e-09 -7.72098e-09 9.65641e-09)
(2.79163e-09 -7.34503e-09 1.09286e-08)
(2.86572e-09 -6.05574e-09 1.18402e-08)
(2.5761e-09 -3.27099e-09 1.17207e-08)
(1.0023e-09 8.49391e-10 9.41598e-09)
(5.37751e-10 -1.37857e-09 8.69575e-10)
(1.49522e-09 -3.85559e-09 2.45816e-09)
(2.3626e-09 -6.16212e-09 4.01143e-09)
(3.1628e-09 -8.38463e-09 5.62814e-09)
(3.91342e-09 -1.05853e-08 7.39515e-09)
(4.62665e-09 -1.28002e-08 9.39044e-09)
(5.30828e-09 -1.50351e-08 1.16825e-08)
(5.95646e-09 -1.72623e-08 1.43296e-08)
(6.5596e-09 -1.9407e-08 1.737e-08)
(7.09543e-09 -2.13382e-08 2.08093e-08)
(7.53378e-09 -2.28436e-08 2.45848e-08)
(7.83324e-09 -2.36276e-08 2.84973e-08)
(7.94762e-09 -2.33276e-08 3.21072e-08)
(7.71533e-09 -2.16804e-08 3.4476e-08)
(6.61922e-09 -1.90333e-08 3.38942e-08)
(3.9817e-09 -1.72897e-08 2.90765e-08)
(8.86276e-10 -2.25054e-09 1.4248e-09)
(2.46445e-09 -6.29582e-09 4.02734e-09)
(3.89467e-09 -1.0068e-08 6.57075e-09)
(5.21514e-09 -1.37094e-08 9.216e-09)
(6.4559e-09 -1.73263e-08 1.21047e-08)
(7.63833e-09 -2.09839e-08 1.53637e-08)
(8.77395e-09 -2.47034e-08 1.91063e-08)
(9.86096e-09 -2.84536e-08 2.34277e-08)
(1.08793e-08 -3.21424e-08 2.8396e-08)
(1.17809e-08 -3.55952e-08 3.40228e-08)
(1.24789e-08 -3.8552e-08 4.02174e-08)
(1.28294e-08 -4.06857e-08 4.66898e-08)
(1.25964e-08 -4.17313e-08 5.28e-08)
(1.13861e-08 -4.18458e-08 5.73377e-08)
(8.61779e-09 -4.22242e-08 5.84272e-08)
(4.42156e-09 -4.46491e-08 5.51553e-08)
(1.22011e-09 -3.05246e-09 1.9454e-09)
(3.39276e-09 -8.54305e-09 5.49681e-09)
(5.3627e-09 -1.36707e-08 8.96567e-09)
(7.18338e-09 -1.86351e-08 1.25687e-08)
(8.89781e-09 -2.35869e-08 1.64971e-08)
(1.05387e-08 -2.86273e-08 2.09233e-08)
(1.21263e-08 -3.38033e-08 2.60018e-08)
(1.36645e-08 -3.9103e-08 3.18671e-08)
(1.51291e-08 -4.44414e-08 3.86165e-08)
(1.6451e-08 -4.96501e-08 4.62846e-08)
(1.74801e-08 -5.44687e-08 5.4776e-08)
(1.79262e-08 -5.8576e-08 6.37556e-08)
(1.7281e-08 -6.17222e-08 7.25014e-08)
(1.47208e-08 -6.40697e-08 7.96391e-08)
(9.36333e-09 -6.6649e-08 8.3109e-08)
(2.20384e-09 -7.04662e-08 8.16447e-08)
(1.53338e-09 -3.75761e-09 2.41939e-09)
(4.2641e-09 -1.05205e-08 6.83481e-09)
(6.74086e-09 -1.68491e-08 1.1142e-08)
(9.03183e-09 -2.29961e-08 1.56067e-08)
(1.1194e-08 -2.91587e-08 2.04638e-08)
(1.32731e-08 -3.54784e-08 2.59246e-08)
(1.53034e-08 -4.20396e-08 3.21818e-08)
(1.73014e-08 -4.88647e-08 3.9404e-08)
(1.92553e-08 -5.59075e-08 4.77241e-08)
(2.10981e-08 -6.30392e-08 5.72069e-08)
(2.2651e-08 -7.00394e-08 6.7773e-08)
(2.35462e-08 -7.65908e-08 7.91227e-08)
(2.30262e-08 -8.23182e-08 9.04839e-08)
(1.98026e-08 -8.69369e-08 1.00407e-07)
(1.23805e-08 -9.0576e-08 1.0657e-07)
(2.16965e-09 -9.37986e-08 1.07042e-07)
(1.82059e-09 -4.33951e-09 2.8378e-09)
(5.06287e-09 -1.21551e-08 8.01439e-09)
(8.00342e-09 -1.9484e-08 1.30548e-08)
(1.07246e-08 -2.66289e-08 1.82655e-08)
(1.32966e-08 -3.38309e-08 2.39155e-08)
(1.57801e-08 -4.12739e-08 3.02484e-08)
(1.82263e-08 -4.90848e-08 3.74865e-08)
(2.06749e-08 -5.73339e-08 4.58287e-08)
(2.31431e-08 -6.60316e-08 5.5438e-08)
(2.56046e-08 -7.51231e-08 6.64114e-08)
(2.79404e-08 -8.44721e-08 7.87204e-08)
(2.98336e-08 -9.3825e-08 9.2094e-08)
(3.05514e-08 -1.02728e-07 1.05818e-07)
(2.86176e-08 -1.10355e-07 1.18401e-07)
(2.17764e-08 -1.15303e-07 1.27292e-07)
(1.01526e-08 -1.16232e-07 1.29901e-07)
(2.07679e-09 -4.77396e-09 3.19408e-09)
(5.77452e-09 -1.33783e-08 9.01579e-09)
(9.12686e-09 -2.14652e-08 1.46717e-08)
(1.22274e-08 -2.93793e-08 2.04977e-08)
(1.51585e-08 -3.74008e-08 2.67878e-08)
(1.79946e-08 -4.57528e-08 3.38077e-08)
(2.08054e-08 -5.46041e-08 4.17997e-08)
(2.36562e-08 -6.40743e-08 5.09811e-08)
(2.66071e-08 -7.42384e-08 6.1536e-08)
(2.9701e-08 -8.51304e-08 7.35858e-08)
(3.29446e-08 -9.67399e-08 8.71398e-08)
(3.6245e-08 -1.08989e-07 1.01976e-07)
(3.92673e-08 -1.21652e-07 1.17429e-07)
(4.115e-08 -1.34098e-07 1.31959e-07)
(4.01188e-08 -1.44656e-07 1.42612e-07)
(3.46198e-08 -1.49876e-07 1.45828e-07)
(2.29748e-09 -5.03998e-09 3.48361e-09)
(6.38722e-09 -1.41315e-08 9.82776e-09)
(1.00912e-08 -2.26973e-08 1.59743e-08)
(1.35116e-08 -3.11132e-08 2.22777e-08)
(1.67391e-08 -3.96897e-08 2.90466e-08)
(1.98586e-08 -4.86804e-08 3.65572e-08)
(2.29538e-08 -5.82881e-08 4.50591e-08)
(2.61119e-08 -6.86728e-08 5.47741e-08)
(2.94281e-08 -7.99616e-08 6.58892e-08)
(3.30099e-08 -9.22578e-08 7.85303e-08)
(3.69817e-08 -1.05654e-07 9.27136e-08)
(4.14832e-08 -1.20241e-07 1.08238e-07)
(4.66546e-08 -1.36111e-07 1.24459e-07)
(5.26175e-08 -1.5332e-07 1.39779e-07)
(5.93816e-08 -1.71537e-07 1.5072e-07)
(6.59797e-08 -1.8762e-07 1.52158e-07)
(1.77071e-10 -4.70449e-10 2.53796e-10)
(4.91714e-10 -1.31561e-09 7.17339e-10)
(7.74703e-10 -2.10233e-09 1.16977e-09)
(1.03234e-09 -2.85983e-09 1.64028e-09)
(1.2683e-09 -3.61006e-09 2.15286e-09)
(1.48385e-09 -4.36515e-09 2.72941e-09)
(1.67656e-09 -5.12793e-09 3.38786e-09)
(1.83939e-09 -5.8909e-09 4.14213e-09)
(1.95852e-09 -6.63442e-09 4.99919e-09)
(2.0113e-09 -7.32325e-09 5.95297e-09)
(1.96259e-09 -7.90573e-09 6.97482e-09)
(1.759e-09 -8.30937e-09 7.99366e-09)
(1.31267e-09 -8.43932e-09 8.88292e-09)
(4.17188e-10 -8.15648e-09 9.41756e-09)
(-1.40927e-09 -7.21313e-09 9.31982e-09)
(-4.57407e-09 -5.36052e-09 8.46362e-09)
(5.2825e-10 -1.39606e-09 7.54484e-10)
(1.46677e-09 -3.90447e-09 2.13169e-09)
(2.31141e-09 -6.24061e-09 3.47689e-09)
(3.08039e-09 -8.49249e-09 4.87325e-09)
(3.78581e-09 -1.0724e-08 6.39448e-09)
(4.43162e-09 -1.29739e-08 8.10374e-09)
(5.01176e-09 -1.5253e-08 1.00546e-08)
(5.50598e-09 -1.75426e-08 1.2288e-08)
(5.87428e-09 -1.97879e-08 1.48231e-08)
(6.04811e-09 -2.18942e-08 1.76413e-08)
(5.92042e-09 -2.37224e-08 2.06508e-08)
(5.33988e-09 -2.51059e-08 2.36453e-08)
(4.08559e-09 -2.58957e-08 2.62069e-08)
(1.87444e-09 -2.60512e-08 2.76621e-08)
(-1.50455e-09 -2.57535e-08 2.71546e-08)
(-5.15702e-09 -2.53831e-08 2.48277e-08)
(8.7132e-10 -2.27863e-09 1.23638e-09)
(2.41967e-09 -6.37478e-09 3.49275e-09)
(3.81408e-09 -1.01943e-08 5.69543e-09)
(5.0857e-09 -1.38823e-08 7.98075e-09)
(6.2557e-09 -1.75471e-08 1.04676e-08)
(7.33315e-09 -2.12574e-08 1.32596e-08)
(8.3115e-09 -2.50397e-08 1.64451e-08)
(9.16214e-09 -2.88753e-08 2.00925e-08)
(9.82356e-09 -3.26932e-08 2.42375e-08)
(1.01844e-08 -3.63638e-08 2.88562e-08)
(1.00631e-08 -3.97069e-08 3.38194e-08)
(9.18599e-09 -4.25305e-08 3.88255e-08)
(7.18211e-09 -4.4751e-08 4.33172e-08)
(3.67113e-09 -4.66204e-08 4.64502e-08)
(-1.28482e-09 -4.89189e-08 4.73894e-08)
(-5.83268e-09 -5.20496e-08 4.66002e-08)
(1.20076e-09 -3.0902e-09 1.68779e-09)
(3.3353e-09 -8.6483e-09 4.76852e-09)
(5.25925e-09 -1.38392e-08 7.7726e-09)
(7.01733e-09 -1.88643e-08 1.08856e-08)
(8.64154e-09 -2.38767e-08 1.42677e-08)
(1.01493e-08 -2.89803e-08 1.80597e-08)
(1.1539e-08 -3.42267e-08 2.23831e-08)
(1.27823e-08 -3.9612e-08 2.73343e-08)
(1.38076e-08 -4.50695e-08 3.29691e-08)
(1.44746e-08 -5.04642e-08 3.92696e-08)
(1.45358e-08 -5.55982e-08 4.60942e-08)
(1.35918e-08 -6.02527e-08 5.31108e-08)
(1.10399e-08 -6.4301e-08 5.9682e-08)
(6.21125e-09 -6.79437e-08 6.49254e-08)
(-9.50339e-10 -7.18597e-08 6.79833e-08)
(-7.80568e-09 -7.61037e-08 6.90352e-08)
(1.5112e-09 -3.80319e-09 2.09968e-09)
(4.19816e-09 -1.06481e-08 5.93005e-09)
(6.62215e-09 -1.70522e-08 9.66099e-09)
(8.84166e-09 -2.32707e-08 1.35191e-08)
(1.09012e-08 -2.95022e-08 1.7701e-08)
(1.28299e-08 -3.5889e-08 2.23797e-08)
(1.46383e-08 -4.25164e-08 2.77067e-08)
(1.63093e-08 -4.94089e-08 3.38047e-08)
(1.7781e-08 -5.65252e-08 4.07508e-08)
(1.89143e-08 -6.37496e-08 4.85415e-08)
(1.94475e-08 -7.08876e-08 5.70548e-08)
(1.88957e-08 -7.7665e-08 6.59194e-08)
(1.647e-08 -8.37622e-08 7.45117e-08)
(1.10967e-08 -8.89017e-08 8.18863e-08)
(2.19713e-09 -9.30028e-08 8.7098e-08)
(-7.25347e-09 -9.60612e-08 8.99133e-08)
(1.79713e-09 -4.39134e-09 2.46355e-09)
(4.99282e-09 -1.22997e-08 6.9547e-09)
(7.87754e-09 -1.97137e-08 1.13217e-08)
(1.05231e-08 -2.69374e-08 1.58249e-08)
(1.29872e-08 -3.42124e-08 2.069e-08)
(1.53137e-08 -4.17211e-08 2.61166e-08)
(1.75305e-08 -4.95862e-08 3.22797e-08)
(1.96436e-08 -5.78713e-08 3.93234e-08)
(2.16225e-08 -6.65764e-08 4.73435e-08)
(2.33744e-08 -7.56315e-08 5.63573e-08)
(2.46928e-08 -8.48785e-08 6.62427e-08)
(2.51657e-08 -9.40317e-08 7.66528e-08)
(2.40208e-08 -1.0259e-07 8.69122e-08)
(2.00117e-08 -1.09661e-07 9.60028e-08)
(1.18372e-08 -1.13744e-07 1.02822e-07)
(1.26147e-09 -1.13464e-07 1.06899e-07)
(2.0533e-09 -4.83011e-09 2.77314e-09)
(5.70461e-09 -1.35348e-08 7.82516e-09)
(9.00114e-09 -2.17128e-08 1.27262e-08)
(1.20265e-08 -2.971e-08 1.7762e-08)
(1.48509e-08 -3.78057e-08 2.31792e-08)
(1.75329e-08 -4.62187e-08 2.91959e-08)
(2.01204e-08 -5.5109e-08 3.60025e-08)
(2.2648e-08 -6.45807e-08 4.37561e-08)
(2.51309e-08 -7.46831e-08 5.25639e-08)
(2.75521e-08 -8.54077e-08 6.24532e-08)
(2.98345e-08 -9.6675e-08 7.33058e-08)
(3.17873e-08 -1.08294e-07 8.47616e-08)
(3.30111e-08 -1.19865e-07 9.60752e-08)
(3.28071e-08 -1.30539e-07 1.06015e-07)
(3.02806e-08 -1.38526e-07 1.13035e-07)
(2.56603e-08 -1.41017e-07 1.16433e-07)
(2.27523e-09 -5.09845e-09 3.02509e-09)
(6.32084e-09 -1.42944e-08 8.53149e-09)
(9.97196e-09 -2.29543e-08 1.38586e-08)
(1.33212e-08 -3.1455e-08 1.93081e-08)
(1.64483e-08 -4.01048e-08 2.51392e-08)
(1.94239e-08 -4.91509e-08 3.15786e-08)
(2.23125e-08 -5.87836e-08 3.88228e-08)
(2.5174e-08 -6.91411e-08 4.70313e-08)
(2.8065e-08 -8.03129e-08 5.63102e-08)
(3.10391e-08 -9.23422e-08 6.66837e-08)
(3.41448e-08 -1.0522e-07 7.80245e-08)
(3.74213e-08 -1.18872e-07 8.9944e-08)
(4.09086e-08 -1.3313e-07 1.01612e-07)
(4.47642e-08 -1.4771e-07 1.11533e-07)
(4.95887e-08 -1.621e-07 1.17447e-07)
(5.60562e-08 -1.74359e-07 1.17822e-07)
(1.73841e-10 -4.74994e-10 2.06344e-10)
(4.82011e-10 -1.32823e-09 5.8268e-10)
(7.57491e-10 -2.12228e-09 9.50411e-10)
(1.0047e-09 -2.88779e-09 1.33093e-09)
(1.22598e-09 -3.64574e-09 1.74496e-09)
(1.41989e-09 -4.41017e-09 2.20847e-09)
(1.58076e-09 -5.18448e-09 2.73445e-09)
(1.6966e-09 -5.96481e-09 3.33252e-09)
(1.74705e-09 -6.73496e-09 4.00454e-09)
(1.69961e-09 -7.47144e-09 4.74302e-09)
(1.50711e-09 -8.13592e-09 5.52013e-09)
(1.10155e-09 -8.68537e-09 6.28387e-09)
(3.75755e-10 -9.06231e-09 6.94452e-09)
(-8.7041e-10 -9.16876e-09 7.41947e-09)
(-3.05404e-09 -8.74127e-09 7.69414e-09)
(-6.35349e-09 -7.27377e-09 7.86241e-09)
(5.18766e-10 -1.40941e-09 6.13249e-10)
(1.43872e-09 -3.94162e-09 1.73278e-09)
(2.261e-09 -6.30057e-09 2.824e-09)
(3.00009e-09 -8.57421e-09 3.95536e-09)
(3.66264e-09 -1.08295e-08 5.1838e-09)
(4.24576e-09 -1.31052e-08 6.55781e-09)
(4.73379e-09 -1.54165e-08 8.11672e-09)
(5.09317e-09 -1.77504e-08 9.88691e-09)
(5.2655e-09 -2.00664e-08 1.18765e-08)
(5.15804e-09 -2.22898e-08 1.40586e-08)
(4.63676e-09 -2.43211e-08 1.63528e-08)
(3.52154e-09 -2.6044e-08 1.85879e-08)
(1.60642e-09 -2.7356e-08 2.05005e-08)
(-1.26723e-09 -2.81727e-08 2.17158e-08)
(-4.91944e-09 -2.83617e-08 2.19168e-08)
(-7.97871e-09 -2.77267e-08 2.12768e-08)
(8.56336e-10 -2.30025e-09 1.00508e-09)
(2.37535e-09 -6.43529e-09 2.83949e-09)
(3.73469e-09 -1.02909e-08 4.62734e-09)
(4.95917e-09 -1.40142e-08 6.47873e-09)
(6.0619e-09 -1.77137e-08 8.48689e-09)
(7.04142e-09 -2.1461e-08 1.07313e-08)
(7.87667e-09 -2.52864e-08 1.32764e-08)
(8.5197e-09 -2.91789e-08 1.61684e-08)
(8.88268e-09 -3.30804e-08 1.94219e-08)
(8.82341e-09 -3.68878e-08 2.30011e-08)
(8.12957e-09 -4.04572e-08 2.67883e-08)
(6.51761e-09 -4.36437e-08 3.05474e-08)
(3.68147e-09 -4.63787e-08 3.39017e-08)
(-4.96172e-10 -4.8796e-08 3.64092e-08)
(-5.38196e-09 -5.12806e-08 3.77987e-08)
(-8.75339e-09 -5.38321e-08 3.83952e-08)
(1.18148e-09 -3.11915e-09 1.37291e-09)
(3.27799e-09 -8.72942e-09 3.87683e-09)
(5.15678e-09 -1.39684e-08 6.31638e-09)
(6.85417e-09 -1.90381e-08 8.83854e-09)
(8.39219e-09 -2.40937e-08 1.15697e-08)
(9.77503e-09 -2.92394e-08 1.46178e-08)
(1.09839e-08 -3.45297e-08 1.80723e-08)
(1.19668e-08 -3.99642e-08 2.1998e-08)
(1.26233e-08 -4.5486e-08 2.64212e-08)
(1.27811e-08 -5.09749e-08 3.13064e-08)
(1.21702e-08 -5.62572e-08 3.65227e-08)
(1.03987e-08 -6.11329e-08 4.17835e-08)
(6.998e-09 -6.54617e-08 4.66954e-08)
(1.65539e-09 -6.93134e-08 5.07893e-08)
(-5.03284e-09 -7.30521e-08 5.38081e-08)
(-1.02379e-08 -7.65742e-08 5.57999e-08)
(1.48886e-09 -3.83834e-09 1.70797e-09)
(4.13187e-09 -1.0746e-08 4.82255e-09)
(6.5037e-09 -1.72072e-08 7.85262e-09)
(8.65337e-09 -2.34777e-08 1.09789e-08)
(1.0614e-08 -2.97556e-08 1.43559e-08)
(1.24007e-08 -3.61835e-08 1.81169e-08)
(1.40048e-08 -4.28446e-08 2.23733e-08)
(1.53848e-08 -4.97622e-08 2.7208e-08)
(1.64493e-08 -5.68925e-08 3.26594e-08)
(1.70316e-08 -6.41191e-08 3.87009e-08)
(1.68472e-08 -7.12421e-08 4.51791e-08)
(1.54556e-08 -7.79768e-08 5.18231e-08)
(1.2224e-08 -8.39567e-08 5.81795e-08)
(6.50441e-09 -8.8792e-08 6.37746e-08)
(-1.59521e-09 -9.221e-08 6.83106e-08)
(-9.04254e-09 -9.42542e-08 7.15479e-08)
(1.7731e-09 -4.43116e-09 2.00412e-09)
(4.92173e-09 -1.24106e-08 5.65696e-09)
(7.75056e-09 -1.9888e-08 9.20421e-09)
(1.03215e-08 -2.71675e-08 1.28536e-08)
(1.26809e-08 -3.44899e-08 1.67828e-08)
(1.48577e-08 -4.20341e-08 2.11453e-08)
(1.68611e-08 -4.99169e-08 2.60702e-08)
(1.86728e-08 -5.81918e-08 3.16541e-08)
(2.0235e-08 -6.68441e-08 3.79464e-08)
(2.14269e-08 -7.57803e-08 4.49193e-08)
(2.20316e-08 -8.48067e-08 5.24286e-08)
(2.16771e-08 -9.35826e-08 6.01571e-08)
(1.97693e-08 -1.0153e-07 6.76147e-08)
(1.55029e-08 -1.07663e-07 7.42308e-08)
(8.2927e-09 -1.1045e-07 7.96256e-08)
(-5.0159e-11 -1.08872e-07 8.35121e-08)
(2.02897e-09 -4.87306e-09 2.25653e-09)
(5.63255e-09 -1.3654e-08 6.36615e-09)
(8.87257e-09 -2.18994e-08 1.03478e-08)
(1.18229e-08 -2.99544e-08 1.44292e-08)
(1.45424e-08 -3.80956e-08 1.88051e-08)
(1.70757e-08 -4.65362e-08 2.36431e-08)
(1.94526e-08 -5.54255e-08 2.90832e-08)
(2.16856e-08 -6.48501e-08 3.52304e-08)
(2.37641e-08 -7.48317e-08 4.21383e-08)
(2.56455e-08 -8.5318e-08 4.97766e-08)
(2.72412e-08 -9.61634e-08 5.79867e-08)
(2.83952e-08 -1.07083e-07 6.64094e-08)
(2.88655e-08 -1.17559e-07 7.44441e-08)
(2.83598e-08 -1.26658e-07 8.13026e-08)
(2.66846e-08 -1.32725e-07 8.63252e-08)
(2.41909e-08 -1.33714e-07 8.93686e-08)
(2.25172e-09 -5.143e-09 2.46197e-09)
(6.25123e-09 -1.44179e-08 6.94188e-09)
(9.84787e-09 -2.31469e-08 1.12701e-08)
(1.3125e-08 -3.17054e-08 1.5688e-08)
(1.6152e-08 -4.0398e-08 2.03992e-08)
(1.89868e-08 -4.94641e-08 2.55791e-08)
(2.16775e-08 -5.90798e-08 3.13716e-08)
(2.4264e-08 -6.93601e-08 3.7882e-08)
(2.67799e-08 -8.0358e-08 4.51614e-08)
(2.92546e-08 -9.20595e-08 5.31697e-08)
(3.17222e-08 -1.04371e-07 6.17271e-08)
(3.42412e-08 -1.17098e-07 7.04262e-08)
(3.69671e-08 -1.2994e-07 7.85478e-08)
(4.03779e-08 -1.42533e-07 8.50288e-08)
(4.56937e-08 -1.54603e-07 8.86895e-08)
(5.38811e-08 -1.65245e-07 8.91688e-08)
(1.71011e-10 -4.78087e-10 1.52014e-10)
(4.73743e-10 -1.33682e-09 4.29639e-10)
(7.42561e-10 -2.13637e-09 6.99481e-10)
(9.81224e-10 -2.90596e-09 9.79518e-10)
(1.19019e-09 -3.67104e-09 1.28306e-09)
(1.36647e-09 -4.44194e-09 1.62165e-09)
(1.502e-09 -5.22429e-09 2.00405e-09)
(1.58208e-09 -6.01493e-09 2.43584e-09)
(1.58307e-09 -6.80196e-09 2.9178e-09)
(1.47012e-09 -7.56362e-09 3.44252e-09)
(1.19558e-09 -8.27001e-09 3.99052e-09)
(6.97377e-10 -8.8806e-09 4.52592e-09)
(-1.13806e-10 -9.34089e-09 5.01327e-09)
(-1.40027e-09 -9.52698e-09 5.42014e-09)
(-3.53645e-09 -9.13348e-09 5.81083e-09)
(-6.69443e-09 -7.59527e-09 6.22659e-09)
(5.10592e-10 -1.41871e-09 4.52202e-10)
(1.41437e-09 -3.96788e-09 1.27665e-09)
(2.21771e-09 -6.34154e-09 2.08015e-09)
(2.93139e-09 -8.63341e-09 2.91154e-09)
(3.55812e-09 -1.09036e-08 3.81204e-09)
(4.08995e-09 -1.31966e-08 4.81567e-09)
(4.50458e-09 -1.55281e-08 5.94852e-09)
(4.76095e-09 -1.78892e-08 7.22716e-09)
(4.79205e-09 -2.02448e-08 8.65325e-09)
(4.49971e-09 -2.25312e-08 1.02041e-08)
(3.75279e-09 -2.46579e-08 1.18182e-08)
(2.39788e-09 -2.65159e-08 1.33956e-08)
(2.97349e-10 -2.79765e-08 1.47724e-08)
(-2.5804e-09 -2.88681e-08 1.57736e-08)
(-5.89409e-09 -2.88754e-08 1.62404e-08)
(-8.35597e-09 -2.77503e-08 1.61392e-08)
(8.43381e-10 -2.31563e-09 7.41196e-10)
(2.33692e-09 -6.47814e-09 2.0925e-09)
(3.66623e-09 -1.03606e-08 3.40909e-09)
(4.85059e-09 -1.41067e-08 4.76969e-09)
(5.89707e-09 -1.78314e-08 6.24194e-09)
(6.79615e-09 -2.16027e-08 7.88102e-09)
(7.51723e-09 -2.5454e-08 9.73062e-09)
(8.00083e-09 -2.93776e-08 1.18191e-08)
(8.14836e-09 -3.33225e-08 1.41513e-08)
(7.81207e-09 -3.71927e-08 1.66944e-08)
(6.79195e-09 -4.0853e-08 1.93629e-08)
(4.85484e-09 -4.41541e-08 2.2001e-08)
(1.81931e-09 -4.69704e-08 2.43934e-08)
(-2.22495e-09 -4.93095e-08 2.63141e-08)
(-6.43583e-09 -5.13489e-08 2.76278e-08)
(-8.83476e-09 -5.31515e-08 2.83531e-08)
(1.16464e-09 -3.1401e-09 1.01202e-09)
(3.22819e-09 -8.78775e-09 2.85819e-09)
(5.06798e-09 -1.40601e-08 4.65434e-09)
(6.71372e-09 -1.91628e-08 6.50845e-09)
(8.17915e-09 -2.42452e-08 8.51045e-09)
(9.45904e-09 -2.94161e-08 1.07363e-08)
(1.05228e-08 -3.47286e-08 1.32464e-08)
(1.13052e-08 -4.01841e-08 1.60814e-08)
(1.16942e-08 -4.57262e-08 1.92514e-08)
(1.15152e-08 -5.12367e-08 2.27211e-08)
(1.05209e-08 -5.65376e-08 2.63864e-08)
(8.39997e-09 -6.14088e-08 3.00721e-08)
(4.84603e-09 -6.56472e-08 3.35298e-08)
(-1.86752e-10 -6.91908e-08 3.65306e-08)
(-5.88824e-09 -7.22512e-08 3.89293e-08)
(-9.83755e-09 -7.49033e-08 4.053e-08)
(1.46926e-09 -3.86359e-09 1.25953e-09)
(4.07401e-09 -1.08167e-08 3.55588e-09)
(6.40065e-09 -1.73189e-08 5.7876e-09)
(8.49018e-09 -2.36232e-08 8.08573e-09)
(1.03675e-08 -2.99311e-08 1.05613e-08)
(1.20365e-08 -3.63805e-08 1.33077e-08)
(1.34759e-08 -4.30532e-08 1.64004e-08)
(1.46305e-08 -4.99676e-08 1.9891e-08)
(1.53982e-08 -5.70742e-08 2.37962e-08)
(1.56127e-08 -6.42452e-08 2.80763e-08)
(1.50258e-08 -7.12645e-08 3.26288e-08)
(1.32861e-08 -7.78067e-08 3.72433e-08)
(9.96399e-09 -8.34464e-08 4.16579e-08)
(4.70681e-09 -8.76973e-08 4.56214e-08)
(-2.1659e-09 -9.0216e-08 4.89607e-08)
(-8.14505e-09 -9.13067e-08 5.12973e-08)
(1.752e-09 -4.46004e-09 1.47838e-09)
(4.85913e-09 -1.24904e-08 4.17183e-09)
(7.63911e-09 -2.00119e-08 6.78471e-09)
(1.0146e-08 -2.73296e-08 9.46775e-09)
(1.2416e-08 -3.46791e-08 1.23481e-08)
(1.4468e-08 -4.22379e-08 1.5534e-08)
(1.6298e-08 -5.01159e-08 1.91125e-08)
(1.78745e-08 -5.83561e-08 2.31434e-08)
(1.91295e-08 -6.69281e-08 2.76461e-08)
(1.99465e-08 -7.57136e-08 3.2583e-08)
(2.01441e-08 -8.44829e-08 3.78318e-08)
(1.94541e-08 -9.28501e-08 4.31613e-08)
(1.74903e-08 -1.00178e-07 4.82482e-08)
(1.37579e-08 -1.05441e-07 5.27743e-08)
(7.89623e-09 -1.07164e-07 5.65261e-08)
(1.15746e-09 -1.04704e-07 5.91522e-08)
(2.00734e-09 -4.904e-09 1.66469e-09)
(5.56863e-09 -1.37396e-08 4.69545e-09)
(8.75902e-09 -2.20321e-08 7.62866e-09)
(1.16438e-08 -3.0124e-08 1.06296e-08)
(1.42736e-08 -3.82904e-08 1.38379e-08)
(1.66819e-08 -4.67374e-08 1.73716e-08)
(1.88863e-08 -5.56045e-08 2.13252e-08)
(2.08867e-08 -6.49623e-08 2.57626e-08)
(2.26634e-08 -7.48074e-08 3.07027e-08)
(2.41777e-08 -8.5051e-08 3.61022e-08)
(2.53753e-08 -9.54979e-08 4.18204e-08)
(2.61942e-08 -1.05803e-07 4.75775e-08)
(2.65902e-08 -1.15402e-07 5.29511e-08)
(2.657e-08 -1.23374e-07 5.74686e-08)
(2.61718e-08 -1.28259e-07 6.07682e-08)
(2.52173e-08 -1.28524e-07 6.27301e-08)