/*--------------------------------*- C++ -*----------------------------------*\
| =========                 |                                                 |
| \\      /  F ield         | OpenFOAM: The Open Source CFD Toolbox           |
|  \\    /   O peration     | Version:  v1912                                 |
|   \\  /    A nd           | Website:  www.openfoam.com                      |
|    \\/     M anipulation  |                                                 |
\*---------------------------------------------------------------------------*/
FoamFile
{
    version     2.0;
    format      ascii;
    class       volVectorField;
    location    "0.37/fluid";
    object      U;
}
// * * * * * * * * * * * * * * * * * * * * * * * * * * * * * * * * * * * * * //

dimensions      [0 1 -1 0 0 0 0];


internalField   nonuniform List<vector> 
14592
(
(0.0879026 0.0167983 0.000583601)
(0.0741439 0.0106233 0.000694594)
(0.0618288 0.00611886 0.000273542)
(0.0559034 0.00276242 -0.000384818)
(0.0524944 0.00124174 -0.00123512)
(0.0506382 0.000578838 -0.00227168)
(0.0492977 0.000330478 -0.00354212)
(0.048156 0.000236659 -0.00512344)
(0.0468715 0.000202901 -0.00712465)
(0.0455145 0.000167994 -0.00972928)
(0.0435594 0.000117308 -0.0131935)
(0.0415824 -4.9272e-05 -0.0179345)
(0.037818 -0.000291236 -0.0247221)
(0.0343333 -0.00104974 -0.0341637)
(0.0243505 -0.00160189 -0.047179)
(0.0137865 -0.00462974 -0.0471594)
(0.104081 0.016593 0.000678228)
(0.104571 0.01454 0.00073716)
(0.102888 0.0105101 9.78373e-05)
(0.100606 0.00639889 -0.000914077)
(0.0983497 0.00391686 -0.00223914)
(0.096443 0.00259408 -0.00388177)
(0.0946269 0.00202557 -0.00591723)
(0.0927866 0.00186039 -0.00846917)
(0.0906065 0.00192281 -0.0117137)
(0.0881237 0.00210193 -0.0159374)
(0.0846532 0.00234753 -0.0215432)
(0.0806873 0.00253733 -0.0291763)
(0.073859 0.00267423 -0.0399252)
(0.0662069 0.00226846 -0.054735)
(0.047981 0.00172124 -0.0739143)
(0.0278537 -0.00213374 -0.0727099)
(0.103853 0.0105434 0.000690397)
(0.107725 0.0127894 0.000729385)
(0.110117 0.0109195 4.71552e-05)
(0.110321 0.00792784 -0.00102098)
(0.109604 0.00573014 -0.00241879)
(0.10843 0.00440715 -0.00415657)
(0.106959 0.00382572 -0.00631477)
(0.105235 0.00374443 -0.00902534)
(0.103037 0.00401291 -0.012475)
(0.100414 0.00452342 -0.0169714)
(0.096654 0.00521567 -0.0229426)
(0.0921787 0.00597569 -0.0310948)
(0.0844495 0.00677538 -0.0425727)
(0.0754044 0.00715584 -0.0584935)
(0.0545255 0.00695283 -0.0791003)
(0.0310257 0.00270662 -0.0786793)
(0.102005 0.00693829 0.000709647)
(0.105584 0.0101975 0.000767014)
(0.108879 0.00978292 9.68526e-05)
(0.110278 0.00805993 -0.000956427)
(0.110639 0.00652082 -0.00233408)
(0.110231 0.00554364 -0.00404463)
(0.109299 0.00518439 -0.00616542)
(0.107949 0.00533758 -0.00882597)
(0.106025 0.00591893 -0.0122085)
(0.103603 0.00686569 -0.0166213)
(0.0999638 0.00814911 -0.0224868)
(0.0955129 0.00970169 -0.0305357)
(0.0875995 0.0115076 -0.0419083)
(0.0781318 0.0131082 -0.0578664)
(0.0562758 0.0137893 -0.0786905)
(0.0312544 0.00831316 -0.0790485)
(0.101076 0.0047041 0.00074287)
(0.103927 0.00786618 0.000841412)
(0.107121 0.00830091 0.000206628)
(0.108991 0.00755446 -0.000809952)
(0.109987 0.00669839 -0.00214104)
(0.110172 0.00618168 -0.00378776)
(0.109756 0.00615644 -0.00581908)
(0.108849 0.00662026 -0.00835595)
(0.107325 0.00755326 -0.0115674)
(0.105288 0.00894804 -0.0157509)
(0.102019 0.0108129 -0.0213033)
(0.0979191 0.0131396 -0.0289616)
(0.0902206 0.0159321 -0.039816)
(0.0807577 0.0187221 -0.0552988)
(0.0581728 0.0203538 -0.0756703)
(0.0316049 0.0130894 -0.0769671)
(0.100677 0.00333355 0.000783497)
(0.103022 0.00600988 0.000934857)
(0.105983 0.00681624 0.000347106)
(0.108064 0.00670663 -0.00062278)
(0.109459 0.00641693 -0.00189588)
(0.110098 0.00635524 -0.00346302)
(0.110133 0.00670049 -0.00538214)
(0.10966 0.00751611 -0.00776277)
(0.108569 0.00884061 -0.0107569)
(0.106973 0.010742 -0.0146456)
(0.104161 0.0133036 -0.0197909)
(0.10052 0.0166694 -0.026928)
(0.0931702 0.0209914 -0.0370669)
(0.0838722 0.0260485 -0.0518414)
(0.060623 0.0304596 -0.0714386)
(0.0324397 0.0221552 -0.0739961)
(0.100529 0.00228075 0.000831473)
(0.102626 0.00437636 0.00104444)
(0.105459 0.00532881 0.000512339)
(0.10768 0.00565082 -0.000402585)
(0.109361 0.00582578 -0.00160738)
(0.110367 0.00617594 -0.00307954)
(0.110817 0.00687084 -0.00486211)
(0.110805 0.00800888 -0.0070468)
(0.110253 0.00966731 -0.00975826)
(0.109311 0.0119763 -0.0132419)
(0.107337 0.0150723 -0.0177906)
(0.104777 0.0192404 -0.024079)
(0.0987808 0.0247357 -0.0329188)
(0.0911139 0.0316324 -0.0460743)
(0.0683606 0.0384133 -0.0633466)
(0.039264 0.0286765 -0.0672799)
(0.100482 0.00137785 0.000883765)
(0.102508 0.002862 0.00116333)
(0.105343 0.00381864 0.000691477)
(0.107708 0.00443014 -0.000164426)
(0.109624 0.00497683 -0.00129661)
(0.110931 0.00567918 -0.00266816)
(0.111738 0.00667867 -0.00430651)
(0.112144 0.00809108 -0.00628456)
(0.112099 0.0100247 -0.00869943)
(0.111778 0.0126828 -0.0117584)
(0.110617 0.0162882 -0.015686)
(0.109099 0.0214378 -0.0210872)
(0.104471 0.0287571 -0.0285749)
(0.0986944 0.0401312 -0.0400444)
(0.0771852 0.0551543 -0.0550386)
(0.0507468 0.0620136 -0.0618192)
(0.0878699 0.0168005 0.00034568)
(0.0739642 0.0106344 0.000313983)
(0.0614345 0.00612843 -9.45755e-05)
(0.0553221 0.00276896 -0.000674418)
(0.0517247 0.0012489 -0.00142162)
(0.0496716 0.000588578 -0.00235085)
(0.0480938 0.000344374 -0.00351083)
(0.0466518 0.000255821 -0.00496467)
(0.0449739 0.000229993 -0.0068029)
(0.0430931 0.000206646 -0.00914789)
(0.0404669 0.000177725 -0.012188)
(0.0375595 5.22615e-05 -0.0160639)
(0.0328077 -0.00010566 -0.0212292)
(0.027679 -0.000660381 -0.0269892)
(0.0175186 -0.000998312 -0.0331431)
(0.00562114 -0.00311424 -0.0237643)
(0.104036 0.0166062 0.00036377)
(0.104321 0.0145735 0.00021242)
(0.102327 0.0105519 -0.000437764)
(0.0997326 0.00644492 -0.00135517)
(0.0971507 0.00397339 -0.00253551)
(0.0948967 0.00266838 -0.00401687)
(0.0926691 0.00212597 -0.00588172)
(0.0903121 0.00199573 -0.00823778)
(0.0874566 0.00210568 -0.011234)
(0.0840755 0.00234709 -0.0150751)
(0.0794314 0.00267999 -0.0200602)
(0.0738676 0.00298488 -0.0264675)
(0.0652138 0.00329102 -0.0349274)
(0.0548663 0.00312249 -0.0446324)
(0.0358896 0.00275854 -0.0543956)
(0.0138739 -0.000738101 -0.0391394)
(0.103809 0.0105681 0.000361765)
(0.107468 0.0128467 0.00017572)
(0.109535 0.0109989 -0.000522044)
(0.109408 0.00802435 -0.00149344)
(0.108343 0.0058504 -0.00274003)
(0.106797 0.00456289 -0.00430765)
(0.104887 0.0040329 -0.00628519)
(0.102613 0.0040217 -0.00878876)
(0.0996951 0.00438525 -0.0119766)
(0.096114 0.00501908 -0.0160707)
(0.0910927 0.00587643 -0.0213878)
(0.0849029 0.00683692 -0.0282464)
(0.0751806 0.00789957 -0.0372973)
(0.0632304 0.00853751 -0.0477623)
(0.041454 0.00846955 -0.0582539)
(0.0158931 0.00375536 -0.0419463)
(0.101963 0.00696995 0.000379694)
(0.10533 0.0102714 0.000207889)
(0.108305 0.00989113 -0.00047847)
(0.10938 0.008198 -0.00143474)
(0.109402 0.00669648 -0.0026613)
(0.108632 0.00577292 -0.00420237)
(0.107274 0.00549051 -0.00614379)
(0.105391 0.00574971 -0.00859938)
(0.102766 0.00647652 -0.0117229)
(0.0994117 0.00761542 -0.0157368)
(0.0945358 0.0091583 -0.0209504)
(0.0883981 0.0110302 -0.0277002)
(0.0784972 0.0132554 -0.0366212)
(0.0661155 0.0152465 -0.047014)
(0.0433059 0.0161816 -0.0574817)
(0.0160947 0.00965512 -0.04137)
(0.101035 0.0047432 0.000413409)
(0.103679 0.00795707 0.000280956)
(0.106561 0.00843662 -0.000370836)
(0.10812 0.00773108 -0.00129115)
(0.108795 0.00692504 -0.00247297)
(0.108641 0.00647837 -0.00395329)
(0.107827 0.00655309 -0.00580977)
(0.106423 0.00715596 -0.00814844)
(0.104247 0.00828147 -0.0111108)
(0.10134 0.00993401 -0.014911)
(0.0969075 0.0121509 -0.0198351)
(0.0912162 0.0149181 -0.0262295)
(0.0816017 0.0183002 -0.0346833)
(0.0693027 0.0216419 -0.0446404)
(0.0456675 0.0236938 -0.0547099)
(0.016704 0.0148506 -0.0393688)
(0.100637 0.00337884 0.000454327)
(0.102781 0.00611469 0.000373206)
(0.105441 0.00697396 -0.000232928)
(0.107228 0.00691399 -0.0011079)
(0.108323 0.00668476 -0.00223419)
(0.108649 0.0067074 -0.00363871)
(0.10832 0.00717339 -0.00538864)
(0.107396 0.00815923 -0.00757965)
(0.105711 0.00972339 -0.0103376)
(0.103325 0.0119545 -0.0138643)
(0.0994417 0.01498 -0.0184149)
(0.0943354 0.018955 -0.0243439)
(0.0851677 0.0241377 -0.0321726)
(0.0731683 0.0300837 -0.0415361)
(0.0487652 0.0353939 -0.0510298)
(0.0179404 0.0249991 -0.0368488)
(0.10049 0.00233129 0.000501931)
(0.102393 0.00449227 0.000480714)
(0.104939 0.00550336 -7.1572e-05)
(0.106885 0.00588118 -0.000893547)
(0.10829 0.00612413 -0.00195462)
(0.109016 0.00656892 -0.00326893)
(0.109146 0.00739956 -0.00488982)
(0.108745 0.00873061 -0.00689748)
(0.107682 0.0106633 -0.00939404)
(0.106071 0.0133559 -0.0125548)
(0.103187 0.0170001 -0.0165804)
(0.099405 0.0219094 -0.0218019)
(0.0918394 0.0284815 -0.0286025)
(0.0818731 0.0365492 -0.0368359)
(0.0578924 0.0446607 -0.0449818)
(0.0260163 0.0322849 -0.0325037)
(0.100444 0.0014317 0.000553171)
(0.102284 0.0029844 0.000596568)
(0.104847 0.00400264 0.000102533)
(0.106956 0.00467331 -0.000662704)
(0.108623 0.00529223 -0.00165438)
(0.109684 0.00609511 -0.00287292)
(0.110217 0.00723921 -0.00435718)
(0.110295 0.00885925 -0.00617092)
(0.109827 0.0110911 -0.00839212)
(0.108961 0.0141768 -0.0111678)
(0.107055 0.0184078 -0.0146434)
(0.104563 0.0244523 -0.0191216)
(0.0986303 0.0331365 -0.0248435)
(0.0910382 0.0462178 -0.0319044)
(0.0683489 0.0635582 -0.0387185)
(0.0393057 0.0676007 -0.0288874)
(0.0878446 0.0168024 0.000180025)
(0.0738199 0.0106436 5.98844e-05)
(0.0611081 0.00613657 -0.00032341)
(0.0548227 0.00277465 -0.000826483)
(0.0510424 0.00125488 -0.00146914)
(0.0487907 0.000596271 -0.00227753)
(0.046972 0.000354672 -0.00329803)
(0.0452221 0.000268813 -0.00458108)
(0.0431401 0.000246285 -0.00620078)
(0.0407103 0.000226539 -0.00823911)
(0.0373782 0.000203939 -0.0108446)
(0.0334806 9.09707e-05 -0.0140549)
(0.0277004 -4.5748e-05 -0.0182118)
(0.021126 -0.000530414 -0.0225337)
(0.0113137 -0.000892378 -0.026694)
(0.000834159 -0.00264567 -0.0189808)
(0.104 0.0166187 0.000149744)
(0.104118 0.0146045 -0.000125693)
(0.101858 0.0105913 -0.000753506)
(0.0989789 0.00648899 -0.00156749)
(0.0960865 0.00402715 -0.0025947)
(0.0934906 0.00273814 -0.0038907)
(0.0908544 0.00221906 -0.00553696)
(0.0879824 0.00211967 -0.00762384)
(0.0844567 0.00227078 -0.0102738)
(0.0801798 0.00256446 -0.0136313)
(0.0743798 0.00296716 -0.0179257)
(0.0672527 0.00335734 -0.0232756)
(0.0569153 0.00377324 -0.030119)
(0.0444122 0.00373177 -0.0374597)
(0.0257252 0.003374 -0.0440147)
(0.00568555 -0.000110701 -0.0309823)
(0.103774 0.0105922 0.000138752)
(0.107259 0.0129014 -0.000178776)
(0.10905 0.0110751 -0.000854899)
(0.10862 0.00811725 -0.00171885)
(0.107225 0.00596565 -0.00280495)
(0.105314 0.0047111 -0.00417709)
(0.102968 0.00422879 -0.00592348)
(0.100146 0.00428243 -0.00814238)
(0.0965158 0.00473356 -0.0109639)
(0.0919826 0.00547972 -0.0145469)
(0.0857246 0.0064849 -0.0191323)
(0.0778662 0.00761858 -0.024868)
(0.0663129 0.0088966 -0.0321977)
(0.0520337 0.00972023 -0.0401265)
(0.0304424 0.00970381 -0.0471609)
(0.00690583 0.00449859 -0.033134)
(0.10193 0.00700117 0.000154601)
(0.105124 0.0103428 -0.000152223)
(0.107826 0.00999535 -0.000818089)
(0.108606 0.00833076 -0.00166769)
(0.108305 0.00686468 -0.00273502)
(0.10718 0.00599138 -0.00408267)
(0.105399 0.00578097 -0.00579607)
(0.102984 0.00613936 -0.00797157)
(0.0996643 0.0070021 -0.0107353)
(0.0953788 0.00831919 -0.0142469)
(0.0892834 0.0101006 -0.0187409)
(0.0814922 0.0122597 -0.0243811)
(0.0697447 0.0148535 -0.0315971)
(0.0549963 0.0171698 -0.0394604)
(0.032286 0.0183107 -0.046465)
(0.00702632 0.0109256 -0.0326372)
(0.101003 0.00478156 0.000186581)
(0.103479 0.00804485 -8.43367e-05)
(0.106097 0.00856699 -0.000718041)
(0.107373 0.00790034 -0.00153427)
(0.107742 0.00714162 -0.00256057)
(0.107253 0.006761 -0.00385299)
(0.106042 0.00693005 -0.00548958)
(0.10414 0.00766413 -0.00755999)
(0.101312 0.0089715 -0.0101799)
(0.097531 0.0108666 -0.0135031)
(0.0919408 0.013414 -0.0177451)
(0.0846721 0.0165896 -0.0230831)
(0.0732512 0.0205145 -0.0299105)
(0.0586185 0.0243574 -0.0374279)
(0.0349541 0.0268235 -0.0441464)
(0.00774553 0.0167852 -0.0310284)
(0.100606 0.0034229 0.000225349)
(0.102588 0.00621545 1.96239e-06)
(0.104995 0.00712486 -0.000589402)
(0.106514 0.00711199 -0.00136385)
(0.107322 0.00694007 -0.00233931)
(0.107339 0.00704251 -0.00356281)
(0.106646 0.00762288 -0.0051029)
(0.105267 0.00877007 -0.00704042)
(0.102985 0.0105618 -0.00947761)
(0.099799 0.0131051 -0.0125593)
(0.0948428 0.0165697 -0.0164754)
(0.0882706 0.0211153 -0.0214163)
(0.0773708 0.0270997 -0.0277219)
(0.0631294 0.0338676 -0.0347649)
(0.0385532 0.0400517 -0.0410669)
(0.00920938 0.0281829 -0.0289752)
(0.10046 0.00237999 0.000270093)
(0.102207 0.00460307 0.000102264)
(0.104513 0.00566968 -0.000439376)
(0.106209 0.00610044 -0.00116515)
(0.107351 0.00640794 -0.00208113)
(0.107798 0.00694259 -0.00322287)
(0.107606 0.00790241 -0.00464674)
(0.106808 0.00941741 -0.00642069)
(0.105228 0.0116125 -0.00862719)
(0.10293 0.0146723 -0.0113921)
(0.0991192 0.0188432 -0.0148625)
(0.0940845 0.0244617 -0.019223)
(0.0849848 0.0320639 -0.0247124)
(0.0730727 0.0412622 -0.0309144)
(0.0487515 0.050725 -0.036316)
(0.0179685 0.0366384 -0.0257003)
(0.100415 0.00148311 0.0003179)
(0.102107 0.00310075 0.000209937)
(0.104444 0.00417732 -0.000278016)
(0.106322 0.00490412 -0.000951673)
(0.10775 0.00559168 -0.00180429)
(0.108565 0.00649024 -0.00285906)
(0.10882 0.00777241 -0.00415948)
(0.108563 0.00959111 -0.00575975)
(0.107662 0.0121099 -0.00772188)
(0.106231 0.0156072 -0.0101506)
(0.10356 0.0204447 -0.0131487)
(0.100058 0.0273529 -0.0168894)
(0.0928384 0.0373603 -0.0215047)
(0.0837033 0.0520985 -0.0268053)
(0.0605976 0.0718353 -0.0312908)
(0.032518 0.0745572 -0.0227978)
(0.0878255 0.0168042 7.34827e-05)
(0.0737058 0.0106516 -8.79663e-05)
(0.0608444 0.00614391 -0.000429606)
(0.0544115 0.00278019 -0.000851514)
(0.0504745 0.00126096 -0.00138381)
(0.0480557 0.000604472 -0.0020556)
(0.0460445 0.000366371 -0.00290579)
(0.0440653 0.000285237 -0.00396894)
(0.0417121 0.000269864 -0.00529506)
(0.0389533 0.000261193 -0.00692101)
(0.0352771 0.000257749 -0.00893102)
(0.0309767 0.000180793 -0.0112621)
(0.0249962 0.000105586 -0.0140787)
(0.0182404 -0.000244165 -0.0165991)
(0.00922655 -0.000473018 -0.0183708)
(0.000184386 -0.00194502 -0.0119107)
(0.103972 0.0166301 1.82242e-05)
(0.103956 0.0146324 -0.000307015)
(0.101476 0.010627 -0.000876886)
(0.0983533 0.00652945 -0.00157151)
(0.0951931 0.00407653 -0.00243132)
(0.0923053 0.00280217 -0.00351522)
(0.0893331 0.00230467 -0.00489428)
(0.0860601 0.00223448 -0.00663553)
(0.0820535 0.0024255 -0.0088248)
(0.0771913 0.00277214 -0.0115401)
(0.0707442 0.00324869 -0.0149141)
(0.0628738 0.00373829 -0.0189135)
(0.0520328 0.00429438 -0.0237261)
(0.0391535 0.00444906 -0.028309)
(0.0216345 0.0042646 -0.0313577)
(0.00394643 0.000846625 -0.0203524)
(0.103747 0.0106145 2.88585e-06)
(0.107092 0.0129511 -0.000365539)
(0.108653 0.0111444 -0.000980626)
(0.107966 0.00820184 -0.00171933)
(0.106285 0.00607026 -0.0026295)
(0.104062 0.00484502 -0.00377799)
(0.101357 0.0044051 -0.00524222)
(0.0981069 0.00451645 -0.00709599)
(0.0939611 0.00504579 -0.009431)
(0.0888008 0.00589307 -0.0123358)
(0.0818419 0.00703298 -0.0159495)
(0.0731813 0.00833104 -0.0202559)
(0.0610601 0.00982304 -0.0254355)
(0.0463631 0.0108712 -0.0304217)
(0.0259816 0.0110255 -0.0337067)
(0.00497394 0.00552201 -0.0217725)
(0.101904 0.00703 1.6247e-05)
(0.10496 0.010408 -0.000344352)
(0.107437 0.0100901 -0.000950726)
(0.107965 0.0084512 -0.0016767)
(0.107386 0.00701655 -0.00257039)
(0.105957 0.00618741 -0.00369763)
(0.103826 0.00603987 -0.00513353)
(0.100996 0.00648425 -0.0069504)
(0.0971772 0.00746384 -0.00923662)
(0.0922842 0.0089324 -0.0120817)
(0.085506 0.0109144 -0.0156188)
(0.0769343 0.013313 -0.0198441)
(0.0646266 0.0162123 -0.0249233)
(0.0494661 0.0188109 -0.0298358)
(0.027933 0.0201601 -0.0330559)
(0.00517686 0.0121845 -0.0212654)
(0.100978 0.00481684 4.47119e-05)
(0.10332 0.00812479 -0.000284717)
(0.10572 0.00868522 -0.000862861)
(0.106755 0.00805329 -0.00155958)
(0.10686 0.00733631 -0.00241768)
(0.106085 0.00701331 -0.00349746)
(0.104547 0.00726388 -0.00486779)
(0.102258 0.0081099 -0.00659572)
(0.0989657 0.00957002 -0.00876141)
(0.0946214 0.0116644 -0.0114508)
(0.0883954 0.0144767 -0.0147827)
(0.0804028 0.0179688 -0.0187666)
(0.0684525 0.0223 -0.0235418)
(0.0534334 0.0265045 -0.0281881)
(0.0308615 0.0292517 -0.0312031)
(0.00602548 0.0183777 -0.0199976)
(0.100583 0.00346316 7.92344e-05)
(0.102434 0.00630689 -0.000208498)
(0.104633 0.00726125 -0.000749508)
(0.105924 0.00729024 -0.00140976)
(0.106486 0.00716864 -0.00222387)
(0.106238 0.00734024 -0.00324446)
(0.105245 0.0080185 -0.00453246)
(0.103514 0.00930119 -0.00614803)
(0.100811 0.0112798 -0.00816087)
(0.0971169 0.0140709 -0.0106514)
(0.0915837 0.0178706 -0.01372)
(0.0843613 0.0228271 -0.0173912)
(0.0729736 0.0293549 -0.0217674)
(0.0583901 0.0366244 -0.0260653)
(0.0348049 0.0432632 -0.0288133)
(0.00764517 0.0303556 -0.0184473)
(0.100438 0.0024242 0.000118885)
(0.102061 0.00470325 -0.000120062)
(0.10417 0.00581953 -0.000617544)
(0.105653 0.00629721 -0.00123549)
(0.106569 0.0066612 -0.00199834)
(0.106777 0.0072734 -0.00294907)
(0.106319 0.00834299 -0.00413867)
(0.105214 0.0100108 -0.00561756)
(0.103269 0.012418 -0.00744079)
(0.100541 0.0157627 -0.00967742)
(0.0962429 0.020323 -0.0123991)
(0.0906776 0.0264294 -0.0156381)
(0.0811743 0.0346895 -0.0194362)
(0.0690283 0.0445201 -0.0231872)
(0.0455549 0.0546157 -0.0254503)
(0.0166735 0.0393384 -0.0162882)
(0.100394 0.00152949 0.000161057)
(0.101968 0.00320556 -2.5348e-05)
(0.10412 0.00433421 -0.000475858)
(0.105802 0.00511067 -0.00104856)
(0.107025 0.00585815 -0.00175679)
(0.107629 0.00683898 -0.00263314)
(0.107653 0.00823771 -0.00371808)
(0.107136 0.0102198 -0.00505165)
(0.105931 0.0129667 -0.00667371)
(0.104152 0.0167751 -0.0086405)
(0.101089 0.0220438 -0.0109941)
(0.0971875 0.0295104 -0.013772)
(0.0896665 0.0402916 -0.0169539)
(0.0804422 0.0558274 -0.0201273)
(0.0580762 0.0764944 -0.0219324)
(0.0316602 0.0780443 -0.0144178)
(0.0878105 0.0168056 1.17733e-05)
(0.0736161 0.0106579 -0.000153291)
(0.0606345 0.00614978 -0.000437684)
(0.0540792 0.00278452 -0.000773631)
(0.0500095 0.0012655 -0.00119272)
(0.0474469 0.000610299 -0.00172255)
(0.0452698 0.000374239 -0.00239452)
(0.0430927 0.000295481 -0.00323275)
(0.0405069 0.000283218 -0.00427243)
(0.0374672 0.000278816 -0.00553072)
(0.0335006 0.000282533 -0.00706224)
(0.0288719 0.000220387 -0.00879291)
(0.0227391 0.000170333 -0.0108211)
(0.0159126 -0.000115428 -0.0125513)
(0.00761379 -0.000297242 -0.0135834)
(-0.000232978 -0.00163752 -0.0088157)
(0.10395 0.0166398 -5.01155e-05)
(0.103827 0.0146557 -0.000365517)
(0.10117 0.0106572 -0.000845425)
(0.0978462 0.00656371 -0.00140546)
(0.0944607 0.00411812 -0.00208778)
(0.0913244 0.00285565 -0.00294655)
(0.0880657 0.0023755 -0.00404029)
(0.0844521 0.00232837 -0.0054183)
(0.0800415 0.00255024 -0.00714164)
(0.0746936 0.00293659 -0.00925435)
(0.0677226 0.00346661 -0.0118401)
(0.0592758 0.00402504 -0.0148323)
(0.048088 0.0046738 -0.0183254)
(0.0350655 0.00494942 -0.0215003)
(0.0186334 0.00485403 -0.0232904)
(0.00290853 0.00140642 -0.0150376)
(0.103726 0.0106335 -6.60236e-05)
(0.10696 0.0129934 -0.000420519)
(0.108336 0.0112034 -0.000939292)
(0.107435 0.00827395 -0.0015357)
(0.105515 0.00615921 -0.0022587)
(0.103025 0.00495844 -0.00316926)
(0.100014 0.00455372 -0.00433135)
(0.0964006 0.0047127 -0.00579978)
(0.091822 0.00530606 -0.00763995)
(0.0861415 0.00623508 -0.00990358)
(0.0786153 0.00748218 -0.0126779)
(0.0693326 0.00890796 -0.0159072)
(0.0568179 0.0105619 -0.0196757)
(0.0419565 0.0117712 -0.0231409)
(0.0227084 0.0120365 -0.0250711)
(0.00382358 0.00625882 -0.0160967)
(0.101884 0.00705486 -5.54556e-05)
(0.104831 0.0104638 -0.000404457)
(0.107126 0.0101712 -0.000916292)
(0.107445 0.00855406 -0.0015022)
(0.106632 0.00714595 -0.00221172)
(0.104944 0.00635391 -0.00310506)
(0.102516 0.00625901 -0.00424442)
(0.0993328 0.00677507 -0.00568351)
(0.0950931 0.00785151 -0.00748527)
(0.0896946 0.0094445 -0.00970245)
(0.0823618 0.0115894 -0.0124179)
(0.0731817 0.0141794 -0.0155858)
(0.0604811 0.0173178 -0.0192797)
(0.0451547 0.02013 -0.0226917)
(0.0247256 0.021628 -0.024576)
(0.00407716 0.0131729 -0.0157222)
(0.100959 0.00484726 -3.19151e-05)
(0.103194 0.0081933 -0.000355553)
(0.105419 0.00878634 -0.000844247)
(0.106255 0.00818389 -0.0014062)
(0.106138 0.00750222 -0.00208681)
(0.105118 0.00722781 -0.00294188)
(0.103301 0.00754695 -0.00402867)
(0.100683 0.00848683 -0.00539694)
(0.0969977 0.0100745 -0.00710351)
(0.0921828 0.0123342 -0.0091991)
(0.0854375 0.0153645 -0.0117566)
(0.076877 0.0191143 -0.0147419)
(0.0645508 0.0237706 -0.0182107)
(0.0493753 0.0282608 -0.0214317)
(0.0278352 0.0312239 -0.0231824)
(0.00501217 0.0196971 -0.0147862)
(0.100564 0.00349779 -3.33453e-06)
(0.102314 0.00638518 -0.000292764)
(0.104345 0.00737778 -0.000751008)
(0.105449 0.00744231 -0.00128317)
(0.105802 0.00736329 -0.00192809)
(0.105328 0.00759329 -0.00273538)
(0.104079 0.00835401 -0.00375606)
(0.102048 0.00975048 -0.00503469)
(0.0989864 0.0118854 -0.00662021)
(0.0948672 0.0148824 -0.00856)
(0.0888615 0.0189583 -0.0109137)
(0.0811273 0.0242493 -0.0136608)
(0.0693913 0.0312112 -0.0168325)
(0.0546756 0.0388771 -0.0198003)
(0.0320327 0.0458636 -0.0213759)
(0.00674409 0.03217 -0.0136245)
(0.10042 0.00246212 2.94123e-05)
(0.101947 0.00478885 -0.00021995)
(0.103898 0.00594738 -0.000642561)
(0.105206 0.00646489 -0.00114028)
(0.105931 0.00687674 -0.00174371)
(0.105935 0.0075545 -0.00249485)
(0.105248 0.00871674 -0.00343692)
(0.103879 0.0105133 -0.00460732)
(0.101624 0.0130985 -0.00604432)
(0.0985322 0.0166808 -0.00778822)
(0.0938311 0.021564 -0.00987909)
(0.0878425 0.028071 -0.0123065)
(0.0780468 0.036862 -0.0150632)
(0.0658303 0.0472017 -0.0176527)
(0.0431757 0.0577928 -0.0189312)
(0.0159551 0.0416459 -0.0120788)
(0.100377 0.00156913 6.41477e-05)
(0.10186 0.00329492 -0.000142071)
(0.103865 0.00446784 -0.000526241)
(0.105386 0.00528646 -0.000987112)
(0.106435 0.00608474 -0.00154632)
(0.106858 0.00713517 -0.00223757)
(0.106683 0.00863239 -0.00309583)
(0.105942 0.0107521 -0.0041508)
(0.104477 0.0136907 -0.0054295)
(0.102402 0.017759 -0.00696394)
(0.0990154 0.0233854 -0.00877362)
(0.094794 0.0313101 -0.010856)
(0.0870589 0.042715 -0.0131644)
(0.0778599 0.058892 -0.015346)
(0.0562098 0.0802923 -0.0163426)
(0.0312621 0.0810832 -0.0106951)
(0.0877998 0.0168067 -1.53429e-05)
(0.0735505 0.0106628 -0.000154281)
(0.0604795 0.00615437 -0.000367493)
(0.053832 0.00278811 -0.00061145)
(0.0496632 0.00126941 -0.00091243)
(0.0469952 0.000615577 -0.0012922)
(0.0447011 0.000381772 -0.00177269)
(0.0423917 0.000306107 -0.00236785)
(0.0396626 0.000298426 -0.00309777)
(0.0364656 0.000301023 -0.00396414)
(0.0323644 0.000316131 -0.00499269)
(0.0276127 0.000273915 -0.00611096)
(0.0214982 0.000255095 -0.00736117)
(0.0147708 2.72383e-05 -0.00833827)
(0.00690211 -0.000102795 -0.00873575)
(-0.00029484 -0.00138326 -0.00548717)
(0.103934 0.0166474 -6.96027e-05)
(0.103733 0.014674 -0.000328208)
(0.100942 0.0106809 -0.000690888)
(0.0974666 0.00659079 -0.00110141)
(0.0939112 0.00415105 -0.00159489)
(0.0905899 0.00289809 -0.00221363)
(0.0871241 0.00243186 -0.00299975)
(0.0832742 0.00240349 -0.00398462)
(0.0785998 0.00265078 -0.00520481)
(0.0729578 0.0030705 -0.00667705)
(0.0657075 0.00364606 -0.0084411)
(0.0570006 0.00426405 -0.0104192)
(0.0457517 0.0049932 -0.0126363)
(0.0328545 0.00536983 -0.0145201)
(0.0171432 0.0053571 -0.0152931)
(0.0025704 0.00185778 -0.00959311)
(0.10371 0.0106485 -8.30846e-05)
(0.106862 0.0130267 -0.000372601)
(0.1081 0.0112498 -0.000765088)
(0.107038 0.00833066 -0.00120274)
(0.104936 0.00622905 -0.00172614)
(0.102249 0.00504729 -0.00238272)
(0.0990152 0.00466984 -0.00321876)
(0.0951481 0.00486567 -0.00426961)
(0.0902851 0.00550849 -0.00557475)
(0.0842871 0.00650065 -0.00715588)
(0.0764539 0.00783045 -0.00905419)
(0.0668857 0.00935529 -0.0111976)
(0.0542891 0.0111349 -0.0136012)
(0.0395559 0.0124706 -0.015672)
(0.0210732 0.012829 -0.0165128)
(0.00344762 0.00684113 -0.0102957)
(0.10187 0.00707451 -7.54654e-05)
(0.104735 0.0105077 -0.000361371)
(0.106894 0.0102349 -0.000748843)
(0.107056 0.00863481 -0.00117869)
(0.106066 0.00724721 -0.00169214)
(0.104185 0.00648367 -0.00233611)
(0.101542 0.00642896 -0.00315564)
(0.0981129 0.00699934 -0.00418535)
(0.0935978 0.00814854 -0.00546301)
(0.0878928 0.00983405 -0.00701119)
(0.0802628 0.0120986 -0.00886804)
(0.0708084 0.0148277 -0.0109684)
(0.0580289 0.0181378 -0.0133192)
(0.0428336 0.0211033 -0.0153512)
(0.0231494 0.022707 -0.0161569)
(0.00374413 0.0139055 -0.0100267)
(0.100946 0.00487129 -5.7909e-05)
(0.103102 0.00824725 -0.000325104)
(0.105196 0.00886578 -0.000695431)
(0.105882 0.00828624 -0.00110755)
(0.105596 0.00763173 -0.00159977)
(0.104395 0.00739441 -0.00221581)
(0.102376 0.00776545 -0.0029972)
(0.0995289 0.00877558 -0.00397589)
(0.0955879 0.0104576 -0.00518555)
(0.0904906 0.0128374 -0.0066478)
(0.0834718 0.0160231 -0.00839444)
(0.0746631 0.0199524 -0.0103692)
(0.0622677 0.0248302 -0.0125681)
(0.0472271 0.0295107 -0.0144734)
(0.0263829 0.0326081 -0.0151977)
(0.00473881 0.0206216 -0.00939133)
(0.100551 0.00352509 -3.65853e-05)
(0.102225 0.00644674 -0.000278395)
(0.104132 0.00746921 -0.000626149)
(0.105094 0.00756126 -0.00101628)
(0.10529 0.0075149 -0.0014823)
(0.104648 0.00778923 -0.00206351)
(0.103213 0.00861186 -0.00279697)
(0.100974 0.0100926 -0.00371112)
(0.0976814 0.0123411 -0.00483443)
(0.09331 0.0154844 -0.0061868)
(0.0870604 0.0197512 -0.00779178)
(0.0791121 0.0252656 -0.00960364)
(0.0673212 0.0325068 -0.0116039)
(0.0527495 0.0404157 -0.0133439)
(0.0307435 0.0475927 -0.0139669)
(0.00654324 0.033359 -0.00861252)
(0.100407 0.00249194 -1.21906e-05)
(0.101863 0.00485606 -0.000224248)
(0.103697 0.00604755 -0.000545618)
(0.104873 0.00659585 -0.000910385)
(0.105453 0.00704431 -0.00134609)
(0.105305 0.00777165 -0.00188651)
(0.104453 0.0090031 -0.00256331)
(0.102901 0.0108942 -0.00340024)
(0.100446 0.0136074 -0.00441888)
(0.0971413 0.0173561 -0.00563555)
(0.092237 0.0224579 -0.00706218)
(0.0860824 0.029225 -0.00866279)
(0.0762553 0.0383453 -0.0103977)
(0.0642038 0.0489821 -0.011906)
(0.0421116 0.059829 -0.0123744)
(0.015861 0.0430988 -0.00763702)
(0.100365 0.00160022 1.36388e-05)
(0.101781 0.00336495 -0.000166383)
(0.103676 0.00457238 -0.000459298)
(0.105076 0.00542356 -0.000796949)
(0.105995 0.00626063 -0.00120031)
(0.106282 0.00736354 -0.00169723)
(0.105963 0.00893401 -0.00231359)
(0.105066 0.0111541 -0.00306812)
(0.103435 0.0142293 -0.00397515)
(0.101189 0.0184766 -0.00504666)
(0.0976447 0.0243401 -0.0062825)
(0.093313 0.0325529 -0.00765527)
(0.0855817 0.0443278 -0.00910467)
(0.0765842 0.0608569 -0.010365)
(0.0554353 0.0826089 -0.0106985)
(0.0313414 0.0829252 -0.00677568)
(0.0877926 0.0168074 -1.8448e-05)
(0.0735067 0.0106662 -0.000110991)
(0.0603758 0.00615739 -0.000242434)
(0.0536657 0.00279043 -0.000391032)
(0.0494289 0.00127184 -0.000572577)
(0.046688 0.000618738 -0.0008018)
(0.0443128 0.000386095 -0.00109181)
(0.0419114 0.000311874 -0.00145045)
(0.0390827 0.00030614 -0.00188907)
(0.0357764 0.000311514 -0.00240651)
(0.0315817 0.000331081 -0.00301643)
(0.0267478 0.000297135 -0.00367223)
(0.0206476 0.000291505 -0.00439462)
(0.0140016 9.04636e-05 -0.00494941)
(0.00643696 -1.89257e-05 -0.00514577)
(-0.00033478 -0.00127042 -0.00324519)
(0.103924 0.0166526 -5.55082e-05)
(0.103669 0.0146865 -0.000224001)
(0.10079 0.0106971 -0.000449666)
(0.0972108 0.00660933 -0.00070066)
(0.0935393 0.0041735 -0.000999693)
(0.0900908 0.00292688 -0.00137409)
(0.0864824 0.00246984 -0.00184961)
(0.0824701 0.0024537 -0.00244445)
(0.0776151 0.00271726 -0.00317941)
(0.0717734 0.00315792 -0.00406126)
(0.0643359 0.00376137 -0.0051104)
(0.0554621 0.00441484 -0.00627433)
(0.0441855 0.00519072 -0.00756001)
(0.031403 0.00562379 -0.00863148)
(0.016198 0.00565262 -0.00901725)
(0.00237436 0.00210843 -0.0056565)
(0.1037 0.0106589 -6.41462e-05)
(0.106797 0.0130496 -0.000252574)
(0.107942 0.0112817 -0.000497212)
(0.10677 0.00836968 -0.000764831)
(0.104545 0.00627701 -0.00108224)
(0.10172 0.00510819 -0.00147967)
(0.0983343 0.0047492 -0.00198564)
(0.0942928 0.00496988 -0.0026207)
(0.0892349 0.00564582 -0.00340739)
(0.0830211 0.00667991 -0.00435532)
(0.0749823 0.00806403 -0.00548558)
(0.0652304 0.00965294 -0.00674853)
(0.0525933 0.0115124 -0.00814467)
(0.037979 0.0129259 -0.00932483)
(0.0200351 0.0133377 -0.00974574)
(0.0032294 0.00720475 -0.00607495)
(0.10186 0.0070881 -5.96903e-05)
(0.104671 0.010538 -0.000245923)
(0.106739 0.0102788 -0.000487572)
(0.106794 0.00869044 -0.000750329)
(0.105683 0.00731689 -0.00106165)
(0.10367 0.00657282 -0.00145137)
(0.100877 0.00654549 -0.0019473)
(0.0972794 0.00715279 -0.00256956)
(0.0925754 0.00835126 -0.00333973)
(0.0866615 0.0100991 -0.00426798)
(0.0788317 0.0124436 -0.00537369)
(0.0692001 0.0152648 -0.00661132)
(0.0563807 0.0186868 -0.00797704)
(0.0413048 0.0217504 -0.00913515)
(0.0221458 0.0234181 -0.00953701)
(0.00355074 0.0143844 -0.00591936)
(0.100936 0.00488792 -4.88185e-05)
(0.10304 0.00828449 -0.0002236)
(0.105047 0.00892056 -0.000454741)
(0.10563 0.00835677 -0.000706617)
(0.10523 0.00772091 -0.00100498)
(0.103904 0.00750899 -0.00137768)
(0.101745 0.00791552 -0.00185047)
(0.09874 0.00897364 -0.00244188)
(0.0946233 0.0107199 -0.00317115)
(0.089333 0.0131812 -0.00404801)
(0.0821294 0.0164719 -0.00508838)
(0.0731594 0.0205218 -0.0062522)
(0.0607288 0.0255464 -0.00752993)
(0.0458078 0.0303521 -0.0086156)
(0.0254558 0.0335347 -0.0089746)
(0.00458165 0.0212435 -0.00555104)
(0.100542 0.00354397 -3.56871e-05)
(0.102166 0.00648922 -0.000194855)
(0.10399 0.00753226 -0.000412084)
(0.104855 0.00764323 -0.000650463)
(0.104944 0.00761928 -0.000932808)
(0.104186 0.007924 -0.00128426)
(0.102623 0.00878904 -0.0017279)
(0.10024 0.0103273 -0.0022802)
(0.0967884 0.0126535 -0.00295732)
(0.0922441 0.0158963 -0.00376814)
(0.0858296 0.0202923 -0.00472393)
(0.0777418 0.0259571 -0.005791)
(0.0659239 0.0333836 -0.00695218)