/*--------------------------------*- C++ -*----------------------------------*\
| =========                 |                                                 |
| \\      /  F ield         | OpenFOAM: The Open Source CFD Toolbox           |
|  \\    /   O peration     | Version:  v1912                                 |
|   \\  /    A nd           | Website:  www.openfoam.com                      |
|    \\/     M anipulation  |                                                 |
\*---------------------------------------------------------------------------*/
FoamFile
{
    version     2.0;
    format      ascii;
    class       volVectorField;
    location    "0.86/solid";
    object      D_0_0;
}
// * * * * * * * * * * * * * * * * * * * * * * * * * * * * * * * * * * * * * //

dimensions      [0 1 0 0 0 0 0];


internalField   nonuniform List<vector> 
256
(
(2.96393e-08 4.14811e-08 3.27083e-08)
(4.05525e-09 2.43477e-08 2.98864e-08)
(-4.0382e-09 2.39418e-08 2.97171e-08)
(-2.85809e-08 3.98284e-08 3.22708e-08)
(4.89874e-08 3.26451e-08 6.41907e-08)
(1.01839e-08 2.1961e-08 6.04093e-08)
(-9.21169e-09 2.14053e-08 6.01955e-08)
(-4.66056e-08 3.08286e-08 6.36228e-08)
(5.19301e-08 1.57009e-08 8.21262e-08)
(1.17348e-08 1.14064e-08 7.7994e-08)
(-9.57363e-09 1.08104e-08 7.78011e-08)
(-4.83621e-08 1.3884e-08 8.16026e-08)
(5.13596e-08 6.54521e-11 9.62458e-08)
(1.1606e-08 -2.23386e-09 9.16029e-08)
(-8.22389e-09 -2.84539e-09 9.14261e-08)
(-4.65699e-08 -1.77627e-09 9.57602e-08)
(5.2173e-08 -1.51564e-08 1.10201e-07)
(1.19393e-08 -1.82069e-08 1.04958e-07)
(-7.32715e-09 -1.88327e-08 1.04783e-07)
(-4.61333e-08 -1.70312e-08 1.09719e-07)
(5.7023e-08 -3.23591e-08 1.25944e-07)
(1.39126e-08 -3.68764e-08 1.20156e-07)
(-8.07689e-09 -3.75174e-08 1.19972e-07)
(-4.97432e-08 -3.4262e-08 1.25433e-07)
(6.84132e-08 -5.8645e-08 1.44602e-07)
(1.81828e-08 -6.20824e-08 1.38858e-07)
(-1.11887e-08 -6.27113e-08 1.38653e-07)
(-5.9954e-08 -6.05029e-08 1.44031e-07)
(8.4264e-08 -1.18124e-07 1.62831e-07)
(2.28057e-08 -1.14139e-07 1.58297e-07)
(-1.48791e-08 -1.14478e-07 1.58059e-07)
(-7.47591e-08 -1.19206e-07 1.62176e-07)
(2.05372e-08 1.86528e-08 7.14101e-09)
(2.1413e-09 4.58105e-09 8.60673e-09)
(-2.03965e-09 4.32575e-09 8.64112e-09)
(-1.94436e-08 1.73931e-08 7.23737e-09)
(3.43138e-08 1.2083e-08 2.69822e-08)
(6.47491e-09 3.14776e-09 2.98447e-08)
(-5.35576e-09 2.66911e-09 2.98875e-08)
(-3.18962e-08 1.04642e-08 2.71041e-08)
(3.60557e-08 1.93942e-10 4.37289e-08)
(7.58311e-09 -3.50486e-09 4.7039e-08)
(-5.26669e-09 -4.07526e-09 4.70972e-08)
(-3.24714e-08 -1.557e-09 4.38921e-08)
(3.51514e-08 -1.26656e-08 5.74476e-08)
(7.40238e-09 -1.47678e-08 6.07682e-08)
(-3.86778e-09 -1.53724e-08 6.08419e-08)
(-3.03573e-08 -1.44906e-08 5.76504e-08)
(3.56801e-08 -2.63729e-08 7.02555e-08)
(7.70542e-09 -2.93642e-08 7.3423e-08)
(-2.93854e-09 -2.99887e-08 7.35025e-08)
(-2.96313e-08 -2.82489e-08 7.04703e-08)
(4.03389e-08 -4.16165e-08 8.34226e-08)
(9.6569e-09 -4.61976e-08 8.6404e-08)
(-3.65413e-09 -4.68409e-08 8.64782e-08)
(-3.3027e-08 -4.3533e-08 8.36177e-08)
(5.20379e-08 -6.27683e-08 9.61522e-08)
(1.40033e-08 -6.61711e-08 9.90523e-08)
(-6.81795e-09 -6.6812e-08 9.91128e-08)
(-4.35062e-08 -6.46652e-08 9.63029e-08)
(6.9007e-08 -1.11137e-07 1.03339e-07)
(1.87631e-08 -1.0596e-07 1.06279e-07)
(-1.06072e-08 -1.06332e-07 1.06329e-07)
(-5.93766e-08 -1.12303e-07 1.03454e-07)
(1.41716e-08 1.14561e-08 3.45154e-09)
(4.4931e-10 -2.47998e-10 5.44839e-09)
(-3.61479e-10 -4.65657e-10 5.47969e-09)
(-1.31247e-08 1.03087e-08 3.54129e-09)
(2.36757e-08 1.60874e-09 1.67317e-08)
(3.05452e-09 -5.74201e-09 2.05135e-08)
(-1.97255e-09 -6.18002e-09 2.05665e-08)
(-2.13388e-08 9.886e-11 1.68871e-08)
(2.45891e-08 -1.00676e-08 3.10625e-08)
(3.72516e-09 -1.32066e-08 3.5405e-08)
(-1.45674e-09 -1.37524e-08 3.54691e-08)
(-2.11016e-08 -1.17549e-08 3.12511e-08)
(2.36149e-08 -2.14599e-08 4.40751e-08)
(3.51253e-09 -2.34595e-08 4.85151e-08)
(-2.89379e-11 -2.40543e-08 4.85877e-08)
(-1.89236e-08 -2.32617e-08 4.42865e-08)
(2.41151e-08 -3.30086e-08 5.58703e-08)
(3.81205e-09 -3.60489e-08 6.0264e-08)
(9.07189e-10 -3.66737e-08 6.03398e-08)
(-1.8163e-08 -3.48901e-08 5.60875e-08)
(2.88279e-08 -4.5004e-08 6.65604e-08)
(5.76681e-09 -4.969e-08 7.08631e-08)
(1.98706e-10 -5.03417e-08 7.09355e-08)
(-2.15929e-08 -4.69499e-08 6.6763e-08)
(4.08017e-08 -6.1318e-08 7.47176e-08)
(1.01759e-08 -6.4809e-08 7.8915e-08)
(-3.01004e-09 -6.54668e-08 7.89804e-08)
(-3.23137e-08 -6.32674e-08 7.48932e-08)
(5.81032e-08 -1.03692e-07 7.70151e-08)
(1.50173e-08 -9.84885e-08 8.11434e-08)
(-6.85503e-09 -9.88839e-08 8.12076e-08)
(-4.84739e-08 -1.04922e-07 7.71788e-08)
(1.12755e-08 9.15278e-09 3.11551e-09)
(-2.75164e-10 -1.15559e-09 4.41225e-09)
(3.41527e-10 -1.36573e-09 4.43162e-09)
(-1.02809e-08 8.04403e-09 3.17557e-09)
(1.87158e-08 -2.59989e-09 1.30159e-08)
(1.46555e-09 -8.99011e-09 1.54864e-08)
(-4.49919e-10 -9.4129e-09 1.55261e-08)
(-1.64808e-08 -4.06121e-09 1.31392e-08)
(1.93422e-08 -1.51795e-08 2.44336e-08)
(1.93245e-09 -1.79834e-08 2.72609e-08)
(2.44008e-10 -1.85153e-08 2.73107e-08)
(-1.59789e-08 -1.68286e-08 2.45882e-08)
(1.85503e-08 -2.61576e-08 3.55267e-08)
(1.76939e-09 -2.81304e-08 3.83872e-08)
(1.61322e-09 -2.87182e-08 3.84424e-08)
(-1.39905e-08 -2.79419e-08 3.56968e-08)
(1.92563e-08 -3.61359e-08 4.54905e-08)
(2.1403e-09 -3.9246e-08 4.82891e-08)
(2.47934e-09 -3.98713e-08 4.83458e-08)
(-1.34319e-08 -3.80221e-08 4.56634e-08)
(2.41424e-08 -4.5736e-08 5.37115e-08)
(4.13886e-09 -5.05167e-08 5.64315e-08)
(1.73552e-09 -5.11756e-08 5.64861e-08)
(-1.70205e-08 -4.77064e-08 5.38749e-08)
(3.61817e-08 -5.9404e-08 5.90134e-08)
(8.54592e-09 -6.30828e-08 6.16685e-08)
(-1.45777e-09 -6.37527e-08 6.17196e-08)
(-2.77825e-08 -6.13917e-08 5.91614e-08)
(5.33343e-08 -9.91885e-08 5.99133e-08)
(1.33665e-08 -9.45124e-08 6.26007e-08)
(-5.26406e-09 -9.49219e-08 6.26527e-08)
(-4.37636e-08 -1.0046e-07 6.00568e-08)
(1.01861e-08 8.22668e-09 2.81227e-09)
(-4.5243e-10 -1.38033e-09 3.46638e-09)
(5.03293e-10 -1.58712e-09 3.47888e-09)
(-9.22971e-09 7.14244e-09 2.85271e-09)
(1.69104e-08 -4.10327e-09 1.03388e-08)
(1.01927e-09 -1.0031e-08 1.15743e-08)
(-5.79449e-11 -1.04469e-08 1.16026e-08)
(-1.47586e-08 -5.53704e-09 1.04291e-08)
(1.7564e-08 -1.7154e-08 1.89254e-08)
(1.4558e-09 -1.98243e-08 2.03151e-08)
(6.38787e-10 -2.03491e-08 2.03521e-08)
(-1.43085e-08 -1.8781e-08 1.90432e-08)
(1.70204e-08 -2.80338e-08 2.74835e-08)
(1.37458e-09 -3.00352e-08 2.88501e-08)
(1.91319e-09 -3.06189e-08 2.88913e-08)
(-1.2579e-08 -2.98069e-08 2.76145e-08)
(1.79687e-08 -3.72062e-08 3.51415e-08)
(1.8315e-09 -4.03833e-08 3.64381e-08)
(2.69133e-09 -4.1009e-08 3.64804e-08)
(-1.22625e-08 -3.90951e-08 3.52752e-08)
(2.29972e-08 -4.56202e-08 4.1151e-08)
(3.87021e-09 -5.04657e-08 4.23881e-08)
(1.91256e-09 -5.11293e-08 4.24292e-08)
(-1.59845e-08 -4.76063e-08 4.12792e-08)
(3.49751e-08 -5.82199e-08 4.4737e-08)
(8.24036e-09 -6.20492e-08 4.5954e-08)
(-1.2344e-09 -6.27266e-08 4.59935e-08)
(-2.6669e-08 -6.02318e-08 4.48565e-08)
(5.18791e-08 -9.68203e-08 4.53558e-08)
(1.30089e-08 -9.26241e-08 4.66445e-08)
(-4.97649e-09 -9.30421e-08 4.6685e-08)
(-4.23815e-08 -9.81172e-08 4.54734e-08)
(9.78913e-09 7.79803e-09 2.21016e-09)
(-4.54704e-10 -1.47434e-09 2.50521e-09)
(4.95357e-10 -1.67857e-09 2.51335e-09)
(-8.85743e-09 6.7312e-09 2.2366e-09)
(1.63393e-08 -4.56968e-09 7.58175e-09)
(9.79578e-10 -1.03053e-08 8.12205e-09)
(-5.62594e-11 -1.07169e-08 8.14122e-09)
(-1.42447e-08 -5.98441e-09 7.64306e-09)
(1.71161e-08 -1.76704e-08 1.35436e-08)
(1.44996e-09 -2.03136e-08 1.41278e-08)
(5.8393e-10 -2.08343e-08 1.41535e-08)
(-1.39388e-08 -1.92827e-08 1.36258e-08)
(1.67787e-08 -2.84732e-08 1.94952e-08)
(1.44048e-09 -3.05212e-08 2.00399e-08)
(1.77361e-09 -3.11025e-08 2.00689e-08)
(-1.24267e-08 -3.02389e-08 1.95881e-08)
(1.79076e-08 -3.7329e-08 2.48028e-08)
(1.96137e-09 -4.05574e-08 2.52918e-08)
(2.48358e-09 -4.11833e-08 2.53218e-08)
(-1.22933e-08 -3.92191e-08 2.48987e-08)
(2.30173e-08 -4.53339e-08 2.88869e-08)
(4.02271e-09 -5.0213e-08 2.93405e-08)
(1.68429e-09 -5.08792e-08 2.93701e-08)
(-1.60919e-08 -4.73291e-08 2.89803e-08)
(3.49076e-08 -5.7617e-08 3.12829e-08)
(8.35402e-09 -6.15237e-08 3.17403e-08)
(-1.418e-09 -6.22055e-08 3.1769e-08)
(-2.66792e-08 -5.9643e-08 3.13715e-08)
(5.16035e-08 -9.56167e-08 3.17982e-08)
(1.30758e-08 -9.17053e-08 3.23174e-08)
(-5.10558e-09 -9.21282e-08 3.23468e-08)
(-4.21712e-08 -9.6929e-08 3.18858e-08)
(9.62808e-09 7.60178e-09 1.39832e-09)
(-4.32177e-10 -1.5117e-09 1.52154e-09)
(4.66681e-10 -1.7142e-09 1.52622e-09)
(-8.71085e-09 6.54591e-09 1.41337e-09)
(1.61513e-08 -4.66725e-09 4.63059e-09)
(1.01469e-09 -1.03294e-08 4.84637e-09)
(-1.14953e-10 -1.0738e-08 4.85756e-09)
(-1.40913e-08 -6.06938e-09 4.66609e-09)
(1.70323e-08 -1.76709e-08 8.13782e-09)
(1.52072e-09 -2.03221e-08 8.35843e-09)
(4.74186e-10 -2.08402e-08 8.37365e-09)
(-1.3904e-08 -1.92735e-08 8.18616e-09)
(1.68272e-08 -2.83962e-08 1.16182e-08)
(1.55775e-09 -3.04827e-08 1.18087e-08)
(1.60736e-09 -3.10625e-08 1.18261e-08)
(-1.25331e-08 -3.01568e-08 1.16735e-08)
(1.80628e-08 -3.71574e-08 1.47124e-08)
(2.11572e-09 -4.04176e-08 1.48699e-08)
(2.27599e-09 -4.10434e-08 1.48881e-08)
(-1.25096e-08 -3.90475e-08 1.47703e-08)
(2.32106e-08 -4.50865e-08 1.7082e-08)
(4.18687e-09 -4.99783e-08 1.72227e-08)
(1.46715e-09 -5.06459e-08 1.72407e-08)
(-1.63446e-08 -4.70863e-08 1.71389e-08)
(3.50339e-08 -5.73247e-08 1.84808e-08)
(8.49099e-09 -6.12594e-08 1.86303e-08)
(-1.6049e-09 -6.19434e-08 1.8648e-08)
(-2.68596e-08 -5.93584e-08 1.85354e-08)
(5.1592e-08 -9.50199e-08 1.88349e-08)
(1.31809e-08 -9.12431e-08 1.9022e-08)
(-5.25616e-09 -9.16686e-08 1.904e-08)
(-4.22069e-08 -9.63406e-08 1.88891e-08)
(9.5634e-09 7.52629e-09 4.77199e-10)
(-4.19813e-10 -1.52149e-09 5.11141e-10)
(4.51439e-10 -1.72312e-09 5.12673e-10)
(-8.65286e-09 6.47566e-09 4.82096e-10)
(1.60836e-08 -4.66608e-09 1.55659e-09)
(1.03677e-09 -1.03031e-08 1.61412e-09)
(-1.48229e-10 -1.07102e-08 1.6178e-09)
(-1.40397e-08 -6.06195e-09 1.56821e-09)
(1.70169e-08 -1.75906e-08 2.71395e-09)
(1.56129e-09 -2.02511e-08 2.77026e-09)
(4.14732e-10 -2.07679e-08 2.7753e-09)
(-1.3912e-08 -1.91883e-08 2.72989e-09)
(1.68736e-08 -2.82686e-08 3.85707e-09)
(1.61994e-09 -3.03752e-08 3.90268e-09)
(1.52098e-09 -3.09543e-08 3.90847e-09)
(-1.26076e-08 -3.00265e-08 3.87545e-09)
(1.81567e-08 -3.70104e-08 4.87155e-09)
(2.19408e-09 -4.02851e-08 4.90649e-09)
(2.17086e-09 -4.09109e-08 4.91256e-09)
(-1.26337e-08 -3.89002e-08 4.89087e-09)
(2.33189e-08 -4.49489e-08 5.64826e-09)
(4.26856e-09 -4.9844e-08 5.67847e-09)
(1.35842e-09 -5.05122e-08 5.68453e-09)
(-1.64827e-08 -4.69506e-08 5.6674e-09)
(3.51081e-08 -5.7202e-08 6.11012e-09)
(8.5594e-09 -6.11432e-08 6.14426e-09)
(-1.69913e-09 -6.18282e-08 6.15022e-09)
(-2.69614e-08 -5.9239e-08 6.12859e-09)
(5.15989e-08 -9.477e-08 6.23629e-09)
(1.32334e-08 -9.10428e-08 6.28271e-09)
(-5.33259e-09 -9.14694e-08 6.28878e-09)
(-4.22383e-08 -9.60943e-08 6.25462e-09)
)
;

boundaryField
{
    interface
    {
        type            solidTraction;
        traction        uniform (0 0 0);
        pressure        uniform 0;
        secondOrder     false;
        setEffectiveTraction false;
        relaxationFactor 1;
        value           nonuniform List<vector> 
192
(
(8.85168e-08 6.11378e-08 3.01436e-08)
(1.04209e-07 3.82177e-08 5.99281e-08)
(1.08322e-07 1.6294e-08 7.75216e-08)
(1.09528e-07 1.26244e-10 9.16149e-08)
(1.12467e-07 -1.37404e-08 1.05575e-07)
(1.20053e-07 -2.82988e-08 1.21345e-07)
(1.35058e-07 -5.18344e-08 1.40099e-07)
(1.57841e-07 -1.13503e-07 1.58498e-07)
(6.92383e-08 3.23655e-08 3.27385e-09)
(8.05901e-08 1.59626e-08 2.06539e-08)
(8.29923e-08 4.03322e-10 3.68932e-08)
(8.34104e-08 -1.27595e-08 5.0511e-08)
(8.58303e-08 -2.50759e-08 6.32406e-08)
(9.32732e-08 -3.75268e-08 7.63734e-08)
(1.09245e-07 -5.56009e-08 8.9249e-08)
(1.35703e-07 -1.06342e-07 9.67989e-08)
(5.66201e-08 2.09179e-08 1.13595e-09)
(6.51456e-08 4.21308e-09 1.28319e-08)
(6.68116e-08 -1.00828e-08 2.68839e-08)
(6.70847e-08 -2.15784e-08 3.99245e-08)
(6.94741e-08 -3.17052e-08 5.1764e-08)
(7.71331e-08 -4.0832e-08 6.2511e-08)
(9.37983e-08 -5.39988e-08 7.07533e-08)
(1.21266e-07 -9.87904e-08 7.30966e-08)
(5.00064e-08 1.66506e-08 2.11904e-09)
(5.69876e-08 -5.83235e-10 1.13244e-08)
(5.8485e-08 -1.52208e-08 2.26772e-08)
(5.897e-08 -2.6179e-08 3.38779e-08)
(6.16103e-08 -3.47377e-08 4.39538e-08)
(6.955e-08 -4.15044e-08 5.22537e-08)
(8.64764e-08 -5.21056e-08 5.75566e-08)
(1.13912e-07 -9.42482e-08 5.83571e-08)
(4.67345e-08 1.50008e-08 2.4406e-09)
(5.31385e-08 -2.25882e-09 9.74452e-09)
(5.47296e-08 -1.71265e-08 1.83688e-08)
(5.55108e-08 -2.79325e-08 2.70405e-08)
(5.84441e-08 -3.57118e-08 3.48042e-08)
(6.65902e-08 -4.13683e-08 4.08695e-08)
(8.35275e-08 -5.0999e-08 4.44184e-08)
(1.10648e-07 -9.18829e-08 4.4923e-08)
(4.50683e-08 1.43301e-08 2.07062e-09)
(5.13359e-08 -2.73795e-09 7.39191e-09)
(5.30849e-08 -1.75605e-08 1.34106e-08)
(5.41115e-08 -2.82753e-08 1.94468e-08)
(5.72651e-08 -3.57692e-08 2.48262e-08)
(6.55272e-08 -4.10836e-08 2.89401e-08)
(8.23937e-08 -5.047e-08 3.12975e-08)
(1.0921e-07 -9.07012e-08 3.17263e-08)
(4.42034e-08 1.40466e-08 1.34186e-09)
(5.04569e-08 -2.8162e-09 4.56661e-09)
(5.23282e-08 -1.75019e-08 8.11296e-09)
(5.35123e-08 -2.81385e-08 1.16418e-08)
(5.67975e-08 -3.55614e-08 1.47747e-08)
(6.51145e-08 -4.08434e-08 1.71573e-08)
(8.19118e-08 -5.02289e-08 1.85308e-08)
(1.08518e-07 -9.01279e-08 1.88337e-08)
(4.38237e-08 1.3938e-08 4.61021e-10)
(5.00788e-08 -2.80271e-09 1.53964e-09)
(5.20104e-08 -1.7393e-08 2.71008e-09)
(5.32682e-08 -2.79835e-08 3.86865e-09)
(5.66125e-08 -3.53989e-08 4.89501e-09)
(6.49505e-08 -4.07107e-08 5.67533e-09)
(8.17095e-08 -5.01315e-08 6.12866e-09)
(1.08211e-07 -8.98921e-08 6.23801e-09)
(3.02168e-08 6.5706e-08 9.28457e-08)
(5.01743e-08 4.49997e-08 1.20334e-07)
(5.32005e-08 2.37149e-08 1.39453e-07)
(5.25157e-08 7.08422e-09 1.55475e-07)
(5.31764e-08 -7.73171e-09 1.71641e-07)
(5.78767e-08 -2.37588e-08 1.90073e-07)
(6.92303e-08 -4.94232e-08 2.12186e-07)
(8.52983e-08 -1.13212e-07 2.37207e-07)
(3.30779e-09 4.69217e-08 8.35648e-08)
(9.18582e-09 3.3988e-08 1.10285e-07)
(1.06543e-08 1.92049e-08 1.28135e-07)
(1.04019e-08 4.50715e-09 1.43023e-07)
(1.05858e-08 -1.10686e-08 1.58215e-07)
(1.24206e-08 -2.84012e-08 1.75938e-07)
(1.66966e-08 -5.2547e-08 1.98513e-07)
(2.16139e-08 -1.09022e-07 2.27372e-07)
(-3.44178e-09 4.642e-08 8.2442e-08)
(-8.40766e-09 3.34264e-08 1.09164e-07)
(-8.67068e-09 1.86182e-08 1.27005e-07)
(-7.18371e-09 3.90023e-09 1.41881e-07)
(-6.13595e-09 -1.16961e-08 1.57055e-07)
(-6.75665e-09 -2.905e-08 1.74749e-07)
(-9.89472e-09 -5.31897e-08 1.97285e-07)
(-1.39084e-08 -1.09367e-07 2.26119e-07)
(-2.9252e-08 6.38018e-08 8.9679e-08)
(-4.79136e-08 4.31617e-08 1.17171e-07)
(-4.9742e-08 2.19184e-08 1.36236e-07)
(-4.78259e-08 5.25287e-09 1.52215e-07)
(-4.72369e-08 -9.61282e-09 1.68326e-07)
(-5.07072e-08 -2.56841e-08 1.86679e-07)
(-6.0901e-08 -5.13174e-08 2.08692e-07)
(-7.59487e-08 -1.14308e-07 2.337e-07)
(-8.26788e-08 5.86251e-08 2.9651e-08)
(-9.69923e-08 3.57741e-08 5.92916e-08)
(-9.98209e-08 1.38752e-08 7.69402e-08)
(-9.96979e-08 -2.33342e-09 9.10793e-08)
(-1.01289e-07 -1.62379e-08 1.05042e-07)
(-1.07548e-07 -3.08069e-08 1.20773e-07)
(-1.21298e-07 -5.42489e-08 1.39446e-07)
(-1.42909e-07 -1.15061e-07 1.57736e-07)
(-6.34476e-08 3.0228e-08 3.37327e-09)
(-7.3512e-08 1.37212e-08 2.07874e-08)
(-7.46698e-08 -1.94167e-09 3.70769e-08)
(-7.37715e-08 -1.52007e-08 5.07387e-08)
(-7.48229e-08 -2.75814e-08 6.34777e-08)
(-8.08866e-08 -4.00643e-08 7.65801e-08)
(-9.55262e-08 -5.80778e-08 8.93929e-08)
(-1.20736e-07 -1.0801e-07 9.68832e-08)
(-5.10312e-08 1.89246e-08 1.25058e-09)
(-5.82918e-08 2.09312e-09 1.30333e-08)
(-5.87289e-08 -1.23587e-08 2.71279e-08)
(-5.76897e-08 -2.39963e-08 4.01948e-08)
(-5.86927e-08 -3.42228e-08 5.20377e-08)
(-6.49266e-08 -4.34123e-08 6.27614e-08)
(-8.01879e-08 -5.65471e-08 7.09624e-08)
(-1.06328e-07 -1.00543e-07 7.32756e-08)
(-4.45907e-08 1.47345e-08 2.20179e-09)
(-5.03531e-08 -2.63669e-09 1.14941e-08)
(-5.06423e-08 -1.74512e-08 2.28899e-08)
(-4.98198e-08 -2.85787e-08 3.41107e-08)
(-5.10612e-08 -3.72646e-08 4.41883e-08)
(-5.75435e-08 -4.41187e-08 5.24728e-08)
(-7.30118e-08 -5.47058e-08 5.77503e-08)
(-9.90574e-08 -9.60565e-08 5.85338e-08)
(-4.14392e-08 1.31395e-08 2.49684e-09)
(-4.66687e-08 -4.26734e-09 9.87008e-09)
(-4.7075e-08 -1.93258e-08 1.85332e-08)
(-4.65568e-08 -3.03184e-08 2.72235e-08)
(-4.80847e-08 -3.82437e-08 3.49906e-08)
(-5.47529e-08 -4.40047e-08 4.10471e-08)
(-7.01974e-08 -5.36324e-08 4.45807e-08)
(-9.58854e-08 -9.37265e-08 4.50753e-08)
(-3.98487e-08 1.25067e-08 2.10688e-09)
(-4.49738e-08 -4.71406e-09 7.47623e-09)
(-4.5558e-08 -1.97372e-08 1.35247e-08)
(-4.5294e-08 -3.06502e-08 1.95766e-08)
(-4.70403e-08 -3.83027e-08 2.49605e-08)
(-5.38126e-08 -4.37326e-08 2.90703e-08)
(-6.91655e-08 -5.31231e-08 3.14192e-08)
(-9.45236e-08 -9.25661e-08 3.18422e-08)
(-3.90277e-08 1.22464e-08 1.36223e-09)
(-4.41584e-08 -4.77109e-09 4.61485e-09)
(-4.48787e-08 -1.96631e-08 8.17948e-09)
(-4.47793e-08 -3.05054e-08 1.17188e-08)
(-4.66575e-08 -3.80946e-08 1.48554e-08)
(-5.34787e-08 -4.34987e-08 1.72366e-08)
(-6.87509e-08 -5.28927e-08 1.8606e-08)
(-9.38837e-08 -9.20045e-08 1.89059e-08)
(-3.8668e-08 1.21488e-08 4.67595e-10)
(-4.38098e-08 -4.74716e-09 1.55533e-09)
(-4.45973e-08 -1.95463e-08 2.73188e-09)
(-4.45755e-08 -3.03461e-08 3.89409e-09)
(-4.65135e-08 -3.79314e-08 4.9219e-09)
(-5.33532e-08 -4.33686e-08 5.70194e-09)
(-6.85819e-08 -5.28e-08 6.15405e-09)
(-9.36035e-08 -9.17737e-08 6.26249e-09)
(8.558e-08 -1.92562e-07 1.6354e-07)
(7.01117e-08 -1.78816e-07 9.97314e-08)
(5.92546e-08 -1.67988e-07 7.40278e-08)
(5.46368e-08 -1.60973e-07 5.81952e-08)
(5.33002e-08 -1.56788e-07 4.44628e-08)
(5.30848e-08 -1.54386e-07 3.13481e-08)
(5.30952e-08 -1.5308e-07 1.86232e-08)
(5.31074e-08 -1.52503e-07 6.1738e-09)
(2.18953e-08 -1.83273e-07 1.58811e-07)
(1.75627e-08 -1.65714e-07 1.02367e-07)
(1.38161e-08 -1.54448e-07 7.82816e-08)
(1.23007e-08 -1.48104e-07 6.11346e-08)
(1.20653e-08 -1.44629e-07 4.59428e-08)
(1.22046e-08 -1.4268e-07 3.19722e-08)
(1.23439e-08 -1.416e-07 1.88564e-08)
(1.24091e-08 -1.41111e-07 6.23263e-09)
(-1.36111e-08 -1.8259e-07 1.58578e-07)
(-9.02036e-09 -1.6505e-07 1.02431e-07)
(-5.24565e-09 -1.53817e-07 7.83552e-08)
(-3.77636e-09 -1.47493e-07 6.11923e-08)
(-3.60235e-09 -1.44031e-07 4.59866e-08)
(-3.79879e-09 -1.42088e-07 3.20035e-08)
(-3.9809e-09 -1.41011e-07 1.88753e-08)
(-4.06883e-09 -1.40523e-07 6.23899e-09)
(-7.56487e-08 -1.90765e-07 1.62899e-07)
(-6.00296e-08 -1.77015e-07 9.98836e-08)
(-4.91529e-08 -1.66266e-07 7.4218e-08)
(-4.45796e-08 -1.59307e-07 5.83556e-08)
(-4.3307e-08 -1.55155e-07 4.45907e-08)
(-4.31514e-08 -1.52772e-07 3.14417e-08)
(-4.32059e-08 -1.51475e-07 1.86804e-08)
(-4.32414e-08 -1.50902e-07 6.19305e-09)
)
;
        gradient        uniform (0 0 0);
    }
    symmetry
    {
        type            solidSymmetry;
        patchType       symmetry;
        secondOrder     false;
        value           nonuniform List<vector> 
32
(
(9.5634e-09 7.52629e-09 0)
(1.60836e-08 -4.66608e-09 0)
(1.70169e-08 -1.75906e-08 0)
(1.68736e-08 -2.82686e-08 0)
(1.81567e-08 -3.70104e-08 0)
(2.33189e-08 -4.49489e-08 0)
(3.51081e-08 -5.7202e-08 0)
(5.15989e-08 -9.477e-08 0)
(-4.19813e-10 -1.52149e-09 0)
(1.03677e-09 -1.03031e-08 0)
(1.56129e-09 -2.02511e-08 0)
(1.61994e-09 -3.03752e-08 0)
(2.19408e-09 -4.02851e-08 0)
(4.26856e-09 -4.9844e-08 0)
(8.5594e-09 -6.11432e-08 0)
(1.32334e-08 -9.10428e-08 0)
(4.51439e-10 -1.72312e-09 0)
(-1.48229e-10 -1.07102e-08 0)
(4.14732e-10 -2.07679e-08 0)
(1.52098e-09 -3.09543e-08 0)
(2.17086e-09 -4.09109e-08 0)
(1.35842e-09 -5.05122e-08 0)
(-1.69913e-09 -6.18282e-08 0)
(-5.33259e-09 -9.14694e-08 0)
(-8.65286e-09 6.47566e-09 0)
(-1.40397e-08 -6.06195e-09 0)
(-1.3912e-08 -1.91883e-08 0)
(-1.26076e-08 -3.00265e-08 0)
(-1.26337e-08 -3.89002e-08 0)
(-1.64827e-08 -4.69506e-08 0)
(-2.69614e-08 -5.9239e-08 0)
(-4.22383e-08 -9.60943e-08 0)
)
;
    }
    bottom
    {
        type            fixedDisplacement;
        value           uniform (0 0 0);
    }
}


// ************************************************************************* //
