/*--------------------------------*- C++ -*----------------------------------*\
| =========                 |                                                 |
| \\      /  F ield         | OpenFOAM: The Open Source CFD Toolbox           |
|  \\    /   O peration     | Version:  v1912                                 |
|   \\  /    A nd           | Website:  www.openfoam.com                      |
|    \\/     M anipulation  |                                                 |
\*---------------------------------------------------------------------------*/
FoamFile
{
    version     2.0;
    format      ascii;
    class       volVectorField;
    location    "0.86/solid";
    object      DD;
}
// * * * * * * * * * * * * * * * * * * * * * * * * * * * * * * * * * * * * * //

dimensions      [0 1 0 0 0 0 0];


internalField   nonuniform List<vector> 
256
(
(1.9365e-10 2.08531e-10 2.46467e-10)
(4.62292e-11 1.37262e-10 2.39472e-10)
(-6.29098e-11 1.31051e-10 2.31276e-10)
(-1.90524e-10 1.87624e-10 2.22004e-10)
(3.67468e-10 1.89299e-10 5.8948e-10)
(9.50452e-11 1.22924e-10 5.76984e-10)
(-1.33846e-10 1.2083e-10 5.60029e-10)
(-3.78099e-10 1.86304e-10 5.38394e-10)
(4.0868e-10 3.05357e-11 8.38486e-10)
(1.01666e-10 4.02878e-13 8.18986e-10)
(-1.65903e-10 5.04671e-12 7.96882e-10)
(-4.44003e-10 4.88642e-11 7.7174e-10)
(4.00544e-10 -1.57986e-10 1.04619e-09)
(8.66418e-11 -1.69214e-10 1.01751e-09)
(-1.84385e-10 -1.57863e-10 9.9172e-10)
(-4.68945e-10 -1.20314e-10 9.68259e-10)
(3.94767e-10 -3.65133e-10 1.2468e-09)
(6.96175e-11 -3.76271e-10 1.20797e-09)
(-2.09757e-10 -3.58545e-10 1.17906e-09)
(-5.04942e-10 -3.09297e-10 1.15941e-09)
(4.24551e-10 -6.18438e-10 1.45999e-09)
(6.37879e-11 -6.32386e-10 1.41309e-09)
(-2.55842e-10 -6.08244e-10 1.38121e-09)
(-5.85858e-10 -5.44275e-10 1.36366e-09)
(5.0306e-10 -9.81508e-10 1.6807e-09)
(7.26236e-11 -9.79738e-10 1.63646e-09)
(-3.2761e-10 -9.4822e-10 1.6016e-09)
(-7.25277e-10 -8.86139e-10 1.5756e-09)
(5.77452e-10 -1.44637e-09 1.8413e-09)
(7.70582e-11 -1.41263e-09 1.81331e-09)
(-4.08051e-10 -1.3702e-09 1.77596e-09)
(-8.70678e-10 -1.31845e-09 1.72929e-09)
(1.32235e-10 7.75839e-11 1.11228e-10)
(3.06251e-11 1.60255e-11 1.21598e-10)
(-3.75204e-11 1.40062e-11 1.17884e-10)
(-1.22053e-10 6.58109e-11 1.00282e-10)
(2.58813e-10 4.77168e-12 3.44729e-10)
(6.6136e-11 -5.16444e-11 3.65223e-10)
(-8.14342e-11 -5.02463e-11 3.55038e-10)
(-2.50251e-10 8.48904e-12 3.15095e-10)
(2.8722e-10 -1.43077e-10 5.60706e-10)
(7.07731e-11 -1.6806e-10 5.82617e-10)
(-1.01491e-10 -1.61317e-10 5.67877e-10)
(-2.94005e-10 -1.21311e-10 5.17638e-10)
(2.76238e-10 -3.14204e-10 7.54647e-10)
(5.75148e-11 -3.2368e-10 7.73486e-10)
(-1.13902e-10 -3.11084e-10 7.5541e-10)
(-3.08722e-10 -2.74929e-10 7.01485e-10)
(2.69548e-10 -5.03454e-10 9.38684e-10)
(4.26789e-11 -5.15478e-10 9.52542e-10)
(-1.3496e-10 -4.96971e-10 9.31631e-10)
(-3.37567e-10 -4.46963e-10 8.76898e-10)
(3.02191e-10 -7.25298e-10 1.11983e-09)
(3.97929e-11 -7.42586e-10 1.12838e-09)
(-1.78324e-10 -7.18055e-10 1.10483e-09)
(-4.15735e-10 -6.51324e-10 1.05005e-09)
(3.95432e-10 -1.02809e-09 1.28286e-09)
(5.43452e-11 -1.02688e-09 1.28802e-09)
(-2.50817e-10 -9.95721e-10 1.2622e-09)
(-5.6461e-10 -9.34614e-10 1.2061e-09)
(4.96379e-10 -1.42569e-09 1.37653e-09)
(6.57577e-11 -1.37522e-09 1.38069e-09)
(-3.34103e-10 -1.33457e-09 1.35391e-09)
(-7.31589e-10 -1.30285e-09 1.29644e-09)
(7.56015e-11 2.6126e-11 5.58893e-11)
(1.46779e-11 -2.10439e-11 7.2256e-11)
(-1.70007e-11 -2.25942e-11 6.97383e-11)
(-6.15729e-11 1.3991e-11 4.87167e-11)
(1.54339e-10 -8.85605e-11 2.15043e-10)
(3.4889e-11 -1.32714e-10 2.46839e-10)
(-3.68688e-11 -1.31032e-10 2.39809e-10)
(-1.33811e-10 -8.63264e-11 1.95083e-10)
(1.70759e-10 -2.45438e-10 3.92129e-10)
(3.65874e-11 -2.65725e-10 4.28006e-10)
(-4.59821e-11 -2.59164e-10 4.17378e-10)
(-1.57939e-10 -2.26195e-10 3.61648e-10)
(1.59108e-10 -4.07984e-10 5.64665e-10)
(2.498e-11 -4.17563e-10 5.9948e-10)
(-5.30474e-11 -4.05571e-10 5.85962e-10)
(-1.6525e-10 -3.72026e-10 5.2547e-10)
(1.53909e-10 -5.74934e-10 7.26187e-10)
(1.24872e-11 -5.89637e-10 7.5799e-10)
(-7.04484e-11 -5.72058e-10 7.41961e-10)
(-1.89705e-10 -5.2235e-10 6.79335e-10)
(1.9055e-10 -7.5806e-10 8.70521e-10)
(1.25648e-11 -7.79478e-10 8.98459e-10)
(-1.11632e-10 -7.56213e-10 8.80193e-10)
(-2.66657e-10 -6.88665e-10 8.16792e-10)
(2.93736e-10 -1.00475e-09 9.78102e-10)
(3.19158e-11 -1.0065e-09 1.00164e-09)
(-1.84463e-10 -9.77068e-10 9.81724e-10)
(-4.20718e-10 -9.16856e-10 9.19013e-10)
(4.09343e-10 -1.34499e-09 1.01369e-09)
(4.86454e-11 -1.29115e-09 1.03342e-09)
(-2.68973e-10 -1.25271e-09 1.01327e-09)
(-5.97831e-10 -1.22876e-09 9.53127e-10)
(4.62125e-11 4.92188e-12 4.18898e-11)
(6.49956e-12 -3.13055e-11 5.40932e-11)
(-6.60953e-12 -3.3164e-11 5.22234e-11)
(-2.98324e-11 -8.90935e-12 3.66928e-11)
(9.9549e-11 -1.26648e-10 1.61605e-10)
(1.85114e-11 -1.61969e-10 1.84973e-10)
(-1.29697e-11 -1.61173e-10 1.79906e-10)
(-7.14758e-11 -1.28077e-10 1.47455e-10)
(1.1113e-10 -2.90757e-10 3.0175e-10)
(1.94805e-11 -3.08314e-10 3.27742e-10)
(-1.55594e-11 -3.02957e-10 3.20006e-10)
(-8.51523e-11 -2.76041e-10 2.79831e-10)
(1.02389e-10 -4.48623e-10 4.44089e-10)
(1.04508e-11 -4.59254e-10 4.68819e-10)
(-1.95535e-11 -4.48679e-10 4.58778e-10)
(-8.98543e-11 -4.17647e-10 4.15231e-10)
(1.01721e-10 -5.98017e-10 5.7596e-10)
(1.08048e-12 -6.15424e-10 5.9805e-10)
(-3.49407e-11 -5.99441e-10 5.85941e-10)
(-1.13741e-10 -5.50737e-10 5.40778e-10)
(1.42908e-10 -7.5263e-10 6.8505e-10)
(4.00744e-12 -7.7754e-10 7.04143e-10)
(-7.44543e-11 -7.56044e-10 6.90236e-10)
(-1.90643e-10 -6.88845e-10 6.44269e-10)
(2.49723e-10 -9.64635e-10 7.53786e-10)
(2.57226e-11 -9.70938e-10 7.69858e-10)
(-1.45654e-10 -9.43418e-10 7.54733e-10)
(-3.44163e-10 -8.82592e-10 7.08896e-10)
(3.6791e-10 -1.27433e-09 7.62915e-10)
(4.4478e-11 -1.22707e-09 7.77316e-10)
(-2.28434e-10 -1.19055e-09 7.62184e-10)
(-5.19939e-10 -1.16392e-09 7.17231e-10)
(3.51357e-11 -3.19701e-12 3.53011e-11)
(4.00394e-12 -3.37616e-11 4.17797e-11)
(-2.9444e-12 -3.59413e-11 4.04327e-11)
(-1.72907e-11 -1.83931e-11 3.16165e-11)
(7.97916e-11 -1.38306e-10 1.26924e-10)
(1.38554e-11 -1.69427e-10 1.38879e-10)
(-3.88244e-12 -1.69592e-10 1.35289e-10)
(-4.6973e-11 -1.43055e-10 1.17025e-10)
(9.16923e-11 -3.03158e-10 2.32749e-10)
(1.59162e-11 -3.20156e-10 2.45324e-10)
(-3.58346e-12 -3.16108e-10 2.39835e-10)
(-5.71006e-11 -2.92759e-10 2.17356e-10)
(8.71909e-11 -4.5669e-10 3.41185e-10)
(9.68589e-12 -4.68973e-10 3.52134e-10)
(-6.14845e-12 -4.59882e-10 3.44935e-10)
(-6.18954e-11 -4.30488e-10 3.20653e-10)
(9.14378e-11 -5.94939e-10 4.40471e-10)
(3.32472e-12 -6.14728e-10 4.49103e-10)
(-2.04555e-11 -6.0033e-10 4.40326e-10)
(-8.66299e-11 -5.52641e-10 4.15106e-10)
(1.36176e-10 -7.33752e-10 5.18478e-10)
(8.52435e-12 -7.61233e-10 5.24944e-10)
(-5.8493e-11 -7.41379e-10 5.14801e-10)
(-1.63294e-10 -6.75014e-10 4.88822e-10)
(2.43402e-10 -9.2937e-10 5.62423e-10)
(3.12124e-11 -9.39482e-10 5.67279e-10)
(-1.27275e-10 -9.13589e-10 5.56243e-10)
(-3.1375e-10 -8.52263e-10 5.2968e-10)
(3.60078e-10 -1.22551e-09 5.63406e-10)
(5.05462e-11 -1.18547e-09 5.68108e-10)
(-2.07475e-10 -1.15048e-09 5.5711e-10)
(-4.84785e-10 -1.11971e-09 5.30131e-10)
(3.18257e-11 -5.90971e-12 2.73113e-11)
(3.80261e-12 -3.40967e-11 3.01339e-11)
(-2.10458e-12 -3.65076e-11 2.92324e-11)
(-1.30929e-11 -2.20309e-11 2.48719e-11)
(7.5e-11 -1.39291e-10 9.29808e-11)
(1.40572e-11 -1.6908e-10 9.77786e-11)
(-1.45393e-12 -1.69975e-10 9.53898e-11)
(-3.92591e-11 -1.46449e-10 8.64575e-11)
(8.90152e-11 -3.01172e-10 1.66757e-10)
(1.77208e-11 -3.18765e-10 1.7114e-10)
(-1.4819e-13 -3.1576e-10 1.67485e-10)
(-4.89632e-11 -2.94077e-10 1.5659e-10)
(8.82741e-11 -4.5043e-10 2.41835e-10)
(1.38063e-11 -4.64383e-10 2.44713e-10)
(-2.083e-12 -4.56494e-10 2.3989e-10)
(-5.46287e-11 -4.27981e-10 2.28171e-10)
(9.63129e-11 -5.82389e-10 3.09763e-10)
(9.74687e-12 -6.04019e-10 3.10902e-10)
(-1.56921e-11 -5.90892e-10 3.04983e-10)
(-8.01751e-11 -5.44014e-10 2.92736e-10)
(1.43351e-10 -7.14124e-10 3.61553e-10)
(1.65479e-11 -7.43293e-10 3.61293e-10)
(-5.2473e-11 -7.24717e-10 3.5442e-10)
(-1.56266e-10 -6.5929e-10 3.41512e-10)
(2.50116e-10 -9.03443e-10 3.89075e-10)
(3.97202e-11 -9.15953e-10 3.88053e-10)
(-1.19103e-10 -8.91284e-10 3.80561e-10)
(-3.03589e-10 -8.30052e-10 3.66868e-10)
(3.64909e-10 -1.1935e-09 3.88361e-10)
(5.92623e-11 -1.15827e-09 3.87614e-10)
(-1.97084e-10 -1.1244e-09 3.80155e-10)
(-4.70275e-10 -1.0911e-09 3.65782e-10)
(3.10065e-11 -6.56182e-12 1.72452e-11)
(4.08635e-12 -3.38549e-11 1.83083e-11)
(-2.05495e-12 -3.64121e-11 1.77927e-11)
(-1.17719e-11 -2.32504e-11 1.58594e-11)
(7.45885e-11 -1.37177e-10 5.68661e-11)
(1.51541e-11 -1.66784e-10 5.84331e-11)
(-1.07577e-12 -1.68148e-10 5.70686e-11)
(-3.71659e-11 -1.45853e-10 5.31636e-11)
(9.05078e-11 -2.95589e-10 1.00366e-10)
(2.00834e-11 -3.1397e-10 1.01385e-10)
(5.34072e-13 -3.11654e-10 9.92951e-11)
(-4.7244e-11 -2.90644e-10 9.45852e-11)
(9.23161e-11 -4.41472e-10 1.4419e-10)
(1.77116e-11 -4.5668e-10 1.44202e-10)
(-1.09827e-12 -4.496e-10 1.41435e-10)
(-5.36481e-11 -4.21523e-10 1.36385e-10)
(1.02738e-10 -5.70177e-10 1.83468e-10)
(1.51232e-11 -5.93017e-10 1.82436e-10)
(-1.42295e-11 -5.80748e-10 1.79026e-10)
(-7.96432e-11 -5.34433e-10 1.73691e-10)
(1.51105e-10 -6.99254e-10 2.12959e-10)
(2.29314e-11 -7.29408e-10 2.1116e-10)
(-5.01061e-11 -7.11686e-10 2.07187e-10)
(-1.5515e-10 -6.47027e-10 2.01398e-10)
(2.57447e-10 -8.86558e-10 2.28247e-10)
(4.64157e-11 -9.00343e-10 2.26117e-10)
(-1.15258e-10 -8.76482e-10 2.21778e-10)
(-3.00246e-10 -8.15623e-10 2.15398e-10)
(3.70938e-10 -1.17378e-09 2.27563e-10)
(6.6091e-11 -1.14115e-09 2.25671e-10)
(-1.91739e-10 -1.108e-09 2.21351e-10)
(-4.63976e-10 -1.07361e-09 2.14489e-10)
(3.08321e-11 -6.608e-12 5.88796e-12)
(4.27906e-12 -3.36063e-11 6.15337e-12)
(-2.10589e-12 -3.62344e-11 5.98581e-12)
(-1.13713e-11 -2.35665e-11 5.43904e-12)
(7.4827e-11 -1.35441e-10 1.91367e-11)
(1.58214e-11 -1.65117e-10 1.9474e-11)
(-1.08167e-12 -1.66707e-10 1.90306e-11)
(-3.66365e-11 -1.44846e-10 1.79372e-11)
(9.17502e-11 -2.91746e-10 3.35043e-11)
(2.1398e-11 -3.10607e-10 3.36181e-11)
(6.17367e-13 -3.08629e-10 3.29382e-11)
(-4.69994e-11 -2.8785e-10 3.16293e-11)
(9.47982e-11 -4.35806e-10 4.78864e-11)
(1.97755e-11 -4.51665e-10 4.76522e-11)
(-8.78295e-13 -4.44987e-10 4.67506e-11)
(-5.37729e-11 -4.17091e-10 4.53496e-11)
(1.0634e-10 -5.63132e-10 6.07111e-11)
(1.78911e-11 -5.86564e-10 6.01321e-11)
(-1.37575e-11 -5.74722e-10 5.90189e-11)
(-7.99407e-11 -5.28698e-10 5.75248e-11)
(1.55318e-10 -6.91401e-10 7.02803e-11)
(2.61863e-11 -7.22003e-10 6.94582e-11)
(-4.91673e-11 -7.04706e-10 6.81591e-11)
(-1.55105e-10 -6.40472e-10 6.65041e-11)
(2.61454e-10 -8.78189e-10 7.51994e-11)
(4.98396e-11 -8.92512e-10 7.42843e-11)
(-1.13588e-10 -8.6905e-10 7.28642e-11)
(-2.99089e-10 -8.08474e-10 7.09959e-11)
(3.74316e-10 -1.16427e-09 7.49465e-11)
(6.9592e-11 -1.13273e-09 7.41154e-11)
(-1.89325e-10 -1.09994e-09 7.27014e-11)
(-4.61361e-10 -1.06519e-09 7.0667e-11)
)
;

boundaryField
{
    interface
    {
        type            calculated;
        value           nonuniform List<vector> 
192
(
(2.40123e-10 3.48811e-10 2.27163e-10)
(4.1722e-10 2.43056e-10 5.55348e-10)
(4.61838e-10 3.88038e-11 8.01253e-10)
(4.5751e-10 -1.61465e-10 1.00954e-09)
(4.53205e-10 -3.59132e-10 1.21154e-09)
(4.8048e-10 -5.91365e-10 1.42702e-09)
(5.5982e-10 -9.43283e-10 1.6522e-09)
(6.35951e-10 -1.42719e-09 1.81894e-09)
(1.58641e-10 1.75346e-10 8.17168e-11)
(2.93345e-10 4.35175e-11 2.91448e-10)
(3.23876e-10 -1.38722e-10 5.01226e-10)
(3.14209e-10 -3.18623e-10 6.94289e-10)
(3.07432e-10 -4.96966e-10 8.7847e-10)
(3.37923e-10 -6.93828e-10 1.06133e-09)
(4.37181e-10 -9.79538e-10 1.23053e-09)
(5.5405e-10 -1.40046e-09 1.3345e-09)
(8.81025e-11 8.36113e-11 3.4384e-11)
(1.76712e-10 -6.47716e-11 1.75227e-10)
(1.95901e-10 -2.44247e-10 3.48107e-10)
(1.85701e-10 -4.12198e-10 5.21203e-10)
(1.81207e-10 -5.67074e-10 6.84231e-10)
(2.17849e-10 -7.23104e-10 8.307e-10)
(3.30437e-10 -9.50054e-10 9.41675e-10)
(4.67503e-10 -1.31543e-09 9.81573e-10)
(5.22133e-11 4.13623e-11 3.17736e-11)
(1.17886e-10 -1.10419e-10 1.42968e-10)
(1.33214e-10 -2.90048e-10 2.81983e-10)
(1.26643e-10 -4.50976e-10 4.26111e-10)
(1.27839e-10 -5.87889e-10 5.60342e-10)
(1.7107e-10 -7.1563e-10 6.71457e-10)
(2.89771e-10 -9.08385e-10 7.41203e-10)
(4.30644e-10 -1.24281e-09 7.50599e-10)
(3.75171e-11 2.55349e-11 3.17046e-11)
(9.50222e-11 -1.24167e-10 1.20787e-10)
(1.11237e-10 -3.01309e-10 2.2722e-10)
(1.09571e-10 -4.56755e-10 3.37657e-10)
(1.16615e-10 -5.82693e-10 4.39119e-10)
(1.64746e-10 -6.95762e-10 5.18589e-10)
(2.8527e-10 -8.73395e-10 5.62522e-10)
(4.24624e-10 -1.19329e-09 5.62656e-10)
(3.2407e-11 2.07968e-11 2.62792e-11)
(8.82301e-11 -1.24994e-10 9.16802e-11)
(1.06866e-10 -2.97854e-10 1.66461e-10)
(1.09458e-10 -4.48606e-10 2.43117e-10)
(1.20957e-10 -5.68621e-10 3.12588e-10)
(1.72209e-10 -6.75674e-10 3.65285e-10)
(2.9299e-10 -8.48054e-10 3.92586e-10)
(4.30057e-10 -1.1611e-09 3.91076e-10)
(3.0853e-11 1.9837e-11 1.69969e-11)
(8.68408e-11 -1.22302e-10 5.6823e-11)
(1.07547e-10 -2.91158e-10 1.0105e-10)
(1.13013e-10 -4.38416e-10 1.45821e-10)
(1.27307e-10 -5.5548e-10 1.85975e-10)
(1.80352e-10 -6.60577e-10 2.15951e-10)
(3.01047e-10 -8.316e-10 2.31081e-10)
(4.36432e-10 -1.14139e-09 2.29915e-10)
(3.04464e-11 1.98068e-11 5.84437e-12)
(8.67171e-11 -1.20212e-10 1.91964e-11)
(1.08504e-10 -2.86754e-10 3.3815e-11)
(1.15366e-10 -4.32159e-10 4.85069e-11)
(1.30977e-10 -5.48003e-10 6.16119e-11)
(1.84839e-10 -6.52624e-10 7.13336e-11)
(3.0546e-10 -8.2344e-10 7.6201e-11)
(4.40011e-10 -1.13191e-09 7.5791e-11)
(2.01551e-10 4.17518e-10 2.68993e-10)
(3.81407e-10 3.37304e-10 6.11896e-10)
(4.22419e-10 1.44715e-10 8.6426e-10)
(4.11696e-10 -5.59057e-11 1.07658e-09)
(4.0269e-10 -2.61683e-10 1.27887e-09)
(4.29312e-10 -5.09963e-10 1.48804e-09)
(5.06251e-10 -8.8618e-10 1.70547e-09)
(5.81636e-10 -1.39628e-09 1.86303e-09)
(4.24302e-11 3.41376e-10 2.52271e-10)
(8.76798e-11 2.67802e-10 5.86838e-10)
(9.12621e-11 1.10535e-10 8.26861e-10)
(7.30213e-11 -7.19678e-11 1.02506e-09)
(5.26789e-11 -2.77373e-10 1.21333e-09)
(4.40918e-11 -5.25262e-10 1.41184e-09)
(5.28472e-11 -8.79683e-10 1.63453e-09)
(6.07223e-11 -1.35992e-09 1.82195e-09)
(-6.72786e-11 3.28877e-10 2.34125e-10)
(-1.43497e-10 2.62232e-10 5.61624e-10)
(-1.77718e-10 1.12971e-10 7.96437e-10)
(-1.967e-10 -6.23186e-11 9.90619e-10)
(-2.21899e-10 -2.61171e-10 1.17545e-09)
(-2.68204e-10 -5.02607e-10 1.37073e-09)
(-3.42827e-10 -8.49533e-10 1.59018e-09)
(-4.29057e-10 -1.31802e-09 1.77431e-09)
(-2.0503e-10 3.77723e-10 2.1485e-10)
(-4.06627e-10 3.23739e-10 5.33722e-10)
(-4.77391e-10 1.56332e-10 7.6955e-10)
(-5.03476e-10 -2.33961e-11 9.69602e-10)
(-5.39393e-10 -2.10447e-10 1.16156e-09)
(-6.20068e-10 -4.40226e-10 1.3611e-09)
(-7.60727e-10 -7.9473e-10 1.56921e-09)
(-9.09418e-10 -1.26982e-09 1.71884e-09)
(-1.76855e-10 3.29779e-10 1.97631e-10)
(-3.68061e-10 2.49674e-10 4.92165e-10)
(-4.36208e-10 7.15766e-11 7.17544e-10)
(-4.63505e-10 -1.05078e-10 9.10934e-10)
(-4.9948e-10 -2.80067e-10 1.10033e-09)
(-5.76264e-10 -4.89189e-10 1.30402e-09)
(-7.13808e-10 -8.14932e-10 1.5177e-09)
(-8.56455e-10 -1.26136e-09 1.67515e-09)
(-9.22549e-11 1.58887e-10 6.80442e-11)
(-2.29346e-10 5.14769e-11 2.54022e-10)
(-2.74619e-10 -1.06692e-10 4.46121e-10)
(-2.89579e-10 -2.64037e-10 6.25561e-10)
(-3.17072e-10 -4.20209e-10 7.98088e-10)
(-3.91591e-10 -5.94562e-10 9.70245e-10)
(-5.43595e-10 -8.55649e-10 1.12995e-09)
(-7.20537e-10 -1.2419e-09 1.22823e-09)
(-1.965e-11 6.28366e-11 2.5661e-11)
(-1.02871e-10 -6.22348e-11 1.50388e-10)
(-1.29347e-10 -2.18334e-10 3.09434e-10)
(-1.3719e-10 -3.64083e-10 4.70751e-10)
(-1.61135e-10 -4.96997e-10 6.23377e-10)
(-2.36473e-10 -6.3091e-10 7.60518e-10)
(-3.96878e-10 -8.34061e-10 8.639e-10)
(-5.89268e-10 -1.16572e-09 9.00213e-10)
(1.79837e-11 1.64176e-11 2.56218e-11)
(-3.72536e-11 -1.14247e-10 1.25745e-10)
(-5.43843e-11 -2.71446e-10 2.5462e-10)
(-6.03918e-11 -4.10498e-10 3.89391e-10)
(-8.49126e-11 -5.25539e-10 5.15008e-10)
(-1.62171e-10 -6.31238e-10 6.18427e-10)
(-3.24391e-10 -8.00266e-10 6.82153e-10)
(-5.16666e-10 -1.10088e-09 6.88969e-10)
(3.38843e-11 -2.32731e-12 2.74312e-11)
(-9.99814e-12 -1.33103e-10 1.0897e-10)
(-2.42051e-11 -2.89028e-10 2.08307e-10)
(-3.10181e-11 -4.23105e-10 3.11846e-10)
(-5.73289e-11 -5.2729e-10 4.06713e-10)
(-1.35641e-10 -6.18232e-10 4.80226e-10)
(-2.96123e-10 -7.71889e-10 5.19536e-10)
(-4.83663e-10 -1.05757e-09 5.17714e-10)
(3.97439e-11 -8.94308e-12 2.3492e-11)
(-4.70135e-13 -1.37482e-10 8.40051e-11)
(-1.4591e-11 -2.90234e-10 1.54125e-10)
(-2.28058e-11 -4.20177e-10 2.26109e-10)
(-5.05919e-11 -5.18603e-10 2.90989e-10)
(-1.2912e-10 -6.03434e-10 3.39476e-10)
(-2.87141e-10 -7.51548e-10 3.63491e-10)
(-4.69946e-10 -1.02998e-09 3.6058e-10)
(4.17298e-11 -1.10161e-11 1.54288e-11)
(2.5133e-12 -1.36985e-10 5.25076e-11)
(-1.21326e-11 -2.86523e-10 9.40938e-11)
(-2.14538e-11 -4.13422e-10 1.36171e-10)
(-5.01047e-11 -5.09056e-10 1.73632e-10)
(-1.28495e-10 -5.91875e-10 2.01107e-10)
(-2.84608e-10 -7.38415e-10 2.14273e-10)
(-4.6409e-10 -1.01329e-09 2.1226e-10)
(4.23336e-11 -1.15647e-11 5.33885e-12)
(3.37037e-12 -1.35939e-10 1.78048e-11)
(-1.16412e-11 -2.83565e-10 3.1568e-11)
(-2.14964e-11 -4.08855e-10 4.53806e-11)
(-5.05155e-11 -5.03363e-10 5.75991e-11)
(-1.28763e-10 -5.85683e-10 6.64926e-11)
(-2.8389e-10 -7.31909e-10 7.07064e-11)
(-4.61717e-10 -1.0053e-09 7.00131e-11)
(5.78607e-10 -1.46912e-09 1.86117e-09)
(4.96379e-10 -1.45227e-09 1.35118e-09)
(4.10665e-10 -1.3762e-09 9.75848e-10)
(3.71856e-10 -1.31201e-09 7.33044e-10)
(3.66179e-10 -1.26559e-09 5.43199e-10)
(3.72299e-10 -1.23425e-09 3.75431e-10)
(3.78975e-10 -1.21483e-09 2.20257e-10)
(3.82611e-10 -1.20549e-09 7.25687e-11)
(5.80157e-11 -1.42225e-09 1.83031e-09)
(4.29753e-11 -1.37502e-09 1.35032e-09)
(2.55748e-11 -1.29281e-09 9.96382e-10)
(2.3534e-11 -1.23724e-09 7.50895e-10)
(3.17875e-11 -1.20037e-09 5.50909e-10)
(4.19858e-11 -1.17548e-09 3.76535e-10)
(4.96446e-11 -1.15956e-09 2.19284e-10)
(5.35076e-11 -1.15168e-09 7.20097e-11)
(-4.31597e-10 -1.3694e-09 1.79314e-09)
(-3.52196e-10 -1.32463e-09 1.32454e-09)
(-2.84573e-10 -1.24474e-09 9.77266e-10)
(-2.44224e-10 -1.1911e-09 7.36625e-10)
(-2.23916e-10 -1.15573e-09 5.4057e-10)
(-2.1388e-10 -1.13194e-09 3.69537e-10)
(-2.08627e-10 -1.11673e-09 2.15237e-10)
(-2.06211e-10 -1.1092e-09 7.06856e-11)
(-9.12163e-10 -1.30872e-09 1.7497e-09)
(-7.69996e-10 -1.29761e-09 1.27402e-09)
(-6.35339e-10 -1.22819e-09 9.18394e-10)
(-5.58119e-10 -1.16978e-09 6.89969e-10)
(-5.23552e-10 -1.1279e-09 5.11926e-10)
(-5.09163e-10 -1.09985e-09 3.54256e-10)
(-5.02737e-10 -1.08258e-09 2.08013e-10)
(-4.99996e-10 -1.07429e-09 6.85636e-11)
)
;
    }
    symmetry
    {
        type            symmetry;
    }
    bottom
    {
        type            calculated;
        value           uniform (0 0 0);
    }
}


// ************************************************************************* //
