/*--------------------------------*- C++ -*----------------------------------*\
| =========                 |                                                 |
| \\      /  F ield         | OpenFOAM: The Open Source CFD Toolbox           |
|  \\    /   O peration     | Version:  v1912                                 |
|   \\  /    A nd           | Website:  www.openfoam.com                      |
|    \\/     M anipulation  |                                                 |
\*---------------------------------------------------------------------------*/
FoamFile
{
    version     2.0;
    format      ascii;
    class       volVectorField;
    location    "0.86/solid";
    object      heatFlux;
}
// * * * * * * * * * * * * * * * * * * * * * * * * * * * * * * * * * * * * * //

dimensions      [1 0 -3 0 0 0 0];


internalField   nonuniform List<vector> 
256
(
(-63678 74199.4 -66946.8)
(-13387.4 44575.3 -65974.3)
(11807.2 44006.9 -64606.9)
(56334.1 71245.6 -62950.4)
(-60163.1 11759.8 -63833.4)
(-16805.1 7798.2 -66028.5)
(14863 7714.11 -64616.4)
(52474.1 11399.3 -59820.4)
(-61222 2871.87 -65028.6)
(-17433.1 1828.43 -67651.6)
(15408.4 1802.11 -66184.1)
(53378.4 2763.14 -60881.9)
(-63039.5 2634.93 -66874.9)
(-17874.9 1609.4 -69692.1)
(15797.7 1593 -68184)
(55034.3 2557.91 -62622.8)
(-65552.6 4391.82 -69386.3)
(-18475.1 2937.23 -72548.8)
(16356.9 2922.79 -71010.2)
(57391.3 4325.56 -65053.7)
(-69009 10020.3 -72857.3)
(-19343.9 8204.53 -76777.1)
(17186 8164.7 -75209.3)
(60697.5 9897.72 -68448.2)
(-72114.2 29468.1 -76086.9)
(-20330.6 29120 -81448.2)
(18050.1 28858.1 -79850.7)
(63613.6 28755.7 -71606)
(-65960 70369 -70253.1)
(-19953.9 77023.5 -76930.7)
(16821.8 75492.7 -75415.1)
(57021.9 66102.3 -66040.2)
(-61162.7 40766.9 -18481.1)
(-12184.6 12962.2 -16256.8)
(11268.6 12783.9 -16063)
(54224.6 38917.5 -17915.6)
(-61119.6 7146.89 -23782)
(-15798.4 2887.12 -21557.8)
(14686.7 2859.76 -21310.5)
(53945.6 6936.99 -23069.2)
(-62635.2 1734.17 -24696.1)
(-16471.7 613.07 -22497.8)
(15318.4 604.196 -22237)
(55313.9 1667.96 -23949.4)
(-64658 1587.94 -25234.7)
(-16928.4 486.901 -23045.3)
(15741.6 479.441 -22778.2)
(57170.1 1529.25 -24474.5)
(-67542 2904.68 -25946.6)
(-17580.2 1233.35 -23810.1)
(16360.8 1224.2 -23539.8)
(59879 2843.62 -25184.2)
(-71814.4 8051.9 -27008.2)
(-18608.9 5674.18 -25058.3)
(17351.9 5637.13 -24786.7)
(63966.8 7924.27 -26252.9)
(-76523.6 28506.2 -28462.7)
(-19995 27045.8 -27025.7)
(18610.9 26769.3 -26754.7)
(68445.8 27738 -27724.1)
(-72191.1 76259.8 -29414.6)
(-20345.7 81591.4 -29091.5)
(18044.1 79970.5 -28836.8)
(63629.4 71702.5 -28736.7)
(-55210.6 31936.3 -4939.77)
(-10969.3 6760.74 -2957.5)
(10148.4 6633.37 -2932.59)
(48518.9 30260.8 -4840.46)
(-55901.4 5544.85 -6732.61)
(-14333.6 1557.13 -4304.85)
(13351.6 1540.17 -4269.74)
(49001.6 5365.52 -6599.65)
(-57417.3 1419.17 -7016.66)
(-14974 340.935 -4529.92)
(13956.8 334.431 -4492.7)
(50369.4 1357.85 -6878.16)
(-59400.1 1384.44 -7128)
(-15418.3 297.181 -4621.43)
(14368.5 290.172 -4583.69)
(52180.3 1323.06 -6989.82)
(-62294.5 2618.36 -7256.77)
(-16068.3 924.209 -4744.13)
(14982.7 914.292 -4706.71)
(54881.3 2547.18 -7123.98)
(-66703.6 7504.11 -7470.07)
(-17122.4 4988.88 -4983.3)
(15991.5 4949.78 -4947.12)
(59067.8 7357.83 -7349.4)
(-71915.7 27061.6 -8015.59)
(-18622.6 25086.8 -5667.19)
(17351.6 24807.9 -5633.38)
(63993.8 26271.9 -7914.98)
(-69188.1 73120.6 -9957.33)
(-19376.1 76999.4 -8175)
(17176.5 75395 -8142.78)
(60739.2 68597.8 -9874.32)
(-51003.7 29094.5 -1795.18)
(-10177.4 5699.83 -537.53)
(9385.61 5581.56 -532.049)
(44482.6 27477.4 -1753.99)
(-51733.5 5070 -2382.88)
(-13335.5 1314.7 -796.319)
(12391.9 1299.64 -788.456)
(45015.3 4899.3 -2329.48)
(-53191 1338.78 -2467.78)
(-13947.8 296.49 -837.355)
(12970.2 290.238 -829.114)
(46325.9 1277.79 -2412.86)
(-55133.2 1347.83 -2491.51)
(-14384.1 272.699 -849.466)
(13373.2 265.435 -841.287)
(48091.8 1283.43 -2437.74)
(-58008.8 2562.62 -2513.56)
(-15030.2 871.474 -865.401)
(13980.9 860.776 -857.602)
(50760.1 2484.05 -2463.71)
(-62430.7 7293.08 -2567.64)
(-16085.9 4751.12 -917.626)
(14985.8 4710.45 -910.693)
(54932.9 7133.27 -2525.8)
(-67785.2 26018.9 -2845.92)
(-17612.8 23854.1 -1221.66)
(16363.1 23573.7 -1216.37)
(59957.9 25213.1 -2817.96)
(-65876.2 69784.6 -4286.28)
(-18531.1 72892.8 -2883.7)
(16344.8 71299.2 -2879.56)
(57481.8 65287 -4271.88)
(-48425.8 27758.2 -909.727)
(-9706.19 5426.9 -162.72)
(8931.97 5312.86 -159.889)
(42019 26177.3 -883.966)
(-49129.4 4872.25 -1177.92)
(-12739.2 1257.31 -234.125)
(11818.4 1243.1 -230.079)
(42531.7 4706.64 -1144.69)
(-50551.2 1310.55 -1212.5)
(-13335.3 287.788 -244.084)
(12381.3 281.6 -239.868)
(43807.5 1249.59 -1178.4)
(-52472.5 1338.66 -1219.41)
(-13768.1 269.134 -245.869)
(12780.3 261.684 -241.722)
(45549.2 1272.22 -1186.2)
(-55336.3 2542.24 -1225.46)
(-14412.3 856.049 -248.655)
(13384.4 844.885 -244.744)
(48196.3 2459.11 -1194.76)
(-59748.7 7171.75 -1252.38)
(-15465.5 4632.62 -269.111)
(14383.3 4591.02 -265.705)
(52342 7003.57 -1226.54)
(-65128.3 25343 -1425.38)
(-16993 23120.7 -435.765)
(15755.3 22839.1 -433.357)
(57365 24525.8 -1408.07)
(-63588.9 67494.9 -2357.83)
(-17969.4 70247.7 -1443.02)
(15788.3 68658.3 -1441.72)
(55229.9 63005.3 -2350.62)
(-46874.4 27006.9 -513.676)
(-9427.58 5302.98 -78.9511)
(8664.36 5191.59 -77.226)
(40538.2 25448.7 -498.034)
(-47561.1 4767.22 -658.807)
(-12387.7 1233.33 -111.311)
(11481.4 1219.66 -108.827)
(41037.4 4604.87 -638.514)
(-48964.8 1297.29 -676.136)
(-12975.1 284.746 -115.378)
(12035.9 278.596 -112.788)
(42295.2 1236.29 -655.307)
(-50876 1334.87 -678.862)
(-13406.4 268.128 -115.814)
(12432.9 260.56 -113.268)
(44024 1267.07 -658.662)
(-53732.2 2529.65 -681.993)
(-14049.5 848.232 -116.868)
(13034.8 836.792 -114.464)
(46657 2443.71 -663.364)
(-58130.3 7093.16 -699.659)
(-15099.2 4564.01 -128.082)
(14028.4 4521.84 -125.968)
(50777.4 6919.96 -683.911)
(-63498.3 24913.4 -808.925)
(-16620.8 22680.2 -224.73)
(15390.8 22397.7 -223.196)
(55772.7 24089 -798.199)
(-62127 66025.5 -1385.56)
(-17615 68611.5 -822.893)
(15437.2 67023.8 -822.133)
(53787.3 61538.3 -1381.36)
(-45985.6 26585.7 -268.773)
(-9269.74 5236.63 -40.0181)
(8512.89 5126.81 -39.083)
(39689.6 25040.8 -260.44)
(-46663.5 4709.79 -343.41)
(-12189.2 1220.88 -56.0551)
(11291.2 1207.54 -54.6992)
(40182.1 4549.37 -332.538)
(-48058.2 1290.49 -351.966)
(-12772 283.284 -57.9853)
(11841.4 277.159 -56.568)
(41430.8 1229.45 -340.799)
(-49964.2 1332.8 -353.179)
(-13202.5 267.645 -58.1469)
(12237.4 260.008 -56.753)
(43152.6 1264.17 -342.371)
(-52815.1 2521.44 -355.034)
(-13844.8 843.781 -58.69)
(12837.9 832.185 -57.372)
(45776.3 2433.87 -345.084)
(-57200.8 7044.81 -365.515)
(-14891.8 4524.76 -64.6657)
(13827.5 4482.28 -63.5003)
(49877.9 6868.74 -357.101)
(-62551.6 24657.1 -426.533)
(-16407.3 22425.9 -115.983)
(15181.9 22142.9 -115.121)
(54846.7 23828.3 -420.786)
(-61257.1 65146.2 -742.31)
(-17405.9 67652.4 -436.237)
(15229.9 66065.3 -435.818)
(52927.4 60659.5 -740.179)
(-45578.2 26394.7 -83.9572)
(-9197.89 5206.91 -12.397)
(8443.94 5097.81 -12.1013)
(39300.6 24855.7 -81.3486)
(-46252.5 4684.03 -107.107)
(-12099 1215.36 -17.3285)
(11204.9 1202.18 -16.898)
(39790.3 4524.51 -103.691)
(-47643.3 1287.52 -109.716)
(-12679.7 282.654 -17.913)
(11753.1 276.542 -17.4622)
(41035.2 1226.46 -106.205)
(-49547 1331.81 -110.077)
(-13110 267.424 -17.9585)
(12148.7 259.756 -17.5151)
(42753.7 1262.78 -106.682)
(-52395.2 2517.32 -110.712)
(-13751.8 841.713 -18.134)
(12748.4 830.045 -17.7146)
(45372.7 2428.98 -107.592)
(-56774 7021.67 -114.202)
(-14797.2 4506.71 -20.027)
(13736 4464.09 -19.6556)
(49464.3 6844.26 -111.568)
(-62114 24536.7 -133.861)
(-16309.4 22308.6 -36.1818)
(15086 22025.3 -35.9054)
(54418.1 23705.9 -132.07)
(-60849.8 64732.6 -234.617)
(-17308.5 67206 -137.352)
(15133.2 65619.1 -137.218)
(52524.2 60245.9 -233.986)
)
;

boundaryField
{
    interface
    {
        type            calculated;
        value           nonuniform List<vector> 
192
(
(-101082 74199.4 -66946.8)
(-87351.7 11759.8 -63833.4)
(-88247 2871.87 -65028.6)
(-91017.7 2634.93 -66874.9)
(-94857.3 4391.82 -69386.3)
(-100048 10020.3 -72857.3)
(-104349 29468.1 -76086.9)
(-93253.3 70369 -70253.1)
(-98112.1 40766.9 -18481.1)
(-90843 7146.89 -23782)
(-92537.7 1734.17 -24696.1)
(-95677.6 1587.94 -25234.7)
(-100149 2904.68 -25946.6)
(-106648 8051.9 -27008.2)
(-113357 28506.2 -28462.7)
(-104480 76259.8 -29414.6)
(-88596.1 31936.3 -4939.77)
(-83276.8 5544.85 -6732.61)
(-85034.1 1419.17 -7016.66)
(-88117.6 1384.44 -7128)
(-92613.9 2618.36 -7256.77)
(-99336.3 7504.11 -7470.07)
(-106826 27061.6 -8015.59)
(-100356 73120.6 -9957.33)
(-81758.7 29094.5 -1795.18)
(-76926.4 5070 -2382.88)
(-78622.8 1338.78 -2467.78)
(-81641.1 1347.83 -2491.51)
(-86108 2562.62 -2513.56)
(-92853.9 7293.08 -2567.64)
(-100577 26018.9 -2845.92)
(-95415.3 69784.6 -4286.28)
(-77541.8 27758.2 -909.727)
(-72905.9 4872.25 -1177.92)
(-74562.8 1310.55 -1212.5)
(-77546.5 1338.66 -1219.41)
(-81994 2542.24 -1225.46)
(-88726.6 7171.75 -1252.38)
(-96499.7 25343 -1425.38)
(-91962.6 67494.9 -2357.83)
(-74994.2 27006.9 -513.676)
(-70469.2 4767.22 -658.807)
(-72107.2 1297.29 -676.136)
(-75073.7 1334.87 -678.862)
(-79508.4 2529.65 -681.993)
(-86219.5 7093.16 -699.659)
(-93982.4 24913.4 -808.925)
(-89746.4 66025.5 -1385.56)
(-73530.8 26585.7 -268.773)
(-69069.1 4709.79 -343.41)
(-70698.3 1290.49 -351.966)
(-73656 1332.8 -353.179)
(-78081.8 2521.44 -355.034)
(-84774 7044.81 -365.515)
(-92514.7 24657.1 -426.533)
(-88424.2 65146.2 -742.31)
(-72859.4 26394.7 -83.9572)
(-68426.7 4684.03 -107.107)
(-70052.1 1287.52 -109.716)
(-73005.9 1331.81 -110.077)
(-77427.2 2517.32 -110.712)
(-84108.7 7021.67 -114.202)
(-91834.8 24536.7 -133.861)
(-87804.3 64732.6 -234.617)
(-63678 74199.4 -104382)
(-60163.1 11759.8 -90313.1)
(-61222 2871.87 -91320)
(-63039.5 2634.93 -94120.6)
(-65552.6 4391.82 -97941.4)
(-69009 10020.3 -103111)
(-72114.2 29468.1 -107406)
(-65960 70369 -95979)
(-13387.4 44575.3 -104498)
(-16805.1 7798.2 -96281.6)
(-17433.1 1828.43 -98030.1)
(-17874.9 1609.4 -101178)
(-18475.1 2937.23 -105580)
(-19343.9 8204.53 -111940)
(-20330.6 29120 -118318)
(-19953.9 77023.5 -108099)
(11807.2 44006.9 -102108)
(14863 7714.11 -93892.6)
(15408.4 1802.11 -95553.8)
(15797.7 1593 -98631.8)
(16356.9 2922.79 -102979)
(17186 8164.7 -109285)
(18050.1 28858.1 -115605)
(16821.8 75492.7 -105519)
(56334.1 71245.6 -97372.6)
(52474.1 11399.3 -83512.9)
(53378.4 2763.14 -84311)
(55034.3 2557.91 -86927.2)
(57391.3 4325.56 -90597.2)
(60697.5 9897.72 -95614.2)
(63613.6 28755.7 -99755)
(57021.9 66102.3 -88762.7)
(88552.7 71245.6 -62950.4)
(74586.5 11399.3 -59820.4)
(75270.7 2763.14 -60881.9)
(77784.8 2557.91 -62622.8)
(81366.7 4325.56 -65053.7)
(86305.6 9897.72 -68448.2)
(90345.4 28755.7 -71606)
(79159.2 66102.3 -66040.2)
(85756.2 38917.5 -17915.6)
(78317.2 6936.99 -23069.2)
(79780.2 1667.96 -23949.4)
(82638.7 1529.25 -24474.5)
(86810.8 2843.62 -25184.2)
(92993.1 7924.27 -26252.9)
(99370 27738 -27724.1)
(90381.1 71702.5 -28736.7)
(76627.3 30260.8 -4840.46)
(71158.9 5365.52 -6599.65)
(72677.7 1357.85 -6878.16)
(75469.4 1323.06 -6989.82)
(79635.5 2547.18 -7123.98)
(85978.7 7357.83 -7349.4)
(93044.6 26271.9 -7914.98)
(86393.6 68597.8 -9874.32)
(70087.8 27477.4 -1753.99)
(65116.3 4899.3 -2329.48)
(66575.2 1277.79 -2412.86)
(69294.2 1283.43 -2437.74)
(73407.6 2484.05 -2463.71)
(79729.9 7133.27 -2525.8)
(86957.5 25213.1 -2817.96)
(81548.8 65287 -4271.88)
(66071.4 26177.3 -883.966)
(61301.2 4706.64 -1144.69)
(62721.2 1249.59 -1178.4)
(65400.1 1272.22 -1186.2)
(69477.9 2459.11 -1194.76)
(75757.3 7003.57 -1226.54)
(82990.1 24525.8 -1408.07)
(78159.6 63005.3 -2350.62)
(63647.1 25448.7 -498.034)
(58989.8 4604.87 -638.514)
(60390.7 1236.29 -655.307)
(63047.7 1267.07 -658.662)
(67101.4 2443.71 -663.364)
(73340.5 6919.96 -683.911)
(80536.6 24089 -798.199)
(75977.7 61538.3 -1381.36)
(62254.3 25040.8 -260.44)
(57661.3 4549.37 -332.538)
(59052.9 1229.45 -340.799)
(61697.7 1264.17 -342.371)
(65735.7 2433.87 -345.084)
(71945 6868.74 -357.101)
(79103.6 23828.3 -420.786)
(74673.1 60659.5 -740.179)
(61614.8 24855.7 -81.3486)
(57051.3 4524.51 -103.691)
(58439.2 1226.46 -106.205)
(61078.2 1262.78 -106.682)
(65108.3 2428.98 -107.592)
(71301.7 6844.26 -111.568)
(78438.6 23705.9 -132.07)
(74060.2 60245.9 -233.986)
(-65960 96155.3 -70253.1)
(-72191.1 107696 -29414.6)
(-69188.1 103562 -9957.33)
(-65876.2 98629.3 -4286.28)
(-63588.9 95191.5 -2357.83)
(-62127 92976 -1385.56)
(-61257.1 91647.4 -742.31)
(-60849.8 91021.6 -234.617)
(-19953.9 108251 -76930.7)
(-20345.7 118571 -29091.5)
(-19376.1 112335 -8175)
(-18531.1 106189 -2883.7)
(-17969.4 102155 -1443.02)
(-17615 99641.3 -822.893)
(-17405.9 98161.3 -436.237)
(-17308.5 97470.8 -137.352)
(16821.8 105649 -75415.1)
(18044.1 115819 -28836.8)
(17176.5 109618 -8142.78)
(16344.8 103495 -2879.56)
(15788.3 99470.9 -1441.72)
(15437.2 96961 -822.133)
(15229.9 95482.8 -435.818)
(15133.2 94793.1 -137.218)
(57021.9 88865.6 -66040.2)
(63629.4 99926.6 -28736.7)
(60739.2 95881.9 -9874.32)
(57481.8 91014.3 -4271.88)
(55229.9 87604.7 -2350.62)
(53787.3 85402.1 -1381.36)
(52927.4 84079.3 -740.179)
(52524.2 83456 -233.986)
)
;
    }
    symmetry
    {
        type            symmetry;
    }
    bottom
    {
        type            calculated;
        value           nonuniform List<vector> 
32
(
(-63678 128450 -66946.8)
(-61162.7 69426.9 -18481.1)
(-55210.6 54525.1 -4939.77)
(-51003.7 49667.8 -1795.18)
(-48425.8 47344.3 -909.727)
(-46874.4 46028.9 -513.676)
(-45985.6 45289.6 -268.773)
(-45578.2 44953.8 -83.9572)
(-13387.4 75902.1 -65974.3)
(-12184.6 21000.5 -16256.8)
(-10969.3 10875 -2957.5)
(-10177.4 9170.48 -537.53)
(-9706.19 8724.92 -162.72)
(-9427.58 8519.6 -78.9511)
(-9269.74 8409.12 -40.0181)
(-9197.89 8359.53 -12.397)
(11807.2 74899.8 -64606.9)
(11268.6 20688.5 -16063)
(10148.4 10647.8 -2932.59)
(9385.61 8958.16 -532.049)
(8931.97 8519.58 -159.889)
(8664.36 8318.6 -77.226)
(8512.89 8210.67 -39.083)
(8443.94 8162.27 -12.1013)
(56334.1 123131 -62950.4)
(54224.6 66074.8 -17915.6)
(48518.9 51468.8 -4840.46)
(44482.6 46712.9 -1753.99)
(42019 44452.8 -883.966)
(40538.2 43177 -498.034)
(39689.6 42460.7 -260.44)
(39300.6 42135.3 -81.3486)
)
;
    }
}


// ************************************************************************* //
