/*--------------------------------*- C++ -*----------------------------------*\
| =========                 |                                                 |
| \\      /  F ield         | OpenFOAM: The Open Source CFD Toolbox           |
|  \\    /   O peration     | Version:  v1912                                 |
|   \\  /    A nd           | Website:  www.openfoam.com                      |
|    \\/     M anipulation  |                                                 |
\*---------------------------------------------------------------------------*/
FoamFile
{
    version     2.0;
    format      ascii;
    class       pointVectorField;
    location    "0.86/solid";
    object      pointDD;
}
// * * * * * * * * * * * * * * * * * * * * * * * * * * * * * * * * * * * * * //

dimensions      [0 1 0 0 0 0 0];


internalField   nonuniform List<vector> 
405
(
(1.47225e-10 2.55443e-10 1.65386e-10)
(6.09953e-11 1.89723e-10 1.30316e-10)
(-6.21208e-12 1.67563e-10 1.21599e-10)
(-6.80772e-11 1.7665e-10 1.12244e-10)
(-1.27295e-10 2.35834e-10 1.37494e-10)
(3.10075e-10 3.36672e-10 4.1585e-10)
(1.78267e-10 3.41e-10 4.3e-10)
(-2.01664e-11 3.00072e-10 4.08714e-10)
(-2.05608e-10 3.23143e-10 3.8608e-10)
(-2.89143e-10 3.20229e-10 3.59592e-10)
(4.20721e-10 1.9097e-10 7.08189e-10)
(2.45692e-10 2.15089e-10 7.22464e-10)
(-3.55683e-11 1.88385e-10 6.9294e-10)
(-3.01308e-10 2.13818e-10 6.65333e-10)
(-4.22072e-10 2.0033e-10 6.28245e-10)
(4.38366e-10 -8.46294e-12 9.37908e-10)
(2.496e-10 3.1844e-11 9.4819e-10)
(-5.25335e-11 2.23047e-11 9.09745e-10)
(-3.38821e-10 4.58969e-11 8.81552e-10)
(-4.70145e-10 2.48586e-11 8.41908e-10)
(4.31276e-10 -2.09546e-10 1.14413e-09)
(2.35022e-10 -1.66733e-10 1.14846e-09)
(-7.32246e-11 -1.68208e-10 1.10112e-09)
(-3.65367e-10 -1.39333e-10 1.07431e-09)
(-5.01464e-10 -1.54747e-10 1.03561e-09)
(4.41422e-10 -4.30536e-10 1.35137e-09)
(2.32193e-10 -3.9357e-10 1.34802e-09)
(-9.83329e-11 -3.91603e-10 1.29284e-09)
(-4.12391e-10 -3.53613e-10 1.26721e-09)
(-5.58801e-10 -3.54982e-10 1.23175e-09)
(4.93966e-10 -7.32698e-10 1.56818e-09)
(2.58126e-10 -7.00272e-10 1.55997e-09)
(-1.28523e-10 -6.89271e-10 1.50182e-09)
(-4.97956e-10 -6.46774e-10 1.4728e-09)
(-6.67717e-10 -6.34769e-10 1.43801e-09)
(5.70914e-10 -1.16324e-09 1.75991e-09)
(3.00364e-10 -1.13052e-09 1.75625e-09)
(-1.64579e-10 -1.10179e-09 1.70524e-09)
(-6.10507e-10 -1.05803e-09 1.66313e-09)
(-8.10102e-10 -1.03521e-09 1.62023e-09)
(5.98731e-10 -1.43087e-09 1.84772e-09)
(3.19745e-10 -1.41189e-09 1.84412e-09)
(-1.85479e-10 -1.3674e-09 1.80493e-09)
(-6.70559e-10 -1.31649e-09 1.759e-09)
(-8.92679e-10 -1.27997e-09 1.71456e-09)
(9.9691e-11 1.31039e-10 7.722e-11)
(0 0 0)
(0 0 0)
(0 0 0)
(-6.72775e-11 1.22166e-10 6.64189e-11)
(2.77332e-10 2.02683e-10 2.88919e-10)
(0 0 0)
(0 0 0)
(0 0 0)
(-2.16629e-10 1.97454e-10 2.52966e-10)
(3.7407e-10 4.6664e-11 5.37319e-10)
(0 0 0)
(0 0 0)
(0 0 0)
(-3.27059e-10 6.65089e-11 4.77463e-10)
(3.89358e-10 -1.45001e-10 7.51578e-10)
(0 0 0)
(0 0 0)
(0 0 0)
(-3.65978e-10 -1.01057e-10 6.7504e-10)
(3.83089e-10 -3.34046e-10 9.4846e-10)
(0 0 0)
(0 0 0)
(0 0 0)
(-3.92409e-10 -2.67348e-10 8.58729e-10)
(3.9476e-10 -5.35323e-10 1.14459e-09)
(0 0 0)
(0 0 0)
(0 0 0)
(-4.46102e-10 -4.46007e-10 1.04317e-09)
(4.53851e-10 -8.02004e-10 1.34277e-09)
(0 0 0)
(0 0 0)
(0 0 0)
(-5.56315e-10 -6.88583e-10 1.23048e-09)
(5.4675e-10 -1.18762e-09 1.50904e-09)
(0 0 0)
(0 0 0)
(0 0 0)
(-7.08599e-10 -1.04346e-09 1.38776e-09)
(5.66247e-10 -1.43726e-09 1.59145e-09)
(2.93994e-10 -1.42966e-09 1.59825e-09)
(-1.707e-10 -1.37283e-09 1.57458e-09)
(-6.16488e-10 -1.32509e-09 1.53535e-09)
(-8.14788e-10 -1.2774e-09 1.48177e-09)
(6.16858e-11 6.47393e-11 2.90252e-11)
(0 0 0)
(0 0 0)
(0 0 0)
(-2.79762e-11 5.54308e-11 2.34263e-11)
(1.792e-10 5.94258e-11 1.45694e-10)
(0 0 0)
(0 0 0)
(0 0 0)
(-1.11031e-10 5.27413e-11 1.24529e-10)
(2.47458e-10 -1.01056e-10 3.29002e-10)
(0 0 0)
(0 0 0)
(0 0 0)
(-1.84046e-10 -8.39459e-11 2.89991e-10)
(2.54922e-10 -2.78447e-10 5.16206e-10)
(0 0 0)
(0 0 0)
(0 0 0)
(-2.07684e-10 -2.38287e-10 4.62967e-10)
(2.47137e-10 -4.48715e-10 6.94548e-10)
(0 0 0)
(0 0 0)
(0 0 0)
(-2.26244e-10 -3.86331e-10 6.29444e-10)
(2.61103e-10 -6.20243e-10 8.63683e-10)
(0 0 0)
(0 0 0)
(0 0 0)
(-2.76568e-10 -5.35669e-10 7.88057e-10)
(3.30847e-10 -8.36631e-10 1.01606e-09)
(0 0 0)
(0 0 0)
(0 0 0)
(-3.92134e-10 -7.28795e-10 9.31154e-10)
(4.47293e-10 -1.16137e-09 1.12207e-09)
(0 0 0)
(0 0 0)
(0 0 0)
(-5.6257e-10 -1.02433e-09 1.03057e-09)
(4.82149e-10 -1.38609e-09 1.16077e-09)
(2.43898e-10 -1.37407e-09 1.16843e-09)
(-1.42055e-10 -1.3093e-09 1.16213e-09)
(-5.10526e-10 -1.27379e-09 1.12355e-09)
(-6.78785e-10 -1.23336e-09 1.08021e-09)
(3.50789e-11 3.12434e-11 1.65394e-11)
(0 0 0)
(0 0 0)
(0 0 0)
(-4.16581e-13 1.98135e-11 1.28207e-11)
(1.08728e-10 -1.25541e-11 9.60883e-11)
(0 0 0)
(0 0 0)
(0 0 0)
(-3.54479e-11 -2.43069e-11 8.1854e-11)
(1.55928e-10 -1.77371e-10 2.37072e-10)
(0 0 0)
(0 0 0)
(0 0 0)
(-8.09641e-11 -1.66565e-10 2.10047e-10)
(1.60365e-10 -3.49367e-10 3.94351e-10)
(0 0 0)
(0 0 0)
(0 0 0)
(-9.53282e-11 -3.1609e-10 3.56049e-10)
(1.55348e-10 -5.04534e-10 5.47972e-10)
(0 0 0)
(0 0 0)
(0 0 0)
(-1.10907e-10 -4.49279e-10 4.99632e-10)
(1.74491e-10 -6.48424e-10 6.86683e-10)
(0 0 0)
(0 0 0)
(0 0 0)
(-1.61173e-10 -5.71171e-10 6.29332e-10)
(2.52282e-10 -8.24293e-10 7.96259e-10)
(0 0 0)
(0 0 0)
(0 0 0)
(-2.79978e-10 -7.24119e-10 7.31249e-10)
(3.79589e-10 -1.10417e-09 8.53763e-10)
(0 0 0)
(0 0 0)
(0 0 0)
(-4.56801e-10 -9.75233e-10 7.83809e-10)
(4.20167e-10 -1.31161e-09 8.60266e-10)
(2.07907e-10 -1.30457e-09 8.64042e-10)
(-1.19922e-10 -1.24147e-09 8.65292e-10)
(-4.30564e-10 -1.20845e-09 8.30564e-10)
(-5.74848e-10 -1.16614e-09 7.99386e-10)
(2.24326e-11 1.67243e-11 1.58695e-11)
(0 0 0)
(0 0 0)
(0 0 0)
(1.2967e-11 3.52256e-12 1.32633e-11)
(7.56596e-11 -4.19222e-11 8.18083e-11)
(0 0 0)
(0 0 0)
(0 0 0)
(1.15404e-12 -5.83148e-11 7.1942e-11)
(1.1434e-10 -2.06486e-10 1.9324e-10)
(0 0 0)
(0 0 0)
(0 0 0)
(-3.14603e-11 -2.01956e-10 1.74411e-10)
(1.20166e-10 -3.74772e-10 3.18243e-10)
(0 0 0)
(0 0 0)
(0 0 0)
(-4.24998e-11 -3.48519e-10 2.91041e-10)
(1.20167e-10 -5.19578e-10 4.40807e-10)
(0 0 0)
(0 0 0)
(0 0 0)
(-5.84128e-11 -4.71608e-10 4.0574e-10)
(1.45068e-10 -6.45493e-10 5.47377e-10)
(0 0 0)
(0 0 0)
(0 0 0)
(-1.10013e-10 -5.75575e-10 5.05094e-10)
(2.27714e-10 -7.98293e-10 6.23443e-10)
(0 0 0)
(0 0 0)
(0 0 0)
(-2.29582e-10 -7.05406e-10 5.75086e-10)
(3.57577e-10 -1.05447e-09 6.54245e-10)
(0 0 0)
(0 0 0)
(0 0 0)
(-4.05211e-10 -9.32651e-10 6.02093e-10)
(3.98326e-10 -1.25342e-09 6.47374e-10)
(1.98339e-10 -1.2538e-09 6.44512e-10)
(-1.03205e-10 -1.19611e-09 6.4475e-10)
(-3.87453e-10 -1.16113e-09 6.19773e-10)
(-5.205e-10 -1.11403e-09 6.02145e-10)
(1.7481e-11 1.15829e-11 1.44959e-11)
(0 0 0)
(0 0 0)
(0 0 0)
(1.8407e-11 -2.8176e-12 1.27308e-11)
(6.32941e-11 -5.07074e-11 6.76127e-11)
(0 0 0)
(0 0 0)
(0 0 0)
(1.579e-11 -7.04637e-11 6.09746e-11)
(1.00339e-10 -2.12081e-10 1.51537e-10)
(0 0 0)
(0 0 0)
(0 0 0)
(-1.23161e-11 -2.12461e-10 1.38852e-10)
(1.09283e-10 -3.76131e-10 2.43614e-10)
(0 0 0)
(0 0 0)
(0 0 0)
(-2.3155e-11 -3.55636e-10 2.25097e-10)
(1.14151e-10 -5.14169e-10 3.3312e-10)
(0 0 0)
(0 0 0)
(0 0 0)
(-4.04362e-11 -4.72294e-10 3.08914e-10)
(1.43632e-10 -6.30687e-10 4.08895e-10)
(0 0 0)
(0 0 0)
(0 0 0)
(-9.31705e-11 -5.6689e-10 3.79351e-10)
(2.28804e-10 -7.73221e-10 4.59745e-10)
(0 0 0)
(0 0 0)
(0 0 0)
(-2.12006e-10 -6.86276e-10 4.25682e-10)
(3.58235e-10 -1.01896e-09 4.7721e-10)
(0 0 0)
(0 0 0)
(0 0 0)
(-3.84218e-10 -9.02746e-10 4.4033e-10)
(3.9829e-10 -1.21356e-09 4.68091e-10)
(2.03063e-10 -1.21892e-09 4.61518e-10)
(-9.10058e-11 -1.16588e-09 4.59388e-10)
(-3.67628e-10 -1.12886e-09 4.44072e-10)
(-4.96581e-10 -1.07883e-09 4.36119e-10)
(1.5815e-11 1.01585e-11 1.0819e-11)
(0 0 0)
(0 0 0)
(0 0 0)
(2.03684e-11 -4.9898e-12 9.73019e-12)
(5.95827e-11 -5.16656e-11 4.79448e-11)
(0 0 0)
(0 0 0)
(0 0 0)
(2.08792e-11 -7.36065e-11 4.38584e-11)
(9.73709e-11 -2.09077e-10 1.04003e-10)
(0 0 0)
(0 0 0)
(0 0 0)
(-6.17011e-12 -2.12806e-10 9.6183e-11)
(1.09221e-10 -3.69009e-10 1.64112e-10)
(0 0 0)
(0 0 0)
(0 0 0)
(-1.77458e-11 -3.52589e-10 1.52625e-10)
(1.17684e-10 -5.02781e-10 2.21875e-10)
(0 0 0)
(0 0 0)
(0 0 0)
(-3.6239e-11 -4.65315e-10 2.06725e-10)
(1.50206e-10 -6.15088e-10 2.6995e-10)
(0 0 0)
(0 0 0)
(0 0 0)
(-8.9578e-11 -5.55742e-10 2.51301e-10)
(2.3665e-10 -7.53976e-10 3.01226e-10)
(0 0 0)
(0 0 0)
(0 0 0)
(-2.07341e-10 -6.71318e-10 2.79587e-10)
(3.65132e-10 -9.95538e-10 3.11165e-10)
(0 0 0)
(0 0 0)
(0 0 0)
(-3.76446e-10 -8.83308e-10 2.87651e-10)
(4.04441e-10 -1.18789e-09 3.0417e-10)
(2.10726e-10 -1.19603e-09 2.97877e-10)
(-8.27193e-11 -1.14593e-09 2.95148e-10)
(-3.58602e-10 -1.10778e-09 2.86761e-10)
(-4.86484e-10 -1.05643e-09 2.83777e-10)
(1.53249e-11 9.91097e-12 5.7103e-12)
(0 0 0)
(0 0 0)
(0 0 0)
(2.10159e-11 -5.6452e-12 5.19192e-12)
(5.87143e-11 -5.07175e-11 2.47151e-11)
(0 0 0)
(0 0 0)
(0 0 0)
(2.24868e-11 -7.38761e-11 2.277e-11)
(9.74022e-11 -2.05107e-10 5.2721e-11)
(0 0 0)
(0 0 0)
(0 0 0)
(-4.47253e-12 -2.10753e-10 4.89935e-11)
(1.11107e-10 -3.62122e-10 8.22981e-11)
(0 0 0)
(0 0 0)
(0 0 0)
(-1.6681e-11 -3.48091e-10 7.68033e-11)
(1.21666e-10 -4.93514e-10 1.10479e-10)
(0 0 0)
(0 0 0)
(0 0 0)
(-3.58926e-11 -4.58674e-10 1.03196e-10)
(1.55869e-10 -6.04171e-10 1.33718e-10)
(0 0 0)
(0 0 0)
(0 0 0)
(-8.94695e-11 -5.47494e-10 1.24708e-10)
(2.42925e-10 -7.4206e-10 1.48642e-10)
(0 0 0)
(0 0 0)
(0 0 0)
(-2.06439e-10 -6.61971e-10 1.38145e-10)
(3.70738e-10 -9.82086e-10 1.53247e-10)
(0 0 0)
(0 0 0)
(0 0 0)
(-3.73576e-10 -8.7223e-10 1.41813e-10)
(4.09507e-10 -1.1734e-09 1.49633e-10)
(2.16185e-10 -1.18289e-09 1.4603e-10)
(-7.79216e-11 -1.13429e-09 1.44304e-10)
(-3.54393e-10 -1.0957e-09 1.40625e-10)
(-4.82135e-10 -1.04387e-09 1.39712e-10)
(2.04262e-11 4.39961e-12 0)
(8.77778e-12 -1.00536e-11 0)
(5.43293e-13 -1.74602e-11 0)
(-3.3693e-12 -1.49502e-11 0)
(1.03208e-11 -1.17104e-11 0)
(5.57056e-11 -6.06134e-11 0)
(3.14399e-11 -8.51929e-11 0)
(4.22822e-12 -1.00416e-10 0)
(-1.27988e-11 -9.28385e-11 0)
(-5.75945e-13 -7.89789e-11 0)
(9.04495e-11 -2.08538e-10 0)
(5.09491e-11 -2.25728e-10 0)
(9.18876e-12 -2.37765e-10 0)
(-2.1025e-11 -2.27008e-10 0)
(-2.29767e-11 -2.1305e-10 0)
(1.02605e-10 -3.61616e-10 0)
(5.69305e-11 -3.72456e-10 0)
(1.02281e-11 -3.78972e-10 0)
(-2.52583e-11 -3.64639e-10 0)
(-3.34775e-11 -3.4934e-10 0)
(1.1187e-10 -4.94775e-10 0)
(5.97013e-11 -5.09292e-10 0)
(5.75771e-12 -5.14484e-10 0)
(-3.70873e-11 -4.91374e-10 0)
(-5.14314e-11 -4.64502e-10 0)
(1.44369e-10 -6.1379e-10 0)
(7.6434e-11 -6.40775e-10 0)
(-4.71186e-12 -6.46999e-10 0)
(-7.44925e-11 -6.12149e-10 0)
(-1.03581e-10 -5.64554e-10 0)
(2.26768e-10 -7.61414e-10 0)
(1.23199e-10 -7.96026e-10 0)
(-2.16823e-11 -7.97068e-10 0)
(-1.54237e-10 -7.55676e-10 0)
(-2.16711e-10 -6.91635e-10 0)
(3.4531e-10 -9.99453e-10 0)
(1.888e-10 -1.01693e-09 0)
(-4.58703e-11 -9.98558e-10 0)
(-2.65841e-10 -9.60665e-10 0)
(-3.76514e-10 -9.0272e-10 0)
(3.98979e-10 -1.16722e-09 0)
(2.20007e-10 -1.16354e-09 0)
(-6.81092e-11 -1.12339e-09 0)
(-3.39223e-10 -1.08716e-09 0)
(-4.74358e-10 -1.04826e-09 0)
)
;

boundaryField
{
    interface
    {
        type            calculated;
    }
    symmetry
    {
        type            symmetry;
    }
    bottom
    {
        type            calculated;
    }
}


// ************************************************************************* //
