/*--------------------------------*- C++ -*----------------------------------*\
| =========                 |                                                 |
| \\      /  F ield         | OpenFOAM: The Open Source CFD Toolbox           |
|  \\    /   O peration     | Version:  v1912                                 |
|   \\  /    A nd           | Website:  www.openfoam.com                      |
|    \\/     M anipulation  |                                                 |
\*---------------------------------------------------------------------------*/
FoamFile
{
    version     2.0;
    format      ascii;
    class       pointVectorField;
    location    "0.86/solid";
    object      pointD;
}
// * * * * * * * * * * * * * * * * * * * * * * * * * * * * * * * * * * * * * //

dimensions      [0 1 0 0 0 0 0];


internalField   nonuniform List<vector> 
405
(
(3.98738e-08 4.27945e-08 4.13282e-08)
(8.50385e-09 2.85378e-08 4.43638e-08)
(-4.58473e-11 2.36716e-08 4.17452e-08)
(-8.31019e-09 2.79102e-08 4.32553e-08)
(-3.75662e-08 4.1283e-08 4.00529e-08)
(6.89023e-08 5.31911e-08 7.66469e-08)
(2.35797e-08 4.85879e-08 1.02619e-07)
(1.20994e-10 4.07907e-08 9.71829e-08)
(-2.26664e-08 4.73508e-08 1.00388e-07)
(-6.47901e-08 5.09835e-08 7.46703e-08)
(7.98217e-08 3.11891e-08 1.00729e-07)
(3.12977e-08 3.09076e-08 1.26e-07)
(6.19874e-10 2.66863e-08 1.20036e-07)
(-2.92876e-08 2.97092e-08 1.23728e-07)
(-7.44643e-08 2.90833e-08 9.86707e-08)
(8.17722e-08 1.17872e-08 1.17896e-07)
(3.2195e-08 1.36908e-08 1.43422e-07)
(1.19626e-09 1.16012e-08 1.36834e-07)
(-2.90343e-08 1.25132e-08 1.41102e-07)
(-7.52143e-08 9.72656e-09 1.15807e-07)
(8.27883e-08 -3.98613e-09 1.3337e-07)
(3.21428e-08 -2.13743e-09 1.5939e-07)
(1.77179e-09 -3.92788e-09 1.5225e-07)
(-2.78269e-08 -3.31985e-09 1.57023e-07)
(-7.50171e-08 -6.04491e-09 1.31243e-07)
(8.67806e-08 -1.92459e-08 1.49868e-07)
(3.39826e-08 -1.85299e-08 1.76668e-07)
(2.33341e-09 -2.08405e-08 1.6908e-07)
(-2.85341e-08 -1.97214e-08 1.74243e-07)
(-7.78144e-08 -2.1299e-08 1.47676e-07)
(9.65483e-08 -3.97979e-08 1.6907e-07)
(3.95769e-08 -3.99373e-08 1.97304e-07)
(2.86151e-09 -4.21804e-08 1.89631e-07)
(-3.30613e-08 -4.11089e-08 1.94805e-07)
(-8.64513e-08 -4.17891e-08 1.66783e-07)
(1.13008e-07 -8.43271e-08 1.90528e-07)
(4.88172e-08 -8.33201e-08 2.22342e-07)
(3.30034e-09 -8.32434e-08 2.15742e-07)
(-4.13857e-08 -8.41707e-08 2.19786e-07)
(-1.01889e-07 -8.58137e-08 1.88146e-07)
(1.10781e-07 -1.42631e-07 1.90123e-07)
(5.42443e-08 -1.52352e-07 2.00433e-07)
(3.62944e-09 -1.48808e-07 1.96342e-07)
(-4.61225e-08 -1.51902e-07 1.98855e-07)
(-9.99595e-08 -1.42617e-07 1.88221e-07)
(3.96387e-08 2.36391e-08 8.5092e-09)
(0 0 0)
(0 0 0)
(0 0 0)
(-3.66667e-08 2.24587e-08 8.38942e-09)
(8.61947e-08 3.73277e-08 2.9079e-08)
(1.98405e-08 2.0039e-08 3.31219e-08)
(2.56998e-10 1.34074e-08 3.27924e-08)
(-1.87117e-08 1.90233e-08 3.29467e-08)
(-7.95923e-08 3.49832e-08 2.87835e-08)
(9.47784e-08 1.78125e-08 4.98261e-08)
(2.63236e-08 1.16999e-08 5.52118e-08)
(7.842e-10 7.93109e-09 5.49427e-08)
(-2.40562e-08 1.0562e-08 5.50096e-08)
(-8.69042e-08 1.54895e-08 4.9482e-08)
(9.68438e-08 7.24587e-10 6.56414e-08)
(2.70269e-08 -1.0386e-09 7.12213e-08)
(1.3626e-09 -2.89616e-09 7.09016e-08)
(-2.36076e-08 -2.20305e-09 7.10313e-08)
(-8.77228e-08 -1.60456e-09 6.5313e-08)
(9.85771e-08 -1.35328e-08 7.96363e-08)
(2.70284e-08 -1.55218e-08 8.51021e-08)
(1.94121e-09 -1.71319e-08 8.46207e-08)
(-2.24471e-08 -1.66955e-08 8.49158e-08)
(-8.81803e-08 -1.58765e-08 7.93071e-08)
(1.03698e-07 -2.72341e-08 9.39279e-08)
(2.89577e-08 -3.18924e-08 9.92184e-08)
(2.51269e-09 -3.40948e-08 9.85406e-08)
(-2.32221e-08 -3.30699e-08 9.90157e-08)
(-9.20287e-08 -2.95691e-08 9.3561e-08)
(1.15318e-07 -4.49231e-08 1.09459e-07)
(3.46635e-08 -5.25287e-08 1.14584e-07)
(3.05843e-09 -5.48203e-08 1.13798e-07)
(-2.78222e-08 -5.36836e-08 1.14345e-07)
(-1.02428e-07 -4.71823e-08 1.09017e-07)
(1.35561e-07 -8.42021e-08 1.24187e-07)
(4.40006e-08 -8.98055e-08 1.29261e-07)
(3.52224e-09 -8.9705e-08 1.28618e-07)
(-3.61904e-08 -9.06584e-08 1.28975e-07)
(-1.21537e-07 -8.59452e-08 1.2365e-07)
(1.1345e-07 -1.5069e-07 1.32834e-07)
(4.93823e-08 -1.82959e-07 1.34318e-07)
(3.86803e-09 -1.76911e-07 1.33706e-07)
(-4.08118e-08 -1.81515e-07 1.34029e-07)
(-1.01464e-07 -1.50279e-07 1.32325e-07)
(3.15879e-08 1.34506e-08 1.16043e-09)
(0 0 0)
(0 0 0)
(0 0 0)
(-2.86756e-08 1.23993e-08 1.20283e-09)
(6.82567e-08 1.84836e-08 9.76548e-09)
(1.32945e-08 5.64957e-09 1.52241e-08)
(2.92276e-10 1.65414e-10 1.65218e-08)
(-1.2127e-08 4.7792e-09 1.52796e-08)
(-6.17925e-08 1.6347e-08 9.86068e-09)
(7.43795e-08 2.42067e-09 2.49747e-08)
(1.77043e-08 -2.20997e-09 3.21993e-08)
(8.34091e-10 -5.38714e-09 3.40309e-08)
(-1.5383e-08 -3.26934e-09 3.22641e-08)
(-6.66682e-08 2.08841e-10 2.50879e-08)
(7.5584e-08 -1.15634e-08 3.95874e-08)
(1.79754e-08 -1.2941e-08 4.71721e-08)
(1.41961e-09 -1.46047e-08 4.91464e-08)
(-1.4494e-08 -1.40754e-08 4.72461e-08)
(-6.66293e-08 -1.3854e-08 3.97132e-08)
(7.69435e-08 -2.36802e-08 5.2752e-08)
(1.78737e-08 -2.55585e-08 6.03483e-08)
(2.00499e-09 -2.71279e-08 6.23094e-08)
(-1.3218e-08 -2.67269e-08 6.04248e-08)
(-6.6695e-08 -2.60271e-08 5.28749e-08)
(8.19495e-08 -3.5029e-08 6.52034e-08)
(1.97446e-08 -3.97145e-08 7.2736e-08)
(2.5858e-09 -4.19409e-08 7.46308e-08)
(-1.39128e-08 -4.09016e-08 7.28003e-08)
(-7.03832e-08 -3.73965e-08 6.52952e-08)
(9.40247e-08 -4.86668e-08 7.67585e-08)
(2.5533e-08 -5.64701e-08 8.41589e-08)
(3.14465e-09 -5.87979e-08 8.59857e-08)
(-1.85628e-08 -5.76506e-08 8.41974e-08)
(-8.11643e-08 -5.09887e-08 7.67924e-08)
(1.15901e-07 -8.10115e-08 8.47237e-08)
(3.51912e-08 -8.66758e-08 9.19221e-08)
(3.6261e-09 -8.64377e-08 9.37135e-08)
(-2.72084e-08 -8.75755e-08 9.19362e-08)
(-1.0182e-07 -8.2851e-08 8.46961e-08)
(9.75542e-08 -1.40764e-07 8.82405e-08)
(4.0679e-08 -1.69496e-07 9.09446e-08)
(3.99651e-09 -1.62382e-07 9.26893e-08)
(-3.18833e-08 -1.68092e-07 9.09755e-08)
(-8.54209e-08 -1.40435e-07 8.82319e-08)
(2.67264e-08 9.45456e-09 8.46824e-10)
(0 0 0)
(0 0 0)
(0 0 0)
(-2.3906e-08 8.45436e-09 8.88788e-10)
(5.74065e-08 1.02738e-08 7.04533e-09)
(9.17904e-09 3.01675e-10 1.05308e-08)
(2.81783e-10 -4.36971e-09 1.1759e-08)
(-8.05086e-09 -5.19404e-10 1.05867e-08)
(-5.11368e-08 8.22947e-09 7.1592e-09)
(6.21682e-08 -5.77495e-09 1.89046e-08)
(1.22236e-08 -9.42684e-09 2.35549e-08)
(8.17426e-10 -1.21555e-08 2.52805e-08)
(-9.95644e-09 -1.04455e-08 2.36294e-08)
(-5.46648e-08 -7.92366e-09 1.90579e-08)
(6.31571e-08 -1.89666e-08 3.16316e-08)
(1.22878e-08 -2.01692e-08 3.64676e-08)
(1.40345e-09 -2.16972e-08 3.83268e-08)
(-8.86017e-09 -2.12835e-08 3.65481e-08)
(-5.44092e-08 -2.12317e-08 3.17955e-08)
(6.45939e-08 -2.95624e-08 4.34789e-08)
(1.22375e-08 -3.14873e-08 4.82396e-08)
(1.99383e-09 -3.30561e-08 5.00996e-08)
(-7.62521e-09 -3.26554e-08 4.83185e-08)
(-5.45355e-08 -3.19184e-08 4.36357e-08)
(6.97896e-08 -3.84952e-08 5.39977e-08)
(1.41797e-08 -4.3289e-08 5.86435e-08)
(2.58275e-09 -4.55619e-08 6.04635e-08)
(-8.37253e-09 -4.44925e-08 5.87117e-08)
(-5.83757e-08 -4.09018e-08 5.41282e-08)
(8.22438e-08 -4.87623e-08 6.23654e-08)
(2.00613e-08 -5.67036e-08 6.69055e-08)
(3.15235e-09 -5.91018e-08 6.86757e-08)
(-1.30887e-08 -5.79147e-08 6.69562e-08)
(-6.94751e-08 -5.11494e-08 6.24544e-08)
(1.04625e-07 -7.69989e-08 6.66526e-08)
(2.98113e-08 -8.2839e-08 7.11511e-08)
(3.64722e-09 -8.27109e-08 7.28901e-08)
(-2.17922e-08 -8.37793e-08 7.11894e-08)
(-9.05594e-08 -7.89205e-08 6.67033e-08)
(8.81125e-08 -1.33129e-07 6.76437e-08)
(3.54216e-08 -1.60493e-07 6.96423e-08)
(4.03598e-09 -1.53453e-07 7.14765e-08)
(-2.65494e-08 -1.59144e-07 6.96963e-08)
(-7.59302e-08 -1.32884e-07 6.76993e-08)
(2.42296e-08 7.94615e-09 1.17174e-09)
(0 0 0)
(0 0 0)
(0 0 0)
(-2.14812e-08 6.97546e-09 1.20131e-09)
(5.18671e-08 7.11763e-09 6.57125e-09)
(7.43126e-09 -1.52585e-09 8.22473e-09)
(2.65887e-10 -5.74626e-09 8.95498e-09)
(-6.34944e-09 -2.3285e-09 8.26537e-09)
(-4.57598e-08 5.12499e-09 6.66024e-09)
(5.60626e-08 -9.21222e-09 1.59164e-08)
(9.91269e-09 -1.24397e-08 1.81002e-08)
(7.88975e-10 -1.49235e-08 1.91231e-08)
(-7.71769e-09 -1.3441e-08 1.81596e-08)
(-4.87465e-08 -1.13264e-08 1.60471e-08)
(5.71626e-08 -2.2367e-08 2.61295e-08)
(9.98752e-09 -2.3579e-08 2.83285e-08)
(1.37048e-09 -2.50458e-08 2.9418e-08)
(-6.63988e-09 -2.46842e-08 2.8394e-08)
(-4.86069e-08 -2.46189e-08 2.62738e-08)
(5.88725e-08 -3.21826e-08 3.58034e-08)
(1.00902e-08 -3.42337e-08 3.78713e-08)
(1.96278e-09 -3.5822e-08 3.89433e-08)
(-5.55302e-09 -3.54043e-08 3.79349e-08)
(-4.89954e-08 -3.45487e-08 3.5943e-08)
(6.43373e-08 -3.96248e-08 4.40684e-08)
(1.21652e-08 -4.45299e-08 4.60078e-08)
(2.55767e-09 -4.68457e-08 4.70418e-08)
(-6.41938e-09 -4.57477e-08 4.60632e-08)
(-5.30782e-08 -4.20636e-08 4.41888e-08)
(7.6991e-08 -4.8094e-08 5.0025e-08)
(1.80975e-08 -5.60986e-08 5.19073e-08)
(3.13573e-09 -5.85683e-08 5.29086e-08)
(-1.11658e-08 -5.73336e-08 5.19512e-08)
(-6.43335e-08 -5.05309e-08 5.01172e-08)
(9.93582e-08 -7.44221e-08 5.26257e-08)
(2.7787e-08 -8.04222e-08 5.4571e-08)
(3.64076e-09 -8.04749e-08 5.55722e-08)
(-1.97836e-08 -8.13909e-08 5.46081e-08)
(-8.5348e-08 -7.64018e-08 5.26934e-08)
(8.39252e-08 -1.28485e-07 5.27825e-08)
(3.34758e-08 -1.55136e-07 5.37263e-08)
(4.04229e-09 -1.48461e-07 5.48573e-08)
(-2.4591e-08 -1.53825e-07 5.37746e-08)
(-7.17494e-08 -1.28297e-07 5.2847e-08)
(2.29852e-08 7.35575e-09 1.1569e-09)
(0 0 0)
(0 0 0)
(0 0 0)
(-2.02848e-08 6.40586e-09 1.17652e-09)
(4.91949e-08 5.98127e-09 5.54761e-09)
(6.8537e-09 -2.154e-09 6.22464e-09)
(2.53335e-10 -6.15809e-09 6.5783e-09)
(-5.80735e-09 -2.94599e-09 6.25284e-09)
(-4.32003e-08 4.02447e-09 5.61002e-09)
(5.32717e-08 -1.0347e-08 1.2533e-08)
(9.2031e-09 -1.34631e-08 1.33853e-08)
(7.64755e-10 -1.58418e-08 1.38725e-08)
(-7.06772e-09 -1.44554e-08 1.34289e-08)
(-4.60925e-08 -1.24381e-08 1.263e-08)
(5.45763e-08 -2.34786e-08 2.00555e-08)
(9.37773e-09 -2.47768e-08 2.08482e-08)
(1.34015e-09 -2.62328e-08 2.1353e-08)
(-6.10091e-09 -2.58781e-08 2.08977e-08)
(-4.61658e-08 -2.57223e-08 2.01666e-08)
(5.65596e-08 -3.29536e-08 2.71978e-08)
(9.63477e-09 -3.51299e-08 2.78676e-08)
(1.93197e-09 -3.67449e-08 2.83469e-08)
(-5.16845e-09 -3.63036e-08 2.79164e-08)
(-4.6823e-08 -3.53273e-08 2.73081e-08)
(6.22425e-08 -3.97476e-08 3.31803e-08)
(1.18231e-08 -4.47295e-08 3.37518e-08)
(2.53041e-09 -4.70769e-08 3.42005e-08)
(-6.13978e-09 -4.59577e-08 3.37954e-08)
(-5.11068e-08 -4.22089e-08 3.32788e-08)
(7.49669e-08 -4.75294e-08 3.73036e-08)
(1.77659e-08 -5.55445e-08 3.78562e-08)
(3.11442e-09 -5.80614e-08 3.8288e-08)
(-1.08826e-08 -5.67955e-08 3.78924e-08)
(-6.24043e-08 -5e-08 3.73839e-08)
(9.71633e-08 -7.3055e-08 3.90483e-08)
(2.73575e-08 -7.91397e-08 3.96851e-08)
(3.62674e-09 -7.93256e-08 4.01305e-08)
(-1.9385e-08 -8.0127e-08 3.97173e-08)
(-8.32113e-08 -7.50732e-08 3.91131e-08)
(8.23614e-08 -1.25872e-07 3.90536e-08)
(3.30731e-08 -1.52063e-07 3.93569e-08)
(4.03688e-09 -1.45693e-07 3.98977e-08)
(-2.42001e-08 -1.50774e-07 3.93965e-08)
(-7.02113e-08 -1.25719e-07 3.91126e-08)
(2.23491e-08 7.11437e-09 8.74835e-10)
(0 0 0)
(0 0 0)
(0 0 0)
(-1.9678e-08 6.17826e-09 8.8683e-10)
(4.78844e-08 5.6015e-09 3.93898e-09)
(6.68906e-09 -2.35622e-09 4.20212e-09)
(2.44851e-10 -6.26316e-09 4.35561e-09)
(-5.66606e-09 -3.14099e-09 4.22003e-09)
(-4.19597e-08 3.66904e-09 3.97817e-09)
(5.1995e-08 -1.05741e-08 8.57924e-09)
(9.0491e-09 -1.36933e-08 8.88071e-09)
(7.47671e-10 -1.60353e-08 9.08535e-09)
(-6.95487e-09 -1.46799e-08 8.90919e-09)
(-4.49037e-08 -1.26489e-08 8.64201e-09)
(5.34762e-08 -2.36096e-08 1.34824e-08)
(9.3222e-09 -2.49944e-08 1.3721e-08)
(1.31766e-09 -2.64594e-08 1.39232e-08)
(-6.0967e-09 -2.60937e-08 1.37541e-08)
(-4.51617e-08 -2.58471e-08 1.35564e-08)
(5.56554e-08 -3.29445e-08 1.81176e-08)
(9.6899e-09 -3.52106e-08 1.82717e-08)
(1.90797e-09 -3.68487e-08 1.84528e-08)
(-5.27725e-09 -3.63867e-08 1.83051e-08)
(-4.60136e-08 -3.53225e-08 1.81929e-08)
(6.14752e-08 -3.95474e-08 2.19662e-08)
(1.19498e-08 -4.45716e-08 2.20612e-08)
(2.50806e-09 -4.69382e-08 2.22228e-08)
(-6.316e-09 -4.58065e-08 2.20917e-08)
(-5.04246e-08 -4.20226e-08 2.20352e-08)
(7.42098e-08 -4.7167e-08 2.45857e-08)
(1.78855e-08 -5.5169e-08 2.46797e-08)
(3.09576e-09 -5.77088e-08 2.48347e-08)
(-1.10431e-08 -5.64299e-08 2.4706e-08)
(-6.17151e-08 -4.96584e-08 2.46443e-08)
(9.62406e-08 -7.23767e-08 2.57211e-08)
(2.73956e-08 -7.84867e-08 2.58803e-08)
(3.61281e-09 -7.87437e-08 2.60489e-08)
(-1.9453e-08 -7.94853e-08 2.59042e-08)
(-8.23339e-08 -7.44186e-08 2.57706e-08)
(8.17899e-08 -1.24454e-07 2.57427e-08)
(3.31068e-08 -1.50333e-07 2.57973e-08)
(4.02835e-09 -1.44141e-07 2.60188e-08)
(-2.42516e-08 -1.49057e-07 2.58255e-08)
(-6.96656e-08 -1.24324e-07 2.57869e-08)
(2.2037e-08 7.01585e-09 4.62181e-10)
(0 0 0)
(0 0 0)
(0 0 0)
(-1.93816e-08 6.08748e-09 4.67888e-10)
(4.72572e-08 5.4892e-09 2.02689e-09)
(6.64066e-09 -2.40593e-09 2.12004e-09)
(2.40023e-10 -6.27149e-09 2.17668e-09)
(-5.6307e-09 -3.18643e-09 2.12877e-09)
(-4.13704e-08 3.57079e-09 2.04574e-09)
(5.14122e-08 -1.05404e-08 4.33813e-09)
(9.02782e-09 -1.36809e-08 4.43458e-09)
(7.37722e-10 -1.60124e-08 4.50738e-09)
(-6.95716e-09 -1.46641e-08 4.44865e-09)
(-4.43692e-08 -1.26053e-08 4.36879e-09)
(5.30006e-08 -2.34809e-08 6.74853e-09)
(9.36275e-09 -2.49215e-08 6.80964e-09)
(1.30416e-09 -2.63965e-08 6.87785e-09)
(-6.16757e-09 -2.60194e-08 6.82626e-09)
(-4.47399e-08 -2.57143e-08 6.7853e-09)
(5.52894e-08 -3.27604e-08 9.01671e-09)
(9.7921e-09 -3.50768e-08 9.03677e-09)
(1.8931e-09 -3.67293e-08 9.09378e-09)
(-5.41209e-09 -3.62541e-08 9.05373e-09)
(-4.57017e-08 -3.51402e-08 9.05475e-09)
(6.11792e-08 -3.93396e-08 1.08938e-08)
(1.20884e-08 -4.43832e-08 1.08875e-08)
(2.49377e-09 -4.67593e-08 1.09354e-08)
(-6.48565e-09 -4.56217e-08 1.09032e-08)
(-5.01779e-08 -4.18221e-08 1.09293e-08)
(7.39071e-08 -4.69652e-08 1.21712e-08)
(1.80154e-08 -5.4952e-08 1.21674e-08)
(3.08338e-09 -5.75001e-08 1.22136e-08)
(-1.11996e-08 -5.62182e-08 1.21812e-08)
(-6.14527e-08 -4.94678e-08 1.2202e-08)
(9.58309e-08 -7.20627e-08 1.27401e-08)
(2.74758e-08 -7.81726e-08 1.27701e-08)
(3.60303e-09 -7.84597e-08 1.28239e-08)
(-1.95536e-08 -7.91773e-08 1.27828e-08)
(-8.19524e-08 -7.41174e-08 1.27667e-08)
(8.15558e-08 -1.23752e-07 1.27672e-08)
(3.31744e-08 -1.49443e-07 1.27643e-08)
(4.02149e-09 -1.43334e-07 1.28402e-08)
(-2.43333e-08 -1.48174e-07 1.2779e-08)
(-6.94494e-08 -1.23633e-07 1.27908e-08)
(1.78363e-08 7.16343e-09 0)
(2.3034e-09 1.48096e-09 0)
(8.98342e-12 -8.46262e-10 0)
(-2.05709e-09 1.15812e-09 0)
(-1.57528e-08 6.18468e-09 0)
(2.99982e-08 3.37692e-09 0)
(6.62865e-09 -2.41225e-09 0)
(2.38462e-10 -6.26618e-09 0)
(-5.62286e-09 -3.19134e-09 0)
(-2.62935e-08 1.79521e-09 0)
(3.39775e-08 -1.10319e-08 0)
(9.02612e-09 -1.36559e-08 0)
(7.34472e-10 -1.59854e-08 0)
(-6.96311e-09 -1.46379e-08 0)
(-2.91352e-08 -1.28139e-08 0)
(3.49965e-08 -2.35346e-08 0)
(9.38125e-09 -2.48687e-08 0)
(1.29969e-09 -2.63476e-08 0)
(-6.19602e-09 -2.59662e-08 0)
(-2.89892e-08 -2.54782e-08 0)
(3.64504e-08 -3.31577e-08 0)
(9.82994e-09 -3.50064e-08 0)
(1.8881e-09 -3.66636e-08 0)
(-5.46082e-09 -3.61841e-08 0)
(-2.91843e-08 -3.52335e-08 0)
(4.10476e-08 -4.07476e-08 0)
(1.21372e-08 -4.4307e-08 0)
(2.48889e-09 -4.66859e-08 0)
(-6.54491e-09 -4.55467e-08 0)
(-3.24516e-08 -4.29206e-08 0)
(5.17255e-08 -4.97739e-08 0)
(1.80607e-08 -5.48802e-08 0)
(3.07908e-09 -5.74302e-08 0)
(-1.1254e-08 -5.61482e-08 0)
(-4.17773e-08 -5.19768e-08 0)
(6.98498e-08 -7.50017e-08 0)
(2.75046e-08 -7.80778e-08 0)
(3.59955e-09 -7.83728e-08 0)
(-1.95896e-08 -7.90844e-08 0)
(-5.85999e-08 -7.67876e-08 0)
(7.17744e-08 -1.14728e-07 0)
(3.30302e-08 -1.22188e-07 0)
(3.92542e-09 -1.18288e-07 0)
(-2.43991e-08 -1.21927e-07 0)
(-6.06448e-08 -1.15026e-07 0)
)
;

boundaryField
{
    interface
    {
        type            calculated;
    }
    symmetry
    {
        type            symmetry;
    }
    bottom
    {
        type            calculated;
    }
}


// ************************************************************************* //
