/*--------------------------------*- C++ -*----------------------------------*\
| =========                 |                                                 |
| \\      /  F ield         | OpenFOAM: The Open Source CFD Toolbox           |
|  \\    /   O peration     | Version:  v1912                                 |
|   \\  /    A nd           | Website:  www.openfoam.com                      |
|    \\/     M anipulation  |                                                 |
\*---------------------------------------------------------------------------*/
FoamFile
{
    version     2.0;
    format      ascii;
    class       volScalarField;
    location    "0.86/solid";
    object      sigmaHyd;
}
// * * * * * * * * * * * * * * * * * * * * * * * * * * * * * * * * * * * * * //

dimensions      [1 -1 -2 0 0 0 0];


internalField   nonuniform List<scalar> 
256
(
-716997
-387618
-380078
-671993
-1.08735e+06
-677334
-665954
-1.02962e+06
-1.13598e+06
-730591
-718565
-1.07644e+06
-1.1552e+06
-751053
-738748
-1.09448e+06
-1.19542e+06
-782877
-770344
-1.13354e+06
-1.28805e+06
-858091
-845258
-1.22485e+06
-1.52184e+06
-1.06633e+06
-1.05222e+06
-1.45491e+06
-2.09499e+06
-1.61141e+06
-1.58998e+06
-2.00768e+06
-382818
-133449
-131773
-355112
-626756
-297883
-293434
-589259
-667572
-346449
-341477
-628690
-684269
-367606
-362438
-644459
-713427
-390978
-385674
-672633
-784097
-443704
-438201
-742104
-985054
-607993
-601312
-939351
-1.52279e+06
-1.06664e+06
-1.05238e+06
-1.45525e+06
-300051
-84491.3
-83408.6
-274747
-467633
-180666
-177349
-433962
-497330
-216854
-213079
-462407
-511863
-235168
-231196
-475980
-537159
-254852
-250727
-500185
-599622
-298834
-294484
-561234
-784508
-443384
-437813
-742076
-1.28932e+06
-857935
-844839
-1.22492e+06
-278289
-78722.3
-77690.4
-253704
-418409
-153098
-149969
-385927
-442083
-181811
-178250
-408411
-455036
-197396
-193632
-420369
-478720
-215061
-211128
-442868
-537746
-255377
-251191
-500315
-713813
-390529
-385087
-672080
-1.19569e+06
-781297
-768353
-1.13187e+06
-269671
-78444.8
-77437.3
-245521
-400311
-145643
-142593
-368504
-421324
-170556
-167090
-388370
-433144
-184130
-180460
-399179
-455752
-200297
-196450
-420546
-512790
-238559
-234441
-475900
-683592
-368845
-363446
-642240
-1.15147e+06
-747312
-734407
-1.0879e+06
-264575
-78470.8
-77482.7
-240691
-391453
-142826
-139829
-360058
-411322
-165877
-162474
-378810
-422394
-178196
-174591
-388866
-444214
-193335
-189548
-409410
-499979
-230364
-226297
-463429
-667623
-357987
-352623
-626514
-1.12697e+06
-729428
-716548
-1.06355e+06
-261310
-78379
-77402.5
-237573
-386467
-141515
-138551
-355306
-405823
-163684
-160320
-373563
-416446
-175310
-171745
-383168
-437750
-189833
-186084
-403179
-492754
-226165
-222130
-456403
-658603
-352332
-346992
-617636
-1.11293e+06
-719639
-706775
-1.04959e+06
-259670
-78277.4
-77306.2
-236000
-384101
-140951
-138002
-353045
-403246
-162766
-159420
-371101
-413658
-174088
-170542
-380494
-434712
-188328
-184597
-400247
-489362
-224344
-220325
-453100
-654394
-349855
-344526
-613491
-1.10637e+06
-715196
-702339
-1.04307e+06
)
;

boundaryField
{
    interface
    {
        type            zeroGradient;
    }
    symmetry
    {
        type            symmetry;
    }
    bottom
    {
        type            zeroGradient;
    }
}


// ************************************************************************* //
