/*--------------------------------*- C++ -*----------------------------------*\
| =========                 |                                                 |
| \\      /  F ield         | OpenFOAM: The Open Source CFD Toolbox           |
|  \\    /   O peration     | Version:  v1912                                 |
|   \\  /    A nd           | Website:  www.openfoam.com                      |
|    \\/     M anipulation  |                                                 |
\*---------------------------------------------------------------------------*/
FoamFile
{
    version     2.0;
    format      ascii;
    class       volVectorField;
    location    "0.86/solid";
    object      U;
}
// * * * * * * * * * * * * * * * * * * * * * * * * * * * * * * * * * * * * * //

dimensions      [0 1 -1 0 0 0 0];


internalField   nonuniform List<vector> 
256
(
(1.9365e-08 2.08531e-08 2.46467e-08)
(4.62292e-09 1.37262e-08 2.39472e-08)
(-6.29098e-09 1.31051e-08 2.31276e-08)
(-1.90524e-08 1.87624e-08 2.22004e-08)
(3.67468e-08 1.89299e-08 5.8948e-08)
(9.50452e-09 1.22924e-08 5.76984e-08)
(-1.33846e-08 1.2083e-08 5.60029e-08)
(-3.78099e-08 1.86304e-08 5.38394e-08)
(4.0868e-08 3.05357e-09 8.38486e-08)
(1.01666e-08 4.02878e-11 8.18986e-08)
(-1.65903e-08 5.04671e-10 7.96882e-08)
(-4.44003e-08 4.88642e-09 7.7174e-08)
(4.00544e-08 -1.57986e-08 1.04619e-07)
(8.66418e-09 -1.69214e-08 1.01751e-07)
(-1.84385e-08 -1.57863e-08 9.9172e-08)
(-4.68945e-08 -1.20314e-08 9.68259e-08)
(3.94767e-08 -3.65133e-08 1.2468e-07)
(6.96175e-09 -3.76271e-08 1.20797e-07)
(-2.09757e-08 -3.58545e-08 1.17906e-07)
(-5.04942e-08 -3.09297e-08 1.15941e-07)
(4.24551e-08 -6.18438e-08 1.45999e-07)
(6.37879e-09 -6.32386e-08 1.41309e-07)
(-2.55842e-08 -6.08244e-08 1.38121e-07)
(-5.85858e-08 -5.44275e-08 1.36366e-07)
(5.0306e-08 -9.81508e-08 1.6807e-07)
(7.26236e-09 -9.79738e-08 1.63646e-07)
(-3.2761e-08 -9.4822e-08 1.6016e-07)
(-7.25277e-08 -8.86139e-08 1.5756e-07)
(5.77452e-08 -1.44637e-07 1.8413e-07)
(7.70582e-09 -1.41263e-07 1.81331e-07)
(-4.08051e-08 -1.3702e-07 1.77596e-07)
(-8.70678e-08 -1.31845e-07 1.72929e-07)
(1.32235e-08 7.75839e-09 1.11228e-08)
(3.06251e-09 1.60255e-09 1.21598e-08)
(-3.75204e-09 1.40062e-09 1.17884e-08)
(-1.22053e-08 6.58109e-09 1.00282e-08)
(2.58813e-08 4.77168e-10 3.44729e-08)
(6.6136e-09 -5.16444e-09 3.65223e-08)
(-8.14342e-09 -5.02463e-09 3.55038e-08)
(-2.50251e-08 8.48904e-10 3.15095e-08)
(2.8722e-08 -1.43077e-08 5.60706e-08)
(7.07731e-09 -1.6806e-08 5.82617e-08)
(-1.01491e-08 -1.61317e-08 5.67877e-08)
(-2.94005e-08 -1.21311e-08 5.17638e-08)
(2.76238e-08 -3.14204e-08 7.54647e-08)
(5.75148e-09 -3.2368e-08 7.73486e-08)
(-1.13902e-08 -3.11084e-08 7.5541e-08)
(-3.08722e-08 -2.74929e-08 7.01485e-08)
(2.69548e-08 -5.03454e-08 9.38684e-08)
(4.26789e-09 -5.15478e-08 9.52542e-08)
(-1.3496e-08 -4.96971e-08 9.31631e-08)
(-3.37567e-08 -4.46963e-08 8.76898e-08)
(3.02191e-08 -7.25298e-08 1.11983e-07)
(3.97929e-09 -7.42586e-08 1.12838e-07)
(-1.78324e-08 -7.18055e-08 1.10483e-07)
(-4.15735e-08 -6.51324e-08 1.05005e-07)
(3.95432e-08 -1.02809e-07 1.28286e-07)
(5.43452e-09 -1.02688e-07 1.28802e-07)
(-2.50817e-08 -9.95721e-08 1.2622e-07)
(-5.6461e-08 -9.34614e-08 1.2061e-07)
(4.96379e-08 -1.42569e-07 1.37653e-07)
(6.57577e-09 -1.37522e-07 1.38069e-07)
(-3.34103e-08 -1.33457e-07 1.35391e-07)
(-7.31589e-08 -1.30285e-07 1.29644e-07)
(7.56015e-09 2.6126e-09 5.58893e-09)
(1.46779e-09 -2.10439e-09 7.2256e-09)
(-1.70007e-09 -2.25942e-09 6.97383e-09)
(-6.15729e-09 1.3991e-09 4.87167e-09)
(1.54339e-08 -8.85605e-09 2.15043e-08)
(3.4889e-09 -1.32714e-08 2.46839e-08)
(-3.68688e-09 -1.31032e-08 2.39809e-08)
(-1.33811e-08 -8.63264e-09 1.95083e-08)
(1.70759e-08 -2.45438e-08 3.92129e-08)
(3.65874e-09 -2.65725e-08 4.28006e-08)
(-4.59821e-09 -2.59164e-08 4.17378e-08)
(-1.57939e-08 -2.26195e-08 3.61648e-08)
(1.59108e-08 -4.07984e-08 5.64665e-08)
(2.498e-09 -4.17563e-08 5.9948e-08)
(-5.30474e-09 -4.05571e-08 5.85962e-08)
(-1.6525e-08 -3.72026e-08 5.2547e-08)
(1.53909e-08 -5.74934e-08 7.26187e-08)
(1.24872e-09 -5.89637e-08 7.5799e-08)
(-7.04484e-09 -5.72058e-08 7.41961e-08)
(-1.89705e-08 -5.2235e-08 6.79335e-08)
(1.9055e-08 -7.5806e-08 8.70521e-08)
(1.25648e-09 -7.79478e-08 8.98459e-08)
(-1.11632e-08 -7.56213e-08 8.80193e-08)
(-2.66657e-08 -6.88665e-08 8.16792e-08)
(2.93736e-08 -1.00475e-07 9.78102e-08)
(3.19158e-09 -1.0065e-07 1.00164e-07)
(-1.84463e-08 -9.77068e-08 9.81724e-08)
(-4.20718e-08 -9.16856e-08 9.19013e-08)
(4.09343e-08 -1.34499e-07 1.01369e-07)
(4.86454e-09 -1.29115e-07 1.03342e-07)
(-2.68973e-08 -1.25271e-07 1.01327e-07)
(-5.97831e-08 -1.22876e-07 9.53127e-08)
(4.62125e-09 4.92188e-10 4.18898e-09)
(6.49956e-10 -3.13055e-09 5.40932e-09)
(-6.60953e-10 -3.3164e-09 5.22234e-09)
(-2.98324e-09 -8.90935e-10 3.66928e-09)
(9.9549e-09 -1.26648e-08 1.61605e-08)
(1.85114e-09 -1.61969e-08 1.84973e-08)
(-1.29697e-09 -1.61173e-08 1.79906e-08)
(-7.14758e-09 -1.28077e-08 1.47455e-08)
(1.1113e-08 -2.90757e-08 3.0175e-08)
(1.94805e-09 -3.08314e-08 3.27742e-08)
(-1.55594e-09 -3.02957e-08 3.20006e-08)
(-8.51523e-09 -2.76041e-08 2.79831e-08)
(1.02389e-08 -4.48623e-08 4.44089e-08)
(1.04508e-09 -4.59254e-08 4.68819e-08)
(-1.95535e-09 -4.48679e-08 4.58778e-08)
(-8.98543e-09 -4.17647e-08 4.15231e-08)
(1.01721e-08 -5.98017e-08 5.7596e-08)
(1.08048e-10 -6.15424e-08 5.9805e-08)
(-3.49407e-09 -5.99441e-08 5.85941e-08)
(-1.13741e-08 -5.50737e-08 5.40778e-08)
(1.42908e-08 -7.5263e-08 6.8505e-08)
(4.00744e-10 -7.7754e-08 7.04143e-08)
(-7.44543e-09 -7.56044e-08 6.90236e-08)
(-1.90643e-08 -6.88845e-08 6.44269e-08)
(2.49723e-08 -9.64635e-08 7.53786e-08)
(2.57226e-09 -9.70938e-08 7.69858e-08)
(-1.45654e-08 -9.43418e-08 7.54733e-08)
(-3.44163e-08 -8.82592e-08 7.08896e-08)
(3.6791e-08 -1.27433e-07 7.62915e-08)
(4.4478e-09 -1.22707e-07 7.77316e-08)
(-2.28434e-08 -1.19055e-07 7.62184e-08)
(-5.19939e-08 -1.16392e-07 7.17231e-08)
(3.51357e-09 -3.19701e-10 3.53011e-09)
(4.00394e-10 -3.37616e-09 4.17797e-09)
(-2.9444e-10 -3.59413e-09 4.04327e-09)
(-1.72907e-09 -1.83931e-09 3.16165e-09)
(7.97916e-09 -1.38306e-08 1.26924e-08)
(1.38554e-09 -1.69427e-08 1.38879e-08)
(-3.88244e-10 -1.69592e-08 1.35289e-08)
(-4.6973e-09 -1.43055e-08 1.17025e-08)
(9.16923e-09 -3.03158e-08 2.32749e-08)
(1.59162e-09 -3.20156e-08 2.45324e-08)
(-3.58346e-10 -3.16108e-08 2.39835e-08)
(-5.71006e-09 -2.92759e-08 2.17356e-08)
(8.71909e-09 -4.5669e-08 3.41185e-08)
(9.68589e-10 -4.68973e-08 3.52134e-08)
(-6.14845e-10 -4.59882e-08 3.44935e-08)
(-6.18954e-09 -4.30488e-08 3.20653e-08)
(9.14378e-09 -5.94939e-08 4.40471e-08)
(3.32472e-10 -6.14728e-08 4.49103e-08)
(-2.04555e-09 -6.0033e-08 4.40326e-08)
(-8.66299e-09 -5.52641e-08 4.15106e-08)
(1.36176e-08 -7.33752e-08 5.18478e-08)
(8.52435e-10 -7.61233e-08 5.24944e-08)
(-5.8493e-09 -7.41379e-08 5.14801e-08)
(-1.63294e-08 -6.75014e-08 4.88822e-08)
(2.43402e-08 -9.2937e-08 5.62423e-08)
(3.12124e-09 -9.39482e-08 5.67279e-08)
(-1.27275e-08 -9.13589e-08 5.56243e-08)
(-3.1375e-08 -8.52263e-08 5.2968e-08)
(3.60078e-08 -1.22551e-07 5.63406e-08)
(5.05462e-09 -1.18547e-07 5.68108e-08)
(-2.07475e-08 -1.15048e-07 5.5711e-08)
(-4.84785e-08 -1.11971e-07 5.30131e-08)
(3.18257e-09 -5.90971e-10 2.73113e-09)
(3.80261e-10 -3.40967e-09 3.01339e-09)
(-2.10458e-10 -3.65076e-09 2.92324e-09)
(-1.30929e-09 -2.20309e-09 2.48719e-09)
(7.5e-09 -1.39291e-08 9.29808e-09)
(1.40572e-09 -1.6908e-08 9.77786e-09)
(-1.45393e-10 -1.69975e-08 9.53898e-09)
(-3.92591e-09 -1.46449e-08 8.64575e-09)
(8.90152e-09 -3.01172e-08 1.66757e-08)
(1.77208e-09 -3.18765e-08 1.7114e-08)
(-1.4819e-11 -3.1576e-08 1.67485e-08)
(-4.89632e-09 -2.94077e-08 1.5659e-08)
(8.82741e-09 -4.5043e-08 2.41835e-08)
(1.38063e-09 -4.64383e-08 2.44713e-08)
(-2.083e-10 -4.56494e-08 2.3989e-08)
(-5.46287e-09 -4.27981e-08 2.28171e-08)
(9.63129e-09 -5.82389e-08 3.09763e-08)
(9.74687e-10 -6.04019e-08 3.10902e-08)
(-1.56921e-09 -5.90892e-08 3.04983e-08)
(-8.01751e-09 -5.44014e-08 2.92736e-08)
(1.43351e-08 -7.14124e-08 3.61553e-08)
(1.65479e-09 -7.43293e-08 3.61293e-08)
(-5.2473e-09 -7.24717e-08 3.5442e-08)
(-1.56266e-08 -6.5929e-08 3.41512e-08)
(2.50116e-08 -9.03443e-08 3.89075e-08)
(3.97202e-09 -9.15953e-08 3.88053e-08)
(-1.19103e-08 -8.91284e-08 3.80561e-08)
(-3.03589e-08 -8.30052e-08 3.66868e-08)
(3.64909e-08 -1.1935e-07 3.88361e-08)
(5.92623e-09 -1.15827e-07 3.87614e-08)
(-1.97084e-08 -1.1244e-07 3.80155e-08)
(-4.70275e-08 -1.0911e-07 3.65782e-08)
(3.10065e-09 -6.56182e-10 1.72452e-09)
(4.08635e-10 -3.38549e-09 1.83083e-09)
(-2.05495e-10 -3.64121e-09 1.77927e-09)
(-1.17719e-09 -2.32504e-09 1.58594e-09)
(7.45885e-09 -1.37177e-08 5.68661e-09)
(1.51541e-09 -1.66784e-08 5.84331e-09)
(-1.07577e-10 -1.68148e-08 5.70686e-09)
(-3.71659e-09 -1.45853e-08 5.31636e-09)
(9.05078e-09 -2.95589e-08 1.00366e-08)
(2.00834e-09 -3.1397e-08 1.01385e-08)
(5.34072e-11 -3.11654e-08 9.92951e-09)
(-4.7244e-09 -2.90644e-08 9.45852e-09)
(9.23161e-09 -4.41472e-08 1.4419e-08)
(1.77116e-09 -4.5668e-08 1.44202e-08)
(-1.09827e-10 -4.496e-08 1.41435e-08)
(-5.36481e-09 -4.21523e-08 1.36385e-08)
(1.02738e-08 -5.70177e-08 1.83468e-08)
(1.51232e-09 -5.93017e-08 1.82436e-08)
(-1.42295e-09 -5.80748e-08 1.79026e-08)
(-7.96432e-09 -5.34433e-08 1.73691e-08)
(1.51105e-08 -6.99254e-08 2.12959e-08)
(2.29314e-09 -7.29408e-08 2.1116e-08)
(-5.01061e-09 -7.11686e-08 2.07187e-08)
(-1.5515e-08 -6.47027e-08 2.01398e-08)
(2.57447e-08 -8.86558e-08 2.28247e-08)
(4.64157e-09 -9.00343e-08 2.26117e-08)
(-1.15258e-08 -8.76482e-08 2.21778e-08)
(-3.00246e-08 -8.15623e-08 2.15398e-08)
(3.70938e-08 -1.17378e-07 2.27563e-08)
(6.6091e-09 -1.14115e-07 2.25671e-08)
(-1.91739e-08 -1.108e-07 2.21351e-08)
(-4.63976e-08 -1.07361e-07 2.14489e-08)
(3.08321e-09 -6.608e-10 5.88796e-10)
(4.27906e-10 -3.36063e-09 6.15337e-10)
(-2.10589e-10 -3.62344e-09 5.98581e-10)
(-1.13713e-09 -2.35665e-09 5.43904e-10)
(7.4827e-09 -1.35441e-08 1.91367e-09)
(1.58214e-09 -1.65117e-08 1.9474e-09)
(-1.08167e-10 -1.66707e-08 1.90306e-09)
(-3.66365e-09 -1.44846e-08 1.79372e-09)
(9.17502e-09 -2.91746e-08 3.35043e-09)
(2.1398e-09 -3.10607e-08 3.36181e-09)
(6.17367e-11 -3.08629e-08 3.29382e-09)
(-4.69994e-09 -2.8785e-08 3.16293e-09)
(9.47982e-09 -4.35806e-08 4.78864e-09)
(1.97755e-09 -4.51665e-08 4.76522e-09)
(-8.78295e-11 -4.44987e-08 4.67506e-09)
(-5.37729e-09 -4.17091e-08 4.53496e-09)
(1.0634e-08 -5.63132e-08 6.07111e-09)
(1.78911e-09 -5.86564e-08 6.01321e-09)
(-1.37575e-09 -5.74722e-08 5.90189e-09)
(-7.99407e-09 -5.28698e-08 5.75248e-09)
(1.55318e-08 -6.91401e-08 7.02803e-09)
(2.61863e-09 -7.22003e-08 6.94582e-09)
(-4.91673e-09 -7.04706e-08 6.81591e-09)
(-1.55105e-08 -6.40472e-08 6.65041e-09)
(2.61454e-08 -8.78189e-08 7.51994e-09)
(4.98396e-09 -8.92512e-08 7.42843e-09)
(-1.13588e-08 -8.6905e-08 7.28642e-09)
(-2.99089e-08 -8.08474e-08 7.09959e-09)
(3.74316e-08 -1.16427e-07 7.49465e-09)
(6.9592e-09 -1.13273e-07 7.41154e-09)
(-1.89325e-08 -1.09994e-07 7.27014e-09)
(-4.61361e-08 -1.06519e-07 7.0667e-09)
)
;

boundaryField
{
    interface
    {
        type            calculated;
        value           nonuniform List<vector> 
192
(
(2.40123e-08 3.48811e-08 2.27163e-08)
(4.1722e-08 2.43056e-08 5.55348e-08)
(4.61838e-08 3.88038e-09 8.01253e-08)
(4.5751e-08 -1.61465e-08 1.00954e-07)
(4.53205e-08 -3.59132e-08 1.21154e-07)
(4.8048e-08 -5.91365e-08 1.42702e-07)
(5.5982e-08 -9.43283e-08 1.6522e-07)
(6.35951e-08 -1.42719e-07 1.81894e-07)
(1.58641e-08 1.75346e-08 8.17168e-09)
(2.93345e-08 4.35175e-09 2.91448e-08)
(3.23876e-08 -1.38722e-08 5.01226e-08)
(3.14209e-08 -3.18623e-08 6.94289e-08)
(3.07432e-08 -4.96966e-08 8.7847e-08)
(3.37923e-08 -6.93828e-08 1.06133e-07)
(4.37181e-08 -9.79538e-08 1.23053e-07)
(5.5405e-08 -1.40046e-07 1.3345e-07)
(8.81025e-09 8.36113e-09 3.4384e-09)
(1.76712e-08 -6.47716e-09 1.75227e-08)
(1.95901e-08 -2.44247e-08 3.48107e-08)
(1.85701e-08 -4.12198e-08 5.21203e-08)
(1.81207e-08 -5.67074e-08 6.84231e-08)
(2.17849e-08 -7.23104e-08 8.307e-08)
(3.30437e-08 -9.50054e-08 9.41675e-08)
(4.67503e-08 -1.31543e-07 9.81573e-08)
(5.22133e-09 4.13623e-09 3.17736e-09)
(1.17886e-08 -1.10419e-08 1.42968e-08)
(1.33214e-08 -2.90048e-08 2.81983e-08)
(1.26643e-08 -4.50976e-08 4.26111e-08)
(1.27839e-08 -5.87889e-08 5.60342e-08)
(1.7107e-08 -7.1563e-08 6.71457e-08)
(2.89771e-08 -9.08385e-08 7.41203e-08)
(4.30644e-08 -1.24281e-07 7.50599e-08)
(3.75171e-09 2.55349e-09 3.17046e-09)
(9.50222e-09 -1.24167e-08 1.20787e-08)
(1.11237e-08 -3.01309e-08 2.2722e-08)
(1.09571e-08 -4.56755e-08 3.37657e-08)
(1.16615e-08 -5.82693e-08 4.39119e-08)
(1.64746e-08 -6.95762e-08 5.18589e-08)
(2.8527e-08 -8.73395e-08 5.62522e-08)
(4.24624e-08 -1.19329e-07 5.62656e-08)
(3.2407e-09 2.07968e-09 2.62792e-09)
(8.82301e-09 -1.24994e-08 9.16802e-09)
(1.06866e-08 -2.97854e-08 1.66461e-08)
(1.09458e-08 -4.48606e-08 2.43117e-08)
(1.20957e-08 -5.68621e-08 3.12588e-08)
(1.72209e-08 -6.75674e-08 3.65285e-08)
(2.9299e-08 -8.48054e-08 3.92586e-08)
(4.30057e-08 -1.1611e-07 3.91076e-08)
(3.0853e-09 1.9837e-09 1.69969e-09)
(8.68408e-09 -1.22302e-08 5.6823e-09)
(1.07547e-08 -2.91158e-08 1.0105e-08)
(1.13013e-08 -4.38416e-08 1.45821e-08)
(1.27307e-08 -5.5548e-08 1.85975e-08)
(1.80352e-08 -6.60577e-08 2.15951e-08)
(3.01047e-08 -8.316e-08 2.31081e-08)
(4.36432e-08 -1.14139e-07 2.29915e-08)
(3.04464e-09 1.98068e-09 5.84437e-10)
(8.67171e-09 -1.20212e-08 1.91964e-09)
(1.08504e-08 -2.86754e-08 3.3815e-09)
(1.15366e-08 -4.32159e-08 4.85069e-09)
(1.30977e-08 -5.48003e-08 6.16119e-09)
(1.84839e-08 -6.52624e-08 7.13336e-09)
(3.0546e-08 -8.2344e-08 7.6201e-09)
(4.40011e-08 -1.13191e-07 7.5791e-09)
(2.01551e-08 4.17518e-08 2.68993e-08)
(3.81407e-08 3.37304e-08 6.11896e-08)
(4.22419e-08 1.44715e-08 8.6426e-08)
(4.11696e-08 -5.59057e-09 1.07658e-07)
(4.0269e-08 -2.61683e-08 1.27887e-07)
(4.29312e-08 -5.09963e-08 1.48804e-07)
(5.06251e-08 -8.8618e-08 1.70547e-07)
(5.81636e-08 -1.39628e-07 1.86303e-07)
(4.24302e-09 3.41376e-08 2.52271e-08)
(8.76798e-09 2.67802e-08 5.86838e-08)
(9.12621e-09 1.10535e-08 8.26861e-08)
(7.30213e-09 -7.19678e-09 1.02506e-07)
(5.26789e-09 -2.77373e-08 1.21333e-07)
(4.40918e-09 -5.25262e-08 1.41184e-07)
(5.28472e-09 -8.79683e-08 1.63453e-07)
(6.07223e-09 -1.35992e-07 1.82195e-07)
(-6.72786e-09 3.28877e-08 2.34125e-08)
(-1.43497e-08 2.62232e-08 5.61624e-08)
(-1.77718e-08 1.12971e-08 7.96437e-08)
(-1.967e-08 -6.23186e-09 9.90619e-08)
(-2.21899e-08 -2.61171e-08 1.17545e-07)
(-2.68204e-08 -5.02607e-08 1.37073e-07)
(-3.42827e-08 -8.49533e-08 1.59018e-07)
(-4.29057e-08 -1.31802e-07 1.77431e-07)
(-2.0503e-08 3.77723e-08 2.1485e-08)
(-4.06627e-08 3.23739e-08 5.33722e-08)
(-4.77391e-08 1.56332e-08 7.6955e-08)
(-5.03476e-08 -2.33961e-09 9.69602e-08)
(-5.39393e-08 -2.10447e-08 1.16156e-07)
(-6.20068e-08 -4.40226e-08 1.3611e-07)
(-7.60727e-08 -7.9473e-08 1.56921e-07)
(-9.09418e-08 -1.26982e-07 1.71884e-07)
(-1.76855e-08 3.29779e-08 1.97631e-08)
(-3.68061e-08 2.49674e-08 4.92165e-08)
(-4.36208e-08 7.15766e-09 7.17544e-08)
(-4.63505e-08 -1.05078e-08 9.10934e-08)
(-4.9948e-08 -2.80067e-08 1.10033e-07)
(-5.76264e-08 -4.89189e-08 1.30402e-07)
(-7.13808e-08 -8.14932e-08 1.5177e-07)
(-8.56455e-08 -1.26136e-07 1.67515e-07)
(-9.22549e-09 1.58887e-08 6.80442e-09)
(-2.29346e-08 5.14769e-09 2.54022e-08)
(-2.74619e-08 -1.06692e-08 4.46121e-08)
(-2.89579e-08 -2.64037e-08 6.25561e-08)
(-3.17072e-08 -4.20209e-08 7.98088e-08)
(-3.91591e-08 -5.94562e-08 9.70245e-08)
(-5.43595e-08 -8.55649e-08 1.12995e-07)
(-7.20537e-08 -1.2419e-07 1.22823e-07)
(-1.965e-09 6.28366e-09 2.5661e-09)
(-1.02871e-08 -6.22348e-09 1.50388e-08)
(-1.29347e-08 -2.18334e-08 3.09434e-08)
(-1.3719e-08 -3.64083e-08 4.70751e-08)
(-1.61135e-08 -4.96997e-08 6.23377e-08)
(-2.36473e-08 -6.3091e-08 7.60518e-08)
(-3.96878e-08 -8.34061e-08 8.639e-08)
(-5.89268e-08 -1.16572e-07 9.00213e-08)
(1.79837e-09 1.64176e-09 2.56218e-09)
(-3.72536e-09 -1.14247e-08 1.25745e-08)
(-5.43843e-09 -2.71446e-08 2.5462e-08)
(-6.03918e-09 -4.10498e-08 3.89391e-08)
(-8.49126e-09 -5.25539e-08 5.15008e-08)
(-1.62171e-08 -6.31238e-08 6.18427e-08)
(-3.24391e-08 -8.00266e-08 6.82153e-08)
(-5.16666e-08 -1.10088e-07 6.88969e-08)
(3.38843e-09 -2.32731e-10 2.74312e-09)
(-9.99814e-10 -1.33103e-08 1.0897e-08)
(-2.42051e-09 -2.89028e-08 2.08307e-08)
(-3.10181e-09 -4.23105e-08 3.11846e-08)
(-5.73289e-09 -5.2729e-08 4.06713e-08)
(-1.35641e-08 -6.18232e-08 4.80226e-08)
(-2.96123e-08 -7.71889e-08 5.19536e-08)
(-4.83663e-08 -1.05757e-07 5.17714e-08)
(3.97439e-09 -8.94308e-10 2.3492e-09)
(-4.70135e-11 -1.37482e-08 8.40051e-09)
(-1.4591e-09 -2.90234e-08 1.54125e-08)
(-2.28058e-09 -4.20177e-08 2.26109e-08)
(-5.05919e-09 -5.18603e-08 2.90989e-08)
(-1.2912e-08 -6.03434e-08 3.39476e-08)
(-2.87141e-08 -7.51548e-08 3.63491e-08)
(-4.69946e-08 -1.02998e-07 3.6058e-08)
(4.17298e-09 -1.10161e-09 1.54288e-09)
(2.5133e-10 -1.36985e-08 5.25076e-09)
(-1.21326e-09 -2.86523e-08 9.40938e-09)
(-2.14538e-09 -4.13422e-08 1.36171e-08)
(-5.01047e-09 -5.09056e-08 1.73632e-08)
(-1.28495e-08 -5.91875e-08 2.01107e-08)
(-2.84608e-08 -7.38415e-08 2.14273e-08)
(-4.6409e-08 -1.01329e-07 2.1226e-08)
(4.23336e-09 -1.15647e-09 5.33885e-10)
(3.37037e-10 -1.35939e-08 1.78048e-09)
(-1.16412e-09 -2.83565e-08 3.1568e-09)
(-2.14964e-09 -4.08855e-08 4.53806e-09)
(-5.05155e-09 -5.03363e-08 5.75991e-09)
(-1.28763e-08 -5.85683e-08 6.64926e-09)
(-2.8389e-08 -7.31909e-08 7.07064e-09)
(-4.61717e-08 -1.0053e-07 7.00131e-09)
(5.78607e-08 -1.46912e-07 1.86117e-07)
(4.96379e-08 -1.45227e-07 1.35118e-07)
(4.10665e-08 -1.3762e-07 9.75848e-08)
(3.71856e-08 -1.31201e-07 7.33044e-08)
(3.66179e-08 -1.26559e-07 5.43199e-08)
(3.72299e-08 -1.23425e-07 3.75431e-08)
(3.78975e-08 -1.21483e-07 2.20257e-08)
(3.82611e-08 -1.20549e-07 7.25687e-09)
(5.80157e-09 -1.42225e-07 1.83031e-07)
(4.29753e-09 -1.37502e-07 1.35032e-07)
(2.55748e-09 -1.29281e-07 9.96382e-08)
(2.3534e-09 -1.23724e-07 7.50895e-08)
(3.17875e-09 -1.20037e-07 5.50909e-08)
(4.19858e-09 -1.17548e-07 3.76535e-08)
(4.96446e-09 -1.15956e-07 2.19284e-08)
(5.35076e-09 -1.15168e-07 7.20097e-09)
(-4.31597e-08 -1.3694e-07 1.79314e-07)
(-3.52196e-08 -1.32463e-07 1.32454e-07)
(-2.84573e-08 -1.24474e-07 9.77266e-08)
(-2.44224e-08 -1.1911e-07 7.36625e-08)
(-2.23916e-08 -1.15573e-07 5.4057e-08)
(-2.1388e-08 -1.13194e-07 3.69537e-08)
(-2.08627e-08 -1.11673e-07 2.15237e-08)
(-2.06211e-08 -1.1092e-07 7.06856e-09)
(-9.12163e-08 -1.30872e-07 1.7497e-07)
(-7.69996e-08 -1.29761e-07 1.27402e-07)
(-6.35339e-08 -1.22819e-07 9.18394e-08)
(-5.58119e-08 -1.16978e-07 6.89969e-08)
(-5.23552e-08 -1.1279e-07 5.11926e-08)
(-5.09163e-08 -1.09985e-07 3.54256e-08)
(-5.02737e-08 -1.08258e-07 2.08013e-08)
(-4.99996e-08 -1.07429e-07 6.85636e-09)
)
;
    }
    symmetry
    {
        type            symmetry;
    }
    bottom
    {
        type            calculated;
        value           uniform (0 0 0);
    }
}


// ************************************************************************* //
