/*--------------------------------*- C++ -*----------------------------------*\
| =========                 |                                                 |
| \\      /  F ield         | OpenFOAM: The Open Source CFD Toolbox           |
|  \\    /   O peration     | Version:  v1912                                 |
|   \\  /    A nd           | Website:  www.openfoam.com                      |
|    \\/     M anipulation  |                                                 |
\*---------------------------------------------------------------------------*/
FoamFile
{
    version     2.0;
    format      ascii;
    class       surfaceScalarField;
    location    "0.88/fluid";
    object      meshPhi;
}
// * * * * * * * * * * * * * * * * * * * * * * * * * * * * * * * * * * * * * //

dimensions      [0 3 -1 0 0 0 0];
oriented        oriented;


internalField   nonuniform List<scalar> 
41600
(
1.34046e-13
-3.66691e-13
1.38345e-13
-1.42929e-13
2.56484e-13
-1.06813e-12
4.07845e-13
-4.21566e-13
3.72669e-13
-1.71879e-12
6.72325e-13
-6.95602e-13
4.87566e-13
-2.34128e-12
9.49414e-13
-9.83585e-13
6.06085e-13
-2.95067e-12
1.25503e-12
-1.3024e-12
7.33567e-13
-3.55341e-12
1.60415e-12
-1.66818e-12
8.76494e-13
-4.14516e-12
2.01127e-12
-2.09693e-12
1.04358e-12
-4.70684e-12
2.49054e-12
-2.6049e-12
1.24774e-12
-5.19743e-12
3.0555e-12
-3.20884e-12
1.51003e-12
-5.54129e-12
3.71859e-12
-3.92638e-12
1.86808e-12
-5.60552e-12
4.49073e-12
-4.77796e-12
2.39363e-12
-5.15709e-12
5.3829e-12
-5.79364e-12
3.22487e-12
-3.78107e-12
6.41246e-12
-7.03306e-12
4.59549e-12
-7.59244e-13
7.61052e-12
-8.6285e-12
6.57045e-12
4.6116e-12
8.94808e-12
-1.07096e-11
1.33211e-11
1.11976e-11
-1.60424e-11
3.98512e-13
-7.2257e-13
4.11399e-13
-4.25021e-13
7.6236e-13
-2.10523e-12
1.2127e-12
-1.25349e-12
1.10727e-12
-3.38916e-12
1.99878e-12
-2.06794e-12
1.44776e-12
-4.61987e-12
2.82183e-12
-2.92329e-12
1.79815e-12
-5.82855e-12
3.72895e-12
-3.86949e-12
2.17391e-12
-7.03043e-12
4.76447e-12
-4.95426e-12
2.59347e-12
-8.22127e-12
5.97122e-12
-6.22483e-12
3.08094e-12
-9.37079e-12
7.39089e-12
-7.72898e-12
3.67067e-12
-1.04114e-11
9.06298e-12
-9.51524e-12
4.41594e-12
-1.122e-11
1.10224e-11
-1.16329e-11
5.4058e-12
-1.159e-11
1.32955e-11
-1.41336e-11
6.79686e-12
-1.11955e-11
1.58967e-11
-1.70792e-11
8.85911e-12
-9.56399e-12
1.88263e-11
-2.05661e-11
1.19706e-11
-6.15827e-12
2.20541e-11
-2.47636e-11
1.60045e-11
-1.03424e-12
2.53499e-11
-2.96633e-11
5.10031e-12
2.78831e-11
-3.56868e-11
6.52375e-13
-1.05702e-12
6.7384e-13
-6.96136e-13
1.2475e-12
-3.08072e-12
1.986e-12
-2.05272e-12
1.81055e-12
-4.96318e-12
3.27226e-12
-3.3853e-12
2.36459e-12
-6.77333e-12
4.61748e-12
-4.78312e-12
2.9323e-12
-8.56028e-12
6.09811e-12
-6.32724e-12
3.5378e-12
-1.0352e-11
7.7861e-12
-8.09505e-12
4.20899e-12
-1.21516e-11
9.751e-12
-1.0163e-11
4.98072e-12
-1.39303e-11
1.20604e-11
-1.26082e-11
5.89948e-12
-1.56159e-11
1.4778e-11
-1.55079e-11
7.03073e-12
-1.70747e-11
1.79581e-11
-1.89375e-11
8.4709e-12
-1.80886e-11
2.16356e-11
-2.29658e-11
1.03652e-11
-1.83357e-11
2.58083e-11
-2.76504e-11
1.29154e-11
-1.74092e-11
3.0409e-11
-3.30295e-11
1.62999e-11
-1.49734e-11
3.52441e-11
-3.90929e-11
2.00825e-11
-1.13271e-11
3.98086e-11
-4.54246e-11
-7.27804e-12
4.34391e-11
-5.29452e-11
8.89272e-13
-1.35918e-12
9.19298e-13
-9.49661e-13
1.69948e-12
-3.96315e-12
2.70877e-12
-2.79958e-12
2.46385e-12
-6.39073e-12
4.46094e-12
-4.61462e-12
3.21264e-12
-8.73449e-12
6.29027e-12
-6.51514e-12
3.97537e-12
-1.10632e-11
8.29974e-12
-8.61026e-12
4.78286e-12
-1.34215e-11
1.05862e-11
-1.1004e-11
5.66965e-12
-1.58276e-11
1.32435e-11
-1.37992e-11
6.67675e-12
-1.82674e-11
1.63629e-11
-1.70993e-11
7.85469e-12
-2.06854e-11
2.00312e-11
-2.10078e-11
9.26635e-12
-2.29703e-11
2.43226e-11
-2.56236e-11
1.09888e-11
-2.49362e-11
2.92831e-11
-3.10311e-11
1.31105e-11
-2.63064e-11
3.49015e-11
-3.72804e-11
1.57074e-11
-2.67201e-11
4.10579e-11
-4.43519e-11
1.87537e-11
-2.58265e-11
4.74284e-11
-5.20817e-11
2.17449e-11
-2.36715e-11
5.32741e-11
-5.97665e-11
-2.05876e-11
5.76111e-11
-6.79984e-11
1.10377e-12
-1.61835e-12
1.14218e-12
-1.1798e-12
2.1077e-12
-4.72126e-12
3.36436e-12
-3.4768e-12
3.05136e-12
-7.62129e-12
5.53682e-12
-5.72686e-12
3.97059e-12
-1.04339e-11
7.79957e-12
-8.07716e-12
4.89998e-12
-1.32483e-11
1.02783e-11
-1.06608e-11
5.87503e-12
-1.61287e-11
1.30909e-11
-1.36043e-11
6.93447e-12
-1.9114e-11
1.6352e-11
-1.70327e-11
8.12241e-12
-2.22149e-11
2.01737e-11
-2.10721e-11
9.48978e-12
-2.54091e-11
2.4664e-11
-2.58494e-11
1.10935e-11
-2.86321e-11
2.99188e-11
-3.14873e-11
1.29909e-11
-3.17635e-11
3.60047e-11
-3.8092e-11
1.52245e-11
-3.46068e-11
4.29241e-11
-4.57265e-11
1.77807e-11
-3.68569e-11
5.05484e-11
-5.43568e-11
2.05025e-11
-3.80655e-11
5.84797e-11
-6.37337e-11
2.28549e-11
-3.77829e-11
6.57461e-11
-7.28966e-11
-3.54101e-11
7.10034e-11
-8.20861e-11
1.2917e-12
-1.82432e-12
1.33804e-12
-1.38194e-12
2.46408e-12
-5.32505e-12
3.93953e-12
-4.07065e-12
3.5612e-12
-8.60575e-12
6.47765e-12
-6.69897e-12
4.62265e-12
-1.18028e-11
9.11305e-12
-9.4357e-12
5.68626e-12
-1.50247e-11
1.19893e-11
-1.24328e-11
6.79028e-12
-1.83558e-11
1.52409e-11
-1.58343e-11
7.97561e-12
-2.18578e-11
1.89981e-11
-1.9782e-11
9.28781e-12
-2.5571e-11
2.33891e-11
-2.44193e-11
1.07781e-11
-2.95139e-11
2.85397e-11
-2.98918e-11
1.2502e-11
-3.36818e-11
3.45673e-11
-3.63449e-11
1.45143e-11
-3.80436e-11
4.15663e-11
-4.39134e-11
1.68554e-11
-4.2531e-11
4.95795e-11
-5.27005e-11
1.95157e-11
-4.70004e-11
5.85312e-11
-6.27246e-11
2.23516e-11
-5.11235e-11
6.80623e-11
-7.37796e-11
2.48192e-11
-5.41777e-11
7.70805e-11
-8.47766e-11
-5.43815e-11
8.39542e-11
-9.5842e-11
1.45026e-12
-1.96781e-12
1.50373e-12
-1.55285e-12
2.76336e-12
-5.74726e-12
4.425e-12
-4.57159e-12
3.98584e-12
-9.29911e-12
7.26799e-12
-7.51502e-12
5.15916e-12
-1.27769e-11
1.02084e-11
-1.05678e-11
6.32251e-12
-1.63057e-11
1.34025e-11
-1.3895e-11
7.51493e-12
-1.99874e-11
1.69953e-11
-1.76519e-11
8.7776e-12
-2.39048e-11
2.11268e-11
-2.19906e-11
1.01559e-11
-2.81251e-11
2.59346e-11
-2.70641e-11
1.17013e-11
-3.27041e-11
3.1555e-11
-3.30291e-11
1.34719e-11
-3.76918e-11
3.81197e-11
-4.00453e-11
1.55333e-11
-4.31416e-11
4.57483e-11
-4.82727e-11
1.79588e-11
-4.91223e-11
5.45312e-11
-5.78629e-11
2.08208e-11
-5.57256e-11
6.4485e-11
-6.89294e-11
2.41356e-11
-6.30149e-11
7.54029e-11
-8.1433e-11
2.74557e-11
-7.05611e-11
8.62717e-11
-9.43696e-11
-7.79795e-11
9.53723e-11
-1.08224e-10
1.57814e-12
1.6376e-12
-1.69082e-12
-2.04111e-12
3.00327e-12
4.816e-12
-4.97469e-12
-5.96519e-12
4.32241e-12
7.9002e-12
-8.16717e-12
-9.66382e-12
5.57701e-12
1.10752e-11
-1.14625e-11
-1.33023e-11
6.8057e-12
1.45038e-11
-1.50328e-11
-1.70175e-11
8.04636e-12
1.83358e-11
-1.90382e-11
-2.09243e-11
9.33819e-12
2.27135e-11
-2.3633e-11
-2.51206e-11
1.0724e-11
2.77754e-11
-2.8971e-11
-2.96924e-11
1.22526e-11
3.36573e-11
-3.52076e-11
-3.47194e-11
1.3981e-11
4.04906e-11
-4.25013e-11
-4.0282e-11
1.59795e-11
4.83991e-11
-5.10142e-11
-4.64728e-11
1.8341e-11
5.74906e-11
-6.09127e-11
-5.34139e-11
2.1189e-11
6.78325e-11
-7.23595e-11
-6.12748e-11
2.46395e-11
7.93416e-11
-8.54431e-11
-7.02483e-11
2.82785e-11
9.11066e-11
-9.92709e-11
-7.99035e-11
1.02338e-10
-1.15718e-10
-9.21285e-11
1.36148e-13
-3.75285e-13
1.28741e-13
2.60389e-13
-1.09329e-12
3.79366e-13
3.78052e-13
-1.75977e-12
6.24834e-13
4.94018e-13
-2.39829e-12
8.81195e-13
6.13012e-13
-3.02482e-12
1.16276e-12
7.39994e-13
-3.64679e-12
1.48271e-12
8.80734e-13
-4.26113e-12
1.85328e-12
1.04269e-12
-4.85082e-12
2.28551e-12
1.23656e-12
-5.37882e-12
2.78831e-12
1.47951e-12
-5.77805e-12
3.36641e-12
1.802e-12
-5.93459e-12
4.01664e-12
2.26186e-12
-5.65909e-12
4.72125e-12
2.96788e-12
-4.63941e-12
5.43532e-12
4.08858e-12
-2.39756e-12
6.06033e-12
5.63075e-12
1.41784e-12
6.40638e-12
6.42823e-12
6.30693e-12
4.04789e-13
-7.39466e-13
3.8284e-13
7.74034e-13
-2.15469e-12
1.12804e-12
1.12341e-12
-3.46973e-12
1.85763e-12
1.46721e-12
-4.732e-12
2.61917e-12
1.81923e-12
-5.97442e-12
3.45502e-12
2.19385e-12
-7.21403e-12
4.40418e-12
2.60746e-12
-8.44882e-12
5.50286e-12
3.0806e-12
-9.65204e-12
6.78378e-12
3.64139e-12
-1.07628e-11
8.27318e-12
4.3321e-12
-1.16717e-11
9.98462e-12
5.22231e-12
-1.22021e-11
1.19069e-11
6.43278e-12
-1.20918e-11
1.39821e-11
8.16561e-12
-1.10029e-11
1.60658e-11
1.06733e-11
-8.65184e-12
1.78541e-11
1.37849e-11
-5.31547e-12
1.88344e-11
-2.65411e-12
1.78281e-11
6.62761e-13
-1.08167e-12
6.27093e-13
1.26687e-12
-3.15292e-12
1.84743e-12
1.83747e-12
-5.08083e-12
3.04137e-12
2.39734e-12
-6.93711e-12
4.28622e-12
2.96837e-12
-8.77331e-12
5.6508e-12
3.57304e-12
-1.06198e-11
7.19849e-12
4.23623e-12
-1.24826e-11
8.98828e-12
4.98746e-12
-1.43369e-11
1.10737e-11
5.86386e-12
-1.6118e-11
1.3498e-11
6.91468e-12
-1.77071e-11
1.62841e-11
8.20849e-12
-1.89168e-11
1.94144e-11
9.84212e-12
-1.94895e-11
2.27946e-11
1.19367e-11
-1.91456e-11
2.61899e-11
1.45553e-11
-1.77725e-11
2.91305e-11
1.73119e-11
-1.58323e-11
3.09019e-11
-1.47351e-11
3.04581e-11
9.0368e-13
-1.39082e-12
8.55588e-13
1.72643e-12
-4.05582e-12
2.51999e-12
2.50156e-12
-6.54179e-12
4.1466e-12
3.25905e-12
-8.94482e-12
5.83977e-12
4.0275e-12
-1.13367e-11
7.69225e-12
4.83582e-12
-1.3765e-11
9.78951e-12
5.71501e-12
-1.62507e-11
1.22114e-11
6.69977e-12
-1.87837e-11
1.5031e-11
7.82957e-12
-2.13149e-11
1.83092e-11
9.14822e-12
-2.37449e-11
2.20812e-11
1.07004e-11
-2.59119e-11
2.63321e-11
1.25197e-11
-2.75881e-11
3.09499e-11
1.45953e-11
-2.8509e-11
3.56475e-11
1.67922e-11
-2.84932e-11
3.98508e-11
1.86843e-11
-2.77267e-11
4.26845e-11
-2.71873e-11
4.29417e-11
1.12207e-12
-1.65597e-12
1.06314e-12
2.14205e-12
-4.83144e-12
3.13027e-12
3.09977e-12
-7.80096e-12
5.1474e-12
4.03086e-12
-1.06842e-11
7.2422e-12
4.96908e-12
-1.35737e-11
9.52799e-12
5.94805e-12
-1.65369e-11
1.21091e-11
7.00294e-12
-1.96153e-11
1.50833e-11
8.1715e-12
-2.2823e-11
1.85412e-11
9.4935e-12
-2.61416e-11
2.25607e-11
1.10066e-11
-2.95137e-11
2.71931e-11
1.27356e-11
-3.28321e-11
3.24365e-11
1.46672e-11
-3.59256e-11
3.81845e-11
1.66992e-11
-3.85381e-11
4.41359e-11
1.85635e-11
-4.03137e-11
4.96526e-11
1.97983e-11
-4.09078e-11
5.36798e-11
-4.05307e-11
5.475e-11
1.31367e-12
-1.86667e-12
1.24562e-12
2.50548e-12
-5.44915e-12
3.66597e-12
3.61992e-12
-8.8082e-12
6.02307e-12
4.69659e-12
-1.20849e-11
8.46352e-12
5.77269e-12
-1.53915e-11
1.11169e-11
6.88488e-12
-1.88156e-11
1.41023e-11
8.07098e-12
-2.24215e-11
1.75313e-11
9.37096e-12
-2.62515e-11
2.15084e-11
1.08263e-11
-3.03258e-11
2.61259e-11
1.24758e-11
-3.46419e-11
3.14517e-11
1.43457e-11
-3.91711e-11
3.75042e-11
1.64274e-11
-4.38477e-11
4.42024e-11
1.86309e-11
-4.85309e-11
5.12704e-11
2.07055e-11
-5.28948e-11
5.80634e-11
2.21612e-11
-5.62416e-11
6.33832e-11
-5.73129e-11
6.54978e-11
1.47559e-12
-2.01346e-12
1.4001e-12
2.81124e-12
-5.88109e-12
4.11843e-12
4.05415e-12
-9.51756e-12
6.75925e-12
5.24603e-12
-1.30815e-11
9.48299e-12
6.42574e-12
-1.6702e-11
1.24307e-11
7.63123e-12
-2.04841e-11
1.57311e-11
8.90133e-12
-2.4513e-11
1.95046e-11
1.02772e-11
-2.8857e-11
2.38635e-11
1.18028e-11
-3.35719e-11
2.89091e-11
1.35239e-11
-3.87059e-11
3.47208e-11
1.54849e-11
-4.43074e-11
4.13348e-11
1.77226e-11
-5.04339e-11
4.87011e-11
2.02489e-11
-5.71519e-11
5.65923e-11
2.29933e-11
-6.44692e-11
6.44119e-11
2.55533e-11
-7.19226e-11
7.08912e-11
-7.86489e-11
7.40429e-11
1.60642e-12
1.52501e-12
-2.08847e-12
3.05688e-12
4.48319e-12
-6.10409e-12
4.39924e-12
7.34876e-12
-9.89073e-12
5.67548e-12
1.02907e-11
-1.3619e-11
6.92425e-12
1.34562e-11
-1.74299e-11
8.18283e-12
1.69784e-11
-2.14415e-11
9.48896e-12
2.098e-11
-2.57538e-11
1.08827e-11
2.55743e-11
-3.04534e-11
1.24077e-11
3.08625e-11
-3.56185e-11
1.41131e-11
3.69242e-11
-4.13254e-11
1.60558e-11
4.37998e-11
-4.76577e-11
1.83049e-11
5.14534e-11
-5.47195e-11
2.09436e-11
5.96926e-11
-6.26438e-11
2.4025e-11
6.79911e-11
-7.15484e-11
2.71705e-11
7.51004e-11
-8.09511e-11
7.88455e-11
-9.18864e-11
1.37627e-13
-3.8285e-13
1.14593e-13
2.63046e-13
-1.11547e-12
3.37541e-13
3.81452e-13
-1.79597e-12
5.55493e-13
4.97494e-13
-2.44874e-12
7.82401e-13
6.15516e-13
-3.09062e-12
1.03052e-12
7.39813e-13
-3.73011e-12
1.31082e-12
8.74993e-13
-4.3658e-12
1.63292e-12
1.02647e-12
-4.98369e-12
2.00457e-12
1.20128e-12
-5.5528e-12
2.43015e-12
1.40988e-12
-6.01877e-12
2.90782e-12
1.66984e-12
-6.29501e-12
3.42416e-12
2.01303e-12
-6.25179e-12
3.94508e-12
2.49471e-12
-5.70601e-12
4.40084e-12
3.18413e-12
-4.43617e-12
4.66737e-12
4.02292e-12
-2.38576e-12
4.58808e-12
2.58767e-13
4.19008e-12
4.09233e-13
-7.5432e-13
3.4078e-13
7.82038e-13
-2.19823e-12
1.00371e-12
1.13371e-12
-3.54077e-12
1.65154e-12
1.4779e-12
-4.83095e-12
2.32564e-12
1.82732e-12
-6.10331e-12
3.06229e-12
2.19443e-12
-7.37679e-12
3.89393e-12
2.59236e-12
-8.65221e-12
4.84917e-12
3.03586e-12
-9.90782e-12
5.95107e-12
3.54291e-12
-1.10925e-11
7.2129e-12
4.13754e-12
-1.21169e-11
8.62968e-12
4.85558e-12
-1.28453e-11
1.01628e-11
5.75365e-12
-1.30983e-11
1.17139e-11
6.91301e-12
-1.26917e-11
1.30842e-11
8.39156e-12
-1.15746e-11
1.39336e-11
9.95881e-12
-1.01215e-11
1.38723e-11
-9.48949e-12
1.25924e-11
6.70198e-13
-1.10331e-12
5.58231e-13
1.28032e-12
-3.21633e-12
1.64392e-12
1.85497e-12
-5.18422e-12
2.70417e-12
2.41599e-12
-7.08097e-12
3.80623e-12
2.98362e-12
-8.96032e-12
5.0091e-12
3.57748e-12
-1.0855e-11
6.36559e-12
4.21753e-12
-1.27741e-11
7.92245e-12
4.92481e-12
-1.46986e-11
9.71784e-12
5.72177e-12
-1.65737e-11
1.17748e-11
6.63203e-12
-1.83013e-11
1.40883e-11
7.67905e-12
-1.97347e-11
1.66018e-11
8.88007e-12
-2.0694e-11
1.91694e-11
1.0223e-11
-2.10347e-11
2.15016e-11
1.1596e-11
-2.08215e-11
2.31257e-11
1.2655e-11
-2.05365e-11
2.35466e-11
-2.1105e-11
2.26954e-11
9.14156e-13
-1.41851e-12
7.61707e-13
1.74551e-12
-4.13695e-12
2.24262e-12
2.52674e-12
-6.67399e-12
3.68729e-12
3.28674e-12
-9.12855e-12
5.18654e-12
4.05214e-12
-1.15749e-11
6.81994e-12
4.84844e-12
-1.4063e-11
8.65885e-12
5.70076e-12
-1.66169e-11
1.07668e-11
6.63388e-12
-1.92306e-11
1.31968e-11
7.67031e-12
-2.1863e-11
1.59829e-11
8.82509e-12
-2.44298e-11
1.91251e-11
1.0094e-11
-2.67992e-11
2.2561e-11
1.14289e-11
-2.87999e-11
2.61211e-11
1.26912e-11
-3.02658e-11
2.94697e-11
1.35975e-11
-3.1151e-11
3.20676e-11
1.3805e-11
-3.16782e-11
3.33397e-11
-3.24946e-11
3.31886e-11
1.1356e-12
-1.68878e-12
9.46611e-13
2.16687e-12
-4.92756e-12
2.78611e-12
3.13305e-12
-7.9575e-12
4.57793e-12
4.06867e-12
-1.09014e-11
6.43327e-12
5.00544e-12
-1.38547e-11
8.44939e-12
5.97342e-12
-1.68867e-11
1.07136e-11
7.00174e-12
-2.00411e-11
1.33041e-11
8.11794e-12
-2.33342e-11
1.62871e-11
9.34471e-12
-2.67512e-11
1.97088e-11
1.06912e-11
-3.02409e-11
2.3578e-11
1.21347e-11
-3.3709e-11
2.78365e-11
1.35837e-11
-3.70092e-11
3.2311e-11
1.48163e-11
-3.99329e-11
3.6647e-11
1.54279e-11
-4.22046e-11
4.02591e-11
1.50408e-11
-4.35467e-11
4.24626e-11
-4.40388e-11
4.30441e-11
1.33022e-12
-1.90349e-12
1.10925e-12
2.53605e-12
-5.557e-12
3.26343e-12
3.66154e-12
-8.98377e-12
5.3577e-12
4.7453e-12
-1.23283e-11
7.51977e-12
5.82263e-12
-1.57057e-11
9.86102e-12
6.92689e-12
-1.92051e-11
1.24813e-11
8.09022e-12
-2.28917e-11
1.54701e-11
9.34318e-12
-2.68079e-11
1.89045e-11
1.07116e-11
-3.09724e-11
2.28408e-11
1.22087e-11
-3.53795e-11
2.7298e-11
1.3818e-11
-3.99948e-11
3.22274e-11
1.54597e-11
-4.47425e-11
3.74629e-11
1.69324e-11
-4.94656e-11
4.26466e-11
1.78503e-11
-5.38233e-11
4.71561e-11
1.7784e-11
-5.7139e-11
5.01867e-11
-5.81567e-11
5.14117e-11
1.49502e-12
-2.05304e-12
1.24703e-12
2.84738e-12
-5.997e-12
3.66688e-12
4.10401e-12
-9.70622e-12
6.01377e-12
5.30589e-12
-1.33429e-11
8.42759e-12
6.49028e-12
-1.70389e-11
1.10297e-11
7.69228e-12
-2.09005e-11
1.39282e-11
8.9459e-12
-2.50127e-11
1.72199e-11
1.02843e-11
-2.94417e-11
2.09882e-11
1.17384e-11
-3.42379e-11
2.52955e-11
1.33325e-11
-3.94388e-11
3.01675e-11
1.50753e-11
-4.50726e-11
3.55637e-11
1.69424e-11
-5.11585e-11
4.13267e-11
1.88449e-11
-5.76921e-11
4.70999e-11
2.05773e-11
-6.45628e-11
5.22235e-11
2.17614e-11
-7.1211e-11
5.57581e-11
-7.66463e-11
5.72174e-11
1.6285e-12
1.35853e-12
-2.12941e-12
3.09818e-12
3.99241e-12
-6.22401e-12
4.45688e-12
6.5397e-12
-1.0086e-11
5.7461e-12
9.1478e-12
-1.38896e-11
7.0033e-12
1.19436e-11
-1.77784e-11
8.26351e-12
1.5039e-11
-2.18715e-11
9.56066e-12
1.85331e-11
-2.6268e-11
1.09285e-11
2.251e-11
-3.10511e-11
1.24005e-11
2.70321e-11
-3.62912e-11
1.40093e-11
3.21247e-11
-4.20497e-11
1.57837e-11
3.77486e-11
-4.83834e-11
1.77437e-11
4.37497e-11
-5.53476e-11
1.98883e-11
4.97764e-11
-6.29884e-11
2.21488e-11
5.51611e-11
-7.12837e-11
2.41572e-11
5.88876e-11
-7.96566e-11
5.99478e-11
-8.88265e-11
1.38558e-13
-3.89253e-13
9.65143e-14
2.64614e-13
-1.13425e-12
2.84187e-13
3.83165e-13
-1.82663e-12
4.67339e-13
4.98557e-13
-2.49151e-12
6.57458e-13
6.14647e-13
-3.14648e-12
8.64463e-13
7.34933e-13
-3.80101e-12
1.09694e-12
8.62703e-13
-4.45532e-12
1.36199e-12
1.00115e-12
-5.0984e-12
1.66451e-12
1.15355e-12
-5.70502e-12
2.00567e-12
1.3238e-12
-6.23219e-12
2.38011e-12
1.51793e-12
-6.61562e-12
2.77143e-12
1.74718e-12
-6.76778e-12
3.14568e-12
2.03151e-12
-6.57959e-12
3.44436e-12
2.39276e-12
-5.93212e-12
3.58535e-12
2.78685e-12
-4.78632e-12
3.50383e-12
-2.95271e-12
3.39851e-12
4.12062e-13
-7.66889e-13
2.87027e-13
7.86837e-13
-2.23509e-12
8.45089e-13
1.13905e-12
-3.60089e-12
1.38952e-12
1.48148e-12
-4.91467e-12
1.95436e-12
1.82546e-12
-6.21233e-12
2.56899e-12
2.18118e-12
-7.51452e-12
3.25887e-12
2.55803e-12
-8.82474e-12
4.0451e-12
2.96457e-12
-1.0126e-11
4.94241e-12
3.40837e-12
-1.13764e-11
5.95465e-12
3.89592e-12
-1.2504e-11
7.06689e-12
4.43337e-12
-1.34058e-11
8.23252e-12
5.02794e-12
-1.39585e-11
9.35528e-12
5.68597e-12
-1.40595e-11
1.02712e-11
6.38965e-12
-1.37203e-11
1.07569e-11
7.00518e-12
-1.31952e-11
1.06526e-11
-1.30915e-11
9.99874e-12
6.75035e-13
-1.12159e-12
4.70214e-13
1.28862e-12
-3.26991e-12
1.38424e-12
1.86449e-12
-5.27152e-12
2.27534e-12
2.42318e-12
-7.20224e-12
3.19891e-12
2.98283e-12
-9.11757e-12
4.20272e-12
3.55967e-12
-1.10522e-11
5.32828e-12
4.16811e-12
-1.30183e-11
6.61023e-12
4.8201e-12
-1.50014e-11
8.07326e-12
5.52326e-12
-1.69561e-11
9.72537e-12
6.27715e-12
-1.88012e-11
1.15458e-11
7.06705e-12
-2.04207e-11
1.34663e-11
7.85274e-12
-2.16844e-11
1.53461e-11
8.55009e-12
-2.25105e-11
1.69508e-11
9.01238e-12
-2.29904e-11
1.79768e-11
9.08599e-12
-2.34612e-11
1.82285e-11
-2.44238e-11
1.79588e-11
9.21148e-13
-1.44186e-12
6.41676e-13
1.75768e-12
-4.20533e-12
1.88858e-12
2.54121e-12
-6.78523e-12
3.10294e-12
3.29907e-12
-9.28264e-12
4.35959e-12
4.05536e-12
-1.17737e-11
5.72304e-12
4.83148e-12
-1.43103e-11
7.24945e-12
5.64596e-12
-1.69185e-11
8.98615e-12
6.51296e-12
-1.95959e-11
1.09679e-11
7.43817e-12
-2.23071e-11
1.32087e-11
8.41037e-12
-2.4979e-11
1.56872e-11
9.38602e-12
-2.74995e-11
1.83246e-11
1.02628e-11
-2.97283e-11
2.09569e-11
1.08454e-11
-3.15371e-11
2.33156e-11
1.08499e-11
-3.28915e-11
2.5063e-11
1.0153e-11
-3.39154e-11
2.59727e-11
-3.4968e-11
2.62865e-11
1.14489e-12
-1.71638e-12
7.97548e-13
2.18328e-12
-5.00832e-12
2.34659e-12
3.1533e-12
-8.08867e-12
3.85303e-12
4.08782e-12
-1.10826e-11
5.4085e-12
5.01587e-12
-1.40873e-11
7.09194e-12
5.9632e-12
-1.71735e-11
8.97219e-12
6.95203e-12
-2.03856e-11
1.11077e-11
7.99907e-12
-2.37407e-11
1.35427e-11
9.11016e-12
-2.72248e-11
1.6298e-11
1.02691e-11
-3.07884e-11
1.93556e-11
1.14167e-11
-3.43403e-11
2.26343e-11
1.2414e-11
-3.7739e-11
2.59601e-11
1.29948e-11
-4.078e-11
2.9046e-11
1.27697e-11
-4.31811e-11
3.15258e-11
1.15749e-11
-4.46258e-11
3.31151e-11
-4.50488e-11
3.39986e-11
1.34189e-12
-1.93437e-12
9.34726e-13
2.55697e-12
-5.64732e-12
2.74907e-12
3.68823e-12
-9.13028e-12
4.51014e-12
4.77271e-12
-1.25302e-11
6.32325e-12
5.84314e-12
-1.59637e-11
8.27889e-12
6.9287e-12
-1.95206e-11
1.04559e-11
8.055e-12
-2.32655e-11
1.29215e-11
9.24247e-12
-2.72381e-11
1.57275e-11
1.05015e-11
-3.14528e-11
1.89007e-11
1.18227e-11
-3.58952e-11
2.24275e-11
1.31574e-11
-4.05161e-11
2.62271e-11
1.43849e-11
-4.52148e-11
3.01198e-11
1.52661e-11
-4.97949e-11
3.37997e-11
1.54308e-11
-5.38658e-11
3.68587e-11
1.46424e-11
-5.67401e-11
3.89369e-11
-5.71843e-11
4.01945e-11
1.50908e-12
-2.08613e-12
1.051e-12
2.87291e-12
-6.09373e-12
3.08947e-12
4.13754e-12
-9.86302e-12
5.06342e-12
5.34254e-12
-1.35586e-11
7.08827e-12
6.5229e-12
-1.73136e-11
9.26274e-12
7.71e-12
-2.12343e-11
1.16724e-11
8.9321e-12
-2.54036e-11
1.43901e-11
1.02135e-11
-2.98829e-11
1.74719e-11
1.1572e-11
-3.47131e-11
2.09485e-11
1.30126e-11
-3.99152e-11
2.48079e-11
1.4517e-11
-4.54885e-11
2.89691e-11
1.60251e-11
-5.14037e-11
3.32446e-11
1.74127e-11
-5.75782e-11
3.7302e-11
1.84803e-11
-6.37991e-11
4.06655e-11
1.9014e-11
-6.94801e-11
4.28644e-11
-7.36782e-11
4.40307e-11
1.64486e-12
1.14517e-12
-2.16354e-12
3.12821e-12
3.36436e-12
-6.32381e-12
4.49724e-12
5.50738e-12
-1.02477e-11
5.79231e-12
7.69598e-12
-1.41118e-11
7.04899e-12
1.00335e-11
-1.80609e-11
8.29922e-12
1.26088e-11
-2.22134e-11
9.57214e-12
1.54963e-11
-2.66655e-11
1.08942e-11
1.8753e-11
-3.1494e-11
1.22884e-11
2.24088e-11
-3.67572e-11
1.37716e-11
2.64503e-11
-4.2496e-11
1.53508e-11
3.07937e-11
-4.87326e-11
1.70159e-11
3.52438e-11
-5.54661e-11
1.87329e-11
3.94475e-11
-6.26575e-11
2.04278e-11
4.28736e-11
-7.01801e-11
2.18672e-11
4.49493e-11
-7.74598e-11
4.54461e-11
-8.51555e-11
1.39058e-13
-3.94409e-13
7.52185e-14
2.65351e-13
-1.14937e-12
2.21414e-13
3.83659e-13
-1.85132e-12
3.63878e-13
4.98012e-13
-2.52595e-12
5.11392e-13
6.11765e-13
-3.19142e-12
6.71403e-13
7.27649e-13
-3.85798e-12
8.50166e-13
8.47758e-13
-4.52711e-12
1.05254e-12
9.73417e-13
-5.19005e-12
1.28136e-12
1.10498e-12
-5.82568e-12
1.53611e-12
1.24187e-12
-6.39831e-12
1.81091e-12
1.38347e-12
-6.85606e-12
2.09163e-12
1.53175e-12
-7.13038e-12
2.35284e-12
1.69616e-12
-7.13518e-12
2.55729e-12
1.89593e-12
-6.76177e-12
2.66443e-12
2.12398e-12
-5.92076e-12
2.6576e-12
-4.25897e-12
2.73704e-12
4.13624e-13
-7.77011e-13
2.23704e-13
7.89187e-13
-2.26476e-12
6.58448e-13
1.14079e-12
-3.64927e-12
1.08196e-12
1.48029e-12
-4.98197e-12
1.52025e-12
1.8176e-12
-6.29979e-12
1.99538e-12
2.16074e-12
-7.62467e-12
2.52593e-12
2.51573e-12
-8.96214e-12
3.12637e-12
2.88591e-12
-1.02988e-11
3.80524e-12
3.27087e-12
-1.15988e-11
4.56147e-12
3.66533e-12
-1.28013e-11
5.37846e-12
4.05897e-12
-1.38203e-11
6.21598e-12
4.43891e-12
-1.45553e-11
7.00185e-12
4.79652e-12
-1.49195e-11
7.63078e-12
5.13453e-12
-1.48959e-11
7.98843e-12
5.43747e-12
-1.46109e-11
8.02946e-12
-1.44445e-11
7.78763e-12
6.77817e-13
-1.13631e-12
3.66503e-13
1.29295e-12
-3.31301e-12
1.07861e-12
1.86815e-12
-5.34165e-12
1.77187e-12
2.42256e-12
-7.29942e-12
2.48859e-12
2.97218e-12
-9.24308e-12
3.2647e-12
3.52999e-12
-1.12088e-11
4.13049e-12
4.10539e-12
-1.32106e-11
5.10983e-12
4.70274e-12
-1.52375e-11
6.21728e-12
5.31848e-12
-1.72496e-11
7.45253e-12
5.93657e-12
-1.91753e-11
8.79155e-12
6.52272e-12
-2.09128e-11
1.01749e-11
7.01839e-12
-2.23476e-11
1.14964e-11
7.34117e-12
-2.34e-11
1.26052e-11
7.41123e-12
-2.41133e-11
1.33436e-11
7.24932e-12
-2.46998e-11
1.36543e-11
-2.55172e-11
1.37093e-11
9.25359e-13
-1.46063e-12
5.00199e-13
1.76446e-12
-4.26024e-12
1.47176e-12
2.54772e-12
-6.87434e-12
2.41664e-12
3.30073e-12
-9.40557e-12
3.392e-12
4.04503e-12
-1.19314e-11
4.44637e-12
4.7981e-12
-1.45047e-11
5.62085e-12
5.57253e-12
-1.71527e-11
6.94816e-12
6.37368e-12
-1.98748e-11
8.44918e-12
7.19481e-12
-2.26381e-11
1.0126e-11
8.00852e-12
-2.53736e-11
1.19515e-11
8.75344e-12
-2.79746e-11
1.38553e-11
9.31673e-12
-3.03044e-11
1.57124e-11
9.52431e-12
-3.22242e-11
1.73489e-11
9.19079e-12
-3.36552e-11
1.85911e-11
8.37675e-12
-3.46419e-11
1.93678e-11
-3.54786e-11
1.98309e-11
1.15074e-12
-1.73851e-12
6.21784e-13
2.19302e-12
-5.073e-12
1.82894e-12
3.16365e-12
-8.19337e-12
3.00126e-12
4.09366e-12
-1.12265e-11
4.20878e-12
5.00933e-12
-1.42704e-11
5.51096e-12
5.93226e-12
-1.73964e-11
6.95822e-12
6.87846e-12
-2.06488e-11
8.59116e-12
7.85569e-12
-2.40435e-11
1.04366e-11
8.85766e-12
-2.75645e-11
1.25002e-11
9.85338e-12
-3.11586e-11
1.47543e-11
1.07695e-11
-3.4728e-11
1.71231e-11
1.14643e-11
-3.81186e-11
1.94703e-11
1.17059e-11
-4.11022e-11
2.16064e-11
1.12172e-11
-4.33601e-11
2.33401e-11
1.00083e-11
-4.4555e-11
2.45688e-11
-4.46432e-11
2.54104e-11
1.34954e-12
-1.95908e-12
7.28835e-13
2.57008e-12
-5.71944e-12
2.14295e-12
3.70332e-12
-9.24679e-12
3.51367e-12
4.78449e-12
-1.26896e-11
4.92153e-12
5.84362e-12
-1.61653e-11
6.43474e-12
6.90587e-12
-1.97632e-11
8.11118e-12
7.99093e-12
-2.35462e-11
9.9976e-12
9.11086e-12
-2.75502e-11
1.21257e-11
1.02652e-11
-3.17824e-11
1.4504e-11
1.14317e-11
-3.62164e-11
1.71054e-11
1.25515e-11
-4.07839e-11
1.98496e-11
1.35056e-11
-4.53538e-11
2.25891e-11
1.40935e-11
-4.96886e-11
2.51124e-11
1.40553e-11
-5.33598e-11
2.71941e-11
1.33117e-11
-5.57101e-11
2.86921e-11
-5.56568e-11
2.97337e-11
1.51862e-12
-2.11253e-12
8.19625e-13
2.88967e-12
-6.17075e-12
2.40868e-12
4.15801e-12
-9.98725e-12
3.9454e-12
5.36158e-12
-1.37281e-11
5.5181e-12
6.5329e-12
-1.75267e-11
7.20128e-12
7.69973e-12
-2.14884e-11
9.05787e-12
8.88499e-12
-2.56928e-11
1.11386e-11
1.01057e-11
-3.01951e-11
1.34779e-11
1.13703e-11
-3.5025e-11
1.60858e-11
1.26735e-11
-4.01852e-11
1.89341e-11
1.39889e-11
-4.56458e-11
2.19374e-11
1.52594e-11
-5.13339e-11
2.49336e-11
1.63957e-11
-5.711e-11
2.7678e-11
1.72945e-11
-6.27135e-11
2.98842e-11
1.78797e-11
-6.76133e-11
3.13447e-11
-7.10743e-11
3.22266e-11
1.65629e-12
8.93197e-13
-2.19071e-12
3.14869e-12
2.62341e-12
-6.40305e-12
4.52339e-12
4.29211e-12
-1.03754e-11
5.81934e-12
5.99252e-12
-1.42857e-11
7.07002e-12
7.80276e-12
-1.82788e-11
8.30424e-12
9.78822e-12
-2.24715e-11
9.54666e-12
1.2001e-11
-2.69561e-11
1.08176e-11
1.44757e-11
-3.18014e-11
1.21324e-11
1.72217e-11
-3.70526e-11
1.34998e-11
2.02083e-11
-4.27292e-11
1.49199e-11
2.33446e-11
-4.88208e-11
1.63848e-11
2.64556e-11
-5.52802e-11
1.7886e-11
2.92671e-11
-6.20118e-11
1.94231e-11
3.14328e-11
-6.8848e-11
2.08755e-11
3.26707e-11
-7.52938e-11
3.29648e-11
-8.21709e-11
1.39264e-13
-3.98268e-13
5.14853e-14
2.65552e-13
-1.16069e-12
1.51517e-13
3.83452e-13
-1.86981e-12
2.48892e-13
4.96705e-13
-2.55174e-12
3.49527e-13
6.08236e-13
-3.22503e-12
4.58373e-13
7.20152e-13
-3.90042e-12
5.79483e-13
8.33642e-13
-4.58021e-12
7.15849e-13
9.48734e-13
-5.25698e-12
8.68935e-13
1.06401e-12
-5.91188e-12
1.03782e-12
1.17669e-12
-6.51263e-12
1.21795e-12
1.28393e-12
-7.0119e-12
1.39972e-12
1.38649e-12
-7.34528e-12
1.56758e-12
1.49638e-12
-7.42561e-12
1.70153e-12
1.64406e-12
-7.12871e-12
1.78386e-12
1.84465e-12
-6.32964e-12
1.81058e-12
-4.63895e-12
1.92408e-12
4.14314e-13
-7.84605e-13
1.53126e-13
7.89949e-13
-2.28702e-12
4.50611e-13
1.14043e-12
-3.68556e-12
7.40102e-13
1.47679e-12
-5.03237e-12
1.03913e-12
1.80773e-12
-6.36507e-12
1.36236e-12
2.1395e-12
-7.70643e-12
1.72182e-12
2.47556e-12
-9.06322e-12
2.12646e-12
2.81565e-12
-1.0424e-11
2.58075e-12
3.15459e-12
-1.17563e-11
3.08222e-12
3.48152e-12
-1.30036e-11
3.61795e-12
3.7813e-12
-1.40853e-11
4.16049e-12
4.04114e-12
-1.49025e-11
4.66537e-12
4.2667e-12
-1.53562e-11
5.07494e-12
4.50291e-12
-1.53861e-11
5.3356e-12
4.79628e-12
-1.50507e-11
5.43121e-12
-1.46831e-11
5.35444e-12
6.79169e-13
-1.14736e-12
2.50891e-13
1.29466e-12
-3.34536e-12
7.38213e-13
1.86831e-12
-5.3942e-12
1.21214e-12
2.418e-12
-7.37203e-12
1.70118e-12
2.95793e-12
-9.33639e-12
2.22921e-12
3.49841e-12
-1.13243e-11
2.81592e-12
4.04508e-12
-1.33508e-11
3.47606e-12
4.59711e-12
-1.54066e-11
4.21738e-12
5.14439e-12
-1.7454e-11
5.03686e-12
5.66411e-12
-1.94244e-11
5.91542e-12
6.1181e-12
-2.12178e-11
6.8121e-12
6.45493e-12
-2.27156e-11
7.66099e-12
6.62541e-12
-2.38163e-11
8.37785e-12
6.62536e-12
-2.45102e-11
8.88578e-12
6.55529e-12
-2.49502e-11
9.1595e-12
-2.54919e-11
9.27064e-12
9.27596e-13
-1.47472e-12
3.42445e-13
1.76761e-12
-4.3014e-12
1.00739e-12
2.54929e-12
-6.94099e-12
1.65341e-12
3.29672e-12
-9.49711e-12
2.319e-12
4.0292e-12
-1.20479e-11
3.03648e-12
4.76105e-12
-1.46469e-11
3.83254e-12
5.5004e-12
-1.73215e-11
4.72751e-12
6.24668e-12
-2.00712e-11
5.73266e-12
6.98616e-12
-2.28629e-11
6.84563e-12
7.68524e-12
-2.56264e-11
8.04398e-12
8.28205e-12
-2.82512e-11
9.27846e-12
8.67955e-12
-3.05896e-11
1.04703e-11
8.75369e-12
-3.24776e-11
1.15213e-11
8.41541e-12
-3.3792e-11
1.23454e-11
7.79941e-12
-3.45485e-11
1.29072e-11
-3.50756e-11
1.32597e-11
1.15408e-12
-1.7551e-12
4.25733e-13
2.1981e-12
-5.1214e-12
1.25202e-12
3.16759e-12
-8.27146e-12
2.05365e-12
4.09195e-12
-1.13331e-11
2.8778e-12
4.99507e-12
-1.44049e-11
3.76407e-12
5.89518e-12
-1.7558e-11
4.7453e-12
6.80364e-12
-2.08358e-11
5.84672e-12
7.72226e-12
-2.42521e-11
7.08305e-12
8.63826e-12
-2.77872e-11
8.45326e-12
9.51599e-12
-3.13813e-11
9.93334e-12
1.02852e-11
-3.49256e-11
1.14687e-11
1.08267e-11
-3.82482e-11
1.29714e-11
1.09688e-11
-4.1095e-11
1.43319e-11
1.0539e-11
-4.31208e-11
1.54528e-11
9.60991e-12
-4.39992e-11
1.628e-11
-4.37601e-11
1.68477e-11
1.35415e-12
-1.97755e-12
4.99094e-13
2.57753e-12
-5.77327e-12
1.46717e-12
3.71054e-12
-9.3334e-12
2.40459e-12
4.78676e-12
-1.28073e-11
3.36564e-12
5.83391e-12
-1.63124e-11
4.3958e-12
6.87385e-12
-1.99374e-11
5.53278e-12
7.92183e-12
-2.37428e-11
6.80572e-12
8.98441e-12
-2.77602e-11
8.23205e-12
1.00555e-11
-3.19891e-11
9.81191e-12
1.111e-11
-3.63914e-11
1.152e-11
1.20943e-11
-4.08803e-11
1.32968e-11
1.2915e-11
-4.53003e-11
1.50437e-11
1.34335e-11
-4.93868e-11
1.66337e-11
1.34928e-11
-5.27007e-11
1.79463e-11
1.30664e-11
-5.46369e-11
1.89083e-11
-5.42555e-11
1.95711e-11
1.52464e-12
-2.13223e-12
5.61334e-13
2.89981e-12
-6.22811e-12
1.64931e-12
4.16919e-12
-1.00793e-11
2.70041e-12
5.36917e-12
-1.38526e-11
3.77421e-12
6.53015e-12
-1.76814e-11
4.92042e-12
7.67687e-12
-2.16693e-11
6.18012e-12
8.82826e-12
-2.58926e-11
7.58491e-12
9.9966e-12
-3.04002e-11
9.15376e-12
1.11856e-11
-3.52114e-11
1.0887e-11
1.23882e-11
-4.03126e-11
1.27576e-11
1.35839e-11
-4.56507e-11
1.47001e-11
1.47405e-11
-5.11228e-11
1.66023e-11
1.58249e-11
-5.65607e-11
1.83112e-11
1.6827e-11
-6.17016e-11
1.96648e-11
1.77179e-11
-6.60947e-11
2.05564e-11
-6.91766e-11
2.10869e-11
1.66376e-12
6.11791e-13
-2.21095e-12
3.16168e-12
1.79656e-12
-6.46194e-12
4.53892e-12
2.93812e-12
-1.04698e-11
5.8331e-12
4.0994e-12
-1.44131e-11
7.07581e-12
5.33259e-12
-1.84361e-11
8.29329e-12
6.68042e-12
-2.2654e-11
9.50674e-12
8.17538e-12
-2.71546e-11
1.07325e-11
9.83652e-12
-3.19996e-11
1.19822e-11
1.16633e-11
-3.7222e-11
1.3263e-11
1.36263e-11
-4.28235e-11
1.45807e-11
1.56547e-11
-4.87689e-11
1.59475e-11
1.76247e-11