/*--------------------------------*- C++ -*----------------------------------*\
| =========                 |                                                 |
| \\      /  F ield         | OpenFOAM: The Open Source CFD Toolbox           |
|  \\    /   O peration     | Version:  v1912                                 |
|   \\  /    A nd           | Website:  www.openfoam.com                      |
|    \\/     M anipulation  |                                                 |
\*---------------------------------------------------------------------------*/
FoamFile
{
    version     2.0;
    format      ascii;
    class       pointVectorField;
    location    "0.88/fluid";
    object      pointMotionU;
}
// * * * * * * * * * * * * * * * * * * * * * * * * * * * * * * * * * * * * * //

dimensions      [0 1 -1 0 0 0 0];


internalField   nonuniform List<vector> 
16859
(
(0 0 0)
(0 0 0)
(0 0 0)
(0 0 0)
(0 0 0)
(0 0 0)
(0 0 0)
(0 0 0)
(0 0 0)
(0 0 0)
(0 0 0)
(0 0 0)
(0 0 0)
(0 0 0)
(0 0 0)
(0 0 0)
(1.44365e-08 2.50974e-08 1.6339e-08)
(0 0 0)
(4.25067e-10 -1.03013e-09 8.13101e-10)
(8.13467e-10 -1.97038e-09 1.58514e-09)
(1.18227e-09 -2.85727e-09 2.37205e-09)
(1.54735e-09 -3.71714e-09 3.22345e-09)
(1.92452e-09 -4.56517e-09 4.18575e-09)
(2.33122e-09 -5.40327e-09 5.30433e-09)
(2.78885e-09 -6.21591e-09 6.62486e-09)
(3.32643e-09 -6.96247e-09 8.19414e-09)
(3.98713e-09 -7.56355e-09 1.00606e-08)
(4.84111e-09 -7.87657e-09 1.22762e-08)
(6.01244e-09 -7.65114e-09 1.49051e-08)
(7.73438e-09 -6.44156e-09 1.80542e-08)
(1.04523e-08 -3.43608e-09 2.19561e-08)
(1.49306e-08 2.79341e-09 2.71305e-08)
(2.13763e-08 1.31068e-08 3.37951e-08)
(3.04306e-08 3.31863e-08 4.11293e-08)
(0 0 0)
(8.3861e-10 -2.02993e-09 1.6048e-09)
(1.60437e-09 -3.88404e-09 3.12793e-09)
(2.33028e-09 -5.63544e-09 4.67914e-09)
(3.04686e-09 -7.33758e-09 6.35562e-09)
(3.78447e-09 -9.0231e-09 8.24829e-09)
(4.57611e-09 -1.07004e-08 1.04459e-08)
(5.46123e-09 -1.23465e-08 1.30373e-08)
(6.49127e-09 -1.38949e-08 1.6113e-08)
(7.73847e-09 -1.52141e-08 1.97635e-08)
(9.31157e-09 -1.60735e-08 2.40782e-08)
(1.13829e-08 -1.60917e-08 2.91449e-08)
(1.42331e-08 -1.46677e-08 3.50574e-08)
(1.82898e-08 -1.09398e-08 4.19305e-08)
(2.40113e-08 -3.98691e-09 4.98604e-08)
(3.06572e-08 5.34458e-09 5.79653e-08)
(4.1336e-08 1.89701e-08 7.01287e-08)
(0 0 0)
(1.22993e-09 -2.96955e-09 2.35545e-09)
(2.35175e-09 -5.68492e-09 4.58955e-09)
(3.41251e-09 -8.25591e-09 6.86199e-09)
(4.45538e-09 -1.07646e-08 9.31389e-09)
(5.52304e-09 -1.32648e-08 1.20772e-08)
(6.66103e-09 -1.57789e-08 1.52805e-08)
(7.92198e-09 -1.82901e-08 1.90527e-08)
(9.37113e-09 -2.07292e-08 2.35238e-08)
(1.10935e-08 -2.29529e-08 2.88227e-08)
(1.32037e-08 -2.47111e-08 3.50688e-08)
(1.58579e-08 -2.5606e-08 4.2358e-08)
(1.92651e-08 -2.50601e-08 5.07395e-08)
(2.36646e-08 -2.23678e-08 6.01738e-08)
(2.91623e-08 -1.70265e-08 7.04304e-08)
(3.48277e-08 -1.01609e-08 8.01595e-08)
(4.30929e-08 -7.09206e-10 9.2946e-08)
(0 0 0)
(1.58943e-09 -3.81846e-09 3.04706e-09)
(3.03691e-09 -7.31504e-09 5.93443e-09)
(4.40093e-09 -1.06357e-08 8.86608e-09)
(5.73485e-09 -1.38923e-08 1.20219e-08)
(7.09086e-09 -1.71639e-08 1.55698e-08)
(8.52358e-09 -2.04944e-08 1.96732e-08)
(1.00941e-08 -2.38874e-08 2.44959e-08)
(1.18746e-08 -2.72949e-08 3.02037e-08)
(1.39522e-08 -3.06003e-08 3.69607e-08)
(1.6431e-08 -3.35918e-08 4.49178e-08)
(1.94285e-08 -3.59302e-08 5.41879e-08)
(2.30569e-08 -3.71211e-08 6.47989e-08)
(2.73609e-08 -3.65397e-08 7.66008e-08)
(3.21584e-08 -3.36296e-08 8.90822e-08)
(3.64733e-08 -2.89067e-08 1.00333e-07)
(4.23651e-08 -2.06444e-08 1.13397e-07)
(0 0 0)
(1.90943e-09 -4.54659e-09 3.66467e-09)
(3.64485e-09 -8.71666e-09 7.13294e-09)
(5.27333e-09 -1.26907e-08 1.0646e-08)
(6.85553e-09 -1.66101e-08 1.4416e-08)
(8.45019e-09 -2.05814e-08 1.86402e-08)
(1.01176e-08 -2.46761e-08 2.35101e-08)
(1.19237e-08 -2.89287e-08 2.9218e-08)
(1.39433e-08 -3.33309e-08 3.59592e-08)
(1.6263e-08 -3.78216e-08 4.39305e-08)
(1.89784e-08 -4.22699e-08 5.33187e-08)
(2.21848e-08 -4.64506e-08 6.42764e-08)
(2.59495e-08 -5.00054e-08 7.68699e-08)
(3.02382e-08 -5.23839e-08 9.096e-08)
(3.47573e-08 -5.27922e-08 1.05931e-07)
(3.85035e-08 -5.06836e-08 1.19355e-07)
(4.32708e-08 -4.26016e-08 1.33894e-07)
(0 0 0)
(2.18437e-09 -5.12518e-09 4.19701e-09)
(4.165e-09 -9.83417e-09 8.16286e-09)
(6.01431e-09 -1.43384e-08 1.21679e-08)
(7.79734e-09 -1.88068e-08 1.64487e-08)
(9.57622e-09 -2.33727e-08 2.1224e-08)
(1.14138e-08 -2.81372e-08 2.67054e-08)
(1.33775e-08 -3.31703e-08 3.31043e-08)
(1.55427e-08 -3.85117e-08 4.06369e-08)
(1.79954e-08 -4.41696e-08 4.95246e-08)
(2.08319e-08 -5.01169e-08 5.99881e-08)
(2.4155e-08 -5.62845e-08 7.22349e-08)
(2.80615e-08 -6.25372e-08 8.64262e-08)
(3.25947e-08 -6.85945e-08 1.02577e-07)
(3.7606e-08 -7.38189e-08 1.20256e-07)
(4.21127e-08 -7.68218e-08 1.36743e-07)
(4.82184e-08 -7.25703e-08 1.55243e-07)
(0 0 0)
(2.41106e-09 -5.52822e-09 4.63696e-09)
(4.59143e-09 -1.0617e-08 9.0104e-09)
(6.61575e-09 -1.55029e-08 1.34109e-08)
(8.55031e-09 -2.03778e-08 1.80913e-08)
(1.04576e-08 -2.53986e-08 2.32829e-08)
(1.23999e-08 -3.06925e-08 2.92074e-08)
(1.44426e-08 -3.63626e-08 3.60848e-08)
(1.66585e-08 -4.24927e-08 4.41385e-08)
(1.9131e-08 -4.91537e-08 5.35986e-08)
(2.19579e-08 -5.64127e-08 6.4702e-08)
(2.52579e-08 -6.43485e-08 7.7693e-08)
(2.91814e-08 -7.30699e-08 9.28213e-08)
(3.39174e-08 -8.27173e-08 1.10307e-07)
(3.96252e-08 -9.3334e-08 1.30123e-07)
(4.55705e-08 -1.03587e-07 1.49736e-07)
(5.5328e-08 -1.1487e-07 1.73951e-07)
(0 0 0)
(2.58864e-09 -5.73403e-09 4.98191e-09)
(4.92317e-09 -1.10231e-08 9.67119e-09)
(7.07722e-09 -1.61208e-08 1.43696e-08)
(9.11538e-09 -2.12351e-08 1.9337e-08)
(1.10976e-08 -2.65398e-08 2.48088e-08)
(1.30821e-08 -3.21818e-08 3.10068e-08)
(1.5129e-08 -3.82879e-08 3.81466e-08)
(1.73034e-08 -4.49717e-08 4.6443e-08)
(1.96792e-08 -5.23426e-08 5.61122e-08)
(2.23436e-08 -6.05171e-08 6.73726e-08)
(2.54039e-08 -6.9639e-08 8.04465e-08)
(2.90009e-08 -7.9907e-08 9.55647e-08)
(3.3314e-08 -9.15974e-08 1.12952e-07)
(3.84754e-08 -1.04993e-07 1.32694e-07)
(4.36335e-08 -1.18532e-07 1.52188e-07)
(5.77234e-08 -1.41053e-07 1.8243e-07)
(0 0 0)
(0 0 0)
(0 0 0)
(0 0 0)
(0 0 0)
(0 0 0)
(0 0 0)
(0 0 0)
(0 0 0)
(0 0 0)
(0 0 0)
(0 0 0)
(0 0 0)
(0 0 0)
(0 0 0)
(0 0 0)
(9.86119e-09 1.28788e-08 7.64658e-09)
(0 0 0)
(4.32824e-10 -1.05593e-09 7.87036e-10)
(8.28026e-10 -2.02003e-09 1.53315e-09)
(1.20281e-09 -2.93032e-09 2.29163e-09)
(1.57307e-09 -3.81456e-09 3.10948e-09)
(1.95442e-09 -4.68918e-09 4.03022e-09)
(2.36361e-09 -5.5573e-09 5.09559e-09)
(2.82071e-09 -6.40485e-09 6.34631e-09)
(3.35248e-09 -7.19346e-09 7.82209e-09)
(3.99837e-09 -7.84811e-09 9.56033e-09)
(4.82307e-09 -8.23557e-09 1.15943e-08)
(5.94328e-09 -8.12589e-09 1.3953e-08)
(7.58483e-09 -7.11952e-09 1.66697e-08)
(1.01869e-08 -4.51292e-09 1.981e-08)
(1.44805e-08 8.36353e-10 2.34853e-08)
(2.06746e-08 9.49831e-09 2.74192e-08)
(2.74308e-08 1.99908e-08 2.86359e-08)
(0 0 0)
(8.53974e-10 -2.08069e-09 1.55336e-09)
(1.63324e-09 -3.98173e-09 3.02539e-09)
(2.37117e-09 -5.77931e-09 4.52066e-09)
(3.09835e-09 -7.52961e-09 6.13131e-09)
(3.84474e-09 -9.26769e-09 7.94258e-09)
(4.6421e-09 -1.10042e-08 1.00361e-08)
(5.52742e-09 -1.27189e-08 1.24916e-08)
(6.54779e-09 -1.43492e-08 1.53859e-08)
(7.76827e-09 -1.57713e-08 1.87899e-08)
(9.28627e-09 -1.67703e-08 2.27605e-08)
(1.12585e-08 -1.69989e-08 2.73287e-08)
(1.39476e-08 -1.59315e-08 3.2483e-08)
(1.77694e-08 -1.28695e-08 3.81378e-08)
(2.31895e-08 -7.23746e-09 4.40302e-08)
(2.97211e-08 -3.91318e-12 4.92779e-08)
(3.70254e-08 4.70434e-09 5.32906e-08)
(0 0 0)
(1.25269e-09 -3.0437e-09 2.28004e-09)
(2.39465e-09 -5.82772e-09 4.43935e-09)
(3.47354e-09 -8.46643e-09 6.63013e-09)
(4.53274e-09 -1.10458e-08 8.98621e-09)
(5.61446e-09 -1.36233e-08 1.16314e-08)
(6.76268e-09 -1.62243e-08 1.46842e-08)
(8.02686e-09 -1.88356e-08 1.82605e-08)
(9.4664e-09 -2.13929e-08 2.24723e-08)
(1.11564e-08 -2.37619e-08 2.74221e-08)
(1.31951e-08 -2.571e-08 3.31892e-08)
(1.57145e-08 -2.68771e-08 3.98039e-08)
(1.88913e-08 -2.67668e-08 4.72052e-08)
(2.29345e-08 -2.48441e-08 5.51673e-08)
(2.79561e-08 -2.09436e-08 6.31642e-08)
(3.33222e-08 -1.63076e-08 6.99946e-08)
(3.85729e-08 -1.42264e-08 7.45573e-08)
(0 0 0)
(1.61929e-09 -3.91375e-09 2.94974e-09)
(3.09336e-09 -7.49868e-09 5.74075e-09)
(4.48163e-09 -1.09067e-08 8.56754e-09)
(5.83789e-09 -1.42547e-08 1.16008e-08)
(7.21398e-09 -1.76261e-08 1.4998e-08)
(8.663e-09 -2.10689e-08 1.89103e-08)
(1.02427e-08 -2.45905e-08 2.34857e-08)
(1.2019e-08 -2.81483e-08 2.88684e-08)
(1.40679e-08 -3.16336e-08 3.51925e-08)
(1.64748e-08 -3.48497e-08 4.25646e-08)
(1.93273e-08 -3.74877e-08 5.10303e-08)
(2.26937e-08 -3.9115e-08 6.05113e-08)
(2.65671e-08 -3.92317e-08 7.06901e-08)
(3.07467e-08 -3.75234e-08 8.07933e-08)
(3.45446e-08 -3.46048e-08 8.91183e-08)
(3.79447e-08 -3.2965e-08 9.40729e-08)
(0 0 0)
(1.94599e-09 -4.66004e-09 3.548e-09)
(3.71415e-09 -8.93546e-09 6.901e-09)
(5.37284e-09 -1.30139e-08 1.02891e-08)
(6.98349e-09 -1.70428e-08 1.39135e-08)
(8.60479e-09 -2.11338e-08 1.79596e-08)
(1.0296e-08 -2.5363e-08 2.2605e-08)
(1.212e-08 -2.97693e-08 2.80238e-08)
(1.41464e-08 -3.43492e-08 3.4388e-08)
(1.64515e-08 -3.9048e-08 4.18618e-08)
(1.91139e-08 -4.37451e-08 5.0586e-08)
(2.2201e-08 -4.82333e-08 6.06455e-08)
(2.57368e-08 -5.21848e-08 7.20033e-08)
(2.96305e-08 -5.51007e-08 8.43597e-08)
(3.3554e-08 -5.62738e-08 9.68413e-08)
(3.67499e-08 -5.51934e-08 1.0727e-07)
(3.9033e-08 -5.29661e-08 1.13469e-07)
(0 0 0)
(2.22707e-09 -5.25314e-09 4.06394e-09)
(4.2461e-09 -1.00811e-08 7.8986e-09)
(6.13122e-09 -1.47035e-08 1.17619e-08)
(7.9486e-09 -1.92961e-08 1.58786e-08)
(9.76085e-09 -2.39982e-08 2.04542e-08)
(1.16304e-08 -2.89158e-08 2.56852e-08)
(1.36227e-08 -3.41234e-08 3.1764e-08)
(1.58096e-08 -3.96654e-08 3.88822e-08)
(1.82699e-08 -4.55546e-08 4.72275e-08)
(2.10885e-08 -5.17708e-08 5.6974e-08)
(2.43505e-08 -5.82537e-08 6.82606e-08)
(2.8127e-08 -6.48789e-08 8.11432e-08)
(3.24369e-08 -7.137e-08 9.54714e-08)
(3.71328e-08 -7.70526e-08 1.10526e-07)
(4.14773e-08 -8.05182e-08 1.23865e-07)
(4.46805e-08 -7.94606e-08 1.33002e-07)
(0 0 0)
(2.45915e-09 -5.6664e-09 4.49063e-09)
(4.68295e-09 -1.08839e-08 8.72018e-09)
(6.74806e-09 -1.58978e-08 1.2966e-08)
(8.72235e-09 -2.09078e-08 1.74681e-08)
(1.06693e-08 -2.6077e-08 2.24444e-08)
(1.26515e-08 -3.1538e-08 2.81009e-08)
(1.47338e-08 -3.73986e-08 3.46381e-08)
(1.69872e-08 -4.37465e-08 4.22549e-08)
(1.94922e-08 -5.06568e-08 5.11483e-08)
(2.23417e-08 -5.82014e-08 6.15089e-08)
(2.56497e-08 -6.64654e-08 7.35132e-08)
(2.95665e-08 -7.55678e-08 8.73048e-08)
(3.4304e-08 -8.56616e-08 1.02929e-07)
(4.01039e-08 -9.67719e-08 1.20032e-07)
(4.65567e-08 -1.07722e-07 1.36367e-07)
(5.33741e-08 -1.17439e-07 1.49329e-07)
(0 0 0)
(2.64124e-09 -5.87758e-09 4.8255e-09)
(5.02338e-09 -1.13006e-08 9.3614e-09)
(7.2224e-09 -1.65319e-08 1.38957e-08)
(9.30481e-09 -2.17877e-08 1.86755e-08)
(1.1332e-08 -2.72482e-08 2.39223e-08)
(1.33632e-08 -3.30661e-08 2.98425e-08)
(1.5459e-08 -3.93725e-08 3.66331e-08)
(1.76848e-08 -4.6285e-08 4.44853e-08)
(2.01142e-08 -5.39157e-08 5.35841e-08)
(2.28348e-08 -6.23843e-08 6.41054e-08)
(2.59572e-08 -7.18381e-08 7.62094e-08)
(2.96335e-08 -8.24819e-08 9.00302e-08)
(3.40747e-08 -9.45993e-08 1.05628e-07)
(3.94889e-08 -1.08446e-07 1.22776e-07)
(4.52222e-08 -1.22592e-07 1.3912e-07)
(5.48394e-08 -1.41933e-07 1.57373e-07)
(0 0 0)
(0 0 0)
(0 0 0)
(0 0 0)
(0 0 0)
(0 0 0)
(0 0 0)
(0 0 0)
(0 0 0)
(0 0 0)
(0 0 0)
(0 0 0)
(0 0 0)
(0 0 0)
(0 0 0)
(0 0 0)
(6.18963e-09 6.41442e-09 2.91617e-09)
(0 0 0)
(4.3852e-10 -1.07902e-09 7.32393e-10)
(8.38461e-10 -2.06463e-09 1.42577e-09)
(1.21673e-09 -2.99615e-09 2.12883e-09)
(1.58865e-09 -3.90255e-09 2.88418e-09)
(1.96886e-09 -4.80159e-09 3.73064e-09)
(2.37235e-09 -5.69813e-09 4.70434e-09)
(2.81597e-09 -6.58085e-09 5.83876e-09)
(3.32071e-09 -7.41662e-09 7.16325e-09)
(3.9156e-09 -8.14132e-09 8.69911e-09)
(4.64579e-09 -8.64568e-09 1.0452e-08)
(5.58952e-09 -8.75408e-09 1.23982e-08)
(6.89106e-09 -8.19442e-09 1.44604e-08)
(8.8075e-09 -6.56625e-09 1.64605e-08)
(1.16864e-08 -3.39665e-09 1.8016e-08)
(1.53622e-08 1.12794e-09 1.84291e-08)
(1.79517e-08 5.95244e-09 1.45341e-08)
(0 0 0)
(8.65327e-10 -2.12605e-09 1.44555e-09)
(1.65408e-09 -4.06931e-09 2.81357e-09)
(2.39913e-09 -5.90856e-09 4.19969e-09)
(3.13008e-09 -7.70235e-09 5.68746e-09)
(3.87508e-09 -9.48819e-09 7.35294e-09)
(4.66257e-09 -1.12798e-08 9.26694e-09)
(5.52363e-09 -1.30616e-08 1.14951e-08)
(6.49487e-09 -1.47797e-08 1.4095e-08)
(7.62261e-09 -1.63281e-08 1.71079e-08)
(8.9703e-09 -1.75295e-08 2.05424e-08)
(1.06314e-08 -1.81177e-08 2.43442e-08)
(1.27463e-08 -1.77409e-08 2.834e-08)
(1.54961e-08 -1.60522e-08 3.21356e-08)
(1.89526e-08 -1.30602e-08 3.4958e-08)
(2.24653e-08 -9.93755e-09 3.57438e-08)
(2.47941e-08 -9.86191e-09 3.2715e-08)
(0 0 0)
(1.26968e-09 -3.10982e-09 2.12191e-09)
(2.42596e-09 -5.95536e-09 4.12882e-09)
(3.51593e-09 -8.65477e-09 6.15994e-09)
(4.58177e-09 -1.12974e-08 8.33672e-09)
(5.66327e-09 -1.39439e-08 1.07697e-08)
(6.80008e-09 -1.66235e-08 1.35619e-08)
(8.03393e-09 -1.93285e-08 1.68094e-08)
(9.41066e-09 -2.2004e-08 2.05973e-08)
(1.09814e-08 -2.45346e-08 2.49883e-08)
(1.28023e-08 -2.67269e-08 2.99997e-08)
(1.49299e-08 -2.83017e-08 3.556e-08)
(1.74043e-08 -2.89277e-08 4.14316e-08)
(2.01947e-08 -2.83785e-08 4.70844e-08)
(2.30557e-08 -2.69395e-08 5.15423e-08)
(2.52875e-08 -2.58777e-08 5.35531e-08)
(2.55863e-08 -2.74148e-08 5.12609e-08)
(0 0 0)
(1.64189e-09 -3.99846e-09 2.74543e-09)
(3.13521e-09 -7.66219e-09 5.33977e-09)
(4.5389e-09 -1.11479e-08 7.96102e-09)
(5.9055e-09 -1.45767e-08 1.07641e-08)
(7.28425e-09 -1.80356e-08 1.38899e-08)
(8.72347e-09 -2.15767e-08 1.747e-08)
(1.02725e-08 -2.52122e-08 2.16281e-08)
(1.19824e-08 -2.89074e-08 2.64752e-08)
(1.39035e-08 -3.25688e-08 3.20981e-08)
(1.60764e-08 -3.60297e-08 3.85317e-08)
(1.85107e-08 -3.90429e-08 4.5709e-08)
(2.11366e-08 -4.13004e-08 5.33701e-08)
(2.37136e-08 -4.25372e-08 6.09084e-08)
(2.57116e-08 -4.28023e-08 6.71717e-08)
(2.64251e-08 -4.28038e-08 7.056e-08)
(2.48252e-08 -4.42925e-08 6.89164e-08)
(0 0 0)
(1.97406e-09 -4.76056e-09 3.30267e-09)
(3.76642e-09 -9.12948e-09 6.41989e-09)
(5.44515e-09 -1.33e-08 9.56228e-09)
(7.07062e-09 -1.74244e-08 1.29127e-08)
(8.69906e-09 -2.16183e-08 1.6637e-08)
(1.03851e-08 -2.59613e-08 2.08902e-08)
(1.21835e-08 -3.04958e-08 2.58188e-08)
(1.41498e-08 -3.52231e-08 3.15569e-08)
(1.63355e-08 -4.00965e-08 3.8215e-08)
(1.87773e-08 -4.50107e-08 4.58538e-08)
(2.14689e-08 -4.97893e-08 5.4433e-08)
(2.43031e-08 -5.41693e-08 6.37155e-08)
(2.69638e-08 -5.77842e-08 7.30904e-08)
(2.87944e-08 -6.01817e-08 8.12976e-08)
(2.89894e-08 -6.10714e-08 8.63494e-08)
(2.61708e-08 -6.13442e-08 8.56407e-08)
(0 0 0)
(2.26035e-09 -5.36611e-09 3.78351e-09)
(4.30839e-09 -1.02992e-08 7.34918e-09)
(6.21828e-09 -1.50251e-08 1.09332e-08)
(8.05546e-09 -1.97248e-08 1.47398e-08)
(9.88049e-09 -2.45416e-08 1.89533e-08)
(1.17518e-08 -2.95844e-08 2.37456e-08)
(1.3728e-08 -3.49298e-08 2.92789e-08)
(1.58684e-08 -4.0623e-08 3.57042e-08)
(1.82311e-08 -4.66772e-08 4.31511e-08)
(2.08651e-08 -5.30715e-08 5.17055e-08)
(2.37922e-08 -5.9744e-08 6.1365e-08)
(2.69686e-08 -6.65681e-08 7.19493e-08)
(3.02066e-08 -7.32704e-08 8.29162e-08)
(3.30343e-08 -7.922e-08 9.30119e-08)
(3.46152e-08 -8.31616e-08 9.9921e-08)
(3.29223e-08 -8.29068e-08 1.00699e-07)
(0 0 0)
(2.49722e-09 -5.78797e-09 4.18147e-09)
(4.75452e-09 -1.11186e-08 8.11513e-09)
(6.84898e-09 -1.62441e-08 1.20551e-08)
(8.84815e-09 -2.13693e-08 1.62196e-08)
(1.08141e-08 -2.66615e-08 2.08041e-08)
(1.28062e-08 -3.22555e-08 2.59895e-08)
(1.4884e-08 -3.82596e-08 3.19452e-08)
(1.71089e-08 -4.47595e-08 3.88286e-08)
(1.95449e-08 -5.18238e-08 4.67769e-08)
(2.22574e-08 -5.95116e-08 5.58891e-08)
(2.53109e-08 -6.78814e-08 6.61894e-08)
(2.87624e-08 -7.69982e-08 7.75518e-08)
(3.26454e-08 -8.69036e-08 8.95303e-08)
(3.68865e-08 -9.74214e-08 1.00974e-07)
(4.0892e-08 -1.07245e-07 1.09386e-07)
(4.39958e-08 -1.15019e-07 1.11217e-07)
(0 0 0)
(2.68351e-09 -6.00349e-09 4.49412e-09)
(5.10316e-09 -1.15438e-08 8.71362e-09)
(7.33569e-09 -1.68909e-08 1.29225e-08)
(9.44773e-09 -2.22664e-08 1.73455e-08)
(1.14998e-08 -2.78546e-08 2.21818e-08)
(1.35492e-08 -3.38096e-08 2.76128e-08)
(1.56525e-08 -4.02623e-08 3.38052e-08)
(1.78681e-08 -4.7326e-08 4.09105e-08)
(2.0258e-08 -5.51028e-08 4.90572e-08)
(2.28901e-08 -6.36926e-08 5.83344e-08)
(2.58393e-08 -7.32044e-08 6.87593e-08)
(2.9189e-08 -8.3769e-08 8.02121e-08)
(3.3015e-08 -9.55237e-08 9.22902e-08)
(3.7281e-08 -1.08463e-07 1.04e-07)
(4.12206e-08 -1.21022e-07 1.12879e-07)
(4.69852e-08 -1.37186e-07 1.15062e-07)
(0 0 0)
(0 0 0)
(0 0 0)
(0 0 0)
(0 0 0)
(0 0 0)
(0 0 0)
(0 0 0)
(0 0 0)
(0 0 0)
(0 0 0)
(0 0 0)
(0 0 0)
(0 0 0)
(0 0 0)
(0 0 0)
(3.58103e-09 3.13294e-09 1.65473e-09)
(0 0 0)
(4.42292e-10 -1.09897e-09 6.51908e-10)
(8.45036e-10 -2.10317e-09 1.26833e-09)
(1.22456e-09 -3.05311e-09 1.89181e-09)
(1.59531e-09 -3.97879e-09 2.55919e-09)
(1.97044e-09 -4.89927e-09 3.30334e-09)
(2.36245e-09 -5.82119e-09 4.15374e-09)
(2.78398e-09 -6.7364e-09 5.13574e-09)
(3.24867e-09 -7.61781e-09 6.26801e-09)
(3.77259e-09 -8.41354e-09 7.55686e-09)
(4.37742e-09 -9.03955e-09 8.98538e-09)
(5.09747e-09 -9.37229e-09 1.04943e-08)
(5.99233e-09 -9.24492e-09 1.19489e-08)
(7.15866e-09 -8.45525e-09 1.3087e-08)
(8.69202e-09 -6.8187e-09 1.34652e-08)
(1.03845e-08 -4.48488e-09 1.26359e-08)
(1.10378e-08 -1.12341e-09 9.54625e-09)
(0 0 0)
(8.7295e-10 -2.1652e-09 1.28675e-09)
(1.66746e-09 -4.14495e-09 2.50299e-09)
(2.41532e-09 -6.02022e-09 3.73232e-09)
(3.14452e-09 -7.85162e-09 5.047e-09)
(3.88046e-09 -9.67891e-09 6.51147e-09)
(4.647e-09 -1.15189e-08 8.18359e-09)
(5.46748e-09 -1.33613e-08 1.01133e-08)
(6.36525e-09 -1.51619e-08 1.23379e-08)
(7.3638e-09 -1.68342e-08 1.48706e-08)
(8.48674e-09 -1.82399e-08 1.76804e-08)
(9.75733e-09 -1.91887e-08 2.06549e-08)
(1.11937e-08 -1.94672e-08 2.35407e-08)
(1.2781e-08 -1.89415e-08 2.58579e-08)
(1.43749e-08 -1.77929e-08 2.68564e-08)
(1.55245e-08 -1.67895e-08 2.59608e-08)
(1.58093e-08 -1.73958e-08 2.34938e-08)
(0 0 0)
(1.28131e-09 -3.16679e-09 1.88896e-09)
(2.44656e-09 -6.06537e-09 3.67339e-09)
(3.54145e-09 -8.81697e-09 5.475e-09)
(4.60598e-09 -1.15137e-08 7.39891e-09)
(5.67637e-09 -1.42192e-08 9.53884e-09)
(6.78621e-09 -1.69662e-08 1.19792e-08)
(7.96713e-09 -1.97525e-08 1.47938e-08)
(9.24801e-09 -2.25336e-08 1.80387e-08)
(1.06515e-08 -2.52139e-08 2.17383e-08)
(1.21856e-08 -2.76386e-08 2.58572e-08)
(1.38273e-08 -2.96013e-08 3.02532e-08)
(1.54882e-08 -3.08951e-08 3.46038e-08)
(1.69551e-08 -3.14625e-08 3.83176e-08)
(1.78308e-08 -3.16705e-08 4.05278e-08)
(1.77149e-08 -3.23422e-08 4.0609e-08)
(1.63057e-08 -3.44296e-08 3.90482e-08)
(0 0 0)
(1.65772e-09 -4.07128e-09 2.4443e-09)
(3.16352e-09 -7.8027e-09 4.75136e-09)
(4.57487e-09 -1.13548e-08 7.07684e-09)
(5.94189e-09 -1.48519e-08 9.55491e-09)
(7.30981e-09 -1.83841e-08 1.23052e-08)
(8.72022e-09 -2.20066e-08 1.54359e-08)
(1.02113e-08 -2.57361e-08 1.90424e-08)
(1.18157e-08 -2.95454e-08 2.32001e-08)
(1.35536e-08 -3.33548e-08 2.79479e-08)
(1.54161e-08 -3.70253e-08 3.32573e-08)
(1.73337e-08 -4.03598e-08 3.89792e-08)
(1.91155e-08 -4.31363e-08 4.47639e-08)
(2.03601e-08 -4.52049e-08 4.99644e-08)
(2.04256e-08 -4.66706e-08 5.36191e-08)
(1.89247e-08 -4.79373e-08 5.49097e-08)
(1.58239e-08 -4.98248e-08 5.42395e-08)
(0 0 0)
(1.99419e-09 -4.84672e-09 2.94085e-09)
(3.80284e-09 -9.2956e-09 5.71335e-09)
(5.49259e-09 -1.35442e-08 8.50178e-09)
(7.12146e-09 -1.77485e-08 1.14646e-08)
(8.74166e-09 -2.20265e-08 1.47429e-08)
(1.04011e-08 -2.64604e-08 1.84644e-08)
(1.21437e-08 -3.10944e-08 2.27427e-08)
(1.40069e-08 -3.59326e-08 2.76705e-08)
(1.60135e-08 -4.09324e-08 3.33026e-08)
(1.81538e-08 -4.59977e-08 3.96246e-08)
(2.03488e-08 -5.09691e-08 4.64978e-08)
(2.23806e-08 -5.56135e-08 5.35731e-08)
(2.3787e-08 -5.96072e-08 6.01795e-08)
(2.38071e-08 -6.25244e-08 6.52666e-08)
(2.19219e-08 -6.3955e-08 6.77693e-08)
(1.76931e-08 -6.41617e-08 6.79546e-08)
(0 0 0)
(2.28478e-09 -5.46264e-09 3.36957e-09)
(4.35306e-09 -1.04852e-08 6.54153e-09)
(6.2778e-09 -1.52982e-08 9.72267e-09)
(8.12235e-09 -2.00864e-08 1.30901e-08)
(9.94363e-09 -2.49951e-08 1.68007e-08)
(1.1794e-08 -3.01344e-08 2.09965e-08)
(1.37221e-08 -3.558e-08 2.58041e-08)
(1.57713e-08 -4.13742e-08 3.13284e-08)
(1.79742e-08 -4.7524e-08 3.76373e-08)
(2.03395e-08 -5.39975e-08 4.47304e-08)
(2.28255e-08 -6.07133e-08 5.24852e-08)
(2.529e-08 -6.75098e-08 6.05661e-08)
(2.74097e-08 -7.40563e-08 6.82932e-08)
(2.86064e-08 -7.96484e-08 7.45266e-08)
(2.82913e-08 -8.30276e-08 7.79443e-08)
(2.52637e-08 -8.17515e-08 7.88071e-08)
(0 0 0)
(2.52579e-09 -5.89154e-09 3.72465e-09)
(4.80726e-09 -1.13181e-08 7.22472e-09)
(6.92061e-09 -1.65368e-08 1.07227e-08)
(8.93171e-09 -2.17562e-08 1.44081e-08)
(1.08996e-08 -2.71451e-08 1.84477e-08)
(1.28785e-08 -3.28384e-08 2.29911e-08)
(1.49196e-08 -3.89408e-08 2.81707e-08)
(1.7071e-08 -4.55306e-08 3.40965e-08)
(1.93757e-08 -5.26617e-08 4.08411e-08)
(2.18661e-08 -6.03661e-08 4.84106e-08)
(2.45537e-08 -6.86539e-08 5.66918e-08)
(2.74105e-08 -7.75018e-08 6.53601e-08)
(3.03454e-08 -8.68008e-08 7.37268e-08)
(3.31675e-08 -9.6165e-08 8.05473e-08)
(3.54748e-08 -1.0428e-07 8.41839e-08)
(3.7462e-08 -1.09488e-07 8.45681e-08)
(0 0 0)
(2.7159e-09 -6.11046e-09 4.00389e-09)
(5.16341e-09 -1.17499e-08 7.75913e-09)
(7.41878e-09 -1.71933e-08 1.1497e-08)
(9.54745e-09 -2.26657e-08 1.54129e-08)
(1.16076e-08 -2.83528e-08 1.9677e-08)
(1.36525e-08 -3.44077e-08 2.44396e-08)
(1.57321e-08 -4.09564e-08 2.98315e-08)
(1.78942e-08 -4.81016e-08 3.59583e-08)
(2.01848e-08 -5.5926e-08 4.28865e-08)
(2.2646e-08 -6.44947e-08 5.06157e-08)
(2.53117e-08 -7.38563e-08 5.90292e-08)
(2.81977e-08 -8.40369e-08 6.78064e-08)
(3.12794e-08 -9.50048e-08 7.6279e-08)
(3.44175e-08 -1.06534e-07 8.32525e-08)
(3.70191e-08 -1.1714e-07 8.70213e-08)
(4.10678e-08 -1.29978e-07 8.52634e-08)
(0 0 0)
(0 0 0)
(0 0 0)
(0 0 0)
(0 0 0)
(0 0 0)
(0 0 0)
(0 0 0)
(0 0 0)
(0 0 0)
(0 0 0)
(0 0 0)
(0 0 0)
(0 0 0)
(0 0 0)
(0 0 0)
(2.32734e-09 1.69809e-09 1.57031e-09)
(0 0 0)
(4.44476e-10 -1.11545e-09 5.49058e-10)
(8.48495e-10 -2.13504e-09 1.06765e-09)
(1.22769e-09 -3.1002e-09 1.59099e-09)
(1.59545e-09 -4.04185e-09 2.14922e-09)
(1.9633e-09 -4.98005e-09 2.76862e-09)
(2.34111e-09 -5.92301e-09 3.47176e-09)
(2.73731e-09 -6.86526e-09 4.27645e-09)
(3.1587e-09 -7.78475e-09 5.19278e-09)
(3.61013e-09 -8.63912e-09 6.21727e-09)
(4.09488e-09 -9.36206e-09 7.32292e-09)
(4.61726e-09 -9.86164e-09 8.44345e-09)
(5.18963e-09 -1.00223e-08 9.45199e-09)
(5.84298e-09 -9.70811e-09 1.01426e-08)
(6.62165e-09 -8.76511e-09 1.02541e-08)
(7.4513e-09 -7.16013e-09 9.67877e-09)
(7.75888e-09 -4.02921e-09 8.08467e-09)
(0 0 0)
(8.77482e-10 -2.19755e-09 1.08381e-09)
(1.67477e-09 -4.20746e-09 2.1071e-09)
(2.42233e-09 -6.11244e-09 3.13907e-09)
(3.1462e-09 -7.97476e-09 4.23886e-09)
(3.86872e-09 -9.83599e-09 5.45802e-09)
(4.60897e-09 -1.17155e-08 6.84096e-09)
(5.38259e-09 -1.36073e-08 8.42297e-09)
(6.20064e-09 -1.54754e-08 1.02246e-08)
(7.06705e-09 -1.72476e-08 1.22407e-08)
(7.97484e-09 -1.88122e-08 1.44219e-08)
(8.90148e-09 -2.00234e-08 1.66457e-08)
(9.8032e-09 -2.07293e-08 1.868e-08)
(1.06076e-08 -2.08447e-08 2.01574e-08)
(1.12051e-08 -2.04742e-08 2.06406e-08)
(1.14729e-08 -2.00092e-08 2.00278e-08)
(1.16849e-08 -2.02813e-08 1.90904e-08)
(0 0 0)
(1.28848e-09 -3.21384e-09 1.59119e-09)
(2.45839e-09 -6.15614e-09 3.09269e-09)
(3.55364e-09 -8.95058e-09 4.60528e-09)
(4.61164e-09 -1.16915e-08 6.215e-09)
(5.66458e-09 -1.44444e-08 7.99693e-09)
(6.73971e-09 -1.72452e-08 1.00161e-08)
(7.85868e-09 -2.00958e-08 1.23248e-08)
(9.03473e-09 -2.29595e-08 1.49555e-08)
(1.02665e-08 -2.57545e-08 1.79058e-08)
(1.15265e-08 -2.83508e-08 2.11146e-08)
(1.2743e-08 -3.05803e-08 2.44263e-08)
(1.37725e-08 -3.22832e-08 2.755e-08)
(1.43768e-08 -3.34192e-08 3.0044e-08)
(1.42684e-08 -3.42374e-08 3.1426e-08)
(1.34381e-08 -3.5218e-08 3.16053e-08)
(1.23197e-08 -3.69543e-08 3.14423e-08)
(0 0 0)
(1.66784e-09 -4.13131e-09 2.05924e-09)
(3.18065e-09 -7.91835e-09 4.00078e-09)
(4.59382e-09 -1.15246e-08 5.95354e-09)
(5.95455e-09 -1.50767e-08 8.02742e-09)
(7.30354e-09 -1.86668e-08 1.03184e-08)
(8.6753e-09 -2.23523e-08 1.29099e-08)
(1.0097e-08 -2.61526e-08 1.58704e-08)
(1.15844e-08 -3.00449e-08 1.92445e-08)
(1.31327e-08 -3.39577e-08 2.3037e-08)
(1.4698e-08 -3.77652e-08 2.71853e-08)
(1.61664e-08 -4.12912e-08 3.15204e-08)
(1.73056e-08 -4.43339e-08 3.57247e-08)
(1.77185e-08 -4.67362e-08 3.93211e-08)
(1.69147e-08 -4.85045e-08 4.17894e-08)
(1.49017e-08 -4.98285e-08 4.29352e-08)
(1.23378e-08 -5.13383e-08 4.35581e-08)
(0 0 0)
(2.00755e-09 -4.91756e-09 2.47793e-09)
(3.82597e-09 -9.4319e-09 4.81157e-09)
(5.51981e-09 -1.37438e-08 7.15357e-09)
(7.14411e-09 -1.80114e-08 9.63382e-09)
(8.74651e-09 -2.23547e-08 1.23656e-08)
(1.03678e-08 -2.68563e-08 1.54479e-08)
(1.20409e-08 -3.15606e-08 1.89624e-08)
(1.3787e-08 -3.64708e-08 2.29656e-08)
(1.56053e-08 -4.15431e-08 2.74706e-08)
(1.74544e-08 -4.66786e-08 3.2419e-08)
(1.92178e-08 -5.17126e-08 3.76392e-08)
(2.06476e-08 -5.63978e-08 4.27996e-08)
(2.13009e-08 -6.03747e-08 4.73938e-08)
(2.05788e-08 -6.31463e-08 5.08425e-08)
(1.83308e-08 -6.42456e-08 5.28209e-08)
(1.47823e-08 -6.39154e-08 5.41001e-08)
(0 0 0)
(2.30155e-09 -5.54179e-09 2.83962e-09)
(4.3827e-09 -1.06373e-08 5.51001e-09)
(6.31447e-09 -1.55204e-08 8.1825e-09)
(8.15744e-09 -2.03779e-08 1.10023e-08)
(9.96426e-09 -2.53564e-08 1.40959e-08)
(1.17807e-08 -3.05647e-08 1.75731e-08)
(1.36452e-08 -3.60756e-08 2.15257e-08)
(1.55866e-08 -4.1925e-08 2.6018e-08)
(1.76168e-08 -4.81083e-08 3.10701e-08)
(1.97173e-08 -5.45738e-08 3.66277e-08)
(2.18153e-08 -6.1207e-08 4.25173e-08)
(2.37452e-08 -6.77919e-08 4.83919e-08)
(2.52053e-08 -7.39198e-08 5.36975e-08)
(2.57649e-08 -7.88124e-08 5.77511e-08)
(2.51674e-08 -8.13001e-08 6.00935e-08)
(2.28452e-08 -7.92363e-08 6.16475e-08)
(0 0 0)
(2.546e-09 -5.9762e-09 3.13941e-09)
(4.8436e-09 -1.14807e-08 6.08661e-09)
(6.96736e-09 -1.67739e-08 9.0261e-09)
(8.98075e-09 -2.20664e-08 1.21134e-08)
(1.09391e-08 -2.75272e-08 1.5483e-08)
(1.28908e-08 -3.32888e-08 1.92511e-08)
(1.48785e-08 -3.94503e-08 2.35138e-08)
(1.69377e-08 -4.60786e-08 2.83384e-08)
(1.9094e-08 -5.32081e-08 3.37469e-08)
(2.13577e-08 -6.08374e-08 3.96845e-08)
(2.37142e-08 -6.8922e-08 4.59725e-08)
(2.61148e-08 -7.73526e-08 5.22429e-08)
(2.84808e-08 -8.59011e-08 5.7875e-08)
(3.07349e-08 -9.4079e-08 6.20183e-08)
(3.27559e-08 -1.0074e-07 6.39882e-08)
(3.53277e-08 -1.04638e-07 6.47567e-08)
(0 0 0)
(2.73941e-09 -6.19768e-09 3.37536e-09)
(5.20629e-09 -1.19174e-08 6.53809e-09)
(7.4756e-09 -1.74373e-08 9.68008e-09)
(9.61087e-09 -2.29843e-08 1.2962e-08)
(1.16672e-08 -2.87436e-08 1.65211e-08)
(1.36931e-08 -3.48653e-08 2.04747e-08)
(1.57315e-08 -4.14678e-08 2.49175e-08)
(1.782e-08 -4.86399e-08 2.9914e-08)
(1.99909e-08 -5.644e-08 3.54816e-08)
(2.22683e-08 -6.48942e-08 4.15601e-08)
(2.46653e-08 -7.39891e-08 4.79646e-08)
(2.71786e-08 -8.36584e-08 5.43178e-08)
(2.97854e-08 -9.37519e-08 5.99767e-08)
(3.24184e-08 -1.03957e-07 6.40335e-08)
(3.47007e-08 -1.1303e-07 6.56715e-08)
(3.89801e-08 -1.24293e-07 6.41218e-08)
(0 0 0)
(0 0 0)
(0 0 0)
(0 0 0)
(0 0 0)
(0 0 0)
(0 0 0)
(0 0 0)
(0 0 0)
(0 0 0)
(0 0 0)
(0 0 0)
(0 0 0)
(0 0 0)
(0 0 0)
(0 0 0)
(1.83132e-09 1.18566e-09 1.43004e-09)
(0 0 0)
(4.45498e-10 -1.1283e-09 4.27911e-10)
(8.49751e-10 -2.15984e-09 8.31686e-10)
(1.22773e-09 -3.13686e-09 1.23837e-09)
(1.59183e-09 -4.09093e-09 1.67087e-09)
(1.95199e-09 -5.0428e-09 2.14866e-09)
(2.31584e-09 -6.00177e-09 2.68784e-09)
(2.68834e-09 -6.96422e-09 3.29997e-09)
(3.07117e-09 -7.91138e-09 3.98954e-09)
(3.46173e-09 -8.80638e-09 4.74922e-09)
(3.85308e-09 -9.59173e-09 5.55285e-09)
(4.23696e-09 -1.01879e-08 6.34621e-09)
(4.61357e-09 -1.04921e-08 7.03886e-09)
(5.01245e-09 -1.03687e-08 7.5093e-09)
(5.51227e-09 -9.625e-09 7.64836e-09)
(6.14213e-09 -8.13231e-09 7.4704e-09)
(6.519e-09 -4.90714e-09 6.67026e-09)
(0 0 0)
(8.79739e-10 -2.22278e-09 8.44716e-10)
(1.67778e-09 -4.25616e-09 1.64153e-09)
(2.42328e-09 -6.18424e-09 2.44356e-09)
(3.14038e-09 -8.07045e-09 3.29571e-09)
(3.84861e-09 -9.9576e-09 4.23627e-09)
(4.56283e-09 -1.18668e-08 5.29695e-09)
(5.29242e-09 -1.3795e-08 6.5008e-09)
(6.0393e-09 -1.57109e-08 7.8573e-09)
(6.79465e-09 -1.75506e-08 9.35366e-09)
(7.53526e-09 -1.92145e-08 1.09417e-08)
(8.22165e-09 -2.05718e-08 1.25212e-08)
(8.8026e-09 -2.14788e-08 1.39264e-08)
(9.23471e-09 -2.18229e-08 1.49361e-08)
(9.52192e-09 -2.15995e-08 1.53515e-08)
(9.73353e-09 -2.10367e-08 1.52084e-08)
(1.02783e-08 -2.08459e-08 1.49539e-08)
(0 0 0)
(1.29232e-09 -3.25052e-09 1.24028e-09)
(2.46393e-09 -6.22686e-09 2.40959e-09)
(3.5569e-09 -9.05445e-09 3.5853e-09)
(4.60612e-09 -1.18291e-08 4.83275e-09)
(5.64004e-09 -1.46179e-08 6.20777e-09)
(6.68042e-09 -1.74581e-08 7.75689e-09)
(7.74078e-09 -2.03546e-08 9.51459e-09)
(8.82286e-09 -2.32745e-08 1.14967e-08)
(9.91004e-09 -2.61427e-08 1.36889e-08)
(1.09574e-08 -2.88381e-08 1.60298e-08)
(1.18793e-08 -3.12014e-08 1.83908e-08)
(1.25394e-08 -3.30679e-08 2.05635e-08)
(1.27644e-08 -3.43499e-08 2.22835e-08)
(1.24365e-08 -3.51714e-08 2.3339e-08)
(1.17512e-08 -3.58879e-08 2.37789e-08)
(1.12221e-08 -3.71045e-08 2.40495e-08)
(0 0 0)
(1.67365e-09 -4.17806e-09 1.6053e-09)
(3.18958e-09 -8.00828e-09 3.11751e-09)
(4.60105e-09 -1.16561e-08 4.63559e-09)
(5.95237e-09 -1.52499e-08 6.24305e-09)
(7.28004e-09 -1.88829e-08 8.01134e-09)
(8.61239e-09 -2.26134e-08 1.00004e-08)
(9.96769e-09 -2.64618e-08 1.22555e-08)
(1.13495e-08 -3.04063e-08 1.47997e-08)
(1.27376e-08 -3.43767e-08 1.76206e-08)
(1.40726e-08 -3.82481e-08 2.06514e-08)
(1.52333e-08 -4.18402e-08 2.3749e-08)
(1.60095e-08 -4.4933e-08 2.66826e-08)
(1.60959e-08 -4.73171e-08 2.91663e-08)
(1.52014e-08 -4.89028e-08 3.09739e-08)
(1.35202e-08 -4.9838e-08 3.20894e-08)
(1.17247e-08 -5.08289e-08 3.2898e-08)
(0 0 0)
(2.01568e-09 -4.97264e-09 1.93196e-09)
(3.83912e-09 -9.53763e-09 3.74985e-09)
(5.53265e-09 -1.38979e-08 5.57087e-09)
(7.14837e-09 -1.8213e-08 7.49377e-09)
(8.72962e-09 -2.26035e-08 9.60305e-09)
(1.0311e-08 -2.71517e-08 1.19698e-08)
(1.19165e-08 -3.19003e-08 1.46485e-08)
(1.35555e-08 -3.68491e-08 1.76692e-08)
(1.52135e-08 -4.19483e-08 2.10228e-08)
(1.68366e-08 -4.7088e-08 2.46406e-08)
(1.8307e-08 -5.20846e-08 2.83702e-08)
(1.94087e-08 -5.66574e-08 3.19627e-08)
(1.98028e-08 -6.03961e-08 3.51047e-08)
(1.90954e-08 -6.27536e-08 3.75345e-08)