/*--------------------------------*- C++ -*----------------------------------*\
| =========                 |                                                 |
| \\      /  F ield         | OpenFOAM: The Open Source CFD Toolbox           |
|  \\    /   O peration     | Version:  v1912                                 |
|   \\  /    A nd           | Website:  www.openfoam.com                      |
|    \\/     M anipulation  |                                                 |
\*---------------------------------------------------------------------------*/
FoamFile
{
    version     2.0;
    format      ascii;
    class       volScalarField;
    location    "0.88/fluid";
    object      T;
}
// * * * * * * * * * * * * * * * * * * * * * * * * * * * * * * * * * * * * * //

dimensions      [0 0 0 1 0 0 0];


internalField   nonuniform List<scalar> 
14592
(
273.301
273.915
274.553
275.219
275.919
276.659
277.445
278.286
279.189
280.165
281.225
282.385
283.664
285.093
286.728
288.712
273.3
273.91
274.543
275.206
275.902
276.638
277.421
278.257
279.155
280.126
281.181
282.335
283.61
285.033
286.653
288.569
273.297
273.902
274.53
275.186
275.876
276.605
277.38
278.208
279.097
280.058
281.102
282.246
283.511
284.926
286.541
288.452
273.294
273.893
274.514
275.163
275.844
276.564
277.328
278.144
279.02
279.966
280.993
282.12
283.369
284.773
286.388
288.322
273.291
273.883
274.496
275.136
275.808
276.516
277.267
278.068
278.926
279.852
280.857
281.959
283.182
284.566
286.175
288.141
273.287
273.871
274.476
275.106
275.767
276.462
277.198
277.981
278.818
279.718
280.693
281.761
282.946
284.291
285.874
287.86
273.283
273.858
274.454
275.074
275.723
276.404
277.123
277.886
278.698
279.568
280.506
281.528
282.657
283.935
285.446
287.385
273.279
273.846
274.432
275.041
275.677
276.343
277.044
277.785
278.57
279.405
280.3
281.266
282.321
283.497
284.86
286.572
273.306
273.929
274.578
275.257
275.971
276.729
277.538
278.405
279.342
280.361
281.476
282.704
284.071
285.613
287.39
289.524
273.304
273.924
274.569
275.243
275.954
276.708
277.512
278.375
279.308
280.321
281.43
282.653
284.016
285.553
287.319
289.407
273.302
273.916
274.555
275.223
275.928
276.674
277.47
278.325
279.247
280.25
281.348
282.56
283.914
285.444
287.209
289.304
273.299
273.907
274.538
275.199
275.895
276.631
277.417
278.258
279.167
280.154
281.234
282.429
283.767
285.288
287.058
289.187
273.295
273.896
274.52
275.171
275.856
276.581
277.353
278.179
279.069
280.034
281.091
282.259
283.571
285.073
286.844
289.019
273.291
273.884
274.499
275.14
275.814
276.525
277.281
278.088
278.955
279.893
280.918
282.05
283.321
284.785
286.534
288.747
273.287
273.871
274.476
275.107
275.768
276.464
277.202
277.987
278.828
279.734
280.719
281.801
283.012
284.405
286.08
288.261
273.283
273.858
274.453
275.072
275.72
276.4
277.119
277.881
278.692
279.561
280.499
281.52
282.649
283.928
285.439
287.379
273.31
273.943
274.602
275.292
276.021
276.795
277.623
278.515
279.482
280.538
281.698
282.98
284.409
286.017
287.847
289.963
273.309
273.938
274.592
275.278
276.003
276.773
277.597
278.484
279.447
280.497
281.651
282.928
284.353
285.957
287.781
289.865
273.306
273.93
274.578
275.258
275.976
276.738
277.554
278.432
279.384
280.423
281.566
282.832
284.248
285.848
287.674
289.772
273.303
273.92
274.561
275.233
275.941
276.694
277.498
278.363
279.301
280.323
281.448
282.696
284.097
285.69
287.524
289.662
273.299
273.909
274.542
275.204
275.902
276.642
277.432
278.281
279.198
280.199
281.298
282.52
283.895
285.47
287.309
289.499
273.295
273.896
274.52
275.172
275.858
276.584
277.357
278.186
279.08
280.052
281.118
282.301
283.635
285.171
286.994
289.229
273.291
273.883
274.497
275.138
275.81
276.52
277.275
278.081
278.947
279.885
280.909
282.04
283.311
284.775
286.526
288.741
273.286
273.869
274.473
275.101
275.76
276.454
277.188
277.97
278.805
279.703
280.677
281.744
282.928
284.274
285.859
287.848
273.314
273.955
274.623
275.324
276.064
276.853
277.699
278.612
279.604
280.69
281.884
283.205
284.675
286.315
288.151
290.206
273.313
273.95
274.613
275.31
276.046
276.831
277.672
278.58
279.567
280.647
281.836
283.152
284.618
286.255
288.087
290.116
273.31
273.941
274.599
275.289
276.018
276.795
277.628
278.526
279.503
280.572
281.749
283.055
284.512
286.146
287.982
290.029
273.307
273.932
274.582
275.263
275.983
276.749
277.57
278.456
279.417
280.469
281.628
282.915
284.357
285.986
287.833
289.921
273.303
273.92
274.562
275.234
275.943
276.696
277.502
278.37
279.312
280.34
281.473
282.734
284.15
285.762
287.617
289.76
273.299
273.907
274.539
275.201
275.897
276.636
277.425
278.272
279.189
280.188
281.287
282.507
283.882
285.457
287.298
289.491
273.294
273.894
274.515
275.165
275.848
276.571
277.34
278.163
279.051
280.015
281.07
282.238
283.549
285.051
286.824
289.005
273.29
273.879
274.49
275.128
275.796
276.502
277.25
278.048
278.903
279.826
280.829
281.93
283.152
284.536
286.148
288.121
273.318
273.966
274.641
275.35
276.101
276.902
277.761
278.692
279.704
280.813
282.033
283.38
284.873
286.525
288.349
290.347
273.316
273.96
274.631
275.336
276.083
276.879
277.734
278.659
279.666
280.769
281.984
283.327
284.815
286.466
288.286
290.262
273.313
273.952
274.616
275.315
276.054
276.843
277.689
278.605
279.601
280.693
281.895
283.227
284.708
286.357
288.183
290.176
273.31
273.941
274.599
275.289
276.018
276.796
277.63
278.532
279.513
280.587
281.771
283.085
284.552
286.195
288.034
290.069
273.306
273.93
274.578
275.258
275.977
276.741
277.561
278.444
279.405
280.455
281.613
282.9
284.341
285.969
287.817
289.909
273.302
273.917
274.556
275.225
275.93
276.68
277.481
278.344
279.278
280.299
281.422
282.669
284.068
285.66
287.497
289.642
273.297
273.903
274.531
275.188
275.88
276.613
277.394
278.232
279.137
280.121
281.199
282.392
283.728
285.248
287.021
289.16
273.293
273.888
274.505
275.15
275.827
276.542
277.302
278.113
278.985
279.927
280.952
282.076
283.323
284.727
286.343
288.287
273.32
273.974
274.655
275.371
276.13
276.939
277.81
278.753
279.78
280.905
282.143
283.507
285.012
286.668
288.476
290.432
273.319
273.968
274.645
275.357
276.111
276.917
277.783
278.72
279.742
280.861
282.093
283.453
284.955
286.608
288.414
290.348
273.316
273.959
274.63
275.335
276.082
276.879
277.737
278.665
279.676
280.783
282.004
283.353
284.847
286.499
288.311
290.263
273.313
273.949
274.612
275.309
276.046
276.832
277.677
278.591
279.586
280.676
281.878
283.209
284.689
286.336
288.162
290.157
273.309
273.937
274.591
275.278
276.003
276.776
277.606
278.502
279.476
280.542
281.717
283.021
284.476
286.109
287.945
289.997
273.304
273.924
274.568
275.243
275.956
276.714
277.525
278.399
279.347
280.383
281.522
282.786
284.2
285.798
287.624
289.731
273.3
273.91
274.543
275.206
275.905
276.645
277.436
278.285
279.203
280.202
281.296
282.505
283.855
285.383
287.148
289.253
273.295
273.895
274.517
275.167
275.851
276.573
277.342
278.164
279.048
280.003
281.044
282.184
283.446
284.858
286.472
288.39
273.322
273.979
274.665
275.385
276.149
276.965
277.843
278.794
279.831
280.967
282.215
283.589
285.101
286.755
288.551
290.48
273.32
273.973
274.654
275.371
276.131
276.942
277.815
278.762
279.793
280.923
282.165
283.535
285.043
286.696
288.49
290.397
273.318
273.965
274.64
275.349
276.101
276.905
277.769
278.705
279.726
280.844
282.075
283.434
284.935
286.586
288.387
290.313
273.314
273.954
274.621
275.322
276.064
276.857
277.709
278.631
279.635
280.736
281.948
283.289
284.776
286.423
288.238
290.207
273.31
273.942
274.6
275.291
276.022
276.801
277.637
278.54
279.524
280.6
281.786
283.099
284.562
286.195
288.021
290.048
273.306
273.929
274.577
275.256
275.974
276.737
277.555
278.436
279.393
280.439
281.589
282.862
284.284
285.883
287.7
289.783
273.301
273.914
274.552
275.219
275.922
276.668
277.465
278.321
279.247
280.255
281.36
282.579
283.937
285.467
287.224
289.307
273.296
273.899
274.525
275.179
275.867
276.595
277.369
278.198
279.09
280.055
281.105
282.255
283.524
284.941
286.55
288.451
273.323
273.982
274.67
275.393
276.159
276.978
277.86
278.815
279.857
280.998
282.251
283.63
285.144
286.797
288.586
290.502
273.321
273.976
274.659
275.378
276.14
276.955
277.832
278.782
279.818
280.953
282.201
283.575
285.086
286.738
288.525
290.419
273.319
273.968
274.644
275.356
276.111
276.917
277.785
278.726
279.751
280.874
282.11
283.474
284.977
286.628
288.423
290.336
273.315
273.957
274.626
275.329
276.074
276.869
277.725
278.651
279.66
280.765
281.983
283.328
284.818
286.465
288.273
290.23
273.311
273.945
274.605
275.298
276.031
276.813
277.652
278.56
279.548
280.629
281.82
283.138
284.603
286.236
288.056
290.071
273.307
273.932
274.581
275.263
275.983
276.749
277.57
278.455
279.417
280.467
281.622
282.9
284.324
285.924
287.735
289.806
273.302
273.917
274.556
275.225
275.93
276.679
277.479
278.339
279.27
280.282
281.392
282.615
283.976
285.507
287.26
289.332
273.297
273.902
274.529
275.185
275.875
276.605
277.383
278.215
279.111
280.08
281.135
282.29
283.563
284.98
286.587
288.479
273.276
273.838
274.417
275.014
275.631
276.267
276.922
277.595
278.283
278.981
279.683
280.377
281.049
281.681
282.251
282.736
273.275
273.834
274.41
275.006
275.62
276.254
276.906
277.577
278.262
278.957
279.656
280.346
281.016
281.645
282.213
282.697
273.273
273.828
274.401
274.992
275.602
276.231
276.879
277.544
278.224
278.914
279.606
280.291
280.954
281.578
282.142
282.622
273.271
273.821
274.389
274.974
275.579
276.201
276.843
277.501
278.173
278.854
279.538
280.213
280.868
281.483
282.04
282.514
273.268
273.813
274.375
274.954
275.551
276.167
276.8
277.449
278.111
278.781
279.453
280.117
280.76
281.364
281.91
282.376
273.265
273.804
274.36
274.932
275.521
276.128
276.751
277.389
278.04
278.697
279.356
280.005
280.633
281.223
281.756
282.212
273.262
273.795
274.343
274.908
275.488
276.086
276.699
277.325
277.962
278.606
279.248
279.881
280.492
281.065
281.583
282.025
273.259
273.785
274.326
274.882
275.455
276.042
276.644
277.258
277.881
278.509
279.135
279.749
280.341
280.895
281.395
281.823
273.276
273.839
274.419
275.018
275.638
276.277
276.937
277.615
278.311
279.019
279.733
280.441
281.131
281.784
282.376
282.88
273.275
273.835
274.412
275.009
275.625
276.262
276.919
277.595
278.288
278.993
279.703
280.409
281.096
281.746
282.335
282.839
273.273
273.829
274.402
274.994
275.606
276.238
276.89
277.561
278.248
278.947
279.652
280.351
281.032
281.676
282.261
282.761
273.271
273.822
274.39
274.976
275.582
276.208
276.853
277.517
278.196
278.886
279.581
280.271
280.943
281.578
282.155
282.65
273.269
273.814
274.376
274.956
275.555
276.173
276.809
277.463
278.132
278.811
279.494
280.172
280.831
281.455
282.021
282.507
273.266
273.804
274.36
274.933
275.524
276.133
276.76
277.403
278.06
278.726
279.395
280.057
280.7
281.309
281.861
282.335
273.262
273.795
274.343
274.908
275.491
276.091
276.707
277.338
277.981
278.632
279.284
279.929
280.554
281.144
281.68
282.14
273.259
273.785
274.326
274.883
275.457
276.046
276.651
277.269
277.898
278.533
279.168
279.793
280.398
280.967
281.484
281.926
273.278
273.843
274.426
275.03
275.654
276.3
276.969
277.659
278.37
279.097
279.835
280.573
281.3
281.994
282.63
283.176
273.277
273.838
274.419
275.019
275.641
276.284
276.95
277.637
278.345
279.069
279.803
280.539
281.262
281.953
282.587
283.132
273.275
273.832
274.408
275.004
275.62
276.259
276.919
277.601
278.303
279.02
279.748
280.477
281.193
281.879
282.508
283.05
273.272
273.825
274.395
274.985
275.595
276.227
276.88
277.554
278.247
278.956
279.674
280.393
281.099
281.775
282.396
282.931
273.27
273.817
274.381
274.964
275.567
276.191
276.835
277.499
278.181
278.878
279.583
280.288
280.981
281.643
282.252
282.779
273.267
273.807
274.365
274.941
275.536
276.15
276.784
277.437
278.106
278.789
279.478
280.167
280.842
281.487
282.08
282.593
273.263
273.798
274.348
274.916
275.502
276.106
276.729
277.369
278.024
278.691
279.363
280.032
280.686
281.311
281.883
282.379
273.26
273.787
274.33
274.89
275.467
276.061
276.672
277.299
277.938
278.587
279.24
279.887
280.518
281.119
281.668
282.143
273.28
273.85
274.439
275.049
275.681
276.337
277.019
277.726
278.459
279.214
279.987
280.771
281.552
282.311
283.018
283.635
273.279
273.845
274.431
275.037
275.667
276.32
276.999
277.703
278.432
279.184
279.954
280.734
281.512
282.267
282.973
283.588
273.277
273.839
274.42
275.021
275.645
276.294
276.967
277.665
278.388
279.132
279.895
280.668
281.438
282.188
282.888
283.5
273.274
273.832
274.407
275.002
275.619
276.26
276.926
277.616
278.329
279.064
279.816
280.578
281.337
282.076
282.767
283.372
273.272
273.823
274.392
274.98
275.59
276.222
276.878
277.558
278.26
278.982
279.719
280.466
281.21
281.934
282.611
283.205
273.268
273.813
274.375
274.956
275.557
276.18
276.825
277.492
278.18
278.887
279.608
280.335
281.059
281.763
282.421
282.999
273.265
273.803
274.358
274.93
275.522
276.135
276.768
277.422
278.094
278.783
279.484
280.189
280.889
281.567
282.2
282.756
273.262
273.793
274.339
274.904
275.486
276.088
276.709
277.348
278.003
278.673
279.351
280.032
280.704
281.352
281.954
282.482
273.283
273.86
274.456
275.075
275.717
276.387
277.086
277.815
278.575
279.366
280.186
281.029
281.884
282.734
283.546
284.27
273.282
273.855
274.448
275.063
275.703
276.369
277.065
277.79
278.547
279.334
280.15
280.989
281.841
282.687
283.496
284.219
273.28
273.849
274.436
275.046
275.68
276.341
277.031
277.75
278.5
279.279
280.087
280.918
281.762
282.602
283.405
284.125
273.277
273.841
274.423
275.026
275.653
276.307
276.988
277.698
278.438
279.207
280.003
280.821
281.653
282.48
283.274
283.987
273.274
273.832
274.407
275.003
275.623
276.267
276.938
277.637
278.364
279.119
279.899
280.701
281.515
282.325
283.103
283.803
273.271
273.822
274.39
274.978
275.589
276.223
276.882
277.568
278.28
279.017
279.778
280.558
281.349
282.135
282.89
283.571
273.268
273.811
274.372
274.952
275.552
276.175
276.822
277.493
278.188
278.906
279.644
280.398
281.159
281.913
282.636
283.287
273.264
273.8
274.353
274.924
275.514
276.126
276.759
277.414
278.091
278.787
279.5
280.224
280.951
281.666
282.348
282.959
273.287
273.872
274.477
275.106
275.762
276.447
277.166
277.92
278.713
279.547
280.422
281.336
282.285
283.253
284.21
285.098
273.286
273.867
274.469
275.094
275.746
276.429
277.143
277.894
278.683
279.513
280.384
281.294
282.238
283.203
284.157
285.042
273.284
273.86
274.457
275.077
275.723
276.399
277.108
277.852
278.633
279.455
280.317
281.218
282.154
283.111
284.059
284.941
273.281
273.852
274.443
275.056
275.695
276.363
277.063
277.797
278.568
279.377
280.226
281.114
282.036
282.98
283.918
284.794
273.278
273.843
274.426
275.032
275.663
276.321
277.01
277.732
278.489
279.283
280.115
280.983
281.885
282.809
283.731
284.594
273.275
273.833
274.409
275.006
275.627
276.275
276.952
277.659
278.4
279.174
279.984
280.827
281.702
282.597
283.491
284.332
273.271
273.821
274.39
274.978
275.589
276.225
276.888
277.579
278.301
279.053
279.837
280.65
281.489
282.345
283.196
283.997
273.267
273.81
274.37
274.949
275.549
276.173
276.821
277.496
278.197
278.925
279.678
280.456
281.252
282.057
282.851
283.591
273.292
273.886
274.501
275.142
275.812
276.515
277.255
278.037
278.866
279.747
280.683
281.679
282.735
283.847
284.999
286.134
273.29
273.88
274.492
275.13
275.796
276.495
277.232
278.011
278.835
279.711
280.643
281.634
282.685
283.794
284.941
286.068
273.288
273.873
274.48
275.111
275.772
276.465
277.195
277.966
278.783
279.65
280.572
281.553
282.596
283.696
284.837
285.96
273.285
273.865
274.465
275.09
275.742
276.427
277.148
277.908
278.713
279.567
280.475
281.441
282.469
283.556
284.688
285.808
273.282
273.855
274.448
275.065
275.709
276.383
277.092
277.84
278.63
279.466
280.355
281.3
282.305
283.371
284.486
285.599
273.279
273.845
274.43
275.038
275.671
276.334
277.03
277.762
278.534
279.349
280.213
281.129
282.103
283.136
284.22
285.311
273.275
273.833
274.41
275.008
275.631
276.282
276.963
277.677
278.428
279.219
280.052
280.933
281.864
282.848
283.877
284.917
273.271
273.821
274.389
274.978
275.59
276.227
276.892
277.588
278.316
279.079
279.878
280.717
281.595
282.512
283.46
284.403
273.296
273.9
274.527
275.18
275.865
276.586
277.35
278.161
279.028
279.956
280.956
282.036
283.206
284.481
285.871
287.374
273.295
273.895
274.518
275.167
275.849
276.566
277.326
278.133
278.995
279.919
280.914
281.988
283.155
284.424
285.805
287.283
273.293
273.888
274.505
275.149
275.824
276.535
277.287
278.087
278.94
279.854
280.839
281.903
283.06
284.321
285.696
287.168
273.29
273.879
274.489
275.126
275.793
276.495
277.237
278.026
278.866
279.767
280.736
281.784
282.925
284.173
285.542
287.021
273.286
273.869
274.472
275.1
275.758
276.449
277.179
277.953
278.778
279.659
280.607
281.632
282.749
283.975
285.332
286.817
273.283
273.858
274.453
275.072
275.719
276.398
277.114
277.871
278.676
279.534
280.454
281.447
282.528
283.718
285.044
286.518
273.279
273.846
274.432
275.041
275.676
276.342
277.042
277.781
278.563
279.393
280.28
281.232
282.264
283.395
284.654
286.07
273.275
273.833
274.41
275.009
275.633
276.284
276.968
277.686
278.442
279.242
280.09
280.992
281.96
283.006
284.152
285.413
273.275
273.832
274.409
275.007
275.63
276.282
276.964
277.682
278.438
279.237
280.084
280.987
281.954
283
284.146
285.408
273.271
273.82
274.387
274.975
275.586
276.222
276.886
277.581
278.308
279.07
279.869
280.706
281.584
282.502
283.449
284.393
273.267
273.808
274.367
274.945
275.544
276.166
276.813
277.487
278.186
278.913
279.665
280.442
281.238
282.043
282.837
283.578
273.264
273.798
274.35
274.919
275.508
276.118
276.75
277.403
278.078
278.773
279.484
280.208
280.934
281.65
282.331
282.943
273.261
273.79
274.336
274.898
275.479
276.079
276.698
277.335
277.989
278.657
279.334
280.014
280.685
281.333
281.936
282.465
273.259
273.785
274.326
274.884
275.459
276.051
276.661
277.285
277.923
278.57
279.221
279.868
280.499
281.099
281.649
282.125
273.258
273.782
274.321
274.877
275.449
276.036
276.639
277.255
277.882
278.515
279.148
279.773
280.377
280.947
281.464
281.908
273.258
273.782
274.321
274.876
275.446
276.032
276.631
277.243
277.865
278.491
279.115
279.729
280.32
280.874
281.375
281.804
273.278
273.844
274.429
275.037
275.671
276.336
277.035
277.772
278.552
279.382
280.267
281.219
282.25
283.381
284.642
286.058
273.274
273.831
274.406
275.003
275.625
276.273
276.952
277.665
278.414
279.204
280.036
280.916
281.846
282.83
283.86
284.901
273.27
273.819
274.385
274.972
275.581
276.215
276.876
277.565
278.285
279.035
279.817
280.629
281.467
282.323
283.175
283.978
273.267
273.808
274.367
274.945
275.543
276.164
276.808
277.477
278.17
278.886
279.622
280.375
281.135
281.889
282.613
283.265
273.264
273.8
274.352
274.923
275.513
276.123
276.754
277.405
278.075
278.761
279.46
280.165
280.864
281.541
282.175
282.732
273.262
273.794
274.342
274.908
275.491
276.094
276.714
277.351
278.004
278.668
279.338
280.006
280.66
281.284
281.858
282.355
273.261
273.791
274.337
274.9
275.48
276.077
276.691
277.319
277.96
278.609
279.259
279.903
280.527
281.117
281.654
282.115
273.261
273.791
274.337
274.899
275.477
276.072
276.682
277.306
277.941
278.582
279.223
279.854
280.464
281.038
281.557
282.001
273.282
273.855
274.448
275.065
275.71
276.387
277.1
277.856
278.658
279.514
280.433
281.425
282.505
283.695
285.022
286.499
273.278
273.841
274.424
275.03
275.661
276.321
277.014
277.744
278.513
279.326
280.188
281.103
282.076
283.108
284.193
285.286
273.273
273.829
274.403
274.997
275.616
276.261
276.934
277.639
278.376
279.148
279.956
280.798
281.671
282.567
283.461
284.304
273.27
273.818
274.384
274.969
275.576
276.207
276.863
277.546
278.255
278.99
279.749
280.527
281.316
282.102
282.858
283.54
273.267
273.809
274.368
274.946
275.544
276.164
276.806
277.469
278.154
278.858
279.577
280.303
281.026
281.729
282.388
282.968
273.265
273.803
274.358
274.93
275.522
276.133
276.764
277.413
278.079
278.759
279.446
280.133
280.808
281.453
282.047
282.562
273.264
273.8
274.353
274.922
275.51
276.116
276.739
277.379
278.032
278.696
279.362
280.023
280.666
281.274
281.828
282.304
273.264
273.8
274.352
274.921
275.507
276.11
276.73
277.365
278.012
278.667
279.323
279.971
280.598
281.189
281.723
282.181
273.285
273.865
274.465
275.09
275.744
276.432
277.159
277.93
278.751
279.629
280.575
281.598
282.713
283.94
285.298
286.787
273.281
273.851
274.441
275.054
275.694
276.364
277.069
277.813
278.6
279.433
280.319
281.262
282.266
283.331
284.447
285.563
273.276
273.838
274.418
275.02
275.647
276.301
276.986
277.704
278.457
279.248
280.076
280.943
281.843
282.767
283.689
284.555
273.273
273.827
274.398
274.991
275.606
276.246
276.912
277.607
278.33
279.082
279.859
280.659
281.471
282.281
283.06
283.763
273.27
273.817
274.383
274.967
275.573
276.201
276.852
277.527
278.225
278.944
279.679
280.423
281.166
281.89
282.568
283.165
273.268
273.811
274.372
274.951
275.549
276.169
276.809
277.468
278.147
278.84
279.542
280.245
280.937
281.6
282.21
282.739
273.267
273.808
274.366
274.942
275.537
276.15
276.782
277.432
278.097
278.773
279.453
280.129
280.787
281.411
281.979
282.468
273.266
273.808
274.365
274.941
275.533
276.144
276.773
277.417
278.076
278.743
279.412
280.074
280.716
281.321
281.869
282.338
273.288
273.873
274.479
275.111
275.773
276.47
277.208
277.991
278.828
279.724
280.69
281.735
282.874
284.121
285.491
286.975
273.283
273.859
274.454
275.074
275.721
276.401
277.116
277.871
278.672
279.522
280.426
281.389
282.415
283.501
284.633
285.756
273.279
273.845
274.431
275.039
275.673
276.336
277.03
277.759
278.525
279.33
280.175
281.06
281.98
282.924
283.862
284.74
273.275
273.834
274.411
275.009
275.631
276.278
276.954
277.659
278.394
279.158
279.951
280.767
281.597
282.424
283.219
283.934
273.272
273.824
274.395
274.985
275.597
276.232
276.892
277.576
278.285
279.015
279.764
280.523
281.281
282.02
282.712
283.321
273.27
273.818
274.383
274.968
275.573
276.199
276.846
277.515
278.203
278.907
279.622
280.339
281.044
281.72
282.342
282.882
273.269
273.815
274.378
274.959
275.559
276.18
276.819
277.477
278.152
278.838
279.53
280.218
280.888
281.524
282.104
282.602
273.268
273.814
274.377
274.957
275.556
276.173
276.809
277.462
278.129
278.807
279.487
280.161
280.814
281.431
281.989
282.468
273.29
273.879
274.491
275.128
275.796
276.5
277.246
278.039
278.887
279.796
280.776
281.837
282.99
284.249
285.622
287.095
273.285
273.865
274.465
275.09
275.743
276.429
277.152
277.916
278.727
279.589
280.507
281.484
282.524
283.623
284.762
285.885
273.281
273.851
274.442
275.054
275.694
276.362
277.064
277.801
278.577
279.393
280.251
281.149
282.082
283.038
283.986
284.869
273.277
273.84
274.421
275.024
275.65
276.304
276.986
277.699
278.442
279.217
280.021
280.849
281.691
282.53
283.334
284.057
273.274
273.83
274.404
274.999
275.616
276.256
276.922
277.614
278.331
279.071
279.829
280.599
281.369
282.118
282.82
283.436
273.272
273.823
274.393
274.981
275.591
276.222
276.876
277.551
278.247
278.96
279.684
280.41
281.125
281.811
282.443
282.989
273.271
273.82
274.387
274.972
275.577
276.203
276.848
277.513
278.194
278.889
279.589
280.286
280.966
281.611
282.199
282.704
273.27
273.819
274.386
274.97
275.573
276.196
276.837
277.497
278.171
278.856
279.545
280.228
280.89
281.515
282.082
282.566
273.291
273.884
274.498
275.139
275.812
276.521
277.272
278.072
278.927
279.845
280.834
281.904
283.066
284.329
285.703
287.168
273.287
273.869
274.473
275.101
275.758
276.448
277.176
277.947
278.765
279.635
280.561
281.548
282.596
283.701
284.843
285.965
273.282
273.855
274.449
275.065
275.708
276.381
277.087
277.83
278.612
279.436
280.301
281.208
282.149
283.112
284.065
284.951
273.278
273.843
274.428
275.034
275.664
276.321
277.008
277.726
278.476
279.257
280.068
280.904
281.754
282.599
283.41
284.136
273.275
273.834
274.411
275.008
275.628
276.273
276.944
277.64
278.362
279.108
279.874
280.651
281.427
282.183
282.891
283.511
273.273
273.827
274.399
274.991
275.603
276.238
276.896
277.576
278.277
278.996
279.726
280.459
281.181
281.873
282.51
283.061
273.272
273.823
274.393
274.981
275.59
276.218
276.868
277.537
278.223
278.923
279.63
280.333
281.019
281.67
282.263
282.772
273.271
273.823
274.392
274.979
275.586
276.212
276.857
277.52
278.2
278.89
279.585
280.273
280.942
281.572
282.144
282.633
273.292
273.886
274.502
275.145
275.82
276.531
277.285
278.088
278.947
279.869
280.863
281.937
283.103
284.369
285.741
287.202
273.287
273.871
274.476
275.106
275.765
276.458
277.189
277.963
278.784
279.658
280.588
281.579
282.631
283.739
284.883
286.004
273.283
273.858
274.452
275.07
275.715
276.39
277.099
277.845
278.63
279.457
280.327
281.237
282.183
283.148
284.104
284.99
273.279
273.845
274.431
275.039
275.671
276.33
277.019
277.74
278.493
279.278
280.092
280.931
281.785
282.634
283.447
284.175
273.276
273.836
274.414
275.013
275.635
276.282
276.954
277.653
278.378
279.128
279.896
280.677
281.456
282.216
282.926
283.549
273.274
273.829
274.402
274.995
275.61
276.247
276.907
277.589
278.293
279.014
279.747
280.483
281.208
281.903
282.543
283.097
273.272
273.825
274.396
274.986
275.596
276.226
276.878
277.549
278.238
278.941
279.65
280.356
281.045
281.699
282.295
282.806
273.272
273.825
274.395
274.984
275.592
276.219
276.867
277.533
278.214
278.907
279.605
280.296
280.968
281.601
282.175
282.667
273.256
273.775
274.309
274.857
275.421
275.998
276.589
277.19
277.799
278.411
279.019
279.614
280.186
280.72
281.202
281.613
273.252
273.765
274.292
274.833
275.388
275.956
276.536
277.125
277.72
278.316
278.906
279.482
280.034
280.548
281.009
281.404
273.25
273.756
274.277
274.811
275.358
275.918
276.487
277.064
277.646
278.227
278.8
279.358
279.89
280.384
280.828
281.206
273.247
273.749
274.264
274.792
275.332
275.884
276.444
277.011
277.581
278.148
278.706
279.247
279.762
280.238
280.665
281.029
273.245
273.742
274.253
274.777
275.311
275.856
276.409
276.967
277.527
278.082
278.627
279.154
279.654
280.115
280.527
280.879
273.244
273.738
274.246
274.766
275.297
275.837
276.384
276.935
277.487
278.033
278.568
279.083
279.571
280.02
280.421
280.762
273.243
273.736
274.242
274.76
275.288
275.825
276.369
276.915
277.461
278.001
278.529
279.037
279.516
279.957
280.35
280.684
273.243
273.736
274.241
274.759
275.286
275.821
276.362
276.907
277.45
277.986
278.511
279.014
279.489
279.926
280.314
280.645
273.256
273.775
274.309
274.858
275.423
276.002
276.595
277.201
277.815
278.433
279.049
279.654
280.237
280.784
281.28
281.704
273.253
273.765
274.292
274.834
275.39
275.959
276.542
277.134
277.733
278.335
278.932
279.517
280.078
280.604
281.077
281.483
273.25
273.756
274.277
274.811
275.359
275.92
276.492
277.072
277.658
278.244
278.823
279.388
279.929
280.433
280.886
281.274
273.247
273.748
274.263
274.792
275.333
275.886
276.449
277.018
277.591
278.163
278.726
279.274
279.796
280.28
280.714
281.086
273.245
273.742
274.253
274.776
275.312
275.858
276.413
276.974
277.537
278.096
278.646
279.178
279.684
280.152
280.57
280.928
273.244
273.738
274.245
274.766
275.297
275.839
276.388
276.942
277.496
278.046
278.585
279.106
279.598
280.053
280.459
280.805
273.243
273.736
274.242
274.76
275.29
275.828
276.374
276.923
277.471
278.015
278.546
279.058
279.542
279.988
280.385
280.724
273.243
273.736
274.242
274.76
275.288
275.825
276.368
276.915
277.461
278.001
278.528
279.036
279.516
279.957
280.349
280.684
273.257
273.777
274.313
274.864
275.432
276.016
276.615
277.228
277.852
278.482
279.114
279.739
280.345
280.919
281.443
281.894
273.253
273.767
274.296
274.839
275.398
275.972
276.559
277.159
277.767
278.38
278.991
279.593
280.174
280.722
281.219
281.647
273.25
273.758
274.28
274.816
275.367
275.931
276.508
277.095
277.688
278.284
278.876
279.455
280.013
280.535
281.007
281.413
273.248
273.75
274.266
274.797
275.34
275.896
276.463
277.039
277.619
278.199
278.773
279.333
279.869
280.368
280.818
281.204
273.246
273.744
274.256
274.781
275.319
275.868
276.427
276.993
277.562
278.13
278.689
279.231
279.749
280.229
280.66
281.029
273.244
273.74
274.248
274.77
275.304
275.849
276.402
276.961
277.521
278.078
278.625
279.154
279.657
280.122
280.539
280.894
273.244
273.738
274.245
274.765
275.297
275.839
276.388
276.941
277.496
278.045
278.584
279.105
279.597
280.052
280.458
280.805
273.244
273.738
274.246
274.765
275.296
275.836
276.383
276.934
277.485
278.032
278.566
279.082
279.57
280.019
280.42
280.761
273.258
273.782
274.321
274.877
275.45
276.041
276.649
277.273
277.911
278.561
279.216
279.87
280.511
281.127
281.695
282.191
273.255
273.772
274.304
274.851
275.415
275.995
276.591
277.2
277.822
278.451
279.083
279.71
280.321
280.903
281.437
281.9
273.252
273.763
274.288
274.828
275.383
275.953
276.537
277.133
277.738
278.349
278.958
279.559
280.141
280.692
281.193
281.626
273.249
273.755
274.274
274.807
275.355
275.917
276.491
277.074
277.665
278.258
278.848
279.425
279.981
280.503
280.976
281.383
273.247
273.748
274.263
274.791
275.333
275.888
276.453
277.027
277.605
278.184
278.756
279.314
279.848
280.347
280.796
281.181
273.246
273.744
274.255
274.78
275.318
275.868
276.427
276.992
277.561
278.128
278.687
279.23
279.747
280.227
280.658
281.027
273.245
273.742
274.252
274.776
275.311
275.857
276.412
276.972
277.535
278.094
278.644
279.176
279.681
280.149
280.568
280.925
273.245
273.742
274.253
274.776
275.31
275.855
276.408
276.965
277.524
278.08
278.625
279.151
279.651
280.112
280.524
280.876
273.261
273.789
274.334
274.896
275.477
276.076
276.696
277.335
277.992
278.666
279.351
280.043
280.733
281.405
282.039
282.603
273.257
273.779
274.316
274.869
275.44
276.029
276.635
277.258
277.896
278.547
279.205
279.865
280.516
281.145
281.73
282.246
273.254
273.769
274.299
274.845
275.406
275.984
276.578
277.187
277.807
278.436
279.068
279.697
280.312
280.899
281.441
281.912
273.251
273.761
274.285
274.823
275.377
275.946
276.529
277.124
277.728
278.337
278.946
279.547
280.13
280.682
281.185
281.62
273.249
273.754
274.273
274.807
275.354
275.916
276.489
277.073
277.663
278.256
278.846
279.423
279.979
280.501
280.974
281.381
273.248
273.75
274.266
274.795
275.339
275.895
276.461
277.036
277.616
278.196
278.77
279.33
279.865
280.365
280.815
281.2
273.247
273.748
274.262
274.79
275.331
275.884
276.446
277.015
277.588
278.159