/*--------------------------------*- C++ -*----------------------------------*\
| =========                 |                                                 |
| \\      /  F ield         | OpenFOAM: The Open Source CFD Toolbox           |
|  \\    /   O peration     | Version:  v1912                                 |
|   \\  /    A nd           | Website:  www.openfoam.com                      |
|    \\/     M anipulation  |                                                 |
\*---------------------------------------------------------------------------*/
FoamFile
{
    version     2.0;
    format      ascii;
    class       volVectorField;
    location    "0.96/solid";
    object      D;
}
// * * * * * * * * * * * * * * * * * * * * * * * * * * * * * * * * * * * * * //

dimensions      [0 1 0 0 0 0 0];


internalField   nonuniform List<vector> 
256
(
(3.18479e-08 4.38871e-08 3.5564e-08)
(4.58275e-09 2.59504e-08 3.26764e-08)
(-4.77716e-09 2.54683e-08 3.24038e-08)
(-3.0759e-08 4.19823e-08 3.4819e-08)
(5.32054e-08 3.48674e-08 7.10719e-08)
(1.12695e-08 2.34267e-08 6.71668e-08)
(-1.07975e-08 2.28481e-08 6.67379e-08)
(-5.09782e-08 3.30261e-08 6.98572e-08)
(5.66356e-08 1.60866e-08 9.19524e-08)
(1.2889e-08 1.14505e-08 8.76116e-08)
(-1.15607e-08 1.09177e-08 8.71373e-08)
(-5.35448e-08 1.45154e-08 9.05808e-08)
(5.59687e-08 -1.75855e-09 1.08525e-07)
(1.25714e-08 -4.17178e-09 1.03564e-07)
(-1.04573e-08 -4.63471e-09 1.03058e-07)
(-5.20858e-08 -3.10821e-09 1.07048e-07)
(5.66991e-08 -1.94185e-08 1.24837e-07)
(1.26843e-08 -2.25654e-08 1.19157e-07)
(-9.88858e-09 -2.29612e-08 1.18614e-07)
(-5.21068e-08 -2.05695e-08 1.23243e-07)
(6.1857e-08 -3.96057e-08 1.43066e-07)
(1.45547e-08 -4.42328e-08 1.3675e-07)
(-1.12051e-08 -4.45618e-08 1.36159e-07)
(-5.66846e-08 -4.05505e-08 1.41329e-07)
(7.40706e-08 -7.0134e-08 1.64261e-07)
(1.88713e-08 -7.35002e-08 1.58022e-07)
(-1.51729e-08 -7.37228e-08 1.57372e-07)
(-6.85035e-08 -7.07628e-08 1.62352e-07)
(9.06447e-08 -1.34924e-07 1.84296e-07)
(2.34764e-08 -1.30547e-07 1.79447e-07)
(-1.98195e-08 -1.30342e-07 1.78734e-07)
(-8.49454e-08 -1.34368e-07 1.82217e-07)
(2.20735e-08 1.95568e-08 8.45586e-09)
(2.49981e-09 4.78339e-09 1.0034e-08)
(-2.48608e-09 4.50412e-09 1.00209e-08)
(-2.08593e-08 1.81577e-08 8.41227e-09)
(3.73424e-08 1.21585e-08 3.10471e-08)
(7.24976e-09 2.57474e-09 3.41297e-08)
(-6.33305e-09 2.11714e-09 3.40423e-08)
(-3.48339e-08 1.05985e-08 3.07904e-08)
(3.94305e-08 -1.45404e-09 5.03383e-08)
(8.40932e-09 -5.43729e-09 5.38788e-08)
(-6.49996e-09 -5.91793e-09 5.37483e-08)
(-3.59583e-08 -2.91586e-09 4.99506e-08)
(3.84e-08 -1.63197e-08 6.63406e-08)
(8.064e-09 -1.85171e-08 6.98517e-08)
(-5.2714e-09 -1.89573e-08 6.96938e-08)
(-3.4053e-08 -1.76322e-08 6.58628e-08)
(3.88414e-08 -3.2249e-08 8.13077e-08)
(8.17614e-09 -3.53495e-08 8.46042e-08)
(-4.61654e-09 -3.5734e-08 8.4416e-08)
(-3.37005e-08 -3.33927e-08 8.07317e-08)
(4.38533e-08 -5.0105e-08 9.65881e-08)
(1.00643e-08 -5.48373e-08 9.96332e-08)
(-5.86636e-09 -5.51636e-08 9.94061e-08)
(-3.80379e-08 -5.10657e-08 9.58904e-08)
(5.65642e-08 -7.48174e-08 1.1121e-07)
(1.45309e-08 -7.81574e-08 1.14131e-07)
(-9.89661e-09 -7.83963e-08 1.13861e-07)
(-5.02469e-08 -7.5509e-08 1.10379e-07)
(7.45759e-08 -1.27786e-07 1.19495e-07)
(1.93606e-08 -1.2203e-07 1.22442e-07)
(-1.4678e-08 -1.2188e-07 1.2215e-07)
(-6.80108e-08 -1.27377e-07 1.18587e-07)
(1.50693e-08 1.17695e-08 4.11643e-09)
(6.29514e-10 -4.77854e-10 6.29268e-09)
(-5.71289e-10 -7.13833e-10 6.29175e-09)
(-1.38522e-08 1.04769e-08 4.11427e-09)
(2.55225e-08 5.97773e-10 1.92656e-08)
(3.48148e-09 -7.26542e-09 2.33959e-08)
(-2.43195e-09 -7.67914e-09 2.3359e-08)
(-2.29411e-08 -8.73292e-10 1.91656e-08)
(2.66451e-08 -1.29129e-08 3.56733e-08)
(4.17343e-09 -1.62849e-08 4.04071e-08)
(-2.03982e-09 -1.67435e-08 4.03353e-08)
(-2.30182e-08 -1.43439e-08 3.54718e-08)
(2.55385e-08 -2.62133e-08 5.07094e-08)
(3.81843e-09 -2.83118e-08 5.55251e-08)
(-7.15198e-10 -2.87499e-08 5.54249e-08)
(-2.09568e-08 -2.7545e-08 5.04192e-08)
(2.5972e-08 -3.97255e-08 6.43957e-08)
(3.95774e-09 -4.29095e-08 6.91267e-08)
(-7.58777e-12 -4.33062e-08 6.89976e-08)
(-2.05154e-08 -4.09246e-08 6.40136e-08)
(3.10918e-08 -5.38881e-08 7.67724e-08)
(5.88846e-09 -5.87777e-08 8.13633e-08)
(-1.22402e-09 -5.91284e-08 8.12021e-08)
(-2.48745e-08 -5.49363e-08 7.6288e-08)
(4.42064e-08 -7.31265e-08 8.61919e-08)
(1.04801e-08 -7.6592e-08 9.06217e-08)
(-5.30495e-09 -7.68697e-08 9.04326e-08)
(-3.73936e-08 -7.3941e-08 8.56127e-08)
(6.27382e-08 -1.1946e-07 8.89317e-08)
(1.54602e-08 -1.13636e-07 9.3245e-08)
(-1.01588e-08 -1.13538e-07 9.30518e-08)
(-5.55776e-08 -1.19199e-07 8.83221e-08)
(1.18331e-08 9.21863e-09 3.6086e-09)
(-1.89041e-10 -1.50915e-09 5.04137e-09)
(2.54215e-10 -1.74159e-09 5.03682e-09)
(-1.06378e-08 7.94278e-09 3.60215e-09)
(1.99271e-08 -4.05737e-09 1.49094e-08)
(1.70558e-09 -1.086e-08 1.76405e-08)
(-6.25911e-10 -1.12699e-08 1.76155e-08)
(-1.73506e-08 -5.52705e-09 1.48517e-08)
(2.07066e-08 -1.85568e-08 2.79663e-08)
(2.18771e-09 -2.15639e-08 3.10823e-08)
(2.44963e-11 -2.20241e-08 3.10332e-08)
(-1.70352e-08 -2.00079e-08 2.78406e-08)
(1.98172e-08 -3.13912e-08 4.07252e-08)
(1.91468e-09 -3.34772e-08 4.38576e-08)
(1.33022e-09 -3.39263e-08 4.37844e-08)
(-1.51279e-08 -3.27692e-08 4.05263e-08)
(2.05114e-08 -4.31329e-08 5.22323e-08)
(2.16433e-09 -4.6421e-08 5.52696e-08)
(1.99437e-09 -4.68384e-08 5.51715e-08)
(-1.48783e-08 -4.44041e-08 5.19555e-08)
(2.58609e-08 -5.45738e-08 6.17317e-08)
(4.17518e-09 -5.96026e-08 6.46525e-08)
(7.63814e-10 -5.9983e-08 6.45294e-08)
(-1.9394e-08 -5.57177e-08 6.13741e-08)
(3.90906e-08 -7.07666e-08 6.78477e-08)
(8.79668e-09 -7.44757e-08 7.06647e-08)
(-3.28269e-09 -7.47898e-08 7.05228e-08)
(-3.19509e-08 -7.16938e-08 6.74225e-08)
(5.75153e-08 -1.14157e-07 6.88766e-08)
(1.37841e-08 -1.08934e-07 7.17033e-08)
(-8.07831e-09 -1.08874e-07 7.15623e-08)
(-4.99478e-08 -1.14011e-07 6.84371e-08)
(1.06123e-08 8.19661e-09 3.22517e-09)
(-3.9626e-10 -1.76471e-09 3.95213e-09)
(4.60976e-10 -1.99792e-09 3.94742e-09)
(-9.43631e-09 6.9277e-09 3.21849e-09)
(1.78866e-08 -5.69945e-09 1.18212e-08)
(1.20438e-09 -1.19915e-08 1.31912e-08)
(-1.22096e-10 -1.24069e-08 1.31736e-08)
(-1.53322e-08 -7.18415e-09 1.1785e-08)
(1.86969e-08 -2.06798e-08 2.16441e-08)
(1.67025e-09 -2.35477e-08 2.31741e-08)
(5.6792e-10 -2.40176e-08 2.3141e-08)
(-1.50227e-08 -2.21638e-08 2.15651e-08)
(1.81064e-08 -3.33675e-08 3.14703e-08)
(1.51355e-09 -3.55029e-08 3.29569e-08)
(1.7983e-09 -3.59669e-08 3.29061e-08)
(-1.33721e-08 -3.47954e-08 3.13388e-08)
(1.91017e-08 -4.41769e-08 4.0291e-08)
(1.88624e-09 -4.75619e-08 4.16789e-08)
(2.38953e-09 -4.8e-08 4.1609e-08)
(-1.33715e-08 -4.55144e-08 4.01005e-08)
(2.46369e-08 -5.42503e-08 4.72171e-08)
(3.96585e-09 -5.93766e-08 4.85183e-08)
(1.14317e-09 -5.97826e-08 4.84299e-08)
(-1.80157e-08 -5.54743e-08 4.69666e-08)
(3.78138e-08 -6.9183e-08 5.13268e-08)
(8.56446e-09 -7.30892e-08 5.25868e-08)
(-2.82782e-09 -7.34315e-08 5.24854e-08)
(-3.04596e-08 -7.01973e-08 5.10284e-08)
(5.59787e-08 -1.1123e-07 5.19721e-08)
(1.35095e-08 -1.06569e-07 5.32999e-08)
(-7.52848e-09 -1.06537e-07 5.32001e-08)
(-4.81354e-08 -1.11169e-07 5.16653e-08)
(1.01749e-08 7.73561e-09 2.52889e-09)
(-4.017e-10 -1.86357e-09 2.85563e-09)
(4.64416e-10 -2.09719e-09 2.85226e-09)
(-9.01213e-09 6.47219e-09 2.52415e-09)
(1.7256e-08 -6.17945e-09 8.66636e-09)
(1.16606e-09 -1.22641e-08 9.26037e-09)
(-8.80098e-11 -1.26845e-08 9.24903e-09)
(-1.47211e-08 -7.67595e-09 8.64427e-09)
(1.82141e-08 -2.11762e-08 1.54896e-08)
(1.68537e-09 -2.40247e-08 1.6122e-08)
(5.5927e-10 -2.45038e-08 1.6101e-08)
(-1.4548e-08 -2.26878e-08 1.54418e-08)
(1.78746e-08 -3.37389e-08 2.23192e-08)
(1.62879e-09 -3.59414e-08 2.28935e-08)
(1.71414e-09 -3.64184e-08 2.2861e-08)
(-1.31227e-08 -3.52072e-08 2.22374e-08)
(1.90959e-08 -4.41603e-08 2.84228e-08)
(2.09377e-09 -4.76195e-08 2.89201e-08)
(2.24712e-09 -4.80739e-08 2.88746e-08)
(-1.33128e-08 -4.55489e-08 2.83012e-08)
(2.47405e-08 -5.37427e-08 3.31167e-08)
(4.21618e-09 -5.8924e-08 3.3561e-08)
(9.96466e-10 -5.9349e-08 3.35028e-08)
(-1.80252e-08 -5.50254e-08 3.29542e-08)
(3.78266e-08 -6.82838e-08 3.58418e-08)
(8.78329e-09 -7.2297e-08 3.62796e-08)
(-2.90358e-09 -7.26593e-08 3.62127e-08)
(-3.03345e-08 -6.93597e-08 3.56471e-08)
(5.5765e-08 -1.09659e-07 3.63583e-08)
(1.36857e-08 -1.05339e-07 3.68599e-08)
(-7.52289e-09 -1.05326e-07 3.67942e-08)
(-4.77401e-08 -1.09657e-07 3.61581e-08)
(1.00035e-08 7.53136e-09 1.59941e-09)
(-3.76277e-10 -1.8986e-09 1.73442e-09)
(4.37126e-10 -2.13236e-09 1.73251e-09)
(-8.84867e-09 6.27161e-09 1.59676e-09)
(1.70614e-08 -6.25373e-09 5.29357e-09)
(1.21354e-09 -1.22629e-08 5.52651e-09)
(-1.40133e-10 -1.26863e-08 5.52026e-09)
(-1.45395e-08 -7.7571e-09 5.28174e-09)
(1.81461e-08 -2.11138e-08 9.30861e-09)
(1.78383e-09 -2.398e-08 9.53958e-09)
(4.60836e-10 -2.44653e-08 9.52809e-09)
(-1.44878e-08 -2.26433e-08 9.28305e-09)
(1.79693e-08 -3.35606e-08 1.33015e-08)
(1.79266e-09 -3.5817e-08 1.34901e-08)
(1.56386e-09 -3.63029e-08 1.34722e-08)
(-1.3211e-08 -3.50557e-08 1.32572e-08)
(1.9326e-08 -4.38503e-08 1.68564e-08)
(2.31286e-09 -4.73563e-08 1.69991e-08)
(2.0622e-09 -4.78218e-08 1.69737e-08)
(-1.35149e-08 -4.52725e-08 1.67893e-08)
(2.50251e-08 -5.33259e-08 1.95735e-08)
(4.45783e-09 -5.85327e-08 1.96899e-08)
(8.136e-10 -5.89699e-08 1.96571e-08)
(-1.82559e-08 -5.46466e-08 1.94829e-08)
(3.80406e-08 -6.77978e-08 2.11555e-08)
(9.00246e-09 -7.18548e-08 2.1276e-08)
(-3.0381e-09 -7.22297e-08 2.12382e-08)
(-3.04663e-08 -6.89128e-08 2.10462e-08)
(5.58281e-08 -1.08836e-07 2.15069e-08)
(1.38756e-08 -1.0468e-07 2.16671e-08)
(-7.60284e-09 -1.04679e-07 2.163e-08)
(-4.76929e-08 -1.08871e-07 2.13944e-08)
(9.93645e-09 7.45517e-09 5.45836e-10)
(-3.61812e-10 -1.90574e-09 5.82677e-10)
(4.21605e-10 -2.13954e-09 5.82069e-10)
(-8.78543e-09 6.19718e-09 5.44999e-10)
(1.69959e-08 -6.233e-09 1.77966e-09)
(1.24329e-09 -1.2218e-08 1.84076e-09)
(-1.72605e-10 -1.26428e-08 1.83878e-09)
(-1.44803e-08 -7.73943e-09 1.77595e-09)
(1.81446e-08 -2.09899e-08 3.10473e-09)
(1.83994e-09 -2.38711e-08 3.16187e-09)
(4.03759e-10 -2.43595e-08 3.15822e-09)
(-1.44908e-08 -2.25278e-08 3.0967e-09)
(1.80445e-08 -3.33685e-08 4.41607e-09)
(1.87957e-09 -3.5653e-08 4.45828e-09)
(1.48198e-09 -3.61433e-08 4.45255e-09)
(-1.32842e-08 -3.48766e-08 4.40204e-09)
(1.94623e-08 -4.36229e-08 5.581e-09)
(2.42464e-09 -4.71509e-08 5.60829e-09)
(1.96504e-09 -4.76217e-08 5.60015e-09)
(-1.36392e-08 -4.50616e-08 5.55962e-09)
(2.51834e-08 -5.30984e-08 6.47057e-09)
(4.57912e-09 -5.83144e-08 6.49006e-09)
(7.18824e-10 -5.87576e-08 6.47953e-09)
(-1.83895e-08 -5.44376e-08 6.4415e-09)
(3.8163e-08 -6.75789e-08 6.9914e-09)
(9.11298e-09 -7.16492e-08 7.01348e-09)
(-3.10938e-09 -7.20302e-08 7.00132e-09)
(-3.05503e-08 -6.87128e-08 6.95623e-09)
(5.58768e-08 -1.08477e-07 7.11634e-09)
(1.39717e-08 -1.04383e-07 7.15147e-09)
(-7.64727e-09 -1.04388e-07 7.13953e-09)
(-4.76897e-08 -1.08529e-07 7.08013e-09)
)
;

boundaryField
{
    interface
    {
        type            solidTraction;
        traction        nonuniform List<vector> 
192
(
(37.7958 -0.349123 -2.5992)
(39.3968 -0.393076 -4.23054)
(41.1454 -0.18561 -4.88257)
(42.3842 0.251321 -5.10888)
(42.8926 0.658729 -5.11422)
(43.9567 1.37132 -5.02294)
(42.4748 1.9225 -4.67323)
(46.178 4.43531 -4.40672)
(36.8746 -0.256847 -1.27461)
(37.568 -0.324689 -2.21448)
(38.6391 -0.152273 -2.51853)
(39.4757 0.287172 -2.57248)
(39.6794 0.711423 -2.50248)
(40.5933 1.49096 -2.38312)
(38.806 2.09724 -2.15637)
(42.5663 4.72715 -1.98053)
(39.3668 -0.224047 -0.995777)
(39.9706 -0.290878 -1.70498)
(41.0211 -0.127708 -1.92856)
(41.8704 0.327165 -1.96254)
(42.0062 0.783939 -1.90253)
(42.8521 1.64244 -1.80555)
(40.6387 2.33121 -1.64516)
(44.1527 5.12777 -1.51458)
(39.6056 -0.172402 -0.600749)
(40.0313 -0.214931 -1.08734)
(40.8639 -0.048852 -1.23328)
(41.5772 0.406237 -1.24201)
(41.5798 0.875295 -1.18589)
(42.3364 1.76511 -1.10824)
(39.9642 2.48921 -1.00894)
(43.3885 5.31966 -0.934817)
(40.3748 -0.147556 -0.43588)
(40.7531 -0.166689 -0.788757)
(41.4869 0.0102285 -0.895955)
(42.1405 0.470521 -0.902059)
(42.0617 0.953698 -0.860662)
(42.7405 1.8703 -0.803156)
(40.201 2.62647 -0.735041)
(43.4704 5.49309 -0.683012)
(40.5892 -0.127918 -0.263019)
(40.9226 -0.127291 -0.492787)
(41.5704 0.0599474 -0.563638)
(42.1667 0.523271 -0.566217)
(42.0249 1.01395 -0.537397)
(42.6523 1.94309 -0.498672)
(40.0329 2.71532 -0.457696)
(43.2364 5.59817 -0.428557)
(40.8446 -0.118399 -0.153436)
(41.1626 -0.104201 -0.287197)
(41.7649 0.0914438 -0.328934)
(42.3301 0.557995 -0.330681)
(42.1493 1.05455 -0.314226)
(42.7396 1.99237 -0.291519)
(40.0581 2.77587 -0.268741)
(43.2034 5.67136 -0.251475)
(40.9101 -0.112619 -0.0450102)
(41.2169 -0.0913102 -0.0875397)
(41.794 0.108185 -0.101041)
(42.3415 0.575616 -0.10146)
(42.1432 1.0744 -0.096115)
(42.7153 2.01513 -0.0887232)
(40.015 2.8037 -0.082136)
(43.1307 5.70415 -0.0768631)
(3.5763 0.871211 12.8507)
(6.12322 1.11103 8.97806)
(7.28226 1.00851 4.89837)
(7.78966 0.788824 2.97101)
(8.00895 0.688721 2.26949)
(8.18448 0.729776 2.634)
(8.39685 0.878338 4.28837)
(9.29638 1.08007 5.6486)
(2.07107 0.521239 16.4048)
(3.98684 0.876558 15.5639)
(4.79008 0.853298 14.1355)
(5.11279 0.601625 13.5179)
(5.25686 0.412516 13.2618)
(5.43561 0.302553 13.4006)
(5.80997 0.320226 13.9142)
(6.9745 0.38643 14.1447)
(2.01853 0.388978 13.6531)
(3.93099 0.745093 13.0314)
(4.75687 0.751462 11.6844)
(5.09593 0.471499 11.0601)
(5.23574 0.218765 10.8095)
(5.39253 0.00320525 10.9418)
(5.72365 -0.111422 11.5199)
(6.85569 -0.138299 12.2042)
(2.13223 0.323703 13.8033)
(4.35562 0.670226 13.4654)
(5.39079 0.681622 12.2668)
(5.83218 0.375082 11.7539)
(6.01725 0.0886693 11.6067)
(6.22318 -0.18009 11.7608)
(6.53874 -0.37181 12.1982)
(7.74956 -0.551232 12.7653)
(-6.84747 0.668132 0.502233)
(-4.67597 0.987519 1.03465)
(-2.12485 0.863428 1.21719)
(-0.638744 0.41412 1.32516)
(0.0523465 0.145318 1.42637)
(1.64877 -0.244519 1.69118)
(1.4196 -0.221482 1.93038)
(9.75535 -2.36663 2.5469)
(-10.3082 0.271627 -0.327443)
(-9.91731 0.471348 -0.382693)
(-9.09435 0.439127 -0.485949)
(-8.45077 0.190331 -0.50877)
(-8.16687 0.124613 -0.452029)
(-6.65684 -0.0892936 -0.238331)
(-6.59945 0.148211 0.045705)
(1.45505 -1.78621 0.472901)
(-10.5677 0.157762 -0.222597)
(-10.2925 0.275034 -0.198808)
(-9.65852 0.279999 -0.187654)
(-9.01531 0.137947 -0.134649)
(-8.66443 0.195575 -0.0413127)
(-6.8568 0.0881249 0.143686)
(-6.52825 0.434204 0.341703)
(1.90971 -1.54123 0.59626)
(-11.7524 0.0775854 -0.231918)
(-11.6727 0.134583 -0.209455)
(-11.3444 0.166325 -0.171424)
(-10.8083 0.116044 -0.109372)
(-10.4557 0.277498 -0.0270977)
(-8.46797 0.264548 0.105547)
(-7.85156 0.679869 0.236965)
(0.700205 -1.26645 0.390971)
(-12.0345 0.0641867 -0.116404)
(-11.9471 0.0998029 -0.0569696)
(-11.6599 0.148242 0.0124267)
(-11.0877 0.146071 0.0823571)
(-10.6704 0.36146 0.151479)
(-8.55024 0.391304 0.237795)
(-7.8095 0.823144 0.307185)
(0.783749 -1.14585 0.380056)
(-12.4286 0.0601025 -0.0785792)
(-12.3444 0.0895999 -0.0287852)
(-12.0855 0.151301 0.0309562)
(-11.4958 0.179069 0.0851277)
(-11.037 0.427819 0.133815)
(-8.83861 0.483919 0.186995)
(-8.00116 0.920491 0.226222)
(0.617807 -1.05678 0.264486)
(-12.5485 0.0638329 -0.0314138)
(-12.4495 0.0944607 0.00573596)
(-12.1812 0.164223 0.0467474)
(-11.5652 0.205998 0.0812658)
(-11.0741 0.469823 0.110155)
(-8.83466 0.53649 0.137975)
(-7.94893 0.970042 0.156656)
(0.672772 -1.01583 0.171896)
(-12.6469 0.0650202 -0.0133415)
(-12.5453 0.0969367 -0.00178707)
(-12.2748 0.170984 0.0119216)
(-11.6489 0.219509 0.0233535)
(-11.1419 0.490279 0.0329722)
(-8.88414 0.562311 0.041901)
(-7.96746 0.994104 0.048375)
(0.65281 -0.993952 0.0532123)
(9.38027 -4.95661 -0.903486)
(8.5259 -3.25606 -0.701655)
(8.39181 -0.873493 -0.485733)
(8.34324 0.537918 -0.32548)
(8.37992 1.63671 -0.230635)
(8.40265 2.399 -0.144294)
(8.42834 2.88154 -0.0852875)
(8.43873 3.11229 -0.0262027)
(7.01924 -13.5931 -0.169191)
(5.86109 -13.2172 -0.0937274)
(5.50282 -12.2713 0.0152277)
(5.35681 -11.6291 0.0450527)
(5.31308 -11.0663 0.0507106)
(5.28619 -10.6631 0.0437897)
(5.27912 -10.3981 0.0276544)
(5.27444 -10.2597 0.0104791)
(6.90045 -11.6895 0.37955)
(5.75578 -10.8558 0.369331)
(5.43009 -9.85528 0.355382)
(5.30841 -9.22101 0.290578)
(5.2758 -8.65149 0.230796)
(5.25551 -8.28149 0.162275)
(5.25112 -8.02556 0.0970689)
(5.24695 -7.90928 0.0319602)
(7.75189 -12.31 0.799641)
(6.52564 -11.643 0.641314)
(6.20698 -10.8985 0.545813)
(6.04239 -10.3866 0.428348)
(5.99483 -9.8803 0.334419)
(5.95956 -9.57154 0.23093)
(5.94903 -9.34513 0.138677)
(5.94165 -9.2438 0.0451263)
)
;
        pressure        uniform 0;
        secondOrder     false;
        setEffectiveTraction false;
        relaxationFactor 1;
        value           nonuniform List<vector> 
192
(
(9.12981e-08 6.51504e-08 3.27862e-08)
(1.09041e-07 4.10643e-08 6.64335e-08)
(1.13685e-07 1.67774e-08 8.6939e-08)
(1.1484e-07 -1.74262e-09 1.03494e-07)
(1.17715e-07 -1.79463e-08 1.1983e-07)
(1.25585e-07 -3.52626e-08 1.38116e-07)
(1.41432e-07 -6.29368e-08 1.59463e-07)
(1.6493e-07 -1.30127e-07 1.79746e-07)
(7.11293e-08 3.44107e-08 4.261e-09)
(8.40786e-08 1.64977e-08 2.41261e-08)
(8.68578e-08 -1.18965e-09 4.28403e-08)
(8.71683e-08 -1.6467e-08 5.87326e-08)
(8.9504e-08 -3.08856e-08 7.36256e-08)
(9.72839e-08 -4.5674e-08 8.88964e-08)
(1.14351e-07 -6.71364e-08 1.03743e-07)
(1.41999e-07 -1.22739e-07 1.12518e-07)
(5.7708e-08 2.19174e-08 1.55618e-09)
(6.73023e-08 3.49167e-09 1.49115e-08)
(6.92146e-08 -1.29089e-08 3.0992e-08)
(6.93753e-08 -2.63815e-08 4.60633e-08)
(7.17101e-08 -3.83371e-08 5.98129e-08)
(7.97838e-08 -4.93292e-08 7.2274e-08)
(9.77113e-08 -6.52145e-08 8.18232e-08)
(1.26627e-07 -1.14252e-07 8.46663e-08)
(5.06746e-08 1.71587e-08 2.49425e-09)
(5.8456e-08 -1.83902e-09 1.30002e-08)
(6.01546e-08 -1.85843e-08 2.59791e-08)
(6.05704e-08 -3.14399e-08 3.8867e-08)
(6.32242e-08 -4.16218e-08 5.05146e-08)
(7.16583e-08 -4.99287e-08 6.01178e-08)
(8.99243e-08 -6.28526e-08 6.62494e-08)
(1.18868e-07 -1.08884e-07 6.71866e-08)
(4.72272e-08 1.53213e-08 2.81054e-09)
(5.43333e-08 -3.67833e-09 1.11533e-08)
(5.61355e-08 -2.06249e-08 2.10208e-08)
(5.69059e-08 -3.32663e-08 3.09845e-08)
(5.99222e-08 -4.25441e-08 3.99369e-08)
(6.86216e-08 -4.9572e-08 4.69368e-08)
(8.69231e-08 -6.13472e-08 5.10107e-08)
(1.15542e-07 -1.0595e-07 5.15344e-08)
(4.54982e-08 1.45933e-08 2.37664e-09)
(5.24463e-08 -4.16967e-09 8.45999e-09)
(5.44345e-08 -2.10216e-08 1.53518e-08)
(5.55008e-08 -3.35183e-08 2.22848e-08)
(5.87905e-08 -4.24436e-08 2.84788e-08)
(6.76436e-08 -4.90597e-08 3.32136e-08)
(8.58793e-08 -6.05273e-08 3.58984e-08)
(1.14172e-07 -1.04398e-07 3.63205e-08)
(4.46135e-08 1.42976e-08 1.53976e-09)
(5.15483e-08 -4.2181e-09 5.22851e-09)
(5.3683e-08 -2.08869e-08 9.2912e-09)
(5.49409e-08 -3.32655e-08 1.33439e-08)
(5.83958e-08 -4.20861e-08 1.69479e-08)
(6.73256e-08 -4.86469e-08 1.96842e-08)
(8.54923e-08 -6.00966e-08 2.12395e-08)
(1.13558e-07 -1.03598e-07 2.15348e-08)
(4.42284e-08 1.41882e-08 5.29078e-10)
(5.11677e-08 -4.18096e-09 1.76326e-09)
(5.33754e-08 -2.07277e-08 3.10436e-09)
(5.47237e-08 -3.3039e-08 4.43486e-09)
(5.82534e-08 -4.1838e-08 5.61505e-09)
(6.72141e-08 -4.84229e-08 6.51013e-09)
(8.53422e-08 -5.99051e-08 7.02199e-09)
(1.13295e-07 -1.03252e-07 7.12853e-09)
(3.25155e-08 7.05462e-08 9.60045e-08)
(5.45493e-08 4.89647e-08 1.27521e-07)
(5.80582e-08 2.54501e-08 1.49628e-07)
(5.72452e-08 6.46285e-09 1.68158e-07)
(5.77842e-08 -1.07831e-08 1.86703e-07)
(6.27545e-08 -2.97497e-08 2.0758e-07)
(7.49109e-08 -5.98265e-08 2.32201e-07)
(9.17091e-08 -1.29435e-07 2.58968e-07)
(3.79303e-09 5.09113e-08 8.6559e-08)
(1.01866e-08 3.71606e-08 1.17225e-07)
(1.1686e-08 2.05499e-08 1.37918e-07)
(1.12055e-08 3.7147e-09 1.55148e-07)
(1.11293e-08 -1.42688e-08 1.72558e-07)
(1.28288e-08 -3.45166e-08 1.92608e-07)
(1.71501e-08 -6.28258e-08 2.17761e-07)
(2.2087e-08 -1.24825e-07 2.4869e-07)
(-4.24117e-09 5.02538e-08 8.52124e-08)
(-1.01243e-08 3.65316e-08 1.15789e-07)
(-1.08176e-08 1.99979e-08 1.36406e-07)
(-9.58543e-09 3.23455e-09 1.53574e-07)
(-8.86632e-09 -1.46858e-08 1.70921e-07)
(-1.00594e-08 -3.48723e-08 1.90902e-07)
(-1.40895e-08 -6.30793e-08 2.15974e-07)
(-1.9126e-08 -1.24632e-07 2.46838e-07)
(-3.16034e-08 6.81514e-08 9.21716e-08)
(-5.26281e-08 4.69667e-08 1.23383e-07)
(-5.53268e-08 2.38132e-08 1.45224e-07)
(-5.376e-08 5.05735e-09 1.63554e-07)
(-5.36302e-08 -1.19992e-08 1.81912e-07)
(-5.80676e-08 -3.07732e-08 2.02589e-07)
(-6.98846e-08 -6.05409e-08 2.26992e-07)
(-8.66047e-08 -1.28912e-07 2.53647e-07)
(-8.47095e-08 6.24167e-08 3.1922e-08)
(-1.01264e-07 3.87227e-08 6.49963e-08)
(-1.04931e-07 1.47925e-08 8.52933e-08)
(-1.0517e-07 -3.46765e-09 1.01703e-07)
(-1.0722e-07 -1.94198e-08 1.1788e-07)
(-1.14405e-07 -3.64514e-08 1.35976e-07)
(-1.2975e-07 -6.36977e-08 1.57098e-07)
(-1.52939e-07 -1.2956e-07 1.77154e-07)
(-6.45438e-08 3.2081e-08 4.18552e-09)
(-7.62438e-08 1.43733e-08 2.3781e-08)
(-7.79742e-08 -3.111e-09 4.23189e-08)
(-7.72908e-08 -1.81967e-08 5.80805e-08)
(-7.87038e-08 -3.23965e-08 7.28337e-08)
(-8.56753e-08 -4.69291e-08 8.79378e-08)
(-1.02094e-07 -6.80157e-08 1.02602e-07)
(-1.29277e-07 -1.22373e-07 1.11245e-07)
(-5.12949e-08 1.96752e-08 1.55887e-09)
(-5.95627e-08 1.41826e-09 1.47948e-08)
(-6.03465e-08 -1.48399e-08 3.0741e-08)
(-5.9433e-08 -2.81707e-08 4.56879e-08)
(-6.07528e-08 -3.99451e-08 5.9308e-08)
(-6.79046e-08 -5.07168e-08 7.16271e-08)
(-8.50496e-08 -6.62652e-08 8.10387e-08)
(-1.1336e-07 -1.14082e-07 8.38064e-08)
(-4.44107e-08 1.49399e-08 2.49813e-09)
(-5.0847e-08 -3.9277e-09 1.29495e-08)
(-5.13674e-08 -2.05635e-08 2.58417e-08)
(-5.06444e-08 -3.33084e-08 3.86301e-08)
(-5.22057e-08 -4.33376e-08 5.01696e-08)
(-5.96263e-08 -5.14495e-08 5.96595e-08)
(-7.70012e-08 -6.40553e-08 6.5689e-08)
(-1.05226e-07 -1.08869e-07 6.65767e-08)
(-4.10672e-08 1.31198e-08 2.81204e-09)
(-4.68316e-08 -5.78753e-09 1.11276e-08)
(-4.74305e-08 -2.26538e-08 2.09433e-08)
(-4.70177e-08 -3.52081e-08 3.08376e-08)
(-4.88834e-08 -4.43535e-08 3.97092e-08)
(-5.64999e-08 -5.12022e-08 4.66244e-08)
(-7.38304e-08 -6.26673e-08 5.06243e-08)
(-1.01648e-07 -1.0605e-07 5.11134e-08)
(-3.94036e-08 1.24055e-08 2.37723e-09)
(-4.50166e-08 -6.29198e-09 8.44609e-09)
(-4.57893e-08 -2.30874e-08 1.53081e-08)
(-4.56448e-08 -3.55159e-08 2.21972e-08)
(-4.77442e-08 -4.43232e-08 2.83371e-08)
(-5.54655e-08 -5.07699e-08 3.30143e-08)
(-7.2675e-08 -6.19309e-08 3.56488e-08)
(-1.00109e-07 -1.04578e-07 3.60475e-08)
(-3.85569e-08 1.21187e-08 1.54008e-09)
(-4.41615e-08 -6.3473e-09 5.22155e-09)
(-4.5075e-08 -2.29754e-08 9.26875e-09)
(-4.51064e-08 -3.52989e-08 1.32976e-08)
(-4.73466e-08 -4.40112e-08 1.68709e-08)
(-5.51142e-08 -5.04086e-08 1.9574e-08)
(-7.22201e-08 -6.15534e-08 2.11001e-08)
(-9.93907e-08 -1.03828e-07 2.13819e-08)
(-3.81891e-08 1.20136e-08 5.29188e-10)
(-4.38009e-08 -6.31309e-09 1.76114e-09)
(-4.4785e-08 -2.28268e-08 3.09743e-09)
(-4.48997e-08 -3.50895e-08 4.42035e-09)
(-4.72033e-08 -4.37852e-08 5.59068e-09)
(-5.49872e-08 -5.02097e-08 6.47493e-09)
(-7.20379e-08 -6.13876e-08 6.97725e-09)
(-9.90781e-08 -1.03507e-07 7.07933e-09)
(9.19505e-08 -2.0967e-07 1.85256e-07)
(7.56616e-08 -1.95843e-07 1.15629e-07)
(6.38878e-08 -1.8418e-07 8.55245e-08)
(5.88473e-08 -1.76435e-07 6.68191e-08)
(5.74549e-08 -1.71718e-07 5.08477e-08)
(5.73169e-08 -1.68957e-07 3.57597e-08)
(5.74097e-08 -1.67427e-07 2.12113e-08)
(5.7467e-08 -1.66742e-07 7.02652e-09)
(2.23321e-08 -1.99861e-07 1.80179e-07)
(1.78852e-08 -1.81889e-07 1.18215e-07)
(1.39804e-08 -1.69708e-07 8.99709e-08)
(1.24641e-08 -1.62727e-07 6.99366e-08)
(1.23371e-08 -1.58828e-07 5.24012e-08)
(1.26032e-08 -1.56592e-07 3.63876e-08)
(1.28372e-08 -1.55329e-07 2.14283e-08)
(1.29504e-08 -1.54749e-07 7.07726e-09)
(-1.88631e-08 -1.98509e-07 1.79473e-07)
(-1.33403e-08 -1.80586e-07 1.17949e-07)
(-8.76723e-09 -1.68466e-07 8.98002e-08)
(-6.80803e-09 -1.6153e-07 6.98123e-08)
(-6.37759e-09 -1.57662e-07 5.23132e-08)
(-6.44239e-09 -1.55447e-07 3.63298e-08)
(-6.55429e-09 -1.54196e-07 2.13956e-08)
(-6.6099e-09 -1.53622e-07 7.06675e-09)
(-8.63418e-08 -2.05841e-07 1.83198e-07)
(-6.91376e-08 -1.92082e-07 1.14795e-07)
(-5.67196e-08 -1.80581e-07 8.49807e-08)
(-5.12333e-08 -1.72966e-07 6.64298e-08)
(-4.9536e-08 -1.6834e-07 5.05768e-08)
(-4.91958e-08 -1.6564e-07 3.55835e-08)
(-4.91654e-08 -1.64147e-07 2.11125e-08)
(-4.91645e-08 -1.6348e-07 6.99474e-09)
)
;
        gradient        nonuniform List<vector> 
192
(
(4.75601e-06 1.70106e-06 -2.22227e-07)
(4.46683e-06 4.95747e-07 -3.71073e-07)
(4.56394e-06 5.52632e-08 -4.01071e-07)
(4.70971e-06 1.2744e-09 -4.025e-07)
(4.88131e-06 1.17777e-07 -4.00626e-07)
(5.09827e-06 3.47447e-07 -3.96038e-07)
(5.38892e-06 5.75778e-07 -3.83802e-07)
(5.9428e-06 3.83775e-07 -3.64008e-07)
(3.92447e-06 1.18831e-06 -3.35589e-07)
(3.7389e-06 3.47137e-07 -5.53686e-07)
(3.79418e-06 2.11515e-08 -5.99842e-07)
(3.90147e-06 -1.17791e-08 -6.08637e-07)
(4.05301e-06 1.09075e-07 -6.14574e-07)
(4.27445e-06 3.54477e-07 -6.15336e-07)
(4.62291e-06 6.1448e-07 -5.9731e-07)
(5.39388e-06 4.03721e-07 -5.58155e-07)
(3.4111e-06 8.11834e-07 -2.0482e-07)
(3.34238e-06 2.31512e-07 -3.48327e-07)
(3.40556e-06 3.17409e-10 -3.74503e-07)
(3.50695e-06 -1.34561e-08 -3.71682e-07)
(3.65905e-06 1.11077e-07 -3.66624e-07)
(3.89536e-06 3.6471e-07 -3.59871e-07)
(4.28039e-06 6.32958e-07 -3.49494e-07)
(5.11108e-06 4.16685e-07 -3.41232e-07)
(3.10732e-06 6.35203e-07 -8.91479e-08)
(3.08231e-06 1.77467e-07 -1.52732e-07)
(3.15583e-06 -2.19792e-09 -1.5898e-07)
(3.26025e-06 -3.89872e-09 -1.48657e-07)
(3.41702e-06 1.20886e-07 -1.37423e-07)
(3.66379e-06 3.71607e-07 -1.29113e-07)
(4.0667e-06 6.33121e-07 -1.27865e-07)
(4.90818e-06 4.21842e-07 -1.35201e-07)
(2.92919e-06 5.69977e-07 -3.31703e-08)
(2.91573e-06 1.6169e-07 -5.34328e-08)
(2.99509e-06 4.39607e-09 -4.9863e-08)
(3.10396e-06 8.10203e-09 -3.88643e-08)
(3.26564e-06 1.30623e-07 -2.83211e-08)
(3.51878e-06 3.74268e-07 -2.24195e-08)
(3.92874e-06 6.26871e-07 -2.52884e-08)
(4.76503e-06 4.22415e-07 -3.50149e-08)
(2.82586e-06 5.48616e-07 -1.21804e-08)
(2.81523e-06 1.60782e-07 -1.65099e-08)
(2.89763e-06 1.23734e-08 -1.10239e-08)
(3.0101e-06 1.76443e-08 -2.74917e-09)
(3.17557e-06 1.37331e-07 4.47953e-09)
(3.43225e-06 3.7464e-07 7.75756e-09)
(3.84422e-06 6.20527e-07 4.5289e-09)
(4.67257e-06 4.20915e-07 -3.01881e-09)
(2.76881e-06 5.41297e-07 -4.77131e-09)
(2.75895e-06 1.62851e-07 -5.20516e-09)
(2.84296e-06 1.81588e-08 -1.39273e-09)
(2.95773e-06 2.36063e-08 3.39472e-09)
(3.12558e-06 1.4113e-07 7.32253e-09)
(3.38404e-06 3.74318e-07 8.85447e-09)
(3.79613e-06 6.16096e-07 6.72313e-09)
(4.61838e-06 4.1909e-07 2.23333e-09)
(2.74335e-06 5.38646e-07 -1.34064e-09)
(2.73375e-06 1.64163e-07 -1.31189e-09)
(2.81846e-06 2.09745e-08 -2.93998e-11)
(2.93433e-06 2.63601e-08 1.5034e-09)
(3.10329e-06 1.42791e-07 2.72422e-09)
(3.36246e-06 3.74041e-07 3.16462e-09)
(3.77434e-06 6.13906e-07 2.44684e-09)
(4.59344e-06 4.1796e-07 9.74453e-10)
(5.34073e-08 2.13273e-06 4.83524e-06)
(1.07515e-07 1.12778e-06 4.51595e-06)
(1.13815e-07 7.49079e-07 4.61405e-06)
(1.02122e-07 6.57712e-07 4.77064e-06)
(8.68107e-08 6.90835e-07 4.94923e-06)
(7.17955e-08 7.8848e-07 5.16109e-06)
(6.72304e-08 8.24599e-07 5.43523e-06)
(8.51528e-08 4.39103e-07 5.97379e-06)
(-6.31775e-08 1.99687e-06 4.31061e-06)
(-8.66272e-08 1.09872e-06 4.00463e-06)
(-9.62381e-08 7.27948e-07 4.02452e-06)
(-1.09273e-07 6.30919e-07 4.12677e-06)
(-1.24399e-07 6.63731e-07 4.27208e-06)
(-1.38069e-07 7.77301e-07 4.46868e-06)
(-1.37702e-07 8.5395e-07 4.77909e-06)
(-1.11154e-07 4.57787e-07 5.53946e-06)
(4.28791e-08 1.98284e-06 4.22469e-06)
(5.38586e-08 1.09468e-06 3.92407e-06)
(5.94456e-08 7.26415e-07 3.94152e-06)
(6.97498e-08 6.29541e-07 4.04125e-06)
(8.17807e-08 6.62029e-07 4.18458e-06)
(9.16514e-08 7.75161e-07 4.37941e-06)
(8.66763e-08 8.51481e-07 4.68817e-06)
(5.54868e-08 4.56815e-07 5.44838e-06)
(-6.75486e-08 2.09353e-06 4.5882e-06)
(-1.31993e-07 1.11524e-06 4.28208e-06)
(-1.42559e-07 7.43822e-07 4.37145e-06)
(-1.33932e-07 6.53245e-07 4.52049e-06)
(-1.21869e-07 6.85624e-07 4.69357e-06)
(-1.10645e-07 7.82184e-07 4.90078e-06)
(-1.10492e-07 8.17757e-07 5.17123e-06)
(-1.32744e-07 4.36517e-07 5.71441e-06)
(-4.31604e-06 1.63475e-06 -2.31762e-07)
(-4.02283e-06 4.55729e-07 -3.8887e-07)
(-4.11091e-06 2.21628e-08 -4.22995e-07)
(-4.24672e-06 -2.87549e-08 -4.27604e-07)
(-4.40905e-06 9.19763e-08 -4.29042e-07)
(-4.61763e-06 3.27929e-07 -4.28234e-07)
(-4.89974e-06 5.65213e-07 -4.20352e-07)
(-5.4395e-06 3.84663e-07 -4.05031e-07)
(-3.49476e-06 1.11387e-06 -3.3814e-07)
(-3.3128e-06 3.01986e-07 -5.60748e-07)
(-3.36128e-06 -1.56112e-08 -6.10538e-07)
(-3.45902e-06 -4.51528e-08 -6.22587e-07)
(-3.60026e-06 7.9698e-08 -6.31834e-07)
(-3.81099e-06 3.30927e-07 -6.36205e-07)
(-4.14778e-06 5.99459e-07 -6.22197e-07)
(-4.90132e-06 4.00325e-07 -5.8735e-07)
(-2.99541e-06 7.35867e-07 -2.04432e-07)
(-2.92973e-06 1.83324e-07 -3.49668e-07)
(-2.98626e-06 -3.96814e-08 -3.78464e-07)
(-3.07809e-06 -5.00546e-08 -3.78505e-07)
(-3.21899e-06 7.83551e-08 -3.76446e-07)
(-3.44241e-06 3.37564e-07 -3.72876e-07)
(-3.81248e-06 6.14067e-07 -3.65916e-07)
(-4.62256e-06 4.09338e-07 -3.61253e-07)
(-2.70183e-06 5.5977e-07 -8.83213e-08)
(-2.67971e-06 1.27948e-07 -1.52179e-07)
(-2.74658e-06 -4.44527e-08 -1.59913e-07)
(-2.84132e-06 -4.31373e-08 -1.51697e-07)
(-2.9862e-06 8.53254e-08 -1.42879e-07)
(-3.21859e-06 3.41456e-07 -1.37174e-07)
(-3.60402e-06 6.11083e-07 -1.38678e-07)
(-4.42229e-06 4.1134e-07 -1.48838e-07)
(-2.53047e-06 4.95371e-07 -3.25158e-08)
(-2.51995e-06 1.11729e-07 -5.25905e-08)
(-2.59262e-06 -3.9202e-08 -4.97434e-08)
(-2.69165e-06 -3.30229e-08 -4.01031e-08)
(-2.84095e-06 9.28772e-08 -3.13082e-08)
(-3.07874e-06 3.41766e-07 -2.73734e-08)
(-3.46967e-06 6.02405e-07 -3.23244e-08)
(-4.28099e-06 4.09523e-07 -4.41491e-08)
(-2.43132e-06 4.74666e-07 -1.17538e-08)
(-2.42363e-06 1.10718e-07 -1.58542e-08)
(-2.4993e-06 -3.19674e-08 -1.06974e-08)
(-2.60177e-06 -2.4703e-08 -3.22079e-09)
(-2.75451e-06 9.80551e-08 2.87032e-09)
(-2.99523e-06 3.4044e-07 4.80529e-09)
(-3.38724e-06 5.94309e-07 1.37269e-10)
(-4.18953e-06 4.06326e-07 -8.84691e-09)
(-2.37666e-06 4.67765e-07 -4.53435e-09)
(-2.36976e-06 1.12784e-07 -4.81572e-09)
(-2.44698e-06 -2.65698e-08 -1.14428e-09)
(-2.55164e-06 -1.94557e-08 3.23134e-09)
(-2.70653e-06 1.00903e-07 6.52935e-09)