/*--------------------------------*- C++ -*----------------------------------*\
| =========                 |                                                 |
| \\      /  F ield         | OpenFOAM: The Open Source CFD Toolbox           |
|  \\    /   O peration     | Version:  v1912                                 |
|   \\  /    A nd           | Website:  www.openfoam.com                      |
|    \\/     M anipulation  |                                                 |
\*---------------------------------------------------------------------------*/
FoamFile
{
    version     2.0;
    format      ascii;
    class       volSymmTensorField;
    location    "0.96/solid";
    object      epsilon;
}
// * * * * * * * * * * * * * * * * * * * * * * * * * * * * * * * * * * * * * //

dimensions      [0 0 0 0 0 0 0];


internalField   nonuniform List<symmTensor> 
256
(
(-2.92331e-06 2.459e-07 -8.4416e-08 1.57509e-06 2.89873e-07 -2.95978e-06)
(-7.32502e-07 -2.56661e-08 -3.66372e-08 9.87542e-07 2.87544e-07 -2.60815e-06)
(-7.06835e-07 4.57201e-09 3.36174e-08 9.66328e-07 2.86066e-07 -2.56e-06)
(-2.67766e-06 -2.43544e-07 8.20962e-08 1.50017e-06 2.85134e-07 -2.82224e-06)
(-3.07213e-06 9.53193e-09 -1.31791e-07 -5.5601e-07 5.48488e-08 -3.05847e-06)
(-1.28006e-06 -3.71307e-08 -6.18798e-08 -2.89997e-07 6.61536e-08 -2.66306e-06)
(-1.24495e-06 2.81588e-08 5.8084e-08 -2.91012e-07 6.63555e-08 -2.61595e-06)
(-2.81503e-06 -1.21461e-08 1.28417e-07 -5.49337e-07 5.45305e-08 -2.92238e-06)
(-3.1569e-06 -3.2544e-08 -1.43644e-07 -7.3252e-07 1.18564e-08 -3.1393e-06)
(-1.36393e-06 -3.86699e-08 -6.88873e-08 -5.5197e-07 1.31032e-08 -2.68692e-06)
(-1.32868e-06 3.40514e-08 6.54379e-08 -5.49657e-07 1.32425e-08 -2.63854e-06)
(-2.89514e-06 3.04421e-08 1.40191e-07 -7.22687e-07 1.16382e-08 -2.99833e-06)
(-3.2228e-06 -2.38156e-08 -1.50206e-07 -7.10103e-07 1.8811e-08 -3.22901e-06)
(-1.32852e-06 -3.08082e-08 -7.24255e-08 -6.8032e-07 1.42724e-08 -2.73763e-06)
(-1.29314e-06 2.7357e-08 6.92633e-08 -6.77578e-07 1.41567e-08 -2.68791e-06)
(-2.95593e-06 2.24562e-08 1.46807e-07 -7.01699e-07 1.80685e-08 -3.08395e-06)
(-3.32095e-06 -2.02951e-09 -1.56927e-07 -7.56943e-07 4.43989e-08 -3.34521e-06)
(-1.33175e-06 -1.55939e-08 -7.62158e-08 -8.01221e-07 3.80895e-08 -2.8271e-06)
(-1.29582e-06 1.24814e-08 7.31315e-08 -7.98541e-07 3.77776e-08 -2.77625e-06)
(-3.04889e-06 9.23259e-10 1.53557e-07 -7.48846e-07 4.31735e-08 -3.19701e-06)
(-3.49518e-06 4.05816e-08 -1.62142e-07 -1.01431e-06 9.21225e-08 -3.51012e-06)
(-1.46124e-06 1.23097e-08 -7.9456e-08 -1.0187e-06 8.82784e-08 -2.97668e-06)
(-1.42479e-06 -1.60204e-08 7.62649e-08 -1.01523e-06 8.77722e-08 -2.92477e-06)
(-3.2184e-06 -4.18716e-08 1.58765e-07 -1.00387e-06 9.03957e-08 -3.35916e-06)
(-3.79844e-06 1.1027e-07 -1.5831e-07 -1.90636e-06 1.59311e-07 -3.77864e-06)
(-1.78487e-06 5.33291e-08 -7.78678e-08 -1.72628e-06 1.66914e-07 -3.26737e-06)
(-1.7475e-06 -5.87711e-08 7.43951e-08 -1.71561e-06 1.66136e-07 -3.21431e-06)
(-3.51648e-06 -1.11705e-07 1.549e-07 -1.87635e-06 1.5698e-07 -3.62507e-06)
(-4.31477e-06 1.39685e-07 -1.39459e-07 -4.28564e-06 1.81148e-07 -4.2829e-06)
(-2.20928e-06 6.89811e-08 -6.89914e-08 -3.91351e-06 1.99614e-07 -3.90983e-06)
(-2.16844e-06 -6.55502e-08 6.52424e-08 -3.85904e-06 1.98824e-07 -3.85586e-06)
(-4.02227e-06 -1.3644e-07 1.3611e-07 -4.13102e-06 1.79045e-07 -4.1298e-06)
(-2.35371e-06 1.49346e-07 -6.81078e-08 6.34306e-07 7.38534e-08 -6.28951e-07)
(-4.91191e-07 -5.3031e-08 -2.38823e-08 1.47163e-07 1.77355e-07 -5.27674e-07)
(-4.67182e-07 4.55515e-08 2.58415e-08 1.32425e-07 1.7881e-07 -5.22241e-07)
(-2.11484e-06 -1.41929e-07 6.84469e-08 5.75124e-07 7.69727e-08 -6.14095e-07)
(-2.4713e-06 -9.0513e-09 -1.07581e-07 -4.20217e-07 7.6128e-08 -1.03613e-06)
(-8.73508e-07 -4.13185e-08 -4.79282e-08 -2.04414e-07 1.31527e-07 -8.75419e-07)
(-8.41673e-07 4.0099e-08 5.02629e-08 -2.08441e-07 1.32002e-07 -8.67579e-07)
(-2.22642e-06 9.32037e-09 1.07666e-07 -4.21471e-07 7.63893e-08 -1.01383e-06)
(-2.51751e-06 -3.45438e-08 -1.1454e-07 -5.69565e-07 6.29399e-08 -1.12558e-06)
(-9.1861e-07 -3.64964e-08 -5.30555e-08 -4.21837e-07 7.98652e-08 -9.44089e-07)
(-8.87352e-07 3.58309e-08 5.59273e-08 -4.21488e-07 7.99039e-08 -9.36041e-07)
(-2.2698e-06 3.39261e-08 1.14654e-07 -5.64615e-07 6.2131e-08 -1.10218e-06)
(-2.55745e-06 -2.49207e-08 -1.17032e-07 -6.159e-07 6.51464e-08 -1.15632e-06)
(-8.73428e-07 -2.87069e-08 -5.39973e-08 -5.98244e-07 6.58546e-08 -9.60772e-07)
(-8.42341e-07 2.76831e-08 5.75324e-08 -5.96322e-07 6.55249e-08 -9.52667e-07)
(-2.30514e-06 2.45393e-08 1.17333e-07 -6.09537e-07 6.34421e-08 -1.13257e-06)
(-2.63981e-06 -3.74043e-09 -1.20662e-07 -6.75705e-07 9.94044e-08 -1.20883e-06)
(-8.69158e-07 -1.48464e-08 -5.61833e-08 -7.26404e-07 9.43746e-08 -1.00061e-06)
(-8.37533e-07 1.36179e-08 6.0084e-08 -7.24126e-07 9.36728e-08 -9.92329e-07)
(-2.38181e-06 3.48894e-09 1.21112e-07 -6.68668e-07 9.67252e-08 -1.18458e-06)
(-2.813e-06 4.12861e-08 -1.23367e-07 -8.51367e-07 1.56196e-07 -1.32588e-06)
(-9.94393e-07 1.29614e-08 -5.8482e-08 -8.56158e-07 1.49815e-07 -1.10773e-06)
(-9.62044e-07 -1.50842e-08 6.23819e-08 -8.53246e-07 1.48784e-07 -1.09915e-06)
(-2.54893e-06 -4.17533e-08 1.23893e-07 -8.42325e-07 1.52618e-07 -1.30082e-06)
(-3.15212e-06 1.20206e-07 -1.20105e-07 -1.55362e-06 1.99148e-07 -1.56138e-06)
(-1.32922e-06 5.71735e-08 -5.73993e-08 -1.34385e-06 1.97172e-07 -1.34801e-06)
(-1.29556e-06 -6.16326e-08 6.11661e-08 -1.33434e-06 1.95971e-07 -1.33879e-06)
(-2.88089e-06 -1.20991e-07 1.20732e-07 -1.52623e-06 1.95187e-07 -1.53479e-06)
(-3.80125e-06 1.5846e-07 -1.10057e-07 -3.78166e-06 1.60171e-07 -1.90728e-06)
(-1.78508e-06 7.78449e-08 -5.36142e-08 -3.27183e-06 1.6767e-07 -1.72404e-06)
(-1.74743e-06 -7.45307e-08 5.80577e-08 -3.2179e-06 1.66916e-07 -1.71364e-06)
(-3.51732e-06 -1.5506e-07 1.11213e-07 -3.62554e-06 1.57929e-07 -1.8779e-06)
(-1.99435e-06 8.04866e-08 -2.9436e-08 2.47345e-07 1.30438e-07 -9.69452e-08)
(-3.12812e-07 -8.37231e-08 -5.13537e-09 -1.54865e-07 2.3396e-07 -9.98525e-08)
(-2.89635e-07 7.95151e-08 5.61882e-09 -1.67859e-07 2.3405e-07 -9.96808e-08)
(-1.76332e-06 -7.20586e-08 2.93316e-08 1.92072e-07 1.3065e-07 -9.62025e-08)
(-2.11201e-06 -2.07522e-08 -4.57674e-08 -4.93646e-07 1.5341e-07 -3.22755e-07)
(-5.59089e-07 -4.73299e-08 -1.45075e-08 -3.16141e-07 2.06797e-07 -3.29783e-07)
(-5.28451e-07 4.92359e-08 1.47685e-08 -3.20592e-07 2.06564e-07 -3.28536e-07)
(-1.87505e-06 2.22291e-08 4.54818e-08 -4.96416e-07 1.5232e-07 -3.18773e-07)
(-2.15221e-06 -3.36407e-08 -4.6275e-08 -5.36222e-07 1.4341e-07 -4.4744e-07)
(-5.73698e-07 -3.49366e-08 -1.55962e-08 -4.20928e-07 1.60026e-07 -4.5593e-07)
(-5.43834e-07 3.65778e-08 1.58921e-08 -4.21415e-07 1.59597e-07 -4.54303e-07)
(-1.9127e-06 3.39176e-08 4.59806e-08 -5.33435e-07 1.41616e-07 -4.42201e-07)
(-2.18787e-06 -2.43511e-08 -4.475e-08 -5.36254e-07 1.3651e-07 -5.12308e-07)
(-5.25073e-07 -2.75226e-08 -1.43384e-08 -5.32492e-07 1.37596e-07 -5.19882e-07)
(-4.95505e-07 2.79899e-08 1.4957e-08 -5.31254e-07 1.36933e-07 -5.1819e-07)
(-1.94388e-06 2.45628e-08 4.45689e-08 -5.31614e-07 1.34048e-07 -5.0673e-07)
(-2.26981e-06 -4.07592e-09 -4.43333e-08 -5.53495e-07 1.51792e-07 -5.81508e-07)
(-5.19592e-07 -1.51059e-08 -1.40992e-08 -6.09319e-07 1.47667e-07 -5.86693e-07)
(-4.89464e-07 1.47614e-08 1.49774e-08 -6.07571e-07 1.46729e-07 -5.84889e-07)
(-2.01965e-06 4.22827e-09 4.4271e-08 -5.47825e-07 1.48575e-07 -5.75522e-07)
(-2.45175e-06 4.22701e-08 -4.4047e-08 -6.68019e-07 1.73274e-07 -6.97127e-07)
(-6.46316e-07 1.28205e-08 -1.45938e-08 -6.73649e-07 1.67297e-07 -6.99615e-07)
(-6.15259e-07 -1.45592e-08 1.55495e-08 -6.71271e-07 1.66156e-07 -6.97534e-07)
(-2.19422e-06 -4.24695e-08 4.4079e-08 -6.60329e-07 1.69471e-07 -6.90325e-07)
(-2.81472e-06 1.23569e-07 -4.30647e-08 -1.31144e-06 1.62102e-07 -8.67241e-07)
(-9.90228e-07 5.82846e-08 -1.49351e-08 -1.09717e-06 1.55635e-07 -8.69318e-07)
(-9.57475e-07 -6.28382e-08 1.6049e-08 -1.08818e-06 1.54562e-07 -8.66765e-07)
(-2.54801e-06 -1.24227e-07 4.32824e-08 -1.28525e-06 1.58492e-07 -8.59135e-07)
(-3.5011e-06 1.6238e-07 -4.21652e-08 -3.51545e-06 9.55407e-08 -1.01237e-06)
(-1.45794e-06 7.94324e-08 -1.45637e-08 -2.98377e-06 9.17152e-08 -1.01478e-06)
(-1.42075e-06 -7.63355e-08 1.67672e-08 -2.9305e-06 9.12275e-08 -1.01176e-06)
(-3.21966e-06 -1.58959e-07 4.30191e-08 -3.36042e-06 9.39247e-08 -1.003e-06)
(-1.7941e-06 5.1524e-08 -7.95544e-09 1.03225e-07 1.49451e-07 -1.78253e-08)
(-2.31579e-07 -9.44368e-08 4.02445e-09 -2.47383e-07 2.1395e-07 -4.6811e-08)
(-2.08976e-07 9.08023e-08 -4.06955e-09 -2.60231e-07 2.13682e-07 -4.68867e-08)
(-1.56876e-06 -4.30983e-08 7.73206e-09 4.83146e-08 1.49047e-07 -1.79156e-08)
(-1.90559e-06 -2.36581e-08 -1.08647e-08 -5.55509e-07 1.80605e-07 -1.48887e-07)
(-4.1106e-07 -4.83583e-08 4.28986e-09 -4.01096e-07 2.13149e-07 -2.04095e-07)
(-3.81124e-07 5.10322e-08 -4.78956e-09 -4.05651e-07 2.12686e-07 -2.03708e-07)
(-1.67435e-06 2.54426e-08 1.04058e-08 -5.59013e-07 1.79276e-07 -1.47612e-07)
(-1.9483e-06 -3.06203e-08 -8.57761e-09 -5.46676e-07 1.80488e-07 -2.80583e-07)
(-4.13643e-07 -3.25819e-08 5.63643e-09 -4.52343e-07 1.89542e-07 -3.44659e-07)
(-3.84458e-07 3.51222e-08 -6.33954e-09 -4.53127e-07 1.88947e-07 -3.43886e-07)
(-1.71448e-06 3.12768e-08 8.05114e-09 -5.44842e-07 1.78547e-07 -2.78134e-07)
(-1.98818e-06 -2.18373e-08 -5.8326e-09 -4.91521e-07 1.71118e-07 -3.84781e-07)
(-3.6974e-07 -2.55849e-08 7.54296e-09 -4.97141e-07 1.69963e-07 -4.51364e-07)
(-3.40851e-07 2.67788e-08 -8.17735e-09 -4.96286e-07 1.69213e-07 -4.50375e-07)
(-1.74982e-06 2.23563e-08 5.34307e-09 -4.87925e-07 1.68647e-07 -3.81607e-07)
(-2.07545e-06 -2.66546e-09 -3.97562e-09 -4.63652e-07 1.65552e-07 -4.82095e-07)
(-3.70341e-07 -1.44506e-08 8.67682e-09 -5.22508e-07 1.61426e-07 -5.48958e-07)
(-3.40852e-07 1.45044e-08 -9.16924e-09 -5.21134e-07 1.60512e-07 -5.47771e-07)
(-1.83055e-06 3.01342e-09 3.55981e-09 -4.58971e-07 1.62579e-07 -4.78261e-07)
(-2.26561e-06 4.26022e-08 -3.06347e-09 -5.52674e-07 1.52531e-07 -5.91106e-07)
(-5.01942e-07 1.22316e-08 8.75023e-09 -5.61094e-07 1.47963e-07 -6.56899e-07)
(-4.71384e-07 -1.39217e-08 -9.11161e-09 -5.59028e-07 1.46971e-07 -6.55444e-07)
(-2.01245e-06 -4.27096e-08 2.74171e-09 -5.45793e-07 1.4929e-07 -5.86429e-07)
(-2.63923e-06 1.21173e-07 -3.78923e-09 -1.19167e-06 1.10883e-07 -6.97302e-07)
(-8.47466e-07 5.5857e-08 7.59446e-09 -9.8662e-07 1.05537e-07 -7.60698e-07)
(-8.14952e-07 -6.06024e-08 -7.6507e-09 -9.77813e-07 1.04711e-07 -7.58943e-07)
(-2.37538e-06 -1.21806e-07 3.66847e-09 -1.16587e-06 1.08067e-07 -6.91686e-07)
(-3.32871e-06 1.57662e-07 -5.52677e-09 -3.35892e-06 5.14376e-08 -7.39192e-07)
(-1.31187e-06 7.631e-08 7.3502e-09 -2.84089e-06 4.57209e-08 -7.98903e-07)
(-1.27464e-06 -7.33268e-08 -6.35855e-09 -2.78795e-06 4.53977e-08 -7.97036e-07)
(-3.04853e-06 -1.54219e-07 5.96037e-09 -3.20454e-06 5.02959e-08 -7.33136e-07)
(-1.68477e-06 4.28818e-08 -1.02013e-09 4.99431e-08 1.35634e-07 -2.15942e-08)
(-2.03026e-07 -9.38641e-08 5.0959e-09 -2.75123e-07 1.67889e-07 -4.37146e-08)
(-1.80801e-07 9.03129e-08 -5.2344e-09 -2.88096e-07 1.67654e-07 -4.36913e-08)
(-1.46318e-06 -3.45863e-08 8.389e-10 -5.12892e-09 1.35329e-07 -2.15599e-08)
(-1.79151e-06 -2.24966e-08 3.46389e-10 -5.77528e-07 1.62969e-07 -1.24861e-07)
(-3.60174e-07 -4.64091e-08 8.12843e-09 -4.35661e-07 1.78179e-07 -1.67603e-07)
(-3.30732e-07 4.91425e-08 -8.6827e-09 -4.40394e-07 1.7779e-07 -1.67329e-07)
(-1.56418e-06 2.42954e-08 -7.38673e-10 -5.8183e-07 1.61978e-07 -1.24149e-07)
(-1.83808e-06 -2.75804e-08 2.84003e-09 -5.53362e-07 1.70297e-07 -2.49535e-07)
(-3.62579e-07 -3.02864e-08 9.94495e-09 -4.70228e-07 1.7305e-07 -2.99206e-07)
(-3.33859e-07 3.30432e-08 -1.07422e-08 -4.71201e-07 1.72528e-07 -2.98643e-07)
(-1.60812e-06 2.83395e-08 -3.32237e-09 -5.52224e-07 1.68739e-07 -2.47975e-07)
(-1.88384e-06 -1.93311e-08 5.15576e-09 -4.69942e-07 1.62991e-07 -3.68121e-07)
(-3.26162e-07 -2.38338e-08 1.14991e-08 -4.80284e-07 1.60405e-07 -4.19281e-07)
(-2.97712e-07 2.52913e-08 -1.23417e-08 -4.79647e-07 1.59759e-07 -4.18468e-07)
(-1.64923e-06 1.9972e-08 -5.64644e-09 -4.67013e-07 1.60974e-07 -3.65778e-07)
(-1.97713e-06 -1.20078e-09 6.80436e-09 -4.17656e-07 1.47194e-07 -4.76191e-07)
(-3.34242e-07 -1.37079e-08 1.2475e-08 -4.77475e-07 1.43629e-07 -5.2699e-07)
(-3.05155e-07 1.39233e-08 -1.32558e-08 -4.76314e-07 1.42883e-07 -5.25939e-07)
(-1.7357e-06 1.63826e-09 -7.25699e-09 -4.13578e-07 1.4483e-07 -4.73087e-07)
(-2.17281e-06 4.2292e-08 7.41292e-09 -5.00123e-07 1.18669e-07 -5.72302e-07)
(-4.69874e-07 1.14596e-08 1.25386e-08 -5.10545e-07 1.15865e-07 -6.21829e-07)
(-4.39631e-07 -1.31502e-08 -1.31906e-08 -5.08631e-07 1.15104e-07 -6.20531e-07)
(-1.92255e-06 -4.2356e-08 -7.78831e-09 -4.93658e-07 1.16201e-07 -5.68399e-07)
(-2.54936e-06 1.1764e-07 6.28275e-09 -1.1396e-06 7.23779e-08 -6.40117e-07)
(-8.12833e-07 5.29517e-08 1.14522e-08 -9.43851e-07 6.96026e-08 -6.87703e-07)
(-7.80481e-07 -5.77984e-08 -1.17931e-08 -9.35093e-07 6.90068e-08 -6.86202e-07)
(-2.28747e-06 -1.18254e-07 -6.48709e-09 -1.1139e-06 7.03269e-08 -6.35509e-07)
(-3.2319e-06 1.52181e-07 4.52829e-09 -3.26046e-06 2.89413e-08 -6.50366e-07)
(-1.27014e-06 7.29336e-08 1.12952e-08 -2.75994e-06 2.51058e-08 -6.96869e-07)
(-1.2329e-06 -6.99899e-08 -1.07923e-08 -2.70712e-06 2.48859e-08 -6.95362e-07)
(-2.95263e-06 -1.48709e-07 -4.30824e-09 -3.10628e-06 2.81396e-08 -6.45582e-07)
(-1.62446e-06 4.11631e-08 2.24034e-10 3.11232e-08 1.053e-07 -3.25152e-08)
(-1.9421e-07 -9.06843e-08 3.4335e-09 -2.82553e-07 1.19821e-07 -4.43543e-08)
(-1.72209e-07 8.71216e-08 -3.55337e-09 -2.95633e-07 1.19668e-07 -4.42981e-08)
(-1.40519e-06 -3.29723e-08 -3.43176e-10 -2.40753e-08 1.05123e-07 -3.24346e-08)
(-1.72941e-06 -2.06504e-08 1.81585e-09 -5.78236e-07 1.24064e-07 -1.30553e-07)
(-3.4688e-07 -4.41795e-08 5.91826e-09 -4.43223e-07 1.29949e-07 -1.53293e-07)
(-3.17744e-07 4.683e-08 -6.34137e-09 -4.48133e-07 1.29693e-07 -1.53066e-07)
(-1.50448e-06 2.2406e-08 -2.08416e-09 -5.83201e-07 1.23447e-07 -1.30065e-07)
(-1.77939e-06 -2.53921e-08 3.57163e-09 -5.51188e-07 1.32188e-07 -2.46711e-07)
(-3.53096e-07 -2.86487e-08 7.25003e-09 -4.73546e-07 1.32009e-07 -2.72691e-07)
(-3.24667e-07 3.13901e-08 -7.87266e-09 -4.74679e-07 1.31643e-07 -2.72258e-07)
(-1.5518e-06 2.61524e-08 -3.91747e-09 -5.50624e-07 1.31137e-07 -2.45642e-07)
(-1.82996e-06 -1.76179e-08 5.06023e-09 -4.59681e-07 1.27401e-07 -3.63376e-07)
(-3.23209e-07 -2.27118e-08 8.20929e-09 -4.71895e-07 1.2484e-07 -3.89336e-07)
(-2.95029e-07 2.4221e-08 -8.90555e-09 -4.71403e-07 1.24376e-07 -3.88679e-07)
(-1.59762e-06 1.82895e-08 -5.42968e-09 -4.57221e-07 1.25991e-07 -3.61634e-07)
(-1.92783e-06 -2.66133e-10 6.0965e-09 -4.00076e-07 1.11242e-07 -4.68692e-07)
(-3.36976e-07 -1.32631e-08 8.78383e-09 -4.59653e-07 1.08731e-07 -4.93595e-07)
(-3.08131e-07 1.35287e-08 -9.4624e-09 -4.58611e-07 1.08201e-07 -4.92707e-07)
(-1.68845e-06 7.39077e-10 -6.45024e-09 -3.96366e-07 1.09587e-07 -4.66224e-07)
(-2.12661e-06 4.18337e-08 6.38647e-09 -4.82472e-07 8.3435e-08 -5.5287e-07)
(-4.7488e-07 1.08323e-08 8.78162e-09 -4.9355e-07 8.20341e-08 -5.76569e-07)
(-4.44827e-07 -1.25211e-08 -9.36429e-09 -4.91706e-07 8.15084e-08 -5.75456e-07)
(-1.87805e-06 -4.18718e-08 -6.6867e-09 -4.76217e-07 8.17358e-08 -5.49675e-07)
(-2.50297e-06 1.14982e-07 5.51266e-09 -1.11834e-06 4.62683e-08 -6.03427e-07)
(-8.14604e-07 5.09414e-08 8.08873e-09 -9.28292e-07 4.53315e-08 -6.26217e-07)
(-7.82356e-07 -5.58212e-08 -8.4279e-09 -9.19539e-07 4.49315e-08 -6.24943e-07)
(-2.24224e-06 -1.15576e-07 -5.68922e-09 -1.09264e-06 4.48839e-08 -5.99645e-07)
(-3.17787e-06 1.48401e-07 4.26408e-09 -3.1994e-06 1.71351e-08 -6.09304e-07)
(-1.26576e-06 7.07097e-08 8.02036e-09 -2.71096e-06 1.52486e-08 -6.32656e-07)
(-1.22852e-06 -6.77688e-08 -7.7619e-09 -2.65817e-06 1.5105e-08 -6.314e-07)
(-2.89911e-06 -1.44902e-07 -4.14805e-09 -3.04524e-06 1.66028e-08 -6.05416e-07)
(-1.592e-06 4.10251e-08 1.58263e-10 2.55526e-08 6.61254e-08 -3.96611e-08)
(-1.91326e-07 -8.82646e-08 1.72991e-09 -2.8323e-07 7.21875e-08 -4.54591e-08)
(-1.69448e-07 8.46721e-08 -1.80469e-09 -2.96374e-07 7.21042e-08 -4.54038e-08)
(-1.37405e-06 -3.29012e-08 -2.24131e-10 -2.97098e-08 6.60349e-08 -3.9583e-08)
(-1.69643e-06 -1.93784e-08 1.02992e-09 -5.72904e-07 7.65565e-08 -1.37734e-07)
(-3.44032e-07 -4.27248e-08 3.03925e-09 -4.41628e-07 7.85131e-08 -1.48392e-07)
(-3.15062e-07 4.52951e-08 -3.29358e-09 -4.46659e-07 7.83728e-08 -1.48205e-07)
(-1.47287e-06 2.10966e-08 -1.18122e-09 -5.78298e-07 7.62281e-08 -1.37366e-07)
(-1.74872e-06 -2.41225e-08 1.96369e-09 -5.46138e-07 8.19428e-08 -2.47697e-07)
(-3.53704e-07 -2.77233e-08 3.74055e-09 -4.71082e-07 8.11717e-08 -2.59202e-07)
(-3.25433e-07 3.04067e-08 -4.12042e-09 -4.72332e-07 8.09624e-08 -2.58856e-07)
(-1.52246e-06 2.48633e-08 -2.16407e-09 -5.45972e-07 8.13544e-08 -2.46902e-07)
(-1.8024e-06 -1.66662e-08 2.737e-09 -4.54728e-07 7.91818e-08 -3.58062e-07)
(-3.28109e-07 -2.21327e-08 4.21421e-09 -4.67527e-07 7.74794e-08 -3.68705e-07)
(-3.00073e-07 2.36264e-08 -4.65128e-09 -4.67129e-07 7.72075e-08 -3.68168e-07)
(-1.57132e-06 1.7337e-08 -2.95721e-09 -4.52584e-07 7.83679e-08 -3.56708e-07)
(-1.90305e-06 2.14541e-10 3.26001e-09 -3.95305e-07 6.8094e-08 -4.56836e-07)
(-3.45276e-07 -1.30635e-08 4.48191e-09 -4.54313e-07 6.66829e-08 -4.66236e-07)
(-3.16556e-07 1.33356e-08 -4.91876e-09 -4.5334e-07 6.63718e-08 -4.65488e-07)
(-1.66481e-06 2.6948e-10 -3.47546e-09 -3.91817e-07 6.71303e-08 -4.54832e-07)
(-2.10336e-06 4.14984e-08 3.37867e-09 -4.78952e-07 4.94333e-08 -5.32922e-07)
(-4.8423e-07 1.04557e-08 4.4653e-09 -4.8997e-07 4.88653e-08 -5.4142e-07)
(-4.54274e-07 -1.21418e-08 -4.8462e-09 -4.88159e-07 4.85595e-08 -5.40466e-07)
(-1.85572e-06 -4.15217e-08 -3.56382e-09 -4.72806e-07 4.84467e-08 -5.30254e-07)
(-2.47883e-06 1.13436e-07 2.88754e-09 -1.11021e-06 2.63833e-08 -5.77008e-07)
(-8.21574e-07 4.9859e-08 4.12466e-09 -9.22949e-07 2.62498e-08 -5.85322e-07)
(-7.89375e-07 -5.47441e-08 -4.35616e-09 -9.14189e-07 2.60198e-08 -5.84228e-07)
(-2.21872e-06 -1.14013e-07 -2.99951e-09 -1.08449e-06 2.55853e-08 -5.73817e-07)
(-3.14824e-06 1.46297e-07 2.16158e-09 -3.1644e-06 9.42694e-09 -5.84839e-07)
(-1.26862e-06 6.95332e-08 4.09036e-09 -2.68245e-06 8.68811e-09 -5.94168e-07)
(-1.23137e-06 -6.65839e-08 -3.97024e-09 -2.62965e-06 8.60667e-09 -5.93093e-07)
(-2.86971e-06 -1.42777e-07 -2.10366e-09 -3.01021e-06 9.12281e-09 -5.81559e-07)
(-1.57764e-06 4.10531e-08 3.35445e-11 2.44434e-08 2.24929e-08 -4.29048e-08)
(-1.90297e-07 -8.71323e-08 5.06979e-10 -2.82474e-07 2.4163e-08 -4.63418e-08)
(-1.68472e-07 8.35191e-08 -5.31999e-10 -2.95646e-07 2.41367e-08 -4.62916e-08)
(-1.36029e-06 -3.29615e-08 -5.4581e-11 -3.08452e-08 2.24651e-08 -4.28351e-08)
(-1.68193e-06 -1.88083e-08 2.83585e-10 -5.68901e-07 2.57963e-08 -1.41465e-07)
(-3.4337e-07 -4.20802e-08 8.88742e-10 -4.39308e-07 2.62414e-08 -1.47345e-07)
(-3.14472e-07 4.46067e-08 -9.72811e-10 -4.44399e-07 2.6197e-08 -1.47181e-07)
(-1.45898e-06 2.0507e-08 -3.32234e-10 -5.745e-07 2.56937e-08 -1.41154e-07)
(-1.73532e-06 -2.357e-08 5.64688e-10 -5.42709e-07 2.76038e-08 -2.48267e-07)
(-3.54818e-07 -2.73331e-08 1.09599e-09 -4.68701e-07 2.72636e-08 -2.54029e-07)
(-3.26614e-07 2.99791e-08 -1.22244e-09 -4.7001e-07 2.71961e-08 -2.53726e-07)
(-1.50966e-06 2.42977e-08 -6.29847e-10 -5.42744e-07 2.74158e-08 -2.47595e-07)
(-1.79046e-06 -1.62594e-08 7.98591e-10 -4.5266e-07 2.66843e-08 -3.54352e-07)
(-3.31251e-07 -2.19013e-08 1.23386e-09 -4.65595e-07 2.61043e-08 -3.58968e-07)
(-3.03275e-07 2.33765e-08 -1.38118e-09 -4.65245e-07 2.60155e-08 -3.58494e-07)
(-1.55994e-06 1.69252e-08 -8.71124e-10 -4.50676e-07 2.64201e-08 -3.53184e-07)
(-1.8924e-06 4.10397e-10 9.54548e-10 -3.946e-07 2.28188e-08 -4.48748e-07)
(-3.49944e-07 -1.2993e-08 1.30924e-09 -4.53227e-07 2.23723e-08 -4.52148e-07)
(-3.21276e-07 1.32614e-08 -1.45817e-09 -4.52286e-07 2.22702e-08 -4.51477e-07)
(-1.65465e-06 7.59856e-11 -1.02625e-09 -3.9122e-07 2.25037e-08 -4.46979e-07)
(-2.09332e-06 4.13378e-08 9.86632e-10 -4.7912e-07 1.63782e-08 -5.20882e-07)
(-4.89291e-07 1.02921e-08 1.30257e-09 -4.89967e-07 1.6235e-08 -5.23598e-07)
(-4.59373e-07 -1.19769e-08 -1.43339e-09 -4.8817e-07 1.61349e-08 -5.22733e-07)
(-1.84607e-06 -4.13546e-08 -1.04863e-09 -4.73024e-07 1.60554e-08 -5.18488e-07)
(-2.46817e-06 1.12755e-07 8.33034e-10 -1.10757e-06 8.64719e-09 -5.62937e-07)
(-8.25447e-07 4.94123e-08 1.20437e-09 -9.21378e-07 8.67017e-09 -5.65789e-07)
(-7.93266e-07 -5.42963e-08 -1.28533e-09 -9.12613e-07 8.5951e-09 -5.64791e-07)
(-2.20832e-06 -1.13323e-07 -8.70932e-10 -1.08183e-06 8.38662e-09 -5.60048e-07)
(-3.13482e-06 1.4539e-07 5.95401e-10 -3.14857e-06 3.04583e-09 -5.72466e-07)
(-1.27048e-06 6.90476e-08 1.19244e-09 -2.6693e-06 2.86424e-09 -5.76371e-07)
(-1.23323e-06 -6.60918e-08 -1.15778e-09 -2.6165e-06 2.83781e-09 -5.75391e-07)
(-2.85639e-06 -1.41859e-07 -5.77715e-10 -2.99435e-06 2.94689e-09 -5.69491e-07)
)
;

boundaryField
{
    interface
    {
        type            calculated;
        value           nonuniform List<symmTensor> 
192
(
(-4.75601e-06 2.20621e-12 1.69071e-11 1.57509e-06 2.89873e-07 -2.95978e-06)
(-4.46683e-06 2.44877e-12 2.75072e-11 -5.5601e-07 5.48488e-08 -3.05847e-06)
(-4.56394e-06 1.04887e-12 3.17294e-11 -7.3252e-07 1.18564e-08 -3.1393e-06)
(-4.70971e-06 -1.82179e-12 3.31825e-11 -7.10103e-07 1.8811e-08 -3.22901e-06)
(-4.88131e-06 -4.48396e-12 3.32027e-11 -7.56943e-07 4.43989e-08 -3.34521e-06)
(-5.09827e-06 -9.11644e-12 3.25976e-11 -1.01431e-06 9.21225e-08 -3.51012e-06)
(-5.38892e-06 -1.26928e-11 3.03153e-11 -1.90636e-06 1.59311e-07 -3.77864e-06)
(-5.9428e-06 -2.90057e-11 2.85754e-11 -4.28564e-06 1.81148e-07 -4.2829e-06)
(-3.92447e-06 1.58605e-12 8.28789e-12 6.34306e-07 7.38534e-08 -6.28951e-07)
(-3.7389e-06 1.9902e-12 1.43928e-11 -4.20217e-07 7.6128e-08 -1.03613e-06)
(-3.79418e-06 8.22446e-13 1.63577e-11 -5.69565e-07 6.29399e-08 -1.12558e-06)
(-3.90147e-06 -2.06279e-12 1.66965e-11 -6.159e-07 6.51464e-08 -1.15632e-06)
(-4.05301e-06 -4.83391e-12 1.62319e-11 -6.75705e-07 9.94044e-08 -1.20883e-06)
(-4.27445e-06 -9.90105e-12 1.5448e-11 -8.51367e-07 1.56196e-07 -1.32588e-06)
(-4.62291e-06 -1.38351e-11 1.39665e-11 -1.55362e-06 1.99148e-07 -1.56138e-06)
(-5.39388e-06 -3.09098e-11 1.28161e-11 -3.78166e-06 1.60171e-07 -1.90728e-06)
(-3.4111e-06 1.3591e-12 6.47702e-12 2.47345e-07 1.30438e-07 -9.69452e-08)
(-3.34238e-06 1.75907e-12 1.10849e-11 -4.93646e-07 1.5341e-07 -3.22755e-07)
(-3.40556e-06 6.53054e-13 1.25285e-11 -5.36222e-07 1.4341e-07 -4.4744e-07)
(-3.50695e-06 -2.33185e-12 1.2738e-11 -5.36254e-07 1.3651e-07 -5.12308e-07)
(-3.65905e-06 -5.31404e-12 1.23381e-11 -5.53495e-07 1.51792e-07 -5.81508e-07)
(-3.89536e-06 -1.0894e-11 1.1699e-11 -6.68019e-07 1.73274e-07 -6.97127e-07)
(-4.28039e-06 -1.53637e-11 1.06476e-11 -1.31144e-06 1.62102e-07 -8.67241e-07)
(-5.11108e-06 -3.3522e-11 9.79016e-12 -3.51545e-06 9.55407e-08 -1.01237e-06)
(-3.10732e-06 1.01388e-12 3.90778e-12 1.03225e-07 1.49451e-07 -1.78253e-08)
(-3.08231e-06 1.25715e-12 7.06962e-12 -5.55509e-07 1.80605e-07 -1.48887e-07)
(-3.15583e-06 1.33129e-13 8.01042e-12 -5.46676e-07 1.80488e-07 -2.80583e-07)
(-3.26025e-06 -2.85315e-12 8.05722e-12 -4.91521e-07 1.71118e-07 -3.84781e-07)
(-3.41702e-06 -5.91522e-12 7.6833e-12 -4.63652e-07 1.65552e-07 -4.82095e-07)
(-3.66379e-06 -1.16988e-11 7.16999e-12 -5.52674e-07 1.52531e-07 -5.91106e-07)
(-4.0667e-06 -1.63981e-11 6.51547e-12 -1.19167e-06 1.10883e-07 -6.97302e-07)
(-4.90818e-06 -3.47783e-11 6.02457e-12 -3.35892e-06 5.14376e-08 -7.39192e-07)
(-2.92919e-06 8.45308e-13 2.8357e-12 4.99431e-08 1.35634e-07 -2.15942e-08)
(-2.91573e-06 9.36917e-13 5.12863e-12 -5.77528e-07 1.62969e-07 -1.24861e-07)
(-2.99509e-06 -2.57492e-13 5.81881e-12 -5.53362e-07 1.70297e-07 -2.49535e-07)
(-3.10396e-06 -3.27812e-12 5.84976e-12 -4.69942e-07 1.62991e-07 -3.68121e-07)
(-3.26564e-06 -6.4323e-12 5.57213e-12 -4.17656e-07 1.47194e-07 -4.76191e-07)
(-3.51878e-06 -1.23903e-11 5.18999e-12 -5.00123e-07 1.18669e-07 -5.72302e-07)
(-3.92874e-06 -1.72981e-11 4.73836e-12 -1.1396e-06 7.23779e-08 -6.40117e-07)
(-4.76503e-06 -3.59147e-11 4.39117e-12 -3.26046e-06 2.89413e-08 -6.50366e-07)
(-2.82586e-06 7.12147e-13 1.71097e-12 3.11232e-08 1.053e-07 -3.25152e-08)
(-2.81523e-06 6.75415e-13 3.20346e-12 -5.78236e-07 1.24064e-07 -1.30553e-07)
(-2.89763e-06 -5.86171e-13 3.6586e-12 -5.51188e-07 1.32188e-07 -2.46711e-07)
(-3.0101e-06 -3.62721e-12 3.66818e-12 -4.59681e-07 1.27401e-07 -3.63376e-07)
(-3.17557e-06 -6.83062e-12 3.47357e-12 -4.00076e-07 1.11242e-07 -4.68692e-07)
(-3.43225e-06 -1.28705e-11 3.21452e-12 -4.82472e-07 8.3435e-08 -5.5287e-07)
(-3.84422e-06 -1.7883e-11 2.94028e-12 -1.11834e-06 4.62683e-08 -6.03427e-07)
(-4.67257e-06 -3.66062e-11 2.74275e-12 -3.1994e-06 1.71351e-08 -6.09304e-07)
(-2.76881e-06 6.46102e-13 9.9791e-13 2.55526e-08 6.61254e-08 -3.96611e-08)
(-2.75895e-06 5.20982e-13 1.86627e-12 -5.72904e-07 7.65565e-08 -1.37734e-07)
(-2.84296e-06 -7.95417e-13 2.13357e-12 -5.46138e-07 8.19428e-08 -2.47697e-07)
(-2.95773e-06 -3.85817e-12 2.13973e-12 -4.54728e-07 7.91818e-08 -3.58062e-07)
(-3.12558e-06 -7.10027e-12 2.02736e-12 -3.95305e-07 6.8094e-08 -4.56836e-07)
(-3.38404e-06 -1.3197e-11 1.87418e-12 -4.78952e-07 4.94333e-08 -5.32922e-07)
(-3.79613e-06 -1.8283e-11 1.72012e-12 -1.11021e-06 2.63833e-08 -5.77008e-07)
(-4.61838e-06 -3.70893e-11 1.60163e-12 -3.1644e-06 9.42694e-09 -5.84839e-07)
(-2.74335e-06 6.05861e-13 2.92634e-13 2.44434e-08 2.24929e-08 -4.29048e-08)
(-2.73375e-06 4.34387e-13 5.68524e-13 -5.68901e-07 2.57963e-08 -1.41465e-07)
(-2.81846e-06 -9.07266e-13 6.5472e-13 -5.42709e-07 2.76038e-08 -2.48267e-07)
(-2.93433e-06 -3.97622e-12 6.55426e-13 -4.5266e-07 2.66843e-08 -3.54352e-07)
(-3.10329e-06 -7.23317e-12 6.18547e-13 -3.946e-07 2.28188e-08 -4.48748e-07)
(-3.36246e-06 -1.33492e-11 5.6828e-13 -4.7912e-07 1.63782e-08 -5.20882e-07)
(-3.77434e-06 -1.84683e-11 5.23071e-13 -1.10757e-06 8.64719e-09 -5.62937e-07)
(-4.59344e-06 -3.73074e-11 4.8629e-13 -3.14857e-06 3.04583e-09 -5.72466e-07)
(-2.92331e-06 2.459e-07 -2.32798e-11 1.57509e-06 -5.71748e-12 -4.83524e-06)
(-3.07213e-06 9.53193e-09 -3.98491e-11 -5.5601e-07 -7.24168e-12 -4.51595e-06)
(-3.1569e-06 -3.2544e-08 -4.73617e-11 -7.3252e-07 -6.55033e-12 -4.61405e-06)
(-3.2228e-06 -2.38156e-08 -5.06291e-11 -7.10103e-07 -5.1096e-12 -4.77064e-06)
(-3.32095e-06 -2.02951e-09 -5.20293e-11 -7.56943e-07 -4.45332e-12 -4.94923e-06)
(-3.49518e-06 4.05816e-08 -5.31507e-11 -1.01431e-06 -4.71692e-12 -5.16109e-06)
(-3.79844e-06 1.1027e-07 -5.45142e-11 -1.90636e-06 -5.67854e-12 -5.43523e-06)
(-4.31477e-06 1.39685e-07 -6.03433e-11 -4.28564e-06 -6.99045e-12 -5.97379e-06)
(-7.32502e-07 -2.56661e-08 -1.34808e-11 9.87542e-07 -3.41013e-12 -4.31061e-06)
(-1.28006e-06 -3.71307e-08 -2.59516e-11 -2.89997e-07 -5.69827e-12 -4.00463e-06)
(-1.36393e-06 -3.86699e-08 -3.11624e-11 -5.5197e-07 -5.5246e-12 -4.02452e-06)
(-1.32852e-06 -3.08082e-08 -3.32402e-11 -6.8032e-07 -3.87865e-12 -4.12677e-06)
(-1.33175e-06 -1.55939e-08 -3.41598e-11 -8.01221e-07 -2.64767e-12 -4.27208e-06)
(-1.46124e-06 1.23097e-08 -3.53082e-11 -1.0187e-06 -1.93369e-12 -4.46868e-06)
(-1.78487e-06 5.33291e-08 -3.77273e-11 -1.72628e-06 -2.04822e-12 -4.77909e-06)
(-2.20928e-06 6.89811e-08 -4.528e-11 -3.91351e-06 -2.48206e-12 -5.53946e-06)
(-7.06835e-07 4.57201e-09 -1.31476e-11 9.66328e-07 -2.51706e-12 -4.22469e-06)
(-1.24495e-06 2.81588e-08 -2.56062e-11 -2.91012e-07 -4.82394e-12 -3.92407e-06)
(-1.32868e-06 3.40514e-08 -3.09698e-11 -5.49657e-07 -4.84875e-12 -3.94152e-06)
(-1.29314e-06 2.7357e-08 -3.31536e-11 -6.77578e-07 -3.02219e-12 -4.04125e-06)
(-1.29582e-06 1.24814e-08 -3.40496e-11 -7.98541e-07 -1.38134e-12 -4.18458e-06)
(-1.42479e-06 -1.60204e-08 -3.50539e-11 -1.01523e-06 1.50249e-14 -4.37941e-06)
(-1.7475e-06 -5.87711e-08 -3.71891e-11 -1.71561e-06 7.56599e-13 -4.68817e-06)
(-2.16844e-06 -6.55502e-08 -4.45285e-11 -3.85904e-06 9.26292e-13 -5.44838e-06)
(-2.67766e-06 -2.43544e-07 -1.39142e-11 1.50017e-06 -2.0623e-12 -4.5882e-06)
(-2.81503e-06 -1.21461e-08 -2.84143e-11 -5.49337e-07 -4.31901e-12 -4.28208e-06)
(-2.89514e-06 3.04421e-08 -3.51422e-11 -7.22687e-07 -4.3811e-12 -4.37145e-06)
(-2.95593e-06 2.24562e-08 -3.79912e-11 -7.01699e-07 -2.385e-12 -4.52049e-06)
(-3.04889e-06 9.23259e-10 -3.91726e-11 -7.48846e-07 -5.28505e-13 -4.69357e-06)
(-3.2184e-06 -4.18716e-08 -4.04894e-11 -1.00387e-06 1.20957e-12 -4.90078e-06)
(-3.51648e-06 -1.11705e-07 -4.2515e-11 -1.87635e-06 2.44939e-12 -5.17123e-06)
(-4.02227e-06 -1.3644e-07 -5.03581e-11 -4.13102e-06 3.60799e-12 -5.71441e-06)
(-4.31604e-06 4.30513e-12 3.2885e-12 1.50017e-06 2.85134e-07 -2.82224e-06)
(-4.02283e-06 6.33204e-12 6.76887e-12 -5.49337e-07 5.45305e-08 -2.92238e-06)
(-4.11091e-06 5.45087e-12 7.95907e-12 -7.22687e-07 1.16382e-08 -2.99833e-06)
(-4.24672e-06 2.4753e-12 8.65749e-12 -7.01699e-07 1.80685e-08 -3.08395e-06)
(-4.40905e-06 7.00367e-13 9.30803e-12 -7.48846e-07 4.31735e-08 -3.19701e-06)
(-4.61763e-06 -1.84665e-12 1.10212e-11 -1.00387e-06 9.03957e-08 -3.35916e-06)
(-4.89974e-06 -1.69844e-12 1.25649e-11 -1.87635e-06 1.5698e-07 -3.62507e-06)
(-5.4395e-06 -1.56502e-11 1.65652e-11 -4.13102e-06 1.79045e-07 -4.1298e-06)
(-3.49476e-06 1.6929e-12 -2.13535e-12 5.75124e-07 7.69727e-08 -6.14095e-07)
(-3.3128e-06 2.95631e-12 -2.49024e-12 -4.21471e-07 7.63893e-08 -1.01383e-06)
(-3.36128e-06 2.69039e-12 -3.16373e-12 -5.64615e-07 6.2131e-08 -1.10218e-06)
(-3.45902e-06 1.02794e-12 -3.31521e-12 -6.09537e-07 6.34421e-08 -1.13257e-06)
(-3.60026e-06 5.75892e-13 -2.9495e-12 -6.68668e-07 9.67252e-08 -1.18458e-06)
(-3.81099e-06 -8.29472e-13 -1.55833e-12 -8.42325e-07 1.52618e-07 -1.30082e-06)
(-4.14778e-06 7.1616e-13 2.8794e-13 -1.52623e-06 1.95187e-07 -1.53479e-06)
(-4.90132e-06 -1.18819e-11 3.06926e-12 -3.62554e-06 1.57929e-07 -1.8779e-06)
(-2.99541e-06 9.33562e-13 -1.44232e-12 1.92072e-07 1.3065e-07 -9.62025e-08)
(-2.92973e-06 1.66493e-12 -1.27637e-12 -4.96416e-07 1.5232e-07 -3.18773e-07)
(-2.98626e-06 1.64958e-12 -1.20445e-12 -5.33435e-07 1.41616e-07 -4.42201e-07)
(-3.07809e-06 6.85919e-13 -8.65499e-13 -5.31614e-07 1.34048e-07 -5.0673e-07)
(-3.21899e-06 1.03742e-12 -2.65769e-13 -5.47825e-07 1.48575e-07 -5.75522e-07)
(-3.44241e-06 3.22192e-13 9.33157e-13 -6.60329e-07 1.69471e-07 -6.90325e-07)
(-3.81248e-06 2.57595e-12 2.21623e-12 -1.28525e-06 1.58492e-07 -8.59135e-07)