/*--------------------------------*- C++ -*----------------------------------*\
| =========                 |                                                 |
| \\      /  F ield         | OpenFOAM: The Open Source CFD Toolbox           |
|  \\    /   O peration     | Version:  v1912                                 |
|   \\  /    A nd           | Website:  www.openfoam.com                      |
|    \\/     M anipulation  |                                                 |
\*---------------------------------------------------------------------------*/
FoamFile
{
    version     2.0;
    format      ascii;
    class       volVectorField;
    location    "0.96/solid";
    object      heatFlux;
}
// * * * * * * * * * * * * * * * * * * * * * * * * * * * * * * * * * * * * * //

dimensions      [1 0 -3 0 0 0 0];


internalField   nonuniform List<vector> 
256
(
(-62582.4 76723.1 -65597.1)
(-13436.6 46964 -64881.4)
(11562.2 46276.8 -63395.4)
(54404.9 73202.7 -61294.8)
(-58516.3 13034 -61991.3)
(-17009.8 8880.02 -64678.5)
(14676.6 8772.79 -63155.5)
(49971.4 12581 -57720.7)
(-59489.3 3293.48 -63124.2)
(-17697.8 2166.91 -66326.8)
(15263.1 2134.51 -64747.2)
(50777.5 3162.09 -58721)
(-61283.6 2900.32 -64951.1)
(-18168.7 1826.17 -68393.3)
(15671.7 1805.9 -66770.8)
(52395.3 2807.72 -60437.6)
(-63724.3 4788.23 -67386.8)
(-18792.2 3308.19 -71222.9)
(16244.7 3289.33 -69566.3)
(54660.9 4703.99 -62786.2)
(-66958.8 10773.6 -70627.8)
(-19667.6 9045.59 -75275.9)
(17067.5 8994.74 -73586.8)
(57720.5 10614 -65944.8)
(-69449.4 29897.4 -73215.3)
(-20571 29943.8 -79283.9)
(17813.1 29642.5 -77564.9)
(59980.1 29078.5 -68464)
(-62637.8 66745.7 -66608.8)
(-19922.5 73782.5 -73672.1)
(16202.3 72147.1 -72053.6)
(52681.6 62252.1 -62174.8)
(-60510.4 43032.6 -18732.1)
(-12352.7 14709.6 -16669.2)
(11226.8 14464.8 -16448.1)
(52792.4 40756.6 -18088.4)
(-60192.3 8132.64 -24456.3)
(-16215.1 3552.19 -22500.4)
(14820.1 3510.53 -22216.2)
(52217.6 7850.55 -23641.6)
(-61716.2 2046.1 -25501.7)
(-16974.8 799.519 -23601)
(15525.2 787.297 -23300.8)
(53582.4 1963.34 -24647.8)
(-63763.6 1796.22 -26091.6)
(-17473.9 613.721 -24215.2)
(15983.9 604.102 -23907.6)
(55448.6 1725.88 -25221.6)
(-66629.3 3267.28 -26845.5)
(-18166.9 1522.05 -25044.8)
(16637.3 1509.9 -24733.3)
(58121.1 3191.54 -25971.7)
(-70746.4 8883.26 -27940.4)
(-19231.3 6535.13 -26366.5)
(17653.4 6487.82 -26053.1)
(62030.1 8720.09 -27072.8)
(-74843.8 29387.7 -29332.3)
(-20562.4 28349.2 -28322.7)
(18822.3 28029.7 -28010)
(65854.5 28502.1 -28482.1)
(-69535.9 73415.7 -29829.7)
(-20589.3 79451.7 -29906.6)
(17806.3 77707.4 -29614.2)
(60001.1 68582 -29051.8)
(-54846.1 33534.7 -5265.85)
(-11152.6 7794.38 -3285.04)
(10143 7612.48 -3254.32)
(47408.1 31472.7 -5144.89)
(-55425.7 6264.33 -7352.09)
(-14769.6 1948.3 -4914.42)
(13535.4 1920.12 -4870.38)
(47763.4 6021.64 -7187.82)
(-56982.3 1658.17 -7709.47)
(-15496.8 452.144 -5208.98)
(14216.3 443.042 -5162.14)
(49160.2 1582.09 -7537.86)
(-59002.7 1556.56 -7845.25)
(-15984.8 382.332 -5325.06)
(14665.3 373.37 -5277.52)
(50993.6 1483.75 -7673.69)
(-61900 2939.43 -7996.19)
(-16680 1156.85 -5474.22)
(15317.7 1143.87 -5427.04)
(53679.2 2852.82 -7830.58)
(-66194.6 8286.76 -8242.94)
(-17780.3 5767.72 -5759.68)
(16361.3 5718.11 -5713.96)
(57726.9 8103.56 -8090.8)
(-70862.4 28008.1 -8836.38)
(-19248.7 26403.7 -6525.08)
(17653.6 26081.4 -6482.09)
(62065.5 27099.5 -8705.99)
(-67161.3 70930.9 -10693.8)
(-19707.1 75535.6 -9006.93)
(17057.1 73807 -8965.49)
(57775.5 66126.6 -10581.2)
(-50722.1 30414.7 -1934.42)
(-10341.2 6510.16 -640.829)
(9366.97 6340.1 -633.884)
(43472.7 28423.9 -1885.28)
(-51375.6 5689.02 -2635.59)
(-13733.4 1628.25 -980.062)
(12546.7 1602.71 -969.896)
(43913.8 5457.58 -2570.96)
(-52874.3 1552.94 -2746.92)
(-14427.5 388.873 -1039.07)
(13196.3 380.152 -1028.36)
(45253.5 1477.47 -2680.28)
(-54853.1 1509.5 -2778.2)
(-14906.2 348.482 -1056.52)
(13635.3 339.203 -1045.88)
(47040.8 1433.16 -2712.88)
(-57735.5 2869.59 -2806.46)
(-15597.8 1087.43 -1078.47)
(14281 1073.46 -1068.34)
(49696.9 2774.44 -2745.78)
(-62056.6 8043.07 -2873.98)
(-16702.3 5484.27 -1147.06)
(15322.3 5432.77 -1138.03)
(53743.6 7844.68 -2822.62)
(-66908 26936.8 -3190.89)
(-18208.1 25102 -1504.87)
(16641.4 24778.1 -1497.8)
(58222 26011.7 -3154.99)
(-64090.6 67843.4 -4653.76)
(-18861 71623.7 -3237.54)
(16232.1 69907.7 -3231.33)
(54776.8 63067.6 -4630.72)
(-48168.3 28964.7 -971.468)
(-9852.07 6173.49 -195.657)
(8898.53 6008.7 -192.191)
(41044.4 27016.5 -941.447)
(-48799.5 5451.83 -1288.02)
(-13104 1550.06 -291.094)
(11944.5 1525.64 -286.055)
(41469.8 5226.64 -1248.93)
(-50258.8 1515.56 -1333.38)
(-13778.3 375.689 -305.969)
(12575.1 367.059 -300.699)
(42770.8 1440.17 -1293.2)
(-52214.6 1497.03 -1343.01)
(-14252.5 342.927 -308.911)
(13009 333.396 -303.735)
(44531.4 1418.25 -1303.89)
(-55085.6 2843.65 -1351.16)
(-14941.9 1066.3 -313.204)
(13650.4 1051.71 -308.351)
(47166.2 2743.08 -1315.08)
(-59402.5 7902.33 -1384.65)
(-16044.4 5341.33 -340.711)
(14685.7 5288.65 -336.526)
(51190.4 7694.35 -1354.35)
(-64301.5 26228.4 -1582.77)
(-17555.6 24313.2 -539.09)
(16003.4 23988.1 -536.125)
(55688.7 25291.4 -1562.09)
(-61903.9 65658.1 -2545.83)
(-18284.7 69038.7 -1605.61)
(15664 67328.1 -1603.65)
(52635.2 60893.1 -2535.03)
(-46628.2 28155.2 -546.245)
(-9561.89 6023.41 -93.6217)
(8621.18 5861.85 -91.5409)
(39582.1 26233.5 -528.082)
(-47242.6 5327.11 -716.346)
(-12731.4 1517.93 -136.263)
(11588.9 1494.2 -133.223)
(39994.4 5105.83 -692.62)
(-48681.2 1497.95 -739.038)
(-13394.8 371.056 -142.303)
(12209.1 362.472 -139.122)
(41274.8 1422.5 -714.679)
(-50625.4 1491.72 -743.044)
(-13866.9 341.246 -143.125)
(12640.3 331.551 -140.008)
(43021 1411.28 -719.442)
(-53488.8 2827.94 -747.244)
(-14555 1055.63 -144.801)
(13279.1 1040.67 -141.881)
(45641.1 2723.99 -725.553)
(-57794 7811.46 -768.849)
(-15654.2 5258.39 -159.848)
(14308.7 5205 -157.316)
(49642.2 7597.67 -750.604)
(-62694.5 25775.6 -893.921)
(-17161.4 23837.1 -275.27)
(15618.4 23511 -273.456)
(54125.5 24831.1 -881.367)
(-60496.1 64245.5 -1492.38)
(-17918.8 67431.5 -911.273)
(15302.7 65723.3 -910.217)
(51252.8 59484.7 -1486.33)
(-45745.7 27702.1 -285.593)
(-9397.37 5943.6 -47.2599)
(8464.07 5783.93 -46.1387)
(38744.4 25795.8 -275.92)
(-46351.4 5259.04 -372.971)
(-12520.8 1501.38 -68.2851)
(11388.1 1478.06 -66.6362)
(39150.1 5040.05 -360.283)
(-47779.7 1488.87 -384.203)
(-13178.3 368.827 -71.1443)
(12002.7 360.273 -69.4166)
(40420.1 1413.35 -371.175)
(-49718 1488.82 -386.044)
(-13649.4 340.429 -71.4769)
(12432.6 330.637 -69.7842)
(42158.3 1407.37 -373.455)
(-52576 2817.85 -388.479)
(-14336.5 1049.58 -72.3339)
(13069.7 1034.4 -70.747)
(44768.9 2711.92 -376.941)
(-56870.2 7755.65 -401.174)
(-15432.9 5210.86 -80.3442)
(14095 5157.07 -78.9622)
(48752.2 7538.54 -391.477)
(-61760.7 25504.8 -470.993)
(-16935.1 23561.8 -141.747)
(15397.4 23235.2 -140.744)
(53216.3 24555.7 -464.318)
(-59657.3 63398.8 -799.293)
(-17702.5 66488.9 -482.714)
(15088.9 64781.8 -482.159)
(50427.3 58639.4 -796.264)
(-45341.4 27496.6 -89.2087)
(-9322.44 5907.87 -14.6354)
(8392.52 5749.08 -14.2819)
(38360.6 25597.3 -86.1808)
(-45943.4 5228.5 -116.315)
(-12425.1 1494.05 -21.0988)
(11296.9 1470.93 -20.5768)
(38763.6 5010.57 -112.332)
(-47367.3 1484.88 -119.747)
(-13080 367.864 -21.9655)
(11909 359.324 -21.4179)
(40029 1409.33 -115.655)
(-49303 1487.45 -120.3)
(-13550.7 340.057 -22.0624)
(12338.4 330.221 -21.5259)
(41763.6 1405.51 -116.352)
(-52158.2 2812.81 -121.124)
(-14237.2 1046.77 -22.3372)
(12974.5 1031.49 -21.8343)
(44369.4 2705.96 -117.512)
(-56446.1 7728.95 -125.334)
(-15332 5188.98 -24.8746)
(13997.6 5135 -24.4362)
(48343.2 7510.3 -122.305)
(-61329.1 25377.5 -147.827)
(-16831.2 23434.7 -44.2239)
(15295.8 23107.8 -43.9046)
(52795.5 24426.3 -145.752)
(-59264.5 63000.3 -252.652)
(-17601.7 66050.3 -151.994)
(14989.1 64343.6 -151.821)
(50040.1 58241.5 -251.752)
)
;

boundaryField
{
    interface
    {
        type            calculated;
        value           nonuniform List<vector> 
192
(
(-98892.5 76723.1 -65597.1)
(-83786.7 13034 -61991.3)
(-84398.4 3293.48 -63124.2)
(-87068.2 2900.32 -64951.1)
(-90720.2 4788.23 -67386.8)
(-95458.6 10773.6 -70627.8)
(-98714.4 29897.4 -73215.3)
(-86909.3 66745.7 -66608.8)
(-96525.9 43032.6 -18732.1)
(-88233.5 8132.64 -24456.3)
(-89776.6 2046.1 -25501.7)
(-92883.1 1796.22 -26091.6)
(-97237.7 3267.28 -26845.5)
(-103358 8883.26 -27940.4)
(-108971 29387.7 -29332.3)
(-98860.2 73415.7 -29829.7)
(-87545.7 33534.7 -5265.85)
(-81517.3 6264.33 -7352.09)
(-83186 1658.17 -7709.47)
(-86259.3 1556.56 -7845.25)
(-90673 2939.43 -7996.19)
(-97077.8 8286.76 -8242.94)
(-103560 28008.1 -8836.38)
(-95802.4 70930.9 -10693.8)
(-80911 30414.7 -1934.42)
(-75475.4 5689.02 -2635.59)
(-77093.7 1552.94 -2746.92)
(-80102.4 1509.5 -2778.2)
(-84494.1 2869.59 -2806.46)
(-90945 8043.07 -2873.98)
(-97721.4 26936.8 -3190.89)
(-91343.4 67843.4 -4653.76)
(-76777.3 28964.7 -971.468)
(-71576 5451.83 -1288.02)
(-73154.6 1515.56 -1333.38)
(-76126.4 1497.03 -1343.01)
(-80500.1 2843.65 -1351.16)
(-86947.4 7902.33 -1384.65)
(-93809.9 26228.4 -1582.77)
(-88120 65658.1 -2545.83)
(-74274.7 28155.2 -546.245)
(-69203.3 5327.11 -716.346)
(-70762.4 1497.95 -739.038)
(-73715.3 1491.72 -743.044)
(-78076.5 2827.94 -747.244)
(-84507.7 7811.46 -768.849)
(-91381.8 25775.6 -893.921)
(-86034.9 64245.5 -1492.38)
(-72837.2 27702.1 -285.593)
(-67839.8 5259.04 -372.971)
(-69389.9 1488.87 -384.203)
(-72332.9 1488.82 -386.044)
(-76685.7 2817.85 -388.479)
(-83100.9 7755.65 -401.174)
(-89965.5 25504.8 -470.993)
(-84789.1 63398.8 -799.293)
(-72177.9 27496.6 -89.2087)
(-67214.3 5228.5 -116.315)
(-68760.8 1484.88 -119.747)
(-71699.4 1487.45 -120.3)
(-76047.6 2812.81 -121.124)
(-82453.6 7728.95 -125.334)
(-89309.5 25377.5 -147.827)
(-84204.8 63000.3 -252.652)
(-62582.4 76723.1 -101636)
(-58516.3 13034 -86159.7)
(-59489.3 3293.48 -86887.6)
(-61283.6 2900.32 -89584.4)
(-63724.3 4788.23 -93204.6)
(-66958.8 10773.6 -97895.9)
(-69449.4 29897.4 -101081)
(-62637.8 66745.7 -88838.6)
(-13436.6 46964 -101982)
(-17009.8 8880.02 -92628.8)
(-17697.8 2166.91 -94217.2)
(-18168.7 1826.17 -97323.7)
(-18792.2 3308.19 -101584)
(-19667.6 9045.59 -107517)
(-20571 29943.8 -112686)
(-19922.5 73782.5 -101120)
(11562.2 46276.8 -99400.5)
(14676.6 8772.79 -90077.3)
(15263.1 2134.51 -91579.5)
(15671.7 1805.9 -94613.5)
(16244.7 3289.33 -98814.2)
(17067.5 8994.74 -104687)
(17813.1 29642.5 -109798)
(16202.3 72147.1 -98394.6)
(54404.9 73202.7 -94138.3)
(49971.4 12581 -79000.4)
(50777.5 3162.09 -79529.7)
(52395.3 2807.72 -82036.6)
(54660.9 4703.99 -85496.5)
(57720.5 10614 -90026.3)
(59980.1 29078.5 -93064.4)
(52681.6 62252.1 -81333.4)
(85084.6 73202.7 -61294.8)
(69816 12581 -57720.7)
(70213.4 3162.09 -58721)
(72608.6 2807.72 -60437.6)
(75976.7 4703.99 -62786.2)
(80429.8 10614 -65944.8)
(83376.6 29078.5 -68464)
(71479.9 62252.1 -62174.8)
(82920.6 40756.6 -18088.4)
(74515.9 7850.55 -23641.6)
(75820.6 1963.34 -24647.8)
(78625.6 1725.88 -25221.6)
(82654.5 3191.54 -25971.7)
(88425.5 8720.09 -27072.8)
(93656.7 28502.1 -28482.1)
(83422.6 68582 -29051.8)
(74371.7 31472.7 -5144.89)
(68250.8 6021.64 -7187.82)
(69672.7 1582.09 -7537.86)
(72433.2 1483.75 -7673.69)
(76490.1 2852.82 -7830.58)
(82481.8 8103.56 -8090.8)
(88491.8 27099.5 -8705.99)
(80542.7 66126.6 -10581.2)
(68062.3 28423.9 -1885.28)
(62543 5457.58 -2570.96)
(63914.3 1477.47 -2680.28)
(66602.4 1433.16 -2712.88)
(70613.2 2774.44 -2745.78)
(76606.1 7844.68 -2822.62)
(82839.6 26011.7 -3154.99)
(76205.2 63067.6 -4630.72)
(64146.9 27016.5 -941.447)
(58865.9 5226.64 -1248.93)
(60197.8 1440.17 -1293.2)
(62842.7 1418.25 -1303.89)
(66818.8 2743.08 -1315.08)
(72778 7694.35 -1354.35)
(79052.6 25291.4 -1562.09)
(73060.9 60893.1 -2535.03)
(61779.7 26233.5 -528.082)
(56630.1 5105.83 -692.62)
(57942 1422.5 -714.679)
(60563.1 1411.28 -719.442)
(64515.1 2723.99 -725.553)
(70438.8 7597.67 -750.604)
(76698.4 24831.1 -881.367)
(71020 59484.7 -1486.33)
(60420.1 25795.8 -275.92)
(55345.3 5040.05 -360.283)
(56647.4 1413.35 -371.175)
(59255.4 1407.37 -373.455)
(63191.7 2711.92 -376.941)
(69088.2 7538.54 -391.477)
(75323.5 24555.7 -464.318)
(69797.4 58639.4 -796.264)
(59796.3 25597.3 -86.1808)
(54755.6 5010.57 -112.332)
(56053.7 1409.33 -115.655)
(58655.7 1405.51 -116.352)
(62584 2705.96 -117.512)
(68466 7510.3 -122.305)
(74685.7 24426.3 -145.752)
(69222.8 58241.5 -251.752)
(-62637.8 89042.1 -66608.8)
(-69535.9 101412 -29829.7)
(-67161.3 98407.3 -10693.8)
(-64090.6 93981.8 -4653.76)
(-61903.9 90787.4 -2545.83)
(-60496.1 88712.2 -1492.38)
(-59657.3 87465.6 -799.293)
(-59264.5 86878.4 -252.652)
(-19922.5 101298 -73672.1)
(-20589.3 112978 -29906.6)
(-19707.1 107972 -9006.93)
(-18861 102286 -3237.54)
(-18284.7 98443.3 -1605.61)
(-17918.8 96034.4 -911.273)
(-17702.5 94615.7 -482.714)
(-17601.7 93953.9 -151.994)
(16202.3 98547.9 -72053.6)
(17806.3 110049 -29614.2)
(17057.1 105076 -8965.49)
(16232.1 99416.2 -3231.33)
(15664 95585.6 -1603.65)
(15302.7 93182.5 -910.217)
(15088.9 91766.5 -482.159)
(14989.1 91105.9 -151.821)
(52681.6 81458.2 -62174.8)
(60001.1 93270.5 -29051.8)
(57775.5 90346.6 -10581.2)
(54776.8 85992.2 -4630.72)
(52635.2 82831.1 -2535.03)
(51252.8 80772.2 -1486.33)
(50427.3 79533.6 -796.264)
(50040.1 78949.7 -251.752)
)
;
    }
    symmetry
    {
        type            symmetry;
    }
    bottom
    {
        type            calculated;
        value           nonuniform List<vector> 
32
(
(-62582.4 131539 -65597.1)
(-60510.4 72423.2 -18732.1)
(-54846.1 56611.1 -5265.85)
(-50722.1 51359.8 -1934.42)
(-48168.3 48873.4 -971.468)
(-46628.2 47474 -546.245)
(-45745.7 46688.4 -285.593)
(-45341.4 46331.6 -89.2087)
(-13436.6 78994.8 -64881.4)
(-12352.7 23433.4 -16669.2)
(-11152.6 12317.9 -3285.04)
(-10341.2 10293.2 -640.829)
(-9852.07 9754.58 -195.657)
(-9561.89 9510.59 -93.6217)
(-9397.37 9380.1 -47.2599)
(-9322.44 9321.56 -14.6354)
(11562.2 77793.1 -63395.4)
(11226.8 23012.4 -16448.1)
(10143 12000.7 -3254.32)
(9366.97 9995.15 -633.884)
(8898.53 9465.12 -192.191)
(8621.18 9226.38 -91.5409)
(8464.07 9098.96 -46.1387)
(8392.52 9041.83 -14.2819)
(54404.9 125243 -61294.8)
(52792.4 68340.7 -18088.4)
(47408.1 52889.8 -5144.89)
(43472.7 47761.1 -1885.28)
(41044.4 45348.7 -941.447)
(39582.1 43995.3 -528.082)
(38744.4 43236.4 -275.92)
(38360.6 42891.6 -86.1808)
)
;
    }
}


// ************************************************************************* //
