/*--------------------------------*- C++ -*----------------------------------*\
| =========                 |                                                 |
| \\      /  F ield         | OpenFOAM: The Open Source CFD Toolbox           |
|  \\    /   O peration     | Version:  v1912                                 |
|   \\  /    A nd           | Website:  www.openfoam.com                      |
|    \\/     M anipulation  |                                                 |
\*---------------------------------------------------------------------------*/
FoamFile
{
    version     2.0;
    format      ascii;
    class       pointVectorField;
    location    "0.96/solid";
    object      pointD;
}
// * * * * * * * * * * * * * * * * * * * * * * * * * * * * * * * * * * * * * //

dimensions      [0 1 0 0 0 0 0];


internalField   nonuniform List<vector> 
405
(
(4.12712e-08 4.52322e-08 4.29302e-08)
(9.07714e-09 3.03644e-08 4.56409e-08)
(-1.12036e-10 2.52913e-08 4.29428e-08)
(-8.96113e-09 2.96013e-08 4.4346e-08)
(-3.8771e-08 4.35227e-08 4.13645e-08)
(7.18509e-08 5.64314e-08 8.06863e-08)
(2.52611e-08 5.18957e-08 1.06827e-07)
(-9.64575e-11 4.37143e-08 1.01196e-07)
(-2.46492e-08 5.04759e-08 1.04139e-07)
(-6.75511e-08 5.40644e-08 7.81183e-08)
(8.38333e-08 3.30641e-08 1.0763e-07)
(3.36201e-08 3.30313e-08 1.33073e-07)
(2.32671e-10 2.856e-08 1.26835e-07)
(-3.22242e-08 3.18274e-08 1.30201e-07)
(-7.85374e-08 3.10738e-08 1.04724e-07)
(8.59571e-08 1.17369e-08 1.27055e-07)
(3.45487e-08 1.40444e-08 1.52713e-07)
(6.22107e-10 1.18743e-08 1.45762e-07)
(-3.23725e-08 1.30258e-08 1.4969e-07)
(-7.9797e-08 1.00488e-08 1.23944e-07)
(8.68962e-08 -6.00228e-09 1.44546e-07)
(3.43411e-08 -3.71858e-09 1.70642e-07)
(9.70768e-10 -5.50134e-09 1.6305e-07)
(-3.14605e-08 -4.59829e-09 1.6749e-07)
(-7.9945e-08 -7.45734e-09 1.41262e-07)
(9.09599e-08 -2.34354e-08 1.63057e-07)
(3.61242e-08 -2.23295e-08 1.89862e-07)
(1.2581e-09 -2.45859e-08 1.81747e-07)
(-3.26559e-08 -2.30826e-08 1.86581e-07)
(-8.33307e-08 -2.46609e-08 1.59589e-07)
(1.01171e-07 -4.69439e-08 1.8434e-07)
(4.19111e-08 -4.67297e-08 2.12538e-07)
(1.4575e-09 -4.88235e-08 2.04311e-07)
(-3.80253e-08 -4.73164e-08 2.09114e-07)
(-9.30269e-08 -4.78658e-08 1.80664e-07)
(1.18245e-07 -9.55813e-08 2.07595e-07)
(5.14643e-08 -9.4228e-08 2.39405e-07)
(1.5054e-09 -9.38405e-08 2.32316e-07)
(-4.74262e-08 -9.4291e-08 2.35863e-07)
(-1.09795e-07 -9.56776e-08 2.03723e-07)
(1.16196e-07 -1.56411e-07 2.0799e-07)
(5.70197e-08 -1.65948e-07 2.18273e-07)
(1.60752e-09 -1.61957e-07 2.13795e-07)
(-5.27339e-08 -1.64473e-07 2.15789e-07)
(-1.08629e-07 -1.54771e-07 2.04666e-07)
(4.06069e-08 2.48903e-08 9.26179e-09)
(0 0 0)
(0 0 0)
(0 0 0)
(-3.73133e-08 2.36244e-08 9.02688e-09)
(8.88867e-08 3.92808e-08 3.19017e-08)
(2.12589e-08 2.09006e-08 3.62682e-08)
(1.50994e-10 1.39591e-08 3.59015e-08)
(-2.0228e-08 1.98378e-08 3.58855e-08)
(-8.16902e-08 3.68984e-08 3.12212e-08)
(9.84155e-08 1.82874e-08 5.50847e-08)
(2.83039e-08 1.17092e-08 6.08996e-08)
(5.78283e-10 7.74747e-09 6.05566e-08)
(-2.63133e-08 1.06487e-08 6.03556e-08)
(-9.01032e-08 1.61944e-08 5.40974e-08)
(1.00638e-07 -6.55457e-10 7.30015e-08)
(2.90461e-08 -2.51517e-09 7.90078e-08)
(1.01804e-09 -4.40848e-09 7.85679e-08)
(-2.61789e-08 -3.46663e-09 7.8385e-08)
(-9.13415e-08 -2.49571e-09 7.18489e-08)
(1.02307e-07 -1.67604e-08 8.89204e-08)
(2.89256e-08 -1.87937e-08 9.47735e-08)
(1.40776e-09 -2.03614e-08 9.41199e-08)
(-2.52725e-08 -1.96237e-08 9.40834e-08)
(-9.20961e-08 -1.83702e-08 8.76242e-08)
(1.07522e-07 -3.24421e-08 1.05117e-07)
(3.08413e-08 -3.72954e-08 1.10743e-07)
(1.73787e-09 -3.94257e-08 1.09843e-07)
(-2.65133e-08 -3.79999e-08 1.09974e-07)
(-9.6501e-08 -3.37992e-08 1.03657e-07)
(1.19663e-07 -5.27525e-08 1.22555e-07)
(3.67958e-08 -6.06737e-08 1.27958e-07)
(1.98503e-09 -6.28215e-08 1.26917e-07)
(-3.19517e-08 -6.12166e-08 1.27094e-07)
(-1.07981e-07 -5.37735e-08 1.20903e-07)
(1.40678e-07 -9.57348e-08 1.38868e-07)
(4.65118e-08 -1.01487e-07 1.44163e-07)
(2.08402e-09 -1.01072e-07 1.4327e-07)
(-4.14092e-08 -1.01545e-07 1.43207e-07)
(-1.28515e-07 -9.59116e-08 1.37025e-07)
(1.18635e-07 -1.64595e-07 1.48287e-07)
(5.19574e-08 -1.96816e-07 1.4982e-07)
(2.00349e-09 -1.90211e-07 1.48954e-07)
(-4.69207e-08 -1.94254e-07 1.48854e-07)
(-1.09424e-07 -1.62464e-07 1.46598e-07)
(3.22093e-08 1.4082e-08 1.45429e-09)
(0 0 0)
(0 0 0)
(0 0 0)
(-2.89597e-08 1.29391e-08 1.4361e-09)
(7.00546e-08 1.90794e-08 1.12137e-08)
(1.42335e-08 5.46217e-09 1.70922e-08)
(2.54775e-10 -2.69606e-10 1.84458e-08)
(-1.30386e-08 4.57351e-09 1.70246e-08)
(-6.29113e-08 1.6887e-08 1.108e-08)
(7.68633e-08 1.47271e-09 2.82174e-08)
(1.90318e-08 -3.50294e-09 3.6017e-08)
(7.51151e-10 -6.82953e-09 3.7912e-08)
(-1.6757e-08 -4.46974e-09 3.58579e-08)
(-6.85318e-08 -5.39829e-10 2.79089e-08)
(7.8154e-08 -1.42368e-08 4.46571e-08)
(1.93099e-08 -1.56814e-08 5.28405e-08)
(1.24235e-09 -1.7365e-08 5.48581e-08)
(-1.60641e-08 -1.66007e-08 5.26133e-08)
(-6.87611e-08 -1.60796e-08 4.42071e-08)
(7.94394e-08 -2.80178e-08 5.95586e-08)
(1.9096e-08 -2.99495e-08 6.77327e-08)
(1.6757e-09 -3.14794e-08 6.9705e-08)
(-1.49796e-08 -3.07802e-08 6.74449e-08)
(-6.90451e-08 -2.96773e-08 5.89775e-08)
(8.45705e-08 -4.10565e-08 7.36522e-08)
(2.09806e-08 -4.59802e-08 8.17239e-08)
(2.04652e-09 -4.81508e-08 8.35937e-08)
(-1.61054e-08 -4.67064e-08 8.13682e-08)
(-7.32591e-08 -4.24969e-08 7.29267e-08)
(9.72824e-08 -5.68385e-08 8.66842e-08)
(2.70849e-08 -6.50377e-08 9.45639e-08)
(2.33398e-09 -6.72403e-08 9.63313e-08)
(-2.16056e-08 -6.56262e-08 9.4134e-08)
(-8.51809e-08 -5.79817e-08 8.58014e-08)
(1.20172e-07 -9.23355e-08 9.56878e-08)
(3.72396e-08 -9.82007e-08 1.03284e-07)
(2.47417e-09 -9.76374e-08 1.04992e-07)
(-3.14084e-08 -9.83387e-08 1.028e-07)
(-1.07445e-07 -9.2684e-08 9.46731e-08)
(1.02044e-07 -1.54253e-07 9.95846e-08)
(4.28537e-08 -1.82905e-07 1.02335e-07)
(2.4395e-09 -1.75162e-07 1.03984e-07)
(-3.69912e-08 -1.80429e-07 1.01881e-07)
(-9.21235e-08 -1.52279e-07 9.87069e-08)
(2.70957e-08 9.76901e-09 1.01261e-09)
(0 0 0)
(0 0 0)
(0 0 0)
(-2.39264e-08 8.65379e-09 1.01425e-09)
(5.85352e-08 1.01822e-08 7.99054e-09)
(9.74745e-09 -3.22988e-10 1.17838e-08)
(2.81575e-10 -5.18961e-09 1.30842e-08)
(-8.51958e-09 -1.17315e-09 1.17546e-08)
(-5.15288e-08 8.02642e-09 7.95031e-09)
(6.37819e-08 -7.46014e-09 2.12207e-08)
(1.30437e-08 -1.13629e-08 2.62925e-08)
(8.09377e-10 -1.42114e-08 2.81086e-08)
(-1.06773e-08 -1.23086e-08 2.62091e-08)
(-5.55309e-08 -9.47822e-09 2.10817e-08)
(6.48287e-08 -2.23287e-08 3.54753e-08)
(1.31002e-08 -2.3589e-08 4.07433e-08)
(1.33674e-09 -2.51352e-08 4.26812e-08)
(-9.6923e-09 -2.45137e-08 4.06044e-08)
(-5.54478e-08 -2.42206e-08 3.52252e-08)
(6.622e-08 -3.44451e-08 4.88145e-08)
(1.29618e-08 -3.64478e-08 5.39802e-08)
(1.80712e-09 -3.79925e-08 5.58947e-08)
(-8.60958e-09 -3.7308e-08 5.37866e-08)
(-5.5759e-08 -3.61904e-08 4.84489e-08)
(7.15941e-08 -4.48042e-08 6.06798e-08)
(1.49527e-08 -4.98789e-08 6.5693e-08)
(2.21404e-09 -5.21209e-08 6.75391e-08)
(-9.76695e-09 -5.06548e-08 6.54415e-08)
(-6.01224e-08 -4.63622e-08 6.0191e-08)
(8.47694e-08 -5.68312e-08 7.01161e-08)
(2.11988e-08 -6.52254e-08 7.49807e-08)
(2.53657e-09 -6.75274e-08 7.67486e-08)
(-1.53326e-08 -6.58825e-08 7.4673e-08)
(-7.23954e-08 -5.81217e-08 6.95036e-08)
(1.08282e-07 -8.78008e-08 7.49814e-08)
(3.1509e-08 -9.38935e-08 7.97603e-08)
(2.71204e-09 -9.34635e-08 8.14755e-08)
(-2.52118e-08 -9.41145e-08 7.94205e-08)
(-9.51592e-08 -8.8318e-08 7.42777e-08)
(9.20573e-08 -1.45938e-07 7.60491e-08)
(3.72949e-08 -1.73262e-07 7.80628e-08)
(2.71731e-09 -1.65608e-07 7.988e-08)
(-3.0882e-08 -1.70886e-07 7.77557e-08)
(-8.16347e-08 -1.44125e-07 7.54484e-08)
(2.44755e-08 8.11999e-09 1.3262e-09)
(0 0 0)
(0 0 0)
(0 0 0)
(-2.13695e-08 7.01494e-09 1.32754e-09)
(5.26728e-08 6.74066e-09 7.36458e-09)
(7.82298e-09 -2.30836e-09 9.17369e-09)
(2.8648e-10 -6.6927e-09 9.94981e-09)
(-6.59873e-09 -3.15713e-09 9.15383e-09)
(-4.57891e-08 4.58613e-09 7.34681e-09)
(5.72698e-08 -1.11816e-08 1.77884e-08)
(1.04981e-08 -1.46196e-08 2.01786e-08)
(8.26541e-10 -1.72102e-08 2.12564e-08)
(-8.11204e-09 -1.55752e-08 2.01257e-08)
(-4.91191e-08 -1.32331e-08 1.77155e-08)
(5.84416e-08 -2.59788e-08 2.92129e-08)
(1.05767e-08 -2.72609e-08 3.16096e-08)
(1.37589e-09 -2.87533e-08 3.27419e-08)
(-7.10461e-09 -2.82089e-08 3.15169e-08)
(-4.9115e-08 -2.79335e-08 2.90632e-08)
(6.01557e-08 -3.7218e-08 4.00758e-08)
(1.06269e-08 -3.93789e-08 4.23102e-08)
(1.8739e-09 -4.09618e-08 4.34042e-08)
(-6.15466e-09 -4.02768e-08 4.2174e-08)
(-4.96878e-08 -3.90519e-08 3.98366e-08)
(6.58566e-08 -4.59167e-08 4.93765e-08)
(1.27878e-08 -5.1137e-08 5.14489e-08)
(2.31031e-09 -5.34458e-08 5.24824e-08)
(-7.42107e-09 -5.19643e-08 5.12671e-08)
(-5.43039e-08 -4.75857e-08 4.90407e-08)
(7.92818e-08 -5.59251e-08 5.60787e-08)
(1.91131e-08 -6.44147e-08 5.80682e-08)
(2.66233e-09 -6.68164e-08 5.90487e-08)
(-1.3003e-08 -6.51338e-08 5.78449e-08)
(-6.67395e-08 -5.73436e-08 5.56493e-08)
(1.02814e-07 -8.47585e-08 5.89953e-08)
(2.93817e-08 -9.10506e-08 6.10347e-08)
(2.86719e-09 -9.08375e-08 6.20032e-08)
(-2.27764e-08 -9.1338e-08 6.07905e-08)
(-8.94264e-08 -8.54106e-08 5.85009e-08)
(8.76778e-08 -1.40747e-07 5.90969e-08)
(3.52758e-08 -1.67427e-07 6.00011e-08)
(2.90389e-09 -1.60187e-07 6.11158e-08)
(-2.84887e-08 -1.65125e-07 5.9783e-08)
(-7.69108e-08 -1.39056e-07 5.86742e-08)
(2.31813e-08 7.47866e-09 1.29679e-09)
(0 0 0)
(0 0 0)
(0 0 0)
(-2.01177e-08 6.38134e-09 1.29732e-09)
(4.98762e-08 5.51666e-09 6.20012e-09)
(7.18778e-09 -2.97881e-09 6.93762e-09)
(2.8597e-10 -7.13378e-09 7.3102e-09)
(-5.97331e-09 -3.83083e-09 6.92427e-09)
(-4.30797e-08 3.36146e-09 6.19074e-09)
(5.43374e-08 -1.23736e-08 1.39965e-08)
(9.72245e-09 -1.56954e-08 1.49211e-08)
(8.30392e-10 -1.81801e-08 1.54265e-08)
(-7.33837e-09 -1.66656e-08 1.48876e-08)
(-4.6267e-08 -1.44552e-08 1.39563e-08)
(5.57442e-08 -2.71077e-08 2.24105e-08)
(9.92374e-09 -2.84974e-08 2.32587e-08)
(1.3922e-09 -2.99904e-08 2.37695e-08)
(-6.42823e-09 -2.94701e-08 2.3199e-08)
(-4.64705e-08 -2.91163e-08 2.23215e-08)
(5.77799e-08 -3.79431e-08 3.04213e-08)
(1.01626e-08 -4.02587e-08 3.11191e-08)
(1.90893e-09 -4.18856e-08 3.15875e-08)
(-5.62874e-09 -4.11906e-08 3.10286e-08)
(-4.73225e-08 -3.98502e-08 3.02702e-08)
(6.37445e-08 -4.59049e-08 3.71415e-08)
(1.24671e-08 -5.12265e-08 3.77157e-08)
(2.36729e-09 -5.35859e-08 3.81368e-08)
(-6.99361e-09 -5.20961e-08 3.75924e-08)
(-5.21483e-08 -4.76622e-08 3.69212e-08)
(7.72669e-08 -5.51265e-08 4.17649e-08)
(1.88185e-08 -6.36433e-08 4.2306e-08)
(2.74225e-09 -6.61136e-08 4.26971e-08)
(-1.25533e-08 -6.44099e-08 4.21534e-08)
(-6.46177e-08 -5.66426e-08 4.1478e-08)
(1.00629e-07 -8.30557e-08 4.3691e-08)
(2.89909e-08 -8.94563e-08 4.43157e-08)
(2.97003e-09 -8.9406e-08 4.47148e-08)
(-2.21815e-08 -8.97922e-08 4.41489e-08)
(-8.70656e-08 -8.38066e-08 4.33585e-08)
(8.61214e-08 -1.37756e-07 4.36156e-08)
(3.4928e-08 -1.64024e-07 4.3849e-08)
(3.03008e-09 -1.57132e-07 4.43579e-08)
(-2.78879e-08 -1.61772e-07 4.37008e-08)
(-7.51222e-08 -1.36152e-07 4.33303e-08)
(2.25279e-08 7.22272e-09 9.79101e-10)
(0 0 0)
(0 0 0)
(0 0 0)
(-1.94901e-08 6.13105e-09 9.79326e-10)
(4.85266e-08 5.12578e-09 4.40122e-09)
(7.01217e-09 -3.18192e-09 4.68314e-09)
(2.84377e-10 -7.23619e-09 4.84137e-09)
(-5.80601e-09 -4.0362e-09 4.67512e-09)
(-4.17846e-08 2.97123e-09 4.39624e-09)
(5.3028e-08 -1.2574e-08 9.58287e-09)
(9.56579e-09 -1.59069e-08 9.90082e-09)
(8.30095e-10 -1.83589e-08 1.01059e-08)
(-7.18807e-09 -1.6888e-08 9.88116e-09)
(-4.50106e-08 -1.46755e-08 9.56112e-09)
(5.46398e-08 -2.71731e-08 1.50679e-08)
(9.88683e-09 -2.86691e-08 1.5308e-08)
(1.39859e-09 -3.01817e-08 1.55009e-08)
(-6.38392e-09 -2.96606e-08 1.52727e-08)
(-4.54039e-08 -2.92194e-08 1.50179e-08)
(5.6907e-08 -3.78284e-08 2.02639e-08)
(1.02617e-08 -4.02555e-08 2.04003e-08)
(1.92692e-09 -4.19189e-08 2.05605e-08)
(-5.69675e-09 -4.12127e-08 2.03458e-08)
(-4.64605e-08 -3.97873e-08 2.01757e-08)
(6.30389e-08 -4.55591e-08 2.45811e-08)
(1.26585e-08 -5.09389e-08 2.46424e-08)
(2.4e-09 -5.33309e-08 2.47723e-08)
(-7.12367e-09 -5.18385e-08 2.4567e-08)
(-5.14176e-08 -4.73783e-08 2.44491e-08)
(7.65852e-08 -5.45826e-08 2.75089e-08)
(1.90116e-08 -6.30948e-08 2.75617e-08)
(2.79102e-09 -6.5602e-08 2.76772e-08)
(-1.26517e-08 -6.38941e-08 2.74676e-08)
(-6.38687e-08 -5.61657e-08 2.73343e-08)
(9.97754e-08 -8.21549e-08 2.87483e-08)
(2.91009e-08 -8.85935e-08 2.88681e-08)
(3.03496e-09 -8.86331e-08 2.89947e-08)
(-2.21626e-08 -8.89619e-08 2.87651e-08)
(-8.60988e-08 -8.29726e-08 2.85446e-08)
(8.56141e-08 -1.36095e-07 2.87066e-08)
(3.50418e-08 -1.62076e-07 2.86967e-08)
(3.11095e-09 -1.55391e-07 2.88853e-08)
(-2.78395e-08 -1.59857e-07 2.86053e-08)
(-7.44653e-08 -1.34548e-07 2.85313e-08)
(2.22105e-08 7.12145e-09 5.17211e-10)
(0 0 0)
(0 0 0)
(0 0 0)
(-1.91865e-08 6.03307e-09 5.17316e-10)
(4.78895e-08 5.02169e-09 2.26515e-09)
(6.9645e-09 -3.22317e-09 2.36285e-09)
(2.83092e-10 -7.23577e-09 2.41975e-09)
(-5.7635e-09 -4.07859e-09 2.35913e-09)
(-4.11771e-08 2.86798e-09 2.26299e-09)
(5.24436e-08 -1.25034e-08 4.84683e-09)
(9.55358e-09 -1.58653e-08 4.94441e-09)
(8.29056e-10 -1.83107e-08 5.01426e-09)
(-7.18082e-09 -1.68527e-08 4.93535e-09)
(-4.44556e-08 -1.46157e-08 4.83722e-09)
(5.41807e-08 -2.69798e-08 7.54359e-09)
(9.95007e-09 -2.85442e-08 7.5976e-09)
(1.4008e-09 -3.0074e-08 7.65761e-09)
(-6.44541e-09 -2.95468e-08 7.58125e-09)
(-4.49665e-08 -2.90477e-08 7.52102e-09)
(5.65784e-08 -3.75572e-08 1.00854e-08)
(1.04015e-08 -4.00474e-08 1.00888e-08)
(1.93535e-09 -4.17334e-08 1.01318e-08)
(-5.82202e-09 -4.10195e-08 1.00633e-08)
(-4.6139e-08 -3.95462e-08 1.00449e-08)
(6.27972e-08 -4.52485e-08 1.21893e-08)
(1.28464e-08 -5.06565e-08 1.21586e-08)
(2.41676e-09 -5.30657e-08 1.21872e-08)
(-7.27998e-09 -5.15737e-08 1.2123e-08)
(-5.11628e-08 -4.71037e-08 1.21276e-08)
(7.63435e-08 -5.42679e-08 1.3614e-08)
(1.91956e-08 -6.2769e-08 1.35825e-08)
(2.81717e-09 -6.52923e-08 1.36057e-08)
(-1.27846e-08 -6.35871e-08 1.35379e-08)
(-6.35899e-08 -5.58898e-08 1.35316e-08)
(9.94218e-08 -8.1713e-08 1.42312e-08)
(2.92339e-08 -8.81572e-08 1.42348e-08)
(3.07064e-09 -8.82369e-08 1.42646e-08)
(-2.22246e-08 -8.85442e-08 1.41858e-08)
(-8.56817e-08 -8.25691e-08 1.41347e-08)
(8.54323e-08 -1.35255e-07 1.42253e-08)
(3.51661e-08 -1.61062e-07 1.41858e-08)
(3.15585e-09 -1.54474e-07 1.4242e-08)
(-2.78735e-08 -1.58861e-07 1.41424e-08)
(-7.41997e-08 -1.33741e-07 1.41421e-08)
(1.80549e-08 7.21447e-09 0)
(2.39366e-09 1.38736e-09 0)
(1.49481e-11 -1.01132e-09 0)
(-2.09096e-09 1.01441e-09 0)
(-1.56582e-08 6.07027e-09 0)
(3.05821e-08 2.80736e-09 0)
(6.95346e-09 -3.22538e-09 0)
(2.8262e-10 -7.2265e-09 0)
(-5.75419e-09 -4.08114e-09 0)
(-2.63139e-08 1.03957e-09 0)
(3.49209e-08 -1.30329e-08 0)
(9.55595e-09 -1.5828e-08 0)
(8.28595e-10 -1.82728e-08 0)
(-7.18498e-09 -1.68174e-08 0)
(-2.93892e-08 -1.48518e-08 0)
(3.60721e-08 -2.70312e-08 0)
(9.97717e-09 -2.84706e-08 0)
(1.40131e-09 -3.00067e-08 0)
(-6.4723e-09 -2.94768e-08 0)
(-2.93649e-08 -2.88302e-08 0)
(3.7621e-08 -3.79671e-08 0)
(1.04528e-08 -3.99488e-08 0)
(1.93781e-09 -4.16422e-08 0)
(-5.86908e-09 -4.09258e-08 0)
(-2.97566e-08 -3.97032e-08 0)
(4.25283e-08 -4.67456e-08 0)
(1.29123e-08 -5.05466e-08 0)
(2.42191e-09 -5.29611e-08 0)
(-7.33621e-09 -5.14696e-08 0)
(-3.35548e-08 -4.83735e-08 0)
(5.39757e-08 -5.72513e-08 0)
(1.92596e-08 -6.26602e-08 0)
(2.82539e-09 -6.51878e-08 0)
(-1.28326e-08 -6.34845e-08 0)
(-4.39912e-08 -5.86869e-08 0)
(7.31692e-08 -8.48034e-08 0)
(2.92811e-08 -8.80221e-08 0)
(3.082e-09 -8.81127e-08 0)
(-2.22492e-08 -8.84151e-08 0)
(-6.2339e-08 -8.55342e-08 0)
(7.55462e-08 -1.26157e-07 0)
(3.50665e-08 -1.33588e-07 0)
(3.16621e-09 -1.29285e-07 0)
(-2.77778e-08 -1.32505e-07 0)
(-6.53108e-08 -1.25172e-07 0)
)
;

boundaryField
{
    interface
    {
        type            calculated;
    }
    symmetry
    {
        type            symmetry;
    }
    bottom
    {
        type            calculated;
    }
}


// ************************************************************************* //
