/*--------------------------------*- C++ -*----------------------------------*\
| =========                 |                                                 |
| \\      /  F ield         | OpenFOAM: The Open Source CFD Toolbox           |
|  \\    /   O peration     | Version:  v1912                                 |
|   \\  /    A nd           | Website:  www.openfoam.com                      |
|    \\/     M anipulation  |                                                 |
\*---------------------------------------------------------------------------*/
FoamFile
{
    version     2.0;
    format      ascii;
    class       volScalarField;
    location    "0.96/solid";
    object      sigmaHyd;
}
// * * * * * * * * * * * * * * * * * * * * * * * * * * * * * * * * * * * * * //

dimensions      [1 -1 -2 0 0 0 0];


internalField   nonuniform List<scalar> 
256
(
-718001
-392186
-383418
-666621
-1.11444e+06
-705519
-691986
-1.04779e+06
-1.17145e+06
-767135
-752813
-1.10269e+06
-1.19365e+06
-791077
-776439
-1.1236e+06
-1.23718e+06
-826679
-811769
-1.16579e+06
-1.3366e+06
-909436
-894131
-1.26357e+06
-1.58057e+06
-1.12975e+06
-1.1129e+06
-1.50298e+06
-2.14722e+06
-1.6721e+06
-1.64722e+06
-2.04718e+06
-391392
-145284
-142833
-358969
-654608
-325557
-319615
-610286
-702110
-380756
-374147
-656100
-721611
-405407
-398555
-674542
-754058
-432695
-425665
-705844
-831709
-493048
-485740
-782012
-1.04452e+06
-670179
-661447
-990318
-1.5817e+06
-1.13016e+06
-1.11316e+06
-1.50346e+06
-307324
-94588.3
-92862.5
-277909
-488069
-200836
-196263
-448373
-522646
-241759
-236592
-481389
-539406
-262908
-257491
-497037
-567469
-285934
-280321
-523833
-636149
-336597
-330677
-590812
-832234
-492785
-485404
-782067
-1.33815e+06
-909415
-893835
-1.26385e+06
-284784
-87628.7
-86015.6
-256393
-434997
-169375
-165080
-396829
-462593
-201774
-196912
-422910
-477413
-219707
-214585
-436559
-503533
-240301
-234960
-461297
-568232
-286656
-280976
-524112
-754699
-432464
-425285
-705489
-1.2378e+06
-825277
-809937
-1.16437e+06
-276070
-86977.4
-85431.3
-248312
-415650
-160573
-156409
-378359
-440163
-188669
-183951
-401387
-453650
-204288
-199305
-413670
-478496
-223118
-217901
-437061
-540872
-267041
-261465
-497434
-721513
-407398
-400296
-672813
-1.19045e+06
-787826
-772564
-1.11742e+06
-270976
-86852.9
-85356.6
-243617
-406367
-157233
-153157
-369624
-429548
-183222
-178601
-391344
-442170
-197407
-192519
-402746
-466099
-215037
-209908
-425174
-526992
-257500
-251998
-483990
-704123
-394852
-387806
-655753
-1.16443e+06
-768229
-753014
-1.09163e+06
-267684
-86669.3
-85204.2
-240557
-401179
-155675
-151654
-364755
-423760
-180665
-176103
-385889
-435865
-194057
-189228
-396768
-459199
-210971
-205897
-418576
-519206
-252603
-247150
-476464
-694341
-388307
-381299
-646170
-1.14958e+06
-757539
-742353
-1.07691e+06
-266017
-86518.7
-85068.4
-238995
-398715
-155004
-151009
-362438
-421050
-179591
-175058
-383333
-432913
-192636
-187836
-393967
-455958
-209220
-204173
-415475
-515553
-250476
-245046
-472931
-689779
-385436
-378445
-641701
-1.14264e+06
-752692
-737520
-1.07004e+06
)
;

boundaryField
{
    interface
    {
        type            zeroGradient;
    }
    symmetry
    {
        type            symmetry;
    }
    bottom
    {
        type            zeroGradient;
    }
}


// ************************************************************************* //
