/*--------------------------------*- C++ -*----------------------------------*\
| =========                 |                                                 |
| \\      /  F ield         | OpenFOAM: The Open Source CFD Toolbox           |
|  \\    /   O peration     | Version:  v1912                                 |
|   \\  /    A nd           | Website:  www.openfoam.com                      |
|    \\/     M anipulation  |                                                 |
\*---------------------------------------------------------------------------*/
FoamFile
{
    version     2.0;
    format      ascii;
    class       volScalarField;
    location    "0.96/solid";
    object      T;
}
// * * * * * * * * * * * * * * * * * * * * * * * * * * * * * * * * * * * * * //

dimensions      [0 0 0 1 0 0 0];


internalField   nonuniform List<scalar> 
256
(
291.356
292.013
292.028
291.434
290.808
291.639
291.659
290.905
290.704
291.569
291.589
290.805
290.643
291.531
291.552
290.747
290.559
291.477
291.499
290.665
290.404
291.365
291.387
290.512
290.02
291.025
291.049
290.134
288.909
289.868
289.905
289.058
292.095
292.707
292.712
292.146
291.754
292.557
292.564
291.816
291.688
292.529
292.537
291.753
291.651
292.517
292.525
291.718
291.598
292.499
292.507
291.667
291.488
292.441
292.45
291.559
291.154
292.172
292.182
291.231
290.019
291.024
291.048
290.134
292.292
292.846
292.85
292.339
292.031
292.764
292.769
292.087
291.979
292.749
292.754
292.038
291.948
292.742
292.747
292.008
291.901
292.729
292.735
291.964
291.801
292.684
292.69
291.866
291.487
292.441
292.449
291.558
290.401
291.364
291.386
290.511
292.358
292.871
292.875
292.403
292.121
292.803
292.808
292.176
292.074
292.79
292.795
292.13
292.044
292.784
292.789
292.102
291.998
292.772
292.778
292.058
291.9
292.729
292.735
291.963
291.596
292.498
292.506
291.666
290.553
291.474
291.496
290.663
292.389
292.878
292.882
292.433
292.163
292.813
292.818
292.216
292.116
292.801
292.805
292.172
292.087
292.794
292.8
292.144
292.042
292.783
292.789
292.101
291.945
292.741
292.747
292.007
291.647
292.516
292.524
291.716
290.633
291.525
291.548
290.742
292.407
292.881
292.885
292.45
292.186
292.818
292.822
292.238
292.14
292.805
292.81
292.195
292.111
292.799
292.804
292.167
292.066
292.788
292.793
292.124
291.969
292.746
292.752
292.031
291.675
292.525
292.533
291.744
290.681
291.555
291.577
290.789
292.416
292.883
292.886
292.46
292.198
292.82
292.825
292.251
292.153
292.808
292.812
292.208
292.124
292.802
292.807
292.18
292.079
292.791
292.796
292.137
291.983
292.749
292.755
292.044
291.691
292.53
292.538
291.76
290.708
291.571
291.593
290.817
292.421
292.883
292.887
292.464
292.204
292.821
292.826
292.256
292.159
292.809
292.813
292.213
292.13
292.803
292.808
292.186
292.085
292.792
292.797
292.143
291.989
292.75
292.756
292.051
291.699
292.532
292.54
291.768
290.721
291.579
291.601
290.829
)
;

boundaryField
{
    interface
    {
        type            fixedValue;
        value           nonuniform List<scalar> 
192
(
290.118
289.756
289.644
289.549
289.419
289.204
288.778
287.816
290.886
290.646
290.561
290.485
290.377
290.189
289.783
288.775
291.197
291.009
290.935
290.865
290.763
290.582
290.185
289.196
291.345
291.175
291.106
291.039
290.938
290.758
290.368
289.405
291.428
291.265
291.199
291.132
291.032
290.853
290.468
289.526
291.477
291.318
291.253
291.186
291.086
290.909
290.527
289.599
291.505
291.348
291.283
291.217
291.117
290.94
290.561
289.642
291.518
291.362
291.297
291.231
291.131
290.954
290.577
289.662
290.085
289.727
289.613
289.518
289.388
289.174
288.749
287.793
290.737
290.478
290.386
290.309
290.202
290.015
289.609
288.597
290.785
290.53
290.44
290.365
290.259
290.073
289.669
288.669
290.259
289.916
289.809
289.719
289.593
289.383
288.966
288.038
290.372
290.032
289.926
289.837
289.712
289.503
289.088
288.162
291.11
290.883
290.803
290.733
290.63
290.449
290.055
289.086
291.41
291.234
291.165
291.101
291.005
290.832
290.448
289.5
291.553
291.394
291.33
291.268
291.174
291.004
290.627
289.707
291.632
291.48
291.419
291.358
291.264
291.095
290.725
289.826
291.679
291.53
291.47
291.409
291.317
291.149
290.783
289.899
291.706
291.559
291.499
291.439
291.346
291.179
290.816
289.941
291.718
291.572
291.512
291.452
291.36
291.193
290.831
289.961
287.79
288.743
289.164
289.373
289.493
289.566
289.609
289.629
288.595
289.604
290.008
290.19
290.29
290.349
290.383
290.399
288.667
289.665
290.067
290.249
290.348
290.407
290.441
290.457
288.037
288.963
289.377
289.584
289.704
289.777
289.819
289.839
)
;
    }
    symmetry
    {
        type            symmetry;
    }
    bottom
    {
        type            fixedValue;
        value           uniform 293;
    }
}


// ************************************************************************* //
