/*--------------------------------*- C++ -*----------------------------------*\
| =========                 |                                                 |
| \\      /  F ield         | OpenFOAM: The Open Source CFD Toolbox           |
|  \\    /   O peration     | Version:  v1912                                 |
|   \\  /    A nd           | Website:  www.openfoam.com                      |
|    \\/     M anipulation  |                                                 |
\*---------------------------------------------------------------------------*/
FoamFile
{
    version     2.0;
    format      ascii;
    class       volVectorField;
    location    "0.96/solid";
    object      U;
}
// * * * * * * * * * * * * * * * * * * * * * * * * * * * * * * * * * * * * * //

dimensions      [0 1 -1 0 0 0 0];


internalField   nonuniform List<vector> 
256
(
(1.7294e-08 1.91213e-08 2.28198e-08)
(4.12539e-09 1.29221e-08 2.24365e-08)
(-6.00333e-09 1.22722e-08 2.15264e-08)
(-1.71137e-08 1.70121e-08 2.01172e-08)
(3.32828e-08 1.80319e-08 5.54875e-08)
(8.49726e-09 1.2117e-08 5.46953e-08)
(-1.30239e-08 1.19514e-08 5.27833e-08)
(-3.48529e-08 1.79423e-08 4.97537e-08)
(3.7263e-08 3.38848e-09 7.96118e-08)
(8.95545e-09 7.45271e-10 7.81042e-08)
(-1.65357e-08 1.34873e-09 7.55944e-08)
(-4.1794e-08 5.7057e-09 7.20658e-08)
(3.64601e-08 -1.45188e-08 9.96801e-08)
(7.28925e-09 -1.52567e-08 9.72575e-08)
(-1.88368e-08 -1.38898e-08 9.43208e-08)
(-4.49084e-08 -1.00044e-08 9.084e-08)
(3.56249e-08 -3.43811e-08 1.18843e-07)
(5.28532e-09 -3.48112e-08 1.15461e-07)
(-2.18105e-08 -3.2717e-08 1.12165e-07)
(-4.89831e-08 -2.77953e-08 1.08915e-07)
(3.76948e-08 -5.87218e-08 1.38856e-07)
(4.0924e-09 -5.90677e-08 1.34763e-07)
(-2.66792e-08 -5.62382e-08 1.31128e-07)
(-5.70293e-08 -5.00367e-08 1.27909e-07)
(4.33874e-08 -9.29603e-08 1.58914e-07)
(3.88537e-09 -9.18701e-08 1.551e-07)
(-3.37771e-08 -8.8195e-08 1.51132e-07)
(-6.98155e-08 -8.1849e-08 1.46985e-07)
(4.77753e-08 -1.34643e-07 1.72811e-07)
(3.03082e-09 -1.31467e-07 1.70349e-07)
(-4.16745e-08 -1.26581e-07 1.66112e-07)
(-8.24446e-08 -1.19944e-07 1.60136e-07)
(1.23073e-08 7.26734e-09 1.07641e-08)
(2.89603e-09 1.77855e-09 1.15845e-08)
(-3.68168e-09 1.58226e-09 1.11582e-08)
(-1.13216e-08 6.12805e-09 9.50948e-09)
(2.4473e-08 7.95191e-10 3.31846e-08)
(6.26475e-09 -4.32575e-09 3.47651e-08)
(-8.14737e-09 -4.10551e-09 3.35983e-08)
(-2.38433e-08 1.43525e-09 2.9792e-08)
(2.74031e-08 -1.30764e-08 5.39361e-08)
(6.64489e-09 -1.52894e-08 5.5536e-08)
(-1.04361e-08 -1.44495e-08 5.38439e-08)
(-2.8658e-08 -1.03771e-08 4.89952e-08)
(2.63999e-08 -2.93387e-08 7.25455e-08)
(5.21221e-09 -2.99434e-08 7.37827e-08)
(-1.20725e-08 -2.84342e-08 7.17046e-08)
(-3.07236e-08 -2.46418e-08 6.6439e-08)
(2.55924e-08 -4.73871e-08 9.00661e-08)
(3.48622e-09 -4.7944e-08 9.07749e-08)
(-1.45803e-08 -4.57599e-08 8.83709e-08)
(-3.41116e-08 -4.07243e-08 8.29692e-08)
(2.81455e-08 -6.86821e-08 1.07093e-07)
(2.66768e-09 -6.93839e-08 1.07242e-07)
(-1.91789e-08 -6.65095e-08 1.04538e-07)
(-4.20034e-08 -6.0016e-08 9.90873e-08)
(3.55205e-08 -9.76437e-08 1.22239e-07)
(3.12349e-09 -9.66379e-08 1.22006e-07)
(-2.63782e-08 -9.30006e-08 1.19048e-07)
(-5.58777e-08 -8.67399e-08 1.13449e-07)
(4.25643e-08 -1.3431e-07 1.31141e-07)
(3.0381e-09 -1.29724e-07 1.30775e-07)
(-3.45887e-08 -1.25027e-07 1.27711e-07)
(-7.06125e-08 -1.20152e-07 1.21983e-07)
(7.38509e-09 2.60703e-09 5.48797e-09)
(1.53779e-09 -1.6978e-09 6.81875e-09)
(-1.80241e-09 -1.847e-09 6.52929e-09)
(-5.94954e-09 1.40514e-09 4.66192e-09)
(1.53281e-08 -7.93093e-09 2.06733e-08)
(3.63192e-09 -1.20259e-08 2.32569e-08)
(-3.99357e-09 -1.17806e-08 2.24511e-08)
(-1.33145e-08 -7.48087e-09 1.83824e-08)
(1.71861e-08 -2.27509e-08 3.75186e-08)
(3.81475e-09 -2.45843e-08 4.03967e-08)
(-5.16947e-09 -2.37694e-08 3.91781e-08)
(-1.61815e-08 -2.03511e-08 3.40205e-08)
(1.61491e-08 -3.82455e-08 5.39302e-08)
(2.5922e-09 -3.89053e-08 5.66497e-08)
(-6.21613e-09 -3.74663e-08 5.50989e-08)
(-1.74424e-08 -3.39304e-08 4.94315e-08)
(1.55462e-08 -5.42297e-08 6.92365e-08)
(1.14856e-09 -5.50976e-08 7.16121e-08)
(-8.32173e-09 -5.30187e-08 6.97738e-08)
(-2.03643e-08 -4.80103e-08 6.38619e-08)
(1.86057e-08 -7.2004e-08 8.2854e-08)
(6.93681e-10 -7.31694e-08 8.47918e-08)
(-1.26992e-08 -7.04371e-08 8.26992e-08)
(-2.81712e-08 -6.3853e-08 7.66988e-08)
(2.7147e-08 -9.60228e-08 9.30991e-08)
(1.71708e-09 -9.5348e-08 9.45421e-08)
(-1.99617e-08 -9.19035e-08 9.22634e-08)
(-4.26753e-08 -8.57421e-08 8.63405e-08)
(3.58637e-08 -1.27823e-07 9.69333e-08)
(2.24974e-09 -1.22875e-07 9.79664e-08)
(-2.83307e-08 -1.18424e-07 9.56627e-08)
(-5.85743e-08 -1.14403e-07 9.00112e-08)
(4.67467e-09 6.13347e-10 4.0189e-09)
(7.94103e-10 -2.73335e-09 5.05089e-09)
(-8.02854e-10 -2.91873e-09 4.83654e-09)
(-2.96284e-09 -7.87974e-10 3.42169e-09)
(1.02509e-08 -1.15483e-08 1.53427e-08)
(2.16966e-09 -1.48688e-08 1.73209e-08)
(-1.66358e-09 -1.47273e-08 1.67406e-08)
(-7.36205e-09 -1.15245e-08 1.37194e-08)
(1.16611e-08 -2.7071e-08 2.85935e-08)
(2.32891e-09 -2.86845e-08 3.07698e-08)
(-2.15198e-09 -2.80096e-08 2.98839e-08)
(-9.13838e-09 -2.51946e-08 2.60804e-08)
(1.09178e-08 -4.21729e-08 4.20682e-08)
(1.39196e-09 -4.29686e-08 4.40869e-08)
(-2.83927e-09 -4.16926e-08 4.2937e-08)
(-1.00628e-08 -3.84291e-08 3.87607e-08)
(1.07756e-08 -5.65914e-08 5.4552e-08)
(2.88123e-10 -5.77644e-08 5.62788e-08)
(-4.69977e-09 -5.58674e-08 5.48926e-08)
(-1.28653e-08 -5.09755e-08 5.05229e-08)
(1.43245e-08 -7.17994e-08 6.4911e-08)
(1.57589e-10 -7.3361e-08 6.63019e-08)
(-8.8882e-09 -7.0829e-08 6.47112e-08)
(-2.06407e-08 -6.42828e-08 6.0246e-08)
(2.33381e-08 -9.26519e-08 7.15932e-08)
(1.48148e-09 -9.24531e-08 7.26362e-08)
(-1.59979e-08 -8.92247e-08 7.09083e-08)
(-3.51459e-08 -8.30328e-08 6.64649e-08)
(3.25101e-08 -1.21638e-07 7.28593e-08)
(2.28874e-09 -1.1724e-07 7.36903e-08)
(-2.4215e-08 -1.13008e-07 7.19631e-08)
(-5.10564e-08 -1.08882e-07 6.76454e-08)
(3.59497e-09 -1.70914e-10 3.33838e-09)
(5.44977e-10 -3.00348e-09 3.89766e-09)
(-4.18004e-10 -3.22584e-09 3.74346e-09)
(-1.71116e-09 -1.73101e-09 2.91573e-09)
(8.3129e-09 -1.2692e-08 1.19642e-08)
(1.72228e-09 -1.56346e-08 1.29952e-08)
(-7.03575e-10 -1.56037e-08 1.25842e-08)
(-4.87273e-09 -1.30508e-08 1.08294e-08)
(9.75104e-09 -2.83031e-08 2.19421e-08)
(2.00962e-09 -2.98841e-08 2.30065e-08)
(-8.63479e-10 -2.93599e-08 2.23783e-08)
(-6.23367e-09 -2.69226e-08 2.0178e-08)
(9.42654e-09 -4.30401e-08 3.21906e-08)
(1.36967e-09 -4.40191e-08 3.30766e-08)
(-1.36512e-09 -4.29131e-08 3.22527e-08)
(-7.10376e-09 -3.98425e-08 2.98391e-08)
(9.77292e-09 -5.64766e-08 4.16017e-08)
(5.84199e-10 -5.7912e-08 4.22399e-08)
(-3.07866e-09 -5.61958e-08 4.1236e-08)
(-9.93234e-09 -5.14281e-08 3.86993e-08)
(1.36912e-08 -7.02516e-08 4.90547e-08)
(7.05746e-10 -7.21041e-08 4.94534e-08)
(-7.09329e-09 -6.97589e-08 4.82942e-08)
(-1.76474e-08 -6.33082e-08 4.56647e-08)
(2.28138e-08 -8.95532e-08 5.33858e-08)
(2.16991e-09 -8.97501e-08 5.35907e-08)
(-1.39577e-08 -8.67072e-08 5.23308e-08)
(-3.18675e-08 -8.04957e-08 4.96472e-08)
(3.19609e-08 -1.17249e-07 5.37512e-08)
(3.08335e-09 -1.13497e-07 5.39034e-08)
(-2.19205e-08 -1.0944e-07 5.26494e-08)
(-4.73858e-08 -1.05023e-07 4.99572e-08)
(3.25138e-09 -4.38632e-10 2.56952e-09)
(5.11527e-10 -3.05194e-09 2.81231e-09)
(-3.10539e-10 -3.30095e-09 2.70921e-09)
(-1.26354e-09 -2.10628e-09 2.29011e-09)
(7.79636e-09 -1.2822e-08 8.73873e-09)
(1.72416e-09 -1.56445e-08 9.14815e-09)
(-4.01288e-10 -1.56975e-08 8.87481e-09)
(-4.01687e-09 -1.34579e-08 7.99131e-09)
(9.43294e-09 -2.81746e-08 1.56867e-08)
(2.17845e-09 -2.98241e-08 1.60434e-08)
(-4.28678e-10 -2.94194e-08 1.56251e-08)
(-5.28515e-09 -2.71726e-08 1.4522e-08)
(9.47978e-09 -4.25405e-08 2.27817e-08)
(1.78121e-09 -4.3697e-08 2.298e-08)
(-8.3675e-10 -4.27285e-08 2.24283e-08)
(-6.19683e-09 -3.97716e-08 2.12176e-08)
(1.02047e-08 -5.54206e-08 2.92321e-08)
(1.23892e-09 -5.70565e-08 2.92468e-08)
(-2.45211e-09 -5.54853e-08 2.85701e-08)
(-9.06504e-09 -5.08193e-08 2.72848e-08)
(1.43639e-08 -6.85435e-08 3.42017e-08)
(1.53843e-09 -7.05886e-08 3.40618e-08)
(-6.31977e-09 -6.83891e-08 3.32766e-08)
(-1.66948e-08 -6.20449e-08 3.19119e-08)
(2.34834e-08 -8.72279e-08 3.69349e-08)
(3.07947e-09 -8.76789e-08 3.6697e-08)
(-1.29608e-08 -8.4776e-08 3.58421e-08)
(-3.06083e-08 -7.85945e-08 3.44003e-08)
(3.2519e-08 -1.14349e-07 3.70402e-08)
(4.04473e-09 -1.11041e-07 3.68058e-08)
(-2.06978e-08 -1.07112e-07 3.59559e-08)
(-4.57337e-08 -1.02514e-07 3.44674e-08)
(3.15908e-09 -5.06685e-10 1.61941e-09)
(5.30818e-10 -3.03813e-09 1.70818e-09)
(-2.91249e-10 -3.30402e-09 1.64924e-09)
(-1.11257e-09 -2.24027e-09 1.46082e-09)
(7.72658e-09 -1.26482e-08 5.33797e-09)
(1.81968e-09 -1.54565e-08 5.46463e-09)
(-3.26409e-10 -1.55633e-08 5.30855e-09)
(-3.75208e-09 -1.34586e-08 4.91396e-09)
(9.54408e-09 -2.76907e-08 9.43291e-09)
(2.40362e-09 -2.94226e-08 9.5005e-09)
(-3.03311e-10 -2.90967e-08 9.26133e-09)
(-5.0258e-09 -2.69348e-08 8.7708e-09)
(9.84341e-09 -4.17572e-08 1.35757e-08)
(2.16784e-09 -4.30454e-08 1.35387e-08)
(-6.62178e-10 -4.21694e-08 1.32222e-08)
(-5.98329e-09 -3.92736e-08 1.26826e-08)
(1.08082e-08 -5.43463e-08 1.73109e-08)
(1.78187e-09 -5.61138e-08 1.71638e-08)
(-2.21202e-09 -5.46406e-08 1.67741e-08)
(-8.87132e-09 -5.0045e-08 1.61931e-08)
(1.51093e-08 -6.72198e-08 2.01481e-08)
(2.19437e-09 -6.93789e-08 1.99157e-08)
(-5.97519e-09 -6.7277e-08 1.94619e-08)
(-1.64256e-08 -6.10187e-08 1.88275e-08)
(2.42132e-08 -8.56989e-08 2.16721e-08)
(3.78452e-09 -8.62892e-08 2.13941e-08)
(-1.24613e-08 -8.34787e-08 2.08991e-08)
(-3.01182e-08 -7.73465e-08 2.02061e-08)
(3.31645e-08 -1.12558e-07 2.17042e-08)
(4.78234e-09 -1.09494e-07 2.14368e-08)
(-2.00436e-08 -1.0565e-07 2.09449e-08)
(-4.49702e-08 -1.0098e-07 2.02148e-08)
(3.13751e-09 -5.14101e-10 5.52534e-10)
(5.46294e-10 -3.01922e-09 5.739e-10)
(-2.90332e-10 -3.29328e-09 5.5475e-10)
(-1.06462e-09 -2.279e-09 5.01184e-10)
(7.73874e-09 -1.24974e-08 1.79551e-09)
(1.88064e-09 -1.53139e-08 1.82056e-09)
(-3.11031e-10 -1.54468e-08 1.76985e-09)
(-3.67532e-09 -1.33916e-08 1.6582e-09)
(9.6525e-09 -2.73501e-08 3.14787e-09)
(2.5309e-09 -2.91313e-08 3.14938e-09)
(-2.69757e-10 -2.88441e-08 3.0716e-09)
(-4.96283e-09 -2.67142e-08 2.93318e-09)
(1.0075e-08 -4.12531e-08 4.5078e-09)
(2.37366e-09 -4.26093e-08 4.47331e-09)
(-6.06015e-10 -4.17791e-08 4.37023e-09)
(-5.94416e-09 -3.89103e-08 4.21759e-09)
(1.11534e-08 -5.37176e-08 5.72828e-09)
(2.06292e-09 -5.55496e-08 5.65745e-09)
(-2.12222e-09 -5.41251e-08 5.53023e-09)
(-8.83785e-09 -4.95656e-08 5.36409e-09)
(1.55206e-08 -6.65139e-08 6.64999e-09)
(2.53045e-09 -6.87256e-08 6.55195e-09)
(-5.83185e-09 -6.66722e-08 6.4036e-09)
(-1.63498e-08 -6.04608e-08 6.21874e-09)
(2.46169e-08 -8.49378e-08 7.14115e-09)
(4.14632e-09 -8.55885e-08 7.02968e-09)
(-1.22409e-08 -8.28238e-08 6.86769e-09)
(-2.99319e-08 -7.67251e-08 6.66164e-09)
(3.35276e-08 -1.11694e-07 7.14851e-09)
(5.16129e-09 -1.08733e-07 7.0413e-09)
(-1.97463e-08 -1.0493e-07 6.8803e-09)
(-4.46483e-08 -1.00242e-07 6.66109e-09)
)
;

boundaryField
{
    interface
    {
        type            calculated;
        value           nonuniform List<vector> 
192
(
(2.22087e-08 3.17655e-08 2.12216e-08)
(3.85527e-08 2.30241e-08 5.26832e-08)
(4.2911e-08 4.18272e-09 7.65767e-08)
(4.24891e-08 -1.49283e-08 9.67307e-08)
(4.18298e-08 -3.40725e-08 1.16063e-07)
(4.37673e-08 -5.67812e-08 1.36355e-07)
(4.96871e-08 -9.04402e-08 1.56928e-07)
(5.37383e-08 -1.33709e-07 1.71485e-07)
(1.56144e-08 1.64624e-08 8.28688e-09)
(2.8726e-08 4.56911e-09 2.86959e-08)
(3.19631e-08 -1.25948e-08 4.89169e-08)
(3.11415e-08 -2.97915e-08 6.74678e-08)
(3.04006e-08 -4.69507e-08 8.50464e-08)
(3.29111e-08 -6.62001e-08 1.02321e-07)
(4.10813e-08 -9.4039e-08 1.18178e-07)
(4.89581e-08 -1.32726e-07 1.28163e-07)
(9.34796e-09 8.28533e-09 3.57984e-09)
(1.82973e-08 -5.48073e-09 1.71179e-08)
(2.05024e-08 -2.25457e-08 3.35831e-08)
(1.96579e-08 -3.86556e-08 5.00597e-08)
(1.91883e-08 -5.36156e-08 6.55323e-08)
(2.23868e-08 -6.91038e-08 7.93988e-08)
(3.20147e-08 -9.17083e-08 9.00535e-08)
(4.21678e-08 -1.25741e-07 9.44197e-08)
(5.96164e-09 4.34476e-09 3.07139e-09)
(1.27387e-08 -9.8017e-09 1.35889e-08)
(1.4579e-08 -2.69044e-08 2.67348e-08)
(1.40942e-08 -4.23943e-08 4.03876e-08)
(1.41905e-08 -5.57398e-08 5.31087e-08)
(1.806e-08 -6.86589e-08 6.36824e-08)
(2.83738e-08 -8.81056e-08 7.05099e-08)
(3.91578e-08 -1.19314e-07 7.18836e-08)
(4.50644e-09 2.80606e-09 2.98257e-09)
(1.04674e-08 -1.1153e-08 1.13506e-08)
(1.23855e-08 -2.80247e-08 2.13851e-08)
(1.23806e-08 -4.30347e-08 3.18311e-08)
(1.30517e-08 -5.54105e-08 4.1459e-08)
(1.74136e-08 -6.69914e-08 4.90645e-08)
(2.79611e-08 -8.49858e-08 5.34221e-08)
(3.87585e-08 -1.14825e-07 5.37534e-08)
(3.9703e-09 2.32331e-09 2.46055e-09)
(9.73669e-09 -1.12766e-08 8.59217e-09)
(1.18791e-08 -2.77538e-08 1.5635e-08)
(1.22912e-08 -4.23476e-08 2.28859e-08)
(1.34021e-08 -5.41997e-08 2.94909e-08)
(1.80806e-08 -6.52239e-08 3.45563e-08)
(2.8689e-08 -8.26892e-08 3.72848e-08)
(3.93619e-08 -1.11888e-07 3.73412e-08)
(3.79397e-09 2.21474e-09 1.59095e-09)
(9.55746e-09 -1.10519e-08 5.32358e-09)
(1.1895e-08 -2.71615e-08 9.48781e-09)
(1.25888e-08 -4.14413e-08 1.37245e-08)
(1.39778e-08 -5.30299e-08 1.75481e-08)
(1.88409e-08 -6.38686e-08 2.04373e-08)
(2.94634e-08 -8.11851e-08 2.19555e-08)
(4.00307e-08 -1.10085e-07 2.19564e-08)
(3.74329e-09 2.20497e-09 5.47144e-10)
(9.52693e-09 -1.08686e-08 1.79856e-09)
(1.19674e-08 -2.67661e-08 3.17498e-09)
(1.27987e-08 -4.08779e-08 4.56571e-09)
(1.43193e-08 -5.23563e-08 5.81458e-09)
(1.92676e-08 -6.31481e-08 6.75281e-09)
(2.98941e-08 -8.04361e-08 7.24208e-09)
(4.04084e-08 -1.09217e-07 7.23928e-09)
(1.79971e-08 3.86981e-08 2.56589e-08)
(3.44868e-08 3.22299e-08 5.83844e-08)
(3.84035e-08 1.44367e-08 8.2884e-08)
(3.7329e-08 -4.71089e-09 1.03406e-07)
(3.61697e-08 -2.4587e-08 1.22763e-07)
(3.79219e-08 -4.87039e-08 1.42511e-07)
(4.34271e-08 -8.44715e-08 1.62435e-07)
(4.7823e-08 -1.30066e-07 1.75603e-07)
(3.80193e-09 3.2205e-08 2.46148e-08)
(7.82103e-09 2.60339e-08 5.68096e-08)
(7.95091e-09 1.13859e-08 8.015e-08)
(5.94926e-09 -5.91736e-09 9.93303e-08)
(3.61567e-09 -2.54348e-08 1.17409e-07)
(2.1602e-09 -4.91579e-08 1.36273e-07)
(1.93968e-09 -8.29737e-08 1.5681e-07)
(1.35597e-09 -1.26674e-07 1.72362e-07)
(-6.58328e-09 3.08496e-08 2.26905e-08)
(-1.42595e-08 2.54684e-08 5.40561e-08)
(-1.80455e-08 1.17332e-08 7.67937e-08)
(-2.04414e-08 -4.74703e-09 9.55178e-08)
(-2.34472e-08 -2.35152e-08 1.13202e-07)
(-2.83927e-08 -4.64964e-08 1.31703e-07)
(-3.58058e-08 -7.94489e-08 1.51882e-07)
(-4.42277e-08 -1.21846e-07 1.67084e-07)
(-1.85491e-08 3.44798e-08 1.99453e-08)
(-3.76983e-08 3.09295e-08 4.9884e-08)
(-4.51601e-08 1.59774e-08 7.24799e-08)
(-4.84334e-08 -7.91948e-10 9.16e-08)
(-5.25455e-08 -1.85278e-08 1.09781e-07)
(-6.06069e-08 -4.0519e-08 1.28443e-07)
(-7.35209e-08 -7.37922e-08 1.4733e-07)
(-8.64088e-08 -1.15526e-07 1.59649e-07)
(-1.60533e-08 3.00037e-08 1.79514e-08)
(-3.41935e-08 2.41123e-08 4.55785e-08)
(-4.13938e-08 8.21966e-09 6.70985e-08)
(-4.47471e-08 -8.20695e-09 8.5531e-08)
(-4.88539e-08 -2.47649e-08 1.03416e-07)
(-5.66133e-08 -4.48284e-08 1.22364e-07)
(-6.93784e-08 -7.5495e-08 1.41648e-07)
(-8.12916e-08 -1.14628e-07 1.55196e-07)
(-9.0232e-09 1.49192e-08 6.71842e-09)
(-2.25538e-08 5.76936e-09 2.44073e-08)
(-2.76135e-08 -8.65692e-09 4.2592e-08)
(-2.97568e-08 -2.32783e-08 5.95724e-08)
(-3.30914e-08 -3.79042e-08 7.58144e-08)
(-4.07934e-08 -5.45743e-08 9.18726e-08)
(-5.51876e-08 -7.95875e-08 1.06664e-07)
(-7.02227e-08 -1.14427e-07 1.16016e-07)
(-2.46241e-09 6.22113e-09 2.57221e-09)
(-1.09352e-08 -4.92288e-09 1.4262e-08)
(-1.41096e-08 -1.93191e-08 2.91405e-08)
(-1.54738e-08 -3.28846e-08 4.42662e-08)
(-1.84133e-08 -4.5328e-08 5.85502e-08)
(-2.62048e-08 -5.82751e-08 7.1358e-08)
(-4.15018e-08 -7.81412e-08 8.11574e-08)
(-5.82713e-08 -1.08433e-07 8.51221e-08)
(1.15479e-09 1.79323e-09 2.36208e-09)
(-4.56433e-09 -9.98056e-09 1.16089e-08)
(-6.74284e-09 -2.45194e-08 2.35934e-08)
(-7.84605e-09 -3.74973e-08 3.6176e-08)
(-1.07731e-08 -4.83309e-08 4.79148e-08)
(-1.87072e-08 -5.87125e-08 5.7615e-08)
(-3.42066e-08 -7.54288e-08 6.37628e-08)
(-5.11584e-08 -1.02891e-07 6.48482e-08)
(2.7671e-09 -8.50466e-11 2.49088e-09)
(-1.76689e-09 -1.19201e-08 9.993e-09)
(-3.58747e-09 -2.63648e-08 1.92146e-08)
(-4.70253e-09 -3.89178e-08 2.88726e-08)
(-7.74301e-09 -4.87921e-08 3.77492e-08)
(-1.57361e-08 -5.78243e-08 4.46782e-08)
(-3.1068e-08 -7.3061e-08 4.85127e-08)
(-4.76641e-08 -9.91135e-08 4.86265e-08)
(3.40201e-09 -7.86195e-10 2.14044e-09)
(-7.0819e-10 -1.24524e-08 7.7111e-09)
(-2.46598e-09 -2.66275e-08 1.422e-08)
(-3.67179e-09 -3.88265e-08 2.09375e-08)
(-6.81392e-09 -4.81947e-08 2.70195e-08)
(-1.4796e-08 -5.6659e-08 3.16064e-08)
(-2.98854e-08 -7.13347e-08 3.39629e-08)
(-4.60657e-08 -9.67053e-08 3.38635e-08)
(3.63488e-09 -1.02412e-09 1.41108e-09)
(-3.38872e-10 -1.24803e-08 4.82854e-09)
(-2.11825e-09 -2.6377e-08 8.69018e-09)
(-3.40088e-09 -3.83121e-08 1.26194e-08)
(-6.60133e-09 -4.74343e-08 1.61362e-08)
(-1.45497e-08 -5.57068e-08 1.87412e-08)
(-2.94472e-08 -7.02103e-08 2.0037e-08)
(-4.53317e-08 -9.52506e-08 1.99434e-08)
(3.71122e-09 -1.09403e-09 4.89193e-10)
(-2.20846e-10 -1.2417e-08 1.639e-09)
(-2.02145e-09 -2.6147e-08 2.91743e-09)
(-3.3429e-09 -3.79414e-08 4.2078e-09)
(-6.56715e-09 -4.69641e-08 5.35571e-09)
(-1.4492e-08 -5.51872e-08 6.19978e-09)
(-2.92901e-08 -6.96504e-08 6.61504e-09)
(-4.50264e-08 -9.45546e-08 6.58059e-09)
(4.7448e-08 -1.37537e-07 1.75016e-07)
(4.22096e-08 -1.38017e-07 1.29436e-07)
(3.56675e-08 -1.31805e-07 9.37653e-08)
(3.25729e-08 -1.26137e-07 7.02158e-08)
(3.22348e-08 -1.21955e-07 5.19288e-08)
(3.29222e-08 -1.19109e-07 3.58677e-08)
(3.3635e-08 -1.1734e-07 2.10404e-08)
(3.40259e-08 -1.16487e-07 6.93228e-09)
(1.01536e-09 -1.33577e-07 1.72309e-07)
(7.17332e-10 -1.31612e-07 1.28627e-07)
(-9.98195e-11 -1.24685e-07 9.48455e-08)
(1.31256e-10 -1.19677e-07 7.13456e-08)
(1.13103e-09 -1.16311e-07 5.23535e-08)
(2.2355e-09 -1.14036e-07 3.58052e-08)
(3.0551e-09 -1.12582e-07 2.086e-08)
(3.47043e-09 -1.11863e-07 6.85106e-09)
(-4.4555e-08 -1.27639e-07 1.6809e-07)
(-3.69817e-08 -1.25929e-07 1.25671e-07)
(-3.04488e-08 -1.19256e-07 9.26581e-08)
(-2.63046e-08 -1.14467e-07 6.97169e-08)
(-2.40391e-08 -1.11273e-07 5.11753e-08)
(-2.28296e-08 -1.09124e-07 3.50085e-08)
(-2.21722e-08 -1.07752e-07 2.03995e-08)
(-2.18692e-08 -1.07073e-07 6.70044e-09)
(-8.67618e-08 -1.19532e-07 1.62397e-07)
(-7.46936e-08 -1.20618e-07 1.20598e-07)
(-6.2565e-08 -1.15145e-07 8.71938e-08)
(-5.50839e-08 -1.10132e-07 6.53003e-08)
(-5.14449e-08 -1.0647e-07 4.83651e-08)
(-4.97879e-08 -1.04004e-07 3.34567e-08)
(-4.90027e-08 -1.02482e-07 1.96468e-08)
(-4.86644e-08 -1.01751e-07 6.47656e-09)
)
;
    }
    symmetry
    {
        type            symmetry;
    }
    bottom
    {
        type            calculated;
        value           uniform (0 0 0);
    }
}


// ************************************************************************* //
