/*--------------------------------*- C++ -*----------------------------------*\
| =========                 |                                                 |
| \\      /  F ield         | OpenFOAM: The Open Source CFD Toolbox           |
|  \\    /   O peration     | Version:  v1912                                 |
|   \\  /    A nd           | Website:  www.openfoam.com                      |
|    \\/     M anipulation  |                                                 |
\*---------------------------------------------------------------------------*/
FoamFile
{
    version     2.0;
    format      ascii;
    class       volVectorField;
    location    "0.15/fluid";
    object      cellMotionU;
}
// * * * * * * * * * * * * * * * * * * * * * * * * * * * * * * * * * * * * * //

dimensions      [0 1 -1 0 0 0 0];


internalField   nonuniform List<vector> 
14592
(
(2.23257e-10 -1.13406e-09 9.29423e-10)
(6.09633e-10 -3.1648e-09 2.60719e-09)
(9.27107e-10 -5.02289e-09 4.18273e-09)
(1.19629e-09 -6.77119e-09 5.75278e-09)
(1.36633e-09 -8.48198e-09 7.35991e-09)
(1.46384e-09 -1.02444e-08 9.16319e-09)
(1.45681e-09 -1.2013e-08 1.11788e-08)
(1.33258e-09 -1.37491e-08 1.34624e-08)
(1.07554e-09 -1.53891e-08 1.60686e-08)
(6.67822e-10 -1.68232e-08 1.90575e-08)
(1.50214e-10 -1.7781e-08 2.24731e-08)
(-5.35434e-10 -1.78086e-08 2.64122e-08)
(-9.34377e-10 -1.56008e-08 3.12303e-08)
(-3.777e-10 -7.90761e-09 3.78963e-08)
(3.33752e-09 1.41092e-08 4.94414e-08)
(1.47051e-08 6.27725e-08 6.8155e-08)
(6.73152e-10 -3.3755e-09 2.76762e-09)
(1.83551e-09 -9.409e-09 7.74813e-09)
(2.83669e-09 -1.49334e-08 1.24634e-08)
(3.60231e-09 -2.01645e-08 1.70893e-08)
(4.17103e-09 -2.53532e-08 2.19789e-08)
(4.47599e-09 -3.05652e-08 2.72927e-08)
(4.49055e-09 -3.58246e-08 3.32536e-08)
(4.18222e-09 -4.10388e-08 4.00254e-08)
(3.50232e-09 -4.60406e-08 4.77496e-08)
(2.4651e-09 -5.04836e-08 5.65483e-08)
(9.81678e-10 -5.38284e-08 6.64946e-08)
(-5.5833e-10 -5.49038e-08 7.7726e-08)
(-1.37457e-09 -5.15826e-08 9.03488e-08)
(4.56619e-10 -4.01662e-08 1.05095e-07)
(9.56559e-09 -1.51857e-08 1.23173e-07)
(3.09822e-08 2.09819e-08 1.42697e-07)
(1.13586e-09 -5.51975e-09 4.54324e-09)
(3.12903e-09 -1.53796e-08 1.27355e-08)
(4.79443e-09 -2.44457e-08 2.0439e-08)
(6.15577e-09 -3.30935e-08 2.81127e-08)
(7.1525e-09 -4.15799e-08 3.60799e-08)
(7.76382e-09 -5.01602e-08 4.47819e-08)
(7.94178e-09 -5.88648e-08 5.45349e-08)
(7.64385e-09 -6.76048e-08 6.5611e-08)
(6.85883e-09 -7.61507e-08 7.82494e-08)
(5.5712e-09 -8.40923e-08 9.26093e-08)
(3.74526e-09 -9.07602e-08 1.08762e-07)
(1.95558e-09 -9.48231e-08 1.26706e-07)
(1.19881e-09 -9.44539e-08 1.46389e-07)
(3.8011e-09 -8.73366e-08 1.67857e-07)
(1.50031e-08 -7.2214e-08 1.91491e-07)
(3.92843e-08 -5.51397e-08 2.15321e-07)
(1.6263e-09 -7.49069e-09 6.22058e-09)
(4.47303e-09 -2.08809e-08 1.74157e-08)
(6.89324e-09 -3.32641e-08 2.80009e-08)
(8.87419e-09 -4.50526e-08 3.84688e-08)
(1.04105e-08 -5.66953e-08 4.93882e-08)
(1.1457e-08 -6.84454e-08 6.1232e-08)
(1.19928e-08 -8.04578e-08 7.4489e-08)
(1.20102e-08 -9.26965e-08 8.95586e-08)
(1.15501e-08 -1.04946e-07 1.06755e-07)
(1.05014e-08 -1.16867e-07 1.26256e-07)
(9.25021e-09 -1.2769e-07 1.4824e-07)
(7.97011e-09 -1.36381e-07 1.72518e-07)
(7.7535e-09 -1.41328e-07 1.98895e-07)
(1.02274e-08 -1.40728e-07 2.26585e-07)
(1.93969e-08 -1.33511e-07 2.54427e-07)
(3.88047e-08 -1.2284e-07 2.78618e-07)
(2.1447e-09 -9.21229e-09 7.75506e-09)
(5.88307e-09 -2.57307e-08 2.17119e-08)
(9.09613e-09 -4.10085e-08 3.4897e-08)
(1.17872e-08 -5.56301e-08 4.79649e-08)
(1.39405e-08 -7.00429e-08 6.14978e-08)
(1.55756e-08 -8.46717e-08 7.61623e-08)
(1.66924e-08 -9.97475e-08 9.25351e-08)
(1.73418e-08 -1.15324e-07 1.11129e-07)
(1.76026e-08 -1.31293e-07 1.32354e-07)
(1.76176e-08 -1.47389e-07 1.56532e-07)
(1.7594e-08 -1.63054e-07 1.83768e-07)
(1.79811e-08 -1.77455e-07 2.14148e-07)
(1.94478e-08 -1.89174e-07 2.47321e-07)
(2.26681e-08 -1.96079e-07 2.81987e-07)
(2.98446e-08 -1.95293e-07 3.15453e-07)
(4.39497e-08 -1.86451e-07 3.41335e-07)
(2.67003e-09 -1.06321e-08 9.11426e-09)
(7.34755e-09 -2.97044e-08 2.553e-08)
(1.14012e-08 -4.73954e-08 4.1042e-08)
(1.48374e-08 -6.43359e-08 5.63565e-08)
(1.77114e-08 -8.11125e-08 7.22009e-08)
(2.00427e-08 -9.81967e-08 8.92591e-08)
(2.19043e-08 -1.15948e-07 1.08235e-07)
(2.34351e-08 -1.34529e-07 1.29758e-07)
(2.48075e-08 -1.53961e-07 1.54332e-07)
(2.63075e-08 -1.74125e-07 1.82365e-07)
(2.83708e-08 -1.94803e-07 2.14208e-07)
(3.16071e-08 -2.15512e-07 2.50176e-07)
(3.6733e-08 -2.35285e-07 2.90311e-07)
(4.39886e-08 -2.51939e-07 3.33631e-07)
(5.37263e-08 -2.6032e-07 3.76807e-07)
(6.56418e-08 -2.53238e-07 4.09689e-07)
(3.20209e-09 -1.16802e-08 1.02842e-08)
(8.83077e-09 -3.26363e-08 2.88153e-08)
(1.37288e-08 -5.20979e-08 4.62971e-08)
(1.79606e-08 -7.07907e-08 6.35323e-08)
(2.15703e-08 -8.93447e-08 8.12411e-08)
(2.46571e-08 -1.08346e-07 1.00203e-07)
(2.73457e-08 -1.28239e-07 1.21191e-07)
(2.98641e-08 -1.4929e-07 1.44923e-07)
(3.25065e-08 -1.7164e-07 1.71986e-07)
(3.57276e-08 -1.95393e-07 2.02909e-07)
(4.02216e-08 -2.20612e-07 2.38207e-07)
(4.70582e-08 -2.47426e-07 2.78625e-07)
(5.76969e-08 -2.75956e-07 3.25025e-07)
(7.35971e-08 -3.05956e-07 3.77943e-07)
(9.64607e-08 -3.35066e-07 4.36244e-07)
(1.22537e-07 -3.53851e-07 4.87957e-07)
(3.72361e-09 -1.22921e-08 1.12489e-08)
(1.02742e-08 -3.43596e-08 3.15174e-08)
(1.60168e-08 -5.48883e-08 5.06211e-08)
(2.10134e-08 -7.46555e-08 6.93755e-08)
(2.53663e-08 -9.43592e-08 8.85281e-08)
(2.91825e-08 -1.14641e-07 1.08862e-07)
(3.26585e-08 -1.36012e-07 1.31205e-07)
(3.6103e-08 -1.58801e-07 1.56342e-07)
(3.98873e-08 -1.83261e-07 1.84893e-07)
(4.45878e-08 -2.09606e-07 2.17424e-07)
(5.11851e-08 -2.38122e-07 2.54597e-07)
(6.10093e-08 -2.69432e-07 2.97295e-07)
(7.64705e-08 -3.04591e-07 3.47131e-07)
(1.01258e-07 -3.45811e-07 4.0641e-07)
(1.42698e-07 -3.97053e-07 4.78735e-07)
(2.02661e-07 -4.55766e-07 5.57673e-07)
(1.86833e-10 -1.1645e-09 8.85624e-10)
(5.0868e-10 -3.24842e-09 2.48418e-09)
(7.72473e-10 -5.15786e-09 3.99914e-09)
(9.52572e-10 -6.96285e-09 5.47688e-09)
(1.04927e-09 -8.73513e-09 7.02637e-09)
(1.02635e-09 -1.054e-08 8.71646e-09)
(8.59374e-10 -1.23715e-08 1.06123e-08)
(5.12275e-10 -1.41969e-08 1.27629e-08)
(-6.51666e-11 -1.59596e-08 1.52136e-08)
(-9.60154e-10 -1.75738e-08 1.80036e-08)
(-2.33854e-09 -1.88642e-08 2.11449e-08)
(-4.27684e-09 -1.94526e-08 2.47187e-08)
(-7.40815e-09 -1.86833e-08 2.87324e-08)
(-1.28766e-08 -1.48811e-08 3.35365e-08)
(-2.461e-08 -4.94422e-09 3.97029e-08)
(-4.78991e-08 1.20681e-08 4.59773e-08)
(5.67926e-10 -3.4608e-09 2.63525e-09)
(1.55279e-09 -9.64367e-09 7.39212e-09)
(2.34044e-09 -1.53229e-08 1.18574e-08)
(2.92053e-09 -2.07017e-08 1.62857e-08)
(3.22581e-09 -2.60145e-08 2.08936e-08)
(3.19713e-09 -3.13888e-08 2.59129e-08)
(2.76033e-09 -3.68497e-08 3.1538e-08)
(1.82242e-09 -4.23195e-08 3.79156e-08)
(2.4521e-10 -4.76643e-08 4.51764e-08)
(-2.196e-09 -5.26179e-08 5.33795e-08)
(-5.70298e-09 -5.6723e-08 6.26002e-08)
(-1.0725e-08 -5.92416e-08 7.26923e-08)
(-1.75696e-08 -5.88536e-08 8.35437e-08)
(-2.71422e-08 -5.37614e-08 9.46117e-08)
(-4.07785e-08 -4.27967e-08 1.04432e-07)
(-5.79295e-08 -3.09892e-08 1.09196e-07)
(9.7412e-10 -5.65123e-09 4.33208e-09)
(2.65143e-09 -1.5751e-08 1.21142e-08)
(4.03097e-09 -2.50428e-08 1.94607e-08)
(5.05241e-09 -3.38971e-08 2.67238e-08)
(5.65204e-09 -4.26279e-08 3.42797e-08)
(5.7457e-09 -5.14746e-08 4.25079e-08)
(5.23053e-09 -6.04975e-08 5.17112e-08)
(3.98579e-09 -6.96315e-08 6.21508e-08)
(1.83807e-09 -7.86849e-08 7.4014e-08)
(-1.45829e-09 -8.73342e-08 8.74231e-08)
(-6.14221e-09 -9.49922e-08 1.02407e-07)
(-1.25612e-08 -1.00843e-07 1.18717e-07)
(-2.09036e-08 -1.03747e-07 1.35948e-07)
(-3.12306e-08 -1.02799e-07 1.53016e-07)
(-4.30737e-08 -9.90707e-08 1.67766e-07)
(-5.48282e-08 -9.80512e-08 1.76478e-07)
(1.40911e-09 -7.65924e-09 5.92129e-09)
(3.84806e-09 -2.13641e-08 1.65644e-08)
(5.87486e-09 -3.40186e-08 2.66135e-08)
(7.42886e-09 -4.61022e-08 3.65492e-08)
(8.45036e-09 -5.8049e-08 4.68873e-08)
(8.84822e-09 -7.01588e-08 5.8093e-08)
(8.52901e-09 -8.25844e-08 7.06085e-08)
(7.38419e-09 -9.53035e-08 8.47954e-08)
(5.25743e-09 -1.08161e-07 1.00923e-07)
(2.02296e-09 -1.20794e-07 1.19212e-07)
(-2.66973e-09 -1.32718e-07 1.39523e-07)
(-8.96206e-09 -1.43083e-07 1.61774e-07)
(-1.72617e-08 -1.50954e-07 1.85214e-07)
(-2.78497e-08 -1.55561e-07 2.08181e-07)
(-4.07639e-08 -1.57671e-07 2.27448e-07)
(-5.48279e-08 -1.60329e-07 2.38035e-07)
(1.87705e-09 -9.41955e-09 7.37275e-09)
(5.1492e-09 -2.62883e-08 2.06498e-08)
(7.8928e-09 -4.19099e-08 3.31632e-08)
(1.00801e-08 -5.68713e-08 4.55528e-08)
(1.16532e-08 -7.16715e-08 5.83863e-08)
(1.25574e-08 -8.67231e-08 7.22543e-08)
(1.27291e-08 -1.02266e-07 8.7697e-08)
(1.21167e-08 -1.18369e-07 1.05189e-07)
(1.06717e-08 -1.34932e-07 1.25105e-07)
(8.31203e-09 -1.51727e-07 1.47674e-07)
(4.92677e-09 -1.68303e-07 1.72951e-07)
(2.72039e-10 -1.84001e-07 2.00789e-07)
(-6.29033e-09 -1.97833e-07 2.30443e-07)
(-1.59403e-08 -2.08514e-07 2.59821e-07)
(-3.04068e-08 -2.15166e-07 2.84529e-07)
(-4.87316e-08 -2.18851e-07 2.97641e-07)
(2.37926e-09 -1.08601e-08 8.67056e-09)
(6.53184e-09 -3.03334e-08 2.4273e-08)
(1.00682e-08 -4.84015e-08 3.89948e-08)
(1.29664e-08 -6.57372e-08 5.3527e-08)
(1.52148e-08 -8.29328e-08 6.85311e-08)
(1.67892e-08 -1.00478e-07 8.46535e-08)
(1.76962e-08 -1.18722e-07 1.0254e-07)
(1.79727e-08 -1.37828e-07 1.22764e-07)
(1.77083e-08 -1.57808e-07 1.45804e-07)
(1.69852e-08 -1.78565e-07 1.71963e-07)
(1.59317e-08 -1.99874e-07 2.01466e-07)
(1.44923e-08 -2.213e-07 2.3434e-07)
(1.20872e-08 -2.42036e-07 2.70108e-07)
(6.86078e-09 -2.60353e-07 3.06791e-07)
(-5.28714e-09 -2.72943e-07 3.39374e-07)
(-2.69536e-08 -2.75861e-07 3.5841e-07)
(2.89899e-09 -1.1921e-08 9.78752e-09)
(7.96895e-09 -3.33088e-08 2.73944e-08)
(1.23318e-08 -5.31817e-08 4.39914e-08)
(1.60023e-08 -7.2294e-08 6.0334e-08)
(1.89901e-08 -9.13002e-08 7.71057e-08)
(2.13337e-08 -1.10781e-07 9.50147e-08)
(2.3111e-08 -1.31168e-07 1.14782e-07)
(2.447e-08 -1.52716e-07 1.37062e-07)
(2.56383e-08 -1.75544e-07 1.62408e-07)
(2.69277e-08 -1.99722e-07 1.91229e-07)
(2.87683e-08 -2.25262e-07 2.23865e-07)
(3.16378e-08 -2.52165e-07 2.60633e-07)
(3.5762e-08 -2.80358e-07 3.01573e-07)
(4.03886e-08 -3.09275e-07 3.45486e-07)
(4.17393e-08 -3.36602e-07 3.87752e-07)
(3.1799e-08 -3.54856e-07 4.15967e-07)
(3.41327e-09 -1.25425e-08 1.07017e-08)
(9.39855e-09 -3.50564e-08 2.99589e-08)
(1.45966e-08 -5.6011e-08 4.80882e-08)
(1.90414e-08 -7.62133e-08 6.58663e-08)
(2.27842e-08 -9.63765e-08 8.39845e-08)
(2.59048e-08 -1.17136e-07 1.03179e-07)
(2.85575e-08 -1.38981e-07 1.24214e-07)
(3.09787e-08 -1.62231e-07 1.47796e-07)
(3.35232e-08 -1.87084e-07 1.74532e-07)
(3.66716e-08 -2.1371e-07 2.04847e-07)
(4.11217e-08 -2.42304e-07 2.39089e-07)
(4.79271e-08 -2.73161e-07 2.77829e-07)
(5.84052e-08 -3.06893e-07 3.21433e-07)
(7.44117e-08 -3.44488e-07 3.69658e-07)
(9.78232e-08 -3.86693e-07 4.19251e-07)
(1.24866e-07 -4.26708e-07 4.56683e-07)
(1.50347e-10 -1.18844e-09 8.05941e-10)
(4.03804e-10 -3.31802e-09 2.26015e-09)
(5.91656e-10 -5.27466e-09 3.6295e-09)
(7.06923e-10 -7.11891e-09 4.98812e-09)
(7.06306e-10 -8.94322e-09 6.38861e-09)
(5.64852e-10 -1.07972e-08 7.91997e-09)
(2.33912e-10 -1.26983e-08 9.63596e-09)
(-3.38208e-10 -1.46084e-08 1.15737e-08)
(-1.24773e-09 -1.651e-08 1.37759e-08)
(-2.62743e-09 -1.8315e-08 1.62543e-08)
(-4.70052e-09 -1.99333e-08 1.90277e-08)
(-8.01284e-09 -2.12452e-08 2.19662e-08)
(-1.34065e-08 -2.19691e-08 2.50616e-08)
(-2.36129e-08 -2.1884e-08 2.79106e-08)
(-4.49842e-08 -2.10006e-08 2.9677e-08)
(-8.27555e-08 -2.04828e-08 2.79063e-08)
(4.59706e-10 -3.53173e-09 2.39765e-09)
(1.23577e-09 -9.84731e-09 6.71138e-09)
(1.83685e-09 -1.56416e-08 1.07893e-08)
(2.18819e-09 -2.11552e-08 1.48015e-08)
(2.23137e-09 -2.65926e-08 1.89854e-08)
(1.86107e-09 -3.21261e-08 2.35415e-08)
(9.62509e-10 -3.77781e-08 2.86301e-08)
(-6.21989e-10 -4.35113e-08 3.43861e-08)
(-3.11573e-09 -4.91988e-08 4.08981e-08)
(-6.85243e-09 -5.46708e-08 4.82313e-08)
(-1.24532e-08 -5.96691e-08 5.625e-08)
(-2.06718e-08 -6.37883e-08 6.48181e-08)
(-3.30095e-08 -6.66027e-08 7.32596e-08)
(-5.18921e-08 -6.78106e-08 8.02348e-08)
(-7.99665e-08 -6.80397e-08 8.27184e-08)
(-1.11473e-07 -6.94717e-08 7.70617e-08)
(7.95095e-10 -5.76468e-09 3.93285e-09)
(2.15673e-09 -1.6062e-08 1.10125e-08)
(3.21258e-09 -2.55537e-08 1.76809e-08)
(3.89002e-09 -3.45942e-08 2.42816e-08)
(4.08038e-09 -4.35426e-08 3.11549e-08)
(3.64375e-09 -5.26318e-08 3.86159e-08)
(2.41845e-09 -6.19543e-08 4.69436e-08)
(1.97148e-10 -7.14568e-08 5.63544e-08)
(-3.30532e-09 -8.10059e-08 6.70196e-08)
(-8.52109e-09 -9.03397e-08 7.89875e-08)
(-1.61544e-08 -9.91378e-08 9.20671e-08)
(-2.69805e-08 -1.06921e-07 1.06005e-07)
(-4.22532e-08 -1.13313e-07 1.19861e-07)
(-6.32226e-08 -1.18427e-07 1.31755e-07)
(-8.94836e-08 -1.23671e-07 1.38386e-07)
(-1.13272e-07 -1.30673e-07 1.36728e-07)
(1.17274e-09 -7.8065e-09 5.37526e-09)
(3.19646e-09 -2.17713e-08 1.50616e-08)
(4.801e-09 -3.46739e-08 2.41807e-08)
(5.91249e-09 -4.70174e-08 3.3222e-08)
(6.40356e-09 -5.92355e-08 4.26097e-08)
(6.13281e-09 -7.16611e-08 5.2772e-08)
(4.92864e-09 -8.44476e-08 6.40865e-08)
(2.5908e-09 -9.76011e-08 7.6876e-08)
(-1.13951e-09 -1.10974e-07 9.1385e-08)
(-6.74699e-09 -1.24353e-07 1.07589e-07)
(-1.47034e-08 -1.37318e-07 1.25528e-07)
(-2.59542e-08 -1.49441e-07 1.44589e-07)
(-4.16088e-08 -1.6027e-07 1.63847e-07)
(-6.28157e-08 -1.69812e-07 1.8101e-07)
(-8.90881e-08 -1.79024e-07 1.92342e-07)
(-1.13322e-07 -1.88205e-07 1.94096e-07)
(1.60422e-09 -9.58928e-09 6.71025e-09)
(4.36621e-09 -2.67725e-08 1.87595e-08)
(6.62866e-09 -4.26929e-08 3.01516e-08)
(8.29171e-09 -5.79532e-08 4.1412e-08)
(9.26019e-09 -7.30812e-08 5.30716e-08)
(9.40646e-09 -8.84854e-08 6.56361e-08)
(8.59865e-09 -1.04419e-07 7.95861e-08)
(6.69492e-09 -1.20948e-07 9.53444e-08)
(3.5033e-09 -1.38001e-07 1.13202e-07)
(-1.26519e-09 -1.55378e-07 1.33287e-07)
(-8.07378e-09 -1.72748e-07 1.55488e-07)
(-1.77168e-08 -1.89609e-07 1.79404e-07)
(-3.15648e-08 -2.05329e-07 2.03949e-07)
(-5.15356e-08 -2.19249e-07 2.26578e-07)
(-7.87194e-08 -2.31008e-07 2.42954e-07)
(-1.06521e-07 -2.40258e-07 2.48106e-07)
(2.07173e-09 -1.10519e-08 7.88527e-09)
(5.67211e-09 -3.08737e-08 2.20758e-08)
(8.66783e-09 -4.92737e-08 3.54623e-08)
(1.10023e-08 -6.69491e-08 4.8675e-08)
(1.25987e-08 -8.44948e-08 6.22944e-08)
(1.33817e-08 -1.02412e-07 7.68884e-08)
(1.32851e-08 -1.2104e-07 9.30315e-08)
(1.22742e-08 -1.40533e-07 1.11237e-07)
(1.02906e-08 -1.60893e-07 1.31862e-07)
(7.25116e-09 -1.82024e-07 1.55118e-07)
(2.93208e-09 -2.03686e-07 1.8096e-07)
(-3.22999e-09 -2.25444e-07 2.09087e-07)
(-1.25882e-08 -2.46565e-07 2.38494e-07)
(-2.78444e-08 -2.65624e-07 2.66554e-07)
(-5.2697e-08 -2.79934e-07 2.88428e-07)
(-8.40525e-08 -2.85798e-07 2.97793e-07)
(2.57249e-09 -1.21275e-08 8.89955e-09)
(7.05813e-09 -3.38865e-08 2.49207e-08)
(1.08591e-08 -5.41174e-08 4.00128e-08)
(1.39398e-08 -7.35864e-08 5.48666e-08)
(1.62691e-08 -9.2959e-08 7.00748e-08)
(1.7829e-08 -1.12809e-07 8.62787e-08)
(1.86404e-08 -1.33557e-07 1.04106e-07)
(1.87864e-08 -1.55422e-07 1.24147e-07)
(1.83782e-08 -1.78504e-07 1.4682e-07)
(1.75677e-08 -2.02803e-07 1.72381e-07)
(1.65001e-08 -2.28228e-07 2.00875e-07)
(1.51558e-08 -2.54564e-07 2.32116e-07)
(1.29498e-08 -2.81433e-07 2.65266e-07)
(8.01022e-09 -3.07856e-07 2.9773e-07)
(-3.66882e-09 -3.31231e-07 3.2407e-07)
(-2.47373e-08 -3.4541e-07 3.35851e-07)
(3.08011e-09 -1.27554e-08 9.73615e-09)
(8.46896e-09 -3.56548e-08 2.72496e-08)
(1.30918e-08 -5.69788e-08 4.3733e-08)
(1.69481e-08 -7.75473e-08 5.98653e-08)
(2.00477e-08 -9.80749e-08 7.62947e-08)
(2.24267e-08 -1.1919e-07 9.36455e-08)
(2.41927e-08 -1.41358e-07 1.12616e-07)
(2.55327e-08 -1.6486e-07 1.33832e-07)
(2.66938e-08 -1.89844e-07 1.5772e-07)
(2.80388e-08 -2.16388e-07 1.84564e-07)
(3.00883e-08 -2.44467e-07 2.14479e-07)
(3.33522e-08 -2.7406e-07 2.47169e-07)
(3.8465e-08 -3.05112e-07 2.82051e-07)
(4.59858e-08 -3.37432e-07 3.16591e-07)
(5.66979e-08 -3.69925e-07 3.44793e-07)
(7.02307e-08 -3.96501e-07 3.55355e-07)
(1.13141e-10 -1.20811e-09 6.92187e-10)
(3.00652e-10 -3.37175e-09 1.94615e-09)
(4.2817e-10 -5.35762e-09 3.13068e-09)
(4.63222e-10 -7.24291e-09 4.28615e-09)
(3.85775e-10 -9.10111e-09 5.5091e-09)
(1.34417e-10 -1.10095e-08 6.83178e-09)
(-3.41108e-10 -1.29703e-08 8.31048e-09)
(-1.11653e-09 -1.49685e-08 9.97487e-09)
(-2.3027e-09 -1.69786e-08 1.18548e-08)
(-4.08582e-09 -1.89619e-08 1.39491e-08)
(-6.80766e-09 -2.08946e-08 1.62124e-08)
(-1.09722e-08 -2.2715e-08 1.86679e-08)
(-1.78756e-08 -2.44981e-08 2.10288e-08)
(-3.03927e-08 -2.64129e-08 2.32103e-08)
(-5.50781e-08 -2.90907e-08 2.49955e-08)
(-9.55563e-08 -3.26697e-08 2.60815e-08)
(3.52477e-10 -3.58753e-09 2.06383e-09)
(9.40901e-10 -9.99807e-09 5.78462e-09)
(1.33749e-09 -1.58977e-08 9.27177e-09)
(1.4934e-09 -2.15041e-08 1.27558e-08)
(1.28976e-09 -2.70663e-08 1.63677e-08)
(6.07782e-10 -3.27369e-08 2.03032e-08)
(-7.10679e-10 -3.85668e-08 2.46871e-08)
(-2.86516e-09 -4.4522e-08 2.96269e-08)
(-6.15044e-09 -5.05216e-08 3.51873e-08)
(-1.10507e-08 -5.64682e-08 4.13434e-08)
(-1.82419e-08 -6.2199e-08 4.80681e-08)
(-2.88787e-08 -6.76276e-08 5.49867e-08)
(-4.46549e-08 -7.26623e-08 6.16445e-08)
(-6.8076e-08 -7.74175e-08 6.69467e-08)
(-1.00539e-07 -8.21241e-08 6.9352e-08)
(-1.32339e-07 -8.59261e-08 6.81099e-08)
(6.26534e-10 -5.8506e-09 3.38846e-09)
(1.67445e-09 -1.63112e-08 9.47552e-09)
(2.43122e-09 -2.59523e-08 1.52354e-08)
(2.78119e-09 -3.51623e-08 2.09289e-08)
(2.58764e-09 -4.42908e-08 2.68693e-08)
(1.66448e-09 -5.35939e-08 3.33099e-08)
(-2.0577e-10 -6.31696e-08 4.04776e-08)
(-3.29479e-09 -7.29919e-08 4.85516e-08)
(-8.00285e-09 -8.29674e-08 5.76321e-08)
(-1.49222e-08 -9.29222e-08 6.77033e-08)
(-2.48384e-08 -1.02648e-07 7.86945e-08)
(-3.89451e-08 -1.11961e-07 9.00602e-08)
(-5.85697e-08 -1.20778e-07 1.01089e-07)
(-8.45887e-08 -1.29343e-07 1.104e-07)
(-1.1457e-07 -1.3827e-07 1.1634e-07)
(-1.36833e-07 -1.46643e-07 1.18628e-07)
(9.51953e-10 -7.92034e-09 4.63747e-09)
(2.5612e-09 -2.20991e-08 1.29675e-08)
(3.77395e-09 -3.52104e-08 2.0846e-08)
(4.46008e-09 -4.77671e-08 2.8656e-08)
(4.45745e-09 -6.02177e-08 3.67669e-08)
(3.56706e-09 -7.28991e-08 4.55301e-08)
(1.55681e-09 -8.59821e-08 5.52587e-08)
(-1.85719e-09 -9.94867e-08 6.62136e-08)
(-7.08066e-09 -1.13313e-07 7.85242e-08)
(-1.46148e-08 -1.27262e-07 9.23155e-08)
(-2.53237e-08 -1.41105e-07 1.07193e-07)
(-4.01669e-08 -1.54514e-07 1.22881e-07)
(-6.03863e-08 -1.67286e-07 1.38327e-07)
(-8.63936e-08 -1.79445e-07 1.52034e-07)
(-1.15365e-07 -1.91327e-07 1.62146e-07)
(-1.36707e-07 -2.01531e-07 1.67751e-07)
(1.33339e-09 -9.72873e-09 5.77449e-09)
(3.62325e-09 -2.71647e-08 1.61911e-08)
(5.41197e-09 -4.33352e-08 2.60163e-08)
(6.57942e-09 -5.88488e-08 3.57464e-08)
(6.97595e-09 -7.42369e-08 4.58147e-08)
(6.41837e-09 -8.99203e-08 5.66364e-08)
(4.7084e-09 -1.06154e-07 6.86158e-08)
(1.61549e-09 -1.23014e-07 8.2087e-08)
(-3.15196e-09 -1.40439e-07 9.72801e-08)
(-1.0026e-08 -1.58253e-07 1.14232e-07)
(-1.96203e-08 -1.76164e-07 1.32762e-07)
(-3.28999e-08 -1.93737e-07 1.52347e-07)
(-5.12044e-08 -2.10443e-07 1.71985e-07)
(-7.56019e-08 -2.25598e-07 1.90006e-07)
(-1.0479e-07 -2.38489e-07 2.04221e-07)
(-1.2896e-07 -2.477e-07 2.1287e-07)
(1.77686e-09 -1.12069e-08 6.80461e-09)
(4.8434e-09 -3.13153e-08 1.90574e-08)
(7.32174e-09 -4.99963e-08 3.06199e-08)
(9.11276e-09 -6.79474e-08 4.20367e-08)
(1.00936e-08 -8.57693e-08 5.37839e-08)
(1.01333e-08 -1.03965e-07 6.63411e-08)
(9.10529e-09 -1.22872e-07 8.01896e-08)
(6.88677e-09 -1.42633e-07 9.57352e-08)
(3.33573e-09 -1.63234e-07 1.13272e-07)
(-1.75692e-09 -1.84553e-07 1.32869e-07)
(-8.75547e-09 -2.06302e-07 1.54371e-07)
(-1.83841e-08 -2.27983e-07 1.77242e-07)
(-3.19623e-08 -2.48792e-07 2.00464e-07)
(-5.13883e-08 -2.67185e-07 2.22223e-07)
(-7.80071e-08 -2.80316e-07 2.39944e-07)
(-1.05429e-07 -2.84206e-07 2.5116e-07)
(2.2612e-09 -1.22925e-08 7.69167e-09)
(6.18028e-09 -3.43623e-08 2.1522e-08)
(9.43399e-09 -5.48918e-08 3.45603e-08)
(1.1948e-08 -7.46491e-08 4.73797e-08)
(1.36481e-08 -9.42991e-08 6.04887e-08)
(1.44673e-08 -1.14415e-07 7.44186e-08)
(1.43722e-08 -1.35399e-07 8.97063e-08)
(1.33651e-08 -1.57454e-07 1.0681e-07)
(1.14907e-08 -1.80625e-07 1.26069e-07)
(8.79476e-09 -2.04841e-07 1.47592e-07)
(5.29079e-09 -2.29871e-07 1.71209e-07)
(7.88292e-10 -2.55308e-07 1.96386e-07)
(-5.31858e-09 -2.80489e-07 2.22073e-07)
(-1.42809e-08 -3.04109e-07 2.4624e-07)
(-2.79773e-08 -3.23499e-07 2.65634e-07)
(-4.55181e-08 -3.33527e-07 2.77046e-07)
(2.75966e-09 -1.29281e-08 8.40965e-09)
(7.56592e-09 -3.61495e-08 2.35327e-08)
(1.16289e-08 -5.7781e-08 3.77548e-08)
(1.49154e-08 -7.86406e-08 5.16693e-08)
(1.73953e-08 -9.94397e-08 6.58114e-08)
(1.9069e-08 -1.20797e-07 8.07275e-08)
(1.99936e-08 -1.43158e-07 9.70006e-08)
(2.02853e-08 -1.66768e-07 1.15106e-07)
(2.01427e-08 -1.91708e-07 1.35418e-07)
(1.98529e-08 -2.17933e-07 1.58029e-07)
(1.97506e-08 -2.45253e-07 1.82652e-07)
(2.03046e-08 -2.73313e-07 2.0892e-07)
(2.19503e-08 -3.01656e-07 2.35549e-07)
(2.56367e-08 -3.29576e-07 2.60318e-07)
(3.37848e-08 -3.5597e-07 2.79097e-07)
(4.95007e-08 -3.77161e-07 2.8748e-07)
(8.14962e-11 -1.22123e-09 5.57242e-10)
(2.08671e-10 -3.40821e-09 1.558e-09)
(2.71509e-10 -5.41696e-09 2.49147e-09)
(2.53005e-10 -7.32151e-09 3.44266e-09)
(9.39351e-11 -9.22426e-09 4.41103e-09)
(-2.46087e-10 -1.11705e-08 5.48608e-09)
(-8.42105e-10 -1.31834e-08 6.67813e-09)
(-1.77761e-09 -1.52533e-08 8.01973e-09)
(-3.17701e-09 -1.73489e-08 9.51904e-09)
(-5.24557e-09 -1.94668e-08 1.11849e-08)
(-8.30544e-09 -2.1579e-08 1.3027e-08)
(-1.30047e-08 -2.37418e-08 1.48785e-08)
(-2.0553e-08 -2.60296e-08 1.68112e-08)
(-3.39282e-08 -2.87157e-08 1.86662e-08)
(-5.96145e-08 -3.23567e-08 2.07041e-08)
(-1.00815e-07 -3.64691e-08 2.29978e-08)
(2.57295e-10 -3.62598e-09 1.6542e-09)
(6.64502e-10 -1.01075e-08 4.61736e-09)
(9.00609e-10 -1.60697e-08 7.44594e-09)
(8.60831e-10 -2.17669e-08 1.02135e-08)
(4.48915e-10 -2.74234e-08 1.31422e-08)
(-5.03735e-10 -3.32298e-08 1.63234e-08)
(-2.17144e-09 -3.92139e-08 1.98632e-08)
(-4.78437e-09 -4.53469e-08 2.38302e-08)
(-8.67958e-09 -5.15971e-08 2.82756e-08)
(-1.43464e-08 -5.78694e-08 3.32199e-08)
(-2.25767e-08 -6.41241e-08 3.84918e-08)
(-3.44924e-08 -7.03164e-08 4.39948e-08)
(-5.17902e-08 -7.64391e-08 4.92128e-08)
(-7.67357e-08 -8.25611e-08 5.36069e-08)
(-1.09894e-07 -8.82781e-08 5.64814e-08)
(-1.40498e-07 -9.15553e-08 5.73202e-08)
(4.70367e-10 -5.91421e-09 2.7085e-09)
(1.24274e-09 -1.64893e-08 7.60246e-09)
(1.71743e-09 -2.6254e-08 1.22014e-08)
(1.78085e-09 -3.55966e-08 1.68027e-08)
(1.2495e-09 -4.48859e-08 2.16002e-08)
(-8.78449e-11 -5.43595e-08 2.68038e-08)
(-2.49134e-09 -6.41327e-08 3.25772e-08)
(-6.28197e-09 -7.42099e-08 3.90582e-08)
(-1.18959e-08 -8.44974e-08 4.63344e-08)
(-1.9952e-08 -9.4886e-08 5.44051e-08)
(-3.13681e-08 -1.05251e-07 6.30231e-08)
(-4.72174e-08 -1.15454e-07 7.20111e-08)
(-6.87222e-08 -1.25442e-07 8.0655e-08)
(-9.62088e-08 -1.35279e-07 8.81672e-08)
(-1.26036e-07 -1.44864e-07 9.38331e-08)
(-1.4576e-07 -1.5248e-07 9.73404e-08)
(7.45092e-10 -8.00837e-09 3.71076e-09)
(1.98889e-09 -2.23484e-08 1.04093e-08)
(2.84058e-09 -3.56286e-08 1.674e-08)
(3.14565e-09 -4.83635e-08 2.30383e-08)
(2.7122e-09 -6.09984e-08 2.95916e-08)
(1.29208e-09 -7.38868e-08 3.66604e-08)
(-1.39157e-09 -8.72006e-08 4.44877e-08)
(-5.67488e-09 -1.00964e-07 5.32744e-08)
(-1.1979e-08 -1.15106e-07 6.31736e-08)
(-2.09439e-08 -1.29474e-07 7.40511e-08)
(-3.33141e-08 -1.43836e-07 8.59429e-08)
(-5.01028e-08 -1.57928e-07 9.81986e-08)
(-7.22118e-08 -1.71521e-07 1.1024e-07)
(-9.9335e-08 -1.84445e-07 1.21094e-07)
(-1.2735e-07 -1.96475e-07 1.29939e-07)
(-1.45351e-07 -2.0584e-07 1.35874e-07)
(1.09228e-09 -9.8351e-09 4.64448e-09)
(2.93958e-09 -2.74789e-08 1.29995e-08)
(4.3028e-09 -4.38517e-08 2.09224e-08)
(5.02911e-09 -5.95675e-08 2.8778e-08)
(4.92279e-09 -7.51612e-08 3.69045e-08)
(3.7615e-09 -9.10465e-08 4.56208e-08)
(1.29417e-09 -1.07494e-07 5.52448e-08)
(-2.74901e-09 -1.24585e-07 6.60539e-08)
(-8.71957e-09 -1.42248e-07 7.81996e-08)
(-1.7066e-08 -1.60316e-07 9.16997e-08)
(-2.84133e-08 -1.78498e-07 1.06335e-07)
(-4.36351e-08 -1.96316e-07 1.216e-07)
(-6.36911e-08 -2.1319e-07 1.3675e-07)
(-8.88597e-08 -2.28272e-07 1.50715e-07)
(-1.16541e-07 -2.40484e-07 1.62474e-07)
(-1.3691e-07 -2.48358e-07 1.70494e-07)
(1.50626e-09 -1.13307e-08 5.47032e-09)
(4.08196e-09 -3.16724e-08 1.53295e-08)
(6.09357e-09 -5.0582e-08 2.46539e-08)
(7.39626e-09 -6.87523e-08 3.38685e-08)
(7.83503e-09 -8.67777e-08 4.33358e-08)
(7.23501e-09 -1.05174e-07 5.34413e-08)
(5.42209e-09 -1.24269e-07 6.45599e-08)
(2.2292e-09 -1.44192e-07 7.70279e-08)
(-2.52114e-09 -1.64913e-07 9.10328e-08)
(-9.07037e-09 -1.86266e-07 1.06618e-07)
(-1.77768e-08 -2.07899e-07 1.23532e-07)
(-2.92404e-08 -2.29247e-07 1.41219e-07)
(-4.44174e-08 -2.49389e-07 1.58864e-07)
(-6.43999e-08 -2.66663e-07 1.75238e-07)
(-8.92675e-08 -2.78114e-07 1.89087e-07)
(-1.12671e-07 -2.80149e-07 1.98495e-07)
(1.9702e-09 -1.24284e-08 6.18142e-09)
(5.37404e-09 -3.47517e-08 1.73254e-08)
(8.12861e-09 -5.5523e-08 2.78402e-08)
(1.01332e-08 -7.55024e-08 3.81679e-08)
(1.12777e-08 -9.53556e-08 4.87299e-08)
(1.14522e-08 -1.15646e-07 5.99274e-08)
(1.05829e-08 -1.36773e-07 7.22002e-08)
(8.6425e-09 -1.58912e-07 8.59212e-08)
(5.62419e-09 -1.82059e-07 1.01297e-07)
(1.56216e-09 -2.0607e-07 1.18363e-07)
(-3.51552e-09 -2.30614e-07 1.36862e-07)
(-9.70258e-09 -2.55134e-07 1.5618e-07)
(-1.72683e-08 -2.78816e-07 1.75382e-07)
(-2.67463e-08 -3.00298e-07 1.92982e-07)
(-3.8763e-08 -3.17158e-07 2.07378e-07)
(-5.24439e-08 -3.25423e-07 2.16558e-07)
(2.46129e-09 -1.30698e-08 6.76435e-09)
(6.73179e-09 -3.65549e-08 1.89457e-08)
(1.02858e-08 -5.84341e-08 3.03925e-08)
(1.30575e-08 -7.9518e-08 4.16022e-08)
(1.49855e-08 -1.00508e-07 5.29697e-08)
(1.60453e-08 -1.22017e-07 6.49712e-08)
(1.62477e-08 -1.44477e-07 7.80432e-08)
(1.56787e-08 -1.68094e-07 9.25826e-08)
(1.45013e-08 -1.92889e-07 1.08779e-07)
(1.29698e-08 -2.18721e-07 1.26642e-07)
(1.1486e-08 -2.45244e-07 1.46004e-07)
(1.05165e-08 -2.71957e-07 1.6595e-07)
(1.08175e-08 -2.98206e-07 1.85608e-07)
(1.39316e-08 -3.23272e-07 2.03153e-07)
(2.35466e-08 -3.46559e-07 2.16479e-07)
(4.32202e-08 -3.66087e-07 2.23275e-07)
(5.43769e-11 -1.22898e-09 4.00386e-10)
(1.33888e-10 -3.42485e-09 1.12153e-09)
(1.55786e-10 -5.44211e-09 1.81106e-09)
(7.98494e-11 -7.36878e-09 2.47038e-09)
(-1.23476e-10 -9.27007e-09 3.19206e-09)
(-5.4323e-10 -1.1288e-08 3.97875e-09)
(-1.22967e-09 -1.33518e-08 4.85349e-09)
(-2.27715e-09 -1.54681e-08 5.82933e-09)
(-3.8174e-09 -1.76331e-08 6.92119e-09)
(-6.04674e-09 -1.98337e-08 8.1286e-09)
(-9.29988e-09 -2.2077e-08 9.40801e-09)
(-1.41874e-08 -2.44233e-08 1.08403e-08)
(-2.18464e-08 -2.68548e-08 1.22291e-08)
(-3.53559e-08 -2.97202e-08 1.36949e-08)
(-6.12843e-08 -3.34285e-08 1.54692e-08)
(-1.03109e-07 -3.73464e-08 1.7524e-08)
(1.79081e-10 -3.64629e-09 1.19185e-09)
(4.52463e-10 -1.01644e-08 3.35172e-09)
(5.41855e-10 -1.61712e-08 5.3542e-09)
(3.69692e-10 -2.19004e-08 7.38947e-09)
(-2.2734e-10 -2.77042e-08 9.52438e-09)
(-1.38051e-09 -3.35829e-08 1.18526e-08)
(-3.30403e-09 -3.9674e-08 1.4438e-08)
(-6.2436e-09 -4.59455e-08 1.73293e-08)
(-1.05357e-08 -5.23581e-08 2.0561e-08)
(-1.66734e-08 -5.88616e-08 2.4093e-08)
(-2.53929e-08 -6.54298e-08 2.79572e-08)
(-3.77177e-08 -7.19733e-08 3.19381e-08)
(-5.52877e-08 -7.84978e-08 3.58028e-08)
(-8.02456e-08 -8.48586e-08 3.9204e-08)
(-1.13107e-07 -9.03518e-08 4.17289e-08)
(-1.43528e-07 -9.27903e-08 4.27196e-08)
(3.48176e-10 -5.9511e-09 1.9644e-09)
(8.92059e-10 -1.65991e-08 5.48517e-09)
(1.15429e-09 -2.64308e-08 8.83148e-09)
(9.76149e-10 -3.5913e-08 1.21708e-08)
(1.85266e-10 -4.5288e-08 1.56736e-08)
(-1.47754e-09 -5.49345e-08 1.94803e-08)
(-4.27903e-09 -6.48639e-08 2.36936e-08)
(-8.56605e-09 -7.51127e-08 2.84122e-08)
(-1.47797e-08 -8.56258e-08 3.36769e-08)
(-2.35376e-08 -9.63102e-08 3.94574e-08)
(-3.56479e-08 -1.07058e-07 4.58174e-08)
(-5.20607e-08 -1.17629e-07 5.23123e-08)
(-7.37827e-08 -1.27955e-07 5.86206e-08)
(-1.00969e-07 -1.37898e-07 6.42529e-08)
(-1.29827e-07 -1.46984e-07 6.87205e-08)
(-1.48628e-07 -1.53541e-07 7.14582e-08)
(5.82195e-10 -8.06418e-09 2.69089e-09)
(1.52762e-09 -2.25152e-08 7.52692e-09)
(2.08797e-09 -3.59332e-08 1.21302e-08)
(2.08961e-09 -4.8782e-08 1.67176e-08)
(1.30698e-09 -6.16088e-08 2.15073e-08)
(-5.19146e-10 -7.46194e-08 2.66658e-08)
(-3.70568e-09 -8.80871e-08 3.23674e-08)
(-8.60325e-09 -1.02032e-07 3.87536e-08)
(-1.56592e-08 -1.16386e-07 4.58689e-08)
(-2.54195e-08 -1.30993e-07 5.38501e-08)
(-3.85969e-08 -1.45634e-07 6.24056e-08)
(-5.5989e-08 -1.59978e-07 7.13201e-08)
(-7.82004e-08 -1.73705e-07 7.99957e-08)
(-1.04691e-07 -1.86455e-07 8.7937e-08)
(-1.31211e-07 -1.97729e-07 9.45152e-08)
(-1.47886e-07 -2.0596e-07 9.87497e-08)
(8.94679e-10 -9.91382e-09 3.35534e-09)
(2.38785e-09 -2.77044e-08 9.43151e-09)
(3.40693e-09 -4.42248e-08 1.51867e-08)
(3.77306e-09 -6.01239e-08 2.09174e-08)
(3.26642e-09 -7.58359e-08 2.68443e-08)
(1.64046e-09 -9.18876e-08 3.31982e-08)
(-1.38925e-09 -1.0848e-07 4.02011e-08)
(-6.12212e-09 -1.25715e-07 4.80374e-08)
(-1.28909e-08 -1.43524e-07 5.68309e-08)
(-2.21023e-08 -1.61743e-07 6.66227e-08)
(-3.42911e-08 -1.79967e-07 7.72476e-08)
(-5.00746e-08 -1.97748e-07 8.82333e-08)
(-7.01152e-08 -2.14406e-07 9.90122e-08)
(-9.43795e-08 -2.28935e-07 1.0901e-07)
(-1.20218e-07 -2.40099e-07 1.17421e-07)
(-1.39027e-07 -2.4673e-07 1.22864e-07)
(1.28488e-09 -1.14207e-08 3.96568e-09)
(3.46793e-09 -3.19431e-08 1.11308e-08)
(5.0952e-09 -5.10351e-08 1.79194e-08)
(5.9994e-09 -6.93538e-08 2.46329e-08)
(6.01385e-09 -8.75536e-08 3.15361e-08)
(4.91222e-09 -1.06065e-07 3.88904e-08)
(2.50649e-09 -1.25271e-07 4.6976e-08)
(-1.39139e-09 -1.45286e-07 5.60106e-08)
(-6.95567e-09 -1.66047e-07 6.61546e-08)
(-1.43831e-08 -1.87332e-07 7.74542e-08)
(-2.38812e-08 -2.08791e-07 8.96991e-08)
(-3.58729e-08 -2.29755e-07 1.02327e-07)
(-5.09368e-08 -2.49269e-07 1.14719e-07)
(-6.98792e-08 -2.65593e-07 1.26198e-07)
(-9.2716e-08 -2.75802e-07 1.35788e-07)
(-1.14432e-07 -2.76724e-07 1.41927e-07)
(1.7372e-09 -1.25323e-08 4.49168e-09)
(4.71351e-09 -3.50508e-08 1.25895e-08)
(7.0605e-09 -5.60039e-08 2.02375e-08)
(8.65843e-09 -7.6162e-08 2.77611e-08)
(9.34754e-09 -9.61419e-08 3.54427e-08)
(9.03048e-09 -1.1655e-07 4.3595e-08)
(7.57987e-09 -1.37752e-07 5.25243e-08)
(4.94784e-09 -1.59912e-07 6.24668e-08)
(1.14863e-09 -1.82985e-07 7.3595e-08)