/*--------------------------------*- C++ -*----------------------------------*\
| =========                 |                                                 |
| \\      /  F ield         | OpenFOAM: The Open Source CFD Toolbox           |
|  \\    /   O peration     | Version:  v1912                                 |
|   \\  /    A nd           | Website:  www.openfoam.com                      |
|    \\/     M anipulation  |                                                 |
\*---------------------------------------------------------------------------*/
FoamFile
{
    version     2.0;
    format      ascii;
    class       pointVectorField;
    location    "0.15/fluid";
    object      pointMotionU;
}
// * * * * * * * * * * * * * * * * * * * * * * * * * * * * * * * * * * * * * //

dimensions      [0 1 -1 0 0 0 0];


internalField   nonuniform List<vector> 
16859
(
(0 0 0)
(0 0 0)
(0 0 0)
(0 0 0)
(0 0 0)
(0 0 0)
(0 0 0)
(0 0 0)
(0 0 0)
(0 0 0)
(0 0 0)
(0 0 0)
(0 0 0)
(0 0 0)
(0 0 0)
(0 0 0)
(3.28608e-08 9.06213e-08 3.93513e-08)
(0 0 0)
(8.95239e-10 -4.20785e-09 3.51903e-09)
(1.6681e-09 -8.0123e-09 6.76083e-09)
(2.31406e-09 -1.15565e-08 9.89588e-09)
(2.82578e-09 -1.49852e-08 1.30958e-08)
(3.19643e-09 -1.84037e-08 1.65309e-08)
(3.41159e-09 -2.184e-08 2.03384e-08)
(3.45943e-09 -2.52588e-08 2.46357e-08)
(3.33323e-09 -2.85694e-08 2.9528e-08)
(3.04374e-09 -3.15986e-08 3.51104e-08)
(2.6273e-09 -3.40249e-08 4.14608e-08)
(2.23342e-09 -3.52229e-08 4.8648e-08)
(2.34629e-09 -3.39461e-08 5.67979e-08)
(4.05732e-09 -2.77539e-08 6.63243e-08)
(9.70673e-09 -1.19105e-08 7.8316e-08)
(2.23544e-08 1.78337e-08 9.29999e-08)
(7.01742e-08 8.95735e-08 1.07254e-07)
(0 0 0)
(1.80894e-09 -8.29878e-09 6.95972e-09)
(3.37245e-09 -1.58149e-08 1.3373e-08)
(4.68372e-09 -2.28424e-08 1.95838e-08)
(5.7366e-09 -2.96421e-08 2.59199e-08)
(6.51762e-09 -3.64048e-08 3.26947e-08)
(7.00682e-09 -4.32163e-08 4.01921e-08)
(7.19142e-09 -5.00464e-08 4.86574e-08)
(7.07198e-09 -5.6751e-08 5.82969e-08)
(6.67686e-09 -6.30426e-08 6.92804e-08)
(6.06859e-09 -6.8408e-08 8.1714e-08)
(5.55345e-09 -7.18944e-08 9.56356e-08)
(5.91722e-09 -7.18882e-08 1.1103e-07)
(8.7377e-09 -6.59491e-08 1.27899e-07)
(1.70497e-08 -5.11021e-08 1.46162e-07)
(3.35746e-08 -2.85616e-08 1.63456e-07)
(9.22236e-08 3.39636e-09 1.9036e-07)
(0 0 0)
(2.75459e-09 -1.21461e-08 1.02479e-08)
(5.14001e-09 -2.31726e-08 1.96955e-08)
(7.15665e-09 -3.35086e-08 2.88486e-08)
(8.80482e-09 -4.35129e-08 3.81687e-08)
(1.00738e-08 -5.34706e-08 4.81055e-08)
(1.09546e-08 -6.35461e-08 5.90865e-08)
(1.14494e-08 -7.37541e-08 7.14823e-08)
(1.15892e-08 -8.39558e-08 8.5602e-08)
(1.14169e-08 -9.38467e-08 1.01676e-07)
(1.10747e-08 -1.02858e-07 1.1984e-07)
(1.09385e-08 -1.10015e-07 1.40083e-07)
(1.18288e-08 -1.13844e-07 1.62221e-07)
(1.52524e-08 -1.12435e-07 1.85752e-07)
(2.38524e-08 -1.04192e-07 2.09577e-07)
(3.97501e-08 -9.11486e-08 2.30188e-07)
(9.12731e-08 -7.04373e-08 2.56309e-07)
(0 0 0)
(3.73392e-09 -1.56154e-08 1.33058e-08)
(6.9786e-09 -2.98189e-08 2.55764e-08)
(9.74882e-09 -4.31585e-08 3.74592e-08)
(1.20558e-08 -5.60915e-08 4.95331e-08)
(1.39104e-08 -6.89956e-08 6.23705e-08)
(1.53283e-08 -8.21277e-08 7.65229e-08)
(1.63479e-08 -9.5586e-08 9.24845e-08)
(1.70477e-08 -1.09296e-07 1.10668e-07)
(1.75328e-08 -1.23017e-07 1.31382e-07)
(1.80309e-08 -1.36255e-07 1.54814e-07)
(1.89548e-08 -1.48198e-07 1.8099e-07)
(2.10192e-08 -1.57603e-07 2.09655e-07)
(2.52567e-08 -1.62751e-07 2.3989e-07)
(3.32481e-08 -1.6181e-07 2.69566e-07)
(4.62217e-08 -1.54919e-07 2.93455e-07)
(9.00848e-08 -1.3675e-07 3.18582e-07)
(0 0 0)
(4.74062e-09 -1.85717e-08 1.60688e-08)
(8.87588e-09 -3.54867e-08 3.0886e-08)
(1.24406e-08 -5.14032e-08 4.52208e-08)
(1.54672e-08 -6.68693e-08 5.9749e-08)
(1.79965e-08 -8.23543e-08 7.51391e-08)
(2.0083e-08 -9.82186e-08 9.20494e-08)
(2.18215e-08 -1.1466e-07 1.11085e-07)
(2.33591e-08 -1.31711e-07 1.32761e-07)
(2.49118e-08 -1.49249e-07 1.57489e-07)
(2.68155e-08 -1.66978e-07 1.85565e-07)
(2.95926e-08 -1.84372e-07 2.17178e-07)
(3.39606e-08 -2.00517e-07 2.52243e-07)
(4.05772e-08 -2.13828e-07 2.89842e-07)
(4.99856e-08 -2.21627e-07 3.27295e-07)
(6.19446e-08 -2.20833e-07 3.57292e-07)
(1.00026e-07 -2.01848e-07 3.84306e-07)
(0 0 0)
(5.75736e-09 -2.08869e-08 1.84874e-08)
(1.07986e-08 -3.99288e-08 3.55298e-08)
(1.51802e-08 -5.788e-08 5.19883e-08)
(1.89623e-08 -7.53714e-08 6.86119e-08)
(2.22187e-08 -9.29591e-08 8.61358e-08)
(2.50518e-08 -1.11097e-07 1.05298e-07)
(2.76248e-08 -1.30089e-07 1.268e-07)
(3.01721e-08 -1.5008e-07 1.51253e-07)
(3.3028e-08 -1.71106e-07 1.79164e-07)
(3.67035e-08 -1.93123e-07 2.10985e-07)
(4.19589e-08 -2.16004e-07 2.47169e-07)
(4.98131e-08 -2.39451e-07 2.88084e-07)
(6.12539e-08 -2.62692e-07 3.33514e-07)
(7.69077e-08 -2.8361e-07 3.81525e-07)
(9.49561e-08 -2.96823e-07 4.23478e-07)
(1.3347e-07 -2.78355e-07 4.60055e-07)
(0 0 0)
(6.75661e-09 -2.24471e-08 2.05277e-08)
(1.26904e-08 -4.2929e-08 3.94383e-08)
(1.78832e-08 -6.22781e-08 5.76601e-08)
(2.24187e-08 -8.11919e-08 7.59787e-08)
(2.64019e-08 -1.00297e-07 9.51627e-08)
(2.99826e-08 -1.20126e-07 1.16006e-07)
(3.33889e-08 -1.41063e-07 1.39278e-07)
(3.69354e-08 -1.63353e-07 1.65657e-07)
(4.10635e-08 -1.87174e-07 1.95719e-07)
(4.64562e-08 -2.12699e-07 2.30034e-07)
(5.41408e-08 -2.40197e-07 2.69284e-07)
(6.56289e-08 -2.70101e-07 3.14355e-07)
(8.29173e-08 -3.03052e-07 3.66162e-07)
(1.08577e-07 -3.39632e-07 4.25004e-07)
(1.41711e-07 -3.75968e-07 4.83768e-07)
(2.10488e-07 -4.22002e-07 5.58361e-07)
(0 0 0)
(7.7023e-09 -2.31652e-08 2.2167e-08)
(1.44826e-08 -4.43299e-08 4.25725e-08)
(2.04441e-08 -6.4373e-08 6.21775e-08)
(2.56882e-08 -8.40381e-08 8.17718e-08)
(3.03432e-08 -1.03997e-07 1.02125e-07)
(3.45954e-08 -1.24827e-07 1.24052e-07)
(3.87187e-08 -1.46962e-07 1.4836e-07)
(4.30742e-08 -1.7071e-07 1.75748e-07)
(4.81657e-08 -1.96319e-07 2.06803e-07)
(5.47253e-08 -2.24074e-07 2.42078e-07)
(6.38665e-08 -2.54391e-07 2.82272e-07)
(7.72221e-08 -2.8795e-07 3.28374e-07)
(9.70123e-08 -3.25834e-07 3.81608e-07)
(1.26177e-07 -3.69501e-07 4.43164e-07)
(1.62852e-07 -4.14774e-07 5.05987e-07)
(2.72105e-07 -5.11552e-07 6.28118e-07)
(0 0 0)
(0 0 0)
(0 0 0)
(0 0 0)
(0 0 0)
(0 0 0)
(0 0 0)
(0 0 0)
(0 0 0)
(0 0 0)
(0 0 0)
(0 0 0)
(0 0 0)
(0 0 0)
(0 0 0)
(0 0 0)
(-1.86963e-08 3.71602e-08 2.78269e-08)
(0 0 0)
(7.69723e-10 -4.32509e-09 3.43119e-09)
(1.42292e-09 -8.23787e-09 6.59178e-09)
(1.94355e-09 -1.18797e-08 9.63842e-09)
(2.31052e-09 -1.53981e-08 1.27329e-08)
(2.49697e-09 -1.89154e-08 1.6043e-08)
(2.4663e-09 -2.24746e-08 1.97085e-08)
(2.17707e-09 -2.60454e-08 2.38436e-08)
(1.57593e-09 -2.95447e-08 2.85468e-08)
(5.91835e-10 -3.2819e-08 3.38997e-08)
(-8.66608e-10 -3.55869e-08 3.99627e-08)
(-2.87566e-09 -3.73254e-08 4.67827e-08)
(-5.42279e-09 -3.70159e-08 5.44256e-08)
(-8.40334e-09 -3.26796e-08 6.31244e-08)
(-1.15532e-08 -2.06917e-08 7.34862e-08)
(-1.40783e-08 2.00199e-09 8.53468e-08)
(-2.55184e-08 3.37352e-08 9.81876e-08)
(0 0 0)
(1.56498e-09 -8.52381e-09 6.78352e-09)
(2.89641e-09 -1.6241e-08 1.30263e-08)
(3.96669e-09 -2.34502e-08 1.9054e-08)
(4.74155e-09 -3.0429e-08 2.51804e-08)
(5.173e-09 -3.73955e-08 3.17159e-08)
(5.20073e-09 -4.44532e-08 3.89416e-08)
(4.75718e-09 -5.15789e-08 4.70926e-08)
(3.75984e-09 -5.86419e-08 5.63615e-08)
(2.1033e-09 -6.53836e-08 6.68937e-08)
(-3.42031e-10 -7.1354e-08 7.87779e-08)
(-3.6259e-09 -7.57644e-08 9.20131e-08)
(-7.56724e-09 -7.73061e-08 1.06509e-07)
(-1.15955e-08 -7.40875e-08 1.22101e-07)
(-1.41748e-08 -6.41662e-08 1.3843e-07)
(-1.27218e-08 -4.90582e-08 1.53819e-07)
(-1.29508e-08 -4.27775e-08 1.74986e-07)
(0 0 0)
(2.40587e-09 -1.2462e-08 9.98087e-09)
(4.46188e-09 -2.37683e-08 1.9168e-08)
(6.13809e-09 -3.43646e-08 2.80461e-08)
(7.39708e-09 -4.46372e-08 3.70612e-08)
(8.18503e-09 -5.48989e-08 4.66562e-08)
(8.43862e-09 -6.53304e-08 5.72448e-08)
(8.08978e-09 -7.59551e-08 6.91824e-08)
(7.06606e-09 -8.66474e-08 8.27572e-08)
(5.26771e-09 -9.71288e-08 9.81804e-08)
(2.6026e-09 -1.06906e-07 1.15554e-07)
(-9.26755e-10 -1.15161e-07 1.34831e-07)
(-5.10132e-09 -1.20702e-07 1.5577e-07)
(-9.28309e-09 -1.22113e-07 1.77761e-07)
(-1.18112e-08 -1.18611e-07 1.99596e-07)
(-1.01256e-08 -1.12353e-07 2.18698e-07)
(-1.34088e-08 -1.1074e-07 2.39631e-07)
(0 0 0)
(3.30131e-09 -1.60057e-08 1.29514e-08)
(6.1388e-09 -3.05581e-08 2.4877e-08)
(8.49093e-09 -4.42322e-08 3.64013e-08)
(1.03281e-08 -5.75144e-08 4.80869e-08)
(1.16116e-08 -7.08072e-08 6.04877e-08)
(1.22977e-08 -8.43818e-08 7.41339e-08)
(1.23495e-08 -9.83436e-08 8.95001e-08)
(1.17418e-08 -1.12628e-07 1.06976e-07)
(1.0442e-08 -1.27014e-07 1.26852e-07)
(8.44439e-09 -1.41068e-07 1.4927e-07)
(5.7953e-09 -1.54086e-07 1.74214e-07)
(2.6138e-09 -1.65026e-07 2.01388e-07)
(-9.05647e-10 -1.72521e-07 2.29806e-07)
(-4.10295e-09 -1.75315e-07 2.57304e-07)
(-5.34177e-09 -1.73764e-07 2.79686e-07)
(-1.27303e-08 -1.7343e-07 2.99952e-07)
(0 0 0)
(4.24784e-09 -1.90226e-08 1.56347e-08)
(7.92124e-09 -3.63465e-08 3.00327e-08)
(1.10162e-08 -5.26612e-08 4.39373e-08)
(1.35239e-08 -6.85418e-08 5.80022e-08)
(1.54356e-08 -8.44786e-08 7.28682e-08)
(1.67484e-08 -1.00844e-07 8.91671e-08)
(1.7486e-08 -1.17842e-07 1.07481e-07)
(1.7707e-08 -1.35506e-07 1.28304e-07)
(1.75016e-08 -1.53725e-07 1.52016e-07)
(1.70057e-08 -1.7223e-07 1.78866e-07)
(1.6397e-08 -1.90538e-07 2.08981e-07)
(1.57913e-08 -2.07824e-07 2.42204e-07)
(1.49444e-08 -2.22652e-07 2.77552e-07)
(1.31818e-08 -2.32576e-07 3.12299e-07)
(1.02229e-08 -2.34765e-07 3.40405e-07)
(-1.58195e-09 -2.33777e-07 3.62501e-07)
(0 0 0)
(5.22869e-09 -2.13845e-08 1.79837e-08)
(9.77613e-09 -4.08824e-08 3.45422e-08)
(1.36621e-08 -5.92793e-08 5.05094e-08)
(1.69067e-08 -7.7231e-08 6.66036e-08)
(1.95387e-08 -9.53114e-08 8.35261e-08)
(2.161e-08 -1.13985e-07 1.01985e-07)
(2.32249e-08 -1.33555e-07 1.22657e-07)
(2.45503e-08 -1.54164e-07 1.4613e-07)
(2.58261e-08 -1.75845e-07 1.72874e-07)
(2.74051e-08 -1.98544e-07 2.03276e-07)
(2.9761e-08 -2.22119e-07 2.3769e-07)
(3.33843e-08 -2.46255e-07 2.76349e-07)
(3.83893e-08 -2.70145e-07 3.18859e-07)
(4.39343e-08 -2.91557e-07 3.63004e-07)
(4.7458e-08 -3.05342e-07 4.01525e-07)
(3.0653e-08 -2.98971e-07 4.31893e-07)
(0 0 0)
(6.21381e-09 -2.29746e-08 1.99636e-08)
(1.16433e-08 -4.39425e-08 3.83355e-08)
(1.63365e-08 -6.37666e-08 5.60132e-08)
(2.03411e-08 -8.31668e-08 7.37459e-08)
(2.37236e-08 -1.02786e-07 9.22648e-08)
(2.65938e-08 -1.23163e-07 1.12331e-07)
(2.91361e-08 -1.4468e-07 1.34689e-07)
(3.16214e-08 -1.67571e-07 1.59993e-07)
(3.44337e-08 -1.91995e-07 1.88778e-07)
(3.81514e-08 -2.18091e-07 2.21521e-07)
(4.36161e-08 -2.46061e-07 2.58767e-07)
(5.19959e-08 -2.76248e-07 3.01193e-07)
(6.47487e-08 -3.09166e-07 3.49332e-07)
(8.35471e-08 -3.45118e-07 4.02685e-07)
(1.07573e-07 -3.80824e-07 4.55033e-07)
(1.15539e-07 -4.16075e-07 5.01519e-07)
(0 0 0)
(7.16276e-09 -2.37033e-08 2.15494e-08)
(1.34448e-08 -4.53653e-08 4.1369e-08)
(1.89192e-08 -6.58942e-08 6.03849e-08)
(2.36568e-08 -8.60541e-08 7.93483e-08)
(2.77552e-08 -1.06531e-07 9.89899e-08)
(3.13713e-08 -1.27906e-07 1.20091e-07)
(3.47499e-08 -1.50608e-07 1.43432e-07)
(3.82306e-08 -1.74928e-07 1.69691e-07)
(4.22874e-08 -2.01084e-07 1.99403e-07)
(4.7609e-08 -2.29301e-07 2.33029e-07)
(5.52169e-08 -2.59894e-07 2.71098e-07)
(6.6585e-08 -2.93388e-07 3.14347e-07)
(8.37527e-08 -3.30604e-07 3.6355e-07)
(1.09485e-07 -3.72417e-07 4.18843e-07)
(1.42991e-07 -4.14811e-07 4.7358e-07)
(2.12512e-07 -4.73434e-07 5.42696e-07)
(0 0 0)
(0 0 0)
(0 0 0)
(0 0 0)
(0 0 0)
(0 0 0)
(0 0 0)
(0 0 0)
(0 0 0)
(0 0 0)
(0 0 0)
(0 0 0)
(0 0 0)
(0 0 0)
(0 0 0)
(0 0 0)
(-4.99005e-08 3.22758e-09 8.56818e-09)
(0 0 0)
(6.33232e-10 -4.42536e-09 3.19654e-09)
(1.15531e-09 -8.4318e-09 6.14039e-09)
(1.5387e-09 -1.2167e-08 8.97843e-09)
(1.74762e-09 -1.5778e-08 1.18558e-08)
(1.73277e-09 -1.93922e-08 1.49231e-08)
(1.43319e-09 -2.30687e-08 1.83134e-08)
(7.73828e-10 -2.67917e-08 2.21318e-08)
(-3.51114e-10 -3.04961e-08 2.64628e-08)
(-2.10243e-09 -3.40638e-08 3.13666e-08)
(-4.7289e-09 -3.72959e-08 3.68614e-08)
(-8.61022e-09 -3.98647e-08 4.29023e-08)
(-1.4385e-08 -4.12296e-08 4.93491e-08)
(-2.33647e-08 -4.05557e-08 5.58614e-08)
(-3.82329e-08 -3.68898e-08 6.1603e-08)
(-6.12995e-08 -3.07071e-08 6.4584e-08)
(-9.74811e-08 -2.58507e-08 4.93264e-08)
(0 0 0)
(1.2992e-09 -8.71405e-09 6.31601e-09)
(2.37719e-09 -1.66081e-08 1.21273e-08)
(3.184e-09 -2.39887e-08 1.77351e-08)
(3.65509e-09 -3.11407e-08 2.34258e-08)
(3.70466e-09 -3.82999e-08 2.94865e-08)
(3.22743e-09 -4.55876e-08 3.61751e-08)
(2.0944e-09 -5.29998e-08 4.37037e-08)
(1.307e-10 -6.04341e-08 5.22394e-08)
(-2.9207e-09 -6.76896e-08 6.18912e-08)
(-7.43507e-09 -7.44356e-08 7.26682e-08)
(-1.39239e-08 -8.01645e-08 8.44445e-08)
(-2.30843e-08 -8.41638e-08 9.68557e-08)
(-3.59029e-08 -8.56642e-08 1.09029e-07)
(-5.33487e-08 -8.45469e-08 1.19115e-07)
(-7.38506e-08 -8.28454e-08 1.24096e-07)
(-9.57675e-08 -8.90638e-08 1.14284e-07)
(0 0 0)
(2.02547e-09 -1.27287e-08 9.28929e-09)
(3.72151e-09 -2.42797e-08 1.78361e-08)
(5.0254e-09 -3.51125e-08 2.6089e-08)
(5.85876e-09 -4.56332e-08 3.44635e-08)
(6.1196e-09 -5.61726e-08 4.33651e-08)
(5.68464e-09 -6.69263e-08 5.31673e-08)
(4.40807e-09 -7.79346e-08 6.41908e-08)
(2.10107e-09 -8.91024e-08 7.66898e-08)
(-1.50659e-09 -1.00206e-07 9.08192e-08)
(-6.79664e-09 -1.10873e-07 1.06592e-07)
(-1.4266e-08 -1.20557e-07 1.23826e-07)
(-2.45606e-08 -1.28571e-07 1.41994e-07)
(-3.83932e-08 -1.3436e-07 1.59854e-07)
(-5.5941e-08 -1.38254e-07 1.74988e-07)
(-7.48324e-08 -1.42087e-07 1.8391e-07)
(-9.71855e-08 -1.49623e-07 1.77013e-07)
(0 0 0)
(2.82788e-09 -1.63338e-08 1.20519e-08)
(5.21966e-09 -3.11864e-08 2.3143e-08)
(7.11381e-09 -4.51549e-08 3.38556e-08)
(8.43505e-09 -5.87477e-08 4.47114e-08)
(9.08902e-09 -7.23832e-08 5.62138e-08)
(8.96629e-09 -8.63432e-08 6.88417e-08)
(7.94651e-09 -1.00742e-07 8.30228e-08)
(5.88495e-09 -1.15536e-07 9.91024e-08)
(2.57697e-09 -1.3054e-07 1.17297e-07)
(-2.27466e-09 -1.45417e-07 1.37657e-07)
(-9.11014e-09 -1.59653e-07 1.60006e-07)
(-1.86358e-08 -1.72565e-07 1.83751e-07)
(-3.18584e-08 -1.8344e-07 2.0738e-07)
(-4.96399e-08 -1.92e-07 2.27858e-07)
(-7.02975e-08 -1.98814e-07 2.40644e-07)
(-9.5987e-08 -2.07522e-07 2.35543e-07)
(0 0 0)
(3.70645e-09 -1.93986e-08 1.45496e-08)
(6.8721e-09 -3.70683e-08 2.79413e-08)
(9.44975e-09 -5.37236e-08 4.08673e-08)
(1.13834e-08 -6.99614e-08 5.39313e-08)
(1.26077e-08 -8.62849e-08 6.77145e-08)
(1.30555e-08 -1.03068e-07 8.27859e-08)
(1.26709e-08 -1.20516e-07 9.96736e-08)
(1.1404e-08 -1.38664e-07 1.18813e-07)
(9.18214e-09 -1.57416e-07 1.40502e-07)
(5.87501e-09 -1.76538e-07 1.64863e-07)
(1.19179e-09 -1.95621e-07 1.91811e-07)
(-5.56733e-09 -2.14015e-07 2.20826e-07)
(-1.5852e-08 -2.30688e-07 2.50342e-07)
(-3.19462e-08 -2.44099e-07 2.76879e-07)
(-5.41711e-08 -2.52477e-07 2.94654e-07)
(-8.46271e-08 -2.60675e-07 2.92567e-07)
(0 0 0)
(4.64419e-09 -2.17954e-08 1.67384e-08)
(8.64474e-09 -4.16721e-08 3.21407e-08)
(1.19797e-08 -6.04426e-08 4.6983e-08)
(1.46229e-08 -7.87817e-08 6.19261e-08)
(1.65508e-08 -9.72709e-08 7.76052e-08)
(1.77583e-08 -1.16371e-07 9.46619e-08)
(1.82795e-08 -1.36373e-07 1.13709e-07)
(1.81898e-08 -1.57406e-07 1.35263e-07)
(1.75934e-08 -1.79483e-07 1.59698e-07)
(1.6608e-08 -2.02521e-07 1.87232e-07)
(1.52735e-08 -2.26315e-07 2.17918e-07)
(1.32833e-08 -2.50483e-07 2.51452e-07)
(9.45325e-09 -2.74187e-07 2.865e-07)
(9.37697e-10 -2.95477e-07 3.19523e-07)
(-1.54823e-08 -3.10329e-07 3.43456e-07)
(-5.22585e-08 -3.10021e-07 3.4668e-07)
(0 0 0)
(5.60743e-09 -2.34066e-08 1.85811e-08)
(1.04717e-08 -4.47744e-08 3.56686e-08)
(1.46014e-08 -6.49912e-08 5.20947e-08)
(1.80028e-08 -8.4794e-08 6.8549e-08)
(2.06982e-08 -1.04828e-07 8.56972e-08)
(2.27495e-08 -1.25622e-07 1.04229e-07)
(2.42837e-08 -1.47536e-07 1.24819e-07)
(2.55002e-08 -1.70776e-07 1.4804e-07)
(2.66799e-08 -1.9545e-07 1.74313e-07)
(2.82105e-08 -2.2161e-07 2.03916e-07)
(3.05689e-08 -2.49276e-07 2.37007e-07)
(3.42069e-08 -2.78468e-07 2.73509e-07)
(3.92973e-08 -3.09106e-07 3.12474e-07)
(4.51735e-08 -3.40438e-07 3.50666e-07)
(4.93437e-08 -3.68491e-07 3.79965e-07)
(3.3263e-08 -3.94358e-07 3.83775e-07)
(0 0 0)
(6.5514e-09 -2.41435e-08 2.00516e-08)
(1.22651e-08 -4.62133e-08 3.84763e-08)
(1.71795e-08 -6.71422e-08 5.61338e-08)
(2.13312e-08 -8.77069e-08 7.37174e-08)
(2.4783e-08 -1.08592e-07 9.18964e-08)
(2.76546e-08 -1.30364e-07 1.11382e-07)
(3.01448e-08 -1.53423e-07 1.32877e-07)
(3.2541e-08 -1.78022e-07 1.56971e-07)
(3.5243e-08 -2.04313e-07 1.84085e-07)
(3.88095e-08 -2.32391e-07 2.14467e-07)
(4.39902e-08 -2.62327e-07 2.48249e-07)
(5.1715e-08 -2.94197e-07 2.85387e-07)
(6.30409e-08 -3.27956e-07 3.2511e-07)
(7.89768e-08 -3.62828e-07 3.64663e-07)
(9.79381e-08 -3.93519e-07 3.95763e-07)
(1.38149e-07 -4.22963e-07 3.98742e-07)
(0 0 0)
(0 0 0)
(0 0 0)
(0 0 0)
(0 0 0)
(0 0 0)
(0 0 0)
(0 0 0)
(0 0 0)
(0 0 0)
(0 0 0)
(0 0 0)
(0 0 0)
(0 0 0)
(0 0 0)
(0 0 0)
(-6.00012e-08 -9.06553e-09 9.02586e-09)
(0 0 0)
(4.946e-10 -4.50637e-09 2.83274e-09)
(8.84412e-10 -8.58834e-09 5.44044e-09)
(1.13074e-09 -1.23991e-08 7.95659e-09)
(1.18312e-09 -1.60905e-08 1.05103e-08)
(9.72665e-10 -1.97966e-08 1.32309e-08)
(4.14094e-10 -2.35854e-08 1.62325e-08)
(-5.99657e-10 -2.7453e-08 1.96032e-08)
(-2.21981e-09 -3.13524e-08 2.34097e-08)
(-4.67912e-09 -3.52031e-08 2.76868e-08)
(-8.35246e-09 -3.8889e-08 3.2417e-08)
(-1.38424e-08 -4.2259e-08 3.74996e-08)
(-2.21853e-08 -4.51386e-08 4.26792e-08)
(-3.5365e-08 -4.74071e-08 4.74121e-08)
(-5.68177e-08 -4.92225e-08 5.06307e-08)
(-8.78365e-08 -5.11007e-08 5.07378e-08)
(-1.23639e-07 -5.02426e-08 4.47046e-08)
(0 0 0)
(1.03021e-09 -8.86914e-09 5.59585e-09)
(1.85325e-09 -1.6908e-08 1.07452e-08)
(2.39637e-09 -2.44326e-08 1.57181e-08)
(2.56774e-09 -3.17385e-08 2.07681e-08)
(2.24578e-09 -3.90726e-08 2.61435e-08)
(1.2802e-09 -4.65697e-08 3.20636e-08)
(-5.15036e-10 -5.42439e-08 3.87072e-08)
(-3.39489e-09 -6.2022e-08 4.6207e-08)
(-7.7401e-09 -6.97618e-08 5.46253e-08)
(-1.41293e-08 -7.72568e-08 6.39182e-08)
(-2.33955e-08 -8.42439e-08 7.38687e-08)
(-3.67454e-08 -9.04567e-08 8.39655e-08)
(-5.57834e-08 -9.57942e-08 9.31489e-08)
(-8.15423e-08 -1.00638e-07 9.95166e-08)
(-1.0981e-07 -1.05602e-07 1.00915e-07)
(-1.29003e-07 -1.1273e-07 9.9932e-08)
(0 0 0)
(1.64189e-09 -1.29482e-08 8.2314e-09)
(2.97595e-09 -2.47042e-08 1.58075e-08)
(3.90782e-09 -3.57414e-08 2.31289e-08)
(4.3216e-09 -4.64784e-08 3.05612e-08)
(4.06714e-09 -5.72591e-08 3.84536e-08)
(2.96328e-09 -6.82925e-08 4.71243e-08)
(7.91762e-10 -7.96363e-08 5.68453e-08)
(-2.73655e-09 -9.12246e-08 6.78196e-08)
(-8.04169e-09 -1.02892e-07 8.01445e-08)
(-1.57281e-08 -1.14386e-07 9.37598e-08)
(-2.66333e-08 -1.25381e-07 1.08377e-07)
(-4.18581e-08 -1.3556e-07 1.23332e-07)
(-6.24798e-08 -1.44834e-07 1.3729e-07)
(-8.81909e-08 -1.53665e-07 1.48052e-07)
(-1.1358e-07 -1.62418e-07 1.53302e-07)
(-1.31133e-07 -1.71276e-07 1.55684e-07)
(0 0 0)
(2.35118e-09 -1.66066e-08 1.06847e-08)
(4.29534e-09 -3.1715e-08 2.05218e-08)
(5.73241e-09 -4.59374e-08 3.00289e-08)
(6.54261e-09 -5.97947e-08 3.96624e-08)
(6.57773e-09 -7.37172e-08 4.98547e-08)
(5.66465e-09 -8.79962e-08 6.10152e-08)
(3.60456e-09 -1.02757e-07 7.35085e-08)
(1.46898e-10 -1.17972e-07 8.7614e-08)
(-5.06523e-09 -1.33497e-07 1.03477e-07)
(-1.25468e-08 -1.49073e-07 1.21049e-07)
(-2.30574e-08 -1.6433e-07 1.40024e-07)
(-3.76878e-08 -1.78829e-07 1.59666e-07)
(-5.76389e-08 -1.92179e-07 1.78467e-07)
(-8.30387e-08 -2.04244e-07 1.93911e-07)
(-1.09184e-07 -2.14693e-07 2.03061e-07)
(-1.2898e-07 -2.24398e-07 2.08144e-07)
(0 0 0)
(3.1614e-09 -1.97129e-08 1.29073e-08)
(5.8169e-09 -3.76781e-08 2.47918e-08)
(7.87705e-09 -5.46246e-08 3.6265e-08)
(9.23932e-09 -7.11601e-08 4.78543e-08)
(9.78353e-09 -8.77956e-08 6.00583e-08)
(9.37966e-09 -1.04909e-07 7.33657e-08)
(7.8961e-09 -1.22702e-07 8.82283e-08)
(5.18112e-09 -1.41212e-07 1.05002e-07)
(1.02258e-09 -1.60347e-07 1.2389e-07)
(-4.9143e-09 -1.79888e-07 1.44886e-07)
(-1.32185e-08 -1.99459e-07 1.67708e-07)
(-2.49438e-08 -2.18488e-07 1.91621e-07)
(-4.17112e-08 -2.36098e-07 2.15032e-07)
(-6.50729e-08 -2.50925e-07 2.35113e-07)
(-9.2397e-08 -2.60963e-07 2.48185e-07)
(-1.16489e-07 -2.68435e-07 2.56168e-07)
(0 0 0)
(4.05452e-09 -2.21396e-08 1.48571e-08)
(7.50457e-09 -4.23397e-08 2.85289e-08)
(1.02857e-08 -6.14264e-08 4.17017e-08)
(1.23265e-08 -8.00818e-08 5.495e-08)
(1.35526e-08 -9.88904e-08 6.88211e-08)
(1.39018e-08 -1.18309e-07 8.387e-08)
(1.33394e-08 -1.38614e-07 1.0062e-07)
(1.18509e-08 -1.59912e-07 1.19494e-07)
(9.41897e-09 -1.82185e-07 1.40748e-07)
(5.97802e-09 -2.05288e-07 1.64422e-07)
(1.28718e-09 -2.28923e-07 1.90281e-07)
(-5.32365e-09 -2.52572e-07 2.17641e-07)
(-1.53028e-08 -2.75257e-07 2.44881e-07)
(-3.09817e-08 -2.94969e-07 2.68853e-07)
(-5.27609e-08 -3.0799e-07 2.84991e-07)
(-8.28353e-08 -3.04061e-07 2.95758e-07)
(0 0 0)
(4.99334e-09 -2.37696e-08 1.64952e-08)
(9.28588e-09 -4.54778e-08 3.16607e-08)
(1.28456e-08 -6.60241e-08 4.62302e-08)
(1.56389e-08 -8.61495e-08 6.08063e-08)
(1.7644e-08 -1.06498e-07 7.59675e-08)
(1.88739e-08 -1.27585e-07 9.23123e-08)
(1.93961e-08 -1.49747e-07 1.10415e-07)
(1.93343e-08 -1.73148e-07 1.3074e-07)
(1.88699e-08 -1.97831e-07 1.53574e-07)
(1.82355e-08 -2.23723e-07 1.78972e-07)
(1.76538e-08 -2.50633e-07 2.06726e-07)
(1.72059e-08 -2.78242e-07 2.36191e-07)
(1.66748e-08 -3.05958e-07 2.65727e-07)
(1.55236e-08 -3.3245e-07 2.91809e-07)
(1.35391e-08 -3.54153e-07 3.08666e-07)
(2.88163e-09 -3.732e-07 3.17191e-07)
(0 0 0)
(5.9287e-09 -2.45145e-08 1.77949e-08)
(1.1064e-08 -4.69314e-08 3.41362e-08)
(1.54085e-08 -6.81936e-08 4.97833e-08)
(1.89657e-08 -8.9078e-08 6.53458e-08)
(2.17633e-08 -1.10262e-07 8.14121e-08)
(2.38808e-08 -1.32297e-07 9.86019e-08)
(2.54662e-08 -1.55551e-07 1.17509e-07)
(2.67459e-08 -1.80224e-07 1.38607e-07)
(2.80432e-08 -2.06381e-07 1.62171e-07)
(2.97962e-08 -2.33957e-07 1.88226e-07)
(3.25495e-08 -2.62757e-07 2.16521e-07)
(3.69069e-08 -2.92428e-07 2.46395e-07)
(4.35282e-08 -3.22275e-07 2.76252e-07)
(5.33206e-08 -3.50757e-07 3.02675e-07)
(6.63592e-08 -3.73266e-07 3.19554e-07)
(1.06629e-07 -3.95484e-07 3.2171e-07)
(0 0 0)
(0 0 0)
(0 0 0)
(0 0 0)
(0 0 0)
(0 0 0)
(0 0 0)
(0 0 0)
(0 0 0)
(0 0 0)
(0 0 0)
(0 0 0)
(0 0 0)
(0 0 0)
(0 0 0)
(0 0 0)
(-6.42619e-08 -1.2845e-08 9.44453e-09)
(0 0 0)
(3.64892e-10 -4.56605e-09 2.3592e-09)
(6.31563e-10 -8.70344e-09 4.53075e-09)
(7.5103e-10 -1.25722e-08 6.62974e-09)
(6.61106e-10 -1.63313e-08 8.766e-09)
(2.76346e-10 -2.01202e-08 1.10468e-08)
(-5.0912e-10 -2.40102e-08 1.35604e-08)
(-1.82613e-09 -2.80032e-08 1.63738e-08)
(-3.85667e-09 -3.20671e-08 1.95361e-08)
(-6.87978e-09 -3.61516e-08 2.30668e-08)
(-1.13325e-08 -4.01954e-08 2.69371e-08)
(-1.791e-08 -4.41497e-08 3.10409e-08)
(-2.77777e-08 -4.80037e-08 3.51531e-08)
(-4.30008e-08 -5.1842e-08 3.88909e-08)
(-6.67823e-08 -5.58696e-08 4.17454e-08)
(-9.92917e-08 -5.98087e-08 4.32553e-08)
(-1.34323e-07 -5.85256e-08 4.11509e-08)
(0 0 0)
(7.78659e-10 -8.98555e-09 4.66187e-09)
(1.36367e-09 -1.7135e-08 8.95431e-09)
(1.66288e-09 -2.47754e-08 1.31069e-08)
(1.56151e-09 -3.2212e-08 1.7335e-08)
(9.07062e-10 -3.96983e-08 2.184e-08)
(-4.87319e-10 -4.73754e-08 2.67932e-08)
(-2.85069e-09 -5.52692e-08 3.2334e-08)
(-6.49439e-09 -6.33318e-08 3.8562e-08)
(-1.1875e-08 -7.14662e-08 4.55127e-08)
(-1.96621e-08 -7.95459e-08 5.31187e-08)
(-3.08198e-08 -8.74476e-08 6.11663e-08)
(-4.66588e-08 -9.50851e-08 6.92068e-08)
(-6.86683e-08 -1.0249e-07 7.64652e-08)
(-9.7081e-08 -1.09767e-07 8.18909e-08)
(-1.25809e-07 -1.16268e-07 8.46757e-08)
(-1.42392e-07 -1.22207e-07 8.66519e-08)
(0 0 0)
(1.28265e-09 -1.31177e-08 6.8625e-09)
(2.27881e-09 -2.50366e-08 1.31847e-08)
(2.86637e-09 -3.62418e-08 1.93061e-08)
(2.89682e-09 -4.71603e-08 2.55317e-08)
(2.18032e-09 -5.81415e-08 3.21415e-08)
(4.87987e-10 -6.9403e-08 3.93882e-08)
(-2.45509e-09 -8.10172e-08 4.74874e-08)
(-7.00841e-09 -9.2942e-08 5.65953e-08)
(-1.36739e-08 -1.05054e-07 6.67674e-08)
(-2.31597e-08 -1.17173e-07 7.79161e-08)
(-3.64096e-08 -1.29087e-07 8.97506e-08)
(-5.45403e-08 -1.40611e-07 1.01683e-07)
(-7.8302e-08 -1.51692e-07 1.12751e-07)
(-1.06231e-07 -1.62431e-07 1.21744e-07)
(-1.30996e-07 -1.72179e-07 1.27732e-07)
(-1.44802e-07 -1.8036e-07 1.32245e-07)
(0 0 0)
(1.90446e-09 -1.68229e-08 8.91682e-09)
(3.43028e-09 -3.21396e-08 1.71365e-08)
(4.44295e-09 -4.65716e-08 2.50929e-08)
(4.78533e-09 -6.06451e-08 3.3162e-08)
(4.26343e-09 -7.47959e-08 4.16907e-08)
(2.65085e-09 -8.93229e-08 5.10068e-08)
(-3.12223e-10 -1.0436e-07 6.14045e-08)
(-4.9496e-09 -1.19894e-07 7.31008e-08)
(-1.16977e-08 -1.35801e-07 8.61845e-08)
(-2.11653e-08 -1.51864e-07 1.00566e-07)
(-3.41845e-08 -1.67762e-07 1.15907e-07)
(-5.17873e-08 -1.83117e-07 1.31541e-07)
(-7.47105e-08 -1.97525e-07 1.46394e-07)
(-1.01779e-07 -2.10567e-07 1.59079e-07)
(-1.26497e-07 -2.21275e-07 1.68221e-07)
(-1.41913e-07 -2.30089e-07 1.74933e-07)
(0 0 0)
(2.64962e-09 -1.99666e-08 1.07839e-08)
(4.82729e-09 -3.81746e-08 2.07237e-08)
(6.40596e-09 -5.53602e-08 3.03303e-08)
(7.24311e-09 -7.21326e-08 4.00336e-08)
(7.17194e-09 -8.90063e-08 5.02348e-08)
(6.00977e-09 -1.06362e-07 6.13312e-08)
(3.56405e-09 -1.24402e-07 7.36893e-08)
(-3.84312e-10 -1.43157e-07 8.7586e-08)
(-6.12203e-09 -1.62528e-07 1.0315e-07)
(-1.40606e-08 -1.82281e-07 1.20302e-07)
(-2.48407e-08 -2.02018e-07 1.38676e-07)
(-3.94293e-08 -2.21137e-07 1.57559e-07)
(-5.89406e-08 -2.38692e-07 1.75781e-07)
(-8.36069e-08 -2.5314e-07 1.91738e-07)
(-1.09072e-07 -2.62227e-07 2.03593e-07)
(-1.28458e-07 -2.67876e-07 2.12235e-07)
(0 0 0)
(3.49927e-09 -2.242e-08 1.24228e-08)
(6.4322e-09 -4.28869e-08 2.38636e-08)
(8.69601e-09 -6.22306e-08 3.48909e-08)
(1.01806e-08 -8.11316e-08 4.59739e-08)
(1.07678e-08 -1.00175e-07 5.75583e-08)
(1.03463e-08 -1.19814e-07 7.00981e-08)
(8.82575e-09 -1.40313e-07 8.40188e-08)
(6.13162e-09 -1.61753e-07 9.96456e-08)
(2.18239e-09 -1.8407e-07 1.17139e-07)
(-3.15342e-09 -2.07052e-07 1.36427e-07)
(-1.0162e-08 -2.30295e-07 1.57125e-07)
(-1.94382e-08 -2.53145e-07 1.78476e-07)
(-3.19727e-08 -2.74468e-07 1.99183e-07)
(-4.88538e-08 -2.92168e-07 2.17341e-07)
(-6.87596e-08 -3.02799e-07 2.30663e-07)
(-9.39332e-08 -2.96451e-07 2.40478e-07)
(0 0 0)
(4.41305e-09 -2.40672e-08 1.37966e-08)
(8.16616e-09 -4.60561e-08 2.64842e-08)
(1.11914e-08 -6.68675e-08 3.86709e-08)
(1.34201e-08 -8.7239e-08 5.08523e-08)
(1.47926e-08 -1.0781e-07 6.35056e-08)
(1.52788e-08 -1.29085e-07 7.71244e-08)
(1.4896e-08 -1.51379e-07 9.21712e-08)
(1.37163e-08 -1.74814e-07 1.08998e-07)
(1.18673e-08 -1.99356e-07 1.27774e-07)
(9.52392e-09 -2.24818e-07 1.48419e-07)
(6.86484e-09 -2.50837e-07 1.7052e-07)
(4.01097e-09 -2.7686e-07 1.93256e-07)
(1.09025e-09 -3.02053e-07 2.15163e-07)
(-1.35847e-09 -3.25055e-07 2.3391e-07)
(-1.83124e-09 -3.43173e-07 2.46618e-07)
(-8.18568e-09 -3.60395e-07 2.54758e-07)
(0 0 0)
(5.33778e-09 -2.48196e-08 1.48779e-08)
(9.92566e-09 -4.75227e-08 2.85385e-08)
(1.37334e-08 -6.90515e-08 4.16107e-08)
(1.67357e-08 -9.01754e-08 5.46028e-08)
(1.89301e-08 -1.11564e-07 6.80088e-08)
(2.03584e-08 -1.33754e-07 8.23393e-08)
(2.11245e-08 -1.57085e-07 9.80669e-08)
(2.14108e-08 -1.81703e-07 1.15542e-07)
(2.14955e-08 -2.07582e-07 1.34919e-07)
(2.17725e-08 -2.34515e-07 1.56083e-07)
(2.27438e-08 -2.62108e-07 1.78575e-07)
(2.5014e-08 -2.89745e-07 2.01509e-07)
(2.94552e-08 -3.16478e-07 2.23335e-07)
(3.77365e-08 -3.40796e-07 2.41585e-07)
(5.1298e-08 -3.59302e-07 2.52982e-07)
(9.66775e-08 -3.79565e-07 2.5626e-07)
(0 0 0)
(0 0 0)
(0 0 0)
(0 0 0)
(0 0 0)
(0 0 0)
(0 0 0)
(0 0 0)
(0 0 0)
(0 0 0)
(0 0 0)
(0 0 0)
(0 0 0)
(0 0 0)
(0 0 0)
(0 0 0)
(-6.62067e-08 -1.38091e-08 8.04153e-09)
(0 0 0)
(2.53972e-10 -4.60343e-09 1.80654e-09)
(4.1616e-10 -8.77562e-09 3.46891e-09)
(4.29142e-10 -1.26822e-08 5.07733e-09)
(2.19427e-10 -1.64974e-08 6.7232e-09)
(-3.10191e-10 -2.03616e-08 8.4888e-09)
(-1.2776e-09 -2.43368e-08 1.04342e-08)
(-2.82875e-09 -2.84296e-08 1.26052e-08)
(-5.16155e-09 -3.26189e-08 1.50357e-08)
(-8.56523e-09 -3.68711e-08 1.77379e-08)
(-1.34859e-08 -4.11552e-08 2.06888e-08)
(-2.06221e-08 -4.54581e-08 2.3817e-08)
(-3.11099e-08 -4.97845e-08 2.69634e-08)
(-4.69678e-08 -5.42096e-08 2.99035e-08)
(-7.12707e-08 -5.87838e-08 3.24445e-08)
(-1.03981e-07 -6.2822e-08 3.43681e-08)
(-1.38468e-07 -6.06968e-08 3.33541e-08)
(0 0 0)
(5.63335e-10 -9.06223e-09 3.57196e-09)
(9.45744e-10 -1.72857e-08 6.86122e-09)
(1.03771e-09 -2.50128e-08 1.00512e-08)
(7.05484e-10 -3.25598e-08 1.33146e-08)
(-2.2416e-10 -4.0176e-08 1.68001e-08)
(-1.96193e-09 -4.79989e-08 2.0629e-08)
(-4.76523e-09 -5.60624e-08 2.49002e-08)
(-8.97086e-09 -6.43367e-08 2.96847e-08)
(-1.505e-08 -7.27507e-08 3.50029e-08)
(-2.36869e-08 -8.12237e-08 4.08081e-08)
(-3.58092e-08 -8.96543e-08 4.69432e-08)
(-5.26339e-08 -9.79633e-08 5.30684e-08)
(-7.54677e-08 -1.06116e-07 5.86903e-08)
(-1.04128e-07 -1.13884e-07 6.32494e-08)
(-1.3216e-07 -1.20106e-07 6.62003e-08)
(-1.46808e-07 -1.24792e-07 6.81239e-08)
(0 0 0)
(9.74642e-10 -1.32362e-08 5.2623e-09)
(1.68145e-09 -2.52748e-08 1.01159e-08)
(1.97407e-09 -3.66127e-08 1.48291e-08)
(1.68078e-09 -4.76795e-08 1.96378e-08)
(5.82688e-10 -5.88226e-08 2.47479e-08)
(-1.58251e-09 -7.02606e-08 3.0342e-08)
(-5.12422e-09 -8.20753e-08 3.6578e-08)
(-1.043e-08 -9.42417e-08 4.3569e-08)
(-1.80209e-08 -1.0666e-07 5.13522e-08)
(-2.85975e-08 -1.1918e-07 5.98691e-08)
(-4.30371e-08 -1.31596e-07 6.88789e-08)
(-6.22859e-08 -1.43701e-07 7.79192e-08)
(-8.6765e-08 -1.55337e-07 8.63704e-08)
(-1.14453e-07 -1.66266e-07 9.35574e-08)
(-1.37756e-07 -1.75484e-07 9.88038e-08)
(-1.49037e-07 -1.82563e-07 1.02341e-07)
(0 0 0)
(1.51977e-09 -1.69835e-08 6.84609e-09)
(2.68528e-09 -3.24607e-08 1.31683e-08)
(3.33446e-09 -4.70594e-08 1.93038e-08)
(3.28073e-09 -6.13051e-08 2.55374e-08)
(2.29791e-09 -7.56306e-08 3.21241e-08)
(1.22822e-10 -9.03377e-08 3.93058e-08)
(-3.5427e-09 -1.0557e-07 4.73025e-08)
(-9.04975e-09 -1.2132e-07 5.6274e-08)
(-1.68475e-08 -1.37474e-07 6.62871e-08)
(-2.75184e-08 -1.53808e-07 7.72693e-08)
(-4.18021e-08 -1.69988e-07 8.89104e-08)
(-6.05025e-08 -1.85599e-07 1.00669e-07)
(-8.39354e-08 -2.00116e-07 1.11844e-07)
(-1.10323e-07 -2.12862e-07 1.21638e-07)
(-1.33062e-07 -2.22709e-07 1.29041e-07)
(-1.45652e-07 -2.3035e-07 1.33976e-07)
(0 0 0)
(2.20693e-09 -2.01624e-08 8.29088e-09)
(3.97198e-09 -3.85616e-08 1.59467e-08)
(5.13704e-09 -5.59364e-08 2.33599e-08)
(5.52949e-09 -7.28907e-08 3.08522e-08)
(4.94841e-09 -8.99376e-08 3.87214e-08)
(3.17284e-09 -1.07461e-07 4.72665e-08)
(-2.49756e-11 -1.25662e-07 5.67639e-08)
(-4.89008e-09 -1.44564e-07 6.74185e-08)