/*--------------------------------*- C++ -*----------------------------------*\
| =========                 |                                                 |
| \\      /  F ield         | OpenFOAM: The Open Source CFD Toolbox           |
|  \\    /   O peration     | Version:  v1912                                 |
|   \\  /    A nd           | Website:  www.openfoam.com                      |
|    \\/     M anipulation  |                                                 |
\*---------------------------------------------------------------------------*/
FoamFile
{
    version     2.0;
    format      ascii;
    class       volVectorField;
    location    "0.15/fluid";
    object      U;
}
// * * * * * * * * * * * * * * * * * * * * * * * * * * * * * * * * * * * * * //

dimensions      [0 1 -1 0 0 0 0];


internalField   nonuniform List<vector> 
14592
(
(0.0899518 0.0130442 -0.000111924)
(0.0817881 0.00657853 -0.000590103)
(0.0753205 0.00331182 -0.00111699)
(0.0725194 0.00146355 -0.00172134)
(0.0708186 0.000778933 -0.00252015)
(0.0695713 0.000513676 -0.0035502)
(0.0684562 0.000433472 -0.00487473)
(0.0672614 0.000430926 -0.00658417)
(0.0658459 0.000469101 -0.00881468)
(0.0642031 0.000521424 -0.0117803)
(0.0618461 0.000590381 -0.0157878)
(0.0593668 0.000592202 -0.0213907)
(0.0544043 0.000612136 -0.029453)
(0.0498956 0.000230566 -0.0414613)
(0.0359473 2.66646e-05 -0.0597377)
(0.0215343 -0.0021472 -0.0688555)
(0.103769 0.0116454 -0.000317886)
(0.104327 0.00795525 -0.00101723)
(0.103711 0.00502763 -0.00173416)
(0.102395 0.00301775 -0.00254176)
(0.101126 0.00210841 -0.00360197)
(0.099796 0.00173384 -0.004978)
(0.0984127 0.00166483 -0.00675682)
(0.0968282 0.00177533 -0.00906151)
(0.0949021 0.00201254 -0.0120759)
(0.0926118 0.00234115 -0.0160866)
(0.0893658 0.00275321 -0.0215062)
(0.0857644 0.00316321 -0.0290669)
(0.0789256 0.00362051 -0.0398929)
(0.0721002 0.00372601 -0.055944)
(0.0525985 0.00382985 -0.0798493)
(0.0320043 0.00142461 -0.0916896)
(0.102982 0.00718492 -0.00032532)
(0.104588 0.00721474 -0.00103465)
(0.105514 0.00561743 -0.00175761)
(0.105047 0.00413871 -0.00256989)
(0.104373 0.00333731 -0.00363542)
(0.103377 0.0030112 -0.00501772)
(0.10221 0.0030385 -0.0068035)
(0.100767 0.00332636 -0.00911628)
(0.098937 0.00382924 -0.0121408)
(0.0967064 0.00451696 -0.0161682)
(0.0934587 0.00537734 -0.0216157)
(0.0897893 0.00634079 -0.0292402)
(0.0826886 0.00740678 -0.0401775)
(0.0754362 0.00825239 -0.0565071)
(0.0549035 0.0088565 -0.080855)
(0.0329552 0.00632686 -0.0933407)
(0.10156 0.00520631 -0.000288465)
(0.102966 0.00625435 -0.000971383)
(0.104365 0.00543654 -0.00167503)
(0.104467 0.00450466 -0.00246587)
(0.104288 0.00397688 -0.00350101)
(0.103651 0.00383902 -0.0048398)
(0.102762 0.00404447 -0.00656446)
(0.101549 0.00454724 -0.00879309)
(0.0999236 0.00532859 -0.0117031)
(0.0978831 0.00638294 -0.0155785)
(0.0947937 0.00771781 -0.0208235)
(0.0912427 0.00930335 -0.0282004)
(0.08412 0.0111372 -0.0388132)
(0.0767094 0.0129412 -0.0548425)
(0.0556542 0.0144525 -0.0788363)
(0.0328991 0.0113641 -0.0917628)
(0.100974 0.00388105 -0.000232939)
(0.102131 0.00528385 -0.000875097)
(0.103591 0.00506296 -0.00155048)
(0.103981 0.00461401 -0.00231015)
(0.104132 0.00439451 -0.00330051)
(0.103804 0.00448876 -0.00457477)
(0.103205 0.00490786 -0.00620808)
(0.102273 0.00564965 -0.00830946)
(0.10093 0.00672573 -0.0110433)
(0.0991881 0.00816062 -0.0146781)
(0.096407 0.00998489 -0.0195907)
(0.0931639 0.0122157 -0.0265322)
(0.0862572 0.0148454 -0.0365346)
(0.0789089 0.0176388 -0.0518879)
(0.0572904 0.0201107 -0.0749474)
(0.0334385 0.0161632 -0.0883001)
(0.100717 0.00305051 -0.000167077)
(0.10172 0.00445504 -0.00076019)
(0.103185 0.00456809 -0.00140199)
(0.103772 0.00446 -0.00212453)
(0.104181 0.00451191 -0.0030611)
(0.104131 0.00483368 -0.0042574)
(0.103821 0.00546612 -0.00577965)
(0.103193 0.00644075 -0.00772505)
(0.102183 0.00780391 -0.0102411)
(0.100806 0.00963013 -0.0135753)
(0.0984213 0.0120114 -0.0180694)
(0.0955722 0.0151047 -0.0244567)
(0.0889655 0.0190295 -0.0336749)
(0.0817243 0.0238954 -0.0481503)
(0.0594717 0.0292182 -0.0699628)
(0.0343214 0.0258724 -0.0839398)
(0.100623 0.00236482 -9.24129e-05)
(0.101573 0.00366125 -0.000630024)
(0.103074 0.00399636 -0.00123383)
(0.103819 0.00414909 -0.00191418)
(0.104445 0.00443425 -0.00278919)
(0.104651 0.00495896 -0.00389551)
(0.104635 0.00577913 -0.00528787)
(0.104352 0.0069482 -0.00704699)
(0.103766 0.00853683 -0.00929456)
(0.102926 0.0106574 -0.0122389)
(0.101267 0.0134363 -0.0161524)
(0.0993736 0.0171443 -0.0216836)
(0.0940545 0.0219392 -0.0295476)
(0.0883722 0.0282845 -0.0421568)
(0.0667437 0.035601 -0.0609249)
(0.0408725 0.0321107 -0.0749399)
(0.1006 0.0017325 -1.26445e-05)
(0.101577 0.00285475 -0.000491024)
(0.103163 0.00332745 -0.00105434)
(0.104059 0.003676 -0.0016897)
(0.104882 0.00415134 -0.00249896)
(0.105323 0.00484257 -0.00350914)
(0.105588 0.00581073 -0.00476284)
(0.105644 0.00712509 -0.00632357)
(0.105479 0.00888125 -0.00828733)
(0.105158 0.0112463 -0.0108239)
(0.104183 0.0144281 -0.0141437)
(0.103108 0.0189924 -0.0188154)
(0.0988847 0.0254675 -0.0253651)
(0.0945358 0.0362413 -0.0361844)
(0.07377 0.052198 -0.0521449)
(0.0503247 0.0672807 -0.0672105)
(0.0899052 0.0130477 -0.00029409)
(0.0815941 0.00658906 -0.000814921)
(0.0749267 0.00332232 -0.00129861)
(0.0719434 0.00147549 -0.00183999)
(0.0700382 0.000794175 -0.00256729)
(0.068556 0.000533836 -0.00352112)
(0.0671471 0.000460697 -0.00475968)
(0.0655745 0.000468139 -0.00636053)
(0.0636647 0.000520987 -0.00843575)
(0.061377 0.00059522 -0.0111396)
(0.0581926 0.000700241 -0.0146853)
(0.0546434 0.000761937 -0.0193112)
(0.0485177 0.00089181 -0.0254544)
(0.0423269 0.000726185 -0.0328774)
(0.0281783 0.000839396 -0.0420355)
(0.0122038 -0.000596051 -0.0363857)
(0.103708 0.0116636 -0.000529043)
(0.104077 0.00798988 -0.00128091)
(0.1032 0.00506956 -0.00194781)
(0.101633 0.0030687 -0.00267766)
(0.100084 0.00217368 -0.00364772)
(0.0984287 0.0018198 -0.0049262)
(0.0966396 0.0017798 -0.00659422)
(0.0945324 0.0019301 -0.00875881)
(0.0919202 0.00222175 -0.0115732)
(0.0887293 0.00262386 -0.0152494)
(0.0843133 0.00313781 -0.0200789)
(0.0791897 0.00368391 -0.0264023)
(0.0706225 0.00433971 -0.0347918)
(0.0614099 0.00471416 -0.0450474)
(0.0413515 0.00516068 -0.0574876)
(0.0187544 0.00303947 -0.0500199)
(0.102921 0.00722035 -0.000539368)
(0.104337 0.00727759 -0.00130267)
(0.105001 0.00569661 -0.00197517)
(0.104283 0.0042361 -0.00270882)
(0.103328 0.00346187 -0.00368326)
(0.102008 0.00317499 -0.00496714)
(0.100435 0.00325738 -0.00664137)
(0.0984715 0.00362079 -0.00881327)
(0.0959552 0.00422613 -0.0116368)
(0.0928231 0.00504974 -0.0153271)
(0.0883979 0.00609152 -0.0201784)
(0.0831959 0.00728076 -0.0265467)
(0.0743339 0.00864702 -0.0350048)
(0.0646549 0.00980582 -0.0453997)
(0.0435074 0.0107602 -0.0580127)
(0.019477 0.00789057 -0.0504734)
(0.101501 0.0052546 -0.000503644)
(0.102721 0.00633951 -0.00124168)
(0.103865 0.0055454 -0.00189535)
(0.103726 0.00463959 -0.00260823)
(0.103276 0.00415001 -0.00355337)
(0.102329 0.00406735 -0.00479538)
(0.101053 0.00435068 -0.00641088)
(0.0993435 0.00496112 -0.00850217)
(0.0970623 0.00588982 -0.0112165)
(0.0941599 0.00714179 -0.0147625)
(0.0899371 0.00874319 -0.0194232)
(0.0849103 0.0106642 -0.0255597)
(0.0760656 0.0129468 -0.0337181)
(0.0662792 0.015208 -0.0438238)
(0.0445718 0.0172405 -0.0561102)
(0.0196454 0.0134852 -0.0488971)
(0.100917 0.00394181 -0.000449617)
(0.101895 0.00539042 -0.00114829)
(0.103111 0.00519984 -0.0017746)
(0.103271 0.00478425 -0.00245743)
(0.103168 0.00461346 -0.00335949)
(0.102551 0.00477827 -0.0045395)
(0.101593 0.00529738 -0.00606749)
(0.100199 0.0061784 -0.00803745)
(0.0982496 0.00744648 -0.010585)
(0.0957098 0.00914126 -0.0139061)
(0.0918721 0.0113189 -0.0182613)
(0.0872573 0.0139988 -0.0240091)
(0.0787124 0.0172345 -0.0316425)
(0.0691026 0.0206436 -0.0412018)
(0.0467494 0.0238394 -0.0528241)
(0.0205732 0.0189062 -0.0461547)
(0.100662 0.00312055 -0.000385635)
(0.101494 0.00457768 -0.0010369)
(0.102727 0.004726 -0.00163075)
(0.1031 0.00465689 -0.00227782)
(0.103275 0.00476579 -0.00312814)
(0.102961 0.00517048 -0.00423334)
(0.102325 0.00592143 -0.0056551)
(0.101281 0.00706309 -0.00747676)
(0.0997234 0.00866055 -0.00981901)
(0.0976284 0.010812 -0.012861)
(0.0942808 0.0136496 -0.0168345)
(0.0901854 0.0173521 -0.0220946)
(0.0820344 0.0221434 -0.0290651)
(0.0726738 0.02798 -0.0379411)
(0.0495909 0.0345783 -0.0487132)
(0.0219316 0.0300367 -0.0428281)
(0.10057 0.00244169 -0.000313219)
(0.101359 0.00379552 -0.000910833)
(0.102643 0.00416942 -0.00146803)
(0.103191 0.00436514 -0.00207447)
(0.103605 0.00471321 -0.00286563)
(0.103577 0.00532971 -0.00388465)
(0.103277 0.00628162 -0.00518268)
(0.102636 0.00763754 -0.00682849)
(0.101583 0.00949013 -0.00892076)
(0.100143 0.0119812 -0.0116086)
(0.0976822 0.0152847 -0.0150713)
(0.0947879 0.0197073 -0.0196215)
(0.0881899 0.025532 -0.0255391)
(0.0808175 0.0330723 -0.0331461)
(0.0583338 0.0420309 -0.0421286)
(0.0298221 0.036994 -0.0370778)
(0.10055 0.00181277 -0.000235968)
(0.101376 0.00299474 -0.000776329)
(0.102761 0.00350796 -0.00129447)
(0.103478 0.00390146 -0.00185761)
(0.104113 0.00444265 -0.00258559)
(0.104352 0.00523023 -0.00351254)
(0.104376 0.00633738 -0.00467847)
(0.104133 0.00785057 -0.00613698)
(0.103584 0.00989121 -0.00796469)
(0.102778 0.012665 -0.0102813)
(0.101148 0.0164419 -0.0132186)
(0.0992841 0.021868 -0.0170533)
(0.0939916 0.0296611 -0.0219402)
(0.0883384 0.0422313 -0.0283516)
(0.0667353 0.061008 -0.0356911)
(0.0408814 0.0750525 -0.0321888)
(0.0898673 0.0130511 -0.000391204)
(0.0814286 0.00659877 -0.000912042)
(0.0745831 0.0033322 -0.00134536)
(0.0714297 0.00148674 -0.00181935)
(0.0693302 0.000808435 -0.00246145)
(0.0676224 0.000552478 -0.00331191)
(0.065931 0.000485361 -0.00442213)
(0.0639919 0.000500664 -0.00585704)
(0.0615949 0.000563483 -0.00770909)
(0.0586436 0.000649675 -0.0100957)
(0.0545726 0.000768188 -0.0131881)
(0.0497825 0.000844071 -0.0171156)
(0.0422358 0.000984421 -0.0222324)
(0.0341212 0.000841737 -0.0280762)
(0.0200195 0.000917 -0.0349414)
(0.00558004 -0.000387462 -0.029984)
(0.103657 0.0116808 -0.000631588)
(0.103862 0.00802256 -0.00137742)
(0.102752 0.00510928 -0.00198033)
(0.100951 0.00311696 -0.00262367)
(0.099135 0.00223534 -0.00348345)
(0.0971694 0.00190072 -0.0046265)
(0.0949922 0.0018875 -0.00612486)
(0.0923826 0.00207398 -0.00806869)
(0.0891048 0.00241369 -0.0105844)
(0.0850129 0.00287786 -0.0138342)
(0.0793951 0.00347111 -0.0180485)
(0.0726145 0.00411158 -0.0234198)
(0.062129 0.00488094 -0.0303887)
(0.050415 0.00537214 -0.0384361)
(0.0303026 0.00589553 -0.047677)
(0.0096617 0.00369822 -0.040894)
(0.102871 0.00725405 -0.000643217)
(0.104122 0.00733718 -0.00140082)
(0.104552 0.00577172 -0.00200884)
(0.103599 0.00432839 -0.00265529)
(0.102378 0.00357969 -0.00351872)
(0.100747 0.00332961 -0.00466641)
(0.0987869 0.00346354 -0.0061703)
(0.0963209 0.00389733 -0.00812081)
(0.093138 0.0045974 -0.010645)
(0.0891014 0.00554527 -0.0139075)
(0.0834629 0.00674976 -0.018141)
(0.0765843 0.00813603 -0.0235495)
(0.0657582 0.00975241 -0.0305741)
(0.0535185 0.0111512 -0.0387267)
(0.0322489 0.0123476 -0.0480909)
(0.0101643 0.00913256 -0.0412464)
(0.101453 0.00530053 -0.000610178)
(0.102511 0.00642031 -0.00134462)
(0.103428 0.00564862 -0.00193515)
(0.103063 0.00476739 -0.00256244)
(0.102357 0.00431376 -0.00339896)
(0.101112 0.00428299 -0.00450832)
(0.0994664 0.00463943 -0.00595864)
(0.0972768 0.00535076 -0.00783595)
(0.0943569 0.00641725 -0.0102616)
(0.0905855 0.00785353 -0.0133951)
(0.0851872 0.00970262 -0.0174601)
(0.0785295 0.0119336 -0.0226665)
(0.0677421 0.014627 -0.029436)
(0.0554137 0.0173007 -0.0373504)
(0.0335094 0.0198018 -0.0464643)
(0.0104176 0.0155224 -0.0399355)
(0.100871 0.00399954 -0.000560036)
(0.101693 0.00549148 -0.00125812)
(0.102692 0.00532953 -0.00182338)
(0.102638 0.0049454 -0.00242304)
(0.102295 0.00482047 -0.00322005)
(0.101399 0.00505164 -0.00427271)
(0.100096 0.00566479 -0.00564332)
(0.0982572 0.00667672 -0.00741072)
(0.0957134 0.00812561 -0.00968646)
(0.0923646 0.0100659 -0.0126199)
(0.0874222 0.0125795 -0.0164169)
(0.0812704 0.0156899 -0.0212892)
(0.0708508 0.0195126 -0.0276183)
(0.0587805 0.0235315 -0.0350929)
(0.0361128 0.0274652 -0.0437045)
(0.0115522 0.0218296 -0.0376783)
(0.100618 0.00318702 -0.000500699)
(0.101302 0.00469389 -0.00115495)
(0.10233 0.00487552 -0.00169028)
(0.102503 0.00484315 -0.00225708)
(0.102456 0.0050057 -0.00300666)
(0.101887 0.00548839 -0.00399095)
(0.100938 0.00635079 -0.00526487)
(0.0994919 0.00764964 -0.00689805)
(0.0973971 0.00946824 -0.00898927)
(0.094571 0.0119281 -0.0116742)
(0.0902125 0.0152026 -0.0151352)
(0.0847085 0.0194944 -0.0195853)
(0.0747812 0.0251359 -0.0253504)
(0.0630916 0.0319431 -0.0322617)
(0.039558 0.0398367 -0.0402073)
(0.0132131 0.0345269 -0.0348648)
(0.100528 0.00251455 -0.000433611)
(0.101178 0.00392265 -0.00103826)
(0.10227 0.00433317 -0.00153982)
(0.102635 0.00456941 -0.00206932)
(0.102848 0.00497671 -0.00276474)
(0.102594 0.00567959 -0.00367044)
(0.102019 0.00675554 -0.00483213)
(0.10103 0.00828772 -0.00630708)
(0.0995177 0.0103908 -0.00817575)
(0.097461 0.0132366 -0.0105504)
(0.0941453 0.0170516 -0.0135717)
(0.0900807 0.0221848 -0.0174287)
(0.0819576 0.0290628 -0.0223384)
(0.0726297 0.0378722 -0.0282719)
(0.0495774 0.048621 -0.0349123)
(0.0219318 0.0427478 -0.0303361)
(0.10051 0.00188878 -0.000362107)
(0.101207 0.0031272 -0.00091384)
(0.102414 0.00367866 -0.00137942)
(0.102966 0.00411452 -0.00186917)
(0.103422 0.00471771 -0.00250674)
(0.103465 0.00559595 -0.00332845)
(0.103256 0.00683396 -0.00437022)
(0.102723 0.00853482 -0.00567626)
(0.101796 0.0108459 -0.00730821)
(0.100491 0.0140121 -0.00935462)
(0.0981688 0.0183731 -0.0119161)
(0.0953792 0.0246606 -0.0151599)
(0.0888267 0.0338155 -0.0191987)
(0.0816473 0.0482641 -0.0241581)
(0.0594502 0.0701085 -0.0295178)
(0.0343336 0.0841366 -0.0261443)
(0.0898365 0.0130541 -0.000417114)
(0.0812897 0.00660741 -0.000899357)
(0.0742912 0.00334107 -0.00127215)
(0.0709881 0.0014969 -0.00167171)
(0.0687171 0.000821336 -0.00221447)
(0.066813 0.000569444 -0.00293608)
(0.0648837 0.000508086 -0.00387745)
(0.0626512 0.000531407 -0.00508596)
(0.0598949 0.00060549 -0.00662474)
(0.0565045 0.000708089 -0.00856035)
(0.0519486 0.000850752 -0.010986)
(0.0466056 0.000965789 -0.0138951)
(0.0387175 0.00116441 -0.0174406)
(0.0303128 0.00113031 -0.0209891)
(0.0171281 0.00132088 -0.0245499)
(0.00431994 0.000181682 -0.0195339)
(0.103615 0.0116964 -0.000642572)
(0.10368 0.00805199 -0.00132955)
(0.102368 0.00514513 -0.00185158)
(0.100362 0.0031605 -0.00239675)
(0.0983108 0.0022909 -0.00312596)
(0.0960738 0.00197359 -0.00409845)
(0.0935672 0.00198448 -0.00537232)
(0.0905503 0.00220374 -0.00701452)
(0.0867705 0.00258752 -0.009113)
(0.0820622 0.0031102 -0.0117639)
(0.0757488 0.00378099 -0.0150953)
(0.0681753 0.00452186 -0.0191237)
(0.0571373 0.00542258 -0.0240299)
(0.0449823 0.00607764 -0.0290564)
(0.0260431 0.00676903 -0.0340035)
(0.00762368 0.00456783 -0.0271581)
(0.10283 0.00728455 -0.0006541)
(0.10394 0.007391 -0.00135219)
(0.104168 0.00583952 -0.00187871)
(0.103009 0.00441161 -0.0024264)
(0.101552 0.00368574 -0.0031586)
(0.0996505 0.00346848 -0.00413498)
(0.0973612 0.0036482 -0.00541358)
(0.0944886 0.00414426 -0.00706151)
(0.090804 0.00492767 -0.00916711)
(0.086151 0.00598436 -0.0118281)
(0.0798139 0.00733031 -0.0151735)
(0.0721392 0.00888813 -0.0192264)
(0.0607491 0.0107207 -0.0241647)
(0.0480615 0.0123355 -0.0292449)
(0.0279563 0.0137523 -0.0342369)
(0.00811606 0.0102932 -0.0273021)
(0.101413 0.00534209 -0.000625118)
(0.102335 0.00649332 -0.00130299)
(0.103056 0.0057418 -0.00181414)
(0.102491 0.00488257 -0.00234511)
(0.10156 0.00446102 -0.00305392)
(0.100055 0.00447635 -0.00399712)
(0.0980951 0.00489733 -0.00522959)
(0.0955179 0.00569695 -0.00681491)
(0.0921199 0.00688246 -0.00883697)
(0.0877612 0.00847515 -0.0113897)
(0.0816948 0.0105293 -0.0145958)
(0.0742767 0.0130089 -0.0184839)
(0.0629428 0.0160185 -0.0232187)
(0.0501816 0.0189949 -0.0281104)
(0.0293877 0.0218142 -0.0329116)
(0.00845933 0.0171227 -0.0262379)
(0.100833 0.00405175 -0.000580994)
(0.101524 0.00558276 -0.00122698)
(0.102335 0.00544654 -0.00171601)
(0.102093 0.00509054 -0.00222291)
(0.101537 0.00500645 -0.00289744)
(0.100399 0.00529642 -0.00379167)
(0.0988042 0.00599221 -0.00495569)
(0.0966058 0.00711779 -0.00644743)
(0.0936197 0.00872092 -0.00834342)
(0.0897294 0.0108652 -0.0107305)
(0.0841686 0.0136486 -0.0137196)
(0.0773176 0.0170877 -0.0173449)
(0.0663853 0.0213333 -0.0217454)
(0.0539154 0.0257529 -0.0263188)
(0.0322637 0.0301233 -0.0307825)
(0.00971292 0.0239175 -0.0245385)
(0.100581 0.00324708 -0.00052881)
(0.101141 0.00479879 -0.00113633)
(0.101993 0.00501034 -0.00159919)
(0.10199 0.00501079 -0.00207749)
(0.101746 0.00522104 -0.00271091)
(0.100956 0.00577262 -0.00354615)
(0.0997414 0.00673247 -0.00462734)
(0.0979713 0.00816659 -0.00600519)
(0.0954789 0.0101711 -0.00774669)
(0.0921686 0.0128814 -0.00992953)
(0.0872537 0.0164947 -0.0126488)
(0.0811272 0.0212127 -0.015946)
(0.0707273 0.027424 -0.0199251)
(0.0586843 0.034802 -0.0241014)
(0.0360549 0.043373 -0.0281328)
(0.0115153 0.0373813 -0.0224638)
(0.100493 0.00258034 -0.000469843)
(0.101027 0.00403735 -0.00103384)
(0.101955 0.00448075 -0.00146718)
(0.102158 0.00475316 -0.00191307)
(0.102194 0.00521306 -0.00249963)
(0.101741 0.00599206 -0.00326727)
(0.100934 0.00717605 -0.00425276)
(0.0996643 0.00885899 -0.00549742)
(0.0978124 0.0111707 -0.00705495)
(0.0953505 0.0142999 -0.00898793)
(0.0915739 0.018502 -0.011365)
(0.0870176 0.0241299 -0.014223)
(0.0785233 0.0316801 -0.0176019)
(0.0689783 0.0411832 -0.0211514)
(0.0466938 0.0527982 -0.0244187)
(0.0205488 0.0461385 -0.019448)
(0.100478 0.00195736 -0.000407036)
(0.101066 0.00324665 -0.000924595)
(0.102123 0.00383242 -0.00132652)
(0.102529 0.00430608 -0.00173787)
(0.102827 0.00496426 -0.00227438)
(0.102697 0.00592223 -0.0029698)
(0.10229 0.0072738 -0.00385306)
(0.101522 0.00913408 -0.00495555)
(0.100316 0.0116676 -0.00631728)
(0.0986863 0.0151408 -0.00798561)
(0.0959971 0.019929 -0.0100038)
(0.0928421 0.0267829 -0.0124065)
(0.0860124 0.0367403 -0.0151734)
(0.0787597 0.0520945 -0.0181033)
(0.0572327 0.0752368 -0.0206404)
(0.0334343 0.0886823 -0.0166731)
(0.089812 0.0130567 -0.000384914)
(0.0811774 0.00661468 -0.00079566)
(0.0740532 0.00334858 -0.00109768)
(0.0706254 0.00150551 -0.00141614)
(0.0682113 0.000832213 -0.00184889)
(0.0661441 0.000583661 -0.00242518)
(0.0640191 0.000526924 -0.00317615)
(0.0615486 0.000556421 -0.0041357)
(0.0585049 0.000638549 -0.00534757)
(0.0547652 0.000751696 -0.00685268)
(0.0498271 0.000907207 -0.0087104)
(0.0440442 0.00103988 -0.0108876)
(0.0358809 0.00125687 -0.0134813)
(0.0272668 0.0012585 -0.0159789)
(0.0148569 0.00146209 -0.018359)
(0.00335438 0.000373878 -0.0145737)
(0.103582 0.0117096 -0.000578456)
(0.103532 0.00807701 -0.00116154)
(0.102055 0.00517561 -0.0015864)
(0.0998771 0.0031975 -0.0020226)
(0.0976291 0.002338 -0.00260552)
(0.0951665 0.00203517 -0.00338378)
(0.0923889 0.00206607 -0.00440191)
(0.0890418 0.00231223 -0.00570827)
(0.0848617 0.00273143 -0.00736405)
(0.0796673 0.00329979 -0.0094294)
(0.0728151 0.00402814 -0.0119847)
(0.0646303 0.00483878 -0.0150036)
(0.0531811 0.00582153 -0.0185916)
(0.0407413 0.00656682 -0.0221239)
(0.0228173 0.00732838 -0.0254124)
(0.00617123 0.00506571 -0.0201919)
(0.102797 0.00731057 -0.00058867)
(0.103792 0.00743684 -0.00118135)
(0.103854 0.00589723 -0.00160997)
(0.102523 0.00448236 -0.00204814)
(0.10087 0.00377568 -0.00263343)
(0.0987421 0.00358594 -0.00341483)
(0.0961822 0.00380385 -0.00443686)
(0.0929796 0.00435147 -0.00574802)
(0.0888947 0.00520319 -0.00740982)
(0.0837548 0.00634789 -0.0094835)
(0.0768751 0.00780595 -0.0120503)
(0.0685842 0.00949645 -0.0150883)
(0.0567709 0.0114899 -0.0187007)
(0.0437897 0.0132575 -0.0222713)
(0.0246941 0.0148173 -0.0255897)
(0.00664961 0.0111456 -0.0203046)
(0.101382 0.00537753 -0.00056492)
(0.102191 0.00655552 -0.00114106)
(0.102751 0.0058211 -0.00155708)
(0.102021 0.00498046 -0.00198158)
(0.100901 0.00458589 -0.00254787)
(0.0991798 0.00463986 -0.00330242)
(0.0969613 0.00511467 -0.00428733)
(0.0940696 0.00598745 -0.0055484)
(0.0902897 0.00727076 -0.00714393)
(0.0854667 0.0089907 -0.00913257)
(0.0788801 0.0112095 -0.0115915)
(0.0708707 0.0138857 -0.0145035)
(0.0591224 0.01714 -0.017964)
(0.0460715 0.0203458 -0.021397)
(0.0262401 0.0233955 -0.0245831)
(0.00704789 0.0183743 -0.0195067)
(0.100802 0.00409626 -0.000528633)
(0.101387 0.00566052 -0.00107861)
(0.102045 0.0055461 -0.00147654)
(0.101646 0.00521383 -0.00188145)
(0.100912 0.00516409 -0.00241994)
(0.0995716 0.0055033 -0.00313491)
(0.097736 0.00626796 -0.00406478)
(0.095246 0.00748768 -0.00525115)
(0.0919067 0.00921761 -0.00674696)
(0.0875877 0.0115284 -0.00860609)
(0.0815445 0.0145297 -0.0108978)
(0.0741468 0.0182323 -0.0136107)
(0.0628213 0.0228127 -0.0168239)
(0.0500786 0.027549 -0.0200273)
(0.0293103 0.0322554 -0.0229818)
(0.00838246 0.0256114 -0.0182406)
(0.100552 0.00329826 -0.000485745)
(0.101011 0.00488812 -0.00100415)
(0.101719 0.00512502 -0.00138067)
(0.10157 0.00515315 -0.00176231)
(0.101161 0.00540346 -0.00226746)
(0.100185 0.00601266 -0.00293481)
(0.0987527 0.00705356 -0.00379816)
(0.0967195 0.00859945 -0.00489371)
(0.0939097 0.0107564 -0.0062674)
(0.0902163 0.0136702 -0.00796675)
(0.0848682 0.0175561 -0.0100501)
(0.078255 0.022614 -0.0125132)
(0.0674931 0.0292743 -0.0154114)
(0.0552085 0.0371009 -0.0183228)
(0.0333668 0.0461901 -0.0209721)
(0.0102948 0.0396896 -0.0166678)
(0.100466 0.00263638 -0.000437298)
(0.100906 0.00413499 -0.000919978)
(0.101699 0.00460623 -0.00127239)
(0.101768 0.00490912 -0.00162768)
(0.101655 0.00541318 -0.00209489)
(0.101037 0.0062558 -0.00270776)
(0.100037 0.00752959 -0.00349453)
(0.0985396 0.00933698 -0.00448444)
(0.0964161 0.0118196 -0.00571393)
(0.0936327 0.0151793 -0.00722037)
(0.0894959 0.0196943 -0.00904439)
(0.0845507 0.02572 -0.0111822)
(0.0757671 0.0338075 -0.0136477)
(0.0660704 0.0438696 -0.0161214)
(0.0444564 0.0561702 -0.0182605)
(0.0195539 0.0489538 -0.0144825)
(0.100452 0.00201575 -0.000385716)
(0.100954 0.0033483 -0.000830285)
(0.101887 0.00396312 -0.00115703)
(0.102171 0.00446861 -0.00148425)
(0.102337 0.00517294 -0.00191094)
(0.102063 0.00619748 -0.00246563)
(0.101491 0.0076433 -0.00317054)
(0.100533 0.0096349 -0.00404754)
(0.0991043 0.0123502 -0.00512305)
(0.097218 0.016072 -0.00642391)
(0.0942458 0.0212039 -0.00797282)
(0.0908059 0.0285102 -0.00976734)
(0.083769 0.0391041 -0.0117797)
(0.0764793 0.0551785 -0.0138026)
(0.0555347 0.0793399 -0.015431)
(0.0328294 0.09244 -0.0123799)
(0.0897937 0.0130586 -0.000307406)
(0.0810923 0.00662038 -0.000620282)
(0.0738721 0.00335443 -0.000842664)
(0.0703482 0.00151228 -0.0010743)
(0.0678243 0.00084076 -0.00138868)
(0.0656331 0.000594843 -0.0018073)
(0.0633624 0.000541768 -0.0023514)
(0.06072 0.000576253 -0.00304246)
(0.0574785 0.000665083 -0.00390657)
(0.0535141 0.000787553 -0.00496303)
(0.0483598 0.00095547 -0.00623939)
(0.0423648 0.00110697 -0.00768657)
(0.0341574 0.00134765 -0.00934354)
(0.025591 0.0013905 -0.0108319)
(0.0137416 0.00162716 -0.0121134)
(0.0030433 0.000569677 -0.00940479)
(0.103557 0.0117201 -0.000455528)
(0.10342 0.00809668 -0.000898637)
(0.101815 0.00519951 -0.00121252)
(0.0995055 0.00322653 -0.00153065)
(0.0971064 0.00237489 -0.00195502)
(0.0944718 0.00208332 -0.00252135)
(0.0914917 0.00212974 -0.00326037)
(0.0879044 0.00239675 -0.00420323)
(0.0834456 0.00284341 -0.00538704)
(0.0779328 0.00344733 -0.00684209)
(0.0707645 0.00422084 -0.00860632)
(0.0622701 0.00508742 -0.0106279)
(0.0507213 0.00613753 -0.0129417)
(0.0383321 0.00695937 -0.0150812)
(0.0211651 0.00778744 -0.0168865)
(0.00563745 0.00547505 -0.0131381)
(0.102773 0.00733103 -0.000463477)
(0.10368 0.00747288 -0.000913982)
(0.103614 0.00594254 -0.00123072)
(0.102151 0.00453785 -0.00155027)
(0.100346 0.0038461 -0.00197637)
(0.0980467 0.00367768 -0.00254501)
(0.0952844 0.00392507 -0.00328695)
(0.0918419 0.00451229 -0.00423338)
(0.0874785 0.00541611 -0.00542165)
(0.0820203 0.00662751 -0.00688262)
(0.0748235 0.00816976 -0.00865467)
(0.0662222 0.00995939 -0.0106883)
(0.0543052 0.0120717 -0.0130163)
(0.0413748 0.0139525 -0.0151764)
(0.0230341 0.0156172 -0.0169928)
(0.0061201 0.0117884 -0.0131975)
(0.101358 0.00540539 -0.00044588)
(0.102082 0.00660441 -0.000884108)
(0.102519 0.00588338 -0.0011915)
(0.101661 0.00505723 -0.00150093)
(0.100395 0.0046836 -0.00191306)
(0.0985099 0.00476746 -0.00246201)
(0.0960982 0.00528368 -0.00317684)
(0.092978 0.00621235 -0.0040869)
(0.0889334 0.00756965 -0.00522739)
(0.0838082 0.0093847 -0.00662754)
(0.0769203 0.0117245 -0.00832327)
(0.0686176 0.0145428 -0.0102687)
(0.0567707 0.0179695 -0.0124921)
(0.0437722 0.0213329 -0.0145584)
(0.0246613 0.0245347 -0.0162874)
(0.00655716 0.0192717 -0.0126412)
(0.10078 0.00413126 -0.000418881)
(0.101282 0.00572163 -0.000837689)
(0.101823 0.00562426 -0.0011317)
(0.101303 0.00531047 -0.00142669)
(0.100432 0.00528737 -0.00181838)
(0.0989384 0.0056646 -0.00233834)
(0.0969231 0.0064821 -0.00301307)
(0.0942216 0.00777346 -0.00386905)
(0.0906379 0.00959874 -0.00493799)
(0.0860415 0.0120328 -0.00624626)
(0.079722 0.0151923 -0.00782518)
(0.0720585 0.0190812 -0.00963397)
(0.0606442 0.0238907 -0.0116916)
(0.0479587 0.0288353 -0.0136082)
(0.0278554 0.0337515 -0.0151929)
(0.00794173 0.0267882 -0.0117849)
(0.100531 0.00333849 -0.000387004)
(0.100912 0.00495831 -0.000782354)
(0.10151 0.00521503 -0.00106052)
(0.101248 0.00526468 -0.00133834)
(0.100713 0.00554604 -0.00170555)
(0.0995962 0.00619965 -0.00219067)
(0.0980003 0.00730255 -0.00281699)
(0.0957766 0.00893306 -0.00360734)
(0.092748 0.0112038 -0.00458888)
(0.0888084 0.0142665 -0.00578415)
(0.0832157 0.0183467 -0.00721807)
(0.076373 0.0236385 -0.00885622)
(0.0655357 0.0305951 -0.010704)
(0.0533191 0.038701 -0.0124315)
(0.0320764 0.0480939 -0.0138276)
(0.00991939 0.0412223 -0.0107267)
(0.100446 0.00268042 -0.000350993)
(0.100814 0.0042117 -0.00071981)
(0.101505 0.00470469 -0.00098014)
(0.101471 0.00503127 -0.00123858)
(0.101242 0.00556952 -0.00157795)
(0.100498 0.0064611 -0.0020233)
(0.0993546 0.00780345 -0.00259406)
(0.0976917 0.00970478 -0.00330849)
(0.0953812 0.0123143 -0.00418766)
(0.0923923 0.0158415 -0.00524828)
(0.0880554 0.0205769 -0.00650513)
(0.0829361 0.0268716 -0.00792744)
(0.074109 0.0353057 -0.00949759)
(0.0645168 0.0457047 -0.0109564)
(0.0434237 0.0583932 -0.0120555)
(0.0193037 0.0507725 -0.00932381)
(0.100434 0.00206162 -0.000312667)
(0.100869 0.00342813 -0.000653177)
(0.101708 0.00406565 -0.000894521)
(0.101899 0.00459589 -0.0011323)
(0.101962 0.0053359 -0.00144196)
(0.101579 0.00641161 -0.00184483)
(0.100884 0.00792924 -0.00235622)
(0.0997871 0.0100196 -0.00298947)
(0.0982047 0.0128692 -0.00375926)
(0.0961558 0.0167699 -0.00467614)
(0.0930304 0.0221403 -0.00574457)
(0.0894749 0.029745 -0.00693818)
(0.0824307 0.040736 -0.00821612)
(0.0752941 0.0572241 -0.00939713)
(0.0548117 0.0819361 -0.0102015)
(0.0327979 0.0947858 -0.0079697)
(0.0897815 0.0130599 -0.000197195)
(0.081035 0.00662431 -0.000393496)
(0.0737499 0.00335841 -0.000528917)
(0.0701608 0.00151693 -0.00066975)
(0.0675625 0.000846607 -0.000860238)
(0.0652879 0.00060248 -0.00111384)
(0.0629202 0.000551864 -0.00144282)
(0.0601652 0.000589653 -0.00185903)
(0.0567965 0.000682804 -0.00237649)
(0.0526905 0.000811057 -0.0030038)
(0.0474042 0.000986116 -0.00375447)
(0.0412839 0.00114768 -0.00459366)
(0.0330597 0.00139923 -0.00554195)
(0.0245408 0.00146042 -0.00637658)
(0.0130534 0.00170693 -0.00707177)
(0.00285256 0.000659106 -0.00548643)
(0.10354 0.0117273 -0.000290605)
(0.103344 0.00811024 -0.000567185)
(0.101654 0.00521593 -0.000759439)
(0.0992537 0.0032465 -0.000952865)
(0.0967522 0.0024002 -0.00121044)
(0.0940017 0.00211631 -0.00155396)
(0.0908865 0.00217326 -0.00200144)
(0.0871414 0.00245432 -0.00257018)
(0.0825028 0.0029193 -0.00328032)
(0.0767889 0.00354665 -0.00414605)
(0.0694276 0.00434923 -0.00518572)
(0.0607512 0.00525075 -0.00636062)
(0.0491587 0.00634094 -0.00768677)
(0.0368303 0.00720553 -0.00888763)
(0.0201569 0.00806657 -0.00986584)
(0.00532203 0.00571319 -0.00766079)
(0.102756 0.00734514 -0.000295232)
(0.103604 0.0074977 -0.000576712)
(0.103452 0.0059737 -0.00077104)
(0.101898 0.004576 -0.000965255)
(0.0999913 0.00389443 -0.00122394)
(0.097576 0.00374054 -0.00156887)
(0.0946787 0.00400792 -0.00201816)
(0.0910786 0.00462187 -0.00258914)
(0.0865355 0.00556063 -0.00330209)
(0.080876 0.00681639 -0.00417152)
(0.0734852 0.00841392 -0.00521611)
(0.064701 0.0102677 -0.00639832)
(0.0527374 0.0124553 -0.00773319)
(0.0398673 0.0144059 -0.00894612)
(0.0220195 0.0161322 -0.00993101)
(0.00580635 0.0121968 -0.00769893)
(0.101342 0.00542458 -0.000284641)
(0.102009 0.00663808 -0.000558372)
(0.102362 0.00592622 -0.000746942)
(0.101417 0.00511 -0.000934879)
(0.100053 0.00475066 -0.00118503)
(0.0980565 0.00485486 -0.00151793)
(0.095516 0.00539915 -0.00195075)
(0.0922457 0.0063655 -0.00249971)
(0.0880303 0.00777235 -0.0031839)
(0.0827143 0.00965063 -0.0040169)
(0.0756422 0.01207 -0.00501619)
(0.0671665 0.0149807 -0.00614641)
(0.0552753 0.0185177 -0.00742042)
(0.0423365 0.0219805 -0.00857916)
(0.0236957 0.0252751 -0.00951508)
(0.00626607 0.0198526 -0.00737273)
(0.100765 0.00415539 -0.000267937)
(0.101212 0.00576372 -0.00052975)
(0.101673 0.00567805 -0.000710168)
(0.101071 0.00537689 -0.000889284)
(0.100108 0.00537195 -0.00112699)
(0.09851 0.00577503 -0.00144225)
(0.0963748 0.0066283 -0.00185076)
(0.0935343 0.00796789 -0.00236708)
(0.0897932 0.00985697 -0.00300837)
(0.0850217 0.0123728 -0.00378667)
(0.0785334 0.0156363 -0.00471714)
(0.0707136 0.0196467 -0.00576761)
(0.0592594 0.0246037 -0.00694655)
(0.0466345 0.0296814 -0.00802039)
(0.0269655 0.0347284 -0.0088774)
(0.00768077 0.0275578 -0.00687672)
(0.100517 0.0033662 -0.00024835)
(0.100846 0.00500665 -0.000495713)
(0.101369 0.00527695 -0.000666369)
(0.10103 0.00534132 -0.000834982)
(0.10041 0.00564382 -0.00105774)
(0.0991977 0.00632758 -0.0013518)
(0.0974929 0.00747239 -0.00173096)
(0.095144 0.00915976 -0.00220767)
(0.0919746 0.0115063 -0.00279649)
(0.08788 0.0146674 -0.00350737)
(0.0821386 0.0188748 -0.00435201)