/*--------------------------------*- C++ -*----------------------------------*\
| =========                 |                                                 |
| \\      /  F ield         | OpenFOAM: The Open Source CFD Toolbox           |
|  \\    /   O peration     | Version:  v1912                                 |
|   \\  /    A nd           | Website:  www.openfoam.com                      |
|    \\/     M anipulation  |                                                 |
\*---------------------------------------------------------------------------*/
FoamFile
{
    version     2.0;
    format      ascii;
    class       volVectorField;
    location    "0.84/fluid";
    object      cellMotionU;
}
// * * * * * * * * * * * * * * * * * * * * * * * * * * * * * * * * * * * * * //

dimensions      [0 1 -1 0 0 0 0];


internalField   nonuniform List<vector> 
14592
(
(1.18849e-10 -2.83194e-10 2.16537e-10)
(3.32169e-10 -7.91711e-10 6.13084e-10)
(5.30587e-10 -1.26401e-09 1.00369e-09)
(7.22418e-10 -1.71649e-09 1.41434e-09)
(9.16318e-10 -2.1607e-09 1.86971e-09)
(1.12057e-09 -2.60104e-09 2.39248e-09)
(1.34503e-09 -3.03419e-09 3.00534e-09)
(1.60262e-09 -3.44597e-09 3.73126e-09)
(1.91207e-09 -3.80537e-09 4.59385e-09)
(2.30394e-09 -4.05408e-09 5.61816e-09)
(2.83461e-09 -4.08455e-09 6.83471e-09)
(3.62088e-09 -3.68983e-09 8.29577e-09)
(4.92615e-09 -2.43049e-09 1.0132e-08)
(7.40242e-09 7.62618e-10 1.27368e-08)
(1.25059e-08 8.48843e-09 1.713e-08)
(2.11865e-08 2.35173e-08 2.39427e-08)
(3.53284e-10 -8.40902e-10 6.43663e-10)
(9.87353e-10 -2.35119e-09 1.82238e-09)
(1.57642e-09 -3.75471e-09 2.98239e-09)
(2.14582e-09 -5.10157e-09 4.20209e-09)
(2.71916e-09 -6.42516e-09 5.5521e-09)
(3.32129e-09 -7.74131e-09 7.10032e-09)
(3.9804e-09 -9.04333e-09 8.9133e-09)
(4.73208e-09 -1.02941e-08 1.10576e-08)
(5.62616e-09 -1.14116e-08 1.36e-08)
(6.73911e-09 -1.22436e-08 1.66067e-08)
(8.20052e-09 -1.25237e-08 2.01442e-08)
(1.02429e-08 -1.17958e-08 2.42882e-08)
(1.33151e-08 -9.27609e-09 2.91658e-08)
(1.81992e-08 -3.6946e-09 3.50097e-08)
(2.58771e-08 6.50152e-09 4.20902e-08)
(3.50667e-08 1.96414e-08 4.92388e-08)
(5.7865e-10 -1.37384e-09 1.05445e-09)
(1.61673e-09 -3.84243e-09 2.98477e-09)
(2.58023e-09 -6.14024e-09 4.88352e-09)
(3.50871e-09 -8.35023e-09 6.87692e-09)
(4.44049e-09 -1.05314e-08 9.08064e-09)
(5.41435e-09 -1.27151e-08 1.16044e-08)
(6.47353e-09 -1.49e-08 1.45562e-08)
(7.67068e-09 -1.70418e-08 1.80436e-08)
(9.07472e-09 -1.90354e-08 2.21735e-08)
(1.07828e-08 -2.06859e-08 2.70475e-08)
(1.294e-08 -2.16659e-08 3.27539e-08)
(1.57761e-08 -2.14609e-08 3.93598e-08)
(1.96621e-08 -1.93313e-08 4.69092e-08)
(2.51463e-08 -1.44206e-08 5.54322e-08)
(3.27465e-08 -6.41768e-09 6.48919e-08)
(4.1129e-08 2.01491e-09 7.40488e-08)
(7.8935e-10 -1.86524e-09 1.43876e-09)
(2.2046e-09 -5.21913e-09 4.07159e-09)
(3.51563e-09 -8.34716e-09 6.65841e-09)
(4.77492e-09 -1.13669e-08 9.36983e-09)
(6.03198e-09 -1.4364e-08 1.23609e-08)
(7.33728e-09 -1.73919e-08 1.57795e-08)
(8.74538e-09 -2.04657e-08 1.97711e-08)
(1.03196e-08 -2.35533e-08 2.44807e-08)
(1.21378e-08 -2.65592e-08 3.00525e-08)
(1.4298e-08 -2.92988e-08 3.66223e-08)
(1.69249e-08 -3.1463e-08 4.43009e-08)
(2.01776e-08 -3.2582e-08 5.31475e-08)
(2.42522e-08 -3.20213e-08 6.31299e-08)
(2.93479e-08 -2.9116e-08 7.40603e-08)
(3.55166e-08 -2.37044e-08 8.54538e-08)
(4.1617e-08 -1.77352e-08 9.53988e-08)
(9.80578e-10 -2.29846e-09 1.78778e-09)
(2.7375e-09 -6.43466e-09 5.05776e-09)
(4.36095e-09 -1.03017e-08 8.26559e-09)
(5.91307e-09 -1.40505e-08 1.16196e-08)
(7.45286e-09 -1.77965e-08 1.53093e-08)
(9.03894e-09 -2.16195e-08 1.95147e-08)
(1.07336e-08 -2.55611e-08 2.44128e-08)
(1.26067e-08 -2.9619e-08 3.01814e-08)
(1.47396e-08 -3.37356e-08 3.6999e-08)
(1.72263e-08 -3.77794e-08 4.50373e-08)
(2.01695e-08 -4.15181e-08 5.44424e-08)
(2.36686e-08 -4.45817e-08 6.53003e-08)
(2.77877e-08 -4.64196e-08 7.75708e-08)
(3.24831e-08 -4.62784e-08 9.09566e-08)
(3.74995e-08 -4.33565e-08 1.04601e-07)
(4.1878e-08 -3.82054e-08 1.15767e-07)
(1.14881e-09 -2.65743e-09 2.0947e-09)
(3.205e-09 -7.44364e-09 5.92332e-09)
(5.09899e-09 -1.19301e-08 9.67139e-09)
(6.90022e-09 -1.63e-08 1.35782e-08)
(8.67331e-09 -2.06973e-08 1.78599e-08)
(1.04824e-08 -2.52311e-08 2.27215e-08)
(1.23945e-08 -2.99756e-08 2.83643e-08)
(1.44832e-08 -3.49691e-08 3.49913e-08)
(1.68324e-08 -4.02103e-08 4.28094e-08)
(1.95375e-08 -4.56501e-08 5.20256e-08)
(2.27003e-08 -5.11776e-08 6.28337e-08)
(2.64188e-08 -5.65902e-08 7.53888e-08)
(3.07648e-08 -6.15214e-08 8.97594e-08)
(3.57039e-08 -6.52448e-08 1.05768e-07)
(4.09609e-08 -6.63118e-08 1.22538e-07)
(4.54049e-08 -6.31637e-08 1.36502e-07)
(1.29133e-09 -2.92697e-09 2.35441e-09)
(3.60004e-09 -8.2035e-09 6.65422e-09)
(5.7189e-09 -1.31635e-08 1.08529e-08)
(7.72096e-09 -1.80173e-08 1.5212e-08)
(9.67424e-09 -2.29357e-08 1.99667e-08)
(1.16449e-08 -2.80555e-08 2.53382e-08)
(1.37013e-08 -3.34835e-08 3.15425e-08)
(1.59183e-08 -3.93004e-08 3.87975e-08)
(1.83812e-08 -4.55647e-08 4.7327e-08)
(2.11908e-08 -5.2317e-08 5.73625e-08)
(2.44643e-08 -5.95862e-08 6.9138e-08)
(2.8355e-08 -6.73985e-08 8.2902e-08)
(3.30567e-08 -7.57573e-08 9.88947e-08)
(3.88257e-08 -8.45282e-08 1.17294e-07)
(4.58581e-08 -9.29402e-08 1.37731e-07)
(5.28924e-08 -9.82464e-08 1.56188e-07)
(1.40696e-09 -3.09395e-09 2.56432e-09)
(3.91918e-09 -8.67723e-09 7.24302e-09)
(6.21542e-09 -1.39407e-08 1.1798e-08)
(8.36961e-09 -1.91159e-08 1.65047e-08)
(1.04493e-08 -2.43943e-08 2.16079e-08)
(1.25196e-08 -2.99352e-08 2.73359e-08)
(1.4647e-08 -3.58722e-08 3.39087e-08)
(1.6903e-08 -4.23205e-08 4.1545e-08)
(1.93701e-08 -4.93852e-08 5.04685e-08)
(2.21473e-08 -5.71736e-08 6.09097e-08)
(2.53627e-08 -6.5817e-08 7.31145e-08)
(2.91975e-08 -7.55092e-08 8.73604e-08)
(3.39476e-08 -8.65824e-08 1.04007e-07)
(4.01344e-08 -9.96144e-08 1.23559e-07)
(4.86237e-08 -1.1539e-07 1.46516e-07)
(5.88548e-08 -1.32204e-07 1.69724e-07)
(1.20554e-10 -2.89779e-10 2.05651e-10)
(3.36863e-10 -8.10218e-10 5.82057e-10)
(5.37673e-10 -1.29393e-09 9.51894e-10)
(7.31403e-10 -1.75811e-09 1.33981e-09)
(9.26029e-10 -2.21455e-09 1.76796e-09)
(1.12954e-09 -2.66867e-09 2.25719e-09)
(1.3508e-09 -3.11811e-09 2.82735e-09)
(1.60089e-09 -3.55028e-09 3.49747e-09)
(1.89531e-09 -3.93738e-09 4.2851e-09)
(2.25881e-09 -4.22818e-09 5.20499e-09)
(2.73624e-09 -4.33194e-09 6.26731e-09)
(3.41838e-09 -4.08597e-09 7.47801e-09)
(4.5085e-09 -3.17589e-09 8.84952e-09)
(6.45795e-09 -9.46301e-10 1.04215e-08)
(1.01238e-08 3.86051e-09 1.22321e-08)
(1.55357e-08 1.15887e-08 1.36144e-08)
(3.58391e-10 -8.60404e-10 6.11354e-10)
(1.00123e-09 -2.40593e-09 1.72988e-09)
(1.5977e-09 -3.84331e-09 2.82869e-09)
(2.17236e-09 -5.22423e-09 3.98017e-09)
(2.74837e-09 -6.58434e-09 5.24986e-09)
(3.3489e-09 -7.94135e-09 6.69904e-09)
(3.99928e-09 -9.29125e-09 8.38606e-09)
(4.73002e-09 -1.06012e-08 1.03662e-08)
(5.58183e-09 -1.17977e-08 1.26894e-08)
(6.6149e-09 -1.27467e-08 1.53937e-08)
(7.92768e-09 -1.3223e-08 1.84936e-08)
(9.69746e-09 -1.28654e-08 2.19623e-08)
(1.22383e-08 -1.11296e-08 2.5688e-08)
(1.60518e-08 -7.3156e-09 2.93765e-08)
(2.15155e-08 -1.09593e-09 3.22501e-08)
(2.70988e-08 5.18502e-09 3.27651e-08)
(5.87087e-10 -1.4056e-09 1.00148e-09)
(1.63977e-09 -3.93159e-09 2.83336e-09)
(2.61545e-09 -6.28429e-09 4.63172e-09)
(3.55337e-09 -8.55018e-09 6.5142e-09)
(4.49042e-09 -1.07909e-08 8.58721e-09)
(5.46317e-09 -1.30409e-08 1.09502e-08)
(6.51058e-09 -1.53027e-08 1.36981e-08)
(7.67761e-09 -1.7538e-08 1.6921e-08)
(9.01966e-09 -1.96526e-08 2.07e-08)
(1.06097e-08 -2.14749e-08 2.50956e-08)
(1.25498e-08 -2.27274e-08 3.01264e-08)
(1.49906e-08 -2.30076e-08 3.57276e-08)
(1.81491e-08 -2.18273e-08 4.16783e-08)
(2.22712e-08 -1.88625e-08 4.74591e-08)
(2.7315e-08 -1.47348e-08 5.20172e-08)
(3.17886e-08 -1.22079e-08 5.37705e-08)
(8.01037e-10 -1.90822e-09 1.36648e-09)
(2.23669e-09 -5.33977e-09 3.86533e-09)
(3.56502e-09 -8.54226e-09 6.31562e-09)
(4.83799e-09 -1.16374e-08 8.87641e-09)
(6.10401e-09 -1.47152e-08 1.16908e-08)
(7.41062e-09 -1.78325e-08 1.48928e-08)
(8.80733e-09 -2.10086e-08 1.86107e-08)
(1.03485e-08 -2.42177e-08 2.2967e-08)
(1.20957e-08 -2.73749e-08 2.80736e-08)
(1.41185e-08 -3.03171e-08 3.40165e-08)
(1.64922e-08 -3.27805e-08 4.08269e-08)
(1.92861e-08 -3.43942e-08 4.84242e-08)
(2.25311e-08 -3.4737e-08 5.65134e-08)
(2.61305e-08 -3.35861e-08 6.43992e-08)
(2.96538e-08 -3.15366e-08 7.07032e-08)
(3.19823e-08 -3.06105e-08 7.33678e-08)
(9.95517e-10 -2.3513e-09 1.69821e-09)
(2.77846e-09 -6.58296e-09 4.80197e-09)
(4.4243e-09 -1.05415e-08 7.84091e-09)
(5.99513e-09 -1.43833e-08 1.10094e-08)
(7.54849e-09 -1.82284e-08 1.44821e-08)
(9.14031e-09 -2.21607e-08 1.84226e-08)
(1.08278e-08 -2.62259e-08 2.29876e-08)
(1.26716e-08 -3.04269e-08 2.83286e-08)
(1.47367e-08 -3.47141e-08 3.45866e-08)
(1.70881e-08 -3.89713e-08 4.18778e-08)
(1.97781e-08 -4.29963e-08 5.02611e-08)
(2.28147e-08 -4.64849e-08 5.96761e-08)
(2.60947e-08 -4.90328e-08 6.98197e-08)
(2.9277e-08 -5.02113e-08 7.99019e-08)
(3.16399e-08 -4.98911e-08 8.8235e-08)
(3.22975e-08 -4.90573e-08 9.20785e-08)
(1.16676e-09 -2.71837e-09 1.98995e-09)
(3.25446e-09 -7.61474e-09 5.62448e-09)
(5.17606e-09 -1.2207e-08 9.17591e-09)
(7.00098e-09 -1.66842e-08 1.28674e-08)
(8.79309e-09 -2.1196e-08 1.68985e-08)
(1.06141e-08 -2.58554e-08 2.14558e-08)
(1.25264e-08 -3.07404e-08 2.6718e-08)
(1.45955e-08 -3.5893e-08 3.28592e-08)
(1.6891e-08 -4.13162e-08 4.00455e-08)
(1.94818e-08 -4.69676e-08 4.84229e-08)
(2.24253e-08 -5.27483e-08 5.80907e-08)
(2.57395e-08 -5.8482e-08 6.90473e-08)
(2.93349e-08 -6.38584e-08 8.10626e-08)
(3.28848e-08 -6.8307e-08 9.34115e-08)
(3.56046e-08 -7.08313e-08 1.04293e-07)
(3.63129e-08 -7.05803e-08 1.10201e-07)
(1.31216e-09 -2.99401e-09 2.23707e-09)
(3.65744e-09 -8.39177e-09 6.3195e-09)
(5.80876e-09 -1.34682e-08 1.02986e-08)
(7.83978e-09 -1.84406e-08 1.44186e-08)
(9.81784e-09 -2.34852e-08 1.88966e-08)
(1.18075e-08 -2.8743e-08 2.39341e-08)
(1.38736e-08 -3.43242e-08 2.97236e-08)
(1.60847e-08 -4.03115e-08 3.64524e-08)
(1.85147e-08 -4.67644e-08 4.43018e-08)
(2.12437e-08 -5.37225e-08 5.34388e-08)
(2.43581e-08 -6.12123e-08 6.40013e-08)
(2.79407e-08 -6.92486e-08 7.60508e-08)
(3.20633e-08 -7.78145e-08 8.94934e-08)
(3.67191e-08 -8.67293e-08 1.03811e-07)
(4.15816e-08 -9.51923e-08 1.17368e-07)
(4.51912e-08 -1.00727e-07 1.25994e-07)
(1.43027e-09 -3.16478e-09 2.43687e-09)
(3.98365e-09 -8.87617e-09 6.87986e-09)
(6.31691e-09 -1.42629e-08 1.11977e-08)
(8.5047e-09 -1.95639e-08 1.56474e-08)
(1.06147e-08 -2.49762e-08 2.04554e-08)
(1.27112e-08 -3.06634e-08 2.58298e-08)
(1.48582e-08 -3.6762e-08 3.19669e-08)
(1.71229e-08 -4.33879e-08 3.90554e-08)
(1.95799e-08 -5.06446e-08 4.72764e-08)
(2.23149e-08 -5.86336e-08 5.67991e-08)
(2.54319e-08 -6.74727e-08 6.77674e-08)
(2.9069e-08 -7.73278e-08 8.02792e-08)
(3.34255e-08 -8.84625e-08 9.43259e-08)
(3.8803e-08 -1.01285e-07 1.09611e-07)
(4.54864e-08 -1.16125e-07 1.24902e-07)
(5.23411e-08 -1.3079e-07 1.35986e-07)
(1.21711e-10 -2.95554e-10 1.87395e-10)
(3.39906e-10 -8.26464e-10 5.30087e-10)
(5.42036e-10 -1.32027e-09 8.66305e-10)
(7.36056e-10 -1.79468e-09 1.21768e-09)
(9.29456e-10 -2.26216e-09 1.60393e-09)
(1.12923e-09 -2.72882e-09 2.04279e-09)
(1.34265e-09 -3.19373e-09 2.55055e-09)
(1.57787e-09 -3.64647e-09 3.14135e-09)
(1.8453e-09 -4.06424e-09 3.82575e-09)
(2.15994e-09 -4.40592e-09 4.60704e-09)
(2.54768e-09 -4.60436e-09 5.47526e-09)
(3.05958e-09 -4.55093e-09 6.39599e-09)
(3.80023e-09 -4.06671e-09 7.28869e-09)
(4.98982e-09 -2.83305e-09 7.99099e-09)
(6.97859e-09 -3.12874e-10 8.15988e-09)
(9.53666e-09 3.54566e-09 7.20665e-09)
(3.61844e-10 -8.7749e-10 5.57028e-10)
(1.01044e-09 -2.454e-09 1.57558e-09)
(1.6108e-09 -3.92113e-09 2.57417e-09)
(2.1866e-09 -5.33228e-09 3.61749e-09)
(2.75932e-09 -6.72483e-09 4.763e-09)
(3.34949e-09 -8.11874e-09 6.06324e-09)
(3.97773e-09 -9.51327e-09 7.56596e-09)
(4.66656e-09 -1.08819e-08 9.31264e-09)
(5.44229e-09 -1.21634e-08 1.13331e-08)
(6.33932e-09 -1.32497e-08 1.36346e-08)
(7.40822e-09 -1.39709e-08 1.61804e-08)
(8.72818e-09 -1.40854e-08 1.88477e-08)
(1.04271e-08 -1.32928e-08 2.13539e-08)
(1.26407e-08 -1.13426e-08 2.31044e-08)
(1.5256e-08 -8.41128e-09 2.30285e-08)
(1.71543e-08 -5.9815e-09 2.03288e-08)
(5.92881e-10 -1.43338e-09 9.12518e-10)
(1.65527e-09 -4.00973e-09 2.58077e-09)
(2.63778e-09 -6.41076e-09 4.21524e-09)
(3.57821e-09 -8.72561e-09 5.9211e-09)
(4.51109e-09 -1.10187e-08 7.79176e-09)
(5.46885e-09 -1.33275e-08 9.91253e-09)
(6.48357e-09 -1.56591e-08 1.23614e-08)
(7.58816e-09 -1.7983e-08 1.52066e-08)
(8.81737e-09 -2.02209e-08 1.84983e-08)
(1.02075e-08 -2.22327e-08 2.22515e-08)
(1.17953e-08 -2.3807e-08 2.64121e-08)
(1.36109e-08 -2.46726e-08 3.07967e-08)
(1.56539e-08 -2.45864e-08 3.49882e-08)
(1.78084e-08 -2.35957e-08 3.81833e-08)
(1.96422e-08 -2.25445e-08 3.91371e-08)
(2.02928e-08 -2.30567e-08 3.7219e-08)
(8.09258e-10 -1.94574e-09 1.24532e-09)
(2.25875e-09 -5.44533e-09 3.52089e-09)
(3.59719e-09 -8.71288e-09 5.74834e-09)
(4.87493e-09 -1.18739e-08 8.06923e-09)
(6.13741e-09 -1.50215e-08 1.06095e-08)
(7.42736e-09 -1.82159e-08 1.34844e-08)
(8.78588e-09 -2.14812e-08 1.67997e-08)
(1.02533e-08 -2.47988e-08 2.06492e-08)
(1.18669e-08 -2.80978e-08 2.51051e-08)
(1.36552e-08 -3.12432e-08 3.01965e-08)
(1.56209e-08 -3.40278e-08 3.58683e-08)
(1.77082e-08 -3.6191e-08 4.19102e-08)
(1.9733e-08 -3.75105e-08 4.78362e-08)
(2.12694e-08 -3.80496e-08 5.27245e-08)
(2.15804e-08 -3.85487e-08 5.51745e-08)
(2.02329e-08 -4.00911e-08 5.43132e-08)
(1.00621e-09 -2.39733e-09 1.54771e-09)
(2.80729e-09 -6.71227e-09 4.37468e-09)
(4.46702e-09 -1.07504e-08 7.1376e-09)
(6.0457e-09 -1.46725e-08 1.00099e-08)
(7.59795e-09 -1.86019e-08 1.31454e-08)
(9.17451e-09 -2.26258e-08 1.66848e-08)
(1.08239e-08 -2.67937e-08 2.07582e-08)
(1.25923e-08 -3.11132e-08 2.54826e-08)
(1.452e-08 -3.55435e-08 3.0952e-08)
(1.66305e-08 -3.99848e-08 3.72157e-08)
(1.8905e-08 -4.42699e-08 4.42342e-08)
(2.12303e-08 -4.81624e-08 5.18021e-08)
(2.32979e-08 -5.13843e-08 5.94159e-08)
(2.44565e-08 -5.37101e-08 6.60845e-08)
(2.36919e-08 -5.51761e-08 7.02161e-08)
(2.07526e-08 -5.62258e-08 7.04904e-08)
(1.17992e-09 -2.7713e-09 1.81388e-09)
(3.29022e-09 -7.76347e-09 5.12478e-09)
(5.2297e-09 -1.24471e-08 8.35426e-09)
(7.0664e-09 -1.70161e-08 1.17015e-08)
(8.86131e-09 -2.16236e-08 1.53425e-08)
(1.06714e-08 -2.63855e-08 1.94379e-08)
(1.25507e-08 -3.13815e-08 2.41366e-08)
(1.45513e-08 -3.66553e-08 2.95741e-08)
(1.67197e-08 -4.22109e-08 3.58635e-08)
(1.90874e-08 -4.80087e-08 4.30754e-08)
(2.16471e-08 -5.39554e-08 5.11952e-08)
(2.43035e-08 -5.98867e-08 6.00448e-08)
(2.67786e-08 -6.55234e-08 6.91507e-08)
(2.8441e-08 -7.03575e-08 7.75054e-08)
(2.8192e-08 -7.34934e-08 8.3361e-08)
(2.54001e-08 -7.39792e-08 8.49004e-08)
(1.32773e-09 -3.05206e-09 2.03943e-09)
(3.69993e-09 -8.55483e-09 5.75904e-09)
(5.87341e-09 -1.37314e-08 9.37827e-09)
(7.92058e-09 -1.88041e-08 1.31152e-08)
(9.90649e-09 -2.39526e-08 1.71614e-08)
(1.18914e-08 -2.93202e-08 2.16908e-08)
(1.39333e-08 -3.5017e-08 2.68642e-08)
(1.60887e-08 -4.11238e-08 3.28278e-08)
(1.84125e-08 -4.76945e-08 3.97066e-08)
(2.0953e-08 -5.47576e-08 4.75863e-08)
(2.37391e-08 -6.23172e-08 5.64711e-08)
(2.67621e-08 -7.03491e-08 6.6224e-08)
(2.99173e-08 -7.87572e-08 7.64071e-08)
(3.29142e-08 -8.72248e-08 8.60376e-08)
(3.5113e-08 -9.47824e-08 9.32275e-08)
(3.5575e-08 -9.908e-08 9.56304e-08)
(1.44807e-09 -3.22592e-09 2.222e-09)
(4.03256e-09 -9.04792e-09 6.27088e-09)
(6.39204e-09 -1.45402e-08 1.01991e-08)
(8.60054e-09 -1.99467e-08 1.42364e-08)
(1.07239e-08 -2.5468e-08 1.85827e-08)
(1.28231e-08 -3.1269e-08 2.34181e-08)
(1.49563e-08 -3.74852e-08 2.89066e-08)
(1.71815e-08 -4.42277e-08 3.51961e-08)
(1.95579e-08 -5.15895e-08 4.24118e-08)
(2.21455e-08 -5.96512e-08 5.06387e-08)
(2.50051e-08 -6.8492e-08 5.98894e-08)
(2.81954e-08 -7.82033e-08 7.00365e-08)
(3.17684e-08 -8.89034e-08 8.06792e-08)
(3.57608e-08 -1.0072e-07 9.0862e-08)
(4.01255e-08 -1.13562e-07 9.859e-08)
(4.40859e-08 -1.25302e-07 1.00862e-07)
(1.22389e-10 -3.00427e-10 1.62586e-10)
(3.41626e-10 -8.40184e-10 4.5978e-10)
(5.44082e-10 -1.34249e-09 7.5069e-10)
(7.37375e-10 -1.82559e-09 1.05404e-09)
(9.28178e-10 -2.30243e-09 1.38592e-09)
(1.1224e-09 -2.7799e-09 1.76082e-09)
(1.32544e-09 -3.25821e-09 2.19119e-09)
(1.54235e-09 -3.72931e-09 2.68658e-09)
(1.77823e-09 -4.17487e-09 3.25163e-09)
(2.03879e-09 -4.56288e-09 3.88182e-09)
(2.33287e-09 -4.84461e-09 4.55638e-09)
(2.67842e-09 -4.94909e-09 5.22621e-09)
(3.1196e-09 -4.77142e-09 5.80002e-09)
(3.75053e-09 -4.13407e-09 6.12279e-09)
(4.7273e-09 -2.70091e-09 5.99341e-09)
(5.9096e-09 -2.49762e-10 5.30433e-09)
(3.63922e-10 -8.9191e-10 4.83321e-10)
(1.01566e-09 -2.49457e-09 1.3665e-09)
(1.61727e-09 -3.98685e-09 2.23098e-09)
(2.19102e-09 -5.42353e-09 3.13136e-09)
(2.75646e-09 -6.84353e-09 4.11578e-09)
(3.33083e-09 -8.26874e-09 5.22668e-09)
(3.92953e-09 -9.70163e-09 6.50067e-09)
(4.56638e-09 -1.11217e-08 7.96586e-09)
(5.25313e-09 -1.2479e-08 9.63532e-09)
(5.99927e-09 -1.36882e-08 1.14947e-08)
(6.8119e-09 -1.4623e-08 1.34798e-08)
(7.69975e-09 -1.51205e-08 1.54417e-08)
(8.66966e-09 -1.50083e-08 1.70874e-08)
(9.7101e-09 -1.41727e-08 1.7928e-08)
(1.06832e-08 -1.27054e-08 1.73343e-08)
(1.11452e-08 -1.12222e-08 1.53655e-08)
(5.96454e-10 -1.4568e-09 7.91844e-10)
(1.66438e-09 -4.07567e-09 2.23844e-09)
(2.64935e-09 -6.51735e-09 3.65345e-09)
(3.58723e-09 -8.87335e-09 5.12587e-09)
(4.5094e-09 -1.12101e-08 6.73371e-09)
(5.44349e-09 -1.3568e-08 8.54616e-09)
(6.41373e-09 -1.5958e-08 1.06232e-08)
(7.44022e-09 -1.83571e-08 1.30117e-08)
(8.5367e-09 -2.0701e-08 1.57353e-08)
(9.70487e-09 -2.28764e-08 1.87759e-08)
(1.09256e-08 -2.47212e-08 2.20411e-08)
(1.21426e-08 -2.60482e-08 2.53134e-08)
(1.32358e-08 -2.67287e-08 2.81856e-08)
(1.39859e-08 -2.68786e-08 3.00244e-08)
(1.40852e-08 -2.71023e-08 3.01628e-08)
(1.34915e-08 -2.81563e-08 2.88931e-08)
(8.14481e-10 -1.97736e-09 1.0806e-09)
(2.27224e-09 -5.53415e-09 3.05433e-09)
(3.615e-09 -8.85635e-09 4.9828e-09)
(4.89061e-09 -1.20721e-08 6.9864e-09)
(6.1409e-09 -1.52772e-08 9.17033e-09)
(7.40266e-09 -1.85345e-08 1.16281e-08)
(8.70763e-09 -2.18718e-08 1.44416e-08)
(1.0081e-08 -2.52768e-08 1.76761e-08)
(1.1536e-08 -2.86899e-08 2.13686e-08)
(1.30627e-08 -3.19979e-08 2.5505e-08)
(1.46053e-08 -3.50329e-08 2.99823e-08)
(1.60238e-08 -3.75978e-08 3.45512e-08)
(1.70336e-08 -3.955e-08 3.87507e-08)
(1.71589e-08 -4.09809e-08 4.18882e-08)
(1.58779e-08 -4.24138e-08 4.32605e-08)
(1.35839e-08 -4.43051e-08 4.30206e-08)
(1.01324e-09 -2.43597e-09 1.34328e-09)
(2.82572e-09 -6.82084e-09 3.79542e-09)
(4.49217e-09 -1.09254e-08 6.18794e-09)
(6.07041e-09 -1.49136e-08 8.66812e-09)
(7.61105e-09 -1.89113e-08 1.13646e-08)
(9.15863e-09 -2.30079e-08 1.43918e-08)
(1.07518e-08 -2.72549e-08 1.78508e-08)
(1.24209e-08 -3.16629e-08 2.18239e-08)
(1.4182e-08 -3.61961e-08 2.63626e-08)
(1.60207e-08 -4.07646e-08 3.14627e-08)
(1.78628e-08 -4.52185e-08 3.70244e-08)
(1.95196e-08 -4.93498e-08 4.27911e-08)
(2.06007e-08 -5.29131e-08 4.82808e-08)
(2.0435e-08 -5.56813e-08 5.27597e-08)
(1.82501e-08 -5.75535e-08 5.54398e-08)
(1.45705e-08 -5.86268e-08 5.62098e-08)
(1.1889e-09 -2.81564e-09 1.5745e-09)
(3.31396e-09 -7.88791e-09 4.4469e-09)
(5.26325e-09 -1.26474e-08 7.24401e-09)
(7.10221e-09 -1.72913e-08 1.0135e-08)
(8.88811e-09 -2.19749e-08 1.32673e-08)
(1.06718e-08 -2.68154e-08 1.67718e-08)
(1.24978e-08 -3.18926e-08 2.07644e-08)
(1.44034e-08 -3.72482e-08 2.53414e-08)
(1.64124e-08 -4.28835e-08 3.05667e-08)
(1.85217e-08 -4.87528e-08 3.64473e-08)
(2.06741e-08 -5.47533e-08 4.28922e-08)
(2.27105e-08 -6.0705e-08 4.9651e-08)
(2.42788e-08 -6.6295e-08 5.62246e-08)
(2.47378e-08 -7.09585e-08 6.18344e-08)
(2.32182e-08 -7.3711e-08 6.5572e-08)
(1.98074e-08 -7.35974e-08 6.70971e-08)
(1.33867e-09 -3.10052e-09 1.77064e-09)
(3.72926e-09 -8.69081e-09 4.99815e-09)
(5.91594e-09 -1.395e-08 8.13353e-09)
(7.96899e-09 -1.91037e-08 1.13621e-08)
(9.94999e-09 -2.43336e-08 1.48443e-08)
(1.19138e-08 -2.97829e-08 1.87224e-08)
(1.39098e-08 -3.55596e-08 2.31218e-08)
(1.59815e-08 -4.17385e-08 2.81466e-08)
(1.81638e-08 -4.83623e-08 3.38683e-08)
(2.04749e-08 -5.54392e-08 4.03004e-08)
(2.29039e-08 -6.29394e-08 4.73619e-08)
(2.53799e-08 -7.07756e-08 5.47944e-08)
(2.77374e-08 -7.87503e-08 6.20882e-08)
(2.96656e-08 -8.63947e-08 6.83718e-08)
(3.07183e-08 -9.26024e-08 7.25201e-08)
(3.06175e-08 -9.53263e-08 7.39792e-08)
(1.46097e-09 -3.27681e-09 1.92944e-09)
(4.06738e-09 -9.19073e-09 5.44339e-09)
(6.44372e-09 -1.47696e-08 8.84729e-09)
(8.66215e-09 -2.02607e-08 1.23364e-08)
(1.07857e-08 -2.58661e-08 1.60788e-08)
(1.28706e-08 -3.17499e-08 2.02217e-08)
(1.4968e-08 -3.80434e-08 2.48934e-08)
(1.71249e-08 -4.48489e-08 3.01993e-08)
(1.93839e-08 -5.22423e-08 3.62101e-08)
(2.1781e-08 -6.02747e-08 4.29392e-08)
(2.43416e-08 -6.89742e-08 5.02999e-08)
(2.70752e-08 -7.83451e-08 5.80356e-08)
(2.99722e-08 -8.83601e-08 6.56064e-08)
(3.30307e-08 -9.89333e-08 7.20443e-08)
(3.63051e-08 -1.09756e-07 7.58986e-08)
(3.95742e-08 -1.19136e-07 7.61423e-08)
(1.2271e-10 -3.04339e-10 1.32259e-10)
(3.42295e-10 -8.51179e-10 3.73814e-10)
(5.44493e-10 -1.36027e-09 6.10104e-10)
(7.36419e-10 -1.85038e-09 8.55579e-10)
(9.24004e-10 -2.33468e-09 1.12323e-09)
(1.11211e-09 -2.82079e-09 1.42389e-09)
(1.30434e-09 -3.30965e-09 1.76643e-09)
(1.50323e-09 -3.79527e-09 2.15684e-09)
(1.70954e-09 -4.26202e-09 2.5959e-09)
(1.92264e-09 -4.68424e-09 3.07609e-09)
(2.14114e-09 -5.02276e-09 3.57574e-09)
(2.36841e-09 -5.22367e-09 4.05322e-09)
(2.62387e-09 -5.20724e-09 4.44009e-09)
(2.97336e-09 -4.82756e-09 4.65894e-09)
(3.55012e-09 -3.76789e-09 4.67351e-09)
(4.32528e-09 -1.70791e-09 4.55351e-09)
(3.64918e-10 -9.03478e-10 3.93137e-10)
(1.01788e-09 -2.52712e-09 1.11131e-09)
(1.61886e-09 -4.03956e-09 1.81298e-09)
(2.18876e-09 -5.49663e-09 2.54205e-09)
(2.74514e-09 -6.93863e-09 3.33597e-09)
(3.30196e-09 -8.38857e-09 4.22696e-09)
(3.86996e-09 -9.85168e-09 5.24131e-09)
(4.45536e-09 -1.13114e-08 6.39629e-09)
(5.05881e-09 -1.27263e-08 7.69445e-09)
(5.67238e-09 -1.40243e-08 9.11271e-09)
(6.27956e-09 -1.51029e-08 1.0587e-08)
(6.85564e-09 -1.58317e-08 1.19881e-08)
(7.38014e-09 -1.60691e-08 1.31074e-08)
(7.85115e-09 -1.56826e-08 1.36561e-08)
(8.28387e-09 -1.45884e-08 1.33874e-08)
(8.60678e-09 -1.30571e-08 1.2518e-08)
(5.98285e-10 -1.47561e-09 6.44149e-10)
(1.66863e-09 -4.12856e-09 1.82053e-09)
(2.65306e-09 -6.60278e-09 2.96933e-09)
(3.58539e-09 -8.99157e-09 4.16164e-09)
(4.49377e-09 -1.13628e-08 5.4585e-09)
(5.40125e-09 -1.37588e-08 6.91254e-09)
(6.32474e-09 -1.61936e-08 8.56685e-09)
(7.27373e-09 -1.86494e-08 1.04508e-08)
(8.24544e-09 -2.10705e-08 1.25708e-08)
(9.21906e-09 -2.33598e-08 1.48947e-08)
(1.0145e-08 -2.53788e-08 1.73282e-08)
(1.09358e-08 -2.69699e-08 1.96867e-08)
(1.14612e-08 -2.80167e-08 2.16769e-08)
(1.15775e-08 -2.85646e-08 2.29351e-08)
(1.1247e-08 -2.89679e-08 2.32357e-08)
(1.08121e-08 -2.96987e-08 2.29616e-08)
(8.17364e-10 -2.0027e-09 8.79262e-10)
(2.27916e-09 -5.60537e-09 2.48425e-09)
(3.62214e-09 -8.97112e-09 4.05025e-09)
(4.89147e-09 -1.22301e-08 5.67295e-09)
(6.12532e-09 -1.54799e-08 7.43486e-09)
(7.35463e-09 -1.87851e-08 9.40723e-09)
(8.60273e-09 -2.21758e-08 1.16492e-08)
(9.88184e-09 -2.56432e-08 1.42022e-08)
(1.11873e-08 -2.91342e-08 1.70795e-08)
(1.24841e-08 -3.25456e-08 2.02468e-08)
(1.36885e-08 -3.57247e-08 2.35951e-08)
(1.46377e-08 -3.84884e-08 2.69111e-08)
(1.50642e-08 -4.06854e-08 2.98643e-08)
(1.46206e-08 -4.23248e-08 3.20667e-08)
(1.3115e-08 -4.37234e-08 3.3298e-08)
(1.12664e-08 -4.52046e-08 3.3822e-08)
(1.01738e-09 -2.46693e-09 1.09305e-09)
(2.83597e-09 -6.90767e-09 3.08752e-09)
(4.50407e-09 -1.10649e-08 5.03062e-09)
(6.07668e-09 -1.51048e-08 7.03969e-09)
(7.60019e-09 -1.91547e-08 9.21562e-09)
(9.11324e-09 -2.3305e-08 1.16459e-08)
(1.06452e-08 -2.76078e-08 1.44036e-08)
(1.22137e-08 -3.20741e-08 1.7542e-08)
(1.3816e-08 -3.66682e-08 2.10819e-08)
(1.54152e-08 -4.13005e-08 2.49923e-08)
(1.69126e-08 -4.58201e-08 2.91594e-08)
(1.8108e-08 -5.00107e-08 3.33566e-08)
(1.86474e-08 -5.35977e-08 3.72311e-08)
(1.80175e-08 -5.62798e-08 4.03737e-08)
(1.57929e-08 -5.78362e-08 4.25304e-08)
(1.27602e-08 -5.83878e-08 4.37963e-08)
(1.19447e-09 -2.85107e-09 1.28144e-09)
(3.32816e-09 -7.9872e-09 3.61808e-09)
(5.28126e-09 -1.28066e-08 5.8902e-09)
(7.11628e-09 -1.75084e-08 8.2326e-09)
(8.88665e-09 -2.22493e-08 1.0761e-08)
(1.0637e-08 -2.71462e-08 1.35757e-08)
(1.24035e-08 -3.22771e-08 1.67608e-08)
(1.42105e-08 -3.76801e-08 2.03788e-08)
(1.60654e-08 -4.33489e-08 2.44576e-08)
(1.79446e-08 -4.92259e-08 2.897e-08)
(1.97723e-08 -5.51882e-08 3.38014e-08)
(2.13825e-08 -6.10199e-08 3.87087e-08)
(2.24711e-08 -6.63555e-08 4.33162e-08)
(2.25575e-08 -7.05595e-08 4.71594e-08)
(2.11094e-08 -7.26204e-08 4.99155e-08)
(1.84378e-08 -7.18126e-08 5.16025e-08)
(1.34578e-09 -3.13916e-09 1.44124e-09)
(3.7478e-09 -8.79897e-09 4.0673e-09)
(5.94093e-09 -1.4123e-08 6.61471e-09)
(7.9929e-09 -1.93389e-08 9.23126e-09)
(9.96142e-09 -2.46289e-08 1.20433e-08)
(1.18961e-08 -3.01349e-08 1.51597e-08)
(1.38382e-08 -3.59609e-08 1.86717e-08)
(1.58203e-08 -4.21738e-08 2.26471e-08)
(1.78624e-08 -4.8802e-08 2.71177e-08)
(1.99665e-08 -5.58306e-08 3.20579e-08)
(2.21035e-08 -6.31901e-08 3.73441e-08)
(2.42042e-08 -7.07359e-08 4.2724e-08)
(2.61418e-08 -7.81866e-08 4.77637e-08)
(2.77517e-08 -8.49914e-08 5.18938e-08)
(2.88875e-08 -9.00745e-08 5.46263e-08)
(2.94708e-08 -9.183e-08 5.59928e-08)
(1.46967e-09 -3.31728e-09 1.5708e-09)
(4.09045e-09 -9.304e-09 4.43039e-09)
(6.47627e-09 -1.49506e-08 7.19652e-09)
(8.69695e-09 -2.05061e-08 1.00252e-08)
(1.08124e-08 -2.61727e-08 1.30487e-08)
(1.2874e-08 -3.21123e-08 1.638e-08)
(1.49263e-08 -3.84505e-08 2.01128e-08)
(1.70066e-08 -4.52785e-08 2.43154e-08)
(1.91455e-08 -5.26534e-08 2.90185e-08)
(2.13645e-08 -6.05953e-08 3.41921e-08)
(2.3676e-08 -6.90835e-08 3.9709e-08)
(2.60861e-08 -7.80492e-08 4.52921e-08)
(2.86157e-08 -8.73686e-08 5.04606e-08)
(3.13726e-08 -9.68638e-08 5.45075e-08)
(3.46572e-08 -1.06277e-07 5.66622e-08)
(3.84435e-08 -1.14449e-07 5.6762e-08)
(1.22783e-10 -3.0724e-10 9.75585e-11)
(3.42351e-10 -8.59354e-10 2.75779e-10)
(5.43979e-10 -1.37355e-09 4.49638e-10)
(7.34307e-10 -1.86862e-09 6.30146e-10)
(9.1899e-10 -2.35878e-09 8.26223e-10)
(1.10157e-09 -2.8512e-09 1.04545e-09)
(1.28451e-09 -3.34776e-09 1.29369e-09)
(1.46838e-09 -3.84328e-09 1.57428e-09)
(1.65143e-09 -4.32419e-09 1.88646e-09)
(1.82952e-09 -4.76716e-09 2.22308e-09)
(1.99751e-09 -5.13708e-09 2.56735e-09)
(2.15502e-09 -5.38382e-09 2.8902e-09)
(2.32224e-09 -5.42975e-09 3.15551e-09)
(2.56993e-09 -5.12253e-09 3.33287e-09)
(3.04853e-09 -4.1317e-09 3.45135e-09)
(3.76193e-09 -2.11429e-09 3.57207e-09)
(3.65234e-10 -9.12113e-10 2.90093e-10)
(1.01824e-09 -2.55143e-09 8.19632e-10)
(1.61763e-09 -4.07869e-09 1.33653e-09)
(2.18354e-09 -5.55148e-09 1.87239e-09)
(2.73099e-09 -7.00936e-09 2.45399e-09)
(3.27194e-09 -8.47735e-09 3.10375e-09)
(3.81318e-09 -9.96171e-09 3.83891e-09)
(4.35585e-09 -1.14487e-08 4.66924e-09)
(4.89334e-09 -1.29007e-08 5.59251e-09)
(5.40926e-09 -1.42522e-08 6.58724e-09)
(5.87817e-09 -1.54075e-08 7.60301e-09)
(6.27355e-09 -1.62415e-08 8.55364e-09)
(6.58953e-09 -1.66004e-08 9.3112e-09)
(6.8808e-09 -1.63003e-08 9.73429e-09)
(7.27908e-09 -1.51466e-08 9.73141e-09)
(7.78873e-09 -1.33593e-08 9.40757e-09)
(5.98991e-10 -1.48967e-09 4.75319e-10)
(1.66979e-09 -4.16806e-09 1.34283e-09)
(2.65235e-09 -6.66678e-09 2.18916e-09)
(3.5781e-09 -9.07946e-09 3.06555e-09)
(4.47328e-09 -1.14762e-08 4.01577e-09)
(5.35642e-09 -1.38996e-08 5.07628e-09)
(6.23922e-09 -1.63655e-08 6.27561e-09)
(7.12337e-09 -1.88589e-08 7.63055e-09)
(7.99642e-09 -2.13283e-08 9.13923e-09)
(8.8262e-09 -2.36819e-08 1.07705e-08)
(9.55536e-09 -2.57869e-08 1.24507e-08)
(1.01016e-08 -2.74834e-08 1.40528e-08)
(1.03753e-08 -2.86243e-08 1.53993e-08)
(1.03409e-08 -2.91709e-08 1.63089e-08)
(1.01369e-08 -2.9336e-08 1.67141e-08)
(1.01257e-08 -2.96053e-08 1.68081e-08)
(8.18685e-10 -2.02169e-09 6.48738e-10)
(2.28181e-09 -5.65864e-09 1.83272e-09)
(3.62279e-09 -9.05665e-09 2.98638e-09)
(4.88487e-09 -1.23478e-08 4.17937e-09)
(6.10213e-09 -1.56296e-08 5.47046e-09)
(7.3015e-09 -1.89684e-08 6.90938e-09)
(8.49947e-09 -2.2395e-08 8.53526e-09)
(9.69957e-09 -2.59017e-08 1.03723e-08)
(1.0886e-08 -2.94369e-08 1.24212e-08)
(1.20132e-08 -3.28987e-08 1.46464e-08)
(1.29929e-08 -3.61326e-08 1.6961e-08)
(1.36792e-08 -3.89427e-08 1.92163e-08)
(1.38699e-08 -4.11389e-08 2.12107e-08)
(1.33625e-08 -4.26429e-08 2.27526e-08)
(1.21668e-08 -4.36631e-08 2.3779e-08)
(1.09446e-08 -4.46147e-08 2.43867e-08)
(1.01949e-09 -2.49005e-09 8.06671e-10)
(2.84077e-09 -6.97257e-09 2.27802e-09)
(4.50781e-09 -1.1169e-08 3.70979e-09)
(6.07261e-09 -1.52463e-08 5.18698e-09)
(7.5788e-09 -1.93336e-08 6.78182e-09)
(9.05939e-09 -2.35206e-08 8.55529e-09)
(1.05371e-08 -2.78592e-08 1.0556e-08)
(1.20203e-08 -3.23586e-08 1.28152e-08)
(1.34959e-08 -3.69799e-08 1.53375e-08)
(1.49178e-08 -4.16278e-08 1.80861e-08)
(1.61878e-08 -4.61393e-08 2.09674e-08)
(1.71321e-08 -5.02755e-08 2.38178e-08)
(1.74772e-08 -5.37183e-08 2.64186e-08)
(1.68755e-08 -5.61022e-08 2.85644e-08)
(1.5107e-08 -5.71592e-08 3.01748e-08)
(1.28417e-08 -5.71672e-08 3.12408e-08)
(1.19763e-09 -2.87755e-09 9.45799e-10)
(3.33566e-09 -8.06123e-09 2.66987e-09)
(5.28893e-09 -1.29247e-08 4.34431e-09)
(7.1177e-09 -1.76687e-08 6.06695e-09)
(8.87111e-09 -2.24496e-08 7.92057e-09)
(1.05895e-08 -2.73838e-08 9.97528e-09)
(1.23021e-08 -3.25467e-08 1.22871e-08)
(1.40248e-08 -3.79713e-08 1.4893e-08)
(1.57554e-08 -4.36429e-08 1.78006e-08)
(1.74635e-08 -4.94891e-08 2.09731e-08)
(1.90766e-08 -5.53642e-08 2.43092e-08)
(2.04609e-08 -6.10196e-08 2.76304e-08)
(2.13968e-08 -6.60452e-08 3.06876e-08)
(2.15711e-08 -6.97697e-08 3.32358e-08)
(2.06502e-08 -7.12138e-08 3.51585e-08)
(1.88033e-08 -6.98927e-08 3.64361e-08)
(1.35004e-09 -3.16794e-09 1.06396e-09)
(3.75851e-09 -8.87943e-09 3.00179e-09)
(5.95393e-09 -1.42512e-08 4.87942e-09)
(8.00115e-09 -1.95116e-08 6.80407e-09)
(9.95531e-09 -2.48431e-08 8.86628e-09)
(1.18609e-08 -3.03854e-08 1.11423e-08)
(1.37533e-08 -3.62381e-08 1.36929e-08)
(1.56574e-08 -4.24599e-08 1.65581e-08)
(1.75851e-08 -4.90653e-08 1.9747e-08)
(1.95326e-08 -5.60174e-08 2.32195e-08)
(2.14775e-08 -6.32154e-08 2.68684e-08)
(2.33778e-08 -7.04699e-08 3.04886e-08)
(2.51892e-08 -7.74549e-08 3.37854e-08)
(2.68985e-08 -8.36044e-08 3.6426e-08)
(2.85384e-08 -8.79412e-08 3.81984e-08)
(2.98872e-08 -8.919e-08 3.91771e-08)
(1.47518e-09 -3.3474e-09 1.15973e-09)