/*--------------------------------*- C++ -*----------------------------------*\
| =========                 |                                                 |
| \\      /  F ield         | OpenFOAM: The Open Source CFD Toolbox           |
|  \\    /   O peration     | Version:  v1912                                 |
|   \\  /    A nd           | Website:  www.openfoam.com                      |
|    \\/     M anipulation  |                                                 |
\*---------------------------------------------------------------------------*/
FoamFile
{
    version     2.0;
    format      ascii;
    class       surfaceScalarField;
    location    "0.84/fluid";
    object      phi;
}
// * * * * * * * * * * * * * * * * * * * * * * * * * * * * * * * * * * * * * //

dimensions      [0 3 -1 0 0 0 0];
oriented        oriented;


internalField   nonuniform List<scalar> 
41600
(
5.00682e-05
1.2626e-05
3.35459e-07
-5.29606e-07
3.98409e-05
1.05802e-05
5.8565e-07
-9.38563e-07
3.21801e-05
8.04681e-06
5.07486e-07
-8.93586e-07
2.73631e-05
5.15909e-06
1.62467e-07
-5.04483e-07
2.44539e-05
3.16597e-06
-4.05256e-07
1.4841e-07
2.27265e-05
1.89036e-06
-1.13502e-06
9.7214e-07
2.16188e-05
1.18144e-06
-2.01708e-06
1.94333e-06
2.07857e-05
8.20428e-07
-3.07441e-06
3.08703e-06
2.0023e-05
6.59227e-07
-4.36751e-06
4.47106e-06
1.92052e-05
5.8433e-07
-5.97966e-06
6.21311e-06
1.82551e-05
5.25411e-07
-8.05955e-06
8.4842e-06
1.70521e-05
3.78091e-07
-1.07238e-05
1.15487e-05
1.54326e-05
1.23345e-07
-1.43413e-05
1.58374e-05
1.28794e-05
-5.82904e-07
-1.8522e-05
2.16581e-05
8.16076e-06
-1.14214e-06
-2.32833e-05
2.91441e-05
-3.55954e-06
-1.87418e-05
3.0462e-05
6.47805e-05
1.06201e-05
4.72674e-07
-7.47268e-07
6.34428e-05
1.24571e-05
8.78421e-07
-1.4176e-06
6.08631e-05
1.12784e-05
8.51923e-07
-1.50376e-06
5.80486e-05
8.61667e-06
3.92447e-07
-1.03546e-06
5.55794e-05
6.18017e-06
-4.8963e-07
-5.54022e-08
5.35625e-05
4.30929e-06
-1.72765e-06
1.32562e-06
5.18757e-05
3.1149e-06
-3.29396e-06
3.04733e-06
5.03248e-05
2.46034e-06
-5.21163e-06
5.12259e-06
4.87197e-05
2.18902e-06
-7.57008e-06
7.64538e-06
4.68672e-05
2.14729e-06
-1.05139e-05
1.08034e-05
4.45791e-05
2.21775e-06
-1.42863e-05
1.48821e-05
4.15077e-05
2.25641e-06
-1.91271e-05
2.03201e-05
3.72066e-05
2.20177e-06
-2.55349e-05
2.77576e-05
3.03824e-05
1.59678e-06
-3.29455e-05
3.759e-05
1.97354e-05
7.12454e-07
-4.0291e-05
4.90835e-05
-2.46592e-06
-3.14945e-05
5.01363e-05
6.63715e-05
7.04529e-06
5.24181e-07
-8.2093e-07
6.87882e-05
1.06398e-05
9.92747e-07
-1.59214e-06
6.98589e-05
1.09505e-05
1.00018e-06
-1.74299e-06
6.97913e-05
9.43742e-06
5.3633e-07
-1.28939e-06
6.90808e-05
7.55183e-06
-3.9631e-07
-2.64871e-07
6.80161e-05
5.88512e-06
-1.74102e-06
1.2299e-06
6.67353e-05
4.73462e-06
-3.47341e-06
3.13447e-06
6.52431e-05
4.11183e-06
-5.61884e-06
5.45957e-06
6.34613e-05
3.94083e-06
-8.27085e-06
8.30085e-06
6.12291e-05
4.10771e-06
-1.15899e-05
1.18617e-05
5.83189e-05
4.51272e-06
-1.58395e-05
1.64547e-05
5.42785e-05
5.02253e-06
-2.13093e-05
2.25835e-05
4.84938e-05
5.56201e-06
-2.85276e-05
3.09521e-05
3.93163e-05
5.62081e-06
-3.70032e-05
4.21567e-05
2.51632e-05
4.92311e-06
-4.53977e-05
5.53401e-05
8.93538e-07
-3.59297e-05
5.77334e-05
6.53063e-05
4.5387e-06
5.47902e-07
-8.47634e-07
6.84737e-05
8.08803e-06
1.05121e-06
-1.66686e-06
7.09979e-05
9.195e-06
1.08158e-06
-1.85036e-06
7.24793e-05
8.74015e-06
6.31341e-07
-1.41547e-06
7.30573e-05
7.66806e-06
-2.91092e-07
-4.03103e-07
7.29253e-05
6.56092e-06
-1.62902e-06
1.08523e-06
7.22559e-05
5.77335e-06
-3.35962e-06
2.99027e-06
7.11293e-05
5.42435e-06
-5.51029e-06
5.3244e-06
6.95337e-05
5.52809e-06
-8.17425e-06
8.18258e-06
6.73427e-05
6.04282e-06
-1.15165e-05
1.17723e-05
6.43216e-05
6.92479e-06
-1.5801e-05
1.641e-05
5.99664e-05
8.09007e-06
-2.13445e-05
2.26322e-05
5.35582e-05
9.48518e-06
-2.86815e-05
3.11665e-05
4.32766e-05
1.0551e-05
-3.74227e-05
4.27741e-05
2.73112e-05
1.04573e-05
-4.62117e-05
5.6643e-05
5.09278e-06
-3.70255e-05
6.01374e-05
6.43671e-05
2.96852e-06
5.67811e-07
-8.64777e-07
6.72084e-05
5.86246e-06
1.10075e-06
-1.7164e-06
6.99688e-05
7.20496e-06
1.15683e-06
-1.92726e-06
7.20673e-05
7.42709e-06
7.30035e-07
-1.51547e-06
7.33705e-05
7.05965e-06
-1.63202e-07
-5.31523e-07
7.39192e-05
6.557e-06
-1.46064e-06
9.15893e-07
7.38225e-05
6.24213e-06
-3.13578e-06
2.76364e-06
7.31561e-05
6.28216e-06
-5.21353e-06
5.0221e-06
7.19287e-05
6.7561e-06
-7.78157e-06
7.78094e-06
7.00337e-05
7.69575e-06
-1.10026e-05
1.12447e-05
6.72411e-05
9.12774e-06
-1.51294e-05
1.57191e-05
6.30126e-05
1.10565e-05
-2.04953e-05
2.17574e-05
5.65374e-05
1.35017e-05
-2.76194e-05
3.00781e-05
4.57948e-05
1.59359e-05
-3.62497e-05
4.16075e-05
2.86355e-05
1.70925e-05
-4.50463e-05
5.55703e-05
1.02295e-05
-3.6492e-05
5.99908e-05
6.38172e-05
1.94481e-06
5.87889e-07
-8.81327e-07
6.62169e-05
4.07403e-06
1.15131e-06
-1.76265e-06
6.88516e-05
5.33575e-06
1.23929e-06
-2.00476e-06
7.1151e-05
5.90698e-06
8.45729e-07
-1.62505e-06
7.28447e-05
6.05372e-06
-6.33437e-09
-6.81418e-07
7.38596e-05
6.08078e-06
-1.24769e-06
7.09029e-07
7.42312e-05
6.23956e-06
-2.8451e-06
2.47601e-06
7.40054e-05
6.70121e-06
-4.8174e-06
4.62424e-06
7.31887e-05
7.58168e-06
-7.24253e-06
7.23365e-06
7.16816e-05
8.97874e-06
-1.02763e-05
1.05003e-05
6.92576e-05
1.09935e-05
-1.41523e-05
1.47106e-05
6.53476e-05
1.37577e-05
-1.92158e-05
2.04245e-05
5.9062e-05
1.74107e-05
-2.5952e-05
2.83286e-05
4.81506e-05
2.16007e-05
-3.42828e-05
3.95294e-05
3.00606e-05
2.47998e-05
-4.28823e-05
5.3265e-05
1.68357e-05
-3.52843e-05
5.87387e-05
6.35612e-05
1.17444e-06
6.11324e-07
-9.02122e-07
6.56753e-05
2.5673e-06
1.20891e-06
-1.81628e-06
6.81756e-05
3.59608e-06
1.33553e-06
-2.09621e-06
7.05504e-05
4.3061e-06
9.84768e-07
-1.75865e-06
7.24806e-05
4.80574e-06
1.84891e-07
-8.67123e-07
7.38338e-05
5.26243e-06
-9.87197e-07
4.52323e-07
7.46001e-05
5.84246e-06
-2.48867e-06
2.11945e-06
7.48086e-05
6.69281e-06
-4.32727e-06
4.12722e-06
7.44762e-05
7.94073e-06
-6.56366e-06
6.53699e-06
7.35344e-05
9.73403e-06
-9.33476e-06
9.52128e-06
7.18052e-05
1.22368e-05
-1.28346e-05
1.33205e-05
6.87552e-05
1.57425e-05
-1.73907e-05
1.8456e-05
6.35031e-05
2.05608e-05
-2.33926e-05
2.54945e-05
5.34001e-05
2.69881e-05
-3.09436e-05
3.56592e-05
3.5109e-05
3.37306e-05
-3.8622e-05
4.79823e-05
2.99195e-05
-3.23693e-05
5.43944e-05
6.34687e-05
6.37699e-07
-9.27302e-07
4.95379e-07
6.54715e-05
1.27277e-06
-1.87829e-06
1.17e-06
6.79347e-05
1.44249e-06
-2.20108e-06
1.89142e-06
7.03853e-05
1.14081e-06
-1.91261e-06
2.62733e-06
7.24924e-05
4.00168e-07
-1.08095e-06
3.37945e-06
7.41014e-05
-6.95447e-07
1.59805e-07
4.1891e-06
7.51846e-05
-2.09267e-06
1.71896e-06
5.13289e-06
7.57691e-05
-3.78639e-06
3.5753e-06
6.31941e-06
7.58866e-05
-5.81776e-06
5.76924e-06
7.8718e-06
7.55e-05
-8.30107e-06
8.44541e-06
9.97624e-06
7.44813e-05
-1.13875e-05
1.17958e-05
1.28473e-05
7.23498e-05
-1.53791e-05
1.62919e-05
1.69612e-05
6.83061e-05
-2.05652e-05
2.23823e-05
2.27874e-05
5.94546e-05
-2.72536e-05
3.1418e-05
3.16752e-05
4.21898e-05
-3.40233e-05
4.23568e-05
4.26619e-05
-3.00205e-05
5.08415e-05
5.12882e-05
5.00029e-05
1.26321e-05
2.00511e-07
3.96514e-05
1.05986e-05
3.38541e-07
3.18534e-05
8.0687e-06
2.36758e-07
2.69086e-05
5.17838e-06
-7.11449e-08
2.3881e-05
3.1842e-06
-5.61822e-07
2.20314e-05
1.91099e-06
-1.19645e-06
2.07792e-05
1.20959e-06
-1.97443e-06
1.97606e-05
8.59761e-07
-2.91557e-06
1.87507e-05
7.1344e-07
-4.07109e-06
1.76077e-05
6.56895e-07
-5.49348e-06
1.6224e-05
6.24598e-07
-7.3005e-06
1.44863e-05
5.15326e-07
-9.50148e-06
1.21764e-05
3.23747e-07
-1.2355e-05
9.06783e-06
-2.84366e-07
-1.51291e-05
4.22598e-06
-8.45778e-07
-1.75956e-05
-2.73001e-06
-1.17858e-05
6.46886e-05
1.06344e-05
2.81682e-07
6.3171e-05
1.24927e-05
5.01964e-07
6.03661e-05
1.13281e-05
3.97357e-07
5.73115e-05
8.67122e-06
-4.57753e-08
5.45984e-05
6.23916e-06
-8.31508e-07
5.23251e-05
4.37812e-06
-1.9215e-06
5.03447e-05
3.20379e-06
-3.30773e-06
4.84299e-05
2.57957e-06
-5.0167e-06
4.63506e-05
2.34972e-06
-7.12696e-06
4.38739e-05
2.35924e-06
-9.73954e-06
4.07578e-05
2.49635e-06
-1.3042e-05
3.66495e-05
2.61123e-06
-1.71147e-05
3.10583e-05
2.65066e-06
-2.22706e-05
2.31632e-05
2.12416e-06
-2.74589e-05
1.21284e-05
1.17437e-06
-3.12764e-05
-1.92356e-06
-2.01726e-05
6.62788e-05
7.06328e-06
3.16538e-07
6.85072e-05
1.06845e-05
5.72576e-07
6.93361e-05
1.10195e-05
4.79974e-07
6.9001e-05
9.52334e-06
1.93255e-08
6.80096e-05
7.65415e-06
-8.19953e-07
6.66446e-05
6.01069e-06
-2.00861e-06
6.50209e-05
4.89744e-06
-3.54333e-06
6.31081e-05
4.32889e-06
-5.45538e-06
6.07829e-05
4.23271e-06
-7.8286e-06
5.78364e-05
4.49489e-06
-1.07791e-05
5.39779e-05
5.0237e-06
-1.45083e-05
4.87395e-05
5.6744e-06
-1.91341e-05
4.1454e-05
6.38117e-06
-2.49727e-05
3.09908e-05
6.54451e-06
-3.09603e-05
1.6347e-05
5.76161e-06
-3.53412e-05
1.28064e-06
-2.27869e-05
6.5216e-05
4.55836e-06
3.36778e-07
6.81969e-05
8.13766e-06
6.17133e-07
7.04817e-05
9.27681e-06
5.39528e-07
7.16974e-05
8.85096e-06
8.80006e-08
7.19946e-05
7.80922e-06
-7.43405e-07
7.1561e-05
6.74117e-06
-1.92588e-06
7.05467e-05
6.01006e-06
-3.45792e-06
6.89974e-05
5.74113e-06
-5.37325e-06
6.68556e-05
5.95603e-06
-7.75573e-06
6.39436e-05
6.61655e-06
-1.07262e-05
5.9959e-05
7.69263e-06
-1.44853e-05
5.43731e-05
9.08854e-06
-1.91728e-05
4.64024e-05
1.07707e-05
-2.51003e-05
3.47481e-05
1.20371e-05
-3.1261e-05
1.82036e-05
1.19232e-05
-3.58287e-05
5.61196e-06
-2.31533e-05
6.4279e-05
2.99006e-06
3.57103e-07
6.69368e-05
5.91706e-06
6.63517e-07
6.94638e-05
7.29788e-06
6.08782e-07
7.13062e-05
7.55924e-06
1.79362e-07
7.23414e-05
7.23493e-06
-6.24136e-07
7.26041e-05
6.78631e-06
-1.76847e-06
7.21812e-05
6.54619e-06
-3.24899e-06
7.11151e-05
6.69096e-06
-5.09724e-06
6.93697e-05
7.31166e-06
-7.39186e-06
6.6787e-05
8.44908e-06
-1.02524e-05
6.30669e-05
1.01525e-05
-1.38691e-05
5.76376e-05
1.24202e-05
-1.83977e-05
4.96082e-05
1.53136e-05
-2.41329e-05
3.74545e-05
1.81172e-05
-3.0176e-05
1.95908e-05
1.94415e-05
-3.4701e-05
1.11498e-05
-2.2439e-05
6.37307e-05
1.96898e-06
3.78277e-07
6.59506e-05
4.13451e-06
7.13992e-07
6.83587e-05
5.43935e-06
6.89682e-07
7.04136e-05
6.05765e-06
2.92401e-07
7.18561e-05
6.25781e-06
-4.7167e-07
7.26065e-05
6.35145e-06
-1.56329e-06
7.26786e-05
6.60089e-06
-2.97189e-06
7.20862e-05
7.1894e-06
-4.72347e-06
7.07935e-05
8.24959e-06
-6.88766e-06
6.86498e-05
9.89526e-06
-9.57883e-06
6.53591e-05
1.22613e-05
-1.29704e-05
6.03094e-05
1.54861e-05
-1.7232e-05
5.25182e-05
1.97815e-05
-2.26287e-05
4.01902e-05
2.45762e-05
-2.84139e-05
2.12591e-05
2.8273e-05
-3.27827e-05
1.84183e-05
-2.12937e-05
6.34766e-05
1.20147e-06
4.02229e-07
6.54151e-05
2.63363e-06
7.71245e-07
6.7697e-05
3.70895e-06
7.84069e-07
6.98404e-05
4.4713e-06
4.27761e-07
7.15386e-05
5.0313e-06
-2.8686e-07
7.26534e-05
5.56334e-06
-1.31387e-06
7.31547e-05
6.24517e-06
-2.63423e-06
7.30429e-05
7.23808e-06
-4.26418e-06
7.22978e-05
8.68946e-06
-6.25841e-06
7.08055e-05
1.07701e-05
-8.71736e-06
6.83275e-05
1.36874e-05
-1.17827e-05
6.42837e-05
1.7761e-05
-1.56219e-05
5.77011e-05
2.34026e-05
-2.0431e-05
4.62843e-05
3.07079e-05
-2.56584e-05
2.70437e-05
3.83908e-05
-2.94992e-05
3.23596e-05
-1.92669e-05
6.33862e-05
4.28137e-07
5.24863e-07
6.52184e-05
8.3325e-07
1.2409e-06
6.74721e-05
8.87241e-07
2.01049e-06
6.97054e-05
5.77465e-07
2.80141e-06
7.16005e-05
-8.13185e-08
3.61764e-06
7.2998e-05
-1.03709e-06
4.50746e-06
7.38529e-05
-2.26141e-06
5.55907e-06
7.41669e-05
-3.75906e-06
6.89676e-06
7.39401e-05
-5.56786e-06
8.66627e-06
7.30969e-05
-7.77109e-06
1.10834e-05
7.14596e-05
-1.04756e-05
1.44127e-05
6.84992e-05
-1.38408e-05
1.91831e-05
6.33404e-05
-1.799e-05
2.59862e-05
5.33387e-05
-2.25944e-05
3.60504e-05
3.51333e-05
-2.59247e-05
4.84975e-05
-1.76327e-05
5.5105e-05
4.99528e-05
1.2638e-05
1.0968e-07
3.95031e-05
1.06153e-05
1.7291e-07
3.15892e-05
8.08936e-06
6.13581e-08
2.65273e-05
5.19786e-06
-2.07145e-07
2.33833e-05
3.20278e-06
-6.20541e-07
2.1409e-05
1.93163e-06
-1.15384e-06
2.00084e-05
1.23662e-06
-1.81047e-06
1.88011e-05
8.96255e-07
-2.60452e-06
1.75414e-05
7.6243e-07
-3.57378e-06
1.60695e-05
7.20864e-07
-4.74245e-06
1.42495e-05
7.08812e-07
-6.18932e-06
1.19815e-05
6.26784e-07
-7.86027e-06
9.06524e-06
4.70864e-07
-9.90961e-06
5.64371e-06
-7.93815e-08
-1.16282e-05
1.47428e-06
-7.16116e-07
-1.27101e-05
-2.38513e-06
-7.92637e-06
6.46176e-05
1.0649e-05
1.53049e-07
6.29574e-05
1.25271e-05
2.50398e-07
5.99639e-05
1.13769e-05
1.0341e-07
5.66948e-05
8.72658e-06
-3.05359e-07
5.37513e-05
6.29969e-06
-9.84931e-07
5.12265e-05
4.44801e-06
-1.91306e-06
4.89548e-05
3.29195e-06
-3.09143e-06
4.66822e-05
2.69527e-06
-4.54306e-06
4.41429e-05
2.50345e-06
-6.32871e-06
4.10718e-05
2.56014e-06
-8.50769e-06
3.71855e-05
2.75812e-06
-1.1205e-05
3.21548e-05
2.94123e-06
-1.43985e-05
2.55419e-05
3.05821e-06
-1.82451e-05
1.71088e-05
2.58688e-06
-2.1692e-05
6.95594e-06
1.53925e-06
-2.33789e-05
-1.61706e-06
-1.39848e-05
6.62076e-05
7.08224e-06
1.75673e-07
6.82874e-05
1.07294e-05
2.90464e-07
6.89143e-05
1.10885e-05
1.41441e-07
6.83418e-05
9.61046e-06
-2.92091e-07
6.70878e-05
7.758e-06
-1.02425e-06
6.54312e-05
6.13661e-06
-2.04064e-06
6.34701e-05
5.05775e-06
-3.34797e-06
6.11458e-05
4.53905e-06
-4.97492e-06
5.82963e-05
4.51198e-06
-6.98761e-06
5.46735e-05
4.86224e-06
-9.45837e-06
4.9939e-05
5.5052e-06
-1.25209e-05
4.36409e-05
6.28397e-06
-1.61787e-05
3.51628e-05
7.13896e-06
-2.05753e-05
2.40117e-05
7.38879e-06
-2.4611e-05
1.0254e-05
6.52236e-06
-2.65666e-05
1.63288e-06
-1.57828e-05
6.51473e-05
4.57943e-06
1.92267e-07
6.79819e-05
8.18848e-06
3.23432e-07
7.00673e-05
9.35925e-06
1.83419e-07
7.10479e-05
8.96251e-06
-2.44592e-07
7.10831e-05
7.95043e-06
-9.7107e-07
7.03569e-05
6.9193e-06
-1.98242e-06
6.90033e-05
6.24066e-06
-3.28719e-06
6.70401e-05
6.04567e-06
-4.91666e-06
6.43702e-05
6.36338e-06
-6.93724e-06
6.07738e-05
7.15828e-06
-9.42583e-06
5.58955e-05
8.41272e-06
-1.25145e-05
4.92134e-05
1.00173e-05
-1.6224e-05
3.99838e-05
1.19561e-05
-2.0688e-05
2.7554e-05
1.33981e-05
-2.48405e-05
1.18362e-05
1.32857e-05
-2.68742e-05
6.23634e-06
-1.59206e-05
6.42125e-05
3.0128e-06
2.11255e-07
6.67274e-05
5.97262e-06
3.64432e-07
6.90609e-05
7.39073e-06
2.43777e-07
7.06771e-05
7.69033e-06
-1.64652e-07
7.1462e-05
7.40743e-06
-8.6598e-07
7.14464e-05
7.00976e-06
-1.84335e-06
7.07014e-05
6.83943e-06
-3.10271e-06
6.9242e-05
7.08145e-06
-4.67369e-06
6.69935e-05
7.83834e-06
-6.61828e-06
6.37539e-05
9.15835e-06
-9.01293e-06
5.91671e-05
1.11115e-05
-1.19811e-05
5.26579e-05
1.36866e-05
-1.55578e-05
4.33593e-05
1.69838e-05
-1.98619e-05
3.03774e-05
2.01175e-05
-2.39134e-05
1.32285e-05
2.16358e-05
-2.59022e-05
1.23119e-05
-1.52861e-05
6.36659e-05
1.99366e-06
2.31533e-07
6.57465e-05
4.19475e-06
4.11238e-07
6.79679e-05
5.54112e-06
3.17889e-07
6.98075e-05
6.20451e-06
-6.13614e-08
7.10147e-05
6.45551e-06
-7.26999e-07
7.15066e-05
6.61203e-06
-1.65745e-06
7.12813e-05
6.94641e-06
-2.85358e-06
7.03265e-05
7.65327e-06
-4.34043e-06
6.85687e-05
8.88093e-06
-6.17242e-06
6.58136e-05
1.07571e-05
-8.42254e-06
6.17076e-05
1.3448e-05
-1.12009e-05
5.56253e-05
1.70937e-05
-1.45567e-05
4.65928e-05
2.19748e-05
-1.85872e-05
3.34106e-05
2.73241e-05
-2.24383e-05
1.50496e-05
3.15478e-05
-2.43337e-05
2.04366e-05
-1.43688e-05
6.34137e-05
1.22805e-06
2.54139e-07
6.52173e-05
2.69802e-06
4.6437e-07
6.73202e-05
3.81768e-06
4.04646e-07
6.92604e-05
4.6296e-06
6.24439e-08
7.0741e-05
5.24688e-06
-5.58848e-07
7.16212e-05
5.85015e-06
-1.43222e-06
7.1857e-05
6.62776e-06
-2.55135e-06
7.14252e-05
7.75438e-06
-3.93348e-06
7.02723e-05
9.39651e-06
-5.62113e-06
6.82446e-05
1.17455e-05
-7.67806e-06
6.50519e-05
1.50496e-05
-1.01915e-05
6.00927e-05
1.96483e-05
-1.32174e-05
5.23941e-05
2.6053e-05
-1.68106e-05
4.0169e-05
3.41797e-05
-2.02887e-05
2.12988e-05
4.2852e-05
-2.19333e-05
3.55006e-05
-1.30321e-05
6.33253e-05
2.7804e-07
5.52861e-07
6.50274e-05
5.21158e-07
1.30801e-06
6.71106e-05
4.98663e-07
2.12302e-06
6.91537e-05
1.98342e-07
2.96568e-06
7.08498e-05
-3.7318e-07
3.84263e-06
7.20383e-05
-1.18368e-06
4.80821e-06
7.26621e-05
-2.21897e-06
5.96153e-06
7.27027e-05
-3.48706e-06
7.44172e-06
7.21325e-05
-5.017e-06
9.41586e-06
7.08412e-05
-6.86089e-06
1.21266e-05
6.86087e-05
-9.08073e-06
1.58873e-05
6.48805e-05
-1.17354e-05
2.12711e-05
5.87831e-05
-1.48355e-05
2.89959e-05
4.80776e-05
-1.78942e-05
4.0185e-05
3.01386e-05
-1.93216e-05
5.4188e-05
-1.19629e-05
5.99694e-05
4.99146e-05
1.26434e-05
5.16042e-08
3.93884e-05
1.063e-05
6.92003e-08
3.13805e-05
8.1079e-06
-3.86984e-08
2.62206e-05
5.21592e-06
-2.63105e-07
2.29776e-05
3.22046e-06
-5.98063e-07
2.09e-05
1.95163e-06
-1.02782e-06
1.93838e-05
1.26291e-06
-1.55719e-06
1.80426e-05
9.32223e-07
-2.19555e-06
1.6626e-05
8.12092e-07
-2.96921e-06
1.49792e-05
7.89141e-07
-3.88484e-06
1.29753e-05
8.05292e-07
-4.99066e-06
1.05561e-05
7.68646e-07
-6.20975e-06
7.58285e-06
6.8481e-07
-7.62118e-06
4.32542e-06
2.69139e-07
-8.6399e-06
8.3937e-07
-2.66063e-07
-8.95798e-06
-1.75795e-06
-5.32905e-06
6.4563e-05
1.06625e-05
7.10092e-08
6.2791e-05
1.25582e-05
9.41072e-08
5.96448e-05
1.14212e-05
-6.37004e-08
5.61965e-05
8.77778e-06
-4.18905e-07
5.30568e-05
6.35628e-06
-9.8104e-07
5.03192e-05
4.5135e-06
-1.7373e-06
4.78098e-05
3.37411e-06
-2.69332e-06
4.52634e-05
2.80277e-06
-3.86717e-06
4.24026e-05
2.64698e-06
-5.30281e-06
3.89634e-05
2.7509e-06
-7.03028e-06
3.46743e-05
3.01455e-06
-9.12508e-06
2.9277e-05
3.2843e-06
-1.15169e-05
2.24504e-05
3.5232e-06
-1.42568e-05
1.42658e-05
3.21043e-06
-1.64488e-05
5.26892e-06
2.28055e-06
-1.69286e-05
-8.58625e-07
-9.61519e-06
6.6153e-05
7.10027e-06
8.4955e-08
6.81165e-05
1.0771e-05
1.14106e-07
6.858e-05
1.11523e-05
-5.31983e-08
6.78095e-05
9.69123e-06
-4.35002e-07
6.63319e-05
7.85445e-06
-1.04481e-06
6.44278e-05
6.25307e-06
-1.87613e-06
6.21885e-05
5.20472e-06
-2.93923e-06
5.95438e-05
4.73015e-06
-4.25766e-06
5.63185e-05
4.76494e-06
-5.88024e-06
5.22629e-05
5.19568e-06
-7.84756e-06
4.70502e-05
5.94649e-06
-1.02401e-05
4.03035e-05
6.85635e-06
-1.30042e-05
3.15402e-05
7.88119e-06
-1.617e-05
2.06265e-05
8.29629e-06
-1.87832e-05
8.17226e-06
7.52518e-06
-1.9357e-05
2.40086e-06
-1.087e-05
6.50949e-05
4.59969e-06
9.79466e-08
6.78155e-05
8.23621e-06
1.37633e-07
6.97402e-05
9.43583e-06
-2.48167e-08
7.05248e-05
9.06574e-06
-4.03674e-07
7.03372e-05
8.08065e-06
-1.00968e-06
6.93628e-05
7.08232e-06
-1.83725e-06
6.77292e-05
6.4495e-06
-2.89841e-06
6.54434e-05
6.31854e-06
-4.21918e-06
6.23949e-05
6.72508e-06
-5.84889e-06
5.83611e-05
7.63587e-06
-7.83223e-06
5.29967e-05
9.04443e-06
-1.02481e-05
4.58529e-05
1.0832e-05
-1.30558e-05
3.63191e-05
1.30015e-05
-1.62745e-05
2.41083e-05
1.46348e-05
-1.89682e-05
9.70341e-06
1.46181e-05
-1.95623e-05
7.09082e-06
-1.09071e-05
6.41621e-05
3.03453e-06
1.14356e-07
6.65663e-05
6.02469e-06
1.71753e-07
6.87444e-05
7.47663e-06
2.4879e-08
7.01723e-05
7.81083e-06
-3.37683e-07
7.07444e-05
7.565e-06
-9.22436e-07
7.04928e-05
7.21207e-06
-1.72146e-06
6.94824e-05
7.10203e-06
-2.74487e-06
6.77178e-05
7.4269e-06
-4.0175e-06
6.51115e-05
8.29837e-06
-5.58525e-06
6.14582e-05
9.76926e-06
-7.49297e-06
5.641e-05
1.19246e-05
-9.81302e-06
4.94592e-05
1.47416e-05
-1.25167e-05
3.98639e-05
1.83464e-05
-1.56116e-05
2.70835e-05
2.17281e-05
-1.82262e-05
1.11918e-05
2.33906e-05
-1.8783e-05
1.33878e-05
-1.03912e-05
6.3617e-05
2.01682e-06
1.32225e-07
6.55903e-05
4.25053e-06
2.12152e-07
6.76621e-05
5.63435e-06
8.83316e-08
6.93228e-05
6.33821e-06
-2.49442e-07
7.03304e-05
6.63427e-06
-8.03865e-07
7.06029e-05
6.8455e-06
-1.56344e-06
7.0133e-05
7.25264e-06
-2.53426e-06
6.88981e-05
8.05893e-06
-3.73758e-06
6.6813e-05
9.42438e-06
-5.21335e-06
6.36796e-05
1.14844e-05
-7.00429e-06
5.91511e-05
1.44251e-05
-9.17292e-06
5.26629e-05
1.83764e-05
-1.17032e-05
4.33553e-05
2.36554e-05
-1.45886e-05
3.03605e-05
2.93394e-05
-1.70549e-05
1.31666e-05
3.38129e-05
-1.75621e-05
2.18706e-05
-9.68504e-06
6.33665e-05
1.25243e-06
1.52012e-07
6.50666e-05
2.75668e-06
2.58138e-07
6.70266e-05
3.9161e-06
1.62932e-07
6.87984e-05
4.77223e-06
-1.43406e-07
7.00943e-05
5.43989e-06
-6.60374e-07
7.0775e-05
6.10482e-06
-1.37227e-06
7.07919e-05
6.96395e-06
-2.27947e-06
7.01128e-05
8.20181e-06
-3.39734e-06
6.86745e-05
9.99836e-06
-4.7568e-06
6.63198e-05
1.25559e-05
-6.39485e-06
6.27657e-05
1.61462e-05
-8.35849e-06
5.74624e-05
2.11039e-05
-1.06416e-05
4.95371e-05
2.79841e-05
-1.3214e-05
3.74917e-05
3.65336e-05
-1.54376e-05
1.9642e-05
4.55783e-05
-1.58489e-05
3.72773e-05
-8.79695e-06
6.32799e-05
1.72652e-07
5.77955e-07
6.48827e-05
3.06915e-07
1.3681e-06
6.68304e-05
2.43386e-07
2.22361e-06
6.87164e-05
-2.74463e-08
3.11208e-06
7.02434e-05
-5.02496e-07
4.04219e-06
7.12534e-05
-1.16198e-06
5.07315e-06
7.16857e-05
-1.99993e-06
6.31261e-06
7.15146e-05
-3.02462e-06
7.91041e-06
7.07048e-05
-4.25687e-06
1.0048e-05
6.91437e-05
-5.72612e-06
1.29822e-05
6.66196e-05
-7.46232e-06
1.70518e-05
6.2621e-05
-9.46691e-06
2.28341e-05
5.63635e-05
-1.16869e-05
3.10929e-05
4.58479e-05
-1.36392e-05
4.27942e-05
2.87987e-05
-1.39993e-05
5.73051e-05
-8.10458e-06
6.22177e-05
4.98852e-05
1.2648e-05
1.84117e-08
3.92996e-05
1.0642e-05
1.28032e-08
3.12169e-05
8.12319e-06
-7.91627e-08
2.59762e-05
5.23091e-06
-2.5337e-07
2.26498e-05
3.23519e-06
-5.06841e-07
2.04837e-05
1.96812e-06
-8.29814e-07
1.88688e-05
1.28424e-06
-1.2265e-06
1.74146e-05
9.6097e-07
-1.70231e-06
1.58679e-05
8.51184e-07
-2.27379e-06
1.40795e-05
8.41947e-07
-2.93836e-06
1.19332e-05
8.7834e-07
-3.72263e-06
9.40546e-06
8.73319e-07
-4.55537e-06
6.41911e-06
8.38385e-07
-5.47322e-06
3.3332e-06
5.0776e-07
-6.06175e-06
4.05649e-07
3.4948e-08
-6.06538e-06
-1.40259e-06
-3.52081e-06
6.45206e-05
1.06741e-05
2.42808e-08
6.26619e-05
1.25844e-05
1.04082e-08
5.93942e-05
1.14588e-05
-1.31517e-07
5.57997e-05
8.82137e-06
-4.14858e-07
5.24964e-05
6.40474e-06
-8.47326e-07
4.95792e-05
4.56951e-06
-1.4215e-06
4.68695e-05
3.44391e-06
-2.14324e-06
4.40949e-05
2.89344e-06
-3.02505e-06
4.0972e-05
2.7673e-06
-4.09602e-06
3.72417e-05
2.90999e-06
-5.36804e-06
3.26501e-05
3.22718e-06
-6.88227e-06
2.70021e-05
3.56674e-06
-8.56233e-06
2.00895e-05
3.90256e-06
-1.04085e-05
1.22028e-05
3.70933e-06
-1.17637e-05
4.18371e-06
2.86186e-06
-1.17364e-05
-3.37116e-07
-6.49696e-06
6.61107e-05
7.11601e-06
3.23513e-08
6.79839e-05
1.08068e-05
1.84746e-08
6.83176e-05
1.1207e-05
-1.35182e-07
6.73858e-05
9.76068e-06
-4.42497e-07
6.57223e-05
7.93755e-06
-9.1415e-07
6.36099e-05
6.35318e-06
-1.54743e-06
6.11362e-05
5.33038e-06
-2.35198e-06
5.82243e-05
4.89256e-06
-3.34492e-06
5.46918e-05
4.97879e-06
-4.55922e-06
5.02927e-05
5.47628e-06
-6.01467e-06
4.47186e-05
6.31614e-06
-7.75501e-06
3.76614e-05
7.33358e-06
-9.71384e-06
2.8768e-05
8.49679e-06
-1.18707e-05
1.81657e-05
9.04427e-06
-1.35158e-05
6.8278e-06
8.34775e-06
-1.3505e-05
2.99603e-06
-7.3754e-06
6.50545e-05
4.61758e-06
4.18807e-08
6.76868e-05
8.27776e-06
3.44121e-08
6.9484e-05
9.50209e-06
-1.17027e-07
7.01091e-05
9.1549e-06
-4.23039e-07
6.97364e-05
8.19293e-06
-8.92351e-07
6.85531e-05
7.22237e-06
-1.5231e-06
6.66835e-05
6.62797e-06
-2.32643e-06
6.4128e-05
6.55038e-06
-3.32154e-06
6.07692e-05
7.03071e-06
-4.542e-06
5.63869e-05
8.03731e-06
-6.01092e-06
5.06533e-05
9.57244e-06
-7.77085e-06
4.31867e-05
1.15091e-05
-9.76468e-06
3.3507e-05
1.38645e-05
-1.19625e-05
2.15958e-05
1.56518e-05
-1.36645e-05
8.32159e-06
1.57142e-05
-1.36545e-05
7.80022e-06
-7.38974e-06
6.41234e-05
3.05373e-06
5.48394e-08
6.64421e-05
6.07012e-06
6.06693e-08
6.84971e-05
7.55106e-06
-7.91062e-08
6.97721e-05
7.91479e-06
-3.72584e-07
7.01675e-05
7.7005e-06
-8.25364e-07
6.9717e-05
7.38539e-06
-1.434e-06
6.84825e-05
7.3259e-06
-2.20833e-06
6.64624e-05
7.71982e-06
-3.16681e-06
6.35621e-05
8.68634e-06
-4.34055e-06
5.9578e-05
1.02815e-05
-5.75313e-06
5.41781e-05
1.2602e-05
-7.44261e-06
4.69172e-05
1.56144e-05
-9.36118e-06
3.71776e-05
1.94639e-05
-1.14713e-05
2.46797e-05
2.30424e-05
-1.3119e-05
9.87751e-06
2.48207e-05
-1.30873e-05
1.43052e-05
-7.01861e-06
6.35797e-05
2.03712e-06
6.91532e-08
6.54704e-05
4.29896e-06
9.26e-08
6.74242e-05
5.7148e-06
-2.92253e-08
6.89398e-05
6.4531e-06
-3.03307e-07
6.97814e-05
6.78737e-06
-7.32384e-07
6.9869e-05
7.04476e-06
-1.31042e-06
6.91921e-05
7.5129e-06
-2.04432e-06
6.77222e-05
8.40203e-06
-2.94995e-06
6.53677e-05
9.88163e-06
-4.05414e-06
6.19315e-05
1.20927e-05
-5.37926e-06
5.70808e-05
1.52365e-05
-6.95674e-06
5.03079e-05
1.9433e-05
-8.74884e-06
4.08679e-05
2.50253e-05
-1.07099e-05
2.8139e-05
3.09726e-05
-1.22563e-05
1.19634e-05
3.564e-05
-1.22057e-05
2.31017e-05
-6.51822e-06
6.33306e-05
1.27354e-06
8.49511e-08
6.49515e-05
2.80717e-06
1.29051e-07
6.67992e-05
4.00044e-06
2.96515e-08
6.84346e-05
4.89409e-06
-2.19847e-07
6.95769e-05
5.60443e-06
-6.19784e-07
7.00891e-05
6.32135e-06
-1.16104e-06
6.992e-05
7.24889e-06
-1.84634e-06
6.90325e-05
8.57954e-06
-2.68736e-06
6.73579e-05
1.05041e-05
-3.70462e-06
6.47399e-05
1.3233e-05
-4.91717e-06
6.09085e-05
1.7056e-05
-6.34662e-06
5.53628e-05
2.23017e-05
-7.96451e-06
4.73322e-05
2.95555e-05
-9.71367e-06
3.55361e-05
3.84385e-05
-1.11074e-05
1.85907e-05
4.77726e-05
-1.10361e-05
3.88387e-05
-5.94329e-06
6.32455e-05
1.01297e-07
5.99382e-07
6.47728e-05
1.67546e-07
1.41929e-06
6.66144e-05
9.30008e-08
2.30915e-06
6.83734e-05
-1.28771e-07
3.23646e-06
6.976e-05
-4.96151e-07
4.21151e-06
7.06188e-05
-9.97029e-07
5.29755e-06
7.08879e-05
-1.62944e-06
6.60937e-06
7.05374e-05
-2.40002e-06
8.30536e-06
6.95283e-05
-3.32221e-06
1.05786e-05
6.77492e-05
-4.41046e-06
1.36964e-05
6.50016e-05
-5.67562e-06
1.80169e-05
6.08151e-05
-7.09716e-06
2.41184e-05
5.44952e-05
-8.60776e-06
3.27963e-05
4.42246e-05
-9.83097e-06
4.4901e-05
2.79678e-05
-9.7783e-06
5.98084e-05
-5.50315e-06
6.4205e-05
4.9864e-05
1.26516e-05
2.80115e-09
3.92356e-05
1.06513e-05
-9.97499e-09
3.10979e-05
8.13501e-06
-7.64775e-08
2.57975e-05
5.24274e-06
-1.95765e-07
2.24096e-05
3.24702e-06
-3.65966e-07
2.01799e-05
1.98158e-06
-5.81651e-07
1.84973e-05
1.30184e-06
-8.45746e-07
1.6971e-05
9.85044e-07
-1.16108e-06
1.53497e-05
8.84577e-07
-1.53707e-06
1.34916e-05
8.88218e-07
-1.96849e-06
1.12934e-05
9.43971e-07
-2.4684e-06
8.75318e-06
9.68924e-07
-2.98405e-06
5.82935e-06
9.79953e-07
-3.52935e-06
2.89015e-06
7.20758e-07
-3.84331e-06
2.63993e-07
3.08902e-07
-3.74812e-06
-1.11756e-06
-2.13927e-06
6.44901e-05
1.06832e-05
2.53069e-09
6.25682e-05
1.26049e-05
-2.13301e-08
5.9211e-05
1.1488e-05
-1.27239e-07
5.55077e-05
8.85563e-06
-3.2454e-07
5.20827e-05
6.44306e-06
-6.18311e-07
4.90334e-05
4.61396e-06
-1.00455e-06
4.61803e-05
3.49934e-06
-1.4877e-06
4.32502e-05
2.96556e-06
-2.07548e-06
3.99606e-05
2.86339e-06
-2.78524e-06
3.60626e-05
3.03798e-06
-3.6198e-06
3.13232e-05
3.39997e-06
-4.5989e-06
2.5592e-05
3.79933e-06
-5.66155e-06
1.87344e-05
4.2194e-06
-6.79028e-06
1.11209e-05
4.1299e-06
-7.55929e-06
3.70254e-06
3.3636e-06
-7.3727e-06
9.24376e-08
-4.00443e-06
6.60802e-05
7.12852e-06
6.84522e-09
6.78877e-05
1.08351e-05
-1.92089e-08
6.81256e-05
1.12501e-05
-1.35214e-07
6.70737e-05
9.81541e-06
-3.50389e-07
6.52715e-05
8.00309e-06
-6.71998e-07
6.30051e-05
6.43207e-06
-1.09905e-06
6.03621e-05
5.42908e-06
-1.63872e-06
5.7265e-05
5.0197e-06
-2.30199e-06
5.35323e-05
5.14583e-06
-3.10893e-06
4.89278e-05
5.69535e-06
-4.0676e-06
4.31666e-05
6.6051e-06
-5.19895e-06
3.59911e-05
7.70839e-06
-6.44737e-06
2.71357e-05
8.98355e-06
-7.77946e-06
1.68366e-05
9.64289e-06
-8.7298e-06
6.20577e-06
9.02012e-06
-8.53068e-06
3.48516e-06
-4.56235e-06
6.50255e-05
4.63189e-06
1.30596e-08
6.75936e-05
8.31074e-06
-9.38559e-09
6.92969e-05
9.55443e-06
-1.24617e-07
6.98034e-05
9.2252e-06
-3.39362e-07
6.92925e-05
8.28129e-06
-6.59689e-07
6.79545e-05
7.3322e-06
-1.08523e-06
6.59143e-05
6.76717e-06
-1.62425e-06
6.31715e-05
6.73013e-06
-2.28926e-06
5.961e-05
7.26622e-06
-3.10082e-06
5.50188e-05
8.34488e-06
-4.06933e-06
4.90934e-05
9.97475e-06
-5.21501e-06
4.15023e-05
1.2023e-05
-6.48819e-06
3.18548e-05
1.45172e-05
-7.84869e-06
2.02457e-05
1.64232e-05
-8.83578e-06
7.69084e-06
1.65518e-05
-8.63127e-06
8.35382e-06
-4.56757e-06
6.40957e-05
3.06908e-06
2.19944e-08
6.63525e-05
6.10619e-06
8.401e-09
6.8317e-05
7.60985e-06
-9.90813e-08
6.94784e-05
7.99662e-06
-3.05337e-07
6.97419e-05
7.80678e-06
-6.14377e-07
6.91443e-05
7.52063e-06
-1.02485e-06
6.7748e-05
7.49943e-06
-1.54424e-06
6.55508e-05
7.9451e-06
-2.18461e-06
6.24594e-05
8.98207e-06
-2.965e-06
5.82792e-05
1.06682e-05
-3.89626e-06
5.26998e-05
1.31075e-05
-4.9959e-06
4.53239e-05
1.62582e-05
-6.22048e-06
3.56185e-05
2.02768e-05
-7.52543e-06
2.34119e-05
2.39897e-05
-8.47901e-06
9.30004e-06
2.584e-05
-8.26369e-06
1.49643e-05
-4.32902e-06
6.3553e-05
2.05326e-06
3.19584e-08
6.53841e-05
4.33727e-06
3.04426e-08
6.72513e-05
5.77815e-06
-6.4764e-08
6.86592e-05
6.5432e-06
-2.57719e-07
6.93771e-05
6.90692e-06
-5.50505e-07
6.9328e-05
7.19947e-06
-9.40102e-07
6.85017e-05
7.71346e-06
-1.43209e-06
6.68697e-05
8.66398e-06
-2.03686e-06
6.43415e-05
1.02268e-05
-2.77067e-06
6.07284e-05
1.25458e-05
-3.64378e-06
5.57179e-05
1.5831e-05
-4.66966e-06
4.8846e-05
2.01929e-05
-5.81175e-06
3.94466e-05
2.59876e-05
-7.02139e-06
2.69958e-05
3.20961e-05
-7.91186e-06
1.14622e-05
3.68602e-05
-7.69227e-06
2.39169e-05
-4.00861e-06
6.33051e-05
1.29018e-06
4.2941e-08
6.48689e-05
2.84686e-06
5.56595e-08
6.66343e-05
4.06655e-06
-2.41461e-08
6.81686e-05
4.98926e-06
-2.00246e-07
6.91965e-05
5.73236e-06
-4.73112e-07
6.95839e-05
6.48872e-06
-8.37717e-07
6.92806e-05
7.4674e-06
-1.29692e-06
6.82494e-05
8.86627e-06
-1.85843e-06
6.6423e-05
1.08831e-05
-2.53458e-06
6.36531e-05
1.37324e-05
-3.33381e-06
5.9688e-05
1.77134e-05
-4.26398e-06
5.40654e-05
2.31464e-05
-5.29539e-06
4.6084e-05
3.06299e-05
-6.37458e-06
3.45483e-05
3.97009e-05
-7.17645e-06
1.81765e-05
4.91608e-05
-6.96489e-06
3.98156e-05
-3.66553e-06
6.32211e-05
5.42539e-08
6.16119e-07
6.46941e-05
8.22308e-08
1.45921e-06
6.64583e-05
1.95181e-08
2.37583e-06
6.81232e-05
-1.37572e-07
3.33315e-06
6.9405e-05
-3.88215e-07
4.3426e-06
7.01518e-05
-7.25413e-07
5.47028e-06
7.03028e-05
-1.14894e-06
6.83599e-06
6.98286e-05
-1.6633e-06
8.60374e-06
6.8692e-05
-2.27633e-06
1.09738e-05
6.67891e-05
-2.99395e-06
1.42187e-05
6.39383e-05
-3.81783e-06
1.87064e-05
5.97026e-05
-4.72435e-06
2.50094e-05
5.34471e-05
-5.65662e-06
3.39342e-05
4.3424e-05
-6.35938e-06
4.62524e-05
2.76706e-05
-6.18392e-06
6.13198e-05
-3.40514e-06
6.53882e-05
4.985e-05
1.2654e-05
-1.19676e-09
3.91932e-05
1.06575e-05
-1.06582e-08
3.10188e-05
8.14295e-06