/*--------------------------------*- C++ -*----------------------------------*\
| =========                 |                                                 |
| \\      /  F ield         | OpenFOAM: The Open Source CFD Toolbox           |
|  \\    /   O peration     | Version:  v1912                                 |
|   \\  /    A nd           | Website:  www.openfoam.com                      |
|    \\/     M anipulation  |                                                 |
\*---------------------------------------------------------------------------*/
FoamFile
{
    version     2.0;
    format      ascii;
    class       volVectorField;
    location    "0.74/solid";
    object      D;
}
// * * * * * * * * * * * * * * * * * * * * * * * * * * * * * * * * * * * * * //

dimensions      [0 1 0 0 0 0 0];


internalField   nonuniform List<vector> 
256
(
(2.75397e-08 3.92586e-08 3.00966e-08)
(3.5576e-09 2.2914e-08 2.73753e-08)
(-3.38675e-09 2.25678e-08 2.7282e-08)
(-2.65197e-08 3.78121e-08 2.98872e-08)
(4.50496e-08 3.0688e-08 5.80225e-08)
(9.16338e-09 2.07213e-08 5.44095e-08)
(-7.84238e-09 2.01886e-08 5.43514e-08)
(-4.25907e-08 2.89125e-08 5.79256e-08)
(4.75759e-08 1.5428e-08 7.34068e-08)
(1.06371e-08 1.1459e-08 6.95117e-08)
(-7.90336e-09 1.08246e-08 6.95208e-08)
(-4.37134e-08 1.34557e-08 7.34952e-08)
(4.70929e-08 1.75238e-09 8.53922e-08)
(1.06512e-08 -4.09825e-10 8.1079e-08)
(-6.39858e-09 -1.12118e-09 8.11373e-08)
(-4.17146e-08 -4.21712e-10 8.56194e-08)
(4.79503e-08 -1.13286e-08 9.72694e-08)
(1.11375e-08 -1.42207e-08 9.24623e-08)
(-5.27581e-09 -1.50043e-08 9.25513e-08)
(-4.09486e-08 -1.37015e-08 9.75859e-08)
(5.24407e-08 -2.59188e-08 1.10779e-07)
(1.31295e-08 -3.02212e-08 1.05516e-07)
(-5.57819e-09 -3.10784e-08 1.05623e-07)
(-4.37403e-08 -2.84862e-08 1.11148e-07)
(6.28876e-08 -4.84165e-08 1.27073e-07)
(1.72354e-08 -5.18075e-08 1.21832e-07)
(-7.95867e-09 -5.27195e-08 1.21944e-07)
(-5.24602e-08 -5.11314e-08 1.27462e-07)
(7.77572e-08 -1.02865e-07 1.43519e-07)
(2.17227e-08 -9.92514e-08 1.39308e-07)
(-1.08249e-08 -9.99749e-08 1.39411e-07)
(-6.56448e-08 -1.05107e-07 1.43889e-07)
(1.91464e-08 1.78411e-08 6.00099e-09)
(1.82442e-09 4.43681e-09 7.34601e-09)
(-1.6597e-09 4.20172e-09 7.41413e-09)
(-1.81554e-08 1.67e-08 6.19694e-09)
(3.16249e-08 1.20654e-08 2.34317e-08)
(5.7916e-09 3.73092e-09 2.60537e-08)
(-4.54022e-09 3.24274e-09 2.61891e-08)
(-2.93043e-08 1.04242e-08 2.38233e-08)
(3.30933e-08 1.72615e-09 3.79504e-08)
(6.85017e-09 -1.70508e-09 4.09973e-08)
(-4.26879e-09 -2.33325e-09 4.11893e-08)
(-2.9473e-08 -2.11931e-10 3.85047e-08)
(3.23096e-08 -9.35412e-09 4.96666e-08)
(6.79788e-09 -1.13399e-08 5.27513e-08)
(-2.77149e-09 -1.20557e-08 5.29887e-08)
(-2.72522e-08 -1.1526e-08 5.03514e-08)
(3.28996e-08 -2.10974e-08 6.05638e-08)
(7.23587e-09 -2.39247e-08 6.35432e-08)
(-1.65705e-09 -2.47141e-08 6.38122e-08)
(-2.62708e-08 -2.34771e-08 6.13387e-08)
(3.7185e-08 -3.40496e-08 7.18336e-08)
(9.18211e-09 -3.83851e-08 7.46783e-08)
(-1.953e-09 -3.9248e-08 7.49661e-08)
(-2.88856e-08 -3.66287e-08 7.26617e-08)
(4.78116e-08 -5.20732e-08 8.28422e-08)
(1.33142e-08 -5.54262e-08 8.56366e-08)
(-4.38127e-09 -5.63467e-08 8.59314e-08)
(-3.77933e-08 -5.48093e-08 8.36901e-08)
(6.35394e-08 -9.62271e-08 8.90577e-08)
(1.78751e-08 -9.1605e-08 9.18992e-08)
(-7.32148e-09 -9.23444e-08 9.21925e-08)
(-5.18292e-08 -9.85048e-08 8.99007e-08)
(1.34041e-08 1.11958e-08 2.88311e-09)
(3.09638e-10 -5.02386e-12 4.69235e-09)
(-2.00464e-10 -2.07097e-10 4.74652e-09)
(-1.24943e-08 1.01692e-08 3.03793e-09)
(2.21294e-08 2.57019e-09 1.45115e-08)
(2.71992e-09 -4.31759e-09 1.79301e-08)
(-1.62706e-09 -4.76813e-09 1.8047e-08)
(-1.99975e-08 1.05028e-09 1.48483e-08)
(2.2897e-08 -7.46905e-09 2.70022e-08)
(3.3766e-09 -1.03939e-08 3.0933e-08)
(-1.03734e-09 -1.0996e-08 3.10937e-08)
(-1.95508e-08 -9.32121e-09 2.74676e-08)
(2.20515e-08 -1.71746e-08 3.82223e-08)
(3.27844e-09 -1.90598e-08 4.2258e-08)
(4.39184e-10 -1.97603e-08 4.24534e-08)
(-1.73355e-08 -1.92932e-08 3.87895e-08)
(2.26013e-08 -2.69949e-08 4.8335e-08)
(3.69246e-09 -2.98475e-08 5.23518e-08)
(1.52636e-09 -3.06288e-08 5.25733e-08)
(-1.63613e-08 -2.93445e-08 4.89775e-08)
(2.69081e-08 -3.71129e-08 5.75168e-08)
(5.61703e-09 -4.1516e-08 6.14778e-08)
(1.21555e-09 -4.23757e-08 6.17161e-08)
(-1.90254e-08 -3.96794e-08 5.82074e-08)
(3.77235e-08 -5.09105e-08 6.45568e-08)
(9.77054e-09 -5.43248e-08 6.84522e-08)
(-1.25718e-09 -5.52462e-08 6.86987e-08)
(-2.81324e-08 -5.36477e-08 6.52698e-08)
(5.36553e-08 -8.97103e-08 6.65197e-08)
(1.43668e-08 -8.50913e-08 7.0381e-08)
(-4.24439e-09 -8.58335e-08 7.06285e-08)
(-4.23712e-08 -9.19911e-08 6.72345e-08)
(1.08186e-08 9.11357e-09 2.68206e-09)
(-3.27785e-10 -8.11062e-10 3.84242e-09)
(3.95522e-10 -1.00286e-09 3.87879e-09)
(-9.98198e-09 8.14076e-09 2.78934e-09)
(1.77463e-08 -1.24342e-09 1.13328e-08)
(1.30716e-09 -7.26669e-09 1.3543e-08)
(-3.48647e-10 -7.69409e-09 1.36288e-08)
(-1.57843e-08 -2.68186e-09 1.15847e-08)
(1.82775e-08 -1.21117e-08 2.12883e-08)
(1.77058e-09 -1.47323e-08 2.38249e-08)
(3.56057e-10 -1.53097e-08 2.3945e-08)
(-1.51745e-08 -1.38849e-08 2.1642e-08)
(1.75848e-08 -2.14557e-08 3.08978e-08)
(1.69778e-09 -2.33055e-08 3.34784e-08)
(1.74676e-09 -2.39861e-08 3.36248e-08)
(-1.31695e-08 -2.35116e-08 3.13301e-08)
(1.82952e-08 -2.98958e-08 3.94871e-08)
(2.15357e-09 -3.27935e-08 4.20305e-08)
(2.74669e-09 -3.35607e-08 4.21973e-08)
(-1.23986e-08 -3.22017e-08 3.99798e-08)
(2.2732e-08 -3.79257e-08 4.65731e-08)
(4.09604e-09 -4.23919e-08 4.90655e-08)
(2.38518e-09 -4.32426e-08 4.92465e-08)
(-1.52202e-08 -4.04653e-08 4.71074e-08)
(3.35844e-08 -4.94469e-08 5.11712e-08)
(8.22842e-09 -5.30047e-08 5.36255e-08)
(-8.94709e-11 -5.39209e-08 5.38144e-08)
(-2.4378e-08 -5.21689e-08 5.17278e-08)
(4.93563e-08 -8.59795e-08 5.20061e-08)
(1.27887e-08 -8.18135e-08 5.45056e-08)
(-3.05706e-09 -8.25523e-08 5.46955e-08)
(-3.84625e-08 -8.82486e-08 5.25659e-08)
(9.84164e-09 8.27062e-09 2.44366e-09)
(-4.80317e-10 -1.01305e-09 3.02632e-09)
(5.22028e-10 -1.1986e-09 3.05108e-09)
(-9.05642e-09 7.33461e-09 2.51759e-09)
(1.61406e-08 -2.62875e-09 9.01094e-09)
(9.08261e-10 -8.23432e-09 1.0115e-08)
(-4.40448e-11 -8.64617e-09 1.01759e-08)
(-1.43045e-08 -4.00959e-09 9.19126e-09)
(1.66953e-08 -1.39619e-08 1.64914e-08)
(1.33151e-09 -1.64557e-08 1.77416e-08)
(6.37106e-10 -1.70142e-08 1.78285e-08)
(-1.3778e-08 -1.56736e-08 1.67492e-08)
(1.62079e-08 -2.32561e-08 2.3918e-08)
(1.31352e-09 -2.5119e-08 2.51606e-08)
(1.9215e-09 -2.5782e-08 2.52673e-08)
(-1.20268e-08 -2.52575e-08 2.42357e-08)
(1.71109e-08 -3.1012e-08 3.05421e-08)
(1.8262e-09 -3.39543e-08 3.17368e-08)
(2.82523e-09 -3.47075e-08 3.1859e-08)
(-1.14854e-08 -3.32753e-08 3.09064e-08)
(2.16552e-08 -3.80253e-08 3.57433e-08)
(3.78763e-09 -4.25327e-08 3.68989e-08)
(2.41573e-09 -4.33732e-08 3.70324e-08)
(-1.444e-08 -4.05346e-08 3.61415e-08)
(3.24467e-08 -4.86486e-08 3.88838e-08)
(7.87625e-09 -5.23198e-08 4.0033e-08)
(-3.66589e-11 -5.32286e-08 4.0173e-08)
(-2.35525e-08 -5.13498e-08 3.93015e-08)
(4.79941e-08 -8.41373e-08 3.95126e-08)
(1.2382e-08 -8.03731e-08 4.07321e-08)
(-2.96616e-09 -8.11066e-08 4.08728e-08)
(-3.74221e-08 -8.63906e-08 3.99336e-08)
(9.47671e-09 7.86935e-09 1.92413e-09)
(-4.8171e-10 -1.10482e-09 2.18799e-09)
(5.07465e-10 -1.28571e-09 2.20434e-09)
(-8.72412e-09 6.95905e-09 1.97274e-09)
(1.56143e-08 -3.08788e-09 6.60734e-09)
(8.64865e-10 -8.51549e-09 7.09464e-09)
(-6.24026e-11 -8.91632e-09 7.13555e-09)
(-1.38617e-08 -4.42784e-09 6.72794e-09)
(1.62699e-08 -1.45036e-08 1.17974e-08)
(1.30625e-09 -1.69649e-08 1.23321e-08)
(5.54228e-10 -1.75098e-08 1.23911e-08)
(-1.34802e-08 -1.61707e-08 1.1972e-08)
(1.59506e-08 -2.37681e-08 1.69655e-08)
(1.33745e-09 -2.56614e-08 1.74754e-08)
(1.74959e-09 -2.63112e-08 1.75483e-08)
(-1.19345e-08 -2.57278e-08 1.71827e-08)
(1.6996e-08 -3.1276e-08 2.15665e-08)
(1.89182e-09 -3.42521e-08 2.20376e-08)
(2.58005e-09 -3.49939e-08 2.21215e-08)
(-1.15654e-08 -3.35046e-08 2.18174e-08)
(2.15991e-08 -3.79553e-08 2.51157e-08)
(3.86096e-09 -4.24809e-08 2.55645e-08)
(2.13886e-09 -4.33124e-08 2.56566e-08)
(-1.46004e-08 -4.0438e-08 2.53915e-08)
(3.23103e-08 -4.83259e-08 2.72342e-08)
(7.90775e-09 -5.20514e-08 2.76928e-08)
(-2.89883e-10 -5.29534e-08 2.77898e-08)
(-2.36474e-08 -5.10075e-08 2.75251e-08)
(4.7674e-08 -8.32773e-08 2.77698e-08)
(1.23667e-08 -7.97466e-08 2.82857e-08)
(-3.18681e-09 -8.04749e-08 2.83832e-08)
(-3.73432e-08 -8.55154e-08 2.80635e-08)
(9.32303e-09 7.67937e-09 1.21751e-09)
(-4.62762e-10 -1.1454e-09 1.32878e-09)
(4.79368e-10 -1.32323e-09 1.33815e-09)
(-8.58941e-09 6.78516e-09 1.24517e-09)
(1.54281e-08 -3.20956e-09 4.03423e-09)
(8.8779e-10 -8.56566e-09 4.23222e-09)
(-1.22232e-10 -8.95928e-09 4.25583e-09)
(-1.37252e-08 -4.52315e-09 4.10339e-09)
(1.61681e-08 -1.45658e-08 7.08626e-09)
(1.35226e-09 -1.70274e-08 7.29436e-09)
(4.41638e-10 -1.75634e-08 7.32861e-09)
(-1.34564e-08 -1.62036e-08 7.1872e-09)
(1.59552e-08 -2.37894e-08 1.01094e-08)
(1.41493e-09 -2.5709e-08 1.02973e-08)
(1.57872e-09 -2.635e-08 1.03399e-08)
(-1.20426e-08 -2.57213e-08 1.02358e-08)
(1.70835e-08 -3.1238e-08 1.27955e-08)
(1.99222e-09 -3.42345e-08 1.29605e-08)
(2.36422e-09 -3.49685e-08 1.30097e-08)
(-1.17771e-08 -3.34427e-08 1.29423e-08)
(2.17118e-08 -3.78694e-08 1.48609e-08)
(3.96184e-09 -4.2399e-08 1.50163e-08)
(1.90536e-09 -4.32241e-08 1.50705e-08)
(-1.48532e-08 -4.03331e-08 1.50232e-08)
(3.23621e-08 -4.82151e-08 1.6106e-08)
(7.9795e-09 -5.19565e-08 1.62727e-08)
(-5.07488e-10 -5.28535e-08 1.63299e-08)
(-2.38504e-08 -5.08821e-08 1.62777e-08)
(4.76043e-08 -8.2892e-08 1.64745e-08)
(1.24064e-08 -7.94685e-08 1.66754e-08)
(-3.38282e-09 -8.01929e-08 1.67328e-08)
(-3.74329e-08 -8.51184e-08 1.6648e-08)
(9.25977e-09 7.60411e-09 4.15444e-10)
(-4.52634e-10 -1.15813e-09 4.46342e-10)
(4.65085e-10 -1.33445e-09 4.494e-10)
(-8.53486e-09 6.71757e-09 4.24426e-10)
(1.5357e-08 -3.22756e-09 1.35585e-09)
(9.02689e-10 -8.55792e-09 1.4094e-09)
(-1.54314e-10 -8.94797e-09 1.41712e-09)
(-1.36772e-08 -4.52826e-09 1.37838e-09)
(1.61389e-08 -1.45273e-08 2.36285e-09)
(1.37924e-09 -1.69935e-08 2.41737e-09)
(3.83103e-10 -1.75251e-08 2.4286e-09)
(-1.34641e-08 -1.61507e-08 2.39585e-09)
(1.59753e-08 -2.37233e-08 3.35593e-09)
(1.45624e-09 -2.56568e-08 3.40318e-09)
(1.49248e-09 -2.62933e-08 3.41718e-09)
(-1.21123e-08 -2.56413e-08 3.3974e-09)
(1.71399e-08 -3.11674e-08 4.23722e-09)
(2.04293e-09 -3.41728e-08 4.27713e-09)
(2.25727e-09 -3.49028e-08 4.29334e-09)
(-1.18938e-08 -3.33599e-08 4.28554e-09)
(2.17769e-08 -3.78166e-08 4.91534e-09)
(4.01142e-09 -4.23455e-08 4.95278e-09)
(1.79058e-09 -4.31673e-08 4.97067e-09)
(-1.49869e-08 -4.02704e-08 4.96887e-09)
(3.2396e-08 -4.81821e-08 5.3278e-09)
(8.01469e-09 -5.19251e-08 5.36981e-09)
(-6.14853e-10 -5.28194e-08 5.38871e-09)
(-2.39589e-08 -5.08414e-08 5.38458e-09)
(4.75788e-08 -8.2744e-08 5.45898e-09)
(1.24256e-08 -7.93588e-08 5.51209e-09)
(-3.47965e-09 -8.0081e-08 5.53108e-09)
(-3.74864e-08 -8.49642e-08 5.51636e-09)
)
;

boundaryField
{
    interface
    {
        type            solidTraction;
        traction        nonuniform List<vector> 
192
(
(40.7858 -0.359058 -2.72458)
(42.4981 -0.338526 -4.41101)
(44.1164 -0.0725489 -5.02686)
(45.1651 0.36236 -5.20008)
(45.5049 0.745174 -5.16016)
(46.4387 1.42172 -5.032)
(44.8868 1.93765 -4.65118)
(48.4814 4.38376 -4.35724)
(39.7501 -0.263043 -1.33597)
(40.5263 -0.263487 -2.31753)
(41.5062 -0.0297879 -2.6095)
(42.2106 0.411974 -2.64037)
(42.2866 0.815408 -2.5507)
(43.1015 1.56034 -2.41414)
(41.2631 2.13103 -2.16853)
(44.9472 4.69674 -1.97401)
(42.3029 -0.228258 -1.04781)
(42.9834 -0.226797 -1.79424)
(43.9484 0.000539634 -2.01165)
(44.6657 0.462944 -2.02922)
(44.6639 0.902861 -1.95503)
(45.3986 1.72842 -1.84482)
(43.1197 2.38106 -1.66797)
(46.564 5.11594 -1.52047)
(42.5225 -0.175686 -0.636293)
(43.0192 -0.152613 -1.15305)
(43.7816 0.0763052 -1.29675)
(44.3817 0.542496 -1.29547)
(44.259 0.998155 -1.23094)
(44.9136 1.85794 -1.14484)
(42.4755 2.54697 -1.03304)
(45.8462 5.32193 -0.945355)
(43.3011 -0.150541 -0.463575)
(43.7445 -0.106178 -0.840422)
(44.4162 0.131969 -0.946229)
(44.9643 0.606268 -0.945183)
(44.7646 1.07871 -0.897745)
(45.3437 1.96781 -0.833938)
(42.7343 2.68999 -0.75613)
(45.9597 5.50603 -0.693457)
(43.5114 -0.130998 -0.281527)
(43.9067 -0.0686752 -0.528434)
(44.4995 0.17795 -0.598486)
(44.9966 0.657195 -0.596469)
(44.7397 1.13893 -0.56377)
(45.2714 2.04267 -0.520896)
(42.5805 2.78203 -0.473213)
(45.7476 5.61828 -0.436562)
(43.768 -0.121564 -0.164704)
(44.1463 -0.0469883 -0.308912)
(44.6977 0.206948 -0.350232)
(45.1666 0.690566 -0.349316)
(44.8738 1.17937 -0.330553)
(45.3701 2.09323 -0.305367)
(42.6157 2.84467 -0.27857)
(45.7289 5.69616 -0.256777)
(43.8322 -0.115761 -0.0485729)
(44.1984 -0.0348805 -0.0946009)
(44.7268 0.222324 -0.108001)
(45.18 0.707284 -0.107553)
(44.8714 1.19891 -0.101458)
(45.3509 2.11643 -0.0932624)
(42.5771 2.87338 -0.0853473)
(45.6629 5.73115 -0.0785666)
(3.80935 0.909269 14.6576)
(6.48486 1.10309 10.548)
(7.58036 0.943991 6.59508)
(7.98411 0.699469 4.97899)
(8.11897 0.591997 4.60213)
(8.22874 0.62955 5.24897)
(8.37817 0.767775 7.11615)
(9.20532 0.977649 8.6874)
(2.25644 0.544069 18.6191)
(4.32941 0.840122 17.7037)
(5.11029 0.745438 16.3563)
(5.364 0.471622 15.8814)
(5.44984 0.2862 15.7559)
(5.58107 0.186092 16.0213)
(5.89759 0.204325 16.63)
(6.98733 0.283624 16.9852)
(2.24644 0.39837 15.8004)
(4.35632 0.680426 15.1063)
(5.18177 0.609221 13.8441)
(5.45854 0.313165 13.358)
(5.54218 0.0756625 13.2521)
(5.64377 -0.117849 13.5096)
(5.90424 -0.221105 14.1872)
(6.95068 -0.234202 14.9842)
(2.47033 0.327418 16.1063)
(4.96292 0.583553 15.7038)
(6.00745 0.509887 14.607)
(6.37608 0.192597 14.2393)
(6.48383 -0.067926 14.234)
(6.61233 -0.30476 14.4734)
(6.82851 -0.477644 14.974)
(7.92633 -0.638637 15.6111)
(-7.92582 0.778677 0.687094)
(-5.25386 0.994592 1.37333)
(-2.54602 0.714036 1.60003)
(-1.17533 0.183471 1.70553)
(-0.704642 -0.103909 1.78164)
(0.717548 -0.503026 2.01612)
(0.153042 -0.471678 2.20877)
(8.69278 -2.65675 2.79538)
(-12.118 0.319645 -0.298229)
(-11.5906 0.450929 -0.267111)
(-10.7568 0.314156 -0.338822)
(-10.1674 0.00278852 -0.351387)
(-9.97417 -0.0843891 -0.293236)
(-8.44817 -0.319765 -0.0669323)
(-8.5082 -0.0618744 0.2186)
(0.190735 -2.09391 0.666251)
(-12.399 0.182408 -0.157012)
(-12.0211 0.240148 -0.0347983)
(-11.3752 0.166017 0.0117711)
(-10.7455 -0.031425 0.065893)
(-10.4607 0.000945286 0.14985)
(-8.57339 -0.141149 0.333736)
(-8.31575 0.230269 0.526723)
(0.960534 -1.89615 0.780401)
(-13.7593 0.0899042 -0.179481)
(-13.6043 0.0950305 -0.0722504)
(-13.271 0.064174 -0.00848516)
(-12.7145 -0.0394332 0.0509413)
(-12.3965 0.093962 0.12288)
(-10.2603 0.0373952 0.25607)
(-9.66795 0.484694 0.384278)
(-0.089752 -1.65524 0.537248)
(-14.0456 0.0747631 -0.0624795)
(-13.8847 0.0620873 0.0668268)
(-13.5817 0.0510172 0.153677)
(-12.9759 -0.00996024 0.216792)
(-12.581 0.173054 0.274351)
(-10.2847 0.153306 0.357978)
(-9.55813 0.620858 0.422241)
(0.178321 -1.56943 0.491316)
(-14.4765 0.0699061 -0.0421222)
(-14.3215 0.0520033 0.0559149)
(-14.041 0.0541333 0.12645)
(-13.4056 0.0192804 0.174028)
(-12.9616 0.233824 0.213864)
(-10.5578 0.237321 0.265886)
(-9.72925 0.713475 0.30201)
(0.124437 -1.50437 0.338814)
(-14.5976 0.0734317 -0.00839855)
(-14.4271 0.0559551 0.0571037)
(-14.1349 0.0648923 0.10361)
(-13.4672 0.041196 0.133412)
(-12.9892 0.270007 0.156685)
(-10.5261 0.282408 0.183857)
(-9.6554 0.759701 0.200461)
(0.261444 -1.48045 0.214941)
(-14.7042 0.0742889 -0.00649159)
(-14.5315 0.0576473 0.0142034)
(-14.236 0.0703125 0.0296523)
(-13.5552 0.0521451 0.0395002)
(-13.0595 0.287803 0.0473444)
(-10.5675 0.304939 0.056243)
(-9.66781 0.782875 0.0621996)
(0.277316 -1.46657 0.0669536)
(9.26773 -8.12613 -0.837005)
(8.47437 -6.27461 -0.623886)
(8.38271 -3.81104 -0.426708)
(8.36464 -2.29377 -0.279358)
(8.42088 -1.11511 -0.198379)
(8.45641 -0.289929 -0.122451)
(8.48998 0.233697 -0.0730162)
(8.50422 0.485052 -0.0221003)
(7.01758 -16.5348 -0.114455)
(5.93093 -16.0466 -0.0269133)
(5.62317 -15.0747 0.0646254)
(5.50654 -14.3797 0.0843826)
(5.47993 -13.7812 0.0782376)
(5.46305 -13.3471 0.0625888)
(5.4619 -13.062 0.0382946)
(5.46 -12.9131 0.0140341)
(6.9793 -14.5601 0.419523)
(5.92159 -13.627 0.41824)
(5.6615 -12.5925 0.391828)
(5.57878 -11.9075 0.320118)
(5.57004 -11.2987 0.251936)
(5.56355 -10.8957 0.176952)
(5.56741 -10.617 0.105505)
(5.56706 -10.4893 0.0347811)
(7.9213 -15.2358 0.826762)
(6.80947 -14.5012 0.678908)
(6.58771 -13.7423 0.575778)
(6.48396 -13.2098 0.452382)
(6.47736 -12.6875 0.351856)
(6.46702 -12.3654 0.242948)
(6.47194 -12.1283 0.145708)
(6.47173 -12.0213 0.0474787)
)
;
        pressure        uniform 0;
        secondOrder     false;
        setEffectiveTraction false;
        relaxationFactor 1;
        value           nonuniform List<vector> 
192
(
(8.5975e-08 5.74059e-08 2.77514e-08)
(9.98027e-08 3.5697e-08 5.41481e-08)
(1.03469e-07 1.59388e-08 6.92265e-08)
(1.04724e-07 1.84603e-09 8.11813e-08)
(1.07695e-07 -9.99152e-09 9.30516e-08)
(1.14956e-07 -2.21842e-08 1.06569e-07)
(1.29024e-07 -4.20871e-08 1.2292e-07)
(1.5076e-07 -9.85086e-08 1.39479e-07)
(6.76433e-08 3.05339e-08 2.46688e-09)
(7.76291e-08 1.55521e-08 1.77013e-08)
(7.97438e-08 1.89731e-09 3.17802e-08)
(8.02734e-08 -9.40248e-09 4.34059e-08)
(8.27615e-08 -1.98784e-08 5.42261e-08)
(8.98664e-08 -3.03214e-08 6.54501e-08)
(1.04725e-07 -4.54843e-08 7.65509e-08)
(1.29717e-07 -9.17529e-08 8.30319e-08)
(5.57888e-08 2.00791e-08 8.00977e-10)
(6.344e-08 4.94337e-09 1.10415e-08)
(6.49379e-08 -7.48854e-09 2.32979e-08)
(6.53289e-08 -1.72485e-08 3.45408e-08)
(6.7766e-08 -2.57806e-08 4.46836e-08)
(7.50301e-08 -3.33321e-08 5.39032e-08)
(9.0458e-08 -4.42234e-08 6.09998e-08)
(1.16281e-07 -8.51675e-08 6.29736e-08)
(4.95479e-08 1.62547e-08 1.79134e-09)
(5.58924e-08 6.21289e-10 9.83535e-09)
(5.72616e-08 -1.21521e-08 1.97376e-08)
(5.78275e-08 -2.14512e-08 2.94366e-08)
(6.04578e-08 -2.86088e-08 3.81143e-08)
(6.79371e-08 -3.41031e-08 4.52597e-08)
(8.357e-08 -4.27904e-08 4.98518e-08)
(1.09343e-07 -8.14145e-08 5.05907e-08)
(4.64234e-08 1.47662e-08 2.10812e-09)
(5.22721e-08 -9.15361e-10 8.47781e-09)
(5.37251e-08 -1.3945e-08 1.59894e-08)
(5.45371e-08 -2.31521e-08 2.35093e-08)
(5.74008e-08 -2.965e-08 3.02171e-08)
(6.50374e-08 -3.4191e-08 3.546e-08)
(8.0666e-08 -4.20634e-08 3.85651e-08)
(1.06151e-07 -7.95801e-08 3.9092e-08)
(4.48061e-08 1.41421e-08 1.79443e-09)
(5.05329e-08 -1.38958e-09 6.42914e-09)
(5.21182e-08 -1.44195e-08 1.16655e-08)
(5.31321e-08 -2.35864e-08 1.69022e-08)
(5.6171e-08 -2.98637e-08 2.15596e-08)
(6.38923e-08 -3.41263e-08 2.51297e-08)
(7.94498e-08 -4.18067e-08 2.72129e-08)
(1.04661e-07 -7.87424e-08 2.76723e-08)
(4.39551e-08 1.38671e-08 1.16325e-09)
(4.96644e-08 -1.49831e-09 3.96986e-09)
(5.13503e-08 -1.44339e-08 7.05345e-09)
(5.24924e-08 -2.35605e-08 1.01155e-08)
(5.56347e-08 -2.97987e-08 1.28314e-08)
(6.33933e-08 -3.40494e-08 1.49053e-08)
(7.88838e-08 -4.17415e-08 1.61274e-08)
(1.03906e-07 -7.83797e-08 1.64507e-08)
(4.35785e-08 1.37583e-08 3.99621e-10)
(4.92861e-08 -1.50778e-09 1.33807e-09)
(5.10209e-08 -1.43727e-08 2.35554e-09)
(5.22226e-08 -2.3473e-08 3.36095e-09)
(5.54108e-08 -2.97168e-08 4.25132e-09)
(6.31823e-08 -3.40022e-08 4.93159e-09)
(7.8636e-08 -4.17311e-08 5.33626e-09)
(1.03564e-07 -7.82451e-08 5.45259e-09)
(2.80326e-08 6.12885e-08 9.00568e-08)
(4.60845e-08 4.15158e-08 1.14e-07)
(4.86936e-08 2.22706e-08 1.30537e-07)
(4.81214e-08 7.71815e-09 1.44379e-07)
(4.88587e-08 -4.98175e-09 1.58452e-07)
(5.32313e-08 -1.84677e-08 1.74701e-07)
(6.36554e-08 -4.02315e-08 1.94502e-07)
(7.87256e-08 -9.84893e-08 2.17729e-07)
(2.85433e-09 4.33602e-08 8.10031e-08)
(8.24631e-09 3.12555e-08 1.04286e-07)
(9.66646e-09 1.81266e-08 1.19683e-07)
(9.58833e-09 5.3279e-09 1.32537e-07)
(9.95893e-09 -8.11138e-09 1.45787e-07)
(1.18412e-08 -2.28788e-08 1.61449e-07)
(1.5954e-08 -4.33596e-08 1.81669e-07)
(2.06968e-08 -9.47005e-08 2.08395e-07)
(-2.7584e-09 4.29763e-08 8.00535e-08)
(-6.96263e-09 3.07484e-08 1.03401e-07)
(-6.90664e-09 1.75212e-08 1.18837e-07)
(-5.26258e-09 4.6365e-09 1.31715e-07)
(-3.99401e-09 -8.88303e-09 1.44978e-07)
(-4.16922e-09 -2.37302e-08 1.60641e-07)
(-6.55004e-09 -4.42725e-08 1.80853e-07)
(-9.67836e-09 -9.54244e-08 2.07585e-07)
(-2.70448e-08 5.97653e-08 8.74093e-08)
(-4.36125e-08 3.98145e-08 1.11572e-07)
(-4.47605e-08 2.03792e-08 1.28205e-07)
(-4.26294e-08 5.60099e-09 1.42115e-07)
(-4.17151e-08 -7.3193e-09 1.56228e-07)
(-4.43725e-08 -2.10171e-08 1.72486e-07)
(-5.30635e-08 -4.29462e-08 1.92273e-07)
(-6.64525e-08 -1.00732e-07 2.15562e-07)
(-8.07749e-08 5.50898e-08 2.75337e-08)
(-9.3106e-08 3.3211e-08 5.40933e-08)
(-9.52814e-08 1.32368e-08 6.94118e-08)
(-9.49286e-08 -1.11288e-09 8.15467e-08)
(-9.6193e-08 -1.31951e-08 9.35335e-08)
(-1.01686e-07 -2.56084e-08 1.07119e-07)
(-1.1398e-07 -4.56553e-08 1.23494e-07)
(-1.33955e-07 -1.01569e-07 1.40032e-07)
(-6.25131e-08 2.8565e-08 2.69054e-09)
(-7.11974e-08 1.32537e-08 1.81749e-08)
(-7.19408e-08 -7.24902e-10 3.2464e-08)
(-7.09378e-08 -1.23266e-08 4.42566e-08)
(-7.17535e-08 -2.30688e-08 5.51918e-08)
(-7.7087e-08 -3.37481e-08 6.6483e-08)
(-9.01437e-08 -4.90734e-08 7.76082e-08)
(-1.13359e-07 -9.48541e-08 8.40824e-08)
(-5.08757e-08 1.82921e-08 9.94551e-10)
(-5.73182e-08 2.81444e-09 1.14682e-08)
(-5.7528e-08 -9.98669e-09 2.38929e-08)
(-5.64502e-08 -2.00906e-08 3.52688e-08)
(-5.72503e-08 -2.8922e-08 4.55095e-08)
(-6.27459e-08 -3.67366e-08 5.47911e-08)
(-7.63456e-08 -4.78112e-08 6.1916e-08)
(-1.00356e-07 -8.82723e-08 6.38929e-08)
(-4.4822e-08 1.45823e-08 1.92984e-09)
(-5.00497e-08 -1.38372e-09 1.01614e-08)
(-5.02012e-08 -1.45385e-08 2.01988e-08)
(-4.9353e-08 -2.42056e-08 3.0003e-08)
(-5.03804e-08 -3.1689e-08 3.87608e-08)
(-5.6102e-08 -3.74705e-08 4.59611e-08)
(-6.9892e-08 -4.63582e-08 5.05829e-08)
(-9.38244e-08 -8.45042e-08 5.13287e-08)
(-4.18278e-08 1.31748e-08 2.20312e-09)
(-4.66326e-08 -2.8292e-09 8.71061e-09)
(-4.6926e-08 -1.6243e-08 1.63256e-08)
(-4.63693e-08 -2.58306e-08 2.39269e-08)
(-4.76609e-08 -3.26719e-08 3.06982e-08)
(-5.35543e-08 -3.75177e-08 3.59866e-08)
(-6.73382e-08 -4.56042e-08 3.91189e-08)
(-9.09697e-08 -8.26491e-08 3.96539e-08)
(-4.02923e-08 1.26055e-08 1.85598e-09)
(-4.50254e-08 -3.23882e-09 6.58313e-09)
(-4.54939e-08 -1.66524e-08 1.18916e-08)
(-4.51736e-08 -2.62065e-08 1.71867e-08)
(-4.66657e-08 -3.28381e-08 2.18903e-08)
(-5.26587e-08 -3.74175e-08 2.54949e-08)
(-6.63755e-08 -4.53217e-08 2.75997e-08)
(-8.97298e-08 -8.17912e-08 2.80662e-08)
(-3.94888e-08 1.23638e-08 1.19786e-09)
(-4.42348e-08 -3.3064e-09 4.0573e-09)
(-4.48313e-08 -1.66242e-08 7.1832e-09)
(-4.46627e-08 -2.61412e-08 1.02802e-08)
(-4.62761e-08 -3.274e-08 1.30244e-08)
(-5.2318e-08 -3.73147e-08 1.51198e-08)
(-6.5973e-08 -4.52371e-08 1.63556e-08)
(-8.91384e-08 -8.14129e-08 1.66839e-08)
(-3.9134e-08 1.22706e-08 4.10788e-10)
(-4.38924e-08 -3.29595e-09 1.36639e-09)
(-4.45513e-08 -1.6542e-08 2.39778e-09)
(-4.4454e-08 -2.60339e-08 3.41483e-09)
(-4.61226e-08 -3.26412e-08 4.31473e-09)
(-5.21837e-08 -3.72541e-08 5.00229e-09)
(-6.5805e-08 -4.52164e-08 5.41171e-09)
(-8.88772e-08 -8.12699e-08 5.52976e-09)
(7.90335e-08 -1.77126e-07 1.44047e-07)
(6.46223e-08 -1.63733e-07 8.5769e-08)
(5.47733e-08 -1.53769e-07 6.39577e-08)
(5.05987e-08 -1.47451e-07 5.06129e-08)
(4.93331e-08 -1.43765e-07 3.88371e-08)
(4.90602e-08 -1.417e-07 2.74585e-08)
(4.90059e-08 -1.40601e-07 1.63412e-08)
(4.89833e-08 -1.40124e-07 5.42197e-09)
(2.10013e-08 -1.68389e-07 1.39671e-07)
(1.69054e-08 -1.51525e-07 8.83592e-08)
(1.33985e-08 -1.41174e-07 6.79332e-08)
(1.19328e-08 -1.35425e-07 5.3326e-08)
(1.16252e-08 -1.32343e-07 4.02154e-08)
(1.1667e-08 -1.30659e-07 2.80596e-08)
(1.17326e-08 -1.29749e-07 1.65784e-08)
(1.17608e-08 -1.29344e-07 5.48467e-09)
(-9.35983e-09 -1.68192e-07 1.39778e-07)
(-5.59557e-09 -1.51324e-07 8.86572e-08)
(-2.51851e-09 -1.40983e-07 6.81805e-08)
(-1.44738e-09 -1.35238e-07 5.35138e-08)
(-1.46087e-09 -1.32154e-07 4.03535e-08)
(-1.7437e-09 -1.30467e-07 2.81548e-08)
(-1.96942e-09 -1.29554e-07 1.66343e-08)
(-2.07738e-09 -1.29147e-07 5.50313e-09)
(-6.61295e-08 -1.76807e-07 1.44426e-07)
(-5.21133e-08 -1.63354e-07 8.66219e-08)
(-4.26901e-08 -1.53408e-07 6.46705e-08)
(-3.89095e-08 -1.47094e-07 5.11658e-08)
(-3.79707e-08 -1.434e-07 3.92504e-08)
(-3.79441e-08 -1.41323e-07 2.77455e-08)
(-3.80532e-08 -1.40215e-07 1.65103e-08)
(-3.81117e-08 -1.39733e-07 5.47781e-09)
)
;
        gradient        nonuniform List<vector> 
192
(
(4.67482e-06 1.45178e-06 -1.87617e-07)
(4.38025e-06 4.00721e-07 -3.0995e-07)
(4.47145e-06 4.08662e-08 -3.34423e-07)
(4.61052e-06 7.49192e-09 -3.36873e-07)
(4.77959e-06 1.06967e-07 -3.37418e-07)
(5.00119e-06 2.98765e-07 -3.36802e-07)
(5.29088e-06 5.06355e-07 -3.32292e-07)
(5.84019e-06 3.48501e-07 -3.23149e-07)
(3.87975e-06 1.01542e-06 -2.82729e-07)
(3.68034e-06 2.78934e-07 -4.58433e-07)
(3.73204e-06 1.3693e-08 -4.93614e-07)
(3.8371e-06 -3.86839e-09 -5.00863e-07)
(3.98896e-06 9.75192e-08 -5.07014e-07)
(4.21452e-06 2.9826e-07 -5.10683e-07)
(4.55304e-06 5.27116e-07 -5.03309e-07)
(5.29424e-06 3.57937e-07 -4.82064e-07)
(3.39078e-06 7.10667e-07 -1.66571e-07)
(3.30484e-06 1.89855e-07 -2.77596e-07)
(3.36327e-06 -1.55842e-09 -2.96342e-07)
(3.46219e-06 -5.90787e-09 -2.94522e-07)
(3.61318e-06 9.71451e-08 -2.92114e-07)
(3.84976e-06 3.02469e-07 -2.89083e-07)
(4.21876e-06 5.34974e-07 -2.84565e-07)
(5.01009e-06 3.63423e-07 -2.83681e-07)
(3.09834e-06 5.71294e-07 -7.12571e-08)
(3.05169e-06 1.49177e-07 -1.19792e-07)
(3.11873e-06 -3.22855e-09 -1.24051e-07)
(3.21942e-06 3.60875e-10 -1.16889e-07)
(3.37301e-06 1.02958e-07 -1.09824e-07)
(3.61641e-06 3.05809e-07 -1.05073e-07)
(3.99885e-06 5.32519e-07 -1.05551e-07)
(4.79891e-06 3.65204e-07 -1.13235e-07)
(2.92654e-06 5.19642e-07 -2.68429e-08)
(2.89052e-06 1.37071e-07 -4.26502e-08)
(2.96238e-06 1.34844e-09 -4.01636e-08)
(3.06634e-06 8.3205e-09 -3.26959e-08)
(3.2232e-06 1.08961e-07 -2.59946e-08)
(3.47057e-06 3.06742e-07 -2.267e-08)
(3.85755e-06 5.26813e-07 -2.54907e-08)
(4.65252e-06 3.64579e-07 -3.36549e-08)
(2.82635e-06 5.01819e-07 -1.0376e-08)
(2.79349e-06 1.35864e-07 -1.4256e-08)
(2.86786e-06 6.72841e-09 -1.05516e-08)
(2.97452e-06 1.45308e-08 -5.06105e-09)
(3.134e-06 1.12985e-07 -5.55305e-10)
(3.38346e-06 3.06313e-07 1.12506e-09)
(3.77116e-06 5.21535e-07 -1.69814e-09)
(4.55896e-06 3.62793e-07 -7.8028e-09)
(2.77056e-06 4.95021e-07 -4.34107e-09)
(2.7389e-06 1.369e-07 -5.14953e-09)
(2.81458e-06 1.05453e-08 -2.6251e-09)
(2.92298e-06 1.83174e-08 4.90474e-10)
(3.0841e-06 1.15148e-07 2.87399e-09)
(3.33452e-06 3.056e-07 3.55288e-09)
(3.72174e-06 5.17886e-07 1.70899e-09)
(4.50413e-06 3.60985e-07 -1.90789e-09)
(2.7455e-06 4.92335e-07 -1.26584e-09)
(2.71432e-06 1.37582e-07 -1.42282e-09)
(2.79056e-06 1.23695e-08 -5.84787e-10)
(2.89978e-06 2.00303e-08 4.01041e-10)
(3.06167e-06 1.16047e-07 1.12793e-09)
(3.31243e-06 3.05149e-07 1.3003e-09)
(3.6992e-06 5.16075e-07 6.76936e-10)
(4.47883e-06 3.59913e-07 -5.11172e-10)
(3.94321e-08 1.76239e-06 4.79682e-06)
(8.27986e-08 8.66218e-07 4.47817e-06)
(8.9409e-08 5.47406e-07 4.57045e-06)
(8.22767e-08 4.77261e-07 4.71892e-06)
(7.26729e-08 5.07749e-07 4.89459e-06)
(6.32432e-08 5.96088e-07 5.11378e-06)
(6.14215e-08 6.54801e-07 5.39427e-06)
(7.74703e-08 3.50049e-07 5.93681e-06)
(-5.62618e-08 1.6357e-06 4.29023e-06)
(-7.33654e-08 8.42739e-07 3.9901e-06)
(-7.76516e-08 5.334e-07 4.01369e-06)
(-8.50268e-08 4.59018e-07 4.11661e-06)
(-9.42893e-08 4.88743e-07 4.26596e-06)
(-1.03061e-07 5.87391e-07 4.47462e-06)
(-1.02512e-07 6.75834e-07 4.78701e-06)
(-8.20729e-08 3.64075e-07 5.52697e-06)
(5.02682e-08 1.63267e-06 4.22172e-06)
(7.03801e-08 8.44785e-07 3.924e-06)
(7.97378e-08 5.35727e-07 3.94526e-06)
(9.08798e-08 4.60614e-07 4.04622e-06)
(1.02544e-07 4.89705e-07 4.19415e-06)
(1.12718e-07 5.8785e-07 4.4015e-06)
(1.1269e-07 6.75758e-07 4.71271e-06)
(9.17197e-08 3.64037e-07 5.45393e-06)
(-4.20035e-08 1.75626e-06 4.60177e-06)
(-8.17415e-08 8.72167e-07 4.29172e-06)
(-8.37703e-08 5.53883e-07 4.37681e-06)
(-7.31834e-08 4.81816e-07 4.51963e-06)
(-6.13218e-08 5.10574e-07 4.69134e-06)
(-5.05791e-08 5.97526e-07 4.90706e-06)
(-4.82623e-08 6.54811e-07 5.18482e-06)
(-6.46206e-08 3.50011e-07 5.73382e-06)
(-4.34042e-06 1.38222e-06 -1.88279e-07)
(-4.04122e-06 3.43886e-07 -3.06581e-07)
(-4.12544e-06 -1.75138e-08 -3.26672e-07)
(-4.25712e-06 -5.52937e-08 -3.25817e-07)
(-4.41955e-06 4.05117e-08 -3.24194e-07)
(-4.63563e-06 2.30224e-07 -3.22357e-07)
(-4.92156e-06 4.38084e-07 -3.1744e-07)
(-5.46479e-06 2.83046e-07 -3.08586e-07)
(-3.54861e-06 9.49198e-07 -2.80513e-07)
(-3.35145e-06 2.26358e-07 -4.51868e-07)
(-3.39742e-06 -4.10376e-08 -4.83256e-07)
(-3.49485e-06 -6.40446e-08 -4.87587e-07)
(-3.63861e-06 3.26657e-08 -4.9175e-07)
(-3.85611e-06 2.30445e-07 -4.94298e-07)
(-4.18804e-06 4.5887e-07 -4.86554e-07)
(-4.92241e-06 2.92055e-07 -4.65463e-07)
(-3.07051e-06 6.49838e-07 -1.63471e-07)
(-2.98566e-06 1.41133e-07 -2.704e-07)
(-3.03817e-06 -5.32382e-08 -2.8597e-07)
(-3.12918e-06 -6.37912e-08 -2.81652e-07)
(-3.27112e-06 3.37984e-08 -2.77441e-07)
(-3.49764e-06 2.35419e-07 -2.73304e-07)
(-3.85706e-06 4.66918e-07 -2.683e-07)
(-4.63877e-06 2.97509e-07 -2.67323e-07)
(-2.7872e-06 5.15326e-07 -6.87601e-08)
(-2.74123e-06 1.03851e-07 -1.13861e-07)
(-2.80214e-06 -5.22941e-08 -1.15458e-07)
(-2.89468e-06 -5.55179e-08 -1.06174e-07)
(-3.03854e-06 4.10132e-08 -9.75164e-08)
(-3.27054e-06 2.39586e-07 -9.17038e-08)
(-3.64113e-06 4.64852e-07 -9.15911e-08)
(-4.42895e-06 2.99551e-07 -9.89755e-08)
(-2.62171e-06 4.67219e-07 -2.51581e-08)
(-2.58625e-06 9.44313e-08 -3.84514e-08)
(-2.65184e-06 -4.55542e-08 -3.38849e-08)
(-2.7474e-06 -4.58514e-08 -2.46975e-08)
(-2.89404e-06 4.82676e-08 -1.6662e-08)
(-3.12914e-06 2.41344e-07 -1.23906e-08)
(-3.50285e-06 4.59648e-07 -1.46054e-08)
(-4.28381e-06 2.99316e-07 -2.23794e-08)
(-2.52545e-06 4.51716e-07 -9.3408e-09)
(-2.4931e-06 9.51211e-08 -1.15848e-08)
(-2.5611e-06 -3.85423e-08 -6.42964e-09)
(-2.65913e-06 -3.82958e-08 3.19155e-10)
(-2.80802e-06 5.33201e-08 5.83665e-09)
(-3.04466e-06 2.41643e-07 8.26725e-09)
(-3.41825e-06 4.54865e-07 5.96123e-09)
(-4.19093e-06 2.97932e-07 2.20929e-10)
(-2.47195e-06 4.46293e-07 -3.78524e-09)
(-2.44077e-06 9.73401e-08 -3.68758e-09)
(-2.50999e-06 -3.36516e-08 -3.19995e-10)
(-2.60961e-06 -3.35856e-08 3.55666e-09)
(-2.75992e-06 5.62158e-08 6.57097e-09)