/*--------------------------------*- C++ -*----------------------------------*\
| =========                 |                                                 |
| \\      /  F ield         | OpenFOAM: The Open Source CFD Toolbox           |
|  \\    /   O peration     | Version:  v1912                                 |
|   \\  /    A nd           | Website:  www.openfoam.com                      |
|    \\/     M anipulation  |                                                 |
\*---------------------------------------------------------------------------*/
FoamFile
{
    version     2.0;
    format      ascii;
    class       volVectorField;
    location    "0.74/solid";
    object      heatFlux;
}
// * * * * * * * * * * * * * * * * * * * * * * * * * * * * * * * * * * * * * //

dimensions      [1 0 -3 0 0 0 0];


internalField   nonuniform List<vector> 
256
(
(-65455.3 70674.8 -69071.8)
(-13269.8 41410.8 -67656.5)
(12025 40971.6 -66431.9)
(59119.9 68365.7 -65445.3)
(-62613.1 10134.6 -66559.3)
(-16433.4 6486.77 -67974.3)
(14929.9 6426.28 -66698.2)
(55963.8 9873.4 -62866)
(-63761 2373.88 -67817.8)
(-16978.1 1447.93 -69551.4)
(15411.6 1427.97 -68222.2)
(56972.2 2289.69 -63991.7)
(-65611.6 2308.32 -69694.5)
(-17379.3 1356.26 -71564.9)
(15771.7 1343.98 -70198.9)
(58680.7 2248.62 -65770.5)
(-68226.4 3886.99 -72312.6)
(-17942.5 2490.98 -74461.3)
(16304 2481.02 -73069.1)
(61163.7 3839.99 -68317.3)
(-71972.2 8997.83 -76083.1)
(-18785.3 7120.62 -78902.3)
(17120.7 7092.43 -77485.4)
(64791.3 8915.72 -72020.8)
(-75912.8 28652.3 -80178.7)
(-19847.9 27809.9 -84423.4)
(18099.1 27594.2 -82978.5)
(68599.2 28068 -76044.6)
(-70868.1 75683.5 -75591.6)
(-19843.5 81619.1 -81546.4)
(17378.8 80223 -80163.3)
(63194.7 71715.5 -71669.9)
(-62233.7 37792.8 -18048.7)
(-11908.4 10834.1 -15633.7)
(11227.8 10723.8 -15471.6)
(56230.6 36420.9 -17575.1)
(-62476.4 5952.88 -22757.6)
(-15160.6 2152.14 -20232.7)
(14359 2137.89 -20027.9)
(56263.7 5817.13 -22164.8)
(-63965.5 1382.24 -23509.5)
(-15723.3 423.206 -20982.9)
(14892.8 417.418 -20767.3)
(57619.8 1332.94 -22889.2)
(-65961.3 1344.04 -23983.2)
(-16125.4 353.695 -21449.8)
(15268.8 348.372 -21229.2)
(59467.6 1297.94 -23352.5)
(-68873.2 2469.18 -24634.9)
(-16719 916.7 -22128.7)
(15837 910.453 -21905.8)
(62226.9 2423.48 -24003.7)
(-73334 6986.7 -25634.4)
(-17684.1 4633.34 -23266)
(16775.5 4606.87 -23042.3)
(66532.3 6897.04 -25011.3)
(-78830 27150 -27119.2)
(-19098.8 25201.8 -25188.2)
(18100.7 24974.9 -24965.3)
(71853.7 26520.4 -26512.3)
(-75977.8 80319.2 -28614)
(-19859.2 84537.9 -27790.3)
(18094.2 83072.3 -27579.9)
(68609 76116.9 -28056.5)
(-55878.1 29868.5 -4490.45)
(-10692.7 5544.44 -2536.77)
(10083.7 5472.13 -2518.1)
(50078.1 28625.8 -4415.36)
(-56666.2 4673.8 -5926.94)
(-13703.7 1137.6 -3561)
(12997.8 1130.58 -3535.29)
(50678.1 4559.31 -5828.31)
(-58124.2 1148.26 -6131.5)
(-14235.9 230.765 -3714.61)
(13505.4 226.59 -3687.48)
(52002.7 1102.04 -6029.13)
(-60066.4 1182.94 -6216.01)
(-14625.4 210.498 -3780.43)
(13869 205.435 -3752.96)
(53791.4 1134.09 -6114.2)
(-62964 2235.8 -6318.36)
(-15213.4 674.843 -3873.32)
(14429 667.93 -3846.11)
(56518.5 2181.1 -6221.16)
(-67512.1 6513.54 -6489.55)
(-16193.2 4061.14 -4057.78)
(15375.3 4032.94 -4031.53)
(60874.8 6407.16 -6402.67)
(-73417.9 25672.7 -6961.2)
(-17694 23285.6 -4629.11)
(16775 23056.6 -4604.81)
(66550.3 25022.8 -6892.06)
(-72122.7 76299.3 -8952.61)
(-18809.3 79081.1 -7100.28)
(17112.5 77631.4 -7077.74)
(64818.1 72133.7 -8901.36)
(-51555.7 27375.4 -1614.22)
(-9936.01 4736.34 -417.908)
(9349.22 4670.43 -413.914)
(45903.4 26177.3 -1581.76)
(-52350.2 4311.82 -2071.44)
(-12768.9 974.303 -593.861)
(12091.7 968.507 -588.284)
(46519.6 4203.36 -2030.09)
(-53752.4 1093.17 -2129.37)
(-13279.3 203.778 -618.407)
(12578.3 199.745 -612.6)
(47789.2 1047.04 -2086.99)
(-55655.7 1157.19 -2145.52)
(-13662.4 194.985 -625.682)
(12935 189.741 -619.921)
(49535.6 1105.91 -2104.08)
(-58530.4 2195.65 -2160.97)
(-14246.8 639.351 -635.783)
(13489.2 631.889 -630.276)
(52227.3 2135.02 -2122.58)
(-63076.4 6343.86 -2200.06)
(-15226.1 3877.55 -671.013)
(14430.7 3848.18 -666.107)
(56556 6226.14 -2168.06)
(-69074.4 24686.9 -2428.19)
(-16742.5 22159.3 -909.82)
(15837.8 21928.7 -906.172)
(62281.5 24021.7 -2407.96)
(-68497.9 72641.6 -3811.53)
(-17984.3 74739.1 -2454.4)
(16293.1 73297.8 -2452.16)
(61225.5 68495.6 -3805.48)
(-48938.3 26182.8 -828.158)
(-9492.38 4532.67 -125.464)
(8919.81 4469.94 -123.286)
(43386.2 25014 -807.123)
(-49705 4158.65 -1039.98)
(-12220.5 937.102 -172.901)
(11561.5 931.891 -169.862)
(43980.3 4054.07 -1013.16)
(-51076.4 1074.17 -1063.52)
(-12719.1 198.944 -178.552)
(12036.8 194.953 -175.402)
(45220.3 1028.06 -1036.03)
(-52961.5 1151.34 -1067.74)
(-13099.7 193.123 -179.395)
(12390.6 187.76 -176.286)
(46945.4 1098.5 -1040.94)
(-55824.1 2181.27 -1071.6)
(-13682.7 629.512 -180.859)
(12942.2 621.744 -177.899)
(49616.1 2117.12 -1046.7)
(-60354.8 6246.31 -1091.27)
(-14659.3 3787.1 -194.243)
(13878.2 3757.05 -191.619)
(53913.3 6121.78 -1070.13)
(-66351 24061.2 -1232.66)
(-16172 21502.2 -323.531)
(15276.8 21270.5 -321.645)
(59610.9 23385.4 -1218.63)
(-66073.9 70209.9 -2112.07)
(-17450 72015.5 -1243.8)
(15761.4 70576.8 -1243.05)
(58824.4 66068.2 -2108.15)
(-47366.3 25507.2 -469.595)
(-9231.14 4437.97 -61.9218)
(8667.56 4377.28 -60.5669)
(41875.4 24357 -456.734)
(-48116.9 4076.46 -585.012)
(-11898.8 921.215 -83.8027)
(11251.5 916.391 -81.8953)
(42456.9 3974.45 -568.472)
(-49473.2 1065.4 -596.752)
(-12391.2 197.284 -86.1186)
(11720.8 193.321 -84.1369)
(43682.3 1019.26 -579.791)
(-51349.9 1149.11 -598.209)
(-12770.9 192.679 -86.2521)
(12073.4 187.244 -84.2948)
(45395.8 1095.25 -581.698)
(-54204.9 2172.12 -600.2)
(-13353.1 624.502 -86.7653)
(12623.4 616.556 -84.895)
(48052.9 2105.83 -584.859)
(-58718.3 6182.8 -613.459)
(-14326.5 3734.87 -94.1225)
(13554.8 3704.43 -92.4423)
(52322.7 6054.21 -600.328)
(-64687.6 23666.1 -702.896)
(-15831.4 21109.7 -168.761)
(14942.7 20877.3 -167.5)
(57978.1 22983.6 -693.923)
(-64535.1 68660 -1243.7)
(-17115.3 70338.1 -712.582)
(15428.7 68900.2 -712.059)
(57297 64518.4 -1241.12)
(-46465.2 25128.2 -245.775)
(-9083.35 4386.95 -31.4972)
(8524.99 4327.47 -30.7555)
(41009.1 23988.8 -238.907)
(-47207.6 4031.49 -305.133)
(-11717.4 912.905 -42.3878)
(11076.9 908.321 -41.3356)
(41584.5 3931.02 -296.239)
(-48556.5 1060.98 -310.887)
(-12206.5 196.495 -43.4847)
(11543.1 192.553 -42.3884)
(42802.5 1014.83 -301.753)
(-50428.9 1147.89 -311.475)
(-12585.8 192.476 -43.5132)
(11895.2 187.001 -42.4292)
(44509.6 1093.44 -302.581)
(-53278.7 2166.02 -312.699)
(-13167.4 621.642 -43.7809)
(12444.1 613.596 -42.743)
(47157.9 2098.49 -304.438)
(-57778.2 6143.62 -320.682)
(-14138.3 3705.1 -47.7042)
(13372 3674.44 -46.7655)
(51407.8 6012.72 -313.595)
(-63721.5 23431 -370.657)
(-15636.6 20883.7 -87.2074)
(14751.7 20650.9 -86.4851)
(57028.4 22744.6 -365.773)
(-63620.5 67733.8 -666.105)
(-16918.3 69354.8 -377.783)
(15232.9 67917.1 -377.468)
(56387.7 63591.2 -664.724)
(-46052.1 24956.3 -76.7521)
(-9016.12 4364.09 -9.75464)
(8460.15 4305.19 -9.51893)
(40611.8 23821.8 -74.5999)
(-46791 4011.35 -95.1482)
(-11635 909.227 -13.1018)
(10997.6 904.758 -12.7659)
(41184.5 3911.6 -92.349)
(-48136.8 1059.06 -96.8954)
(-12122.7 196.158 -13.4327)
(11462.5 192.228 -13.0821)
(42399.3 1012.92 -94.0171)
(-50007.2 1147.29 -97.0641)
(-12501.9 192.382 -13.4384)
(11814.4 186.89 -13.0916)
(44103.7 1092.56 -94.2611)
(-52854.3 2162.91 -97.4931)
(-13083.1 620.311 -13.5262)
(12362.7 612.22 -13.194)
(46747.4 2094.82 -94.8918)
(-57346.1 6124.84 -100.168)
(-14052.6 3691.45 -14.7688)
(13288.9 3660.69 -14.4678)
(50986.9 5992.87 -97.9385)
(-63274.7 23320.7 -116.271)
(-15547.3 20779.6 -27.1826)
(14664.1 20546.6 -26.949)
(56588.6 22632.5 -114.738)
(-63192.3 67298.2 -210.439)
(-16826.7 68897 -118.893)
(15141.8 67459.3 -118.788)
(55961.3 63155.1 -210.025)
)
;

boundaryField
{
    interface
    {
        type            calculated;
        value           nonuniform List<vector> 
192
(
(-104762 70674.8 -69071.8)
(-92846.4 10134.6 -66559.3)
(-94078.1 2373.88 -67817.8)
(-96991.5 2308.32 -69694.5)
(-101105 3886.99 -72312.6)
(-106921 8997.83 -76083.1)
(-112723 28652.3 -80178.7)
(-103028 75683.5 -75591.6)
(-100750 37792.8 -18048.7)
(-94753.1 5952.88 -22757.6)
(-96612 1382.24 -23509.5)
(-99804.9 1344.04 -23983.2)
(-104447 2469.18 -24634.9)
(-111445 6986.7 -25634.4)
(-119654 27150 -27119.2)
(-112836 80319.2 -28614)
(-90438 29868.5 -4490.45)
(-86002.6 4673.8 -5926.94)
(-87857.7 1148.26 -6131.5)
(-90968.1 1182.94 -6216.01)
(-95592.3 2235.8 -6318.36)
(-102738 6513.54 -6489.55)
(-111595 25672.7 -6961.2)
(-107184 76299.3 -8952.61)
(-83301.2 27375.4 -1614.22)
(-79232.7 4311.82 -2071.44)
(-81019.5 1093.17 -2129.37)
(-84064.8 1157.19 -2145.52)
(-88651.1 2195.65 -2160.97)
(-95793.6 6343.86 -2200.06)
(-104806 24686.9 -2428.19)
(-101581 72641.6 -3811.53)
(-78951 26182.8 -828.158)
(-75035.3 4158.65 -1039.98)
(-76784.1 1074.17 -1063.52)
(-79797.9 1151.34 -1067.74)
(-84363.1 2181.27 -1071.6)
(-91480.9 6246.31 -1091.27)
(-100498 24061.2 -1232.66)
(-97801.1 70209.9 -2112.07)
(-76327.8 25507.2 -469.595)
(-72500.1 4076.46 -585.012)
(-74231.1 1065.4 -596.752)
(-77229.8 1149.11 -598.209)
(-81781.5 2172.12 -600.2)
(-88871.5 6182.8 -613.459)
(-97851.2 23666.1 -702.896)
(-95392.2 68660 -1243.7)
(-74820.1 25128.2 -245.775)
(-71042.9 4031.49 -305.133)
(-72765.6 1060.98 -310.887)
(-75756.6 1147.89 -311.475)
(-80299 2166.02 -312.699)
(-87366.4 6143.62 -320.682)
(-96307.6 23431 -370.657)
(-93956.4 67733.8 -666.105)
(-74128 24956.3 -76.7521)
(-70373.8 4011.35 -95.1482)
(-72093 1059.06 -96.8954)
(-75080.5 1147.29 -97.0641)
(-79618.2 2162.91 -97.4931)
(-86673.1 6124.84 -100.168)
(-95592.2 23320.7 -116.271)
(-93283.2 67298.2 -210.439)
(-65455.3 70674.8 -108854)
(-62613.1 10134.6 -96644.3)
(-63761 2373.88 -97982.5)
(-65611.6 2308.32 -100931)
(-68226.4 3886.99 -105043)
(-71972.2 8997.83 -110873)
(-75912.8 28652.3 -116753)
(-70868.1 75683.5 -106885)
(-13269.8 41410.8 -108454)
(-16433.4 6486.77 -101654)
(-16978.1 1447.93 -103574)
(-17379.3 1356.26 -106786)
(-17942.5 2490.98 -111389)
(-18785.3 7120.62 -118312)
(-19847.9 27809.9 -126339)
(-19843.5 81619.1 -118384)
(12025 40971.6 -106297)
(14929.9 6426.28 -99467.8)
(15411.6 1427.97 -101301)
(15771.7 1343.98 -104448)
(16304 2481.02 -109003)
(17120.7 7092.43 -115880)
(18099.1 27594.2 -123851)
(17378.8 80223 -115997)
(59119.9 68365.7 -102437)
(55963.8 9873.4 -90296)
(56972.2 2289.69 -91417.4)
(58680.7 2248.62 -94191.5)
(61163.7 3839.99 -98167.2)
(64791.3 8915.72 -103859)
(68599.2 28068 -109584)
(63194.7 71715.5 -100062)
(93798.3 68365.7 -65445.3)
(81580.6 9873.4 -62866)
(82608.7 2289.69 -63991.7)
(85291 2248.62 -65770.5)
(89182.5 3839.99 -68317.3)
(94794.3 8915.72 -72020.8)
(100407 28068 -76044.6)
(90653.3 71715.5 -71669.9)
(89906.5 36420.9 -17575.1)
(83687.8 5817.13 -22164.8)
(85326.4 1332.94 -22889.2)
(88264.6 1297.94 -23352.5)
(92641.5 2423.48 -24003.7)
(99368.1 6897.04 -25011.3)
(107315 26520.4 -26512.3)
(100430 76116.9 -28056.5)
(79921.7 28625.8 -4415.36)
(75283.2 4559.31 -5828.31)
(76913.6 1102.04 -6029.13)
(79758.8 1134.09 -6114.2)
(84087.8 2181.1 -6221.16)
(90899.3 6407.16 -6402.67)
(99403 25022.8 -6892.06)
(94853.5 72133.7 -8901.36)
(73046.6 26177.3 -1581.76)
(68785.6 4203.36 -2030.09)
(70348.6 1047.04 -2086.99)
(73123.2 1105.91 -2104.08)
(77392.4 2135.02 -2122.58)
(84157.7 6226.14 -2168.06)
(92744.8 24021.7 -2407.96)
(89310.7 68495.6 -3805.48)
(68873.7 25014 -807.123)
(64771.1 4054.07 -1013.16)
(66297.5 1028.06 -1036.03)
(69035.1 1098.5 -1040.94)
(73267.7 2117.12 -1046.7)
(79980.1 6121.78 -1070.13)
(88527.8 23385.4 -1218.63)
(85572.7 66068.2 -2108.15)
(66358.3 24357 -456.734)
(62346.9 3974.45 -568.472)
(63856 1019.26 -579.791)
(66572.7 1095.25 -581.698)
(70781.1 2105.83 -584.859)
(77448.1 6054.21 -600.328)
(85932 22983.6 -693.923)
(83184 64518.4 -1241.12)
(64911.9 23988.8 -238.907)
(60952.7 3931.02 -296.239)
(62453.2 1014.83 -301.753)
(65158.4 1093.44 -302.581)
(69351.1 2098.49 -304.438)
(75985.1 6012.72 -313.595)
(84415.6 22744.6 -365.773)
(81757.4 63591.2 -664.724)
(64247.3 23821.8 -74.5999)
(60311.9 3911.6 -92.349)
(61808.8 1012.92 -94.0171)
(64508.9 1092.56 -94.2611)
(68693.6 2094.82 -94.8918)
(75310.2 5992.87 -97.9385)
(83711.5 22632.5 -114.738)
(81087.2 63155.1 -210.025)
(-70868.1 107029 -75591.6)
(-75977.8 116995 -28614)
(-72122.7 111251 -8952.61)
(-68497.9 105622 -3811.53)
(-66073.9 101838 -2112.07)
(-64535.1 99417.9 -1243.7)
(-63620.5 97967.9 -666.105)
(-63192.3 97285.2 -210.439)
(-19843.5 118507 -81546.4)
(-19859.2 126545 -27790.3)
(-18809.3 118635 -7100.28)
(-17984.3 111889 -2454.4)
(-17450 107593 -1243.8)
(-17115.3 104928 -712.582)
(-16918.3 103359 -377.783)
(-16826.7 102627 -118.893)
(17378.8 116100 -80163.3)
(18094.2 124022 -27579.9)
(17112.5 116146 -7077.74)
(16293.1 109418 -2452.16)
(15761.4 105128 -1243.05)
(15428.7 102466 -712.059)
(15232.9 100898 -377.468)
(15141.8 100166 -118.788)
(63194.7 100140 -71669.9)
(68609 109716 -28056.5)
(64818.1 104065 -8901.36)
(61225.5 98491.8 -3805.48)
(58824.4 94729 -2108.15)
(57297 92316.5 -1241.12)
(56387.7 90869.5 -664.724)
(55961.3 90187.7 -210.025)
)
;
    }
    symmetry
    {
        type            symmetry;
    }
    bottom
    {
        type            calculated;
        value           nonuniform List<vector> 
32
(
(-65455.3 123957 -69071.8)
(-62233.7 65377.3 -18048.7)
(-55878.1 51762 -4490.45)
(-51555.7 47415.5 -1614.22)
(-48938.3 45305.2 -828.158)
(-47366.3 44102.9 -469.595)
(-46465.2 43426.8 -245.775)
(-46052.1 43119.8 -76.7521)
(-13269.8 71660.4 -67656.5)
(-11908.4 17942.1 -15633.7)
(-10692.7 9125.49 -2536.77)
(-9936.01 7794.99 -417.908)
(-9492.38 7453.85 -125.464)
(-9231.14 7293.14 -61.9218)
(-9083.35 7206.17 -31.4972)
(-9016.12 7167.15 -9.75464)
(12025 70877.6 -66431.9)
(11227.8 17743.9 -15471.6)
(10083.7 8991.31 -2518.1)
(9349.22 7671.47 -413.914)
(8919.81 7335.65 -123.286)
(8667.56 7178.33 -60.5669)
(8524.99 7093.38 -30.7555)
(8460.15 7055.31 -9.51893)
(59119.9 119760 -65445.3)
(56230.6 62853.3 -17575.1)
(50078.1 49460.1 -4415.36)
(45903.4 45191.9 -1581.76)
(43386.2 43133.1 -807.123)
(41875.4 41963.4 -456.734)
(41009.1 41306.1 -238.907)
(40611.8 41007.7 -74.5999)
)
;
    }
}


// ************************************************************************* //
