/*--------------------------------*- C++ -*----------------------------------*\
| =========                 |                                                 |
| \\      /  F ield         | OpenFOAM: The Open Source CFD Toolbox           |
|  \\    /   O peration     | Version:  v1912                                 |
|   \\  /    A nd           | Website:  www.openfoam.com                      |
|    \\/     M anipulation  |                                                 |
\*---------------------------------------------------------------------------*/
FoamFile
{
    version     2.0;
    format      ascii;
    class       pointVectorField;
    location    "0.74/solid";
    object      pointDD;
}
// * * * * * * * * * * * * * * * * * * * * * * * * * * * * * * * * * * * * * //

dimensions      [0 1 0 0 0 0 0];


internalField   nonuniform List<vector> 
405
(
(1.6717e-10 2.86867e-10 1.79641e-10)
(7.05046e-11 2.08602e-10 1.36895e-10)
(-5.3705e-12 1.82116e-10 1.25534e-10)
(-7.62196e-11 1.96652e-10 1.20267e-10)
(-1.46309e-10 2.6797e-10 1.54386e-10)
(3.49401e-10 3.69773e-10 4.47903e-10)
(2.03904e-10 3.67762e-10 4.53083e-10)
(-1.69446e-11 3.19871e-10 4.2568e-10)
(-2.25671e-10 3.51064e-10 4.13507e-10)
(-3.24747e-10 3.52789e-10 3.98066e-10)
(4.69693e-10 1.98607e-10 7.56462e-10)
(2.78757e-10 2.21455e-10 7.6084e-10)
(-2.91982e-11 1.90746e-10 7.24342e-10)
(-3.228e-10 2.19026e-10 7.10449e-10)
(-4.62126e-10 2.03957e-10 6.87037e-10)
(4.86897e-10 -1.92536e-11 9.9727e-10)
(2.83479e-10 2.17281e-11 9.9728e-10)
(-4.27084e-11 9.07199e-12 9.51718e-10)
(-3.54303e-10 3.22885e-11 9.39e-10)
(-5.03396e-10 6.46558e-12 9.14601e-10)
(4.80186e-10 -2.32782e-10 1.21582e-09)
(2.70217e-10 -1.90808e-10 1.20917e-09)
(-5.939e-11 -1.97201e-10 1.15423e-09)
(-3.74192e-10 -1.69025e-10 1.14461e-09)
(-5.27447e-10 -1.88977e-10 1.12278e-09)
(4.96674e-10 -4.64221e-10 1.43897e-09)
(2.73326e-10 -4.31598e-10 1.42305e-09)
(-7.98008e-11 -4.37597e-10 1.3593e-09)
(-4.17808e-10 -3.99339e-10 1.35289e-09)
(-5.82056e-10 -4.0307e-10 1.33669e-09)
(5.68906e-10 -7.83432e-10 1.67883e-09)
(3.15049e-10 -7.57773e-10 1.65577e-09)
(-1.04522e-10 -7.55853e-10 1.588e-09)
(-5.08292e-10 -7.14319e-10 1.5802e-09)
(-6.99991e-10 -7.03708e-10 1.56764e-09)
(6.85919e-10 -1.26669e-09 1.90372e-09)
(3.84719e-10 -1.23729e-09 1.88822e-09)
(-1.34339e-10 -1.21264e-09 1.8291e-09)
(-6.35859e-10 -1.17765e-09 1.80739e-09)
(-8.69916e-10 -1.16126e-09 1.78422e-09)
(7.40735e-10 -1.57518e-09 2.01345e-09)
(4.20724e-10 -1.55175e-09 2.00506e-09)
(-1.51577e-10 -1.50467e-09 1.96191e-09)
(-7.05214e-10 -1.47123e-09 1.932e-09)
(-9.71507e-10 -1.4486e-09 1.89982e-09)
(1.06765e-10 1.46554e-10 8.25997e-11)
(0 0 0)
(0 0 0)
(0 0 0)
(-7.44155e-11 1.37271e-10 7.32864e-11)
(2.96638e-10 2.21158e-10 3.0719e-10)
(0 0 0)
(0 0 0)
(0 0 0)
(-2.3461e-10 2.13476e-10 2.76551e-10)
(3.97622e-10 4.26849e-11 5.68911e-10)
(0 0 0)
(0 0 0)
(0 0 0)
(-3.4559e-10 5.65672e-11 5.18396e-10)
(4.10891e-10 -1.65505e-10 7.94714e-10)
(0 0 0)
(0 0 0)
(0 0 0)
(-3.77226e-10 -1.3122e-10 7.30478e-10)
(4.03914e-10 -3.66574e-10 1.00403e-09)
(0 0 0)
(0 0 0)
(0 0 0)
(-3.96168e-10 -3.13156e-10 9.28923e-10)
(4.19908e-10 -5.77359e-10 1.21549e-09)
(0 0 0)
(0 0 0)
(0 0 0)
(-4.4584e-10 -5.0503e-10 1.13068e-09)
(4.95351e-10 -8.56157e-10 1.43359e-09)
(0 0 0)
(0 0 0)
(0 0 0)
(-5.62348e-10 -7.63798e-10 1.33963e-09)
(6.28895e-10 -1.28226e-09 1.62097e-09)
(0 0 0)
(0 0 0)
(0 0 0)
(-7.43026e-10 -1.16372e-09 1.51926e-09)
(6.82404e-10 -1.56409e-09 1.71701e-09)
(3.79893e-10 -1.54574e-09 1.72783e-09)
(-1.38894e-10 -1.48225e-09 1.70695e-09)
(-6.40226e-10 -1.4564e-09 1.67505e-09)
(-8.73341e-10 -1.42966e-09 1.6249e-09)
(5.94659e-11 6.85479e-11 2.81198e-11)
(0 0 0)
(0 0 0)
(0 0 0)
(-2.64689e-11 5.91739e-11 2.3458e-11)
(1.74947e-10 5.79065e-11 1.48602e-10)
(0 0 0)
(0 0 0)
(0 0 0)
(-1.07681e-10 4.94438e-11 1.30959e-10)
(2.4134e-10 -1.19026e-10 3.42961e-10)
(0 0 0)
(0 0 0)
(0 0 0)
(-1.76787e-10 -1.07206e-10 3.10467e-10)
(2.45205e-10 -3.09599e-10 5.42762e-10)
(0 0 0)
(0 0 0)
(0 0 0)
(-1.92874e-10 -2.78405e-10 4.98486e-10)
(2.35621e-10 -4.90827e-10 7.33896e-10)
(0 0 0)
(0 0 0)
(0 0 0)
(-2.03927e-10 -4.41031e-10 6.79788e-10)
(2.52127e-10 -6.70217e-10 9.16502e-10)
(0 0 0)
(0 0 0)
(0 0 0)
(-2.49376e-10 -6.01919e-10 8.53613e-10)
(3.35515e-10 -8.92236e-10 1.08159e-09)
(0 0 0)
(0 0 0)
(0 0 0)
(-3.69403e-10 -8.04667e-10 1.01087e-09)
(4.90318e-10 -1.24188e-09 1.19332e-09)
(0 0 0)
(0 0 0)
(0 0 0)
(-5.66782e-10 -1.12953e-09 1.11697e-09)
(5.59824e-10 -1.48663e-09 1.23352e-09)
(3.04059e-10 -1.4609e-09 1.24878e-09)
(-1.14719e-10 -1.38812e-09 1.25041e-09)
(-5.1745e-10 -1.3754e-09 1.21136e-09)
(-7.07966e-10 -1.35848e-09 1.16627e-09)
(2.94293e-11 3.0459e-11 1.66419e-11)
(0 0 0)
(0 0 0)
(0 0 0)
(4.13066e-12 1.94033e-11 1.35562e-11)
(9.57928e-11 -2.22777e-11 1.01038e-10)
(0 0 0)
(0 0 0)
(0 0 0)
(-2.47546e-11 -3.4809e-11 8.91949e-11)
(1.38976e-10 -2.01895e-10 2.52961e-10)
(0 0 0)
(0 0 0)
(0 0 0)
(-6.53047e-11 -1.95223e-10 2.30453e-10)
(1.39492e-10 -3.85726e-10 4.22627e-10)
(0 0 0)
(0 0 0)
(0 0 0)
(-7.28279e-11 -3.60233e-10 3.90726e-10)
(1.32626e-10 -5.49964e-10 5.88393e-10)
(0 0 0)
(0 0 0)
(0 0 0)
(-8.17786e-11 -5.06135e-10 5.48121e-10)
(1.5403e-10 -6.98366e-10 7.38223e-10)
(0 0 0)
(0 0 0)
(0 0 0)
(-1.27698e-10 -6.36246e-10 6.904e-10)
(2.4458e-10 -8.74485e-10 8.55392e-10)
(0 0 0)
(0 0 0)
(0 0 0)
(-2.50794e-10 -7.93412e-10 8.01103e-10)
(4.07525e-10 -1.17177e-09 9.12363e-10)
(0 0 0)
(0 0 0)
(0 0 0)
(-4.52552e-10 -1.06626e-09 8.53855e-10)
(4.79475e-10 -1.39596e-09 9.15657e-10)
(2.53822e-10 -1.37756e-09 9.24939e-10)
(-9.61802e-11 -1.3077e-09 9.33302e-10)
(-4.30416e-10 -1.2956e-09 8.96905e-10)
(-5.92746e-10 -1.27394e-09 8.6469e-10)
(1.6117e-11 1.48351e-11 1.71291e-11)
(0 0 0)
(0 0 0)
(0 0 0)
(1.79295e-11 2.33439e-12 1.49616e-11)
(6.10272e-11 -5.36609e-11 8.88597e-11)
(0 0 0)
(0 0 0)
(0 0 0)
(1.26875e-11 -7.0004e-11 8.06443e-11)
(9.53212e-11 -2.32712e-10 2.10109e-10)
(0 0 0)
(0 0 0)
(0 0 0)
(-1.53317e-11 -2.31236e-10 1.94416e-10)
(9.73149e-11 -4.12152e-10 3.45636e-10)
(0 0 0)
(0 0 0)
(0 0 0)
(-2.03963e-11 -3.92508e-10 3.22948e-10)
(9.56575e-11 -5.64306e-10 4.78169e-10)
(0 0 0)
(0 0 0)
(0 0 0)
(-3.06307e-11 -5.26578e-10 4.48897e-10)
(1.22916e-10 -6.92112e-10 5.92942e-10)
(0 0 0)
(0 0 0)
(0 0 0)
(-7.86652e-11 -6.36161e-10 5.57612e-10)
(2.17956e-10 -8.42552e-10 6.73379e-10)
(0 0 0)
(0 0 0)
(0 0 0)
(-2.02746e-10 -7.67608e-10 6.32921e-10)
(3.81589e-10 -1.11378e-09 7.02415e-10)
(0 0 0)
(0 0 0)
(0 0 0)
(-4.02026e-10 -1.0142e-09 6.5872e-10)
(4.51695e-10 -1.32865e-09 6.91917e-10)
(2.39208e-10 -1.31937e-09 6.91507e-10)
(-8.22182e-11 -1.25609e-09 6.96146e-10)
(-3.87774e-10 -1.24028e-09 6.70722e-10)
(-5.37868e-10 -1.21166e-09 6.53961e-10)
(1.1262e-11 9.59835e-12 1.59053e-11)
(0 0 0)
(0 0 0)
(0 0 0)
(2.31179e-11 -3.88343e-12 1.44349e-11)
(4.89921e-11 -6.24426e-11 7.41308e-11)
(0 0 0)
(0 0 0)
(0 0 0)
(2.64654e-11 -8.15621e-11 6.85994e-11)
(8.19061e-11 -2.37924e-10 1.65781e-10)
(0 0 0)
(0 0 0)
(0 0 0)
(2.21141e-12 -2.40533e-10 1.55203e-10)
(8.72303e-11 -4.12481e-10 2.65785e-10)
(0 0 0)
(0 0 0)
(0 0 0)
(-3.42817e-12 -3.97648e-10 2.50328e-10)
(9.0623e-11 -5.56663e-10 3.62533e-10)
(0 0 0)
(0 0 0)
(0 0 0)
(-1.57775e-11 -5.24043e-10 3.42307e-10)
(1.22569e-10 -6.73662e-10 4.4383e-10)
(0 0 0)
(0 0 0)
(0 0 0)
(-6.55772e-11 -6.22847e-10 4.19117e-10)
(2.19912e-10 -8.1297e-10 4.97161e-10)
(0 0 0)
(0 0 0)
(0 0 0)
(-1.89193e-10 -7.42999e-10 4.68634e-10)
(3.81922e-10 -1.07311e-09 5.13066e-10)
(0 0 0)
(0 0 0)
(0 0 0)
(-3.84341e-10 -9.7818e-10 4.82136e-10)
(4.50231e-10 -1.2832e-09 5.01157e-10)
(2.42492e-10 -1.27976e-09 4.9537e-10)
(-7.20355e-11 -1.22186e-09 4.9564e-10)
(-3.70553e-10 -1.20282e-09 4.80684e-10)
(-5.16485e-10 -1.17004e-09 4.74291e-10)
(9.79055e-12 8.26508e-12 1.18919e-11)
(0 0 0)
(0 0 0)
(0 0 0)
(2.47936e-11 -5.82965e-12 1.09832e-11)
(4.58639e-11 -6.2972e-11 5.26415e-11)
(0 0 0)
(0 0 0)
(0 0 0)
(3.06578e-11 -8.38983e-11 4.92317e-11)
(7.98345e-11 -2.33996e-10 1.13923e-10)
(0 0 0)
(0 0 0)
(0 0 0)
(6.83932e-12 -2.39395e-10 1.07396e-10)
(8.82529e-11 -4.0385e-10 1.79232e-10)
(0 0 0)
(0 0 0)
(0 0 0)
(-8.31869e-14 -3.92427e-10 1.69636e-10)
(9.5359e-11 -5.43046e-10 2.41604e-10)
(0 0 0)
(0 0 0)
(0 0 0)
(-1.41407e-11 -5.14122e-10 2.28936e-10)
(1.3039e-10 -6.55228e-10 2.93023e-10)
(0 0 0)
(0 0 0)
(0 0 0)
(-6.49709e-11 -6.08144e-10 2.77412e-10)
(2.28837e-10 -7.90728e-10 3.25649e-10)
(0 0 0)
(0 0 0)
(0 0 0)
(-1.87709e-10 -7.24337e-10 3.07516e-10)
(3.89147e-10 -1.04649e-09 3.34516e-10)
(0 0 0)
(0 0 0)
(0 0 0)
(-3.79349e-10 -9.54853e-10 3.14784e-10)
(4.56015e-10 -1.25406e-09 3.25745e-10)
(2.49611e-10 -1.25382e-09 3.19659e-10)
(-6.51196e-11 -1.19922e-09 3.18189e-10)
(-3.63734e-10 -1.17836e-09 3.10291e-10)
(-5.08715e-10 -1.14358e-09 3.08595e-10)
(9.42506e-12 8.09474e-12 6.27407e-12)
(0 0 0)
(0 0 0)
(0 0 0)
(2.52653e-11 -6.33526e-12 5.84058e-12)
(4.53592e-11 -6.16732e-11 2.71325e-11)
(0 0 0)
(0 0 0)
(0 0 0)
(3.17239e-11 -8.36084e-11 2.5507e-11)
(8.04168e-11 -2.29282e-10 5.77531e-11)
(0 0 0)
(0 0 0)
(0 0 0)
(7.6332e-12 -2.36281e-10 5.46384e-11)
(9.08019e-11 -3.95824e-10 8.98873e-11)
(0 0 0)
(0 0 0)
(0 0 0)
(-2.18224e-13 -3.864e-10 8.52945e-11)
(1.00061e-10 -5.32272e-10 1.20291e-10)
(0 0 0)
(0 0 0)
(0 0 0)
(-1.52589e-11 -5.05548e-10 1.14198e-10)
(1.36777e-10 -6.42584e-10 1.451e-10)
(0 0 0)
(0 0 0)
(0 0 0)
(-6.6566e-11 -5.97735e-10 1.37555e-10)
(2.35724e-10 -7.77108e-10 1.60622e-10)
(0 0 0)
(0 0 0)
(0 0 0)
(-1.88618e-10 -7.12859e-10 1.51822e-10)
(3.94938e-10 -1.03126e-09 1.64687e-10)
(0 0 0)
(0 0 0)
(0 0 0)
(-3.78076e-10 -9.41584e-10 1.55089e-10)
(4.60858e-10 -1.23764e-09 1.60225e-10)
(2.54728e-10 -1.23895e-09 1.56678e-10)
(-6.11163e-11 -1.18599e-09 1.55507e-10)
(-3.6078e-10 -1.16435e-09 1.5212e-10)
(-5.05703e-10 -1.12874e-09 1.51878e-10)
(1.62125e-11 2.44558e-12 0)
(8.05786e-12 -1.19521e-11 0)
(4.27905e-13 -2.00683e-11 0)
(-3.18237e-12 -1.65397e-11 0)
(1.28664e-11 -1.25493e-11 0)
(4.77897e-11 -7.06943e-11 0)
(2.8484e-11 -9.57424e-11 0)
(3.77712e-12 -1.1218e-10 0)
(-1.1545e-11 -1.03156e-10 0)
(4.00154e-12 -8.81846e-11 0)
(7.90511e-11 -2.31676e-10 0)
(4.52371e-11 -2.48813e-10 0)
(8.53923e-12 -2.61825e-10 0)
(-1.76221e-11 -2.5097e-10 0)
(-1.57326e-11 -2.37426e-10 0)
(8.81992e-11 -3.94473e-10 0)
(4.93576e-11 -4.05801e-10 0)
(1.00277e-11 -4.13875e-10 0)
(-1.9095e-11 -4.00407e-10 0)
(-2.22865e-11 -3.86224e-10 0)
(9.64443e-11 -5.33358e-10 0)
(5.1903e-11 -5.50534e-10 0)
(6.88706e-12 -5.59089e-10 0)
(-2.80181e-11 -5.36744e-10 0)
(-3.64678e-11 -5.10148e-10 0)
(1.31974e-10 -6.53772e-10 0)
(7.1744e-11 -6.87386e-10 0)
(-1.26683e-12 -6.99596e-10 0)
(-6.39125e-11 -6.64708e-10 0)
(-8.69931e-11 -6.14822e-10 0)
(2.27105e-10 -8.01049e-10 0)
(1.28764e-10 -8.46243e-10 0)
(-1.48771e-11 -8.54733e-10 0)
(-1.4726e-10 -8.13859e-10 0)
(-2.06197e-10 -7.45076e-10 0)
(3.75041e-10 -1.05413e-09 0)
(2.13582e-10 -1.07886e-09 0)
(-3.46625e-11 -1.06428e-09 0)
(-2.69396e-10 -1.03289e-09 0)
(-3.86608e-10 -9.75102e-10 0)
(4.5063e-10 -1.23457e-09 0)
(2.5744e-10 -1.22728e-09 0)
(-5.30049e-11 -1.18502e-09 0)
(-3.47807e-10 -1.16293e-09 0)
(-4.99558e-10 -1.13503e-09 0)
)
;

boundaryField
{
    interface
    {
        type            calculated;
    }
    symmetry
    {
        type            symmetry;
    }
    bottom
    {
        type            calculated;
    }
}


// ************************************************************************* //
