/*--------------------------------*- C++ -*----------------------------------*\
| =========                 |                                                 |
| \\      /  F ield         | OpenFOAM: The Open Source CFD Toolbox           |
|  \\    /   O peration     | Version:  v1912                                 |
|   \\  /    A nd           | Website:  www.openfoam.com                      |
|    \\/     M anipulation  |                                                 |
\*---------------------------------------------------------------------------*/
FoamFile
{
    version     2.0;
    format      ascii;
    class       pointVectorField;
    location    "0.74/solid";
    object      pointD;
}
// * * * * * * * * * * * * * * * * * * * * * * * * * * * * * * * * * * * * * //

dimensions      [0 1 0 0 0 0 0];


internalField   nonuniform List<vector> 
405
(
(3.80025e-08 3.95648e-08 3.92694e-08)
(7.72173e-09 2.61622e-08 4.2765e-08)
(2.39838e-11 2.15841e-08 4.02641e-08)
(-7.4508e-09 2.56854e-08 4.18657e-08)
(-3.59399e-08 3.82851e-08 3.83143e-08)
(6.49737e-08 4.89768e-08 7.1489e-08)
(2.13044e-08 4.4355e-08 9.73363e-08)
(3.44903e-10 3.70851e-08 9.21859e-08)
(-2.00946e-08 4.33261e-08 9.56091e-08)
(-6.11345e-08 4.69702e-08 7.01521e-08)
(7.45124e-08 2.88555e-08 9.19779e-08)
(2.81727e-08 2.82921e-08 1.17126e-07)
(1.01087e-09 2.44129e-08 1.11552e-07)
(-2.55606e-08 2.71158e-08 1.15504e-07)
(-6.91901e-08 2.66604e-08 9.08206e-08)
(7.62521e-08 1.19434e-08 1.06331e-07)
(2.90174e-08 1.33608e-08 1.31784e-07)
(1.77139e-09 1.1403e-08 1.25693e-07)
(-2.48898e-08 1.20345e-08 1.30218e-07)
(-6.94e-08 9.52604e-09 1.0532e-07)
(7.73499e-08 -1.35227e-09 1.19266e-07)
(2.91318e-08 -1.17712e-11 1.45288e-07)
(2.57267e-09 -1.7575e-09 1.38754e-07)
(-2.34003e-08 -1.49121e-09 1.43759e-07)
(-6.88665e-08 -4.00657e-09 1.18356e-07)
(8.11852e-08 -1.39063e-08 1.33194e-07)
(3.09725e-08 -1.36099e-08 1.60097e-07)
(3.40924e-09 -1.59009e-08 1.53214e-07)
(-2.35627e-08 -1.52374e-08 1.58583e-07)
(-7.09916e-08 -1.6785e-08 1.32342e-07)
(9.02165e-08 -3.07426e-08 1.49673e-07)
(3.61705e-08 -3.12344e-08 1.7808e-07)
(4.26899e-09 -3.35603e-08 1.71153e-07)
(-2.70388e-08 -3.29915e-08 1.76563e-07)
(-7.82753e-08 -3.38068e-08 1.48843e-07)
(1.05541e-07 -6.98291e-08 1.68657e-07)
(4.47579e-08 -6.91952e-08 2.00574e-07)
(5.10559e-09 -6.94393e-08 1.94625e-07)
(-3.39361e-08 -7.08438e-08 1.99068e-07)
(-9.18626e-08 -7.27256e-08 1.6784e-07)
(1.0284e-07 -1.24708e-07 1.67085e-07)
(4.98643e-08 -1.34676e-07 1.7746e-07)
(5.66498e-09 -1.31676e-07 1.73857e-07)
(-3.7905e-08 -1.35289e-07 1.76838e-07)
(-8.88456e-08 -1.26369e-07 1.66673e-07)
(3.84046e-08 2.19849e-08 7.55456e-09)
(0 0 0)
(0 0 0)
(0 0 0)
(-3.5822e-08 2.09137e-08 7.55606e-09)
(8.27625e-08 3.47972e-08 2.55169e-08)
(1.79622e-08 1.8957e-08 2.9092e-08)
(3.63493e-10 1.27505e-08 2.88026e-08)
(-1.67499e-08 1.80062e-08 2.91337e-08)
(-7.68978e-08 3.25299e-08 2.56231e-08)
(9.01611e-08 1.72713e-08 4.3214e-08)
(2.37232e-08 1.17642e-08 4.7973e-08)
(9.85937e-10 8.2661e-09 4.77779e-08)
(-2.12045e-08 1.05629e-08 4.81249e-08)
(-8.28814e-08 1.47442e-08 4.3536e-08)
(9.20526e-08 2.56992e-09 5.63985e-08)
(2.4376e-08 9.44576e-10 6.13444e-08)
(1.69926e-09 -8.35164e-10 6.11469e-08)
(-2.04369e-08 -4.23687e-10 6.16009e-08)
(-8.32721e-08 -2.31898e-10 5.69198e-08)
(9.38636e-08 -9.3566e-09 6.79662e-08)
(2.45094e-08 -1.12404e-08 7.2841e-08)
(2.46494e-09 -1.28488e-08 7.25407e-08)
(-1.90361e-08 -1.27527e-08 7.31731e-08)
(-8.34532e-08 -1.24258e-08 6.86322e-08)
(9.88197e-08 -2.05939e-08 7.98242e-08)
(2.63951e-08 -2.48933e-08 8.45807e-08)
(3.27762e-09 -2.70996e-08 8.4144e-08)
(-1.92887e-08 -2.65423e-08 8.49608e-08)
(-8.66798e-08 -2.39051e-08 8.05817e-08)
(1.09643e-07 -3.50192e-08 9.28725e-08)
(3.16483e-08 -4.20373e-08 9.75239e-08)
(4.12375e-09 -4.44041e-08 9.70158e-08)
(-2.28438e-08 -4.3806e-08 9.79283e-08)
(-9.5724e-08 -3.85213e-08 9.36761e-08)
(1.28556e-07 -6.94582e-08 1.05495e-07)
(4.02679e-08 -7.4709e-08 1.10146e-07)
(4.95763e-09 -7.49345e-08 1.09769e-07)
(-2.97767e-08 -7.63672e-08 1.10553e-07)
(-1.12859e-07 -7.27879e-08 1.06304e-07)
(1.06033e-07 -1.3278e-07 1.13082e-07)
(4.53906e-08 -1.65193e-07 1.14462e-07)
(5.73783e-09 -1.59857e-07 1.14117e-07)
(-3.32995e-08 -1.64919e-07 1.14871e-07)
(-9.13892e-08 -1.34146e-07 1.13791e-07)
(3.0858e-08 1.26533e-08 8.16963e-10)
(0 0 0)
(0 0 0)
(0 0 0)
(-2.83472e-08 1.17143e-08 9.21272e-10)
(6.61253e-08 1.77771e-08 8.00267e-09)
(1.21188e-08 5.9397e-09 1.28562e-08)
(3.27266e-10 7.89295e-10 1.40524e-08)
(-1.09974e-08 5.10162e-09 1.30379e-08)
(-6.04761e-08 1.57313e-08 8.33207e-09)
(7.14377e-08 3.72606e-09 2.09552e-08)
(1.60604e-08 -4.74117e-10 2.73512e-08)
(9.08109e-10 -3.44253e-09 2.90542e-08)
(-1.37249e-08 -1.61416e-09 2.76454e-08)
(-6.44961e-08 1.33914e-09 2.15e-08)
(7.2571e-08 -8.06054e-09 3.32562e-08)
(1.63318e-08 -9.34629e-09 3.99726e-08)
(1.58308e-09 -1.09555e-08 4.18331e-08)
(-1.26562e-08 -1.06872e-08 4.03548e-08)
(-6.42142e-08 -1.07822e-08 3.39706e-08)
(7.40324e-08 -1.80775e-08 4.42141e-08)
(1.63583e-08 -1.98491e-08 5.09615e-08)
(2.31771e-09 -2.14164e-08 5.28415e-08)
(-1.12104e-08 -2.135e-08 5.14106e-08)
(-6.40979e-08 -2.1102e-08 4.50567e-08)
(7.8856e-08 -2.73281e-08 5.45657e-08)
(1.81652e-08 -3.1616e-08 6.12875e-08)
(3.10741e-09 -3.383e-08 6.31398e-08)
(-1.14264e-08 -3.3262e-08 6.17816e-08)
(-6.72092e-08 -3.06189e-08 5.54939e-08)
(9.00198e-08 -3.83403e-08 6.4226e-08)
(2.3439e-08 -4.54748e-08 7.08743e-08)
(3.9385e-09 -4.78586e-08 7.26946e-08)
(-1.50266e-08 -4.72477e-08 7.13927e-08)
(-7.65805e-08 -4.18423e-08 6.51996e-08)
(1.10295e-07 -6.6657e-08 7.0889e-08)
(3.2257e-08 -7.19211e-08 7.74182e-08)
(4.76529e-09 -7.20273e-08 7.92275e-08)
(-2.21663e-08 -7.35905e-08 7.79433e-08)
(-9.50511e-08 -7.00028e-08 7.18749e-08)
(9.13486e-08 -1.23605e-07 7.39331e-08)
(3.74249e-08 -1.5255e-07 7.65047e-08)
(5.54746e-09 -1.46252e-07 7.82825e-08)
(-2.57294e-08 -1.52267e-07 7.70325e-08)
(-7.71296e-08 -1.24972e-07 7.48169e-08)
(2.63342e-08 9.08347e-09 6.4808e-10)
(0 0 0)
(0 0 0)
(0 0 0)
(-2.39244e-08 8.21862e-09 7.31096e-10)
(5.61673e-08 1.04746e-08 5.8673e-09)
(8.51341e-09 1.15447e-09 8.92716e-09)
(2.78535e-10 -3.25907e-09 1.00386e-08)
(-7.50484e-09 3.7577e-10 9.07017e-09)
(-5.07664e-08 8.5763e-09 6.13852e-09)
(6.0383e-08 -3.51899e-09 1.59781e-08)
(1.1278e-08 -6.87056e-09 2.00457e-08)
(8.14657e-10 -9.4348e-09 2.16182e-08)
(-9.14551e-09 -7.9507e-09 2.02821e-08)
(-5.37743e-08 -5.77363e-09 1.64303e-08)
(6.1339e-08 -1.45851e-08 2.67532e-08)
(1.13668e-08 -1.57128e-08 3.09881e-08)
(1.45351e-09 -1.71929e-08 3.27014e-08)
(-7.96571e-09 -1.70079e-08 3.12933e-08)
(-5.33831e-08 -1.72054e-08 2.73409e-08)
(6.2845e-08 -2.32723e-08 3.66938e-08)
(1.14194e-08 -2.50659e-08 4.08826e-08)
(2.16016e-09 -2.66178e-08 4.26209e-08)
(-6.60075e-09 -2.65359e-08 4.12407e-08)
(-5.33585e-08 -2.62268e-08 3.73855e-08)
(6.77977e-08 -3.04562e-08 4.54902e-08)
(1.3262e-08 -3.48098e-08 4.96047e-08)
(2.92911e-09 -3.70446e-08 5.13323e-08)
(-6.89147e-09 -3.64373e-08 5.00007e-08)
(-5.66196e-08 -3.37045e-08 4.62556e-08)
(7.92488e-08 -3.86123e-08 5.25036e-08)
(1.85825e-08 -4.58292e-08 5.65549e-08)
(3.74576e-09 -4.82528e-08 5.82621e-08)
(-1.05627e-08 -4.75933e-08 5.69735e-08)
(-6.62714e-08 -4.20941e-08 5.33128e-08)
(9.9913e-08 -6.33989e-08 5.6104e-08)
(2.74342e-08 -6.87852e-08 6.01523e-08)
(4.56329e-09 -6.89734e-08 6.18502e-08)
(-1.7749e-08 -7.04511e-08 6.05794e-08)
(-8.51044e-08 -6.67365e-08 5.69302e-08)
(8.2749e-08 -1.1695e-07 5.70337e-08)
(3.26758e-08 -1.44455e-07 5.89574e-08)
(5.34136e-09 -1.38205e-07 6.07384e-08)
(-2.13914e-08 -1.44181e-07 5.93827e-08)
(-6.8945e-08 -1.1832e-07 5.77645e-08)
(2.39928e-08 7.75523e-09 9.74865e-10)
(0 0 0)
(0 0 0)
(0 0 0)
(-2.16625e-08 6.9393e-09 1.03324e-09)
(5.1034e-08 7.68171e-09 5.55316e-09)
(6.99429e-09 -4.76637e-10 6.99952e-09)
(2.41522e-10 -4.48335e-09 7.65768e-09)
(-6.07529e-09 -1.21973e-09 7.10219e-09)
(-4.5833e-08 5.88607e-09 5.75125e-09)
(5.47878e-08 -6.59779e-09 1.351e-08)
(9.27214e-09 -9.57935e-09 1.54185e-08)
(7.39747e-10 -1.19192e-08 1.63504e-08)
(-7.30509e-09 -1.06143e-08 1.55932e-08)
(-4.84524e-08 -8.74862e-09 1.38491e-08)
(5.58378e-08 -1.76751e-08 2.21682e-08)
(9.35985e-09 -1.87997e-08 2.41001e-08)
(1.34685e-09 -2.02131e-08 2.51089e-08)
(-6.18592e-09 -2.00525e-08 2.43278e-08)
(-4.82124e-08 -2.02044e-08 2.26136e-08)
(5.75558e-08 -2.57155e-08 3.03193e-08)
(9.52372e-09 -2.7599e-08 3.21564e-08)
(2.02891e-09 -2.91511e-08 3.31693e-08)
(-4.98002e-09 -2.90353e-08 3.2425e-08)
(-4.84409e-08 -2.85993e-08 3.08472e-08)
(6.27083e-08 -3.16382e-08 3.72628e-08)
(1.14571e-08 -3.60664e-08 3.90097e-08)
(2.77954e-09 -3.83195e-08 4.00084e-08)
(-5.39643e-09 -3.76701e-08 3.93088e-08)
(-5.19244e-08 -3.48373e-08 3.78517e-08)
(7.43026e-08 -3.8287e-08 4.22842e-08)
(1.68008e-08 -4.5537e-08 4.39993e-08)
(3.58289e-09 -4.80018e-08 4.49862e-08)
(-9.11449e-09 -4.72855e-08 4.43181e-08)
(-6.17216e-08 -4.17377e-08 4.29124e-08)
(9.49323e-08 -6.14621e-08 4.45249e-08)
(2.55821e-08 -6.69654e-08 4.63088e-08)
(4.39075e-09 -6.72899e-08 4.73065e-08)
(-1.62455e-08 -6.86208e-08 4.66356e-08)
(-8.05061e-08 -6.47789e-08 4.51711e-08)
(7.88563e-08 -1.13053e-07 4.47831e-08)
(3.08724e-08 -1.39746e-07 4.57478e-08)
(5.16244e-09 -1.3379e-07 4.68522e-08)
(-1.99471e-08 -1.39472e-07 4.60709e-08)
(-6.54186e-08 -1.14412e-07 4.53497e-08)
(2.28074e-08 7.22706e-09 9.75636e-10)
(0 0 0)
(0 0 0)
(0 0 0)
(-2.053e-08 6.44509e-09 1.01477e-09)
(4.85086e-08 6.65082e-09 4.70237e-09)
(6.48554e-09 -1.05554e-09 5.30125e-09)
(2.16768e-10 -4.86431e-09 5.62385e-09)
(-5.62795e-09 -1.77382e-09 5.37206e-09)
(-4.34445e-08 4.92808e-09 4.83821e-09)
(5.21621e-08 -7.66736e-09 1.06404e-08)
(8.64137e-09 -1.05441e-08 1.13988e-08)
(6.86973e-10 -1.27821e-08 1.18518e-08)
(-6.79242e-09 -1.1546e-08 1.15214e-08)
(-4.60195e-08 -9.74087e-09 1.08777e-08)
(5.33781e-08 -1.87758e-08 1.70166e-08)
(8.80155e-09 -1.99613e-08 1.77353e-08)
(1.26889e-09 -2.13523e-08 1.82181e-08)
(-5.79462e-09 -2.11808e-08 1.78968e-08)
(-4.59907e-08 -2.12331e-08 1.73327e-08)
(5.53103e-08 -2.6563e-08 2.3047e-08)
(9.07929e-09 -2.85374e-08 2.36753e-08)
(1.93067e-09 -3.00977e-08 2.41508e-08)
(-4.74196e-09 -2.9945e-08 2.38673e-08)
(-4.64674e-08 -2.93868e-08 2.34255e-08)
(6.06254e-08 -3.19578e-08 2.80916e-08)
(1.1091e-08 -3.64361e-08 2.86507e-08)
(2.66581e-09 -3.87009e-08 2.91134e-08)
(-5.26642e-09 -3.80174e-08 2.88658e-08)
(-5.01349e-08 -3.51113e-08 2.85175e-08)
(7.22614e-08 -3.80469e-08 3.15919e-08)
(1.64305e-08 -4.52925e-08 3.21458e-08)
(3.45758e-09 -4.77816e-08 3.26051e-08)
(-9.00154e-09 -4.70247e-08 3.23764e-08)
(-5.99816e-08 -4.14653e-08 3.205e-08)
(9.27318e-08 -6.05482e-08 3.31356e-08)
(2.51197e-08 -6.611e-08 3.3768e-08)
(4.25665e-09 -6.65318e-08 3.42453e-08)
(-1.60556e-08 -6.77533e-08 3.40053e-08)
(-7.86033e-08 -6.38416e-08 3.36097e-08)
(7.73012e-08 -1.10947e-07 3.32649e-08)
(3.04214e-08 -1.37117e-07 3.36426e-08)
(5.02191e-09 -1.31406e-07 3.41958e-08)
(-1.97798e-08 -1.36836e-07 3.3876e-08)
(-6.41536e-08 -1.12291e-07 3.3679e-08)
(2.21903e-08 7.0023e-09 7.39419e-10)
(0 0 0)
(0 0 0)
(0 0 0)
(-1.99453e-08 6.24233e-09 7.6346e-10)
(4.72396e-08 6.28033e-09 3.33917e-09)
(6.33129e-09 -1.26001e-09 3.57835e-09)
(2.01298e-10 -4.97699e-09 3.72219e-09)
(-5.51227e-09 -1.96141e-09 3.62289e-09)
(-4.22603e-08 4.60603e-09 3.42357e-09)
(5.09164e-08 -7.93533e-09 7.27948e-09)
(8.48645e-09 -1.0805e-08 7.55982e-09)
(6.528e-10 -1.30028e-08 7.75806e-09)
(-6.71402e-09 -1.17843e-08 7.63771e-09)
(-4.48963e-08 -9.95548e-09 7.42881e-09)
(5.22733e-08 -1.90001e-08 1.14342e-08)
(8.71934e-09 -2.02487e-08 1.16697e-08)
(1.21688e-09 -2.16371e-08 1.18759e-08)
(-5.82369e-09 -2.14447e-08 1.17732e-08)
(-4.50404e-08 -2.14061e-08 1.16354e-08)
(5.43576e-08 -2.67023e-08 1.53522e-08)
(9.07772e-09 -2.87411e-08 1.5526e-08)
(1.86362e-09 -3.03101e-08 1.57238e-08)
(-4.88088e-09 -3.01275e-08 1.56497e-08)
(-4.56945e-08 -2.94814e-08 1.55954e-08)
(5.97728e-08 -3.19595e-08 1.86065e-08)
(1.11372e-08 -3.64631e-08 1.87397e-08)
(2.58692e-09 -3.87332e-08 1.89296e-08)
(-5.47595e-09 -3.80272e-08 1.88791e-08)
(-4.94796e-08 -3.50776e-08 1.88824e-08)
(7.14048e-08 -3.7931e-08 2.08438e-08)
(1.64617e-08 -4.51567e-08 2.09829e-08)
(3.36961e-09 -4.76539e-08 2.11741e-08)
(-9.21308e-09 -4.68755e-08 2.1133e-08)
(-5.93313e-08 -4.13228e-08 2.11425e-08)
(9.17251e-08 -6.01676e-08 2.18658e-08)
(2.50764e-08 -6.57417e-08 2.20639e-08)
(4.16167e-09 -6.62122e-08 2.22703e-08)
(-1.62051e-08 -6.73748e-08 2.22188e-08)
(-7.78042e-08 -6.34407e-08 2.21764e-08)
(7.66583e-08 -1.09856e-07 2.19807e-08)
(3.03664e-08 -1.35677e-07 2.21094e-08)
(4.92161e-09 -1.30107e-07 2.23568e-08)
(-1.99276e-08 -1.3539e-07 2.22612e-08)
(-6.37164e-08 -1.11186e-07 2.22515e-08)
(2.18834e-08 6.90636e-09 3.90718e-10)
(0 0 0)
(0 0 0)
(0 0 0)
(-1.96557e-08 6.15861e-09 4.02162e-10)
(4.6621e-08 6.15484e-09 1.7177e-09)
(6.28038e-09 -1.32259e-09 1.80497e-09)
(1.92874e-10 -4.99901e-09 1.85965e-09)
(-5.48235e-09 -2.0142e-09 1.82648e-09)
(-4.16875e-08 4.50802e-09 1.75808e-09)
(5.03304e-08 -7.95318e-09 3.67923e-09)
(8.45176e-09 -1.08343e-08 3.77407e-09)
(6.33772e-10 -1.30175e-08 3.84794e-09)
(-6.72184e-09 -1.18002e-08 3.81187e-09)
(-4.43775e-08 -9.94214e-09 3.75117e-09)
(5.17716e-08 -1.896e-08 5.72136e-09)
(8.73003e-09 -2.02491e-08 5.79083e-09)
(1.18733e-09 -2.16398e-08 5.86581e-09)
(-5.89743e-09 -2.14311e-08 5.84131e-09)
(-4.46248e-08 -2.13353e-08 5.81901e-09)
(5.39401e-08 -2.66372e-08 7.63979e-09)
(9.13254e-09 -2.87114e-08 7.67951e-09)
(1.82488e-09 -3.0286e-08 7.74977e-09)
(-5.01664e-09 -3.0085e-08 7.74013e-09)
(-4.53788e-08 -2.93891e-08 7.75855e-09)
(5.94053e-08 -3.18918e-08 9.22991e-09)
(1.12151e-08 -3.64054e-08 9.25196e-09)
(2.54073e-09 -3.86768e-08 9.31887e-09)
(-5.6492e-09 -3.79586e-08 9.32051e-09)
(-4.92251e-08 -3.49875e-08 9.36531e-09)
(7.10238e-08 -3.78811e-08 1.03251e-08)
(1.65268e-08 -4.50887e-08 1.03527e-08)
(3.31763e-09 -4.75863e-08 1.04214e-08)
(-9.38447e-09 -4.67989e-08 1.04268e-08)
(-5.90699e-08 -4.12556e-08 1.04724e-08)
(9.12474e-08 -6.00243e-08 1.08417e-08)
(2.50959e-08 -6.55928e-08 1.08997e-08)
(4.10518e-09 -6.6082e-08 1.09765e-08)
(-1.63392e-08 -6.72191e-08 1.09761e-08)
(-7.74484e-08 -6.32841e-08 1.09952e-08)
(7.63648e-08 -1.09338e-07 1.09166e-08)
(3.03706e-08 -1.34955e-07 1.09566e-08)
(4.86163e-09 -1.29448e-07 1.10501e-08)
(-2.00529e-08 -1.34662e-07 1.10314e-08)
(-6.35451e-08 -1.10658e-07 1.10504e-08)
(1.76128e-08 7.1208e-09 0)
(2.20178e-09 1.6115e-09 0)
(3.11274e-12 -6.23147e-10 0)
(-2.01744e-09 1.34578e-09 0)
(-1.58896e-08 6.32939e-09 0)
(2.93703e-08 4.15677e-09 0)
(6.26671e-09 -1.33488e-09 0)
(1.90207e-10 -4.99962e-09 0)
(-5.47533e-09 -2.02328e-09 0)
(-2.63096e-08 2.79099e-09 0)
(3.29507e-08 -8.40884e-09 0)
(8.44446e-09 -1.08266e-08 0)
(6.2768e-10 -1.30061e-08 0)
(-6.72813e-09 -1.1788e-08 0)
(-2.88963e-08 -1.01292e-08 0)
(3.38394e-08 -1.90241e-08 0)
(8.73743e-09 -2.02252e-08 0)
(1.17776e-09 -2.16172e-08 0)
(-5.92519e-09 -2.14026e-08 0)
(-2.86454e-08 -2.1092e-08 0)
(3.51872e-08 -2.70201e-08 0)
(9.15361e-09 -2.86801e-08 0)
(1.81223e-09 -3.02564e-08 0)
(-5.06409e-09 -3.00493e-08 0)
(-2.86457e-08 -2.94191e-08 0)
(3.93775e-08 -3.31757e-08 0)
(1.12428e-08 -3.63756e-08 0)
(2.52555e-09 -3.86471e-08 0)
(-5.70821e-09 -3.79251e-08 0)
(-3.12967e-08 -3.58814e-08 0)
(4.89978e-08 -4.0433e-08 0)
(1.65497e-08 -4.50673e-08 0)
(3.30046e-09 -4.75643e-08 0)
(-9.44251e-09 -4.67746e-08 0)
(-3.92336e-08 -4.33955e-08 0)
(6.55437e-08 -6.27256e-08 0)
(2.51038e-08 -6.55525e-08 0)
(4.08644e-09 -6.60461e-08 0)
(-1.6385e-08 -6.71765e-08 0)
(-5.40319e-08 -6.5573e-08 0)
(6.67087e-08 -1.00371e-07 0)
(3.01871e-08 -1.07893e-07 0)
(4.65733e-09 -1.04483e-07 0)
(-2.02888e-08 -1.08481e-07 0)
(-5.48251e-08 -1.01989e-07 0)
)
;

boundaryField
{
    interface
    {
        type            calculated;
    }
    symmetry
    {
        type            symmetry;
    }
    bottom
    {
        type            calculated;
    }
}


// ************************************************************************* //
