/*--------------------------------*- C++ -*----------------------------------*\
| =========                 |                                                 |
| \\      /  F ield         | OpenFOAM: The Open Source CFD Toolbox           |
|  \\    /   O peration     | Version:  v1912                                 |
|   \\  /    A nd           | Website:  www.openfoam.com                      |
|    \\/     M anipulation  |                                                 |
\*---------------------------------------------------------------------------*/
FoamFile
{
    version     2.0;
    format      ascii;
    class       volScalarField;
    location    "0.74/solid";
    object      sigmaEq;
}
// * * * * * * * * * * * * * * * * * * * * * * * * * * * * * * * * * * * * * //

dimensions      [1 -1 -2 0 0 0 0];


internalField   nonuniform List<scalar> 
256
(
658759
460770
453588
626939
377126
315783
310386
353181
371639
293783
288577
347587
389084
292105
286945
364620
401743
296595
291440
376942
397546
298059
292918
372565
317366
267611
263339
294407
61961.6
302811
300317
64183
388697
97762.2
94704.1
356275
281718
96693.8
94057.6
252998
273159
72957.6
70944.3
244571
275158
49155.4
47945
246134
281804
40482.5
40110.8
252188
289815
45863
45506.1
259632
269981
42679.5
43539
240285
317484
268223
263912
294367
321811
59463.5
58302.1
290241
268957
57023
54932
240331
264487
40257.4
38498.4
235535
266519
26918.5
26573.6
236943
274605
28140.7
28928.6
244288
288153
32587.3
32720.3
257094
289385
44925.1
44691.6
258984
398202
299306
294121
372989
286692
55517
55217
256479
250425
52231
51416.7
223284
247371
39829.3
39498.2
219531
249486
33462.7
34412.2
220759
258317
33824.7
35431.7
228662
273657
31286.9
32260.8
243041
280613
37203
37307.1
250502
404825
299133
293930
379685
266518
48010.2
47885.4
237075
234807
47447.3
47056.6
208480
233220
38215.3
38273.5
206065
236307
32734.7
33856.6
208116
246402
31635.9
33276.2
217194
263071
26534.8
27444.6
232800
272580
35971.3
35831.6
242752
398812
295343
290141
373831
255085
41121.3
40971.8
226028
224496
41556.4
41174.5
198484
223999
32938.8
32946.5
197112
228233
26372.4
27461.4
200258
239547
24130.7
25748.5
210535
257298
19090.1
19583.1
227205
268522
38907.4
38360.9
238902
393814
292568
287348
368915
248833
35790.3
35561
219959
218475
36234.1
35741.3
192560
218624
26823.9
26669.2
191814
223706
18446.8
19593.3
195798
235867
15555.5
17398.7
206927
254368
12301.2
12186.1
224361
266757
42020.3
41232.9
237276
391114
290905
285669
366259
246043
32734.3
32440.7
217239
215714
32995.7
32408.4
189822
216163
22615.5
22320.6
189367
221673
12101.2
13510.6
193780
234251
8457.4
11081.5
205334
253124
7683.27
6786.75
223154
266106
43701.6
42817.7
236695
390025
290134
284891
365189
)
;

boundaryField
{
    interface
    {
        type            calculated;
        value           nonuniform List<scalar> 
192
(
833687
525875
523648
548434
568670
572267
501694
277152
620012
480166
474592
487081
504857
523012
510144
502008
540148
462339
462238
474373
493576
517673
523299
573536
489495
431899
434708
447192
467259
493665
505729
573109
458876
407212
411842
425312
446532
474416
489456
561190
441091
391237
396917
411384
433643
462549
479260
551996
431295
382068
388309
403476
426439
455980
473653
546697
426930
377925
384415
399928
423234
453074
471193
544377
844895
537244
535443
560957
581692
585179
514453
292124
708114
526652
508011
516902
532230
544054
521417
500690
696653
517206
498485
507198
522385
534089
511964
494214
807358
509381
507108
531888
552159
555484
487268
286245
783356
481486
478540
502414
521807
524608
454330
237050
565012
429184
423111
434521
451108
468105
455133
454359
486605
412079
411187
422116
439957
462599
467934
525290
437770
383405
385167
396266
414797
439489
450949
525279
408313
359837
363322
375297
394878
420901
435162
513690
391203
344451
348948
361865
382434
409408
425276
504685
381775
335578
340615
354210
375462
403042
419855
499496
377573
331559
336836
350771
372357
400224
417482
497227
292878
515118
586710
586514
574471
565001
559485
557058
501207
522570
546388
537018
525055
516327
510926
508376
494656
512999
536255
526934
515003
506278
500874
498322
286628
487593
556564
556336
544397
534975
529476
527056
)
;
    }
    symmetry
    {
        type            symmetry;
    }
    bottom
    {
        type            calculated;
        value           nonuniform List<scalar> 
32
(
945737
505581
392427
346829
323622
310877
303980
300918
599961
124083
58705.7
54879.2
48477
42232.4
37365
34592.7
591254
119809
55621.1
52558.7
46074
39540.3
34321.3
31282.9
906151
469410
357214
312949
290646
278436
271826
268889
)
;
    }
}


// ************************************************************************* //
