/*--------------------------------*- C++ -*----------------------------------*\
| =========                 |                                                 |
| \\      /  F ield         | OpenFOAM: The Open Source CFD Toolbox           |
|  \\    /   O peration     | Version:  v1912                                 |
|   \\  /    A nd           | Website:  www.openfoam.com                      |
|    \\/     M anipulation  |                                                 |
\*---------------------------------------------------------------------------*/
FoamFile
{
    version     2.0;
    format      ascii;
    class       volScalarField;
    location    "0.74/solid";
    object      sigmaHyd;
}
// * * * * * * * * * * * * * * * * * * * * * * * * * * * * * * * * * * * * * //

dimensions      [1 -1 -2 0 0 0 0];


internalField   nonuniform List<scalar> 
256
(
-716407
-381920
-375773
-678844
-1.05256e+06
-641517
-632532
-1.0051e+06
-1.09126e+06
-684890
-675411
-1.0423e+06
-1.1072e+06
-701381
-691663
-1.0572e+06
-1.14348e+06
-728685
-718788
-1.09252e+06
-1.2274e+06
-794363
-784263
-1.17549e+06
-1.44653e+06
-985823
-974741
-1.39185e+06
-2.02631e+06
-1.53294e+06
-1.51541e+06
-1.95383e+06
-372076
-117738
-116903
-349787
-591559
-262621
-259784
-561799
-624561
-303372
-300163
-593725
-638109
-320405
-317050
-606490
-663392
-339041
-335590
-630967
-725347
-382259
-378689
-692028
-910058
-529307
-524830
-873939
-1.44728e+06
-986023
-974811
-1.39206e+06
-291389
-71435.8
-71048.4
-270816
-442648
-155520
-153555
-415803
-466697
-186163
-183880
-438913
-478742
-201129
-198702
-450163
-500844
-216813
-214280
-471369
-555704
-252609
-249931
-525132
-725634
-381890
-378259
-691919
-1.22837e+06
-794083
-783740
-1.17536e+06
-270581
-67222.7
-66822
-250397
-398191
-132771
-130898
-372163
-417328
-157172
-155007
-390441
-428203
-169989
-167681
-400513
-449099
-184166
-181743
-420446
-501236
-217123
-214534
-471340
-663513
-338382
-334806
-630227
-1.14341e+06
-726977
-716696
-1.09067e+06
-262005
-67404.7
-66984.4
-242043
-381511
-126919
-125072
-355939
-398472
-148119
-145997
-372097
-408451
-159293
-157033
-381275
-428514
-172308
-169928
-400337
-479086
-203687
-201129
-449582
-636861
-320855
-317289
-603820
-1.10302e+06
-697246
-686967
-1.05038e+06
-256873
-67623.7
-67191.2
-237030
-373121
-124732
-122903
-347814
-389152
-144363
-142271
-363079
-398524
-154505
-152278
-371654
-417960
-166706
-164359
-390068
-467523
-197140
-194609
-438257
-622604
-312087
-308536
-589716
-1.08039e+06
-681460
-671184
-1.0278e+06
-253629
-67654.6
-67213.6
-233846
-368365
-123725
-121905
-343202
-383982
-142615
-140540
-358074
-392988
-152186
-149979
-366286
-412010
-163899
-161572
-384276
-460968
-193801
-191287
-431834
-614517
-307540
-303999
-581713
-1.06736e+06
-672781
-662508
-1.01479e+06
-252021
-67619.5
-67174
-232262
-366113
-123294
-121479
-341011
-381562
-141888
-139820
-355726
-390397
-151209
-149011
-363768
-409215
-162697
-160379
-381552
-457891
-192359
-189853
-428816
-610742
-305555
-302020
-577975
-1.06126e+06
-668836
-658563
-1.00871e+06
)
;

boundaryField
{
    interface
    {
        type            zeroGradient;
    }
    symmetry
    {
        type            symmetry;
    }
    bottom
    {
        type            zeroGradient;
    }
}


// ************************************************************************* //
