/*--------------------------------*- C++ -*----------------------------------*\
| =========                 |                                                 |
| \\      /  F ield         | OpenFOAM: The Open Source CFD Toolbox           |
|  \\    /   O peration     | Version:  v1912                                 |
|   \\  /    A nd           | Website:  www.openfoam.com                      |
|    \\/     M anipulation  |                                                 |
\*---------------------------------------------------------------------------*/
FoamFile
{
    version     2.0;
    format      ascii;
    class       volSymmTensorField;
    location    "0.74/solid";
    object      sigma;
}
// * * * * * * * * * * * * * * * * * * * * * * * * * * * * * * * * * * * * * //

dimensions      [1 -1 -2 0 0 0 0];


internalField   nonuniform List<symmTensor> 
256
(
(-154637 30692.4 -11399.9 493976 34833.4 -164371)
(88313.2 -6107.38 -4832.62 317734 34484.7 -208174)
(90288.8 5644.62 4588.12 314393 34539.2 -203045)
(-126523 -29708.8 11250.2 483840 35068.1 -148342)
(-183917 79.2424 -17475.3 190119 4664.79 -187464)
(-19478.2 -5261.48 -8013.45 108020 6273.17 -250913)
(-15845.7 5653.15 7782.8 107265 6420.57 -245101)
(-152980 195.973 17291.8 189858 5100.88 -170262)
(-185009 -4534.23 -18849.8 183574 -26.622 -188063)
(-34813.4 -4793.26 -8817.77 70873.3 262.164 -260590)
(-31182.6 5293.03 8653.29 70481.3 361.455 -254606)
(-153783 4722.2 18680.3 183484 275.54 -170598)
(-181820 -3038.71 -19587.1 202636 1268.57 -187955)
(-26569 -3650.94 -9203.77 59005.7 838.526 -265804)
(-22965.3 4024.1 9070.03 58686.5 893.319 -259699)
(-150159 3202.94 19428.6 202415 1447.62 -170205)
(-186767 -335.998 -20368 209021 4499.28 -195284)
(-24293.2 -1842.14 -9634.56 47752.1 3868.32 -277653)
(-20646.1 2060.89 9505.76 47443 3896.58 -271436)
(-154536 446.123 20216.2 208839 4598.08 -177210)
(-206740 4870.35 -21046.2 184808 10416.8 -214276)
(-42597.6 1443.39 -10042.4 20270.3 10032 -303164)
(-38906.3 -1458.22 9906.86 20030.9 10041 -296827)
(-173924 -4867.34 20901.4 184916 10455.2 -195802)
(-238152 14256.3 -20839.9 72549.7 19558.1 -241732)
(-78512.3 6600.28 -9981.22 -72924.4 20426.2 -340125)
(-74716.7 -7031.54 9832.02 -72258.1 20410.6 -333593)
(-204649 -14406.6 20701.4 75103.7 19527.1 -222657)
(-159517 18958.7 -18903.2 -162386 23674.5 -162108)
(47285.6 9130.19 -9083.04 -251595 25766.2 -251178)
(50930.1 -8910.29 8910.54 -245445 25740.8 -245066)
(-126113 -18784.6 18761.4 -144376 23619.7 -144249)
(-200724 18433 -8803.61 243037 2107.56 67283.4)
(-33391.5 -9266.68 -2822.82 55758.8 16124.3 -39166.3)
(-31509.9 9328.17 3134.19 52872.6 16659 -39373.5)
(-173053 -17279.1 8916.06 234132 3657.43 68059.9)
(-235920 -2093.8 -13595.9 77085.7 5894.75 -7209.93)
(-134377 -5841.41 -5670.85 -41998.1 13249.9 -135344)
(-130642 6283.41 6130.59 -42762 13566.8 -134360)
(-205248 2342.79 13739.5 76715.8 6839.34 -3793.05)
(-242786 -4752.15 -14294.9 59135.7 5135.19 -17741.5)
(-159045 -4697.1 -6187.17 -90457.1 7453.21 -162789)
(-155222 5018.27 6728.25 -90530.4 7660.02 -161696)
(-211671 4842.23 14456.3 59681.4 5771.11 -14402.9)
(-244660 -3204.3 -14515.8 58772.9 5671.3 -16138.8)
(-160466 -3562.85 -6231.8 -120892 5993.66 -171973)
(-156634 3731.73 6827.62 -120728 6128.88 -170892)
(-213024 3278.05 14695.7 59550.8 6096.19 -12956.1)
(-254048 -599.737 -14914.2 55773.9 10001 -18807.2)
(-166265 -1896.16 -6456.43 -143153 9692.64 -183353)
(-162374 1947.73 7073.32 -142945 9773.69 -182286)
(-221742 646.59 15107.8 56647.6 10257.3 -15677.6)
(-280023 4799.99 -15262.8 35023.1 17052.8 -33551.1)
(-192853 1353.7 -6738.51 -169356 16613.1 -207931)
(-188908 -1488.91 7349.43 -169107 16649.2 -206873)
(-246989 -4833.82 15466.2 36098.2 17166.5 -30389.8)
(-320721 15113.1 -15056.9 -55656.8 22661.6 -56700.2)
(-236420 6799.24 -6731.72 -239580 22621 -240071)
(-232370 -7310.1 7315.49 -238490 22615 -238948)
(-286862 -15283.7 15265.7 -52287.2 22650.3 -53260.9)
(-238471 20872.9 -14167.5 -241993 19680.9 72362.9)
(-78408.2 10006.4 -6494.01 -340435 20527.2 -72456.4)
(-74577.2 -9827.93 7049.23 -333817 20510.6 -71739.8)
(-204715 -20712.5 14377.3 -222643 19644.2 75018.5)
(-179338 10101.5 -3622.07 164139 13334 111570)
(-34281.4 -12882.1 -444.306 -5721.64 26730.1 -3201.57)
(-32388.4 12841 616.632 -8300.05 27059.9 -3869.62)
(-152383 -9030.11 3658.58 156159 14349.1 111153)
(-197189 -3294.26 -5415.6 59320.7 16631.1 79523.4)
(-99188 -6571.32 -1459.88 -58056.9 23450.8 -64585.7)
(-95599.4 6970.75 1707.31 -58896.3 23708.2 -64346.8)
(-167534 3523.41 5478.85 58686.5 17420.8 80999.6)
(-201516 -4559.7 -5348.31 56506.5 15189.2 65991.6)
(-117052 -4566.76 -1520.12 -88768.6 17385.7 -96246.3)
(-113387 4829.09 1783.68 -88970.9 17584.6 -95900.4)
(-171425 4624.32 5420.21 56650.1 15797.3 67360.3)
(-203616 -3128.01 -5116.96 60389.9 14201.9 62718.9)
(-118397 -3492.06 -1336.9 -111755 14543.5 -111199)
(-114718 3585.07 1614.91 -111699 14691 -110872)
(-172977 3172.08 5195.99 60810.4 14652.9 63893.5)
(-212924 -653.24 -5053.4 61844.5 16147.7 58341.8)
(-124210 -1992.78 -1298.51 -128460 15924.5 -125557)
(-120456 1968.28 1583.76 -128338 16024.8 -125259)
(-181535 675.849 5139.1 62401.7 16451.3 59408.6)
(-238563 4857.66 -5022.87 49496.4 18993.4 45358.3)
(-149720 1254.32 -1364.21 -145981 18605.6 -149475)
(-145881 -1456.76 1642.82 -145804 18662.9 -149196)
(-206283 -4906.56 5114.08 50267.7 19162.5 46418)
(-280121 15320.9 -4950.19 -31430.3 17891.1 32958.4)
(-192061 6790.93 -1452.17 -206198 17422.7 -170616)
(-188076 -7358.27 1706.69 -205168 17443.5 -170274)
(-246770 -15498.9 5044.52 -28340.2 17950 34273.4)
(-207067 21078.7 -4968.71 -214379 10902.3 185207)
(-41546.3 10056.1 -1503.88 -303183 10499.3 21549.3)
(-37782.3 -9900.39 1719.77 -296702 10501.6 21420.7)
(-173683 -20917.9 5060.84 -195472 10912.3 185582)
(-163609 6704.35 -954.85 133238 17061 107670)
(-29891 -14057 625.82 -22674.7 25196 -2946.32)
(-28019.9 13844.1 -508.597 -25074.5 25409.5 -3531.4)
(-137234 -5753.05 968.356 125894 17753 107496)
(-172961 -3528.85 -1205.84 47058.2 20626.6 95442.1)
(-77905.1 -6695.86 745.287 -65063 24716.5 -46274.9)
(-74396.6 6992.86 -577.42 -65828.7 24904.9 -46026.2)
(-144027 3716.92 1234.32 46559.9 21219.7 96925)
(-175470 -4155.92 -867.411 53031.7 20111.1 82882.6)
(-90878.1 -4319.05 941.014 -85085.4 21343.9 -76324)
(-87292.1 4527.44 -782.171 -85282.6 21504.2 -75969.2)
(-146107 4203.45 897.617 53136.5 20604.7 84248.4)
(-177612 -2832.54 -524.217 64198.4 18642 74905.4)
(-91632.6 -3303.65 1172.55 -98473.1 18686.8 -95507.8)
(-88025.2 3360.81 -1024.51 -98436.3 18816.2 -95160.1)
(-147683 2865.17 553.36 64521 19036.1 76099.6)
(-186971 -498.983 -309.815 71480.4 17935.7 67409.9)
(-97390.2 -1948.58 1298.36 -108276 17662 -112979)
(-93695.5 1892.56 -1156.66 -108170 17758.4 -112656)
(-156232 513.333 339.236 71938 18225.3 68499.7)
(-212278 4889.03 -205.638 63091.1 16572 56253.3)
(-122154 1166.13 1298.55 -121737 16274.4 -135175)
(-118353 -1399.35 -1166.05 -121565 16337.9 -134868)
(-180529 -4942.05 236.32 63784.5 16758.3 57326.9)
(-253309 15005.4 -282.746 -15544.3 11838.4 53319.4)
(-162987 6490.34 1152.09 -180673 11453.9 -146819)
(-159009 -7086.73 -1041.85 -179634 11487 -146453)
(-220297 -15183.1 313.048 -12502.7 11933 54620.5)
(-185823 20450.1 -508.988 -194854 5571.25 212741)
(-19814.4 9654.91 1083.9 -277099 4983.37 50230.1)
(-16047.3 -9512.77 -1017.6 -270665 4991.82 50092.8)
(-152631 -20286.4 531.017 -176143 5597.72 212995)
(-155110 5703.8 -135.544 119129 15708.3 99436.9)
(-28754 -13909.7 697.695 -28531.7 19765.4 -5168.75)
(-26914 13577.9 -610.44 -30817.6 19914.1 -5678.19)
(-129128 -4841.89 146.809 112245 16195.6 99501.2)
(-161926 -3351.89 58.9725 38883.2 18774.3 92751.1)
(-70935.6 -6470.13 1111.87 -68652.7 20717.7 -40978)
(-67496.4 6676.61 -980.729 -69351.5 20854.2 -40667.3)
(-133471 3501.26 -35.9266 38554.7 19208.6 94405.3)
(-163890 -3785.01 379.626 47789.6 19254.1 82055.5)
(-81939.2 -4072.5 1342.79 -84482.4 19712.2 -67891.7)
(-78420.7 4227.22 -1222.02 -84655.7 19832.6 -67480.4)
(-135014 3814.67 -357.178 47950 19628.6 83574.2)
(-166206 -2546.63 655.062 63032.5 18058.9 72626)
(-82534.3 -3124.99 1521.42 -92418.1 17906.6 -87816.2)
(-78988.1 3153.34 -1418.58 -92381.9 18008.3 -87407.2)
(-136746 2570.51 -636.93 63351 18371 73979.5)
(-175725 -336.931 839.255 73799.7 16069.5 64103.1)
(-88403.5 -1879.05 1623.36 -98028.3 15814.9 -105964)
(-84762.4 1805.04 -1533.92 -97930.2 15895.2 -105575)
(-145411 347.119 -824.322 74233.5 16312.2 65355.6)
(-200820 4861.21 906.741 66858.2 12788 55101.8)
(-112771 1080.23 1621.45 -110081 12626.4 -125883)
(-109010 -1328.77 -1544.2 -109913 12683.4 -125510)
(-169418 -4915.24 -893.603 67534.9 12957.4 56330.8)
(-241174 14611.4 788.429 -10721.8 7523.64 57508.8)
(-152559 6176.03 1490.06 -169042 7363.83 -132404)
(-148601 -6787.54 -1433.73 -167999 7396.85 -131972)
(-208395 -14787.7 -778.548 -7683.58 7620.7 58942.1)
(-176761 19807.9 582.354 -185437 3046.03 216128)
(-14513.1 9266 1443.37 -263846 2665.52 61611.3)
(-10754.2 -9132.96 -1428.06 -257430 2674.83 61528.1)
(-143695 -19643 -583.731 -166800 3075.14 216455)
(-150245 5494.43 7.15142 112520 12215.7 94035.3)
(-28832 -13495.2 458.098 -30835.2 14077.4 -6457.48)
(-27013.7 13090.7 -396.782 -33043.3 14177.3 -6922.99)
(-124498 -4689.39 2.92428 105961 12540.4 94257.9)
(-156543 -3124.6 201.91 34883.7 14296 88410.6)
(-69221.6 -6216.12 781.139 -69785.9 15096.6 -39086.4)
(-65831.3 6360.64 -684.432 -70439.4 15190.3 -38734.7)
(-128377 3246.88 -181.457 34690.8 14593.4 90204.2)
(-158505 -3528.09 417.519 44510.6 15006.5 79203)
(-79687.2 -3897.95 945.423 -84087.9 15091 -63476.6)
(-76217.3 4009.62 -854.802 -84243.3 15174.8 -63028.2)
(-129921 3542.71 -397.412 44731.4 15268.8 80848.3)
(-161001 -2354.7 590.442 61164.5 14209 70283.7)
(-80361 -3011.6 1052.73 -89857 14023.7 -82398.7)
(-76859.7 3014.54 -977.718 -89820 14096.1 -81953.2)
(-131817 2370.39 -574.653 61501.1 14433.1 71759.7)
(-170626 -234.298 703.945 73272.6 12191.1 62320.7)
(-86339.3 -1837.6 1109.26 -93734.7 12013.8 -99755.9)
(-82738.4 1748.9 -1048.03 -93643.1 12072.8 -99329.5)
(-140560 240.683 -692.17 73704 12371.4 63692)
(-195539 4816.67 734.272 66844.9 8959.35 55052.6)
(-110447 1013.54 1100.23 -105337 8906.11 -117901)
(-106719 -1272.39 -1051.25 -105175 8949.83 -117490)
(-164338 -4871.7 -725.491 67517.4 9091.16 56392.9)
(-235356 14324.6 640.741 -9634.14 4750.26 59732.9)
(-149568 5966.48 1013.63 -163923 4745.3 -122368)
(-145629 -6587.31 -982.276 -162882 4771.76 -121899)
(-202708 -14500.4 -636.109 -6595.77 4830.13 61261.4)
(-172657 19379.8 493.974 -180396 1781.95 215783)
(-14620.7 9018.36 981.239 -256651 1608.01 67853.4)
(-10872.5 -8891.54 -982.894 -250243 1615.85 67803.9)
(-139656 -19215 -500.006 -161792 1806.88 216172)
(-147402 5462.82 4.38396 109581 7671.56 91185.9)
(-29010.5 -13196.3 230.332 -31679.4 8473.37 -7158.16)
(-27203.9 12750.3 -193.827 -33837.3 8531.14 -7598.67)
(-121784 -4690.62 2.53466 103230 7857.05 91506)
(-153658 -2974.72 106.849 33319.9 8813.95 85608.1)
(-68867.9 -6053.37 399.107 -69888.3 9112.55 -38513.8)
(-65505.8 6161.2 -339.598 -70512.5 9167.4 -38138)
(-125651 3080.99 -92.6241 33220.8 8987.08 87495.2)
(-155722 -3381.72 219.538 43048.5 9309.87 77341.8)
(-79261.5 -3800.77 485.135 -83621.3 9286.98 -61379.5)
(-75820 3884.15 -428.14 -83764.7 9336.55 -60908.9)
(-127298 3386.32 -205.148 43316.2 9465.12 79076.3)
(-158340 -2249.45 308.341 59944.6 8852.18 69368.4)
(-80047.5 -2954.74 537.364 -88757.1 8724.27 -79111.3)
(-76572.5 2938.9 -490.223 -88718.8 8767.56 -78645.2)
(-129306 2258.87 -296.807 60301.1 8987.01 70928.3)
(-168008 -182.37 364.742 72341.8 7477.2 62343.8)
(-86085.4 -1820.85 562.013 -92149.1 7382.15 -95442.9)
(-82508 1720.59 -524.576 -92061.2 7418.06 -94996.7)
(-138076 185.406 -356.227 72778.2 7587.85 63793.2)
(-192785 4783.06 376.046 66094.6 5306.5 56176.9)
(-110024 973.204 553.914 -103611 5303.98 -112502)
(-106315 -1239.69 -525.328 -103453 5331.16 -112071)
(-161689 -4839.35 -370.03 66767.9 5389.38 57588.7)
(-232253 14159.8 322.448 -9473.37 2703.72 61653.6)
(-148749 5855.71 508.92 -161672 2746.68 -116298)
(-144821 -6482.72 -492.167 -160633 2763.5 -115810)
(-199672 -14335.7 -319.667 -6433.11 2755.4 63243.2)
(-170475 19145.3 235.831 -177536 977.198 215648)
(-15473.1 8889.68 487.931 -252663 917.833 71337.7)
(-11731.1 -8766.91 -492.569 -246259 922.953 71306.5)
(-137502 -18980.9 -240.477 -158945 993.719 216079)
(-146054 5455.67 -1.10255 108489 2609.29 89997.9)
(-29079.4 -13059.3 67.8203 -31914.4 2835.39 -7480.77)
(-27277.8 12594.6 -55.6907 -34047.6 2854.29 -7909.58)
(-120493 -4698.47 3.53456 102238 2669.57 90364.7)
(-152322 -2908.9 27.7481 32850.1 2968.31 84362)
(-68777.3 -5982.35 117.175 -69774.2 3044.26 -38408.9)
(-65427.8 6073.35 -97.0747 -70383.9 3062.32 -38021.7)
(-124386 3007.86 -22.6942 32799 3025.1 86296)
(-154449 -3318.58 61.4881 42560.2 3136.17 76550)
(-79184.1 -3760.4 142.66 -83316.6 3119.48 -60587)
(-75755.3 3830.07 -123.16 -83453.8 3135.89 -60105.7)
(-126096 3318.32 -56.2882 42853.5 3187.55 78330.5)
(-157123 -2204.86 88.2271 59411.5 2985.31 69179.8)
(-80034.2 -2932.73 157.769 -88330.9 2941.57 -77626.9)
(-76570.9 2907.09 -141.574 -88291.5 2955.99 -77151)
(-128155 2210.94 -83.9994 59779.8 3030.3 70782.9)
(-166803 -161.583 104.889 71798.1 2507.8 62753.7)
(-86094.1 -1815.85 164.369 -91651.3 2478.93 -93340.1)
(-82527.2 1709.18 -151.613 -91565 2490.97 -92884.9)
(-136929 162.658 -101.756 72238.8 2545.06 64242.6)
(-191508 4766.72 107.707 65604.6 1759.04 57107.5)
(-109949 955.393 161.389 -103075 1763.3 -109896)
(-106248 -1226.13 -151.833 -102920 1772.49 -109457)
(-160458 -4823.88 -105.52 66279.7 1787.26 58554.8)
(-230808 14087.6 90.7581 -9473.51 887.2 62814.5)
(-148489 5810.5 147.847 -160804 908.868 -113509)
(-144567 -6440.77 -142.458 -159767 914.612 -113013)
(-198255 -14263.8 -89.7685 -6431.59 905.016 64434.5)
(-169433 19045 62.1394 -176196 315.662 215768)
(-15933.1 8837.17 140.39 -250845 303.299 72900.7)
(-12193.5 -8716.45 -142.405 -244443 305.067 72877.7)
(-136469 -18881.1 -63.7908 -157611 321.416 216220)
)
;

boundaryField
{
    interface
    {
        type            calculated;
        value           nonuniform List<symmTensor> 
192
(
(-40.9669 0.352154 2.73094 934383 34833.4 276036)
(-42.684 0.32534 4.41867 600517 4664.79 222934)
(-44.2941 0.0530095 5.03116 598838 -26.622 227201)
(-45.3334 -0.384648 5.20093 626937 1268.57 236347)
(-45.6651 -0.768463 5.15834 650133 4499.28 245828)
(-46.5929 -1.44473 5.02814 655251 10416.8 256167)
(-45.037 -1.95953 4.6455 577178 19558.1 262896)
(-48.6264 -4.40269 4.34992 273914 23674.5 274192)
(-39.9248 0.253815 1.33905 688865 2107.56 513111)
(-40.7045 0.248541 2.32155 516581 5894.75 432285)
(-41.6785 0.00887041 2.61156 508212 5135.19 431335)
(-42.3762 -0.435569 2.64038 520055 5671.3 445143)
(-42.446 -0.840026 2.54914 537657 10001 463076)
(-43.2564 -1.58467 2.41129 553033 17052.8 484459)
(-41.4151 -2.15419 2.1643 509111 22661.6 508068)
(-45.096 -4.71716 1.96841 263177 19680.9 577532)
(-42.4817 0.21753 1.05064 563972 13334 511403)
(-43.1653 0.210534 1.79815 450964 16631.1 471167)
(-44.1245 -0.0227133 2.01402 456629 15189.2 466114)
(-44.8352 -0.487885 2.0298 472521 14201.9 474850)
(-44.8266 -0.928885 1.95415 494480 16147.7 490977)
(-45.5561 -1.75417 1.84266 518638 18993.4 514500)
(-43.2734 -2.40558 1.66436 487158 17891.1 551547)
(-46.7149 -5.13789 1.5154 257145 10902.3 656732)
(-42.7007 0.163942 0.63825 500842 17061 475274)
(-43.1999 0.135503 1.15593 404139 20626.6 452523)
(-43.9575 -0.0992181 1.29846 417569 20111.1 447420)
(-44.5517 -0.568318 1.29573 440530 18642 451237)
(-44.4227 -1.02514 1.22996 468203 17935.7 464133)
(-45.0726 -1.88472 1.14271 496168 16572 489331)
(-42.6306 -2.57251 1.02955 467307 11838.4 536171)
(-45.9995 -5.34522 0.940471 247555 5571.25 655150)
(-43.48 0.138077 0.4651 467553 15708.3 447862)
(-43.9258 0.0883978 0.842692 376244 18774.3 430112)
(-44.5929 -0.155525 0.947536 392238 19254.1 426504)
(-45.1354 -0.632916 0.945282 419237 18058.9 428830)
(-44.9295 -1.10661 0.896734 450388 16069.5 440691)
(-45.5039 -1.99558 0.831847 479622 12788 467865)
(-42.8905 -2.71654 0.752792 451543 7523.64 519774)
(-46.1145 -5.53057 0.688822 239588 3046.03 641152)
(-43.6903 0.117955 0.282513 449491 12215.7 431006)
(-44.0877 0.0503774 0.529881 360884 14296 414410)
(-44.6763 -0.202046 0.59919 377533 15006.5 412226)
(-45.168 -0.68452 0.596224 405966 14209 415086)
(-44.9051 -1.1676 0.562612 438455 12191.1 427503)
(-45.4323 -2.0713 0.518825 468026 8959.35 456234)
(-42.7372 -2.80947 0.470094 440683 4750.26 510050)
(-45.9034 -5.6439 0.43234 234266 1781.95 630446)
(-43.9471 0.108077 0.165278 439950 7671.56 421554)
(-44.3273 0.0282714 0.30971 352879 8813.95 405167)
(-44.8748 -0.231504 0.350511 369644 9309.87 403938)
(-45.3384 -0.71846 0.348931 398344 8852.18 407768)
(-45.0397 -1.20869 0.329507 431108 7477.2 421110)
(-45.5316 -2.12258 0.303646 460720 5306.5 450802)
(-42.7729 -2.87287 0.276082 434001 2703.72 505128)
(-45.8852 -5.72268 0.253478 231064 977.198 624248)
(-44.0113 0.101988 0.048741 435807 2609.29 417316)
(-44.3794 0.015884 0.0948225 349447 2968.31 400959)
(-44.9038 -0.247187 0.108025 366208 3136.17 400198)
(-45.3518 -0.735552 0.107325 394875 2985.31 404644)
(-45.0374 -1.22866 0.100975 427617 2507.8 418572)
(-45.5125 -2.14624 0.0925158 457207 1759.04 448710)
(-42.7344 -2.90209 0.0843039 430827 887.2 503115)
(-45.8195 -5.75824 0.0772075 229553 315.662 621517)
(304565 30692.4 -3.82195 953178 -0.916034 -14.7673)
(241578 79.2424 -6.5026 615614 -1.10409 -10.643)
(245524 -4534.23 -7.59306 614107 -0.940496 -6.69898)
(259199 -3038.71 -7.99094 643655 -0.694623 -5.09976)
(272079 -335.998 -8.12149 667868 -0.58695 -4.73963)
(281065 4870.35 -8.228 672614 -0.624447 -5.40051)
(282421 14256.3 -8.37409 593122 -0.761995 -7.27877)
(291687 18958.7 -9.19721 288819 -0.972119 -8.86136)
(564858 -6107.38 -2.26613 794278 -0.546669 -18.7524)
(451099 -5261.48 -4.34611 578598 -0.838088 -17.8326)
(446769 -4793.26 -5.12432 552456 -0.739241 -16.4909)
(468719 -3650.94 -5.374 554294 -0.464815 -16.0231)
(492512 -1842.14 -5.45698 564558 -0.279993 -15.9051)
(509867 1443.39 -5.586 572735 -0.180604 -16.1766)
(518458 6600.28 -5.89951 524046 -0.198792 -16.79)
(577726 9130.19 -6.98518 278846 -0.278572 -17.1514)
(556933 5644.62 -2.25899 781037 -0.396754 -15.9278)
(444433 5653.15 -4.3782 567543 -0.675378 -15.2301)
(439716 5293.03 -5.20207 541380 -0.600892 -13.9742)
(461357 4024.1 -5.47512 543009 -0.305164 -13.4957)
(484976 2060.89 -5.5557 553065 -0.069062 -13.3975)
(502157 -1458.22 -5.65456 561094 0.123029 -13.661)
(510571 -7031.54 -5.91128 513029 0.225683 -14.3437)
(570228 -8910.29 -6.95294 273853 0.238254 -15.1459)
(302891 -29708.8 -2.48985 913254 -0.322261 -16.24)
(242468 195.973 -4.99541 585306 -0.576024 -15.835)
(245814 4722.2 -6.03825 583082 -0.499782 -14.7458)
(259177 3202.94 -6.40206 611752 -0.183617 -14.3865)
(272002 446.123 -6.50559 635378 0.0747581 -14.3878)
(280909 -4867.34 -6.6301 639749 0.309755 -14.6308)
(282141 -14406.6 -6.84089 561894 0.481594 -15.1345)
(293065 -18784.6 -7.93233 274802 0.641785 -15.7743)
(-7.98233 0.777104 0.69739 873054 35068.1 240873)
(-5.28277 0.983788 1.39065 546778 5100.88 186658)
(-2.57011 0.691435 1.61839 544421 275.54 190339)
(-1.20722 0.154485 1.72279 571380 1447.62 198760)
(-0.748775 -0.135637 1.79687 593578 4598.08 207528)
(0.663353 -0.536814 2.02925 598006 10455.2 217289)
(0.0795148 -0.505618 2.21883 521406 19527.1 223646)
(8.63088 -2.69309 2.80339 233438 23619.7 233565)
(-12.218 0.312559 -0.296428 629387 3657.43 463315)
(-11.684 0.437547 -0.26121 463559 6839.34 383050)
(-10.8515 0.292262 -0.332062 455130 5771.11 381045)
(-10.2657 -0.0246574 -0.344969 466073 6096.19 393566)
(-10.0781 -0.114961 -0.287516 482538 10257.3 410213)
(-8.55116 -0.353048 -0.0615476 496833 17166.5 430345)
(-8.61868 -0.0946263 0.223058 453917 22650.3 452943)
(0.117388 -2.13193 0.670982 223773 19644.2 521434)
(-12.4983 0.172733 -0.152644 506895 14349.1 461889)
(-12.1159 0.225139 -0.0255141 399350 17420.8 421663)
(-11.4709 0.14398 0.0219737 404804 15797.3 415515)
(-10.8424 -0.058753 0.075006 419792 14652.9 422875)
(-10.5614 -0.0299387 0.157347 440511 16451.3 437518)
(-8.67055 -0.175373 0.34019 463311 19162.5 459461)
(-8.41924 0.196609 0.531829 432426 17950 495039)
(0.905528 -1.93757 0.784447 217727 10912.3 598781)
(-13.8677 0.078669 -0.17606 445583 17753 427186)
(-13.7095 0.0790947 -0.0646512 353943 21219.7 404308)
(-13.3773 0.0420531 -0.000468712 366993 20604.7 398105)
(-12.8201 -0.0669312 0.0576618 388963 19036.1 400541)
(-12.5045 0.0626171 0.127979 415290 18225.3 411852)
(-10.3615 0.00208199 0.26015 441713 16758.3 435255)
(-9.77224 0.450437 0.38725 413138 11933 480261)
(-0.136252 -1.69937 0.539087 208237 5597.72 597375)
(-14.1533 0.0627229 -0.0591896 413557 16195.6 400813)
(-13.9894 0.0454964 0.0734148 327076 19208.6 382927)
(-13.6866 0.0282597 0.1603 342584 19628.6 378208)
(-13.0796 -0.0385228 0.222014 368505 18371 379133)
(-12.687 0.140387 0.277972 398217 16312.2 389339)
(-10.3828 0.116313 0.360494 425782 12957.4 414577)
(-9.65882 0.585223 0.423628 397795 7620.7 464421)
(0.141684 -1.61623 0.491515 200401 3075.14 583655)
(-14.5858 0.0572324 -0.0399897 396305 12540.4 384602)
(-14.4281 0.0347427 0.0602391 312371 14593.4 367884)
(-14.1475 0.0306047 0.13057 328463 15268.8 364580)
(-13.5103 -0.010402 0.176967 355748 14433.1 366007)
(-13.0684 0.199905 0.21551 386728 12371.4 376716)
(-10.6555 0.198898 0.26663 414544 9091.16 403419)
(-9.82872 0.676682 0.301853 387175 4830.13 455032)
(0.0935961 -1.55318 0.337699 195146 1806.88 573110)
(-14.7068 0.0602753 -0.00710591 387245 7857.05 375521)
(-14.5338 0.0381234 0.0595921 304753 8987.08 359028)
(-14.2413 0.0406455 0.105833 320914 9465.12 356674)
(-13.5714 0.0105221 0.134812 348421 8987.01 359048)
(-13.0954 0.235031 0.157179 379630 7587.85 370646)
(-10.6227 0.242832 0.183684 407434 5389.38 398255)
(-9.75345 0.721929 0.199617 380621 2755.4 450297)
(0.234832 -1.53076 0.213364 191975 993.719 567000)
(-14.8136 0.0608237 -0.00611854 383326 2669.57 371453)
(-14.6385 0.0394444 0.0149377 301501 3025.1 354998)
(-14.343 0.045606 0.0302658 317634 3187.55 353111)
(-13.6598 0.0208782 0.0398102 345087 3030.3 356090)
(-13.1658 0.252204 0.0473193 376251 2545.06 368255)
(-10.664 0.264694 0.0559634 404008 1787.26 396283)
(-9.76542 0.744503 0.0616642 377500 905.016 448366)
(0.252481 -1.51775 0.0661284 190473 321.416 564304)
(292321 9.28468 -18903.2 -8.30634 -0.833999 289730)
(283075 8.49512 -14167.5 -6.44608 -0.620586 593910)
(282132 8.40628 -4968.71 -3.97749 -0.424721 674406)
(274906 8.39035 -508.988 -2.45449 -0.27823 673471)
(266420 8.44823 582.354 -1.27158 -0.198049 659309)
(259719 8.48508 493.974 -0.443102 -0.122579 648160)
(255497 8.51968 235.831 0.082712 -0.0733721 641621)
(253527 8.53456 62.1394 0.335192 -0.0222845 638728)
(578342 7.04003 -9083.04 -16.7058 -0.112029 279879)
(519431 5.95784 -6494.01 -16.212 -0.0241236 525383)
(512079 5.65334 -1503.88 -15.2386 0.0663634 575175)
(498541 5.53876 1083.9 -14.5412 0.0855586 568586)
(482818 5.51364 1443.37 -13.941 0.0788528 558942)
(470109 5.49791 981.239 -13.5055 0.0628771 552583)
(461945 5.49769 487.931 -13.2194 0.0383545 548756)
(458091 5.49637 140.39 -13.0701 0.0140326 546925)
(570756 7.00612 8910.54 -14.7263 0.421193 274759)
(511415 5.95381 7049.23 -13.7887 0.420167 514253)
(504176 5.69784 1719.77 -12.7525 0.393174 563379)
(490726 5.6177 -1017.6 -12.0653 0.321221 556867)
(475026 5.61081 -1428.06 -11.4547 0.252777 547308)
(462320 5.60568 -982.894 -11.0503 0.177614 540996)
(454154 5.61059 -492.569 -10.7707 0.105954 537192)
(450299 5.61089 -142.405 -10.6425 0.0349519 535370)
(293399 7.95314 18761.4 -15.4029 0.827829 275263)
(282539 6.84813 14377.3 -14.6659 0.680437 562273)
(281746 6.63214 5060.84 -13.9065 0.577182 641011)
(274609 6.53212 531.017 -13.3737 0.453738 640235)
(266103 6.52826 -583.731 -12.8511 0.35314 626253)
(259380 6.51987 -500.006 -12.5287 0.244123 615208)
(255146 6.52621 -240.477 -12.2915 0.146633 608727)
(253173 6.52683 -63.7908 -12.1843 0.0478553 605862)
)
;
    }
    symmetry
    {
        type            symmetry;
    }
    bottom
    {
        type            calculated;
        value           nonuniform List<symmTensor> 
32
(
(-728395 88491.6 -11399.9 188181 84475.3 -738129)
(-513660 58147.3 -8803.61 57663.5 -6244.37 -245653)
(-431273 37921.3 -3622.07 7641.52 4315.27 -140365)
(-393992 29334.2 -954.85 -9194.79 12004.7 -122714)
(-374942 26295.1 -135.544 -16271.5 13123.7 -120396)
(-364282 25211.1 7.15142 -19375.4 10931.2 -120002)
(-358248 24756.6 4.38396 -20502.5 7084.34 -119660)
(-355461 24566.9 -1.10255 -20795.1 2440.8 -119409)
(-248748 -3785.17 -4832.62 128428 77125.2 -545235)
(-123423 -9756.42 -2822.82 -4797.22 9946.23 -129198)
(-81386.8 -15637.5 -444.306 -39588.5 20802.3 -50307)
(-67455.4 -17580.9 625.82 -45366.8 22094.8 -40510.8)
(-63351.7 -17523.8 697.695 -47144.3 18171.6 -39766.5)
(-62411.7 -17049.1 458.098 -48411.8 13260.9 -40037.2)
(-62211.8 -16697.9 230.332 -49097.8 8095.1 -40359.5)
(-62142.9 -16537.1 67.8203 -49336.3 2727.13 -40544.2)
(-243046 2078.68 4588.12 127258 76838.6 -536380)
(-120804 8652.96 3134.19 -7613.65 10587 -128667)
(-79014.5 14419 616.632 -42166.6 21202.3 -50495.7)
(-65153.9 16206 -508.597 -47791.6 22344.1 -40665.4)
(-61107.1 16055 -610.44 -49471.1 18340.7 -39871.3)
(-60203.2 15528.8 -396.782 -50666.1 13373.4 -40112.5)
(-60023.1 15150.8 -193.827 -51303.9 8159.8 -40417.8)
(-59962.8 14978.5 -55.6907 -51518.5 2748.26 -40594.6)
(-679971 -86583.5 11250.2 190465 83892.8 -701790)
(-474326 -55989.8 8916.06 54938.8 -4392.52 -233213)
(-393530 -35930.8 3658.58 5649.12 5526.84 -129995)
(-357135 -27540.2 968.356 -10609.6 12804.3 -112405)
(-338679 -24633.9 146.809 -17264.9 13674.9 -110050)
(-328372 -23628.9 2.92428 -20052 11294.6 -109617)
(-322535 -23218.3 2.53466 -20971.5 7291.1 -109245)
(-319835 -23048.2 3.53456 -21162.6 2507.87 -108978)
)
;
    }
}


// ************************************************************************* //
