/*--------------------------------*- C++ -*----------------------------------*\
| =========                 |                                                 |
| \\      /  F ield         | OpenFOAM: The Open Source CFD Toolbox           |
|  \\    /   O peration     | Version:  v1912                                 |
|   \\  /    A nd           | Website:  www.openfoam.com                      |
|    \\/     M anipulation  |                                                 |
\*---------------------------------------------------------------------------*/
FoamFile
{
    version     2.0;
    format      ascii;
    class       volVectorField;
    location    "0.95/solid";
    object      D_0;
}
// * * * * * * * * * * * * * * * * * * * * * * * * * * * * * * * * * * * * * //

dimensions      [0 1 0 0 0 0 0];


internalField   nonuniform List<vector> 
256
(
(3.15002e-08 4.35031e-08 3.5106e-08)
(4.49976e-09 2.56912e-08 3.22262e-08)
(-4.65683e-09 2.52221e-08 3.19718e-08)
(-3.0415e-08 4.16405e-08 3.44148e-08)
(5.25365e-08 3.45059e-08 6.9959e-08)
(1.10985e-08 2.31842e-08 6.60702e-08)
(-1.05368e-08 2.2609e-08 6.56793e-08)
(-5.02785e-08 3.26666e-08 6.88584e-08)
(5.58869e-08 1.60191e-08 9.03563e-08)
(1.27087e-08 1.14363e-08 8.6046e-08)
(-1.123e-08 1.08915e-08 8.56216e-08)
(-5.27066e-08 1.44021e-08 8.91347e-08)
(5.52361e-08 -1.46705e-09 1.06527e-07)
(1.24242e-08 -3.86514e-09 1.01614e-07)
(-1.0081e-08 -4.35516e-09 1.01167e-07)
(-5.11859e-08 -2.90623e-09 1.05226e-07)
(5.59829e-08 -1.8729e-08 1.22455e-07)
(1.25769e-08 -2.18667e-08 1.16843e-07)
(-9.45324e-09 -2.2304e-08 1.16365e-07)
(-5.11259e-08 -2.00107e-08 1.21058e-07)
(6.10986e-08 -3.84285e-08 1.40283e-07)
(1.44706e-08 -4.30477e-08 1.34049e-07)
(-1.06726e-08 -4.34328e-08 1.3353e-07)
(-5.55427e-08 -3.95457e-08 1.38763e-07)
(7.31962e-08 -6.82701e-08 1.61074e-07)
(1.87903e-08 -7.16572e-08 1.54912e-07)
(-1.44985e-08 -7.19528e-08 1.54341e-07)
(-6.71049e-08 -6.91196e-08 1.59403e-07)
(8.96798e-08 -1.32222e-07 1.80829e-07)
(2.34112e-08 -1.27909e-07 1.7603e-07)
(-1.89871e-08 -1.27801e-07 1.75401e-07)
(-8.32926e-08 -1.31958e-07 1.79003e-07)
(2.18265e-08 1.9411e-08 8.24025e-09)
(2.44173e-09 4.74796e-09 9.80177e-09)
(-2.41238e-09 4.47263e-09 9.79711e-09)
(-2.0632e-08 1.80347e-08 8.22159e-09)
(3.68516e-08 1.21428e-08 3.03823e-08)
(7.12412e-09 2.66201e-09 3.34328e-08)
(-6.17012e-09 2.20009e-09 3.33686e-08)
(-3.43559e-08 1.05704e-08 3.0193e-08)
(3.88812e-08 -1.19142e-09 4.92577e-08)
(8.27597e-09 -5.13012e-09 5.27656e-08)
(-6.29153e-09 -5.62738e-09 5.26687e-08)
(-3.53844e-08 -2.70669e-09 4.89682e-08)
(3.78708e-08 -1.57311e-08 6.48871e-08)
(7.95919e-09 -1.79161e-08 6.83728e-08)
(-5.03063e-09 -1.83861e-08 6.82562e-08)
(-3.34385e-08 -1.71368e-08 6.45306e-08)
(3.83282e-08 -3.12987e-08 7.9503e-08)
(8.10559e-09 -3.43873e-08 8.27847e-08)
(-4.32602e-09 -3.48152e-08 8.26442e-08)
(-3.30187e-08 -3.25746e-08 7.90679e-08)
(4.32883e-08 -4.87279e-08 9.44418e-08)
(1.00096e-08 -5.34452e-08 9.74833e-08)
(-5.48414e-09 -5.38285e-08 9.73099e-08)
(-3.71983e-08 -4.98606e-08 9.39032e-08)
(5.58499e-08 -7.28599e-08 1.08759e-07)
(1.44661e-08 -7.62191e-08 1.11684e-07)
(-9.3704e-09 -7.65303e-08 1.11474e-07)
(-4.9129e-08 -7.37679e-08 1.08104e-07)
(7.37179e-08 -1.25092e-07 1.16867e-07)
(1.92964e-08 -1.19428e-07 1.1982e-07)
(-1.39875e-08 -1.19372e-07 1.19589e-07)
(-6.65964e-08 -1.24965e-07 1.16141e-07)
(1.49214e-08 1.17173e-08 4.00659e-09)
(5.98812e-10 -4.43532e-10 6.15594e-09)
(-5.35328e-10 -6.76519e-10 6.16076e-09)
(-1.3733e-08 1.04488e-08 4.02084e-09)
(2.52158e-08 7.57215e-10 1.88514e-08)
(3.40895e-09 -7.02376e-09 2.29295e-08)
(-2.35236e-09 -7.44231e-09 2.29086e-08)
(-2.26747e-08 -7.22612e-10 1.87969e-08)
(2.63014e-08 -1.24562e-08 3.49214e-08)
(4.09725e-09 -1.57914e-08 3.9597e-08)
(-1.93698e-09 -1.62661e-08 3.95494e-08)
(-2.2695e-08 -1.39348e-08 3.47895e-08)
(2.52156e-08 -2.54461e-08 4.96285e-08)
(3.76662e-09 -2.75311e-08 5.43892e-08)
(-5.91759e-10 -2.79977e-08 5.43197e-08)
(-2.06088e-08 -2.68634e-08 4.94277e-08)
(2.56612e-08 -3.8638e-08 6.3008e-08)
(3.9346e-09 -4.18041e-08 6.76907e-08)
(1.57597e-10 -4.2242e-08 6.75981e-08)
(-2.01095e-08 -3.99605e-08 6.27326e-08)
(3.07191e-08 -5.24446e-08 7.51115e-08)
(5.87396e-09 -5.731e-08 7.96629e-08)
(-9.71562e-10 -5.77149e-08 7.95433e-08)
(-2.43125e-08 -5.36546e-08 7.47495e-08)
(4.36613e-08 -7.1202e-08 8.43257e-08)
(1.04443e-08 -7.46802e-08 8.87258e-08)
(-4.90726e-09 -7.50263e-08 8.85819e-08)
(-3.65408e-08 -7.22207e-08 8.38808e-08)
(6.2016e-08 -1.16898e-07 8.69891e-08)
(1.54125e-08 -1.11173e-07 9.12809e-08)
(-9.59372e-09 -1.11163e-07 9.11334e-08)
(-5.44052e-08 -1.16903e-07 8.6517e-08)
(1.17397e-08 9.20647e-09 3.52808e-09)
(-2.04799e-10 -1.45412e-09 4.94003e-09)
(2.70149e-10 -1.68286e-09 4.93974e-09)
(-1.05786e-08 7.95864e-09 3.53348e-09)
(1.97223e-08 -3.8254e-09 1.46018e-08)
(1.66247e-09 -1.05614e-08 1.7293e-08)
(-5.92974e-10 -1.09741e-08 1.72795e-08)
(-1.72036e-08 -5.29538e-09 1.45764e-08)
(2.04739e-08 -1.80136e-08 2.7393e-08)
(2.14146e-09 -2.09883e-08 3.0465e-08)
(6.6975e-11 -2.14618e-08 3.04335e-08)
(-1.6853e-08 -1.95017e-08 2.73172e-08)
(1.95995e-08 -3.05453e-08 3.98817e-08)
(1.88712e-09 -3.26151e-08 4.29733e-08)
(1.38616e-09 -3.30895e-08 4.29229e-08)
(-1.49276e-08 -3.19975e-08 3.97486e-08)
(2.02964e-08 -4.19982e-08 5.11386e-08)
(2.15868e-09 -4.52623e-08 5.41408e-08)
(2.08719e-09 -4.57174e-08 5.40703e-08)
(-1.46224e-08 -4.33808e-08 5.09418e-08)
(2.55744e-08 -5.31347e-08 6.04303e-08)
(4.17171e-09 -5.81314e-08 6.33227e-08)
(9.40157e-10 -5.8562e-08 6.32312e-08)
(-1.89827e-08 -5.44278e-08 6.01654e-08)
(3.86222e-08 -6.89101e-08 6.64124e-08)
(8.76591e-09 -7.26224e-08 6.92081e-08)
(-2.96417e-09 -7.30006e-08 6.91004e-08)
(-3.12488e-08 -7.00283e-08 6.60892e-08)
(5.6861e-08 -1.11719e-07 6.74163e-08)
(1.37362e-08 -1.06584e-07 7.02259e-08)
(-7.59543e-09 -1.06608e-07 7.01192e-08)
(-4.89259e-08 -1.11827e-07 6.70805e-08)
(1.05405e-08 8.20016e-09 3.15823e-09)
(-4.07033e-10 -1.7043e-09 3.87392e-09)
(4.6923e-10 -1.93307e-09 3.87227e-09)
(-9.40206e-09 6.96242e-09 3.15995e-09)
(1.77207e-08 -5.44459e-09 1.15813e-08)
(1.17023e-09 -1.16776e-08 1.29304e-08)
(-1.08309e-10 -1.20935e-08 1.2921e-08)
(-1.52349e-08 -6.92198e-09 1.15676e-08)
(1.85024e-08 -2.01119e-08 2.12041e-08)
(1.63042e-09 -2.29481e-08 2.27126e-08)
(5.84718e-10 -2.34284e-08 2.26919e-08)
(-1.48985e-08 -2.16232e-08 2.11601e-08)
(1.79185e-08 -3.25044e-08 3.08248e-08)
(1.4865e-09 -3.46199e-08 3.22934e-08)
(1.82489e-09 -3.51058e-08 3.2259e-08)
(-1.32308e-08 -3.39955e-08 3.074e-08)
(1.89067e-08 -4.30447e-08 3.94567e-08)
(1.87474e-09 -4.64004e-08 4.08316e-08)
(2.45011e-09 -4.68726e-08 4.07818e-08)
(-1.31741e-08 -4.44823e-08 3.9324e-08)
(2.4363e-08 -5.28425e-08 4.62334e-08)
(3.95152e-09 -5.79309e-08 4.75265e-08)
(1.28381e-09 -5.83834e-08 4.74611e-08)
(-1.7664e-08 -5.42042e-08 4.60504e-08)
(3.7356e-08 -6.7389e-08 5.02565e-08)
(8.52006e-09 -7.12904e-08 5.15121e-08)
(-2.54991e-09 -7.16931e-08 5.14358e-08)
(-2.98228e-08 -6.8583e-08 5.00324e-08)
(5.53356e-08 -1.08881e-07 5.08948e-08)
(1.34458e-08 -1.04295e-07 5.22192e-08)
(-7.0913e-09 -1.04343e-07 5.21443e-08)
(-4.71869e-08 -1.09062e-07 5.06633e-08)
(1.01099e-08 7.74452e-09 2.47736e-09)
(-4.11815e-10 -1.8022e-09 2.79921e-09)
(4.70543e-10 -2.03085e-09 2.79788e-09)
(-8.98681e-09 6.5144e-09 2.47816e-09)
(1.71003e-08 -5.92201e-09 8.49108e-09)
(1.13186e-09 -1.19501e-08 9.07684e-09)
(-8.02125e-11 -1.23693e-08 9.07092e-09)
(-1.46409e-08 -7.40571e-09 8.48384e-09)
(1.80259e-08 -2.0611e-08 1.5175e-08)
(1.64216e-09 -2.34263e-08 1.58001e-08)
(5.6746e-10 -2.39134e-08 1.57875e-08)
(-1.44426e-08 -2.21423e-08 1.51503e-08)
(1.76856e-08 -3.28858e-08 2.18622e-08)
(1.59351e-09 -3.5065e-08 2.24326e-08)
(1.73028e-09 -3.55612e-08 2.2411e-08)
(-1.29994e-08 -3.44089e-08 2.18116e-08)
(1.88923e-08 -4.30493e-08 2.78366e-08)
(2.06919e-09 -4.64753e-08 2.83335e-08)
(2.29531e-09 -4.69609e-08 2.83014e-08)
(-1.31325e-08 -4.45292e-08 2.77537e-08)
(2.44531e-08 -5.23693e-08 3.24309e-08)
(4.18523e-09 -5.75089e-08 3.28779e-08)
(1.1218e-09 -5.79775e-08 3.28353e-08)
(-1.76923e-08 -5.3781e-08 3.23139e-08)
(3.73554e-08 -6.65365e-08 3.51013e-08)
(8.72076e-09 -7.05399e-08 3.55437e-08)
(-2.64543e-09 -7.09598e-08 3.54938e-08)
(-2.97226e-08 -6.77838e-08 3.4957e-08)
(5.51108e-08 -1.07368e-07 3.56159e-08)
(1.3603e-08 -1.03113e-07 3.6122e-08)
(-7.10999e-09 -1.03179e-07 3.60732e-08)
(-4.68243e-08 -1.07601e-07 3.54668e-08)
(9.94032e-09 7.54163e-09 1.56692e-09)
(-3.86786e-10 -1.83753e-09 1.70014e-09)
(4.4288e-10 -2.06598e-09 1.69941e-09)
(-8.82635e-09 6.31649e-09 1.56743e-09)
(1.69071e-08 -5.99981e-09 5.1865e-09)
(1.17742e-09 -1.19527e-08 5.41687e-09)
(-1.33798e-10 -1.23739e-08 5.41373e-09)
(-1.44645e-08 -7.4869e-09 5.1831e-09)
(1.79556e-08 -2.05583e-08 9.1194e-09)
(1.73611e-09 -2.33897e-08 9.34899e-09)
(4.66573e-10 -2.38815e-08 9.34226e-09)
(-1.43876e-08 -2.21026e-08 9.107e-09)
(1.7773e-08 -3.27233e-08 1.30292e-08)
(1.74965e-09 -3.49537e-08 1.32186e-08)
(1.57658e-09 -3.5457e-08 1.32069e-08)
(-1.30919e-08 -3.42676e-08 1.30026e-08)
(1.91103e-08 -4.27609e-08 1.65092e-08)
(2.27743e-09 -4.62312e-08 1.66549e-08)
(2.10567e-09 -4.67258e-08 1.66372e-08)
(-1.33384e-08 -4.42685e-08 1.64644e-08)
(2.47228e-08 -5.19791e-08 1.91695e-08)
(4.41378e-09 -5.71419e-08 1.92905e-08)
(9.32151e-10 -5.76208e-08 1.92667e-08)
(-1.79282e-08 -5.34228e-08 1.91051e-08)
(3.75548e-08 -6.60812e-08 2.0721e-08)
(8.92587e-09 -7.01257e-08 2.0847e-08)
(-2.78983e-09 -7.05563e-08 2.08191e-08)
(-2.98641e-08 -6.7362e-08 2.06408e-08)
(5.5161e-08 -1.06581e-07 2.10719e-08)
(1.37781e-08 -1.02486e-07 2.12373e-08)
(-7.2029e-09 -1.02562e-07 2.12101e-08)
(-4.67923e-08 -1.06845e-07 2.0989e-08)
(9.87374e-09 7.46558e-09 5.34752e-10)
(-3.72634e-10 -1.84504e-09 5.71161e-10)
(4.27346e-10 -2.07338e-09 5.70934e-10)
(-8.76407e-09 6.24283e-09 5.34936e-10)
(1.68414e-08 -5.98211e-09 1.74364e-09)
(1.20595e-09 -1.19106e-08 1.80423e-09)
(-1.66563e-10 -1.23327e-08 1.80326e-09)
(-1.44068e-08 -7.4706e-09 1.74266e-09)
(1.7952e-08 -2.04412e-08 3.04159e-09)
(1.78967e-09 -2.32868e-08 3.09869e-09)
(4.0885e-10 -2.37807e-08 3.09659e-09)
(-1.43917e-08 -2.19916e-08 3.03783e-09)
(1.78436e-08 -3.25413e-08 4.32566e-09)
(1.83244e-09 -3.47985e-08 4.36855e-09)
(1.49361e-09 -3.53052e-08 4.36487e-09)
(-1.31658e-08 -3.40958e-08 4.3174e-09)
(1.92396e-08 -4.25462e-08 5.46613e-09)
(2.3836e-09 -4.60371e-08 5.49482e-09)
(2.00677e-09 -4.65362e-08 5.4892e-09)
(-1.34632e-08 -4.40672e-08 5.45199e-09)
(2.48729e-08 -5.17658e-08 6.33723e-09)
(4.52837e-09 -5.69367e-08 6.35866e-09)
(8.34556e-10 -5.74207e-08 6.35108e-09)
(-1.80634e-08 -5.32251e-08 6.31673e-09)
(3.76691e-08 -6.58776e-08 6.84824e-09)
(9.02918e-09 -6.99342e-08 6.87253e-09)
(-2.86547e-09 -7.037e-08 6.86358e-09)
(-2.99518e-08 -6.71745e-08 6.8226e-09)
(5.52025e-08 -1.06239e-07 6.97306e-09)
(1.38666e-08 -1.02204e-07 7.01031e-09)
(-7.25322e-09 -1.02285e-07 7.00157e-09)
(-4.67955e-08 -1.06519e-07 6.94653e-09)
)
;

boundaryField
{
    interface
    {
        type            solidTraction;
        traction        uniform (0 0 0);
        pressure        uniform 0;
        secondOrder     false;
        setEffectiveTraction false;
        relaxationFactor 1;
        value           nonuniform List<vector> 
192
(
(9.08523e-08 6.45122e-08 3.23604e-08)
(1.08267e-07 4.06026e-08 6.53772e-08)
(1.12823e-07 1.6694e-08 8.54042e-08)
(1.13987e-07 -1.443e-09 1.01555e-07)
(1.16875e-07 -1.72632e-08 1.17504e-07)
(1.24706e-07 -3.41249e-08 1.35383e-07)
(1.40432e-07 -6.11245e-08 1.56317e-07)
(1.63846e-07 -1.27444e-07 1.76307e-07)
(7.08167e-08 3.40805e-08 4.09535e-09)
(8.35034e-08 1.64065e-08 2.35517e-08)
(8.6218e-08 -9.36629e-10 4.18609e-08)
(8.65451e-08 -1.58693e-08 5.73815e-08)
(8.88955e-08 -2.99442e-08 7.19221e-08)
(9.66246e-08 -4.43472e-08 8.68465e-08)
(1.13526e-07 -6.52521e-08 1.01375e-07)
(1.41014e-07 -1.20078e-07 1.0995e-07)
(5.75215e-08 2.17516e-08 1.48473e-09)
(6.69368e-08 3.60217e-09 1.45688e-08)
(6.88053e-08 -1.24563e-08 3.03193e-08)
(6.8983e-08 -2.56061e-08 4.50603e-08)
(7.13272e-08 -3.7262e-08 5.84997e-08)
(7.93365e-08 -4.79443e-08 7.06827e-08)
(9.70698e-08 -6.33774e-08 8.00185e-08)
(1.25779e-07 -1.11732e-07 8.27746e-08)
(5.05561e-08 1.70719e-08 2.43274e-09)
(5.8202e-08 -1.64188e-09 1.27278e-08)
(5.98641e-08 -1.80443e-08 2.54431e-08)
(6.02898e-08 -3.05896e-08 3.80572e-08)
(6.29416e-08 -4.05043e-08 4.94498e-08)
(7.12978e-08 -4.8553e-08 5.88411e-08)
(8.9356e-08 -6.10881e-08 6.48359e-08)
(1.18081e-07 -1.06493e-07 6.57461e-08)
(4.71377e-08 1.52654e-08 2.75072e-09)
(5.41248e-08 -3.45413e-09 1.09256e-08)
(5.58889e-08 -2.00625e-08 2.05919e-08)
(5.66595e-08 -3.24032e-08 3.03462e-08)
(5.96624e-08 -4.14334e-08 3.91056e-08)
(6.8274e-08 -4.82299e-08 4.5953e-08)
(8.63632e-08 -5.96454e-08 4.99397e-08)
(1.14763e-07 -1.0365e-07 5.04571e-08)
(4.54194e-08 1.45471e-08 2.32728e-09)
(5.22523e-08 -3.94304e-09 8.28762e-09)
(5.41979e-08 -2.04646e-08 1.50382e-08)
(5.52561e-08 -3.26691e-08 2.18258e-08)
(5.85236e-08 -4.13573e-08 2.78874e-08)
(6.72827e-08 -4.77532e-08 3.25207e-08)
(8.53048e-08 -5.88716e-08 3.5151e-08)
(1.13381e-07 -1.02157e-07 3.55721e-08)
(4.45383e-08 1.42535e-08 1.50785e-09)
(5.13579e-08 -3.996e-09 5.12171e-09)
(5.34461e-08 -2.03419e-08 9.10088e-09)
(5.46903e-08 -3.24346e-08 1.30687e-08)
(5.81173e-08 -4.10233e-08 1.6596e-08)
(6.69494e-08 -4.73676e-08 1.92744e-08)
(8.49022e-08 -5.84712e-08 2.07994e-08)
(1.12754e-07 -1.01392e-07 2.10948e-08)
(4.41541e-08 1.41443e-08 5.18101e-10)
(5.09779e-08 -3.96255e-09 1.72718e-09)
(5.3137e-08 -2.01907e-08 3.04067e-09)
(5.44688e-08 -3.22193e-08 4.34329e-09)
(5.79681e-08 -4.07887e-08 5.49845e-09)
(6.68294e-08 -4.71581e-08 6.37473e-09)
(8.47435e-08 -5.82947e-08 6.8768e-09)
(1.12483e-07 -1.01065e-07 6.98343e-09)
(3.21536e-08 6.97695e-08 9.54902e-08)
(5.38562e-08 4.83187e-08 1.26351e-07)
(5.72866e-08 2.51613e-08 1.47967e-07)
(5.6495e-08 6.55784e-09 1.66086e-07)
(5.70569e-08 -1.02899e-08 1.84243e-07)
(6.19912e-08 -2.87736e-08 2.04724e-07)
(7.40355e-08 -5.81334e-08 2.28945e-07)
(9.07429e-08 -1.26825e-07 2.55446e-07)
(3.71655e-09 5.02654e-08 8.60661e-08)
(1.00293e-08 3.66393e-08 1.16087e-07)
(1.15258e-08 2.03225e-08 1.36313e-07)
(1.10851e-08 3.83421e-09 1.53159e-07)
(1.10553e-08 -1.3758e-08 1.70206e-07)
(1.27833e-08 -3.35304e-08 1.89878e-07)
(1.71079e-08 -6.11618e-08 2.14618e-07)
(2.20552e-08 -1.22283e-07 2.45234e-07)
(-4.10937e-09 4.96349e-08 8.47578e-08)
(-9.83906e-09 3.60216e-08 1.14706e-07)
(-1.0457e-08 1.97636e-08 1.34868e-07)
(-9.17739e-09 3.33087e-09 1.5166e-07)
(-8.39864e-09 -1.42131e-08 1.68653e-07)
(-9.49317e-09 -3.39389e-08 1.88263e-07)
(-1.3375e-08 -6.14852e-08 2.1293e-07)
(-1.82429e-08 -1.22186e-07 2.43487e-07)
(-3.12306e-08 6.74588e-08 9.17713e-08)
(-5.18715e-08 4.63467e-08 1.22382e-07)
(-5.44213e-08 2.3494e-08 1.4377e-07)
(-5.27896e-08 5.07464e-09 1.61717e-07)
(-5.25781e-08 -1.16263e-08 1.79711e-07)
(-5.68544e-08 -2.99596e-08 2.00013e-07)
(-6.84121e-08 -5.90597e-08 2.24037e-07)
(-8.48727e-08 -1.26591e-07 2.50443e-07)
(-8.4387e-08 6.18139e-08 3.15613e-08)
(-1.00577e-07 3.82397e-08 6.40814e-08)
(-1.04101e-07 1.46291e-08 8.3947e-08)
(-1.04273e-07 -3.30135e-09 9.99871e-08)
(-1.06242e-07 -1.89215e-08 1.15805e-07)
(-1.13272e-07 -3.5551e-08 1.33521e-07)
(-1.28361e-07 -6.21822e-08 1.54255e-07)
(-1.5131e-07 -1.27257e-07 1.74039e-07)
(-6.43631e-08 3.17817e-08 4.05105e-09)
(-7.57924e-08 1.42585e-08 2.32919e-08)
(-7.7422e-08 -2.93598e-09 4.14652e-08)
(-7.66964e-08 -1.77282e-08 5.68863e-08)
(-7.80433e-08 -3.16346e-08 7.13138e-08)
(-8.4861e-08 -4.58331e-08 8.60956e-08)
(-1.00991e-07 -6.64184e-08 1.00463e-07)
(-1.27871e-07 -1.20075e-07 1.08919e-07)
(-5.1246e-08 1.95508e-08 1.50743e-09)
(-5.93446e-08 1.51792e-09 1.45088e-08)
(-6.00654e-08 -1.44512e-08 3.01566e-08)
(-5.91251e-08 -2.75098e-08 4.48e-08)
(-6.03867e-08 -3.90345e-08 5.81335e-08)
(-6.7383e-08 -4.95468e-08 7.01956e-08)
(-8.42213e-08 -6.46974e-08 7.94108e-08)
(-1.12194e-07 -1.11906e-07 8.20995e-08)
(-4.44344e-08 1.49042e-08 2.4507e-09)
(-5.07565e-08 -3.72676e-09 1.27164e-08)
(-5.12338e-08 -2.00707e-08 2.53681e-08)
(-5.04892e-08 -3.25551e-08 3.79041e-08)
(-5.19924e-08 -4.2367e-08 4.9208e-08)
(-5.92546e-08 -5.02712e-08 5.85033e-08)
(-7.63188e-08 -6.25424e-08 6.44097e-08)
(-1.04203e-07 -1.06805e-07 6.5276e-08)
(-4.11231e-08 1.31217e-08 2.76199e-09)
(-4.67969e-08 -5.54785e-09 1.09269e-08)
(-4.73598e-08 -2.21242e-08 2.05576e-08)
(-4.69251e-08 -3.44266e-08 3.0258e-08)
(-4.87305e-08 -4.3374e-08 3.89515e-08)
(-5.61872e-08 -5.0042e-08 4.57278e-08)
(-7.32105e-08 -6.12022e-08 4.96509e-08)
(-1.00694e-07 -1.04062e-07 5.0138e-08)
(-3.94722e-08 1.24213e-08 2.33422e-09)
(-4.5003e-08 -6.04174e-09 8.29124e-09)
(-4.57409e-08 -2.25527e-08 1.50226e-08)
(-4.55726e-08 -3.47365e-08 2.17769e-08)
(-4.76095e-08 -4.33559e-08 2.77948e-08)
(-5.51714e-08 -4.96334e-08 3.238e-08)
(-7.20785e-08 -6.05006e-08 3.49673e-08)
(-9.91871e-08 -1.02638e-07 3.53682e-08)
(-3.86301e-08 1.21392e-08 1.51173e-09)
(-4.41552e-08 -6.09658e-09 5.12459e-09)
(-4.50335e-08 -2.24458e-08 9.09428e-09)
(-4.50396e-08 -3.45299e-08 1.30442e-08)
(-4.7216e-08 -4.30593e-08 1.65471e-08)
(-5.48248e-08 -4.92913e-08 1.91979e-08)
(-7.16321e-08 -6.01458e-08 2.06981e-08)
(-9.84832e-08 -1.01917e-07 2.09818e-08)
(-3.82638e-08 1.20356e-08 5.19363e-10)
(-4.37969e-08 -6.06367e-09 1.72823e-09)
(-4.47454e-08 -2.23019e-08 3.03887e-09)
(-4.48339e-08 -3.43279e-08 4.33589e-09)
(-4.70734e-08 -4.28428e-08 5.4832e-09)
(-5.46989e-08 -4.91029e-08 6.35052e-09)
(-7.1453e-08 -5.99913e-08 6.84453e-09)
(-9.81767e-08 -1.01611e-07 6.94733e-09)
(9.09918e-08 -2.06911e-07 1.81745e-07)
(7.48103e-08 -1.93076e-07 1.13035e-07)
(6.31692e-08 -1.81538e-07 8.36457e-08)
(5.81914e-08 -1.73907e-07 6.5412e-08)
(5.68059e-08 -1.69275e-07 4.98069e-08)
(5.66543e-08 -1.66571e-07 3.50409e-08)
(5.67329e-08 -1.65077e-07 2.07896e-08)
(5.67825e-08 -1.64409e-07 6.88758e-09)
(2.23071e-08 -1.97182e-07 1.76723e-07)
(1.78673e-08 -1.79252e-07 1.15636e-07)
(1.39797e-08 -1.6721e-07 8.80697e-08)
(1.24592e-08 -1.6033e-07 6.85063e-08)
(1.23123e-08 -1.56498e-07 5.13516e-08)
(1.25565e-08 -1.54308e-07 3.56699e-08)
(1.27742e-08 -1.53074e-07 2.10101e-08)
(1.2879e-08 -1.52508e-07 6.93993e-09)
(-1.79735e-08 -1.95947e-07 1.76101e-07)
(-1.26025e-08 -1.78061e-07 1.15429e-07)
(-8.16029e-09 -1.66076e-07 8.79425e-08)
(-6.28386e-09 -1.59237e-07 6.84144e-08)
(-5.89849e-09 -1.55433e-07 5.1287e-08)
(-5.98728e-09 -1.53261e-07 3.56278e-08)
(-6.1122e-09 -1.52037e-07 2.09866e-08)
(-6.17381e-09 -1.51477e-07 6.93241e-09)
(-8.46028e-08 -2.0344e-07 1.79938e-07)
(-6.76418e-08 -1.89661e-07 1.12377e-07)
(-5.54676e-08 -1.78271e-07 8.32326e-08)
(-5.01311e-08 -1.70757e-07 6.51204e-08)
(-4.85064e-08 -1.66205e-07 4.96069e-08)
(-4.81992e-08 -1.63554e-07 3.49126e-08)
(-4.81844e-08 -1.62092e-07 2.07185e-08)
(-4.81901e-08 -1.6144e-07 6.86486e-09)
)
;
        gradient        uniform (0 0 0);
    }
    symmetry
    {
        type            solidSymmetry;
        patchType       symmetry;
        secondOrder     false;
        value           nonuniform List<vector> 
32
(
(9.87374e-09 7.46558e-09 0)
(1.68414e-08 -5.98211e-09 0)
(1.7952e-08 -2.04412e-08 0)
(1.78436e-08 -3.25413e-08 0)
(1.92396e-08 -4.25462e-08 0)
(2.48729e-08 -5.17658e-08 0)
(3.76691e-08 -6.58776e-08 0)
(5.52025e-08 -1.06239e-07 0)
(-3.72634e-10 -1.84504e-09 0)
(1.20595e-09 -1.19106e-08 0)
(1.78967e-09 -2.32868e-08 0)
(1.83244e-09 -3.47985e-08 0)
(2.3836e-09 -4.60371e-08 0)
(4.52837e-09 -5.69367e-08 0)
(9.02918e-09 -6.99342e-08 0)
(1.38666e-08 -1.02204e-07 0)
(4.27346e-10 -2.07338e-09 0)
(-1.66563e-10 -1.23327e-08 0)
(4.0885e-10 -2.37807e-08 0)
(1.49361e-09 -3.53052e-08 0)
(2.00677e-09 -4.65362e-08 0)
(8.34556e-10 -5.74207e-08 0)
(-2.86547e-09 -7.037e-08 0)
(-7.25322e-09 -1.02285e-07 0)
(-8.76407e-09 6.24283e-09 0)
(-1.44068e-08 -7.4706e-09 0)
(-1.43917e-08 -2.19916e-08 0)
(-1.31658e-08 -3.40958e-08 0)
(-1.34632e-08 -4.40672e-08 0)
(-1.80634e-08 -5.32251e-08 0)
(-2.99518e-08 -6.71745e-08 0)
(-4.67955e-08 -1.06519e-07 0)
)
;
    }
    bottom
    {
        type            fixedDisplacement;
        value           uniform (0 0 0);
    }
}


// ************************************************************************* //
