/*--------------------------------*- C++ -*----------------------------------*\
| =========                 |                                                 |
| \\      /  F ield         | OpenFOAM: The Open Source CFD Toolbox           |
|  \\    /   O peration     | Version:  v1912                                 |
|   \\  /    A nd           | Website:  www.openfoam.com                      |
|    \\/     M anipulation  |                                                 |
\*---------------------------------------------------------------------------*/
FoamFile
{
    version     2.0;
    format      ascii;
    class       volVectorField;
    location    "0.95/solid";
    object      D_0_0;
}
// * * * * * * * * * * * * * * * * * * * * * * * * * * * * * * * * * * * * * //

dimensions      [0 1 0 0 0 0 0];


internalField   nonuniform List<vector> 
256
(
(3.13234e-08 4.33087e-08 3.48744e-08)
(4.45755e-09 2.55605e-08 3.19991e-08)
(-4.59626e-09 2.50978e-08 3.17535e-08)
(-3.02403e-08 4.14672e-08 3.42098e-08)
(5.21972e-08 3.43239e-08 6.93978e-08)
(1.10116e-08 2.30626e-08 6.55176e-08)
(-1.04059e-08 2.24892e-08 6.51454e-08)
(-4.99245e-08 3.24859e-08 6.83532e-08)
(5.55075e-08 1.59858e-08 8.95524e-08)
(1.26167e-08 1.14301e-08 8.52579e-08)
(-1.10646e-08 1.08796e-08 8.48581e-08)
(-5.22839e-08 1.43466e-08 8.84045e-08)
(5.48646e-08 -1.31957e-09 1.05521e-07)
(1.23486e-08 -3.70952e-09 1.00634e-07)
(-9.8935e-09 -4.21274e-09 1.00215e-07)
(-5.07333e-08 -2.80238e-09 1.04306e-07)
(5.56193e-08 -1.83814e-08 1.21256e-07)
(1.25207e-08 -2.15134e-08 1.15679e-07)
(-9.23687e-09 -2.1971e-08 1.15233e-07)
(-5.06335e-08 -1.97269e-08 1.19956e-07)
(6.07125e-08 -3.78356e-08 1.38881e-07)
(1.44251e-08 -4.24494e-08 1.32689e-07)
(-1.04081e-08 -4.28619e-08 1.32206e-07)
(-5.49698e-08 -3.90371e-08 1.37468e-07)
(7.27491e-08 -6.7331e-08 1.59468e-07)
(1.87448e-08 -7.07273e-08 1.53345e-07)
(-1.4163e-08 -7.10585e-08 1.52813e-07)
(-6.6402e-08 -6.82884e-08 1.57913e-07)
(8.91832e-08 -1.30857e-07 1.79081e-07)
(2.33717e-08 -1.26576e-07 1.74307e-07)
(-1.85724e-08 -1.26516e-07 1.73718e-07)
(-8.24601e-08 -1.30737e-07 1.77378e-07)
(2.17017e-08 1.93374e-08 8.13195e-09)
(2.41243e-09 4.73048e-09 9.68486e-09)
(-2.37542e-09 4.45712e-09 9.68436e-09)
(-2.05172e-08 1.79726e-08 8.12551e-09)
(3.66041e-08 1.21354e-08 3.00481e-08)
(7.06077e-09 2.7068e-09 3.30819e-08)
(-6.08866e-09 2.24285e-09 3.30291e-08)
(-3.41153e-08 1.05571e-08 2.98918e-08)
(3.86046e-08 -1.05844e-09 4.87144e-08)
(8.20863e-09 -4.97444e-09 5.22052e-08)
(-6.18776e-09 -5.47976e-09 5.21249e-08)
(-3.50965e-08 -2.59963e-09 4.8473e-08)
(3.76044e-08 -1.54339e-08 6.41563e-08)
(7.90593e-09 -1.76122e-08 6.76284e-08)
(-4.91127e-09 -1.80968e-08 6.75321e-08)
(-3.3131e-08 -1.6885e-08 6.38593e-08)
(3.80695e-08 -3.08194e-08 7.85954e-08)
(8.06909e-09 -3.39013e-08 8.18687e-08)
(-4.18239e-09 -3.43503e-08 8.17516e-08)
(-3.26784e-08 -3.21599e-08 7.82295e-08)
(4.30027e-08 -4.80341e-08 9.33619e-08)
(9.98026e-09 -5.27425e-08 9.64006e-08)
(-5.29508e-09 -5.31537e-08 9.62536e-08)
(-3.67792e-08 -4.92509e-08 9.29013e-08)
(5.54868e-08 -7.1874e-08 1.07526e-07)
(1.44302e-08 -7.52416e-08 1.10452e-07)
(-9.10933e-09 -7.55881e-08 1.1027e-07)
(-4.85693e-08 -7.2888e-08 1.06956e-07)
(7.32787e-08 -1.23734e-07 1.15543e-07)
(1.9259e-08 -1.18117e-07 1.18499e-07)
(-1.36442e-08 -1.18106e-07 1.18298e-07)
(-6.58859e-08 -1.23744e-07 1.14907e-07)
(1.48472e-08 1.16912e-08 3.95154e-09)
(5.83545e-10 -4.25813e-10 6.08702e-09)
(-5.1748e-10 -6.57294e-10 6.09466e-09)
(-1.36731e-08 1.04348e-08 3.97383e-09)
(2.50623e-08 8.38192e-10 1.86432e-08)
(3.37286e-09 -6.9012e-09 2.26943e-08)
(-2.313e-09 -7.32204e-09 2.26813e-08)
(-2.25414e-08 -6.4566e-10 1.8611e-08)
(2.61297e-08 -1.22254e-08 3.45432e-08)
(4.05933e-09 -1.55419e-08 3.91886e-08)
(-1.88638e-09 -1.60244e-08 3.91529e-08)
(-2.25339e-08 -1.3727e-08 3.44453e-08)
(2.50545e-08 -2.5059e-08 4.90846e-08)
(3.74078e-09 -2.71368e-08 5.38166e-08)
(-5.3137e-10 -2.76173e-08 5.37623e-08)
(-2.04362e-08 -2.6518e-08 4.89277e-08)
(2.55059e-08 -3.80898e-08 6.23095e-08)
(3.92279e-09 -4.1246e-08 6.69669e-08)
(2.38308e-10 -4.1704e-08 6.68922e-08)
(-1.99086e-08 -3.94725e-08 6.20865e-08)
(3.0532e-08 -5.17177e-08 7.42753e-08)
(5.86577e-09 -5.65696e-08 7.88057e-08)
(-8.47618e-10 -5.7001e-08 7.87065e-08)
(-2.40338e-08 -5.30068e-08 7.39733e-08)
(4.33853e-08 -7.02337e-08 8.33861e-08)
(1.04241e-08 -7.3717e-08 8.77701e-08)
(-4.71071e-09 -7.40965e-08 8.76484e-08)
(-3.61154e-08 -7.13521e-08 8.30071e-08)
(6.16476e-08 -1.15607e-07 8.60117e-08)
(1.53848e-08 -1.09933e-07 9.02914e-08)
(-9.31341e-09 -1.09966e-07 9.01664e-08)
(-5.38175e-08 -1.15743e-07 8.56071e-08)
(1.1693e-08 9.20055e-09 3.48759e-09)
(-2.12486e-10 -1.42606e-09 4.88887e-09)
(2.77928e-10 -1.65294e-09 4.89067e-09)
(-1.05489e-08 7.96671e-09 3.49881e-09)
(1.96203e-08 -3.70788e-09 1.44469e-08)
(1.64134e-09 -1.04103e-08 1.71177e-08)
(-5.77015e-10 -1.08243e-08 1.71098e-08)
(-1.71303e-08 -5.17775e-09 1.44373e-08)
(2.03583e-08 -1.77392e-08 2.71042e-08)
(2.11884e-09 -2.06975e-08 3.01537e-08)
(8.73653e-11 -2.11775e-08 3.01308e-08)
(-1.67628e-08 -1.92453e-08 2.70529e-08)
(1.94915e-08 -3.01187e-08 3.94568e-08)
(1.87378e-09 -3.218e-08 4.25273e-08)
(1.41285e-09 -3.26667e-08 4.24881e-08)
(-1.48291e-08 -3.1607e-08 3.93559e-08)
(2.01897e-08 -4.14264e-08 5.05875e-08)
(2.15602e-09 -4.46777e-08 5.35715e-08)
(2.13184e-09 -4.51511e-08 5.35145e-08)
(-1.44966e-08 -4.28634e-08 5.043e-08)
(2.5431e-08 -5.24105e-08 5.97746e-08)
(4.16951e-09 -5.73897e-08 6.26522e-08)
(1.02619e-09 -5.78449e-08 6.25762e-08)
(-1.87794e-08 -5.37764e-08 5.95552e-08)
(3.83855e-08 -6.79767e-08 6.56896e-08)
(8.74881e-09 -7.16894e-08 6.84737e-08)
(-2.80709e-09 -7.20989e-08 6.8383e-08)
(-3.08989e-08 -6.91882e-08 6.54164e-08)
(5.65276e-08 -1.10492e-07 6.66815e-08)
(1.37089e-08 -1.05401e-07 6.94816e-08)
(-7.35612e-09 -1.05467e-07 6.93917e-08)
(-4.84139e-08 -1.10724e-07 6.63965e-08)
(1.05047e-08 8.20214e-09 3.1245e-09)
(-4.12225e-10 -1.67359e-09 3.83443e-09)
(4.73195e-10 -1.90014e-09 3.83429e-09)
(-9.3849e-09 6.97994e-09 3.13033e-09)
(1.76381e-08 -5.31559e-09 1.14603e-08)
(1.15362e-09 -1.15188e-08 1.27989e-08)
(-1.0185e-10 -1.1935e-08 1.27935e-08)
(-1.51865e-08 -6.78915e-09 1.14577e-08)
(1.84059e-08 -1.98252e-08 2.09822e-08)
(1.61107e-09 -2.26453e-08 2.24797e-08)
(5.92403e-10 -2.31306e-08 2.24652e-08)
(-1.48372e-08 -2.13496e-08 2.09555e-08)
(1.78255e-08 -3.20692e-08 3.04993e-08)
(1.47349e-09 -3.41744e-08 3.19588e-08)
(1.8371e-09 -3.4671e-08 3.19324e-08)
(-1.31615e-08 -3.35911e-08 3.04375e-08)
(1.88101e-08 -4.24744e-08 3.90362e-08)
(1.86928e-09 -4.58148e-08 4.04043e-08)
(2.47888e-09 -4.63035e-08 4.03642e-08)
(-1.30772e-08 -4.39609e-08 3.89318e-08)
(2.42261e-08 -5.21344e-08 4.57378e-08)
(3.94404e-09 -5.72025e-08 4.70264e-08)
(1.35229e-09 -5.76778e-08 4.69723e-08)
(-1.74902e-08 -5.35634e-08 4.55878e-08)
(3.71248e-08 -6.64873e-08 4.97174e-08)
(8.49637e-09 -7.03852e-08 5.09705e-08)
(-2.41282e-09 -7.08175e-08 5.09064e-08)
(-2.95052e-08 -6.77692e-08 4.95298e-08)
(5.50082e-08 -1.07699e-07 5.03526e-08)
(1.3411e-08 -1.0315e-07 5.16748e-08)
(-6.87455e-09 -1.03238e-07 5.16122e-08)
(-4.67113e-08 -1.07999e-07 5.01581e-08)
(1.00776e-08 7.74918e-09 2.45137e-09)
(-4.16697e-10 -1.77103e-09 2.77071e-09)
(4.73476e-10 -1.9972e-09 2.77039e-09)
(-8.97408e-09 6.53565e-09 2.4549e-09)
(1.70229e-08 -5.79177e-09 8.40267e-09)
(1.11519e-09 -1.17913e-08 8.9842e-09)
(-7.66622e-11 -1.22099e-08 8.98095e-09)
(-1.46008e-08 -7.26893e-09 8.40272e-09)
(1.79325e-08 -2.03257e-08 1.50163e-08)
(1.62111e-09 -2.31243e-08 1.56377e-08)
(5.70973e-10 -2.36153e-08 1.56291e-08)
(-1.43905e-08 -2.18664e-08 1.5003e-08)
(1.75919e-08 -3.24558e-08 2.16319e-08)
(1.5764e-09 -3.4623e-08 2.22e-08)
(1.73744e-09 -3.51285e-08 2.21838e-08)
(-1.29388e-08 -3.40056e-08 2.15965e-08)
(1.87913e-08 -4.249e-08 2.75411e-08)
(2.05721e-09 -4.58986e-08 2.80376e-08)
(2.31811e-09 -4.63994e-08 2.80121e-08)
(-1.30438e-08 -4.40144e-08 2.74772e-08)
(2.43094e-08 -5.16787e-08 3.20853e-08)
(4.16949e-09 -5.67962e-08 3.25335e-08)
(1.18288e-09 -5.72861e-08 3.24986e-08)
(-1.75275e-08 -5.31533e-08 3.19906e-08)
(3.71175e-08 -6.56586e-08 3.47284e-08)
(8.6881e-09 -6.96559e-08 3.51729e-08)
(-2.51796e-09 -7.0104e-08 3.51313e-08)
(-2.94172e-08 -6.69896e-08 3.46087e-08)
(5.4778e-08 -1.06215e-07 3.52422e-08)
(1.35587e-08 -1.01994e-07 3.57504e-08)
(-6.9051e-09 -1.02098e-07 3.57099e-08)
(-4.63649e-08 -1.06563e-07 3.51182e-08)
(9.90883e-09 7.54697e-09 1.55054e-09)
(-3.91877e-10 -1.80651e-09 1.68283e-09)
(4.45648e-10 -2.03232e-09 1.68267e-09)
(-8.81509e-09 6.33905e-09 1.55258e-09)
(1.68304e-08 -5.87138e-09 5.13248e-09)
(1.15977e-09 -1.17958e-08 5.36153e-09)
(-1.30925e-10 -1.2216e-08 5.35991e-09)
(-1.4427e-08 -7.35023e-09 5.13321e-09)
(1.78611e-08 -2.0278e-08 9.02397e-09)
(1.71279e-09 -2.30919e-08 9.25281e-09)
(4.68944e-10 -2.35867e-08 9.24841e-09)
(-1.43379e-08 -2.18293e-08 9.01802e-09)
(1.76756e-08 -3.23014e-08 1.28919e-08)
(1.72867e-09 -3.45184e-08 1.30815e-08)
(1.58215e-09 -3.50301e-08 1.30729e-08)
(-1.30332e-08 -3.38695e-08 1.2874e-08)
(1.90031e-08 -4.22127e-08 1.63342e-08)
(2.26004e-09 -4.56642e-08 1.64812e-08)
(2.12626e-09 -4.61731e-08 1.64674e-08)
(-1.32514e-08 -4.37617e-08 1.63003e-08)
(2.45716e-08 -5.1302e-08 1.8966e-08)
(4.39152e-09 -5.64416e-08 1.90891e-08)
(9.89994e-10 -5.69409e-08 1.90698e-08)
(-1.77658e-08 -5.28058e-08 1.89144e-08)
(3.73096e-08 -6.52189e-08 2.05022e-08)
(8.88624e-09 -6.92559e-08 2.06308e-08)
(-2.66713e-09 -6.97138e-08 2.06077e-08)
(-2.95632e-08 -6.65806e-08 2.04363e-08)
(5.48218e-08 -1.05446e-07 2.08529e-08)
(1.37266e-08 -1.01383e-07 2.10209e-08)
(-7.00432e-09 -1.01496e-07 2.09984e-08)
(-4.63403e-08 -1.05824e-07 2.07846e-08)
(9.84246e-09 7.47099e-09 5.29161e-10)
(-3.77887e-10 -1.81423e-09 5.65346e-10)
(4.30116e-10 -2.03984e-09 5.65306e-10)
(-8.75327e-09 6.26576e-09 5.29844e-10)
(1.67644e-08 -5.85523e-09 1.72547e-09)
(1.18768e-09 -1.17552e-08 1.78579e-09)
(-1.63813e-10 -1.2176e-08 1.78531e-09)
(-1.43701e-08 -7.33467e-09 1.72583e-09)
(1.78564e-08 -2.01644e-08 3.00974e-09)
(1.76506e-09 -2.29919e-08 3.0668e-09)
(4.10933e-10 -2.34886e-08 3.06546e-09)
(-1.43426e-08 -2.17206e-08 3.00807e-09)
(1.77439e-08 -3.21245e-08 4.28007e-09)
(1.8094e-09 -3.43677e-08 4.32328e-09)
(1.49868e-09 -3.48824e-08 4.3206e-09)
(-1.31075e-08 -3.37015e-08 4.27464e-09)
(1.9129e-08 -4.20043e-08 5.40821e-09)
(2.3634e-09 -4.54759e-08 5.43759e-09)
(2.02654e-09 -4.59887e-08 5.43321e-09)
(-1.33764e-08 -4.35654e-08 5.39763e-09)
(2.47175e-08 -5.1096e-08 6.27004e-09)
(4.50277e-09 -5.62431e-08 6.29242e-09)
(8.91062e-10 -5.6747e-08 6.28629e-09)
(-1.79015e-08 -5.26138e-08 6.25374e-09)
(3.74199e-08 -6.5023e-08 6.77613e-09)
(8.98597e-09 -6.90716e-08 6.8015e-09)
(-2.74487e-09 -6.95342e-08 6.79413e-09)
(-2.96527e-08 -6.63995e-08 6.75517e-09)
(5.48598e-08 -1.05113e-07 6.90095e-09)
(1.38114e-08 -1.01109e-07 6.93922e-09)
(-7.0575e-09 -1.01226e-07 6.93205e-09)
(-4.63465e-08 -1.05505e-07 6.87917e-09)
)
;

boundaryField
{
    interface
    {
        type            solidTraction;
        traction        uniform (0 0 0);
        pressure        uniform 0;
        secondOrder     false;
        setEffectiveTraction false;
        relaxationFactor 1;
        value           nonuniform List<vector> 
192
(
(9.06269e-08 6.41888e-08 3.21455e-08)
(1.07875e-07 4.03699e-08 6.48452e-08)
(1.12388e-07 1.66526e-08 8.4632e-08)
(1.13556e-07 -1.29157e-09 1.0058e-07)
(1.1645e-07 -1.69193e-08 1.16334e-07)
(1.2426e-07 -3.3553e-08 1.34008e-07)
(1.39923e-07 -6.0213e-08 1.54733e-07)
(1.6329e-07 -1.26091e-07 1.74573e-07)
(7.066e-08 3.39138e-08 4.01268e-09)
(8.32148e-08 1.63611e-08 2.3264e-08)
(8.58973e-08 -8.084e-10 4.13696e-08)
(8.62328e-08 -1.55677e-08 5.67033e-08)
(8.85905e-08 -2.94697e-08 7.10666e-08)
(9.62934e-08 -4.36796e-08 8.58164e-08)
(1.1311e-07 -6.43047e-08 1.00185e-07)
(1.40512e-07 -1.18738e-07 1.08659e-07)
(5.7429e-08 2.16686e-08 1.44921e-09)
(6.67549e-08 3.65876e-09 1.43969e-08)
(6.86018e-08 -1.22274e-08 2.99813e-08)
(6.87883e-08 -2.52149e-08 4.45561e-08)
(7.11371e-08 -3.67203e-08 5.78392e-08)
(7.91134e-08 -4.72476e-08 6.98821e-08)
(9.67472e-08 -6.24544e-08 7.91105e-08)
(1.25348e-07 -1.10464e-07 8.18237e-08)
(5.04977e-08 1.70289e-08 2.40185e-09)
(5.80763e-08 -1.54161e-09 1.25907e-08)
(5.97205e-08 -1.77715e-08 2.51731e-08)
(6.01513e-08 -3.01607e-08 3.76493e-08)
(6.28021e-08 -3.99414e-08 4.89134e-08)
(7.11187e-08 -4.78612e-08 5.8198e-08)
(8.90708e-08 -6.02021e-08 6.41243e-08)
(1.17681e-07 -1.05291e-07 6.50215e-08)
(4.7094e-08 1.52378e-08 2.72056e-09)
(5.40218e-08 -3.3403e-09 1.08108e-08)
(5.57673e-08 -1.97784e-08 2.03757e-08)
(5.65382e-08 -3.1968e-08 3.00243e-08)
(5.95343e-08 -4.08741e-08 3.86865e-08)
(6.81014e-08 -4.75554e-08 4.54573e-08)
(8.60821e-08 -5.87914e-08 4.94003e-08)
(1.14368e-07 -1.02493e-07 4.99151e-08)
(4.5381e-08 1.45243e-08 2.30237e-09)
(5.21566e-08 -3.82805e-09 8.20065e-09)
(5.40812e-08 -2.01834e-08 1.488e-08)
(5.51356e-08 -3.22411e-08 2.15943e-08)
(5.83919e-08 -4.08105e-08 2.75892e-08)
(6.71032e-08 -4.70968e-08 3.21716e-08)
(8.50164e-08 -5.8041e-08 3.47745e-08)
(1.12981e-07 -1.0103e-07 3.51955e-08)
(4.45016e-08 1.42318e-08 1.49174e-09)
(5.12639e-08 -3.88333e-09 5.06782e-09)
(5.33292e-08 -2.00667e-08 9.00487e-09)
(5.45667e-08 -3.20158e-08 1.29299e-08)
(5.79796e-08 -4.04885e-08 1.64186e-08)
(6.67622e-08 -4.67251e-08 1.90679e-08)
(8.4606e-08 -5.76559e-08 2.05777e-08)
(1.12346e-07 -1.00284e-07 2.08734e-08)
(4.41179e-08 1.41227e-08 5.12561e-10)
(5.08842e-08 -3.85177e-09 1.70897e-09)
(5.30193e-08 -1.99195e-08 3.00855e-09)
(5.4343e-08 -3.18063e-08 4.29711e-09)
(5.7827e-08 -4.02607e-08 5.43967e-09)
(6.6638e-08 -4.65229e-08 6.30651e-09)
(8.44431e-08 -5.7487e-08 6.8037e-09)
(1.12072e-07 -9.99653e-08 6.91043e-09)
(3.19697e-08 6.93769e-08 9.52314e-08)
(5.35045e-08 4.79936e-08 1.25762e-07)
(5.68953e-08 2.50168e-08 1.47132e-07)
(5.61143e-08 6.6065e-09 1.65044e-07)
(5.66873e-08 -1.00413e-08 1.83006e-07)
(6.16024e-08 -2.82825e-08 2.03287e-07)
(7.35874e-08 -5.7281e-08 2.27306e-07)
(9.0245e-08 -1.25507e-07 2.53671e-07)
(3.67767e-09 4.99397e-08 8.58187e-08)
(9.94919e-09 3.63775e-08 1.15515e-07)
(1.1444e-08 2.02092e-08 1.35506e-07)
(1.10229e-08 3.89573e-09 1.52159e-07)
(1.10158e-08 -1.34995e-08 1.69025e-07)
(1.27572e-08 -3.30326e-08 1.88507e-07)
(1.70819e-08 -6.03228e-08 2.13038e-07)
(2.20323e-08 -1.20999e-07 2.43492e-07)
(-4.04326e-09 4.93226e-08 8.45295e-08)
(-9.69632e-09 3.57654e-08 1.14161e-07)
(-1.02772e-08 1.96471e-08 1.34094e-07)
(-8.97455e-09 3.38111e-09 1.50698e-07)
(-8.16671e-09 -1.39732e-08 1.67513e-07)
(-9.21244e-09 -3.3467e-08 1.86936e-07)
(-1.30201e-08 -6.06805e-08 2.11398e-07)
(-1.78035e-08 -1.20949e-07 2.41797e-07)
(-3.10416e-08 6.7108e-08 9.1569e-08)
(-5.14891e-08 4.60347e-08 1.21877e-07)
(-5.3965e-08 2.33349e-08 1.43037e-07)
(-5.23019e-08 5.08549e-09 1.60791e-07)
(-5.20503e-08 -1.14363e-08 1.78601e-07)
(-5.6246e-08 -2.95478e-08 1.98714e-07)
(-6.76725e-08 -5.83111e-08 2.22546e-07)
(-8.40008e-08 -1.25414e-07 2.48824e-07)
(-8.42235e-08 6.15085e-08 3.13784e-08)
(-1.00231e-07 3.7997e-08 6.36188e-08)
(-1.03683e-07 1.45489e-08 8.32673e-08)
(-1.03823e-07 -3.21493e-09 9.91214e-08)
(-1.05752e-07 -1.86678e-08 1.14759e-07)
(-1.12704e-07 -3.5095e-08 1.32283e-07)
(-1.27664e-07 -6.14159e-08 1.5282e-07)
(-1.50489e-07 -1.26089e-07 1.72464e-07)
(-6.42725e-08 3.16307e-08 3.98366e-09)
(-7.5566e-08 1.4202e-08 2.3046e-08)
(-7.71461e-08 -2.84563e-09 4.10355e-08)
(-7.64003e-08 -1.74895e-08 5.6285e-08)
(-7.7715e-08 -3.12478e-08 7.05482e-08)
(-8.44562e-08 -4.52782e-08 8.51673e-08)
(-1.00441e-07 -6.56113e-08 9.93843e-08)
(-1.27166e-07 -1.18913e-07 1.07746e-07)
(-5.12223e-08 1.94884e-08 1.48172e-09)
(-5.92364e-08 1.56957e-09 1.43648e-08)
(-5.99264e-08 -1.42533e-08 2.98619e-08)
(-5.89737e-08 -2.71743e-08 4.43522e-08)
(-6.02069e-08 -3.85731e-08 5.7541e-08)
(-6.71258e-08 -4.89551e-08 6.94734e-08)
(-8.38098e-08 -6.39061e-08 7.85896e-08)
(-1.1161e-07 -1.10806e-07 8.12392e-08)
(-4.44471e-08 1.48865e-08 2.42672e-09)
(-5.07124e-08 -3.62426e-09 1.25985e-08)
(-5.11687e-08 -1.98206e-08 2.51287e-08)
(-5.04141e-08 -3.21735e-08 3.75372e-08)
(-5.1889e-08 -4.18758e-08 4.87222e-08)
(-5.90722e-08 -4.96758e-08 5.79193e-08)
(-7.59801e-08 -6.17795e-08 6.37638e-08)
(-1.03691e-07 -1.05763e-07 6.462e-08)
(-4.11519e-08 1.31228e-08 2.73661e-09)
(-4.67807e-08 -5.42607e-09 1.08253e-08)
(-4.7326e-08 -2.18558e-08 2.03624e-08)
(-4.6881e-08 -3.40311e-08 2.9965e-08)
(-4.86568e-08 -4.28787e-08 3.85686e-08)
(-5.6034e-08 -4.94563e-08 4.52748e-08)
(-7.29026e-08 -6.04638e-08 4.91594e-08)
(-1.00216e-07 -1.03058e-07 4.96459e-08)
(-3.95072e-08 1.24294e-08 2.31243e-09)
(-4.49971e-08 -5.91482e-09 8.21285e-09)
(-4.5718e-08 -2.22819e-08 1.48782e-08)
(-4.55385e-08 -3.43422e-08 2.15644e-08)
(-4.75447e-08 -4.28671e-08 2.75207e-08)
(-5.5027e-08 -4.90599e-08 3.20596e-08)
(-7.17819e-08 -5.97801e-08 3.46233e-08)
(-9.8725e-08 -1.01659e-07 3.50255e-08)
(-3.86674e-08 1.21496e-08 1.49738e-09)
(-4.41529e-08 -5.96953e-09 5.07552e-09)
(-4.50139e-08 -2.21778e-08 9.00604e-09)
(-4.50079e-08 -3.41411e-08 1.29162e-08)
(-4.7153e-08 -4.25785e-08 1.63834e-08)
(-5.46825e-08 -4.87277e-08 1.9008e-08)
(-7.13395e-08 -5.94369e-08 2.04952e-08)
(-9.80282e-08 -1.00954e-07 2.078e-08)
(-3.83019e-08 1.20466e-08 5.14388e-10)
(-4.37957e-08 -5.93733e-09 1.71158e-09)
(-4.47267e-08 -2.20363e-08 3.00925e-09)
(-4.48027e-08 -3.3943e-08 4.2932e-09)
(-4.70106e-08 -4.23669e-08 5.42889e-09)
(-5.45571e-08 -4.85447e-08 6.28769e-09)
(-7.11618e-08 -5.92881e-08 6.77754e-09)
(-9.77246e-08 -1.00654e-07 6.88074e-09)
(9.04975e-08 -2.05518e-07 1.79975e-07)
(7.43739e-08 -1.91683e-07 1.11731e-07)
(6.28021e-08 -1.80209e-07 8.27012e-08)
(5.78567e-08 -1.72637e-07 6.47043e-08)
(5.64751e-08 -1.68047e-07 4.92833e-08)
(5.63168e-08 -1.65372e-07 3.46791e-08)
(5.63884e-08 -1.63896e-07 2.05774e-08)
(5.6434e-08 -1.63237e-07 6.81767e-09)
(2.22875e-08 -1.9583e-07 1.7498e-07)
(1.78529e-08 -1.77924e-07 1.14338e-07)
(1.39753e-08 -1.65955e-07 8.71125e-08)
(1.24534e-08 -1.59125e-07 6.77861e-08)
(1.22968e-08 -1.55328e-07 5.08231e-08)
(1.25301e-08 -1.53161e-07 3.53084e-08)
(1.27398e-08 -1.51942e-07 2.07995e-08)
(1.28405e-08 -1.51384e-07 6.87078e-09)
(-1.7531e-08 -1.94653e-07 1.74399e-07)
(-1.22364e-08 -1.76789e-07 1.1416e-07)
(-7.85986e-09 -1.64874e-07 8.70066e-08)
(-6.02464e-09 -1.58083e-07 6.771e-08)
(-5.66146e-09 -1.54312e-07 5.077e-08)
(-5.76195e-09 -1.52162e-07 3.52742e-08)
(-5.89318e-09 -1.50952e-07 2.07806e-08)
(-5.9577e-09 -1.50399e-07 6.86473e-09)
(-8.37275e-08 -2.02224e-07 1.78291e-07)
(-6.6891e-08 -1.88437e-07 1.11158e-07)
(-5.48405e-08 -1.77105e-07 8.23521e-08)
(-4.95793e-08 -1.69643e-07 6.44606e-08)
(-4.79906e-08 -1.65129e-07 4.91181e-08)
(-4.76995e-08 -1.62503e-07 3.45744e-08)
(-4.76923e-08 -1.61056e-07 2.05199e-08)
(-4.77013e-08 -1.60411e-07 6.7994e-09)
)
;
        gradient        uniform (0 0 0);
    }
    symmetry
    {
        type            solidSymmetry;
        patchType       symmetry;
        secondOrder     false;
        value           nonuniform List<vector> 
32
(
(9.84246e-09 7.47099e-09 0)
(1.67644e-08 -5.85523e-09 0)
(1.78564e-08 -2.01644e-08 0)
(1.77439e-08 -3.21245e-08 0)
(1.9129e-08 -4.20043e-08 0)
(2.47175e-08 -5.1096e-08 0)
(3.74199e-08 -6.5023e-08 0)
(5.48598e-08 -1.05113e-07 0)
(-3.77887e-10 -1.81423e-09 0)
(1.18768e-09 -1.17552e-08 0)
(1.76506e-09 -2.29919e-08 0)
(1.8094e-09 -3.43677e-08 0)
(2.3634e-09 -4.54759e-08 0)
(4.50277e-09 -5.62431e-08 0)
(8.98597e-09 -6.90716e-08 0)
(1.38114e-08 -1.01109e-07 0)
(4.30116e-10 -2.03984e-09 0)
(-1.63813e-10 -1.2176e-08 0)
(4.10933e-10 -2.34886e-08 0)
(1.49868e-09 -3.48824e-08 0)
(2.02654e-09 -4.59887e-08 0)
(8.91062e-10 -5.6747e-08 0)
(-2.74487e-09 -6.95342e-08 0)
(-7.0575e-09 -1.01226e-07 0)
(-8.75327e-09 6.26576e-09 0)
(-1.43701e-08 -7.33467e-09 0)
(-1.43426e-08 -2.17206e-08 0)
(-1.31075e-08 -3.37015e-08 0)
(-1.33764e-08 -4.35654e-08 0)
(-1.79015e-08 -5.26138e-08 0)
(-2.96527e-08 -6.63995e-08 0)
(-4.63465e-08 -1.05505e-07 0)
)
;
    }
    bottom
    {
        type            fixedDisplacement;
        value           uniform (0 0 0);
    }
}


// ************************************************************************* //
