/*--------------------------------*- C++ -*----------------------------------*\
| =========                 |                                                 |
| \\      /  F ield         | OpenFOAM: The Open Source CFD Toolbox           |
|  \\    /   O peration     | Version:  v1912                                 |
|   \\  /    A nd           | Website:  www.openfoam.com                      |
|    \\/     M anipulation  |                                                 |
\*---------------------------------------------------------------------------*/
FoamFile
{
    version     2.0;
    format      ascii;
    class       volScalarField;
    location    "0.95/solid";
    object      epsilonEq;
}
// * * * * * * * * * * * * * * * * * * * * * * * * * * * * * * * * * * * * * //

dimensions      [0 0 0 0 0 0 0];


internalField   nonuniform List<scalar> 
256
(
3.0364e-06
2.09865e-06
2.05921e-06
2.86264e-06
1.67877e-06
1.37986e-06
1.35278e-06
1.5546e-06
1.61889e-06
1.24828e-06
1.22267e-06
1.49359e-06
1.68639e-06
1.21957e-06
1.19424e-06
1.55779e-06
1.72825e-06
1.21954e-06
1.19432e-06
1.59727e-06
1.67543e-06
1.19723e-06
1.17243e-06
1.54374e-06
1.2909e-06
1.03707e-06
1.01769e-06
1.17097e-06
3.08598e-07
1.1692e-06
1.15971e-06
3.11111e-07
1.74149e-06
4.8529e-07
4.68377e-07
1.56825e-06
1.22421e-06
4.74774e-07
4.60669e-07
1.07392e-06
1.16932e-06
3.57973e-07
3.47307e-07
1.01997e-06
1.16836e-06
2.40386e-07
2.34245e-07
1.01658e-06
1.18765e-06
2.02177e-07
2.00904e-07
1.03273e-06
1.20655e-06
2.34646e-07
2.33344e-07
1.04883e-06
1.10734e-06
2.43955e-07
2.46633e-07
9.52106e-07
1.29229e-06
1.0408e-06
1.02082e-06
1.17053e-06
1.40473e-06
3.11555e-07
3.0397e-07
1.23238e-06
1.15537e-06
2.89627e-07
2.78885e-07
1.00242e-06
1.123e-06
2.09409e-07
2.01737e-07
9.69543e-07
1.12287e-06
1.60912e-07
1.61503e-07
9.66582e-07
1.15092e-06
1.77969e-07
1.83367e-07
9.91125e-07
1.20022e-06
1.94531e-07
1.97031e-07
1.03694e-06
1.20448e-06
2.31578e-07
2.306e-07
1.04466e-06
1.68064e-06
1.20452e-06
1.17884e-06
1.54549e-06
1.23985e-06
2.96648e-07
2.94862e-07
1.07327e-06
1.08231e-06
2.83416e-07
2.80151e-07
9.36958e-07
1.05629e-06
2.2827e-07
2.28341e-07
9.08322e-07
1.05496e-06
2.09345e-07
2.15589e-07
9.02629e-07
1.08649e-06
2.15095e-07
2.24301e-07
9.29637e-07
1.14548e-06
1.91638e-07
1.98708e-07
9.83786e-07
1.18171e-06
1.89364e-07
1.9048e-07
1.02238e-06
1.74724e-06
1.2332e-06
1.20677e-06
1.61059e-06
1.14533e-06
2.58552e-07
2.59167e-07
9.81803e-07
1.01292e-06
2.6326e-07
2.63001e-07
8.71501e-07
9.94175e-07
2.2365e-07
2.26084e-07
8.49242e-07
9.97307e-07
2.05234e-07
2.12806e-07
8.47125e-07
1.03583e-06
2.00602e-07
2.10765e-07
8.80754e-07
1.10283e-06
1.60924e-07
1.68893e-07
9.42294e-07
1.1551e-06
1.78369e-07
1.77827e-07
9.96382e-07
1.73922e-06
1.23444e-06
1.20754e-06
1.60204e-06
1.0913e-06
2.20409e-07
2.22173e-07
9.28829e-07
9.63474e-07
2.30431e-07
2.31047e-07
8.22955e-07
9.50266e-07
1.92592e-07
1.95543e-07
8.05828e-07
9.59789e-07
1.67778e-07
1.76088e-07
8.09865e-07
1.00579e-06
1.56394e-07
1.67461e-07
8.51059e-07
1.08004e-06
1.13243e-07
1.20995e-07
9.19848e-07
1.14383e-06
1.9196e-07
1.88366e-07
9.85612e-07
1.72717e-06
1.2339e-06
1.20653e-06
1.58941e-06
1.06158e-06
1.89425e-07
1.91828e-07
8.99262e-07
9.33417e-07
1.98878e-07
1.99697e-07
7.92628e-07
9.23522e-07
1.55637e-07
1.58811e-07
7.78598e-07
9.38086e-07
1.2269e-07
1.32529e-07
7.87709e-07
9.89579e-07
1.08307e-07
1.21619e-07
8.34618e-07
1.06917e-06
6.76011e-08
7.56352e-08
9.08983e-07
1.14098e-06
2.09034e-07
2.03519e-07
9.83136e-07
1.72135e-06
1.23391e-06
1.20619e-06
1.58314e-06
1.04825e-06
1.7115e-07
1.73896e-07
8.8587e-07
9.19368e-07
1.79242e-07
1.8011e-07
7.78222e-07
9.11027e-07
1.30055e-07
1.33497e-07
7.65657e-07
9.28218e-07
8.91603e-08
1.01407e-07
7.77463e-07
9.82498e-07
7.32643e-08
9.03886e-08
8.27312e-07
1.06484e-06
3.14569e-08
4.25947e-08
9.04597e-07
1.14074e-06
2.18708e-07
2.12393e-07
9.831e-07
1.71959e-06
1.23404e-06
1.20616e-06
1.58113e-06
)
;

boundaryField
{
    interface
    {
        type            calculated;
        value           nonuniform List<scalar> 
192
(
3.7749e-06
2.2872e-06
2.23725e-06
2.33655e-06
2.40959e-06
2.3835e-06
2.02668e-06
1.12818e-06
2.71714e-06
2.04131e-06
1.99386e-06
2.03822e-06
2.10275e-06
2.15328e-06
2.062e-06
2.02904e-06
2.33714e-06
1.96764e-06
1.95194e-06
1.99681e-06
2.07101e-06
2.15459e-06
2.15512e-06
2.39196e-06
2.10831e-06
1.84751e-06
1.84747e-06
1.89418e-06
1.97384e-06
2.07137e-06
2.10784e-06
2.43581e-06
1.96928e-06
1.74032e-06
1.75007e-06
1.80209e-06
1.88868e-06
1.99568e-06
2.05047e-06
2.40511e-06
1.88828e-06
1.66769e-06
1.68312e-06
1.74088e-06
1.83393e-06
1.94787e-06
2.0138e-06
2.37576e-06
1.8438e-06
1.62527e-06
1.64375e-06
1.7057e-06
1.80328e-06
1.92176e-06
1.99441e-06
2.35893e-06
1.82406e-06
1.60601e-06
1.62586e-06
1.68992e-06
1.78974e-06
1.91043e-06
1.98628e-06
2.35192e-06
3.80401e-06
2.3141e-06
2.26629e-06
2.36881e-06
2.44348e-06
2.41486e-06
2.05018e-06
1.13275e-06
3.11813e-06
2.22329e-06
2.10144e-06
2.11971e-06
2.16441e-06
2.17477e-06
2.02593e-06
1.93389e-06
3.05704e-06
2.1771e-06
2.05559e-06
2.07295e-06
2.11691e-06
2.12692e-06
1.98151e-06
1.9049e-06
3.60164e-06
2.17252e-06
2.12252e-06
2.22028e-06
2.29208e-06
2.26333e-06
1.91451e-06
1.11013e-06
3.49862e-06
2.05187e-06
1.99735e-06
2.09042e-06
2.15797e-06
2.12696e-06
1.7701e-06
9.0208e-07
2.41891e-06
1.76917e-06
1.71954e-06
1.75802e-06
1.81613e-06
1.86052e-06
1.76742e-06
1.77017e-06
2.04381e-06
1.69724e-06
1.67864e-06
1.71757e-06
1.78489e-06
1.86105e-06
1.85919e-06
2.13035e-06
1.82291e-06
1.58562e-06
1.58137e-06
1.6212e-06
1.69315e-06
1.78189e-06
1.8143e-06
2.17558e-06
1.68868e-06
1.48348e-06
1.48848e-06
1.53308e-06
1.61157e-06
1.70902e-06
1.75882e-06
2.14582e-06
1.61018e-06
1.41304e-06
1.42349e-06
1.47369e-06
1.55855e-06
1.66267e-06
1.72334e-06
2.11686e-06
1.56688e-06
1.37143e-06
1.38482e-06
1.43921e-06
1.52862e-06
1.63723e-06
1.70467e-06
2.10019e-06
1.5476e-06
1.3524e-06
1.36712e-06
1.42365e-06
1.51534e-06
1.62616e-06
1.69688e-06
2.09324e-06
1.13745e-06
2.05485e-06
2.42516e-06
2.47217e-06
2.44172e-06
2.41151e-06
2.39392e-06
2.38653e-06
1.93708e-06
2.03298e-06
2.18838e-06
2.19073e-06
2.16124e-06
2.13593e-06
2.11978e-06
2.11213e-06
1.90762e-06
1.9876e-06
2.13911e-06
2.14114e-06
2.11144e-06
2.08586e-06
2.06951e-06
2.06176e-06
1.11264e-06
1.91652e-06
2.26925e-06
2.31382e-06
2.28245e-06
2.25144e-06
2.23323e-06
2.22551e-06
)
;
    }
    symmetry
    {
        type            symmetry;
    }
    bottom
    {
        type            calculated;
        value           nonuniform List<scalar> 
32
(
4.42081e-06
2.3188e-06
1.74792e-06
1.52362e-06
1.41196e-06
1.35155e-06
1.31915e-06
1.30482e-06
2.79906e-06
6.15362e-07
2.95412e-07
2.76367e-07
2.41376e-07
2.04694e-07
1.74195e-07
1.55866e-07
2.74861e-06
5.91565e-07
2.77898e-07
2.6456e-07
2.30639e-07
1.93449e-07
1.61622e-07
1.41992e-07
4.19632e-06
2.1218e-06
1.55227e-06
1.33218e-06
1.22349e-06
1.16461e-06
1.13284e-06
1.11871e-06
)
;
    }
}


// ************************************************************************* //
