/*--------------------------------*- C++ -*----------------------------------*\
| =========                 |                                                 |
| \\      /  F ield         | OpenFOAM: The Open Source CFD Toolbox           |
|  \\    /   O peration     | Version:  v1912                                 |
|   \\  /    A nd           | Website:  www.openfoam.com                      |
|    \\/     M anipulation  |                                                 |
\*---------------------------------------------------------------------------*/
FoamFile
{
    version     2.0;
    format      ascii;
    class       pointVectorField;
    location    "0.95/solid";
    object      pointD;
}
// * * * * * * * * * * * * * * * * * * * * * * * * * * * * * * * * * * * * * //

dimensions      [0 1 0 0 0 0 0];


internalField   nonuniform List<vector> 
405
(
(4.11372e-08 4.49973e-08 4.2774e-08)
(9.02264e-09 3.01871e-08 4.55152e-08)
(-1.05082e-10 2.51336e-08 4.28246e-08)
(-8.8983e-09 2.9438e-08 4.42394e-08)
(-3.86556e-08 4.33078e-08 4.12382e-08)
(7.15678e-08 5.61171e-08 8.02915e-08)
(2.51009e-08 5.15728e-08 1.06414e-07)
(-7.34079e-11 4.34279e-08 1.00801e-07)
(-2.44565e-08 5.01716e-08 1.03773e-07)
(-6.72849e-08 5.37656e-08 7.77849e-08)
(8.34474e-08 3.28794e-08 1.06954e-07)
(3.33984e-08 3.28211e-08 1.32377e-07)
(2.74003e-10 2.83735e-08 1.26165e-07)
(-3.19363e-08 3.16171e-08 1.29568e-07)
(-7.81413e-08 3.08757e-08 1.04137e-07)
(8.55542e-08 1.17395e-08 1.26156e-07)
(3.43246e-08 1.40064e-08 1.51799e-07)
(6.83574e-10 1.18431e-08 1.44882e-07)
(-3.20423e-08 1.29703e-08 1.48849e-07)
(-7.93476e-08 1.00109e-08 1.23152e-07)
(8.65017e-08 -5.80654e-09 1.43449e-07)
(3.41334e-08 -3.56696e-09 1.69535e-07)
(1.05658e-09 -5.35231e-09 1.61987e-07)
(-3.10983e-08 -4.47933e-09 1.66465e-07)
(-7.94586e-08 -7.32661e-09 1.40286e-07)
(9.05607e-08 -2.30251e-08 1.61763e-07)
(3.59246e-08 -2.19598e-08 1.88565e-07)
(1.37326e-09 -2.42244e-08 1.80501e-07)
(-3.22434e-08 -2.276e-08 1.85373e-07)
(-8.27841e-08 -2.43393e-08 1.58429e-07)
(1.00734e-07 -4.62429e-08 1.82845e-07)
(4.16975e-08 -4.60664e-08 2.11043e-07)
(1.60774e-09 -4.81783e-08 2.0287e-07)
(-3.75295e-08 -4.67158e-08 2.07716e-07)
(-9.23766e-08 -4.72792e-08 1.79314e-07)
(1.17759e-07 -9.44846e-08 2.05929e-07)
(5.12279e-08 -9.31675e-08 2.37737e-07)
(1.69724e-09 -9.28131e-08 2.30696e-07)
(-4.68263e-08 -9.33145e-08 2.34298e-07)
(-1.09018e-07 -9.4729e-08 2.02213e-07)
(1.157e-07 -1.55073e-07 2.0625e-07)
(5.67756e-08 -1.64628e-07 2.16535e-07)
(1.82355e-09 -1.60682e-07 2.12096e-07)
(-5.2079e-08 -1.63262e-07 2.14146e-07)
(-1.0778e-07 -1.53605e-07 2.03076e-07)
(4.05123e-08 2.47697e-08 9.18802e-09)
(0 0 0)
(0 0 0)
(0 0 0)
(-3.72506e-08 2.35121e-08 8.9652e-09)
(8.86239e-08 3.90912e-08 3.16245e-08)
(2.11224e-08 2.0816e-08 3.59611e-08)
(1.62335e-10 1.39039e-08 3.55983e-08)
(-2.00805e-08 1.97575e-08 3.56002e-08)
(-8.14856e-08 3.67114e-08 3.09846e-08)
(9.80601e-08 1.82395e-08 5.45675e-08)
(2.81129e-08 1.17062e-08 6.03429e-08)
(6.00509e-10 7.76248e-09 6.00079e-08)
(-2.60917e-08 1.06368e-08 5.98351e-08)
(-8.97888e-08 1.61208e-08 5.36482e-08)
(1.00266e-07 -5.22627e-10 7.22772e-08)
(2.88515e-08 -2.37356e-09 7.82447e-08)
(1.05527e-09 -4.26452e-09 7.78177e-08)
(-2.5924e-08 -3.3482e-09 7.76677e-08)
(-9.09827e-08 -2.4159e-09 7.12119e-08)
(1.01942e-07 -1.6446e-08 8.80072e-08)
(2.87439e-08 -1.84767e-08 9.38255e-08)
(1.46529e-09 -2.00504e-08 9.31901e-08)
(-2.499e-08 -1.93438e-08 9.31887e-08)
(-9.1705e-08 -1.81348e-08 8.68134e-08)
(1.0715e-07 -3.19321e-08 1.04017e-07)
(3.06631e-08 -3.67699e-08 1.09614e-07)
(1.82126e-09 -3.89102e-08 1.08737e-07)
(-2.61828e-08 -3.75251e-08 1.08905e-07)
(-9.60526e-08 -3.3394e-08 1.02673e-07)
(1.19244e-07 -5.19838e-08 1.2127e-07)
(3.65977e-08 -5.988e-08 1.2665e-07)
(2.10034e-09 -6.20454e-08 1.25636e-07)
(-3.15383e-08 -6.04883e-08 1.25852e-07)
(-1.07426e-07 -5.31373e-08 1.19747e-07)
(1.40194e-07 -9.46075e-08 1.37431e-07)
(4.62839e-08 -1.0035e-07 1.42709e-07)
(2.23819e-09 -9.99689e-08 1.41842e-07)
(-4.08903e-08 -1.00493e-07 1.41823e-07)
(-1.27825e-07 -9.49512e-08 1.35726e-07)
(1.18154e-07 -1.6324e-07 1.46777e-07)
(5.17289e-08 -1.95464e-07 1.48306e-07)
(2.203e-09 -1.88914e-07 1.47467e-07)
(-4.63132e-08 -1.9302e-07 1.47412e-07)
(-1.08642e-07 -1.61291e-07 1.45213e-07)
(3.21469e-08 1.40202e-08 1.42463e-09)
(0 0 0)
(0 0 0)
(0 0 0)
(-2.89309e-08 1.28862e-08 1.41287e-09)
(6.98746e-08 1.90198e-08 1.10695e-08)
(1.41413e-08 5.47909e-09 1.6909e-08)
(2.58893e-10 -2.29079e-10 1.82581e-08)
(-1.29485e-08 4.59184e-09 1.68545e-08)
(-6.27989e-08 1.6832e-08 1.09601e-08)
(7.66146e-08 1.56284e-09 2.78967e-08)
(1.89009e-08 -3.37895e-09 3.56429e-08)
(7.60388e-10 -6.69162e-09 3.75333e-08)
(-1.66198e-08 -4.35614e-09 3.55076e-08)
(-6.83438e-08 -4.72005e-10 2.76329e-08)
(7.78958e-08 -1.39778e-08 4.4157e-08)
(1.91782e-08 -1.54162e-08 5.22852e-08)
(1.26189e-09 -1.70989e-08 5.43004e-08)
(-1.59055e-08 -1.63589e-08 5.209e-08)
(-6.85437e-08 -1.58692e-08 4.37682e-08)
(7.91885e-08 -2.75953e-08 5.88884e-08)
(1.89759e-08 -2.95231e-08 6.70094e-08)
(1.71164e-09 -3.10587e-08 6.89828e-08)
(-1.47998e-08 -3.03903e-08 6.67604e-08)
(-6.88033e-08 -2.93288e-08 5.8382e-08)
(8.43082e-08 -4.04668e-08 7.28215e-08)
(2.08608e-08 -4.53703e-08 8.08443e-08)
(2.105e-09 -4.75491e-08 8.27189e-08)
(-1.58811e-08 -4.6146e-08 8.05332e-08)
(-7.29629e-08 -4.20067e-08 7.21827e-08)
(9.69614e-08 -5.60359e-08 8.57093e-08)
(2.69379e-08 -6.42016e-08 9.35465e-08)
(2.4215e-09 -6.64198e-08 9.53224e-08)
(-2.12969e-08 -6.48535e-08 9.31664e-08)
(-8.47717e-08 -5.73052e-08 8.49237e-08)
(1.19761e-07 -9.1225e-08 9.46108e-08)
(3.70505e-08 -9.70752e-08 1.02173e-07)
(2.59808e-09 -9.65462e-08 1.03892e-07)
(-3.09872e-08 -9.72945e-08 1.01742e-07)
(-1.06882e-07 -9.17326e-08 9.37007e-08)
(1.01621e-07 -1.52933e-07 9.84701e-08)
(4.26575e-08 -1.8159e-07 1.01218e-07)
(2.60654e-09 -1.73909e-07 1.02879e-07)
(-3.64794e-08 -1.79226e-07 1.00816e-07)
(-9.14591e-08 -1.51133e-07 9.76846e-08)
(2.70574e-08 9.73744e-09 9.95981e-10)
(0 0 0)
(0 0 0)
(0 0 0)
(-2.39231e-08 8.63375e-09 1.00191e-09)
(5.84194e-08 1.01888e-08 7.89714e-09)
(9.69024e-09 -2.63507e-10 1.16613e-08)
(2.81736e-10 -5.11136e-09 1.29554e-08)
(-8.47227e-09 -1.11107e-09 1.16412e-08)
(-5.14868e-08 8.04365e-09 7.8733e-09)
(6.36166e-08 -7.29831e-09 2.09931e-08)
(1.29607e-08 -1.11761e-08 2.60252e-08)
(8.10669e-10 -1.40133e-08 2.78336e-08)
(-1.06036e-08 -1.213e-08 2.59585e-08)
(-5.544e-08 -9.33136e-09 2.08852e-08)
(6.46566e-08 -2.20024e-08 3.50984e-08)
(1.30177e-08 -2.32573e-08 4.03258e-08)
(1.34455e-09 -2.48026e-08 4.22575e-08)
(-9.6058e-09 -2.42027e-08 4.02102e-08)
(-5.53374e-08 -2.39351e-08 3.48922e-08)
(6.60522e-08 -3.39691e-08 4.82917e-08)
(1.28883e-08 -3.59653e-08 5.34197e-08)
(1.82794e-09 -3.75141e-08 5.53305e-08)
(-8.50606e-09 -3.68587e-08 5.3255e-08)
(-5.56277e-08 -3.57803e-08 4.79816e-08)
(7.14095e-08 -4.41864e-08 6.00255e-08)
(1.48758e-08 -4.92364e-08 6.50049e-08)
(2.25444e-09 -5.14839e-08 6.68503e-08)
(-9.62114e-09 -5.00582e-08 6.47872e-08)
(-5.99371e-08 -4.58356e-08 5.96024e-08)
(8.45173e-08 -5.60373e-08 6.9357e-08)
(2.10894e-08 -6.43919e-08 7.41923e-08)
(2.60345e-09 -6.67065e-08 7.59626e-08)
(-1.51024e-08 -6.51083e-08 7.39226e-08)
(-7.20939e-08 -5.74453e-08 6.88189e-08)
(1.07928e-07 -8.67386e-08 7.41642e-08)
(3.13507e-08 -9.28109e-08 7.89187e-08)
(2.813e-09 -9.24129e-08 8.06385e-08)
(-2.48669e-08 -9.31087e-08 7.86189e-08)
(-9.46963e-08 -8.74058e-08 7.35405e-08)
(9.16834e-08 -1.4468e-07 7.52234e-08)
(3.71242e-08 -1.72007e-07 7.72373e-08)
(2.85911e-09 -1.64413e-07 7.90586e-08)
(-3.0446e-08 -1.69738e-07 7.69686e-08)
(-8.1067e-08 -1.43033e-07 7.46922e-08)
(2.44493e-08 8.10212e-09 1.31106e-09)
(0 0 0)
(0 0 0)
(0 0 0)
(-2.13793e-08 7.01067e-09 1.31541e-09)
(5.25886e-08 6.77517e-09 7.2871e-09)
(7.7829e-09 -2.23331e-09 9.08128e-09)
(2.84427e-10 -6.60181e-09 9.85335e-09)
(-6.57311e-09 -3.07767e-09 9.06784e-09)
(-4.57831e-08 4.63661e-09 7.28068e-09)
(5.71444e-08 -1.09919e-08 1.76057e-08)
(1.04379e-08 -1.44087e-08 1.99762e-08)
(8.22981e-10 -1.69892e-08 2.10493e-08)
(-8.07081e-09 -1.53697e-08 1.99352e-08)
(-4.90775e-08 -1.30512e-08 1.75545e-08)
(5.8308e-08 -2.56279e-08 2.8912e-08)
(1.05156e-08 -2.69032e-08 3.12899e-08)
(1.37604e-09 -2.83939e-08 3.24189e-08)
(-7.05491e-09 -2.78684e-08 3.1214e-08)
(-4.90578e-08 -2.76152e-08 2.87935e-08)
(6.00214e-08 -3.67266e-08 3.96588e-08)
(1.05713e-08 -3.88777e-08 4.18776e-08)
(1.88434e-09 -4.04627e-08 4.29705e-08)
(-6.08973e-09 -3.98052e-08 4.17626e-08)
(-4.96102e-08 -3.8618e-08 3.94598e-08)
(6.56998e-08 -4.52997e-08 4.88583e-08)
(1.27249e-08 -5.04917e-08 5.09184e-08)
(2.33784e-09 -5.28035e-08 5.19531e-08)
(-7.31502e-09 -5.1361e-08 5.07618e-08)
(-5.41715e-08 -4.70515e-08 4.85708e-08)
(7.90523e-08 -5.51532e-08 5.5487e-08)
(1.90147e-08 -6.35998e-08 5.7467e-08)
(2.71411e-09 -6.60111e-08 5.84509e-08)
(-1.28139e-08 -6.43742e-08 5.72721e-08)
(-6.64902e-08 -5.6681e-08 5.51129e-08)
(1.02479e-07 -8.37405e-08 5.83713e-08)
(2.92321e-08 -9.00081e-08 6.0403e-08)
(2.95102e-09 -8.98233e-08 6.13761e-08)
(-2.24744e-08 -9.03682e-08 6.01885e-08)
(-8.90162e-08 -8.45343e-08 5.79365e-08)
(8.7321e-08 -1.39541e-07 5.84775e-08)
(3.51107e-08 -1.66217e-07 5.93865e-08)
(3.02659e-09 -1.59033e-07 6.05043e-08)
(-2.80965e-08 -1.64019e-07 5.91966e-08)
(-7.63974e-08 -1.3801e-07 5.81063e-08)
(2.31602e-08 7.46583e-09 1.28319e-09)
(0 0 0)
(0 0 0)
(0 0 0)
(-2.01331e-08 6.38352e-09 1.28574e-09)
(4.98045e-08 5.55991e-09 6.13665e-09)
(7.15346e-09 -2.89949e-09 6.86829e-09)
(2.82633e-10 -7.03983e-09 7.23924e-09)
(-5.95619e-09 -3.74561e-09 6.85935e-09)
(-4.3089e-08 3.42457e-09 6.1349e-09)
(5.42262e-08 -1.21781e-08 1.38541e-08)
(9.66879e-09 -1.54791e-08 1.47717e-08)
(8.23845e-10 -1.79538e-08 1.52757e-08)
(-7.30987e-09 -1.64522e-08 1.47464e-08)
(-4.62456e-08 -1.42618e-08 1.38284e-08)
(5.56218e-08 -2.67548e-08 2.21811e-08)
(9.86695e-09 -2.81355e-08 2.30241e-08)
(1.38739e-09 -2.96256e-08 2.35347e-08)
(-6.39284e-09 -2.91225e-08 2.2976e-08)
(-4.64345e-08 -2.87895e-08 2.21134e-08)
(5.7652e-08 -3.74556e-08 3.01071e-08)
(1.01078e-08 -3.97584e-08 3.08024e-08)
(1.91238e-09 -4.13856e-08 3.12725e-08)
(-5.5787e-09 -4.07167e-08 3.07267e-08)
(-4.72652e-08 -3.94134e-08 2.99838e-08)
(6.35896e-08 -4.53003e-08 3.67551e-08)
(1.2402e-08 -5.05911e-08 3.73294e-08)
(2.38589e-09 -5.29516e-08 3.77539e-08)
(-6.90325e-09 -5.14993e-08 3.72237e-08)
(-5.20355e-08 -4.71335e-08 3.65686e-08)
(7.70365e-08 -5.43768e-08 4.13291e-08)
(1.87161e-08 -6.28487e-08 4.18718e-08)
(2.7833e-09 -6.53265e-08 4.22676e-08)
(-1.23819e-08 -6.36673e-08 4.17392e-08)
(-6.4389e-08 -5.59954e-08 4.10811e-08)
(1.00292e-07 -8.20697e-08 4.32365e-08)
(2.8837e-08 -8.84434e-08 4.3863e-08)
(3.04148e-09 -8.84185e-08 4.42676e-08)
(-2.19001e-08 -8.88489e-08 4.37173e-08)
(-8.66789e-08 -8.29561e-08 4.29461e-08)
(8.57632e-08 -1.36586e-07 4.31684e-08)
(3.47567e-08 -1.62845e-07 4.34092e-08)
(3.13883e-09 -1.56005e-07 4.39221e-08)
(-2.75177e-08 -1.60695e-07 4.32808e-08)
(-7.46348e-08 -1.35136e-07 4.29195e-08)
(2.25085e-08 7.21138e-09 9.68972e-10)
(0 0 0)
(0 0 0)
(0 0 0)
(-1.95077e-08 6.13557e-09 9.70447e-10)
(4.84589e-08 5.17025e-09 4.35631e-09)
(6.97903e-09 -3.10241e-09 4.6364e-09)
(2.80306e-10 -7.14237e-09 4.79428e-09)
(-5.79166e-09 -3.94979e-09 4.63112e-09)
(-4.17996e-08 3.03808e-09 4.35601e-09)
(5.29204e-08 -1.23809e-08 9.48527e-09)
(9.51251e-09 -1.56923e-08 9.80163e-09)
(8.21762e-10 -1.81338e-08 1.00068e-08)
(-7.16364e-09 -1.66745e-08 9.78707e-09)
(-4.49965e-08 -1.44807e-08 9.47249e-09)
(5.45182e-08 -2.68263e-08 1.49136e-08)
(9.82829e-09 -2.83114e-08 1.51536e-08)
(1.39072e-09 -2.98199e-08 1.53477e-08)
(-6.35302e-09 -2.93149e-08 1.51255e-08)
(-4.53747e-08 -2.88941e-08 1.48767e-08)
(5.67764e-08 -3.73509e-08 2.00547e-08)
(1.02026e-08 -3.97631e-08 2.01931e-08)
(1.92592e-09 -4.14252e-08 2.03556e-08)
(-5.6514e-09 -4.0744e-08 2.01478e-08)
(-4.64093e-08 -3.93554e-08 1.99839e-08)
(6.28781e-08 -4.49683e-08 2.43261e-08)
(1.2587e-08 -5.03156e-08 2.43908e-08)
(2.41276e-09 -5.27072e-08 2.45242e-08)
(-7.03865e-09 -5.12514e-08 2.43266e-08)
(-5.13107e-08 -4.68583e-08 2.42153e-08)
(7.63475e-08 -5.38502e-08 2.72234e-08)
(1.89019e-08 -6.23166e-08 2.72805e-08)
(2.82492e-09 -6.48297e-08 2.74002e-08)
(-1.24872e-08 -6.31654e-08 2.71991e-08)
(-6.3647e-08 -5.55309e-08 2.70734e-08)
(9.94315e-08 -8.11903e-08 2.8452e-08)
(2.89396e-08 -8.76006e-08 2.8576e-08)
(3.09805e-09 -8.76637e-08 2.87072e-08)
(-2.18907e-08 -8.80363e-08 2.84864e-08)
(-8.57219e-08 -8.21389e-08 2.82751e-08)
(8.52493e-08 -1.34949e-07 2.84161e-08)
(3.48621e-08 -1.60918e-07 2.84128e-08)
(3.21023e-09 -1.54282e-07 2.86051e-08)
(-2.748e-08 -1.58799e-07 2.83341e-08)
(-7.39898e-08 -1.33552e-07 2.82641e-08)
(2.21916e-08 7.1104e-09 5.11865e-10)
(0 0 0)
(0 0 0)
(0 0 0)
(-1.92049e-08 6.03837e-09 5.12566e-10)
(4.78229e-08 5.06544e-09 2.242e-09)
(6.93132e-09 -3.14443e-09 2.33926e-09)
(2.78644e-10 -7.14273e-09 2.39618e-09)
(-5.74997e-09 -3.99237e-09 2.33686e-09)
(-4.11941e-08 2.93551e-09 2.24207e-09)
(5.23362e-08 -1.23138e-08 4.79737e-09)
(9.49946e-09 -1.56534e-08 4.89485e-09)
(8.19776e-10 -1.80879e-08 4.96508e-09)
(-7.15754e-09 -1.66409e-08 4.88824e-09)
(-4.44439e-08 -1.44221e-08 4.79203e-09)
(5.40576e-08 -2.66391e-08 7.46621e-09)
(9.88933e-09 -2.81914e-08 7.52094e-09)
(1.39126e-09 -2.97164e-08 7.58187e-09)
(-6.41572e-09 -2.92047e-08 7.50808e-09)
(-4.49393e-08 -2.87257e-08 7.44993e-09)
(5.64442e-08 -3.70879e-08 9.98131e-09)
(1.03386e-08 -3.95619e-08 9.9864e-09)
(1.93187e-09 -4.12458e-08 1.00309e-08)
(-5.77797e-09 -4.05564e-08 9.96539e-09)
(-4.60892e-08 -3.91196e-08 9.94908e-09)
(6.26312e-08 -4.46675e-08 1.20629e-08)
(1.27699e-08 -5.0042e-08 1.20347e-08)
(2.42623e-09 -5.24501e-08 1.20654e-08)
(-7.19669e-09 -5.09939e-08 1.20045e-08)
(-5.10573e-08 -4.65905e-08 1.20116e-08)
(7.60999e-08 -5.35463e-08 1.3473e-08)
(1.90804e-08 -6.20011e-08 1.34444e-08)
(2.84698e-09 -6.45295e-08 1.347e-08)
(-1.2623e-08 -6.28674e-08 1.34059e-08)
(-6.33704e-08 -5.5263e-08 1.34026e-08)
(9.90723e-08 -8.07606e-08 1.40852e-08)
(2.90671e-08 -8.71759e-08 1.40916e-08)
(3.12891e-09 -8.72781e-08 1.4124e-08)
(-2.19569e-08 -8.76289e-08 1.40491e-08)
(-8.5309e-08 -8.17449e-08 1.40017e-08)
(8.50621e-08 -1.34122e-07 1.40824e-08)
(3.49806e-08 -1.59916e-07 1.40466e-08)
(3.24964e-09 -1.53376e-07 1.4105e-08)
(-2.75193e-08 -1.57813e-07 1.40094e-08)
(-7.37296e-08 -1.32755e-07 1.40105e-08)
(1.8032e-08 7.20883e-09 0)
(2.38445e-09 1.39619e-09 0)
(1.43082e-11 -9.95537e-10 0)
(-2.08757e-09 1.02834e-09 0)
(-1.5667e-08 6.08151e-09 0)
(3.05217e-08 2.86155e-09 0)
(6.9202e-09 -3.14702e-09 0)
(2.78056e-10 -7.13382e-09 0)
(-5.74084e-09 -3.99511e-09 0)
(-2.63108e-08 1.11252e-09 0)
(3.48237e-08 -1.28392e-08 0)
(9.50144e-09 -1.56173e-08 0)
(8.19018e-10 -1.8051e-08 0)
(-7.16194e-09 -1.66064e-08 0)
(-2.9362e-08 -1.46551e-08 0)
(3.59608e-08 -2.66906e-08 0)
(9.91559e-09 -2.81198e-08 0)
(1.39124e-09 -2.96508e-08 0)
(-6.44285e-09 -2.91362e-08 0)
(-2.93242e-08 -2.85059e-08 0)
(3.75001e-08 -3.74966e-08 0)
(1.03886e-08 -3.9466e-08 0)
(1.93354e-09 -4.11571e-08 0)
(-5.8253e-09 -4.04649e-08 0)
(-2.96949e-08 -3.92698e-08 0)
(4.23776e-08 -4.61562e-08 0)
(1.28342e-08 -4.99354e-08 0)
(2.43031e-09 -5.23485e-08 0)
(-7.25335e-09 -5.08926e-08 0)
(-3.34392e-08 -4.78431e-08 0)
(5.37524e-08 -5.65138e-08 0)
(1.91426e-08 -6.18958e-08 0)
(2.85388e-09 -6.44283e-08 0)
(-1.26717e-08 -6.27678e-08 0)
(-4.37661e-08 -5.80319e-08 0)
(7.28481e-08 -8.38376e-08 0)
(2.91125e-08 -8.70447e-08 0)
(3.1387e-09 -8.71576e-08 0)
(-2.19828e-08 -8.75033e-08 0)
(-6.19668e-08 -8.46813e-08 0)
(7.51864e-08 -1.25033e-07 0)
(3.4876e-08 -1.32466e-07 0)
(3.24867e-09 -1.28204e-07 0)
(-2.74405e-08 -1.3147e-07 0)
(-6.48496e-08 -1.24184e-07 0)
)
;

boundaryField
{
    interface
    {
        type            calculated;
    }
    symmetry
    {
        type            symmetry;
    }
    bottom
    {
        type            calculated;
    }
}


// ************************************************************************* //
