/*--------------------------------*- C++ -*----------------------------------*\
| =========                 |                                                 |
| \\      /  F ield         | OpenFOAM: The Open Source CFD Toolbox           |
|  \\    /   O peration     | Version:  v1912                                 |
|   \\  /    A nd           | Website:  www.openfoam.com                      |
|    \\/     M anipulation  |                                                 |
\*---------------------------------------------------------------------------*/
FoamFile
{
    version     2.0;
    format      ascii;
    class       pointVectorField;
    location    "0.95/solid";
    object      pointDD;
}
// * * * * * * * * * * * * * * * * * * * * * * * * * * * * * * * * * * * * * //

dimensions      [0 1 0 0 0 0 0];


internalField   nonuniform List<vector> 
405
(
(1.35222e-10 2.36747e-10 1.57092e-10)
(5.50981e-11 1.78395e-10 1.2612e-10)
(-6.87897e-12 1.58555e-10 1.18595e-10)
(-6.33044e-11 1.64544e-10 1.07118e-10)
(-1.1641e-10 2.16837e-10 1.27341e-10)
(2.85605e-10 3.16356e-10 3.96781e-10)
(1.61949e-10 3.24584e-10 4.15202e-10)
(-2.27585e-11 2.87665e-10 3.96716e-10)
(-1.93887e-10 3.06051e-10 3.68286e-10)
(-2.68297e-10 3.00763e-10 3.35814e-10)
(3.89152e-10 1.85305e-10 6.79231e-10)
(2.23933e-10 2.10688e-10 6.98084e-10)
(-4.07487e-11 1.86733e-10 6.7176e-10)
(-2.89103e-10 2.106e-10 6.36073e-10)
(-3.98457e-10 1.98296e-10 5.91377e-10)
(4.06201e-10 -3.04283e-12 9.02537e-10)
(2.2653e-10 3.74462e-11 9.1756e-10)
(-6.05602e-11 3.03277e-11 8.8234e-10)
(-3.30929e-10 5.45392e-11 8.4478e-10)
(-4.51189e-10 3.67601e-11 7.96427e-10)
(3.98058e-10 -1.96948e-10 1.10165e-09)
(2.10313e-10 -1.52974e-10 1.11107e-09)
(-8.45315e-11 -1.50786e-10 1.06716e-09)
(-3.62364e-10 -1.20844e-10 1.02983e-09)
(-4.87734e-10 -1.32974e-10 9.81358e-10)
(4.03284e-10 -4.12126e-10 1.29942e-09)
(2.02841e-10 -3.7184e-10 1.30206e-09)
(-1.13453e-10 -3.64247e-10 1.2508e-09)
(-4.12338e-10 -3.25503e-10 1.21335e-09)
(-5.47546e-10 -3.24711e-10 1.16665e-09)
(4.42482e-10 -7.03822e-10 1.50218e-09)
(2.17945e-10 -6.66611e-10 1.50106e-09)
(-1.48044e-10 -6.49222e-10 1.44729e-09)
(-4.95838e-10 -6.04913e-10 1.40532e-09)
(-6.51738e-10 -5.91089e-10 1.35765e-09)
(4.94679e-10 -1.10272e-09 1.67464e-09)
(2.42516e-10 -1.06684e-09 1.67611e-09)
(-1.89083e-10 -1.0342e-09 1.62821e-09)
(-6.00645e-10 -9.84067e-10 1.57394e-09)
(-7.79338e-10 -9.56635e-10 1.51974e-09)
(5.06312e-10 -1.34613e-09 1.75006e-09)
(2.51343e-10 -1.32805e-09 1.74787e-09)
(-2.12935e-10 -1.28292e-09 1.70928e-09)
(-6.56042e-10 -1.22106e-09 1.65369e-09)
(-8.51974e-10 -1.17616e-09 1.60215e-09)
(9.50434e-11 1.21533e-10 7.40823e-11)
(0 0 0)
(0 0 0)
(0 0 0)
(-6.31024e-11 1.13201e-10 6.21152e-11)
(2.64153e-10 1.90786e-10 2.78274e-10)
(0 0 0)
(0 0 0)
(0 0 0)
(-2.05658e-10 1.87959e-10 2.38157e-10)
(3.57205e-10 4.78869e-11 5.18994e-10)
(0 0 0)
(0 0 0)
(0 0 0)
(-3.15549e-10 7.29436e-11 4.51819e-10)
(3.7306e-10 -1.33889e-10 7.26686e-10)
(0 0 0)
(0 0 0)
(0 0 0)
(-3.5942e-10 -8.17952e-11 6.40514e-10)
(3.66514e-10 -3.16087e-10 9.16426e-10)
(0 0 0)
(0 0 0)
(0 0 0)
(-3.91187e-10 -2.38367e-10 8.15265e-10)
(3.74549e-10 -5.1223e-10 1.10352e-09)
(0 0 0)
(0 0 0)
(0 0 0)
(-4.48086e-10 -4.08977e-10 9.89164e-10)
(4.22131e-10 -7.71608e-10 1.28972e-09)
(0 0 0)
(0 0 0)
(0 0 0)
(-5.54954e-10 -6.41098e-10 1.16321e-09)
(4.89752e-10 -1.13271e-09 1.44341e-09)
(0 0 0)
(0 0 0)
(0 0 0)
(-6.91704e-10 -9.68072e-10 1.30701e-09)
(4.88998e-10 -1.36242e-09 1.5176e-09)
(2.34785e-10 -1.359e-09 1.52118e-09)
(-1.96589e-10 -1.30396e-09 1.49478e-09)
(-6.08052e-10 -1.24273e-09 1.45047e-09)
(-7.85132e-10 -1.18268e-09 1.39437e-09)
(6.23699e-11 6.21449e-11 2.96073e-11)
(0 0 0)
(0 0 0)
(0 0 0)
(-2.86533e-11 5.30899e-11 2.32518e-11)
(1.79975e-10 5.96078e-11 1.44323e-10)
(0 0 0)
(0 0 0)
(0 0 0)
(-1.12333e-10 5.47622e-11 1.20338e-10)
(2.48716e-10 -9.10913e-11 3.21499e-10)
(0 0 0)
(0 0 0)
(0 0 0)
(-1.87693e-10 -6.93234e-11 2.773e-10)
(2.57992e-10 -2.60706e-10 5.01491e-10)
(0 0 0)
(0 0 0)
(0 0 0)
(-2.165e-10 -2.12952e-10 4.41144e-10)
(2.50769e-10 -4.24862e-10 6.7242e-10)
(0 0 0)
(0 0 0)
(0 0 0)
(-2.40378e-10 -3.52007e-10 5.98632e-10)
(2.62305e-10 -5.92374e-10 8.33682e-10)
(0 0 0)
(0 0 0)
(0 0 0)
(-2.94392e-10 -4.94419e-10 7.4804e-10)
(3.2215e-10 -8.05631e-10 9.78563e-10)
(0 0 0)
(0 0 0)
(0 0 0)
(-4.07581e-10 -6.8131e-10 8.82549e-10)
(4.14226e-10 -1.11509e-09 1.08107e-09)
(0 0 0)
(0 0 0)
(0 0 0)
(-5.62794e-10 -9.58253e-10 9.77751e-10)
(4.28266e-10 -1.32665e-09 1.11863e-09)
(2.00887e-10 -1.32071e-09 1.12136e-09)
(-1.64493e-10 -1.25891e-09 1.10974e-09)
(-5.11399e-10 -1.20905e-09 1.07063e-09)
(-6.65505e-10 -1.15464e-09 1.02765e-09)
(3.8002e-11 3.15522e-11 1.66145e-11)
(0 0 0)
(0 0 0)
(0 0 0)
(-3.01635e-12 2.00174e-11 1.23801e-11)
(1.15264e-10 -7.15224e-12 9.362e-11)
(0 0 0)
(0 0 0)
(0 0 0)
(-4.1435e-11 -1.78748e-11 7.74547e-11)
(1.64506e-10 -1.63225e-10 2.28393e-10)
(0 0 0)
(0 0 0)
(0 0 0)
(-8.99876e-11 -1.48684e-10 1.97749e-10)
(1.7109e-10 -3.28327e-10 3.78459e-10)
(0 0 0)
(0 0 0)
(0 0 0)
(-1.09044e-10 -2.88391e-10 3.35056e-10)
(1.66781e-10 -4.78561e-10 5.24972e-10)
(0 0 0)
(0 0 0)
(0 0 0)
(-1.29362e-10 -4.1374e-10 4.70233e-10)
(1.83774e-10 -6.20503e-10 6.57199e-10)
(0 0 0)
(0 0 0)
(0 0 0)
(-1.82973e-10 -5.30743e-10 5.92327e-10)
(2.52305e-10 -7.96609e-10 7.62431e-10)
(0 0 0)
(0 0 0)
(0 0 0)
(-2.99497e-10 -6.80826e-10 6.88992e-10)
(3.5685e-10 -1.06591e-09 8.2043e-10)
(0 0 0)
(0 0 0)
(0 0 0)
(-4.62168e-10 -9.18095e-10 7.41489e-10)
(3.78401e-10 -1.26237e-09 8.28792e-10)
(1.74339e-10 -1.26024e-09 8.28896e-10)
(-1.39575e-10 -1.19953e-09 8.25381e-10)
(-4.3531e-10 -1.15319e-09 7.91117e-10)
(-5.6817e-10 -1.09844e-09 7.6011e-10)
(2.58448e-11 1.77755e-11 1.51983e-11)
(0 0 0)
(0 0 0)
(0 0 0)
(1.00893e-11 4.20326e-12 1.22362e-11)
(8.34484e-11 -3.51736e-11 7.78658e-11)
(0 0 0)
(0 0 0)
(0 0 0)
(-5.37868e-12 -5.1201e-11 6.66693e-11)
(1.24468e-10 -1.91221e-10 1.83594e-10)
(0 0 0)
(0 0 0)
(0 0 0)
(-4.07329e-11 -1.83813e-10 1.62253e-10)
(1.32432e-10 -3.53045e-10 3.02408e-10)
(0 0 0)
(0 0 0)
(0 0 0)
(-5.58481e-11 -3.21058e-10 2.71606e-10)
(1.33078e-10 -4.93964e-10 4.19111e-10)
(0 0 0)
(0 0 0)
(0 0 0)
(-7.58644e-11 -4.37348e-10 3.79441e-10)
(1.55828e-10 -6.19516e-10 5.20904e-10)
(0 0 0)
(0 0 0)
(0 0 0)
(-1.30287e-10 -5.37984e-10 4.73124e-10)
(2.2953e-10 -7.74164e-10 5.94549e-10)
(0 0 0)
(0 0 0)
(0 0 0)
(-2.47417e-10 -6.66545e-10 5.39967e-10)
(3.37857e-10 -1.0213e-09 6.26635e-10)
(0 0 0)
(0 0 0)
(0 0 0)
(-4.09665e-10 -8.81483e-10 5.67829e-10)
(3.60833e-10 -1.20987e-09 6.21947e-10)
(1.68435e-10 -1.21419e-09 6.17296e-10)
(-1.20712e-10 -1.15822e-09 6.14489e-10)
(-3.91565e-10 -1.11101e-09 5.8943e-10)
(-5.13859e-10 -1.05279e-09 5.70983e-10)
(2.08677e-11 1.27128e-11 1.36872e-11)
(0 0 0)
(0 0 0)
(0 0 0)
(1.56925e-11 -2.23455e-12 1.16846e-11)
(7.09725e-11 -4.39205e-11 6.38373e-11)
(0 0 0)
(0 0 0)
(0 0 0)
(9.82309e-12 -6.37825e-11 5.63113e-11)
(1.10232e-10 -1.97014e-10 1.4323e-10)
(0 0 0)
(0 0 0)
(0 0 0)
(-2.05124e-11 -1.95171e-10 1.28859e-10)
(1.21204e-10 -3.54994e-10 2.30631e-10)
(0 0 0)
(0 0 0)
(0 0 0)
(-3.489e-11 -3.29511e-10 2.09674e-10)
(1.26635e-10 -4.89866e-10 3.1588e-10)
(0 0 0)
(0 0 0)
(0 0 0)
(-5.5756e-11 -4.40115e-10 2.88513e-10)
(1.53944e-10 -6.06864e-10 3.88455e-10)
(0 0 0)
(0 0 0)
(0 0 0)
(-1.10881e-10 -5.32212e-10 3.55089e-10)
(2.30381e-10 -7.51769e-10 4.37974e-10)
(0 0 0)
(0 0 0)
(0 0 0)
(-2.27122e-10 -6.50828e-10 3.99543e-10)
(3.39081e-10 -9.8888e-10 4.5654e-10)
(0 0 0)
(0 0 0)
(0 0 0)
(-3.86374e-10 -8.55394e-10 4.14973e-10)
(3.62069e-10 -1.1734e-09 4.49096e-10)
(1.74423e-10 -1.18223e-09 4.41835e-10)
(-1.06939e-10 -1.13051e-09 4.37989e-10)
(-3.69842e-10 -1.08201e-09 4.22206e-10)
(-4.88086e-10 -1.0216e-09 4.13097e-10)
(1.90968e-11 1.12392e-11 1.01911e-11)
(0 0 0)
(0 0 0)
(0 0 0)
(1.78413e-11 -4.56524e-12 8.95745e-12)
(6.69468e-11 -4.51221e-11 4.51916e-11)
(0 0 0)
(0 0 0)
(0 0 0)
(1.54995e-11 -6.74726e-11 4.05623e-11)
(1.06778e-10 -1.94549e-10 9.81759e-11)
(0 0 0)
(0 0 0)
(0 0 0)
(-1.33746e-11 -1.96499e-10 8.932e-11)
(1.20556e-10 -3.48764e-10 1.55218e-10)
(0 0 0)
(0 0 0)
(0 0 0)
(-2.81086e-11 -3.2788e-10 1.42222e-10)
(1.29533e-10 -4.79799e-10 2.10277e-10)
(0 0 0)
(0 0 0)
(0 0 0)
(-4.98323e-11 -4.35013e-10 1.93156e-10)
(1.59888e-10 -5.92939e-10 2.56425e-10)
(0 0 0)
(0 0 0)
(0 0 0)
(-1.05276e-10 -5.23295e-10 2.35371e-10)
(2.37747e-10 -7.34285e-10 2.86994e-10)
(0 0 0)
(0 0 0)
(0 0 0)
(-2.20332e-10 -6.38173e-10 2.62587e-10)
(3.46006e-10 -9.67343e-10 2.97675e-10)
(0 0 0)
(0 0 0)
(0 0 0)
(-3.76694e-10 -8.38365e-10 2.71181e-10)
(3.68692e-10 -1.14981e-09 2.91739e-10)
(1.82664e-10 -1.16118e-09 2.8519e-10)
(-9.75811e-11 -1.11222e-09 2.8154e-10)
(-3.59239e-10 -1.06302e-09 2.72691e-10)
(-4.76326e-10 -1.00172e-09 2.68787e-10)
(1.85365e-11 1.09478e-11 5.37827e-12)
(0 0 0)
(0 0 0)
(0 0 0)
(1.86032e-11 -5.32389e-12 4.79148e-12)
(6.5875e-11 -4.43777e-11 2.32922e-11)
(0 0 0)
(0 0 0)
(0 0 0)
(1.74541e-11 -6.81147e-11 2.109e-11)
(1.06504e-10 -1.91016e-10 4.97575e-11)
(0 0 0)
(0 0 0)
(0 0 0)
(-1.1106e-11 -1.95137e-10 4.55379e-11)
(1.2208e-10 -3.42553e-10 7.78279e-11)
(0 0 0)
(0 0 0)
(0 0 0)
(-2.62568e-11 -3.24364e-10 7.16129e-11)
(1.33131e-10 -4.71427e-10 1.04707e-10)
(0 0 0)
(0 0 0)
(0 0 0)
(-4.84967e-11 -4.29597e-10 9.64781e-11)
(1.65182e-10 -5.8304e-10 1.27045e-10)
(0 0 0)
(0 0 0)
(0 0 0)
(-1.0402e-10 -5.16401e-10 1.16875e-10)
(2.4375e-10 -7.23365e-10 1.41661e-10)
(0 0 0)
(0 0 0)
(0 0 0)
(-2.18213e-10 -6.30147e-10 1.29824e-10)
(3.51627e-10 -9.54928e-10 1.46636e-10)
(0 0 0)
(0 0 0)
(0 0 0)
(-3.72723e-10 -8.2864e-10 1.33755e-10)
(3.74032e-10 -1.13646e-09 1.43524e-10)
(1.88469e-10 -1.14908e-09 1.39825e-10)
(-9.21622e-11 -1.10155e-09 1.37688e-10)
(-3.54128e-10 -1.05214e-09 1.33749e-10)
(-4.7102e-10 -9.90564e-10 1.32361e-10)
(2.27177e-11 5.52548e-12 0)
(9.17182e-12 -8.94336e-12 0)
(6.30263e-13 -1.59328e-11 0)
(-3.38962e-12 -1.40228e-11 0)
(8.95356e-12 -1.12835e-11 0)
(5.99624e-11 -5.47655e-11 0)
(3.30976e-11 -7.89798e-11 0)
(4.53192e-12 -9.33873e-11 0)
(-1.33129e-11 -8.66488e-11 0)
(-2.90642e-12 -7.35031e-11 0)
(9.6625e-11 -1.95043e-10 0)
(5.41914e-11 -2.12091e-10 0)
(9.54337e-12 -2.23296e-10 0)
(-2.28713e-11 -2.12462e-10 0)
(-2.68344e-11 -1.98181e-10 0)
(1.10479e-10 -3.42509e-10 0)
(6.11703e-11 -3.52816e-10 0)
(1.00977e-11 -3.58017e-10 0)
(-2.90687e-11 -3.42828e-10 0)
(-4.00258e-11 -3.26597e-10 0)
(1.20089e-10 -4.72682e-10 0)
(6.37825e-11 -4.85212e-10 0)
(4.43524e-12 -4.87831e-10 0)
(-4.31385e-11 -4.63746e-10 0)
(-6.07706e-11 -4.36323e-10 0)
(1.50151e-10 -5.91499e-10 0)
(7.80633e-11 -6.13913e-10 0)
(-8.0108e-12 -6.15799e-10 0)
(-8.20391e-11 -5.80278e-10 0)
(-1.14475e-10 -5.33594e-10 0)
(2.23695e-10 -7.39678e-10 0)
(1.17694e-10 -7.67244e-10 0)
(-2.77807e-11 -7.62934e-10 0)
(-1.60203e-10 -7.20285e-10 0)
(-2.24331e-10 -6.58448e-10 0)
(3.23495e-10 -9.68705e-10 0)
(1.70616e-10 -9.80945e-10 0)
(-5.55812e-11 -9.59151e-10 0)
(-2.66255e-10 -9.1631e-10 0)
(-3.72535e-10 -8.57552e-10 0)
(3.63627e-10 -1.12847e-09 0)
(1.93342e-10 -1.12572e-09 0)
(-8.0985e-11 -1.08537e-09 0)
(-3.37351e-10 -1.03983e-09 0)
(-4.62198e-10 -9.94042e-10 0)
)
;

boundaryField
{
    interface
    {
        type            calculated;
    }
    symmetry
    {
        type            symmetry;
    }
    bottom
    {
        type            calculated;
    }
}


// ************************************************************************* //
