/*--------------------------------*- C++ -*----------------------------------*\
| =========                 |                                                 |
| \\      /  F ield         | OpenFOAM: The Open Source CFD Toolbox           |
|  \\    /   O peration     | Version:  v1912                                 |
|   \\  /    A nd           | Website:  www.openfoam.com                      |
|    \\/     M anipulation  |                                                 |
\*---------------------------------------------------------------------------*/
FoamFile
{
    version     2.0;
    format      ascii;
    class       volSymmTensorField;
    location    "0.95/solid";
    object      sigma;
}
// * * * * * * * * * * * * * * * * * * * * * * * * * * * * * * * * * * * * * //

dimensions      [1 -1 -2 0 0 0 0];


internalField   nonuniform List<symmTensor> 
256
(
(-125704 37537.2 -12932 564507 44175.9 -131477)
(108703 -4037.46 -5607.63 371838 43815.7 -180108)
(111190 933.19 5154.03 367201 43602.9 -174176)
(-91945.9 -37141.5 12585.2 549444 43496.7 -114150)
(-149459 1403.84 -20177.1 237034 8266.59 -147579)
(-5564.05 -5693.17 -9464.83 145703 10002.2 -219014)
(-530.505 4404.54 8898.97 145232 10039.7 -212118)
(-112683 -1770.95 19674.6 235602 8243.66 -129207)
(-149989 -4990.54 -21982.5 222775 1737.43 -147509)
(-25590.8 -5899.25 -10531.6 98512.4 1935.17 -229963)
(-20511 5251.79 10020 98571.7 1960.85 -222847)
(-113040 4693.72 21469.3 221291 1721.87 -128932)
(-145227 -3639.98 -22980.6 241236 2820.23 -146387)
(-17842.4 -4692.94 -11069.2 81273.2 2134.35 -235480)
(-12813.6 4209.12 10601.2 81331.1 2120.41 -228230)
(-107864 3450.32 22475.9 239180 2721.51 -127553)
(-148343 -315.115 -24005 246164 6729.34 -152263)
(-16138.6 -2375.48 -11646.5 65062.6 5773.46 -247080)
(-11053.3 1932.92 11190.1 65084.8 5729.46 -239685)
(-110306 159.554 23504.9 243951 6555.83 -133069)
(-166532 6188.94 -24804.9 215535 14017.7 -169035)
(-37370.4 1877.12 -12142.6 30488.7 13435.1 -271555)
(-32188.3 -2419.51 11670.4 30646.1 13361.7 -263982)
(-127704 -6376.95 24304.3 213749 13767.7 -149348)
(-190588 16870.3 -24235.6 101234 24320.2 -187800)
(-69663.7 8147.5 -11908.1 -60796.7 25478.7 -298992)
(-64289.6 -8965.18 11394 -59487.4 25364.2 -291187)
(-150745 -17087.6 23730.4 102651 23978.2 -167479)
(-106730 21412.4 -21376.6 -102532 27722.9 -102118)
(67659.5 10563.6 -10562.6 -195934 30535.5 -195374)
(72625.7 -10051.8 10006.8 -188851 30418.8 -188367)
(-67250.9 -20929.4 20879.9 -84019.1 27412.6 -83834.5)
(-181140 22777.8 -10414.5 277813 10940 84247)
(-29900.4 -8212.08 -3640.46 67894.3 26797.2 -35524.5)
(-27179.4 7122.99 3942.91 64708 27037.9 -35626)
(-147726 -21634.7 10469.8 265788 11477.4 83540)
(-211191 -1429.85 -16437.2 104165 11447.2 9854.49)
(-138458 -6338.97 -7305.08 -35998.7 19930.1 -138788)
(-133016 6184.36 7670.33 -36029.3 20016.4 -136995)
(-174489 1482.02 16456.8 103299 11535.8 12623.7)
(-218390 -5295.21 -17491.7 81302.9 9479.66 -3870.23)
(-169363 -5577.52 -8081.88 -93312 12076.4 -173287)
(-163735 5497.25 8529.96 -92401.7 12093.1 -171192)
(-181265 5209.67 17516.7 81377.4 9395.69 -956.295)
(-219689 -3810.73 -17867.7 79123 9831.7 -3665.94)
(-173347 -4381.77 -8222.07 -131190 9953.16 -186718)
(-167701 4241.13 8769.96 -129994 9912.28 -184573)
(-182011 3758.88 17921 79270.9 9605.74 -855.899)
(-228304 -580.312 -18419.9 74100.3 15066.8 -7603.81)
(-182116 -2269.94 -8553.86 -160176 14316.5 -202226)
(-176383 2093.32 9156.27 -158922 14218.4 -200051)
(-189835 546.054 18495.6 74275.3 14689.5 -4798.44)
(-253612 6286.13 -18835 48647.9 23739.6 -24177.7)
(-214261 1966.22 -8905.63 -192952 22784.9 -231617)
(-208414 -2283.25 9507.6 -191597 22636.3 -229391)
(-214211 -6356.06 18922.3 49131.6 23223.3 -21246.3)
(-286534 18366.9 -18349.1 -39930.4 30315.3 -41118.7)
(-254028 8718.79 -8748.21 -256328 30025.6 -256960)
(-247993 -9397.14 9329.28 -253974 29849.9 -254649)
(-245984 -18490.2 18451.5 -36588.3 29736.5 -37889.5)
(-190919 24259.2 -16834.5 -188158 24452.3 101185)
(-69443 11906 -8183.55 -299413 25594.3 -60199.9)
(-64042.9 -11413.6 8861.92 -291495 25483.3 -58942.5)
(-150831 -23754.2 17014.1 -167509 24122.8 102460)
(-166219 12274.1 -4490.37 178519 19767.3 125595)
(-36556.8 -12891.5 -773.74 -12117.7 35600.6 -3875.45)
(-33818.4 12274.5 853.326 -14894.8 35631.1 -4630.57)
(-133823 -10987.8 4476.99 167281 19851.9 122932)
(-178952 -3205.03 -6971.48 70264.6 23298.6 96324.3)
(-106913 -7257.33 -2196.28 -69426.5 31460.5 -71692.7)
(-101676 7556.63 2247.32 -69545 31440.2 -70923)
(-143568 3432.43 6933.02 69058.7 23181.6 96213.4)
(-183201 -5153.61 -7042.41 65730.2 21766.7 79236)
(-129457 -5343.19 -2358.54 -105815 24311.7 -111265)
(-124056 5596.42 2415.58 -105047 24259.7 -110160)
(-147376 5197.25 7003.14 65420.9 21537.4 79348.2)
(-184730 -3723.56 -6807.36 69701.3 20711 73354.5)
(-133025 -4205.21 -2165.12 -133915 20888.8 -132000)
(-127601 4278.1 2270.07 -132818 20799.9 -130822)
(-148316 3756.67 6785.02 69582.8 20375.8 73411.6)
(-193441 -632.611 -6743.08 70979 23049.2 66723.5)
(-141908 -2313.4 -2128.18 -155392 22436.1 -151904)
(-136382 2261.69 2271.44 -154200 22304.5 -150695)
(-156158 655.977 6738.45 70946.8 22595.8 66763.3)
(-218849 6431.78 -6699.95 56073.3 26338.3 51607.1)
(-173411 1939.53 -2204.2 -177341 25446.4 -181315)
(-167739 -2204.13 2358.42 -176048 25282.9 -180060)
(-180475 -6463.44 6709.38 56313.3 25792.2 51732.6)
(-253732 18867.5 -6553.82 -21823.5 24645.4 46356.3)
(-213320 8879.55 -2259.59 -229692 23676.7 -194649)
(-207414 -9574.72 2435.55 -227412 23521.3 -193343)
(-213980 -18972.8 6590.49 -18780.6 24121.5 46666.3)
(-166827 24841.5 -6425.5 -169233 14542.1 216425)
(-35937.4 12139.9 -2209.49 -271698 13961.3 32022.7)
(-30674.5 -11680.3 2542.36 -263947 13890.3 32092.2)
(-127420 -24333.4 6554.84 -149061 14306.8 214363)
(-152545 7863.44 -1210.64 139490 22737.4 120597)
(-31887.8 -14520 621.842 -33946.1 32591.3 -3540.65)
(-29194.9 13977.6 -622.319 -36652.9 32563.4 -4287.95)
(-120954 -6583.87 1178.71 128392 22714.8 117877)
(-155593 -3642.37 -1647.96 52561.5 27480.6 114535)
(-81936.4 -7414.44 667.85 -79971.5 32451.9 -50146.4)
(-76822.3 7820.41 -732.063 -80116.9 32394.4 -49517.3)
(-121125 3912.48 1582.43 51213.4 27318 113987)
(-157440 -4691.12 -1295.92 58669.3 27441.7 99143.8)
(-98002.7 -4986.19 875.062 -103517 28830.1 -87279.7)
(-92728.1 5367.81 -969.416 -102816 28751.8 -86322.1)
(-122527 4789.28 1220.63 58177.8 27184.6 98807.9)
(-158890 -3340.53 -876.668 71784.3 26000.3 87966.4)
(-100471 -3912.13 1165.9 -119600 25834.3 -112727)
(-95168.2 4089.17 -1250.74 -118577 25731.9 -111667)
(-123357 3417.89 806.736 71488.7 25660.5 87654.9)
(-167646 -418.231 -593.789 80702.5 25152.7 77803.8)
(-109083 -2215.32 1338.34 -132035 24536.2 -136135)
(-103664 2220.06 -1402.76 -130908 24408 -135024)
(-131175 469.708 534.647 80510.7 24734.2 77521.7)
(-192736 6481.57 -454.898 71236.2 23177.2 65254)
(-139624 1848.5 1349.08 -148371 22495.5 -163091)
(-134032 -2107.65 -1394.86 -147129 22354.1 -161930)
(-155056 -6500.03 409.548 71327.3 22714.1 65044.2)
(-227489 18499 -565.671 -4236.95 16837.1 71507.9)
(-178385 8507.88 1171.95 -199654 16036.7 -164987)
(-172523 -9232.57 -1174.46 -197408 15917.9 -163804)
(-188252 -18600.7 549.606 -1333.37 16431.1 71374.6)
(-147108 24116.6 -833.035 -151925 7812.67 251269)
(-10648.9 11661.2 1131.76 -246715 6945.63 67879.8)
(-5420.02 -11218.9 -983.86 -239057 6898.91 67739.3)
(-108087 -23605.1 897.343 -132049 7647.51 248528)
(-145189 6549.18 -154.599 121936 20647.5 110579)
(-30421.8 -14428.5 782.099 -41063.7 25574 -5966.93)
(-27778.7 13892 -797.76 -43775.6 25547.6 -6688.82)
(-114145 -5293.32 128.725 110861 20628.6 107913)
(-145331 -3463.11 56.312 41965.5 24805.5 110944)
(-73141.6 -7117.6 1247.84 -84205.2 27130.1 -43541.2)
(-68115.3 7527.49 -1321.9 -84385.1 27080.6 -42937.2)
(-111464 3733.26 -112.374 40504.7 24683.8 110318)
(-146410 -4227.39 437.692 51772.7 25905.4 97978.6)
(-86506.3 -4637.76 1525.6 -102521 26331.7 -76630)
(-81320.3 5048.19 -1635.64 -101863 26261.9 -75717.4)
(-112094 4339.58 -506.922 51173.6 25697.8 97512.4)
(-148015 -2959.13 790.626 69944.4 24778.8 85335.7)
(-88594.1 -3646.76 1762.14 -111775 24393 -102603)
(-83373.6 3860.79 -1879.72 -110799 24304.2 -101581)
(-113055 3053.82 -861.288 69549.6 24500.9 84910)
(-156953 -195.46 1041.4 83319.1 22367.7 74255.5)
(-97220.7 -2103.01 1910.23 -118788 21834 -126438)
(-91873.4 2130.42 -2019.47 -117703 21729.3 -125354)
(-121008 259.793 -1106.66 83041.3 22035.6 73879.2)
(-181795 6434.65 1134.01 75930.2 18025.5 64752.9)
(-127154 1731.04 1919.47 -133071 17608.1 -150179)
(-121617 -1991.06 -2010.55 -131858 17500.1 -149045)
(-144560 -6446.81 -1188.1 75956.5 17674.2 64435.3)
(-215968 17960.9 962.307 1411.95 10979.4 77876.2)
(-164865 8066.05 1753.52 -184880 10566.2 -145640)
(-159035 -8806.32 -1800.38 -182647 10481 -144498)
(-177063 -18059.8 -991.631 4267.34 10685.2 77569.1)
(-139391 23280.1 694.25 -143950 4390.82 257563)
(-3989.5 11146.4 1727.66 -233944 3809.92 83683.6)
(1220.13 -10710.4 -1653.75 -226324 3778.35 83473.1)
(-100608 -22764.4 -662.329 -124204 4275.41 254543)
(-141103 6288.01 34.0848 113882 16031.2 103736)
(-30503.8 -13941.8 526.3 -43629.4 18250.5 -7491.3)
(-27896 13399.7 -540.588 -46354.4 18233.5 -8207.66)
(-110399 -5050.43 -50.9525 102817 16022.5 101097)
(-140811 -3181.12 277.574 36839.6 18884.3 105065)
(-71029.4 -6778.26 906.909 -85279.9 19785.8 -41267.4)
(-66062.8 7172.79 -963.601 -85495.7 19753.4 -40680.7)
(-107314 3443.55 -315.666 35285.3 18809.9 104409)
(-141867 -3894.05 545.586 47628 20111.1 93941.2)
(-83634.7 -4389.21 1110.27 -101606 20089.2 -71152.6)
(-78510 4795.15 -1196.39 -100987 20040.2 -70273)
(-107921 4005.64 -595.007 46939.1 19971.6 93400.8)
(-143681 -2698.6 772.241 67560.1 19372.1 82110.6)
(-85751.9 -3476.77 1256.13 -108106 18988.1 -95641.5)
(-80589 3697.04 -1353.79 -107167 18924.1 -94656.6)
(-109076 2797.35 -825.326 67087.7 19178.1 81593.8)
(-152751 -53.3497 929.734 82615.4 16905.6 72006.5)
(-94452.1 -2035.74 1343.12 -112887 16529.7 -118165)
(-89156 2069.74 -1438.9 -111834 16455.5 -117117)
(-117128 122.67 -980.732 82275.1 16673.7 71534.8)
(-177374 6365.27 973.778 75926.2 12671 65006.3)
(-123969 1635.81 1342.35 -126536 12464.1 -139341)
(-118473 -1896.1 -1424.79 -125345 12389.7 -138243)
(-140409 -6373.71 -1017.12 75909.8 12430 64579.7)
(-211029 17556.9 840.997 2453.7 7015.23 81236.9)
(-160937 7760.85 1236.39 -178304 6878.62 -132085)
(-155133 -8506.44 -1284.29 -176083 6821.66 -130985)
(-172328 -17652.7 -866.537 5280.73 6817.45 80786.1)
(-136656 22704.3 650.361 -140139 2598.47 258197)
(-4260.04 10807.9 1224.44 -227333 2313.47 92501.8)
(933.352 -10372.5 -1187.04 -219734 2292.94 92241.2)
(-98014.1 -22184.6 -633.84 -120460 2522.15 254986)
(-138723 6266.77 23.8587 110416 10067.3 100041)
(-30745.6 -13572.3 265.146 -44421.7 10994.9 -8341.78)
(-28158.6 13023.7 -274.15 -47155.7 10985.8 -9059.23)
(-108212 -5040.66 -33.1127 99358.8 10063.8 97411.9)
(-138539 -2987.21 156.944 34853.7 11652.7 101180)
(-70692.4 -6557.01 465.622 -85143.2 11954 -40616.4)
(-65760.7 6937.93 -499.621 -85384.2 11936.4 -40043.3)
(-105252 3243.35 -178.282 33238.2 11613.9 100509)
(-139728 -3700.79 299.378 45816.4 12467.2 91220.4)
(-83189.3 -4248.85 572.687 -100702 12353.1 -68556.8)
(-78100.6 4644.85 -625.129 -100110 12325.2 -67700.2)
(-105993 3809.03 -327.865 45064.1 12389.5 90637.1)
(-141693 -2553.93 417.069 66056 12040.8 80669.9)
(-85424.3 -3389.13 644.663 -106375 11785.3 -91423.7)
(-80295.4 3606.17 -705.962 -105461 11747.9 -90466.9)
(-107290 2652.26 -448.597 65528.4 11929.2 80090.7)
(-150820 19.6896 496.505 81452.1 10348.7 71925.5)
(-94166.9 -2005.66 685.106 -110532 10137.6 -112451)
(-88901.1 2040 -746.873 -109500 10094.1 -111433)
(-115380 51.0796 -527.494 81068.9 10213.9 71379.7)
(-175278 6314.47 514.473 74969.3 7506.8 66549.3)
(-123412 1578.64 682.264 -124015 7424 -132013)
(-117939 -1838.9 -736.335 -122838 7380.82 -130946)
(-138466 -6320.8 -541.174 74924.6 7367.23 66037)
(-208595 17321.9 439.796 2405.27 3999.79 83957.6)
(-159925 7596.65 630.043 -175415 3982.87 -123794)
(-154136 -8343.32 -662.977 -173201 3950.19 -122727)
(-170010 -17415.3 -456.005 5214.17 3886.1 83402.6)
(-135446 22384 328.906 -138108 1429.38 258547)
(-5550.87 10628.9 623.791 -223796 1318.23 97489.3)
(-367.055 -10192.5 -606.644 -216207 1306.62 97193.2)
(-96879.6 -21861.2 -320.756 -118464 1385.9 255211)
(-137582 6270.73 4.99794 109176 3424.44 98481.1)
(-30847.2 -13399.5 77.7245 -44569.6 3680.26 -8735.51)
(-28269.7 12847 -80.7413 -47307.8 3677.4 -9454.37)
(-107160 -5050.14 -7.94169 98122.3 3423.54 95855.9)
(-137498 -2900.37 43.1496 34272 3926.41 99425.2)
(-70651.2 -6459.04 136.186 -84855.2 3995.33 -40517.1)
(-65735.1 6832.68 -147.402 -85108.5 3989.8 -39951.1)
(-104307 3153.28 -49.9854 32627.4 3914.43 98746.4)
(-138772 -3616.72 86.018 45230.6 4199.77 90031.7)
(-83164.5 -4189.69 167.829 -100150 4149.11 -67574.6)
(-78092 4579.52 -185.258 -99573.3 4140.13 -66729.6)
(-105132 3722.78 -95.2539 44446.3 4175.05 89428.8)
(-140808 -2492.12 121.609 65415.1 4057.83 80284.6)
(-85473.1 -3354.14 188.774 -105657 3970.75 -89511.6)
(-80359.6 3567.98 -209.42 -104756 3958.55 -88569.5)
(-106496 2589.55 -131.972 64859.1 4021.65 79674.7)
(-149952 49.4309 145.288 80781.7 3467.95 72383)
(-94229.4 -1995.06 200.145 -109724 3401.23 -109659)
(-88977.4 2028.55 -221.202 -108702 3386.97 -108657)
(-114594 21.5836 -155.585 80376.5 3423.95 71798.4)
(-174324 6290.13 150.134 74344.5 2487.12 67783.5)
(-123340 1553.79 199.015 -123177 2466.54 -128461)
(-117879 -1814.08 -217.6 -122007 2452.41 -127411)
(-137580 -6295.55 -159.066 74285.3 2441.52 67225.8)
(-207480 17218.4 126.769 2278.6 1310.96 85564.7)
(-159639 7528.9 183.929 -174301 1315.56 -119951)
(-153858 -8275.57 -195.472 -172090 1304.91 -118902)
(-168946 -17310.5 -132.253 5078.52 1273.88 84955.9)
(-134879 22245.9 90.4568 -137172 461.823 258922)
(-6271.59 10555.1 181.749 -222209 434.619 99751.7)
(-1091.8 -10117.8 -176.845 -214624 430.859 99437.3)
(-96344.3 -21721.6 -87.983 -117543 447.698 255523)
)
;

boundaryField
{
    interface
    {
        type            calculated;
        value           nonuniform List<symmTensor> 
192
(
(-38.0133 0.34013 2.60539 972230 44175.9 276246)
(-39.6221 0.374948 4.23829 601460 8266.59 216847)
(-41.3609 0.157052 4.88672 589714 1737.43 219429)
(-42.5827 -0.284662 5.10828 615702 2820.23 228080)
(-43.0754 -0.69315 5.10956 635071 6729.34 236643)
(-44.127 -1.40412 5.01494 629312 14017.7 244742)
(-42.6389 -1.9527 4.66261 537296 24320.2 248262)
(-46.3323 -4.45931 4.39388 255629 27722.9 256043)
(-37.0841 0.244645 1.27705 700657 10940 507092)
(-37.7829 0.304207 2.21781 510632 11447.2 416321)
(-38.8468 0.121909 2.51983 496422 9479.66 411249)
(-39.6711 -0.322227 2.57114 505904 9831.7 423115)
(-39.8626 -0.74764 2.49893 520165 15066.8 438460)
(-40.7665 -1.52554 2.37763 527547 23739.6 454721)
(-38.9745 -2.12913 2.149 473494 30315.3 472306)
(-42.7271 -4.753 1.97132 248561 24452.3 537905)
(-39.581 0.209683 0.998148 562720 19767.3 509796)
(-40.1895 0.268578 1.70843 438642 23298.6 464701)
(-41.2329 0.0956736 1.93043 441920 21766.7 455426)
(-42.0698 -0.364 1.9621 457524 20711 461177)
(-42.1928 -0.82205 1.90005 478325 23049.2 474070)
(-43.0276 -1.67891 1.80122 497292 26338.3 492826)
(-40.8084 -2.36489 1.63887 457838 24645.4 526018)
(-44.3151 -5.15554 1.50633 245885 14542.1 631544)
(-39.8187 0.15655 0.602331 494068 22737.4 475175)
(-40.2484 0.191458 1.08988 389244 27480.6 451217)
(-41.075 0.0158492 1.23465 401951 27441.7 442426)
(-41.7775 -0.444159 1.24154 426435 26000.3 442617)
(-41.7682 -0.914644 1.18372 454814 25152.7 451915)
(-42.5145 -1.80296 1.10445 479241 23177.2 473258)
(-40.1365 -2.52431 1.0033 443185 16837.1 518930)
(-43.5545 -5.34935 0.927285 238655 7812.67 641849)
(-40.5887 0.130612 0.437155 458571 20647.5 447214)
(-40.9706 0.142291 0.790789 360284 24805.5 429262)
(-41.6989 -0.0440786 0.897024 376219 25905.4 422424)
(-42.3422 -0.509463 0.901567 405694 24778.8 421086)
(-42.2519 -0.994233 0.858654 438543 22367.7 429480)
(-42.9205 -1.90948 0.799645 464925 18025.5 453747)
(-40.3749 -2.66297 0.729817 429871 10979.4 506335)
(-43.6389 -5.52458 0.676023 231734 4390.82 633247)
(-40.8031 0.110135 0.263826 439815 16031.2 429669)
(-41.1396 0.102154 0.494073 344726 18884.3 412950)
(-41.7823 -0.0944636 0.564142 361563 20111.1 407876)
(-42.369 -0.563048 0.56548 392822 19372.1 407372)
(-42.2161 -1.05547 0.535421 427363 16905.6 416754)
(-42.8337 -1.98342 0.495429 454291 12671 443371)
(-40.2079 -2.75306 0.453004 420095 7015.23 498878)
(-43.4066 -5.63125 0.422352 226883 2598.47 625219)
(-41.0587 0.0999935 0.153889 430187 10067.3 419812)
(-41.3796 0.0784541 0.287878 336884 11652.7 403211)
(-41.977 -0.126518 0.329029 353921 12467.2 399325)
(-42.5328 -0.598492 0.329902 385517 12040.8 400131)
(-42.3412 -1.09691 0.312546 420394 10348.7 410867)
(-42.9217 -2.03367 0.288903 447399 7506.8 438979)
(-40.2338 -2.81466 0.265064 413928 3999.79 495480)
(-43.3747 -5.70575 0.246681 223921 1429.38 620576)
(-41.1242 0.0938094 0.045137 426099 3424.44 415405)
(-41.4338 0.0651716 0.0877139 333617 3926.41 398770)
(-42.0061 -0.143653 0.100987 350673 4199.77 395474)
(-42.5443 -0.616598 0.101073 382229 4057.83 397098)
(-42.3352 -1.11732 0.0953784 417067 3467.95 408668)
(-42.8978 -2.05707 0.0876213 444048 2487.12 437487)
(-40.1909 -2.84319 0.0806219 410973 1310.96 494259)
(-43.3024 -5.73937 0.074913 222515 461.823 618609)
(294489 37537.2 -3.58967 984700 -0.880999 -12.9848)
(222846 1403.84 -6.14381 609339 -1.11411 -9.0939)
(224987 -4990.54 -7.29756 597752 -1.00572 -5.02065)
(238936 -3639.98 -7.79608 625398 -0.782855 -3.11636)
(251335 -315.115 -8.00791 645842 -0.681349 -2.44002)
(257249 6188.94 -8.17757 639317 -0.721588 -2.82727)
(252979 16870.3 -8.38479 544801 -0.869093 -4.49806)
(256628 21412.4 -9.27878 260826 -1.07125 -5.87442)
(550911 -4037.46 -2.08028 814045 -0.525616 -16.5635)
(420313 -5693.17 -4.00475 571580 -0.875661 -15.7168)
(410712 -5899.25 -4.80594 534815 -0.84611 -14.2929)
(431933 -4692.94 -5.12292 531048 -0.591615 -13.688)
(453872 -2375.48 -5.26191 535074 -0.402088 -13.4399)
(464464 1877.12 -5.43649 532323 -0.292447 -13.5891)
(462799 8147.5 -5.80634 471666 -0.310085 -14.1104)
(514824 10563.6 -6.96543 251231 -0.37744 -14.3511)
(541704 933.19 -2.03035 797715 -0.387901 -13.8049)
(413337 4404.54 -3.9544 559099 -0.740157 -13.1779)
(403379 5251.79 -4.77997 522461 -0.740721 -11.8357)
(424233 4209.12 -5.11325 518378 -0.458439 -11.222)
(445955 1932.92 -5.24922 522093 -0.206237 -10.9829)
(456356 -2419.51 -5.40142 519190 0.0078862 -11.1262)
(454575 -8965.18 -5.72714 459377 0.1215 -11.7125)
(507105 -10051.8 -6.85306 245628 0.146907 -12.4069)
(294214 -37141.5 -2.15215 935604 -0.31786 -13.9642)
(226301 -1770.95 -4.39323 574586 -0.661648 -13.6222)
(227813 4693.72 -5.42944 562144 -0.667468 -12.4299)
(241389 3450.32 -5.8652 588432 -0.359127 -11.9266)
(253737 159.554 -6.04391 607994 -0.0740632 -11.7943)
(259657 -6376.95 -6.24328 601110 0.192118 -11.9574)
(255603 -17087.6 -6.55101 508999 0.382059 -12.401)
(261560 -20929.4 -7.75334 244792 0.559355 -12.9755)
(-6.92667 0.667 0.512101 893849 43496.7 230255)
(-4.71936 0.975356 1.05329 534808 8243.66 169999)
(-2.15316 0.833613 1.23837 522173 1721.87 171950)
(-0.674804 0.371982 1.34603 546438 2721.51 179705)
(-0.000732448 0.097891 1.44541 564356 6555.83 187336)
(1.58199 -0.294162 1.70799 557679 13767.7 194583)
(1.32756 -0.270948 1.94391 467343 23978.2 197212)
(9.67806 -2.41875 2.55839 202603 27412.6 202787)
(-10.439 0.262764 -0.328041 626176 11477.4 443927)
(-10.0388 0.454812 -0.379738 445476 11535.8 354801)
(-9.2143 0.409758 -0.482194 431177 9395.69 348843)
(-8.5748 0.151192 -0.504955 439426 9605.74 359299)
(-8.29887 0.0807841 -0.448432 452220 14689.5 373147)
(-6.78811 -0.136062 -0.233532 458276 23223.3 387899)
(-6.73905 0.10261 0.0509705 405244 29736.5 403942)
(1.36249 -1.83937 0.480011 197379 24122.8 467348)
(-10.7012 0.145042 -0.220155 490987 19851.9 446638)
(-10.4196 0.255457 -0.191169 375309 23181.6 402463)
(-9.78445 0.249981 -0.178747 378417 21537.4 392344)
(-9.14291 0.0993758 -0.126276 392850 20375.8 396679)
(-8.79762 0.152641 -0.0341047 412100 22595.8 407917)
(-6.98406 0.0415285 0.150619 429409 25792.2 424828)
(-6.65963 0.389457 0.34813 390497 24121.5 455944)
(1.84001 -1.59811 0.602663 195142 14306.8 558566)
(-11.8994 0.0624255 -0.229727 423973 22714.8 413459)
(-11.8157 0.113012 -0.202399 327345 27318 390119)
(-11.4872 0.135725 -0.163452 339840 27184.6 380470)
(-10.9507 0.077569 -0.10233 363116 25660.5 379282)
(-10.6011 0.234916 -0.0215385 389847 24734.2 386858)
(-8.60142 0.217946 0.110616 412415 22714.1 406132)
(-7.98589 0.6356 0.241167 376581 16431.1 449289)
(0.642637 -1.32637 0.394881 188206 7647.51 568782)
(-12.1825 0.0478063 -0.113554 389508 20628.6 386560)
(-12.0913 0.0772327 -0.0498574 299317 24683.8 369131)
(-11.8036 0.116966 0.0201317 315045 25697.8 361384)
(-11.2296 0.106725 0.0887692 343290 24500.9 358650)
(-10.8143 0.317842 0.156207 374423 22035.6 365261)
(-8.67919 0.343351 0.24162 398825 17674.2 387304)
(-7.93919 0.777773 0.309677 363800 10685.2 437102)
(0.740417 -1.20924 0.381771 181534 4275.41 560280)
(-12.5794 0.0428608 -0.076614 371386 16022.5 369665)
(-12.4916 0.0661956 -0.0239304 284310 18809.9 353434)
(-12.2321 0.119186 0.036005 300941 19971.6 347403)
(-11.6396 0.138638 0.089008 330957 19178.1 345463)
(-11.1821 0.383062 0.136227 363743 16673.7 353003)
(-8.96501 0.434555 0.188623 388620 12430 377290)
(-8.13199 0.874421 0.226515 354343 6817.45 429848)
(0.583073 -1.12335 0.264131 176831 2522.15 552277)
(-12.6994 0.045975 -0.0301532 362124 10063.8 360177)
(-12.5968 0.0703515 0.00861723 276776 11613.9 344047)
(-12.3277 0.131229 0.0495807 293602 12389.5 339175)
(-11.7084 0.164445 0.0831897 323948 11929.2 338511)
(-11.2188 0.423929 0.110998 357047 10213.9 347358)
(-8.95851 0.485764 0.138184 381964 7367.23 373076)
(-8.07871 0.923227 0.155803 348353 3886.1 426542)
(0.644801 -1.08488 0.170461 173947 1385.9 547622)
(-12.7985 0.0467519 -0.012992 358203 3423.54 355937)
(-12.6931 0.0723387 -0.00095206 273648 3914.43 339767)
(-12.4218 0.137393 0.0126957 290488 4175.05 335471)
(-11.7925 0.177234 0.0237776 320791 4021.65 335606)
(-11.287 0.443654 0.0329897 353841 3423.95 345263)
(-9.00746 0.510758 0.0416647 378716 2441.52 371656)
(-8.09667 0.94671 0.0477437 345475 1273.88 425353)
(0.627854 -1.06437 0.0523268 172574 447.698 545640)
(257523 9.39706 -21376.6 -5.19314 -0.898566 262135)
(253968 8.54758 -16834.5 -3.48138 -0.695908 546072)
(258845 8.41729 -6425.5 -1.09322 -0.481591 642097)
(255170 8.37201 -833.035 0.326676 -0.32259 653547)
(247979 8.41128 694.25 1.43204 -0.229045 644933)
(241623 8.43614 650.361 2.19975 -0.143639 636476)
(237484 8.46346 328.906 2.68595 -0.085267 631477)
(235541 8.47485 90.4568 2.91859 -0.0262891 629341)
(515690 7.04388 -10562.6 -13.8081 -0.164634 252657)
(464231 5.89147 -8183.55 -13.4227 -0.0879766 473475)
(467563 5.5376 -2209.49 -12.4748 0.0196234 535523)
(461678 5.39483 1131.76 -11.828 0.0485447 540207)
(449076 5.35351 1727.66 -11.2619 0.0530975 536749)
(437335 5.32852 1224.44 -10.8559 0.0453181 534097)
(429441 5.32291 623.791 -10.5889 0.028425 532481)
(425667 5.31913 181.749 -10.4496 0.0107051 531690)
(507851 6.93131 10006.8 -11.9001 0.383691 246859)
(455838 5.79343 8861.92 -11.0577 0.374602 460939)
(459226 5.47328 2542.36 -10.0543 0.359749 521993)
(453439 5.35555 -983.86 -9.41557 0.294404 526598)
(440876 5.32589 -1653.75 -8.84255 0.23382 523128)
(429146 5.3078 -1187.04 -8.46948 0.164561 520454)
(421257 5.30506 -606.644 -8.21144 0.0985212 518817)
(417484 5.30188 -176.845 -8.09413 0.0324748 518013)
(262077 7.79108 20879.9 -12.5276 0.803365 245494)
(256254 6.57371 17014.1 -11.8538 0.646492 509544)
(260944 6.26303 6554.84 -11.1078 0.550585 602727)
(257261 6.10415 897.343 -10.5936 0.432794 613875)
(250005 6.06094 -662.329 -10.0856 0.338261 605156)
(243594 6.02881 -633.84 -9.7753 0.234073 596594)
(239422 6.02056 -320.756 -9.54797 0.140873 591512)
(237465 6.01448 -87.983 -9.44622 0.0459547 589332)
)
;
    }
    symmetry
    {
        type            symmetry;
    }
    bottom
    {
        type            calculated;
        value           nonuniform List<symmTensor> 
32
(
(-723564 102387 -12932 263264 98776.5 -729338)
(-525145 67014.1 -10414.5 76274.9 2215.97 -259758)
(-439043 42454.2 -4490.37 12013.1 9191.66 -147228)
(-399649 31762.8 -1210.64 -10447.2 16505.5 -126508)
(-380110 27973.1 -154.599 -20162.7 17376.4 -124343)
(-369397 26671.4 34.0848 -24346.2 14386 -124557)
(-363368 26161.2 23.8587 -25808.8 9312.56 -124605)
(-360581 25958 4.99794 -26164.7 3207.87 -124518)
(-258198 -283.641 -5607.63 171576 91102.1 -547009)
(-147918 -7865.25 -3640.46 -14188.2 20600.8 -153542)
(-99348.8 -15357.3 -773.74 -57178.9 28693.2 -66667.4)
(-81065.3 -18019.7 621.842 -63844.1 28753.3 -52718.2)
(-75449.6 -18109 782.099 -65688.1 23540.6 -50994.7)
(-74083.2 -17586.8 526.3 -66874.9 17194.6 -51070.7)
(-73763.9 -17172.4 265.146 -67428.7 10502.8 -51360.1)
(-73656.4 -16978.5 77.7245 -67569 3539.12 -51544.7)
(-250291 -4426.92 5154.03 169745 90303.6 -535656)
(-143496 5436.51 3942.91 -16819 20917.2 -151943)
(-95349.9 13401 853.326 -59579.4 28777.1 -66162.1)
(-77213 16125.3 -622.319 -66254.2 28743.9 -52306.1)
(-71692.5 16215.9 -797.76 -68139.2 23520.2 -50602.7)
(-70385.2 15686.7 -540.588 -69351.5 17180 -50696.9)
(-70099.6 15265.2 -274.15 -69919 10494.8 -51000.2)
(-70007.3 15067 -80.7413 -70065.5 3536.62 -51192)
(-659871 -100424 12585.2 266411 96564.2 -682075)
(-472674 -64162 10469.8 75317.7 2952.9 -241408)
(-389273 -39557.4 4476.99 10868 9422.88 -132518)
(-351321 -28964.9 1178.71 -11932.4 16544.4 -112489)
(-332700 -25253.4 128.725 -21882 17384.5 -110641)
(-322543 -24000.5 -50.9525 -26184.9 14390.8 -111047)
(-316830 -23518.5 -33.1127 -27706.6 9315.86 -111206)
(-314186 -23328.3 -7.94169 -28087.7 3209.07 -111171)
)
;
    }
}


// ************************************************************************* //
