/*--------------------------------*- C++ -*----------------------------------*\
| =========                 |                                                 |
| \\      /  F ield         | OpenFOAM: The Open Source CFD Toolbox           |
|  \\    /   O peration     | Version:  v1912                                 |
|   \\  /    A nd           | Website:  www.openfoam.com                      |
|    \\/     M anipulation  |                                                 |
\*---------------------------------------------------------------------------*/
FoamFile
{
    version     2.0;
    format      ascii;
    class       volScalarField;
    location    "0.95/solid";
    object      sigmaHyd;
}
// * * * * * * * * * * * * * * * * * * * * * * * * * * * * * * * * * * * * * //

dimensions      [1 -1 -2 0 0 0 0];


internalField   nonuniform List<scalar> 
256
(
-717881
-391737
-383094
-667144
-1.1118e+06
-702764
-689452
-1.04606e+06
-1.16798e+06
-763541
-749455
-1.10015e+06
-1.18987e+06
-787128
-772730
-1.12076e+06
-1.23306e+06
-822351
-807686
-1.16264e+06
-1.33182e+06
-904370
-889320
-1.25979e+06
-1.57485e+06
-1.12355e+06
-1.10698e+06
-1.49834e+06
-2.14217e+06
-1.66621e+06
-1.64168e+06
-2.04342e+06
-390549
-144145
-141775
-358605
-651879
-322853
-317066
-608253
-698707
-377384
-370945
-653424
-717920
-401683
-395006
-671593
-750036
-428579
-421729
-702580
-827000
-488181
-481062
-778091
-1.03869e+06
-664086
-655568
-985355
-1.57595e+06
-1.12395e+06
-1.10723e+06
-1.4988e+06
-306596
-93606.8
-91947.9
-277598
-486041
-198847
-194406
-446960
-520124
-239293
-234271
-479515
-536655
-260155
-254890
-494949
-564437
-282846
-277389
-521483
-632500
-332847
-327091
-587874
-827513
-487913
-480720
-778137
-1.33335e+06
-904335
-889010
-1.26004e+06
-284133
-86762
-85209.3
-256127
-433349
-167771
-163597
-395760
-460547
-199798
-195071
-421478
-475175
-217494
-212513
-434954
-501047
-237793
-232599
-459464
-565182
-283548
-278024
-521746
-750650
-428325
-421327
-702203
-1.23365e+06
-820929
-805835
-1.16119e+06
-275430
-86147.7
-84657.6
-248037
-414129
-159104
-155056
-377397
-438287
-186878
-182290
-400106
-451602
-202290
-197444
-412237
-476220
-220852
-215778
-435421
-538065
-264213
-258789
-495296
-717760
-403594
-396670
-669810
-1.18661e+06
-783822
-768802
-1.11453e+06
-270337
-86038
-84594.4
-243329
-404890
-155816
-151853
-368691
-427736
-181508
-177014
-390112
-440197
-195504
-190749
-401376
-463911
-212883
-207894
-423611
-524293
-254805
-249453
-481950
-700512
-391216
-384345
-652883
-1.16073e+06
-764395
-749420
-1.08888e+06
-267049
-85863.2
-84448.7
-240263
-399722
-154283
-150372
-363834
-421977
-178987
-174550
-384679
-433928
-192200
-187503
-395426
-457055
-208873
-203937
-417050
-516564
-249978
-244672
-474474
-690806
-384759
-377924
-643369
-1.14597e+06
-753794
-738846
-1.07424e+06
-265384
-85717.3
-84316.5
-238700
-397268
-153622
-149736
-361523
-419280
-177929
-173520
-382132
-430993
-190799
-186129
-392638
-453834
-207146
-202236
-413966
-512936
-247881
-242598
-470964
-686279
-381926
-375108
-638932
-1.13907e+06
-748987
-734052
-1.0674e+06
)
;

boundaryField
{
    interface
    {
        type            zeroGradient;
    }
    symmetry
    {
        type            symmetry;
    }
    bottom
    {
        type            zeroGradient;
    }
}


// ************************************************************************* //
