/*--------------------------------*- C++ -*----------------------------------*\
| =========                 |                                                 |
| \\      /  F ield         | OpenFOAM: The Open Source CFD Toolbox           |
|  \\    /   O peration     | Version:  v1912                                 |
|   \\  /    A nd           | Website:  www.openfoam.com                      |
|    \\/     M anipulation  |                                                 |
\*---------------------------------------------------------------------------*/
FoamFile
{
    version     2.0;
    format      ascii;
    class       volScalarField;
    location    "0.95/solid";
    object      T;
}
// * * * * * * * * * * * * * * * * * * * * * * * * * * * * * * * * * * * * * //

dimensions      [0 0 0 1 0 0 0];


internalField   nonuniform List<scalar> 
256
(
291.359
292.016
292.031
291.437
290.816
291.647
291.666
290.912
290.714
291.578
291.598
290.813
290.654
291.54
291.561
290.756
290.57
291.487
291.508
290.674
290.416
291.377
291.398
290.523
290.035
291.039
291.063
290.147
288.923
289.883
289.92
289.07
292.098
292.71
292.715
292.148
291.761
292.563
292.57
291.823
291.697
292.536
292.543
291.76
291.66
292.524
292.532
291.726
291.608
292.506
292.513
291.675
291.499
292.45
292.457
291.568
291.168
292.183
292.193
291.243
290.033
291.038
291.062
290.146
292.295
292.848
292.852
292.341
292.036
292.768
292.773
292.092
291.985
292.752
292.758
292.043
291.954
292.746
292.751
292.014
291.908
292.734
292.739
291.969
291.809
292.689
292.695
291.873
291.498
292.449
292.457
291.568
290.413
291.375
291.397
290.521
292.36
292.873
292.876
292.404
292.126
292.806
292.81
292.179
292.079
292.793
292.798
292.134
292.049
292.787
292.792
292.106
292.004
292.776
292.781
292.063
291.907
292.734
292.739
291.969
291.606
292.505
292.513
291.674
290.565
291.484
291.506
290.672
292.391
292.879
292.883
292.434
292.167
292.816
292.82
292.219
292.121
292.803
292.808
292.175
292.092
292.797
292.802
292.148
292.047
292.787
292.792
292.105
291.951
292.745
292.751
292.012
291.656
292.523
292.531
291.724
290.644
291.535
291.557
290.751
292.408
292.882
292.886
292.451
292.189
292.82
292.824
292.241
292.145
292.808
292.812
292.198
292.116
292.802
292.807
292.171
292.071
292.791
292.796
292.128
291.976
292.75
292.756
292.036
291.684
292.532
292.539
291.752
290.691
291.564
291.586
290.798
292.418
292.884
292.887
292.46
292.202
292.822
292.827
292.253
292.158
292.81
292.815
292.211
292.129
292.804
292.809
292.184
292.084
292.794
292.799
292.141
291.989
292.753
292.758
292.049
291.7
292.537
292.544
291.768
290.718
291.58
291.602
290.825
292.423
292.885
292.888
292.465
292.208
292.823
292.828
292.259
292.164
292.811
292.816
292.217
292.135
292.805
292.81
292.189
292.09
292.795
292.8
292.147
291.996
292.754
292.76
292.055
291.707
292.539
292.546
291.775
290.731
291.588
291.609
290.837
)
;

boundaryField
{
    interface
    {
        type            fixedValue;
        value           nonuniform List<scalar> 
192
(
290.12
289.761
289.649
289.555
289.425
289.211
288.786
287.823
290.888
290.651
290.566
290.49
290.383
290.196
289.792
288.783
291.198
291.012
290.939
290.87
290.768
290.588
290.192
289.203
291.347
291.178
291.11
291.042
290.942
290.763
290.374
289.412
291.429
291.268
291.202
291.135
291.035
290.858
290.474
289.532
291.478
291.321
291.256
291.189
291.09
290.913
290.533
289.605
291.506
291.351
291.286
291.22
291.12
290.944
290.567
289.648
291.519
291.364
291.3
291.234
291.134
290.959
290.582
289.668
290.085
289.731
289.618
289.524
289.394
289.18
288.757
287.799
290.738
290.481
290.391
290.314
290.207
290.022
289.616
288.604
290.785
290.533
290.444
290.369
290.263
290.079
289.676
288.675
290.258
289.918
289.811
289.722
289.596
289.387
288.971
288.042
290.371
290.033
289.928
289.84
289.715
289.507
289.092
288.165
291.109
290.885
290.805
290.735
290.634
290.453
290.06
289.091
291.409
291.234
291.167
291.103
291.007
290.835
290.452
289.504
291.552
291.394
291.331
291.269
291.176
291.006
290.631
289.71
291.631
291.48
291.419
291.358
291.266
291.097
290.728
289.829
291.678
291.53
291.47
291.41
291.318
291.15
290.786
289.902
291.704
291.559
291.499
291.439
291.347
291.181
290.819
289.944
291.716
291.572
291.513
291.453
291.361
291.195
290.834
289.964
287.796
288.751
289.171
289.379
289.498
289.572
289.615
289.635
288.602
289.612
290.014
290.196
290.295
290.354
290.388
290.404
288.673
289.672
290.073
290.254
290.353
290.412
290.446
290.462
288.04
288.968
289.381
289.588
289.707
289.78
289.822
289.842
)
;
    }
    symmetry
    {
        type            symmetry;
    }
    bottom
    {
        type            fixedValue;
        value           uniform 293;
    }
}


// ************************************************************************* //
