/*--------------------------------*- C++ -*----------------------------------*\
| =========                 |                                                 |
| \\      /  F ield         | OpenFOAM: The Open Source CFD Toolbox           |
|  \\    /   O peration     | Version:  v1912                                 |
|   \\  /    A nd           | Website:  www.openfoam.com                      |
|    \\/     M anipulation  |                                                 |
\*---------------------------------------------------------------------------*/
FoamFile
{
    version     2.0;
    format      ascii;
    class       volVectorField;
    location    "0.95/solid";
    object      U;
}
// * * * * * * * * * * * * * * * * * * * * * * * * * * * * * * * * * * * * * //

dimensions      [0 1 -1 0 0 0 0];


internalField   nonuniform List<vector> 
256
(
(1.74821e-08 1.92782e-08 2.29839e-08)
(4.1729e-09 1.29965e-08 2.25754e-08)
(-6.02969e-09 1.23492e-08 2.16742e-08)
(-1.72879e-08 1.71698e-08 2.03068e-08)
(3.36035e-08 1.81176e-08 5.58016e-08)
(8.59444e-09 1.21351e-08 5.49725e-08)
(-1.30554e-08 1.19647e-08 5.30821e-08)
(-3.5121e-08 1.80056e-08 5.01303e-08)
(3.76007e-08 3.36172e-09 7.99967e-08)
(9.07426e-09 6.81932e-10 7.84535e-08)
(-1.65368e-08 1.27094e-09 7.59736e-08)
(-4.20289e-08 5.62885e-09 7.25378e-08)
(3.67999e-08 -1.46314e-08 1.00128e-07)
(7.4262e-09 -1.54076e-08 9.76695e-08)
(-1.87932e-08 -1.40645e-08 9.47686e-08)
(-4.50835e-08 -1.01935e-08 9.13924e-08)
(3.59921e-08 -3.457e-08 1.19372e-07)
(5.45363e-09 -3.50662e-08 1.1595e-07)
(-2.17233e-08 -3.30049e-08 1.12694e-07)
(-4.91109e-08 -2.80864e-08 1.09563e-07)
(3.81504e-08 -5.89999e-08 1.39505e-07)
(4.32115e-09 -5.94453e-08 1.35363e-07)
(-2.65643e-08 -5.66581e-08 1.31772e-07)
(-5.71582e-08 -5.04438e-08 1.28689e-07)
(4.40461e-08 -9.34299e-08 1.59747e-07)
(4.21915e-09 -9.24275e-08 1.55884e-07)
(-3.36649e-08 -8.88053e-08 1.51964e-07)
(-7.00459e-08 -8.2478e-08 1.47959e-07)
(4.87129e-08 -1.35547e-07 1.73836e-07)
(3.48903e-09 -1.32364e-07 1.71352e-07)
(-4.15707e-08 -1.27543e-07 1.67165e-07)
(-8.28389e-08 -1.2104e-07 1.61307e-07)
(1.23928e-08 7.31366e-09 1.0797e-08)
(2.91268e-09 1.76393e-09 1.16372e-08)
(-3.68863e-09 1.56687e-09 1.12165e-08)
(-1.1403e-08 6.16961e-09 9.55864e-09)
(2.46073e-08 7.69388e-10 3.33009e-08)
(6.29988e-09 -4.4015e-09 3.49249e-08)
(-8.14632e-09 -4.18968e-09 3.3773e-08)
(-2.39531e-08 1.38127e-09 2.99515e-08)
(2.75314e-08 -1.31857e-08 5.41284e-08)
(6.6896e-09 -1.54275e-08 5.57835e-08)
(-1.04069e-08 -1.46047e-08 5.41134e-08)
(-2.87259e-08 -1.05402e-08 4.92514e-08)
(2.65215e-08 -2.95248e-08 7.28084e-08)
(5.26913e-09 -3.01639e-08 7.41064e-08)
(-1.20042e-08 -2.86802e-08 7.20555e-08)
(-3.07338e-08 -2.49065e-08 6.67814e-08)
(2.57297e-08 -4.76514e-08 9.04088e-08)
(3.56854e-09 -4.82712e-08 9.11816e-08)
(-1.44717e-08 -4.6121e-08 8.8809e-08)
(-3.40721e-08 -4.10919e-08 8.34042e-08)
(2.8353e-08 -6.90256e-08 1.07535e-07)
(2.80275e-09 -6.98255e-08 1.07751e-07)
(-1.90426e-08 -6.69939e-08 1.05082e-07)
(-4.19542e-08 -6.04884e-08 9.96319e-08)
(3.59133e-08 -9.81092e-08 1.22786e-07)
(3.35535e-09 -9.71887e-08 1.22624e-07)
(-2.62426e-08 -9.36041e-08 1.19703e-07)
(-5.59189e-08 -8.73631e-08 1.14107e-07)
(4.32392e-08 -1.35059e-07 1.31731e-07)
(3.38848e-09 -1.3044e-07 1.31439e-07)
(-3.44597e-08 -1.25807e-07 1.28414e-07)
(-7.08257e-08 -1.2109e-07 1.22689e-07)
(7.40246e-09 2.60838e-09 5.49632e-09)
(1.53241e-09 -1.7344e-09 6.85491e-09)
(-1.79373e-09 -1.88435e-09 6.56924e-09)
(-5.96946e-09 1.40455e-09 4.68116e-09)
(1.53411e-08 -8.01327e-09 2.07464e-08)
(3.62082e-09 -1.21397e-08 2.33851e-08)
(-3.96528e-09 -1.19023e-08 2.25896e-08)
(-1.33219e-08 -7.58708e-09 1.84852e-08)
(1.71803e-08 -2.29123e-08 3.76694e-08)
(3.80363e-09 -2.47658e-08 4.06137e-08)
(-5.11498e-09 -2.39673e-08 3.94108e-08)
(-1.61453e-08 -2.05615e-08 3.42166e-08)
(1.61328e-08 -3.84752e-08 5.41572e-08)
(2.58859e-09 -3.91649e-08 5.69481e-08)
(-6.12784e-09 -3.77505e-08 5.54173e-08)
(-1.73545e-08 -3.42336e-08 4.97166e-08)
(1.55398e-08 -5.45222e-08 6.954e-08)
(1.16549e-09 -5.54488e-08 7.19914e-08)
(-8.19678e-09 -5.34027e-08 7.01767e-08)
(-2.02292e-08 -4.84008e-08 6.42345e-08)
(1.86593e-08 -7.23433e-08 8.32313e-08)
(7.56885e-10 -7.36022e-08 8.52498e-08)
(-1.25471e-08 -7.09112e-08 8.31839e-08)
(-2.80231e-08 -6.43155e-08 7.71544e-08)
(2.73704e-08 -9.64225e-08 9.35225e-08)
(1.86903e-09 -9.58294e-08 9.50513e-08)
(-1.98079e-08 -9.24358e-08 9.28013e-08)
(-4.26081e-08 -8.62929e-08 8.68489e-08)
(3.63515e-08 -1.28426e-07 9.73315e-08)
(2.51245e-09 -1.23447e-07 9.84524e-08)
(-2.81807e-08 -1.19057e-07 9.61776e-08)
(-5.86671e-08 -1.15188e-07 9.0496e-08)
(4.67041e-09 6.02583e-10 4.03368e-09)
(7.81631e-10 -2.76934e-09 5.08306e-09)
(-7.90554e-10 -2.95491e-09 4.87148e-09)
(-2.96531e-09 -7.97599e-10 3.44437e-09)
(1.02257e-08 -1.16486e-08 1.54154e-08)
(2.14175e-09 -1.49901e-08 1.74273e-08)
(-1.6301e-09 -1.48551e-08 1.68544e-08)
(-7.34341e-09 -1.16426e-08 1.38132e-08)
(1.16133e-08 -2.72521e-08 2.87353e-08)
(2.29606e-09 -2.88805e-08 3.09516e-08)
(-2.09589e-09 -2.822e-08 3.00771e-08)
(-9.08066e-09 -2.54176e-08 2.62547e-08)
(1.08589e-08 -4.24153e-08 4.22788e-08)
(1.36372e-09 -4.32379e-08 4.43408e-08)
(-2.75449e-09 -4.19843e-08 4.32055e-08)
(-9.9606e-09 -3.87378e-08 3.90138e-08)
(1.07257e-08 -5.68793e-08 5.48264e-08)
(2.7759e-10 -5.81076e-08 5.65992e-08)
(-4.58261e-09 -5.62411e-08 5.52307e-08)
(-1.27219e-08 -5.1354e-08 5.08486e-08)
(1.4331e-08 -7.21079e-08 6.52349e-08)
(1.89443e-10 -7.37584e-08 6.66754e-08)
(-8.74606e-09 -7.12654e-08 6.51048e-08)
(-2.04869e-08 -6.47071e-08 6.06288e-08)
(2.35039e-08 -9.29926e-08 7.19338e-08)
(1.59596e-09 -9.28735e-08 7.30307e-08)
(-1.58533e-08 -8.96935e-08 7.13243e-08)
(-3.50678e-08 -8.35171e-08 6.68695e-08)
(3.2922e-08 -1.2216e-07 7.3167e-08)
(2.50707e-09 -1.17739e-07 7.40556e-08)
(-2.40724e-08 -1.13566e-07 7.23499e-08)
(-5.11252e-08 -1.09577e-07 6.80177e-08)
(3.58787e-09 -1.84327e-10 3.3555e-09)
(5.32295e-10 -3.03718e-09 3.92303e-09)
(-4.07402e-10 -3.25924e-09 3.77082e-09)
(-1.71338e-09 -1.74106e-09 2.9384e-09)
(8.28367e-09 -1.27946e-08 1.20297e-08)
(1.69231e-09 -1.57539e-08 1.30762e-08)
(-6.75071e-10 -1.57281e-08 1.26705e-08)
(-4.85787e-09 -1.31661e-08 1.09095e-08)
(9.69955e-09 -2.8485e-08 2.20623e-08)
(1.97279e-09 -3.00786e-08 2.31452e-08)
(-8.16312e-10 -2.95667e-08 2.2525e-08)
(-6.18568e-09 -2.714e-08 2.0321e-08)
(9.36431e-09 -4.32771e-08 3.23648e-08)
(1.33567e-09 -4.42811e-08 3.3271e-08)
(-1.29349e-09 -4.31954e-08 3.24576e-08)
(-7.01749e-09 -4.01389e-08 3.00435e-08)
(9.71975e-09 -5.67469e-08 4.18228e-08)
(5.66087e-10 -5.82352e-08 4.24828e-08)
(-2.97847e-09 -5.65472e-08 4.14916e-08)
(-9.81056e-09 -5.17822e-08 3.89572e-08)
(1.36928e-08 -7.05289e-08 4.9307e-08)
(7.27508e-10 -7.24672e-08 4.97298e-08)
(-6.97072e-09 -7.01586e-08 4.85852e-08)
(-1.75187e-08 -6.36947e-08 4.59596e-08)
(2.29679e-08 -8.98546e-08 5.36432e-08)
(2.27006e-09 -9.01297e-08 5.38753e-08)
(-1.38331e-08 -8.71329e-08 5.26311e-08)
(-3.18124e-08 -8.0934e-08 4.99512e-08)
(3.23493e-08 -1.17725e-07 5.39836e-08)
(3.28261e-09 -1.13957e-07 5.41664e-08)
(-2.17975e-08 -1.09956e-07 5.29279e-08)
(-4.747e-08 -1.05665e-07 5.02365e-08)
(3.24536e-09 -4.52386e-10 2.58409e-09)
(4.99997e-10 -3.08423e-09 2.83056e-09)
(-3.02119e-10 -3.3326e-09 2.72877e-09)
(-1.2684e-09 -2.11516e-09 2.30827e-09)
(7.7704e-09 -1.29217e-08 8.78926e-09)
(1.6957e-09 -1.57597e-08 9.2054e-09)
(-3.78451e-10 -1.58167e-08 8.93553e-09)
(-4.01006e-09 -1.35667e-08 8.05143e-09)
(9.38585e-09 -2.83501e-08 1.57762e-08)
(2.14239e-09 -3.00112e-08 1.61408e-08)
(-3.90325e-10 -2.96174e-08 1.57279e-08)
(-5.2501e-09 -2.73788e-08 1.46264e-08)
(9.42232e-09 -4.27659e-08 2.29086e-08)
(1.74682e-09 -4.39464e-08 2.31156e-08)
(-7.76956e-10 -4.29964e-08 2.2571e-08)
(-6.12796e-09 -4.00511e-08 2.13645e-08)
(1.01562e-08 -5.56728e-08 2.93899e-08)
(1.21907e-09 -5.73598e-08 2.94144e-08)
(-2.36657e-09 -5.58151e-08 2.87463e-08)
(-8.96469e-09 -5.11497e-08 2.74673e-08)
(1.4369e-08 -6.87977e-08 3.43783e-08)
(1.55663e-09 -7.09261e-08 3.42497e-08)
(-6.21394e-09 -6.87615e-08 3.34743e-08)
(-1.65902e-08 -6.24028e-08 3.21172e-08)
(2.36368e-08 -8.7505e-08 3.71127e-08)
(3.17322e-09 -8.80327e-08 3.68882e-08)
(-1.28538e-08 -8.51741e-08 3.60439e-08)
(-3.05766e-08 -7.90032e-08 3.46096e-08)
(3.28992e-08 -1.14797e-07 3.72016e-08)
(4.2345e-09 -1.11477e-07 3.69827e-08)
(-2.05928e-08 -1.07603e-07 3.61433e-08)
(-4.58375e-08 -1.03124e-07 3.46604e-08)
(3.15401e-09 -5.20182e-10 1.62892e-09)
(5.20097e-10 -3.06947e-09 1.71932e-09)
(-2.84163e-10 -3.33449e-09 1.66113e-09)
(-1.11923e-09 -2.24797e-09 1.47237e-09)
(7.7032e-09 -1.27445e-08 5.36953e-09)
(1.79244e-09 -1.55679e-08 5.49907e-09)
(-3.07102e-10 -1.5678e-08 5.34496e-09)
(-3.75056e-09 -1.35617e-08 4.95092e-09)
(9.5004e-09 -2.78595e-08 9.4876e-09)
(2.36843e-09 -2.96025e-08 9.55856e-09)
(-2.70463e-10 -2.92866e-08 9.32241e-09)
(-4.99913e-09 -2.71312e-08 8.83395e-09)
(9.78951e-09 -4.19725e-08 1.36521e-08)
(2.13356e-09 -4.32839e-08 1.36189e-08)
(-6.09768e-10 -4.24252e-08 1.33064e-08)
(-5.92553e-09 -3.95393e-08 1.27704e-08)
(1.07631e-08 -5.45851e-08 1.74047e-08)
(1.76118e-09 -5.64027e-08 1.7262e-08)
(-2.13561e-09 -5.49547e-08 1.68771e-08)
(-8.78451e-09 -5.03584e-08 1.63009e-08)
(1.51168e-08 -6.74592e-08 2.02519e-08)
(2.21049e-09 -6.97e-08 2.00247e-08)
(-5.87989e-09 -6.76318e-08 1.95766e-08)
(-1.63361e-08 -6.13581e-08 1.89478e-08)
(2.43663e-08 -8.59614e-08 2.17761e-08)
(3.87441e-09 -8.66274e-08 2.15045e-08)
(-1.23656e-08 -8.386e-08 2.10156e-08)
(-3.01016e-08 -7.77372e-08 2.03282e-08)
(3.35401e-08 -1.12991e-07 2.17988e-08)
(4.96632e-09 -1.09915e-07 2.15391e-08)
(-1.99503e-08 -1.06125e-07 2.10533e-08)
(-4.5087e-08 -1.0157e-07 2.03278e-08)
(3.13282e-09 -5.27336e-10 5.55815e-10)
(5.35912e-10 -3.05001e-09 5.77666e-10)
(-2.83807e-10 -3.3231e-09 5.58759e-10)
(-1.07204e-09 -2.28604e-09 5.05125e-10)
(7.71641e-09 -1.25916e-08 1.80622e-09)
(1.8539e-09 -1.5423e-08 1.8321e-09)
(-2.93241e-10 -1.55588e-08 1.78203e-09)
(-3.67608e-09 -1.34916e-08 1.67063e-09)
(9.61023e-09 -2.75149e-08 3.16625e-09)
(2.49603e-09 -2.93071e-08 3.16872e-09)
(-2.3934e-10 -2.90293e-08 3.09192e-09)
(-4.93985e-09 -2.6905e-08 2.95427e-09)
(1.00225e-08 -4.14626e-08 4.53328e-09)
(2.33932e-09 -4.28418e-08 4.49987e-09)
(-5.56923e-10 -4.20283e-08 4.39808e-09)
(-5.89136e-09 -3.91685e-08 4.24673e-09)
(1.11095e-08 -5.39495e-08 5.75935e-09)
(2.04166e-09 -5.58311e-08 5.68979e-09)
(-2.04996e-09 -5.44312e-08 5.56417e-09)
(-8.75714e-09 -4.98703e-08 5.39971e-09)
(1.55288e-08 -6.6746e-08 6.68418e-09)
(2.54536e-09 -6.90388e-08 6.58772e-09)
(-5.74138e-09 -6.70185e-08 6.44121e-09)
(-1.62672e-08 -6.07912e-08 6.2583e-09)
(2.47695e-08 -8.51935e-08 7.17533e-09)
(4.23414e-09 -8.59191e-08 7.06583e-09)
(-1.21504e-08 -8.3197e-08 6.90585e-09)
(-2.99221e-08 -7.71071e-08 6.70175e-09)
(3.39005e-08 -1.12118e-07 7.17969e-09)
(5.34231e-09 -1.09147e-07 7.07483e-09)
(-1.96585e-08 -1.05397e-07 6.91581e-09)
(-4.4771e-08 -1.00823e-07 6.69825e-09)
)
;

boundaryField
{
    interface
    {
        type            calculated;
        value           nonuniform List<vector> 
192
(
(2.23727e-08 3.20496e-08 2.13557e-08)
(3.88493e-08 2.31473e-08 5.29413e-08)
(4.32212e-08 4.16076e-09 7.68976e-08)
(4.28015e-08 -1.50336e-08 9.71116e-08)
(4.21669e-08 -3.42324e-08 1.16521e-07)
(4.41822e-08 -5.69864e-08 1.36929e-07)
(5.02939e-08 -9.07893e-08 1.5768e-07)
(5.46662e-08 -1.34521e-07 1.72425e-07)
(1.56446e-08 1.65637e-08 8.27717e-09)
(2.87945e-08 4.55401e-09 2.87354e-08)
(3.2017e-08 -1.27073e-08 4.90234e-08)
(3.11844e-08 -2.99753e-08 6.76417e-08)
(3.04526e-08 -4.71936e-08 8.52958e-08)
(3.3018e-08 -6.64797e-08 1.02662e-07)
(4.13583e-08 -9.43877e-08 1.18617e-07)
(4.95825e-08 -1.33387e-07 1.28641e-07)
(9.30337e-09 8.29428e-09 3.56576e-09)
(1.82474e-08 -5.56886e-09 1.71511e-08)
(2.04272e-08 -2.27144e-08 3.36899e-08)
(1.9568e-08 -3.88854e-08 5.02416e-08)
(1.91027e-08 -5.38906e-08 6.5789e-08)
(2.23488e-08 -6.93857e-08 7.97258e-08)
(3.2135e-08 -9.19995e-08 9.04202e-08)
(4.26147e-08 -1.26262e-07 9.47522e-08)
(5.89743e-09 4.32662e-09 3.08005e-09)
(1.26574e-08 -9.91293e-09 1.36511e-08)
(1.44702e-08 -2.70938e-08 2.68652e-08)
(1.39705e-08 -4.26373e-08 4.05867e-08)
(1.40712e-08 -5.60113e-08 5.33714e-08)
(1.79868e-08 -6.89134e-08 6.39933e-08)
(2.84513e-08 -8.83449e-08 7.08332e-08)
(3.95388e-08 -1.19757e-07 7.21664e-08)
(4.44049e-09 2.78357e-09 2.99926e-09)
(1.03841e-08 -1.12667e-08 1.14159e-08)
(1.22756e-08 -2.82149e-08 2.15055e-08)
(1.22567e-08 -4.32721e-08 3.20057e-08)
(1.29329e-08 -5.56649e-08 4.16805e-08)
(1.73405e-08 -6.72169e-08 4.93165e-08)
(2.80335e-08 -8.51905e-08 5.36764e-08)
(3.9119e-08 -1.15226e-07 5.39779e-08)
(3.90659e-09 2.30156e-09 2.47563e-09)
(9.65785e-09 -1.13866e-08 8.64416e-09)
(1.17753e-08 -2.79372e-08 1.57264e-08)
(1.21741e-08 -4.25734e-08 2.30149e-08)
(1.32904e-08 -5.44362e-08 2.96508e-08)
(1.8014e-08 -6.54276e-08 3.47343e-08)
(2.87643e-08 -8.28725e-08 3.74623e-08)
(3.97155e-08 -1.12263e-07 3.74993e-08)
(3.73214e-09 2.19413e-09 1.60079e-09)
(9.48214e-09 -1.11579e-08 5.35605e-09)
(1.1796e-08 -2.73379e-08 9.54371e-09)
(1.2477e-08 -4.16569e-08 1.38022e-08)
(1.38716e-08 -5.32533e-08 1.7643e-08)
(1.87792e-08 -6.40584e-08 2.05418e-08)
(2.95414e-08 -8.13557e-08 2.20592e-08)
(4.03814e-08 -1.10445e-07 2.20492e-08)
(3.68248e-09 2.18498e-09 5.50519e-10)
(9.45324e-09 -1.09723e-08 1.80953e-09)
(1.18701e-08 -2.69384e-08 3.19371e-09)
(1.26887e-08 -4.10878e-08 4.59154e-09)
(1.42149e-08 -5.2573e-08 5.84596e-09)
(1.92073e-08 -6.33311e-08 6.78718e-09)
(2.99723e-08 -8.06006e-08 7.27612e-09)
(4.07557e-08 -1.0957e-07 7.26978e-09)
(1.81939e-08 3.89746e-08 2.57719e-08)
(3.48261e-08 3.23708e-08 5.86432e-08)
(3.87642e-08 1.44433e-08 8.32101e-08)
(3.76933e-08 -4.78757e-09 1.03795e-07)
(3.65616e-08 -2.47257e-08 1.23232e-07)
(3.84027e-08 -4.8906e-08 1.43087e-07)
(4.41141e-08 -8.4847e-08 1.63178e-07)
(4.87975e-08 -1.30931e-07 1.76572e-07)
(3.84537e-09 3.23835e-08 2.46759e-08)
(7.91437e-09 2.61047e-08 5.69897e-08)
(8.06831e-09 1.13562e-08 8.03904e-08)
(6.08625e-09 -6.03352e-09 9.96281e-08)
(3.78401e-09 -2.56429e-08 1.17774e-07)
(2.38796e-09 -4.94616e-08 1.3673e-07)
(2.27341e-09 -8.343e-08 1.57429e-07)
(1.82144e-09 -1.27528e-07 1.73266e-07)
(-6.59696e-09 3.10383e-08 2.2762e-08)
(-1.42662e-08 2.55396e-08 5.42589e-08)
(-1.8016e-08 1.16926e-08 7.70652e-08)
(-2.03627e-08 -4.88431e-09 9.58524e-08)
(-2.33202e-08 -2.37539e-08 1.1361e-07)
(-2.82329e-08 -4.68404e-08 1.32205e-07)
(-3.56462e-08 -7.99569e-08 1.5255e-07)
(-4.4082e-08 -1.22765e-07 1.68038e-07)
(-1.87248e-08 3.47791e-08 2.00852e-08)
(-3.79669e-08 3.10634e-08 5.02083e-08)
(-4.5392e-08 1.59445e-08 7.28969e-08)
(-4.86011e-08 -9.37129e-10 9.20975e-08)
(-5.26617e-08 -1.87622e-08 1.10372e-07)
(-6.07204e-08 -4.08446e-08 1.29153e-07)
(-7.37358e-08 -7.43233e-08 1.48218e-07)
(-8.6794e-08 -1.16582e-07 1.60769e-07)
(-1.61983e-08 3.0272e-08 1.8117e-08)
(-3.44289e-08 2.41909e-08 4.59152e-08)
(-4.1595e-08 8.11954e-09 6.75302e-08)
(-4.48875e-08 -8.42283e-09 8.60459e-08)
(-4.89435e-08 -2.50676e-08 1.04027e-07)
(-5.6693e-08 -4.52099e-08 1.23107e-07)
(-6.95461e-08 -7.60577e-08 1.42582e-07)
(-8.16594e-08 -1.15691e-07 1.56326e-07)
(-9.04269e-09 1.50086e-08 6.72903e-09)
(-2.25935e-08 5.71198e-09 2.45017e-08)
(-2.76023e-08 -8.84493e-09 4.27804e-08)
(-2.96834e-08 -2.35698e-08 5.9849e-08)
(-3.29603e-08 -3.82867e-08 7.61837e-08)
(-4.06376e-08 -5.50266e-08 9.23481e-08)
(-5.51049e-08 -8.01451e-08 1.07248e-07)
(-7.03714e-08 -1.15335e-07 1.16646e-07)
(-2.41863e-09 6.22737e-09 2.57171e-09)
(-1.08783e-08 -5.0431e-09 1.43327e-08)
(-1.40033e-08 -1.95533e-08 2.93051e-08)
(-1.53111e-08 -3.32126e-08 4.45232e-08)
(-1.81965e-08 -4.57336e-08 5.88969e-08)
(-2.59625e-08 -5.87206e-08 7.17875e-08)
(-4.13274e-08 -7.86318e-08 8.1636e-08)
(-5.83139e-08 -1.0919e-07 8.55708e-08)
(1.2121e-09 1.77957e-09 2.38032e-09)
(-4.48913e-09 -1.01137e-08 1.16972e-08)
(-6.62431e-09 -2.47633e-08 2.37647e-08)
(-7.67876e-09 -3.78274e-08 3.64295e-08)
(-1.05586e-08 -4.87223e-08 4.82438e-08)
(-1.84718e-08 -5.91206e-08 5.80026e-08)
(-3.40371e-08 -7.58574e-08 6.41705e-08)
(-5.11886e-08 -1.03559e-07 6.52184e-08)
(2.82362e-09 -9.82615e-11 2.51414e-09)
(-1.69807e-09 -1.2048e-08 1.00761e-08)
(-3.48164e-09 -2.66e-08 1.93632e-08)
(-4.55454e-09 -3.92326e-08 2.90852e-08)
(-7.55391e-09 -4.91568e-08 3.80179e-08)
(-1.55305e-08 -5.81941e-08 4.49854e-08)
(-3.09276e-08 -7.3446e-08 4.88283e-08)
(-4.77128e-08 -9.97305e-08 4.89145e-08)
(3.45337e-09 -7.95559e-10 2.15971e-09)
(-6.49693e-10 -1.25712e-08 7.77455e-09)
(-2.37556e-09 -2.68493e-08 1.43297e-08)
(-3.54424e-09 -3.91224e-08 2.10914e-08)
(-6.64971e-09 -4.85341e-08 2.72107e-08)
(-1.46182e-08 -5.69997e-08 3.18215e-08)
(-2.97726e-08 -7.16913e-08 3.41818e-08)
(-4.61365e-08 -9.72899e-08 3.40646e-08)
(3.68317e-09 -1.03054e-09 1.42327e-09)
(-2.87067e-10 -1.25917e-08 4.86739e-09)
(-2.03751e-09 -2.65874e-08 8.75635e-09)
(-3.28612e-09 -3.85929e-08 1.27112e-08)
(-6.45283e-09 -4.77557e-08 1.6249e-08)
(-1.43895e-08 -5.60287e-08 1.8867e-08)
(-2.93525e-08 -7.05493e-08 2.01646e-08)
(-4.54161e-08 -9.58155e-08 2.00612e-08)
(3.75811e-09 -1.09902e-09 4.93324e-10)
(-1.72556e-10 -1.25246e-08 1.652e-09)
(-1.94526e-09 -2.63511e-08 2.93944e-09)
(-3.23386e-09 -3.82141e-08 4.23817e-09)
(-6.42587e-09 -4.72762e-08 5.39286e-09)
(-1.43398e-08 -5.54998e-08 6.24107e-09)
(-2.92035e-08 -6.99811e-08 6.65686e-09)
(-4.51172e-08 -9.511e-08 6.61924e-09)
(4.843e-08 -1.38385e-07 1.76022e-07)
(4.29206e-08 -1.38676e-07 1.29951e-07)
(3.61887e-08 -1.32334e-07 9.41066e-08)
(3.30183e-08 -1.26596e-07 7.04916e-08)
(3.26569e-08 -1.22372e-07 5.2143e-08)
(3.3336e-08 -1.195e-07 3.6018e-08)
(3.40439e-08 -1.17714e-07 2.1129e-08)
(3.44319e-08 -1.16854e-07 6.96153e-09)
(1.48811e-09 -1.34374e-07 1.73289e-07)
(1.07544e-09 -1.32163e-07 1.2921e-07)
(1.7015e-10 -1.25112e-07 9.52771e-08)
(3.58565e-10 -1.20053e-07 7.16832e-08)
(1.34042e-09 -1.16656e-07 5.26008e-08)
(2.4358e-09 -1.14363e-07 3.59722e-08)
(3.24968e-09 -1.12896e-07 2.09567e-08)
(3.66198e-09 -1.1217e-07 6.88273e-09)
(-4.44018e-08 -1.28501e-07 1.69121e-07)
(-3.67973e-08 -1.26545e-07 1.26292e-07)
(-3.02455e-08 -1.19746e-07 9.31173e-08)
(-2.61131e-08 -1.14902e-07 7.00747e-08)
(-2.38706e-08 -1.11676e-07 5.14371e-08)
(-2.26812e-08 -1.09507e-07 3.51853e-08)
(-2.20368e-08 -1.08121e-07 2.05018e-08)
(-2.17398e-08 -1.07434e-07 6.73396e-09)
(-8.71389e-08 -1.20575e-07 1.63549e-07)
(-7.48828e-08 -1.21471e-07 1.21226e-07)
(-6.26338e-08 -1.1586e-07 8.76177e-08)
(-5.51316e-08 -1.10769e-07 6.56371e-08)
(-5.15105e-08 -1.07058e-07 4.86232e-08)
(-4.98745e-08 -1.04562e-07 3.36366e-08)
(-4.91032e-08 -1.0302e-07 1.97525e-08)
(-4.87713e-08 -1.0228e-07 6.51135e-09)
)
;
    }
    symmetry
    {
        type            symmetry;
    }
    bottom
    {
        type            calculated;
        value           uniform (0 0 0);
    }
}


// ************************************************************************* //
