/*--------------------------------*- C++ -*----------------------------------*\
| =========                 |                                                 |
| \\      /  F ield         | OpenFOAM: The Open Source CFD Toolbox           |
|  \\    /   O peration     | Version:  v1912                                 |
|   \\  /    A nd           | Website:  www.openfoam.com                      |
|    \\/     M anipulation  |                                                 |
\*---------------------------------------------------------------------------*/
FoamFile
{
    version     2.0;
    format      ascii;
    class       volScalarField;
    location    "0.75/fluid";
    object      p;
}
// * * * * * * * * * * * * * * * * * * * * * * * * * * * * * * * * * * * * * //

dimensions      [0 2 -2 0 0 0 0];


internalField   nonuniform List<scalar> 
14592
(
0.0518059
0.0461873
0.0442876
0.0426937
0.0417895
0.0411009
0.0405763
0.0401319
0.0397178
0.0393854
0.0390035
0.0388277
0.0383652
0.0386081
0.0378264
0.0396835
0.0476418
0.0458936
0.0442138
0.0428516
0.0419367
0.0412258
0.0406729
0.0402131
0.0397937
0.0394676
0.0390992
0.0389584
0.0385315
0.0389152
0.0380917
0.0409097
0.0456534
0.0450423
0.0438083
0.0428062
0.0419656
0.0412797
0.0407144
0.0402442
0.0398202
0.0395023
0.039157
0.0390712
0.0387087
0.0392809
0.0385257
0.0421383
0.0444741
0.0443303
0.0434706
0.042716
0.0419659
0.0413103
0.0407334
0.0402443
0.0398032
0.0394796
0.0391427
0.0390983
0.0387953
0.0395327
0.0388948
0.0429665
0.0437732
0.0437534
0.0431259
0.0425334
0.0418671
0.0412475
0.0406684
0.0401606
0.0396916
0.0393383
0.0389699
0.0389066
0.03858
0.039372
0.0387519
0.0431506
0.0433175
0.0433343
0.0428525
0.0423565
0.0417489
0.0411533
0.0405696
0.0400416
0.0395437
0.0391602
0.0387656
0.0387004
0.0383945
0.0393312
0.0388813
0.0438202
0.0430195
0.0430421
0.0426355
0.0421887
0.0416117
0.0410221
0.0404214
0.0398569
0.0393031
0.0388398
0.038334
0.038111
0.0375674
0.0382117
0.0372146
0.0422324
0.0428406
0.0428643
0.0424889
0.0420597
0.0414895
0.0408916
0.0402681
0.0396672
0.0390662
0.0385432
0.0379751
0.0376926
0.0371288
0.0379415
0.0372108
0.044631
0.0517209
0.0461043
0.0442418
0.0426891
0.0418384
0.0412089
0.040751
0.0403816
0.0400542
0.0398184
0.0395525
0.0394751
0.0391525
0.0393067
0.0386496
0.0392718
0.0475567
0.0458088
0.0441672
0.0428467
0.0419858
0.0413348
0.0408493
0.0404651
0.0401332
0.0399044
0.0396512
0.0396039
0.0393023
0.0395437
0.0388168
0.0398422
0.0455644
0.0449518
0.0437548
0.0427941
0.0420077
0.0413827
0.0408855
0.0404916
0.0401553
0.0399349
0.0397032
0.0397083
0.039461
0.0398516
0.0391418
0.0406073
0.0443827
0.0442368
0.0434127
0.0426986
0.0420017
0.0414064
0.0408969
0.0404836
0.0401292
0.0399029
0.0396778
0.0397237
0.0395276
0.0400644
0.0394349
0.0411787
0.0436787
0.0436565
0.0430635
0.0425102
0.0418956
0.0413345
0.0408206
0.040386
0.04
0.03974
0.0394758
0.0394967
0.0392579
0.0398339
0.039165
0.0411433
0.0432201
0.0432346
0.0427863
0.0423282
0.0417707
0.0412312
0.0407101
0.0402524
0.0398333
0.0395398
0.0392437
0.039263
0.039035
0.0397677
0.0392317
0.0417115
0.0429186
0.042939
0.042565
0.0421549
0.0416258
0.0410894
0.0405474
0.0400477
0.0395647
0.0391812
0.038756
0.0385999
0.0380869
0.0385095
0.0372784
0.0398366
0.0427359
0.0427574
0.042414
0.0420204
0.0414963
0.0409487
0.0403803
0.0398396
0.0393032
0.0388538
0.0383577
0.0381441
0.0376028
0.0382549
0.0372491
0.042285
0.0516708
0.0460559
0.0442219
0.0427028
0.0418979
0.0413218
0.0409281
0.0406354
0.0404056
0.0402912
0.0401983
0.0403298
0.0403681
0.0408654
0.0410124
0.0417589
0.0475068
0.0457591
0.0441468
0.0428604
0.0420461
0.0414492
0.0410285
0.0407222
0.0404894
0.040384
0.0403066
0.0404706
0.0405357
0.0411114
0.04124
0.0422857
0.0455105
0.0448969
0.043728
0.042801
0.0420615
0.0414912
0.0410597
0.0407443
0.0405074
0.0404115
0.0403561
0.0405755
0.0407003
0.041435
0.0416249
0.0430606
0.0443259
0.0441786
0.0433815
0.0427
0.0420492
0.0415081
0.0410636
0.0407284
0.0404728
0.0403713
0.0403223
0.0405867
0.0407663
0.0416592
0.0419524
0.0436521
0.0436185
0.0435947
0.0430275
0.0425055
0.0419354
0.041427
0.040976
0.0406172
0.0403263
0.0401875
0.0400928
0.0403288
0.0404536
0.0413868
0.0416181
0.0435438
0.0431567
0.0431696
0.0427462
0.0423183
0.0418033
0.0413145
0.0408537
0.0404685
0.0401402
0.0399636
0.0398292
0.0400605
0.0401804
0.0412766
0.0416003
0.0440309
0.0428515
0.0428703
0.0425203
0.0421391
0.0416505
0.041162
0.0406762
0.0402436
0.0398427
0.0395645
0.0392796
0.0393106
0.0390837
0.0398217
0.039263
0.0417348
0.042665
0.0426848
0.0423648
0.041999
0.0415134
0.041011
0.0404949
0.040016
0.0395536
0.0391994
0.0388263
0.0387834
0.0384833
0.0394386
0.0389642
0.0439332
0.0516433
0.0460295
0.0442168
0.0427236
0.0419541
0.041419
0.0410736
0.0408352
0.0406687
0.0406197
0.0406061
0.0407913
0.040916
0.0413709
0.0415854
0.042097
0.0474793
0.0457318
0.0441413
0.0428813
0.042103
0.0415477
0.0411758
0.0409243
0.0407553
0.0407157
0.0407177
0.0409326
0.0410796
0.0415887
0.0417749
0.0424888
0.0454794
0.0448649
0.0437168
0.0428158
0.0421126
0.0415845
0.0412021
0.0409419
0.0407686
0.0407379
0.0407589
0.0410244
0.04122
0.0418642
0.0420854
0.0431033
0.0442921
0.0441436
0.0433662
0.0427097
0.0420946
0.0415951
0.0411993
0.0409187
0.0407257
0.0406886
0.0407133
0.041021
0.0412625
0.0420509
0.0423511
0.0435954
0.0435812
0.0435561
0.0430076
0.0425095
0.0419737
0.0415056
0.0411017
0.0407957
0.0405645
0.0404871
0.0404601
0.0407344
0.0409066
0.0417242
0.0419268
0.043376
0.0431163
0.0431278
0.0427224
0.0423173
0.0418352
0.041385
0.0409692
0.0406345
0.0403627
0.0402447
0.0401728
0.0404408
0.0405968
0.0415775
0.0418407
0.0437867
0.0428076
0.042825
0.0424923
0.0421328
0.0416754
0.0412234
0.0407797
0.0403938
0.040044
0.0398183
0.039585
0.0396445
0.0394285
0.0400441
0.0393577
0.0413359
0.0426174
0.0426361
0.0423328
0.0419877
0.0415317
0.0410638
0.040587
0.0401514
0.0397354
0.0394294
0.0391007
0.0390853
0.0387841
0.0396322
0.0389921
0.0434624
0.051631
0.0460182
0.0442218
0.0427492
0.0420084
0.0415077
0.0412042
0.0410147
0.0409086
0.0409273
0.0410033
0.0412735
0.0415322
0.0420567
0.0424504
0.042904
0.047467
0.0457199
0.0441462
0.0429072
0.0421582
0.0416377
0.0413083
0.0411064
0.0409989
0.0410284
0.0411217
0.0414228
0.0417058
0.0422789
0.0426464
0.0432626
0.0454641
0.0448491
0.043717
0.0428367
0.0421629
0.0416702
0.0413307
0.0411206
0.0410086
0.0410468
0.0411574
0.0415066
0.0418326
0.0425287
0.0429234
0.0438051
0.0442743
0.0441251
0.0433628
0.0427263
0.04214
0.0416755
0.0413221
0.0410912
0.0409587
0.04099
0.0411026
0.0414929
0.04186
0.0426952
0.0431578
0.044252
0.0435604
0.0435344
0.0430002
0.0425211
0.0420131
0.0415788
0.0412159
0.0409579
0.0407849
0.0407733
0.0408294
0.0411825
0.0414699
0.0423277
0.0426696
0.0439598
0.0430926
0.0431033
0.0427115
0.0423244
0.0418688
0.041451
0.0410743
0.0407856
0.0405688
0.0405137
0.0405195
0.0408632
0.0411229
0.0421404
0.0425154
0.0442973
0.0427808
0.0427973
0.0424777
0.0421352
0.0417029
0.0412814
0.0408742
0.0405309
0.0402311
0.0400625
0.0398965
0.0400223
0.0398859
0.0405242
0.0398893
0.0416848
0.0425875
0.0426053
0.0423145
0.0419857
0.0415534
0.041114
0.0406711
0.0402748
0.0399039
0.0396494
0.0393788
0.039422
0.0391804
0.0400439
0.0394035
0.043674
0.0516266
0.0460146
0.0442295
0.0427714
0.0420508
0.0415739
0.0412987
0.0411402
0.0410699
0.0411233
0.0412396
0.0415327
0.0418265
0.0423307
0.0427406
0.0431411
0.0474627
0.0457157
0.0441539
0.0429297
0.0422013
0.0417049
0.041404
0.0412336
0.0411622
0.0412267
0.0413605
0.0416838
0.0420009
0.0425473
0.0429271
0.0434646
0.0454574
0.044842
0.0437211
0.0428554
0.0422023
0.041734
0.0414233
0.0412448
0.0411686
0.0412411
0.0413901
0.041758
0.0421107
0.0427679
0.0431612
0.0439399
0.0442656
0.0441157
0.0433641
0.0427416
0.0421756
0.0417352
0.0414101
0.0412105
0.0411132
0.041178
0.041327
0.0417339
0.0421218
0.0429107
0.0433586
0.0443402
0.0435493
0.0435226
0.0429983
0.0425325
0.0420439
0.0416329
0.0412974
0.0410697
0.04093
0.0409503
0.0410393
0.041406
0.0417062
0.0425114
0.0428208
0.0439932
0.0430792
0.0430892
0.0427067
0.0423323
0.0418952
0.0414997
0.0411491
0.0408892
0.040704
0.0406791
0.0407145
0.04107
0.0413354
0.0422977
0.0426224
0.0442843
0.0427648
0.0427807
0.04247
0.0421394
0.0417247
0.0413241
0.0409413
0.0406249
0.0403538
0.0402124
0.0400711
0.0402053
0.0400642
0.0406431
0.0399303
0.0415955
0.0425691
0.0425862
0.042304
0.0419865
0.0415707
0.0411511
0.040731
0.0403595
0.0400146
0.039785
0.039535
0.0395853
0.0393318
0.0401373
0.0393993
0.0435305
0.0516264
0.0460148
0.0442374
0.0427891
0.0420823
0.041622
0.0413669
0.0412314
0.0411884
0.0412703
0.0414216
0.0417424
0.0420759
0.0425894
0.0430321
0.0434092
0.0474625
0.0457157
0.0441617
0.0429476
0.0422333
0.0417537
0.0414733
0.0413262
0.0412828
0.0413765
0.0415462
0.0418978
0.0422554
0.0428096
0.0432223
0.0437227
0.0454556
0.0448399
0.0437265
0.0428707
0.0422319
0.0417807
0.0414906
0.0413356
0.0412872
0.0413886
0.0415723
0.0419668
0.0423561
0.0430145
0.0434337
0.0441627
0.0442624
0.0441122
0.0433676
0.0427547
0.0422025
0.041779
0.0414743
0.041298
0.041228
0.0413214
0.0415039
0.0419362
0.0423573
0.0431437
0.04361
0.0445371
0.0435444
0.0435173
0.0429995
0.0425428
0.0420675
0.0416728
0.0413571
0.0411518
0.0410384
0.0410859
0.0412062
0.0415963
0.0419245
0.0427233
0.0430403
0.0441555
0.0430726
0.0430822
0.0427061
0.0423401
0.0419158
0.0415357
0.0412039
0.0409656
0.0408051
0.0408061
0.0408701
0.0412473
0.0415353
0.0424885
0.0428086
0.0444118
0.0427565
0.042772
0.0424672
0.0421447
0.0417419
0.0413559
0.0409907
0.0406943
0.0404457
0.040328
0.0402114
0.0403642
0.0402377
0.0408029
0.0400657
0.0416638
0.0425591
0.0425759
0.0422993
0.0419893
0.0415848
0.0411789
0.040775
0.040422
0.0400975
0.0398891
0.0396602
0.0397263
0.0394805
0.040269
0.03949
0.0435478
0.0516267
0.0460159
0.0442415
0.0427982
0.0420977
0.041645
0.0413988
0.0412728
0.0412404
0.0413318
0.0414936
0.0418187
0.0421591
0.0426652
0.0431103
0.0434781
0.0474632
0.0457162
0.044166
0.0429567
0.0422489
0.041777
0.0415054
0.0413679
0.041335
0.0414379
0.0416177
0.0419729
0.0423363
0.0428812
0.0432959
0.0437821
0.0454552
0.0448395
0.0437297
0.0428785
0.0422462
0.0418027
0.0415216
0.041376
0.0413378
0.0414479
0.0416404
0.0420366
0.0424288
0.0430737
0.0434913
0.0442013
0.0442614
0.0441109
0.0433697
0.0427612
0.0422155
0.0417996
0.0415037
0.0413367
0.0412766
0.0413783
0.0415689
0.0420019
0.0424238
0.0431942
0.0436549
0.0445609
0.0435425
0.0435151
0.0430006
0.0425479
0.0420789
0.0416916
0.0413843
0.041188
0.041084
0.0411394
0.0412668
0.0416569
0.0419838
0.0427649
0.0430713
0.0441641
0.0430699
0.0430792
0.0427061
0.0423441
0.0419256
0.0415526
0.0412289
0.0409991
0.0408475
0.040856
0.0409263
0.0413029
0.0415876
0.0425216
0.0428251
0.0444044
0.0427529
0.0427681
0.0424662
0.0421474
0.0417502
0.0413708
0.0410132
0.0407249
0.0404845
0.0403736
0.0402624
0.0404144
0.0402827
0.0408281
0.0400679
0.0416387
0.0425545
0.0425711
0.0422973
0.0419909
0.0415916
0.0411919
0.0407951
0.0404496
0.0401326
0.0399306
0.039706
0.0397707
0.0395177
0.0402848
0.0394751
0.0434987
0.0611085
0.0503588
0.0467069
0.0437163
0.0419986
0.0406686
0.0396359
0.0387008
0.0377927
0.0368605
0.0358267
0.0347083
0.0333696
0.0319276
0.0301286
0.0283005
0.0568436
0.0496112
0.0463371
0.043629
0.0419653
0.0406628
0.0396397
0.0387112
0.0378105
0.036888
0.0358645
0.0347595
0.0334351
0.0320114
0.0302273
0.02841
0.0548347
0.0485659
0.0456964
0.0433243
0.0417894
0.0405704
0.0395841
0.0386772
0.0377908
0.0368814
0.0358725
0.0347848
0.0334856
0.0320913
0.0303424
0.0285533
0.0535874
0.0477595
0.0452266
0.0430865
0.0416667
0.0405136
0.0395526
0.0386556
0.0377719
0.0368634
0.035858
0.0347769
0.0334919
0.0321152
0.0303914
0.0286254
0.0528428
0.0471452
0.0448186
0.0428326
0.041511
0.0404192
0.0394867
0.0386019
0.0377207
0.0368104
0.0358043
0.0347238
0.0334471
0.0320815
0.0303815
0.0286397
0.0523598
0.0467117
0.0445198
0.0426305
0.0413786
0.0403294
0.0394169
0.0385384
0.0376554
0.0367395
0.0357295
0.0346463
0.033376
0.0320199
0.0303467
0.0286328
0.0520551
0.0464213
0.0443014
0.0424655
0.0412556
0.0402317
0.0393309
0.0384533
0.037564
0.0366383
0.0356192
0.0345265
0.0332564
0.0319021
0.0302561
0.0285717
0.0518848
0.0462557
0.0441676
0.042354
0.0411614
0.0401456
0.0392463
0.0383634
0.037465
0.0365285
0.0355015
0.0344013
0.0331361
0.031789
0.030179
0.0285306
0.0568447
0.0496103
0.0463335
0.0436214
0.0419525
0.0406432
0.0396132
0.0386787
0.0377661
0.0368265
0.0357816
0.0346547
0.0332991
0.0318517
0.0300252
0.0282125
0.0526538
0.0492239
0.0461447
0.0436566
0.0419992
0.0406879
0.0396446
0.0387021
0.0377855
0.036845
0.0358016
0.0346792
0.0333308
0.0318978
0.0300886
0.028289
0.0506432
0.0482726
0.0455812
0.0434229
0.0418702
0.0406234
0.0396033
0.0386741
0.0377649
0.0368311
0.0357973
0.0346874
0.0333599
0.0319495
0.0301691
0.0283961
0.0494107
0.0474869
0.0451439
0.0432193
0.0417755
0.0405874
0.0395861
0.0386613
0.0377498
0.0368138
0.0357815
0.0346766
0.0333622
0.0319685
0.0302124
0.0284614
0.048672
0.0468688
0.0447424
0.0429744
0.0416279
0.0404995
0.0395255
0.0386111
0.0377007
0.0367626
0.0357297
0.0346258
0.0333202
0.0319376
0.0302052
0.0284778
0.0481925
0.0464294
0.0444441
0.0427746
0.0414985
0.0404128
0.0394589
0.0385508
0.0376388
0.0366961
0.0356608
0.0345559
0.033259
0.0318881
0.0301849
0.0284856
0.0478891
0.046135
0.0442249
0.0426098
0.0413764
0.0403165
0.0393745
0.0384676
0.0375506
0.0365992
0.0355565
0.0344437
0.0331492
0.0317815
0.0301085
0.0284378
0.0477195
0.045968
0.0440911
0.0424991
0.0412836
0.0402324
0.0392921
0.0383807
0.0374562
0.0364958
0.0354475
0.0343298
0.0330441
0.0316867
0.0300547
0.0284201
0.0548581
0.0485884
0.0457254
0.0433597
0.0418332
0.0406223
0.0396496
0.0387585
0.0378736
0.0369596
0.0359282
0.0348174
0.0334355
0.0319725
0.0299966
0.0280993
0.050667
0.0482977
0.0456173
0.0434711
0.0419337
0.040704
0.0397071
0.0388024
0.0379096
0.0369922
0.0359614
0.0348551
0.0334812
0.0320329
0.0300744
0.0281929
0.0486543
0.047415
0.0451454
0.0433388
0.041882
0.0406916
0.0396993
0.0387972
0.0379054
0.0369901
0.0359671
0.0348721
0.0335187
0.0320908
0.0301527
0.0282847
0.0474377
0.0466628
0.0447587
0.0431937
0.0418365
0.0406924
0.0397068
0.0388005
0.0379006
0.0369792
0.0359558
0.0348652
0.0335252
0.0321139
0.0301984
0.028351
0.0467095
0.0460581
0.0443824
0.0429794
0.0417161
0.0406251
0.0396592
0.0387571
0.0378537
0.0369264
0.0358999
0.0348079
0.0334753
0.0320736
0.0301817
0.0283581
0.046237
0.0456235
0.0440947
0.042793
0.041599
0.0405476
0.0395973
0.0386975
0.0377896
0.0368554
0.035825
0.0347312
0.0334091
0.0320215
0.0301672
0.0283791
0.0459366
0.04533
0.043879
0.042633
0.0414813
0.0404538
0.0395118
0.0386097
0.037694
0.0367474
0.0357061
0.0345999
0.0332782
0.031891
0.0300769
0.0283251
0.0457677
0.0451626
0.0437459
0.0425233
0.041389
0.0403689
0.0394256
0.0385165
0.0375917
0.0366336
0.0355851
0.0344725
0.0331623
0.0317889
0.0300341
0.0283324
0.0536355
0.0478075
0.0452951
0.0431785
0.0417894
0.0406698
0.0397499
0.0388981
0.0380431
0.0371617
0.0361498
0.035066
0.0336493
0.0321706
0.0299622
0.0279407
0.0494597
0.0475376
0.0452209
0.0433271
0.0419223
0.0407777
0.0398281
0.0389573
0.0380905
0.0372043
0.0361928
0.0351147
0.0337079
0.032248
0.0300555
0.0280517
0.0474623
0.0466874
0.0447991
0.0432537
0.0419216
0.0408051
0.0398493
0.0389724
0.0381005
0.0372135
0.0362091
0.0351424
0.0337559
0.0323132
0.0301247
0.0281083
0.0462626
0.0459575
0.0444419
0.0431429
0.0419065
0.0408293
0.0398727
0.0389853
0.0381013
0.0372058
0.0362004
0.0351383
0.0337658
0.03234
0.030168
0.0281656
0.0455465
0.0453663
0.0440831
0.0429487
0.0418038
0.0407747
0.039832
0.038944
0.0380525
0.0371478
0.0361364
0.0350701
0.0337028
0.0322837
0.0301337
0.0281543
0.0450817
0.0449388
0.0438036
0.042771
0.0416939
0.0407014
0.0397707
0.0388816
0.0379829
0.0370685
0.0360519
0.0349832
0.0336289
0.0322284
0.0301291
0.0281979
0.044785
0.0446482
0.0435912
0.0426141
0.0415778
0.0406068
0.0396809
0.0387861
0.0378756
0.0369439
0.035911
0.0348228
0.0334651
0.0320594
0.0300162
0.0281343
0.0446165
0.0444809
0.0434581
0.042504
0.041484
0.0405186
0.0395889
0.0386845
0.0377621
0.0368154
0.035773
0.0346762
0.0333348
0.0319494
0.0299975
0.0281938
0.0529178
0.0472218
0.044936
0.0429997
0.0417442
0.0407276
0.0398829
0.039097
0.0383026
0.03749
0.0365371
0.0355322
0.0341195
0.032681
0.0301761
0.0280017
0.0487483
0.0469475
0.0448684
0.0431584
0.0418878
0.0408464
0.0399706
0.0391645
0.0383587
0.0375429
0.0365927
0.0355977
0.0341996
0.0327896
0.0302985
0.0281357
0.0467602
0.0461086
0.0444699
0.0431148
0.0419152
0.0408974
0.0400102
0.0391932
0.0383801
0.0375631
0.0366214
0.0356404
0.0342637
0.0328685
0.030354
0.0281354
0.0455723
0.0453918
0.0441296
0.0430237
0.0419179
0.0409353
0.0400425
0.0392111
0.0383833
0.0375569
0.0366146
0.0356402
0.0342801
0.0329051
0.0303984
0.0281841
0.0448657
0.0448106
0.0437831
0.0428431
0.0418271
0.0408888
0.0400053
0.0391686
0.0383289
0.0374891
0.0365372
0.035555
0.0341968
0.0328261
0.0303392
0.0281494
0.0444073
0.0443893
0.0435104
0.042672
0.041722
0.0408173
0.0399421
0.0391003
0.0382493
0.037396
0.0364361
0.0354501
0.034108
0.0327638
0.0303481
0.0282316
0.0441134
0.0441013
0.0433006
0.0425169
0.0416059
0.0407195
0.0398455
0.0389929
0.0381234
0.0372443
0.0362583
0.0352396
0.0338832
0.0325207
0.0301809
0.0281354
0.0439447
0.0439337
0.0431667
0.0424052
0.0415089
0.0406253
0.0397446
0.0388783
0.0379914
0.0370909
0.0360896
0.0350559
0.0337186
0.0323836
0.0301816
0.0282709
0.0524509
0.0468057
0.0446791
0.0428705
0.0417271
0.0408025
0.0400333
0.0393189
0.0385929
0.0378593
0.0369742
0.0360582
0.0346389
0.0332307
0.0302811
0.0278786
0.0482847
0.0465241
0.044611
0.043031
0.0418738
0.0409252
0.0401248
0.0393907
0.0386545
0.0379194
0.0370395
0.0361387
0.0347389
0.0333708
0.0304135
0.0279653
0.0463015
0.0456867
0.044219
0.0429972
0.0419115
0.0409861
0.0401723
0.0394255
0.0386815
0.0379464
0.0370772
0.0361943
0.0348156
0.0334553
0.0304114
0.0277999
0.0451207
0.044976
0.0438855
0.0429134
0.0419204
0.0410284
0.0402064
0.0394429
0.038683
0.0379383
0.0370695
0.0361963
0.0348357
0.0334982
0.0304365
0.027792
0.0444199
0.0444003
0.0435447
0.0427382
0.0418336
0.0409833
0.0401672
0.0393946
0.0386189
0.0378568
0.0369739
0.0360884
0.0347241
0.0333867
0.0303358
0.0277115
0.0439654
0.0439827
0.0432752
0.0425693
0.041729
0.0409096
0.0400987
0.0393172
0.0385264
0.0377472
0.0368536
0.0359638
0.0346203
0.0333236
0.0303745
0.0278655
0.0436727
0.0436958
0.0430659
0.0424136
0.0416103
0.0408063
0.0399927
0.0391949
0.0383784
0.0375636
0.0366317
0.035692
0.0343184
0.032984
0.0301411
0.0277419
0.0435028
0.0435269
0.0429302
0.0422992
0.0415088
0.0407051
0.0398817
0.0390653
0.0382259
0.0373831
0.0364304
0.0354711
0.0341255
0.0328421
0.0302222
0.0280876
0.0521445
0.0465157
0.0444928
0.0427766
0.0417287
0.040892
0.0402075
0.039583
0.0389559
0.038348
0.037606
0.0368988
0.0356609
0.0345726
0.0314657
0.0291613
0.0479797
0.0462284
0.0444224
0.0429361
0.0418759
0.0410157
0.0403008
0.0396584
0.0390229
0.0384166
0.0376832
0.0369987
0.0357869
0.0347582
0.0316168
0.0291953
0.045997
0.0453879
0.0440289
0.0429023
0.0419148
0.0410782
0.0403493
0.0396946
0.0390523
0.0384483
0.0377295
0.0370714
0.0358869
0.0348808
0.0316095
0.0289474
0.0448191
0.0446789
0.0436967
0.0428195
0.041924
0.0411195
0.0403808
0.0397082
0.0390494
0.0384367
0.0377207
0.0370798
0.0359216
0.0349585
0.0316573
0.0289374
0.0441206
0.0441051
0.0433574
0.0426449
0.0418361
0.0410714
0.0403357
0.0396503
0.0389716
0.0383373
0.037602
0.0369453
0.0357779
0.034819
0.0315212
0.0288239
0.0436675
0.0436888
0.0430885
0.0424753
0.0417288
0.0409929
0.040259
0.0395607
0.0388622
0.0382062
0.0374557
0.0367939
0.0356505
0.0347533
0.031589
0.0290673
0.0433743
0.0434014
0.042878
0.042317
0.0416052
0.0408817
0.0401406
0.0394191
0.0386854
0.03798
0.037171
0.0364295
0.0352155
0.0342293
0.0311532
0.0287717
0.0432022
0.0432303
0.0427393
0.0421985
0.0414975
0.0407714
0.0400164
0.0392703
0.0385058
0.0377619
0.0369199
0.0361446
0.0349513
0.0340296
0.0312452
0.029352
0.0519396
0.0463176
0.0443667
0.0427192
0.0417489
0.0409884
0.0403824
0.039842
0.0393068
0.0388091
0.0381854
0.0376278
0.0364893
0.0355264
0.0320065
0.0292395
0.0477752
0.0460263
0.0442943
0.0428776
0.0418959
0.0411125
0.0404771
0.0399198
0.0393776
0.0388834
0.0382699
0.0377387
0.0366212
0.0357037
0.0319834
0.0286174
0.0457903
0.0451808
0.0438955
0.0428389
0.0419309
0.0411716
0.040523
0.0399542
0.0394061
0.0389164
0.0383197
0.0378204
0.0367254
0.0358206
0.0318259
0.0277801
0.0446126
0.044471
0.0435614
0.0427533
0.0419366
0.0412085
0.040549
0.0399616
0.0393965
0.0388989
0.038306
0.0378294
0.0367618
0.0359056
0.0318256
0.0275433
0.0439138
0.0438965
0.0432203
0.0425757
0.0418444
0.0411542
0.0404948
0.0398917
0.0393028
0.0387792
0.0381608
0.0376638
0.0365759
0.0357224
0.031626
0.0273297
0.04346
0.0434795
0.0429498
0.0424033
0.0417324
0.0410687
0.040408
0.0397886
0.0391756
0.0386267
0.0379892
0.0374889
0.0364298
0.0356692
0.0317583
0.0276971
0.0431649
0.0431902
0.0427366
0.0422409
0.0416027
0.0409484
0.0402757
0.0396269
0.0389697
0.0383585
0.0376426
0.0370347
0.035861
0.0349604
0.0311188
0.0271821
0.0429898
0.0430161
0.0425943
0.0421176
0.0414882
0.0408288
0.040138
0.0394594
0.0387647
0.0381072
0.0373506
0.036707
0.0355661
0.0348013
0.0314057
0.0282897
0.0427669
0.0427917
0.0424106
0.0419693
0.0413795
0.0407537
0.040091
0.0394337
0.038754
0.0381066
0.0373537
0.0367087
0.0355538
0.0347667
0.0313073
0.0280995
0.0428006
0.0428259
0.0424034
0.0419258
0.0412954
0.0406291
0.0399256
0.0392201
0.0384848
0.0377612
0.0369289
0.0361552
0.0349463
0.0339998
0.031149
0.0291864
0.042956
0.0429758
0.0424646
0.0419173
0.0412244
0.0405041
0.039751
0.0389912
0.0381929
0.0373788
0.0364404
0.0354839
0.0341213
0.0328099
0.030125
0.0279278
0.0432839
0.0432682
0.0425985
0.0419348
0.041155
0.0403771
0.0395844
0.0387872
0.0379515
0.037087
0.036105
0.035077
0.0337254
0.0323643
0.0301059
0.02814
0.0438659
0.0437256
0.0428083
0.0419637
0.0410749
0.0402301
0.0394054
0.0385809
0.037717
0.0368122
0.0357931
0.0347044
0.0333513
0.0319418
0.0299412
0.0280876
0.0449551
0.0443466
0.0430428
0.0419392
0.0409476
0.0400577
0.039231
0.0384115
0.0375498
0.0366369
0.0356139
0.0345106
0.0331906
0.0317945
0.0299968
0.0282485
0.0468674
0.0451165
0.0433602
0.0418939
0.0408262
0.0399094
0.0390854
0.0382686
0.0374159
0.0365034
0.0354827
0.0343753
0.0330814
0.0317026
0.0300317
0.028353
0.0510332
0.0454148
0.0434515
0.0417654
0.0407205
0.0398382
0.0390514
0.0382623
0.0374371
0.0365464
0.0355454
0.0344538
0.0331793
0.0318095
0.0301599
0.0284662
0.0426578
0.0426804
0.0423304
0.0419235
0.0413781
0.0407994
0.0401871
0.0395832
0.0389579
0.0383695
0.0376649
0.0370608
0.0358673
0.0349363
0.0309863
0.0269077
0.0426868
0.0427102
0.0423184
0.0418741
0.0412861
0.0406645
0.0400076
0.0393504
0.0386627
0.03799
0.0371979
0.0364622
0.0352262
0.0342055
0.0310203
0.028529
0.0428373
0.0428552
0.0423743
0.0418597
0.0412077
0.0405288
0.0398182
0.039101
0.0383425
0.0375684
0.0366573
0.0357236
0.0343262
0.0329533
0.0300102
0.0275183
0.0431604
0.0431429
0.0425032
0.0418713
0.0411318
0.0403936
0.0396399
0.038881
0.0380798
0.0372489
0.0362891
0.0352794
0.0339037
0.0325063
0.0300837
0.0279591
0.0437382
0.0435962
0.0427087
0.0418953
0.0410449
0.0402385
0.0394501
0.0386597
0.0378256
0.0369482
0.0359461
0.0348697
0.033497
0.0320604
0.0299495
0.0279996
0.0448243
0.0442146
0.0429405
0.0418677
0.0409137
0.0400601
0.039269
0.0384819
0.0376469
0.0367582
0.0357503
0.0346576
0.0333245
0.0319095
0.0300383
0.0282251
0.0467356
0.0449846
0.0432582
0.0418222
0.040791
0.0399086
0.0391176
0.0383314
0.0375044
0.0366141
0.0356073
0.0345093
0.0332063
0.0318134
0.0300909
0.0283636
0.0509015
0.0452848
0.0433515
0.0416959
0.0406876
0.0398405
0.0390865
0.0383285
0.0375311
0.0366641
0.0356793
0.0345999
0.0333201
0.0319393
0.030243
0.0285003
0.0425825
0.0426037
0.0422761
0.0418959
0.0413871
0.0408502
0.0402854
0.0397358
0.0391723
0.0386599
0.0380426
0.0375526
0.0364649
0.0356583
0.0315589
0.027244
0.0426074
0.0426293
0.0422595
0.0418409
0.0412874
0.0407049
0.0400914
0.0394822
0.0388472
0.0382372
0.0375119
0.0368613
0.0356866
0.0347395
0.0313959
0.0286873
0.0427534
0.04277
0.0423108
0.0418212
0.041202
0.0405588
0.0398874
0.0392116
0.0384962
0.0377703
0.036905
0.0360248
0.0346483
0.0332972
0.030193
0.0275384
0.0430724
0.0430537
0.0424351
0.0418274
0.0411201
0.0404155
0.0396971
0.0389748
0.0382099
0.0374176
0.0364916
0.0355186
0.0341509
0.0327602
0.0302233
0.027991
0.0436468
0.0435037
0.042637
0.0418471
0.0410272
0.0402529
0.0394968
0.0387384
0.0379347
0.0370878
0.0361102
0.0350578
0.0336853
0.0322457
0.0300531
0.0280285
0.0447304
0.0441199
0.0428666
0.0418168
0.0408925
0.0400694
0.039309
0.0385513
0.0377432
0.0368805
0.0358925
0.0348176
0.0334831
0.0320626
0.0301341
0.0282658
0.046641
0.0448899
0.0431846
0.0417711
0.0407684
0.0399139
0.0391521
0.0383943
0.0375917
0.0367244
0.0357345
0.0346506
0.033346
0.031947
0.0301829
0.0284126
0.0508069
0.0451915
0.0432793
0.0416466
0.0406672
0.039849
0.0391234
0.0383938
0.037623
0.0367801
0.0358139
0.0347501
0.0334711
0.0320855
0.0303509
0.028564
0.0425312
0.0425511
0.0422397
0.0418792
0.0413985
0.0408938
0.0403649
0.039854
0.0393303
0.0388582
0.0382724
0.0377993
0.0366797
0.0357702
0.0313791
0.0266669
0.0425524
0.0425733
0.0422192
0.0418196
0.0412924
0.0407403
0.0401597
0.0395856
0.0389856
0.0384106
0.037711
0.0370758
0.0358722
0.0348525
0.0312884
0.028305
0.0426948
0.0427103
0.0422666
0.0417956
0.0412014
0.0405858
0.0399447
0.0393
0.0386143
0.0379172
0.0370709
0.0362013
0.0347966
0.0333907
0.030117
0.0272806
0.0430105
0.0429907
0.0423873
0.0417974
0.0411148
0.0404362
0.0397454
0.039051
0.0383123
0.0375447
0.0366346
0.0356711
0.0342828
0.0328555
0.0302036
0.0278559
0.0435821
0.0434382
0.0425863
0.0418138
0.041017
0.0402679
0.0395373
0.0388037
0.0380228
0.037197
0.0362326
0.0351881
0.0338007
0.0323361
0.030065
0.027965
0.0446637
0.0440526
0.0428141
0.0417814
0.0408795
0.0400805
0.0393445
0.03861
0.037823
0.0369793
0.0360037
0.0349365
0.0335923
0.0321546
0.0301717
0.0282497
0.0465737
0.0448227
0.0431323
0.0417357
0.0407546
0.039922
0.0391835
0.0384485
0.0376655
0.036816
0.0358378
0.0347618
0.033451
0.0320398
0.0302364
0.0284249
0.0507397
0.0451253
0.0432283
0.0416126
0.0406552
0.0398596
0.0391571
0.0384509
0.0377013
0.0368776
0.035925
0.0348711
0.0335886
0.0321931
0.0304223
0.0285938
0.042498
0.0425171
0.0422176
0.0418724
0.0414141
0.0409359
0.0404378
0.0399619
0.0394768
0.0390477
0.0385056
0.0380747
0.0369757
0.0360497
0.0315035
0.026512
0.0425161
0.0425363
0.0421938
0.0418087
0.0413023
0.0407749
0.0402225
0.0396796
0.0391129
0.0385742
0.0379087
0.037306
0.0361099
0.0350728
0.0313753
0.0282044
0.0426554
0.0426704
0.0422379
0.0417811
0.0412063
0.0406133
0.0399975
0.0393801
0.0387224
0.0380548
0.0372338
0.0363869
0.0349805
0.0335558
0.0301722
0.0272036
0.0429684
0.0429481
0.0423555
0.0417792
0.0411155
0.0404581
0.0397902
0.0391199
0.0384052
0.037662
0.0367716
0.035825
0.034433
0.0329906
0.03026
0.0278241
0.0435378
0.0433934
0.0425521
0.0417927
0.0410137
0.0402846
0.039575
0.0388627
0.0381024
0.0372968
0.036348
0.0353161
0.033925
0.0324487
0.0301222
0.0279623
0.0446179
0.0440064
0.0427785
0.0417585
0.0408738
0.0400939
0.0393777
0.0386628
0.0378944
0.0370686
0.0361063
0.0350497
0.0337029
0.032256
0.0302334
0.0282675
0.0465274
0.0447764
0.0430968
0.0417126
0.040748
0.0399328
0.039213
0.0384969
0.0377312
0.0368979
0.0359319
0.0348651
0.0335528
0.0321347
0.0303017
0.028456
0.0506934
0.0450798
0.0431936
0.0415907
0.04065
0.0398719
0.0391884
0.0385019
0.0377704
0.0369639
0.0360245
0.0349811
0.0336988
0.0322975
0.0304989
0.0286358
0.042477
0.0424955
0.0422042
0.0418697
0.041427
0.0409672
0.0404899
0.0400365
0.0395741
0.0391664
0.0386395
0.0382124
0.0370906
0.0361032
0.0314082
0.0262053
0.0424928
0.0425124
0.0421778
0.0418029
0.041311
0.040801
0.0402677
0.0397452
0.0391985
0.0386786
0.0380255
0.0374262
0.0362089
0.0351241
0.0313092
0.0279981
0.0426299
0.0426443
0.0422195
0.0417727
0.0412116
0.0406343
0.0400361
0.0394368
0.0387966
0.038145
0.0373339
0.03649
0.0350652
0.0336046
0.0301305
0.0270616
0.0429408
0.04292
0.042335
0.041768
0.0411178
0.0404752
0.0398234
0.0391695
0.0384702
0.0377411
0.0368593
0.0359159
0.0345103
0.0330426
0.0302479
0.0277443
0.0435086
0.0433637
0.0425298
0.0417795
0.041013
0.0402982
0.0396034
0.0389058
0.0381594
0.0373662
0.0364251
0.0353968
0.0339962
0.0325028
0.0301316
0.027925
0.0445875
0.0439757
0.042755
0.041744
0.0408715
0.0401052
0.0394032
0.038702
0.0379465
0.0371323
0.0361775
0.035125
0.0337721
0.0323132
0.0302584
0.028258
0.0464966
0.0447456
0.0430734
0.041698
0.0407451
0.0399424
0.039236
0.0385335
0.03778
0.0369577
0.0359992
0.034937
0.033621
0.0321943
0.0303374
0.0284645
0.0506627
0.0450496
0.0431709
0.0415769
0.0406482
0.0398826
0.0392129
0.0385407
0.0378221
0.0370275
0.0360967
0.0350592
0.0337746
0.032366
0.0305448
0.0286543
0.0424652
0.0424833
0.0421973
0.0418701
0.0414379
0.0409908
0.0405284
0.0400915
0.0396469
0.0392574
0.038747
0.0383314
0.0372071
0.0361941
0.0314161
0.0260722
0.0424794
0.0424987
0.0421693
0.0418011
0.041319
0.0408208
0.0403011
0.0397934
0.0392622
0.0387579
0.0381179
0.0375276
0.0363053
0.0351994
0.0313165
0.027914
0.0426149
0.0426291
0.0422093
0.041769
0.041217
0.0406505
0.0400646
0.0394785
0.0388516
0.0382131
0.0374123
0.0365753
0.035145
0.0336676
0.0301399
0.027005
0.0429244
0.0429034
0.0423231
0.0417624
0.0411211
0.0404885
0.0398478
0.0392057
0.038518
0.0378001
0.0369268
0.0359889
0.0345786
0.0330985
0.0302651
0.0277164
0.0434911
0.043346
0.0425168
0.0417724
0.0410143
0.040309
0.0396244
0.0389372
0.0382009
0.0374174
0.0364835
0.0354599
0.0340561
0.032554
0.0301554
0.0279175
0.0445692
0.0439573
0.0427412
0.041736
0.0408714
0.0401144
0.039422
0.0387305
0.0379842
0.0371788
0.0362305
0.0351824
0.0338273
0.0323621
0.0302873
0.0282635
0.0464781
0.0447271
0.0430596
0.0416898
0.0407446
0.0399502
0.039253
0.0385598
0.037815
0.037001
0.0360485
0.0349906
0.0336735
0.0322421
0.0303701
0.0284787
0.0506442
0.0450314
0.0431575
0.0415694
0.0406484
0.0398911
0.0392308
0.0385685
0.037859
0.0370731
0.036149
0.0351164
0.0338314
0.0324188
0.0305832
0.0286739
0.0424598
0.0424777