/*--------------------------------*- C++ -*----------------------------------*\
| =========                 |                                                 |
| \\      /  F ield         | OpenFOAM: The Open Source CFD Toolbox           |
|  \\    /   O peration     | Version:  v1912                                 |
|   \\  /    A nd           | Website:  www.openfoam.com                      |
|    \\/     M anipulation  |                                                 |
\*---------------------------------------------------------------------------*/
FoamFile
{
    version     2.0;
    format      ascii;
    class       surfaceScalarField;
    location    "0.75/fluid";
    object      phi;
}
// * * * * * * * * * * * * * * * * * * * * * * * * * * * * * * * * * * * * * //

dimensions      [0 3 -1 0 0 0 0];
oriented        oriented;


internalField   nonuniform List<scalar> 
41600
(
5.00989e-05
1.25966e-05
3.4549e-07
-5.41002e-07
3.99802e-05
1.0471e-05
5.8631e-07
-9.38643e-07
3.25005e-05
7.8608e-06
4.84518e-07
-8.65618e-07
2.78918e-05
4.94217e-06
1.19701e-07
-4.53146e-07
2.51679e-05
2.97182e-06
-4.53915e-07
2.05931e-07
2.35743e-05
1.75002e-06
-1.17851e-06
1.02212e-06
2.25463e-05
1.09885e-06
-2.05127e-06
1.98038e-06
2.17495e-05
7.84818e-07
-3.10135e-06
3.11335e-06
2.09921e-05
6.5715e-07
-4.39202e-06
4.49229e-06
2.01572e-05
6.06345e-07
-6.00927e-06
6.23782e-06
1.91693e-05
5.68223e-07
-8.10295e-06
8.52265e-06
1.7903e-05
4.43606e-07
-1.07971e-05
1.16198e-05
1.61804e-05
2.1936e-07
-1.44694e-05
1.59727e-05
1.34625e-05
-4.52243e-07
-1.87539e-05
2.19241e-05
8.50872e-06
-1.00093e-06
-2.36787e-05
2.96333e-05
-3.46183e-06
-1.91645e-05
3.11351e-05
6.48269e-05
1.05451e-05
4.79373e-07
-7.54731e-07
6.36035e-05
1.22286e-05
8.57033e-07
-1.39118e-06
6.12032e-05
1.08968e-05
7.76612e-07
-1.41233e-06
5.86023e-05
8.15881e-06
2.65656e-07
-8.81365e-07
5.63412e-05
5.74476e-06
-6.41553e-07
1.29706e-07
5.44959e-05
3.96571e-06
-1.87447e-06
1.5041e-06
5.29308e-05
2.88553e-06
-3.41504e-06
3.19337e-06
5.14541e-05
2.33442e-06
-5.29966e-06
5.2268e-06
4.98847e-05
2.14363e-06
-7.62646e-06
7.7094e-06
4.80383e-05
2.16272e-06
-1.0546e-05
1.0836e-05
4.57311e-05
2.28456e-06
-1.43042e-05
1.48951e-05
4.26119e-05
2.37688e-06
-1.91507e-05
2.03366e-05
3.82246e-05
2.38815e-06
-2.56037e-05
2.78223e-05
3.12311e-05
1.88039e-06
-3.31643e-05
3.78251e-05
2.02815e-05
1.08438e-06
-4.07975e-05
4.96618e-05
-2.10011e-06
-3.21313e-05
5.10511e-05
6.63715e-05
6.97022e-06
5.25789e-07
-8.22408e-07
6.87946e-05
1.03959e-05
9.53365e-07
-1.54379e-06
6.98816e-05
1.05283e-05
8.90899e-07
-1.60943e-06
6.98427e-05
8.91077e-06
3.60582e-07
-1.07365e-06
6.91739e-05
7.02528e-06
-6.08212e-07
-3.4592e-09
6.81599e-05
5.44099e-06
-1.95153e-06
1.49026e-06
6.69316e-05
4.40987e-06
-3.6532e-06
3.35712e-06
6.54876e-05
3.90575e-06
-5.75265e-06
5.62529e-06
6.3747e-05
3.83407e-06
-8.35417e-06
8.40439e-06
6.1549e-05
4.07934e-06
-1.16256e-05
1.19069e-05
5.86672e-05
4.5501e-06
-1.58338e-05
1.645e-05
5.46489e-05
5.12575e-06
-2.12775e-05
2.25469e-05
4.88749e-05
5.74393e-06
-2.85046e-05
3.09228e-05
3.96746e-05
5.92403e-06
-3.70836e-05
4.22402e-05
2.54264e-05
5.35827e-06
-4.57367e-05
5.5711e-05
1.36377e-06
-3.64531e-05
5.84156e-05
6.52764e-05
4.49309e-06
5.46918e-07
-8.46164e-07
6.83698e-05
7.90718e-06
1.00293e-06
-1.60759e-06
7.07855e-05
8.85288e-06
9.56503e-07
-1.69682e-06
7.21508e-05
8.28344e-06
4.34691e-07
-1.17268e-06
7.26325e-05
7.18094e-06
-5.27297e-07
-1.10003e-07
7.24396e-05
6.11969e-06
-1.86538e-06
1.3795e-06
7.17461e-05
5.42175e-06
-3.56444e-06
3.24608e-06
7.06251e-05
5.17333e-06
-5.66531e-06
5.51878e-06
6.90564e-05
5.36793e-06
-8.27168e-06
8.30654e-06
6.69079e-05
5.95727e-06
-1.15556e-05
1.18261e-05
6.3944e-05
6.90064e-06
-1.57845e-05
1.63979e-05
5.96615e-05
8.12387e-06
-2.12823e-05
2.25666e-05
5.33435e-05
9.58573e-06
-2.86015e-05
3.10776e-05
4.31651e-05
1.07608e-05
-3.74061e-05
4.27478e-05
2.72897e-05
1.08068e-05
-4.64046e-05
5.68315e-05
5.49905e-06
-3.73864e-05
6.05408e-05
6.43379e-05
2.95182e-06
5.66267e-07
-8.62883e-07
6.709e-05
5.75938e-06
1.05007e-06
-1.65441e-06
6.97046e-05
6.97918e-06
1.02735e-06
-1.76828e-06
7.16313e-05
7.09463e-06
5.28182e-07
-1.26602e-06
7.27734e-05
6.67527e-06
-4.04581e-07
-2.31898e-07
7.31978e-05
6.18095e-06
-1.70193e-06
1.21628e-06
7.30227e-05
5.91689e-06
-3.34516e-06
3.02516e-06
7.23212e-05
6.02582e-06
-5.37202e-06
5.22102e-06
7.10948e-05
6.56752e-06
-7.87986e-06
7.90667e-06
6.92305e-05
7.56428e-06
-1.10377e-05
1.1295e-05
6.64963e-05
9.04076e-06
-1.51007e-05
1.56948e-05
6.23559e-05
1.10069e-05
-2.04079e-05
2.16652e-05
5.60044e-05
1.34922e-05
-2.74939e-05
2.9939e-05
4.54263e-05
1.60048e-05
-3.61552e-05
4.14892e-05
2.84602e-05
1.72882e-05
-4.51168e-05
5.56016e-05
1.05118e-05
-3.67184e-05
6.01658e-05
6.38002e-05
1.94505e-06
5.86771e-07
-8.8018e-07
6.61281e-05
4.03192e-06
1.10137e-06
-1.70184e-06
6.86281e-05
5.21565e-06
1.11055e-06
-1.84699e-06
7.0752e-05
5.70306e-06
6.44948e-07
-1.37731e-06
7.22655e-05
5.79236e-06
-2.46086e-07
-3.84483e-07
7.31258e-05
5.80157e-06
-1.48704e-06
1.00607e-06
7.33846e-05
5.9765e-06
-3.05256e-06
2.73421e-06
7.3091e-05
6.47331e-06
-4.97384e-06
4.81989e-06
7.22483e-05
7.39262e-06
-7.33788e-06
7.35549e-06
7.07518e-05
8.82232e-06
-1.0306e-05
1.05445e-05
6.83727e-05
1.08582e-05
-1.41135e-05
1.46752e-05
6.4544e-05
1.36336e-05
-1.91094e-05
2.03115e-05
5.83829e-05
1.72945e-05
-2.57921e-05
2.81509e-05
4.76513e-05
2.15247e-05
-3.41273e-05
3.93391e-05
2.97979e-05
2.48236e-05
-4.28527e-05
5.31705e-05
1.69735e-05
-3.54006e-05
5.87369e-05
6.35542e-05
1.1819e-06
6.10972e-07
-9.02025e-07
6.56168e-05
2.56641e-06
1.16085e-06
-1.7579e-06
6.80041e-05
3.5607e-06
1.2093e-06
-1.94172e-06
7.02165e-05
4.21874e-06
7.86723e-07
-1.51475e-06
7.19664e-05
4.66891e-06
-5.20248e-08
-5.74491e-07
7.3153e-05
5.09376e-06
-1.2239e-06
7.4514e-07
7.37869e-05
5.66276e-06
-2.69383e-06
2.37373e-06
7.39054e-05
6.51695e-06
-4.4815e-06
4.31927e-06
7.35255e-05
7.77374e-06
-6.65628e-06
6.65507e-06
7.25749e-05
9.57272e-06
-9.36011e-06
9.56036e-06
7.08731e-05
1.20711e-05
-1.27879e-05
1.32768e-05
6.78876e-05
1.55613e-05
-1.72698e-05
1.83276e-05
6.27432e-05
2.03568e-05
-2.3205e-05
2.52871e-05
5.2807e-05
2.67857e-05
-3.07359e-05
3.54111e-05
3.47589e-05
3.35889e-05
-3.85004e-05
4.77833e-05
2.98658e-05
-3.23794e-05
5.4246e-05
6.34671e-05
6.38088e-07
-9.28097e-07
5.04755e-07
6.54308e-05
1.22667e-06
-1.82222e-06
1.19832e-06
6.77959e-05
1.31892e-06
-2.04972e-06
1.92639e-06
7.0095e-05
9.45204e-07
-1.67191e-06
2.6463e-06
7.20251e-05
1.64972e-07
-7.90983e-07
3.3649e-06
7.34625e-05
-9.31394e-07
4.51081e-07
4.13665e-06
7.44027e-05
-2.29809e-06
1.97265e-06
5.04802e-06
7.48834e-05
-3.94141e-06
3.76752e-06
6.21013e-06
7.49378e-05
-5.91126e-06
5.88792e-06
7.74261e-06
7.45261e-05
-8.32672e-06
8.4849e-06
9.82625e-06
7.35171e-05
-1.13395e-05
1.17511e-05
1.26685e-05
7.14299e-05
-1.52529e-05
1.6159e-05
1.67423e-05
6.74713e-05
-2.03627e-05
2.21606e-05
2.25176e-05
5.87675e-05
-2.70092e-05
3.11321e-05
3.13666e-05
4.17457e-05
-3.38237e-05
4.20746e-05
4.23597e-05
-2.99318e-05
5.05661e-05
5.09772e-05
5.00342e-05
1.26025e-05
2.08798e-07
3.97929e-05
1.04889e-05
3.38689e-07
3.21785e-05
7.88186e-06
2.17089e-07
2.74445e-05
4.96093e-06
-1.07235e-07
2.46033e-05
2.99012e-06
-6.02907e-07
2.2887e-05
1.7716e-06
-1.23376e-06
2.17122e-05
1.12868e-06
-2.00513e-06
2.07263e-05
8.2631e-07
-2.94175e-06
1.97172e-05
7.14034e-07
-4.09698e-06
1.85512e-05
6.82475e-07
-5.5257e-06
1.71221e-05
6.72454e-07
-7.34638e-06
1.53109e-05
5.88605e-07
-9.57453e-06
1.28842e-05
4.31804e-07
-1.24745e-05
9.59269e-06
-1.29314e-07
-1.53331e-05
4.49355e-06
-6.65963e-07
-1.79136e-05
-2.60713e-06
-1.20638e-05
6.47358e-05
1.05591e-05
2.86975e-07
6.3335e-05
1.22633e-05
4.834e-07
6.07144e-05
1.0945e-05
3.34169e-07
5.78796e-05
8.21202e-06
-1.50634e-07
5.53806e-05
5.8035e-06
-9.55948e-07
5.32827e-05
4.03605e-06
-2.04107e-06
5.14252e-05
2.97776e-06
-3.40659e-06
4.95831e-05
2.45847e-06
-5.08973e-06
4.75358e-05
2.31066e-06
-7.17575e-06
4.50596e-05
2.38328e-06
-9.7706e-06
4.19161e-05
2.57548e-06
-1.30637e-05
3.77479e-05
2.7503e-06
-1.71442e-05
3.20511e-05
2.86594e-06
-2.2341e-05
2.39582e-05
2.45349e-06
-2.76542e-05
1.25857e-05
1.61224e-06
-3.17033e-05
-1.52181e-06
-2.06309e-05
6.62794e-05
6.98798e-06
3.1751e-07
6.85168e-05
1.04401e-05
5.39232e-07
6.93671e-05
1.05961e-05
3.89491e-07
6.90684e-05
8.99543e-06
-1.24167e-07
6.81274e-05
7.12723e-06
-9.90914e-07
6.68207e-05
5.56795e-06
-2.17676e-06
6.5255e-05
4.57616e-06
-3.68594e-06
6.33935e-05
4.12825e-06
-5.56097e-06
6.11104e-05
4.13348e-06
-7.89382e-06
5.81972e-05
4.4771e-06
-1.08062e-05
5.43645e-05
5.07656e-06
-1.45021e-05
4.9143e-05
5.80135e-06
-1.9107e-05
4.1858e-05
6.60048e-06
-2.49542e-05
3.13536e-05
6.90638e-06
-3.1032e-05
1.65823e-05
6.28162e-06
-3.56347e-05
1.80312e-06
-2.31957e-05
6.51865e-05
4.5129e-06
3.35526e-07
6.80957e-05
7.9572e-06
5.76617e-07
7.02768e-05
8.93469e-06
4.36756e-07
7.13843e-05
8.3939e-06
-7.1299e-08
7.15946e-05
7.32196e-06
-9.32359e-07
7.11092e-05
6.30092e-06
-2.11295e-06
7.00785e-05
5.66108e-06
-3.61858e-06
6.85404e-05
5.49452e-06
-5.49355e-06
6.64294e-05
5.80237e-06
-7.82951e-06
6.35628e-05
6.54054e-06
-1.07525e-05
5.96374e-05
7.6829e-06
-1.44655e-05
5.41258e-05
9.14501e-06
-1.91143e-05
4.62441e-05
1.09081e-05
-2.50273e-05
3.4684e-05
1.23072e-05
-3.12469e-05
1.82017e-05
1.23652e-05
-3.60059e-05
6.08873e-06
-2.34704e-05
6.425e-05
2.97387e-06
3.5526e-07
6.6821e-05
5.81526e-06
6.21015e-07
6.92071e-05
7.07336e-06
5.02619e-07
7.08855e-05
7.22737e-06
1.62827e-08
7.1769e-05
6.85059e-06
-8.16689e-07
7.19164e-05
6.41056e-06
-1.959e-06
7.14231e-05
6.22212e-06
-3.41284e-06
7.03282e-05
6.43711e-06
-5.21975e-06
6.85889e-05
7.12728e-06
-7.46549e-06
6.60415e-05
8.32435e-06
-1.02741e-05
6.23848e-05
1.00763e-05
-1.38374e-05
5.70494e-05
1.23887e-05
-1.83161e-05
4.91481e-05
1.53351e-05
-2.40197e-05
3.71569e-05
1.82403e-05
-3.0097e-05
1.94636e-05
1.9727e-05
-3.47853e-05
1.15136e-05
-2.26798e-05
6.37141e-05
1.96991e-06
3.76657e-07
6.58646e-05
4.09416e-06
6.7197e-07
6.81432e-05
5.32123e-06
5.8404e-07
7.00306e-05
5.85476e-06
1.30129e-07
7.13018e-05
5.99633e-06
-6.63026e-07
7.19063e-05
6.07158e-06
-1.75254e-06
7.18732e-05
6.33726e-06
-3.13455e-06
7.12194e-05
6.96165e-06
-4.84462e-06
6.9906e-05
8.06185e-06
-6.959e-06
6.77783e-05
9.742e-06
-9.59593e-06
6.45389e-05
1.21321e-05
-1.29299e-05
5.95786e-05
1.53736e-05
-1.71342e-05
5.19202e-05
1.96881e-05
-2.24866e-05
3.97741e-05
2.45446e-05
-2.82855e-05
2.10606e-05
2.8378e-05
-3.27903e-05
1.86408e-05
-2.14672e-05
6.34701e-05
1.20961e-06
4.01166e-07
6.53599e-05
2.63454e-06
7.30689e-07
6.75344e-05
3.67564e-06
6.80386e-07
6.95235e-05
4.38484e-06
2.67562e-07
7.10503e-05
4.89381e-06
-4.76305e-07
7.20068e-05
5.39274e-06
-1.50155e-06
7.23829e-05
6.06293e-06
-2.79562e-06
7.21873e-05
7.05978e-06
-4.38406e-06
7.14001e-05
8.5206e-06
-6.32784e-06
6.99049e-05
1.0608e-05
-8.7309e-06
6.74618e-05
1.35227e-05
-1.17354e-05
6.34924e-05
1.75846e-05
-1.55114e-05
5.70284e-05
2.32124e-05
-2.02652e-05
4.57836e-05
3.05392e-05
-2.54856e-05
2.67707e-05
3.83198e-05
-2.94293e-05
3.23929e-05
-1.93608e-05
6.33852e-05
4.27689e-07
5.3479e-07
6.51813e-05
7.94371e-07
1.27073e-06
6.73429e-05
7.8581e-07
2.04715e-06
6.94329e-05
4.1928e-07
2.8208e-06
7.11597e-05
-2.69669e-07
3.6016e-06
7.23941e-05
-1.22467e-06
4.45162e-06
7.3113e-05
-2.42352e-06
5.46955e-06
7.3329e-05
-3.88006e-06
6.78242e-06
7.30446e-05
-5.6383e-06
8.532e-06
7.21822e-05
-7.78491e-06
1.09286e-05
7.05627e-05
-1.04269e-05
1.42297e-05
6.76578e-05
-1.37254e-05
1.8962e-05
6.25976e-05
-1.78108e-05
2.57206e-05
5.27531e-05
-2.23892e-05
3.57637e-05
3.47819e-05
-2.57861e-05
4.82535e-05
-1.76463e-05
5.48892e-05
4.99843e-05
1.26082e-05
1.16224e-07
3.96456e-05
1.05051e-05
1.7234e-07
3.19166e-05
7.90172e-06
4.44095e-08
2.7067e-05
4.97961e-06
-2.37281e-07
2.41103e-05
3.00836e-06
-6.54525e-07
2.22687e-05
1.79271e-06
-1.18495e-06
2.09437e-05
1.15681e-06
-1.83687e-06
1.97658e-05
8.64351e-07
-2.62826e-06
1.85023e-05
7.64985e-07
-3.59847e-06
1.70012e-05
7.49044e-07
-4.77366e-06
1.51276e-05
7.60223e-07
-6.23298e-06
1.27752e-05
7.05084e-07
-7.92716e-06
9.7306e-06
5.85001e-07
-1.00149e-05
6.11237e-06
8.72728e-08
-1.18022e-05
1.67803e-06
-5.12582e-07
-1.29666e-05
-2.25154e-06
-8.13428e-06
6.46651e-05
1.05732e-05
1.56888e-07
6.3123e-05
1.22966e-05
2.34021e-07
6.03163e-05
1.09919e-05
5.05715e-08
5.7271e-05
8.2654e-06
-3.91117e-07
5.45459e-05
5.86279e-06
-1.08526e-06
5.21998e-05
4.10629e-06
-2.00859e-06
5.00524e-05
3.0679e-06
-3.17025e-06
4.78513e-05
2.57756e-06
-4.60187e-06
4.53407e-05
2.46914e-06
-6.36929e-06
4.2264e-05
2.59081e-06
-8.53559e-06
3.83408e-05
2.84668e-06
-1.12271e-05
3.32364e-05
3.09413e-06
-1.44289e-05
2.64967e-05
3.29422e-06
-1.83105e-05
1.78433e-05
2.94661e-06
-2.18602e-05
7.34022e-06
2.0207e-06
-2.37335e-05
-1.19584e-06
-1.43464e-05
6.62083e-05
7.00653e-06
1.7591e-07
6.82979e-05
1.04841e-05
2.62104e-07
6.8949e-05
1.06634e-05
6.6945e-08
6.84177e-05
9.08033e-06
-4.07882e-07
6.72203e-05
7.22934e-06
-1.16007e-06
6.56286e-05
5.69366e-06
-2.17243e-06
6.37309e-05
4.73819e-06
-3.45845e-06
6.14612e-05
4.34201e-06
-5.05578e-06
5.86548e-05
4.41836e-06
-7.0366e-06
5.5064e-05
4.85275e-06
-9.47731e-06
5.03515e-05
5.57037e-06
-1.25133e-05
4.40635e-05
6.4296e-06
-1.61545e-05
3.55753e-05
7.38724e-06
-2.05591e-05
2.4368e-05
7.79478e-06
-2.46728e-05
1.04654e-05
7.10535e-06
-2.68168e-05
2.19358e-06
-1.61197e-05
6.51175e-05
4.53387e-06
1.90662e-07
6.7881e-05
8.0079e-06
2.89412e-07
6.98652e-05
9.01637e-06
9.95758e-08
7.07423e-05
8.50396e-06
-3.72045e-07
7.06975e-05
7.46163e-06
-1.11984e-06
6.99274e-05
6.47838e-06
-2.12757e-06
6.85646e-05
5.89253e-06
-3.41009e-06
6.66183e-05
5.80173e-06
-5.00702e-06
6.39831e-05
6.21452e-06
-6.99043e-06
6.04342e-05
7.08997e-06
-9.44079e-06
5.56157e-05
8.41505e-06
-1.24918e-05
4.90073e-05
1.00928e-05
-1.6169e-05
3.98642e-05
1.21242e-05
-2.06212e-05
2.75223e-05
1.37175e-05
-2.48277e-05
1.18512e-05
1.38026e-05
-2.7032e-05
6.77168e-06
-1.61973e-05
6.41832e-05
2.99685e-06
2.09107e-07
6.66117e-05
5.87153e-06
3.28849e-07
6.88066e-05
7.16661e-06
1.57499e-07
7.02635e-05
7.35803e-06
-2.94658e-07
7.09035e-05
7.02197e-06
-1.01704e-06
7.07805e-05
6.63296e-06
-1.99062e-06
6.99726e-05
6.51516e-06
-3.22754e-06
6.84909e-05
6.82882e-06
-4.76515e-06
6.62534e-05
7.65706e-06
-6.67055e-06
6.30531e-05
9.0394e-06
-9.02312e-06
5.85329e-05
1.10452e-05
-1.19474e-05
5.21205e-05
1.36716e-05
-1.54825e-05
4.29529e-05
1.70335e-05
-1.97614e-05
3.01327e-05
2.02887e-05
-2.38481e-05
1.31412e-05
2.19988e-05
-2.59899e-05
1.27464e-05
-1.55133e-05
6.36489e-05
1.99508e-06
2.29496e-07
6.56607e-05
4.15571e-06
3.75999e-07
6.7755e-05
5.4243e-06
2.32087e-07
6.94318e-05
6.00203e-06
-1.90653e-07
7.04746e-05
6.19323e-06
-8.77104e-07
7.08282e-05
6.33064e-06
-1.80378e-06
7.05049e-05
6.68145e-06
-2.9776e-06
6.9495e-05
7.42506e-06
-4.43095e-06
6.77218e-05
8.69419e-06
-6.22294e-06
6.49874e-05
1.0607e-05
-8.42907e-06
6.09374e-05
1.33255e-05
-1.11601e-05
5.49497e-05
1.69936e-05
-1.44685e-05
4.6056e-05
2.19044e-05
-1.84639e-05
3.30586e-05
2.73353e-05
-2.23346e-05
1.49043e-05
3.17262e-05
-2.43635e-05
2.07329e-05
-1.45493e-05
6.3407e-05
1.23677e-06
2.52513e-07
6.51626e-05
2.70048e-06
4.30287e-07
6.71608e-05
3.78609e-06
3.20407e-07
6.89517e-05
4.54389e-06
-6.52531e-08
7.02677e-05
5.10853e-06
-7.07596e-07
7.0997e-05
5.6774e-06
-1.5776e-06
7.11147e-05
6.4429e-06
-2.67475e-06
7.06053e-05
7.57379e-06
-4.02337e-06
6.94158e-05
9.22629e-06
-5.67043e-06
6.73903e-05
1.15835e-05
-7.68199e-06
6.42382e-05
1.48877e-05
-1.01455e-05
5.93605e-05
1.94793e-05
-1.31194e-05
5.17888e-05
2.58795e-05
-1.66686e-05
3.97412e-05
3.40465e-05
-2.01493e-05
2.10902e-05
4.28474e-05
-2.18995e-05
3.56106e-05
-1.31485e-05
6.33242e-05
2.76916e-07
5.63341e-07
6.49913e-05
4.88476e-07
1.33932e-06
6.69855e-05
4.16291e-07
2.16141e-06
6.88907e-05
7.2252e-08
2.9857e-06
7.04253e-05
-5.21146e-07
3.82537e-06
7.14578e-05
-1.32928e-06
4.74947e-06
7.19524e-05
-2.34332e-06
5.8681e-06
7.19011e-05
-3.57821e-06
7.32324e-06
7.12788e-05
-5.06742e-06
9.2778e-06
6.99738e-05
-6.86526e-06
1.19688e-05
6.77655e-05
-9.03376e-06
1.57028e-05
6.4101e-05
-1.16335e-05
2.10518e-05
5.81126e-05
-1.46827e-05
2.87397e-05
4.75725e-05
-1.77275e-05
3.9925e-05
2.9862e-05
-1.92289e-05
5.40006e-05
-1.20113e-05
5.98376e-05
4.99462e-05
1.26135e-05
5.65208e-08
3.95312e-05
1.05193e-05
6.81009e-08
3.17089e-05
7.91954e-06
-5.28879e-08
2.67622e-05
4.99689e-06
-2.87491e-07
2.37073e-05
3.02571e-06
-6.25252e-07
2.17621e-05
1.81305e-06
-1.05283e-06
2.03201e-05
1.184e-06
-1.57892e-06
1.90062e-05
9.01599e-07
-2.21592e-06
1.75827e-05
8.1624e-07
-2.99126e-06
1.59029e-05
8.19311e-07
-3.9131e-06
1.38406e-05
8.59147e-07
-5.02985e-06
1.13321e-05
8.49627e-07
-6.26828e-06
8.22655e-06
8.01346e-07
-7.71075e-06
4.77166e-06
4.35409e-07
-8.78268e-06
1.0257e-06
-5.83819e-08
-9.1623e-06
-1.62613e-06
-5.48245e-06
6.46105e-05
1.05863e-05
7.35759e-08
6.2957e-05
1.23268e-05
8.00782e-08
5.99989e-05
1.10347e-05
-1.06603e-07
5.6777e-05
8.31468e-06
-4.87036e-07
5.3859e-05
5.91804e-06
-1.05955e-06
5.1303e-05
4.17173e-06
-1.81131e-06
4.89196e-05
3.15138e-06
-2.7542e-06
4.64448e-05
2.68755e-06
-3.91303e-06
4.36111e-05
2.61619e-06
-5.33551e-06
4.0163e-05
2.78627e-06
-7.05448e-06
3.58322e-05
3.10917e-06
-9.14632e-06
3.03547e-05
3.44475e-06
-1.15465e-05
2.33935e-05
3.768e-06
-1.43159e-05
1.49805e-05
3.57844e-06
-1.65902e-05
5.63242e-06
2.76867e-06
-1.72125e-05
-4.47993e-07
-9.89216e-06
6.61535e-05
7.02412e-06
8.46268e-08
6.81268e-05
1.05249e-05
9.06568e-08
6.86157e-05
1.07256e-05
-1.12809e-07
6.78896e-05
9.15883e-06
-5.2588e-07
6.64735e-05
7.32378e-06
-1.14967e-06
6.46399e-05
5.80928e-06
-1.97642e-06
6.24692e-05
4.88589e-06
-3.02223e-06
5.98832e-05
4.53542e-06
-4.31767e-06
5.67035e-05
4.67515e-06
-5.91592e-06
5.26812e-05
5.19173e-06
-7.86047e-06
4.74908e-05
6.01925e-06
-1.02329e-05
4.07535e-05
7.01209e-06
-1.29846e-05
3.1978e-05
8.14255e-06
-1.61581e-05
2.10018e-05
8.71813e-06
-1.88363e-05
8.39156e-06
8.12491e-06
-1.95628e-05
2.95711e-06
-1.11332e-05
6.50647e-05
4.55393e-06
9.61561e-08
6.77138e-05
8.05529e-06
1.09863e-07
6.95383e-05
9.09202e-06
-9.13322e-08
7.02225e-05
8.60545e-06
-5.02885e-07
6.99601e-05
7.58984e-06
-1.12353e-06
6.89484e-05
6.63999e-06
-1.94659e-06
6.73126e-05
6.10118e-06
-2.98952e-06
6.50499e-05
6.0759e-06
-4.2848e-06
6.20412e-05
6.57911e-06
-5.88575e-06
5.80593e-05
7.57232e-06
-7.83943e-06
5.27587e-05
9.05387e-06
-1.02258e-05
4.5692e-05
1.09177e-05
-1.30079e-05
3.62472e-05
1.31842e-05
-1.62181e-05
2.41211e-05
1.49749e-05
-1.89583e-05
9.74779e-06
1.51623e-05
-1.9696e-05
7.63767e-06
-1.11301e-05
6.41322e-05
3.01869e-06
1.1211e-07
6.64496e-05
5.92399e-06
1.42816e-07
6.84898e-05
7.25259e-06
-4.32971e-08
6.97614e-05
7.47767e-06
-4.38448e-07
7.01938e-05
7.17789e-06
-1.03755e-06
6.98416e-05
6.83355e-06
-1.83191e-06
6.87755e-05
6.77669e-06
-2.83694e-06
6.69953e-05
7.17432e-06
-4.0834e-06
6.4406e-05
8.11854e-06
-5.62074e-06
6.07974e-05
9.65349e-06
-7.49563e-06
5.58211e-05
1.18638e-05
-9.78114e-06
4.89727e-05
1.47353e-05
-1.24518e-05
3.95129e-05
1.84103e-05
-1.55276e-05
2.68925e-05
2.19222e-05
-1.81749e-05
1.11412e-05
2.3788e-05
-1.88644e-05
1.3847e-05
-1.05815e-05
6.35996e-05
2.01858e-06
1.30029e-07
6.55036e-05
4.21245e-06
1.83473e-07
6.74493e-05
5.51843e-06
2.06005e-08
6.89501e-05
6.13567e-06
-3.49504e-07
6.97983e-05
6.37075e-06
-9.18128e-07
6.9939e-05
6.56219e-06
-1.67313e-06
6.9378e-05
6.9858e-06
-2.62573e-06
6.80947e-05
7.82951e-06
-3.8028e-06
6.60003e-05
9.2375e-06
-5.2475e-06
6.28932e-05
1.13356e-05
-7.0041e-06
5.84266e-05
1.43059e-05
-9.1355e-06
5.20391e-05
1.82826e-05
-1.16283e-05
4.28756e-05
2.35972e-05
-1.44873e-05
3.00646e-05
2.93731e-05
-1.69746e-05
1.30602e-05
3.40293e-05
-1.76004e-05
2.22005e-05
-9.8426e-06
6.33594e-05
1.26162e-06
1.50115e-07
6.50113e-05
2.76042e-06
2.30352e-07
6.68678e-05
3.88589e-06
9.64411e-08
6.84935e-05
4.68694e-06
-2.42221e-07
6.96298e-05
5.3005e-06
-7.73653e-07
7.01659e-05
5.92985e-06
-1.48138e-06
7.00713e-05
6.77639e-06
-2.37069e-06
6.9321e-05
8.0187e-06
-3.4623e-06
6.78521e-05
9.82625e-06
-4.79023e-06
6.55055e-05
1.2393e-05
-6.39286e-06
6.19983e-05
1.59849e-05
-8.31729e-06
5.67829e-05
2.09381e-05
-1.05595e-05
4.89907e-05
2.78195e-05
-1.30986e-05
3.71232e-05
3.6421e-05
-1.53296e-05
1.94767e-05
4.56134e-05
-1.5837e-05
3.74336e-05
-8.90491e-06
6.32784e-05
1.71159e-07
5.88942e-07
6.48463e-05
2.80269e-07
1.40075e-06
6.67065e-05
1.78435e-07
2.26356e-06
6.84579e-05
-1.25002e-07
3.13275e-06
6.98287e-05
-6.15265e-07
4.02391e-06
7.06888e-05
-1.27143e-06
5.01181e-06
7.09983e-05
-2.09211e-06
6.21567e-06
7.07415e-05
-3.09081e-06
7.78815e-06
6.98853e-05
-4.29138e-06
9.90635e-06
6.83165e-05
-5.72467e-06
1.28213e-05
6.5823e-05
-7.42054e-06
1.68651e-05
6.18952e-05
-9.38206e-06
2.26146e-05
5.57535e-05
-1.15633e-05
3.08417e-05
4.54049e-05
-1.35096e-05
4.25517e-05
2.85704e-05
-1.39392e-05
5.71582e-05
-8.15823e-06
6.21509e-05
4.99167e-05
1.26179e-05
2.18932e-08
3.94424e-05
1.05309e-05
1.15334e-08
3.15455e-05
7.93423e-06
-9.02608e-08
2.65187e-05
5.01125e-06
-2.71893e-07
2.33805e-05
3.04014e-06
-5.27267e-07
2.13465e-05
1.82977e-06
-8.48612e-07
1.98047e-05
1.206e-06
-1.24309e-06
1.83758e-05
9.31299e-07
-1.7183e-06
1.68196e-05
8.56476e-07
-2.29155e-06
1.49944e-05
8.7345e-07
-2.96135e-06
1.27853e-05
9.33656e-07
-3.7544e-06
1.01636e-05
9.55559e-07
-4.60212e-06
7.04107e-06
9.55328e-07
-5.54357e-06
3.75859e-06
6.71502e-07
-6.1717e-06
5.77082e-07
2.39044e-07
-6.21984e-06
-1.27414e-06
-3.63123e-06
6.45681e-05
1.05975e-05
2.587e-08
6.28277e-05
1.23522e-05
-7.92535e-10
5.97487e-05
1.10709e-05
-1.64264e-07
5.63821e-05
8.35664e-06
-4.6589e-07
5.33028e-05
5.96529e-06
-9.05351e-07
5.05694e-05
4.22751e-06
-1.47567e-06
4.79868e-05
3.22205e-06
-2.18762e-06
4.52837e-05
2.78001e-06
-3.05869e-06
4.21863e-05
2.73904e-06
-4.1206e-06
3.84439e-05
2.9486e-06
-5.38723e-06
3.38059e-05
3.32568e-06
-6.90034e-06
2.80714e-05
3.73138e-06
-8.58787e-06
2.10174e-05
4.15102e-06
-1.04576e-05
1.28954e-05
4.07858e-06
-1.18753e-05
4.52726e-06
3.34718e-06
-1.19525e-05
6.21497e-08
-6.7012e-06
6.61109e-05
7.03945e-06
3.17564e-08
6.79936e-05
1.05599e-05
2.81322e-10
6.83531e-05
1.07788e-05
-1.8014e-07
6.74675e-05
9.22625e-06
-5.09891e-07
6.58689e-05
7.40497e-06
-9.90791e-07
6.38313e-05
5.90839e-06
-1.61975e-06
6.14304e-05
5.0118e-06
-2.41105e-06
5.85804e-05
4.69936e-06
-3.38703e-06
5.50956e-05
4.89167e-06
-4.58372e-06
5.07304e-05
5.47616e-06
-6.02279e-06
4.5178e-05
6.3939e-06
-7.74879e-06
3.81284e-05
7.49541e-06
-9.69909e-06
2.92195e-05
8.76499e-06
-1.18632e-05
1.85484e-05
9.4727e-06
-1.35594e-05
7.04527e-06
8.95272e-06
-1.36652e-05
3.5448e-06
-7.57063e-06
6.50238e-05
4.57159e-06
4.01979e-08
6.75841e-05
8.09645e-06
1.30975e-08
6.9281e-05
9.15731e-06
-1.66829e-07
6.98076e-05
8.69291e-06
-4.961e-07
6.93638e-05
7.70013e-06
-9.74936e-07
6.81484e-05
6.7785e-06
-1.60121e-06
6.6282e-05
6.27909e-06
-2.39046e-06
6.37548e-05
6.30841e-06
-3.36663e-06
6.044e-05
6.88669e-06
-4.56599e-06
5.61128e-05
7.9771e-06
-6.01312e-06
5.04453e-05
9.5868e-06
-7.75122e-06
4.30574e-05
1.16016e-05
-9.72623e-06
3.34668e-05
1.40563e-05
-1.19187e-05
2.16357e-05
1.60038e-05
-1.36584e-05
8.37994e-06
1.62732e-05
-1.37607e-05
8.35227e-06
-7.55764e-06
6.4093e-05
3.0379e-06
5.28097e-08
6.63241e-05
5.9696e-06
3.85412e-08
6.82412e-05
7.32687e-06
-1.29966e-07
6.93615e-05
7.58066e-06
-4.46505e-07
6.96209e-05
7.31173e-06
-9.08521e-07
6.9075e-05
7.00509e-06
-1.51256e-06
6.77905e-05
6.99932e-06
-2.2727e-06
6.57603e-05
7.46697e-06
-3.21171e-06
6.28819e-05
8.50743e-06
-4.36307e-06
5.89467e-05
1.01681e-05
-5.75144e-06
5.36223e-05
1.25453e-05
-7.4153e-06
4.6467e-05
1.56146e-05
-9.30939e-06
3.68641e-05
1.95378e-05
-1.14063e-05
2.45224e-05
2.32523e-05
-1.30817e-05
9.84549e-06
2.52411e-05
-1.31554e-05
1.47804e-05
-7.16421e-06
6.35617e-05
2.03912e-06
6.71445e-08
6.53825e-05
4.26157e-06
7.06759e-08
6.72102e-05
5.59949e-06
-7.96995e-08
6.85676e-05
6.25033e-06
-3.76614e-07
6.92534e-05
6.5226e-06
-8.1482e-07
6.92141e-05
6.75961e-06
-1.38837e-06
6.84517e-05
7.24428e-06
-2.10824e-06
6.69388e-05
8.17146e-06
-2.99436e-06
6.45798e-05
9.69456e-06
-4.0757e-06
6.11743e-05
1.1945e-05
-5.3755e-06
5.63895e-05
1.512e-05
-6.92541e-06
4.97209e-05
1.93447e-05
-8.68988e-06
4.04269e-05
2.49769e-05
-1.06325e-05
2.78786e-05
3.1024e-05
-1.21979e-05
1.1877e-05
3.5885e-05
-1.22426e-05
2.34556e-05
-6.64071e-06
6.3323e-05
1.28311e-06
8.31528e-08
6.48952e-05
2.81194e-06
1.0779e-07
6.66396e-05
3.97136e-06
-1.98874e-08
6.81308e-05
4.80911e-06
-2.92223e-07
6.91172e-05
5.46411e-06
-7.01518e-07
6.94896e-05
6.14448e-06
-1.23864e-06
6.92143e-05
7.05906e-06
-1.91019e-06
6.82608e-05
8.3944e-06
-2.73173e-06
6.65603e-05
1.03306e-05
-3.72582e-06
6.3955e-05
1.30698e-05
-4.91229e-06
6.01747e-05
1.68958e-05
-6.31278e-06
5.4721e-05
2.21395e-05
-7.90061e-06
4.68261e-05
2.93995e-05
-9.62628e-06
3.52057e-05
3.83436e-05
-1.10289e-05
1.84495e-05
4.78398e-05
-1.10356e-05
3.90294e-05
-6.02934e-06
6.32436e-05
9.98072e-08
6.10818e-07
6.47356e-05
1.47164e-07
1.45307e-06
6.64903e-05
4.46441e-08
2.35048e-06
6.81168e-05
-2.00181e-07
3.25773e-06
6.93508e-05
-5.77544e-07
4.19246e-06
7.00646e-05
-1.07497e-06
5.23419e-06
7.0216e-05
-1.69414e-06
6.50967e-06
6.97849e-05
-2.44545e-06
8.18021e-06
6.87341e-05
-3.34435e-06
1.04343e-05
6.69519e-05
-4.40613e-06
1.35335e-05
6.42393e-05
-5.64154e-06
1.78294e-05
6.0128e-05
-7.03143e-06
2.39002e-05
5.39274e-05
-8.51439e-06
3.25512e-05
4.38226e-05
-9.73624e-06
4.46751e-05
2.77682e-05
-9.74096e-06
5.9696e-05
-5.54865e-06
6.4188e-05
4.98955e-05
1.26213e-05
5.01137e-09
3.93782e-05
1.054e-05
-1.10602e-08
3.14264e-05
7.94561e-06
-8.41306e-08
2.63402e-05
5.02261e-06
-2.08265e-07
2.31408e-05
3.05177e-06
-3.79635e-07
2.1043e-05
1.84342e-06
-5.94237e-07
1.94327e-05
1.22414e-06
-8.56983e-07
1.79305e-05
9.56126e-07
-1.17214e-06
1.62978e-05
8.90749e-07
-1.5496e-06
1.44006e-05
9.20686e-07
-1.98484e-06
1.21369e-05
1.00023e-06
-2.49095e-06
9.49992e-06
1.05171e-06
-3.01687e-06
6.43801e-06
1.09642e-06
-3.57808e-06
3.30275e-06
8.81699e-07
-3.91814e-06
4.26626e-07
5.07694e-07
-3.85141e-06
-9.93543e-07
-2.21106e-06
6.45375e-05
1.06063e-05
3.41103e-09
6.27337e-05
1.23721e-05
-2.91671e-08
5.95653e-05
1.10991e-05
-1.49421e-07
5.6091e-05
8.38967e-06
-3.58623e-07
5.28914e-05
6.00266e-06
-6.56674e-07
5.00275e-05
4.27175e-06
-1.0401e-06
4.73027e-05
3.27808e-06
-1.51673e-06
4.44443e-05
2.8534e-06
-2.09762e-06
4.11794e-05
2.83688e-06
-2.80176e-06
3.72674e-05
3.07869e-06
-3.63326e-06
3.24789e-05
3.50063e-06
-4.61222e-06
2.66576e-05
3.96562e-06
-5.68048e-06
1.96543e-05
4.46781e-06
-6.82569e-06
1.18021e-05
4.49541e-06
-7.63683e-06
4.03561e-06
3.84081e-06
-7.51904e-06
4.79568e-07
-4.13871e-06
6.60802e-05
7.05164e-06
6.26338e-09
6.78967e-05
1.05876e-05
-3.16786e-08
6.81605e-05
1.08206e-05
-1.65397e-07
6.71559e-05
9.27938e-06
-3.95065e-07
6.54211e-05
7.46898e-06
-7.22242e-07
6.32326e-05
5.98638e-06
-1.14596e-06
6.06658e-05
5.11052e-06
-1.67663e-06
5.76335e-05
4.82742e-06
-2.32873e-06
5.39505e-05
5.06035e-06
-3.12423e-06
4.93812e-05
5.69748e-06
-4.07234e-06
4.36421e-05
6.68542e-06
-5.19449e-06
3.64737e-05
7.87258e-06
-6.43762e-06
2.76006e-05
9.25295e-06
-7.77514e-06
1.72274e-05
1.00699e-05
-8.7607e-06
6.42282e-06
9.62034e-06
-8.64017e-06
4.02311e-06
-4.69136e-06
6.49944e-05
4.58569e-06
1.17565e-08
6.74899e-05
8.12908e-06
-2.38823e-08
6.90927e-05
9.20884e-06
-1.57875e-07
6.95017e-05
8.76183e-06
-3.87541e-07
6.89224e-05
7.78683e-06
-7.13512e-07
6.75562e-05
6.88694e-06
-1.13552e-06
6.55236e-05
6.4176e-06
-1.66493e-06
6.28134e-05
6.48831e-06
-2.31736e-06
5.92996e-05
7.12318e-06
-3.11506e-06
5.47669e-05
8.28639e-06
-4.06927e-06
4.89102e-05
9.99142e-06
-5.20054e-06
4.13997e-05
1.21182e-05
-6.46129e-06
3.18408e-05
1.47118e-05
-7.81864e-06
2.03067e-05
1.67777e-05
-8.83213e-06
7.75808e-06
1.71128e-05
-8.70451e-06
8.90312e-06
-4.67958e-06
6.40648e-05
3.05324e-06
2.04596e-08
6.62333e-05
6.00576e-06
-6.60476e-09
6.80596e-05
7.38546e-06
-1.3295e-07
6.90672e-05
7.66164e-06
-3.53932e-07
6.91974e-05
7.41656e-06
-6.6839e-07
6.85083e-05
7.13874e-06
-1.07524e-06
6.70665e-05
7.17161e-06
-1.58494e-06
6.48638e-05
7.69166e-06
-2.21238e-06
6.17986e-05
8.80332e-06
-2.97804e-06
5.76712e-05
1.05557e-05
-3.89335e-06
5.21708e-05
1.30525e-05
-4.97602e-06
4.4903e-05
1.6261e-05
-6.18437e-06
3.53348e-05
2.03546e-05
-7.48093e-06
2.32794e-05
2.42058e-05
-8.45433e-06
9.27906e-06
2.62695e-05
-8.31172e-06
1.54448e-05
-4.42688e-06
6.35345e-05
2.05542e-06
3.04302e-08
6.5295e-05
4.30038e-06
1.55791e-08
6.70359e-05
5.66325e-06
-9.83376e-08
6.82866e-05
6.34017e-06
-3.05849e-07
6.88512e-05
6.64106e-06
-6.03985e-07
6.8679e-05
6.91271e-06
-9.90055e-07
6.77716e-05
7.44323e-06
-1.47248e-06
6.6101e-05
8.43219e-06
-2.0643e-06
6.35726e-05
1.00391e-05
-2.78308e-06
5.99941e-05
1.23982e-05
-3.63952e-06
5.50529e-05
1.57155e-05
-4.64719e-06
4.82881e-05
2.01068e-05
-5.77101e-06
3.90353e-05
2.59438e-05
-6.96883e-06
2.67604e-05
3.21562e-05
-7.87352e-06
1.13872e-05
3.71201e-05
-7.72001e-06
2.4283e-05
-4.09167e-06
6.3297e-05
1.30003e-06
4.15474e-08
6.48115e-05
2.85242e-06
4.12388e-08
6.64736e-05
4.03831e-06
-5.70841e-08
6.78649e-05
4.90446e-06
-2.47745e-07
6.87393e-05
5.59125e-06
-5.2613e-07
6.89906e-05
6.31025e-06
-8.8747e-07
6.85853e-05
7.27565e-06
-1.33732e-06
6.74924e-05
8.67932e-06
-1.88593e-06
6.56443e-05
1.07082e-05
-2.54684e-06
6.28909e-05
1.35683e-05
-3.32893e-06
5.89804e-05
1.75532e-05
-4.24002e-06
5.34527e-05
2.29856e-05
-5.25164e-06
4.5608e-05
3.0478e-05
-6.31579e-06
3.42443e-05
3.9616e-05
-7.12507e-06
1.80492e-05
4.92475e-05
-6.96793e-06
4.00276e-05
-3.72471e-06
6.32189e-05
5.30698e-08
6.27903e-07
6.46561e-05
6.84143e-08
1.49394e-06
6.63334e-05
-1.26159e-08
2.41826e-06
6.78672e-05
-1.84421e-07
3.35489e-06
6.8999e-05
-4.41018e-07
4.32295e-06
6.96044e-05
-7.7543e-07
5.40532e-06
6.96417e-05
-1.18996e-06
6.7341e-06
6.90909e-05
-1.69156e-06
8.47623e-06
6.79168e-05
-2.28929e-06
1.08273e-05
6.60145e-05
-2.98952e-06
1.40539e-05
6.32024e-05
-3.79383e-06
1.85176e-05
5.90449e-05
-4.67955e-06
2.47912e-05
5.29102e-05
-5.59404e-06
3.36923e-05
4.30504e-05
-6.29721e-06
4.60368e-05
2.74886e-05
-6.16212e-06
6.12305e-05
-3.4374e-06
6.54049e-05
4.98815e-05
1.26236e-05
-1.22566e-10
3.93356e-05
1.05461e-05