/*--------------------------------*- C++ -*----------------------------------*\
| =========                 |                                                 |
| \\      /  F ield         | OpenFOAM: The Open Source CFD Toolbox           |
|  \\    /   O peration     | Version:  v1912                                 |
|   \\  /    A nd           | Website:  www.openfoam.com                      |
|    \\/     M anipulation  |                                                 |
\*---------------------------------------------------------------------------*/
FoamFile
{
    version     2.0;
    format      ascii;
    class       volScalarField;
    location    "0.75/fluid";
    object      T;
}
// * * * * * * * * * * * * * * * * * * * * * * * * * * * * * * * * * * * * * //

dimensions      [0 0 0 1 0 0 0];


internalField   nonuniform List<scalar> 
14592
(
273.282
273.859
274.459
275.089
275.756
276.467
277.229
278.05
278.942
279.913
280.979
282.153
283.458
284.926
286.614
288.671
273.281
273.853
274.45
275.077
275.74
276.446
277.204
278.021
278.907
279.874
280.934
282.103
283.403
284.866
286.543
288.543
273.278
273.846
274.436
275.057
275.714
276.413
277.163
277.971
278.848
279.804
280.853
282.011
283.302
284.759
286.433
288.436
273.275
273.836
274.42
275.033
275.681
276.371
277.11
277.906
278.768
279.709
280.74
281.882
283.157
284.603
286.28
288.31
273.272
273.825
274.401
275.005
275.643
276.321
277.046
277.826
278.671
279.59
280.598
281.714
282.964
284.39
286.064
288.132
273.268
273.813
274.38
274.973
275.599
276.264
276.973
277.735
278.557
279.45
280.426
281.506
282.717
284.104
285.755
287.85
273.264
273.8
274.357
274.939
275.553
276.202
276.894
277.634
278.43
279.291
280.229
281.26
282.413
283.732
285.311
287.369
273.259
273.786
274.333
274.904
275.504
276.137
276.81
277.526
278.293
279.118
280.01
280.983
282.057
283.269
284.693
286.523
273.287
273.874
274.486
275.13
275.813
276.542
277.328
278.178
279.105
280.122
281.244
282.491
283.887
285.47
287.303
289.506
273.286
273.869
274.477
275.117
275.796
276.521
277.302
278.148
279.07
280.081
281.197
282.439
283.831
285.41
287.235
289.403
273.283
273.861
274.463
275.097
275.769
276.487
277.259
278.096
279.008
280.008
281.113
282.344
283.727
285.302
287.128
289.309
273.28
273.851
274.446
275.072
275.735
276.443
277.204
278.028
278.925
279.909
280.996
282.208
283.576
285.143
286.978
289.197
273.277
273.84
274.427
275.043
275.695
276.391
277.137
277.945
278.822
279.784
280.846
282.032
283.374
284.923
286.762
289.032
273.272
273.827
274.405
275.01
275.65
276.332
277.062
277.849
278.703
279.636
280.665
281.813
283.114
284.624
286.445
288.761
273.268
273.813
274.381
274.975
275.602
276.267
276.978
277.743
278.569
279.468
280.456
281.552
282.79
284.228
285.977
288.274
273.263
273.799
274.356
274.938
275.55
276.199
276.89
277.629
278.425
279.285
280.223
281.254
282.406
283.726
285.305
287.365
273.292
273.889
274.512
275.168
275.866
276.613
277.419
278.295
279.254
280.31
281.479
282.781
284.241
285.892
287.775
289.951
273.291
273.883
274.502
275.155
275.848
276.591
277.393
278.264
279.217
280.267
281.431
282.728
284.184
285.832
287.711
289.864
273.288
273.875
274.488
275.134
275.82
276.555
277.349
278.211
279.154
280.192
281.344
282.63
284.078
285.723
287.607
289.779
273.285
273.865
274.471
275.108
275.785
276.51
277.291
278.14
279.067
280.089
281.222
282.49
283.923
285.562
287.458
289.672
273.281
273.854
274.45
275.078
275.744
276.456
277.222
278.053
278.961
279.959
281.067
282.307
283.715
285.337
287.241
289.512
273.277
273.841
274.428
275.044
275.698
276.395
277.143
277.954
278.836
279.805
280.878
282.079
283.444
285.029
286.92
289.245
273.272
273.826
274.403
275.008
275.647
276.328
277.057
277.843
278.696
279.629
280.658
281.805
283.105
284.616
286.438
288.757
273.267
273.811
274.377
274.969
275.594
276.257
276.965
277.725
278.545
279.437
280.413
281.492
282.702
284.09
285.742
287.841
273.296
273.902
274.535
275.202
275.912
276.675
277.499
278.398
279.383
280.47
281.675
283.018
284.518
286.2
288.086
290.195
273.295
273.896
274.525
275.188
275.894
276.652
277.472
278.366
279.346
280.427
281.626
282.964
284.461
286.141
288.025
290.115
273.292
273.888
274.51
275.167
275.866
276.616
277.427
278.311
279.28
280.35
281.537
282.864
284.353
286.031
287.923
290.034
273.289
273.878
274.493
275.141
275.83
276.569
277.368
278.238
279.191
280.243
281.412
282.72
284.195
285.869
287.774
289.93
273.285
273.866
274.472
275.11
275.788
276.514
277.297
278.149
279.081
280.109
281.252
282.532
283.982
285.641
287.556
289.772
273.281
273.852
274.448
275.075
275.74
276.45
277.216
278.046
278.952
279.95
281.057
282.297
283.704
285.326
287.232
289.506
273.276
273.838
274.423
275.037
275.688
276.381
277.126
277.931
278.808
279.768
280.829
282.013
283.355
284.904
286.745
289.021
273.271
273.822
274.396
274.998
275.633
276.308
277.031
277.809
278.651
279.568
280.575
281.689
282.938
284.365
286.041
288.115
273.3
273.913
274.554
275.231
275.952
276.727
277.566
278.483
279.489
280.6
281.832
283.201
284.725
286.418
288.289
290.337
273.298
273.907
274.544
275.217
275.933
276.704
277.539
278.45
279.451
280.556
281.782
283.146
284.667
286.359
288.229
290.26
273.296
273.899
274.529
275.195
275.904
276.667
277.493
278.394
279.384
280.477
281.691
283.045
284.558
286.249
288.128
290.181
273.292
273.888
274.511
275.168
275.868
276.619
277.432
278.319
279.293
280.368
281.563
282.899
284.398
286.086
287.98
290.078
273.288
273.876
274.49
275.136
275.824
276.562
277.36
278.228
279.18
280.231
281.399
282.707
284.181
285.855
287.761
289.92
273.284
273.862
274.466
275.101
275.775
276.497
277.276
278.122
279.048
280.068
281.199
282.466
283.899
285.537
287.435
289.656
273.279
273.847
274.44
275.062
275.722
276.426
277.184
278.005
278.899
279.881
280.966
282.177
283.543
285.11
286.947
289.175
273.274
273.832
274.412
275.022
275.666
276.351
277.086
277.879
278.738
279.675
280.705
281.844
283.118
284.564
286.243
288.282
273.303
273.922
274.569
275.253
275.982
276.767
277.618
278.548
279.57
280.698
281.948
283.334
284.87
286.565
288.419
290.422
273.301
273.916
274.559
275.239
275.964
276.744
277.59
278.515
279.531
280.653
281.897
283.279
284.812
286.506
288.36
290.347
273.299
273.907
274.544
275.217
275.934
276.706
277.544
278.458
279.463
280.573
281.805
283.176
284.702
286.396
288.259
290.268
273.295
273.897
274.525
275.189
275.897
276.658
277.482
278.382
279.37
280.463
281.676
283.029
284.541
286.232
288.11
290.165
273.291
273.884
274.504
275.157
275.853
276.6
277.408
278.289
279.256
280.323
281.509
282.834
284.322
286
287.891
290.008
273.286
273.87
274.479
275.121
275.803
276.534
277.323
278.181
279.121
280.157
281.306
282.59
284.036
285.68
287.565
289.745
273.282
273.855
274.453
275.082
275.749
276.462
277.229
278.061
278.969
279.966
281.068
282.296
283.676
285.25
287.077
289.268
273.276
273.839
274.425
275.04
275.691
276.385
277.129
277.933
278.805
279.757
280.802
281.958
283.246
284.701
286.375
288.386
273.305
273.928
274.579
275.268
276.003
276.795
277.653
278.592
279.624
280.763
282.024
283.42
284.963
286.656
288.496
290.47
273.303
273.922
274.569
275.254
275.984
276.771
277.625
278.559
279.585
280.718
281.973
283.364
284.904
286.597
288.437
290.396
273.3
273.913
274.554
275.232
275.955
276.733
277.578
278.501
279.516
280.637
281.88
283.261
284.794
286.487
288.337
290.318
273.297
273.902
274.535
275.204
275.917
276.684
277.516
278.424
279.422
280.525
281.75
283.113
284.632
286.322
288.188
290.215
273.293
273.89
274.513
275.171
275.872
276.625
277.441
278.33
279.307
280.385
281.581
282.916
284.411
286.089
287.969
290.059
273.288
273.876
274.489
275.135
275.822
276.559
277.355
278.221
279.17
280.216
281.376
282.67
284.123
285.768
287.643
289.796
273.283
273.86
274.462
275.095
275.767
276.485
277.26
278.1
279.017
280.023
281.136
282.373
283.762
285.337
287.156
289.322
273.278
273.844
274.434
275.053
275.709
276.408
277.159
277.969
278.85
279.811
280.867
282.032
283.329
284.787
286.456
288.447
273.306
273.931
274.585
275.276
276.014
276.809
277.671
278.614
279.651
280.795
282.062
283.462
285.007
286.699
288.532
290.492
273.304
273.925
274.574
275.261
275.995
276.785
277.643
278.581
279.612
280.75
282.011
283.407
284.948
286.64
288.474
290.418
273.301
273.916
274.559
275.239
275.965
276.747
277.595
278.523
279.543
280.669
281.918
283.303
284.838
286.53
288.373
290.341
273.298
273.905
274.54
275.211
275.927
276.697
277.533
278.446
279.449
280.557
281.786
283.154
284.676
286.365
288.224
290.238
273.294
273.893
274.518
275.179
275.882
276.638
277.458
278.351
279.332
280.415
281.617
282.957
284.454
286.131
288.005
290.082
273.289
273.878
274.494
275.142
275.831
276.571
277.371
278.241
279.195
280.246
281.411
282.709
284.166
285.81
287.679
289.82
273.284
273.863
274.467
275.102
275.776
276.498
277.275
278.119
279.04
280.052
281.169
282.411
283.803
285.379
287.193
289.347
273.279
273.847
274.438
275.06
275.718
276.42
277.174
277.988
278.873
279.839
280.899
282.069
283.369
284.828
286.494
288.475
273.255
273.774
274.31
274.866
275.443
276.042
276.663
277.306
277.968
278.645
279.329
280.01
280.673
281.298
281.862
282.339
273.254
273.77
274.304
274.857
275.432
276.028
276.646
277.287
277.946
278.62
279.301
279.979
280.638
281.26
281.822
282.297
273.252
273.764
274.294
274.843
275.413
276.005
276.618
277.253
277.906
278.574
279.249
279.92
280.573
281.19
281.746
282.218
273.25
273.757
274.282
274.825
275.389
275.974
276.58
277.207
277.853
278.512
279.177
279.839
280.482
281.089
281.638
282.104
273.247
273.749
274.267
274.804
275.36
275.937
276.535
277.152
277.787
278.434
279.088
279.737
280.367
280.962
281.5
281.957
273.244
273.739
274.251
274.78
275.328
275.896
276.483
277.089
277.712
278.345
278.984
279.617
280.232
280.812
281.336
281.781
273.24
273.729
274.233
274.754
275.293
275.851
276.427
277.021
277.629
278.247
278.869
279.484
280.081
280.642
281.15
281.581
273.237
273.718
274.215
274.727
275.257
275.804
276.369
276.949
277.542
278.143
278.747
279.342
279.919
280.46
280.948
281.363
273.255
273.775
274.313
274.871
275.451
276.053
276.679
277.328
277.999
278.686
279.383
280.08
280.762
281.409
281.995
282.494
273.254
273.771
274.306
274.861
275.438
276.038
276.661
277.308
277.975
278.659
279.353
280.047
280.725
281.369
281.953
282.45
273.252
273.765
274.296
274.846
275.419
276.014
276.632
277.272
277.934
278.611
279.299
279.986
280.658
281.295
281.875
282.368
273.25
273.758
274.283
274.828
275.394
275.982
276.593
277.226
277.878
278.547
279.225
279.902
280.564
281.192
281.763
282.25
273.247
273.749
274.268
274.807
275.365
275.945
276.547
277.17
277.811
278.468
279.133
279.797
280.445
281.061
281.621
282.098
273.244
273.74
274.252
274.782
275.332
275.903
276.494
277.106
277.735
278.377
279.027
279.674
280.306
280.905
281.45
281.915
273.241
273.729
274.234
274.756
275.297
275.858
276.438
277.036
277.65
278.277
278.909
279.537
280.15
280.729
281.256
281.706
273.237
273.718
274.215
274.729
275.261
275.81
276.378
276.963
277.562
278.171
278.784
279.391
279.982
280.539
281.044
281.476
273.257
273.78
274.322
274.884
275.469
276.079
276.715
277.376
278.063
278.771
279.494
280.223
280.943
281.634
282.268
282.811
273.256
273.776
274.314
274.873
275.456
276.063
276.696
277.354
278.037
278.742
279.461
280.187
280.903
281.591
282.223
282.765
273.254
273.769
274.303
274.858
275.435
276.037
276.664
277.317
277.994
278.691
279.404
280.122
280.832
281.514
282.14
282.679
273.251
273.762
274.29
274.839
275.41
276.004
276.624
277.268
277.936
278.624
279.326
280.034
280.733
281.404
282.022
282.554
273.248
273.753
274.275
274.817
275.38
275.966
276.576
277.21
277.866
278.542
279.23
279.924
280.608
281.265
281.87
282.392
273.245
273.743
274.258
274.792
275.347
275.923
276.522
277.144
277.787
278.447
279.119
279.794
280.46
281.099
281.687
282.195
273.242
273.733
274.24
274.765
275.311
275.877
276.464
277.072
277.699
278.342
278.995
279.65
280.294
280.91
281.477
281.966
273.238
273.722
274.221
274.738
275.273
275.828
276.403
276.996
277.607
278.231
278.863
279.495
280.114
280.704
281.245
281.712
273.26
273.788
274.336
274.905
275.499
276.12
276.77
277.45
278.159
278.897
279.658
280.435
281.214
281.974
282.684
283.302
273.258
273.783
274.328
274.894
275.485
276.103
276.75
277.426
278.132
278.866
279.624
280.397
281.172
281.929
282.636
283.253
273.256
273.777
274.317
274.878
275.463
276.076
276.717
277.387
278.086
278.813
279.563
280.328
281.096
281.846
282.548
283.161
273.254
273.769
274.303
274.858
275.437
276.042
276.674
277.336
278.026
278.742
279.48
280.234
280.99
281.729
282.422
283.028
273.251
273.76
274.287
274.835
275.406
276.002
276.625
277.275
277.952
278.655
279.379
280.116
280.856
281.579
282.257
282.852
273.247
273.75
274.27
274.81
275.371
275.957
276.569
277.206
277.869
278.555
279.26
279.978
280.696
281.398
282.056
282.633
273.244
273.739
274.251
274.782
275.334
275.909
276.508
277.131
277.777
278.444
279.128
279.821
280.514
281.188
281.82
282.374
273.24
273.728
274.232
274.754
275.295
275.859
276.444
277.051
277.679
278.326
278.986
279.653
280.316
280.958
281.557
282.081
273.263
273.799
274.355
274.934
275.539
276.174
276.842
277.545
278.285
279.061
279.871
280.711
281.569
282.426
283.247
283.98
273.262
273.794
274.346
274.922
275.524
276.156
276.821
277.52
278.256
279.028
279.835
280.67
281.524
282.377
283.196
283.928
273.26
273.788
274.335
274.905
275.502
276.128
276.786
277.479
278.207
278.972
279.77
280.597
281.443
282.289
283.102
283.83
273.257
273.779
274.321
274.885
275.474
276.092
276.742
277.425
278.143
278.896
279.682
280.496
281.329
282.163
282.966
283.687
273.254
273.77
274.305
274.861
275.442
276.051
276.69
277.361
278.066
278.804
279.573
280.369
281.184
281.999
282.786
283.495
273.251
273.76
274.287
274.834
275.406
276.004
276.631
277.289
277.977
278.697
279.445
280.219
281.008
281.799
282.561
283.25
273.247
273.748
274.267
274.806
275.367
275.954
276.567
277.209
277.879
278.578
279.302
280.048
280.806
281.563
282.292
282.949
273.243
273.737
274.247
274.776
275.327
275.901
276.5
277.125
277.775
278.451
279.148
279.861
280.583
281.299
281.983
282.598
273.267
273.812
274.378
274.968
275.587
276.239
276.929
277.659
278.433
279.254
280.124
281.04
281.996
282.978
283.954
284.861
273.266
273.807
274.369
274.956
275.572
276.221
276.906
277.633
278.403
279.22
280.085
280.996
281.949
282.927
283.901
284.805
273.264
273.8
274.357
274.939
275.549
276.191
276.87
277.589
278.352
279.16
280.016
280.918
281.862
282.833
283.801
284.702
273.261
273.792
274.343
274.917
275.52
276.154
276.824
277.533
278.284
279.08
279.922
280.81
281.739
282.697
283.655
284.551
273.258
273.782
274.326
274.892
275.486
276.11
276.769
277.465
278.202
278.981
279.805
280.673
281.581
282.519
283.46
284.344
273.254
273.771
274.307
274.865
275.448
276.061
276.707
277.388
278.107
278.866
279.666
280.508
281.388
282.296
283.208
284.07
273.25
273.76
274.287
274.835
275.408
276.008
276.639
277.303
278.002
278.738
279.51
280.319
281.162
282.028
282.896
283.717
273.246
273.747
274.265
274.804
275.365
275.953
276.568
277.214
277.891
278.6
279.341
280.112
280.909
281.722
282.528
283.284
273.272
273.827
274.403
275.007
275.641
276.312
277.025
277.785
278.598
279.468
280.403
281.404
282.475
283.61
284.791
285.96
273.271
273.822
274.395
274.994
275.625
276.293
277.002
277.758
278.566
279.432
280.362
281.358
282.425
283.556
284.734
285.896
273.268
273.815
274.382
274.976
275.601
276.262
276.964
277.712
278.512
279.369
280.289
281.275
282.332
283.457
284.629
285.789
273.266
273.806
274.367
274.954
275.571
276.223
276.915
277.653
278.44
279.284
280.188
281.159
282.201
283.312
284.476
285.635
273.262
273.796
274.35
274.928
275.536
276.177
276.857
277.581
278.353
279.178
280.062
281.011
282.03
283.12
284.268
285.421
273.259
273.785
274.33
274.899
275.496
276.126
276.792
277.499
278.252
279.054
279.913
280.832
281.818
282.873
283.99
285.123
273.255
273.772
274.309
274.868
275.454
276.07
276.72
277.409
278.139
278.916
279.743
280.624
281.565
282.569
283.63
284.71
273.25
273.76
274.287
274.835
275.409
276.011
276.645
277.314
278.02
278.767
279.557
280.394
281.279
282.212
283.186
284.165
273.277
273.842
274.431
275.048
275.698
276.389
277.126
277.917
278.77
279.692
280.693
281.784
282.975
284.281
285.713
287.269
273.276
273.837
274.422
275.035
275.682
276.369
277.102
277.889
278.737
279.654
280.65
281.735
282.922
284.224
285.65
287.185
273.273
273.83
274.409
275.016
275.657
276.337
277.063
277.841
278.68
279.587
280.573
281.648
282.825
284.119
285.541
287.075
273.27
273.821
274.393
274.993
275.625
276.296
277.012
277.779
278.604
279.497
280.466
281.525
282.686
283.968
285.386
286.929
273.267
273.81
274.375
274.966
275.589
276.248
276.951
277.703
278.512
279.385
280.332
281.366
282.503
283.764
285.17
286.723
273.263
273.799
274.355
274.936
275.547
276.194
276.882
277.616
278.404
279.252
280.171
281.172
282.273
283.496
284.872
286.418
273.259
273.786
274.333
274.903
275.503
276.136
276.806
277.521
278.284
279.104
279.987
280.945
281.993
283.156
284.465
285.954
273.255
273.773
274.31
274.869
275.456
276.074
276.727
277.419
278.156
278.942
279.784
280.69
281.671
282.744
283.933
285.262
273.254
273.772
274.309
274.868
275.454
276.071
276.724
277.416
278.152
278.938
279.78
280.685
281.666
282.739
283.928
285.258
273.25
273.758
274.285
274.833
275.406
276.007
276.64
277.308
278.013
278.759
279.549
280.385
281.27
282.203
283.178
284.157
273.246
273.746
274.263
274.8
275.361
275.947
276.561
277.206
277.882
278.59
279.33
280.101
280.897
281.71
282.517
283.273
273.242
273.735
274.244
274.772
275.321
275.894
276.492
277.115
277.765
278.439
279.135
279.848
280.57
281.285
281.97
282.585
273.24
273.726
274.228
274.749
275.289
275.851
276.435
277.041
277.667
278.313
278.972
279.638
280.3
280.943
281.542
282.067
273.237
273.72
274.217
274.733
275.266
275.82
276.393
276.985
277.594
278.217
278.848
279.479
280.097
280.688
281.23
281.697
273.236
273.716
274.212
274.724
275.254
275.802
276.368
276.951
277.548
278.156
278.767
279.374
279.964
280.522
281.028
281.461
273.236
273.716
274.211
274.722
275.25
275.795
276.358
276.936
277.528
278.128
278.73
279.325
279.901
280.442
280.931
281.348
273.259
273.785
274.33
274.9
275.498
276.13
276.8
277.513
278.276
279.094
279.976
280.934
281.982
283.144
284.454
285.945
273.254
273.77
274.306
274.864
275.448
276.063
276.712
277.399
278.128
278.903
279.729
280.61
281.55
282.554
283.616
284.697
273.25
273.757
274.283
274.83
275.401
276
276.629
277.291
277.988
278.722
279.494
280.302
281.144
282.01
282.879
283.7
273.246
273.746
274.263
274.8
275.36
275.944
276.556
277.195
277.864
278.561
279.284
280.028
280.786
281.543
282.272
282.931
273.243
273.737
274.247
274.776
275.326
275.899
276.495
277.116
277.76
278.426
279.108
279.801
280.493
281.167
281.799
282.355
273.241
273.73
274.235
274.759
275.302
275.866
276.451
277.057
277.682
278.323
278.975
279.628
280.272
280.888
281.456
281.946
273.24
273.726
274.229
274.749
275.288
275.846
276.424
277.02
277.632
278.257
278.888
279.515
280.127
280.707
281.234
281.686
273.239
273.726
274.228
274.747
275.284
275.839
276.413
277.005
277.61
278.227
278.847
279.462
280.058
280.62
281.128
281.561
273.262
273.796
274.351
274.93
275.54
276.185
276.871
277.603
278.389
279.236
280.153
281.153
282.253
283.477
284.854
286.403
273.258
273.782
274.325
274.893
275.488
276.115
276.778
277.483
278.234
279.035
279.891
280.81
281.795
282.85
283.968
285.102
273.253
273.768
274.302
274.857
275.439
276.049
276.692
277.37
278.087
278.844
279.643
280.483
281.362
282.27
283.183
284.047
273.249
273.756
274.281
274.826
275.395
275.991
276.615
277.27
277.956
278.673
279.42
280.192
280.981
281.771
282.535
283.225
273.246
273.747
274.264
274.801
275.36
275.943
276.552
277.186
277.846
278.53
279.234
279.95
280.668
281.369
282.028
282.608
273.244
273.74
274.252
274.783
275.335
275.909
276.505
277.124
277.764
278.422
279.092
279.766
280.432
281.071
281.66
282.169
273.243
273.736
274.246
274.773
275.321
275.888
276.477
277.085
277.711
278.351
278.999
279.645
280.277
280.876
281.422
281.89
273.242
273.735
274.244
274.771
275.316
275.881
276.465
277.068
277.688
278.319
278.956
279.588
280.203
280.783
281.308
281.756
273.266
273.807
274.369
274.957
275.577
276.234
276.934
277.683
278.488
279.359
280.304
281.337
282.473
283.734
285.142
286.698
273.261
273.792
274.343
274.918
275.523
276.161
276.838
277.558
278.327
279.149
280.032
280.979
281.997
283.086
284.236
285.391
273.256
273.778
274.318
274.882
275.472
276.093
276.748
277.441
278.174
278.951
279.772
280.638
281.546
282.484
283.425
284.312
273.252
273.766
274.297
274.85
275.428
276.033
276.668
277.336
278.037
278.772
279.539
280.334
281.147
281.963
282.751
283.462
273.249
273.756
274.28
274.824
275.391
275.983
276.602
277.249
277.923
278.623
279.344
280.08
280.819
281.542
282.221
282.818
273.247
273.748
274.267
274.805
275.365
275.947
276.554
277.184
277.837
278.509
279.195
279.887
280.571
281.229
281.835
282.359
273.246
273.745
274.26
274.795
275.35
275.926
276.524
277.143
277.782
278.435
279.098
279.76
280.408
281.024
281.586
282.066
273.245
273.744
274.259
274.792
275.345
275.918
276.512
277.126
277.757
278.402
279.053
279.7
280.33
280.926
281.466
281.926
273.269
273.816
274.385
274.98
275.609
276.275
276.986
277.749
278.571
279.46
280.427
281.483
282.643
283.924
285.343
286.891
273.264
273.8
274.358
274.94
275.553
276.2
276.888
277.621
278.404
279.244
280.146
281.115
282.155
283.266
284.431
285.592
273.259
273.786
274.333
274.903
275.501
276.13
276.795
277.5
278.247
279.039
279.878
280.764
281.692
282.65
283.608
284.506
273.255
273.774
274.311
274.87
275.455
276.068
276.713
277.392
278.105
278.854
279.637
280.449
281.281
282.115
282.919
283.643
273.252
273.763
274.293
274.843
275.417
276.017
276.645
277.302
277.987
278.7
279.436
280.187
280.942
281.681
282.376
282.985
273.249
273.756
274.28
274.824
275.39
275.98
276.595
277.234
277.898
278.582
279.282
279.987
280.686
281.358
281.977
282.513
273.248
273.752
274.273
274.813
275.374
275.958
276.564
277.192
277.841
278.506
279.181
279.856
280.517
281.146
281.72
282.211
273.247
273.751
274.271
274.81
275.369
275.95
276.551
277.174
277.815
278.471
279.134
279.794
280.437
281.045
281.596
282.065
273.271
273.823
274.397
274.998
275.633
276.307
277.027
277.8
278.634
279.537
280.519
281.591
282.766
284.058
285.479
287.015
273.266
273.807
274.369
274.957
275.576
276.231
276.927
277.669
278.464
279.316
280.232
281.216
282.271
283.394
284.566
285.727
273.261
273.793
274.344
274.919
275.523
276.159
276.832
277.545
278.303
279.107
279.959
280.858
281.8
282.771
283.739
284.642
273.257
273.78
274.321
274.886
275.476
276.096
276.748
277.435
278.158
278.918
279.712
280.537
281.382
282.228
283.042
283.773
273.254
273.769
274.303
274.858
275.438
276.044
276.678
277.343
278.037
278.76
279.506
280.269
281.036
281.786
282.49
283.107
273.251
273.762
274.29
274.839
275.41
276.005
276.627
277.274
277.946
278.639
279.348
280.065
280.774
281.456
282.085
282.628
273.25
273.758
274.283
274.828
275.394
275.983
276.595
277.23
277.887
278.561
279.245
279.93
280.601
281.24
281.822
282.32
273.249
273.757
274.281
274.825
275.389
275.974
276.582
277.212
277.861
278.524
279.196
279.866
280.518
281.136
281.695
282.172
273.273
273.828
274.405
275.011
275.65
276.329
277.055
277.835
278.677
279.589
280.58
281.662
282.845
284.143
285.563
287.089
273.267
273.812
274.377
274.969
275.592
276.252
276.953
277.702
278.504
279.365
280.29
281.283
282.347
283.476
284.651
285.81
273.263
273.797
274.352
274.93
275.538
276.179
276.857
277.577
278.341
279.152
280.013
280.921
281.871
282.849
283.822
284.728
273.258
273.784
274.329
274.896
275.491
276.115
276.772
277.464
278.194
278.961
279.763
280.596
281.449
282.302
283.122
283.858
273.255
273.773
274.31
274.869
275.452
276.062
276.701
277.371
278.071
278.8
279.554
280.324
281.098
281.856
282.566
283.188
273.253
273.766
274.297
274.849
275.423
276.023
276.649
277.301
277.978
278.678
279.394
280.117
280.833
281.522
282.157
282.705
273.251
273.761
274.29
274.837
275.407
276
276.616
277.257
277.918
278.598
279.289
279.98
280.658
281.303
281.891
282.393
273.251
273.761
274.288
274.834
275.402
275.991
276.603
277.237
277.892
278.561
279.239
279.915
280.574
281.197
281.762
282.243
273.273
273.83
274.409
275.017
275.658
276.34
277.069
277.853
278.698
279.614
280.611
281.697
282.884
284.184
285.603
287.124
273.268
273.814
274.381
274.975
275.6
276.262
276.966
277.719
278.525
279.39
280.319
281.317
282.384
283.516
284.692
285.85
273.263
273.799
274.355
274.936
275.546
276.189
276.87
277.592
278.36
279.175
280.04
280.952
281.907
282.888
283.863
284.769
273.259
273.786
274.332
274.902
275.498
276.124
276.784
277.479
278.212
278.983
279.789
280.625
281.482
282.339
283.162
283.899
273.256
273.775
274.314
274.874
275.459
276.071
276.713
277.385
278.088
278.821
279.578
280.352
281.13
281.891
282.604
283.228
273.253
273.768
274.3
274.854
275.43
276.032
276.66
277.315
277.995
278.697
279.417
280.143
280.863
281.555
282.193
282.743
273.252
273.763
274.293
274.843
275.414
276.009
276.627
277.27
277.934
278.617
279.311
280.006
280.687
281.335
281.925
282.43
273.251
273.763
274.291
274.839
275.408
276
276.614
277.251
277.907
278.58
279.261
279.94
280.602
281.228
281.796
282.28
273.233
273.707
274.196
274.7
275.221
275.757
276.309
276.876
277.453
278.037
278.622
279.197
279.751
280.271
280.739
281.136
273.23
273.697
274.178
274.674
275.185
275.711
276.252
276.805
277.367
277.934
278.499
279.054
279.586
280.084
280.531
280.91
273.227
273.687
274.161
274.65
275.152
275.669
276.198
276.739
277.286
277.837
278.384
278.919
279.43
279.907
280.333
280.695
273.224
273.679
274.147
274.629
275.124
275.632
276.151
276.68
277.215
277.751
278.281
278.798
279.29
279.747
280.156
280.502
273.222
273.672
274.135
274.611
275.1
275.601
276.113
276.632
277.155
277.679
278.195
278.696
279.172
279.613
280.005
280.338
273.22
273.667
274.127
274.599
275.083
275.579
276.084
276.596
277.111
277.624
278.129
278.618
279.081
279.509
279.889
280.211
273.219
273.664
274.122
274.592
275.073
275.565
276.066
276.573
277.082
277.588
278.085
278.566
279.02
279.439
279.81
280.124
273.219
273.664
274.121
274.59
275.07
275.56
276.058
276.562
277.068
277.571
278.065
278.541
278.991
279.404
279.771
280.082
273.234
273.708
274.197
274.702
275.224
275.762
276.318
276.888
277.471
278.062
278.655
279.241
279.808
280.342
280.824
281.236
273.23
273.697
274.179
274.675
275.188
275.716
276.259
276.816
277.383
277.956
278.529
279.093
279.636
280.146
280.605
280.997
273.227
273.687
274.162
274.651
275.155
275.673
276.205
276.749
277.301
277.857
278.411
278.953
279.474
279.961
280.398
280.77
273.224
273.679
274.147
274.629
275.126
275.636
276.157
276.689
277.228
277.769
278.305
278.828
279.329
279.794
280.211
280.565
273.222
273.672
274.135
274.612
275.102
275.605
276.118
276.641
277.168
277.695
278.216
278.723
279.206
279.654
280.053
280.392
273.22
273.667
274.127
274.6
275.085
275.583
276.09
276.604
277.122
277.64
278.149
278.643
279.112
279.545
279.931
280.259
273.219
273.664
274.123
274.593
275.076
275.57
276.072
276.582
277.094
277.604
278.105
278.59
279.05
279.473
279.85
280.168
273.219
273.664
274.122
274.592
275.073
275.565
276.066
276.572
277.081
277.588
278.085
278.565
279.02
279.438
279.81
280.124
273.235
273.711
274.202
274.71
275.235
275.779
276.341
276.92
277.513
278.118
278.728
279.335
279.927
280.489
281.003
281.444
273.231
273.7
274.183
274.683
275.199
275.731
276.281
276.845
277.422
278.007
278.595
279.177
279.742
280.276
280.761
281.176
273.228
273.69
274.166
274.658
275.165
275.687
276.225
276.775
277.336
277.903
278.47
279.028
279.567
280.073
280.531
280.923
273.225
273.681
274.151
274.636
275.135
275.649
276.176
276.714
277.26
277.811
278.358
278.895
279.41
279.892
280.325
280.695
273.223
273.674
274.139
274.618
275.111
275.617
276.136
276.663
277.198
277.734
278.265
278.783
279.279
279.739
280.152
280.504
273.221
273.669
274.131
274.606
275.094
275.595
276.106
276.626
277.151
277.676
278.194
278.698
279.178
279.622
280.019
280.356
273.22
273.667
274.127
274.6
275.085
275.582
276.089
276.604
277.122
277.639
278.148
278.642
279.111
279.545
279.931
280.258
273.22
273.667
274.126
274.599
275.083
275.578
276.083
276.595
277.11
277.623
278.128
278.617
279.08
279.507
279.888
280.21
273.236
273.717
274.212
274.725
275.256
275.808
276.379
276.971
277.58
278.205
278.84
279.478
280.109
280.716
281.278
281.768
273.233
273.705
274.193
274.697
275.218
275.758
276.317
276.892
277.483
278.087
278.697
279.306
279.903
280.474
280.999
281.453
273.23
273.695
274.175
274.671
275.183
275.712
276.258
276.819
277.393
277.975
278.561
279.143
279.708
280.245
280.734
281.156
273.227
273.686
274.16
274.649
275.153
275.672
276.207
276.754
277.312
277.876
278.44
278.997
279.534
280.04
280.499
280.891
273.224
273.679
274.148
274.63
275.128
275.64
276.165
276.701
277.246
277.794
278.34
278.875
279.389
279.869
280.302
280.671
273.223
273.674
274.139
274.618
275.111
275.617
276.135
276.663
277.197
277.732
278.264
278.782
279.277
279.738
280.151
280.503
273.222
273.672
274.135
274.612
275.101
275.604
276.117
276.639
277.166
277.693
278.214
278.721
279.204
279.652
280.051
280.39
273.222
273.672
274.135
274.611
275.099
275.6
276.111
276.63
277.153
277.676
278.192
278.693
279.17
279.61
280.003
280.336
273.239
273.725
274.226
274.746
275.286
275.848
276.432
277.039
277.67
278.32
278.988
279.668
280.349
281.018
281.652
282.215
273.235
273.713
274.207
274.717
275.246
275.796
276.366
276.956
277.566
278.192
278.831
279.475
280.116
280.737
281.319
281.829
273.232
273.703
274.188
274.69
275.21
275.748
276.304
276.878
277.469
278.071
278.682
279.293
279.895
280.472
281.005
281.468
273.229
273.694
274.172
274.667
275.178
275.706
276.25
276.81
277.382
277.964
278.549
279.131
279.697
280.235
280.727
281.151
273.227
273.686
274.16
274.648
275.152
275.671
276.206
276.753
277.311
277.875
278.439
278.995
279.533
280.039
280.497
280.89
273.225
273.681
274.151
274.635
275.134
275.647
276.174
276.712
277.258
277.808
278.355
278.892
279.407
279.889
280.322
280.692
273.224
273.678
274.146
274.628
275.124
275.634
276.155
276.687
277.225
277.765
278.301
278.824
279.325
279.79