/*--------------------------------*- C++ -*----------------------------------*\
| =========                 |                                                 |
| \\      /  F ield         | OpenFOAM: The Open Source CFD Toolbox           |
|  \\    /   O peration     | Version:  v1912                                 |
|   \\  /    A nd           | Website:  www.openfoam.com                      |
|    \\/     M anipulation  |                                                 |
\*---------------------------------------------------------------------------*/
FoamFile
{
    version     2.0;
    format      ascii;
    class       volScalarField;
    location    "0.82/fluid";
    object      p;
}
// * * * * * * * * * * * * * * * * * * * * * * * * * * * * * * * * * * * * * //

dimensions      [0 2 -2 0 0 0 0];


internalField   nonuniform List<scalar> 
14592
(
0.0506673
0.0450444
0.0431387
0.0415381
0.0406316
0.0399477
0.0394357
0.0390089
0.0386151
0.0383026
0.0379401
0.0377792
0.0373302
0.0375732
0.0368011
0.038609
0.0465083
0.0447585
0.0430769
0.0417091
0.0407908
0.0400819
0.0395385
0.0390935
0.0386923
0.0383844
0.0380339
0.0379061
0.0374918
0.0378705
0.0370487
0.039804
0.0445162
0.043905
0.0426698
0.0416645
0.0408225
0.0401397
0.0395841
0.0391287
0.0387229
0.0384235
0.0380967
0.0380248
0.0376749
0.038246
0.0374957
0.041069
0.0433376
0.0431957
0.0423366
0.0415817
0.0408325
0.040181
0.039613
0.0391371
0.0387129
0.0384071
0.0380889
0.03806
0.0377718
0.0385141
0.0378815
0.0419442
0.0426371
0.0426195
0.0419942
0.0414034
0.0407401
0.0401257
0.0395553
0.03906
0.0386072
0.0382715
0.0379225
0.0378767
0.0375677
0.0383713
0.0377608
0.0421718
0.0421836
0.0422025
0.0417239
0.0412309
0.0406277
0.0400378
0.0394626
0.0389464
0.0384636
0.0380972
0.0377221
0.0376756
0.0373895
0.0383431
0.0379065
0.0428739
0.0418869
0.041911
0.0415083
0.0410654
0.0404934
0.0399102
0.0393181
0.0387649
0.0382259
0.0377794
0.0372931
0.0370895
0.0365662
0.0372297
0.0362455
0.0413039
0.0417088
0.0417336
0.0413624
0.0409376
0.0403729
0.0397815
0.0391666
0.0385769
0.0379903
0.0374838
0.0369351
0.0366723
0.0361293
0.0369637
0.0362478
0.043728
0.0505855
0.0449647
0.0430964
0.0415372
0.0406842
0.0400597
0.0396145
0.0392623
0.0389548
0.0387382
0.0384909
0.0384275
0.0381181
0.038274
0.0376294
0.0382267
0.0464266
0.044677
0.0430337
0.0417079
0.0408436
0.0401948
0.0397187
0.039349
0.0390348
0.0388234
0.0385873
0.0385521
0.0382625
0.0385018
0.03778
0.0387727
0.0444304
0.0438177
0.0426195
0.0416559
0.0408682
0.0402463
0.0397588
0.0393795
0.0390611
0.0388586
0.0386446
0.0386627
0.0384276
0.0388184
0.0381159
0.0395637
0.0432492
0.0431053
0.0422818
0.0415675
0.0408718
0.0402804
0.03978
0.0393797
0.0390419
0.038833
0.038626
0.0386868
0.0385051
0.0390475
0.038425
0.0401688
0.0425456
0.0425257
0.0419348
0.0413833
0.0407718
0.0402157
0.0397108
0.0392887
0.0389186
0.0386759
0.0384307
0.0384688
0.0382474
0.0388352
0.0381768
0.0401677
0.0420893
0.0421058
0.0416607
0.0412058
0.0406526
0.0401187
0.0396063
0.0391601
0.0387562
0.0384795
0.0382026
0.0382404
0.0380319
0.0387814
0.0382587
0.0407613
0.0417891
0.0418109
0.0414408
0.0410346
0.0405107
0.0399804
0.0394471
0.0389587
0.0384904
0.0381235
0.0377174
0.0375805
0.0370875
0.0375288
0.0363104
0.0388996
0.0416071
0.0416297
0.0412904
0.0409012
0.0403828
0.0398417
0.0392819
0.0387522
0.0382301
0.037797
0.0373199
0.0371257
0.0366047
0.0372772
0.0362849
0.0413644
0.0505382
0.044919
0.0430793
0.0415538
0.0407467
0.0401755
0.0397944
0.0395186
0.039308
0.0392117
0.0391361
0.0392794
0.0393285
0.0398228
0.0399731
0.0406923
0.0463794
0.0446301
0.0430162
0.0417246
0.0409069
0.0403121
0.0399008
0.0396085
0.0393927
0.0393036
0.0392418
0.0394156
0.0394889
0.040059
0.0401856
0.0411964
0.0443791
0.0437654
0.0425954
0.0416655
0.0409245
0.0403575
0.0399356
0.0396345
0.0394149
0.0393359
0.0392968
0.0395274
0.0396615
0.0403927
0.0405827
0.0419963
0.043195
0.0430496
0.0422531
0.0415715
0.0409216
0.0403845
0.039949
0.0396266
0.0393872
0.0393022
0.0392703
0.0395479
0.0397397
0.0406351
0.0409304
0.042623
0.0424879
0.0424664
0.0419011
0.041381
0.0408137
0.0403104
0.0398684
0.0395218
0.0392466
0.0391244
0.0390481
0.0393
0.0394407
0.0403836
0.0406224
0.042553
0.0420283
0.0420432
0.0416228
0.041198
0.0406872
0.040204
0.0397518
0.0393781
0.0390646
0.0389042
0.0387886
0.0390377
0.0391763
0.0402878
0.040624
0.0430694
0.0417244
0.0417445
0.0413983
0.041021
0.0405375
0.040055
0.0395779
0.0391564
0.0387699
0.0385078
0.0382418
0.0382914
0.0380842
0.0388403
0.0382951
0.0407911
0.0415385
0.0415595
0.0412435
0.040882
0.040402
0.0399058
0.0393984
0.0389304
0.038482
0.0381438
0.0377894
0.0377653
0.0374852
0.0384602
0.0380002
0.0430043
0.050513
0.0448949
0.0430766
0.041577
0.0408054
0.0402753
0.0399425
0.0397207
0.0395731
0.0395417
0.039545
0.0397414
0.0398766
0.0403296
0.0405468
0.0410351
0.0463542
0.0446052
0.0430132
0.0417479
0.0409663
0.0404131
0.0400505
0.0398128
0.0396605
0.0396367
0.0396536
0.0398778
0.0400328
0.0405365
0.0407229
0.0414059
0.0443502
0.0437356
0.0425866
0.0416826
0.040978
0.0404531
0.0400804
0.0398343
0.039678
0.0396637
0.0397006
0.0399767
0.0401813
0.0408222
0.0410438
0.0420412
0.0431633
0.0430167
0.04224
0.0415833
0.0409691
0.0404736
0.0400867
0.0398189
0.0396418
0.0396208
0.0396623
0.0399827
0.040236
0.0410264
0.0413287
0.042564
0.0424527
0.0424298
0.0418833
0.0413869
0.040854
0.040391
0.039996
0.039702
0.0394864
0.0394253
0.0394164
0.0397062
0.039894
0.0407203
0.0409298
0.0423801
0.0419899
0.0420034
0.0416011
0.0411989
0.0407209
0.0402763
0.039869
0.0395456
0.0392885
0.0391866
0.0391331
0.0394185
0.0395927
0.0405875
0.0408622
0.0428177
0.0416824
0.0417013
0.0413723
0.0410166
0.0405641
0.0401181
0.039683
0.0393081
0.0389725
0.0387628
0.0385482
0.0386259
0.0384292
0.0390615
0.0383881
0.040385
0.0414929
0.0415126
0.0412134
0.0408726
0.040422
0.0399603
0.039492
0.0390672
0.0386651
0.0383748
0.0380646
0.0380676
0.0377859
0.0386519
0.038025
0.0425219
0.0505025
0.0448855
0.0430835
0.0416045
0.0408616
0.0403659
0.0400748
0.0399017
0.0398141
0.0398498
0.0399419
0.0402224
0.0404906
0.0410127
0.0414071
0.041838
0.0463437
0.044595
0.0430199
0.0417757
0.0410234
0.040505
0.0401847
0.0399964
0.0399051
0.0399497
0.0400573
0.0403666
0.0406566
0.0412232
0.04159
0.0421772
0.0443366
0.0437216
0.0425885
0.0417052
0.0410301
0.0405405
0.0402106
0.0400143
0.0399189
0.039973
0.0400989
0.0404577
0.0407916
0.0414836
0.0418772
0.0427384
0.0431471
0.0429999
0.0422382
0.0416015
0.041016
0.0405555
0.0402109
0.0399925
0.0398757
0.0399227
0.0400514
0.0404536
0.0408314
0.0416673
0.0421305
0.0432144
0.0424334
0.0424097
0.0418774
0.0413999
0.0408947
0.0404654
0.0401114
0.0398653
0.0397075
0.0397119
0.0397855
0.0401535
0.0404555
0.0413205
0.0416679
0.0429567
0.0419677
0.0419804
0.0415916
0.0412074
0.0407558
0.0403434
0.0399752
0.0396976
0.0394953
0.0394559
0.0394797
0.03984
0.0401172
0.0411473
0.0415324
0.0433209
0.0416571
0.0416751
0.0413591
0.0410202
0.0405928
0.0401771
0.0397784
0.039446
0.0391603
0.0390073
0.0388596
0.039003
0.0388852
0.0395391
0.0389165
0.0407278
0.0414644
0.0414833
0.0411965
0.0408718
0.0404448
0.0400116
0.0395771
0.0391914
0.0388342
0.0385952
0.0383426
0.0384036
0.0381808
0.0390609
0.0384326
0.0427251
0.0504995
0.0448832
0.0430926
0.0416282
0.0409055
0.0404336
0.0401707
0.0400285
0.0399766
0.0400466
0.0401787
0.0404819
0.040785
0.0412868
0.0416977
0.0420763
0.0463408
0.0445923
0.043029
0.0417997
0.041068
0.0405736
0.0402818
0.0401248
0.0400694
0.0401488
0.0402966
0.0406278
0.0409516
0.0414918
0.0418707
0.0423808
0.0443312
0.0437157
0.0425939
0.0417252
0.0410708
0.0406057
0.0403045
0.0401397
0.04008
0.0401681
0.0403321
0.0407093
0.0410698
0.0417226
0.0421146
0.0428729
0.0431397
0.0429918
0.0422407
0.041618
0.0410528
0.0406164
0.0403001
0.040113
0.0400312
0.0401115
0.0402763
0.0406947
0.041093
0.0418821
0.0423302
0.0433009
0.0424235
0.0423991
0.0418766
0.0414124
0.0409266
0.0405206
0.0401939
0.039978
0.0398536
0.0398896
0.0399959
0.040377
0.0406913
0.0415031
0.0418171
0.0429869
0.0419554
0.0419674
0.041588
0.0412163
0.0407832
0.040393
0.0400509
0.0398021
0.0396312
0.0396218
0.0396749
0.0400467
0.040329
0.041303
0.0416368
0.0433036
0.0416423
0.0416596
0.0413525
0.0410255
0.0406154
0.0402207
0.0398463
0.0395407
0.0392835
0.0391577
0.0390344
0.0391859
0.0390629
0.0396567
0.0389554
0.0406347
0.0414471
0.0414654
0.0411871
0.0408736
0.040463
0.0400495
0.0396377
0.0392768
0.0389455
0.0387311
0.038499
0.0385667
0.0383315
0.0391524
0.0384258
0.0425759
0.0505002
0.0448843
0.0431014
0.0416468
0.040938
0.0404826
0.0402397
0.0401204
0.0400956
0.0401939
0.0403607
0.0406912
0.0410336
0.0415446
0.0419879
0.0423437
0.0463415
0.0445931
0.0430378
0.0418186
0.041101
0.0406234
0.0403519
0.0402181
0.0401905
0.0402987
0.0404821
0.0408414
0.0412054
0.0417532
0.0421648
0.0426386
0.0443302
0.0437146
0.0426002
0.0417415
0.0411012
0.0406531
0.0403725
0.0402312
0.0401991
0.0403158
0.0405143
0.0409177
0.0413144
0.0419681
0.0423855
0.0430942
0.0431373
0.0429891
0.042245
0.0416318
0.0410805
0.0406609
0.040365
0.040201
0.0401464
0.040255
0.0404532
0.0408965
0.0413277
0.0421137
0.0425797
0.0434955
0.0424193
0.0423945
0.0418786
0.0414234
0.0409509
0.0405611
0.0402541
0.0400607
0.0399622
0.0400254
0.0401626
0.0405668
0.0409087
0.0417134
0.0420342
0.0431461
0.0419496
0.0419612
0.041588
0.0412248
0.0408043
0.0404296
0.0401062
0.0398788
0.0397325
0.0397489
0.0398304
0.0402235
0.0405279
0.0414921
0.0418203
0.0434276
0.0416347
0.0416516
0.0413504
0.0410314
0.0406332
0.040253
0.0398961
0.0396104
0.0393757
0.0392733
0.0391746
0.0393443
0.0392356
0.0398149
0.0390887
0.0407001
0.0414378
0.0414557
0.041183
0.0408771
0.0404776
0.0400778
0.0396821
0.0393396
0.0390286
0.0388353
0.038624
0.0387072
0.0384792
0.0392825
0.0385141
0.0425892
0.0505008
0.0448858
0.0431059
0.0416564
0.0409538
0.0405061
0.0402721
0.0401622
0.040148
0.0402557
0.0404329
0.0407676
0.0411169
0.0416205
0.0420662
0.0424129
0.0463426
0.0445941
0.0430425
0.0418282
0.0411171
0.0406472
0.0403846
0.0402602
0.040243
0.0403605
0.0405538
0.0409166
0.0412864
0.041825
0.0422387
0.0426986
0.0443303
0.0437145
0.0426038
0.0417497
0.041116
0.0406757
0.040404
0.040272
0.04025
0.0403754
0.0405825
0.0409876
0.0413872
0.0420274
0.0424433
0.0431329
0.0431367
0.0429882
0.0422476
0.0416387
0.0410939
0.0406819
0.0403948
0.0402401
0.0401953
0.0403122
0.0405183
0.0409622
0.041394
0.042164
0.0426243
0.0435188
0.0424178
0.0423927
0.0418801
0.041429
0.0409626
0.0405802
0.0402816
0.0400972
0.0400081
0.0400791
0.0402233
0.0406273
0.0409677
0.0417545
0.0420646
0.0431537
0.0419473
0.0419586
0.0415884
0.0412291
0.0408144
0.0404468
0.0401314
0.0399126
0.0397752
0.0397989
0.0398866
0.0402789
0.0405798
0.0415245
0.041836
0.0434188
0.0416314
0.0416481
0.0413497
0.0410344
0.0406418
0.0402682
0.0399189
0.0396412
0.0394146
0.0393191
0.0392256
0.0393943
0.0392802
0.0398394
0.0390901
0.0406737
0.0414337
0.0414513
0.0411814
0.0408789
0.0404847
0.040091
0.0397025
0.0393674
0.0390639
0.0388768
0.0386698
0.0387514
0.0385159
0.0392975
0.0384983
0.0425383
0.0599494
0.0491953
0.0455353
0.0425354
0.0408112
0.0394818
0.0384591
0.0375408
0.0366553
0.0357495
0.0347441
0.0336548
0.0323458
0.0309327
0.0291633
0.0273615
0.0556873
0.0484513
0.0451707
0.0424533
0.0407816
0.039478
0.0384638
0.0375514
0.0366726
0.0357767
0.0347816
0.0337057
0.032411
0.0310163
0.0292615
0.0274703
0.0536753
0.0474023
0.0445249
0.0421425
0.0405995
0.0393795
0.0384034
0.0375133
0.0366492
0.0357677
0.0347883
0.0337307
0.0324625
0.0310987
0.0293809
0.0276198
0.0524277
0.0465958
0.0440547
0.0419044
0.040477
0.0393236
0.0383732
0.0374928
0.0366313
0.0357506
0.0347747
0.0337238
0.0324701
0.0311244
0.0294325
0.0276957
0.0516824
0.0459807
0.0436458
0.0416497
0.0403212
0.0392299
0.0383086
0.0374407
0.0365818
0.0356993
0.0347225
0.0336724
0.0324271
0.031093
0.0294252
0.027713
0.0512005
0.0455481
0.0433482
0.0414492
0.040191
0.0391429
0.038242
0.0373804
0.0365195
0.0356309
0.0346498
0.0335966
0.0323575
0.0310327
0.0293914
0.0277069
0.0508961
0.0452579
0.0431302
0.0412849
0.0400693
0.0390471
0.0381581
0.0372975
0.0364304
0.0355318
0.0345415
0.0334786
0.0322395
0.0309162
0.0293015
0.027646
0.0507262
0.0450926
0.0429969
0.0411741
0.0399761
0.0389623
0.038075
0.0372093
0.0363329
0.0354234
0.0344251
0.0333545
0.03212
0.0308034
0.0292242
0.0276043
0.0556887
0.0484508
0.0451678
0.0424465
0.0407698
0.0394593
0.0384376
0.0375191
0.0366288
0.0357155
0.0346989
0.0336011
0.0322754
0.0308572
0.0290613
0.0272756
0.0515023
0.0480705
0.044989
0.0424929
0.0408265
0.0395113
0.0384732
0.0375444
0.0366488
0.0357338
0.0347183
0.0336247
0.0323062
0.0309027
0.0291238
0.027351
0.0494889
0.0471165
0.0444217
0.0422547
0.0406928
0.0394422
0.0384279
0.0375127
0.0366249
0.0357173
0.034712
0.0336315
0.0323346
0.0309546
0.029206
0.0274623
0.0482565
0.0463316
0.0439849
0.0420517
0.0405993
0.0394081
0.0384129
0.0375018
0.0366112
0.035701
0.0346969
0.0336213
0.0323375
0.0309744
0.0292507
0.0275296
0.0475172
0.0457129
0.0435826
0.0418061
0.0404517
0.0393212
0.0383539
0.0374536
0.0365639
0.0356514
0.0346466
0.0335719
0.032297
0.0309454
0.0292456
0.0275485
0.0470387
0.0452744
0.0432855
0.0416078
0.0403244
0.0392371
0.0382905
0.0373964
0.0365048
0.0355874
0.0345798
0.0335038
0.0322374
0.0308973
0.0292265
0.0275573
0.0467357
0.04498
0.0430665
0.0414436
0.0402033
0.0391425
0.0382082
0.0373156
0.0364189
0.0354927
0.0344776
0.0333935
0.0321294
0.0307923
0.0291511
0.0275102
0.0465665
0.0448132
0.0429332
0.0413335
0.0401114
0.0390596
0.0381272
0.0372303
0.0363261
0.0353908
0.03437
0.0332811
0.0320255
0.0306985
0.0290977
0.0274924
0.0537006
0.0474268
0.0445563
0.0421809
0.0406466
0.0394352
0.0384713
0.0375977
0.0367365
0.0358489
0.0348457
0.0337633
0.032411
0.0309764
0.0290314
0.027161
0.0495142
0.0471432
0.0444593
0.0423047
0.0407585
0.0395253
0.0385339
0.0376441
0.0367735
0.0358815
0.0348782
0.0337999
0.0324552
0.0310358
0.0291086
0.0272539
0.0474978
0.0462577
0.0439839
0.0421691
0.0407035
0.0395098
0.0385226
0.0376359
0.0367672
0.0358776
0.0348824
0.0338156
0.032492
0.0310933
0.0291872
0.0273476
0.0462811
0.0455069
0.043599
0.0420268
0.040662
0.0395152
0.0385346
0.037643
0.0367654
0.0358687
0.0348725
0.0338096
0.0324992
0.0311172
0.0292338
0.0274152
0.0455524
0.0449019
0.0432229
0.0418134
0.0405436
0.0394508
0.0384904
0.0376031
0.0367215
0.0358184
0.0348186
0.0337541
0.032451
0.0310786
0.0292186
0.0274238
0.0450811
0.0444683
0.0429367
0.0416292
0.0404296
0.0393773
0.038433
0.0375476
0.0366609
0.0357502
0.0347461
0.0336795
0.0323865
0.031028
0.0292051
0.0274455
0.0447813
0.0441749
0.0427215
0.0414703
0.0403135
0.0392857
0.0383501
0.0374625
0.0365679
0.0356447
0.0346294
0.0335504
0.0322576
0.0308994
0.0291161
0.0273924
0.0446127
0.0440077
0.0425889
0.0413613
0.0402224
0.0392023
0.0382657
0.0373711
0.0364673
0.0355326
0.03451
0.0334245
0.0321432
0.0307987
0.029074
0.0274002
0.0524796
0.0466477
0.0441278
0.042002
0.0406064
0.0394874
0.0385776
0.0377435
0.0369118
0.0360559
0.0350711
0.0340143
0.0326259
0.0311735
0.0289952
0.0269972
0.0483088
0.0463858
0.0440655
0.0421639
0.0407516
0.0396049
0.0386621
0.0378065
0.036961
0.0360989
0.0351137
0.0340619
0.0326829
0.0312495
0.0290871
0.0271068
0.0463076
0.0455334
0.0436415
0.0420894
0.0407507
0.0396322
0.038683
0.0378213
0.0369711
0.0361081
0.0351298
0.0340894
0.0327307
0.0313142
0.0291554
0.0271621
0.045108
0.0448056
0.0432875
0.0419838
0.0407424
0.039664
0.0387133
0.0378401
0.0369764
0.0361036
0.0351234
0.0340868
0.0327418
0.0313417
0.0291983
0.027218
0.0443916
0.0442144
0.0429297
0.0417919
0.0406434
0.0396142
0.0386776
0.0378034
0.0369315
0.0360487
0.035062
0.0340209
0.0326808
0.0312871
0.0291646
0.0272064
0.0439284
0.0437882
0.0426524
0.0416175
0.0405378
0.039546
0.0386212
0.0377454
0.0368656
0.0359725
0.0349799
0.033936
0.0326086
0.0312333
0.0291607
0.0272504
0.0436323
0.0434979
0.0424407
0.0414619
0.0404238
0.039454
0.0385343
0.0376528
0.0367609
0.0358502
0.0348412
0.0337778
0.0324467
0.0310663
0.0290492
0.0271882
0.0434644
0.0433308
0.0423082
0.0413526
0.0403313
0.0393674
0.0384441
0.0375529
0.036649
0.0357232
0.0347046
0.0336326
0.0323179
0.030958
0.0290319
0.0272497
0.0517638
0.0460639
0.0437707
0.0418257
0.0405649
0.0395506
0.0387172
0.0379494
0.0371778
0.0363898
0.0354629
0.0344832
0.0330971
0.0316823
0.0292073
0.0270536
0.0475994
0.0457976
0.0437152
0.0419979
0.0407211
0.0396791
0.0388117
0.0380211
0.0372361
0.0364434
0.035518
0.0345474
0.0331753
0.0317886
0.0293272
0.0271854
0.0456075
0.0449568
0.0433152
0.0419546
0.0407502
0.0397324
0.0388534
0.0380517
0.0372592
0.0364651
0.0355481
0.0345913
0.0332403
0.0318676
0.0293805
0.0271798
0.04442
0.0442425
0.042979
0.0418701
0.0407615
0.0397797
0.0388945
0.0380771
0.0372682
0.0364631
0.0355446
0.0345937
0.0332587
0.0319051
0.0294232
0.0272238
0.0437133
0.0436616
0.0426342
0.0416929
0.0406759
0.0397394
0.0388635
0.0380401
0.0372185
0.0363992
0.0354704
0.0345114
0.033178
0.0318282
0.0293637
0.0271861
0.0432568
0.0432419
0.042364
0.0415257
0.0405759
0.0396735
0.0388058
0.0379767
0.0371428
0.0363093
0.0353719
0.0344087
0.033091
0.0317677
0.0293727
0.0272673
0.0429637
0.0429543
0.0421552
0.0413723
0.0404623
0.0395788
0.0387123
0.0378723
0.0370196
0.03616
0.0351963
0.0342003
0.0328682
0.0315267
0.0292068
0.0271724
0.0427956
0.042787
0.0420219
0.0412616
0.0403668
0.0394864
0.0386131
0.0377592
0.036889
0.0360079
0.0350288
0.0340178
0.0327049
0.0313914
0.0292094
0.027311
0.051301
0.0456517
0.0435182
0.0417017
0.0405542
0.0396331
0.0388759
0.0381795
0.0374757
0.0367656
0.0359051
0.0350124
0.033618
0.0322311
0.0293132
0.0269312
0.0471399
0.0453781
0.0434622
0.0418756
0.0407133
0.0397656
0.0389744
0.0382555
0.0375394
0.0368263
0.0359698
0.0350913
0.0337156
0.0323673
0.0294409
0.0270152
0.045153
0.0445389
0.0430691
0.0418429
0.0407538
0.03983
0.0390252
0.0382935
0.0375695
0.0368561
0.0360102
0.0351493
0.0337941
0.0324525
0.0294353
0.0268406
0.0439728
0.0438309
0.0427401
0.0417664
0.0407724
0.0398827
0.0390691
0.038319
0.0375773
0.0368529
0.0360066
0.0351548
0.033817
0.0324967
0.0294566
0.0268223
0.0432722
0.0432558
0.0424014
0.0415953
0.0406915
0.0398446
0.0390369
0.0382768
0.0375184
0.0367758
0.0359149
0.0350507
0.0337088
0.0323878
0.0293539
0.0267334
0.0428197
0.04284
0.0421348
0.0414307
0.0405925
0.0397771
0.0389743
0.0382047
0.0374301
0.0366695
0.0357972
0.0349285
0.0336071
0.0323265
0.0293914
0.0268824
0.0425281
0.0425537
0.0419267
0.0412769
0.0404766
0.0396771
0.0388717
0.0380855
0.0372848
0.0364883
0.0355774
0.0346587
0.033307
0.0319891
0.0291583
0.0267577
0.0423588
0.0423852
0.0417917
0.0411635
0.0403766
0.0395776
0.0387624
0.0379575
0.0371336
0.0363089
0.0353771
0.0344389
0.0331153
0.031849
0.0292413
0.0271063
0.0509983
0.0453652
0.0433359
0.0416123
0.0405611
0.0397286
0.0390565
0.0384501
0.0378446
0.037259
0.0365399
0.0358536
0.0346381
0.033568
0.0304965
0.0282197
0.0468386
0.0450859
0.0432775
0.041785
0.0407205
0.0398621
0.0391564
0.0385293
0.0379134
0.0373279
0.0366162
0.0359513
0.0347609
0.0337473
0.0306399
0.0282526
0.0448522
0.0442434
0.0428828
0.0417524
0.0407624
0.0399285
0.0392091
0.0385694
0.0379464
0.0373631
0.0366661
0.0360275
0.0348639
0.0338728
0.0306314
0.0280007
0.043675
0.0435373
0.0425553
0.0416772
0.0407814
0.0399807
0.0392508
0.0385914
0.0379503
0.0373571
0.0366622
0.0360408
0.0349031
0.0339543
0.0306768
0.0279814
0.0429769
0.0429642
0.0422182
0.0415069
0.0406998
0.03994
0.039213
0.03854
0.0378781
0.0372625
0.0365482
0.0359113
0.0347645
0.03382
0.0305402
0.0278587
0.042526
0.0425498
0.0419523
0.0413418
0.0405983
0.0398678
0.0391425
0.0384557
0.037773
0.0371349
0.036405
0.035763
0.0346402
0.0337577
0.0306069
0.0280936
0.042234
0.0422631
0.0417431
0.0411856
0.0404777
0.03976
0.0390275
0.0383173
0.0375989
0.0369111
0.0361224
0.0354009
0.0342074
0.033236
0.03017
0.0277908
0.0420625
0.0420923
0.0416052
0.0410682
0.0403717
0.0396515
0.038905
0.0381701
0.0374206
0.036694
0.0358722
0.035117
0.0339443
0.0330382
0.0302624
0.0283677
0.0507974
0.0451711
0.0432141
0.0415596
0.0405866
0.0398309
0.0392375
0.0387149
0.0382008
0.0377244
0.0371224
0.0365838
0.035466
0.0345205
0.0310438
0.0283239
0.0466382
0.0448878
0.0431537
0.0417312
0.0407458
0.0399644
0.0393385
0.0387963
0.0382731
0.0377987
0.0372055
0.0366917
0.035594
0.0346892
0.0310089
0.027713
0.0446496
0.0440402
0.0427536
0.0416936
0.0407839
0.0400277
0.0393886
0.0388348
0.0383056
0.0378356
0.0372595
0.0367779
0.0357017
0.0348101
0.0308505
0.0268717
0.0434726
0.0433332
0.0424241
0.0416155
0.0407995
0.0400755
0.0394246
0.0388506
0.0383029
0.037824
0.0372514
0.0367928
0.035744
0.0349007
0.030846
0.0266144
0.0427743
0.0427595
0.0420853
0.0414424
0.0407136
0.0400287
0.0393779
0.0387874
0.0382149
0.0377096
0.0371116
0.0366333
0.0355648
0.0347246
0.0306453
0.02638
0.0423228
0.0423445
0.041818
0.0412744
0.0406075
0.0399496
0.0392972
0.0386895
0.0380921
0.0375607
0.0369432
0.036462
0.0354225
0.0346757
0.030775
0.0267283
0.042029
0.0420559
0.0416062
0.0411142
0.0404807
0.0398328
0.0391685
0.0385312
0.037889
0.0372949
0.0365989
0.0360103
0.0348558
0.0339687
0.0301317
0.0261947
0.0418545
0.0418822
0.0414645
0.040992
0.0403678
0.0397149
0.0390328
0.0383652
0.0376852
0.0370446
0.0363076
0.0356835
0.0345619
0.0338112
0.0304171
0.0272899
0.0416346
0.0416605
0.0412839
0.0408472
0.0402627
0.0396437
0.0389895
0.0383434
0.0376781
0.0370471
0.0363132
0.0356869
0.03455
0.0337752
0.0303129
0.0270871
0.0416662
0.0416928
0.0412745
0.0408014
0.0401764
0.0395163
0.0388216
0.0381274
0.0374067
0.0366998
0.0358868
0.0351321
0.0339422
0.0330093
0.0301624
0.0281935
0.041819
0.0418405
0.0413326
0.0407887
0.0401007
0.0393867
0.038642
0.037894
0.0371108
0.036314
0.0353954
0.0344588
0.033116
0.0318194
0.0291422
0.0269402
0.0421428
0.0421291
0.0414612
0.0407993
0.040022
0.0392496
0.0384662
0.0376816
0.0368623
0.0360165
0.0350555
0.0340489
0.0327194
0.0313775
0.0291353
0.0271781
0.0427226
0.0425838
0.0416666
0.040821
0.0399323
0.0390905
0.0382754
0.0374655
0.0366196
0.0357352
0.0347387
0.0336733
0.0323446
0.0309582
0.02898
0.0271448
0.0438095
0.0432006
0.0418943
0.0407861
0.0397915
0.038904
0.0380864
0.037283
0.0364429
0.035553
0.0345549
0.0334771
0.0321838
0.0308142
0.0290434
0.0273201
0.0457247
0.0439717
0.0422122
0.0407386
0.0396658
0.0387505
0.0379361
0.0371354
0.0363046
0.0354169
0.0344226
0.0333423
0.0320763
0.0307254
0.0290828
0.0274305
0.0498849
0.0442617
0.042291
0.0405967
0.039548
0.03867
0.0378969
0.0371267
0.0363248
0.0354605
0.034487
0.0334232
0.0321769
0.0308352
0.0292133
0.0275449
0.0415285
0.0415522
0.0412067
0.0408042
0.0402644
0.0396923
0.0390887
0.0384959
0.0378848
0.0373126
0.0366266
0.0360407
0.0348647
0.0339453
0.0299929
0.0259041
0.0415555
0.04158
0.0411924
0.0407526
0.0401702
0.0395547
0.0389066
0.0382606
0.0375874
0.0369311
0.0361579
0.0354407
0.0342228
0.0332146
0.0300326
0.0275364
0.0417031
0.0417227
0.0412451
0.040734
0.0400871
0.0394146
0.0387123
0.0380068
0.0372632
0.0365061
0.0356145
0.0346999
0.0333215
0.031962
0.0290247
0.0265255
0.0420221
0.0420065
0.0413686
0.0407386
0.0400017
0.0392691
0.0385247
0.0377784
0.0369934
0.0361808
0.0352416
0.0342527
0.0328984
0.0315191
0.0291113
0.0269931
0.0425977
0.0424572
0.0415696
0.0407553
0.0399052
0.0391019
0.0383231
0.0375471
0.0367308
0.0358734
0.0348935
0.0338399
0.0324913
0.0310771
0.0289879
0.0270549
0.0436814
0.0430712
0.0417947
0.0407172
0.0397603
0.038909
0.0381272
0.0373564
0.0365426
0.0356766
0.0346932
0.0336256
0.0323189
0.0309301
0.0290859
0.0272972
0.0455957
0.0438426
0.042113
0.0406698
0.0396335
0.038753
0.0379711
0.0372007
0.0363958
0.0355299
0.0345493
0.0334781
0.0322028
0.0308378
0.0291438
0.0274427
0.0497559
0.0441345
0.0421937
0.04053
0.039518
0.0386755
0.037935
0.0371958
0.0364218
0.035581
0.0346234
0.0335714
0.0323198
0.0309671
0.0292987
0.027581
0.0414556
0.0414777
0.0411546
0.0407788
0.0402755
0.0397451
0.039189
0.0386503
0.0381008
0.0376043
0.0370052
0.036533
0.0354622
0.034667
0.0305666
0.0262489
0.0414783
0.0415014
0.0411358
0.0407215
0.0401737
0.0395972
0.0389923
0.0383944
0.0377736
0.0371797
0.0364728
0.0358401
0.034683
0.0337475
0.0304069
0.0276948
0.0416216
0.0416397
0.0411838
0.0406976
0.0400836
0.0394466
0.0387835
0.0381194
0.0374186
0.0367095
0.0358632
0.0350016
0.0336434
0.0323046
0.0292049
0.026541
0.0419364
0.0419194
0.0413028
0.0406968
0.0399922
0.0392931
0.0385839
0.0378742
0.0371252
0.0363509
0.0354451
0.0344924
0.0331457
0.031772
0.0292489
0.027021
0.0425085
0.0423669
0.0415
0.0407092
0.0398895
0.0391184
0.0383718
0.0376278
0.0368416
0.0360145
0.0350587
0.0340287
0.0326798
0.0312621
0.0290907
0.0270819
0.0435898
0.0429787
0.0417229
0.0406684
0.0397411
0.0389197
0.0381692
0.0374284
0.0366408
0.0358005
0.0348365
0.0337863
0.0324781
0.0310836
0.0291821
0.0273383
0.0455034
0.0437502
0.0420417
0.0406211
0.0396132
0.0387611
0.0380076
0.0372649
0.0364849
0.0356419
0.0346779
0.0336205
0.0323437
0.0309726
0.029237
0.027493
0.0496636
0.0440434
0.0421238
0.040483
0.0394998
0.0386864
0.037974
0.0372632
0.0365158
0.0356989
0.0347596
0.0337232
0.0324724
0.0311149
0.0294083
0.0276465
0.0414062
0.0414272
0.04112
0.040764
0.0402886
0.0397903
0.03927
0.03877
0.0382602
0.0378036
0.0372359
0.0367802
0.0356772
0.0347788
0.0303886
0.0256801
0.0414253
0.0414473
0.0410973
0.040702
0.0401804
0.0396342
0.0390623
0.0384993
0.0379134
0.0373542
0.0366728
0.0360551
0.0348687
0.03386
0.0302995
0.0273152
0.0415648
0.0415819
0.0411414
0.0406739
0.0400847
0.0394752
0.0388424
0.0382093
0.0375382
0.0368576
0.03603
0.0351787
0.0337919
0.0323975
0.029128
0.026282
0.0418763
0.0418584
0.0412567
0.0406686
0.0399885
0.0393155
0.0386339
0.037952
0.037229
0.0364792
0.0355891
0.0346455
0.0332779
0.0318672
0.0292285
0.0268844
0.0424457
0.0423032
0.0414511
0.0406776
0.0398811
0.039135
0.0384139
0.0376947
0.0369311
0.0361248
0.0351821
0.0341597
0.0327958
0.0313528
0.0291028
0.027018
0.043525
0.0429132
0.0416722
0.0406348
0.0397299
0.0389322
0.0382063
0.0374888
0.036722
0.0359005
0.0349488
0.0339062
0.0325882
0.0311765
0.0292208
0.0273232
0.045438
0.0436849
0.0419913
0.0405875
0.0396013
0.0387709
0.0380406
0.0373208
0.0365603
0.0357349
0.0347825
0.0337329
0.0324499
0.0310667
0.0292922
0.0275071
0.0495983
0.0439791
0.0420746
0.0404509
0.0394897
0.038699
0.0380094
0.0373217
0.0365958
0.0357979
0.0348722
0.0338456
0.0325915
0.0312243
0.0294817
0.0276784
0.0413744
0.0413946
0.0410993
0.0407585
0.0403053
0.0398335
0.0393439
0.0388787
0.0384073
0.0379936
0.0374691
0.0370552
0.0359725
0.0350573
0.0305135
0.0255309
0.0413904
0.0414118
0.0410732
0.0406925
0.0401914
0.03967
0.0391261
0.0385941
0.0380414
0.0375183
0.0368706
0.036285
0.0351057
0.0340791
0.0303859
0.0272161
0.041527
0.0415434
0.0411141
0.0406607
0.0400909
0.0395038
0.0388964
0.0382904
0.0376471
0.0369958
0.0361932
0.0353642
0.0339753
0.0325616
0.0291821
0.0262037
0.0418357
0.0418171
0.0412263
0.0406517
0.0399906
0.0393386
0.0386798
0.038022
0.0373228
0.0365972
0.0357265
0.0347995
0.033428
0.0320017
0.029284
0.0268512
0.0424028
0.0422598
0.0414183
0.0406578
0.039879
0.039153
0.0384528
0.0377547
0.0370116
0.0362254
0.035298
0.034288
0.0329202
0.0314654
0.0291598
0.0270147
0.0434806
0.0428684
0.041638
0.0406132
0.0397254
0.0389466
0.0382406
0.0375427
0.0367943
0.0359905
0.035052
0.0340198
0.0326992
0.0312784
0.0292832
0.0273417
0.0453932
0.0436401
0.0419573
0.0405659
0.0395961
0.0387826
0.0380713
0.0373707
0.036627
0.0358177
0.0348774
0.033837
0.0325525
0.0311625
0.0293587
0.0275395
0.0495535
0.043935
0.0420414
0.0404304
0.0394859
0.0387131
0.0380419
0.0373734
0.0366661
0.0358852
0.0349728
0.0339567
0.0327027
0.0313298
0.0295598
0.0277219
0.0413546
0.0413741
0.0410869
0.0407567
0.0403192
0.0398656
0.0393968
0.038954
0.0385052
0.0381127
0.0376034
0.037193
0.0360873
0.0351103
0.0304191
0.0252287
0.0413682
0.041389
0.0410584
0.0406877
0.0402011
0.0396969
0.0391721
0.0386604
0.0381276
0.0376231
0.0369877
0.0364053
0.0352044
0.0341299
0.0303201
0.0270119
0.0415025
0.0415184
0.0410968
0.0406532
0.040097
0.0395256
0.0389358
0.0383479
0.037722
0.0370865
0.0362937
0.0354674
0.03406
0.0326101
0.0291402
0.0260618
0.0418091
0.0417901
0.0412068
0.0406415
0.0399938
0.0393566
0.0387137
0.0380723
0.0373885
0.0366768
0.0358147
0.0348907
0.0335054
0.0320536
0.0292718
0.0267711
0.0423747
0.0422312
0.041397
0.0406456
0.0398792
0.0391675
0.0384821
0.0377987
0.0370692
0.0362953
0.0353756
0.0343691
0.0329918
0.0315197
0.0291695
0.0269776
0.0434512
0.0428388
0.0416156
0.0405997
0.039724
0.0389587
0.0382669
0.0375827
0.0368471
0.0360548
0.0351238
0.0340956
0.0327689
0.0313362
0.029309
0.0273331
0.0453635
0.0436104
0.041935
0.0405523
0.0395941
0.0387929
0.0380951
0.0374082
0.0366766
0.0358783
0.0349454
0.0339096
0.0326215
0.031223
0.0293955
0.0275492
0.0495238
0.0439059
0.0420198
0.0404177
0.039485
0.0387249
0.0380673
0.0374128
0.0367186
0.0359496
0.0350458
0.0340356
0.0327795
0.0313995
0.0296071
0.0277419
0.0413435
0.0413626
0.0410808
0.0407576
0.0403306
0.0398897
0.0394356
0.0390093
0.0385782
0.0382038
0.0377107
0.0373116
0.0362032
0.0352006
0.0304271
0.0250982
0.0413555
0.041376
0.0410504
0.0406864
0.0402096
0.0397172
0.0392059
0.038709
0.0381916
0.0377026
0.0370802
0.0365065
0.0353005
0.0342044
0.0303272
0.0269289
0.0414882
0.0415039
0.0410872
0.0406501
0.040103
0.0395423
0.0389647
0.0383899
0.0377772
0.0371548
0.0363722
0.0355526
0.0341396
0.0326726
0.0291493
0.0260051
0.0417935
0.0417742
0.0411956
0.0406365
0.0399977
0.0393705
0.0387387
0.0381089
0.0374366
0.036736
0.0358822
0.0349637
0.0335736
0.0321092
0.0292889
0.0267429
0.0423579
0.0422142
0.0413847
0.0406391
0.039881
0.0391789
0.0385037
0.0378306
0.0371112
0.0363468
0.0354341
0.0344323
0.0330518
0.0315709
0.0291934
0.0269701
0.0434337
0.0428211
0.0416024
0.0405923
0.0397245
0.0389684
0.0382862
0.0376116
0.0368852
0.0361016
0.0351769
0.0341532
0.0328245
0.0313855
0.0293384
0.0273391
0.0453457
0.0435926
0.0419219
0.0405449
0.0395943
0.0388013
0.0381126
0.0374351
0.0367121
0.0359219
0.0349951
0.0339636
0.0326744
0.0312715
0.0294289
0.0275642
0.049506
0.0438884
0.0420071
0.0404108
0.0394859
0.0387341
0.0380858
0.0374411
0.036756
0.0359957
0.0350985
0.0340933
0.0328369
0.0314529
0.0296463
0.0277624
0.0413384