/*--------------------------------*- C++ -*----------------------------------*\
| =========                 |                                                 |
| \\      /  F ield         | OpenFOAM: The Open Source CFD Toolbox           |
|  \\    /   O peration     | Version:  v1912                                 |
|   \\  /    A nd           | Website:  www.openfoam.com                      |
|    \\/     M anipulation  |                                                 |
\*---------------------------------------------------------------------------*/
FoamFile
{
    version     2.0;
    format      ascii;
    class       surfaceScalarField;
    location    "0.82/fluid";
    object      phi;
}
// * * * * * * * * * * * * * * * * * * * * * * * * * * * * * * * * * * * * * //

dimensions      [0 3 -1 0 0 0 0];
oriented        oriented;


internalField   nonuniform List<scalar> 
41600
(
5.00737e-05
1.26207e-05
3.37696e-07
-5.32119e-07
3.98668e-05
1.05597e-05
5.86379e-07
-9.39208e-07
3.22412e-05
8.01074e-06
5.03584e-07
-8.88721e-07
2.74659e-05
5.11556e-06
1.54338e-07
-4.94623e-07
2.45953e-05
3.1256e-06
-4.14864e-07
1.59858e-07
2.28967e-05
1.8601e-06
-1.14366e-06
9.82154e-07
2.1807e-05
1.16289e-06
-2.02367e-06
1.95053e-06
2.09826e-05
8.11889e-07
-3.07923e-06
3.09169e-06
2.02217e-05
6.58083e-07
-4.37151e-06
4.4743e-06
1.94008e-05
5.88579e-07
-5.98438e-06
6.2167e-06
1.84431e-05
5.34259e-07
-8.06681e-06
8.4903e-06
1.7227e-05
3.91849e-07
-1.0737e-05
1.15613e-05
1.55859e-05
1.43637e-07
-1.43655e-05
1.58629e-05
1.29984e-05
-5.55399e-07
-1.85671e-05
2.171e-05
8.23115e-06
-1.11258e-06
-2.33614e-05
2.92412e-05
-3.53997e-06
-1.88253e-05
3.05964e-05
6.47897e-05
1.06058e-05
4.74412e-07
-7.49175e-07
6.34749e-05
1.24127e-05
8.75115e-07
-1.41336e-06
6.09319e-05
1.12024e-05
8.3788e-07
-1.48655e-06
5.81621e-05
8.52289e-06
3.67402e-07
-1.00488e-06
5.57375e-05
6.08832e-06
-5.20676e-07
-1.74687e-08
5.37583e-05
4.23465e-06
-1.75828e-06
1.36294e-06
5.20989e-05
3.06354e-06
-3.3194e-06
3.07814e-06
5.05652e-05
2.43113e-06
-5.22995e-06
5.14442e-06
4.89687e-05
2.17764e-06
-7.58135e-06
7.65831e-06
4.7118e-05
2.14961e-06
-1.05196e-05
1.08092e-05
4.4826e-05
2.23164e-06
-1.42886e-05
1.48833e-05
4.17442e-05
2.2822e-06
-1.91303e-05
2.03217e-05
3.74242e-05
2.24203e-06
-2.55475e-05
2.77691e-05
3.05631e-05
1.6581e-06
-3.29894e-05
3.76371e-05
1.98509e-05
7.92651e-07
-4.03936e-05
4.92005e-05
-2.38832e-06
-3.16223e-05
5.03215e-05
6.6372e-05
7.03053e-06
5.24923e-07
-8.21665e-07
6.87911e-05
1.05913e-05
9.85812e-07
-1.58347e-06
6.98667e-05
1.08648e-05
9.79086e-07
-1.71706e-06
6.98064e-05
9.328e-06
5.00846e-07
-1.24572e-06
6.91059e-05
7.43967e-06
-4.405e-07
-2.10329e-07
6.80528e-05
5.78818e-06
-1.786e-06
1.28552e-06
6.67839e-05
4.66208e-06
-3.51253e-06
3.18293e-06
6.53025e-05
4.06477e-06
-5.64835e-06
5.49615e-06
6.35297e-05
3.91581e-06
-8.28948e-06
8.32403e-06
6.13049e-05
4.10047e-06
-1.15981e-05
1.18721e-05
5.84005e-05
4.5205e-06
-1.58387e-05
1.64542e-05
5.43641e-05
5.04526e-06
-2.13029e-05
2.25761e-05
4.85805e-05
5.60248e-06
-2.85231e-05
3.09463e-05
3.93964e-05
5.68812e-06
-3.70204e-05
4.21745e-05
2.52212e-05
5.01894e-06
-4.54677e-05
5.54166e-05
9.95598e-07
-3.60356e-05
5.78729e-05
6.53008e-05
4.52942e-06
5.48088e-07
-8.4774e-07
6.84541e-05
8.05145e-06
1.04235e-06
-1.65584e-06
7.09572e-05
9.12476e-06
1.05696e-06
-1.82001e-06
7.24153e-05
8.64453e-06
5.91061e-07
-1.36566e-06
7.29732e-05
7.56395e-06
-3.41013e-07
-3.41183e-07
7.2828e-05
6.4647e-06
-1.68027e-06
1.14895e-06
7.2153e-05
5.69525e-06
-3.40504e-06
3.04691e-06
7.10271e-05
5.36775e-06
-5.54545e-06
5.36838e-06
6.94369e-05
5.49161e-06
-8.19715e-06
8.21154e-06
6.72547e-05
6.02331e-06
-1.15268e-05
1.17861e-05
6.42454e-05
6.91952e-06
-1.57994e-05
1.64096e-05
5.99052e-05
8.09833e-06
-2.13332e-05
2.26205e-05
5.35153e-05
9.50899e-06
-2.86666e-05
3.11499e-05
4.32546e-05
1.05995e-05
-3.74211e-05
4.27706e-05
2.73073e-05
1.05359e-05
-4.62523e-05
5.66826e-05
5.18193e-06
-3.70978e-05
6.02187e-05
6.43614e-05
2.96495e-06
5.67851e-07
-8.64764e-07
6.71849e-05
5.84135e-06
1.09129e-06
-1.70472e-06
6.99158e-05
7.15836e-06
1.13111e-06
-1.89557e-06
7.19785e-05
7.3574e-06
6.88376e-07
-1.46393e-06
7.32471e-05
6.97763e-06
-2.14566e-07
-4.67811e-07
7.37685e-05
6.47533e-06
-1.51334e-06
9.81385e-07
7.3654e-05
6.17038e-06
-3.18262e-06
2.82201e-06
7.29791e-05
6.22494e-06
-5.24995e-06
5.06764e-06
7.17512e-05
6.71382e-06
-7.80524e-06
7.81093e-06
6.98623e-05
7.66652e-06
-1.10127e-05
1.12584e-05
6.70817e-05
9.10908e-06
-1.51259e-05
1.57169e-05
6.28717e-05
1.1047e-05
-2.04794e-05
2.17408e-05
5.64225e-05
1.35021e-05
-2.75957e-05
3.00517e-05
4.57147e-05
1.59544e-05
-3.62323e-05
4.15852e-05
2.85969e-05
1.7138e-05
-4.50616e-05
5.55772e-05
1.02911e-05
-3.65357e-05
6.00234e-05
6.38137e-05
1.94465e-06
5.87996e-07
-8.81446e-07
6.6199e-05
4.06528e-06
1.14195e-06
-1.75115e-06
6.8806e-05
5.31097e-06
1.21363e-06
-1.97323e-06
7.10686e-05
5.86441e-06
8.04179e-07
-1.57375e-06
7.27236e-05
5.99827e-06
-5.74619e-08
-6.18149e-07
7.37045e-05
6.02055e-06
-1.30007e-06
7.73917e-07
7.40507e-05
6.18199e-06
-2.89163e-06
2.53377e-06
7.38091e-05
6.65083e-06
-4.85349e-06
4.66918e-06
7.29859e-05
7.53983e-06
-7.26569e-06
7.26293e-06
7.14804e-05
8.94447e-06
-1.02854e-05
1.05129e-05
6.90656e-05
1.09646e-05
-1.41468e-05
1.47061e-05
6.51727e-05
1.37323e-05
-1.91959e-05
2.04035e-05
5.89136e-05
1.73882e-05
-2.5921e-05
2.82941e-05
4.80408e-05
2.15879e-05
-3.42525e-05
3.94918e-05
3.00023e-05
2.48077e-05
-4.28762e-05
5.3245e-05
1.68647e-05
-3.53045e-05
5.87331e-05
6.35598e-05
1.17575e-06
6.11574e-07
-9.02444e-07
6.56635e-05
2.56691e-06
1.19991e-06
-1.80526e-06
6.81407e-05
3.58878e-06
1.31036e-06
-2.06533e-06
7.04814e-05
4.28807e-06
9.43766e-07
-1.70814e-06
7.2373e-05
4.77708e-06
1.34371e-07
-8.04793e-07
7.36897e-05
5.2265e-06
-1.03898e-06
5.1629e-07
7.44265e-05
5.80362e-06
-2.53466e-06
2.17631e-06
7.46144e-05
6.65446e-06
-4.36284e-06
4.17132e-06
7.42707e-05
7.90431e-06
-6.58621e-06
6.5654e-06
7.33261e-05
9.69919e-06
-9.34291e-06
9.53272e-06
7.16022e-05
1.22017e-05
-1.28273e-05
1.33142e-05
6.85657e-05
1.57049e-05
-1.73677e-05
1.84316e-05
6.33366e-05
2.05195e-05
-2.33556e-05
2.54535e-05
5.32695e-05
2.69478e-05
-3.0902e-05
3.56092e-05
3.50316e-05
3.37019e-05
-3.85965e-05
4.79401e-05
2.99056e-05
-3.23672e-05
5.43579e-05
6.34684e-05
6.38088e-07
-9.27795e-07
4.97052e-07
6.54634e-05
1.26416e-06
-1.86774e-06
1.17545e-06
6.79067e-05
1.41786e-06
-2.17084e-06
1.89852e-06
7.03256e-05
1.10034e-06
-1.8628e-06
2.63157e-06
7.23949e-05
3.50051e-07
-1.01922e-06
3.37694e-06
7.39665e-05
-7.47007e-07
2.23353e-07
4.17855e-06
7.5018e-05
-2.13865e-06
1.7756e-06
5.1152e-06
7.55789e-05
-3.82207e-06
3.61935e-06
6.29622e-06
7.56818e-05
-5.84042e-06
5.79768e-06
7.84425e-06
7.52889e-05
-8.30919e-06
8.45682e-06
9.94437e-06
7.42718e-05
-1.13799e-05
1.17891e-05
1.28096e-05
7.21495e-05
-1.53548e-05
1.62663e-05
1.69156e-05
6.81241e-05
-2.05247e-05
2.23379e-05
2.27318e-05
5.93046e-05
-2.72039e-05
3.13596e-05
3.16116e-05
4.20929e-05
-3.39811e-05
4.22969e-05
4.25978e-05
-2.99979e-05
5.07785e-05
5.12179e-05
5.00085e-05
1.26268e-05
2.02382e-07
3.96778e-05
1.0578e-05
3.39108e-07
3.19155e-05
8.03246e-06
2.33442e-07
2.70131e-05
5.13472e-06
-7.79746e-08
2.40243e-05
3.14384e-06
-5.69902e-07
2.22035e-05
1.88092e-06
-1.20382e-06
2.09687e-05
1.19139e-06
-1.98031e-06
1.99581e-05
8.51686e-07
-2.92028e-06
1.89492e-05
7.12872e-07
-4.07546e-06
1.78018e-05
6.61908e-07
-5.49887e-06
1.64089e-05
6.34526e-07
-7.30844e-06
1.46559e-05
5.30751e-07
-9.51478e-06
1.23215e-05
3.46682e-07
-1.23777e-05
9.17475e-06
-2.51691e-07
-1.51687e-05
4.27981e-06
-8.0825e-07
-1.76582e-05
-2.70534e-06
-1.18401e-05
6.4698e-05
1.06201e-05
2.83104e-07
6.32038e-05
1.24482e-05
4.99117e-07
6.04367e-05
1.12518e-05
3.8562e-07
5.74281e-05
8.57713e-06
-6.64508e-08
5.4761e-05
6.14723e-06
-8.56907e-07
5.25263e-05
4.30376e-06
-1.9464e-06
5.05736e-05
3.15314e-06
-3.32843e-06
4.86757e-05
2.55142e-06
-5.0318e-06
4.66041e-05
2.33973e-06
-7.13661e-06
4.4128e-05
2.36346e-06
-9.74507e-06
4.10062e-05
2.51294e-06
-1.30452e-05
3.68849e-05
2.64109e-06
-1.71193e-05
3.12705e-05
2.69722e-06
-2.22837e-05
2.33324e-05
2.19541e-06
-2.74984e-05
1.2225e-05
1.26853e-06
-3.1363e-05
-1.83867e-06
-2.02639e-05
6.62795e-05
7.04846e-06
3.17112e-07
6.85108e-05
1.06359e-05
5.66741e-07
6.93456e-05
1.09336e-05
4.62552e-07
6.90196e-05
9.41361e-06
-9.62525e-09
6.80401e-05
7.54188e-06
-8.55608e-07
6.66884e-05
5.91403e-06
-2.04455e-06
6.50777e-05
4.82565e-06
-3.57437e-06
6.31764e-05
4.28304e-06
-5.47866e-06
6.08604e-05
4.20938e-06
-7.84315e-06
5.7921e-05
4.49003e-06
-1.07853e-05
5.40676e-05
5.03494e-06
-1.45073e-05
4.88319e-05
5.70241e-06
-1.91285e-05
4.15452e-05
6.4299e-06
-2.49691e-05
3.10712e-05
6.62468e-06
-3.09757e-05
1.63984e-05
5.87561e-06
-3.5402e-05
1.39337e-06
-2.28692e-05
6.52106e-05
4.5491e-06
3.36873e-07
6.81779e-05
8.10113e-06
6.09729e-07
7.04426e-05
9.20654e-06
5.19334e-07
7.16367e-05
8.75524e-06
5.53706e-08
7.19158e-05
7.70504e-06
-7.83371e-07
7.1471e-05
6.64515e-06
-1.96651e-06
7.04527e-05
5.93255e-06
-3.49362e-06
6.89053e-05
5.68553e-06
-5.40062e-06
6.67697e-05
5.92104e-06
-7.77318e-06
6.38671e-05
6.59922e-06
-1.07334e-05
5.98947e-05
7.69064e-06
-1.44827e-05
5.43239e-05
9.10193e-06
-1.9162e-05
4.63711e-05
1.08028e-05
-2.50866e-05
3.47355e-05
1.20989e-05
-3.12597e-05
1.82032e-05
1.20217e-05
-3.58662e-05
5.71567e-06
-2.32169e-05
6.42733e-05
2.98657e-06
3.57048e-07
6.69139e-05
5.8962e-06
6.55617e-07
6.94123e-05
7.25152e-06
5.87715e-07
7.12206e-05
7.48965e-06
1.45694e-07
7.22233e-05
7.15291e-06
-6.65158e-07
7.24606e-05
6.7047e-06
-1.81017e-06
7.20216e-05
6.47471e-06
-3.28575e-06
7.09484e-05
6.63432e-06
-5.12552e-06
6.92036e-05
7.27036e-06
-7.40979e-06
6.66279e-05
8.42142e-06
-1.02592e-05
6.29209e-05
1.01363e-05
-1.38645e-05
5.75111e-05
1.24149e-05
-1.83826e-05
4.95084e-05
1.53211e-05
-2.41113e-05
3.73888e-05
1.81477e-05
-3.01616e-05
1.95619e-05
1.95064e-05
-3.47193e-05
1.12283e-05
-2.24865e-05
6.37274e-05
1.96895e-06
3.78248e-07
6.59333e-05
4.1261e-06
7.06143e-07
6.83148e-05
5.41496e-06
6.68645e-07
7.03346e-05
6.01528e-06
2.58804e-07
7.17402e-05
6.20233e-06
-5.12533e-07
7.24586e-05
6.29109e-06
-1.6048e-06
7.25069e-05
6.54321e-06
-3.00848e-06
7.19002e-05
7.13909e-06
-4.75155e-06
7.0602e-05
8.20808e-06
-6.90522e-06
6.84611e-05
9.86177e-06
-9.58479e-06
6.51808e-05
1.22339e-05
-1.29641e-05
6.01498e-05
1.54634e-05
-1.72136e-05
5.23866e-05
1.97643e-05
-2.26011e-05
4.00975e-05
2.45733e-05
-2.8389e-05
2.1214e-05
2.82983e-05
-3.27847e-05
1.84648e-05
-2.13269e-05
6.34753e-05
1.2029e-06
4.023e-07
6.54041e-05
2.63358e-06
7.6367e-07
6.76639e-05
3.70207e-06
7.63411e-07
6.97749e-05
4.45347e-06
3.94584e-07
7.14364e-05
5.00252e-06
-3.27328e-07
7.25166e-05
5.527e-06
-1.35503e-06
7.29899e-05
6.2058e-06
-2.67052e-06
7.28588e-05
7.19922e-06
-4.29198e-06
7.21036e-05
8.65268e-06
-6.27554e-06
7.06098e-05
1.07352e-05
-8.72255e-06
6.81386e-05
1.36526e-05
-1.17749e-05
6.41103e-05
1.77247e-05
-1.56007e-05
5.75527e-05
2.33645e-05
-2.03982e-05
4.61729e-05
3.06751e-05
-2.56239e-05
2.69824e-05
3.83771e-05
-2.94847e-05
3.23635e-05
-1.92836e-05
6.3386e-05
4.28322e-07
5.26635e-07
6.52111e-05
8.26003e-07
1.24664e-06
6.74461e-05
8.67041e-07
2.01793e-06
6.96494e-05
5.44719e-07
2.80575e-06
7.15087e-05
-1.21512e-07
3.61484e-06
7.28706e-05
-1.07817e-06
4.4962e-06
7.36952e-05
-2.2978e-06
5.54037e-06
7.39869e-05
-3.78704e-06
6.87248e-06
7.37467e-05
-5.58515e-06
8.63764e-06
7.28985e-05
-7.77627e-06
1.10505e-05
7.12643e-05
-1.04674e-05
1.43743e-05
6.83154e-05
-1.38184e-05
1.91373e-05
6.31775e-05
-1.79541e-05
2.59318e-05
5.32098e-05
-2.25528e-05
3.59917e-05
3.50557e-05
-2.58956e-05
4.84457e-05
-1.76328e-05
5.50541e-05
4.99585e-05
1.26327e-05
1.11177e-07
3.95298e-05
1.05946e-05
1.73259e-07
3.16518e-05
8.05294e-06
5.84933e-08
2.66326e-05
5.15403e-06
-2.1284e-07
2.35276e-05
3.16233e-06
-6.27207e-07
2.15821e-05
1.90164e-06
-1.15996e-06
2.01986e-05
1.21865e-06
-1.8155e-06
1.89987e-05
8.8851e-07
-2.6088e-06
1.77389e-05
7.62283e-07
-3.57803e-06
1.62614e-05
7.26436e-07
-4.7478e-06
1.44305e-05
7.19498e-07
-6.19702e-06
1.2145e-05
6.43297e-07
-7.87255e-06
9.20177e-06
4.95135e-07
-9.92964e-06
5.73919e-06
-4.40359e-08
-1.16621e-05
1.51508e-06
-6.73594e-07
-1.27605e-05
-2.35816e-06
-7.96691e-06
6.46271e-05
1.06346e-05
1.54133e-07
6.29906e-05
1.24823e-05
2.47859e-07
6.00354e-05
1.13002e-05
9.35979e-08
5.68132e-05
8.63204e-06
-3.22262e-07
5.39166e-05
6.20745e-06
-1.0054e-06
5.14311e-05
4.37369e-06
-1.93293e-06
4.91875e-05
3.24171e-06
-3.10789e-06
4.69315e-05
2.66785e-06
-4.55514e-06
4.43993e-05
2.49451e-06
-6.33667e-06
4.13275e-05
2.56582e-06
-8.51265e-06
3.74335e-05
2.77677e-06
-1.12085e-05
3.23869e-05
2.97412e-06
-1.44035e-05
2.57465e-05
3.10929e-06
-1.82575e-05
1.72654e-05
2.66477e-06
-2.17261e-05
7.03715e-06
1.6427e-06
-2.3451e-05
-1.52821e-06
-1.40567e-05
6.62083e-05
7.06732e-06
1.76048e-07
6.82913e-05
1.06806e-05
2.85497e-07
6.89246e-05
1.10022e-05
1.27102e-07
6.83623e-05
9.50022e-06
-3.15461e-07
6.71214e-05
7.64531e-06
-1.0526e-06
6.54796e-05
6.03986e-06
-2.06885e-06
6.35326e-05
4.98632e-06
-3.37204e-06
6.12206e-05
4.49399e-06
-4.99275e-06
5.83806e-05
4.48991e-06
-6.99853e-06
5.47646e-05
4.85923e-06
-9.46271e-06
5.00343e-05
5.51918e-06
-1.25194e-05
4.37375e-05
6.31613e-06
-1.61737e-05
3.52558e-05
7.19409e-06
-2.05721e-05
2.40906e-05
7.47861e-06
-2.46244e-05
1.03001e-05
6.6498e-06
-2.66186e-05
1.7534e-06
-1.58507e-05
6.51418e-05
4.57014e-06
1.92244e-07
6.7963e-05
8.1519e-06
3.17217e-07
7.00288e-05
9.28878e-06
1.6695e-07
7.09887e-05
8.86643e-06
-2.70723e-07
7.10074e-05
7.84589e-06
-1.00259e-06
7.02716e-05
6.8231e-06
-2.01402e-06
6.89156e-05
6.16332e-06
-3.31457e-06
6.69556e-05
5.99066e-06
-4.9373e-06
6.42928e-05
6.32947e-06
-6.94995e-06
6.07062e-05
7.1427e-06
-9.43031e-06
5.58402e-05
8.41345e-06
-1.25109e-05
4.91731e-05
1.00349e-05
-1.62136e-05
3.99608e-05
1.1995e-05
-2.06753e-05
2.75482e-05
1.34707e-05
-2.48393e-05
1.18393e-05
1.34002e-05
-2.69076e-05
6.3521e-06
-1.59763e-05
6.42067e-05
3.00935e-06
2.11095e-07
6.67046e-05
5.95188e-06
3.57821e-07
6.901e-05
7.34443e-06
2.26659e-07
7.0593e-05
7.62064e-06
-1.91521e-07
7.13468e-05
7.32515e-06
-8.98228e-07
7.13075e-05
6.92791e-06
-1.87567e-06
7.0548e-05
6.76789e-06
-3.13082e-06
6.90829e-05
7.02508e-06
-4.69493e-06
6.68361e-05
7.79775e-06
-6.63121e-06
6.36044e-05
9.13202e-06
-9.01685e-06
5.90314e-05
1.10976e-05
-1.19757e-05
5.25423e-05
1.3685e-05
-1.55436e-05
4.32711e-05
1.69976e-05
-1.98426e-05
3.03231e-05
2.01586e-05
-2.39015e-05
1.3208e-05
2.17172e-05
-2.59212e-05
1.2405e-05
-1.53315e-05
6.36625e-05
1.99373e-06
2.31378e-07
6.57293e-05
4.1866e-06
4.04654e-07
6.79246e-05
5.51699e-06
3.00801e-07
6.97299e-05
6.16223e-06
-8.81589e-08
7.09018e-05
6.39987e-06
-7.59118e-07
7.13632e-05
6.55134e-06
-1.68964e-06
7.11158e-05
6.88844e-06
-2.88158e-06
7.0148e-05
7.60286e-06
-4.36155e-06
6.83859e-05
8.83966e-06
-6.18508e-06
6.56346e-05
1.07243e-05
-8.4258e-06
6.15401e-05
1.34221e-05
-1.11941e-05
5.54776e-05
1.70738e-05
-1.45399e-05
4.64744e-05
2.19627e-05
-1.85631e-05
3.33317e-05
2.73305e-05
-2.24182e-05
1.50159e-05
3.15887e-05
-2.43403e-05
2.04983e-05
-1.44044e-05
6.34124e-05
1.22959e-06
2.54055e-07
6.52064e-05
2.69827e-06
4.57999e-07
6.72878e-05
3.81115e-06
3.87854e-07
6.91967e-05
4.61193e-06
3.59666e-08
7.0642e-05
5.21791e-06
-5.90676e-07
7.14891e-05
5.81336e-06
-1.46418e-06
7.16984e-05
6.58782e-06
-2.57919e-06
7.12487e-05
7.71503e-06
-3.95445e-06
7.00869e-05
9.35945e-06
-5.63352e-06
6.80588e-05
1.17106e-05
-7.68076e-06
6.48741e-05
1.50155e-05
-1.01836e-05
5.99319e-05
1.96137e-05
-1.31984e-05
5.22602e-05
2.60186e-05
-1.67824e-05
4.00732e-05
3.41545e-05
-2.02609e-05
2.12512e-05
4.28523e-05
-2.19264e-05
3.55203e-05
-1.30544e-05
6.33251e-05
2.78047e-07
5.54734e-07
6.50203e-05
5.15058e-07
1.31404e-06
6.70854e-05
4.82249e-07
2.13082e-06
6.90997e-05
1.72209e-07
2.97016e-06
7.07613e-05
-4.04812e-07
3.83959e-06
7.19158e-05
-1.21565e-06
4.79634e-06
7.25108e-05
-2.24698e-06
5.94198e-06
7.25306e-05
-3.50826e-06
7.41653e-06
7.1948e-05
-5.02959e-06
9.3864e-06
7.06529e-05
-6.86364e-06
1.20931e-05
6.84249e-05
-9.07251e-06
1.58486e-05
6.471e-05
-1.17154e-05
2.12257e-05
5.86357e-05
-1.48048e-05
2.89436e-05
4.79659e-05
-1.78604e-05
4.01319e-05
3.0077e-05
-1.93022e-05
5.41479e-05
-1.19711e-05
5.99355e-05
4.99204e-05
1.26381e-05
5.27448e-08
3.94151e-05
1.06091e-05
6.93586e-08
3.14434e-05
8.07133e-06
-4.11131e-08
2.63264e-05
5.17191e-06
-2.67716e-07
2.31226e-05
3.17992e-06
-6.03389e-07
2.10737e-05
1.92169e-06
-1.03273e-06
1.95744e-05
1.24512e-06
-1.56132e-06
1.82401e-05
9.24746e-07
-2.19923e-06
1.68228e-05
8.12282e-07
-2.97305e-06
1.51697e-05
7.95132e-07
-3.88977e-06
1.31538e-05
8.16491e-07
-4.99766e-06
1.07161e-05
7.85719e-07
-6.22058e-06
7.71528e-06
7.09515e-07
-7.63831e-06
4.41655e-06
3.04524e-07
-8.66785e-06
8.76648e-07
-2.22418e-07
-8.99815e-06
-1.7313e-06
-5.35896e-06
6.45724e-05
1.0648e-05
7.17831e-08
6.28244e-05
1.25132e-05
9.18981e-08
5.97168e-05
1.13442e-05
-7.16808e-08
5.63159e-05
8.68281e-06
-4.32343e-07
5.32238e-05
6.26372e-06
-9.97065e-07
5.05261e-05
4.43913e-06
-1.75269e-06
4.80452e-05
3.32413e-06
-2.70601e-06
4.55155e-05
2.77588e-06
-3.87654e-06
4.26615e-05
2.6388e-06
-5.30917e-06
3.9221e-05
2.75761e-06
-7.0346e-06
3.4923e-05
3.03453e-06
-9.12855e-06
2.95084e-05
3.31885e-06
-1.1522e-05
2.26523e-05
3.57624e-06
-1.42681e-05
1.4418e-05
3.29014e-06
-1.64775e-05
5.34563e-06
2.38546e-06
-1.69865e-05
-7.72083e-07
-9.67032e-06
6.61536e-05
7.08525e-06
8.51584e-08
6.81203e-05
1.0722e-05
1.09983e-07
6.85907e-05
1.10656e-05
-6.46833e-08
6.78309e-05
9.58047e-06
-4.53363e-07
6.63675e-05
7.74128e-06
-1.06673e-06
6.44793e-05
6.15609e-06
-1.89762e-06
6.22553e-05
5.13342e-06
-2.95733e-06
5.96237e-05
4.68559e-06
-4.27089e-06
5.64084e-05
4.74372e-06
-5.88818e-06
5.23599e-05
5.19392e-06
-7.8505e-06
4.71515e-05
5.96218e-06
-1.02387e-05
4.04059e-05
6.89079e-06
-1.30001e-05
3.16384e-05
7.93927e-06
-1.61677e-05
2.07092e-05
8.38963e-06
-1.87947e-05
8.2198e-06
7.65617e-06
-1.93999e-05
2.52023e-06
-1.09233e-05
6.50893e-05
4.59035e-06
9.78319e-08
6.77965e-05
8.19953e-06
1.32551e-07
6.97018e-05
9.36513e-06
-3.78922e-08
7.04663e-05
8.96926e-06
-4.24036e-07
7.02632e-05
7.97564e-06
-1.03385e-06
6.92806e-05
6.98577e-06
-1.8611e-06
6.76462e-05
6.37209e-06
-2.91877e-06
6.53649e-05
6.26381e-06
-4.23423e-06
6.23246e-05
6.69182e-06
-5.85778e-06
5.83016e-05
7.62137e-06
-7.83473e-06
5.29503e-05
9.04678e-06
-1.02443e-05
4.58222e-05
1.0852e-05
-1.30466e-05
3.63061e-05
1.30437e-05
-1.62636e-05
2.41118e-05
1.4712e-05
-1.89673e-05
9.71256e-06
1.47385e-05
-1.95907e-05
7.20872e-06
-1.09522e-05
6.41562e-05
3.03109e-06
1.14126e-07
6.65432e-05
6.004e-06
1.66368e-07
6.86933e-05
7.43032e-06
1.13433e-08
7.00887e-05
7.74092e-06
-3.58531e-07
7.06308e-05
7.48234e-06
-9.47057e-07
7.03569e-05
7.12983e-06
-1.74576e-06
6.93336e-05
7.03024e-06
-2.76567e-06
6.75648e-05
7.37054e-06
-4.03289e-06
6.49615e-05
8.25812e-06
-5.59418e-06
6.13172e-05
9.74367e-06
-7.49488e-06
5.62839e-05
1.1912e-05
-9.80757e-06
4.93545e-05
1.4742e-05
-1.25043e-05
3.97874e-05
1.83634e-05
-1.55953e-05
2.70406e-05
2.17742e-05
-1.82169e-05
1.11791e-05
2.34794e-05
-1.88006e-05
1.34859e-05
-1.04295e-05
6.36135e-05
2.01694e-06
1.3199e-07
6.55729e-05
4.24255e-06
2.06783e-07
6.76188e-05
5.61038e-06
7.48322e-08
6.92458e-05
6.2959e-06
-2.70205e-07
7.02191e-05
6.57835e-06
-8.28362e-07
7.04625e-05
6.78439e-06
-1.58763e-06
6.99719e-05
7.19426e-06
-2.55499e-06
6.87255e-05
8.00826e-06
-3.75289e-06
6.66375e-05
9.3831e-06
-5.22208e-06
6.35091e-05
1.1452e-05
-7.00568e-06
5.89933e-05
1.44001e-05
-9.16639e-06
5.25262e-05
1.8358e-05
-1.16887e-05
4.32491e-05
2.36461e-05
-1.45686e-05
3.02936e-05
2.93508e-05
-1.70394e-05
1.31412e-05
3.38619e-05
-1.75705e-05
2.19392e-05
-9.71651e-06
6.33651e-05
1.25406e-06
1.51827e-07
6.50555e-05
2.75718e-06
2.52933e-07
6.69943e-05
3.90984e-06
1.49668e-07
6.87354e-05
4.75465e-06
-1.63923e-07
6.9997e-05
5.41071e-06
-6.84661e-07
7.0646e-05
6.06756e-06
-1.39632e-06
7.06378e-05
6.92342e-06
-2.30013e-06
6.99423e-05
8.16191e-06
-3.41259e-06
6.84963e-05
9.9609e-06
-4.76538e-06
6.61425e-05
1.25209e-05
-6.39586e-06
6.25978e-05
1.61124e-05
-8.35114e-06
5.73128e-05
2.10701e-05
-1.06255e-05
4.94157e-05
2.79518e-05
-1.3191e-05
3.74086e-05
3.6513e-05
-1.5416e-05
1.96037e-05
4.55871e-05
-1.58466e-05
3.73067e-05
-8.81813e-06
6.32796e-05
1.72539e-07
5.7992e-07
6.48756e-05
3.01927e-07
1.3744e-06
6.68055e-05
2.30431e-07
2.23173e-06
6.86633e-05
-4.76917e-08
3.1167e-06
7.01569e-05
-5.2665e-07
4.03895e-06
7.11342e-05
-1.18607e-06
5.06073e-06
7.15391e-05
-2.02076e-06
6.29231e-06
7.13484e-05
-3.04011e-06
7.8844e-06
7.05276e-05
-4.26565e-06
1.00178e-05
6.89639e-05
-5.72722e-06
1.29481e-05
6.64458e-05
-7.45479e-06
1.70127e-05
6.24619e-05
-9.4502e-06
2.27888e-05
5.6229e-05
-1.1662e-05
3.10418e-05
4.57495e-05
-1.36129e-05
4.2745e-05
2.87475e-05
-1.39867e-05
5.72736e-05
-8.11454e-06
6.21976e-05
4.98909e-05
1.26426e-05
1.92293e-08
3.93263e-05
1.06211e-05
1.2837e-08
3.12798e-05
8.08649e-06
-8.10642e-08
2.60822e-05
5.18676e-06
-2.56875e-07
2.27951e-05
3.19457e-06
-5.1084e-07
2.06576e-05
1.93822e-06
-8.33492e-07
1.90594e-05
1.26658e-06
-1.22965e-06
1.76117e-05
9.53694e-07
-1.7052e-06
1.60639e-05
8.51619e-07
-2.27691e-06
1.42683e-05
8.48223e-07
-2.94241e-06
1.21092e-05
8.89849e-07
-3.72837e-06
9.56201e-06
8.90658e-07
-4.56408e-06
6.54727e-06
8.63164e-07
-5.48674e-06
3.42028e-06
5.425e-07
-6.08336e-06
4.40074e-07
7.79666e-08
-6.09591e-06
-1.37655e-06
-3.54234e-06
6.45301e-05
1.06595e-05
2.4798e-08
6.26952e-05
1.25392e-05
8.61882e-09
5.94662e-05
1.13814e-05
-1.3762e-07
5.59196e-05
8.72602e-06
-4.24932e-07
5.26644e-05
6.31189e-06
-8.59176e-07
4.97876e-05
4.49506e-06
-1.43277e-06
4.71066e-05
3.39409e-06
-2.15247e-06
4.43487e-05
2.86693e-06
-3.0319e-06
4.12322e-05
2.75968e-06
-4.10078e-06
3.74999e-05
2.9174e-06
-5.37147e-06
3.28985e-05
3.24801e-06
-6.88531e-06
2.72318e-05
3.60222e-06
-8.56684e-06
2.02883e-05
3.95645e-06
-1.0418e-05
1.23504e-05
3.78938e-06
-1.17864e-05
4.25612e-06
2.96618e-06
-1.17804e-05
-2.53016e-07
-6.53774e-06
6.61113e-05
7.1009e-06
3.24372e-08
6.79876e-05
1.07577e-05
1.52615e-08
6.83282e-05
1.112e-05
-1.43854e-07
6.74075e-05
9.64946e-06
-4.56127e-07
6.57589e-05
7.82393e-06
-9.30189e-07
6.36634e-05
6.25595e-06
-1.56295e-06
6.12059e-05
5.25911e-06
-2.36488e-06
5.83078e-05
4.84832e-06
-3.35421e-06
5.47858e-05
4.95816e-06
-4.56467e-06
5.03939e-05
5.47537e-06
-6.01652e-06
4.4824e-05
6.33295e-06
-7.75373e-06
3.77675e-05
7.3694e-06
-9.71074e-06
2.88691e-05
8.55643e-06
-1.18693e-05
1.825e-05
9.13911e-06
-1.35253e-05
6.87496e-06
8.47979e-06
-1.35385e-05
3.11365e-06
-7.41499e-06
6.50488e-05
4.60817e-06
4.17291e-08
6.76676e-05
8.24097e-06
3.05016e-08
6.94454e-05
9.43116e-06
-1.26827e-07
7.00508e-05
9.05802e-06
-4.38052e-07
6.96633e-05
8.08746e-06
-9.0991e-07
6.84729e-05
7.12546e-06
-1.54018e-06
6.66036e-05
6.55041e-06
-2.34078e-06
6.40538e-05
6.49579e-06
-3.33193e-06
6.07042e-05
6.9979e-06
-4.54786e-06
5.63333e-05
8.02357e-06
-6.01208e-06
5.06134e-05
9.57591e-06
-7.76734e-06
4.31628e-05
1.15306e-05
-9.75721e-06
3.35009e-05
1.39088e-05
-1.1954e-05
2.16052e-05
1.57316e-05
-1.36641e-05
8.33378e-06
1.58376e-05
-1.3677e-05
7.91897e-06
-7.42379e-06
6.41174e-05
3.05027e-06
5.46002e-08
6.64188e-05
6.04944e-06
5.65434e-08
6.84458e-05
7.50469e-06
-8.92135e-08
6.96885e-05
7.84465e-06
-3.87898e-07
7.00547e-05
7.61746e-06
-8.43183e-07
6.9583e-05
7.30273e-06
-1.45133e-06
6.83368e-05
7.25383e-06
-2.22293e-06
6.63137e-05
7.6634e-06
-3.17736e-06
6.34174e-05
8.64629e-06
-4.34634e-06
5.94434e-05
1.02565e-05
-5.75373e-06
5.40592e-05
1.25903e-05
-7.43776e-06
4.68204e-05
1.56163e-05
-9.35116e-06
3.71093e-05
1.94831e-05
-1.14586e-05
2.46442e-05
2.3092e-05
-1.31122e-05
9.86892e-06
2.49143e-05
-1.3102e-05
1.44064e-05
-7.04807e-06
6.35761e-05
2.03728e-06
6.89062e-08
6.54527e-05
4.2911e-06
8.84876e-08
6.73806e-05
5.69094e-06
-3.92948e-08
6.88628e-05
6.41073e-06
-3.18538e-07
6.96709e-05
6.73117e-06
-7.5009e-07
6.97304e-05
6.98324e-06
-1.32765e-06
6.9034e-05
7.45411e-06
-2.05886e-06
6.75538e-05
8.35111e-06
-2.96045e-06
6.51975e-05
9.84031e-06
-4.05979e-06
6.17673e-05
1.20605e-05
-5.37949e-06
5.69302e-05
1.52121e-05
-6.9511e-06
5.01792e-05
1.94159e-05
-8.73735e-06
4.07701e-05
2.50182e-05
-1.06946e-05
2.80799e-05
3.09878e-05
-1.2245e-05
1.19425e-05
3.56951e-05
-1.22138e-05
2.31753e-05
-6.54286e-06
6.33291e-05
1.27523e-06
8.47381e-08
6.49402e-05
2.80787e-06
1.25058e-07
6.67667e-05
3.99441e-06
1.97588e-08
6.83718e-05
4.87658e-06
-2.34892e-07
6.94806e-05
5.57506e-06
-6.37339e-07
6.9962e-05
6.28368e-06
-1.17818e-06
6.9769e-05
7.20786e-06
-1.86085e-06
6.88662e-05
8.53919e-06
-2.69784e-06
6.71849e-05
1.04664e-05
-3.71019e-06
6.45688e-05
1.31979e-05
-4.91717e-06
6.07478e-05
1.70224e-05
-6.34044e-06
5.52214e-05
2.22687e-05
-7.95194e-06
4.72196e-05
2.95252e-05
-9.69615e-06
3.54613e-05
3.84218e-05
-1.10917e-05
1.85578e-05
4.77881e-05
-1.10361e-05
3.88753e-05
-5.96036e-06
6.32452e-05
1.01139e-07
6.0143e-07
6.47655e-05
1.63719e-07
1.4258e-06
6.65894e-05
8.33459e-08
2.31754e-06
6.83207e-05
-1.43608e-07
3.24122e-06
6.96746e-05
-5.13614e-07
4.20812e-06
7.05017e-05
-1.01422e-06
5.28471e-06
7.07445e-05
-1.64411e-06
6.58847e-06
7.03755e-05
-2.41071e-06
8.27872e-06
6.93564e-05
-3.32796e-06
1.05478e-05
6.75758e-05
-4.41056e-06
1.36618e-05
6.48351e-05
-5.66935e-06
1.79777e-05
6.06644e-05
-7.08413e-06
2.40734e-05
5.43699e-05
-8.58887e-06
3.27465e-05
4.41351e-05
-9.81171e-06
4.48554e-05
2.79229e-05
-9.77052e-06
5.97842e-05
-5.51184e-06
6.41954e-05
4.98698e-05
1.26461e-05
3.32556e-09
3.92623e-05
1.06303e-05
-9.99843e-09
3.11608e-05
8.09822e-06
-7.77959e-08
2.59036e-05
5.19848e-06
-1.98133e-07
2.2555e-05
3.20635e-06
-3.68641e-07
2.03539e-05
1.95171e-06
-5.8411e-07
1.86879e-05
1.28429e-06
-8.47872e-07
1.71678e-05
9.77926e-07
-1.16308e-06
1.5545e-05
8.85198e-07
-1.53928e-06
1.36793e-05
8.94696e-07
-1.9714e-06
1.14677e-05
9.55675e-07
-2.4725e-06
8.90749e-06
9.86372e-07
-2.9902e-06
5.95488e-06
1.00462e-06
-3.53874e-06
2.97471e-06
7.54873e-07
-3.85806e-06
2.96674e-07
3.50706e-07
-3.76858e-06
-1.0924e-06
-2.15327e-06
6.44996e-05
1.06686e-05
2.84152e-09
6.26015e-05
1.25596e-05
-2.25959e-08
5.9283e-05
1.14104e-05
-1.3138e-07
5.56279e-05
8.76001e-06
-3.31274e-07
5.22512e-05
6.34998e-06
-6.2615e-07
4.92426e-05
4.53944e-06
-1.01194e-06
4.64185e-05
3.44963e-06
-1.49373e-06
4.35052e-05
2.93932e-06
-2.07998e-06
4.02219e-05
2.85615e-06
-2.78842e-06
3.63215e-05
3.04586e-06
-3.62221e-06
3.15718e-05
3.42128e-06
-4.60118e-06
2.58211e-05
3.83519e-06
-5.66496e-06
1.89316e-05
4.2733e-06
-6.79718e-06
1.1266e-05
4.20917e-06
-7.5751e-06
3.77278e-06
3.46613e-06
-7.40261e-06
1.73928e-07
-4.0313e-06
6.60808e-05
7.11334e-06
6.86687e-09
6.78913e-05
1.07858e-05
-2.14196e-08
6.81361e-05
1.11628e-05
-1.41043e-07
6.70956e-05
9.70382e-06
-3.59433e-07
6.53088e-05
7.88912e-06
-6.82524e-07
6.30598e-05
6.33462e-06
-1.10913e-06
6.04338e-05
5.35779e-06
-1.647e-06
5.73511e-05
4.97566e-06
-2.30789e-06
5.36293e-05
5.12557e-06
-3.11233e-06
4.90324e-05
5.69495e-06
-4.06867e-06
4.32755e-05
6.6225e-06
-5.19801e-06
3.61005e-05
7.74475e-06
-6.44531e-06
2.72397e-05
9.0435e-06
-7.77864e-06
1.69226e-05
9.73746e-06
-8.73654e-06
6.25277e-06
9.15109e-06
-8.5536e-06
3.60024e-06
-4.58854e-06
6.50197e-05
4.62243e-06
1.29233e-08
6.75742e-05
8.27386e-06
-1.20512e-08
6.9258e-05
9.4833e-06
-1.31167e-07
6.9745e-05
9.128e-06
-3.49272e-07
6.922e-05
8.17544e-06
-6.71148e-07
6.78757e-05
7.23496e-06
-1.09624e-06
6.58366e-05
6.68944e-06
-1.63339e-06
6.31005e-05
6.67556e-06
-2.29576e-06
5.9549e-05
7.23363e-06
-3.10433e-06
5.497e-05
8.33154e-06
-4.06976e-06
4.90588e-05
9.97876e-06
-5.21236e-06
4.14841e-05
1.20451e-05
-6.48292e-06
3.18543e-05
1.45621e-05
-7.84285e-06
2.02597e-05
1.65036e-05
-8.83562e-06
7.70501e-06
1.66756e-05
-8.64688e-06
8.47178e-06
-4.59034e-06
6.40896e-05
3.06561e-06
2.17992e-08
6.63289e-05
6.08551e-06
5.59796e-09
6.82654e-05
7.56342e-06
-1.05817e-07
6.93946e-05
7.92628e-06
-3.15414e-07
6.96295e-05
7.72341e-06
-6.25967e-07
6.90115e-05
7.43761e-06
-1.03599e-06
6.76044e-05
7.42707e-06
-1.5535e-06
6.54052e-05
7.88854e-06
-2.19117e-06
6.23189e-05
8.94207e-06
-2.96842e-06
5.81496e-05
1.06433e-05
-3.89626e-06
5.25867e-05
1.30962e-05
-4.99228e-06
4.52334e-05
1.62607e-05
-6.21344e-06
3.55567e-05
2.0297e-05
-7.51669e-06
2.33818e-05
2.40407e-05
-8.47452e-06
9.29394e-06
2.59355e-05
-8.27406e-06
1.50665e-05
-4.34889e-06
6.35493e-05
2.05344e-06
3.17564e-08
6.53662e-05
4.3295e-06
2.76497e-08
6.72074e-05
5.75436e-06
-7.14669e-08
6.85821e-05
6.50076e-06
-2.67729e-07
6.9267e-05
6.85048e-06
-5.62008e-07
6.91905e-05
7.13759e-06
-9.51168e-07
6.83457e-05
7.65431e-06
-1.4413e-06
6.67044e-05
8.61278e-06
-2.04338e-06
6.41753e-05
1.01854e-05
-2.774e-06
6.0569e-05
1.25137e-05
-3.64354e-06
5.55729e-05
1.58068e-05
-4.66554e-06
4.87236e-05
2.01763e-05
-5.80375e-06
3.93553e-05
2.59816e-05
-7.01093e-06
2.69422e-05
3.21133e-05
-7.90443e-06
1.14439e-05
3.69184e-05
-7.69831e-06
2.3993e-05
-4.02539e-06
6.33035e-05
1.29192e-06
4.27603e-08
6.48574e-05
2.84771e-06
5.2946e-08
6.66016e-05
4.06068e-06
-3.07292e-08
6.81058e-05
4.97179e-06
-2.10129e-07
6.91006e-05
5.70283e-06
-4.84515e-07
6.9458e-05
6.4507e-06
-8.48732e-07
6.91317e-05
7.42596e-06
-1.30613e-06
6.80861e-05
8.82552e-06
-1.86496e-06
6.62541e-05
1.0845e-05
-2.53787e-06
6.34869e-05
1.36971e-05
-3.33344e-06
5.95329e-05
1.76798e-05
-4.25954e-06
5.39303e-05
2.31138e-05
-5.28674e-06
4.5978e-05
3.06005e-05
-6.36275e-06
3.44793e-05
3.96864e-05
-7.16618e-06
1.81467e-05
4.91805e-05
-6.96566e-06
3.98567e-05
-3.67735e-06
6.32207e-05
5.41105e-08
6.18231e-07
6.46866e-05
7.96324e-08
1.4659e-06
6.64331e-05
1.30968e-08
2.38445e-06
6.80706e-05
-1.47315e-07
3.33801e-06
6.93203e-05
-3.99559e-07
4.3391e-06
7.00361e-05
-7.36468e-07
5.45711e-06
7.01616e-05
-1.15827e-06
6.81462e-06
6.96698e-05
-1.66998e-06
8.57659e-06
6.85241e-05
-2.27977e-06
1.09426e-05
6.66205e-05
-2.99367e-06
1.41838e-05
6.37775e-05
-3.81336e-06
1.86669e-05
5.95581e-05
-4.71543e-06
2.49645e-05
5.33285e-05
-5.64392e-06
3.38852e-05
4.33408e-05
-6.34672e-06
4.62091e-05
2.76296e-05
-6.17939e-06
6.13006e-05
-3.41139e-06
6.53858e-05
4.98557e-05
1.26485e-05
-9.40302e-10