/*--------------------------------*- C++ -*----------------------------------*\
| =========                 |                                                 |
| \\      /  F ield         | OpenFOAM: The Open Source CFD Toolbox           |
|  \\    /   O peration     | Version:  v1912                                 |
|   \\  /    A nd           | Website:  www.openfoam.com                      |
|    \\/     M anipulation  |                                                 |
\*---------------------------------------------------------------------------*/
FoamFile
{
    version     2.0;
    format      ascii;
    class       pointVectorField;
    location    "0.82/fluid";
    object      pointMotionU;
}
// * * * * * * * * * * * * * * * * * * * * * * * * * * * * * * * * * * * * * //

dimensions      [0 1 -1 0 0 0 0];


internalField   nonuniform List<vector> 
16859
(
(0 0 0)
(0 0 0)
(0 0 0)
(0 0 0)
(0 0 0)
(0 0 0)
(0 0 0)
(0 0 0)
(0 0 0)
(0 0 0)
(0 0 0)
(0 0 0)
(0 0 0)
(0 0 0)
(0 0 0)
(0 0 0)
(1.5331e-08 2.64985e-08 1.69678e-08)
(0 0 0)
(4.52697e-10 -1.06522e-09 8.38869e-10)
(8.65791e-10 -2.03745e-09 1.63518e-09)
(1.25705e-09 -2.95452e-09 2.44659e-09)
(1.64303e-09 -3.84388e-09 3.32436e-09)
(2.04021e-09 -4.72147e-09 4.31641e-09)
(2.46662e-09 -5.5895e-09 5.46942e-09)
(2.94423e-09 -6.43225e-09 6.83025e-09)
(3.50274e-09 -7.20809e-09 8.44669e-09)
(4.18629e-09 -7.83538e-09 1.03679e-08)
(5.06721e-09 -8.16713e-09 1.26466e-08)
(6.27423e-09 -7.94458e-09 1.53474e-08)
(8.05296e-09 -6.7051e-09 1.85798e-08)
(1.0877e-08 -3.60241e-09 2.25853e-08)
(1.55682e-08 2.86082e-09 2.79085e-08)
(2.23799e-08 1.36087e-08 3.47936e-08)
(3.22235e-08 3.46846e-08 4.25586e-08)
(0 0 0)
(8.93605e-10 -2.09914e-09 1.65586e-09)
(1.70856e-09 -4.01638e-09 3.22712e-09)
(2.47927e-09 -5.82749e-09 4.82693e-09)
(3.23764e-09 -7.58806e-09 6.55567e-09)
(4.01532e-09 -9.3323e-09 8.5072e-09)
(4.84655e-09 -1.10693e-08 1.07729e-08)
(5.77191e-09 -1.2776e-08 1.3444e-08)
(6.84405e-09 -1.43842e-08 1.66127e-08)
(8.1369e-09 -1.57588e-08 2.03713e-08)
(9.76207e-09 -1.66622e-08 2.48098e-08)
(1.18981e-08 -1.67008e-08 3.00159e-08)
(1.48406e-08 -1.5253e-08 3.60841e-08)
(1.90472e-08 -1.1426e-08 4.31327e-08)
(2.50258e-08 -4.26342e-09 5.12674e-08)
(3.20445e-08 5.3644e-09 5.96007e-08)
(4.36075e-08 1.93503e-08 7.22897e-08)
(0 0 0)
(1.31172e-09 -3.07088e-09 2.43081e-09)
(2.50679e-09 -5.87883e-09 4.73599e-09)
(3.63438e-09 -8.53758e-09 7.08018e-09)
(4.73974e-09 -1.11324e-08 9.60915e-09)
(5.86755e-09 -1.37196e-08 1.24591e-08)
(7.0652e-09 -1.63229e-08 1.57627e-08)
(8.38714e-09 -1.89256e-08 1.9652e-08)
(9.90038e-09 -2.1457e-08 2.42601e-08)
(1.1692e-08 -2.37698e-08 2.9718e-08)
(1.38794e-08 -2.56065e-08 3.61461e-08)
(1.66241e-08 -2.65568e-08 4.36395e-08)
(2.01455e-08 -2.6025e-08 5.22447e-08)
(2.47021e-08 -2.32836e-08 6.19167e-08)
(3.04302e-08 -1.78177e-08 7.24167e-08)
(3.63989e-08 -1.07922e-08 8.23725e-08)
(4.53744e-08 -1.15536e-09 9.55942e-08)
(0 0 0)
(1.69707e-09 -3.94886e-09 3.14519e-09)
(3.24102e-09 -7.56476e-09 6.1251e-09)
(4.69327e-09 -1.09989e-08 9.15014e-09)
(6.10991e-09 -1.43674e-08 1.24062e-08)
(7.54586e-09 -1.77525e-08 1.60665e-08)
(9.05835e-09 -2.12006e-08 2.02998e-08)
(1.07111e-08 -2.47159e-08 2.52742e-08)
(1.25787e-08 -2.82497e-08 3.11596e-08)
(1.47513e-08 -3.16823e-08 3.81234e-08)
(1.7336e-08 -3.47954e-08 4.63183e-08)
(2.04543e-08 -3.72388e-08 5.58567e-08)
(2.42238e-08 -3.85018e-08 6.67622e-08)
(2.86954e-08 -3.79375e-08 7.88721e-08)
(3.36933e-08 -3.49692e-08 9.16499e-08)
(3.82325e-08 -3.01277e-08 1.0314e-07)
(4.4692e-08 -2.1637e-08 1.16586e-07)
(0 0 0)
(2.0415e-09 -4.7019e-09 3.78351e-09)
(3.89543e-09 -9.01433e-09 7.36381e-09)
(5.63244e-09 -1.31241e-08 1.09899e-08)
(7.3167e-09 -1.71782e-08 1.48808e-08)
(9.01035e-09 -2.12871e-08 1.92404e-08)
(1.07771e-08 -2.55256e-08 2.42665e-08)
(1.26864e-08 -2.99301e-08 3.01566e-08)
(1.4817e-08 -3.44928e-08 3.71115e-08)
(1.72596e-08 -3.91512e-08 4.53326e-08)
(2.0115e-08 -4.37705e-08 5.50105e-08)
(2.34842e-08 -4.81179e-08 6.62998e-08)
(2.744e-08 -5.1821e-08 7.92649e-08)
(3.19487e-08 -5.4304e-08 9.37541e-08)
(3.67067e-08 -5.47299e-08 1.0912e-07)
(4.06741e-08 -5.25161e-08 1.22862e-07)
(4.59209e-08 -4.40448e-08 1.37793e-07)
(0 0 0)
(2.33903e-09 -5.30023e-09 4.33406e-09)
(4.4585e-09 -1.017e-08 8.42904e-09)
(6.43516e-09 -1.4828e-08 1.2564e-08)
(8.33812e-09 -1.94497e-08 1.69836e-08)
(1.02337e-08 -2.41735e-08 2.1914e-08)
(1.21889e-08 -2.91047e-08 2.75734e-08)
(1.42756e-08 -3.43163e-08 3.41799e-08)
(1.65746e-08 -3.98503e-08 4.1956e-08)
(1.91785e-08 -4.57159e-08 5.11294e-08)
(2.21921e-08 -5.18859e-08 6.19271e-08)
(2.573e-08 -5.82896e-08 7.45631e-08)
(2.99035e-08 -6.47864e-08 8.92037e-08)
(3.47693e-08 -7.10803e-08 1.05864e-07)
(4.01778e-08 -7.64919e-08 1.24093e-07)
(4.50831e-08 -7.95585e-08 1.41086e-07)
(5.18053e-08 -7.47849e-08 1.60181e-07)
(0 0 0)
(2.586e-09 -5.71694e-09 4.78943e-09)
(4.9235e-09 -1.09793e-08 9.30637e-09)
(7.09199e-09 -1.6032e-08 1.3851e-08)
(9.16241e-09 -2.10739e-08 1.86846e-08)
(1.12019e-08 -2.6268e-08 2.40467e-08)
(1.32777e-08 -3.17466e-08 3.01662e-08)
(1.54605e-08 -3.7617e-08 3.72702e-08)
(1.78297e-08 -4.39667e-08 4.55893e-08)
(2.04777e-08 -5.08702e-08 5.53611e-08)
(2.35145e-08 -5.83989e-08 6.68309e-08)
(2.70778e-08 -6.66373e-08 8.02537e-08)
(3.13456e-08 -7.57024e-08 9.58928e-08)
(3.65437e-08 -8.57439e-08 1.13984e-07)
(4.28757e-08 -9.68143e-08 1.34516e-07)
(4.95678e-08 -1.07541e-07 1.54897e-07)
(6.07353e-08 -1.19446e-07 1.80353e-07)
(0 0 0)
(2.78124e-09 -5.92959e-09 5.14681e-09)
(5.28877e-09 -1.13989e-08 9.9911e-09)
(7.60148e-09 -1.66704e-08 1.48447e-08)
(9.78899e-09 -2.19598e-08 1.99764e-08)
(1.19162e-08 -2.74474e-08 2.56298e-08)
(1.40468e-08 -3.32858e-08 3.20343e-08)
(1.62465e-08 -3.9607e-08 3.94128e-08)
(1.85879e-08 -4.65295e-08 4.79875e-08)
(2.11548e-08 -5.41681e-08 5.79823e-08)
(2.40484e-08 -6.26464e-08 6.96246e-08)
(2.73976e-08 -7.21177e-08 8.31484e-08)
(3.13742e-08 -8.27962e-08 9.88e-08)
(3.6198e-08 -9.49795e-08 1.16823e-07)
(4.20514e-08 -1.08986e-07 1.3733e-07)
(4.80233e-08 -1.23219e-07 1.57657e-07)
(6.43392e-08 -1.4745e-07 1.89786e-07)
(0 0 0)
(0 0 0)
(0 0 0)
(0 0 0)
(0 0 0)
(0 0 0)
(0 0 0)
(0 0 0)
(0 0 0)
(0 0 0)
(0 0 0)
(0 0 0)
(0 0 0)
(0 0 0)
(0 0 0)
(0 0 0)
(1.0193e-08 1.35805e-08 7.88394e-09)
(0 0 0)
(4.59922e-10 -1.09147e-09 8.12066e-10)
(8.79241e-10 -2.08793e-09 1.58172e-09)
(1.27575e-09 -3.02875e-09 2.36388e-09)
(1.66591e-09 -3.94279e-09 3.20713e-09)
(2.06582e-09 -4.84727e-09 4.15639e-09)
(2.49261e-09 -5.74568e-09 5.25462e-09)
(2.96659e-09 -6.6238e-09 6.54358e-09)
(3.5146e-09 -7.44247e-09 8.06376e-09)
(4.17626e-09 -8.12475e-09 9.85304e-09)
(5.01693e-09 -8.53368e-09 1.19446e-08)
(6.1558e-09 -8.43224e-09 1.43669e-08)
(7.82639e-09 -7.40714e-09 1.71527e-08)
(1.04876e-08 -4.72655e-09 2.03688e-08)
(1.49107e-08 8.0789e-10 2.41324e-08)
(2.13373e-08 9.81921e-09 2.81703e-08)
(2.83537e-08 2.08468e-08 2.94416e-08)
(0 0 0)
(9.07936e-10 -2.15075e-09 1.60294e-09)
(1.73528e-09 -4.11566e-09 3.12162e-09)
(2.51661e-09 -5.97359e-09 4.66388e-09)
(3.28365e-09 -7.78292e-09 6.32485e-09)
(4.06736e-09 -9.58028e-09 8.19256e-09)
(4.90029e-09 -1.13772e-08 1.03511e-08)
(5.81994e-09 -1.31532e-08 1.28821e-08)
(6.8736e-09 -1.48446e-08 1.58642e-08)
(8.12645e-09 -1.63244e-08 1.93689e-08)
(9.67633e-09 -1.73717e-08 2.34531e-08)
(1.16821e-08 -1.76295e-08 2.81458e-08)
(1.44142e-08 -1.65561e-08 3.34318e-08)
(1.83079e-08 -1.34301e-08 3.92198e-08)
(2.3865e-08 -7.65373e-09 4.5239e-08)
(3.06168e-08 -2.18941e-10 5.0594e-08)
(3.81786e-08 4.56712e-09 5.46808e-08)
(0 0 0)
(1.33301e-09 -3.14623e-09 2.35319e-09)
(2.54663e-09 -6.02386e-09 4.58137e-09)
(3.69037e-09 -8.75124e-09 6.8415e-09)
(4.80937e-09 -1.14176e-08 9.27181e-09)
(5.94742e-09 -1.40828e-08 1.20001e-08)
(7.14979e-09 -1.67738e-08 1.51485e-08)
(8.46684e-09 -1.94775e-08 1.8836e-08)
(9.95849e-09 -2.21285e-08 2.31769e-08)
(1.16998e-08 -2.45889e-08 2.82753e-08)
(1.37887e-08 -2.66201e-08 3.42101e-08)
(1.6357e-08 -2.78516e-08 4.1009e-08)
(1.95834e-08 -2.77736e-08 4.86037e-08)
(2.36847e-08 -2.58375e-08 5.67549e-08)
(2.87921e-08 -2.18773e-08 6.49147e-08)
(3.42885e-08 -1.71739e-08 7.18578e-08)
(3.96574e-08 -1.51028e-08 7.6451e-08)
(0 0 0)
(1.72512e-09 -4.04562e-09 3.04495e-09)
(3.29372e-09 -7.75114e-09 5.92563e-09)
(4.7678e-09 -1.12737e-08 8.84267e-09)
(6.20355e-09 -1.47346e-08 1.19724e-08)
(7.65502e-09 -1.82205e-08 1.54775e-08)
(9.17725e-09 -2.17816e-08 1.95137e-08)
(1.08296e-08 -2.54264e-08 2.4233e-08)
(1.26791e-08 -2.91114e-08 2.97832e-08)
(1.48022e-08 -3.27254e-08 3.63007e-08)
(1.72839e-08 -3.60661e-08 4.38926e-08)
(2.02095e-08 -3.88151e-08 5.26018e-08)
(2.3643e-08 -4.05271e-08 6.23414e-08)
(2.75704e-08 -4.06867e-08 7.27749e-08)
(3.17857e-08 -3.89696e-08 8.30933e-08)
(3.56107e-08 -3.60077e-08 9.15508e-08)
(3.90216e-08 -3.43663e-08 9.65115e-08)
(0 0 0)
(2.07603e-09 -4.81704e-09 3.66328e-09)
(3.96052e-09 -9.23628e-09 7.12482e-09)
(5.72507e-09 -1.34517e-08 1.06221e-08)
(7.43422e-09 -1.76163e-08 1.4363e-08)
(9.14956e-09 -2.18458e-08 1.8539e-08)
(1.0933e-08 -2.62196e-08 2.33332e-08)
(1.28502e-08 -3.07783e-08 2.8925e-08)
(1.49728e-08 -3.55189e-08 3.54907e-08)
(1.73793e-08 -4.03854e-08 4.31981e-08)
(2.01495e-08 -4.52537e-08 5.21903e-08)
(2.33502e-08 -4.99092e-08 6.25513e-08)
(2.70003e-08 -5.40117e-08 7.42379e-08)
(3.09947e-08 -5.70395e-08 8.69317e-08)
(3.49769e-08 -5.82479e-08 9.97182e-08)
(3.81654e-08 -5.70951e-08 1.10354e-07)
(4.03397e-08 -5.4772e-08 1.16588e-07)
(0 0 0)
(2.3796e-09 -5.43004e-09 4.19688e-09)
(4.53522e-09 -1.04204e-08 8.15664e-09)
(6.5449e-09 -1.51979e-08 1.21456e-08)
(8.47858e-09 -1.99449e-08 1.63958e-08)
(1.04025e-08 -2.48058e-08 2.11201e-08)
(1.23825e-08 -2.98906e-08 2.65209e-08)
(1.4488e-08 -3.52769e-08 3.27967e-08)
(1.67944e-08 -4.10107e-08 4.01443e-08)
(1.93854e-08 -4.7106e-08 4.87567e-08)
(2.23508e-08 -5.35418e-08 5.88121e-08)
(2.57816e-08 -6.02557e-08 7.04523e-08)
(2.97545e-08 -6.71168e-08 8.37326e-08)
(3.42861e-08 -7.38315e-08 9.84929e-08)
(3.92081e-08 -7.96817e-08 1.13983e-07)
(4.3723e-08 -8.31858e-08 1.27685e-07)
(4.678e-08 -8.18095e-08 1.37014e-07)
(0 0 0)
(2.632e-09 -5.85706e-09 4.63853e-09)
(5.01068e-09 -1.12498e-08 9.0071e-09)
(7.21724e-09 -1.64319e-08 1.33922e-08)
(9.32384e-09 -2.16101e-08 1.80419e-08)
(1.13982e-08 -2.69534e-08 2.31815e-08)
(1.35072e-08 -3.25995e-08 2.9024e-08)
(1.57204e-08 -3.86599e-08 3.57763e-08)
(1.81143e-08 -4.5226e-08 4.36431e-08)
(2.07762e-08 -5.23758e-08 5.28276e-08)
(2.38095e-08 -6.01844e-08 6.35265e-08)
(2.73423e-08 -6.87414e-08 7.59224e-08)
(3.15459e-08 -7.81712e-08 9.01649e-08)
(3.66603e-08 -8.86335e-08 1.06301e-07)
(4.2961e-08 -1.00158e-07 1.23973e-07)
(5.0018e-08 -1.11535e-07 1.40873e-07)
(5.73262e-08 -1.2161e-07 1.54283e-07)
(0 0 0)
(2.83187e-09 -6.07513e-09 4.98547e-09)
(5.38489e-09 -1.16801e-08 9.67155e-09)
(7.74002e-09 -1.70867e-08 1.43558e-08)
(9.96847e-09 -2.25187e-08 1.92938e-08)
(1.21363e-08 -2.81629e-08 2.47147e-08)
(1.43075e-08 -3.41773e-08 3.08319e-08)
(1.65481e-08 -4.06982e-08 3.7849e-08)
(1.89296e-08 -4.78474e-08 4.59632e-08)
(2.15347e-08 -5.5742e-08 5.53661e-08)
(2.44632e-08 -6.4507e-08 6.62398e-08)
(2.78446e-08 -7.42981e-08 7.87517e-08)
(3.18582e-08 -8.53323e-08 9.30434e-08)
(3.6752e-08 -9.79113e-08 1.09181e-07)
(4.27835e-08 -1.12319e-07 1.2694e-07)
(4.92658e-08 -1.271e-07 1.43903e-07)
(6.03087e-08 -1.47568e-07 1.6294e-07)
(0 0 0)
(0 0 0)
(0 0 0)
(0 0 0)
(0 0 0)
(0 0 0)
(0 0 0)
(0 0 0)
(0 0 0)
(0 0 0)
(0 0 0)
(0 0 0)
(0 0 0)
(0 0 0)
(0 0 0)
(0 0 0)
(6.11411e-09 6.59588e-09 2.87394e-09)
(0 0 0)
(4.64955e-10 -1.11489e-09 7.55753e-10)
(8.88319e-10 -2.13316e-09 1.47109e-09)
(1.28746e-09 -3.09549e-09 2.19622e-09)
(1.67812e-09 -4.03192e-09 2.97514e-09)
(2.07521e-09 -4.96104e-09 3.84793e-09)
(2.4938e-09 -5.88809e-09 4.8518e-09)
(2.95053e-09 -6.80178e-09 6.02106e-09)
(3.46582e-09 -7.66842e-09 7.38561e-09)
(4.06767e-09 -8.42259e-09 8.96688e-09)
(4.79983e-09 -8.95255e-09 1.07698e-08)
(5.73902e-09 -9.07854e-09 1.27687e-08)
(7.02846e-09 -8.52172e-09 1.48817e-08)
(8.9257e-09 -6.8703e-09 1.69215e-08)
(1.1778e-08 -3.63475e-09 1.84854e-08)
(1.54094e-08 9.99621e-10 1.88442e-08)
(1.78258e-08 5.90994e-09 1.46498e-08)
(0 0 0)
(9.17998e-10 -2.19673e-09 1.4918e-09)
(1.75348e-09 -4.20442e-09 2.90333e-09)
(2.54027e-09 -6.10452e-09 4.33319e-09)
(3.30884e-09 -7.95775e-09 5.86766e-09)
(4.08792e-09 -9.80324e-09 7.58525e-09)
(4.9062e-09 -1.16556e-08 9.55889e-09)
(5.79445e-09 -1.34993e-08 1.18559e-08)
(6.78821e-09 -1.52797e-08 1.4535e-08)
(7.93184e-09 -1.68885e-08 1.76376e-08)
(9.28563e-09 -1.81445e-08 2.11713e-08)
(1.09388e-08 -1.87758e-08 2.50777e-08)
(1.30266e-08 -1.84235e-08 2.91747e-08)
(1.57262e-08 -1.67348e-08 3.30508e-08)
(1.91061e-08 -1.37219e-08 3.59003e-08)
(2.25138e-08 -1.05859e-08 3.66236e-08)
(2.46063e-08 -1.06382e-08 3.3307e-08)
(0 0 0)
(1.34816e-09 -3.2132e-09 2.19013e-09)
(2.57417e-09 -6.15311e-09 4.26123e-09)
(3.72664e-09 -8.94183e-09 6.35689e-09)
(4.8491e-09 -1.1672e-08 8.60252e-09)
(5.98239e-09 -1.44066e-08 1.11122e-08)
(7.16668e-09 -1.71765e-08 1.39921e-08)
(8.44353e-09 -1.99743e-08 1.73409e-08)
(9.85759e-09 -2.27444e-08 2.12454e-08)
(1.14573e-08 -2.53687e-08 2.5769e-08)
(1.3294e-08 -2.76497e-08 3.09276e-08)
(1.54163e-08 -2.9302e-08 3.66446e-08)
(1.78524e-08 -2.99888e-08 4.26709e-08)
(2.05564e-08 -2.94835e-08 4.84539e-08)
(2.32696e-08 -2.80867e-08 5.29784e-08)
(2.53016e-08 -2.70957e-08 5.49545e-08)
(2.52485e-08 -2.87766e-08 5.24042e-08)
(0 0 0)
(1.74543e-09 -4.13136e-09 2.83421e-09)
(3.33089e-09 -7.91656e-09 5.51209e-09)
(4.81749e-09 -1.15176e-08 8.2173e-09)
(6.25968e-09 -1.50597e-08 1.11098e-08)
(7.70829e-09 -1.86335e-08 1.43351e-08)
(9.21271e-09 -2.22929e-08 1.80289e-08)
(1.08226e-08 -2.60514e-08 2.23181e-08)
(1.25882e-08 -2.98738e-08 2.73165e-08)
(1.45573e-08 -3.36643e-08 3.31121e-08)
(1.67652e-08 -3.72522e-08 3.97388e-08)
(1.92105e-08 -4.03839e-08 4.71247e-08)
(2.18051e-08 -4.27446e-08 5.49971e-08)
(2.42791e-08 -4.40653e-08 6.2724e-08)
(2.60691e-08 -4.44022e-08 6.91084e-08)
(2.64799e-08 -4.44843e-08 7.25035e-08)
(2.44242e-08 -4.61283e-08 7.06228e-08)
(0 0 0)
(2.10151e-09 -4.9187e-09 3.41016e-09)
(4.00748e-09 -9.43241e-09 6.62849e-09)
(5.7888e-09 -1.37407e-08 9.87239e-09)
(7.50842e-09 -1.80013e-08 1.33307e-08)
(9.22479e-09 -2.23338e-08 1.71748e-08)
(1.09943e-08 -2.68209e-08 2.15646e-08)
(1.28731e-08 -3.15067e-08 2.66506e-08)
(1.49167e-08 -3.63931e-08 3.25705e-08)
(1.71758e-08 -4.14319e-08 3.94371e-08)
(1.9683e-08 -4.65146e-08 4.7311e-08)
(2.24225e-08 -5.14587e-08 5.61479e-08)
(2.52672e-08 -5.59916e-08 6.56993e-08)
(2.78632e-08 -5.97329e-08 7.53282e-08)
(2.94943e-08 -6.22115e-08 8.3726e-08)
(2.93319e-08 -6.31299e-08 8.88462e-08)
(2.59145e-08 -6.35067e-08 8.79425e-08)
(0 0 0)
(2.41013e-09 -5.54423e-09 3.90747e-09)
(4.59187e-09 -1.06407e-08 7.58966e-09)
(6.62287e-09 -1.55225e-08 1.12905e-08)
(8.57179e-09 -2.0377e-08 1.52209e-08)
(1.05021e-08 -2.53525e-08 1.95714e-08)
(1.2475e-08 -3.05616e-08 2.45193e-08)
(1.45512e-08 -3.60836e-08 3.02318e-08)
(1.67923e-08 -4.19652e-08 3.6864e-08)
(1.92576e-08 -4.82199e-08 4.45486e-08)
(2.19963e-08 -5.48252e-08 5.3373e-08)
(2.50272e-08 -6.17158e-08 6.33326e-08)
(2.82963e-08 -6.87574e-08 7.42378e-08)
(3.1587e-08 -7.56592e-08 8.55218e-08)
(3.4366e-08 -8.17546e-08 9.58796e-08)
(3.57274e-08 -8.57404e-08 1.02922e-07)
(3.33374e-08 -8.53116e-08 1.03564e-07)
(0 0 0)
(2.66728e-09 -5.9799e-09 4.31938e-09)
(5.07656e-09 -1.14868e-08 8.38253e-09)
(7.30901e-09 -1.67812e-08 1.24519e-08)
(9.43596e-09 -2.2075e-08 1.67531e-08)
(1.1523e-08 -2.75408e-08 2.14883e-08)
(1.36332e-08 -3.33185e-08 2.68441e-08)
(1.58293e-08 -3.95196e-08 3.29953e-08)
(1.81766e-08 -4.62326e-08 4.01039e-08)
(2.07434e-08 -5.3528e-08 4.83109e-08)
(2.36003e-08 -6.1466e-08 5.77177e-08)
(2.6818e-08 -7.01061e-08 6.83479e-08)
(3.04594e-08 -7.95127e-08 8.00683e-08)
(3.45574e-08 -8.9723e-08 9.24097e-08)
(3.90221e-08 -1.00546e-07 1.04166e-07)
(4.32056e-08 -1.10632e-07 1.12744e-07)
(4.61774e-08 -1.18551e-07 1.14341e-07)
(0 0 0)
(2.87143e-09 -6.20231e-09 4.64329e-09)
(5.45915e-09 -1.19256e-08 9.00268e-09)
(7.84446e-09 -1.74487e-08 1.33509e-08)
(1.00982e-08 -2.30006e-08 1.79204e-08)
(1.22851e-08 -2.87718e-08 2.29172e-08)
(1.44663e-08 -3.49217e-08 2.85287e-08)
(1.67027e-08 -4.15854e-08 3.4927e-08)
(1.90578e-08 -4.88797e-08 4.22683e-08)
(2.15999e-08 -5.691e-08 5.0685e-08)
(2.44052e-08 -6.57791e-08 6.02687e-08)
(2.75608e-08 -7.56e-08 7.10366e-08)
(3.11645e-08 -8.6507e-08 8.28621e-08)
(3.53063e-08 -9.86406e-08 9.53213e-08)
(3.99583e-08 -1.11994e-07 1.0737e-07)
(4.43025e-08 -1.24953e-07 1.16451e-07)
(5.07188e-08 -1.41657e-07 1.18262e-07)
(0 0 0)
(0 0 0)
(0 0 0)
(0 0 0)
(0 0 0)
(0 0 0)
(0 0 0)
(0 0 0)
(0 0 0)
(0 0 0)
(0 0 0)
(0 0 0)
(0 0 0)
(0 0 0)
(0 0 0)
(0 0 0)
(3.34513e-09 3.10329e-09 1.65417e-09)
(0 0 0)
(4.67999e-10 -1.13506e-09 6.7274e-10)
(8.93406e-10 -2.17213e-09 1.30874e-09)
(1.29289e-09 -3.15304e-09 1.95187e-09)
(1.68112e-09 -4.1089e-09 2.64018e-09)
(2.07133e-09 -5.05954e-09 3.40761e-09)
(2.4758e-09 -6.01208e-09 4.28449e-09)
(2.90651e-09 -6.9585e-09 5.29686e-09)
(3.37589e-09 -7.87144e-09 6.46375e-09)
(3.89794e-09 -8.69832e-09 7.79134e-09)
(4.49115e-09 -9.35397e-09 9.26179e-09)
(5.18509e-09 -9.71339e-09 1.08134e-08)
(6.03257e-09 -9.60861e-09 1.23065e-08)
(7.1206e-09 -8.8374e-09 1.34692e-08)
(8.531e-09 -7.2173e-09 1.38396e-08)
(1.00527e-08 -4.90234e-09 1.29517e-08)
(1.05028e-08 -1.54406e-09 9.74921e-09)
(0 0 0)
(9.24203e-10 -2.23628e-09 1.32799e-09)
(1.76395e-09 -4.28083e-09 2.58301e-09)
(2.55177e-09 -6.21725e-09 3.85128e-09)
(3.31615e-09 -8.1083e-09 5.2074e-09)
(4.0827e-09 -9.99535e-09 6.71791e-09)
(4.87495e-09 -1.18962e-08 8.44239e-09)
(5.71512e-09 -1.38007e-08 1.04322e-08)
(6.62432e-09 -1.56645e-08 1.27251e-08)
(7.62218e-09 -1.73995e-08 1.53346e-08)
(8.72615e-09 -1.88657e-08 1.82277e-08)
(9.95023e-09 -1.98707e-08 2.12879e-08)
(1.12998e-08 -2.02011e-08 2.42532e-08)
(1.27454e-08 -1.97275e-08 2.66279e-08)
(1.41338e-08 -1.86437e-08 2.76373e-08)
(1.50422e-08 -1.77274e-08 2.66902e-08)
(1.51067e-08 -1.84744e-08 2.41737e-08)
(0 0 0)
(1.35776e-09 -3.27072e-09 1.94979e-09)
(2.59062e-09 -6.26414e-09 3.79141e-09)
(3.74544e-09 -9.10542e-09 5.65045e-09)
(4.86316e-09 -1.18899e-08 7.63544e-09)
(5.98042e-09 -1.46835e-08 9.84313e-09)
(7.13062e-09 -1.75206e-08 1.23605e-08)
(8.34411e-09 -2.03995e-08 1.52633e-08)
(9.647e-09 -2.32754e-08 1.8609e-08)
(1.10568e-08 -2.60508e-08 2.24219e-08)
(1.25732e-08 -2.85688e-08 2.66649e-08)
(1.41593e-08 -3.06204e-08 3.11904e-08)
(1.57075e-08 -3.1999e-08 3.56656e-08)
(1.69821e-08 -3.26547e-08 3.94818e-08)
(1.75751e-08 -3.29723e-08 4.17473e-08)
(1.71354e-08 -3.37838e-08 4.18241e-08)
(1.54337e-08 -3.60308e-08 4.02746e-08)
(0 0 0)
(1.75873e-09 -4.20483e-09 2.52345e-09)
(3.35405e-09 -8.05825e-09 4.90494e-09)
(4.84512e-09 -1.1726e-08 7.3051e-09)
(6.28348e-09 -1.53366e-08 9.86249e-09)
(7.71526e-09 -1.89833e-08 1.27006e-08)
(9.18221e-09 -2.27235e-08 1.5931e-08)
(1.07216e-08 -2.65749e-08 1.96517e-08)
(1.23634e-08 -3.05101e-08 2.39399e-08)
(1.41225e-08 -3.44478e-08 2.88352e-08)
(1.59806e-08 -3.82457e-08 3.43072e-08)
(1.78519e-08 -4.17032e-08 4.02015e-08)
(1.95194e-08 -4.45956e-08 4.61576e-08)
(2.05481e-08 -4.67752e-08 5.15101e-08)
(2.02706e-08 -4.83584e-08 5.52732e-08)
(1.83546e-08 -4.97583e-08 5.66124e-08)
(1.48822e-08 -5.1814e-08 5.60031e-08)
(0 0 0)
(2.11876e-09 -5.00556e-09 3.03667e-09)
(4.03802e-09 -9.59977e-09 5.89924e-09)
(5.82675e-09 -1.39865e-08 8.77794e-09)
(7.54495e-09 -1.83268e-08 1.18364e-08)
(9.24636e-09 -2.27429e-08 1.52204e-08)
(1.09797e-08 -2.73195e-08 1.90615e-08)
(1.27888e-08 -3.21027e-08 2.34769e-08)
(1.47092e-08 -3.70966e-08 2.85614e-08)
(1.67601e-08 -4.22573e-08 3.4371e-08)
(1.89234e-08 -4.74853e-08 4.089e-08)
(2.11046e-08 -5.2616e-08 4.79744e-08)
(2.30589e-08 -5.74085e-08 5.52644e-08)
(2.42813e-08 -6.15291e-08 6.20696e-08)
(2.39614e-08 -6.45399e-08 6.73134e-08)
(2.16055e-08 -6.60252e-08 6.99108e-08)
(1.68796e-08 -6.63254e-08 7.02091e-08)
(0 0 0)
(2.43146e-09 -5.64148e-09 3.48007e-09)
(4.63023e-09 -1.08279e-08 6.75584e-09)
(6.67223e-09 -1.57971e-08 1.00408e-08)
(8.62343e-09 -2.07398e-08 1.35179e-08)
(1.05429e-08 -2.58062e-08 1.73493e-08)
(1.24848e-08 -3.11097e-08 2.16815e-08)
(1.44986e-08 -3.67284e-08 2.66448e-08)
(1.66278e-08 -4.27054e-08 3.23472e-08)
(1.89036e-08 -4.90472e-08 3.88578e-08)
(2.13303e-08 -5.5719e-08 4.61757e-08)
(2.38572e-08 -6.26343e-08 5.4173e-08)
(2.63233e-08 -6.96219e-08 6.25026e-08)
(2.83698e-08 -7.63322e-08 7.04618e-08)
(2.93625e-08 -8.20272e-08 7.68757e-08)
(2.86935e-08 -8.54116e-08 8.03935e-08)
(2.50777e-08 -8.39118e-08 8.13936e-08)
(0 0 0)
(2.69269e-09 -6.08417e-09 3.84761e-09)
(5.12285e-09 -1.16875e-08 7.46303e-09)
(7.37027e-09 -1.70753e-08 1.10761e-08)
(9.50403e-09 -2.24627e-08 1.48826e-08)
(1.1586e-08 -2.8024e-08 1.90549e-08)
(1.3673e-08 -3.38981e-08 2.37475e-08)
(1.58184e-08 -4.0193e-08 2.90969e-08)
(1.8072e-08 -4.69882e-08 3.52163e-08)
(2.04786e-08 -5.43383e-08 4.21798e-08)
(2.30715e-08 -6.2274e-08 4.99929e-08)
(2.58619e-08 -7.08024e-08 5.85373e-08)
(2.88185e-08 -7.98938e-08 6.74749e-08)
(3.18386e-08 -8.94253e-08 7.60877e-08)
(3.47107e-08 -9.89867e-08 8.30793e-08)
(3.7019e-08 -1.07229e-07 8.67572e-08)
(3.89209e-08 -1.12432e-07 8.71237e-08)
(0 0 0)
(2.9007e-09 -6.30997e-09 4.1369e-09)
(5.51306e-09 -1.21329e-08 8.01675e-09)
(7.91738e-09 -1.77523e-08 1.18785e-08)
(1.01828e-08 -2.34004e-08 1.59242e-08)
(1.2371e-08 -2.92689e-08 2.03297e-08)
(1.45382e-08 -3.55156e-08 2.52504e-08)
(1.67376e-08 -4.22698e-08 3.08211e-08)
(1.90205e-08 -4.96366e-08 3.71506e-08)
(2.14365e-08 -5.77e-08 4.4307e-08)
(2.40324e-08 -6.65253e-08 5.2289e-08)
(2.68482e-08 -7.61597e-08 6.09744e-08)
(2.99053e-08 -8.66255e-08 7.00281e-08)
(3.31822e-08 -9.78821e-08 7.87504e-08)
(3.65395e-08 -1.09688e-07 8.58911e-08)
(3.9365e-08 -1.20523e-07 8.96845e-08)
(4.39378e-08 -1.33706e-07 8.76774e-08)
(0 0 0)
(0 0 0)
(0 0 0)
(0 0 0)
(0 0 0)
(0 0 0)
(0 0 0)
(0 0 0)
(0 0 0)
(0 0 0)
(0 0 0)
(0 0 0)
(0 0 0)
(0 0 0)
(0 0 0)
(0 0 0)
(2.05844e-09 1.61614e-09 1.62357e-09)
(0 0 0)
(4.69462e-10 -1.15167e-09 5.66616e-10)
(8.95393e-10 -2.20423e-09 1.10171e-09)
(1.29363e-09 -3.20045e-09 1.64159e-09)
(1.67766e-09 -4.17232e-09 2.21741e-09)
(2.05886e-09 -5.14069e-09 2.85627e-09)
(2.44663e-09 -6.11425e-09 3.58145e-09)
(2.84842e-09 -7.08777e-09 4.41125e-09)
(3.26932e-09 -8.03916e-09 5.35599e-09)
(3.71145e-09 -8.92582e-09 6.41207e-09)
(4.17398e-09 -9.68117e-09 7.55168e-09)
(4.65532e-09 -1.02134e-08 8.70675e-09)
(5.15977e-09 -1.04085e-08 9.74742e-09)
(5.70869e-09 -1.0134e-08 1.0463e-08)
(6.33818e-09 -9.23916e-09 1.05859e-08)
(6.98813e-09 -7.68406e-09 1.00064e-08)
(7.13966e-09 -4.54499e-09 8.38972e-09)
(0 0 0)
(9.27332e-10 -2.26887e-09 1.11857e-09)
(1.7684e-09 -4.34376e-09 2.17454e-09)
(2.55414e-09 -6.31003e-09 3.23929e-09)
(3.31082e-09 -8.23204e-09 4.37389e-09)
(4.06062e-09 -1.01529e-08 5.63154e-09)
(4.82178e-09 -1.20931e-08 7.05802e-09)
(5.60819e-09 -1.4047e-08 8.68962e-09)
(6.42781e-09 -1.59784e-08 1.05474e-08)
(7.27952e-09 -1.78147e-08 1.26261e-08)
(8.14872e-09 -1.94436e-08 1.48747e-08)
(9.00202e-09 -2.07192e-08 1.7168e-08)
(9.78215e-09 -2.14929e-08 1.92686e-08)
(1.04055e-08 -2.16863e-08 2.08018e-08)
(1.07683e-08 -2.14126e-08 2.13222e-08)
(1.08047e-08 -2.10538e-08 2.07277e-08)
(1.08788e-08 -2.14397e-08 1.98281e-08)
(0 0 0)
(1.36292e-09 -3.31808e-09 1.64245e-09)
(2.59834e-09 -6.35546e-09 3.19215e-09)
(3.751e-09 -9.2397e-09 4.75307e-09)
(4.8588e-09 -1.20682e-08 6.41407e-09)
(5.95387e-09 -1.49091e-08 8.25262e-09)
(7.0626e-09 -1.77993e-08 1.03358e-08)
(8.20449e-09 -2.07419e-08 1.27174e-08)
(9.38884e-09 -2.36997e-08 1.54307e-08)
(1.06077e-08 -2.65902e-08 1.84733e-08)
(1.18235e-08 -2.92817e-08 2.17825e-08)
(1.29493e-08 -3.1606e-08 2.5199e-08)
(1.3823e-08 -3.34058e-08 2.84261e-08)
(1.41913e-08 -3.46491e-08 3.10151e-08)
(1.3777e-08 -3.55978e-08 3.24774e-08)
(1.2652e-08 -3.67257e-08 3.27231e-08)
(1.13466e-08 -3.86039e-08 3.26465e-08)
(0 0 0)
(1.76634e-09 -4.26519e-09 2.12594e-09)
(3.36604e-09 -8.17447e-09 4.1302e-09)
(4.85578e-09 -1.18964e-08 6.1458e-09)
(6.28368e-09 -1.55617e-08 8.28622e-09)
(7.6907e-09 -1.92658e-08 1.06505e-08)
(9.11072e-09 -2.30678e-08 1.33249e-08)
(1.05689e-08 -2.69884e-08 1.63796e-08)
(1.20772e-08 -3.10044e-08 1.98607e-08)
(1.36237e-08 -3.50429e-08 2.3773e-08)
(1.51534e-08 -3.89759e-08 2.80523e-08)
(1.6535e-08 -4.26242e-08 3.25259e-08)
(1.75121e-08 -4.5785e-08 3.687e-08)
(1.76639e-08 -4.83036e-08 4.06009e-08)
(1.65007e-08 -5.0194e-08 4.3194e-08)
(1.41166e-08 -5.16456e-08 4.44532e-08)
(1.13017e-08 -5.32983e-08 4.52042e-08)
(0 0 0)
(2.12924e-09 -5.07675e-09 2.55869e-09)
(4.05526e-09 -9.73661e-09 4.96822e-09)
(5.84448e-09 -1.41865e-08 7.38616e-09)
(7.55337e-09 -1.85898e-08 9.94663e-09)
(9.23039e-09 -2.307e-08 1.27667e-08)
(1.09163e-08 -2.77124e-08 1.59482e-08)
(1.26428e-08 -3.25629e-08 1.95757e-08)
(1.44278e-08 -3.76245e-08 2.3707e-08)
(1.6265e-08 -4.28516e-08 2.83556e-08)
(1.81029e-08 -4.81419e-08 3.34617e-08)
(1.98084e-08 -5.33252e-08 3.88492e-08)
(2.1109e-08 -5.81463e-08 4.41799e-08)
(2.15306e-08 -6.22356e-08 4.89392e-08)
(2.04533e-08 -6.50825e-08 5.25434e-08)
(1.7787e-08 -6.62119e-08 5.46657e-08)
(1.38765e-08 -6.59321e-08 5.61081e-08)
(0 0 0)
(2.44512e-09 -5.72094e-09 2.93278e-09)
(4.65352e-09 -1.09805e-08 5.69062e-09)
(6.69868e-09 -1.60195e-08 8.45042e-09)
(8.64323e-09 -2.10308e-08 1.13622e-08)
(1.05413e-08 -2.61653e-08 1.45565e-08)
(1.24394e-08 -3.15352e-08 1.81469e-08)
(1.4376e-08 -3.72149e-08 2.22277e-08)
(1.63783e-08 -4.32404e-08 2.68652e-08)
(1.84549e-08 -4.96057e-08 3.20799e-08)
(2.05812e-08 -5.62552e-08 3.78157e-08)
(2.26736e-08 -6.30671e-08 4.3894e-08)
(2.45496e-08 -6.98142e-08 4.99586e-08)
(2.58823e-08 -7.60672e-08 5.54427e-08)
(2.62143e-08 -8.10151e-08 5.96516e-08)
(2.5309e-08 -8.34591e-08 6.21234e-08)
(2.25472e-08 -8.11312e-08 6.38436e-08)
(0 0 0)
(2.70968e-09 -6.16912e-09 3.24308e-09)
(5.15265e-09 -1.18505e-08 6.28746e-09)
(7.40652e-09 -1.73124e-08 9.3237e-09)
(9.5374e-09 -2.27719e-08 1.25125e-08)
(1.16027e-08 -2.84031e-08 1.59928e-08)
(1.36528e-08 -3.43422e-08 1.98846e-08)
(1.5731e-08 -4.06905e-08 2.4287e-08)
(1.78734e-08 -4.75156e-08 2.92692e-08)
(2.01054e-08 -5.48506e-08 3.48534e-08)
(2.24359e-08 -6.26911e-08 4.09827e-08)
(2.48481e-08 -7.09862e-08 4.74719e-08)
(2.72898e-08 -7.96164e-08 5.39407e-08)
(2.96788e-08 -8.83367e-08 5.9747e-08)
(3.19413e-08 -9.66353e-08 6.40134e-08)
(3.39815e-08 -1.0335e-07 6.6042e-08)
(3.65867e-08 -1.07208e-07 6.68652e-08)
(0 0 0)
(2.92102e-09 -6.39743e-09 3.48751e-09)
(5.54944e-09 -1.23006e-08 6.75523e-09)
(7.96381e-09 -1.79961e-08 1.00014e-08)
(1.02308e-08 -2.37176e-08 1.3392e-08)
(1.24082e-08 -2.96561e-08 1.70691e-08)
(1.4547e-08 -3.59656e-08 2.11537e-08)
(1.66921e-08 -4.27672e-08 2.57436e-08)
(1.88833e-08 -5.01507e-08 3.0905e-08)
(2.11545e-08 -5.81743e-08 3.66553e-08)
(2.35327e-08 -6.68612e-08 4.29318e-08)
(2.60342e-08 -7.61933e-08 4.95422e-08)
(2.86606e-08 -8.60957e-08 5.60945e-08)
(3.13965e-08 -9.64062e-08 6.19195e-08)
(3.41913e-08 -1.06799e-07 6.60752e-08)
(3.66795e-08 -1.16021e-07 6.77256e-08)
(4.1558e-08 -1.27605e-07 6.60674e-08)
(0 0 0)
(0 0 0)
(0 0 0)
(0 0 0)
(0 0 0)
(0 0 0)
(0 0 0)
(0 0 0)
(0 0 0)
(0 0 0)
(0 0 0)
(0 0 0)
(0 0 0)
(0 0 0)
(0 0 0)
(0 0 0)
(1.56559e-09 1.09865e-09 1.49174e-09)
(0 0 0)
(4.6984e-10 -1.16456e-09 4.41586e-10)
(8.95338e-10 -2.22912e-09 8.58211e-10)
(1.29155e-09 -3.23722e-09 1.27778e-09)
(1.67085e-09 -4.22151e-09 1.72395e-09)
(2.04287e-09 -5.20349e-09 2.21682e-09)
(2.41457e-09 -6.19296e-09 2.77298e-09)
(2.78972e-09 -7.1866e-09 3.40438e-09)
(3.16804e-09 -8.16572e-09 4.11567e-09)
(3.54395e-09 -9.09347e-09 4.89945e-09)
(3.90629e-09 -9.91253e-09 5.72903e-09)
(4.24111e-09 -1.05442e-08 6.54921e-09)
(4.54189e-09 -1.08876e-08 7.26861e-09)
(4.83186e-09 -1.08102e-08 7.76426e-09)
(5.1876e-09 -1.01198e-08 7.92535e-09)
(5.65784e-09 -8.67442e-09 7.76491e-09)
(5.91144e-09 -5.42424e-09 6.95698e-09)
(0 0 0)
(9.28335e-10 -2.29419e-09 8.71793e-10)
(1.76886e-09 -4.39263e-09 1.69405e-09)
(2.55096e-09 -6.38201e-09 2.5216e-09)
(3.29879e-09 -8.32784e-09 3.4008e-09)
(4.03141e-09 -1.02745e-08 4.37116e-09)
(4.76247e-09 -1.2244e-08 5.4654e-09)
(5.49921e-09 -1.42339e-08 6.7073e-09)
(6.23996e-09 -1.62129e-08 8.10672e-09)
(6.97046e-09 -1.81169e-08 9.65073e-09)
(7.65977e-09 -1.98465e-08 1.12903e-08)
(8.25832e-09 -2.12716e-08 1.29236e-08)
(8.70449e-09 -2.22518e-08 1.43831e-08)
(8.95041e-09 -2.26803e-08 1.54449e-08)
(9.01687e-09 -2.25554e-08 1.59077e-08)
(9.03569e-09 -2.20889e-08 1.58035e-08)
(9.49419e-09 -2.19882e-08 1.55826e-08)
(0 0 0)
(1.36496e-09 -3.35488e-09 1.28021e-09)
(2.60021e-09 -6.42635e-09 2.48706e-09)
(3.74833e-09 -9.34371e-09 3.70039e-09)
(4.84437e-09 -1.22058e-08 4.98766e-09)
(5.91633e-09 -1.5082e-08 6.40651e-09)
(6.98455e-09 -1.80111e-08 8.00493e-09)
(8.05988e-09 -2.09984e-08 9.81851e-09)
(9.13949e-09 -2.40114e-08 1.18637e-08)
(1.01997e-08 -2.6974e-08 1.41261e-08)
(1.11855e-08 -2.97643e-08 1.65434e-08)
(1.19976e-08 -3.2223e-08 1.8985e-08)
(1.24858e-08 -3.41883e-08 2.12406e-08)
(1.24713e-08 -3.55786e-08 2.30435e-08)
(1.1861e-08 -3.65251e-08 2.41809e-08)
(1.09339e-08 -3.73729e-08 2.4696e-08)
(1.02798e-08 -3.8709e-08 2.50301e-08)
(0 0 0)
(1.7699e-09 -4.31206e-09 1.65727e-09)
(3.37037e-09 -8.26456e-09 3.21833e-09)
(4.8556e-09 -1.2028e-08 4.78531e-09)
(6.27038e-09 -1.57346e-08 6.44443e-09)
(7.651e-09 -1.94807e-08 8.26946e-09)
(9.02456e-09 -2.33264e-08 1.03222e-08)
(1.04067e-08 -2.72931e-08 1.26495e-08)
(1.17962e-08 -3.13586e-08 1.52752e-08)
(1.31655e-08 -3.54515e-08 1.8187e-08)
(1.44442e-08 -3.94443e-08 2.13169e-08)
(1.54957e-08 -4.31544e-08 2.45197e-08)
(1.6092e-08 -4.63599e-08 2.75626e-08)
(1.59156e-08 -4.88521e-08 3.01578e-08)
(1.46926e-08 -5.05447e-08 3.2079e-08)
(1.2704e-08 -5.15839e-08 3.3302e-08)
(1.07266e-08 -5.26899e-08 3.41996e-08)
(0 0 0)
(2.13476e-09 -5.13192e-09 1.9949e-09)
(4.06311e-09 -9.84239e-09 3.8719e-09)
(5.8488e-09 -1.43404e-08 5.752e-09)
(7.54488e-09 -1.87904e-08 7.73715e-09)
(9.19497e-09 -2.33166e-08 9.91461e-09)
(1.08329e-08 -2.80036e-08 1.23578e-08)
(1.24808e-08 -3.28953e-08 1.51229e-08)
(1.41441e-08 -3.79909e-08 1.82409e-08)
(1.5802e-08 -4.32384e-08 2.17029e-08)
(1.73909e-08 -4.85244e-08 2.54391e-08)
(1.87786e-08 -5.36588e-08 2.92941e-08)
(1.9731e-08 -5.83527e-08 3.30156e-08)
(1.98912e-08 -6.21839e-08 3.62878e-08)
(1.88627e-08 -6.45908e-08 3.88486e-08)
(1.67201e-08 -6.516e-08 4.06091e-08)