/*--------------------------------*- C++ -*----------------------------------*\
| =========                 |                                                 |
| \\      /  F ield         | OpenFOAM: The Open Source CFD Toolbox           |
|  \\    /   O peration     | Version:  v1912                                 |
|   \\  /    A nd           | Website:  www.openfoam.com                      |
|    \\/     M anipulation  |                                                 |
\*---------------------------------------------------------------------------*/
FoamFile
{
    version     2.0;
    format      ascii;
    class       volVectorField;
    location    "0.38/fluid";
    object      cellMotionU;
}
// * * * * * * * * * * * * * * * * * * * * * * * * * * * * * * * * * * * * * //

dimensions      [0 1 -1 0 0 0 0];


internalField   nonuniform List<vector> 
14592
(
(1.83438e-10 -4.40134e-10 3.31922e-10)
(5.11205e-10 -1.2307e-09 9.38913e-10)
(8.12207e-10 -1.96611e-09 1.53535e-09)
(1.09585e-09 -2.67256e-09 2.15848e-09)
(1.37266e-09 -3.37085e-09 2.84634e-09)
(1.65103e-09 -4.06783e-09 3.63022e-09)
(1.94098e-09 -4.7605e-09 4.54196e-09)
(2.25514e-09 -5.4315e-09 5.61278e-09)
(2.61284e-09 -6.03969e-09 6.87309e-09)
(3.04874e-09 -6.50482e-09 8.35299e-09)
(3.63648e-09 -6.67356e-09 1.00887e-08)
(4.54693e-09 -6.23624e-09 1.21435e-08)
(6.19456e-09 -4.50253e-09 1.47002e-08)
(9.68972e-09 3.12706e-10 1.83729e-08)
(1.7687e-08 1.28315e-08 2.48705e-08)
(3.26667e-08 3.87376e-08 3.5697e-08)
(5.4649e-10 -1.30677e-09 9.86715e-10)
(1.52348e-09 -3.65481e-09 2.79199e-09)
(2.41897e-09 -5.83975e-09 4.56244e-09)
(3.26455e-09 -7.94418e-09 6.41641e-09)
(4.08693e-09 -1.00217e-08 8.45571e-09)
(4.91328e-09 -1.21012e-08 1.07787e-08)
(5.77239e-09 -1.41788e-08 1.34789e-08)
(6.69944e-09 -1.62087e-08 1.66464e-08)
(7.74495e-09 -1.80834e-08 2.03675e-08)
(8.99427e-09 -1.95948e-08 2.47213e-08)
(1.06124e-08 -2.03662e-08 2.97768e-08)
(1.29322e-08 -1.97367e-08 3.56045e-08)
(1.66953e-08 -1.65278e-08 4.23546e-08)
(2.33583e-08 -8.74001e-09 5.03924e-08)
(3.52327e-08 6.26994e-09 6.04026e-08)
(5.1552e-08 2.63753e-08 7.13124e-08)
(8.99303e-10 -2.1343e-09 1.6171e-09)
(2.50653e-09 -5.97082e-09 4.57428e-09)
(3.97995e-09 -9.54741e-09 7.47487e-09)
(5.36895e-09 -1.29956e-08 1.05057e-08)
(6.71941e-09 -1.64133e-08 1.38381e-08)
(8.07497e-09 -1.98542e-08 1.76307e-08)
(9.48156e-09 -2.33258e-08 2.20358e-08)
(1.09928e-08 -2.67766e-08 2.72009e-08)
(1.26787e-08 -3.00706e-08 3.32657e-08)
(1.46439e-08 -3.29438e-08 4.0352e-08)
(1.70613e-08 -3.4941e-08 4.85441e-08)
(2.0251e-08 -3.53346e-08 5.78717e-08)
(2.4838e-08 -3.30618e-08 6.8315e-08)
(3.19585e-08 -2.68998e-08 7.98813e-08)
(4.32644e-08 -1.64503e-08 9.26909e-08)
(5.78831e-08 -5.6368e-09 1.05541e-07)
(1.23512e-09 -2.89609e-09 2.20759e-09)
(3.44182e-09 -8.10584e-09 6.24312e-09)
(5.46374e-09 -1.29703e-08 1.01975e-08)
(7.36863e-09 -1.76762e-08 1.43253e-08)
(9.21799e-09 -2.23612e-08 1.88551e-08)
(1.10721e-08 -2.71153e-08 2.40033e-08)
(1.29932e-08 -3.19732e-08 2.9977e-08)
(1.50503e-08 -3.6903e-08 3.69775e-08)
(1.7326e-08 -4.17852e-08 4.51981e-08)
(1.99256e-08 -4.6372e-08 5.48064e-08)
(2.29853e-08 -5.02363e-08 6.59091e-08)
(2.67035e-08 -5.2715e-08 7.85013e-08)
(3.14188e-08 -5.29036e-08 9.24254e-08)
(3.76687e-08 -4.98492e-08 1.07286e-07)
(4.63116e-08 -4.33093e-08 1.22427e-07)
(5.68604e-08 -3.58652e-08 1.35704e-07)
(1.54747e-09 -3.56624e-09 2.74471e-09)
(4.312e-09 -9.98658e-09 7.76082e-09)
(6.84286e-09 -1.59941e-08 1.26695e-08)
(9.22341e-09 -2.18251e-08 1.77818e-08)
(1.15314e-08 -2.76647e-08 2.33802e-08)
(1.38419e-08 -3.36434e-08 2.9729e-08)
(1.62327e-08 -3.98359e-08 3.70834e-08)
(1.87897e-08 -4.62547e-08 4.5695e-08)
(2.16105e-08 -5.28345e-08 5.58094e-08)
(2.48075e-08 -5.94035e-08 6.76511e-08)
(2.84921e-08 -6.56406e-08 8.1377e-08)
(3.27876e-08 -7.10137e-08 9.70374e-08)
(3.77839e-08 -7.46906e-08 1.14436e-07)
(4.35273e-08 -7.54863e-08 1.32981e-07)
(5.0148e-08 -7.20417e-08 1.51337e-07)
(5.74044e-08 -6.49628e-08 1.66039e-07)
(1.83126e-09 -4.12026e-09 3.21863e-09)
(5.10127e-09 -1.15429e-08 9.09715e-09)
(8.09112e-09 -1.85037e-08 1.48391e-08)
(1.08984e-08 -2.52882e-08 2.0804e-08)
(1.36131e-08 -3.21234e-08 2.7314e-08)
(1.63242e-08 -3.9185e-08 3.46733e-08)
(1.91254e-08 -4.6596e-08 4.31759e-08)
(2.21209e-08 -5.44275e-08 5.31145e-08)
(2.54325e-08 -6.26952e-08 6.47833e-08)
(2.92011e-08 -7.13456e-08 7.84676e-08)
(3.35818e-08 -8.02327e-08 9.4418e-08)
(3.87426e-08 -8.90559e-08 1.1281e-07)
(4.48192e-08 -9.72159e-08 1.33659e-07)
(5.1797e-08 -1.03433e-07 1.56586e-07)
(5.93548e-08 -1.04987e-07 1.80142e-07)
(6.61291e-08 -9.87981e-08 1.99187e-07)
(2.0814e-09 -4.53412e-09 3.62119e-09)
(5.79628e-09 -1.27088e-08 1.02301e-08)
(9.1873e-09 -2.03939e-08 1.66709e-08)
(1.23618e-08 -2.79145e-08 2.33369e-08)
(1.54207e-08 -3.55384e-08 3.05818e-08)
(1.84634e-08 -4.34821e-08 3.87355e-08)
(2.15966e-08 -5.19164e-08 4.81177e-08)
(2.49426e-08 -6.09738e-08 5.90481e-08)
(2.86504e-08 -7.07565e-08 7.18546e-08)
(3.29075e-08 -8.13447e-08 8.68726e-08)
(3.79644e-08 -9.28055e-08 1.04447e-07)
(4.41705e-08 -1.05195e-07 1.24932e-07)
(5.20505e-08 -1.1853e-07 1.48725e-07)
(6.23318e-08 -1.32552e-07 1.76172e-07)
(7.57619e-08 -1.45824e-07 2.06927e-07)
(9.01012e-08 -1.53479e-07 2.35139e-07)
(2.29445e-09 -4.78809e-09 3.9481e-09)
(6.38678e-09 -1.34285e-08 1.11472e-08)
(1.01145e-08 -2.1572e-08 1.81437e-08)
(1.35915e-08 -2.95755e-08 2.53539e-08)
(1.69235e-08 -3.77365e-08 3.31465e-08)
(2.02166e-08 -4.63046e-08 4.18652e-08)
(2.35849e-08 -5.54892e-08 5.18388e-08)
(2.71609e-08 -6.54724e-08 6.33937e-08)
(3.11119e-08 -7.64245e-08 7.68653e-08)
(3.56588e-08 -8.85272e-08 9.26023e-08)
(4.11231e-08 -1.0201e-07 1.10986e-07)
(4.8016e-08 -1.17225e-07 1.32476e-07)
(5.72334e-08 -1.34798e-07 1.57741e-07)
(7.04496e-08 -1.5592e-07 1.87875e-07)
(9.07539e-08 -1.82624e-07 2.24533e-07)
(1.18381e-07 -2.13377e-07 2.64188e-07)
(1.81498e-10 -4.4875e-10 3.15384e-10)
(5.0548e-10 -1.25492e-09 8.92206e-10)
(8.01079e-10 -2.00507e-09 1.45705e-09)
(1.07766e-09 -2.72672e-09 2.04696e-09)
(1.34306e-09 -3.43972e-09 2.69436e-09)
(1.60418e-09 -4.15355e-09 3.42932e-09)
(1.86753e-09 -4.86699e-09 4.27985e-09)
(2.13998e-09 -5.56545e-09 5.27207e-09)
(2.43118e-09 -6.21355e-09 6.42857e-09)
(2.75854e-09 -6.74498e-09 7.76721e-09)
(3.16081e-09 -7.0355e-09 9.29489e-09)
(3.72686e-09 -6.85816e-09 1.10077e-08)
(4.68931e-09 -5.74575e-09 1.2907e-08)
(6.53013e-09 -2.68902e-09 1.50105e-08)
(1.0083e-08 4.36392e-09 1.72941e-08)
(1.48813e-08 1.6177e-08 1.86319e-08)
(5.40984e-10 -1.33207e-09 9.37734e-10)
(1.50628e-09 -3.72557e-09 2.65143e-09)
(2.3872e-09 -5.95402e-09 4.33019e-09)
(3.21096e-09 -8.10023e-09 6.08162e-09)
(4.00103e-09 -1.02225e-08 8.00228e-09)
(4.77804e-09 -1.23524e-08 1.01811e-08)
(5.56083e-09 -1.44905e-08 1.27005e-08)
(6.36864e-09 -1.65987e-08 1.56361e-08)
(7.22513e-09 -1.8586e-08 1.90539e-08)
(8.16826e-09 -2.02756e-08 2.2996e-08)
(9.27177e-09 -2.13667e-08 2.74629e-08)
(1.07077e-08 -2.13602e-08 3.23824e-08)
(1.28175e-08 -1.94903e-08 3.754e-08)
(1.62092e-08 -1.47156e-08 4.24512e-08)
(2.1287e-08 -6.4674e-09 4.59126e-08)
(2.60863e-08 1.99952e-09 4.5694e-08)
(8.90664e-10 -2.17503e-09 1.5364e-09)
(2.47986e-09 -6.08493e-09 4.34366e-09)
(3.93009e-09 -9.73019e-09 7.09225e-09)
(5.28606e-09 -1.32479e-08 9.95724e-09)
(6.58678e-09 -1.67379e-08 1.30965e-08)
(7.86652e-09 -2.02596e-08 1.66545e-08)
(9.15629e-09 -2.38264e-08 2.0766e-08)
(1.04858e-08 -2.73972e-08 2.55562e-08)
(1.18854e-08 -3.08552e-08 3.11322e-08)
(1.33914e-08 -3.39786e-08 3.75646e-08)
(1.50572e-08 -3.63976e-08 4.48462e-08)
(1.69857e-08 -3.75733e-08 5.28309e-08)
(1.93761e-08 -3.68508e-08 6.11246e-08)
(2.25111e-08 -3.38132e-08 6.88872e-08)
(2.63743e-08 -2.93742e-08 7.45189e-08)
(2.93001e-08 -2.72449e-08 7.58598e-08)
(1.22416e-09 -2.95076e-09 2.09698e-09)
(3.40856e-09 -8.25845e-09 5.92832e-09)
(5.4015e-09 -1.32157e-08 9.67558e-09)
(7.26481e-09 -1.80134e-08 1.35772e-08)
(9.05245e-09 -2.27956e-08 1.78454e-08)
(1.08127e-08 -2.76565e-08 2.26762e-08)
(1.25895e-08 -3.26366e-08 2.82535e-08)
(1.44237e-08 -3.77141e-08 3.47494e-08)
(1.63512e-08 -4.27878e-08 4.23161e-08)
(1.83958e-08 -4.76461e-08 5.10569e-08)
(2.056e-08 -5.19394e-08 6.09781e-08)
(2.28166e-08 -5.51693e-08 7.19046e-08)
(2.50532e-08 -5.6773e-08 8.33079e-08)
(2.70214e-08 -5.64691e-08 9.40676e-08)
(2.81581e-08 -5.50934e-08 1.02077e-07)
(2.75716e-08 -5.515e-08 1.04541e-07)
(1.53566e-09 -3.63302e-09 2.60763e-09)
(4.27552e-09 -1.01726e-08 7.36962e-09)
(6.77439e-09 -1.62926e-08 1.20217e-08)
(9.10959e-09 -2.22366e-08 1.68554e-08)
(1.13497e-08 -2.81937e-08 2.21312e-08)
(1.35574e-08 -3.42994e-08 2.80896e-08)
(1.57917e-08 -4.06334e-08 3.4958e-08)
(1.81085e-08 -4.72149e-08 4.29526e-08)
(2.05564e-08 -5.39899e-08 5.22699e-08)
(2.31622e-08 -6.08106e-08 6.3059e-08)
(2.59128e-08 -6.74045e-08 7.53784e-08)
(2.86716e-08 -7.33489e-08 8.90653e-08)
(3.10972e-08 -7.80584e-08 1.03601e-07)
(3.24184e-08 -8.08937e-08 1.1769e-07)
(3.1398e-08 -8.16396e-08 1.28728e-07)
(2.7576e-08 -8.16562e-08 1.32885e-07)
(1.81965e-09 -4.19659e-09 3.05826e-09)
(5.06524e-09 -1.17559e-08 8.63956e-09)
(8.02329e-09 -1.88458e-08 1.40825e-08)
(1.07847e-08 -2.57586e-08 1.97225e-08)
(1.34314e-08 -3.27273e-08 2.58583e-08)
(1.60401e-08 -3.99308e-08 3.27662e-08)
(1.86865e-08 -4.74951e-08 4.07086e-08)
(2.14468e-08 -5.54936e-08 4.9938e-08)
(2.43963e-08 -6.39449e-08 6.06922e-08)
(2.75998e-08 -7.28004e-08 7.31746e-08)
(3.10845e-08 -8.19278e-08 8.75062e-08)
(3.47837e-08 -9.10614e-08 1.03644e-07)
(3.83678e-08 -9.96997e-08 1.21184e-07)
(4.09294e-08 -1.06862e-07 1.38943e-07)
(4.05492e-08 -1.10803e-07 1.54106e-07)
(3.54476e-08 -1.10101e-07 1.61614e-07)
(2.07116e-09 -4.61766e-09 3.44128e-09)
(5.764e-09 -1.29419e-08 9.71721e-09)
(9.12562e-09 -2.07677e-08 1.58234e-08)
(1.22579e-08 -2.84286e-08 2.21279e-08)
(1.52535e-08 -3.61973e-08 2.89572e-08)
(1.82016e-08 -4.4293e-08 3.6612e-08)
(2.11933e-08 -5.28871e-08 4.53781e-08)
(2.43269e-08 -6.211e-08 5.55316e-08)
(2.77118e-08 -7.20579e-08 6.73382e-08)
(3.14732e-08 -8.27992e-08 8.10439e-08)
(3.57499e-08 -9.43793e-08 9.68402e-08)
(4.06857e-08 -1.06815e-07 1.14813e-07)
(4.63572e-08 -1.20041e-07 1.34791e-07)
(5.25523e-08 -1.3367e-07 1.5594e-07)
(5.80457e-08 -1.46237e-07 1.7566e-07)
(5.94389e-08 -1.53728e-07 1.87566e-07)
(2.2863e-09 -4.8759e-09 3.75258e-09)
(6.36071e-09 -1.36734e-08 1.05903e-08)
(1.00636e-08 -2.19651e-08 1.72248e-08)
(1.35039e-08 -3.01157e-08 2.40447e-08)
(1.6781e-08 -3.8428e-08 3.13916e-08)
(1.99925e-08 -4.71535e-08 3.95785e-08)
(2.32398e-08 -5.65004e-08 4.88996e-08)
(2.66369e-08 -6.66449e-08 5.96369e-08)
(3.03204e-08 -7.77451e-08 7.20618e-08)
(3.44642e-08 -8.99586e-08 8.64309e-08)
(3.93058e-08 -1.0347e-07 1.02964e-07)
(4.51917e-08 -1.18538e-07 1.21815e-07)
(5.26479e-08 -1.35575e-07 1.42981e-07)
(6.24899e-08 -1.55253e-07 1.66002e-07)
(7.56059e-08 -1.78207e-07 1.88847e-07)
(8.98749e-08 -2.01111e-07 2.04601e-07)
(1.78821e-10 -4.56033e-10 2.87469e-10)
(4.97298e-10 -1.27532e-09 8.12623e-10)
(7.86276e-10 -2.03791e-09 1.32662e-09)
(1.0533e-09 -2.77188e-09 1.86133e-09)
(1.30463e-09 -3.49784e-09 2.4463e-09)
(1.54443e-09 -4.22647e-09 3.10717e-09)
(1.77486e-09 -4.95912e-09 3.8673e-09)
(1.99597e-09 -5.68386e-09 4.74595e-09)
(2.20537e-09 -6.37562e-09 5.75834e-09)
(2.39903e-09 -6.98303e-09 6.90677e-09)
(2.57353e-09 -7.42452e-09 8.17404e-09)
(2.73473e-09 -7.5637e-09 9.5035e-09)
(2.88979e-09 -7.18234e-09 1.07578e-08)
(3.03413e-09 -5.89132e-09 1.1658e-08)
(2.89128e-09 -3.10846e-09 1.15409e-08)
(1.57965e-09 1.01822e-09 9.27711e-09)
(5.33096e-10 -1.35343e-09 8.5443e-10)
(1.48265e-09 -3.78538e-09 2.41533e-09)
(2.3439e-09 -6.05007e-09 3.94145e-09)
(3.14022e-09 -8.23224e-09 5.52976e-09)
(3.88973e-09 -1.03924e-08 7.26544e-09)
(4.60527e-09 -1.25657e-08 9.22505e-09)
(5.29355e-09 -1.47573e-08 1.14764e-08)
(5.95441e-09 -1.69409e-08 1.40784e-08)
(6.57864e-09 -1.90434e-08 1.70709e-08)
(7.14717e-09 -2.09352e-08 2.04606e-08)
(7.63205e-09 -2.2405e-08 2.41845e-08)
(7.99515e-09 -2.31583e-08 2.8045e-08)
(8.19919e-09 -2.28353e-08 3.16067e-08)
(8.10457e-09 -2.1172e-08 3.39423e-08)
(7.21957e-09 -1.85081e-08 3.33657e-08)
(4.83138e-09 -1.67321e-08 2.86157e-08)
(8.78279e-10 -2.20945e-09 1.39986e-09)
(2.44278e-09 -6.18105e-09 3.95685e-09)
(3.86233e-09 -9.88475e-09 6.45564e-09)
(5.17557e-09 -1.346e-08 9.05421e-09)
(6.41334e-09 -1.70105e-08 1.18915e-08)
(7.59785e-09 -2.05994e-08 1.50918e-08)
(8.74206e-09 -2.42475e-08 1.87675e-08)
(9.84645e-09 -2.79251e-08 2.30146e-08)
(1.08946e-08 -3.1543e-08 2.79036e-08)
(1.18421e-08 -3.49293e-08 3.34485e-08)
(1.26057e-08 -3.78246e-08 3.95584e-08)
(1.30449e-08 -3.99029e-08 4.59447e-08)
(1.29325e-08 -4.08997e-08 5.19732e-08)
(1.18903e-08 -4.09675e-08 5.64466e-08)
(9.34521e-09 -4.12884e-08 5.75119e-08)
(5.37107e-09 -4.36405e-08 5.42726e-08)
(1.20847e-09 -2.99667e-09 1.91118e-09)
(3.36128e-09 -8.38723e-09 5.40012e-09)
(5.31528e-09 -1.34219e-08 8.8079e-09)
(7.12453e-09 -1.82962e-08 1.23471e-08)
(8.8326e-09 -2.31571e-08 1.62051e-08)
(1.04732e-08 -2.81033e-08 2.05511e-08)
(1.20682e-08 -3.31809e-08 2.55381e-08)
(1.3624e-08 -3.83797e-08 3.13012e-08)
(1.51201e-08 -4.36185e-08 3.79412e-08)
(1.64916e-08 -4.87319e-08 4.54953e-08)
(1.75922e-08 -5.34613e-08 5.38693e-08)
(1.81366e-08 -5.74858e-08 6.27287e-08)
(1.76263e-08 -6.0556e-08 7.13578e-08)
(1.52536e-08 -6.28291e-08 7.83953e-08)
(1.0141e-08 -6.53252e-08 8.18053e-08)
(3.21958e-09 -6.90559e-08 8.03441e-08)
(1.51793e-09 -3.68895e-09 2.37665e-09)
(4.22207e-09 -1.03287e-08 6.71413e-09)
(6.6771e-09 -1.65427e-08 1.09453e-08)
(8.95127e-09 -2.25783e-08 1.53306e-08)
(1.11021e-08 -2.86282e-08 2.01001e-08)
(1.31763e-08 -3.48306e-08 2.54612e-08)
(1.52093e-08 -4.12687e-08 3.16043e-08)
(1.72201e-08 -4.79662e-08 3.8699e-08)
(1.92001e-08 -5.48811e-08 4.68817e-08)
(2.10859e-08 -6.18885e-08 5.62205e-08)
(2.27027e-08 -6.87701e-08 6.66372e-08)
(2.36886e-08 -7.52107e-08 7.78338e-08)
(2.32995e-08 -8.08363e-08 8.90429e-08)
(2.02702e-08 -8.53602e-08 9.88279e-08)
(1.31218e-08 -8.8906e-08 1.04891e-07)
(3.19372e-09 -9.2038e-08 1.05336e-07)
(1.80117e-09 -4.26031e-09 2.78752e-09)
(5.00993e-09 -1.19339e-08 7.87259e-09)
(7.92223e-09 -1.91304e-08 1.28237e-08)
(1.06204e-08 -2.61462e-08 1.79414e-08)
(1.31748e-08 -3.32172e-08 2.3489e-08)
(1.56467e-08 -4.05233e-08 2.97055e-08)
(1.80881e-08 -4.81895e-08 3.68105e-08)
(2.05405e-08 -5.62876e-08 4.50036e-08)
(2.30232e-08 -6.48315e-08 5.44512e-08)
(2.55122e-08 -7.37709e-08 6.52541e-08)
(2.78913e-08 -8.29728e-08 7.73857e-08)
(2.98492e-08 -9.21861e-08 9.05761e-08)
(3.06675e-08 -1.0096e-07 1.04115e-07)
(2.89004e-08 -1.08472e-07 1.16522e-07)
(2.2334e-08 -1.13332e-07 1.25273e-07)
(1.10568e-08 -1.14224e-07 1.27817e-07)
(2.05342e-09 -4.68706e-09 3.13745e-09)
(5.71041e-09 -1.31355e-08 8.85611e-09)
(9.02781e-09 -2.10767e-08 1.44117e-08)
(1.20986e-08 -2.88485e-08 2.01334e-08)
(1.50049e-08 -3.67251e-08 2.6309e-08)
(1.78215e-08 -4.49249e-08 3.31992e-08)
(2.06183e-08 -5.36148e-08 4.10433e-08)
(2.34614e-08 -6.29151e-08 5.00591e-08)
(2.64116e-08 -7.29044e-08 6.0434e-08)
(2.95122e-08 -8.36207e-08 7.22934e-08)
(3.27701e-08 -9.50574e-08 8.56484e-08)
(3.60942e-08 -1.07139e-07 1.00279e-07)
(3.91566e-08 -1.1964e-07 1.15521e-07)
(4.11155e-08 -1.31929e-07 1.29847e-07)
(4.02398e-08 -1.42354e-07 1.40336e-07)
(3.49967e-08 -1.47507e-07 1.43486e-07)
(2.27018e-09 -4.94852e-09 3.42187e-09)
(6.31218e-09 -1.38759e-08 9.65376e-09)
(9.97443e-09 -2.22881e-08 1.56913e-08)
(1.33582e-08 -3.05535e-08 2.18817e-08)
(1.65537e-08 -3.89762e-08 2.85271e-08)
(1.96455e-08 -4.78049e-08 3.58984e-08)
(2.27172e-08 -5.72401e-08 4.42426e-08)
(2.58559e-08 -6.74422e-08 5.37816e-08)
(2.91562e-08 -7.85416e-08 6.4706e-08)
(3.27241e-08 -9.06459e-08 7.7145e-08)
(3.66816e-08 -1.03851e-07 9.11174e-08)
(4.11653e-08 -1.18249e-07 1.06424e-07)
(4.63098e-08 -1.33929e-07 1.22422e-07)
(5.22286e-08 -1.50941e-07 1.37527e-07)
(5.8924e-08 -1.68952e-07 1.48306e-07)
(6.543e-08 -1.84868e-07 1.49727e-07)
(1.7573e-10 -4.619e-10 2.4936e-10)
(4.88121e-10 -1.29173e-09 7.04803e-10)
(7.69507e-10 -2.06422e-09 1.14926e-09)
(1.02635e-09 -2.808e-09 1.61148e-09)
(1.26271e-09 -3.5445e-09 2.11494e-09)
(1.48008e-09 -4.28545e-09 2.68111e-09)
(1.67648e-09 -5.03355e-09 3.32768e-09)
(1.84559e-09 -5.78148e-09 4.0687e-09)
(1.97466e-09 -6.51003e-09 4.91153e-09)
(2.0426e-09 -7.18426e-09 5.85059e-09)
(2.01592e-09 -7.75243e-09 6.85716e-09)
(1.84341e-09 -8.14263e-09 7.86061e-09)
(1.44574e-09 -8.2585e-09 8.73691e-09)
(6.35637e-10 -7.95914e-09 9.25943e-09)
(-1.02491e-09 -6.98908e-09 9.15455e-09)
(-3.92564e-09 -5.09938e-09 8.2952e-09)
(5.24125e-10 -1.37068e-09 7.41257e-10)
(1.45574e-09 -3.83355e-09 2.09426e-09)
(2.29532e-09 -6.12738e-09 3.41578e-09)
(3.06182e-09 -8.33846e-09 4.78741e-09)
(3.76792e-09 -1.05291e-08 6.28147e-09)
(4.4185e-09 -1.27369e-08 7.95989e-09)
(5.00872e-09 -1.49724e-08 9.8756e-09)
(5.5203e-09 -1.72173e-08 1.20698e-08)
(5.91618e-09 -1.94184e-08 1.4563e-08)
(6.13152e-09 -2.14819e-08 1.73379e-08)
(6.06305e-09 -2.32692e-08 2.03033e-08)
(5.56427e-09 -2.46134e-08 2.32541e-08)
(4.4258e-09 -2.53646e-08 2.57761e-08)
(2.38401e-09 -2.54781e-08 2.72019e-08)
(-7.6181e-10 -2.51301e-08 2.66824e-08)
(-4.18999e-09 -2.47126e-08 2.43615e-08)
(8.64152e-10 -2.23714e-09 1.2146e-09)
(2.40046e-09 -6.25887e-09 3.43114e-09)
(3.78596e-09 -1.00093e-08 5.59491e-09)
(5.05254e-09 -1.36304e-08 7.83964e-09)
(6.22242e-09 -1.72282e-08 1.02819e-08)
(7.30585e-09 -2.08694e-08 1.30233e-08)
(8.29812e-09 -2.45799e-08 1.61511e-08)
(9.17344e-09 -2.83419e-08 1.97342e-08)
(9.87446e-09 -3.2087e-08 2.38107e-08)
(1.02946e-08 -3.56873e-08 2.83585e-08)
(1.02569e-08 -3.8963e-08 3.32495e-08)
(9.4937e-09 -4.17218e-08 3.81831e-08)
(7.64319e-09 -4.38778e-08 4.26068e-08)
(4.33514e-09 -4.56771e-08 4.56823e-08)
(-3.83226e-10 -4.78935e-08 4.65804e-08)
(-4.75113e-09 -5.09449e-08 4.57641e-08)
(1.19024e-09 -3.03389e-09 1.65788e-09)
(3.30703e-09 -8.49102e-09 4.68407e-09)
(5.2174e-09 -1.3588e-08 7.63488e-09)
(6.96691e-09 -1.85223e-08 1.06924e-08)
(8.58851e-09 -2.34433e-08 1.40135e-08)
(1.0101e-08 -2.84523e-08 1.77363e-08)
(1.1505e-08 -3.36003e-08 2.19808e-08)
(1.2775e-08 -3.88845e-08 2.68442e-08)
(1.38442e-08 -4.42411e-08 3.2385e-08)
(1.4577e-08 -4.95382e-08 3.85881e-08)
(1.47313e-08 -5.45787e-08 4.53129e-08)
(1.3914e-08 -5.91439e-08 5.22291e-08)
(1.15318e-08 -6.31053e-08 5.87025e-08)
(6.923e-09 -6.6658e-08 6.38567e-08)
(1.106e-11 -7.0475e-08 6.68394e-08)
(-6.66102e-09 -7.46291e-08 6.78343e-08)
(1.49704e-09 -3.73392e-09 2.06232e-09)
(4.15997e-09 -1.04546e-08 5.82466e-09)
(6.56497e-09 -1.67431e-08 9.48931e-09)
(8.77107e-09 -2.28494e-08 1.32785e-08)
(1.08237e-08 -2.89677e-08 1.73845e-08)
(1.27533e-08 -3.52374e-08 2.19772e-08)
(1.45723e-08 -4.17421e-08 2.72062e-08)
(1.62666e-08 -4.85078e-08 3.31949e-08)
(1.77782e-08 -5.54969e-08 4.00237e-08)
(1.89724e-08 -6.25969e-08 4.7692e-08)
(1.95925e-08 -6.96162e-08 5.60802e-08)
(1.91615e-08 -7.62816e-08 6.48177e-08)
(1.69014e-08 -8.22747e-08 7.32845e-08)
(1.17523e-08 -8.73154e-08 8.05394e-08)
(3.12472e-09 -9.13207e-08 8.56432e-08)
(-6.10612e-09 -9.42956e-08 8.83737e-08)
(1.77917e-09 -4.31149e-09 2.41964e-09)
(4.9441e-09 -1.20767e-08 6.83086e-09)
(7.80365e-09 -1.93571e-08 1.11201e-08)
(1.043e-08 -2.6451e-08 1.55425e-08)
(1.28813e-08 -3.35947e-08 2.0319e-08)
(1.52024e-08 -4.09669e-08 2.56451e-08)
(1.7423e-08 -4.86888e-08 3.1694e-08)
(1.9551e-08 -5.6825e-08 3.86103e-08)
(2.15586e-08 -6.53791e-08 4.6493e-08)
(2.33564e-08 -7.42853e-08 5.53632e-08)
(2.47417e-08 -8.33896e-08 6.51012e-08)
(2.53093e-08 -9.24099e-08 7.53619e-08)
(2.42997e-08 -1.00848e-07 8.54732e-08)
(2.04873e-08 -1.07817e-07 9.44203e-08)
(1.25849e-08 -1.1183e-07 1.01107e-07)
(2.28736e-09 -1.11536e-07 1.05078e-07)
(2.03145e-09 -4.74252e-09 2.72366e-09)
(5.645e-09 -1.329e-08 7.6857e-09)
(8.90977e-09 -2.13213e-08 1.24994e-08)
(1.19092e-08 -2.91755e-08 1.74445e-08)
(1.47138e-08 -3.71261e-08 2.27627e-08)
(1.73828e-08 -4.53879e-08 2.86675e-08)
(1.99649e-08 -5.41188e-08 3.53472e-08)
(2.24959e-08 -6.3424e-08 4.29597e-08)
(2.49923e-08 -7.33562e-08 5.16151e-08)
(2.7438e-08 -8.39118e-08 6.13449e-08)
(2.97576e-08 -9.50161e-08 7.2034e-08)
(3.17634e-08 -1.06482e-07 8.33249e-08)
(3.30622e-08 -1.17914e-07 9.44763e-08)
(3.29675e-08 -1.28464e-07 1.04262e-07)
(3.06016e-08 -1.3636e-07 1.1115e-07)
(2.61746e-08 -1.38825e-07 1.14453e-07)
(2.24952e-09 -5.00629e-09 2.97112e-09)
(6.25037e-09 -1.40368e-08 8.37948e-09)
(9.86298e-09 -2.25421e-08 1.36115e-08)
(1.31795e-08 -3.08917e-08 1.89628e-08)
(1.62794e-08 -3.93876e-08 2.46869e-08)
(1.92338e-08 -4.82729e-08 3.10064e-08)
(2.21073e-08 -5.77357e-08 3.81154e-08)
(2.49601e-08 -6.79149e-08 4.61741e-08)
(2.78484e-08 -7.89036e-08 5.52919e-08)
(3.08252e-08 -9.07501e-08 6.5497e-08)
(3.39378e-08 -1.03451e-07 7.66655e-08)
(3.72237e-08 -1.16935e-07 8.84131e-08)
(4.07178e-08 -1.31035e-07 9.99151e-08)
(4.45662e-08 -1.45465e-07 1.09686e-07)
(4.93422e-08 -1.59713e-07 1.15489e-07)
(5.56807e-08 -1.71852e-07 1.15822e-07)
(1.72653e-10 -4.66377e-10 2.02708e-10)
(4.7888e-10 -1.30416e-09 5.7237e-10)
(7.52999e-10 -2.08382e-09 9.33599e-10)
(9.99913e-10 -2.8355e-09 1.3073e-09)
(1.22209e-09 -3.5796e-09 1.7139e-09)
(1.41855e-09 -4.32981e-09 2.16898e-09)
(1.5841e-09 -5.08934e-09 2.68529e-09)
(1.70752e-09 -5.85445e-09 3.27259e-09)
(1.76957e-09 -6.60915e-09 3.93291e-09)
(1.73938e-09 -7.33013e-09 4.65921e-09)
(1.57129e-09 -7.97941e-09 5.42383e-09)
(1.20051e-09 -8.513e-09 6.1759e-09)
(5.2672e-10 -8.87322e-09 6.8241e-09)
(-6.30427e-10 -8.95762e-09 7.28854e-09)
(-2.64943e-09 -8.49802e-09 7.54938e-09)
(-5.69423e-09 -6.99395e-09 7.70121e-09)
(5.15103e-10 -1.38382e-09 6.02389e-10)
(1.42895e-09 -3.8701e-09 1.70207e-09)
(2.24723e-09 -6.18641e-09 2.77384e-09)
(2.98495e-09 -8.41887e-09 3.88498e-09)
(3.64989e-09 -1.0633e-08 5.09131e-09)
(4.23993e-09 -1.28665e-08 6.44026e-09)
(4.7409e-09 -1.5134e-08 7.97062e-09)
(5.12132e-09 -1.74227e-08 9.7089e-09)
(5.326e-09 -1.96935e-08 1.16645e-08)
(5.26576e-09 -2.18725e-08 1.38111e-08)
(4.81067e-09 -2.38599e-08 1.60696e-08)
(3.78594e-09 -2.55394e-08 1.82696e-08)
(1.99569e-09 -2.68059e-08 2.01498e-08)
(-7.04043e-10 -2.75719e-08 2.13368e-08)
(-4.13249e-09 -2.77059e-08 2.15162e-08)
(-6.99417e-09 -2.70316e-08 2.08652e-08)
(8.49894e-10 -2.25844e-09 9.87193e-10)
(2.3583e-09 -6.31851e-09 2.78898e-09)
(3.71022e-09 -1.01044e-08 4.5449e-09)
(4.93171e-09 -1.37604e-08 6.36314e-09)
(6.03681e-09 -1.73926e-08 8.33498e-09)
(7.0257e-09 -2.10706e-08 1.05383e-08)
(7.87931e-09 -2.48241e-08 1.30365e-08)
(8.55285e-09 -2.86428e-08 1.58765e-08)
(8.96259e-09 -3.24707e-08 1.90744e-08)
(8.97136e-09 -3.62059e-08 2.25965e-08)
(8.37164e-09 -3.97053e-08 2.63255e-08)
(6.88532e-09 -4.28227e-08 3.00268e-08)
(4.21346e-09 -4.54868e-08 3.33254e-08)
(2.41142e-10 -4.78275e-08 3.57816e-08)
(-4.42471e-09 -5.02284e-08 3.71258e-08)
(-7.65272e-09 -5.2709e-08 3.76869e-08)
(1.17194e-09 -3.06246e-09 1.3484e-09)
(3.25257e-09 -8.57103e-09 3.80755e-09)
(5.11995e-09 -1.37155e-08 6.20352e-09)
(6.81124e-09 -1.86938e-08 8.68038e-09)
(8.35002e-09 -2.36576e-08 1.1362e-08)
(9.74201e-09 -2.8709e-08 1.43538e-08)
(1.09708e-08 -3.39011e-08 1.77445e-08)
(1.19879e-08 -3.92349e-08 2.15992e-08)
(1.26973e-08 -4.46559e-08 2.59467e-08)
(1.29319e-08 -5.00465e-08 3.07537e-08)
(1.24266e-08 -5.52342e-08 3.58908e-08)
(1.07954e-08 -6.00187e-08 4.10715e-08)
(7.57476e-09 -6.42582e-08 4.59045e-08)
(2.45091e-09 -6.80184e-08 4.99224e-08)
(-4.01224e-09 -7.16619e-08 5.28696e-08)
(-9.07647e-09 -7.5104e-08 5.48044e-08)
(1.47587e-09 -3.76863e-09 1.67735e-09)
(4.09714e-09 -1.05513e-08 4.73615e-09)
(6.45242e-09 -1.68961e-08 7.71196e-09)
(8.59178e-09 -2.3054e-08 1.0782e-08)
(1.05494e-08 -2.92186e-08 1.40972e-08)
(1.2342e-08 -3.55296e-08 1.77885e-08)
(1.39633e-08 -4.2069e-08 2.19656e-08)
(1.53752e-08 -4.88613e-08 2.67122e-08)
(1.64898e-08 -5.58658e-08 3.20695e-08)
(1.71453e-08 -6.29697e-08 3.80139e-08)
(1.7062e-08 -6.99757e-08 4.43932e-08)
(1.58049e-08 -7.66012e-08 5.09375e-08)
(1.27487e-08 -8.24806e-08 5.71946e-08)
(7.2493e-09 -8.72234e-08 6.2692e-08)
(-6.07842e-10 -9.05575e-08 6.71335e-08)
(-7.88202e-09 -9.25349e-08 7.02955e-08)
(1.75647e-09 -4.35086e-09 1.96808e-09)
(4.87685e-09 -1.21862e-08 5.55542e-09)
(7.68336e-09 -1.95295e-08 9.03907e-09)
(1.02383e-08 -2.66787e-08 1.26225e-08)
(1.25891e-08 -3.38699e-08 1.64795e-08)
(1.47662e-08 -4.12783e-08 2.07606e-08)
(1.67805e-08 -4.90196e-08 2.55933e-08)
(1.86162e-08 -5.71481e-08 3.10748e-08)
(2.02182e-08 -6.56528e-08 3.72575e-08)
(2.1469e-08 -7.44446e-08 4.4117e-08)
(2.21551e-08 -8.33341e-08 5.15112e-08)
(2.19094e-08 -9.19851e-08 5.91244e-08)
(2.01463e-08 -9.98239e-08 6.64681e-08)
(1.60715e-08 -1.0587e-07 7.29726e-08)
(9.10176e-09 -1.08608e-07 7.826e-08)
(9.86717e-10 -1.07037e-07 8.20603e-08)
(2.00851e-09 -4.78502e-09 2.21592e-09)
(5.57706e-09 -1.3408e-08 6.25178e-09)
(8.78819e-09 -2.1506e-08 1.01619e-08)
(1.17162e-08 -2.94176e-08 1.41694e-08)
(1.44202e-08 -3.74139e-08 1.84646e-08)
(1.69462e-08 -4.57044e-08 2.32118e-08)
(1.93251e-08 -5.44368e-08 2.85497e-08)
(2.15708e-08 -6.36987e-08 3.45838e-08)
(2.36739e-08 -7.35154e-08 4.13706e-08)
(2.55928e-08 -8.38398e-08 4.88836e-08)
(2.72402e-08 -9.45317e-08 5.69672e-08)
(2.84616e-08 -1.05312e-07 6.52648e-08)
(2.90168e-08 -1.15667e-07 7.31788e-08)
(2.86173e-08 -1.24667e-07 7.99237e-08)
(2.70735e-08 -1.3067e-07 8.48446e-08)
(2.47234e-08 -1.31651e-07 8.78126e-08)
(2.22746e-09 -5.05041e-09 2.41767e-09)
(6.18496e-09 -1.41591e-08 6.81716e-09)
(9.74611e-09 -2.27328e-08 1.10676e-08)
(1.29939e-08 -3.11398e-08 1.54052e-08)
(1.59983e-08 -3.9679e-08 2.00293e-08)
(1.88175e-08 -4.85857e-08 2.5112e-08)
(2.15005e-08 -5.80344e-08 3.07956e-08)
(2.40872e-08 -6.81412e-08 3.71862e-08)
(2.66113e-08 -7.89627e-08 4.43378e-08)
(2.91011e-08 -9.04906e-08 5.22142e-08)
(3.15896e-08 -1.02637e-07 6.06395e-08)
(3.41321e-08 -1.15215e-07 6.92099e-08)
(3.6876e-08 -1.27924e-07 7.7211e-08)
(4.028e-08 -1.40397e-07 8.35864e-08)
(4.55247e-08 -1.52356e-07 8.71675e-08)
(5.35361e-08 -1.62892e-07 8.7609e-08)
(1.69944e-10 -4.69419e-10 1.49303e-10)
(4.70881e-10 -1.31256e-09 4.21981e-10)
(7.38685e-10 -2.09767e-09 6.86919e-10)
(9.77188e-10 -2.85328e-09 9.61913e-10)
(1.18767e-09 -3.60449e-09 1.25995e-09)
(1.36711e-09 -4.36115e-09 1.59231e-09)
(1.50806e-09 -5.12872e-09 1.96759e-09)
(1.5966e-09 -5.90412e-09 2.39139e-09)
(1.61023e-09 -6.67555e-09 2.86467e-09)
(1.51541e-09 -7.42166e-09 3.38037e-09)
(1.26638e-09 -8.11212e-09 3.91928e-09)
(8.03395e-10 -8.70672e-09 4.44553e-09)
(4.46148e-11 -9.14896e-09 4.92452e-09)
(-1.15489e-09 -9.31245e-09 5.32148e-09)
(-3.13101e-09 -8.88785e-09 5.7e-09)
(-6.03955e-09 -7.31725e-09 6.10132e-09)
(5.07238e-10 -1.39296e-09 4.44128e-10)
(1.40564e-09 -3.89594e-09 1.25376e-09)
(2.2055e-09 -6.2266e-09 2.04278e-09)
(2.91914e-09 -8.47715e-09 2.85917e-09)
(3.54939e-09 -1.0706e-08 3.74328e-09)
(4.08983e-09 -1.29567e-08 4.72838e-09)
(4.5195e-09 -1.52444e-08 5.84011e-09)
(4.7995e-09 -1.75605e-08 7.09519e-09)
(4.86572e-09 -1.98707e-08 8.49602e-09)
(4.62359e-09 -2.2112e-08 1.00208e-08)
(3.94545e-09 -2.41942e-08 1.16089e-08)
(2.68293e-09 -2.60075e-08 1.31607e-08)
(7.06798e-10 -2.74209e-08 1.45126e-08)
(-2.00298e-09 -2.82613e-08 1.54909e-08)
(-5.1053e-09 -2.82174e-08 1.59389e-08)
(-7.3818e-09 -2.70614e-08 1.58286e-08)
(8.37517e-10 -2.2736e-09 7.27903e-10)
(2.32145e-09 -6.36067e-09 2.05485e-09)
(3.64482e-09 -1.01731e-08 3.34773e-09)
(4.82749e-09 -1.38515e-08 4.6837e-09)
(5.8786e-09 -1.75088e-08 6.12907e-09)
(6.78969e-09 -2.12108e-08 7.73773e-09)
(7.53248e-09 -2.49906e-08 9.55275e-09)
(8.05056e-09 -2.88407e-08 1.16028e-08)
(8.24935e-09 -3.2712e-08 1.38942e-08)
(7.98566e-09 -3.65098e-08 1.63953e-08)
(7.06367e-09 -4.00995e-08 1.90216e-08)
(5.25471e-09 -4.33303e-08 2.16177e-08)
(2.38157e-09 -4.60755e-08 2.39685e-08)
(-1.46714e-09 -4.83393e-08 2.58498e-08)
(-5.47642e-09 -5.03014e-08 2.71281e-08)
(-7.74876e-09 -5.20429e-08 2.78287e-08)
(1.15588e-09 -3.08312e-09 9.93751e-10)
(3.2051e-09 -8.62861e-09 2.80663e-09)
(5.03501e-09 -1.3806e-08 4.57035e-09)
(6.67705e-09 -1.8817e-08 6.39088e-09)
(8.14571e-09 -2.38076e-08 8.35612e-09)
(9.43814e-09 -2.88843e-08 1.05404e-08)
(1.05261e-08 -3.40993e-08 1.30034e-08)
(1.13479e-08 -3.94549e-08 1.57861e-08)
(1.17956e-08 -4.48969e-08 1.89007e-08)
(1.16993e-08 -5.03097e-08 2.23136e-08)
(1.08157e-08 -5.55165e-08 2.59215e-08)
(8.83767e-09 -6.02977e-08 2.95495e-08)
(5.46041e-09 -6.44488e-08 3.29497e-08)
(6.33334e-10 -6.79058e-08 3.58939e-08)
(-4.86559e-09 -7.08802e-08 3.82398e-08)
(-8.69302e-09 -7.34636e-08 3.98027e-08)
(1.45723e-09 -3.79358e-09 1.23671e-09)
(4.04207e-09 -1.06212e-08 3.49157e-09)
(6.35439e-09 -1.70066e-08 5.68299e-09)
(8.43578e-09 -2.31979e-08 7.93932e-09)
(1.03134e-08 -2.93926e-08 1.03691e-08)
(1.19923e-08 -3.57257e-08 1.30639e-08)
(1.3454e-08 -4.22779e-08 1.60982e-08)
(1.46464e-08 -4.90687e-08 1.95243e-08)
(1.5471e-08 -5.60514e-08 2.33608e-08)
(1.57654e-08 -6.31017e-08 2.75705e-08)
(1.52857e-08 -7.0007e-08 3.20524e-08)
(1.36829e-08 -7.64435e-08 3.65956e-08)
(1.05317e-08 -8.19886e-08 4.09392e-08)
(5.47906e-09 -8.61558e-08 4.48322e-08)
(-1.17669e-09 -8.86034e-08 4.81047e-08)
(-7.00333e-09 -8.96409e-08 5.03933e-08)
(1.73645e-09 -4.37945e-09 1.45156e-09)
(4.81748e-09 -1.22653e-08 4.09625e-09)
(7.57727e-09 -1.96522e-08 6.66187e-09)
(1.00711e-08 -2.68395e-08 9.29598e-09)
(1.23359e-08 -3.40579e-08 1.21229e-08)
(1.43925e-08 -4.14819e-08 1.52486e-08)
(1.62388e-08 -4.92201e-08 1.87591e-08)
(1.78459e-08 -5.73167e-08 2.2715e-08)
(1.91481e-08 -6.57443e-08 2.71381e-08)
(2.00315e-08 -7.43896e-08 3.19934e-08)
(2.03167e-08 -8.30274e-08 3.71604e-08)
(1.97386e-08 -9.12771e-08 4.24088e-08)
(1.79143e-08 -9.85057e-08 4.7416e-08)
(1.43568e-08 -1.03694e-07 5.18639e-08)
(8.70813e-09 -1.05382e-07 5.55426e-08)
(2.17458e-09 -1.02943e-07 5.81162e-08)
(1.98806e-09 -4.8157e-09 1.63444e-09)
(5.51655e-09 -1.34929e-08 4.6103e-09)
(8.68064e-09 -2.16377e-08 7.49037e-09)
(1.15456e-08 -2.9586e-08 1.04364e-08)
(1.41638e-08 -3.7608e-08 1.35849e-08)
(1.65693e-08 -4.59061e-08 1.70516e-08)
(1.87815e-08 -5.46186e-08 2.09299e-08)
(2.08014e-08 -6.38173e-08 2.52846e-08)
(2.26102e-08 -7.35023e-08 3.0137e-08)
(2.41698e-08 -8.35902e-08 3.54469e-08)
(2.54263e-08 -9.3892e-08 4.1076e-08)
(2.63154e-08 -1.04068e-07 4.67463e-08)
(2.67922e-08 -1.13559e-07 5.20371e-08)
(2.68623e-08 -1.21447e-07 5.64772e-08)
(2.65682e-08 -1.26281e-07 5.97096e-08)
(2.57342e-08 -1.26545e-07 6.16262e-08)