/*--------------------------------*- C++ -*----------------------------------*\
| =========                 |                                                 |
| \\      /  F ield         | OpenFOAM: The Open Source CFD Toolbox           |
|  \\    /   O peration     | Version:  v1912                                 |
|   \\  /    A nd           | Website:  www.openfoam.com                      |
|    \\/     M anipulation  |                                                 |
\*---------------------------------------------------------------------------*/
FoamFile
{
    version     2.0;
    format      ascii;
    class       volScalarField;
    location    "0.38/fluid";
    object      p;
}
// * * * * * * * * * * * * * * * * * * * * * * * * * * * * * * * * * * * * * //

dimensions      [0 2 -2 0 0 0 0];


internalField   nonuniform List<scalar> 
14592
(
0.0639009
0.0583592
0.0565117
0.0549328
0.0539513
0.053118
0.0523964
0.051747
0.0511202
0.0506032
0.0500367
0.0497433
0.0491534
0.0494412
0.0485965
0.0509821
0.0596655
0.0579455
0.0563072
0.0549798
0.0540149
0.0531877
0.0524611
0.0518135
0.0511936
0.0506932
0.0501493
0.0499034
0.0493618
0.0498166
0.0489945
0.0524072
0.0577363
0.0571085
0.0558809
0.0548724
0.0539714
0.0531742
0.0524463
0.0517965
0.0511759
0.0506824
0.0501554
0.0499528
0.0494664
0.0500769
0.0493253
0.0533011
0.0565188
0.0563387
0.0554618
0.0546781
0.0538642
0.0531097
0.0523909
0.0517416
0.0511176
0.0506253
0.0501064
0.049937
0.0494984
0.0502399
0.0496068
0.0538845
0.0557948
0.0557411
0.0550761
0.0544358
0.0536955
0.0529777
0.0522646
0.0516052
0.0509589
0.0504364
0.0498796
0.049675
0.0491932
0.0499483
0.0493117
0.0538187
0.0552964
0.0552858
0.0547562
0.0542057
0.0535208
0.0528299
0.0521202
0.0514493
0.0507817
0.0502328
0.0496507
0.0494374
0.0489683
0.049841
0.0493613
0.0543306
0.0549737
0.0549751
0.054514
0.0540076
0.0533487
0.0526625
0.0519373
0.0512313
0.0505086
0.0498766
0.0491778
0.0487939
0.0480751
0.0486276
0.0475917
0.0525558
0.0547784
0.054784
0.0543513
0.0538604
0.0532066
0.0525119
0.0517654
0.0510247
0.0502567
0.049565
0.0488042
0.0483565
0.0476139
0.0483184
0.0475432
0.0547961
0.0637838
0.0582439
0.0564334
0.0548959
0.0539688
0.0531965
0.0525448
0.0519756
0.0514412
0.051029
0.0505846
0.0503969
0.049944
0.0501192
0.0493658
0.0502557
0.0595485
0.0578285
0.056228
0.0549429
0.0540333
0.0532679
0.052612
0.0520455
0.051519
0.0511243
0.0507027
0.0505584
0.0501432
0.050429
0.0496442
0.0509888
0.0576162
0.056987
0.0557966
0.0548304
0.053985
0.05325
0.0525926
0.0520237
0.0514956
0.0511069
0.0506992
0.0505945
0.0502224
0.0506329
0.0498806
0.0515265
0.0563966
0.0562148
0.0553743
0.0546322
0.0538732
0.0531803
0.0525313
0.0519618
0.051429
0.0510405
0.0506385
0.0505658
0.0502334
0.050762
0.050095
0.0519392
0.0556696
0.0556141
0.0549845
0.0543846
0.053698
0.0530401
0.0523944
0.0518119
0.0512522
0.0508285
0.0503796
0.0502643
0.0498689
0.0504002
0.0496781
0.0517112
0.0551681
0.0551558
0.0546609
0.0541497
0.0535169
0.052884
0.0522392
0.0516422
0.0510573
0.0506037
0.0501238
0.0500006
0.0496097
0.0502773
0.0496849
0.0521847
0.0548416
0.0548414
0.0544141
0.0539456
0.0533368
0.0527058
0.0520414
0.0514037
0.0507552
0.0502077
0.0495929
0.049281
0.0485943
0.0489275
0.0476391
0.0501626
0.0546422
0.0546463
0.0542468
0.0537926
0.053187
0.0525449
0.0518557
0.0511787
0.0504789
0.0498658
0.0491811
0.0488089
0.048095
0.0486527
0.0476102
0.0525792
0.0637078
0.0581694
0.0563874
0.0548841
0.0540041
0.0532879
0.0527049
0.0522197
0.0517923
0.0515157
0.0512615
0.0513086
0.0512491
0.05181
0.0519422
0.0529862
0.0594727
0.0577527
0.0561816
0.0549314
0.0540698
0.0533614
0.0527752
0.0522941
0.0518765
0.0516201
0.051392
0.0514861
0.051471
0.0521379
0.0522818
0.0536737
0.0575375
0.0569071
0.0557455
0.0548142
0.054017
0.0533393
0.0527516
0.0522681
0.0518483
0.0515979
0.0513829
0.0515179
0.0515473
0.0523443
0.0525517
0.054223
0.0563155
0.0561323
0.0553199
0.054612
0.0539007
0.0532645
0.0526844
0.0521996
0.0517739
0.0515232
0.0513125
0.0514816
0.0515508
0.0524739
0.0527739
0.0546404
0.0555854
0.0555284
0.0549259
0.0543592
0.0537189
0.0531161
0.052537
0.0520361
0.0515792
0.0512881
0.0510219
0.0511417
0.0511304
0.0520512
0.0522581
0.0543059
0.0550807
0.0550669
0.0545984
0.0541192
0.0535313
0.0529516
0.0523706
0.051852
0.0513649
0.0510389
0.0507329
0.0508399
0.0508143
0.0518735
0.0521596
0.0546752
0.0547503
0.0547487
0.0543469
0.0539092
0.0533432
0.0527625
0.0521577
0.0515923
0.0510322
0.0505995
0.0501354
0.050026
0.0496395
0.050311
0.0497035
0.0521941
0.0545468
0.0545497
0.0541749
0.0537502
0.0531855
0.052591
0.0519573
0.051347
0.0507273
0.0502182
0.0496663
0.0494794
0.0490213
0.0499064
0.0494091
0.0543837
0.0636592
0.0581216
0.0563609
0.0548838
0.0540401
0.0533666
0.0528342
0.0524069
0.0520464
0.05184
0.051668
0.0517719
0.051797
0.0523046
0.0524943
0.0532652
0.0594242
0.0577039
0.0561548
0.0549314
0.0541067
0.0534416
0.0529067
0.0524842
0.0521342
0.0519486
0.0518027
0.0519511
0.0520158
0.0526072
0.0527921
0.0538084
0.0574862
0.0568546
0.0557145
0.0548098
0.0540498
0.0534156
0.0528791
0.0524538
0.0521007
0.0519198
0.0517838
0.0519681
0.0520668
0.0527685
0.0529944
0.0542353
0.056262
0.0560773
0.0552858
0.054604
0.0539294
0.0533363
0.0528066
0.0523793
0.0520191
0.0518367
0.0517023
0.0519184
0.052049
0.0528675
0.0531642
0.0545785
0.0555288
0.0554703
0.0548879
0.0543464
0.0537417
0.0531807
0.0526504
0.0522048
0.05181
0.0515837
0.0513874
0.0515491
0.0515853
0.0523935
0.0525653
0.0541512
0.055021
0.0550058
0.0545567
0.0541019
0.0535483
0.0530089
0.0524748
0.0520093
0.0515812
0.0513174
0.0510762
0.0512241
0.0512364
0.0521868
0.0524112
0.0544648
0.0546871
0.0546841
0.054301
0.0538866
0.0533534
0.0528109
0.0522499
0.0517338
0.051227
0.05085
0.0504397
0.0503627
0.0499892
0.0505452
0.0498085
0.0518291
0.0544798
0.0544815
0.0541248
0.0537225
0.0531891
0.0526308
0.0520381
0.0514737
0.0509028
0.0504453
0.0499408
0.0497863
0.0493319
0.0501225
0.0494688
0.053994
0.0636307
0.0580937
0.0563496
0.0548933
0.0540794
0.0534422
0.0529548
0.0525813
0.0522871
0.0521569
0.0520836
0.0522845
0.052456
0.0530426
0.053425
0.0541246
0.0593958
0.0576753
0.0561433
0.0549413
0.0541471
0.0535189
0.0530297
0.052662
0.0523796
0.0522718
0.0522268
0.0524734
0.0526864
0.0533507
0.0537309
0.0546295
0.0574554
0.056823
0.0556996
0.0548162
0.0540867
0.0534897
0.0529989
0.0526283
0.0523423
0.0522386
0.0522015
0.052482
0.0527236
0.053489
0.0539011
0.055002
0.0562292
0.0560436
0.0552681
0.0546072
0.0539627
0.0534064
0.052922
0.0525487
0.0522545
0.0521487
0.0521114
0.0524225
0.0526916
0.0535703
0.0540422
0.0553083
0.0554934
0.0554338
0.0548669
0.0543455
0.05377
0.0532447
0.052758
0.0523645
0.0520329
0.0518799
0.0517752
0.0520276
0.0521912
0.0530537
0.0533778
0.0548101
0.0549829
0.0549666
0.0545324
0.054097
0.0535715
0.0530664
0.0525741
0.0521585
0.0517904
0.0515966
0.0514413
0.0516764
0.0518047
0.0528068
0.0531567
0.0550538
0.0546457
0.0546418
0.054273
0.053877
0.0533705
0.0528604
0.0523384
0.0518685
0.0514162
0.0511027
0.0507672
0.0507667
0.0504836
0.0510758
0.050401
0.0522452
0.0544353
0.0544361
0.0540931
0.0537084
0.0532003
0.0526724
0.0521161
0.0515944
0.0510728
0.0506729
0.0502333
0.0501476
0.0497639
0.050586
0.0499459
0.0542924
0.0636145
0.0580779
0.0563453
0.0549037
0.0541105
0.0534981
0.0530404
0.0527
0.0524436
0.0523505
0.0523188
0.0525439
0.0527498
0.0533122
0.0537077
0.0543424
0.0593797
0.057659
0.0561389
0.0549519
0.0541789
0.0535759
0.0531168
0.0527826
0.0525385
0.0524681
0.0524648
0.0527347
0.0529803
0.0536133
0.0540016
0.0548073
0.0574374
0.0568042
0.0556924
0.054824
0.0541158
0.0535441
0.0530833
0.0527461
0.0524977
0.0524305
0.052433
0.0527336
0.0530017
0.0537263
0.0541347
0.0551277
0.0562097
0.0560231
0.0552589
0.0546126
0.0539891
0.0534578
0.0530029
0.0526627
0.0524053
0.0523351
0.0523357
0.0526652
0.052956
0.0537889
0.054246
0.0553989
0.0554717
0.0554111
0.0548549
0.0543476
0.0537924
0.0532914
0.0528332
0.0524716
0.0521748
0.0520557
0.0519853
0.0522534
0.0524315
0.0532439
0.0535376
0.0548538
0.054959
0.0549419
0.054518
0.054096
0.0535901
0.0531084
0.0526434
0.0522583
0.0519232
0.0517618
0.0516379
0.0518875
0.052024
0.0529751
0.0532796
0.05506
0.0546194
0.0546145
0.0542557
0.0538725
0.0533846
0.0528966
0.0524003
0.0519588
0.0515366
0.0512523
0.050943
0.0509537
0.0506683
0.0512055
0.0504562
0.0521729
0.0544064
0.0544064
0.0540729
0.0537004
0.05321
0.0527031
0.0521707
0.0516755
0.0511815
0.0508085
0.0503914
0.050316
0.049924
0.0506949
0.0499638
0.0541834
0.0636065
0.0580701
0.0563452
0.0549137
0.0541347
0.0535399
0.0531038
0.0527887
0.0525624
0.0525017
0.0525091
0.0527666
0.0530167
0.0535908
0.0540221
0.0546261
0.0593718
0.057651
0.0561389
0.0549621
0.0542037
0.0536187
0.0531815
0.0528731
0.0526598
0.0526226
0.0526593
0.0529623
0.0532527
0.0538952
0.0543191
0.0550795
0.0574283
0.0567946
0.0556906
0.0548323
0.0541389
0.0535852
0.0531464
0.0528349
0.052617
0.0525826
0.0526241
0.0529562
0.0532659
0.0539952
0.0544329
0.0553727
0.0561994
0.0560123
0.0552556
0.0546192
0.0540102
0.0534968
0.0530637
0.0527488
0.0525214
0.0524836
0.052522
0.0528823
0.0532118
0.054047
0.0545271
0.055624
0.0554599
0.0553988
0.0548498
0.054352
0.0538109
0.0533271
0.05289
0.0525528
0.0522847
0.0521964
0.0521614
0.0524583
0.0526703
0.0534819
0.0537888
0.0550472
0.0549457
0.054928
0.054511
0.0540982
0.0536058
0.0531407
0.0526958
0.0523341
0.0520262
0.0518941
0.051803
0.0520796
0.052245
0.0531932
0.0534997
0.0552217
0.0546043
0.054599
0.0542467
0.0538722
0.0533971
0.0529248
0.0524472
0.0520275
0.0516301
0.0513726
0.0510918
0.051126
0.0508609
0.0513903
0.0506219
0.0522711
0.0543896
0.0543891
0.0540619
0.0536977
0.0532194
0.0527271
0.0522123
0.0517372
0.0512656
0.0509169
0.0505245
0.0504697
0.050091
0.0508521
0.0500864
0.0542378
0.0636029
0.0580673
0.0563454
0.0549188
0.0541464
0.0535595
0.0531328
0.0528278
0.0526128
0.0525622
0.0525804
0.0528424
0.0530989
0.053664
0.0540963
0.0546883
0.0593687
0.0576475
0.0561392
0.0549673
0.0542156
0.0536385
0.0532108
0.0529126
0.0527104
0.0526831
0.0527302
0.0530366
0.0533322
0.0539633
0.0543869
0.0551304
0.0574242
0.0567904
0.05569
0.0548365
0.0541498
0.0536041
0.0531746
0.0528732
0.052666
0.0526411
0.0526919
0.0530262
0.0533386
0.0540534
0.0544874
0.0554073
0.0561949
0.0560074
0.0552543
0.0546224
0.0540202
0.0535146
0.0530907
0.0527857
0.0525689
0.0525402
0.0525873
0.0529491
0.0532799
0.054099
0.054572
0.0556478
0.0554546
0.0553931
0.0548476
0.0543541
0.0538195
0.0533434
0.0529152
0.0525875
0.0523294
0.0522499
0.0522229
0.0525207
0.0527322
0.0535267
0.0538226
0.0550588
0.0549397
0.0549216
0.0545079
0.0540993
0.0536131
0.0531554
0.0527191
0.0523665
0.0520682
0.0519444
0.0518605
0.0521378
0.052301
0.0532313
0.0535216
0.0552201
0.0545974
0.0545917
0.0542426
0.0538721
0.0534029
0.0529376
0.0524681
0.052057
0.0516684
0.0514187
0.0511441
0.0511787
0.0509096
0.0514206
0.0506294
0.0522516
0.0543818
0.054381
0.0540568
0.0536964
0.0532237
0.0527381
0.0522308
0.0517638
0.0513004
0.0509589
0.0505717
0.0505169
0.0501324
0.0508742
0.0500791
0.0541989
0.0734572
0.062796
0.0592242
0.0562671
0.0544876
0.0530111
0.0517608
0.0505771
0.0493961
0.0481879
0.0468692
0.0454735
0.0438405
0.0421196
0.0400119
0.0379127
0.069152
0.0619973
0.0588041
0.0561495
0.054442
0.0530043
0.0517678
0.0505938
0.0494212
0.0482218
0.0469124
0.0455289
0.0439093
0.0422056
0.0401106
0.0380205
0.0671944
0.0609997
0.0582104
0.0558825
0.0542942
0.0529296
0.0517226
0.0505662
0.0494039
0.0482128
0.0469135
0.0455423
0.0439402
0.0422555
0.0401836
0.0381107
0.0659264
0.060169
0.0577142
0.0556143
0.0541385
0.0528401
0.051663
0.0505221
0.049367
0.0481801
0.046886
0.0455212
0.0439313
0.0422608
0.0402103
0.038156
0.0651732
0.0595502
0.0572959
0.0553431
0.0539582
0.052717
0.0515685
0.0504416
0.0492915
0.0481049
0.0468113
0.0454469
0.0438648
0.0422037
0.0401773
0.038147
0.0646629
0.0590921
0.0569687
0.0551099
0.0537919
0.0525932
0.0514669
0.0503493
0.0492014
0.0480127
0.0467182
0.045353
0.0437799
0.0421299
0.0401349
0.0381342
0.0643429
0.0587893
0.0567345
0.0549261
0.0536468
0.0524721
0.0513567
0.05024
0.0490879
0.0478902
0.046588
0.0452137
0.043643
0.0419965
0.0400347
0.0380667
0.0641612
0.0586133
0.0565886
0.0548013
0.0535376
0.052371
0.0512562
0.050134
0.0489741
0.047766
0.046457
0.0450759
0.0435134
0.0418766
0.0399573
0.0380275
0.0691467
0.0619885
0.0587896
0.0561294
0.0544161
0.052973
0.0517335
0.0505524
0.0493652
0.0481497
0.0468189
0.0454138
0.0437613
0.0420338
0.039892
0.0378009
0.0648873
0.0615009
0.0584919
0.0560811
0.0544076
0.0529869
0.0517522
0.0505742
0.0493882
0.0481752
0.0468482
0.0454491
0.0438044
0.0420878
0.0399567
0.037878
0.062929
0.0605828
0.0579604
0.0558684
0.0542921
0.0529299
0.051716
0.0505495
0.0493695
0.0481617
0.0468424
0.0454531
0.0438243
0.0421246
0.0400148
0.0379512
0.0616723
0.059764
0.0574866
0.0556226
0.0541522
0.052851
0.0516628
0.0505091
0.0493347
0.0481303
0.0468159
0.045433
0.0438167
0.0421313
0.0400429
0.0379978
0.0609248
0.0591415
0.0570742
0.055359
0.053978
0.0527321
0.0515712
0.0504306
0.0492611
0.0480573
0.0467439
0.045362
0.0437541
0.0420787
0.0400152
0.0379937
0.0604169
0.0586784
0.056748
0.0551285
0.0538148
0.0526109
0.0514718
0.0503412
0.0491747
0.0479697
0.0466569
0.0452758
0.0436793
0.0420168
0.0399873
0.0379955
0.0600983
0.0583731
0.0565144
0.0549463
0.0536716
0.0524914
0.0513631
0.0502343
0.0490641
0.047851
0.0465316
0.0451423
0.0435499
0.0418917
0.0398985
0.0379387
0.0599172
0.0581963
0.0563692
0.0548229
0.0535644
0.0523919
0.0512645
0.0501313
0.0489545
0.0477324
0.0464082
0.0450144
0.0434336
0.0417877
0.0398421
0.0379208
0.0671983
0.0610007
0.0582125
0.0558869
0.0543046
0.0529515
0.0517601
0.0506159
0.0494576
0.0482729
0.0469619
0.045583
0.043911
0.042181
0.03989
0.037733
0.0629406
0.0605957
0.0579817
0.0558988
0.0543355
0.0529916
0.0517968
0.050651
0.0494923
0.0483099
0.0470034
0.0456318
0.0439689
0.0422518
0.0399703
0.0378248
0.0609905
0.0597371
0.0575185
0.0557523
0.0542644
0.0529624
0.0517771
0.0506361
0.0494798
0.048301
0.0470019
0.0456404
0.0439942
0.042294
0.0400308
0.0378958
0.0597482
0.0589423
0.0570758
0.0555375
0.0541467
0.0528979
0.0517325
0.0506005
0.0494476
0.0482709
0.0469766
0.0456219
0.0439897
0.0423056
0.0400651
0.0379496
0.0590098
0.05833
0.0566787
0.0552895
0.0539839
0.0527858
0.0516436
0.0505217
0.049371
0.0481926
0.0468975
0.0455419
0.0439175
0.0422426
0.0400301
0.037941
0.0585065
0.0578699
0.0563582
0.055065
0.053825
0.0526665
0.0515439
0.0504299
0.0492805
0.0480993
0.0468039
0.0454487
0.0438378
0.0421785
0.0400096
0.0379573
0.0581897
0.0575652
0.0561264
0.0548844
0.0536824
0.0525455
0.0514317
0.0503172
0.0491612
0.0479683
0.0466626
0.0452943
0.0436852
0.0420263
0.0399042
0.0378897
0.0580084
0.0573876
0.0559809
0.0547607
0.0535741
0.0524434
0.0513289
0.0502083
0.0490438
0.0478394
0.0465273
0.0451525
0.0435576
0.0419134
0.0398568
0.0378919
0.065937
0.0601768
0.0577343
0.0556505
0.0542
0.0529365
0.0518011
0.0507043
0.0495853
0.0484437
0.0471615
0.0458227
0.0441256
0.0424012
0.0398824
0.037642
0.0616915
0.0597841
0.0575275
0.055687
0.0542497
0.0529902
0.0518471
0.0507465
0.0496264
0.0484874
0.0472107
0.0458816
0.0441964
0.0424914
0.0399849
0.0377609
0.0597552
0.0589485
0.0570944
0.0555707
0.0542005
0.0529754
0.0518359
0.0507363
0.0496166
0.0484803
0.0472112
0.0458932
0.0442262
0.0425391
0.0400446
0.0378212
0.0585253
0.0581683
0.0566674
0.0553714
0.0540941
0.0529182
0.0517951
0.0507021
0.0495843
0.0484494
0.0471851
0.045875
0.0442239
0.0425558
0.0400846
0.0378814
0.0577953
0.0575649
0.0562796
0.0551322
0.0539373
0.0528092
0.0517062
0.0506203
0.0495021
0.0483627
0.0470952
0.0457814
0.0441365
0.0424757
0.0400356
0.0378621
0.0572966
0.0571091
0.0559631
0.0549112
0.0537802
0.05269
0.0516047
0.0505246
0.0494056
0.0482616
0.0469929
0.0456788
0.0440503
0.0424091
0.0400269
0.0379015
0.0569816
0.0568059
0.0557325
0.0547312
0.0536368
0.0525665
0.0514876
0.0504037
0.0492746
0.0481138
0.0468294
0.0454945
0.0438634
0.0422149
0.0398941
0.0378136
0.0568
0.0566279
0.0555864
0.0546063
0.0535263
0.0524609
0.0513797
0.0502873
0.0491471
0.0479718
0.0466789
0.0453352
0.0437227
0.0420929
0.0398668
0.037856
0.0651893
0.0595644
0.0573413
0.0554286
0.0541027
0.0529366
0.051878
0.0508546
0.0498061
0.0487473
0.0475385
0.0462996
0.0446238
0.0429721
0.0401622
0.0378149
0.0609498
0.0591675
0.0571405
0.0554736
0.0541603
0.0529971
0.0519299
0.0509031
0.0498545
0.0488005
0.0476
0.046376
0.0447181
0.0430978
0.0403041
0.0379734
0.0590218
0.0583405
0.0567213
0.0553721
0.0541227
0.0529903
0.0519235
0.0508957
0.0498466
0.0487953
0.0476037
0.0463935
0.0447566
0.043157
0.0403636
0.0380152
0.0578004
0.0575692
0.0563035
0.0551816
0.0540228
0.052937
0.051884
0.0508609
0.0498124
0.048762
0.0475758
0.0463757
0.0447581
0.0431836
0.0404149
0.0380896
0.0570764
0.0569723
0.055922
0.054948
0.0538692
0.0528284
0.0517922
0.0507728
0.0497204
0.0486616
0.0474681
0.0462599
0.0446454
0.0430764
0.0403439
0.0380583
0.0565811
0.0565199
0.0556084
0.0547289
0.0537122
0.0527072
0.0516859
0.0506691
0.0496128
0.048546
0.0473487
0.0461386
0.0445435
0.0430013
0.0403497
0.0381384
0.0562669
0.0562175
0.055378
0.054548
0.053566
0.0525783
0.0515598
0.0505344
0.0494617
0.0483696
0.0471463
0.0459009
0.0442913
0.0427255
0.0401537
0.0380035
0.0560841
0.0560383
0.0552301
0.0544205
0.0534512
0.0524665
0.0514426
0.0504046
0.049316
0.0482031
0.0469658
0.0457045
0.0441155
0.0425725
0.0401381
0.0381048
0.0646692
0.0590973
0.0570286
0.0552397
0.0540216
0.0529468
0.0519681
0.0510243
0.0500539
0.0490869
0.0479588
0.0468282
0.0451621
0.0435718
0.0403101
0.0377657
0.0604319
0.0586937
0.0568275
0.0552866
0.054082
0.0530102
0.0520234
0.0510769
0.0501077
0.0491477
0.048031
0.0469219
0.045281
0.0437378
0.0404786
0.0378954
0.058507
0.0578672
0.0564112
0.0551887
0.0540473
0.0530051
0.0520175
0.0510692
0.0500992
0.0491424
0.048036
0.0469439
0.0453255
0.0438024
0.0405051
0.0378362
0.0572899
0.0570995
0.0559965
0.0550008
0.0539487
0.0529518
0.0519764
0.0510314
0.0500609
0.0491048
0.0480042
0.046925
0.0453288
0.0438373
0.0405581
0.0379051
0.0565689
0.0565054
0.0556171
0.0547682
0.0537946
0.0528404
0.051879
0.0509344
0.0499563
0.0489872
0.047874
0.046781
0.045182
0.0436929
0.040455
0.0378597
0.0560749
0.0560544
0.0553041
0.0545485
0.0536356
0.0527151
0.0517659
0.050821
0.0498356
0.0488552
0.0477355
0.0466395
0.0450649
0.0436164
0.0404976
0.0380289
0.0557603
0.0557516
0.0550725
0.0543651
0.053485
0.0525793
0.051629
0.0506701
0.0496613
0.0486454
0.047487
0.0463372
0.0447307
0.0432363
0.0402283
0.0378596
0.0555754
0.0555705
0.0549222
0.054234
0.053365
0.05246
0.0515012
0.0505255
0.0494958
0.0484528
0.0472751
0.0461044
0.0445262
0.043075
0.0402857
0.0381567
0.0643198
0.0587667
0.0567985
0.055099
0.0539732
0.052987
0.0520973
0.051252
0.0503919
0.0495678
0.0486024
0.0477107
0.0462544
0.0450273
0.0415833
0.0390736
0.0600838
0.0583587
0.0565963
0.0551465
0.054035
0.0530528
0.0521561
0.0513096
0.0504529
0.0496393
0.0486898
0.047829
0.0464083
0.0452532
0.0417916
0.0391237
0.0581592
0.0575299
0.0561786
0.0550477
0.0539994
0.0530466
0.0521485
0.0513
0.0504426
0.0496335
0.0486966
0.0478594
0.0464668
0.0453434
0.0418091
0.0389703
0.0569436
0.0567631
0.0557642
0.0548594
0.0538995
0.0529909
0.0521039
0.0512576
0.0503988
0.0495904
0.0486604
0.0478413
0.0464774
0.0454031
0.041887
0.0390563
0.0562232
0.0561696
0.0553843
0.0546252
0.0537422
0.052874
0.0519982
0.0511487
0.0502776
0.0494507
0.0485009
0.047661
0.0462857
0.045214
0.0417448
0.039008
0.055729
0.0557183
0.0550703
0.0544033
0.0535792
0.0527423
0.0518757
0.0510221
0.0501392
0.0492959
0.0483344
0.0474889
0.0461395
0.045128
0.0418232
0.0393112
0.0554126
0.0554137
0.054836
0.0542157
0.0534224
0.0525969
0.0517244
0.05085
0.0499338
0.0490402
0.0480183
0.0470866
0.0456625
0.0445521
0.0413515
0.0390133
0.0552248
0.0552299
0.0546821
0.0540797
0.0532957
0.0524679
0.0515826
0.0506854
0.0497405
0.048809
0.0477551
0.0467875
0.0453831
0.0443297
0.0414261
0.0395953
0.0640706
0.0585251
0.0566273
0.0549952
0.0539465
0.0530386
0.0522308
0.0514764
0.0507165
0.0500147
0.0491806
0.0484573
0.0471169
0.0460207
0.0420952
0.0388039
0.0598349
0.0581135
0.0564237
0.0550423
0.054009
0.0531062
0.0522922
0.0515378
0.0507828
0.050094
0.0492787
0.0485927
0.0472883
0.0462613
0.0421683
0.0380846
0.0579084
0.0572808
0.0560021
0.0549397
0.0539698
0.0530967
0.0522813
0.0515248
0.0507688
0.0500852
0.0492832
0.0486244
0.047344
0.0463369
0.0420556
0.0373978
0.0566923
0.056513
0.0555858
0.0547489
0.0538667
0.0530371
0.0522318
0.0514764
0.050718
0.050035
0.0492397
0.0486026
0.0473522
0.0464016
0.0421148
0.0373684
0.0559707
0.055918
0.0552035
0.0545112
0.0537043
0.0529132
0.0521165
0.0513546
0.0505792
0.0498721
0.0490487
0.0483831
0.0471082
0.0461582
0.0419205
0.0373102
0.0554748
0.0554651
0.054887
0.0542857
0.0535361
0.0527742
0.0519838
0.0512145
0.0504234
0.0496958
0.0488564
0.048186
0.0469418
0.0460857
0.0420832
0.0378303
0.0551556
0.0551578
0.054649
0.0540933
0.0533722
0.0526185
0.0518179
0.0510213
0.0501873
0.0493959
0.0484751
0.0476891
0.0463251
0.0453217
0.0414202
0.0374152
0.0549643
0.0549706
0.054491
0.0539521
0.0532385
0.0524794
0.0516623
0.0508378
0.0499687
0.0491317
0.0481712
0.0473475
0.0460155
0.0451461
0.0417128
0.0386558
0.0547026
0.0547095
0.0542689
0.0537656
0.0530914
0.0523672
0.0515797
0.0507795
0.0499295
0.049107
0.0481557
0.0473364
0.0459999
0.0451197
0.0416509
0.0385442
0.0547525
0.0547585
0.0542772
0.0537362
0.0530216
0.0522565
0.0514259
0.0505738
0.0496648
0.0487611
0.0477256
0.0467688
0.0453618
0.0442979
0.0413572
0.0394879
0.0549333
0.054929
0.054366
0.0537596
0.052983
0.0521616
0.0512774
0.0503637
0.0493837
0.048379
0.0472271
0.0460716
0.0444927
0.043031
0.0402062
0.0380419
0.0553095
0.0552644
0.0545539
0.053841
0.0529837
0.0520993
0.0511655
0.0502028
0.049175
0.0481091
0.0469043
0.0456628
0.0440768
0.0425258
0.0400616
0.0379969
0.055922
0.0557506
0.0548162
0.0539434
0.0529896
0.0520389
0.0510593
0.0500524
0.0489816
0.04786
0.0466049
0.0452846
0.0436786
0.0420433
0.0397928
0.0377541
0.0570606
0.0564419
0.0551501
0.0540462
0.0529948
0.051989
0.0509846
0.0499552
0.0488654
0.047719
0.0464479
0.045099
0.043513
0.0418652
0.0397883
0.0377981
0.058919
0.0572029
0.0554975
0.0540737
0.0529566
0.0519133
0.050902
0.0498656
0.0487674
0.0476062
0.0463252
0.0449591
0.0433889
0.0417411
0.0397781
0.0378336
0.0631619
0.0576273
0.0557259
0.0540607
0.0529375
0.0518965
0.0508976
0.0498749
0.0487931
0.0476454
0.046379
0.0450248
0.0434726
0.0418332
0.0398965
0.037943
0.0545617
0.0545673
0.0541591
0.0536912
0.0530631
0.0523881
0.0516531
0.0509095
0.0501172
0.0493583
0.0484592
0.0476868
0.0463182
0.0453002
0.0413355
0.0372496
0.0546071
0.0546119
0.0541625
0.0536557
0.0529852
0.0522667
0.0514847
0.0506841
0.0498262
0.0489781
0.0479869
0.0470744
0.0456472
0.0445219
0.0412578
0.038856
0.0547832
0.0547779
0.0542463
0.0536731
0.0529384
0.0521608
0.0513211
0.0504528
0.0495158
0.0485555
0.0474346
0.0463075
0.0446996
0.04319
0.0401249
0.0377017
0.055155
0.0551091
0.0544295
0.0537495
0.0529327
0.0520897
0.0511974
0.0502759
0.0492862
0.0482582
0.0470791
0.0458611
0.0442548
0.0426773
0.0400592
0.0378617
0.0557637
0.0555916
0.0546877
0.0538471
0.0529327
0.0520214
0.0510803
0.0501106
0.0490731
0.0479832
0.0467483
0.0454446
0.0438212
0.0421647
0.0398074
0.0376869
0.0568995
0.0562805
0.0550192
0.053947
0.0529342
0.0519668
0.0509995
0.0500049
0.0489462
0.0478283
0.0465756
0.0452411
0.0436432
0.0419793
0.0398279
0.037778
0.0587565
0.0570409
0.0553658
0.0539733
0.0528936
0.0518872
0.0509116
0.0499085
0.0488395
0.0477045
0.0464405
0.0450869
0.0435083
0.0418474
0.0398303
0.0378389
0.0629996
0.0574673
0.0555962
0.0539621
0.0528765
0.0518719
0.0509091
0.0499211
0.0488695
0.0477494
0.046502
0.0451627
0.0436055
0.041956
0.0399706
0.0379705
0.0544618
0.0544662
0.054082
0.0536423
0.0530528
0.0524219
0.0517371
0.0510521
0.0503268
0.0496517
0.0488482
0.0482021
0.0469517
0.0460732
0.0419593
0.037561
0.0545028
0.0545067
0.0540805
0.0536007
0.0529669
0.0522896
0.0515533
0.0508048
0.0500043
0.0492259
0.0483087
0.0474924
0.0461382
0.0451045
0.0416935
0.039073
0.0546747
0.0546685
0.0541597
0.0536123
0.052912
0.0521725
0.051374
0.0505506
0.0496608
0.0487546
0.0476854
0.046621
0.045043
0.043572
0.0403627
0.037809
0.0550426
0.0549959
0.0543387
0.053684
0.0529
0.0520925
0.0512378
0.0503561
0.0494065
0.0484224
0.0472822
0.0461081
0.0445162
0.0429573
0.0402355
0.0379544
0.0556479
0.0554752
0.0545932
0.0537769
0.0528943
0.0520163
0.0511096
0.0501751
0.0491716
0.0481169
0.0469105
0.0456363
0.0440169
0.0423646
0.0399297
0.037748
0.0567813
0.0561619
0.0549225
0.0538743
0.0528921
0.051957
0.0510223
0.0500599
0.0490318
0.0479442
0.046715
0.0454026
0.0438054
0.0421396
0.0399304
0.0378302
0.0586369
0.0569216
0.0552682
0.0538993
0.0528491
0.0518736
0.050929
0.0499562
0.0489152
0.047807
0.046563
0.0452269
0.0436478
0.0419825
0.0399215
0.0378884
0.0628804
0.0573497
0.0555003
0.0538898
0.052834
0.0518594
0.0509279
0.0499715
0.0489486
0.0478563
0.04663
0.0453092
0.0437534
0.0421003
0.0400746
0.0380324
0.0543909
0.0543941
0.0540274
0.0536091
0.0530491
0.052452
0.0518048
0.0511609
0.0504776
0.0498457
0.0490762
0.048451
0.0471716
0.0461938
0.0417765
0.0369209
0.0544281
0.054431
0.0540217
0.0535622
0.0529567
0.052311
0.0516095
0.0508983
0.050135
0.0493946
0.0485057
0.047709
0.0463296
0.0452307
0.0415979
0.0386902
0.0545963
0.0545893
0.054097
0.053569
0.0528952
0.0521853
0.0514183
0.0506282
0.0497703
0.0488956
0.0478476
0.0467973
0.0451942
0.0436761
0.0403035
0.0375828
0.0549609
0.0549135
0.0542724
0.0536367
0.0528782
0.0520983
0.051273
0.0504214
0.0495001
0.0485435
0.0474211
0.0462595
0.0446488
0.0430589
0.0402263
0.037843
0.0555634
0.05539
0.0545239
0.053726
0.0528679
0.052016
0.0511365
0.0502292
0.0492508
0.0482197
0.0470283
0.0457643
0.0441304
0.042456
0.0399434
0.0376941
0.0566948
0.0560751
0.0548514
0.0538213
0.0528629
0.0519533
0.0510443
0.0501076
0.0491028
0.048037
0.0468218
0.045519
0.0439118
0.0422294
0.0399637
0.0378122
0.0585494
0.0568342
0.0551964
0.0538453
0.0528179
0.0518668
0.0509473
0.0499988
0.0489799
0.047892
0.0466614
0.0453345
0.0437485
0.0420706
0.0399673
0.0378935
0.0627931
0.0572635
0.0554299
0.0538373
0.0528046
0.051854
0.0509478
0.0500169
0.0490171
0.0479462
0.046735
0.0454252
0.0438651
0.0422017
0.0401371
0.0380544
0.0543429
0.0543453
0.0539917
0.05359
0.0530539
0.052485
0.0518706
0.0512648
0.0506238
0.0500401
0.04932
0.0487452
0.0474945
0.0465092
0.0419307
0.0367521
0.0543768
0.054379
0.0539823
0.0535386
0.0529556
0.0523361
0.0516646
0.0509873
0.0502606
0.0495611
0.0487114
0.0479544
0.0465898
0.0454838
0.0417187
0.0386128
0.0545419
0.0545344
0.0540542
0.0535411
0.0528883
0.0522026
0.0514626
0.0507022
0.049875
0.0490337
0.0480149
0.046993
0.0453938
0.0438664
0.0403901
0.0375477
0.0549038
0.0548558
0.0542266
0.0536055
0.0528668
0.0521093
0.0513086
0.0504834
0.0495887
0.0486598
0.0475604
0.04642
0.0448093
0.043211
0.0403041
0.0378427
0.055504
0.0553302
0.0544755
0.0536915
0.0528525
0.0520215
0.0511644
0.0502806
0.0493252
0.0483172
0.0471437
0.0458955
0.0442597
0.0425774
0.0400108
0.0377077
0.0566338
0.0560138
0.0548015
0.053785
0.0528451
0.0519555
0.0510676
0.0501527
0.0491688
0.0481234
0.0469236
0.0456335
0.0440243
0.0423343
0.0400275
0.0378341
0.0584874
0.0567723
0.0551458
0.053808
0.0527981
0.0518664
0.0509674
0.050039
0.0490395
0.04797
0.0467531
0.0454371
0.0438495
0.042165
0.0400301
0.0379223
0.0627313
0.0572026
0.0553805
0.0538013
0.0527863
0.0518545
0.0509688
0.0500592
0.0490793
0.0480276
0.046831
0.0455331
0.0439728
0.0423036
0.0402094
0.0380928
0.0543113
0.054313
0.0539685
0.0535785
0.053059
0.0525096
0.0519172
0.0513353
0.0507184
0.0501579
0.0494547
0.0488861
0.0476145
0.04657
0.041835
0.0364164
0.0543428
0.0543444
0.0539563
0.0535237
0.0529564
0.0523552
0.0517039
0.0510485
0.0503432
0.0496644
0.0488286
0.0480775
0.0466937
0.0455437
0.0416583
0.0384029
0.0545055
0.0544974
0.0540257
0.0535231
0.052885
0.0522162
0.0514948
0.0507539
0.0499455
0.0491219
0.0481142
0.0470973
0.0454812
0.0439218
0.0403565
0.0374188
0.0548653
0.0548169
0.0541959
0.053585
0.0528603
0.0521187
0.0513351
0.0505277
0.0496498
0.0487366
0.0476468
0.0465113
0.0448877
0.0432667
0.0402969
0.0377731
0.0554637
0.0552895
0.0544428
0.0536687
0.0528431
0.052027
0.0511858
0.0503183
0.0493779
0.0483838
0.047219
0.0459754
0.0443302
0.0426318
0.0400202
0.0376739
0.0565923
0.0559721
0.0547677
0.0537608
0.0528342
0.0519589
0.0510861
0.0501865
0.0492168
0.0481844
0.0469929
0.0457078
0.0440918
0.0423897
0.040049
0.0378218
0.0584453
0.0567301
0.0551115
0.0537831
0.0527856
0.051868
0.0509838
0.0500699
0.0490838
0.0480267
0.046818
0.0455072
0.043915
0.0422213
0.0400603
0.0379253
0.0626893
0.0571611
0.055347
0.0537774
0.052775
0.0518569
0.0509861
0.0500919
0.0491262
0.0480876
0.0469002
0.0456086
0.0440452
0.0423681
0.0402494
0.0381056
0.0542926
0.0542939
0.0539554
0.0535731
0.0530649
0.0525292
0.0519528
0.0513889
0.0507916
0.050252
0.0495681
0.049015
0.0477448
0.0466787
0.041857
0.036278
0.0543224
0.0543236
0.0539412
0.0535159
0.0529593
0.0523707
0.051734
0.0510948
0.0504067
0.0497458
0.0489256
0.0481869
0.0468016
0.0456348
0.0416806
0.0383275
0.0544834
0.0544751
0.0540088
0.0535131
0.0528849
0.0522278
0.0515195
0.050793
0.0499993
0.0491907
0.0481953
0.0471881
0.045569
0.0439968
0.0403797
0.0373789
0.0548418
0.0547931
0.0541775
0.0535733
0.0528579
0.0521271
0.0513555
0.050561
0.0496959
0.0487955
0.0477157
0.0465878
0.0449611
0.0433305
0.0403234
0.037758
0.055439
0.0552646
0.054423
0.0536553
0.0528387
0.0520326
0.0512024
0.0503464
0.0494174
0.0484343
0.0472776
0.0460402
0.0443924
0.0426869
0.0400481
0.0376727
0.0565668
0.0559464
0.0547472
0.0537466
0.0528287
0.051963
0.0511004
0.0502116
0.0492522
0.0482298
0.0470456
0.0457657
0.0441477
0.0424398
0.0400781
0.0378281
0.0584192
0.0567041
0.0550905
0.0537683
0.0527789
0.0518707
0.0509965
0.0500926
0.0491162
0.0480683
0.0468663
0.0455603
0.0439668
0.0422684
0.0400909
0.0379374
0.0626634
0.0571356
0.0553266
0.0537632
0.0527691
0.0518601
0.0509994
0.0501158
0.04916
0.0481311
0.0469509
0.0456647
0.0441006
0.0424193
0.040285
0.0381227
0.0542839
0.0542848
0.0539492
0.0535706
0.0530677