/*--------------------------------*- C++ -*----------------------------------*\
| =========                 |                                                 |
| \\      /  F ield         | OpenFOAM: The Open Source CFD Toolbox           |
|  \\    /   O peration     | Version:  v1912                                 |
|   \\  /    A nd           | Website:  www.openfoam.com                      |
|    \\/     M anipulation  |                                                 |
\*---------------------------------------------------------------------------*/
FoamFile
{
    version     2.0;
    format      ascii;
    class       pointVectorField;
    location    "0.38/fluid";
    object      pointMotionU;
}
// * * * * * * * * * * * * * * * * * * * * * * * * * * * * * * * * * * * * * //

dimensions      [0 1 -1 0 0 0 0];


internalField   nonuniform List<vector> 
16859
(
(0 0 0)
(0 0 0)
(0 0 0)
(0 0 0)
(0 0 0)
(0 0 0)
(0 0 0)
(0 0 0)
(0 0 0)
(0 0 0)
(0 0 0)
(0 0 0)
(0 0 0)
(0 0 0)
(0 0 0)
(0 0 0)
(2.75626e-08 4.68456e-08 2.60749e-08)
(0 0 0)
(6.92988e-10 -1.63986e-09 1.27052e-09)
(1.32073e-09 -3.13816e-09 2.47404e-09)
(1.90583e-09 -4.55519e-09 3.69562e-09)
(2.46853e-09 -5.93542e-09 5.01006e-09)
(3.02804e-09 -7.30539e-09 6.48597e-09)
(3.6046e-09 -8.67169e-09 8.1888e-09)
(4.22227e-09 -1.00161e-08 1.01824e-08)
(4.91405e-09 -1.12845e-08 1.25295e-08)
(5.73238e-09 -1.23663e-08 1.52907e-08)
(6.77241e-09 -1.30556e-08 1.85265e-08)
(8.22235e-09 -1.29788e-08 2.23074e-08)
(1.04797e-08 -1.14446e-08 2.67635e-08)
(1.43852e-08 -7.13043e-09 3.22327e-08)
(2.1551e-08 2.43832e-09 3.95676e-08)
(3.29961e-08 1.91386e-08 4.93364e-08)
(5.48881e-08 5.45811e-08 6.2676e-08)
(0 0 0)
(1.37233e-09 -3.23108e-09 2.50874e-09)
(2.61512e-09 -6.18536e-09 4.88449e-09)
(3.77278e-09 -8.98263e-09 7.29417e-09)
(4.88496e-09 -1.1712e-08 9.88442e-09)
(5.98949e-09 -1.44301e-08 1.27903e-08)
(7.12572e-09 -1.71573e-08 1.61407e-08)
(8.33903e-09 -1.98686e-08 2.00607e-08)
(9.68844e-09 -2.24769e-08 2.46718e-08)
(1.1261e-08 -2.48005e-08 3.00887e-08)
(1.32e-08 -2.65097e-08 3.64114e-08)
(1.5762e-08 -2.70456e-08 4.37198e-08)
(1.94329e-08 -2.55053e-08 5.20893e-08)
(2.50852e-08 -2.05613e-08 6.16408e-08)
(3.39746e-08 -1.07389e-08 7.25601e-08)
(4.57001e-08 2.81429e-09 8.38107e-08)
(7.00094e-08 2.13725e-08 1.02891e-07)
(0 0 0)
(2.02504e-09 -4.72514e-09 3.68458e-09)
(3.85824e-09 -9.0499e-09 7.17205e-09)
(5.56442e-09 -1.31528e-08 1.07056e-08)
(7.20147e-09 -1.7169e-08 1.44988e-08)
(8.82479e-09 -2.1191e-08 1.87489e-08)
(1.04912e-08 -2.52632e-08 2.3644e-08)
(1.22644e-08 -2.93732e-08 2.93673e-08)
(1.42221e-08 -3.34337e-08 3.60966e-08)
(1.64676e-08 -3.72492e-08 4.39975e-08)
(1.91476e-08 -4.04657e-08 5.32036e-08)
(2.24862e-08 -4.25068e-08 6.37863e-08)
(2.68478e-08 -4.25227e-08 7.57206e-08)
(3.27928e-08 -3.94696e-08 8.88397e-08)
(4.09918e-08 -3.26166e-08 1.02751e-07)
(5.07502e-08 -2.35865e-08 1.15707e-07)
(7.02133e-08 -1.12131e-08 1.34352e-07)
(0 0 0)
(2.6386e-09 -6.0727e-09 4.77035e-09)
(5.0259e-09 -1.16377e-08 9.28203e-09)
(7.24515e-09 -1.69307e-08 1.38465e-08)
(9.37093e-09 -2.21342e-08 1.87371e-08)
(1.14746e-08 -2.7381e-08 2.42063e-08)
(1.36293e-08 -3.27509e-08 3.04956e-08)
(1.59151e-08 -3.82639e-08 3.78409e-08)
(1.84254e-08 -4.38661e-08 4.64741e-08)
(2.12738e-08 -4.94026e-08 5.66138e-08)
(2.4597e-08 -5.45761e-08 6.84376e-08)
(2.8561e-08 -5.88938e-08 8.20368e-08)
(3.33643e-08 -6.16166e-08 9.73389e-08)
(3.92009e-08 -6.17839e-08 1.13968e-07)
(4.61565e-08 -5.84997e-08 1.31017e-07)
(5.33956e-08 -5.2379e-08 1.45838e-07)
(6.84887e-08 -4.07615e-08 1.64257e-07)
(0 0 0)
(3.2017e-09 -7.22563e-09 5.74293e-09)
(6.09618e-09 -1.38564e-08 1.11687e-08)
(8.78255e-09 -2.01816e-08 1.66468e-08)
(1.13498e-08 -2.64304e-08 2.25008e-08)
(1.38835e-08 -3.27786e-08 2.90295e-08)
(1.64714e-08 -3.9349e-08 3.65189e-08)
(1.92097e-08 -4.62092e-08 4.52502e-08)
(2.22096e-08 -5.33647e-08 5.55044e-08)
(2.56021e-08 -6.07431e-08 6.7555e-08)
(2.95359e-08 -6.8167e-08 8.1644e-08)
(3.41728e-08 -7.53072e-08 9.79386e-08)
(3.96582e-08 -8.1604e-08 1.16444e-07)
(4.60223e-08 -8.61358e-08 1.36807e-07)
(5.29919e-08 -8.74652e-08 1.57911e-07)
(5.93471e-08 -8.44012e-08 1.76132e-07)
(7.1847e-08 -7.13558e-08 1.96213e-07)
(0 0 0)
(3.70458e-09 -8.13823e-09 6.58456e-09)
(7.05013e-09 -1.56177e-08 1.27969e-08)
(1.01484e-08 -2.27756e-08 1.90525e-08)
(1.30997e-08 -2.98832e-08 2.57141e-08)
(1.60011e-08 -3.71583e-08 3.31152e-08)
(1.89527e-08 -4.47685e-08 4.15748e-08)
(2.20657e-08 -5.28353e-08 5.1408e-08)
(2.54709e-08 -6.1436e-08 6.29338e-08)
(2.93269e-08 -7.06029e-08 7.64741e-08)
(3.38284e-08 -8.03175e-08 9.23438e-08)
(3.92157e-08 -9.04928e-08 1.1083e-07)
(4.57759e-08 -1.00921e-07 1.32146e-07)
(5.37744e-08 -1.11104e-07 1.56282e-07)
(6.32088e-08 -1.19825e-07 1.82517e-07)
(7.24933e-08 -1.24473e-07 2.06676e-07)
(8.71238e-08 -1.12847e-07 2.33025e-07)
(0 0 0)
(4.13941e-09 -8.76965e-09 7.28346e-09)
(7.87271e-09 -1.68428e-08 1.41437e-08)
(1.13203e-08 -2.45946e-08 2.10291e-08)
(1.45901e-08 -3.23316e-08 2.83284e-08)
(1.77865e-08 -4.0307e-08 3.63971e-08)
(2.1018e-08 -4.87286e-08 4.55732e-08)
(2.44061e-08 -5.77667e-08 5.61891e-08)
(2.80968e-08 -6.7565e-08 6.85825e-08)
(3.22749e-08 -7.82529e-08 8.31017e-08)
(3.71866e-08 -8.99625e-08 1.00109e-07)
(4.31798e-08 -1.02855e-07 1.19993e-07)
(5.07729e-08 -1.17161e-07 1.4319e-07)
(6.07301e-08 -1.33189e-07 1.70173e-07)
(7.40312e-08 -1.51175e-07 2.01197e-07)
(8.97242e-08 -1.69113e-07 2.3272e-07)
(1.19636e-07 -1.90284e-07 2.75585e-07)
(0 0 0)
(4.50101e-09 -9.08648e-09 7.83462e-09)
(8.55453e-09 -1.74669e-08 1.52004e-08)
(1.22849e-08 -2.55421e-08 2.25645e-08)
(1.58029e-08 -3.36423e-08 3.03285e-08)
(1.92154e-08 -4.2046e-08 3.88558e-08)
(2.26329e-08 -5.09899e-08 4.84877e-08)
(2.6179e-08 -6.06796e-08 5.95549e-08)
(3.00023e-08 -7.13036e-08 7.2388e-08)
(3.42931e-08 -8.30509e-08 8.73243e-08)
(3.931e-08 -9.6136e-08 1.04715e-07)
(4.54276e-08 -1.10839e-07 1.24942e-07)
(5.32093e-08 -1.27572e-07 1.48459e-07)
(6.34905e-08 -1.46959e-07 1.75818e-07)
(7.73371e-08 -1.6984e-07 2.07585e-07)
(9.33877e-08 -1.94042e-07 2.40123e-07)
(1.40404e-07 -2.43795e-07 3.00765e-07)
(0 0 0)
(0 0 0)
(0 0 0)
(0 0 0)
(0 0 0)
(0 0 0)
(0 0 0)
(0 0 0)
(0 0 0)
(0 0 0)
(0 0 0)
(0 0 0)
(0 0 0)
(0 0 0)
(0 0 0)
(0 0 0)
(1.2843e-08 2.2947e-08 1.16615e-08)
(0 0 0)
(6.87357e-10 -1.67422e-09 1.23079e-09)
(1.30824e-09 -3.20387e-09 2.39495e-09)
(1.88356e-09 -4.65108e-09 3.57356e-09)
(2.43159e-09 -6.06232e-09 4.83777e-09)
(2.96877e-09 -7.46622e-09 6.25225e-09)
(3.51103e-09 -8.87146e-09 7.87756e-09)
(4.07562e-09 -1.02626e-08 9.77106e-09)
(4.68466e-09 -1.15909e-08 1.19863e-08)
(5.37299e-09 -1.27553e-08 1.45701e-08)
(6.20641e-09 -1.35703e-08 1.75576e-08)
(7.32441e-09 -1.37042e-08 2.09702e-08)
(9.0388e-09 -1.25572e-08 2.483e-08)
(1.2023e-08 -9.01229e-09 2.92161e-08)
(1.75096e-08 -1.10426e-09 3.43383e-08)
(2.61845e-08 1.25359e-08 3.99769e-08)
(3.5373e-08 3.05766e-08 4.23757e-08)
(0 0 0)
(1.3617e-09 -3.29804e-09 2.42991e-09)
(2.59154e-09 -6.31344e-09 4.72764e-09)
(3.73084e-09 -9.16991e-09 7.05259e-09)
(4.81558e-09 -1.19604e-08 9.54419e-09)
(5.87837e-09 -1.47454e-08 1.23297e-08)
(6.95049e-09 -1.75486e-08 1.55283e-08)
(8.06472e-09 -2.03503e-08 1.92526e-08)
(9.2601e-09 -2.3072e-08 2.36074e-08)
(1.05915e-08 -2.55485e-08 2.86816e-08)
(1.21501e-08 -2.7483e-08 3.4533e-08)
(1.41099e-08 -2.83845e-08 4.11649e-08)
(1.68254e-08 -2.74919e-08 4.8503e-08)
(2.09705e-08 -2.37624e-08 5.63683e-08)
(2.75244e-08 -1.62738e-08 6.43921e-08)
(3.63725e-08 -6.31611e-09 7.14915e-08)
(4.59376e-08 -1.02888e-09 7.7307e-08)
(0 0 0)
(2.01075e-09 -4.82203e-09 3.56843e-09)
(3.82651e-09 -9.23545e-09 6.9412e-09)
(5.50797e-09 -1.34246e-08 1.03507e-08)
(7.10814e-09 -1.75301e-08 1.40001e-08)
(8.67537e-09 -2.16492e-08 1.8075e-08)
(1.02559e-08 -2.58309e-08 2.27496e-08)
(1.18966e-08 -3.00691e-08 2.81895e-08)
(1.36492e-08 -3.42862e-08 3.45495e-08)
(1.55747e-08 -3.83049e-08 4.19615e-08)
(1.77526e-08 -4.18068e-08 5.05072e-08)
(2.03026e-08 -4.42883e-08 6.01732e-08)
(2.34304e-08 -4.50477e-08 7.07852e-08)
(2.74807e-08 -4.33276e-08 8.19119e-08)
(3.29085e-08 -3.89073e-08 9.27296e-08)
(3.94654e-08 -3.35155e-08 1.0167e-07)
(4.53721e-08 -3.16778e-08 1.07612e-07)
(0 0 0)
(2.62254e-09 -6.1962e-09 4.61985e-09)
(4.99005e-09 -1.18745e-08 8.98327e-09)
(7.18112e-09 -1.7278e-08 1.3388e-08)
(9.26475e-09 -2.25958e-08 1.80939e-08)
(1.13045e-08 -2.79662e-08 2.33388e-08)
(1.33614e-08 -3.34742e-08 2.93462e-08)
(1.54974e-08 -3.91457e-08 3.63308e-08)
(1.7777e-08 -4.49355e-08 4.4496e-08)
(2.02669e-08 -5.07037e-08 5.40209e-08)
(2.30302e-08 -5.61816e-08 6.5027e-08)
(2.61162e-08 -6.09334e-08 7.75189e-08)
(2.95416e-08 -6.43341e-08 9.12848e-08)
(3.32486e-08 -6.56405e-08 1.05724e-07)
(3.70814e-08 -6.43478e-08 1.19574e-07)
(4.06785e-08 -6.12148e-08 1.30467e-07)
(4.33675e-08 -5.98085e-08 1.36595e-07)
(0 0 0)
(3.18601e-09 -7.37176e-09 5.56205e-09)
(6.06071e-09 -1.41368e-08 1.081e-08)
(8.71848e-09 -2.05931e-08 1.60971e-08)
(1.12427e-08 -2.69772e-08 2.17309e-08)
(1.37112e-08 -3.3471e-08 2.79927e-08)
(1.62e-08 -4.02024e-08 3.5148e-08)
(1.87878e-08 -4.72439e-08 4.34533e-08)
(2.15577e-08 -5.46069e-08 5.31569e-08)
(2.45958e-08 -6.22281e-08 6.44884e-08)
(2.79802e-08 -6.99457e-08 7.7629e-08)
(3.17571e-08 -7.74607e-08 9.26545e-08)
(3.58817e-08 -8.42681e-08 1.0943e-07)
(4.00925e-08 -8.95424e-08 1.27385e-07)
(4.37653e-08 -9.20184e-08 1.45064e-07)
(4.60009e-08 -9.06237e-08 1.59255e-07)
(4.59144e-08 -8.79252e-08 1.6709e-07)
(0 0 0)
(3.69128e-09 -8.30226e-09 6.37792e-09)
(7.01926e-09 -1.59326e-08 1.23875e-08)
(1.00913e-08 -2.32376e-08 1.84259e-08)
(1.30027e-08 -3.0497e-08 2.48378e-08)
(1.58435e-08 -3.79347e-08 3.19373e-08)
(1.87039e-08 -4.57232e-08 4.00209e-08)
(2.16799e-08 -5.39874e-08 4.93766e-08)
(2.48785e-08 -6.28074e-08 6.02876e-08)
(2.84216e-08 -7.22181e-08 7.30284e-08)
(3.24453e-08 -8.22044e-08 8.78462e-08)
(3.70954e-08 -9.26841e-08 1.04926e-07)
(4.24972e-08 -1.03452e-07 1.2432e-07)
(4.86507e-08 -1.14e-07 1.4575e-07)
(5.51653e-08 -1.23046e-07 1.6806e-07)
(6.06036e-08 -1.27995e-07 1.87543e-07)
(5.96312e-08 -1.23064e-07 2.0042e-07)
(0 0 0)
(4.13014e-09 -8.94604e-09 7.05599e-09)
(7.84985e-09 -1.71814e-08 1.36934e-08)
(1.12758e-08 -2.50916e-08 2.03408e-08)
(1.45117e-08 -3.29918e-08 2.73676e-08)
(1.76566e-08 -4.11417e-08 3.51085e-08)
(2.08111e-08 -4.97533e-08 4.38782e-08)
(2.40852e-08 -5.89993e-08 5.39805e-08)
(2.76077e-08 -6.90231e-08 6.57163e-08)
(3.15373e-08 -7.99517e-08 7.93837e-08)
(3.60809e-08 -9.19118e-08 9.52733e-08)
(4.15259e-08 -1.05055e-07 1.13659e-07)
(4.82941e-08 -1.19589e-07 1.34784e-07)
(5.70141e-08 -1.35792e-07 1.58778e-07)
(6.84989e-08 -1.53786e-07 1.85245e-07)
(8.22454e-08 -1.71823e-07 2.10933e-07)
(9.40137e-08 -1.87719e-07 2.31528e-07)
(0 0 0)
(4.49684e-09 -9.26901e-09 7.59129e-09)
(8.54187e-09 -1.78175e-08 1.47192e-08)
(1.22565e-08 -2.60569e-08 2.18299e-08)
(1.57486e-08 -3.43264e-08 2.93052e-08)
(1.9121e-08 -4.29111e-08 3.74875e-08)
(2.24789e-08 -5.20515e-08 4.66946e-08)
(2.59382e-08 -6.19543e-08 5.72289e-08)
(2.96365e-08 -7.28059e-08 6.93844e-08)
(3.37486e-08 -8.4789e-08 8.34497e-08)
(3.85118e-08 -9.81065e-08 9.97043e-08)
(4.427e-08 -1.13017e-07 1.18417e-07)
(5.1546e-08 -1.29898e-07 1.39848e-07)
(6.11376e-08 -1.49309e-07 1.64199e-07)
(7.41054e-08 -1.71917e-07 1.91342e-07)
(8.96048e-08 -1.9574e-07 2.1785e-07)
(1.19468e-07 -2.31711e-07 2.48874e-07)
(0 0 0)
(0 0 0)
(0 0 0)
(0 0 0)
(0 0 0)
(0 0 0)
(0 0 0)
(0 0 0)
(0 0 0)
(0 0 0)
(0 0 0)
(0 0 0)
(0 0 0)
(0 0 0)
(0 0 0)
(0 0 0)
(2.14408e-09 8.20481e-09 2.55587e-09)
(0 0 0)
(6.78263e-10 -1.70394e-09 1.14583e-09)
(1.28877e-09 -3.26103e-09 2.22836e-09)
(1.85008e-09 -4.73477e-09 3.32187e-09)
(2.37757e-09 -6.17295e-09 4.49101e-09)
(2.8838e-09 -7.60632e-09 5.79388e-09)
(3.37859e-09 -9.0465e-09 7.28333e-09)
(3.86947e-09 -1.04829e-08 9.00706e-09)
(4.36241e-09 -1.18759e-08 1.10055e-08)
(4.86416e-09 -1.31447e-08 1.33053e-08)
(5.3889e-09 -1.41463e-08 1.59059e-08)
(5.97533e-09 -1.46465e-08 1.87569e-08)
(6.72003e-09 -1.42743e-08 2.17188e-08)
(7.80923e-09 -1.24652e-08 2.44842e-08)
(9.41986e-09 -8.5235e-09 2.63969e-08)
(1.11074e-08 -2.65718e-09 2.62915e-08)
(9.16505e-09 2.97944e-09 1.79347e-08)
(0 0 0)
(1.34432e-09 -3.35586e-09 2.26196e-09)
(2.55439e-09 -6.42449e-09 4.39835e-09)
(3.66704e-09 -9.33242e-09 6.5553e-09)
(4.71296e-09 -1.21755e-08 8.85982e-09)
(5.71732e-09 -1.50176e-08 1.1426e-08)
(6.70005e-09 -1.78873e-08 1.43579e-08)
(7.676e-09 -2.07729e-08 1.77495e-08)
(8.65488e-09 -2.36112e-08 2.16807e-08)
(9.64159e-09 -2.62683e-08 2.62038e-08)
(1.06395e-08 -2.85141e-08 3.13152e-08)
(1.16625e-08 -2.99986e-08 3.69069e-08)
(1.27573e-08 -3.02589e-08 4.26809e-08)
(1.40051e-08 -2.88431e-08 4.79965e-08)
(1.53677e-08 -2.57883e-08 5.16296e-08)
(1.62269e-08 -2.2657e-08 5.19689e-08)
(1.38696e-08 -2.4529e-08 4.51587e-08)
(0 0 0)
(1.98676e-09 -4.90545e-09 3.32167e-09)
(3.77521e-09 -9.39551e-09 6.45754e-09)
(5.42002e-09 -1.36587e-08 9.62088e-09)
(6.96702e-09 -1.78398e-08 1.29968e-08)
(8.45443e-09 -2.204e-08 1.67515e-08)
(9.91329e-09 -2.63138e-08 2.10373e-08)
(1.1367e-08 -3.06634e-08 2.59933e-08)
(1.28289e-08 -3.50276e-08 3.17393e-08)
(1.42965e-08 -3.92613e-08 3.83573e-08)
(1.5742e-08 -4.31136e-08 4.58522e-08)
(1.70999e-08 -4.62193e-08 5.40826e-08)
(1.82465e-08 -4.81514e-08 6.26465e-08)
(1.89581e-08 -4.86448e-08 7.0695e-08)
(1.88369e-08 -4.8145e-08 7.67138e-08)
(1.74351e-08 -4.82716e-08 7.88664e-08)
(1.20212e-08 -5.17439e-08 7.33611e-08)
(0 0 0)
(2.59421e-09 -6.30206e-09 4.30058e-09)
(4.92946e-09 -1.20775e-08 8.35782e-09)
(7.07731e-09 -1.75747e-08 1.24451e-08)
(9.09839e-09 -2.29874e-08 1.6799e-08)
(1.10446e-08 -2.84581e-08 2.16325e-08)
(1.29598e-08 -3.40762e-08 2.71415e-08)
(1.48794e-08 -3.98743e-08 3.3507e-08)
(1.68255e-08 -4.5819e-08 4.08889e-08)
(1.87954e-08 -5.17943e-08 4.94051e-08)
(2.07379e-08 -5.75816e-08 5.90868e-08)
(2.25101e-08 -6.28487e-08 6.97994e-08)
(2.37987e-08 -6.71798e-08 8.11052e-08)
(2.4005e-08 -7.0222e-08 9.20362e-08)
(2.22228e-08 -7.20645e-08 1.0081e-07)
(1.80475e-08 -7.3608e-08 1.05076e-07)
(9.52545e-09 -7.73697e-08 1.00597e-07)
(0 0 0)
(3.1559e-09 -7.49625e-09 5.17825e-09)
(5.99622e-09 -1.43753e-08 1.00586e-08)
(8.60788e-09 -2.09414e-08 1.49654e-08)
(1.10655e-08 -2.74357e-08 2.01786e-08)
(1.34348e-08 -3.40438e-08 2.59501e-08)
(1.57745e-08 -4.08963e-08 3.2513e-08)
(1.81364e-08 -4.80686e-08 4.00843e-08)
(2.05615e-08 -5.55762e-08 4.8861e-08)
(2.3067e-08 -6.33647e-08 5.90004e-08)
(2.56189e-08 -7.12932e-08 7.0577e-08)
(2.8073e-08 -7.91103e-08 8.35034e-08)
(3.00531e-08 -8.64203e-08 9.73828e-08)
(3.07438e-08 -9.26429e-08 1.11241e-07)
(2.87402e-08 -9.70336e-08 1.23123e-07)
(2.30846e-08 -9.90875e-08 1.30081e-07)
(1.14968e-08 -1.01522e-07 1.27258e-07)
(0 0 0)
(3.66187e-09 -8.44109e-09 5.93875e-09)
(6.95607e-09 -1.61985e-08 1.15283e-08)
(9.98257e-09 -2.36253e-08 1.71333e-08)
(1.28283e-08 -3.10061e-08 2.30674e-08)
(1.55718e-08 -3.85674e-08 2.96121e-08)
(1.8287e-08 -4.64823e-08 3.70279e-08)
(2.10452e-08 -5.48741e-08 4.55591e-08)
(2.39148e-08 -6.38181e-08 5.5431e-08)
(2.6955e-08 -7.33412e-08 6.68352e-08)
(3.01991e-08 -8.34161e-08 7.98933e-08)
(3.36136e-08 -9.39423e-08 9.45865e-08)
(3.69952e-08 -1.04693e-07 1.10615e-07)
(3.97558e-08 -1.15159e-07 1.27108e-07)
(4.05833e-08 -1.24208e-07 1.42078e-07)
(3.77636e-08 -1.29786e-07 1.51982e-07)
(2.47479e-08 -1.27893e-07 1.51688e-07)
(0 0 0)
(4.10355e-09 -9.09446e-09 6.57132e-09)
(7.79235e-09 -1.74655e-08 1.27461e-08)
(1.11763e-08 -2.55055e-08 1.89174e-08)
(1.43515e-08 -3.35341e-08 2.54216e-08)
(1.74068e-08 -4.18129e-08 3.25591e-08)
(2.04287e-08 -5.05523e-08 4.06065e-08)
(2.35062e-08 -5.99193e-08 4.98216e-08)
(2.67351e-08 -7.00452e-08 6.04436e-08)
(3.02217e-08 -8.10342e-08 7.26816e-08)
(3.40851e-08 -9.29728e-08 8.66854e-08)
(3.84556e-08 -1.05937e-07 1.02487e-07)
(4.34511e-08 -1.19991e-07 1.19881e-07)
(4.91072e-08 -1.35122e-07 1.38129e-07)
(5.51502e-08 -1.50943e-07 1.55308e-07)
(6.03195e-08 -1.65371e-07 1.67316e-07)
(5.93627e-08 -1.76237e-07 1.6663e-07)
(0 0 0)
(4.47464e-09 -9.42185e-09 7.07123e-09)
(8.49332e-09 -1.81101e-08 1.37035e-08)
(1.21715e-08 -2.64828e-08 2.03063e-08)
(1.56106e-08 -3.48839e-08 2.72271e-08)
(1.89051e-08 -4.35994e-08 3.47738e-08)
(2.21485e-08 -5.28667e-08 4.32257e-08)
(2.544e-08 -6.28841e-08 5.28396e-08)
(2.88911e-08 -7.38207e-08 6.3849e-08)
(3.26358e-08 -8.58282e-08 7.6454e-08)
(3.68428e-08 -9.90535e-08 9.07949e-08)
(4.17325e-08 -1.13652e-07 1.069e-07)
(4.75869e-08 -1.298e-07 1.24578e-07)
(5.47291e-08 -1.47661e-07 1.43162e-07)
(6.33387e-08 -1.67144e-07 1.60957e-07)
(7.21129e-08 -1.85735e-07 1.73872e-07)
(8.66547e-08 -2.08777e-07 1.71372e-07)
(0 0 0)
(0 0 0)
(0 0 0)
(0 0 0)
(0 0 0)
(0 0 0)
(0 0 0)
(0 0 0)
(0 0 0)
(0 0 0)
(0 0 0)
(0 0 0)
(0 0 0)
(0 0 0)
(0 0 0)
(0 0 0)
(-2.38935e-09 2.07637e-09 2.16566e-09)
(0 0 0)
(6.66948e-10 -1.7285e-09 1.01994e-09)
(1.26485e-09 -3.3082e-09 1.98252e-09)
(1.80959e-09 -4.80377e-09 2.95289e-09)
(2.31334e-09 -6.2643e-09 3.98727e-09)
(2.78416e-09 -7.72229e-09 5.13517e-09)
(3.22523e-09 -9.19212e-09 6.44003e-09)
(3.63373e-09 -1.06682e-08 7.93872e-09)
(3.99889e-09 -1.21214e-08 9.65832e-09)
(4.2994e-09 -1.34915e-08 1.16074e-08)
(4.50061e-09 -1.46794e-08 1.37594e-08)
(4.55276e-09 -1.55411e-08 1.60228e-08)
(4.38726e-09 -1.58898e-08 1.81926e-08)
(3.88986e-09 -1.55177e-08 1.98674e-08)
(2.81031e-09 -1.42795e-08 2.03507e-08)
(8.27439e-10 -1.24077e-08 1.89116e-08)
(-2.60117e-09 -9.18772e-09 1.44522e-08)
(0 0 0)
(1.32266e-09 -3.40369e-09 2.01347e-09)
(2.50864e-09 -6.51629e-09 3.91317e-09)
(3.58971e-09 -9.46657e-09 5.82735e-09)
(4.59045e-09 -1.23527e-08 7.86641e-09)
(5.52761e-09 -1.52414e-08 1.01275e-08)
(6.40874e-09 -1.81661e-08 1.26963e-08)
(7.22963e-09 -2.11228e-08 1.56459e-08)
(7.96981e-09 -2.40646e-08 1.90306e-08)
(8.58491e-09 -2.68907e-08 2.28692e-08)
(8.99663e-09 -2.94369e-08 2.71126e-08)
(9.08196e-09 -3.14823e-08 3.15903e-08)
(8.66234e-09 -3.27967e-08 3.59237e-08)
(7.48934e-09 -3.3284e-08 3.94045e-08)
(5.26672e-09 -3.32643e-08 4.09267e-08)
(2.08513e-09 -3.36063e-08 3.96443e-08)
(-1.10794e-09 -3.61913e-08 3.69172e-08)
(0 0 0)
(1.95659e-09 -4.97442e-09 2.95696e-09)
(3.71157e-09 -9.52776e-09 5.74569e-09)
(5.31256e-09 -1.38516e-08 8.55333e-09)
(6.79705e-09 -1.80935e-08 1.15407e-08)
(8.19185e-09 -2.23579e-08 1.48493e-08)
(9.5114e-09 -2.67041e-08 1.8605e-08)
(1.0754e-08 -3.11425e-08 2.29165e-08)
(1.1894e-08 -3.56276e-08 2.78669e-08)
(1.28673e-08 -4.0047e-08 3.34914e-08)
(1.35489e-08 -4.42143e-08 3.9735e-08)
(1.37219e-08 -4.78853e-08 4.63845e-08)
(1.30404e-08 -5.08366e-08 5.29657e-08)
(1.1017e-08 -5.30713e-08 5.86277e-08)
(7.18951e-09 -5.51392e-08 6.21398e-08)
(2.03657e-09 -5.79066e-08 6.2619e-08)
(-3.29853e-09 -6.20979e-08 6.16534e-08)
(0 0 0)
(2.558e-09 -6.38937e-09 3.82888e-09)
(4.85314e-09 -1.22446e-08 7.43754e-09)
(6.94857e-09 -1.78177e-08 1.10657e-08)
(8.89509e-09 -2.33053e-08 1.4919e-08)
(1.07313e-08 -2.88525e-08 1.91786e-08)
(1.24823e-08 -3.45519e-08 2.40069e-08)
(1.41551e-08 -4.04413e-08 2.95461e-08)
(1.57285e-08 -4.6497e-08 3.59089e-08)
(1.71337e-08 -5.26242e-08 4.31534e-08)
(1.82182e-08 -5.86477e-08 5.12369e-08)
(1.86899e-08 -6.43185e-08 5.99386e-08)
(1.80325e-08 -6.93618e-08 6.87496e-08)
(1.54448e-08 -7.36169e-08 7.67509e-08)
(1.00747e-08 -7.72737e-08 8.25998e-08)
(2.5056e-09 -8.07557e-08 8.51334e-08)
(-5.36977e-09 -8.50123e-08 8.57649e-08)
(0 0 0)
(3.11642e-09 -7.59857e-09 4.61105e-09)
(5.913e-09 -1.45709e-08 8.95257e-09)
(8.46759e-09 -2.12248e-08 1.33089e-08)
(1.08443e-08 -2.78041e-08 1.79232e-08)
(1.30951e-08 -3.44958e-08 2.30102e-08)
(1.52589e-08 -4.14309e-08 2.8763e-08)
(1.73588e-08 -4.86845e-08 3.53529e-08)
(1.93923e-08 -5.62719e-08 4.29197e-08)
(2.13109e-08 -6.41413e-08 5.15474e-08)
(2.29819e-08 -7.21613e-08 6.12168e-08)
(2.41171e-08 -8.01046e-08 7.17242e-08)
(2.41471e-08 -8.7626e-08 8.25632e-08)
(2.20723e-08 -9.42356e-08 9.27782e-08)
(1.6572e-08 -9.92942e-08 1.00903e-07)
(7.69965e-09 -1.02185e-07 1.0544e-07)
(-2.87759e-09 -1.04249e-07 1.07725e-07)
(0 0 0)
(3.62183e-09 -8.55468e-09 5.28919e-09)
(6.87161e-09 -1.64152e-08 1.02625e-08)
(9.84021e-09 -2.39383e-08 1.52396e-08)
(1.26041e-08 -3.14105e-08 2.04927e-08)
(1.52285e-08 -3.90583e-08 2.62621e-08)
(1.77684e-08 -4.70519e-08 3.2764e-08)
(2.02679e-08 -5.55079e-08 4.0191e-08)
(2.27543e-08 -6.44904e-08 4.87032e-08)
(2.52256e-08 -7.40075e-08 5.84061e-08)
(2.76224e-08 -8.40031e-08 6.93031e-08)
(2.97721e-08 -9.43317e-08 8.12139e-08)
(3.12752e-08 -1.04698e-07 9.3641e-08)
(3.13321e-08 -1.14506e-07 1.0558e-07)
(2.86539e-08 -1.2257e-07 1.15365e-07)
(2.25345e-08 -1.26996e-07 1.21087e-07)
(1.08601e-08 -1.23231e-07 1.24597e-07)
(0 0 0)
(4.06532e-09 -9.21532e-09 5.85365e-09)
(7.71162e-09 -1.76958e-08 1.13486e-08)
(1.10401e-08 -2.58372e-08 1.68296e-08)
(1.41372e-08 -3.39605e-08 2.25885e-08)
(1.70794e-08 -4.23257e-08 2.88822e-08)
(1.99364e-08 -5.11375e-08 3.594e-08)
(2.27726e-08 -6.05507e-08 4.39654e-08)
(2.56477e-08 -7.06753e-08 5.31277e-08)
(2.86135e-08 -8.15793e-08 6.35409e-08)
(3.17058e-08 -9.3288e-08 7.52182e-08)
(3.49242e-08 -1.05773e-07 8.79882e-08)
(3.81866e-08 -1.18915e-07 1.01347e-07)
(4.12655e-08 -1.32415e-07 1.14207e-07)
(4.37482e-08 -1.45522e-07 1.24575e-07)
(4.51737e-08 -1.56304e-07 1.29846e-07)
(4.50159e-08 -1.62665e-07 1.3103e-07)
(0 0 0)
(4.44008e-09 -9.54579e-09 6.30013e-09)
(8.42015e-09 -1.8346e-08 1.22033e-08)
(1.20478e-08 -2.68221e-08 1.80686e-08)
(1.54159e-08 -3.53185e-08 2.4198e-08)
(1.86082e-08 -4.41187e-08 3.08547e-08)
(2.17038e-08 -5.34522e-08 3.82712e-08)
(2.4781e-08 -6.35015e-08 4.66495e-08)
(2.79213e-08 -7.44085e-08 5.61538e-08)
(3.12129e-08 -8.62786e-08 6.68898e-08)
(3.4755e-08 -9.91808e-08 7.88599e-08)
(3.8656e-08 -1.13139e-07 9.18809e-08)
(4.302e-08 -1.28105e-07 1.05439e-07)
(4.79171e-08 -1.43892e-07 1.18441e-07)
(5.33176e-08 -1.59971e-07 1.28891e-07)
(5.85365e-08 -1.74126e-07 1.3401e-07)
(7.06867e-08 -1.91793e-07 1.29879e-07)
(0 0 0)
(0 0 0)
(0 0 0)
(0 0 0)
(0 0 0)
(0 0 0)
(0 0 0)
(0 0 0)
(0 0 0)
(0 0 0)
(0 0 0)
(0 0 0)
(0 0 0)
(0 0 0)
(0 0 0)
(0 0 0)
(-3.9705e-09 9.40294e-12 2.71028e-09)
(0 0 0)
(6.54912e-10 -1.74779e-09 8.58652e-10)
(1.23959e-09 -3.34517e-09 1.66825e-09)
(1.76726e-09 -4.85783e-09 2.48296e-09)
(2.24696e-09 -6.33587e-09 3.3491e-09)
(2.68246e-09 -7.8131e-09 4.30648e-09)
(3.07091e-09 -9.30599e-09 5.38868e-09)
(3.40062e-09 -1.08132e-08 6.62239e-09)
(3.64764e-09 -1.23134e-08 8.02398e-09)
(3.77071e-09 -1.37625e-08 9.59134e-09)
(3.70502e-09 -1.50912e-08 1.12891e-08)
(3.35688e-09 -1.62087e-08 1.30268e-08)
(2.59851e-09 -1.70138e-08 1.46309e-08)
(1.25989e-09 -1.74086e-08 1.58217e-08)
(-8.60434e-10 -1.72862e-08 1.62487e-08)
(-3.67159e-09 -1.65201e-08 1.57657e-08)
(-6.74154e-09 -1.32956e-08 1.38526e-08)
(0 0 0)
(1.29959e-09 -3.44139e-09 1.69524e-09)
(2.46027e-09 -6.58856e-09 3.29323e-09)
(3.50872e-09 -9.57195e-09 4.90058e-09)
(4.46351e-09 -1.24914e-08 6.6081e-09)
(5.33338e-09 -1.54158e-08 8.49392e-09)
(6.11463e-09 -1.83817e-08 1.06244e-08)
(6.78687e-09 -2.13919e-08 1.30529e-08)
(7.30589e-09 -2.44118e-08 1.58128e-08)
(7.5928e-09 -2.73646e-08 1.89021e-08)
(7.52068e-09 -3.01306e-08 2.22565e-08)
(6.90393e-09 -3.25618e-08 2.57102e-08)
(5.50092e-09 -3.45291e-08 2.8949e-08)
(3.0668e-09 -3.60112e-08 3.14826e-08)
(-4.30749e-10 -3.71891e-08 3.27384e-08)
(-4.16128e-09 -3.82945e-08 3.25728e-08)
(-6.30931e-09 -4.01757e-08 3.22239e-08)
(0 0 0)
(1.92432e-09 -5.02892e-09 2.48998e-09)
(3.64399e-09 -9.63207e-09 4.83624e-09)
(5.19949e-09 -1.4003e-08 7.19422e-09)
(6.62002e-09 -1.82911e-08 9.69599e-09)
(7.92154e-09 -2.26029e-08 1.24555e-08)
(9.10347e-09 -2.70008e-08 1.55706e-08)
(1.01428e-08 -3.15012e-08 1.91209e-08)
(1.09835e-08 -3.60698e-08 2.31589e-08)
(1.15192e-08 -4.06166e-08 2.76892e-08)
(1.15702e-08 -4.49949e-08 3.26344e-08)
(1.08594e-08 -4.90236e-08 3.77861e-08)
(9.00646e-09 -5.25544e-08 4.27562e-08)
(5.61417e-09 -5.56136e-08 4.69728e-08)
(6.42634e-10 -5.8555e-08 4.98323e-08)
(-4.61881e-09 -6.17057e-08 5.11881e-08)
(-8.28873e-09 -6.53149e-08 5.22621e-08)
(0 0 0)
(2.51898e-09 -6.45835e-09 3.2248e-09)
(4.77143e-09 -1.23763e-08 6.26151e-09)
(6.81197e-09 -1.80078e-08 9.30911e-09)
(8.68157e-09 -2.35508e-08 1.25363e-08)
(1.04062e-08 -2.91519e-08 1.60891e-08)
(1.19937e-08 -3.49051e-08 2.00941e-08)
(1.3427e-08 -4.08501e-08 2.46559e-08)
(1.46518e-08 -4.69685e-08 2.98469e-08)
(1.55545e-08 -5.31764e-08 3.56841e-08)
(1.59299e-08 -5.93195e-08 4.20906e-08)
(1.5436e-08 -6.51813e-08 4.88416e-08)
(1.35541e-08 -7.05205e-08 5.55177e-08)
(9.64153e-09 -7.51667e-08 6.15121e-08)
(3.3614e-09 -7.91538e-08 6.6187e-08)
(-3.90124e-09 -8.25723e-08 6.92242e-08)
(-9.68706e-09 -8.60915e-08 7.16571e-08)
(0 0 0)
(3.07333e-09 -7.67921e-09 3.88431e-09)
(5.82281e-09 -1.47243e-08 7.53844e-09)
(8.31694e-09 -2.14449e-08 1.11982e-08)
(1.06093e-08 -2.80855e-08 1.50632e-08)
(1.27384e-08 -3.48329e-08 1.93065e-08)
(1.47254e-08 -4.18165e-08 2.40788e-08)
(1.65685e-08 -4.91077e-08 2.95064e-08)
(1.82317e-08 -5.67171e-08 3.56795e-08)
(1.96235e-08 -6.45864e-08 4.26287e-08)
(2.05618e-08 -7.25765e-08 5.0284e-08)
(2.0717e-08 -8.04492e-08 5.84159e-08)
(1.95351e-08 -8.78382e-08 6.65827e-08)
(1.62071e-08 -9.42067e-08 7.41306e-08)
(9.97049e-09 -9.88177e-08 8.0346e-08)
(1.68619e-09 -1.00965e-07 8.47439e-08)
(-6.49007e-09 -1.0183e-07 8.83477e-08)
(0 0 0)
(3.57733e-09 -8.64385e-09 4.45638e-09)
(6.7785e-09 -1.65844e-08 8.64303e-09)
(9.68483e-09 -2.41796e-08 1.28249e-08)
(1.23623e-08 -3.17159e-08 1.72256e-08)
(1.48628e-08 -3.94178e-08 2.20388e-08)
(1.72239e-08 -4.74502e-08 2.74336e-08)
(1.94659e-08 -5.592e-08 3.35516e-08)
(2.15846e-08 -6.48749e-08 4.04956e-08)
(2.35374e-08 -7.42981e-08 4.83056e-08)
(2.52189e-08 -8.40941e-08 5.69153e-08)
(2.64173e-08 -9.40576e-08 6.60862e-08)
(2.67461e-08 -1.03805e-07 7.53341e-08)
(2.55836e-08 -1.12634e-07 8.38969e-08)
(2.21882e-08 -1.19286e-07 9.08674e-08)
(1.66917e-08 -1.22064e-07 9.55956e-08)
(7.65704e-09 -1.16834e-07 9.96422e-08)
(0 0 0)
(4.02179e-09 -9.30977e-09 4.93281e-09)
(7.62056e-09 -1.78745e-08 9.55932e-09)
(1.08882e-08 -2.60908e-08 1.41653e-08)
(1.39013e-08 -3.42789e-08 1.89907e-08)
(1.6724e-08 -4.26947e-08 2.42427e-08)
(1.94098e-08 -5.15346e-08 3.01007e-08)
(2.20015e-08 -6.0938e-08 3.6714e-08)
(2.453e-08 -7.09896e-08 4.41899e-08)
(2.70104e-08 -8.17163e-08 5.25694e-08)
(2.94353e-08 -9.30785e-08 6.17807e-08)
(3.17633e-08 -1.04947e-07 7.15649e-08)
(3.39067e-08 -1.1706e-07 8.13743e-08)
(3.5763e-08 -1.28942e-07 9.02799e-08)
(3.73716e-08 -1.39762e-07 9.70136e-08)
(3.90821e-08 -1.4804e-07 1.00543e-07)
(4.11656e-08 -1.52569e-07 1.02541e-07)
(0 0 0)
(4.39946e-09 -9.64224e-09 5.30988e-09)
(8.33514e-09 -1.85282e-08 1.02809e-08)
(1.19061e-08 -2.70798e-08 1.52107e-08)
(1.51962e-08 -3.56399e-08 2.03478e-08)
(1.82782e-08 -4.44868e-08 2.5905e-08)
(2.12171e-08 -5.38395e-08 3.20641e-08)
(2.40723e-08 -6.38616e-08 3.89729e-08)
(2.69003e-08 -7.4664e-08 4.67342e-08)
(2.97575e-08 -8.63024e-08 5.53802e-08)
(3.2704e-08 -9.87689e-08 6.48258e-08)
(3.58075e-08 -1.11972e-07 7.47904e-08)
(3.91499e-08 -1.25704e-07 8.46869e-08)
(4.28646e-08 -1.39601e-07 9.35056e-08)
(4.72181e-08 -1.53087e-07 9.98195e-08)
(5.21604e-08 -1.64581e-07 1.02368e-07)
(6.58549e-08 -1.80382e-07 9.98379e-08)
(0 0 0)
(0 0 0)
(0 0 0)
(0 0 0)
(0 0 0)
(0 0 0)
(0 0 0)
(0 0 0)
(0 0 0)
(0 0 0)
(0 0 0)
(0 0 0)
(0 0 0)
(0 0 0)
(0 0 0)
(0 0 0)
(-4.37715e-09 -5.4258e-10 2.55109e-09)
(0 0 0)
(6.43661e-10 -1.76192e-09 6.68589e-10)
(1.21609e-09 -3.37216e-09 1.29842e-09)
(1.7282e-09 -4.89741e-09 1.93131e-09)
(2.18628e-09 -6.38848e-09 2.60272e-09)
(2.59056e-09 -7.87966e-09 3.3423e-09)
(2.9335e-09 -9.38883e-09 4.17419e-09)
(3.19719e-09 -1.09173e-08 5.11646e-09)
(3.34956e-09 -1.24488e-08 6.17827e-09)
(3.33946e-09 -1.39481e-08 7.35369e-09)
(3.09224e-09 -1.53602e-08 8.61163e-09)
(2.50832e-09 -1.6614e-08 9.88416e-09)
(1.46832e-09 -1.76269e-08 1.10579e-08)
(-1.52315e-10 -1.8294e-08 1.19811e-08)
(-2.43882e-09 -1.84265e-08 1.25178e-08)
(-5.141e-09 -1.77142e-08 1.26501e-08)
(-7.68774e-09 -1.4147e-08 1.16908e-08)
(0 0 0)
(1.27801e-09 -3.46926e-09 1.32016e-09)
(2.41526e-09 -6.64196e-09 2.56361e-09)
(3.43388e-09 -9.6498e-09 3.81253e-09)
(4.34725e-09 -1.25935e-08 5.1362e-09)
(5.15748e-09 -1.55431e-08 6.59291e-09)
(5.85217e-09 -1.85372e-08 8.23058e-09)
(6.39955e-09 -2.15825e-08 1.00854e-08)
(6.74099e-09 -2.46517e-08 1.21766e-08)
(6.78125e-09 -2.76809e-08 1.44941e-08)
(6.37972e-09 -3.05699e-08 1.69811e-08)
(5.35004e-09 -3.31949e-08 1.95125e-08)
(3.4883e-09 -3.54361e-08 2.18789e-08)
(6.70561e-10 -3.72236e-08 2.38019e-08)
(-2.88399e-09 -3.85566e-08 2.5021e-08)
(-6.11455e-09 -3.94123e-08 2.54898e-08)
(-7.2381e-09 -4.0508e-08 2.56933e-08)
(0 0 0)
(1.89408e-09 -5.06955e-09 1.93941e-09)
(3.58093e-09 -9.70971e-09 3.76556e-09)
(5.09469e-09 -1.41152e-08 5.59808e-09)
(6.45733e-09 -1.84362e-08 7.53753e-09)
(7.67583e-09 -2.27802e-08 9.66904e-09)
(8.73804e-09 -2.72112e-08 1.20634e-08)
(9.60599e-09 -3.17485e-08 1.47752e-08)
(1.02055e-08 -3.63636e-08 1.78351e-08)
(1.04116e-08 -4.09759e-08 2.12344e-08)
(1.00332e-08 -4.54534e-08 2.49023e-08)
(8.80634e-09 -4.96281e-08 2.86781e-08)
(6.42542e-09 -5.33423e-08 3.23017e-08)
(2.68606e-09 -5.6545e-08 3.54495e-08)
(-2.11509e-09 -5.93954e-08 3.78514e-08)
(-6.49374e-09 -6.20489e-08 3.94357e-08)
(-8.77474e-09 -6.48376e-08 4.05684e-08)
(0 0 0)
(2.48222e-09 -6.50999e-09 2.51226e-09)
(4.69483e-09 -1.24745e-08 4.87634e-09)
(6.6847e-09 -1.81483e-08 7.24517e-09)
(8.48429e-09 -2.37299e-08 9.74713e-09)
(1.01091e-08 -2.93656e-08 1.24914e-08)
(1.15536e-08 -3.51495e-08 1.55698e-08)
(1.2784e-08 -4.11209e-08 1.90542e-08)
(1.37264e-08 -4.72612e-08 2.29874e-08)
(1.42494e-08 -5.34872e-08 2.73662e-08)
(1.41415e-08 -5.96451e-08 3.21137e-08)
(1.30889e-08 -6.55118e-08 3.70515e-08)
(1.06796e-08 -7.08172e-08 4.18928e-08)
(6.51602e-09 -7.53099e-08 4.62911e-08)
(6.43782e-10 -7.88758e-08 4.9961e-08)
(-5.41465e-09 -8.15558e-08 5.27054e-08)
(-9.55534e-09 -8.41721e-08 5.47302e-08)
(0 0 0)
(3.03244e-09 -7.73957e-09 3.02664e-09)
(5.73762e-09 -1.48386e-08 5.87191e-09)
(8.17555e-09 -2.16068e-08 8.71696e-09)
(1.03906e-08 -2.82886e-08 1.17136e-08)
(1.24101e-08 -3.50693e-08 1.49913e-08)
(1.42412e-08 -4.20753e-08 1.86597e-08)
(1.58651e-08 -4.93727e-08 2.28053e-08)
(1.72264e-08 -5.69636e-08 2.74815e-08)
(1.82173e-08 -6.47775e-08 3.26901e-08)
(1.86538e-08 -7.26562e-08 3.83515e-08)
(1.82444e-08 -8.03314e-08 4.42729e-08)
(1.65596e-08 -8.73882e-08 5.01355e-08)
(1.30622e-08 -9.32178e-08 5.55473e-08)