/*--------------------------------*- C++ -*----------------------------------*\
| =========                 |                                                 |
| \\      /  F ield         | OpenFOAM: The Open Source CFD Toolbox           |
|  \\    /   O peration     | Version:  v1912                                 |
|   \\  /    A nd           | Website:  www.openfoam.com                      |
|    \\/     M anipulation  |                                                 |
\*---------------------------------------------------------------------------*/
FoamFile
{
    version     2.0;
    format      ascii;
    class       volScalarField;
    location    "0.38/fluid";
    object      T;
}
// * * * * * * * * * * * * * * * * * * * * * * * * * * * * * * * * * * * * * //

dimensions      [0 0 0 1 0 0 0];


internalField   nonuniform List<scalar> 
14592
(
273.17
273.521
273.898
274.313
274.779
275.309
275.917
276.618
277.428
278.365
279.447
280.697
282.143
283.826
285.82
288.312
273.169
273.516
273.89
274.302
274.764
275.289
275.893
276.588
277.392
278.322
279.398
280.642
282.084
283.765
285.759
288.236
273.166
273.509
273.878
274.283
274.738
275.256
275.85
276.536
277.328
278.245
279.308
280.54
281.972
283.65
285.652
288.152
273.163
273.5
273.861
274.258
274.704
275.211
275.792
276.463
277.238
278.136
279.178
280.39
281.806
283.477
285.489
288.033
273.159
273.488
273.84
274.227
274.662
275.155
275.72
276.371
277.124
277.996
279.009
280.19
281.578
283.23
285.248
287.85
273.155
273.474
273.816
274.192
274.612
275.089
275.635
276.262
276.987
277.826
278.8
279.938
281.278
282.889
284.893
287.556
273.15
273.459
273.789
274.152
274.557
275.016
275.539
276.14
276.831
277.63
278.554
279.632
280.901
282.433
284.366
287.038
273.145
273.442
273.761
274.11
274.498
274.937
275.436
276.007
276.661
277.413
278.278
279.279
280.449
281.846
283.595
286.046
273.176
273.54
273.932
274.364
274.85
275.404
276.042
276.78
277.636
278.631
279.785
281.124
282.681
284.501
286.653
289.267
273.175
273.536
273.924
274.352
274.834
275.384
276.016
276.749
277.599
278.586
279.733
281.067
282.62
284.439
286.594
289.206
273.173
273.528
273.911
274.333
274.807
275.349
275.972
276.694
277.532
278.506
279.64
280.961
282.506
284.324
286.491
289.132
273.169
273.518
273.893
274.306
274.771
275.301
275.912
276.618
277.438
278.392
279.504
280.805
282.334
284.148
286.332
289.027
273.165
273.506
273.871
274.274
274.727
275.243
275.836
276.521
277.318
278.245
279.327
280.596
282.097
283.895
286.094
288.861
273.161
273.491
273.846
274.237
274.675
275.174
275.746
276.407
277.174
278.066
279.107
280.33
281.783
283.542
285.735
288.583
273.155
273.475
273.819
274.196
274.618
275.097
275.646
276.278
277.009
277.858
278.846
280.006
281.383
283.06
285.187
288.071
273.15
273.458
273.789
274.151
274.556
275.014
275.537
276.138
276.829
277.627
278.552
279.629
280.899
282.43
284.363
287.037
273.182
273.558
273.963
274.411
274.915
275.491
276.156
276.928
277.824
278.867
280.08
281.487
283.12
285.012
287.206
289.748
273.181
273.553
273.955
274.399
274.899
275.47
276.13
276.895
277.786
278.822
280.027
281.429
283.058
284.951
287.15
289.695
273.178
273.546
273.941
274.378
274.871
275.434
276.084
276.838
277.716
278.738
279.93
281.32
282.941
284.835
287.049
289.626
273.175
273.535
273.923
274.351
274.834
275.385
276.021
276.759
277.618
278.62
279.79
281.159
282.765
284.656
286.892
289.525
273.171
273.522
273.901
274.318
274.788
275.324
275.942
276.659
277.493
278.466
279.605
280.942
282.521
284.399
286.653
289.365
273.166
273.507
273.875
274.279
274.734
275.252
275.849
276.54
277.343
278.28
279.376
280.665
282.196
284.036
286.29
289.091
273.16
273.491
273.846
274.236
274.674
275.172
275.744
276.405
277.171
278.062
279.103
280.326
281.779
283.538
285.732
288.581
273.155
273.473
273.815
274.19
274.61
275.086
275.631
276.258
276.982
277.821
278.794
279.931
281.272
282.883
284.888
287.552
273.187
273.574
273.991
274.453
274.973
275.569
276.257
277.056
277.986
279.069
280.326
281.781
283.459
285.382
287.566
290.01
273.186
273.569
273.983
274.44
274.956
275.547
276.23
277.023
277.946
279.022
280.272
281.721
283.396
285.321
287.511
289.959
273.183
273.561
273.969
274.419
274.928
275.51
276.183
276.964
277.875
278.936
280.172
281.61
283.277
285.204
287.411
289.892
273.18
273.55
273.95
274.391
274.889
275.459
276.117
276.882
277.774
278.814
280.028
281.445
283.098
285.024
287.254
289.793
273.176
273.537
273.927
274.357
274.842
275.396
276.036
276.779
277.644
278.655
279.837
281.222
282.848
284.763
287.014
289.634
273.171
273.522
273.9
274.317
274.786
275.322
275.939
276.655
277.489
278.462
279.6
280.937
282.516
284.394
286.649
289.362
273.165
273.505
273.87
274.272
274.724
275.239
275.831
276.516
277.311
278.237
279.319
280.588
282.088
283.887
286.087
288.857
273.159
273.487
273.838
274.225
274.658
275.15
275.713
276.363
277.115
277.986
278.999
280.179
281.566
283.219
285.238
287.844
273.192
273.588
274.015
274.488
275.021
275.633
276.34
277.162
278.119
279.231
280.52
282.007
283.71
285.641
287.8
290.162
273.19
273.583
274.006
274.475
275.004
275.611
276.313
277.128
278.078
279.183
280.465
281.946
283.647
285.58
287.745
290.112
273.188
273.574
273.992
274.453
274.975
275.573
276.264
277.068
278.004
279.095
280.363
281.833
283.526
285.462
287.645
290.046
273.184
273.563
273.972
274.425
274.935
275.521
276.197
276.984
277.901
278.97
280.216
281.665
283.345
285.281
287.487
289.947
273.18
273.55
273.949
274.389
274.887
275.456
276.113
276.878
277.768
278.808
280.021
281.438
283.091
285.017
287.248
289.789
273.174
273.534
273.921
274.348
274.83
275.38
276.014
276.751
277.609
278.609
279.779
281.147
282.753
284.645
286.881
289.519
273.169
273.516
273.89
274.302
274.766
275.294
275.903
276.607
277.426
278.378
279.49
280.79
282.319
284.133
286.319
289.018
273.163
273.498
273.858
274.254
274.698
275.203
275.782
276.451
277.224
278.121
279.162
280.372
281.788
283.459
285.473
288.021
273.195
273.598
274.033
274.515
275.059
275.683
276.405
277.243
278.219
279.352
280.663
282.17
283.886
285.815
287.948
290.253
273.194
273.593
274.024
274.502
275.041
275.66
276.376
277.209
278.177
279.303
280.607
282.108
283.822
285.754
287.894
290.204
273.191
273.585
274.009
274.48
275.012
275.621
276.327
277.147
278.103
279.214
280.504
281.993
283.7
285.636
287.794
290.138
273.187
273.573
273.99
274.451
274.971
275.568
276.259
277.062
277.997
279.087
280.355
281.824
283.517
285.453
287.636
290.04
273.183
273.56
273.966
274.415
274.922
275.502
276.173
276.953
277.862
278.922
280.157
281.594
283.261
285.188
287.396
289.881
273.178
273.543
273.937
274.373
274.863
275.424
276.072
276.824
277.7
278.72
279.91
281.299
282.919
284.814
287.03
289.612
273.172
273.526
273.906
274.326
274.798
275.337
275.958
276.677
277.513
278.485
279.617
280.937
282.481
284.299
286.468
289.116
273.166
273.506
273.873
274.276
274.729
275.244
275.835
276.518
277.307
278.222
279.283
280.513
281.945
283.623
285.626
288.131
273.197
273.605
274.046
274.533
275.085
275.717
276.448
277.298
278.286
279.433
280.757
282.275
283.996
285.922
288.037
290.305
273.196
273.6
274.037
274.52
275.067
275.694
276.42
277.263
278.244
279.383
280.701
282.213
283.932
285.861
287.982
290.256
273.193
273.592
274.022
274.498
275.037
275.655
276.369
277.201
278.168
279.293
280.597
282.097
283.811
285.742
287.882
290.191
273.19
273.58
274.002
274.468
274.996
275.601
276.3
277.114
278.062
279.165
280.446
281.926
283.626
285.559
287.724
290.092
273.185
273.566
273.977
274.432
274.945
275.534
276.214
277.004
277.925
278.998
280.246
281.694
283.369
285.293
287.484
289.934
273.18
273.55
273.949
274.389
274.886
275.455
276.111
276.874
277.761
278.794
279.997
281.397
283.025
284.918
287.118
289.666
273.174
273.532
273.917
274.342
274.821
275.367
275.996
276.725
277.572
278.556
279.7
281.032
282.584
284.402
286.558
289.172
273.168
273.512
273.883
274.291
274.75
275.272
275.871
276.563
277.363
278.29
279.363
280.605
282.046
283.726
285.719
288.196
273.199
273.609
274.052
274.543
275.098
275.734
276.47
277.325
278.32
279.473
280.803
282.326
284.05
285.973
288.078
290.329
273.197
273.604
274.043
274.529
275.08
275.711
276.441
277.29
278.277
279.423
280.747
282.264
283.986
285.911
288.024
290.28
273.194
273.595
274.028
274.507
275.049
275.671
276.391
277.228
278.201
279.333
280.642
282.148
283.864
285.793
287.923
290.215
273.191
273.584
274.008
274.477
275.008
275.617
276.321
277.14
278.094
279.204
280.491
281.976
283.679
285.61
287.765
290.116
273.186
273.57
273.983
274.441
274.958
275.55
276.234
277.03
277.957
279.036
280.29
281.744
283.421
285.343
287.525
289.959
273.181
273.553
273.954
274.398
274.898
275.47
276.131
276.898
277.791
278.831
280.04
281.445
283.076
284.967
287.159
289.691
273.175
273.535
273.923
274.35
274.832
275.382
276.015
276.749
277.601
278.591
279.742
281.079
282.634
284.452
286.6
289.199
273.168
273.516
273.888
274.299
274.761
275.286
275.889
276.586
277.392
278.324
279.403
280.65
282.095
283.775
285.763
288.227
273.134
273.41
273.703
274.02
274.367
274.749
275.17
275.635
276.143
276.691
277.273
277.877
278.486
279.074
279.613
280.068
273.133
273.407
273.698
274.012
274.356
274.735
275.154
275.615
276.119
276.663
277.241
277.841
278.445
279.03
279.565
280.018
273.132
273.402
273.689
273.999
274.338
274.712
275.125
275.58
276.076
276.613
277.182
277.773
278.369
278.946
279.474
279.922
273.129
273.395
273.676
273.981
274.314
274.68
275.085
275.53
276.016
276.541
277.098
277.677
278.259
278.824
279.342
279.781
273.126
273.386
273.661
273.958
274.283
274.64
275.034
275.468
275.941
276.451
276.992
277.554
278.119
278.667
279.17
279.597
273.123
273.375
273.643
273.932
274.247
274.594
274.976
275.395
275.852
276.344
276.866
277.407
277.952
278.479
278.963
279.373
273.119
273.364
273.624
273.903
274.208
274.543
274.911
275.314
275.753
276.225
276.725
277.242
277.761
278.264
278.725
279.116
273.115
273.352
273.603
273.873
274.166
274.488
274.841
275.228
275.647
276.097
276.572
277.063
277.555
278.029
278.464
278.833
273.135
273.413
273.709
274.029
274.38
274.767
275.195
275.668
276.187
276.749
277.348
277.974
278.608
279.225
279.794
280.278
273.134
273.41
273.703
274.021
274.369
274.753
275.178
275.647
276.162
276.72
277.315
277.936
278.565
279.179
279.745
280.226
273.133
273.405
273.694
274.007
274.35
274.729
275.148
275.611
276.118
276.667
277.254
277.866
278.487
279.092
279.651
280.127
273.13
273.397
273.681
273.988
274.325
274.696
275.107
275.56
276.056
276.594
277.168
277.767
278.374
278.967
279.515
279.983
273.127
273.388
273.666
273.966
274.294
274.656
275.056
275.497
275.979
276.502
277.059
277.64
278.23
278.806
279.338
279.793
273.124
273.378
273.648
273.939
274.258
274.609
274.996
275.423
275.889
276.393
276.93
277.49
278.057
278.611
279.123
279.561
273.12
273.367
273.628
273.91
274.218
274.557
274.93
275.34
275.788
276.271
276.785
277.32
277.861
278.388
278.875
279.292
273.116
273.354
273.607
273.879
274.176
274.502
274.86
275.252
275.68
276.14
276.628
277.135
277.646
278.143
278.602
278.993
273.138
273.421
273.722
274.048
274.407
274.804
275.246
275.736
276.276
276.865
277.499
278.167
278.853
279.53
280.163
280.707
273.137
273.417
273.716
274.04
274.396
274.79
275.228
275.714
276.25
276.835
277.464
278.127
278.808
279.481
280.111
280.653
273.135
273.411
273.706
274.025
274.376
274.765
275.197
275.676
276.204
276.78
277.4
278.054
278.726
279.39
280.013
280.55
273.132
273.404
273.693
274.006
274.35
274.731
275.154
275.623
276.14
276.704
277.31
277.951
278.608
279.259
279.87
280.398
273.129
273.395
273.677
273.983
274.319
274.69
275.102
275.558
276.06
276.608
277.197
277.818
278.457
279.089
279.683
280.197
273.126
273.384
273.659
273.956
274.282
274.641
275.04
275.481
275.966
276.494
277.062
277.66
278.274
278.882
279.453
279.948
273.122
273.373
273.639
273.926
274.241
274.588
274.972
275.396
275.861
276.367
276.909
277.479
278.064
278.642
279.184
279.654
273.118
273.36
273.617
273.894
274.197
274.531
274.899
275.304
275.748
276.229
276.744
277.283
277.833
278.376
278.884
279.324
273.141
273.432
273.741
274.078
274.448
274.861
275.321
275.835
276.407
277.036
277.721
278.454
279.217
279.987
280.721
281.365
273.14
273.428
273.735
274.068
274.436
274.845
275.302
275.813
276.379
277.004
277.684
278.411
279.17
279.935
280.667
281.309
273.138
273.422
273.725
274.054
274.416
274.819
275.27
275.773
276.331
276.947
277.617
278.334
279.083
279.839
280.564
281.201
273.136
273.414
273.711
274.034
274.389
274.784
275.225
275.717
276.264
276.866
277.522
278.224
278.958
279.7
280.412
281.04
273.133
273.405
273.695
274.01
274.356
274.741
275.17
275.649
276.18
276.765
277.401
278.083
278.795
279.517
280.211
280.824
273.129
273.394
273.676
273.982
274.318
274.691
275.106
275.568
276.081
276.644
277.257
277.912
278.598
279.291
279.959
280.55
273.125
273.382
273.655
273.951
274.275
274.635
275.035
275.479
275.97
276.509
277.093
277.717
278.368
279.026
279.658
280.219
273.121
273.369
273.633
273.918
274.23
274.576
274.958
275.383
275.851
276.362
276.915
277.503
278.114
278.729
279.317
279.838
273.146
273.446
273.766
274.115
274.501
274.933
275.418
275.963
276.574
277.255
278.006
278.822
279.691
280.588
281.47
282.267
273.145
273.442
273.76
274.106
274.489
274.917
275.398
275.939
276.545
277.221
277.966
278.777
279.641
280.534
281.413
282.209
273.143
273.436
273.749
274.09
274.468
274.89
275.364
275.897
276.494
277.16
277.895
278.694
279.548
280.433
281.306
282.097
273.14
273.428
273.735
274.07
274.44
274.853
275.317
275.839
276.423
277.074
277.793
278.577
279.414
280.284
281.145
281.928
273.137
273.418
273.718
274.044
274.405
274.808
275.259
275.766
276.334
276.966
277.664
278.425
279.239
280.086
280.927
281.696
273.133
273.407
273.698
274.015
274.365
274.755
275.191
275.681
276.228
276.837
277.509
278.24
279.022
279.837
280.648
281.392
273.129
273.394
273.676
273.983
274.32
274.696
275.116
275.586
276.11
276.691
277.331
278.026
278.767
279.538
280.305
281.01
273.125
273.381
273.653
273.948
274.273
274.633
275.035
275.483
275.982
276.533
277.136
277.789
278.482
279.198
279.906
280.554
273.151
273.463
273.796
274.16
274.564
275.018
275.531
276.113
276.77
277.511
278.339
279.256
280.255
281.318
282.404
283.429
273.15
273.459
273.789
274.15
274.551
275.001
275.51
276.087
276.74
277.475
278.297
279.208
280.202
281.261
282.345
283.37
273.148
273.452
273.778
274.134
274.529
274.973
275.474
276.042
276.685
277.41
278.221
279.12
280.104
281.155
282.234
283.257
273.145
273.444
273.763
274.112
274.499
274.934
275.425
275.981
276.61
277.318
278.113
278.994
279.96
280.997
282.065
283.084
273.142
273.434
273.745
274.085
274.463
274.886
275.363
275.904
276.514
277.202
277.973
278.83
279.77
280.782
281.832
282.84
273.138
273.422
273.725
274.055
274.42
274.83
275.292
275.813
276.402
277.064
277.805
278.628
279.532
280.508
281.523
282.506
273.134
273.409
273.702
274.021
274.374
274.768
275.212
275.711
276.274
276.906
277.611
278.392
279.248
280.17
281.13
282.064
273.129
273.395
273.677
273.984
274.324
274.702
275.126
275.602
276.136
276.734
277.397
278.128
278.924
279.775
280.655
281.504
273.157
273.481
273.829
274.209
274.633
275.112
275.656
276.277
276.985
277.791
278.704
279.733
280.881
282.144
283.497
284.864
273.156
273.477
273.821
274.199
274.619
275.094
275.634
276.25
276.952
277.752
278.66
279.682
280.825
282.085
283.438
284.805
273.154
273.471
273.81
274.182
274.596
275.064
275.596
276.202
276.895
277.683
278.578
279.589
280.722
281.974
283.325
284.695
273.151
273.462
273.795
274.159
274.565
275.023
275.544
276.137
276.814
277.586
278.463
279.455
280.57
281.809
283.153
284.527
273.148
273.451
273.776
274.131
274.527
274.972
275.479
276.055
276.713
277.462
278.313
279.278
280.365
281.58
282.909
284.282
273.143
273.438
273.754
274.099
274.482
274.913
275.402
275.959
276.592
277.313
278.131
279.058
280.105
281.279
282.574
283.929
273.139
273.425
273.73
274.063
274.432
274.848
275.317
275.85
276.455
277.142
277.92
278.798
279.788
280.899
282.127
283.426
273.134
273.41
273.704
274.025
274.38
274.777
275.226
275.733
276.307
276.955
277.685
278.504
279.421
280.44
281.556
282.729
273.164
273.501
273.863
274.261
274.706
275.21
275.786
276.448
277.208
278.08
279.081
280.224
281.527
283.008
284.685
286.549
273.162
273.497
273.856
274.25
274.691
275.192
275.763
276.419
277.173
278.04
279.034
280.171
281.469
282.948
284.625
286.486
273.16
273.49
273.844
274.232
274.667
275.16
275.723
276.369
277.113
277.967
278.948
280.073
281.361
282.835
284.513
286.386
273.157
273.481
273.827
274.208
274.634
275.117
275.668
276.3
277.027
277.864
278.825
279.93
281.202
282.664
284.344
286.236
273.153
273.469
273.808
274.179
274.594
275.063
275.599
276.213
276.919
277.731
278.665
279.742
280.984
282.425
284.097
286.012
273.149
273.456
273.785
274.145
274.547
275.001
275.518
276.111
276.79
277.571
278.469
279.505
280.703
282.101
283.746
285.669
273.144
273.442
273.759
274.107
274.495
274.931
275.428
275.995
276.644
277.387
278.24
279.221
280.354
281.679
283.251
285.128
273.139
273.426
273.732
274.067
274.439
274.857
275.331
275.87
276.484
277.185
277.984
278.896
279.943
281.153
282.575
284.268
273.139
273.426
273.732
274.066
274.438
274.856
275.33
275.868
276.483
277.183
277.982
278.894
279.941
281.151
282.573
284.267
273.134
273.409
273.703
274.024
274.378
274.776
275.224
275.731
276.304
276.952
277.681
278.501
279.417
280.436
281.553
282.726
273.129
273.394
273.676
273.983
274.322
274.7
275.123
275.599
276.133
276.73
277.393
278.123
278.919
279.77
280.651
281.5
273.125
273.38
273.652
273.947
274.271
274.631
275.032
275.48
275.978
276.528
277.131
277.784
278.476
279.193
279.901
280.55
273.121
273.368
273.632
273.916
274.228
274.573
274.955
275.379
275.846
276.357
276.91
277.497
278.108
278.723
279.312
279.833
273.118
273.359
273.616
273.893
274.195
274.528
274.896
275.3
275.744
276.224
276.738
277.277
277.827
278.37
278.879
279.319
273.116
273.354
273.606
273.877
274.174
274.499
274.856
275.248
275.675
276.135
276.622
277.129
277.64
278.137
278.596
278.988
273.115
273.351
273.602
273.871
274.164
274.485
274.838
275.223
275.642
276.092
276.566
277.056
277.548
278.023
278.458
278.827
273.144
273.441
273.759
274.106
274.493
274.929
275.425
275.992
276.64
277.383
278.236
279.216
280.35
281.675
283.246
285.125
273.139
273.424
273.729
274.061
274.43
274.845
275.314
275.846
276.451
277.137
277.914
278.792
279.782
280.893
282.121
283.421
273.134
273.408
273.7
274.019
274.371
274.765
275.208
275.707
276.269
276.9
277.604
278.385
279.241
280.163
281.124
282.057
273.129
273.393
273.675
273.981
274.318
274.692
275.112
275.581
276.104
276.685
277.324
278.018
278.759
279.531
280.298
281.003
273.125
273.381
273.653
273.948
274.272
274.631
275.03
275.473
275.964
276.502
277.086
277.709
278.36
279.018
279.651
280.212
273.122
273.372
273.637
273.924
274.238
274.584
274.967
275.39
275.855
276.36
276.901
277.471
278.055
278.633
279.176
279.647
273.12
273.366
273.626
273.908
274.215
274.553
274.925
275.334
275.781
276.264
276.777
277.311
277.852
278.379
278.867
279.284
273.119
273.363
273.622
273.901
274.205
274.539
274.906
275.308
275.746
276.218
276.717
277.233
277.753
278.255
278.717
279.109
273.149
273.455
273.783
274.143
274.544
274.997
275.514
276.105
276.784
277.564
278.462
279.496
280.695
282.093
283.739
285.663
273.143
273.437
273.752
274.096
274.479
274.909
275.397
275.952
276.585
277.304
278.122
279.049
280.095
281.27
282.565
283.921
273.138
273.421
273.723
274.052
274.417
274.825
275.286
275.806
276.394
277.055
277.795
278.618
279.522
280.497
281.513
282.497
273.133
273.406
273.696
274.012
274.361
274.75
275.185
275.674
276.22
276.828
277.498
278.229
279.011
279.826
280.637
281.382
273.129
273.393
273.674
273.979
274.314
274.686
275.1
275.561
276.072
276.635
277.246
277.901
278.586
279.28
279.948
280.54
273.126
273.383
273.657
273.953
274.277
274.636
275.034
275.473
275.957
276.484
277.051
277.648
278.262
278.87
279.442
279.938
273.123
273.377
273.646
273.936
274.254
274.603
274.99
275.415
275.88
276.383
276.919
277.479
278.046
278.6
279.112
279.551
273.123
273.374
273.641
273.929
274.243
274.589
274.969
275.387
275.843
276.334
276.855
277.396
277.94
278.468
278.952
279.364
273.153
273.468
273.805
274.176
274.589
275.057
275.592
276.205
276.909
277.72
278.653
279.729
280.971
282.412
284.086
286.002
273.147
273.45
273.773
274.127
274.522
274.966
275.471
276.046
276.702
277.45
278.3
279.264
280.351
281.566
282.895
284.27
273.141
273.432
273.743
274.082
274.457
274.879
275.355
275.894
276.503
277.19
277.959
278.815
279.755
280.767
281.817
282.826
273.136
273.417
273.715
274.04
274.4
274.801
275.25
275.756
276.322
276.953
277.65
278.409
279.223
280.07
280.912
281.682
273.132
273.403
273.692
274.006
274.351
274.734
275.162
275.639
276.168
276.751
277.387
278.067
278.78
279.502
280.196
280.811
273.129
273.393
273.674
273.979
274.313
274.683
275.093
275.547
276.048
276.594
277.182
277.803
278.441
279.074
279.668
280.184
273.127
273.387
273.663
273.961
274.288
274.649
275.047
275.486
275.967
276.489
277.045
277.625
278.215
278.791
279.324
279.78
273.126
273.384
273.658
273.954
274.277
274.633
275.026
275.457
275.929
276.438
276.978
277.538
278.104
278.652
279.156
279.584
273.157
273.479
273.824
274.203
274.627
275.108
275.657
276.287
277.012
277.847
278.807
279.911
281.182
282.645
284.325
286.22
273.15
273.46
273.791
274.154
274.558
275.014
275.532
276.123
276.799
277.569
278.444
279.435
280.549
281.788
283.133
284.509
273.145
273.442
273.76
274.106
274.492
274.924
275.413
275.967
276.594
277.3
278.093
278.974
279.939
280.976
282.045
283.066
273.139
273.426
273.731
274.064
274.432
274.843
275.305
275.825
276.407
277.056
277.774
278.556
279.393
280.263
281.125
281.91
273.135
273.412
273.708
274.028
274.382
274.775
275.214
275.703
276.248
276.848
277.502
278.203
278.937
279.679
280.392
281.022
273.132
273.402
273.689
274.001
274.343
274.722
275.143
275.609
276.124
276.686
277.291
277.93
278.588
279.239
279.851
280.381
273.129
273.395
273.677
273.983
274.317
274.687
275.095
275.546
276.041
276.577
277.149
277.747
278.354
278.947
279.497
279.966
273.128
273.392
273.673
273.975
274.306
274.671
275.073
275.516
276.001
276.524
277.08
277.657
278.24
278.805
279.324
279.765
273.159
273.487
273.839
274.225
274.657
275.147
275.707
276.351
277.091
277.943
278.922
280.045
281.333
282.807
284.486
286.361
273.153
273.468
273.805
274.174
274.586
275.051
275.58
276.183
276.873
277.659
278.552
279.561
280.693
281.945
283.297
284.668
273.147
273.449
273.773
274.126
274.518
274.959
275.458
276.023
276.663
277.385
278.194
279.092
280.075
281.126
282.206
283.231
273.142
273.433
273.744
274.083
274.458
274.877
275.348
275.878
276.472
277.136
277.868
278.667
279.52
280.404
281.278
282.072
273.137
273.419
273.72
274.046
274.406
274.807
275.254
275.754
276.31
276.923
277.591
278.307
279.055
279.812
280.538
281.177
273.134
273.409
273.701
274.018
274.366
274.752
275.181
275.657
276.183
276.757
277.375
278.028
278.699
279.364
279.988
280.528
273.132
273.402
273.689
274
274.34
274.716
275.133
275.593
276.098
276.645
277.23
277.841
278.461
279.067
279.627
280.107
273.131
273.399
273.684
273.992
274.329
274.7
275.11
275.562
276.057
276.591
277.159
277.749
278.344
278.921
279.451
279.902
273.161
273.493
273.848
274.239
274.677
275.174
275.741
276.394
277.144
278.007
278.998
280.133
281.43
282.909
284.584
286.445
273.155
273.473
273.814
274.188
274.605
275.076
275.612
276.224
276.923
277.72
278.624
279.644
280.786
282.046
283.399
284.766
273.149
273.455
273.782
274.139
274.537
274.983
275.489
276.062
276.71
277.442
278.262
279.171
280.164
281.223
282.309
283.335
273.143
273.438
273.753
274.095
274.475
274.899
275.377
275.914
276.517
277.189
277.932
278.741
279.604
280.497
281.378
282.176
273.139
273.424
273.728
274.058
274.423
274.828
275.282
275.788
276.352
276.973
277.651
278.376
279.135
279.9
280.633
281.279
273.135
273.413
273.709
274.03
274.382
274.773
275.208
275.69
276.223
276.805
277.432
278.094
278.774
279.448
280.079
280.625
273.133
273.406
273.697
274.011
274.356
274.737
275.159
275.625
276.136
276.692
277.284
277.904
278.533
279.147
279.715
280.2
273.132
273.403
273.692
274.003
274.344
274.72
275.136
275.594
276.095
276.636
277.212
277.811
278.414
279
279.537
279.993
273.162
273.496
273.854
274.247
274.687
275.187
275.759
276.415
277.171
278.039
279.036
280.177
281.478
282.958
284.631
286.484
273.156
273.476
273.819
274.195
274.615
275.089
275.628
276.245
276.948
277.75
278.66
279.686
280.832
282.095
283.449
284.813
273.15
273.457
273.786
274.146
274.546
274.995
275.504
276.081
276.734
277.471
278.296
279.21
280.208
281.271
282.358
283.386
273.144
273.441
273.757
274.102
274.484
274.911
275.391
275.932
276.539
277.216
277.964
278.777
279.645
280.543
281.427
282.227
273.14
273.426
273.732
274.064
274.431
274.839
275.296
275.806
276.373
276.999
277.681
278.411
279.174
279.944
280.681
281.329
273.136
273.416
273.713
274.036
274.39
274.784
275.221
275.707
276.243
276.829
277.461
278.127
278.812
279.489
280.125
280.673
273.134
273.409
273.701
274.017
274.364
274.747
275.172
275.641
276.156
276.715
277.312
277.936
278.569
279.187
279.759
280.247
273.133
273.406
273.695
274.009
274.352
274.73
275.149
275.61
276.114
276.66
277.239
277.842
278.45
279.039
279.58
280.039
273.111
273.34
273.582
273.842
274.124
274.432
274.77
275.139
275.538
275.965
276.415
276.877
277.339
277.784
278.19
278.535
273.107
273.328
273.561
273.811
274.082
274.378
274.7
275.052
275.43
275.834
276.258
276.692
277.124
277.539
277.916
278.235
273.104
273.317
273.541
273.782
274.043
274.326
274.634
274.969
275.328
275.71
276.109
276.516
276.919
277.304
277.653
277.948
273.101
273.306
273.524
273.756
274.007
274.279
274.575
274.894
275.236
275.598
275.974
276.356
276.733
277.091
277.415
277.687
273.098
273.298
273.509
273.734
273.977
274.24
274.525
274.831
275.158
275.503
275.859
276.22
276.574
276.909
277.211
277.464
273.096
273.291
273.498
273.718
273.954
274.21
274.486
274.782
275.097
275.428
275.769
276.113
276.45
276.767
277.051
277.289
273.094
273.287
273.49
273.707
273.939
274.19
274.46
274.749
275.056
275.378
275.709
276.041
276.365
276.669
276.942
277.17
273.094
273.285
273.487
273.702
273.932
274.18
274.447
274.733
275.036
275.353
275.679
276.005
276.323
276.621
276.887
277.11
273.112
273.342
273.586
273.848
274.133
274.445
274.787
275.162
275.569
276.005
276.466
276.943
277.422
277.887
278.314
278.677
273.108
273.33
273.565
273.817
274.09
274.389
274.716
275.073
275.458
275.871
276.305
276.751
277.198
277.629
278.024
278.359
273.105
273.319
273.545
273.787
274.05
274.337
274.649
274.988
275.354
275.743
276.151
276.569
276.984
277.383
277.747
278.055
273.101
273.308
273.527
273.761
274.014
274.29
274.589
274.912
275.26
275.628
276.012
276.403
276.79
277.16
277.495
277.778
273.098
273.3
273.512
273.739
273.984
274.25
274.538
274.848
275.18
275.53
275.894
276.262
276.625
276.97
277.281
277.543
273.096
273.293
273.501
273.722
273.961
274.219
274.498
274.798
275.118
275.454
275.801
276.152
276.496
276.821
277.113
277.358
273.095
273.289
273.493
273.711
273.946
274.199
274.472
274.765
275.076
275.402
275.739
276.077
276.408
276.72
276.999
277.233
273.094
273.287
273.49
273.707
273.939
274.19
274.46
274.749
275.056
275.378
275.708
276.041
276.365
276.669
276.942
277.17
273.114
273.348
273.595
273.862
274.153
274.473
274.824
275.211
275.632
276.087
276.572
277.078
277.592
278.096
278.566
278.971
273.11
273.335
273.574
273.83
274.109
274.415
274.751
275.118
275.517
275.946
276.401
276.873
277.35
277.814
278.245
278.614
273.106
273.323
273.553
273.8
274.068
274.361
274.681
275.03
275.408
275.812
276.238
276.677
277.118
277.545
277.937
278.272
273.103
273.313
273.535
273.773
274.031
274.312
274.619
274.951
275.309
275.691
276.09
276.5
276.908
277.3
277.658
277.962
273.1
273.304
273.52
273.751
274
274.271
274.566
274.884
275.226
275.588
275.965
276.349
276.729
277.092
277.422
277.701
273.098
273.297
273.508
273.733
273.976
274.24
274.525
274.832
275.161
275.507
275.867
276.231
276.59
276.93
277.238
277.497
273.096
273.293
273.501
273.722
273.961
274.219
274.498
274.798
275.117
275.454
275.801
276.152
276.496
276.821
277.113
277.358
273.096
273.291
273.498
273.718
273.954
274.21
274.485
274.782
275.097
275.428
275.769
276.113
276.449
276.766
277.051
277.289
273.117
273.356
273.61
273.884
274.184
274.515
274.88
275.284
275.727
276.21
276.729
277.279
277.846
278.412
278.95
279.423
273.113
273.343
273.588
273.851
274.139
274.455
274.803
275.186
275.605
276.059
276.544
277.053
277.575
278.092
278.578
279.001
273.109
273.331
273.567
273.82
274.096
274.398
274.73
275.093
275.489
275.915
276.367
276.838
277.317
277.785
278.222
278.599
273.105
273.32
273.548
273.792
274.057
274.347
274.664
275.01
275.384
275.784
276.207
276.643
277.082
277.508
277.901
278.238
273.102
273.311
273.532
273.768
274.025
274.304
274.608
274.939
275.295
275.673
276.07
276.478
276.884
277.274
277.631
277.934
273.1
273.304
273.52
273.751
274
274.271
274.565
274.884
275.225
275.587
275.964
276.348
276.729
277.092
277.422
277.7
273.098
273.3
273.512
273.739
273.984
274.249
274.537
274.847
275.179
275.53
275.893
276.261
276.624
276.969
277.28
277.542
273.098
273.298
273.509
273.734
273.977
274.24
274.524
274.83
275.157
275.502
275.858
276.219
276.573
276.908
277.21
277.463
273.12
273.367
273.629
273.913
274.224
274.569
274.952
275.378
275.849
276.368
276.932
277.538
278.177
278.83
279.469
280.046
273.116
273.354
273.606
273.878
274.177
274.506
274.87
275.274
275.718
276.203
276.728
277.287
277.869
278.456
279.022
279.526
273.112
273.341
273.584
273.846
274.132
274.446
274.793
275.174
275.593
276.046
276.533
277.046
277.574
278.099
278.597
279.034
273.108
273.33
273.564
273.816
274.091
274.392
274.723
275.085
275.479
275.904
276.356
276.828
277.307
277.778
278.218
278.598
273.105
273.32
273.548
273.792
274.057
274.347
274.664
275.009
275.383
275.784
276.206
276.643
277.082
277.508
277.901
278.237
273.103
273.313
273.535
273.773
274.031
274.312
274.618
274.95
275.309
275.69
276.089
276.499
276.907
277.299
277.657
277.962
273.101
273.308
273.527
273.761
274.014
274.289
274.588
274.911
275.259
275.627
276.011
276.402
276.789
277.159