/*--------------------------------*- C++ -*----------------------------------*\
| =========                 |                                                 |
| \\      /  F ield         | OpenFOAM: The Open Source CFD Toolbox           |
|  \\    /   O peration     | Version:  v1912                                 |
|   \\  /    A nd           | Website:  www.openfoam.com                      |
|    \\/     M anipulation  |                                                 |
\*---------------------------------------------------------------------------*/
FoamFile
{
    version     2.0;
    format      ascii;
    class       volVectorField;
    location    "0.65/fluid";
    object      cellMotionU;
}
// * * * * * * * * * * * * * * * * * * * * * * * * * * * * * * * * * * * * * //

dimensions      [0 1 -1 0 0 0 0];


internalField   nonuniform List<vector> 
14592
(
(1.44317e-10 -3.22032e-10 2.4547e-10)
(4.02893e-10 -9.00399e-10 6.9487e-10)
(6.42155e-10 -1.43793e-09 1.13728e-09)
(8.71279e-10 -1.95356e-09 1.60184e-09)
(1.09976e-09 -2.46092e-09 2.11648e-09)
(1.33633e-09 -2.9651e-09 2.70631e-09)
(1.59132e-09 -3.46286e-09 3.39642e-09)
(1.87795e-09 -3.93855e-09 4.21164e-09)
(2.2158e-09 -4.35835e-09 5.17744e-09)
(2.6375e-09 -4.6577e-09 6.32045e-09)
(3.2055e-09 -4.71606e-09 7.67271e-09)
(4.05427e-09 -4.2976e-09 9.29022e-09)
(5.49535e-09 -2.89225e-09 1.1319e-08)
(8.32189e-09 7.70617e-10 1.42158e-08)
(1.43458e-08 9.84925e-09 1.91945e-08)
(2.49162e-08 2.78999e-08 2.71262e-08)
(4.29337e-10 -9.56216e-10 7.29716e-10)
(1.19866e-09 -2.67399e-09 2.06575e-09)
(1.90968e-09 -4.27141e-09 3.37968e-09)
(2.59074e-09 -5.80648e-09 4.76008e-09)
(3.26758e-09 -7.31783e-09 6.28602e-09)
(3.96681e-09 -8.82439e-09 8.03336e-09)
(4.71785e-09 -1.03195e-08 1.00754e-08)
(5.55759e-09 -1.17632e-08 1.24848e-08)
(6.53765e-09 -1.30654e-08 1.53334e-08)
(7.73911e-09 -1.4058e-08 1.86909e-08)
(9.30418e-09 -1.44438e-08 2.26253e-08)
(1.14974e-08 -1.37091e-08 2.72116e-08)
(1.48575e-08 -1.09583e-08 3.25875e-08)
(2.03649e-08 -4.71957e-09 3.90284e-08)
(2.93701e-08 6.86298e-09 4.69263e-08)
(4.06654e-08 2.19838e-08 5.5151e-08)
(7.04424e-10 -1.56216e-09 1.19563e-09)
(1.96623e-09 -4.36975e-09 3.38396e-09)
(3.13174e-09 -6.98499e-09 5.53534e-09)
(4.24544e-09 -9.50325e-09 7.79191e-09)
(5.34958e-09 -1.1993e-08 1.02838e-08)
(6.4861e-09 -1.44909e-08 1.31335e-08)
(7.70087e-09 -1.69974e-08 1.64605e-08)
(9.04869e-09 -1.94646e-08 2.03826e-08)
(1.06012e-08 -2.17778e-08 2.5015e-08)
(1.24603e-08 -2.37224e-08 3.04651e-08)
(1.47813e-08 -2.49347e-08 3.68208e-08)
(1.78218e-08 -2.48403e-08 4.41403e-08)
(2.2026e-08 -2.26108e-08 5.24541e-08)
(2.81068e-08 -1.72899e-08 6.17893e-08)
(3.68819e-08 -8.55112e-09 7.2159e-08)
(4.70932e-08 5.82574e-10 8.2349e-08)
(9.63343e-10 -2.1207e-09 1.63175e-09)
(2.6882e-09 -5.93486e-09 4.61727e-09)
(4.27919e-09 -9.49451e-09 7.54921e-09)
(5.79588e-09 -1.29346e-08 1.062e-08)
(7.29364e-09 -1.6354e-08 1.40038e-08)
(8.82804e-09 -1.98148e-08 1.78666e-08)
(1.0458e-08 -2.33361e-08 2.23696e-08)
(1.22512e-08 -2.68844e-08 2.76727e-08)
(1.42894e-08 -3.03561e-08 3.39326e-08)
(1.66751e-08 -3.35479e-08 4.12938e-08)
(1.95387e-08 -3.61172e-08 4.98672e-08)
(2.3051e-08 -3.75391e-08 5.9696e-08)
(2.74419e-08 -3.71044e-08 7.0713e-08)
(3.29972e-08 -3.4074e-08 8.26762e-08)
(3.99656e-08 -2.82793e-08 9.50548e-08)
(4.73443e-08 -2.18764e-08 1.05889e-07)
(1.20058e-09 -2.61289e-09 2.02811e-09)
(3.34919e-09 -7.31614e-09 5.73725e-09)
(5.32734e-09 -1.1716e-08 9.37449e-09)
(7.2065e-09 -1.59851e-08 1.31747e-08)
(9.05379e-09 -2.02564e-08 1.73516e-08)
(1.09352e-08 -2.46219e-08 2.21071e-08)
(1.29203e-08 -2.91309e-08 2.7639e-08)
(1.50861e-08 -3.37833e-08 3.41441e-08)
(1.75216e-08 -3.85178e-08 4.18184e-08)
(2.03288e-08 -4.31907e-08 5.08485e-08)
(2.36162e-08 -4.75434e-08 6.13852e-08)
(2.74853e-08 -5.11579e-08 7.35005e-08)
(3.20074e-08 -5.34036e-08 8.71185e-08)
(3.71475e-08 -5.34063e-08 1.01857e-07)
(4.27256e-08 -5.02148e-08 1.1673e-07)
(4.79319e-08 -4.44247e-08 1.2882e-07)
(1.41188e-09 -3.02057e-09 2.37693e-09)
(3.93664e-09 -8.46203e-09 6.72119e-09)
(6.2555e-09 -1.35655e-08 1.09727e-08)
(8.44951e-09 -1.85401e-08 1.54018e-08)
(1.05937e-08 -2.35509e-08 2.02522e-08)
(1.27623e-08 -2.87234e-08 2.57548e-08)
(1.50327e-08 -3.41435e-08 3.21353e-08)
(1.74902e-08 -3.98569e-08 3.96203e-08)
(2.02326e-08 -4.58654e-08 4.84399e-08)
(2.3372e-08 -5.21182e-08 5.88233e-08)
(2.70258e-08 -5.84925e-08 7.09774e-08)
(3.13186e-08 -6.47555e-08 8.50693e-08)
(3.63323e-08 -7.04697e-08 1.01145e-07)
(4.20379e-08 -7.47498e-08 1.1898e-07)
(4.81275e-08 -7.57887e-08 1.37553e-07)
(5.33497e-08 -7.16367e-08 1.52902e-07)
(1.59376e-09 -3.32637e-09 2.67245e-09)
(4.44128e-09 -9.32418e-09 7.55292e-09)
(7.04915e-09 -1.49648e-08 1.23177e-08)
(9.50414e-09 -2.04882e-08 1.72622e-08)
(1.18869e-08 -2.60897e-08 2.26524e-08)
(1.42761e-08 -3.19259e-08 2.87379e-08)
(1.67539e-08 -3.81196e-08 3.57621e-08)
(1.94114e-08 -4.47642e-08 4.39695e-08)
(2.23555e-08 -5.19298e-08 5.36122e-08)
(2.5715e-08 -5.96677e-08 6.49501e-08)
(2.96504e-08 -6.80167e-08 7.82493e-08)
(3.43706e-08 -7.70073e-08 9.37829e-08)
(4.01708e-08 -8.66447e-08 1.11838e-07)
(4.74455e-08 -9.6754e-08 1.32639e-07)
(5.65485e-08 -1.06377e-07 1.55845e-07)
(6.58923e-08 -1.12209e-07 1.76986e-07)
(1.74427e-09 -3.5155e-09 2.91153e-09)
(4.85758e-09 -9.8607e-09 8.22376e-09)
(7.6996e-09 -1.58449e-08 1.3395e-08)
(1.03597e-08 -2.17319e-08 1.8737e-08)
(1.29196e-08 -2.77403e-08 2.45267e-08)
(1.54592e-08 -3.40522e-08 3.10223e-08)
(1.80609e-08 -4.08206e-08 3.84725e-08)
(2.08166e-08 -4.81778e-08 4.71247e-08)
(2.38357e-08 -5.62474e-08 5.72326e-08)
(2.72558e-08 -6.51579e-08 6.90598e-08)
(3.12638e-08 -7.50682e-08 8.28891e-08)
(3.61391e-08 -8.62169e-08 9.9048e-08)
(4.23514e-08 -9.90181e-08 1.17978e-07)
(5.07538e-08 -1.14223e-07 1.40345e-07)
(6.28326e-08 -1.32971e-07 1.66974e-07)
(7.81691e-08 -1.53615e-07 1.94624e-07)
(1.45136e-10 -3.29004e-10 2.3312e-10)
(4.05025e-10 -9.19983e-10 6.59722e-10)
(6.44763e-10 -1.46957e-09 1.07858e-09)
(8.7349e-10 -1.99756e-09 1.51753e-09)
(1.09957e-09 -2.51768e-09 2.00142e-09)
(1.33109e-09 -3.03633e-09 2.55351e-09)
(1.57669e-09 -3.55132e-09 3.19574e-09)
(1.84677e-09 -4.04901e-09 3.94872e-09)
(2.156e-09 -4.49959e-09 4.83141e-09)
(2.52816e-09 -4.84704e-09 5.85902e-09)
(3.00821e-09 -4.9915e-09 7.04077e-09)
(3.69074e-09 -4.75118e-09 8.37922e-09)
(4.79504e-09 -3.76892e-09 9.88256e-09)
(6.80925e-09 -1.28441e-09 1.15824e-08)
(1.06406e-08 4.1912e-09 1.34904e-08)
(1.62364e-08 1.31386e-08 1.48095e-08)
(4.31853e-10 -9.76824e-10 6.93071e-10)
(1.20494e-09 -2.73181e-09 1.96082e-09)
(1.91788e-09 -4.36493e-09 3.2055e-09)
(2.59734e-09 -5.93563e-09 4.50866e-09)
(3.2678e-09 -7.48517e-09 5.94395e-09)
(3.95289e-09 -9.03449e-09 7.57979e-09)
(4.67733e-09 -1.05801e-08 9.48058e-09)
(5.47006e-09 -1.20873e-08 1.17068e-08)
(6.36887e-09 -1.34762e-08 1.43119e-08)
(7.43035e-09 -1.46012e-08 1.73348e-08)
(8.74987e-09 -1.52151e-08 2.07854e-08)
(1.05092e-08 -1.49182e-08 2.46236e-08)
(1.30436e-08 -1.31033e-08 2.87075e-08)
(1.69067e-08 -8.97606e-09 3.26857e-08)
(2.25188e-08 -2.13708e-09 3.56517e-08)
(2.82011e-08 4.8149e-09 3.58733e-08)
(7.08699e-10 -1.59564e-09 1.13549e-09)
(1.97712e-09 -4.46373e-09 3.2121e-09)
(3.14601e-09 -7.13656e-09 5.24966e-09)
(4.25833e-09 -9.71331e-09 7.38072e-09)
(5.35348e-09 -1.22651e-08 9.72497e-09)
(6.46926e-09 -1.48321e-08 1.23936e-08)
(7.6444e-09 -1.7419e-08 1.54918e-08)
(8.9217e-09 -1.9985e-08 1.91181e-08)
(1.03523e-08 -2.24289e-08 2.336e-08)
(1.20018e-08 -2.45638e-08 2.828e-08)
(1.39624e-08 -2.60867e-08 3.38889e-08)
(1.63751e-08 -2.65568e-08 4.00983e-08)
(1.94572e-08 -2.54415e-08 4.66364e-08)
(2.34726e-08 -2.23968e-08 5.28875e-08)
(2.83922e-08 -1.81354e-08 5.76325e-08)
(3.26447e-08 -1.56962e-08 5.91312e-08)
(9.69519e-10 -2.16592e-09 1.54962e-09)
(2.70429e-09 -6.06168e-09 4.38298e-09)
(4.30104e-09 -9.69929e-09 7.15999e-09)
(5.81735e-09 -1.3218e-08 1.00601e-08)
(7.30569e-09 -1.6721e-08 1.32443e-08)
(8.81628e-09 -2.02742e-08 1.68628e-08)
(1.03996e-08 -2.39012e-08 2.10581e-08)
(1.21089e-08 -2.75756e-08 2.59653e-08)
(1.40013e-08 -3.12062e-08 3.17058e-08)
(1.6137e-08 -3.46157e-08 3.837e-08)
(1.85732e-08 -3.75154e-08 4.59812e-08)
(2.13509e-08 -3.94986e-08 5.44295e-08)
(2.44606e-08 -4.01068e-08 6.3354e-08)
(2.77554e-08 -3.91092e-08 7.19307e-08)
(3.07567e-08 -3.71859e-08 7.85657e-08)
(3.23941e-08 -3.65173e-08 8.10083e-08)
(1.20897e-09 -2.6684e-09 1.92624e-09)
(3.37115e-09 -7.47167e-09 5.44645e-09)
(5.35811e-09 -1.19669e-08 8.89188e-09)
(7.2396e-09 -1.63328e-08 1.24818e-08)
(9.07925e-09 -2.07062e-08 1.64132e-08)
(1.09378e-08 -2.51837e-08 2.08696e-08)
(1.28758e-08 -2.98186e-08 2.60261e-08)
(1.49555e-08 -3.46162e-08 3.20504e-08)
(1.72407e-08 -3.95241e-08 3.90978e-08)
(1.97887e-08 -4.44157e-08 4.72923e-08)
(2.26334e-08 -4.9068e-08 5.66896e-08)
(2.57454e-08 -5.31418e-08 6.72044e-08)
(2.89439e-08 -5.61809e-08 7.84607e-08)
(3.17591e-08 -5.77004e-08 8.95256e-08)
(3.33033e-08 -5.7557e-08 9.84451e-08)
(3.27896e-08 -5.68726e-08 1.02195e-07)
(1.42259e-09 -3.0844e-09 2.2578e-09)
(3.96505e-09 -8.64105e-09 6.3812e-09)
(6.29662e-09 -1.38546e-08 1.04093e-08)
(8.49654e-09 -1.89402e-08 1.45939e-08)
(1.06371e-08 -2.40685e-08 1.91605e-08)
(1.27874e-08 -2.93686e-08 2.43188e-08)
(1.50165e-08 -3.49298e-08 3.02695e-08)
(1.73961e-08 -4.08009e-08 3.72065e-08)
(2.00007e-08 -4.69873e-08 4.53143e-08)
(2.2901e-08 -5.34439e-08 5.4753e-08)
(2.61505e-08 -6.00607e-08 6.56295e-08)
(2.97388e-08 -6.66321e-08 7.79193e-08)
(3.35132e-08 -7.27911e-08 9.13477e-08)
(3.6978e-08 -7.78463e-08 1.0505e-07)
(3.90211e-08 -8.05901e-08 1.16941e-07)
(3.82599e-08 -8.00463e-08 1.23109e-07)
(1.60692e-09 -3.39648e-09 2.53883e-09)
(4.47654e-09 -9.52076e-09 7.17189e-09)
(7.10133e-09 -1.52822e-08 1.16869e-08)
(9.56703e-09 -2.09278e-08 1.63599e-08)
(1.19516e-08 -2.66582e-08 2.14362e-08)
(1.43297e-08 -3.26337e-08 2.71432e-08)
(1.67766e-08 -3.89794e-08 3.36976e-08)
(1.9372e-08 -4.57894e-08 4.13094e-08)
(2.22037e-08 -5.31324e-08 5.01821e-08)
(2.5368e-08 -6.10555e-08 6.05034e-08)
(2.89686e-08 -6.95886e-08 7.24222e-08)
(3.31104e-08 -7.87447e-08 8.60053e-08)
(3.78699e-08 -8.84891e-08 1.01128e-07)
(4.31939e-08 -9.85782e-08 1.17177e-07)
(4.85193e-08 -1.08019e-07 1.32249e-07)
(5.18187e-08 -1.13927e-07 1.41591e-07)
(1.75982e-09 -3.58943e-09 2.76637e-09)
(4.89965e-09 -1.0068e-08 7.81018e-09)
(7.76313e-09 -1.61799e-08 1.27115e-08)
(1.04388e-08 -2.21962e-08 1.77613e-08)
(1.30069e-08 -2.83409e-08 2.32156e-08)
(1.5544e-08 -3.47996e-08 2.93098e-08)
(1.81274e-08 -4.17266e-08 3.62655e-08)
(2.08406e-08 -4.92535e-08 4.42956e-08)
(2.37784e-08 -5.74984e-08 5.36049e-08)
(2.70556e-08 -6.65789e-08 6.43856e-08)
(3.08171e-08 -7.66315e-08 7.68e-08)
(3.52633e-08 -8.78481e-08 9.09574e-08)
(4.06917e-08 -1.00536e-07 1.06844e-07)
(4.7558e-08 -1.15183e-07 1.24108e-07)
(5.63212e-08 -1.32218e-07 1.41284e-07)
(6.55288e-08 -1.49183e-07 1.53466e-07)
(1.45333e-10 -3.35047e-10 2.1241e-10)
(4.05259e-10 -9.3697e-10 6.00758e-10)
(6.44284e-10 -1.49705e-09 9.81568e-10)
(8.70752e-10 -2.03565e-09 1.37917e-09)
(1.09221e-09 -2.56712e-09 1.81575e-09)
(1.3153e-09 -3.09884e-09 2.3112e-09)
(1.54624e-09 -3.62982e-09 2.88333e-09)
(1.79163e-09 -4.14968e-09 3.54792e-09)
(2.05895e-09 -4.6338e-09 4.31606e-09)
(2.35912e-09 -5.03892e-09 5.19087e-09)
(2.71181e-09 -5.29309e-09 6.15965e-09)
(3.15926e-09 -5.27995e-09 7.18097e-09)
(3.78986e-09 -4.80799e-09 8.15741e-09)
(4.78603e-09 -3.53635e-09 8.88977e-09)
(6.38758e-09 -9.00907e-10 8.94005e-09)
(8.22462e-09 3.1081e-09 7.57258e-09)
(4.32474e-10 -9.94679e-10 6.31413e-10)
(1.20591e-09 -2.78198e-09 1.78577e-09)
(1.91674e-09 -4.44598e-09 2.91686e-09)
(2.5899e-09 -6.04788e-09 4.09764e-09)
(3.24721e-09 -7.6308e-09 5.39276e-09)
(3.90817e-09 -9.218e-09 6.86083e-09)
(4.59096e-09 -1.08102e-08 8.55496e-09)
(5.3131e-09 -1.23792e-08 1.05203e-08)
(6.09324e-09 -1.38606e-08 1.27893e-08)
(6.95323e-09 -1.51393e-08 1.53678e-08)
(7.92556e-09 -1.60343e-08 1.8211e-08)
(9.06318e-09 -1.62889e-08 2.11735e-08)
(1.04596e-08 -1.55875e-08 2.39279e-08)
(1.21963e-08 -1.3678e-08 2.57824e-08)
(1.4078e-08 -1.07839e-08 2.54899e-08)
(1.50408e-08 -8.50892e-09 2.21432e-08)
(7.09948e-10 -1.62461e-09 1.03449e-09)
(1.97941e-09 -4.54508e-09 2.92545e-09)
(3.14554e-09 -7.26795e-09 4.77718e-09)
(4.24857e-09 -9.89504e-09 6.70832e-09)
(5.32392e-09 -1.25003e-08 8.82397e-09)
(6.40314e-09 -1.51273e-08 1.12197e-08)
(7.51483e-09 -1.77855e-08 1.39819e-08)
(8.68535e-09 -2.04438e-08 1.71859e-08)
(9.93737e-09 -2.30188e-08 2.08858e-08)
(1.1288e-08 -2.53617e-08 2.50955e-08)
(1.2743e-08 -2.72472e-08 2.97491e-08)
(1.42883e-08 -2.83901e-08 3.46325e-08)
(1.58633e-08 -2.85454e-08 3.92652e-08)
(1.72799e-08 -2.77995e-08 4.27286e-08)
(1.80536e-08 -2.71063e-08 4.36038e-08)
(1.75222e-08 -2.81459e-08 4.12101e-08)
(9.71737e-10 -2.20493e-09 1.41203e-09)
(2.70888e-09 -6.17129e-09 3.99187e-09)
(4.30317e-09 -9.876e-09 6.51614e-09)
(5.80882e-09 -1.3462e-08 9.14453e-09)
(7.27338e-09 -1.70359e-08 1.20189e-08)
(8.73945e-09 -2.06667e-08 1.52683e-08)
(1.02454e-08 -2.43834e-08 1.90108e-08)
(1.18245e-08 -2.81673e-08 2.335e-08)
(1.35011e-08 -3.19436e-08 2.83646e-08)
(1.52795e-08 -3.55674e-08 3.40842e-08)
(1.71224e-08 -3.88172e-08 4.04414e-08)
(1.89092e-08 -4.14161e-08 4.71914e-08)
(2.03596e-08 -4.31387e-08 5.3777e-08)
(2.09274e-08 -4.40865e-08 5.91525e-08)
(1.98057e-08 -4.51008e-08 6.17398e-08)
(1.69091e-08 -4.72664e-08 6.05966e-08)
(1.21251e-09 -2.71613e-09 1.7553e-09)
(3.37917e-09 -7.60552e-09 4.96109e-09)
(5.36514e-09 -1.21826e-08 8.09325e-09)
(7.2364e-09 -1.663e-08 1.13475e-08)
(9.05138e-09 -2.10883e-08 1.48972e-08)
(1.08627e-08 -2.56569e-08 1.89007e-08)
(1.27177e-08 -3.03923e-08 2.35031e-08)
(1.46583e-08 -3.5305e-08 2.88345e-08)
(1.67135e-08 -4.03515e-08 3.49987e-08)
(1.88847e-08 -4.54241e-08 4.20483e-08)
(2.11115e-08 -5.03399e-08 4.9934e-08)
(2.3203e-08 -5.48386e-08 5.84138e-08)
(2.47236e-08 -5.86179e-08 6.69178e-08)
(2.48258e-08 -6.14403e-08 7.43209e-08)
(2.23264e-08 -6.33842e-08 7.88419e-08)
(1.73869e-08 -6.49619e-08 7.90422e-08)
(1.42774e-09 -3.13912e-09 2.05761e-09)
(3.97768e-09 -8.79456e-09 5.81334e-09)
(6.3107e-09 -1.41016e-08 9.47578e-09)
(8.50264e-09 -1.92801e-08 1.327e-08)
(1.06206e-08 -2.45038e-08 1.73946e-08)
(1.27255e-08 -2.99041e-08 2.20305e-08)
(1.48744e-08 -3.55712e-08 2.73447e-08)
(1.71185e-08 -4.15541e-08 3.34884e-08)
(1.95002e-08 -4.78582e-08 4.05878e-08)
(2.2038e-08 -5.44392e-08 4.87207e-08)
(2.46927e-08 -6.119e-08 5.7862e-08)
(2.73102e-08 -6.79208e-08 6.78134e-08)
(2.94781e-08 -7.42992e-08 7.80207e-08)
(3.03249e-08 -7.97271e-08 8.73468e-08)
(2.84081e-08 -8.31745e-08 9.38335e-08)
(2.32517e-08 -8.36289e-08 9.55096e-08)
(1.61404e-09 -3.45635e-09 2.31416e-09)
(4.49454e-09 -9.68861e-09 6.53473e-09)
(7.12429e-09 -1.55522e-08 1.06408e-08)
(9.58565e-09 -2.12988e-08 1.48789e-08)
(1.1952e-08 -2.71319e-08 1.94655e-08)
(1.42908e-08 -3.32131e-08 2.45969e-08)
(1.6666e-08 -3.96661e-08 3.04538e-08)
(1.91399e-08 -4.65807e-08 3.72006e-08)
(2.17717e-08 -5.40163e-08 4.49776e-08)
(2.4611e-08 -6.20029e-08 5.38786e-08)
(2.76829e-08 -7.05402e-08 6.39082e-08)
(3.09539e-08 -7.95861e-08 7.48973e-08)
(3.42581e-08 -8.90055e-08 8.6343e-08)
(3.71497e-08 -9.83869e-08 9.70995e-08)
(3.86799e-08 -1.06564e-07 1.04995e-07)
(3.77112e-08 -1.10913e-07 1.07416e-07)
(1.76899e-09 -3.65235e-09 2.522e-09)
(4.92367e-09 -1.02444e-08 7.11764e-09)
(7.79602e-09 -1.64636e-08 1.15761e-08)
(1.0472e-08 -2.25857e-08 1.61572e-08)
(1.30278e-08 -2.88374e-08 2.10873e-08)
(1.5534e-08 -3.54044e-08 2.65699e-08)
(1.80586e-08 -4.24382e-08 3.279e-08)
(2.06702e-08 -5.00622e-08 3.99142e-08)
(2.34408e-08 -5.83788e-08 4.8084e-08)
(2.64457e-08 -6.74763e-08 5.73943e-08)
(2.97649e-08 -7.74383e-08 6.78562e-08)
(3.34797e-08 -8.83563e-08 7.93165e-08)
(3.76655e-08 -1.00342e-07 9.12984e-08)
(4.23816e-08 -1.13506e-07 1.02659e-07)
(4.75915e-08 -1.2771e-07 1.11003e-07)
(5.24115e-08 -1.40589e-07 1.12805e-07)
(1.45051e-10 -3.40081e-10 1.84262e-10)
(4.0419e-10 -9.51117e-10 5.21019e-10)
(6.41496e-10 -1.51992e-09 8.50442e-10)
(8.64723e-10 -2.06733e-09 1.19373e-09)
(1.08026e-09 -2.60835e-09 1.56894e-09)
(1.29317e-09 -3.15097e-09 1.99231e-09)
(1.50725e-09 -3.69585e-09 2.47764e-09)
(1.72497e-09 -4.23488e-09 3.03557e-09)
(1.94715e-09 -4.74913e-09 3.67118e-09)
(2.17317e-09 -5.20585e-09 4.37946e-09)
(2.40186e-09 -5.55515e-09 5.1368e-09)
(2.63576e-09 -5.7258e-09 5.88776e-09)
(2.89325e-09 -5.61516e-09 6.53028e-09)
(3.21428e-09 -5.0535e-09 6.88812e-09)
(3.64119e-09 -3.71952e-09 6.73273e-09)
(3.98788e-09 -1.37866e-09 5.95049e-09)
(4.31734e-10 -1.00955e-09 5.47784e-10)
(1.20291e-09 -2.82375e-09 1.54855e-09)
(1.90901e-09 -4.51346e-09 2.52767e-09)
(2.57276e-09 -6.14129e-09 3.54668e-09)
(3.21301e-09 -7.75189e-09 4.65982e-09)
(3.84476e-09 -9.37074e-09 5.9146e-09)
(4.47905e-09 -1.10018e-08 7.35178e-09)
(5.12222e-09 -1.26243e-08 9.00248e-09)
(5.77432e-09 -1.41867e-08 1.08813e-08)
(6.42643e-09 -1.5601e-08 1.29719e-08)
(7.05837e-09 -1.67377e-08 1.52019e-08)
(7.64074e-09 -1.74334e-08 1.74057e-08)
(8.13e-09 -1.75249e-08 1.9256e-08)
(8.46071e-09 -1.69222e-08 2.02125e-08)
(8.48884e-09 -1.57449e-08 1.95857e-08)
(8.05718e-09 -1.45526e-08 1.74736e-08)
(7.08995e-10 -1.6487e-09 8.97557e-10)
(1.97533e-09 -4.61283e-09 2.53698e-09)
(3.13438e-09 -7.37713e-09 4.13992e-09)
(4.2231e-09 -1.00458e-08 5.80679e-09)
(5.27227e-09 -1.26948e-08 7.62543e-09)
(6.30655e-09 -1.53706e-08 9.67342e-09)
(7.34403e-09 -1.80872e-08 1.20177e-08)
(8.39419e-09 -2.08216e-08 1.47103e-08)
(9.45312e-09 -2.35069e-08 1.77776e-08)
(1.0495e-08 -2.60256e-08 2.11991e-08)
(1.14588e-08 -2.8211e-08 2.48719e-08)
(1.22309e-08 -2.98762e-08 2.85545e-08)
(1.26233e-08 -3.09103e-08 3.17989e-08)
(1.23703e-08 -3.14772e-08 3.39153e-08)
(1.1241e-08 -3.22436e-08 3.41976e-08)
(9.64058e-09 -3.38764e-08 3.30063e-08)
(9.7095e-10 -2.23739e-09 1.22503e-09)
(2.70493e-09 -6.26227e-09 3.46233e-09)
(4.29095e-09 -1.00225e-08 5.6475e-09)
(5.77908e-09 -1.36634e-08 7.91648e-09)
(7.21125e-09 -1.72941e-08 1.03878e-08)
(8.62166e-09 -2.09864e-08 1.31664e-08)
(1.00358e-08 -2.47728e-08 1.6344e-08)
(1.1467e-08 -2.86416e-08 1.99933e-08)
(1.29086e-08 -3.25308e-08 2.41556e-08)
(1.43174e-08 -3.63209e-08 2.88154e-08)
(1.55861e-08 -3.98357e-08 3.38581e-08)
(1.64992e-08 -4.28736e-08 3.90092e-08)
(1.66781e-08 -4.53027e-08 4.37657e-08)
(1.55734e-08 -4.72564e-08 4.7382e-08)
(1.27527e-08 -4.93219e-08 4.91273e-08)
(9.18833e-09 -5.18628e-08 4.91905e-08)
(1.21235e-09 -2.75565e-09 1.52311e-09)
(3.37677e-09 -7.71638e-09 4.30341e-09)
(5.35452e-09 -1.23606e-08 7.0153e-09)
(7.20719e-09 -1.68737e-08 9.82511e-09)
(8.98697e-09 -2.13987e-08 1.28779e-08)
(1.07373e-08 -2.60365e-08 1.63025e-08)
(1.2492e-08 -3.08456e-08 2.02121e-08)
(1.42717e-08 -3.58388e-08 2.46989e-08)
(1.60738e-08 -4.09775e-08 2.98205e-08)
(1.78519e-08 -4.61645e-08 3.55725e-08)
(1.94784e-08 -5.12366e-08 4.1844e-08)
(2.06809e-08 -5.59685e-08 4.83562e-08)
(2.09434e-08 -6.00954e-08 5.45782e-08)
(1.94618e-08 -6.33845e-08 5.97296e-08)
(1.54732e-08 -6.57581e-08 6.29976e-08)
(1.01439e-08 -6.73181e-08 6.42748e-08)
(1.4287e-09 -3.18435e-09 1.7858e-09)
(3.97816e-09 -8.92118e-09 5.04343e-09)
(6.30444e-09 -1.43045e-08 8.21507e-09)
(8.47873e-09 -1.95568e-08 1.14918e-08)
(1.05619e-08 -2.48538e-08 1.504e-08)
(1.2606e-08 -3.03272e-08 1.90072e-08)
(1.46542e-08 -3.6066e-08 2.35239e-08)
(1.6738e-08 -4.21161e-08 2.86977e-08)
(1.88689e-08 -4.84773e-08 3.46006e-08)
(2.10204e-08 -5.50966e-08 4.124e-08)
(2.30954e-08 -6.18554e-08 4.8519e-08)
(2.48572e-08 -6.85412e-08 5.61497e-08)
(2.58329e-08 -7.4789e-08 6.35961e-08)
(2.51966e-08 -7.99411e-08 7.00107e-08)
(2.19312e-08 -8.28796e-08 7.44559e-08)
(1.65487e-08 -8.25827e-08 7.66061e-08)
(1.61644e-09 -3.50563e-09 2.00872e-09)
(4.49918e-09 -9.82653e-09 5.67027e-09)
(7.12471e-09 -1.57727e-08 9.22684e-09)
(9.57113e-09 -2.15987e-08 1.28879e-08)
(1.1906e-08 -2.75091e-08 1.68349e-08)
(1.41883e-08 -3.36643e-08 2.12284e-08)
(1.64697e-08 -4.01839e-08 2.62094e-08)
(1.87942e-08 -4.71492e-08 3.18954e-08)
(2.11932e-08 -5.46038e-08 3.83662e-08)
(2.36772e-08 -6.25515e-08 4.56382e-08)
(2.62157e-08 -7.09474e-08 5.36152e-08)
(2.87038e-08 -7.96746e-08 6.20129e-08)
(3.0906e-08 -8.84751e-08 7.02496e-08)
(3.24015e-08 -9.67686e-08 7.73557e-08)
(3.26166e-08 -1.03256e-07 8.21074e-08)
(3.13956e-08 -1.05712e-07 8.39645e-08)
(1.77316e-09 -3.70398e-09 2.18952e-09)
(4.93328e-09 -1.03889e-08 6.17726e-09)
(7.80484e-09 -1.66944e-08 1.00399e-08)
(1.04699e-08 -2.28988e-08 1.39985e-08)
(1.29995e-08 -2.92295e-08 1.82429e-08)
(1.54568e-08 -3.58697e-08 2.29398e-08)
(1.78992e-08 -4.29646e-08 2.8234e-08)
(2.03794e-08 -5.06248e-08 3.42442e-08)
(2.29457e-08 -5.89301e-08 4.10498e-08)
(2.56401e-08 -6.79304e-08 4.86657e-08)
(2.84938e-08 -7.7644e-08 5.69906e-08)
(3.15213e-08 -8.80538e-08 6.57285e-08)
(3.47219e-08 -9.9095e-08 7.42555e-08)
(3.81302e-08 -1.10629e-07 8.14526e-08)
(4.19303e-08 -1.22297e-07 8.56496e-08)
(4.61013e-08 -1.32373e-07 8.57386e-08)
(1.44494e-10 -3.44066e-10 1.49855e-10)
(4.02296e-10 -9.62292e-10 4.23471e-10)
(6.37493e-10 -1.5379e-09 6.9105e-10)
(8.57061e-10 -2.09236e-09 9.68772e-10)
(1.06639e-09 -2.64079e-09 1.27142e-09)
(1.26907e-09 -3.19193e-09 1.61102e-09)
(1.46679e-09 -3.74755e-09 1.99767e-09)
(1.6586e-09 -4.30128e-09 2.43785e-09)
(1.84059e-09 -4.83806e-09 2.93306e-09)
(2.0045e-09 -5.33194e-09 3.47505e-09)
(2.1384e-09 -5.7448e-09 4.0407e-09)
(2.23003e-09 -6.02508e-09 4.58503e-09)
(2.27425e-09 -6.0996e-09 5.03396e-09)
(2.29133e-09 -5.83322e-09 5.30752e-09)
(2.3239e-09 -4.91558e-09 5.37337e-09)
(2.33245e-09 -2.97131e-09 5.30932e-09)
(4.30142e-10 -1.02132e-09 4.45446e-10)
(1.19761e-09 -2.85678e-09 1.25908e-09)
(1.89763e-09 -4.56682e-09 2.05359e-09)
(2.55081e-09 -6.21494e-09 2.8787e-09)
(3.17321e-09 -7.84732e-09 3.77649e-09)
(3.77554e-09 -9.49067e-09 4.78325e-09)
(4.36265e-09 -1.11515e-08 5.92821e-09)
(4.9319e-09 -1.28142e-08 7.23123e-09)
(5.46969e-09 -1.44365e-08 8.69553e-09)
(5.94788e-09 -1.59464e-08 1.0297e-08)
(6.321e-09 -1.72419e-08 1.19666e-08)
(6.5274e-09 -1.81981e-08 1.35641e-08)
(6.50679e-09 -1.86872e-08 1.48666e-08)
(6.23452e-09 -1.8594e-08 1.55645e-08)
(5.78687e-09 -1.78245e-08 1.53972e-08)
(5.41715e-09 -1.65267e-08 1.45815e-08)
(7.06662e-10 -1.66781e-09 7.29939e-10)
(1.96749e-09 -4.66644e-09 2.06284e-09)
(3.11726e-09 -7.46339e-09 3.36395e-09)
(4.18974e-09 -1.01645e-08 4.7136e-09)
(5.21114e-09 -1.28472e-08 6.18059e-09)
(6.19986e-09 -1.55598e-08 7.82398e-09)
(7.16484e-09 -1.83197e-08 9.69231e-09)
(8.10195e-09 -2.11093e-08 1.18186e-08)
(8.98826e-09 -2.38723e-08 1.42112e-08)
(9.77216e-09 -2.65094e-08 1.68365e-08)
(1.03618e-08 -2.88817e-08 1.95933e-08)
(1.0617e-08 -3.0837e-08 2.22838e-08)
(1.03608e-08 -3.22785e-08 2.45962e-08)
(9.45463e-09 -3.3286e-08 2.61484e-08)
(8.02602e-09 -3.42344e-08 2.67129e-08)
(6.87336e-09 -3.54701e-08 2.66691e-08)
(9.68318e-10 -2.26307e-09 9.96537e-10)
(2.69581e-09 -6.33429e-09 2.81538e-09)
(4.27053e-09 -1.0138e-08 4.58951e-09)
(5.73833e-09 -1.38213e-08 6.42694e-09)
(7.13576e-09 -1.7495e-08 8.4207e-09)
(8.48919e-09 -2.12325e-08 1.0651e-08)
(9.81286e-09 -2.50681e-08 1.31843e-08)
(1.11044e-08 -2.89943e-08 1.60676e-08)
(1.23353e-08 -3.29558e-08 1.93169e-08)
(1.34351e-08 -3.68446e-08 2.28967e-08)
(1.42681e-08 -4.05025e-08 2.66912e-08)
(1.46062e-08 -4.37443e-08 3.04732e-08)
(1.41167e-08 -4.64278e-08 3.38937e-08)
(1.2446e-08 -4.85911e-08 3.65523e-08)
(9.58861e-09 -5.05828e-08 3.82328e-08)
(6.8183e-09 -5.26238e-08 3.91551e-08)
(1.20988e-09 -2.78694e-09 1.2391e-09)
(3.36784e-09 -7.80389e-09 3.49988e-09)
(5.33351e-09 -1.25004e-08 5.70192e-09)
(7.16393e-09 -1.70638e-08 7.97772e-09)
(8.90509e-09 -2.1638e-08 1.04411e-08)
(1.05921e-08 -2.63245e-08 1.31906e-08)
(1.22469e-08 -3.1182e-08 1.63088e-08)
(1.38733e-08 -3.62225e-08 1.98555e-08)
(1.54468e-08 -4.14074e-08 2.38557e-08)
(1.68954e-08 -4.6639e-08 2.82778e-08)
(1.80689e-08 -5.17527e-08 3.30009e-08)
(1.86925e-08 -5.6513e-08 3.77798e-08)
(1.83265e-08 -6.06249e-08 4.22502e-08)
(1.63985e-08 -6.37688e-08 4.59858e-08)
(1.25987e-08 -6.57269e-08 4.87424e-08)
(8.31356e-09 -6.66283e-08 5.05445e-08)
(1.42686e-09 -3.22004e-09 1.45294e-09)
(3.9709e-09 -9.02088e-09 4.10241e-09)
(6.28575e-09 -1.44632e-08 6.67823e-09)
(8.43773e-09 -1.97713e-08 9.33274e-09)
(1.04818e-08 -2.51212e-08 1.21966e-08)
(1.24614e-08 -3.06437e-08 1.5383e-08)
(1.44079e-08 -3.64247e-08 1.89868e-08)
(1.63367e-08 -4.25046e-08 2.30786e-08)
(1.82387e-08 -4.88738e-08 2.76911e-08)
(2.00648e-08 -5.54641e-08 3.27966e-08)
(2.16969e-08 -6.2131e-08 3.82661e-08)
(2.29094e-08 -6.86248e-08 4.38495e-08)
(2.33074e-08 -7.45183e-08 4.91319e-08)
(2.23108e-08 -7.90796e-08 5.36329e-08)
(1.93573e-08 -8.11635e-08 5.70356e-08)
(1.51521e-08 -8.00109e-08 5.93064e-08)
(1.61565e-09 -3.54441e-09 1.63465e-09)
(4.4949e-09 -9.93473e-09 4.61311e-09)
(7.11073e-09 -1.59446e-08 7.50209e-09)
(9.53682e-09 -2.18297e-08 1.04686e-08)
(1.18347e-08 -2.77945e-08 1.36555e-08)
(1.40555e-08 -3.39968e-08 1.71858e-08)
(1.624e-08 -4.05503e-08 2.11624e-08)
(1.84173e-08 -4.75257e-08 2.5662e-08)
(2.06004e-08 -5.49487e-08 3.07212e-08)
(2.27789e-08 -6.27935e-08 3.63108e-08)
(2.49063e-08 -7.09691e-08 4.22985e-08)
(2.68843e-08 -7.929e-08 4.8399e-08)
(2.85505e-08 -8.7407e-08 5.41371e-08)
(2.97052e-08 -9.46564e-08 5.88857e-08)
(3.01979e-08 -9.98003e-08 6.2129e-08)
(3.00732e-08 -1.01143e-07 6.38917e-08)
(1.77378e-09 -3.74449e-09 1.78208e-09)
(4.93298e-09 -1.05019e-08 5.02646e-09)
(7.79762e-09 -1.68735e-08 8.16464e-09)
(1.04455e-08 -2.31386e-08 1.13732e-08)
(1.29425e-08 -2.95237e-08 1.48016e-08)
(1.53447e-08 -3.62083e-08 1.8578e-08)
(1.76996e-08 -4.33294e-08 2.28079e-08)
(2.00471e-08 -5.09833e-08 2.75686e-08)
(2.24195e-08 -5.9226e-08 3.28952e-08)
(2.48401e-08 -6.80685e-08 3.87531e-08)
(2.7325e-08 -7.74703e-08 4.49987e-08)
(2.98898e-08 -8.73293e-08 5.13182e-08)
(3.25864e-08 -9.74727e-08 5.71633e-08)
(3.56188e-08 -1.07673e-07 6.17298e-08)
(3.95284e-08 -1.17679e-07 6.41511e-08)
(4.45315e-08 -1.26431e-07 6.42444e-08)
(1.43841e-10 -3.4697e-10 1.10496e-10)
(4.00239e-10 -9.70447e-10 3.12343e-10)
(6.3334e-10 -1.55113e-09 5.09093e-10)
(8.4945e-10 -2.11034e-09 7.13322e-10)
(1.05344e-09 -2.66463e-09 9.35033e-10)
(1.2474e-09 -3.22201e-09 1.18276e-09)
(1.43145e-09 -3.78502e-09 1.46307e-09)
(1.60258e-09 -4.34873e-09 1.77988e-09)
(1.75388e-09 -4.89987e-09 2.13272e-09)
(1.87392e-09 -5.41568e-09 2.51435e-09)
(1.94774e-09 -5.86233e-09 2.90712e-09)
(1.96179e-09 -6.1927e-09 3.2803e-09)
(1.9169e-09 -6.33528e-09 3.59777e-09)
(1.84655e-09 -6.14421e-09 3.82909e-09)
(1.82115e-09 -5.287e-09 4.01135e-09)
(1.82924e-09 -3.3554e-09 4.20132e-09)
(4.28318e-10 -1.02998e-09 3.28603e-10)
(1.19176e-09 -2.88111e-09 9.28296e-10)
(1.88568e-09 -4.60571e-09 1.51346e-09)
(2.52941e-09 -6.26955e-09 2.1198e-09)
(3.13578e-09 -7.91721e-09 2.7775e-09)
(3.71274e-09 -9.57778e-09 3.51181e-09)
(4.26051e-09 -1.12591e-08 4.34214e-09)
(4.77029e-09 -1.29483e-08 5.2799e-09)
(5.22089e-09 -1.46078e-08 6.3237e-09)
(5.57595e-09 -1.61728e-08 7.45147e-09)
(5.78409e-09 -1.75496e-08 8.61005e-09)
(5.78934e-09 -1.86188e-08 9.70963e-09)
(5.56097e-09 -1.92372e-08 1.06149e-08)
(5.15284e-09 -1.92279e-08 1.11772e-08)
(4.77507e-09 -1.83659e-08 1.12912e-08)
(4.71733e-09 -1.6747e-08 1.10283e-08)
(7.03933e-10 -1.68191e-09 5.3847e-10)
(1.95865e-09 -4.70594e-09 1.52105e-09)
(3.09937e-09 -7.52725e-09 2.47936e-09)
(4.15649e-09 -1.02515e-08 3.47122e-09)
(5.15335e-09 -1.29587e-08 4.54605e-09)
(6.10275e-09 -1.5697e-08 5.74489e-09)
(7.00693e-09 -1.84856e-08 7.09997e-09)
(7.85301e-09 -2.13102e-08 8.63079e-09)
(8.60736e-09 -2.41189e-08 1.03369e-08)
(9.20831e-09 -2.68189e-08 1.21864e-08)
(9.56095e-09 -2.92774e-08 1.41025e-08)
(9.54301e-09 -3.13397e-08 1.59526e-08)
(9.04143e-09 -3.28721e-08 1.75519e-08)
(8.05748e-09 -3.38572e-08 1.87108e-08)
(6.91157e-09 -3.45092e-08 1.93502e-08)
(6.35158e-09 -3.52009e-08 1.96176e-08)
(9.65066e-10 -2.28211e-09 7.35011e-10)
(2.6852e-09 -6.38753e-09 2.07637e-09)
(4.24839e-09 -1.02229e-08 3.383e-09)
(5.69741e-09 -1.39375e-08 4.73361e-09)
(7.0634e-09 -1.7641e-08 6.19449e-09)
(8.3672e-09 -2.14087e-08 7.82171e-09)
(9.61477e-09 -2.52756e-08 9.65954e-09)
(1.07933e-08 -2.92348e-08 1.17359e-08)
(1.18626e-08 -3.32328e-08 1.40537e-08)
(1.27431e-08 -3.71628e-08 1.65766e-08)
(1.33017e-08 -4.08641e-08 1.92142e-08)
(1.33435e-08 -4.41369e-08 2.18121e-08)
(1.26315e-08 -4.6795e-08 2.41631e-08)
(1.09948e-08 -4.8775e-08 2.60682e-08)
(8.64266e-09 -5.03036e-08 2.74525e-08)
(6.69547e-09 -5.17167e-08 2.83349e-08)
(1.20651e-09 -2.81004e-09 9.14111e-10)
(3.35674e-09 -7.86857e-09 2.58147e-09)
(5.31003e-09 -1.26035e-08 4.20361e-09)
(7.11892e-09 -1.72024e-08 5.87656e-09)
(8.82521e-09 -2.18106e-08 7.68186e-09)
(1.04567e-08 -2.65287e-08 9.68836e-09)
(1.20267e-08 -3.1414e-08 1.19511e-08)
(1.35284e-08 -3.64766e-08 1.45059e-08)
(1.49259e-08 -4.16735e-08 1.736e-08)
(1.61402e-08 -4.68997e-08 2.04755e-08)
(1.7029e-08 -5.19766e-08 2.37537e-08)
(1.73652e-08 -5.66447e-08 2.70295e-08)
(1.68209e-08 -6.05574e-08 3.00691e-08)
(1.50348e-08 -6.33241e-08 3.26646e-08)
(1.1915e-08 -6.46714e-08 3.47224e-08)
(8.61872e-09 -6.49128e-08 3.61383e-08)
(1.42388e-09 -3.24644e-09 1.07211e-09)
(3.96062e-09 -9.09441e-09 3.02635e-09)
(6.26296e-09 -1.45796e-08 4.92409e-09)
(8.39352e-09 -1.99273e-08 6.8758e-09)
(1.04013e-08 -2.53125e-08 8.97499e-09)
(1.23236e-08 -3.08648e-08 1.13009e-08)
(1.41831e-08 -3.66666e-08 1.3917e-08)
(1.59847e-08 -4.27516e-08 1.68654e-08)
(1.77091e-08 -4.90994e-08 2.01564e-08)
(1.93015e-08 -5.56242e-08 2.375e-08)
(2.06575e-08 -6.21567e-08 2.75442e-08)
(2.15994e-08 -6.84079e-08 3.13422e-08)
(2.18566e-08 -7.39054e-08 3.48844e-08)
(2.10622e-08 -7.78797e-08 3.79089e-08)
(1.88726e-08 -7.92245e-08 4.02888e-08)
(1.57378e-08 -7.7458e-08 4.19268e-08)
(1.61337e-09 -3.57302e-09 1.20633e-09)
(4.48664e-09 -1.00144e-08 3.4036e-09)
(7.09135e-09 -1.60703e-08 5.5324e-09)
(9.49667e-09 -2.19966e-08 7.71389e-09)
(1.17599e-08 -2.7997e-08 1.00505e-08)
(1.39254e-08 -3.42261e-08 1.26284e-08)
(1.60259e-08 -4.07918e-08 1.55164e-08)
(1.80809e-08 -4.77543e-08 1.87602e-08)
(2.00942e-08 -5.51221e-08 2.23704e-08)
(2.20516e-08 -6.28434e-08 2.63052e-08)
(2.39187e-08 -7.07905e-08 3.04458e-08)
(2.56438e-08 -7.87295e-08 3.45709e-08)
(2.71794e-08 -8.62654e-08 3.83509e-08)
(2.85255e-08 -9.27293e-08 4.14196e-08)
(2.97377e-08 -9.70078e-08 4.35384e-08)
(3.06162e-08 -9.7786e-08 4.47474e-08)
(1.77254e-09 -3.77435e-09 1.31532e-09)