/*--------------------------------*- C++ -*----------------------------------*\
| =========                 |                                                 |
| \\      /  F ield         | OpenFOAM: The Open Source CFD Toolbox           |
|  \\    /   O peration     | Version:  v1912                                 |
|   \\  /    A nd           | Website:  www.openfoam.com                      |
|    \\/     M anipulation  |                                                 |
\*---------------------------------------------------------------------------*/
FoamFile
{
    version     2.0;
    format      ascii;
    class       volScalarField;
    location    "0.65/fluid";
    object      p;
}
// * * * * * * * * * * * * * * * * * * * * * * * * * * * * * * * * * * * * * //

dimensions      [0 2 -2 0 0 0 0];


internalField   nonuniform List<scalar> 
14592
(
0.0538538
0.0482443
0.0463556
0.044772
0.0438671
0.043164
0.0426118
0.0421337
0.0416825
0.0413153
0.0408997
0.0406993
0.0402136
0.0404582
0.0396607
0.0416051
0.0496792
0.0479344
0.0462595
0.0449073
0.043995
0.0432749
0.0426997
0.0422103
0.041757
0.0413986
0.0409986
0.040836
0.0403878
0.040781
0.0399557
0.0428804
0.0476989
0.0470872
0.0458556
0.0448581
0.0440164
0.0433202
0.0427329
0.0422336
0.0417759
0.0414253
0.0410476
0.0409382
0.0405539
0.0411291
0.0403683
0.0440455
0.0465169
0.0463687
0.0455076
0.0447523
0.0439976
0.0433315
0.0427352
0.0422203
0.0417482
0.0413934
0.0410237
0.0409534
0.0406254
0.0413568
0.0407131
0.0448053
0.0458143
0.0457898
0.045158
0.044561
0.043887
0.0432556
0.0426578
0.0421258
0.0416271
0.0412428
0.0408406
0.0407483
0.0403924
0.0411685
0.0405369
0.0449265
0.0453533
0.0453662
0.0448779
0.0443754
0.0437584
0.0431503
0.042549
0.0419985
0.0414725
0.041059
0.0406305
0.0405343
0.0401965
0.0411095
0.0406438
0.0455507
0.0450523
0.0450721
0.0446578
0.0442032
0.0436155
0.0430127
0.0423946
0.041808
0.0412267
0.0407336
0.0401937
0.0399384
0.0393616
0.0399782
0.0389655
0.0439327
0.0448717
0.044893
0.0445094
0.0440717
0.0434902
0.0428788
0.042238
0.0416155
0.0409874
0.0404348
0.0398327
0.0395173
0.0389193
0.0397007
0.0389519
0.0462933
0.0537629
0.0481555
0.0463039
0.0447612
0.0439096
0.0432656
0.0427803
0.0423777
0.0420142
0.0417451
0.0414468
0.0413464
0.0410005
0.041154
0.0404764
0.041142
0.0495884
0.0478438
0.0462068
0.0448962
0.0440378
0.0433776
0.04287
0.042457
0.0420921
0.0418325
0.0415494
0.041482
0.0411604
0.0414057
0.0406694
0.041751
0.0476043
0.0469911
0.0457964
0.0448402
0.0440528
0.0434173
0.0428982
0.0424757
0.0421064
0.0418548
0.041592
0.0415749
0.0413065
0.0416974
0.040977
0.0424715
0.0464199
0.0462697
0.0454443
0.0447293
0.0440281
0.0434221
0.0428932
0.0424546
0.0420698
0.0418133
0.0415565
0.0415776
0.0413571
0.0418862
0.0412471
0.0429949
0.0457143
0.0456876
0.0450903
0.0445324
0.0439103
0.0433374
0.0428048
0.0423464
0.0419311
0.0416409
0.0413437
0.0413363
0.0410687
0.0416278
0.0409448
0.0429101
0.0452505
0.0452612
0.0448065
0.0443418
0.0437749
0.0432233
0.0426846
0.0422046
0.041758
0.0414351
0.0411057
0.0410948
0.0408351
0.0415444
0.040991
0.0434449
0.044946
0.0449636
0.044582
0.044164
0.0436244
0.0430751
0.0425156
0.0419942
0.0414842
0.0410714
0.0406127
0.040425
0.0398794
0.0402751
0.0390276
0.0415473
0.0447615
0.0447807
0.0444292
0.044027
0.0434917
0.042931
0.0423453
0.0417833
0.0412203
0.0407419
0.0402125
0.0399668
0.0393925
0.0400156
0.0389939
0.0439754
0.0537082
0.0481024
0.0462791
0.04477
0.0439642
0.0433736
0.042953
0.042628
0.0423633
0.0422175
0.0420949
0.0422072
0.0422275
0.0427314
0.0428745
0.0436684
0.0495337
0.0477894
0.0461815
0.044905
0.0440933
0.0434873
0.043045
0.0427108
0.0424463
0.0423123
0.0422077
0.0423557
0.0424067
0.0429937
0.043125
0.0442319
0.0475458
0.0469317
0.045765
0.0448425
0.0441021
0.0435215
0.0430684
0.0427253
0.0424566
0.0423312
0.0422471
0.0424481
0.0425567
0.0432983
0.0434898
0.0449631
0.0463588
0.0462072
0.0454087
0.0447265
0.0440716
0.04352
0.0430564
0.0426965
0.0424115
0.0422813
0.0422027
0.0424455
0.0426047
0.0434956
0.0437878
0.0455043
0.0456499
0.0456215
0.0450501
0.0445237
0.0439464
0.0434263
0.0429569
0.0425748
0.0422555
0.0420878
0.0419617
0.0421718
0.0422704
0.0431912
0.0434135
0.0453397
0.0451828
0.045192
0.0447624
0.044328
0.0438041
0.0433032
0.0428251
0.0424182
0.0420631
0.0418581
0.0416919
0.0418948
0.0419849
0.0430608
0.0433693
0.0457871
0.0448747
0.0448907
0.0445334
0.0441444
0.0436456
0.0431445
0.0426415
0.0421876
0.0417603
0.0414537
0.0411364
0.0411373
0.0408789
0.0415922
0.0410166
0.0434608
0.0446863
0.0447041
0.0443761
0.0440018
0.0435053
0.04299
0.0424569
0.0419571
0.0414688
0.0410865
0.0406811
0.0406074
0.0402755
0.0412041
0.0407134
0.0456421
0.0536767
0.048072
0.0462699
0.0447866
0.0440162
0.0434667
0.0430946
0.0428243
0.0426236
0.0425442
0.0425017
0.0426685
0.0427754
0.0432349
0.0434458
0.043999
0.0495022
0.0477581
0.0461719
0.0449217
0.044146
0.0435817
0.0431884
0.0429095
0.0427097
0.0426424
0.042618
0.0428179
0.0429511
0.0434712
0.043657
0.0444241
0.0475109
0.0468958
0.04575
0.0448535
0.0441494
0.043611
0.0432072
0.0429197
0.0427151
0.0426557
0.0426488
0.0428968
0.0430766
0.0437273
0.0439492
0.0450024
0.0463213
0.0461685
0.0453898
0.0447328
0.0441135
0.0436036
0.0431887
0.0428838
0.0426619
0.0425968
0.0425926
0.0428796
0.0431012
0.0438884
0.0441869
0.0454505
0.045609
0.0455793
0.0450268
0.0445245
0.0439816
0.0435019
0.0430797
0.0427506
0.0424914
0.0423856
0.0423278
0.042577
0.0427237
0.0435302
0.0437242
0.0451795
0.0451389
0.0451467
0.0447352
0.0443239
0.043833
0.043371
0.0429379
0.0425818
0.0422835
0.0421377
0.0420345
0.0422749
0.0424019
0.0433642
0.0436133
0.0455541
0.0448273
0.0448419
0.0445021
0.044135
0.0436677
0.0432032
0.0427423
0.0423355
0.0419596
0.041706
0.0414409
0.0414709
0.0412242
0.0418169
0.0411141
0.0430728
0.0446353
0.0446518
0.0443407
0.0439874
0.0435208
0.0430401
0.0425464
0.0420902
0.0416487
0.041315
0.0409546
0.0409093
0.0405774
0.0414015
0.0407471
0.0451898
0.0536613
0.0480576
0.0462718
0.044809
0.0440674
0.0435524
0.0432225
0.0430017
0.0428622
0.0428517
0.0429002
0.0431537
0.0433965
0.0439269
0.0443191
0.044813
0.0494869
0.047743
0.0461736
0.0449444
0.044198
0.0436688
0.0433183
0.0430897
0.0429521
0.0429552
0.0430235
0.0433113
0.0435825
0.0441679
0.0445379
0.0452039
0.0474927
0.0468771
0.0457472
0.0448715
0.044197
0.0436941
0.0433334
0.0430965
0.0429539
0.0429646
0.0430486
0.043382
0.043694
0.0443985
0.0447964
0.0457138
0.0463007
0.0461471
0.0453837
0.0447468
0.0441565
0.0436816
0.0433095
0.0430547
0.0428939
0.0428982
0.0429832
0.0433544
0.0437034
0.0445396
0.045003
0.0461183
0.0455855
0.0455549
0.0450168
0.0445337
0.0440187
0.043573
0.0431921
0.0429115
0.0427109
0.0426719
0.0426982
0.0430278
0.0432913
0.0441405
0.0444762
0.0457757
0.0451126
0.0451195
0.0447218
0.0443287
0.0438646
0.0434351
0.0430414
0.0427317
0.042489
0.042407
0.0423823
0.0426999
0.0429322
0.0439338
0.044297
0.0460777
0.0447979
0.0448117
0.044485
0.0441352
0.0436932
0.0432594
0.0428353
0.0424715
0.0421461
0.0419503
0.0417533
0.0418508
0.041685
0.0423025
0.0416527
0.0434324
0.0446028
0.0446185
0.04432
0.0439832
0.0435404
0.0430887
0.042629
0.0422125
0.0418166
0.0415351
0.0412336
0.0412481
0.0409771
0.0418193
0.0411662
0.0454159
0.0536547
0.0480516
0.0462771
0.0448288
0.0441074
0.0436163
0.0433147
0.0431254
0.043022
0.0430466
0.0431358
0.0434128
0.043691
0.0442007
0.0446091
0.0450482
0.0494803
0.0477365
0.0461789
0.0449644
0.0442387
0.0437336
0.0434118
0.043215
0.043114
0.0431526
0.0432619
0.0435723
0.0438776
0.044436
0.0448179
0.0454027
0.0474838
0.0468676
0.0457491
0.044888
0.0442341
0.0437557
0.0434239
0.0432189
0.0431125
0.0431579
0.0432807
0.0436333
0.0439724
0.0446381
0.0450349
0.0458489
0.0462899
0.0461356
0.0453828
0.04476
0.04419
0.0437394
0.0433957
0.0431725
0.0430471
0.0430854
0.0432071
0.0435954
0.0439658
0.0447564
0.0452056
0.0462092
0.0455724
0.045541
0.0450129
0.0445432
0.0440478
0.0436255
0.043272
0.0430218
0.0428549
0.0428481
0.0429077
0.0432515
0.0435285
0.0443262
0.0446305
0.0458139
0.0450972
0.0451033
0.0447152
0.0443349
0.0438894
0.0434823
0.0431148
0.0428342
0.0426232
0.0425717
0.0425771
0.0429072
0.043146
0.0440938
0.0444083
0.0460711
0.04478
0.0447931
0.0444754
0.0441378
0.0437134
0.0433007
0.0429012
0.0425644
0.0422679
0.0420997
0.0419277
0.0420344
0.0418644
0.042424
0.0416972
0.0433487
0.0445825
0.0445975
0.0443077
0.0439823
0.0435563
0.0431244
0.0426877
0.0422962
0.0419265
0.0416702
0.0413897
0.0414121
0.0411301
0.0419158
0.0411666
0.0452811
0.053653
0.0480503
0.0462834
0.044845
0.0441374
0.043663
0.0433816
0.0432155
0.0431399
0.0431936
0.0433183
0.0436237
0.0439422
0.0444616
0.0449034
0.0453181
0.0494786
0.0477349
0.0461852
0.0449808
0.0442691
0.043781
0.0434799
0.0433067
0.043234
0.0433023
0.0434481
0.0437875
0.0441339
0.0447002
0.0451156
0.0456618
0.0474806
0.0468642
0.0457531
0.0449019
0.0442623
0.0438011
0.0434901
0.0433088
0.0432305
0.0433053
0.0434634
0.0438432
0.0442196
0.044887
0.0453104
0.0460745
0.0462854
0.0461307
0.045385
0.0447718
0.0442157
0.043782
0.0434589
0.0432592
0.0431614
0.0432288
0.0433846
0.0437991
0.0442034
0.0449923
0.0454608
0.0464103
0.0455662
0.0455344
0.0450129
0.0445523
0.0440703
0.0436644
0.0433308
0.0431034
0.0429629
0.0429838
0.0430752
0.0434431
0.043749
0.0445413
0.0448543
0.0459813
0.0450894
0.0450952
0.0447133
0.0443416
0.0439089
0.0435175
0.043169
0.0429101
0.0427241
0.0426989
0.0427335
0.0430859
0.0433482
0.0442881
0.0445992
0.0462044
0.0447705
0.0447831
0.0444715
0.044142
0.0437297
0.0433317
0.0429499
0.0426334
0.0423597
0.0422155
0.0420687
0.0421946
0.0420401
0.0425869
0.0418365
0.0434218
0.0445712
0.0445859
0.0443018
0.0439841
0.0435695
0.0431514
0.0427311
0.0423583
0.0420092
0.0417746
0.0415156
0.0415543
0.0412808
0.0420508
0.0412616
0.0453048
0.0536525
0.0480506
0.0462867
0.0448533
0.044152
0.0436852
0.0434128
0.0432563
0.0431914
0.0432547
0.0433901
0.0436998
0.0440253
0.0445372
0.0449813
0.0453864
0.0494785
0.0477347
0.0461886
0.0449891
0.0442839
0.0438035
0.0435113
0.0433478
0.0432857
0.0433634
0.0435194
0.0438624
0.0442147
0.0447715
0.0451885
0.0457201
0.0474795
0.046863
0.0457555
0.0449089
0.0442759
0.0438224
0.0435203
0.0433485
0.0432805
0.0433642
0.0435313
0.043913
0.0442924
0.0449463
0.0453679
0.046113
0.0462837
0.0461287
0.0453865
0.0447776
0.0442281
0.043802
0.0434877
0.0432973
0.0432096
0.0432854
0.0434494
0.0438648
0.0442703
0.0450434
0.0455062
0.0464348
0.0455636
0.0455315
0.0450133
0.0445569
0.0440811
0.0436826
0.0433575
0.0431391
0.0430082
0.0430371
0.0431358
0.0435039
0.0438089
0.0445838
0.0448864
0.0459914
0.0450861
0.0450915
0.0447127
0.044345
0.0439183
0.0435339
0.0431935
0.0429433
0.0427662
0.0427487
0.0427898
0.0431419
0.0434012
0.0443224
0.0446172
0.046199
0.0447662
0.0447786
0.0444699
0.0441442
0.0437375
0.0433462
0.042972
0.0426636
0.0423982
0.0422611
0.0421198
0.0422451
0.0420858
0.0426133
0.0418401
0.0433986
0.0445661
0.0445805
0.0442993
0.0439851
0.0435758
0.043164
0.0427508
0.0423856
0.0420441
0.0418159
0.0415615
0.0415992
0.0413188
0.042068
0.0412484
0.0452584
0.0631949
0.0524546
0.0488183
0.0458425
0.0441306
0.0427913
0.0417332
0.040762
0.0398101
0.0388298
0.0377458
0.036577
0.0351863
0.0336942
0.0318429
0.029968
0.0589241
0.0516998
0.0484388
0.0457468
0.044092
0.0427835
0.0417363
0.0407729
0.0398292
0.0388583
0.0377843
0.0366287
0.0352525
0.0337785
0.0319422
0.0300783
0.0569219
0.050662
0.0478078
0.0454527
0.0439263
0.0426999
0.0416874
0.0407441
0.0398136
0.038854
0.0377931
0.0366534
0.0353006
0.0338535
0.0320497
0.0302112
0.055674
0.0498545
0.047337
0.0452134
0.0438011
0.0426397
0.0416521
0.0407192
0.0397921
0.0388338
0.0377766
0.0366434
0.0353043
0.033874
0.032094
0.0302771
0.0549299
0.0492411
0.0469299
0.0449596
0.043644
0.0425424
0.0415826
0.0406616
0.0397371
0.0387772
0.0377196
0.036587
0.0352558
0.0338362
0.0320796
0.0302865
0.0544442
0.0488052
0.046628
0.0447537
0.0435066
0.0424468
0.0415069
0.0405926
0.0396668
0.0387021
0.0376412
0.0365064
0.0351821
0.0337723
0.0320432
0.0302783
0.0541382
0.0485138
0.0464082
0.0445865
0.0433807
0.0423454
0.0414168
0.0405032
0.0395713
0.0385971
0.0375275
0.0363833
0.0350597
0.0336522
0.0319513
0.0302167
0.0539669
0.0483474
0.0462731
0.0444734
0.0432843
0.0422567
0.0413295
0.0404106
0.0394695
0.0384848
0.0374075
0.0362561
0.034938
0.0335382
0.0318745
0.0301766
0.0589245
0.051698
0.0484339
0.0457375
0.0440773
0.0427618
0.0417091
0.0407398
0.0397832
0.0387957
0.0377004
0.036523
0.035115
0.0336173
0.031737
0.0298762
0.0547242
0.0512986
0.048226
0.0457535
0.0441085
0.0427965
0.0417351
0.040761
0.0398025
0.0388151
0.0377218
0.0365492
0.0351489
0.0336646
0.0318012
0.0299541
0.0527199
0.0503527
0.0476699
0.0455279
0.0439873
0.0427388
0.0416994
0.0407378
0.0397857
0.038804
0.0377195
0.0365587
0.035178
0.0337152
0.0318785
0.030054
0.0514863
0.0495644
0.04723
0.0453211
0.0438881
0.0426973
0.0416767
0.0407204
0.0397673
0.0387844
0.0377021
0.0365467
0.035179
0.0337322
0.031919
0.0301156
0.050748
0.0489469
0.046829
0.045076
0.0437389
0.0426062
0.041612
0.040666
0.0397144
0.0387298
0.0376473
0.0364928
0.0351337
0.0336978
0.0319081
0.0301278
0.0502656
0.0485052
0.0465278
0.0448726
0.0436047
0.0425138
0.0415393
0.0405999
0.0396475
0.038659
0.0375748
0.0364198
0.0350699
0.0336458
0.031886
0.0301341
0.0499609
0.0482101
0.0463074
0.0447061
0.0434799
0.0424141
0.0414509
0.0405126
0.0395553
0.0385583
0.0374668
0.036304
0.0349568
0.0335362
0.0318075
0.0300852
0.0497902
0.0480423
0.0461725
0.0445939
0.0433851
0.0423276
0.0413657
0.0404228
0.0394581
0.0384522
0.0373552
0.0361876
0.0348496
0.0334397
0.0317532
0.0300677
0.056942
0.050681
0.0478324
0.0454827
0.043964
0.0427455
0.041748
0.0408199
0.0398895
0.0389277
0.0378464
0.0366863
0.035253
0.0337414
0.0317113
0.0297666
0.0527412
0.0503755
0.0477033
0.0455727
0.0440469
0.0428149
0.041799
0.040861
0.0399245
0.0389608
0.0378811
0.0367262
0.0353013
0.0338032
0.0317898
0.0298612
0.0507364
0.0494979
0.0472372
0.045445
0.0439988
0.0428059
0.0417947
0.0408585
0.039922
0.0389601
0.0378879
0.0367441
0.035339
0.0338608
0.0318666
0.0299495
0.0495188
0.0487418
0.0468451
0.0452921
0.0439436
0.0427962
0.0417929
0.0408542
0.0399116
0.0389454
0.0378741
0.0367353
0.0353437
0.0338822
0.0319104
0.0300135
0.0487909
0.0481372
0.0464678
0.0450749
0.0438182
0.0427225
0.0417384
0.0408045
0.0398593
0.0388882
0.0378143
0.0366744
0.0352904
0.0338383
0.0318908
0.0300179
0.0483151
0.0477
0.0461761
0.0448832
0.0436944
0.0426374
0.0416689
0.0407379
0.0397896
0.0388124
0.0377355
0.0365944
0.0352214
0.0337837
0.0318747
0.0300376
0.0480133
0.0474057
0.0459591
0.044721
0.0435732
0.0425393
0.0415784
0.0406453
0.0396895
0.0387002
0.0376126
0.0364592
0.0350868
0.0336498
0.0317822
0.0299821
0.0478431
0.0472375
0.0458246
0.0446095
0.0434785
0.0424516
0.0414891
0.040549
0.0395843
0.0385836
0.0374889
0.036329
0.0349685
0.0335455
0.0317382
0.0299886
0.0557155
0.0498956
0.0473973
0.0452954
0.043912
0.0427831
0.0418372
0.0409483
0.0400494
0.039122
0.0380623
0.0369317
0.0354658
0.0339419
0.0316809
0.0296192
0.0515296
0.0496095
0.0473006
0.045421
0.0440253
0.0428769
0.0419064
0.0410024
0.0400945
0.0391644
0.0381065
0.0369826
0.0355272
0.0340222
0.0317764
0.0297319
0.0495403
0.0487631
0.0468818
0.0453474
0.0440225
0.0429019
0.0419259
0.0410159
0.0401031
0.0391725
0.0381217
0.0370094
0.0355741
0.0340865
0.0318461
0.0297908
0.0483391
0.0480281
0.0465166
0.0452247
0.0439929
0.0429111
0.0419362
0.0410185
0.0400962
0.0391595
0.0381092
0.0370024
0.0355818
0.0341118
0.0318895
0.0298497
0.0476227
0.0474361
0.046155
0.0450249
0.0438821
0.0428472
0.0418865
0.0409694
0.040041
0.0390961
0.0380407
0.0369301
0.035515
0.0340521
0.0318537
0.0298383
0.0471541
0.0470055
0.0458708
0.0448408
0.043764
0.0427649
0.0418167
0.0408997
0.0399653
0.0390121
0.0379522
0.0368399
0.0354384
0.0339942
0.0318479
0.0298812
0.0468556
0.0467139
0.0456565
0.0446809
0.0436437
0.0426653
0.041722
0.0407995
0.0398537
0.0388833
0.0378075
0.0366757
0.0352708
0.0338215
0.0317323
0.0298146
0.0466857
0.0465457
0.0455219
0.0445688
0.0435473
0.042574
0.041627
0.0406952
0.0397376
0.0387524
0.0376671
0.0365265
0.0351383
0.0337089
0.0317113
0.0298706
0.0549939
0.0493064
0.0470342
0.0451112
0.0438591
0.0428309
0.0419589
0.0411363
0.0402989
0.0394422
0.0384438
0.0373953
0.0359363
0.0344575
0.0319004
0.0296918
0.0508143
0.0490156
0.0469439
0.0452467
0.0439827
0.0429348
0.0420368
0.0411981
0.0403525
0.0394947
0.0385004
0.0374631
0.0360196
0.03457
0.0320272
0.0298297
0.0488343
0.0481803
0.0465469
0.0452001
0.0440044
0.0429799
0.0420709
0.0412221
0.0403697
0.0395114
0.0385258
0.0375027
0.036081
0.0346475
0.0320857
0.0298389
0.0476444
0.0474575
0.0461971
0.0450946
0.0439897
0.043
0.0420878
0.0412278
0.0403639
0.0394985
0.0385139
0.0374985
0.0360941
0.0346823
0.0321324
0.0298947
0.046937
0.046875
0.0458467
0.0449067
0.0438887
0.0429422
0.0420399
0.041176
0.0403019
0.0394244
0.0384309
0.0374081
0.0360061
0.0345994
0.0320731
0.0298639
0.0464743
0.0464501
0.0455684
0.044728
0.0437742
0.0428606
0.0419673
0.0410997
0.0402158
0.0393264
0.0383258
0.0372997
0.0359144
0.0345343
0.0320815
0.029947
0.0461782
0.0461608
0.0453563
0.0445694
0.0436533
0.0427573
0.0418652
0.0409872
0.0400854
0.0391705
0.0381442
0.0370852
0.0356859
0.0342869
0.0319112
0.0298471
0.046008
0.0459921
0.0452207
0.0444556
0.0435535
0.04266
0.0417615
0.0408698
0.0399509
0.0390148
0.0379734
0.0368993
0.035519
0.0341467
0.0319085
0.0299767
0.0545193
0.0488827
0.0467687
0.0449721
0.0438305
0.0428926
0.0420957
0.0413452
0.0405779
0.0398023
0.0388742
0.0379181
0.0364554
0.0350118
0.0320073
0.029572
0.0503427
0.0485847
0.0466779
0.0451095
0.0439574
0.0430003
0.0421772
0.0414114
0.0406368
0.0398621
0.0389407
0.0380013
0.0365597
0.0351578
0.0321473
0.0296642
0.0483673
0.0477506
0.0462868
0.0450714
0.0439877
0.043053
0.042217
0.0414396
0.0406581
0.0398838
0.0389733
0.038052
0.0366322
0.0352406
0.0321515
0.0295168
0.0471841
0.0470335
0.045943
0.044972
0.0439778
0.0430762
0.0422344
0.0414438
0.0406496
0.0398681
0.0389594
0.0380487
0.0366481
0.0352815
0.0321831
0.0295266
0.046482
0.0464561
0.0455976
0.0447886
0.0438794
0.0430187
0.0421836
0.0413854
0.0405771
0.0397795
0.0388573
0.0379346
0.0365307
0.0351654
0.032085
0.0294584
0.0460227
0.0460344
0.045322
0.0446114
0.0437646
0.0429345
0.0421055
0.0412999
0.0404782
0.0396649
0.0387329
0.0378062
0.0364237
0.0350992
0.0321253
0.0296189
0.0457275
0.045746
0.04511
0.0444518
0.0436407
0.0428253
0.0419938
0.0411723
0.0403256
0.0394771
0.0385071
0.0375303
0.0361179
0.0347551
0.0318895
0.029494
0.045556
0.0455759
0.0449725
0.044335
0.0435362
0.0427209
0.0418796
0.04104
0.0401708
0.0392946
0.0383041
0.0373074
0.0359228
0.0346095
0.0319667
0.0298334
0.0542061
0.0485862
0.0465752
0.0448702
0.0438227
0.0429718
0.0422596
0.0415997
0.0409326
0.0402852
0.0395031
0.0387603
0.0374833
0.0363658
0.0331974
0.0308468
0.0500308
0.0482826
0.0464823
0.0450068
0.0439503
0.0430809
0.0423435
0.0416698
0.0409974
0.0403538
0.0395821
0.038864
0.0376154
0.0365604
0.0333605
0.0308822
0.0480559
0.0474456
0.0460898
0.0449685
0.0439814
0.0431343
0.0423837
0.0416986
0.04102
0.040379
0.0396218
0.0389299
0.0377092
0.0366782
0.0333568
0.0306444
0.0468754
0.0467301
0.045747
0.0448698
0.0439712
0.0431561
0.0423981
0.0416987
0.0410067
0.0403592
0.0396057
0.0389313
0.0377374
0.0367506
0.0334095
0.0306519
0.0461753
0.0461544
0.0454028
0.0446865
0.0438715
0.043095
0.0423405
0.0416302
0.04092
0.0402519
0.0394794
0.0387886
0.0375853
0.0366027
0.0332745
0.0305543
0.0457172
0.0457338
0.0451275
0.0445084
0.0437539
0.0430056
0.0422537
0.0415322
0.040804
0.0401155
0.0393285
0.0386324
0.0374532
0.036532
0.0333447
0.0308122
0.0454213
0.0454447
0.044914
0.0443458
0.0436248
0.0428884
0.0421292
0.041385
0.0406223
0.0398848
0.0390395
0.0382633
0.0370135
0.0360027
0.0329087
0.030526
0.0452474
0.0452723
0.0447736
0.0442249
0.0435139
0.0427749
0.0420019
0.0412335
0.0404404
0.0396647
0.0387866
0.0379762
0.0367468
0.0357993
0.0329992
0.0311108
0.0539936
0.0483807
0.0464412
0.0448044
0.0438337
0.0430586
0.0424249
0.0418497
0.0412759
0.0407406
0.0400791
0.0394891
0.0383142
0.0373232
0.0337291
0.030876
0.0498188
0.0480733
0.0463464
0.0449402
0.0439613
0.0431684
0.0425105
0.0419226
0.0413448
0.0408155
0.0401663
0.0396052
0.0384544
0.0375149
0.0337243
0.0302336
0.0478418
0.0472315
0.0459488
0.0448973
0.0439884
0.0432185
0.0425479
0.0419492
0.041366
0.0408411
0.0402083
0.0396786
0.0385511
0.0376243
0.0335712
0.0294095
0.0466613
0.0465152
0.0456042
0.0447958
0.0439748
0.0432358
0.0425569
0.0419432
0.0413458
0.0408149
0.0401864
0.0396791
0.038579
0.037702
0.0335799
0.0292101
0.0459608
0.0459386
0.0452581
0.0446093
0.0438706
0.0431683
0.0424903
0.0418625
0.0412429
0.0406868
0.0400326
0.0395035
0.0383825
0.0375077
0.0333833
0.0290314
0.0455019
0.0455171
0.0449811
0.044428
0.0437482
0.0430718
0.0423934
0.041751
0.0411091
0.0405288
0.0398561
0.0393232
0.0382309
0.0374486
0.0335209
0.0294306
0.0452039
0.045226
0.0447648
0.0442612
0.0436128
0.0429452
0.0422549
0.0415837
0.0408982
0.040256
0.039505
0.038864
0.0376572
0.036735
0.0328853
0.0289439
0.045027
0.0450506
0.0446207
0.0441354
0.0434951
0.0428223
0.042114
0.0414134
0.0406909
0.0400028
0.0392113
0.0385342
0.0373599
0.036573
0.0331743
0.030074
0.0447983
0.0448209
0.044431
0.0439809
0.0433799
0.0427405
0.0420603
0.0413812
0.0406745
0.0399971
0.0392104
0.0385332
0.037347
0.0365404
0.0330848
0.0299032
0.0448354
0.0448582
0.0444273
0.0439409
0.0432992
0.0426199
0.0418986
0.0411709
0.040408
0.0396537
0.038787
0.0379801
0.0367378
0.0357687
0.0329091
0.030959
0.0449953
0.0450118
0.0444937
0.0439392
0.0432357
0.042502
0.0417311
0.0409482
0.0401212
0.0392752
0.038301
0.0373096
0.0359114
0.034574
0.0318731
0.0296838
0.0453309
0.0453113
0.0446372
0.0439687
0.0431818
0.0423911
0.0415787
0.0407563
0.0398897
0.0389912
0.0379713
0.0369056
0.0355145
0.03412
0.0318315
0.02985
0.0459171
0.0457732
0.0448553
0.0440108
0.0431183
0.0422634
0.0414176
0.0405647
0.0396671
0.0387253
0.0376658
0.0365362
0.0351399
0.0336902
0.0316494
0.0297639
0.0470115
0.0464034
0.0451039
0.0440069
0.0430162
0.0421167
0.041267
0.0404144
0.0395136
0.0385596
0.0374929
0.0363454
0.0349789
0.0335372
0.0316919
0.0299005
0.0489173
0.0471705
0.0454214
0.0439674
0.0429044
0.0419776
0.041131
0.0402817
0.0393873
0.0384307
0.0373637
0.0362095
0.0348669
0.0334397
0.031719
0.029994
0.0530943
0.0474859
0.0455361
0.0438624
0.0428184
0.041921
0.0411047
0.0402782
0.0394094
0.0384723
0.0374237
0.0362844
0.0349608
0.0335426
0.0318442
0.0301058
0.0446837
0.0447042
0.0443456
0.0439299
0.0433733
0.0427812
0.0421514
0.041526
0.0408741
0.0402564
0.0395188
0.0388834
0.03766
0.0367107
0.0327633
0.0286953
0.0447162
0.0447372
0.0443371
0.043884
0.0432847
0.0426502
0.0419756
0.0412964
0.0405816
0.039879
0.0390532
0.0382853
0.0370174
0.0359762
0.0327838
0.0303026
0.0448713
0.044886
0.0443984
0.0438765
0.0432138
0.0425215
0.0417934
0.0410532
0.0402664
0.0394611
0.0385151
0.0375475
0.036116
0.0347195
0.0317639
0.029285
0.0452022
0.0451809
0.0445368
0.0439002
0.0431535
0.0424023
0.0416292
0.0408453
0.0400138
0.0391495
0.0381526
0.0371062
0.0356921
0.0342631
0.0318128
0.029677
0.0457843
0.045639
0.0447508
0.0439374
0.0430834
0.0422667
0.0414574
0.0406388
0.0397715
0.0388579
0.037816
0.0366996
0.0352844
0.0338088
0.0316588
0.0296794
0.0468756
0.0462665
0.0449967
0.0439306
0.0429774
0.0421149
0.0413003
0.0404796
0.0396066
0.0386776
0.0376267
0.0364905
0.0351112
0.0336511
0.0317324
0.0298766
0.0487803
0.0470336
0.0453143
0.0438906
0.042864
0.0419715
0.0411585
0.0403404
0.0394717
0.0385379
0.0374853
0.0363411
0.0349897
0.0335485
0.0317759
0.0300024
0.0529575
0.0473509
0.045431
0.0437877
0.0427804
0.0419178
0.0411348
0.04034
0.039499
0.0385862
0.0375542
0.0364275
0.0350987
0.0336695
0.0319242
0.0301371
0.0446043
0.0446233
0.0442874
0.0438985
0.0433786
0.0428287
0.0422466
0.0416758
0.0410863
0.0405455
0.039896
0.039376
0.0382594
0.0374357
0.0333372
0.02902
0.0446325
0.0446522
0.0442743
0.043847
0.0432823
0.0426872
0.0420561
0.0414253
0.0407637
0.0401247
0.0393665
0.038685
0.0374798
0.0365143
0.0331643
0.0304634
0.0447833
0.0447968
0.0443309
0.0438341
0.0432043
0.0425481
0.0418592
0.0411608
0.0404176
0.0396613
0.0387618
0.0378489
0.0364395
0.0350673
0.0319531
0.0293156
0.0451101
0.0450877
0.044465
0.0438526
0.043138
0.0424205
0.041683
0.040936
0.0401412
0.0393162
0.0383539
0.0373452
0.0359401
0.0345196
0.031957
0.0297171
0.0456889
0.0455425
0.0446753
0.0438855
0.043062
0.0422774
0.0415006
0.0407143
0.039878
0.0389955
0.0379788
0.0368872
0.0354729
0.0339953
0.0317645
0.0297124
0.0467777
0.0461678
0.0449189
0.043876
0.0429525
0.0421207
0.0413369
0.0405458
0.0397003
0.0387979
0.0377675
0.0366497
0.0352694
0.0338041
0.031828
0.0299177
0.0486816
0.0469349
0.0452366
0.0438356
0.0428375
0.0419735
0.0411896
0.0403996
0.0395561
0.0386458
0.0376106
0.036481
0.0351283
0.0336811
0.0318664
0.0300499
0.0528589
0.0472536
0.0453548
0.0437344
0.0427559
0.0419218
0.0411681
0.0404025
0.0395876
0.0386995
0.0376864
0.0365757
0.0352478
0.0338139
0.0320299
0.0301988
0.0445495
0.0445673
0.0442476
0.0438787
0.0433872
0.0428696
0.0423235
0.0417918
0.0412423
0.0407422
0.0401247
0.0396223
0.0384745
0.0375485
0.0331555
0.0284296
0.0445741
0.0445927
0.0442307
0.0438225
0.0432844
0.0427198
0.0421218
0.0415264
0.0409
0.0402964
0.0395644
0.0388991
0.0376659
0.0366289
0.0330575
0.0300781
0.0447212
0.0447338
0.0442834
0.0438054
0.0432006
0.0425724
0.0419137
0.0412466
0.0405335
0.0398064
0.0389264
0.0380248
0.036588
0.0351622
0.0318793
0.0290614
0.0450448
0.0450214
0.0444138
0.0438195
0.0431294
0.0424383
0.0417286
0.0410097
0.0402414
0.0394415
0.0384955
0.0374968
0.0360717
0.0346156
0.0319389
0.0295854
0.0456208
0.0454736
0.0446213
0.043849
0.0430488
0.0422894
0.0415382
0.0407771
0.0399639
0.0391029
0.0380998
0.0370165
0.0355875
0.0340855
0.0317765
0.0296502
0.0467077
0.0460972
0.0448631
0.0438375
0.0429366
0.0421291
0.0413697
0.0406019
0.0397779
0.0388949
0.0378772
0.0367674
0.0353775
0.0338949
0.0318642
0.0299002
0.0486108
0.0468641
0.0451809
0.0437968
0.0428205
0.0419789
0.0412183
0.0404509
0.0396275
0.0387354
0.0377122
0.0365906
0.0352316
0.033772
0.0319176
0.0300598
0.0527882
0.047184
0.0453004
0.0436971
0.0427407
0.0419289
0.0411989
0.0404571
0.0396634
0.0387947
0.0377955
0.0366947
0.0353632
0.0339191
0.0320984
0.0302257
0.0445136
0.0445307
0.0442231
0.0438698
0.0434007
0.0429099
0.0423948
0.0418984
0.041388
0.0409315
0.0403584
0.0398991
0.0387728
0.0378312
0.0332808
0.0282672
0.0445352
0.0445531
0.0442028
0.0438093
0.0432923
0.0427526
0.0421829
0.041619
0.0410264
0.0404596
0.0397624
0.0391304
0.0379056
0.0368524
0.0331468
0.0299766
0.0446794
0.0446912
0.0442523
0.0437885
0.0432034
0.0425979
0.0419648
0.0413253
0.0406405
0.0399433
0.0390891
0.038211
0.0367732
0.0353299
0.0319376
0.0289881
0.0450002
0.0449762
0.0443797
0.0437991
0.043128
0.042458
0.0417716
0.041077
0.0403331
0.0395581
0.0386323
0.037651
0.0362227
0.0347524
0.0319975
0.0295572
0.045574
0.0454262
0.0445847
0.0438256
0.0430433
0.042304
0.041574
0.0408344
0.0400422
0.0392018
0.0382147
0.0371444
0.0357119
0.0341987
0.0318345
0.0296491
0.0466592
0.0460484
0.044825
0.0438123
0.0429287
0.0421405
0.041401
0.0406531
0.039848
0.0389832
0.0379792
0.0368802
0.0354876
0.033996
0.0319252
0.0299174
0.0485618
0.0468152
0.0451427
0.0437712
0.0428115
0.0419877
0.0412459
0.0404975
0.0396916
0.0388161
0.0378053
0.0366931
0.0353325
0.0338658
0.0319815
0.0300894
0.0527393
0.0471358
0.0452632
0.0436727
0.0427331
0.0419389
0.0412281
0.0405063
0.0397308
0.0388796
0.0378937
0.0368036
0.0354721
0.0340219
0.0321731
0.0302657
0.0444908
0.0445071
0.0442079
0.0438655
0.0434121
0.0429398
0.0424457
0.0419719
0.0414845
0.0410496
0.0404921
0.0400371
0.0388884
0.0378857
0.0331846
0.0279536
0.04451
0.0445273
0.044185
0.0438017
0.0432996
0.0427772
0.0422269
0.0416834
0.0411111
0.0405633
0.0398789
0.0392508
0.0380051
0.0369049
0.0330808
0.0297677
0.0446519
0.0446632
0.0442322
0.0437782
0.0432069
0.0426175
0.042002
0.0413808
0.0407137
0.0400328
0.0391888
0.0383139
0.0368582
0.0353797
0.0318967
0.0288469
0.0449706
0.0449462
0.0443573
0.0437863
0.0431286
0.0424736
0.0418033
0.0411253
0.0403971
0.0396364
0.0387194
0.0377416
0.0362999
0.0348048
0.0319859
0.0294784
0.0455428
0.0453947
0.0445606
0.0438106
0.0430411
0.0423161
0.0416009
0.0408762
0.0400981
0.0392703
0.0382911
0.0372245
0.0357827
0.0342525
0.0318436
0.0296119
0.0466269
0.0460157
0.0447997
0.043796
0.0429247
0.0421504
0.0414251
0.040691
0.039899
0.039046
0.0380496
0.0369549
0.0355561
0.0340523
0.031949
0.0299066
0.0485291
0.0467824
0.0451174
0.0437547
0.0428068
0.0419957
0.0412675
0.0405326
0.0397391
0.0388748
0.0378716
0.0367641
0.0353996
0.0339241
0.0320154
0.030096
0.0527066
0.0471037
0.0452386
0.0436571
0.0427295
0.0419479
0.0412511
0.0405436
0.0397811
0.038942
0.0379648
0.0368805
0.0355466
0.0340888
0.0322171
0.0302822
0.0444778
0.0444937
0.0441999
0.0438648
0.0434221
0.0429626
0.0424835
0.0420265
0.041557
0.0411408
0.0406
0.040157
0.0390062
0.0379784
0.033193
0.027817
0.0444954
0.0445123
0.0441752
0.0437988
0.0433067
0.0427962
0.0422596
0.0417311
0.0411745
0.0406427
0.0399716
0.0393529
0.0381027
0.0369818
0.0330889
0.0296827
0.0446357
0.0446468
0.0442208
0.0437733
0.0432113
0.0426329
0.0420298
0.0414219
0.0407682
0.0401007
0.0392673
0.0383997
0.0369387
0.0354439
0.0319073
0.0287913
0.0449531
0.0449284
0.0443443
0.0437797
0.0431309
0.042486
0.041827
0.0411609
0.0404444
0.0396951
0.0387868
0.0378148
0.0363687
0.0348615
0.032004
0.0294516
0.0455241
0.0453757
0.0445464
0.0438024
0.0430414
0.042326
0.0416211
0.040907
0.0401391
0.0393212
0.0383493
0.0372877
0.0358426
0.0343039
0.0318676
0.0296048
0.0466074
0.0459961
0.0447847
0.0437869
0.0429236
0.0421586
0.0414431
0.0407188
0.0399362
0.0390921
0.0381023
0.037012
0.0356111
0.034101
0.0319774
0.0299116
0.0485092
0.0467626
0.0451023
0.0437454
0.0428052
0.0420025
0.0412836
0.0405582
0.0397736
0.0389175
0.0379205
0.0368173
0.0354516
0.0339714
0.0320473
0.0301092
0.0526868
0.0470842
0.0452239
0.0436484
0.0427286
0.0419555
0.041268
0.0405706
0.0398173
0.0389869
0.0380164
0.0369371
0.0356027
0.0341408
0.0322544
0.0303007
0.0444718
0.0444875