/*--------------------------------*- C++ -*----------------------------------*\
| =========                 |                                                 |
| \\      /  F ield         | OpenFOAM: The Open Source CFD Toolbox           |
|  \\    /   O peration     | Version:  v1912                                 |
|   \\  /    A nd           | Website:  www.openfoam.com                      |
|    \\/     M anipulation  |                                                 |
\*---------------------------------------------------------------------------*/
FoamFile
{
    version     2.0;
    format      ascii;
    class       surfaceScalarField;
    location    "0.65/fluid";
    object      phi;
}
// * * * * * * * * * * * * * * * * * * * * * * * * * * * * * * * * * * * * * //

dimensions      [0 3 -1 0 0 0 0];
oriented        oriented;


internalField   nonuniform List<scalar> 
41600
(
5.01593e-05
1.25381e-05
3.55542e-07
-5.5293e-07
4.02294e-05
1.02805e-05
5.75348e-07
-9.25989e-07
3.30377e-05
7.56458e-06
4.37871e-07
-8.10712e-07
2.87302e-05
4.62845e-06
4.95931e-08
-3.70584e-07
2.62491e-05
2.7172e-06
-5.27495e-07
2.91461e-07
2.48133e-05
1.58376e-06
-1.24401e-06
1.09604e-06
2.38685e-05
1.01192e-06
-2.10689e-06
2.0398e-06
2.31019e-05
7.54832e-07
-3.15195e-06
3.1637e-06
2.23402e-05
6.64494e-07
-4.44465e-06
4.54179e-06
2.14766e-05
6.39853e-07
-6.07433e-06
6.29815e-06
2.04357e-05
6.25561e-07
-8.19185e-06
8.60718e-06
1.90847e-05
5.2869e-07
-1.09318e-05
1.1754e-05
1.72259e-05
3.42517e-07
-1.46826e-05
1.61989e-05
1.42882e-05
-2.8177e-07
-1.91198e-05
2.23393e-05
9.01304e-06
-8.13334e-07
-2.42826e-05
3.03711e-05
-3.31494e-06
-1.98151e-05
3.21431e-05
6.48965e-05
1.04177e-05
4.81144e-07
-7.57186e-07
6.38382e-05
1.18639e-05
8.06752e-07
-1.33193e-06
6.16828e-05
1.03307e-05
6.48246e-07
-1.25892e-06
5.93558e-05
7.53227e-06
7.66815e-08
-6.53531e-07
5.73448e-05
5.19595e-06
-8.49843e-07
3.82039e-07
5.56923e-05
3.56677e-06
-2.06608e-06
1.73558e-06
5.42552e-05
2.64059e-06
-3.57086e-06
3.37938e-06
5.28508e-05
2.21296e-06
-5.4163e-06
5.36256e-06
5.13127e-05
2.11057e-06
-7.70836e-06
7.80034e-06
4.94679e-05
2.19392e-06
-1.06033e-05
1.08941e-05
4.71367e-05
2.37108e-06
-1.43487e-05
1.49344e-05
4.39633e-05
2.5238e-06
-1.92068e-05
2.03851e-05
3.94787e-05
2.61134e-06
-2.57187e-05
2.79344e-05
3.22895e-05
2.21991e-06
-3.34738e-05
3.81614e-05
2.09742e-05
1.53416e-06
-4.15132e-05
5.0481e-05
-1.63486e-06
-3.30675e-05
5.23616e-05
6.636e-05
6.85361e-06
5.19792e-07
-8.15702e-07
6.87693e-05
1.00304e-05
8.77858e-07
-1.45362e-06
6.98503e-05
9.93207e-06
7.18665e-07
-1.40102e-06
6.98243e-05
8.21627e-06
1.13154e-07
-7.71107e-07
6.91905e-05
6.37734e-06
-8.82445e-07
3.34816e-07
6.82278e-05
4.92981e-06
-2.20707e-06
1.8067e-06
6.70562e-05
4.05861e-06
-3.86123e-06
3.61484e-06
6.56658e-05
3.69525e-06
-5.9017e-06
5.80978e-06
6.3973e-05
3.73172e-06
-8.44252e-06
8.51415e-06
6.18183e-05
4.05807e-06
-1.16578e-05
1.19484e-05
5.89779e-05
4.59603e-06
-1.58163e-05
1.64318e-05
5.49993e-05
5.24038e-06
-2.12271e-05
2.24891e-05
4.92591e-05
5.94253e-06
-2.84613e-05
3.08704e-05
4.00594e-05
6.25854e-06
-3.7172e-05
4.2333e-05
2.57226e-05
5.85255e-06
-4.61876e-05
5.62061e-05
1.92437e-06
-3.72034e-05
5.93667e-05
6.52237e-05
4.428e-06
5.37876e-07
-8.35945e-07
6.81939e-05
7.64759e-06
9.17401e-07
-1.50483e-06
7.04416e-05
8.38349e-06
7.67983e-07
-1.46711e-06
7.16428e-05
7.69107e-06
1.67688e-07
-8.43689e-07
7.20009e-05
6.58459e-06
-8.2219e-07
2.5686e-07
7.17389e-05
5.6086e-06
-2.14067e-06
1.72387e-06
7.10246e-05
5.03378e-06
-3.78871e-06
3.52777e-06
6.99178e-05
4.90641e-06
-5.8238e-06
5.71943e-06
6.83873e-05
5.20058e-06
-8.35904e-06
8.42069e-06
6.62957e-05
5.86611e-06
-1.15723e-05
1.18559e-05
6.3408e-05
6.86888e-06
-1.5732e-05
1.63468e-05
5.92249e-05
8.14702e-06
-2.11702e-05
2.24467e-05
5.30333e-05
9.67249e-06
-2.84609e-05
3.09225e-05
4.30018e-05
1.09631e-05
-3.73461e-05
4.2673e-05
2.7253e-05
1.11797e-05
-4.66465e-05
5.70681e-05
5.97167e-06
-3.79205e-05
6.11262e-05
6.42928e-05
2.93083e-06
5.57008e-07
-8.52667e-07
6.69125e-05
5.61475e-06
9.62968e-07
-1.54976e-06
6.9323e-05
6.67171e-06
8.36128e-07
-1.53492e-06
7.1026e-05
6.66281e-06
2.58787e-07
-9.33484e-07
7.19733e-05
6.20092e-06
-7.00984e-07
1.37311e-07
7.22586e-05
5.73933e-06
-1.97793e-06
1.56193e-06
7.20038e-05
5.55064e-06
-3.5691e-06
3.30703e-06
7.12734e-05
5.74519e-06
-5.52807e-06
5.41969e-06
7.00583e-05
6.36178e-06
-7.96078e-06
8.01473e-06
6.82384e-05
7.41551e-06
-1.1041e-05
1.13115e-05
6.55815e-05
8.93101e-06
-1.50242e-05
1.56189e-05
6.15556e-05
1.0926e-05
-2.02551e-05
2.1502e-05
5.53638e-05
1.34404e-05
-2.72867e-05
2.97105e-05
4.49952e-05
1.60307e-05
-3.59881e-05
4.12891e-05
2.82642e-05
1.74751e-05
-4.5197e-05
5.56326e-05
1.08504e-05
-3.70832e-05
6.04687e-05
6.37753e-05
1.94846e-06
5.7845e-07
-8.71329e-07
6.59996e-05
3.97388e-06
1.01608e-06
-1.5996e-06
6.83158e-05
5.05056e-06
9.21561e-07
-1.61656e-06
7.02148e-05
5.43391e-06
3.78348e-07
-1.0485e-06
7.15112e-05
5.46388e-06
-5.39323e-07
-1.99913e-08
7.21967e-05
5.46699e-06
-1.75979e-06
1.34667e-06
7.2336e-05
5.67336e-06
-3.27339e-06
3.01133e-06
7.19771e-05
6.21674e-06
-5.12651e-06
5.01382e-06
7.1116e-05
7.17914e-06
-7.41414e-06
7.45788e-06
6.96416e-05
8.63902e-06
-1.03017e-05
1.05526e-05
6.73239e-05
1.06873e-05
-1.40236e-05
1.45851e-05
6.35995e-05
1.34606e-05
-1.89331e-05
2.01229e-05
5.7595e-05
1.71121e-05
-2.55431e-05
2.78759e-05
4.70838e-05
2.13761e-05
-3.38866e-05
3.90525e-05
2.95087e-05
2.48116e-05
-4.28104e-05
5.3049e-05
1.71619e-05
-3.5631e-05
5.88281e-05
6.35435e-05
1.19585e-06
6.03949e-07
-8.94839e-07
6.55307e-05
2.56745e-06
1.0785e-06
-1.65929e-06
6.77627e-05
3.51049e-06
1.02397e-06
-1.71591e-06
6.97652e-05
4.09844e-06
5.23738e-07
-1.19076e-06
7.12958e-05
4.49023e-06
-3.4218e-07
-2.14765e-07
7.22912e-05
4.88437e-06
-1.4942e-06
1.08142e-06
7.27817e-05
5.44829e-06
-2.91273e-06
2.64729e-06
7.28094e-05
6.31135e-06
-4.63229e-06
4.51003e-06
7.23871e-05
7.57733e-06
-6.72998e-06
6.75403e-06
7.14372e-05
9.37675e-06
-9.35128e-06
9.56345e-06
6.9777e-05
1.18591e-05
-1.26895e-05
1.31779e-05
6.68759e-05
1.53168e-05
-1.70772e-05
1.81221e-05
6.18664e-05
2.00673e-05
-2.2924e-05
2.49783e-05
5.21321e-05
2.64876e-05
-3.04321e-05
3.50549e-05
3.4366e-05
3.33895e-05
-3.83419e-05
4.753e-05
2.98491e-05
-3.24692e-05
5.41481e-05
6.34637e-05
6.3231e-07
-9.2235e-07
5.22191e-07
6.5368e-05
1.14727e-06
-1.72697e-06
1.24283e-06
6.75957e-05
1.13714e-06
-1.82805e-06
1.97372e-06
6.96964e-05
6.85016e-07
-1.35149e-06
2.66417e-06
7.14085e-05
-1.23861e-07
-4.33542e-07
3.33558e-06
7.26469e-05
-1.20189e-06
7.86611e-07
4.0612e-06
7.34299e-05
-2.51836e-06
2.24684e-06
4.93689e-06
7.38026e-05
-4.09425e-06
3.95989e-06
6.07295e-06
7.37964e-05
-5.98727e-06
5.98918e-06
7.5817e-06
7.33657e-05
-8.3199e-06
8.49052e-06
9.6368e-06
7.2376e-05
-1.12419e-05
1.16542e-05
1.24365e-05
7.03468e-05
-1.50575e-05
1.59523e-05
1.64511e-05
6.64925e-05
-2.00689e-05
2.18404e-05
2.21501e-05
5.79644e-05
-2.66656e-05
3.07354e-05
3.09458e-05
4.12266e-05
-3.35689e-05
4.1719e-05
4.19773e-05
-2.98879e-05
5.02994e-05
5.06641e-05
5.00951e-05
1.25438e-05
2.16642e-07
4.00445e-05
1.02977e-05
3.28244e-07
3.27209e-05
7.58468e-06
1.76752e-07
2.82907e-05
4.6467e-06
-1.66879e-07
2.5693e-05
2.73579e-06
-6.65609e-07
2.4133e-05
1.60676e-06
-1.29075e-06
2.30379e-05
1.04389e-06
-2.05568e-06
2.20774e-05
7.98951e-07
-2.99038e-06
2.10579e-05
7.24654e-07
-4.14987e-06
1.98553e-05
7.20436e-07
-5.59208e-06
1.83633e-05
7.361e-07
-7.43599e-06
1.64541e-05
6.83179e-07
-9.7057e-06
1.3876e-05
5.68264e-07
-1.26729e-05
1.03414e-05
6.99354e-08
-1.56551e-05
4.88809e-06
-4.2584e-07
-1.84034e-05
-2.42445e-06
-1.25026e-05
6.48062e-05
1.04313e-05
2.87441e-07
6.35736e-05
1.18976e-05
4.39486e-07
6.12035e-05
1.03771e-05
2.25844e-07
5.86501e-05
7.58413e-06
-3.07284e-07
5.6408e-05
5.25479e-06
-1.12681e-06
5.45071e-05
3.63938e-06
-2.19773e-06
5.27782e-05
2.73689e-06
-3.53498e-06
5.10064e-05
2.34252e-06
-5.18811e-06
4.89862e-05
2.28476e-06
-7.24822e-06
4.65049e-05
2.42436e-06
-9.82598e-06
4.33279e-05
2.6763e-06
-1.31119e-05
3.90915e-05
2.91885e-06
-1.7206e-05
3.32731e-05
3.12289e-06
-2.24549e-05
2.49509e-05
2.84666e-06
-2.79284e-05
1.31701e-05
2.14512e-06
-3.23033e-05
-1.00579e-06
-2.1316e-05
6.62684e-05
6.87125e-06
3.11425e-07
6.84949e-05
1.00742e-05
4.74773e-07
6.93456e-05
9.99872e-06
2.46371e-07
6.90692e-05
8.2998e-06
-3.26084e-07
6.81739e-05
6.47926e-06
-1.21165e-06
6.69278e-05
5.05876e-06
-2.38033e-06
6.54253e-05
4.22892e-06
-3.85071e-06
6.36212e-05
3.92361e-06
-5.67869e-06
6.13876e-05
4.03912e-06
-7.96327e-06
5.85178e-05
4.46716e-06
-1.08309e-05
5.47254e-05
5.13931e-06
-1.44869e-05
4.95404e-05
5.94207e-06
-1.90653e-05
4.22805e-05
6.84096e-06
-2.49195e-05
3.17573e-05
7.30818e-06
-3.11103e-05
1.68568e-05
6.87981e-06
-3.60218e-05
2.43624e-06
-2.37886e-05
6.5134e-05
4.44826e-06
3.2688e-07
6.79227e-05
7.69854e-06
5.04315e-07
6.99422e-05
8.46572e-06
2.81499e-07
7.08954e-05
7.80148e-06
-2.87202e-07
7.0994e-05
6.72579e-06
-1.16732e-06
7.04506e-05
5.7911e-06
-2.32958e-06
6.94081e-05
5.27594e-06
-3.79324e-06
6.7891e-05
5.23208e-06
-5.61523e-06
6.58234e-05
5.64151e-06
-7.89375e-06
6.30182e-05
6.45898e-06
-1.07589e-05
5.9174e-05
7.66592e-06
-1.44144e-05
5.37668e-05
9.19185e-06
-1.90128e-05
4.60144e-05
1.10343e-05
-2.49018e-05
3.45941e-05
1.2577e-05
-3.11947e-05
1.82035e-05
1.28498e-05
-3.62259e-05
6.65701e-06
-2.39378e-05
6.42051e-05
2.95381e-06
3.46318e-07
6.66464e-05
5.67271e-06
5.47515e-07
6.88349e-05
6.76778e-06
3.45624e-07
7.02995e-05
6.7965e-06
-2.00859e-07
7.1e-05
6.37642e-06
-1.0521e-06
7.10194e-05
5.96915e-06
-2.17544e-06
7.04558e-05
5.85691e-06
-3.58644e-06
6.93396e-05
6.15871e-06
-5.33845e-06
6.7618e-05
6.92533e-06
-7.52308e-06
6.51218e-05
8.1818e-06
-1.02676e-05
6.15505e-05
9.97691e-06
-1.37639e-05
5.63395e-05
1.23254e-05
-1.81777e-05
4.8608e-05
1.53152e-05
-2.3836e-05
3.6827e-05
1.83258e-05
-2.99559e-05
1.93398e-05
2.00221e-05
-3.4882e-05
1.19623e-05
-2.30487e-05
6.36894e-05
1.97451e-06
3.68365e-07
6.57395e-05
4.03882e-06
5.99895e-07
6.78411e-05
5.15886e-06
4.28877e-07
6.95137e-05
5.58696e-06
-8.47705e-08
7.05792e-05
5.66758e-06
-8.96012e-07
7.10194e-05
5.73591e-06
-1.96672e-06
7.08759e-05
6.0331e-06
-3.30601e-06
7.01642e-05
6.70466e-06
-4.96079e-06
6.88392e-05
7.84891e-06
-7.01271e-06
6.67412e-05
9.56081e-06
-9.58272e-06
6.3573e-05
1.1966e-05
-1.28445e-05
5.87299e-05
1.52108e-05
-1.69753e-05
5.12421e-05
1.95275e-05
-2.22676e-05
3.93217e-05
2.44442e-05
-2.80847e-05
2.08617e-05
2.84646e-05
-3.27929e-05
1.89446e-05
-2.17516e-05
6.34598e-05
1.22475e-06
3.9389e-07
6.52778e-05
2.63833e-06
6.61009e-07
6.73043e-05
3.62822e-06
5.28138e-07
6.9094e-05
4.26558e-06
5.53837e-08
7.04126e-05
4.71396e-06
-7.07163e-07
7.1188e-05
5.18068e-06
-1.71436e-06
7.14294e-05
5.84514e-06
-2.96618e-06
7.11501e-05
6.85087e-06
-4.49922e-06
7.03276e-05
8.32115e-06
-6.37969e-06
6.88414e-05
1.04096e-05
-8.71387e-06
6.6451e-05
1.33095e-05
-1.16425e-05
6.25809e-05
1.73421e-05
-1.53384e-05
5.62691e-05
2.29341e-05
-2.00189e-05
4.52355e-05
3.02773e-05
-2.52316e-05
2.64839e-05
3.82086e-05
-2.93343e-05
3.24975e-05
-1.95382e-05
6.33823e-05
4.2148e-07
5.53236e-07
6.51231e-05
7.27252e-07
1.3176e-06
6.71551e-05
6.36594e-07
2.09681e-06
6.90574e-05
2.09339e-07
2.83896e-06
7.05772e-05
-4.99793e-07
3.57001e-06
7.16224e-05
-1.43822e-06
4.37182e-06
7.21922e-05
-2.59581e-06
5.3528e-06
7.23072e-05
-3.99739e-06
6.63907e-06
7.19688e-05
-5.6923e-06
8.36454e-06
7.10958e-05
-7.76947e-06
1.07322e-05
6.95071e-05
-1.03343e-05
1.39905e-05
6.66765e-05
-1.35492e-05
1.86644e-05
6.17408e-05
-1.75523e-05
2.53533e-05
5.20866e-05
-2.20997e-05
3.53657e-05
3.43868e-05
-2.56062e-05
4.79457e-05
-1.77138e-05
5.47101e-05
5.00454e-05
1.25492e-05
1.22038e-07
3.98979e-05
1.03133e-05
1.62381e-07
3.24612e-05
7.6036e-06
9.84261e-09
2.7917e-05
4.66454e-06
-2.87177e-07
2.52041e-05
2.75396e-06
-7.06687e-07
2.35176e-05
1.62875e-06
-1.23296e-06
2.22691e-05
1.07353e-06
-1.88073e-06
2.11119e-05
8.38923e-07
-2.67208e-06
1.98315e-05
7.78023e-07
-3.6475e-06
1.82848e-05
7.90235e-07
-4.83564e-06
1.63363e-05
8.28355e-07
-6.31582e-06
1.38703e-05
8.05813e-07
-8.0455e-06
1.06559e-05
7.3018e-07
-1.01886e-05
6.77622e-06
2.98156e-07
-1.20736e-05
1.98153e-06
-2.44699e-07
-1.3364e-05
-2.05644e-06
-8.46461e-06
6.47356e-05
1.04448e-05
1.56202e-07
6.33626e-05
1.19299e-05
1.95897e-07
6.08097e-05
1.04222e-05
-3.99002e-08
5.80506e-05
7.63552e-06
-5.19182e-07
5.55875e-05
5.31325e-06
-1.22297e-06
5.34419e-05
3.71063e-06
-2.13399e-06
5.14241e-05
2.82968e-06
-3.27332e-06
4.92915e-05
2.46562e-06
-4.68221e-06
4.68032e-05
2.44871e-06
-6.43065e-06
4.37133e-05
2.63952e-06
-8.58537e-06
3.97447e-05
2.95841e-06
-1.12733e-05
3.45544e-05
3.27861e-06
-1.44885e-05
2.7669e-05
3.5751e-06
-1.84145e-05
1.87598e-05
3.37534e-06
-2.20963e-05
7.83214e-06
2.60782e-06
-2.42282e-05
-6.52246e-07
-1.48881e-05
6.6197e-05
6.88947e-06
1.69804e-07
6.82767e-05
1.01175e-05
2.07476e-07
6.89315e-05
1.00645e-05
-5.0768e-08
6.84289e-05
8.38256e-06
-5.70466e-07
6.72853e-05
6.57999e-06
-1.33476e-06
6.57621e-05
5.18481e-06
-2.33133e-06
6.39336e-05
4.39318e-06
-3.58571e-06
6.17249e-05
4.14145e-06
-5.14583e-06
5.8969e-05
4.33012e-06
-7.08875e-06
5.54199e-05
4.85188e-06
-9.49423e-06
5.07431e-05
5.64668e-06
-1.24984e-05
4.44837e-05
6.59102e-06
-1.61183e-05
3.60085e-05
7.6601e-06
-2.05293e-05
2.47658e-05
8.24765e-06
-2.47399e-05
1.07147e-05
7.78189e-06
-2.71448e-05
2.88037e-06
-1.66065e-05
6.50645e-05
4.46936e-06
1.82471e-07
6.7708e-05
7.74958e-06
2.28775e-07
6.95339e-05
8.54704e-06
-2.69528e-08
7.02633e-05
7.91022e-06
-5.44228e-07
7.01156e-05
6.86409e-06
-1.3038e-06
6.92971e-05
5.96818e-06
-2.29442e-06
6.7931e-05
5.50853e-06
-3.54247e-06
6.60121e-05
5.54221e-06
-5.09708e-06
6.34245e-05
6.05869e-06
-7.03469e-06
5.99393e-05
7.01651e-06
-9.43839e-06
5.52028e-05
8.41092e-06
-1.24421e-05
4.86981e-05
1.01602e-05
-1.60774e-05
3.9682e-05
1.22844e-05
-2.051e-05
2.74735e-05
1.4044e-05
-2.47825e-05
1.18774e-05
1.43796e-05
-2.72275e-05
7.42044e-06
-1.66004e-05
6.41377e-05
2.97739e-06
2.00623e-07
6.6437e-05
5.73039e-06
2.67379e-07
6.84376e-05
6.86201e-06
3.00364e-08
6.96872e-05
6.92687e-06
-4.67101e-07
7.01531e-05
6.54664e-06
-1.20056e-06
6.99119e-05
6.19048e-06
-2.15655e-06
6.90425e-05
6.14977e-06
-3.35828e-06
6.75466e-05
6.55163e-06
-4.85191e-06
6.53323e-05
7.45819e-06
-6.70833e-06
6.21875e-05
8.90269e-06
-9.00891e-06
5.77564e-05
1.0956e-05
-1.1878e-05
5.14723e-05
1.36259e-05
-1.53592e-05
4.24779e-05
1.70444e-05
-1.96017e-05
2.98677e-05
2.04299e-05
-2.37316e-05
1.30679e-05
2.23901e-05
-2.60926e-05
1.32913e-05
-1.58517e-05
6.36237e-05
2.00058e-06
2.21476e-07
6.55358e-05
4.10248e-06
3.15678e-07
6.74567e-05
5.26383e-06
1.06219e-07
6.89252e-05
5.73469e-06
-3.61188e-07
6.97712e-05
5.86339e-06
-1.05869e-06
6.99698e-05
5.99314e-06
-1.96801e-06
6.95447e-05
6.37568e-06
-3.10681e-06
6.8484e-05
7.16739e-06
-4.51582e-06
6.67051e-05
8.48199e-06
-6.25763e-06
6.40056e-05
1.04288e-05
-8.40934e-06
6.00322e-05
1.31659e-05
-1.1081e-05
5.41679e-05
1.68437e-05
-1.43288e-05
4.5452e-05
2.17692e-05
-1.82766e-05
3.26842e-05
2.72851e-05
-2.21721e-05
1.4771e-05
3.19055e-05
-2.43952e-05
2.11383e-05
-1.48276e-05
6.33963e-05
1.25293e-06
2.45288e-07
6.50812e-05
2.70666e-06
3.71912e-07
6.69352e-05
3.741e-06
1.96936e-07
6.85336e-05
4.42536e-06
-2.33708e-07
6.96503e-05
4.92734e-06
-8.87765e-07
7.02076e-05
5.46257e-06
-1.74114e-06
7.01989e-05
6.22194e-06
-2.80368e-06
6.96128e-05
7.36208e-06
-4.10784e-06
6.83942e-05
9.0249e-06
-5.70394e-06
6.63838e-05
1.13846e-05
-7.6594e-06
6.32912e-05
1.46765e-05
-1.00606e-05
5.85212e-05
1.9244e-05
-1.29686e-05
5.11119e-05
2.56196e-05
-1.64599e-05
3.92824e-05
3.38275e-05
-1.99444e-05
2.08826e-05
4.28224e-05
-2.18514e-05
3.58228e-05
-1.33401e-05
6.3321e-05
2.70599e-07
5.82777e-07
6.49342e-05
4.32297e-07
1.38845e-06
6.6803e-05
2.95398e-07
2.21337e-06
6.85277e-05
-9.44238e-08
3.00448e-06
6.98642e-05
-7.00959e-07
3.79193e-06
7.07165e-05
-1.49379e-06
4.66586e-06
7.10701e-05
-2.47408e-06
5.7466e-06
7.09246e-05
-3.66483e-06
7.17498e-06
7.02545e-05
-5.10296e-06
9.10568e-06
6.89454e-05
-6.84415e-06
1.17684e-05
6.67758e-05
-8.9491e-06
1.5461e-05
6.31958e-05
-1.14802e-05
2.0755e-05
5.73446e-05
-1.4464e-05
2.83824e-05
4.70049e-05
-1.74928e-05
3.95602e-05
2.95591e-05
-1.91078e-05
5.37697e-05
-1.211e-05
5.9778e-05
5.00072e-05
1.25543e-05
6.05835e-08
3.97835e-05
1.0327e-05
5.90505e-08
3.22543e-05
7.62058e-06
-8.14932e-08
2.76139e-05
4.68103e-06
-3.27812e-07
2.48031e-05
2.77121e-06
-6.67124e-07
2.30121e-05
1.64979e-06
-1.0917e-06
2.16446e-05
1.10199e-06
-1.6153e-06
2.03481e-05
8.77829e-07
-2.25339e-06
1.89035e-05
8.31328e-07
-3.03418e-06
1.71725e-05
8.63101e-07
-3.96776e-06
1.50287e-05
9.30517e-07
-5.10255e-06
1.23996e-05
9.539e-07
-6.3703e-06
9.11817e-06
9.49854e-07
-7.85704e-06
5.40288e-06
6.45906e-07
-9.00421e-06
1.30414e-06
2.12085e-07
-9.47739e-06
-1.43426e-06
-5.72621e-06
6.46809e-05
1.04575e-05
7.21439e-08
6.31966e-05
1.19591e-05
4.81185e-08
6.04937e-05
1.04633e-05
-1.7974e-07
5.75612e-05
7.68286e-06
-5.88524e-07
5.49092e-05
5.36747e-06
-1.16717e-06
5.2557e-05
3.77653e-06
-1.90856e-06
5.03049e-05
2.91504e-06
-2.83429e-06
4.78984e-05
2.57865e-06
-3.97647e-06
4.50848e-05
2.59989e-06
-5.3857e-06
4.16196e-05
2.84048e-06
-7.0975e-06
3.72375e-05
3.22797e-06
-9.18864e-06
3.16666e-05
3.63783e-06
-1.16015e-05
2.45515e-05
4.0586e-06
-1.44082e-05
1.58722e-05
4.01602e-06
-1.67871e-05
6.09949e-06
3.3632e-06
-1.76066e-05
8.27845e-08
-1.03056e-05
6.61417e-05
6.90667e-06
7.88685e-08
6.81049e-05
1.01575e-05
4.58323e-08
6.85992e-05
1.01249e-05
-2.06694e-07
6.79059e-05
8.45877e-06
-6.53017e-07
6.65499e-05
6.67263e-06
-1.28396e-06
6.47919e-05
5.29999e-06
-2.09682e-06
6.26968e-05
4.54204e-06
-3.11754e-06
6.01765e-05
4.33754e-06
-4.38445e-06
5.70506e-05
4.59108e-06
-5.95403e-06
5.3072e-05
5.19684e-06
-7.87197e-06
4.79181e-05
6.10372e-06
-1.02203e-05
4.12094e-05
7.18428e-06
-1.2956e-05
3.24457e-05
8.42923e-06
-1.61362e-05
2.14276e-05
9.18802e-06
-1.88939e-05
8.65446e-06
8.82239e-06
-1.98308e-05
3.64163e-06
-1.15109e-05
6.5011e-05
4.48939e-06
8.87716e-08
6.75397e-05
7.79698e-06
6.05836e-08
6.92071e-05
8.62195e-06
-1.91421e-07
6.9748e-05
8.01003e-06
-6.36351e-07
6.93899e-05
6.99037e-06
-1.2635e-06
6.83383e-05
6.12855e-06
-2.07135e-06
6.67074e-05
5.71719e-06
-3.08675e-06
6.44793e-05
5.81781e-06
-4.34926e-06
6.15245e-05
6.42624e-06
-5.91496e-06
5.76117e-05
7.50368e-06
-7.83247e-06
5.23981e-05
9.05695e-06
-1.01818e-05
4.54402e-05
1.09956e-05
-1.29307e-05
3.61262e-05
1.33595e-05
-1.61263e-05
2.41305e-05
1.5324e-05
-1.89228e-05
9.8135e-06
1.57729e-05
-1.98611e-05
8.30589e-06
-1.14512e-05
6.40859e-05
2.9996e-06
1.04482e-07
6.62735e-05
5.78377e-06
9.30222e-08
6.81208e-05
6.94847e-06
-1.43748e-07
6.91895e-05
7.04575e-06
-5.71557e-07
6.9455e-05
6.70083e-06
-1.17653e-06
6.8993e-05
6.38927e-06
-1.95531e-06
6.7874e-05
6.41017e-06
-2.93225e-06
6.60874e-05
6.8971e-06
-4.14457e-06
6.35284e-05
7.92094e-06
-5.64404e-06
5.99819e-05
9.5197e-06
-7.4784e-06
5.51015e-05
1.17797e-05
-9.72042e-06
4.83882e-05
1.46982e-05
-1.23484e-05
3.91074e-05
1.84355e-05
-1.53969e-05
2.6695e-05
2.20884e-05
-1.80836e-05
1.11142e-05
2.42215e-05
-1.89603e-05
1.44274e-05
-1.0859e-05
6.35736e-05
2.02477e-06
1.22737e-07
6.53775e-05
4.16087e-06
1.34613e-07
6.71513e-05
5.35942e-06
-7.8488e-08
6.84485e-05
5.86836e-06
-4.80975e-07
6.91067e-05
6.0394e-06
-1.05551e-06
6.91008e-05
6.22242e-06
-1.79521e-06
6.84462e-05
6.67785e-06
-2.7199e-06
6.71197e-05
7.57031e-06
-3.86254e-06
6.50267e-05
9.02472e-06
-5.26839e-06
6.19615e-05
1.11581e-05
-6.98252e-06
5.75786e-05
1.41489e-05
-9.06727e-06
5.13221e-05
1.81384e-05
-1.15125e-05
4.23428e-05
2.34739e-05
-1.43357e-05
2.97601e-05
2.93478e-05
-1.68488e-05
1.29747e-05
3.42553e-05
-1.76437e-05
2.26518e-05
-1.00773e-05
6.3348e-05
1.27864e-06
1.43436e-07
6.49291e-05
2.76863e-06
1.83037e-07
6.66434e-05
3.84275e-06
-7.31018e-10
6.80813e-05
4.56883e-06
-3.7205e-07
6.90252e-05
5.11783e-06
-9.10045e-07
6.93974e-05
5.71222e-06
-1.60314e-06
6.91843e-05
6.55217e-06
-2.46492e-06
6.83649e-05
7.8039e-06
-3.52199e-06
6.68738e-05
9.62226e-06
-4.81042e-06
6.45494e-05
1.21923e-05
-6.36929e-06
6.11094e-05
1.57732e-05
-8.24483e-06
5.60101e-05
2.07047e-05
-1.04355e-05
4.83876e-05
2.75676e-05
-1.29312e-05
3.67381e-05
3.62245e-05
-1.51716e-05
1.93223e-05
4.56376e-05
-1.58179e-05
3.77066e-05
-9.07266e-06
6.32747e-05
1.65223e-07
6.09278e-07
6.47889e-05
2.34768e-07
1.45196e-06
6.65261e-05
8.33787e-08
2.31763e-06
6.81018e-05
-2.53417e-07
3.15207e-06
6.92814e-05
-7.515e-07
3.98884e-06
6.99691e-05
-1.39417e-06
4.92484e-06
7.01453e-05
-2.18802e-06
6.08988e-06
6.98015e-05
-3.15241e-06
7.63529e-06
6.89045e-05
-4.31335e-06
9.72964e-06
6.73386e-05
-5.70239e-06
1.26165e-05
6.48918e-05
-7.3484e-06
1.66193e-05
6.10571e-05
-9.25629e-06
2.23155e-05
5.5061e-05
-1.13881e-05
3.04878e-05
4.49144e-05
-1.33277e-05
4.22061e-05
2.83264e-05
-1.38601e-05
5.69779e-05
-8.25205e-06
6.21751e-05
4.99775e-05
1.25585e-05
2.45737e-08
3.96944e-05
1.03382e-05
4.02345e-09
3.20907e-05
7.63456e-06
-1.1238e-07
2.73706e-05
4.69476e-06
-3.02454e-07
2.44767e-05
2.78553e-06
-5.5878e-07
2.2596e-05
1.66703e-06
-8.77995e-07
2.11267e-05
1.12495e-06
-1.27102e-06
1.97122e-05
9.08754e-07
-1.74765e-06
1.81307e-05
8.73e-07
-2.3257e-06
1.62491e-05
9.1892e-07
-3.00504e-06
1.3952e-05
1.00688e-06
-3.81237e-06
1.1203e-05
1.06139e-06
-4.68261e-06
7.89908e-06
1.10433e-06
-5.6575e-06
4.35626e-06
8.79457e-07
-6.34085e-06
8.30656e-07
5.03491e-07
-6.45528e-06
-1.08884e-06
-3.80671e-06
6.46382e-05
1.04682e-05
2.42302e-08
6.30666e-05
1.19837e-05
-2.57925e-08
6.02433e-05
1.0498e-05
-2.19834e-07
5.71681e-05
7.72318e-06
-5.41705e-07
5.43574e-05
5.41374e-06
-9.84748e-07
5.18303e-05
3.83252e-06
-1.54687e-06
4.93801e-05
2.98703e-06
-2.24624e-06
4.67447e-05
2.67333e-06
-3.10565e-06
4.36651e-05
2.72571e-06
-4.15873e-06
3.99011e-05
3.00656e-06
-5.42121e-06
3.52056e-05
3.44891e-06
-6.93514e-06
2.937e-05
3.92906e-06
-8.63356e-06
2.21537e-05
4.4453e-06
-1.05329e-05
1.37593e-05
4.51654e-06
-1.20298e-05
4.96984e-06
3.93884e-06
-1.22525e-05
5.7923e-07
-7.00385e-06
6.60986e-05
6.92162e-06
2.68716e-08
6.79705e-05
1.01918e-05
-3.41984e-08
6.83358e-05
1.01766e-05
-2.50716e-07
6.74857e-05
8.52417e-06
-6.0385e-07
6.59519e-05
6.75209e-06
-1.08854e-06
6.39954e-05
5.39842e-06
-1.70616e-06
6.16749e-05
4.66857e-06
-2.47862e-06
5.88943e-05
4.50331e-06
-3.4338e-06
5.54653e-05
4.81056e-06
-4.60985e-06
5.11443e-05
5.48544e-06
-6.02985e-06
4.56277e-05
6.48376e-06
-7.73859e-06
3.86045e-05
7.67405e-06
-9.6778e-06
2.97034e-05
9.05872e-06
-1.18484e-05
1.89834e-05
9.94942e-06
-1.36068e-05
7.30637e-06
9.65766e-06
-1.38726e-05
4.22404e-06
-7.84939e-06
6.49693e-05
4.50695e-06
3.41201e-08
6.74082e-05
7.83803e-06
-2.45194e-08
6.89485e-05
8.68646e-06
-2.41557e-07
6.93345e-05
8.09585e-06
-5.94008e-07
6.88002e-05
7.09873e-06
-1.0759e-06
6.75514e-05
6.26566e-06
-1.68971e-06
6.56966e-05
5.89473e-06
-2.45816e-06
6.32097e-05
6.05115e-06
-3.4102e-06
5.99532e-05
6.73589e-06
-4.5838e-06
5.56986e-05
7.91194e-06
-6.00439e-06
5.01208e-05
9.595e-06
-7.71519e-06
4.28432e-05
1.16865e-05
-9.66566e-06
3.33829e-05
1.42413e-05
-1.18485e-05
2.16766e-05
1.63664e-05
-1.36335e-05
8.46116e-06
1.69035e-05
-1.38914e-05
9.03161e-06
-7.7976e-06
6.40458e-05
3.01906e-06
4.65495e-08
6.61462e-05
5.83003e-06
6.38734e-10
6.78707e-05
7.02295e-06
-2.04703e-07
6.87909e-05
7.14785e-06
-5.43769e-07
6.88885e-05
6.83293e-06
-1.00834e-06
6.82395e-05
6.55897e-06
-1.59963e-06
6.6909e-05
6.63156e-06
-2.33855e-06
6.48784e-05
7.18949e-06
-3.2524e-06
6.20356e-05
8.31073e-06
-4.376e-06
5.8167e-05
1.00366e-05
-5.7345e-06
5.29423e-05
1.24654e-05
-7.36617e-06
4.5925e-05
1.55841e-05
-9.22873e-06
3.65021e-05
1.9574e-05
-1.13067e-05
2.43634e-05
2.34369e-05
-1.30154e-05
9.83837e-06
2.57043e-05
-1.32361e-05
1.53849e-05
-7.37389e-06
6.35348e-05
2.04584e-06
6.11191e-08
6.52547e-05
4.21127e-06
3.34949e-08
6.6911e-05
5.44152e-06
-1.53331e-07
6.80676e-05
5.98284e-06
-4.72551e-07
6.85686e-05
6.18978e-06
-9.13374e-07
6.8389e-05
6.41774e-06
-1.47444e-06
6.75396e-05
6.93437e-06
-2.17326e-06
6.59896e-05
7.91096e-06
-3.03402e-06
6.36374e-05
9.48146e-06
-4.08687e-06
6.02784e-05
1.17684e-05
-5.35539e-06
5.55815e-05
1.49658e-05
-6.87084e-06
4.90473e-05
1.92061e-05
-8.60023e-06
3.99389e-05
2.48646e-05
-1.05179e-05
2.76142e-05
3.10197e-05
-1.21069e-05
1.18126e-05
3.61477e-05
-1.22855e-05
2.39402e-05
-6.82002e-06
6.33109e-05
1.30082e-06
7.75781e-08
6.48116e-05
2.82181e-06
7.17776e-08
6.64146e-05
3.92982e-06
-9.20657e-08
6.77211e-05
4.69128e-06
-3.86935e-07
6.85201e-05
5.28013e-06
-7.99387e-07
6.87348e-05
5.92447e-06
-1.32459e-06
6.83475e-05
6.83216e-06
-1.97541e-06
6.73308e-05
8.17722e-06
-2.77152e-06
6.56135e-05
1.01249e-05
-3.73666e-06
6.30353e-05
1.28684e-05
-4.89093e-06
5.93268e-05
1.66849e-05
-6.25541e-06
5.39932e-05
2.19097e-05
-7.8055e-06
4.62702e-05
2.91571e-05
-9.50069e-06
3.48642e-05
3.81686e-05
-1.09146e-05
1.83209e-05
4.79054e-05
-1.10322e-05
3.9348e-05
-6.15964e-06
6.32393e-05
9.48001e-08
6.31928e-07
6.46772e-05
1.12553e-07
1.50613e-06
6.63099e-05
-2.59166e-08
2.40642e-06
6.7764e-05
-2.93846e-07
3.27759e-06
6.88119e-05
-6.75361e-07
4.15611e-06
6.93594e-05
-1.16177e-06
5.14454e-06
6.93838e-05
-1.76076e-06
6.38054e-06
6.88715e-05
-2.48681e-06
8.02394e-06
6.77852e-05
-3.35665e-06
1.02545e-05
6.6011e-05
-4.38587e-06
1.33261e-05
6.33499e-05
-5.58457e-06
1.75821e-05
5.93365e-05
-6.93518e-06
2.3602e-05
5.32846e-05
-8.38319e-06
3.22041e-05
4.33798e-05
-9.60392e-06
4.43496e-05
2.75563e-05
-9.69178e-06
5.95605e-05
-5.62393e-06
6.42762e-05
4.99562e-05
1.25618e-05
6.6071e-09
3.96298e-05
1.03469e-05
-1.64458e-08
3.19712e-05
7.64544e-06
-9.92436e-08
2.71919e-05
4.70568e-06
-2.28845e-07
2.42368e-05
2.79709e-06
-4.00745e-07
2.22917e-05
1.6811e-06
-6.13985e-07
2.07528e-05
1.14386e-06
-8.75986e-07
1.9263e-05
9.34563e-07
-1.19242e-06
1.76023e-05
9.08409e-07
-1.57348e-06
1.56454e-05
9.67435e-07
-2.01552e-06
1.32899e-05
1.07473e-06
-2.53161e-06
1.05218e-05
1.15838e-06
-3.07286e-06
7.27575e-06
1.24499e-06
-3.65647e-06
3.88099e-06
1.08648e-06
-4.03257e-06
6.67178e-07
7.66561e-07
-4.00803e-06
-8.14499e-07
-2.32504e-06
6.46073e-05
1.04767e-05
2.02198e-09
6.29718e-05
1.20029e-05
-4.63867e-08
6.00593e-05
1.05251e-05
-1.86909e-07
5.68774e-05
7.75496e-06
-4.09139e-07
5.39485e-05
5.45033e-06
-7.09084e-07
5.12927e-05
3.87685e-06
-1.08682e-06
4.87015e-05
3.044e-06
-1.55521e-06
4.59109e-05
2.74831e-06
-2.12875e-06
4.26625e-05
2.8256e-06
-2.82759e-06
3.87267e-05
3.13908e-06
-3.65698e-06
3.38771e-05
3.62636e-06
-4.63722e-06
2.79503e-05
4.16509e-06
-5.71345e-06
2.07799e-05
4.76171e-06
-6.87926e-06
1.26515e-05
4.92851e-06
-7.74343e-06
4.46383e-06
4.42298e-06
-7.72125e-06
9.82412e-07
-4.33693e-06
6.60674e-05
6.9335e-06
2.71111e-09
6.78724e-05
1.02188e-05
-5.51441e-08
6.81421e-05
1.02173e-05
-2.12637e-07
6.71747e-05
8.57569e-06
-4.57174e-07
6.55079e-05
6.81466e-06
-7.86106e-07
6.34047e-05
5.47572e-06
-1.20181e-06
6.09224e-05
4.76754e-06
-1.71988e-06
5.79628e-05
4.63249e-06
-2.3584e-06
5.43381e-05
4.98105e-06
-3.14058e-06
4.98146e-05
5.70913e-06
-4.07642e-06
4.4112e-05
6.77793e-06
-5.18752e-06
3.69694e-05
8.0535e-06
-6.42364e-06
2.81015e-05
9.54747e-06
-7.76625e-06
1.7673e-05
1.05445e-05
-8.79419e-06
6.68409e-06
1.03203e-05
-8.78112e-06
4.69209e-06
-4.87498e-06
6.49393e-05
4.52094e-06
7.42076e-09
6.73124e-05
7.87051e-06
-4.93451e-08
6.87585e-05
8.73732e-06
-2.07649e-07
6.90287e-05
8.16339e-06
-4.51904e-07
6.83627e-05
7.18377e-06
-7.79028e-07
6.69681e-05
6.37279e-06
-1.19217e-06
6.49525e-05
6.03264e-06
-1.7076e-06
6.22876e-05
6.23129e-06
-2.34416e-06
5.88365e-05
6.97335e-06
-3.12502e-06
5.43802e-05
8.2229e-06
-4.06182e-06
4.86162e-05
1.00018e-05
-5.1751e-06
4.12181e-05
1.22056e-05
-6.41961e-06
3.17889e-05
1.48992e-05
-7.77107e-06
2.03729e-05
1.71429e-05
-8.81592e-06
7.84914e-06
1.77468e-05
-8.79409e-06
9.58227e-06
-4.83864e-06
6.40169e-05
3.03455e-06
1.60072e-08
6.60537e-05
5.86663e-06
-3.22034e-08
6.76873e-05
7.0816e-06
-1.82597e-07
6.84966e-05
7.22802e-06
-4.17673e-07
6.84687e-05
6.93623e-06
-7.32924e-07
6.76816e-05
6.69097e-06
-1.13073e-06
6.61993e-05
6.80257e-06
-1.62618e-06
6.40017e-05
7.41354e-06
-2.23704e-06
6.09769e-05
8.60668e-06
-2.98452e-06
5.69205e-05
1.0425e-05
-3.88017e-06
5.15236e-05
1.29741e-05
-4.94158e-06
4.43966e-05
1.62329e-05
-6.12905e-06
3.50081e-05
2.03945e-05
-7.41351e-06
2.3149e-05
2.43972e-05
-8.41055e-06
9.28351e-06
2.67448e-05
-8.36855e-06
1.60586e-05
-4.56673e-06
6.3507e-05
2.06252e-06
2.61284e-08
6.51657e-05
4.25102e-06
-9.52543e-09
6.67351e-05
5.50601e-06
-1.47204e-07
6.77868e-05
6.07244e-06
-3.68647e-07
6.81703e-05
6.30696e-06
-6.67636e-07
6.78627e-05
6.56901e-06
-1.04486e-06
6.68737e-05
7.13151e-06
-1.51317e-06
6.51712e-05
8.17029e-06
-2.08829e-06
6.26542e-05
9.82518e-06
-2.78841e-06
5.91267e-05
1.22215e-05
-3.62429e-06
5.42773e-05
1.55619e-05
-4.60924e-06
4.76497e-05
1.99701e-05
-5.70993e-06
3.85823e-05
2.58359e-05
-6.8919e-06
2.65245e-05
3.21618e-05
-7.81378e-06
1.13342e-05
3.74019e-05
-7.75226e-06
2.47848e-05
-4.21197e-06
6.32843e-05
1.31827e-06
3.75432e-08
6.47266e-05
2.86356e-06
1.69206e-08
6.62475e-05
3.99797e-06
-1.04963e-07
6.74559e-05
4.78681e-06
-3.09714e-07
6.81467e-05
5.40617e-06
-5.89341e-07
6.82451e-05
6.08827e-06
-9.42242e-07
6.77329e-05
7.04649e-06
-1.37821e-06
6.65818e-05
8.46e-06
-1.91009e-06
6.47216e-05
1.05007e-05
-2.55204e-06
6.19996e-05
1.33655e-05
-3.31299e-06
5.81649e-05
1.73416e-05
-4.20042e-06
5.27603e-05
2.27565e-05
-5.18727e-06
4.50879e-05
3.02396e-05
-6.23199e-06
3.39332e-05
3.94522e-05
-7.0504e-06
1.79352e-05
4.93374e-05
-6.96977e-06
4.03733e-05
-3.81297e-06
6.3214e-05
4.94481e-08
6.49618e-07
6.45966e-05
4.50494e-08
1.54844e-06
6.61524e-05
-5.93936e-08
2.47567e-06
6.75159e-05
-2.45689e-07
3.37519e-06
6.84653e-05
-5.04218e-07
4.28561e-06
6.8909e-05
-8.30815e-07
5.31358e-06
6.88243e-05
-1.23184e-06
6.6023e-06
6.81972e-05
-1.71683e-06
8.31713e-06
6.6992e-05
-2.29553e-06
1.06447e-05
6.51021e-05
-2.9744e-06
1.3844e-05
6.23455e-05
-3.75459e-06
1.82682e-05
5.82892e-05
-4.61459e-06
2.44922e-05
5.23044e-05
-5.50669e-06
3.33479e-05
4.26406e-05
-6.21066e-06
4.57228e-05
2.7296e-05
-6.13322e-06
6.11234e-05
-3.48924e-06
6.55346e-05
4.9942e-05
1.2564e-05
6.20737e-10
3.95869e-05