/*--------------------------------*- C++ -*----------------------------------*\
| =========                 |                                                 |
| \\      /  F ield         | OpenFOAM: The Open Source CFD Toolbox           |
|  \\    /   O peration     | Version:  v1912                                 |
|   \\  /    A nd           | Website:  www.openfoam.com                      |
|    \\/     M anipulation  |                                                 |
\*---------------------------------------------------------------------------*/
FoamFile
{
    version     2.0;
    format      ascii;
    class       volVectorField;
    location    "0.65/fluid";
    object      U;
}
// * * * * * * * * * * * * * * * * * * * * * * * * * * * * * * * * * * * * * //

dimensions      [0 1 -1 0 0 0 0];


internalField   nonuniform List<vector> 
14592
(
(0.0877177 0.0173088 0.000623148)
(0.0722088 0.0117541 0.00102695)
(0.0570604 0.00736398 0.000844961)
(0.0486009 0.0036202 0.000259907)
(0.0434112 0.00166277 -0.000618247)
(0.0405938 0.000703346 -0.00170187)
(0.0388209 0.000305349 -0.00299533)
(0.0375657 0.000143714 -0.00455487)
(0.0363513 7.31737e-05 -0.00648332)
(0.0351585 6.09804e-06 -0.00893938)
(0.0335248 -9.43364e-05 -0.012173)
(0.0319486 -0.000329671 -0.0165124)
(0.0289619 -0.000679279 -0.0226607)
(0.0264409 -0.00157088 -0.0307718)
(0.0186845 -0.00210558 -0.0414118)
(0.0105894 -0.00507632 -0.0394687)
(0.103992 0.0179719 0.000847957)
(0.103666 0.017583 0.0014583)
(0.100576 0.0142075 0.0012832)
(0.0967901 0.00957792 0.000446651)
(0.0931874 0.0060851 -0.000946489)
(0.0903236 0.00381328 -0.00277699)
(0.0879012 0.00258274 -0.00502896)
(0.0857232 0.00201286 -0.00777819)
(0.0833899 0.00182683 -0.0111875)
(0.0808324 0.00182399 -0.0155211)
(0.0774208 0.0018826 -0.0211858)
(0.0734991 0.00183961 -0.0287372)
(0.067006 0.00165502 -0.039167)
(0.0596501 0.000764967 -0.0527206)
(0.0428956 -0.000228668 -0.0686986)
(0.0248112 -0.00433338 -0.0636026)
(0.103995 0.0119043 0.000914936)
(0.108454 0.0160457 0.00158955)
(0.111474 0.0151133 0.00142586)
(0.112059 0.0118244 0.00054641)
(0.11138 0.00868263 -0.000946346)
(0.110035 0.00632647 -0.00293805)
(0.108297 0.00492398 -0.00541344)
(0.10629 0.00427874 -0.00845319)
(0.10383 0.0041749 -0.0122316)
(0.100904 0.00441678 -0.0170398)
(0.0968678 0.00486576 -0.0233205)
(0.0919466 0.00534842 -0.0317092)
(0.0838585 0.00578801 -0.043266)
(0.0741288 0.00557506 -0.0584374)
(0.0531605 0.00462524 -0.0763353)
(0.0298443 -0.000265059 -0.0719057)
(0.102129 0.00764605 0.000942358)
(0.106699 0.0124831 0.00165345)
(0.111393 0.013148 0.00150702)
(0.114036 0.0115513 0.000636034)
(0.115207 0.00946644 -0.000848594)
(0.115199 0.00770549 -0.00283201)
(0.114364 0.0066291 -0.00529954)
(0.112921 0.00624004 -0.00833258)
(0.110804 0.00644799 -0.0121041)
(0.108056 0.00713667 -0.016911)
(0.104041 0.00822251 -0.0231976)
(0.0989516 0.00958089 -0.0316385)
(0.0903631 0.0111519 -0.0433096)
(0.0797222 0.0122786 -0.0588407)
(0.0569339 0.0121013 -0.0773869)
(0.0310121 0.00577965 -0.0739442)
(0.101094 0.00499074 0.000968643)
(0.104739 0.00926717 0.00171896)
(0.10928 0.0106858 0.00160543)
(0.112571 0.0103094 0.000767052)
(0.114693 0.00925003 -0.000674444)
(0.115623 0.00823762 -0.00259745)
(0.1156 0.00768067 -0.00498187)
(0.114818 0.00770739 -0.00790332)
(0.113245 0.00833418 -0.0115245)
(0.110963 0.00953415 -0.0161357)
(0.107349 0.0112924 -0.0221624)
(0.102601 0.0135558 -0.0302986)
(0.0941601 0.0163013 -0.041593)
(0.083398 0.0188102 -0.0568872)
(0.0595905 0.0195585 -0.075366)
(0.0316332 0.0110064 -0.0730702)
(0.100634 0.00336011 0.00099796)
(0.103526 0.00670821 0.00179368)
(0.107596 0.00829324 0.00172651)
(0.11103 0.00864123 0.000936865)
(0.113638 0.00838747 -0.000443922)
(0.115198 0.00808808 -0.00228455)
(0.115824 0.00811029 -0.00455539)
(0.115655 0.00863982 -0.0073214)
(0.114658 0.00977165 -0.0107292)
(0.112933 0.0115778 -0.0150555)
(0.109866 0.0141463 -0.0206946)
(0.10566 0.017588 -0.0283495)
(0.0976273 0.0220472 -0.0390092)
(0.0870837 0.0269973 -0.0537673)
(0.0625412 0.0305083 -0.0718002)
(0.0327171 0.0203365 -0.0710246)
(0.100463 0.00218914 0.00103352)
(0.102945 0.0045978 0.00188199)
(0.106691 0.00607066 0.0018723)
(0.110164 0.00681036 0.00114449)
(0.113066 0.00714854 -0.000161206)
(0.11508 0.00745607 -0.00190183)
(0.116244 0.00801957 -0.00403314)
(0.116662 0.00903254 -0.00660215)
(0.116315 0.0106318 -0.00972821)
(0.115344 0.0129659 -0.0136552)
(0.113203 0.0162 -0.0187117)
(0.110177 0.0206028 -0.0255536)
(0.103591 0.0264476 -0.0349938)
(0.094817 0.0334713 -0.0483306)
(0.0708342 0.0394683 -0.0644358)
(0.0400578 0.027396 -0.0654396)
(0.100408 0.00121466 0.00107384)
(0.10274 0.00270659 0.00198036)
(0.106383 0.00391501 0.00203466)
(0.109938 0.00484739 0.00137642)
(0.113073 0.00562408 0.000153708)
(0.115434 0.00643862 -0.00147903)
(0.117029 0.00748109 -0.00346076)
(0.117951 0.00892669 -0.00581815)
(0.118205 0.0109355 -0.00864105)
(0.117963 0.0137347 -0.0121356)
(0.116755 0.0175915 -0.0165612)
(0.114936 0.0230936 -0.0225136)
(0.109917 0.0308971 -0.0306255)
(0.103307 0.0425173 -0.0424214)
(0.0807049 0.0568037 -0.0566427)
(0.0524601 0.0614349 -0.0610927)
(0.0876865 0.0173116 0.000390411)
(0.0720291 0.011767 0.000611684)
(0.0566533 0.00737543 0.000401767)
(0.0479931 0.00362648 -0.00011847)
(0.0426136 0.00166708 -0.000882733)
(0.0396118 0.000708671 -0.00183849)
(0.0376259 0.000314027 -0.00300163)
(0.0361023 0.000156272 -0.0044189)
(0.0345366 9.09077e-05 -0.00617567)
(0.0328685 3.12209e-05 -0.00837217)
(0.0306323 -5.34219e-05 -0.011195)
(0.0282005 -0.00025385 -0.0147208)
(0.0243345 -0.000529256 -0.0193795)
(0.0202797 -0.00123723 -0.0242036)
(0.0124684 -0.0016815 -0.028848)
(0.00338624 -0.00369545 -0.0193936)
(0.103949 0.0179859 0.000522861)
(0.103414 0.0176198 0.000838586)
(0.0999866 0.0142542 0.000561958)
(0.0958447 0.00962469 -0.000228193)
(0.0918755 0.00613488 -0.00147144)
(0.0886374 0.00387456 -0.00310177)
(0.0857944 0.0026662 -0.00513233)
(0.0831032 0.00212708 -0.00763674)
(0.0801084 0.00198166 -0.0107556)
(0.0766678 0.00202963 -0.0146741)
(0.0721101 0.00215791 -0.0196975)
(0.0666136 0.00220471 -0.0260398)
(0.0583495 0.00214812 -0.0342781)
(0.0483694 0.00142905 -0.0431324)
(0.0310304 0.000449822 -0.0506691)
(0.0114021 -0.00322062 -0.0335297)
(0.103955 0.0119281 0.000565726)
(0.108195 0.0161036 0.000909522)
(0.11086 0.0151972 0.000619488)
(0.111057 0.0119237 -0.000224357)
(0.109968 0.00879892 -0.00156447)
(0.108195 0.00647069 -0.00334187)
(0.105978 0.0051136 -0.00557393)
(0.10339 0.00453236 -0.00834262)
(0.100187 0.0045149 -0.0118001)
(0.0962731 0.00486599 -0.0161558)
(0.0909437 0.00545778 -0.0217397)
(0.0842556 0.00610615 -0.0288214)
(0.074131 0.00674921 -0.0379981)
(0.0614446 0.00669343 -0.0479939)
(0.0396558 0.00567895 -0.0564665)
(0.0146348 0.000414644 -0.0374892)
(0.102091 0.00767282 0.000589653)
(0.106443 0.0125503 0.000958011)
(0.110786 0.0132542 0.000678502)
(0.113044 0.0116901 -0.000158975)
(0.113808 0.0096404 -0.00149095)
(0.113375 0.00792832 -0.00325913)
(0.112064 0.00692419 -0.00548164)
(0.110047 0.0066364 -0.00824177)
(0.107193 0.00698311 -0.0116904)
(0.103462 0.00785242 -0.016042)
(0.0981522 0.00917815 -0.0216246)
(0.0912859 0.0108228 -0.028736)
(0.0806131 0.0127523 -0.0379666)
(0.0669327 0.0141548 -0.0481243)
(0.0432116 0.0139847 -0.0568046)
(0.015414 0.006588 -0.037738)
(0.101058 0.00502148 0.000617697)
(0.104488 0.00934476 0.00102202)
(0.108684 0.0108133 0.000773807)
(0.111603 0.0104845 -3.09748e-05)
(0.113337 0.00947736 -0.00132046)
(0.113864 0.00853346 -0.00303083)
(0.113393 0.00807376 -0.00517467)
(0.112071 0.00823651 -0.00782982)
(0.109803 0.0090519 -0.0111372)
(0.106595 0.0105026 -0.0153062)
(0.101748 0.0126003 -0.0206467)
(0.0952996 0.0152801 -0.0274743)
(0.0848177 0.0185651 -0.0363474)
(0.0710505 0.0215107 -0.0462305)
(0.0461887 0.0224037 -0.0547329)
(0.0161126 0.0121299 -0.0363333)
(0.100599 0.00339488 0.000649299)
(0.10328 0.00679567 0.00109833)
(0.107014 0.00843921 0.000895649)
(0.110092 0.00884664 0.000139241)
(0.112334 0.00865957 -0.0010912)
(0.11352 0.00844627 -0.00272324)
(0.113735 0.00858884 -0.0047599)
(0.113072 0.00928775 -0.00726921)
(0.111439 0.0106584 -0.010377)
(0.108867 0.0127919 -0.0142822)
(0.104655 0.0158188 -0.0192665)
(0.0988674 0.0198539 -0.0256602)
(0.0888791 0.0251339 -0.0339672)
(0.0754424 0.0308541 -0.0433711)
(0.049723 0.0349615 -0.0515055)
(0.0175031 0.0224351 -0.034294)
(0.100429 0.00222842 0.000686218)
(0.102706 0.00469501 0.0011875)
(0.106126 0.00623265 0.0010411)
(0.109261 0.00704016 0.000345178)
(0.111822 0.00745565 -0.000813135)
(0.113498 0.00786242 -0.0023504)
(0.114296 0.00856358 -0.004256)
(0.114282 0.00977126 -0.00658206)
(0.113385 0.0116479 -0.00943053)
(0.111686 0.0143695 -0.0129762)
(0.108557 0.018157 -0.0174484)
(0.104184 0.0233005 -0.0231634)
(0.0958735 0.0302031 -0.0305028)
(0.0845878 0.0382933 -0.0389199)
(0.0593285 0.0453163 -0.0460035)
(0.0260038 0.0302628 -0.0306947)
(0.100375 0.00125763 0.000726545)
(0.102507 0.00281104 0.00128473)
(0.105836 0.00408803 0.00120065)
(0.109073 0.00509318 0.000572051)
(0.111894 0.00595354 -0.000506963)
(0.113953 0.00687542 -0.00194159)
(0.115231 0.00806644 -0.00370621)
(0.115788 0.00972367 -0.00583474)
(0.115581 0.0120373 -0.00840322)
(0.11474 0.0152732 -0.0115583)
(0.112714 0.0197687 -0.0154735)
(0.109804 0.0261743 -0.0204429)
(0.103325 0.0353302 -0.0267191)
(0.0946839 0.0485323 -0.0340648)
(0.0708163 0.0647751 -0.0401214)
(0.0401455 0.0660137 -0.0278127)
(0.0876625 0.0173141 0.000228045)
(0.0718896 0.0117777 0.000324282)
(0.0563273 0.00738547 0.000103023)
(0.047487 0.00363207 -0.000354113)
(0.0419246 0.00167042 -0.00100793)
(0.0387358 0.000712467 -0.00182915)
(0.0365323 0.000319967 -0.00283936)
(0.0347345 0.000164306 -0.00407634)
(0.0328142 0.0001011 -0.00560946)
(0.0306618 4.36613e-05 -0.00750054)
(0.027816 -3.5982e-05 -0.00989517)
(0.024512 -0.000222632 -0.0127769)
(0.0197814 -0.000475583 -0.0164679)
(0.0144516 -0.00110098 -0.0199773)
(0.00707134 -0.00159838 -0.0228904)
(-0.00062685 -0.00319781 -0.0152494)
(0.103915 0.0179995 0.000297011)
(0.103217 0.0176541 0.000413856)
(0.0995123 0.014299 8.25064e-05)
(0.0950576 0.00967101 -0.00064372)
(0.0907452 0.00618443 -0.00173099)
(0.0871414 0.00393455 -0.00314556)
(0.0838815 0.00274589 -0.00491623)
(0.0806817 0.00223415 -0.00710944)
(0.0770415 0.00212493 -0.00984196)
(0.0727448 0.00221765 -0.0132405)
(0.0671025 0.0024053 -0.0175353)
(0.0601358 0.00252471 -0.0227879)
(0.0503377 0.00255774 -0.0293841)
(0.0383608 0.00194151 -0.0359381)
(0.0214424 0.000881835 -0.04056)
(0.00377615 -0.00268171 -0.0260486)
(0.103924 0.0119522 0.000322332)
(0.107993 0.0161601 0.000443262)
(0.110367 0.0152794 8.33127e-05)
(0.110223 0.0120222 -0.000701104)
(0.108753 0.00891438 -0.00187932)
(0.106565 0.0066123 -0.00342492)
(0.103876 0.00529697 -0.00537277)
(0.100717 0.00477462 -0.00779901)
(0.0967918 0.00483709 -0.0108313)
(0.091925 0.00528896 -0.0146169)
(0.0853804 0.00601143 -0.019403)
(0.0770571 0.00680797 -0.0252918)
(0.0651764 0.00762435 -0.0326667)
(0.0502374 0.0076861 -0.0401071)
(0.0287229 0.00656842 -0.0452918)
(0.00576751 0.000890539 -0.0290145)
(0.102062 0.00770078 0.000342315)
(0.106246 0.0126176 0.000478755)
(0.1103 0.0133595 0.00012417)
(0.112222 0.0118274 -0.000655957)
(0.112608 0.00981176 -0.00182683)
(0.111764 0.00814549 -0.0033634)
(0.109984 0.00720834 -0.00530166)
(0.1074 0.00701422 -0.00771942)
(0.103827 0.00748946 -0.0107433)
(0.099148 0.00852511 -0.0145257)
(0.0926156 0.0100701 -0.0193111)
(0.084097 0.0119708 -0.0252256)
(0.0716091 0.0142138 -0.032642)
(0.0555826 0.0158436 -0.040202)
(0.0320136 0.0156744 -0.0455031)
(0.00621938 0.00739458 -0.0291275)
(0.101031 0.00505339 0.000369495)
(0.104295 0.00942249 0.000537555)
(0.108211 0.0109391 0.0002112)
(0.110805 0.0106562 -0.000538455)
(0.112177 0.00969906 -0.00166972)
(0.112314 0.00881955 -0.00315343)
(0.111399 0.00845063 -0.00502063)
(0.109541 0.00874001 -0.00734439)
(0.106594 0.00973102 -0.0102426)
(0.102487 0.011414 -0.0138645)
(0.0964671 0.0138247 -0.0184394)
(0.0884237 0.0168822 -0.024112)
(0.0761416 0.0206524 -0.0312289)
(0.0600258 0.0239845 -0.0385682)
(0.0351734 0.0250498 -0.0437426)
(0.00691221 0.0134774 -0.0279792)
(0.100572 0.00343018 0.000400542)
(0.103093 0.00688217 0.000610183)
(0.106554 0.00858163 0.000326108)
(0.109321 0.00904595 -0.000378557)
(0.111222 0.00892229 -0.00145515)
(0.112046 0.00879001 -0.00286753)
(0.11185 0.0090454 -0.00463808)
(0.110696 0.0099026 -0.00683129)
(0.108437 0.0114963 -0.0095519)
(0.105036 0.0139336 -0.0129418)
(0.0997301 0.0173842 -0.0172067)
(0.0924484 0.0219597 -0.0225095)
(0.0807176 0.027982 -0.0291539)
(0.0650025 0.0343928 -0.0361124)
(0.0391369 0.039103 -0.04104)
(0.00846103 0.0249305 -0.0263347)
(0.100403 0.00226723 0.000436165)
(0.102524 0.00478952 0.000694775)
(0.105682 0.00638875 0.000462927)
(0.108523 0.00726095 -0.000185943)
(0.110768 0.00774971 -0.00119624)
(0.112113 0.00825003 -0.00252284)
(0.112544 0.00908087 -0.00417583)
(0.112096 0.0104715 -0.00620638)
(0.11065 0.0126088 -0.00869931)
(0.108232 0.0156932 -0.0117792)
(0.104145 0.0199978 -0.0156112)
(0.098477 0.0258271 -0.0203599)
(0.0885997 0.0337076 -0.0262414)
(0.0753096 0.0427946 -0.0324816)
(0.0497241 0.0508846 -0.0367694)
(0.0175703 0.0339085 -0.0237196)
(0.10035 0.00129902 0.000474263)
(0.102332 0.00291094 0.000785911)
(0.105411 0.00425282 0.000611779)
(0.108371 0.00532703 2.49851e-05)
(0.110901 0.00626657 -0.000912784)
(0.112664 0.00728987 -0.00214651)
(0.113621 0.00862139 -0.00367271)
(0.113807 0.0104784 -0.00552734)
(0.113137 0.01308 -0.00777337)
(0.111698 0.0167268 -0.0105146)
(0.108872 0.0218241 -0.013872)
(0.104902 0.0290738 -0.0180046)
(0.0970891 0.0394998 -0.0230351)
(0.0868282 0.0542018 -0.0284731)
(0.0625315 0.072509 -0.0321309)
(0.0328946 0.0720644 -0.0215106)
(0.0876445 0.0173165 0.000120321)
(0.0717822 0.0117868 0.000138786)
(0.056071 0.00739423 -7.42483e-05)
(0.0470802 0.00363726 -0.000462402)
(0.041362 0.00167408 -0.00100253)
(0.0380148 0.00071707 -0.00167928)
(0.0356358 0.000327434 -0.00251335)
(0.0336322 0.000175544 -0.00353048)
(0.0314736 0.00011776 -0.00477762)
(0.029031 6.8942e-05 -0.00627681)
(0.0258936 5.57102e-06 -0.00811146)
(0.0222411 -0.00014599 -0.0101837)
(0.0173721 -0.000335939 -0.0126476)
(0.0119017 -0.000812499 -0.0145912)
(0.00529324 -0.0011755 -0.0155042)
(-0.00106539 -0.00245729 -0.00930415)
(0.10389 0.0180121 0.00014853)
(0.103064 0.0176846 0.000144558)
(0.0991368 0.0143394 -0.000195224)
(0.0944212 0.00971377 -0.000832718)
(0.0898163 0.00623094 -0.00174805)
(0.0858994 0.00399091 -0.00292587)
(0.082292 0.00282051 -0.00439778)
(0.0786893 0.00233478 -0.00621537)
(0.0745769 0.0022613 -0.00846214)
(0.0697088 0.00240126 -0.0112037)
(0.0634451 0.00265652 -0.0145744)
(0.0557611 0.00287191 -0.0185029)
(0.0454997 0.00304675 -0.0231359)
(0.0331802 0.00264618 -0.0271517)
(0.0174642 0.00176414 -0.028764)
(0.00214738 -0.00165 -0.0168159)
(0.1039 0.0119748 0.000161866)
(0.107837 0.0162116 0.000148057)
(0.109977 0.0153545 -0.000226982)
(0.10955 0.0121129 -0.000921242)
(0.107753 0.00902099 -0.00191773)
(0.105211 0.00674248 -0.0032079)
(0.102126 0.00546435 -0.00482985)
(0.098509 0.00499479 -0.00684463)
(0.094046 0.00512995 -0.00934498)
(0.0885305 0.00567595 -0.012413)
(0.0812679 0.00652541 -0.0161924)
(0.0721212 0.0074802 -0.0206374)
(0.0596639 0.00850667 -0.0258744)
(0.0443049 0.0087977 -0.0305156)
(0.024063 0.00782671 -0.0323563)
(0.00376381 0.00193649 -0.0187815)
(0.102041 0.00772736 0.000177873)
(0.106093 0.0126801 0.000173112)
(0.109917 0.0134566 -0.000200142)
(0.111559 0.0119538 -0.000891803)
(0.111623 0.00996891 -0.0018822)
(0.110427 0.00834314 -0.00316446)
(0.108253 0.00746461 -0.00477801)
(0.105215 0.00735215 -0.00678562)
(0.101108 0.00793942 -0.00927936)
(0.0957857 0.00912025 -0.0123457)
(0.0885356 0.0108577 -0.0161252)
(0.0791945 0.0129885 -0.0205893)
(0.0661148 0.0155231 -0.025849)
(0.0496553 0.0174124 -0.0305516)
(0.0273319 0.0173835 -0.0323994)
(0.00422463 0.00852737 -0.0186786)
(0.10101 0.00508363 0.000202283)
(0.104147 0.00949468 0.000224077)
(0.107838 0.0110549 -0.000125119)
(0.110163 0.0108135 -0.000789979)
(0.111227 0.00990077 -0.00174568)
(0.111029 0.00907768 -0.00298228)
(0.109743 0.00878737 -0.00453511)
(0.107458 0.00918534 -0.00646322)
(0.104009 0.0103255 -0.00885161)
(0.0992987 0.0122031 -0.011785)
(0.0926028 0.0148724 -0.0153919)
(0.0837864 0.0182373 -0.01966)
(0.0709364 0.0223962 -0.0246789)
(0.0544073 0.0260496 -0.0291989)
(0.0307211 0.0272941 -0.0309371)
(0.00504386 0.0148541 -0.0177066)
(0.100553 0.00346322 0.000230511)
(0.102949 0.00696196 0.000288795)
(0.106193 0.0087119 -2.33646e-05)
(0.108703 0.00922704 -0.000648653)
(0.110315 0.00915936 -0.0015567)
(0.110827 0.00909753 -0.00273185)
(0.110288 0.00944966 -0.00420225)
(0.108743 0.0104404 -0.00602007)
(0.106026 0.0122189 -0.00825981)
(0.102077 0.014901 -0.0110015)
(0.0961528 0.0186822 -0.0143563)
(0.0881706 0.0236592 -0.0183295)
(0.0759118 0.0302029 -0.0229814)
(0.0598275 0.0370568 -0.0272148)
(0.035027 0.0420878 -0.0288047)
(0.00675835 0.0268077 -0.0164336)
(0.100384 0.00230295 0.000262591)
(0.102385 0.00487575 0.000364127)
(0.105336 0.00653027 9.78344e-05)
(0.107934 0.00745995 -0.000478684)
(0.10991 0.00801312 -0.00132939)
(0.110971 0.0085944 -0.00243111)
(0.111093 0.00953567 -0.00380203)
(0.1103 0.011079 -0.00548398)
(0.108453 0.0134286 -0.00753644)
(0.105564 0.016798 -0.0100289)
(0.100946 0.0214917 -0.0130454)
(0.0946932 0.0278038 -0.016603)
(0.0843653 0.0363237 -0.0207125)
(0.0708075 0.0459798 -0.0244855)
(0.0461373 0.0545524 -0.0257944)
(0.0161096 0.0363025 -0.0147639)
(0.100332 0.00133646 0.000296471)
(0.102199 0.00300104 0.00044474)
(0.105081 0.00440083 0.000229062)
(0.107814 0.0055362 -0.00029341)
(0.110096 0.00654513 -0.00108143)
(0.111604 0.00765582 -0.00210371)
(0.112289 0.00910625 -0.00336729)
(0.112179 0.0111282 -0.00490224)
(0.111171 0.0139604 -0.00675162)
(0.109345 0.0179214 -0.00897207)
(0.106086 0.0234533 -0.0116182)
(0.101662 0.031259 -0.0147158)
(0.0934971 0.0424381 -0.0182253)
(0.0831065 0.0578557 -0.0214947)
(0.059602 0.0768935 -0.0225801)
(0.0318316 0.0750648 -0.0134239)
(0.0876304 0.0173183 5.32991e-05)
(0.0716991 0.0117939 3.05311e-05)
(0.0558706 0.007401 -0.000156192)
(0.0467565 0.00364108 -0.000468536)
(0.0409075 0.00167642 -0.000893211)
(0.0374245 0.000719742 -0.00142343)
(0.0348946 0.00033174 -0.00207736)
(0.0327154 0.000181788 -0.00287294)
(0.0303562 0.000126459 -0.00384273)
(0.0276734 8.12928e-05 -0.00499252)
(0.0243005 2.51558e-05 -0.00637482)
(0.0203804 -0.000108801 -0.0078915)
(0.0154215 -0.000266837 -0.0096297)
(0.00992352 -0.000663967 -0.0109118)
(0.00397817 -0.000966962 -0.0112946)
(-0.00130382 -0.00210642 -0.00679436)
(0.10387 0.0180226 5.79933e-05)
(0.102945 0.0177099 -6.30858e-06)
(0.098842 0.0143732 -0.000314644)
(0.0939139 0.00974988 -0.000839753)
(0.0890658 0.0062703 -0.00156996)
(0.0848841 0.00403825 -0.00250024)
(0.0809818 0.00288253 -0.00366011)
(0.0770395 0.00241762 -0.00508896)
(0.0725358 0.0023725 -0.00684649)
(0.0672044 0.00254937 -0.00896715)
(0.0604547 0.00285645 -0.0115331)
(0.0522409 0.00314346 -0.0144497)
(0.0416902 0.00342144 -0.0177716)
(0.0292863 0.00316738 -0.0204815)
(0.0146614 0.00239189 -0.0211453)
(0.00128975 -0.00101221 -0.0122873)
(0.103881 0.0119943 6.37764e-05)
(0.107715 0.0162555 -1.63224e-05)
(0.10967 0.0154185 -0.000359573)
(0.109012 0.0121904 -0.000934692)
(0.106946 0.00911228 -0.00173251)
(0.104104 0.00685359 -0.0027537)
(0.100684 0.0056064 -0.0040337)
(0.0966807 0.00518059 -0.00562014)
(0.0917718 0.00537584 -0.00758016)
(0.0857297 0.00599923 -0.00996066)
(0.0779042 0.00695225 -0.0128492)
(0.0681473 0.00803446 -0.0161671)
(0.0553215 0.0092278 -0.0199462)
(0.0398404 0.00969387 -0.0231064)
(0.0207744 0.00882852 -0.0238721)
(0.00268919 0.00270025 -0.0137363)
(0.102024 0.00775063 7.5913e-05)
(0.105974 0.0127341 5.60697e-07)
(0.109617 0.0135401 -0.000342997)
(0.111031 0.0120625 -0.000916755)
(0.110828 0.0101038 -0.00170988)
(0.109334 0.00851219 -0.00272473)
(0.106828 0.00768264 -0.00399804)
(0.103405 0.00763815 -0.00557909)
(0.0988547 0.0083183 -0.00753468)
(0.093009 0.00961867 -0.00991554)
(0.0851943 0.0115132 -0.0128067)
(0.0752409 0.0138295 -0.0161427)
(0.0617771 0.0165959 -0.0199423)
(0.0451843 0.018687 -0.0231498)
(0.0240179 0.0187643 -0.0239099)
(0.00316174 0.00942996 -0.0136607)
(0.100994 0.00511018 9.61558e-05)
(0.104032 0.00955732 4.18301e-05)
(0.107547 0.0111548 -0.000282466)
(0.109653 0.0109487 -0.000834326)
(0.110462 0.0100738 -0.00159909)
(0.109982 0.0092983 -0.00257696)
(0.108379 0.0090739 -0.0038016)
(0.105733 0.0095625 -0.00531947)
(0.101866 0.0108267 -0.00719208)
(0.0966634 0.0128649 -0.00946945)
(0.0894336 0.0157458 -0.0122281)
(0.08004 0.0193594 -0.0154162)
(0.0668178 0.0238283 -0.019038)
(0.0501623 0.0277359 -0.0221157)
(0.0275667 0.0291231 -0.0228093)
(0.00406908 0.0160104 -0.0129461)
(0.100537 0.00349211 0.000119812)
(0.102838 0.00703103 9.53764e-05)
(0.105913 0.008824 -0.000198643)
(0.108214 0.00938239 -0.000718061)
(0.109585 0.00936221 -0.00144393)
(0.109834 0.0093598 -0.00237213)
(0.109004 0.00979308 -0.00353065)
(0.107126 0.0108953 -0.00496071)
(0.104026 0.0128272 -0.00671587)
(0.0996296 0.0157108 -0.00884326)
(0.0932168 0.019761 -0.0114071)
(0.0847113 0.0250604 -0.0143708)
(0.0721063 0.0320148 -0.01772)
(0.0559192 0.0392149 -0.0205915)
(0.0321223 0.044491 -0.0212023)
(0.00590174 0.0283922 -0.0120014)
(0.10037 0.00233392 0.000146569)
(0.102279 0.00494998 0.000157743)
(0.105068 0.00665164 -9.87215e-05)
(0.10747 0.00763013 -0.000578275)
(0.109222 0.00823788 -0.00125759)
(0.110042 0.00888748 -0.00212671)
(0.109901 0.00992154 -0.00320587)
(0.108814 0.0115925 -0.00452858)
(0.10663 0.0141186 -0.00613736)
(0.103354 0.0177228 -0.00807282)
(0.0983131 0.022734 -0.0103809)
(0.0916199 0.0294352 -0.0130377)
(0.0809951 0.03846 -0.0159999)
(0.0673896 0.0485656 -0.0185597)
(0.0435981 0.0575115 -0.0190342)
(0.015409 0.0383591 -0.010832)
(0.100318 0.00136861 0.000174623)
(0.102097 0.00307812 0.000224236)
(0.104826 0.00452719 9.23846e-06)
(0.107376 0.00571441 -0.000426196)
(0.109454 0.00678211 -0.00105471)
(0.110744 0.0079666 -0.0018599)
(0.111198 0.00951703 -0.00285334)
(0.110834 0.011677 -0.00405968)
(0.10954 0.0147009 -0.00550933)
(0.107394 0.0189209 -0.00723455)
(0.103789 0.0248069 -0.00926136)
(0.0990247 0.0330597 -0.0115761)
(0.090635 0.0448319 -0.0141072)
(0.0802807 0.0608156 -0.0163208)
(0.0575429 0.0804231 -0.0167042)
(0.0313976 0.077731 -0.00986687)
(0.0876203 0.0173198 1.72478e-05)
(0.0716392 0.0117994 -1.84511e-05)
(0.0557249 0.00740622 -0.000163029)
(0.0465193 0.00364426 -0.000391577)
(0.0405733 0.00167866 -0.000696406)
(0.0369909 0.000722569 -0.0010748)
(0.0343547 0.000336432 -0.00153984)
(0.0320583 0.00018908 -0.00210178)
(0.0295765 0.000137526 -0.00277919)
(0.0267611 9.82869e-05 -0.0035667)
(0.0232845 5.26193e-05 -0.00448887)
(0.0192729 -6.09215e-05 -0.00545979)
(0.01436 -0.000184607 -0.00651351)
(0.00897553 -0.000515359 -0.00719718)
(0.00342254 -0.00075857 -0.00717279)
(-0.00128269 -0.0018331 -0.00414307)
(0.103855 0.0180309 1.15873e-05)
(0.102859 0.0177297 -6.64276e-05)
(0.0986265 0.0143995 -0.000310222)
(0.09354 0.00977844 -0.000700907)
(0.0885099 0.00630168 -0.00123132)
(0.0841312 0.00407618 -0.00190061)
(0.0800147 0.00293237 -0.00273115)
(0.0758348 0.00248456 -0.0037487)
(0.071073 0.00246312 -0.00498971)
(0.0654581 0.00267155 -0.00646531)
(0.0584464 0.00302363 -0.0082141)
(0.0499933 0.00337357 -0.0101415)
(0.0394064 0.00374248 -0.0122422)
(0.0271582 0.00361178 -0.0138132)
(0.0132655 0.00293752 -0.0138182)
(0.00105146 -0.000500298 -0.00775052)
(0.103868 0.0120097 1.32976e-05)
(0.107626 0.01629 -8.03402e-05)
(0.109446 0.0154686 -0.000353139)
(0.108616 0.0122515 -0.000782748)
(0.106348 0.0091843 -0.001364)
(0.103282 0.00694115 -0.00210027)
(0.099616 0.00571808 -0.00301858)
(0.0953402 0.00532643 -0.004151)
(0.0901325 0.00556876 -0.00553936)
(0.0837613 0.00625321 -0.00720327)
(0.0756215 0.00728856 -0.00918383)
(0.0655755 0.00847372 -0.0113951)
(0.0526727 0.00980353 -0.0138109)
(0.037347 0.0104162 -0.0156763)
(0.0190965 0.00965323 -0.0157042)
(0.00235957 0.00332679 -0.00871095)
(0.102011 0.00776916 2.17643e-05)
(0.105888 0.0127768 -6.971e-05)
(0.109397 0.0136059 -0.000343681)
(0.110642 0.0121481 -0.000772708)
(0.110239 0.0102099 -0.00135071)
(0.108523 0.00864462 -0.00208245)
(0.105772 0.00785261 -0.00299605)
(0.102079 0.00785995 -0.00412492)
(0.0972311 0.00861064 -0.00551078)
(0.0910586 0.0100015 -0.00717609)
(0.0829292 0.0120145 -0.00916004)
(0.0726877 0.0144708 -0.0113856)
(0.059141 0.0174123 -0.0138162)
(0.0427045 0.01966 -0.0157108)
(0.022346 0.0198283 -0.0157229)
(0.00285994 0.01014 -0.00864253)
(0.100983 0.00513135 3.68563e-05)
(0.103949 0.00960691 -3.94373e-05)
(0.107335 0.0112335 -0.000299397)
(0.109278 0.011055 -0.000712247)
(0.109896 0.0102094 -0.00126932)
(0.109205 0.00947031 -0.00197398)
(0.107371 0.00929591 -0.00285224)
(0.10447 0.00985267 -0.00393561)
(0.100324 0.0112092 -0.00526218)
(0.0948171 0.0133658 -0.00685429)
(0.0872942 0.0164006 -0.00874559)
(0.0776365 0.020193 -0.0108689)
(0.0643401 0.0248811 -0.0131787)
(0.0478461 0.0289686 -0.0149864)
(0.0260129 0.0304542 -0.0149592)
(0.0038342 0.0168633 -0.00815163)
(0.100527 0.00351506 5.46248e-05)
(0.102758 0.0070856 4.57606e-07)
(0.105709 0.00891221 -0.00023711)
(0.107855 0.0095042 -0.000625945)
(0.109046 0.00952056 -0.00115435)
(0.109098 0.00956335 -0.00182269)
(0.108055 0.0100577 -0.00265296)
(0.105944 0.0112427 -0.00367305)
(0.10259 0.0132868 -0.00491567)
(0.0979196 0.0163151 -0.00640163)
(0.0912438 0.0205543 -0.00815683)
(0.0825088 0.0260738 -0.0101254)
(0.0698447 0.0332986 -0.0122515)
(0.0538298 0.0407175 -0.0139242)
(0.0307359 0.0461259 -0.0138589)
(0.00574683 0.0294636 -0.00751729)
(0.100359 0.00235837 7.46693e-05)
(0.102203 0.0050084 4.69705e-05)
(0.104874 0.00674681 -0.00016278)
(0.107129 0.00776312 -0.000522196)
(0.108714 0.00841272 -0.00101644)
(0.109355 0.00911407 -0.00164179)
(0.109022 0.0102175 -0.00241481)
(0.107727 0.0119824 -0.0033582)
(0.105321 0.0146361 -0.00449745)
(0.101809 0.0184061 -0.00584992)
(0.0965455 0.0236348 -0.00743069)
(0.0896692 0.0305927 -0.00919506)
(0.0790066 0.0399351 -0.011073)
(0.0655898 0.0503062 -0.0125575)
(0.0424227 0.0594342 -0.0124501)
(0.0153431 0.0396782 -0.00679504)
(0.100308 0.00139382 9.55931e-05)
(0.102025 0.00313849 9.64547e-05)
(0.104642 0.00462591 -8.25855e-05)
(0.107056 0.00585319 -0.000409471)
(0.10898 0.00696585 -0.000866492)
(0.110109 0.00820604 -0.00144536)
(0.110392 0.00983087 -0.00215657)
(0.109849 0.0120917 -0.00301688)
(0.108367 0.0152527 -0.00404387)
(0.106029 0.0196524 -0.00525035)
(0.102247 0.0257753 -0.00663986)
(0.0973537 0.0343129 -0.0081775)
(0.0889584 0.0464398 -0.00978106)
(0.0788203 0.062733 -0.0110598)
(0.0566362 0.0825894 -0.010953)
(0.0314663 0.0793582 -0.00622099)
(0.0876135 0.0173207 2.20337e-06)
(0.0715995 0.011803 -2.77606e-05)
(0.0556281 0.00740957 -0.000118541)
(0.0463606 0.00364622 -0.000258613)
(0.0403482 0.00167985 -0.00044254)
(0.0366972 0.000723962 -0.000670362)
(0.0339876 0.000338765 -0.000949974)
(0.0316103 0.000192663 -0.00128715)
(0.0290442 0.000142831 -0.00169211)
(0.0261391 0.000106247 -0.00215957)
(0.0225931 6.54514e-05 -0.0027018)
(0.0185248 -3.80089e-05 -0.00326522)
(0.0136465 -0.000144396 -0.00386468)
(0.00835224 -0.000441188 -0.0042422)
(0.00306584 -0.000657301 -0.00418802)
(-0.00127534 -0.00170182 -0.00242814)
(0.103846 0.0180365 -5.24912e-06)
(0.102801 0.0177431 -6.48564e-05)
(0.098483 0.0144174 -0.000220723)
(0.0932898 0.0097979 -0.000462079)
(0.0881357 0.00632304 -0.000784632)
(0.083622 0.00410189 -0.00118942)
(0.0793582 0.00296598 -0.00169055)
(0.0750156 0.00252947 -0.00230335)
(0.0700785 0.00252358 -0.00304847)
(0.064274 0.00275252 -0.0039294)
(0.0570913 0.00313353 -0.0049649)
(0.0484913 0.00352325 -0.00609306)
(0.037898 0.00394875 -0.00730079)
(0.0257874 0.00389144 -0.0081783)
(0.0123965 0.00327198 -0.00810037)
(0.000915875 -0.000206027 -0.00453838)
(0.103859 0.0120203 -4.95763e-06)
(0.107568 0.0163136 -7.58637e-05)
(0.109297 0.0155031 -0.000251021)
(0.108351 0.0122936 -0.000516872)
(0.105945 0.00923384 -0.00087104)
(0.102726 0.00700132 -0.00131683)
(0.0988912 0.00579466 -0.00187148)
(0.0944285 0.00542618 -0.0025542)
(0.0890175 0.00570038 -0.00338896)
(0.0824257 0.006426 -0.00438427)
(0.0740798 0.00751651 -0.00556006)
(0.0638547 0.00876998 -0.00685885)
(0.0509209 0.0101893 -0.00825401)
(0.0357377 0.0108949 -0.00930245)
(0.0180488 0.0101925 -0.00922703)
(0.00217034 0.00372085 -0.00510556)
(0.102003 0.00778202 -5.45466e-08)
(0.105831 0.0128063 -6.9994e-05)
(0.109251 0.0136513 -0.000246297)
(0.110382 0.0122072 -0.000511925)
(0.109843 0.0102831 -0.000864207)
(0.107975 0.00873586 -0.00130725)
(0.105056 0.00796948 -0.0018591)
(0.101177 0.00801212 -0.00253977)
(0.0961262 0.00881072 -0.00337327)
(0.0897341 0.0102627 -0.00436987)
(0.0813977 0.0123553 -0.00554846)
(0.0709768 0.0149052 -0.00685675)
(0.0573941 0.0179622 -0.00826216)
(0.0411002 0.0203113 -0.00932901)
(0.0212992 0.0205345 -0.00924409)
(0.00268643 0.0106044 -0.00506909)
(0.100975 0.00514608 9.26479e-06)
(0.103895 0.00964127 -5.15278e-05)
(0.107194 0.011288 -0.000219345)
(0.109027 0.0111284 -0.000475047)
(0.109515 0.010303 -0.000814498)
(0.108679 0.00958891 -0.001241)
(0.106687 0.00944873 -0.00177137)
(0.10361 0.010052 -0.00242451)
(0.0992739 0.0114715 -0.00322236)
(0.0935623 0.0137083 -0.0041752)
(0.085846 0.0168469 -0.00529894)
(0.0760236 0.0207591 -0.00654728)
(0.0626954 0.0255925 -0.00788304)
(0.046345 0.0297985 -0.00890092)
(0.025039 0.0313456 -0.00879789)
(0.00370132 0.0174356 -0.00478677)
(0.100519 0.00353103 2.0266e-05)
(0.102705 0.00712343 -2.69372e-05)
(0.105573 0.00897322 -0.00018098)
(0.107615 0.00958835 -0.000421928)
(0.108684 0.00962986 -0.000743803)
(0.108602 0.00970366 -0.00114812)
(0.107411 0.0102397 -0.00164931)
(0.105139 0.0114813 -0.00226412)
(0.101612 0.0136018 -0.00301132)
(0.096757 0.0167282 -0.0039004)
(0.0899077 0.0210945 -0.00494298)
(0.0810298 0.0267611 -0.00609947)
(0.0683425 0.0341642 -0.00732774)
(0.0524757 0.0417267 -0.00826716)
(0.0298683 0.047218 -0.00814701)
(0.00566479 0.0301869 -0.00441366)