/*--------------------------------*- C++ -*----------------------------------*\
| =========                 |                                                 |
| \\      /  F ield         | OpenFOAM: The Open Source CFD Toolbox           |
|  \\    /   O peration     | Version:  v1912                                 |
|   \\  /    A nd           | Website:  www.openfoam.com                      |
|    \\/     M anipulation  |                                                 |
\*---------------------------------------------------------------------------*/
FoamFile
{
    version     2.0;
    format      ascii;
    class       volVectorField;
    location    "0.99/solid";
    object      D;
}
// * * * * * * * * * * * * * * * * * * * * * * * * * * * * * * * * * * * * * //

dimensions      [0 1 0 0 0 0 0];


internalField   nonuniform List<vector> 
256
(
(3.23559e-08 4.44517e-08 3.62391e-08)
(4.70371e-09 2.63337e-08 3.33414e-08)
(-4.95573e-09 2.5832e-08 3.30409e-08)
(-3.12624e-08 4.24835e-08 3.54115e-08)
(5.41852e-08 3.54034e-08 7.27183e-08)
(1.15186e-08 2.37891e-08 6.87915e-08)
(-1.11865e-08 2.32059e-08 6.8304e-08)
(-5.20083e-08 3.35607e-08 7.13279e-08)
(5.77337e-08 1.61898e-08 9.43184e-08)
(1.31506e-08 1.14766e-08 8.99343e-08)
(-1.20568e-08 1.09627e-08 8.9383e-08)
(-5.47851e-08 1.46911e-08 9.27152e-08)
(5.70425e-08 -2.18764e-09 1.1149e-07)
(1.27819e-08 -4.62073e-09 1.06457e-07)
(-1.10251e-08 -5.04121e-09 1.05862e-07)
(-5.3423e-08 -3.39726e-09 1.09741e-07)
(5.77462e-08 -2.04391e-08 1.28372e-07)
(1.28328e-08 -2.3595e-08 1.22593e-07)
(-1.05482e-08 -2.39259e-08 1.21948e-07)
(-5.35691e-08 -2.13864e-08 1.26472e-07)
(6.2961e-08 -4.13513e-08 1.47195e-07)
(1.46638e-08 -4.5983e-08 1.40758e-07)
(-1.20124e-08 -4.62245e-08 1.40056e-07)
(-5.83882e-08 -4.20278e-08 1.45121e-07)
(7.53334e-08 -7.28956e-08 1.6898e-07)
(1.8968e-08 -7.62239e-08 1.62629e-07)
(-1.61932e-08 -7.63331e-08 1.61858e-07)
(-7.05849e-08 -7.31815e-08 1.66705e-07)
(9.2023e-08 -1.38911e-07 1.89421e-07)
(2.35401e-08 -1.34439e-07 1.84499e-07)
(-2.10763e-08 -1.34084e-07 1.83656e-07)
(-8.73964e-08 -1.37903e-07 1.86953e-07)
(2.24377e-08 1.97721e-08 8.77686e-09)
(2.5857e-09 4.83757e-09 1.03785e-08)
(-2.59612e-09 4.55246e-09 1.03522e-08)
(-2.11942e-08 1.83391e-08 8.69466e-09)
(3.80686e-08 1.21838e-08 3.20359e-08)
(7.43559e-09 2.44936e-09 3.51634e-08)
(-6.57755e-09 1.99888e-09 3.50401e-08)
(-3.55428e-08 1.06447e-08 3.16748e-08)
(4.0245e-08 -1.84004e-09 5.19453e-08)
(8.60595e-09 -5.88795e-09 5.55305e-08)
(-6.8148e-09 -6.34236e-09 5.5348e-08)
(-3.68141e-08 -3.21763e-09 5.14055e-08)
(3.91847e-08 -1.71892e-08 6.85018e-08)
(8.2169e-09 -1.94026e-08 7.20464e-08)
(-5.63766e-09 -1.97959e-08 7.18246e-08)
(-3.49742e-08 -1.8356e-08 6.7836e-08)
(3.96009e-08 -3.36554e-08 8.39899e-08)
(8.27571e-09 -3.67688e-08 8.73039e-08)
(-5.06045e-09 -3.70858e-08 8.70417e-08)
(-3.47263e-08 -3.4593e-08 8.31954e-08)
(4.46852e-08 -5.21456e-08 9.97753e-08)
(1.01362e-08 -5.68932e-08 1.02821e-07)
(-6.44992e-09 -5.71307e-08 1.02511e-07)
(-3.9301e-08 -5.28386e-08 9.88313e-08)
(5.76065e-08 -7.77198e-08 1.14845e-07)
(1.46107e-08 -8.10246e-08 1.17755e-07)
(-1.06962e-08 -8.11512e-08 1.17394e-07)
(-5.19211e-08 -7.80748e-08 1.13744e-07)
(7.58131e-08 -1.31772e-07 1.23395e-07)
(1.94309e-08 -1.2588e-07 1.26327e-07)
(-1.57236e-08 -1.25586e-07 1.25941e-07)
(-7.01172e-08 -1.30927e-07 1.22206e-07)
(1.52898e-08 1.18476e-08 4.28061e-09)
(6.75938e-10 -5.26671e-10 6.49516e-09)
(-6.25852e-10 -7.67078e-10 6.48532e-09)
(-1.40295e-08 1.05191e-08 4.253e-09)
(2.59815e-08 3.64589e-10 1.98816e-08)
(3.59104e-09 -7.61959e-09 2.40862e-08)
(-2.55341e-09 -8.02545e-09 2.40245e-08)
(-2.334e-08 -1.09152e-09 1.97111e-08)
(2.71609e-08 -1.3586e-08 3.67902e-08)
(4.28845e-09 -1.70119e-08 4.16064e-08)
(-2.19812e-09 -1.7445e-08 4.14971e-08)
(-2.35058e-08 -1.49421e-08 3.64811e-08)
(2.60238e-08 -2.73474e-08 5.23142e-08)
(3.89629e-09 -2.94639e-08 5.72074e-08)
(-9.06916e-10 -2.98573e-08 5.70593e-08)
(-2.14853e-08 -2.85452e-08 5.18856e-08)
(2.64386e-08 -4.13356e-08 6.64553e-08)
(3.99105e-09 -4.45421e-08 7.12532e-08)
(-2.6467e-10 -4.48744e-08 7.10674e-08)
(-2.11344e-08 -4.23421e-08 6.59078e-08)
(3.16466e-08 -5.60287e-08 7.92362e-08)
(5.90536e-09 -6.09478e-08 8.38805e-08)
(-1.61408e-09 -6.1214e-08 8.3655e-08)
(-2.57284e-08 -5.68249e-08 7.85625e-08)
(4.50075e-08 -7.59841e-08 8.89604e-08)
(1.05224e-08 -7.94245e-08 9.34285e-08)
(-5.91305e-09 -7.95959e-08 9.31693e-08)
(-3.8678e-08 -7.64811e-08 8.81734e-08)
(6.37853e-08 -1.2326e-07 9.18168e-08)
(1.55119e-08 -1.17289e-07 9.61559e-08)
(-1.10179e-08 -1.17053e-07 9.58919e-08)
(-5.73298e-08 -1.22585e-07 9.09942e-08)
(1.19736e-08 9.23765e-09 3.72833e-09)
(-1.64508e-10 -1.58906e-09 5.19104e-09)
(2.29429e-10 -1.82705e-09 5.1799e-09)
(-1.07266e-08 7.91972e-09 3.70348e-09)
(2.02361e-08 -4.39801e-09 1.53655e-08)
(1.77227e-09 -1.1299e-08 1.8154e-08)
(-6.77763e-10 -1.17043e-08 1.81111e-08)
(-1.75725e-08 -5.8659e-09 1.52578e-08)
(2.10592e-08 -1.93585e-08 2.8816e-08)
(2.25944e-09 -2.24131e-08 3.19948e-08)
(-4.33559e-11 -2.28522e-08 3.19185e-08)
(-1.73127e-08 -2.07507e-08 2.86129e-08)
(2.01481e-08 -3.26424e-08 4.19751e-08)
(1.95801e-09 -3.47506e-08 4.51655e-08)
(1.24004e-09 -3.51601e-08 4.50569e-08)
(-1.54358e-08 -3.3904e-08 4.16744e-08)
(2.08375e-08 -4.4814e-08 5.38531e-08)
(2.17347e-09 -4.8134e-08 5.69394e-08)
(1.84642e-09 -4.84927e-08 5.67987e-08)
(-1.52727e-08 -4.59113e-08 5.34523e-08)
(2.62901e-08 -5.671e-08 6.36604e-08)
(4.17786e-09 -6.17804e-08 6.66199e-08)
(4.88703e-10 -6.20825e-08 6.64479e-08)
(-2.00224e-08 -5.76215e-08 6.31593e-08)
(3.97808e-08 -7.35265e-08 6.99758e-08)
(8.83417e-09 -7.72249e-08 7.2821e-08)
(-3.7713e-09 -7.74393e-08 7.26259e-08)
(-3.301e-08 -7.41565e-08 6.9393e-08)
(5.84663e-08 -1.17776e-07 7.10446e-08)
(1.38397e-08 -1.12422e-07 7.38929e-08)
(-8.81339e-09 -1.12231e-07 7.36988e-08)
(-5.14758e-08 -1.17237e-07 7.04449e-08)
(1.07206e-08 8.19226e-09 3.32433e-09)
(-3.79185e-10 -1.85286e-09 4.06759e-09)
(4.47834e-10 -2.09276e-09 4.05813e-09)
(-9.4875e-09 6.87637e-09 3.30464e-09)
(1.81377e-08 -6.07428e-09 1.21764e-08)
(1.25777e-09 -1.24536e-08 1.35763e-08)
(-1.44853e-10 -1.28677e-08 1.35461e-08)
(-1.54793e-08 -7.56896e-09 1.21052e-08)
(1.89924e-08 -2.15184e-08 2.22954e-08)
(1.73264e-09 -2.4433e-08 2.38563e-08)
(5.39255e-10 -2.48864e-08 2.38038e-08)
(-1.52125e-08 -2.29588e-08 2.21622e-08)
(1.83928e-08 -3.4645e-08 3.2426e-08)
(1.55656e-09 -3.68082e-08 3.39379e-08)
(1.75313e-09 -3.72379e-08 3.38618e-08)
(-1.35902e-08 -3.59733e-08 3.22221e-08)
(1.93978e-08 -4.58556e-08 4.15262e-08)
(1.90472e-09 -4.92805e-08 4.2932e-08)
(2.29124e-09 -4.96654e-08 4.28313e-08)
(-1.36767e-08 -4.70366e-08 4.12465e-08)
(2.50474e-08 -5.63419e-08 4.86741e-08)
(3.98559e-09 -6.15187e-08 4.99859e-08)
(9.23069e-10 -6.18521e-08 4.98619e-08)
(-1.85528e-08 -5.7351e-08 4.83194e-08)
(3.8489e-08 -7.18523e-08 5.29135e-08)
(8.62347e-09 -7.57597e-08 5.4178e-08)
(-3.25404e-09 -7.6008e-08 5.40379e-08)
(-3.1419e-08 -7.25866e-08 5.25001e-08)
(5.69146e-08 -1.1472e-07 5.35713e-08)
(1.359e-08 -1.09947e-07 5.49018e-08)
(-8.19356e-09 -1.0979e-07 5.47634e-08)
(-4.95524e-08 -1.14282e-07 5.31478e-08)
(1.02728e-08 7.72324e-09 2.60513e-09)
(-3.85694e-10 -1.95325e-09 2.93894e-09)
(4.54625e-10 -2.19438e-09 2.9324e-09)
(-9.04974e-09 6.40953e-09 2.59179e-09)
(1.74913e-08 -6.55834e-09 8.92559e-09)
(1.21942e-09 -1.27267e-08 9.5315e-09)
(-1.01365e-10 -1.31485e-08 9.51174e-09)
(-1.4842e-08 -8.07335e-09 8.88051e-09)
(1.84998e-08 -2.20113e-08 1.5955e-08)
(1.75279e-09 -2.49086e-08 1.65976e-08)
(5.4417e-10 -2.53749e-08 1.65638e-08)
(-1.47086e-08 -2.3491e-08 1.58714e-08)
(1.81623e-08 -3.5002e-08 2.29953e-08)
(1.68418e-09 -3.72378e-08 2.35751e-08)
(1.68551e-09 -3.76847e-08 2.35255e-08)
(-1.33126e-08 -3.6384e-08 2.28654e-08)
(1.94048e-08 -4.58083e-08 2.92906e-08)
(2.132e-09 -4.93136e-08 2.97878e-08)
(2.16849e-09 -4.97193e-08 2.97214e-08)
(-1.35906e-08 -4.70542e-08 2.91091e-08)
(2.51709e-08 -5.57844e-08 3.41325e-08)
(4.26112e-09 -6.10222e-08 3.4572e-08)
(8.00566e-10 -6.1379e-08 3.44897e-08)
(-1.85322e-08 -5.68659e-08 3.38996e-08)
(3.8522e-08 -7.08847e-08 3.69396e-08)
(8.86998e-09 -7.49069e-08 3.73694e-08)
(-3.29884e-09 -7.51794e-08 3.72762e-08)
(-3.12548e-08 -7.16937e-08 3.66669e-08)
(5.67181e-08 -1.13064e-07 3.74602e-08)
(1.37957e-08 -1.08645e-07 3.79538e-08)
(-8.15022e-09 -1.08511e-07 3.7862e-08)
(-4.91063e-08 -1.12697e-07 3.71809e-08)
(1.00985e-08 7.51695e-09 1.64743e-09)
(-3.59739e-10 -1.98793e-09 1.78501e-09)
(4.27992e-10 -2.22972e-09 1.78129e-09)
(-8.88164e-09 6.20486e-09 1.63991e-09)
(1.72946e-08 -6.6276e-09 5.45188e-09)
(1.2697e-09 -1.27201e-08 5.68845e-09)
(-1.51034e-10 -1.31466e-08 5.6774e-09)
(-1.46522e-08 -8.15486e-09 5.42701e-09)
(1.84349e-08 -2.19348e-08 9.58842e-09)
(1.85796e-09 -2.48522e-08 9.82123e-09)
(4.49823e-10 -2.53272e-08 9.80238e-09)
(-1.46401e-08 -2.34399e-08 9.5425e-09)
(1.82677e-08 -3.48009e-08 1.37044e-08)
(1.85965e-09 -3.70945e-08 1.38916e-08)
(1.54091e-09 -3.75531e-08 1.38639e-08)
(-1.33938e-08 -3.62184e-08 1.36325e-08)
(1.96528e-08 -4.54669e-08 1.73703e-08)
(2.36744e-09 -4.9023e-08 1.75083e-08)
(1.99131e-09 -4.94427e-08 1.74709e-08)
(-1.37862e-08 -4.67556e-08 1.72688e-08)
(2.54778e-08 -5.53287e-08 2.0172e-08)
(4.52258e-09 -6.05955e-08 2.0281e-08)
(6.28662e-10 -6.09676e-08 2.02343e-08)
(-1.87539e-08 -5.64573e-08 2.00407e-08)
(3.87578e-08 -7.03537e-08 2.17996e-08)
(9.11054e-09 -7.44239e-08 2.19114e-08)
(-3.41771e-09 -7.47119e-08 2.18585e-08)
(-3.1371e-08 -7.12104e-08 2.16452e-08)
(5.68008e-08 -1.12188e-07 2.21526e-08)
(1.4008e-08 -1.0794e-07 2.23043e-08)
(-8.20984e-09 -1.07821e-07 2.22521e-08)
(-4.90355e-08 -1.11866e-07 2.19943e-08)
(1.00308e-08 7.44051e-09 5.62219e-10)
(-3.4483e-10 -1.99453e-09 5.99675e-10)
(4.12531e-10 -2.23661e-09 5.98479e-10)
(-8.81692e-09 6.12922e-09 5.59805e-10)
(1.72293e-08 -6.60246e-09 1.8329e-09)
(1.30125e-09 -1.2671e-08 1.8947e-09)
(-1.82955e-10 -1.30997e-08 1.89116e-09)
(-1.45905e-08 -8.13536e-09 1.82497e-09)
(1.84367e-08 -2.18008e-08 3.1981e-09)
(1.91787e-09 -2.47349e-08 3.25523e-09)
(3.93896e-10 -2.5214e-08 3.24919e-09)
(-1.4641e-08 -2.33181e-08 3.18347e-09)
(1.83498e-08 -3.45939e-08 4.54983e-09)
(1.95273e-09 -3.69178e-08 4.59094e-09)
(1.46091e-09 -3.73822e-08 4.58204e-09)
(-1.34656e-08 -3.60289e-08 4.52688e-09)
(1.97993e-08 -4.5221e-08 5.75105e-09)
(2.48768e-09 -4.88011e-08 5.77614e-09)
(1.8971e-09 -4.92277e-08 5.76408e-09)
(-1.39091e-08 -4.65308e-08 5.71847e-09)
(2.56484e-08 -5.50805e-08 6.66809e-09)
(4.65403e-09 -6.0358e-08 6.68455e-09)
(5.38473e-10 -6.07376e-08 6.66945e-09)
(-1.88849e-08 -5.62322e-08 6.62576e-09)
(3.88923e-08 -7.01123e-08 7.20366e-09)
(9.23204e-09 -7.41978e-08 7.22228e-09)
(-3.48207e-09 -7.44932e-08 7.20513e-09)
(-3.1449e-08 -7.09922e-08 7.15375e-09)
(5.68607e-08 -1.11803e-07 7.329e-09)
(1.41156e-08 -1.07621e-07 7.36078e-09)
(-8.24503e-09 -1.07509e-07 7.34388e-09)
(-4.90223e-08 -1.11503e-07 7.2778e-09)
)
;

boundaryField
{
    interface
    {
        type            solidTraction;
        traction        nonuniform List<vector> 
192
(
(37.4921 -0.347609 -2.58744)
(39.08 -0.399024 -4.213)
(40.8415 -0.199409 -4.86814)
(42.1047 0.236805 -5.10023)
(42.6356 0.647128 -5.11083)
(43.718 1.36476 -5.02402)
(42.2448 1.92078 -4.67783)
(45.9624 4.44283 -4.41433)
(36.583 -0.255723 -1.26928)
(37.2666 -0.331282 -2.20494)
(38.3469 -0.166997 -2.50979)
(39.2009 0.271243 -2.56606)
(39.4218 0.697942 -2.49822)
(40.3501 1.48237 -2.38085)
(38.5692 2.09352 -2.15616)
(42.341 4.73252 -1.98233)
(39.0694 -0.223183 -0.991253)
(39.6643 -0.297766 -1.69673)
(40.7233 -0.142992 -1.92056)
(41.5899 0.310113 -1.95617)
(41.7439 0.768868 -1.89769)
(42.6056 1.63208 -1.80221)
(40.4002 2.32579 -1.64361)
(43.9252 5.13124 -1.51481)
(39.3102 -0.171696 -0.597721)
(39.7279 -0.221617 -1.08128)
(40.5675 -0.0637244 -1.22711)
(41.2957 0.389263 -1.23677)
(41.3148 0.859887 -1.18153)
(42.0861 1.75404 -1.10481)
(39.7219 2.48293 -1.00685)
(43.1553 5.32153 -0.934173)
(40.0788 -0.14693 -0.433483)
(40.4496 -0.17315 -0.78397)
(41.1896 -0.00422004 -0.891021)
(41.8569 0.45372 -0.89778)
(41.7941 0.93814 -0.857011)
(42.4872 1.85876 -0.800187)
(39.9561 2.61957 -0.733117)
(43.2335 5.49373 -0.682223)
(40.2935 -0.127331 -0.26141)
(40.6201 -0.133529 -0.489458)
(41.2732 0.0459676 -0.560176)
(41.8823 0.506776 -0.563175)
(41.7557 0.998469 -0.534747)
(42.397 1.93136 -0.496466)
(39.7861 2.70807 -0.456216)
(42.9967 5.59795 -0.427883)
(40.5488 -0.117796 -0.15246)
(40.8602 -0.110295 -0.285149)
(41.4675 0.0778056 -0.326814)
(42.0449 0.541721 -0.328809)
(41.879 1.03915 -0.312581)
(42.4828 1.98053 -0.290138)
(39.81 2.76839 -0.267796)
(42.9619 5.67058 -0.251015)
(40.6145 -0.112014 -0.0447016)
(40.9147 -0.0973408 -0.0868676)
(41.4965 0.0947496 -0.100342)
(42.0562 0.559477 -0.100841)
(41.8724 1.05907 -0.095569)
(42.4579 2.00326 -0.0882627)
(39.7663 2.79613 -0.08182)
(42.8882 5.70309 -0.0767092)
(3.5537 0.866834 12.6653)
(6.08645 1.11059 8.81692)
(7.25111 1.01381 4.72778)
(7.77056 0.797795 2.76658)
(8.00042 0.699452 2.02745)
(8.18438 0.741575 2.35829)
(8.40416 0.891458 3.98833)
(9.31175 1.09228 5.32487)
(2.05376 0.518226 16.181)
(3.95309 0.879035 15.3478)
(4.75751 0.863919 13.9132)
(5.08793 0.616187 13.2769)
(5.23927 0.427721 13.0071)
(5.42422 0.317333 13.1323)
(5.80529 0.334996 13.6349)
(6.97806 0.399405 13.8503)
(1.99764 0.387072 13.4357)
(3.88959 0.750459 12.822)
(4.71414 0.766201 11.4689)
(5.06112 0.490341 10.8298)
(5.20648 0.237268 10.5626)
(5.3696 0.0198214 10.6791)
(5.70871 -0.0961762 11.2451)
(6.8499 -0.125185 11.9148)
(2.10063 0.322236 13.5686)
(4.29493 0.678057 13.2385)
(5.32644 0.700243 12.0324)
(5.77491 0.397878 11.5063)
(5.9687 0.110334 11.3402)
(6.18394 -0.161833 11.4796)
(6.51075 -0.355914 11.9081)
(7.7338 -0.538275 12.4642)
(-6.72694 0.655276 0.485446)
(-4.60831 0.984496 1.0018)
(-2.081 0.878498 1.17863)
(-0.585082 0.441094 1.28579)
(0.129549 0.175758 1.38882)
(1.74506 -0.213407 1.65629)
(1.55153 -0.191544 1.89978)
(9.86584 -2.33294 2.51892)
(-10.1139 0.265669 -0.328233)
(-9.73811 0.472008 -0.391317)
(-8.91902 0.451991 -0.497728)
(-8.27083 0.211835 -0.522151)
(-7.97624 0.14883 -0.466239)
(-6.46811 -0.0631625 -0.255334)
(-6.39949 0.171781 0.0271554)
(1.58746 -1.75173 0.450811)
(-10.3682 0.154507 -0.226937)
(-10.1043 0.277829 -0.212647)
(-9.47375 0.292055 -0.205266)
(-8.82927 0.157163 -0.153299)
(-8.47151 0.21724 -0.0598314)
(-6.67328 0.112791 0.124167)
(-6.33979 0.4554 0.321725)
(2.00938 -1.50242 0.575033)
(-11.5326 0.0758788 -0.23561)
(-11.4609 0.138456 -0.22173)
(-11.1346 0.177508 -0.186808)
(-10.6006 0.133471 -0.125228)
(-10.2448 0.297072 -0.0425001)
(-8.27549 0.287738 0.0892787)
(-7.65881 0.698975 0.220576)
(0.782226 -1.22457 0.373483)
(-11.8126 0.0627503 -0.120931)
(-11.7331 0.103588 -0.0689326)
(-11.4485 0.158751 -0.00197487)
(-10.8803 0.163044 0.068124)
(-10.4613 0.380848 0.138069)
(-8.36432 0.414844 0.224056)
(-7.62378 0.84229 0.294058)
(0.844831 -1.10038 0.36641)
(-12.2022 0.05872 -0.0817847)
(-12.1257 0.093301 -0.0372025)
(-11.8696 0.16156 0.0209659)
(-11.2857 0.196045 0.0753886)
(-10.826 0.447222 0.12476)
(-8.65702 0.507996 0.177592)
(-7.8133 0.938743 0.217495)
(0.665784 -1.00785 0.255132)
(-12.3215 0.0624176 -0.0335175)
(-12.2306 0.0981533 0.000536755)
(-11.9655 0.174569 0.0406822)
(-11.3558 0.223316 0.0754521)
(-10.8639 0.489543 0.10481)
(-8.65655 0.561174 0.132432)
(-7.76376 0.98814 0.15152)
(0.710624 -0.964763 0.166389)
(-12.4189 0.0636164 -0.0139618)
(-12.3254 0.100679 -0.00340186)
(-12.0581 0.181426 0.0100292)
(-11.439 0.237021 0.0215473)
(-10.9314 0.51016 0.0313127)
(-8.70695 0.587257 0.0401586)
(-7.78324 1.01212 0.0467333)
(0.686197 -0.94193 0.0514302)
(9.39844 -4.61679 -0.911469)
(8.5376 -2.93215 -0.71122)
(8.39891 -0.557358 -0.49341)
(8.34674 0.84189 -0.3317)
(8.38098 1.93129 -0.235173)
(8.40205 2.6859 -0.147435)
(8.4267 3.16337 -0.0870958)
(8.43657 3.39154 -0.0268059)
(7.02489 -13.2858 -0.176229)
(5.8591 -12.9236 -0.102666)
(5.49536 -11.9807 0.0081121)
(5.34577 -11.3454 0.0391371)
(5.29983 -10.7873 0.0463514)
(5.27157 -10.3882 0.0407283)
(5.26368 -10.1258 0.0258757)
(5.2586 -9.98881 0.00988534)
(6.8971 -11.3886 0.373599)
(5.7433 -10.5677 0.361714)
(5.41053 -9.57135 0.349191)
(5.28424 -8.94379 0.285303)
(5.24866 -8.37954 0.226805)
(5.22655 -8.01422 0.159421)
(5.22107 -7.76143 0.0953862)
(5.21639 -7.64672 0.0313973)
(7.73749 -11.9984 0.79468)
(6.49906 -11.3417 0.634443)
(6.16977 -10.5995 0.539937)
(5.99808 -10.0913 0.423329)
(5.94553 -9.58777 0.330565)
(5.90705 -9.28171 0.228178)
(5.89453 -9.05702 0.137043)
(5.88623 -8.95663 0.0445798)
)
;
        pressure        uniform 0;
        secondOrder     false;
        setEffectiveTraction false;
        relaxationFactor 1;
        value           nonuniform List<vector> 
192
(
(9.19548e-08 6.60869e-08 3.34151e-08)
(1.1018e-07 4.17477e-08 6.7999e-08)
(1.14954e-07 1.69041e-08 8.92177e-08)
(1.16096e-07 -2.18446e-09 1.06374e-07)
(1.1895e-07 -1.89593e-08 1.23285e-07)
(1.26874e-07 -3.69543e-08 1.42173e-07)
(1.42887e-07 -6.56298e-08 1.64128e-07)
(1.66487e-07 -1.34091e-07 1.84836e-07)
(7.15959e-08 3.48986e-08 4.51015e-09)
(8.49362e-08 1.66356e-08 2.49847e-08)
(8.78133e-08 -1.56104e-09 4.43017e-08)
(8.80998e-08 -1.73501e-08 6.07467e-08)
(9.04127e-08 -3.22802e-08 7.61626e-08)
(9.82646e-08 -4.7644e-08 9.19464e-08)
(1.15566e-07 -6.99374e-08 1.07263e-07)
(1.43431e-07 -1.26683e-07 1.16336e-07)
(5.7991e-08 2.21654e-08 1.66443e-09)
(6.78539e-08 3.33231e-09 1.54232e-08)
(6.98338e-08 -1.35755e-08 3.19934e-08)
(6.997e-08 -2.75279e-08 4.75547e-08)
(7.22904e-08 -3.99297e-08 6.17642e-08)
(8.04572e-08 -5.13862e-08 7.46371e-08)
(9.86641e-08 -6.7949e-08 8.45037e-08)
(1.27865e-07 -1.17994e-07 8.74798e-08)
(5.08571e-08 1.729e-08 2.58591e-09)
(5.88427e-08 -2.12665e-09 1.34043e-08)
(6.05981e-08 -1.93805e-08 2.67736e-08)
(6.10002e-08 -3.26977e-08 4.00671e-08)
(6.36566e-08 -4.32784e-08 5.20927e-08)
(7.2204e-08 -5.19739e-08 6.20104e-08)
(9.07705e-08 -6.5482e-08 6.8346e-08)
(1.2002e-07 -1.12438e-07 6.93268e-08)
(4.73661e-08 1.54068e-08 2.89906e-09)
(5.4652e-08 -4.00635e-09 1.14901e-08)
(5.65133e-08 -2.14546e-08 2.16554e-08)
(5.72843e-08 -3.45436e-08 3.19294e-08)
(6.03205e-08 -4.41918e-08 4.11679e-08)
(6.9148e-08 -5.15688e-08 4.83942e-08)
(8.77573e-08 -6.3885e-08 5.25987e-08)
(1.16683e-07 -1.09372e-07 5.31341e-08)
(4.56209e-08 1.46643e-08 2.44958e-09)
(5.27429e-08 -4.50161e-09 8.71474e-09)
(5.47968e-08 -2.18435e-08 1.58155e-08)
(5.58762e-08 -3.47757e-08 2.29639e-08)
(5.91989e-08 -4.4056e-08 2.93543e-08)
(6.81896e-08 -5.10048e-08 3.424e-08)
(8.67352e-08 -6.29975e-08 3.70067e-08)
(1.15332e-07 -1.07733e-07 3.74317e-08)
(4.47309e-08 1.43652e-08 1.58692e-09)
(5.18393e-08 -4.54353e-09 5.38633e-09)
(5.40455e-08 -2.16915e-08 9.57259e-09)
(5.5325e-08 -3.44963e-08 1.37512e-08)
(5.88211e-08 -4.36642e-08 1.74689e-08)
(6.78942e-08 -5.05521e-08 2.02913e-08)
(8.63712e-08 -6.25225e-08 2.18922e-08)
(1.14738e-07 -1.06879e-07 2.21882e-08)
(4.43442e-08 1.42555e-08 5.45293e-10)
(5.14577e-08 -4.50102e-09 1.81658e-09)
(5.37399e-08 -2.15207e-08 3.19853e-09)
(5.51139e-08 -3.42532e-08 4.57034e-09)
(5.86889e-08 -4.33962e-08 5.78768e-09)
(6.77954e-08 -5.03069e-08 6.71073e-09)
(8.62341e-08 -6.23088e-08 7.23728e-09)
(1.14486e-07 -1.06509e-07 7.34395e-09)
(3.3044e-08 7.16912e-08 9.67678e-08)
(5.55641e-08 4.99234e-08 1.29258e-07)
(5.91892e-08 2.58828e-08 1.52096e-07)
(5.83436e-08 6.32592e-09 1.71238e-07)
(5.88462e-08 -1.15127e-08 1.90358e-07)
(6.38637e-08 -3.11992e-08 2.11822e-07)
(7.61733e-08 -6.23389e-08 2.37031e-07)
(9.30866e-08 -1.33287e-07 2.6418e-07)
(3.9045e-09 5.1867e-08 8.72938e-08)
(1.04157e-08 3.79375e-08 1.18918e-07)
(1.19175e-08 2.08932e-08 1.40308e-07)
(1.13757e-08 3.54393e-09 1.58111e-07)
(1.12277e-08 -1.50198e-08 1.76059e-07)
(1.288e-08 -3.59737e-08 1.9667e-07)
(1.71883e-08 -6.52885e-08 2.22429e-07)
(2.20999e-08 -1.28575e-07 2.53809e-07)
(-4.43786e-09 5.11683e-08 8.58888e-08)
(-1.05517e-08 3.72915e-08 1.17399e-07)
(-1.13608e-08 2.03523e-08 1.38694e-07)
(-1.02034e-08 3.10016e-09 1.5642e-07)
(-9.57736e-09 -1.53774e-08 1.74293e-07)
(-1.09208e-08 -3.62471e-08 1.94824e-07)
(-1.51733e-08 -6.54331e-08 2.20492e-07)
(-2.04618e-08 -1.28234e-07 2.51795e-07)
(-3.21497e-08 6.91685e-08 9.27618e-08)
(-5.37435e-08 4.78868e-08 1.24861e-07)
(-5.66682e-08 2.42945e-08 1.47374e-07)
(-5.52034e-08 5.04212e-09 1.66273e-07)
(-5.52e-08 -1.25413e-08 1.85171e-07)
(-5.98795e-08 -3.19697e-08 2.06401e-07)
(-7.20782e-08 -6.27235e-08 2.3136e-07)
(-8.91752e-08 -1.32316e-07 2.58372e-07)
(-8.51829e-08 6.33013e-08 3.24509e-08)
(-1.02276e-07 3.94416e-08 6.6344e-08)
(-1.06161e-07 1.5045e-08 8.72811e-08)
(-1.06504e-07 -3.70118e-09 1.04239e-07)
(-1.08681e-07 -2.0145e-08 1.20947e-07)
(-1.16099e-07 -3.77739e-08 1.39604e-07)
(-1.31822e-07 -6.59295e-08 1.61293e-07)
(-1.55357e-07 -1.32937e-07 1.81744e-07)
(-6.48132e-08 3.25234e-08 4.3864e-09)
(-7.69181e-08 1.45498e-08 2.45077e-08)
(-7.88032e-08 -3.35969e-09 4.35856e-08)
(-7.81877e-08 -1.88779e-08 5.98515e-08)
(-7.97042e-08 -3.35113e-08 7.50866e-08)
(-8.69083e-08 -4.85399e-08 9.06663e-08)
(-1.03755e-07 -7.03707e-08 1.05768e-07)
(-1.31376e-07 -1.25753e-07 1.14689e-07)
(-5.13713e-08 1.98615e-08 1.63606e-09)
(-5.9894e-08 1.27759e-09 1.52185e-08)
(-6.0776e-08 -1.54058e-08 3.16057e-08)
(-5.99067e-08 -2.91381e-08 4.70009e-08)
(-6.13179e-08 -4.12813e-08 6.10444e-08)
(-6.87051e-08 -5.2439e-08 7.37429e-08)
(-8.63049e-08 -6.85807e-08 8.34457e-08)
(-1.15106e-07 -1.17291e-07 8.6334e-08)
(-4.43795e-08 1.49945e-08 2.56793e-09)
(-5.09883e-08 -4.21934e-09 1.32926e-08)
(-5.15766e-08 -2.12848e-08 2.65395e-08)
(-5.08896e-08 -3.4414e-08 3.97007e-08)
(-5.25415e-08 -4.47646e-08 5.15879e-08)
(-6.02014e-08 -5.31871e-08 6.13654e-08)
(-7.80374e-08 -6.6293e-08 6.75782e-08)
(-1.0676e-07 -1.11917e-07 6.85006e-08)
(-4.09874e-08 1.31181e-08 2.88541e-09)
(-4.68885e-08 -6.13769e-09 1.14226e-08)
(-4.75442e-08 -2.3431e-08 2.15111e-08)
(-4.71674e-08 -3.63573e-08 3.16914e-08)
(-4.91268e-08 -4.5796e-08 4.0826e-08)
(-5.69841e-08 -5.29154e-08 4.79469e-08)
(-7.47707e-08 -6.48366e-08 5.20614e-08)
(-1.03075e-07 -1.08988e-07 5.25554e-08)
(-3.93046e-08 1.23825e-08 2.44031e-09)
(-4.50411e-08 -6.65863e-09 8.67373e-09)
(-4.58685e-08 -2.38733e-08 1.57283e-08)
(-4.57624e-08 -3.66635e-08 2.28163e-08)
(-4.79582e-08 -4.57492e-08 2.91365e-08)
(-5.59199e-08 -5.24498e-08 3.39499e-08)
(-7.35782e-08 -6.40501e-08 3.66549e-08)
(-1.01487e-07 -1.07445e-07 3.70517e-08)
(-3.84507e-08 1.20883e-08 1.5817e-09)
(-4.41746e-08 -6.71523e-09 5.36414e-09)
(-4.51432e-08 -2.37545e-08 9.5256e-09)
(-4.52152e-08 -3.64319e-08 1.36708e-08)
(-4.75533e-08 -4.54155e-08 1.73485e-08)
(-5.55601e-08 -5.20611e-08 2.01289e-08)
(-7.31091e-08 -6.36399e-08 2.16938e-08)
(-1.00746e-07 -1.06653e-07 2.19733e-08)
(-3.80805e-08 1.19811e-08 5.43623e-10)
(-4.38103e-08 -6.67934e-09 1.80955e-09)
(-4.48501e-08 -2.35993e-08 3.18368e-09)
(-4.50063e-08 -3.62118e-08 4.54482e-09)
(-4.74086e-08 -4.51759e-08 5.74919e-09)
(-5.54309e-08 -5.18471e-08 6.65852e-09)
(-7.29217e-08 -6.34577e-08 7.17327e-09)
(-1.00424e-07 -1.06311e-07 7.2745e-09)
(9.33164e-08 -2.13747e-07 1.90448e-07)
(7.68859e-08 -1.99945e-07 1.19483e-07)
(6.49269e-08 -1.88103e-07 8.83178e-08)
(5.97981e-08 -1.80192e-07 6.89097e-08)
(5.83969e-08 -1.75353e-07 5.23932e-08)
(5.82801e-08 -1.72507e-07 3.68271e-08)
(5.83946e-08 -1.70926e-07 2.18374e-08)
(5.84638e-08 -1.70216e-07 7.2328e-09)
(2.23344e-08 -2.03822e-07 1.85292e-07)
(1.78853e-08 -1.85805e-07 1.2204e-07)
(1.39611e-08 -1.73424e-07 9.27914e-08)
(1.24544e-08 -1.66295e-07 7.20575e-08)
(1.23584e-08 -1.62297e-07 5.39575e-08)
(1.26582e-08 -1.59994e-07 3.74521e-08)
(1.29172e-08 -1.58688e-07 2.20485e-08)
(1.30429e-08 -1.58087e-07 7.28096e-09)
(-2.02092e-08 -2.02287e-07 1.84456e-07)
(-1.44609e-08 -1.84328e-07 1.21683e-07)
(-9.69293e-09 -1.72015e-07 9.25534e-08)
(-7.60869e-09 -1.64939e-07 7.18831e-08)
(-7.10891e-09 -1.60977e-07 5.38332e-08)
(-7.13623e-09 -1.58698e-07 3.73698e-08)
(-7.22765e-09 -1.57407e-07 2.20017e-08)
(-7.27381e-09 -1.56813e-07 7.26583e-09)
(-8.89234e-08 -2.09366e-07 1.88003e-07)
(-7.13678e-08 -1.9565e-07 1.18376e-07)
(-5.85929e-08 -1.83993e-07 8.75719e-08)
(-5.28834e-08 -1.76233e-07 6.83693e-08)
(-5.10758e-08 -1.715e-07 5.20128e-08)
(-5.06847e-08 -1.68727e-07 3.65767e-08)
(-5.063e-08 -1.6719e-07 2.16958e-08)
(-5.06185e-08 -1.66501e-07 7.18702e-09)
)
;
        gradient        nonuniform List<vector> 
192
(
(4.76791e-06 1.73082e-06 -2.25923e-07)
(4.47958e-06 5.07551e-07 -3.77543e-07)
(4.57761e-06 5.71441e-08 -4.08057e-07)
(4.7243e-06 2.54354e-10 -4.09266e-07)
(4.89632e-06 1.18379e-07 -4.06972e-07)
(5.11302e-06 3.51762e-07 -4.0169e-07)
(5.40426e-06 5.81265e-07 -3.88193e-07)
(5.95715e-06 3.85586e-07 -3.668e-07)
(3.93266e-06 1.21012e-06 -3.41337e-07)
(3.74941e-06 3.56142e-07 -5.64101e-07)
(3.80546e-06 2.23205e-08 -6.11488e-07)
(3.91321e-06 -1.28783e-08 -6.20407e-07)
(4.06494e-06 1.10019e-07 -6.26184e-07)
(4.28635e-06 3.60132e-07 -6.26319e-07)
(4.63678e-06 6.22585e-07 -6.06546e-07)
(5.40945e-06 4.07107e-07 -5.6478e-07)
(3.41609e-06 8.25424e-07 -2.09295e-07)
(3.34979e-06 2.37418e-07 -3.56674e-07)
(3.41383e-06 8.4309e-10 -3.83741e-07)
(3.5157e-06 -1.44412e-08 -3.80758e-07)
(3.66815e-06 1.12467e-07 -3.75293e-07)
(3.90485e-06 3.71398e-07 -3.67927e-07)
(4.29253e-06 6.42804e-07 -3.56536e-07)
(5.12639e-06 4.21291e-07 -3.46957e-07)
(3.11068e-06 6.44191e-07 -9.13931e-08)
(3.08853e-06 1.81709e-07 -1.56891e-07)
(3.16311e-06 -1.75949e-09 -1.63386e-07)
(3.26817e-06 -4.429e-09 -1.52636e-07)
(3.42553e-06 1.22851e-07 -1.40831e-07)
(3.67312e-06 3.78889e-07 -1.31999e-07)
(4.07918e-06 6.43556e-07 -1.30382e-07)
(4.92426e-06 4.27053e-07 -1.37425e-07)
(2.93165e-06 5.77163e-07 -3.40221e-08)
(2.92115e-06 1.65434e-07 -5.49043e-08)
(3.00168e-06 5.10195e-09 -5.12003e-08)
(3.11133e-06 8.11582e-09 -3.97283e-08)
(3.27381e-06 1.33105e-07 -2.86646e-08)
(3.52805e-06 3.81848e-07 -2.23934e-08)
(3.94146e-06 6.3738e-07 -2.51857e-08)
(4.78146e-06 4.27878e-07 -3.49713e-08)
(2.82785e-06 5.55282e-07 -1.24442e-08)
(2.82012e-06 1.64538e-07 -1.68683e-08)
(2.90376e-06 1.34195e-08 -1.1157e-08)
(3.01711e-06 1.81078e-08 -2.50852e-09)
(3.18353e-06 1.40186e-07 5.09168e-09)
(3.4415e-06 3.82369e-07 8.60203e-09)
(3.85706e-06 6.3098e-07 5.37044e-09)
(4.68911e-06 4.26475e-07 -2.28093e-09)
(2.77059e-06 5.4786e-07 -4.84113e-09)
(2.76358e-06 1.66726e-07 -5.24388e-09)
(2.84885e-06 1.94638e-08 -1.26649e-09)
(2.96458e-06 2.43653e-08 3.74615e-09)
(3.13347e-06 1.44216e-07 7.88659e-09)
(3.39331e-06 3.82127e-07 9.54516e-09)
(3.80907e-06 6.26498e-07 7.40454e-09)
(4.63497e-06 4.24685e-07 2.84745e-09)
(2.74507e-06 5.45202e-07 -1.35401e-09)
(2.73827e-06 1.68115e-07 -1.3058e-09)
(2.82426e-06 2.24107e-08 3.40511e-11)
(2.94113e-06 2.72614e-08 1.64072e-09)
(3.11116e-06 1.45986e-07 2.92993e-09)
(3.37177e-06 3.81887e-07 3.41063e-09)
(3.78734e-06 6.24283e-07 2.68984e-09)
(4.61006e-06 4.23568e-07 1.19553e-09)
(5.50533e-08 2.17916e-06 4.8423e-06)
(1.10315e-07 1.1616e-06 4.52315e-06)
(1.16442e-07 7.7544e-07 4.62217e-06)
(1.04091e-07 6.81085e-07 4.77984e-06)
(8.79991e-08 7.14108e-07 4.95891e-06)
(7.22198e-08 8.1217e-07 5.1702e-06)
(6.71902e-08 8.44538e-07 5.44408e-06)
(8.50917e-08 4.49912e-07 5.98074e-06)
(-6.39366e-08 2.04267e-06 4.31619e-06)
(-8.82351e-08 1.13187e-06 4.01014e-06)
(-9.86456e-08 7.5333e-07 4.02992e-06)
(-1.12493e-07 6.53172e-07 4.13226e-06)
(-1.2841e-07 6.86016e-07 4.27731e-06)
(-1.42705e-07 8.0074e-07 4.47296e-06)
(-1.42376e-07 8.74833e-07 4.78394e-06)
(-1.15213e-07 4.6909e-07 5.54474e-06)
(4.1429e-08 2.0269e-06 4.22783e-06)
(5.07776e-08 1.12685e-06 3.92756e-06)
(5.56785e-08 7.51164e-07 3.94489e-06)
(6.57342e-08 6.5131e-07 4.04464e-06)
(7.76658e-08 6.83885e-07 4.18762e-06)
(8.73281e-08 7.98188e-07 4.38143e-06)
(8.15855e-08 8.71997e-07 4.69072e-06)
(4.91641e-08 4.67977e-07 5.45116e-06)
(-7.09861e-08 2.13479e-06 4.58802e-06)
(-1.38819e-07 1.14608e-06 4.28263e-06)
(-1.50653e-07 7.68269e-07 4.37269e-06)
(-1.42428e-07 6.7515e-07 4.52256e-06)
(-1.30474e-07 7.07602e-07 4.69591e-06)
(-1.19304e-07 8.04647e-07 4.90237e-06)
(-1.19459e-07 8.36641e-07 5.17244e-06)
(-1.42301e-07 4.46939e-07 5.71348e-06)
(-4.31364e-06 1.66542e-06 -2.3685e-07)
(-4.02139e-06 4.70467e-07 -3.98707e-07)
(-4.11011e-06 2.83062e-08 -4.34731e-07)
(-4.24649e-06 -2.43139e-08 -4.40173e-07)
(-4.40892e-06 9.93057e-08 -4.42075e-07)
(-4.61686e-06 3.40313e-07 -4.41374e-07)
(-4.89898e-06 5.80161e-07 -4.32981e-07)
(-5.43686e-06 3.97277e-07 -4.16703e-07)
(-3.48953e-06 1.13474e-06 -3.44661e-07)
(-3.31002e-06 3.12404e-07 -5.7337e-07)
(-3.35913e-06 -1.1365e-08 -6.25592e-07)
(-3.45708e-06 -4.17527e-08 -6.38762e-07)
(-3.59823e-06 8.65379e-08 -6.48701e-07)
(-3.80858e-06 3.43895e-07 -6.532e-07)
(-4.14668e-06 6.16324e-07 -6.38138e-07)
(-4.90067e-06 4.13924e-07 -6.01328e-07)
(-2.98734e-06 7.47393e-07 -2.09355e-07)
(-2.92432e-06 1.89529e-07 -3.59407e-07)
(-2.98161e-06 -3.70916e-08 -3.9003e-07)
(-3.07372e-06 -4.7427e-08 -3.90771e-07)
(-3.21468e-06 8.48651e-08 -3.89073e-07)
(-3.43813e-06 3.50874e-07 -3.85572e-07)
(-3.81015e-06 6.32033e-07 -3.78218e-07)
(-4.62206e-06 4.23541e-07 -3.72821e-07)
(-2.69223e-06 5.65983e-07 -9.08437e-08)
(-2.67326e-06 1.31724e-07 -1.57218e-07)
(-2.74111e-06 -4.27331e-08 -1.65868e-07)
(-2.83631e-06 -4.07988e-08 -1.57902e-07)
(-2.98151e-06 9.17348e-08 -1.49155e-07)
(-3.21433e-06 3.5475e-07 -1.43512e-07)
(-3.60219e-06 6.29077e-07 -1.45178e-07)
(-4.42271e-06 4.25602e-07 -1.55542e-07)
(-2.52e-06 4.99336e-07 -3.35382e-08)
(-2.51274e-06 1.14501e-07 -5.46117e-08)
(-2.58654e-06 -3.77787e-08 -5.20824e-08)
(-2.68617e-06 -3.07155e-08 -4.24625e-08)
(-2.83601e-06 9.92552e-08 -3.36395e-08)
(-3.0745e-06 3.54851e-07 -2.97993e-08)
(-3.46814e-06 6.20003e-07 -3.51021e-08)
(-4.28182e-06 4.23591e-07 -4.73844e-08)
(-2.42039e-06 4.77835e-07 -1.21182e-08)
(-2.41593e-06 1.13178e-07 -1.65425e-08)
(-2.49279e-06 -3.05858e-08 -1.14474e-08)
(-2.59598e-06 -2.23569e-08 -3.92691e-09)
(-2.7494e-06 1.04398e-07 2.1922e-09)
(-2.99101e-06 3.53288e-07 4.02555e-09)
(-3.38588e-06 6.11493e-07 -9.57902e-10)
(-4.19048e-06 4.20153e-07 -1.0335e-08)
(-2.36553e-06 4.70677e-07 -4.65675e-09)
(-2.3618e-06 1.15171e-07 -5.02963e-09)
(-2.44025e-06 -2.51645e-08 -1.352e-09)
(-2.5457e-06 -1.70764e-08 3.06065e-09)
(-2.70137e-06 1.07208e-07 6.36973e-09)
(-2.94449e-06 3.51702e-07 7.05581e-09)