/*--------------------------------*- C++ -*----------------------------------*\
| =========                 |                                                 |
| \\      /  F ield         | OpenFOAM: The Open Source CFD Toolbox           |
|  \\    /   O peration     | Version:  v1912                                 |
|   \\  /    A nd           | Website:  www.openfoam.com                      |
|    \\/     M anipulation  |                                                 |
\*---------------------------------------------------------------------------*/
FoamFile
{
    version     2.0;
    format      ascii;
    class       volVectorField;
    location    "0.99/solid";
    object      DD_0_0;
}
// * * * * * * * * * * * * * * * * * * * * * * * * * * * * * * * * * * * * * //

dimensions      [0 1 0 0 0 0 0];


internalField   nonuniform List<vector> 
256
(
(1.71097e-10 1.89677e-10 2.26594e-10)
(4.07841e-11 1.28489e-10 2.23002e-10)
(-5.97747e-11 1.21965e-10 2.1381e-10)
(-1.69436e-10 1.68581e-10 1.99314e-10)
(3.29675e-10 1.79472e-10 5.51798e-10)
(8.40089e-11 1.20989e-10 5.44229e-10)
(-1.29933e-10 1.19382e-10 5.24893e-10)
(-3.45904e-10 1.78803e-10 4.93838e-10)
(3.693e-10 3.41407e-11 7.92349e-10)
(8.83723e-11 8.07283e-12 7.77612e-10)
(-1.65355e-10 1.42526e-11 7.52214e-10)
(-4.15643e-10 5.78158e-11 7.16019e-10)
(3.61244e-10 -1.4409e-10 9.92419e-10)
(7.15257e-11 -1.51088e-10 9.68531e-10)
(-1.88811e-10 -1.3718e-10 9.38806e-10)
(-4.47382e-10 -9.81791e-11 9.02971e-10)
(3.52617e-10 -3.41969e-10 1.18325e-09)
(5.11709e-11 -3.45615e-10 1.14982e-09)
(-2.18983e-10 -3.24345e-10 1.11645e-09)
(-4.88599e-10 -2.75087e-10 1.08279e-09)
(3.72436e-10 -5.84504e-10 1.38221e-09)
(3.86396e-11 -5.86979e-10 1.34175e-09)
(-2.67951e-10 -5.58262e-10 1.30495e-09)
(-5.69059e-10 -4.96361e-10 1.27144e-09)
(4.2736e-10 -9.25006e-10 1.58099e-09)
(3.5529e-11 -9.13236e-10 1.5433e-09)
(-3.38912e-10 -8.75954e-10 1.50314e-09)
(-6.95933e-10 -8.12299e-10 1.46029e-09)
(4.68508e-10 -1.33758e-09 1.71809e-09)
(2.57526e-11 -1.30586e-09 1.69364e-09)
(-4.17815e-10 -1.25636e-09 1.65078e-09)
(-8.20642e-10 -1.18869e-09 1.58987e-09)
(1.22231e-10 7.22164e-11 1.07317e-10)
(2.87939e-11 1.79261e-11 1.15328e-10)
(-3.67476e-11 1.59713e-11 1.11009e-10)
(-1.12415e-10 6.0873e-11 9.46086e-11)
(2.43401e-10 8.19899e-12 3.30708e-10)
(6.22958e-11 -4.25159e-11 3.46087e-10)
(-8.14858e-11 -4.02285e-11 3.34269e-10)
(-2.37353e-10 1.48835e-11 2.96349e-10)
(2.72756e-10 -1.29698e-10 5.37481e-10)
(6.5999e-11 -1.5154e-10 5.52935e-10)
(-1.04653e-10 -1.4297e-10 5.35795e-10)
(-2.85915e-10 -1.02164e-10 4.87433e-10)
(2.62786e-10 -2.91569e-10 7.22885e-10)
(5.15474e-11 -2.97272e-10 7.34657e-10)
(-1.21407e-10 -2.81925e-10 7.13604e-10)
(-3.07143e-10 -2.43812e-10 6.61024e-10)
(2.5455e-10 -4.7129e-10 8.97311e-10)
(3.40317e-11 -4.76235e-10 9.03768e-10)
(-1.46887e-10 -4.54054e-10 8.79413e-10)
(-3.41518e-10 -4.03628e-10 8.25419e-10)
(2.79383e-10 -6.83467e-10 1.06662e-09)
(2.53202e-11 -6.89516e-10 1.06745e-09)
(-1.93153e-10 -6.60343e-10 1.04005e-09)
(-4.20537e-10 -5.95517e-10 9.85524e-10)
(3.51301e-10 -9.71883e-10 1.21703e-09)
(2.89182e-11 -9.60982e-10 1.21401e-09)
(-2.65148e-10 -9.24081e-10 1.18405e-09)
(-5.58399e-10 -8.61268e-10 1.12802e-09)
(4.18968e-10 -1.33575e-09 1.30563e-09)
(2.68898e-11 -1.2902e-09 1.30124e-09)
(-3.47197e-10 -1.24259e-09 1.27021e-09)
(-7.04075e-10 -1.19229e-09 1.21291e-09)
(7.36776e-11 2.60555e-11 5.48004e-11)
(1.54284e-11 -1.66201e-11 6.78353e-11)
(-1.81078e-11 -1.81042e-11 6.49024e-11)
(-5.92982e-11 1.40581e-11 4.64293e-11)
(1.53145e-10 -7.85058e-11 2.06024e-10)
(3.64237e-11 -1.19144e-10 2.31317e-10)
(-4.02138e-11 -1.16609e-10 2.23155e-10)
(-1.33069e-10 -7.37643e-11 1.82816e-10)
(1.71908e-10 -2.25931e-10 3.73717e-10)
(3.82496e-11 -2.44062e-10 4.01845e-10)
(-5.22338e-11 -2.35749e-10 3.89502e-10)
(-1.6217e-10 -2.01441e-10 3.38282e-10)
(1.61639e-10 -3.8021e-10 5.37089e-10)
(2.59467e-11 -3.86507e-10 5.63577e-10)
(-6.30375e-11 -3.71871e-10 5.47869e-10)
(-1.75294e-10 -3.36321e-10 4.91517e-10)
(1.55507e-10 -5.39439e-10 6.89403e-10)
(1.13033e-11 -5.47534e-10 7.1241e-10)
(-8.44597e-11 -5.26418e-10 6.9379e-10)
(-2.04983e-10 -4.76264e-10 6.34963e-10)
(1.85504e-10 -7.16729e-10 8.24857e-10)
(6.29252e-12 -7.27457e-10 8.43437e-10)
(-1.28509e-10 -6.99721e-10 8.22244e-10)
(-2.83185e-10 -6.33985e-10 7.62519e-10)
(2.69238e-10 -9.56322e-10 9.26856e-10)
(1.56451e-11 -9.48764e-10 9.4044e-10)
(-2.01157e-10 -9.13811e-10 9.17366e-10)
(-4.27436e-10 -8.52002e-10 8.58419e-10)
(3.53803e-10 -1.27232e-09 9.65445e-10)
(1.98724e-11 -1.22314e-09 9.7491e-10)
(-2.84817e-10 -1.17802e-09 9.51584e-10)
(-5.84869e-10 -1.13632e-09 8.95356e-10)
(4.67871e-11 6.23851e-12 4.00458e-11)
(8.06195e-12 -2.69811e-11 5.01947e-11)
(-8.14769e-12 -2.88326e-11 4.80234e-11)
(-2.9603e-11 -7.78376e-12 3.39948e-11)
(1.02753e-10 -1.14502e-10 1.52718e-10)
(2.1968e-11 -1.47498e-10 1.72169e-10)
(-1.69639e-11 -1.46017e-10 1.66291e-10)
(-7.38011e-11 -1.14083e-10 1.36274e-10)
(1.17075e-10 -2.68938e-10 2.84551e-10)
(2.36072e-11 -2.84922e-10 3.05918e-10)
(-2.20731e-11 -2.78029e-10 2.96946e-10)
(-9.19512e-11 -2.49753e-10 2.59095e-10)
(1.09749e-10 -4.19357e-10 4.18623e-10)
(1.41895e-11 -4.27046e-10 4.38383e-10)
(-2.92322e-11 -4.14062e-10 4.26738e-10)
(-1.01638e-10 -3.81255e-10 3.85124e-10)
(1.08234e-10 -5.63103e-10 5.42839e-10)
(2.9726e-12 -5.74283e-10 5.59651e-10)
(-4.81607e-11 -5.55007e-10 5.45613e-10)
(-1.30073e-10 -5.06034e-10 5.02034e-10)
(1.43162e-10 -7.14986e-10 6.45944e-10)
(1.24406e-12 -7.29721e-10 6.59362e-10)
(-9.02964e-11 -7.04011e-10 6.43254e-10)
(-2.07936e-10 -6.38658e-10 5.98705e-10)
(2.31722e-10 -9.23194e-10 7.12605e-10)
(1.36622e-11 -9.20415e-10 7.22502e-10)
(-1.61424e-10 -8.87648e-10 7.05007e-10)
(-3.52247e-10 -8.25564e-10 6.60681e-10)
(3.21019e-10 -1.21128e-09 7.25591e-10)
(2.07031e-11 -1.16751e-09 7.3333e-10)
(-2.43583e-10 -1.1246e-09 7.15844e-10)
(-5.09922e-10 -1.08199e-09 6.72804e-10)
(3.60187e-11 -1.57786e-12 3.32165e-11)
(5.5731e-12 -2.97049e-11 3.87282e-11)
(-4.28254e-12 -3.1931e-11 3.71665e-11)
(-1.70887e-11 -1.72104e-11 2.8935e-11)
(8.34131e-11 -1.25917e-10 1.19002e-10)
(1.75152e-11 -1.55175e-10 1.29158e-10)
(-7.31453e-12 -1.54815e-10 1.24996e-10)
(-4.88703e-11 -1.29376e-10 1.07507e-10)
(9.8012e-11 -2.8125e-10 2.18245e-10)
(2.04548e-11 -2.96934e-10 2.28706e-10)
(-9.09913e-12 -2.91567e-10 2.22344e-10)
(-6.28072e-11 -2.67088e-10 2.00377e-10)
(9.48708e-11 -4.28083e-10 3.20201e-10)
(1.4025e-11 -4.37623e-10 3.28861e-10)
(-1.43596e-11 -4.2636e-10 3.20518e-10)
(-7.18886e-11 -3.95511e-10 2.96387e-10)
(9.8242e-11 -5.62127e-10 4.13854e-10)
(6.01e-12 -5.75955e-10 4.2002e-10)
(-3.17804e-11 -5.58509e-10 4.09854e-10)
(-1.00529e-10 -5.10801e-10 3.84463e-10)
(1.3688e-10 -6.99811e-10 4.88079e-10)
(6.8274e-12 -7.17489e-10 4.91828e-10)
(-7.21525e-11 -6.93669e-10 4.8009e-10)
(-1.77753e-10 -6.29284e-10 4.53754e-10)
(2.26596e-10 -8.92591e-10 5.31342e-10)
(2.06904e-11 -8.93785e-10 5.33121e-10)
(-1.40823e-10 -8.62895e-10 5.20365e-10)
(-3.19235e-10 -8.00646e-10 4.93491e-10)
(3.15763e-10 -1.16783e-09 5.35243e-10)
(2.88406e-11 -1.13045e-09 5.36462e-10)
(-2.20442e-10 -1.08932e-09 5.23767e-10)
(-4.73062e-10 -1.04391e-09 4.96834e-10)
(3.25722e-11 -4.2515e-12 2.55521e-11)
(5.22744e-12 -3.02033e-11 2.79441e-11)
(-3.18644e-12 -3.26995e-11 2.69001e-11)
(-1.25864e-11 -2.0975e-11 2.27225e-11)
(7.82158e-11 -1.27244e-10 8.68924e-11)
(1.75195e-11 -1.55315e-10 9.09205e-11)
(-4.23561e-12 -1.55805e-10 8.81524e-11)
(-4.02322e-11 -1.3351e-10 7.93227e-11)
(9.47881e-11 -2.80027e-10 1.55991e-10)
(2.21361e-11 -2.96406e-10 1.5948e-10)
(-4.6637e-12 -2.92249e-10 1.55244e-10)
(-5.31938e-11 -2.69699e-10 1.44195e-10)
(9.5357e-11 -4.23199e-10 2.26575e-10)
(1.81452e-11 -4.34525e-10 2.2847e-10)
(-8.95827e-12 -4.24655e-10 2.22884e-10)
(-6.2647e-11 -3.94968e-10 2.10735e-10)
(1.02515e-10 -5.51744e-10 2.90776e-10)
(1.25755e-11 -5.67594e-10 2.90825e-10)
(-2.53695e-11 -5.51617e-10 2.83973e-10)
(-9.16434e-11 -5.04945e-10 2.71057e-10)
(1.43573e-10 -6.82958e-10 3.4029e-10)
(1.51907e-11 -7.02584e-10 3.38779e-10)
(-6.4251e-11 -6.8024e-10 3.30829e-10)
(-1.67989e-10 -6.16933e-10 3.17105e-10)
(2.33302e-10 -8.69578e-10 3.67611e-10)
(2.98506e-11 -8.73327e-10 3.65099e-10)
(-1.3068e-10 -8.43854e-10 3.56443e-10)
(-3.0641e-10 -7.81926e-10 3.4195e-10)
(3.21426e-10 -1.1391e-09 3.68826e-10)
(3.85501e-11 -1.10613e-09 3.66327e-10)
(-2.08036e-10 -1.0663e-09 3.57724e-10)
(-4.56348e-10 -1.01914e-09 3.42781e-10)
(3.164e-11 -4.93412e-12 1.60999e-11)
(5.41238e-12 -3.00745e-11 1.69723e-11)
(-2.98046e-12 -3.27419e-11 1.63757e-11)
(-1.10589e-11 -2.23265e-11 1.44949e-11)
(7.7493e-11 -1.25538e-10 5.307e-11)
(1.84627e-11 -1.53473e-10 5.43086e-11)
(-3.45196e-12 -1.54508e-10 5.27282e-11)
(-3.7532e-11 -1.33573e-10 4.87766e-11)
(9.58664e-11 -2.75254e-10 9.37933e-11)
(2.43797e-11 -2.92461e-10 9.44361e-11)
(-3.35545e-12 -2.89103e-10 9.20142e-11)
(-5.05174e-11 -2.67419e-10 8.70882e-11)
(9.89587e-11 -4.15468e-10 1.35009e-10)
(2.20109e-11 -4.28117e-10 1.34601e-10)
(-7.13923e-12 -4.19182e-10 1.31397e-10)
(-6.04014e-11 -3.90124e-10 1.25965e-10)
(1.08518e-10 -5.41132e-10 1.72191e-10)
(1.80141e-11 -5.5831e-10 1.70677e-10)
(-2.28777e-11 -5.43323e-10 1.6673e-10)
(-8.95718e-11 -4.9737e-10 1.60872e-10)
(1.51005e-10 -6.69867e-10 2.00466e-10)
(2.17716e-11 -6.90648e-10 1.98089e-10)
(-6.07006e-11 -6.69291e-10 1.93495e-10)
(-1.65145e-10 -6.06852e-10 1.87095e-10)
(2.40604e-10 -8.54429e-10 2.15705e-10)
(3.69404e-11 -8.59584e-10 2.1286e-10)
(-1.25573e-10 -8.31046e-10 2.07849e-10)
(-3.01361e-10 -7.69623e-10 2.00864e-10)
(3.27929e-10 -1.12136e-09 2.16118e-10)
(4.59845e-11 -1.09081e-09 2.13368e-10)
(-2.01378e-10 -1.05183e-09 2.08388e-10)
(-4.48584e-10 -1.004e-09 2.01041e-10)
(3.14208e-11 -5.00993e-12 5.49242e-12)
(5.56368e-12 -2.98905e-11 5.70193e-12)
(-2.96586e-12 -3.26408e-11 5.50817e-12)
(-1.0572e-11 -2.27206e-11 4.97314e-12)
(7.76044e-11 -1.2405e-10 1.78499e-11)
(1.90674e-11 -1.52068e-10 1.80924e-11)
(-3.28319e-12 -1.53367e-10 1.7579e-11)
(-3.67419e-11 -1.32935e-10 1.64597e-11)
(9.6937e-11 -2.71887e-10 3.12987e-11)
(2.56495e-11 -2.89589e-10 3.13044e-11)
(-2.99583e-12 -2.86623e-10 3.05168e-11)
(-4.98511e-11 -2.65268e-10 2.91248e-11)
(1.01261e-10 -4.10481e-10 4.48288e-11)
(2.407e-11 -4.23815e-10 4.44729e-11)
(-6.54466e-12 -4.15344e-10 4.34291e-11)
(-5.99609e-11 -3.86564e-10 4.189e-11)
(1.11957e-10 -5.34913e-10 5.69789e-11)
(2.08304e-11 -5.52741e-10 5.62576e-11)
(-2.19385e-11 -5.38248e-10 5.49696e-11)
(-8.91767e-11 -4.92662e-10 5.32913e-11)
(1.55111e-10 -6.62878e-10 6.61655e-11)
(2.51446e-11 -6.84193e-10 6.51693e-11)
(-5.92191e-11 -6.63328e-10 6.36672e-11)
(-1.64319e-10 -6.01362e-10 6.17993e-11)
(2.44647e-10 -8.46885e-10 7.10776e-11)
(4.05794e-11 -8.5265e-10 6.9943e-11)
(-1.23317e-10 -8.24576e-10 6.83031e-11)
(-2.99429e-10 -7.63493e-10 6.62232e-11)
(3.31586e-10 -1.11279e-09 7.11808e-11)
(4.98042e-11 -1.08328e-09 7.00853e-11)
(-1.9835e-10 -1.04472e-09 6.84555e-11)
(-4.45305e-10 -9.96711e-10 6.62468e-11)
)
;

boundaryField
{
    interface
    {
        type            calculated;
        value           nonuniform List<vector> 
192
(
(2.20472e-10 3.1487e-10 2.10906e-10)
(3.82596e-10 2.29023e-10 5.24304e-10)
(4.26033e-10 4.20322e-11 7.62626e-10)
(4.21787e-10 -1.48262e-10 9.63582e-10)
(4.14943e-10 -3.39172e-10 1.15614e-09)
(4.33543e-10 -5.65818e-10 1.35794e-09)
(4.90845e-10 -9.00988e-10 1.56192e-09)
(5.28226e-10 -1.32915e-09 1.70565e-09)
(1.55842e-10 1.63624e-10 8.29622e-11)
(2.86569e-10 4.583e-11 2.86576e-10)
(3.19079e-10 -1.24853e-10 4.88134e-10)
(3.10969e-10 -2.96122e-10 6.72985e-10)
(3.03464e-10 -4.67142e-10 8.48033e-10)
(3.28021e-10 -6.5928e-10 1.01988e-09)
(4.08033e-10 -9.36987e-10 1.1775e-09)
(4.83394e-10 -1.32079e-09 1.27695e-09)
(9.39053e-11 8.27613e-11 3.59397e-11)
(1.83442e-10 -5.39485e-11 1.70863e-10)
(2.05738e-10 -2.23808e-10 3.34797e-10)
(1.97437e-10 -3.84311e-10 4.9883e-10)
(1.92692e-10 -5.33474e-10 6.52824e-10)
(2.24202e-10 -6.88296e-10 7.90802e-10)
(3.18906e-10 -9.14248e-10 8.96962e-10)
(4.17232e-10 -1.25232e-09 9.40958e-10)
(6.02383e-11 4.36237e-11 3.06312e-11)
(1.2817e-10 -9.693e-11 1.35285e-10)
(1.46843e-10 -2.6719e-10 2.66077e-10)
(1.42138e-10 -4.21568e-10 4.01932e-10)
(1.43054e-10 -5.5475e-10 5.28523e-10)
(1.81288e-10 -6.84114e-10 6.33788e-10)
(2.82925e-10 -8.78729e-10 7.01944e-10)
(3.87785e-10 -1.18881e-09 7.16081e-10)
(4.57047e-11 2.82802e-11 2.96629e-11)
(1.0548e-10 -1.10419e-10 1.12868e-10)
(1.2492e-10 -2.78386e-10 2.12673e-10)
(1.25006e-10 -4.28026e-10 3.16603e-10)
(1.31663e-10 -5.51625e-10 4.12425e-10)
(1.74827e-10 -6.67723e-10 4.88182e-10)
(2.78854e-10 -8.4787e-10 5.31737e-10)
(3.84001e-10 -1.14434e-09 5.35344e-10)
(4.03225e-11 2.34456e-11 2.44575e-11)
(9.813e-11 -1.11691e-10 8.54126e-11)
(1.19798e-10 -2.75742e-10 1.55455e-10)
(1.24047e-10 -4.21268e-10 2.27597e-10)
(1.35098e-10 -5.39691e-10 2.93345e-10)
(1.81435e-10 -6.50262e-10 3.43822e-10)
(2.86107e-10 -8.25115e-10 3.71113e-10)
(3.90104e-10 -1.11522e-09 3.71868e-10)
(3.85431e-11 2.23492e-11 1.58121e-11)
(9.63045e-11 -1.09482e-10 5.29172e-11)
(1.19911e-10 -2.69888e-10 9.43307e-11)
(1.26974e-10 -4.12306e-10 1.36485e-10)
(1.40805e-10 -5.28121e-10 1.74552e-10)
(1.88993e-10 -6.36846e-10 2.03351e-10)
(2.93829e-10 -8.10198e-10 2.18542e-10)
(3.9683e-10 -1.09734e-09 2.18658e-10)
(3.80395e-11 2.22465e-11 5.43763e-12)
(9.59844e-11 -1.07671e-10 1.78778e-11)
(1.20616e-10 -2.65974e-10 3.15664e-11)
(1.29051e-10 -4.06727e-10 4.54043e-11)
(1.442e-10 -5.21451e-10 5.78389e-11)
(1.93244e-10 -6.29706e-10 6.7192e-11)
(2.98132e-10 -8.02766e-10 7.20884e-11)
(4.00631e-10 -1.08873e-09 7.20952e-11)
(1.78042e-10 3.84275e-10 2.5549e-10)
(3.41528e-10 3.20911e-10 5.81304e-10)
(3.80476e-10 1.44296e-10 8.25641e-10)
(3.69689e-10 -4.63632e-11 1.03024e-09)
(3.57816e-10 -2.4452e-10 1.22304e-09)
(3.74456e-10 -4.8507e-10 1.41947e-09)
(4.27475e-10 -8.41037e-10 1.61705e-09)
(4.68618e-10 -1.29219e-09 1.74654e-09)
(3.75872e-11 3.20297e-10 2.45537e-10)
(7.72808e-11 2.59642e-10 5.66305e-10)
(7.83367e-11 1.14149e-10 7.99119e-10)
(5.8121e-11 -5.80346e-11 9.90361e-10)
(3.44695e-11 -2.52311e-10 1.17048e-09)
(1.93223e-11 -4.88608e-10 1.35823e-09)
(1.60667e-11 -8.2526e-10 1.562e-09)
(8.92568e-12 -1.25836e-09 1.71474e-09)
(-6.56978e-11 3.06641e-10 2.26194e-10)
(-1.42533e-10 2.53983e-10 5.38546e-10)
(-1.80756e-10 1.17732e-10 7.65249e-10)
(-2.05203e-10 -4.61193e-11 9.51869e-10)
(-2.35743e-10 -2.32808e-10 1.12801e-09)
(-2.8553e-10 -4.61589e-10 1.31208e-09)
(-3.59666e-10 -7.89496e-10 1.51223e-09)
(-4.43758e-10 -1.20944e-09 1.66146e-09)
(-1.83775e-10 3.41868e-10 1.98084e-10)
(-3.74354e-10 3.07979e-10 4.95645e-10)
(-4.49336e-10 1.601e-10 7.20692e-10)
(-4.82706e-10 -6.48565e-12 9.11097e-10)
(-5.24339e-10 -1.8297e-10 1.092e-09)
(-6.04987e-10 -4.01986e-10 1.27744e-09)
(-7.33143e-10 -7.32689e-10 1.46456e-09)
(-8.60374e-10 -1.14489e-09 1.5855e-09)
(-1.59134e-10 2.97415e-10 1.77889e-10)
(-3.39619e-10 2.40354e-10 4.52473e-10)
(-4.11976e-10 8.3186e-11 6.66738e-10)
(-4.46107e-10 -7.99387e-11 8.50247e-10)
(-4.87676e-10 -2.44667e-10 1.02814e-09)
(-5.65378e-10 -4.44526e-10 1.21634e-09)
(-6.9217e-10 -7.49401e-10 1.4073e-09)
(-8.09383e-10 -1.13584e-09 1.54086e-09)
(-9.00324e-11 1.48315e-10 6.70741e-11)
(-2.2514e-10 5.82583e-11 2.4314e-10)
(-2.76234e-10 -8.47158e-11 4.24064e-10)
(-2.98288e-10 -2.2991e-10 5.93001e-10)
(-3.322e-10 -3.75278e-10 7.54514e-10)
(-4.09476e-10 -5.41295e-10 9.14054e-10)
(-5.52693e-10 -7.90383e-10 1.06089e-09)
(-7.00793e-10 -1.13535e-09 1.15396e-09)
(-2.50583e-11 6.21497e-11 2.57259e-11)
(-1.09902e-10 -4.80461e-11 1.41928e-10)
(-1.4214e-10 -1.90884e-10 2.8979e-10)
(-1.56343e-10 -3.25617e-10 4.4014e-10)
(-1.86271e-10 -4.49291e-10 5.82101e-10)
(-2.64447e-10 -5.7837e-10 7.09368e-10)
(-4.16745e-10 -7.7658e-10 8.0688e-10)
(-5.82327e-10 -1.07688e-09 8.46817e-10)
(1.09772e-11 1.80671e-11 2.34422e-11)
(-4.63734e-11 -9.8496e-11 1.15223e-10)
(-6.85934e-11 -2.42794e-10 2.34253e-10)
(-8.01099e-11 -3.71724e-10 3.59272e-10)
(-1.09845e-10 -4.79458e-10 4.75919e-10)
(-1.89402e-10 -5.83114e-10 5.72347e-10)
(-3.43744e-10 -7.50067e-10 6.33629e-10)
(-5.1132e-10 -1.02233e-09 6.44851e-10)
(2.71174e-11 -7.20805e-13 2.46806e-11)
(-1.83344e-11 -1.17946e-10 9.91141e-11)
(-3.69103e-11 -2.61333e-10 1.90687e-10)
(-4.84796e-11 -3.8608e-10 2.86638e-10)
(-7.92881e-11 -4.84334e-10 3.74855e-10)
(-1.59391e-10 -5.74606e-10 4.43766e-10)
(-3.12065e-10 -7.26818e-10 4.82032e-10)
(-4.7619e-10 -9.85064e-10 4.8344e-10)
(3.35118e-11 -7.77046e-12 2.12149e-11)
(-7.64844e-12 -1.23358e-10 7.64876e-11)
(-2.55449e-11 -2.64095e-10 1.41122e-10)
(-3.79736e-11 -3.85355e-10 2.07863e-10)
(-6.97545e-11 -4.78608e-10 2.68318e-10)
(-1.49715e-10 -5.6324e-10 3.13952e-10)
(-2.99964e-10 -7.09835e-10 3.37481e-10)
(-4.59995e-10 -9.613e-10 3.36661e-10)
(3.58722e-11 -1.01789e-11 1.39911e-11)
(-3.88869e-12 -1.23709e-10 4.79037e-11)
(-2.19691e-11 -2.61702e-10 8.62522e-11)
(-3.51364e-11 -3.80359e-10 1.25293e-10)
(-6.74732e-11 -4.71183e-10 1.60255e-10)
(-1.47078e-10 -5.53903e-10 1.86178e-10)
(-2.95406e-10 -6.98762e-10 1.99118e-10)
(-4.52515e-10 -9.46947e-10 1.9828e-10)
(3.66502e-11 -1.08922e-11 4.85136e-12)
(-2.67754e-12 -1.23115e-10 1.62621e-11)
(-2.09562e-11 -2.59462e-10 2.89581e-11)
(-3.44985e-11 -3.76731e-10 4.17798e-11)
(-6.70603e-11 -4.66571e-10 5.31924e-11)
(-1.46421e-10 -5.48797e-10 6.15927e-11)
(-2.93754e-10 -6.93245e-10 6.57401e-11)
(-4.49397e-10 -9.40079e-10 6.54271e-11)
(4.64793e-10 -1.36706e-09 1.74033e-09)
(4.15061e-10 -1.37369e-09 1.28931e-09)
(3.51507e-10 -1.31286e-09 9.34326e-10)
(3.21311e-10 -1.25687e-09 6.99469e-10)
(3.18164e-10 -1.21547e-09 5.17198e-10)
(3.25122e-10 -1.18727e-09 3.57208e-10)
(3.32301e-10 -1.16973e-09 2.09539e-10)
(3.36239e-10 -1.16127e-09 6.90375e-11)
(5.44659e-12 -1.32793e-09 1.71348e-09)
(3.59901e-12 -1.31067e-09 1.28056e-09)
(-3.70123e-12 -1.24263e-09 9.44237e-10)
(-9.66673e-13 -1.19307e-09 7.10156e-10)
(9.21135e-12 -1.1597e-09 5.21117e-10)
(2.03479e-11 -1.13715e-09 3.56417e-10)
(2.8602e-11 -1.12273e-09 2.07655e-10)
(3.2786e-11 -1.1156e-09 6.8201e-11)
(-4.47108e-10 -1.2679e-09 1.6708e-09)
(-3.71674e-10 -1.25321e-09 1.25063e-09)
(-3.06525e-10 -1.18772e-09 9.22086e-10)
(-2.64963e-10 -1.14038e-09 6.93667e-10)
(-2.42079e-10 -1.10875e-09 5.0919e-10)
(-2.29784e-10 -1.08747e-09 3.48353e-10)
(-2.23083e-10 -1.07388e-09 2.02994e-10)
(-2.19993e-10 -1.06716e-09 6.66765e-11)
(-8.63987e-10 -1.18506e-09 1.61267e-09)
(-7.45124e-10 -1.19779e-09 1.19981e-09)
(-6.25015e-10 -1.14442e-09 8.67781e-10)
(-5.50409e-10 -1.09505e-09 6.49703e-10)
(-5.1384e-10 -1.05891e-09 4.81121e-10)
(-4.97061e-10 -1.03456e-09 3.32802e-10)
(-4.89072e-10 -1.01952e-09 1.95433e-10)
(-4.85626e-10 -1.0123e-09 6.44248e-11)
)
;
    }
    symmetry
    {
        type            symmetry;
    }
    bottom
    {
        type            calculated;
        value           uniform (0 0 0);
    }
}


// ************************************************************************* //
