/*--------------------------------*- C++ -*----------------------------------*\
| =========                 |                                                 |
| \\      /  F ield         | OpenFOAM: The Open Source CFD Toolbox           |
|  \\    /   O peration     | Version:  v1912                                 |
|   \\  /    A nd           | Website:  www.openfoam.com                      |
|    \\/     M anipulation  |                                                 |
\*---------------------------------------------------------------------------*/
FoamFile
{
    version     2.0;
    format      ascii;
    class       pointVectorField;
    location    "0.99/solid";
    object      pointDD;
}
// * * * * * * * * * * * * * * * * * * * * * * * * * * * * * * * * * * * * * //

dimensions      [0 1 0 0 0 0 0];


internalField   nonuniform List<vector> 
405
(
(1.30538e-10 2.29498e-10 1.53918e-10)
(5.27552e-11 1.73978e-10 1.24426e-10)
(-7.17576e-12 1.54975e-10 1.17278e-10)
(-6.14718e-11 1.59803e-10 1.05057e-10)
(-1.12306e-10 2.09512e-10 1.2339e-10)
(2.75863e-10 3.08327e-10 3.89381e-10)
(1.55364e-10 3.18095e-10 4.09208e-10)
(-2.39229e-11 2.82696e-10 3.91611e-10)
(-1.89391e-10 2.9931e-10 3.61051e-10)
(-2.60322e-10 2.93205e-10 3.26399e-10)
(3.76324e-10 1.82839e-10 6.67933e-10)
(2.14981e-10 2.0883e-10 6.88246e-10)
(-4.30894e-11 1.86027e-10 6.6293e-10)
(-2.84499e-10 2.09322e-10 6.24151e-10)
(-3.89375e-10 1.97539e-10 5.76636e-10)
(3.92927e-10 -1.17545e-12 8.88788e-10)
(2.16867e-10 3.95242e-11 9.05314e-10)
(-6.41949e-11 3.34805e-11 8.71089e-10)
(-3.28171e-10 5.80272e-11 8.2988e-10)
(-4.4405e-10 4.16113e-11 7.78253e-10)
(3.84175e-10 -1.92342e-10 1.08519e-09)
(1.99806e-10 -1.47761e-10 1.09624e-09)
(-8.96529e-11 -1.43978e-10 1.05339e-09)
(-3.6172e-10 -1.13463e-10 1.01193e-09)
(-4.82835e-10 -1.24179e-10 9.59743e-10)
(3.87214e-10 -4.0535e-10 1.27929e-09)
(1.90265e-10 -3.63606e-10 1.28387e-09)
(-1.20296e-10 -3.53623e-10 1.23385e-09)
(-4.13055e-10 -3.14361e-10 1.19175e-09)
(-5.43804e-10 -3.12544e-10 1.14075e-09)
(4.20856e-10 -6.92891e-10 1.47652e-09)
(2.00835e-10 -6.53649e-10 1.47771e-09)
(-1.56866e-10 -6.33549e-10 1.42529e-09)
(-4.95964e-10 -5.88237e-10 1.37825e-09)
(-6.46324e-10 -5.73465e-10 1.32571e-09)
(4.63264e-10 -1.07947e-09 1.64162e-09)
(2.18254e-10 -1.04207e-09 1.64462e-09)
(-2.00137e-10 -1.00755e-09 1.59749e-09)
(-5.98068e-10 -9.54684e-10 1.53853e-09)
(-7.686e-10 -9.2528e-10 1.48008e-09)
(4.68611e-10 -1.31351e-09 1.71241e-09)
(2.22845e-10 -1.29536e-09 1.71041e-09)
(-2.25316e-10 -1.24946e-09 1.67164e-09)
(-6.51882e-10 -1.18323e-09 1.61229e-09)
(-8.3772e-10 -1.13508e-09 1.55805e-09)
(9.31377e-11 1.17781e-10 7.28781e-11)
(0 0 0)
(0 0 0)
(0 0 0)
(-6.15228e-11 1.09738e-10 6.0394e-11)
(2.58637e-10 1.85954e-10 2.7419e-10)
(0 0 0)
(0 0 0)
(0 0 0)
(-2.01385e-10 1.84294e-10 2.32224e-10)
(3.49972e-10 4.80859e-11 5.11983e-10)
(0 0 0)
(0 0 0)
(0 0 0)
(-3.11007e-10 7.5567e-11 4.41551e-10)
(3.65886e-10 -1.29832e-10 7.17196e-10)
(0 0 0)
(0 0 0)
(0 0 0)
(-3.56936e-10 -7.40011e-11 6.26736e-10)
(3.5906e-10 -3.09442e-10 9.04226e-10)
(0 0 0)
(0 0 0)
(0 0 0)
(-3.90979e-10 -2.267e-10 7.97981e-10)
(3.65423e-10 -5.0371e-10 1.08783e-09)
(0 0 0)
(0 0 0)
(0 0 0)
(-4.49308e-10 -3.94134e-10 9.67732e-10)
(4.08114e-10 -7.60214e-10 1.26935e-09)
(0 0 0)
(0 0 0)
(0 0 0)
(-5.54975e-10 -6.21987e-10 1.13654e-09)
(4.65695e-10 -1.11171e-09 1.41815e-09)
(0 0 0)
(0 0 0)
(0 0 0)
(-6.86053e-10 -9.37886e-10 1.27507e-09)
(4.57107e-10 -1.33352e-09 1.48913e-09)
(2.09889e-10 -1.33117e-09 1.49127e-09)
(-2.08289e-10 -1.2763e-09 1.46355e-09)
(-6.06141e-10 -1.20976e-09 1.41711e-09)
(-7.74912e-10 -1.14496e-09 1.35992e-09)
(6.24827e-11 6.10579e-11 2.98403e-11)
(0 0 0)
(0 0 0)
(0 0 0)
(-2.8884e-11 5.21587e-11 2.31437e-11)
(1.79848e-10 5.95016e-11 1.43869e-10)
(0 0 0)
(0 0 0)
(0 0 0)
(-1.12707e-10 5.55647e-11 1.18616e-10)
(2.48614e-10 -8.73986e-11 3.1877e-10)
(0 0 0)
(0 0 0)
(0 0 0)
(-1.88965e-10 -6.34589e-11 2.72244e-10)
(2.5851e-10 -2.54003e-10 4.96032e-10)
(0 0 0)
(0 0 0)
(0 0 0)
(-2.19934e-10 -2.02762e-10 4.32503e-10)
(2.51381e-10 -4.15885e-10 6.64132e-10)
(0 0 0)
(0 0 0)
(0 0 0)
(-2.46085e-10 -3.38254e-10 5.86464e-10)
(2.61745e-10 -5.81996e-10 8.22372e-10)
(0 0 0)
(0 0 0)
(0 0 0)
(-3.01711e-10 -4.77965e-10 7.32265e-10)
(3.17311e-10 -7.94076e-10 9.64355e-10)
(0 0 0)
(0 0 0)
(0 0 0)
(-4.1403e-10 -6.62301e-10 8.63399e-10)
(3.99581e-10 -1.09749e-09 1.06548e-09)
(0 0 0)
(0 0 0)
(0 0 0)
(-5.63552e-10 -9.31753e-10 9.56901e-10)
(4.05517e-10 -1.30365e-09 1.10252e-09)
(1.8246e-10 -1.29956e-09 1.10325e-09)
(-1.74672e-10 -1.23847e-09 1.08944e-09)
(-5.12918e-10 -1.18288e-09 1.04992e-09)
(-6.61349e-10 -1.12307e-09 1.00691e-09)
(3.90316e-11 3.16324e-11 1.66749e-11)
(0 0 0)
(0 0 0)
(0 0 0)
(-4.01393e-12 2.00901e-11 1.22068e-11)
(1.1752e-10 -5.14934e-12 9.27749e-11)
(0 0 0)
(0 0 0)
(0 0 0)
(-4.3698e-11 -1.53295e-11 7.57383e-11)
(1.67466e-10 -1.57837e-10 2.25213e-10)
(0 0 0)
(0 0 0)
(0 0 0)
(-9.34419e-11 -1.41539e-10 1.92941e-10)
(1.74838e-10 -3.20294e-10 3.72517e-10)
(0 0 0)
(0 0 0)
(0 0 0)
(-1.14463e-10 -2.77288e-10 3.26827e-10)
(1.70711e-10 -4.68726e-10 5.16301e-10)
(0 0 0)
(0 0 0)
(0 0 0)
(-1.36819e-10 -3.99529e-10 4.587e-10)
(1.86667e-10 -6.1009e-10 6.46044e-10)
(0 0 0)
(0 0 0)
(0 0 0)
(-1.91903e-10 -5.14638e-10 5.77816e-10)
(2.51194e-10 -7.86368e-10 7.4963e-10)
(0 0 0)
(0 0 0)
(0 0 0)
(-3.07591e-10 -6.63513e-10 6.72437e-10)
(3.46541e-10 -1.0515e-09 8.07855e-10)
(0 0 0)
(0 0 0)
(0 0 0)
(-4.64945e-10 -8.95188e-10 7.24916e-10)
(3.60632e-10 -1.24347e-09 8.16922e-10)
(1.59801e-10 -1.24278e-09 8.15514e-10)
(-1.48522e-10 -1.1826e-09 8.1003e-10)
(-4.38252e-10 -1.13091e-09 7.75816e-10)
(-5.66541e-10 -1.07132e-09 7.44763e-10)
(2.70883e-11 1.81656e-11 1.49566e-11)
(0 0 0)
(0 0 0)
(0 0 0)
(8.97297e-12 4.46574e-12 1.18331e-11)
(8.62547e-11 -3.26096e-11 7.63975e-11)
(0 0 0)
(0 0 0)
(0 0 0)
(-7.87428e-12 -4.83942e-11 6.46004e-11)
(1.28115e-10 -1.85372e-10 1.79947e-10)
(0 0 0)
(0 0 0)
(0 0 0)
(-4.42929e-11 -1.76589e-10 1.57476e-10)
(1.36875e-10 -3.44726e-10 2.96376e-10)
(0 0 0)
(0 0 0)
(0 0 0)
(-6.11104e-11 -3.1008e-10 2.6396e-10)
(1.37689e-10 -4.84253e-10 4.1082e-10)
(0 0 0)
(0 0 0)
(0 0 0)
(-8.28929e-11 -4.23669e-10 3.69092e-10)
(1.59418e-10 -6.09849e-10 5.10786e-10)
(0 0 0)
(0 0 0)
(0 0 0)
(-1.3857e-10 -5.23018e-10 4.60553e-10)
(2.29262e-10 -7.65311e-10 5.83533e-10)
(0 0 0)
(0 0 0)
(0 0 0)
(-2.54804e-10 -6.51002e-10 5.26179e-10)
(3.28892e-10 -1.0089e-09 6.16171e-10)
(0 0 0)
(0 0 0)
(0 0 0)
(-4.12037e-10 -8.60973e-10 5.54402e-10)
(3.44902e-10 -1.19325e-09 6.12334e-10)
(1.5548e-10 -1.19865e-09 6.06914e-10)
(-1.28707e-10 -1.14295e-09 6.02828e-10)
(-3.94182e-10 -1.09082e-09 5.77651e-10)
(-5.12189e-10 -1.02827e-09 5.58812e-10)
(2.21096e-11 1.31393e-11 1.33802e-11)
(0 0 0)
(0 0 0)
(0 0 0)
(1.4639e-11 -2.01539e-12 1.12704e-11)
(7.37581e-11 -4.13311e-11 6.23962e-11)
(0 0 0)
(0 0 0)
(0 0 0)
(7.55321e-12 -6.11618e-11 5.44702e-11)
(1.13817e-10 -1.91233e-10 1.40045e-10)
(0 0 0)
(0 0 0)
(0 0 0)
(-2.36308e-11 -1.8831e-10 1.24918e-10)
(1.25545e-10 -3.46898e-10 2.25642e-10)
(0 0 0)
(0 0 0)
(0 0 0)
(-3.94825e-11 -3.19088e-10 2.03591e-10)
(1.3112e-10 -4.8066e-10 3.09249e-10)
(0 0 0)
(0 0 0)
(0 0 0)
(-6.18965e-11 -4.2728e-10 2.80469e-10)
(1.57409e-10 -5.98029e-10 3.80604e-10)
(0 0 0)
(0 0 0)
(0 0 0)
(-1.18094e-10 -5.1841e-10 3.45532e-10)
(2.30088e-10 -7.43952e-10 4.2964e-10)
(0 0 0)
(0 0 0)
(0 0 0)
(-2.33372e-10 -6.36644e-10 3.89264e-10)
(3.30428e-10 -9.77695e-10 4.48675e-10)
(0 0 0)
(0 0 0)
(0 0 0)
(-3.87784e-10 -8.36407e-10 4.0502e-10)
(3.46736e-10 -1.1581e-09 4.41883e-10)
(1.62057e-10 -1.16784e-09 4.34304e-10)
(-1.14235e-10 -1.11623e-09 4.29725e-10)
(-3.71646e-10 -1.06312e-09 4.13699e-10)
(-4.85631e-10 -9.98676e-10 4.04087e-10)
(2.03016e-11 1.1648e-11 9.94907e-12)
(0 0 0)
(0 0 0)
(0 0 0)
(1.68641e-11 -4.41326e-12 8.65066e-12)
(6.962e-11 -4.26243e-11 4.41311e-11)
(0 0 0)
(0 0 0)
(0 0 0)
(1.34696e-11 -6.50798e-11 3.92589e-11)
(1.10186e-10 -1.88976e-10 9.593e-11)
(0 0 0)
(0 0 0)
(0 0 0)
(-1.60814e-11 -1.90043e-10 8.66112e-11)
(1.24682e-10 -3.41012e-10 1.51789e-10)
(0 0 0)
(0 0 0)
(0 0 0)
(-3.21278e-11 -3.18035e-10 1.38118e-10)
(1.33788e-10 -4.71105e-10 2.05807e-10)
(0 0 0)
(0 0 0)
(0 0 0)
(-5.52516e-11 -4.22936e-10 1.87805e-10)
(1.63132e-10 -5.84749e-10 2.51222e-10)
(0 0 0)
(0 0 0)
(0 0 0)
(-1.11648e-10 -5.10385e-10 2.29095e-10)
(2.37306e-10 -7.27146e-10 2.8154e-10)
(0 0 0)
(0 0 0)
(0 0 0)
(-2.25688e-10 -6.24905e-10 2.55901e-10)
(3.37418e-10 -9.56883e-10 2.92533e-10)
(0 0 0)
(0 0 0)
(0 0 0)
(-3.77307e-10 -8.20334e-10 2.64711e-10)
(3.53603e-10 -1.13531e-09 2.87007e-10)
(1.70583e-10 -1.14752e-09 2.80328e-10)
(-1.04401e-10 -1.0986e-09 2.76281e-10)
(-3.60371e-10 -1.04496e-09 2.6721e-10)
(-4.73176e-10 -9.79791e-10 2.62913e-10)
(1.97198e-11 1.13402e-11 5.24948e-12)
(0 0 0)
(0 0 0)
(0 0 0)
(1.76721e-11 -5.21525e-12 4.63247e-12)
(6.84782e-11 -4.19571e-11 2.27421e-11)
(0 0 0)
(0 0 0)
(0 0 0)
(1.55669e-11 -6.58752e-11 2.04256e-11)
(1.09799e-10 -1.85611e-10 4.8613e-11)
(0 0 0)
(0 0 0)
(0 0 0)
(-1.35735e-11 -1.88963e-10 4.41744e-11)
(1.26072e-10 -3.35063e-10 7.61021e-11)
(0 0 0)
(0 0 0)
(0 0 0)
(-2.9947e-11 -3.14917e-10 6.9566e-11)
(1.37247e-10 -4.63079e-10 1.02481e-10)
(0 0 0)
(0 0 0)
(0 0 0)
(-5.35047e-11 -4.18014e-10 9.38304e-11)
(1.68298e-10 -5.75242e-10 1.24477e-10)
(0 0 0)
(0 0 0)
(0 0 0)
(-1.09913e-10 -5.04031e-10 1.13791e-10)
(2.43226e-10 -7.16606e-10 1.38985e-10)
(0 0 0)
(0 0 0)
(0 0 0)
(-2.23059e-10 -6.17405e-10 1.26551e-10)
(3.43075e-10 -9.44865e-10 1.44114e-10)
(0 0 0)
(0 0 0)
(0 0 0)
(-3.72876e-10 -8.11145e-10 1.30588e-10)
(3.59084e-10 -1.12241e-09 1.41196e-10)
(1.76557e-10 -1.13583e-09 1.37445e-10)
(-9.87054e-11 -1.08832e-09 1.3513e-10)
(-3.54873e-10 -1.03455e-09 1.3107e-10)
(-4.67467e-10 -9.69193e-10 1.29478e-10)
(2.35631e-11 5.95515e-12 0)
(9.31601e-12 -8.51628e-12 0)
(6.68532e-13 -1.53456e-11 0)
(-3.37652e-12 -1.3665e-11 0)
(8.44168e-12 -1.11286e-11 0)
(6.15123e-11 -5.25277e-11 0)
(3.3713e-11 -7.65801e-11 0)
(4.65732e-12 -9.065e-11 0)
(-1.34578e-11 -8.4228e-11 0)
(-3.74045e-12 -7.13678e-11 0)
(9.88751e-11 -1.89862e-10 0)
(5.54046e-11 -2.06815e-10 0)
(9.67028e-12 -2.17635e-10 0)
(-2.35455e-11 -2.06737e-10 0)
(-2.82379e-11 -1.92311e-10 0)
(1.13365e-10 -3.35189e-10 0)
(6.27432e-11 -3.4523e-10 0)
(9.98263e-12 -3.49826e-10 0)
(-3.05837e-11 -3.34223e-10 0)
(-4.25557e-11 -3.17566e-10 0)
(1.23045e-10 -4.64304e-10 0)
(6.52231e-11 -4.75966e-10 0)
(3.76034e-12 -4.77447e-10 0)
(-4.56471e-11 -4.52858e-10 0)
(-6.45215e-11 -4.25128e-10 0)
(1.52004e-10 -5.83196e-10 0)
(7.84042e-11 -6.03687e-10 0)
(-9.59735e-12 -6.03704e-10 0)
(-8.52695e-11 -5.67752e-10 0)
(-1.18962e-10 -5.2131e-10 0)
(2.21797e-10 -7.31666e-10 0)
(1.15015e-10 -7.56318e-10 0)
(-3.06455e-11 -7.49713e-10 0)
(-1.62951e-10 -7.06346e-10 0)
(-2.27612e-10 -6.45215e-10 0)
(3.14033e-10 -9.57173e-10 0)
(1.62722e-10 -9.67161e-10 0)
(-6.0083e-11 -9.43755e-10 0)
(-2.67024e-10 -8.98742e-10 0)
(-3.71504e-10 -8.395e-10 0)
(3.48799e-10 -1.11373e-09 0)
(1.81933e-10 -1.11104e-09 0)
(-8.69149e-11 -1.07025e-09 0)
(-3.37404e-10 -1.02091e-09 0)
(-4.58209e-10 -9.72364e-10 0)
)
;

boundaryField
{
    interface
    {
        type            calculated;
    }
    symmetry
    {
        type            symmetry;
    }
    bottom
    {
        type            calculated;
    }
}


// ************************************************************************* //
