/*--------------------------------*- C++ -*----------------------------------*\
| =========                 |                                                 |
| \\      /  F ield         | OpenFOAM: The Open Source CFD Toolbox           |
|  \\    /   O peration     | Version:  v1912                                 |
|   \\  /    A nd           | Website:  www.openfoam.com                      |
|    \\/     M anipulation  |                                                 |
\*---------------------------------------------------------------------------*/
FoamFile
{
    version     2.0;
    format      ascii;
    class       pointVectorField;
    location    "0.99/solid";
    object      pointD;
}
// * * * * * * * * * * * * * * * * * * * * * * * * * * * * * * * * * * * * * //

dimensions      [0 1 0 0 0 0 0];


internalField   nonuniform List<vector> 
405
(
(4.16663e-08 4.5926e-08 4.33943e-08)
(9.23713e-09 3.08895e-08 4.60154e-08)
(-1.33341e-10 2.57588e-08 4.32957e-08)
(-9.14689e-09 3.00842e-08 4.46627e-08)
(-3.91109e-08 4.41566e-08 4.17376e-08)
(7.26857e-08 5.73623e-08 8.18599e-08)
(2.57321e-08 5.28548e-08 1.08059e-07)
(-1.67353e-10 4.45661e-08 1.02375e-07)
(-2.52207e-08 5.13787e-08 1.05227e-07)
(-6.83379e-08 5.49495e-08 7.91044e-08)
(8.49717e-08 3.36145e-08 1.09642e-07)
(3.42716e-08 3.36592e-08 1.35145e-07)
(1.0516e-10 2.91186e-08 1.2883e-07)
(-3.30811e-08 3.24563e-08 1.32082e-07)
(-7.97122e-08 3.16669e-08 1.06465e-07)
(8.71457e-08 1.17321e-08 1.29731e-07)
(3.52065e-08 1.41615e-08 1.55438e-07)
(4.32252e-10 1.19724e-08 1.48383e-07)
(-3.3359e-08 1.31973e-08 1.5219e-07)
(-8.11343e-08 1.01701e-08 1.26292e-07)
(8.8059e-08 -6.58265e-09 1.47814e-07)
(3.49483e-08 -4.16567e-09 1.73941e-07)
(7.05655e-10 -5.93827e-09 1.66221e-07)
(-3.2546e-08 -4.94411e-09 1.70539e-07)
(-8.1397e-08 -7.83636e-09 1.44157e-07)
(9.21335e-08 -2.46564e-08 1.6691e-07)
(3.67044e-08 -2.34264e-08 1.93727e-07)
(9.02355e-10 -2.56545e-08 1.85462e-07)
(-3.38944e-08 -2.40339e-08 1.90172e-07)
(-8.49648e-08 -2.56075e-08 1.63031e-07)
(1.02449e-07 -4.90306e-08 1.88789e-07)
(4.25263e-08 -4.87001e-08 2.16988e-07)
(9.9352e-10 -5.07356e-08 2.08603e-07)
(-3.9513e-08 -4.90934e-08 2.13269e-07)
(-9.49697e-08 -4.95992e-08 1.84664e-07)
(1.19658e-07 -9.88367e-08 2.12544e-07)
(5.2137e-08 -9.73724e-08 2.44362e-07)
(9.13279e-10 -9.68827e-08 2.37131e-07)
(-4.92221e-08 -9.71767e-08 2.40505e-07)
(-1.12108e-07 -9.84765e-08 2.08192e-07)
(1.1763e-07 -1.60375e-07 2.13155e-07)
(5.77093e-08 -1.69858e-07 2.23432e-07)
(9.40858e-10 -1.6573e-07 2.18838e-07)
(-5.46924e-08 -1.68051e-07 2.20656e-07)
(-1.11152e-07 -1.58206e-07 2.09373e-07)
(4.08877e-08 2.52464e-08 9.4813e-09)
(0 0 0)
(0 0 0)
(0 0 0)
(-3.7499e-08 2.39562e-08 9.20933e-09)
(8.96667e-08 3.98422e-08 3.27272e-08)
(2.16614e-08 2.11526e-08 3.71806e-08)
(1.15972e-10 1.41249e-08 3.68015e-08)
(-2.06654e-08 2.00772e-08 3.67308e-08)
(-8.22975e-08 3.7454e-08 3.19223e-08)
(9.94708e-08 1.84316e-08 5.66258e-08)
(2.88679e-08 1.17205e-08 6.25547e-08)
(5.09392e-10 7.70653e-09 6.21869e-08)
(-2.69732e-08 1.0688e-08 6.18998e-08)
(-9.10396e-08 1.64192e-08 5.54296e-08)
(1.01741e-07 -1.04789e-09 7.516e-08)
(2.96201e-08 -2.93273e-09 8.1278e-08)
(9.0262e-10 -4.83144e-09 8.07983e-08)
(-2.69413e-08 -3.81207e-09 8.05144e-08)
(-9.24141e-08 -2.72346e-09 7.37392e-08)
(1.0339e-07 -1.76935e-08 9.1642e-08)
(2.94602e-08 -1.97323e-08 9.75942e-08)
(1.22949e-09 -2.12795e-08 9.68846e-08)
(-2.61205e-08 -2.04477e-08 9.67401e-08)
(-9.32692e-08 -1.90589e-08 9.00308e-08)
(1.08625e-07 -3.39595e-08 1.08392e-07)
(3.13627e-08 -3.88539e-08 1.14101e-07)
(1.47969e-09 -4.09509e-08 1.13129e-07)
(-2.7507e-08 -3.94016e-08 1.13147e-07)
(-9.7848e-08 -3.49925e-08 1.06576e-07)
(1.20898e-07 -5.50414e-08 1.26378e-07)
(3.73706e-08 -6.30296e-08 1.31845e-07)
(1.62837e-09 -6.51205e-08 1.30723e-07)
(-3.31934e-08 -6.33703e-08 1.30777e-07)
(-1.09646e-07 -5.56535e-08 1.24333e-07)
(1.42093e-07 -9.90853e-08 1.43141e-07)
(4.71657e-08 -1.04858e-07 1.48482e-07)
(1.60754e-09 -1.0434e-07 1.47507e-07)
(-4.29636e-08 -1.04655e-07 1.47307e-07)
(-1.30577e-07 -9.87475e-08 1.40873e-07)
(1.2003e-07 -1.68616e-07 1.52775e-07)
(5.26055e-08 -2.0083e-07 1.54315e-07)
(1.3874e-09 -1.94061e-07 1.53368e-07)
(-4.87403e-08 -1.97908e-07 1.5313e-07)
(-1.11756e-07 -1.65927e-07 1.50703e-07)
(3.23967e-08 1.4266e-08 1.54364e-09)
(0 0 0)
(0 0 0)
(0 0 0)
(-2.90461e-08 1.30962e-08 1.50562e-09)
(7.05943e-08 1.9258e-08 1.16456e-08)
(1.45082e-08 5.41359e-09 1.76373e-08)
(2.41917e-10 -3.87566e-10 1.90032e-08)
(-1.33074e-08 4.52128e-09 1.75295e-08)
(-6.32492e-08 1.70531e-08 1.14372e-08)
(7.76093e-08 1.20783e-09 2.91757e-08)
(1.94221e-08 -3.86847e-09 3.71299e-08)
(7.22144e-10 -7.2355e-09 3.9037e-08)
(-1.71683e-08 -4.80256e-09 3.68978e-08)
(-6.90978e-08 -7.34527e-10 2.87294e-08)
(7.89292e-08 -1.50037e-08 4.61491e-08)
(1.97028e-08 -1.64661e-08 5.44928e-08)
(1.18126e-09 -1.81509e-08 5.6515e-08)
(-1.65421e-08 -1.73127e-08 5.41672e-08)
(-6.94184e-08 -1.66954e-08 4.55109e-08)
(8.01932e-08 -2.9272e-08 6.1557e-08)
(1.94535e-08 -3.12131e-08 6.9884e-08)
(1.56378e-09 -3.27239e-08 7.18505e-08)
(-1.55237e-08 -3.19312e-08 6.94772e-08)
(-6.97791e-08 -3.07021e-08 6.07459e-08)
(8.53562e-08 -4.281e-08 7.61276e-08)
(2.1335e-08 -4.77897e-08 8.43394e-08)
(1.8649e-09 -4.99321e-08 8.61917e-08)
(-1.67849e-08 -4.83629e-08 8.38465e-08)
(-7.41589e-08 -4.39429e-08 7.5135e-08)
(9.82381e-08 -5.92292e-08 8.95877e-08)
(2.75151e-08 -6.7521e-08 9.75878e-08)
(2.06268e-09 -6.96727e-08 9.93268e-08)
(-2.25377e-08 -6.79139e-08 9.70051e-08)
(-8.64182e-08 -5.99826e-08 8.84056e-08)
(1.21382e-07 -9.56408e-08 9.88956e-08)
(3.7786e-08 -1.01544e-07 1.06586e-07)
(2.09065e-09 -1.00876e-07 1.08258e-07)
(-3.26746e-08 -1.01432e-07 1.05939e-07)
(-1.09135e-07 -9.54988e-08 9.75591e-08)
(1.03277e-07 -1.58181e-07 1.02904e-07)
(4.34148e-08 -1.86819e-07 1.05658e-07)
(1.92314e-09 -1.78893e-07 1.07267e-07)
(-3.85287e-08 -1.83997e-07 1.05046e-07)
(-9.41105e-08 -1.55672e-07 1.01743e-07)
(2.7212e-08 9.86386e-09 1.06259e-09)
(0 0 0)
(0 0 0)
(0 0 0)
(-2.39377e-08 8.714e-09 1.051e-09)
(5.88862e-08 1.01653e-08 8.26946e-09)
(9.91947e-09 -4.97815e-10 1.21478e-08)
(2.80893e-10 -5.41978e-09 1.34659e-08)
(-8.66203e-09 -1.35531e-09 1.20908e-08)
(-5.16583e-08 7.97856e-09 8.17878e-09)
(6.42821e-08 -7.93758e-09 2.18986e-08)
(1.32936e-08 -1.19152e-08 2.70868e-08)
(8.04819e-10 -1.47963e-08 2.89241e-08)
(-1.09005e-08 -1.28346e-08 2.69518e-08)
(-5.58087e-08 -9.90809e-09 2.16641e-08)
(6.53505e-08 -2.32954e-08 3.65972e-08)
(1.33493e-08 -2.45717e-08 4.19837e-08)
(1.31173e-09 -2.61193e-08 4.39382e-08)
(-9.95599e-09 -2.54321e-08 4.17732e-08)
(-5.57872e-08 -2.50607e-08 3.62117e-08)
(6.67293e-08 -3.58584e-08 5.03697e-08)
(1.31833e-08 -3.78787e-08 5.56454e-08)
(1.74171e-09 -3.94094e-08 5.75685e-08)
(-8.92666e-09 -3.86359e-08 5.53628e-08)
(-5.61639e-08 -3.73995e-08 4.98335e-08)
(7.21521e-08 -4.6642e-08 6.26261e-08)
(1.51826e-08 -5.17866e-08 6.77372e-08)
(2.08801e-09 -5.40085e-08 6.95827e-08)
(-1.02127e-08 -5.24204e-08 6.73814e-08)
(-6.06915e-08 -4.7918e-08 6.19351e-08)
(8.5524e-08 -5.91978e-08 7.23743e-08)
(2.15206e-08 -6.77034e-08 7.73228e-08)
(2.32876e-09 -6.99637e-08 7.9081e-08)
(-1.60311e-08 -6.8177e-08 7.68983e-08)
(-7.33122e-08 -6.0125e-08 7.1533e-08)
(1.0933e-07 -9.09658e-08 7.74141e-08)
(3.19685e-08 -9.71134e-08 8.2262e-08)
(2.39908e-09 -9.6585e-08 8.39605e-08)
(-2.62512e-08 -9.70975e-08 8.17989e-08)
(-9.65519e-08 -9.10205e-08 7.64646e-08)
(9.31524e-08 -1.49682e-07 7.85085e-08)
(3.77851e-08 -1.77004e-07 8.05191e-08)
(2.27847e-09 -1.69168e-07 8.23213e-08)
(-3.21945e-08 -1.74295e-07 8.00944e-08)
(-8.33354e-08 -1.47358e-07 7.76939e-08)
(2.45558e-08 8.17421e-09 1.37124e-09)
(0 0 0)
(0 0 0)
(0 0 0)
(-2.13417e-08 7.02814e-09 1.36334e-09)
(5.29295e-08 6.64096e-09 7.59484e-09)
(7.94428e-09 -2.52961e-09 9.44793e-09)
(2.92624e-10 -6.96079e-09 1.02355e-08)
(-6.6764e-09 -3.39133e-09 9.4083e-09)
(-4.58109e-08 4.43888e-09 7.54213e-09)
(5.76516e-08 -1.1742e-08 1.83309e-08)
(1.06809e-08 -1.52435e-08 2.07793e-08)
(8.36926e-10 -1.78636e-08 2.18701e-08)
(-8.23797e-09 -1.61819e-08 2.06897e-08)
(-4.92494e-08 -1.37682e-08 1.81915e-08)
(5.8849e-08 -2.70191e-08 3.01064e-08)
(1.07624e-08 -2.83211e-08 3.25584e-08)
(1.37447e-09 -2.98177e-08 3.36994e-08)
(-7.25777e-09 -2.92154e-08 3.24141e-08)
(-4.92945e-08 -2.88718e-08 2.98607e-08)
(6.05654e-08 -3.86779e-08 4.13143e-08)
(1.07961e-08 -4.08663e-08 4.35944e-08)
(1.84045e-09 -4.24412e-08 4.46904e-08)
(-6.35557e-09 -4.16727e-08 4.3393e-08)
(-4.99313e-08 -4.0333e-08 4.09515e-08)
(6.63323e-08 -4.77532e-08 5.09163e-08)
(1.29768e-08 -5.30544e-08 5.30239e-08)
(2.22388e-09 -5.53508e-08 5.40521e-08)
(-7.74688e-09 -5.37517e-08 5.27646e-08)
(-5.47134e-08 -4.91657e-08 5.04315e-08)
(7.99699e-08 -5.82275e-08 5.78373e-08)
(1.94035e-08 -6.68393e-08 5.98536e-08)
(2.50094e-09 -6.92082e-08 6.08223e-08)
(-1.35772e-08 -6.73872e-08 5.95432e-08)
(-6.74984e-08 -5.9308e-08 5.7238e-08)
(1.03808e-07 -8.77943e-08 6.08514e-08)
(2.98172e-08 -9.41536e-08 6.29124e-08)
(2.60689e-09 -9.38528e-08 6.3865e-08)
(-2.36862e-08 -9.42165e-08 6.25765e-08)
(-9.06607e-08 -8.80086e-08 6.01739e-08)
(8.87244e-08 -1.44339e-07 6.0941e-08)
(3.57519e-08 -1.71034e-07 6.18295e-08)
(2.52378e-09 -1.63627e-07 6.29328e-08)
(-2.96692e-08 -1.68412e-07 6.15246e-08)
(-7.84485e-08 -1.42159e-07 6.03595e-08)
(2.32468e-08 7.51776e-09 1.33716e-09)
(0 0 0)
(0 0 0)
(0 0 0)
(-2.0073e-08 6.37513e-09 1.33143e-09)
(5.00955e-08 5.39077e-09 6.38836e-09)
(7.29184e-09 -3.21294e-09 7.14322e-09)
(2.96069e-10 -7.41122e-09 7.52034e-09)
(-6.02528e-09 -4.08247e-09 7.11631e-09)
(-4.30554e-08 3.17605e-09 6.3555e-09)
(5.46763e-08 -1.29515e-08 1.44189e-08)
(9.88547e-09 -1.63355e-08 1.53643e-08)
(8.4998e-10 -1.88499e-08 1.58734e-08)
(-7.42564e-09 -1.72962e-08 1.53056e-08)
(-4.63356e-08 -1.50252e-08 1.43339e-08)
(5.61177e-08 -2.81544e-08 2.30911e-08)
(1.00967e-08 -2.95705e-08 2.39548e-08)
(1.40603e-09 -3.10714e-08 2.44652e-08)
(-6.53774e-09 -3.04989e-08 2.38595e-08)
(-4.65856e-08 -3.00813e-08 2.29368e-08)
(5.817e-08 -3.93918e-08 3.13539e-08)
(1.03294e-08 -4.17439e-08 3.20589e-08)
(1.89698e-09 -4.33684e-08 3.25216e-08)
(-5.78397e-09 -4.25944e-08 3.19229e-08)
(-4.75037e-08 -4.11415e-08 3.11176e-08)
(6.42142e-08 -4.77054e-08 3.82891e-08)
(1.2663e-08 -5.31157e-08 3.88626e-08)
(2.30835e-09 -5.54689e-08 3.92727e-08)
(-7.27112e-09 -5.38655e-08 3.86849e-08)
(-5.24972e-08 -4.92276e-08 3.79649e-08)
(7.79575e-08 -5.7364e-08 4.30599e-08)
(1.91212e-08 -6.60088e-08 4.35956e-08)
(2.61386e-09 -6.84532e-08 4.39714e-08)
(-1.30735e-08 -6.66145e-08 4.33815e-08)
(-6.53132e-08 -5.8563e-08 4.26533e-08)
(1.01627e-07 -8.59969e-08 4.50428e-08)
(2.94404e-08 -9.24725e-08 4.56609e-08)
(2.74781e-09 -9.23433e-08 4.60428e-08)
(-2.30286e-08 -9.25935e-08 4.54294e-08)
(-8.82278e-08 -8.63298e-08 4.45809e-08)
(8.7173e-08 -1.41241e-07 4.49465e-08)
(3.54234e-08 -1.67538e-07 4.51575e-08)
(2.69286e-09 -1.60491e-07 4.56531e-08)
(-2.90014e-08 -1.64976e-07 4.49481e-08)
(-7.65807e-08 -1.39165e-07 4.45492e-08)
(2.2588e-08 7.25737e-09 1.00912e-09)
(0 0 0)
(0 0 0)
(0 0 0)
(-1.94388e-08 6.1177e-09 1.0055e-09)
(4.87335e-08 4.99608e-09 4.53439e-09)
(7.11261e-09 -3.41673e-09 4.82174e-09)
(2.96738e-10 -7.5134e-09 4.98084e-09)
(-5.84941e-09 -4.29162e-09 4.80526e-09)
(-4.17428e-08 2.77423e-09 4.51497e-09)
(5.33561e-08 -1.3145e-08 9.8723e-09)
(9.72756e-09 -1.65425e-08 1.0195e-08)
(8.55184e-10 -1.90256e-08 1.03993e-08)
(-7.26266e-09 -1.75195e-08 1.01596e-08)
(-4.50569e-08 -1.52504e-08 9.82294e-09)
(5.50109e-08 -2.82018e-08 1.55258e-08)
(1.00649e-08 -2.97303e-08 1.57661e-08)
(1.42188e-09 -3.12541e-08 1.59551e-08)
(-6.47934e-09 -3.06841e-08 1.57084e-08)
(-4.54973e-08 -3.01808e-08 1.54353e-08)
(5.73053e-08 -3.9248e-08 2.08845e-08)
(1.04414e-08 -4.17184e-08 2.10154e-08)
(1.92869e-09 -4.33836e-08 2.11681e-08)
(-5.83713e-09 -4.26015e-08 2.09322e-08)
(-4.66223e-08 -4.1065e-08 2.0743e-08)
(6.3526e-08 -4.73193e-08 2.53386e-08)
(1.28737e-08 -5.27928e-08 2.53893e-08)
(2.35902e-09 -5.51829e-08 2.55082e-08)
(-7.38425e-09 -5.35802e-08 2.52793e-08)
(-5.17479e-08 -4.89189e-08 2.5141e-08)
(7.72976e-08 -5.67692e-08 2.83576e-08)
(1.93366e-08 -6.54125e-08 2.83972e-08)
(2.68461e-09 -6.78983e-08 2.84991e-08)
(-1.31499e-08 -6.60582e-08 2.82639e-08)
(-6.45418e-08 -5.80502e-08 2.81069e-08)
(1.00794e-07 -8.50331e-08 2.96297e-08)
(2.95729e-08 -9.15508e-08 2.97364e-08)
(2.83845e-09 -9.15174e-08 2.98485e-08)
(-2.29805e-08 -9.17113e-08 2.9592e-08)
(-8.72302e-08 -8.54469e-08 2.93434e-08)
(8.66862e-08 -1.39511e-07 2.95711e-08)
(3.55625e-08 -1.65529e-07 2.95413e-08)
(2.80288e-09 -1.58697e-07 2.9718e-08)
(-2.89196e-08 -1.63006e-07 2.9411e-08)
(-7.5887e-08 -1.37504e-07 2.93244e-08)
(2.22688e-08 7.15519e-09 5.33053e-10)
(0 0 0)
(0 0 0)
(0 0 0)
(-1.91328e-08 6.01735e-09 5.31331e-10)
(4.8093e-08 4.89405e-09 2.33378e-09)
(7.06496e-09 -3.45578e-09 2.43278e-09)
(2.96614e-10 -7.51077e-09 2.48952e-09)
(-5.80434e-09 -4.33358e-09 2.425e-09)
(-4.1129e-08 2.66871e-09 2.32475e-09)
(5.27706e-08 -1.30642e-08 4.99351e-09)
(9.71778e-09 -1.6493e-08 5.09136e-09)
(8.57064e-10 -1.89707e-08 5.15997e-09)
(-7.25175e-09 -1.74795e-08 5.07476e-09)
(-4.44945e-08 -1.51871e-08 4.97074e-09)
(5.45561e-08 -2.79904e-08 7.77316e-09)
(1.01347e-08 -2.95912e-08 7.82497e-09)
(1.42922e-09 -3.11345e-08 7.88207e-09)
(-6.53687e-09 -3.05602e-08 7.79787e-09)
(-4.50537e-08 -2.99994e-08 7.73122e-09)
(5.69872e-08 -3.89525e-08 1.03945e-08)
(1.05921e-08 -4.14899e-08 1.03928e-08)
(1.94472e-09 -4.31803e-08 1.0431e-08)
(-5.95806e-09 -4.23924e-08 1.03535e-08)
(-4.62958e-08 -4.08088e-08 1.03283e-08)
(6.32999e-08 -4.69799e-08 1.25646e-08)
(1.30762e-08 -5.24843e-08 1.25264e-08)
(2.38591e-09 -5.48942e-08 1.25486e-08)
(-7.53482e-09 -5.3294e-08 1.24741e-08)
(-5.14882e-08 -4.86249e-08 1.24713e-08)
(7.70737e-08 -5.64226e-08 1.40329e-08)
(1.95369e-08 -6.50563e-08 1.39928e-08)
(2.72332e-09 -6.75607e-08 1.40083e-08)
(-1.32739e-08 -6.57253e-08 1.39291e-08)
(-6.42554e-08 -5.77514e-08 1.39136e-08)
(1.00457e-07 -8.45549e-08 1.46654e-08)
(2.97222e-08 -9.10801e-08 1.46605e-08)
(2.88895e-09 -9.10898e-08 1.46823e-08)
(-2.30291e-08 -9.12633e-08 1.45913e-08)
(-8.68002e-08 -8.50154e-08 1.45287e-08)
(8.65207e-08 -1.38632e-07 1.46506e-08)
(3.57046e-08 -1.64479e-07 1.45999e-08)
(2.86467e-09 -1.57748e-07 1.46492e-08)
(-2.89375e-08 -1.61978e-07 1.45376e-08)
(-7.56046e-08 -1.36664e-07 1.45327e-08)
(1.8125e-08 7.23202e-09 0)
(2.4215e-09 1.3615e-09 0)
(1.69251e-11 -1.05778e-09 0)
(-2.1011e-09 9.73152e-10 0)
(-1.56325e-08 6.03677e-09 0)
(3.07655e-08 2.64815e-09 0)
(7.05415e-09 -3.45688e-09 0)
(2.96499e-10 -7.50045e-09 0)
(-5.79446e-09 -4.3356e-09 0)
(-2.63246e-08 8.23899e-10 0)
(3.52159e-08 -1.36063e-08 0)
(9.72128e-09 -1.64523e-08 0)
(8.57516e-10 -1.89299e-08 0)
(-7.25513e-09 -1.74418e-08 0)
(-2.94729e-08 -1.5433e-08 0)
(3.64101e-08 -2.80422e-08 0)
(1.01643e-08 -2.95119e-08 0)
(1.43135e-09 -3.10622e-08 0)
(-6.56294e-09 -3.04858e-08 0)
(-2.94907e-08 -2.97895e-08 0)
(3.7988e-08 -3.93661e-08 0)
(1.06474e-08 -4.13835e-08 0)
(1.94961e-09 -4.30822e-08 0)
(-6.00416e-09 -4.22924e-08 0)
(-2.99474e-08 -4.09868e-08 0)
(4.2983e-08 -4.85012e-08 0)
(1.31474e-08 -5.23652e-08 0)
(2.39432e-09 -5.47811e-08 0)
(-7.58961e-09 -5.31821e-08 0)
(-3.39084e-08 -4.99465e-08 0)
(5.46426e-08 -5.94521e-08 0)
(1.96067e-08 -6.49372e-08 0)
(2.73562e-09 -6.74467e-08 0)
(-1.33194e-08 -6.56138e-08 0)
(-4.46716e-08 -6.06323e-08 0)
(7.41184e-08 -8.76833e-08 0)
(2.97752e-08 -9.09336e-08 0)
(2.90515e-09 -9.09553e-08 0)
(-2.30496e-08 -9.11243e-08 0)
(-6.34542e-08 -8.8066e-08 0)
(7.66036e-08 -1.29509e-07 0)
(3.56208e-08 -1.36932e-07 0)
(2.90994e-09 -1.32507e-07 0)
(-2.87899e-08 -1.35581e-07 0)
(-6.66882e-08 -1.28105e-07 0)
)
;

boundaryField
{
    interface
    {
        type            calculated;
    }
    symmetry
    {
        type            symmetry;
    }
    bottom
    {
        type            calculated;
    }
}


// ************************************************************************* //
