/*--------------------------------*- C++ -*----------------------------------*\
| =========                 |                                                 |
| \\      /  F ield         | OpenFOAM: The Open Source CFD Toolbox           |
|  \\    /   O peration     | Version:  v1912                                 |
|   \\  /    A nd           | Website:  www.openfoam.com                      |
|    \\/     M anipulation  |                                                 |
\*---------------------------------------------------------------------------*/
FoamFile
{
    version     2.0;
    format      ascii;
    class       volScalarField;
    location    "0.99/solid";
    object      sigmaEq;
}
// * * * * * * * * * * * * * * * * * * * * * * * * * * * * * * * * * * * * * //

dimensions      [1 -1 -2 0 0 0 0];


internalField   nonuniform List<scalar> 
256
(
708172
488912
479441
666506
389487
319506
313095
359977
374107
287647
281601
344307
389290
280122
274142
358657
398398
279317
273370
367176
384876
273069
267238
353501
294991
235186
230684
266470
72483.6
264727
262593
72742.4
404587
114841
110772
363206
283105
112022
108637
247335
269700
84522.9
81961
234165
269094
56852.3
55368.7
232981
273180
47983.6
47662.7
236319
276944
55746.5
55423.3
239429
253677
58522
59082.6
216768
295354
236095
231430
266357
324951
74241.4
72346.7
283618
266590
68821.9
66230.5
230032
258605
50058.4
48237.6
221981
258217
39085.6
39229.8
220944
264420
43288.2
44551.9
226333
275440
47048.4
47646
236548
276464
55065.4
54809.6
238406
386193
274832
268761
353899
286356
70808
70346.7
246337
250039
67924.5
67135.5
215277
243538
55119
55140.6
208204
242796
50889.9
52365.8
206440
249788
52252.4
54429.2
212377
263101
46391.1
48091.3
224552
271788
45032.2
45279.2
233796
403039
282579
276302
370305
264240
61803.5
61975.8
224912
233966
63289.1
63250.9
200134
229179
54124
54727.6
194549
229460
49902.6
51719.1
193591
238115
48725.2
51163.2
201103
253359
38927
40884.7
215057
265962
42285.6
42128.8
228078
401946
283573
277162
369023
251570
52682.7
53181.8
212454
222340
55438.2
55643.9
188698
218857
46660.8
47417.5
184309
220663
40898.9
42920.6
184819
231130
38087.9
40773.4
194173
248159
27393.1
29352
209914
263600
45447
44535.1
225808
399569
283916
277374
366461
244584
45228.9
45924.5
205473
215217
47844.1
48129.8
181480
212512
37768.3
38612.6
177811
215535
30100.6
32514.2
179547
227348
26561.2
29807.3
190308
245706
16335.8
18443.6
207439
263126
49521.8
48130.1
225406
398469
284216
277581
365221
241449
40819
41625.1
202302
211874
43111.1
43429.9
178032
209535
31623.7
32560.1
174704
213196
22140.2
25136.9
177097
225695
18240.6
22391.1
188586
244740
7548.95
10561.7
206449
263172
51847
50254.4
225490
398182
284391
277711
364863
)
;

boundaryField
{
    interface
    {
        type            calculated;
        value           nonuniform List<scalar> 
192
(
877997
528643
515371
537874
554111
546494
462525
257752
628915
470222
458296
468122
482520
493127
470932
463117
539764
453174
448917
458952
475715
494213
493580
548584
486529
425899
425394
435861
453941
475798
483760
560476
454167
401153
402988
414715
434468
458626
471040
554266
435295
384234
387422
400530
421854
447721
462866
547931
424931
374316
378230
392351
414780
441773
458579
544300
420332
369805
374045
388680
411660
439201
456799
542804
884004
534058
521297
544543
561126
552841
466772
256618
722373
511641
481817
485165
494599
495438
459397
437808
707770
500760
471047
474181
483438
484209
449016
431096
835562
500500
487227
509303
525188
516908
434726
251499
811720
472545
458157
479119
494008
485202
401187
203453
557505
405236
392812
401231
414099
423243
400587
401201
469386
388484
383599
392238
407381
424128
422911
486002
417965
363201
361752
370602
386868
406645
413622
498175
386695
339627
340384
350366
368217
390118
401319
492148
368372
323195
325249
336579
355987
379536
393410
485873
358258
313436
316190
328538
349063
373730
389281
482260
353751
308963
312033
324904
345990
371211
387575
480768
257769
467934
555388
568099
561982
555467
551669
550090
438587
461114
498732
500910
494995
489660
486228
484602
431760
450493
487141
489216
483233
477820
474331
472675
252119
435217
518326
530356
523954
517199
513223
511551
)
;
    }
    symmetry
    {
        type            symmetry;
    }
    bottom
    {
        type            calculated;
        value           nonuniform List<scalar> 
32
(
1.03304e+06
540585
405668
352785
326540
312368
304774
301417
654375
145531
70049.8
65430.2
57066.8
48217.7
40791.8
36293.1
642150
139803
65802.1
62609.8
54572.1
45655.9
37951.8
33161.4
978870
493362
358611
306606
280994
267133
259652
256323
)
;
    }
}


// ************************************************************************* //
