/*--------------------------------*- C++ -*----------------------------------*\
| =========                 |                                                 |
| \\      /  F ield         | OpenFOAM: The Open Source CFD Toolbox           |
|  \\    /   O peration     | Version:  v1912                                 |
|   \\  /    A nd           | Website:  www.openfoam.com                      |
|    \\/     M anipulation  |                                                 |
\*---------------------------------------------------------------------------*/
FoamFile
{
    version     2.0;
    format      ascii;
    class       volVectorField;
    location    "0.99/solid";
    object      U;
}
// * * * * * * * * * * * * * * * * * * * * * * * * * * * * * * * * * * * * * //

dimensions      [0 1 -1 0 0 0 0];


internalField   nonuniform List<vector> 
256
(
(1.6752e-08 1.86702e-08 2.23493e-08)
(3.98589e-09 1.27063e-08 2.20347e-08)
(-5.92717e-09 1.2049e-08 2.10978e-08)
(-1.66148e-08 1.65606e-08 1.9571e-08)
(3.23519e-08 1.77808e-08 5.4583e-08)
(8.21043e-09 1.20627e-08 5.38916e-08)
(-1.29348e-08 1.1912e-08 5.19151e-08)
(-3.40816e-08 1.77601e-08 4.86632e-08)
(3.62776e-08 3.4618e-09 7.85038e-08)
(8.60241e-09 9.2742e-10 7.70928e-08)
(-1.65375e-08 1.57467e-09 7.44934e-08)
(-4.11197e-08 5.93055e-09 7.06974e-08)
(3.54646e-08 -1.4198e-08 9.83923e-08)
(6.87991e-09 -1.48218e-08 9.60662e-08)
(-1.89714e-08 -1.33832e-08 9.30224e-08)
(-4.44112e-08 -9.45276e-09 8.92392e-08)
(3.45461e-08 -3.38422e-08 1.17322e-07)
(4.7807e-09 -3.40774e-08 1.14051e-07)
(-2.20755e-08 -3.18844e-08 1.10633e-07)
(-4.86261e-08 -2.69487e-08 1.07039e-07)
(3.63541e-08 -5.79266e-08 1.3699e-07)
(3.40793e-09 -5.79811e-08 1.3303e-07)
(-2.70292e-08 -5.50246e-08 1.29262e-07)
(-5.66737e-08 -4.88538e-08 1.25652e-07)
(4.14546e-08 -9.16096e-08 1.56517e-07)
(2.89178e-09 -9.02614e-08 1.52832e-07)
(-3.41246e-08 -8.64272e-08 1.48721e-07)
(-6.91721e-08 -8.002e-08 1.44166e-07)
(4.50392e-08 -1.32046e-07 1.69867e-07)
(1.67177e-09 -1.28874e-07 1.67452e-07)
(-4.20041e-08 -1.23795e-07 1.63067e-07)
(-8.13427e-08 -1.16774e-07 1.56755e-07)
(1.20582e-08 7.13205e-09 1.06685e-08)
(2.84612e-09 1.8191e-09 1.14322e-08)
(-3.66102e-09 1.62534e-09 1.09891e-08)
(-1.10857e-08 6.00815e-09 9.36532e-09)
(2.40782e-08 8.66104e-10 3.28505e-08)
(6.15908e-09 -4.10787e-09 3.43051e-08)
(-8.15138e-09 -3.86194e-09 3.30934e-08)
(-2.35242e-08 1.59202e-09 2.93281e-08)
(2.70228e-08 -1.27644e-08 5.33843e-08)
(6.50906e-09 -1.48909e-08 5.48233e-08)
(-1.05241e-08 -1.39994e-08 5.30653e-08)
(-2.84621e-08 -9.90224e-09 4.82519e-08)
(2.60364e-08 -2.8806e-08 7.17914e-08)
(5.0381e-09 -2.93077e-08 7.28511e-08)
(-1.2277e-08 -2.77215e-08 7.06914e-08)
(-3.06982e-08 -2.38719e-08 6.54464e-08)
(2.51798e-08 -4.66309e-08 8.90828e-08)
(3.23482e-09 -4.70019e-08 8.96048e-08)
(-1.49053e-08 -4.47156e-08 8.71065e-08)
(-3.4234e-08 -3.96574e-08 8.17095e-08)
(2.75241e-08 -6.76996e-08 1.05826e-07)
(2.25887e-09 -6.81136e-08 1.05779e-07)
(-1.95884e-08 -6.51105e-08 1.0297e-07)
(-4.21574e-08 -5.86462e-08 9.75108e-08)
(3.4356e-08 -9.63068e-08 1.20666e-07)
(2.42891e-09 -9.50504e-08 1.20227e-07)
(-2.67908e-08 -9.12547e-08 1.17155e-07)
(-5.57737e-08 -8.49299e-08 1.11543e-07)
(4.0583e-08 -1.32151e-07 1.29443e-07)
(1.99418e-09 -1.27649e-07 1.28861e-07)
(-3.49873e-08 -1.22761e-07 1.25681e-07)
(-7.00213e-08 -1.17429e-07 1.19942e-07)
(7.33318e-09 2.60219e-09 5.46524e-09)
(1.552e-09 -1.59276e-09 6.7157e-09)
(-1.82665e-09 -1.73951e-09 6.41471e-09)
(-5.891e-09 1.40734e-09 4.60578e-09)
(1.5286e-08 -7.69566e-09 2.04664e-08)
(3.66133e-09 -1.16976e-08 2.28899e-08)
(-4.07564e-09 -1.14277e-08 2.20529e-08)
(-1.32914e-08 -7.17264e-09 1.80857e-08)
(1.71971e-08 -2.22878e-08 3.70888e-08)
(3.84269e-09 -2.406e-08 3.97739e-08)
(-5.32963e-09 -2.31958e-08 3.85081e-08)
(-1.62866e-08 -1.97397e-08 3.34543e-08)
(1.61891e-08 -3.75867e-08 5.32819e-08)
(2.59619e-09 -3.81564e-08 5.57922e-08)
(-6.4772e-09 -3.66434e-08 5.41813e-08)
(-1.7701e-08 -3.30495e-08 4.86079e-08)
(1.55543e-08 -5.3392e-08 6.83683e-08)
(1.08988e-09 -5.40857e-08 7.05221e-08)
(-8.69258e-09 -5.19084e-08 6.86128e-08)
(-2.07634e-08 -4.68776e-08 6.27857e-08)
(1.84351e-08 -7.10342e-08 8.17741e-08)
(4.96598e-10 -7.19247e-08 8.34755e-08)
(-1.31528e-08 -6.90684e-08 8.1303e-08)
(-2.86111e-08 -6.25126e-08 7.53834e-08)
(2.64777e-08 -9.48773e-08 9.18868e-08)
(1.25732e-09 -9.39617e-08 9.30792e-08)
(-2.04243e-08 -9.03646e-08 9.07145e-08)
(-4.28838e-08 -8.41424e-08 8.48731e-08)
(3.44259e-08 -1.26087e-07 9.57936e-08)
(1.46258e-09 -1.21223e-07 9.65707e-08)
(-2.87867e-08 -1.16589e-07 9.41803e-08)
(-5.83278e-08 -1.12125e-07 8.86113e-08)
(4.68614e-09 6.4408e-10 3.97723e-09)
(8.29251e-10 -2.6298e-09 4.95878e-09)
(-8.37523e-10 -2.81436e-09 4.73608e-09)
(-2.95508e-09 -7.59326e-10 3.35634e-09)
(1.03214e-08 -1.12604e-08 1.51353e-08)
(2.2487e-09 -1.45186e-08 1.70155e-08)
(-1.76022e-09 -1.43571e-08 1.64128e-08)
(-7.41472e-09 -1.11818e-08 1.34486e-08)
(1.1796e-08 -2.65506e-08 2.81878e-08)
(2.42118e-09 -2.81186e-08 3.02469e-08)
(-2.31593e-09 -2.74002e-08 2.9327e-08)
(-9.30598e-09 -2.45473e-08 2.55773e-08)
(1.10836e-08 -4.14769e-08 4.14645e-08)
(1.46911e-09 -4.2192e-08 4.33564e-08)
(-3.08893e-09 -4.08484e-08 4.21624e-08)
(-1.03624e-08 -3.75329e-08 3.80296e-08)
(1.09129e-08 -5.57672e-08 5.37653e-08)
(3.11181e-10 -5.67762e-08 5.53567e-08)
(-5.04649e-09 -5.47873e-08 5.39177e-08)
(-1.32878e-08 -4.98778e-08 4.95822e-08)
(1.42938e-08 -7.09188e-08 6.39821e-08)
(5.3802e-11 -7.22186e-08 6.5227e-08)
(-9.31091e-09 -6.95694e-08 6.35763e-08)
(-2.10966e-08 -6.30531e-08 5.91408e-08)
(2.28394e-08 -9.16776e-08 7.06174e-08)
(1.13295e-09 -9.12438e-08 7.15021e-08)
(-1.64316e-08 -8.78701e-08 6.97095e-08)
(-3.53848e-08 -8.16265e-08 6.52971e-08)
(3.12956e-08 -1.20142e-07 7.19795e-08)
(1.63281e-09 -1.158e-07 7.26414e-08)
(-2.46474e-08 -1.11392e-07 7.08499e-08)
(-5.08778e-08 -1.06867e-07 6.65714e-08)
(3.61502e-09 -1.32393e-10 3.28937e-09)
(5.80932e-10 -2.9066e-09 3.8247e-09)
(-4.47776e-10 -3.12961e-09 3.66459e-09)
(-1.70415e-09 -1.70139e-09 2.85024e-09)
(8.39559e-09 -1.23977e-08 1.17765e-08)
(1.80772e-09 -1.52901e-08 1.27619e-08)
(-7.85523e-10 -1.52437e-08 1.23352e-08)
(-4.91422e-09 -1.2717e-08 1.05977e-08)
(9.89746e-09 -2.77802e-08 2.15969e-08)
(2.11416e-09 -2.93229e-08 2.2607e-08)
(-1.00089e-09 -2.8761e-08 2.19547e-08)
(-6.37239e-09 -2.6292e-08 1.97648e-08)
(9.60302e-09 -4.23598e-08 3.169e-08)
(1.46448e-09 -4.32637e-08 3.25167e-08)
(-1.57566e-09 -4.20966e-08 3.16615e-08)
(-7.3561e-09 -3.89825e-08 2.92486e-08)
(9.92092e-09 -5.5703e-08 4.09666e-08)
(6.30423e-10 -5.69817e-08 4.15403e-08)
(-3.37489e-09 -5.51802e-08 4.04985e-08)
(-1.02909e-08 -5.04015e-08 3.79541e-08)
(1.36761e-08 -6.94604e-08 4.83302e-08)
(6.32653e-10 -7.10611e-08 4.86577e-08)
(-7.45786e-09 -6.86053e-08 4.7455e-08)
(-1.80291e-08 -6.21882e-08 4.48128e-08)
(2.23505e-08 -8.86923e-08 5.26476e-08)
(1.86463e-09 -8.86588e-08 5.27721e-08)
(-1.4332e-08 -8.54773e-08 5.14652e-08)
(-3.20384e-08 -7.9223e-08 4.87698e-08)
(3.08171e-08 -1.15884e-07 5.30857e-08)
(2.48481e-09 -1.12168e-07 5.3148e-08)
(-2.22944e-08 -1.07942e-07 5.18476e-08)
(-4.71613e-08 -1.03159e-07 4.91513e-08)
(3.26835e-09 -3.99071e-10 2.52756e-09)
(5.44227e-10 -2.95915e-09 2.75972e-09)
(-3.33976e-10 -3.20987e-09 2.65271e-09)
(-1.24879e-09 -2.08021e-09 2.23742e-09)
(7.86977e-09 -1.25357e-08 8.59345e-09)
(1.80544e-09 -1.53121e-08 8.98322e-09)
(-4.666e-10 -1.53529e-08 8.69948e-09)
(-4.03474e-09 -1.31429e-08 7.81732e-09)
(9.56683e-09 -2.76699e-08 1.54294e-08)
(2.28109e-09 -2.92841e-08 1.57629e-08)
(-5.40087e-10 -2.88463e-08 1.53287e-08)
(-5.38576e-09 -2.65748e-08 1.42201e-08)
(9.64282e-09 -4.18933e-08 2.24167e-08)
(1.87765e-09 -4.29782e-08 2.25891e-08)
(-1.01227e-09 -4.19536e-08 2.20165e-08)
(-6.39789e-09 -3.89607e-08 2.07931e-08)
(1.03396e-08 -5.46993e-08 2.87782e-08)
(1.29085e-09 -5.61835e-08 2.87639e-08)
(-2.70502e-09 -5.45323e-08 2.80617e-08)
(-9.36036e-09 -4.98613e-08 2.67574e-08)
(1.43394e-08 -6.78193e-08 3.36944e-08)
(1.47649e-09 -6.96195e-08 3.35211e-08)
(-6.6348e-09 -6.73148e-08 3.27065e-08)
(-1.70055e-08 -6.10079e-08 3.13189e-08)
(2.30235e-08 -8.64374e-08 3.64247e-08)
(2.79378e-09 -8.66624e-08 3.61471e-08)
(-1.32831e-08 -8.36259e-08 3.52604e-08)
(-3.07102e-08 -7.74079e-08 3.3796e-08)
(3.14001e-08 -1.13063e-07 3.65778e-08)
(3.47499e-09 -1.09782e-07 3.62974e-08)
(-2.10185e-08 -1.05689e-07 3.54163e-08)
(-4.54514e-08 -1.00745e-07 3.39101e-08)
(3.17335e-09 -4.6778e-10 1.59188e-09)
(5.61198e-10 -2.9481e-09 1.67603e-09)
(-3.10805e-10 -3.21639e-09 1.6149e-09)
(-1.09252e-09 -2.21768e-09 1.42739e-09)
(7.79262e-09 -1.23715e-08 5.24708e-09)
(1.89749e-09 -1.51352e-08 5.36536e-09)
(-3.81358e-10 -1.52319e-08 5.20339e-09)
(-3.75442e-09 -1.31603e-08 4.80695e-09)
(9.66826e-09 -2.72056e-08 9.27555e-09)
(2.50393e-09 -2.89033e-08 9.33323e-09)
(-3.98495e-10 -2.85475e-08 9.08501e-09)
(-5.10176e-09 -2.63659e-08 8.58824e-09)
(9.99633e-09 -4.11397e-08 1.33559e-08)
(2.26423e-09 -4.23582e-08 1.33077e-08)
(-8.1588e-10 -4.14296e-08 1.29793e-08)
(-6.15159e-09 -3.85029e-08 1.2429e-08)
(1.09338e-08 -5.36635e-08 1.70412e-08)
(1.83664e-09 -5.52827e-08 1.68811e-08)
(-2.43789e-09 -5.3733e-08 1.64767e-08)
(-9.12668e-09 -4.91366e-08 1.58813e-08)
(1.50785e-08 -6.65383e-08 1.985e-08)
(2.13899e-09 -6.84571e-08 1.96019e-08)
(-6.25907e-09 -6.62535e-08 1.91312e-08)
(-1.66913e-08 -6.00352e-08 1.84801e-08)
(2.37548e-08 -8.495e-08 2.13739e-08)
(3.51071e-09 -8.53178e-08 2.10766e-08)
(-1.27503e-08 -8.23773e-08 2.05633e-08)
(-3.01757e-08 -7.62121e-08 1.98536e-08)
(3.206e-08 -1.1132e-07 2.14331e-08)
(4.23018e-09 -1.08279e-07 2.1143e-08)
(-2.03295e-08 -1.04274e-07 2.06331e-08)
(-4.46494e-08 -9.92682e-08 1.98889e-08)
(3.15072e-09 -4.75794e-10 5.4297e-10)
(5.75681e-10 -2.93072e-09 5.63023e-10)
(-3.08268e-10 -3.20753e-09 5.43173e-10)
(-1.04234e-09 -2.25845e-09 4.89771e-10)
(7.80177e-09 -1.22265e-08 1.76465e-09)
(1.95703e-09 -1.4999e-08 1.78729e-09)
(-3.61513e-10 -1.51228e-08 1.73468e-09)
(-3.67098e-09 -1.31025e-08 1.62215e-09)
(9.77268e-09 -2.68764e-08 3.09503e-09)
(2.63037e-09 -2.86241e-08 3.09369e-09)
(-3.57776e-10 -2.83084e-08 3.01297e-09)
(-5.02793e-09 -2.61613e-08 2.8722e-09)
(1.02239e-08 -4.06519e-08 4.4346e-09)
(2.47038e-09 -4.19395e-08 4.39682e-09)
(-7.49922e-10 -4.10584e-08 4.28985e-09)
(-6.09783e-09 -3.81612e-08 4.13341e-09)
(1.12755e-08 -5.30548e-08 5.63903e-09)
(2.1195e-09 -5.474e-08 5.56431e-09)
(-2.33582e-09 -5.32409e-08 5.43232e-09)
(-9.07525e-09 -4.86825e-08 5.26114e-09)
(1.54879e-08 -6.58531e-08 6.55182e-09)
(2.4788e-09 -6.78268e-08 6.44901e-09)
(-6.10142e-09 -6.56736e-08 6.29512e-09)
(-1.65953e-08 -5.95035e-08 6.10447e-09)
(2.41604e-08 -8.42085e-08 7.04317e-09)
(3.87885e-09 -8.46387e-08 6.92573e-09)
(-1.25144e-08 -8.17458e-08 6.75775e-09)
(-2.99692e-08 -7.56156e-08 6.5459e-09)
(3.24312e-08 -1.10478e-07 7.05931e-09)
(4.6183e-09 -1.0754e-07 6.94507e-09)
(-2.00159e-08 -1.03578e-07 6.77818e-09)
(-4.43099e-08 -9.85576e-08 6.55398e-09)
)
;

boundaryField
{
    interface
    {
        type            calculated;
        value           nonuniform List<vector> 
192
(
(2.17322e-08 3.09462e-08 2.08374e-08)
(3.76838e-08 2.26621e-08 5.19406e-08)
(4.19964e-08 4.23991e-09 7.56542e-08)
(4.15644e-08 -1.46309e-08 9.56374e-08)
(4.08287e-08 -3.36199e-08 1.14746e-07)
(4.25346e-08 -5.61995e-08 1.34707e-07)
(4.78922e-08 -8.94383e-08 1.54764e-07)
(5.10262e-08 -1.31379e-07 1.68783e-07)
(1.55229e-08 1.61662e-08 8.31387e-09)
(2.8516e-08 4.60721e-09 2.85841e-08)
(3.17927e-08 -1.22749e-08 4.86143e-08)
(3.10009e-08 -2.92668e-08 6.69726e-08)
(3.02301e-08 -4.62591e-08 8.43349e-08)
(3.2576e-08 -6.54056e-08 1.01346e-07)
(4.02429e-08 -9.30421e-08 1.16922e-07)
(4.71168e-08 -1.30826e-07 1.2679e-07)
(9.47024e-09 8.25698e-09 3.62224e-09)
(1.84301e-08 -5.22971e-09 1.70273e-08)
(2.07068e-08 -2.20621e-08 3.32822e-08)
(1.99035e-08 -3.79974e-08 4.95437e-08)
(1.94181e-08 -5.28306e-08 6.48016e-08)
(2.24738e-08 -6.83034e-08 7.84665e-08)
(3.16319e-08 -9.08796e-08 8.90077e-08)
(4.08407e-08 -1.24248e-07 9.34717e-08)
(6.1424e-09 4.39598e-09 3.0477e-09)
(1.29654e-08 -9.48299e-09 1.34127e-08)
(1.48843e-08 -2.63602e-08 2.63629e-08)
(1.44409e-08 -4.16978e-08 3.9818e-08)
(1.4522e-08 -5.49647e-08 5.2357e-08)
(1.82531e-08 -6.79372e-08 6.27924e-08)
(2.8119e-08 -8.74271e-08 6.95856e-08)
(3.8025e-08 -1.18047e-07 7.10773e-08)
(4.6929e-09 2.87027e-09 2.93494e-09)
(1.07012e-08 -1.08271e-08 1.11637e-08)
(1.26953e-08 -2.74784e-08 2.10396e-08)
(1.27295e-08 -4.2354e-08 3.13299e-08)
(1.33834e-08 -5.46848e-08 4.08233e-08)
(1.76087e-08 -6.63531e-08 4.83417e-08)
(2.7724e-08 -8.44071e-08 5.26937e-08)
(3.76886e-08 -1.13681e-07 5.31119e-08)
(4.15093e-09 2.38547e-09 2.41715e-09)
(9.9582e-09 -1.09611e-08 8.44273e-09)
(1.21721e-08 -2.72267e-08 1.53722e-08)
(1.26212e-08 -4.17002e-08 2.25151e-08)
(1.37139e-08 -5.35252e-08 2.90314e-08)
(1.82577e-08 -6.46484e-08 3.4045e-08)
(2.84449e-08 -8.21723e-08 3.67758e-08)
(3.83135e-08 -1.10818e-07 3.68886e-08)
(3.96972e-09 2.27372e-09 1.56248e-09)
(9.76914e-09 -1.07478e-08 5.23009e-09)
(1.21748e-08 -2.66547e-08 9.32702e-09)
(1.29047e-08 -4.08234e-08 1.35012e-08)
(1.42754e-08 -5.23931e-08 1.72752e-08)
(1.90058e-08 -6.33331e-08 2.01371e-08)
(2.92141e-08 -8.07046e-08 2.16582e-08)
(3.89945e-08 -1.09058e-07 2.16909e-08)
(3.91821e-09 2.26234e-09 5.37314e-10)
(9.73423e-09 -1.05711e-08 1.76695e-09)
(1.22414e-08 -2.6271e-08 3.12114e-09)
(1.3108e-08 -4.02763e-08 4.49148e-09)
(1.46106e-08 -5.17388e-08 5.72446e-09)
(1.94274e-08 -6.26319e-08 6.65417e-09)
(2.96431e-08 -7.99728e-08 7.14459e-09)
(3.93783e-08 -1.0821e-07 7.15211e-09)
(1.74292e-08 3.79033e-08 2.53379e-08)
(3.35e-08 3.18194e-08 5.76365e-08)
(3.73494e-08 1.44141e-08 8.1942e-08)
(3.62605e-08 -4.49329e-09 1.02282e-07)
(3.50164e-08 -2.41926e-08 1.21413e-07)
(3.65057e-08 -4.8128e-08 1.4085e-07)
(4.14097e-08 -8.33904e-08 1.60286e-07)
(4.49773e-08 -1.27578e-07 1.72814e-07)
(3.6729e-09 3.16879e-08 2.44324e-08)
(7.54327e-09 2.58273e-08 5.62764e-08)
(7.59965e-09 1.14711e-08 7.94433e-08)
(5.5373e-09 -5.58229e-09 9.8459e-08)
(3.10831e-09 -2.48363e-08 1.16343e-07)
(1.47571e-09 -4.82856e-08 1.34943e-07)
(9.42816e-10 -8.16558e-08 1.55004e-07)
(-2.81099e-11 -1.24205e-07 1.69744e-07)
(-6.54321e-09 3.03023e-08 2.2479e-08)
(-1.42421e-08 2.5261e-08 5.34566e-08)
(-1.81366e-08 1.18516e-08 7.59958e-08)
(-2.06783e-08 -4.3482e-09 9.45375e-08)
(-2.38284e-08 -2.28245e-08 1.12017e-07)
(-2.88738e-08 -4.55026e-08 1.30238e-07)
(-3.62912e-08 -7.79758e-08 1.49931e-07)
(-4.46785e-08 -1.19185e-07 1.64317e-07)
(-1.80455e-08 3.36191e-08 1.95439e-08)
(-3.69258e-08 3.05418e-08 4.89408e-08)
(-4.44952e-08 1.60747e-08 7.1267e-08)
(-4.79583e-08 -3.67116e-10 9.01518e-08)
(-5.22231e-08 -1.78454e-08 1.08066e-07)
(-6.02967e-08 -3.9572e-08 1.26381e-07)
(-7.29237e-08 -7.22442e-08 1.4475e-07)
(-8.53338e-08 -1.12469e-07 1.56414e-07)
(-1.56463e-08 2.92346e-08 1.74732e-08)
(-3.35113e-08 2.38863e-08 4.46016e-08)
(-4.08179e-08 8.51301e-09 6.5845e-08)
(-4.43485e-08 -7.57603e-09 8.40372e-08)
(-4.86039e-08 -2.38829e-08 1.01643e-07)
(-5.63977e-08 -4.37171e-08 1.20211e-07)
(-6.89116e-08 -7.38526e-08 1.38941e-07)
(-8.02707e-08 -1.11547e-07 1.51929e-07)
(-8.96283e-09 1.46606e-08 6.68438e-09)
(-2.24334e-08 5.93613e-09 2.41304e-08)
(-2.764e-08 -8.10867e-09 4.20436e-08)
(-2.99682e-08 -2.24288e-08 5.87688e-08)
(-3.3471e-08 -3.67925e-08 7.47437e-08)
(-4.12505e-08 -5.32611e-08 9.04951e-08)
(-5.54301e-08 -7.79638e-08 1.04971e-07)
(-6.98088e-08 -1.11791e-07 1.14189e-07)
(-2.59079e-09 6.20291e-09 2.57311e-09)
(-1.10956e-08 -4.57372e-09 1.40583e-08)
(-1.44169e-08 -1.86373e-08 2.86651e-08)
(-1.59484e-08 -3.19302e-08 4.35239e-08)
(-1.90463e-08 -4.415e-08 5.75491e-08)
(-2.69168e-08 -5.69823e-08 7.01181e-08)
(-4.20148e-08 -7.67131e-08 7.97757e-08)
(-5.81673e-08 -1.06233e-07 8.38253e-08)
(9.85222e-10 1.83311e-09 2.30961e-09)
(-4.77797e-09 -9.59409e-09 1.13543e-08)
(-7.08629e-09 -2.38104e-08 2.30986e-08)
(-8.33368e-09 -3.65374e-08 3.54433e-08)
(-1.13991e-08 -4.71941e-08 4.6964e-08)
(-1.93991e-08 -5.75288e-08 5.64952e-08)
(-3.47057e-08 -7.41811e-08 6.25856e-08)
(-5.10904e-08 -1.00948e-07 6.37797e-08)
(2.60397e-09 -4.68123e-11 2.42364e-09)
(-1.96093e-09 -1.15499e-08 9.75263e-09)
(-3.89196e-09 -2.56815e-08 1.87847e-08)
(-5.13223e-09 -3.80028e-08 2.82574e-08)
(-8.29209e-09 -4.77332e-08 3.69721e-08)
(-1.63377e-08 -5.67512e-08 4.379e-08)
(-3.1479e-08 -7.19399e-08 4.7601e-08)
(-4.75398e-08 -9.73205e-08 4.77947e-08)
(3.25163e-09 -7.59342e-10 2.0845e-09)
(-8.73383e-10 -1.21087e-08 7.52732e-09)
(-2.72606e-09 -2.59839e-08 1.39024e-08)
(-4.04276e-09 -3.7967e-08 2.0492e-08)
(-7.2915e-09 -4.72093e-08 2.64663e-08)
(-1.53165e-08 -5.56704e-08 3.09844e-08)
(-3.02155e-08 -7.02963e-08 3.33302e-08)
(-4.58792e-08 -9.50062e-08 3.32821e-08)
(3.49401e-09 -1.00596e-09 1.37576e-09)
(-4.84403e-10 -1.21579e-08 4.71598e-09)
(-2.34873e-09 -2.57666e-08 8.49875e-09)
(-3.73355e-09 -3.74966e-08 1.2354e-08)
(-7.03284e-09 -4.65015e-08 1.581e-08)
(-1.50183e-08 -5.47728e-08 1.83775e-08)
(-2.9725e-08 -6.92225e-08 1.96684e-08)
(-4.51033e-08 -9.36088e-08 1.96035e-08)
(3.57485e-09 -1.08014e-09 4.77223e-10)
(-3.57708e-10 -1.21061e-08 1.60128e-09)
(-2.23855e-09 -2.55545e-08 2.85373e-09)
(-3.65798e-09 -3.71493e-08 4.11996e-09)
(-6.97753e-09 -4.60581e-08 5.24827e-09)
(-1.49367e-08 -5.42799e-08 6.08045e-09)
(-2.95436e-08 -6.86869e-08 6.49425e-09)
(-4.47787e-08 -9.29401e-08 6.4691e-09)
(4.45796e-08 -1.35096e-07 1.72127e-07)
(4.01201e-08 -1.36108e-07 1.27954e-07)
(3.41293e-08 -1.30278e-07 9.27911e-08)
(3.12576e-08 -1.24815e-07 6.94286e-08)
(3.09896e-08 -1.20756e-07 5.13161e-08)
(3.17025e-08 -1.17987e-07 3.54369e-08)
(3.24306e-08 -1.16263e-07 2.07867e-08)
(3.28304e-08 -1.15431e-07 6.84869e-09)
(-3.9087e-10 -1.31264e-07 1.69481e-07)
(-3.53265e-10 -1.3e-07 1.26948e-07)
(-9.1202e-10 -1.23437e-07 9.36084e-08)
(-5.54663e-10 -1.18584e-07 7.03775e-08)
(4.99266e-10 -1.15304e-07 5.16435e-08)
(1.63147e-09 -1.13087e-07 3.53252e-08)
(2.46864e-09 -1.1167e-07 2.05825e-08)
(2.89328e-09 -1.10968e-07 6.76018e-09)
(-4.50291e-08 -1.25131e-07 1.65113e-07)
(-3.75422e-08 -1.24126e-07 1.2388e-07)
(-3.10613e-08 -1.17824e-07 9.13379e-08)
(-2.68807e-08 -1.13196e-07 6.86881e-08)
(-2.45468e-08 -1.10095e-07 5.04219e-08)
(-2.32779e-08 -1.08008e-07 3.44994e-08)
(-2.25825e-08 -1.06675e-07 2.01052e-08)
(-2.22616e-08 -1.06015e-07 6.60409e-09)
(-8.57116e-08 -1.16509e-07 1.59071e-07)
(-7.41736e-08 -1.18137e-07 1.1878e-07)
(-6.239e-08 -1.13066e-07 8.59706e-08)
(-5.49688e-08 -1.0828e-07 6.43298e-08)
(-5.12765e-08 -1.04759e-07 4.76208e-08)
(-4.95571e-08 -1.02384e-07 3.29374e-08)
(-4.87309e-08 -1.00917e-07 1.93422e-08)
(-4.8374e-08 -1.00211e-07 6.37633e-09)
)
;
    }
    symmetry
    {
        type            symmetry;
    }
    bottom
    {
        type            calculated;
        value           uniform (0 0 0);
    }
}


// ************************************************************************* //
