/*--------------------------------*- C++ -*----------------------------------*\
| =========                 |                                                 |
| \\      /  F ield         | OpenFOAM: The Open Source CFD Toolbox           |
|  \\    /   O peration     | Version:  v1912                                 |
|   \\  /    A nd           | Website:  www.openfoam.com                      |
|    \\/     M anipulation  |                                                 |
\*---------------------------------------------------------------------------*/
FoamFile
{
    version     2.0;
    format      ascii;
    class       volVectorField;
    location    "0.52/solid";
    object      D;
}
// * * * * * * * * * * * * * * * * * * * * * * * * * * * * * * * * * * * * * //

dimensions      [0 1 0 0 0 0 0];


internalField   nonuniform List<vector> 
256
(
(2.17431e-08 3.33755e-08 2.32577e-08)
(2.24539e-09 1.9344e-08 2.10363e-08)
(-1.79657e-09 1.91148e-08 2.10807e-08)
(-2.08354e-08 3.23563e-08 2.34702e-08)
(3.45804e-08 2.59903e-08 4.24708e-08)
(6.49528e-09 1.7954e-08 3.96059e-08)
(-4.5857e-09 1.74761e-08 3.98215e-08)
(-3.20733e-08 2.43389e-08 4.32139e-08)
(3.62192e-08 1.5123e-08 5.17949e-08)
(7.76384e-09 1.20012e-08 4.8788e-08)
(-4.08573e-09 1.1314e-08 4.91471e-08)
(-3.19607e-08 1.29249e-08 5.29569e-08)
(3.60155e-08 6.30335e-09 5.86541e-08)
(8.0859e-09 4.57227e-09 5.54411e-08)
(-2.40225e-09 3.70085e-09 5.59037e-08)
(-2.97606e-08 3.59254e-09 6.01208e-08)
(3.6928e-08 -1.54287e-09 6.54318e-08)
(8.84369e-09 -3.8095e-09 6.19972e-08)
(-9.22848e-10 -4.85404e-09 6.25371e-08)
(-2.84321e-08 -4.74006e-09 6.71291e-08)
(4.02734e-08 -9.7914e-09 7.33082e-08)
(1.06652e-08 -1.31486e-08 6.96736e-08)
(-2.77428e-10 -1.43659e-08 7.02759e-08)
(-2.93142e-08 -1.34672e-08 7.51925e-08)
(4.76239e-08 -2.2875e-08 8.33024e-08)
(1.3954e-08 -2.57739e-08 7.96854e-08)
(-8.87577e-10 -2.71578e-08 8.03408e-08)
(-3.40229e-08 -2.70216e-08 8.53445e-08)
(5.86671e-08 -6.349e-08 9.44844e-08)
(1.75945e-08 -6.11107e-08 9.14282e-08)
(-1.733e-09 -6.24854e-08 9.2119e-08)
(-4.23129e-08 -6.77073e-08 9.66293e-08)
(1.56299e-08 1.58271e-08 3.29477e-09)
(1.07329e-09 4.25619e-09 4.25066e-09)
(-7.96993e-10 4.06286e-09 4.37711e-09)
(-1.48594e-08 1.49407e-08 3.6641e-09)
(2.50745e-08 1.2295e-08 1.48503e-08)
(4.17497e-09 5.5034e-09 1.66984e-08)
(-2.72274e-09 5.01087e-09 1.69936e-08)
(-2.29999e-08 1.06595e-08 1.5708e-08)
(2.60424e-08 5.87551e-09 2.39567e-08)
(5.12781e-09 3.11946e-09 2.61299e-08)
(-2.14535e-09 2.40506e-09 2.65506e-08)
(-2.24628e-08 3.65539e-09 2.51811e-08)
(2.56288e-08 -7.87057e-10 3.07975e-08)
(5.36396e-09 -2.40872e-09 3.30506e-08)
(-5.69737e-10 -3.30316e-09 3.35665e-08)
(-2.02439e-08 -3.51898e-09 3.23036e-08)
(2.63572e-08 -7.66848e-09 3.69733e-08)
(6.05091e-09 -9.88417e-09 3.922e-08)
(8.24549e-10 -1.09455e-08 3.981e-08)
(-1.88789e-08 -1.08796e-08 3.86998e-08)
(2.95617e-08 -1.50237e-08 4.34488e-08)
(7.80655e-09 -1.83724e-08 4.56653e-08)
(1.40955e-09 -1.96004e-08 4.63145e-08)
(-1.97351e-08 -1.87049e-08 4.53518e-08)
(3.6949e-08 -2.54713e-08 5.00201e-08)
(1.10609e-08 -2.83403e-08 5.22371e-08)
(7.3361e-10 -2.97254e-08 5.29298e-08)
(-2.45723e-08 -2.96049e-08 5.20544e-08)
(4.83663e-08 -5.8689e-08 5.38567e-08)
(1.4686e-08 -5.57762e-08 5.61184e-08)
(-1.65836e-10 -5.7133e-08 5.68259e-08)
(-3.33121e-08 -6.28484e-08 5.59419e-08)
(1.16548e-08 1.06445e-08 1.54444e-09)
(6.79585e-11 7.69092e-10 2.77087e-09)
(8.01198e-11 5.99153e-10 2.86482e-09)
(-1.10219e-08 9.87074e-09 1.81222e-09)
(1.87525e-08 5.26385e-09 9.07433e-09)
(2.10941e-09 -4.86374e-10 1.13874e-08)
(-1.02556e-09 -9.48302e-10 1.16152e-08)
(-1.70478e-08 3.76551e-09 9.72505e-09)
(1.93393e-08 -6.79229e-10 1.70034e-08)
(2.77206e-09 -3.08534e-09 1.96795e-08)
(-3.66405e-10 -3.77219e-09 2.00067e-08)
(-1.63337e-08 -2.7778e-09 1.79454e-08)
(1.88797e-08 -6.21558e-09 2.37879e-08)
(2.94077e-09 -7.75728e-09 2.65697e-08)
(1.10127e-09 -8.62731e-09 2.69757e-08)
(-1.42404e-08 -8.84304e-09 2.4965e-08)
(1.95554e-08 -1.17806e-08 2.97063e-08)
(3.57251e-09 -1.39881e-08 3.25169e-08)
(2.40624e-09 -1.50263e-08 3.29872e-08)
(-1.29619e-08 -1.48992e-08 3.10763e-08)
(2.27529e-08 -1.73988e-08 3.50929e-08)
(5.27889e-09 -2.07596e-08 3.79052e-08)
(2.92363e-09 -2.19637e-08 3.84271e-08)
(-1.39212e-08 -2.09933e-08 3.66183e-08)
(3.02313e-08 -2.53147e-08 3.93649e-08)
(8.50877e-09 -2.82005e-08 4.21702e-08)
(2.17889e-09 -2.95583e-08 4.27266e-08)
(-1.89357e-08 -2.93589e-08 4.09984e-08)
(4.17103e-08 -5.5042e-08 4.07318e-08)
(1.21151e-08 -5.21459e-08 4.35509e-08)
(1.22182e-09 -5.34697e-08 4.41129e-08)
(-2.78084e-08 -5.90998e-08 4.23931e-08)
(9.85967e-09 9.10564e-09 1.6105e-09)
(-3.44868e-10 1.76764e-10 2.37267e-09)
(4.17939e-10 2.16448e-11 2.43878e-09)
(-9.33466e-09 8.41078e-09 1.80011e-09)
(1.58233e-08 2.41359e-09 7.11658e-09)
(1.1622e-09 -2.73067e-09 8.58046e-09)
(-3.27953e-10 -3.15654e-09 8.7465e-09)
(-1.44031e-08 1.05139e-09 7.59174e-09)
(1.6296e-08 -4.17988e-09 1.34093e-08)
(1.67137e-09 -6.36928e-09 1.51101e-08)
(3.16062e-10 -7.01357e-09 1.5352e-08)
(-1.37355e-08 -6.13094e-09 1.41074e-08)
(1.59173e-08 -9.51045e-09 1.9316e-08)
(1.81777e-09 -1.10067e-08 2.10767e-08)
(1.65694e-09 -1.18351e-08 2.13806e-08)
(-1.18674e-08 -1.19984e-08 2.02002e-08)
(1.66493e-08 -1.42164e-08 2.44733e-08)
(2.43244e-09 -1.64257e-08 2.62441e-08)
(2.85267e-09 -1.74251e-08 2.66001e-08)
(-1.07681e-08 -1.72084e-08 2.55158e-08)
(1.98904e-08 -1.85764e-08 2.87356e-08)
(4.11332e-09 -2.19493e-08 3.05038e-08)
(3.29147e-09 -2.31167e-08 3.09021e-08)
(-1.18713e-08 -2.20557e-08 2.99074e-08)
(2.73887e-08 -2.51834e-08 3.16512e-08)
(7.30721e-09 -2.81221e-08 3.34192e-08)
(2.497e-09 -2.94449e-08 3.38448e-08)
(-1.69857e-08 -2.91208e-08 3.2911e-08)
(3.87802e-08 -5.34608e-08 3.25125e-08)
(1.08748e-08 -5.07876e-08 3.43236e-08)
(1.50461e-09 -5.2079e-08 3.47515e-08)
(-2.58378e-08 -5.74197e-08 3.37911e-08)
(9.13904e-09 8.45808e-09 1.51398e-09)
(-4.46742e-10 1.3045e-11 1.89487e-09)
(4.7614e-10 -1.30862e-10 1.94109e-09)
(-8.68711e-09 7.82068e-09 1.64652e-09)
(1.46655e-08 1.2965e-09 5.65233e-09)
(8.683e-10 -3.54423e-09 6.39128e-09)
(-1.96025e-10 -3.93986e-09 6.50915e-09)
(-1.34432e-08 4.2797e-11 5.98913e-09)
(1.5149e-08 -5.75422e-09 1.03487e-08)
(1.32058e-09 -7.83917e-09 1.12081e-08)
(3.7905e-10 -8.44453e-09 1.13816e-08)
(-1.29066e-08 -7.57746e-09 1.08489e-08)
(1.48746e-08 -1.11795e-08 1.49427e-08)
(1.46566e-09 -1.26588e-08 1.58254e-08)
(1.60314e-09 -1.34469e-08 1.60452e-08)
(-1.12565e-08 -1.3539e-08 1.55828e-08)
(1.56834e-08 -1.55412e-08 1.89907e-08)
(2.07659e-09 -1.77527e-08 1.98712e-08)
(2.6986e-09 -1.87135e-08 2.0131e-08)
(-1.03353e-08 -1.84131e-08 1.97527e-08)
(1.89557e-08 -1.93371e-08 2.2203e-08)
(3.73684e-09 -2.27113e-08 2.30822e-08)
(3.06974e-09 -2.38431e-08 2.33746e-08)
(-1.15554e-08 -2.27076e-08 2.30661e-08)
(2.64179e-08 -2.54651e-08 2.43044e-08)
(6.88741e-09 -2.84391e-08 2.51941e-08)
(2.24414e-09 -2.97297e-08 2.55074e-08)
(-1.67043e-08 -2.93059e-08 2.52365e-08)
(3.76934e-08 -5.30371e-08 2.50835e-08)
(1.04124e-08 -5.05495e-08 2.60188e-08)
(1.23005e-09 -5.18131e-08 2.63333e-08)
(-2.54997e-08 -5.69121e-08 2.603e-08)
(8.83607e-09 8.11833e-09 1.19868e-09)
(-4.55126e-10 -8.10937e-11 1.37427e-09)
(4.58834e-10 -2.1679e-10 1.40502e-09)
(-8.43009e-09 7.5207e-09 1.28626e-09)
(1.42135e-08 8.34522e-10 4.1341e-09)
(8.02482e-10 -3.86274e-09 4.47404e-09)
(-2.32399e-10 -4.23606e-09 4.55289e-09)
(-1.31192e-08 -3.41118e-10 4.35812e-09)
(1.47402e-08 -6.39131e-09 7.37769e-09)
(1.23847e-09 -8.43286e-09 7.77099e-09)
(2.71802e-10 -9.00855e-09 7.88776e-09)
(-1.27095e-08 -8.11876e-09 7.71282e-09)
(1.4545e-08 -1.19212e-08 1.05834e-08)
(1.38519e-09 -1.33973e-08 1.09834e-08)
(1.40797e-09 -1.41535e-08 1.11323e-08)
(-1.12217e-08 -1.41809e-08 1.10157e-08)
(1.54084e-08 -1.62257e-08 1.34291e-08)
(1.99152e-09 -1.84369e-08 1.38257e-08)
(2.42898e-09 -1.93667e-08 1.40026e-08)
(-1.0432e-08 -1.90021e-08 1.39475e-08)
(1.86906e-08 -1.98846e-08 1.56716e-08)
(3.63147e-09 -2.32507e-08 1.60706e-08)
(2.75132e-09 -2.43539e-08 1.62707e-08)
(-1.17291e-08 -2.31681e-08 1.62623e-08)
(2.61036e-08 -2.59072e-08 1.71524e-08)
(6.74328e-09 -2.88885e-08 1.75663e-08)
(1.90523e-09 -3.01537e-08 1.77812e-08)
(-1.68854e-08 -2.96717e-08 1.7793e-08)
(3.72817e-08 -5.30989e-08 1.78189e-08)
(1.02319e-08 -5.07082e-08 1.82666e-08)
(8.76575e-10 -5.19501e-08 1.84822e-08)
(-2.56317e-08 -5.69087e-08 1.847e-08)
(8.69252e-09 7.94022e-09 7.58148e-10)
(-4.49708e-10 -1.34271e-10 8.34381e-10)
(4.39125e-10 -2.64647e-10 8.52005e-10)
(-8.31312e-09 7.36734e-09 8.0803e-10)
(1.40139e-08 6.38198e-10 2.51858e-09)
(7.88722e-10 -3.99213e-09 2.66489e-09)
(-2.78403e-10 -4.35099e-09 2.7102e-09)
(-1.29952e-08 -4.87574e-10 2.64661e-09)
(1.45747e-08 -6.63057e-09 4.42173e-09)
(1.21962e-09 -8.65503e-09 4.5897e-09)
(1.76621e-10 -9.21119e-09 4.65704e-09)
(-1.26719e-08 -8.29545e-09 4.61413e-09)
(1.4426e-08 -1.22213e-08 6.29998e-09)
(1.366e-09 -1.36975e-08 6.46945e-09)
(1.25726e-09 -1.44325e-08 6.55565e-09)
(-1.12845e-08 -1.44145e-08 6.54941e-09)
(1.53181e-08 -1.65633e-08 7.97428e-09)
(1.96616e-09 -1.87723e-08 8.14222e-09)
(2.23159e-09 -1.96811e-08 8.24505e-09)
(-1.0575e-08 -1.9275e-08 8.27492e-09)
(1.85988e-08 -2.02458e-08 9.30023e-09)
(3.58959e-09 -2.36015e-08 9.47193e-09)
(2.52316e-09 -2.46852e-08 9.58858e-09)
(-1.19165e-08 -2.347e-08 9.6443e-09)
(2.59734e-08 -2.62859e-08 1.01949e-08)
(6.6741e-09 -2.92601e-08 1.03784e-08)
(1.66334e-09 -3.0508e-08 1.0504e-08)
(-1.70738e-08 -2.99982e-08 1.05691e-08)
(3.70861e-08 -5.32804e-08 1.06446e-08)
(1.01371e-08 -5.09256e-08 1.08476e-08)
(6.25147e-10 -5.21528e-08 1.09735e-08)
(-2.57883e-08 -5.70458e-08 1.10253e-08)
(8.62997e-09 7.86372e-09 2.58448e-10)
(-4.46862e-10 -1.56737e-10 2.80069e-10)
(4.29919e-10 -2.84515e-10 2.85812e-10)
(-8.26275e-09 7.30266e-09 2.74644e-10)
(1.39283e-08 5.64987e-10 8.45427e-10)
(7.83718e-10 -4.03799e-09 8.86664e-10)
(-3.00896e-10 -4.38977e-09 9.01446e-10)
(-1.29445e-08 -5.36588e-10 8.87059e-10)
(1.4505e-08 -6.70851e-09 1.47283e-09)
(1.21233e-09 -8.72675e-09 1.51995e-09)
(1.30492e-10 -9.27329e-09 1.54196e-09)
(-1.26622e-08 -8.34267e-09 1.53554e-09)
(1.43766e-08 -1.23252e-08 2.09038e-09)
(1.35761e-09 -1.38016e-08 2.13778e-09)
(1.18488e-09 -1.4526e-08 2.166e-09)
(-1.13215e-08 -1.44853e-08 2.17188e-09)
(1.52799e-08 -1.67029e-08 2.64184e-09)
(1.95349e-09 -1.89099e-08 2.68895e-09)
(2.13711e-09 -1.98082e-08 2.72268e-09)
(-1.06489e-08 -1.93822e-08 2.74033e-09)
(1.85575e-08 -2.04245e-08 3.08068e-09)
(3.56779e-09 -2.37734e-08 3.12948e-09)
(2.41385e-09 -2.48472e-08 3.1678e-09)
(-1.20107e-08 -2.36188e-08 3.19365e-09)
(2.59122e-08 -2.64935e-08 3.38093e-09)
(6.63855e-09 -2.94604e-08 3.43411e-09)
(1.54684e-09 -3.06997e-08 3.4754e-09)
(-1.71682e-08 -3.01794e-08 3.504e-09)
(3.69927e-08 -5.34054e-08 3.53928e-09)
(1.00885e-08 -5.10597e-08 3.5987e-09)
(5.03823e-10 -5.22794e-08 3.64014e-09)
(-2.58677e-08 -5.71483e-08 3.66454e-09)
)
;

boundaryField
{
    interface
    {
        type            solidTraction;
        traction        nonuniform List<vector> 
192
(
(46.153 -0.357095 -2.98383)
(48.0015 -0.250554 -4.74928)
(49.3971 0.0692181 -5.28391)
(50.2475 0.48715 -5.37988)
(50.4148 0.842859 -5.28139)
(51.2271 1.49179 -5.10819)
(49.5706 1.97485 -4.68128)
(53.0446 4.36343 -4.34344)
(44.9164 -0.254896 -1.47669)
(45.8005 -0.163425 -2.523)
(46.6284 0.127851 -2.77882)
(47.2054 0.559231 -2.77278)
(47.1545 0.940334 -2.65554)
(47.8895 1.66088 -2.49651)
(45.9733 2.19843 -2.2212)
(49.6071 4.71421 -1.99672)
(47.5858 -0.219343 -1.16724)
(48.3707 -0.122178 -1.97357)
(49.1913 0.16843 -2.16686)
(49.7782 0.628848 -2.15767)
(49.6332 1.05177 -2.06301)
(50.2735 1.85614 -1.93455)
(47.8948 2.47558 -1.73146)
(51.3026 5.16668 -1.55617)
(47.775 -0.167332 -0.719403)
(48.3674 -0.0507179 -1.28407)
(49.0135 0.241304 -1.41239)
(49.5009 0.712183 -1.39387)
(49.2492 1.15506 -1.31651)
(49.8211 1.99724 -1.21825)
(47.2828 2.65387 -1.08659)
(50.6443 5.39319 -0.977077)
(48.5725 -0.143076 -0.527846)
(49.1061 -0.00750482 -0.942343)
(49.6757 0.29416 -1.03729)
(50.1169 0.777977 -1.02372)
(49.7914 1.24107 -0.966783)
(50.2896 2.11554 -0.893645)
(47.5741 2.80638 -0.80053)
(50.8035 5.59265 -0.720738)
(48.7743 -0.124012 -0.324408)
(49.256 0.0270665 -0.597484)
(49.7577 0.336835 -0.66046)
(50.1549 0.828437 -0.65013)
(49.7777 1.30312 -0.611223)
(50.2331 2.1945 -0.562144)
(47.4343 2.90352 -0.504001)
(50.6158 5.71426 -0.455445)
(49.0351 -0.115007 -0.190822)
(49.4979 0.046696 -0.350923)
(49.964 0.363572 -0.388208)
(50.3369 0.861392 -0.382384)
(49.9261 1.34476 -0.359928)
(50.3478 2.24784 -0.330981)
(47.4832 2.96975 -0.297912)
(50.6159 5.79841 -0.268904)
(49.0967 -0.109269 -0.056766)
(49.5462 0.0577584 -0.108089)
(49.9924 0.377603 -0.120191)
(50.3518 0.877605 -0.118121)
(49.9271 1.36458 -0.110834)
(50.3334 2.27211 -0.101422)
(47.449 2.99995 -0.0914635)
(50.5571 5.83622 -0.0823078)
(4.27712 0.946164 17.8253)
(7.1323 1.04806 13.333)
(8.09118 0.808556 9.72314)
(8.35738 0.564325 8.56573)
(8.39798 0.468254 8.62064)
(8.43514 0.512605 9.62131)
(8.49778 0.633392 11.7878)
(9.20816 0.850039 13.6744)
(2.6621 0.550443 22.6198)
(4.9844 0.739534 21.5995)
(5.69017 0.562549 20.4575)
(5.8467 0.30524 20.1699)
(5.87081 0.149046 20.2283)
(5.95217 0.0727662 20.6362)
(6.18542 0.0882482 21.3583)
(7.14821 0.174281 21.8584)
(2.74539 0.379081 19.6528)
(5.16545 0.54217 18.8711)
(5.93789 0.396312 17.8262)
(6.11886 0.133095 17.5292)
(6.13244 -0.0598899 17.6075)
(6.17039 -0.216178 17.9953)
(6.32751 -0.306533 18.7897)
(7.22529 -0.314486 19.6937)
(3.15922 0.299322 20.1623)
(6.033 0.423857 19.6878)
(7.00556 0.278923 18.8257)
(7.24939 0.00533619 18.6377)
(7.26191 -0.199341 18.7665)
(7.29929 -0.394816 19.063)
(7.37404 -0.545431 19.6184)
(8.28828 -0.696573 20.2882)
(-9.54319 0.903758 1.07533)
(-6.08452 0.935216 2.00695)
(-3.35199 0.464438 2.26843)
(-2.1957 -0.113772 2.34667)
(-2.04195 -0.411636 2.3719)
(-0.885243 -0.843751 2.5471)
(-1.9922 -0.815235 2.64756)
(6.88003 -3.07127 3.16915)
(-15.0751 0.359649 -0.168298)
(-14.3551 0.370667 0.0416417)
(-13.5928 0.110149 0.021)
(-13.0695 -0.248527 0.0106025)
(-13.0038 -0.370405 0.0535846)
(-11.4336 -0.663906 0.26378)
(-11.7122 -0.392338 0.510033)
(-1.93917 -2.56362 0.954575)
(-15.2878 0.198418 0.0316959)
(-14.7505 0.159544 0.334378)
(-14.1333 -0.0131937 0.422085)
(-13.5135 -0.27271 0.463383)
(-13.326 -0.296736 0.516639)
(-11.3506 -0.520164 0.671399)
(-11.3052 -0.138096 0.821411)
(-0.640032 -2.45953 1.04507)
(-16.8937 0.0960497 -0.0399353)
(-16.6244 0.0217317 0.212979)
(-16.2933 -0.0939734 0.302733)
(-15.6964 -0.273097 0.343953)
(-15.4303 -0.210433 0.387935)
(-13.1232 -0.367351 0.499596)
(-12.6931 0.0950115 0.599535)
(-1.45437 -2.28246 0.730953)
(-17.1523 0.0795821 0.0582164)
(-16.8825 -0.00879538 0.296739)
(-16.5632 -0.105679 0.394684)
(-15.8966 -0.255913 0.437611)
(-15.553 -0.154906 0.469545)
(-13.0571 -0.287249 0.535311)
(-12.4784 0.202962 0.579078)
(-0.923537 -2.25201 0.629622)
(-17.6291 0.0733651 0.0364934)
(-17.3721 -0.0198595 0.207056)
(-17.0679 -0.10614 0.281358)
(-16.3607 -0.23948 0.313384)
(-15.9599 -0.11302 0.335306)
(-13.3209 -0.228913 0.37644)
(-12.6122 0.279048 0.400676)
(-0.827096 -2.2215 0.426742)
(-17.7436 0.0758702 0.0392059)
(-17.4743 -0.0182854 0.146123)
(-17.157 -0.100595 0.193204)
(-16.415 -0.227919 0.213079)
(-15.9785 -0.090218 0.225617)
(-13.2622 -0.200168 0.24641)
(-12.4954 0.314216 0.256508)
(-0.578272 -2.21973 0.264724)
(-17.8592 0.0759894 0.00804465)
(-17.5894 -0.0180972 0.0421654)
(-17.2682 -0.0978853 0.0577104)
(-16.511 -0.221738 0.0642847)
(-16.0543 -0.0783267 0.0687179)
(-13.2992 -0.1846 0.075682)
(-12.4931 0.332857 0.0798077)
(-0.515245 -2.21581 0.0826263)
(9.24874 -13.2624 -0.752318)
(8.56138 -11.1596 -0.532633)
(8.5369 -8.54565 -0.368789)
(8.55841 -6.87862 -0.238513)
(8.63801 -5.59247 -0.173824)
(8.68746 -4.68769 -0.106894)
(8.72965 -4.11389 -0.0651493)
(8.74793 -3.8376 -0.0194107)
(7.16623 -21.5199 -0.0587555)
(6.2058 -20.9031 0.0317345)
(5.97724 -19.8996 0.0961051)
(5.89812 -19.1521 0.10454)
(5.89197 -18.5202 0.0882591)
(5.886 -18.0575 0.0682983)
(5.89157 -17.7545 0.0407099)
(5.8927 -17.5958 0.0149115)
(7.24132 -19.3696 0.440285)
(6.33664 -18.3435 0.437996)
(6.17887 -17.2706 0.397028)
(6.14716 -16.5411 0.320539)
(6.16809 -15.8964 0.24911)
(6.17809 -15.465 0.174169)
(6.19219 -15.1668 0.103285)
(6.19655 -15.0294 0.0340912)
(8.28073 -19.9968 0.823658)
(7.35745 -19.2305 0.678378)
(7.27908 -18.4664 0.570641)
(7.25422 -17.9375 0.444626)
(7.29853 -17.4131 0.344021)
(7.31835 -17.0902 0.236655)
(7.34224 -16.8497 0.141747)
(7.35075 -16.7404 0.0461909)
)
;
        pressure        uniform 0;
        secondOrder     false;
        setEffectiveTraction false;
        relaxationFactor 1;
        value           nonuniform List<vector> 
192
(
(7.93938e-08 4.74564e-08 2.15891e-08)
(8.85913e-08 2.96092e-08 3.97778e-08)
(9.13229e-08 1.54818e-08 4.89018e-08)
(9.27742e-08 6.48063e-09 5.57252e-08)
(9.57893e-08 -4.78242e-10 6.24786e-08)
(1.02047e-07 -7.11718e-09 7.03414e-08)
(1.13168e-07 -1.82763e-08 8.0345e-08)
(1.30507e-07 -6.02035e-08 9.15582e-08)
(6.41983e-08 2.60032e-08 7.72444e-10)
(7.11242e-08 1.48981e-08 1.08929e-08)
(7.27545e-08 6.01411e-09 1.97363e-08)
(7.36622e-08 -7.08268e-10 2.65131e-08)
(7.63478e-08 -6.68511e-09 3.26297e-08)
(8.25472e-08 -1.23755e-08 3.90683e-08)
(9.42535e-08 -2.07698e-08 4.56716e-08)
(1.13935e-07 -5.53667e-08 4.96172e-08)
(5.4402e-08 1.82463e-08 1.01706e-10)
(6.02567e-08 7.18497e-09 6.7612e-09)
(6.15614e-08 -6.47411e-10 1.45664e-08)
(6.23412e-08 -6.16147e-09 2.13596e-08)
(6.49359e-08 -1.08121e-08 2.7279e-08)
(7.11927e-08 -1.47295e-08 3.26748e-08)
(8.32508e-08 -2.0575e-08 3.69745e-08)
(1.03551e-07 -5.16963e-08 3.8335e-08)
(4.90639e-08 1.55264e-08 9.81443e-10)
(5.41855e-08 4.02267e-09 6.09463e-09)
(5.5455e-08 -4.15634e-09 1.23615e-08)
(5.63188e-08 -9.422e-09 1.83145e-08)
(5.89704e-08 -1.3223e-08 2.35051e-08)
(6.52969e-08 -1.58912e-08 2.77861e-08)
(7.74614e-08 -2.04605e-08 3.06977e-08)
(9.77965e-08 -5.0107e-08 3.15081e-08)
(4.62612e-08 1.44092e-08 1.258e-09)
(5.10595e-08 2.799e-09 5.24972e-09)
(5.23835e-08 -5.7019e-09 9.95959e-09)
(5.33745e-08 -1.10457e-08 1.45995e-08)
(5.61186e-08 -1.45207e-08 1.86803e-08)
(6.24893e-08 -1.66532e-08 2.19029e-08)
(7.46309e-08 -2.07802e-08 2.3983e-08)
(9.48171e-08 -4.96911e-08 2.47087e-08)
(4.47338e-08 1.38807e-08 1.08699e-09)
(4.94239e-08 2.31057e-09 3.9711e-09)
(5.08133e-08 -6.30838e-09 7.23401e-09)
(5.19035e-08 -1.1754e-08 1.04712e-08)
(5.47172e-08 -1.51891e-08 1.33377e-08)
(6.11016e-08 -1.72104e-08 1.55823e-08)
(7.31809e-08 -2.12589e-08 1.70412e-08)
(9.32105e-08 -4.97691e-08 1.7667e-08)
(4.39002e-08 1.36168e-08 7.0659e-10)
(4.8553e-08 2.10876e-09 2.44723e-09)
(4.99874e-08 -6.52749e-09 4.36287e-09)
(5.11369e-08 -1.20353e-08 6.25781e-09)
(5.39888e-08 -1.55199e-08 7.94211e-09)
(6.03713e-08 -1.75816e-08 9.26692e-09)
(7.23955e-08 -2.16636e-08 1.0147e-08)
(9.23134e-08 -4.99664e-08 1.05723e-08)
(4.35248e-08 1.35033e-08 2.42802e-10)
(4.81625e-08 2.03377e-09 8.24006e-10)
(4.96175e-08 -6.59639e-09 1.45539e-09)
(5.07932e-08 -1.21313e-08 2.078e-09)
(5.36607e-08 -1.56575e-08 2.63228e-09)
(6.00389e-08 -1.77661e-08 3.07035e-09)
(7.20331e-08 -2.18842e-08 3.36561e-09)
(9.18949e-08 -5.01006e-08 3.51592e-09)
(2.20228e-08 4.98078e-08 8.32109e-08)
(3.52119e-08 3.31247e-08 9.85882e-08)
(3.69154e-08 1.9169e-08 1.09021e-07)
(3.6678e-08 9.71267e-09 1.17628e-07)
(3.75473e-08 2.12074e-09 1.26582e-07)
(4.08496e-08 -5.32367e-09 1.37383e-07)
(4.81997e-08 -1.75809e-08 1.51153e-07)
(5.93677e-08 -6.05627e-08 1.68714e-07)
(1.70158e-09 3.45046e-08 7.52003e-08)
(5.83377e-09 2.4892e-08 9.03181e-08)
(7.10281e-09 1.59601e-08 9.99252e-08)
(7.39928e-09 7.87461e-09 1.07912e-07)
(8.12095e-09 -2.51349e-10 1.1645e-07)
(9.90809e-09 -8.72653e-09 1.27041e-07)
(1.32146e-08 -2.03352e-08 1.41244e-07)
(1.70043e-08 -5.80854e-08 1.61344e-07)
(-1.18764e-09 3.43404e-08 7.458e-08)
(-3.68286e-09 2.44927e-08 8.98647e-08)
(-3.04255e-09 1.53346e-08 9.95891e-08)
(-1.23132e-09 7.04836e-09 1.07663e-07)
(3.61127e-10 -1.26101e-09 1.16268e-07)
(1.10329e-09 -9.91504e-09 1.2691e-07)
(5.28218e-10 -2.16971e-08 1.41158e-07)
(-4.31549e-10 -5.94514e-08 1.61327e-07)
(-2.10341e-08 4.90274e-08 8.15691e-08)
(-3.24532e-08 3.17107e-08 9.75204e-08)
(-3.2272e-08 1.71517e-08 1.08301e-07)
(-2.99392e-08 7.13559e-09 1.17166e-07)
(-2.84918e-08 -9.72183e-10 1.2632e-07)
(-2.927e-08 -8.91346e-09 1.3728e-07)
(-3.39282e-08 -2.16625e-08 1.51185e-07)
(-4.23075e-08 -6.47555e-08 1.68953e-07)
(-7.5582e-08 4.55836e-08 2.1877e-08)
(-8.3122e-08 2.71204e-08 4.07559e-08)
(-8.40415e-08 1.23468e-08 5.04271e-08)
(-8.34382e-08 2.71037e-09 5.76528e-08)
(-8.41643e-08 -4.85172e-09 6.47113e-08)
(-8.79296e-08 -1.20697e-08 7.28202e-08)
(-9.64317e-08 -2.3772e-08 8.30296e-08)
(-1.11097e-07 -6.58158e-08 9.43824e-08)
(-6.0452e-08 2.44056e-08 1.2107e-09)
(-6.60793e-08 1.25604e-08 1.19517e-08)
(-6.61472e-08 2.96641e-09 2.12743e-08)
(-6.51803e-08 -4.41501e-09 2.84235e-08)
(-6.57013e-08 -1.10068e-08 3.48322e-08)
(-6.94877e-08 -1.72817e-08 4.15036e-08)
(-7.86288e-08 -2.62107e-08 4.82827e-08)
(-9.57255e-08 -6.08891e-08 5.23159e-08)
(-5.08819e-08 1.68882e-08 4.31028e-10)
(-5.5651e-08 5.09347e-09 7.5759e-09)
(-5.55921e-08 -3.47966e-09 1.57637e-08)
(-5.46632e-08 -9.68603e-09 2.28709e-08)
(-5.52199e-08 -1.49791e-08 2.90488e-08)
(-5.91508e-08 -1.95e-08 3.46525e-08)
(-6.8696e-08 -2.58871e-08 3.91019e-08)
(-8.64466e-08 -5.70819e-08 4.05247e-08)
(-4.57466e-08 1.43452e-08 1.2164e-09)
(-4.99518e-08 2.1516e-09 6.69061e-09)
(-5.00138e-08 -6.76487e-09 1.32506e-08)
(-4.93082e-08 -1.27403e-08 1.94543e-08)
(-5.00366e-08 -1.72075e-08 2.48592e-08)
(-5.41235e-08 -2.05013e-08 2.9316e-08)
(-6.38315e-08 -2.56292e-08 3.23532e-08)
(-8.16492e-08 -5.53604e-08 3.3214e-08)
(-4.30855e-08 1.33533e-08 1.42039e-09)
(-4.70891e-08 1.09766e-09 5.6682e-09)
(-4.73228e-08 -8.12415e-09 1.05924e-08)
(-4.68543e-08 -1.41819e-08 1.54214e-08)
(-4.77709e-08 -1.83384e-08 1.96688e-08)
(-5.19786e-08 -2.11154e-08 2.30307e-08)
(-6.17193e-08 -2.58198e-08 2.52116e-08)
(-7.94243e-08 -5.48314e-08 2.59786e-08)
(-4.1647e-08 1.2908e-08 1.19277e-09)
(-4.56231e-08 7.28737e-10 4.24615e-09)
(-4.60038e-08 -8.59314e-09 7.65419e-09)
(-4.57149e-08 -1.47504e-08 1.10227e-08)
(-4.6774e-08 -1.88753e-08 1.40075e-08)
(-5.10569e-08 -2.15548e-08 1.63526e-08)
(-6.07827e-08 -2.6196e-08 1.78854e-08)
(-7.83644e-08 -5.4821e-08 1.85422e-08)
(-4.08651e-08 1.26944e-08 7.66202e-10)
(-4.4852e-08 6.02114e-10 2.60299e-09)
(-4.53289e-08 -8.72314e-09 4.60234e-09)
(-4.51513e-08 -1.49387e-08 6.57438e-09)
(-4.62977e-08 -1.9117e-08 8.32917e-09)
(-5.06213e-08 -2.18453e-08 9.71472e-09)
(-6.03259e-08 -2.65302e-08 1.06399e-08)
(-7.78209e-08 -5.49577e-08 1.10844e-08)
(-4.05134e-08 1.26045e-08 2.62052e-10)
(-4.45077e-08 5.63274e-10 8.7441e-10)
(-4.50296e-08 -8.74846e-09 1.53313e-09)
(-4.49039e-08 -1.49887e-08 2.18113e-09)
(-4.60903e-08 -1.92099e-08 2.75882e-09)
(-5.04312e-08 -2.1989e-08 3.21719e-09)
(-6.01235e-08 -2.67151e-08 3.52761e-09)
(-7.75755e-08 -5.50612e-08 3.6844e-09)
(5.9717e-08 -1.37749e-07 9.47476e-08)
(4.93007e-08 -1.26581e-07 5.17446e-08)
(4.26605e-08 -1.19191e-07 3.94247e-08)
(3.97902e-08 -1.14786e-07 3.20112e-08)
(3.87459e-08 -1.12444e-07 2.4993e-08)
(3.83504e-08 -1.11277e-07 1.78797e-08)
(3.81559e-08 -1.10733e-07 1.07212e-08)
(3.80601e-08 -1.10522e-07 3.57052e-09)
(1.73445e-08 -1.31056e-07 9.16072e-08)
(1.4298e-08 -1.17382e-07 5.38772e-08)
(1.1723e-08 -1.09603e-07 4.23037e-08)
(1.05304e-08 -1.05425e-07 3.39246e-08)
(1.01073e-08 -1.03374e-07 2.5999e-08)
(9.94563e-09 -1.02388e-07 1.83606e-08)
(9.85617e-09 -1.01928e-07 1.09354e-08)
(9.80795e-09 -1.01745e-07 3.63221e-09)
(-8.26635e-11 -1.31719e-07 9.2298e-08)
(1.60327e-09 -1.17991e-07 5.45721e-08)
(2.96132e-09 -1.10184e-07 4.28495e-08)
(3.16364e-09 -1.0598e-07 3.43374e-08)
(2.8217e-09 -1.03903e-07 2.63011e-08)
(2.42771e-09 -1.02898e-07 1.85672e-08)
(2.15619e-09 -1.02423e-07 1.10559e-08)
(2.027e-09 -1.02234e-07 3.67179e-09)
(-4.19518e-08 -1.40045e-07 9.68906e-08)
(-3.28617e-08 -1.28708e-07 5.37902e-08)
(-2.74086e-08 -1.2123e-07 4.1036e-08)
(-2.55311e-08 -1.16741e-07 3.32442e-08)
(-2.52641e-08 -1.14323e-07 2.59023e-08)
(-2.54347e-08 -1.13097e-07 1.85034e-08)
(-2.56079e-08 -1.12512e-07 1.10853e-08)
(-2.56928e-08 -1.12279e-07 3.69018e-09)
)
;
        gradient        nonuniform List<vector> 
192
(
(4.61205e-06 1.12647e-06 -1.3349e-07)
(4.32087e-06 2.89518e-07 -2.15437e-07)
(4.40829e-06 2.87018e-08 -2.31451e-07)
(4.5407e-06 1.41831e-08 -2.34304e-07)
(4.7089e-06 8.51705e-08 -2.36258e-07)
(4.94189e-06 2.13937e-07 -2.37347e-07)
(5.24353e-06 3.679e-07 -2.36591e-07)
(5.74716e-06 2.62918e-07 -2.34094e-07)
(3.88548e-06 8.14085e-07 -2.01786e-07)
(3.68398e-06 2.08249e-07 -3.16592e-07)
(3.73697e-06 1.10876e-08 -3.37633e-07)
(3.84267e-06 6.3031e-09 -3.42752e-07)
(3.99924e-06 7.86701e-08 -3.47488e-07)
(4.23884e-06 2.11859e-07 -3.50443e-07)
(4.58436e-06 3.76122e-07 -3.47881e-07)
(5.24546e-06 2.65781e-07 -3.39163e-07)
(3.41978e-06 6.08143e-07 -1.15419e-07)
(3.32033e-06 1.5369e-07 -1.8505e-07)
(3.37777e-06 2.54545e-09 -1.94956e-07)
(3.47693e-06 4.32909e-09 -1.94259e-07)
(3.63045e-06 7.74795e-08 -1.94184e-07)
(3.87518e-06 2.13543e-07 -1.93451e-07)
(4.24156e-06 3.79179e-07 -1.9123e-07)
(4.94725e-06 2.67656e-07 -1.91743e-07)
(3.13634e-06 5.13658e-07 -5.03242e-08)
(3.06898e-06 1.28727e-07 -8.17563e-08)
(3.13271e-06 1.8831e-09 -8.38246e-08)
(3.23212e-06 7.07579e-09 -8.01192e-08)
(3.38568e-06 7.94777e-08 -7.74571e-08)
(3.63252e-06 2.14813e-07 -7.59596e-08)
(4.00582e-06 3.7783e-07 -7.62811e-08)
(4.72131e-06 2.683e-07 -8.03507e-08)
(2.96977e-06 4.7609e-07 -2.04789e-08)
(2.91152e-06 1.202e-07 -3.22089e-08)
(2.97876e-06 4.18552e-09 -3.11294e-08)
(3.07999e-06 1.06973e-08 -2.74597e-08)
(3.23482e-06 8.16392e-08 -2.48322e-08)
(3.48268e-06 2.14719e-07 -2.40091e-08)
(3.85703e-06 3.74789e-07 -2.57127e-08)
(4.5699e-06 2.67683e-07 -2.99787e-08)
(2.87182e-06 4.6099e-07 -8.93468e-09)
(2.81683e-06 1.18084e-07 -1.30397e-08)
(2.88584e-06 6.63457e-09 -1.14948e-08)
(2.98868e-06 1.33736e-08 -8.98066e-09)
(3.1447e-06 8.29286e-08 -7.3137e-09)
(3.39289e-06 2.13933e-07 -7.1464e-09)
(3.76619e-06 3.71862e-07 -8.898e-09)
(4.4743e-06 2.66383e-07 -1.21507e-08)
(2.81662e-06 4.54128e-07 -4.12461e-09)
(2.76313e-06 1.17645e-07 -5.70812e-09)
(2.83301e-06 8.24616e-09 -4.7088e-09)
(2.93688e-06 1.48788e-08 -3.37377e-09)
(3.09366e-06 8.34737e-08 -2.57331e-09)
(3.3418e-06 2.13135e-07 -2.66532e-09)
(3.71377e-06 3.69786e-07 -3.83186e-09)
(4.41818e-06 2.6512e-07 -5.78318e-09)
(2.79159e-06 4.51165e-07 -1.25175e-09)
(2.73874e-06 1.17502e-07 -1.7137e-09)
(2.809e-06 8.96985e-09 -1.3952e-09)
(2.91333e-06 1.55093e-08 -9.90322e-10)
(3.07046e-06 8.36372e-08 -7.64781e-10)
(3.31851e-06 2.12675e-07 -8.26886e-10)
(3.68968e-06 3.68744e-07 -1.22502e-09)
(4.39217e-06 2.64384e-07 -1.86876e-09)
(2.23726e-08 1.31458e-06 4.79626e-06)
(5.05138e-08 5.70758e-07 4.4894e-06)
(5.56936e-08 3.23676e-07 4.57807e-06)
(5.30025e-08 2.72746e-07 4.71789e-06)
(4.95453e-08 2.93089e-07 4.892e-06)
(4.60914e-08 3.57418e-07 5.12596e-06)
(4.60662e-08 4.23531e-07 5.42805e-06)
(5.60443e-08 2.34179e-07 5.93834e-06)
(-4.35052e-08 1.21285e-06 4.33312e-06)
(-5.2921e-08 5.55045e-07 4.05698e-06)
(-5.2882e-08 3.16712e-07 4.09098e-06)
(-5.49297e-08 2.64187e-07 4.19765e-06)
(-5.78191e-08 2.84652e-07 4.35621e-06)
(-6.05685e-08 3.53766e-07 4.58938e-06)
(-5.91524e-08 4.35093e-07 4.92467e-06)
(-4.72137e-08 2.42017e-07 5.59326e-06)
(4.87149e-08 1.21805e-06 4.27994e-06)
(7.22274e-08 5.61335e-07 4.00345e-06)
(8.34545e-08 3.2165e-07 4.03536e-06)
(9.36741e-08 2.67801e-07 4.14073e-06)
(1.02718e-07 2.87442e-07 4.29844e-06)
(1.10458e-07 3.56072e-07 4.53076e-06)
(1.13264e-07 4.36858e-07 4.86538e-06)
(1.04116e-07 2.42719e-07 5.53667e-06)
(-1.58945e-08 1.33369e-06 4.64791e-06)
(-3.03913e-08 5.89739e-07 4.34452e-06)
(-2.49025e-08 3.38142e-07 4.42756e-06)
(-1.42863e-08 2.83444e-07 4.56362e-06)
(-4.77554e-09 3.01431e-07 4.73526e-06)
(3.53701e-09 3.64303e-07 4.96697e-06)
(7.57551e-09 4.28729e-07 5.26723e-06)
(4.35578e-10 2.3614e-07 5.78587e-06)
(-4.37973e-06 1.05819e-06 -1.27453e-07)
(-4.0839e-06 2.22518e-07 -1.96638e-07)
(-4.16646e-06 -4.62488e-08 -2.0238e-07)
(-4.29421e-06 -7.05735e-08 -1.97446e-07)
(-4.45857e-06 -8.93237e-09 -1.93422e-07)
(-4.68923e-06 1.11805e-07 -1.8978e-07)
(-4.9927e-06 2.59962e-07 -1.85189e-07)
(-5.50269e-06 1.51315e-07 -1.79757e-07)
(-3.6474e-06 7.57191e-07 -1.96272e-07)
(-3.44635e-06 1.52072e-07 -3.00508e-07)
(-3.49475e-06 -5.51183e-08 -3.1254e-07)
(-3.59491e-06 -7.16826e-08 -3.10403e-07)
(-3.7458e-06 -1.01804e-08 -3.09403e-07)
(-3.98021e-06 1.13861e-07 -3.07857e-07)
(-4.32452e-06 2.71534e-07 -3.01738e-07)
(-4.99307e-06 1.56745e-07 -2.90077e-07)
(-3.1888e-06 5.61398e-07 -1.10495e-07)
(-3.08825e-06 1.06237e-07 -1.71932e-07)
(-3.14067e-06 -5.61487e-08 -1.7454e-07)
(-3.23382e-06 -6.74392e-08 -1.67524e-07)
(-3.38064e-06 -6.38818e-09 -1.62207e-07)
(-3.61836e-06 1.19468e-07 -1.57269e-07)
(-3.98082e-06 2.77741e-07 -1.51721e-07)
(-4.69105e-06 1.61431e-07 -1.49473e-07)
(-2.91296e-06 4.74755e-07 -4.66969e-08)
(-2.8439e-06 8.80169e-08 -7.209e-08)
(-2.90226e-06 -5.07144e-08 -6.85376e-08)
(-2.99526e-06 -5.93511e-08 -5.9674e-08)
(-3.14148e-06 7.41296e-11 -5.25274e-08)
(-3.38018e-06 1.24347e-07 -4.73104e-08)
(-3.74766e-06 2.79331e-07 -4.46208e-08)
(-4.46492e-06 1.64742e-07 -4.61648e-08)
(-2.75187e-06 4.42607e-07 -1.80905e-08)
(-2.69168e-06 8.43894e-08 -2.56739e-08)
(-2.7533e-06 -4.37356e-08 -2.0514e-08)
(-2.84782e-06 -5.14299e-08 -1.29078e-08)
(-2.99485e-06 5.97524e-09 -6.71566e-09)
(-3.23386e-06 1.27375e-07 -2.83569e-09)
(-3.60121e-06 2.78888e-07 -1.99814e-09)
(-4.31397e-06 1.66455e-07 -4.11293e-09)
(-2.65735e-06 4.30986e-07 -7.47938e-09)
(-2.60032e-06 8.55884e-08 -8.95765e-09)
(-2.66354e-06 -3.79503e-08 -4.69037e-09)
(-2.75945e-06 -4.55533e-08 5.64202e-10)
(-2.90736e-06 1.01462e-08 4.79806e-09)
(-3.14622e-06 1.29064e-07 7.22818e-09)
(-3.51178e-06 2.78055e-07 7.39672e-09)
(-4.21861e-06 1.67017e-07 5.77833e-09)
(-2.60416e-06 4.26167e-07 -3.34625e-09)
(-2.54854e-06 8.71751e-08 -3.49027e-09)
(-2.61256e-06 -3.4215e-08 -9.43653e-10)
(-2.70935e-06 -4.19418e-08 1.99764e-09)
(-2.85782e-06 1.26392e-08 4.33995e-09)
(-3.09638e-06 1.29974e-07 5.63357e-09)
(-3.46016e-06 2.77439e-07 5.65833e-09)