/*--------------------------------*- C++ -*----------------------------------*\
| =========                 |                                                 |
| \\      /  F ield         | OpenFOAM: The Open Source CFD Toolbox           |
|  \\    /   O peration     | Version:  v1912                                 |
|   \\  /    A nd           | Website:  www.openfoam.com                      |
|    \\/     M anipulation  |                                                 |
\*---------------------------------------------------------------------------*/
FoamFile
{
    version     2.0;
    format      ascii;
    class       volVectorField;
    location    "0.52/solid";
    object      D_0;
}
// * * * * * * * * * * * * * * * * * * * * * * * * * * * * * * * * * * * * * //

dimensions      [0 1 0 0 0 0 0];


internalField   nonuniform List<vector> 
256
(
(2.14288e-08 3.30654e-08 2.28986e-08)
(2.17759e-09 1.91648e-08 2.07139e-08)
(-1.71774e-09 1.89405e-08 2.07637e-08)
(-2.05268e-08 3.20644e-08 2.3128e-08)
(3.40296e-08 2.57625e-08 4.16779e-08)
(6.35824e-09 1.7828e-08 3.88653e-08)
(-4.42654e-09 1.73524e-08 3.90913e-08)
(-3.15231e-08 2.41172e-08 4.24535e-08)
(3.5631e-08 1.51244e-08 5.07069e-08)
(7.61716e-09 1.20453e-08 4.7758e-08)
(-3.90424e-09 1.13564e-08 4.81302e-08)
(-3.13606e-08 1.29186e-08 5.19096e-08)
(3.54449e-08 6.54931e-09 5.73136e-08)
(7.95431e-09 4.84185e-09 5.41688e-08)
(-2.21809e-09 3.96459e-09 5.46464e-08)
(-2.91606e-08 3.81885e-09 5.8827e-08)
(3.636e-08 -1.03534e-09 6.38364e-08)
(8.72332e-09 -3.26368e-09 6.04839e-08)
(-7.26812e-10 -4.31787e-09 6.10404e-08)
(-2.78119e-08 -4.26307e-09 6.55853e-08)
(3.9641e-08 -8.96914e-09 7.14261e-08)
(1.05302e-08 -1.22654e-08 6.78879e-08)
(-3.81487e-11 -1.34961e-08 6.85084e-08)
(-2.86014e-08 -1.2686e-08 7.33666e-08)
(4.68109e-08 -2.15803e-08 8.10876e-08)
(1.37652e-08 -2.44422e-08 7.75695e-08)
(-5.5922e-10 -2.58434e-08 7.82448e-08)
(-3.30959e-08 -2.57795e-08 8.31909e-08)
(5.76102e-08 -6.1448e-08 9.19709e-08)
(1.73471e-08 -5.91478e-08 8.89909e-08)
(-1.30228e-09 -6.05466e-08 8.97034e-08)
(-4.1103e-08 -6.57386e-08 9.41818e-08)
(1.54517e-08 1.5727e-08 3.16311e-09)
(1.03753e-09 4.25469e-09 4.0959e-09)
(-7.5687e-10 4.06308e-09 4.22458e-09)
(-1.46908e-08 1.48516e-08 3.5391e-09)
(2.47524e-08 1.2319e-08 1.44257e-08)
(4.09786e-09 5.60563e-09 1.62284e-08)
(-2.63865e-09 5.1132e-09 1.65296e-08)
(-2.2689e-08 1.06847e-08 1.53011e-08)
(2.57025e-08 6.09971e-09 2.32632e-08)
(5.04678e-09 3.37681e-09 2.53847e-08)
(-2.05038e-09 2.65943e-09 2.58139e-08)
(-2.21269e-08 3.86976e-09 2.45127e-08)
(2.53109e-08 -3.39761e-10 2.98615e-08)
(5.2973e-09 -1.94167e-09 3.20643e-08)
(-4.7574e-10 -2.8426e-09 3.25906e-08)
(-1.99166e-08 -3.0921e-09 3.13981e-08)
(2.6047e-08 -6.97595e-09 3.58e-08)
(5.9949e-09 -9.1551e-09 3.80008e-08)
(9.27422e-10 -1.02264e-08 3.86025e-08)
(-1.85399e-08 -1.02177e-08 3.75616e-08)
(2.91936e-08 -1.40517e-08 4.20307e-08)
(7.73614e-09 -1.73389e-08 4.42058e-08)
(1.55236e-09 -1.85804e-08 4.48683e-08)
(-1.93133e-08 -1.77736e-08 4.39733e-08)
(3.64e-08 -2.41259e-08 4.83722e-08)
(1.09358e-08 -2.6959e-08 5.05496e-08)
(9.6344e-10 -2.83611e-08 5.12569e-08)
(-2.3939e-08 -2.83107e-08 5.04502e-08)
(4.75567e-08 -5.67774e-08 5.20905e-08)
(1.45006e-08 -5.39667e-08 5.43117e-08)
(1.65583e-10 -5.53461e-08 5.50345e-08)
(-3.23823e-08 -6.10064e-08 5.42216e-08)
(1.15734e-08 1.0621e-08 1.47895e-09)
(6.0279e-11 8.1485e-10 2.67167e-09)
(8.93975e-11 6.46218e-10 2.76715e-09)
(-1.09522e-08 9.85804e-09 1.75109e-09)
(1.86016e-08 5.41261e-09 8.80134e-09)
(2.0877e-09 -2.8197e-10 1.10516e-08)
(-1.00479e-09 -7.44127e-10 1.12837e-08)
(-1.69149e-08 3.91589e-09 9.46404e-09)
(1.91863e-08 -3.22726e-10 1.65004e-08)
(2.75258e-09 -2.70425e-09 1.91054e-08)
(-3.45552e-10 -3.39406e-09 1.94389e-08)
(-1.61957e-08 -2.42989e-09 1.74604e-08)
(1.8749e-08 -5.64911e-09 2.30616e-08)
(2.93479e-09 -7.17251e-09 2.5772e-08)
(1.11799e-09 -8.0487e-09 2.61859e-08)
(-1.41152e-08 -8.2951e-09 2.42615e-08)
(1.9432e-08 -1.10001e-08 2.87677e-08)
(3.57612e-09 -1.31702e-08 3.15088e-08)
(2.42947e-09 -1.42179e-08 3.19884e-08)
(-1.28281e-08 -1.41471e-08 3.01649e-08)
(2.25718e-08 -1.63965e-08 3.3961e-08)
(5.2678e-09 -1.96943e-08 3.67057e-08)
(2.98416e-09 -2.09111e-08 3.72382e-08)
(-1.37077e-08 -2.00289e-08 3.55174e-08)
(2.98684e-08 -2.40304e-08 3.80931e-08)
(8.4427e-09 -2.68787e-08 4.08324e-08)
(2.32418e-09 -2.82525e-08 4.14004e-08)
(-1.85126e-08 -2.81225e-08 3.97608e-08)
(4.10864e-08 -5.32946e-08 3.94381e-08)
(1.19881e-08 -5.04984e-08 4.2192e-08)
(1.4669e-09 -5.18436e-08 4.27657e-08)
(-2.70911e-08 -5.74182e-08 4.11348e-08)
(9.81851e-09 9.10903e-09 1.55616e-09)
(-3.41047e-10 2.31776e-10 2.29619e-09)
(4.14482e-10 7.81292e-11 2.36345e-09)
(-9.30634e-09 8.42588e-09 1.74896e-09)
(1.57458e-08 2.60999e-09 6.90158e-09)
(1.1647e-09 -2.49215e-09 8.3246e-09)
(-3.35664e-10 -2.91779e-09 8.49372e-09)
(-1.43477e-08 1.25139e-09 7.38528e-09)
(1.62224e-08 -3.76686e-09 1.30082e-08)
(1.67844e-09 -5.93633e-09 1.46633e-08)
(3.027e-10 -6.58294e-09 1.49099e-08)
(-1.36844e-08 -5.72403e-09 1.37193e-08)
(1.58623e-08 -8.89622e-09 1.87275e-08)
(1.83627e-09 -1.03739e-08 2.04431e-08)
(1.63823e-09 -1.12078e-08 2.07528e-08)
(-1.18285e-08 -1.13999e-08 1.96287e-08)
(1.65965e-08 -1.34162e-08 2.37108e-08)
(2.45797e-09 -1.55864e-08 2.54385e-08)
(2.84001e-09 -1.65943e-08 2.58017e-08)
(-1.07186e-08 -1.64335e-08 2.4774e-08)
(1.97761e-08 -1.75985e-08 2.78304e-08)
(4.12259e-09 -2.09067e-08 2.95573e-08)
(3.31499e-09 -2.20858e-08 2.99637e-08)
(-1.1741e-08 -2.11124e-08 2.90259e-08)
(2.70934e-08 -2.39737e-08 3.06629e-08)
(7.2618e-09 -2.68711e-08 3.23906e-08)
(2.6027e-09 -2.82087e-08 3.2825e-08)
(-1.66492e-08 -2.79557e-08 3.1949e-08)
(3.82308e-08 -5.18293e-08 3.15317e-08)
(1.07694e-08 -4.92428e-08 3.33011e-08)
(1.70708e-09 -5.05545e-08 3.3738e-08)
(-2.52161e-08 -5.58509e-08 3.28372e-08)
(9.10979e-09 8.47084e-09 1.46632e-09)
(-4.40838e-10 6.9344e-11 1.83623e-09)
(4.69949e-10 -7.29069e-11 1.88328e-09)
(-8.67152e-09 7.84592e-09 1.60113e-09)
(1.46086e-08 1.50544e-09 5.48011e-09)
(8.75472e-10 -3.29892e-09 6.19952e-09)
(-2.10929e-10 -3.69377e-09 6.31958e-09)
(-1.34111e-08 2.57212e-10 5.82291e-09)
(1.50952e-08 -5.32857e-09 1.00346e-08)
(1.33169e-09 -7.39478e-09 1.0873e-08)
(3.56802e-10 -8.00173e-09 1.10498e-08)
(-1.28802e-08 -7.15547e-09 1.0544e-08)
(1.48344e-08 -1.05607e-08 1.44848e-08)
(1.4857e-09 -1.20203e-08 1.53479e-08)
(1.57554e-09 -1.28129e-08 1.5572e-08)
(-1.12399e-08 -1.29333e-08 1.51371e-08)
(1.56398e-08 -1.47549e-08 1.84024e-08)
(2.10095e-09 -1.69256e-08 1.92655e-08)
(2.67733e-09 -1.7894e-08 1.95304e-08)
(-1.03049e-08 -1.76493e-08 1.91795e-08)
(1.88471e-08 -1.83971e-08 2.15149e-08)
(3.74332e-09 -2.17051e-08 2.23781e-08)
(3.08406e-09 -2.28476e-08 2.26764e-08)
(-1.14428e-08 -2.17993e-08 2.23954e-08)
(2.61302e-08 -2.43141e-08 2.35658e-08)
(6.83973e-09 -2.72433e-08 2.444e-08)
(2.33816e-09 -2.85478e-08 2.47597e-08)
(-1.63893e-08 -2.81968e-08 2.45173e-08)
(3.71584e-08 -5.14808e-08 2.43565e-08)
(1.03058e-08 -4.90682e-08 2.52742e-08)
(1.41805e-09 -5.03514e-08 2.55952e-08)
(-2.49084e-08 -5.54161e-08 2.53228e-08)
(8.80926e-09 8.13393e-09 1.1614e-09)
(-4.4994e-10 -2.5189e-11 1.33219e-09)
(4.53e-10 -1.59096e-10 1.36349e-09)
(-8.41742e-09 7.54931e-09 1.25049e-09)
(1.41589e-08 1.04253e-09 4.00706e-09)
(8.07973e-10 -3.61999e-09 4.33915e-09)
(-2.47137e-10 -3.99213e-09 4.41946e-09)
(-1.30911e-08 -1.26251e-10 4.23506e-09)
(1.46856e-08 -5.97163e-09 7.1513e-09)
(1.24629e-09 -7.99395e-09 7.537e-09)
(2.49794e-10 -8.57063e-09 7.65597e-09)
(-1.26856e-08 -7.70086e-09 7.49254e-09)
(1.44998e-08 -1.13158e-08 1.02574e-08)
(1.3998e-09 -1.27705e-08 1.06512e-08)
(1.38099e-09 -1.35306e-08 1.08029e-08)
(-1.1205e-08 -1.35864e-08 1.06977e-08)
(1.53556e-08 -1.54631e-08 1.30144e-08)
(2.00839e-09 -1.7632e-08 1.34064e-08)
(2.40862e-09 -1.85687e-08 1.35868e-08)
(-1.03991e-08 -1.82597e-08 1.35429e-08)
(1.85704e-08 -1.89785e-08 1.51916e-08)
(3.62931e-09 -2.22775e-08 1.55871e-08)
(2.76602e-09 -2.33907e-08 1.57912e-08)
(-1.16134e-08 -2.22916e-08 1.57941e-08)
(2.58062e-08 -2.47972e-08 1.66418e-08)
(6.6874e-09 -2.77315e-08 1.70521e-08)
(1.99768e-09 -2.901e-08 1.72715e-08)
(-1.65708e-08 -2.86014e-08 1.72954e-08)
(3.67422e-08 -5.15914e-08 1.73173e-08)
(1.01178e-08 -4.92684e-08 1.77599e-08)
(1.06091e-09 -5.05293e-08 1.798e-08)
(-2.50472e-08 -5.54598e-08 1.79819e-08)
(8.6659e-09 7.95627e-09 7.3453e-10)
(-4.45384e-10 -7.91638e-11 8.08823e-10)
(4.33961e-10 -2.07667e-10 8.26766e-10)
(-8.30094e-09 7.39673e-09 7.85272e-10)
(1.39579e-08 8.41902e-10 2.44069e-09)
(7.92101e-10 -3.75387e-09 2.58419e-09)
(-2.9189e-10 -4.11128e-09 2.63034e-09)
(-1.29667e-08 -2.76131e-10 2.57098e-09)
(1.45162e-08 -6.22066e-09 4.28515e-09)
(1.22399e-09 -8.22505e-09 4.45088e-09)
(1.56273e-10 -8.78182e-09 4.51949e-09)
(-1.26459e-08 -7.88609e-09 4.48104e-09)
(1.4374e-08 -1.16311e-08 6.10527e-09)
(1.37572e-09 -1.30848e-08 6.27352e-09)
(1.23228e-09 -1.38232e-08 6.36137e-09)
(-1.12639e-08 -1.38338e-08 6.35936e-09)
(1.5256e-08 -1.58212e-08 7.72852e-09)
(1.97687e-09 -1.79868e-08 7.89621e-09)
(2.21334e-09 -1.89021e-08 8.00106e-09)
(-1.05367e-08 -1.85516e-08 8.03497e-09)
(1.84681e-08 -1.93639e-08 9.01761e-09)
(3.58058e-09 -2.26519e-08 9.18961e-09)
(2.53953e-09 -2.37451e-08 9.3086e-09)
(-1.17955e-08 -2.26162e-08 9.36852e-09)
(2.56667e-08 -2.52019e-08 9.89551e-09)
(6.61164e-09 -2.81282e-08 1.00792e-08)
(1.75617e-09 -2.93889e-08 1.02073e-08)
(-1.67561e-08 -2.89527e-08 1.02774e-08)
(3.65406e-08 -5.18029e-08 1.03507e-08)
(1.0017e-08 -4.95121e-08 1.05529e-08)
(8.08507e-10 -5.07579e-08 1.06815e-08)
(-2.52049e-08 -5.56257e-08 1.07393e-08)
(8.60328e-09 7.87964e-09 2.50375e-10)
(-4.42972e-10 -1.02207e-10 2.71472e-10)
(4.25106e-10 -2.2807e-10 2.77319e-10)
(-8.25063e-09 7.33208e-09 2.6685e-10)
(1.38713e-08 7.65632e-10 8.1919e-10)
(7.86006e-10 -3.80269e-09 8.59742e-10)
(-3.13683e-10 -4.15289e-09 8.74795e-10)
(-1.29155e-08 -3.2778e-10 8.61556e-10)
(1.44442e-08 -6.3049e-09 1.4272e-09)
(1.21493e-09 -8.30255e-09 1.47388e-09)
(1.1109e-10 -8.8495e-09 1.4963e-09)
(-1.26348e-08 -7.939e-09 1.49104e-09)
(1.43209e-08 -1.17442e-08 2.02568e-09)
(1.36486e-09 -1.31974e-08 2.07299e-09)
(1.16102e-09 -1.3925e-08 2.10175e-09)
(-1.12986e-08 -1.39131e-08 2.1087e-09)
(1.52129e-08 -1.59721e-08 2.56051e-09)
(1.96113e-09 -1.81353e-08 2.60785e-09)
(2.12001e-09 -1.90398e-08 2.64224e-09)
(-1.06077e-08 -1.86693e-08 2.66089e-09)
(1.84214e-08 -1.9555e-08 2.98744e-09)
(3.5554e-09 -2.28359e-08 3.03664e-09)
(2.43112e-09 -2.39191e-08 3.07573e-09)
(-1.18867e-08 -2.27766e-08 3.10264e-09)
(2.56007e-08 -2.54222e-08 3.28233e-09)
(6.57283e-09 -2.83409e-08 3.33585e-09)
(1.63994e-09 -2.95928e-08 3.37799e-09)
(-1.68488e-08 -2.9146e-08 3.4079e-09)
(3.64441e-08 -5.19423e-08 3.44252e-09)
(9.96535e-09 -4.9659e-08 3.50197e-09)
(6.86768e-10 -5.08972e-08 3.54425e-09)
(-2.52847e-08 -5.57421e-08 3.57035e-09)
)
;

boundaryField
{
    interface
    {
        type            solidTraction;
        traction        uniform (0 0 0);
        pressure        uniform 0;
        secondOrder     false;
        setEffectiveTraction false;
        relaxationFactor 1;
        value           nonuniform List<vector> 
192
(
(7.90536e-08 4.693e-08 2.12692e-08)
(8.80228e-08 2.9313e-08 3.90525e-08)
(9.07155e-08 1.54782e-08 4.78868e-08)
(9.21807e-08 6.73164e-09 5.44577e-08)
(9.51984e-08 1.3806e-11 6.09555e-08)
(1.01401e-07 -6.35614e-09 6.85313e-08)
(1.12355e-07 -1.70877e-08 7.82017e-08)
(1.29402e-07 -5.82296e-08 8.91144e-08)
(6.405e-08 2.5778e-08 6.99024e-10)
(7.08369e-08 1.48817e-08 1.05683e-08)
(7.24519e-08 6.23937e-09 1.91516e-08)
(7.3383e-08 -2.53541e-10 2.56871e-08)
(7.60807e-08 -6.00514e-09 3.15675e-08)
(8.22341e-08 -1.14632e-08 3.7763e-08)
(9.37722e-08 -1.95348e-08 4.41362e-08)
(1.13124e-07 -5.3525e-08 4.79592e-08)
(5.43619e-08 1.81647e-08 7.04723e-11)
(6.01417e-08 7.31581e-09 6.54937e-09)
(6.14452e-08 -2.85853e-10 1.413e-08)
(6.22485e-08 -5.58759e-09 2.06991e-08)
(6.48535e-08 -1.00442e-08 2.64048e-08)
(7.10602e-08 -1.37871e-08 3.16063e-08)
(8.29422e-08 -1.94014e-08 3.57662e-08)
(1.02911e-07 -5.00193e-08 3.71064e-08)
(4.90679e-08 1.55001e-08 9.40123e-10)
(5.41427e-08 4.21095e-09 5.90312e-09)
(5.54153e-08 -3.73771e-09 1.19852e-08)
(5.6298e-08 -8.80256e-09 1.77486e-08)
(5.89532e-08 -1.24376e-08 2.27626e-08)
(6.5223e-08 -1.4974e-08 2.6899e-08)
(7.72075e-08 -1.93596e-08 2.97282e-08)
(9.72206e-08 -4.85458e-08 3.05495e-08)
(4.62795e-08 1.44004e-08 1.21392e-09)
(5.10385e-08 3.00178e-09 5.08321e-09)
(5.23641e-08 -5.27206e-09 9.65024e-09)
(5.33682e-08 -1.04244e-08 1.41441e-08)
(5.6109e-08 -1.37515e-08 1.80921e-08)
(6.24174e-08 -1.57742e-08 2.12133e-08)
(7.43786e-08 -1.97359e-08 2.32439e-08)
(9.42521e-08 -4.82047e-08 2.39842e-08)
(4.47554e-08 1.38759e-08 1.05037e-09)
(4.94061e-08 2.51163e-09 3.8443e-09)
(5.07935e-08 -5.88633e-09 7.00645e-09)
(5.18919e-08 -1.11481e-08 1.01422e-08)
(5.46971e-08 -1.44452e-08 1.29184e-08)
(6.1016e-08 -1.63655e-08 1.50967e-08)
(7.29155e-08 -2.02538e-08 1.65258e-08)
(9.26395e-08 -4.8331e-08 1.71628e-08)
(4.39221e-08 1.36122e-08 6.83003e-10)
(4.85339e-08 2.30449e-09 2.36875e-09)
(4.99636e-08 -6.11658e-09 4.22473e-09)
(5.11179e-08 -1.1446e-08 6.06047e-09)
(5.39582e-08 -1.47975e-08 7.69279e-09)
(6.02733e-08 -1.67609e-08 8.98029e-09)
(7.21185e-08 -2.06833e-08 9.8441e-09)
(9.17354e-08 -4.85578e-08 1.02762e-08)
(4.35465e-08 1.34983e-08 2.34711e-10)
(4.81424e-08 2.22588e-09 7.97525e-10)
(4.95911e-08 -6.19246e-09 1.40919e-09)
(5.077e-08 -1.15519e-08 2.01238e-09)
(5.36245e-08 -1.49468e-08 2.54973e-09)
(5.99346e-08 -1.69577e-08 2.97576e-09)
(7.17502e-08 -2.09161e-08 3.26584e-09)
(9.13133e-08 -4.87062e-08 3.41837e-09)
(2.1698e-08 4.92097e-08 8.28703e-08)
(3.46404e-08 3.27148e-08 9.78278e-08)
(3.63051e-08 1.90334e-08 1.07964e-07)
(3.60881e-08 9.83178e-09 1.16313e-07)
(3.69637e-08 2.49284e-09 1.25012e-07)
(4.02052e-08 -4.65626e-09 1.35537e-07)
(4.73757e-08 -1.6444e-08 1.48994e-07)
(5.82949e-08 -5.85986e-08 1.66219e-07)
(1.64431e-09 3.40597e-08 7.49346e-08)
(5.71241e-09 2.45891e-08 8.96569e-08)
(6.97392e-09 1.58712e-08 9.89829e-08)
(7.28847e-09 8.02338e-09 1.0673e-07)
(8.02528e-09 1.66135e-10 1.15035e-07)
(9.8018e-09 -7.994e-09 1.25372e-07)
(1.30555e-08 -1.91664e-08 1.39268e-07)
(1.67814e-08 -5.62042e-08 1.58982e-07)
(-1.11376e-09 3.39043e-08 7.43274e-08)
(-3.52865e-09 2.41942e-08 8.92201e-08)
(-2.86536e-09 1.52452e-08 9.86663e-08)
(-1.05252e-09 7.19217e-09 1.06503e-07)
(5.49533e-10 -8.5238e-10 1.14876e-07)
(1.33254e-09 -9.19501e-09 1.25267e-07)
(8.47164e-10 -2.05447e-08 1.3921e-07)
(-3.36205e-12 -5.75939e-08 1.58996e-07)
(-2.07105e-08 4.84598e-08 8.12693e-08)
(-3.18731e-08 3.13126e-08 9.68132e-08)
(-3.16379e-08 1.7012e-08 1.07307e-07)
(-2.93058e-08 7.23776e-09 1.15921e-07)
(-2.78404e-08 -6.28207e-10 1.24825e-07)
(-2.85282e-08 -8.2847e-09 1.35514e-07)
(-3.29715e-08 -2.05758e-08 1.49112e-07)
(-4.10614e-08 -6.28637e-08 1.6655e-07)
(-7.53035e-08 4.5077e-08 2.15773e-08)
(-8.26103e-08 2.68258e-08 4.00703e-08)
(-8.34797e-08 1.2328e-08 4.94629e-08)
(-8.28743e-08 2.93166e-09 5.64438e-08)
(-8.35818e-08 -4.40293e-09 6.32534e-08)
(-8.72656e-08 -1.13652e-08 7.10816e-08)
(-9.55705e-08 -2.26543e-08 8.09643e-08)
(-1.09914e-07 -6.39365e-08 9.20229e-08)
(-6.03629e-08 2.41967e-08 1.14543e-09)
(-6.58518e-08 1.25438e-08 1.1649e-08)
(-6.58979e-08 3.17665e-09 2.07215e-08)
(-6.49423e-08 -3.98888e-09 2.76367e-08)
(-6.54576e-08 -1.03685e-08 3.38157e-08)
(-6.91747e-08 -1.64239e-08 4.02499e-08)
(-7.81201e-08 -2.50436e-08 4.68044e-08)
(-9.48613e-08 -5.91367e-08 5.07188e-08)
(-5.09008e-08 1.68248e-08 4.04978e-10)
(-5.56001e-08 5.2268e-09 7.37878e-09)
(-5.55377e-08 -3.12982e-09 1.53498e-08)
(-5.46238e-08 -9.13705e-09 2.22396e-08)
(-5.51764e-08 -1.4249e-08 2.82097e-08)
(-5.90371e-08 -1.86079e-08 3.36245e-08)
(-6.83816e-08 -2.47766e-08 3.79385e-08)
(-8.57775e-08 -5.54891e-08 3.93434e-08)
(-4.58099e-08 1.43394e-08 1.17879e-09)
(-4.99762e-08 2.3459e-09 6.50938e-09)
(-5.00423e-08 -6.35385e-09 1.28905e-08)
(-4.93503e-08 -1.21414e-08 1.89099e-08)
(-5.00709e-08 -1.64554e-08 2.41432e-08)
(-5.40837e-08 -1.96298e-08 2.84598e-08)
(-6.35899e-08 -2.45869e-08 3.14182e-08)
(-8.1064e-08 -5.38793e-08 3.22917e-08)
(-4.31632e-08 1.33666e-08 1.37892e-09)
(-4.71374e-08 1.30938e-09 5.50879e-09)
(-4.73758e-08 -7.6983e-09 1.02943e-08)
(-4.69174e-08 -1.35772e-08 1.49813e-08)
(-4.78219e-08 -1.75986e-08 1.90996e-08)
(-5.19525e-08 -2.02783e-08 2.23636e-08)
(-6.14931e-08 -2.48304e-08 2.44978e-08)
(-7.88655e-08 -5.34219e-08 2.52807e-08)
(-4.17283e-08 1.29264e-08 1.15785e-09)
(-4.56757e-08 9.40784e-10 4.12398e-09)
(-4.60591e-08 -8.17239e-09 7.43401e-09)
(-4.57771e-08 -1.41581e-08 1.07038e-08)
(-4.68208e-08 -1.81576e-08 1.36009e-08)
(-5.1025e-08 -2.07487e-08 1.58823e-08)
(-6.05529e-08 -2.5243e-08 1.73872e-08)
(-7.78106e-08 -5.34574e-08 1.80561e-08)
(-4.09467e-08 1.27136e-08 7.43581e-10)
(-4.49041e-08 8.10099e-10 2.52713e-09)
(-4.53817e-08 -8.3118e-09 4.46838e-09)
(-4.52089e-08 -1.43611e-08 6.38279e-09)
(-4.63379e-08 -1.84187e-08 8.08717e-09)
(-5.0582e-08 -2.10614e-08 9.43687e-09)
(-6.00907e-08 -2.56003e-08 1.03469e-08)
(-7.72671e-08 -5.36221e-08 1.07987e-08)
(-4.05949e-08 1.26236e-08 2.54273e-10)
(-4.45592e-08 7.68253e-10 8.48776e-10)
(-4.50808e-08 -8.34327e-09 1.48827e-09)
(-4.49586e-08 -1.44199e-08 2.11738e-09)
(-4.61268e-08 -1.85223e-08 2.67865e-09)
(-5.03881e-08 -2.12164e-08 3.12546e-09)
(-5.98853e-08 -2.57964e-08 3.43108e-09)
(-7.70216e-08 -5.3739e-08 3.5903e-09)
(5.86459e-08 -1.35725e-07 9.22278e-08)
(4.84816e-08 -1.24724e-07 5.00521e-08)
(4.20264e-08 -1.17478e-07 3.8201e-08)
(3.92273e-08 -1.13175e-07 3.10782e-08)
(3.81948e-08 -1.10904e-07 2.4297e-08)
(3.77931e-08 -1.09785e-07 1.73979e-08)
(3.75919e-08 -1.0927e-07 1.04385e-08)
(3.74927e-08 -1.09073e-07 3.47736e-09)
(1.7123e-08 -1.29168e-07 8.91674e-08)
(1.41438e-08 -1.15711e-07 5.21493e-08)
(1.16263e-08 -1.0807e-07 4.1011e-08)
(1.04517e-08 -1.03974e-07 3.29436e-08)
(1.00244e-08 -1.01976e-07 2.52806e-08)
(9.85329e-09 -1.01027e-07 1.78709e-08)
(9.75671e-09 -1.0059e-07 1.06506e-08)
(9.70505e-09 -1.0042e-07 3.5387e-09)
(3.46591e-10 -1.29864e-07 8.98797e-08)
(1.92656e-09 -1.16351e-07 5.28588e-08)
(3.19786e-09 -1.0868e-07 4.15679e-08)
(3.36012e-09 -1.04556e-07 3.3365e-08)
(3.00605e-09 -1.02533e-07 2.5589e-08)
(2.60977e-09 -1.01563e-07 1.80817e-08)
(2.33793e-09 -1.01112e-07 1.07735e-08)
(2.20856e-09 -1.00934e-07 3.57908e-09)
(-4.07047e-08 -1.3812e-07 9.44364e-08)
(-3.19008e-08 -1.26946e-07 5.21416e-08)
(-2.66608e-08 -1.19607e-07 3.9846e-08)
(-2.48766e-08 -1.15218e-07 3.23368e-08)
(-2.46381e-08 -1.1287e-07 2.52251e-08)
(-2.48145e-08 -1.11689e-07 1.80344e-08)
(-2.49886e-08 -1.11132e-07 1.08099e-08)
(-2.50738e-08 -1.10913e-07 3.59945e-09)
)
;
        gradient        uniform (0 0 0);
    }
    symmetry
    {
        type            solidSymmetry;
        patchType       symmetry;
        secondOrder     false;
        value           nonuniform List<vector> 
32
(
(8.60328e-09 7.87964e-09 0)
(1.38713e-08 7.65632e-10 0)
(1.44442e-08 -6.3049e-09 0)
(1.43209e-08 -1.17442e-08 0)
(1.52129e-08 -1.59721e-08 0)
(1.84214e-08 -1.9555e-08 0)
(2.56007e-08 -2.54222e-08 0)
(3.64441e-08 -5.19423e-08 0)
(-4.42972e-10 -1.02207e-10 0)
(7.86006e-10 -3.80269e-09 0)
(1.21493e-09 -8.30255e-09 0)
(1.36486e-09 -1.31974e-08 0)
(1.96113e-09 -1.81353e-08 0)
(3.5554e-09 -2.28359e-08 0)
(6.57283e-09 -2.83409e-08 0)
(9.96535e-09 -4.9659e-08 0)
(4.25106e-10 -2.2807e-10 0)
(-3.13683e-10 -4.15289e-09 0)
(1.1109e-10 -8.8495e-09 0)
(1.16102e-09 -1.3925e-08 0)
(2.12001e-09 -1.90398e-08 0)
(2.43112e-09 -2.39191e-08 0)
(1.63994e-09 -2.95928e-08 0)
(6.86768e-10 -5.08972e-08 0)
(-8.25063e-09 7.33208e-09 0)
(-1.29155e-08 -3.2778e-10 0)
(-1.26348e-08 -7.939e-09 0)
(-1.12986e-08 -1.39131e-08 0)
(-1.06077e-08 -1.86693e-08 0)
(-1.18867e-08 -2.27766e-08 0)
(-1.68488e-08 -2.9146e-08 0)
(-2.52847e-08 -5.57421e-08 0)
)
;
    }
    bottom
    {
        type            fixedDisplacement;
        value           uniform (0 0 0);
    }
}


// ************************************************************************* //
