/*--------------------------------*- C++ -*----------------------------------*\
| =========                 |                                                 |
| \\      /  F ield         | OpenFOAM: The Open Source CFD Toolbox           |
|  \\    /   O peration     | Version:  v1912                                 |
|   \\  /    A nd           | Website:  www.openfoam.com                      |
|    \\/     M anipulation  |                                                 |
\*---------------------------------------------------------------------------*/
FoamFile
{
    version     2.0;
    format      ascii;
    class       volVectorField;
    location    "0.52/solid";
    object      D_0_0;
}
// * * * * * * * * * * * * * * * * * * * * * * * * * * * * * * * * * * * * * //

dimensions      [0 1 0 0 0 0 0];


internalField   nonuniform List<vector> 
256
(
(2.1109e-08 3.27507e-08 2.25341e-08)
(2.10899e-09 1.8984e-08 2.03878e-08)
(-1.63821e-09 1.87644e-08 2.04429e-08)
(-2.02127e-08 3.17679e-08 2.27802e-08)
(3.34709e-08 2.55335e-08 4.08757e-08)
(6.21963e-09 1.77021e-08 3.81175e-08)
(-4.26616e-09 1.72289e-08 3.83537e-08)
(-3.09651e-08 2.38941e-08 4.16832e-08)
(3.50352e-08 1.51276e-08 4.96073e-08)
(7.46894e-09 1.20916e-08 4.67184e-08)
(-3.72182e-09 1.1401e-08 4.71035e-08)
(-3.07534e-08 1.29143e-08 5.08502e-08)
(3.48675e-08 6.79975e-09 5.59595e-08)
(7.82135e-09 5.11626e-09 5.28848e-08)
(-2.03352e-09 4.23325e-09 5.33772e-08)
(-2.85544e-08 4.05e-09 5.75188e-08)
(3.57851e-08 -5.20701e-10 6.22248e-08)
(8.60153e-09 -2.70981e-09 5.89567e-08)
(-5.30741e-10 -3.77349e-09 5.95295e-08)
(-2.7186e-08 -3.77842e-09 6.40243e-08)
(3.90005e-08 -8.13685e-09 6.95244e-08)
(1.03932e-08 -1.13704e-08 6.60852e-08)
(2.01255e-10 -1.26142e-08 6.67236e-08)
(-2.78823e-08 -1.18941e-08 7.15202e-08)
(4.5986e-08 -2.02709e-08 7.88485e-08)
(1.35727e-08 -2.30944e-08 7.5432e-08)
(-2.29758e-10 -2.45126e-08 7.61269e-08)
(-3.21593e-08 -2.45218e-08 8.10117e-08)
(5.6534e-08 -5.93787e-08 8.94265e-08)
(1.70942e-08 -5.71605e-08 8.65255e-08)
(-8.69295e-10 -5.85829e-08 8.72593e-08)
(-3.98768e-08 -6.37412e-08 9.17022e-08)
(1.52716e-08 1.56261e-08 3.03047e-09)
(1.00163e-09 4.25398e-09 3.93959e-09)
(-7.16667e-10 4.06407e-09 4.07045e-09)
(-1.45203e-08 1.47616e-08 3.41303e-09)
(2.44278e-08 1.23447e-08 1.39972e-08)
(4.02043e-09 5.71028e-09 1.57534e-08)
(-2.55439e-09 5.21795e-09 1.60605e-08)
(-2.23757e-08 1.07116e-08 1.48899e-08)
(2.53607e-08 6.32793e-09 2.25633e-08)
(4.96553e-09 3.63838e-09 2.46318e-08)
(-1.9555e-09 2.91809e-09 2.50694e-08)
(-2.17892e-08 4.08836e-09 2.38375e-08)
(2.49918e-08 1.14019e-10 2.89168e-08)
(5.23061e-09 -1.46786e-09 3.1068e-08)
(-3.82252e-10 -2.37517e-09 3.16044e-08)
(-1.95882e-08 -2.65835e-09 3.04833e-08)
(2.57357e-08 -6.27425e-09 3.46154e-08)
(5.93885e-09 -8.41605e-09 3.6769e-08)
(1.02945e-09 -9.49717e-09 3.73824e-08)
(-1.82006e-08 -9.54605e-09 3.64115e-08)
(2.88235e-08 -1.30677e-08 4.05984e-08)
(7.66516e-09 -1.62918e-08 4.27308e-08)
(1.6944e-09 -1.75465e-08 4.34064e-08)
(-1.88906e-08 -1.68295e-08 4.25798e-08)
(3.58457e-08 -2.27655e-08 4.67072e-08)
(1.08088e-08 -2.55613e-08 4.88436e-08)
(1.19334e-09 -2.69801e-08 4.95652e-08)
(-2.33021e-08 -2.70006e-08 4.88279e-08)
(4.67351e-08 -5.48437e-08 5.03061e-08)
(1.43114e-08 -5.21377e-08 5.24853e-08)
(4.98055e-10 -5.35394e-08 5.32231e-08)
(-3.14428e-08 -5.91408e-08 5.24821e-08)
(1.1492e-08 1.05977e-08 1.41288e-09)
(5.29881e-11 8.61775e-10 2.57112e-09)
(9.82778e-11 6.94434e-10 2.66811e-09)
(-1.08822e-08 9.84549e-09 1.68932e-09)
(1.84511e-08 5.56433e-09 8.52538e-09)
(2.06667e-09 -7.42501e-11 1.07115e-08)
(-9.84724e-10 -5.36621e-10 1.09478e-08)
(-1.67821e-08 4.06927e-09 9.19989e-09)
(1.90344e-08 3.91017e-11 1.59918e-08)
(2.73399e-09 -2.31778e-09 1.85244e-08)
(-3.25684e-10 -3.01048e-09 1.88641e-08)
(-1.60587e-08 -2.07646e-09 1.69696e-08)
(1.86198e-08 -5.07506e-09 2.23274e-08)
(2.92989e-09 -6.57992e-09 2.4965e-08)
(1.13339e-09 -7.46214e-09 2.53867e-08)
(-1.39915e-08 -7.73923e-09 2.35499e-08)
(1.93104e-08 -1.02098e-08 2.7819e-08)
(3.58082e-09 -1.23417e-08 3.04891e-08)
(2.4511e-09 -1.33986e-08 3.09778e-08)
(-1.26965e-08 -1.33846e-08 2.92428e-08)
(2.23917e-08 -1.53824e-08 3.28165e-08)
(5.25735e-09 -1.86156e-08 3.54922e-08)
(3.04311e-09 -1.98449e-08 3.6035e-08)
(-1.34959e-08 -1.90519e-08 3.44034e-08)
(2.95035e-08 -2.27327e-08 3.68073e-08)
(8.37601e-09 -2.55422e-08 3.94789e-08)
(2.46864e-09 -2.69316e-08 4.00582e-08)
(-1.80888e-08 -2.68717e-08 3.85086e-08)
(4.04544e-08 -5.15285e-08 3.81309e-08)
(1.18589e-08 -4.88347e-08 4.08177e-08)
(1.71198e-09 -5.02008e-08 4.1403e-08)
(-2.63677e-08 -5.57166e-08 3.98622e-08)
(9.77764e-09 9.11286e-09 1.50116e-09)
(-3.36705e-10 2.87905e-10 2.21864e-09)
(4.10518e-10 1.35711e-10 2.28702e-09)
(-9.2782e-09 8.44134e-09 1.69712e-09)
(1.56695e-08 2.80977e-09 6.68394e-09)
(1.16819e-09 -2.25009e-09 8.0654e-09)
(-3.44315e-10 -2.67549e-09 8.23754e-09)
(-1.42933e-08 1.45476e-09 7.17607e-09)
(1.61505e-08 -3.34803e-09 1.26024e-08)
(1.68678e-09 -5.49758e-09 1.4211e-08)
(2.88121e-10 -6.14645e-09 1.44622e-08)
(-1.36348e-08 -5.31117e-09 1.33263e-08)
(1.58095e-08 -8.27409e-09 1.8132e-08)
(1.85621e-09 -9.73305e-09 1.98017e-08)
(1.61801e-09 -1.05721e-08 2.01173e-08)
(-1.17918e-08 -1.07932e-08 1.905e-08)
(1.65461e-08 -1.26063e-08 2.29396e-08)
(2.48495e-09 -1.47367e-08 2.46234e-08)
(2.82562e-09 -1.57529e-08 2.49935e-08)
(-1.06717e-08 -1.56483e-08 2.40229e-08)
(1.96635e-08 -1.66096e-08 2.69146e-08)
(4.13291e-09 -1.98515e-08 2.85995e-08)
(3.33684e-09 -2.10421e-08 2.90139e-08)
(-1.16128e-08 -2.01574e-08 2.81336e-08)
(2.67969e-08 -2.27521e-08 2.96634e-08)
(7.21626e-09 -2.56067e-08 3.13499e-08)
(2.7074e-09 -2.69589e-08 3.1793e-08)
(-1.63123e-08 -2.67778e-08 3.09752e-08)
(3.76745e-08 -5.01808e-08 3.05402e-08)
(1.06625e-08 -4.76832e-08 3.2267e-08)
(1.90935e-09 -4.90148e-08 3.27126e-08)
(-2.45891e-08 -5.4264e-08 3.18723e-08)
(9.08087e-09 8.4841e-09 1.41804e-09)
(-4.34438e-10 1.26716e-10 1.77678e-09)
(4.63289e-10 -1.39014e-11 1.82466e-09)
(-8.65612e-09 7.87155e-09 1.5551e-09)
(1.45528e-08 1.71779e-09 5.3057e-09)
(8.83622e-10 -3.05006e-09 6.00529e-09)
(-2.26715e-10 -3.44416e-09 6.1275e-09)
(-1.33799e-08 4.74989e-10 5.65442e-09)
(1.50431e-08 -4.89708e-09 9.71659e-09)
(1.34406e-09 -6.94459e-09 1.05337e-08)
(3.33423e-10 -7.55309e-09 1.07138e-08)
(-1.28553e-08 -6.72757e-09 1.0235e-08)
(1.47965e-08 -9.93419e-09 1.40215e-08)
(1.50716e-09 -1.13737e-08 1.48646e-08)
(1.54657e-09 -1.21708e-08 1.5093e-08)
(-1.12253e-08 -1.23196e-08 1.46857e-08)
(1.55986e-08 -1.39593e-08 1.78072e-08)
(2.12675e-09 -1.60884e-08 1.86525e-08)
(2.6545e-09 -1.70643e-08 1.89225e-08)
(-1.02767e-08 -1.68757e-08 1.8599e-08)
(1.87401e-08 -1.74469e-08 2.08187e-08)
(3.75086e-09 -2.06871e-08 2.16657e-08)
(3.0969e-09 -2.18402e-08 2.19698e-08)
(-1.13321e-08 -2.08803e-08 2.17164e-08)
(2.58412e-08 -2.31522e-08 2.28188e-08)
(6.79197e-09 -2.60351e-08 2.3677e-08)
(2.43139e-09 -2.73534e-08 2.40031e-08)
(-1.60739e-08 -2.70759e-08 2.37892e-08)
(3.66167e-08 -4.99087e-08 2.36215e-08)
(1.01977e-08 -4.7573e-08 2.45211e-08)
(1.60607e-09 -4.88754e-08 2.48486e-08)
(-2.43116e-08 -5.39033e-08 2.46073e-08)
(8.78273e-09 8.15004e-09 1.12364e-09)
(-4.44302e-10 3.17606e-11 1.28955e-09)
(4.46746e-10 -1.00382e-10 1.3214e-09)
(-8.4049e-09 7.57831e-09 1.21422e-09)
(1.41053e-08 1.25387e-09 3.8784e-09)
(8.1437e-10 -3.37381e-09 4.20253e-09)
(-2.6266e-10 -3.74477e-09 4.28427e-09)
(-1.30637e-08 9.18732e-11 4.11031e-09)
(1.46327e-08 -5.54627e-09 6.92208e-09)
(1.25529e-09 -7.54938e-09 7.30008e-09)
(2.26785e-10 -8.12703e-09 7.42122e-09)
(-1.26629e-08 -7.27723e-09 7.26935e-09)
(1.44567e-08 -1.07029e-08 9.92739e-09)
(1.41575e-09 -1.2136e-08 1.03149e-08)
(1.35281e-09 -1.29e-08 1.04695e-08)
(-1.119e-08 -1.29842e-08 1.03758e-08)
(1.5305e-08 -1.46917e-08 1.25948e-08)
(2.02663e-09 -1.68175e-08 1.29821e-08)
(2.38688e-09 -1.77611e-08 1.3166e-08)
(-1.03681e-08 -1.75081e-08 1.31331e-08)
(1.84517e-08 -1.80628e-08 1.47059e-08)
(3.62814e-09 -2.12931e-08 1.50979e-08)
(2.77944e-09 -2.24162e-08 1.5306e-08)
(-1.14993e-08 -2.1405e-08 1.532e-08)
(2.55074e-08 -2.36768e-08 1.61252e-08)
(6.63138e-09 -2.65628e-08 1.65319e-08)
(2.08955e-09 -2.78544e-08 1.67556e-08)
(-1.62552e-08 -2.75201e-08 1.67918e-08)
(3.61959e-08 -5.00688e-08 1.68102e-08)
(1.00024e-08 -4.78154e-08 1.72475e-08)
(1.24549e-09 -4.90949e-08 1.7472e-08)
(-2.44568e-08 -5.39947e-08 1.74881e-08)
(8.63954e-09 7.97283e-09 7.10606e-10)
(-4.40635e-10 -2.30349e-11 7.82925e-10)
(4.28406e-10 -1.49691e-10 8.01182e-10)
(-8.28887e-09 7.4265e-09 7.62198e-10)
(1.39029e-08 1.04884e-09 2.3618e-09)
(7.96337e-10 -3.51225e-09 2.50246e-09)
(-3.06101e-10 -3.86822e-09 2.54943e-09)
(-1.29388e-08 -6.15395e-11 2.49432e-09)
(1.44592e-08 -5.80525e-09 4.14687e-09)
(1.22948e-09 -7.78958e-09 4.31032e-09)
(1.3501e-10 -8.34694e-09 4.38017e-09)
(-1.2621e-08 -7.4712e-09 4.3462e-09)
(1.43239e-08 -1.10338e-08 5.90818e-09)
(1.38673e-09 -1.24647e-08 6.07517e-09)
(1.2062e-09 -1.32064e-08 6.16465e-09)
(-1.12448e-08 -1.32457e-08 6.16686e-09)
(1.51958e-08 -1.50706e-08 7.47983e-09)
(1.98888e-09 -1.71922e-08 7.64724e-09)
(2.19384e-09 -1.81138e-08 7.75407e-09)
(-1.05002e-08 -1.78194e-08 7.79199e-09)
(1.83386e-08 -1.84728e-08 8.73168e-09)
(3.57251e-09 -2.16916e-08 8.90395e-09)
(2.55477e-09 -2.27942e-08 9.02525e-09)
(-1.16757e-08 -2.17527e-08 9.08931e-09)
(2.53585e-08 -2.4108e-08 9.5927e-09)
(6.54902e-09 -2.69849e-08 9.77652e-09)
(1.84858e-09 -2.82584e-08 9.90717e-09)
(-1.64373e-08 -2.78964e-08 9.98207e-09)
(3.59882e-08 -5.03107e-08 1.00536e-08)
(9.89539e-09 -4.80857e-08 1.02549e-08)
(9.92251e-10 -4.93497e-08 1.03861e-08)
(-2.46155e-08 -5.419e-08 1.04499e-08)
(8.57683e-09 7.89606e-09 2.42198e-10)
(-4.38669e-10 -4.66682e-11 2.62761e-10)
(4.19914e-10 -1.70644e-10 2.6871e-10)
(-8.23861e-09 7.36187e-09 2.58948e-10)
(1.38153e-08 9.69458e-10 7.92617e-10)
(7.89131e-10 -3.56408e-09 8.32474e-10)
(-3.27167e-10 -3.91272e-09 8.47793e-10)
(-1.28871e-08 -1.15888e-10 8.35708e-10)
(1.43849e-08 -5.8959e-09 1.381e-09)
(1.21862e-09 -7.87297e-09 1.42723e-09)
(9.0808e-11 -8.42032e-09 1.45005e-09)
(-1.26084e-08 -7.52993e-09 1.44595e-09)
(1.4267e-08 -1.11562e-08 1.9602e-09)
(1.37337e-09 -1.2586e-08 2.0074e-09)
(1.1361e-09 -1.33167e-08 2.03669e-09)
(-1.12771e-08 -1.33336e-08 2.0447e-09)
(1.51479e-08 -1.5233e-08 2.47821e-09)
(1.97005e-09 -1.73517e-08 2.52577e-09)
(2.10171e-09 -1.82623e-08 2.56082e-09)
(-1.05682e-08 -1.79479e-08 2.58046e-09)
(1.82865e-08 -1.86765e-08 2.89311e-09)
(3.54394e-09 -2.1888e-08 2.94269e-09)
(2.44732e-09 -2.29804e-08 2.98255e-09)
(-1.17639e-08 -2.1925e-08 3.01051e-09)
(2.52878e-08 -2.43412e-08 3.18261e-09)
(6.50694e-09 -2.72103e-08 3.23646e-09)
(1.73267e-09 -2.84746e-08 3.27943e-09)
(-1.65282e-08 -2.8102e-08 3.31063e-09)
(3.58885e-08 -5.04647e-08 3.34468e-09)
(9.84073e-09 -4.82457e-08 3.40414e-09)
(8.70161e-10 -4.95019e-08 3.44726e-09)
(-2.46955e-08 -5.43204e-08 3.47503e-09)
)
;

boundaryField
{
    interface
    {
        type            solidTraction;
        traction        uniform (0 0 0);
        pressure        uniform 0;
        secondOrder     false;
        setEffectiveTraction false;
        relaxationFactor 1;
        value           nonuniform List<vector> 
192
(
(7.87093e-08 4.63956e-08 2.09449e-08)
(8.74485e-08 2.9015e-08 3.83192e-08)
(9.01029e-08 1.54768e-08 4.68619e-08)
(9.15824e-08 6.98729e-09 5.3178e-08)
(9.46028e-08 5.12693e-10 5.94176e-08)
(1.00749e-07 -5.58637e-09 6.67032e-08)
(1.11533e-07 -1.58872e-08 7.60358e-08)
(1.2828e-07 -5.62305e-08 8.66418e-08)
(6.3903e-08 2.55509e-08 6.25979e-10)
(7.0551e-08 1.48669e-08 1.02418e-08)
(7.21514e-08 6.46894e-09 1.85627e-08)
(7.31067e-08 2.07865e-10 2.48544e-08)
(7.58169e-08 -5.31616e-09 3.04963e-08)
(8.19238e-08 -1.05399e-08 3.64458e-08)
(9.32914e-08 -1.82873e-08 4.25862e-08)
(1.12305e-07 -5.16629e-08 4.62859e-08)
(5.43246e-08 1.80834e-08 3.92026e-11)
(6.00304e-08 7.44991e-09 6.33546e-09)
(6.13334e-08 8.13175e-11 1.36889e-08)
(6.21608e-08 -5.00594e-09 2.00315e-08)
(6.47764e-08 -9.26666e-09 2.55213e-08)
(7.09328e-08 -1.28338e-08 3.05262e-08)
(8.26363e-08 -1.82166e-08 3.45448e-08)
(1.02266e-07 -4.83251e-08 3.58655e-08)
(4.9075e-08 1.54746e-08 8.98257e-10)
(5.4104e-08 4.40298e-09 5.70916e-09)
(5.53807e-08 -3.31298e-09 1.16043e-08)
(5.62828e-08 -8.17505e-09 1.7176e-08)
(5.89418e-08 -1.16426e-08 2.20114e-08)
(6.51544e-08 -1.40466e-08 2.60015e-08)
(7.69569e-08 -1.82489e-08 2.87477e-08)
(9.66399e-08 -4.69691e-08 2.95806e-08)
(4.6301e-08 1.43925e-08 1.16922e-09)
(5.10216e-08 3.20834e-09 4.9145e-09)
(5.23497e-08 -4.83611e-09 9.33697e-09)
(5.33673e-08 -9.79516e-09 1.36831e-08)
(5.6105e-08 -1.29732e-08 1.74968e-08)
(6.23508e-08 -1.48859e-08 2.05156e-08)
(7.41295e-08 -1.86826e-08 2.24963e-08)
(9.36825e-08 -4.6704e-08 2.32517e-08)
(4.47801e-08 1.3872e-08 1.01325e-09)
(4.93921e-08 2.71637e-09 3.71582e-09)
(5.07784e-08 -5.45835e-09 6.776e-09)
(5.18854e-08 -1.05347e-08 9.80915e-09)
(5.46824e-08 -1.36927e-08 1.2494e-08)
(6.09352e-08 -1.55119e-08 1.46055e-08)
(7.26529e-08 -1.92403e-08 1.60045e-08)
(9.20638e-08 -4.68793e-08 1.6653e-08)
(4.3947e-08 1.36084e-08 6.59101e-10)
(4.85187e-08 2.50377e-09 2.28925e-09)
(4.99443e-08 -5.69993e-09 4.08485e-09)
(5.11038e-08 -1.08495e-08 5.8607e-09)
(5.39328e-08 -1.40667e-08 7.44048e-09)
(6.018e-08 -1.59318e-08 8.6903e-09)
(7.18441e-08 -1.96951e-08 9.53774e-09)
(9.11527e-08 -4.71361e-08 9.97671e-09)
(4.35712e-08 1.34941e-08 2.26512e-10)
(4.81261e-08 2.42148e-09 7.70699e-10)
(4.95693e-08 -5.7829e-09 1.3624e-09)
(5.07517e-08 -1.09653e-08 1.94595e-09)
(5.35935e-08 -1.4228e-08 2.4662e-09)
(5.98348e-08 -1.61411e-08 2.88006e-09)
(7.14698e-08 -1.99402e-08 3.16492e-09)
(9.07269e-08 -4.72987e-08 3.31974e-09)
(2.13677e-08 4.86033e-08 8.25267e-08)
(3.40608e-08 3.2302e-08 9.70612e-08)
(3.5687e-08 1.88987e-08 1.06899e-07)
(3.5491e-08 9.95421e-09 1.14988e-07)
(3.6373e-08 2.87059e-09 1.23428e-07)
(3.95527e-08 -3.98086e-09 1.33675e-07)
(4.65396e-08 -1.52952e-08 1.46816e-07)
(5.72026e-08 -5.66084e-08 1.63695e-07)
(1.58663e-09 3.36104e-08 7.46693e-08)
(5.58996e-09 2.42848e-08 8.89935e-08)
(6.84392e-09 1.57835e-08 9.80362e-08)
(7.17673e-09 8.17586e-09 1.05542e-07)
(7.92868e-09 5.90327e-10 1.13611e-07)
(9.69402e-09 -7.25156e-09 1.23692e-07)
(1.28933e-08 -1.79843e-08 1.37277e-07)
(1.65535e-08 -5.42998e-08 1.56597e-07)
(-1.03966e-09 3.34636e-08 7.40749e-08)
(-3.37388e-09 2.38941e-08 8.8573e-08)
(-2.6879e-09 1.51569e-08 9.77389e-08)
(-8.74001e-10 7.33977e-09 1.05337e-07)
(7.37182e-10 -4.36896e-10 1.13476e-07)
(1.56101e-09 -8.46485e-09 1.23612e-07)
(1.16621e-09 -1.93787e-08 1.37246e-07)
(4.26072e-10 -5.57127e-08 1.5664e-07)
(-2.03815e-08 4.78838e-08 8.09661e-08)
(-3.12853e-08 3.09116e-08 9.60992e-08)
(-3.09967e-08 1.68732e-08 1.06303e-07)
(-2.86664e-08 7.34352e-09 1.14664e-07)
(-2.71834e-08 -2.78108e-10 1.23316e-07)
(-2.77802e-08 -7.64728e-09 1.33732e-07)
(-3.20053e-08 -1.94764e-08 1.47018e-07)
(-3.97993e-08 -6.09445e-08 1.64116e-07)
(-7.50207e-08 4.45625e-08 2.12729e-08)
(-8.20928e-08 2.65294e-08 3.93761e-08)
(-8.29129e-08 1.23117e-08 4.84879e-08)
(-8.23063e-08 3.15813e-09 5.52217e-08)
(-8.29959e-08 -3.94653e-09 6.17796e-08)
(-8.65976e-08 -1.06509e-08 6.93238e-08)
(-9.47029e-08 -2.15233e-08 7.88749e-08)
(-1.08717e-07 -6.20301e-08 8.9633e-08)
(-6.02749e-08 2.39857e-08 1.0804e-09)
(-6.56256e-08 1.25289e-08 1.13442e-08)
(-6.56506e-08 3.3915e-09 2.01638e-08)
(-6.47072e-08 -3.55554e-09 2.68426e-08)
(-6.52176e-08 -9.72053e-09 3.27892e-08)
(-6.88653e-08 -1.55543e-08 3.89832e-08)
(-7.76133e-08 -2.38626e-08 4.53104e-08)
(-9.39908e-08 -5.73622e-08 4.9105e-08)
(-5.09221e-08 1.67616e-08 3.78823e-10)
(-5.55524e-08 5.36341e-09 7.17935e-09)
(-5.54873e-08 -2.77413e-09 1.49311e-08)
(-5.45892e-08 -8.57984e-09 2.16008e-08)
(-5.51383e-08 -1.35085e-08 2.73607e-08)
(-5.89289e-08 -1.7704e-08 3.25841e-08)
(-6.80711e-08 -2.36538e-08 3.67613e-08)
(-8.51047e-08 -5.38776e-08 3.8149e-08)
(-4.58758e-08 1.43342e-08 1.14059e-09)
(-5.00041e-08 2.54392e-09 6.32556e-09)
(-5.00751e-08 -5.93657e-09 1.25256e-08)
(-4.93975e-08 -1.15341e-08 1.83585e-08)
(-5.01109e-08 -1.56931e-08 2.34181e-08)
(-5.40495e-08 -1.87473e-08 2.75927e-08)
(-6.33523e-08 -2.35337e-08 3.04716e-08)
(-8.04755e-08 -5.23813e-08 3.13584e-08)
(-4.32437e-08 1.33806e-08 1.33679e-09)
(-4.71891e-08 1.52478e-09 5.34707e-09)
(-4.74329e-08 -7.26626e-09 9.99214e-09)
(-4.69855e-08 -1.29643e-08 1.45353e-08)
(-4.78781e-08 -1.6849e-08 1.85232e-08)
(-5.19315e-08 -1.94311e-08 2.16881e-08)
(-6.12704e-08 -2.3831e-08 2.3775e-08)
(-7.83032e-08 -5.19967e-08 2.45743e-08)
(-4.18121e-08 1.29455e-08 1.12242e-09)
(-4.57316e-08 1.15638e-09 4.00007e-09)
(-4.61184e-08 -7.74568e-09 7.21083e-09)
(-4.58439e-08 -1.3558e-08 1.03807e-08)
(-4.68725e-08 -1.74309e-08 1.31891e-08)
(-5.09978e-08 -1.99332e-08 1.5406e-08)
(-6.03262e-08 -2.42807e-08 1.68827e-08)
(-7.7253e-08 -5.20788e-08 1.75641e-08)
(-4.10309e-08 1.27334e-08 7.20632e-10)
(-4.49595e-08 1.02149e-09 2.4502e-09)
(-4.54384e-08 -7.89472e-09 4.33261e-09)
(-4.52708e-08 -1.3776e-08 6.18868e-09)
(-4.63827e-08 -1.77117e-08 7.84206e-09)
(-5.05472e-08 -2.02685e-08 9.15551e-09)
(-5.98582e-08 -2.46615e-08 1.00503e-08)
(-7.67095e-08 -5.22719e-08 1.05096e-08)
(-4.06789e-08 1.26433e-08 2.46384e-10)
(-4.46138e-08 9.76563e-10 8.22786e-10)
(-4.51356e-08 -7.93245e-09 1.44282e-09)
(-4.50176e-08 -1.38438e-08 2.05279e-09)
(-4.61679e-08 -1.78262e-08 2.59746e-09)
(-5.03493e-08 -2.0435e-08 3.03258e-09)
(-5.96498e-08 -2.48691e-08 3.33336e-09)
(-7.64636e-08 -5.24024e-08 3.49505e-09)
(5.75551e-08 -1.33675e-07 8.96778e-08)
(4.76504e-08 -1.22849e-07 4.83435e-08)
(4.1384e-08 -1.15749e-07 3.69651e-08)
(3.86574e-08 -1.1155e-07 3.01352e-08)
(3.76366e-08 -1.09352e-07 2.35934e-08)
(3.72287e-08 -1.08281e-07 1.69107e-08)
(3.70207e-08 -1.07796e-07 1.01526e-08)
(3.69181e-08 -1.07613e-07 3.38318e-09)
(1.68964e-08 -1.2726e-07 8.67001e-08)
(1.39864e-08 -1.14027e-07 5.04039e-08)
(1.1528e-08 -1.06526e-07 3.9704e-08)
(1.03719e-08 -1.02513e-07 3.19516e-08)
(9.94035e-09 -1.0057e-07 2.45542e-08)
(9.75986e-09 -9.96583e-08 1.73756e-08)
(9.65612e-09 -9.92452e-08 1.03625e-08)
(9.601e-09 -9.90865e-08 3.44414e-09)
(7.77075e-10 -1.27988e-07 8.74336e-08)
(2.24987e-09 -1.14697e-07 5.11276e-08)
(3.43347e-09 -1.07165e-07 4.02719e-08)
(3.55559e-09 -1.03123e-07 3.23813e-08)
(3.18965e-09 -1.01154e-07 2.48686e-08)
(2.79136e-09 -1.0022e-07 1.75906e-08)
(2.51935e-09 -9.97927e-08 1.04878e-08)
(2.38988e-09 -9.96265e-08 3.48532e-09)
(-3.94414e-08 -1.36168e-07 9.19506e-08)
(-3.09306e-08 -1.25165e-07 5.0476e-08)
(-2.5907e-08 -1.17968e-07 3.86431e-08)
(-2.4217e-08 -1.1368e-07 3.1419e-08)
(-2.40067e-08 -1.11402e-07 2.454e-08)
(-2.41886e-08 -1.10268e-07 1.75598e-08)
(-2.43632e-08 -1.0974e-07 1.05313e-08)
(-2.44487e-08 -1.09535e-07 3.50766e-09)
)
;
        gradient        uniform (0 0 0);
    }
    symmetry
    {
        type            solidSymmetry;
        patchType       symmetry;
        secondOrder     false;
        value           nonuniform List<vector> 
32
(
(8.57683e-09 7.89606e-09 0)
(1.38153e-08 9.69458e-10 0)
(1.43849e-08 -5.8959e-09 0)
(1.4267e-08 -1.11562e-08 0)
(1.51479e-08 -1.5233e-08 0)
(1.82865e-08 -1.86765e-08 0)
(2.52878e-08 -2.43412e-08 0)
(3.58885e-08 -5.04647e-08 0)
(-4.38669e-10 -4.66682e-11 0)
(7.89131e-10 -3.56408e-09 0)
(1.21862e-09 -7.87297e-09 0)
(1.37337e-09 -1.2586e-08 0)
(1.97005e-09 -1.73517e-08 0)
(3.54394e-09 -2.1888e-08 0)
(6.50694e-09 -2.72103e-08 0)
(9.84073e-09 -4.82457e-08 0)
(4.19914e-10 -1.70644e-10 0)
(-3.27167e-10 -3.91272e-09 0)
(9.0808e-11 -8.42032e-09 0)
(1.1361e-09 -1.33167e-08 0)
(2.10171e-09 -1.82623e-08 0)
(2.44732e-09 -2.29804e-08 0)
(1.73267e-09 -2.84746e-08 0)
(8.70161e-10 -4.95019e-08 0)
(-8.23861e-09 7.36187e-09 0)
(-1.28871e-08 -1.15888e-10 0)
(-1.26084e-08 -7.52993e-09 0)
(-1.12771e-08 -1.33336e-08 0)
(-1.05682e-08 -1.79479e-08 0)
(-1.17639e-08 -2.1925e-08 0)
(-1.65282e-08 -2.8102e-08 0)
(-2.46955e-08 -5.43204e-08 0)
)
;
    }
    bottom
    {
        type            fixedDisplacement;
        value           uniform (0 0 0);
    }
}


// ************************************************************************* //
