/*--------------------------------*- C++ -*----------------------------------*\
| =========                 |                                                 |
| \\      /  F ield         | OpenFOAM: The Open Source CFD Toolbox           |
|  \\    /   O peration     | Version:  v1912                                 |
|   \\  /    A nd           | Website:  www.openfoam.com                      |
|    \\/     M anipulation  |                                                 |
\*---------------------------------------------------------------------------*/
FoamFile
{
    version     2.0;
    format      ascii;
    class       volVectorField;
    location    "0.52/solid";
    object      heatFlux;
}
// * * * * * * * * * * * * * * * * * * * * * * * * * * * * * * * * * * * * * //

dimensions      [1 0 -3 0 0 0 0];


internalField   nonuniform List<vector> 
256
(
(-70733.4 62094.5 -75169.2)
(-12692.8 34493.5 -72345.8)
(12007.5 34250.4 -71367.6)
(66197.1 60857.9 -72173)
(-69123.6 6893.7 -73762.9)
(-15151.3 4099.1 -72986.8)
(14356.9 4070.56 -71951.1)
(64345.3 6778.87 -70630.2)
(-70392.9 1495.69 -75105.4)
(-15515.9 834.4 -74447.4)
(14687.2 823.711 -73365.7)
(65506 1448.72 -71849.7)
(-72333.4 1665.1 -77071.5)
(-15823.3 904.95 -76435.7)
(14971.2 898.677 -75326)
(67345.7 1632.08 -73737.2)
(-75197.7 2852.6 -79950.3)
(-16282.3 1672.64 -79439.7)
(15414.4 1668.55 -78312.3)
(70127.1 2832.59 -76565)
(-79563.8 6728.9 -84359.4)
(-17007.4 4936.72 -84290.5)
(16131.2 4924.88 -83147.7)
(74440.1 6705.1 -80930)
(-85354.1 25813.1 -90352.5)
(-18086.4 24131.7 -91521.3)
(17182.7 23995.1 -90357.8)
(80218.1 25456.3 -86866.4)
(-83679.4 89426.2 -89374.5)
(-18825.3 92931.3 -92891.3)
(17455.8 91791.3 -91759.8)
(78398.9 86033.9 -86012.9)
(-65461.4 31392.8 -16626.5)
(-11046.7 6926.31 -13960.3)
(10747.8 6905.74 -13851.8)
(61090.3 30791.7 -16314)
(-66066.1 3778.96 -19995.4)
(-13440.4 1035.34 -17104.3)
(13117.7 1034.68 -16971.3)
(61536.7 3742.49 -19612.3)
(-67469.6 810.429 -20449.8)
(-13791 171.957 -17531)
(13454.9 169.665 -17391.7)
(62834.4 784.231 -20050.4)
(-69436.2 907.454 -20791.3)
(-14081.2 163.682 -17847.9)
(13729.9 161.132 -17705.9)
(64690.3 880.143 -20386.6)
(-72433.1 1671.68 -21295.8)
(-14537.3 439.668 -18342.9)
(14171.4 436.923 -18199.8)
(67578.6 1647.19 -20893)
(-77262.2 4855.23 -22105.1)
(-15315.9 2776.38 -19207.6)
(14937.5 2764.33 -19064.6)
(72309.6 4819.05 -21711.1)
(-84353 23480.8 -23467.7)
(-16628.2 20848.6 -20843.4)
(16214.1 20705 -20701.6)
(79337.1 23091.1 -23089.3)
(-85396 90436.4 -25796.4)
(-18091.7 91586.8 -24123.9)
(17179.9 90408.5 -23989.8)
(80219 86900.7 -25453.5)
(-58152.1 25472.6 -3461.76)
(-9918.07 3428.96 -1698.39)
(9653.7 3427.26 -1688.93)
(53896.9 24931.5 -3424.4)
(-59002.5 3070.48 -4265.14)
(-12127.3 528.343 -2206.72)
(11848.9 530.67 -2194.38)
(54600.2 3042.47 -4218.04)
(-60340.8 699.807 -4354.47)
(-12457.9 90.7868 -2266.07)
(12167.8 89.1323 -2253.19)
(55832.7 674.427 -4306.01)
(-62235.4 819.061 -4397.37)
(-12737.9 93.0572 -2295.7)
(12432.5 90.5757 -2282.69)
(57610.7 789.493 -4349.57)
(-65176.8 1538.79 -4453.31)
(-13186.4 312.934 -2341.66)
(12864.3 309.803 -2328.77)
(60426.1 1508.09 -4408.42)
(-70007.2 4556.98 -4546.71)
(-13966.9 2436.25 -2435.27)
(13627.7 2423.14 -2422.86)
(65124 4508.8 -4508.34)
(-77314.6 22121.7 -4844.4)
(-15320.2 19215.5 -2775.14)
(14936.8 19069.9 -2763.86)
(72313.6 21714 -4818.46)
(-79660.3 84491.5 -6708.77)
(-17018.7 84394.7 -4928.43)
(16126.2 83227.4 -4919.31)
(74444.6 80984.4 -6701.26)
(-53548.2 23665.9 -1230.37)
(-9273.85 3021.21 -220.347)
(9021.75 3022.44 -218.326)
(49396.2 23149.3 -1210.99)
(-54373.4 2886.25 -1473.16)
(-11369.6 467.649 -287.034)
(11106.3 470.414 -284.39)
(50081.3 2860.88 -1449.41)
(-55667 678.197 -1495.46)
(-11689.7 82.9729 -293.863)
(11415 81.3538 -291.15)
(51270.2 652.703 -1471.32)
(-57527.3 808.616 -1501.49)
(-11966.5 88.0956 -295.92)
(11676.1 85.5458 -293.224)
(53010.3 777.732 -1477.82)
(-60440.9 1522.34 -1507.2)
(-12412.8 300.096 -299.076)
(12104.6 296.754 -296.464)
(55787.2 1488.42 -1485.03)
(-65247.4 4464.13 -1523.27)
(-13192.1 2342.9 -311.86)
(12864.4 2329.24 -309.474)
(60439.8 4409.01 -1504.53)
(-72559.4 21318.8 -1654.28)
(-14547.6 18355.4 -437.709)
(14170.7 18208.6 -435.938)
(67596.8 20898.1 -1642.96)
(-75372.2 80154.8 -2819.02)
(-16302.3 79603.6 -1657.82)
(15407.1 78439.4 -1657.55)
(70144.9 76653.4 -2821.43)
(-50811.5 22769.1 -646.499)
(-8906.03 2921.58 -65.436)
(8663.05 2924.54 -64.169)
(46731.7 22271.1 -632.668)
(-51613.5 2805.39 -762.39)
(-10938.5 454.826 -82.6052)
(10686.5 457.846 -80.9435)
(47398.3 2782.14 -745.295)
(-52886.4 671.472 -771.103)
(-11253.6 81.9001 -83.9609)
(10990.4 80.2981 -82.2575)
(48567.4 646.016 -753.66)
(-54733.3 807.329 -771.807)
(-11529.7 87.8447 -83.9912)
(11250.6 85.2619 -82.2967)
(50291.5 775.776 -754.612)
(-57634.5 1517.01 -772.409)
(-11975.6 296.995 -84.1615)
(11678.3 293.552 -82.5083)
(53049.4 1481.39 -756.024)
(-62417.5 4409.89 -780.845)
(-12753.1 2297.62 -88.6724)
(12435 2283.67 -87.1324)
(57665.5 4350.87 -766.332)
(-69682 20826 -862.519)
(-14101.9 17869.5 -155.295)
(13731.6 17721.8 -154.082)
(64752.5 20397.1 -852.3)
(-72632.8 77397.3 -1580.56)
(-15857.2 76705 -861.082)
(14962.6 75540.8 -860.789)
(67404.5 73892.4 -1579.24)
(-49170.3 22257 -367.566)
(-8691.52 2873.17 -33.212)
(8454.52 2877.32 -32.3864)
(45133.2 21771.3 -358.86)
(-49960.3 2761.65 -430.957)
(-10688.2 449.125 -41.3652)
(10443.6 452.326 -40.2728)
(45791.1 2739.89 -420.063)
(-51224 668.78 -435.065)
(-11000.8 81.5869 -41.9015)
(10745.3 80.0006 -40.7777)
(46951.1 643.386 -423.911)
(-53065.2 807.31 -434.843)
(-11277 87.895 -41.8074)
(11005.4 85.295 -40.6873)
(48667.9 775.368 -423.827)
(-55959.1 1513.3 -435.042)
(-11722.9 295.415 -41.8067)
(11432.8 291.918 -40.7094)
(51414 1476.7 -424.494)
(-60720.6 4374.02 -441.237)
(-12498.3 2271.77 -44.2911)
(12186.7 2257.67 -43.2554)
(56000.7 4312.74 -431.756)
(-67932 20519.1 -493.186)
(-13839.2 17583 -82.1997)
(13473.7 17434.9 -81.3363)
(63020.9 20085.2 -486.171)
(-70908.1 75654.4 -929.201)
(-15582.5 74927.2 -494.301)
(14688.9 73762.3 -493.933)
(65676.4 72145.1 -927.516)
(-48228.2 21970.5 -191.801)
(-8570.85 2847 -16.8904)
(8337.41 2851.88 -16.4268)
(44214.9 21492.2 -187.058)
(-49012.3 2737.89 -224.203)
(-10547.8 446.137 -20.9457)
(10307.8 449.455 -20.3281)
(44868.5 2717.09 -218.212)
(-50271.6 667.586 -226.121)
(-10859.3 81.458 -21.19)
(10608.4 79.8836 -20.5528)
(46024.3 642.253 -219.965)
(-52110.1 807.352 -225.878)
(-11135.5 87.9395 -21.1246)
(10868.6 85.3302 -20.4888)
(47737.2 775.193 -219.789)
(-54998.9 1510.61 -226.083)
(-11581.3 294.511 -21.1257)
(11295.6 290.984 -20.502)
(50475.7 1473.46 -220.245)
(-59744.2 4351.74 -229.994)
(-12355.1 2257.22 -22.4488)
(12047.5 2243.04 -21.8569)
(55041.7 4289.19 -224.717)
(-66914.7 20338 -259.069)
(-13690 17419.5 -42.2844)
(13327.6 17271.2 -41.7766)
(62013 19901.3 -255.075)
(-69884 74614.6 -495.536)
(-15422 73884.3 -260.935)
(14529.4 72718.8 -260.67)
(64649.2 71101.8 -494.377)
(-47795.9 21841 -59.767)
(-8516.14 2835.33 -5.21217)
(8284.35 2840.57 -5.06282)
(43793.2 21366.1 -58.2641)
(-48577.5 2727.33 -69.7647)
(-10484.3 444.825 -6.45213)
(10246.4 448.2 -6.25253)
(44444.9 2706.98 -67.8557)
(-49834.9 667.105 -70.3329)
(-10795.3 81.408 -6.52406)
(10546.5 79.8399 -6.31772)
(45598.9 641.809 -68.3667)
(-51672.2 807.349 -70.245)
(-11071.6 87.9594 -6.50218)
(10806.8 85.3457 -6.29623)
(47310.1 775.088 -68.2996)
(-54558.4 1509.18 -70.3367)
(-11517.3 294.091 -6.5042)
(11233.6 290.55 -6.30221)
(50044.7 1471.77 -68.4717)
(-59295 4341.04 -71.6742)
(-12290.2 2250.61 -6.92267)
(11984.5 2236.39 -6.73068)
(54599.9 4277.91 -69.987)
(-66443.8 20253.5 -81.0445)
(-13621.9 17344.5 -13.1176)
(13260.9 17196.1 -12.951)
(61546 19815.6 -79.7603)
(-69404.7 74125.9 -156.139)
(-15347.6 73398.3 -81.8797)
(14455.5 72232.5 -81.7857)
(64167.7 70611.3 -155.748)
)
;

boundaryField
{
    interface
    {
        type            calculated;
        value           nonuniform List<vector> 
192
(
(-116303 62094.5 -75169.2)
(-108209 6893.7 -73762.9)
(-110032 1495.69 -75105.4)
(-113307 1665.1 -77071.5)
(-118122 2852.6 -79950.3)
(-125407 6728.9 -84359.4)
(-134850 25813.1 -90352.5)
(-130276 89426.2 -89374.5)
(-108850 31392.8 -16626.5)
(-105272 3778.96 -19995.4)
(-107380 810.429 -20449.8)
(-110735 907.454 -20791.3)
(-115819 1671.68 -21295.8)
(-123923 4855.23 -22105.1)
(-135501 23480.8 -23467.7)
(-134926 90436.4 -25796.4)
(-96472.6 25472.6 -3461.76)
(-93749.3 3070.48 -4265.14)
(-95765.7 699.807 -4354.47)
(-98997.1 819.061 -4397.37)
(-103986 1538.79 -4453.31)
(-112089 4556.98 -4546.71)
(-124020 22121.7 -4844.4)
(-125583 84491.5 -6708.77)
(-88550.6 23665.9 -1230.37)
(-86003.1 2886.25 -1473.16)
(-87951.1 678.197 -1495.46)
(-91120.5 808.616 -1501.49)
(-96057.9 1522.34 -1507.2)
(-104116 4464.13 -1523.27)
(-116052 21318.8 -1654.28)
(-118439 80154.8 -2819.02)
(-83811.5 22769.1 -646.499)
(-81343.5 2805.39 -762.39)
(-83260.1 671.472 -771.103)
(-86403.9 807.329 -771.807)
(-91317.4 1517.01 -772.409)
(-99332.5 4409.89 -780.845)
(-111188 20826 -862.519)
(-113850 77397.3 -1580.56)
(-80957 22257 -367.566)
(-78536.5 2761.65 -430.957)
(-80439.4 668.78 -435.065)
(-83571.9 807.31 -434.843)
(-88470.7 1513.3 -435.042)
(-96447 4374.02 -441.237)
(-108212 20519.1 -493.186)
(-110950 75654.4 -929.201)
(-79313.6 21970.5 -191.801)
(-76920.4 2737.89 -224.203)
(-78816.9 667.586 -226.121)
(-81943.7 807.352 -225.878)
(-86832.7 1510.61 -226.083)
(-94779.8 4351.74 -229.994)
(-106475 20338 -259.069)
(-109222 74614.6 -495.536)
(-78558.1 21841 -59.767)
(-76177.3 2727.33 -69.7647)
(-78071.1 667.105 -70.3329)
(-81195.4 807.349 -70.245)
(-86079.2 1509.18 -70.3367)
(-94010.8 4341.04 -71.6742)
(-105669 20253.5 -81.0445)
(-108412 74125.9 -156.139)
(-70733.4 62094.5 -122370)
(-69123.6 6893.7 -114091)
(-70392.9 1495.69 -116013)
(-72333.4 1665.1 -119337)
(-75197.7 2852.6 -124187)
(-79563.8 6728.9 -131551)
(-85354.1 25813.1 -141245)
(-83679.4 89426.2 -136917)
(-12692.8 34493.5 -119815)
(-15151.3 4099.1 -115716)
(-15515.9 834.4 -117891)
(-15823.3 904.95 -121289)
(-16282.3 1672.64 -126393)
(-17007.4 4936.72 -134532)
(-18086.4 24131.7 -146235)
(-18825.3 92931.3 -145168)
(12007.5 34250.4 -118059)
(14356.9 4070.56 -113889)
(14687.2 823.711 -115983)
(14971.2 898.677 -119331)
(15414.4 1668.55 -124402)
(16131.2 4924.88 -132511)
(17182.7 23995.1 -144172)
(17455.8 91791.3 -143155)
(66197.1 60857.9 -116950)
(64345.3 6778.87 -108524)
(65506 1448.72 -110231)
(67345.7 1632.08 -113409)
(70127.1 2832.59 -118157)
(74440.1 6705.1 -125424)
(80218.1 25456.3 -134988)
(78398.9 86033.9 -130859)
(108158 60857.9 -72173)
(99711.9 6778.87 -70630.2)
(101359 1448.72 -71849.7)
(104463 1632.08 -73737.2)
(109135 2832.59 -76565)
(116323 6705.1 -80930)
(125756 25456.3 -86866.4)
(121319 86033.9 -86012.9)
(100664 30791.7 -16314)
(96817.8 3742.49 -19612.3)
(98736.7 784.231 -20050.4)
(101896 880.143 -20386.6)
(106787 1647.19 -20893)
(114714 4819.05 -21711.1)
(126195 23091.1 -23089.3)
(125761 86900.7 -25453.5)
(88481.9 24931.5 -3424.4)
(85503.8 3042.47 -4218.04)
(87329.9 674.427 -4306.01)
(90354.2 789.493 -4349.57)
(95118.9 1508.09 -4408.42)
(102984 4508.8 -4508.34)
(114722 21714 -4818.46)
(116337 80984.4 -6701.26)
(80746.9 23149.3 -1210.99)
(77954.4 2860.88 -1449.41)
(79714 652.703 -1471.32)
(82669.7 777.732 -1477.82)
(87363.6 1488.42 -1485.03)
(95145.4 4409.01 -1504.53)
(106823 20898.1 -1642.96)
(109177 76653.4 -2821.43)
(76136.8 22271.1 -632.668)
(73430.1 2782.14 -745.295)
(75159.5 646.016 -753.66)
(78085.1 775.776 -754.612)
(82742.6 1481.39 -756.024)
(90457.4 4350.87 -766.332)
(102014 20397.1 -852.3)
(104585 73892.4 -1579.24)
(73358 21771.3 -358.86)
(70702.6 2739.89 -420.063)
(72418.6 643.386 -423.911)
(75329.4 775.368 -423.827)
(79964.1 1476.7 -424.494)
(87625.6 4312.74 -431.756)
(99067.8 20085.2 -486.171)
(101676 72145.1 -927.516)
(71756.2 21492.2 -187.058)
(69130 2717.09 -218.212)
(70839.6 642.253 -219.965)
(73742.6 775.193 -219.789)
(78362.7 1473.46 -220.245)
(85986.7 4289.19 -224.717)
(97345.2 19901.3 -255.075)
(99941.4 71101.8 -494.377)
(71019.1 21366.1 -58.2641)
(68406 2706.98 -67.8557)
(70113 641.809 -68.3667)
(73012.4 775.088 -68.2996)
(77625 1471.77 -68.4717)
(85229.6 4277.91 -69.987)
(96544.7 19815.6 -79.7603)
(99126.2 70611.3 -155.748)
(-83679.4 137003 -89374.5)
(-85396 141395 -25796.4)
(-79660.3 131791 -6708.77)
(-75372.2 124561 -2819.02)
(-72632.8 119933 -1580.56)
(-70908.1 116996 -929.201)
(-69884 115239 -495.536)
(-69404.7 114412 -156.139)
(-18825.3 145238 -92891.3)
(-18091.7 146357 -24123.9)
(-17018.7 134726 -4928.43)
(-16302.3 126697 -1657.82)
(-15857.2 121787 -861.082)
(-15582.5 118756 -494.301)
(-15422 116970 -260.935)
(-15347.6 116135 -81.8797)
(17455.8 143212 -91759.8)
(17179.9 144267 -23989.8)
(16126.2 132660 -4919.31)
(15407.1 124639 -1657.55)
(14962.6 119730 -860.789)
(14688.9 116698 -493.933)
(14529.4 114911 -260.67)
(14455.5 114076 -81.7857)
(78398.9 130898 -86012.9)
(80219 135053 -25453.5)
(74444.6 125527 -6701.26)
(70144.9 118324 -2821.43)
(67404.5 113700 -1579.24)
(65676.4 110761 -927.516)
(64649.2 109001 -494.377)
(64167.7 108172 -155.748)
)
;
    }
    symmetry
    {
        type            symmetry;
    }
    bottom
    {
        type            calculated;
        value           nonuniform List<vector> 
32
(
(-70733.4 112087 -75169.2)
(-65461.4 56150.6 -16626.5)
(-58152.1 45581.2 -3461.76)
(-53548.2 42303.5 -1230.37)
(-50811.5 40659.7 -646.499)
(-49170.3 39717.5 -367.566)
(-48228.2 39189.4 -191.801)
(-47795.9 38950.3 -59.767)
(-12692.8 61759 -72345.8)
(-11046.7 12005.7 -13960.3)
(-9918.07 5917.92 -1698.39)
(-9273.85 5212.14 -220.347)
(-8906.03 5036.53 -65.436)
(-8691.52 4950.4 -33.212)
(-8570.85 4903.69 -16.8904)
(-8516.14 4882.84 -5.21217)
(12007.5 61316.2 -71367.6)
(10747.8 11963.9 -13851.8)
(9653.7 5908.87 -1688.93)
(9021.75 5208.15 -218.326)
(8663.05 5035.57 -64.169)
(8454.52 4951.48 -32.3864)
(8337.41 4906.02 -16.4268)
(8284.35 4885.77 -5.06282)
(66197.1 109789 -72173)
(61090.3 54996.8 -16314)
(53896.9 44532.7 -3424.4)
(49396.2 41299.2 -1210.99)
(46731.7 39688.8 -632.668)
(45133.2 38768.5 -358.86)
(44214.9 38253.3 -187.058)
(43793.2 38020.3 -58.2641)
)
;
    }
}


// ************************************************************************* //
