/*--------------------------------*- C++ -*----------------------------------*\
| =========                 |                                                 |
| \\      /  F ield         | OpenFOAM: The Open Source CFD Toolbox           |
|  \\    /   O peration     | Version:  v1912                                 |
|   \\  /    A nd           | Website:  www.openfoam.com                      |
|    \\/     M anipulation  |                                                 |
\*---------------------------------------------------------------------------*/
FoamFile
{
    version     2.0;
    format      ascii;
    class       pointVectorField;
    location    "0.52/solid";
    object      pointDD;
}
// * * * * * * * * * * * * * * * * * * * * * * * * * * * * * * * * * * * * * //

dimensions      [0 1 0 0 0 0 0];


internalField   nonuniform List<vector> 
405
(
(2.21639e-10 3.74848e-10 2.20169e-10)
(9.55061e-11 2.60746e-10 1.51568e-10)
(-4.15312e-12 2.20248e-10 1.29564e-10)
(-9.93719e-11 2.50915e-10 1.38096e-10)
(-2.00706e-10 3.58032e-10 1.99851e-10)
(4.51226e-10 4.57673e-10 5.36586e-10)
(2.68718e-10 4.38966e-10 5.06973e-10)
(-1.23636e-11 3.7063e-10 4.55991e-10)
(-2.82939e-10 4.25071e-10 4.76029e-10)
(-4.23483e-10 4.41694e-10 4.98097e-10)
(5.89398e-10 2.11303e-10 8.89437e-10)
(3.58004e-10 2.34308e-10 8.55233e-10)
(-2.02856e-11 1.94946e-10 7.92713e-10)
(-3.86392e-10 2.31432e-10 8.17239e-10)
(-5.71927e-10 2.12789e-10 8.37865e-10)
(6.0026e-10 -5.77657e-11 1.16354e-09)
(3.59981e-10 -1.08846e-11 1.12387e-09)
(-2.9074e-11 -2.85814e-11 1.05157e-09)
(-4.05856e-10 -4.21954e-12 1.08052e-09)
(-5.98277e-10 -4.12456e-11 1.1032e-09)
(5.89513e-10 -3.08567e-10 1.41892e-09)
(3.45023e-10 -2.64368e-10 1.37043e-09)
(-4.01831e-11 -2.79674e-10 1.28698e-09)
(-4.12991e-10 -2.49646e-10 1.32284e-09)
(-6.07768e-10 -2.79055e-10 1.35177e-09)
(6.16312e-10 -5.73147e-10 1.68735e-09)
(3.57499e-10 -5.47379e-10 1.62511e-09)
(-5.39225e-11 -5.69665e-10 1.5298e-09)
(-4.52743e-10 -5.25347e-10 1.57378e-09)
(-6.59939e-10 -5.3151e-10 1.61418e-09)
(7.31938e-10 -9.38493e-10 1.9895e-09)
(4.33439e-10 -9.26402e-10 1.9124e-09)
(-7.06986e-11 -9.43411e-10 1.8092e-09)
(-5.61704e-10 -8.96936e-10 1.8574e-09)
(-8.05943e-10 -8.84419e-10 1.91044e-09)
(9.53501e-10 -1.5659e-09 2.31016e-09)
(5.6968e-10 -1.53777e-09 2.24787e-09)
(-9.12829e-11 -1.51496e-09 2.15443e-09)
(-7.37474e-10 -1.49707e-09 2.18885e-09)
(-1.06151e-09 -1.49389e-09 2.22508e-09)
(1.08268e-09 -1.98747e-09 2.48615e-09)
(6.47083e-10 -1.93948e-09 2.45409e-09)
(-1.03247e-10 -1.87056e-09 2.38785e-09)
(-8.37653e-10 -1.88233e-09 2.40173e-09)
(-1.22511e-09 -1.8986e-09 2.40555e-09)
(1.22131e-10 1.87907e-10 9.83283e-11)
(0 0 0)
(0 0 0)
(0 0 0)
(-9.18952e-11 1.78888e-10 9.12615e-11)
(3.36102e-10 2.6606e-10 3.60841e-10)
(0 0 0)
(0 0 0)
(0 0 0)
(-2.76701e-10 2.56703e-10 3.38341e-10)
(4.4147e-10 2.27247e-11 6.62413e-10)
(0 0 0)
(0 0 0)
(0 0 0)
(-3.87589e-10 2.9953e-11 6.26343e-10)
(4.45671e-10 -2.31861e-10 9.23292e-10)
(0 0 0)
(0 0 0)
(0 0 0)
(-4.03274e-10 -2.09717e-10 8.78203e-10)
(4.32671e-10 -4.69437e-10 1.16971e-09)
(0 0 0)
(0 0 0)
(0 0 0)
(-4.07026e-10 -4.33617e-10 1.11756e-09)
(4.54334e-10 -7.1134e-10 1.42517e-09)
(0 0 0)
(0 0 0)
(0 0 0)
(-4.50805e-10 -6.62327e-10 1.3667e-09)
(5.63434e-10 -1.02425e-09 1.69853e-09)
(0 0 0)
(0 0 0)
(0 0 0)
(-5.86732e-10 -9.61792e-10 1.63397e-09)
(8.02274e-10 -1.5598e-09 1.94509e-09)
(0 0 0)
(0 0 0)
(0 0 0)
(-8.54046e-10 -1.47916e-09 1.87504e-09)
(9.51227e-10 -1.92421e-09 2.07849e-09)
(5.66509e-10 -1.86014e-09 2.09499e-09)
(-9.41785e-11 -1.76378e-09 2.0748e-09)
(-7.40144e-10 -1.79557e-09 2.05859e-09)
(-1.06359e-09 -1.82955e-09 2.01486e-09)
(4.71213e-11 7.66939e-11 2.61634e-11)
(0 0 0)
(0 0 0)
(0 0 0)
(-1.7548e-11 6.80904e-11 2.28312e-11)
(1.47713e-10 4.80858e-11 1.6029e-10)
(0 0 0)
(0 0 0)
(0 0 0)
(-8.71465e-11 3.891e-11 1.4778e-10)
(2.05314e-10 -1.75313e-10 3.89415e-10)
(0 0 0)
(0 0 0)
(0 0 0)
(-1.45547e-10 -1.69199e-10 3.66619e-10)
(1.97702e-10 -4.03856e-10 6.26936e-10)
(0 0 0)
(0 0 0)
(0 0 0)
(-1.45308e-10 -3.83798e-10 5.962e-10)
(1.80359e-10 -6.19099e-10 8.55722e-10)
(0 0 0)
(0 0 0)
(0 0 0)
(-1.41169e-10 -5.85858e-10 8.18435e-10)
(1.98766e-10 -8.25621e-10 1.07752e-09)
(0 0 0)
(0 0 0)
(0 0 0)
(-1.78492e-10 -7.79536e-10 1.03435e-09)
(3.08868e-10 -1.06584e-09 1.27937e-09)
(0 0 0)
(0 0 0)
(0 0 0)
(-3.12451e-10 -1.00687e-09 1.23084e-09)
(5.60013e-10 -1.48183e-09 1.40755e-09)
(0 0 0)
(0 0 0)
(0 0 0)
(-5.89071e-10 -1.40571e-09 1.35501e-09)
(7.25819e-10 -1.7723e-09 1.45065e-09)
(4.26033e-10 -1.69375e-09 1.48417e-09)
(-7.72107e-11 -1.58728e-09 1.50386e-09)
(-5.67137e-10 -1.63221e-09 1.45837e-09)
(-8.10484e-10 -1.68234e-09 1.40427e-09)
(9.04363e-12 2.69593e-11 1.81383e-11)
(0 0 0)
(0 0 0)
(0 0 0)
(2.05214e-11 1.72985e-11 1.59147e-11)
(4.85022e-11 -5.28219e-11 1.18974e-10)
(0 0 0)
(0 0 0)
(0 0 0)
(1.38785e-11 -6.46096e-11 1.10504e-10)
(7.84213e-11 -2.74827e-10 3.04031e-10)
(0 0 0)
(0 0 0)
(0 0 0)
(-1.31413e-11 -2.72122e-10 2.88078e-10)
(6.73319e-11 -4.93376e-10 5.09825e-10)
(0 0 0)
(0 0 0)
(0 0 0)
(-5.81923e-12 -4.77187e-10 4.87414e-10)
(5.32868e-11 -6.86633e-10 7.10791e-10)
(0 0 0)
(0 0 0)
(0 0 0)
(-1.62672e-12 -6.57513e-10 6.82686e-10)
(7.65317e-11 -8.53213e-10 8.93073e-10)
(0 0 0)
(0 0 0)
(0 0 0)
(-4.0672e-11 -8.11435e-10 8.59822e-10)
(1.92252e-10 -1.03354e-09 1.03337e-09)
(0 0 0)
(0 0 0)
(0 0 0)
(-1.77341e-10 -9.79092e-10 9.95644e-10)
(4.44531e-10 -1.37819e-09 1.09125e-09)
(0 0 0)
(0 0 0)
(0 0 0)
(-4.52542e-10 -1.30668e-09 1.05049e-09)
(6.0313e-10 -1.64078e-09 1.08596e-09)
(3.43078e-10 -1.57738e-09 1.10759e-09)
(-6.44111e-11 -1.47803e-09 1.13194e-09)
(-4.58816e-10 -1.51821e-09 1.08788e-09)
(-6.6413e-10 -1.55482e-09 1.05027e-09)
(-5.56518e-12 8.76581e-12 2.13492e-11)
(0 0 0)
(0 0 0)
(0 0 0)
(3.5249e-11 -1.87786e-12 1.97713e-11)
(1.03923e-11 -8.89988e-11 1.10853e-10)
(0 0 0)
(0 0 0)
(0 0 0)
(5.33927e-11 -1.03383e-10 1.04932e-10)
(3.07101e-11 -3.09882e-10 2.60918e-10)
(0 0 0)
(0 0 0)
(0 0 0)
(3.84875e-11 -3.10721e-10 2.49716e-10)
(2.15186e-11 -5.22312e-10 4.2675e-10)
(0 0 0)
(0 0 0)
(0 0 0)
(4.6663e-11 -5.10125e-10 4.10689e-10)
(1.3473e-11 -6.98832e-10 5.88007e-10)
(0 0 0)
(0 0 0)
(0 0 0)
(4.76381e-11 -6.739e-10 5.67416e-10)
(4.31614e-11 -8.37692e-10 7.26853e-10)
(0 0 0)
(0 0 0)
(0 0 0)
(4.83361e-12 -8.00151e-10 7.02098e-10)
(1.62987e-10 -9.85372e-10 8.21326e-10)
(0 0 0)
(0 0 0)
(0 0 0)
(-1.3343e-10 -9.35095e-10 7.93009e-10)
(4.1178e-10 -1.29823e-09 8.47919e-10)
(0 0 0)
(0 0 0)
(0 0 0)
(-4.02963e-10 -1.2306e-09 8.1726e-10)
(5.63746e-10 -1.54969e-09 8.28038e-10)
(3.18905e-10 -1.5e-09 8.32091e-10)
(-5.48018e-11 -1.41063e-09 8.45983e-10)
(-4.15305e-10 -1.44266e-09 8.17316e-10)
(-6.06115e-10 -1.46691e-09 8.01227e-10)
(-9.98616e-12 3.38556e-12 2.01747e-11)
(0 0 0)
(0 0 0)
(0 0 0)
(3.97636e-11 -7.93443e-12 1.90974e-11)
(-2.74891e-13 -9.75748e-11 9.35014e-11)
(0 0 0)
(0 0 0)
(0 0 0)
(6.49764e-11 -1.13875e-10 8.94923e-11)
(1.94964e-11 -3.13934e-10 2.07555e-10)
(0 0 0)
(0 0 0)
(0 0 0)
(5.22636e-11 -3.17589e-10 1.99966e-10)
(1.428e-11 -5.19775e-10 3.3033e-10)
(0 0 0)
(0 0 0)
(0 0 0)
(5.84184e-11 -5.10896e-10 3.19335e-10)
(1.19204e-11 -6.85052e-10 4.4799e-10)
(0 0 0)
(0 0 0)
(0 0 0)
(5.58133e-11 -6.63624e-10 4.33694e-10)
(4.68002e-11 -8.09213e-10 5.4567e-10)
(0 0 0)
(0 0 0)
(0 0 0)
(9.92736e-12 -7.75177e-10 5.28276e-10)
(1.68787e-10 -9.43348e-10 6.07402e-10)
(0 0 0)
(0 0 0)
(0 0 0)
(-1.28517e-10 -8.9642e-10 5.87353e-10)
(4.13414e-10 -1.24351e-09 6.20797e-10)
(0 0 0)
(0 0 0)
(0 0 0)
(-3.92163e-10 -1.17889e-09 5.9901e-10)
(5.61103e-10 -1.48916e-09 6.01638e-10)
(3.20927e-10 -1.44767e-09 5.96481e-10)
(-4.77799e-11 -1.3658e-09 6.01431e-10)
(-4.03152e-10 -1.39167e-09 5.85986e-10)
(-5.8971e-10 -1.40877e-09 5.82577e-10)
(-1.0878e-11 2.33807e-12 1.5052e-11)
(0 0 0)
(0 0 0)
(0 0 0)
(4.07312e-11 -9.40962e-12 1.43836e-11)
(-1.64055e-12 -9.68594e-11 6.63722e-11)
(0 0 0)
(0 0 0)
(0 0 0)
(6.69291e-11 -1.14417e-10 6.38905e-11)
(2.01384e-11 -3.07439e-10 1.42744e-10)
(0 0 0)
(0 0 0)
(0 0 0)
(5.32322e-11 -3.13029e-10 1.38042e-10)
(1.85906e-11 -5.07019e-10 2.2301e-10)
(0 0 0)
(0 0 0)
(0 0 0)
(5.7006e-11 -5.00493e-10 2.16158e-10)
(2.03616e-11 -6.65348e-10 2.98754e-10)
(0 0 0)
(0 0 0)
(0 0 0)
(5.17161e-11 -6.46456e-10 2.8977e-10)
(5.85967e-11 -7.82976e-10 3.60213e-10)
(0 0 0)
(0 0 0)
(0 0 0)
(3.95555e-12 -7.51483e-10 3.49193e-10)
(1.81542e-10 -9.12767e-10 3.97619e-10)
(0 0 0)
(0 0 0)
(0 0 0)
(-1.34035e-10 -8.68246e-10 3.84841e-10)
(4.22866e-10 -1.20803e-09 4.04662e-10)
(0 0 0)
(0 0 0)
(0 0 0)
(-3.93136e-10 -1.14556e-09 3.90729e-10)
(5.67564e-10 -1.45046e-09 3.9124e-10)
(3.28265e-10 -1.41336e-09 3.84798e-10)
(-4.30021e-11 -1.33591e-09 3.85622e-10)
(-4.0084e-10 -1.35827e-09 3.78085e-10)
(-5.86778e-10 -1.37174e-09 3.79043e-10)
(-1.08921e-11 2.39656e-12 7.91944e-12)
(0 0 0)
(0 0 0)
(0 0 0)
(4.07967e-11 -9.58799e-12 7.59992e-12)
(-1.08928e-12 -9.45626e-11 3.41593e-11)
(0 0 0)
(0 0 0)
(0 0 0)
(6.67119e-11 -1.12829e-10 3.29733e-11)
(2.23486e-11 -3.0067e-10 7.23255e-11)
(0 0 0)
(0 0 0)
(0 0 0)
(5.19138e-11 -3.07374e-10 7.00762e-11)
(2.31201e-11 -4.95881e-10 1.11827e-10)
(0 0 0)
(0 0 0)
(0 0 0)
(5.40959e-11 -4.90737e-10 1.0854e-10)
(2.7269e-11 -6.50451e-10 1.48708e-10)
(0 0 0)
(0 0 0)
(0 0 0)
(4.72669e-11 -6.33071e-10 1.44378e-10)
(6.72963e-11 -7.65562e-10 1.78271e-10)
(0 0 0)
(0 0 0)
(0 0 0)
(-1.41254e-12 -7.35591e-10 1.72935e-10)
(1.90607e-10 -8.94374e-10 1.9597e-10)
(0 0 0)
(0 0 0)
(0 0 0)
(-1.38928e-10 -8.51294e-10 1.89759e-10)
(4.29911e-10 -1.18785e-09 1.99091e-10)
(0 0 0)
(0 0 0)
(0 0 0)
(-3.95265e-10 -1.12665e-09 1.92305e-10)
(5.72756e-10 -1.42868e-09 1.92402e-10)
(3.33442e-10 -1.39366e-09 1.88566e-10)
(-4.02338e-11 -1.31837e-09 1.88365e-10)
(-4.00422e-10 -1.33911e-09 1.85295e-10)
(-5.86516e-10 -1.35095e-09 1.86458e-10)
(1.66777e-12 -3.6448e-12 0)
(5.6998e-12 -1.76138e-11 0)
(2.30829e-13 -2.77438e-11 0)
(-1.82682e-12 -2.14652e-11 0)
(2.31356e-11 -1.6182e-11 0)
(2.05263e-11 -1.00923e-10 0)
(1.93715e-11 -1.266e-10 0)
(2.85563e-12 -1.45789e-10 0)
(-5.88564e-12 -1.32888e-10 0)
(2.29688e-11 -1.15583e-10 0)
(4.10684e-11 -3.00074e-10 0)
(2.82301e-11 -3.15938e-10 0)
(6.8259e-12 -3.30043e-10 0)
(-6.06735e-12 -3.18288e-10 0)
(1.15427e-11 -3.05663e-10 0)
(4.15182e-11 -4.91988e-10 0)
(2.667e-11 -5.03237e-10 0)
(8.35428e-12 -5.13283e-10 0)
(-1.7724e-12 -5.00168e-10 0)
(1.38936e-11 -4.87473e-10 0)
(4.55176e-11 -6.50475e-10 0)
(2.69541e-11 -6.72627e-10 0)
(6.51977e-12 -6.8702e-10 0)
(-5.78738e-12 -6.63604e-10 0)
(6.79498e-12 -6.35359e-10 0)
(8.59183e-11 -7.79838e-10 0)
(5.19718e-11 -8.28068e-10 0)
(1.14575e-12 -8.52114e-10 0)
(-4.13319e-11 -8.12858e-10 0)
(-4.29405e-11 -7.53776e-10 0)
(2.08726e-10 -9.29296e-10 0)
(1.31418e-10 -9.99412e-10 0)
(-8.06472e-12 -1.02297e-09 0)
(-1.38437e-10 -9.77644e-10 0)
(-1.8116e-10 -8.9172e-10 0)
(4.3118e-10 -1.22421e-09 0)
(2.6224e-10 -1.26362e-09 0)
(-2.17985e-11 -1.25231e-09 0)
(-2.9463e-10 -1.23219e-09 0)
(-4.23643e-10 -1.17016e-09 0)
(5.65904e-10 -1.43545e-09 0)
(3.35528e-10 -1.40954e-09 0)
(-3.46186e-11 -1.35199e-09 0)
(-3.91652e-10 -1.36353e-09 0)
(-5.85347e-10 -1.36488e-09 0)
)
;

boundaryField
{
    interface
    {
        type            calculated;
    }
    symmetry
    {
        type            symmetry;
    }
    bottom
    {
        type            calculated;
    }
}


// ************************************************************************* //
