/*--------------------------------*- C++ -*----------------------------------*\
| =========                 |                                                 |
| \\      /  F ield         | OpenFOAM: The Open Source CFD Toolbox           |
|  \\    /   O peration     | Version:  v1912                                 |
|   \\  /    A nd           | Website:  www.openfoam.com                      |
|    \\/     M anipulation  |                                                 |
\*---------------------------------------------------------------------------*/
FoamFile
{
    version     2.0;
    format      ascii;
    class       volScalarField;
    location    "0.52/solid";
    object      sigmaHyd;
}
// * * * * * * * * * * * * * * * * * * * * * * * * * * * * * * * * * * * * * //

dimensions      [1 -1 -2 0 0 0 0];


internalField   nonuniform List<scalar> 
256
(
-717675
-371185
-367307
-692802
-980716
-569469
-564279
-950451
-1.00213e+06
-595397
-589935
-970826
-1.01306e+06
-605201
-599567
-980955
-1.0422e+06
-624181
-618435
-1.00948e+06
-1.10832e+06
-670861
-665045
-1.07521e+06
-1.29147e+06
-823462
-817139
-1.25721e+06
-1.87657e+06
-1.36923e+06
-1.35804e+06
-1.82947e+06
-350949
-83108.9
-83582.9
-337684
-521157
-190508
-190130
-504034
-540708
-217362
-216817
-522921
-549139
-226912
-226288
-530793
-567499
-236589
-235923
-548624
-612481
-261255
-260568
-593164
-760333
-370448
-369267
-739695
-1.29191e+06
-823524
-817095
-1.25724e+06
-276191
-43899.8
-44591.3
-263499
-395696
-105835
-105919
-379978
-410128
-126655
-126611
-393888
-418149
-135517
-135404
-401373
-434757
-143758
-143602
-417394
-475336
-164010
-163815
-457360
-612579
-260855
-260118
-592950
-1.10882e+06
-670478
-664461
-1.07486e+06
-257081
-42905.5
-43494.7
-244267
-360310
-92311.4
-92355.2
-344834
-371737
-109091
-109035
-355848
-379280
-116871
-116757
-362885
-395468
-124616
-124461
-378462
-434823
-143728
-143523
-417106
-567239
-235687
-234915
-547667
-1.04171e+06
-622496
-616425
-1.00757e+06
-248291
-43975
-44482.8
-235368
-345933
-89400.6
-89395.9
-330569
-356017
-104079
-103995
-340315
-363094
-110928
-110798
-346918
-378930
-118186
-118019
-362140
-417580
-136685
-136466
-400032
-547184
-226216
-225417
-527670
-1.00869e+06
-600933
-594818
-974430
-242965
-44605.2
-45056.3
-229939
-338251
-88413.5
-88374.5
-322922
-347768
-102071
-101967
-332148
-354513
-108323
-108182
-338442
-370047
-115206
-115033
-353366
-408218
-133337
-133112
-390758
-536129
-221572
-220761
-516644
-989650
-589188
-583049
-955306
-239732
-44913.3
-45327.5
-226627
-333876
-88001.6
-87939.6
-318547
-343149
-101182
-101063
-327556
-349692
-107105
-106955
-333663
-365017
-113757
-113579
-348383
-402893
-131682
-131453
-385470
-529832
-219221
-218405
-510353
-978611
-582661
-576509
-944212
-238182
-45030.7
-45426.6
-225035
-331831
-87835.9
-87762.3
-316496
-341008
-100826
-100699
-325420
-347457
-106607
-106452
-331440
-362678
-113152
-112971
-346059
-400413
-130985
-130754
-383003
-526908
-218214
-217394
-507428
-973456
-579685
-573526
-939027
)
;

boundaryField
{
    interface
    {
        type            zeroGradient;
    }
    symmetry
    {
        type            symmetry;
    }
    bottom
    {
        type            zeroGradient;
    }
}


// ************************************************************************* //
