/*--------------------------------*- C++ -*----------------------------------*\
| =========                 |                                                 |
| \\      /  F ield         | OpenFOAM: The Open Source CFD Toolbox           |
|  \\    /   O peration     | Version:  v1912                                 |
|   \\  /    A nd           | Website:  www.openfoam.com                      |
|    \\/     M anipulation  |                                                 |
\*---------------------------------------------------------------------------*/
FoamFile
{
    version     2.0;
    format      ascii;
    class       volSymmTensorField;
    location    "0.52/solid";
    object      sigma;
}
// * * * * * * * * * * * * * * * * * * * * * * * * * * * * * * * * * * * * * //

dimensions      [1 -1 -2 0 0 0 0];


internalField   nonuniform List<symmTensor> 
256
(
(-211073 21738.9 -8548.83 386357 23562.4 -226674)
(56590.2 -8492.35 -3479.21 243783 23435.6 -255945)
(57919.1 10200.1 3408.69 241524 23690.7 -251685)
(-188935 -20327.1 8579.32 380995 24502.2 -211926)
(-245930 -1227.94 -12688.8 116698 881.596 -257464)
(-38414.5 -4608.85 -5610.17 59503.6 2192.41 -300463)
(-36294.1 6301.24 5638.85 58375.9 2412.07 -295819)
(-221461 2000.84 12784.1 117474 1636.57 -241565)
(-247550 -3698.97 -13522.6 118530 -1778.66 -258710)
(-47741.8 -3412.93 -6095.07 35098.9 -1483.54 -308134)
(-45655.3 4780.26 6189.01 34188.9 -1335.25 -303366)
(-222724 4257.59 13647.3 119707 -1255.59 -242504)
(-247359 -2118.2 -13949.3 136583 -418.648 -260764)
(-39989.1 -2342.53 -6306.15 29571 -579.244 -313571)
(-37909.4 3358.69 6415.94 28793.6 -475.491 -308706)
(-222141 2547.59 14084.3 138008 -39.0949 -244277)
(-255644 -212.191 -14365.6 143470 1848.19 -270880)
(-37494.2 -1125.95 -6526.3 24444.3 1602.36 -326207)
(-35385.1 1837.32 6632.83 23719.6 1684.11 -321269)
(-230028 518.451 14506.4 145091 2148.32 -254143)
(-278022 3061.92 -14715.3 127588 5696.65 -292954)
(-50193.3 824.221 -6733.46 6995.87 5569.68 -352323)
(-48090.1 -435.963 6837.53 6296.67 5642.21 -347324)
(-252132 -2918.46 14865.8 129363 5954.08 -275970)
(-318303 9688.23 -14659.6 23418.6 12294.7 -331304)
(-84842.3 4071.59 -6732.2 -83151.7 12786 -398854)
(-82753.7 -4158.87 6844.07 -83192.3 12852.4 -393734)
(-292305 -9789.82 14823.3 26811.5 12515.8 -313899)
(-261781 13768.3 -13701 -275264 16392.2 -275118)
(8537.97 6377.18 -6297.66 -344778 17515.1 -344512)
(10704 -6371.31 6408.22 -339721 17570.1 -339458)
(-235995 -13856.6 13855.8 -258190 16558.1 -258109)
(-235696 13509.7 -6288.93 194506 -7055.32 41166.6)
(-33045.6 -10024.7 -1684.76 47528.1 3652.67 -38702.6)
(-32114.8 11022.8 1984.83 44828.2 4392.3 -39139.8)
(-213890 -12387.2 6451.83 188718 -4789.83 43308.4)
(-274611 -2438.92 -9330.82 42457.8 -99.1916 -29680.2)
(-119298 -4968.65 -3450.23 -37265.8 5290.55 -120594)
(-117374 5858.09 3953.45 -38859.7 5767.84 -120547)
(-250378 2841.65 9580.37 42393 1451.63 -25925.4)
(-280733 -3813.79 -9639.8 30826.2 222.932 -35972)
(-136294 -3509.93 -3689.11 -73907.1 1947.14 -139127)
(-134357 4136.83 4262.38 -75044.5 2287.38 -139126)
(-256072 4043.61 9913.93 31643.8 1373.55 -32457.6)
(-283977 -2253.02 -9713.64 32292.8 765.592 -33314)
(-135283 -2450.78 -3655.51 -94682.9 1170.16 -143507)
(-133343 2860.98 4240.72 -95628.6 1432.69 -143559)
(-258870 2424.71 9995.57 33474.7 1666.32 -29974.3)
(-294897 -383.941 -9905.72 31412.7 3713.33 -34707.2)
(-137343 -1283.69 -3745.35 -107900 3747.76 -149490)
(-135369 1513.71 4321.3 -108807 3962.66 -149584)
(-269285 492.56 10192.2 32753.2 4444.78 -31452.4)
(-321097 2994.88 -10066.2 17128.7 8368.42 -45678.9)
(-154078 666.537 -3877.86 -124244 8317.1 -165205)
(-152103 -651.472 4442.49 -125144 8495.45 -165355)
(-295033 -3002.25 10359.8 18580.6 8967.01 -42492.7)
(-369201 10050.3 -9967.08 -71257 12258.7 -72094.8)
(-193476 4039.06 -3900.77 -197132 12348.5 -197475)
(-191509 -4369.25 4436.54 -197353 12478.2 -197604)
(-342844 -10258.6 10259 -68151 12696.5 -68774.3)
(-318572 14698.8 -9563.25 -331449 12400.6 23164.2)
(-84834.4 6777.17 -3861.87 -399036 12867.2 -82819.7)
(-82708.1 -6820.78 4274.4 -393866 12929.3 -82732.6)
(-292342 -14824.3 9797.78 -313848 12602.2 26848.5)
(-205038 8197.43 -2551.21 142622 5995.8 88491)
(-29019.5 -12104.5 -150.43 7464.77 15505.9 816.456)
(-28063.2 12548 394.27 4985.24 16059.8 95.4227)
(-183546 -7328.06 2630.47 137864 7703.55 90171.4)
(-228631 -2935.24 -3556.79 43147 8580.79 54193)
(-85389 -5396.99 -725.903 -36393.3 13345.4 -49511.9)
(-83522.8 5854.4 1126.86 -38027.7 13806.9 -49953)
(-204961 3166.13 3705.12 42977.9 10038.6 56923.3)
(-233095 -3604 -3379.14 42388.6 7166.39 45256.3)
(-98121.6 -3479.4 -697.098 -59860.6 8759.37 -71395.6)
(-96243.5 3745.18 1119.04 -61084.3 9141.29 -71913.7)
(-209021 3689.36 3542.29 42903.8 8390.12 47626.3)
(-236559 -2205.99 -3189.56 45781.9 6122.26 44612.3)
(-97515.5 -2478.9 -551.287 -76359.7 6522.29 -79655.4)
(-95627.3 2595.2 956.82 -77390.1 6843.85 -80257.3)
(-212015 2261.62 3350.23 46648.8 7156.11 46704.3)
(-247308 -417.324 -3142.48 46725.2 7318.57 42673.5)
(-99769.3 -1396.35 -519.235 -87009.8 7375.3 -86928.8)
(-97830.6 1401.92 903.924 -87990.6 7648.94 -87601.2)
(-222172 440.89 3299.46 47777.6 8191.53 44597)
(-273039 3040.83 -3111.81 37174.8 9393.74 33547.1)
(-115729 571.219 -552.279 -98446.1 9348.27 -101366)
(-113763 -709.355 915.425 -99400.1 9573.98 -102109)
(-247279 -3102.52 3266.71 38396 10109.7 35366)
(-321160 10141.7 -3037.45 -43873 9118.2 15432.6)
(-153479 3988.58 -602.984 -163737 9021.15 -125065)
(-151486 -4400.38 910.187 -163983 9178.9 -125765)
(-294841 -10375.7 3177.45 -40906.4 9628.97 17441.5)
(-278325 14744.8 -3036.13 -292938 6124.42 127620)
(-49540.9 6760.6 -661.573 -352224 5961.56 7978.16)
(-47380.8 -6818.48 788.821 -347125 6020.65 7539.52)
(-251937 -14873.1 3104.2 -275612 6322.02 130080)
(-186237 6019.51 -762.239 121862 10062.6 86324.3)
(-26179.4 -12717.9 482.429 -4986.05 15687.8 176.701)
(-25221.6 12806.2 -271.603 -7206.56 16085 -402.987)
(-165070 -5353.37 813.445 118126 11295.1 88502)
(-203381 -2963.18 -891.065 36926.5 12048.4 67275.8)
(-70649.8 -5467.52 598.16 -41095.2 14891.6 -36326.1)
(-68821.4 5661.81 -244.904 -42575.1 15264.1 -36639.3)
(-180188 3088.47 996.366 37137.6 13207 70386.2)
(-206780 -3296.15 -606.048 42507.3 10960.7 58720.7)
(-80426.7 -3350.96 755.73 -56722.3 11911.5 -57323.4)
(-78580.5 3420.36 -395.772 -57878.2 12248.8 -57713.7)
(-183202 3308.33 721.527 43131.9 12013.6 61449.5)
(-210381 -2030.51 -371.332 50745 9384.76 54410.9)
(-79759.8 -2405.58 906.832 -66824.7 9588.35 -68941.3)
(-77896.5 2376.73 -576.392 -67823.6 9889.96 -69420.6)
(-186316 2031.23 479.557 51617.3 10326.8 56833.7)
(-221199 -343.285 -253.522 55087.7 8706.1 50011.8)
(-82254.6 -1404.77 970.657 -73472.8 8711.48 -78713.2)
(-80332.7 1310.51 -670.596 -74428.2 8975.93 -79273.2)
(-196490 330.195 352.504 56127.5 9528.12 52230.9)
(-246737 3071 -200.031 47488.1 8060.91 41571.3)
(-98046.6 514.503 960.689 -82961.7 8036 -92582.2)
(-96083 -710.855 -692.8 -83883.8 8254.25 -93215.3)
(-221293 -3150.53 289.747 48721.4 8739.8 43675.8)
(-294261 10008.1 -212.865 -31668.6 5579.19 29327.9)
(-134715 3846.13 880.263 -146859 5509.42 -110360)
(-132700 -4285.49 -681.487 -147067 5658.46 -110934)
(-268072 -10244.9 280.194 -28656.2 6056.45 31658.3)
(-254994 14426.4 -303.085 -270348 2867.08 145898)
(-34236 6554.51 825.098 -325514 2619.43 26513.3)
(-32041 -6625.27 -806.611 -320419 2669.48 26214.4)
(-228537 -14555 298.717 -253079 3037.13 148701)
(-175709 5318.91 -201.143 112243 9506.16 80962.1)
(-25620.9 -12565.2 487.461 -9831.05 12351.2 -2037.86)
(-24678.5 12442.7 -319.151 -11848.8 12633.6 -2504.32)
(-154769 -4790.14 242.677 109303 10377.8 83526.7)
(-190804 -2824.22 -101.01 31881.4 11162.6 66434.7)
(-66059.5 -5336.99 764.772 -44492.3 12586.3 -32966.8)
(-64283.5 5369.14 -471.69 -45828.7 12863 -33151.6)
(-167945 2881.39 187.728 32488.5 12015.1 69917.8)
(-193900 -3046.94 125.825 39397 10890.7 59225.8)
(-74651.7 -3219.91 923.005 -57250.6 11339.2 -51787.4)
(-72854.1 3170.58 -620.712 -58330.7 11601.6 -52045.1)
(-170666 3015.96 -30.1497 40215.2 11701.3 62329.9)
(-197663 -1865.34 302.768 50403.9 9586.5 53648.1)
(-74022.9 -2325.34 1030.6 -63690.9 9650.18 -64244.2)
(-72202.8 2214.39 -756.2 -64654.6 9893.9 -64591)
(-173932 1836.1 -214.492 51359.1 10340.5 56439.4)
(-208595 -263.63 400.607 57004 8078.49 48122.6)
(-76728.8 -1386.37 1076.03 -67706.3 8070.27 -74986.1)
(-74845.7 1240.3 -834.143 -68643.5 8288.8 -75417)
(-184187 232.141 -323.172 58079.3 8753.35 50695.5)
(-234004 3065.26 430.058 50186.9 6162.41 40525)
(-92474.9 468.993 1061.11 -76476.3 6186.86 -88004.7)
(-90542.1 -693.483 -855.691 -77385.2 6368.06 -88509)
(-208795 -3152.44 -364.921 51446.8 6725.19 42978.2)
(-280920 9836.7 380.716 -27823.6 3317.91 31256.8)
(-128507 3709.07 983.226 -139782 3338.86 -102904)
(-126506 -4163.8 -845.201 -139978 3461.5 -103343)
(-254854 -10074.3 -339.284 -24780.2 3712.36 33947.4)
(-243334 14116.9 286.647 -258281 1476.83 146927)
(-30454.3 6367.48 933.602 -311365 1329.81 32334.2)
(-28262.1 -6451.29 -948.972 -306268 1369.86 32177.1)
(-216859 -14248.9 -307.789 -241013 1613.97 150088)
(-169469 5116 -73.1674 107575 7407.55 77702.4)
(-25716.6 -12288.9 312.881 -12075.4 8770.76 -3203.55)
(-24784.4 12043.4 -192.35 -13947.2 8960.18 -3597.13)
(-148648 -4672.49 105.009 105206 7986.21 80534.6)
(-183927 -2684.92 22.0628 29372.1 8493.4 64374.8)
(-64769 -5195.37 521.866 -46017.8 9152.03 -31785.9)
(-63031.8 5130.13 -305.07 -47247.5 9340.94 -31885.1)
(-161257 2700.32 45.1004 30297.6 9071.06 68134.3)
(-187019 -2886.03 163.623 37264.7 8573.86 58276.2)
(-73014.7 -3130.04 629.406 -57833.4 8759.19 -48860.6)
(-71254.3 3006.87 -400.917 -58852.7 8942.62 -49028.2)
(-163979 2828.4 -88.4506 38267.4 9137.74 61667.7)
(-190912 -1757.38 270.521 49218.3 7707.14 52884.9)
(-72485.6 -2275.86 690.987 -62845.7 7716.96 -60851.4)
(-70699.5 2113.05 -482.48 -63780.2 7891.22 -61107.5)
(-167367 1709.6 -200.767 50271.8 8245 55963.9)
(-201911 -213.636 329.322 56769.2 6255.45 47375.4)
(-75329.2 -1376.56 712.3 -65711 6258.01 -71481.9)
(-73477.3 1197.18 -531.021 -66636.8 6416.72 -71823.1)
(-177669 170.584 -268.913 57893.6 6745.78 50230)
(-227197 3047.25 339.601 50340.7 4330.19 40429.2)
(-91039.6 434.457 695.133 -74154.5 4385.37 -83873.5)
(-89133.4 -678.634 -546.065 -75060.6 4517.84 -84288.4)
(-202115 -3139.95 -290.571 51628 4743.24 43159.6)
(-273634 9712.86 295.037 -26555.5 2040.76 32228.7)
(-126693 3621.43 639.218 -136721 2115.38 -97823.1)
(-124710 -4089.15 -544.849 -136917 2205.02 -98170.3)
(-247628 -9952.66 -266.005 -23490.6 2331.38 35196.1)
(-236830 13917.8 221.836 -251110 838.095 146150)
(-30025.5 6253.7 597.008 -303179 787.978 35309.7)
(-27841.5 -6349.03 -617.673 -298081 817.201 35247.2)
(-210325 -14054.5 -240.642 -233833 938.79 149579)
(-165827 5044.27 -41.1649 105361 4649.42 76072.8)
(-25840.8 -12101.3 157.11 -13142.4 5267.11 -3812.57)
(-24913 11788.2 -85.0245 -14919.9 5376.12 -4161.64)
(-145062 -4649.45 61.0909 103356 4979.4 79075.1)
(-180056 -2598.84 5.89409 28351.7 5221.61 63065.9)
(-64373.7 -5107.48 265.931 -46615 5507.79 -31435.3)
(-62658.8 4987.76 -133.492 -47774.6 5617.43 -31482)
(-157482 2590.79 36.5659 29495.5 5554.82 67008.5)
(-183201 -2797.79 77.693 36248.6 5329.54 57647.4)
(-72549.2 -3082.08 321.812 -58110 5401.04 -47481.3)
(-70810.5 2915.75 -179.806 -59087.3 5508.78 -47592.9)
(-160259 2724.66 -29.5249 37389.1 5659.82 61234.1)
(-187173 -1699.72 131.344 48362.5 4843.88 52792.3)
(-72105.6 -2253.29 350.905 -62716.4 4843.35 -58803.6)
(-70339.1 2058.44 -220.203 -63629.5 4947.02 -59003)
(-163721 1640.56 -86.2244 49497.6 5163.73 56069.1)
(-198196 -189.244 159.764 56169.8 3881.53 47668.9)
(-75021.3 -1375.66 358.069 -65229.1 3891.48 -69022)
(-73187.6 1174.15 -244.875 -66146.4 3986.84 -69306.8)
(-174035 138.514 -120.73 57339.1 4176.65 50718.6)
(-223385 3032.62 161.975 49943.4 2585.65 41117.8)
(-90701.7 413.165 345.643 -73508.4 2636.25 -81057.3)
(-88811 -671.906 -254.013 -74413.4 2716.3 -81416.4)
(-198362 -3129.71 -130.701 51255.7 2836.25 44039.2)
(-269506 9643.89 135.247 -26093.5 1166.32 33177.6)
(-126138 3577.56 314.353 -135412 1236.4 -94821.8)
(-124165 -4055.66 -257.914 -135611 1290.72 -95112.8)
(-243521 -9886.23 -117.069 -23011.7 1343.5 36332.3)
(-233046 13813.9 90.0844 -246881 456.103 145797)
(-30155.1 6198.02 285.459 -298489 451.445 36900.7)
(-27976 -6301.87 -299.96 -293390 469.198 36895.9)
(-206510 -13954.6 -101.718 -229590 517.577 149407)
(-164122 5013.41 -14.8245 104479 1580.58 75416.7)
(-25888.3 -12017.5 46.4761 -13564.2 1760.41 -4086.47)
(-24962 11674.5 -22.5109 -15295.6 1795.98 -4414.11)
(-143379 -4640.69 21.5699 102652 1687.74 78501.7)
(-178260 -2562.25 -2.36141 28019 1755.65 62505.8)
(-64226.1 -5070.1 78.4848 -46813.2 1836.96 -31371.7)
(-62521.2 4926.11 -33.9965 -47938.1 1872.87 -31393.1)
(-155726 2543.75 16.8309 29272.8 1864.43 66539.4)
(-181437 -2760.39 18.9533 35878.4 1795.4 57403.4)
(-72393.7 -3062.9 95.1322 -58206.2 1814.45 -46963.2)
(-70664.7 2876.71 -46.9968 -59162.1 1849.93 -47047.6)
(-158536 2680.18 -2.41169 37091.5 1904 61088.6)
(-185445 -1675.78 34.9458 47964.1 1638.6 52899.7)
(-71993.7 -2245.57 103.431 -62736.8 1638.28 -57887.7)
(-70236 2035.23 -58.884 -63638.6 1672.62 -58059.3)
(-162030 1611.14 -19.3604 49144.5 1744.53 56277.4)
(-196472 -179.927 43.1719 55800.9 1308.72 48056.9)
(-74938.4 -1377.04 104.875 -65181.3 1313.92 -67825.6)
(-73112.7 1164.19 -66.303 -66093.8 1345.66 -68083)
(-172343 125.243 -29.6736 56996.5 1407.05 51206.3)
(-221609 3025.42 43.3665 49659 862.165 41688.5)
(-90601.8 403.567 100.497 -73392.2 882.028 -79702.6)
(-88718 -670.269 -69.4479 -74296.5 908.757 -80034.7)
(-196609 -3125 -32.5928 50986.2 946.029 44707.3)
(-267575 9614.85 34.7909 -25929.4 386.208 33778.5)
(-125939 3560.75 90.6463 -134926 413.622 -93468.6)
(-123971 -4044.66 -71.6929 -135126 431.796 -93732.6)
(-241595 -9858.81 -28.5466 -22837.9 445.677 37027.9)
(-231242 13771.5 19.6245 -244891 147.487 145757)
(-30227.6 6176.68 80.3662 -296324 150.135 37596)
(-28050.4 -6285.07 -85.3571 -291225 156.082 37618.9)
(-204687 -13914.6 -23.4832 -227592 168.139 149458)
)
;

boundaryField
{
    interface
    {
        type            calculated;
        value           nonuniform List<symmTensor> 
192
(
(-46.4956 0.350137 3.00027 892164 23562.4 279133)
(-48.35 0.23672 4.7682 608539 881.596 234376)
(-49.7319 -0.0882213 5.29655 617574 -1778.66 240334)
(-50.5733 -0.507662 5.38793 647239 -418.648 249891)
(-50.7322 -0.864026 5.28621 674873 1848.19 260523)
(-51.5389 -1.51318 5.11058 694602 5696.65 274060)
(-49.8757 -1.99521 4.68089 641421 12294.7 286698)
(-53.3435 -4.38172 4.34032 302175 16392.2 302321)
(-45.2465 0.245875 1.48587 684250 -7055.32 530911)
(-46.1351 0.147769 2.53439 536099 -99.1916 463961)
(-46.9537 -0.148391 2.78668 534619 222.932 467820)
(-47.5252 -0.581441 2.77803 549458 765.592 483851)
(-47.4682 -0.963313 2.65892 571416 3713.33 505296)
(-48.2 -1.68426 2.49842 597302 8368.42 534495)
(-46.2785 -2.22075 2.22108 570885 12258.7 570047)
(-49.9111 -4.73508 1.99459 286938 12400.6 641552)
(-47.9237 0.209231 1.17523 575020 5995.8 520889)
(-48.713 0.105376 1.98392 475930 8580.79 486976)
(-49.5248 -0.190325 2.17452 484285 7166.39 487153)
(-50.1056 -0.652736 2.16318 500704 6122.26 499534)
(-49.9536 -1.0766 2.06686 524070 7318.57 520019)
(-50.59 -1.88152 1.93696 554487 9393.74 550860)
(-48.2048 -2.49991 1.73188 536675 9118.2 595980)
(-51.6123 -5.18999 1.55453 274832 6124.42 695390)
(-48.111 0.156521 0.725008 517909 10062.6 482372)
(-48.7074 0.0333673 1.29153 431223 12048.4 461572)
(-49.3463 -0.263835 1.4179 445217 10960.7 461431)
(-49.8283 -0.736993 1.39772 466317 9384.76 469983)
(-49.5703 -1.18096 1.31903 492930 8706.1 487854)
(-50.1388 -2.02382 1.21955 525055 8060.91 519138)
(-47.5941 -2.67939 1.0862 508896 5579.19 569892)
(-50.957 -5.41813 0.974907 261910 2867.08 678155)
(-48.91 0.131774 0.532197 486853 9506.16 455572)
(-49.4473 -0.0102626 0.948149 404146 11162.6 438699)
(-50.0103 -0.317245 1.04161 419833 10890.7 439662)
(-50.4465 -0.803612 1.02669 443680 9586.5 446925)
(-50.1146 -1.26795 0.968603 472514 8078.49 463633)
(-50.6097 -2.14322 0.89436 505212 6162.41 495550)
(-47.8873 -2.83303 0.799784 489650 3317.91 548730)
(-51.1188 -5.61901 0.718432 252591 1476.83 657799)
(-49.1112 0.112292 0.327276 469316 7407.55 439443)
(-49.5965 -0.045181 0.601294 388664 8493.4 423667)
(-50.0922 -0.36035 0.663194 404678 8573.86 425689)
(-50.4846 -0.854696 0.651839 429487 7707.14 433154)
(-50.1012 -1.33075 0.612032 459248 6255.45 449854)
(-50.5537 -2.22302 0.56206 492143 4330.19 482231)
(-47.748 -2.93104 0.502769 477168 2040.76 535952)
(-50.9322 -5.74169 0.452976 246615 838.095 643876)
(-49.3724 0.102971 0.19255 459671 4649.42 430383)
(-49.8387 -0.0650942 0.353175 380213 5221.61 414927)
(-50.2991 -0.387453 0.389764 396230 5329.54 417629)
(-50.6673 -0.888166 0.38325 421214 4843.88 425644)
(-50.2505 -1.373 0.360161 451206 3881.53 442705)
(-50.6693 -2.27706 0.330571 484157 2585.65 475332)
(-47.7976 -2.99801 0.2967 469657 1166.32 528928)
(-50.9333 -5.82672 0.266824 243053 456.103 635732)
(-49.4338 0.0970145 0.0572982 455360 1580.58 426298)
(-49.8867 -0.0763558 0.10878 376457 1755.65 410944)
(-50.3274 -0.401726 0.120631 392441 1795.4 413966)
(-50.6822 -0.904703 0.118306 417402 1638.6 422338)
(-50.2514 -1.39321 0.110781 447407 1308.72 439663)
(-50.655 -2.30176 0.101125 480365 862.165 472395)
(-47.7635 -3.02867 0.0908683 466115 386.208 525823)
(-50.8748 -5.86505 0.0813886 241377 147.487 632025)
(323101 21738.9 -4.30747 920532 -0.950987 -18.0247)
(271873 -1227.94 -7.17032 634501 -1.04498 -13.5101)
(277654 -3698.97 -8.11935 643733 -0.800553 -9.92506)
(290598 -2118.2 -8.3781 674540 -0.557285 -8.79257)
(303970 -212.191 -8.4141 703084 -0.46221 -8.8699)
(317352 3061.92 -8.44771 722962 -0.507065 -9.88861)
(328124 9688.23 -8.50545 669846 -0.626569 -12.0716)
(345111 13768.3 -9.2086 331627 -0.843231 -13.9764)
(594181 -8492.35 -2.68927 781374 -0.550805 -22.8743)
(503617 -4608.85 -5.02397 601535 -0.732901 -21.8487)
(505345 -3412.93 -5.72343 588186 -0.552217 -20.721)
(527564 -2342.53 -5.87463 597124 -0.297224 -20.4431)
(553702 -1125.95 -5.89596 615641 -0.143086 -20.5107)
(581266 824.221 -5.97498 638455 -0.0682187 -20.925)
(608354 4071.59 -6.2035 610045 -0.0833326 -21.6525)
(674633 6377.18 -7.15826 321317 -0.169287 -22.1594)
(587415 10200.1 -2.77866 771020 -0.375318 -19.8949)
(497224 6301.24 -5.21424 591894 -0.532787 -19.1098)
(498578 4780.26 -5.9811 578422 -0.38481 -18.08)
(520567 3358.69 -6.15646 587270 -0.12496 -17.7926)
(546585 1837.32 -6.16668 605690 0.06522 -17.8801)
(574008 -435.963 -6.20158 628395 0.219472 -18.2738)
(600880 -4158.87 -6.35288 600441 0.309165 -19.0738)
(667445 -6371.31 -7.24131 317020 0.317167 -19.9822)
(319560 -20327.1 -3.20392 889490 -0.292587 -20.4127)
(269645 2000.84 -6.09573 608579 -0.412761 -19.9361)
(274878 4257.59 -7.0606 617309 -0.266813 -19.0893)
(287573 2547.59 -7.29705 647723 0.00274747 -18.9096)
(300872 518.451 -7.30486 675992 0.204242 -19.0444)
(314075 -2918.46 -7.33772 695571 0.397598 -19.3427)
(324315 -9789.82 -7.4046 643431 0.546986 -19.9005)
(341968 -13856.6 -8.30766 319774 0.697793 -20.5706)
(-9.63255 0.902569 1.10061 848241 24502.2 255321)
(-6.12989 0.920815 2.04499 568497 1636.57 209458)
(-3.40375 0.43812 2.30647 577155 -1255.59 214945)
(-2.26017 -0.143312 2.3822 606292 -39.0949 224006)
(-2.12454 -0.443647 2.40421 633440 2148.32 234206)
(-0.982768 -0.879352 2.57549 652860 5954.08 247527)
(-2.12268 -0.852143 2.66979 601213 12515.8 260503)
(6.76868 -3.11249 3.18675 276235 16558.1 276316)
(-15.251 0.352646 -0.157983 639894 -4789.83 494484)
(-14.5214 0.354958 0.0623472 495470 1451.63 427151)
(-13.7661 0.0861148 0.0435796 494014 1373.55 429913)
(-13.2454 -0.276431 0.0323035 508328 1666.32 444879)
(-13.1863 -0.402367 0.0736125 529538 4444.78 465332)
(-11.6131 -0.701158 0.281648 554711 8967.01 493638)
(-11.9066 -0.430107 0.524056 529472 12696.5 528849)
(-2.06881 -2.60922 0.967 260586 12602.2 601282)
(-15.4559 0.189461 0.0452528 532527 7703.55 484834)
(-14.9106 0.143515 0.358106 436183 10038.6 450128)
(-14.2969 -0.0364581 0.446724 444371 8390.12 449093)
(-13.6774 -0.301302 0.486245 460200 7156.11 460256)
(-13.4955 -0.330884 0.537117 482699 8191.53 479518)
(-11.5153 -0.561206 0.688986 512168 10109.7 509138)
(-11.4854 -0.179809 0.834821 495172 9628.97 553520)
(-0.737548 -2.51163 1.05551 247851 6322.02 653543)
(-17.0757 0.0861421 -0.0301156 477245 11295.1 447621)
(-16.8007 0.00572733 0.230686 392763 13207 426011)
(-16.4707 -0.116873 0.320562 406332 12013.6 424650)
(-15.8716 -0.302508 0.359909 426710 10326.8 431926)
(-15.6084 -0.246401 0.401638 452344 9528.12 448447)
(-13.2925 -0.411163 0.510803 483361 8739.8 478315)
(-12.8769 0.0505655 0.607633 467738 6056.45 528052)
(-1.53839 -2.339 0.736923 234781 3037.13 636560)
(-17.3317 0.0690504 0.0662603 447542 10377.8 421766)
(-17.0569 -0.0252589 0.310337 366708 12015.1 404137)
(-16.7376 -0.129334 0.407738 381777 11701.3 403892)
(-16.0684 -0.286918 0.448791 404770 10340.5 409850)
(-15.728 -0.193142 0.478675 432519 8753.35 425135)
(-13.221 -0.334037 0.542396 463987 6725.19 455518)
(-12.6566 0.155793 0.58378 448775 3712.36 507502)
(-0.992583 -2.31224 0.632596 225444 1613.97 616545)
(-17.8107 0.0622998 0.0416816 430897 7986.21 406226)
(-17.5492 -0.0368966 0.215759 351910 9071.06 389746)
(-17.2446 -0.130654 0.289392 367175 9137.74 390575)
(-16.5343 -0.271848 0.319929 391027 8245 396719)
(-16.1364 -0.153003 0.340305 419617 6745.78 411953)
(-13.4849 -0.277744 0.379959 451192 4743.24 442723)
(-12.7895 0.230047 0.402582 436444 2331.38 495130)
(-0.887863 -2.28419 0.427463 219436 938.79 602848)
(-17.9245 0.0643915 0.0422809 421790 4979.4 397509)
(-17.651 -0.035869 0.151109 343873 5554.82 381386)
(-17.3331 -0.125898 0.197639 359063 5659.82 382908)
(-16.588 -0.261376 0.216512 383023 5163.73 389595)
(-16.1543 -0.131515 0.228029 411785 4176.65 405165)
(-13.4247 -0.250464 0.247849 443358 2836.25 436141)
(-12.671 0.263884 0.256926 429010 1343.5 488354)
(-0.632842 -2.28414 0.264317 215847 517.577 594845)
(-18.0406 0.0642427 0.00899137 417732 1687.74 393582)
(-17.7665 -0.0360263 0.0437178 340312 1864.43 377579)
(-17.4447 -0.123656 0.0590545 355431 1904 379428)
(-16.6844 -0.255805 0.0652692 379337 1744.53 386470)
(-16.2304 -0.120341 0.0693394 408083 1407.05 402293)
(-13.4615 -0.235679 0.0759546 439633 946.029 433354)
(-12.6682 0.281796 0.0797224 425500 445.677 485366)
(-0.567263 -2.28114 0.0822307 214153 168.139 591203)
(345482 9.26967 -13701 -13.5714 -0.748146 332144)
(328456 8.58932 -9563.25 -11.4532 -0.528543 670192)
(317900 8.56919 -3036.13 -8.82958 -0.36692 723845)
(305726 8.59325 -303.085 -7.15398 -0.237654 706618)
(295686 8.6746 286.647 -5.86184 -0.173845 685947)
(288630 8.7253 221.836 -4.95266 -0.107248 671610)
(284327 8.76846 90.0844 -4.37613 -0.0656312 663170)
(282324 8.78732 19.6245 -4.09843 -0.0196222 659323)
(674999 7.19657 -6297.66 -21.8262 -0.0564895 321950)
(608875 6.24459 -3861.87 -21.2032 0.0337099 610890)
(582569 6.02107 -661.573 -20.1984 0.0965063 640088)
(557752 5.94441 825.098 -19.4486 0.104419 618501)
(537934 5.9399 933.602 -18.8154 0.0877614 600723)
(524029 5.93508 597.008 -18.3516 0.0677974 589364)
(515511 5.94154 285.459 -18.0479 0.0402942 582566)
(511530 5.94322 80.3662 -17.8888 0.0147609 579354)
(667760 7.27763 6408.22 -19.6628 0.440463 317598)
(601321 6.38295 4274.4 -18.6332 0.437845 601297)
(575166 6.23145 788.821 -17.5585 0.396286 630086)
(550414 6.20288 -806.611 -16.8274 0.319768 608669)
(530596 6.22592 -948.972 -16.1813 0.24843 591036)
(516680 6.23737 -617.673 -15.7488 0.17373 579769)
(508154 6.25257 -299.96 -15.4499 0.103052 573026)
(504170 6.25757 -85.3571 -15.3122 0.0340358 569839)
(342141 8.32156 13855.8 -20.2832 0.822706 320027)
(324488 7.41 9797.78 -19.517 0.677487 643679)
(314485 7.33999 3104.2 -18.753 0.569881 696502)
(302504 7.31967 298.717 -18.2251 0.444036 679741)
(292495 7.36715 -307.789 -17.7011 0.343736 659443)
(285458 7.38909 -240.642 -17.3786 0.23666 645362)
(281169 7.41451 -101.718 -17.1382 0.14193 637087)
(279175 7.42387 -23.4832 -17.029 0.0463119 633320)
)
;
    }
    symmetry
    {
        type            symmetry;
    }
    bottom
    {
        type            calculated;
        value           nonuniform List<symmTensor> 
32
(
(-740535 68891.2 -8548.83 85007.5 65565.9 -756136)
(-505438 47071.4 -6288.93 33030.4 -14695.3 -228575)
(-428375 33138.7 -2551.21 1345.17 -836.497 -134846)
(-393165 27182.1 -762.239 -8440.51 6547.06 -120604)
(-374268 24936.7 -201.143 -12230.3 7797.88 -117597)
(-363426 24031 -73.1674 -14010.8 6579.76 -116254)
(-357263 23603.7 -41.1649 -14744.3 4273.82 -115363)
(-354424 23415.8 -14.8245 -14973.4 1472.76 -114886)
(-236916 -8121.75 -3479.21 73593 59593.9 -549451)
(-91315.4 -11494.1 -1684.76 11612.7 -2418.82 -96972.4)
(-59559.6 -15036.1 -150.43 -14479.5 10775.5 -29723.7)
(-51230 -16097.6 482.429 -20002.9 13437.9 -24873.9)
(-48830 -15962.9 487.461 -22014.3 11264 -25246.9)
(-48304 -15624 312.881 -23526 8230.42 -25791)
(-48205.9 -15390.3 157.11 -24463.4 5018.28 -26177.6)
(-48172.7 -15285.7 46.4761 -24870.9 1688.94 -26370.9)
(-233303 8963.12 3408.69 72974.3 59722.4 -542907)
(-90324.9 11533.2 1984.83 8703.26 -1549.58 -97350)
(-58657.3 14495.6 394.27 -17160.3 11412.4 -30498.6)
(-50338.4 15239.6 -271.603 -22411.1 13884.7 -25519.8)
(-47964.8 14941.8 -319.151 -24220.4 11578.3 -25790.6)
(-47456.5 14518.7 -192.35 -25586.3 8440.42 -26269.2)
(-47367.1 14243.2 -85.0245 -26429.2 5138.91 -26615.7)
(-47337.6 14121.7 -22.5109 -26790.4 1728.28 -26789.7)
(-707277 -67147.2 8579.32 86437 66343.3 -730268)
(-478783 -45584.8 6451.83 28941.7 -12044.8 -221584)
(-402229 -31971.1 2630.47 -1290.31 1106.01 -128512)
(-367387 -26277.8 813.445 -9788.39 7923.66 -113816)
(-348779 -24202.7 242.677 -12648 8763.09 -110484)
(-338097 -23397.3 105.009 -13772.5 7217.99 -108915)
(-332015 -23025.1 61.0909 -14090.7 4637.06 -107878)
(-329211 -22861.8 21.5699 -14119.5 1590.62 -107330)
)
;
    }
}


// ************************************************************************* //
