/*--------------------------------*- C++ -*----------------------------------*\
| =========                 |                                                 |
| \\      /  F ield         | OpenFOAM: The Open Source CFD Toolbox           |
|  \\    /   O peration     | Version:  v1912                                 |
|   \\  /    A nd           | Website:  www.openfoam.com                      |
|    \\/     M anipulation  |                                                 |
\*---------------------------------------------------------------------------*/
FoamFile
{
    version     2.0;
    format      ascii;
    class       volScalarField;
    location    "0.52/solid";
    object      T;
}
// * * * * * * * * * * * * * * * * * * * * * * * * * * * * * * * * * * * * * //

dimensions      [0 0 0 1 0 0 0];


internalField   nonuniform List<scalar> 
256
(
291.599
292.228
292.234
291.628
291.296
292.047
292.054
291.329
291.254
292.023
292.03
291.289
291.222
292.006
292.013
291.257
291.171
291.978
291.985
291.207
291.079
291.922
291.929
291.115
290.835
291.731
291.739
290.872
289.788
290.715
290.73
289.843
292.298
292.85
292.85
292.313
292.132
292.804
292.804
292.148
292.109
292.798
292.799
292.125
292.092
292.795
292.796
292.109
292.064
292.79
292.791
292.081
292.008
292.773
292.774
292.026
291.821
292.651
292.652
291.84
290.834
291.731
291.739
290.872
292.43
292.926
292.926
292.443
292.296
292.903
292.902
292.31
292.277
292.9
292.9
292.291
292.261
292.898
292.898
292.276
292.236
292.895
292.895
292.252
292.184
292.882
292.883
292.201
292.008
292.773
292.774
292.026
291.078
291.922
291.929
291.115
292.471
292.935
292.935
292.484
292.345
292.914
292.914
292.359
292.327
292.911
292.911
292.341
292.312
292.91
292.91
292.326
292.286
292.907
292.907
292.302
292.235
292.895
292.895
292.252
292.063
292.79
292.791
292.081
291.17
291.977
291.985
291.207
292.492
292.937
292.937
292.504
292.37
292.917
292.917
292.383
292.351
292.914
292.914
292.365
292.336
292.913
292.913
292.35
292.311
292.91
292.91
292.326
292.26
292.898
292.898
292.276
292.091
292.795
292.796
292.108
291.219
292.004
292.012
291.256
292.504
292.938
292.938
292.515
292.384
292.918
292.918
292.396
292.365
292.916
292.915
292.378
292.35
292.914
292.914
292.364
292.325
292.911
292.911
292.34
292.275
292.899
292.899
292.29
292.106
292.798
292.798
292.124
291.249
292.02
292.028
291.286
292.51
292.939
292.939
292.522
292.391
292.919
292.919
292.404
292.373
292.916
292.916
292.386
292.358
292.915
292.915
292.371
292.333
292.912
292.912
292.347
292.282
292.9
292.9
292.298
292.115
292.799
292.8
292.133
291.266
292.029
292.037
291.303
292.513
292.939
292.939
292.525
292.395
292.919
292.919
292.407
292.377
292.917
292.917
292.389
292.361
292.915
292.915
292.375
292.336
292.912
292.912
292.351
292.286
292.9
292.901
292.301
292.119
292.8
292.8
292.137
291.273
292.033
292.041
291.31
)
;

boundaryField
{
    interface
    {
        type            fixedValue;
        value           nonuniform List<scalar> 
192
(
290.146
289.94
289.874
289.8
289.689
289.505
289.141
288.151
290.938
290.814
290.764
290.704
290.612
290.455
290.121
289.14
291.225
291.123
291.078
291.022
290.934
290.78
290.453
289.502
291.365
291.269
291.226
291.171
291.084
290.932
290.609
289.683
291.445
291.352
291.309
291.255
291.168
291.017
290.697
289.791
291.492
291.401
291.359
291.304
291.218
291.067
290.75
289.857
291.52
291.429
291.387
291.332
291.246
291.096
290.781
289.895
291.532
291.442
291.4
291.345
291.259
291.109
290.795
289.913
290.071
289.868
289.801
289.726
289.615
289.43
289.063
288.07
290.732
290.6
290.548
290.487
290.396
290.238
289.899
288.895
290.76
290.63
290.579
290.52
290.428
290.271
289.933
288.935
290.169
289.972
289.909
289.838
289.728
289.545
289.18
288.203
290.279
290.082
290.02
289.949
289.84
289.658
289.295
288.321
291.057
290.937
290.89
290.834
290.745
290.591
290.26
289.295
291.34
291.242
291.2
291.147
291.063
290.913
290.591
289.658
291.477
291.385
291.345
291.293
291.21
291.062
290.745
289.84
291.555
291.466
291.426
291.375
291.292
291.146
290.832
289.947
291.601
291.513
291.474
291.423
291.341
291.195
290.885
290.013
291.628
291.541
291.501
291.45
291.368
291.223
290.915
290.051
291.64
291.553
291.514
291.463
291.381
291.236
290.929
290.069
288.069
289.06
289.426
289.608
289.716
289.782
289.821
289.84
288.894
289.897
290.235
290.391
290.48
290.534
290.565
290.579
288.934
289.931
290.268
290.425
290.514
290.567
290.599
290.613
288.202
289.179
289.543
289.726
289.833
289.899
289.938
289.957
)
;
    }
    symmetry
    {
        type            symmetry;
    }
    bottom
    {
        type            fixedValue;
        value           uniform 293;
    }
}


// ************************************************************************* //
