/*--------------------------------*- C++ -*----------------------------------*\
| =========                 |                                                 |
| \\      /  F ield         | OpenFOAM: The Open Source CFD Toolbox           |
|  \\    /   O peration     | Version:  v1912                                 |
|   \\  /    A nd           | Website:  www.openfoam.com                      |
|    \\/     M anipulation  |                                                 |
\*---------------------------------------------------------------------------*/
FoamFile
{
    version     2.0;
    format      ascii;
    class       volVectorField;
    location    "0.52/solid";
    object      U;
}
// * * * * * * * * * * * * * * * * * * * * * * * * * * * * * * * * * * * * * //

dimensions      [0 1 -1 0 0 0 0];


internalField   nonuniform List<vector> 
256
(
(3.14327e-08 3.10127e-08 3.59137e-08)
(6.77981e-09 1.79115e-08 3.22396e-08)
(-7.88378e-09 1.7434e-08 3.1703e-08)
(-3.08665e-08 2.9185e-08 3.42256e-08)
(5.50822e-08 2.27725e-08 7.92872e-08)
(1.37045e-08 1.26018e-08 7.40559e-08)
(-1.5916e-08 1.23617e-08 7.30164e-08)
(-5.50235e-08 2.21779e-08 7.60423e-08)
(5.88232e-08 -1.37698e-10 1.08804e-07)
(1.46675e-08 -4.41122e-09 1.03004e-07)
(-1.81488e-08 -4.23766e-09 1.01693e-07)
(-6.00156e-08 6.34348e-10 1.04725e-07)
(5.70527e-08 -2.45964e-08 1.34042e-07)
(1.3159e-08 -2.69583e-08 1.27236e-07)
(-1.84157e-08 -2.63737e-08 1.25733e-07)
(-6.00007e-08 -2.26315e-08 1.29378e-07)
(5.68073e-08 -5.07532e-08 1.59542e-07)
(1.20372e-08 -5.45823e-08 1.51328e-07)
(-1.96036e-08 -5.36165e-08 1.49663e-07)
(-6.20263e-08 -4.77e-08 1.54383e-07)
(6.32467e-08 -8.22257e-08 1.88216e-07)
(1.34966e-08 -8.83185e-08 1.78571e-07)
(-2.3928e-08 -8.69857e-08 1.76748e-07)
(-7.12843e-08 -7.81202e-08 1.82587e-07)
(8.1297e-08 -1.29473e-07 2.2148e-07)
(1.88818e-08 -1.33169e-07 2.11592e-07)
(-3.28357e-08 -1.31435e-07 2.09596e-07)
(-9.26999e-08 -1.24204e-07 2.15359e-07)
(1.05689e-07 -2.04199e-07 2.51349e-07)
(2.47368e-08 -1.96282e-07 2.43736e-07)
(-4.30718e-08 -1.93875e-07 2.41561e-07)
(-1.20996e-07 -1.96869e-07 2.4475e-07)
(1.782e-08 1.0013e-08 1.31668e-08)
(3.57601e-09 1.49871e-10 1.54757e-08)
(-4.01231e-09 -2.19914e-11 1.52536e-08)
(-1.68631e-08 8.911e-09 1.25006e-08)
(3.22145e-08 -2.40145e-09 4.24652e-08)
(7.71044e-09 -1.02234e-08 4.70024e-08)
(-8.40856e-09 -1.02327e-08 4.63991e-08)
(-3.10839e-08 -2.52157e-09 4.06991e-08)
(3.39909e-08 -2.24195e-08 6.93477e-08)
(8.10342e-09 -2.57349e-08 7.45211e-08)
(-9.49721e-09 -2.54369e-08 7.36666e-08)
(-3.35914e-08 -2.14367e-08 6.68395e-08)
(3.17883e-08 -4.47296e-08 9.35969e-08)
(6.66605e-09 -4.67052e-08 9.86292e-08)
(-9.39979e-09 -4.60558e-08 9.75984e-08)
(-3.27356e-08 -4.26884e-08 9.05491e-08)
(3.1019e-08 -6.9253e-08 1.17331e-07)
(5.6005e-09 -7.29067e-08 1.21924e-07)
(-1.02872e-08 -7.19063e-08 1.20743e-07)
(-3.38904e-08 -6.6189e-08 1.13819e-07)
(3.68134e-08 -9.72023e-08 1.41812e-07)
(7.04084e-09 -1.03352e-07 1.4595e-07)
(-1.42811e-08 -1.02007e-07 1.44624e-07)
(-4.21875e-08 -9.31364e-08 1.37857e-07)
(5.4904e-08 -1.3454e-07 1.64789e-07)
(1.25056e-08 -1.3813e-07 1.6875e-07)
(-2.2983e-08 -1.3643e-07 1.6729e-07)
(-6.33358e-08 -1.29414e-07 1.60422e-07)
(8.09635e-08 -1.91154e-07 1.76617e-07)
(1.85447e-08 -1.8095e-07 1.80668e-07)
(-3.31419e-08 -1.78685e-07 1.79144e-07)
(-9.29854e-08 -1.84204e-07 1.72034e-07)
(8.13307e-09 2.34998e-09 6.54903e-09)
(7.67944e-10 -4.57582e-09 9.92038e-09)
(-9.27766e-10 -4.70651e-09 9.76692e-09)
(-6.97475e-09 1.2707e-09 6.11301e-09)
(1.5091e-08 -1.48759e-08 2.72988e-08)
(2.17086e-09 -2.04404e-08 3.35786e-08)
(-2.0768e-09 -2.04175e-08 3.31547e-08)
(-1.32962e-08 -1.50381e-08 2.61009e-08)
(1.52993e-08 -3.56504e-08 5.03042e-08)
(1.94849e-09 -3.81091e-08 5.74084e-08)
(-2.0853e-09 -3.78136e-08 5.67785e-08)
(-1.37957e-08 -3.47915e-08 4.85041e-08)
(1.30696e-08 -5.66466e-08 7.26286e-08)
(5.9734e-10 -5.84772e-08 7.97694e-08)
(-1.67231e-09 -5.78616e-08 7.89802e-08)
(-1.25264e-08 -5.47941e-08 7.03437e-08)
(1.2335e-08 -7.80429e-08 9.38512e-08)
(-3.61416e-10 -8.17857e-08 1.00808e-07)
(-2.32363e-09 -8.08418e-08 9.98808e-08)
(-1.33775e-08 -7.5213e-08 9.1141e-08)
(1.81135e-08 -1.00228e-07 1.13194e-07)
(1.10947e-09 -1.06529e-07 1.19951e-07)
(-6.0529e-09 -1.05262e-07 1.18898e-07)
(-2.13548e-08 -9.64415e-08 1.10093e-07)
(3.62916e-08 -1.28431e-07 1.27176e-07)
(6.60677e-09 -1.32175e-07 1.33776e-07)
(-1.45294e-08 -1.30581e-07 1.32625e-07)
(-4.23084e-08 -1.23645e-07 1.23755e-07)
(6.23905e-08 -1.74733e-07 1.29363e-07)
(1.27015e-08 -1.64743e-07 1.35889e-07)
(-2.45074e-08 -1.62611e-07 1.34717e-07)
(-7.173e-08 -1.68162e-07 1.25834e-07)
(4.11662e-09 -3.38898e-10 5.43392e-09)
(-3.82048e-10 -5.50121e-09 7.64784e-09)
(3.45641e-10 -5.64843e-09 7.53282e-09)
(-2.83189e-09 -1.51004e-09 5.11482e-09)
(7.75012e-09 -1.96405e-08 2.15005e-08)
(-2.49466e-10 -2.38516e-08 2.55857e-08)
(7.71109e-10 -2.38745e-08 2.52783e-08)
(-5.5321e-09 -2.00007e-08 2.06456e-08)
(7.3668e-09 -4.13014e-08 4.01078e-08)
(-7.07484e-10 -4.32945e-08 4.46735e-08)
(1.3362e-09 -4.30629e-08 4.42109e-08)
(-5.11267e-09 -4.0691e-08 3.8801e-08)
(5.5058e-09 -6.14225e-08 5.88565e-08)
(-1.85001e-09 -6.32762e-08 6.33668e-08)
(1.8716e-09 -6.27389e-08 6.27738e-08)
(-3.88909e-09 -5.98507e-08 5.71545e-08)
(5.28058e-09 -8.00207e-08 7.62433e-08)
(-2.55304e-09 -8.39295e-08 8.0553e-08)
(1.26608e-09 -8.30762e-08 7.98441e-08)
(-4.95022e-09 -7.74957e-08 7.41831e-08)
(1.14338e-08 -9.77884e-08 9.05276e-08)
(-9.27209e-10 -1.04261e-07 9.46522e-08)
(-2.35274e-09 -1.03096e-07 9.38413e-08)
(-1.30305e-08 -9.43275e-08 8.81462e-08)
(2.95318e-08 -1.20965e-07 9.88295e-08)
(4.54097e-09 -1.25105e-07 1.02858e-07)
(-1.05691e-08 -1.23619e-07 1.01974e-07)
(-3.3658e-08 -1.16511e-07 9.6202e-08)
(5.49391e-08 -1.63149e-07 9.80827e-08)
(1.05409e-08 -1.54483e-07 1.02249e-07)
(-2.02464e-08 -1.52453e-07 1.01357e-07)
(-6.21639e-08 -1.5688e-07 9.53849e-08)
(2.92488e-09 -1.276e-09 4.76644e-09)
(-5.90466e-10 -5.6299e-09 5.86415e-09)
(6.19049e-10 -5.79556e-09 5.78115e-09)
(-1.55975e-09 -2.5239e-09 4.5391e-09)
(5.6934e-09 -2.08935e-08 1.7222e-08)
(-7.17183e-10 -2.45318e-08 1.91755e-08)
(1.49042e-09 -2.46086e-08 1.89573e-08)
(-3.20742e-09 -2.14415e-08 1.66217e-08)
(5.3881e-09 -4.25653e-08 3.14125e-08)
(-1.11143e-09 -4.44382e-08 3.35066e-08)
(2.22487e-09 -4.42795e-08 3.3177e-08)
(-2.6397e-09 -4.21986e-08 3.04902e-08)
(4.01792e-09 -6.18751e-08 4.57881e-08)
(-2.00378e-09 -6.3858e-08 4.77444e-08)
(2.7604e-09 -6.34037e-08 4.73168e-08)
(-1.66195e-09 -6.05737e-08 4.45698e-08)
(4.35405e-09 -7.86272e-08 5.8822e-08)
(-2.4359e-09 -8.27141e-08 6.0574e-08)
(2.12676e-09 -8.19498e-08 6.0057e-08)
(-3.04319e-09 -7.63853e-08 5.7327e-08)
(1.08645e-08 -9.40019e-08 6.88127e-08)
(-6.48496e-10 -1.00624e-07 7.0409e-08)
(-1.43227e-09 -9.95506e-08 6.98137e-08)
(-1.12563e-08 -9.08272e-08 6.70703e-08)
(2.8776e-08 -1.15096e-07 7.38552e-08)
(4.76803e-09 -1.19586e-07 7.5419e-08)
(-9.40201e-09 -1.18189e-07 7.47697e-08)
(-3.14941e-08 -1.10915e-07 7.19269e-08)
(5.3495e-08 -1.55629e-07 7.26985e-08)
(1.06595e-08 -1.48131e-07 7.44612e-08)
(-1.88005e-08 -1.46178e-07 7.38066e-08)
(-5.91296e-08 -1.49594e-07 7.0719e-08)
(2.68145e-09 -1.56055e-09 3.72789e-09)
(-5.18633e-10 -5.59047e-09 4.20783e-09)
(5.83428e-10 -5.76938e-09 4.15222e-09)
(-1.26657e-09 -2.86099e-09 3.57687e-09)
(5.4635e-09 -2.08006e-08 1.27036e-08)
(-5.49124e-10 -2.42741e-08 1.34884e-08)
(1.47381e-09 -2.43926e-08 1.33429e-08)
(-2.81068e-09 -2.14867e-08 1.23064e-08)
(5.4588e-09 -4.19684e-08 2.26394e-08)
(-7.82287e-10 -4.38915e-08 2.33989e-08)
(2.20079e-09 -4.37919e-08 2.31788e-08)
(-2.39453e-09 -4.17905e-08 2.20278e-08)
(4.51639e-09 -6.054e-08 3.26044e-08)
(-1.46075e-09 -6.26759e-08 3.32181e-08)
(2.69753e-09 -6.22893e-08 3.29306e-08)
(-1.67312e-09 -5.94522e-08 3.17902e-08)
(5.27296e-09 -7.62582e-08 4.14706e-08)
(-1.68695e-09 -8.04917e-08 4.19237e-08)
(2.03651e-09 -7.97986e-08 4.15736e-08)
(-3.29762e-09 -7.42387e-08 4.04628e-08)
(1.20118e-08 -9.06047e-08 4.8003e-08)
(2.15675e-10 -9.73252e-08 4.83521e-08)
(-1.46928e-09 -9.63226e-08 4.79471e-08)
(-1.15694e-08 -8.76495e-08 4.68206e-08)
(2.97394e-08 -1.11e-07 5.10677e-08)
(5.5887e-09 -1.15699e-07 5.14207e-08)
(-9.2447e-09 -1.14368e-07 5.09779e-08)
(-3.14681e-08 -1.07024e-07 4.97546e-08)
(5.39491e-08 -1.50751e-07 5.01548e-08)
(1.14015e-08 -1.43978e-07 5.06673e-08)
(-1.8434e-08 -1.42082e-07 5.0221e-08)
(-5.84564e-08 -1.4489e-07 4.88059e-08)
(2.66169e-09 -1.6058e-09 2.36178e-09)
(-4.32381e-10 -5.51068e-09 2.55576e-09)
(5.16421e-10 -5.69804e-09 2.52393e-09)
(-1.21804e-09 -2.93908e-09 2.27579e-09)
(5.59979e-09 -2.03704e-08 7.78929e-09)
(-3.37883e-10 -2.38259e-08 8.06943e-09)
(1.34875e-09 -2.39713e-08 7.98617e-09)
(-2.84955e-09 -2.11444e-08 7.56316e-09)
(5.85327e-09 -4.09911e-08 1.36577e-08)
(-4.37125e-10 -4.2998e-08 1.38817e-08)
(2.03474e-09 -4.29377e-08 1.37556e-08)
(-2.60134e-09 -4.09368e-08 1.33087e-08)
(5.19967e-09 -5.90143e-08 1.94711e-08)
(-9.71846e-10 -6.127e-08 1.95938e-08)
(2.49754e-09 -6.09291e-08 1.94285e-08)
(-2.06116e-09 -5.80692e-08 1.90047e-08)
(6.21249e-09 -7.42116e-08 2.45754e-08)
(-1.07008e-09 -7.85422e-08 2.46008e-08)
(1.82442e-09 -7.78972e-08 2.43986e-08)
(-3.82703e-09 -7.23414e-08 2.3995e-08)
(1.30734e-08 -8.81886e-08 2.82623e-08)
(9.00736e-10 -9.49612e-08 2.82322e-08)
(-1.63726e-09 -9.40059e-08 2.79974e-08)
(-1.21082e-08 -8.53799e-08 2.75782e-08)
(3.06697e-08 -1.08398e-07 2.99376e-08)
(6.24662e-09 -1.13192e-07 2.99204e-08)
(-9.28357e-09 -1.11905e-07 2.96632e-08)
(-3.17716e-08 -1.04556e-07 2.91758e-08)
(5.45534e-08 -1.47753e-07 2.93856e-08)
(1.20106e-08 -1.41354e-07 2.94638e-08)
(-1.8336e-08 -1.39496e-07 2.92046e-08)
(-5.83415e-08 -1.42005e-07 2.86025e-08)
(2.66889e-09 -1.59251e-09 8.07297e-10)
(-3.88974e-10 -5.45302e-09 8.59674e-10)
(4.81306e-10 -5.6445e-09 8.49321e-10)
(-1.21204e-09 -2.94158e-09 7.79382e-10)
(5.69746e-09 -2.00645e-08 2.62367e-09)
(-2.28772e-10 -2.35298e-08 2.69212e-09)
(1.27869e-09 -2.36884e-08 2.66504e-09)
(-2.90222e-09 -2.08809e-08 2.55028e-09)
(6.08318e-09 -4.03609e-08 4.56299e-09)
(-2.59817e-10 -4.242e-08 4.60745e-09)
(1.94026e-09 -4.2379e-08 4.56637e-09)
(-2.74367e-09 -4.03671e-08 4.44963e-09)
(5.56949e-09 -5.80977e-08 6.46974e-09)
(-7.24869e-10 -6.04161e-08 6.4788e-09)
(2.38614e-09 -6.0098e-08 6.42488e-09)
(-2.29169e-09 -5.72233e-08 6.31789e-09)
(6.70032e-09 -7.30797e-08 8.13255e-09)
(-7.63292e-10 -7.74573e-08 8.10961e-09)
(1.70993e-09 -7.68363e-08 8.04352e-09)
(-4.11934e-09 -7.12839e-08 7.94316e-09)
(1.3613e-08 -8.69484e-08 9.32408e-09)
(1.23871e-09 -9.37419e-08 9.28405e-09)
(-1.72705e-09 -9.28102e-08 9.20717e-09)
(-1.23963e-08 -8.42126e-08 9.10035e-09)
(3.11432e-08 -1.07123e-07 9.85934e-09)
(6.57217e-09 -1.11952e-07 9.82525e-09)
(-9.30972e-09 -1.10686e-07 9.74095e-09)
(-3.19415e-08 -1.03348e-07 9.60981e-09)
(5.48682e-08 -1.4631e-07 9.67604e-09)
(1.23126e-08 -1.40063e-07 9.67319e-09)
(-1.82944e-08 -1.38224e-07 9.58823e-09)
(-5.83063e-08 -1.40619e-07 9.41941e-09)
)
;

boundaryField
{
    interface
    {
        type            calculated;
        value           nonuniform List<vector> 
192
(
(3.4016e-08 5.26414e-08 3.19893e-08)
(5.68503e-08 2.962e-08 7.25374e-08)
(6.07325e-08 3.54811e-10 1.01493e-07)
(5.93497e-08 -2.51005e-08 1.26755e-07)
(5.90947e-08 -4.92048e-08 1.52315e-07)
(6.46266e-08 -7.61033e-08 1.81013e-07)
(8.13125e-08 -1.18863e-07 2.14331e-07)
(1.10416e-07 -1.97388e-07 2.44376e-07)
(1.48365e-08 2.25216e-08 7.34203e-09)
(2.87381e-08 1.64117e-09 3.24677e-08)
(3.02672e-08 -2.25261e-08 5.84669e-08)
(2.79191e-08 -4.54727e-08 8.26012e-08)
(2.67049e-08 -6.79968e-08 1.06213e-07)
(3.13073e-08 -9.12312e-08 1.30529e-07)
(4.81273e-08 -1.23502e-07 1.53537e-07)
(8.1054e-08 -1.84168e-07 1.65793e-07)
(4.01201e-09 8.15597e-09 3.12333e-09)
(1.14983e-08 -1.30844e-08 2.11829e-08)
(1.16221e-08 -3.61558e-08 4.36483e-08)
(9.27246e-09 -5.73878e-08 6.60581e-08)
(8.24691e-09 -7.67821e-08 8.74167e-08)
(1.32471e-08 -9.42385e-08 1.06849e-07)
(3.08655e-08 -1.17362e-07 1.20833e-07)
(6.39583e-08 -1.67699e-07 1.22857e-07)
(-3.94554e-10 2.62777e-09 4.13197e-09)
(4.28508e-09 -1.88281e-08 1.91512e-08)
(3.96304e-09 -4.18626e-08 3.76301e-08)
(2.0752e-09 -6.19442e-08 5.65936e-08)
(1.72014e-09 -7.85389e-08 7.42481e-08)
(7.39849e-09 -9.17257e-08 8.87154e-08)
(2.53897e-08 -1.10088e-07 9.69507e-08)
(5.7599e-08 -1.56125e-07 9.58588e-08)
(-1.83152e-09 8.78552e-10 4.40772e-09)
(2.09792e-09 -2.02778e-08 1.66505e-08)
(1.93801e-09 -4.29843e-08 3.09355e-08)
(6.31176e-10 -6.21338e-08 4.55408e-08)
(9.62698e-10 -7.69157e-08 5.88201e-08)
(7.18321e-09 -8.78966e-08 6.89573e-08)
(2.52234e-08 -1.04438e-07 7.39071e-08)
(5.64999e-08 -1.48639e-07 7.2451e-08)
(-2.16295e-09 4.75671e-10 3.66215e-09)
(1.78659e-09 -2.01064e-08 1.26802e-08)
(1.97606e-09 -4.22053e-08 2.27558e-08)
(1.16673e-09 -6.05866e-08 3.28999e-08)
(2.00755e-09 -7.43845e-08 4.19352e-08)
(8.56662e-09 -8.44882e-08 4.85553e-08)
(2.65417e-08 -1.00516e-07 5.15412e-08)
(5.71007e-08 -1.43811e-07 5.04195e-08)
(-2.18826e-09 4.59557e-10 2.35867e-09)
(1.9084e-09 -1.95726e-08 7.84782e-09)
(2.38433e-09 -4.10912e-08 1.38138e-08)
(1.90911e-09 -5.89246e-08 1.97344e-08)
(3.06124e-09 -7.22433e-08 2.49322e-08)
(9.80329e-09 -8.20745e-08 2.86626e-08)
(2.77052e-08 -9.80279e-08 3.02886e-08)
(5.77986e-08 -1.40858e-07 2.96154e-08)
(-2.16856e-09 4.99067e-10 8.09107e-10)
(2.01271e-09 -1.9211e-08 2.6481e-09)
(2.63401e-09 -4.0393e-08 4.62048e-09)
(2.32059e-09 -5.79436e-08 6.56221e-09)
(3.61665e-09 -7.1069e-08 8.25452e-09)
(1.04374e-08 -8.08379e-08 9.45899e-09)
(2.82971e-08 -9.68092e-08 9.97772e-09)
(5.81635e-08 -1.39443e-07 9.75473e-09)
(3.24758e-08 5.98129e-08 3.40613e-08)
(5.71486e-08 4.0995e-08 7.60464e-08)
(6.10279e-08 1.35512e-08 1.05697e-07)
(5.89941e-08 -1.19117e-08 1.3147e-07)
(5.83669e-08 -3.72097e-08 1.57027e-07)
(6.44368e-08 -6.6741e-08 1.84587e-07)
(8.23995e-08 -1.1369e-07 2.15869e-07)
(1.07273e-07 -1.96417e-07 2.49491e-07)
(5.72663e-09 4.44854e-08 2.65658e-08)
(1.2136e-08 3.02931e-08 6.61158e-08)
(1.28893e-08 8.88395e-09 9.42335e-08)
(1.10813e-08 -1.48772e-08 1.18148e-07)
(9.56689e-09 -4.17484e-08 1.41528e-07)
(1.06291e-08 -7.32525e-08 1.66902e-07)
(1.59104e-08 -1.16877e-07 1.97604e-07)
(2.22896e-08 -1.88122e-07 2.36183e-07)
(-7.38788e-09 4.36139e-08 2.526e-08)
(-1.54202e-08 2.98594e-08 6.44549e-08)
(-1.77193e-08 8.9418e-09 9.22809e-08)
(-1.78808e-08 -1.43811e-08 1.15966e-07)
(-1.88406e-08 -4.08628e-08 1.39151e-07)
(-2.29244e-08 -7.20023e-08 1.64338e-07)
(-3.18945e-08 -1.15232e-07 1.94836e-07)
(-4.28187e-08 -1.85752e-07 2.33147e-07)
(-3.23609e-08 5.67521e-08 2.99783e-08)
(-5.80067e-08 3.9803e-08 7.07182e-08)
(-6.34106e-08 1.39685e-08 9.94416e-08)
(-6.33316e-08 -1.0217e-08 1.24521e-07)
(-6.51436e-08 -3.43976e-08 1.495e-07)
(-7.41885e-08 -6.28762e-08 1.76522e-07)
(-9.56741e-08 -1.08664e-07 2.07262e-07)
(-1.24602e-07 -1.89182e-07 2.40294e-07)
(-2.7851e-08 5.06575e-08 2.99771e-08)
(-5.11746e-08 2.94653e-08 6.85651e-08)
(-5.61787e-08 1.87889e-09 9.64212e-08)
(-5.639e-08 -2.21286e-08 1.20896e-07)
(-5.82418e-08 -4.48788e-08 1.4579e-07)
(-6.64015e-08 -7.04515e-08 1.73861e-07)
(-8.6113e-08 -1.11776e-07 2.0653e-07)
(-1.18215e-07 -1.87935e-07 2.35943e-07)
(-8.90712e-09 2.08977e-08 6.5275e-09)
(-2.27477e-08 1.66062e-09 3.02669e-08)
(-2.49348e-08 -2.10236e-08 5.52841e-08)
(-2.38062e-08 -4.26135e-08 7.86801e-08)
(-2.43723e-08 -6.38258e-08 1.01657e-07)
(-3.13064e-08 -8.57747e-08 1.25375e-07)
(-5.08719e-08 -1.16714e-07 1.47824e-07)
(-8.64179e-08 -1.7524e-07 1.59718e-07)
(1.88791e-09 6.33845e-09 2.60497e-09)
(-5.0917e-09 -1.33328e-08 1.97126e-08)
(-5.4447e-09 -3.49838e-08 4.1384e-08)
(-3.93769e-09 -5.48984e-08 6.31317e-08)
(-4.35162e-09 -7.30056e-08 8.39055e-08)
(-1.13664e-08 -8.92084e-08 1.02803e-07)
(-3.14357e-08 -1.11051e-07 1.16335e-07)
(-6.6903e-08 -1.59279e-07 1.18128e-07)
(6.32067e-09 5.80958e-10 3.7609e-09)
(2.43452e-09 -1.94304e-08 1.81231e-08)
(2.84538e-09 -4.11016e-08 3.60117e-08)
(4.20932e-09 -5.98911e-08 5.44381e-08)
(3.4293e-09 -7.521e-08 7.15993e-08)
(-3.9801e-09 -8.71501e-08 8.56213e-08)
(-2.41542e-08 -1.04227e-07 9.34983e-08)
(-5.85238e-08 -1.48115e-07 9.22346e-08)
(7.77891e-09 -1.3321e-09 4.14762e-09)
(4.82299e-09 -2.11714e-08 1.59411e-08)
(5.2921e-09 -4.25849e-08 2.98104e-08)
(6.3184e-09 -6.04726e-08 4.40156e-08)
(5.09821e-09 -7.39864e-08 5.69137e-08)
(-2.61397e-09 -8.3714e-08 6.67048e-08)
(-2.26239e-08 -9.89463e-08 7.13793e-08)
(-5.58832e-08 -1.4095e-07 6.9792e-08)
(8.12654e-09 -1.84167e-09 3.49135e-09)
(5.2621e-09 -2.12047e-08 1.22168e-08)
(5.52824e-09 -4.20747e-08 2.2018e-08)
(6.22862e-09 -5.92262e-08 3.18899e-08)
(4.68009e-09 -7.17643e-08 4.06586e-08)
(-3.19339e-09 -8.06063e-08 4.70334e-08)
(-2.29756e-08 -9.53015e-08 4.98239e-08)
(-5.53823e-08 -1.3636e-07 4.86088e-08)
(8.16596e-09 -1.92218e-09 2.2621e-09)
(5.21704e-09 -2.07985e-08 7.58595e-09)
(5.28549e-09 -4.11338e-08 1.33959e-08)
(5.76007e-09 -5.77626e-08 1.91593e-08)
(4.01767e-09 -6.98293e-08 2.42004e-08)
(-3.92215e-09 -7.83932e-08 2.77849e-08)
(-2.3523e-08 -9.29974e-08 2.92941e-08)
(-5.53737e-08 -1.33565e-07 2.85649e-08)
(8.15272e-09 -1.91302e-09 7.77864e-10)
(5.14905e-09 -2.04979e-08 2.56342e-09)
(5.11393e-09 -4.05195e-08 4.48518e-09)
(5.47885e-09 -5.68791e-08 6.3755e-09)
(3.65016e-09 -6.87574e-08 8.01622e-09)
(-4.3107e-09 -7.72565e-08 9.17236e-09)
(-2.38155e-08 -9.18704e-08 9.65227e-09)
(-5.53937e-08 -1.32228e-07 9.41062e-09)
(1.07116e-07 -2.02434e-07 2.51978e-07)
(8.19053e-08 -1.85692e-07 1.69251e-07)
(6.34101e-08 -1.71364e-07 1.22362e-07)
(5.62846e-08 -1.61124e-07 9.33066e-08)
(5.51149e-08 -1.53989e-07 6.95989e-08)
(5.57257e-08 -1.49226e-07 4.81858e-08)
(5.64005e-08 -1.4629e-07 2.82752e-08)
(5.67397e-08 -1.44883e-07 9.31532e-09)
(2.21555e-08 -1.88817e-07 2.43983e-07)
(1.54272e-08 -1.67111e-07 1.72784e-07)
(9.67046e-09 -1.53332e-07 1.29272e-07)
(7.86625e-09 -1.45131e-07 9.80963e-08)
(8.29623e-09 -1.39757e-07 7.18348e-08)
(9.23382e-09 -1.36096e-07 4.89731e-08)
(9.94588e-09 -1.33732e-07 2.84851e-08)
(1.02906e-08 -1.32559e-07 9.35059e-09)
(-4.29254e-08 -1.85535e-07 2.41825e-07)
(-3.23288e-08 -1.64049e-07 1.71328e-07)
(-2.36532e-08 -1.50419e-07 1.28159e-07)
(-1.96479e-08 -1.42329e-07 9.72483e-08)
(-1.84353e-08 -1.37036e-07 7.1214e-08)
(-1.82067e-08 -1.33432e-07 4.85506e-08)
(-1.81738e-08 -1.31106e-07 2.824e-08)
(-1.81562e-08 -1.29951e-07 9.27029e-09)
(-1.24715e-07 -1.92464e-07 2.45427e-07)
(-9.60884e-08 -1.76182e-07 1.64858e-07)
(-7.47845e-08 -1.62234e-07 1.19003e-07)
(-6.54406e-08 -1.52301e-07 9.07429e-08)
(-6.25983e-08 -1.45398e-07 6.77214e-08)
(-6.20203e-08 -1.408e-07 4.69086e-08)
(-6.1935e-08 -1.37971e-07 2.75348e-08)
(-6.19039e-08 -1.36617e-07 9.07284e-09)
)
;
    }
    symmetry
    {
        type            symmetry;
    }
    bottom
    {
        type            calculated;
        value           uniform (0 0 0);
    }
}


// ************************************************************************* //
