/*--------------------------------*- C++ -*----------------------------------*\
| =========                 |                                                 |
| \\      /  F ield         | OpenFOAM: The Open Source CFD Toolbox           |
|  \\    /   O peration     | Version:  v1912                                 |
|   \\  /    A nd           | Website:  www.openfoam.com                      |
|    \\/     M anipulation  |                                                 |
\*---------------------------------------------------------------------------*/
FoamFile
{
    version     2.0;
    format      ascii;
    class       volVectorField;
    location    "0.42/solid";
    object      D;
}
// * * * * * * * * * * * * * * * * * * * * * * * * * * * * * * * * * * * * * //

dimensions      [0 1 0 0 0 0 0];


internalField   nonuniform List<vector> 
256
(
(1.83296e-08 3.00516e-08 1.94043e-08)
(1.5288e-09 1.74709e-08 1.76342e-08)
(-9.74984e-10 1.72873e-08 1.77288e-08)
(-1.74805e-08 2.92104e-08 1.97769e-08)
(2.86862e-08 2.36542e-08 3.40809e-08)
(5.04887e-09 1.67031e-08 3.18441e-08)
(-2.93419e-09 1.62484e-08 3.21558e-08)
(-2.61944e-08 2.20621e-08 3.51264e-08)
(2.99716e-08 1.5234e-08 4.03446e-08)
(6.22255e-09 1.25566e-08 3.80173e-08)
(-2.22444e-09 1.1854e-08 3.84967e-08)
(-2.56147e-08 1.29666e-08 4.18835e-08)
(2.99748e-08 8.9907e-09 4.45723e-08)
(6.70464e-09 7.51142e-09 4.21416e-08)
(-5.38835e-10 6.5863e-09 4.27415e-08)
(-2.34609e-08 6.09939e-09 4.64679e-08)
(3.09171e-08 3.89159e-09 4.86744e-08)
(7.57339e-09 2.05186e-09 4.61714e-08)
(1.04105e-09 9.18375e-10 4.6863e-08)
(-2.19544e-08 4.13233e-10 5.0844e-08)
(3.35645e-08 -1.06412e-09 5.35223e-08)
(9.21987e-09 -3.72724e-09 5.0976e-08)
(2.12365e-09 -5.06701e-09 5.17437e-08)
(-2.18804e-08 -5.11726e-09 5.59199e-08)
(3.89194e-08 -9.19708e-09 5.99517e-08)
(1.18922e-08 -1.16574e-08 5.74628e-08)
(2.45214e-09 -1.31995e-08 5.82989e-08)
(-2.42862e-08 -1.3825e-08 6.25502e-08)
(4.71652e-08 -4.17269e-08 6.78277e-08)
(1.48551e-08 -4.02785e-08 6.56732e-08)
(2.68634e-09 -4.18729e-08 6.65616e-08)
(-2.94243e-08 -4.66139e-08 7.05731e-08)
(1.37575e-08 1.47885e-08 1.92933e-09)
(7.09758e-10 4.28185e-09 2.6252e-09)
(-3.92144e-10 4.10487e-09 2.77234e-09)
(-1.30807e-08 1.40098e-08 2.36107e-09)
(2.17363e-08 1.26198e-08 1.04086e-08)
(3.38806e-09 6.64698e-09 1.17502e-08)
(-1.87287e-09 6.15616e-09 1.21012e-08)
(-1.97737e-08 1.09987e-08 1.14301e-08)
(2.25532e-08 8.3206e-09 1.67001e-08)
(4.30751e-09 5.90493e-09 1.82947e-08)
(-1.19944e-09 5.1638e-09 1.8794e-08)
(-1.90191e-08 6.01195e-09 1.81554e-08)
(2.2388e-08 4.01172e-09 2.10009e-08)
(4.69618e-09 2.59979e-09 2.26878e-08)
(3.46571e-10 1.64598e-09 2.32979e-08)
(-1.6925e-08 1.09293e-09 2.27862e-08)
(2.32035e-08 -2.8368e-10 2.46799e-08)
(5.48963e-09 -2.09534e-09 2.64046e-08)
(1.81396e-09 -3.24839e-09 2.7102e-08)
(-1.54703e-08 -3.77604e-09 2.67267e-08)
(2.57894e-08 -4.70516e-09 2.85634e-08)
(7.07656e-09 -7.36119e-09 3.03033e-08)
(2.80223e-09 -8.71241e-09 3.10729e-08)
(-1.54782e-08 -8.75914e-09 3.0826e-08)
(3.12069e-08 -1.12688e-08 3.26873e-08)
(9.71557e-09 -1.37133e-08 3.44437e-08)
(3.03848e-09 -1.52532e-08 3.52688e-08)
(-1.8066e-08 -1.58699e-08 3.51181e-08)
(3.9693e-08 -3.84773e-08 3.5286e-08)
(1.26556e-08 -3.67223e-08 3.70742e-08)
(3.20249e-09 -3.82851e-08 3.79201e-08)
(-2.35487e-08 -4.32706e-08 3.77878e-08)
(1.08366e-08 1.04226e-08 8.58964e-10)
(1.08046e-11 1.28497e-09 1.71069e-09)
(1.52914e-10 1.12737e-09 1.81907e-09)
(-1.03155e-08 9.75376e-09 1.16787e-09)
(1.72643e-08 6.90101e-09 6.19383e-09)
(1.926e-09 1.72307e-09 7.81552e-09)
(-8.5243e-10 1.25963e-09 8.08295e-09)
(-1.57322e-08 5.42017e-09 6.9564e-09)
(1.78613e-08 3.15259e-09 1.16977e-08)
(2.62129e-09 9.94531e-10 1.35936e-08)
(-2.05858e-10 2.81035e-10 1.39793e-08)
(-1.50018e-08 9.76437e-10 1.28066e-08)
(1.76489e-08 -1.70889e-10 1.61321e-08)
(2.93353e-09 -1.51904e-09 1.81289e-08)
(1.20462e-09 -2.44538e-09 1.86076e-08)
(-1.30675e-08 -2.96809e-09 1.75197e-08)
(1.84077e-08 -3.48169e-09 1.98113e-08)
(3.66198e-09 -5.27851e-09 2.18547e-08)
(2.56143e-09 -6.40331e-09 2.241e-08)
(-1.1726e-08 -6.8603e-09 2.143e-08)
(2.09936e-08 -6.78236e-09 2.31502e-08)
(5.2005e-09 -9.43956e-09 2.52132e-08)
(3.45462e-09 -1.07598e-08 2.58313e-08)
(-1.18715e-08 -1.07242e-08 2.49592e-08)
(2.65092e-08 -1.17995e-08 2.5945e-08)
(7.81989e-09 -1.42468e-08 2.80121e-08)
(3.59404e-09 -1.57498e-08 2.86735e-08)
(-1.46692e-08 -1.62805e-08 2.7891e-08)
(3.50827e-08 -3.66381e-08 2.7113e-08)
(1.07444e-08 -3.48624e-08 2.91936e-08)
(3.67612e-09 -3.63804e-08 2.98628e-08)
(-2.03347e-08 -4.12966e-08 2.90973e-08)
(9.46418e-09 9.1631e-09 1.03335e-09)
(-2.80496e-10 7.82724e-10 1.55371e-09)
(3.57924e-10 6.4145e-10 1.63064e-09)
(-9.0624e-09 8.58159e-09 1.25305e-09)
(1.51062e-08 4.54715e-09 4.83383e-09)
(1.23627e-09 -1.6863e-10 5.85496e-09)
(-4.51561e-10 -5.91922e-10 6.04973e-09)
(-1.38973e-08 3.22033e-09 5.38892e-09)
(1.56501e-08 2.41363e-10 9.15897e-09)
(1.80411e-09 -1.74953e-09 1.03658e-08)
(1.22769e-10 -2.41475e-09 1.06507e-08)
(-1.33047e-08 -1.76486e-09 9.97843e-09)
(1.54793e-08 -2.97221e-09 1.30869e-08)
(2.07314e-09 -4.27317e-09 1.43588e-08)
(1.39702e-09 -5.15089e-09 1.47174e-08)
(-1.15857e-08 -5.60462e-09 1.41283e-08)
(1.62412e-08 -5.72562e-09 1.64085e-08)
(2.75908e-09 -7.50833e-09 1.77105e-08)
(2.6425e-09 -8.58612e-09 1.81317e-08)
(-1.03975e-08 -8.95012e-09 1.76405e-08)
(1.88332e-08 -8.24255e-09 1.91625e-08)
(4.2582e-09 -1.08965e-08 2.04794e-08)
(3.44685e-09 -1.2171e-08 2.0952e-08)
(-1.06741e-08 -1.20399e-08 2.05526e-08)
(2.43827e-08 -1.24849e-08 2.12076e-08)
(6.84858e-09 -1.49456e-08 2.25311e-08)
(3.50871e-09 -1.64039e-08 2.30375e-08)
(-1.36082e-08 -1.68295e-08 2.2708e-08)
(3.29533e-08 -3.63034e-08 2.21685e-08)
(9.74825e-09 -3.46045e-08 2.35151e-08)
(3.52347e-09 -3.60812e-08 2.40249e-08)
(-1.93577e-08 -4.08369e-08 2.36948e-08)
(8.86381e-09 8.61174e-09 1.0063e-09)
(-3.62789e-10 6.29813e-10 1.26847e-09)
(3.906e-10 5.01444e-10 1.32248e-09)
(-8.54254e-09 8.09477e-09 1.16022e-09)
(1.41549e-08 3.55742e-09 3.82071e-09)
(9.88467e-10 -9.14525e-10 4.35015e-09)
(-3.88862e-10 -1.30267e-09 4.4884e-09)
(-1.31687e-08 2.35624e-09 4.21361e-09)
(1.47011e-08 -1.20531e-09 7.01437e-09)
(1.49355e-09 -3.10448e-09 7.64924e-09)
(1.00914e-10 -3.72419e-09 7.85337e-09)
(-1.27193e-08 -3.06161e-09 7.60022e-09)
(1.4584e-08 -4.60232e-09 1.00894e-08)
(1.73632e-09 -5.8735e-09 1.07615e-08)
(1.26032e-09 -6.70343e-09 1.10208e-08)
(-1.11902e-08 -7.08193e-09 1.08421e-08)
(1.53646e-08 -7.21122e-09 1.27616e-08)
(2.39143e-09 -8.97853e-09 1.34522e-08)
(2.41035e-09 -1.00098e-08 1.37596e-08)
(-1.01441e-08 -1.02902e-08 1.36614e-08)
(1.79511e-08 -9.42047e-09 1.49214e-08)
(3.85434e-09 -1.20617e-08 1.56259e-08)
(3.14242e-09 -1.32923e-08 1.5973e-08)
(-1.05214e-08 -1.30834e-08 1.59445e-08)
(2.34856e-08 -1.34009e-08 1.64965e-08)
(6.40844e-09 -1.58615e-08 1.72134e-08)
(3.14851e-09 -1.72798e-08 1.75862e-08)
(-1.35293e-08 -1.76247e-08 1.76056e-08)
(3.20167e-08 -3.66841e-08 1.741e-08)
(9.27817e-09 -3.50449e-08 1.81485e-08)
(3.11378e-09 -3.6487e-08 1.85232e-08)
(-1.9315e-08 -4.11133e-08 1.85385e-08)
(8.58314e-09 8.30072e-09 8.0159e-10)
(-3.80474e-10 5.30411e-10 9.2538e-10)
(3.79269e-10 4.1147e-10 9.61337e-10)
(-8.31241e-09 7.82838e-09 9.03373e-10)
(1.37203e-08 3.08234e-09 2.78254e-09)
(9.02351e-10 -1.26283e-09 3.03869e-09)
(-4.18902e-10 -1.62487e-09 3.13112e-09)
(-1.28774e-08 1.97187e-09 3.04367e-09)
(1.42778e-08 -1.90983e-09 4.9732e-09)
(1.37472e-09 -3.76041e-09 5.28535e-09)
(2.25201e-12 -4.34509e-09 5.42257e-09)
(-1.25368e-08 -3.65318e-09 5.36516e-09)
(1.41959e-08 -5.49152e-09 7.12557e-09)
(1.59775e-09 -6.7439e-09 7.45921e-09)
(1.07898e-09 -7.53592e-09 7.63466e-09)
(-1.11419e-08 -7.852e-09 7.63307e-09)
(1.4988e-08 -8.15491e-09 9.03582e-09)
(2.22776e-09 -9.90731e-09 9.38229e-09)
(2.15868e-09 -1.09013e-08 9.59144e-09)
(-1.02004e-08 -1.11183e-08 9.64702e-09)
(1.75609e-08 -1.03366e-08 1.0591e-08)
(3.65923e-09 -1.29606e-08 1.09503e-08)
(2.83773e-09 -1.41563e-08 1.11876e-08)
(-1.06467e-08 -1.3893e-08 1.12903e-08)
(2.30658e-08 -1.42829e-08 1.17527e-08)
(6.17997e-09 -1.67299e-08 1.21256e-08)
(2.80431e-09 -1.81169e-08 1.23812e-08)
(-1.36958e-08 -1.84122e-08 1.25138e-08)
(3.1555e-08 -3.72671e-08 1.25227e-08)
(9.02219e-09 -3.5647e-08 1.29111e-08)
(2.73458e-09 -3.70625e-08 1.31678e-08)
(-1.95001e-08 -4.16159e-08 1.32979e-08)
(8.44019e-09 8.12671e-09 5.06627e-10)
(-3.84976e-10 4.6818e-10 5.61819e-10)
(3.67698e-10 3.55328e-10 5.8243e-10)
(-8.19871e-09 7.68214e-09 5.64615e-10)
(1.35032e-08 2.83855e-09 1.68983e-09)
(8.65136e-10 -1.44125e-09 1.80615e-09)
(-4.49419e-10 -1.78638e-09 1.85923e-09)
(-1.27449e-08 1.78596e-09 1.83899e-09)
(1.40674e-08 -2.25519e-09 2.97087e-09)
(1.31867e-09 -4.07996e-09 3.11475e-09)
(-7.22627e-11 -4.64155e-09 3.19381e-09)
(-1.24717e-08 -3.92474e-09 3.19569e-09)
(1.40024e-08 -5.95679e-09 4.2345e-09)
(1.52694e-09 -7.19713e-09 4.39024e-09)
(9.53225e-10 -7.96371e-09 4.49172e-09)
(-1.11573e-08 -8.23777e-09 4.52705e-09)
(1.4797e-08 -8.71377e-09 5.3704e-09)
(2.13812e-09 -1.04543e-08 5.53445e-09)
(1.98828e-09 -1.14229e-08 5.6559e-09)
(-1.02804e-08 -1.1599e-08 5.72452e-09)
(1.7356e-08 -1.09583e-08 6.30872e-09)
(3.54655e-09 -1.35669e-08 6.48202e-09)
(2.63282e-09 -1.47389e-08 6.62024e-09)
(-1.07691e-08 -1.44422e-08 6.71565e-09)
(2.28365e-08 -1.49404e-08 7.02906e-09)
(6.04339e-09 -1.73707e-08 7.2124e-09)
(2.57308e-09 -1.87366e-08 7.36157e-09)
(-1.38425e-08 -1.90055e-08 7.47327e-09)
(3.12955e-08 -3.77688e-08 7.5409e-09)
(8.86553e-09 -3.61447e-08 7.7329e-09)
(2.48047e-09 -3.75421e-08 7.88274e-09)
(-1.96586e-08 -4.20632e-08 7.99368e-09)
(8.37637e-09 8.04851e-09 1.72484e-10)
(-3.87009e-10 4.39298e-10 1.8839e-10)
(3.62599e-10 3.29418e-10 1.95105e-10)
(-8.1483e-09 7.61721e-09 1.91313e-10)
(1.34062e-08 2.73204e-09 5.66279e-10)
(8.48244e-10 -1.51924e-09 6.00144e-10)
(-4.63641e-10 -1.8561e-09 6.17453e-10)
(-1.26871e-08 1.70751e-09 6.1477e-10)
(1.39724e-08 -2.4011e-09 9.88074e-10)
(1.29249e-09 -4.21423e-09 1.03034e-09)
(-1.0716e-10 -4.76445e-09 1.05616e-09)
(-1.24447e-08 -4.03444e-09 1.06131e-09)
(1.39132e-08 -6.15939e-09 1.40402e-09)
(1.49268e-09 -7.39356e-09 1.45018e-09)
(8.94209e-10 -8.14748e-09 1.48339e-09)
(-1.11674e-08 -8.40091e-09 1.49956e-09)
(1.4707e-08 -8.97519e-09 1.7801e-09)
(2.09367e-09 -1.0709e-08 1.82922e-09)
(1.90786e-09 -1.1665e-08 1.86904e-09)
(-1.03205e-08 -1.18213e-08 1.89604e-09)
(1.72577e-08 -1.12702e-08 2.09371e-09)
(3.49004e-09 -1.38701e-08 2.14619e-09)
(2.53541e-09 -1.50301e-08 2.19158e-09)
(-1.08293e-08 -1.47176e-08 2.22723e-09)
(2.27254e-08 -1.52842e-08 2.33828e-09)
(5.9747e-09 -1.77041e-08 2.39439e-09)
(2.46226e-09 -1.90593e-08 2.44342e-09)
(-1.39148e-08 -1.9317e-08 2.48427e-09)
(3.11695e-08 -3.80477e-08 2.5172e-09)
(8.78646e-09 -3.64165e-08 2.57603e-09)
(2.3582e-09 -3.78047e-08 2.62528e-09)
(-1.97373e-08 -4.23146e-08 2.66607e-09)
)
;

boundaryField
{
    interface
    {
        type            solidTraction;
        traction        nonuniform List<vector> 
192
(
(50.1375 -0.342937 -3.20102)
(52.0521 -0.189755 -5.00386)
(53.2978 0.148212 -5.47225)
(54.0641 0.553742 -5.52333)
(54.1484 0.898258 -5.39293)
(54.9099 1.54219 -5.19536)
(53.175 2.01202 -4.7375)
(56.586 4.38485 -4.36889)
(48.7469 -0.23705 -1.60099)
(49.6861 -0.094664 -2.68072)
(50.4172 0.216781 -2.90307)
(50.9456 0.640474 -2.87473)
(50.8368 1.01314 -2.74153)
(51.5484 1.73179 -2.56972)
(49.5716 2.25605 -2.27386)
(53.2035 4.76376 -2.02916)
(51.5065 -0.202533 -1.27334)
(52.3458 -0.0511696 -2.11227)
(53.0764 0.264879 -2.28182)
(53.6096 0.722914 -2.25608)
(53.396 1.14073 -2.14898)
(54.0061 1.94606 -2.00954)
(51.5527 2.55286 -1.78827)
(54.9704 5.24149 -1.59383)
(51.667 -0.151756 -0.793637)
(52.3113 0.018149 -1.38329)
(52.8845 0.337431 -1.49561)
(53.3281 0.809884 -1.46602)
(53.0141 1.25006 -1.38063)
(53.5639 2.09532 -1.27489)
(50.9515 2.73954 -1.12977)
(54.3434 5.48123 -1.00567)
(52.481 -0.128802 -0.585417)
(53.0646 0.059241 -1.0195)
(53.5689 0.389741 -1.10297)
(53.9697 0.87823 -1.0812)
(53.5823 1.3407 -1.01823)
(54.0599 2.22004 -0.939216)
(51.2665 2.89902 -0.835757)
(54.535 5.69087 -0.744448)
(52.673 -0.110289 -0.362681)
(53.2031 0.092201 -0.649065)
(53.6457 0.431385 -0.704429)
(54.0065 0.929487 -0.688587)
(53.5697 1.40485 -0.64575)
(54.0078 2.30229 -0.592757)
(51.1304 2.99985 -0.527669)
(54.3586 5.81824 -0.471226)
(52.9386 -0.101825 -0.214136)
(53.4492 0.110625 -0.382234)
(53.8594 0.457418 -0.415137)
(54.1981 0.962969 -0.406039)
(53.7285 1.44797 -0.38124)
(54.134 2.35796 -0.349889)
(51.1893 3.06876 -0.312652)
(54.3719 5.90634 -0.278825)
(52.9971 -0.0962184 -0.0641347)
(53.4939 0.121099 -0.118168)
(53.8858 0.470989 -0.128845)
(54.2124 0.979285 -0.125685)
(53.7297 1.46835 -0.117645)
(54.1207 2.38319 -0.107457)
(51.1562 3.10011 -0.096156)
(54.316 5.94588 -0.0854287)
(4.66853 0.945139 20.0991)
(7.61533 0.985915 15.3759)
(8.46562 0.710388 12.0769)
(8.65675 0.488606 11.1919)
(8.65204 0.407035 11.4892)
(8.6529 0.458307 12.6864)
(8.66096 0.564473 15.039)
(9.28607 0.78064 17.1348)
(3.02716 0.529829 25.5865)
(5.49852 0.65275 24.5198)
(6.13374 0.448761 23.5489)
(6.23657 0.22507 23.3626)
(6.23336 0.0930702 23.5168)
(6.28989 0.0325818 23.9899)
(6.4685 0.0435295 24.7661)
(7.33352 0.126925 25.3363)
(3.1802 0.345236 22.48)
(5.7799 0.442382 21.6705)
(6.48652 0.278884 20.7997)
(6.6091 0.0551057 20.5999)
(6.58911 -0.108081 20.7722)
(6.595 -0.243259 21.2169)
(6.68673 -0.326957 22.0676)
(7.47233 -0.337001 23.011)
(3.71685 0.26279 23.0892)
(6.78654 0.320832 22.5934)
(7.66704 0.162694 21.8992)
(7.83503 -0.0691628 21.787)
(7.80123 -0.242915 21.9706)
(7.79235 -0.417629 22.277)
(7.78134 -0.556012 22.8546)
(8.56594 -0.705323 23.5175)
(-10.5465 0.941639 1.40126)
(-6.60055 0.85567 2.4894)
(-3.97583 0.300034 2.75167)
(-2.95258 -0.274508 2.80415)
(-2.99792 -0.581091 2.79592)
(-2.00115 -1.04534 2.92668)
(-3.4835 -1.03285 2.95472)
(5.60079 -3.33973 3.41923)
(-17.1167 0.358995 -0.0189437)
(-16.2836 0.295152 0.325511)
(-15.6028 -0.0195965 0.331337)
(-15.0947 -0.390729 0.314901)
(-15.0959 -0.540759 0.341464)
(-13.4839 -0.887851 0.525702)
(-13.934 -0.625771 0.724462)
(-3.41923 -2.88562 1.14695)
(-17.2241 0.192817 0.208999)
(-16.5913 0.0936677 0.635743)
(-16.0121 -0.127308 0.73691)
(-15.3863 -0.419913 0.763666)
(-15.2559 -0.491028 0.794381)
(-13.219 -0.788029 0.918015)
(-13.3589 -0.419566 1.02107)
(-1.75074 -2.8552 1.21149)
(-18.9869 0.0906266 0.0869723)
(-18.6475 -0.0339759 0.432955)
(-18.3218 -0.197801 0.527328)
(-17.6935 -0.425167 0.553811)
(-17.4595 -0.422465 0.578295)
(-15.0456 -0.665793 0.666062)
(-14.7841 -0.216743 0.733277)
(-2.41365 -2.72464 0.844254)
(-19.2167 0.0741558 0.159499)
(-18.8822 -0.0628984 0.462245)
(-18.5569 -0.211914 0.557262)
(-17.8546 -0.41981 0.585586)
(-17.5423 -0.38711 0.601042)
(-14.9241 -0.613344 0.648629)
(-14.5159 -0.135433 0.670247)
(-1.71716 -2.72951 0.706612)
(-19.7213 0.0672647 0.102196)
(-19.4041 -0.0749345 0.313814)
(-19.088 -0.216314 0.38389)
(-18.3397 -0.412621 0.404959)
(-17.9653 -0.359116 0.415546)
(-15.1869 -0.572593 0.445004)
(-14.6421 -0.0750359 0.456085)
(-1.52905 -2.72008 0.474267)
(-19.8292 0.0691611 0.0780967)
(-19.5009 -0.075166 0.207899)
(-19.1705 -0.214753 0.251586)
(-18.386 -0.40793 0.264629)
(-17.9748 -0.345769 0.270433)
(-15.1107 -0.555115 0.284458)
(-14.5059 -0.0497958 0.287419)
(-1.21092 -2.73145 0.29111)
(-19.9501 0.0688306 0.0203245)
(-19.6223 -0.0760134 0.0619966)
(-19.2871 -0.21403 0.0763929)
(-18.4861 -0.404983 0.0806936)
(-18.0533 -0.338263 0.0829466)
(-15.1454 -0.544625 0.087731)
(-14.4985 -0.035551 0.089668)
(-1.11903 -2.73352 0.0910426)
(9.31707 -16.7947 -0.70374)
(8.71042 -14.5128 -0.485552)
(8.73209 -11.7861 -0.345591)
(8.7766 -10.0227 -0.22437)
(8.86973 -8.6712 -0.167805)
(8.92678 -7.7182 -0.103724)
(8.97385 -7.11619 -0.0641409)
(8.99436 -6.82516 -0.0190643)
(7.34684 -25.051 -0.0364178)
(6.48476 -24.3729 0.0492394)
(6.30991 -23.3567 0.0970189)
(6.25328 -22.5888 0.101196)
(6.26 -21.9464 0.0821873)
(6.26105 -21.4729 0.0633036)
(6.27115 -21.1647 0.0371525)
(6.27437 -21.0019 0.0137921)
(7.4838 -22.7345 0.435616)
(6.69398 -21.6769 0.428579)
(6.60227 -20.5856 0.381794)
(6.59972 -19.8411 0.305543)
(6.63821 -19.1838 0.235802)
(6.65837 -18.7423 0.164428)
(6.67906 -18.4378 0.0971464)
(6.68651 -18.2971 0.032111)
(8.55862 -23.2655 0.805186)
(7.76812 -22.507 0.659044)
(7.77747 -21.7435 0.552419)
(7.79613 -21.2279 0.427554)
(7.86858 -20.7081 0.330128)
(7.90539 -20.3898 0.226553)
(7.94015 -20.1505 0.135628)
(7.95376 -20.0414 0.04422)
)
;
        pressure        uniform 0;
        secondOrder     false;
        setEffectiveTraction false;
        relaxationFactor 1;
        value           nonuniform List<vector> 
192
(
(7.57938e-08 4.18055e-08 1.81741e-08)
(8.26347e-08 2.65647e-08 3.21351e-08)
(8.50009e-08 1.55562e-08 3.82576e-08)
(8.66186e-08 9.22718e-09 4.24463e-08)
(8.9666e-08 4.78917e-09 4.65182e-08)
(9.53276e-08 9.36703e-10 5.13529e-08)
(1.04629e-07 -5.79658e-09 5.77937e-08)
(1.18575e-07 -3.92177e-08 6.56941e-08)
(6.27975e-08 2.36619e-08 5.58274e-11)
(6.83418e-08 1.48187e-08 7.55264e-09)
(6.98528e-08 8.48358e-09 1.3672e-08)
(7.10277e-08 4.1744e-09 1.7919e-08)
(7.38524e-08 5.66822e-10 2.15521e-08)
(7.95703e-08 -2.70403e-09 2.54202e-08)
(8.94831e-08 -7.79254e-09 2.95844e-08)
(1.05419e-07 -3.59391e-08 3.22651e-08)
(5.41534e-08 1.74478e-08 -2.14584e-10)
(5.93005e-08 8.65717e-09 4.53596e-09)
(6.06299e-08 3.24879e-09 9.97158e-09)
(6.16735e-08 -3.41486e-11 1.44045e-08)
(6.43869e-08 -2.64533e-09 1.80704e-08)
(7.01243e-08 -4.75667e-09 2.14108e-08)
(8.03166e-08 -8.27679e-09 2.42387e-08)
(9.68946e-08 -3.40742e-08 2.54279e-08)
(4.92703e-08 1.53057e-08 5.4002e-10)
(5.39757e-08 6.09364e-09 4.05627e-09)
(5.53159e-08 3.3472e-10 8.36868e-09)
(5.63948e-08 -2.8243e-09 1.23204e-08)
(5.90953e-08 -4.88695e-09 1.56475e-08)
(6.48337e-08 -6.20683e-09 1.84016e-08)
(7.50976e-08 -8.9544e-09 2.04515e-08)
(9.1821e-08 -3.37275e-08 2.14019e-08)
(4.66099e-08 1.43664e-08 7.85948e-10)
(5.10653e-08 5.01675e-09 3.47408e-09)
(5.24428e-08 -1.09798e-09 6.67111e-09)
(5.35889e-08 -4.43631e-09 9.76838e-09)
(5.63111e-08 -6.36922e-09 1.24482e-08)
(6.20378e-08 -7.38985e-09 1.46032e-08)
(7.22748e-08 -9.88406e-09 1.61672e-08)
(8.89557e-08 -3.41114e-08 1.70602e-08)
(4.51119e-08 1.38766e-08 6.95624e-10)
(4.94529e-08 4.50602e-09 2.6195e-09)
(5.08586e-08 -1.79084e-09 4.81466e-09)
(5.20529e-08 -5.31382e-09 6.98005e-09)
(5.47923e-08 -7.31343e-09 8.89382e-09)
(6.04983e-08 -8.3168e-09 1.04421e-08)
(7.06801e-08 -1.07839e-08 1.15903e-08)
(8.72842e-08 -3.47051e-08 1.23424e-08)
(4.42784e-08 1.36125e-08 4.54899e-10)
(4.85643e-08 4.24537e-09 1.61123e-09)
(4.99849e-08 -2.13031e-09 2.89445e-09)
(5.12041e-08 -5.77424e-09 4.16374e-09)
(5.39499e-08 -7.87513e-09 5.3001e-09)
(5.96354e-08 -8.94804e-09 6.23287e-09)
(6.97701e-08 -1.1455e-08 6.9439e-09)
(8.63139e-08 -3.52175e-08 7.44448e-09)
(4.39e-08 1.34941e-08 1.56519e-10)
(4.81611e-08 4.13106e-09 5.42002e-10)
(4.95868e-08 -2.27427e-09 9.64291e-10)
(5.08156e-08 -5.97557e-09 1.3817e-09)
(5.35623e-08 -8.13881e-09 1.7576e-09)
(5.92356e-08 -9.26523e-09 2.06912e-09)
(6.9345e-08 -1.18058e-08 2.31049e-09)
(8.58577e-08 -3.55026e-08 2.48566e-09)
(1.85029e-08 4.34231e-08 7.96674e-08)
(2.91011e-08 2.88894e-08 9.06943e-08)
(3.04347e-08 1.78569e-08 9.80543e-08)
(3.04315e-08 1.10732e-08 1.03972e-07)
(3.13709e-08 6.12917e-09 1.10243e-07)
(3.4014e-08 1.75528e-09 1.18138e-07)
(3.93776e-08 -5.62064e-09 1.28583e-07)
(4.76948e-08 -3.9643e-08 1.42346e-07)
(1.11043e-09 2.98405e-08 7.25733e-08)
(4.56849e-09 2.1799e-08 8.3609e-08)
(5.76158e-09 1.51311e-08 9.02998e-08)
(6.24797e-09 9.54999e-09 9.57921e-08)
(7.12155e-09 4.26048e-09 1.01882e-07)
(8.77625e-09 -9.04398e-10 1.09808e-07)
(1.148e-08 -7.98313e-09 1.20772e-07)
(1.45397e-08 -3.81344e-08 1.36564e-07)
(-4.38785e-10 2.97585e-08 7.20753e-08)
(-2.11266e-09 2.14405e-08 8.33095e-08)
(-1.25684e-09 1.45005e-08 9.01442e-08)
(5.43822e-10 8.67786e-09 9.57445e-08)
(2.21027e-09 3.16891e-09 1.01918e-07)
(3.36069e-09 -2.20805e-09 1.09913e-07)
(3.7251e-09 -9.49513e-09 1.20941e-07)
(3.91254e-09 -3.97166e-08 1.36828e-07)
(-1.75301e-08 4.29363e-08 7.84128e-08)
(-2.62725e-08 2.75888e-08 9.01239e-08)
(-2.5583e-08 1.5802e-08 9.79167e-08)
(-2.33061e-08 8.33952e-09 1.04155e-07)
(-2.1706e-08 2.77619e-09 1.10678e-07)
(-2.15533e-08 -2.19077e-09 1.18779e-07)
(-2.39038e-08 -1.01618e-08 1.29407e-07)
(-2.90641e-08 -4.44969e-08 1.43433e-07)
(-7.25955e-08 4.01293e-08 1.86524e-08)
(-7.77385e-08 2.40958e-08 3.34826e-08)
(-7.8192e-08 1.22833e-08 4.02508e-08)
(-7.7611e-08 5.18427e-09 4.49118e-08)
(-7.81778e-08 1.79923e-11 4.93476e-08)
(-8.11083e-08 -4.53447e-09 5.44833e-08)
(-8.75184e-08 -1.19392e-08 6.11869e-08)
(-9.85372e-08 -4.56931e-08 6.92849e-08)
(-5.96297e-08 2.22234e-08 5.6981e-10)
(-6.38823e-08 1.24833e-08 8.81464e-09)
(-6.37723e-08 5.29977e-09 1.55023e-08)
(-6.29621e-08 2.05659e-10 2.01879e-08)
(-6.346e-08 -4.13783e-09 2.41697e-08)
(-6.65527e-08 -8.11036e-09 2.83239e-08)
(-7.36524e-08 -1.38524e-08 3.2714e-08)
(-8.67841e-08 -4.22755e-08 3.55156e-08)
(-5.12054e-08 1.62657e-08 1.63337e-10)
(-5.53148e-08 6.59178e-09 5.4874e-09)
(-5.52609e-08 3.10246e-10 1.13781e-08)
(-5.45195e-08 -3.78712e-09 1.6185e-08)
(-5.50638e-08 -7.15939e-09 2.0162e-08)
(-5.82924e-08 -9.98852e-09 2.37583e-08)
(-6.5751e-08 -1.41648e-08 2.67767e-08)
(-7.95807e-08 -4.02289e-08 2.80497e-08)
(-4.65258e-08 1.43215e-08 8.09841e-10)
(-5.03888e-08 4.2809e-09 4.74812e-09)
(-5.05311e-08 -2.34279e-09 9.40788e-09)
(-4.99935e-08 -6.33149e-09 1.3659e-08)
(-5.06679e-08 -9.1781e-09 1.72451e-08)
(-5.40099e-08 -1.12373e-08 2.02151e-08)
(-6.1621e-08 -1.46587e-08 2.24231e-08)
(-7.56475e-08 -3.97145e-08 2.34401e-08)
(-4.40084e-08 1.35226e-08 9.72751e-10)
(-4.77593e-08 3.40041e-09 3.95873e-09)
(-4.80761e-08 -3.55628e-09 7.40835e-09)
(-4.77381e-08 -7.72579e-09 1.07313e-08)
(-4.85525e-08 -1.04574e-08 1.36122e-08)
(-5.19815e-08 -1.22372e-08 1.59378e-08)
(-5.96413e-08 -1.54263e-08 1.76276e-08)
(-7.36773e-08 -3.99572e-08 1.85742e-08)
(-4.26007e-08 1.31259e-08 8.17435e-10)
(-4.63277e-08 3.02796e-09 2.93778e-09)
(-4.6768e-08 -4.08712e-09 5.30332e-09)
(-4.65743e-08 -8.43618e-09 7.62492e-09)
(-4.74956e-08 -1.12422e-08 9.68116e-09)
(-5.09815e-08 -1.30193e-08 1.13523e-08)
(-5.86484e-08 -1.61989e-08 1.25922e-08)
(-7.26531e-08 -4.04415e-08 1.33839e-08)
(-4.18197e-08 1.29181e-08 5.23602e-10)
(-4.55458e-08 2.85418e-09 1.79142e-09)
(-4.60603e-08 -4.32168e-09 3.17271e-09)
(-4.59537e-08 -8.78566e-09 4.53348e-09)
(-4.69412e-08 -1.16961e-08 5.75459e-09)
(-5.04599e-08 -1.35517e-08 6.76133e-09)
(-5.81236e-08 -1.67831e-08 7.52808e-09)
(-7.21011e-08 -4.08794e-08 8.05305e-09)
(-4.14654e-08 1.28261e-08 1.78714e-10)
(-4.51919e-08 2.78159e-09 6.00314e-10)
(-4.57401e-08 -4.4144e-09 1.05458e-09)
(-4.56733e-08 -8.93203e-09 1.50209e-09)
(-4.66916e-08 -1.19059e-08 1.90609e-09)
(-5.02252e-08 -1.38191e-08 2.24231e-09)
(-5.7886e-08 -1.709e-08 2.50236e-09)
(-7.18497e-08 -4.11269e-08 2.68576e-09)
(4.80592e-08 -1.16267e-07 6.80571e-08)
(4.05248e-08 -1.07135e-07 3.40138e-08)
(3.59222e-08 -1.01303e-07 2.65695e-08)
(3.3818e-08 -9.80001e-08 2.218e-08)
(3.28946e-08 -9.64244e-08 1.76509e-08)
(3.24324e-08 -9.57691e-08 1.27939e-08)
(3.21666e-08 -9.55403e-08 7.73604e-09)
(3.20357e-08 -9.54797e-08 2.58692e-09)
(1.48928e-08 -1.11191e-07 6.58562e-08)
(1.26086e-08 -1.00065e-07 3.57202e-08)
(1.0681e-08 -9.37593e-08 2.86642e-08)
(9.69372e-09 -9.04555e-08 2.35607e-08)
(9.22992e-09 -8.8978e-08 1.84092e-08)
(8.97206e-09 -8.83841e-08 1.31861e-08)
(8.80988e-09 -8.81768e-08 7.92527e-09)
(8.72675e-09 -8.81202e-08 2.64397e-09)
(4.27142e-09 -1.12158e-07 6.67428e-08)
(4.84067e-09 -1.00956e-07 3.65471e-08)
(5.28574e-09 -9.46088e-08 2.93119e-08)
(5.08266e-09 -9.12684e-08 2.40516e-08)
(4.63197e-09 -8.97588e-08 1.87686e-08)
(4.22789e-09 -8.91397e-08 1.34316e-08)
(3.96118e-09 -8.89152e-08 8.06832e-09)
(3.83384e-09 -8.88499e-08 2.69095e-09)
(-2.8698e-08 -1.19483e-07 7.07959e-08)
(-2.27987e-08 -1.1014e-07 3.64586e-08)
(-1.96382e-08 -1.04186e-07 2.84889e-08)
(-1.87287e-08 -1.00772e-07 2.36491e-08)
(-1.87352e-08 -9.91008e-08 1.87333e-08)
(-1.89476e-08 -9.83714e-08 1.35354e-08)
(-1.91189e-08 -9.80922e-08 8.16838e-09)
(-1.92024e-08 -9.80062e-08 2.72894e-09)
)
;
        gradient        nonuniform List<vector> 
192
(
(4.59714e-06 9.40311e-07 -9.84169e-08)
(4.31588e-06 2.32838e-07 -1.55661e-07)
(4.40234e-06 2.57734e-08 -1.66962e-07)
(4.53151e-06 1.89183e-08 -1.70075e-07)
(4.6999e-06 7.18064e-08 -1.72493e-07)
(4.94105e-06 1.60066e-07 -1.73551e-07)
(5.25676e-06 2.7204e-07 -1.7264e-07)
(5.71278e-06 2.00732e-07 -1.70688e-07)
(3.9232e-06 7.09873e-07 -1.4988e-07)
(3.72844e-06 1.75913e-07 -2.28473e-07)
(3.78397e-06 1.30382e-08 -2.42245e-07)
(3.89117e-06 1.30145e-08 -2.46554e-07)
(4.05191e-06 6.80402e-08 -2.50224e-07)
(4.30248e-06 1.6009e-07 -2.51451e-07)
(4.6621e-06 2.78102e-07 -2.48234e-07)
(5.25811e-06 2.03056e-07 -2.41676e-07)
(3.46534e-06 5.62016e-07 -8.58839e-08)
(3.3629e-06 1.40493e-07 -1.3263e-07)
(3.42149e-06 7.69614e-09 -1.38092e-07)
(3.52197e-06 1.09392e-08 -1.38203e-07)
(3.67833e-06 6.6909e-08 -1.39274e-07)
(3.93046e-06 1.62055e-07 -1.3915e-07)
(4.30459e-06 2.81815e-07 -1.36506e-07)
(4.94495e-06 2.05118e-07 -1.34814e-07)
(3.18449e-06 4.91405e-07 -3.94666e-08)
(3.10957e-06 1.23719e-07 -6.22054e-08)
(3.17327e-06 7.46853e-09 -6.32229e-08)
(3.27324e-06 1.18326e-08 -6.13176e-08)
(3.42833e-06 6.70934e-08 -6.08813e-08)
(3.68004e-06 1.62858e-07 -6.08664e-08)
(4.05719e-06 2.82439e-07 -6.04875e-08)
(4.70941e-06 2.0607e-07 -6.13341e-08)
(3.01968e-06 4.60373e-07 -1.76283e-08)
(2.95283e-06 1.16747e-07 -2.77304e-08)
(3.01933e-06 8.58651e-09 -2.74609e-08)
(3.12039e-06 1.32813e-08 -2.56822e-08)
(3.27572e-06 6.73603e-08 -2.50778e-08)
(3.52694e-06 1.62449e-07 -2.5458e-08)
(3.90314e-06 2.81349e-07 -2.63484e-08)
(4.55512e-06 2.05816e-07 -2.79767e-08)
(2.9223e-06 4.46068e-07 -8.47723e-09)
(2.8586e-06 1.13894e-07 -1.30436e-08)
(2.92647e-06 9.51872e-09 -1.26832e-08)
(3.02856e-06 1.42162e-08 -1.16413e-08)
(3.18435e-06 6.73178e-08 -1.13607e-08)
(3.43499e-06 1.61588e-07 -1.19102e-08)
(3.80914e-06 2.79921e-07 -1.29879e-08)
(4.45834e-06 2.04956e-07 -1.44282e-08)
(2.86706e-06 4.38866e-07 -4.13826e-09)
(2.80489e-06 1.12546e-07 -6.28795e-09)
(2.8734e-06 9.99022e-09 -6.11395e-09)
(2.97614e-06 1.46041e-08 -5.6606e-09)
(3.13224e-06 6.70915e-08 -5.62423e-09)
(3.38235e-06 1.60822e-07 -6.0678e-09)
(3.75469e-06 2.78831e-07 -6.81208e-09)
(4.40146e-06 2.04101e-07 -7.71397e-09)
(2.84189e-06 4.35649e-07 -1.27715e-09)
(2.78039e-06 1.11922e-07 -1.94212e-09)
(2.84916e-06 1.01469e-08 -1.90267e-09)
(2.95219e-06 1.47061e-08 -1.78572e-09)
(3.10843e-06 6.69106e-08 -1.80072e-09)
(3.35823e-06 1.604e-07 -1.96663e-09)
(3.72956e-06 2.78275e-07 -2.2228e-09)
(4.37505e-06 2.03607e-07 -2.52261e-09)
(1.38681e-08 1.06972e-06 4.82105e-06)
(3.31941e-08 4.18819e-07 4.52907e-06)
(3.7045e-08 2.09836e-07 4.61677e-06)
(3.65368e-08 1.66602e-07 4.75196e-06)
(3.63004e-08 1.79006e-07 4.92553e-06)
(3.59616e-08 2.25552e-07 5.16923e-06)
(3.6654e-08 2.86115e-07 5.49047e-06)
(4.23743e-08 1.66706e-07 5.9615e-06)
(-3.34694e-08 9.89573e-07 4.39512e-06)
(-3.84306e-08 4.0767e-07 4.1412e-06)
(-3.68771e-08 2.05955e-07 4.1826e-06)
(-3.65332e-08 1.63086e-07 4.29204e-06)
(-3.61472e-08 1.76689e-07 4.45682e-06)
(-3.54897e-08 2.25827e-07 4.70656e-06)
(-3.29708e-08 2.93944e-07 5.06477e-06)
(-2.52268e-08 1.7153e-07 5.67128e-06)
(4.2896e-08 9.97696e-07 4.34772e-06)
(6.5722e-08 4.15364e-07 4.0923e-06)
(7.74084e-08 2.11719e-07 4.1318e-06)
(8.66126e-08 1.67325e-07 4.24024e-06)
(9.35378e-08 1.80043e-07 4.40442e-06)
(9.89637e-08 2.28717e-07 4.65356e-06)
(1.01837e-07 2.96353e-07 5.01136e-06)
(9.8096e-08 1.72498e-07 5.62132e-06)
(-3.97092e-09 1.09807e-06 4.69087e-06)
(-6.25113e-09 4.42135e-07 4.3998e-06)
(2.53028e-09 2.26832e-07 4.48266e-06)
(1.2386e-08 1.7921e-07 4.61496e-06)
(1.98683e-08 1.89036e-07 4.78671e-06)
(2.61637e-08 2.34119e-07 5.0287e-06)
(3.05931e-08 2.93058e-07 5.34851e-06)
(2.88126e-08 1.69361e-07 5.82879e-06)
(-4.4092e-06 8.7351e-07 -8.99634e-08)
(-4.12353e-06 1.62694e-07 -1.31506e-07)
(-4.20618e-06 -5.46658e-08 -1.30609e-07)
(-4.33201e-06 -7.32099e-08 -1.24488e-07)
(-4.49788e-06 -3.16192e-08 -1.1971e-07)
(-4.73823e-06 4.66233e-08 -1.14922e-07)
(-5.05857e-06 1.50864e-07 -1.09069e-07)
(-5.52904e-06 7.36665e-08 -1.03059e-07)
(-3.72392e-06 6.57092e-07 -1.43301e-07)
(-3.52869e-06 1.18772e-07 -2.09239e-07)
(-3.58026e-06 -5.69739e-08 -2.12252e-07)
(-3.68296e-06 -7.09813e-08 -2.07863e-07)
(-3.83918e-06 -2.89435e-08 -2.04562e-07)
(-4.08595e-06 5.1902e-08 -2.0017e-07)
(-4.44691e-06 1.61401e-07 -1.92331e-07)
(-5.05883e-06 7.96135e-08 -1.81777e-07)
(-3.2712e-06 5.20955e-07 -8.03625e-08)
(-3.16661e-06 9.37287e-08 -1.1752e-07)
(-3.22072e-06 -5.32953e-08 -1.14279e-07)
(-3.31616e-06 -6.55217e-08 -1.06776e-07)
(-3.46702e-06 -2.39276e-08 -1.01445e-07)
(-3.71367e-06 5.88519e-08 -9.60706e-08)
(-4.08655e-06 1.69257e-07 -8.91438e-08)
(-4.73968e-06 8.54119e-08 -8.38053e-08)
(-2.99708e-06 4.59194e-07 -3.5457e-08)
(-2.91932e-06 8.48451e-08 -5.12644e-08)
(-2.97811e-06 -4.6234e-08 -4.56442e-08)
(-3.07263e-06 -5.81491e-08 -3.75398e-08)
(-3.22163e-06 -1.82384e-08 -3.16311e-08)
(-3.46686e-06 6.42034e-08 -2.6993e-08)
(-3.84103e-06 1.73668e-07 -2.27888e-08)
(-4.50318e-06 8.97939e-08 -2.03819e-08)
(-2.83727e-06 4.34225e-07 -1.49975e-08)
(-2.76725e-06 8.35338e-08 -2.03904e-08)
(-2.82855e-06 -3.95733e-08 -1.53497e-08)
(-2.92384e-06 -5.15093e-08 -8.86957e-09)
(-3.07267e-06 -1.3381e-08 -3.93422e-09)
(-3.31681e-06 6.76944e-08 -5.38796e-10)
(-3.68896e-06 1.7587e-07 1.76074e-09)
(-4.34898e-06 9.24853e-08 2.8572e-09)
(-2.74306e-06 4.23798e-07 -6.87502e-09)
(-2.67602e-06 8.44871e-08 -8.47091e-09)
(-2.7385e-06 -3.4715e-08 -4.94724e-09)
(-2.8346e-06 -4.67341e-08 -6.51873e-10)
(-2.98362e-06 -9.9076e-09 2.73093e-09)
(-3.22678e-06 6.98987e-08 4.9592e-09)
(-3.59621e-06 1.77065e-07 6.27087e-09)
(-4.25224e-06 9.39512e-08 6.87853e-09)
(-2.68968e-06 4.18873e-07 -3.28106e-09)
(-2.62407e-06 8.54577e-08 -3.80505e-09)
(-2.68709e-06 -3.17555e-08 -1.83887e-09)
(-2.78371e-06 -4.38314e-08 5.13756e-10)
(-2.93287e-06 -7.76988e-09 2.40561e-09)
(-3.17527e-06 7.12346e-08 3.65513e-09)
(-3.54249e-06 1.7779e-07 4.38489e-09)
(-4.19539e-06 9.46973e-08 4.74919e-09)
(-2.66537e-06 4.16708e-07 -1.00789e-09)