/*--------------------------------*- C++ -*----------------------------------*\
| =========                 |                                                 |
| \\      /  F ield         | OpenFOAM: The Open Source CFD Toolbox           |
|  \\    /   O peration     | Version:  v1912                                 |
|   \\  /    A nd           | Website:  www.openfoam.com                      |
|    \\/     M anipulation  |                                                 |
\*---------------------------------------------------------------------------*/
FoamFile
{
    version     2.0;
    format      ascii;
    class       volVectorField;
    location    "0.42/solid";
    object      D_0;
}
// * * * * * * * * * * * * * * * * * * * * * * * * * * * * * * * * * * * * * //

dimensions      [0 1 0 0 0 0 0];


internalField   nonuniform List<vector> 
256
(
(1.79512e-08 2.96891e-08 1.89828e-08)
(1.45199e-09 1.72728e-08 1.72697e-08)
(-8.88367e-10 1.70935e-08 1.73689e-08)
(-1.71083e-08 2.88652e-08 1.93703e-08)
(2.80444e-08 2.34135e-08 3.31783e-08)
(4.89397e-09 1.65799e-08 3.1019e-08)
(-2.76089e-09 1.61276e-08 3.13392e-08)
(-2.55554e-08 2.18273e-08 3.42511e-08)
(2.92974e-08 1.52594e-08 3.91207e-08)
(6.05836e-09 1.26287e-08 3.68752e-08)
(-2.03198e-09 1.19248e-08 3.73653e-08)
(-2.49335e-08 1.29862e-08 4.06932e-08)
(2.93253e-08 9.29197e-09 4.30702e-08)
(6.55772e-09 7.83982e-09 4.07318e-08)
(-3.49476e-10 6.90998e-09 4.13438e-08)
(-2.27905e-08 6.38477e-09 4.50038e-08)
(3.02715e-08 4.48594e-09 4.68874e-08)
(7.43746e-09 2.69461e-09 4.44928e-08)
(1.23799e-09 1.55325e-09 4.51976e-08)
(-2.12695e-08 9.8268e-10 4.90986e-08)
(3.28421e-08 -1.2026e-10 5.14105e-08)
(9.06261e-09 -2.7028e-09 4.899e-08)
(2.36492e-09 -4.05339e-09 4.97721e-08)
(-2.1096e-08 -4.20674e-09 5.38529e-08)
(3.79723e-08 -7.72769e-09 5.74512e-08)
(1.16629e-08 -1.01351e-08 5.50941e-08)
(2.79366e-09 -1.1691e-08 5.59459e-08)
(-2.32503e-08 -1.23978e-08 6.00981e-08)
(4.58901e-08 -3.93665e-08 6.49529e-08)
(1.45459e-08 -3.80306e-08 6.29082e-08)
(3.14317e-09 -3.96442e-08 6.38137e-08)
(-2.80296e-08 -4.43122e-08 6.77506e-08)
(1.35583e-08 1.468e-08 1.78582e-09)
(6.72673e-10 4.29028e-09 2.4517e-09)
(-3.51216e-10 4.11485e-09 2.6007e-09)
(-1.28906e-08 1.39118e-08 2.22326e-09)
(2.1387e-08 1.26647e-08 9.93676e-09)
(3.30722e-09 6.77846e-09 1.12206e-08)
(-1.78665e-09 6.28795e-09 1.15766e-08)
(-1.94356e-08 1.10454e-08 1.09731e-08)
(2.21924e-08 8.59391e-09 1.59291e-08)
(4.2241e-09 6.21337e-09 1.74576e-08)
(-1.10532e-09 5.47e-09 1.79638e-08)
(-1.86637e-08 6.27775e-09 1.7405e-08)
(2.20558e-08 4.53749e-09 1.99599e-08)
(4.62919e-09 3.14808e-09 2.15816e-08)
(4.3507e-10 2.18908e-09 2.22001e-08)
(-1.65874e-08 1.60233e-09 2.17697e-08)
(2.28813e-08 5.19295e-10 2.33721e-08)
(5.43328e-09 -1.24691e-09 2.50362e-08)
(1.90769e-09 -2.40805e-09 2.5743e-08)
(-1.51271e-08 -2.99786e-09 2.54469e-08)
(2.54001e-08 -3.5895e-09 2.69766e-08)
(7.00005e-09 -6.16604e-09 2.86605e-08)
(2.93685e-09 -7.52808e-09 2.94406e-08)
(-1.50477e-08 -7.6763e-09 2.92705e-08)
(3.05993e-08 -9.74431e-09 3.08352e-08)
(9.56834e-09 -1.21376e-08 3.2537e-08)
(3.26997e-09 -1.36911e-08 3.33736e-08)
(-1.73927e-08 -1.43863e-08 3.33005e-08)
(3.87486e-08 -3.63053e-08 3.33024e-08)
(1.24292e-08 -3.4685e-08 3.50342e-08)
(3.54661e-09 -3.62658e-08 3.58921e-08)
(-2.25104e-08 -4.11541e-08 3.58404e-08)
(1.07544e-08 1.04025e-08 7.85842e-10)
(7.86416e-12 1.34471e-09 1.595e-09)
(1.57383e-10 1.18828e-09 1.70471e-09)
(-1.02439e-08 9.74387e-09 1.09854e-09)
(1.71187e-08 7.0859e-09 5.8843e-09)
(1.91229e-09 1.96715e-09 7.42831e-09)
(-8.39887e-10 1.50369e-09 7.69933e-09)
(-1.56031e-08 5.60706e-09 6.65703e-09)
(1.77208e-08 3.57324e-09 1.11283e-08)
(2.6122e-09 1.44022e-09 1.29368e-08)
(-1.96363e-10 7.24467e-10 1.33277e-08)
(-1.48756e-08 1.39049e-09 1.22522e-08)
(1.75363e-08 4.86876e-10 1.53113e-08)
(2.93988e-09 -8.40559e-10 1.72201e-08)
(1.20629e-09 -1.77182e-09 1.77053e-08)
(-1.29614e-08 -2.32522e-09 1.67177e-08)
(1.83047e-08 -2.58251e-09 1.87505e-08)
(3.67808e-09 -4.33345e-09 2.07076e-08)
(2.56655e-09 -5.46587e-09 2.12704e-08)
(-1.16165e-08 -5.98405e-09 2.03911e-08)
(2.08248e-08 -5.63748e-09 2.18689e-08)
(5.197e-09 -8.21457e-09 2.38472e-08)
(3.49778e-09 -9.54499e-09 2.44737e-08)
(-1.16783e-08 -9.60989e-09 2.37028e-08)
(2.61247e-08 -1.03538e-08 2.45049e-08)
(7.74719e-09 -1.27488e-08 2.64878e-08)
(3.73059e-09 -1.42645e-08 2.71585e-08)
(-1.4238e-08 -1.48731e-08 2.64782e-08)
(3.43678e-08 -3.46689e-08 2.56551e-08)
(1.0594e-08 -3.30219e-08 2.76506e-08)
(3.92208e-09 -3.45568e-08 2.83292e-08)
(-1.95469e-08 -3.938e-08 2.76677e-08)
(9.42708e-09 9.17237e-09 9.70758e-10)
(-2.70387e-10 8.51148e-10 1.46419e-09)
(3.48351e-10 7.11161e-10 1.54211e-09)
(-9.037e-09 8.60178e-09 1.19323e-09)
(1.50427e-08 4.78441e-09 4.5868e-09)
(1.25044e-09 1.12313e-10 5.55907e-09)
(-4.70365e-10 -3.10657e-10 5.75644e-09)
(-1.38537e-08 3.46113e-09 5.14916e-09)
(1.55982e-08 7.24321e-10 8.70032e-09)
(1.82583e-09 -1.24688e-09 9.85271e-09)
(9.52255e-11 -1.91388e-09 1.01415e-08)
(-1.32731e-08 -1.28658e-09 9.53072e-09)
(1.5451e-08 -2.26284e-09 1.24159e-08)
(2.10821e-09 -3.54295e-09 1.36339e-08)
(1.36109e-09 -4.42501e-09 1.39974e-08)
(-1.15725e-08 -4.90797e-09 1.34714e-08)
(1.62167e-08 -4.80791e-09 1.55406e-08)
(2.80135e-09 -6.5432e-09 1.67906e-08)
(2.61014e-09 -7.62793e-09 1.72176e-08)
(-1.03777e-08 -8.05301e-09 1.67894e-08)
(1.87392e-08 -7.131e-09 1.81325e-08)
(4.27968e-09 -9.70356e-09 1.93992e-08)
(3.45162e-09 -1.09874e-08 1.98784e-08)
(-1.0569e-08 -1.09565e-08 1.95419e-08)
(2.40752e-08 -1.11302e-08 2.00847e-08)
(6.80206e-09 -1.35345e-08 2.13583e-08)
(3.60389e-09 -1.50047e-08 2.18719e-08)
(-1.32691e-08 -1.55106e-08 2.16063e-08)
(3.23257e-08 -3.44703e-08 2.10585e-08)
(9.62589e-09 -3.28837e-08 2.23524e-08)
(3.72466e-09 -3.43766e-08 2.28695e-08)
(-1.86741e-08 -3.90545e-08 2.26067e-08)
(8.83889e-09 8.63097e-09 9.51114e-10)
(-3.5089e-10 6.99055e-10 1.20022e-09)
(3.78715e-10 5.72122e-10 1.25495e-09)
(-8.52997e-09 8.12554e-09 1.10699e-09)
(1.41123e-08 3.80773e-09 3.62216e-09)
(1.00717e-09 -6.26815e-10 4.12877e-09)
(-4.14248e-10 -1.01422e-09 4.26887e-09)
(-1.31481e-08 2.61159e-09 4.02015e-09)
(1.4669e-08 -7.09337e-10 6.65391e-09)
(1.5193e-09 -2.59019e-09 7.26434e-09)
(6.53902e-11 -3.21111e-09 7.47121e-09)
(-1.27116e-08 -2.5684e-09 7.24748e-09)
(1.45703e-08 -3.88982e-09 9.56576e-09)
(1.77293e-09 -5.13886e-09 1.02148e-08)
(1.21685e-09 -5.97248e-09 1.04777e-08)
(-1.11976e-08 -6.38005e-09 1.03285e-08)
(1.53487e-08 -6.31237e-09 1.20904e-08)
(2.43255e-09 -8.0305e-09 1.276e-08)
(2.3712e-09 -9.06806e-09 1.30716e-08)
(-1.01408e-08 -9.40976e-09 1.30023e-08)
(1.78619e-08 -8.35568e-09 1.41374e-08)
(3.87317e-09 -1.09142e-08 1.48225e-08)
(3.14013e-09 -1.21535e-08 1.51743e-08)
(-1.04307e-08 -1.20446e-08 1.51746e-08)
(2.31851e-08 -1.21159e-08 1.56565e-08)
(6.3602e-09 -1.45165e-08 1.63539e-08)
(3.23419e-09 -1.5946e-08 1.6732e-08)
(-1.32086e-08 -1.63734e-08 1.67811e-08)
(3.14047e-08 -3.49383e-08 1.65855e-08)
(9.15557e-09 -3.33976e-08 1.73018e-08)
(3.30274e-09 -3.48553e-08 1.76818e-08)
(-1.86598e-08 -3.94165e-08 1.77301e-08)
(8.56017e-09 8.32287e-09 7.58441e-10)
(-3.6979e-10 5.98959e-10 8.76552e-10)
(3.68304e-10 4.8156e-10 9.12985e-10)
(-8.30221e-09 7.86251e-09 8.61527e-10)
(1.36786e-08 3.33087e-09 2.63599e-09)
(9.18558e-10 -9.78607e-10 2.88307e-09)
(-4.43034e-10 -1.33957e-09 2.97673e-09)
(-1.28593e-08 2.22654e-09 2.90048e-09)
(1.42433e-08 -1.42158e-09 4.7131e-09)
(1.3963e-09 -3.25329e-09 5.01646e-09)
(-3.15966e-11 -3.83873e-09 5.15552e-09)
(-1.25293e-08 -3.16621e-09 5.11018e-09)
(1.41753e-08 -4.79555e-09 6.75223e-09)
(1.62805e-09 -6.02422e-09 7.07861e-09)
(1.03789e-09 -6.81941e-09 7.25642e-09)
(-1.11463e-08 -7.165e-09 7.26645e-09)
(1.49607e-08 -7.28486e-09 8.56213e-09)
(2.26054e-09 -8.98663e-09 8.90299e-09)
(2.1225e-09 -9.98629e-09 9.11499e-09)
(-1.01911e-08 -1.0265e-08 9.18156e-09)
(1.74578e-08 -9.31253e-09 1.00437e-08)
(3.66865e-09 -1.18528e-08 1.03985e-08)
(2.83813e-09 -1.30567e-08 1.0639e-08)
(-1.0549e-08 -1.28932e-08 1.07527e-08)
(2.27536e-08 -1.30459e-08 1.11715e-08)
(6.12298e-09 -1.54307e-08 1.15397e-08)
(2.89085e-09 -1.68284e-08 1.17988e-08)
(-1.33713e-08 -1.72074e-08 1.19432e-08)
(3.09373e-08 -3.55777e-08 1.19532e-08)
(8.89184e-09 -3.40477e-08 1.23348e-08)
(2.92245e-09 -3.54784e-08 1.25951e-08)
(-1.88481e-08 -3.99743e-08 1.27394e-08)
(8.41709e-09 8.14922e-09 4.79309e-10)
(-3.75457e-10 5.35684e-10 5.32185e-10)
(3.57741e-10 4.24442e-10 5.53069e-10)
(-8.18862e-09 7.71689e-09 5.3804e-10)
(1.34592e-08 3.08174e-09 1.59997e-09)
(8.78686e-10 -1.16247e-09 1.71304e-09)
(-4.71603e-10 -1.50631e-09 1.76683e-09)
(-1.27252e-08 2.036e-09 1.75104e-09)
(1.40277e-08 -1.77863e-09 2.8139e-09)
(1.33616e-09 -3.58362e-09 2.95515e-09)
(-1.03504e-10 -4.14566e-09 3.03526e-09)
(-1.24604e-08 -3.44849e-09 3.04163e-09)
(1.39734e-08 -5.27897e-09 4.01143e-09)
(1.55173e-09 -6.49436e-09 4.16562e-09)
(9.15283e-10 -7.26375e-09 4.26846e-09)
(-1.11559e-08 -7.56781e-09 4.30783e-09)
(1.47587e-08 -7.86801e-09 5.08958e-09)
(2.16413e-09 -9.55689e-09 5.25308e-09)
(1.95557e-09 -1.05308e-08 5.37618e-09)
(-1.02634e-08 -1.07688e-08 5.44844e-09)
(1.72407e-08 -9.96269e-09 5.98643e-09)
(3.5486e-09 -1.24872e-08 6.15973e-09)
(2.63641e-09 -1.3667e-08 6.29985e-09)
(-1.06633e-08 -1.34697e-08 6.3989e-09)
(2.25136e-08 -1.37336e-08 6.68824e-09)
(5.97944e-09 -1.61008e-08 6.87136e-09)
(2.66159e-09 -1.74771e-08 7.02261e-09)
(-1.35124e-08 -1.78298e-08 7.13862e-09)
(3.06709e-08 -3.61141e-08 7.20705e-09)
(8.72883e-09 -3.45757e-08 7.39759e-09)
(2.66904e-09 -3.59881e-08 7.54954e-09)
(-1.90055e-08 -4.04554e-08 7.6662e-09)
(8.35308e-09 8.07079e-09 1.63149e-10)
(-3.78051e-10 5.06077e-10 1.78423e-10)
(3.53133e-10 3.97839e-10 1.85227e-10)
(-8.13813e-09 7.65186e-09 1.82219e-10)
(1.33609e-08 2.97156e-09 5.36013e-10)
(8.60475e-10 -1.244e-09 5.69076e-10)
(-4.8483e-10 -1.57947e-09 5.86613e-10)
(-1.26664e-08 1.9542e-09 5.85124e-10)
(1.39298e-08 -1.93199e-09 9.35622e-10)
(1.30794e-09 -3.72476e-09 9.77354e-10)
(-1.37041e-10 -4.27527e-09 1.00351e-09)
(-1.24314e-08 -3.56515e-09 1.0098e-09)
(1.38799e-08 -5.49236e-09 1.32989e-09)
(1.51473e-09 -6.70091e-09 1.37589e-09)
(8.57897e-10 -7.45748e-09 1.40954e-09)
(-1.11628e-08 -7.74118e-09 1.42667e-09)
(1.46632e-08 -8.14272e-09 1.68716e-09)
(2.11636e-09 -9.82449e-09 1.73644e-09)
(1.8769e-09 -1.07856e-08 1.7768e-09)
(-1.02996e-08 -1.10038e-08 1.80464e-09)
(1.71363e-08 -1.02891e-08 1.98736e-09)
(3.4885e-09 -1.28047e-08 2.04018e-09)
(2.54057e-09 -1.39724e-08 2.0862e-09)
(-1.07195e-08 -1.37591e-08 2.1227e-09)
(2.23971e-08 -1.40922e-08 2.22602e-09)
(5.90736e-09 -1.64486e-08 2.28237e-09)
(2.55176e-09 -1.78141e-08 2.33209e-09)
(-1.35818e-08 -1.81556e-08 2.37403e-09)
(3.05414e-08 -3.64096e-08 2.40723e-09)
(8.64668e-09 -3.48624e-08 2.46591e-09)
(2.54711e-09 -3.62655e-08 2.51585e-09)
(-1.90836e-08 -4.0723e-08 2.55819e-09)
)
;

boundaryField
{
    interface
    {
        type            solidTraction;
        traction        uniform (0 0 0);
        pressure        uniform 0;
        secondOrder     false;
        setEffectiveTraction false;
        relaxationFactor 1;
        value           nonuniform List<vector> 
192
(
(7.54084e-08 4.1188e-08 1.78028e-08)
(8.20044e-08 2.625e-08 3.13171e-08)
(8.43371e-08 1.55797e-08 3.71245e-08)
(8.59753e-08 9.53561e-09 4.10346e-08)
(8.90267e-08 5.36527e-09 4.4821e-08)
(9.4623e-08 1.80518e-09 4.93312e-08)
(1.03723e-07 -4.46535e-09 5.53844e-08)
(1.17264e-07 -3.69479e-08 6.29113e-08)
(6.26714e-08 2.34163e-08 -1.36495e-11)
(6.80789e-08 1.48232e-08 7.20491e-09)
(6.95823e-08 8.76115e-09 1.30345e-08)
(7.07881e-08 4.70984e-09 1.70122e-08)
(7.3629e-08 1.35555e-09 2.038e-08)
(7.92958e-08 -1.65973e-09 2.39719e-08)
(8.90147e-08 -6.40681e-09 2.7873e-08)
(1.04515e-07 -3.38569e-08 3.04215e-08)
(5.41517e-08 1.73707e-08 -2.47172e-10)
(5.92338e-08 8.82749e-09 4.29788e-09)
(6.05705e-08 3.6777e-09 9.47941e-09)
(6.16442e-08 6.32977e-10 1.36598e-08)
(6.43714e-08 -1.76021e-09 1.7084e-08)
(7.00542e-08 -3.68214e-09 2.02033e-08)
(8.00461e-08 -6.96766e-09 2.28736e-08)
(9.61958e-08 -3.21936e-08 2.40491e-08)
(4.9316e-08 1.52898e-08 4.91743e-10)
(5.39872e-08 6.32719e-09 3.83496e-09)
(5.53395e-08 8.26465e-10 7.93714e-09)
(5.64433e-08 -2.10805e-09 1.16742e-08)
(5.91503e-08 -3.98566e-09 1.48013e-08)
(6.48269e-08 -5.16605e-09 1.73916e-08)
(7.48873e-08 -7.73311e-09 1.93496e-08)
(9.11963e-08 -3.19824e-08 2.03176e-08)
(4.66697e-08 1.43687e-08 7.3429e-10)
(5.10979e-08 5.26528e-09 3.28098e-09)
(5.24857e-08 -5.94766e-10 6.31501e-09)
(5.36505e-08 -3.71975e-09 9.24665e-09)
(5.63718e-08 -5.48925e-09 1.17762e-08)
(6.20311e-08 -6.39621e-09 1.38168e-08)
(7.20643e-08 -8.72971e-09 1.5326e-08)
(8.8343e-08 -3.2453e-08 1.62382e-08)
(4.51742e-08 1.38826e-08 6.52932e-10)
(4.94868e-08 4.75166e-09 2.47262e-09)
(5.08989e-08 -1.29734e-09 4.55265e-09)
(5.21066e-08 -4.61605e-09 6.60291e-09)
(5.48398e-08 -6.464e-09 8.41453e-09)
(6.04747e-08 -7.36391e-09 9.88835e-09)
(7.04535e-08 -9.67551e-09 1.10035e-08)
(8.66643e-08 -3.31026e-08 1.17697e-08)
(4.43404e-08 1.36183e-08 4.27499e-10)
(4.85958e-08 4.48441e-09 1.52046e-09)
(5.00194e-08 -1.65e-09 2.73546e-09)
(5.12485e-08 -5.09605e-09 3.93751e-09)
(5.39848e-08 -7.05096e-09 5.01514e-09)
(5.95974e-08 -8.02359e-09 5.906e-09)
(6.953e-08 -1.03755e-08 6.59907e-09)
(8.56862e-08 -3.36491e-08 7.10802e-09)
(4.39616e-08 1.34993e-08 1.47134e-10)
(4.81909e-08 4.36576e-09 5.11395e-10)
(4.96182e-08 -1.80214e-09 9.11125e-10)
(5.0855e-08 -5.30885e-09 1.30648e-09)
(5.35908e-08 -7.32837e-09 1.66326e-09)
(5.91904e-08 -8.35523e-09 1.96126e-09)
(6.90981e-08 -1.07404e-08 2.1969e-09)
(8.52261e-08 -3.39505e-08 2.37483e-09)
(1.81137e-08 4.27296e-08 7.92959e-08)
(2.84364e-08 2.84481e-08 8.98671e-08)
(2.97355e-08 1.77325e-08 9.69046e-08)
(2.97599e-08 1.12337e-08 1.02537e-07)
(3.07075e-08 6.57108e-09 1.08523e-07)
(3.3278e-08 2.52075e-09 1.16106e-07)
(3.84178e-08 -4.342e-09 1.26191e-07)
(4.64012e-08 -3.7376e-08 1.39516e-07)
(1.04904e-09 2.93451e-08 7.23171e-08)
(4.43511e-09 2.14814e-08 8.29271e-08)
(5.62052e-09 1.5057e-08 8.93112e-08)
(6.12715e-09 9.74426e-09 9.45395e-08)
(7.01603e-09 4.75916e-09 1.00369e-07)
(8.65404e-09 -5.24722e-11 1.08011e-07)
(1.12877e-08 -6.65552e-09 1.18628e-07)
(1.42623e-08 -3.59835e-08 1.33928e-07)
(-3.62706e-10 2.92706e-08 7.18304e-08)
(-1.95188e-09 2.11267e-08 8.26414e-08)
(-1.0764e-09 1.4426e-08 8.91718e-08)
(7.1962e-10 8.86805e-09 9.45098e-08)
(2.39052e-09 3.66029e-09 1.00425e-07)
(3.58174e-09 -1.36634e-09 1.08137e-07)
(4.04574e-09 -8.18065e-09 1.1882e-07)
(4.355e-09 -3.75847e-08 1.34217e-07)
(-1.71432e-08 4.22706e-08 7.80773e-08)
(-2.5603e-08 2.71581e-08 8.93418e-08)
(-2.48671e-08 1.56744e-08 9.68195e-08)
(-2.26023e-08 8.4861e-09 1.02778e-07)
(-2.09908e-08 3.19491e-09 1.0902e-07)
(-2.07417e-08 -1.45695e-09 1.16813e-07)
(-2.28405e-08 -8.9235e-09 1.27086e-07)
(-2.7635e-08 -4.22877e-08 1.40677e-07)
(-7.22715e-08 3.95313e-08 1.82986e-08)
(-7.71667e-08 2.37838e-08 3.26978e-08)
(-7.75783e-08 1.2295e-08 3.91595e-08)
(-7.70053e-08 5.46873e-09 4.35476e-08)
(-7.75597e-08 5.5896e-10 4.77028e-08)
(-8.04041e-08 -3.71172e-09 5.25185e-08)
(-8.65893e-08 -1.06646e-08 5.88391e-08)
(-9.7184e-08 -4.34987e-08 6.65687e-08)
(-5.956e-08 2.19934e-08 5.07164e-10)
(-6.36767e-08 1.24887e-08 8.48505e-09)
(-6.35542e-08 5.56568e-09 1.48906e-08)
(-6.27653e-08 7.18115e-10 1.93125e-08)
(-6.32653e-08 -3.38287e-09 2.30338e-08)
(-6.62884e-08 -7.11007e-09 2.69162e-08)
(-7.31729e-08 -1.25208e-08 3.10475e-08)
(-8.58525e-08 -4.02644e-08 3.37199e-08)
(-5.1259e-08 1.62057e-08 1.35193e-10)
(-5.53078e-08 6.76498e-09 5.26167e-09)
(-5.52597e-08 7.30047e-10 1.09047e-08)
(-5.45419e-08 -3.14007e-09 1.54641e-08)
(-5.50887e-08 -6.30492e-09 1.92039e-08)
(-5.82466e-08 -8.95465e-09 2.25832e-08)
(-6.54861e-08 -1.2906e-08 2.54475e-08)
(-7.88728e-08 -3.84158e-08 2.67089e-08)
(-4.66266e-08 1.43245e-08 7.64758e-10)
(-5.04621e-08 4.52014e-09 4.5355e-09)
(-5.06175e-08 -1.85692e-09 8.9898e-09)
(-5.01009e-08 -5.6319e-09 1.30305e-08)
(-5.07728e-08 -8.30398e-09 1.64205e-08)
(-5.40397e-08 -1.02337e-08 1.92301e-08)
(-6.14306e-08 -1.34844e-08 2.13491e-08)
(-7.50295e-08 -3.80339e-08 2.2385e-08)
(-4.41233e-08 1.35451e-08 9.23325e-10)
(-4.78552e-08 3.65697e-09 3.77161e-09)
(-4.81852e-08 -3.05607e-09 7.06163e-09)
(-4.78638e-08 -7.02283e-09 1.02221e-08)
(-4.86705e-08 -9.60155e-09 1.29558e-08)
(-5.20204e-08 -1.12778e-08 1.51697e-08)
(-5.94615e-08 -1.43162e-08 1.68068e-08)
(-7.30835e-08 -3.83611e-08 1.77737e-08)
(-4.27182e-08 1.31529e-08 7.7621e-10)
(-4.64258e-08 3.28329e-09 2.79482e-09)
(-4.68765e-08 -3.59449e-09 5.04746e-09)
(-4.66956e-08 -7.74963e-09 7.2561e-09)
(-4.76053e-08 -1.04144e-08 9.21229e-09)
(-5.101e-08 -1.20982e-08 1.08109e-08)
(-5.84604e-08 -1.51326e-08 1.20193e-08)
(-7.2061e-08 -3.88995e-08 1.28259e-08)
(-4.19369e-08 1.29454e-08 4.97033e-10)
(-4.5642e-08 3.10393e-09 1.70286e-09)
(-4.61644e-08 -3.84087e-09 3.0172e-09)
(-4.60679e-08 -8.11714e-09 4.31199e-09)
(-4.70416e-08 -1.0892e-08 5.47561e-09)
(-5.04782e-08 -1.26576e-08 6.44158e-09)
(-5.7927e-08 -1.57443e-08 7.19129e-09)
(-7.1507e-08 -3.93704e-08 7.72511e-09)
(-4.15822e-08 1.2853e-08 1.69598e-10)
(-4.52869e-08 3.02749e-09 5.70421e-10)
(-4.58416e-08 -3.9411e-09 1.00254e-09)
(-4.57837e-08 -8.27421e-09 1.4284e-09)
(-4.67871e-08 -1.11147e-08 1.8137e-09)
(-5.02382e-08 -1.29387e-08 2.13677e-09)
(-5.76851e-08 -1.60646e-08 2.3914e-09)
(-7.12544e-08 -3.96335e-08 2.57772e-09)
(4.6767e-08 -1.13949e-07 6.51828e-08)
(3.95692e-08 -1.05071e-07 3.21279e-08)
(3.51952e-08 -9.94115e-08 2.51963e-08)
(3.31745e-08 -9.62291e-08 2.11258e-08)
(3.22636e-08 -9.47371e-08 1.68623e-08)
(3.17938e-08 -9.41376e-08 1.22472e-08)
(3.15203e-08 -9.39432e-08 7.415e-09)
(3.13856e-08 -9.38991e-08 2.48112e-09)
(1.46166e-08 -1.09071e-07 6.30953e-08)
(1.24204e-08 -9.82509e-08 3.3782e-08)
(1.0567e-08 -9.2105e-08 2.72003e-08)
(9.60349e-09 -8.88959e-08 2.24463e-08)
(9.13587e-09 -8.74808e-08 1.75928e-08)
(8.86805e-09 -8.69296e-08 1.26293e-08)
(8.69837e-09 -8.67499e-08 7.60126e-09)
(8.61168e-09 -8.6707e-08 2.53757e-09)
(4.71479e-09 -1.10065e-07 6.39989e-08)
(5.16497e-09 -9.91675e-08 3.46203e-08)
(5.51271e-09 -9.29783e-08 2.7857e-08)
(5.26846e-09 -8.97318e-08 2.29442e-08)
(4.80858e-09 -8.8284e-08 1.79573e-08)
(4.4052e-09 -8.77072e-08 1.28783e-08)
(4.14005e-09 -8.75101e-08 7.74631e-09)
(4.01339e-09 -8.74584e-08 2.58521e-09)
(-2.7268e-08 -1.17248e-07 6.79734e-08)
(-2.17318e-08 -1.08154e-07 3.46074e-08)
(-1.8822e-08 -1.02369e-07 2.71429e-08)
(-1.80136e-08 -9.90743e-08 2.26159e-08)
(-1.80459e-08 -9.74852e-08 1.79601e-08)
(-1.82602e-08 -9.68104e-08 1.29991e-08)
(-1.84299e-08 -9.65649e-08 7.85339e-09)
(-1.85126e-08 -9.64951e-08 2.62512e-09)
)
;
        gradient        uniform (0 0 0);
    }
    symmetry
    {
        type            solidSymmetry;
        patchType       symmetry;
        secondOrder     false;
        value           nonuniform List<vector> 
32
(
(8.35308e-09 8.07079e-09 0)
(1.33609e-08 2.97156e-09 0)
(1.39298e-08 -1.93199e-09 0)
(1.38799e-08 -5.49236e-09 0)
(1.46632e-08 -8.14272e-09 0)
(1.71363e-08 -1.02891e-08 0)
(2.23971e-08 -1.40922e-08 0)
(3.05414e-08 -3.64096e-08 0)
(-3.78051e-10 5.06077e-10 0)
(8.60475e-10 -1.244e-09 0)
(1.30794e-09 -3.72476e-09 0)
(1.51473e-09 -6.70091e-09 0)
(2.11636e-09 -9.82449e-09 0)
(3.4885e-09 -1.28047e-08 0)
(5.90736e-09 -1.64486e-08 0)
(8.64668e-09 -3.48624e-08 0)
(3.53133e-10 3.97839e-10 0)
(-4.8483e-10 -1.57947e-09 0)
(-1.37041e-10 -4.27527e-09 0)
(8.57897e-10 -7.45748e-09 0)
(1.8769e-09 -1.07856e-08 0)
(2.54057e-09 -1.39724e-08 0)
(2.55176e-09 -1.78141e-08 0)
(2.54711e-09 -3.62655e-08 0)
(-8.13813e-09 7.65186e-09 0)
(-1.26664e-08 1.9542e-09 0)
(-1.24314e-08 -3.56515e-09 0)
(-1.11628e-08 -7.74118e-09 0)
(-1.02996e-08 -1.10038e-08 0)
(-1.07195e-08 -1.37591e-08 0)
(-1.35818e-08 -1.81556e-08 0)
(-1.90836e-08 -4.0723e-08 0)
)
;
    }
    bottom
    {
        type            fixedDisplacement;
        value           uniform (0 0 0);
    }
}


// ************************************************************************* //
