/*--------------------------------*- C++ -*----------------------------------*\
| =========                 |                                                 |
| \\      /  F ield         | OpenFOAM: The Open Source CFD Toolbox           |
|  \\    /   O peration     | Version:  v1912                                 |
|   \\  /    A nd           | Website:  www.openfoam.com                      |
|    \\/     M anipulation  |                                                 |
\*---------------------------------------------------------------------------*/
FoamFile
{
    version     2.0;
    format      ascii;
    class       volVectorField;
    location    "0.42/solid";
    object      D_0_0;
}
// * * * * * * * * * * * * * * * * * * * * * * * * * * * * * * * * * * * * * //

dimensions      [0 1 0 0 0 0 0];


internalField   nonuniform List<vector> 
256
(
(1.75651e-08 2.93205e-08 1.85536e-08)
(1.37412e-09 1.70726e-08 1.69002e-08)
(-8.00839e-10 1.68975e-08 1.70039e-08)
(-1.67285e-08 2.85137e-08 1.89557e-08)
(2.73916e-08 2.31715e-08 3.22622e-08)
(4.73693e-09 1.64574e-08 3.01835e-08)
(-2.58591e-09 1.60073e-08 3.05121e-08)
(-2.49059e-08 2.15914e-08 3.33618e-08)
(2.86128e-08 1.52882e-08 3.78801e-08)
(5.89207e-09 1.27045e-08 3.57193e-08)
(-1.83823e-09 1.19994e-08 3.62198e-08)
(-2.42426e-08 1.30094e-08 3.94854e-08)
(2.86665e-08 9.60043e-09 4.15482e-08)
(6.40894e-09 8.17579e-09 3.9305e-08)
(-1.59519e-10 7.24137e-09 3.99287e-08)
(-2.21117e-08 6.67784e-09 4.35188e-08)
(2.96167e-08 5.09143e-09 4.50768e-08)
(7.29963e-09 3.34962e-09 4.27938e-08)
(1.435e-09 2.20061e-09 4.35114e-08)
(-2.0577e-08 1.56397e-09 4.73284e-08)
(3.2109e-08 8.39053e-10 4.92704e-08)
(8.90268e-09 -1.66068e-09 4.69792e-08)
(2.60636e-09 -3.02176e-09 4.77753e-08)
(-2.03034e-08 -3.27983e-09 5.17564e-08)
(3.70095e-08 -6.23659e-09 5.49157e-08)
(1.14289e-08 -8.58915e-09 5.26946e-08)
(3.13661e-09 -1.01585e-08 5.35615e-08)
(-2.22018e-08 -1.09476e-08 5.76095e-08)
(4.45895e-08 -3.69675e-08 6.20341e-08)
(1.42296e-08 -3.57483e-08 6.01033e-08)
(3.60287e-09 -3.73805e-08 6.10255e-08)
(-2.66136e-08 -4.19701e-08 6.48824e-08)
(1.33566e-08 1.45707e-08 1.64075e-09)
(6.35448e-10 4.30002e-09 2.27581e-09)
(-3.10209e-10 4.12612e-09 2.42664e-09)
(-1.2698e-08 1.3813e-08 2.08378e-09)
(2.10345e-08 1.27124e-08 9.45893e-09)
(3.22594e-09 6.9137e-09 1.06835e-08)
(-1.70018e-09 6.42353e-09 1.10444e-08)
(-1.90944e-08 1.1095e-08 1.05096e-08)
(2.18291e-08 8.87353e-09 1.51483e-08)
(4.14038e-09 6.52834e-09 1.66089e-08)
(-1.01132e-09 5.78282e-09 1.71219e-08)
(-1.83062e-08 6.55019e-09 1.66441e-08)
(2.17218e-08 5.07324e-09 1.89056e-08)
(4.56211e-09 3.70665e-09 2.04605e-08)
(5.22905e-10 2.74264e-09 2.10869e-08)
(-1.62486e-08 2.12224e-09 2.07394e-08)
(2.25577e-08 1.33622e-09 2.20474e-08)
(5.37682e-09 -3.83529e-10 2.36491e-08)
(2.00032e-09 -1.5525e-09 2.43651e-08)
(-1.47836e-08 -2.205e-09 2.41495e-08)
(2.50084e-08 -2.45579e-09 2.53687e-08)
(6.92273e-09 -4.95076e-09 2.6995e-08)
(3.07045e-09 -6.32331e-09 2.77851e-08)
(-1.46163e-08 -6.57444e-09 2.7693e-08)
(2.99849e-08 -8.19748e-09 2.89577e-08)
(9.41843e-09 -1.05379e-08 3.06032e-08)
(3.50159e-09 -1.21044e-08 3.14508e-08)
(-1.67148e-08 -1.28791e-08 3.14563e-08)
(3.77886e-08 -3.41016e-08 3.12916e-08)
(1.21979e-08 -3.26199e-08 3.29652e-08)
(3.89208e-09 -3.4218e-08 3.38348e-08)
(-2.14595e-08 -3.90041e-08 3.38647e-08)
(1.06722e-08 1.0383e-08 7.11655e-10)
(5.52423e-12 1.40621e-09 1.47719e-09)
(1.61245e-10 1.25093e-09 1.5882e-09)
(-1.01723e-08 9.73448e-09 1.02808e-09)
(1.69739e-08 7.27542e-09 5.57003e-09)
(1.89956e-09 2.21623e-09 7.0346e-09)
(-8.2836e-10 1.75278e-09 7.30914e-09)
(-1.54746e-08 5.79867e-09 6.3527e-09)
(1.75819e-08 4.00201e-09 1.05505e-08)
(2.60434e-09 1.89408e-09 1.22697e-08)
(-1.88255e-10 1.17616e-09 1.26657e-08)
(-1.47509e-08 1.81295e-09 1.1689e-08)
(1.74259e-08 1.15616e-09 1.44786e-08)
(2.94765e-09 -1.50272e-10 1.62975e-08)
(1.20614e-09 -1.0863e-09 1.6789e-08)
(-1.28577e-08 -1.67034e-09 1.59032e-08)
(1.8204e-08 -1.66838e-09 1.76743e-08)
(3.69559e-09 -3.37245e-09 1.95432e-08)
(2.56948e-09 -4.51227e-09 2.01133e-08)
(-1.151e-08 -5.09218e-09 1.93363e-08)
(2.06574e-08 -4.47461e-09 2.05688e-08)
(5.19431e-09 -6.96962e-09 2.24606e-08)
(3.53883e-09 -8.30995e-09 2.30952e-08)
(-1.14876e-08 -8.47674e-09 2.24269e-08)
(2.57377e-08 -8.8879e-09 2.30436e-08)
(7.6736e-09 -1.12287e-08 2.49404e-08)
(3.86605e-09 -1.27566e-08 2.56199e-08)
(-1.38061e-08 -1.34442e-08 2.50435e-08)
(3.36422e-08 -3.26722e-08 2.41764e-08)
(1.04407e-08 -3.11573e-08 2.60845e-08)
(4.16806e-09 -3.27087e-08 2.67722e-08)
(-1.87511e-08 -3.74345e-08 2.62165e-08)
(9.39057e-09 9.18247e-09 9.07069e-10)
(-2.59486e-10 9.21266e-10 1.37302e-09)
(3.38008e-10 7.82552e-10 1.45191e-09)
(-9.01208e-09 8.62273e-09 1.13226e-09)
(1.49811e-08 5.02688e-09 4.33566e-09)
(1.26603e-09 3.986e-10 5.25813e-09)
(-4.90545e-10 -2.40227e-11 5.45806e-09)
(-1.38118e-08 3.70717e-09 4.90514e-09)
(1.55489e-08 1.21612e-09 8.2344e-09)
(1.84931e-09 -7.35433e-10 9.33137e-09)
(6.59344e-11 -1.40413e-09 9.62394e-09)
(-1.3244e-08 -7.99248e-10 9.07547e-09)
(1.5426e-08 -1.54144e-09 1.17347e-08)
(2.14522e-09 -2.80045e-09 1.28977e-08)
(1.32305e-09 -3.68669e-09 1.3266e-08)
(-1.15626e-08 -4.1989e-09 1.28038e-08)
(1.61957e-08 -3.87534e-09 1.46594e-08)
(2.84557e-09 -5.56224e-09 1.58566e-08)
(2.57539e-09 -6.6537e-09 1.62892e-08)
(-1.03615e-08 -7.14045e-09 1.59246e-08)
(1.86476e-08 -6.00247e-09 1.7087e-08)
(4.30253e-09 -8.49163e-09 1.83025e-08)
(3.45412e-09 -9.78469e-09 1.8788e-08)
(-1.0467e-08 -9.85526e-09 1.85151e-08)
(2.37662e-08 -9.75706e-09 1.8945e-08)
(6.7553e-09 -1.21032e-08 2.01676e-08)
(3.69778e-09 -1.35849e-08 2.06881e-08)
(-1.29299e-08 -1.41721e-08 2.04871e-08)
(3.16888e-08 -3.26122e-08 1.9932e-08)
(9.50144e-09 -3.11409e-08 2.1172e-08)
(3.92564e-09 -3.26495e-08 2.16961e-08)
(-1.79832e-08 -3.72455e-08 2.15014e-08)
(8.81458e-09 8.65109e-09 8.94948e-10)
(-3.38233e-10 7.69942e-10 1.13076e-09)
(3.66107e-10 6.44426e-10 1.18618e-09)
(-8.51789e-09 8.15714e-09 1.05275e-09)
(1.40715e-08 4.06332e-09 3.42026e-09)
(1.02728e-09 -3.33748e-10 3.90365e-09)
(-4.40946e-10 -7.20391e-10 4.04556e-09)
(-1.31292e-08 2.87221e-09 3.82324e-09)
(1.46397e-08 -2.0445e-10 6.28762e-09)
(1.54682e-09 -2.06704e-09 6.87319e-09)
(2.8214e-11 -2.68912e-09 7.08276e-09)
(-1.27063e-08 -2.06613e-09 6.88873e-09)
(1.45598e-08 -3.16541e-09 9.03388e-09)
(1.8115e-09 -4.39203e-09 9.65946e-09)
(1.17141e-09 -5.22923e-09 9.92579e-09)
(-1.12082e-08 -5.66595e-09 9.80646e-09)
(1.53362e-08 -5.39918e-09 1.14087e-08)
(2.47562e-09 -7.06715e-09 1.20571e-08)
(2.32986e-09 -8.1108e-09 1.23727e-08)
(-1.01408e-08 -8.51449e-09 1.23325e-08)
(1.7775e-08 -7.2749e-09 1.33413e-08)
(3.89341e-09 -9.74869e-09 1.40066e-08)
(3.1358e-09 -1.09966e-08 1.43631e-08)
(-1.03429e-08 -1.09891e-08 1.43922e-08)
(2.28831e-08 -1.08136e-08 1.48037e-08)
(6.31179e-09 -1.31524e-08 1.54813e-08)
(3.31884e-09 -1.45928e-08 1.58644e-08)
(-1.28874e-08 -1.51039e-08 1.59434e-08)
(3.07835e-08 -3.31687e-08 1.57485e-08)
(9.03098e-09 -3.17294e-08 1.6442e-08)
(3.49176e-09 -3.32023e-08 1.68272e-08)
(-1.7997e-08 -3.76945e-08 1.69087e-08)
(8.53776e-09 8.34593e-09 7.14537e-10)
(-3.58406e-10 6.69121e-10 8.2687e-10)
(3.56683e-10 5.53243e-10 8.63769e-10)
(-8.29243e-09 7.89745e-09 8.18902e-10)
(1.36387e-08 3.58458e-09 2.48697e-09)
(9.36084e-10 -6.89123e-10 2.72485e-09)
(-4.68351e-10 -1.04901e-09 2.81971e-09)
(-1.28425e-08 2.48636e-09 2.75475e-09)
(1.42113e-08 -9.24594e-10 4.44877e-09)
(1.41954e-09 -2.7375e-09 4.74321e-09)
(-6.69339e-11 -3.32364e-09 4.88406e-09)
(-1.25239e-08 -2.67041e-09 4.85083e-09)
(1.41576e-08 -4.08803e-09 6.37297e-09)
(1.66023e-09 -5.2927e-09 6.69196e-09)
(9.95035e-10 -6.09096e-09 6.87208e-09)
(-1.11536e-08 -6.46618e-09 6.89374e-09)
(1.49365e-08 -6.40105e-09 8.08106e-09)
(2.29519e-09 -8.05119e-09 8.41618e-09)
(2.08436e-09 -9.05642e-09 8.63097e-09)
(-1.01847e-08 -9.39747e-09 8.7085e-09)
(1.73568e-08 -8.27316e-09 9.48805e-09)
(3.6794e-09 -1.07278e-08 9.83809e-09)
(2.83677e-09 -1.19397e-08 1.00818e-08)
(-1.04536e-08 -1.18775e-08 1.02063e-08)
(2.24396e-08 -1.17924e-08 1.05814e-08)
(6.06577e-09 -1.41132e-08 1.09446e-08)
(2.97665e-09 -1.55214e-08 1.12073e-08)
(-1.30459e-08 -1.59851e-08 1.13635e-08)
(3.03102e-08 -3.38654e-08 1.1375e-08)
(8.75945e-09 -3.24282e-08 1.17495e-08)
(3.11068e-09 -3.38737e-08 1.20134e-08)
(-1.81882e-08 -3.83085e-08 1.21719e-08)
(8.39451e-09 8.17262e-09 4.51517e-10)
(-3.65275e-10 6.04776e-10 5.02037e-10)
(3.47167e-10 4.95119e-10 5.23187e-10)
(-8.17891e-09 7.75244e-09 5.10976e-10)
(1.34169e-08 3.33002e-09 1.50859e-09)
(8.93494e-10 -8.78535e-10 1.61837e-09)
(-4.94893e-10 -1.22109e-09 1.67285e-09)
(-1.27069e-08 2.29106e-09 1.66154e-09)
(1.39904e-08 -1.29355e-09 2.65436e-09)
(1.35525e-09 -3.0788e-09 2.79295e-09)
(-1.36125e-10 -3.64125e-09 2.87409e-09)
(-1.24512e-08 -2.96364e-09 2.88493e-09)
(1.39474e-08 -4.58992e-09 3.78481e-09)
(1.57832e-09 -5.78005e-09 3.93741e-09)
(8.75711e-10 -6.55218e-09 4.04158e-09)
(-1.11571e-08 -6.88638e-09 4.08496e-09)
(1.47234e-08 -7.00889e-09 4.80437e-09)
(2.19194e-09 -8.64517e-09 4.96728e-09)
(1.92104e-09 -9.62435e-09 5.09199e-09)
(-1.02492e-08 -9.92487e-09 5.16784e-09)
(1.71272e-08 -8.95229e-09 5.65914e-09)
(3.55191e-09 -1.13907e-08 5.83241e-09)
(2.6384e-09 -1.25782e-08 5.97438e-09)
(-1.05596e-08 -1.24819e-08 6.07701e-09)
(2.21887e-08 -1.25108e-08 6.34216e-09)
(5.91522e-09 -1.48131e-08 6.52501e-09)
(2.74954e-09 -1.61995e-08 6.67829e-09)
(-1.31809e-08 -1.66373e-08 6.79853e-09)
(3.00368e-08 -3.44369e-08 6.86802e-09)
(8.59007e-09 -3.2987e-08 7.05705e-09)
(2.85817e-09 -3.44139e-08 7.21105e-09)
(-1.83442e-08 -3.88238e-08 7.33336e-09)
(8.33028e-09 8.09397e-09 1.53653e-10)
(-3.68443e-10 5.74428e-10 1.68284e-10)
(3.43065e-10 4.67807e-10 1.75174e-10)
(-8.12831e-09 7.6873e-09 1.72959e-10)
(1.33171e-08 3.21609e-09 5.05237e-10)
(8.73938e-10 -9.63669e-10 5.37487e-10)
(-5.07089e-10 -1.29775e-09 5.55247e-10)
(-1.2647e-08 2.20584e-09 5.54956e-10)
(1.38895e-08 -1.45447e-09 8.82312e-10)
(1.32496e-09 -3.22693e-09 9.23501e-10)
(-1.68252e-10 -3.77771e-09 9.49996e-10)
(-1.24199e-08 -3.08741e-09 9.57413e-10)
(1.38494e-08 -4.81426e-09 1.25457e-09)
(1.53854e-09 -5.99691e-09 1.30041e-09)
(8.20015e-10 -6.75604e-09 1.33449e-09)
(-1.11606e-08 -7.07018e-09 1.35258e-09)
(1.46222e-08 -7.29712e-09 1.59276e-09)
(2.14083e-09 -8.92582e-09 1.64221e-09)
(1.8442e-09 -9.89195e-09 1.68309e-09)
(-1.02813e-08 -1.01728e-08 1.71175e-09)
(1.70167e-08 -9.29347e-09 1.87937e-09)
(3.4882e-09 -1.17228e-08 1.93252e-09)
(2.54422e-09 -1.2898e-08 1.97914e-09)
(-1.06116e-08 -1.27855e-08 2.01648e-09)
(2.20668e-08 -1.28844e-08 2.11202e-09)
(5.83973e-09 -1.51756e-08 2.16861e-09)
(2.64077e-09 -1.6551e-08 2.21899e-09)
(-1.32473e-08 -1.69776e-08 2.26199e-09)
(2.99037e-08 -3.47493e-08 2.29556e-09)
(8.50481e-09 -3.32887e-08 2.35406e-09)
(2.73668e-09 -3.47062e-08 2.40468e-09)
(-1.84214e-08 -3.9108e-08 2.44854e-09)
)
;

boundaryField
{
    interface
    {
        type            solidTraction;
        traction        uniform (0 0 0);
        pressure        uniform 0;
        secondOrder     false;
        setEffectiveTraction false;
        relaxationFactor 1;
        value           nonuniform List<vector> 
192
(
(7.50181e-08 4.05596e-08 1.74251e-08)
(8.13675e-08 2.59334e-08 3.04877e-08)
(8.36674e-08 1.56069e-08 3.59769e-08)
(8.53267e-08 9.85149e-09 3.9605e-08)
(8.83825e-08 5.95222e-09 4.31022e-08)
(9.39123e-08 2.6875e-09 4.72833e-08)
(1.02806e-07 -3.11614e-09 5.29424e-08)
(1.15929e-07 -3.4642e-08 6.0087e-08)
(6.2549e-08 2.31685e-08 -8.2743e-11)
(6.782e-08 1.48305e-08 6.85405e-09)
(6.93166e-08 9.0454e-09 1.239e-08)
(7.05542e-08 5.25551e-09 1.6095e-08)
(7.34116e-08 2.15802e-09 1.91938e-08)
(7.90266e-08 -5.98705e-10 2.25054e-08)
(8.85486e-08 -5.00206e-09 2.61394e-08)
(1.03601e-07 -3.17453e-08 2.85545e-08)
(5.41554e-08 1.72945e-08 -2.80074e-10)
(5.91739e-08 9.00283e-09 4.05631e-09)
(6.05188e-08 4.11508e-09 8.98005e-09)
(6.16232e-08 1.31183e-09 1.29043e-08)
(6.43646e-08 -8.60324e-10 1.60835e-08)
(6.99921e-08 -2.59087e-09 1.89783e-08)
(7.97809e-08 -5.64127e-09 2.14886e-08)
(9.54908e-08 -3.02877e-08 2.26512e-08)
(4.93676e-08 1.52754e-08 4.42524e-10)
(5.40061e-08 6.56647e-09 3.60984e-09)
(5.53716e-08 1.3274e-09 7.49861e-09)
(5.65008e-08 -1.37961e-09 1.10179e-08)
(5.92146e-08 -3.06972e-09 1.39422e-08)
(6.48289e-08 -4.10951e-09 1.63662e-08)
(7.4683e-08 -6.49631e-09 1.82311e-08)
(9.05665e-08 -3.02143e-08 1.92172e-08)
(4.67353e-08 1.43726e-08 6.81647e-10)
(5.11379e-08 5.51961e-09 3.08449e-09)
(5.2537e-08 -8.22936e-11 5.95304e-09)
(5.37211e-08 -2.99114e-09 8.71662e-09)
(5.64418e-08 -4.59518e-09 1.10938e-08)
(6.20329e-08 -5.38779e-09 1.30184e-08)
(7.18595e-08 -7.56104e-09 1.44719e-08)
(8.77252e-08 -3.07729e-08 1.54037e-08)
(4.52423e-08 1.389e-08 6.0946e-10)
(4.95279e-08 5.00299e-09 2.32321e-09)
(5.09473e-08 -7.94782e-10 4.28632e-09)
(5.2169e-08 -3.90658e-09 6.21974e-09)
(5.48961e-08 -5.60103e-09 7.92775e-09)
(6.04593e-08 -6.39699e-09 9.32602e-09)
(7.02323e-08 -8.55352e-09 1.04077e-08)
(8.60393e-08 -3.14792e-08 1.11883e-08)
(4.44082e-08 1.36255e-08 3.99612e-10)
(4.86343e-08 4.72901e-09 1.42813e-09)
(5.0062e-08 -1.16085e-09 2.57385e-09)
(5.13015e-08 -4.4065e-09 3.70768e-09)
(5.40285e-08 -6.21368e-09 4.72573e-09)
(5.95674e-08 -7.08557e-09 5.57406e-09)
(6.92951e-08 -9.28288e-09 6.24891e-09)
(8.50533e-08 -3.20602e-08 6.76636e-09)
(4.40289e-08 1.35058e-08 1.37585e-10)
(4.82279e-08 4.60593e-09 4.80268e-10)
(4.96575e-08 -1.32132e-09 8.57086e-10)
(5.0903e-08 -4.63094e-09 1.23006e-09)
(5.3628e-08 -6.50505e-09 1.56744e-09)
(5.91532e-08 -7.43191e-09 1.85172e-09)
(6.88565e-08 -9.66215e-09 2.08154e-09)
(8.45892e-08 -3.23782e-08 2.26228e-09)
(1.77168e-08 4.20246e-08 7.89212e-08)
(2.77605e-08 2.80033e-08 8.90325e-08)
(2.90257e-08 1.76098e-08 9.57441e-08)
(2.90787e-08 1.13997e-08 1.01089e-07)
(3.00347e-08 7.02206e-09 1.06785e-07)
(3.25312e-08 3.29885e-09 1.14051e-07)
(3.74423e-08 -3.04558e-09 1.23772e-07)
(4.50819e-08 -3.50722e-08 1.36644e-07)
(9.87209e-10 2.88436e-08 7.20631e-08)
(4.30033e-09 2.11623e-08 8.22434e-08)
(5.478e-09 1.49849e-08 8.83176e-08)
(6.00512e-09 9.94444e-09 9.32786e-08)
(6.90932e-09 5.26819e-09 9.8844e-08)
(8.52993e-09 8.14528e-10 1.06198e-07)
(1.10914e-08 -5.30813e-09 1.16464e-07)
(1.39786e-08 -3.38001e-08 1.31258e-07)
(-2.86424e-10 2.87766e-08 7.15874e-08)
(-1.79036e-09 2.08113e-08 8.19713e-08)
(-8.95606e-10 1.43536e-08 8.8194e-08)
(8.95024e-10 9.06428e-09 9.32665e-08)
(2.56976e-09 4.16222e-09 9.89189e-08)
(3.80175e-09 -5.09262e-10 1.06344e-07)
(4.36645e-09 -6.846e-09 1.16677e-07)
(4.79889e-09 -3.54196e-08 1.31572e-07)
(-1.67486e-08 4.15931e-08 7.77381e-08)
(-2.49228e-08 2.67239e-08 8.85514e-08)
(-2.41415e-08 1.55487e-08 9.57105e-08)
(-2.18901e-08 8.63857e-09 1.01386e-07)
(-2.02682e-08 3.62334e-09 1.07342e-07)
(-1.99221e-08 -7.0962e-10 1.14823e-07)
(-2.17649e-08 -7.66621e-09 1.24735e-07)
(-2.61847e-08 -4.00402e-08 1.37879e-07)
(-7.19428e-08 3.89224e-08 1.79382e-08)
(-7.65888e-08 2.34701e-08 3.19009e-08)
(-7.69594e-08 1.23109e-08 3.80524e-08)
(-7.63956e-08 5.76139e-09 4.21643e-08)
(-7.69382e-08 1.11178e-09 4.60349e-08)
(-7.96962e-08 -2.87381e-09 5.05258e-08)
(-8.56533e-08 -9.37024e-09 5.64567e-08)
(-9.58117e-08 -4.12661e-08 6.38089e-08)
(-5.94937e-08 2.17612e-08 4.44746e-10)
(-6.34748e-08 1.24971e-08 8.15188e-09)
(-6.3341e-08 5.83872e-09 1.42713e-08)
(-6.25747e-08 1.24152e-09 1.84259e-08)
(-6.30775e-08 -2.61316e-09 2.18828e-08)
(-6.60309e-08 -6.09177e-09 2.54892e-08)
(-7.2698e-08 -1.11684e-08 2.93575e-08)
(-8.4914e-08 -3.82217e-08 3.18992e-08)
(-5.13177e-08 1.61463e-08 1.06647e-10)
(-5.53073e-08 6.94332e-09 5.03217e-09)
(-5.52661e-08 1.1587e-09 1.04236e-08)
(-5.45727e-08 -2.48066e-09 1.47319e-08)
(-5.51227e-08 -5.43478e-09 1.82309e-08)
(-5.82099e-08 -7.90285e-09 2.13897e-08)
(-6.52282e-08 -1.16284e-08 2.40974e-08)
(-7.81614e-08 -3.65753e-08 2.53477e-08)
(-4.6733e-08 1.43287e-08 7.18673e-10)
(-5.05424e-08 4.76514e-09 4.31886e-09)
(-5.07121e-08 -1.36158e-09 8.56442e-09)
(-5.02172e-08 -4.91961e-09 1.23915e-08)
(-5.08873e-08 -7.41444e-09 1.55824e-08)
(-5.40787e-08 -9.21329e-09 1.8229e-08)
(-6.12474e-08 -1.22931e-08 2.02576e-08)
(-7.44086e-08 -3.63285e-08 2.13131e-08)
(-4.42438e-08 1.35689e-08 8.72873e-10)
(-4.7958e-08 3.9193e-09 3.58099e-09)
(-4.83021e-08 -2.54643e-09 6.70881e-09)
(-4.79982e-08 -6.3074e-09 9.7043e-09)
(-4.87976e-08 -8.73089e-09 1.22885e-08)
(-5.20682e-08 -1.03025e-08 1.4389e-08)
(-5.92884e-08 -1.31904e-08 1.59725e-08)
(-7.24867e-08 -3.67416e-08 1.69601e-08)
(-4.28411e-08 1.31812e-08 7.34178e-10)
(-4.65306e-08 3.54421e-09 2.64923e-09)
(-4.69926e-08 -3.09268e-09 4.78713e-09)
(-4.68252e-08 -7.05106e-09 6.88104e-09)
(-4.77237e-08 -9.57254e-09 8.73566e-09)
(-5.10469e-08 -1.11623e-08 1.02605e-08)
(-5.82785e-08 -1.40515e-08 1.14369e-08)
(-7.14655e-08 -3.7335e-08 1.22587e-08)
(-4.20595e-08 1.29739e-08 4.69961e-10)
(-4.57448e-08 3.35912e-09 1.6127e-09)
(-4.6276e-08 -3.35114e-09 2.85898e-09)
(-4.61902e-08 -7.43697e-09 4.08677e-09)
(-4.71504e-08 -1.00743e-08 5.19201e-09)
(-5.05045e-08 -1.17491e-08 6.11657e-09)
(-5.77363e-08 -1.46912e-08 6.84894e-09)
(-7.09091e-08 -3.78393e-08 7.39171e-09)
(-4.17044e-08 1.28811e-08 1.60312e-10)
(-4.53883e-08 3.27873e-09 5.39992e-10)
(-4.59505e-08 -3.45904e-09 9.49604e-10)
(-4.59021e-08 -7.60493e-09 1.35348e-09)
(-4.68909e-08 -1.03101e-08 1.71978e-09)
(-5.02592e-08 -1.20441e-08 2.02949e-09)
(-5.749e-08 -1.50252e-08 2.2786e-09)
(-7.06553e-08 -3.81184e-08 2.46787e-09)
(4.5449e-08 -1.11596e-07 6.22652e-08)
(3.85977e-08 -1.02983e-07 3.02177e-08)
(3.44572e-08 -9.74982e-08 2.3804e-08)
(3.25213e-08 -9.44385e-08 2.00561e-08)
(3.1623e-08 -9.30318e-08 1.60618e-08)
(3.11455e-08 -9.24892e-08 1.16921e-08)
(3.08641e-08 -9.23298e-08 7.08898e-09)
(3.07256e-08 -9.23025e-08 2.37366e-09)
(1.43341e-08 -1.06923e-07 6.02953e-08)
(1.22281e-08 -9.64196e-08 3.18175e-08)
(1.04509e-08 -9.04359e-08 2.57147e-08)
(9.51182e-09 -8.73232e-08 2.1315e-08)
(9.04043e-09 -8.59714e-08 1.67638e-08)
(8.76257e-09 -8.54636e-08 1.20639e-08)
(8.58535e-09 -8.53121e-08 7.27217e-09)
(8.49509e-09 -8.52832e-08 2.4295e-09)
(5.15955e-09 -1.07944e-07 6.12154e-08)
(5.48925e-09 -9.73608e-08 3.26669e-08)
(5.73845e-09 -9.13326e-08 2.63801e-08)
(5.45289e-09 -8.81816e-08 2.18196e-08)
(4.98417e-09 -8.67966e-08 1.71333e-08)
(4.58186e-09 -8.62628e-08 1.23163e-08)
(4.3185e-09 -8.60936e-08 7.41918e-09)
(4.19262e-09 -8.60558e-08 2.47778e-09)
(-2.58168e-08 -1.14975e-07 6.5106e-08)
(-2.06529e-08 -1.06141e-07 3.27309e-08)
(-1.79979e-08 -1.0053e-07 2.5777e-08)
(-1.72914e-08 -9.73552e-08 2.15665e-08)
(-1.73491e-08 -9.58498e-08 1.71745e-08)
(-1.7565e-08 -9.52308e-08 1.24542e-08)
(-1.77327e-08 -9.50196e-08 7.53325e-09)
(-1.78144e-08 -9.49662e-08 2.51959e-09)
)
;
        gradient        uniform (0 0 0);
    }
    symmetry
    {
        type            solidSymmetry;
        patchType       symmetry;
        secondOrder     false;
        value           nonuniform List<vector> 
32
(
(8.33028e-09 8.09397e-09 0)
(1.33171e-08 3.21609e-09 0)
(1.38895e-08 -1.45447e-09 0)
(1.38494e-08 -4.81426e-09 0)
(1.46222e-08 -7.29712e-09 0)
(1.70167e-08 -9.29347e-09 0)
(2.20668e-08 -1.28844e-08 0)
(2.99037e-08 -3.47493e-08 0)
(-3.68443e-10 5.74428e-10 0)
(8.73938e-10 -9.63669e-10 0)
(1.32496e-09 -3.22693e-09 0)
(1.53854e-09 -5.99691e-09 0)
(2.14083e-09 -8.92582e-09 0)
(3.4882e-09 -1.17228e-08 0)
(5.83973e-09 -1.51756e-08 0)
(8.50481e-09 -3.32887e-08 0)
(3.43065e-10 4.67807e-10 0)
(-5.07089e-10 -1.29775e-09 0)
(-1.68252e-10 -3.77771e-09 0)
(8.20015e-10 -6.75604e-09 0)
(1.8442e-09 -9.89195e-09 0)
(2.54422e-09 -1.2898e-08 0)
(2.64077e-09 -1.6551e-08 0)
(2.73668e-09 -3.47062e-08 0)
(-8.12831e-09 7.6873e-09 0)
(-1.2647e-08 2.20584e-09 0)
(-1.24199e-08 -3.08741e-09 0)
(-1.11606e-08 -7.07018e-09 0)
(-1.02813e-08 -1.01728e-08 0)
(-1.06116e-08 -1.27855e-08 0)
(-1.32473e-08 -1.69776e-08 0)
(-1.84214e-08 -3.9108e-08 0)
)
;
    }
    bottom
    {
        type            fixedDisplacement;
        value           uniform (0 0 0);
    }
}


// ************************************************************************* //
