/*--------------------------------*- C++ -*----------------------------------*\
| =========                 |                                                 |
| \\      /  F ield         | OpenFOAM: The Open Source CFD Toolbox           |
|  \\    /   O peration     | Version:  v1912                                 |
|   \\  /    A nd           | Website:  www.openfoam.com                      |
|    \\/     M anipulation  |                                                 |
\*---------------------------------------------------------------------------*/
FoamFile
{
    version     2.0;
    format      ascii;
    class       volVectorField;
    location    "0.42/solid";
    object      DD_0_0;
}
// * * * * * * * * * * * * * * * * * * * * * * * * * * * * * * * * * * * * * //

dimensions      [0 1 0 0 0 0 0];


internalField   nonuniform List<vector> 
256
(
(3.94148e-10 3.75041e-10 4.37184e-10)
(7.896e-11 2.02377e-10 3.7481e-10)
(-8.84695e-11 1.98187e-10 3.70427e-10)
(-3.87781e-10 3.57943e-10 4.22825e-10)
(6.64012e-10 2.43152e-10 9.30124e-10)
(1.59262e-10 1.21862e-10 8.46236e-10)
(-1.76722e-10 1.19594e-10 8.38067e-10)
(-6.6043e-10 2.37052e-10 9.04013e-10)
(6.95156e-10 -3.22721e-11 1.25815e-09)
(1.6849e-10 -7.97229e-11 1.17037e-09)
(-1.95088e-10 -7.86249e-11 1.1603e-09)
(-7.00728e-10 -2.70361e-11 1.2262e-09)
(6.68613e-10 -3.16075e-10 1.54294e-09)
(1.50719e-10 -3.43956e-10 1.4446e-09)
(-1.90563e-10 -3.39544e-10 1.43323e-09)
(-6.8733e-10 -3.01209e-10 1.50699e-09)
(6.64381e-10 -6.17239e-10 1.83538e-09)
(1.398e-10 -6.67924e-10 1.72049e-09)
(-1.97063e-10 -6.60512e-10 1.70804e-09)
(-7.00232e-10 -5.93797e-10 1.79616e-09)
(7.44008e-10 -9.7558e-10 2.16959e-09)
(1.6272e-10 -1.06069e-09 2.03657e-09)
(-2.41583e-10 -1.05052e-09 2.02311e-09)
(-8.01141e-10 -9.44182e-10 2.1274e-09)
(9.78958e-10 -1.51386e-09 2.57189e-09)
(2.38985e-10 -1.57058e-09 2.43186e-09)
(-3.44387e-10 -1.55761e-09 2.41722e-09)
(-1.0613e-09 -1.47428e-09 2.52653e-09)
(1.32692e-09 -2.43918e-09 2.96465e-09)
(3.238e-10 -2.31826e-09 2.8464e-09)
(-4.62583e-10 -2.30022e-09 2.83031e-09)
(-1.43798e-09 -2.38411e-09 2.91567e-09)
(2.04155e-10 1.10114e-10 1.46716e-10)
(3.73669e-11 -1.11296e-11 1.78405e-10)
(-4.10872e-11 -1.26543e-11 1.76625e-10)
(-1.95062e-10 9.96443e-11 1.41253e-10)
(3.55646e-10 -5.06594e-11 4.84204e-10)
(8.17638e-11 -1.39187e-10 5.45016e-10)
(-8.67254e-11 -1.39574e-10 5.40261e-10)
(-3.44313e-10 -5.27559e-11 4.70174e-10)
(3.65765e-10 -2.8628e-10 7.91219e-10)
(8.40666e-11 -3.21846e-10 8.60842e-10)
(-9.38867e-11 -3.19815e-10 8.54256e-10)
(-3.5975e-10 -2.79452e-10 7.71778e-10)
(3.3566e-10 -5.46258e-10 1.06827e-09)
(6.72039e-11 -5.69392e-10 1.13697e-09)
(-8.71386e-11 -5.64557e-10 1.12917e-09)
(-3.39825e-10 -5.30973e-10 1.04507e-09)
(3.25062e-10 -8.31588e-10 1.34246e-09)
(5.66055e-11 -8.79084e-10 1.4066e-09)
(-9.14769e-11 -8.71505e-10 1.3978e-09)
(-3.43889e-10 -8.083e-10 1.31611e-09)
(3.9431e-10 -1.15269e-09 1.62999e-09)
(7.81769e-11 -1.23636e-09 1.68947e-09)
(-1.32551e-10 -1.22619e-09 1.6797e-09)
(-4.32194e-10 -1.12184e-09 1.60065e-09)
(6.21416e-10 -1.57024e-09 1.90418e-09)
(1.52731e-10 -1.62495e-09 1.96227e-09)
(-2.31729e-10 -1.61233e-09 1.95156e-09)
(-6.82314e-10 -1.53194e-09 1.87196e-09)
(9.76311e-10 -2.2369e-09 2.03919e-09)
(2.36319e-10 -2.09426e-09 2.09925e-09)
(-3.46841e-10 -2.07746e-09 2.08802e-09)
(-1.0636e-09 -2.18491e-09 2.00527e-09)
(8.21773e-11 1.8922e-11 7.53326e-11)
(1.70967e-12 -6.3353e-11 1.20042e-10)
(-3.225e-12 -6.44952e-11 1.18769e-10)
(-7.16483e-11 8.8166e-12 7.16796e-11)
(1.43996e-10 -1.94403e-10 3.19281e-10)
(1.17267e-11 -2.54332e-10 4.00528e-10)
(-1.04642e-11 -2.54394e-10 3.97097e-10)
(-1.27725e-10 -1.96605e-10 3.09565e-10)
(1.37259e-10 -4.37321e-10 5.86767e-10)
(6.59739e-12 -4.62441e-10 6.78061e-10)
(-6.65599e-12 -4.60387e-10 6.73077e-10)
(-1.22973e-10 -4.31317e-10 5.72511e-10)
(1.08109e-10 -6.81407e-10 8.45231e-10)
(-9.23872e-12 -7.02695e-10 9.37183e-10)
(2.05719e-12 -6.98103e-10 9.31066e-10)
(-1.01122e-10 -6.67503e-10 8.27492e-10)
(9.81708e-11 -9.29857e-10 1.09233e-09)
(-1.89596e-11 -9.77728e-10 1.18254e-09)
(-6.55471e-13 -9.70572e-10 1.17548e-09)
(-1.03362e-10 -9.08307e-10 1.07162e-09)
(1.65937e-10 -1.18175e-09 1.31964e-09)
(1.87593e-12 -1.26588e-09 1.40832e-09)
(-3.88732e-11 -1.25629e-09 1.4004e-09)
(-1.87964e-10 -1.15297e-09 1.29622e-09)
(3.89682e-10 -1.48726e-09 1.48344e-09)
(7.45299e-11 -1.54322e-09 1.57172e-09)
(-1.34326e-10 -1.53137e-09 1.5631e-09)
(-4.32661e-10 -1.45142e-09 1.45772e-09)
(7.36757e-10 -2.02536e-09 1.50064e-09)
(1.56236e-10 -1.8896e-09 1.59035e-09)
(-2.45958e-10 -1.87373e-09 1.58152e-09)
(-8.04202e-10 -1.97583e-09 1.47396e-09)
(3.58797e-11 -1.09865e-11 6.48542e-11)
(-1.17308e-11 -7.19001e-11 9.29201e-11)
(1.11499e-11 -7.31625e-11 9.1966e-11)
(-2.43932e-11 -2.17933e-11 6.21853e-11)
(5.96896e-11 -2.47951e-10 2.5546e-10)
(-1.70739e-11 -2.91904e-10 3.06221e-10)
(2.1619e-11 -2.92284e-10 3.03724e-10)
(-4.01836e-11 -2.51589e-10 2.48499e-10)
(4.64002e-11 -5.01094e-10 4.73571e-10)
(-2.52944e-11 -5.20707e-10 5.3005e-10)
(3.11183e-11 -5.19097e-10 5.26366e-10)
(-2.63753e-11 -4.96874e-10 4.63156e-10)
(2.16676e-11 -7.34033e-10 6.92132e-10)
(-3.90264e-11 -7.55434e-10 7.48134e-10)
(4.02433e-11 -7.51394e-10 7.43501e-10)
(-6.49514e-12 -7.2214e-10 6.78822e-10)
(1.75331e-11 -9.48201e-10 8.94965e-10)
(-4.62096e-11 -9.97607e-10 9.48939e-10)
(3.72549e-11 -9.91088e-10 9.43492e-10)
(-1.22964e-11 -9.2882e-10 8.79104e-10)
(8.9115e-11 -1.14641e-09 1.06187e-09)
(-2.42459e-11 -1.23182e-09 1.11418e-09)
(-1.26907e-13 -1.22294e-09 1.10802e-09)
(-9.87001e-11 -1.11991e-09 1.04374e-09)
(3.10543e-10 -1.39257e-09 1.15755e-09)
(4.70258e-11 -1.45259e-09 1.20962e-09)
(-9.25374e-11 -1.44147e-09 1.20293e-09)
(-3.39278e-10 -1.359e-09 1.13763e-09)
(6.46629e-10 -1.88452e-09 1.14385e-09)
(1.26645e-10 -1.76592e-09 1.19901e-09)
(-2.00718e-10 -1.75068e-09 1.19219e-09)
(-6.98248e-10 -1.83683e-09 1.12325e-09)
(2.36463e-11 -2.10919e-11 5.7199e-11)
(-1.34533e-11 -7.26186e-11 7.07461e-11)
(1.33662e-11 -7.40204e-11 7.00614e-11)
(-1.15374e-11 -3.24906e-11 5.53065e-11)
(3.88049e-11 -2.61167e-10 2.05424e-10)
(-2.15903e-11 -2.98702e-10 2.29024e-10)
(2.80713e-11 -2.99478e-10 2.27256e-10)
(-1.72283e-11 -2.66206e-10 2.00548e-10)
(2.64648e-11 -5.1427e-10 3.72417e-10)
(-2.93441e-11 -5.32471e-10 3.97687e-10)
(3.89063e-11 -5.31384e-10 3.95065e-10)
(-2.62741e-12 -5.11829e-10 3.6507e-10)
(7.05108e-12 -7.36932e-10 5.40526e-10)
(-4.06082e-11 -7.59639e-10 5.6438e-10)
(4.74844e-11 -7.56185e-10 5.61035e-10)
(1.38056e-11 -7.26981e-10 5.30988e-10)
(9.05844e-12 -9.28289e-10 6.92539e-10)
(-4.50904e-11 -9.79465e-10 7.14276e-10)
(4.36377e-11 -9.73566e-10 7.10292e-10)
(3.68652e-12 -9.10912e-10 6.81004e-10)
(8.45278e-11 -1.09765e-09 8.08692e-10)
(-2.1665e-11 -1.18438e-09 8.28898e-10)
(6.44656e-12 -1.17613e-09 8.24359e-10)
(-8.49303e-11 -1.07315e-09 7.95384e-10)
(3.03563e-10 -1.32043e-09 8.66316e-10)
(4.86064e-11 -1.38412e-09 8.86554e-10)
(-8.35585e-11 -1.3736e-09 8.81616e-10)
(-3.21632e-10 -1.28871e-09 8.51642e-10)
(6.30813e-10 -1.79456e-09 8.50173e-10)
(1.26676e-10 -1.69021e-09 8.7345e-10)
(-1.89049e-10 -1.67547e-09 8.6843e-10)
(-6.70484e-10 -1.74835e-09 8.35006e-10)
(2.18098e-11 -2.40338e-11 4.47008e-11)
(-1.21196e-11 -7.18622e-11 5.05785e-11)
(1.23118e-11 -7.33632e-11 5.01217e-11)
(-9.31162e-12 -3.58353e-11 4.34469e-11)
(3.81189e-11 -2.59203e-10 1.51622e-10)
(-1.89071e-11 -2.95027e-10 1.60964e-10)
(2.65617e-11 -2.96111e-10 1.59789e-10)
(-1.52444e-11 -2.65276e-10 1.48406e-10)
(2.92911e-11 -5.06186e-10 2.68782e-10)
(-2.49719e-11 -5.24938e-10 2.77842e-10)
(3.68976e-11 -5.2428e-10 2.76094e-10)
(-3.00541e-12 -5.05132e-10 2.6392e-10)
(1.44568e-11 -7.19707e-10 3.85475e-10)
(-3.41145e-11 -7.44005e-10 3.92997e-10)
(4.47019e-11 -7.41033e-10 3.90751e-10)
(1.01627e-11 -7.11299e-10 3.79106e-10)
(2.09644e-11 -8.98352e-10 4.88823e-10)
(-3.65737e-11 -9.51002e-10 4.94676e-10)
(4.01916e-11 -9.45601e-10 4.91976e-10)
(-3.11227e-12 -8.82556e-10 4.81045e-10)
(9.89059e-11 -1.05549e-09 5.64568e-10)
(-1.20994e-11 -1.14311e-09 5.69377e-10)
(3.21025e-12 -1.13535e-09 5.66282e-10)
(-9.29341e-11 -1.03252e-09 5.55527e-10)
(3.15825e-10 -1.27091e-09 5.99505e-10)
(5.747e-11 -1.33677e-09 6.04542e-10)
(-8.50041e-11 -1.32669e-09 6.01168e-10)
(-3.26388e-10 -1.2406e-09 5.89497e-10)
(6.36895e-10 -1.73644e-09 5.87437e-10)
(1.34521e-10 -1.64079e-09 5.94682e-10)
(-1.88587e-10 -1.62643e-09 5.91256e-10)
(-6.68082e-10 -1.69136e-09 5.77095e-10)
(2.20134e-11 -2.43721e-11 2.82914e-11)
(-1.08822e-11 -7.07659e-11 3.06883e-11)
(1.12244e-11 -7.23296e-11 3.04276e-11)
(-9.28816e-12 -3.64243e-11 2.75787e-11)
(4.06187e-11 -2.53656e-10 9.29633e-11)
(-1.61242e-11 -2.89374e-10 9.63034e-11)
(2.44499e-11 -2.90658e-10 9.56332e-11)
(-1.69827e-11 -2.60384e-10 9.11369e-11)
(3.47934e-11 -4.94074e-10 1.62229e-10)
(-2.07509e-11 -5.13762e-10 1.64928e-10)
(3.40674e-11 -5.1339e-10 1.63928e-10)
(-7.04884e-12 -4.93929e-10 1.59461e-10)
(2.30632e-11 -7.00924e-10 2.30349e-10)
(-2.84569e-11 -7.26477e-10 2.31969e-10)
(4.12804e-11 -7.23833e-10 2.30678e-10)
(3.8405e-12 -6.93551e-10 2.26706e-10)
(3.22789e-11 -8.73232e-10 2.89827e-10)
(-2.9678e-11 -9.26855e-10 2.90438e-10)
(3.64135e-11 -9.21794e-10 2.88879e-10)
(-1.1271e-11 -8.58503e-10 2.8535e-10)
(1.115e-10 -1.02604e-09 3.32533e-10)
(-4.60872e-12 -1.11412e-09 3.3259e-10)
(-3.24974e-13 -1.10668e-09 3.30795e-10)
(-1.01532e-10 -1.00411e-09 3.27303e-10)
(3.2691e-10 -1.23972e-09 3.51631e-10)
(6.45179e-11 -1.30653e-09 3.51925e-10)
(-8.73584e-11 -1.29675e-09 3.49963e-10)
(-3.32716e-10 -1.21035e-09 3.45824e-10)
(6.44068e-10 -1.70081e-09 3.44488e-10)
(1.40934e-10 -1.60961e-09 3.4606e-10)
(-1.89699e-10 -1.5955e-09 3.4407e-10)
(-6.69836e-10 -1.6565e-09 3.38487e-10)
(2.22435e-11 -2.41333e-11 9.66578e-12)
(-1.0293e-11 -7.00081e-11 1.03208e-11)
(1.07001e-11 -7.16024e-11 1.02362e-11)
(-9.4134e-12 -3.63065e-11 9.4349e-12)
(4.20713e-11 -2.49837e-10 3.13099e-11)
(-1.47531e-11 -2.85707e-10 3.21354e-11)
(2.33835e-11 -2.87087e-10 3.19177e-11)
(-1.80825e-11 -2.5688e-10 3.07181e-11)
(3.77747e-11 -4.86382e-10 5.4209e-11)
(-1.8648e-11 -5.0665e-10 5.47606e-11)
(3.26081e-11 -5.0642e-10 5.44356e-11)
(-9.34816e-12 -4.86682e-10 5.3311e-11)
(2.75537e-11 -6.89785e-10 7.65571e-11)
(-2.56555e-11 -7.15996e-10 7.67307e-11)
(3.95282e-11 -7.13515e-10 7.63103e-11)
(4.28473e-13 -6.82925e-10 7.53723e-11)
(3.80085e-11 -8.595e-10 9.59314e-11)
(-2.63037e-11 -9.13589e-10 9.57732e-11)
(3.45194e-11 -9.08699e-10 9.5264e-11)
(-1.5496e-11 -8.45303e-10 9.44714e-11)
(1.17755e-10 -1.01106e-09 1.09729e-10)
(-9.73614e-13 -1.0993e-09 1.09402e-10)
(-2.06338e-12 -1.09204e-09 1.08815e-10)
(-1.05865e-10 -9.89649e-10 1.08019e-10)
(3.32392e-10 -1.22451e-09 1.15833e-10)
(6.794e-11 -1.29164e-09 1.15603e-10)
(-8.85123e-11 -1.28202e-09 1.1496e-10)
(-3.35895e-10 -1.19562e-09 1.13931e-10)
(6.47642e-10 -1.68372e-09 1.13482e-10)
(1.44044e-10 -1.5943e-09 1.13666e-10)
(-1.90232e-10 -1.58032e-09 1.13015e-10)
(-6.70774e-10 -1.63979e-09 1.11516e-10)
)
;

boundaryField
{
    interface
    {
        type            calculated;
        value           nonuniform List<vector> 
192
(
(3.95143e-10 6.39581e-10 3.84262e-10)
(6.4352e-10 3.18403e-10 8.41331e-10)
(6.75731e-10 -3.11234e-11 1.16299e-09)
(6.53792e-10 -3.2377e-10 1.44836e-09)
(6.49324e-10 -5.98391e-10 1.74143e-09)
(7.17009e-10 -8.96936e-10 2.0752e-09)
(9.26644e-10 -1.36814e-09 2.47606e-09)
(1.35915e-09 -2.34335e-09 2.86749e-09)
(1.18424e-10 2.50063e-10 6.8726e-11)
(2.54584e-10 -1.02584e-11 3.54203e-10)
(2.60488e-10 -2.91278e-10 6.51747e-10)
(2.27934e-10 -5.56435e-10 9.28146e-10)
(2.10994e-10 -8.16927e-10 1.20091e-09)
(2.63483e-10 -1.0786e-09 1.48547e-09)
(4.63425e-10 -1.42474e-09 1.75686e-09)
(9.24684e-10 -2.14238e-09 1.89165e-09)
(-9.73245e-12 7.54649e-11 3.32664e-11)
(5.26856e-11 -1.80634e-10 2.45295e-10)
(4.35285e-11 -4.46294e-10 5.06928e-10)
(1.20698e-11 -6.91181e-10 7.66735e-10)
(-2.44167e-12 -9.15402e-10 1.01545e-09)
(5.35738e-11 -1.10888e-09 1.24335e-09)
(2.59555e-10 -1.34456e-09 1.40572e-09)
(7.11476e-10 -1.9323e-09 1.41822e-09)
(-5.79999e-11 1.29054e-11 5.02232e-11)
(-2.69325e-11 -2.45322e-10 2.29164e-10)
(-4.11036e-11 -5.10601e-10 4.45874e-10)
(-6.72444e-11 -7.41251e-10 6.6687e-10)
(-7.4286e-11 -9.31341e-10 8.72688e-10)
(-1.11758e-11 -1.07316e-09 1.04152e-09)
(1.97922e-10 -1.25319e-09 1.13602e-09)
(6.35006e-10 -1.79227e-09 1.11736e-09)
(-7.20463e-11 -5.47956e-12 5.36829e-11)
(-4.80303e-11 -2.60463e-10 2.00033e-10)
(-6.03351e-11 -5.22211e-10 3.68141e-10)
(-8.02079e-11 -7.41285e-10 5.38724e-10)
(-7.97991e-11 -9.08922e-10 6.93398e-10)
(-1.08684e-11 -1.02402e-09 8.11141e-10)
(1.98528e-10 -1.18386e-09 8.67637e-10)
(6.22782e-10 -1.70288e-09 8.4774e-10)
(-7.43896e-11 -9.05203e-12 4.42935e-11)
(-4.89392e-11 -2.57334e-10 1.52077e-10)
(-5.71935e-11 -5.12103e-10 2.70866e-10)
(-7.17386e-11 -7.21791e-10 3.89479e-10)
(-6.59006e-11 -8.77242e-10 4.94629e-10)
(6.61923e-12 -9.81774e-10 5.71312e-10)
(2.15204e-10 -1.13641e-09 6.05342e-10)
(6.3016e-10 -1.64537e-09 5.90751e-10)
(-7.40177e-11 -8.71442e-12 2.84004e-11)
(-4.62397e-11 -2.50463e-10 9.39521e-11)
(-5.11784e-11 -4.98464e-10 1.6435e-10)
(-6.21341e-11 -7.01555e-10 2.33623e-10)
(-5.30173e-11 -8.51125e-10 2.94088e-10)
(2.13817e-11 -9.52388e-10 3.37246e-10)
(2.2907e-10 -1.10658e-09 3.55773e-10)
(6.38101e-10 -1.6103e-09 3.47175e-10)
(-7.35608e-11 -8.05494e-12 9.7235e-12)
(-4.45592e-11 -2.45955e-10 3.16733e-11)
(-4.78227e-11 -4.90013e-10 5.49545e-11)
(-5.70359e-11 -6.89728e-10 7.76799e-11)
(-4.64139e-11 -8.36952e-10 9.7364e-11)
(2.87681e-11 -9.37467e-10 1.11293e-10)
(2.35929e-10 -1.09204e-09 1.17204e-10)
(6.42076e-10 -1.59354e-09 1.14375e-10)
(4.05006e-10 7.16869e-10 3.77791e-10)
(6.87426e-10 4.48395e-10 8.42206e-10)
(7.20782e-10 1.20934e-10 1.17154e-09)
(6.91313e-10 -1.71766e-10 1.46335e-09)
(6.82629e-10 -4.60576e-10 1.75714e-09)
(7.57942e-10 -7.9145e-10 2.07777e-09)
(9.91864e-10 -1.3151e-09 2.44838e-09)
(1.34594e-09 -2.34198e-09 2.91388e-09)
(6.22617e-11 5.07639e-10 2.51683e-10)
(1.36236e-10 3.20755e-10 6.85274e-10)
(1.44018e-10 6.98702e-11 9.98736e-10)
(1.23281e-10 -2.06425e-10 1.2694e-09)
(1.07958e-10 -5.19931e-10 1.53678e-09)
(1.26092e-10 -8.82848e-10 1.82897e-09)
(2.0031e-10 -1.36812e-09 2.18539e-09)
(2.9021e-10 -2.21741e-09 2.70383e-09)
(-7.64764e-11 5.00311e-10 2.4088e-10)
(-1.62291e-10 3.17064e-10 6.72038e-10)
(-1.81144e-10 7.01674e-11 9.83313e-10)
(-1.74976e-10 -2.02606e-10 1.25229e-09)
(-1.78157e-10 -5.13042e-10 1.51827e-09)
(-2.18885e-10 -8.73221e-10 1.80911e-09)
(-3.20726e-10 -1.35581e-09 2.16396e-09)
(-4.45273e-10 -2.19965e-09 2.67995e-09)
(-4.02458e-10 6.89654e-10 3.42887e-10)
(-6.91163e-10 4.37896e-10 7.98938e-10)
(-7.35618e-10 1.23711e-10 1.12136e-09)
(-7.20683e-10 -1.58717e-10 1.40807e-09)
(-7.30273e-10 -4.38695e-10 1.69779e-09)
(-8.27888e-10 -7.61587e-10 2.01474e-09)
(-1.08804e-09 -1.27722e-09 2.38167e-09)
(-1.47194e-09 -2.28759e-09 2.84242e-09)
(-3.33252e-10 6.19996e-10 3.67299e-10)
(-5.83971e-10 3.15291e-10 8.09606e-10)
(-6.23929e-10 -2.03078e-11 1.1235e-09)
(-6.13527e-10 -3.0133e-10 1.40343e-09)
(-6.24548e-10 -5.65342e-10 1.69204e-09)
(-7.11557e-10 -8.53912e-10 2.02178e-09)
(-9.42761e-10 -1.31507e-09 2.41841e-09)
(-1.39184e-09 -2.27251e-09 2.80509e-09)
(-6.2335e-11 2.34488e-10 6.22159e-11)
(-1.97474e-10 -1.15823e-11 3.36991e-10)
(-2.0779e-10 -2.80572e-10 6.27332e-10)
(-1.84096e-10 -5.34936e-10 8.98516e-10)
(-1.8034e-10 -7.85204e-10 1.16689e-09)
(-2.50078e-10 -1.03723e-09 1.44735e-09)
(-4.69749e-10 -1.37409e-09 1.7148e-09)
(-9.45133e-10 -2.07571e-09 1.84682e-09)
(6.44846e-11 5.86601e-11 2.9008e-11)
(6.48002e-12 -1.83772e-10 2.33526e-10)
(1.44249e-11 -4.37965e-10 4.89161e-10)
(3.98478e-11 -6.72403e-10 7.44153e-10)
(4.37487e-11 -8.86593e-10 9.88713e-10)
(-2.70641e-11 -1.07064e-09 1.21284e-09)
(-2.50477e-10 -1.29735e-09 1.37196e-09)
(-7.14927e-10 -1.86898e-09 1.38262e-09)
(1.12579e-10 -5.64887e-12 4.71545e-11)
(8.79564e-11 -2.51093e-10 2.2087e-10)
(1.03308e-10 -5.05294e-10 4.33065e-10)
(1.25842e-10 -7.25656e-10 6.50085e-10)
(1.2462e-10 -9.05764e-10 8.52338e-10)
(4.89559e-11 -1.03816e-09 1.01798e-09)
(-1.75494e-10 -1.2091e-09 1.10987e-09)
(-6.23601e-10 -1.73152e-09 1.08981e-09)
(1.26551e-10 -2.5299e-11 5.15337e-11)
(1.10323e-10 -2.68433e-10 1.94309e-10)
(1.25502e-10 -5.19585e-10 3.59224e-10)
(1.43649e-10 -7.28556e-10 5.2682e-10)
(1.36888e-10 -8.86224e-10 6.78706e-10)
(5.72433e-11 -9.9181e-10 7.9394e-10)
(-1.65823e-10 -1.14231e-09 8.48418e-10)
(-5.99832e-10 -1.64419e-09 8.27463e-10)
(1.28877e-10 -2.96961e-11 4.28831e-11)
(1.12084e-10 -2.66851e-10 1.48342e-10)
(1.24349e-10 -5.11481e-10 2.65023e-10)
(1.38502e-10 -7.11269e-10 3.81596e-10)
(1.27718e-10 -8.56777e-10 4.84783e-10)
(4.58582e-11 -9.51696e-10 5.59676e-10)
(-1.75145e-10 -1.0968e-09 5.92267e-10)
(-5.98889e-10 -1.58826e-09 5.76932e-10)
(1.28524e-10 -2.98563e-11 2.76033e-11)
(1.09922e-10 -2.60942e-10 9.18451e-11)
(1.19571e-10 -4.99132e-10 1.61045e-10)
(1.30978e-10 -6.92492e-10 2.29138e-10)
(1.17828e-10 -8.32154e-10 2.88445e-10)
(3.49911e-11 -9.23744e-10 3.30535e-10)
(-1.84288e-10 -1.06827e-09 3.482e-10)
(-6.01455e-10 -1.55427e-09 3.3916e-10)
(1.28087e-10 -2.94323e-11 9.46592e-12)
(1.08504e-10 -2.56895e-10 3.09926e-11)
(1.1681e-10 -4.91307e-10 5.38854e-11)
(1.26883e-10 -6.81384e-10 7.6225e-11)
(1.12672e-10 -8.18725e-10 9.55273e-11)
(2.94989e-11 -9.09542e-10 1.09101e-10)
(-1.88841e-10 -1.05439e-09 1.14725e-10)
(-6.02797e-10 -1.53806e-09 1.11751e-10)
(1.3446e-09 -2.38929e-09 2.96268e-09)
(9.87907e-10 -2.1147e-09 1.93573e-09)
(7.49344e-10 -1.93585e-09 1.41255e-09)
(6.63098e-10 -1.81082e-09 1.08615e-09)
(6.50559e-10 -1.72412e-09 8.13153e-10)
(6.58513e-10 -1.66627e-09 5.64e-10)
(6.66515e-10 -1.63062e-09 3.31306e-10)
(6.70368e-10 -1.61355e-09 1.09207e-10)
(2.89054e-10 -2.17651e-09 2.84083e-09)
(1.96454e-10 -1.84914e-09 1.99208e-09)
(1.18321e-10 -1.68442e-09 1.50826e-09)
(9.31768e-11 -1.58654e-09 1.14916e-09)
(9.68931e-11 -1.52209e-09 8.42169e-10)
(1.07008e-10 -1.47789e-09 5.74532e-10)
(1.14597e-10 -1.44924e-09 3.34437e-10)
(1.18187e-10 -1.43501e-09 1.0984e-10)
(-4.46126e-10 -2.15051e-09 2.82491e-09)
(-3.24186e-10 -1.82529e-09 1.9814e-09)
(-2.24412e-10 -1.66172e-09 1.49982e-09)
(-1.82998e-10 -1.56462e-09 1.14263e-09)
(-1.74524e-10 -1.5007e-09 8.37366e-10)
(-1.75956e-10 -1.45689e-09 5.71264e-10)
(-1.77987e-10 -1.42849e-09 3.32544e-10)
(-1.7887e-10 -1.41438e-09 1.0922e-10)
(-1.47281e-09 -2.31123e-09 2.91413e-09)
(-1.09134e-09 -2.04057e-09 1.9032e-09)
(-8.32113e-10 -1.86421e-09 1.38694e-09)
(-7.29381e-10 -1.74112e-09 1.06638e-09)
(-7.04355e-10 -1.65586e-09 7.98637e-10)
(-7.03411e-10 -1.59905e-09 5.54134e-10)
(-7.05713e-10 -1.56409e-09 3.25596e-10)
(-7.06787e-10 -1.54737e-09 1.0734e-10)
)
;
    }
    symmetry
    {
        type            symmetry;
    }
    bottom
    {
        type            calculated;
        value           uniform (0 0 0);
    }
}


// ************************************************************************* //
