/*--------------------------------*- C++ -*----------------------------------*\
| =========                 |                                                 |
| \\      /  F ield         | OpenFOAM: The Open Source CFD Toolbox           |
|  \\    /   O peration     | Version:  v1912                                 |
|   \\  /    A nd           | Website:  www.openfoam.com                      |
|    \\/     M anipulation  |                                                 |
\*---------------------------------------------------------------------------*/
FoamFile
{
    version     2.0;
    format      ascii;
    class       volVectorField;
    location    "0.42/solid";
    object      DD_0;
}
// * * * * * * * * * * * * * * * * * * * * * * * * * * * * * * * * * * * * * //

dimensions      [0 1 0 0 0 0 0];


internalField   nonuniform List<vector> 
256
(
(3.86101e-10 3.68658e-10 4.29188e-10)
(7.78664e-11 2.002e-10 3.69542e-10)
(-8.75284e-11 1.95963e-10 3.65064e-10)
(-3.79833e-10 3.51481e-10 4.14571e-10)
(6.52724e-10 2.41947e-10 9.16059e-10)
(1.57039e-10 1.22543e-10 8.35453e-10)
(-1.74982e-10 1.2028e-10 8.27068e-10)
(-6.49505e-10 2.35916e-10 8.89316e-10)
(6.84512e-10 -2.87479e-11 1.24063e-09)
(1.66293e-10 -7.57741e-11 1.15591e-09)
(-1.93753e-10 -7.45937e-11 1.14554e-09)
(-6.9081e-10 -2.32095e-11 1.2078e-09)
(6.58854e-10 -3.08462e-10 1.52203e-09)
(1.48776e-10 -3.35966e-10 1.42679e-09)
(-1.89957e-10 -3.31393e-10 1.41506e-09)
(-6.78761e-10 -2.93069e-10 1.48504e-09)
(6.54828e-10 -6.05487e-10 1.81063e-09)
(1.37823e-10 -6.55017e-10 1.69907e-09)
(-1.9701e-10 -6.47365e-10 1.68622e-09)
(-6.92446e-10 -5.81294e-10 1.77021e-09)
(7.33034e-10 -9.59313e-10 2.14006e-09)
(1.59933e-10 -1.04213e-09 2.01073e-09)
(-2.4144e-10 -1.03163e-09 1.9968e-09)
(-7.92642e-10 -9.26918e-10 2.09651e-09)
(9.62797e-10 -1.4911e-09 2.53547e-09)
(2.34026e-10 -1.54592e-09 2.39957e-09)
(-3.42951e-10 -1.53252e-09 2.38442e-09)
(-1.04847e-09 -1.4502e-09 2.48857e-09)
(1.30059e-09 -2.399e-09 2.91879e-09)
(3.16337e-10 -2.28236e-09 2.80488e-09)
(-4.59696e-10 -2.26372e-09 2.78824e-09)
(-1.41601e-09 -2.3421e-09 2.86814e-09)
(2.01663e-10 1.09299e-10 1.45066e-10)
(3.72248e-11 -9.74135e-12 1.75892e-10)
(-4.10074e-11 -1.12752e-11 1.74066e-10)
(-1.92553e-10 9.88132e-11 1.39481e-10)
(3.52432e-10 -4.76656e-11 4.77831e-10)
(8.12878e-11 -1.35234e-10 5.37112e-10)
(-8.64693e-11 -1.35575e-10 5.32229e-10)
(-3.41171e-10 -4.96205e-11 4.63439e-10)
(3.63272e-10 -2.79619e-10 7.8084e-10)
(8.37263e-11 -3.14968e-10 8.48693e-10)
(-9.40049e-11 -3.12825e-10 8.41913e-10)
(-3.57559e-10 -2.7244e-10 7.60844e-10)
(3.33932e-10 -5.35752e-10 1.05429e-09)
(6.70855e-11 -5.58574e-10 1.12118e-09)
(-8.78353e-11 -5.53558e-10 1.11314e-09)
(-3.38754e-10 -5.19909e-10 1.03039e-09)
(3.23596e-10 -8.16923e-10 1.32469e-09)
(5.64605e-11 -8.63383e-10 1.38705e-09)
(-9.26304e-11 -8.55548e-10 1.37795e-09)
(-3.43564e-10 -7.92861e-10 1.29749e-09)
(3.91735e-10 -1.13372e-09 1.60787e-09)
(7.73136e-11 -1.21528e-09 1.66559e-09)
(-1.33608e-10 -1.20477e-09 1.65549e-09)
(-4.31375e-10 -1.10186e-09 1.57753e-09)
(6.14382e-10 -1.54683e-09 1.87753e-09)
(1.49916e-10 -1.59973e-09 1.93386e-09)
(-2.3162e-10 -1.58666e-09 1.92277e-09)
(-6.77807e-10 -1.50723e-09 1.8442e-09)
(9.60067e-10 -2.20374e-09 2.01076e-09)
(2.31278e-10 -2.06517e-09 2.06896e-09)
(-3.45478e-10 -2.04779e-09 2.05734e-09)
(-1.05083e-09 -2.15001e-09 1.97568e-09)
(8.21996e-11 1.95198e-11 7.41874e-11)
(2.33993e-12 -6.15036e-11 1.17807e-10)
(-3.86166e-12 -6.26524e-11 1.16507e-10)
(-7.15958e-11 9.38445e-12 7.04588e-11)
(1.44827e-10 -1.89518e-10 3.14271e-10)
(1.27368e-11 -2.49077e-10 3.93703e-10)
(-1.15269e-11 -2.49095e-10 3.9019e-10)
(-1.28459e-10 -1.91608e-10 3.04327e-10)
(1.38918e-10 -4.28775e-10 5.7786e-10)
(7.86556e-12 -4.53853e-10 6.67167e-10)
(-8.10701e-12 -4.51692e-10 6.62053e-10)
(-1.24661e-10 -4.22461e-10 5.63232e-10)
(1.10391e-10 -6.69289e-10 8.32682e-10)
(-7.77349e-12 -6.90287e-10 9.22627e-10)
(1.5268e-13 -6.85524e-10 9.16335e-10)
(-1.03694e-10 -6.54878e-10 8.14439e-10)
(1.00657e-10 -9.14138e-10 1.07619e-09)
(-1.75133e-11 -9.60999e-10 1.16441e-09)
(-2.93391e-12 -9.53602e-10 1.15713e-09)
(-1.06531e-10 -8.91876e-10 1.05485e-09)
(1.67401e-10 -1.16286e-09 1.30002e-09)
(2.68936e-12 -1.24495e-09 1.38667e-09)
(-4.10588e-11 -1.23504e-09 1.37849e-09)
(-1.90648e-10 -1.13315e-09 1.27585e-09)
(3.87034e-10 -1.46594e-09 1.46127e-09)
(7.35855e-11 -1.52009e-09 1.54745e-09)
(-1.35465e-10 -1.50783e-09 1.53854e-09)
(-4.31928e-10 -1.42888e-09 1.43472e-09)
(7.25625e-10 -1.99668e-09 1.47873e-09)
(1.53278e-10 -1.86452e-09 1.56613e-09)
(-2.45979e-10 -1.84811e-09 1.55701e-09)
(-7.95862e-10 -1.94554e-09 1.4512e-09)
(3.65111e-11 -1.00964e-11 6.36895e-11)
(-1.09005e-11 -7.01181e-11 9.11764e-11)
(1.03429e-11 -7.13914e-11 9.02024e-11)
(-2.49194e-11 -2.09523e-11 6.09679e-11)
(6.16248e-11 -2.42465e-10 2.51137e-10)
(-1.55895e-11 -2.86286e-10 3.00932e-10)
(2.01798e-11 -2.86634e-10 2.98377e-10)
(-4.19226e-11 -2.46042e-10 2.44017e-10)
(4.92394e-11 -4.91797e-10 4.65922e-10)
(-2.34753e-11 -5.1145e-10 5.21345e-10)
(2.92911e-11 -5.09752e-10 5.17567e-10)
(-2.90673e-11 -4.87336e-10 4.55242e-10)
(2.50595e-11 -7.21391e-10 6.81277e-10)
(-3.70118e-11 -7.42507e-10 7.36218e-10)
(3.80431e-11 -7.38318e-10 7.31456e-10)
(-9.92253e-12 -7.0907e-10 6.67596e-10)
(2.10553e-11 -9.32569e-10 8.81122e-10)
(-4.42145e-11 -9.80963e-10 9.34046e-10)
(3.4756e-11 -9.7423e-10 9.28435e-10)
(-1.61739e-11 -9.12563e-10 8.64789e-10)
(9.15929e-11 -1.12853e-09 1.04552e-09)
(-2.28494e-11 -1.21192e-09 1.09677e-09)
(-2.49886e-12 -1.20276e-09 1.09042e-09)
(-1.02e-10 -1.1012e-09 1.02682e-09)
(3.09016e-10 -1.37314e-09 1.13978e-09)
(4.67551e-11 -1.43132e-09 1.19074e-09)
(-9.38889e-11 -1.41983e-09 1.18384e-09)
(-3.39203e-10 -1.33846e-09 1.11922e-09)
(6.3694e-10 -1.85818e-09 1.12649e-09)
(1.24451e-10 -1.7428e-09 1.1804e-09)
(-2.00974e-10 -1.72707e-09 1.17338e-09)
(-6.90825e-10 -1.80899e-09 1.10525e-09)
(2.43093e-11 -2.01267e-11 5.61657e-11)
(-1.2657e-11 -7.08867e-11 6.94667e-11)
(1.26076e-11 -7.23045e-11 6.87681e-11)
(-1.20764e-11 -3.15963e-11 5.42391e-11)
(4.07832e-11 -2.55594e-10 2.01902e-10)
(-2.01138e-11 -2.93066e-10 2.25112e-10)
(2.66974e-11 -2.93825e-10 2.23303e-10)
(-1.89488e-11 -2.60626e-10 1.96913e-10)
(2.93424e-11 -5.04887e-10 3.6629e-10)
(-2.7511e-11 -5.23149e-10 3.91143e-10)
(3.71762e-11 -5.21996e-10 3.88453e-10)
(-5.244e-12 -5.02273e-10 3.58753e-10)
(1.0449e-11 -7.24404e-10 5.31882e-10)
(-3.85727e-11 -7.46822e-10 5.55322e-10)
(4.54328e-11 -7.43244e-10 5.51884e-10)
(1.0544e-11 -7.14102e-10 5.22077e-10)
(1.2539e-11 -9.13188e-10 6.81648e-10)
(-4.30715e-11 -9.63346e-10 7.02981e-10)
(4.13435e-11 -9.57259e-10 6.98878e-10)
(8.13719e-14 -8.95269e-10 6.69769e-10)
(8.6929e-11 -1.08078e-09 7.96078e-10)
(-2.02316e-11 -1.16549e-09 8.15887e-10)
(4.32238e-12 -1.15698e-09 8.11206e-10)
(-8.78664e-11 -1.05552e-09 7.82356e-10)
(3.01985e-10 -1.30225e-09 8.52846e-10)
(4.84097e-11 -1.36408e-09 8.72667e-10)
(-8.4646e-11 -1.3532e-09 8.67573e-10)
(-3.21164e-10 -1.26951e-09 8.37708e-10)
(6.21213e-10 -1.76957e-09 8.3699e-10)
(1.24586e-10 -1.66821e-09 8.59765e-10)
(-1.89018e-10 -1.653e-09 8.54591e-10)
(-6.62756e-10 -1.72194e-09 8.21354e-10)
(2.24137e-11 -2.30564e-11 4.39039e-11)
(-1.13834e-11 -7.01616e-11 4.96818e-11)
(1.16211e-11 -7.16826e-11 4.92152e-11)
(-9.78023e-12 -3.49431e-11 4.26249e-11)
(3.99421e-11 -2.53718e-10 1.49023e-10)
(-1.7526e-11 -2.89484e-10 1.58227e-10)
(2.53174e-11 -2.90563e-10 1.57024e-10)
(-1.67718e-11 -2.5982e-10 1.4573e-10)
(3.19705e-11 -4.96983e-10 2.64334e-10)
(-2.32385e-11 -5.15793e-10 2.73257e-10)
(3.53373e-11 -5.15085e-10 2.71463e-10)
(-5.3512e-12 -4.95807e-10 2.59344e-10)
(1.76337e-11 -7.07521e-10 3.7926e-10)
(-3.21737e-11 -7.31524e-10 3.86654e-10)
(4.28563e-11 -7.28447e-10 3.84344e-10)
(7.23538e-12 -6.98822e-10 3.72711e-10)
(2.41999e-11 -8.83817e-10 4.81076e-10)
(-3.46436e-11 -9.35442e-10 4.86807e-10)
(3.81405e-11 -9.29876e-10 4.84027e-10)
(-6.31602e-12 -8.67542e-10 4.73065e-10)
(1.01042e-10 -1.03937e-09 5.55701e-10)
(-1.07452e-11 -1.12497e-09 5.60393e-10)
(1.36219e-12 -1.11697e-09 5.57202e-10)
(-9.54063e-11 -1.01571e-09 5.46378e-10)
(3.13992e-10 -1.25351e-09 5.90103e-10)
(5.7214e-11 -1.31749e-09 5.95016e-10)
(-8.57941e-11 -1.30708e-09 5.91535e-10)
(-3.25425e-10 -1.22224e-09 5.79779e-10)
(6.27111e-10 -1.7123e-09 5.78204e-10)
(1.32385e-10 -1.61951e-09 5.85276e-10)
(-1.88233e-10 -1.60469e-09 5.81744e-10)
(-6.59891e-10 -1.66585e-09 5.6754e-10)
(2.25779e-11 -2.3404e-11 2.77918e-11)
(-1.01823e-11 -6.90917e-11 3.01481e-11)
(1.05745e-11 -7.06777e-11 2.98815e-11)
(-9.71091e-12 -3.55496e-11 2.70636e-11)
(4.23317e-11 -2.48283e-10 9.13733e-11)
(-1.48072e-11 -2.83936e-10 9.46669e-11)
(2.32896e-11 -2.85222e-10 9.398e-11)
(-1.83776e-11 -2.55063e-10 8.95018e-11)
(3.73244e-11 -4.85081e-10 1.59538e-10)
(-1.90896e-11 -5.04818e-10 1.62198e-10)
(3.26208e-11 -5.04407e-10 1.61172e-10)
(-9.20282e-12 -4.84848e-10 1.56696e-10)
(2.60744e-11 -6.89057e-10 2.26621e-10)
(-2.6586e-11 -7.14309e-10 2.28207e-10)
(3.95724e-11 -7.11573e-10 2.2688e-10)
(1.14793e-12 -6.81431e-10 2.22873e-10)
(3.53378e-11 -8.59119e-10 2.85215e-10)
(-2.7812e-11 -9.11715e-10 2.85796e-10)
(3.45224e-11 -9.06502e-10 2.8419e-10)
(-1.4201e-11 -8.43953e-10 2.80603e-10)
(1.13454e-10 -1.0104e-09 3.27287e-10)
(-3.31034e-12 -1.09646e-09 3.27316e-10)
(-1.99277e-12 -1.08881e-09 3.25466e-10)
(-1.03696e-10 -9.87827e-10 3.21893e-10)
(3.24903e-10 -1.22279e-09 3.46085e-10)
(6.42187e-11 -1.28771e-09 3.46346e-10)
(-8.79535e-11 -1.27762e-09 3.44323e-10)
(-3.31426e-10 -1.1925e-09 3.40093e-10)
(6.3415e-10 -1.67717e-09 3.39026e-10)
(1.38763e-10 -1.58876e-09 3.40541e-10)
(-1.89132e-10 -1.57421e-09 3.3849e-10)
(-6.61334e-10 -1.63152e-09 3.32837e-10)
(2.27926e-11 -2.31745e-11 9.49586e-12)
(-9.60803e-12 -6.83502e-11 1.01395e-11)
(1.00671e-11 -6.99678e-11 1.00529e-11)
(-9.81782e-12 -3.54449e-11 9.2597e-12)
(4.37384e-11 -2.44532e-10 3.07751e-11)
(-1.34625e-11 -2.80332e-10 3.1589e-11)
(2.22589e-11 -2.81718e-10 3.13658e-11)
(-1.94211e-11 -2.51639e-10 3.01684e-11)
(4.02408e-11 -4.77515e-10 5.33094e-11)
(-1.70173e-11 -4.97828e-10 5.38526e-11)
(3.12117e-11 -4.97564e-10 5.35187e-11)
(-1.14168e-11 -4.77743e-10 5.2387e-11)
(3.0491e-11 -6.78097e-10 7.53162e-11)
(-2.38146e-11 -7.04003e-10 7.54836e-11)
(3.78822e-11 -7.01438e-10 7.50509e-11)
(-2.15728e-12 -6.71004e-10 7.4097e-11)
(4.09892e-11 -8.45606e-10 9.44018e-11)
(-2.44645e-11 -8.98668e-10 9.42385e-11)
(3.2701e-11 -8.93632e-10 9.37139e-11)
(-1.8301e-11 -8.30994e-10 9.28973e-11)
(1.19629e-10 -9.95655e-10 1.07994e-10)
(3.0295e-13 -1.08188e-09 1.07663e-10)
(-3.64908e-12 -1.0744e-09 1.07057e-10)
(-1.07888e-10 -9.73617e-10 1.0623e-10)
(3.30311e-10 -1.2078e-09 1.14e-10)
(6.76257e-11 -1.27304e-09 1.13764e-10)
(-8.90183e-11 -1.26311e-09 1.13101e-10)
(-3.34456e-10 -1.178e-09 1.12038e-10)
(6.3767e-10 -1.6603e-09 1.11674e-10)
(1.41863e-10 -1.57367e-09 1.11845e-10)
(-1.89568e-10 -1.55925e-09 1.11173e-10)
(-6.62131e-10 -1.61507e-09 1.09647e-10)
)
;

boundaryField
{
    interface
    {
        type            calculated;
        value           nonuniform List<vector> 
192
(
(3.90305e-10 6.28364e-10 3.77662e-10)
(6.36905e-10 3.16549e-10 8.2941e-10)
(6.69749e-10 -2.72168e-11 1.14767e-09)
(6.4858e-10 -3.15884e-10 1.42961e-09)
(6.44276e-10 -5.86943e-10 1.71882e-09)
(7.1075e-10 -8.82321e-10 2.04786e-09)
(9.16361e-10 -1.34921e-09 2.44198e-09)
(1.33481e-09 -2.30584e-09 2.82427e-09)
(1.22468e-10 2.47823e-10 6.90935e-11)
(2.58955e-10 -7.26485e-12 3.5086e-10)
(2.65701e-10 -2.84245e-10 6.44445e-10)
(2.3396e-10 -5.45672e-10 9.17179e-10)
(2.1741e-10 -8.02474e-10 1.18615e-09)
(2.69189e-10 -1.06102e-09 1.46646e-09)
(4.661e-10 -1.40475e-09 1.73359e-09)
(9.14324e-10 -2.11161e-09 1.86702e-09)
(-3.78674e-12 7.62761e-11 3.29019e-11)
(5.99347e-11 -1.75339e-10 2.41572e-10)
(5.17247e-11 -4.37385e-10 4.99354e-10)
(2.09609e-11 -6.78856e-10 7.55466e-10)
(6.77404e-12 -8.99887e-10 1.00056e-09)
(6.21031e-11 -1.09127e-09 1.22499e-09)
(2.65201e-10 -1.32638e-09 1.38493e-09)
(7.05076e-10 -1.90585e-09 1.39795e-09)
(-5.16264e-11 1.44372e-11 4.92186e-11)
(-1.88999e-11 -2.39284e-10 2.25128e-10)
(-3.20493e-11 -5.0094e-10 4.3853e-10)
(-5.75557e-11 -7.28439e-10 6.56293e-10)
(-6.43421e-11 -9.15937e-10 8.59094e-10)
(-1.94795e-12 -1.05654e-09 1.0254e-09)
(2.04306e-10 -1.2368e-09 1.11852e-09)
(6.29852e-10 -1.7681e-09 1.10039e-09)
(-6.56841e-11 -3.85394e-12 5.26427e-11)
(-4.00424e-11 -2.54337e-10 1.96483e-10)
(-5.13343e-11 -5.12472e-10 3.61974e-10)
(-7.06056e-11 -7.28607e-10 5.30027e-10)
(-6.99883e-11 -8.9407e-10 6.82435e-10)
(-1.80661e-12 -1.00842e-09 7.98441e-10)
(2.04754e-10 -1.16868e-09 8.54091e-10)
(6.17758e-10 -1.68007e-09 8.34533e-10)
(-6.81011e-11 -7.4678e-12 4.3472e-11)
(-4.1141e-11 -2.5133e-10 1.49412e-10)
(-4.84276e-11 -5.02561e-10 2.6633e-10)
(-6.23957e-11 -7.09466e-10 3.83167e-10)
(-5.63726e-11 -8.62967e-10 4.86776e-10)
(1.53843e-11 -9.66922e-10 5.62333e-10)
(2.21143e-10 -1.122e-09 5.95833e-10)
(6.25018e-10 -1.6234e-09 5.81439e-10)
(-6.77718e-11 -7.17692e-12 2.78871e-11)
(-3.85664e-11 -2.44597e-10 9.2323e-11)
(-4.25773e-11 -4.89147e-10 1.61607e-10)
(-5.29743e-11 -6.89556e-10 2.29836e-10)
(-4.36823e-11 -8.37276e-10 2.89412e-10)
(2.99532e-11 -9.38015e-10 3.31934e-10)
(2.34829e-10 -1.09261e-09 3.50165e-10)
(6.32876e-10 -1.58883e-09 3.41666e-10)
(-6.73298e-11 -6.54213e-12 9.54973e-12)
(-3.6937e-11 -2.40172e-10 3.1127e-11)
(-3.92927e-11 -4.80829e-10 5.40387e-11)
(-4.79567e-11 -6.77912e-10 7.64205e-11)
(-3.71631e-11 -8.23323e-10 9.58148e-11)
(3.72578e-11 -9.23327e-10 1.09538e-10)
(2.41615e-10 -1.07829e-09 1.15353e-10)
(6.36825e-10 -1.5723e-09 1.12555e-10)
(3.96944e-10 7.0497e-10 3.74686e-10)
(6.75887e-10 4.44808e-10 8.34616e-10)
(7.098e-10 1.22748e-10 1.16043e-09)
(6.81247e-10 -1.65959e-10 1.44862e-09)
(6.72836e-10 -4.50978e-10 1.73841e-09)
(7.46796e-10 -7.78103e-10 2.05439e-09)
(9.75561e-10 -1.29642e-09 2.41923e-09)
(1.31937e-09 -2.30377e-09 2.87157e-09)
(6.18268e-11 5.01449e-10 2.54047e-10)
(1.34779e-10 3.19137e-10 6.83657e-10)
(1.42513e-10 7.20609e-11 9.93601e-10)
(1.22024e-10 -2.00175e-10 1.26087e-09)
(1.06711e-10 -5.0903e-10 1.52468e-09)
(1.2411e-10 -8.67001e-10 1.81283e-09)
(1.96258e-10 -1.34739e-09 2.16429e-09)
(2.83695e-10 -2.18345e-09 2.66944e-09)
(-7.62812e-11 4.93996e-10 2.43043e-10)
(-1.61529e-10 3.15402e-10 6.70112e-10)
(-1.80792e-10 7.24066e-11 9.77798e-10)
(-1.75404e-10 -1.96223e-10 1.24332e-09)
(-1.79235e-10 -5.01929e-10 1.50568e-09)
(-2.20004e-10 -8.57074e-10 1.79243e-09)
(-3.2071e-10 -1.33466e-09 2.14228e-09)
(-4.43885e-10 -2.1651e-09 2.64494e-09)
(-3.94566e-10 6.77454e-10 3.39224e-10)
(-6.80172e-10 4.34226e-10 7.90393e-10)
(-7.25623e-10 1.25723e-10 1.10907e-09)
(-7.12125e-10 -1.52466e-10 1.39199e-09)
(-7.22616e-10 -4.28426e-10 1.67754e-09)
(-8.19638e-10 -7.47327e-10 1.98969e-09)
(-1.07554e-09 -1.25729e-09 2.35068e-09)
(-1.45025e-09 -2.24759e-09 2.79813e-09)
(-3.28653e-10 6.08816e-10 3.60377e-10)
(-5.77885e-10 3.13662e-10 7.96889e-10)
(-6.18843e-10 -1.58924e-11 1.10707e-09)
(-6.09667e-10 -2.92657e-10 1.38335e-09)
(-6.21425e-10 -5.52821e-10 1.6679e-09)
(-7.07928e-10 -8.37909e-10 1.99269e-09)
(-9.3598e-10 -1.29435e-09 2.38236e-09)
(-1.37234e-09 -2.23263e-09 2.75972e-09)
(-6.62567e-11 2.32244e-10 6.24181e-11)
(-2.01804e-10 -8.36732e-12 3.33171e-10)
(-2.13204e-10 -2.73042e-10 6.193e-10)
(-1.9068e-10 -5.23405e-10 8.86612e-10)
(-1.87795e-10 -7.69703e-10 1.151e-09)
(-2.57446e-10 -1.0183e-09 1.42703e-09)
(-4.74872e-10 -1.35236e-09 1.69006e-09)
(-9.38429e-10 -2.04269e-09 1.82063e-09)
(5.87666e-11 5.93985e-11 2.85463e-11)
(-5.08792e-13 -1.78341e-10 2.29508e-10)
(6.35021e-12 -4.2865e-10 4.81103e-10)
(3.08168e-11 -6.59407e-10 7.32225e-10)
(3.39913e-11 -8.70133e-10 9.72999e-10)
(-3.66898e-11 -1.05179e-09 1.1935e-09)
(-2.57945e-10 -1.27757e-09 1.35006e-09)
(-7.1148e-10 -1.84045e-09 1.36119e-09)
(1.06408e-10 -4.24162e-12 4.60851e-11)
(8.03069e-11 -2.45004e-10 2.16634e-10)
(9.45843e-11 -4.95334e-10 4.25383e-10)
(1.16297e-10 -7.1229e-10 6.39033e-10)
(1.14486e-10 -8.8954e-10 8.38132e-10)
(3.90441e-11 -1.02044e-09 1.00112e-09)
(-1.83234e-10 -1.19125e-09 1.09153e-09)
(-6.20876e-10 -1.70542e-09 1.07197e-09)
(1.20497e-10 -2.38398e-11 5.0452e-11)
(1.02797e-10 -2.62333e-10 1.90622e-10)
(1.16953e-10 -5.09644e-10 3.52821e-10)
(1.34365e-10 -7.1543e-10 5.17785e-10)
(1.27117e-10 -8.70662e-10 6.67302e-10)
(4.77783e-11 -9.75206e-10 7.80705e-10)
(-1.73077e-10 -1.12578e-09 8.34262e-10)
(-5.96862e-10 -1.61955e-09 8.13619e-10)
(1.2292e-10 -2.83049e-11 4.2032e-11)
(1.0479e-10 -2.60926e-10 1.45586e-10)
(1.16109e-10 -5.01806e-10 2.60331e-10)
(1.29591e-10 -6.98577e-10 3.75058e-10)
(1.18384e-10 -8.41876e-10 4.76634e-10)
(3.68828e-11 -9.35931e-10 5.50334e-10)
(-1.81884e-10 -1.08111e-09 5.82343e-10)
(-5.95537e-10 -1.56453e-09 5.67184e-10)
(1.22617e-10 -2.85273e-11 2.70721e-11)
(1.02776e-10 -2.55189e-10 9.01629e-11)
(1.11538e-10 -4.89727e-10 1.58212e-10)
(1.22316e-10 -6.80178e-10 2.2522e-10)
(1.08779e-10 -8.17737e-10 2.83598e-10)
(2.6328e-11 -9.08514e-10 3.25012e-10)
(-1.90704e-10 -1.05308e-09 3.4235e-10)
(-5.97854e-10 -1.53109e-09 3.33396e-10)
(1.22196e-10 -2.8135e-11 9.28615e-12)
(1.01417e-10 -2.51238e-10 3.04288e-11)
(1.08866e-10 -4.82057e-10 5.29401e-11)
(1.1833e-10 -6.69279e-10 7.4923e-11)
(1.0375e-10 -8.04556e-10 9.3922e-11)
(2.09731e-11 -8.94571e-10 1.07277e-10)
(-1.95116e-10 -1.03943e-09 1.12795e-10)
(-5.99092e-10 -1.51512e-09 1.09846e-10)
(1.31801e-09 -2.35266e-09 2.91758e-09)
(9.71485e-10 -2.08884e-09 1.91017e-09)
(7.37997e-10 -1.91334e-09 1.39234e-09)
(6.53128e-10 -1.79052e-09 1.06972e-09)
(6.40621e-10 -1.70533e-09 8.0052e-10)
(6.48359e-10 -1.64848e-09 5.55102e-10)
(6.56214e-10 -1.61344e-09 3.26027e-10)
(6.60009e-10 -1.59667e-09 1.07458e-10)
(2.82514e-10 -2.14775e-09 2.80003e-09)
(1.92285e-10 -1.83125e-09 1.9645e-09)
(1.16129e-10 -1.66906e-09 1.48554e-09)
(9.16658e-11 -1.57277e-09 1.13133e-09)
(9.5434e-11 -1.50938e-09 8.28942e-10)
(1.05474e-10 -1.46595e-09 5.65413e-10)
(1.13015e-10 -1.4378e-09 3.29081e-10)
(1.1659e-10 -1.42382e-09 1.08071e-10)
(-4.44766e-10 -2.12109e-09 2.78356e-09)
(-3.24275e-10 -1.80675e-09 1.95344e-09)
(-2.25734e-10 -1.64574e-09 1.47683e-09)
(-1.84437e-10 -1.55026e-09 1.1246e-09)
(-1.75596e-10 -1.48744e-09 8.23996e-10)
(-1.76657e-10 -1.44441e-09 5.62046e-10)
(-1.78452e-10 -1.41652e-09 3.2713e-10)
(-1.79229e-10 -1.40267e-09 1.07433e-10)
(-1.45116e-09 -2.27248e-09 2.86737e-09)
(-1.07895e-09 -2.01266e-09 1.87654e-09)
(-8.24061e-10 -1.83979e-09 1.36594e-09)
(-7.22142e-10 -1.71902e-09 1.04935e-09)
(-6.96729e-10 -1.63534e-09 7.85569e-10)
(-6.95271e-10 -1.57959e-09 5.44936e-10)
(-6.97237e-10 -1.54528e-09 3.20141e-10)
(-6.9816e-10 -1.52886e-09 1.05532e-10)
)
;
    }
    symmetry
    {
        type            symmetry;
    }
    bottom
    {
        type            calculated;
        value           uniform (0 0 0);
    }
}


// ************************************************************************* //
