/*--------------------------------*- C++ -*----------------------------------*\
| =========                 |                                                 |
| \\      /  F ield         | OpenFOAM: The Open Source CFD Toolbox           |
|  \\    /   O peration     | Version:  v1912                                 |
|   \\  /    A nd           | Website:  www.openfoam.com                      |
|    \\/     M anipulation  |                                                 |
\*---------------------------------------------------------------------------*/
FoamFile
{
    version     2.0;
    format      ascii;
    class       volScalarField;
    location    "0.42/solid";
    object      epsilonEq;
}
// * * * * * * * * * * * * * * * * * * * * * * * * * * * * * * * * * * * * * //

dimensions      [0 0 0 0 0 0 0];


internalField   nonuniform List<scalar> 
256
(
2.52244e-06
1.87545e-06
1.85523e-06
2.43551e-06
1.59483e-06
1.43886e-06
1.41978e-06
1.52123e-06
1.62678e-06
1.40719e-06
1.38804e-06
1.55392e-06
1.71141e-06
1.43581e-06
1.41679e-06
1.63896e-06
1.78897e-06
1.4911e-06
1.47211e-06
1.71657e-06
1.84259e-06
1.55758e-06
1.53851e-06
1.77004e-06
1.61626e-06
1.51014e-06
1.49281e-06
1.54922e-06
1.60712e-07
1.68221e-06
1.66892e-06
1.76418e-07
1.63429e-06
3.55751e-07
3.47054e-07
1.54162e-06
1.28382e-06
3.41363e-07
3.32556e-07
1.19807e-06
1.27875e-06
2.68837e-07
2.61516e-07
1.1934e-06
1.30738e-06
2.03103e-07
1.97145e-07
1.22122e-06
1.3574e-06
1.76189e-07
1.71153e-07
1.26989e-06
1.42693e-06
1.76043e-07
1.71367e-07
1.33817e-06
1.39147e-06
5.69211e-08
6.24547e-08
1.30581e-06
1.61584e-06
1.51122e-06
1.49418e-06
1.54959e-06
1.4259e-06
1.96007e-07
1.91189e-07
1.33845e-06
1.24071e-06
2.213e-07
2.11991e-07
1.15681e-06
1.24681e-06
1.7899e-07
1.69434e-07
1.16127e-06
1.27353e-06
1.2605e-07
1.16376e-07
1.18617e-06
1.32387e-06
1.03034e-07
9.32871e-08
1.2344e-06
1.40317e-06
1.13176e-07
1.03591e-07
1.31172e-06
1.4258e-06
1.69976e-07
1.66497e-07
1.33745e-06
1.84267e-06
1.55998e-06
1.54148e-06
1.77216e-06
1.29497e-06
1.69973e-07
1.66172e-07
1.21303e-06
1.15014e-06
1.85725e-07
1.78082e-07
1.07093e-06
1.16254e-06
1.52013e-07
1.43637e-07
1.08058e-06
1.19027e-06
1.08689e-07
1.00081e-07
1.10574e-06
1.24087e-06
8.87449e-08
7.97822e-08
1.15368e-06
1.32154e-06
9.84424e-08
8.90314e-08
1.23186e-06
1.35444e-06
1.58657e-07
1.55696e-07
1.26756e-06
1.79488e-06
1.49722e-06
1.47916e-06
1.72615e-06
1.21916e-06
1.50851e-07
1.46432e-07
1.14093e-06
1.08584e-06
1.66225e-07
1.59258e-07
1.0099e-06
1.1024e-06
1.39075e-07
1.31492e-07
1.02327e-06
1.13232e-06
1.01962e-07
9.39914e-08
1.05014e-06
1.1843e-06
8.53219e-08
7.66894e-08
1.09908e-06
1.26574e-06
9.53832e-08
8.60543e-08
1.17772e-06
1.30141e-06
1.54489e-07
1.52015e-07
1.21607e-06
1.73715e-06
1.44656e-06
1.42889e-06
1.67019e-06
1.17541e-06
1.38296e-07
1.33158e-07
1.09956e-06
1.04657e-06
1.54827e-07
1.47954e-07
9.72646e-07
1.06554e-06
1.31853e-07
1.24487e-07
9.88251e-07
1.09733e-06
9.79513e-08
9.00227e-08
1.01672e-06
1.15061e-06
8.30937e-08
7.42297e-08
1.06671e-06
1.2326e-06
9.49325e-08
8.55031e-08
1.14571e-06
1.26943e-06
1.5663e-07
1.54459e-07
1.1852e-06
1.69814e-06
1.41346e-06
1.39606e-06
1.63246e-06
1.15094e-06
1.30569e-07
1.24901e-07
1.07651e-06
1.02427e-06
1.47934e-07
1.40991e-07
9.5152e-07
1.04449e-06
1.27033e-07
1.19642e-07
9.68286e-07
1.07745e-06
9.4798e-08
8.67291e-08
9.9779e-07
1.13154e-06
8.09526e-08
7.18187e-08
1.04846e-06
1.21384e-06
9.45084e-08
8.50236e-08
1.12766e-06
1.25132e-06
1.59146e-07
1.57184e-07
1.1678e-06
1.67537e-06
1.39369e-06
1.37645e-06
1.61052e-06
1.13985e-06
1.26781e-07
1.20833e-07
1.06608e-06
1.01413e-06
1.4452e-07
1.37515e-07
9.41934e-07
1.03487e-06
1.24441e-07
1.16996e-07
9.59186e-07
1.06838e-06
9.29445e-08
8.47658e-08
9.89174e-07
1.12284e-06
7.96218e-08
7.03397e-08
1.04015e-06
1.20526e-06
9.41128e-08
8.4615e-08
1.11942e-06
1.24305e-06
1.60469e-07
1.58621e-07
1.15988e-06
1.66499e-06
1.38447e-06
1.36731e-06
1.60057e-06
)
;

boundaryField
{
    interface
    {
        type            calculated;
        value           nonuniform List<scalar> 
192
(
3.34391e-06
2.33848e-06
2.38999e-06
2.50484e-06
2.61803e-06
2.72075e-06
2.57178e-06
1.3899e-06
2.72798e-06
2.27023e-06
2.28608e-06
2.35834e-06
2.46176e-06
2.60238e-06
2.65664e-06
2.57192e-06
2.42893e-06
2.15662e-06
2.18369e-06
2.25107e-06
2.35315e-06
2.50239e-06
2.60301e-06
2.72248e-06
2.2214e-06
1.99994e-06
2.03492e-06
2.10235e-06
2.20368e-06
2.35363e-06
2.46417e-06
2.62756e-06
2.0981e-06
1.89228e-06
1.93171e-06
2.00083e-06
2.10293e-06
2.25313e-06
2.36627e-06
2.53888e-06
2.02572e-06
1.82628e-06
1.86798e-06
1.93863e-06
2.04166e-06
2.19195e-06
2.30561e-06
2.4801e-06
1.98493e-06
1.78859e-06
1.83139e-06
1.90301e-06
2.00666e-06
2.15692e-06
2.27053e-06
2.44552e-06
1.96641e-06
1.77144e-06
1.81468e-06
1.88675e-06
1.99069e-06
2.14088e-06
2.25439e-06
2.42961e-06
3.4435e-06
2.44811e-06
2.50063e-06
2.61757e-06
2.73288e-06
2.83795e-06
2.70088e-06
1.59957e-06
3.09234e-06
2.53625e-06
2.52656e-06
2.59823e-06
2.70569e-06
2.84409e-06
2.88979e-06
2.76225e-06
3.05749e-06
2.50196e-06
2.49127e-06
2.56254e-06
2.66976e-06
2.80777e-06
2.85442e-06
2.73579e-06
3.3353e-06
2.3553e-06
2.40658e-06
2.52277e-06
2.63757e-06
2.74195e-06
2.60935e-06
1.56481e-06
3.21112e-06
2.21354e-06
2.26441e-06
2.37864e-06
2.49107e-06
2.59326e-06
2.44922e-06
1.30874e-06
2.57584e-06
2.12417e-06
2.13846e-06
2.20819e-06
2.30877e-06
2.44687e-06
2.50401e-06
2.44962e-06
2.28254e-06
2.01302e-06
2.03697e-06
2.10095e-06
2.19928e-06
2.3448e-06
2.44709e-06
2.59581e-06
2.08195e-06
1.86218e-06
1.8931e-06
1.95644e-06
2.05341e-06
2.19888e-06
2.31014e-06
2.50219e-06
1.96354e-06
1.75879e-06
1.79372e-06
1.85827e-06
1.95558e-06
2.10082e-06
2.21411e-06
2.41497e-06
1.89432e-06
1.6955e-06
1.73247e-06
1.79827e-06
1.89621e-06
2.04123e-06
2.15472e-06
2.35722e-06
1.85539e-06
1.65942e-06
1.69737e-06
1.76399e-06
1.86237e-06
2.00717e-06
2.12041e-06
2.32332e-06
1.83775e-06
1.64302e-06
1.68136e-06
1.74836e-06
1.84695e-06
1.99159e-06
2.10465e-06
2.30774e-06
1.60084e-06
2.70152e-06
2.83989e-06
2.74284e-06
2.65299e-06
2.59312e-06
2.55776e-06
2.54146e-06
2.76317e-06
2.89186e-06
2.84886e-06
2.7172e-06
2.62159e-06
2.55991e-06
2.52308e-06
2.50585e-06
2.7366e-06
2.85653e-06
2.81269e-06
2.68154e-06
2.58629e-06
2.52483e-06
2.48813e-06
2.47097e-06
1.56545e-06
2.61017e-06
2.74507e-06
2.64993e-06
2.56174e-06
2.50305e-06
2.46846e-06
2.45254e-06
)
;
    }
    symmetry
    {
        type            symmetry;
    }
    bottom
    {
        type            calculated;
        value           nonuniform List<scalar> 
32
(
3.4537e-06
1.99793e-06
1.66319e-06
1.51066e-06
1.42793e-06
1.38003e-06
1.35308e-06
1.34084e-06
2.28431e-06
4.43745e-07
2.16339e-07
1.94026e-07
1.79965e-07
1.69313e-07
1.6236e-07
1.5892e-07
2.26278e-06
4.32241e-07
2.06977e-07
1.85415e-07
1.7074e-07
1.5951e-07
1.52156e-07
1.48508e-07
3.35516e-06
1.89827e-06
1.56991e-06
1.42416e-06
1.34614e-06
1.3013e-06
1.27616e-06
1.26478e-06
)
;
    }
}


// ************************************************************************* //
