/*--------------------------------*- C++ -*----------------------------------*\
| =========                 |                                                 |
| \\      /  F ield         | OpenFOAM: The Open Source CFD Toolbox           |
|  \\    /   O peration     | Version:  v1912                                 |
|   \\  /    A nd           | Website:  www.openfoam.com                      |
|    \\/     M anipulation  |                                                 |
\*---------------------------------------------------------------------------*/
FoamFile
{
    version     2.0;
    format      ascii;
    class       volSymmTensorField;
    location    "0.42/solid";
    object      epsilon;
}
// * * * * * * * * * * * * * * * * * * * * * * * * * * * * * * * * * * * * * //

dimensions      [0 0 0 0 0 0 0];


internalField   nonuniform List<symmTensor> 
256
(
(-2.63459e-06 1.09273e-07 -4.22841e-08 1.07412e-06 1.14792e-07 -2.76002e-06)
(-3.86091e-07 -6.18668e-08 -1.65777e-08 6.83479e-07 1.155e-07 -2.49774e-06)
(-3.80186e-07 7.83034e-08 1.65314e-08 6.70714e-07 1.17598e-07 -2.47299e-06)
(-2.53471e-06 -9.91403e-08 4.2981e-08 1.02545e-06 1.22509e-07 -2.69375e-06)
(-2.63069e-06 -1.13003e-08 -6.12507e-08 -2.96353e-07 -5.64513e-09 -2.73798e-06)
(-6.32408e-07 -2.712e-08 -2.62519e-08 -9.8285e-08 1.35225e-09 -2.47248e-06)
(-6.24865e-07 4.10954e-08 2.70057e-08 -1.08665e-07 2.91541e-09 -2.44724e-06)
(-2.52697e-06 1.74684e-08 6.25994e-08 -3.24876e-07 -1.02262e-10 -2.67383e-06)
(-2.67615e-06 -2.03314e-08 -6.4978e-08 -2.9327e-07 -1.66793e-08 -2.78128e-06)
(-6.43921e-07 -1.7242e-08 -2.84099e-08 -1.83833e-07 -1.5031e-08 -2.48575e-06)
(-6.36744e-07 2.80532e-08 2.95596e-08 -1.93243e-07 -1.39743e-08 -2.45995e-06)
(-2.5709e-06 2.47939e-08 6.65378e-08 -3.19254e-07 -1.28395e-08 -2.71589e-06)
(-2.73116e-06 -1.00669e-08 -6.67897e-08 -2.26848e-07 -8.14253e-09 -2.84741e-06)
(-6.10272e-07 -1.05356e-08 -2.92587e-08 -2.10095e-07 -8.34636e-09 -2.5351e-06)
(-6.03311e-07 1.85346e-08 3.04639e-08 -2.18713e-07 -7.5723e-09 -2.50899e-06)
(-2.62444e-06 1.34314e-08 6.8404e-08 -2.51067e-07 -5.2617e-09 -2.78111e-06)
(-2.81683e-06 -4.51698e-10 -6.81178e-08 -2.01096e-07 2.99628e-09 -2.94265e-06)
(-5.97522e-07 -4.57979e-09 -2.99152e-08 -2.24773e-07 2.69984e-09 -2.62375e-06)
(-5.90555e-07 1.02386e-08 3.10703e-08 -2.33066e-07 3.34368e-09 -2.59743e-06)
(-2.70885e-06 2.8494e-09 6.97565e-08 -2.24333e-07 5.368e-09 -2.8757e-06)
(-2.95742e-06 1.33751e-08 -6.88173e-08 -2.61773e-07 1.99748e-08 -3.0838e-06)
(-6.28817e-07 3.15887e-09 -3.03468e-08 -2.74186e-07 2.01171e-08 -2.76673e-06)
(-6.22005e-07 2.10654e-10 3.14836e-08 -2.82358e-07 2.07268e-08 -2.74019e-06)
(-2.8492e-06 -1.21654e-08 7.05111e-08 -2.84765e-07 2.21138e-08 -3.01623e-06)
(-3.16893e-06 4.33932e-08 -6.80185e-08 -8.13255e-07 5.08077e-08 -3.29052e-06)
(-7.29346e-07 1.63272e-08 -3.0051e-08 -7.31025e-07 5.29274e-08 -2.99277e-06)
(-7.23568e-07 -1.60491e-08 3.12788e-08 -7.36117e-07 5.35533e-08 -2.96629e-06)
(-3.06405e-06 -4.39779e-08 6.97996e-08 -8.29933e-07 5.2819e-08 -3.2229e-06)
(-3.50259e-06 6.4638e-08 -6.41887e-08 -3.63218e-06 7.41672e-08 -3.63158e-06)
(-8.89576e-07 2.89229e-08 -2.8349e-08 -3.4089e-06 7.84434e-08 -3.40762e-06)
(-8.85586e-07 -2.93106e-08 2.96367e-08 -3.38487e-06 7.90041e-08 -3.38349e-06)
(-3.40673e-06 -6.58491e-08 6.59025e-08 -3.57055e-06 7.57776e-08 -3.5701e-06)
(-2.22256e-06 7.24034e-08 -3.05008e-08 5.48166e-07 -7.29118e-08 -3.70907e-07)
(-2.82994e-07 -6.58579e-08 -6.74985e-09 2.18576e-07 -1.8105e-08 -3.18471e-07)
(-2.75809e-07 7.4629e-08 8.63769e-09 2.05221e-07 -1.28638e-08 -3.18195e-07)
(-2.11573e-06 -6.52219e-08 3.17126e-08 5.00169e-07 -5.66542e-08 -3.72181e-07)
(-2.23119e-06 -1.57499e-08 -4.36842e-08 -1.29358e-07 -1.98241e-08 -5.57741e-07)
(-4.72183e-07 -2.86591e-08 -1.43024e-08 3.24616e-08 6.89474e-09 -4.80571e-07)
(-4.63235e-07 3.54441e-08 1.76168e-08 2.11785e-08 1.03281e-08 -4.81456e-07)
(-2.12236e-06 1.87339e-08 4.56017e-08 -1.59956e-07 -8.47542e-09 -5.63399e-07)
(-2.2569e-06 -2.08988e-08 -4.45962e-08 -1.72162e-07 -1.48903e-08 -5.72938e-07)
(-4.75053e-07 -1.84868e-08 -1.50738e-08 -8.09438e-08 -6.2453e-09 -4.88473e-07)
(-4.66532e-07 2.32646e-08 1.87934e-08 -9.02037e-08 -3.76225e-09 -4.90349e-07)
(-2.14652e-06 2.27247e-08 4.66802e-08 -1.98115e-07 -6.34135e-09 -5.81537e-07)
(-2.29942e-06 -1.087e-08 -4.47513e-08 -1.72086e-07 -1.18178e-08 -5.68804e-07)
(-4.40829e-07 -1.18362e-08 -1.47409e-08 -1.60005e-07 -9.20582e-09 -4.80254e-07)
(-4.32425e-07 1.50653e-08 1.84184e-08 -1.68244e-07 -7.23594e-09 -4.82678e-07)
(-2.18691e-06 1.22121e-08 4.68502e-08 -1.9576e-07 -4.96235e-09 -5.78963e-07)
(-2.38023e-06 -1.11324e-09 -4.52913e-08 -1.74337e-07 1.89159e-09 -5.77261e-07)
(-4.27791e-07 -5.84339e-09 -1.48926e-08 -1.9922e-07 2.85198e-09 -4.86334e-07)
(-4.19199e-07 7.74961e-09 1.84251e-08 -2.07168e-07 4.5331e-09 -4.89059e-07)
(-2.26527e-06 1.95568e-09 4.73893e-08 -1.97041e-07 7.6633e-09 -5.8828e-07)
(-2.52549e-06 1.34508e-08 -4.54462e-08 -2.19703e-07 2.2892e-08 -6.07443e-07)
(-4.59743e-07 2.18688e-09 -1.5098e-08 -2.32359e-07 2.32685e-08 -5.15255e-07)
(-4.51096e-07 -1.73424e-09 1.85365e-08 -2.40097e-07 2.47399e-08 -5.18249e-07)
(-2.40859e-06 -1.34488e-08 4.75769e-08 -2.41878e-07 2.78454e-08 -6.19213e-07)
(-2.76088e-06 4.50661e-08 -4.44796e-08 -6.75443e-07 4.12024e-08 -6.80134e-07)
(-5.63368e-07 1.59463e-08 -1.49081e-08 -5.87223e-07 4.18147e-08 -5.89014e-07)
(-5.55632e-07 -1.75641e-08 1.81631e-08 -5.91454e-07 4.29691e-08 -5.92508e-07)
(-2.64555e-06 -4.65216e-08 4.65811e-08 -6.9023e-07 4.50633e-08 -6.93185e-07)
(-3.1698e-06 6.82823e-08 -4.25236e-08 -3.29049e-06 5.14288e-08 -8.14294e-07)
(-7.2981e-07 3.03825e-08 -1.47651e-08 -2.99389e-06 5.33854e-08 -7.29591e-07)
(-7.24087e-07 -3.10794e-08 1.70335e-08 -2.96749e-06 5.39771e-08 -7.33975e-07)
(-3.06444e-06 -6.97775e-08 4.41282e-08 -3.22277e-06 5.32853e-08 -8.29517e-07)
(-1.94919e-06 4.91293e-08 -1.29454e-08 3.46471e-07 1.42742e-08 -1.79196e-08)
(-2.13674e-07 -7.35837e-08 -3.01492e-10 6.01608e-08 6.02708e-08 -2.14298e-08)
(-2.06525e-07 7.76928e-08 2.0725e-09 4.77401e-08 6.4386e-08 -2.28341e-08)
(-1.84497e-06 -4.39738e-08 1.35801e-08 3.03479e-07 2.69611e-08 -2.21604e-08)
(-1.98821e-06 -1.6656e-08 -1.69268e-08 -1.45399e-07 2.76609e-08 -1.11494e-07)
(-3.62335e-07 -3.03089e-08 -2.62667e-09 -5.80868e-09 5.06733e-08 -1.17905e-07)
(-3.53164e-07 3.33832e-08 5.62193e-09 -1.69268e-08 5.41213e-08 -1.21029e-07)
(-1.8809e-06 1.81737e-08 1.81189e-08 -1.75546e-07 3.8604e-08 -1.20824e-07)
(-2.01554e-06 -1.96584e-08 -1.55492e-08 -1.41438e-07 1.85899e-08 -1.50822e-07)
(-3.61343e-07 -1.86402e-08 -2.21851e-09 -6.48423e-08 2.65891e-08 -1.58578e-07)
(-3.52463e-07 2.03896e-08 5.35202e-09 -7.41003e-08 2.9461e-08 -1.62865e-07)
(-1.90628e-06 2.02769e-08 1.6848e-08 -1.67765e-07 2.78649e-08 -1.6354e-07)
(-2.05529e-06 -1.07516e-08 -1.45678e-08 -1.32686e-07 1.12967e-08 -1.58281e-07)
(-3.28886e-07 -1.23381e-08 -1.47501e-09 -1.25461e-07 1.38817e-08 -1.6658e-07)
(-3.20021e-07 1.31824e-08 4.41277e-09 -1.33687e-07 1.63385e-08 -1.71611e-07)
(-1.94352e-06 1.11504e-08 1.58203e-08 -1.56735e-07 1.92586e-08 -1.73157e-07)
(-2.13408e-06 -1.24854e-09 -1.43704e-08 -1.32229e-07 1.57617e-08 -1.65428e-07)
(-3.16926e-07 -6.54646e-09 -1.31879e-09 -1.5841e-07 1.67135e-08 -1.73882e-07)
(-3.07761e-07 6.68218e-09 4.03831e-09 -1.66288e-07 1.88596e-08 -1.79407e-07)
(-2.01926e-06 1.40862e-09 1.55669e-08 -1.55121e-07 2.26541e-08 -1.81724e-07)
(-2.28109e-06 1.39289e-08 -1.41438e-08 -1.66356e-07 2.59629e-08 -1.88018e-07)
(-3.5078e-07 1.80492e-09 -1.37251e-09 -1.79366e-07 2.62198e-08 -1.96479e-07)
(-3.4144e-07 -2.51993e-09 3.90594e-09 -1.8693e-07 2.80495e-08 -2.02418e-07)
(-2.16336e-06 -1.43623e-08 1.5303e-08 -1.88404e-07 3.18019e-08 -2.05469e-07)
(-2.52608e-06 4.59636e-08 -1.34443e-08 -5.97116e-07 2.74678e-08 -2.29595e-07)
(-4.58303e-07 1.59356e-08 -1.38468e-09 -5.08457e-07 2.7481e-08 -2.38254e-07)
(-4.49781e-07 -1.81217e-08 3.49125e-09 -5.12413e-07 2.88085e-08 -2.44625e-07)
(-2.40854e-06 -4.76239e-08 1.4467e-08 -6.11449e-07 3.17848e-08 -2.48203e-07)
(-2.95924e-06 6.90023e-08 -1.28868e-08 -3.08338e-06 2.25484e-08 -2.62349e-07)
(-6.28132e-07 3.05546e-08 -1.57561e-09 -2.76819e-06 2.24053e-08 -2.71183e-07)
(-6.21582e-07 -3.13284e-08 2.24607e-09 -2.74175e-06 2.2914e-08 -2.77904e-07)
(-2.85006e-06 -7.05338e-08 1.33038e-08 -3.01589e-06 2.42335e-08 -2.81859e-07)
(-1.78714e-06 3.90483e-08 -4.6578e-09 2.74205e-07 4.05637e-08 2.94677e-09)
(-1.82125e-07 -7.56588e-08 2.2369e-09 1.22819e-08 6.75353e-08 -8.84427e-09)
(-1.75638e-07 7.70523e-08 -6.29748e-10 9.90568e-10 7.05443e-08 -9.93168e-09)
(-1.68694e-06 -3.53967e-08 5.08912e-09 2.36039e-07 4.98299e-08 -1.52986e-10)
(-1.83218e-06 -1.62283e-08 -5.33098e-09 -1.78435e-07 4.78202e-08 -4.74623e-08)
(-3.11154e-07 -3.05447e-08 2.7836e-09 -5.06451e-08 6.17444e-08 -6.93073e-08)
(-3.02671e-07 3.15381e-08 -2.4719e-11 -6.1124e-08 6.45774e-08 -7.1891e-08)
(-1.72858e-06 1.69109e-08 6.21105e-09 -2.06929e-07 5.66144e-08 -5.48559e-08)
(-1.86355e-06 -1.80442e-08 -3.72804e-09 -1.50387e-07 3.89513e-08 -9.36673e-08)
(-3.10547e-07 -1.81924e-08 3.63974e-09 -8.20907e-08 4.40481e-08 -1.18888e-07)
(-3.02176e-07 1.83325e-08 -8.05562e-10 -9.11794e-08 4.66245e-08 -1.22518e-07)
(-1.7576e-06 1.80559e-08 4.6921e-09 -1.76499e-07 4.70131e-08 -1.04128e-07)
(-1.90474e-06 -1.00569e-08 -2.60053e-09 -1.1934e-07 2.81808e-08 -1.20853e-07)
(-2.81646e-07 -1.22372e-08 4.33333e-09 -1.15176e-07 2.99025e-08 -1.47349e-07)
(-2.73177e-07 1.18828e-08 -1.74812e-09 -1.23427e-07 3.22297e-08 -1.51735e-07)
(-1.79597e-06 9.99702e-09 3.49747e-09 -1.43705e-07 3.54824e-08 -1.33552e-07)
(-1.98381e-06 -1.06201e-09 -2.19154e-09 -1.05407e-07 2.34606e-08 -1.40994e-07)
(-2.71974e-07 -6.75448e-09 4.52658e-09 -1.32468e-07 2.42059e-08 -1.6805e-07)
(-2.63132e-07 6.08027e-09 -2.21046e-09 -1.40402e-07 2.62811e-08 -1.73008e-07)
(-1.87161e-06 9.1655e-10 2.99974e-09 -1.28705e-07 2.99439e-08 -1.55373e-07)
(-2.13152e-06 1.41608e-08 -2.03886e-09 -1.35185e-07 2.16099e-08 -1.64575e-07)
(-3.07727e-07 1.61068e-09 4.43416e-09 -1.48745e-07 2.19841e-08 -1.91746e-07)
(-2.98646e-07 -2.7713e-09 -2.3904e-09 -1.56357e-07 2.37328e-08 -1.97167e-07)
(-2.01585e-06 -1.47445e-08 2.75801e-09 -1.57588e-07 2.70825e-08 -1.80293e-07)
(-2.37928e-06 4.59847e-08 -1.87983e-09 -5.61217e-07 1.40464e-08 -1.8897e-07)
(-4.1748e-07 1.57099e-08 4.18508e-09 -4.74158e-07 1.42097e-08 -2.15974e-07)
(-4.09135e-07 -1.80732e-08 -2.68582e-09 -4.78204e-07 1.5429e-08 -2.21747e-07)
(-2.26285e-06 -4.76747e-08 2.40668e-09 -5.7594e-07 1.79806e-08 -2.05708e-07)
(-2.81881e-06 6.84707e-08 -1.8617e-09 -2.94424e-06 9.37913e-09 -1.94061e-07)
(-5.88597e-07 3.01282e-08 3.90146e-09 -2.62722e-06 8.92831e-09 -2.20903e-07)
(-5.82119e-07 -3.0993e-08 -3.82561e-09 -2.60103e-06 9.34218e-09 -2.26792e-07)
(-2.70921e-06 -7.00241e-08 1.80007e-09 -2.87755e-06 1.07863e-08 -2.11176e-07)
(-1.69437e-06 3.52749e-08 -1.78153e-09 2.43383e-07 3.96464e-08 -4.63524e-09)
(-1.69464e-07 -7.48461e-08 2.16205e-09 -5.69424e-09 5.36631e-08 -1.25667e-08)
(-1.63595e-07 7.46669e-08 -8.69085e-10 -1.60246e-08 5.58091e-08 -1.3386e-08)
(-1.5973e-06 -3.26226e-08 2.12783e-09 2.0902e-07 4.62062e-08 -6.99362e-09)
(-1.73974e-06 -1.55332e-08 -1.63153e-09 -1.96341e-07 4.54326e-08 -4.10258e-08)
(-2.90876e-07 -3.00375e-08 3.33772e-09 -7.4686e-08 5.28657e-08 -5.63254e-08)
(-2.83143e-07 2.98108e-08 -1.03881e-09 -8.45127e-08 5.49793e-08 -5.83721e-08)
(-1.63922e-06 1.57052e-08 2.3528e-09 -2.23128e-07 5.19155e-08 -4.69051e-08)
(-1.77382e-06 -1.68478e-08 -5.0931e-10 -1.63195e-07 4.1175e-08 -8.37153e-08)
(-2.92004e-07 -1.77103e-08 4.09606e-09 -9.91796e-08 4.40043e-08 -1.01608e-07)
(-2.84257e-07 1.69205e-08 -1.69535e-09 -1.08015e-07 4.60208e-08 -1.04562e-07)
(-1.67068e-06 1.65176e-08 1.30973e-09 -1.88763e-07 4.7402e-08 -9.22653e-08)
(-1.81715e-06 -9.39735e-09 3.0704e-10 -1.20118e-07 3.22796e-08 -1.19226e-07)
(-2.66474e-07 -1.20323e-08 4.56027e-09 -1.17481e-07 3.33227e-08 -1.37992e-07)
(-2.5853e-07 1.10101e-08 -2.37372e-09 -1.25713e-07 3.52121e-08 -1.41655e-07)
(-1.71093e-06 9.08943e-09 4.34278e-10 -1.44571e-07 3.81377e-08 -1.29904e-07)
(-1.89732e-06 -8.41848e-10 6.43311e-10 -9.63628e-08 2.40271e-08 -1.47453e-07)
(-2.59085e-07 -6.80578e-09 4.66649e-09 -1.23765e-07 2.4655e-08 -1.66564e-07)
(-2.50711e-07 5.70444e-09 -2.74704e-09 -1.31778e-07 2.63699e-08 -1.70805e-07)
(-1.78742e-06 5.38869e-10 5.21146e-12 -1.2003e-07 2.93419e-08 -1.5987e-07)
(-2.0454e-06 1.4185e-08 6.8697e-10 -1.23794e-07 1.64081e-08 -1.71429e-07)
(-2.96174e-07 1.4514e-09 4.52577e-09 -1.3766e-07 1.69708e-08 -1.90582e-07)
(-2.87515e-07 -2.83519e-09 -2.90532e-09 -1.454e-07 1.84131e-08 -1.95289e-07)
(-1.93168e-06 -1.48387e-08 -1.4522e-10 -1.46691e-07 2.09111e-08 -1.85245e-07)
(-2.29311e-06 4.57121e-08 5.8658e-10 -5.45272e-07 6.90493e-09 -1.89098e-07)
(-4.06741e-07 1.5449e-08 4.21019e-09 -4.59662e-07 7.38289e-09 -2.08109e-07)
(-3.98754e-07 -1.79182e-08 -3.12179e-09 -4.63893e-07 8.37274e-09 -2.13128e-07)
(-2.17804e-06 -4.74174e-08 -2.41598e-10 -5.60597e-07 1.01125e-08 -2.03884e-07)
(-2.73233e-06 6.78089e-08 3.96298e-10 -2.85528e-06 4.31511e-09 -1.92917e-07)
(-5.78058e-07 2.97033e-08 3.87208e-09 -2.54099e-06 4.13899e-09 -2.12079e-07)
(-5.71864e-07 -3.06676e-08 -3.98933e-09 -2.51501e-06 4.46483e-09 -2.17142e-07)
(-2.62307e-06 -6.94026e-08 -5.57113e-10 -2.78927e-06 5.4349e-09 -2.07939e-07)
(-1.64042e-06 3.38144e-08 -8.79013e-10 2.27661e-07 3.09911e-08 -9.99351e-09)
(-1.64078e-07 -7.36738e-08 1.37561e-09 -1.46484e-08 3.80244e-08 -1.41331e-08)
(-1.58639e-07 7.25834e-08 -4.49094e-10 -2.42681e-08 3.94634e-08 -1.48011e-08)
(-1.54537e-06 -3.178e-08 1.13982e-09 1.96005e-07 3.53442e-08 -1.19121e-08)
(-1.68566e-06 -1.49789e-08 -6.95122e-10 -2.04211e-07 3.45274e-08 -4.26177e-08)
(-2.82784e-07 -2.95202e-08 2.2525e-09 -8.58164e-08 3.83325e-08 -5.08801e-08)
(-2.75596e-07 2.85769e-08 -5.55823e-10 -9.51313e-08 3.97753e-08 -5.25834e-08)
(-1.58718e-06 1.48451e-08 1.2453e-09 -2.29631e-07 3.89151e-08 -4.74925e-08)
(-1.7213e-06 -1.61291e-08 -4.46919e-11 -1.71477e-07 3.29315e-08 -8.08699e-08)
(-2.85511e-07 -1.73987e-08 2.7448e-09 -1.09621e-07 3.44505e-08 -9.06899e-08)
(-2.78231e-07 1.60511e-08 -9.33634e-10 -1.18221e-07 3.58618e-08 -9.31912e-08)
(-1.62003e-06 1.55963e-08 6.65326e-10 -1.96477e-07 3.72627e-08 -8.80906e-08)
(-1.76624e-06 -8.97602e-09 4.30625e-10 -1.24902e-07 2.70816e-08 -1.17098e-07)
(-2.62339e-07 -1.19136e-08 2.99716e-09 -1.22938e-07 2.77331e-08 -1.27424e-07)
(-2.54792e-07 1.04833e-08 -1.33234e-09 -1.31123e-07 2.90859e-08 -1.30582e-07)
(-1.66171e-06 8.51978e-09 1.49787e-10 -1.49303e-07 3.12602e-08 -1.26301e-07)
(-1.84738e-06 -7.0392e-10 6.28681e-10 -9.69026e-08 1.96288e-08 -1.47825e-07)
(-2.56586e-07 -6.84869e-09 3.02307e-09 -1.24334e-07 2.01537e-08 -1.58356e-07)
(-2.48563e-07 5.47717e-09 -1.57333e-09 -1.32407e-07 2.13987e-08 -1.62074e-07)
(-1.73899e-06 3.0347e-10 -1.24166e-10 -1.2082e-07 2.34842e-08 -1.58737e-07)
(-1.99553e-06 1.41424e-08 6.19401e-10 -1.22561e-07 1.179e-08 -1.72254e-07)
(-2.94463e-07 1.326e-09 2.88775e-09 -1.36452e-07 1.23813e-08 -1.82878e-07)
(-2.86119e-07 -2.86791e-09 -1.6959e-09 -1.44314e-07 1.3432e-08 -1.87054e-07)
(-1.88308e-06 -1.48463e-08 -2.09342e-10 -1.45878e-07 1.508e-08 -1.84578e-07)
(-2.24229e-06 4.54912e-08 4.85771e-10 -5.38609e-07 3.92258e-09 -1.8935e-07)
(-4.05231e-07 1.52896e-08 2.6342e-09 -4.53729e-07 4.51649e-09 -2.00019e-07)
(-3.97515e-07 -1.7855e-08 -1.87262e-09 -4.58124e-07 5.2354e-09 -2.04492e-07)
(-2.12811e-06 -4.72201e-08 -2.38485e-10 -5.54458e-07 6.26822e-09 -2.02646e-07)
(-2.67982e-06 6.74014e-08 2.80208e-10 -2.79976e-06 2.27647e-09 -1.97381e-07)
(-5.76408e-07 2.94658e-08 2.32504e-09 -2.48783e-06 2.3561e-09 -2.08312e-07)
(-5.70445e-07 -3.05199e-08 -2.46555e-09 -2.462e-06 2.59199e-09 -2.1281e-07)
(-2.57081e-06 -6.90406e-08 -4.16222e-10 -2.73429e-06 3.09235e-09 -2.10896e-07)
(-1.61003e-06 3.31318e-08 -4.81231e-10 2.19305e-07 1.94424e-08 -1.25821e-08)
(-1.6145e-07 -7.29123e-08 6.92677e-10 -1.94614e-08 2.27686e-08 -1.47398e-08)
(-1.56275e-07 7.13224e-08 -1.38741e-10 -2.8621e-08 2.35961e-08 -1.53246e-08)
(-1.51617e-06 -3.14498e-08 6.42648e-10 1.89362e-07 2.19242e-08 -1.42412e-08)
(-1.65521e-06 -1.46623e-08 -4.06274e-10 -2.07638e-07 2.11394e-08 -4.43253e-08)
(-2.79052e-07 -2.92128e-08 1.15296e-09 -9.09627e-08 2.29652e-08 -4.8771e-08)
(-2.72201e-07 2.78724e-08 -1.19003e-10 -9.99376e-08 2.38015e-08 -5.02734e-08)
(-1.55795e-06 1.43583e-08 7.50218e-10 -2.32138e-07 2.36671e-08 -4.8578e-08)
(-1.69167e-06 -1.57533e-08 -8.70642e-11 -1.75907e-07 2.05339e-08 -7.97025e-08)
(-2.82793e-07 -1.72456e-08 1.40696e-09 -1.15118e-07 2.13027e-08 -8.51002e-08)
(-2.75806e-07 1.55786e-08 -2.84634e-10 -1.23547e-07 2.21313e-08 -8.73282e-08)
(-1.59153e-06 1.51054e-08 4.80275e-10 -2.00475e-07 2.30681e-08 -8.60771e-08)
(-1.73758e-06 -8.75886e-09 1.44938e-10 -1.29172e-07 1.73165e-08 -1.14431e-07)
(-2.60983e-07 -1.18747e-08 1.5216e-09 -1.27486e-07 1.77005e-08 -1.20181e-07)
(-2.53685e-07 1.01991e-08 -4.79616e-10 -1.35626e-07 1.85053e-08 -1.23025e-07)
(-1.63406e-06 8.21436e-09 2.26643e-10 -1.53485e-07 1.97992e-08 -1.2267e-07)
(-1.8193e-06 -6.41534e-10 2.36951e-10 -1.00031e-07 1.25394e-08 -1.45114e-07)
(-2.56174e-07 -6.89478e-09 1.51411e-09 -1.27396e-07 1.29006e-08 -1.51061e-07)
(-2.4837e-07 5.3484e-09 -6.07525e-10 -1.35503e-07 1.36482e-08 -1.54448e-07)
(-1.71181e-06 1.78427e-10 8.65416e-11 -1.24088e-07 1.48565e-08 -1.5502e-07)
(-1.96736e-06 1.4104e-08 2.18386e-10 -1.24532e-07 7.25073e-09 -1.69946e-07)
(-2.94464e-07 1.24726e-09 1.42337e-09 -1.38329e-07 7.6844e-09 -1.76082e-07)
(-2.86312e-07 -2.90465e-09 -6.86942e-10 -1.46275e-07 8.31813e-09 -1.7992e-07)
(-1.85567e-06 -1.48459e-08 4.21641e-11 -1.48129e-07 9.24145e-09 -1.81262e-07)
(-2.21321e-06 4.53844e-08 1.32466e-10 -5.36209e-07 2.30883e-09 -1.88288e-07)
(-4.05269e-07 1.52275e-08 1.27246e-09 -4.51556e-07 2.76678e-09 -1.94624e-07)
(-3.97718e-07 -1.78711e-08 -8.11818e-10 -4.56064e-07 3.20105e-09 -1.98755e-07)
(-2.09956e-06 -4.71369e-08 2.26474e-11 -5.52419e-07 3.7332e-09 -2.0059e-07)
(-2.64933e-06 6.72272e-08 -6.64683e-12 -2.76743e-06 1.21523e-09 -2.0011e-07)
(-5.76302e-07 2.93755e-08 1.06109e-09 -2.45676e-06 1.35799e-09 -2.06702e-07)
(-5.70483e-07 -3.04964e-08 -1.15593e-09 -2.43103e-06 1.50069e-09 -2.10851e-07)
(-2.54048e-06 -6.89035e-08 -7.59391e-11 -2.70232e-06 1.71108e-09 -2.12636e-07)
(-1.59621e-06 3.28208e-08 -1.59799e-10 2.15611e-07 6.60557e-09 -1.35822e-08)
(-1.60275e-07 -7.25786e-08 2.05879e-10 -2.15988e-08 7.59653e-09 -1.50042e-08)
(-1.55226e-07 7.07686e-08 -2.17707e-11 -3.05336e-08 7.86649e-09 -1.55507e-08)
(-1.5029e-06 -3.12987e-08 2.14189e-10 1.86494e-07 7.41147e-09 -1.51186e-08)
(-1.64135e-06 -1.45333e-08 -1.46102e-10 -2.08992e-07 7.09086e-09 -4.51221e-08)
(-2.77396e-07 -2.90864e-08 3.42817e-10 -9.30706e-08 7.6396e-09 -4.81259e-08)
(-2.70706e-07 2.75699e-08 4.02829e-12 -1.01877e-07 7.91333e-09 -4.95337e-08)
(-1.54466e-06 1.41537e-08 2.62703e-10 -2.33033e-07 7.91544e-09 -4.90752e-08)
(-1.67818e-06 -1.55978e-08 -5.21582e-11 -1.77829e-07 6.91825e-09 -7.9179e-08)
(-2.8159e-07 -1.71891e-08 4.19064e-10 -1.17486e-07 7.15768e-09 -8.29017e-08)
(-2.74744e-07 1.53764e-08 -3.93109e-11 -1.25828e-07 7.43042e-09 -8.49993e-08)
(-1.57857e-06 1.48977e-08 1.86441e-10 -2.02168e-07 7.75091e-09 -8.514e-08)
(-1.72451e-06 -8.67168e-09 1.60462e-11 -1.31482e-07 5.89424e-09 -1.1277e-07)
(-2.60379e-07 -1.18691e-08 4.51102e-10 -1.29896e-07 6.02452e-09 -1.16808e-07)
(-2.53201e-07 1.00768e-08 -9.64452e-11 -1.3801e-07 6.29101e-09 -1.19502e-07)
(-1.62147e-06 8.08535e-09 1.11614e-10 -1.55737e-07 6.71597e-09 -1.20532e-07)
(-1.80648e-06 -6.20474e-10 4.17432e-11 -1.02217e-07 4.28269e-09 -1.4301e-07)
(-2.55983e-07 -6.92402e-09 4.44841e-10 -1.29531e-07 4.41228e-09 -1.47273e-07)
(-2.48284e-07 5.28955e-09 -1.35953e-10 -1.37653e-07 4.66098e-09 -1.50499e-07)
(-1.69941e-06 1.25818e-10 6.96249e-11 -1.26334e-07 5.05411e-09 -1.52411e-07)
(-1.95447e-06 1.40857e-08 3.38748e-11 -1.26181e-07 2.46258e-09 -1.68048e-07)
(-2.94447e-07 1.2115e-09 4.13616e-10 -1.39901e-07 2.61989e-09 -1.72564e-07)
(-2.86387e-07 -2.93119e-09 -1.63691e-10 -1.47888e-07 2.83132e-09 -1.76236e-07)
(-1.84313e-06 -1.48485e-08 5.56121e-11 -1.49914e-07 3.12792e-09 -1.78858e-07)
(-2.1998e-06 4.535e-08 6.02503e-12 -5.35549e-07 7.96083e-10 -1.87347e-07)
(-4.05264e-07 1.52132e-08 3.64663e-10 -4.50927e-07 9.64397e-10 -1.92136e-07)
(-3.9779e-07 -1.79007e-08 -2.09335e-10 -4.55492e-07 1.1095e-09 -1.961e-07)
(-2.08639e-06 -4.71167e-08 4.71699e-11 -5.5194e-07 1.27329e-09 -1.99151e-07)
(-2.63519e-06 6.71749e-08 -4.17858e-11 -2.75255e-06 3.9456e-10 -2.01162e-07)
(-5.76225e-07 2.9353e-08 2.90229e-10 -2.4424e-06 4.57682e-10 -2.06179e-07)
(-5.70476e-07 -3.05094e-08 -3.22238e-10 -2.41671e-06 5.05401e-10 -2.1016e-07)
(-2.5264e-06 -6.88716e-08 1.45996e-11 -2.68762e-06 5.60788e-10 -2.13195e-07)
)
;

boundaryField
{
    interface
    {
        type            calculated;
        value           nonuniform List<symmTensor> 
192
(
(-4.59714e-06 2.17864e-12 2.09788e-11 1.07412e-06 1.14792e-07 -2.76002e-06)
(-4.31588e-06 1.13772e-12 3.27102e-11 -2.96353e-07 -5.64513e-09 -2.73798e-06)
(-4.40234e-06 -1.08601e-12 3.56977e-11 -2.9327e-07 -1.66793e-08 -2.78128e-06)
(-4.53151e-06 -3.72832e-12 3.59964e-11 -2.26848e-07 -8.14253e-09 -2.84741e-06)
(-4.6999e-06 -5.97147e-12 3.51255e-11 -2.01096e-07 2.99628e-09 -2.94265e-06)
(-4.94105e-06 -1.01625e-11 3.38236e-11 -2.61773e-07 1.99748e-08 -3.0838e-06)
(-5.25676e-06 -1.32103e-11 3.08233e-11 -8.13255e-07 5.08077e-08 -3.29052e-06)
(-5.71278e-06 -2.8628e-11 2.84032e-11 -3.63218e-06 7.41672e-08 -3.63158e-06)
(-3.9232e-06 1.47826e-12 1.0506e-11 5.48166e-07 -7.29118e-08 -3.70907e-07)
(-3.72844e-06 5.0823e-13 1.75372e-11 -1.29358e-07 -1.98241e-08 -5.57741e-07)
(-3.78397e-06 -1.54257e-12 1.89508e-11 -1.72162e-07 -1.48903e-08 -5.72938e-07)
(-3.89117e-06 -4.30488e-12 1.87478e-11 -1.72086e-07 -1.18178e-08 -5.68804e-07)
(-4.05191e-06 -6.73226e-12 1.78686e-11 -1.74337e-07 1.89159e-09 -5.77261e-07)
(-4.30248e-06 -1.14112e-11 1.67411e-11 -2.19703e-07 2.2892e-08 -6.07443e-07)
(-4.6621e-06 -1.48126e-11 1.48009e-11 -6.75443e-07 4.12024e-08 -6.80134e-07)
(-5.25811e-06 -3.1114e-11 1.31938e-11 -3.29049e-06 5.14288e-08 -8.14294e-07)
(-3.46534e-06 1.24878e-12 8.36314e-12 3.46471e-07 1.42742e-08 -1.79196e-08)
(-3.3629e-06 2.18944e-13 1.38314e-11 -1.45399e-07 2.76609e-08 -1.11494e-07)
(-3.42149e-06 -1.86492e-12 1.49096e-11 -1.41438e-07 1.85899e-08 -1.50822e-07)
(-3.52197e-06 -4.85337e-12 1.47268e-11 -1.32686e-07 1.12967e-08 -1.58281e-07)
(-3.67833e-06 -7.57607e-12 1.40187e-11 -1.32229e-07 1.57617e-08 -1.65428e-07)
(-3.93046e-06 -1.28205e-11 1.31019e-11 -1.66356e-07 2.59629e-08 -1.88018e-07)
(-4.30459e-06 -1.6759e-11 1.16475e-11 -5.97116e-07 2.74678e-08 -2.29595e-07)
(-4.94495e-06 -3.42411e-11 1.0367e-11 -3.08338e-06 2.25484e-08 -2.62349e-07)
(-3.18449e-06 9.15504e-13 5.21915e-12 2.74205e-07 4.05637e-08 2.94677e-09)
(-3.10957e-06 -2.34166e-13 9.06324e-12 -1.78435e-07 4.78202e-08 -4.74623e-08)
(-3.17327e-06 -2.34047e-12 9.7762e-12 -1.50387e-07 3.89513e-08 -9.36673e-08)
(-3.27324e-06 -5.42511e-12 9.57218e-12 -1.1934e-07 2.81808e-08 -1.20853e-07)
(-3.42833e-06 -8.29443e-12 9.00794e-12 -1.05407e-07 2.34606e-08 -1.40994e-07)
(-3.68004e-06 -1.37997e-11 8.31212e-12 -1.35185e-07 2.16099e-08 -1.64575e-07)
(-4.05719e-06 -1.79813e-11 7.35583e-12 -5.61217e-07 1.40464e-08 -1.8897e-07)
(-4.70941e-06 -3.58119e-11 6.53561e-12 -2.94424e-06 9.37913e-09 -1.94061e-07)
(-3.01968e-06 7.64318e-13 3.8523e-12 2.43383e-07 3.96464e-08 -4.63524e-09)
(-2.95283e-06 -5.0302e-13 6.68281e-12 -1.96341e-07 4.54326e-08 -4.10258e-08)
(-3.01933e-06 -2.68393e-12 7.21248e-12 -1.63195e-07 4.1175e-08 -8.37153e-08)
(-3.12039e-06 -5.87508e-12 7.06156e-12 -1.20118e-07 3.22796e-08 -1.19226e-07)
(-3.27572e-06 -8.89069e-12 6.64455e-12 -9.63628e-08 2.40271e-08 -1.47453e-07)
(-3.52694e-06 -1.46186e-11 6.12337e-12 -1.23794e-07 1.64081e-08 -1.71429e-07)
(-3.90314e-06 -1.90264e-11 5.43999e-12 -5.45272e-07 6.90493e-09 -1.89098e-07)
(-4.55512e-06 -3.71852e-11 4.83484e-12 -2.85528e-06 4.31511e-09 -1.92917e-07)
(-2.9223e-06 6.41945e-13 2.38856e-12 2.27661e-07 3.09911e-08 -9.99351e-09)
(-2.8586e-06 -7.18872e-13 4.25566e-12 -2.04211e-07 3.45274e-08 -4.26177e-08)
(-2.92647e-06 -2.95724e-12 4.60651e-12 -1.71477e-07 3.29315e-08 -8.08699e-08)
(-3.02856e-06 -6.21237e-12 4.49656e-12 -1.24902e-07 2.70816e-08 -1.17098e-07)
(-3.18435e-06 -9.31271e-12 4.21222e-12 -9.69026e-08 1.96288e-08 -1.47825e-07)
(-3.43499e-06 -1.5159e-11 3.86186e-12 -1.22561e-07 1.179e-08 -1.72254e-07)
(-3.80914e-06 -1.96878e-11 3.43062e-12 -5.38609e-07 3.92258e-09 -1.8935e-07)
(-4.45834e-06 -3.80205e-11 3.0549e-12 -2.79976e-06 2.27647e-09 -1.97381e-07)
(-2.86706e-06 5.85493e-13 1.41065e-12 2.19305e-07 1.94424e-08 -1.25821e-08)
(-2.80489e-06 -8.39985e-13 2.50638e-12 -2.07638e-07 2.11394e-08 -4.43253e-08)
(-2.8734e-06 -3.12864e-12 2.71463e-12 -1.75907e-07 2.05339e-08 -7.97025e-08)
(-2.97614e-06 -6.43332e-12 2.65086e-12 -1.29172e-07 1.73165e-08 -1.14431e-07)
(-3.13224e-06 -9.59703e-12 2.48562e-12 -1.00031e-07 1.25394e-08 -1.45114e-07)
(-3.38235e-06 -1.55255e-11 2.27765e-12 -1.24532e-07 7.25073e-09 -1.69946e-07)
(-3.75469e-06 -2.01407e-11 2.03009e-12 -5.36209e-07 2.30883e-09 -1.88288e-07)
(-4.40146e-06 -3.8599e-11 1.80415e-12 -2.76743e-06 1.21523e-09 -2.0011e-07)
(-2.84189e-06 5.47948e-13 4.22816e-13 2.15611e-07 6.60557e-09 -1.35822e-08)
(-2.78039e-06 -9.09108e-13 7.75055e-13 -2.08992e-07 7.09086e-09 -4.51221e-08)
(-2.84916e-06 -3.21827e-12 8.42478e-13 -1.77829e-07 6.91825e-09 -7.9179e-08)
(-2.95219e-06 -6.5414e-12 8.20248e-13 -1.31482e-07 5.89424e-09 -1.1277e-07)
(-3.10843e-06 -9.73193e-12 7.66496e-13 -1.02217e-07 4.28269e-09 -1.4301e-07)
(-3.35823e-06 -1.56923e-11 6.9871e-13 -1.26181e-07 2.46258e-09 -1.68048e-07)
(-3.72956e-06 -2.03474e-11 6.23254e-13 -5.35549e-07 7.96083e-10 -1.87347e-07)
(-4.37505e-06 -3.88594e-11 5.51321e-13 -2.75255e-06 3.9456e-10 -2.01162e-07)
(-2.63459e-06 1.09273e-07 -3.06613e-11 1.07412e-06 -6.15495e-12 -4.82105e-06)
(-2.63069e-06 -1.13003e-08 -4.98636e-11 -2.96353e-07 -6.36355e-12 -4.52907e-06)
(-2.67615e-06 -2.03314e-08 -5.53011e-11 -2.9327e-07 -4.54673e-12 -4.61677e-06)
(-2.73116e-06 -1.00669e-08 -5.64904e-11 -2.26848e-07 -3.12487e-12 -4.75196e-06)
(-2.81683e-06 -4.51698e-10 -5.64291e-11 -2.01096e-07 -2.60547e-12 -4.92553e-06)
(-2.95742e-06 1.33751e-08 -5.64095e-11 -2.61773e-07 -2.94356e-12 -5.16923e-06)
(-3.16893e-06 4.33932e-08 -5.6421e-11 -8.13255e-07 -3.6213e-12 -5.49047e-06)
(-3.50259e-06 6.4638e-08 -6.0417e-11 -3.63218e-06 -5.02395e-12 -5.9615e-06)
(-3.86091e-07 -6.18668e-08 -1.99769e-11 6.83479e-07 -3.42785e-12 -4.39512e-06)
(-6.32408e-07 -2.712e-08 -3.61334e-11 -9.8285e-08 -4.17677e-12 -4.1412e-06)
(-6.43921e-07 -1.7242e-08 -4.02009e-11 -1.83833e-07 -2.83766e-12 -4.1826e-06)
(-6.10272e-07 -1.05356e-08 -4.08318e-11 -2.10095e-07 -1.4121e-12 -4.29204e-06)
(-5.97522e-07 -4.57979e-09 -4.07933e-11 -2.24773e-07 -5.71888e-13 -4.45682e-06)
(-6.28817e-07 3.15887e-09 -4.11436e-11 -2.74186e-07 -1.89912e-13 -4.70656e-06)
(-7.29346e-07 1.63272e-08 -4.22637e-11 -7.31025e-07 -2.56983e-13 -5.06477e-06)
(-8.89576e-07 2.89229e-08 -4.78086e-11 -3.4089e-06 -7.95253e-13 -5.67128e-06)
(-3.80186e-07 7.83034e-08 -2.10239e-11 6.70714e-07 -2.20535e-12 -4.34772e-06)
(-6.24865e-07 4.10954e-08 -3.80329e-11 -1.08665e-07 -2.79803e-12 -4.0923e-06)
(-6.36744e-07 2.80532e-08 -4.2565e-11 -1.93243e-07 -1.733e-12 -4.1318e-06)
(-6.03311e-07 1.85346e-08 -4.33199e-11 -2.18713e-07 -3.10501e-13 -4.24024e-06)
(-5.90555e-07 1.02386e-08 -4.3168e-11 -2.33066e-07 7.29069e-13 -4.40442e-06)
(-6.22005e-07 2.10654e-10 -4.31846e-11 -2.82358e-07 1.59304e-12 -4.65356e-06)
(-7.23568e-07 -1.60491e-08 -4.37333e-11 -7.36117e-07 2.13221e-12 -5.01136e-06)
(-8.85586e-07 -2.93106e-08 -4.87518e-11 -3.38487e-06 2.19965e-12 -5.62132e-06)
(-2.53471e-06 -9.91403e-08 -2.46031e-11 1.02545e-06 -1.65399e-12 -4.69087e-06)
(-2.52697e-06 1.74684e-08 -4.46705e-11 -3.24876e-07 -2.00244e-12 -4.3998e-06)
(-2.5709e-06 2.47939e-08 -5.03105e-11 -3.19254e-07 -9.7885e-13 -4.48266e-06)
(-2.62444e-06 1.34314e-08 -5.1348e-11 -2.51067e-07 4.94569e-13 -4.61496e-06)
(-2.70885e-06 2.8494e-09 -5.10972e-11 -2.24333e-07 1.60263e-12 -4.78671e-06)
(-2.8492e-06 -1.21654e-08 -5.10076e-11 -2.84765e-07 2.72408e-12 -5.0287e-06)
(-3.06405e-06 -4.39779e-08 -5.08741e-11 -8.29933e-07 3.61442e-12 -5.34851e-06)
(-3.40673e-06 -6.58491e-08 -5.58739e-11 -3.57055e-06 4.5835e-12 -5.82879e-06)
(-4.4092e-06 6.09703e-12 9.37125e-12 1.02545e-06 1.22509e-07 -2.69375e-06)
(-4.12353e-06 5.44156e-12 1.65495e-11 -3.24876e-07 -1.02262e-10 -2.67383e-06)
(-4.20618e-06 1.76139e-12 1.82441e-11 -3.19254e-07 -1.28395e-08 -2.71589e-06)
(-4.33201e-06 -1.97719e-12 1.85627e-11 -2.51067e-07 -5.2617e-09 -2.78111e-06)
(-4.49788e-06 -3.98862e-12 1.84832e-11 -2.24333e-07 5.368e-09 -2.8757e-06)
(-4.73823e-06 -7.03881e-12 1.92977e-11 -2.84765e-07 2.21138e-08 -3.01623e-06)
(-5.05857e-06 -6.97642e-12 1.94215e-11 -8.29933e-07 5.2819e-08 -3.2229e-06)
(-5.52904e-06 -2.20113e-11 2.23923e-11 -3.57055e-06 7.57776e-08 -3.5701e-06)
(-3.72392e-06 2.27884e-12 6.88714e-15 5.00169e-07 -5.66542e-08 -3.72181e-07)
(-3.52869e-06 1.80108e-12 2.3425e-12 -1.59956e-07 -8.47542e-09 -5.63399e-07)
(-3.58026e-06 -2.92053e-13 2.39197e-12 -1.98115e-07 -6.34135e-09 -5.81537e-07)
(-3.68296e-06 -2.72443e-12 2.27586e-12 -1.9576e-07 -4.96235e-09 -5.78963e-07)
(-3.83918e-06 -3.73175e-12 2.43252e-12 -1.97041e-07 7.6633e-09 -5.8828e-07)
(-4.08595e-06 -6.03745e-12 3.60495e-12 -2.41878e-07 2.78454e-08 -6.19213e-07)
(-4.44691e-06 -4.34988e-12 4.85411e-12 -6.9023e-07 4.50633e-08 -6.93185e-07)
(-5.05883e-06 -1.91068e-11 7.57653e-12 -3.22277e-06 5.32853e-08 -8.29517e-07)
(-3.2712e-06 1.19237e-12 1.50613e-12 3.03479e-07 2.69611e-08 -2.21604e-08)
(-3.16661e-06 4.96074e-13 4.36613e-12 -1.75546e-07 3.8604e-08 -1.20824e-07)
(-3.22072e-06 -9.85708e-13 5.02449e-12 -1.67765e-07 2.78649e-08 -1.6354e-07)
(-3.31616e-06 -2.92364e-12 5.18261e-12 -1.56735e-07 1.92586e-08 -1.73157e-07)
(-3.46702e-06 -3.4321e-12 5.36115e-12 -1.55121e-07 2.26541e-08 -1.81724e-07)
(-3.71367e-06 -5.42767e-12 6.13605e-12 -1.88404e-07 3.18019e-08 -2.05469e-07)