/*--------------------------------*- C++ -*----------------------------------*\
| =========                 |                                                 |
| \\      /  F ield         | OpenFOAM: The Open Source CFD Toolbox           |
|  \\    /   O peration     | Version:  v1912                                 |
|   \\  /    A nd           | Website:  www.openfoam.com                      |
|    \\/     M anipulation  |                                                 |
\*---------------------------------------------------------------------------*/
FoamFile
{
    version     2.0;
    format      ascii;
    class       pointVectorField;
    location    "0.42/solid";
    object      pointDD;
}
// * * * * * * * * * * * * * * * * * * * * * * * * * * * * * * * * * * * * * //

dimensions      [0 1 0 0 0 0 0];


internalField   nonuniform List<vector> 
405
(
(2.58219e-10 4.37013e-10 2.47634e-10)
(1.12644e-10 2.97246e-10 1.5692e-10)
(-3.67052e-12 2.45842e-10 1.2526e-10)
(-1.15759e-10 2.884e-10 1.4512e-10)
(-2.36991e-10 4.21235e-10 2.29771e-10)
(5.17434e-10 5.16756e-10 5.97026e-10)
(3.12177e-10 4.86957e-10 5.34204e-10)
(-1.0522e-11 4.03669e-10 4.62771e-10)
(-3.23341e-10 4.74497e-10 5.07656e-10)
(-4.88069e-10 5.01582e-10 5.64022e-10)
(6.64518e-10 2.14211e-10 9.8198e-10)
(4.09601e-10 2.3934e-10 9.11843e-10)
(-1.6694e-11 1.94975e-10 8.27751e-10)
(-4.31679e-10 2.36611e-10 8.79928e-10)
(-6.42733e-10 2.14608e-10 9.38834e-10)
(6.69474e-10 -9.20154e-11 1.28221e-09)
(4.08159e-10 -3.90617e-11 1.20632e-09)
(-2.3586e-11 -5.89682e-11 1.11205e-09)
(-4.44004e-10 -3.36811e-11 1.17017e-09)
(-6.59787e-10 -7.88094e-11 1.2323e-09)
(6.5438e-10 -3.71734e-10 1.56594e-09)
(3.90318e-10 -3.23839e-10 1.48012e-09)
(-3.24251e-11 -3.43634e-10 1.37346e-09)
(-4.43764e-10 -3.11723e-10 1.44069e-09)
(-6.60711e-10 -3.47685e-10 1.51088e-09)
(6.85793e-10 -6.62989e-10 1.86782e-09)
(4.06786e-10 -6.39496e-10 1.76568e-09)
(-4.33902e-11 -6.70928e-10 1.64509e-09)
(-4.82018e-10 -6.21413e-10 1.72341e-09)
(-7.1227e-10 -6.29067e-10 1.80834e-09)
(8.26635e-10 -1.06095e-09 2.21356e-09)
(5.02587e-10 -1.05591e-09 2.09113e-09)
(-5.67801e-11 -1.08393e-09 1.95982e-09)
(-6.04157e-10 -1.03208e-09 2.04609e-09)
(-8.77056e-10 -1.01738e-09 2.14979e-09)
(1.11767e-09 -1.78669e-09 2.60357e-09)
(6.80779e-10 -1.75604e-09 2.50064e-09)
(-7.3338e-11 -1.73121e-09 2.37829e-09)
(-8.13891e-10 -1.72347e-09 2.4523e-09)
(-1.19369e-09 -1.72912e-09 2.53512e-09)
(1.29897e-09 -2.28478e-09 2.82935e-09)
(7.84851e-10 -2.21385e-09 2.77563e-09)
(-8.30609e-11 -2.1239e-09 2.68812e-09)
(-9.3625e-10 -2.16726e-09 2.73332e-09)
(-1.40412e-09 -2.21291e-09 2.76477e-09)
(1.27899e-10 2.15785e-10 1.10205e-10)
(0 0 0)
(0 0 0)
(0 0 0)
(-9.84412e-11 2.07004e-10 1.041e-10)
(3.5121e-10 2.93342e-10 4.01641e-10)
(0 0 0)
(0 0 0)
(0 0 0)
(-2.92799e-10 2.83663e-10 3.82681e-10)
(4.5688e-10 2.27608e-12 7.34086e-10)
(0 0 0)
(0 0 0)
(0 0 0)
(-4.0231e-10 7.24261e-12 7.04356e-10)
(4.543e-10 -2.86249e-10 1.02228e-09)
(0 0 0)
(0 0 0)
(0 0 0)
(-4.08562e-10 -2.68645e-10 9.85649e-10)
(4.3639e-10 -5.52176e-10 1.29697e-09)
(0 0 0)
(0 0 0)
(0 0 0)
(-4.03824e-10 -5.23213e-10 1.25506e-09)
(4.60423e-10 -8.19404e-10 1.58487e-09)
(0 0 0)
(0 0 0)
(0 0 0)
(-4.45328e-10 -7.79743e-10 1.53832e-09)
(5.88444e-10 -1.15743e-09 1.89772e-09)
(0 0 0)
(0 0 0)
(0 0 0)
(-5.94277e-10 -1.10734e-09 1.84671e-09)
(8.97481e-10 -1.76723e-09 2.1868e-09)
(0 0 0)
(0 0 0)
(0 0 0)
(-9.23369e-10 -1.70294e-09 2.13156e-09)
(1.11575e-09 -2.18335e-09 2.34664e-09)
(6.78063e-10 -2.07889e-09 2.36481e-09)
(-7.5802e-11 -1.95397e-09 2.34244e-09)
(-8.16141e-10 -2.02569e-09 2.33608e-09)
(-1.19543e-09 -2.10661e-09 2.2964e-09)
(3.19573e-11 8.06548e-11 2.55161e-11)
(0 0 0)
(0 0 0)
(0 0 0)
(-4.05383e-12 7.25155e-11 2.26975e-11)
(1.14355e-10 3.69625e-11 1.71968e-10)
(0 0 0)
(0 0 0)
(0 0 0)
(-5.72107e-11 2.78744e-11 1.61528e-10)
(1.64869e-10 -2.20312e-10 4.28884e-10)
(0 0 0)
(0 0 0)
(0 0 0)
(-1.07977e-10 -2.16068e-10 4.10126e-10)
(1.49691e-10 -4.77262e-10 6.95321e-10)
(0 0 0)
(0 0 0)
(0 0 0)
(-9.8412e-11 -4.61303e-10 6.70349e-10)
(1.26939e-10 -7.19104e-10 9.52519e-10)
(0 0 0)
(0 0 0)
(0 0 0)
(-8.60587e-11 -6.92236e-10 9.22543e-10)
(1.45889e-10 -9.4817e-10 1.2036e-09)
(0 0 0)
(0 0 0)
(0 0 0)
(-1.19972e-10 -9.10901e-10 1.16918e-09)
(2.70911e-10 -1.20342e-09 1.43311e-09)
(0 0 0)
(0 0 0)
(0 0 0)
(-2.63609e-10 -1.15616e-09 1.39462e-09)
(5.85454e-10 -1.6644e-09 1.57472e-09)
(0 0 0)
(0 0 0)
(0 0 0)
(-5.95988e-10 -1.60368e-09 1.53306e-09)
(8.21364e-10 -1.97961e-09 1.62033e-09)
(4.9623e-10 -1.85603e-09 1.66528e-09)
(-6.22413e-11 -1.72195e-09 1.69595e-09)
(-6.0858e-10 -1.80539e-09 1.64472e-09)
(-8.80644e-10 -1.90661e-09 1.58343e-09)
(-1.10037e-11 2.32188e-11 2.02161e-11)
(0 0 0)
(0 0 0)
(0 0 0)
(3.85818e-11 1.42747e-11 1.83066e-11)
(2.81057e-12 -7.77465e-11 1.35059e-10)
(0 0 0)
(0 0 0)
(0 0 0)
(5.51531e-11 -8.88357e-11 1.27894e-10)
(2.27706e-11 -3.31129e-10 3.45774e-10)
(0 0 0)
(0 0 0)
(0 0 0)
(3.79013e-11 -3.29528e-10 3.32474e-10)
(4.17536e-12 -5.76007e-10 5.78674e-10)
(0 0 0)
(0 0 0)
(0 0 0)
(5.37685e-11 -5.63076e-10 5.60235e-10)
(-1.46543e-11 -7.92446e-10 8.05873e-10)
(0 0 0)
(0 0 0)
(0 0 0)
(6.48962e-11 -7.68807e-10 7.83005e-10)
(9.35813e-12 -9.75429e-10 1.01251e-09)
(0 0 0)
(0 0 0)
(0 0 0)
(2.84619e-11 -9.4152e-10 9.85687e-10)
(1.39418e-10 -1.16143e-09 1.17113e-09)
(0 0 0)
(0 0 0)
(0 0 0)
(-1.17825e-10 -1.11765e-09 1.14085e-09)
(4.51047e-10 -1.53902e-09 1.2325e-09)
(0 0 0)
(0 0 0)
(0 0 0)
(-4.45299e-10 -1.48171e-09 1.19979e-09)
(6.73498e-10 -1.82212e-09 1.22258e-09)
(3.93705e-10 -1.71919e-09 1.2514e-09)
(-5.21233e-11 -1.59522e-09 1.28518e-09)
(-4.86017e-10 -1.67028e-09 1.23541e-09)
(-7.14295e-10 -1.75198e-09 1.19378e-09)
(-2.63799e-11 3.38215e-12 2.49838e-11)
(0 0 0)
(0 0 0)
(0 0 0)
(5.39349e-11 -6.36103e-12 2.36273e-11)
(-3.73861e-11 -1.17135e-10 1.28586e-10)
(0 0 0)
(0 0 0)
(0 0 0)
(9.62079e-11 -1.30311e-10 1.23562e-10)
(-2.76266e-11 -3.69257e-10 3.00513e-10)
(0 0 0)
(0 0 0)
(0 0 0)
(9.11448e-11 -3.70469e-10 2.91135e-10)
(-4.41286e-11 -6.06942e-10 4.88897e-10)
(0 0 0)
(0 0 0)
(0 0 0)
(1.07143e-10 -5.97157e-10 4.7562e-10)
(-5.64367e-11 -8.03518e-10 6.71513e-10)
(0 0 0)
(0 0 0)
(0 0 0)
(1.14015e-10 -7.83142e-10 6.54672e-10)
(-2.55547e-11 -9.53921e-10 8.28615e-10)
(0 0 0)
(0 0 0)
(0 0 0)
(7.29116e-11 -9.23279e-10 8.08537e-10)
(1.08581e-10 -1.10251e-09 9.34849e-10)
(0 0 0)
(0 0 0)
(0 0 0)
(-7.53865e-11 -1.0619e-09 9.11997e-10)
(4.14572e-10 -1.44477e-09 9.62334e-10)
(0 0 0)
(0 0 0)
(0 0 0)
(-3.95486e-10 -1.39028e-09 9.37597e-10)
(6.28006e-10 -1.71546e-09 9.37247e-10)
(3.64712e-10 -1.6288e-09 9.43368e-10)
(-4.4527e-11 -1.51702e-09 9.62389e-10)
(-4.41704e-10 -1.58119e-09 9.31298e-10)
(-6.54037e-10 -1.64754e-09 9.15486e-10)
(-3.05205e-11 -2.08211e-12 2.35878e-11)
(0 0 0)
(0 0 0)
(0 0 0)
(5.8103e-11 -1.238e-11 2.26628e-11)
(-4.71461e-11 -1.25622e-10 1.08583e-10)
(0 0 0)
(0 0 0)
(0 0 0)
(1.06586e-10 -1.40351e-10 1.05183e-10)
(-3.74142e-11 -3.72718e-10 2.39522e-10)
(0 0 0)
(0 0 0)
(0 0 0)
(1.02858e-10 -3.7618e-10 2.33167e-10)
(-4.95956e-11 -6.02761e-10 3.79247e-10)
(0 0 0)
(0 0 0)
(0 0 0)
(1.1613e-10 -5.95587e-10 3.70147e-10)
(-5.585e-11 -7.85935e-10 5.12535e-10)
(0 0 0)
(0 0 0)
(0 0 0)
(1.18673e-10 -7.68292e-10 5.00822e-10)
(-1.9455e-11 -9.18985e-10 6.22841e-10)
(0 0 0)
(0 0 0)
(0 0 0)
(7.37798e-11 -8.91044e-10 6.08703e-10)
(1.16891e-10 -1.05232e-09 6.92023e-10)
(0 0 0)
(0 0 0)
(0 0 0)
(-7.51064e-11 -1.01425e-09 6.75805e-10)
(4.17461e-10 -1.38091e-09 7.05653e-10)
(0 0 0)
(0 0 0)
(0 0 0)
(-3.88412e-10 -1.32864e-09 6.88036e-10)
(6.25567e-10 -1.64492e-09 6.82467e-10)
(3.66926e-10 -1.56764e-09 6.77103e-10)
(-3.89596e-11 -1.46475e-09 6.8445e-10)
(-4.32653e-10 -1.52097e-09 6.68517e-10)
(-6.4062e-10 -1.57868e-09 6.66971e-10)
(-3.10723e-11 -2.93453e-12 1.75232e-11)
(0 0 0)
(0 0 0)
(0 0 0)
(5.86696e-11 -1.35829e-11 1.69483e-11)
(-4.74075e-11 -1.24104e-10 7.69351e-11)
(0 0 0)
(0 0 0)
(0 0 0)
(1.07241e-10 -1.39852e-10 7.48298e-11)
(-3.50347e-11 -3.64622e-10 1.64662e-10)
(0 0 0)
(0 0 0)
(0 0 0)
(1.01721e-10 -3.69631e-10 1.60725e-10)
(-4.32101e-11 -5.8744e-10 2.56093e-10)
(0 0 0)
(0 0 0)
(0 0 0)
(1.12046e-10 -5.82127e-10 2.50422e-10)
(-4.50976e-11 -7.6239e-10 3.41902e-10)
(0 0 0)
(0 0 0)
(0 0 0)
(1.11408e-10 -7.4673e-10 3.34539e-10)
(-5.18358e-12 -8.87737e-10 4.11221e-10)
(0 0 0)
(0 0 0)
(0 0 0)
(6.42095e-11 -8.61759e-10 4.02257e-10)
(1.32107e-10 -1.01631e-09 4.53068e-10)
(0 0 0)
(0 0 0)
(0 0 0)
(-8.44703e-11 -9.80068e-10 4.42722e-10)
(4.28591e-10 -1.33972e-09 4.60172e-10)
(0 0 0)
(0 0 0)
(0 0 0)
(-3.92707e-10 -1.28904e-09 4.48898e-10)
(6.3311e-10 -1.59986e-09 4.44197e-10)
(3.75104e-10 -1.52746e-09 4.37127e-10)
(-3.51631e-11 -1.42974e-09 4.39028e-10)
(-4.33148e-10 -1.48144e-09 4.31637e-10)
(-6.40641e-10 -1.53483e-09 4.3428e-10)
(-3.08953e-11 -2.72065e-12 9.19619e-12)
(0 0 0)
(0 0 0)
(0 0 0)
(5.85064e-11 -1.3563e-11 8.92101e-12)
(-4.62243e-11 -1.21155e-10 3.9541e-11)
(0 0 0)
(0 0 0)
(0 0 0)
(1.06286e-10 -1.37476e-10 3.85348e-11)
(-3.1804e-11 -3.56542e-10 8.33841e-11)
(0 0 0)
(0 0 0)
(0 0 0)
(9.91923e-11 -3.62441e-10 8.15018e-11)
(-3.74425e-11 -5.74333e-10 1.284e-10)
(0 0 0)
(0 0 0)
(0 0 0)
(1.07583e-10 -5.70114e-10 1.2568e-10)
(-3.68222e-11 -7.44876e-10 1.70183e-10)
(0 0 0)
(0 0 0)
(0 0 0)
(1.05126e-10 -7.304e-10 1.66635e-10)
(4.94692e-12 -8.67263e-10 2.03507e-10)
(0 0 0)
(0 0 0)
(0 0 0)
(5.67871e-11 -8.42465e-10 1.99166e-10)
(1.42558e-10 -9.94823e-10 2.23292e-10)
(0 0 0)
(0 0 0)
(0 0 0)
(-9.15296e-11 -9.59688e-10 2.18262e-10)
(4.36569e-10 -1.31636e-09 2.26427e-10)
(0 0 0)
(0 0 0)
(0 0 0)
(-3.96703e-10 -1.26665e-09 2.20935e-10)
(6.38899e-10 -1.57453e-09 2.18531e-10)
(3.80732e-10 -1.50438e-09 2.14314e-10)
(-3.29605e-11 -1.40913e-09 2.1454e-10)
(-4.34316e-10 -1.45874e-09 2.11641e-10)
(-6.42051e-10 -1.51022e-09 2.137e-10)
(-1.27608e-11 -9.14032e-12 0)
(3.58443e-12 -2.22661e-11 0)
(1.26996e-13 -3.38001e-11 0)
(-1.77946e-13 -2.57689e-11 0)
(3.55448e-11 -2.05333e-11 0)
(-5.71281e-12 -1.25408e-10 0)
(1.18517e-11 -1.50954e-10 0)
(2.36613e-12 -1.71767e-10 0)
(-4.54304e-14 -1.566e-10 0)
(4.5222e-11 -1.38547e-10 0)
(6.66546e-12 -3.53863e-10 0)
(1.50467e-11 -3.68334e-10 0)
(5.84516e-12 -3.82628e-10 0)
(4.26413e-12 -3.70446e-10 0)
(4.06082e-11 -3.58793e-10 0)
(1.26224e-12 -5.68747e-10 0)
(9.58906e-12 -5.79566e-10 0)
(7.17211e-12 -5.90323e-10 0)
(1.20608e-11 -5.77047e-10 0)
(4.84971e-11 -5.65033e-10 0)
(2.28997e-12 -7.44163e-10 0)
(8.0951e-12 -7.69171e-10 0)
(5.63386e-12 -7.86638e-10 0)
(1.04319e-11 -7.6164e-10 0)
(4.50793e-11 -7.31544e-10 0)
(4.54939e-11 -8.83501e-10 0)
(3.60258e-11 -9.40876e-10 0)
(1.16203e-12 -9.71751e-10 0)
(-2.6236e-11 -9.28255e-10 0)
(-5.5572e-12 -8.61892e-10 0)
(1.85451e-10 -1.03712e-09 0)
(1.29651e-10 -1.1235e-09 0)
(-6.44422e-12 -1.15595e-09 0)
(-1.34369e-10 -1.1057e-09 0)
(-1.57655e-10 -1.00642e-09 0)
(4.58709e-10 -1.3619e-09 0)
(2.90877e-10 -1.40991e-09 0)
(-1.78207e-11 -1.39851e-09 0)
(-3.16302e-10 -1.38436e-09 0)
(-4.45727e-10 -1.31792e-09 0)
(6.3657e-10 -1.59024e-09 0)
(3.83245e-10 -1.54645e-09 0)
(-2.84018e-11 -1.47448e-09 0)
(-4.28011e-10 -1.50837e-09 0)
(-6.46278e-10 -1.53204e-09 0)
)
;

boundaryField
{
    interface
    {
        type            calculated;
    }
    symmetry
    {
        type            symmetry;
    }
    bottom
    {
        type            calculated;
    }
}


// ************************************************************************* //
