/*--------------------------------*- C++ -*----------------------------------*\
| =========                 |                                                 |
| \\      /  F ield         | OpenFOAM: The Open Source CFD Toolbox           |
|  \\    /   O peration     | Version:  v1912                                 |
|   \\  /    A nd           | Website:  www.openfoam.com                      |
|    \\/     M anipulation  |                                                 |
\*---------------------------------------------------------------------------*/
FoamFile
{
    version     2.0;
    format      ascii;
    class       volScalarField;
    location    "0.42/solid";
    object      sigmaHyd;
}
// * * * * * * * * * * * * * * * * * * * * * * * * * * * * * * * * * * * * * //

dimensions      [1 -1 -2 0 0 0 0];


internalField   nonuniform List<scalar> 
256
(
-720082
-366726
-363744
-700502
-944171
-533861
-530129
-920945
-958450
-552251
-548323
-934340
-967568
-559244
-555169
-942771
-993430
-574341
-570175
-968146
-1.0505e+06
-611622
-607426
-1.02503e+06
-1.21212e+06
-742190
-737662
-1.18615e+06
-1.79439e+06
-1.28435e+06
-1.27566e+06
-1.7579e+06
-340883
-63814.6
-64797.2
-331291
-486381
-153382
-153919
-474286
-500333
-174078
-174514
-487696
-506719
-180181
-180558
-493606
-521972
-185557
-185904
-508433
-558773
-201226
-201574
-544946
-686076
-289934
-289932
-671493
-1.21243e+06
-742214
-737592
-1.18612e+06
-270106
-29157.2
-30269.9
-260608
-374185
-81008
-81853.3
-362878
-384634
-97460.6
-98238.1
-372931
-391043
-103488
-104220
-378902
-405290
-108203
-108909
-392684
-439244
-121104
-121798
-426205
-558799
-200836
-201137
-544698
-1.05083e+06
-611251
-606872
-1.02463e+06
-251664
-29781.2
-30763.2
-241843
-343013
-71851.1
-72614.3
-331727
-351268
-85254.2
-85978.9
-339705
-357489
-90695.1
-91390
-345537
-371701
-95415.2
-96090.3
-359282
-405213
-108036
-108695
-392289
-521577
-184602
-184848
-507417
-992852
-572787
-568324
-966324
-242604
-31287.5
-32167.6
-232545
-329518
-70314.6
-71004.6
-318209
-336788
-82131.9
-82805.7
-325284
-342749
-86991
-87649.5
-330901
-356856
-91568.8
-92215.7
-344554
-390105
-104069
-104701
-377269
-504580
-179085
-179296
-490420
-963421
-555188
-550670
-936713
-237126
-32143.2
-32951.3
-226879
-322082
-69913.4
-70551.8
-310718
-328940
-80970.3
-81607.2
-317433
-334707
-85450.3
-86082.9
-322887
-348684
-89879.2
-90507.4
-336425
-381724
-102299
-102915
-368923
-495041
-176496
-176688
-480869
-946161
-545424
-540876
-919334
-233885
-32608.5
-33370.1
-223508
-317862
-69797.6
-70402
-306444
-324547
-80501.9
-81113.5
-313014
-330197
-84774.9
-85389.4
-318370
-344073
-89105.1
-89720.2
-331819
-376974
-101479
-102084
-364177
-489617
-175242
-175423
-475428
-936145
-539961
-535395
-909239
-232364
-32813.1
-33551.7
-221921
-315911
-69765.4
-70352.8
-304462
-322531
-80329.7
-80928.5
-310979
-328126
-84514
-85118.9
-316290
-341951
-88797.8
-89405.8
-329693
-374783
-101152
-101752
-361983
-487115
-174721
-174897
-472913
-931483
-537467
-532892
-904536
)
;

boundaryField
{
    interface
    {
        type            zeroGradient;
    }
    symmetry
    {
        type            symmetry;
    }
    bottom
    {
        type            zeroGradient;
    }
}


// ************************************************************************* //
