/*--------------------------------*- C++ -*----------------------------------*\
| =========                 |                                                 |
| \\      /  F ield         | OpenFOAM: The Open Source CFD Toolbox           |
|  \\    /   O peration     | Version:  v1912                                 |
|   \\  /    A nd           | Website:  www.openfoam.com                      |
|    \\/     M anipulation  |                                                 |
\*---------------------------------------------------------------------------*/
FoamFile
{
    version     2.0;
    format      ascii;
    class       volSymmTensorField;
    location    "0.42/solid";
    object      sigma;
}
// * * * * * * * * * * * * * * * * * * * * * * * * * * * * * * * * * * * * * //

dimensions      [1 -1 -2 0 0 0 0];


internalField   nonuniform List<symmTensor> 
256
(
(-252838 16811.2 -6505.24 317732 17660.2 -272136)
(36435.3 -9517.96 -2550.42 200985 17769.2 -288434)
(37432.7 12046.7 2543.29 199110 18092 -284537)
(-233284 -15252.4 6612.46 314433 18847.6 -257752)
(-289008 -1738.51 -9423.18 70120.1 -868.482 -305515)
(-48989.2 -4172.3 -4038.76 33183.6 208.039 -332077)
(-47564.1 6322.38 4154.72 31851.3 448.525 -327930)
(-267482 2687.45 9630.67 71301 -15.7326 -290076)
(-290889 -3127.9 -9996.61 75708.6 -2566.05 -307062)
(-55255.6 -2652.61 -4370.75 15527.1 -2312.46 -338614)
(-53870.7 4315.87 4547.63 14360.3 -2149.89 -334364)
(-268999 3814.45 10236.6 77407 -1975.31 -291306)
(-292739 -1548.76 -10275.3 92538.8 -1252.7 -310624)
(-48269.7 -1620.86 -4501.34 13295.9 -1284.06 -344397)
(-46883 2851.48 4686.75 12286 -1164.97 -340064)
(-270505 2066.37 10523.7 94629.6 -809.493 -294608)
(-303228 -69.492 -10479.7 99192.3 460.966 -322586)
(-45881.4 -704.584 -4602.34 11464.6 415.359 -357609)
(-44469.4 1575.16 4780.05 10528.9 514.412 -353219)
(-280699 438.37 10731.8 101534 825.846 -306369)
(-326957 2057.71 -10587.3 87757 3073.05 -346400)
(-54860.1 485.98 -4668.73 -301.506 3094.94 -383770)
(-53471.4 32.4084 4843.64 -1218.1 3188.74 -379347)
(-304333 -1871.6 10847.9 90195 3402.13 -330030)
(-371159 6675.88 -10464.4 -8747.57 7816.57 -389866)
(-85450.5 2511.88 -4623.23 -85708.9 8142.68 -433669)
(-84137.4 -2469.09 4812.13 -86068 8238.98 -429171)
(-348792 -6765.83 10738.4 -5081.02 8125.99 -373229)
(-335092 9944.31 -9875.18 -355030 11410.3 -354937)
(-18339.3 4449.68 -4361.39 -405928 12068.2 -405730)
(-16859.3 -4509.32 4559.5 -401364 12154.5 -401152)
(-313236 -10130.6 10138.8 -338439 11658.1 -338370)
(-260028 11139 -4692.43 166237 -11217.2 24841.4)
(-30015.8 -10132 -1038.44 47148.8 -2785.38 -35473.9)
(-29561.9 11481.4 1328.88 44442.6 -1979.04 -36083)
(-240654 -10034.1 4878.86 161793 -8716.03 27585.1)
(-299299 -2423.06 -6720.64 24059.2 -3049.86 -41845.9)
(-106442 -4409.1 -2200.37 -28804.2 1060.73 -107732)
(-105351 5452.94 2710.28 -30826.2 1588.94 -108155)
(-277868 2882.14 7015.65 24040.5 -1303.91 -38027.7)
(-304990 -3215.2 -6860.96 15738.3 -2290.82 -45919.4)
(-119676 -2844.13 -2319.05 -59043.9 -960.816 -121741)
(-118595 3579.17 2891.29 -60698.6 -578.808 -122259)
(-283154 3496.11 7181.57 16600.9 -975.592 -42387.1)
(-309240 -1672.31 -6884.82 18042.6 -1818.13 -42991)
(-117726 -1820.96 -2267.82 -74522.8 -1416.28 -123792)
(-116644 2317.74 2833.59 -76000.4 -1113.22 -124375)
(-287009 1878.78 7207.73 19322.8 -763.439 -39631.6)
(-321209 -171.268 -6967.9 18159.5 291.014 -43828.8)
(-117833 -898.983 -2291.16 -82668.4 438.766 -126840)
(-116722 1192.25 2834.63 -84102.1 697.401 -127470)
(-298563 300.875 7290.67 19627.1 1178.97 -40563.4)
(-347325 2069.35 -6991.73 7412.39 3521.85 -52239.9)
(-128326 336.443 -2322.76 -93344.3 3579.77 -136867)
(-127231 -266.806 2851.76 -94769.6 3806.14 -137562)
(-324374 -2069.05 7319.52 8966.14 4283.91 -49085.4)
(-397765 6933.24 -6843.01 -76929.2 6338.82 -77650.9)
(-161020 2453.28 -2293.55 -164691 6433.03 -164966)
(-159989 -2702.17 2794.32 -165500 6610.63 -165662)
(-374839 -7157.18 7166.32 -74021.4 6932.81 -74476.1)
(-371388 10505 -6542.1 -389956 7912.13 -9001.8)
(-85476.2 4674.23 -2271.55 -433796 8213.13 -85442.5)
(-84126.5 -4781.44 2620.54 -429266 8304.17 -85647.8)
(-348816 -10735 6788.96 -373175 8197.74 -4982.02)
(-224161 7558.36 -1991.6 129017 2196.02 72957.2)
(-24958.7 -11320.6 -46.3834 17169.7 9272.43 4617.33)
(-24464.6 11952.7 318.846 14653.2 9905.54 3795.6)
(-204857 -6765.2 2089.25 125673 4147.86 75575.1)
(-250279 -2562.47 -2604.13 33230.9 4255.53 38447)
(-76354.3 -4662.91 -404.104 -21504.2 7795.89 -38749.8)
(-75271.5 5135.88 864.912 -23542.7 8326.35 -39558.4)
(-229130 2795.96 2787.52 33231.9 5939.07 41650.7)
(-254877 -3024.37 -2392.19 33446.6 2859.98 32002.9)
(-86800.9 -2867.73 -341.309 -41185.5 4090.63 -55606.4)
(-85722.6 3136.86 823.388 -42897.7 4532.46 -56553.8)
(-233349 3119.52 2592 34115.1 4286.91 34765.1)
(-259333 -1654.09 -2241.2 36452 1737.96 32514.2)
(-85494.6 -1898.17 -226.925 -54198.5 2135.64 -60524.4)
(-84406.4 2028.06 678.888 -55739.6 2513.61 -61574.1)
(-237387 1715.45 2433.9 37503.4 2962.86 34976.8)
(-271150 -192.084 -2210.84 36827.3 2424.88 31719.8)
(-85999 -1007.15 -202.89 -61611.9 2571.31 -63992.1)
(-84869 1028.03 621.279 -63103.9 2901.48 -65122.3)
(-248705 216.711 2394.91 38085.4 3485.25 33992.8)
(-296939 2142.91 -2175.97 28404.6 3994.3 25071.9)
(-96234.2 277.68 -211.156 -69862.9 4033.81 -72495.6)
(-95097.4 -387.682 600.913 -71326.8 4315.31 -73709.5)
(-274020 -2209.58 2354.31 29819.2 4892.6 27193.8)
(-347368 7071.33 -2068.36 -50603.9 4225.82 5937.71)
(-127828 2451.64 -213.027 -135544 4227.85 -93974)
(-126724 -2787.95 537.115 -136359 4432.07 -95161.3)
(-324200 -7326.76 2225.69 -47725.1 4889.97 8158.83)
(-327225 10615.7 -1982.58 -346323 3468.98 87681.1)
(-54388.8 4700.72 -242.401 -383628 3446.98 526.358)
(-52952.5 -4819.76 345.55 -379131 3525.22 -78.9746)
(-304167 -10851.3 2046.73 -329679 3728.23 90940.7)
(-203455 6007.43 -716.584 113675 6240.56 71943.1)
(-23447.2 -11639.8 344.138 6461.57 10390 3211.39)
(-22943.1 11854.2 -96.8843 4230.55 10853 2550.21)
(-184340 -5445.64 782.941 111503 7666.13 75165.9)
(-224447 -2496.66 -820.15 29975.3 7356.95 50125)
(-65789.7 -4699.18 428.247 -25711.4 9499.15 -28582.5)
(-64729.1 4852.01 -3.80292 -27568 9934.99 -29224.5)
(-203639 2601.68 955.546 30460.7 8709.91 53856.6)
(-228370 -2776.02 -573.545 35194.3 5992.51 43920.4)
(-74249.6 -2798.83 559.961 -39102.5 6776.64 -44763.6)
(-73185.9 2820.39 -123.933 -40724.9 7173 -45546.3)
(-207202 2777.83 721.862 36045.1 7232.79 47179.2)
(-232988 -1547.21 -400.082 41689.6 4335.51 41456.7)
(-73107.4 -1882.65 666.666 -47496.5 4600.38 -52446.1)
(-72027.2 1828.12 -268.942 -48988.7 4958.41 -53343.8)
(-211391 1538 538.072 42802.9 5458.83 44365)
(-244886 -163.387 -337.16 44098.9 3609.33 38624)
(-74002.7 -1039.15 696.397 -52540.2 3723.98 -58014.4)
(-72874.7 935.425 -340.07 -53993.2 4043.25 -59009.5)
(-222748 141.008 461.498 45392 4606.76 41289.2)
(-270618 2178.58 -313.671 36510.3 3324.6 31988.7)
(-84463.9 247.796 682.178 -60005.3 3382.17 -66620.7)
(-83318.2 -426.353 -367.754 -61427.6 3651.2 -67706)
(-247906 -2268.38 424.309 37980.6 4166.53 34487.5)
(-320631 7074.57 -289.205 -40929.7 2160.99 16339.1)
(-115571 2416.91 643.859 -124291 2186.1 -84570.3)
(-114438 -2780.49 -413.203 -125064 2373.69 -85609.2)
(-297491 -7334.57 370.258 -37966 2766.24 18992.9)
(-302710 10534 -286.415 -322007 1442.94 101098)
(-43251.9 4635.11 600.224 -356886 1373.59 13316.6)
(-41771.7 -4768.15 -588.555 -352374 1437.26 12893.9)
(-279443 -10772.9 276.933 -305341 1659.44 104871)
(-191552 5426.91 -274.081 106564 6099.44 68407.8)
(-23256.5 -11514.8 332.623 1938.89 8255.87 881.594)
(-22762.8 11487.2 -133.705 -59.6576 8586.01 346.285)
(-172582 -5018.86 327.358 105313 7108.65 72079.8)
(-210778 -2389.72 -251.005 26668.5 6989.63 50563.2)
(-62473.7 -4621.15 513.496 -29213.6 8133.18 -26388.9)
(-61460.1 4586.27 -159.818 -30901.6 8458.35 -26880)
(-190223 2416.18 361.97 27637.2 7986.99 54748.3)
(-214510 -2591.97 -78.3553 33278.1 6334.62 45505.7)
(-70112.5 -2724.66 630.163 -40447.2 6769.89 -40820.8)
(-69091.4 2603.16 -260.823 -41977.3 7080.13 -41446.1)
(-193608 2541.17 201.497 34379.2 7292.61 49225.1)
(-219278 -1445.75 47.2369 41804 4966.09 41941.2)
(-69085.4 -1851.13 701.579 -46163.4 5126.57 -49318.9)
(-68042.9 1693.86 -365.188 -47609.5 5417.25 -50062.2)
(-197940 1398.37 66.8121 43038 5867.33 45294.5)
(-231267 -129.515 98.9709 45803.6 3696.48 37943.5)
(-70233.5 -1047.04 717.922 -49415.1 3793.07 -55999.5)
(-69140.3 877.606 -422.621 -50843 4056.9 -56847.1)
(-209364 82.9029 0.801764 47158.2 4514.14 41029)
(-256932 2182.3 105.688 38700.6 2524.32 31372.1)
(-80852.3 223.292 696.272 -56465.5 2610.89 -64607.3)
(-79735.8 -436.184 -446.972 -57872.1 2832.79 -65547.3)
(-234399 -2282.88 -22.3416 40214.4 3217.08 34282.9)
(-306468 7032.62 90.243 -37569.7 1062.3 17226.3)
(-111694 2376.77 647.721 -119836 1135.83 -81135)
(-110578 -2756.64 -480.276 -120599 1288.11 -82019.7)
(-283402 -7294.99 -37.169 -34564.7 1555.77 20314.2)
(-289302 10432.1 60.969 -308217 663.863 101377)
(-40184.9 4569.74 595.704 -342175 636.767 16119.6)
(-38708.7 -4718.1 -613.742 -337655 686.897 15863.9)
(-265947 -10677.3 -85.7096 -291517 836.139 105611)
(-184399 5202.22 -135.233 102999 4767.86 66436.3)
(-23375.4 -11334.4 211.632 -386.306 5849.91 -307.032)
(-22888.4 11166.7 -69.0913 -2215.99 6071.3 -759.529)
(-165495 -4889.22 175.357 102408 5437.56 70420.4)
(-202932 -2304.44 -106.942 24983 5311.91 49843.5)
(-61376.4 -4541.57 346.538 -31073.7 5897.31 -25698.8)
(-60398.5 4396.44 -85.5113 -32634.7 6119.28 -26088.9)
(-182514 2283.86 191.585 26339.4 5986.94 54360.8)
(-206652 -2481.4 -6.87568 31781.9 5066.39 45721.4)
(-68738 -2676.72 422.277 -41678.1 5300.07 -38765.5)
(-67750.6 2469.41 -143.636 -43133.7 5517.2 -39283)
(-185892 2399.43 102.358 33115.7 5732.73 49790.6)
(-211523 -1380.93 66.25 40990.7 4166.4 42191.2)
(-67809.7 -1832.86 461.102 -46363.4 4266.63 -47053.6)
(-66797.8 1612.82 -204.975 -47771.8 4474.76 -47688.6)
(-190323 1310.74 23.0442 42355.4 4809.26 45894.1)
(-223562 -108.295 96.7202 45742.1 3019.82 37907.9)
(-69105.2 -1053.65 465.088 -48758.8 3100.57 -53993)
(-68040.7 842.641 -242.051 -50170.4 3292.1 -54734.6)
(-201783 46.6877 -19.1024 47166.7 3612.95 41333.3)
(-249142 2175.75 95.2924 39006.9 1813.85 31361.9)
(-79808.3 204 444.269 -55498.7 1904.82 -62641.3)
(-78717.4 -441.217 -260.908 -56901.2 2066.47 -63476.6)
(-226702 -2284.04 -32.2065 40560.3 2320 34606.6)
(-298280 6998.65 74.7339 -36175.5 603.474 17556.7)
(-110499 2352.25 405.262 -117961 694.844 -78928.3)
(-109402 -2746.93 -288.096 -118726 805.447 -79705.9)
(-275243 -7264.63 -36.69 -33142.6 964.341 20982.3)
(-281277 10369.4 43.1089 -299729 350.226 100638)
(-39348.5 4533.21 357.698 -333413 362.477 17281.6)
(-37881.8 -4695.37 -379.315 -328890 398.768 17139.1)
(-257847 -10621.6 -64.0341 -282998 475.746 105217)
(-180235 5097.2 -74.0356 101202 2991.14 65526.7)
(-23485 -11217.3 106.566 -1640.58 3502.85 -914.187)
(-23000.2 10972.7 -21.3448 -3361.13 3630.17 -1315.54)
(-161355 -4838.44 98.869 101034 3372.96 69710.4)
(-198451 -2255.73 -62.5037 24252.3 3252.22 49377.4)
(-60950.4 -4494.28 177.379 -32013.6 3533.1 -25522.6)
(-59993.1 4288.07 -18.3081 -33491.1 3661.77 -25850.4)
(-178097 2208.97 115.418 25873.3 3641.1 54113.3)
(-202192 -2423.58 -13.3945 31002.9 3159.07 45803.5)
(-68225.4 -2653.16 216.456 -42429.1 3277.34 -37811.1)
(-67257.7 2396.71 -43.7898 -43833.2 3404.82 -38261.1)
(-181500 2323.91 73.8884 32508.7 3548.94 50108.3)
(-207121 -1347.52 22.2982 40325.6 2664.07 42593.4)
(-67362.3 -1826.87 234.092 -46824.3 2723.15 -45700.3)
(-66368.1 1569.09 -73.7871 -48205.2 2846.97 -46266.6)
(-185986 1263.75 34.8682 41795.6 3046.03 46536.3)
(-219176 -98.6976 36.454 45326.3 1929.13 38390.4)
(-68733.9 -1060.74 232.94 -48921.9 1984.71 -52562.8)
(-67686 822.83 -93.4653 -50321.9 2099.72 -53236.5)
(-197453 27.4503 13.3141 46811 2285.61 42052.3)
(-244685 2169.84 33.5978 38828 1115.5 31841.2)
(-79479.6 191.886 218.979 -55458.8 1182.22 -61267.1)
(-78403.6 -446.869 -105.683 -56859.3 1279.71 -62035.5)
(-222284 -2283.98 6.48679 40415.1 1421.76 35317.7)
(-293552 6982.21 20.3794 -35552.1 355.205 17974.2)
(-110089 2342.69 195.763 -117210 425.658 -77682.4)
(-109003 -2749.4 -124.895 -117979 492.47 -78393)
(-270519 -7251.82 3.48422 -32497.9 574.338 21629.6)
(-276514 10342.6 -1.02259 -294682 186.959 100290)
(-39034.3 4519.31 163.245 -328336 208.922 17827.2)
(-37573.1 -4691.75 -177.835 -323812 230.876 17754.9)
(-253028 -10600.5 -11.6829 -277926 263.242 105102)
(-178298 5049.35 -24.5844 100444 1016.24 65183.3)
(-23531 -11165.9 31.6737 -2196.08 1168.7 -1181.53)
(-23046.7 10887.5 -3.34934 -3863.24 1210.23 -1558.18)
(-159425 -4815.19 32.9521 100482 1140.23 69464.5)
(-196376 -2235.9 -22.4772 23987.8 1090.9 49198.5)
(-60774.4 -4474.83 52.7411 -32416.6 1175.32 -25502)
(-59826.4 4241.52 0.619737 -33852.7 1217.44 -25799.9)
(-176048 2177.49 40.4159 25741.8 1217.76 54043)
(-200131 -2399.66 -8.02434 30691.3 1064.35 45868.2)
(-68022.8 -2644.47 64.4713 -42776 1101.18 -37455.3)
(-67064 2365.6 -6.04783 -44153.8 1143.14 -37872.5)
(-179466 2291.96 28.6832 32287.2 1192.45 50291.5)
(-205085 -1334.1 2.46865 39995.8 906.806 42874.5)
(-67189.8 -1826.01 69.4003 -47115.5 926.849 -45102)
(-66203.6 1550.27 -14.8377 -48481.9 967.847 -45634.6)
(-183974 1243.9 17.1713 41523.3 1033.23 46939.3)
(-217142 -95.4575 6.42203 45052.6 658.875 38776.7)
(-68592.6 -1065.23 68.437 -49138.5 678.812 -51868.1)
(-67552.1 813.777 -20.9159 -50532 717.073 -52508.3)
(-195441 19.3566 10.7115 46571.5 777.556 42559.7)
(-242611 2167.03 5.2115 38663.8 378.858 32222.7)
(-79356.3 186.385 63.6333 -55580.1 403.061 -60605.1)
(-78287 -450.953 -25.1832 -56979.4 435.588 -61340.7)
(-220224 -2284.38 8.55571 40270.7 481.219 35817.8)
(-291343 6976.93 0.926928 -35305.3 122.474 18264.3)
(-109930 2340.49 56.1021 -116956 148.369 -77141.5)
(-108849 -2753.96 -32.2053 -117726 170.693 -77819.5)
(-268308 -7248.72 7.25691 -32239 195.891 22036.3)
(-274253 10334.6 -6.42859 -292309 60.7016 100212)
(-38881.4 4515.84 44.6505 -325985 70.4126 18048.9)
(-37422.6 -4693.76 -49.575 -321459 77.7541 18010.6)
(-250736 -10595.6 2.24609 -275538 86.2751 105142)
)
;

boundaryField
{
    interface
    {
        type            calculated;
        value           nonuniform List<symmTensor> 
192
(
(-50.621 0.335176 3.2275 872450 17660.2 282583)
(-52.5411 0.175034 5.03233 618337 -868.482 242701)
(-53.7694 -0.167078 5.49196 632111 -2566.05 249341)
(-54.5275 -0.573588 5.5379 662201 -1252.7 259038)
(-54.6029 -0.918688 5.40392 692070 460.966 270292)
(-55.3593 -1.56346 5.20363 719833 3073.05 285676)
(-53.6144 -2.03235 4.74204 683563 7816.57 302445)
(-57.0187 -4.40431 4.36972 320034 11410.3 320127)
(-49.2112 0.227425 1.6163 687853 -11217.2 546458)
(-50.1552 0.0781892 2.69803 553656 -3049.86 487750)
(-50.8753 -0.237318 2.91551 555612 -2290.82 493954)
(-51.3991 -0.662289 2.88428 572116 -1818.13 511082)
(-51.284 -1.03573 2.74901 596498 291.014 534510)
(-51.9937 -1.75557 2.57556 628067 3521.85 568415)
(-50.009 -2.27887 2.27707 613282 6338.82 612561)
(-53.642 -4.78676 2.02982 302657 7912.13 683611)
(-51.9823 0.19212 1.28664 586381 2196.02 530320)
(-52.8264 0.0336836 2.12791 494947 4255.53 500163)
(-53.5464 -0.286911 2.29378 504570 2859.98 503126)
(-54.0745 -0.746672 2.26567 521374 1737.96 517436)
(-53.8532 -1.16555 2.15673 545500 2424.88 540392)
(-54.4609 -1.97239 2.01568 579038 3994.3 575705)
(-51.9979 -2.57831 1.79192 570329 4225.82 626871)
(-55.4182 -5.26787 1.59492 286340 3468.98 720344)
(-52.1389 0.140847 0.802946 532055 6240.56 490323)
(-52.7878 -0.0360255 1.39434 450891 7356.95 471040)
(-53.3523 -0.360072 1.50403 465005 5992.51 473731)
(-53.7917 -0.834633 1.47264 485161 4335.51 484928)
(-53.4706 -1.27607 1.38584 511166 3609.33 505691)
(-54.0191 -2.12303 1.27879 545308 3324.6 540787)
(-51.3972 -2.76635 1.13167 537790 2160.99 595059)
(-54.7944 -5.50952 1.00548 271511 1442.94 694615)
(-52.9553 0.117587 0.592662 501957 6099.44 463801)
(-53.5433 -0.0773876 1.02812 424021 6989.63 447916)
(-54.0395 -0.412912 1.10961 439352 6334.62 451579)
(-54.4366 -0.903859 1.08639 461526 4966.09 461663)
(-54.042 -1.3678 1.02224 489078 3696.48 481218)
(-54.5185 -2.24901 0.942056 523506 2524.32 516177)
(-51.7151 -2.92713 0.836922 516543 1062.3 571339)
(-54.99 -5.7208 0.743822 261460 663.863 671054)
(-53.1459 0.0987607 0.36747 484556 4767.86 447994)
(-53.6802 -0.110596 0.654716 408315 5311.91 433175)
(-54.1153 -0.45496 0.708694 423791 5066.39 437730)
(-54.4728 -0.955749 0.691779 446662 4166.4 447863)
(-54.0292 -1.43272 0.648034 474938 3019.82 467104)
(-54.4664 -2.33216 0.594132 509550 1813.85 501905)
(-51.5791 -3.02889 0.527787 503107 603.474 556840)
(-54.8145 -5.84931 0.469984 255111 350.226 655477)
(-53.4123 0.0900759 0.217023 474772 2991.14 439097)
(-53.9271 -0.129228 0.385597 399524 3252.22 424649)
(-54.3301 -0.48133 0.417635 414944 3159.07 429745)
(-54.6657 -0.989742 0.407825 437940 2664.07 440208)
(-54.1893 -1.47647 0.382403 466439 1929.13 459503)
(-54.594 -2.38855 0.350408 501148 1115.5 494162)
(-51.6392 -3.09856 0.312322 495099 355.205 548625)
(-54.8293 -5.93831 0.277561 251335 186.959 646307)
(-53.4703 0.0842997 0.0650486 470332 1016.24 435071)
(-53.9714 -0.139863 0.119239 395546 1090.9 420757)
(-54.3561 -0.495118 0.129612 410919 1064.35 426096)
(-54.6798 -1.00637 0.126192 433901 906.806 436779)
(-54.1903 -1.49722 0.117922 462440 658.875 456164)
(-54.5807 -2.41421 0.107494 497184 378.858 490743)
(-51.606 -3.13037 0.0958852 491335 122.474 544905)
(-54.7737 -5.97837 0.0848186 249562 60.7016 642083)
(336358 16811.2 -4.71712 906928 -0.946915 -20.3703)
(292044 -1738.51 -7.67133 651172 -0.979008 -15.6222)
(298544 -3127.9 -8.50786 665142 -0.699497 -12.3622)
(310881 -1548.76 -8.69082 696159 -0.480749 -11.5069)
(324403 -69.492 -8.68139 726824 -0.400841 -11.8302)
(340267 2057.71 -8.67838 754981 -0.452856 -13.0487)
(357146 6675.88 -8.68015 719557 -0.557123 -15.4224)
(378276 9944.31 -9.29492 358339 -0.772916 -17.5426)
(616748 -9517.96 -3.07337 781297 -0.527361 -25.9443)
(539789 -4172.3 -5.55898 621961 -0.64258 -24.8737)
(544388 -2652.61 -6.18475 615171 -0.436563 -23.9234)
(566402 -1620.86 -6.28182 627968 -0.217246 -23.7475)
(593715 -704.584 -6.2759 651061 -0.0879827 -23.9115)
(627321 485.98 -6.32979 681879 -0.0292172 -24.3911)
(666963 2511.88 -6.50211 666705 -0.0395359 -25.1725)
(735620 4449.68 -7.35517 348031 -0.122347 -25.7497)
(610367 12046.7 -3.23445 772044 -0.339285 -22.8179)
(533430 6322.38 -5.85122 612845 -0.430466 -22.0072)
(537679 4315.87 -6.54846 605910 -0.266616 -21.1571)
(559506 2851.48 -6.6646 618675 -0.0477694 -20.9673)
(586727 1575.16 -6.64122 641725 0.112164 -21.1494)
(620217 32.4084 -6.64378 672470 0.245083 -21.5997)
(659638 -2469.09 -6.72819 657708 0.328033 -22.4562)
(728551 -4509.32 -7.50027 344047 0.338408 -23.4032)
(331694 -15252.4 -3.78509 879411 -0.254461 -23.4355)
(288105 2687.45 -6.87239 626889 -0.308068 -22.9395)
(294095 3814.45 -7.74008 640502 -0.150592 -22.2644)
(306210 2066.37 -7.8997 671345 0.0760876 -22.1594)
(319648 438.37 -7.8611 701881 0.246558 -22.3486)
(335286 -1871.6 -7.84733 729814 0.419089 -22.6555)
(351432 -6765.83 -7.82679 695142 0.556065 -23.2355)
(372601 -10130.6 -8.59598 347398 0.705154 -23.8969)
(-10.655 0.938005 1.44173 836089 18847.6 263904)
(-6.65602 0.837163 2.54607 584401 -15.7326 223024)
(-4.0488 0.270983 2.80679 597985 -1975.31 229272)
(-3.04007 -0.304183 2.85579 627834 -809.493 238596)
(-3.1094 -0.613634 2.84357 657465 825.846 249563)
(-2.13057 -1.08289 2.96888 685147 3402.13 264921)
(-3.65744 -1.0733 2.98793 650556 8125.99 282408)
(5.45041 -3.38636 3.44497 301311 11658.1 301380)
(-17.3535 0.35059 0.00105956 649843 -8716.03 515635)
(-16.5089 0.277088 0.360385 518250 -1303.91 456182)
(-15.8388 -0.0449312 0.367996 520314 -975.592 461326)
(-15.3315 -0.419143 0.350132 536477 -763.439 477523)
(-15.3404 -0.574116 0.374234 560313 1178.97 500123)
(-13.7232 -0.928839 0.554608 591383 4283.91 533331)
(-14.1942 -0.669213 0.746786 577937 6932.81 577482)
(-3.59207 -2.9395 1.16562 282467 8197.74 650660)
(-17.446 0.183441 0.231712 549933 4147.86 499834)
(-16.8036 0.076319 0.671712 460146 5939.07 468565)
(-16.2297 -0.151647 0.772998 469670 4286.91 470320)
(-15.6032 -0.449791 0.797325 486050 2962.86 483523)
(-15.4794 -0.528016 0.824792 509508 3485.25 505415)
(-13.4357 -0.835026 0.944007 542335 4892.6 539710)
(-13.5986 -0.469767 1.04076 534617 4889.97 590501)
(-1.87994 -2.91842 1.2265 265197 3728.23 685817)
(-19.2267 0.0808783 0.103095 497383 7666.13 461046)
(-18.8806 -0.0506093 0.458625 417273 8709.91 440669)
(-18.5561 -0.221793 0.552355 430999 7232.79 442133)
(-17.9243 -0.456473 0.576465 450585 5458.83 452147)
(-17.6944 -0.462383 0.598085 475816 4606.76 471714)
(-15.2686 -0.717222 0.682321 509104 4166.53 505611)
(-15.0285 -0.271428 0.744993 502306 2766.24 559265)
(-2.52556 -2.79382 0.852951 250094 1659.44 660306)
(-19.4529 0.0639844 0.172082 468640 7108.65 435407)
(-19.1122 -0.07987 0.481105 391384 7986.99 418496)
(-18.7871 -0.236862 0.574866 406102 7292.61 420948)
(-18.0809 -0.453134 0.60095 427561 5867.33 429818)
(-17.7726 -0.430017 0.613974 454235 4514.14 448105)
(-15.1411 -0.668603 0.658778 487695 3217.08 481764)
(-14.7548 -0.193908 0.677198 481272 1555.77 536151)
(-1.81029 -2.80317 0.711359 239953 836.139 637082)
(-19.9609 0.0566551 0.110322 452144 5437.56 420157)
(-19.6378 -0.092464 0.325852 376348 5986.94 404369)
(-19.3213 -0.242253 0.394771 391061 5732.73 407735)
(-18.5685 -0.447563 0.414123 413103 4809.26 416642)
(-18.1976 -0.404217 0.422938 440412 3612.95 434579)
(-15.404 -0.630485 0.450452 473970 2320 468016)
(-14.8806 -0.13597 0.459443 467948 964.341 522073)
(-1.61189 -2.79663 0.476189 233529 475.746 621744)
(-20.0679 0.0581823 0.0828417 442909 3372.96 411586)
(-19.7339 -0.093247 0.214736 367970 3641.1 396210)
(-19.4029 -0.241551 0.257591 382537 3548.94 400137)
(-18.6139 -0.444088 0.269514 404631 3046.03 409372)
(-18.206 -0.392425 0.274188 432102 2285.61 427343)
(-15.3259 -0.614794 0.286988 465699 1421.76 460601)
(-14.7423 -0.112401 0.28869 459996 574.338 514124)
(-1.28599 -2.80992 0.291436 229703 263.242 612731)
(-20.1894 0.0576128 0.0218427 438727 1140.23 407710)
(-19.856 -0.0944314 0.0642007 364189 1217.76 392490)
(-19.5201 -0.241319 0.0783003 378667 1192.45 396671)
(-18.7145 -0.441805 0.0822038 400711 1033.23 406127)
(-18.2849 -0.385748 0.0840589 428190 777.556 424179)
(-15.3604 -0.605234 0.0884109 461793 481.219 457340)
(-14.7345 -0.0990397 0.0899146 456255 195.891 510531)
(-1.19089 -2.81301 0.090941 227902 86.2751 608582)
(378534 9.34375 -9875.18 -17.2097 -0.69862 358689)
(357346 8.7472 -6542.1 -14.9061 -0.480943 719732)
(340598 8.77462 -1982.58 -12.1657 -0.343913 755505)
(325671 8.82208 -286.415 -10.391 -0.223753 729479)
(314898 8.9172 60.969 -9.03194 -0.168102 705577)
(307736 8.9756 43.1089 -8.07323 -0.104259 689650)
(303437 9.02367 -1.02259 -7.468 -0.0647146 680240)
(301434 9.04475 -6.42859 -7.17518 -0.019308 675900)
(735881 7.38621 -4361.39 -25.4698 -0.0345339 348490)
(667298 6.53653 -2271.55 -24.7855 0.0503223 667332)
(628226 6.36826 -242.401 -23.7682 0.0962563 683141)
(596821 6.31458 600.224 -22.9984 0.10006 653390)
(574838 6.32328 595.704 -22.3553 0.0808605 631143)
(560372 6.32566 357.698 -21.8808 0.062231 617002)
(551711 6.33677 163.245 -21.5721 0.0363997 608573)
(547682 6.34056 44.6505 -21.409 0.0135309 604612)
(728779 7.52949 4559.5 -23.1315 0.434519 344486)
(659920 6.75381 2620.54 -22.0713 0.426905 658399)
(621008 6.66987 345.55 -20.9781 0.379658 673881)
(589650 6.67089 -588.555 -20.2323 0.303606 644316)
(567654 6.7118 -613.742 -19.574 0.234197 622227)
(553171 6.73361 -379.315 -19.1315 0.163333 608192)
(544499 6.75552 -177.835 -18.8266 0.0965098 599827)
(540464 6.76365 -49.575 -18.6855 0.0319212 595897)
(372716 8.60749 10138.8 -23.6491 0.802828 347582)
(351526 7.83293 6788.96 -22.8924 0.656682 695361)
(335528 7.8523 2046.73 -22.1291 0.550466 730635)
(320840 7.87601 276.933 -21.6153 0.425943 705154)
(310123 7.95195 -85.7096 -21.0962 0.329038 681681)
(302998 7.99113 -64.0341 -20.7786 0.225968 666062)
(298725 8.02754 -11.6829 -20.5396 0.135432 656854)
(296737 8.04204 2.24609 -20.4307 0.0442133 652615)
)
;
    }
    symmetry
    {
        type            symmetry;
    }
    bottom
    {
        type            calculated;
        value           nonuniform List<symmTensor> 
32
(
(-750376 57276.6 -6505.24 24810.7 54786.4 -769674)
(-504668 41194.9 -4692.43 19275.5 -18325.8 -219799)
(-430640 31013 -1991.6 -2487.96 -3368.5 -133522)
(-396230 26448 -716.584 -8509.12 3573.21 -120832)
(-377219 24560 -274.081 -10556 4865.9 -117260)
(-366183 23708.6 -135.233 -11647.8 4186.67 -115348)
(-359906 23277.8 -74.0356 -12187.9 2729.68 -114145)
(-357023 23084.7 -24.5844 -12393.2 941.121 -113541)
(-230879 -10229.5 -2550.42 43545.9 50167 -555748)
(-73412.4 -12068.6 -1038.44 22824.7 -8746.31 -78870.5)
(-48139.1 -14233.8 -46.3834 548.805 5144.03 -18563)
(-42829 -14836.4 344.138 -5176.26 8553.39 -16170.4)
(-41261.3 -14709.9 332.623 -7438.36 7417.81 -17123.2)
(-40909.3 -14478.7 211.632 -9138.52 5445.98 -17841)
(-40846.3 -14325.1 106.566 -10245.7 3317.18 -18275.6)
(-40827.3 -14257.1 31.6737 -10762.8 1114.89 -18477.9)
(-228128 12060.9 2543.29 43128.8 50447 -550098)
(-73079.9 12552.8 1328.88 19873.7 -7800.83 -79600.9)
(-47831.1 13969.9 318.846 -2182.62 5865.93 -19570.9)
(-42512 14200.9 -96.8843 -7596.03 9071.71 -17018.8)
(-40960.6 13888.2 -133.705 -9620.54 7784.55 -17851.5)
(-40620.1 13561.6 -69.0913 -11149.9 5691.13 -18491.2)
(-40562.3 13361.2 -21.3448 -12146.7 3457.95 -18877.6)
(-40545.1 13274.3 -3.34934 -12609.8 1160.79 -19056.6)
(-723605 -55632.6 6612.46 25862.6 56085.1 -748074)
(-483243 -39985.4 4878.86 14681.8 -15403.6 -215005)
(-409244 -30171.6 2089.25 -5356.73 -1164.14 -128812)
(-374980 -25891.7 782.941 -9830.69 5158.81 -115474)
(-356127 -24186.5 327.358 -10761.6 5981.03 -111465)
(-345172 -23442.7 175.357 -11074.5 4924.41 -109257)
(-338930 -23071.1 98.869 -11124.2 3149.66 -107865)
(-336059 -22904.2 32.9521 -11093.2 1077.41 -107169)
)
;
    }
}


// ************************************************************************* //
