/*--------------------------------*- C++ -*----------------------------------*\
| =========                 |                                                 |
| \\      /  F ield         | OpenFOAM: The Open Source CFD Toolbox           |
|  \\    /   O peration     | Version:  v1912                                 |
|   \\  /    A nd           | Website:  www.openfoam.com                      |
|    \\/     M anipulation  |                                                 |
\*---------------------------------------------------------------------------*/
FoamFile
{
    version     2.0;
    format      ascii;
    class       volScalarField;
    location    "0.42/solid";
    object      sigmaEq;
}
// * * * * * * * * * * * * * * * * * * * * * * * * * * * * * * * * * * * * * //

dimensions      [1 -1 -2 0 0 0 0];


internalField   nonuniform List<scalar> 
256
(
582103
432796
428131
562040
368038
332045
327642
351054
375411
324736
320316
358597
394941
331340
326952
378222
412840
344099
339718
396132
425214
359441
355041
408472
372984
348494
344495
357512
37087.4
388203
385135
40711.9
377145
82096.4
80089.3
355759
296267
78776.1
76743.6
276478
295095
62039.4
60349.9
275400
301702
46869.9
45495
281821
313245
40658.9
39497
293052
329291
40625.3
39546.3
308809
321107
13135.6
14412.6
301341
372887
348743
344811
357598
329053
45232.3
44120.6
308874
286318
51069.3
48920.9
266957
287725
41305.4
39100.2
267985
293891
29088.4
26856.1
273733
305508
23777.1
21527.8
284861
323807
26117.6
23905.7
302705
329032
39225.3
38422.3
308642
425231
359995
355727
408960
298839
39224.5
38347.4
279930
265417
42859.6
41095.9
247139
268279
35080
33147
249365
274678
25082
23095.5
255170
286356
20479.6
18411.3
266233
304971
22717.5
20545.7
284276
312562
36613
35929.9
292514
414203
345513
341345
398343
281344
34811.9
33791.9
263291
250578
38359.6
36751.8
233054
254399
32094.3
30344.3
236140
261304
23529.7
21690.3
242339
273301
19689.7
17697.5
253634
292094
22011.5
19858.7
271783
300325
35651.2
35080.4
280632
400881
333821
329743
385427
271248
31914.5
30728.8
253745
241516
35729.4
34143.2
224457
245894
30427.5
28727.8
228058
253231
22604.1
20774.5
234627
265525
19175.5
17129.9
246164
284446
21907.5
19731.5
264395
292946
36145.5
35644.3
273508
391879
326184
322167
376721
265601
30131.3
28823.3
248424
236369
34138.6
32536.5
219582
241035
29315.2
27609.8
223451
248642
21876.5
20014.4
230259
261125
18681.4
16573.5
241953
280117
21809.6
19620.8
260229
288765
36726.1
36273.2
269492
386624
321621
317643
371660
263043
29257.2
27884.4
246019
234029
33350.9
31734.2
217369
238816
28717.1
26999
221351
246548
21448.7
19561.3
228271
259116
18374.3
16232.2
240035
278137
21718.3
19526.5
258329
286857
37031.4
36604.9
267666
384229
319492
315533
369361
)
;

boundaryField
{
    interface
    {
        type            calculated;
        value           nonuniform List<scalar> 
192
(
771672
539649
551536
578040
604161
627866
593488
320747
629534
523898
527558
544232
568098
600550
613070
593520
560522
497683
503927
519479
543034
577475
600696
628264
512631
461524
469597
485157
508542
543146
568655
606359
484176
436681
445780
461729
485292
519953
546062
585896
467475
421449
431073
447376
471153
505835
532065
572331
458060
412753
422629
439157
463076
497750
523968
564351
453787
408793
418772
435405
459389
494050
520244
560679
794654
564949
577069
604054
630665
654912
623281
369131
713616
585287
583053
599591
624391
656328
666873
637441
705575
577375
574909
591356
616097
647947
658712
631336
769685
543532
555365
582178
608671
632759
602158
361111
741027
510817
522557
548916
574863
598445
565205
302016
594426
490194
493490
509581
532793
564662
577848
565297
526740
464544
470070
484834
507525
541107
564714
599034
480449
429733
436870
451485
473863
507433
533109
577428
453126
405875
413936
428833
451287
484804
510949
557301
437151
391269
399802
414986
437587
471054
497242
543974
428168
382944
391701
407075
429779
463193
489326
536151
424095
379159
388007
403469
426219
459599
485688
532555
369426
623427
655359
632963
612229
598412
590252
586490
637655
667351
657430
627046
604982
590748
582250
578274
631524
659198
649083
618817
596835
582652
574185
570224
361257
602347
633478
611523
591170
577626
569645
565972
)
;
    }
    symmetry
    {
        type            symmetry;
    }
    bottom
    {
        type            calculated;
        value           nonuniform List<scalar> 
32
(
797007
461060
383814
348615
329521
318469
312248
309424
527148
102403
49924.4
44775.3
41530.3
39072.3
37467.7
36673.9
522180
99747.8
47764
42788.1
39401.6
36809.9
35113
34271.2
774268
438062
362287
328652
310647
300300
294500
291872
)
;
    }
}


// ************************************************************************* //
