/*--------------------------------*- C++ -*----------------------------------*\
| =========                 |                                                 |
| \\      /  F ield         | OpenFOAM: The Open Source CFD Toolbox           |
|  \\    /   O peration     | Version:  v1912                                 |
|   \\  /    A nd           | Website:  www.openfoam.com                      |
|    \\/     M anipulation  |                                                 |
\*---------------------------------------------------------------------------*/
FoamFile
{
    version     2.0;
    format      ascii;
    class       volScalarField;
    location    "0.42/solid";
    object      T;
}
// * * * * * * * * * * * * * * * * * * * * * * * * * * * * * * * * * * * * * //

dimensions      [0 0 0 1 0 0 0];


internalField   nonuniform List<scalar> 
256
(
291.698
292.301
292.305
291.717
291.461
292.164
292.169
291.482
291.431
292.148
292.153
291.453
291.405
292.134
292.139
291.428
291.364
292.113
292.118
291.387
291.289
292.069
292.075
291.313
291.089
291.919
291.924
291.112
290.108
290.985
290.995
290.144
292.364
292.885
292.885
292.372
292.239
292.855
292.855
292.246
292.223
292.852
292.852
292.231
292.209
292.85
292.85
292.218
292.187
292.847
292.847
292.196
292.144
292.837
292.837
292.153
291.996
292.747
292.748
292.006
291.089
291.919
291.924
291.112
292.475
292.944
292.943
292.481
292.371
292.929
292.929
292.377
292.357
292.927
292.927
292.364
292.345
292.927
292.926
292.352
292.324
292.925
292.924
292.332
292.284
292.917
292.916
292.292
292.144
292.837
292.837
292.153
291.289
292.069
292.074
291.313
292.509
292.95
292.949
292.515
292.41
292.936
292.936
292.416
292.397
292.935
292.934
292.403
292.385
292.934
292.933
292.392
292.365
292.932
292.932
292.372
292.324
292.925
292.924
292.332
292.187
292.847
292.847
292.196
291.363
292.112
292.118
291.387
292.526
292.951
292.951
292.532
292.43
292.938
292.937
292.435
292.417
292.937
292.936
292.423
292.405
292.936
292.935
292.411
292.385
292.934
292.933
292.392
292.344
292.926
292.926
292.352
292.209
292.85
292.85
292.218
291.404
292.134
292.139
291.428
292.536
292.952
292.951
292.541
292.441
292.939
292.938
292.446
292.428
292.938
292.937
292.434
292.416
292.937
292.936
292.422
292.396
292.935
292.934
292.403
292.356
292.927
292.927
292.363
292.221
292.852
292.852
292.23
291.428
292.146
292.151
291.452
292.541
292.952
292.952
292.547
292.447
292.939
292.939
292.453
292.434
292.938
292.937
292.44
292.422
292.937
292.936
292.428
292.402
292.935
292.935
292.409
292.362
292.928
292.927
292.369
292.228
292.853
292.853
292.237
291.442
292.153
292.158
291.465
292.544
292.952
292.952
292.549
292.45
292.94
292.939
292.455
292.437
292.938
292.938
292.443
292.425
292.937
292.937
292.431
292.405
292.935
292.935
292.411
292.365
292.928
292.928
292.372
292.231
292.853
292.853
292.24
291.448
292.156
292.161
291.472
)
;

boundaryField
{
    interface
    {
        type            fixedValue;
        value           nonuniform List<scalar> 
192
(
290.137
289.973
289.916
289.847
289.739
289.562
289.216
288.239
290.93
290.833
290.789
290.732
290.643
290.49
290.173
289.215
291.212
291.13
291.09
291.036
290.95
290.801
290.489
289.56
291.351
291.274
291.235
291.182
291.097
290.949
290.64
289.735
291.431
291.356
291.317
291.264
291.18
291.032
290.727
289.84
291.479
291.404
291.366
291.313
291.229
291.082
290.779
289.904
291.506
291.432
291.394
291.341
291.257
291.11
290.809
289.941
291.519
291.445
291.407
291.354
291.269
291.123
290.823
289.959
290.047
289.885
289.827
289.756
289.649
289.47
289.12
288.137
290.706
290.602
290.557
290.5
290.41
290.257
289.934
288.95
290.73
290.628
290.584
290.528
290.439
290.285
289.963
288.983
290.131
289.973
289.919
289.851
289.745
289.568
289.218
288.247
290.245
290.088
290.034
289.966
289.861
289.685
289.337
288.37
291.028
290.934
290.893
290.839
290.752
290.601
290.285
289.337
291.308
291.229
291.191
291.14
291.057
290.911
290.601
289.685
291.445
291.37
291.334
291.283
291.201
291.057
290.752
289.861
291.523
291.45
291.414
291.364
291.283
291.139
290.838
289.965
291.569
291.497
291.462
291.412
291.331
291.188
290.889
290.03
291.596
291.525
291.489
291.439
291.358
291.216
290.919
290.067
291.608
291.537
291.501
291.452
291.371
291.229
290.933
290.085
288.136
289.118
289.468
289.644
289.749
289.814
289.852
289.869
288.949
289.932
290.255
290.407
290.494
290.547
290.578
290.592
288.983
289.962
290.284
290.436
290.523
290.576
290.607
290.621
288.247
289.218
289.567
289.743
289.848
289.913
289.951
289.968
)
;
    }
    symmetry
    {
        type            symmetry;
    }
    bottom
    {
        type            fixedValue;
        value           uniform 293;
    }
}


// ************************************************************************* //
