/*--------------------------------*- C++ -*----------------------------------*\
| =========                 |                                                 |
| \\      /  F ield         | OpenFOAM: The Open Source CFD Toolbox           |
|  \\    /   O peration     | Version:  v1912                                 |
|   \\  /    A nd           | Website:  www.openfoam.com                      |
|    \\/     M anipulation  |                                                 |
\*---------------------------------------------------------------------------*/
FoamFile
{
    version     2.0;
    format      ascii;
    class       volVectorField;
    location    "0.42/solid";
    object      U;
}
// * * * * * * * * * * * * * * * * * * * * * * * * * * * * * * * * * * * * * //

dimensions      [0 1 -1 0 0 0 0];


internalField   nonuniform List<vector> 
256
(
(3.78358e-08 3.6248e-08 4.21528e-08)
(7.68104e-09 1.9807e-08 3.64477e-08)
(-8.6617e-09 1.93786e-08 3.59907e-08)
(-3.72178e-08 3.4522e-08 4.06667e-08)
(6.41841e-08 2.40713e-08 9.02596e-08)
(1.54901e-08 1.2314e-08 8.25125e-08)
(-1.73299e-08 1.20878e-08 8.16533e-08)
(-6.38953e-08 2.34736e-08 8.75251e-08)
(6.74248e-08 -2.54524e-09 1.22387e-07)
(1.64185e-08 -7.20609e-09 1.14209e-07)
(-1.92458e-08 -7.08057e-09 1.13144e-07)
(-6.81217e-08 -1.96369e-09 1.19022e-07)
(6.49445e-08 -3.0127e-08 1.50205e-07)
(1.46918e-08 -3.284e-08 1.40977e-07)
(-1.8936e-08 -3.23677e-08 1.39771e-07)
(-6.70461e-08 -2.85382e-08 1.46406e-07)
(6.45612e-08 -5.94349e-08 1.78697e-07)
(1.35935e-08 -6.42748e-08 1.6786e-07)
(-1.9694e-08 -6.34871e-08 1.66536e-07)
(-6.84887e-08 -5.69447e-08 1.7454e-07)
(7.22429e-08 -9.4386e-08 2.11181e-07)
(1.57262e-08 -1.02444e-07 1.98601e-07)
(-2.41272e-08 -1.01362e-07 1.97165e-07)
(-7.84367e-08 -9.1052e-08 2.06694e-07)
(9.4714e-08 -1.46938e-07 2.50055e-07)
(2.29251e-08 -1.52236e-07 2.36864e-07)
(-3.41517e-08 -1.50853e-07 2.353e-07)
(-1.03596e-07 -1.42721e-07 2.45217e-07)
(1.27507e-07 -2.3604e-07 2.87477e-07)
(3.09126e-08 -2.24787e-07 2.76502e-07)
(-4.5683e-08 -2.22866e-07 2.74785e-07)
(-1.39463e-07 -2.30175e-07 2.82253e-07)
(1.9924e-08 1.08473e-08 1.43514e-08)
(3.70853e-09 -8.4316e-10 1.73507e-08)
(-4.09272e-09 -9.97656e-10 1.71638e-08)
(-1.90106e-08 9.79624e-09 1.37816e-08)
(3.49308e-08 -4.4857e-09 4.71793e-08)
(8.0833e-09 -1.31487e-08 5.29593e-08)
(-8.62194e-09 -1.31788e-08 5.24589e-08)
(-3.38099e-08 -4.66886e-09 4.57058e-08)
(3.60852e-08 -2.73308e-08 7.70987e-08)
(8.34089e-09 -3.08444e-08 8.37128e-08)
(-9.41137e-09 -3.06198e-08 8.30164e-08)
(-3.55404e-08 -2.65806e-08 7.50461e-08)
(3.32258e-08 -5.25775e-08 1.04101e-07)
(6.69891e-09 -5.48292e-08 1.10614e-07)
(-8.84993e-09 -5.43106e-08 1.09786e-07)
(-3.37681e-08 -5.09409e-08 1.01642e-07)
(3.22184e-08 -8.02975e-08 1.30777e-07)
(5.63448e-09 -8.48424e-08 1.3684e-07)
(-9.3732e-09 -8.40348e-08 1.35903e-07)
(-3.43207e-08 -7.78182e-08 1.27975e-07)
(3.89251e-08 -1.11565e-07 1.58678e-07)
(7.65084e-09 -1.19515e-07 1.6428e-07)
(-1.3461e-08 -1.18433e-07 1.63236e-07)
(-4.30532e-08 -1.08284e-07 1.55548e-07)
(6.07572e-08 -1.5245e-07 1.8521e-07)
(1.47224e-08 -1.57564e-07 1.9067e-07)
(-2.31485e-08 -1.56215e-07 1.89525e-07)
(-6.7337e-08 -1.48365e-07 1.81769e-07)
(9.44334e-08 -2.17195e-07 1.98363e-07)
(2.26425e-08 -2.0373e-07 2.04002e-07)
(-3.44111e-08 -2.01938e-07 2.02802e-07)
(-1.03838e-07 -2.11655e-07 1.94743e-07)
(8.21964e-09 2.00623e-09 7.31216e-09)
(2.94049e-10 -5.97435e-09 1.15688e-08)
(-4.46877e-10 -6.0901e-09 1.14362e-08)
(-7.15148e-09 9.88897e-10 6.93252e-09)
(1.45596e-08 -1.84887e-08 3.09532e-08)
(1.37074e-09 -2.4408e-08 3.87209e-08)
(-1.25429e-09 -2.44058e-08 3.8362e-08)
(-1.2912e-08 -1.86885e-08 2.99374e-08)
(1.40495e-08 -4.20653e-08 5.69403e-08)
(9.09186e-10 -4.4569e-08 6.5679e-08)
(-9.49592e-10 -4.43431e-08 6.51551e-08)
(-1.26243e-08 -4.14056e-08 5.54423e-08)
(1.12583e-08 -6.57764e-08 8.20745e-08)
(-6.34891e-10 -6.78482e-08 9.08748e-08)
(-1.6728e-10 -6.73559e-08 9.02288e-08)
(-1.06131e-08 -6.42879e-08 8.02021e-08)
(1.03058e-08 -8.99179e-08 1.06082e-07)
(-1.60987e-09 -9.45061e-08 1.14709e-07)
(-5.11941e-10 -9.37438e-08 1.13961e-07)
(-1.09551e-08 -8.76244e-08 1.03888e-07)
(1.68825e-08 -1.14488e-07 1.28131e-07)
(3.50101e-10 -1.22499e-07 1.366e-07)
(-4.31532e-09 -1.21479e-07 1.35757e-07)
(-1.93198e-08 -1.11428e-07 1.25643e-07)
(3.84484e-08 -1.44564e-07 1.44015e-07)
(7.27047e-09 -1.49803e-07 1.52427e-07)
(-1.36544e-08 -1.48538e-07 1.51509e-07)
(-4.31165e-08 -1.40743e-07 1.41279e-07)
(7.14874e-08 -1.96926e-07 1.45789e-07)
(1.50448e-08 -1.84057e-07 1.54304e-07)
(-2.45965e-08 -1.82364e-07 1.53365e-07)
(-7.87737e-08 -1.91658e-07 1.42955e-07)
(3.70948e-09 -9.27083e-10 6.25934e-09)
(-1.01092e-09 -6.8424e-09 8.95197e-09)
(9.5729e-10 -6.97105e-09 8.85271e-09)
(-2.53961e-09 -2.01852e-09 5.98227e-09)
(6.34518e-09 -2.37259e-08 2.47037e-08)
(-1.41665e-09 -2.80943e-08 2.95896e-08)
(1.8804e-09 -2.81265e-08 2.93287e-08)
(-4.35476e-09 -2.40795e-08 2.39766e-08)
(5.19453e-09 -4.82958e-08 4.58646e-08)
(-2.17239e-09 -5.02649e-08 5.13048e-08)
(2.75433e-09 -5.00872e-08 5.0918e-08)
(-3.16112e-09 -4.7828e-08 4.47715e-08)
(2.83106e-09 -7.09372e-08 6.70935e-08)
(-3.50641e-09 -7.30212e-08 7.2485e-08)
(3.59359e-09 -7.25885e-08 7.19965e-08)
(-1.31796e-09 -6.96652e-08 6.56903e-08)
(2.44452e-09 -9.17709e-08 8.67923e-08)
(-4.22769e-09 -9.65125e-08 9.19829e-08)
(3.23604e-09 -9.5819e-08 9.14063e-08)
(-1.98698e-09 -8.97114e-08 8.51141e-08)
(9.3988e-09 -1.11155e-07 1.02992e-07)
(-2.14802e-09 -1.19299e-07 1.08015e-07)
(-4.77223e-10 -1.18355e-07 1.07361e-07)
(-1.05143e-08 -1.08342e-07 1.01069e-07)
(3.07549e-08 -1.35469e-07 1.12285e-07)
(4.65231e-09 -1.4111e-07 1.17274e-07)
(-9.51766e-09 -1.39924e-07 1.16563e-07)
(-3.39082e-08 -1.31895e-07 1.10169e-07)
(6.27603e-08 -1.83305e-07 1.11001e-07)
(1.22362e-08 -1.72078e-07 1.1627e-07)
(-2.01195e-08 -1.70457e-07 1.15547e-07)
(-6.8361e-08 -1.78243e-07 1.08816e-07)
(2.4923e-09 -1.92293e-09 5.51884e-09)
(-1.18992e-09 -6.92423e-09 6.82502e-09)
(1.18852e-09 -7.06778e-09 6.75381e-09)
(-1.25658e-09 -3.07752e-09 5.32271e-09)
(4.26484e-09 -2.5031e-08 1.98555e-08)
(-1.8701e-09 -2.8771e-08 2.21387e-08)
(2.5386e-09 -2.88457e-08 2.19538e-08)
(-2.05542e-09 -2.55347e-08 1.9346e-08)
(3.20791e-09 -4.95974e-08 3.60456e-08)
(-2.57501e-09 -5.14294e-08 3.84905e-08)
(3.55235e-09 -5.13081e-08 3.82151e-08)
(-7.71141e-10 -4.93206e-08 3.52742e-08)
(1.36975e-09 -7.12507e-08 5.23642e-08)
(-3.661e-09 -7.34647e-08 5.46682e-08)
(4.34708e-09 -7.30953e-08 5.43156e-08)
(7.45182e-10 -7.01879e-08 5.13587e-08)
(1.5879e-09 -8.98856e-08 6.71261e-08)
(-4.11171e-09 -9.4803e-08 6.92203e-08)
(3.9147e-09 -9.41767e-08 6.87987e-08)
(-3.34619e-10 -8.80427e-08 6.59058e-08)
(8.92409e-09 -1.06479e-07 7.84054e-08)
(-1.88329e-09 -1.14755e-07 8.03476e-08)
(2.28877e-10 -1.1388e-07 7.98661e-08)
(-9.06531e-09 -1.03882e-07 7.6994e-08)
(3.00465e-08 -1.28503e-07 8.40027e-08)
(4.82455e-09 -1.34506e-07 8.5944e-08)
(-8.56806e-09 -1.33385e-07 8.54199e-08)
(-3.20665e-08 -1.25131e-07 8.24451e-08)
(6.11969e-08 -1.74578e-07 8.24487e-08)
(1.22598e-08 -1.64729e-07 8.46767e-08)
(-1.88967e-08 -1.63163e-07 8.41447e-08)
(-6.5526e-08 -1.6968e-07 8.08409e-08)
(2.29702e-09 -2.21479e-09 4.31487e-09)
(-1.06839e-09 -6.85484e-09 4.88289e-09)
(1.09644e-09 -7.00905e-09 4.83529e-09)
(-1.02021e-09 -3.41232e-09 4.18454e-09)
(4.16563e-09 -2.48521e-08 1.46552e-08)
(-1.62065e-09 -2.84222e-08 1.55621e-08)
(2.41315e-09 -2.85299e-08 1.54392e-08)
(-1.81908e-09 -2.54663e-08 1.43187e-08)
(3.45127e-09 -4.88251e-08 2.60097e-08)
(-2.15764e-09 -5.07115e-08 2.68888e-08)
(3.38486e-09 -5.06363e-08 2.67051e-08)
(-7.55621e-10 -4.86969e-08 2.54987e-08)
(2.06636e-09 -6.95965e-08 3.73336e-08)
(-3.03061e-09 -7.19682e-08 3.80604e-08)
(4.10933e-09 -7.16509e-08 3.78234e-08)
(4.46781e-10 -6.86995e-08 3.66618e-08)
(2.72967e-09 -8.70043e-08 4.7369e-08)
(-3.27793e-09 -9.20681e-08 4.79302e-08)
(3.61788e-09 -9.14959e-08 4.76446e-08)
(-9.35349e-10 -8.5332e-08 4.65459e-08)
(1.03092e-08 -1.02412e-07 5.47252e-08)
(-9.42733e-10 -1.10777e-07 5.5183e-08)
(-4.05113e-11 -1.09955e-07 5.48548e-08)
(-9.77431e-09 -9.99814e-08 5.37664e-08)
(3.12224e-08 -1.23707e-07 5.81164e-08)
(5.69893e-09 -1.29923e-07 5.85953e-08)
(-8.65433e-09 -1.2885e-07 5.82371e-08)
(-3.2445e-08 -1.20488e-07 5.70542e-08)
(6.17696e-08 -1.68934e-07 5.69455e-08)
(1.30351e-08 -1.59929e-07 5.76354e-08)
(-1.87872e-08 -1.58404e-07 5.72722e-08)
(-6.51959e-08 -1.64159e-07 5.58489e-08)
(2.30962e-09 -2.2505e-09 2.7318e-09)
(-9.51815e-10 -6.75048e-09 2.9634e-09)
(9.95731e-10 -6.91139e-09 2.93618e-09)
(-1.00888e-09 -3.47465e-09 2.65752e-09)
(4.39387e-09 -2.43197e-08 8.98606e-09)
(-1.35504e-09 -2.78777e-08 9.3108e-09)
(2.21846e-09 -2.80068e-08 9.24055e-09)
(-1.96689e-09 -2.50038e-08 8.7947e-09)
(3.97216e-09 -4.76557e-08 1.56975e-08)
(-1.74986e-09 -4.96339e-08 1.59596e-08)
(3.12416e-09 -4.95895e-08 1.58545e-08)
(-1.12226e-09 -4.7625e-08 1.54064e-08)
(2.89416e-09 -6.77815e-08 2.23067e-08)
(-2.47882e-09 -7.02777e-08 2.24621e-08)
(3.79418e-09 -6.99957e-08 2.23259e-08)
(-1.39257e-10 -6.69958e-08 2.19222e-08)
(3.82603e-09 -8.45763e-08 2.80818e-08)
(-2.60126e-09 -8.9737e-08 2.8137e-08)
(3.27149e-09 -8.92015e-08 2.7972e-08)
(-1.69733e-09 -8.30189e-08 2.76079e-08)
(1.15323e-08 -9.95628e-08 3.22291e-08)
(-2.04945e-10 -1.07974e-07 3.22293e-08)
(-3.58667e-10 -1.07187e-07 3.2039e-08)
(-1.05734e-08 -9.72441e-08 3.16743e-08)
(3.22965e-08 -1.2068e-07 3.40814e-08)
(6.39503e-09 -1.26991e-07 3.41043e-08)
(-8.85159e-09 -1.25952e-07 3.38961e-08)
(-3.30137e-08 -1.17563e-07 3.34649e-08)
(6.2461e-08 -1.6547e-07 3.33854e-08)
(1.36695e-08 -1.56898e-07 3.35312e-08)
(-1.88569e-08 -1.554e-07 3.33202e-08)
(-6.53108e-08 -1.60779e-07 3.27489e-08)
(2.3296e-09 -2.22849e-09 9.33466e-10)
(-8.95833e-10 -6.67793e-09 9.96688e-10)
(9.46631e-10 -6.8421e-09 9.87841e-10)
(-1.01781e-09 -3.46545e-09 9.09364e-10)
(4.53007e-09 -2.39515e-08 3.02662e-09)
(-1.22317e-09 -2.75236e-08 3.10684e-09)
(2.11883e-09 -2.76631e-08 3.08401e-09)
(-2.06582e-09 -2.46693e-08 2.96457e-09)
(4.25745e-09 -4.69116e-08 5.24524e-09)
(-1.54567e-09 -4.89468e-08 5.2987e-09)
(2.98808e-09 -4.89175e-08 5.2645e-09)
(-1.33543e-09 -4.69285e-08 5.15072e-09)
(3.32853e-09 -6.67032e-08 7.41334e-09)
(-2.20469e-09 -6.92646e-08 7.42944e-09)
(3.63112e-09 -6.90002e-08 7.38504e-09)
(-4.59459e-10 -6.59725e-08 7.28822e-09)
(4.38342e-09 -8.32466e-08 9.2944e-09)
(-2.26923e-09 -8.84538e-08 9.27757e-09)
(3.09633e-09 -8.79367e-08 9.22365e-09)
(-2.09525e-09 -8.17466e-08 9.13979e-09)
(1.2142e-08 -9.81109e-08 1.06342e-08)
(1.54128e-10 -1.06539e-07 1.06006e-08)
(-5.16423e-10 -1.05771e-07 1.05383e-08)
(-1.09791e-08 -9.58482e-08 1.04527e-08)
(3.28302e-08 -1.19203e-07 1.12259e-08)
(6.73417e-09 -1.25546e-07 1.12016e-08)
(-8.94956e-09 -1.24523e-07 1.11334e-08)
(-3.33025e-08 -1.16137e-07 1.1024e-08)
(6.2808e-08 -1.63807e-07 1.09964e-08)
(1.39784e-08 -1.55409e-07 1.1012e-08)
(-1.88913e-08 -1.53925e-07 1.09429e-08)
(-6.53773e-08 -1.59158e-07 1.07879e-08)
)
;

boundaryField
{
    interface
    {
        type            calculated;
        value           nonuniform List<vector> 
192
(
(3.85477e-08 6.17529e-08 3.71342e-08)
(6.30325e-08 3.14684e-08 8.1801e-08)
(6.63783e-08 -2.35528e-09 1.13305e-07)
(6.43367e-08 -3.0843e-08 1.41171e-07)
(6.39231e-08 -5.76104e-08 1.69723e-07)
(7.04538e-08 -8.68479e-08 2.02172e-07)
(9.06226e-08 -1.33122e-07 2.40935e-07)
(1.31108e-07 -2.26984e-07 2.78282e-07)
(1.2612e-08 2.45609e-08 6.94769e-09)
(2.62917e-08 -4.45539e-10 3.47735e-08)
(2.70493e-08 -2.77571e-08 6.37552e-08)
(2.39557e-08 -5.35443e-08 9.06792e-08)
(2.23406e-08 -7.88728e-08 1.17214e-07)
(2.74519e-08 -1.0443e-07 1.44838e-07)
(4.68492e-08 -1.38573e-07 1.71144e-07)
(9.0412e-08 -2.08214e-07 1.84358e-07)
(1.70911e-10 7.70099e-09 3.25877e-09)
(6.6674e-09 -1.70314e-08 2.38071e-08)
(5.93939e-09 -4.28908e-08 4.92179e-08)
(2.93209e-09 -6.67125e-08 7.4476e-08)
(1.54705e-09 -8.8512e-08 9.86388e-08)
(7.01616e-09 -1.07453e-07 1.2075e-07)
(2.70472e-08 -1.30913e-07 1.36514e-07)
(6.98731e-08 -1.88059e-07 1.37871e-07)
(-4.57237e-09 1.58654e-09 4.82767e-09)
(-1.14171e-09 -2.33547e-08 2.21302e-08)
(-2.35686e-09 -4.91745e-08 4.31544e-08)
(-4.84448e-09 -7.16249e-08 6.46215e-08)
(-5.49636e-09 -9.01291e-08 8.46129e-08)
(6.76398e-10 -1.04078e-07 1.01003e-07)
(2.10273e-08 -1.22129e-07 1.10184e-07)
(6.24713e-08 -1.74508e-07 1.08428e-07)
(-5.97958e-09 -2.33684e-10 5.16585e-09)
(-3.26076e-09 -2.48523e-08 1.93107e-08)
(-4.2913e-09 -5.03213e-08 3.56099e-08)
(-6.1588e-09 -7.16559e-08 5.21732e-08)
(-6.07505e-09 -8.79972e-08 6.71975e-08)
(6.73117e-10 -9.93644e-08 7.86331e-08)
(2.10556e-08 -1.15435e-07 8.41196e-08)
(6.12746e-08 -1.65837e-07 8.2201e-08)
(-6.22864e-09 -5.99159e-10 4.26928e-09)
(-3.38946e-09 -2.45637e-08 1.46875e-08)
(-4.02416e-09 -4.93501e-08 2.62008e-08)
(-5.36399e-09 -6.9777e-08 3.77147e-08)
(-4.74215e-09 -8.49438e-08 4.79286e-08)
(2.36207e-09 -9.52888e-08 5.53774e-08)
(2.26655e-08 -1.10842e-07 5.8679e-08)
(6.19888e-08 -1.60253e-07 5.72615e-08)
(-6.20028e-09 -5.74654e-10 2.74e-09)
(-3.14462e-09 -2.39042e-08 9.07723e-09)
(-3.45564e-09 -4.80308e-08 1.58991e-08)
(-4.44027e-09 -6.78183e-08 2.26223e-08)
(-3.49264e-09 -8.2417e-08 2.84953e-08)
(3.79929e-09 -9.24454e-08 3.26873e-08)
(2.40158e-08 -1.07948e-07 3.44834e-08)
(6.27665e-08 -1.56845e-07 3.3645e-08)
(-6.15785e-09 -5.13604e-10 9.38478e-10)
(-2.98695e-09 -2.34697e-08 3.06069e-09)
(-3.13439e-09 -4.72122e-08 5.31658e-09)
(-3.94669e-09 -6.66719e-08 7.52195e-09)
(-2.84927e-09 -8.10434e-08 9.43376e-09)
(4.52139e-09 -9.09995e-08 1.07866e-08)
(2.46869e-08 -1.06536e-07 1.13594e-08)
(6.31587e-08 -1.55214e-07 1.10832e-08)
(3.89179e-08 6.93511e-08 3.7156e-08)
(6.64756e-08 4.413e-08 8.27191e-08)
(6.99207e-08 1.24413e-08 1.14967e-07)
(6.71538e-08 -1.60492e-08 1.43442e-07)
(6.63384e-08 -4.41908e-08 1.72039e-07)
(7.36019e-08 -7.65466e-08 2.03193e-07)
(9.59759e-08 -1.27864e-07 2.39122e-07)
(1.29361e-07 -2.26707e-07 2.83091e-07)
(6.1397e-09 4.95471e-08 2.5612e-08)
(1.33374e-08 3.17545e-08 6.81945e-08)
(1.41067e-08 7.41023e-09 9.88565e-08)
(1.20824e-08 -1.9427e-08 1.25262e-07)
(1.05524e-08 -4.98686e-08 1.51303e-07)
(1.22215e-08 -8.51926e-08 1.79734e-07)
(1.92356e-08 -1.32761e-07 2.14404e-07)
(2.77393e-08 -2.15084e-07 2.63638e-07)
(-7.60791e-09 4.87897e-08 2.4492e-08)
(-1.6078e-08 3.13763e-08 6.681e-08)
(-1.80437e-08 7.449e-09 9.72395e-08)
(-1.75798e-08 -1.90195e-08 1.23464e-07)
(-1.80251e-08 -4.91385e-08 1.49356e-07)
(-2.2105e-08 -8.41716e-08 1.77642e-07)
(-3.20642e-08 -1.31448e-07 2.12146e-07)
(-4.42459e-08 -2.13192e-07 2.61129e-07)
(-3.86957e-08 6.65701e-08 3.35559e-08)
(-6.69549e-08 4.30625e-08 7.82046e-08)
(-7.1595e-08 1.27566e-08 1.09717e-07)
(-7.0383e-08 -1.46585e-08 1.37648e-07)
(-7.15176e-08 -4.18725e-08 1.65806e-07)
(-8.11595e-08 -7.33826e-08 1.96561e-07)
(-1.06334e-07 -1.23832e-07 2.32089e-07)
(-1.42912e-07 -2.20916e-07 2.75557e-07)
(-3.24016e-08 5.98003e-08 3.53753e-08)
(-5.71755e-08 3.11998e-08 7.8473e-08)
(-6.13677e-08 -1.17569e-09 1.09139e-07)
(-6.05689e-08 -2.84461e-08 1.36417e-07)
(-6.1815e-08 -5.40968e-08 1.64483e-07)
(-7.04159e-08 -8.22749e-08 1.96486e-07)
(-9.29126e-08 -1.27464e-07 2.34783e-07)
(-1.35318e-07 -2.19436e-07 2.71621e-07)
(-6.97491e-09 2.30014e-08 6.26462e-09)
(-2.05674e-08 -5.36247e-10 3.29594e-08)
(-2.18134e-08 -2.65908e-08 6.11711e-08)
(-1.96746e-08 -5.12456e-08 8.75328e-08)
(-1.94713e-08 -7.54965e-08 1.13591e-07)
(-2.64292e-08 -1.00029e-07 1.40769e-07)
(-4.79531e-08 -1.33168e-07 1.66649e-07)
(-9.31645e-08 -2.01106e-07 1.79571e-07)
(5.35338e-09 6.00479e-09 2.81438e-09)
(-6.95282e-10 -1.73202e-08 2.2573e-08)
(-1.14833e-10 -4.19801e-08 4.73468e-08)
(2.23801e-09 -6.47049e-08 7.2089e-08)
(2.48433e-09 -8.54474e-08 9.58042e-08)
(-4.57265e-09 -1.03387e-07 1.17507e-07)
(-2.64888e-08 -1.25879e-07 1.32922e-07)
(-7.07886e-08 -1.8132e-07 1.34085e-07)
(1.00793e-08 -2.94904e-10 4.50826e-09)
(7.32382e-09 -2.3924e-08 2.12621e-08)
(8.64682e-09 -4.8587e-08 4.18078e-08)
(1.07374e-08 -6.99584e-08 6.28504e-08)
(1.04987e-08 -8.74119e-08 8.24587e-08)
(2.97437e-09 -1.00362e-07 9.85046e-08)
(-1.90431e-08 -1.17433e-07 1.07406e-07)
(-6.17991e-08 -1.68055e-07 1.05504e-07)
(1.14946e-08 -2.24951e-09 4.94264e-09)
(9.58538e-09 -2.5656e-08 1.87117e-08)
(1.09019e-08 -5.00205e-08 3.46725e-08)
(1.25712e-08 -7.02967e-08 5.09172e-08)
(1.17986e-08 -8.55896e-08 6.56426e-08)
(3.89292e-09 -9.59486e-08 7.68088e-08)
(-1.79788e-08 -1.11015e-07 8.20791e-08)
(-5.93736e-08 -1.59611e-07 8.00495e-08)
(1.17465e-08 -2.70248e-09 4.12247e-09)
(9.80772e-09 -2.55323e-08 1.42964e-08)
(1.08483e-08 -4.92632e-08 2.55863e-08)
(1.21307e-08 -6.86543e-08 3.68827e-08)
(1.09686e-08 -8.27762e-08 4.68864e-08)
(2.85182e-09 -9.21033e-08 5.41433e-08)
(-1.88085e-08 -1.06632e-07 5.72908e-08)
(-5.92039e-08 -1.54199e-07 5.5795e-08)
(1.17213e-08 -2.73068e-09 2.65684e-09)
(9.62086e-09 -2.49753e-08 8.85627e-09)
(1.04115e-08 -4.80817e-08 1.55512e-08)
(1.14278e-08 -6.68516e-08 2.21486e-08)
(1.00362e-08 -8.04099e-08 2.78978e-08)
(1.82716e-09 -8.94144e-08 3.19754e-08)
(-1.96586e-08 -1.03878e-07 3.36792e-08)
(-5.94116e-08 -1.50908e-07 3.27942e-08)
(1.16812e-08 -2.69453e-09 9.11571e-10)
(9.4912e-09 -2.45897e-08 2.98926e-09)
(1.01534e-08 -4.73299e-08 5.20398e-09)
(1.10404e-08 -6.57822e-08 7.36824e-09)
(9.54605e-09 -7.91162e-08 9.23924e-09)
(1.30539e-09 -8.80456e-08 1.05541e-08)
(-2.00858e-08 -1.02537e-07 1.10962e-08)
(-5.95251e-08 -1.49337e-07 1.08045e-08)
(1.29222e-07 -2.31743e-07 2.87432e-07)
(9.55572e-08 -2.06397e-07 1.88585e-07)
(7.27034e-08 -1.89175e-07 1.37317e-07)
(6.43515e-08 -1.77107e-07 1.05414e-07)
(6.31049e-08 -1.68733e-07 7.88558e-08)
(6.38585e-08 -1.63145e-07 5.46685e-08)
(6.46302e-08 -1.597e-07 3.21037e-08)
(6.50043e-08 -1.58051e-07 1.05806e-08)
(2.76188e-08 -2.12007e-07 2.76089e-07)
(1.88275e-08 -1.81408e-07 1.93819e-07)
(1.14036e-08 -1.65434e-07 1.46391e-07)
(9.02337e-09 -1.55958e-07 1.11438e-07)
(9.40515e-09 -1.49723e-07 8.16395e-08)
(1.04018e-08 -1.45453e-07 5.56775e-08)
(1.11512e-08 -1.42686e-07 3.24012e-08)
(1.15072e-08 -1.41312e-07 1.06399e-08)
(-4.43365e-08 -2.09277e-07 2.7439e-07)
(-3.24305e-08 -1.78895e-07 1.92677e-07)
(-2.26971e-08 -1.63043e-07 1.45495e-07)
(-1.85792e-08 -1.53651e-07 1.10747e-07)
(-1.76601e-08 -1.47475e-07 8.11314e-08)
(-1.77307e-08 -1.43247e-07 5.53316e-08)
(-1.78875e-08 -1.40508e-07 3.22007e-08)
(-1.7955e-08 -1.39147e-07 1.05742e-08)
(-1.43005e-07 -2.23519e-07 2.82252e-07)
(-1.06684e-07 -1.98583e-07 1.85114e-07)
(-8.16205e-08 -1.81635e-07 1.34601e-07)
(-7.15098e-08 -1.69783e-07 1.03321e-07)
(-6.89324e-08 -1.61568e-07 7.73199e-08)
(-6.87381e-08 -1.56096e-07 5.36239e-08)
(-6.89028e-08 -1.52727e-07 3.14987e-08)
(-6.8981e-08 -1.51116e-07 1.03826e-08)
)
;
    }
    symmetry
    {
        type            symmetry;
    }
    bottom
    {
        type            calculated;
        value           uniform (0 0 0);
    }
}


// ************************************************************************* //
