/*--------------------------------*- C++ -*----------------------------------*\
| =========                 |                                                 |
| \\      /  F ield         | OpenFOAM: The Open Source CFD Toolbox           |
|  \\    /   O peration     | Version:  v1912                                 |
|   \\  /    A nd           | Website:  www.openfoam.com                      |
|    \\/     M anipulation  |                                                 |
\*---------------------------------------------------------------------------*/
FoamFile
{
    version     2.0;
    format      ascii;
    class       volVectorField;
    location    "0.99/fluid";
    object      cellMotionU;
}
// * * * * * * * * * * * * * * * * * * * * * * * * * * * * * * * * * * * * * //

dimensions      [0 1 -1 0 0 0 0];


internalField   nonuniform List<vector> 
14592
(
(9.98946e-11 -2.63343e-10 2.01406e-10)
(2.79497e-10 -7.36199e-10 5.70342e-10)
(4.47481e-10 -1.17532e-09 9.33974e-10)
(6.11326e-10 -1.59583e-09 1.31658e-09)
(7.79054e-10 -2.00818e-09 1.74102e-09)
(9.58295e-10 -2.41633e-09 2.22861e-09)
(1.15834e-09 -2.81689e-09 2.8007e-09)
(1.39167e-09 -3.19638e-09 3.47918e-09)
(1.67643e-09 -3.52552e-09 4.28678e-09)
(2.0422e-09 -3.74973e-09 5.24818e-09)
(2.54182e-09 -3.76898e-09 6.39335e-09)
(3.28153e-09 -3.39264e-09 7.77241e-09)
(4.49743e-09 -2.22054e-09 9.50767e-09)
(6.75939e-09 7.03945e-10 1.19572e-08)
(1.13282e-08 7.67313e-09 1.60387e-08)
(1.89544e-08 2.1039e-08 2.22592e-08)
(2.96672e-10 -7.81901e-10 5.986e-10)
(8.30063e-10 -2.18616e-09 1.69504e-09)
(1.32816e-09 -3.49094e-09 2.77475e-09)
(1.814e-09 -4.74237e-09 3.91072e-09)
(2.30897e-09 -5.97102e-09 5.16881e-09)
(2.83605e-09 -7.19096e-09 6.61248e-09)
(3.42187e-09 -8.39527e-09 8.30443e-09)
(4.10062e-09 -9.54842e-09 1.03079e-08)
(4.92084e-09 -1.05732e-08 1.26876e-08)
(5.95672e-09 -1.1327e-08 1.55086e-08)
(7.33053e-09 -1.15612e-08 1.88373e-08)
(9.25732e-09 -1.08516e-08 2.27501e-08)
(1.21306e-08 -8.47828e-09 2.73649e-08)
(1.66254e-08 -3.28346e-09 3.28922e-08)
(2.35211e-08 6.11686e-09 3.95307e-08)
(3.15199e-08 1.81302e-08 4.60872e-08)
(4.85057e-10 -1.27734e-09 9.80372e-10)
(1.35665e-09 -3.57241e-09 2.77548e-09)
(2.16966e-09 -5.70826e-09 4.54215e-09)
(2.95955e-09 -7.76152e-09 6.39806e-09)
(3.76104e-09 -9.78622e-09 8.45089e-09)
(4.60972e-09 -1.18106e-08 1.08033e-08)
(5.54602e-09 -1.38322e-08 1.35566e-08)
(6.62023e-09 -1.58087e-08 1.68133e-08)
(7.89948e-09 -1.76411e-08 2.06762e-08)
(9.47843e-09 -1.91467e-08 2.52455e-08)
(1.14969e-08 -2.00186e-08 3.0611e-08)
(1.41669e-08 -1.97765e-08 3.68428e-08)
(1.78204e-08 -1.77306e-08 4.39928e-08)
(2.29128e-08 -1.30787e-08 5.20876e-08)
(2.9802e-08 -5.51664e-09 6.106e-08)
(3.71277e-08 2.49794e-09 6.96475e-08)
(6.59932e-10 -1.73407e-09 1.33723e-09)
(1.84492e-09 -4.85189e-09 3.78476e-09)
(2.94759e-09 -7.75915e-09 6.19063e-09)
(4.01462e-09 -1.05644e-08 8.71376e-09)
(5.09032e-09 -1.33466e-08 1.14985e-08)
(6.22045e-09 -1.6154e-08 1.46831e-08)
(7.45537e-09 -1.89996e-08 1.84039e-08)
(8.85476e-09 -2.18521e-08 2.27984e-08)
(1.04934e-08 -2.46217e-08 2.80051e-08)
(1.24669e-08 -2.71351e-08 3.41567e-08)
(1.48972e-08 -2.91035e-08 4.13654e-08)
(1.79353e-08 -3.00881e-08 4.96982e-08)
(2.17597e-08 -2.94957e-08 5.91401e-08)
(2.65261e-08 -2.67004e-08 6.95313e-08)
(3.21896e-08 -2.1536e-08 8.04107e-08)
(3.75512e-08 -1.58198e-08 8.98851e-08)
(8.17017e-10 -2.13664e-09 1.66097e-09)
(2.28288e-09 -5.98136e-09 4.6995e-09)
(3.64271e-09 -9.57515e-09 7.68148e-09)
(4.95104e-09 -1.30576e-08 1.08008e-08)
(6.26011e-09 -1.65351e-08 1.4234e-08)
(7.62219e-09 -2.00805e-08 1.81488e-08)
(9.09346e-09 -2.37313e-08 2.2711e-08)
(1.07382e-08 -2.74842e-08 2.80886e-08)
(1.26323e-08 -3.12846e-08 3.44516e-08)
(1.48649e-08 -3.50096e-08 4.19658e-08)
(1.75347e-08 -3.84432e-08 5.07761e-08)
(2.0738e-08 -4.12433e-08 6.09745e-08)
(2.4537e-08 -4.29039e-08 7.25402e-08)
(2.88884e-08 -4.27382e-08 8.52202e-08)
(3.35121e-08 -4.00228e-08 9.82265e-08)
(3.73968e-08 -3.52711e-08 1.08914e-07)
(9.53379e-10 -2.47015e-09 1.94523e-09)
(2.66168e-09 -6.91876e-09 5.50118e-09)
(4.24036e-09 -1.1088e-08 8.98353e-09)
(5.7496e-09 -1.51473e-08 1.2615e-08)
(7.24563e-09 -1.92297e-08 1.65964e-08)
(8.78452e-09 -2.34352e-08 2.11187e-08)
(1.0425e-08 -2.78316e-08 2.637e-08)
(1.22322e-08 -3.24534e-08 3.25411e-08)
(1.42809e-08 -3.72984e-08 3.98276e-08)
(1.66559e-08 -4.23208e-08 4.84266e-08)
(1.94471e-08 -4.74182e-08 5.85246e-08)
(2.2739e-08 -5.24067e-08 7.02737e-08)
(2.65911e-08 -5.69592e-08 8.37473e-08)
(3.09702e-08 -6.04388e-08 9.87945e-08)
(3.56295e-08 -6.15916e-08 1.14611e-07)
(3.95402e-08 -5.90541e-08 1.27825e-07)
(1.06678e-09 -2.72053e-09 2.18534e-09)
(2.97579e-09 -7.62462e-09 6.17687e-09)
(4.73225e-09 -1.22338e-08 1.00758e-08)
(6.39856e-09 -1.67427e-08 1.41252e-08)
(8.03292e-09 -2.13093e-08 1.85437e-08)
(9.69173e-09 -2.60592e-08 2.35366e-08)
(1.1433e-08 -3.10904e-08 2.93054e-08)
(1.33201e-08 -3.64767e-08 3.60537e-08)
(1.54248e-08 -4.22715e-08 4.39916e-08)
(1.78295e-08 -4.85115e-08 5.33367e-08)
(2.06267e-08 -5.52222e-08 6.4309e-08)
(2.3931e-08 -6.24275e-08 7.71386e-08)
(2.78784e-08 -7.01324e-08 9.2044e-08)
(3.26442e-08 -7.82258e-08 1.09172e-07)
(3.83511e-08 -8.60411e-08 1.2814e-07)
(4.39482e-08 -9.11071e-08 1.45141e-07)
(1.15663e-09 -2.87562e-09 2.37894e-09)
(3.2232e-09 -8.06467e-09 6.71994e-09)
(5.11552e-09 -1.29558e-08 1.09474e-08)
(6.8958e-09 -1.77635e-08 1.53172e-08)
(8.62053e-09 -2.26646e-08 2.00566e-08)
(1.03439e-08 -2.78057e-08 2.53772e-08)
(1.21204e-08 -3.33097e-08 3.14832e-08)
(1.40079e-08 -3.92821e-08 3.85786e-08)
(1.60717e-08 -4.58189e-08 4.68717e-08)
(1.8387e-08 -5.30171e-08 5.65772e-08)
(2.10459e-08 -6.0994e-08 6.79216e-08)
(2.41708e-08 -6.99199e-08 8.1156e-08)
(2.7956e-08 -8.00817e-08 9.65938e-08)
(3.27458e-08 -9.19678e-08 1.14661e-07)
(3.90739e-08 -1.0617e-07 1.35673e-07)
(4.63669e-08 -1.20955e-07 1.56533e-07)
(1.02035e-10 -2.69746e-10 1.91276e-10)
(2.85479e-10 -7.54202e-10 5.41452e-10)
(4.5681e-10 -1.20445e-09 8.85752e-10)
(6.23801e-10 -1.63637e-09 1.24713e-09)
(7.93933e-10 -2.0608e-09 1.64625e-09)
(9.74801e-10 -2.48251e-09 2.10257e-09)
(1.17513e-09 -2.89909e-09 2.63484e-09)
(1.40603e-09 -3.2983e-09 3.26111e-09)
(1.68348e-09 -3.65378e-09 3.99852e-09)
(2.03279e-09 -3.91703e-09 4.86194e-09)
(2.4987e-09 -4.00282e-09 5.86258e-09)
(3.16893e-09 -3.75906e-09 7.00824e-09)
(4.23424e-09 -2.89628e-09 8.31332e-09)
(6.12065e-09 -8.19171e-10 9.82384e-09)
(9.63945e-09 3.59525e-09 1.15928e-08)
(1.48526e-08 1.06074e-08 1.30194e-08)
(3.03059e-10 -8.00881e-10 5.68539e-10)
(8.4769e-10 -2.23946e-09 1.60898e-09)
(1.35602e-09 -3.57726e-09 2.63168e-09)
(1.85067e-09 -4.86209e-09 3.70413e-09)
(2.35317e-09 -6.12667e-09 4.88739e-09)
(2.8856e-09 -7.38693e-09 6.23878e-09)
(3.47267e-09 -8.63825e-09 7.81318e-09)
(4.14521e-09 -9.84904e-09 9.66333e-09)
(4.9453e-09 -1.09494e-08 1.18377e-08)
(5.93546e-09 -1.18125e-08 1.43752e-08)
(7.21568e-09 -1.22259e-08 1.72938e-08)
(8.95763e-09 -1.18505e-08 2.05731e-08)
(1.14641e-08 -1.0177e-08 2.41205e-08)
(1.51968e-08 -6.56e-09 2.76714e-08)
(2.04998e-08 -7.15225e-10 3.05206e-08)
(2.59268e-08 5.15358e-09 3.12203e-08)
(4.95531e-10 -1.30828e-09 9.31122e-10)
(1.38566e-09 -3.65931e-09 2.63468e-09)
(2.21531e-09 -5.84882e-09 4.30793e-09)
(3.0203e-09 -7.95689e-09 6.06054e-09)
(3.83474e-09 -1.00402e-08 7.99167e-09)
(4.69312e-09 -1.21301e-08 1.01942e-08)
(5.63323e-09 -1.42277e-08 1.27575e-08)
(6.70018e-09 -1.62959e-08 1.57672e-08)
(7.95163e-09 -1.82454e-08 1.9302e-08)
(9.46475e-09 -1.99138e-08 2.34233e-08)
(1.13466e-08 -2.10388e-08 2.81542e-08)
(1.37539e-08 -2.12392e-08 3.3445e-08)
(1.68998e-08 -2.00516e-08 3.91009e-08)
(2.10207e-08 -1.71612e-08 4.46591e-08)
(2.60607e-08 -1.31354e-08 4.91588e-08)
(3.05745e-08 -1.05787e-08 5.10995e-08)
(6.74287e-10 -1.77599e-09 1.27008e-09)
(1.88484e-09 -4.96964e-09 3.59307e-09)
(3.01064e-09 -7.94977e-09 5.87197e-09)
(4.09869e-09 -1.08292e-08 8.25496e-09)
(5.19321e-09 -1.3691e-08 1.08753e-08)
(6.33849e-09 -1.6587e-08 1.38582e-08)
(7.58178e-09 -1.95342e-08 1.73241e-08)
(8.97689e-09 -2.25073e-08 2.13893e-08)
(1.05874e-08 -2.54258e-08 2.61617e-08)
(1.24881e-08 -2.81356e-08 3.1727e-08)
(1.47642e-08 -3.03881e-08 3.8122e-08)
(1.75007e-08 -3.18326e-08 4.52828e-08)
(2.07532e-08 -3.20684e-08 5.2952e-08)
(2.4456e-08 -3.08732e-08 6.05064e-08)
(2.82092e-08 -2.87866e-08 6.6689e-08)
(3.08709e-08 -2.7729e-08 6.95397e-08)
(8.35122e-10 -2.18825e-09 1.57779e-09)
(2.3331e-09 -6.1263e-09 4.46193e-09)
(3.72215e-09 -9.80976e-09 7.28697e-09)
(5.05774e-09 -1.33838e-08 1.02339e-08)
(6.39176e-09 -1.69594e-08 1.34653e-08)
(7.77531e-09 -2.06135e-08 1.71337e-08)
(9.26176e-09 -2.43881e-08 2.13862e-08)
(1.09094e-08 -2.82848e-08 2.63658e-08)
(1.27832e-08 -3.22568e-08 3.22078e-08)
(1.49516e-08 -3.61948e-08 3.90254e-08)
(1.74766e-08 -3.99103e-08 4.68817e-08)
(2.03882e-08 -4.31203e-08 5.57316e-08)
(2.36266e-08 -4.54488e-08 6.53107e-08)
(2.69284e-08 -4.6498e-08 7.49114e-08)
(2.96749e-08 -4.61415e-08 8.29945e-08)
(3.09402e-08 -4.52758e-08 8.69641e-08)
(9.74813e-10 -2.52973e-09 1.84802e-09)
(2.72133e-09 -7.08618e-09 5.22381e-09)
(4.33508e-09 -1.13593e-08 8.52357e-09)
(5.87723e-09 -1.55245e-08 1.1955e-08)
(7.40441e-09 -1.97204e-08 1.57037e-08)
(8.97179e-09 -2.40515e-08 1.99434e-08)
(1.06358e-08 -2.85896e-08 2.48413e-08)
(1.24568e-08 -3.33734e-08 3.05614e-08)
(1.45e-08 -3.84055e-08 3.72613e-08)
(1.68325e-08 -4.3647e-08 4.50816e-08)
(1.95133e-08 -4.90077e-08 5.41211e-08)
(2.25722e-08 -5.43286e-08 6.43871e-08)
(2.5956e-08 -5.93334e-08 7.56805e-08)
(2.9431e-08 -6.35199e-08 8.73517e-08)
(3.24009e-08 -6.60084e-08 9.77564e-08)
(3.38149e-08 -6.59999e-08 1.03598e-07)
(1.09127e-09 -2.78615e-09 2.0765e-09)
(3.04384e-09 -7.80904e-09 5.86642e-09)
(4.84047e-09 -1.25326e-08 9.56163e-09)
(6.54516e-09 -1.71587e-08 1.33892e-08)
(8.21651e-09 -2.18507e-08 1.75509e-08)
(9.91077e-09 -2.67392e-08 2.2234e-08)
(1.16846e-08 -3.19259e-08 2.76182e-08)
(1.3598e-08 -3.74878e-08 3.38792e-08)
(1.57158e-08 -4.34804e-08 4.11879e-08)
(1.81075e-08 -4.99412e-08 4.97028e-08)
(2.08463e-08 -5.68966e-08 5.95559e-08)
(2.40011e-08 -6.43642e-08 7.08104e-08)
(2.76339e-08 -7.23384e-08 8.33877e-08)
(3.17624e-08 -8.06776e-08 9.68264e-08)
(3.61789e-08 -8.86815e-08 1.0963e-07)
(3.97675e-08 -9.40874e-08 1.17933e-07)
(1.1836e-09 -2.945e-09 2.26082e-09)
(3.29834e-09 -8.25972e-09 6.38336e-09)
(5.23533e-09 -1.32722e-08 1.0391e-08)
(7.0584e-09 -1.82042e-08 1.45225e-08)
(8.82528e-09 -2.32387e-08 1.89882e-08)
(1.05904e-08 -2.85271e-08 2.39812e-08)
(1.24078e-08 -3.41958e-08 2.9684e-08)
(1.43336e-08 -4.03527e-08 3.62731e-08)
(1.64288e-08 -4.70939e-08 4.39183e-08)
(1.87614e-08 -5.45134e-08 5.27784e-08)
(2.14095e-08 -6.27203e-08 6.2989e-08)
(2.44718e-08 -7.18665e-08 7.46431e-08)
(2.80901e-08 -8.21926e-08 8.77379e-08)
(3.24737e-08 -9.40597e-08 1.02005e-07)
(3.78211e-08 -1.0774e-07 1.16343e-07)
(4.31975e-08 -1.2116e-07 1.26882e-07)
(1.03678e-10 -2.75392e-10 1.74293e-10)
(2.89945e-10 -7.7009e-10 4.93105e-10)
(4.63661e-10 -1.23022e-09 8.06073e-10)
(6.32309e-10 -1.67223e-09 1.13341e-09)
(8.03082e-10 -2.10757e-09 1.49345e-09)
(9.82905e-10 -2.54178e-09 1.90278e-09)
(1.17927e-09 -2.97359e-09 2.37671e-09)
(1.40107e-09 -3.39288e-09 2.92872e-09)
(1.66018e-09 -3.7775e-09 3.56915e-09)
(1.97411e-09 -4.08818e-09 4.302e-09)
(2.3719e-09 -4.26024e-09 5.11893e-09)
(2.90852e-09 -4.1897e-09 5.98961e-09)
(3.69588e-09 -3.70493e-09 6.84373e-09)
(4.96645e-09 -2.50192e-09 7.53945e-09)
(7.11421e-09 -6.42615e-11 7.78838e-09)
(9.97206e-09 3.67606e-09 7.07897e-09)
(3.07936e-10 -8.176e-10 5.18022e-10)
(8.61072e-10 -2.28652e-09 1.46545e-09)
(1.37643e-09 -3.65352e-09 2.39484e-09)
(1.87619e-09 -4.96816e-09 3.36649e-09)
(2.38088e-09 -6.26492e-09 4.43399e-09)
(2.91072e-09 -7.56183e-09 5.6464e-09)
(3.48696e-09 -8.85741e-09 7.04864e-09)
(4.13417e-09 -1.01256e-08 8.68017e-09)
(4.88315e-09 -1.13074e-08 1.05704e-08)
(5.77526e-09 -1.22993e-08 1.27283e-08)
(6.87098e-09 -1.29378e-08 1.51223e-08)
(8.26428e-09 -1.29895e-08 1.76431e-08)
(1.0097e-08 -1.21627e-08 2.00318e-08)
(1.25326e-08 -1.02068e-08 2.17513e-08)
(1.5492e-08 -7.27263e-09 2.18271e-08)
(1.78362e-08 -4.77209e-09 1.95156e-08)
(5.03603e-10 -1.3355e-09 8.48427e-10)
(1.40784e-09 -3.73592e-09 2.3998e-09)
(2.2493e-09 -5.97295e-09 3.92054e-09)
(3.06315e-09 -8.1294e-09 5.50865e-09)
(3.88207e-09 -1.02648e-08 7.25119e-09)
(4.73771e-09 -1.24133e-08 9.22786e-09)
(5.66278e-09 -1.45804e-08 1.1512e-08)
(6.69326e-09 -1.67364e-08 1.41684e-08)
(7.87028e-09 -1.88058e-08 1.72462e-08)
(9.24151e-09 -2.06547e-08 2.07625e-08)
(1.08612e-08 -2.20791e-08 2.46713e-08)
(1.27836e-08 -2.28161e-08 2.88056e-08)
(1.50449e-08 -2.26215e-08 3.27863e-08)
(1.75686e-08 -2.15171e-08 3.58732e-08)
(1.99537e-08 -2.02778e-08 3.69196e-08)
(2.12357e-08 -2.04883e-08 3.53133e-08)
(6.85519e-10 -1.81281e-09 1.15748e-09)
(1.91571e-09 -5.07328e-09 3.27295e-09)
(3.05817e-09 -8.11754e-09 5.34456e-09)
(4.15925e-09 -1.10622e-08 7.50426e-09)
(5.26147e-09 -1.39936e-08 9.86937e-09)
(6.40584e-09 -1.69671e-08 1.25474e-08)
(7.63362e-09 -2.00042e-08 1.56379e-08)
(8.9879e-09 -2.30865e-08 1.92297e-08)
(1.05134e-08 -2.61462e-08 2.33928e-08)
(1.22518e-08 -2.90545e-08 2.8158e-08)
(1.42293e-08 -3.16133e-08 3.34786e-08)
(1.64279e-08 -3.35708e-08 3.91642e-08)
(1.87216e-08 -3.47047e-08 4.47686e-08)
(2.07594e-08 -3.50517e-08 4.94399e-08)
(2.18546e-08 -3.52844e-08 5.18748e-08)
(2.1386e-08 -3.64727e-08 5.12245e-08)
(8.49403e-10 -2.23348e-09 1.43801e-09)
(2.37239e-09 -6.25348e-09 4.065e-09)
(3.78307e-09 -1.00156e-08 6.63346e-09)
(5.13623e-09 -1.36694e-08 9.30489e-09)
(6.48217e-09 -1.73294e-08 1.22225e-08)
(7.86867e-09 -2.10764e-08 1.55176e-08)
(9.34299e-09 -2.49559e-08 1.93122e-08)
(1.09527e-08 -2.89746e-08 2.37168e-08)
(1.27437e-08 -3.30938e-08 2.88221e-08)
(1.47519e-08 -3.722e-08 3.46774e-08)
(1.69825e-08 -4.11958e-08 4.12506e-08)
(1.93666e-08 -4.47987e-08 4.83561e-08)
(2.16731e-08 -4.77649e-08 5.5531e-08)
(2.33695e-08 -4.98722e-08 6.18566e-08)
(2.35547e-08 -5.11263e-08 6.5844e-08)
(2.17626e-08 -5.19174e-08 6.62212e-08)
(9.91948e-10 -2.58182e-09 1.68458e-09)
(2.76871e-09 -7.23269e-09 4.75987e-09)
(4.40884e-09 -1.15963e-08 7.76058e-09)
(5.97335e-09 -1.5853e-08 1.08721e-08)
(7.51743e-09 -2.01453e-08 1.42581e-08)
(9.09329e-09 -2.45809e-08 1.80683e-08)
(1.07518e-08 -2.92342e-08 2.24422e-08)
(1.25436e-08 -3.4146e-08 2.75074e-08)
(1.4517e-08 -3.93211e-08 3.33718e-08)
(1.67102e-08 -4.47239e-08 4.01047e-08)
(1.91323e-08 -5.02705e-08 4.76968e-08)
(2.17235e-08 -5.58135e-08 5.59883e-08)
(2.42794e-08 -6.11033e-08 6.45446e-08)
(2.63091e-08 -6.56834e-08 7.24342e-08)
(2.69209e-08 -6.87319e-08 7.80225e-08)
(2.5423e-08 -6.93133e-08 7.956e-08)
(1.11106e-09 -2.84336e-09 1.89315e-09)
(3.09857e-09 -7.96993e-09 5.3464e-09)
(4.92626e-09 -1.27928e-08 8.70752e-09)
(6.65803e-09 -1.75192e-08 1.21793e-08)
(8.35161e-09 -2.23163e-08 1.59399e-08)
(1.00609e-08 -2.73175e-08 2.01513e-08)
(1.1838e-08 -3.26258e-08 2.49633e-08)
(1.37349e-08 -3.83177e-08 3.05137e-08)
(1.58026e-08 -4.44446e-08 3.6921e-08)
(1.80877e-08 -5.10364e-08 4.42676e-08)
(2.06205e-08 -5.81015e-08 5.25622e-08)
(2.34022e-08 -6.56265e-08 6.16825e-08)
(2.63605e-08 -7.3539e-08 7.12328e-08)
(2.92892e-08 -8.15758e-08 8.03176e-08)
(3.17282e-08 -8.8881e-08 8.72092e-08)
(3.28657e-08 -9.3236e-08 8.9683e-08)
(1.20568e-09 -3.00534e-09 2.06161e-09)
(3.35967e-09 -8.42943e-09 5.81869e-09)
(5.33179e-09 -1.35467e-08 9.46494e-09)
(7.18639e-09 -1.85845e-08 1.32137e-08)
(8.98065e-09 -2.37295e-08 1.7251e-08)
(1.07675e-08 -2.91356e-08 2.17439e-08)
(1.25975e-08 -3.49294e-08 2.68453e-08)
(1.45208e-08 -4.12159e-08 3.26939e-08)
(1.65881e-08 -4.80834e-08 3.94078e-08)
(1.88493e-08 -5.56099e-08 4.70686e-08)
(2.13525e-08 -6.38731e-08 5.56917e-08)
(2.41403e-08 -7.2965e-08 6.51651e-08)
(2.72477e-08 -8.3006e-08 7.5131e-08)
(3.07015e-08 -9.41346e-08 8.47414e-08)
(3.44505e-08 -1.06273e-07 9.22151e-08)
(3.78068e-08 -1.17403e-07 9.48193e-08)
(1.04847e-10 -2.80183e-10 1.51222e-10)
(2.93105e-10 -7.83588e-10 4.27698e-10)
(4.68223e-10 -1.2521e-09 6.98496e-10)
(6.37517e-10 -1.70272e-09 9.81047e-10)
(8.07589e-10 -2.1474e-09 1.29038e-09)
(9.84535e-10 -2.59241e-09 1.64001e-09)
(1.17436e-09 -3.0376e-09 2.04159e-09)
(1.38343e-09 -3.47491e-09 2.50421e-09)
(1.61911e-09 -3.88623e-09 3.03243e-09)
(1.89091e-09 -4.24034e-09 3.62246e-09)
(2.21315e-09 -4.48892e-09 4.25522e-09)
(2.61197e-09 -4.56126e-09 4.88538e-09)
(3.14334e-09 -4.35137e-09 5.42728e-09)
(3.92704e-09 -3.67774e-09 5.73972e-09)
(5.16842e-09 -2.19846e-09 5.63832e-09)
(6.74737e-09 3.00978e-10 5.0201e-09)
(3.11461e-10 -8.31792e-10 4.49483e-10)
(8.70527e-10 -2.32648e-09 1.271e-09)
(1.39029e-09 -3.71831e-09 2.07553e-09)
(1.89205e-09 -5.05831e-09 2.914e-09)
(2.39498e-09 -6.38249e-09 3.83128e-09)
(2.91681e-09 -7.71081e-09 4.86698e-09)
(3.47469e-09 -9.04478e-09 6.05546e-09)
(4.08606e-09 -1.03637e-08 7.42338e-09)
(4.76941e-09 -1.1619e-08 8.98378e-09)
(5.5448e-09 -1.27269e-08 1.07242e-08)
(6.43513e-09 -1.35631e-08 1.25854e-08)
(7.46915e-09 -1.39643e-08 1.44273e-08)
(8.68319e-09 -1.37518e-08 1.59786e-08)
(1.00906e-08 -1.27966e-08 1.67757e-08)
(1.15546e-08 -1.11722e-08 1.62248e-08)
(1.24839e-08 -9.52419e-09 1.43583e-08)
(5.09501e-10 -1.35858e-09 7.36241e-10)
(1.42376e-09 -3.80094e-09 2.08152e-09)
(2.27274e-09 -6.07823e-09 3.39802e-09)
(3.09048e-09 -8.27564e-09 4.76872e-09)
(3.90746e-09 -1.04549e-08 6.2663e-09)
(4.75175e-09 -1.26529e-08 7.95536e-09)
(5.64993e-09 -1.48792e-08 9.89219e-09)
(6.62754e-09 -1.71105e-08 1.21212e-08)
(7.70814e-09 -1.92843e-08 1.46658e-08)
(8.9098e-09 -2.12902e-08 1.75102e-08)
(1.02371e-08 -2.29689e-08 2.05682e-08)
(1.16687e-08 -2.41318e-08 2.36376e-08)
(1.31238e-08 -2.46376e-08 2.63309e-08)
(1.44145e-08 -2.45703e-08 2.80475e-08)
(1.51961e-08 -2.44915e-08 2.81386e-08)
(1.51824e-08 -2.52057e-08 2.68513e-08)
(6.93822e-10 -1.84402e-09 1.00442e-09)
(1.93821e-09 -5.16104e-09 2.8393e-09)
(3.09167e-09 -8.25952e-09 4.63284e-09)
(4.19908e-09 -1.1259e-08 6.49721e-09)
(5.30052e-09 -1.42483e-08 8.53039e-09)
(6.43267e-09 -1.7286e-08 1.08197e-08)
(7.62956e-09 -2.03971e-08 1.34419e-08)
(8.92215e-09 -2.3569e-08 1.64588e-08)
(1.03351e-08 -2.67446e-08 1.99064e-08)
(1.18775e-08 -2.98144e-08 2.37729e-08)
(1.35242e-08 -3.26155e-08 2.79624e-08)
(1.51807e-08 -3.49529e-08 3.22403e-08)
(1.6622e-08 -3.66752e-08 3.61686e-08)
(1.74238e-08 -3.78438e-08 3.90808e-08)
(1.7028e-08 -3.89351e-08 4.02841e-08)
(1.55028e-08 -4.045e-08 3.99003e-08)
(8.60112e-10 -2.27169e-09 1.24811e-09)
(2.40159e-09 -6.36096e-09 3.52686e-09)
(3.82691e-09 -1.01892e-08 5.75101e-09)
(5.18958e-09 -1.39094e-08 8.0577e-09)
(6.53729e-09 -1.76388e-08 1.05667e-08)
(7.91338e-09 -2.14608e-08 1.33848e-08)
(9.35761e-09 -2.54232e-08 1.66067e-08)
(1.09052e-08 -2.95361e-08 2.03103e-08)
(1.25822e-08 -3.37656e-08 2.45449e-08)
(1.43927e-08 -3.80273e-08 2.93083e-08)
(1.62941e-08 -4.21796e-08 3.45075e-08)
(1.81487e-08 -4.60248e-08 3.99012e-08)
(1.96428e-08 -4.93264e-08 4.50301e-08)
(2.01931e-08 -5.18572e-08 4.9185e-08)
(1.90427e-08 -5.34954e-08 5.15841e-08)
(1.63622e-08 -5.4323e-08 5.20988e-08)
(1.00504e-09 -2.62576e-09 1.46233e-09)
(2.80444e-09 -7.35615e-09 4.13044e-09)
(4.46316e-09 -1.17954e-08 6.72947e-09)
(6.04088e-09 -1.61277e-08 9.41689e-09)
(7.5905e-09 -2.0498e-08 1.23298e-08)
(9.16005e-09 -2.50159e-08 1.55903e-08)
(1.07934e-08 -2.97564e-08 1.93069e-08)
(1.25299e-08 -3.47597e-08 2.35704e-08)
(1.43998e-08 -4.00288e-08 2.84419e-08)
(1.64128e-08 -4.55231e-08 3.39297e-08)
(1.85365e-08 -5.1151e-08 3.995e-08)
(2.06546e-08 -5.67508e-08 4.62679e-08)
(2.24885e-08 -6.20402e-08 5.24119e-08)
(2.3508e-08 -6.65057e-08 5.76337e-08)
(2.2945e-08 -6.92351e-08 6.10353e-08)
(2.06636e-08 -6.92905e-08 6.22498e-08)
(1.12637e-09 -2.89148e-09 1.64373e-09)
(3.14062e-09 -8.1051e-09 4.64029e-09)
(4.99074e-09 -1.30107e-08 7.55219e-09)
(6.73979e-09 -1.78191e-08 1.05518e-08)
(8.44348e-09 -2.27002e-08 1.37884e-08)
(1.01521e-08 -2.77879e-08 1.73944e-08)
(1.1912e-08 -3.31845e-08 2.14869e-08)
(1.37652e-08 -3.8962e-08 2.61642e-08)
(1.57477e-08 -4.5163e-08 3.14943e-08)
(1.78821e-08 -5.18002e-08 3.74921e-08)
(2.01672e-08 -5.88533e-08 4.40833e-08)
(2.25521e-08 -6.62531e-08 5.10307e-08)
(2.49083e-08 -7.38364e-08 5.78593e-08)
(2.69905e-08 -8.11991e-08 6.37533e-08)
(2.84299e-08 -8.73416e-08 6.76352e-08)
(2.88972e-08 -9.03022e-08 6.89297e-08)
(1.22305e-09 -3.05597e-09 1.7903e-09)
(3.40748e-09 -8.57164e-09 5.05124e-09)
(5.40579e-09 -1.37758e-08 8.21096e-09)
(7.28169e-09 -1.88996e-08 1.1451e-08)
(9.09094e-09 -2.41318e-08 1.49275e-08)
(1.08836e-08 -2.96265e-08 1.87774e-08)
(1.27056e-08 -3.55079e-08 2.31205e-08)
(1.45993e-08 -4.18739e-08 2.80558e-08)
(1.66031e-08 -4.87992e-08 3.36507e-08)
(1.87492e-08 -5.63368e-08 3.992e-08)
(2.10587e-08 -6.45209e-08 4.6786e-08)
(2.3536e-08 -7.33679e-08 5.40148e-08)
(2.61658e-08 -8.28713e-08 6.1114e-08)
(2.89283e-08 -9.29723e-08 6.71973e-08)
(3.18173e-08 -1.03388e-07 7.0937e-08)
(3.45242e-08 -1.12428e-07 7.13321e-08)
(1.05623e-10 -2.84053e-10 1.23021e-10)
(2.95103e-10 -7.94475e-10 3.47757e-10)
(4.7095e-10 -1.26974e-09 5.67688e-10)
(6.40152e-10 -1.72733e-09 7.9633e-10)
(8.08724e-10 -2.17952e-09 1.04576e-09)
(9.8194e-10 -2.6332e-09 1.32609e-09)
(1.16439e-09 -3.0891e-09 1.64565e-09)
(1.36014e-09 -3.54071e-09 2.00995e-09)
(1.57292e-09 -3.97282e-09 2.41992e-09)
(1.8062e-09 -4.35926e-09 2.86835e-09)
(2.06484e-09 -4.66083e-09 3.33474e-09)
(2.36035e-09 -4.82172e-09 3.779e-09)
(2.72487e-09 -4.75848e-09 4.13662e-09)
(3.24381e-09 -4.31915e-09 4.33012e-09)
(4.08893e-09 -3.18457e-09 4.32274e-09)
(5.23027e-09 -1.06589e-09 4.17826e-09)
(3.13796e-10 -8.43247e-10 3.65641e-10)
(8.76672e-10 -2.35873e-09 1.03369e-09)
(1.39874e-09 -3.77061e-09 1.68671e-09)
(1.90035e-09 -5.13099e-09 2.3656e-09)
(2.39928e-09 -6.47727e-09 3.10526e-09)
(2.91062e-09 -7.83069e-09 3.9358e-09)
(3.44762e-09 -9.19514e-09 4.88172e-09)
(4.02145e-09 -1.0554e-08 5.95939e-09)
(4.64043e-09 -1.18656e-08 7.17119e-09)
(5.30899e-09 -1.30589e-08 8.49551e-09)
(6.02691e-09 -1.40299e-08 9.87099e-09)
(6.79143e-09 -1.46448e-08 1.11758e-08)
(7.60262e-09 -1.47525e-08 1.22051e-08)
(8.46957e-09 -1.42081e-08 1.26835e-08)
(9.36736e-09 -1.29315e-08 1.23676e-08)
(1.00486e-08 -1.12636e-08 1.14697e-08)
(5.13488e-10 -1.37723e-09 5.98963e-10)
(1.43432e-09 -3.85342e-09 1.69299e-09)
(2.28746e-09 -6.16312e-09 2.76181e-09)
(3.10561e-09 -8.39342e-09 3.87168e-09)
(3.91683e-09 -1.06075e-08 5.07949e-09)
(4.74562e-09 -1.28446e-08 6.43429e-09)
(5.61271e-09 -1.51169e-08 7.97649e-09)
(6.53442e-09 -1.7406e-08 9.73367e-09)
(7.52005e-09 -1.96575e-08 1.1712e-08)
(8.56644e-09 -2.17749e-08 1.38811e-08)
(9.64983e-09 -2.36202e-08 1.61514e-08)
(1.07135e-08 -2.50312e-08 1.83438e-08)
(1.1658e-08 -2.58773e-08 2.01757e-08)
(1.23389e-08 -2.61792e-08 2.12884e-08)
(1.2628e-08 -2.62738e-08 2.14537e-08)
(1.26088e-08 -2.67057e-08 2.10503e-08)
(6.99575e-10 -1.86918e-09 8.17327e-10)
(1.95352e-09 -5.23182e-09 2.3095e-09)
(3.11342e-09 -8.37384e-09 3.76593e-09)
(4.22237e-09 -1.14168e-08 5.2758e-09)
(5.31788e-09 -1.44519e-08 6.91597e-09)
(6.43214e-09 -1.75392e-08 8.75289e-09)
(7.59229e-09 -2.07063e-08 1.08419e-08)
(8.81868e-09 -2.39442e-08 1.32222e-08)
(1.01198e-08 -2.72014e-08 1.59061e-08)
(1.14825e-08 -3.03777e-08 1.88612e-08)
(1.28534e-08 -3.33233e-08 2.19833e-08)
(1.41111e-08 -3.58553e-08 2.50662e-08)
(1.50308e-08 -3.78137e-08 2.77866e-08)
(1.5278e-08 -3.91852e-08 2.97592e-08)
(1.45625e-08 -4.02594e-08 3.07539e-08)
(1.32807e-08 -4.14134e-08 3.10522e-08)
(8.6769e-10 -2.30248e-09 1.01569e-09)
(2.42188e-09 -6.44745e-09 2.86923e-09)
(3.85624e-09 -1.03286e-08 4.67562e-09)
(5.22257e-09 -1.41012e-08 6.54414e-09)
(6.56553e-09 -1.78845e-08 8.56872e-09)
(7.92405e-09 -2.17631e-08 1.08309e-08)
(9.33074e-09 -2.57861e-08 1.33993e-08)
(1.08099e-08 -2.9964e-08 1.63237e-08)
(1.2372e-08 -3.42637e-08 1.96244e-08)
(1.40001e-08 -3.86008e-08 2.32715e-08)
(1.56274e-08 -4.28323e-08 2.71564e-08)
(1.70991e-08 -4.67525e-08 3.10605e-08)
(1.81176e-08 -5.00969e-08 3.46388e-08)
(1.82121e-08 -5.25696e-08 3.74822e-08)
(1.69056e-08 -5.39417e-08 3.93228e-08)
(1.46409e-08 -5.43198e-08 4.02865e-08)
(1.01447e-09 -2.66108e-09 1.19024e-09)
(2.82987e-09 -7.45528e-09 3.36084e-09)
(4.50063e-09 -1.19548e-08 5.47214e-09)
(6.08465e-09 -1.63463e-08 7.64961e-09)
(7.63229e-09 -2.07763e-08 1.0001e-08)
(9.18715e-09 -2.53549e-08 1.26196e-08)
(1.07864e-08 -3.01562e-08 1.55844e-08)
(1.24594e-08 -3.52175e-08 1.89541e-08)
(1.4222e-08 -4.05356e-08 2.27554e-08)
(1.60666e-08 -4.60596e-08 2.69627e-08)
(1.79417e-08 -5.16791e-08 3.14674e-08)
(1.97189e-08 -5.71993e-08 3.60379e-08)
(2.11471e-08 -6.22877e-08 4.03101e-08)
(2.18085e-08 -6.63626e-08 4.38257e-08)
(2.11972e-08 -6.84843e-08 4.62484e-08)
(1.94044e-08 -6.79285e-08 4.76141e-08)
(1.13759e-09 -2.93008e-09 1.33807e-09)
(3.17113e-09 -8.21335e-09 3.77639e-09)
(5.03638e-09 -1.31845e-08 6.14237e-09)
(6.79507e-09 -1.80568e-08 8.5735e-09)
(8.50041e-09 -2.30011e-08 1.11873e-08)
(1.0199e-08 -2.81513e-08 1.40851e-08)
(1.19313e-08 -3.36064e-08 1.73524e-08)
(1.37306e-08 -3.94322e-08 2.10529e-08)
(1.56212e-08 -4.56594e-08 2.52173e-08)
(1.76116e-08 -5.228e-08 2.9822e-08)
(1.96842e-08 -5.92383e-08 3.47526e-08)
(2.1785e-08 -6.64125e-08 3.97709e-08)
(2.38077e-08 -7.356e-08 4.44677e-08)
(2.56076e-08 -8.01934e-08 4.82982e-08)
(2.70429e-08 -8.53305e-08 5.07865e-08)
(2.79667e-08 -8.73966e-08 5.19505e-08)
(1.23598e-09 -3.09649e-09 1.45768e-09)
(3.44282e-09 -8.68525e-09 4.11161e-09)
(5.45943e-09 -1.3958e-08 6.67952e-09)
(7.34835e-09 -1.91482e-08 9.30648e-09)
(9.16358e-09 -2.44455e-08 1.21154e-08)
(1.0952e-08 -3.00027e-08 1.52114e-08)
(1.27546e-08 -3.59398e-08 1.86821e-08)
(1.46068e-08 -4.23456e-08 2.25919e-08)
(1.65377e-08 -4.92788e-08 2.69704e-08)
(1.85678e-08 -5.67653e-08 3.1791e-08)
(2.07074e-08 -6.47959e-08 3.69367e-08)
(2.29558e-08 -7.33203e-08 4.21514e-08)
(2.5316e-08 -8.22406e-08 4.6989e-08)
(2.78444e-08 -9.14064e-08 5.07957e-08)
(3.07123e-08 -1.00552e-07 5.28458e-08)
(3.37739e-08 -1.08449e-07 5.29766e-08)
(1.06071e-10 -2.86946e-10 9.07559e-11)
(2.96256e-10 -8.02628e-10 2.56567e-10)
(4.72361e-10 -1.28298e-09 4.18416e-10)
(6.40975e-10 -1.74561e-09 5.86522e-10)
(8.08081e-10 -2.20362e-09 7.69225e-10)
(9.7773e-10 -2.66374e-09 9.73605e-10)
(1.15351e-09 -3.1274e-09 1.2051e-09)
(1.33788e-09 -3.58911e-09 1.46679e-09)
(1.53204e-09 -4.03515e-09 1.75787e-09)
(1.73609e-09 -4.44181e-09 2.0714e-09)
(1.95062e-09 -4.77319e-09 2.39116e-09)
(2.18246e-09 -4.97719e-09 2.68913e-09)
(2.46089e-09 -4.97236e-09 2.92789e-09)
(2.87237e-09 -4.60268e-09 3.07795e-09)
(3.59878e-09 -3.53995e-09 3.16309e-09)
(4.64473e-09 -1.4792e-09 3.24641e-09)
(3.15223e-10 -8.51851e-10 2.69823e-10)
(8.80293e-10 -2.38296e-09 7.62454e-10)
(1.40316e-09 -3.80972e-09 1.24351e-09)
(1.90393e-09 -5.18577e-09 1.74246e-09)
(2.39803e-09 -6.54822e-09 2.28426e-09)
(2.89913e-09 -7.92004e-09 2.88982e-09)
(3.41717e-09 -9.3064e-09 3.57519e-09)
(3.95866e-09 -1.0693e-08 4.34943e-09)
(4.52529e-09 -1.2042e-08 5.2102e-09)
(5.11267e-09 -1.32876e-08 6.13675e-09)
(5.71068e-09 -1.43325e-08 7.08062e-09)
(6.30967e-09 -1.50471e-08 7.95594e-09)
(6.91761e-09 -1.52703e-08 8.63955e-09)
(7.58467e-09 -1.48112e-08 8.99076e-09)
(8.39098e-09 -1.34916e-08 8.92439e-09)
(9.18453e-09 -1.16041e-08 8.56257e-09)
(5.15995e-10 -1.39125e-09 4.42013e-10)
(1.44074e-09 -3.89284e-09 1.24887e-09)
(2.29596e-09 -6.22705e-09 2.03629e-09)
(3.11241e-09 -8.48158e-09 2.85205e-09)
(3.91703e-09 -1.07217e-08 3.73692e-09)
(4.73052e-09 -1.29871e-08 4.72492e-09)
(5.56917e-09 -1.52919e-08 5.84264e-09)
(6.44258e-09 -1.76204e-08 7.10568e-09)
(7.35071e-09 -1.99217e-08 8.51198e-09)
(8.279e-09 -2.21044e-08 1.00314e-08)
(9.19288e-09 -2.40351e-08 1.15918e-08)
(1.00351e-08 -2.55492e-08 1.30693e-08)
(1.07314e-08 -2.64887e-08 1.42875e-08)
(1.12268e-08 -2.67983e-08 1.50672e-08)
(1.15545e-08 -2.66856e-08 1.53438e-08)
(1.18558e-08 -2.6703e-08 1.53351e-08)
(7.03296e-10 -1.88813e-09 6.0311e-10)
(1.96319e-09 -5.28504e-09 1.70393e-09)
(3.12626e-09 -8.45954e-09 2.77693e-09)
(4.23451e-09 -1.15352e-08 3.88693e-09)
(5.32206e-09 -1.46034e-08 5.08874e-09)
(6.41813e-09 -1.77262e-08 6.42868e-09)
(7.54423e-09 -2.09319e-08 7.9433e-09)
(8.71288e-09 -2.42129e-08 9.65517e-09)
(9.92244e-09 -2.75191e-08 1.15646e-08)
(1.11482e-08 -3.07512e-08 1.3637e-08)
(1.2329e-08 -3.37574e-08 1.57876e-08)
(1.33509e-08 -3.63428e-08 1.78697e-08)
(1.40371e-08 -3.83116e-08 1.96833e-08)
(1.41723e-08 -3.9571e-08 2.10355e-08)
(1.36556e-08 -4.03121e-08 2.18652e-08)
(1.28784e-08 -4.09919e-08 2.23122e-08)
(8.72684e-10 -2.32561e-09 7.4965e-10)
(2.4351e-09 -6.51243e-09 2.11715e-09)
(3.87463e-09 -1.04331e-08 3.44824e-09)
(5.24084e-09 -1.42442e-08 4.8221e-09)
(6.57672e-09 -1.80666e-08 6.30596e-09)
(7.91667e-09 -2.19849e-08 7.9567e-09)
(9.28783e-09 -2.60482e-08 9.81973e-09)
(1.07067e-08 -3.02658e-08 1.19243e-08)
(1.21738e-08 -3.46019e-08 1.42744e-08)
(1.36627e-08 -3.89666e-08 1.68344e-08)
(1.51026e-08 -4.32056e-08 1.95131e-08)
(1.63545e-08 -4.70916e-08 2.21503e-08)
(1.71805e-08 -5.03193e-08 2.45291e-08)
(1.72479e-08 -5.25339e-08 2.64416e-08)
(1.62703e-08 -5.34653e-08 2.7808e-08)
(1.46362e-08 -5.33636e-08 2.86721e-08)
(1.02087e-09 -2.68761e-09 8.7858e-10)
(2.84684e-09 -7.5296e-09 2.48028e-09)
(4.52466e-09 -1.20739e-08 4.0363e-09)
(6.111e-09 -1.65089e-08 5.63769e-09)
(7.65297e-09 -2.09814e-08 7.36153e-09)
(9.19105e-09 -2.56015e-08 9.27315e-09)
(1.0757e-08 -3.04413e-08 1.14249e-08)
(1.23727e-08 -3.55342e-08 1.38516e-08)
(1.40459e-08 -4.08692e-08 1.65602e-08)
(1.57609e-08 -4.63823e-08 1.95154e-08)
(1.74659e-08 -5.19416e-08 2.262e-08)
(1.90533e-08 -5.73208e-08 2.57014e-08)
(2.03357e-08 -6.21447e-08 2.85165e-08)
(2.10316e-08 -6.57958e-08 3.08217e-08)
(2.08158e-08 -6.73639e-08 3.25012e-08)
(1.96984e-08 -6.63469e-08 3.35752e-08)
(1.14531e-09 -2.959e-09 9.87895e-10)
(3.19194e-09 -8.29435e-09 2.78738e-09)
(5.06681e-09 -1.33141e-08 4.53143e-09)
(6.82975e-09 -1.82328e-08 6.3198e-09)
(8.53252e-09 -2.32218e-08 8.23671e-09)
(1.02179e-08 -2.84136e-08 1.03532e-08)
(1.19217e-08 -3.39039e-08 1.27261e-08)
(1.36712e-08 -3.97515e-08 1.53932e-08)
(1.54835e-08 -4.5975e-08 1.83631e-08)
(1.73611e-08 -5.25465e-08 2.15986e-08)
(1.92894e-08 -5.93809e-08 2.49977e-08)
(2.12327e-08 -6.63139e-08 2.83668e-08)
(2.31466e-08 -7.3058e-08 3.14251e-08)
(2.50081e-08 -7.91059e-08 3.38552e-08)
(2.68315e-08 -8.35563e-08 3.54524e-08)
(2.8381e-08 -8.51419e-08 3.63097e-08)
(1.24506e-09 -3.12681e-09 1.07634e-09)