/*--------------------------------*- C++ -*----------------------------------*\
| =========                 |                                                 |
| \\      /  F ield         | OpenFOAM: The Open Source CFD Toolbox           |
|  \\    /   O peration     | Version:  v1912                                 |
|   \\  /    A nd           | Website:  www.openfoam.com                      |
|    \\/     M anipulation  |                                                 |
\*---------------------------------------------------------------------------*/
FoamFile
{
    version     2.0;
    format      ascii;
    class       volScalarField;
    location    "0.99/fluid";
    object      p;
}
// * * * * * * * * * * * * * * * * * * * * * * * * * * * * * * * * * * * * * //

dimensions      [0 2 -2 0 0 0 0];


internalField   nonuniform List<scalar> 
14592
(
0.0485945
0.0429652
0.0410498
0.039436
0.0385202
0.0378377
0.0373414
0.0369415
0.0365825
0.0363065
0.0359808
0.0358492
0.0354271
0.0356721
0.0349195
0.0366346
0.0444437
0.0426914
0.041008
0.0396312
0.0387036
0.0379923
0.0374587
0.037035
0.0366637
0.0363885
0.0360714
0.0359688
0.0355789
0.0359488
0.0351316
0.0377638
0.0424457
0.041834
0.0405974
0.039586
0.0387383
0.0380553
0.0375105
0.0370768
0.0367016
0.0364354
0.0361429
0.0360979
0.0357723
0.036342
0.0356045
0.0390958
0.0412669
0.0411277
0.0402696
0.0395131
0.0387631
0.0381146
0.0375577
0.0371019
0.0367063
0.0364329
0.03615
0.0361513
0.0358926
0.0366468
0.03603
0.0400798
0.0405661
0.0405522
0.0399301
0.0393412
0.0386809
0.0380725
0.037514
0.0370383
0.0366132
0.0363096
0.0359975
0.0359864
0.0357134
0.0365447
0.0359605
0.0404106
0.0401155
0.0401376
0.0396642
0.0391759
0.0385783
0.0379964
0.0374334
0.0369356
0.0364791
0.0361438
0.035806
0.0357975
0.0355526
0.0365473
0.036147
0.0411944
0.0398201
0.0398467
0.0394503
0.0390137
0.0384491
0.0378751
0.0372956
0.0367605
0.0362467
0.0358307
0.0353812
0.0352165
0.0347352
0.0354447
0.0344963
0.039662
0.0396424
0.0396692
0.0393048
0.0388872
0.0383308
0.0377495
0.0371474
0.0365753
0.0360133
0.0355366
0.0350243
0.0348009
0.0343013
0.0351871
0.0345125
0.0421459
0.0485189
0.0428916
0.041014
0.0394422
0.0385803
0.0379576
0.0375283
0.0372031
0.0369298
0.0367486
0.0365367
0.0365011
0.036218
0.0363798
0.0357585
0.0363081
0.0443682
0.0426161
0.0409715
0.0396372
0.0387641
0.0381129
0.0376469
0.0372983
0.0370133
0.0368333
0.0366289
0.0366171
0.036351
0.0365862
0.0358759
0.036803
0.0423659
0.0417526
0.0405533
0.0395842
0.0387911
0.038169
0.0376929
0.0373353
0.0370468
0.0368765
0.0366955
0.0367388
0.0365269
0.0369188
0.0362334
0.0376424
0.0411843
0.0410431
0.0402208
0.0395054
0.038809
0.0382205
0.0377317
0.0373517
0.0370424
0.0368651
0.0366925
0.0367824
0.0366292
0.0371848
0.0365798
0.0383272
0.0404804
0.0404641
0.0398764
0.0393271
0.0387189
0.0381687
0.0376763
0.0372739
0.0369315
0.0367206
0.0365119
0.0365842
0.0363983
0.0370138
0.0363816
0.0384084
0.0400268
0.0400465
0.0396066
0.0391564
0.0386093
0.0380832
0.0375835
0.037156
0.0367783
0.0365326
0.0362928
0.0363685
0.0362011
0.036991
0.0365034
0.0390679
0.0397279
0.0397521
0.0393884
0.0389884
0.0384723
0.0379512
0.0374309
0.0369608
0.0365178
0.0361811
0.0358119
0.0357137
0.0352626
0.0357484
0.0345642
0.0372342
0.0395463
0.0395707
0.0392384
0.0388562
0.0383466
0.0378154
0.0372688
0.0367571
0.0362595
0.035856
0.0354152
0.0352601
0.0347818
0.0355035
0.0345492
0.0397438
0.0484767
0.0428511
0.0410024
0.0394645
0.0386487
0.0380795
0.0377144
0.0374651
0.0372879
0.0372253
0.0371825
0.0373496
0.0374192
0.0379109
0.0380696
0.0387361
0.0443261
0.0425744
0.0409595
0.0396597
0.0388332
0.0382362
0.037835
0.0375633
0.0373757
0.0373161
0.0372834
0.0374764
0.037567
0.0381268
0.0382492
0.0391926
0.0423195
0.0417052
0.0405342
0.0395991
0.0388527
0.0382858
0.0378752
0.0375955
0.0374051
0.0373567
0.0373482
0.0376003
0.0377523
0.0384775
0.038671
0.0400392
0.0411349
0.0409922
0.0401968
0.0395141
0.0388635
0.0383296
0.0379058
0.0376035
0.0373919
0.0373374
0.0373381
0.0376421
0.0378585
0.0387614
0.0390646
0.0407481
0.0404272
0.0404092
0.0398472
0.0393293
0.0387652
0.0382678
0.0378385
0.0375116
0.0372637
0.0371726
0.0371315
0.037416
0.03759
0.0385568
0.0388168
0.0407682
0.0399703
0.0399883
0.0395731
0.039153
0.0386481
0.0381726
0.0377333
0.0373782
0.0370906
0.0369609
0.0368817
0.0371678
0.0373468
0.038497
0.0388678
0.0413597
0.0396676
0.0396901
0.0393502
0.0389791
0.0385032
0.0380297
0.0375658
0.0371625
0.0368011
0.036569
0.0363394
0.0364275
0.0362623
0.0370629
0.036555
0.0391185
0.0394821
0.0395048
0.0391956
0.0388412
0.03837
0.0378835
0.0373893
0.0369391
0.0365152
0.0362063
0.0358878
0.0359026
0.0356657
0.0366899
0.0362718
0.0413741
0.048456
0.0428316
0.0410044
0.0394926
0.0387125
0.0381846
0.0378678
0.0376723
0.0375576
0.037559
0.0375943
0.0378136
0.0379699
0.0384203
0.0386448
0.0390884
0.0443054
0.042554
0.0409613
0.039688
0.0388978
0.0383425
0.0379899
0.0377724
0.0376479
0.0376526
0.0376975
0.0379399
0.0381105
0.0386061
0.0387925
0.0394161
0.0422949
0.0416798
0.0405299
0.0396207
0.0389109
0.0383862
0.0380248
0.0377999
0.0376724
0.037688
0.0377547
0.0380512
0.0382732
0.0389085
0.0391336
0.0400895
0.0411073
0.0409634
0.0401879
0.0395302
0.0389152
0.038423
0.0380479
0.0378
0.0376505
0.0376595
0.0377329
0.0380788
0.0383557
0.0391526
0.0394623
0.0406846
0.0403959
0.0403767
0.0398333
0.0393392
0.0388092
0.0383522
0.03797
0.0376957
0.0375072
0.0374769
0.0375028
0.0378245
0.0380446
0.0388927
0.0391214
0.0405837
0.0399356
0.0399524
0.0395551
0.0391576
0.0386852
0.0382484
0.037854
0.0375492
0.0373179
0.0372463
0.037229
0.0375507
0.0377644
0.038795
0.0391015
0.0410912
0.0396294
0.0396506
0.0393278
0.0389782
0.0385331
0.038096
0.0376741
0.0373174
0.0370068
0.0368269
0.0366484
0.036764
0.0366087
0.0372828
0.036645
0.0386963
0.0394401
0.0394616
0.0391691
0.0388353
0.0383932
0.0379411
0.0374861
0.0370791
0.0367012
0.03644
0.0361654
0.0362065
0.035967
0.0368787
0.036291
0.0408672
0.048449
0.0428256
0.0410149
0.0395238
0.0387726
0.0382791
0.038004
0.0378568
0.0378015
0.0378691
0.0379919
0.0382936
0.0385808
0.0390998
0.0394968
0.0398848
0.0442984
0.0425474
0.0409717
0.0397196
0.0389588
0.0384383
0.0381279
0.0379594
0.0378952
0.0379672
0.0381014
0.0384272
0.0387308
0.0392867
0.039653
0.040184
0.0422847
0.0416691
0.0405353
0.0396469
0.0389665
0.0384771
0.0381585
0.0379831
0.037916
0.037999
0.0381534
0.0385311
0.0388805
0.039565
0.0399592
0.0407794
0.0410943
0.0409497
0.0401893
0.0395515
0.0389653
0.038508
0.0381751
0.0379765
0.0378869
0.0379631
0.0381226
0.0385487
0.0389483
0.039788
0.040256
0.0413233
0.0403797
0.0403596
0.0398304
0.039355
0.0388527
0.0384294
0.038088
0.0378615
0.0377306
0.0377652
0.0378727
0.0382712
0.0386038
0.039488
0.0398513
0.0411465
0.0399164
0.0399323
0.0395484
0.0391687
0.0387226
0.0383179
0.0379624
0.0377033
0.0375266
0.0375171
0.0375763
0.037972
0.038287
0.0393501
0.0397639
0.0415794
0.0396069
0.0396272
0.0393173
0.0389844
0.0385641
0.0381573
0.0377716
0.0374573
0.0371963
0.0370727
0.0369607
0.0371411
0.0370637
0.0377571
0.0371685
0.0390269
0.0394144
0.0394351
0.0391548
0.038837
0.0384183
0.0379945
0.0375731
0.0372051
0.0368719
0.0366616
0.0364441
0.0365424
0.0363607
0.0372838
0.0366928
0.0410533
0.0484486
0.042826
0.0410268
0.0395504
0.0388195
0.0383498
0.0381029
0.0379865
0.0379665
0.0380679
0.0382302
0.038554
0.0388758
0.039375
0.0397881
0.040125
0.0442981
0.0425473
0.0409836
0.0397465
0.0390064
0.03851
0.038228
0.0380906
0.038062
0.0381682
0.0383421
0.0386892
0.0390262
0.0395556
0.0399345
0.0403915
0.0422818
0.0416659
0.0405433
0.0396696
0.03901
0.0385451
0.0382552
0.0381112
0.0380795
0.0381961
0.0383881
0.0387836
0.0391591
0.0398043
0.0401962
0.0409142
0.0410892
0.0409441
0.0401942
0.0395705
0.0390045
0.0385713
0.0382669
0.0380994
0.0380446
0.0381538
0.038349
0.0387906
0.0392099
0.0400018
0.0404535
0.041406
0.040372
0.0403512
0.0398319
0.0393697
0.0388868
0.0384867
0.0381727
0.0379763
0.0378786
0.0379446
0.0380844
0.0384954
0.0388394
0.0396685
0.0399965
0.0411693
0.0399062
0.0399215
0.0395469
0.0391797
0.0387519
0.0383693
0.0380399
0.0378096
0.0376641
0.0376845
0.0377726
0.038179
0.0384982
0.0395029
0.039863
0.0415523
0.0395942
0.0396139
0.0393127
0.0389916
0.0385886
0.0382026
0.0378412
0.0375536
0.037321
0.0372244
0.0371364
0.0373243
0.0372408
0.0378721
0.0372033
0.0389251
0.0393991
0.0394192
0.0391474
0.0388407
0.0384383
0.038034
0.0376353
0.0372919
0.0369845
0.0367986
0.0366012
0.0367055
0.0365105
0.037372
0.0366807
0.0408914
0.048451
0.0428289
0.0410374
0.0395709
0.0388538
0.0384007
0.0381738
0.0380801
0.038087
0.0382161
0.0384126
0.0387631
0.0391235
0.0396315
0.0400766
0.0403914
0.0443005
0.04255
0.0409943
0.0397673
0.0390413
0.0385617
0.0383
0.0381856
0.0381843
0.0383189
0.0385279
0.0389024
0.039279
0.0398157
0.0402266
0.040649
0.0422825
0.0416664
0.0405514
0.0396876
0.0390422
0.0385943
0.038325
0.0382042
0.0381999
0.0383447
0.0385707
0.0389918
0.0394027
0.0400482
0.0404646
0.0411332
0.0410884
0.040943
0.0402001
0.0395858
0.0390337
0.0386174
0.0383332
0.0381888
0.038161
0.0382981
0.0385262
0.0389922
0.0394434
0.0402312
0.0406996
0.0415965
0.0403693
0.0403482
0.0398353
0.0393821
0.0389124
0.0385285
0.0382341
0.0380601
0.0379883
0.0380811
0.0382515
0.0386848
0.0390555
0.0398762
0.0402094
0.0413225
0.0399018
0.0399167
0.0395483
0.0391894
0.0387742
0.038407
0.0380963
0.0378872
0.0377663
0.037812
0.0379282
0.0383552
0.0386956
0.0396889
0.0400417
0.0416691
0.0395879
0.0396073
0.039312
0.0389987
0.0386075
0.0382359
0.0378919
0.0376241
0.0374138
0.0373404
0.0372767
0.0374823
0.0374123
0.0380278
0.0373329
0.0389843
0.0393911
0.0394108
0.0391446
0.0388453
0.0384539
0.0380632
0.0376806
0.0373555
0.0370682
0.0369032
0.0367263
0.0368454
0.0366569
0.0374992
0.0367649
0.0408963
0.0484526
0.0428313
0.0410428
0.0395814
0.0388707
0.0384252
0.0382072
0.0381229
0.0381402
0.0382786
0.0384853
0.0388398
0.0392069
0.0397077
0.0401552
0.0404614
0.0443025
0.0425518
0.0409999
0.0397779
0.0390585
0.0385865
0.0383337
0.0382286
0.0382377
0.0383813
0.0386001
0.0389779
0.0393604
0.0398881
0.0403012
0.0407102
0.0422834
0.0416672
0.0405559
0.0396967
0.0390579
0.0386178
0.0383574
0.038246
0.0382517
0.038405
0.0386395
0.0390619
0.0394756
0.0401077
0.0405225
0.0411718
0.0410886
0.0409429
0.0402035
0.0395936
0.039048
0.0386392
0.0383639
0.0382287
0.0382107
0.0383559
0.0385917
0.039058
0.0395096
0.0402811
0.0407438
0.0416187
0.0403685
0.0403472
0.0398375
0.0393884
0.0389249
0.0385483
0.0382624
0.0380974
0.0380348
0.0381354
0.0383125
0.0387454
0.0391142
0.0399164
0.0402385
0.0413277
0.0399002
0.0399148
0.0395494
0.0391944
0.0387851
0.0384249
0.0381222
0.0379217
0.0378095
0.0378625
0.0379847
0.0384105
0.0387469
0.03972
0.0400554
0.0416571
0.0395853
0.0396045
0.039312
0.0390024
0.0386167
0.0382517
0.0379153
0.0376554
0.0374533
0.0373865
0.0373278
0.0375321
0.0374563
0.0380511
0.0373327
0.0389551
0.0393876
0.0394071
0.0391436
0.0388478
0.0384616
0.0380771
0.0377015
0.0373838
0.0371039
0.0369449
0.0367721
0.0368894
0.0366929
0.0375127
0.036747
0.0408412
0.0578409
0.0470807
0.0434074
0.0403899
0.0386483
0.0373105
0.0362951
0.0353984
0.0345474
0.0336874
0.0327335
0.031699
0.0304463
0.0290889
0.0273747
0.0256221
0.053583
0.046342
0.0430516
0.0403176
0.0386273
0.0373122
0.0363034
0.0354102
0.0345642
0.0337141
0.0327707
0.0317498
0.0305114
0.0291724
0.0274722
0.0257296
0.0515665
0.0452874
0.0423977
0.0399967
0.0384337
0.0372017
0.0362325
0.0353621
0.034531
0.0336979
0.0327726
0.0317726
0.0305635
0.0292585
0.0275991
0.0258906
0.0503175
0.0444797
0.0419252
0.0397556
0.0383086
0.0371441
0.0362021
0.0353416
0.0345126
0.0336808
0.0327593
0.0317664
0.0305726
0.0292871
0.0276556
0.0259741
0.0495702
0.0438625
0.0415135
0.0394978
0.0381505
0.0370495
0.0361381
0.0352908
0.0344648
0.0336313
0.0327091
0.0317171
0.0305324
0.0292593
0.0276529
0.0259973
0.0490888
0.0434303
0.0412166
0.0392986
0.0380227
0.0369663
0.0360761
0.0352356
0.0344077
0.0335676
0.0326403
0.0316446
0.0304655
0.0292014
0.0276212
0.0259933
0.0487844
0.0431397
0.0409986
0.0391348
0.0379024
0.036873
0.0359954
0.0351567
0.034323
0.0334723
0.0325355
0.0315297
0.03035
0.0290869
0.0275324
0.0259326
0.0486144
0.0429743
0.0408654
0.0390246
0.0378103
0.0367901
0.0359144
0.0350712
0.0342287
0.0333666
0.0324215
0.0314075
0.0302319
0.0289749
0.0274546
0.0258894
0.053585
0.046342
0.0430495
0.0403121
0.0386168
0.037295
0.036277
0.0353777
0.0345212
0.0336528
0.0326876
0.0316446
0.0303754
0.0290135
0.0272748
0.0255393
0.0494051
0.0459707
0.0428869
0.040379
0.038694
0.0373635
0.036324
0.0354091
0.0345435
0.0336718
0.0327065
0.0316672
0.0304052
0.029058
0.0273353
0.0256125
0.0473879
0.0450128
0.0423139
0.0401335
0.0385522
0.0372858
0.0362702
0.0353685
0.0345109
0.033648
0.0326944
0.0316696
0.0304307
0.0291091
0.0274204
0.0257317
0.0461544
0.0442281
0.0418764
0.0399292
0.0384579
0.0372521
0.0362569
0.0353592
0.0344981
0.0336321
0.0326793
0.0316592
0.0304337
0.0291298
0.027467
0.0258025
0.0454134
0.0436077
0.0414719
0.0396809
0.0383083
0.0371646
0.036199
0.0353129
0.0344528
0.0335845
0.0326308
0.0316115
0.0303953
0.0291035
0.0274654
0.0258262
0.0449356
0.0431697
0.0411755
0.0394838
0.038183
0.037084
0.0361402
0.035261
0.0343989
0.033525
0.0325678
0.0315467
0.0303386
0.0290581
0.0274486
0.0258373
0.0446326
0.0428748
0.0409563
0.0393197
0.0380629
0.0369913
0.0360608
0.035184
0.0343171
0.0334342
0.0324693
0.0314399
0.0302337
0.0289558
0.0273752
0.0257914
0.0444634
0.0427077
0.040823
0.0392099
0.0379717
0.0369099
0.0359819
0.0351015
0.0342274
0.0333351
0.0323645
0.03133
0.0301321
0.0288638
0.0273225
0.0257736
0.0515953
0.0453155
0.0424332
0.0400401
0.0384866
0.0372641
0.0363041
0.0354519
0.0346276
0.0337858
0.032834
0.0318057
0.0305097
0.02913
0.0272433
0.0254236
0.0474161
0.0450423
0.0423546
0.040187
0.0386218
0.0373736
0.0363796
0.0355059
0.0346687
0.0338196
0.0328659
0.0318405
0.0305515
0.0291878
0.0273194
0.0255158
0.0453945
0.0441525
0.0418731
0.0400447
0.0385599
0.0373505
0.0363597
0.0354893
0.0346556
0.0338097
0.0328649
0.0318517
0.0305847
0.0292428
0.0273976
0.0256125
0.0441766
0.0434027
0.0414892
0.0399042
0.0385217
0.0373608
0.0363771
0.0355016
0.0346583
0.0338039
0.0328568
0.0318465
0.0305924
0.0292671
0.0274449
0.0256817
0.0434462
0.0427966
0.0411122
0.0396906
0.0384045
0.0372995
0.0363374
0.0354667
0.034619
0.0337574
0.0328062
0.0317936
0.0305468
0.029231
0.027432
0.025693
0.042976
0.0423638
0.0408277
0.0395092
0.0382949
0.037232
0.0362872
0.0354187
0.0345652
0.033695
0.0327383
0.031723
0.0304856
0.0291834
0.0274205
0.0257165
0.0426763
0.04207
0.0406126
0.0393511
0.0381809
0.0371437
0.0362089
0.0353386
0.0344768
0.0335939
0.0326259
0.0315979
0.0303603
0.0290583
0.0273337
0.025665
0.0425078
0.0419024
0.04048
0.0392429
0.0380911
0.0370626
0.0361278
0.0352505
0.0343792
0.0334849
0.0325096
0.0314751
0.0302488
0.0289602
0.0272934
0.025674
0.0503767
0.044539
0.0420067
0.0398634
0.0384503
0.0373227
0.0364197
0.035609
0.0348141
0.0340028
0.0330678
0.0320624
0.0307279
0.0293267
0.0272059
0.0252534
0.0462135
0.0442888
0.0419641
0.0400497
0.0386205
0.0374616
0.0365195
0.0356818
0.034869
0.034048
0.0331101
0.0321081
0.030782
0.0293998
0.0272947
0.0253607
0.0442068
0.0434327
0.0415356
0.0399717
0.0386169
0.0374865
0.0365368
0.0356934
0.0348769
0.0340549
0.033124
0.0321331
0.0308274
0.029462
0.0273601
0.025413
0.0430062
0.0427071
0.0411849
0.0398718
0.038617
0.0375289
0.0365779
0.0357221
0.0348907
0.0340566
0.0331219
0.0321333
0.0308402
0.0294899
0.0274013
0.0254652
0.0422884
0.0421154
0.0408278
0.0396825
0.0385231
0.0374863
0.0365504
0.0356934
0.034853
0.0340075
0.0330653
0.0320712
0.0307824
0.0294377
0.0273679
0.025452
0.0418266
0.0416906
0.0405532
0.0395125
0.038424
0.0374263
0.0365033
0.0356443
0.0347948
0.0339377
0.0329883
0.0319906
0.0307137
0.0293869
0.0273651
0.0254962
0.041531
0.0414
0.0403421
0.0393587
0.0383132
0.0373388
0.0364217
0.035557
0.034695
0.0338199
0.0328537
0.0318363
0.0305553
0.0292235
0.027256
0.0254363
0.0413633
0.0412328
0.0402098
0.0392504
0.0382224
0.0372548
0.0363347
0.0354602
0.0345858
0.0336957
0.0327198
0.0316939
0.0304293
0.0291184
0.0272415
0.0255015
0.049664
0.0439582
0.0416525
0.0396907
0.0384145
0.0373945
0.0365713
0.0358287
0.0350941
0.0343496
0.0334704
0.032539
0.0312037
0.0298357
0.0274179
0.0253056
0.0455073
0.0437041
0.0416172
0.0398875
0.0385959
0.0375447
0.0366822
0.0359113
0.0351586
0.0344057
0.0335254
0.0326011
0.0312784
0.029937
0.0275325
0.0254339
0.0435099
0.0428601
0.0412138
0.0398429
0.0386257
0.0375994
0.0367254
0.0359439
0.0351837
0.034429
0.0335569
0.0326457
0.0313435
0.0300149
0.0275811
0.025419
0.0423216
0.0421484
0.0408823
0.0397668
0.0386491
0.0376614
0.0367814
0.0359828
0.0352041
0.0344359
0.0335603
0.0326534
0.0313657
0.030054
0.0276199
0.0254532
0.041614
0.0415677
0.0405394
0.0395943
0.0385713
0.0376314
0.0367614
0.0359564
0.0351637
0.0343797
0.0334927
0.0325767
0.0312898
0.0299806
0.0275591
0.0254084
0.0411594
0.0411498
0.0402728
0.0394328
0.0384796
0.0375758
0.0367142
0.0359028
0.0350965
0.0342968
0.0333998
0.0324788
0.0312068
0.0299235
0.0275681
0.0254865
0.0408672
0.0408623
0.040065
0.0392819
0.0383702
0.0374866
0.0366265
0.0358038
0.0349783
0.0341519
0.033228
0.032274
0.0309872
0.0296859
0.0274037
0.0253923
0.0406994
0.0406948
0.0399322
0.0391723
0.0382767
0.0373973
0.0365304
0.0356936
0.0348503
0.0340021
0.0330627
0.0320939
0.0308264
0.0295541
0.0274096
0.0255358
0.0492077
0.0435526
0.0414074
0.0395753
0.0384147
0.0374909
0.0367463
0.0360759
0.0354089
0.0347407
0.0339257
0.0330778
0.0317311
0.0303868
0.0275301
0.0251907
0.0450546
0.0432913
0.0413716
0.0397739
0.0385988
0.037645
0.0368611
0.0361626
0.0354785
0.0348038
0.03399
0.0331538
0.0318242
0.0305146
0.0276479
0.0252698
0.0430623
0.0424489
0.0409758
0.0397412
0.0386422
0.0377137
0.0369171
0.0362055
0.0355134
0.034838
0.0340346
0.0332155
0.0319048
0.0306006
0.0276364
0.0250812
0.0418817
0.041744
0.0406524
0.0396746
0.0386751
0.0377835
0.0369784
0.0362468
0.0355346
0.0348457
0.0340401
0.0332288
0.031934
0.0306478
0.0276506
0.0250432
0.0411806
0.0411694
0.0403163
0.0395094
0.0386037
0.0377575
0.0369591
0.036217
0.0354865
0.0347777
0.0339567
0.0331323
0.0318325
0.0305441
0.0275437
0.024937
0.0407305
0.0407558
0.0400538
0.0393512
0.0385139
0.037701
0.036908
0.0361556
0.0354072
0.0346788
0.033845
0.0330155
0.0317354
0.0304869
0.0275785
0.0250741
0.0404399
0.0404698
0.0398471
0.0392004
0.0384027
0.0376068
0.0368115
0.0360425
0.035267
0.0345019
0.0336288
0.032749
0.0314381
0.0301521
0.0273439
0.0249436
0.0402711
0.0403012
0.0397126
0.0390881
0.0383049
0.0375103
0.036705
0.0359174
0.0351182
0.0343245
0.03343
0.0325309
0.0312483
0.0300154
0.0274297
0.0252955
0.0489117
0.0432724
0.0412321
0.039494
0.0384312
0.0375983
0.0369404
0.0363606
0.0357914
0.0352461
0.0345698
0.0339238
0.0327509
0.0317179
0.0287148
0.0264912
0.04476
0.0430052
0.0411938
0.039691
0.0386151
0.0377528
0.0370561
0.0364499
0.0358655
0.0353167
0.0346449
0.0340174
0.0328685
0.0318846
0.0288415
0.0265211
0.0427681
0.0421594
0.0407963
0.0396587
0.0386602
0.0378248
0.0371152
0.0364962
0.035905
0.0353582
0.0347011
0.0340999
0.0329757
0.0320152
0.0288326
0.0262662
0.0415908
0.0414565
0.0404745
0.0395938
0.0386943
0.0378949
0.0371752
0.0365349
0.0359231
0.0353643
0.0347084
0.034124
0.0330256
0.032106
0.0288757
0.0262327
0.0408924
0.0408841
0.0401404
0.0394299
0.038623
0.0378672
0.0371513
0.0364966
0.0358626
0.0352802
0.0346046
0.0340052
0.032898
0.0319833
0.0287397
0.0260931
0.0404441
0.0404721
0.0398789
0.0392717
0.0385315
0.0378065
0.0370927
0.0364233
0.0357668
0.0351604
0.0344682
0.0338639
0.032781
0.0319293
0.0288054
0.026312
0.0401533
0.0401858
0.0396714
0.0391187
0.038416
0.0377049
0.0369843
0.0362911
0.035598
0.034941
0.0341893
0.0335054
0.0323512
0.0314106
0.0283642
0.025993
0.0399823
0.0400151
0.039534
0.0390026
0.0383123
0.0375994
0.036865
0.0361468
0.035422
0.0347256
0.0339403
0.033223
0.0320898
0.0312156
0.0284563
0.0265623
0.0487181
0.0430855
0.0411183
0.0394501
0.038467
0.037712
0.0371336
0.0366381
0.0361598
0.0357223
0.035161
0.0346595
0.0335817
0.0326705
0.0292762
0.0266402
0.044567
0.0428144
0.041078
0.0396459
0.0386505
0.0378663
0.0372497
0.036729
0.0362368
0.0357975
0.0352419
0.0347616
0.033702
0.0328222
0.0292174
0.0260493
0.0425728
0.0419631
0.0406747
0.0396084
0.038692
0.0379354
0.0373063
0.0367742
0.0362763
0.0358417
0.0353035
0.0348557
0.0338154
0.0329504
0.02906
0.0252073
0.0413957
0.0412593
0.0403509
0.0395406
0.0387225
0.0380014
0.0373609
0.0368069
0.0362883
0.0358431
0.0353081
0.0348842
0.0338718
0.0330549
0.0290513
0.0249156
0.0406971
0.0406864
0.0400151
0.039374
0.038647
0.0379678
0.0373285
0.0367571
0.0362126
0.0357401
0.0351799
0.0347379
0.0337072
0.0328954
0.0288511
0.0246417
0.0402484
0.0402738
0.0397523
0.0392131
0.0385507
0.0379004
0.0372601
0.0366703
0.0360992
0.0355991
0.035019
0.0345751
0.0335744
0.0328577
0.0289785
0.0249534
0.039956
0.0399858
0.0395422
0.0390561
0.038429
0.0377898
0.0371382
0.0365183
0.0359013
0.0353378
0.0346783
0.034127
0.0330105
0.0321526
0.0283252
0.0243801
0.0397819
0.039812
0.0394011
0.0389352
0.0383185
0.0376748
0.0370055
0.0363552
0.0356997
0.0350889
0.034388
0.0338012
0.0327178
0.0319976
0.0286074
0.0254535
0.0395668
0.0395946
0.0392253
0.038796
0.0382197
0.0376107
0.0369697
0.036341
0.0356999
0.035098
0.0343989
0.0338084
0.0327068
0.0319588
0.0284908
0.0252237
0.0395943
0.039623
0.0392114
0.0387454
0.0381287
0.0374775
0.0367955
0.0361189
0.0354226
0.0347451
0.033967
0.0332483
0.0320944
0.0311896
0.0283495
0.0263707
0.0397419
0.0397662
0.0392633
0.0387243
0.0380428
0.0373374
0.0366049
0.0358746
0.0351165
0.03435
0.0334669
0.0325668
0.0312609
0.029993
0.027328
0.0251178
0.0400587
0.040048
0.0393825
0.0387222
0.0379465
0.0371791
0.0364084
0.035643
0.0348509
0.0340377
0.0331147
0.0321477
0.0308595
0.0295543
0.0273414
0.0254014
0.0406348
0.040498
0.0395799
0.0387309
0.0378387
0.0369971
0.0361922
0.0354039
0.0345886
0.0337402
0.032785
0.0317631
0.0304805
0.0291385
0.0272024
0.0254026
0.0417185
0.0411083
0.0397978
0.0386803
0.0376755
0.0367848
0.0359746
0.0351942
0.0343906
0.0335421
0.0325901
0.0315608
0.0303185
0.0290002
0.0272809
0.0256057
0.0436372
0.0418812
0.0401169
0.0386307
0.0375443
0.0366235
0.0358181
0.0350393
0.0342432
0.0334002
0.0324554
0.031427
0.0302146
0.0289179
0.0273288
0.0257266
0.0477886
0.0421583
0.0401748
0.0384638
0.0374021
0.036523
0.0357665
0.0350239
0.0342603
0.0334448
0.0325232
0.0315132
0.0303214
0.0290342
0.0274649
0.0258445
0.0394661
0.0394916
0.0391535
0.0387585
0.0382272
0.0376654
0.0370749
0.0364999
0.0359129
0.0353695
0.034718
0.0341673
0.0330255
0.0321318
0.0281746
0.0240565
0.0394889
0.0395154
0.0391346
0.0387021
0.0381284
0.0375218
0.0368866
0.0362585
0.0356096
0.0349824
0.0342435
0.0335614
0.0323783
0.0313963
0.0282195
0.025716
0.0396313
0.0396534
0.0391809
0.0386748
0.0380351
0.0373716
0.0366813
0.0359938
0.0352751
0.0345478
0.0336911
0.032812
0.0314689
0.0301355
0.027207
0.0246952
0.0399431
0.0399302
0.0392948
0.0386664
0.0379313
0.0372047
0.036473
0.0357459
0.034988
0.0342075
0.0333056
0.0323552
0.031041
0.0296963
0.0273152
0.0252103
0.0405147
0.0403761
0.0394876
0.0386701
0.0378168
0.0370134
0.036246
0.0354919
0.0347056
0.0338836
0.0329443
0.0319334
0.0306299
0.0292588
0.0272103
0.0253104
0.0415952
0.0409836
0.0397028
0.0386163
0.0376495
0.0367956
0.0360212
0.035273
0.034496
0.0336709
0.032733
0.0317132
0.030457
0.029119
0.0273261
0.025585
0.0435131
0.0417569
0.0400227
0.0385671
0.0375173
0.0366316
0.0358586
0.0351101
0.0343403
0.0335189
0.0325873
0.0315676
0.0303456
0.0290346
0.0273942
0.0257431
0.0476644
0.0420359
0.0400824
0.0384023
0.0373775
0.0365344
0.0358106
0.0350992
0.0343638
0.0335715
0.0326656
0.031667
0.0304698
0.0291715
0.0275558
0.025886
0.0393976
0.0394213
0.0391056
0.0387371
0.0382424
0.0377221
0.0371792
0.0366583
0.0361327
0.0356647
0.0350997
0.0346623
0.0336257
0.0328567
0.0287548
0.0244213
0.039416
0.0394409
0.039082
0.0386751
0.038136
0.0375682
0.0369764
0.0363964
0.0357997
0.0352345
0.0345615
0.0339632
0.03284
0.0319298
0.0285945
0.0258782
0.0395538
0.0395745
0.0391236
0.0386424
0.0380359
0.0374078
0.0367564
0.0361106
0.0354345
0.0347547
0.0339427
0.0331158
0.0317918
0.0304773
0.0273844
0.0247051
0.0398614
0.0398471
0.0392327
0.0386285
0.0379256
0.0372329
0.0365364
0.0358459
0.0351237
0.0343811
0.0335119
0.032597
0.0312893
0.0299487
0.0274505
0.0252327
0.0404295
0.0402896
0.0394219
0.0386277
0.0378049
0.0370335
0.0362988
0.035577
0.0348203
0.0340281
0.0331123
0.0321242
0.0308198
0.0294443
0.0273125
0.025335
0.0415075
0.0408949
0.0396349
0.0385713
0.0376341
0.0368103
0.0360672
0.0353489
0.034598
0.0337982
0.0328794
0.0318765
0.0306184
0.0292745
0.0274243
0.0256278
0.0434248
0.0416685
0.0399555
0.0385226
0.0375012
0.0366442
0.0358991
0.0351781
0.0344337
0.0336348
0.0327196
0.0317134
0.0304897
0.0291728
0.0274911
0.0257972
0.0475761
0.0419488
0.0400165
0.0383594
0.0373634
0.0365496
0.0358539
0.035171
0.0344626
0.033694
0.0328062
0.031823
0.0306266
0.0293239
0.0276703
0.0259563
0.0393518
0.0393744
0.0390745
0.0387257
0.0382588
0.0377704
0.0372634
0.0367811
0.0362951
0.0358668
0.0353328
0.0349114
0.0338422
0.0329694
0.0285813
0.02387
0.0393665
0.0393904
0.039047
0.038659
0.038146
0.0376082
0.0370495
0.0365045
0.0359425
0.0354117
0.0347637
0.0341799
0.0330267
0.0320423
0.0284887
0.0255051
0.0395006
0.0395202
0.0390846
0.0386219
0.0380403
0.0374397
0.0368186
0.0362037
0.0355571
0.0349056
0.0341119
0.0332946
0.0319414
0.03057
0.0273073
0.024446
0.0398047
0.0397895
0.03919
0.0386035
0.0379252
0.0372586
0.0365896
0.0359271
0.0352305
0.0345121
0.0336582
0.0327518
0.0314227
0.0300441
0.0274298
0.0250946
0.04037
0.0402293
0.0393763
0.0385994
0.0377997
0.0370534
0.0363442
0.0356472
0.0349128
0.0341411
0.0332381
0.0322572
0.0309375
0.0295362
0.0273256
0.0252712
0.0414461
0.0408329
0.0395875
0.0385409
0.037626
0.0368252
0.0361073
0.0354132
0.0346824
0.0339012
0.0329942
0.0319987
0.0307308
0.0293698
0.0274658
0.0256156
0.043363
0.0416067
0.0399087
0.0384926
0.0374928
0.0366582
0.0359352
0.0352365
0.0345124
0.033731
0.0328275
0.0318289
0.0305992
0.0292704
0.0275502
0.0258154
0.0475143
0.0418879
0.0399708
0.0383308
0.0373567
0.0365659
0.0358927
0.0352329
0.0345464
0.0337967
0.0329225
0.0319491
0.0307497
0.0294376
0.0277486
0.0259933
0.0393227
0.0393445
0.0390564
0.0387227
0.0382778
0.0378157
0.0373393
0.0368917
0.0364439
0.0360581
0.035567
0.0351868
0.0341374
0.0332475
0.0287093
0.023734
0.0393343
0.0393575
0.0390255
0.0386518
0.0381594
0.0376461
0.0371154
0.0366012
0.0360722
0.0355771
0.0349626
0.0344101
0.0332635
0.0322604
0.0285758
0.0254109
0.0394653
0.0394842
0.0390598
0.0386112
0.0380489
0.0374704
0.0368746
0.0362868
0.0356679
0.0350453
0.0342763
0.0334807
0.0321248
0.0307333
0.0273609
0.0243678
0.0397667
0.0397508
0.0391621
0.038589
0.0379295
0.0372838
0.0366377
0.0359992
0.0353263
0.0346317
0.0337969
0.0329066
0.0315732
0.0301783
0.0274848
0.0250603
0.0403298
0.0401885
0.039346
0.038582
0.0378
0.0370736
0.0363852
0.0357093
0.0349952
0.0342433
0.0333553
0.0323866
0.0310628
0.0296493
0.0273832
0.0252679
0.0414043
0.0407906
0.0395558
0.0385216
0.0376239
0.036841
0.0361437
0.03547
0.0347569
0.033993
0.0330991
0.0321138
0.0308433
0.0294733
0.0275302
0.0256362
0.0433208
0.0415645
0.0398773
0.0384737
0.0374903
0.0366731
0.0359681
0.0352878
0.0345814
0.033816
0.0329245
0.0319351
0.0307041
0.0293688
0.0276198
0.0258511
0.0474721
0.0418464
0.0399402
0.0383129
0.0373554
0.0365825
0.0359275
0.0352869
0.0346194
0.0338865
0.0330256
0.0320628
0.0308638
0.0295464
0.0278305
0.0260408
0.0393049
0.0393261
0.039046
0.0387228
0.0382933
0.0378494
0.0373937
0.0369684
0.0365431
0.0361783
0.035702
0.0353249
0.0342522
0.0333003
0.0286175
0.0234422
0.0393141
0.0393368
0.0390126
0.0386489
0.0381707
0.0376747
0.037163
0.036669
0.0361598
0.0356831
0.0350805
0.0345307
0.0333623
0.0323107
0.0285113
0.0252117
0.0394428
0.0394612
0.0390444
0.0386056
0.0380568
0.0374939
0.0369157
0.0363459
0.0357441
0.0351372
0.0343777
0.0335845
0.0322098
0.0307817
0.0273197
0.0242277
0.0397421
0.0397258
0.0391445
0.0385806
0.0379345
0.0373034
0.0366733
0.0360512
0.0353934
0.0347126
0.0338861
0.0329986
0.0316511
0.0302304
0.027473
0.0249807
0.0403036
0.0401619
0.0393266
0.0385716
0.037802
0.0370898
0.0364162
0.0357548
0.0350542
0.0343145
0.0334341
0.0324687
0.0311354
0.0297045
0.027394
0.0252317
0.041377
0.040763
0.0395354
0.0385099
0.0376241
0.0368541
0.0361715
0.0355122
0.0348112
0.0340588
0.0331722
0.0321909
0.0309145
0.0295328
0.0275582
0.0256299
0.0432932
0.0415369
0.0398571
0.0384622
0.0374903
0.0366856
0.0359936
0.0353266
0.0346327
0.0338782
0.0329942
0.0320095
0.0307751
0.0294316
0.0276594
0.0258639
0.0474445
0.0418194
0.0399206
0.0383022
0.0373564
0.0365964
0.0359545
0.0353279
0.0346739
0.0339529
0.0331007
0.0321439
0.030943
0.0296189
0.027881
0.0260642
0.0392951
0.039316
0.039041
0.0387249
0.0383058
0.0378744
0.0374334
0.0370245
0.0366168
0.0362699
0.0358096
0.0354434
0.0343678
0.0333899
0.0286268
0.0233182
0.0393027
0.0393251
0.0390059
0.0386488
0.0381803
0.037696
0.0371977
0.0367184
0.0362244
0.0357631
0.0351732
0.0346318
0.0334579
0.0323846
0.028519
0.0251318
0.0394298
0.0394479
0.039036
0.0386036
0.0380639
0.0375116
0.0369456
0.0363888
0.0358001
0.0352061
0.0344566
0.0336698
0.0322893
0.0308438
0.027329
0.024172
0.0397276
0.0397111
0.0391345
0.0385767
0.0379394
0.0373184
0.0366992
0.0360888
0.0354423
0.0347724
0.0339541
0.0330718
0.0317195
0.030286
0.0274902
0.0249528
0.0402881
0.0401461
0.0393155
0.0385663
0.0378049
0.0371022
0.0364387
0.0357876
0.0350969
0.0343667
0.0334932
0.0325324
0.0311958
0.0297562
0.0274185
0.0252248
0.0413607
0.0407466
0.0395235
0.0385037
0.0376257
0.0368642
0.0361917
0.0355425
0.0348503
0.0341064
0.0332262
0.0322492
0.0309709
0.029583
0.0275888
0.0256374
0.0432767
0.0415205
0.0398453
0.038456
0.0374917
0.0366953
0.036012
0.0353542
0.0346692
0.0339229
0.0330449
0.0320645
0.0308292
0.0294815
0.0276945
0.0258808
0.047428
0.0418032
0.0399091
0.0382965
0.0373585
0.036607
0.035974
0.035357
0.0347125
0.034
0.0331545
0.0322028
0.0310019
0.029674
0.0279223
0.026087
0.0392907
0.0393114
0.039039
0.0387261