/*--------------------------------*- C++ -*----------------------------------*\
| =========                 |                                                 |
| \\      /  F ield         | OpenFOAM: The Open Source CFD Toolbox           |
|  \\    /   O peration     | Version:  v1912                                 |
|   \\  /    A nd           | Website:  www.openfoam.com                      |
|    \\/     M anipulation  |                                                 |
\*---------------------------------------------------------------------------*/
FoamFile
{
    version     2.0;
    format      ascii;
    class       surfaceScalarField;
    location    "0.99/fluid";
    object      phi;
}
// * * * * * * * * * * * * * * * * * * * * * * * * * * * * * * * * * * * * * //

dimensions      [0 3 -1 0 0 0 0];
oriented        oriented;


internalField   nonuniform List<scalar> 
41600
(
5.00415e-05
1.2651e-05
3.19433e-07
-5.11961e-07
3.97074e-05
1.06872e-05
5.73988e-07
-9.27119e-07
3.18525e-05
8.24639e-06
5.2131e-07
-9.12778e-07
2.67887e-05
5.41638e-06
2.04058e-07
-5.56608e-07
2.36353e-05
3.42205e-06
-3.50809e-07
8.20851e-08
2.17099e-05
2.09758e-06
-1.08468e-06
9.12558e-07
2.04677e-05
1.32021e-06
-1.98095e-06
1.90292e-06
1.95605e-05
8.93376e-07
-3.05327e-06
3.06707e-06
1.87721e-05
6.79112e-07
-4.3564e-06
4.46567e-06
1.79663e-05
5.63548e-07
-5.969e-06
6.21129e-06
1.70618e-05
4.70173e-07
-8.03728e-06
8.47163e-06
1.59426e-05
2.87581e-07
-1.06682e-05
1.14998e-05
1.44639e-05
-1.28595e-08
-1.42184e-05
1.57099e-05
1.21343e-05
-7.66642e-07
-1.82737e-05
2.137e-05
7.7285e-06
-1.33859e-06
-2.28335e-05
2.85778e-05
-3.67866e-06
-1.8256e-05
2.96631e-05
6.47279e-05
1.06967e-05
4.57543e-07
-7.31036e-07
6.32551e-05
1.27041e-05
8.85626e-07
-1.42975e-06
6.04501e-05
1.17214e-05
9.20324e-07
-1.59032e-06
5.73485e-05
9.19467e-06
5.33163e-07
-1.20991e-06
5.4578e-05
6.78144e-06
-3.00743e-07
-2.88148e-07
5.2292e-05
4.83018e-06
-1.53183e-06
1.08525e-06
5.03976e-05
3.49845e-06
-3.12753e-06
2.8437e-06
4.87082e-05
2.69687e-06
-5.09378e-06
4.97969e-06
4.70273e-05
2.29677e-06
-7.50452e-06
7.56775e-06
4.51511e-05
2.15063e-06
-1.04927e-05
1.07818e-05
4.2885e-05
2.13204e-06
-1.42947e-05
1.4899e-05
3.98853e-05
2.0811e-06
-1.91354e-05
2.03416e-05
3.57193e-05
1.92018e-06
-2.54849e-05
2.77179e-05
2.91574e-05
1.16552e-06
-3.26925e-05
3.73223e-05
1.89621e-05
1.5043e-07
-3.96752e-05
4.83815e-05
-2.99272e-06
-3.07318e-05
4.90079e-05
6.63631e-05
7.13022e-06
5.14577e-07
-8.11218e-07
6.87534e-05
1.09228e-05
1.02129e-06
-1.63031e-06
6.97762e-05
1.14699e-05
1.11248e-06
-1.88376e-06
6.96413e-05
1.01334e-05
7.45645e-07
-1.54943e-06
6.88475e-05
8.30335e-06
-1.16201e-07
-6.11912e-07
6.769e-05
6.57067e-06
-1.43956e-06
8.56589e-07
6.63169e-05
5.2763e-06
-3.19956e-06
2.79472e-06
6.47415e-05
4.4834e-06
-5.40531e-06
5.19419e-06
6.2891e-05
4.15212e-06
-8.13243e-06
8.12765e-06
6.06059e-05
4.18205e-06
-1.15267e-05
1.17803e-05
5.76587e-05
4.46809e-06
-1.58421e-05
1.64532e-05
5.35999e-05
4.86009e-06
-2.13536e-05
2.26334e-05
4.78238e-05
5.26242e-06
-2.856e-05
3.09939e-05
3.87156e-05
5.12167e-06
-3.6895e-05
4.20471e-05
2.47411e-05
4.22152e-06
-4.49639e-05
5.48674e-05
1.66046e-07
-3.52849e-05
5.68672e-05
6.53344e-05
4.59594e-06
5.41992e-07
-8.42069e-07
6.85746e-05
8.31052e-06
1.09291e-06
-1.72088e-06
7.12141e-05
9.63354e-06
1.21914e-06
-2.02233e-06
7.2831e-05
9.36062e-06
8.77121e-07
-1.72122e-06
7.35336e-05
8.3738e-06
3.4978e-08
-8.08064e-07
7.34908e-05
7.2431e-06
-1.2743e-06
6.44706e-07
7.28656e-05
6.35156e-06
-3.02863e-06
2.57855e-06
7.17408e-05
5.86043e-06
-5.24066e-06
4.98847e-06
7.01138e-05
5.81851e-06
-7.98634e-06
7.94686e-06
6.78673e-05
6.20192e-06
-1.14162e-05
1.16428e-05
6.47709e-05
6.96816e-06
-1.57844e-05
1.63807e-05
6.03221e-05
8.02123e-06
-2.1395e-05
2.26826e-05
5.38023e-05
9.28825e-06
-2.87552e-05
3.12491e-05
4.33965e-05
1.0164e-05
-3.74123e-05
4.27759e-05
2.73234e-05
9.85578e-06
-4.59486e-05
5.63875e-05
4.43823e-06
-3.65954e-05
5.96465e-05
6.43998e-05
2.99333e-06
5.63218e-07
-8.60382e-07
6.73437e-05
5.99518e-06
1.14744e-06
-1.776e-06
7.02831e-05
7.50079e-06
1.30422e-06
-2.11085e-06
7.26092e-05
7.8827e-06
9.89242e-07
-1.8374e-06
7.41438e-05
7.61591e-06
1.78211e-07
-9.54986e-07
7.48884e-05
7.13248e-06
-1.08921e-06
4.55254e-07
7.49295e-05
6.76661e-06
-2.78686e-06
2.33068e-06
7.43374e-05
6.71353e-06
-4.92577e-06
4.66481e-06
7.31265e-05
7.0808e-06
-7.57741e-06
7.52597e-06
7.11991e-05
7.91894e-06
-1.08913e-05
1.11017e-05
6.83301e-05
9.26165e-06
-1.51118e-05
1.56873e-05
6.39813e-05
1.11075e-05
-2.0562e-05
2.18245e-05
5.73352e-05
1.34615e-05
-2.77371e-05
3.021e-05
4.63601e-05
1.57508e-05
-3.63303e-05
4.17186e-05
2.89155e-05
1.67201e-05
-4.49414e-05
5.55216e-05
9.77623e-06
-3.62515e-05
5.9829e-05
6.38376e-05
1.94895e-06
5.83177e-07
-8.76395e-07
6.63246e-05
4.13183e-06
1.19818e-06
-1.82186e-06
6.91319e-05
5.49468e-06
1.38776e-06
-2.18898e-06
7.16713e-05
6.18466e-06
1.10642e-06
-1.94775e-06
7.36292e-05
6.42664e-06
3.35914e-07
-1.10453e-06
7.48883e-05
6.4998e-06
-8.76018e-07
2.49601e-07
7.54529e-05
6.65332e-06
-2.49583e-06
2.04455e-06
7.53547e-05
7.07266e-06
-4.52912e-06
4.26817e-06
7.46e-05
7.8937e-06
-7.03854e-06
6.98027e-06
7.30947e-05
9.23064e-06
-1.0168e-05
1.03616e-05
7.06159e-05
1.11949e-05
-1.41444e-05
1.46899e-05
6.65938e-05
1.39177e-05
-1.93048e-05
2.05167e-05
6.01288e-05
1.75291e-05
-2.61151e-05
2.85124e-05
4.89497e-05
2.16358e-05
-3.44483e-05
3.97423e-05
3.0492e-05
2.46997e-05
-4.29206e-05
5.33986e-05
1.66309e-05
-3.5206e-05
5.88434e-05
6.35696e-05
1.16957e-06
6.05935e-07
-8.9612e-07
6.57463e-05
2.57406e-06
1.25397e-06
-1.8729e-06
6.83916e-05
3.64465e-06
1.48147e-06
-2.2768e-06
7.09882e-05
4.42234e-06
1.24248e-06
-2.07675e-06
7.31814e-05
4.99435e-06
5.23549e-07
-1.28446e-06
7.47951e-05
5.50626e-06
-6.19546e-07
-5.72033e-10
7.5783e-05
6.11404e-06
-2.14323e-06
1.69463e-06
7.61538e-05
6.96709e-06
-4.04269e-06
3.77746e-06
7.59186e-05
8.20284e-06
-6.36391e-06
6.29e-06
7.50107e-05
9.98079e-06
-9.23296e-06
9.39067e-06
7.32553e-05
1.24757e-05
-1.28382e-05
1.33129e-05
7.01184e-05
1.59841e-05
-1.75015e-05
1.85718e-05
6.47099e-05
2.08115e-05
-2.3597e-05
2.57232e-05
5.43533e-05
2.72207e-05
-3.11854e-05
3.59572e-05
3.56779e-05
3.39006e-05
-3.87905e-05
4.8265e-05
3.00394e-05
-3.24372e-05
5.47065e-05
6.347e-05
6.3162e-07
-9.2041e-07
4.88398e-07
6.55189e-05
1.3157e-06
-1.93232e-06
1.14172e-06
6.8106e-05
1.58524e-06
-2.37784e-06
1.85016e-06
7.07609e-05
1.39503e-06
-2.22616e-06
2.59862e-06
7.31236e-05
7.35697e-07
-1.49387e-06
3.38981e-06
7.49971e-05
-3.29887e-07
-2.89286e-07
4.25194e-06
7.63155e-05
-1.74826e-06
1.29697e-06
5.24688e-06
7.70826e-05
-3.50207e-06
3.22722e-06
6.47487e-06
7.73208e-05
-5.61821e-06
5.52338e-06
8.05948e-06
7.69933e-05
-8.20061e-06
8.31651e-06
1.01924e-05
7.59748e-05
-1.13958e-05
1.17925e-05
1.30974e-05
7.37849e-05
-1.55014e-05
1.64191e-05
1.72563e-05
6.9615e-05
-2.0797e-05
2.26385e-05
2.31398e-05
6.05351e-05
-2.7554e-05
3.17774e-05
3.20772e-05
4.28879e-05
-3.43043e-05
4.27607e-05
4.30915e-05
-3.02208e-05
5.13282e-05
5.18198e-05
4.99753e-05
1.26573e-05
1.86821e-07
3.95144e-05
1.07064e-05
3.28493e-07
3.15182e-05
8.26948e-06
2.48031e-07
2.63225e-05
5.4365e-06
-3.67676e-08
2.3048e-05
3.44036e-06
-5.16591e-07
2.10002e-05
2.11724e-06
-1.15414e-06
1.96159e-05
1.34609e-06
-1.94272e-06
1.85277e-05
9.29493e-07
-2.89456e-06
1.74983e-05
7.29264e-07
-4.05633e-06
1.63751e-05
6.30777e-07
-5.47659e-06
1.50473e-05
5.61887e-07
-7.27136e-06
1.34076e-05
4.13357e-07
-9.44178e-06
1.12586e-05
1.68983e-07
-1.22384e-05
8.39979e-06
-5.02317e-07
-1.49126e-05
3.89834e-06
-1.09324e-06
-1.72388e-05
-2.88046e-06
-1.14772e-05
6.46344e-05
1.07116e-05
2.68805e-07
6.29775e-05
1.27413e-05
5.07689e-07
5.99399e-05
1.17737e-05
4.53666e-07
5.65884e-05
9.25168e-06
6.95079e-08
5.35643e-05
6.84147e-06
-6.77821e-07
5.10153e-05
4.89749e-06
-1.7631e-06
4.88247e-05
3.58262e-06
-3.17344e-06
4.6773e-05
2.80853e-06
-4.92116e-06
4.46231e-05
2.4472e-06
-7.07248e-06
4.21314e-05
2.3487e-06
-9.71887e-06
3.90501e-05
2.39106e-06
-1.30427e-05
3.50325e-05
2.40663e-06
-1.71111e-05
2.96054e-05
2.32392e-06
-2.22128e-05
2.20149e-05
1.62312e-06
-2.72273e-05
1.14816e-05
5.18798e-07
-3.07539e-05
-2.49471e-06
-1.9636e-05
6.62691e-05
7.14874e-06
3.08375e-07
6.84671e-05
1.09687e-05
5.95898e-07
6.92402e-05
1.15412e-05
5.71853e-07
6.88261e-05
1.0222e-05
1.89403e-07
6.77386e-05
8.40717e-06
-5.94369e-07
6.62693e-05
6.69492e-06
-1.76771e-06
6.45445e-05
5.43398e-06
-3.32609e-06
6.25436e-05
4.69149e-06
-5.28737e-06
6.01485e-05
4.43107e-06
-7.72121e-06
5.71515e-05
4.55109e-06
-1.07322e-05
5.32621e-05
4.95291e-06
-1.45144e-05
4.8016e-05
5.47248e-06
-1.91734e-05
4.07581e-05
6.02069e-06
-2.49989e-05
3.03947e-05
5.95267e-06
-3.08611e-05
1.59753e-05
4.93531e-06
-3.49611e-05
4.87314e-07
-2.22916e-05
6.52432e-05
4.61568e-06
3.31833e-07
6.82933e-05
8.36024e-06
6.51267e-07
7.0686e-05
9.71608e-06
6.51618e-07
7.20256e-05
9.47289e-06
2.86661e-07
7.2434e-05
8.51597e-06
-4.82285e-07
7.20763e-05
7.42235e-06
-1.64397e-06
7.10941e-05
6.58424e-06
-3.19675e-06
6.95377e-05
6.16959e-06
-5.16232e-06
6.73588e-05
6.23475e-06
-7.61108e-06
6.43882e-05
6.75843e-06
-1.06529e-05
6.03274e-05
7.71032e-06
-1.4481e-05
5.46494e-05
8.98009e-06
-1.92247e-05
4.65737e-05
1.05113e-05
-2.517e-05
3.48121e-05
1.15522e-05
-3.12502e-05
1.81992e-05
1.11833e-05
-3.55837e-05
4.8652e-06
-2.27741e-05
6.43109e-05
3.01449e-06
3.53469e-07
6.7068e-05
6.04866e-06
7.01937e-07
6.97668e-05
7.59264e-06
7.28845e-07
7.18256e-05
8.01475e-06
3.88569e-07
7.30793e-05
7.79153e-06
-3.5102e-07
7.35244e-05
7.36147e-06
-1.47344e-06
7.32268e-05
7.06866e-06
-2.97366e-06
7.22248e-05
7.11772e-06
-4.8719e-06
7.04883e-05
7.6283e-06
-7.23446e-06
6.78672e-05
8.65933e-06
-1.01711e-05
6.40655e-05
1.02659e-05
-1.38657e-05
5.85108e-05
1.24382e-05
-1.84654e-05
5.0308e-05
1.52189e-05
-2.42419e-05
3.79281e-05
1.78425e-05
-3.02408e-05
1.98107e-05
1.89342e-05
-3.45748e-05
1.05882e-05
-2.21639e-05
6.37504e-05
1.9725e-06
3.74763e-07
6.60539e-05
4.19048e-06
7.52847e-07
6.86274e-05
5.59607e-06
8.1088e-07
7.09114e-05
6.33419e-06
5.02975e-07
7.26054e-05
6.63082e-06
-1.97433e-07
7.35869e-05
6.77133e-06
-1.2674e-06
7.384e-05
7.01529e-06
-2.69554e-06
7.33655e-05
7.56007e-06
-4.49694e-06
7.21267e-05
8.55837e-06
-6.72979e-06
6.99775e-05
1.01402e-05
-9.49971e-06
6.66243e-05
1.24497e-05
-1.2975e-05
6.14533e-05
1.5623e-05
-1.73186e-05
5.34743e-05
1.98584e-05
-2.27756e-05
4.08781e-05
2.45375e-05
-2.85471e-05
2.16047e-05
2.80521e-05
-3.27652e-05
1.81016e-05
-2.11147e-05
6.34842e-05
1.19598e-06
3.98298e-07
6.54813e-05
2.63847e-06
8.08814e-07
6.79004e-05
3.75508e-06
9.03431e-07
7.02546e-05
4.58624e-06
6.362e-07
7.22033e-05
5.22055e-06
-1.49111e-08
7.35656e-05
5.80983e-06
-1.02029e-06
7.4277e-05
6.52057e-06
-2.35996e-06
7.43182e-05
7.51588e-06
-4.03968e-06
7.36622e-05
8.95372e-06
-6.10324e-06
7.2196e-05
1.10166e-05
-8.64314e-06
6.96826e-05
1.39218e-05
-1.17969e-05
6.55403e-05
1.79907e-05
-1.57269e-05
5.87888e-05
2.36261e-05
-2.06133e-05
4.71131e-05
3.08844e-05
-2.58565e-05
2.75076e-05
3.84582e-05
-2.9591e-05
3.23667e-05
-1.91947e-05
6.33865e-05
4.23669e-07
5.17451e-07
6.52605e-05
8.69065e-07
1.21111e-06
6.76295e-05
1.00394e-06
1.96729e-06
7.00556e-05
7.83176e-07
2.77199e-06
7.21935e-05
1.88477e-07
3.62994e-06
7.38427e-05
-7.44625e-07
4.57532e-06
7.4922e-05
-1.98715e-06
5.6802e-06
7.54096e-05
-3.53396e-06
7.06015e-06
7.52958e-05
-5.41225e-06
8.86159e-06
7.45034e-05
-7.69771e-06
1.1306e-05
7.28562e-05
-1.04938e-05
1.46671e-05
6.98237e-05
-1.39561e-05
1.94778e-05
6.45221e-05
-1.81962e-05
2.63269e-05
5.42806e-05
-2.28441e-05
3.6416e-05
3.57032e-05
-2.61153e-05
4.88465e-05
-1.76668e-05
5.55158e-05
4.99248e-05
1.26636e-05
9.84898e-08
3.93644e-05
1.07238e-05
1.65038e-07
3.12499e-05
8.29138e-06
7.11346e-08
2.59345e-05
5.45732e-06
-1.78654e-07
2.25415e-05
3.45987e-06
-5.83477e-07
2.03688e-05
2.13766e-06
-1.11908e-06
1.8838e-05
1.37177e-06
-1.78369e-06
1.75649e-05
9.63768e-07
-2.58529e-06
1.62915e-05
7.75309e-07
-3.5582e-06
1.48475e-05
6.90825e-07
-4.72343e-06
1.30941e-05
6.40759e-07
-6.15872e-06
1.09386e-05
5.17017e-07
-7.80333e-06
8.20078e-06
3.05421e-07
-9.80593e-06
5.04766e-06
-3.18157e-07
-1.14413e-05
1.22824e-06
-9.95864e-07
-1.24235e-05
-2.55089e-06
-7.69805e-06
6.45627e-05
1.07269e-05
1.42722e-07
6.27611e-05
1.27773e-05
2.55859e-07
5.95306e-05
1.18253e-05
1.50292e-07
5.59584e-05
9.31043e-06
-2.1135e-07
5.26969e-05
6.90473e-06
-8.61269e-07
4.98907e-05
4.96783e-06
-1.78698e-06
4.74059e-05
3.6684e-06
-2.98531e-06
4.49969e-05
2.9192e-06
-4.46761e-06
4.23913e-05
2.59341e-06
-6.28497e-06
3.93134e-05
2.539e-06
-8.48916e-06
3.5475e-05
2.63783e-06
-1.12013e-05
3.05545e-05
2.71468e-06
-1.43882e-05
2.41349e-05
2.69896e-06
-1.81867e-05
1.60412e-05
2.03833e-06
-2.14902e-05
6.41166e-06
8.21004e-07
-2.29412e-05
-2.21233e-06
-1.35629e-05
6.61976e-05
7.16846e-06
1.69295e-07
6.82452e-05
1.10153e-05
3.10277e-07
6.88122e-05
1.16133e-05
2.16776e-07
6.81538e-05
1.03131e-05
-1.54883e-07
6.67942e-05
8.51463e-06
-8.44677e-07
6.50234e-05
6.82223e-06
-1.85133e-06
6.29527e-05
5.59236e-06
-3.17933e-06
6.05348e-05
4.89608e-06
-4.84631e-06
5.76133e-05
4.70102e-06
-6.90737e-06
5.39418e-05
4.90442e-06
-9.42607e-06
4.91822e-05
5.41378e-06
-1.25308e-05
4.28871e-05
6.05112e-06
-1.62147e-05
3.44541e-05
6.7315e-06
-2.05984e-05
2.34275e-05
6.72782e-06
-2.4524e-05
9.92215e-06
5.6042e-06
-2.62389e-05
7.91547e-07
-1.53734e-05
6.51745e-05
4.63718e-06
1.88593e-07
6.80773e-05
8.41183e-06
3.5195e-07
7.02673e-05
9.80033e-06
2.74574e-07
7.13652e-05
9.5873e-06
-8.54461e-08
7.15018e-05
8.66034e-06
-7.64598e-07
7.08401e-05
7.60239e-06
-1.76237e-06
6.95074e-05
6.81407e-06
-3.08583e-06
6.75277e-05
6.46992e-06
-4.75645e-06
6.48141e-05
6.63387e-06
-6.83035e-06
6.11553e-05
7.28672e-06
-9.37638e-06
5.61999e-05
8.40952e-06
-1.25214e-05
4.94273e-05
9.87637e-06
-1.62773e-05
4.00978e-05
1.16458e-05
-2.07548e-05
2.75726e-05
1.28349e-05
-2.48321e-05
1.18112e-05
1.24358e-05
-2.6654e-05
5.41343e-06
-1.55848e-05
6.42447e-05
3.03721e-06
2.08768e-07
6.68581e-05
6.10387e-06
3.96469e-07
6.93606e-05
7.68555e-06
3.4114e-07
7.1187e-05
8.14697e-06
2.44754e-09
7.21808e-05
7.9662e-06
-6.50628e-07
7.23362e-05
7.58709e-06
-1.61358e-06
7.17048e-05
7.36258e-06
-2.89076e-06
7.02992e-05
7.50628e-06
-4.50267e-06
6.80511e-05
8.1495e-06
-6.50199e-06
6.47666e-05
9.35827e-06
-8.95814e-06
6.00932e-05
1.12074e-05
-1.19901e-05
5.3454e-05
1.3676e-05
-1.56258e-05
4.39789e-05
1.68418e-05
-1.99628e-05
3.07733e-05
1.97665e-05
-2.39667e-05
1.3391e-05
2.10148e-05
-2.57715e-05
1.16571e-05
-1.50166e-05
6.36859e-05
1.99683e-06
2.29277e-07
6.58493e-05
4.24952e-06
4.43775e-07
6.8233e-05
5.6965e-06
4.16233e-07
7.02953e-05
6.48078e-06
1.068e-07
7.1745e-05
6.82993e-06
-5.10819e-07
7.24572e-05
7.03438e-06
-1.42688e-06
7.24017e-05
7.36307e-06
-2.64053e-06
7.15545e-05
8.02467e-06
-4.16809e-06
6.98418e-05
9.18776e-06
-6.0554e-06
6.70736e-05
1.0996e-05
-8.36925e-06
6.28978e-05
1.36244e-05
-1.12162e-05
5.66859e-05
1.72088e-05
-1.46396e-05
4.7457e-05
2.20129e-05
-1.87177e-05
3.40028e-05
2.72184e-05
-2.25449e-05
1.53163e-05
3.12209e-05
-2.42847e-05
2.00231e-05
-1.41644e-05
6.34214e-05
1.22207e-06
2.51637e-07
6.52825e-05
2.70128e-06
4.95981e-07
6.7519e-05
3.86181e-06
5.01642e-07
6.96632e-05
4.74367e-06
2.29035e-07
7.13852e-05
5.43735e-06
-3.44304e-07
7.25026e-05
6.09975e-06
-1.20304e-06
7.29378e-05
6.90719e-06
-2.33934e-06
7.26491e-05
8.0358e-06
-3.76208e-06
7.15765e-05
9.66274e-06
-5.50564e-06
6.95666e-05
1.1991e-05
-7.62815e-06
6.63297e-05
1.52784e-05
-1.0214e-05
6.12616e-05
1.98646e-05
-1.33146e-05
5.33819e-05
2.62483e-05
-1.69691e-05
4.08899e-05
3.4302e-05
-2.0448e-05
2.16672e-05
4.28269e-05
-2.19744e-05
3.5409e-05
-1.29134e-05
6.33256e-05
2.75127e-07
5.44996e-07
6.50679e-05
5.5134e-07
1.2767e-06
6.72624e-05
5.93482e-07
2.0778e-06
6.94911e-05
3.62725e-07
2.93542e-06
7.14207e-05
-1.60147e-07
3.85641e-06
7.28506e-05
-9.5495e-07
4.88017e-06
7.36884e-05
-2.00642e-06
6.08867e-06
7.38931e-05
-3.31456e-06
7.61168e-06
7.3427e-05
-4.90059e-06
9.61715e-06
7.21779e-05
-6.81119e-06
1.23535e-05
6.99257e-05
-9.10607e-06
1.61429e-05
6.61132e-05
-1.18404e-05
2.15615e-05
5.98581e-05
-1.50134e-05
2.93207e-05
4.89011e-05
-1.80966e-05
4.05115e-05
3.05981e-05
-1.94473e-05
5.44618e-05
-1.19337e-05
6.0274e-05
4.98863e-05
1.26693e-05
4.29086e-08
3.92487e-05
1.07391e-05
6.34922e-08
3.10391e-05
8.31096e-06
-3.02309e-08
2.56239e-05
5.47665e-06
-2.40026e-07
2.21305e-05
3.4784e-06
-5.68556e-07
1.98541e-05
2.15758e-06
-1.0002e-06
1.82088e-05
1.39703e-06
-1.53545e-06
1.68045e-05
9.97991e-07
-2.17893e-06
1.53779e-05
8.22688e-07
-2.95435e-06
1.37641e-05
7.56259e-07
-3.86589e-06
1.18326e-05
7.33882e-07
-4.96112e-06
9.53222e-06
6.5516e-07
-6.15807e-06
6.73949e-06
5.17862e-07
-7.53107e-06
3.75281e-06
2.81256e-08
-8.48277e-06
6.14645e-07
-5.55604e-07
-8.72973e-06
-1.92259e-06
-5.16082e-06
6.45077e-05
1.07412e-05
6.31901e-08
6.25934e-05
1.28098e-05
9.93888e-08
5.9208e-05
1.18721e-05
-2.54585e-08
5.54526e-05
9.36487e-06
-3.44151e-07
5.19899e-05
6.96411e-06
-8.84269e-07
4.8966e-05
5.03434e-06
-1.63982e-06
4.62404e-05
3.74925e-06
-2.61197e-06
4.3557e-05
3.02317e-06
-3.80936e-06
4.06318e-05
2.73149e-06
-5.2686e-06
3.71906e-05
2.72231e-06
-7.01396e-06
3.29567e-05
2.88458e-06
-9.11818e-06
2.768e-05
3.04555e-06
-1.15019e-05
2.10627e-05
3.14943e-06
-1.4201e-05
1.32309e-05
2.64802e-06
-1.62783e-05
4.75645e-06
1.55175e-06
-1.65741e-05
-1.43754e-06
-9.29152e-06
6.61428e-05
7.18727e-06
8.03312e-08
6.80737e-05
1.10585e-05
1.30745e-07
6.84754e-05
1.168e-05
7.1844e-09
6.76146e-05
1.03979e-05
-3.27148e-07
6.60247e-05
8.6151e-06
-9.0578e-07
6.39983e-05
6.94103e-06
-1.73157e-06
6.16414e-05
5.73897e-06
-2.81221e-06
5.88967e-05
5.08383e-06
-4.16229e-06
5.55954e-05
4.94769e-06
-5.82222e-06
5.14893e-05
5.22845e-06
-7.82615e-06
4.62518e-05
5.84204e-06
-1.02508e-05
3.95106e-05
6.60604e-06
-1.3034e-05
3.07977e-05
7.45096e-06
-1.61871e-05
2.00199e-05
7.60907e-06
-1.87073e-05
7.83402e-06
6.58325e-06
-1.90845e-05
1.57043e-06
-1.05473e-05
6.51224e-05
4.65797e-06
9.54977e-08
6.79113e-05
8.46057e-06
1.6105e-07
6.99393e-05
9.87897e-06
4.75754e-08
7.08374e-05
9.69394e-06
-2.79526e-07
7.07443e-05
8.79452e-06
-8.50956e-07
6.98249e-05
7.76848e-06
-1.67041e-06
6.82021e-05
7.02387e-06
-2.7479e-06
6.589e-05
6.74093e-06
-4.10151e-06
6.27896e-05
6.99057e-06
-5.77285e-06
5.86868e-05
7.75575e-06
-7.80089e-06
5.32401e-05
9.02835e-06
-1.02609e-05
4.60013e-05
1.06726e-05
-1.31051e-05
3.63653e-05
1.26653e-05
-1.63331e-05
2.40653e-05
1.40373e-05
-1.89603e-05
9.6398e-06
1.37286e-05
-1.93738e-05
6.25775e-06
-1.06323e-05
6.41947e-05
3.05909e-06
1.12904e-07
6.66979e-05
6.156e-06
1.97928e-07
6.9044e-05
7.77211e-06
1.01902e-07
7.06788e-05
8.26942e-06
-2.07833e-07
7.14533e-05
8.12687e-06
-7.57474e-07
7.13633e-05
7.79266e-06
-1.5478e-06
7.04559e-05
7.62734e-06
-2.58686e-06
6.87346e-05
7.8518e-06
-3.89217e-06
6.6119e-05
8.60684e-06
-5.50274e-06
6.24121e-05
9.96309e-06
-7.45854e-06
5.72692e-05
1.20101e-05
-9.82892e-06
5.01808e-05
1.47146e-05
-1.25794e-05
4.0403e-05
1.81791e-05
-1.56989e-05
2.74023e-05
2.13392e-05
-1.8268e-05
1.13023e-05
2.27189e-05
-1.86618e-05
1.27027e-05
-1.01592e-05
6.36375e-05
2.01982e-06
1.31026e-07
6.5694e-05
4.30454e-06
2.38782e-07
6.79272e-05
5.78908e-06
1.66074e-07
6.98073e-05
6.61497e-06
-1.18888e-07
7.10509e-05
7.0108e-06
-6.38394e-07
7.15349e-05
7.27107e-06
-1.38925e-06
7.12246e-05
7.67248e-06
-2.37536e-06
7.00871e-05
8.43233e-06
-3.61111e-06
6.80375e-05
9.73116e-06
-5.13013e-06
6.48818e-05
1.17205e-05
-6.97089e-06
6.02745e-05
1.45947e-05
-9.19353e-06
5.36477e-05
1.84791e-05
-1.17772e-05
4.41361e-05
2.36715e-05
-1.46984e-05
3.08709e-05
2.91967e-05
-1.71372e-05
1.33768e-05
3.34299e-05
-1.75016e-05
2.14127e-05
-9.49771e-06
6.33747e-05
1.2461e-06
1.50668e-07
6.51324e-05
2.7587e-06
2.84091e-07
6.72248e-05
3.95872e-06
2.39622e-07
6.91971e-05
4.88576e-06
-1.4034e-08
7.07278e-05
5.63179e-06
-4.96048e-07
7.16371e-05
6.35773e-06
-1.19894e-06
7.18437e-05
7.24759e-06
-2.12106e-06
7.12979e-05
8.48717e-06
-3.27118e-06
6.99305e-05
1.02673e-05
-4.67433e-06
6.75844e-05
1.28021e-05
-6.36363e-06
6.39767e-05
1.63726e-05
-8.38423e-06
5.85545e-05
2.13127e-05
-1.0726e-05
5.04392e-05
2.81627e-05
-1.3345e-05
3.81264e-05
3.66225e-05
-1.5561e-05
1.9947e-05
4.54948e-05
-1.58599e-05
3.71221e-05
-8.67587e-06
6.32806e-05
1.70997e-07
5.69667e-07
6.49235e-05
3.31741e-07
1.3354e-06
6.69808e-05
3.18332e-07
2.17652e-06
6.90483e-05
1.00192e-07
3.08084e-06
7.0802e-05
-3.39273e-07
4.05716e-06
7.20449e-05
-9.88778e-07
5.14869e-06
7.26818e-05
-1.84074e-06
6.44502e-06
7.26654e-05
-2.89722e-06
8.08625e-06
7.19505e-05
-4.17329e-06
1.02549e-05
7.04226e-05
-5.69469e-06
1.32135e-05
6.78692e-05
-7.48984e-06
1.73096e-05
6.37759e-05
-9.5571e-06
2.31228e-05
5.73506e-05
-1.18327e-05
3.14073e-05
4.65811e-05
-1.3797e-05
4.30925e-05
2.91877e-05
-1.40794e-05
5.75203e-05
-8.05515e-06
6.24313e-05
4.98567e-05
1.26741e-05
1.20674e-08
3.91596e-05
1.07516e-05
8.95811e-09
3.08745e-05
8.32716e-06
-7.23092e-08
2.53776e-05
5.49273e-06
-2.35786e-07
2.17998e-05
3.49389e-06
-4.84728e-07
1.94348e-05
2.1741e-06
-8.09203e-07
1.76918e-05
1.41763e-06
-1.21009e-06
1.61766e-05
1.02543e-06
-1.68923e-06
1.46235e-05
8.60098e-07
-2.26137e-06
1.28727e-05
8.07086e-07
-2.92208e-06
1.08043e-05
8.04781e-07
-3.69758e-06
8.40118e-06
7.57993e-07
-4.51291e-06
5.60026e-06
6.70937e-07
-5.40108e-06
2.78521e-06
2.71602e-07
-5.93932e-06
1.98264e-07
-2.5233e-07
-5.89046e-06
-1.56364e-06
-3.39892e-06
6.44652e-05
1.07533e-05
1.8731e-08
6.24639e-05
1.28373e-05
1.50846e-08
5.89559e-05
1.19118e-05
-1.02128e-07
5.50519e-05
9.41128e-06
-3.58738e-07
5.14222e-05
7.01508e-06
-7.75719e-07
4.82152e-05
5.09148e-06
-1.3502e-06
4.52868e-05
3.81833e-06
-2.08425e-06
4.23747e-05
3.11135e-06
-2.98324e-06
3.91892e-05
2.84789e-06
-4.07088e-06
3.54611e-05
2.87616e-06
-5.35492e-06
3.09314e-05
3.09086e-06
-6.87459e-06
2.54132e-05
3.32091e-06
-8.54666e-06
1.87208e-05
3.52222e-06
-1.03598e-05
1.11972e-05
3.14393e-06
-1.16271e-05
3.69931e-06
2.13674e-06
-1.14653e-05
-8.98961e-07
-6.25689e-06
6.61007e-05
7.20372e-06
2.92261e-08
6.79413e-05
1.10958e-05
3.16308e-08
6.82125e-05
1.17373e-05
-8.94878e-08
6.71879e-05
1.0471e-05
-3.62305e-07
6.54075e-05
8.7019e-06
-8.12199e-07
6.31666e-05
7.04361e-06
-1.44281e-06
6.0569e-05
5.86495e-06
-2.2613e-06
5.75519e-05
5.24415e-06
-3.27792e-06
5.39399e-05
5.1572e-06
-4.51958e-06
4.94889e-05
5.5025e-06
-6.0015e-06
4.38908e-05
6.20302e-06
-7.76483e-06
3.68419e-05
7.07254e-06
-9.73671e-06
2.80044e-05
8.05437e-06
-1.18817e-05
1.75485e-05
8.34541e-06
-1.34529e-05
6.49225e-06
7.3996e-06
-1.32911e-05
2.17993e-06
-7.13396e-06
6.50824e-05
4.6764e-06
4.03895e-08
6.77836e-05
8.50316e-06
5.2543e-08
6.9684e-05
9.94724e-06
-6.26879e-08
7.04205e-05
9.78628e-06
-3.31332e-07
7.01376e-05
8.91058e-06
-7.76694e-07
6.90022e-05
7.91175e-06
-1.40314e-06
6.71351e-05
7.20388e-06
-2.21976e-06
6.45454e-05
6.97203e-06
-3.23969e-06
6.11278e-05
7.29297e-06
-4.49096e-06
5.66709e-05
8.15129e-06
-5.99281e-06
5.08507e-05
9.54758e-06
-7.78531e-06
4.32865e-05
1.13377e-05
-9.806e-06
3.35045e-05
1.35124e-05
-1.20092e-05
2.15115e-05
1.50347e-05
-1.36566e-05
8.23675e-06
1.48044e-05
-1.35039e-05
6.96511e-06
-7.18074e-06
6.41567e-05
3.07851e-06
5.41134e-08
6.65753e-05
6.20169e-06
8.08135e-08
6.87986e-05
7.84734e-06
-2.15065e-08
7.02787e-05
8.37535e-06
-2.77004e-07
7.08719e-05
8.26546e-06
-7.05584e-07
7.05761e-05
7.9693e-06
-1.30955e-06
6.94361e-05
7.85369e-06
-2.09668e-06
6.74504e-05
8.14547e-06
-3.07988e-06
6.45327e-05
8.9933e-06
-4.28537e-06
6.04878e-05
1.04712e-05
-5.73352e-06
5.49868e-05
1.268e-05
-7.46037e-06
4.75829e-05
1.55759e-05
-9.41367e-06
3.76579e-05
1.92792e-05
-1.15407e-05
2.49453e-05
2.26285e-05
-1.31492e-05
9.95736e-06
2.41167e-05
-1.29861e-05
1.36016e-05
-6.83836e-06
6.36008e-05
2.04005e-06
6.86496e-08
6.55757e-05
4.35249e-06
1.131e-07
6.76911e-05
5.86915e-06
2.8854e-08
6.94244e-05
6.73051e-06
-2.0734e-07
7.04979e-05
7.16602e-06
-6.12382e-07
7.07902e-05
7.47343e-06
-1.18569e-06
7.02647e-05
7.93584e-06
-1.93206e-06
6.88837e-05
8.77753e-06
-2.86216e-06
6.65565e-05
1.01887e-05
-3.99838e-06
6.30904e-05
1.23267e-05
-5.36032e-06
5.8154e-05
1.54008e-05
-6.97785e-06
5.1236e-05
1.95261e-05
-8.80946e-06
4.15879e-05
2.50246e-05
-1.07957e-05
2.85928e-05
3.08024e-05
-1.2316e-05
1.21398e-05
3.52165e-05
-1.21485e-05
2.26127e-05
-6.36904e-06
6.33394e-05
1.26693e-06
8.43646e-08
6.50187e-05
2.8082e-06
1.49074e-07
6.69987e-05
4.04187e-06
8.69446e-08
6.88326e-05
5.00732e-06
-1.24791e-07
7.02055e-05
5.79767e-06
-5.00616e-07
7.09397e-05
6.57716e-06
-1.03685e-06
7.09526e-05
7.53616e-06
-1.73425e-06
7.01902e-05
8.86827e-06
-2.59956e-06
6.85785e-05
1.07753e-05
-3.64914e-06
6.59615e-05
1.34795e-05
-4.89951e-06
6.20692e-05
1.72799e-05
-6.37108e-06
5.63977e-05
2.25039e-05
-8.03232e-06
4.81719e-05
2.972e-05
-9.81453e-06
3.61104e-05
3.85004e-05
-1.11974e-05
1.8856e-05
4.76434e-05
-1.10324e-05
3.86357e-05
-5.84288e-06
6.32467e-05
1.00486e-07
5.90713e-07
6.48146e-05
1.86731e-07
1.38537e-06
6.67654e-05
1.48959e-07
2.26042e-06
6.87036e-05
-3.50213e-08
3.20431e-06
7.03124e-05
-3.77755e-07
4.22733e-06
7.13977e-05
-8.72821e-07
5.37591e-06
7.18638e-05
-1.5166e-06
6.74594e-06
7.16601e-05
-2.31106e-06
8.48578e-06
7.07382e-05
-3.26563e-06
1.07896e-05
6.89848e-05
-4.39233e-06
1.39306e-05
6.62004e-05
-5.70104e-06
1.82755e-05
6.19119e-05
-7.16875e-06
2.44041e-05
5.5418e-05
-8.71922e-06
3.31003e-05
4.48938e-05
-9.94684e-06
4.51743e-05
2.83107e-05
-9.8276e-06
5.99747e-05
-5.45648e-06
6.43478e-05
4.98355e-05
1.26779e-05
-1.32679e-09
3.90955e-05
1.07613e-05
-1.22942e-08
3.07551e-05
8.33966e-06
-7.16177e-08
2.51978e-05
5.50535e-06
-1.83856e-07
2.1558e-05
3.50626e-06
-3.51184e-07
1.91292e-05
2.18754e-06
-5.67925e-07
1.73192e-05
1.43463e-06
-8.34712e-07
1.57335e-05
1.04848e-06
-1.15202e-06
1.4108e-05
8.92229e-07
-1.52807e-06
1.22904e-05
8.51974e-07
-1.95648e-06
1.01737e-05
8.69119e-07
-2.45005e-06
7.76154e-06
8.52926e-07
-2.95363e-06
5.02569e-06
8.13485e-07
-3.47871e-06
2.35574e-06
4.89655e-07
-3.75902e-06
6.54656e-08
2.94306e-08
-3.62961e-06
-1.27337e-06
-2.06009e-06
6.44347e-05
1.07629e-05
-9.93443e-10
6.23701e-05
1.28588e-05
-1.78073e-08
5.87722e-05
1.19427e-05
-1.072e-07
5.47581e-05
9.44766e-06
-2.86969e-07
5.10042e-05
7.05532e-06
-5.70908e-07
4.76624e-05
5.13685e-06
-9.57773e-07
4.45888e-05
3.87331e-06
-1.44925e-06
4.15205e-05
3.18172e-06
-2.04825e-06
3.81692e-05
2.94128e-06
-2.7686e-06
3.42759e-05
3.00079e-06
-3.61043e-06
2.96026e-05
3.26009e-06
-4.59226e-06
2.40068e-05
3.55057e-06
-5.64855e-06
1.7376e-05
3.83852e-06
-6.75399e-06
1.01326e-05
3.56948e-06
-7.46348e-06
3.23394e-06
2.65149e-06
-7.1887e-06
-4.51138e-07
-3.84519e-06
6.60704e-05
7.21681e-06
4.95168e-09
6.78455e-05
1.11253e-05
-1.00421e-08
6.80208e-05
1.17824e-05
-1.04427e-07
6.68747e-05
1.05286e-05
-2.97101e-07
6.49524e-05
8.7704e-06
-6.04979e-07
6.25528e-05
7.12458e-06
-1.03099e-06
5.9781e-05
5.96418e-06
-1.58036e-06
5.65742e-05
5.37008e-06
-2.25944e-06
5.27587e-05
5.32152e-06
-3.0843e-06
4.81005e-05
5.71764e-06
-4.06014e-06
4.23147e-05
6.48732e-06
-5.20625e-06
3.51485e-05
7.44273e-06
-6.46269e-06
2.63528e-05
8.5381e-06
-7.78562e-06
1.62086e-05
8.94528e-06
-8.6845e-06
5.87166e-06
8.08037e-06
-8.38304e-06
2.68848e-06
-4.40193e-06
6.50538e-05
4.69116e-06
1.22578e-08
6.76915e-05
8.53701e-06
3.05001e-09
6.94983e-05
1.00012e-05
-8.82343e-08
7.01151e-05
9.85916e-06
-2.7873e-07
6.96908e-05
9.00207e-06
-5.84035e-07
6.83954e-05
8.02435e-06
-1.0076e-06
6.63512e-05
7.34468e-06
-1.55604e-06
6.35676e-05
7.15175e-06
-2.23774e-06
5.9941e-05
7.52681e-06
-3.06969e-06
5.52701e-05
8.45565e-06
-4.0599e-06
4.92538e-05
9.9454e-06
-5.22708e-06
4.15622e-05
1.18462e-05
-6.51792e-06
3.18127e-05
1.41596e-05
-7.88123e-06
2.01294e-05
1.58016e-05
-8.8296e-06
7.59187e-06
1.56407e-05
-8.52664e-06
7.52691e-06
-4.42731e-06
6.41295e-05
3.09407e-06
2.1709e-08
6.64871e-05
6.23806e-06
2.21479e-08
6.86206e-05
7.90689e-06
-6.06439e-08
6.99862e-05
8.45889e-06
-2.42337e-07
7.04446e-05
8.37436e-06
-5.3626e-07
6.99965e-05
8.10745e-06
-9.44547e-07
6.86879e-05
8.02958e-06
-1.47304e-06
6.65179e-05
8.37192e-06
-2.13006e-06
6.34022e-05
9.28869e-06
-2.93149e-06
5.91547e-05
1.08559e-05
-3.88627e-06
5.34685e-05
1.31819e-05
-5.01069e-06
4.5945e-05
1.62144e-05
-6.25831e-06
3.6053e-05
2.00847e-05
-7.57383e-06
2.36385e-05
2.35657e-05
-8.49886e-06
9.36113e-06
2.51238e-05
-8.19183e-06
1.42563e-05
-4.20661e-06
6.35747e-05
2.05616e-06
3.18349e-08
6.54909e-05
4.39051e-06
4.44259e-08
6.75204e-05
5.93234e-06
-2.60487e-08
6.91452e-05
6.8213e-06
-1.94544e-07
7.00921e-05
7.28743e-06
-4.72338e-07
7.02427e-05
7.63083e-06
-8.59692e-07
6.95616e-05
8.13917e-06
-1.36053e-06
6.80115e-05
9.0416e-06
-1.98174e-06
6.55037e-05
1.05349e-05
-2.73676e-06
6.18541e-05
1.27793e-05
-3.6342e-06
5.67518e-05
1.5993e-05
-4.6866e-06
4.97301e-05
2.02815e-05
-5.85483e-06
4.01209e-05
2.59788e-05
-7.08048e-06
2.74098e-05
3.1912e-05
-7.95116e-06
1.16189e-05
3.64154e-05
-7.64925e-06
2.34121e-05
-3.90598e-06
6.33144e-05
1.28337e-06
4.27728e-08
6.49375e-05
2.84717e-06
6.93304e-08
6.68356e-05
4.1071e-06
1.40408e-08
6.85675e-05
5.10234e-06
-1.37688e-07
6.9823e-05
5.92677e-06
-3.95504e-07
7.04277e-05
6.74693e-06
-7.57638e-07
7.03003e-05
7.75772e-06
-1.2254e-06
6.93876e-05
9.15794e-06
-1.8032e-06
6.76175e-05
1.11565e-05
-2.50071e-06
6.48422e-05
1.39799e-05
-3.32488e-06
6.08103e-05
1.79367e-05
-4.28287e-06
5.50567e-05
2.33457e-05
-5.34288e-06
4.68775e-05
3.07867e-05
-6.44328e-06
3.50808e-05
3.9747e-05
-7.23563e-06
1.8418e-05
4.90033e-05
-6.95755e-06
3.95822e-05
-3.59494e-06
6.32228e-05
5.3938e-08
6.07143e-07
6.4737e-05
9.53408e-08
1.42437e-06
6.66104e-05
5.68007e-08
2.32578e-06
6.84534e-05
-7.58995e-08
3.30027e-06
6.99544e-05
-3.11109e-07
4.35906e-06
7.0923e-05
-6.45274e-07
5.55083e-06
7.12651e-05
-1.07684e-06
6.97584e-06
7.09314e-05
-1.60719e-06
8.78783e-06
6.98757e-05
-2.2416e-06
1.11882e-05
6.79922e-05
-2.98455e-06
1.44556e-05
6.50987e-05
-3.83714e-06
1.89664e-05
6.07555e-05
-4.77405e-06
2.52941e-05
5.43228e-05
-5.73206e-06
3.42322e-05
4.40491e-05
-6.43571e-06
4.65095e-05
2.79849e-05
-6.21232e-06
6.14523e-05
-3.37031e-06
6.54809e-05
4.98215e-05
1.26804e-05
-3.23279e-09
3.90531e-05
1.07679e-05
-1.17447e-08