/*--------------------------------*- C++ -*----------------------------------*\
| =========                 |                                                 |
| \\      /  F ield         | OpenFOAM: The Open Source CFD Toolbox           |
|  \\    /   O peration     | Version:  v1912                                 |
|   \\  /    A nd           | Website:  www.openfoam.com                      |
|    \\/     M anipulation  |                                                 |
\*---------------------------------------------------------------------------*/
FoamFile
{
    version     2.0;
    format      ascii;
    class       volScalarField;
    location    "0.99/fluid";
    object      T;
}
// * * * * * * * * * * * * * * * * * * * * * * * * * * * * * * * * * * * * * //

dimensions      [0 0 0 1 0 0 0];


internalField   nonuniform List<scalar> 
14592
(
273.313
273.949
274.609
275.297
276.017
276.775
277.576
278.427
279.337
280.315
281.372
282.522
283.785
285.189
286.791
288.73
273.311
273.944
274.6
275.284
276
276.754
277.551
278.399
279.304
280.277
281.329
282.474
283.731
285.129
286.713
288.574
273.309
273.936
274.587
275.265
275.975
276.722
277.512
278.351
279.247
280.21
281.251
282.385
283.633
285.022
286.598
288.449
273.306
273.927
274.571
275.242
275.943
276.681
277.461
278.288
279.172
280.12
281.145
282.262
283.493
284.87
286.444
288.315
273.303
273.917
274.554
275.216
275.908
276.634
277.401
278.214
279.08
280.009
281.012
282.104
283.31
284.666
286.233
288.132
273.299
273.906
274.534
275.187
275.868
276.582
277.335
278.13
278.976
279.88
280.853
281.912
283.08
284.398
285.937
287.849
273.295
273.894
274.513
275.156
275.826
276.526
277.262
278.038
278.86
279.735
280.673
281.687
282.801
284.053
285.519
287.377
273.291
273.882
274.492
275.124
275.782
276.468
277.187
277.942
278.737
279.579
280.475
281.436
282.478
283.631
284.953
286.589
273.317
273.963
274.633
275.333
276.067
276.842
277.664
278.542
279.485
280.504
281.613
282.83
284.179
285.693
287.436
289.526
273.315
273.957
274.624
275.32
276.05
276.821
277.639
278.512
279.45
280.464
281.568
282.78
284.123
285.632
287.361
289.397
273.313
273.95
274.61
275.3
276.024
276.787
277.598
278.462
279.391
280.394
281.487
282.688
284.022
285.524
287.248
289.286
273.31
273.941
274.594
275.276
275.991
276.745
277.545
278.397
279.312
280.3
281.376
282.559
283.877
285.368
287.095
289.165
273.307
273.93
274.576
275.249
275.954
276.696
277.483
278.32
279.216
280.183
281.236
282.393
283.685
285.156
286.882
288.994
273.303
273.918
274.556
275.219
275.913
276.642
277.413
278.231
279.106
280.047
281.068
282.19
283.441
284.874
286.576
288.719
273.299
273.906
274.534
275.187
275.869
276.584
277.337
278.135
278.984
279.894
280.876
281.949
283.142
284.504
286.132
288.233
273.295
273.893
274.512
275.154
275.823
276.523
277.258
278.033
278.854
279.728
280.665
281.679
282.793
284.044
285.511
287.371
273.321
273.976
274.656
275.367
276.114
276.904
277.746
278.647
279.619
280.674
281.827
283.096
284.506
286.087
287.884
289.963
273.32
273.97
274.646
275.353
276.096
276.883
277.72
278.617
279.583
280.633
281.78
283.045
284.45
286.026
287.814
289.855
273.317
273.962
274.632
275.333
276.069
276.848
277.677
278.565
279.522
280.561
281.697
282.95
284.346
285.917
287.705
289.756
273.314
273.953
274.616
275.308
276.036
276.805
277.623
278.498
279.44
280.463
281.581
282.817
284.197
285.759
287.553
289.641
273.311
273.942
274.597
275.28
275.997
276.754
277.558
278.417
279.341
280.341
281.435
282.644
283.998
285.542
287.339
289.475
273.307
273.93
274.576
275.249
275.955
276.698
277.485
278.325
279.225
280.199
281.26
282.431
283.744
285.249
287.026
289.202
273.302
273.917
274.554
275.216
275.909
276.637
277.407
278.224
279.098
280.038
281.058
282.179
283.43
284.863
286.567
288.712
273.298
273.904
274.53
275.182
275.861
276.573
277.324
278.117
278.961
279.863
280.835
281.893
283.061
284.378
285.919
287.836
273.325
273.987
274.676
275.397
276.156
276.96
277.818
278.739
279.736
280.82
282.007
283.315
284.764
286.377
288.182
290.205
273.323
273.982
274.666
275.383
276.138
276.938
277.791
278.708
279.699
280.778
281.959
283.262
284.707
286.317
288.115
290.107
273.321
273.974
274.652
275.362
276.11
276.902
277.748
278.655
279.636
280.704
281.874
283.165
284.602
286.208
288.008
290.014
273.318
273.964
274.635
275.337
276.075
276.858
277.691
278.586
279.552
280.603
281.755
283.028
284.449
286.048
287.858
289.902
273.314
273.953
274.616
275.308
276.036
276.806
277.625
278.502
279.449
280.477
281.604
282.85
284.246
285.827
287.642
289.738
273.31
273.941
274.594
275.276
275.992
276.747
277.55
278.407
279.33
280.329
281.422
282.63
283.984
285.528
287.326
289.466
273.306
273.927
274.571
275.242
275.945
276.685
277.468
278.303
279.197
280.162
281.213
282.369
283.66
285.131
286.859
288.978
273.301
273.914
274.547
275.206
275.895
276.619
277.382
278.192
279.055
279.981
280.981
282.072
283.277
284.632
286.201
288.108
273.328
273.997
274.693
275.422
276.191
277.006
277.878
278.816
279.832
280.938
282.15
283.484
284.956
286.583
288.377
290.346
273.327
273.991
274.683
275.408
276.172
276.984
277.851
278.784
279.795
280.896
282.102
283.431
284.899
286.524
288.313
290.253
273.324
273.983
274.669
275.387
276.144
276.948
277.807
278.73
279.73
280.82
282.015
283.333
284.793
286.414
288.207
290.162
273.321
273.973
274.651
275.361
276.109
276.902
277.749
278.659
279.644
280.716
281.893
283.193
284.638
286.253
288.056
290.052
273.317
273.962
274.632
275.332
276.068
276.849
277.681
278.574
279.538
280.588
281.739
283.011
284.431
286.029
287.84
289.889
273.313
273.949
274.61
275.299
276.023
276.789
277.604
278.476
279.416
280.436
281.552
282.786
284.164
285.726
287.522
289.618
273.308
273.936
274.586
275.264
275.975
276.725
277.52
278.368
279.279
280.264
281.337
282.518
283.833
285.324
287.053
289.134
273.304
273.922
274.561
275.227
275.924
276.657
277.431
278.254
279.133
280.077
281.099
282.213
283.442
284.817
286.393
288.275
273.331
274.005
274.707
275.442
276.218
277.043
277.925
278.875
279.905
281.027
282.257
283.607
285.092
286.722
288.502
290.431
273.329
273.999
274.697
275.428
276.2
277.02
277.897
278.843
279.867
280.984
282.208
283.553
285.035
286.663
288.438
290.339
273.326
273.991
274.682
275.406
276.171
276.983
277.852
278.788
279.802
280.907
282.119
283.454
284.928
286.553
288.333
290.25
273.323
273.981
274.664
275.38
276.135
276.937
277.794
278.715
279.714
280.802
281.996
283.313
284.772
286.391
288.183
290.14
273.319
273.969
274.644
275.35
276.094
276.882
277.724
278.628
279.606
280.671
281.839
283.128
284.562
286.166
287.966
289.978
273.315
273.956
274.622
275.317
276.048
276.822
277.646
278.529
279.482
280.517
281.649
282.899
284.292
285.86
287.647
289.708
273.311
273.942
274.598
275.281
275.998
276.756
277.56
278.419
279.342
280.341
281.43
282.627
283.957
285.455
287.179
289.227
273.306
273.928
274.573
275.244
275.947
276.687
277.47
278.302
279.193
280.15
281.187
282.317
283.56
284.945
286.519
288.378
273.332
274.01
274.716
275.456
276.237
277.067
277.956
278.915
279.954
281.087
282.327
283.687
285.178
286.808
288.577
290.479
273.331
274.004
274.706
275.441
276.218
277.044
277.929
278.882
279.916
281.043
282.278
283.633
285.121
286.749
288.513
290.389
273.328
273.996
274.691
275.42
276.189
277.007
277.883
278.827
279.85
280.966
282.189
283.533
285.013
286.639
288.408
290.3
273.325
273.986
274.673
275.393
276.153
276.96
277.824
278.754
279.761
280.859
282.064
283.39
284.856
286.476
288.258
290.191
273.321
273.974
274.653
275.363
276.111
276.905
277.754
278.665
279.652
280.727
281.905
283.204
284.645
286.251
288.041
290.028
273.317
273.961
274.63
275.329
276.065
276.844
277.674
278.565
279.526
280.57
281.713
282.973
284.374
285.944
287.722
289.759
273.312
273.947
274.606
275.293
276.015
276.777
277.587
278.453
279.385
280.393
281.492
282.698
284.036
285.537
287.254
289.281
273.307
273.933
274.58
275.255
275.962
276.707
277.496
278.335
279.233
280.2
281.245
282.385
283.636
285.026
286.596
288.438
273.333
274.013
274.72
275.462
276.246
277.08
277.972
278.935
279.979
281.117
282.361
283.726
285.22
286.849
288.611
290.501
273.332
274.007
274.71
275.448
276.227
277.057
277.945
278.902
279.941
281.073
282.312
283.672
285.163
286.79
288.548
290.411
273.329
273.998
274.695
275.426
276.198
277.019
277.899
278.846
279.874
280.995
282.223
283.572
285.055
286.68
288.443
290.323
273.326
273.988
274.677
275.4
276.162
276.972
277.839
278.773
279.785
280.888
282.097
283.429
284.897
286.517
288.293
290.213
273.322
273.977
274.657
275.369
276.12
276.917
277.768
278.684
279.675
280.755
281.938
283.242
284.686
286.291
288.076
290.051
273.317
273.963
274.634
275.335
276.073
276.855
277.688
278.583
279.548
280.597
281.745
283.01
284.413
285.983
287.757
289.783
273.313
273.949
274.61
275.299
276.023
276.788
277.601
278.471
279.406
280.419
281.522
282.733
284.074
285.576
287.289
289.306
273.308
273.935
274.584
275.261
275.97
276.717
277.509
278.352
279.254
280.224
281.275
282.418
283.674
285.065
286.633
288.467
273.289
273.877
274.482
275.105
275.746
276.405
277.081
277.773
278.477
279.188
279.9
280.603
281.281
281.919
282.495
282.986
273.288
273.873
274.476
275.096
275.735
276.392
277.066
277.755
278.456
279.165
279.874
280.573
281.249
281.885
282.459
282.948
273.286
273.867
274.466
275.083
275.717
276.37
277.039
277.723
278.419
279.123
279.826
280.52
281.19
281.82
282.39
282.876
273.284
273.861
274.455
275.066
275.695
276.341
277.004
277.681
278.37
279.065
279.76
280.445
281.107
281.729
282.292
282.773
273.281
273.853
274.441
275.046
275.669
276.308
276.962
277.631
278.31
278.995
279.679
280.353
281.003
281.614
282.167
282.641
273.279
273.844
274.426
275.025
275.64
276.27
276.916
277.574
278.242
278.915
279.586
280.246
280.882
281.48
282.021
282.484
273.276
273.835
274.411
275.002
275.608
276.23
276.866
277.513
278.168
278.827
279.483
280.128
280.748
281.329
281.855
282.307
273.272
273.826
274.394
274.978
275.576
276.189
276.814
277.449
278.091
278.735
279.375
280.002
280.604
281.168
281.677
282.114
273.289
273.878
274.484
275.109
275.752
276.414
277.094
277.792
278.503
279.224
279.948
280.664
281.36
282.017
282.613
283.124
273.288
273.873
274.477
275.099
275.74
276.399
277.077
277.772
278.48
279.198
279.919
280.633
281.326
281.98
282.575
283.084
273.286
273.868
274.467
275.084
275.721
276.376
277.049
277.739
278.442
279.154
279.869
280.576
281.264
281.913
282.503
283.008
273.284
273.861
274.455
275.067
275.698
276.346
277.013
277.695
278.391
279.095
279.801
280.499
281.177
281.818
282.401
282.901
273.282
273.853
274.441
275.047
275.671
276.312
276.97
277.644
278.329
279.023
279.717
280.404
281.07
281.7
282.272
282.764
273.279
273.844
274.426
275.025
275.641
276.274
276.923
277.586
278.26
278.941
279.622
280.294
280.945
281.56
282.119
282.6
273.276
273.835
274.41
275.002
275.61
276.234
276.872
277.524
278.185
278.851
279.517
280.172
280.806
281.404
281.946
282.414
273.273
273.825
274.394
274.978
275.578
276.192
276.82
277.459
278.106
278.757
279.406
280.043
280.657
281.235
281.76
282.211
273.291
273.881
274.49
275.119
275.767
276.436
277.124
277.833
278.558
279.297
280.044
280.789
281.52
282.217
282.855
283.406
273.289
273.877
274.483
275.108
275.754
276.42
277.106
277.811
278.534
279.27
280.013
280.756
281.483
282.177
282.814
283.363
273.287
273.871
274.472
275.093
275.733
276.394
277.076
277.776
278.492
279.222
279.96
280.695
281.416
282.105
282.737
283.283
273.285
273.864
274.46
275.075
275.709
276.364
277.038
277.73
278.439
279.16
279.888
280.614
281.325
282.004
282.628
283.168
273.283
273.856
274.446
275.054
275.682
276.328
276.994
277.676
278.375
279.085
279.8
280.513
281.212
281.878
282.491
283.021
273.28
273.847
274.43
275.032
275.651
276.289
276.945
277.617
278.303
278.999
279.7
280.397
281.079
281.729
282.326
282.844
273.277
273.837
274.414
275.008
275.619
276.248
276.892
277.552
278.224
278.905
279.589
280.268
280.93
281.56
282.138
282.639
273.273
273.827
274.397
274.984
275.586
276.204
276.838
277.485
278.143
278.807
279.472
280.13
280.77
281.377
281.933
282.415
273.293
273.888
274.502
275.136
275.792
276.47
277.171
277.896
278.642
279.408
280.189
280.977
281.76
282.519
283.226
283.843
273.291
273.883
274.494
275.125
275.778
276.453
277.151
277.873
278.616
279.379
280.156
280.941
281.721
282.477
283.181
283.797
273.29
273.877
274.483
275.109
275.757
276.427
277.12
277.835
278.572
279.328
280.099
280.877
281.649
282.399
283.098
283.711
273.287
273.87
274.47
275.09
275.731
276.394
277.08
277.787
278.515
279.262
280.022
280.789
281.551
282.291
282.981
283.587
273.284
273.861
274.456
275.069
275.703
276.357
277.034
277.731
278.448
279.182
279.929
280.681
281.428
282.153
282.831
283.426
273.281
273.852
274.44
275.046
275.671
276.317
276.983
277.668
278.372
279.091
279.821
280.556
281.284
281.989
282.648
283.228
273.278
273.842
274.423
275.021
275.638
276.274
276.928
277.6
278.289
278.991
279.703
280.416
281.12
281.801
282.436
282.995
273.275
273.832
274.406
274.996
275.604
276.229
276.871
277.53
278.203
278.887
279.577
280.266
280.944
281.596
282.202
282.734
273.296
273.897
274.518
275.161
275.826
276.517
277.234
277.979
278.752
279.553
280.378
281.223
282.077
282.923
283.729
284.45
273.294
273.892
274.51
275.149
275.811
276.499
277.213
277.955
278.724
279.521
280.343
281.184
282.034
282.877
283.681
284.4
273.292
273.886
274.498
275.132
275.789
276.471
277.18
277.915
278.678
279.468
280.281
281.115
281.958
282.793
283.592
284.306
273.29
273.878
274.485
275.112
275.763
276.437
277.138
277.864
278.618
279.397
280.199
281.02
281.851
282.675
283.464
284.172
273.287
273.869
274.47
275.09
275.733
276.399
277.089
277.805
278.546
279.311
280.099
280.904
281.717
282.524
283.298
283.994
273.284
273.86
274.454
275.066
275.7
276.356
277.036
277.738
278.465
279.214
279.983
280.767
281.558
282.341
283.092
283.769
273.281
273.85
274.436
275.041
275.665
276.311
276.978
277.667
278.377
279.107
279.854
280.613
281.376
282.129
282.849
283.497
273.277
273.839
274.418
275.014
275.629
276.264
276.918
277.592
278.284
278.994
279.716
280.447
281.177
281.893
282.574
283.184
273.299
273.908
274.538
275.19
275.868
276.574
277.31
278.079
278.883
279.725
280.603
281.517
282.46
283.419
284.365
285.243
273.298
273.903
274.529
275.178
275.853
276.555
277.288
278.054
278.854
279.691
280.565
281.475
282.414
283.37
284.313
285.187
273.296
273.897
274.518
275.161
275.83
276.526
277.253
278.012
278.805
279.634
280.5
281.401
282.332
283.279
284.216
285.086
273.293
273.889
274.504
275.14
275.802
276.491
277.209
277.958
278.741
279.559
280.412
281.299
282.216
283.151
284.078
284.941
273.29
273.88
274.488
275.117
275.771
276.45
277.157
277.895
278.665
279.467
280.303
281.172
282.07
282.986
283.895
284.746
273.287
273.87
274.471
275.092
275.736
276.405
277.101
277.825
278.578
279.362
280.177
281.022
281.893
282.781
283.663
284.491
273.284
273.859
274.453
275.065
275.7
276.357
277.04
277.748
278.484
279.246
280.036
280.851
281.688
282.538
283.379
284.169
273.28
273.848
274.434
275.038
275.662
276.308
276.976
277.668
278.384
279.123
279.885
280.666
281.462
282.263
283.049
283.78
273.304
273.921
274.56
275.224
275.915
276.638
277.395
278.191
279.03
279.916
280.853
281.844
282.891
283.99
285.122
286.238
273.302
273.916
274.552
275.212
275.899
276.618
277.372
278.164
278.999
279.881
280.813
281.8
282.842
283.937
285.064
286.17
273.3
273.909
274.539
275.194
275.876
276.588
277.335
278.12
278.947
279.82
280.743
281.721
282.754
283.84
284.96
286.06
273.297
273.901
274.525
275.172
275.847
276.551
277.289
278.063
278.879
279.739
280.649
281.611
282.63
283.702
284.812
285.908
273.294
273.892
274.509
275.148
275.814
276.508
277.235
277.997
278.798
279.641
280.532
281.474
282.47
283.521
284.615
285.702
273.291
273.881
274.491
275.122
275.778
276.461
277.175
277.922
278.705
279.528
280.395
281.309
282.275
283.293
284.356
285.421
273.287
273.87
274.472
275.094
275.739
276.411
277.11
277.84
278.604
279.403
280.241
281.12
282.045
283.015
284.025
285.039
273.284
273.859
274.452
275.065
275.7
276.358
277.043
277.755
278.497
279.269
280.074
280.913
281.787
282.694
283.625
284.546
273.308
273.935
274.585
275.26
275.966
276.706
277.485
278.309
279.183
280.116
281.114
282.187
283.344
284.599
285.962
287.433
273.307
273.93
274.576
275.247
275.949
276.686
277.461
278.281
279.151
280.079
281.072
282.14
283.293
284.542
285.895
287.336
273.304
273.923
274.563
275.229
275.925
276.654
277.423
278.235
279.097
280.015
280.999
282.056
283.199
284.439
285.784
287.216
273.301
273.914
274.548
275.207
275.895
276.615
277.374
278.175
279.025
279.93
280.898
281.939
283.066
284.293
285.631
287.067
273.298
273.904
274.531
275.182
275.86
276.571
277.317
278.105
278.939
279.825
280.773
281.791
282.894
284.099
285.423
286.863
273.295
273.893
274.512
275.154
275.822
276.521
277.254
278.025
278.84
279.704
280.625
281.612
282.681
283.849
285.141
286.568
273.291
273.882
274.492
275.125
275.782
276.468
277.186
277.939
278.731
279.569
280.457
281.405
282.425
283.536
284.763
286.13
273.287
273.87
274.472
275.094
275.74
276.413
277.114
277.848
278.616
279.424
280.275
281.175
282.134
283.163
284.28
285.497
273.287
273.869
274.47
275.092
275.738
276.41
277.11
277.843
278.611
279.418
280.269
281.169
282.127
283.157
284.274
285.492
273.283
273.857
274.45
275.062
275.695
276.353
277.036
277.747
278.488
279.259
280.063
280.902
281.775
282.682
283.613
284.535
273.279
273.847
274.431
275.033
275.656
276.301
276.968
277.658
278.372
279.11
279.87
280.65
281.446
282.247
283.033
283.765
273.276
273.837
274.414
275.009
275.622
276.255
276.908
277.58
278.27
278.978
279.699
280.428
281.158
281.874
282.555
283.166
273.274
273.83
274.401
274.99
275.596
276.219
276.859
277.516
278.187
278.869
279.558
280.246
280.923
281.575
282.182
282.715
273.272
273.825
274.393
274.977
275.577
276.194
276.825
277.47
278.126
278.788
279.452
280.108
280.748
281.354
281.911
282.394
273.272
273.822
274.389
274.971
275.568
276.18
276.806
277.443
278.088
278.737
279.384
280.02
280.634
281.212
281.737
282.19
273.271
273.823
274.389
274.971
275.567
276.177
276.8
277.432
278.073
278.715
279.353
279.979
280.58
281.144
281.654
282.093
273.29
273.88
274.489
275.12
275.777
276.461
277.177
277.929
278.72
279.556
280.443
281.39
282.41
283.521
284.749
286.117
273.286
273.868
274.468
275.088
275.732
276.401
277.099
277.827
278.589
279.386
280.222
281.101
282.025
282.995
284.005
285.02
273.283
273.856
274.448
275.059
275.691
276.346
277.026
277.732
278.466
279.226
280.014
280.828
281.664
282.513
283.355
284.146
273.28
273.847
274.431
275.033
275.655
276.298
276.963
277.649
278.357
279.084
279.829
280.587
281.349
282.102
282.822
283.472
273.277
273.839
274.417
275.013
275.627
276.26
276.912
277.581
278.267
278.967
279.677
280.388
281.092
281.773
282.408
282.968
273.275
273.834
274.408
274.999
275.608
276.233
276.875
277.532
278.202
278.88
279.562
280.239
280.9
281.53
282.108
282.612
273.274
273.831
274.404
274.993
275.598
276.219
276.854
277.503
278.161
278.825
279.488
280.142
280.775
281.373
281.917
282.386
273.274
273.831
274.404
274.992
275.596
276.215
276.847
277.491
278.144
278.801
279.455
280.097
280.717
281.298
281.825
282.278
273.294
273.891
274.507
275.147
275.813
276.509
277.239
278.008
278.82
279.682
280.601
281.587
282.655
283.823
285.116
286.547
273.29
273.878
274.485
275.113
275.767
276.447
277.158
277.901
278.682
279.503
280.367
281.279
282.244
283.262
284.325
285.392
273.286
273.866
274.464
275.083
275.724
276.389
277.081
277.802
278.552
279.333
280.146
280.989
281.859
282.746
283.629
284.459
273.282
273.856
274.446
275.056
275.686
276.339
277.015
277.714
278.437
279.183
279.949
280.731
281.521
282.304
283.056
283.734
273.28
273.847
274.432
275.035
275.657
276.299
276.961
277.643
278.343
279.059
279.787
280.519
281.246
281.951
282.61
283.192
273.278
273.842
274.422
275.02
275.636
276.27
276.922
277.59
278.273
278.966
279.664
280.359
281.04
281.69
282.288
282.808
273.277
273.839
274.418
275.014
275.626
276.255
276.9
277.559
278.229
278.907
279.585
280.256
280.906
281.521
282.081
282.565
273.277
273.839
274.418
275.013
275.624
276.251
276.892
277.547
278.211
278.881
279.549
280.207
280.843
281.441
281.983
282.449
273.297
273.9
274.523
275.171
275.846
276.552
277.295
278.079
278.909
279.792
280.737
281.753
282.854
284.059
285.384
286.829
273.292
273.886
274.5
275.136
275.797
276.488
277.21
277.967
278.764
279.604
280.492
281.431
282.426
283.476
284.57
285.661
273.289
273.874
274.479
275.104
275.753
276.428
277.131
277.864
278.629
279.428
280.26
281.127
282.023
282.938
283.848
284.701
273.285
273.864
274.46
275.076
275.714
276.375
277.061
277.772
278.509
279.27
280.054
280.857
281.669
282.475
283.249
283.947
273.282
273.855
274.445
275.054
275.684
276.333
277.005
277.697
278.41
279.14
279.883
280.634
281.379
282.104
282.782
283.38
273.28
273.849
274.435
275.039
275.662
276.304
276.964
277.642
278.336
279.042
279.755
280.465
281.162
281.829
282.442
282.976
273.279
273.847
274.431
275.032
275.651
276.288
276.941
277.609
278.29
278.98
279.672
280.356
281.021
281.651
282.224
282.72
273.279
273.847
274.431
275.031
275.649
276.283
276.932
277.596
278.271
278.952
279.633
280.305
280.954
281.566
282.12
282.597
273.299
273.908
274.537
275.191
275.873
276.588
277.341
278.137
278.982
279.882
280.847
281.885
283.009
284.234
285.573
287.014
273.295
273.894
274.513
275.155
275.824
276.522
277.254
278.023
278.833
279.689
280.594
281.553
282.569
283.64
284.75
285.849
273.291
273.881
274.491
275.122
275.778
276.46
277.172
277.916
278.693
279.506
280.355
281.239
282.154
283.088
284.014
284.879
273.287
273.871
274.472
275.094
275.738
276.406
277.1
277.821
278.569
279.343
280.141
280.959
281.788
282.612
283.401
284.111
273.285
273.862
274.457
275.071
275.706
276.363
277.042
277.743
278.466
279.208
279.964
280.728
281.489
282.228
282.919
283.528
273.283
273.856
274.447
275.056
275.684
276.332
277
277.686
278.39
279.106
279.83
280.554
281.264
281.943
282.568
283.112
273.282
273.853
274.442
275.048
275.673
276.315
276.975
277.652
278.342
279.041
279.744
280.44
281.117
281.758
282.343
282.847
273.281
273.853
274.441
275.047
275.67
276.31
276.967
277.638
278.321
279.012
279.704
280.387
281.047
281.67
282.234
282.72
273.301
273.914
274.547
275.206
275.895
276.617
277.378
278.183
279.038
279.951
280.93
281.983
283.121
284.358
285.7
287.133
273.297
273.9
274.523
275.17
275.844
276.549
277.288
278.066
278.886
279.753
280.671
281.645
282.674
283.757
284.875
285.975
273.293
273.887
274.501
275.137
275.797
276.486
277.204
277.956
278.743
279.566
280.427
281.323
282.251
283.197
284.134
285.004
273.289
273.876
274.481
275.107
275.757
276.43
277.131
277.859
278.615
279.399
280.208
281.038
281.878
282.713
283.512
284.229
273.286
273.867
274.466
275.084
275.724
276.386
277.071
277.779
278.51
279.26
280.026
280.801
281.572
282.321
283.022
283.638
273.284
273.861
274.455
275.068
275.701
276.354
277.028
277.721
278.431
279.156
279.889
280.622
281.341
282.03
282.664
283.214
273.283
273.858
274.45
275.06
275.689
276.337
277.003
277.685
278.382
279.089
279.8
280.505
281.191
281.84
282.433
282.943
273.283
273.858
274.45
275.059
275.686
276.331
276.993
277.671
278.361
279.059
279.759
280.45
281.119
281.75
282.322
282.814
273.303
273.918
274.555
275.217
275.909
276.636
277.402
278.214
279.077
279.998
280.985
282.047
283.194
284.436
285.779
287.205
273.298
273.904
274.53
275.18
275.858
276.567
277.311
278.095
278.922
279.797
280.723
281.705
282.743
283.833
284.954
286.053
273.294
273.891
274.507
275.146
275.811
276.503
277.226
277.983
278.776
279.607
280.475
281.38
282.316
283.269
284.21
285.083
273.29
273.88
274.488
275.117
275.769
276.447
277.152
277.885
278.647
279.437
280.253
281.09
281.938
282.78
283.584
284.306
273.287
273.871
274.472
275.093
275.736
276.402
277.091
277.804
278.54
279.296
280.068
280.85
281.627
282.383
283.09
283.711
273.285
273.864
274.461
275.077
275.713
276.37
277.047
277.744
278.46
279.19
279.929
280.668
281.393
282.088
282.728
283.283
273.284
273.861
274.456
275.069
275.701
276.352
277.021
277.708
278.41
279.122
279.838
280.549
281.241
281.896
282.494
283.008
273.284
273.861
274.456
275.068
275.698
276.346
277.012
277.693
278.388
279.091
279.796
280.493
281.168
281.804
282.381
282.877
273.303
273.92
274.559
275.223
275.917
276.646
277.415
278.229
279.096
280.021
281.013
282.079
283.23
284.474
285.817
287.238
273.299
273.906
274.534
275.186
275.865
276.576
277.323
278.11
278.94
279.819
280.749
281.735
282.777
283.869
284.992
286.09
273.295
273.893
274.511
275.151
275.817
276.512
277.238
277.997
278.793
279.627
280.499
281.408
282.348
283.304
284.247
285.121
273.291
273.882
274.491
275.122
275.776
276.455
277.162
277.898
278.663
279.456
280.276
281.116
281.968
282.813
283.62
284.343
273.288
273.872
274.475
275.098
275.742
276.41
277.101
277.816
278.555
279.314
280.09
280.874
281.655
282.414
283.124
283.746
273.286
273.866
274.464
275.082
275.719
276.377
277.057
277.756
278.474
279.207
279.949
280.691
281.42
282.117
282.76
283.317
273.285
273.863
274.459
275.073
275.707
276.359
277.031
277.72
278.424
279.139
279.858
280.571
281.266
281.924
282.524
283.041
273.285
273.863
274.459
275.072
275.704
276.353
277.021
277.705
278.402
279.108
279.815
280.515
281.192
281.831
282.411
282.909
273.269
273.816
274.378
274.954
275.544
276.147
276.762
277.385
278.013
278.643
279.266
279.874
280.458
281.002
281.494
281.915
273.266
273.807
274.362
274.932
275.514
276.108
276.712
277.323
277.938
278.552
279.159
279.749
280.313
280.839
281.312
281.718
273.264
273.799
274.348
274.911
275.486
276.071
276.666
277.266
277.869
278.469
279.059
279.632
280.178
280.685
281.141
281.532
273.261
273.792
274.336
274.893
275.461
276.04
276.626
277.216
277.808
278.395
278.971
279.528
280.057
280.548
280.988
281.365
273.26
273.786
274.326
274.879
275.442
276.015
276.594
277.176
277.758
278.334
278.898
279.442
279.957
280.433
280.859
281.224
273.258
273.782
274.32
274.869
275.429
275.997
276.57
277.146
277.721
278.288
278.842
279.376
279.879
280.344
280.759
281.115
273.258
273.78
274.316
274.864
275.422
275.987
276.557
277.128
277.698
278.259
278.806
279.332
279.828
280.285
280.693
281.042
273.257
273.78
274.316
274.863
275.419
275.983
276.551
277.121
277.687
278.246
278.79
279.312
279.804
280.256
280.66
281.006
273.269
273.816
274.377
274.954
275.545
276.15
276.767
277.394
278.027
278.662
279.293
279.911
280.505
281.062
281.566
282.001
273.266
273.807
274.362
274.931
275.514
276.11
276.716
277.331
277.95
278.57
279.183
279.781
280.355
280.891
281.375
281.792
273.264
273.798
274.347
274.91
275.486
276.073
276.669
277.273
277.879
278.484
279.08
279.66
280.214
280.73
281.195
281.594
273.261
273.791
274.335
274.892
275.461
276.041
276.629
277.222
277.817
278.408
278.989
279.553
280.089
280.586
281.033
281.418
273.26
273.786
274.325
274.878
275.442
276.016
276.596
277.181
277.766
278.346
278.914
279.463
279.984
280.466
280.898
281.269
273.258
273.782
274.319
274.868
275.429
275.998
276.574
277.152
277.729
278.3
278.858
279.396
279.904
280.374
280.794
281.155
273.258
273.78
274.316
274.864
275.422
275.989
276.561
277.135
277.706
278.271
278.822
279.352
279.852
280.313
280.725
281.079
273.258
273.78
274.316
274.864
275.421
275.986
276.556
277.128
277.697
278.259
278.806
279.332
279.828
280.284
280.692
281.041
273.27
273.818
274.381
274.959
275.553
276.161
276.784
277.418
278.06
278.707
279.353
279.989
280.606
281.188
281.719
282.179
273.267
273.809
274.365
274.936
275.521
276.12
276.731
277.353
277.98
278.61
279.237
279.851
280.444
281.001
281.507
281.945
273.264
273.8
274.35
274.914
275.492
276.082
276.683
277.292
277.906
278.52
279.128
279.722
280.292
280.825
281.308
281.724
273.262
273.793
274.337
274.896
275.467
276.05
276.642
277.24
277.842
278.441
279.032
279.607
280.156
280.668
281.13
281.528
273.26
273.787
274.328
274.881
275.447
276.024
276.608
277.198
277.789
278.376
278.953
279.512
280.044
280.537
280.981
281.363
273.259
273.783
274.321
274.872
275.434
276.006
276.585
277.168
277.751
278.328
278.894
279.44
279.958
280.438
280.868
281.238
273.258
273.782
274.319
274.868
275.428
275.997
276.573
277.151
277.728
278.299
278.857
279.395
279.903
280.373
280.793
281.154
273.258
273.782
274.319
274.869
275.428
275.996
276.569
277.145
277.719
278.287
278.841
279.374
279.878
280.342
280.758
281.114
273.272
273.822
274.388
274.971
275.569
276.184
276.814
277.459
278.115
278.78
279.448
280.112
280.761
281.383
281.956
282.458
273.269
273.813
274.372
274.946
275.536
276.141
276.76
277.391
278.031
278.676
279.322
279.96
280.581
281.171
281.712
282.183
273.266
273.804
274.357
274.924
275.506
276.102
276.709
277.327
277.952
278.58
279.205
279.818
280.412
280.971
281.482
281.924
273.263
273.796
274.344
274.905
275.48
276.068
276.666
277.272
277.884
278.495
279.101
279.693
280.261
280.794
281.278
281.695
273.261
273.791
274.334
274.89
275.46
276.041
276.631
277.228
277.828
278.426
279.015
279.588
280.136
280.647
281.108
281.506
273.26
273.787
274.327
274.881
275.447
276.023
276.607
277.197
277.788
278.375
278.951
279.51
280.042
280.536
280.98
281.362
273.259
273.785
274.325
274.877
275.441
276.014
276.595
277.179
277.764
278.343
278.912
279.46
279.981
280.463
280.895
281.267
273.259
273.786
274.326
274.878
275.441
276.013
276.591
277.174
277.755
278.331
278.894
279.438
279.953
280.429
280.855
281.221
273.274
273.829
274.4
274.988
275.593
276.217
276.858
277.517
278.191
278.878
279.575
280.275
280.97
281.645
282.28
282.845
273.271
273.819
274.383
274.963
275.559
276.172
276.8
277.444
278.1
278.766
279.437
280.106
280.764
281.398
281.988
282.507
273.268
273.81
274.367
274.94
275.527
276.13
276.747
277.376
278.016
278.661
279.307
279.947
280.571
281.166
281.714
282.193
273.265
273.802
274.354
274.92
275.5
276.095
276.701
277.318
277.942
278.569
279.193
279.806
280.4
280.961
281.473
281.918
273.263
273.796
274.343
274.904
275.479
276.066
276.664
277.271
277.882
278.493
279.098
279.69
280.259
280.792
281.275
281.693
273.262
273.792
274.337
274.895
275.465
276.048
276.639
277.237
277.838
278.437
279.028
279.603
280.152
280.664
281.126
281.524
273.261
273.791
274.334
274.89
275.459
276.038
276.626
277.219
277.813
278.404
278.984
279.547