/*--------------------------------*- C++ -*----------------------------------*\
| =========                 |                                                 |
| \\      /  F ield         | OpenFOAM: The Open Source CFD Toolbox           |
|  \\    /   O peration     | Version:  v1912                                 |
|   \\  /    A nd           | Website:  www.openfoam.com                      |
|    \\/     M anipulation  |                                                 |
\*---------------------------------------------------------------------------*/
FoamFile
{
    version     2.0;
    format      ascii;
    class       volScalarField;
    location    "0.54/fluid";
    object      p;
}
// * * * * * * * * * * * * * * * * * * * * * * * * * * * * * * * * * * * * * //

dimensions      [0 2 -2 0 0 0 0];


internalField   nonuniform List<scalar> 
14592
(
0.0569186
0.051326
0.0494535
0.0478795
0.0469626
0.0462273
0.0456269
0.045096
0.0445897
0.0441733
0.0437097
0.0434765
0.0429583
0.0432099
0.0423919
0.044467
0.0527266
0.0509881
0.0493231
0.0479841
0.0470663
0.0463219
0.0457052
0.0451682
0.0446633
0.0442587
0.0438133
0.0436212
0.043143
0.0435517
0.0427266
0.0458021
0.0507604
0.0501461
0.048918
0.0479233
0.0470718
0.0463513
0.0457244
0.0451792
0.0446707
0.0442736
0.043849
0.0437074
0.0432917
0.0438737
0.0431107
0.0468777
0.0495711
0.0494149
0.0485507
0.047791
0.0470237
0.0463357
0.0457051
0.0451497
0.0446307
0.0442312
0.0438145
0.0437094
0.0433463
0.0440741
0.0434288
0.0475624
0.0488641
0.0488317
0.0481919
0.0475852
0.046895
0.0462412
0.0456111
0.0450409
0.0444971
0.0440683
0.0436176
0.0434863
0.0430903
0.0438513
0.0432122
0.0476125
0.0483932
0.0483997
0.0479005
0.0473858
0.0467512
0.0461212
0.0454895
0.0449033
0.0443344
0.0438774
0.0434005
0.0432632
0.0428825
0.0437722
0.0432947
0.0481886
0.0480867
0.0481016
0.0476745
0.0472062
0.0465995
0.0459742
0.0453261
0.0447044
0.0440807
0.0435437
0.0429545
0.0426555
0.0420335
0.0426205
0.041595
0.046526
0.0479023
0.0479196
0.0475224
0.0470703
0.0464692
0.045835
0.0451647
0.0445076
0.0438377
0.0432413
0.0425899
0.0422296
0.0415852
0.0423323
0.0415687
0.0488412
0.0568194
0.0512288
0.0493931
0.04786
0.0469964
0.0463205
0.0457877
0.0453337
0.0449166
0.0446004
0.0442561
0.0441249
0.0437456
0.0439025
0.0431981
0.0439277
0.0526274
0.050889
0.0492618
0.0479642
0.0471007
0.0464165
0.0458681
0.0454088
0.044994
0.0446904
0.0443641
0.0442695
0.0439196
0.0441725
0.0434223
0.0445846
0.0506576
0.050042
0.0488506
0.0478972
0.0471005
0.0464407
0.0458825
0.0454152
0.0449965
0.0447002
0.0443923
0.0443451
0.0440458
0.044439
0.0437071
0.0452429
0.0494662
0.049308
0.0484796
0.0477602
0.047047
0.0464191
0.0458564
0.0453781
0.0449477
0.0446482
0.0443459
0.044334
0.0440788
0.0446016
0.0439524
0.0457165
0.0487562
0.0487217
0.0481166
0.047549
0.0469114
0.0463161
0.0457516
0.0452558
0.0447964
0.0444631
0.0441186
0.0440737
0.043766
0.0443085
0.0436109
0.0455763
0.0482824
0.0482868
0.0478215
0.0473448
0.0467609
0.0461875
0.0456189
0.045104
0.0446154
0.0442504
0.0438737
0.0438231
0.043521
0.044207
0.043637
0.046079
0.0479723
0.0479852
0.0475912
0.0471596
0.0466014
0.0460299
0.0454409
0.0448851
0.0443336
0.0438781
0.0433711
0.043141
0.042551
0.0429181
0.0416548
0.0441472
0.0477841
0.0477994
0.0474346
0.0470181
0.0464636
0.0458806
0.0452657
0.0446699
0.044066
0.0435451
0.0429675
0.0426786
0.0420597
0.0426522
0.0416183
0.0465593
0.056758
0.051169
0.0493615
0.047862
0.0470444
0.0464225
0.0459552
0.0455804
0.0452643
0.0450749
0.0449102
0.0449979
0.0449929
0.0455093
0.0456489
0.0465146
0.052566
0.0508279
0.0492297
0.0479663
0.0471497
0.0465202
0.0460382
0.0456594
0.0453473
0.0451727
0.0450291
0.0451564
0.0451871
0.0457943
0.0459291
0.0471242
0.0505928
0.0499761
0.0488128
0.0478935
0.0471439
0.0465395
0.0460481
0.0456616
0.0453455
0.0451786
0.0450533
0.0452301
0.0453149
0.0460692
0.0462653
0.0477941
0.0493988
0.0492393
0.0484379
0.0477518
0.0470851
0.046512
0.0460154
0.0456173
0.0452885
0.0451182
0.0449975
0.0452124
0.0453431
0.0462368
0.0465304
0.0482814
0.0486855
0.0486495
0.0480705
0.0475349
0.0469425
0.0464005
0.0458999
0.0454817
0.0451199
0.0449115
0.044741
0.0449178
0.0449811
0.0458926
0.0461075
0.0480526
0.0482086
0.0482116
0.0477715
0.0473256
0.0467852
0.046263
0.0457557
0.0453152
0.0449196
0.0446748
0.0444638
0.0446308
0.0446821
0.0457406
0.0460367
0.0484607
0.0478948
0.0479062
0.0475367
0.0471346
0.0466179
0.0460949
0.045563
0.0450759
0.0446084
0.0442612
0.0438978
0.0438594
0.0435594
0.0442485
0.0436583
0.0460901
0.0477027
0.0477166
0.0473756
0.0469874
0.0464724
0.0459352
0.0453736
0.044841
0.0443131
0.0438901
0.0434385
0.0433246
0.042951
0.0438539
0.0433529
0.0482607
0.0567209
0.0511329
0.0493465
0.0478729
0.0470908
0.0465103
0.046092
0.0457729
0.0455217
0.0453999
0.0453164
0.0454597
0.0455415
0.046011
0.0462166
0.0468327
0.052529
0.0507908
0.0492143
0.0479773
0.0471968
0.0466094
0.046177
0.0458544
0.0456079
0.0455015
0.0454392
0.0456196
0.0457327
0.0462712
0.0464573
0.0473013
0.0505525
0.0499348
0.0487924
0.0478993
0.0471861
0.0466241
0.0461825
0.0458523
0.0456012
0.0455016
0.0454544
0.0456793
0.0458356
0.0464982
0.0467226
0.047829
0.049356
0.0491952
0.0484139
0.0477532
0.0471224
0.0465912
0.0461438
0.0458013
0.0455363
0.0454322
0.0453868
0.0456472
0.0458407
0.0466312
0.0469295
0.0482294
0.0486396
0.0486021
0.0480423
0.0475311
0.0469734
0.0464721
0.046019
0.0456544
0.0453533
0.0452078
0.0451064
0.0453235
0.0454354
0.046234
0.04642
0.0478998
0.0481597
0.0481612
0.0477396
0.0473171
0.0468101
0.046327
0.0458652
0.045476
0.0451379
0.0449532
0.044806
0.0450117
0.0451008
0.0460481
0.0462853
0.0482401
0.0478424
0.0478524
0.0475006
0.0471208
0.0466359
0.0461499
0.0456607
0.0452211
0.0448056
0.0445122
0.0442017
0.0441937
0.0439062
0.0444771
0.0437598
0.0457141
0.0476466
0.0476594
0.0473355
0.0469686
0.0464839
0.0459817
0.0454599
0.0449715
0.0444909
0.0441174
0.0437118
0.0436276
0.0432555
0.0440576
0.0433954
0.047832
0.0567013
0.0511141
0.049344
0.047891
0.0471379
0.0465923
0.0462169
0.0459484
0.0457597
0.0457089
0.0457184
0.0459511
0.0461716
0.0467143
0.0471043
0.0476586
0.0525094
0.0507714
0.0492117
0.0479957
0.0472448
0.0466928
0.046304
0.0460329
0.0458501
0.045816
0.0458485
0.0461196
0.0463734
0.0469793
0.0473532
0.048091
0.0505302
0.0499119
0.0487857
0.0479134
0.04723
0.0467039
0.046306
0.0460275
0.0458397
0.0458119
0.0458578
0.0461708
0.0464622
0.0471814
0.047585
0.0485556
0.0493316
0.0491699
0.0484041
0.0477637
0.0471621
0.0466664
0.0462622
0.0459708
0.0457682
0.0457353
0.0457811
0.0461284
0.0464523
0.0472949
0.0477612
0.0489146
0.0486123
0.0485739
0.0480287
0.047537
0.0470075
0.0465406
0.0461294
0.0458141
0.0455728
0.0454957
0.0454802
0.0457803
0.0460118
0.0468564
0.0471873
0.0485142
0.0481296
0.0481302
0.0477227
0.0473188
0.0468389
0.0463888
0.045967
0.045625
0.0453436
0.0452241
0.0451573
0.0454426
0.0456397
0.0466298
0.0469844
0.0487826
0.0478092
0.0478184
0.04748
0.0471179
0.0466587
0.0462038
0.0457519
0.0453562
0.0449922
0.044758
0.0445172
0.0445788
0.0443746
0.0449735
0.0443112
0.0460896
0.0476104
0.0476223
0.0473113
0.0469612
0.0465008
0.0460279
0.0455407
0.0450927
0.0446587
0.0443388
0.0439934
0.0439713
0.0436625
0.0444865
0.0438286
0.048079
0.0566914
0.0511049
0.0493461
0.0479076
0.0471747
0.0466531
0.0463064
0.0460698
0.0459179
0.0459029
0.0459536
0.0462103
0.0464665
0.0469878
0.0473938
0.0478904
0.0524996
0.0507616
0.0492136
0.0480125
0.0472822
0.0467547
0.0463948
0.046156
0.0460103
0.0460125
0.0460866
0.0463808
0.0466688
0.0472468
0.0476321
0.048285
0.0505183
0.0498994
0.0487845
0.0479269
0.0472642
0.0467628
0.046394
0.0461478
0.0459966
0.0460043
0.0460895
0.0464223
0.0467411
0.0474214
0.0478238
0.0486902
0.0493179
0.0491554
0.0484004
0.0477742
0.0471931
0.0467217
0.0463462
0.0460868
0.04592
0.0459217
0.0460048
0.04637
0.0467157
0.0475134
0.047966
0.049008
0.0485963
0.0485571
0.0480221
0.047544
0.0470342
0.0465909
0.0462074
0.0459229
0.0457156
0.0456713
0.0456897
0.0460047
0.0462505
0.0470447
0.0473454
0.0485572
0.0481115
0.0481113
0.0477135
0.0473226
0.0468615
0.0464341
0.0460387
0.0457262
0.0454769
0.0453885
0.0453523
0.045651
0.0458556
0.0467935
0.047101
0.0487829
0.0477886
0.047797
0.047468
0.0471182
0.0466768
0.0462433
0.0458161
0.0454478
0.045113
0.044907
0.0446917
0.0447634
0.044556
0.0450984
0.0443603
0.046012
0.0475873
0.0475985
0.0472965
0.0469581
0.0465146
0.0460618
0.0455978
0.0451752
0.0447678
0.0444735
0.0441498
0.0441365
0.0438178
0.0445875
0.0438354
0.0479546
0.0566877
0.0511015
0.0493504
0.0479217
0.0472027
0.046698
0.0463719
0.0461591
0.0460355
0.0460504
0.0461377
0.0464238
0.0467213
0.0472528
0.0476929
0.0481635
0.0524959
0.050758
0.0492178
0.0480268
0.0473107
0.0468004
0.0464615
0.0462469
0.0461302
0.0461631
0.0462745
0.0465987
0.0469287
0.047515
0.0479342
0.0485466
0.0505132
0.0498939
0.0487866
0.0479389
0.0472906
0.0468066
0.0464589
0.0462369
0.0461145
0.0461525
0.0462739
0.0466351
0.0469921
0.047675
0.0481047
0.0489207
0.0493115
0.0491486
0.0484008
0.0477843
0.0472172
0.046763
0.0464084
0.0461729
0.0460344
0.0460659
0.0461841
0.0465765
0.0469575
0.0477546
0.0482275
0.0492155
0.0485883
0.0485486
0.0480205
0.0475516
0.0470554
0.0466287
0.0462653
0.046004
0.0458237
0.0458079
0.045859
0.0461993
0.0464753
0.0472655
0.0475761
0.048732
0.0481019
0.0481013
0.04771
0.0473278
0.0468798
0.0464683
0.0460921
0.0458017
0.0455779
0.0455167
0.0455106
0.0458328
0.0460623
0.0469938
0.0472994
0.0489244
0.0477773
0.0477853
0.0474624
0.0471209
0.0466918
0.0462733
0.0458642
0.0455165
0.045205
0.0450236
0.0448345
0.0449264
0.0447356
0.0452668
0.0445062
0.0460922
0.0475743
0.0475851
0.047289
0.0469584
0.0465265
0.0460878
0.0456405
0.045237
0.0448506
0.0445787
0.0442773
0.0442815
0.0439725
0.0447282
0.0439374
0.0479872
0.0566862
0.0511008
0.0493526
0.0479289
0.0472162
0.0467192
0.0464021
0.0461991
0.0460864
0.0461112
0.0462092
0.0464999
0.0468043
0.0473281
0.0477702
0.0482307
0.0524948
0.0507567
0.0492202
0.048034
0.0473244
0.0468219
0.046492
0.0462872
0.0461813
0.0462238
0.0463455
0.0466735
0.0470093
0.0475856
0.048006
0.0486031
0.0505111
0.0498917
0.048788
0.0479449
0.0473032
0.046827
0.0464883
0.046276
0.046164
0.046211
0.0463416
0.0467049
0.047065
0.0477343
0.0481619
0.0489588
0.0493089
0.0491456
0.0484013
0.0477892
0.0472287
0.0467822
0.0464364
0.0462104
0.046082
0.0461223
0.0462489
0.0466427
0.0470249
0.0478063
0.0482734
0.0492407
0.0485849
0.0485448
0.04802
0.0475553
0.0470654
0.0466461
0.0462913
0.0460392
0.0458686
0.0458611
0.0459197
0.0462607
0.046536
0.0473092
0.0476094
0.0487435
0.0480977
0.0480967
0.0477086
0.0473304
0.0468884
0.046484
0.0461161
0.0458345
0.0456198
0.0455664
0.0455671
0.0458895
0.0461164
0.0470297
0.0473193
0.0489211
0.0477722
0.0477798
0.04746
0.0471223
0.0466989
0.0462872
0.0458858
0.0455463
0.0452433
0.0450692
0.0448859
0.0449776
0.0447824
0.0452947
0.0445115
0.0460709
0.0475683
0.0475788
0.0472856
0.0469587
0.0465322
0.0460998
0.0456598
0.0452639
0.0448853
0.0446201
0.0443235
0.0443271
0.0440117
0.0447472
0.0439264
0.047944
0.0663211
0.0555991
0.0519862
0.0490262
0.0473092
0.0459408
0.0448322
0.0437995
0.0427785
0.0417269
0.0405694
0.0393285
0.0378625
0.0362984
0.0343695
0.0324254
0.0620403
0.054832
0.0515925
0.0489206
0.0472658
0.0459321
0.0448358
0.0438117
0.0427995
0.041757
0.0406092
0.0393813
0.0379299
0.0363835
0.0344693
0.032536
0.0600501
0.0538067
0.0509758
0.04864
0.0471115
0.045857
0.0447923
0.0437865
0.042786
0.0417531
0.0406171
0.0394036
0.0379732
0.0364507
0.0345655
0.0326545
0.058799
0.0529948
0.0505004
0.0483947
0.0469789
0.0457888
0.0447497
0.0437556
0.0427597
0.041729
0.0405972
0.0393902
0.0379729
0.0364663
0.0346037
0.0327127
0.058054
0.0523815
0.0500922
0.0481382
0.0468168
0.0456849
0.0446733
0.0436913
0.0426985
0.0416668
0.0405348
0.0393283
0.0379188
0.0364224
0.0345831
0.0327157
0.0575625
0.0519403
0.0497839
0.0479248
0.0466708
0.0455802
0.0445889
0.0436145
0.0426215
0.041586
0.0404516
0.0392435
0.0378415
0.0363554
0.0345446
0.032706
0.0572533
0.0516465
0.0495609
0.0477535
0.0465395
0.0454728
0.0444926
0.0435189
0.0425202
0.0414754
0.0403327
0.0391155
0.0377148
0.0362315
0.0344505
0.0326432
0.0570795
0.0514778
0.049423
0.0476372
0.0464394
0.0453801
0.0444011
0.0434222
0.0424147
0.0413596
0.0402095
0.0389853
0.0375908
0.036116
0.0343739
0.032604
0.0620393
0.0548285
0.0515851
0.0489082
0.0472478
0.0459069
0.0448068
0.0437773
0.0427508
0.0416922
0.0405231
0.0392734
0.0377895
0.0362195
0.0342597
0.0323274
0.0578228
0.0544058
0.0513481
0.0488993
0.0472617
0.0459314
0.0448283
0.0437978
0.0427709
0.0417133
0.0405469
0.0393025
0.0378265
0.0362685
0.0343245
0.0324064
0.0558301
0.0534689
0.0508027
0.0486833
0.0471483
0.0458793
0.0447969
0.0437776
0.0427562
0.0417035
0.0405453
0.0393118
0.0378541
0.0363161
0.0343964
0.0324971
0.0545925
0.052674
0.0503556
0.0484677
0.0470384
0.0458268
0.0447646
0.0437528
0.0427324
0.0416801
0.0405252
0.0392975
0.0378525
0.03633
0.0344327
0.0325534
0.0538532
0.0520565
0.0499535
0.0482197
0.0468839
0.0457287
0.0446923
0.0436912
0.0426733
0.04162
0.0404652
0.0392385
0.0378021
0.03629
0.0344163
0.0325599
0.0533647
0.0516096
0.049646
0.048009
0.0467411
0.0456274
0.0446107
0.0436168
0.0425996
0.0415435
0.0403878
0.0391612
0.0377346
0.0362347
0.034392
0.0325646
0.0530569
0.0513125
0.0494228
0.0478387
0.0466115
0.0455222
0.044516
0.043523
0.0425015
0.0414371
0.0402744
0.03904
0.0376165
0.0361205
0.0343105
0.0325136
0.0528837
0.0511425
0.0492853
0.0477236
0.0465131
0.0454318
0.0444265
0.0434288
0.0424004
0.0413271
0.0401591
0.0389201
0.0375064
0.0360218
0.0342556
0.0324964
0.0600653
0.0538204
0.0509937
0.048662
0.0471403
0.0458939
0.0448455
0.043854
0.0428536
0.0418214
0.0406679
0.0394377
0.0379302
0.0363487
0.0342396
0.0322273
0.0558482
0.0534884
0.0508323
0.0487237
0.0472024
0.0459505
0.0448902
0.0438926
0.0428881
0.0418557
0.0407049
0.0394808
0.0379821
0.0364139
0.0343187
0.0323216
0.0538579
0.0526185
0.0503724
0.0485977
0.047154
0.0459406
0.0448855
0.0438898
0.0428848
0.0418544
0.0407109
0.0394974
0.0380175
0.0364682
0.0343918
0.0324048
0.0526361
0.0518534
0.0499682
0.0484283
0.0470804
0.0459134
0.0448691
0.0438744
0.0428666
0.0418343
0.0406932
0.0394857
0.0380194
0.0364865
0.0344325
0.0324653
0.051907
0.051248
0.0495872
0.0482041
0.046945
0.0458284
0.0448039
0.0438153
0.0428066
0.0417704
0.0406275
0.0394191
0.0379605
0.036437
0.0344083
0.0324658
0.0514245
0.0508051
0.049288
0.048003
0.0468103
0.0457318
0.0447238
0.0437399
0.0427295
0.0416886
0.0405437
0.0393347
0.0378878
0.0363792
0.0343905
0.0324843
0.0511192
0.0505088
0.0490675
0.047836
0.046683
0.0456268
0.0446264
0.0436407
0.0426232
0.0415705
0.040415
0.0391936
0.0377477
0.03624
0.0342944
0.0324259
0.0509463
0.0503384
0.0489303
0.0477213
0.0465843
0.0455347
0.0445327
0.0435401
0.0425141
0.04145
0.0402876
0.0390597
0.0376264
0.0361329
0.0342492
0.0324313
0.0588308
0.0530258
0.0505483
0.048462
0.0470731
0.045915
0.0449184
0.043968
0.0430016
0.0420066
0.0408773
0.0396802
0.0381429
0.0365547
0.0342163
0.0320974
0.054628
0.0527112
0.050417
0.0485562
0.0471621
0.0459927
0.0449779
0.0440169
0.0430447
0.0420492
0.0409233
0.039734
0.038208
0.0366389
0.0343146
0.0322125
0.052653
0.0518701
0.0499993
0.0484766
0.0471506
0.0460095
0.0449907
0.0440249
0.0430488
0.0420538
0.0409351
0.0397574
0.0382511
0.0366998
0.0343832
0.0322733
0.0514466
0.0511241
0.0496181
0.0483319
0.0470967
0.0459961
0.0449825
0.0440137
0.0430323
0.0420341
0.0409177
0.0397466
0.0382555
0.0367224
0.0344258
0.0323334
0.0507281
0.0505301
0.0492506
0.0481218
0.0469725
0.0459179
0.04492
0.0439537
0.0429682
0.0419632
0.0408425
0.0396679
0.0381826
0.0366569
0.0343867
0.0323207
0.050252
0.0500931
0.0489576
0.0479266
0.0468418
0.045823
0.0448388
0.0438746
0.042885
0.0418732
0.0407492
0.0395734
0.0381025
0.0365959
0.0343795
0.0323623
0.0499495
0.0497991
0.0487394
0.0477613
0.0467148
0.0457159
0.0447369
0.0437678
0.0427671
0.0417384
0.0405987
0.0394032
0.0379293
0.0364171
0.0342592
0.0322904
0.0497768
0.0496285
0.0486017
0.0476457
0.0466142
0.04562
0.0446378
0.0436597
0.0426474
0.041604
0.0404551
0.0392508
0.0377938
0.0363012
0.0342356
0.0323418
0.0581027
0.0524307
0.0501779
0.048268
0.0470075
0.0459477
0.0450245
0.0441418
0.0432392
0.0423182
0.0412538
0.0401438
0.0386177
0.0370825
0.0344491
0.0321937
0.0539059
0.0521112
0.0500528
0.0483719
0.0471062
0.0460345
0.0450917
0.044198
0.0432904
0.0423707
0.0413121
0.0402147
0.0387052
0.0372
0.0345816
0.032338
0.0519401
0.0512805
0.0496545
0.048315
0.0471144
0.0460666
0.045115
0.0442132
0.0433004
0.0423812
0.0413314
0.0402484
0.0387608
0.0372735
0.0346426
0.0323598
0.0507442
0.0505457
0.0492865
0.0481844
0.0470718
0.0460611
0.0451111
0.0442034
0.0432836
0.0423604
0.0413134
0.0402392
0.0387697
0.0373057
0.0346918
0.0324238
0.0500338
0.0499603
0.0489285
0.0479838
0.0469548
0.0459868
0.0450485
0.0441392
0.0432115
0.0422777
0.0412227
0.0401411
0.0386745
0.0372161
0.0346305
0.0323958
0.0495627
0.0495283
0.0486404
0.0477928
0.0468263
0.0458914
0.0449638
0.044053
0.0431177
0.0421735
0.0411126
0.0400282
0.0385791
0.0371475
0.0346379
0.0324787
0.0492622
0.0492361
0.0484236
0.0476279
0.0466978
0.0457799
0.044854
0.0439334
0.0429807
0.0420115
0.0409249
0.0398073
0.0383442
0.0368927
0.0344615
0.0323707
0.0490888
0.0490648
0.0482849
0.0475103
0.0465935
0.0456779
0.0447459
0.0438121
0.0428428
0.0418526
0.0407512
0.0396182
0.0381744
0.0367482
0.0344541
0.0324913
0.0576151
0.0519945
0.0498984
0.0481134
0.0469616
0.0459913
0.045144
0.0443355
0.0435054
0.042669
0.0416784
0.0406658
0.0391404
0.037648
0.0345645
0.032088
0.0534212
0.051668
0.0497729
0.0482193
0.0470636
0.0460816
0.0452147
0.0443959
0.043562
0.0427289
0.0417469
0.0407528
0.0392502
0.0378016
0.0347147
0.0321898
0.0514596
0.0508383
0.0493796
0.0481691
0.0470783
0.0461188
0.0452413
0.0444133
0.0435741
0.0427423
0.0417712
0.0407953
0.0393152
0.0378804
0.0347277
0.0320707
0.0502696
0.0501085
0.0490165
0.0480432
0.0470392
0.0461149
0.0452368
0.0444013
0.0435539
0.042718
0.0417503
0.0407858
0.0393261
0.037919
0.0347674
0.032103
0.0495638
0.0495274
0.0486625
0.0478458
0.0469235
0.0460396
0.04517
0.0443296
0.0434705
0.0426199
0.0416393
0.0406626
0.0392002
0.0377953
0.0346707
0.0320477
0.0490955
0.0490981
0.0483764
0.0476556
0.046794
0.0459411
0.0450793
0.0442339
0.0433637
0.042499
0.0415098
0.0405295
0.0390893
0.0377252
0.0347122
0.032214
0.0487954
0.0488063
0.0481594
0.0474893
0.0466619
0.0458235
0.0449596
0.0440989
0.0432043
0.0423048
0.0412776
0.0402466
0.0387763
0.0373724
0.0344697
0.0320814
0.0486205
0.0486336
0.0480185
0.0473685
0.0465525
0.0457144
0.0448412
0.0439627
0.0430463
0.0421193
0.0410719
0.0400207
0.038578
0.0372214
0.0345403
0.0324088
0.0572913
0.051688
0.0496941
0.0479997
0.0469407
0.0460569
0.045295
0.0445787
0.0438517
0.0431473
0.0423075
0.0415153
0.0401824
0.039026
0.0357702
0.0333589
0.0530987
0.0513563
0.0495667
0.0481052
0.0470437
0.0461489
0.0453686
0.0446435
0.0439145
0.0432166
0.0423893
0.0416241
0.0403223
0.0392322
0.0359492
0.0333968
0.0511375
0.0505239
0.049172
0.0480546
0.0470583
0.0461861
0.0453948
0.0446606
0.0439268
0.0432321
0.0424189
0.0416795
0.0404062
0.0393424
0.0359519
0.0331804
0.0499499
0.0497956
0.0488097
0.0479289
0.0470185
0.0461802
0.0453871
0.0446442
0.0439014
0.043203
0.0423947
0.0416729
0.040427
0.0394093
0.0360127
0.0332138
0.0492457
0.0492158
0.0484564
0.047731
0.0469008
0.0461008
0.0453131
0.0445618
0.0438031
0.0430851
0.0422579
0.0415187
0.0402631
0.0392495
0.0358784
0.033137
0.048778
0.0487871
0.0481701
0.0475393
0.0467681
0.0459966
0.0452134
0.0444534
0.043679
0.0429422
0.0421014
0.0413567
0.0401255
0.0391729
0.0359517
0.0334128
0.0484769
0.0484943
0.0479512
0.0473696
0.0466306
0.0458705
0.0450802
0.0442984
0.0434901
0.0427044
0.0418051
0.0409792
0.0396768
0.0386328
0.0355106
0.0331326
0.0482995
0.0483191
0.0478073
0.0472445
0.0465149
0.0457522
0.0449483
0.0441428
0.0433048
0.0424811
0.0415493
0.0406886
0.0394061
0.0384234
0.0355971
0.0337205
0.0570677
0.0514715
0.0495483
0.0479216
0.0469388
0.0461312
0.0454483
0.0448184
0.0441867
0.0435976
0.0428819
0.0422474
0.0410204
0.0399919
0.0362919
0.0333082
0.0528754
0.051136
0.0494192
0.0480266
0.047042
0.0462243
0.045524
0.0448864
0.0442542
0.0436738
0.0429729
0.0423703
0.0411718
0.0402023
0.0363127
0.0326375
0.0509122
0.0502991
0.0490198
0.0479716
0.0470528
0.0462581
0.0455472
0.0449009
0.0442643
0.0436887
0.0430033
0.0424312
0.0412566
0.040301
0.0361696
0.0318449
0.0497245
0.0495698
0.0486557
0.0478433
0.0470096
0.046248
0.0455343
0.0448783
0.0442319
0.0436526
0.0429724
0.0424222
0.0412756
0.0403718
0.0361936
0.0317007
0.0490195
0.0489891
0.0483003
0.0476422
0.0468873
0.0461618
0.045451
0.0447836
0.0441169
0.0435133
0.0428069
0.042233
0.0410647
0.0401627
0.0360008
0.0315673
0.0485509
0.0485593
0.0480121
0.0474472
0.0467496
0.0460505
0.0453413
0.0446617
0.0439751
0.0433487
0.0426245
0.0420462
0.0409069
0.0400974
0.0361464
0.0320083
0.0482475
0.0482643
0.0477902
0.047273
0.0466056
0.0459147
0.045194
0.0444863
0.0437568
0.0430684
0.0422655
0.0415777
0.0403231
0.0393729
0.0355101
0.031554
0.0480669
0.0480859
0.0476425
0.0471427
0.0464831
0.0457867
0.0450484
0.0443119
0.0435461
0.042812
0.0419688
0.0412443
0.040022
0.0392062
0.035801
0.0327171
0.0478288
0.0478474
0.0474433
0.0469786
0.0463581
0.0456953
0.0449853
0.044271
0.0435218
0.0427997
0.0419629
0.0412398
0.0400082
0.0391761
0.0357222
0.0325695
0.0478703
0.0478888
0.0474441
0.0469429
0.0462815
0.0455791
0.0448275
0.0440636
0.0432574
0.0424572
0.041539
0.0406842
0.0393926
0.0383923
0.0355149
0.0335856
0.0480368
0.0480477
0.0475177
0.0469498
0.0462273
0.0454698
0.0446679
0.0438472
0.042975
0.0420806
0.0410527
0.0400101
0.0385583
0.0371825
0.0344519
0.0322723
0.0483844
0.048358
0.0476752
0.0469965
0.0461934
0.0453781
0.0445319
0.0436686
0.0427539
0.0418039
0.0407276
0.0396068
0.038157
0.0367136
0.0343768
0.0323712
0.0489777
0.048827
0.0479063
0.0470578
0.0461531
0.045275
0.044392
0.0434936
0.0425439
0.0415468
0.0404274
0.0392382
0.0377782
0.0362704
0.0341685
0.0322361
0.0500824
0.0494734
0.0481791
0.0470872
0.0460878
0.0451638
0.0442709
0.0433648
0.0424058
0.0413916
0.0402613
0.0390503
0.037616
0.0361091
0.0341937
0.0323401
0.0519757
0.0502367
0.0485003
0.047062
0.0459948
0.0450415
0.0441509
0.043247
0.0422894
0.0412686
0.0401346
0.0389136
0.0375005
0.0360039
0.0342095
0.0324168
0.0561716
0.0505816
0.0486509
0.0469889
0.0459336
0.0450008
0.0441332
0.0432477
0.0423126
0.0413088
0.0401916
0.0389844
0.0375898
0.0361021
0.0343315
0.0325274
0.0477061
0.0477228
0.0473502
0.0469201
0.046344
0.0457292
0.04507
0.0444101
0.0437166
0.0430553
0.0422687
0.0415891
0.0403221
0.0393492
0.0354018
0.031337
0.0477431
0.0477599
0.0473462
0.0468784
0.0462596
0.0456025
0.0448979
0.0441833
0.0434261
0.0426787
0.0418026
0.0409885
0.0396733
0.0386042
0.0353968
0.0329338
0.0479048
0.0479141
0.0474147
0.0468796
0.0461979
0.0454825
0.0447236
0.0439462
0.0431151
0.0422625
0.0412638
0.0402465
0.0387633
0.0373322
0.0343518
0.0318913
0.0482478
0.04822
0.0475674
0.0469208
0.0461576
0.0453821
0.0445759
0.0437516
0.0428729
0.0419583
0.0409059
0.0398058
0.0383342
0.036859
0.0343636
0.0322103
0.0488371
0.0486852
0.0477944
0.0469772
0.0461111
0.0452712
0.0444252
0.0435618
0.0426434
0.0416755
0.0405747
0.0393998
0.0379217
0.0363896
0.0341798
0.0321571
0.0499389
0.049329
0.0480646
0.0470037
0.046042
0.0451552
0.0442978
0.0434242
0.042494
0.0415059
0.0403923
0.0391936
0.037747
0.0362223
0.0342334
0.0323165
0.051831
0.0500921
0.0483856
0.0469777
0.045947
0.0450288
0.0441721
0.0432996
0.0423689
0.0413719
0.0402532
0.039043
0.0376213
0.0361109
0.0342641
0.0324231
0.0560271
0.050439
0.0485381
0.0469067
0.0458881
0.0449901
0.0441567
0.043304
0.0423969
0.0414184
0.0403186
0.0391246
0.037725
0.0362265
0.0344085
0.0325562
0.0476203
0.0476357
0.0472862
0.0468832
0.0463444
0.0457721
0.0451611
0.0445568
0.0439268
0.0433441
0.0426474
0.0420857
0.0409282
0.0400838
0.035984
0.0316508
0.0476531
0.0476687
0.0472775
0.0468356
0.0462522
0.0456348
0.0449742
0.0443089
0.0436059
0.0429235
0.0421167
0.0413914
0.0401415
0.039152
0.0357891
0.0331045
0.0478105
0.0478188
0.0473415
0.0468314
0.0461829
0.0455042
0.0447849
0.0440501
0.0432635
0.0424613
0.0415105
0.0405499
0.039091
0.0376881
0.0345533
0.0319414
0.0481496
0.0481208
0.0474897
0.0468677
0.0461366
0.0453952
0.0446251
0.0438384
0.0429973
0.0421233
0.0411067
0.0400459
0.0385849
0.037121
0.0345162
0.0322647
0.0487356
0.0485827
0.0477132
0.0469197
0.0460844
0.0452767
0.0444636
0.0436333
0.0427467
0.0418112
0.0407366
0.0395878
0.0381115
0.0365791
0.0342897
0.0321976
0.0498349
0.0492243
0.0479811
0.0469436
0.0460116
0.0451561
0.0443298
0.0434864
0.0425846
0.0416241
0.0405319
0.0393526
0.0379056
0.0363764
0.03433
0.0323595
0.051726
0.0499872
0.0483018
0.0469168
0.0459149
0.0450257
0.0441986
0.0433546
0.0424499
0.0414774
0.0403769
0.039182
0.0377593
0.0362432
0.0343538
0.03247
0.0559222
0.0503355
0.0484559
0.0468475
0.0458579
0.0449885
0.0441851
0.0433622
0.0424819
0.0415289
0.0404487
0.0392714
0.0378728
0.0363696
0.0345125
0.0326165
0.0475605
0.0475746
0.0472416
0.0468591
0.0463489
0.0458093
0.0452346
0.0446699
0.0440806
0.0435393
0.0428753
0.0423324
0.0411446
0.0401989
0.0358013
0.0310438
0.0475896
0.0476041
0.047229
0.0468065
0.0462503
0.0456636
0.0450365
0.044407
0.0437398
0.0430936
0.0423137
0.0416058
0.0403289
0.03927
0.035685
0.0327176
0.0477434
0.0477507
0.0472892
0.0467978
0.0461747
0.0455247
0.0448358
0.0441328
0.0433768
0.0426044
0.0416738
0.0407255
0.0392401
0.0377858
0.034484
0.0316947
0.0480792
0.0480495
0.0474338
0.0468303
0.0461236
0.0454089
0.044667
0.0439089
0.0430949
0.0422466
0.0412469
0.0401969
0.0387165
0.0372186
0.0345009
0.032139
0.0486624
0.0485088
0.0476544
0.0468786
0.046067
0.0452846
0.0444975
0.0436928
0.04283
0.0419165
0.040856
0.0397161
0.0382254
0.0366693
0.0343021
0.0321378
0.0497598
0.0491487
0.0479205
0.0469005
0.0459913
0.0451604
0.0443589
0.0435394
0.0426596
0.0417192
0.0406401
0.0394693
0.0380125
0.0364663
0.0343647
0.032341
0.0516501
0.0499113
0.048241
0.0468732
0.0458933
0.045027
0.0442235
0.0434026
0.0425186
0.0415648
0.0404768
0.0392902
0.0378611
0.0363323
0.0344025
0.0324773
0.0558465
0.0502608
0.0483965
0.0468054
0.045838
0.0449914
0.044212
0.0434133
0.0425546
0.0416217
0.0405556
0.0393885
0.0379861
0.0364725
0.0345781
0.0326406
0.0475209
0.0475342
0.0472136
0.046847
0.0463596
0.0458472
0.045304
0.0447752
0.0442258
0.0437293
0.0431109
0.0426129
0.0414482
0.0404888
0.0359314
0.0308746
0.0475469
0.0475607
0.0471975
0.04679
0.0462555
0.0456939
0.0450955
0.0444981
0.0438654
0.043257
0.0425131
0.04184
0.0405732
0.0395003
0.0357806
0.0326188
0.0476977
0.0477044
0.0472545
0.0467773
0.0461743
0.0455476
0.0448846
0.0442096
0.0434827
0.0427412
0.0418373
0.0409137
0.0394286
0.037959
0.034549
0.0316302
0.0480308
0.0480005
0.0473961
0.0468066
0.0461189
0.0454257
0.0447075
0.0439743
0.0431852
0.0423626
0.0413838
0.0403523
0.0388696
0.037359
0.0345642
0.0321177
0.0486117
0.0484576
0.0476142
0.0468517
0.0460585
0.0452963
0.0445306
0.0437481
0.0429068
0.0420147
0.0409707
0.0398446
0.0383508
0.0367843
0.0343624
0.0321402
0.0497075
0.0490961
0.0478787
0.0468718
0.0459802
0.0451689
0.0443877
0.0435884
0.0427281
0.0418066
0.0407417
0.0395821
0.0381229
0.0365678
0.0344258
0.0323585
0.0515971
0.0498583
0.048199
0.046844
0.0458809
0.0450328
0.0442485
0.0434469
0.0425809
0.0416443
0.040569
0.0393922
0.0379615
0.0364256
0.0344653
0.0325057
0.0557936
0.0502087
0.0483555
0.0467774
0.045827
0.0449983
0.0442384
0.04346
0.04262
0.041705
0.0406527
0.0394964
0.0380939
0.0365742
0.0346512
0.0326791
0.0474952
0.0475079
0.0471957
0.0468403
0.0463689
0.0458752
0.0453532
0.0448474
0.0443213
0.0438469
0.0432446
0.0427516
0.0415651
0.0405454
0.0358351
0.0305532
0.0475189
0.0475321
0.047177
0.04678
0.0462607
0.0457166
0.0451377
0.0445611
0.043949
0.0433602
0.0426294
0.041961
0.040674
0.039555
0.0357159
0.0324081
0.0476674
0.0476735
0.0472317
0.0467645
0.0461755
0.0455651
0.04492
0.0442637
0.0435547
0.0428298
0.0419365
0.0410168
0.0395143
0.0380104
0.0345101
0.0314918
0.0479984
0.0479677
0.047371
0.0467914
0.0461171
0.0454391
0.0447374
0.0440211
0.0432479
0.04244
0.0414704
0.0404428
0.0389469
0.0374122
0.0345538
0.0320412
0.0485777
0.0484232
0.0475874
0.0468342
0.046054
0.0453062
0.0445555
0.0437883
0.0429613
0.0420822
0.0410464
0.0399243
0.0384212
0.036838
0.0343713
0.0321037
0.0496723
0.0490606
0.0478508
0.0468531
0.0459738
0.0451766
0.0444099
0.0436248
0.0427779
0.0418684
0.0408114
0.0396562
0.0381906
0.0366232
0.0344483
0.0323466
0.0515614
0.0498226
0.0481708
0.0468248
0.0458737
0.0450387
0.0442682
0.0434804
0.0426271
0.041702
0.0406344
0.0394624
0.0380276
0.0364826
0.0344974
0.0325104
0.055758
0.0501737
0.0483281
0.0467591
0.0458209
0.0450051
0.0442593
0.0434956
0.0426688
0.0417662
0.0407226
0.0395723
0.0381671
0.0366396
0.0346931
0.0326935
0.0474804
0.0474927
0.0471862
0.0468382
0.0463776
0.045897
0.0453903
0.0449016
0.0443938
0.0439386
0.0433537
0.0428735
0.0416859
0.0406418
0.0358458
0.0304137
0.0475024
0.0475153
0.0471656
0.0467755
0.0462665
0.0457345
0.0451695
0.0446083
0.0440123
0.0434399
0.0427231
0.0420648
0.040774
0.0396353
0.0357268
0.0323237
0.0476494
0.0476552
0.0472186
0.046758
0.0461785
0.0455793
0.0449467
0.044304
0.0436088
0.0428978
0.0420155
0.0411037
0.0395965
0.0380773
0.0345236
0.0314395
0.047979
0.0479481
0.0473563
0.0467832
0.0461179
0.0454502
0.0447599
0.0440558
0.0432947
0.0424986
0.041538
0.0405167
0.0390167
0.0374706
0.0345739
0.0320172
0.0485572
0.0484024
0.0475715
0.0468244
0.0460529
0.0453147
0.0445744
0.0438181
0.0430017
0.0421328
0.0411045
0.0399877
0.0384816
0.0368902
0.0343961
0.0320979
0.0496509
0.0490391
0.047834
0.0468423
0.0459712
0.0451835
0.0444268
0.0436516
0.0428144
0.0419141
0.0408639
0.0397134
0.0382457
0.036672
0.0344766
0.0323514
0.0515396
0.0498009
0.0481539
0.0468137
0.0458706
0.0450442
0.0442831
0.043505
0.0426607
0.0417442
0.040683
0.0395154
0.0380792
0.0365295
0.0345286
0.0325228
0.0557364
0.0501524
0.0483117
0.0467487
0.0458184
0.0450112
0.0442751
0.0435214
0.0427041
0.0418104
0.0407737
0.0396285
0.0382227
0.0366909
0.0347295
0.0327111
0.0474736
0.0474855