/*--------------------------------*- C++ -*----------------------------------*\
| =========                 |                                                 |
| \\      /  F ield         | OpenFOAM: The Open Source CFD Toolbox           |
|  \\    /   O peration     | Version:  v1912                                 |
|   \\  /    A nd           | Website:  www.openfoam.com                      |
|    \\/     M anipulation  |                                                 |
\*---------------------------------------------------------------------------*/
FoamFile
{
    version     2.0;
    format      ascii;
    class       volSymmTensorField;
    location    "0.03/solid";
    object      sigma;
}
// * * * * * * * * * * * * * * * * * * * * * * * * * * * * * * * * * * * * * //

dimensions      [1 -1 -2 0 0 0 0];


internalField   nonuniform List<symmTensor> 
256
(
(-1.77679e+06 -46609.2 48940.9 -908997 -79053.4 -1.86417e+06)
(-433833 -32242.6 23634.6 -413459 -63766.3 -1.60888e+06)
(-436131 20469.4 -25051.2 -408363 -65756.1 -1.60644e+06)
(-1.85813e+06 39408.3 -50076 -909915 -86563.6 -1.8684e+06)
(-1.70626e+06 -6317.36 67161.3 -769215 -32616.4 -1.80433e+06)
(-326992 -8153.79 33767.1 -330324 -38368.3 -1.57964e+06)
(-329998 -1081.64 -36207.8 -322440 -39442.2 -1.57566e+06)
(-1.78955e+06 2055.91 -68931.1 -771994 -36652.4 -1.80497e+06)
(-1.70345e+06 3170.8 65953.9 -714689 -18302.9 -1.7961e+06)
(-310622 -633.787 33352.3 -258289 -21785.1 -1.5648e+06)
(-313514 -5795.91 -35914.9 -250724 -22407.9 -1.56046e+06)
(-1.78664e+06 -5852.79 -67796.7 -718941 -20716.9 -1.79584e+06)
(-1.71174e+06 3713.97 64386.3 -687977 -14914.9 -1.79531e+06)
(-317538 961.234 32531.2 -209211 -14988.9 -1.55911e+06)
(-320351 -5113.76 -34936.5 -202268 -15396.7 -1.55475e+06)
(-1.79466e+06 -5433.37 -66162.5 -693331 -16533.6 -1.79495e+06)
(-1.71455e+06 693.181 64180.9 -662821 -18047.4 -1.79245e+06)
(-314451 -860.375 32514.6 -170440 -16813.9 -1.55378e+06)
(-317267 -1629.11 -34728.6 -163840 -17097 -1.54947e+06)
(-1.79715e+06 -1745.48 -65866.1 -668569 -19159.7 -1.79213e+06)
(-1.69631e+06 -10446.2 63621.1 -612469 -30434.2 -1.7763e+06)
(-267771 -8488.8 32298.1 -131967 -29924.9 -1.53524e+06)
(-270649 7258.89 -34333.2 -125551 -30109.8 -1.53102e+06)
(-1.77837e+06 9916.33 -65209.1 -618020 -31109.9 -1.77604e+06)
(-1.63909e+06 -35861.5 59763.6 -546172 -54638.4 -1.72783e+06)
(-147479 -21446.9 30151.8 -134528 -58663.5 -1.48366e+06)
(-150599 21349 -32009.5 -128609 -58772.1 -1.47964e+06)
(-1.72015e+06 35874.4 -61234.9 -550736 -54898.6 -1.72765e+06)
(-1.80599e+06 -50264.2 50141.4 -1.8945e+06 -63100.9 -1.89406e+06)
(-495340 -25461.1 25287 -1.70681e+06 -71180.9 -1.70667e+06)
(-499346 26902.8 -27006 -1.70331e+06 -71237.9 -1.70326e+06)
(-1.88589e+06 51453.7 -51491.7 -1.89373e+06 -63074.8 -1.89341e+06)
(-1.49696e+06 -692.285 34198.5 -247233 -127158 -409385)
(169026 -12866.6 18068.9 394178 -153145 174971)
(168975 9891.18 -19389 403581 -156466 179685)
(-1.58075e+06 -2300.96 -34733.3 -247414 -138397 -425180)
(-1.49982e+06 -446.501 50429.5 -273365 -78326.4 -366171)
(171773 -3120.78 29284.5 385771 -96985.2 197459)
(170125 755.92 -31790.5 394128 -99255.3 203540)
(-1.58624e+06 -737.481 -51408.2 -281836 -86304.5 -378092)
(-1.49897e+06 2200.32 49870.7 -248264 -54044.7 -345323)
(173055 561.173 29307.4 409660 -60916.7 220480)
(171459 -2305.75 -31894.5 417359 -62465.7 227293)
(-1.58516e+06 -2877.55 -50897.3 -258255 -59650.4 -354976)
(-1.50178e+06 2975.61 47988.1 -224569 -45220.6 -332149)
(172024 1481.67 28041.9 443388 -45705.1 238562)
(170556 -2588.75 -30262.9 450864 -46804.3 245661)
(-1.58758e+06 -3413.38 -48902.2 -234662 -49260.4 -340858)
(-1.50086e+06 91.2338 47235.5 -205389 -49721.3 -315358)
(183638 -679.61 27657.2 475630 -47679.2 261400)
(182211 112.529 -29454.4 483115 -48476.1 268587)
(-1.58626e+06 -333.986 -48005.8 -215091 -52633.9 -323678)
(-1.47976e+06 -12534.7 46109.3 -182351 -64859 -273903)
(237057 -9391.56 27026.8 484933 -62424.6 307914)
(235583 9309 -28450.5 492450 -62968.9 315057)
(-1.56449e+06 12485.1 -46743.6 -191259 -66803.4 -282002)
(-1.41856e+06 -42464.4 42303.9 -182907 -77315.6 -181202)
(359628 -24838.7 24459.8 397806 -77527.6 398693)
(357830 25360 -25548.7 404878 -77837.5 405536)
(-1.50196e+06 42733.9 -42806.5 -190072 -78345.7 -188854)
(-1.63904e+06 -59840.4 35607.1 -1.72852e+06 -54678 -544995)
(-147654 -30259.4 20894.3 -1.4842e+06 -58687.8 -134503)
(-150804 31952.1 -21697 -1.48013e+06 -58783.5 -128909)
(-1.72013e+06 61215.3 -35989 -1.72826e+06 -54878.2 -550125)
(-1.52338e+06 26287.4 9439.87 -199890 -114138 -441702)
(101819 7775.14 5688.04 418711 -140094 201257)
(102070 -6979.55 -7123.76 427737 -143065 205394)
(-1.60974e+06 -27398.9 -9910.26 -206294 -123582 -463527)
(-1.56652e+06 5470.95 16601.8 -269532 -90785 -414028)
(47736.3 2438.52 10817.1 412273 -106810 246247)
(46553.6 -1527.85 -13333.5 420345 -109248 251692)
(-1.65466e+06 -5286.48 -17490.4 -280652 -98713 -431644)
(-1.57011e+06 1674.66 17085.7 -267827 -72636.7 -377376)
(37030.4 1070.21 11320.4 412129 -78821.5 283702)
(35887.2 -254.519 -13849 419681 -80713 290134)
(-1.65784e+06 -1334.34 -18010.9 -279506 -78920.6 -391703)
(-1.57017e+06 2026.72 16081.7 -260958 -63628.7 -347876)
(38125.6 1425.53 10714.1 421544 -64402.4 315392)
(37081.5 -721.3 -12839.9 429048 -65857.2 322355)
(-1.65745e+06 -1756.08 -16876.6 -272227 -68529.6 -360418)
(-1.56709e+06 -715.715 15300.4 -261050 -64065.1 -316495)
(53332 -740.039 10372.4 430862 -62396.7 352709)
(52307.3 1376.11 -12025.9 438533 -63501.9 359925)
(-1.65394e+06 940.349 -15928.3 -271531 -67795.4 -328089)
(-1.54417e+06 -14386.3 14329.2 -261937 -68627.9 -263154)
(110088 -10347.8 9952.97 413071 -65904.3 410535)
(108994 11029.9 -11181.2 420882 -66694.1 417808)
(-1.63031e+06 14633.9 -14801.6 -271328 -71289.9 -274135)
(-1.47957e+06 -46269.6 12471.9 -273494 -63746.6 -178503)
(237108 -27353.4 8880.07 308794 -61413.3 487010)
(235648 28333.7 -9713.69 316186 -61885.2 494026)
(-1.5643e+06 46728.4 -12793.4 -280925 -65351.4 -188659)
(-1.69645e+06 -63707.6 10249.8 -1.77667e+06 -30087.2 -609921)
(-268745 -32386.9 7681.65 -1.53573e+06 -29611.8 -131973)
(-271639 34294.4 -8055.01 -1.53147e+06 -29751 -126266)
(-1.77854e+06 65229.7 -10368.6 -1.77632e+06 -30547.7 -616989)
(-1.52877e+06 34638.5 543.016 -178596 -95873.5 -454950)
(76288.2 15612.7 -208.414 422710 -109255 193818)
(76537.1 -12860.3 -1073.39 430567 -111501 197284)
(-1.61671e+06 -34681.2 -953.053 -190850 -102727 -480326)
(-1.58797e+06 8127.19 1638.25 -262038 -85341.2 -439366)
(-4110.22 5194.95 262.456 418892 -94245.2 238345)
(-5163.92 -2651.52 -2545.7 426234 -96287.1 242839)
(-1.67715e+06 -7275.83 -2445.61 -275957 -91694 -460959)
(-1.59545e+06 1776.87 1885.06 -272437 -74377.1 -395684)
(-23000.1 1605.41 431.264 408656 -78443 282951)
(-24030.6 595.504 -2746.91 415903 -80179.4 288457)
(-1.68408e+06 -906.754 -2740.41 -285413 -79901.5 -413768)
(-1.59497e+06 1520.87 1560.49 -279831 -66780.7 -355094)
(-22010.2 1460 330.96 401218 -67683 324534)
(-22959.7 324.869 -2292.62 408648 -69117.8 330722)
(-1.68308e+06 -835.934 -2299.62 -291663 -71421.5 -370851)
(-1.59063e+06 -1317.8 1124.01 -294264 -62733.7 -315201)
(-4826.21 -777.929 253.371 394071 -61922.3 369955)
(-5765.04 2190.17 -1780.05 401794 -63073 376557)
(-1.67825e+06 1840.69 -1704.59 -304913 -66481.3 -329460)
(-1.56649e+06 -15251.5 649.366 -304096 -57744.8 -262832)
(54146.4 -10636.2 210.087 366084 -56022.9 426210)
(53130.6 11835.7 -1329.42 374010 -56887.4 433002)
(-1.65336e+06 15698.4 -1077.41 -313461 -60583.8 -276011)
(-1.5007e+06 -47294.9 142.658 -309843 -43992.1 -197405)
(183397 -27885.3 161.338 267154 -42027.6 481166)
(182005 29176.8 -866.892 274671 -42572.1 487793)
(-1.5861e+06 47881.7 -409.221 -317209 -45839.2 -209379)
(-1.71581e+06 -64225.6 -396.78 -1.7918e+06 -16139 -657181)
(-318064 -32562.4 -5.56938 -1.55356e+06 -14933.8 -168193)
(-320893 34620.7 -99.1335 -1.54924e+06 -15103 -162877)
(-1.79849e+06 65845.3 400.612 -1.79138e+06 -16740.3 -665866)
(-1.5264e+06 35558.3 -1005.38 -167078 -76038.2 -453757)
(72271.1 16762.3 -1309.72 425127 -80755.7 186163)
(72467.9 -12908.7 303.388 431942 -82342.5 189090)
(-1.61529e+06 -34951.4 681.929 -183687 -80767.5 -481492)
(-1.58838e+06 8490.92 -1827.14 -253491 -71024.1 -440719)
(-14795.5 5795.21 -2348.48 420786 -74611.6 224369)
(-15802.3 -2363.11 494.075 427378 -76125.7 228104)
(-1.67816e+06 -7274.66 1168.08 -269922 -75634 -465089)
(-1.59729e+06 1827.2 -2012.38 -269541 -64717.1 -394658)
(-36878.9 1916.1 -2539.81 405930 -66781 270260)
(-37880.2 1069.72 609.256 412811 -68151.8 274956)
(-1.68647e+06 -664.289 1295.29 -283810 -68993.3 -415616)
(-1.59704e+06 1360.15 -2118.68 -285038 -58574.9 -349840)
(-36544.3 1625.23 -2495.3 390019 -59355.2 315834)
(-37478.9 825.41 826.584 397321 -60557 321274)
(-1.68566e+06 -423.524 1486.6 -297426 -62393.6 -368235)
(-1.59236e+06 -1558.03 -2265.5 -306351 -52288.4 -308283)
(-18755.1 -659.287 -2396.69 375371 -52200.2 363000)
(-19682.1 2588.4 1081.14 383090 -53214.1 368964)
(-1.68042e+06 2278.83 1763.38 -317147 -55541.4 -324793)
(-1.56788e+06 -15443.1 -2378.74 -317683 -43343.7 -261317)
(41042.5 -10500 -2230.48 345778 -42730.2 414094)
(40037.6 12057.1 1267.3 353751 -43527 420365)
(-1.65513e+06 16028.1 2010.38 -327022 -45932.7 -276352)
(-1.50202e+06 -47249 -2356.83 -318454 -28915.8 -208436)
(171045 -27640.6 -1942.84 252855 -28035.8 457084)
(169663 29141.9 1374.95 260424 -28558.3 463269)
(-1.58779e+06 47922.7 2145.13 -325772 -30682.8 -221959)
(-1.7162e+06 -63877.3 -2372.59 -1.79325e+06 -9453.32 -675065)
(-326432 -32241.4 -1748.92 -1.55698e+06 -8745.68 -196401)
(-329240 34403.1 1823.55 -1.55263e+06 -8915.19 -191542)
(-1.79922e+06 65563.8 2449.93 -1.79281e+06 -10060.9 -685253)
(-1.52409e+06 34862.8 -714.042 -162770 -54947.5 -451905)
(73512.3 16291.1 -889.368 426377 -56018.8 182015)
(73659.4 -11816 184.169 432429 -57065.4 184546)
(-1.61357e+06 -33864.4 486.419 -182369 -58024.9 -481216)
(-1.585e+06 8149.42 -1533.27 -249061 -52449.4 -438586)
(-13191.8 5668.69 -1816.15 420885 -53474 215204)
(-14174.8 -1731.95 483.411 426882 -54497 218392)
(-1.67516e+06 -6723.37 1059.02 -267411 -55530.8 -464851)
(-1.59381e+06 1733.93 -1827.8 -267385 -48784.5 -392032)
(-35523.8 2019.8 -2078.52 403856 -49619.5 259947)
(-36513.5 1427.19 659.347 410401 -50583.5 264045)
(-1.68334e+06 -401.681 1300.97 -282779 -51765.2 -415025)
(-1.59372e+06 1319.22 -1903.05 -286329 -44135.6 -346849)
(-35471.9 1792.12 -2042.11 384658 -44675.2 305713)
(-36405.7 1074.77 794.31 391811 -45558.3 310578)
(-1.68264e+06 -227.359 1431.19 -299277 -46920.1 -367194)
(-1.58911e+06 -1591.43 -1926.95 -309974 -38096.2 -306821)
(-17708.3 -481.602 -1910.36 367728 -38345.3 351671)
(-18636.2 2754.38 919.407 375402 -39121.2 357127)
(-1.67743e+06 2442.89 1550 -320982 -40570.3 -325045)
(-1.56474e+06 -15395.9 -1899.83 -320909 -29680.9 -264562)
(42108.1 -10278.7 -1716.81 338767 -29713.5 398679)
(41103.4 12081.7 1000.95 346742 -30345 404522)
(-1.65222e+06 16075.6 1628.25 -330295 -31725.9 -281031)
(-1.49913e+06 -47045.4 -1776.77 -319544 -18465.8 -217588)
(172160 -27353.2 -1436.06 248796 -18336.2 436817)
(170782 28997.5 1054.5 256379 -18762.1 442630)
(-1.5851e+06 47778.6 1638.93 -326869 -19907 -232328)
(-1.71292e+06 -63573.8 -1665.61 -1.79246e+06 -5800.61 -684876)
(-323388 -31995.8 -1172.95 -1.55716e+06 -5590.01 -215536)
(-326184 34228.5 1362.54 -1.5528e+06 -5732.19 -211074)
(-1.79614e+06 65306.5 1783.88 -1.79203e+06 -6312.11 -696284)
(-1.52299e+06 34288.6 -317.359 -162011 -33143.1 -451245)
(74762.2 15873.9 -406.782 426562 -33201.5 180306)
(74874.2 -11061.8 -5.74002 432122 -33796.3 182581)
(-1.6128e+06 -33066.3 184.378 -183479 -34880.4 -481527)
(-1.58272e+06 7841.94 -743.987 -247805 -31949.7 -437668)
(-10556.4 5506.35 -891.85 420340 -32119.5 210879)
(-11524.7 -1290.82 103.727 425937 -32709.6 213715)
(-1.67309e+06 -6298.52 464.403 -267423 -33719.1 -465110)
(-1.59111e+06 1623.99 -940.979 -266853 -29965.7 -391426)
(-32330.3 2045.12 -1059 402424 -30244.6 254194)
(-33311.9 1665.69 212.6 408722 -30814.8 257905)
(-1.68084e+06 -195.456 628.472 -283053 -31722.9 -415696)
(-1.591e+06 1301.08 -996.494 -286871 -27033 -347126)
(-32241.7 1903.18 -1042.29 382293 -27337.6 298887)
(-33173.8 1212.68 297.369 389320 -27875.4 303373)
(-1.6801e+06 -116.996 717.121 -300266 -28724.3 -368715)
(-1.58651e+06 -1570 -992.339 -310996 -22890 -309007)
(-14610.2 -341.805 -948.862 365052 -23155.7 343183)
(-15537.2 2829.36 366.017 372674 -23641.9 348300)
(-1.67498e+06 2502.84 773.587 -322205 -24437.6 -328337)
(-1.56232e+06 -15326.4 -949.417 -321464 -17288.3 -269604)
(45012.9 -10120.1 -814.92 336770 -17496.1 387834)
(44010.9 12081.7 415.119 344728 -17901.9 393388)
(-1.64992e+06 16067.4 801.653 -330920 -18602.5 -286997)
(-1.49693e+06 -46919.1 -860.105 -319419 -10445 -225014)
(174935 -27190.2 -636.277 247868 -10576.4 424279)
(173563 28927.4 469.297 255448 -10855.8 429836)
(-1.583e+06 47691.4 806.352 -326767 -11393.1 -240536)
(-1.71058e+06 -63435.4 -756.145 -1.7919e+06 -3237.62 -691857)
(-319931 -31885.8 -429.726 -1.55694e+06 -3246.95 -226942)
(-322714 34163.8 665.865 -1.55258e+06 -3342.35 -222761)
(-1.7939e+06 65197.6 882.903 -1.79149e+06 -3582.37 -704065)
(-1.52263e+06 34044.7 -82.5117 -162212 -11067.3 -451160)
(75280 15710.3 -109.56 426379 -11025.6 179753)
(75374.2 -10745.7 -25.4668 431695 -11218.7 181902)
(-1.6126e+06 -32717.9 39.1753 -184593 -11630.1 -481907)
(-1.58181e+06 7705.25 -202.122 -247746 -10708.9 -437586)
(-9264.45 5440.69 -248.077 419871 -10713.3 209339)
(-10225 -1096.84 -9.92981 425265 -10906.6 212003)
(-1.67228e+06 -6107.28 111.054 -268000 -11287.8 -465586)
(-1.58995e+06 1565.66 -265.076 -266954 -10071.1 -391720)
(-30644.3 2055.34 -299.622 401685 -10134.4 251823)
(-31620.8 1779.99 23.385 407852 -10323.6 255345)
(-1.67977e+06 -91.5486 163.812 -283574 -10653.9 -416596)
(-1.58979e+06 1291.12 -284.895 -287187 -9066.75 -348142)
(-30466.8 1956.94 -293.888 381401 -9165.29 295687)
(-31396.5 1279.66 53.5872 388354 -9346.48 299987)
(-1.67897e+06 -62.1931 195.765 -300826 -9636.51 -370318)
(-1.58536e+06 -1553.57 -281.709 -311308 -7612.55 -311136)
(-12905.9 -270.328 -260.617 364262 -7719.39 338981)
(-13830.4 2864.99 78.2257 371848 -7885.71 343930)
(-1.6739e+06 2527.16 214.564 -322634 -8142.14 -330983)
(-1.56129e+06 -15290.2 -264.594 -321547 -5679.86 -273002)
(46588 -10044.6 -213.441 336313 -5779.6 382600)
(45589.8 12087.7 97.9364 344256 -5920.39 388010)
(-1.64894e+06 16063 223.703 -331045 -6136.41 -290818)
(-1.49599e+06 -46869.3 -233.941 -319325 -3398.21 -229229)
(176418 -27124.7 -152.49 247719 -3476.38 418524)
(175051 28911.8 123.289 255293 -3574.58 423953)
(-1.5821e+06 47662.8 228.164 -326685 -3732.37 -245096)
(-1.70961e+06 -63392.3 -193.035 -1.7917e+06 -1047.94 -695749)
(-318270 -31850.7 -73.7906 -1.55681e+06 -1073.87 -232197)
(-321044 34152.5 193.544 -1.55246e+06 -1107.93 -228162)
(-1.79296e+06 65169.9 253.937 -1.79129e+06 -1171.42 -708319)
)
;

boundaryField
{
    interface
    {
        type            calculated;
        value           nonuniform List<symmTensor> 
192
(
(-173.576 -5.06414 6.88659 1.75198e+06 -79053.4 796814)
(-176.175 -7.22591 6.04471 1.86087e+06 -32616.4 825753)
(-175.789 -10.0968 5.246 1.9144e+06 -18302.9 832985)
(-174.967 -12.6139 4.6401 1.94522e+06 -14914.9 837883)
(-173.707 -14.5539 4.06218 1.97316e+06 -18047.4 843535)
(-171.847 -15.9773 3.39499 2.02071e+06 -30434.2 856887)
(-170.206 -17.1414 2.52334 2.07994e+06 -54638.4 898283)
(-174.855 -19.5032 1.23242 846220 -63100.9 846656)
(-150.741 -6.58848 4.05305 2.24213e+06 -127158 2.07998e+06)
(-153.217 -8.26982 3.25845 2.21694e+06 -78326.4 2.12413e+06)
(-152.955 -10.8387 2.43283 2.24187e+06 -54044.7 2.14481e+06)
(-152.614 -13.2293 1.7486 2.26729e+06 -45220.6 2.15971e+06)
(-152.278 -15.1671 1.11393 2.28764e+06 -49721.3 2.17767e+06)
(-152.214 -16.6808 0.450119 2.30682e+06 -64859 2.21527e+06)
(-154.841 -18.0366 -0.315475 2.29885e+06 -77315.6 2.30055e+06)
(-170.06 -20.8923 -1.28049 897574 -54678 2.0811e+06)
(-141.922 -7.61689 2.96503 2.28124e+06 -114138 2.03943e+06)
(-144.81 -9.1478 2.35922 2.22981e+06 -90785 2.08531e+06)
(-144.709 -11.612 1.58713 2.23325e+06 -72636.7 2.1237e+06)
(-144.767 -13.9307 0.858622 2.24068e+06 -63628.7 2.15376e+06)
(-145.217 -15.8499 0.160376 2.24088e+06 -64065.1 2.18544e+06)
(-146.627 -17.4043 -0.544616 2.23551e+06 -68627.9 2.2343e+06)
(-152.015 -18.8714 -1.30425 2.2156e+06 -63746.6 2.31059e+06)
(-171.498 -21.9664 -2.18017 856577 -30087.2 2.02332e+06)
(-137.842 -8.33837 2.16738 2.29936e+06 -95873.5 2.02301e+06)
(-141.108 -9.86288 1.69884 2.24101e+06 -85341.2 2.06368e+06)
(-141.151 -12.3435 1.0232 2.23401e+06 -74377.1 2.11076e+06)
(-141.538 -14.655 0.319143 2.22697e+06 -66780.7 2.1517e+06)
(-142.588 -16.5693 -0.38799 2.21233e+06 -62733.7 2.19139e+06)
(-144.981 -18.1448 -1.10245 2.19758e+06 -57744.8 2.23884e+06)
(-151.847 -19.6734 -1.84801 2.18312e+06 -43992.1 2.29556e+06)
(-173.134 -22.897 -2.65936 844730 -16139 1.97935e+06)
(-135.404 -8.88137 1.52639 2.30818e+06 -76038.2 2.0215e+06)
(-138.984 -10.4475 1.14546 2.24804e+06 -71024.1 2.06081e+06)
(-139.155 -12.9948 0.574656 2.23601e+06 -64717.1 2.1109e+06)
(-139.799 -15.3413 -0.0573801 2.22098e+06 -58574.9 2.15618e+06)
(-141.272 -17.271 -0.717634 2.19933e+06 -52288.4 2.1974e+06)
(-144.275 -18.8642 -1.3935 2.18297e+06 -43343.7 2.23934e+06)
(-151.944 -20.4296 -2.0918 2.17351e+06 -28915.8 2.28353e+06)
(-174.186 -23.7317 -2.83234 841853 -9453.32 1.96004e+06)
(-133.917 -9.30901 0.997761 2.31092e+06 -54947.5 2.02178e+06)
(-137.73 -10.9249 0.684746 2.25044e+06 -52449.4 2.06092e+06)
(-137.999 -13.5485 0.222626 2.23611e+06 -48784.5 2.11146e+06)
(-138.819 -15.9469 -0.305156 2.2177e+06 -44135.6 2.15718e+06)
(-140.562 -17.9051 -0.871092 2.19376e+06 -38096.2 2.19691e+06)
(-143.926 -19.519 -1.45866 2.17786e+06 -29680.9 2.23421e+06)
(-152.042 -21.1133 -2.06703 2.17066e+06 -18465.8 2.27261e+06)
(-174.846 -24.4718 -2.70915 840686 -5800.61 1.94827e+06)
(-133.068 -9.63752 0.550571 2.31099e+06 -33143.1 2.02176e+06)
(-137.03 -11.2964 0.317995 2.25051e+06 -31949.7 2.06065e+06)
(-137.357 -13.9862 -0.013529 2.23528e+06 -29965.7 2.1107e+06)
(-138.28 -16.4348 -0.397529 2.21578e+06 -27033 2.15553e+06)
(-140.175 -18.4243 -0.815464 2.19142e+06 -22890 2.19341e+06)
(-143.733 -20.0601 -1.25401 2.17608e+06 -17288.3 2.22794e+06)
(-152.1 -21.6808 -1.71059 2.16965e+06 -10445 2.26405e+06)
(-175.227 -25.0821 -2.19549 840038 -3237.62 1.94008e+06)
(-132.686 -9.8439 0.172451 2.31057e+06 -11067.3 2.02162e+06)
(-136.714 -11.5315 0.0799435 2.25011e+06 -10708.9 2.06027e+06)
(-137.069 -14.2649 -0.0487139 2.23461e+06 -10071.1 2.10984e+06)
(-138.031 -16.7487 -0.198566 2.21488e+06 -9066.75 2.15393e+06)
(-139.987 -18.7615 -0.362716 2.19056e+06 -7612.55 2.19073e+06)
(-143.627 -20.4141 -0.53586 2.17549e+06 -5679.86 2.22404e+06)
(-152.131 -22.0551 -0.71673 2.16928e+06 -3398.21 2.25938e+06)
(-175.337 -25.4788 -0.910141 839752 -1047.94 1.9357e+06)
(1.02777e+06 -46609.2 -12.6539 1.89556e+06 -3.44623 -25.8694)
(1.072e+06 -6317.36 -12.1134 2.00904e+06 -1.59288 -25.1174)
(1.07142e+06 3170.8 -11.3819 2.06018e+06 -0.789533 -25.823)
(1.0632e+06 3713.97 -10.8665 2.08696e+06 -0.519476 -27.8204)
(1.06047e+06 693.181 -10.3985 2.11219e+06 -0.473674 -31.1422)
(1.07616e+06 -10446.2 -9.88565 2.16e+06 -0.497899 -36.3061)
(1.1288e+06 -35861.5 -9.27784 2.22172e+06 -0.512328 -44.172)
(1.07572e+06 -50264.2 -8.55088 987217 -0.462994 -54.9415)
(2.21434e+06 -32242.6 -10.7383 2.23472e+06 -1.17977 -53.3002)
(2.30831e+06 -8153.79 -10.039 2.30498e+06 -0.539009 -53.354)
(2.31845e+06 -633.787 -9.39218 2.37078e+06 -0.245372 -53.7782)
(2.30947e+06 961.234 -9.02137 2.41779e+06 -0.143268 -54.7405)
(2.31149e+06 -860.375 -8.72147 2.4555e+06 -0.120849 -56.2788)
(2.35458e+06 -8488.8 -8.4122 2.49039e+06 -0.118427 -58.5246)
(2.46976e+06 -21446.9 -8.08496 2.48271e+06 -0.1094 -61.5805)
(2.26572e+06 -25461.1 -7.78193 1.05425e+06 -0.0746429 -64.914)
(2.21011e+06 20469.4 -10.7128 2.23788e+06 1.1684 -69.7962)
(2.30269e+06 -1081.64 -10.012 2.31024e+06 0.534537 -69.7332)
(2.31278e+06 -5795.91 -9.3667 2.37557e+06 0.251253 -69.8928)
(2.30387e+06 -5113.76 -8.99751 2.42196e+06 0.159043 -70.0865)
(2.30592e+06 -1629.11 -8.69992 2.45935e+06 0.146232 -70.2564)
(2.349e+06 7258.89 -8.39377 2.4941e+06 0.154216 -70.2945)
(2.46407e+06 21349 -8.07009 2.48606e+06 0.15509 -70.1258)
(2.25952e+06 26902.8 -7.76595 1.05555e+06 0.121194 -70.1855)
(944015 39408.3 -12.6502 1.89223e+06 3.42444 -89.9218)
(984654 2055.91 -12.1178 2.00221e+06 1.5799 -90.0856)
(983783 -5852.79 -11.3863 2.05148e+06 0.788005 -90.0104)
(975800 -5433.37 -10.8715 2.07713e+06 0.525234 -89.4731)
(973420 -1745.48 -10.4048 2.102e+06 0.484747 -88.3341)
(989730 9916.33 -9.89363 2.15007e+06 0.514317 -86.1384)
(1.04352e+06 35874.4 -9.28712 2.21293e+06 0.538262 -82.1545)
(991793 51453.7 -8.54715 983953 0.485365 -76.7195)
(47.5191 -5.06236 8.02951 1.88813e+06 -86563.6 929649)
(50.6724 -7.25134 7.25051 1.99593e+06 -36652.4 962957)
(49.802 -10.1657 6.43402 2.04784e+06 -20716.9 970938)
(47.8894 -12.7222 5.79852 2.07725e+06 -16533.6 975631)
(45.1027 -14.7076 5.17627 2.10431e+06 -19159.7 980753)
(41.4615 -16.1855 4.4443 2.15114e+06 -31109.9 993115)
(39.0611 -17.4663 3.486 2.20974e+06 -54898.6 1.03283e+06)
(45.6886 -20.2798 2.01636 980661 -63074.8 980985)
(7.41494 -6.60586 4.55771 2.38123e+06 -138397 2.20346e+06)
(9.85984 -8.3148 3.79642 2.34879e+06 -86304.5 2.25254e+06)
(9.36619 -10.9294 2.95728 2.37201e+06 -59650.4 2.27529e+06)
(8.64923 -13.3668 2.25407 2.397e+06 -49260.4 2.2908e+06)
(7.96428 -15.3611 1.59259 2.41723e+06 -52633.9 2.30865e+06)
(8.04183 -16.9381 0.892446 2.43619e+06 -66803.4 2.34544e+06)
(13.788 -18.4302 0.0864224 2.42795e+06 -78345.7 2.42917e+06)
(38.971 -21.8481 -0.947716 1.03221e+06 -54878.2 2.21034e+06)
(-9.5669 -7.64241 3.29679 2.41673e+06 -123582 2.15949e+06)
(-6.78371 -9.20292 2.71324 2.36125e+06 -98713 2.21026e+06)
(-6.90492 -11.7162 1.93242 2.36387e+06 -78920.6 2.25168e+06)
(-6.74741 -14.0862 1.19083 2.37136e+06 -68529.6 2.28317e+06)
(-5.85952 -16.0672 0.474467 2.37183e+06 -67795.4 2.31527e+06)
(-3.02557 -17.688 -0.253989 2.36649e+06 -71289.9 2.36369e+06)
(7.89764 -19.3071 -1.0395 2.34644e+06 -65351.4 2.4387e+06)
(41.2242 -23.0113 -1.96545 992914 -30547.7 2.15224e+06)
(-16.5766 -8.36654 2.42484 2.43046e+06 -102727 2.14098e+06)
(-13.3493 -9.92395 1.97276 2.37088e+06 -91694 2.18588e+06)
(-13.1853 -12.4588 1.29046 2.36451e+06 -79901.5 2.23616e+06)
(-12.4416 -14.8261 0.575598 2.35822e+06 -71421.5 2.27903e+06)
(-10.5367 -16.807 -0.146739 2.3442e+06 -66481.3 2.31965e+06)
(-6.04518 -18.4527 -0.881006 2.32965e+06 -60583.8 2.3671e+06)
(7.6428 -20.1467 -1.6493 2.31505e+06 -45839.2 2.42288e+06)
(44.7009 -24.0083 -2.50091 982074 -16740.3 2.10758e+06)
(-20.4214 -8.91116 1.71268 2.43569e+06 -80767.5 2.13789e+06)
(-16.8301 -10.5127 1.34337 2.37603e+06 -75634 2.18087e+06)
(-16.4368 -13.1183 0.767973 2.36582e+06 -68993.3 2.23402e+06)
(-15.2662 -15.5244 0.128178 2.35225e+06 -62393.6 2.28144e+06)
(-12.6719 -17.5244 -0.54325 2.3316e+06 -55541.4 2.32395e+06)
(-7.14736 -19.1908 -1.2338 2.31557e+06 -45932.7 2.36624e+06)
(8.14511 -20.9304 -1.94887 2.30598e+06 -30682.8 2.40979e+06)
(47.3507 -24.8882 -2.71719 979715 -10060.9 2.08728e+06)
(-22.6344 -9.33945 1.12393 2.43587e+06 -58024.9 2.13703e+06)
(-18.7747 -10.9925 0.819338 2.37686e+06 -55530.8 2.17942e+06)
(-18.2146 -13.6774 0.354905 2.36512e+06 -51765.2 2.23287e+06)
(-16.7533 -16.1379 -0.177338 2.34871e+06 -46920.1 2.2808e+06)
(-13.7153 -18.1693 -0.750102 2.32609e+06 -40570.3 2.32203e+06)
(-7.5618 -19.8584 -1.34709 2.31067e+06 -31725.9 2.35994e+06)
(8.68882 -21.6323 -1.96666 2.30337e+06 -19907 2.39791e+06)
(49.221 -25.6577 -2.62672 978816 -6312.11 2.07456e+06)
(-23.8525 -9.66722 0.623992 2.43431e+06 -34880.4 2.13627e+06)
(-19.8242 -11.3645 0.396653 2.37584e+06 -33719.1 2.17816e+06)
(-19.1618 -14.1173 0.063755 2.36365e+06 -31722.9 2.23101e+06)
(-17.5285 -16.6298 -0.323128 2.34651e+06 -28724.3 2.27807e+06)
(-14.2348 -18.6944 -0.745449 2.3237e+06 -24437.6 2.31757e+06)
(-7.72476 -20.4074 -1.19022 2.30895e+06 -18602.5 2.35287e+06)
(9.08416 -22.2114 -1.65591 2.30247e+06 -11393.1 2.3887e+06)
(50.3974 -26.2864 -2.15839 978301 -3582.37 2.06572e+06)
(-24.4006 -9.87275 0.196647 2.43308e+06 -11630.1 2.13577e+06)
(-20.2984 -11.6003 0.105783 2.37489e+06 -11287.8 2.1773e+06)
(-19.5895 -14.3985 -0.0236745 2.36264e+06 -10653.9 2.22962e+06)
(-17.8831 -16.9474 -0.17502 2.34544e+06 -9636.51 2.27595e+06)
(-14.4795 -19.0366 -0.341253 2.32278e+06 -8142.14 2.31443e+06)
(-7.81051 -20.7689 -0.517228 2.30837e+06 -6136.41 2.3486e+06)
(9.28476 -22.6013 -0.702848 2.30214e+06 -3732.37 2.38373e+06)
(50.8751 -26.7036 -0.906928 978072 -1171.42 2.06104e+06)
(1.07591e+06 26.5505 50141.4 -54.7791 -0.944967 987839)
(1.12914e+06 27.4729 35607.1 -43.8186 -1.00734 2.22319e+06)
(1.07618e+06 28.3454 10249.8 -35.7136 -1.04123 2.16271e+06)
(1.05892e+06 29.1778 -396.78 -30.2558 -1.05569 2.11755e+06)
(1.05786e+06 29.9665 -2372.59 -26.5859 -1.02677 2.099e+06)
(1.0604e+06 30.688 -1665.61 -24.1325 -0.928729 2.08844e+06)
(1.06236e+06 31.2936 -756.145 -22.5848 -0.714377 2.08109e+06)
(1.06322e+06 31.6886 -193.035 -21.875 -0.285101 2.07707e+06)
(2.26578e+06 25.1909 25287 -64.8174 -0.2629 1.05445e+06)
(2.46982e+06 25.8285 20894.3 -61.3864 -0.296244 2.48297e+06)
(2.35382e+06 26.5061 7681.65 -58.2438 -0.312792 2.49059e+06)
(2.30779e+06 27.206 -5.56938 -55.8969 -0.32544 2.45766e+06)
(2.29967e+06 27.9059 -1748.92 -54.2334 -0.322644 2.4297e+06)
(2.30241e+06 28.5694 -1172.95 -53.0949 -0.295164 2.41026e+06)
(2.30565e+06 29.1393 -429.726 -52.3715 -0.228881 2.39864e+06)
(2.30723e+06 29.5155 -73.7906 -52.0103 -0.0918739 2.3933e+06)
(2.25954e+06 25.1735 -27006 -70.185 0.313524 1.05563e+06)
(2.46407e+06 25.8122 -21697 -70.1664 0.345101 2.48597e+06)
(2.3482e+06 26.4866 -8055.01 -70.3796 0.351957 2.49358e+06)
(2.3022e+06 27.1837 -99.1335 -70.398 0.354995 2.46021e+06)
(2.29408e+06 27.8813 1823.55 -70.2877 0.344238 2.43177e+06)
(2.29683e+06 28.5427 1362.54 -70.1539 0.30978 2.41194e+06)
(2.30008e+06 29.1114 665.865 -70.0585 0.235214 2.40003e+06)
(2.30166e+06 29.4901 193.544 -70.0366 0.0925964 2.39455e+06)
(991931 26.543 -51491.7 -76.7933 0.971209 984416)
(1.0438e+06 27.4784 -35989 -82.3634 1.03671 2.2138e+06)
(989676 28.3508 -10368.6 -86.5419 1.06158 2.15122e+06)
(971763 29.1824 400.612 -88.9834 1.07107 2.10438e+06)
(970332 29.9698 2449.93 -90.3993 1.03767 2.0843e+06)
(972651 30.6894 1783.88 -91.2513 0.935996 2.07251e+06)
(974509 31.2941 882.903 -91.7794 0.719689 2.06435e+06)
(975322 31.6973 253.937 -92.0313 0.287486 2.05997e+06)
)
;
    }
    symmetry
    {
        type            symmetry;
    }
    bottom
    {
        type            calculated;
        value           nonuniform List<symmTensor> 
32
(
(-1.94669e+06 -111065 48940.9 -1.1296e+06 -129981 -2.03407e+06)
(-1.53474e+06 6951.28 34198.5 -250021 -142884 -447165)
(-1.55368e+06 62740.4 9439.87 -186175 -117010 -472006)
(-1.55857e+06 76897 543.016 -163817 -96709.5 -484751)
(-1.55629e+06 77797.1 -1005.38 -152543 -76649.1 -483649)
(-1.5542e+06 76506.4 -714.042 -148751 -55486.2 -482014)
(-1.55327e+06 75604.8 -317.359 -148398 -33526.7 -481526)
(-1.55299e+06 75241.2 -82.5117 -148790 -11206.9 -481522)
(-506268 -50032.6 23634.6 -491930 -67295.4 -1.68131e+06)
(179186 -16709.1 18068.9 419007 -167163 185132)
(99973.3 13724.8 5688.04 414952 -148558 199411)
(67905.3 23979 -208.414 403694 -112996 185435)
(62003 24997.3 -1309.72 401711 -82249.9 175895)
(62976.4 24145.3 -889.368 402336 -56706.1 171479)
(64306.1 23524.2 -406.782 402708 -33570.3 169850)
(64896.6 23286.8 -109.56 402695 -11151 169369)
(-510070 40100.9 -25051.2 -490327 -70283.3 -1.68038e+06)
(179326 16524.7 -19389 428887 -171009 190035)
(100389 -10149.6 -7123.76 424394 -151898 203713)
(68206.1 -18698.7 -1073.39 411704 -115510 188953)
(62205.4 -18873.1 303.388 408573 -84022 178827)
(63110.4 -17603 184.169 408391 -57871.2 173997)
(64395.9 -16782.3 -5.74002 408249 -34230.7 172103)
(64964.7 -16462.3 -25.4668 407983 -11365.1 171492)
(-2.03092e+06 102969 -50076 -1.13232e+06 -141966 -2.04119e+06)
(-1.61836e+06 -9806.51 -34733.3 -244731 -155991 -462786)
(-1.64147e+06 -63331.6 -9910.26 -190824 -127612 -495263)
(-1.64911e+06 -76280.7 -953.053 -177027 -104347 -512729)
(-1.64842e+06 -76493.3 681.929 -171571 -81897 -514615)
(-1.64726e+06 -74812.1 486.419 -171596 -58887.1 -514911)
(-1.64687e+06 -73697.7 184.378 -173580 -35440.6 -515596)
(-1.64685e+06 -73238.1 39.1753 -175102 -11825.9 -516150)
)
;
    }
}


// ************************************************************************* //
