/*--------------------------------*- C++ -*----------------------------------*\
| =========                 |                                                 |
| \\      /  F ield         | OpenFOAM: The Open Source CFD Toolbox           |
|  \\    /   O peration     | Version:  v1912                                 |
|   \\  /    A nd           | Website:  www.openfoam.com                      |
|    \\/     M anipulation  |                                                 |
\*---------------------------------------------------------------------------*/
FoamFile
{
    version     2.0;
    format      ascii;
    class       volScalarField;
    location    "0.03/solid";
    object      sigmaHyd;
}
// * * * * * * * * * * * * * * * * * * * * * * * * * * * * * * * * * * * * * //

dimensions      [1 -1 -2 0 0 0 0];


internalField   nonuniform List<scalar> 
256
(
-1.64853e+06
-886631
-884899
-1.68106e+06
-1.56014e+06
-814432
-811491
-1.59279e+06
-1.5383e+06
-780023
-777031
-1.57111e+06
-1.53191e+06
-764077
-761260
-1.56496e+06
-1.52354e+06
-748365
-745680
-1.55663e+06
-1.49543e+06
-713868
-711294
-1.52829e+06
-1.43902e+06
-658112
-655851
-1.47122e+06
-2.069e+06
-1.44148e+06
-1.44052e+06
-2.09881e+06
-781883
245217
249881
-818940
-777964
250808
255046
-817417
-762369
266872
271152
-801496
-751025
283798
288142
-789738
-738750
306029
310419
-777065
-710297
342438
346808
-748040
-659891
384070
388084
-696440
-1.43885e+06
-658341
-656183
-1.47122e+06
-784974
240185
244632
-826994
-814154
234999
239085
-856985
-802574
243867
248123
-844354
-790477
257934
262383
-831376
-779046
278548
283143
-819217
-753998
310809
315447
-793355
-708815
343441
347732
-746750
-1.49476e+06
-714357
-712013
-1.52809e+06
-784009
230531
234364
-829701
-827172
217292
220861
-872616
-818576
222452
226334
-862354
-807358
234164
238361
-849804
-797451
252650
257086
-838834
-775306
281727
286269
-815639
-734196
309712
313937
-772953
-1.52187e+06
-748749
-746489
-1.55593e+06
-778959
227446
230734
-827210
-824884
209703
212785
-872301
-817858
212687
216187
-863215
-808011
222686
226597
-851695
-799727
239455
243682
-842062
-779769
266552
270939
-820846
-741163
292801
296900
-780546
-1.5284e+06
-762064
-759942
-1.56308e+06
-776128
226894
229779
-826097
-821561
207216
209924
-870377
-815098
209010
212202
-861626
-806328
217883
221552
-850954
-799354
233480
237522
-842422
-780870
259432
263678
-822519
-743604
285064
289045
-783466
-1.5303e+06
-767480
-765485
-1.56545e+06
-775282
226803
229427
-826313
-820074
206471
208934
-869777
-813814
207679
210663
-861104
-805690
215896
219398
-850941
-799554
230792
234704
-843108
-781929
256119
260264
-823951
-745301
281501
285397
-785467
-1.53166e+06
-770054
-768148
-1.56712e+06
-775202
226730
229225
-826745
-819724
206232
208572
-869858
-813559
207204
210083
-861221
-805732
215123
218540
-851286
-799986
229695
233541
-843773
-782743
254747
258841
-824936
-746363
280027
283881
-786659
-1.53256e+06
-771209
-769350
-1.56816e+06
)
;

boundaryField
{
    interface
    {
        type            zeroGradient;
    }
    symmetry
    {
        type            symmetry;
    }
    bottom
    {
        type            zeroGradient;
    }
}


// ************************************************************************* //
