/*--------------------------------*- C++ -*----------------------------------*\
| =========                 |                                                 |
| \\      /  F ield         | OpenFOAM: The Open Source CFD Toolbox           |
|  \\    /   O peration     | Version:  v1912                                 |
|   \\  /    A nd           | Website:  www.openfoam.com                      |
|    \\/     M anipulation  |                                                 |
\*---------------------------------------------------------------------------*/
FoamFile
{
    version     2.0;
    format      ascii;
    class       volVectorField;
    location    "0.03/solid";
    object      U;
}
// * * * * * * * * * * * * * * * * * * * * * * * * * * * * * * * * * * * * * //

dimensions      [0 1 -1 0 0 0 0];


internalField   nonuniform List<vector> 
256
(
(1.4268e-06 1.18362e-07 2.17058e-06)
(3.71117e-07 -2.39718e-07 1.40023e-06)
(-4.86763e-07 -1.614e-07 1.52986e-06)
(-1.59528e-06 4.00254e-07 2.59604e-06)
(1.89478e-06 -1.37569e-06 4.71392e-06)
(4.39244e-07 -1.38384e-06 3.85413e-06)
(-9.68556e-07 -1.20904e-06 4.1149e-06)
(-2.45761e-06 -8.15434e-07 5.52792e-06)
(1.51908e-06 -3.17744e-06 6.59575e-06)
(1.42491e-07 -2.93993e-06 5.85518e-06)
(-1.22256e-06 -2.71476e-06 6.16926e-06)
(-2.59871e-06 -2.47107e-06 7.56689e-06)
(1.00442e-06 -5.09435e-06 8.22508e-06)
(-2.47537e-07 -4.81852e-06 7.52146e-06)
(-1.45225e-06 -4.57503e-06 7.85499e-06)
(-2.68008e-06 -4.3333e-06 9.25876e-06)
(6.00333e-07 -7.08938e-06 9.75761e-06)
(-5.90949e-07 -6.91148e-06 9.03613e-06)
(-1.73148e-06 -6.67375e-06 9.37719e-06)
(-2.88171e-06 -6.3484e-06 1.08188e-05)
(5.12624e-07 -9.17962e-06 1.13506e-05)
(-7.73387e-07 -9.13809e-06 1.06171e-05)
(-2.11791e-06 -8.92604e-06 1.0962e-05)
(-3.3489e-06 -8.52143e-06 1.2427e-05)
(1.03504e-06 -1.14727e-05 1.31886e-05)
(-6.92704e-07 -1.13483e-05 1.25513e-05)
(-2.6716e-06 -1.11776e-05 1.2899e-05)
(-4.33371e-06 -1.09487e-05 1.42738e-05)
(2.18722e-06 -1.38481e-05 1.51842e-05)
(-5.04941e-07 -1.3041e-05 1.48592e-05)
(-3.21189e-06 -1.29153e-05 1.52085e-05)
(-5.83907e-06 -1.34978e-05 1.62694e-05)
(-1.56167e-07 -9.20087e-07 1.38335e-06)
(-6.38646e-08 -8.59712e-07 1.41096e-06)
(-2.01972e-07 -8.22437e-07 1.49171e-06)
(-1.69533e-07 -7.11725e-07 1.62604e-06)
(-4.60961e-07 -2.66199e-06 3.68399e-06)
(-3.35742e-07 -2.46732e-06 3.88166e-06)
(-5.48118e-07 -2.32642e-06 4.06913e-06)
(-4.67612e-07 -2.1553e-06 4.23671e-06)
(-9.08459e-07 -4.42283e-06 5.58556e-06)
(-7.17053e-07 -4.14628e-06 5.89805e-06)
(-8.42047e-07 -3.93612e-06 6.14149e-06)
(-6.56677e-07 -3.73282e-06 6.30421e-06)
(-1.39702e-06 -6.2592e-06 7.22869e-06)
(-1.12226e-06 -5.99017e-06 7.57851e-06)
(-1.12903e-06 -5.75012e-06 7.8487e-06)
(-8.31243e-07 -5.49409e-06 8.03176e-06)
(-1.7736e-06 -8.14847e-06 8.7527e-06)
(-1.46584e-06 -7.99246e-06 9.09703e-06)
(-1.45029e-06 -7.75314e-06 9.38112e-06)
(-1.0995e-06 -7.39589e-06 9.60233e-06)
(-1.78716e-06 -1.00464e-05 1.02729e-05)
(-1.62547e-06 -1.00393e-05 1.06013e-05)
(-1.88501e-06 -9.82367e-06 1.08939e-05)
(-1.66516e-06 -9.37443e-06 1.11518e-05)
(-1.04342e-06 -1.18738e-05 1.17723e-05)
(-1.47403e-06 -1.17211e-05 1.21061e-05)
(-2.52562e-06 -1.15453e-05 1.24038e-05)
(-2.88751e-06 -1.13345e-05 1.2669e-05)
(5.3704e-07 -1.32891e-05 1.28099e-05)
(-1.19194e-06 -1.21654e-05 1.31689e-05)
(-3.1716e-06 -1.20316e-05 1.34667e-05)
(-4.83302e-06 -1.29222e-05 1.37097e-05)
(-9.41827e-07 -1.21221e-06 1.00449e-06)
(-3.7768e-07 -9.47429e-07 1.1832e-06)
(3.89644e-08 -9.08057e-07 1.23614e-06)
(5.23093e-07 -9.63463e-07 1.15853e-06)
(-1.8673e-06 -3.29133e-06 2.91408e-06)
(-9.54017e-07 -2.92689e-06 3.3045e-06)
(-1.4589e-07 -2.78252e-06 3.43394e-06)
(6.98992e-07 -2.74077e-06 3.2881e-06)
(-2.43977e-06 -5.18043e-06 4.64327e-06)
(-1.4311e-06 -4.84045e-06 5.13119e-06)
(-4.59221e-07 -4.62441e-06 5.30858e-06)
(5.2594e-07 -4.45009e-06 5.15957e-06)
(-2.92045e-06 -7.00485e-06 6.18436e-06)
(-1.85994e-06 -6.73106e-06 6.70506e-06)
(-8.04549e-07 -6.48311e-06 6.91092e-06)
(2.67712e-07 -6.20258e-06 6.78954e-06)
(-3.26795e-06 -8.76515e-06 7.58647e-06)
(-2.20796e-06 -8.62988e-06 8.10796e-06)
(-1.17648e-06 -8.38183e-06 8.33147e-06)
(-8.05686e-08 -7.97917e-06 8.24893e-06)
(-3.20945e-06 -1.03941e-05 8.87402e-06)
(-2.34819e-06 -1.04153e-05 9.37874e-06)
(-1.66714e-06 -1.01909e-05 9.6139e-06)
(-7.5249e-07 -9.69225e-06 9.57515e-06)
(-2.30039e-06 -1.18127e-05 9.94825e-06)
(-2.13715e-06 -1.16513e-05 1.04245e-05)
(-2.39242e-06 -1.14665e-05 1.06664e-05)
(-2.1642e-06 -1.12458e-05 1.06734e-05)
(-4.99054e-07 -1.28948e-05 1.05264e-05)
(-1.78593e-06 -1.16692e-05 1.09673e-05)
(-3.12678e-06 -1.1526e-05 1.12091e-05)
(-4.3498e-06 -1.25013e-05 1.12559e-05)
(-1.18002e-06 -1.31622e-06 7.88887e-07)
(-4.90808e-07 -9.65276e-07 8.97172e-07)
(1.14034e-07 -9.18955e-07 9.33039e-07)
(7.06347e-07 -1.02872e-06 8.9124e-07)
(-2.38023e-06 -3.57943e-06 2.33412e-06)
(-1.21734e-06 -3.12096e-06 2.57614e-06)
(-1.31479e-08 -2.96228e-06 2.6657e-06)
(1.06144e-06 -2.96849e-06 2.58939e-06)
(-3.05581e-06 -5.58355e-06 3.78702e-06)
(-1.76802e-06 -5.1943e-06 4.09628e-06)
(-3.431e-07 -4.96314e-06 4.22287e-06)
(9.06232e-07 -4.79461e-06 4.15187e-06)
(-3.55531e-06 -7.41777e-06 5.10955e-06)
(-2.22817e-06 -7.13143e-06 5.44649e-06)
(-7.31969e-07 -6.86946e-06 5.59835e-06)
(5.96487e-07 -6.56422e-06 5.55294e-06)
(-3.89056e-06 -9.08123e-06 6.29064e-06)
(-2.58867e-06 -8.95366e-06 6.63349e-06)
(-1.148e-06 -8.69295e-06 6.80307e-06)
(1.82455e-07 -8.25156e-06 6.79092e-06)
(-3.794e-06 -1.05275e-05 7.30281e-06)
(-2.72584e-06 -1.05649e-05 7.63721e-06)
(-1.68257e-06 -1.03289e-05 7.81929e-06)
(-5.66479e-07 -9.78814e-06 7.84411e-06)
(-2.81744e-06 -1.17545e-05 8.06447e-06)
(-2.49572e-06 -1.16051e-05 8.3796e-06)
(-2.45656e-06 -1.14095e-05 8.56899e-06)
(-2.0744e-06 -1.11542e-05 8.63187e-06)
(-9.45797e-07 -1.27776e-05 8.45898e-06)
(-2.12363e-06 -1.15563e-05 8.75511e-06)
(-3.23496e-06 -1.14029e-05 8.94445e-06)
(-4.35356e-06 -1.23528e-05 9.0313e-06)
(-1.21948e-06 -1.3588e-06 6.07315e-07)
(-5.12608e-07 -9.78939e-07 6.51773e-07)
(1.14543e-07 -9.27246e-07 6.75932e-07)
(7.12907e-07 -1.04504e-06 6.75257e-07)
(-2.49025e-06 -3.70709e-06 1.80207e-06)
(-1.28812e-06 -3.20764e-06 1.9081e-06)
(-2.17878e-08 -3.03548e-06 1.96918e-06)
(1.0779e-06 -3.04631e-06 1.9741e-06)
(-3.21535e-06 -5.7752e-06 2.93916e-06)
(-1.87984e-06 -5.3568e-06 3.08254e-06)
(-3.7471e-07 -5.11002e-06 3.17049e-06)
(9.11396e-07 -4.93195e-06 3.19027e-06)
(-3.73801e-06 -7.61909e-06 3.98155e-06)
(-2.36811e-06 -7.31902e-06 4.1452e-06)
(-7.94975e-07 -7.04225e-06 4.25314e-06)
(5.68349e-07 -6.71527e-06 4.29439e-06)
(-4.07772e-06 -9.23268e-06 4.89863e-06)
(-2.74608e-06 -9.10248e-06 5.07107e-06)
(-1.24309e-06 -8.82856e-06 5.19423e-06)
(1.11355e-07 -8.35923e-06 5.25996e-06)
(-3.97423e-06 -1.05974e-05 5.65326e-06)
(-2.8928e-06 -1.06386e-05 5.82627e-06)
(-1.80661e-06 -1.03909e-05 5.96074e-06)
(-6.81639e-07 -9.82041e-06 6.05149e-06)
(-2.98636e-06 -1.17673e-05 6.19765e-06)
(-2.66739e-06 -1.16265e-05 6.36548e-06)
(-2.60513e-06 -1.14204e-05 6.50674e-06)
(-2.22943e-06 -1.11338e-05 6.61996e-06)
(-1.105e-06 -1.27978e-05 6.49344e-06)
(-2.29784e-06 -1.15936e-05 6.65653e-06)
(-3.40406e-06 -1.14306e-05 6.79785e-06)
(-4.54153e-06 -1.23428e-05 6.92057e-06)
(-1.21345e-06 -1.37505e-06 4.31797e-07)
(-5.1142e-07 -9.88411e-07 4.46653e-07)
(1.01321e-07 -9.33065e-07 4.62125e-07)
(6.87249e-07 -1.04435e-06 4.74836e-07)
(-2.48602e-06 -3.75972e-06 1.28047e-06)
(-1.29765e-06 -3.24577e-06 1.31897e-06)
(-5.97846e-08 -3.06367e-06 1.35844e-06)
(1.01658e-06 -3.06382e-06 1.39056e-06)
(-3.22566e-06 -5.8568e-06 2.09053e-06)
(-1.90833e-06 -5.42373e-06 2.14675e-06)
(-4.35819e-07 -5.16455e-06 2.20431e-06)
(8.24422e-07 -4.97212e-06 2.25341e-06)
(-3.76374e-06 -7.70748e-06 2.83327e-06)
(-2.41617e-06 -7.39643e-06 2.90222e-06)
(-8.78804e-07 -7.10733e-06 2.97394e-06)
(4.56457e-07 -6.76307e-06 3.03954e-06)
(-4.11401e-06 -9.30469e-06 3.48036e-06)
(-2.81048e-06 -9.16771e-06 3.55766e-06)
(-1.34837e-06 -8.88253e-06 3.64074e-06)
(-2.63599e-08 -8.39472e-06 3.72252e-06)
(-4.01778e-06 -1.06472e-05 4.00316e-06)
(-2.9703e-06 -1.0685e-05 4.08519e-06)
(-1.9299e-06 -1.04273e-05 4.17703e-06)
(-8.42228e-07 -9.83837e-06 4.27367e-06)
(-3.03747e-06 -1.18122e-05 4.37686e-06)
(-2.756e-06 -1.16717e-05 4.46078e-06)
(-2.74182e-06 -1.14567e-05 4.558e-06)
(-2.40643e-06 -1.1151e-05 4.66624e-06)
(-1.16292e-06 -1.28581e-05 4.59001e-06)
(-2.39481e-06 -1.166e-05 4.6744e-06)
(-3.55182e-06 -1.14891e-05 4.77182e-06)
(-4.73128e-06 -1.23784e-05 4.88349e-06)
(-1.20552e-06 -1.38019e-06 2.58282e-07)
(-5.08652e-07 -9.92984e-07 2.62743e-07)
(9.21874e-08 -9.3538e-07 2.71349e-07)
(6.68344e-07 -1.03941e-06 2.82026e-07)
(-2.46961e-06 -3.77857e-06 7.64974e-07)
(-1.29649e-06 -3.2604e-06 7.77654e-07)
(-8.72636e-08 -3.07202e-06 7.99756e-07)
(9.67931e-07 -3.06097e-06 8.26116e-07)
(-3.21101e-06 -5.88722e-06 1.24857e-06)
(-1.91534e-06 -5.44757e-06 1.2687e-06)
(-4.79864e-07 -5.18024e-06 1.30119e-06)
(7.53795e-07 -4.97586e-06 1.33979e-06)
(-3.75664e-06 -7.74264e-06 1.69135e-06)
(-2.43443e-06 -7.42461e-06 1.71814e-06)
(-9.37658e-07 -7.12711e-06 1.75903e-06)
(3.6843e-07 -6.77109e-06 1.80801e-06)
(-4.11559e-06 -9.33876e-06 2.07512e-06)
(-2.8401e-06 -9.19561e-06 2.1075e-06)
(-1.42029e-06 -8.90264e-06 2.15533e-06)
(-1.2923e-07 -8.40375e-06 2.21345e-06)
(-4.02797e-06 -1.06815e-05 2.38325e-06)
(-3.0102e-06 -1.07143e-05 2.41996e-06)
(-2.01239e-06 -1.04497e-05 2.47325e-06)
(-9.56716e-07 -9.85075e-06 2.53906e-06)
(-3.05647e-06 -1.18544e-05 2.60391e-06)
(-2.80495e-06 -1.17105e-05 2.64359e-06)
(-2.83204e-06 -1.14894e-05 2.70028e-06)
(-2.5285e-06 -1.11743e-05 2.77149e-06)
(-1.18948e-06 -1.29122e-05 2.73349e-06)
(-2.45071e-06 -1.17131e-05 2.77436e-06)
(-3.64832e-06 -1.1537e-05 2.83131e-06)
(-4.85904e-06 -1.24164e-05 2.90385e-06)
(-1.202e-06 -1.38134e-06 8.59594e-08)
(-5.07462e-07 -9.9448e-07 8.69501e-08)
(8.83836e-08 -9.35824e-07 8.97069e-08)
(6.60067e-07 -1.03597e-06 9.35258e-08)
(-2.46137e-06 -3.78372e-06 2.54372e-07)
(-1.2955e-06 -3.26464e-06 2.57375e-07)
(-9.94361e-08 -3.07333e-06 2.64481e-07)
(9.457e-07 -3.05616e-06 2.73925e-07)
(-3.20208e-06 -5.89618e-06 4.15021e-07)
(-1.91733e-06 -5.45419e-06 4.2005e-07)
(-4.99962e-07 -5.18302e-06 4.30545e-07)
(7.20398e-07 -4.97237e-06 4.44307e-07)
(-3.75031e-06 -7.75414e-06 5.61961e-07)
(-2.44118e-06 -7.433e-06 5.69034e-07)
(-9.64753e-07 -7.13151e-06 5.82304e-07)
(3.26389e-07 -6.76976e-06 5.9959e-07)
(-4.11339e-06 -9.35231e-06 6.89068e-07)
(-2.85213e-06 -9.20597e-06 6.98055e-07)
(-1.45333e-06 -8.90927e-06 7.1365e-07)
(-1.77958e-07 -8.4054e-06 7.33891e-07)
(-4.03034e-06 -1.06987e-05 7.90971e-07)
(-3.02725e-06 -1.07286e-05 8.01598e-07)
(-2.05012e-06 -1.04607e-05 8.1904e-07)
(-1.01026e-06 -9.85758e-06 8.41645e-07)
(-3.06337e-06 -1.18776e-05 8.64145e-07)
(-2.82635e-06 -1.17313e-05 8.75988e-07)
(-2.87317e-06 -1.15074e-05 8.94592e-07)
(-2.58503e-06 -1.11889e-05 9.18767e-07)
(-1.20024e-06 -1.29416e-05 9.07644e-07)
(-2.47539e-06 -1.17409e-05 9.19978e-07)
(-3.69203e-06 -1.15625e-05 9.38711e-07)
(-4.91755e-06 -1.24389e-05 9.63262e-07)
)
;

boundaryField
{
    interface
    {
        type            calculated;
        value           nonuniform List<vector> 
192
(
(-3.45851e-06 9.48876e-07 1.77138e-06)
(-3.18611e-06 -1.35245e-06 4.07209e-06)
(-3.59719e-06 -3.3998e-06 5.91015e-06)
(-4.12622e-06 -5.32375e-06 7.54204e-06)
(-4.53653e-06 -7.212e-06 9.08673e-06)
(-4.62092e-06 -9.0706e-06 1.07064e-05)
(-4.02812e-06 -1.10537e-05 1.26022e-05)
(-1.43733e-06 -1.35979e-05 1.46885e-05)
(-7.25882e-06 -1.07421e-06 7.91218e-07)
(-7.62148e-06 -2.84987e-06 2.74352e-06)
(-8.09376e-06 -4.65659e-06 4.59592e-06)
(-8.60107e-06 -6.47519e-06 6.24755e-06)
(-8.98514e-06 -8.24567e-06 7.78572e-06)
(-8.98194e-06 -9.86353e-06 9.34248e-06)
(-8.11164e-06 -1.12924e-05 1.09386e-05)
(-4.52504e-06 -1.29488e-05 1.21384e-05)
(-8.245e-06 -1.91431e-06 7.48546e-07)
(-9.19254e-06 -3.6656e-06 2.43429e-06)
(-9.78404e-06 -5.44345e-06 4.10648e-06)
(-1.02807e-05 -7.21159e-06 5.64486e-06)
(-1.06304e-05 -8.83706e-06 7.0573e-06)
(-1.05455e-05 -1.01518e-05 8.3724e-06)
(-9.49589e-06 -1.11347e-05 9.50484e-06)
(-5.63022e-06 -1.24979e-05 1.01558e-05)
(-8.54965e-06 -2.20609e-06 7.19486e-07)
(-9.7576e-06 -4.04815e-06 2.17841e-06)
(-1.04488e-05 -5.87705e-06 3.59316e-06)
(-1.09605e-05 -7.62613e-06 4.90521e-06)
(-1.12923e-05 -9.14055e-06 6.08827e-06)
(-1.11611e-05 -1.02588e-05 7.11169e-06)
(-1.00335e-05 -1.10421e-05 7.89307e-06)
(-6.08041e-06 -1.23565e-05 8.30759e-06)
(-8.61731e-06 -2.28602e-06 5.98966e-07)
(-9.89159e-06 -4.20582e-06 1.77564e-06)
(-1.06296e-05 -6.08685e-06 2.89673e-06)
(-1.11608e-05 -7.83435e-06 3.92949e-06)
(-1.14924e-05 -9.29137e-06 4.84283e-06)
(-1.13484e-05 -1.03242e-05 5.59739e-06)
(-1.02034e-05 -1.10496e-05 6.14273e-06)
(-6.2371e-06 -1.23706e-05 6.43925e-06)
(-8.6228e-06 -2.2997e-06 4.35292e-07)
(-9.89758e-06 -4.26252e-06 1.28564e-06)
(-1.06481e-05 -6.17593e-06 2.09164e-06)
(-1.11919e-05 -7.92922e-06 2.82865e-06)
(-1.15307e-05 -9.36782e-06 3.47094e-06)
(-1.13905e-05 -1.03776e-05 3.98979e-06)
(-1.02501e-05 -1.10981e-05 4.3594e-06)
(-6.29032e-06 -1.24321e-05 4.56897e-06)
(-8.61901e-06 -2.29875e-06 2.61151e-07)
(-9.88461e-06 -4.27968e-06 7.71147e-07)
(-1.06355e-05 -6.20866e-06 1.25449e-06)
(-1.1185e-05 -7.96842e-06 1.69473e-06)
(-1.15305e-05 -9.4062e-06 2.07531e-06)
(-1.13971e-05 -1.04163e-05 2.38015e-06)
(-1.02642e-05 -1.11444e-05 2.59749e-06)
(-6.31226e-06 -1.24889e-05 2.72423e-06)
(-8.61666e-06 -2.29695e-06 8.68421e-08)
(-9.87714e-06 -4.28348e-06 2.56437e-07)
(-1.06266e-05 -6.2181e-06 4.17262e-07)
(-1.11779e-05 -7.98161e-06 5.63554e-07)
(-1.15266e-05 -9.42193e-06 6.89632e-07)
(-1.1397e-05 -1.04358e-05 7.90397e-07)
(-1.02681e-05 -1.11696e-05 8.62439e-07)
(-6.32031e-06 -1.25199e-05 9.04981e-07)
(1.43377e-06 1.83957e-06 -3.3886e-06)
(2.00068e-06 -2.69357e-07 -1.0622e-06)
(1.67666e-06 -2.29963e-06 7.91607e-07)
(1.16994e-06 -4.30388e-06 2.42014e-06)
(7.55315e-07 -6.308e-06 3.95276e-06)
(6.5123e-07 -8.32188e-06 5.53928e-06)
(1.16884e-06 -1.05143e-05 7.4203e-06)
(2.35374e-06 -1.32761e-05 1.0848e-05)
(2.10882e-07 1.0739e-06 -6.01314e-06)
(2.89405e-07 -2.70089e-07 -3.77509e-06)
(3.57706e-08 -2.02309e-06 -1.83863e-06)
(-3.40163e-07 -4.02328e-06 -1.96244e-07)
(-6.8616e-07 -6.13758e-06 1.30458e-06)
(-8.7063e-07 -8.25929e-06 2.87663e-06)
(-7.65197e-07 -1.02878e-05 4.89412e-06)
(-4.98971e-07 -1.24176e-05 9.18558e-06)
(-1.87866e-07 1.24976e-06 -5.86703e-06)
(-5.50195e-07 -4.92052e-08 -3.50732e-06)
(-7.9473e-07 -1.77974e-06 -1.52234e-06)
(-1.01803e-06 -3.77305e-06 1.36003e-07)
(-1.28591e-06 -5.897e-06 1.64144e-06)
(-1.66553e-06 -8.04558e-06 3.21513e-06)
(-2.24108e-06 -1.0116e-05 5.2347e-06)
(-2.85946e-06 -1.22927e-05 9.53336e-06)
(-1.47759e-06 2.43116e-06 -2.78734e-06)
(-2.3184e-06 4.27241e-07 -1.058e-07)
(-2.45667e-06 -1.53837e-06 1.88911e-06)
(-2.52047e-06 -3.52032e-06 3.56802e-06)
(-2.69838e-06 -5.55633e-06 5.11818e-06)
(-3.14137e-06 -7.65769e-06 6.71248e-06)
(-4.11668e-06 -9.98807e-06 8.59817e-06)
(-5.65331e-06 -1.29285e-05 1.20249e-05)
(3.76274e-06 1.41336e-06 2.29842e-06)
(3.14242e-06 -5.64746e-07 5.09997e-06)
(3.0573e-06 -2.41568e-06 7.15233e-06)
(3.00497e-06 -4.26284e-06 8.87627e-06)
(2.82335e-06 -6.18152e-06 1.04648e-05)
(2.3681e-06 -8.15878e-06 1.21098e-05)
(1.33126e-06 -1.03265e-05 1.40207e-05)
(-1.60503e-06 -1.30938e-05 1.61107e-05)
(7.37843e-06 -5.52595e-07 1.09641e-06)
(7.18183e-06 -2.0337e-06 3.44751e-06)
(7.04398e-06 -3.64216e-06 5.52297e-06)
(6.90802e-06 -5.38368e-06 7.29472e-06)
(6.66402e-06 -7.18774e-06 8.90195e-06)
(6.0987e-06 -8.92777e-06 1.05026e-05)
(4.77088e-06 -1.05429e-05 1.21265e-05)
(8.33318e-07 -1.24228e-05 1.33373e-05)
(8.2343e-06 -1.26916e-06 9.39537e-07)
(8.48373e-06 -2.7417e-06 2.9058e-06)
(8.36132e-06 -4.34254e-06 4.76878e-06)
(8.1424e-06 -6.05126e-06 6.43254e-06)
(7.81541e-06 -7.72446e-06 7.92837e-06)
(7.13557e-06 -9.1717e-06 9.3004e-06)
(5.60563e-06 -1.03468e-05 1.047e-05)
(1.37205e-06 -1.1936e-05 1.1136e-05)
(8.4599e-06 -1.47086e-06 8.43774e-07)
(8.87831e-06 -3.01868e-06 2.49463e-06)
(8.77425e-06 -4.67865e-06 4.05546e-06)
(8.50305e-06 -6.3836e-06 5.47773e-06)
(8.10665e-06 -7.96117e-06 6.74287e-06)
(7.34291e-06 -9.22429e-06 7.82632e-06)
(5.70709e-06 -1.02078e-05 8.64809e-06)
(1.36326e-06 -1.17522e-05 9.07914e-06)
(8.47976e-06 -1.49295e-06 6.80023e-07)
(8.90577e-06 -3.09618e-06 1.9853e-06)
(8.79005e-06 -4.80485e-06 3.21069e-06)
(8.48405e-06 -6.51559e-06 4.32936e-06)
(8.04164e-06 -8.0471e-06 5.31211e-06)
(7.22917e-06 -9.23559e-06 6.12036e-06)
(5.54795e-06 -1.01692e-05 6.70288e-06)
(1.16753e-06 -1.17249e-05 7.01491e-06)
(8.45635e-06 -1.47053e-06 4.85971e-07)
(8.84632e-06 -3.09836e-06 1.41804e-06)
(8.70413e-06 -4.8324e-06 2.29278e-06)
(8.37171e-06 -6.55072e-06 3.08949e-06)
(7.90131e-06 -8.07042e-06 3.78262e-06)
(7.06328e-06 -9.24374e-06 4.34238e-06)
(5.36305e-06 -1.01792e-05 4.74094e-06)
(9.69511e-07 -1.17525e-05 4.96278e-06)
(8.43615e-06 -1.4487e-06 2.88817e-07)
(8.79606e-06 -3.0826e-06 8.43825e-07)
(8.63105e-06 -4.82629e-06 1.36578e-06)
(8.2801e-06 -6.55069e-06 1.8405e-06)
(7.79354e-06 -8.07285e-06 2.25132e-06)
(6.94252e-06 -9.25134e-06 2.58102e-06)
(5.23367e-06 -1.01991e-05 2.81609e-06)
(8.3469e-07 -1.17869e-05 2.95036e-06)
(8.42655e-06 -1.43764e-06 9.55932e-08)
(8.77222e-06 -3.0715e-06 2.79478e-07)
(8.59553e-06 -4.81786e-06 4.52649e-07)
(8.23533e-06 -6.54554e-06 6.10091e-07)
(7.74144e-06 -8.07163e-06 7.46059e-07)
(6.88503e-06 -9.25622e-06 8.55013e-07)
(5.17285e-06 -1.02125e-05 9.32878e-07)
(7.72111e-07 -1.18083e-05 9.77865e-07)
(2.11091e-06 -9.51206e-06 1.53305e-05)
(4.26603e-07 -7.52157e-06 1.25716e-05)
(-6.06635e-07 -7.08639e-06 1.03985e-05)
(-1.04021e-06 -6.97932e-06 8.43471e-06)
(-1.19207e-06 -7.00411e-06 6.51355e-06)
(-1.24906e-06 -7.06747e-06 4.61859e-06)
(-1.27719e-06 -7.1246e-06 2.75436e-06)
(-1.28914e-06 -7.15607e-06 9.14998e-07)
(-7.37815e-07 -7.3676e-06 1.4952e-05)
(-1.50597e-06 -4.50916e-06 1.28259e-05)
(-2.12779e-06 -3.93158e-06 1.0815e-05)
(-2.46694e-06 -3.83026e-06 8.7362e-06)
(-2.63929e-06 -3.8811e-06 6.68246e-06)
(-2.73669e-06 -3.95611e-06 4.70427e-06)
(-2.79413e-06 -4.01439e-06 2.79456e-06)
(-2.81978e-06 -4.04477e-06 9.26912e-07)
(-3.09736e-06 -7.23958e-06 1.52989e-05)
(-2.98207e-06 -4.36619e-06 1.31194e-05)
(-2.91842e-06 -3.77839e-06 1.10519e-05)
(-3.03548e-06 -3.66728e-06 8.9206e-06)
(-3.21641e-06 -3.70893e-06 6.81939e-06)
(-3.37185e-06 -3.77652e-06 4.79843e-06)
(-3.47213e-06 -3.83001e-06 2.84967e-06)
(-3.51713e-06 -3.85838e-06 9.45092e-07)
(-5.8951e-06 -9.25191e-06 1.64101e-05)
(-4.8597e-06 -7.24297e-06 1.34606e-05)
(-4.38825e-06 -6.78029e-06 1.11136e-05)
(-4.41604e-06 -6.64233e-06 8.99169e-06)
(-4.62204e-06 -6.63792e-06 6.92699e-06)
(-4.82152e-06 -6.6779e-06 4.9019e-06)
(-4.95352e-06 -6.72014e-06 2.91898e-06)
(-5.01334e-06 -6.74557e-06 9.68902e-07)
)
;
    }
    symmetry
    {
        type            symmetry;
    }
    bottom
    {
        type            calculated;
        value           uniform (0 0 0);
    }
}


// ************************************************************************* //
