/*--------------------------------*- C++ -*----------------------------------*\
| =========                 |                                                 |
| \\      /  F ield         | OpenFOAM: The Open Source CFD Toolbox           |
|  \\    /   O peration     | Version:  v1912                                 |
|   \\  /    A nd           | Website:  www.openfoam.com                      |
|    \\/     M anipulation  |                                                 |
\*---------------------------------------------------------------------------*/
FoamFile
{
    version     2.0;
    format      ascii;
    class       volVectorField;
    location    "0.49/fluid";
    object      cellMotionU;
}
// * * * * * * * * * * * * * * * * * * * * * * * * * * * * * * * * * * * * * //

dimensions      [0 1 -1 0 0 0 0];


internalField   nonuniform List<vector> 
14592
(
(1.6731e-10 -3.75754e-10 2.84446e-10)
(4.66602e-10 -1.05073e-09 8.05051e-10)
(7.42289e-10 -1.67859e-09 1.31736e-09)
(1.00385e-09 -2.28149e-09 1.85429e-09)
(1.26145e-09 -2.87658e-09 2.44857e-09)
(1.52392e-09 -3.46991e-09 3.12855e-09)
(1.80184e-09 -4.05892e-09 3.92326e-09)
(2.10862e-09 -4.62662e-09 4.86064e-09)
(2.46437e-09 -5.13585e-09 5.9692e-09)
(2.9032e-09 -5.51248e-09 7.27609e-09)
(3.4943e-09 -5.61967e-09 8.81534e-09)
(4.39203e-09 -5.18472e-09 1.06461e-08)
(5.96509e-09 -3.60793e-09 1.29334e-08)
(9.17377e-09 6.3417e-10 1.62129e-08)
(1.6271e-08 1.14244e-08 2.19496e-08)
(2.91635e-08 3.3359e-08 3.1339e-08)
(4.98078e-10 -1.11571e-09 8.4564e-10)
(1.38931e-09 -3.12055e-09 2.39375e-09)
(2.209e-09 -4.98607e-09 3.9149e-09)
(2.98756e-09 -6.78171e-09 5.51141e-09)
(3.75173e-09 -8.55333e-09 7.2734e-09)
(4.52924e-09 -1.03253e-08 9.28853e-09)
(5.35027e-09 -1.20927e-08 1.16409e-08)
(6.25236e-09 -1.38132e-08 1.44133e-08)
(7.28772e-09 -1.5386e-08 1.76837e-08)
(8.5412e-09 -1.66217e-08 2.15256e-08)
(1.01681e-08 -1.71813e-08 2.60055e-08)
(1.2472e-08 -1.64778e-08 3.11962e-08)
(1.60956e-08 -1.34789e-08 3.72413e-08)
(2.2266e-08 -6.45159e-09 4.44646e-08)
(3.28119e-08 6.84587e-09 5.34127e-08)
(4.66921e-08 2.44434e-08 6.29936e-08)
(8.18398e-10 -1.82252e-09 1.3858e-09)
(2.28232e-09 -5.09883e-09 3.92172e-09)
(3.62844e-09 -8.15289e-09 6.41319e-09)
(4.90438e-09 -1.1097e-08 9.02308e-09)
(6.15511e-09 -1.40137e-08 1.19015e-08)
(7.42469e-09 -1.69487e-08 1.51897e-08)
(8.76077e-09 -1.99069e-08 1.90252e-08)
(1.02193e-08 -2.2838e-08 2.35413e-08)
(1.18732e-08 -2.56154e-08 2.88655e-08)
(1.38267e-08 -2.79963e-08 3.51095e-08)
(1.62465e-08 -2.95697e-08 4.2357e-08)
(1.94239e-08 -2.96851e-08 5.06513e-08)
(2.38942e-08 -2.74002e-08 5.99979e-08)
(3.05796e-08 -2.16306e-08 7.04157e-08)
(4.06984e-08 -1.20196e-08 8.19776e-08)
(5.31397e-08 -2.04296e-09 9.34849e-08)
(1.1216e-09 -2.47364e-09 1.89164e-09)
(3.12713e-09 -6.92365e-09 5.35197e-09)
(4.96943e-09 -1.10791e-08 8.74796e-09)
(6.71313e-09 -1.50991e-08 1.2301e-08)
(8.41788e-09 -1.91014e-08 1.62117e-08)
(1.01432e-08 -2.31624e-08 2.06721e-08)
(1.19517e-08 -2.73093e-08 2.5868e-08)
(1.39139e-08 -3.15097e-08 3.19814e-08)
(1.61137e-08 -3.56493e-08 3.91861e-08)
(1.86565e-08 -3.94999e-08 4.76358e-08)
(2.16768e-08 -4.26739e-08 5.74356e-08)
(2.53599e-08 -4.45774e-08 6.86031e-08)
(2.9988e-08 -4.44058e-08 8.10267e-08)
(3.59632e-08 -4.13168e-08 9.43877e-08)
(4.38176e-08 -3.51145e-08 1.08098e-07)
(5.27745e-08 -2.8183e-08 1.20119e-07)
(1.40155e-09 -3.04691e-09 2.35159e-09)
(3.90688e-09 -8.53263e-09 6.65162e-09)
(6.20519e-09 -1.36668e-08 1.08658e-08)
(8.37507e-09 -1.86521e-08 1.52645e-08)
(1.04904e-08 -2.36466e-08 2.00949e-08)
(1.26234e-08 -2.87616e-08 2.5591e-08)
(1.48499e-08 -3.40596e-08 3.19809e-08)
(1.72536e-08 -3.95463e-08 3.94899e-08)
(1.99296e-08 -4.51565e-08 4.83383e-08)
(2.29858e-08 -5.0729e-08 5.87278e-08)
(2.65331e-08 -5.59714e-08 7.08084e-08)
(3.06856e-08 -6.04076e-08 8.46412e-08)
(3.55173e-08 -6.33055e-08 1.00087e-07)
(4.10258e-08 -6.36357e-08 1.16662e-07)
(4.71644e-08 -6.02476e-08 1.33212e-07)
(5.33791e-08 -5.37598e-08 1.46563e-07)
(1.65341e-09 -3.52126e-09 2.75673e-09)
(4.60712e-09 -9.86574e-09 7.79441e-09)
(7.31188e-09 -1.5818e-08 1.27219e-08)
(9.85839e-09 -2.16232e-08 1.78514e-08)
(1.23306e-08 -2.74764e-08 2.34648e-08)
(1.48121e-08 -3.35281e-08 2.98304e-08)
(1.73901e-08 -3.98825e-08 3.72094e-08)
(2.01618e-08 -4.65978e-08 4.58626e-08)
(2.32384e-08 -5.36811e-08 5.6051e-08)
(2.67471e-08 -6.10774e-08 6.8028e-08)
(3.08266e-08 -6.86493e-08 8.20198e-08)
(3.5621e-08 -7.61283e-08 9.81925e-08)
(4.12395e-08 -8.29934e-08 1.1658e-07)
(4.76548e-08 -8.81578e-08 1.36879e-07)
(5.45412e-08 -8.93569e-08 1.57872e-07)
(6.05653e-08 -8.4094e-08 1.75034e-07)
(1.87289e-09 -3.87635e-09 3.10028e-09)
(5.21648e-09 -1.08667e-08 8.76141e-09)
(8.27165e-09 -1.74422e-08 1.42861e-08)
(1.11369e-08 -2.38831e-08 2.00157e-08)
(1.39044e-08 -3.04199e-08 2.62589e-08)
(1.6665e-08 -3.72384e-08 3.33058e-08)
(1.95149e-08 -4.44855e-08 4.14393e-08)
(2.25626e-08 -5.22737e-08 5.09422e-08)
(2.59378e-08 -6.06879e-08 6.21033e-08)
(2.97993e-08 -6.97918e-08 7.52166e-08)
(3.43537e-08 -7.96362e-08 9.05832e-08)
(3.98816e-08 -9.02626e-08 1.08515e-07)
(4.67931e-08 -1.01679e-07 1.2935e-07)
(5.56529e-08 -1.13666e-07 1.53377e-07)
(6.70144e-08 -1.25021e-07 1.80267e-07)
(7.89485e-08 -1.31674e-07 2.04898e-07)
(2.05735e-09 -4.09516e-09 3.3786e-09)
(5.72732e-09 -1.14873e-08 9.54255e-09)
(9.07202e-09 -1.84596e-08 1.55411e-08)
(1.21946e-08 -2.53202e-08 2.17353e-08)
(1.519e-08 -3.23255e-08 2.84465e-08)
(1.81529e-08 -3.96906e-08 3.5976e-08)
(2.11829e-08 -4.75968e-08 4.46131e-08)
(2.43942e-08 -5.62011e-08 5.46456e-08)
(2.79262e-08 -6.56497e-08 6.63667e-08)
(3.19591e-08 -7.60965e-08 8.00792e-08)
(3.67481e-08 -8.7735e-08 9.61106e-08)
(4.26892e-08 -1.0086e-07 1.14851e-07)
(5.04663e-08 -1.15991e-07 1.36852e-07)
(6.13472e-08 -1.34101e-07 1.62992e-07)
(7.76176e-08 -1.56778e-07 1.94512e-07)
(9.91663e-08 -1.82447e-07 2.28061e-07)
(1.6691e-10 -3.83445e-10 2.70184e-10)
(4.65253e-10 -1.07238e-09 7.6461e-10)
(7.38793e-10 -1.7134e-09 1.24964e-09)
(9.96948e-10 -2.32991e-09 1.75735e-09)
(1.24803e-09 -2.9385e-09 2.3162e-09)
(1.49985e-09 -3.54729e-09 2.95306e-09)
(1.76039e-09 -4.15494e-09 3.6933e-09)
(2.03891e-09 -4.74711e-09 4.56046e-09)
(2.34814e-09 -5.29104e-09 5.57528e-09)
(2.70956e-09 -5.7243e-09 6.75342e-09)
(3.16645e-09 -5.93449e-09 8.10211e-09)
(3.81431e-09 -5.71742e-09 9.62006e-09)
(4.88705e-09 -4.66083e-09 1.1311e-08)
(6.88949e-09 -1.88006e-09 1.31963e-08)
(1.0743e-08 4.40192e-09 1.52643e-08)
(1.62314e-08 1.48133e-08 1.65475e-08)
(4.97045e-10 -1.1384e-09 8.03366e-10)
(1.38518e-09 -3.18405e-09 2.27253e-09)
(2.19941e-09 -5.0887e-09 3.71402e-09)
(2.96722e-09 -6.92254e-09 5.2214e-09)
(3.71318e-09 -8.73509e-09 6.87939e-09)
(4.46035e-09 -1.05529e-08 8.76714e-09)
(5.23177e-09 -1.2375e-08 1.0959e-08)
(6.05297e-09 -1.41653e-08 1.3524e-08)
(6.95627e-09 -1.58362e-08 1.65206e-08)
(7.99078e-09 -1.7225e-08 1.99878e-08)
(9.24464e-09 -1.80562e-08 2.39285e-08)
(1.09006e-08 -1.78814e-08 2.82848e-08)
(1.33087e-08 -1.60156e-08 3.28769e-08)
(1.70681e-08 -1.15422e-08 3.72825e-08)
(2.2615e-08 -3.97791e-09 4.04416e-08)
(2.81006e-08 3.75149e-09 4.03741e-08)
(8.16964e-10 -1.85923e-09 1.31631e-09)
(2.27656e-09 -5.20172e-09 3.72307e-09)
(3.61415e-09 -8.31822e-09 6.08305e-09)
(4.87439e-09 -1.13255e-08 8.54847e-09)
(6.09754e-09 -1.43085e-08 1.12575e-08)
(7.32105e-09 -1.73175e-08 1.43388e-08)
(8.58162e-09 -2.03621e-08 1.79138e-08)
(9.9175e-09 -2.34008e-08 2.2095e-08)
(1.13715e-08 -2.6323e-08 2.69788e-08)
(1.29967e-08 -2.89212e-08 3.26288e-08)
(1.48692e-08 -3.08577e-08 3.90437e-08)
(1.71162e-08 -3.16434e-08 4.61037e-08)
(1.99523e-08 -3.06869e-08 5.34732e-08)
(2.3656e-08 -2.7612e-08 6.04193e-08)
(2.82043e-08 -2.32376e-08 6.55258e-08)
(3.19468e-08 -2.09425e-08 6.68455e-08)
(1.12022e-09 -2.5231e-09 1.79662e-09)
(3.12136e-09 -7.06205e-09 5.08107e-09)
(4.95386e-09 -1.1302e-08 8.298e-09)
(6.67854e-09 -1.54064e-08 1.16543e-08)
(8.35e-09 -1.94981e-08 1.53359e-08)
(1.00192e-08 -2.36573e-08 1.95168e-08)
(1.17357e-08 -2.79166e-08 2.43618e-08)
(1.35485e-08 -3.22516e-08 3.00256e-08)
(1.55063e-08 -3.65632e-08 3.66432e-08)
(1.7653e-08 -4.06546e-08 4.43084e-08)
(2.00208e-08 -4.42046e-08 5.30317e-08)
(2.262e-08 -4.67605e-08 6.26684e-08)
(2.53896e-08 -4.78136e-08 7.27693e-08)
(2.81287e-08 -4.71126e-08 8.23583e-08)
(3.03076e-08 -4.54255e-08 8.95802e-08)
(3.09306e-08 -4.51066e-08 9.19211e-08)
(1.40104e-09 -3.10757e-09 2.2338e-09)
(3.903e-09 -8.7021e-09 6.31528e-09)
(6.19185e-09 -1.39394e-08 1.03077e-08)
(8.3425e-09 -1.90286e-08 1.44641e-08)
(1.04226e-08 -2.41318e-08 1.90125e-08)
(1.24959e-08 -2.9365e-08 2.41656e-08)
(1.46243e-08 -3.47948e-08 3.01265e-08)
(1.68691e-08 -4.04327e-08 3.70876e-08)
(1.92883e-08 -4.62237e-08 4.52237e-08)
(2.19255e-08 -5.20274e-08 5.46671e-08)
(2.47935e-08 -5.75939e-08 6.54716e-08)
(2.7809e-08 -6.25405e-08 7.75066e-08)
(3.07115e-08 -6.63466e-08 9.03252e-08)
(3.28726e-08 -6.84514e-08 1.02807e-07)
(3.32198e-08 -6.86828e-08 1.12672e-07)
(3.11192e-08 -6.83012e-08 1.16509e-07)
(1.6543e-09 -3.59093e-09 2.61902e-09)
(4.60709e-09 -1.00606e-08 7.40119e-09)
(7.30466e-09 -1.61316e-08 1.20705e-08)
(9.83367e-09 -2.20557e-08 1.6918e-08)
(1.22729e-08 -2.80334e-08 2.22048e-08)
(1.46971e-08 -3.42183e-08 2.81748e-08)
(1.71808e-08 -4.07179e-08 3.50608e-08)
(1.98e-08 -4.75929e-08 4.30868e-08)
(2.2631e-08 -5.48533e-08 5.24622e-08)
(2.57435e-08 -6.24501e-08 6.33652e-08)
(2.9178e-08 -7.02589e-08 7.59029e-08)
(3.28994e-08 -7.80422e-08 9.0041e-08)
(3.66641e-08 -8.53628e-08 1.05433e-07)
(3.97696e-08 -9.13816e-08 1.21052e-07)
(4.06972e-08 -9.46223e-08 1.34453e-07)
(3.78531e-08 -9.39078e-08 1.41169e-07)
(1.87578e-09 -3.95284e-09 2.94585e-09)
(5.22199e-09 -1.10805e-08 8.32088e-09)
(8.27341e-09 -1.77862e-08 1.35568e-08)
(1.11255e-08 -2.43578e-08 1.89731e-08)
(1.3865e-08 -3.10304e-08 2.48544e-08)
(1.65758e-08 -3.79931e-08 3.14653e-08)
(1.93429e-08 -4.53941e-08 3.90581e-08)
(2.22569e-08 -5.3345e-08 4.78765e-08)
(2.54181e-08 -6.19273e-08 5.81535e-08)
(2.89383e-08 -7.11965e-08 7.01015e-08)
(3.294e-08 -8.11884e-08 8.38855e-08)
(3.7549e-08 -9.19155e-08 9.95769e-08)
(4.2844e-08 -1.03325e-07 1.17022e-07)
(4.86975e-08 -1.15098e-07 1.35494e-07)
(5.4227e-08 -1.25999e-07 1.52742e-07)
(5.67218e-08 -1.32592e-07 1.63227e-07)
(2.06253e-09 -4.1758e-09 3.21089e-09)
(5.73946e-09 -1.17127e-08 9.06452e-09)
(9.08507e-09 -1.88225e-08 1.47511e-08)
(1.21996e-08 -2.58208e-08 2.06076e-08)
(1.51744e-08 -3.29691e-08 2.69315e-08)
(1.8098e-08 -4.04851e-08 3.39972e-08)
(2.10614e-08 -4.85499e-08 4.20635e-08)
(2.41649e-08 -5.73172e-08 5.13783e-08)
(2.75253e-08 -6.69245e-08 6.2178e-08)
(3.12879e-08 -7.75085e-08 7.46828e-08)
(3.56449e-08 -8.92288e-08 8.90787e-08)
(4.08706e-08 -1.0231e-07 1.05491e-07)
(4.73782e-08 -1.17113e-07 1.23906e-07)
(5.58065e-08 -1.34218e-07 1.4391e-07)
(6.68373e-08 -1.54172e-07 1.6376e-07)
(7.86644e-08 -1.74099e-07 1.77565e-07)
(1.65817e-10 -3.90026e-10 2.46198e-10)
(4.61707e-10 -1.09082e-09 6.96252e-10)
(7.31853e-10 -1.74317e-09 1.13732e-09)
(9.84432e-10 -2.37097e-09 1.59728e-09)
(1.22655e-09 -2.99147e-09 2.10169e-09)
(1.46397e-09 -3.6141e-09 2.67371e-09)
(1.70133e-09 -4.23872e-09 3.33393e-09)
(1.94258e-09 -4.85519e-09 4.10072e-09)
(2.19085e-09 -5.43674e-09 4.98608e-09)
(2.45064e-09 -5.93633e-09 5.99268e-09)
(2.73192e-09 -6.27605e-09 7.10422e-09)
(3.06285e-09 -6.32997e-09 8.27106e-09)
(3.50108e-09 -5.89273e-09 9.37482e-09)
(4.1584e-09 -4.59632e-09 1.01735e-08)
(5.06764e-09 -1.85999e-09 1.01126e-08)
(5.63824e-09 2.25688e-09 8.26491e-09)
(4.93847e-10 -1.15775e-09 7.31866e-10)
(1.37509e-09 -3.23837e-09 2.06966e-09)
(2.17926e-09 -5.17615e-09 3.37963e-09)
(2.93112e-09 -7.04311e-09 4.74568e-09)
(3.65134e-09 -8.8908e-09 6.24253e-09)
(4.35707e-09 -1.07484e-08 7.93804e-09)
(5.06212e-09 -1.26201e-08 9.89405e-09)
(5.77651e-09 -1.44772e-08 1.21623e-08)
(6.50688e-09 -1.62508e-08 1.47789e-08)
(7.2566e-09 -1.78154e-08 1.77473e-08)
(8.03212e-09 -1.89748e-08 2.10118e-08)
(8.849e-09 -1.94535e-08 2.43994e-08)
(9.74763e-09 -1.8915e-08 2.75258e-08)
(1.07189e-08 -1.71016e-08 2.95795e-08)
(1.1436e-08 -1.4296e-08 2.90943e-08)
(1.09535e-08 -1.22498e-08 2.50037e-08)
(8.12097e-10 -1.89056e-09 1.19916e-09)
(2.26117e-09 -5.2895e-09 3.39084e-09)
(3.58333e-09 -8.45958e-09 5.53554e-09)
(4.81904e-09 -1.15202e-08 7.77024e-09)
(6.00254e-09 -1.45594e-08 1.02163e-08)
(7.16228e-09 -1.76311e-08 1.29847e-08)
(8.32078e-09 -2.07503e-08 1.61756e-08)
(9.49382e-09 -2.3887e-08 1.98759e-08)
(1.06862e-08 -2.69518e-08 2.41459e-08)
(1.18872e-08 -2.97829e-08 2.89969e-08)
(1.30621e-08 -3.21362e-08 3.43475e-08)
(1.41401e-08 -3.37069e-08 3.99436e-08)
(1.49842e-08 -3.42425e-08 4.52252e-08)
(1.53149e-08 -3.38668e-08 4.91321e-08)
(1.45901e-08 -3.36565e-08 5.00306e-08)
(1.24543e-08 -3.53491e-08 4.71522e-08)
(1.11442e-09 -2.56519e-09 1.63717e-09)
(3.10265e-09 -7.18011e-09 4.62756e-09)
(4.91618e-09 -1.14916e-08 7.552e-09)
(6.61039e-09 -1.56672e-08 1.05945e-08)
(8.23241e-09 -1.98328e-08 1.39194e-08)
(9.82217e-09 -2.40722e-08 1.76766e-08)
(1.14121e-08 -2.84236e-08 2.20031e-08)
(1.30241e-08 -3.28711e-08 2.70185e-08)
(1.46623e-08 -3.73354e-08 3.28115e-08)
(1.62985e-08 -4.16582e-08 3.94116e-08)
(1.78443e-08 -4.55979e-08 4.67342e-08)
(1.90998e-08 -4.88556e-08 5.44858e-08)
(1.96769e-08 -5.11963e-08 6.20289e-08)
(1.88911e-08 -5.27551e-08 6.8158e-08)
(1.58781e-08 -5.44752e-08 7.10718e-08)
(1.10231e-08 -5.74184e-08 6.97025e-08)
(1.39505e-09 -3.15901e-09 2.03562e-09)
(3.88344e-09 -8.846e-09 5.75264e-09)
(6.15189e-09 -1.41705e-08 9.3824e-09)
(8.26914e-09 -1.93456e-08 1.3151e-08)
(1.02949e-08 -2.45366e-08 1.72595e-08)
(1.22807e-08 -2.98624e-08 2.18917e-08)
(1.42702e-08 -3.53924e-08 2.72166e-08)
(1.62961e-08 -4.11435e-08 3.33847e-08)
(1.83702e-08 -4.70702e-08 4.0514e-08)
(2.04635e-08 -5.30542e-08 4.86614e-08)
(2.24599e-08 -5.88923e-08 5.77572e-08)
(2.40862e-08 -6.42961e-08 6.75313e-08)
(2.4748e-08 -6.89268e-08 7.73081e-08)
(2.33797e-08 -7.25262e-08 8.58099e-08)
(1.8627e-08 -7.52065e-08 9.10055e-08)
(1.1212e-08 -7.75279e-08 9.12577e-08)
(1.64889e-09 -3.64983e-09 2.38691e-09)
(4.58924e-09 -1.02254e-08 6.74296e-09)
(7.26693e-09 -1.63959e-08 1.09889e-08)
(9.76277e-09 -2.24173e-08 1.53851e-08)
(1.21472e-08 -2.84929e-08 2.01618e-08)
(1.44833e-08 -3.47778e-08 2.55297e-08)
(1.68277e-08 -4.13796e-08 3.16835e-08)
(1.92283e-08 -4.83574e-08 3.87985e-08)
(2.17181e-08 -5.57197e-08 4.70196e-08)
(2.42949e-08 -6.34166e-08 5.6431e-08)
(2.68839e-08 -7.13259e-08 6.70041e-08)
(2.92515e-08 -7.92242e-08 7.84966e-08)
(3.0832e-08 -8.67183e-08 9.02766e-08)
(3.04598e-08 -9.30954e-08 1.01034e-07)
(2.62914e-08 -9.71501e-08 1.08537e-07)
(1.81048e-08 -9.77447e-08 1.10564e-07)
(1.87179e-09 -4.01723e-09 2.68541e-09)
(5.20795e-09 -1.12606e-08 7.58234e-09)
(8.2421e-09 -1.80746e-08 1.23447e-08)
(1.10637e-08 -2.47515e-08 1.72579e-08)
(1.37523e-08 -3.15287e-08 2.2573e-08)
(1.63805e-08 -3.85951e-08 2.85193e-08)
(1.90171e-08 -4.60957e-08 3.53076e-08)
(2.17282e-08 -5.4135e-08 4.31293e-08)
(2.45745e-08 -6.2781e-08 5.21461e-08)
(2.7604e-08 -7.2066e-08 6.24635e-08)
(3.08335e-08 -8.19843e-08 7.40835e-08)
(3.42017e-08 -9.24748e-08 8.68064e-08)
(3.74617e-08 -1.03354e-07 1.00044e-07)
(3.99704e-08 -1.14098e-07 1.12456e-07)
(4.03869e-08 -1.2329e-07 1.21504e-07)
(3.73658e-08 -1.27927e-07 1.24168e-07)
(2.06043e-09 -4.24342e-09 2.92761e-09)
(5.73106e-09 -1.19018e-08 8.26178e-09)
(9.06321e-09 -1.91252e-08 1.34353e-08)
(1.21521e-08 -2.62334e-08 1.87491e-08)
(1.50826e-08 -3.34897e-08 2.44662e-08)
(1.79335e-08 -4.11105e-08 3.08242e-08)
(2.07823e-08 -4.9271e-08 3.80399e-08)
(2.37079e-08 -5.81134e-08 4.63077e-08)
(2.67948e-08 -6.77532e-08 5.57915e-08)
(3.01343e-08 -7.8288e-08 6.65994e-08)
(3.38279e-08 -8.98062e-08 7.87402e-08)
(3.79846e-08 -1.02399e-07 9.20319e-08)
(4.27094e-08 -1.16168e-07 1.05909e-07)
(4.80868e-08 -1.31194e-07 1.19002e-07)
(5.40868e-08 -1.47249e-07 1.28394e-07)
(5.977e-08 -1.61625e-07 1.29845e-07)
(1.64262e-10 -3.95409e-10 2.13535e-10)
(4.56952e-10 -1.10592e-09 6.0375e-10)
(7.22703e-10 -1.76745e-09 9.85165e-10)
(9.68846e-10 -2.40443e-09 1.38239e-09)
(1.20087e-09 -3.03489e-09 1.81614e-09)
(1.4224e-09 -3.66876e-09 2.3054e-09)
(1.63482e-09 -4.30801e-09 2.86628e-09)
(1.83675e-09 -4.94494e-09 3.51132e-09)
(2.02293e-09 -5.55966e-09 4.24625e-09)
(2.18349e-09 -6.11776e-09 5.06516e-09)
(2.30323e-09 -6.56784e-09 5.94106e-09)
(2.36239e-09 -6.83846e-09 6.81064e-09)
(2.33976e-09 -6.82956e-09 7.55946e-09)
(2.18354e-09 -6.3832e-09 7.98466e-09)
(1.74264e-09 -5.20377e-09 7.83168e-09)
(7.51059e-10 -3.04603e-09 6.98098e-09)
(4.89373e-10 -1.17364e-09 6.34841e-10)
(1.36123e-09 -3.28283e-09 1.79438e-09)
(2.15294e-09 -5.24772e-09 2.92826e-09)
(2.88601e-09 -7.14177e-09 4.10731e-09)
(3.57699e-09 -9.018e-09 5.39449e-09)
(4.23685e-09 -1.09083e-08 6.84503e-09)
(4.86993e-09 -1.28202e-08 8.50661e-09)
(5.47176e-09 -1.47337e-08 1.04155e-08)
(6.02552e-09 -1.65955e-08 1.25886e-08)
(6.49677e-09 -1.83122e-08 1.50069e-08)
(6.82845e-09 -1.97495e-08 1.75872e-08)
(6.94039e-09 -2.07427e-08 2.01423e-08)
(6.719e-09 -2.11357e-08 2.23011e-08)
(6.01602e-09 -2.08622e-08 2.34585e-08)
(4.66677e-09 -2.00727e-08 2.28488e-08)
(2.93659e-09 -1.9251e-08 2.06057e-08)
(8.05174e-10 -1.91621e-09 1.04033e-09)
(2.23972e-09 -5.36155e-09 2.94003e-09)
(3.54251e-09 -8.57528e-09 4.79653e-09)
(4.74903e-09 -1.16791e-08 6.72573e-09)
(5.88706e-09 -1.47632e-08 8.82946e-09)
(6.97557e-09 -1.78844e-08 1.1198e-08)
(8.0231e-09 -2.10629e-08 1.39096e-08)
(9.02351e-09 -2.42778e-08 1.7025e-08)
(9.94822e-09 -2.74592e-08 2.05748e-08)
(1.07339e-08 -3.04827e-08 2.45356e-08)
(1.12663e-08 -3.31737e-08 2.87889e-08)
(1.13611e-08 -3.53434e-08 3.30619e-08)
(1.07497e-08 -3.68955e-08 3.68535e-08)
(9.11371e-09 -3.80399e-08 3.9401e-08)
(6.33967e-09 -3.9506e-08 3.99436e-08)
(3.44555e-09 -4.1844e-08 3.89087e-08)
(1.10572e-09 -2.59972e-09 1.4201e-09)
(3.07588e-09 -7.27673e-09 4.01332e-09)
(4.865e-09 -1.16467e-08 6.54477e-09)
(6.52231e-09 -1.58791e-08 9.17174e-09)
(8.08685e-09 -2.01023e-08 1.20317e-08)
(9.58701e-09 -2.44029e-08 1.52469e-08)
(1.10379e-08 -2.88226e-08 1.89244e-08)
(1.24356e-08 -3.33531e-08 2.31492e-08)
(1.37455e-08 -3.79299e-08 2.797e-08)
(1.48805e-08 -4.24245e-08 3.3368e-08)
(1.56695e-08 -4.66493e-08 3.92126e-08)
(1.58118e-08 -5.03941e-08 4.51996e-08)
(1.48202e-08 -5.35306e-08 5.07583e-08)
(1.20788e-08 -5.623e-08 5.50831e-08)
(7.30485e-09 -5.91351e-08 5.73928e-08)
(2.21732e-09 -6.24764e-08 5.78924e-08)
(1.38551e-09 -3.201e-09 1.76622e-09)
(3.85396e-09 -8.96362e-09 4.98971e-09)
(6.09514e-09 -1.43585e-08 8.1325e-09)
(8.17105e-09 -1.96012e-08 1.13871e-08)
(1.01323e-08 -2.4859e-08 1.49217e-08)
(1.20178e-08 -3.02519e-08 1.88865e-08)
(1.38528e-08 -3.58504e-08 2.34139e-08)
(1.56425e-08 -4.16731e-08 2.8612e-08)
(1.73583e-08 -4.768e-08 3.45478e-08)
(1.89117e-08 -5.37641e-08 4.12156e-08)
(2.01132e-08 -5.9746e-08 4.84974e-08)
(2.05876e-08 -6.53747e-08 5.60619e-08)
(1.96861e-08 -7.03598e-08 6.33383e-08)
(1.64622e-08 -7.44488e-08 6.94683e-08)
(1.0213e-08 -7.75733e-08 7.35919e-08)
(2.93276e-09 -7.98079e-08 7.5567e-08)
(1.63945e-09 -3.69783e-09 2.07158e-09)
(4.55967e-09 -1.03595e-08 5.84982e-09)
(7.20963e-09 -1.66098e-08 9.52695e-09)
(9.66287e-09 -2.27066e-08 1.33242e-08)
(1.19808e-08 -2.88545e-08 1.74345e-08)
(1.42136e-08 -3.5208e-08 2.20303e-08)
(1.63997e-08 -4.18715e-08 2.72642e-08)
(1.85604e-08 -4.88995e-08 3.32624e-08)
(2.06891e-08 -5.62922e-08 4.01085e-08)
(2.27293e-08 -6.39883e-08 4.78137e-08)
(2.45319e-08 -7.18488e-08 5.62629e-08)
(2.57772e-08 -7.96243e-08 6.51399e-08)
(2.58448e-08 -8.68807e-08 7.3836e-08)
(2.37008e-08 -9.2845e-08 8.14273e-08)
(1.81753e-08 -9.62202e-08 8.69134e-08)
(1.03497e-08 -9.585e-08 8.99353e-08)
(1.86317e-09 -4.06948e-09 2.331e-09)
(5.18086e-09 -1.14065e-08 6.57939e-09)
(8.18874e-09 -1.83066e-08 1.07047e-08)
(1.09695e-08 -2.5064e-08 1.49494e-08)
(1.35938e-08 -3.19163e-08 1.95243e-08)
(1.61225e-08 -3.90496e-08 2.4617e-08)
(1.86072e-08 -4.66024e-08 3.03931e-08)
(2.10892e-08 -5.46671e-08 3.699e-08)
(2.35936e-08 -6.32911e-08 4.45008e-08)
(2.61186e-08 -7.24728e-08 5.29456e-08)
(2.86118e-08 -8.21503e-08 6.22133e-08)
(3.09266e-08 -9.21692e-08 7.19786e-08)
(3.27475e-08 -1.02199e-07 8.15775e-08)
(3.35178e-08 -1.11522e-07 8.99134e-08)
(3.25081e-08 -1.18597e-07 9.56216e-08)
(2.97447e-08 -1.20937e-07 9.8125e-08)
(2.05339e-09 -4.29809e-09 2.54177e-09)
(5.7084e-09 -1.20543e-08 7.17052e-09)
(9.0175e-09 -1.93673e-08 1.16529e-08)
(1.20696e-08 -2.65586e-08 1.62449e-08)
(1.49414e-08 -3.38906e-08 2.11675e-08)
(1.77014e-08 -4.15754e-08 2.66155e-08)
(2.04118e-08 -4.97789e-08 3.27591e-08)
(2.31302e-08 -5.86256e-08 3.97375e-08)
(2.59096e-08 -6.82018e-08 4.76435e-08)
(2.87978e-08 -7.85559e-08 5.6494e-08)
(3.18342e-08 -8.96941e-08 6.61718e-08)
(3.50437e-08 -1.01571e-07 7.6331e-08)
(3.84411e-08 -1.14072e-07 8.6243e-08)
(4.2109e-08 -1.26983e-07 9.46031e-08)
(4.64114e-08 -1.39876e-07 9.94668e-08)
(5.16366e-08 -1.50937e-07 9.95503e-08)
(1.62554e-10 -3.99597e-10 1.73595e-10)
(4.51696e-10 -1.11759e-09 4.90433e-10)
(7.12964e-10 -1.78607e-09 8.00244e-10)
(9.52557e-10 -2.43041e-09 1.12143e-09)
(1.17467e-09 -3.06829e-09 1.47149e-09)
(1.38097e-09 -3.71082e-09 1.86428e-09)
(1.57015e-09 -4.3611e-09 2.31177e-09)
(1.73664e-09 -5.01328e-09 2.82173e-09)
(1.86956e-09 -5.65214e-09 3.39612e-09)
(1.95037e-09 -6.25157e-09 4.02623e-09)
(1.95244e-09 -6.77358e-09 4.68636e-09)
(1.84166e-09 -7.17035e-09 5.3281e-09)
(1.57488e-09 -7.37568e-09 5.86881e-09)
(1.09369e-09 -7.26813e-09 6.22712e-09)
(2.76895e-10 -6.55197e-09 6.37558e-09)
(-9.54168e-10 -4.78624e-09 6.40236e-09)
(4.84387e-10 -1.18597e-09 5.16001e-10)
(1.3461e-09 -3.31731e-09 1.45841e-09)
(2.12473e-09 -5.30337e-09 2.37805e-09)
(2.83884e-09 -7.21805e-09 3.3328e-09)
(3.50114e-09 -9.11653e-09 4.37137e-09)
(4.11698e-09 -1.10315e-08 5.53621e-09)
(4.68283e-09 -1.29733e-08 6.86164e-09)
(5.18317e-09 -1.49281e-08 8.37147e-09)
(5.5851e-09 -1.6853e-08 1.00706e-08)
(5.83264e-09 -1.86741e-08 1.19327e-08)
(5.84262e-09 -2.02895e-08 1.38821e-08)
(5.50493e-09 -2.15793e-08 1.57632e-08)
(4.70375e-09 -2.24273e-08 1.73331e-08)
(3.3711e-09 -2.27331e-08 1.82524e-08)
(1.6435e-09 -2.2387e-08 1.82377e-08)
(2.30271e-10 -2.1383e-08 1.74949e-08)
(7.97398e-10 -1.93624e-09 8.45693e-10)
(2.21619e-09 -5.41772e-09 2.38977e-09)
(3.49855e-09 -8.66522e-09 3.89627e-09)
(4.67552e-09 -1.18023e-08 5.45834e-09)
(5.76856e-09 -1.492e-08 7.15595e-09)
(6.78843e-09 -1.80773e-08 9.05797e-09)
(7.73192e-09 -2.1298e-08 1.12215e-08)
(8.57626e-09 -2.45669e-08 1.36861e-08)
(9.27045e-09 -2.78269e-08 1.64634e-08)
(9.72278e-09 -3.09748e-08 1.95171e-08)
(9.78841e-09 -3.38692e-08 2.27365e-08)
(9.26465e-09 -3.63612e-08 2.59041e-08)
(7.91934e-09 -3.83684e-08 2.86766e-08)
(5.62589e-09 -4.00011e-08 3.06478e-08)
(2.73099e-09 -4.1647e-08 3.15762e-08)
(6.37125e-10 -4.34969e-08 3.18247e-08)
(1.09593e-09 -2.62667e-09 1.15494e-09)
(3.04605e-09 -7.35222e-09 3.26243e-09)
(4.80932e-09 -1.17673e-08 5.31738e-09)
(6.42881e-09 -1.60426e-08 7.44485e-09)
(7.9362e-09 -2.03082e-08 9.75289e-09)
(9.34942e-09 -2.46517e-08 1.23352e-08)
(1.06692e-08 -2.91165e-08 1.52698e-08)
(1.18724e-08 -3.36987e-08 1.86133e-08)
(1.28984e-08 -3.83412e-08 2.23863e-08)
(1.36311e-08 -4.29295e-08 2.65523e-08)
(1.38737e-08 -4.72968e-08 3.09862e-08)
(1.33219e-08 -5.125e-08 3.54284e-08)
(1.15778e-08 -5.46498e-08 3.95121e-08)
(8.29762e-09 -5.75541e-08 4.28089e-08)
(3.73466e-09 -6.0331e-08 4.50934e-08)
(-1.41112e-10 -6.3061e-08 4.65143e-08)
(1.3745e-09 -3.23382e-09 1.43653e-09)
(3.82039e-09 -9.05526e-09 4.05711e-09)
(6.03223e-09 -1.45041e-08 6.60877e-09)
(8.06534e-09 -1.97974e-08 9.24491e-09)
(9.96166e-09 -2.51024e-08 1.20978e-08)
(1.1749e-08 -3.05394e-08 1.52825e-08)
(1.34371e-08 -3.61781e-08 1.88962e-08)
(1.50105e-08 -4.20356e-08 2.30106e-08)
(1.64149e-08 -4.80707e-08 2.76573e-08)
(1.75351e-08 -5.4176e-08 3.28058e-08)
(1.8158e-08 -6.01686e-08 3.83155e-08)
(1.79306e-08 -6.57884e-08 4.39302e-08)
(1.63159e-08 -7.0705e-08 4.92393e-08)
(1.26952e-08 -7.45683e-08 5.38045e-08)
(6.93318e-09 -7.71446e-08 5.73684e-08)
(1.16934e-09 -7.85455e-08 5.98438e-08)
(1.62808e-09 -3.73521e-09 1.68506e-09)
(4.525e-09 -1.04638e-08 4.7575e-09)
(7.14443e-09 -1.67748e-08 7.74358e-09)
(9.5527e-09 -2.29268e-08 1.08198e-08)
(1.18028e-08 -2.91244e-08 1.41379e-08)
(1.39334e-08 -3.55197e-08 1.78303e-08)
(1.59673e-08 -4.22126e-08 2.20089e-08)
(1.79058e-08 -4.92496e-08 2.67576e-08)
(1.9718e-08 -5.66189e-08 3.2117e-08)
(2.13219e-08 -6.424e-08 3.80575e-08)
(2.25531e-08 -7.19438e-08 4.44423e-08)
(2.31146e-08 -7.94341e-08 5.09818e-08)
(2.25145e-08 -8.62091e-08 5.72297e-08)
(2.0059e-08 -9.14117e-08 6.26671e-08)
(1.51638e-08 -9.37176e-08 6.69627e-08)
(9.03904e-09 -9.22781e-08 6.99838e-08)
(1.85228e-09 -4.11004e-09 1.89657e-09)
(5.14751e-09 -1.15193e-08 5.35193e-09)
(8.12555e-09 -1.84845e-08 8.70258e-09)
(1.08623e-08 -2.53001e-08 1.21419e-08)
(1.34198e-08 -3.2202e-08 1.58361e-08)
(1.58481e-08 -3.93726e-08 1.9929e-08)
(1.81845e-08 -4.69417e-08 2.45423e-08)
(2.04513e-08 -5.49879e-08 2.97666e-08)
(2.26514e-08 -6.35355e-08 3.56467e-08)
(2.47594e-08 -7.2547e-08 4.21514e-08)
(2.67087e-08 -8.19044e-08 4.91324e-08)
(2.83724e-08 -9.13726e-08 5.62658e-08)
(2.95484e-08 -1.00517e-07 6.30148e-08)
(2.99912e-08 -1.08537e-07 6.86789e-08)
(2.95335e-08 -1.13986e-07 7.2685e-08)
(2.83736e-08 -1.15023e-07 7.5006e-08)
(2.04367e-09 -4.34038e-09 2.06845e-09)
(5.67841e-09 -1.21719e-08 5.8339e-09)
(8.96016e-09 -1.95522e-08 9.47516e-09)
(1.19712e-08 -2.68025e-08 1.3197e-08)
(1.47808e-08 -3.41831e-08 1.71731e-08)
(1.74474e-08 -4.19001e-08 2.15537e-08)
(2.00201e-08 -5.01086e-08 2.64634e-08)
(2.25399e-08 -5.89141e-08 3.19936e-08)
(2.50398e-08 -6.8373e-08 3.81867e-08)
(2.75461e-08 -7.84858e-08 4.50042e-08)
(3.00827e-08 -8.91874e-08 5.22814e-08)
(3.26837e-08 -1.00332e-07 5.96562e-08)
(3.5446e-08 -1.11682e-07 6.6496e-08)
(3.86938e-08 -1.22942e-07 7.18727e-08)
(4.32736e-08 -1.33849e-07 7.47708e-08)
(4.97491e-08 -1.43442e-07 7.49579e-08)
(1.60952e-10 -4.02556e-10 1.27914e-10)
(4.469e-10 -1.12586e-09 3.61579e-10)
(7.04111e-10 -1.79954e-09 5.89073e-10)
(9.37937e-10 -2.44829e-09 8.25304e-10)
(1.15176e-09 -3.09246e-09 1.08179e-09)
(1.34543e-09 -3.74131e-09 1.36856e-09)
(1.5157e-09 -4.39888e-09 1.69337e-09)
(1.65462e-09 -5.06113e-09 2.06107e-09)
(1.74811e-09 -5.71492e-09 2.47159e-09)
(1.77475e-09 -6.33755e-09 2.9173e-09)
(1.70627e-09 -6.89672e-09 3.37949e-09)
(1.51041e-09 -7.34863e-09 3.82487e-09)
(1.15617e-09 -7.62843e-09 4.21728e-09)
(6.10121e-10 -7.5978e-09 4.52452e-09)
(-2.11985e-10 -6.92888e-09 4.79579e-09)
(-1.36855e-09 -5.13604e-09 5.0809e-09)
(4.79783e-10 -1.19483e-09 3.8048e-10)
(1.3322e-09 -3.34228e-09 1.0746e-09)
(2.09904e-09 -5.34283e-09 1.75166e-09)
(2.79692e-09 -7.27406e-09 2.45311e-09)
(3.43449e-09 -9.1875e-09 3.21414e-09)
(4.01349e-09 -1.11192e-08 4.06429e-09)
(4.5247e-09 -1.3081e-08 5.02656e-09)
(4.94556e-09 -1.50616e-08 6.11504e-09)
(5.23511e-09 -1.70239e-08 7.32951e-09)
(5.33036e-09 -1.89025e-08 8.64701e-09)
(5.14632e-09 -2.0605e-08 1.00098e-08)
(4.58858e-09 -2.2017e-08 1.13225e-08)
(3.58925e-09 -2.30017e-08 1.24365e-08)
(2.18369e-09 -2.33852e-08 1.31918e-08)
(6.58021e-10 -2.29021e-08 1.34609e-08)
(-2.97443e-10 -2.14958e-08 1.327e-08)
(7.90227e-10 -1.95081e-09 6.23603e-10)
(2.19446e-09 -5.4584e-09 1.76118e-09)
(3.45875e-09 -8.73111e-09 2.87039e-09)
(4.6095e-09 -1.18909e-08 4.01818e-09)
(5.66421e-09 -1.5033e-08 5.26225e-09)
(6.62655e-09 -1.82147e-08 6.65052e-09)
(7.48509e-09 -2.14618e-08 8.22114e-09)
(8.20701e-09 -2.47629e-08 9.99826e-09)
(8.73021e-09 -2.80656e-08 1.19838e-08)
(8.95514e-09 -3.12746e-08 1.41446e-08)
(8.741e-09 -3.42555e-08 1.63987e-08)
(7.91844e-09 -3.68554e-08 1.8601e-08)
(6.34844e-09 -3.89466e-08 2.0553e-08)
(4.07832e-09 -4.05269e-08 2.20518e-08)
(1.65884e-09 -4.18018e-08 2.29961e-08)
(3.50431e-10 -4.3007e-08 2.34751e-08)
(1.08679e-09 -2.64643e-09 8.51416e-10)
(3.01846e-09 -7.4074e-09 2.4051e-09)
(4.75824e-09 -1.18547e-08 3.91804e-09)
(6.34481e-09 -1.61616e-08 5.48169e-09)
(7.80265e-09 -2.04552e-08 7.17306e-09)
(9.14247e-09 -2.48259e-08 9.05781e-09)
(1.0355e-08 -2.93169e-08 1.11885e-08)
(1.14047e-08 -3.39249e-08 1.35994e-08)
(1.22196e-08 -3.85942e-08 1.62971e-08)
(1.26774e-08 -4.32119e-08 1.9245e-08)
(1.2593e-08 -4.7608e-08 2.23442e-08)
(1.17187e-08 -5.15729e-08 2.54292e-08)
(9.78336e-09 -5.49122e-08 2.82737e-08)
(6.66998e-09 -5.75693e-08 3.06711e-08)
(2.8501e-09 -5.97753e-08 3.25195e-08)
(1.85611e-11 -6.17571e-08 3.37386e-08)
(1.36409e-09 -3.25779e-09 1.05934e-09)
(3.78905e-09 -9.12235e-09 2.99142e-09)
(5.97437e-09 -1.46105e-08 4.87062e-09)
(7.96906e-09 -1.99381e-08 6.80819e-09)
(9.80928e-09 -2.52749e-08 8.89903e-09)
(1.15134e-08 -3.07381e-08 1.12237e-08)
(1.30804e-08 -3.63959e-08 1.38476e-08)
(1.44826e-08 -4.22621e-08 1.68147e-08)
(1.56542e-08 -4.82902e-08 2.01365e-08)
(1.64764e-08 -5.43634e-08 2.37736e-08)
(1.67581e-08 -6.02847e-08 2.76247e-08)
(1.62113e-08 -6.576e-08 3.14973e-08)
(1.44587e-08 -7.04063e-08 3.51505e-08)
(1.11345e-08 -7.37886e-08 3.83601e-08)
(6.32412e-09 -7.56109e-08 4.10042e-08)
(1.79643e-09 -7.62064e-08 4.28529e-08)
(1.61726e-09 -3.76265e-09 1.24301e-09)
(4.49211e-09 -1.05399e-08 3.5085e-09)
(7.08327e-09 -1.68941e-08 5.70795e-09)
(9.45166e-09 -2.30848e-08 7.96936e-09)
(1.1642e-08 -2.93135e-08 1.04014e-08)
(1.36851e-08 -3.57309e-08 1.30972e-08)
(1.55927e-08 -4.24316e-08 1.61318e-08)
(1.73538e-08 -4.94536e-08 1.95563e-08)
(1.89273e-08 -5.67714e-08 2.33853e-08)
(2.02299e-08 -6.42839e-08 2.758e-08)
(2.11203e-08 -7.17909e-08 3.20238e-08)
(2.13776e-08 -7.89558e-08 3.65045e-08)
(2.06738e-08 -8.52231e-08 4.07313e-08)
(1.85797e-08 -8.96984e-08 4.44224e-08)
(1.47388e-08 -9.11053e-08 4.74198e-08)
(9.96158e-09 -8.89208e-08 4.95159e-08)
(1.84164e-09 -4.13966e-09 1.39919e-09)
(5.11522e-09 -1.16015e-08 3.94753e-09)
(8.06553e-09 -1.86131e-08 6.41588e-09)
(1.07619e-08 -2.54676e-08 8.94459e-09)
(1.32606e-08 -3.24e-08 1.16529e-08)
(1.56024e-08 -3.95873e-08 1.46418e-08)
(1.78142e-08 -4.71517e-08 1.79931e-08)
(1.99074e-08 -5.51582e-08 2.17613e-08)
(2.1875e-08 -6.36103e-08 2.59613e-08)
(2.36913e-08 -7.2439e-08 3.05492e-08)
(2.5312e-08 -8.14834e-08 3.53932e-08)
(2.66791e-08 -9.04545e-08 4.02412e-08)
(2.7746e-08 -9.88716e-08 4.47203e-08)
(2.8518e-08 -1.05937e-07 4.84161e-08)
(2.90529e-08 -1.10364e-07 5.10401e-08)
(2.91722e-08 -1.10756e-07 5.25728e-08)
(2.03387e-09 -4.37125e-09 1.52622e-09)
(5.64846e-09 -1.22573e-08 4.30355e-09)