/*--------------------------------*- C++ -*----------------------------------*\
| =========                 |                                                 |
| \\      /  F ield         | OpenFOAM: The Open Source CFD Toolbox           |
|  \\    /   O peration     | Version:  v1912                                 |
|   \\  /    A nd           | Website:  www.openfoam.com                      |
|    \\/     M anipulation  |                                                 |
\*---------------------------------------------------------------------------*/
FoamFile
{
    version     2.0;
    format      ascii;
    class       surfaceScalarField;
    location    "0.49/fluid";
    object      meshPhi;
}
// * * * * * * * * * * * * * * * * * * * * * * * * * * * * * * * * * * * * * //

dimensions      [0 3 -1 0 0 0 0];
oriented        oriented;


internalField   nonuniform List<scalar> 
41600
(
1.96711e-13
-4.97394e-13
1.85441e-13
-1.9151e-13
3.75032e-13
-1.44923e-12
5.46491e-13
-5.64664e-13
5.41547e-13
-2.33343e-12
9.00268e-13
-9.31081e-13
7.02173e-13
-3.18174e-12
1.27007e-12
-1.31528e-12
8.62553e-13
-4.01592e-12
1.67688e-12
-1.73946e-12
1.02859e-12
-4.8463e-12
2.14033e-12
-2.22467e-12
1.20717e-12
-5.66935e-12
2.6791e-12
-2.79143e-12
1.40743e-12
-6.46249e-12
3.31088e-12
-3.45999e-12
1.64329e-12
-7.17463e-12
4.05173e-12
-4.25025e-12
1.93921e-12
-7.70928e-12
4.91498e-12
-5.1821e-12
2.3429e-12
-7.89368e-12
5.9105e-12
-6.27761e-12
2.95387e-12
-7.41767e-12
7.04682e-12
-7.57072e-12
3.9787e-12
-5.7095e-12
8.34146e-12
-9.13741e-12
5.79525e-12
-1.73129e-12
9.83812e-12
-1.1164e-11
8.5981e-12
5.64014e-12
1.15257e-11
-1.3865e-11
1.82822e-11
1.45159e-11
-2.14251e-11
5.85886e-13
-9.80035e-13
5.51552e-13
-5.69639e-13
1.11688e-12
-2.85612e-12
1.62531e-12
-1.67945e-12
1.61248e-12
-4.60066e-12
2.6771e-12
-2.76883e-12
2.09013e-12
-6.27722e-12
3.77596e-12
-3.91039e-12
2.56653e-12
-7.93045e-12
4.98404e-12
-5.16991e-12
3.05896e-12
-9.58407e-12
6.3595e-12
-6.60974e-12
3.58724e-12
-1.12365e-11
7.95771e-12
-8.29064e-12
4.17665e-12
-1.28526e-11
9.83093e-12
-1.02722e-11
4.86392e-12
-1.43485e-11
1.20261e-11
-1.26124e-11
5.70959e-12
-1.55682e-11
1.45805e-11
-1.53663e-11
6.8246e-12
-1.62464e-11
1.75155e-11
-1.85875e-11
8.42545e-12
-1.59583e-11
2.08324e-11
-2.23393e-11
1.09243e-11
-1.40786e-11
2.45133e-11
-2.67353e-11
1.49774e-11
-9.87716e-12
2.85173e-11
-3.20146e-11
2.06476e-11
-3.38358e-12
3.25974e-11
-3.82533e-11
4.21764e-12
3.58017e-11
-4.65869e-11
9.62597e-13
-1.43333e-12
9.03744e-13
-9.33425e-13
1.83466e-12
-4.17859e-12
2.66279e-12
-2.75158e-12
2.64782e-12
-6.73545e-12
4.38475e-12
-4.53504e-12
3.43039e-12
-9.19967e-12
6.18197e-12
-6.40189e-12
4.2094e-12
-1.16409e-11
8.15559e-12
-8.45916e-12
5.01258e-12
-1.41011e-11
1.04003e-11
-1.08084e-11
5.87067e-12
-1.65897e-11
1.30064e-11
-1.35483e-11
6.82082e-12
-1.90748e-11
1.6059e-11
-1.67757e-11
7.91224e-12
-2.14679e-11
1.96347e-11
-2.05836e-11
9.2166e-12
-2.36004e-11
2.37919e-11
-2.50561e-11
1.08488e-11
-2.51939e-11
2.85557e-11
-3.02612e-11
1.3005e-11
-2.58342e-11
3.38947e-11
-3.62432e-11
1.60063e-11
-2.49976e-11
3.96857e-11
-4.30201e-11
2.02523e-11
-2.2257e-11
4.56531e-11
-5.05677e-11
2.54171e-11
-1.80024e-11
5.11811e-11
-5.84122e-11
-1.33005e-11
5.55166e-11
-6.82271e-11
1.31912e-12
-1.84244e-12
1.23358e-12
-1.2741e-12
2.51344e-12
-5.37352e-12
3.63387e-12
-3.75498e-12
3.6256e-12
-8.66897e-12
5.98122e-12
-6.18599e-12
4.69375e-12
-1.18567e-11
8.4275e-12
-8.72666e-12
5.75432e-12
-1.50332e-11
1.11093e-11
-1.15215e-11
6.84425e-12
-1.82636e-11
1.41546e-11
-1.47077e-11
8.00351e-12
-2.15777e-11
1.76858e-11
-1.84188e-11
9.2778e-12
-2.49637e-11
2.18194e-11
-2.27862e-11
1.07218e-11
-2.8355e-11
2.66612e-11
-2.79362e-11
1.24025e-11
-3.16119e-11
3.22937e-11
-3.39819e-11
1.44052e-11
-3.44961e-11
3.87531e-11
-4.10064e-11
1.684e-11
-3.66471e-11
4.59884e-11
-4.90356e-11
1.98347e-11
-3.7588e-11
5.37933e-11
-5.79927e-11
2.34746e-11
-3.68446e-11
6.16951e-11
-6.76163e-11
2.73401e-11
-3.44415e-11
6.87473e-11
-7.70211e-11
-3.07728e-11
7.37764e-11
-8.73817e-11
1.64841e-12
-2.19281e-12
1.53363e-12
-1.58391e-12
3.13957e-12
-6.39837e-12
4.51637e-12
-4.66658e-12
4.52563e-12
-1.03324e-11
7.42929e-12
-7.68295e-12
5.8533e-12
-1.41538e-11
1.04586e-11
-1.08286e-11
7.16715e-12
-1.79866e-11
1.37714e-11
-1.42804e-11
8.51223e-12
-2.1922e-11
1.75245e-11
-1.8206e-11
9.93669e-12
-2.60177e-11
2.18683e-11
-2.27692e-11
1.14941e-11
-3.02945e-11
2.69474e-11
-2.81322e-11
1.32448e-11
-3.47291e-11
3.28968e-11
-3.44535e-11
1.52537e-11
-3.92421e-11
3.98292e-11
-4.18793e-11
1.75849e-11
-4.36784e-11
4.78087e-11
-5.05231e-11
2.02837e-11
-4.77727e-11
5.68034e-11
-6.04295e-11
2.33293e-11
-5.10942e-11
6.65922e-11
-7.1498e-11
2.65534e-11
-5.2975e-11
7.65887e-11
-8.33332e-11
2.94055e-11
-5.26963e-11
8.55076e-11
-9.46637e-11
-4.94378e-11
9.16661e-11
-1.06105e-10
1.94442e-12
-2.47058e-12
1.79788e-12
-1.85662e-12
3.70138e-12
-7.21258e-12
5.29245e-12
-5.46785e-12
5.3307e-12
-1.16596e-11
8.69896e-12
-8.99481e-12
6.88596e-12
-1.59984e-11
1.22316e-11
-1.26624e-11
8.41832e-12
-2.03789e-11
1.60821e-11
-1.66736e-11
9.97963e-12
-2.49191e-11
2.04298e-11
-2.12199e-11
1.16255e-11
-2.97068e-11
2.54471e-11
-2.64888e-11
1.34183e-11
-3.48016e-11
3.13018e-11
-3.26675e-11
1.54287e-11
-4.0234e-11
3.81552e-11
-3.99429e-11
1.77348e-11
-4.60046e-11
4.61522e-11
-4.84963e-11
2.04179e-11
-5.20769e-11
5.54017e-11
-5.84892e-11
2.3544e-11
-5.83577e-11
6.59359e-11
-7.00348e-11
2.71101e-11
-6.46311e-11
7.76191e-11
-8.31253e-11
3.09253e-11
-7.03764e-11
8.99288e-11
-9.74444e-11
3.42525e-11
-7.44618e-11
1.01401e-10
-1.11527e-10
-7.3609e-11
1.09887e-10
-1.2562e-10
2.20243e-12
-2.66333e-12
2.02203e-12
-2.08781e-12
4.18976e-12
-7.7796e-12
5.94937e-12
-6.14564e-12
6.02735e-12
-1.25903e-11
9.769e-12
-1.00996e-11
7.77356e-12
-1.73049e-11
1.37159e-11
-1.41965e-11
9.48415e-12
-2.20953e-11
1.79991e-11
-1.86574e-11
1.12158e-11
-2.71026e-11
2.28133e-11
-2.36902e-11
1.303e-11
-3.24424e-11
2.83451e-11
-2.94976e-11
1.49972e-11
-3.82095e-11
3.47769e-11
-3.62822e-11
1.72012e-11
-4.44851e-11
4.22874e-11
-4.425e-11
1.97446e-11
-5.13445e-11
5.1047e-11
-5.36095e-11
2.27567e-11
-5.8871e-11
6.12081e-11
-6.457e-11
2.6403e-11
-6.71736e-11
7.28851e-11
-7.73356e-11
3.08791e-11
-7.64006e-11
8.60968e-11
-9.20746e-11
3.6332e-11
-8.6682e-11
1.00575e-10
-1.0878e-10
4.21295e-11
-9.74851e-11
1.15002e-10
-1.26183e-10
-1.0836e-10
1.27046e-10
-1.45371e-10
2.41922e-12
2.20372e-12
-2.27503e-12
-2.7608e-12
4.59879e-12
6.48035e-12
-6.69296e-12
-8.06932e-12
6.60703e-12
1.06285e-11
-1.09861e-11
-1.30749e-11
8.50468e-12
1.4896e-11
-1.54148e-11
-1.80024e-11
1.03495e-11
1.95017e-11
-2.02104e-11
-2.3039e-11
1.22003e-11
2.46471e-11
-2.55881e-11
-2.83427e-11
1.4121e-11
3.05239e-11
-3.17556e-11
-3.40489e-11
1.6186e-11
3.73174e-11
-3.89188e-11
-4.02776e-11
1.84867e-11
4.5209e-11
-4.72864e-11
-4.7142e-11
2.11424e-11
5.43746e-11
-5.70724e-11
-5.47607e-11
2.43184e-11
6.49814e-11
-6.8502e-11
-6.32764e-11
2.82563e-11
7.7183e-11
-8.18223e-11
-7.2885e-11
3.33104e-11
9.10938e-11
-9.73091e-11
-8.38744e-11
3.99206e-11
1.0666e-10
-1.15208e-10
-9.66265e-11
4.75476e-11
1.2275e-10
-1.34496e-10
-1.107e-10
1.38413e-10
-1.59378e-10
-1.30311e-10
1.96221e-13
-5.07486e-13
1.72589e-13
3.73679e-13
-1.47871e-12
5.08411e-13
5.38556e-13
-2.38122e-12
8.3685e-13
6.96265e-13
-3.24782e-12
1.17914e-12
8.51721e-13
-4.10139e-12
1.5542e-12
1.00966e-12
-4.95364e-12
1.97939e-12
1.17507e-12
-5.80288e-12
2.47061e-12
1.35396e-12
-6.62977e-12
3.04181e-12
1.55491e-12
-7.38961e-12
3.7035e-12
1.79299e-12
-7.99949e-12
4.45979e-12
2.09872e-12
-8.31652e-12
5.3031e-12
2.53724e-12
-8.09841e-12
6.20477e-12
3.24088e-12
-6.93233e-12
7.09683e-12
4.42451e-12
-4.15293e-12
7.83249e-12
6.12136e-12
8.0209e-13
8.13533e-12
7.5417e-12
7.38966e-12
5.84538e-13
-9.99769e-13
5.13314e-13
1.1131e-12
-2.91375e-12
1.51202e-12
1.60403e-12
-4.6941e-12
2.48846e-12
2.07336e-12
-6.40654e-12
3.5056e-12
2.53567e-12
-8.09782e-12
4.61952e-12
3.00491e-12
-9.79402e-12
5.88163e-12
3.49546e-12
-1.14968e-11
7.33911e-12
4.02373e-12
-1.31762e-11
9.03333e-12
4.61147e-12
-1.47591e-11
1.09955e-11
5.29345e-12
-1.6111e-11
1.32374e-11
6.13496e-12
-1.70126e-11
1.57347e-11
7.26697e-12
-1.7136e-11
1.83973e-11
8.93564e-12
-1.60535e-11
2.10131e-11
1.14851e-11
-1.33971e-11
2.31479e-11
1.48032e-11
-9.49336e-12
2.40869e-11
-6.64495e-12
2.19627e-11
9.60777e-13
-1.46198e-12
8.41082e-13
1.82932e-12
-4.26224e-12
2.47715e-12
2.63552e-12
-6.87116e-12
4.07579e-12
3.40553e-12
-9.38756e-12
5.73953e-12
4.16317e-12
-1.1884e-11
7.55967e-12
4.93105e-12
-1.44052e-11
9.61992e-12
5.73178e-12
-1.69644e-11
1.19973e-11
6.5892e-12
-1.95357e-11
1.476e-11
7.53039e-12
-2.20418e-11
1.79601e-11
8.58987e-12
-2.4337e-11
2.1619e-11
9.81957e-12
-2.61898e-11
2.56996e-11
1.13064e-11
-2.72815e-11
3.00576e-11
1.31859e-11
-2.72712e-11
3.43567e-11
1.55826e-11
-2.60348e-11
3.79437e-11
1.81965e-11
-2.41544e-11
3.98602e-11
-2.33472e-11
3.84815e-11
1.31746e-12
-1.87903e-12
1.14811e-12
2.50792e-12
-5.48038e-12
3.3807e-12
3.61192e-12
-8.84237e-12
5.56014e-12
4.66497e-12
-1.20967e-11
7.82509e-12
5.69955e-12
-1.53433e-11
1.02989e-11
6.74643e-12
-1.86502e-11
1.30947e-11
7.83575e-12
-2.20508e-11
1.63174e-11
8.99732e-12
-2.55382e-11
2.0061e-11
1.02595e-11
-2.90548e-11
2.44e-11
1.16461e-11
-3.24784e-11
2.93711e-11
1.31707e-11
-3.56069e-11
3.49385e-11
1.48232e-11
-3.81525e-11
4.09321e-11
1.65418e-11
-3.97795e-11
4.69435e-11
1.81666e-11
-4.02569e-11
5.21822e-11
1.93786e-11
-3.98054e-11
5.54873e-11
-3.96716e-11
5.50548e-11
1.64766e-12
-2.23614e-12
1.4275e-12
3.13552e-12
-6.52495e-12
4.20217e-12
4.51349e-12
-1.05378e-11
6.90711e-12
5.82544e-12
-1.4438e-11
9.71236e-12
7.11173e-12
-1.83531e-11
1.27689e-11
8.41089e-12
-2.23773e-11
1.62155e-11
9.76081e-12
-2.65709e-11
2.01814e-11
1.11985e-11
-3.09576e-11
2.47842e-11
1.27569e-11
-3.55186e-11
3.01217e-11
1.44567e-11
-4.01834e-11
3.62524e-11
1.62879e-11
-4.48142e-11
4.31587e-11
1.81713e-11
-4.91825e-11
5.06786e-11
1.98885e-11
-5.29327e-11
5.83847e-11
2.10169e-11
-5.5549e-11
6.54004e-11
2.11073e-11
-5.65085e-11
7.03284e-11
-5.63207e-11
7.10266e-11
1.94536e-12
-2.51923e-12
1.6737e-12
3.70046e-12
-7.35468e-12
4.92499e-12
5.32296e-12
-1.18902e-11
8.08885e-12
6.86372e-12
-1.63172e-11
1.13609e-11
8.36986e-12
-2.07895e-11
1.49143e-11
9.88706e-12
-2.54276e-11
1.89082e-11
1.14613e-11
-3.03209e-11
2.34908e-11
1.31394e-11
-3.55293e-11
2.87995e-11
1.49668e-11
-4.10833e-11
3.49527e-11
1.69808e-11
-4.69822e-11
4.20334e-11
1.91933e-11
-5.31877e-11
5.00538e-11
2.15497e-11
-5.96035e-11
5.88894e-11
2.38459e-11
-6.60108e-11
6.81476e-11
2.56058e-11
-7.18975e-11
7.69373e-11
2.61305e-11
-7.62129e-11
8.36538e-11
-7.68701e-11
8.58251e-11
2.20568e-12
-2.71565e-12
1.8827e-12
4.19335e-12
-7.93244e-12
5.53732e-12
6.02641e-12
-1.28383e-11
9.08562e-12
7.76086e-12
-1.76478e-11
1.27422e-11
9.44892e-12
-2.25365e-11
1.6696e-11
1.1142e-11
-2.76478e-11
2.11199e-11
1.28932e-11
-3.30977e-11
2.61746e-11
1.47601e-11
-3.89797e-11
3.20097e-11
1.68056e-11
-4.53703e-11
3.87574e-11
1.90982e-11
-5.23361e-11
4.6519e-11
2.17093e-11
-5.99434e-11
5.53351e-11
2.47005e-11
-6.82681e-11
6.51264e-11
2.8085e-11
-7.73937e-11
7.55648e-11
3.17198e-11
-8.73222e-11
8.58052e-11
3.49506e-11
-9.7429e-11
9.40892e-11
-1.06451e-10
9.74167e-11
2.42522e-12
2.05229e-12
-2.81497e-12
4.60781e-12
6.03278e-12
-8.22759e-12
6.61451e-12
9.88712e-12
-1.33318e-11
8.50415e-12
1.38418e-11
-1.83577e-11
1.03317e-11
1.80946e-11
-2.34962e-11
1.21517e-11
2.28248e-11
-2.89071e-11
1.40217e-11
2.81975e-11
-3.47257e-11
1.6006e-11
3.43649e-11
-4.10689e-11
1.81804e-11
4.14612e-11
-4.80431e-11
2.0639e-11
4.95909e-11
-5.57532e-11
2.35036e-11
5.88037e-11
-6.43166e-11
2.69378e-11
6.90425e-11
-7.38816e-11
3.11548e-11
8.00267e-11
-8.46442e-11
3.63549e-11
9.09916e-11
-9.68027e-11
4.19905e-11
1.00157e-10
-1.09757e-10
1.03762e-10
-1.25283e-10
1.94905e-13
-5.16137e-13
1.53599e-13
3.7067e-13
-1.50402e-12
4.52305e-13
5.32934e-13
-2.42231e-12
7.4394e-13
6.86426e-13
-3.3047e-12
1.04701e-12
8.35086e-13
-4.17505e-12
1.37779e-12
9.82137e-13
-5.04648e-12
1.75078e-12
1.13013e-12
-5.91964e-12
2.17867e-12
1.281e-12
-6.77955e-12
2.67144e-12
1.4364e-12
-7.59053e-12
3.23441e-12
1.59895e-12
-8.2888e-12
3.86429e-12
1.77563e-12
-8.77256e-12
4.54228e-12
1.98425e-12
-8.88927e-12
5.22185e-12
2.25906e-12
-8.42266e-12
5.8083e-12
2.6306e-12
-7.10921e-12
6.13128e-12
3.00738e-12
-4.88035e-12
5.97275e-12
-2.01809e-12
5.36159e-12
5.80758e-13
-1.01667e-12
4.56845e-13
1.10445e-12
-2.96317e-12
1.34519e-12
1.58784e-12
-4.77431e-12
2.21223e-12
2.04501e-12
-6.51747e-12
3.11289e-12
2.48773e-12
-8.24123e-12
4.09537e-12
2.92559e-12
-9.97405e-12
5.20269e-12
3.36604e-12
-1.17213e-11
6.47249e-12
3.81408e-12
-1.34603e-11
7.93459e-12
4.27221e-12
-1.51322e-11
9.60521e-12
4.74158e-12
-1.66323e-11
1.14756e-11
5.22668e-12
-1.7802e-11
1.34918e-11
5.74382e-12
-1.84344e-11
1.55212e-11
6.32381e-12
-1.83257e-11
1.72985e-11
6.96262e-12
-1.74404e-11
1.83693e-11
7.44338e-12
-1.6235e-11
1.82132e-11
-1.61985e-11
1.65778e-11
9.55038e-13
-1.48647e-12
7.48601e-13
1.81612e-12
-4.33382e-12
2.20397e-12
2.61072e-12
-6.9872e-12
3.62363e-12
3.36199e-12
-9.5478e-12
5.09702e-12
4.08942e-12
-1.20904e-11
6.7026e-12
4.809e-12
-1.46625e-11
8.5105e-12
5.53289e-12
-1.72813e-11
1.05824e-11
6.26804e-12
-1.99283e-11
1.29679e-11
7.01363e-12
-2.2541e-11
1.56957e-11
7.75737e-12
-2.50034e-11
1.8756e-11
8.47112e-12
-2.71437e-11
2.2071e-11
9.10378e-12
-2.87554e-11
2.54458e-11
9.56521e-12
-2.96875e-11
2.85013e-11
9.69301e-12
-3.00553e-11
3.06259e-11
9.29123e-12
-3.04382e-11
3.11876e-11
-3.18519e-11
3.03115e-11
1.31055e-12
-1.91023e-12
1.02197e-12
2.49188e-12
-5.57148e-12
3.0082e-12
3.58151e-12
-8.98987e-12
4.94391e-12
4.61122e-12
-1.22999e-11
6.95002e-12
5.60811e-12
-1.56038e-11
9.13256e-12
6.59487e-12
-1.89721e-11
1.15865e-11
7.589e-12
-2.24411e-11
1.43961e-11
8.60018e-12
-2.60091e-11
1.76305e-11
9.62427e-12
-2.9629e-11
2.13331e-11
1.06323e-11
-3.32001e-11
2.55008e-11
1.15514e-11
-3.65629e-11
3.00478e-11
1.22321e-11
-3.95116e-11
3.47503e-11
1.24056e-11
-4.18529e-11
3.91742e-11
1.16918e-11
-4.35517e-11
4.26355e-11
9.96707e-12
-4.48846e-11
4.44149e-11
-4.66482e-11
4.46045e-11
1.64053e-12
-2.27293e-12
1.27085e-12
3.11868e-12
-6.63233e-12
3.73972e-12
4.48102e-12
-1.07115e-11
6.14257e-12
5.76732e-12
-1.46765e-11
8.62769e-12
7.01206e-12
-1.86574e-11
1.1325e-11
8.24506e-12
-2.27497e-11
1.43509e-11
9.49074e-12
-2.7015e-11
1.78096e-11
1.07649e-11
-3.14782e-11
2.17884e-11
1.2067e-11
-3.61237e-11
2.63467e-11
1.33639e-11
-4.08879e-11
3.14937e-11
1.45598e-11
-4.56495e-11
3.71499e-11
1.54389e-11
-5.02156e-11
4.30869e-11
1.55878e-11
-5.43048e-11
4.88486e-11
1.439e-11
-5.75418e-11
5.36972e-11
1.16163e-11
-5.95548e-11
5.67822e-11
-6.07296e-11
5.80624e-11
1.93897e-12
-2.56035e-12
1.49029e-12
3.68489e-12
-7.47463e-12
4.38378e-12
5.29203e-12
-1.20839e-11
7.19485e-12
6.80708e-12
-1.65827e-11
1.00941e-11
8.27135e-12
-2.11265e-11
1.32306e-11
9.72193e-12
-2.58364e-11
1.6738e-11
1.11917e-11
-3.08008e-11
2.07362e-11
1.27071e-11
-3.60765e-11
2.53272e-11
1.42815e-11
-4.16886e-11
3.05847e-11
1.59015e-11
-4.76274e-11
3.65318e-11
1.74963e-11
-5.38408e-11
4.31015e-11
1.88782e-11
-6.02112e-11
5.00731e-11
1.96442e-11
-6.64938e-11
5.69796e-11
1.91042e-11
-7.21735e-11
6.30232e-11
1.67501e-11
-7.63e-11
6.71909e-11
-7.7017e-11
6.93745e-11
2.2009e-12
-2.75968e-12
1.67672e-12
4.18091e-12
-8.06083e-12
4.9298e-12
6.0002e-12
-1.30455e-11
8.08312e-12
7.71086e-12
-1.79312e-11
1.13239e-11
9.35973e-12
-2.28949e-11
1.48148e-11
1.09903e-11
-2.80795e-11
1.87013e-11
1.2644e-11
-3.3598e-11
2.31133e-11
1.43601e-11
-3.95371e-11
2.81622e-11
1.61728e-11
-4.59606e-11
3.39305e-11
1.81054e-11
-5.29132e-11
4.04504e-11
2.01537e-11
-6.04213e-11
4.76647e-11
2.22512e-11
-6.84892e-11
5.53583e-11
2.42037e-11
-7.70718e-11
6.30481e-11
2.55993e-11
-8.59633e-11
6.9844e-11
2.587e-11
-9.43838e-11
7.44963e-11
-1.01005e-10
7.66726e-11
2.42272e-12
1.82813e-12
-2.86038e-12
4.59992e-12
5.37203e-12
-8.36e-12
6.59544e-12
8.79813e-12
-1.35454e-11
8.46467e-12
1.23041e-11
-1.86495e-11
1.02579e-11
1.60603e-11
-2.38644e-11
1.20229e-11
2.0218e-11
-2.93487e-11
1.38071e-11
2.49105e-11
-3.52332e-11
1.56597e-11
3.02512e-11
-4.16256e-11
1.76328e-11
3.63229e-11
-4.86155e-11
1.9782e-11
4.31578e-11
-5.62784e-11
2.21651e-11
5.06982e-11
-6.46797e-11
2.48323e-11
5.87279e-11
-7.38749e-11
2.78024e-11
6.67515e-11
-8.38955e-11
3.09917e-11
7.38257e-11
-9.46682e-11
3.38766e-11
7.85333e-11
-1.05397e-10
7.95728e-11
-1.17084e-10
1.93063e-13
-5.23235e-13
1.29308e-13
3.66622e-13
-1.52476e-12
3.80647e-13
5.25719e-13
-2.45599e-12
6.25657e-13
6.74338e-13
-3.35131e-12
8.79633e-13
8.1537e-13
-4.23544e-12
1.1558e-12
9.50459e-13
-5.12271e-12
1.46561e-12
1.07972e-12
-6.01588e-12
1.81854e-12
1.20127e-12
-6.90414e-12
2.22117e-12
1.31055e-12
-7.76018e-12
2.67526e-12
1.39987e-12
-8.53695e-12
3.17418e-12
1.45872e-12
-9.16545e-12
3.69731e-12
1.47479e-12
-9.55549e-12
4.20222e-12
1.43332e-12
-9.60135e-12
4.61628e-12
1.30829e-12
-9.19707e-12
4.83842e-12
1.06419e-12
-8.31098e-12
4.78991e-12
-6.60708e-12
4.76587e-12
5.75432e-13
-1.03056e-12
3.84617e-13
1.09274e-12
-3.00375e-12
1.13214e-12
1.56696e-12
-4.84008e-12
1.86063e-12
2.01001e-12
-6.60828e-12
2.61544e-12
2.43063e-12
-8.35833e-12
3.43577e-12
2.83392e-12
-1.01207e-11
4.35557e-12
3.22043e-12
-1.19042e-11
5.40302e-12
3.58441e-12
-1.36926e-11
6.59797e-12
3.91127e-12
-1.54403e-11
7.94618e-12
4.17478e-12
-1.7068e-11
9.42928e-12
4.33522e-12
-1.84646e-11
1.0989e-11
4.33913e-12
-1.95046e-11
1.25057e-11
4.12049e-12
-2.01008e-11
1.3778e-11
3.60719e-12
-2.03065e-11
1.45347e-11
2.81131e-12
-2.04008e-11
1.45855e-11
-2.104e-11
1.40066e-11
9.46801e-13
-1.50659e-12
6.30309e-13
1.79799e-12
-4.39256e-12
1.85511e-12
2.57833e-12
-7.08223e-12
3.04807e-12
3.30762e-12
-9.67844e-12
4.28302e-12
4.00071e-12
-1.22576e-11
5.62374e-12
4.66674e-12
-1.48694e-11
7.12566e-12
5.30752e-12
-1.75344e-11
8.83513e-12
5.91419e-12
-2.02404e-11
1.07855e-11
6.46153e-12
-2.29375e-11
1.29885e-11
6.90008e-12
-2.55344e-11
1.54191e-11
7.14627e-12
-2.79031e-11
1.79927e-11
7.07275e-12
-2.99081e-11
2.0536e-11
6.51163e-12
-3.14864e-11
2.27658e-11
5.32113e-12
-3.27862e-11
2.43233e-11
3.69092e-12
-3.41777e-11
2.49807e-11
-3.60928e-11
2.50891e-11
1.30026e-12
-1.9358e-12
8.60603e-13
2.46918e-12
-5.64606e-12
2.53243e-12
3.54081e-12
-9.1102e-12
4.1593e-12
4.54273e-12
-1.24645e-11
5.84101e-12
5.49628e-12
-1.58127e-11
7.66377e-12
6.41572e-12
-1.92267e-11
9.70273e-12
7.30607e-12
-2.2745e-11
1.20214e-11
8.15826e-12
-2.63693e-11
1.46668e-11
8.94023e-12
-3.00601e-11
1.76591e-11
9.58248e-12
-3.37318e-11
2.09734e-11
9.95608e-12
-3.72528e-11
2.45127e-11
9.84452e-12
-4.04618e-11
2.80769e-11
8.93536e-12
-4.32203e-11
3.13466e-11
6.93931e-12
-4.55132e-11
3.39327e-11
4.16591e-12
-4.74836e-11
3.5573e-11
-4.95191e-11
3.65745e-11
1.62922e-12
-2.30301e-12
1.07038e-12
3.0936e-12
-6.71992e-12
3.14881e-12
4.43581e-12
-1.08524e-11
5.16867e-12
5.69091e-12
-1.48683e-11
7.2523e-12
6.88704e-12
-1.88984e-11
9.5053e-12
8.04488e-12
-2.30389e-11
1.202e-11
9.17546e-12
-2.73508e-11
1.48751e-11
1.02749e-11
-3.1858e-11
1.81304e-11
1.13141e-11
-3.65443e-11
2.18155e-11
1.22199e-11
-4.13465e-11
2.591e-11
1.28437e-11
-4.61464e-11
3.03141e-11
1.29132e-11
-5.07577e-11
3.48154e-11
1.19936e-11
-5.49099e-11
3.90728e-11
9.59506e-12
-5.82325e-11
4.26673e-11
5.93077e-12
-6.03196e-11
4.52691e-11
-6.13057e-11
4.71081e-11
1.92771e-12
-2.59383e-12
1.25544e-12
3.65971e-12
-7.57203e-12
3.69182e-12
5.24619e-12
-1.22402e-11
6.05529e-12
6.72906e-12
-1.67943e-11
8.48664e-12
8.14318e-12
-2.13903e-11
1.11071e-11
9.5165e-12
-2.61481e-11
1.40227e-11
1.08687e-11
-3.11528e-11
1.73241e-11
1.22071e-11
-3.64554e-11
2.10813e-11
1.35179e-11
-4.2071e-11
2.5332e-11
1.47497e-11
-4.79742e-11
3.00607e-11
1.57827e-11
-5.40878e-11
3.51668e-11
1.63765e-11
-6.02556e-11
4.0426e-11
1.61104e-11
-6.61791e-11
4.54644e-11
1.44213e-11
-7.129e-11
4.97994e-11
1.12441e-11
-7.46626e-11
5.30084e-11
-7.44796e-11
5.53438e-11
2.19066e-12
-2.79539e-12
1.41276e-12
4.15769e-12
-8.16462e-12
4.15248e-12
5.95729e-12
-1.32116e-11
6.80425e-12
7.63693e-12
-1.81553e-11
9.52259e-12
9.23734e-12
-2.31723e-11
1.244e-11
1.07935e-11
-2.8403e-11
1.56719e-11
1.23346e-11
-3.39549e-11
1.93166e-11
1.38823e-11
-3.99041e-11
2.34502e-11
1.54462e-11
-4.62972e-11
2.81147e-11
1.70149e-11
-5.31494e-11
3.32958e-11
1.85379e-11
-6.0439e-11
3.88885e-11
1.98948e-11
-6.80922e-11
4.46492e-11
2.08593e-11
-7.59456e-11
5.01489e-11
2.11089e-11
-8.36531e-11
5.47828e-11
2.04874e-11
-9.04435e-11
5.79616e-11
-9.51801e-11
5.99415e-11
2.41429e-12
1.54063e-12
-2.89708e-12
4.58034e-12
4.52585e-12
-8.46662e-12
6.5583e-12
7.40763e-12
-1.37158e-11
8.39936e-12
1.03492e-11
-1.88788e-11
1.01483e-11
1.34895e-11
-2.41468e-11
1.18454e-11
1.69486e-11
-2.96751e-11
1.35274e-11
2.08276e-11
-3.55871e-11
1.5228e-11
2.52034e-11
-4.19777e-11
1.69781e-11
3.01168e-11
-4.89144e-11
1.88029e-11
3.555e-11
-5.64366e-11
2.0718e-11
4.13896e-11
-6.45513e-11
2.27198e-11
4.73719e-11
-7.32219e-11
2.47797e-11
5.30187e-11
-8.23452e-11
2.68492e-11
5.76147e-11
-9.16944e-11
2.87455e-11
6.04024e-11
-1.00524e-10
6.10991e-11
-1.10016e-10
1.91038e-13
-5.28756e-13
1.00701e-13
3.62248e-13
-1.54088e-12
2.96347e-13
5.181e-13
-2.48214e-12
4.8682e-13
6.6188e-13
-3.38752e-12
6.83857e-13
7.95505e-13
-4.28231e-12
8.97442e-13
9.19243e-13
-5.18168e-12
1.13596e-12
1.03124e-12
-6.08995e-12
1.40602e-12
1.12675e-12
-6.99938e-12
1.71166e-12
1.19712e-12
-7.88849e-12
2.05287e-12
1.22902e-12
-8.72077e-12
2.42297e-12
1.20448e-12
-9.44512e-12
2.80541e-12
1.10267e-12
-9.99841e-12
3.17045e-12
9.03993e-13
-1.03069e-11
3.47489e-12
5.98036e-13
-1.02755e-11
3.67202e-12
2.20127e-13
-9.78814e-12
3.7394e-12
-8.23974e-12
3.95226e-12
5.6956e-13
-1.04139e-12
2.99547e-13
1.08006e-12
-3.0354e-12
8.8148e-13
1.54486e-12
-4.89133e-12
1.44789e-12
1.97384e-12
-6.67885e-12
2.03353e-12
2.37296e-12
-8.44893e-12
2.66797e-12
2.74338e-12
-1.02334e-11
3.37613e-12
3.08005e-12
-1.20434e-11
4.17768e-12
3.36927e-12
-1.38675e-11
5.08491e-12
3.58535e-12
-1.56688e-11
6.09818e-12
3.68744e-12
-1.73835e-11
7.19889e-12
3.61838e-12
-1.89253e-11
8.34002e-12
3.30971e-12
-2.02006e-11
9.43722e-12
2.70162e-12
-2.11435e-11
1.03684e-11
1.79839e-12
-2.17636e-11
1.10012e-11
8.10795e-13
-2.21559e-11
1.12705e-11
-2.26586e-11
1.11633e-11
9.37655e-13
-1.52233e-12
4.90954e-13
1.77823e-12
-4.43847e-12
1.44459e-12
2.54384e-12
-7.15627e-12
2.37228e-12
3.25111e-12
-9.77968e-12
3.33056e-12
3.91061e-12
-1.23861e-11
4.36754e-12
4.52552e-12
-1.50265e-11
5.52394e-12
5.08928e-12
-1.77236e-11
6.83222e-12
5.58138e-12
-2.04692e-11
8.31326e-12
5.9612e-12
-2.32212e-11
9.96953e-12
6.16055e-12
-2.59015e-11
1.17745e-11
6.07753e-12
-2.84025e-11
1.36591e-11
5.57969e-12
-3.06105e-11
1.54998e-11
4.54146e-12
-3.24648e-11
1.71234e-11
2.97521e-12
-3.40455e-11
1.83498e-11
1.33498e-12
-3.55523e-11
1.9091e-11
-3.72385e-11
1.94945e-11
1.28869e-12
-1.95581e-12
6.70438e-13
2.44413e-12
-5.70431e-12
1.97235e-12
3.49699e-12
-9.20372e-12
3.23769e-12
4.47084e-12
-1.25913e-11
4.54283e-12
5.38168e-12
-1.59716e-11
5.95277e-12
6.23647e-12
-1.9417e-11
7.52281e-12
7.03011e-12
-2.29665e-11
9.29755e-12
7.73994e-12
-2.66233e-11
1.13067e-11
8.31677e-12
-3.03507e-11
1.35568e-11
8.67236e-12
-3.40683e-11
1.60184e-11
8.66425e-12
-3.76521e-11
1.86099e-11
8.08691e-12
-4.09459e-11
2.11865e-11
6.70608e-12
-4.3798e-11
2.35515e-11
4.43813e-12
-4.61322e-11
2.55105e-11
1.85856e-12
-4.79846e-11
2.69532e-11
-4.96597e-11
2.79711e-11
1.61622e-12
-2.32648e-12
8.34011e-13
3.06538e-12
-6.78813e-12
2.45288e-12
4.38629e-12
-1.09614e-11
4.02416e-12
5.6095e-12
-1.50149e-11
5.64144e-12
6.75727e-12
-1.90797e-11
7.38441e-12
7.84229e-12
-2.3251e-11
9.32105e-12
8.86477e-12
-2.75881e-11
1.15067e-11
9.80669e-12
-3.21122e-11
1.39793e-11
1.06219e-11
-3.68024e-11
1.67501e-11
1.12204e-11
-4.15892e-11
1.97894e-11
1.14457e-11
-4.63443e-11
2.30086e-11
1.10496e-11
-5.08648e-11
2.62486e-11
9.69878e-12
-5.48503e-11
2.92929e-11
7.13653e-12
-5.78851e-11
3.19277e-11
3.8311e-12
-5.9538e-11
3.40033e-11
-5.99537e-11
3.556e-11
1.9143e-12
-2.61989e-12
9.78394e-13
3.6305e-12
-7.64757e-12
2.87641e-12
5.19472e-12
-1.23604e-11
4.71533e-12
6.64419e-12
-1.69548e-11
6.6028e-12
8.00776e-12
-2.15862e-11
8.63039e-12
9.30533e-12
-2.63721e-11
1.08762e-11
1.05459e-11
-3.13933e-11
1.34041e-11
1.1723e-11
-3.66932e-11
1.62582e-11
1.28069e-11
-4.22745e-11
1.94535e-11
1.37312e-11
-4.80928e-11
2.29595e-11
1.43716e-11
-5.4042e-11
2.66805e-11
1.45164e-11
-5.99245e-11
3.04378e-11
1.38528e-11
-6.539e-11
3.39794e-11
1.2057e-11
-6.98317e-11
3.70412e-11
9.31692e-12
-7.23857e-11
3.94286e-11
-7.14499e-11
4.12264e-11
2.17781e-12
-2.82308e-12
1.1012e-12
4.12953e-12
-8.24477e-12
3.23589e-12
5.90734e-12
-1.33388e-11
5.29947e-12
7.55414e-12
-1.8324e-11
7.41016e-12
9.1049e-12
-2.33759e-11
9.66805e-12
1.05869e-11
-2.86312e-11
1.21583e-11
1.20194e-11
-3.41906e-11
1.495e-11
1.34113e-11
-4.01188e-11
1.80909e-11
1.47577e-11
-4.64435e-11
2.15968e-11
1.60333e-11
-5.31508e-11
2.54344e-11
1.71833e-11
-6.0175e-11
2.94966e-11
1.81119e-11
-6.7381e-11
3.35773e-11
1.86884e-11
-7.45327e-11
3.73654e-11
1.88104e-11
-8.12423e-11
4.04982e-11
1.85743e-11
-8.68638e-11
4.26942e-11
-9.06117e-11
4.41261e-11
2.40281e-12
1.20105e-12
-2.92544e-12
4.55494e-12
3.52741e-12
-8.54864e-12
6.51275e-12
5.77038e-12
-1.38457e-11
8.32321e-12
8.05491e-12
-1.90504e-11
1.00259e-11
1.04861e-11
-2.43521e-11
1.1654e-11
1.31527e-11
-2.99017e-11
1.32354e-11
1.61255e-11
-3.58145e-11
1.47926e-11
1.94524e-11
-4.21712e-11
1.63432e-11
2.31471e-11
-4.9017e-11
1.79e-11
2.7171e-11
-5.63574e-11
1.94723e-11
3.1405e-11
-6.41496e-11
2.10721e-11
3.56167e-11
-7.22909e-11
2.27412e-11
3.94401e-11
-8.06061e-11
2.46051e-11
4.24128e-11
-8.8839e-11
2.67072e-11
4.41503e-11
-9.64152e-11
4.45726e-11
-1.04863e-10
1.8916e-13
-5.32729e-13
6.8852e-14
3.5824e-13
-1.55251e-12
2.02576e-13
5.11224e-13
-2.50105e-12
3.32649e-13
6.50813e-13
-3.41376e-12
4.67009e-13
7.78148e-13
-4.3162e-12
6.12313e-13
8.9247e-13
-5.22403e-12
7.74022e-13
9.90572e-13
-6.14249e-12
9.56266e-13
1.06601e-12
-7.06563e-12
1.16133e-12
1.10825e-12
-7.97507e-12
1.38867e-12
1.1024e-12
-8.83912e-12
1.63342e-12
1.03035e-12
-9.61296e-12
1.88494e-12
8.74985e-13
-1.02385e-11
2.12593e-12
6.28248e-13
-1.06382e-11
2.33388e-12
3.01973e-13
-1.06907e-11
2.48791e-12
-4.96222e-14
-1.02252e-11
2.57722e-12
-8.58524e-12
2.79312e-12
5.64118e-13
-1.04927e-12
2.04826e-13
1.06844e-12
-3.05842e-12
6.02628e-13
1.52489e-12
-4.92863e-12
9.89483e-13
1.94167e-12
-6.73013e-12
1.38887e-12
2.32249e-12
-8.51439e-12
1.82052e-12
2.6656e-12
-1.03139e-11
2.30063e-12
2.96212e-12
-1.21413e-11
2.84157e-12
3.19366e-12
-1.39876e-11
3.45028e-12
3.32959e-12
-1.58203e-11
4.12546e-12
3.32553e-12
-1.7582e-11
4.85342e-12
3.12605e-12
-1.91935e-11
5.60373e-12
2.67748e-12
-2.05627e-11
6.32654e-12
1.95983e-12
-2.16047e-11
6.9564e-12
1.04794e-12
-2.22672e-11
7.42847e-12
1.98174e-13
-2.25546e-11
7.70333e-12
-2.27533e-11
7.71858e-12
9.29159e-13
-1.53384e-12
3.35754e-13
1.76007e-12
-4.47203e-12
9.87762e-13
2.51258e-12
-7.21029e-12
1.6215e-12
3.20068e-12
-9.85314e-12
2.27511e-12
3.83151e-12
-1.24785e-11
2.98065e-12
4.40382e-12
-1.51377e-11
3.76469e-12
4.90536e-12
-1.78545e-11
4.64764e-12
5.30891e-12
-2.06225e-11
5.64143e-12
5.56735e-12
-2.34024e-11
6.74512e-12
5.60944e-12
-2.61203e-11
7.93877e-12
5.34057e-12
-2.86709e-11
9.17693e-12
4.65917e-12
-3.09342e-11
1.03856e-11
3.51176e-12
-3.28186e-11
1.14695e-11
2.02386e-12
-3.43319e-11
1.23347e-11
6.9252e-13
-3.55991e-11
1.29188e-11
-3.68869e-11
1.32487e-11
1.27787e-12
-1.97048e-12
4.58577e-13
2.42096e-12
-5.74696e-12
1.34888e-12
3.45704e-12
-9.27188e-12
2.21344e-12
4.40631e-12
-1.2683e-11
3.10372e-12
5.28054e-12
-1.60848e-11
4.06307e-12
6.08122e-12
-1.95497e-11
5.12761e-12
6.79646e-12
-2.31162e-11
6.32544e-12
7.3959e-12
-2.67869e-11
7.67364e-12
7.82375e-12
-3.05242e-11
9.1729e-12
7.99097e-12
-3.42459e-11
1.07999e-11
7.76964e-12
-3.78225e-11
1.25e-11
7.00117e-12
-4.1083e-11
1.41846e-11
5.55021e-12
-4.38413e-11
1.57431e-11
3.47155e-12
-4.59619e-11
1.70715e-11
1.35931e-12
-4.74449e-11
1.80874e-11
-4.86514e-11
1.8775e-11
1.60393e-12
-2.3437e-12
5.70562e-13
3.03902e-12
-6.83799e-12
1.67781e-12
4.34072e-12
-1.10405e-11
2.75157e-12
5.53583e-12
-1.51202e-11
3.85491e-12
6.64188e-12
-1.92074e-11
5.04095e-12
7.66561e-12
-2.33963e-11
6.35418e-12
8.59996e-12
-2.77437e-11
7.82946e-12
9.41908e-12
-3.22666e-11
9.48861e-12
1.00709e-11
-3.69382e-11
1.13342e-11
1.04672e-11
-4.16792e-11
1.33413e-11
1.04722e-11
-4.63461e-11
1.54482e-11
9.89576e-12
-5.07131e-11
1.7554e-11
8.52085e-12
-5.44477e-11
1.95332e-11
6.24231e-12
-5.71011e-11
2.12672e-11
3.52549e-12
-5.82582e-11
2.26486e-11
-5.81613e-11
2.36334e-11
1.90143e-12
-2.63895e-12
6.69452e-13
3.60281e-12
-7.70264e-12
1.96784e-12
5.14675e-12
-1.24473e-11
3.22467e-12
6.56651e-12
-1.70693e-11
4.51249e-12
7.88612e-12
-2.17226e-11
5.89239e-12
9.11946e-12
-2.65226e-11
7.41551e-12
1.02683e-11
-3.15452e-11
9.12199e-12
1.13186e-11
-3.68263e-11
1.10371e-11
1.22358e-11
-4.23568e-11
1.31647e-11
1.29565e-11
-4.80746e-11
1.54773e-11
1.33797e-11
-5.38487e-11
1.79052e-11
1.33563e-11
-5.94507e-11
2.03299e-11
1.26945e-11
-6.45012e-11
2.2598e-11
1.12265e-11
-6.83904e-11
2.45579e-11
9.13128e-12
-7.03329e-11
2.60817e-11
-6.89294e-11
2.71673e-11
2.16519e-12
-2.84328e-12
7.53588e-13
4.10229e-12
-8.30301e-12
2.21408e-12
5.85995e-12
-1.34303e-11
3.62465e-12
7.47721e-12
-1.84435e-11
5.06498e-12
8.98434e-12
-2.35161e-11
6.60192e-12
1.04029e-11
-2.87816e-11
8.2912e-12
1.17452e-11
-3.43339e-11
1.01763e-11
1.30134e-11
-4.02272e-11
1.22841e-11
1.41978e-11
-4.64728e-11
1.46181e-11
1.52766e-11
-5.30327e-11
1.71468e-11
1.62167e-11
-5.98096e-11
1.97896e-11
1.69808e-11
-6.66316e-11
2.24042e-11
1.75514e-11
-7.32357e-11
2.47933e-11
1.79764e-11
-7.92524e-11
2.67422e-11
1.83547e-11
-8.41648e-11
2.80823e-11
-8.74377e-11
2.88979e-11
2.39115e-12
8.22018e-13
-2.94608e-12
4.52964e-12
2.41382e-12
-8.60805e-12
6.46848e-12
3.94722e-12
-1.39387e-11
8.25101e-12
5.50648e-12
-1.9171e-11
9.91245e-12
7.16187e-12
-2.44922e-11
1.14808e-11
8.9714e-12
-3.00486e-11
1.29776e-11
1.09796e-11
-3.59478e-11
1.44192e-11
1.32133e-11
-4.22584e-11
1.58187e-11
1.56736e-11
-4.90067e-11
1.71912e-11
1.83243e-11
-5.61714e-11
1.85635e-11
2.1074e-11
-6.36757e-11
1.99953e-11
2.37588e-11