/*--------------------------------*- C++ -*----------------------------------*\
| =========                 |                                                 |
| \\      /  F ield         | OpenFOAM: The Open Source CFD Toolbox           |
|  \\    /   O peration     | Version:  v1912                                 |
|   \\  /    A nd           | Website:  www.openfoam.com                      |
|    \\/     M anipulation  |                                                 |
\*---------------------------------------------------------------------------*/
FoamFile
{
    version     2.0;
    format      ascii;
    class       surfaceScalarField;
    location    "0.49/fluid";
    object      phi;
}
// * * * * * * * * * * * * * * * * * * * * * * * * * * * * * * * * * * * * * //

dimensions      [0 3 -1 0 0 0 0];
oriented        oriented;


internalField   nonuniform List<scalar> 
41600
(
5.03866e-05
1.23141e-05
3.59077e-07
-5.59787e-07
4.1034e-05
9.69471e-06
5.03277e-07
-8.45401e-07
3.4596e-05
6.78715e-06
2.85534e-07
-6.34676e-07
3.09616e-05
3.92556e-06
-1.36725e-07
-1.54441e-07
2.89448e-05
2.22683e-06
-7.09611e-07
4.99571e-07
2.77661e-05
1.30908e-06
-1.41026e-06
1.27993e-06
2.69318e-05
8.92483e-07
-2.26247e-06
2.20427e-06
2.61872e-05
7.30846e-07
-3.31068e-06
3.32447e-06
2.53943e-05
6.98251e-07
-4.62229e-06
4.71686e-06
2.44603e-05
7.15041e-07
-6.29428e-06
6.51331e-06
2.3305e-05
7.43398e-07
-8.47857e-06
8.89041e-06
2.17771e-05
6.99983e-07
-1.13343e-05
1.21622e-05
1.96381e-05
5.88257e-07
-1.52686e-05
1.68193e-05
1.62332e-05
6.84469e-08
-2.00678e-05
2.34043e-05
1.02398e-05
-4.04804e-07
-2.58234e-05
3.22216e-05
-2.92972e-06
-2.15412e-05
3.47107e-05
6.50578e-05
1.00313e-05
4.52268e-07
-7.27249e-07
6.43606e-05
1.08883e-05
6.22104e-07
-1.1185e-06
6.26957e-05
8.99827e-06
3.00446e-07
-8.46612e-07
6.08705e-05
6.24026e-06
-3.55285e-07
-1.34272e-07
5.9278e-05
4.19841e-06
-1.27832e-06
8.99277e-07
5.79197e-05
2.92314e-06
-2.43971e-06
2.18395e-06
5.66617e-05
2.28793e-06
-3.87327e-06
3.73578e-06
5.53516e-05
2.06117e-06
-5.6521e-06
5.63193e-06
5.38516e-05
2.09019e-06
-7.88873e-06
7.99677e-06
5.20061e-05
2.26781e-06
-1.07476e-05
1.10404e-05
4.9641e-05
2.53158e-06
-1.44758e-05
1.50527e-05
4.63906e-05
2.78505e-06
-1.93616e-05
2.05269e-05
4.1761e-05
3.00431e-06
-2.59811e-05
2.81947e-05
3.4259e-05
2.82038e-06
-3.41194e-05
3.88695e-05
2.23002e-05
2.34994e-06
-4.30667e-05
5.22708e-05
-7.06242e-07
-3.53389e-05
5.54155e-05
6.62778e-05
6.54482e-06
4.72908e-07
-7.64212e-07
6.85636e-05
9.13674e-06
6.43189e-07
-1.17751e-06
6.95361e-05
8.62125e-06
2.95754e-07
-8.91222e-07
6.94681e-05
6.84916e-06
-4.05411e-07
-1.35496e-07
6.88645e-05
5.22772e-06
-1.39401e-06
9.68307e-07
6.7978e-05
4.10323e-06
-2.64484e-06
2.35126e-06
6.68987e-05
3.53208e-06
-4.19534e-06
4.03045e-06
6.56002e-05
3.39672e-06
-6.12525e-06
6.08825e-06
6.39962e-05
3.59175e-06
-8.55598e-06
8.65841e-06
6.19318e-05
4.03136e-06
-1.16684e-05
1.19692e-05
5.91921e-05
4.66358e-06
-1.57284e-05
1.63361e-05
5.53285e-05
5.40779e-06
-2.10657e-05
2.23065e-05
4.97143e-05
6.23523e-06
-2.82859e-05
3.06692e-05
4.06034e-05
6.76857e-06
-3.7236e-05
4.23988e-05
2.61858e-05
6.65875e-06
-4.70541e-05
5.71629e-05
2.93997e-06
-3.89612e-05
6.15007e-05
6.5065e-05
4.27236e-06
4.86796e-07
-7.79363e-07
6.77006e-05
7.04254e-06
6.69999e-07
-1.21137e-06
6.95465e-05
7.37949e-06
3.2818e-07
-9.32371e-07
7.04081e-05
6.53675e-06
-3.66766e-07
-1.82398e-07
7.05483e-05
5.52073e-06
-1.34607e-06
9.12924e-07
7.01871e-05
4.76468e-06
-2.58457e-06
2.28428e-06
6.94604e-05
4.42967e-06
-4.11884e-06
3.94789e-06
6.83965e-05
4.50321e-06
-6.02806e-06
5.98547e-06
6.6947e-05
4.94389e-06
-8.43161e-06
8.52904e-06
6.497e-05
5.71156e-06
-1.15124e-05
1.18092e-05
6.22392e-05
6.78727e-06
-1.55341e-05
1.61412e-05
5.82663e-05
8.13002e-06
-2.08449e-05
2.20956e-05
5.23515e-05
9.72914e-06
-2.80484e-05
3.04692e-05
4.26473e-05
1.11861e-05
-3.70724e-05
4.23591e-05
2.7172e-05
1.17243e-05
-4.70589e-05
5.74687e-05
6.81849e-06
-3.92417e-05
6.25351e-05
6.4178e-05
2.88503e-06
5.07196e-07
-7.97901e-07
6.64829e-05
5.27822e-06
7.16851e-07
-1.25739e-06
6.84567e-05
6.00876e-06
3.98334e-07
-1.00146e-06
6.9732e-05
5.809e-06
-2.71686e-07
-2.758e-07
7.03467e-05
5.33772e-06
-1.21914e-06
7.87485e-07
7.04199e-05
4.99146e-06
-2.41463e-06
2.11461e-06
7.00603e-05
4.96189e-06
-3.88961e-06
3.71697e-06
6.93071e-05
5.30345e-06
-5.71804e-06
5.67099e-06
6.81323e-05
6.02943e-06
-8.01101e-06
8.10027e-06
6.64075e-05
7.15355e-06
-1.09458e-05
1.12287e-05
6.3906e-05
8.70382e-06
-1.4771e-05
1.5356e-05
6.01073e-05
1.07129e-05
-1.98436e-05
2.10593e-05
5.4234e-05
1.32327e-05
-2.67399e-05
2.91097e-05
4.42744e-05
1.59196e-05
-3.55054e-05
4.07315e-05
2.79705e-05
1.76854e-05
-4.52953e-05
5.56381e-05
1.15137e-05
-3.80854e-05
6.13606e-05
6.3713e-05
1.96086e-06
5.31661e-07
-8.20449e-07
6.5696e-05
3.83363e-06
7.75578e-07
-1.31406e-06
6.76248e-05
4.68085e-06
4.90214e-07
-1.09109e-06
6.90961e-05
4.88278e-06
-1.45629e-07
-3.9948e-07
7.00175e-05
4.84627e-06
-1.05153e-06
6.21637e-07
7.04269e-05
4.88197e-06
-2.19145e-06
1.89153e-06
7.03949e-05
5.16898e-06
-3.58928e-06
3.41425e-06
6.9955e-05
5.79643e-06
-5.31127e-06
5.25812e-06
6.90878e-05
6.81881e-06
-7.45707e-06
7.53497e-06
6.76723e-05
8.30643e-06
-1.01946e-05
1.04571e-05
6.54814e-05
1.03438e-05
-1.37501e-05
1.43011e-05
6.19617e-05
1.30762e-05
-1.84856e-05
1.96421e-05
5.62607e-05
1.66616e-05
-2.49313e-05
2.72033e-05
4.61635e-05
2.09467e-05
-3.32834e-05
3.83535e-05
2.90757e-05
2.46789e-05
-4.2694e-05
5.27884e-05
1.76308e-05
-3.6386e-05
5.93446e-05
6.35126e-05
1.23577e-06
5.60694e-07
-8.482e-07
6.53172e-05
2.56604e-06
8.44883e-07
-1.38188e-06
6.72142e-05
3.3834e-06
5.99755e-07
-1.19928e-06
6.881e-05
3.83107e-06
5.19931e-09
-5.493e-07
6.99535e-05
4.13266e-06
-8.51152e-07
4.21257e-07
7.0639e-05
4.49845e-06
-1.92448e-06
1.62248e-06
7.09156e-05
5.07276e-06
-3.22822e-06
3.04784e-06
7.08202e-05
5.95589e-06
-4.81666e-06
4.7526e-06
7.03538e-05
7.22752e-06
-6.7715e-06
6.82911e-06
6.94292e-05
9.00722e-06
-9.23988e-06
9.46377e-06
6.78631e-05
1.14313e-05
-1.24058e-05
1.28844e-05
6.51322e-05
1.47951e-05
-1.66066e-05
1.76186e-05
6.03864e-05
1.94158e-05
-2.22624e-05
2.42539e-05
5.10286e-05
2.57885e-05
-2.97183e-05
3.42343e-05
3.37496e-05
3.29444e-05
-3.80001e-05
4.70135e-05
3.00295e-05
-3.29227e-05
5.42736e-05
6.34476e-05
5.92503e-07
-8.7953e-07
5.75213e-07
6.52002e-05
9.20447e-07
-1.45705e-06
1.35004e-06
6.7123e-05
7.1943e-07
-1.31895e-06
2.06009e-06
6.88314e-05
1.6989e-07
-7.14585e-07
2.66736e-06
7.01521e-05
-6.33212e-07
2.01546e-07
3.24365e-06
7.10622e-05
-1.63547e-06
1.32975e-06
3.89411e-06
7.16044e-05
-2.83909e-06
2.6519e-06
4.71772e-06
7.18235e-05
-4.28523e-06
4.20893e-06
5.81305e-06
7.17401e-05
-6.03677e-06
6.07295e-06
7.27478e-06
7.12978e-05
-8.21774e-06
8.40188e-06
9.26538e-06
7.03579e-05
-1.09685e-05
1.13743e-05
1.19653e-05
6.84435e-05
-1.45951e-05
1.5462e-05
1.58426e-05
6.47846e-05
-1.9403e-05
2.11176e-05
2.13602e-05
5.65731e-05
-2.58994e-05
2.98643e-05
3.00351e-05
4.03286e-05
-3.30543e-05
4.10188e-05
4.12244e-05
-3.00468e-05
5.00636e-05
5.03412e-05
5.03228e-05
1.23194e-05
2.16845e-07
4.08522e-05
9.71088e-06
2.63012e-07
3.42871e-05
6.80586e-06
4.47255e-08
3.05333e-05
3.94342e-06
-3.26276e-07
2.83993e-05
2.24685e-06
-8.22466e-07
2.70915e-05
1.3352e-06
-1.43765e-06
2.60988e-05
9.28508e-07
-2.19834e-06
2.51495e-05
7.79905e-07
-3.14129e-06
2.40854e-05
7.64866e-07
-4.32307e-06
2.27951e-05
8.04656e-07
-5.80859e-06
2.11669e-05
8.66953e-07
-7.71731e-06
1.90527e-05
8.73111e-07
-1.00932e-05
1.61613e-05
8.41369e-07
-1.32186e-05
1.21166e-05
4.6684e-07
-1.64899e-05
5.87873e-06
8.51235e-08
-1.96707e-05
-1.95977e-06
-1.37027e-05
6.49681e-05
1.00445e-05
2.59094e-07
6.41015e-05
1.09207e-05
2.78827e-07
6.22331e-05
9.04242e-06
-6.76393e-08
6.01951e-05
6.29078e-06
-6.64718e-07
5.83829e-05
4.25877e-06
-1.47801e-06
5.67826e-05
3.00042e-06
-2.50459e-06
5.52338e-05
2.39116e-06
-3.78719e-06
5.35529e-05
2.19972e-06
-5.39097e-06
5.15642e-05
2.27632e-06
-7.41147e-06
4.90726e-05
2.5151e-06
-9.96654e-06
4.58486e-05
2.86143e-06
-1.32461e-05
4.15153e-05
3.21688e-06
-1.73721e-05
3.55189e-05
3.57321e-06
-2.27166e-05
2.6829e-05
3.53798e-06
-2.85007e-05
1.43235e-05
3.1157e-06
-3.35917e-05
3.41133e-08
-2.30093e-05
6.61863e-05
6.56299e-06
2.68141e-07
6.82948e-05
9.18104e-06
2.74383e-07
6.90504e-05
8.68702e-06
-1.04449e-07
6.87509e-05
6.93163e-06
-7.46786e-07
6.79053e-05
5.33054e-06
-1.62018e-06
6.67517e-05
4.23586e-06
-2.72672e-06
6.53531e-05
3.70851e-06
-4.1141e-06
6.36487e-05
3.63353e-06
-5.85463e-06
6.151e-05
3.91075e-06
-8.05174e-06
5.87366e-05
4.45732e-06
-1.08372e-05
5.50515e-05
5.23237e-06
-1.44142e-05
4.99874e-05
6.1493e-06
-1.8934e-05
4.28547e-05
7.19845e-06
-2.47784e-05
3.23993e-05
7.92684e-06
-3.11695e-05
1.73434e-05
7.87387e-06
-3.67564e-05
3.608e-06
-2.51917e-05
6.49751e-05
4.29441e-06
2.80262e-07
6.74347e-05
7.0966e-06
2.949e-07
6.90663e-05
7.46347e-06
-7.99247e-08
6.97e-05
6.64737e-06
-7.16234e-07
6.96025e-05
5.66234e-06
-1.58036e-06
6.89795e-05
4.94909e-06
-2.67479e-06
6.79402e-05
4.67553e-06
-4.04652e-06
6.64787e-05
4.83448e-06
-5.76748e-06
6.4504e-05
5.39295e-06
-7.93912e-06
6.18273e-05
6.31684e-06
-1.06953e-05
5.81576e-05
7.60402e-06
-1.4236e-05
5.29822e-05
9.20744e-06
-1.87276e-05
4.5529e-05
1.11475e-05
-2.45443e-05
3.44391e-05
1.29037e-05
-3.09594e-05
1.82607e-05
1.35914e-05
-3.65981e-05
7.70755e-06
-2.50805e-05
6.40902e-05
2.91079e-06
3.00663e-07
6.62226e-05
5.34138e-06
3.39659e-07
6.79886e-05
6.10872e-06
-1.29909e-08
6.90457e-05
5.94386e-06
-6.25281e-07
6.94353e-05
5.51285e-06
-1.45923e-06
6.92624e-05
5.22092e-06
-2.51357e-06
6.86101e-05
5.26865e-06
-3.8304e-06
6.74849e-05
5.71861e-06
-5.47694e-06
6.58179e-05
6.59613e-06
-7.54718e-06
6.3434e-05
7.92569e-06
-1.01708e-05
6.00412e-05
9.76044e-06
-1.35346e-05
5.50876e-05
1.21327e-05
-1.78152e-05
4.77092e-05
1.51481e-05
-2.33621e-05
3.63532e-05
1.83028e-05
-2.95486e-05
1.92411e-05
2.04228e-05
-3.50147e-05
1.28615e-05
-2.39983e-05
6.36271e-05
1.9902e-06
3.25112e-07
6.54425e-05
3.90483e-06
3.96747e-07
6.71716e-05
4.7941e-06
7.57302e-08
6.84367e-05
5.03721e-06
-5.04024e-07
6.91485e-05
5.04835e-06
-1.29886e-06
6.93315e-05
5.14791e-06
-2.30146e-06
6.90321e-05
5.52562e-06
-3.54682e-06
6.82531e-05
6.28159e-06
-5.09525e-06
6.69364e-05
7.48619e-06
-7.03049e-06
6.4916e-05
9.22672e-06
-9.47517e-06
6.19e-05
1.16231e-05
-1.25968e-05
5.72958e-05
1.48326e-05
-1.65812e-05
5.01527e-05
1.90987e-05
-2.17388e-05
3.86702e-05
2.40822e-05
-2.75803e-05
2.06526e-05
2.85069e-05
-3.27604e-05
1.96667e-05
-2.25387e-05
6.34293e-05
1.26798e-06
3.5359e-07
6.50721e-05
2.64328e-06
4.63696e-07
6.67789e-05
3.50607e-06
1.80904e-07
6.81823e-05
3.99893e-06
-3.59886e-07
6.91348e-05
4.35297e-06
-1.10832e-06
6.96185e-05
4.78886e-06
-2.04909e-06
6.96609e-05
5.46266e-06
-3.20767e-06
6.9272e-05
6.48785e-06
-4.63402e-06
6.84203e-05
7.96284e-06
-6.39641e-06
6.69789e-05
1.00304e-05
-8.6022e-06
6.47105e-05
1.28708e-05
-1.13851e-05
6.1049e-05
1.6811e-05
-1.49234e-05
5.50482e-05
2.22841e-05
-1.94469e-05
4.44223e-05
2.96247e-05
-2.46349e-05
2.61194e-05
3.79239e-05
-2.91142e-05
3.2954e-05
-2.00907e-05
6.3367e-05
3.8425e-07
6.09261e-07
6.49642e-05
5.36009e-07
1.4305e-06
6.67073e-05
2.94994e-07
2.18742e-06
6.82379e-05
-2.03411e-07
2.84164e-06
6.9387e-05
-9.01983e-07
3.47259e-06
7.01211e-05
-1.77666e-06
4.19597e-06
7.04642e-05
-2.84257e-06
5.12307e-06
7.0438e-05
-4.13833e-06
6.36717e-06
7.00364e-05
-5.71587e-06
8.0435e-06
6.91705e-05
-7.66507e-06
1.03436e-05
6.76592e-05
-1.00841e-05
1.34978e-05
6.49824e-05
-1.31388e-05
1.80315e-05
6.02926e-05
-1.69736e-05
2.45444e-05
5.0995e-05
-2.14552e-05
3.44781e-05
3.37644e-05
-2.52335e-05
4.73338e-05
-1.8024e-05
5.46956e-05
5.02726e-05
1.23245e-05
1.19795e-07
4.07057e-05
9.72545e-06
1.04475e-07
3.40296e-05
6.82322e-06
-1.02443e-07
3.01636e-05
3.96034e-06
-4.20592e-07
2.79134e-05
2.26585e-06
-8.3815e-07
2.64745e-05
1.35947e-06
-1.35817e-06
2.53204e-05
9.61252e-07
-2.00553e-06
2.41628e-05
8.23629e-07
-2.8073e-06
2.28218e-05
8.22967e-07
-3.80502e-06
2.11655e-05
8.80755e-07
-5.03308e-06
1.90513e-05
9.67763e-07
-6.57087e-06
1.63423e-05
1.00687e-06
-8.39097e-06
1.27692e-05
1.01874e-06
-1.06643e-05
8.34173e-06
7.13495e-07
-1.27759e-05
2.75393e-06
3.07364e-07
-1.43903e-05
-1.57396e-06
-9.37482e-06
6.48968e-05
1.00575e-05
1.29305e-07
6.38912e-05
1.09515e-05
5.83306e-08
6.18456e-05
9.0848e-06
-2.8366e-07
5.96115e-05
6.33985e-06
-8.10114e-07
5.75873e-05
4.31732e-06
-1.50531e-06
5.57479e-05
3.0745e-06
-2.38017e-06
5.39107e-05
2.48893e-06
-3.47772e-06
5.18641e-05
2.3297e-06
-4.85047e-06
4.93971e-05
2.44958e-06
-6.57107e-06
4.62799e-05
2.74331e-06
-8.7119e-06
4.22389e-05
3.1621e-06
-1.13994e-05
3.69155e-05
3.60314e-06
-1.46451e-05
2.98059e-05
4.06485e-06
-1.86531e-05
2.04804e-05
4.12589e-06
-2.25876e-05
8.80658e-06
3.67911e-06
-2.52897e-05
4.47992e-07
-1.62247e-05
6.61136e-05
6.58126e-06
1.30748e-07
6.80766e-05
9.22419e-06
3.87843e-08
6.86436e-05
8.75093e-06
-3.37645e-07
6.81314e-05
7.01193e-06
-9.06657e-07
6.70535e-05
5.43021e-06
-1.65513e-06
6.56373e-05
4.36333e-06
-2.59932e-06
6.39231e-05
3.87663e-06
-3.78757e-06
6.18197e-05
3.85766e-06
-5.27925e-06
5.916e-05
4.21108e-06
-7.15352e-06
5.57039e-05
4.85604e-06
-9.49387e-06
5.11257e-05
5.76101e-06
-1.24349e-05
4.49715e-05
6.83088e-06
-1.60076e-05
3.66013e-05
8.06946e-06
-2.04128e-05
2.53994e-05
8.95087e-06
-2.47926e-05
1.11655e-05
8.92266e-06
-2.7766e-05
4.17329e-06
-1.77515e-05
6.4904e-05
4.31665e-06
1.40864e-07
6.72196e-05
7.1496e-06
5.39437e-08
6.86653e-05
7.54517e-06
-3.19859e-07
6.90897e-05
6.75468e-06
-8.8346e-07
6.87639e-05
5.79903e-06
-1.62339e-06
6.78831e-05
5.12592e-06
-2.55655e-06
6.65341e-05
4.90984e-06
-3.73076e-06
6.46809e-05
5.14862e-06
-5.20518e-06
6.2193e-05
5.81711e-06
-7.05729e-06
5.88402e-05
6.88598e-06
-9.37242e-06
5.4279e-05
8.36813e-06
-1.2282e-05
4.80036e-05
1.02074e-05
-1.58286e-05
3.92814e-05
1.24512e-05
-2.0204e-05
2.73937e-05
1.44653e-05
-2.45861e-05
1.19874e-05
1.52935e-05
-2.75626e-05
8.64838e-06
-1.75682e-05
6.4021e-05
2.93648e-06
1.59802e-07
6.6013e-05
5.403e-06
9.4307e-08
6.75992e-05
6.20551e-06
-2.59574e-07
6.84561e-05
6.07391e-06
-8.01344e-07
6.8629e-05
5.68101e-06
-1.51418e-06
6.82129e-05
5.44028e-06
-2.41181e-06
6.72694e-05
5.56073e-06
-3.5378e-06
6.57758e-05
6.11257e-06
-4.94734e-06
6.3625e-05
7.13249e-06
-6.7117e-06
6.05996e-05
8.65406e-06
-8.91354e-06
5.63531e-05
1.07537e-05
-1.16737e-05
5.03311e-05
1.34593e-05
-1.50451e-05
4.16946e-05
1.69259e-05
-1.92003e-05
2.95096e-05
2.05012e-05
-2.33994e-05
1.30641e-05
2.2973e-05
-2.62487e-05
1.44022e-05
-1.6688e-05
6.356e-05
2.019e-06
1.82572e-07
6.52395e-05
3.9737e-06
1.46572e-07
6.67965e-05
4.90301e-06
-1.78741e-07
6.78723e-05
5.18521e-06
-6.9115e-07
6.8382e-05
5.24148e-06
-1.36905e-06
6.83404e-05
5.4014e-06
-2.22093e-06
6.77736e-05
5.86481e-06
-3.28416e-06
6.66571e-05
6.74208e-06
-4.6082e-06
6.48962e-05
8.11877e-06
-6.25588e-06
6.2283e-05
1.00972e-05
-8.30509e-06
5.84708e-05
1.28308e-05
-1.08617e-05
5.28547e-05
1.64838e-05
-1.39897e-05
4.44946e-05
2.13801e-05
-1.78329e-05
3.21709e-05
2.70111e-05
-2.17665e-05
1.46812e-05
3.21296e-05
-2.44274e-05
2.20897e-05
-1.55449e-05
6.33647e-05
1.29911e-06
2.08822e-07
6.48771e-05
2.71728e-06
2.07685e-07
6.6421e-05
3.62319e-06
-8.31663e-08
6.76481e-05
4.15887e-06
-5.6063e-07
6.84159e-05
4.56267e-06
-1.19731e-06
6.8698e-05
5.06503e-06
-1.99481e-06
6.85042e-05
5.83324e-06
-2.98233e-06
6.78202e-05
6.99319e-06
-4.20111e-06
6.65828e-05
8.66147e-06
-5.70177e-06
6.4628e-05
1.1002e-05
-7.55216e-06
6.16697e-05
1.42377e-05
-9.83379e-06
5.71226e-05
1.87211e-05
-1.26136e-05
5.00415e-05
2.49974e-05
-1.5983e-05
3.86313e-05
3.32531e-05
-1.94667e-05
2.06631e-05
4.27158e-05
-2.17323e-05
3.653e-05
-1.38678e-05
6.33049e-05
2.36784e-07
6.41664e-07
6.4778e-05
2.73324e-07
1.50686e-06
6.6368e-05
2.00951e-08
2.30809e-06
6.77361e-05
-4.19438e-07
3.00683e-06
6.87189e-05
-1.01186e-06
3.68969e-06
6.92761e-05
-1.75115e-06
4.48239e-06
6.94164e-05
-2.65771e-06
5.50801e-06
6.91412e-05
-3.76366e-06
6.89378e-06
6.84184e-05
-5.10673e-06
8.77505e-06
6.7128e-05
-6.74296e-06
1.13704e-05
6.50498e-05
-8.72804e-06
1.49598e-05
6.16414e-05
-1.11284e-05
2.01191e-05
5.60585e-05
-1.39806e-05
2.75872e-05
4.60939e-05
-1.69738e-05
3.87363e-05
2.91059e-05
-1.88558e-05
5.33262e-05
-1.24333e-05
6.00451e-05
5.02337e-05
1.23291e-05
5.70061e-08
4.05899e-05
9.73833e-06
9.87264e-09
3.38221e-05
6.83884e-06
-1.73404e-07
2.98608e-05
3.97609e-06
-4.35419e-07
2.7512e-05
2.28375e-06
-7.73141e-07
2.59655e-05
1.38242e-06
-1.19401e-06
2.4687e-05
9.924e-07
-1.71945e-06
2.33823e-05
8.65896e-07
-2.36853e-06
2.18669e-05
8.80554e-07
-3.17015e-06
2.00134e-05
9.5921e-07
-4.13881e-06
1.76885e-05
1.077e-06
-5.32292e-06
1.47996e-05
1.16273e-06
-6.66484e-06
1.1145e-05
1.24573e-06
-8.25544e-06
6.87968e-06
1.06312e-06
-9.57365e-06
2.00622e-06
7.65619e-07
-1.02824e-05
-9.67535e-07
-6.40107e-06
6.48408e-05
1.00695e-05
4.81455e-08
6.37233e-05
1.09794e-05
-6.52716e-08
6.15306e-05
9.12332e-06
-3.75456e-07
5.91295e-05
6.38492e-06
-8.17827e-07
5.69238e-05
4.37112e-06
-1.38704e-06
5.48835e-05
3.14229e-06
-2.09972e-06
5.28146e-05
2.57805e-06
-2.99444e-06
5.04931e-05
2.44814e-06
-4.11126e-06
4.76969e-05
2.60801e-06
-5.50224e-06
4.41973e-05
2.95393e-06
-7.20707e-06
3.97331e-05
3.44403e-06
-9.30226e-06
3.4017e-05
3.97684e-06
-1.1743e-05
2.66644e-05
4.5637e-06
-1.46185e-05
1.75564e-05
4.77837e-06
-1.71948e-05
7.03645e-06
4.44822e-06
-1.84523e-05
1.16068e-06
-1.13164e-05
6.60566e-05
6.59832e-06
4.5305e-08
6.79024e-05
9.26372e-06
-9.1268e-08
6.83128e-05
8.80931e-06
-4.34025e-07
6.76195e-05
7.08533e-06
-9.13785e-07
6.63424e-05
5.52101e-06
-1.52792e-06
6.47047e-05
4.47869e-06
-2.29802e-06
6.27351e-05
4.02775e-06
-3.26766e-06
6.03288e-05
4.05799e-06
-4.48286e-06
5.73058e-05
4.4784e-06
-6.00083e-06
5.34254e-05
5.21008e-06
-7.86961e-06
4.83744e-05
6.23039e-06
-1.01704e-05
4.17741e-05
7.43996e-06
-1.28704e-05
3.31157e-05
8.8584e-06
-1.60492e-05
2.21291e-05
9.91536e-06
-1.89429e-05
9.14493e-06
1.00016e-05
-2.03353e-05
4.94485e-06
-1.23907e-05
6.48484e-05
4.33742e-06
5.33351e-08
6.70483e-05
7.19831e-06
-8.05087e-08
6.83396e-05
7.61979e-06
-4.21689e-07
6.85861e-05
6.85234e-06
-8.96921e-07
6.80647e-05
5.92276e-06
-1.50376e-06
6.69666e-05
5.28479e-06
-2.26452e-06
6.53674e-05
5.11862e-06
-3.22243e-06
6.32176e-05
5.42612e-06
-4.42348e-06
6.03738e-05
6.18846e-06
-5.92356e-06
5.66044e-05
7.37943e-06
-7.77237e-06
5.15774e-05
9.02367e-06
-1.00483e-05
4.48598e-05
1.10565e-05
-1.27276e-05
3.58479e-05
1.35471e-05
-1.58808e-05
2.41673e-05
1.57787e-05
-1.87688e-05
1.00021e-05
1.67484e-05
-2.01441e-05
9.58685e-06
-1.22081e-05
6.39672e-05
2.96032e-06
6.96949e-08
6.58467e-05
5.45943e-06
-4.62992e-08
6.7284e-05
6.29355e-06
-3.70622e-07
6.79706e-05
6.19164e-06
-8.27235e-07
6.7958e-05
5.83235e-06
-1.41116e-06
6.7337e-05
5.63614e-06
-2.1422e-06
6.61588e-05
5.81911e-06
-3.06009e-06
6.4388e-05
6.4573e-06
-4.20772e-06
6.1905e-05
7.59594e-06
-5.63615e-06
5.84907e-05
9.27367e-06
-7.39355e-06
5.38085e-05
1.15827e-05
-9.55046e-06
4.73712e-05
1.45412e-05
-1.20925e-05
3.8459e-05
1.83351e-05
-1.50762e-05
2.64668e-05
2.2197e-05
-1.78256e-05
1.11969e-05
2.48813e-05
-1.91117e-05
1.56208e-05
-1.15251e-05
6.3508e-05
2.04544e-06
8.94524e-08
6.50791e-05
4.03636e-06
-1.44951e-09
6.64938e-05
5.00155e-06
-3.01466e-07
6.7409e-05
5.31848e-06
-7.33141e-07
6.77455e-05
5.41436e-06
-1.28761e-06
6.75147e-05
5.62647e-06
-1.98041e-06
6.67329e-05
6.16292e-06
-2.8462e-06
6.53638e-05
7.14163e-06
-3.92338e-06
6.33013e-05
8.65895e-06
-5.25646e-06
6.03354e-05
1.08251e-05
-6.89064e-06
5.6128e-05
1.38141e-05
-8.88562e-06
5.01343e-05
1.77827e-05
-1.12375e-05
4.1522e-05
2.3098e-05
-1.39836e-05
2.93787e-05
2.91108e-05
-1.65369e-05
1.29716e-05
3.4565e-05
-1.7704e-05
2.37043e-05
-1.06568e-05
6.33148e-05
1.32737e-06
1.12104e-07
6.47238e-05
2.78413e-06
5.09415e-08
6.61333e-05
3.72861e-06
-2.19799e-07
6.72109e-05
4.30222e-06
-6.21919e-07
6.78202e-05
4.74954e-06
-1.1418e-06
6.79321e-05
5.30914e-06
-1.78935e-06
6.7548e-05
6.15733e-06
-2.59267e-06
6.66436e-05
7.42883e-06
-3.58388e-06
6.51465e-05
9.25264e-06
-4.79844e-06
6.28913e-05
1.18035e-05
-6.27535e-06
5.96007e-05
1.53286e-05
-8.05776e-06
5.47404e-05
2.01786e-05
-1.01491e-05
4.74593e-05
2.69511e-05
-1.2555e-05
3.62266e-05
3.5683e-05
-1.48063e-05
1.91987e-05
4.56219e-05
-1.57612e-05
3.85418e-05
-9.5067e-06
6.32573e-05
1.36083e-07
6.70759e-07
6.46323e-05
1.07038e-07
1.57539e-06
6.60966e-05
-1.31767e-07
2.41619e-06
6.7327e-05
-5.01841e-07
3.15425e-06
6.81669e-05
-9.84591e-07
3.88239e-06
6.85739e-05
-1.58367e-06
4.73462e-06
6.85503e-05
-2.32006e-06
5.84327e-06
6.80891e-05
-3.21896e-06
7.34537e-06
6.71517e-05
-4.30618e-06
9.38941e-06
6.56178e-05
-5.6132e-06
1.22077e-05
6.32777e-05
-7.16562e-06
1.61063e-05
5.96316e-05
-8.97219e-06
2.16685e-05
5.39189e-05
-1.10061e-05
2.96893e-05
4.41481e-05
-1.29288e-05
4.14087e-05
2.79791e-05
-1.36944e-05
5.66295e-05
-8.52485e-06
6.26125e-05
5.02033e-05
1.2333e-05
2.07729e-08
4.0499e-05
9.74891e-06
-3.47365e-08
3.36565e-05
6.85179e-06
-1.82783e-07
2.96158e-05
3.98923e-06
-3.83854e-07
2.71829e-05
2.29857e-06
-6.38834e-07
2.55436e-05
1.40116e-06
-9.55868e-07
2.41581e-05
1.01745e-06
-1.3514e-06
2.27279e-05
8.99322e-07
-1.83765e-06
2.10654e-05
9.2518e-07
-2.43285e-06
1.90481e-05
1.01851e-06
-3.13999e-06
1.65539e-05
1.15712e-06
-3.98583e-06
1.35282e-05
1.27315e-06
-4.91236e-06
9.83736e-06
1.40052e-06
-5.9651e-06
5.74514e-06
1.29059e-06
-6.77203e-06
1.46925e-06
1.04615e-06
-7.05268e-06
-6.3985e-07
-4.29197e-06
6.47967e-05
1.00797e-05
4.64235e-09
6.35906e-05
1.1003e-05
-1.13172e-07
6.12785e-05
9.15596e-06
-3.67569e-07
5.87388e-05
6.42328e-06
-7.12146e-07
5.63799e-05
4.41682e-06
-1.1464e-06
5.41687e-05
3.19956e-06
-1.68686e-06
5.1903e-05
2.65284e-06
-2.36418e-06
4.93507e-05
2.54687e-06
-3.20646e-06
4.62826e-05
2.73907e-06
-4.24806e-06
4.2475e-05
3.12661e-06
-5.50754e-06
3.76842e-05
3.67261e-06
-7.02704e-06
3.16876e-05
4.27545e-06
-8.74865e-06
2.4217e-05
4.95525e-06
-1.07027e-05
1.53838e-05
5.27684e-06
-1.23478e-05
5.85201e-06
5.0186e-06
-1.2893e-05
1.63435e-06
-7.73863e-06
6.60118e-05
6.61307e-06
1.92596e-10
6.77646e-05
9.29755e-06
-1.38716e-07
6.80479e-05
8.85923e-06
-4.20549e-07
6.72044e-05
7.14815e-06
-7.95183e-07
6.57594e-05
5.59855e-06
-1.26459e-06
6.39334e-05
4.57682e-06
-1.84932e-06
6.17471e-05
4.15571e-06
-2.58424e-06
5.90865e-05
4.22681e-06
-3.50216e-06
5.57634e-05
4.70252e-06
-4.64122e-06
5.15411e-05
5.50516e-06
-6.02585e-06
4.61252e-05
6.61877e-06
-7.70058e-06
3.92054e-05
7.93941e-06
-9.61457e-06
3.0401e-05
9.49809e-06
-1.17876e-05
1.96996e-05
1.06866e-05
-1.36513e-05
7.79189e-06
1.08528e-05
-1.42618e-05
5.53e-06
-8.49446e-06
6.48048e-05
4.35548e-06
6.14152e-09
6.69131e-05
7.24022e-06
-1.31488e-07
6.80793e-05
7.68379e-06
-4.12482e-07
6.81782e-05
6.93601e-06
-7.83627e-07
6.74918e-05
6.02851e-06
-1.24733e-06
6.62088e-05
5.42013e-06
-1.82481e-06
6.4397e-05
5.29581e-06
-2.55074e-06
6.19976e-05
5.66068e-06
-3.45798e-06
5.88593e-05
6.50101e-06
-4.58373e-06
5.47532e-05
7.79264e-06
-5.9538e-06
4.93651e-05
9.56917e-06
-7.61064e-06
4.2329e-05
1.17579e-05
-9.50991e-06
3.31671e-05
1.44436e-05
-1.16643e-05
2.17639e-05
1.68437e-05
-1.35228e-05
8.66986e-06
1.79194e-05
-1.41166e-05
1.03483e-05
-8.3566e-06
6.39251e-05
2.98101e-06
1.90873e-08
6.57158e-05
5.50801e-06
-1.04757e-07
6.70325e-05
6.36905e-06
-3.72599e-07
6.7578e-05
6.29241e-06
-7.29132e-07
6.74087e-05
5.96162e-06
-1.17497e-06
6.66132e-05
5.80296e-06
-1.72949e-06
6.52351e-05
6.0385e-06
-2.42473e-06
6.32304e-05
6.74898e-06
-3.29129e-06
6.04716e-05
7.98655e-06
-4.36293e-06
5.6742e-05
9.79343e-06
-5.66468e-06
5.17204e-05
1.22739e-05
-7.23366e-06
4.49821e-05
1.54368e-05
-9.03309e-06
3.59256e-05
1.94905e-05
-1.10666e-05
2.41951e-05
2.35773e-05
-1.28286e-05
9.94589e-06
2.64239e-05
-1.33671e-05
1.66387e-05
-7.86953e-06
6.34674e-05
2.06828e-06
3.4778e-08
6.49532e-05
4.09018e-06
-6.9385e-08
6.6253e-05
5.0859e-06
-3.18166e-07
6.70351e-05
5.43236e-06
-6.55178e-07
6.72254e-05
5.56181e-06
-1.07812e-06
6.68331e-05
5.818e-06
-1.60312e-06
6.58678e-05
6.41595e-06
-2.25839e-06
6.4285e-05
7.47971e-06
-3.07129e-06
6.19716e-05
9.11433e-06
-4.07086e-06
5.8719e-05
1.14359e-05
-5.28047e-06
5.42031e-05
1.46341e-05
-6.72993e-06
4.79353e-05
1.88583e-05
-8.39117e-06
3.91921e-05
2.4506e-05
-1.02559e-05
2.72947e-05
3.08199e-05
-1.18821e-05
1.18346e-05
3.65314e-05
-1.23513e-05
2.507e-05
-7.2535e-06
6.3276e-05
1.35165e-06
5.27098e-08
6.46039e-05
2.84136e-06
-2.80772e-08
6.59052e-05
3.81863e-06
-2.53918e-07
6.68591e-05
4.42447e-06
-5.67876e-07
6.73344e-05
4.90869e-06
-9.64027e-07
6.73006e-05
5.51671e-06
-1.45427e-06
6.67535e-05
6.43234e-06
-2.06189e-06
6.56616e-05
7.79756e-06
-2.80984e-06
6.39469e-05
9.75139e-06
-3.7209e-06
6.14455e-05
1.24769e-05
-4.81486e-06
5.78932e-05
1.62397e-05
-6.11104e-06
5.28037e-05
2.13875e-05
-7.58893e-06
4.5422e-05
2.85549e-05
-9.22219e-06
3.44224e-05
3.76653e-05
-1.06521e-05
1.82312e-05
4.79738e-05
-1.10125e-05
4.02819e-05
-6.48738e-06
6.32205e-05
7.16188e-08
6.95611e-07
6.4519e-05
1.60724e-08
1.63383e-06
6.58824e-05
-1.84748e-07
2.50825e-06
6.6999e-05
-4.73735e-07
3.2797e-06
6.7718e-05
-8.41139e-07
4.04626e-06
6.79963e-05
-1.29412e-06
4.94887e-06
6.78316e-05
-1.85066e-06
6.12765e-06
6.72114e-05
-2.5288e-06
7.72756e-06
6.60934e-05
-3.34461e-06
9.90786e-06
6.43592e-05
-4.31345e-06
1.29114e-05
6.18125e-05
-5.44345e-06
1.70643e-05
5.79943e-05
-6.72035e-06
2.29538e-05
5.22281e-05
-8.1001e-06
3.14151e-05
4.2692e-05
-9.31575e-06
4.35885e-05
2.72561e-05
-9.58844e-06
5.93037e-05
-5.83227e-06
6.48454e-05
5.01812e-05
1.2336e-05
3.524e-09
4.04326e-05
9.75715e-06
-4.32429e-08
3.35349e-05
6.86193e-06
-1.46967e-07
2.94348e-05
3.99972e-06
-2.83528e-07
2.69399e-05
2.31052e-06
-4.54455e-07
2.52342e-05
1.41639e-06
-6.66549e-07
2.37756e-05
1.038e-06
-9.30836e-07
2.22653e-05
9.27133e-07
-1.25447e-06
2.05174e-05
9.62974e-07
-1.6479e-06
1.8417e-05
1.06984e-06
-2.10942e-06
1.58554e-05
1.22797e-06
-2.65217e-06
1.2802e-05
1.37235e-06
-3.23139e-06
9.16286e-06
1.54092e-06
-3.86685e-06
5.22144e-06
1.49197e-06
-4.32257e-06
1.27314e-06
1.29888e-06
-4.40325e-06
-3.78827e-07
-2.64001e-06
6.47647e-05
1.00878e-05
-1.18327e-08
6.34931e-05
1.10214e-05
-1.05888e-07
6.10919e-05
9.18158e-06
-2.86044e-07
5.84482e-05
6.45354e-06
-5.22225e-07
5.59749e-05
4.45291e-06
-8.15465e-07
5.36383e-05
3.24477e-06
-1.17867e-06
5.12333e-05
2.71183e-06
-1.63297e-06
4.85253e-05
2.62475e-06
-2.19609e-06
4.5286e-05
2.84264e-06
-2.8885e-06
4.1302e-05
3.26351e-06
-3.71714e-06
3.63508e-05
3.85456e-06
-4.70249e-06
3.02552e-05
4.51456e-06
-5.79526e-06
2.28216e-05
5.27062e-06
-6.99876e-06
1.42472e-05
5.67957e-06
-7.96102e-06
5.31611e-06
5.487e-06
-8.14999e-06
2.01442e-06
-4.81577e-06
6.59791e-05
6.62476e-06
-1.58277e-08
6.76634e-05
9.3242e-06
-1.25774e-07
6.78516e-05
8.8985e-06
-3.25755e-07
6.68953e-05
7.19757e-06
-5.82918e-07
6.53246e-05
5.65944e-06
-9.00338e-07
6.33601e-05
4.65363e-06
-1.29367e-06
6.10193e-05
4.25546e-06
-1.78709e-06
5.81855e-05
4.35787e-06
-2.40155e-06
5.46711e-05
4.87581e-06
-3.16e-06
5.02494e-05
5.73248e-06
-4.0731e-06
4.4649e-05
6.91687e-06
-5.16242e-06
3.76095e-05
8.32189e-06
-6.38237e-06
2.88333e-05
9.98703e-06
-7.72776e-06
1.84111e-05
1.12771e-05
-8.82665e-06
7.17e-06
1.15097e-05
-9.04339e-06
5.98754e-06
-5.29758e-06
6.4773e-05
4.3698e-06
-1.19386e-08
6.68138e-05
7.2733e-06
-1.21355e-07
6.78866e-05
7.73415e-06
-3.20967e-07
6.78746e-05
7.00171e-06
-5.75755e-07
6.70647e-05
6.11128e-06
-8.8928e-07
6.56457e-05
5.52554e-06
-1.27767e-06
6.36824e-05
5.43301e-06
-1.76503e-06
6.11136e-05
5.84112e-06
-2.37237e-06
5.7788e-05
6.7397e-06
-3.12208e-06
5.34868e-05
8.10568e-06
-4.02577e-06
4.7918e-05
9.97868e-06
-5.10365e-06
4.07645e-05
1.22798e-05
-6.31434e-06
3.16312e-05
1.5104e-05
-7.64793e-06
2.05046e-05
1.76238e-05
-8.74303e-06
8.07195e-06
1.87731e-05
-8.94725e-06
1.09091e-05
-5.20617e-06
6.38945e-05
2.99739e-06
-2.98611e-09
6.56198e-05
5.54629e-06
-1.03031e-07
6.68466e-05
6.42838e-06
-2.93643e-07
6.72862e-05
6.37136e-06
-5.38382e-07
6.69997e-05
6.06247e-06
-8.39689e-07
6.60758e-05
5.93238e-06
-1.21246e-06
6.45557e-05
6.20751e-06
-1.67906e-06
6.23927e-05
6.97183e-06
-2.25905e-06
5.946e-05
8.28208e-06
-2.9726e-06
5.55499e-05
1.01822e-05
-3.831e-06
5.03623e-05
1.27838e-05
-4.85123e-06
4.35184e-05
1.60877e-05
-5.99711e-06
3.44939e-05
2.03153e-05
-7.25343e-06
2.30287e-05
2.45481e-05
-8.28782e-06
9.40591e-06
2.74896e-05
-8.46079e-06
1.73395e-05
-4.89401e-06
6.3438e-05
2.08631e-06
7.88066e-09
6.4861e-05
4.1325e-06
-7.86318e-08
6.60753e-05
5.15205e-06
-2.5613e-07
6.67576e-05
5.52136e-06
-4.87466e-07
6.68386e-05
5.67652e-06
-7.73121e-07
6.63276e-05
5.96607e-06
-1.12583e-06
6.52321e-05
6.61003e-06
-1.56539e-06
6.35054e-05
7.73647e-06
-2.10924e-06
6.10351e-05
9.45604e-06
-2.77458e-06
5.76211e-05
1.18875e-05
-3.5718e-06
5.29588e-05
1.52297e-05
-4.5135e-06
4.66016e-05
1.96233e-05
-5.5695e-06
3.78966e-05
2.54824e-05
-6.71796e-06
2.62519e-05
3.19778e-05
-7.66693e-06
1.13697e-05
3.7823e-05
-7.80253e-06
2.59546e-05
-4.49896e-06
6.3248e-05
1.37073e-06
2.02854e-08
6.45163e-05
2.88624e-06
-5.0134e-08
6.57373e-05
3.88906e-06
-2.11865e-07
6.65984e-05
4.5198e-06
-4.27413e-07
6.69734e-05
5.03222e-06
-6.94817e-07
6.68325e-05
5.67676e-06
-1.02398e-06
6.61695e-05
6.64259e-06
-1.43144e-06
6.49516e-05
8.07637e-06
-1.93186e-06
6.31018e-05
1.01234e-05
-2.53852e-06
6.0464e-05
1.29705e-05
-3.25996e-06
5.67919e-05
1.68934e-05
-4.10273e-06
5.16359e-05
2.22329e-05
-5.04251e-06
4.43029e-05
2.96413e-05
-6.04815e-06
3.35418e-05
3.89667e-05
-6.87992e-06
1.78644e-05
4.94523e-05
-6.96446e-06
4.13628e-05
-4.03121e-06
6.3194e-05
3.33375e-08
7.15042e-07
6.44365e-05
-1.97049e-08
1.67953e-06
6.57249e-05
-1.64239e-07
2.5801e-06
6.67563e-05
-3.62691e-07
3.37733e-06
6.73847e-05
-6.10507e-07
4.17319e-06
6.75681e-05
-9.1441e-07
5.11369e-06
6.7303e-05
-1.28744e-06
6.34446e-06
6.65762e-05
-1.74111e-06
8.01553e-06
6.53468e-05
-2.28452e-06
1.02926e-05
6.35041e-05
-2.92381e-06
1.34235e-05
6.08686e-05
-3.65909e-06
1.77446e-05
5.70126e-05
-4.47107e-06
2.38395e-05
5.13136e-05
-5.31988e-06
3.25601e-05
4.20086e-05
-6.02319e-06
4.49791e-05
2.70242e-05
-6.0719e-06
6.09202e-05
-3.62869e-06
6.61834e-05
5.01666e-05
1.2338e-05
-1.0882e-09
4.03884e-05