/*--------------------------------*- C++ -*----------------------------------*\
| =========                 |                                                 |
| \\      /  F ield         | OpenFOAM: The Open Source CFD Toolbox           |
|  \\    /   O peration     | Version:  v1912                                 |
|   \\  /    A nd           | Website:  www.openfoam.com                      |
|    \\/     M anipulation  |                                                 |
\*---------------------------------------------------------------------------*/
FoamFile
{
    version     2.0;
    format      ascii;
    class       volScalarField;
    location    "0.49/fluid";
    object      T;
}
// * * * * * * * * * * * * * * * * * * * * * * * * * * * * * * * * * * * * * //

dimensions      [0 0 0 1 0 0 0];


internalField   nonuniform List<scalar> 
14592
(
273.216
273.66
274.13
274.634
275.184
275.79
276.464
277.217
278.063
279.017
280.095
281.316
282.705
284.3
286.167
288.477
273.215
273.655
274.121
274.622
275.168
275.77
276.439
277.187
278.027
278.975
280.046
281.262
282.647
284.239
286.103
288.385
273.213
273.648
274.108
274.602
275.142
275.736
276.396
277.134
277.964
278.9
279.959
281.163
282.539
284.128
285.996
288.294
273.209
273.638
274.09
274.577
275.107
275.69
276.338
277.063
277.877
278.795
279.835
281.02
282.38
283.961
285.837
288.174
273.205
273.626
274.07
274.546
275.065
275.635
276.268
276.974
277.767
278.661
279.675
280.831
282.165
283.726
285.607
287.994
273.201
273.612
274.046
274.511
275.016
275.571
276.185
276.87
277.637
278.501
279.478
280.595
281.885
283.407
285.269
287.706
273.196
273.597
274.019
274.472
274.962
275.5
276.093
276.753
277.49
278.316
279.249
280.31
281.534
282.982
284.774
287.204
273.191
273.581
273.991
274.43
274.905
275.424
275.995
276.627
277.33
278.113
278.992
279.984
281.118
282.442
284.062
286.264
273.222
273.679
274.162
274.683
275.251
275.88
276.581
277.368
278.256
279.263
280.406
281.709
283.201
284.923
286.942
289.384
273.221
273.674
274.153
274.67
275.235
275.859
276.555
277.337
278.219
279.219
280.356
281.653
283.141
284.862
286.882
289.311
273.218
273.666
274.139
274.65
275.207
275.823
276.51
277.282
278.153
279.141
280.265
281.551
283.031
284.75
286.778
289.232
273.215
273.655
274.122
274.623
275.171
275.776
276.45
277.207
278.062
279.031
280.136
281.402
282.867
284.581
286.623
289.125
273.211
273.643
274.1
274.591
275.127
275.718
276.376
277.115
277.947
278.891
279.967
281.205
282.643
284.34
286.394
288.962
273.206
273.629
274.075
274.554
275.076
275.651
276.29
277.005
277.81
278.722
279.761
280.955
282.349
284.008
286.052
288.689
273.201
273.613
274.048
274.514
275.02
275.577
276.194
276.883
277.655
278.527
279.518
280.654
281.977
283.559
285.536
288.188
273.196
273.596
274.019
274.471
274.961
275.498
276.091
276.75
277.487
278.313
279.245
280.306
281.531
282.978
284.771
287.201
273.228
273.696
274.192
274.728
275.314
275.963
276.689
277.506
278.431
279.482
280.679
282.044
283.607
285.399
287.463
289.85
273.227
273.691
274.183
274.715
275.296
275.941
276.662
277.474
278.393
279.437
280.627
281.987
283.546
285.338
287.405
289.786
273.224
273.683
274.169
274.694
275.268
275.904
276.616
277.417
278.324
279.356
280.534
281.882
283.433
285.225
287.304
289.714
273.22
273.672
274.151
274.666
275.23
275.855
276.554
277.34
278.23
279.242
280.4
281.729
283.266
285.054
287.15
289.612
273.216
273.659
274.128
274.633
275.185
275.795
276.477
277.243
278.11
279.097
280.225
281.525
283.035
284.809
286.921
289.453
273.211
273.644
274.102
274.595
275.132
275.726
276.387
277.13
277.968
278.921
280.01
281.265
282.73
284.468
286.576
289.185
273.206
273.628
274.074
274.553
275.074
275.649
276.287
277.002
277.806
278.717
279.756
280.95
282.343
284.003
286.048
288.686
273.201
273.611
274.044
274.508
275.013
275.566
276.18
276.864
277.63
278.493
279.47
280.586
281.876
283.398
285.262
287.701
273.233
273.712
274.219
274.768
275.369
276.036
276.783
277.626
278.582
279.669
280.907
282.317
283.922
285.744
287.803
290.103
273.232
273.706
274.21
274.754
275.351
276.013
276.756
277.593
278.543
279.623
280.854
282.259
283.861
285.684
287.746
290.044
273.229
273.698
274.195
274.733
275.322
275.976
276.708
277.535
278.473
279.54
280.758
282.151
283.746
285.571
287.646
289.973
273.225
273.687
274.176
274.705
275.283
275.925
276.644
277.455
278.375
279.423
280.621
281.995
283.576
285.398
287.493
289.874
273.221
273.674
274.153
274.67
275.237
275.864
276.565
277.356
278.252
279.273
280.441
281.785
283.34
285.15
287.264
289.717
273.216
273.659
274.127
274.631
275.182
275.792
276.473
277.238
278.105
279.091
280.219
281.518
283.028
284.803
286.916
289.45
273.211
273.642
274.098
274.588
275.122
275.712
276.369
277.106
277.938
278.88
279.956
281.193
282.631
284.329
286.384
288.955
273.205
273.624
274.067
274.542
275.059
275.627
276.258
276.963
277.755
278.648
279.66
280.816
282.149
283.711
285.593
287.985
273.237
273.725
274.242
274.801
275.415
276.097
276.862
277.726
278.706
279.82
281.087
282.527
284.156
285.988
288.024
290.251
273.236
273.719
274.233
274.788
275.397
276.074
276.834
277.692
278.666
279.773
281.034
282.468
284.095
285.927
287.968
290.193
273.233
273.711
274.218
274.766
275.367
276.036
276.785
277.632
278.594
279.688
280.936
282.359
283.979
285.813
287.869
290.123
273.229
273.699
274.198
274.737
275.328
275.984
276.72
277.551
278.494
279.568
280.796
282.199
283.806
285.639
287.716
290.025
273.225
273.686
274.175
274.702
275.28
275.921
276.639
277.449
278.368
279.415
280.612
281.986
283.566
285.389
287.485
289.868
273.22
273.67
274.147
274.662
275.224
275.847
276.544
277.329
278.217
279.228
280.385
281.713
283.25
285.038
287.136
289.603
273.214
273.653
274.118
274.617
275.163
275.766
276.438
277.193
278.045
279.013
280.116
281.382
282.846
284.56
286.605
289.113
273.208
273.635
274.086
274.57
275.097
275.678
276.324
277.046
277.857
278.774
279.812
280.996
282.356
283.936
285.815
288.158
273.241
273.735
274.26
274.828
275.451
276.144
276.923
277.802
278.8
279.934
281.221
282.679
284.32
286.151
288.165
290.339
273.239
273.729
274.25
274.814
275.433
276.121
276.894
277.768
278.759
279.886
281.167
282.619
284.258
286.091
288.11
290.282
273.236
273.721
274.235
274.791
275.402
276.082
276.845
277.707
278.686
279.8
281.068
282.509
284.142
285.976
288.01
290.213
273.233
273.709
274.215
274.762
275.362
276.029
276.778
277.624
278.584
279.678
280.925
282.348
283.967
285.801
287.857
290.114
273.228
273.695
274.191
274.726
275.313
275.965
276.696
277.52
278.456
279.522
280.739
282.131
283.725
285.55
287.627
289.958
273.223
273.68
274.164
274.685
275.257
275.89
276.599
277.398
278.303
279.332
280.508
281.855
283.406
285.197
287.278
289.694
273.217
273.662
274.133
274.64
275.194
275.807
276.491
277.259
278.128
279.113
280.235
281.519
282.998
284.717
286.747
289.208
273.211
273.644
274.101
274.592
275.128
275.718
276.375
277.109
277.936
278.869
279.926
281.128
282.503
284.091
285.961
288.265
273.243
273.742
274.272
274.845
275.476
276.177
276.964
277.854
278.863
280.009
281.309
282.777
284.424
286.252
288.249
290.389
273.241
273.736
274.262
274.831
275.457
276.153
276.935
277.819
278.821
279.961
281.254
282.717
284.362
286.191
288.194
290.333
273.238
273.727
274.247
274.809
275.426
276.114
276.885
277.758
278.748
279.874
281.154
282.606
284.245
286.077
288.094
290.264
273.235
273.716
274.227
274.779
275.386
276.06
276.818
277.674
278.645
279.751
281.01
282.444
284.069
285.901
287.941
290.166
273.23
273.702
274.202
274.743
275.336
275.995
276.734
277.569
278.515
279.593
280.822
282.225
283.826
285.649
287.711
290.01
273.225
273.686
274.175
274.702
275.279
275.92
276.636
277.445
278.36
279.401
280.589
281.947
283.505
285.296
287.362
289.747
273.219
273.668
274.144
274.656
275.216
275.835
276.527
277.304
278.183
279.179
280.313
281.608
283.095
284.814
286.832
289.264
273.213
273.649
274.111
274.607
275.148
275.745
276.409
277.153
277.989
278.933
280.001
281.214
282.597
284.188
286.049
288.329
273.244
273.745
274.278
274.855
275.488
276.193
276.985
277.88
278.894
280.047
281.352
282.825
284.474
286.3
288.288
290.413
273.242
273.74
274.268
274.84
275.469
276.169
276.956
277.844
278.853
279.998
281.297
282.765
284.412
286.239
288.233
290.356
273.24
273.731
274.253
274.818
275.438
276.129
276.906
277.783
278.779
279.911
281.197
282.654
284.295
286.125
288.134
290.288
273.236
273.719
274.233
274.788
275.398
276.076
276.838
277.699
278.676
279.787
281.053
282.491
284.119
285.949
287.98
290.189
273.231
273.705
274.208
274.752
275.348
276.011
276.754
277.593
278.545
279.629
280.863
282.271
283.875
285.696
287.75
290.034
273.226
273.689
274.18
274.71
275.29
275.934
276.655
277.468
278.389
279.436
280.629
281.992
283.553
285.342
287.401
289.771
273.22
273.671
274.149
274.664
275.227
275.85
276.545
277.327
278.211
279.213
280.352
281.652
283.142
284.861
286.872
289.29
273.214
273.652
274.116
274.615
275.159
275.759
276.427
277.174
278.015
278.965
280.039
281.257
282.643
284.234
286.091
288.358
273.182
273.555
273.946
274.359
274.799
275.27
275.774
276.313
276.886
277.49
278.117
278.756
279.389
279.994
280.543
281.007
273.181
273.552
273.94
274.351
274.788
275.256
275.757
276.293
276.863
277.463
278.086
278.72
279.349
279.951
280.498
280.959
273.179
273.546
273.93
274.336
274.769
275.231
275.727
276.257
276.819
277.412
278.028
278.654
279.276
279.87
280.411
280.868
273.177
273.538
273.917
274.317
274.743
275.198
275.686
276.206
276.76
277.342
277.946
278.561
279.171
279.754
280.285
280.734
273.174
273.529
273.901
274.294
274.711
275.158
275.635
276.144
276.685
277.253
277.843
278.443
279.037
279.606
280.123
280.562
273.17
273.519
273.883
274.267
274.675
275.111
275.576
276.072
276.598
277.15
277.722
278.303
278.878
279.428
279.929
280.353
273.167
273.507
273.862
274.237
274.635
275.059
275.512
275.993
276.502
277.035
277.587
278.146
278.699
279.227
279.707
280.113
273.163
273.494
273.841
274.206
274.593
275.005
275.443
275.908
276.399
276.912
277.441
277.977
278.505
279.008
279.464
279.851
273.183
273.558
273.951
274.367
274.81
275.286
275.796
276.342
276.925
277.542
278.184
278.842
279.498
280.129
280.706
281.195
273.182
273.554
273.944
274.358
274.798
275.271
275.778
276.321
276.9
277.512
278.151
278.804
279.456
280.084
280.658
281.145
273.18
273.548
273.934
274.343
274.779
275.245
275.747
276.283
276.856
277.46
278.091
278.736
279.38
280.001
280.568
281.051
273.178
273.541
273.921
274.323
274.752
275.212
275.705
276.232
276.795
277.388
278.007
278.641
279.273
279.881
280.439
280.914
273.175
273.531
273.905
274.3
274.72
275.171
275.653
276.169
276.719
277.298
277.902
278.519
279.135
279.729
280.273
280.736
273.171
273.521
273.886
274.273
274.684
275.123
275.594
276.096
276.63
277.193
277.778
278.376
278.972
279.546
280.071
280.52
273.167
273.509
273.866
274.243
274.644
275.071
275.528
276.015
276.532
277.076
277.64
278.215
278.787
279.336
279.84
280.269
273.163
273.496
273.844
274.211
274.601
275.016
275.459
275.929
276.428
276.95
277.491
278.04
278.586
279.108
279.586
279.993
273.185
273.565
273.963
274.384
274.835
275.32
275.842
276.403
277.006
277.646
278.32
279.016
279.718
280.402
281.036
281.579
273.184
273.561
273.956
274.375
274.822
275.304
275.822
276.381
276.979
277.615
278.285
278.976
279.674
280.355
280.986
281.527
273.182
273.555
273.945
274.359
274.802
275.278
275.79
276.342
276.933
277.561
278.222
278.905
279.594
280.267
280.892
281.429
273.18
273.547
273.931
274.339
274.775
275.243
275.747
276.289
276.869
277.486
278.134
278.805
279.482
280.142
280.757
281.286
273.177
273.537
273.915
274.315
274.742
275.201
275.694
276.224
276.79
277.393
278.025
278.678
279.337
279.981
280.58
281.097
273.173
273.526
273.896
274.287
274.705
275.152
275.633
276.148
276.699
277.283
277.895
278.527
279.165
279.787
280.365
280.865
273.169
273.514
273.875
274.257
274.663
275.099
275.565
276.065
276.597
277.161
277.75
278.357
278.967
279.562
280.115
280.592
273.165
273.501
273.853
274.225
274.62
275.042
275.493
275.976
276.489
277.029
277.594
278.172
278.752
279.316
279.838
280.287
273.189
273.575
273.981
274.411
274.873
275.371
275.91
276.494
277.125
277.801
278.52
279.274
280.046
280.813
281.538
282.17
273.188
273.571
273.973
274.401
274.86
275.355
275.89
276.47
277.097
277.769
278.483
279.232
280
280.763
281.485
282.116
273.186
273.564
273.962
274.385
274.838
275.327
275.857
276.429
277.048
277.711
278.417
279.156
279.915
280.671
281.386
282.013
273.183
273.556
273.948
274.364
274.81
275.291
275.811
276.374
276.981
277.633
278.325
279.05
279.795
280.538
281.243
281.861
273.18
273.546
273.931
274.339
274.776
275.247
275.756
276.306
276.899
277.534
278.209
278.915
279.641
280.365
281.053
281.658
273.176
273.535
273.912
274.311
274.738
275.197
275.693
276.227
276.803
277.418
278.071
278.754
279.455
280.153
280.818
281.403
273.172
273.523
273.89
274.279
274.695
275.142
275.622
276.14
276.696
277.289
277.916
278.57
279.24
279.906
280.539
281.096
273.168
273.51
273.868
274.246
274.65
275.083
275.548
276.047
276.581
277.149
277.748
278.37
279.004
279.631
280.224
280.745
273.193
273.588
274.004
274.447
274.923
275.438
275.999
276.611
277.277
278
278.778
279.606
280.473
281.355
282.212
282.982
273.192
273.584
273.997
274.436
274.909
275.421
275.978
276.586
277.248
277.966
278.739
279.562
280.424
281.303
282.158
282.926
273.19
273.578
273.985
274.419
274.886
275.392
275.943
276.543
277.196
277.905
278.668
279.482
280.335
281.205
282.054
282.819
273.187
273.569
273.97
274.398
274.857
275.355
275.896
276.485
277.126
277.821
278.57
279.369
280.207
281.063
281.901
282.659
273.184
273.559
273.953
274.372
274.822
275.309
275.838
276.413
277.039
277.717
278.446
279.224
280.04
280.876
281.696
282.44
273.18
273.547
273.933
274.342
274.782
275.256
275.771
276.33
276.937
277.593
278.299
279.049
279.837
280.643
281.435
282.156
273.176
273.534
273.91
274.31
274.737
275.198
275.697
276.238
276.823
277.454
278.131
278.849
279.599
280.366
281.118
281.803
273.171
273.521
273.887
274.275
274.69
275.137
275.619
276.139
276.701
277.304
277.948
278.628
279.334
280.052
280.751
281.385
273.198
273.604
274.032
274.489
274.981
275.517
276.104
276.749
277.457
278.233
279.081
280
280.983
282.015
283.056
284.031
273.197
273.6
274.024
274.478
274.967
275.499
276.082
276.722
277.426
278.197
279.039
279.953
280.932
281.96
282.999
283.974
273.195
273.593
274.012
274.46
274.943
275.469
276.045
276.677
277.371
278.133
278.965
279.868
280.837
281.857
282.891
283.864
273.192
273.584
273.997
274.438
274.913
275.43
275.995
276.616
277.297
278.044
278.86
279.747
280.7
281.706
282.73
283.699
273.189
273.574
273.979
274.411
274.876
275.382
275.935
276.54
277.204
277.932
278.727
279.591
280.521
281.504
282.51
283.468
273.185
273.562
273.958
274.38
274.834
275.327
275.864
276.452
277.096
277.8
278.568
279.401
280.297
281.247
282.222
283.155
273.18
273.548
273.935
274.346
274.787
275.266
275.786
276.354
276.974
277.65
278.385
279.18
280.033
280.934
281.858
282.745
273.176
273.534
273.91
274.31
274.738
275.201
275.703
276.249
276.843
277.488
278.185
278.935
279.733
280.57
281.421
282.233
273.204
273.622
274.063
274.535
275.046
275.605
276.22
276.9
277.654
278.489
279.414
280.434
281.552
282.763
284.046
285.33
273.203
273.618
274.055
274.524
275.031
275.586
276.197
276.873
277.621
278.451
279.37
280.384
281.498
282.706
283.988
285.27
273.2
273.611
274.043
274.506
275.007
275.555
276.158
276.825
277.564
278.383
279.291
280.294
281.398
282.599
283.878
285.162
273.197
273.601
274.027
274.482
274.975
275.513
276.106
276.76
277.485
278.289
279.18
280.166
281.253
282.441
283.713
284.999
273.194
273.59
274.008
274.454
274.936
275.463
276.042
276.68
277.387
278.17
279.037
279.998
281.059
282.225
283.481
284.766
273.19
273.578
273.986
274.421
274.892
275.405
275.967
276.587
277.271
278.028
278.865
279.792
280.816
281.943
283.167
284.433
273.185
273.564
273.962
274.386
274.843
275.341
275.885
276.483
277.141
277.867
278.667
279.549
280.521
281.59
282.752
283.964
273.18
273.549
273.936
274.348
274.791
275.272
275.797
276.371
277
277.691
278.448
279.277
280.183
281.169
282.229
283.324
273.21
273.641
274.096
274.585
275.115
275.697
276.342
277.059
277.859
278.755
279.758
280.882
282.141
283.551
285.127
286.862
273.209
273.636
274.088
274.573
275.099
275.678
276.318
277.03
277.825
278.715
279.712
280.83
282.085
283.492
285.066
286.793
273.206
273.629
274.075
274.554
275.074
275.645
276.277
276.98
277.765
278.643
279.629
280.736
281.98
283.382
284.956
286.691
273.203
273.619
274.058
274.529
275.041
275.602
276.222
276.912
277.682
278.543
279.511
280.599
281.828
283.218
284.792
286.543
273.2
273.608
274.038
274.5
275
275.549
276.154
276.827
277.577
278.417
279.359
280.421
281.622
282.991
284.557
286.326
273.195
273.595
274.015
274.466
274.954
275.487
276.076
276.728
277.454
278.265
279.175
280.198
281.359
282.688
284.226
285.998
273.191
273.58
273.99
274.428
274.902
275.42
275.989
276.618
277.315
278.092
278.96
279.934
281.035
282.296
283.764
285.487
273.185
273.565
273.963
274.389
274.848
275.348
275.895
276.499
277.165
277.903
278.722
279.634
280.656
281.813
283.142
284.69
273.185
273.564
273.963
274.388
274.847
275.346
275.894
276.497
277.163
277.9
278.719
279.631
280.653
281.81
283.139
284.688
273.18
273.548
273.935
274.347
274.789
275.27
275.794
276.367
276.996
277.686
278.443
279.272
280.178
281.164
282.224
283.319
273.175
273.533
273.909
274.308
274.735
275.197
275.699
276.245
276.838
277.482
278.179
278.928
279.726
280.563
281.415
282.227
273.171
273.52
273.885
274.273
274.687
275.133
275.614
276.134
276.695
277.298
277.941
278.62
279.326
280.044
280.744
281.378
273.167
273.509
273.866
274.244
274.647
275.079
275.542
276.041
276.574
277.142
277.74
278.361
278.995
279.622
280.216
280.738
273.165
273.5
273.851
274.222
274.616
275.037
275.488
275.969
276.481
277.021
277.585
278.163
278.743
279.307
279.829
280.279
273.163
273.495
273.842
274.208
274.597
275.011
275.453
275.923
276.42
276.941
277.482
278.031
278.576
279.099
279.577
279.985
273.162
273.493
273.839
274.203
274.589
275
275.437
275.901
276.391
276.904
277.432
277.967
278.495
278.998
279.455
279.843
273.19
273.579
273.989
274.427
274.9
275.416
275.985
276.613
277.31
278.086
278.954
279.927
281.029
282.29
283.758
285.482
273.185
273.563
273.96
274.383
274.84
275.336
275.88
276.477
277.134
277.859
278.658
279.54
280.513
281.582
282.744
283.956
273.18
273.547
273.932
274.343
274.783
275.261
275.78
276.347
276.966
277.641
278.375
279.17
280.022
280.923
281.848
282.736
273.175
273.533
273.908
274.306
274.733
275.193
275.69
276.23
276.814
277.444
278.12
278.837
279.588
280.354
281.107
281.793
273.171
273.521
273.888
274.276
274.69
275.136
275.615
276.131
276.686
277.278
277.904
278.558
279.228
279.894
280.527
281.086
273.169
273.512
273.872
274.253
274.658
275.092
275.557
276.056
276.587
277.15
277.738
278.344
278.955
279.55
280.103
280.581
273.167
273.507
273.863
274.239
274.638
275.065
275.52
276.006
276.522
277.064
277.627
278.202
278.774
279.324
279.828
280.258
273.166
273.505
273.86
274.233
274.63
275.053
275.504
275.983
276.491
277.024
277.574
278.133
278.686
279.214
279.695
280.103
273.195
273.593
274.013
274.462
274.949
275.482
276.069
276.72
277.445
278.255
279.163
280.187
281.347
282.677
284.215
285.99
273.189
273.576
273.983
274.418
274.887
275.398
275.959
276.577
277.26
278.016
278.852
279.778
280.802
281.93
283.154
284.422
273.184
273.56
273.955
274.375
274.828
275.319
275.855
276.442
277.084
277.787
278.554
279.386
280.282
281.232
282.207
283.142
273.179
273.545
273.929
274.337
274.775
275.248
275.762
276.319
276.925
277.579
278.284
279.033
279.821
280.627
281.42
282.142
273.175
273.533
273.908
274.306
274.731
275.189
275.683
276.216
276.79
277.404
278.055
278.738
279.438
280.137
280.802
281.388
273.172
273.524
273.892
274.282
274.698
275.144
275.622
276.136
276.685
277.268
277.879
278.511
279.148
279.77
280.349
280.85
273.17
273.518
273.883
274.267
274.677
275.115
275.583
276.084
276.617
277.178
277.762
278.359
278.955
279.529
280.055
280.505
273.17
273.516
273.879
274.262
274.668
275.102
275.566
276.06
276.584
277.135
277.706
278.286
278.861
279.412
279.913
280.339
273.199
273.606
274.035
274.495
274.993
275.54
276.144
276.815
277.563
278.401
279.342
280.403
281.604
282.973
284.54
286.312
273.193
273.588
274.004
274.448
274.929
275.453
276.03
276.666
277.371
278.152
279.018
279.978
281.039
282.205
283.462
284.748
273.188
273.571
273.975
274.405
274.868
275.372
275.922
276.525
277.188
277.914
278.707
279.57
280.499
281.483
282.49
283.449
273.183
273.556
273.948
274.365
274.813
275.298
275.825
276.398
277.022
277.698
278.426
279.202
280.018
280.854
281.675
282.421
273.179
273.544
273.927
274.333
274.768
275.236
275.743
276.291
276.881
277.515
278.188
278.893
279.619
280.343
281.032
281.639
273.176
273.534
273.91
274.308
274.733
275.19
275.68
276.208
276.773
277.373
278.004
278.656
279.315
279.959
280.56
281.078
273.174
273.529
273.9
274.293
274.712
275.159
275.64
276.154
276.701
277.279
277.881
278.498
279.113
279.707
280.252
280.718
273.173
273.526
273.896
274.287
274.703
275.146
275.621
276.129
276.667
277.234
277.822
278.421
279.015
279.584
280.103
280.544
273.202
273.616
274.053
274.522
275.03
275.588
276.206
276.893
277.66
278.52
279.486
280.573
281.801
283.191
284.766
286.521
273.196
273.598
274.021
274.474
274.964
275.5
276.089
276.741
277.463
278.264
279.153
280.138
281.224
282.412
283.685
284.974
273.191
273.581
273.991
274.429
274.902
275.416
275.978
276.595
277.274
278.018
278.833
279.718
280.671
281.677
282.702
283.673
273.186
273.566
273.965
274.389
274.846
275.34
275.878
276.464
277.103
277.796
278.543
279.34
280.177
281.034
281.873
282.633
273.182
273.553
273.942
274.356
274.799
275.277
275.794
276.353
276.958
277.607
278.297
279.021
279.766
280.509
281.215
281.836
273.179
273.543
273.925
274.33
274.763
275.228
275.729
276.268
276.846
277.461
278.107
278.776
279.453
280.114
280.73
281.261
273.177
273.537
273.915
274.315
274.741
275.197
275.687
276.212
276.772
277.363
277.98
278.612
279.244
279.854
280.413
280.891
273.176
273.535
273.911
274.308
274.731
275.184
275.668
276.186
276.737
277.317
277.919
278.533
279.143
279.727
280.26
280.712
273.205
273.625
274.068
274.543
275.059
275.626
276.254
276.953
277.735
278.611
279.594
280.698
281.942
283.343
284.918
286.655
273.199
273.606
274.035
274.494
274.992
275.536
276.135
276.798
277.533
278.349
279.255
280.256
281.359
282.56
283.839
285.125
273.193
273.589
274.005
274.449
274.928
275.45
276.022
276.65
277.34
278.099
278.928
279.829
280.798
281.818
282.853
283.828
273.188
273.573
273.977
274.408
274.871
275.373
275.919
276.516
277.165
277.871
278.632
279.444
280.296
281.166
282.017
282.784
273.184
273.56
273.954
274.373
274.823
275.308
275.833
276.402
277.017
277.678
278.381
279.119
279.877
280.633
281.351
281.981
273.181
273.55
273.937
274.348
274.787
275.259
275.767
276.315
276.903
277.528
278.187
278.868
279.557
280.231
280.858
281.398
273.179
273.544
273.926
274.331
274.764
275.227
275.724
276.258
276.827
277.429
278.057
278.701
279.345
279.966
280.536
281.022
273.178
273.542
273.922
274.325
274.754
275.213
275.705
276.231
276.791
277.381
277.994
278.62
279.241
279.836
280.379
280.839
273.207
273.63
274.077
274.557
275.079
275.652
276.287
276.995
277.785
278.671
279.665
280.781
282.034
283.439
285.011
286.736
273.201
273.611
274.045
274.508
275.01
275.56
276.166
276.837
277.581
278.407
279.322
280.334
281.446
282.654
283.936
285.218
273.195
273.594
274.014
274.462
274.946
275.473
276.051
276.687
277.385
278.153
278.992
279.903
280.881
281.909
282.949
283.926
273.19
273.578
273.986
274.42
274.888
275.395
275.948
276.551
277.208
277.922
278.692
279.513
280.375
281.253
282.11
282.882
273.186
273.565
273.963
274.386
274.839
275.329
275.86
276.436
277.058
277.726
278.438
279.184
279.952
280.716
281.44
282.075
273.182
273.555
273.945
274.359
274.803
275.279
275.793
276.347
276.941
277.574
278.241
278.931
279.628
280.31
280.943
281.489
273.18
273.548
273.934
274.343
274.779
275.247
275.75
276.289
276.864
277.473
278.109
278.761
279.412
280.041
280.618
281.11
273.179
273.546
273.93
274.337
274.77
275.233
275.73
276.262
276.828
277.425
278.045
278.679
279.307
279.91
280.459
280.925
273.208
273.633
274.082
274.565
275.089
275.665
276.304
277.015
277.811
278.702
279.701
280.822
282.078
283.486
285.056
286.774
273.202
273.614
274.049
274.515
275.02
275.573
276.182
276.857
277.605
278.436
279.356
280.373
281.49
282.7
283.982
285.262
273.196
273.596
274.018
274.468
274.955
275.485
276.066
276.705
277.408
278.18
279.024
279.94
280.923
281.954
282.996
283.974
273.191
273.58
273.99
274.427
274.897
275.406
275.962
276.568
277.23
277.948
278.722
279.548
280.414
281.297
282.156
282.93
273.186
273.567
273.967
274.392
274.848
275.34
275.874
276.453
277.078
277.751
278.466
279.217
279.989
280.757
281.485
282.122
273.183
273.557
273.949
274.365
274.811
275.29
275.806
276.363
276.961
277.598
278.268
278.962
279.664
280.349
280.986
281.534
273.181
273.551
273.938
274.349
274.787
275.257
275.763
276.305
276.883
277.496
278.135
278.791
279.447
280.079
280.659
281.154
273.18
273.549
273.934
274.343
274.777
275.243
275.743
276.277
276.847
277.447
278.071
278.708
279.341
279.947
280.5
280.968
273.158
273.482
273.82
274.175
274.551
274.95
275.373
275.822
276.294
276.786
277.292
277.802
278.303
278.779
279.211
279.576
273.154
273.47
273.799
274.144
274.509
274.895
275.305
275.737
276.191
276.662
277.144
277.628
278.103
278.552
278.957
279.3
273.151
273.458
273.779
274.115
274.47
274.844
275.24
275.657
276.093
276.544
277.004
277.464
277.912
278.335
278.716
279.036
273.147
273.448
273.761
274.089
274.435
274.799
275.183
275.585
276.005
276.438
276.877
277.315
277.74
278.139
278.497
278.797
273.145
273.44
273.747
274.068
274.405
274.761
275.134
275.525
275.931
276.348
276.77
277.189
277.593
277.972
278.31
278.594
273.143
273.433
273.735
274.052
274.383
274.732
275.097
275.479
275.874
276.279
276.687
277.091
277.479
277.842
278.164
278.435
273.141
273.429
273.729
274.041
274.369
274.713
275.073
275.448
275.836
276.232
276.631
277.024
277.402
277.753
278.065
278.326
273.141
273.428
273.726
274.037
274.363
274.705
275.062
275.434
275.818
276.21
276.604
276.992
277.364
277.709
278.016
278.272
273.159
273.484
273.823
274.18
274.558
274.96
275.388
275.842
276.32
276.821
277.337
277.86
278.377
278.87
279.32
279.702
273.155
273.471
273.801
274.148
274.516
274.905
275.318
275.755
276.215
276.693
277.185
277.681
278.168
278.632
279.053
279.41
273.151
273.46
273.781
274.119
274.476
274.853
275.253
275.674
276.115
276.573
277.041
277.51
277.97
278.405
278.798
279.131
273.148
273.449
273.764
274.093
274.44
274.807
275.194
275.601
276.026
276.464
276.911
277.357
277.791
278.2
278.568
278.879
273.145
273.441
273.749
274.072
274.411
274.769
275.145
275.54
275.95
276.372
276.801
277.226
277.639
278.026
278.372
278.664
273.143
273.434
273.738
274.055
274.389
274.74
275.108
275.493
275.892
276.302
276.715
277.125
277.52
277.89
278.22
278.497
273.142
273.43
273.731
274.045
274.375
274.721
275.084
275.462
275.854
276.254
276.658
277.057
277.441
277.798
278.116
278.383
273.141
273.429
273.728
274.041
274.369
274.713
275.073
275.448
275.836
276.232
276.631
277.024
277.402
277.753
278.065
278.326
273.161
273.488
273.831
274.192
274.576
274.984
275.42
275.885
276.377
276.894
277.432
277.98
278.528
279.057
279.544
279.963
273.157
273.476
273.809
274.16
274.532
274.928
275.349
275.796
276.267
276.761
277.271
277.789
278.303
278.797
279.249
279.636
273.153
273.464
273.789
274.13
274.492
274.875
275.281
275.711
276.163
276.634
277.118
277.607
278.089
278.549
278.968
279.324
273.149
273.454
273.771
274.104
274.455
274.828
275.221
275.636
276.07
276.52
276.981
277.443
277.896
278.325
278.714
279.043
273.147
273.445
273.756
274.082
274.425
274.788
275.171
275.572
275.992
276.424
276.865
277.304
277.732
278.136
278.499
278.806
273.144
273.438
273.744
274.065
274.403
274.758
275.132
275.524
275.931
276.35
276.775
277.197
277.605
277.989
278.332
278.621
273.143
273.434
273.738
274.055
274.389
274.739
275.108
275.492
275.892
276.301
276.715
277.124
277.52
277.889
278.219
278.496
273.143
273.433
273.735
274.051
274.383
274.731
275.097
275.478
275.874
276.278
276.686
277.09
277.479
277.841
278.164
278.434
273.163
273.496
273.845
274.213
274.604
275.023
275.471
275.951
276.463
277.005
277.574
278.161
278.755
279.339
279.888
280.366
273.159
273.483
273.822
274.18
274.559
274.964
275.397
275.858
276.347
276.863
277.4
277.952
278.506
279.045
279.547
279.982
273.155
273.471
273.801
274.149
274.517
274.909
275.326
275.769
276.237
276.727
277.235
277.753
278.268
278.765
279.223
279.617
273.152
273.461
273.783
274.121
274.48
274.86
275.263
275.69
276.138
276.606
277.087
277.573
278.053
278.513
278.932
279.29
273.149
273.452
273.767
274.099
274.448
274.819
275.21
275.623
276.055
276.503
276.961
277.421
277.872
278.3
278.687
279.016
273.147
273.445
273.756
274.082
274.425
274.788
275.17
275.572
275.991
276.424
276.864
277.304
277.732
278.135
278.498
278.805
273.145
273.441
273.749
274.071
274.411
274.768
275.145
275.539
275.949
276.371
276.799
277.225
277.638
278.025
278.371
278.663
273.145
273.439
273.746
274.067
274.405
274.76
275.133
275.524
275.93
276.347
276.769
277.187
277.592
277.971
278.309
278.593
273.167
273.507
273.863
274.24
274.642
275.074
275.538
276.038
276.575
277.149
277.758
278.395
279.053
279.714
280.351
280.922
273.162
273.494
273.84
274.206
274.595
275.012
275.459
275.939
276.451
276.995
277.567
278.163
278.77
279.373
279.945
280.451
273.158
273.481
273.818
274.174
274.551
274.954
275.385
275.844
276.333
276.848
277.387
277.941
278.5
279.048
279.56
280.006
273.155
273.47
273.799
274.145
274.512
274.902
275.318
275.76
276.227
276.716
277.224
277.741
278.257
278.756
279.217
279.614
273.152
273.46
273.782
274.121
274.479
274.859
275.262
275.689
276.137
276.605
277.086
277.572
278.053
278.512
278.931
279.289
273.149
273.453
273.77
274.103
274.455
274.827
275.22
275.635
276.069
276.519
276.979
277.442
277.895
278.324
278.712
279.042
273.148
273.449
273.763
274.093
274.44
274.806
275.193
275.6
276.024
276.462
276.909
277.355