/*--------------------------------*- C++ -*----------------------------------*\
| =========                 |                                                 |
| \\      /  F ield         | OpenFOAM: The Open Source CFD Toolbox           |
|  \\    /   O peration     | Version:  v1912                                 |
|   \\  /    A nd           | Website:  www.openfoam.com                      |
|    \\/     M anipulation  |                                                 |
\*---------------------------------------------------------------------------*/
FoamFile
{
    version     2.0;
    format      ascii;
    class       volVectorField;
    location    "0.01/solid";
    object      D;
}
// * * * * * * * * * * * * * * * * * * * * * * * * * * * * * * * * * * * * * //

dimensions      [0 1 0 0 0 0 0];


internalField   nonuniform List<vector> 
256
(
(-1.5104e-24 4.65668e-22 6.78614e-23)
(-3.19568e-22 2.21538e-23 -5.73762e-22)
(3.66054e-23 -2.18018e-22 -4.03308e-22)
(5.35924e-22 -4.89502e-22 -5.30137e-22)
(4.4779e-22 -4.89036e-22 1.58134e-22)
(-6.24616e-22 3.03807e-22 -8.82011e-23)
(-5.00763e-22 5.4451e-22 -7.88677e-22)
(7.06944e-22 6.49744e-22 -8.7255e-22)
(-2.59877e-22 6.65648e-23 -3.65145e-22)
(1.41858e-22 8.98776e-23 -2.06428e-22)
(-2.99837e-22 4.92146e-22 1.2326e-22)
(-3.9156e-22 1.04301e-21 -7.8759e-22)
(1.21928e-22 5.93717e-22 7.1368e-22)
(-8.19046e-22 5.67895e-22 3.87179e-22)
(-7.01174e-22 3.40799e-22 -1.18837e-22)
(-4.28588e-22 7.95019e-22 -4.49417e-22)
(1.70371e-22 -1.06533e-21 9.91782e-22)
(-8.77978e-22 -5.0271e-24 1.09293e-21)
(-1.33514e-21 7.58256e-22 3.67391e-22)
(-1.20351e-21 6.44696e-22 -5.38477e-22)
(-1.20759e-21 -1.19997e-21 3.93102e-22)
(-7.26158e-22 -4.68213e-22 4.85686e-22)
(-1.39186e-21 2.38294e-22 -2.48241e-23)
(-1.71657e-21 5.62423e-22 -1.17891e-21)
(-1.82955e-21 3.86401e-22 5.79288e-22)
(-1.32372e-21 6.32272e-23 2.63586e-22)
(-1.64089e-21 1.21286e-22 5.34793e-23)
(-1.84407e-21 8.85341e-22 -1.30442e-21)
(-1.51776e-21 3.09405e-22 1.47661e-21)
(-2.05677e-21 2.46456e-22 5.7316e-22)
(-1.84077e-21 2.83968e-22 -2.44131e-22)
(-2.4109e-21 4.80007e-22 -1.26781e-21)
(-4.13927e-22 -6.81466e-23 -6.65062e-22)
(-7.72311e-23 -2.09057e-22 -2.69382e-22)
(3.21909e-22 -1.76294e-22 -3.26419e-22)
(3.24465e-22 -7.50412e-23 5.69568e-23)
(-2.65185e-22 -2.13762e-22 -3.3903e-22)
(-2.8572e-22 9.4325e-23 -3.52448e-22)
(1.09893e-22 4.01108e-22 -1.35989e-22)
(5.61482e-22 7.29621e-23 -3.71449e-23)
(-5.96485e-22 7.00663e-23 4.9833e-22)
(2.23085e-22 2.47377e-22 -1.13301e-22)
(-4.83933e-24 5.52255e-22 -4.29653e-22)
(6.83047e-23 5.65448e-22 -4.53601e-22)
(-8.76422e-23 3.0214e-22 1.98429e-22)
(-1.7897e-22 6.71039e-22 2.92726e-22)
(-3.61764e-22 3.97961e-22 1.38844e-22)
(-3.46539e-22 7.6147e-22 -2.63596e-22)
(7.08048e-23 -3.87772e-22 2.70535e-22)
(-2.74969e-22 -3.05509e-23 3.7362e-22)
(-8.93348e-22 2.79635e-23 -1.74543e-22)
(-8.06602e-22 1.24874e-22 -4.76331e-22)
(-8.45258e-22 -4.94969e-22 6.27875e-22)
(-9.48644e-22 -5.03533e-22 3.67067e-22)
(-1.00959e-21 1.70363e-22 -4.65007e-22)
(-2.42757e-22 2.13345e-22 -9.56954e-22)
(-1.41325e-21 -3.69476e-23 1.13216e-21)
(-9.77355e-22 1.15333e-22 5.53051e-22)
(-1.06509e-21 5.9898e-22 -2.53004e-22)
(-7.75375e-22 9.19648e-22 -9.67628e-22)
(-1.39334e-21 7.10994e-23 1.00259e-21)
(-1.466e-21 4.27266e-22 5.92463e-22)
(-1.54982e-21 4.66607e-22 -3.53073e-22)
(-1.00043e-21 1.5808e-21 -1.17003e-21)
(-7.97833e-22 -2.22751e-22 -1.149e-22)
(-7.86726e-23 -2.54219e-22 -5.48776e-23)
(3.79865e-22 -2.1085e-22 -2.59561e-23)
(4.51306e-22 -4.18282e-23 2.72951e-23)
(-3.65482e-22 5.57118e-22 1.76277e-22)
(-1.90479e-22 1.85046e-22 -1.59462e-22)
(1.82802e-22 1.65694e-22 -1.011e-23)
(3.86769e-22 -3.16126e-23 1.21494e-22)
(-1.43861e-22 9.57815e-23 5.10831e-22)
(-3.69545e-22 2.70359e-22 5.55306e-22)
(1.43317e-23 2.89145e-22 1.32816e-22)
(4.57472e-22 3.09334e-22 5.61359e-22)
(6.00083e-24 -2.87616e-22 2.65648e-22)
(-1.38047e-22 4.74012e-22 3.89292e-22)
(-1.979e-22 1.96294e-22 9.7628e-23)
(-5.44397e-23 4.31302e-22 -8.18006e-25)
(-4.29382e-23 -4.79087e-22 8.19647e-23)
(-4.33482e-22 -9.49035e-23 -2.09028e-22)
(-4.95826e-22 -1.76801e-22 -2.03994e-22)
(1.08258e-22 -1.63188e-22 -1.96573e-22)
(-8.05521e-22 -1.29328e-22 7.22702e-22)
(-6.47322e-22 -1.56638e-22 2.60945e-22)
(-5.70687e-22 2.08928e-22 3.83947e-23)
(5.08196e-22 1.81255e-22 -1.73627e-22)
(-7.96464e-22 2.43869e-22 1.20599e-21)
(-9.20442e-22 2.20243e-22 1.07055e-21)
(-7.5777e-22 6.08399e-22 3.17259e-22)
(1.54517e-22 1.07833e-21 3.41296e-22)
(-9.92955e-22 1.89663e-23 1.40581e-21)
(-1.25404e-21 2.63167e-22 8.75769e-22)
(-9.0564e-22 1.05319e-21 2.70862e-22)
(-1.8456e-22 1.43689e-21 -1.56346e-22)
(-5.45411e-22 1.13809e-22 1.75381e-23)
(-9.58847e-23 -3.01519e-22 2.16148e-22)
(3.26906e-22 -1.59751e-22 2.22402e-22)
(2.35225e-22 4.88472e-23 7.01176e-24)
(-2.76706e-22 3.23377e-22 -3.72634e-22)
(-4.22647e-22 6.24494e-22 3.4812e-23)
(2.72452e-22 4.58638e-22 8.74943e-23)
(3.49604e-22 4.77509e-22 7.91493e-23)
(3.22192e-22 -6.86852e-23 -2.28513e-22)
(1.78402e-22 5.72725e-22 2.45775e-22)
(-7.1933e-23 4.27151e-22 2.53224e-22)
(-4.882e-22 1.90387e-22 3.21331e-22)
(2.61919e-22 -3.90511e-22 6.10934e-23)
(4.85558e-23 -3.60298e-22 -4.28742e-23)
(-2.5071e-22 -2.14049e-22 9.46401e-23)
(-9.5808e-23 -2.69929e-22 -1.4084e-22)
(-5.34205e-22 -1.29907e-22 4.31343e-22)
(4.22845e-23 -3.90136e-22 9.49481e-23)
(1.41502e-22 -2.87437e-22 3.39167e-22)
(2.22042e-22 -2.87994e-22 1.06312e-22)
(-5.16846e-22 3.68264e-22 1.13583e-21)
(-4.19691e-22 5.35051e-22 7.13698e-22)
(-1.09148e-22 4.87575e-22 3.43425e-22)
(6.33165e-22 5.80629e-22 1.67501e-22)
(2.25481e-23 1.4458e-22 1.29383e-21)
(-1.00469e-22 3.6582e-22 8.56896e-22)
(-3.47681e-22 6.18498e-22 6.48071e-22)
(-4.92774e-22 7.08026e-22 4.91046e-22)
(-3.13831e-22 -2.01208e-22 1.84458e-21)
(-5.8891e-22 -1.94305e-22 1.00074e-21)
(-6.68821e-22 2.12251e-22 5.60791e-22)
(8.00478e-23 5.92367e-22 2.5969e-22)
(-5.15878e-22 -3.93525e-22 -3.33652e-23)
(8.84722e-23 -4.98532e-23 6.74334e-23)
(1.22272e-22 -1.61189e-23 1.60213e-23)
(1.74506e-22 2.49099e-24 -2.46169e-22)
(-5.78347e-22 4.20342e-22 -4.18848e-22)
(7.94938e-24 2.34927e-22 1.17175e-22)
(1.10739e-22 1.55303e-22 -4.95847e-23)
(2.28051e-22 1.93621e-22 -1.27781e-22)
(-1.0607e-22 4.64732e-22 -2.65331e-22)
(-2.82612e-23 1.06441e-22 -2.99594e-22)
(-5.9484e-24 1.7761e-22 -4.93496e-22)
(4.5695e-23 -6.23701e-23 -3.42212e-22)
(-1.24797e-22 1.96236e-22 -1.49896e-22)
(5.14302e-23 1.34485e-22 7.7477e-23)
(-2.08648e-23 7.63631e-23 4.83653e-23)
(2.41582e-22 -3.77655e-24 1.19575e-22)
(7.56865e-23 2.95371e-22 7.14245e-22)
(9.56951e-23 3.68654e-22 6.89453e-22)
(2.91529e-23 -2.08139e-22 4.70797e-22)
(1.45428e-22 -1.31357e-22 4.99866e-22)
(2.94099e-22 2.55248e-22 1.09641e-21)
(-2.0177e-22 1.74134e-22 5.69388e-22)
(-3.09482e-22 1.35966e-22 3.7214e-22)
(6.75876e-22 2.13443e-22 2.92382e-22)
(3.43996e-22 1.2173e-22 1.17232e-21)
(6.41213e-23 -1.2942e-22 7.18177e-22)
(-1.05638e-22 2.58198e-22 4.4513e-22)
(-9.38582e-24 5.6633e-22 2.24094e-22)
(3.91657e-22 -6.26606e-22 1.45652e-21)
(-5.57016e-22 -2.33351e-22 9.67053e-22)
(-2.36476e-22 3.16806e-22 6.22749e-22)
(3.80041e-22 3.0119e-22 3.2478e-22)
(-4.88724e-22 -1.43406e-22 6.83295e-23)
(-8.98944e-23 -1.77721e-22 1.13592e-22)
(8.4086e-23 -2.14967e-22 4.80733e-23)
(3.84318e-22 -2.00301e-22 2.18623e-23)
(-4.76317e-22 1.98188e-22 -2.39927e-23)
(-3.56239e-22 2.83802e-22 1.07714e-23)
(8.94703e-23 -7.27299e-23 4.69446e-24)
(5.37005e-22 3.27125e-22 3.45408e-24)
(-2.62228e-22 1.83445e-22 -1.34695e-22)
(-3.32593e-22 4.92947e-22 -2.79432e-22)
(3.90514e-23 4.47082e-22 -2.73938e-22)
(4.56534e-22 3.25022e-22 -4.88676e-24)
(1.24116e-22 4.34849e-22 -1.71687e-23)
(2.18784e-22 4.67053e-22 2.62704e-22)
(-1.80702e-22 5.78592e-22 3.92209e-23)
(-2.63974e-23 3.83843e-22 5.77056e-22)
(5.04815e-22 7.95402e-22 2.03263e-22)
(3.85426e-22 -2.07076e-22 -9.34278e-23)
(4.98155e-23 -2.59417e-22 -9.70139e-23)
(-3.50856e-22 -4.09718e-22 1.82146e-22)
(4.28756e-22 2.98891e-22 5.26728e-22)
(-7.36399e-23 6.61477e-23 1.63311e-22)
(1.51283e-22 -1.37706e-24 4.13208e-22)
(6.19762e-22 -1.29027e-22 3.89976e-22)
(8.85625e-22 -2.7858e-22 1.10508e-21)
(5.42376e-22 3.72361e-23 5.22792e-22)
(8.54812e-23 1.94866e-22 3.18064e-22)
(-2.51695e-22 1.269e-22 -1.17824e-22)
(7.29776e-22 -6.60046e-22 1.26125e-21)
(1.79924e-22 -6.22721e-22 1.06411e-21)
(-2.02749e-22 -2.81947e-22 8.37143e-22)
(3.53254e-22 8.60377e-23 3.5689e-22)
(-3.0372e-22 -4.20262e-22 2.19373e-22)
(1.31459e-22 -5.74992e-23 5.49579e-22)
(5.14978e-24 -4.63161e-23 1.78883e-22)
(8.33723e-23 -1.76272e-23 3.12776e-22)
(-5.1279e-22 2.61331e-22 1.49544e-22)
(2.66294e-23 -1.31132e-22 1.64921e-22)
(8.84318e-23 -1.81502e-22 3.13746e-22)
(2.323e-22 1.33077e-22 1.55431e-22)
(-5.19036e-22 4.77789e-22 -5.08773e-23)
(-3.2462e-22 3.54095e-22 -6.03161e-23)
(2.60424e-22 1.7126e-22 2.12263e-22)
(4.3173e-22 4.45107e-22 5.64361e-23)
(3.28017e-23 4.12237e-22 -2.08772e-22)
(1.35822e-23 2.01097e-22 -5.58147e-22)
(1.18911e-22 1.22047e-22 -1.07201e-22)
(-7.78945e-23 3.68003e-23 -5.06547e-23)
(-1.10603e-22 5.50082e-22 -1.22507e-22)
(4.88845e-24 -1.38577e-23 -5.15139e-22)
(4.50521e-22 -1.08784e-22 -2.90435e-22)
(4.4118e-22 -5.94067e-22 -3.35786e-22)
(4.21031e-22 6.74111e-22 5.7693e-23)
(3.09634e-22 3.04837e-22 4.29742e-22)
(3.77303e-22 8.92273e-23 3.07013e-22)
(5.35766e-22 -5.18017e-22 1.71532e-22)
(1.04595e-21 1.50215e-22 7.06516e-22)
(3.63717e-22 1.35338e-23 -7.62759e-23)
(1.53247e-22 -5.08196e-23 -7.0489e-23)
(5.19422e-22 1.88141e-23 -4.52595e-22)
(1.53812e-21 -1.20194e-21 1.02918e-21)
(2.91425e-22 -7.13566e-22 5.29622e-22)
(-1.79867e-22 -1.9891e-22 6.88532e-22)
(-1.89219e-23 5.14551e-22 5.08362e-22)
(3.59853e-22 -1.95461e-23 3.04415e-22)
(4.54455e-23 1.98684e-22 3.18016e-22)
(-3.14436e-22 2.71262e-23 8.10448e-23)
(-9.89804e-23 1.40413e-23 7.00751e-23)
(-3.64976e-23 -3.17756e-23 2.8535e-22)
(-1.86758e-23 -2.39592e-22 1.21631e-22)
(-5.49327e-23 -2.93145e-23 8.87605e-23)
(9.82449e-24 5.58028e-23 5.09572e-23)
(-3.09077e-22 -1.10371e-22 6.80231e-24)
(-1.0763e-22 -1.56116e-22 1.28788e-22)
(9.43348e-23 3.55398e-23 1.8576e-22)
(1.51733e-22 1.03073e-22 -1.27929e-23)
(-6.63078e-22 2.88523e-22 -2.85205e-22)
(1.15979e-22 -3.45484e-23 -3.89091e-22)
(4.00467e-22 -1.6732e-24 -5.34076e-23)
(2.38836e-22 -9.48395e-23 -2.89484e-22)
(-2.88347e-22 7.77134e-22 -7.48827e-23)
(1.54282e-22 4.99371e-22 -7.86652e-23)
(5.75016e-22 -5.48481e-23 8.95202e-23)
(4.83484e-22 -3.75853e-22 -1.19607e-22)
(5.69339e-22 6.93181e-22 5.35786e-23)
(4.23363e-22 1.01243e-22 1.94544e-22)
(3.6656e-22 -1.39298e-22 6.67481e-23)
(5.97942e-22 -5.46136e-22 -1.94584e-23)
(8.38534e-22 1.44269e-22 1.33467e-22)
(4.77744e-22 -3.41549e-22 -1.0015e-22)
(4.95546e-22 -4.33372e-23 2.09625e-23)
(6.76123e-22 1.30254e-23 -5.1867e-23)
(1.37362e-21 -1.05444e-21 1.40408e-22)
(7.49331e-22 -3.40793e-22 -1.62112e-23)
(1.47194e-22 -4.39529e-22 3.6784e-22)
(-4.81376e-22 5.84578e-22 1.5718e-22)
)
;

boundaryField
{
    interface
    {
        type            solidTraction;
        traction        nonuniform List<vector> 
192
(
(12037 0.213347 -8.04551)
(12029.2 0.353218 -8.21734)
(12011.8 0.629326 -8.0705)
(11983.5 0.950259 -7.8249)
(11942.1 1.35596 -7.45647)
(11882.6 1.92444 -6.91146)
(11795.1 2.85462 -6.07845)
(11654 4.68143 -4.6812)
(12305.2 0.281949 -5.37593)
(12294.6 0.458563 -5.47531)
(12271.6 0.810275 -5.35093)
(12234.6 1.2289 -5.14709)
(12180 1.76785 -4.84495)
(12100.9 2.53365 -4.40877)
(11983.7 3.77786 -3.7782)
(11795.1 6.07875 -2.85489)
(12482.5 0.335507 -3.77263)
(12469.7 0.544164 -3.83701)
(12442.4 0.959864 -3.73472)
(12398.3 1.45609 -3.56883)
(12333.3 2.09405 -3.32787)
(12239.3 2.99089 -2.99213)
(12101 4.40851 -2.53481)
(11882.6 6.91199 -1.92536)
(12606.4 0.378317 -2.70207)
(12592 0.613112 -2.74453)
(12561.2 1.08016 -2.66313)
(12511.5 1.63576 -2.53268)
(12438.4 2.34454 -2.34707)
(12333.4 3.32671 -2.09651)
(12180.1 4.84493 -1.77008)
(11942.1 7.45745 -1.35776)
(12693.9 0.411681 -1.90767)
(12678.2 0.666701 -1.93557)
(12644.7 1.17293 -1.874)
(12590.8 1.77216 -1.77643)
(12511.6 2.53022 -1.63996)
(12398.5 3.56788 -1.46009)
(12234.8 5.14748 -1.23257)
(11983.7 7.82661 -0.95333)
(12754 0.436142 -1.27279)
(12737.3 0.705839 -1.29041)
(12701.8 1.24016 -1.24752)
(12644.8 1.8698 -1.18016)
(12561.5 2.66088 -1.08709)
(12442.8 3.73411 -0.966403)
(12272 5.35186 -0.816427)
(12012.1 8.07342 -0.634998)
(12791.7 0.452188 -0.730699)
(12774.4 0.731387 -0.740342)
(12737.6 1.28377 -0.715133)
(12678.7 1.9326 -0.675727)
(12592.6 2.74399 -0.621707)
(12470.4 3.83857 -0.552305)
(12295.2 5.47903 -0.466747)
(12029.8 8.22592 -0.363101)
(12809.9 0.460359 -0.238199)
(12792.3 0.744044 -0.241214)
(12754.9 1.30511 -0.232925)
(12695 1.96324 -0.219975)
(12607.6 2.78432 -0.202283)
(12483.7 3.88909 -0.179646)
(12306.4 5.54117 -0.151767)
(12038.3 8.29854 -0.117539)
(14.546 0.0940075 11229.1)
(14.9145 0.144629 11225.6)
(14.7788 0.243084 11218.8)
(14.5539 0.356016 11208.4)
(14.2326 0.485941 11193.6)
(13.7916 0.633927 11173.6)
(13.1933 0.783416 11147.9)
(12.3852 0.844443 11116.6)
(13.4398 0.0289975 10753.4)
(13.7803 0.0454335 10752.4)
(13.6603 0.0769021 10750.3)
(13.4647 0.111939 10747)
(13.1897 0.151014 10742.4)
(12.8234 0.192735 10736.4)
(12.3565 0.228335 10728.8)
(11.8078 0.227235 10720.2)
(13.4534 -0.0295832 10301.1)
(13.7941 -0.0463588 10302.2)
(13.674 -0.0787057 10304.4)
(13.4783 -0.114985 10307.7)
(13.2029 -0.155852 10312.4)
(12.836 -0.200024 10318.7)
(12.3676 -0.238344 10326.6)
(11.8152 -0.238097 10335.6)
(14.6046 -0.0947754 9824.12)
(14.9746 -0.14575 9827.66)
(14.8383 -0.245182 9834.45)
(14.6126 -0.359558 9845.03)
(14.2898 -0.491753 9860.01)
(13.8462 -0.643416 9880.21)
(13.2423 -0.79865 9906.47)
(12.4195 -0.865857 9938.48)
(-9018.33 -0.23643 9.28573)
(-9026.01 -0.392242 9.48359)
(-9043.34 -0.700104 9.31655)
(-9071.32 -1.05819 9.03693)
(-9112.37 -1.51268 8.6171)
(-9171.26 -2.15513 7.99481)
(-9258.09 -3.22791 7.03904)
(-9399.86 -5.41465 5.41602)
(-8748.67 -0.314268 6.09801)
(-8759.24 -0.511457 6.20986)
(-8782 -0.904642 6.06955)
(-8818.75 -1.37341 5.83955)
(-8872.99 -1.97949 5.49825)
(-8951.5 -2.84805 5.00452)
(-9068.23 -4.28594 4.28785)
(-9258.04 -7.03776 3.22973)
(-8572.05 -0.374553 4.24753)
(-8584.74 -0.607762 4.31933)
(-8611.87 -1.07297 4.20431)
(-8655.65 -1.62928 4.01773)
(-8720.26 -2.34739 3.74648)
(-8813.61 -3.36511 3.36791)
(-8951.43 -5.0027 2.85076)
(-9171.14 -7.99382 2.15755)
(-8448.8 -0.422626 3.03286)
(-8463.15 -0.685188 3.07997)
(-8493.78 -1.20813 2.98855)
(-8543.11 -1.83126 2.84202)
(-8615.74 -2.6293 2.63338)
(-8720.15 -3.74376 2.35139)
(-8872.82 -5.49673 1.98322)
(-9112.16 -8.61664 1.5159)
(-8361.8 -0.460067 2.13805)
(-8377.44 -0.745322 2.16891)
(-8410.75 -1.31227 2.09979)
(-8464.33 -1.98446 1.99027)
(-8542.95 -2.83803 1.83699)
(-8655.39 -4.01527 1.63477)
(-8818.44 -5.8385 1.37852)
(-9071 -9.03735 1.0626)
(-8302.05 -0.487501 1.42539)
(-8318.63 -0.789221 1.44484)
(-8353.91 -1.38772 1.39671)
(-8410.53 -2.09408 1.32112)
(-8493.4 -2.9848 1.21665)
(-8611.4 -4.20223 1.08105)
(-8781.49 -6.06914 0.912277)
(-9042.85 -9.31839 0.707185)
(-8264.51 -0.505493 0.817976)
(-8281.7 -0.81787 0.828607)
(-8318.25 -1.43663 0.800326)
(-8376.84 -2.16454 0.756118)
(-8462.42 -3.07812 0.695489)
(-8583.94 -4.31966 0.617546)
(-8758.41 -6.21256 0.521305)
(-9025.2 -9.49199 0.404116)
(-8246.4 -0.514649 0.266609)
(-8263.91 -0.832059 0.26993)
(-8301.08 -1.46058 0.260632)
(-8360.63 -2.19893 0.246105)
(-8447.53 -3.12339 0.22625)
(-8570.74 -4.37644 0.200833)
(-8747.32 -6.2827 0.169475)
(-9016.82 -9.57461 0.130736)
(12.3854 -11116.6 -0.8438)
(13.1939 -11147.8 -0.783094)
(13.7925 -11173.6 -0.633919)
(14.2341 -11193.5 -0.486258)
(14.5563 -11208.3 -0.356589)
(14.7823 -11218.8 -0.243592)
(14.9264 -11225.6 -0.143055)
(14.9965 -11228.9 -0.0476906)
(11.808 -10720.2 -0.226335)
(12.357 -10728.8 -0.227693)
(12.8243 -10736.3 -0.192285)
(13.191 -10742.4 -0.150734)
(13.4667 -10746.9 -0.111793)
(13.663 -10750.2 -0.0768115)
(13.7894 -10752.3 -0.0450459)
(13.8524 -10753.3 -0.0149093)
(11.8153 -10335.6 0.239224)
(12.368 -10326.5 0.239292)
(12.8368 -10318.6 0.200894)
(13.2042 -10312.3 0.15667)
(13.4802 -10307.5 0.115715)
(13.6767 -10304.2 0.0792601)
(13.8032 -10302 0.0463758)
(13.8662 -10300.9 0.0153275)
(12.4194 -9938.44 0.867145)
(13.2425 -9906.39 0.799894)
(13.8468 -9880.09 0.64474)
(14.291 -9859.84 0.493192)
(14.6146 -9844.81 0.36103)
(14.8416 -9834.18 0.24634)
(14.9863 -9827.37 0.144553)
(15.0567 -9823.95 0.0481658)
)
;
        pressure        uniform 0;
        secondOrder     false;
        setEffectiveTraction false;
        relaxationFactor 1;
        value           nonuniform List<vector> 
192
(
(4.00615e-24 5.76072e-22 3.55011e-23)
(3.79965e-22 -5.12835e-22 1.60339e-23)
(-3.22319e-22 3.0425e-24 -4.48841e-22)
(7.39801e-24 5.90595e-22 7.10942e-22)
(1.54794e-22 -1.37005e-21 1.02238e-21)
(-1.18069e-21 -1.58984e-21 5.07675e-22)
(-1.80434e-21 2.53977e-22 7.80485e-22)
(-1.47242e-21 3.30979e-22 1.69817e-21)
(-4.09139e-22 -1.75109e-22 -8.35009e-22)
(-2.79765e-22 -2.11495e-22 -5.00472e-22)
(-6.18884e-22 1.04511e-22 5.16149e-22)
(-1.79383e-22 3.92749e-22 1.84722e-22)
(-4.24544e-24 -5.62752e-22 3.12692e-22)
(-8.44761e-22 -8.12117e-22 7.60517e-22)
(-1.38702e-21 -1.85418e-22 1.38258e-21)
(-1.38507e-21 -1.45092e-23 1.18425e-21)
(-7.05661e-22 -4.43737e-22 -1.42584e-22)
(-3.47345e-22 7.21084e-22 2.01411e-22)
(-2.22317e-22 1.79995e-22 6.86895e-22)
(-2.87719e-23 -2.66399e-22 3.65698e-22)
(-7.70668e-23 -6.3746e-22 1.19291e-23)
(-8.05639e-22 -3.10934e-22 8.39359e-22)
(-7.99725e-22 1.60457e-22 1.53377e-21)
(-9.65786e-22 -9.27954e-23 1.67574e-21)
(-4.9211e-22 4.29745e-24 8.1738e-23)
(-3.65322e-22 5.2939e-22 -4.34269e-22)
(2.41033e-22 4.06745e-23 -2.34936e-22)
(2.35339e-22 -5.46001e-22 5.79669e-23)
(-5.24221e-22 -2.88279e-22 4.53242e-22)
(-5.26143e-22 4.4894e-22 1.3406e-21)
(-4.01929e-23 1.49386e-22 1.54808e-21)
(-3.55217e-22 -3.15158e-22 2.17421e-21)
(-5.22639e-22 -6.11946e-22 -2.50545e-23)
(-4.41715e-22 5.13686e-22 -4.99571e-22)
(-9.95912e-23 6.07454e-22 -4.10309e-22)
(-1.79746e-22 2.45774e-22 -1.714e-22)
(4.02373e-23 3.44893e-22 9.0921e-22)
(2.53318e-22 3.05996e-22 1.28288e-21)
(2.16391e-22 1.63185e-22 1.36122e-21)
(2.54272e-22 -6.64372e-22 1.69112e-21)
(-4.54315e-22 -3.2533e-22 1.18903e-22)
(-3.75916e-22 2.50914e-22 1.37909e-23)
(-2.23463e-22 3.52024e-22 -2.1034e-22)
(1.01425e-22 6.19302e-22 -3.06909e-23)
(4.37922e-22 8.45012e-22 1.75282e-22)
(3.26061e-22 3.73499e-22 5.66368e-22)
(7.42951e-22 -2.25647e-22 1.23472e-21)
(6.21413e-22 -7.14653e-22 1.48114e-21)
(-2.88988e-22 -5.50326e-22 4.01535e-22)
(-4.88058e-22 2.28455e-22 2.40404e-22)
(-4.89565e-22 5.69205e-22 -8.03019e-23)
(3.89883e-23 5.0944e-22 -4.05592e-22)
(-1.34145e-22 6.52766e-22 -3.14029e-22)
(3.4939e-22 8.82482e-22 5.66536e-23)
(8.61191e-22 3.71925e-22 6.86327e-22)
(1.38333e-21 -1.12553e-21 1.16518e-21)
(3.18204e-22 7.15502e-23 4.44213e-22)
(-6.79655e-23 -1.90636e-22 3.66712e-22)
(-2.7236e-22 -2.29471e-22 2.06155e-23)
(-5.75775e-22 3.10879e-22 -4.14359e-22)
(-2.59379e-22 1.02252e-21 -1.35916e-22)
(4.91606e-22 9.39122e-22 6.71307e-23)
(6.64979e-22 3.34239e-22 1.10003e-22)
(1.27449e-21 -9.88583e-22 1.22222e-22)
(-8.2596e-23 5.3703e-22 1.19604e-22)
(4.52855e-22 -4.95994e-22 6.45139e-23)
(-2.00346e-22 2.01547e-22 -4.57928e-22)
(4.55883e-23 8.25415e-22 5.69542e-22)
(1.94862e-22 -1.10517e-21 9.47563e-22)
(-1.26332e-21 -1.22546e-21 4.15055e-22)
(-2.00206e-21 5.8601e-22 5.95623e-22)
(-1.80828e-21 5.53821e-22 1.51146e-21)
(-4.02658e-22 -7.54738e-23 -5.43359e-22)
(-7.94136e-22 4.11796e-22 -1.32512e-22)
(2.04507e-22 2.15402e-22 -2.55854e-22)
(-9.93668e-22 8.18574e-22 2.77881e-22)
(-9.84709e-22 3.56746e-23 9.73527e-22)
(-8.28914e-22 -6.0067e-22 4.33832e-22)
(-1.44944e-21 7.74548e-23 2.47805e-22)
(-2.41949e-21 2.91734e-22 5.40741e-22)
(3.66904e-23 -3.99265e-22 -3.25159e-22)
(-6.35204e-22 6.8329e-22 -7.17966e-22)
(-4.32816e-22 6.22027e-22 9.54002e-23)
(-8.92859e-22 4.03117e-22 -1.30236e-22)
(-1.69369e-21 7.90279e-22 2.97411e-22)
(-1.74498e-21 1.93816e-22 -1.14673e-22)
(-1.98784e-21 6.09314e-23 -2.60932e-23)
(-2.25418e-21 1.63122e-22 -3.01633e-22)
(5.3782e-22 -7.21486e-22 -4.83385e-22)
(6.73647e-22 6.24668e-22 -8.3152e-22)
(-6.79275e-22 1.11129e-21 -7.87845e-22)
(-5.78779e-22 8.20128e-22 -4.56709e-22)
(-1.54739e-21 5.23964e-22 -5.58696e-22)
(-2.23765e-21 4.4157e-22 -1.22759e-21)
(-2.38291e-21 8.39274e-22 -1.36921e-21)
(-2.91187e-21 3.31097e-22 -1.30763e-21)
(4.86451e-22 -6.6363e-22 -4.96489e-22)
(6.7542e-22 8.48942e-22 -8.74496e-22)
(-4.30581e-22 1.28468e-21 -9.93229e-22)
(-4.32808e-22 1.00031e-21 -5.61001e-22)
(-1.20622e-21 9.1129e-22 -7.87159e-22)
(-1.73052e-21 7.38721e-22 -1.70734e-21)
(-1.84777e-21 1.05821e-21 -1.7846e-21)
(-2.44746e-21 6.6762e-22 -1.78743e-21)
(2.55527e-22 -2.01315e-22 7.38025e-23)
(4.85415e-22 1.79849e-22 -5.77396e-24)
(-1.28368e-23 7.55895e-22 -5.81539e-22)
(-3.67993e-22 9.48819e-22 -3.68075e-22)
(-8.24623e-22 1.63683e-22 -7.39609e-22)
(-3.07717e-22 2.58433e-22 -1.37979e-21)
(-8.67195e-22 1.08986e-21 -1.368e-21)
(-1.03178e-21 1.7955e-21 -1.6165e-21)
(4.0891e-22 -1.6774e-22 4.32628e-23)
(3.52469e-22 2.28013e-23 1.6117e-22)
(4.43497e-22 4.15156e-22 6.70152e-22)
(-7.04835e-23 5.01258e-22 -6.58771e-23)
(5.25041e-23 -2.14955e-22 -4.37129e-22)
(4.29584e-22 2.2046e-22 -3.70195e-22)
(1.00572e-22 1.22757e-21 2.50283e-22)
(-1.95778e-22 1.58323e-21 -4.16932e-22)
(1.7195e-22 -2.17839e-23 4.82811e-23)
(3.61597e-22 6.77221e-22 9.94695e-23)
(-3.39664e-22 2.761e-22 3.59706e-22)
(-1.00324e-22 -4.3193e-22 -2.02086e-22)
(7.23023e-23 -3.80694e-22 6.13054e-23)
(5.79708e-22 7.75259e-22 1.01281e-22)
(-3.99621e-22 8.14222e-22 4.56404e-22)
(1.34321e-22 4.72568e-22 9.46527e-23)
(1.38977e-22 -6.18309e-23 -2.69374e-22)
(2.18226e-22 2.45141e-22 -1.78809e-22)
(6.69979e-23 -3.81145e-23 -5.54424e-22)
(2.17908e-22 -1.72018e-23 9.91733e-23)
(1.3045e-22 -1.88097e-22 6.28614e-22)
(6.65716e-22 2.63012e-22 2.70559e-22)
(4.56306e-23 6.16748e-22 1.3735e-22)
(4.23225e-22 2.09168e-22 2.29221e-22)
(3.38231e-22 -3.45164e-22 4.19095e-23)
(4.85357e-22 3.37831e-22 -2.4833e-24)
(3.9862e-22 4.41361e-22 -7.74629e-23)
(3.76144e-23 5.62802e-22 6.25222e-22)
(-2.02917e-22 -5.0384e-22 1.2127e-22)
(6.53987e-22 -1.49889e-22 3.51107e-22)
(-1.61291e-22 1.59361e-22 -2.585e-22)
(4.15849e-22 -4.98849e-23 3.91809e-22)
(5.84772e-23 -6.78393e-23 4.03448e-22)
(1.82307e-22 9.19729e-23 2.37406e-22)
(4.43568e-22 5.23466e-22 8.06698e-23)
(8.96596e-23 3.5075e-23 -1.38842e-22)
(5.06247e-22 -7.37842e-22 -5.71028e-22)
(5.00845e-22 -5.48248e-22 8.65387e-23)
(4.83403e-22 1.43019e-22 -6.99723e-22)
(-2.42492e-23 7.52224e-22 6.60267e-22)
(-8.86175e-23 4.18247e-23 1.09445e-22)
(1.08027e-23 7.06086e-26 8.95825e-23)
(1.60744e-22 4.9249e-23 1.19488e-23)
(2.42459e-22 -1.75357e-22 -3.83042e-22)
(4.517e-22 -4.6678e-22 -1.73657e-22)
(5.37398e-22 -5.78883e-22 -6.0168e-23)
(5.51462e-22 2.82384e-22 -1.08434e-22)
(-5.18322e-22 1.10043e-21 2.61623e-22)
(-1.49352e-21 3.16332e-22 1.66234e-21)
(-1.49411e-21 7.60195e-23 1.06918e-21)
(-1.09498e-21 -1.14846e-23 1.45556e-21)
(-3.584e-22 -1.71228e-22 1.97416e-21)
(2.86356e-22 -4.89605e-22 1.53612e-21)
(7.13517e-22 -5.54092e-22 1.34177e-21)
(1.48357e-21 -1.06303e-21 1.08828e-21)
(1.29341e-21 -1.02066e-21 1.09636e-22)
(-2.06465e-21 2.87496e-22 5.87464e-22)
(-1.53662e-21 4.3523e-22 6.0418e-22)
(-1.4228e-21 2.61046e-22 9.98614e-22)
(-6.47587e-22 -1.50385e-22 1.09127e-21)
(-7.29487e-22 -1.31979e-22 1.0453e-21)
(1.35497e-22 -5.0459e-22 1.13643e-21)
(1.18623e-22 -5.40083e-22 4.62846e-22)
(6.5709e-22 -1.87581e-22 -6.80759e-23)
(-1.91937e-21 3.32769e-22 -3.08651e-22)
(-1.7729e-21 4.73162e-22 -4.47364e-22)
(-1.11828e-21 1.03251e-21 3.32555e-22)
(-7.96941e-22 2.16645e-22 6.86657e-22)
(-3.21927e-22 3.09655e-22 7.16601e-22)
(-3.07968e-22 -2.47383e-22 9.17335e-22)
(-3.8865e-22 -1.30532e-22 6.99822e-22)
(-5.90824e-23 -1.90362e-22 4.17629e-22)
(-2.57051e-21 4.62995e-22 -1.49461e-21)
(-1.32174e-21 1.56859e-21 -1.29235e-21)
(-3.50523e-22 1.41053e-21 6.14534e-23)
(8.44119e-23 5.70844e-22 4.77413e-22)
(4.29403e-22 2.85906e-22 4.25928e-22)
(3.72938e-22 1.04581e-22 3.05884e-22)
(-2.69978e-22 5.61667e-22 3.40528e-22)
(-9.70299e-22 6.98097e-22 1.07821e-22)
)
;
        gradient        nonuniform List<vector> 
192
(
(4.41324e-22 8.83231e-21 -2.58882e-21)
(-5.42596e-21 -1.90396e-21 -1.1368e-20)
(-4.99534e-21 -5.08178e-21 -6.69572e-21)
(-9.16242e-21 -2.49742e-22 -2.19035e-22)
(-1.24613e-21 -2.43777e-20 2.44771e-21)
(2.15167e-21 -3.11896e-20 9.16583e-21)
(2.0167e-21 -1.05939e-20 1.60958e-20)
(3.62702e-21 1.72592e-21 1.77251e-20)
(3.83035e-22 -8.557e-21 -1.35958e-20)
(-1.16634e-21 1.81342e-22 -1.29154e-20)
(-1.79193e-21 2.75555e-21 1.42548e-21)
(-7.3393e-21 7.24877e-21 -1.09653e-21)
(-6.00402e-21 -1.39984e-20 3.37253e-21)
(3.97568e-23 -2.53718e-20 1.06113e-20)
(2.09885e-21 -1.18776e-20 2.00337e-20)
(6.61529e-22 -6.84869e-21 1.45323e-20)
(7.3738e-21 -1.76789e-20 -2.21467e-21)
(1.45098e-21 1.31173e-20 2.0107e-21)
(-6.27651e-21 6.73709e-21 1.40851e-20)
(-2.78182e-21 1.69732e-21 8.00393e-21)
(-2.73028e-21 -1.26698e-20 -5.60285e-21)
(-9.36804e-24 -1.45285e-20 9.33257e-21)
(-2.60877e-22 -6.67295e-21 2.6223e-20)
(2.17354e-21 -8.94094e-21 2.15946e-20)
(4.2641e-21 -8.76096e-21 5.13599e-21)
(-7.08927e-21 1.64811e-20 -4.93082e-21)
(-6.49272e-21 8.74878e-21 -5.13837e-22)
(-2.1264e-21 -1.24392e-20 -2.50119e-22)
(7.98722e-22 -1.26698e-20 1.75193e-21)
(-7.43746e-22 6.45405e-21 1.63814e-20)
(-5.01928e-21 3.8443e-22 2.03402e-20)
(-3.3109e-21 -9.11603e-21 2.63707e-20)
(-5.40859e-22 -1.74737e-20 6.64858e-22)
(1.09306e-20 7.46748e-21 -6.45787e-21)
(5.18273e-22 1.14178e-20 -1.15982e-20)
(-4.39586e-21 3.96308e-21 -1.72032e-21)
(-2.83593e-21 3.96178e-21 1.55972e-20)
(-3.26247e-21 4.05981e-21 1.49182e-20)
(-1.02084e-20 3.31633e-21 1.51118e-20)
(-1.09908e-20 -3.02122e-21 1.87684e-20)
(2.75276e-21 -1.4554e-20 4.04591e-21)
(8.03209e-21 4.21805e-21 3.02269e-21)
(3.10123e-21 1.34863e-20 -6.05165e-21)
(-1.81527e-21 1.47563e-20 -1.08178e-21)
(-5.35147e-21 3.96882e-21 -2.2385e-21)
(-8.21566e-21 5.96864e-21 3.1712e-21)
(-1.14139e-20 4.23461e-21 1.03714e-20)
(-8.669e-21 -4.36861e-21 1.75916e-20)
(1.17851e-21 -1.04051e-20 1.45729e-20)
(1.97852e-21 -2.63008e-21 7.26874e-21)
(2.35767e-21 7.31332e-21 -2.35397e-21)
(4.94928e-22 7.77623e-21 -1.57456e-20)
(-1.88337e-21 8.21476e-21 -1.53217e-20)
(-5.73127e-21 1.66697e-20 -8.31564e-23)
(-1.47807e-20 1.77367e-20 -1.61508e-21)
(-1.23834e-20 6.1128e-21 1.08798e-20)
(-3.33196e-21 7.2877e-21 1.11838e-20)
(-2.51743e-21 -1.27088e-20 6.509e-21)
(2.93737e-21 -9.52797e-21 1.10505e-21)
(6.98421e-21 1.78849e-21 -1.03323e-20)
(2.31744e-21 1.96312e-20 -4.88269e-21)
(-6.21867e-21 1.96753e-20 1.08417e-21)
(-1.38844e-20 1.51976e-20 -1.87708e-21)
(-7.93017e-21 5.26884e-21 -1.45496e-21)
(-6.48685e-21 5.709e-21 4.13939e-21)
(4.05197e-22 -5.56656e-22 -7.48961e-21)
(4.76244e-21 1.07986e-20 -7.42267e-21)
(-6.1072e-21 1.85358e-20 -1.1531e-20)
(1.95927e-21 -3.18741e-21 -3.53751e-21)
(-4.45848e-21 -2.03924e-21 1.75619e-21)
(-1.38012e-20 1.59687e-20 1.30683e-21)
(-2.32414e-20 1.95533e-20 2.78826e-21)
(-6.64716e-21 -7.81021e-21 2.43226e-21)
(-1.35616e-20 8.63907e-21 -3.5449e-21)
(5.01188e-21 1.0042e-20 -3.95409e-21)
(-1.39697e-20 2.00543e-20 -8.74381e-21)
(-8.53847e-21 3.25613e-21 -9.5519e-21)
(-8.22047e-21 -1.05965e-20 -4.14835e-21)
(-1.00575e-20 1.13821e-21 -1.26246e-21)
(-2.90176e-20 3.6222e-21 -2.59353e-21)
(6.80023e-24 -1.44997e-20 6.25186e-21)
(-1.07553e-20 1.11024e-20 5.65685e-21)
(-1.06383e-20 1.03905e-20 -2.22876e-21)
(-1.53348e-20 4.98547e-21 -9.11925e-22)
(-2.86839e-20 2.56184e-21 -5.59839e-21)
(-2.82495e-20 -3.55822e-21 -7.18793e-21)
(-2.77557e-20 -4.82839e-21 -6.3658e-21)
(-3.30731e-20 -9.66763e-21 -4.60014e-21)
(1.51694e-22 -1.85587e-20 3.74017e-21)
(-2.66378e-21 -2.00603e-21 3.28236e-21)
(-2.30172e-20 5.46245e-21 -2.04244e-23)
(-1.20152e-20 2.0087e-21 -5.83378e-22)
(-2.7511e-20 -9.6586e-21 -1.61748e-21)
(-4.16865e-20 -9.66832e-21 -3.89476e-21)
(-4.31074e-20 -3.68534e-21 -5.18369e-21)
(-4.00773e-20 -1.19128e-20 -3.1862e-21)
(-3.9578e-21 -1.39302e-20 2.69179e-21)
(-2.52194e-21 1.59358e-20 -1.5572e-22)
(-3.12167e-21 1.93338e-20 -1.64512e-20)
(-3.37562e-22 1.64237e-20 -8.92678e-21)
(-2.17257e-22 2.13275e-20 -1.98945e-20)
(-1.11568e-21 1.41038e-20 -4.22746e-20)
(-2.96212e-22 1.38299e-20 -3.84149e-20)
(-2.9245e-21 1.5009e-20 -4.15702e-20)
(-5.51502e-21 -1.01019e-20 1.34766e-21)
(-6.08532e-21 8.55093e-21 2.50967e-21)
(-6.49132e-21 1.52358e-20 -1.02351e-20)
(-1.71636e-21 1.49879e-20 -8.35834e-21)
(-1.44168e-21 3.10469e-21 -2.10622e-20)
(-5.19675e-21 3.607e-21 -3.38271e-20)
(-7.34557e-21 1.36171e-20 -3.20297e-20)
(-2.50791e-21 1.71761e-20 -3.57183e-20)
(-3.39174e-21 -1.00729e-20 1.27742e-21)
(-2.74395e-21 4.35312e-21 3.17402e-21)
(-1.11803e-21 8.46576e-21 8.70346e-21)
(-1.2835e-21 5.5965e-21 -5.20473e-21)
(-4.46034e-21 -4.14132e-21 -1.92445e-20)
(-6.28896e-21 3.13636e-21 -1.57254e-20)
(-4.31555e-21 1.19388e-20 -7.28106e-21)
(-8.97427e-22 1.17073e-20 -2.08469e-20)
(-5.06197e-21 -5.65049e-21 3.30155e-21)
(9.59429e-22 1.5977e-20 1.62562e-21)
(1.18829e-20 6.85705e-21 3.06999e-21)
(-3.61306e-22 -1.296e-20 -4.89969e-21)
(-1.19792e-20 -7.416e-21 -3.60053e-21)
(-4.27661e-21 1.55704e-20 -5.29761e-21)
(7.45226e-21 8.49565e-21 -2.77142e-21)
(4.34184e-21 -9.58398e-21 -1.3203e-20)
(-2.84237e-21 -5.14575e-21 -1.85639e-21)
(-7.8603e-22 4.12156e-21 -4.08221e-21)
(1.70423e-21 1.94045e-21 -1.69769e-20)
(-1.89391e-21 -1.07402e-21 -1.63217e-21)
(-1.19821e-21 -4.53923e-21 1.02998e-20)
(-8.12841e-22 3.96547e-21 -1.74589e-21)
(4.40131e-21 4.03342e-21 -6.93955e-21)
(3.45472e-21 -7.36178e-21 -7.64472e-21)
(-3.68699e-21 -1.15891e-20 1.60377e-21)
(-4.13183e-21 8.56459e-22 -4.7499e-22)
(-4.63309e-21 9.30709e-21 -5.80609e-21)
(5.12094e-21 1.43167e-20 3.85335e-21)
(1.18352e-20 -7.52972e-21 -4.87009e-21)
(2.73806e-21 -1.66898e-21 -3.10949e-21)
(7.23234e-21 2.59682e-21 -1.12541e-20)
(5.00765e-21 -1.08738e-20 2.79352e-21)
(-1.99161e-21 -4.01696e-21 7.25373e-21)
(-3.99944e-21 -3.2883e-21 6.55803e-21)
(9.46988e-22 6.26878e-21 1.9387e-21)
(1.34043e-20 -1.38026e-22 -7.05496e-21)
(5.20542e-21 -1.15021e-20 -1.88194e-20)
(-2.79368e-21 -2.4185e-21 -6.79942e-21)
(-2.88149e-21 9.93643e-21 -1.97702e-20)