/*--------------------------------*- C++ -*----------------------------------*\
| =========                 |                                                 |
| \\      /  F ield         | OpenFOAM: The Open Source CFD Toolbox           |
|  \\    /   O peration     | Version:  v1912                                 |
|   \\  /    A nd           | Website:  www.openfoam.com                      |
|    \\/     M anipulation  |                                                 |
\*---------------------------------------------------------------------------*/
FoamFile
{
    version     2.0;
    format      ascii;
    class       volScalarField;
    location    "0.01/solid";
    object      epsilonEq;
}
// * * * * * * * * * * * * * * * * * * * * * * * * * * * * * * * * * * * * * //

dimensions      [0 0 0 0 0 0 0];


internalField   nonuniform List<scalar> 
256
(
1.46483e-20
2.07489e-20
1.84751e-20
1.06893e-20
1.31099e-20
2.14069e-20
1.00179e-20
1.38049e-20
8.3271e-21
8.1455e-21
1.10685e-20
7.19792e-21
1.41143e-20
2.14172e-20
9.7695e-21
8.89743e-21
1.5131e-20
2.52004e-20
1.04067e-20
1.64615e-20
1.73846e-20
1.46068e-20
1.4029e-20
1.36468e-20
1.46124e-20
1.9539e-20
9.68273e-21
9.80362e-21
1.23391e-20
1.32151e-20
1.10727e-20
1.59797e-20
2.20991e-20
1.69151e-20
1.16191e-20
1.37077e-20
2.62588e-20
1.44583e-20
1.34931e-20
1.65956e-20
1.06621e-20
2.047e-20
2.89532e-21
2.1856e-20
1.77292e-20
1.0364e-20
1.26541e-20
1.16406e-20
1.48846e-20
5.67947e-21
1.91565e-20
2.12558e-20
2.51654e-20
1.3803e-20
1.16679e-20
1.51078e-20
4.16369e-21
1.4148e-20
1.06098e-20
1.97852e-20
6.49296e-21
9.41156e-21
1.39661e-20
1.37064e-20
9.98923e-21
1.51712e-20
1.19144e-20
9.29858e-21
1.47713e-20
1.59194e-20
9.80357e-21
1.12891e-20
1.27425e-20
1.18024e-20
1.05903e-20
7.76272e-21
1.75201e-20
2.13974e-20
1.46724e-20
2.21103e-20
1.36837e-20
7.35567e-21
1.54328e-20
1.50986e-20
2.47191e-20
2.69157e-20
1.20992e-20
1.15861e-20
1.29844e-20
1.1315e-20
7.25812e-21
8.22704e-21
1.52618e-20
9.55904e-21
1.09579e-20
1.79712e-20
1.44847e-20
1.44967e-20
1.40233e-20
1.37029e-20
1.27841e-20
1.13479e-20
1.16782e-20
8.83158e-21
1.8709e-20
1.65581e-20
1.05604e-20
1.35241e-20
1.53163e-20
9.90899e-21
9.07457e-21
1.17465e-20
2.32418e-20
1.68781e-20
9.93146e-21
1.56171e-20
1.63737e-20
1.431e-20
1.10217e-20
8.49137e-21
1.13397e-20
7.2341e-21
7.70095e-21
7.48336e-21
5.13974e-21
1.00957e-20
1.44941e-20
1.80716e-20
1.19399e-20
1.08349e-20
8.25848e-21
8.58466e-21
9.99338e-21
1.3596e-20
1.37012e-20
3.62689e-21
8.48031e-21
1.17063e-20
8.1587e-21
1.04195e-20
2.16277e-20
2.15412e-20
2.14292e-20
1.96051e-20
2.67922e-20
1.20618e-20
1.2362e-20
5.97217e-21
6.83956e-21
7.03034e-21
1.11172e-20
1.4404e-20
1.08869e-20
3.12885e-21
1.08665e-20
1.21837e-20
4.33487e-21
9.50215e-21
1.13143e-20
1.25616e-20
8.23979e-21
8.38359e-21
9.3373e-21
9.19867e-21
8.98095e-21
1.31006e-20
9.77921e-21
6.47709e-21
9.52254e-21
1.24184e-20
8.20232e-21
1.53101e-20
1.25576e-20
1.14696e-20
9.02305e-21
1.46263e-20
1.74389e-20
2.00246e-20
1.01003e-20
1.29552e-20
1.86688e-20
1.17144e-20
1.45925e-20
1.50711e-20
1.49535e-20
1.57955e-20
8.10865e-21
1.2899e-20
7.26679e-21
8.67097e-21
1.08102e-20
1.65252e-20
1.3061e-20
1.53075e-20
1.17333e-20
8.65599e-21
1.14462e-20
1.85786e-20
6.54502e-21
1.2218e-20
8.02228e-21
1.8082e-20
1.12487e-20
7.80412e-21
9.80571e-21
1.40022e-20
1.79101e-20
1.79005e-20
1.25523e-20
2.16192e-20
1.26661e-20
9.36924e-21
1.71138e-20
1.05821e-20
1.46503e-20
1.54273e-20
2.66332e-20
1.15327e-20
8.90194e-21
1.22718e-20
8.72841e-21
1.91652e-20
1.12051e-20
1.7951e-20
1.41221e-20
1.3333e-20
1.00323e-20
7.73874e-21
1.13121e-20
6.28515e-21
1.06103e-20
5.3879e-21
1.50727e-20
1.41532e-20
1.22595e-20
9.91098e-21
9.09655e-21
8.04648e-21
7.69122e-21
1.00313e-20
8.87827e-21
1.68047e-20
1.20911e-20
1.25944e-20
8.85801e-21
9.98049e-21
1.14555e-20
7.152e-21
2.05732e-20
1.02027e-20
8.39143e-21
1.50739e-20
1.50811e-20
2.14256e-20
1.796e-20
2.06123e-20
)
;

boundaryField
{
    interface
    {
        type            calculated;
        value           nonuniform List<scalar> 
192
(
1.21128e-20
8.95455e-21
1.1504e-20
2.03461e-20
2.24895e-20
2.0174e-20
1.91698e-20
9.32354e-21
2.00391e-20
2.57211e-20
1.12224e-20
1.72172e-20
1.98935e-20
2.29584e-20
9.77398e-21
5.01647e-21
1.30888e-20
1.43781e-20
1.49475e-20
1.54014e-20
9.30274e-21
2.4548e-20
1.04023e-20
1.40202e-20
1.06391e-20
1.18685e-20
1.70802e-20
1.48817e-20
2.36045e-20
1.55274e-20
1.20404e-20
5.8013e-21
8.58864e-21
1.69983e-20
7.1967e-21
2.13743e-20
2.57748e-20
1.02944e-20
1.61601e-20
1.4486e-20
5.28069e-21
1.24288e-20
5.31279e-21
1.06369e-20
1.59314e-20
2.48279e-20
2.02055e-20
1.10721e-20
8.27601e-21
1.3002e-20
8.60811e-21
4.77275e-21
7.00873e-21
1.76042e-20
3.47441e-20
2.29492e-20
1.41037e-20
9.61035e-21
1.46505e-20
1.49484e-20
9.39648e-21
1.14024e-20
2.85537e-20
2.07246e-20
5.28635e-21
1.72865e-20
8.93455e-21
2.16768e-20
2.33419e-20
1.9318e-20
1.92954e-20
8.65251e-21
1.98283e-20
2.26652e-20
5.32819e-21
2.10619e-20
3.26848e-20
1.28196e-20
2.00857e-20
1.19809e-20
1.84052e-20
1.90229e-20
1.15903e-20
1.01985e-20
7.45446e-21
1.85015e-20
1.09803e-20
8.43273e-21
1.1355e-20
2.11901e-20
4.64166e-21
7.98592e-21
1.13625e-20
8.42945e-21
7.69514e-21
1.05232e-20
1.18783e-20
2.12719e-20
6.88093e-21
7.29338e-21
1.25921e-20
1.20286e-20
7.39844e-21
1.40199e-20
1.20295e-20
2.09445e-20
2.28008e-20
1.13631e-20
2.0595e-20
1.97603e-20
2.56209e-20
1.63762e-20
5.20145e-21
1.25035e-20
1.13547e-20
2.18398e-20
1.35121e-20
2.27216e-20
2.12717e-20
2.15591e-20
1.12705e-20
7.9109e-21
2.04578e-20
1.04701e-20
1.93207e-20
1.48708e-20
8.50142e-21
1.31709e-20
8.38347e-21
3.01932e-21
6.77733e-21
2.03085e-20
4.0949e-21
1.43444e-20
1.219e-20
6.53879e-21
9.48251e-21
8.77408e-21
1.45407e-20
1.19125e-20
1.911e-20
1.45623e-20
1.46975e-20
8.08509e-21
8.50103e-21
1.03314e-20
5.74371e-21
2.39678e-20
1.01627e-20
1.43323e-20
1.47514e-20
1.63651e-20
6.12754e-21
4.05847e-21
8.4367e-21
9.93652e-21
1.21818e-20
8.01239e-21
1.91004e-20
1.72998e-20
1.1088e-20
3.49161e-21
1.43589e-20
4.33559e-21
1.58464e-20
1.26558e-20
2.14061e-20
1.57618e-20
7.84552e-21
8.45058e-21
7.33078e-21
9.79499e-21
1.26009e-20
1.74669e-20
2.92068e-20
2.30864e-20
1.07624e-20
1.26283e-20
1.50137e-20
8.63322e-21
1.18715e-20
8.61165e-21
1.08755e-20
2.92117e-20
1.19881e-20
1.5921e-20
1.78505e-20
1.15578e-20
9.71184e-21
1.21352e-20
1.00168e-20
1.62074e-20
)
;
    }
    symmetry
    {
        type            symmetry;
    }
    bottom
    {
        type            calculated;
        value           nonuniform List<scalar> 
32
(
3.56436e-20
4.34214e-20
3.80018e-20
2.81327e-20
3.05424e-20
2.23028e-20
3.13879e-20
2.62278e-20
3.52754e-20
2.64476e-20
2.64044e-20
2.86218e-20
1.42941e-20
1.80329e-20
3.21962e-20
2.77832e-20
2.50184e-20
2.76983e-20
2.72382e-20
2.61658e-20
9.45992e-21
1.68e-20
1.35303e-20
1.89832e-20
3.94317e-20
1.90081e-20
2.01559e-20
1.39151e-20
1.58948e-20
2.19033e-20
1.73608e-20
9.24435e-21
)
;
    }
}


// ************************************************************************* //
