/*--------------------------------*- C++ -*----------------------------------*\
| =========                 |                                                 |
| \\      /  F ield         | OpenFOAM: The Open Source CFD Toolbox           |
|  \\    /   O peration     | Version:  v1912                                 |
|   \\  /    A nd           | Website:  www.openfoam.com                      |
|    \\/     M anipulation  |                                                 |
\*---------------------------------------------------------------------------*/
FoamFile
{
    version     2.0;
    format      ascii;
    class       volSymmTensorField;
    location    "0.01/solid";
    object      epsilon;
}
// * * * * * * * * * * * * * * * * * * * * * * * * * * * * * * * * * * * * * //

dimensions      [0 0 0 0 0 0 0];


internalField   nonuniform List<symmTensor> 
256
(
(-6.58182e-21 -2.18042e-21 -8.27149e-21 -4.67355e-22 -4.50544e-21 -1.67282e-20)
(7.62317e-22 -1.62787e-20 -6.26528e-22 6.51923e-21 -6.97919e-21 4.87147e-21)
(1.71098e-20 -9.75813e-21 3.28759e-21 6.52983e-21 -7.87767e-21 -1.58815e-21)
(8.00747e-21 6.23128e-21 -2.74785e-21 3.20483e-21 -5.24258e-21 9.87178e-21)
(-1.87351e-20 5.82076e-21 -6.8524e-21 -7.98206e-21 -1.43816e-21 -6.19847e-21)
(-1.89711e-20 1.49497e-20 -2.68876e-21 1.35447e-21 -5.81252e-22 -3.51249e-21)
(2.66312e-20 9.49353e-23 9.51891e-22 1.42033e-20 1.05606e-21 1.02253e-20)
(2.28932e-20 -4.23854e-21 -1.66633e-21 3.06502e-20 -7.84084e-21 1.50669e-20)
(1.05324e-20 -1.75504e-21 -1.2956e-21 2.16551e-20 2.89082e-21 2.09808e-20)
(-7.99204e-22 2.31151e-21 4.44335e-21 5.28176e-21 3.8183e-21 3.83958e-21)
(-1.06684e-20 7.52718e-21 -2.02063e-22 -4.07422e-21 4.70187e-21 -9.94387e-21)
(-3.39529e-21 -1.01327e-21 -2.86833e-21 2.90551e-21 -1.90987e-21 6.68999e-21)
(-1.42383e-20 4.1067e-21 -3.77915e-21 -2.26379e-20 6.01953e-21 -4.5395e-21)
(-1.6462e-20 -1.27275e-20 1.56802e-21 -1.89809e-21 9.0114e-21 2.48285e-21)
(7.80916e-21 -8.08178e-21 -1.13815e-21 5.3222e-21 1.76657e-21 5.6096e-21)
(5.28294e-21 5.28655e-22 -1.71319e-21 -7.9662e-21 1.65346e-21 4.0081e-21)
(-2.03439e-20 3.4023e-21 -1.08596e-21 -3.58737e-20 4.36668e-21 -1.26562e-20)
(-3.01102e-20 1.91648e-20 1.9208e-21 -2.07222e-20 -8.42016e-23 -9.61016e-21)
(-6.51057e-21 -4.0961e-22 -4.72515e-21 -2.0501e-21 -7.00325e-21 -8.03949e-21)
(2.52403e-21 -8.68354e-21 -3.18552e-21 -4.65191e-21 -1.00785e-20 2.05167e-21)
(8.55276e-21 -4.88423e-21 3.3723e-21 2.90347e-20 3.43488e-21 3.81736e-21)
(-3.68541e-21 9.92523e-21 -4.34901e-21 1.36509e-21 -5.99746e-21 -2.98206e-22)
(-1.98082e-20 7.24886e-21 -5.76093e-21 -1.27394e-20 -2.92887e-21 -5.2097e-21)
(-7.05207e-21 3.61639e-22 3.05026e-21 4.81289e-21 -8.73311e-21 6.38647e-21)
(9.10826e-21 -3.68499e-21 4.32273e-22 3.01875e-20 2.60941e-21 1.04039e-20)
(3.7732e-21 -1.59572e-20 7.19911e-22 1.42934e-20 1.11125e-21 6.42054e-21)
(-1.0407e-20 3.73204e-21 -2.9831e-21 9.13473e-22 3.79096e-21 -2.94677e-21)
(-4.21164e-21 4.15472e-21 -1.71892e-21 -1.64832e-21 3.75439e-22 9.32766e-21)
(-1.25936e-20 2.54178e-21 -6.41118e-21 -1.26285e-21 5.41647e-21 -1.08745e-20)
(-6.46012e-21 -7.74245e-21 -4.04538e-21 5.30615e-21 4.28437e-21 1.68282e-21)
(-7.08268e-21 -1.23541e-21 -7.23193e-21 5.20568e-21 -2.31962e-23 1.21235e-22)
(-1.28649e-20 -3.1479e-21 3.49471e-21 -8.78717e-21 9.81615e-21 3.54869e-21)
(6.5424e-21 -6.06098e-21 -6.07478e-22 -5.63817e-21 -1.69251e-20 -3.65523e-21)
(1.47167e-20 -4.71099e-21 5.79539e-21 -2.29464e-21 -8.98203e-21 1.03777e-20)
(8.03393e-21 5.65817e-21 6.69599e-21 4.49629e-21 -4.55239e-21 7.54703e-21)
(-2.70638e-21 7.34652e-21 3.3245e-21 -4.15838e-23 4.67486e-21 1.11486e-20)
(1.72477e-22 1.20995e-21 -5.03805e-21 2.76426e-21 2.20955e-20 3.62863e-22)
(7.50157e-21 9.15187e-21 6.37177e-21 9.12867e-21 3.73196e-22 -1.42522e-21)
(1.6944e-20 -3.48111e-21 9.98867e-21 1.4571e-20 -4.8205e-21 1.55713e-20)
(5.98912e-21 -3.70533e-21 -1.5859e-21 1.28098e-20 -1.19191e-20 1.98809e-20)
(1.72874e-20 2.85965e-21 -5.31252e-21 1.0318e-20 5.66675e-21 1.75195e-20)
(1.18329e-20 5.88939e-21 -1.43939e-20 1.15343e-20 8.25655e-21 1.52347e-20)
(-3.09561e-21 -1.53586e-21 -2.61305e-22 -6.29461e-23 7.18325e-22 1.91126e-22)
(-1.78278e-21 -5.13933e-21 5.69208e-21 1.37702e-20 -9.60124e-21 2.6979e-20)
(1.8431e-21 8.5497e-21 5.78296e-23 -9.15677e-21 -1.10913e-20 -8.96063e-21)
(-5.48243e-21 -4.02233e-21 6.21415e-21 -5.55855e-21 3.93038e-21 4.22653e-23)
(-3.35138e-21 -7.98077e-21 -5.30481e-22 -1.04858e-20 1.10604e-21 4.32931e-21)
(-5.53684e-22 -1.367e-21 -2.37251e-21 -8.81147e-21 -3.86448e-21 8.97197e-21)
(-3.91348e-21 -5.04351e-22 -1.94537e-21 -1.59422e-20 1.01569e-20 -1.81963e-20)
(-1.92831e-20 -3.53939e-21 -5.82663e-24 -2.34914e-20 -1.55354e-22 -2.60391e-20)
(-1.06327e-20 -4.92406e-21 -1.06378e-22 -4.55196e-21 -1.53891e-20 -1.14277e-20)
(1.01407e-21 2.7831e-21 4.83421e-21 -1.09625e-20 -1.50124e-20 6.83808e-21)
(-2.0876e-21 -8.58328e-21 -1.24025e-21 7.01649e-21 1.93226e-20 6.592e-21)
(-3.28674e-21 -3.70537e-22 -1.01405e-20 2.91767e-21 4.91005e-21 -4.49482e-21)
(1.41177e-20 5.45138e-21 -5.0285e-21 1.14203e-20 -1.07827e-21 1.26437e-21)
(1.27384e-20 1.64384e-21 8.87141e-21 1.58955e-20 -8.72465e-21 2.01056e-20)
(7.66856e-21 -9.88615e-22 -4.68625e-22 1.13214e-20 2.32186e-21 1.2534e-20)
(6.96333e-21 1.18569e-21 -9.81884e-21 1.8616e-20 3.82412e-21 1.61393e-20)
(4.0396e-21 2.64088e-21 -6.37559e-21 5.92487e-21 5.99047e-21 5.2756e-21)
(2.12147e-21 -9.65818e-22 4.83219e-21 2.73491e-20 -2.00772e-22 3.29143e-20)
(-1.78401e-21 3.45755e-21 -2.48631e-21 2.35775e-21 -2.86835e-21 -1.41597e-21)
(-3.12963e-21 -2.34375e-21 -5.52942e-21 6.55723e-21 7.95567e-22 6.05216e-21)
(9.31136e-21 2.22655e-21 -8.27361e-21 -2.38528e-21 4.80568e-21 1.02999e-20)
(9.73379e-21 6.75921e-21 5.16432e-21 1.27346e-20 5.09848e-21 2.22292e-20)
(1.06963e-20 -7.52811e-21 -1.60947e-22 6.68734e-21 2.43333e-21 1.3652e-20)
(2.3554e-20 -2.57251e-21 7.02905e-22 -1.38345e-21 -3.06802e-21 9.7106e-21)
(1.05996e-20 7.75057e-21 8.71702e-22 -9.03109e-22 -1.95225e-22 1.09764e-20)
(-2.67046e-22 7.55274e-21 -4.05377e-23 -1.46882e-21 2.72678e-21 -9.989e-22)
(2.77456e-21 -4.60317e-22 -3.97528e-21 6.37065e-21 1.16287e-20 -6.72082e-22)
(1.09657e-20 -6.82295e-21 -3.23315e-21 1.04915e-20 1.14035e-20 7.7452e-21)
(1.1545e-20 -5.82193e-21 4.43516e-21 9.9999e-21 2.16302e-21 4.46966e-21)
(2.70737e-21 -8.23134e-22 -9.22823e-24 7.02324e-21 9.38611e-21 2.32588e-21)
(-1.37542e-21 3.77633e-21 6.11025e-21 -1.68947e-20 -4.93804e-22 -1.45369e-20)
(3.16385e-21 2.45797e-21 -4.22699e-21 5.77931e-21 8.74103e-21 7.18153e-21)
(1.65403e-20 -3.41726e-21 -6.10407e-22 6.11986e-22 -1.73654e-22 1.36575e-20)
(8.3038e-21 -2.09376e-21 8.96253e-22 9.25829e-21 -4.97373e-21 1.54986e-20)
(-1.49004e-21 8.20117e-21 2.73107e-21 -1.14974e-20 -1.12152e-20 -2.74671e-21)
(-4.07802e-21 4.19972e-21 5.95052e-22 -7.30524e-21 -1.79567e-20 -6.71201e-21)
(1.67214e-21 -5.52867e-21 -2.79057e-21 -9.31893e-21 -9.4882e-21 -8.84087e-22)
(2.22746e-21 2.57065e-22 2.21668e-22 -9.45044e-21 -1.78933e-20 2.45512e-21)
(-6.44573e-21 -1.10594e-21 -7.55932e-21 3.16576e-21 7.14919e-21 3.21616e-21)
(-9.05775e-21 -2.06989e-21 3.12957e-22 -1.2613e-20 -4.87932e-21 -5.57345e-21)
(1.08348e-20 -4.41072e-21 1.0473e-20 2.52679e-22 -3.74634e-21 1.02742e-20)
(9.85151e-21 4.72716e-21 5.54952e-21 -5.00093e-21 -5.85678e-21 1.16529e-20)
(3.16868e-21 -4.17625e-21 -3.6666e-21 1.44591e-20 1.98726e-20 1.01591e-20)
(4.69669e-21 -1.48705e-21 -1.55355e-21 6.30293e-21 2.31816e-20 6.93262e-21)
(2.31104e-20 7.59493e-22 4.65874e-21 1.5704e-20 8.38465e-21 1.61687e-20)
(1.84332e-20 9.6995e-22 2.70765e-21 2.48305e-20 9.05153e-21 2.24891e-20)
(-2.34913e-21 -4.42354e-22 6.44792e-21 2.96589e-21 8.64636e-21 3.2334e-21)
(7.73883e-22 -2.4219e-21 -1.18412e-22 8.3961e-21 8.65311e-21 6.07689e-21)
(2.14992e-20 5.23139e-21 -1.18483e-22 1.68852e-20 2.51985e-21 1.80215e-20)
(1.6088e-20 7.56495e-22 1.24611e-21 2.51128e-20 -1.9434e-21 2.91735e-20)
(-6.30852e-21 6.71734e-22 9.60108e-23 -5.71608e-21 2.70232e-22 1.68397e-20)
(1.7463e-21 3.63112e-21 -2.57856e-21 7.73647e-22 -5.70663e-21 8.16548e-21)
(2.13896e-20 6.00568e-21 -1.51114e-21 8.06869e-21 -1.77367e-21 1.82773e-20)
(1.39729e-20 5.38799e-23 1.32103e-21 6.11683e-21 -1.05048e-20 2.85943e-20)
(6.85848e-21 -1.01842e-20 3.52165e-21 8.74372e-21 -5.25869e-21 1.6307e-21)
(1.74463e-20 -7.92092e-21 3.72009e-21 6.4595e-21 4.55325e-21 2.44622e-21)
(6.62219e-21 9.49725e-21 -4.66729e-21 5.97775e-21 5.04628e-21 8.39549e-22)
(-4.36462e-21 6.52165e-21 -4.09652e-21 1.05271e-20 1.3048e-21 -5.46929e-21)
(6.25808e-22 7.56693e-21 3.17851e-21 -3.64989e-21 -3.82827e-21 -1.19025e-20)
(1.09832e-20 4.09548e-21 6.58557e-21 1.74849e-20 7.95082e-22 5.53274e-21)
(1.5445e-20 -5.45825e-21 -2.77257e-22 1.1738e-20 2.043e-22 -7.89494e-22)
(2.02276e-21 -3.05129e-21 -1.26422e-21 2.8308e-21 5.39553e-21 -4.98551e-21)
(3.70566e-22 9.61315e-21 5.24925e-21 -1.42777e-20 8.02678e-21 -1.55232e-20)
(-7.8825e-21 9.6704e-21 8.2302e-21 -1.96958e-20 -2.41604e-21 -1.7098e-20)
(-1.3332e-20 -9.055e-21 5.52754e-22 -1.34537e-20 -1.04389e-21 -1.25262e-20)
(-2.38391e-21 -5.1075e-21 -2.6692e-21 -1.49488e-20 -5.91693e-21 -1.80714e-20)
(-3.20406e-21 -5.15204e-21 -2.28513e-21 -1.22444e-21 1.14371e-20 -8.31089e-21)
(-1.02526e-20 4.03445e-22 2.23024e-21 -1.92572e-20 -4.90354e-21 -6.23631e-21)
(-2.88728e-21 3.03803e-21 7.90692e-22 -1.42918e-20 -3.39877e-22 -9.85254e-22)
(2.91739e-21 3.30361e-21 -6.19506e-22 -9.56763e-21 -6.50097e-21 2.40787e-21)
(1.11304e-20 -7.2225e-21 -2.61569e-21 1.51755e-20 1.84919e-20 1.26456e-20)
(1.35141e-20 -6.25777e-21 4.37001e-21 1.7907e-20 1.22013e-20 1.79696e-20)
(3.59515e-21 2.43704e-21 5.36342e-21 1.40325e-20 2.17448e-21 1.34958e-20)
(-4.37878e-21 5.43016e-21 -2.85699e-21 1.70112e-20 3.40173e-21 1.39288e-20)
(2.31497e-21 5.62188e-21 2.67954e-21 5.48975e-21 1.24706e-20 7.47407e-21)
(8.15397e-21 -2.34433e-22 -3.46851e-21 1.51191e-20 1.09272e-20 6.16887e-21)
(2.10571e-20 -4.43605e-21 -2.84991e-21 1.81187e-20 2.35942e-21 6.67491e-21)
(1.2708e-20 -2.32502e-21 -1.40684e-21 1.99204e-20 4.16922e-21 9.3202e-21)
(4.92891e-23 4.14644e-21 1.95024e-21 -1.13894e-20 5.8661e-21 -6.73249e-22)
(-7.40459e-21 3.04699e-21 3.38808e-21 -1.45871e-20 -6.26234e-22 -7.04748e-21)
(-7.8461e-21 -2.17468e-21 2.86283e-21 -5.50649e-21 -1.32836e-21 2.55742e-21)
(8.24266e-22 -2.51198e-21 -3.90212e-21 2.34774e-22 -4.19816e-21 -2.34404e-21)
(-3.84612e-21 -1.90714e-21 -1.18496e-21 -5.71655e-21 1.64345e-21 1.01414e-21)
(-7.09981e-21 -1.92336e-21 -5.86759e-21 -9.4457e-21 -1.71616e-21 1.82569e-21)
(1.33791e-20 2.09292e-21 -7.18833e-22 -7.94918e-21 -5.71927e-21 7.03773e-21)
(1.71483e-20 7.22068e-21 -6.65744e-22 -3.17411e-21 -9.31612e-21 9.62252e-21)
(1.23574e-20 -3.13711e-21 1.40864e-21 5.36355e-22 -7.09428e-21 1.01583e-21)
(1.2763e-20 4.73827e-21 5.53769e-22 3.70148e-21 3.08407e-21 -2.05111e-21)
(1.72068e-21 2.85355e-21 -5.56423e-21 2.78368e-21 -8.87801e-22 -3.48658e-21)
(-3.76506e-22 2.92524e-21 -1.59507e-21 3.92224e-21 -6.23098e-21 2.97011e-22)
(6.26065e-21 3.77063e-22 4.97858e-21 1.71651e-20 -3.57155e-21 6.97282e-21)
(1.37817e-20 -3.81773e-21 4.35672e-21 3.12589e-21 -7.07719e-21 -4.80811e-22)
(4.40204e-21 -1.69527e-21 -4.27937e-21 3.87459e-21 -1.04089e-20 -1.656e-21)
(1.95324e-21 1.25458e-22 7.14855e-23 -1.29722e-21 -2.46427e-21 -1.5139e-21)
(1.29703e-21 -1.90186e-21 -3.28727e-21 -4.48213e-21 5.21082e-21 1.87636e-21)
(2.00242e-21 -2.43641e-21 -7.3916e-21 -2.00884e-21 -1.19475e-21 -1.05041e-20)
(1.47912e-21 -3.00415e-21 6.83658e-22 -1.5788e-21 1.17881e-21 -1.05432e-20)
(1.88498e-21 -1.77938e-21 6.71594e-21 -3.94795e-21 3.81991e-21 -6.52435e-21)
(5.72248e-21 2.09283e-22 1.32579e-21 -3.38723e-21 1.80494e-20 -1.56524e-21)
(2.07865e-21 4.08351e-23 3.6849e-21 5.24426e-21 1.8164e-20 6.11155e-21)
(3.80304e-21 -1.0316e-21 1.12106e-21 -7.71498e-21 1.75693e-20 -1.10838e-21)
(4.30199e-21 -7.25763e-23 9.98165e-22 -1.37973e-21 1.49585e-20 1.43579e-20)
(1.81814e-21 3.93136e-21 6.24296e-21 1.18024e-21 2.17161e-20 -4.56161e-21)
(-9.30672e-22 -7.56709e-21 9.96934e-22 7.92968e-22 6.74971e-21 -3.76752e-21)
(9.9465e-22 -7.88628e-21 -2.81272e-21 1.19206e-21 3.51795e-21 -8.72361e-21)
(1.72639e-21 3.97595e-21 -2.86333e-21 4.34439e-21 5.10831e-22 1.51668e-21)
(-8.28614e-21 8.56992e-22 4.56293e-22 -3.4728e-21 3.88706e-21 -1.2182e-20)
(-1.20716e-20 -1.50856e-21 -3.78214e-21 -9.96147e-21 -4.40179e-21 -1.10077e-20)
(1.75529e-20 -9.54813e-22 -1.65749e-22 9.32673e-21 -5.14619e-21 1.39565e-21)
(1.93007e-20 2.18007e-22 -1.36809e-21 1.39537e-20 -9.85427e-21 4.44949e-21)
(-4.93291e-22 -2.36501e-21 3.11349e-22 -1.76371e-20 -6.30475e-22 -3.775e-21)
(-8.99267e-21 -2.18778e-21 -8.4348e-22 -8.14968e-21 6.90808e-22 -6.68208e-21)
(-1.47014e-21 7.68755e-21 -6.09207e-22 3.61681e-21 -1.73023e-21 -6.60014e-21)
(4.1257e-21 1.13132e-21 -1.53445e-21 1.75495e-21 -5.48727e-21 -1.21774e-20)
(-1.3478e-20 3.05845e-21 8.49307e-22 -9.4867e-21 -1.54398e-22 -1.16666e-20)
(-1.25627e-20 -2.26664e-22 -6.49362e-22 1.97625e-21 -2.30487e-22 1.26737e-21)
(1.87411e-20 2.32801e-21 -1.762e-21 8.861e-22 -1.28875e-21 5.52704e-21)
(1.40577e-20 2.88489e-21 -2.1588e-21 -5.91418e-21 -2.03349e-21 1.944e-21)
(6.60022e-21 -6.35507e-21 1.56273e-21 1.09565e-21 1.75997e-22 5.05476e-21)
(1.14562e-20 -5.17695e-21 2.27308e-22 2.12163e-21 1.16718e-21 9.64292e-21)
(9.48426e-21 1.50976e-21 -2.08852e-21 -5.75394e-21 2.25706e-22 3.25723e-21)
(4.16115e-21 6.46262e-21 -7.72505e-22 2.53649e-21 5.19819e-23 1.11789e-20)
(-1.61448e-21 2.06659e-21 2.47546e-22 6.53701e-21 -3.62035e-21 1.13679e-20)
(1.13157e-20 -5.13617e-21 4.73672e-22 1.34134e-20 -7.59084e-21 9.54929e-22)
(1.78649e-20 -1.71178e-23 -2.96241e-22 1.3241e-20 -6.58816e-21 7.26662e-21)
(6.88477e-21 4.93481e-21 -8.86684e-23 1.05065e-20 -8.72935e-22 5.66424e-21)
(-2.95792e-21 5.72777e-21 -4.06412e-21 4.73322e-21 1.98807e-22 4.28908e-21)
(6.02559e-21 8.3866e-21 -4.35602e-21 3.66503e-21 4.99586e-21 4.78555e-21)
(1.57825e-20 -4.38098e-21 5.40918e-21 1.30264e-20 2.81758e-22 1.41152e-20)
(6.0331e-21 -4.52785e-21 5.09934e-21 1.13436e-21 1.08108e-20 7.97297e-21)
(2.801e-21 4.30341e-21 4.64516e-21 1.22391e-20 5.53959e-21 -1.17752e-21)
(-6.09637e-21 8.61762e-21 1.85416e-22 -1.40005e-20 2.52616e-21 -1.27125e-20)
(-4.90364e-21 -7.24465e-22 4.54128e-21 -1.413e-20 2.22608e-21 -3.11133e-21)
(5.64657e-21 -6.44221e-21 3.14691e-21 -1.46948e-20 2.2761e-21 -3.4046e-21)
(2.87958e-22 -7.97059e-21 -4.27018e-21 -2.71915e-21 7.98607e-21 -1.6735e-20)
(-9.09999e-21 -1.34724e-20 -3.91083e-21 -8.01812e-21 -4.81905e-21 -2.40918e-20)
(-1.47256e-20 1.29344e-21 6.96942e-21 -1.15994e-20 4.73342e-21 -1.52246e-20)
(-2.09585e-21 3.07615e-21 4.5316e-21 -1.02574e-20 -6.4979e-21 -1.6713e-20)
(-5.9401e-21 -1.14913e-23 -3.15765e-21 -2.14796e-20 1.32068e-20 -2.07743e-20)
(-5.54946e-21 -1.43318e-21 3.97884e-21 4.88625e-21 7.46922e-21 -2.79292e-21)
(1.3868e-20 -1.59509e-21 9.1345e-21 9.08566e-21 3.68339e-21 -1.30255e-21)
(1.07386e-20 -7.02126e-22 -2.4108e-21 1.07324e-20 -1.03143e-20 -2.41702e-21)
(-1.15801e-21 5.1097e-21 -1.39614e-21 -1.91787e-20 7.63006e-21 -9.31617e-21)
(-1.60029e-20 7.27009e-21 -4.87417e-21 -1.37774e-20 1.04375e-20 -1.58891e-20)
(-1.58814e-20 -2.64368e-21 -3.8173e-21 -5.6114e-21 1.14917e-21 -1.03124e-20)
(-3.12735e-21 -2.69553e-21 -1.88432e-21 4.30128e-21 -5.80602e-21 -1.35338e-20)
(-6.66254e-21 -4.18271e-22 5.09529e-21 -3.39117e-21 -2.58114e-21 -8.54676e-21)
(-1.86505e-20 -7.32075e-22 4.24334e-21 -8.4739e-21 2.05749e-21 -8.74863e-21)
(3.4666e-21 2.10091e-21 -6.50607e-21 -8.15371e-21 1.63747e-21 1.31566e-21)
(1.36239e-20 7.40458e-21 -8.09378e-21 -7.5509e-23 5.86062e-21 3.67164e-21)
(8.11433e-21 -1.93619e-21 8.1446e-21 -3.17861e-21 4.92777e-21 4.72171e-21)
(6.17739e-21 5.32034e-21 9.48499e-22 -3.77263e-21 1.09091e-20 4.08848e-21)
(-9.6174e-22 1.33453e-21 -6.35326e-21 -4.55637e-21 7.34722e-21 6.59432e-22)
(5.68644e-22 2.43937e-21 -1.68062e-21 2.30899e-21 6.82549e-21 9.64255e-22)
(9.79912e-21 -5.42027e-21 2.73478e-21 1.7961e-20 -5.00214e-21 6.18685e-21)
(1.20244e-20 -8.98913e-21 5.01765e-21 8.23188e-21 -1.13329e-20 2.2172e-21)
(4.1134e-21 5.19483e-21 -1.53893e-21 4.35151e-21 7.67955e-22 1.68132e-21)
(8.77639e-22 5.8073e-21 -5.21545e-21 9.25468e-21 -5.27662e-21 9.50062e-22)
(2.70948e-21 2.39064e-21 2.56163e-23 3.01812e-21 -6.52133e-21 2.82994e-21)
(1.55892e-20 -3.19576e-21 4.88104e-21 6.64458e-21 -1.37213e-20 8.16441e-21)
(1.5127e-20 1.21491e-21 1.72036e-21 6.071e-21 -8.3249e-21 9.19395e-21)
(3.89963e-21 1.20372e-21 -4.1216e-21 -1.92553e-21 -4.28035e-21 -1.58122e-22)
(-6.31854e-22 2.88668e-23 -7.4293e-21 1.44586e-21 -2.17956e-21 -5.36073e-21)
(1.72218e-21 3.93189e-22 -1.23443e-23 -7.35905e-21 -9.56425e-21 -1.30359e-20)
(-1.82953e-21 2.58004e-22 1.08866e-20 -5.60087e-21 -1.08296e-20 -1.85257e-21)
(2.76606e-21 -7.92486e-22 1.45406e-21 -2.07835e-20 -8.70904e-21 -1.73308e-20)
(3.25151e-21 -3.81079e-21 -8.02751e-21 5.23747e-21 2.48197e-21 -5.56291e-21)
(1.12225e-20 -3.62814e-21 -3.99072e-21 2.0748e-21 1.69434e-20 2.95251e-22)
(8.72582e-21 -3.21817e-21 7.04554e-21 -6.564e-22 6.18784e-21 3.73068e-21)
(2.41589e-21 -1.59174e-21 3.18504e-21 -1.10963e-20 2.56052e-21 -6.03506e-21)
(6.37685e-22 3.70536e-21 5.14711e-21 -7.99732e-21 1.22331e-20 -9.46298e-21)
(-8.74564e-22 -2.26055e-21 7.46323e-21 5.4783e-22 4.73958e-21 6.24662e-22)
(4.52265e-21 -1.12013e-20 -4.2934e-22 1.15928e-21 8.20253e-22 -6.9292e-21)
(1.77242e-21 -5.89465e-21 -3.27287e-21 1.22576e-20 -5.33918e-21 -8.18868e-21)
(-6.25429e-21 5.36988e-21 -7.89506e-21 -3.7521e-20 1.39434e-20 -1.94322e-20)
(-1.78541e-20 -2.19244e-21 -8.41637e-21 -2.03681e-20 -2.78906e-21 -1.24588e-20)
(3.1141e-21 -5.5189e-21 3.37461e-22 -5.76275e-21 1.43316e-21 -5.94203e-21)
(5.88275e-21 -2.36644e-21 5.14568e-22 2.06514e-20 2.22956e-21 1.31914e-21)
(-1.87422e-20 7.18621e-21 -1.27709e-21 -2.1487e-20 4.64739e-22 -2.24168e-20)
(-3.43597e-20 5.85132e-21 2.28759e-21 -7.60265e-21 7.54273e-21 -2.16063e-20)
(-6.20693e-21 4.77439e-21 3.28684e-21 -2.2669e-22 6.24019e-21 -9.38606e-21)
(3.00581e-21 1.48352e-21 -7.10989e-21 1.17994e-20 1.12383e-20 -3.9942e-21)
(-4.62217e-21 3.59393e-21 3.97579e-21 -1.02643e-21 9.90481e-21 -1.04758e-20)
(-1.34858e-20 7.34419e-22 -3.09384e-21 -8.18159e-22 6.95831e-21 -1.73519e-20)
(-2.88852e-21 -5.54012e-21 -5.67527e-21 -4.37655e-23 2.43248e-21 -5.19855e-21)
(4.72364e-21 -4.66741e-22 -1.14582e-21 1.39688e-21 1.52701e-21 -7.65702e-21)
(1.61515e-21 -5.59025e-21 1.49849e-21 -1.81651e-21 -5.9072e-21 -8.69788e-21)
(-3.68702e-22 -1.50614e-21 -2.41895e-21 -7.096e-21 -2.97688e-21 -5.73105e-21)
(5.70006e-22 7.04166e-21 -2.14039e-21 1.68272e-22 2.56903e-21 -8.05013e-21)
(1.33427e-21 2.24366e-21 -1.83028e-21 1.78062e-21 -1.60142e-21 -4.12776e-21)
(2.56026e-21 -4.34126e-21 3.04319e-21 6.40597e-21 -1.15871e-20 8.815e-22)
(8.06823e-21 2.80566e-21 3.95948e-21 4.10087e-21 -1.02093e-20 -1.36944e-21)
(5.18725e-21 7.14588e-21 -3.0767e-21 5.52826e-22 -2.77888e-21 -7.96045e-21)
(1.50843e-21 1.88897e-21 -4.29067e-21 -3.01285e-21 -6.82475e-21 -8.72865e-22)
(1.2089e-20 -3.47054e-21 -5.41458e-21 1.77501e-20 -2.05399e-21 9.87954e-21)
(2.12709e-20 -2.82849e-22 3.34194e-21 1.31097e-20 -4.43099e-21 1.89448e-20)
(2.45713e-21 4.2039e-21 3.81164e-21 -1.80776e-21 -2.1996e-21 3.21218e-21)
(-3.08769e-21 7.75499e-22 -1.06462e-21 -9.5785e-21 -2.38454e-21 6.80277e-21)
(7.69385e-21 4.63873e-21 -5.94589e-22 8.09316e-21 5.65836e-21 3.94779e-21)
(1.72673e-20 -5.24598e-21 3.13796e-21 2.71582e-21 1.09686e-20 1.18761e-20)
(6.58404e-21 -9.0913e-21 8.35539e-22 -2.75249e-21 1.74091e-21 4.01829e-21)
(-3.10201e-21 -1.43753e-21 -2.74924e-21 -9.02593e-21 4.88239e-21 9.10785e-21)
(1.89822e-22 4.30593e-22 2.62169e-21 -1.26573e-20 2.2742e-21 -2.22543e-21)
(-4.05558e-21 -5.09017e-21 1.26899e-21 -1.68184e-20 -2.25079e-21 -1.24857e-20)
(3.49157e-21 -7.26848e-21 -2.24745e-21 2.30217e-22 -2.97083e-21 -7.47522e-21)
(2.20587e-21 -2.79694e-21 -1.0545e-21 7.77756e-21 3.9621e-22 -3.04146e-21)
(-2.73611e-22 -6.14757e-22 -3.94106e-21 -3.49525e-20 8.08835e-22 -1.67996e-20)
(-6.85974e-21 1.38361e-21 1.52251e-23 -8.84072e-21 -5.65837e-21 3.52853e-21)
(3.96759e-21 1.35208e-21 3.90583e-21 -6.00463e-21 3.08574e-21 9.90531e-22)
(-1.37492e-21 -4.84239e-21 -2.92614e-22 2.26143e-20 1.7085e-21 1.00892e-20)
(-8.52073e-21 9.56591e-21 -2.84744e-21 -2.26228e-20 9.28912e-22 -2.33918e-20)
(-2.45285e-20 7.02021e-21 6.85338e-21 6.14358e-21 3.52983e-21 -1.02682e-20)
(-2.46141e-20 1.64465e-21 5.00452e-21 2.04284e-21 2.05836e-21 -2.11274e-20)
(-1.40493e-20 -7.95257e-22 -4.64227e-21 1.59718e-20 1.80356e-21 -1.33108e-20)
)
;

boundaryField
{
    interface
    {
        type            calculated;
        value           nonuniform List<symmTensor> 
192
(
(-4.41324e-22 4.66398e-23 -1.20805e-21 -4.67355e-22 -4.50544e-21 -1.67282e-20)
(5.42596e-21 -1.63168e-21 -1.54704e-21 -7.98206e-21 -1.43816e-21 -6.19847e-21)
(4.99534e-21 -7.17724e-22 -1.20883e-21 2.16551e-20 2.89082e-21 2.09808e-20)
(9.16242e-21 4.42735e-21 -4.59388e-22 -2.26379e-20 6.01953e-21 -4.5395e-21)
(1.24613e-21 -1.10633e-21 -2.70933e-21 -3.58737e-20 4.36668e-21 -1.26562e-20)
(-2.15167e-21 -4.40438e-21 1.55003e-22 2.90347e-20 3.43488e-21 3.81736e-21)
(-2.0167e-21 2.19523e-21 -4.34654e-22 3.01875e-20 2.60941e-21 1.04039e-20)
(-3.62702e-21 2.73978e-21 -1.80795e-21 -1.26285e-21 5.41647e-21 -1.08745e-20)
(-3.83035e-22 -2.51263e-21 -1.16533e-21 -5.63817e-21 -1.69251e-20 -3.65523e-21)
(1.16634e-21 -1.91625e-21 -1.67501e-21 2.76426e-21 2.20955e-20 3.62863e-22)
(1.79193e-21 3.97657e-22 4.47424e-22 1.0318e-20 5.66675e-21 1.75195e-20)
(7.3393e-21 3.04852e-21 -6.11008e-22 -9.15677e-21 -1.10913e-20 -8.96063e-21)
(6.00402e-21 -5.76965e-22 -3.81936e-21 -1.59422e-20 1.01569e-20 -1.81963e-20)
(-3.97568e-23 -2.15469e-21 -1.28501e-21 7.01649e-21 1.93226e-20 6.592e-21)
(-2.09885e-21 4.57993e-22 3.13992e-22 1.13214e-20 2.32186e-21 1.2534e-20)
(-6.61529e-22 1.60805e-21 -2.0181e-21 2.35775e-21 -2.86835e-21 -1.41597e-21)
(-7.3738e-21 -2.79371e-21 -2.07506e-22 6.68734e-21 2.43333e-21 1.3652e-20)
(-1.45098e-21 -1.89288e-23 -1.12056e-21 6.37065e-21 1.16287e-20 -6.72082e-22)
(6.27651e-21 3.46283e-22 2.14422e-21 -1.68947e-20 -4.93804e-22 -1.45369e-20)
(2.78182e-21 1.60567e-22 -5.06357e-22 -1.14974e-20 -1.12152e-20 -2.74671e-21)
(2.73028e-21 -1.78033e-21 -3.24868e-21 3.16576e-21 7.14919e-21 3.21616e-21)
(9.36804e-24 -2.71033e-22 -1.38217e-21 1.44591e-20 1.98726e-20 1.01591e-20)
(2.60877e-22 1.46214e-21 1.24652e-21 2.96589e-21 8.64636e-21 3.2334e-21)
(-2.17354e-21 4.64963e-22 -2.22298e-24 -5.71608e-21 2.70232e-22 1.68397e-20)
(-4.2641e-21 -3.84069e-21 2.51555e-22 8.74372e-21 -5.25869e-21 1.6307e-21)
(7.08927e-21 4.35473e-22 3.36757e-22 -3.64989e-21 -3.82827e-21 -1.19025e-20)
(6.49272e-21 1.01186e-21 6.34829e-22 -1.42777e-20 8.02678e-21 -1.55232e-20)
(2.1264e-21 -2.34438e-21 -1.18292e-21 -1.22444e-21 1.14371e-20 -8.31089e-21)
(-7.98722e-22 -1.45278e-21 3.10282e-22 1.51755e-20 1.84919e-20 1.26456e-20)
(7.43746e-22 2.34051e-21 2.80549e-21 5.48975e-21 1.24706e-20 7.47407e-21)
(5.01928e-21 1.83794e-21 1.2345e-21 -1.13894e-20 5.8661e-21 -6.73249e-22)
(3.3109e-21 3.02835e-22 6.60758e-22 -5.71655e-21 1.64345e-21 1.01414e-21)
(5.40859e-22 -2.20539e-21 2.34442e-22 5.36355e-22 -7.09428e-21 1.01583e-21)
(-1.09306e-20 3.64345e-22 1.23282e-21 1.71651e-20 -3.57155e-21 6.97282e-21)
(-5.18273e-22 -1.1734e-21 -4.50967e-23 -4.48213e-21 5.21082e-21 1.87636e-21)
(4.39586e-21 -1.6398e-22 -5.17865e-22 -3.38723e-21 1.80494e-20 -1.56524e-21)
(2.83593e-21 2.20808e-21 2.59158e-21 1.18024e-21 2.17161e-20 -4.56161e-21)
(3.26247e-21 6.53185e-22 1.9969e-21 -3.4728e-21 3.88706e-21 -1.2182e-20)
(1.02084e-20 -6.82588e-22 1.07486e-21 -1.76371e-20 -6.30475e-22 -3.775e-21)
(1.09908e-20 -1.188e-22 1.05185e-21 -9.4867e-21 -1.54398e-22 -1.16666e-20)
(-2.75276e-21 -2.37343e-21 9.86251e-23 1.09565e-21 1.75997e-22 5.05476e-21)
(-8.03209e-21 1.55935e-22 -8.55769e-22 6.53701e-21 -3.62035e-21 1.13679e-20)
(-3.10123e-21 -7.38829e-22 -1.10384e-21 4.73322e-21 1.98807e-22 4.28908e-21)
(1.81527e-21 2.923e-22 2.11688e-21 1.22391e-20 5.53959e-21 -1.17752e-21)
(5.35147e-21 1.06199e-21 -7.43645e-22 -2.71915e-21 7.98607e-21 -1.6735e-20)
(8.21566e-21 8.23787e-22 -3.16279e-22 -2.14796e-20 1.32068e-20 -2.07743e-20)
(1.14139e-20 8.92884e-22 1.83386e-21 -1.91787e-20 7.63006e-21 -9.31617e-21)
(8.669e-21 3.00638e-22 2.66883e-21 -3.39117e-21 -2.58114e-21 -8.54676e-21)
(-1.17851e-21 -2.96254e-21 1.19931e-21 -3.17861e-21 4.92777e-21 4.72171e-21)
(-1.97852e-21 -8.38118e-22 7.63826e-22 1.7961e-20 -5.00214e-21 6.18685e-21)
(-2.35767e-21 1.79925e-21 7.08498e-22 3.01812e-21 -6.52133e-21 2.82994e-21)
(-4.94928e-22 1.96212e-22 8.40622e-25 1.44586e-21 -2.17956e-21 -5.36073e-21)
(1.88337e-21 -2.25082e-22 -2.70746e-22 5.23747e-21 2.48197e-21 -5.56291e-21)
(5.73127e-21 3.23069e-21 1.44741e-21 -7.99732e-21 1.22331e-20 -9.46298e-21)
(1.47807e-20 2.30252e-21 3.36622e-22 -3.7521e-20 1.39434e-20 -1.94322e-20)
(1.23834e-20 7.74308e-22 9.98541e-22 -2.1487e-20 4.64739e-22 -2.24168e-20)
(3.33196e-21 -4.10295e-22 1.04382e-21 -1.02643e-21 9.90481e-21 -1.04758e-20)
(2.51743e-21 -3.34873e-22 1.50842e-21 -1.81651e-21 -5.9072e-21 -8.69788e-21)
(-2.93737e-21 -1.50181e-21 1.54707e-21 6.40597e-21 -1.15871e-20 8.815e-22)
(-6.98421e-21 -6.86944e-22 -1.79265e-21 1.77501e-20 -2.05399e-21 9.87954e-21)
(-2.31744e-21 2.50856e-21 6.63908e-22 8.09316e-21 5.65836e-21 3.94779e-21)
(6.21867e-21 1.43116e-21 9.40993e-22 -1.26573e-20 2.2742e-21 -2.22543e-21)
(1.38844e-20 4.4402e-22 -1.13562e-21 -3.49525e-20 8.08835e-22 -1.67996e-20)
(7.93017e-21 1.1122e-21 -9.17503e-22 -2.26228e-20 9.28912e-22 -2.33918e-20)
(-6.58182e-21 -2.18042e-21 -2.52561e-21 -4.67355e-22 -5.94544e-22 -4.13939e-21)
(-1.87351e-20 5.82076e-21 1.76054e-22 -7.98206e-21 -4.05173e-21 7.48961e-21)
(1.05324e-20 -1.75504e-21 8.79875e-22 2.16551e-20 1.5616e-22 7.42267e-21)
(-1.42383e-20 4.1067e-21 -1.56651e-22 -2.26379e-20 4.30135e-21 1.1531e-20)
(-2.03439e-20 3.4023e-21 -5.80116e-22 -3.58737e-20 -1.61207e-21 3.53751e-21)
(8.55276e-21 -4.88423e-21 8.63621e-22 2.90347e-20 -3.10532e-21 -1.75619e-21)
(9.10826e-21 -3.68499e-21 -2.80382e-22 3.01875e-20 2.85072e-21 -1.30683e-21)
(-1.25936e-20 2.54178e-21 -1.84503e-21 -1.26285e-21 2.9112e-21 -2.78826e-21)
(7.62317e-22 -1.62787e-20 -1.38811e-21 6.51923e-21 -2.71453e-21 -2.43226e-21)
(-1.89711e-20 1.49497e-20 -2.68732e-21 1.35447e-21 -6.46195e-22 3.5449e-21)
(-7.99204e-22 2.31151e-21 2.3781e-21 5.28176e-21 -2.67185e-22 3.95409e-21)
(-1.6462e-20 -1.27275e-20 -1.34031e-21 -1.89809e-21 2.9664e-21 8.74381e-21)
(-3.01102e-20 1.91648e-20 -1.97467e-21 -2.07222e-20 -6.42997e-22 9.5519e-21)
(-3.68541e-21 9.92523e-21 -6.90296e-23 1.36509e-21 -2.99514e-21 4.14835e-21)
(3.7732e-21 -1.59572e-20 -2.2936e-22 1.42934e-20 3.05641e-22 1.26246e-21)
(-6.46012e-21 -7.74245e-21 -2.69862e-21 5.30615e-21 1.57072e-21 2.59353e-21)
(1.71098e-20 -9.75813e-21 4.32854e-22 6.52983e-21 -4.66997e-21 -6.25186e-21)
(2.66312e-20 9.49353e-23 -2.46585e-21 1.42033e-20 -2.85521e-22 -5.65685e-21)
(-1.06684e-20 7.52718e-21 -4.92465e-22 -4.07422e-21 1.50316e-21 2.22876e-21)
(7.80916e-21 -8.08178e-21 -6.98555e-22 5.3222e-21 -5.14223e-23 9.11925e-22)
(-6.51057e-21 -4.0961e-22 -1.97209e-21 -2.0501e-21 -3.40788e-22 5.59839e-21)
(-1.98082e-20 7.24886e-21 -2.52118e-21 -1.27394e-20 -1.36001e-21 7.18793e-21)
(-1.0407e-20 3.73204e-21 -1.8022e-21 9.13473e-22 2.21123e-22 6.3658e-21)
(-7.08268e-21 -1.23541e-21 -1.87311e-21 5.20568e-21 5.67322e-22 4.60014e-21)
(8.00747e-21 6.23128e-21 -6.7119e-22 3.20483e-21 -4.74752e-21 -3.74017e-21)
(2.28932e-20 -4.23854e-21 4.54232e-22 3.06502e-20 -1.57151e-21 -3.28236e-21)
(-3.39529e-21 -1.01327e-21 -1.71267e-21 2.90551e-21 1.50011e-21 2.04244e-23)
(5.28294e-21 5.28655e-22 4.70132e-22 -7.9662e-21 1.48677e-21 5.83378e-22)
(2.52403e-21 -8.68354e-21 -2.76799e-22 -4.65191e-21 -2.46562e-21 1.61748e-21)
(-7.05207e-21 3.61639e-22 -1.26624e-21 4.81289e-21 -2.82525e-21 3.89476e-21)
(-4.21164e-21 4.15472e-21 -1.62898e-21 -1.64832e-21 9.53705e-22 5.18369e-21)
(-1.28649e-20 -3.1479e-21 -5.90623e-22 -8.78717e-21 1.78641e-21 3.1862e-21)
(-3.9578e-21 5.46355e-21 -8.06614e-22 3.20483e-21 -5.24258e-21 9.87178e-21)
(-2.52194e-21 -1.30692e-21 -8.66536e-22 3.06502e-20 -7.84084e-21 1.50669e-20)
(-3.12167e-21 -1.68843e-21 2.12737e-21 2.90551e-21 -1.90987e-21 6.68999e-21)
(-3.37562e-22 9.23685e-23 -6.39091e-22 -7.9662e-21 1.65346e-21 4.0081e-21)
(-2.17257e-22 -2.21608e-21 8.99533e-22 -4.65191e-21 -1.00785e-20 2.05167e-21)
(-1.11568e-21 6.46293e-22 4.02245e-21 4.81289e-21 -8.73311e-21 6.38647e-21)
(-2.96212e-22 -2.83452e-23 2.25633e-21 -1.64832e-21 3.75439e-22 9.32766e-21)
(-2.9245e-21 -1.35604e-21 3.33889e-21 -8.78717e-21 9.81615e-21 3.54869e-21)
(-5.51502e-21 3.80851e-21 -1.72342e-22 -4.15838e-23 4.67486e-21 1.11486e-20)
(-6.08532e-21 1.71386e-21 -1.94692e-21 1.28098e-20 -1.19191e-20 1.98809e-20)
(-6.49132e-21 -1.46231e-21 3.37279e-21 1.37702e-20 -9.60124e-21 2.6979e-20)
(-1.71636e-21 -1.25512e-21 -4.37687e-22 -8.81147e-21 -3.86448e-21 8.97197e-21)
(-1.44168e-21 2.59016e-21 2.58654e-21 -1.09625e-20 -1.50124e-20 6.83808e-21)
(-5.19675e-21 2.11577e-21 5.33409e-21 1.58955e-20 -8.72465e-21 2.01056e-20)
(-7.34557e-21 -7.68211e-22 3.97101e-21 2.73491e-20 -2.00772e-22 3.29143e-20)
(-2.50791e-21 -8.87321e-23 4.40427e-21 1.27346e-20 5.09848e-21 2.22292e-20)
(-3.39174e-21 3.3443e-21 -2.53695e-22 -1.46882e-21 2.72678e-21 -9.989e-22)
(-2.74395e-21 2.23822e-21 -5.31768e-22 7.02324e-21 9.38611e-21 2.32588e-21)
(-1.11803e-21 -1.79204e-22 -1.21332e-21 9.25829e-21 -4.97373e-21 1.54986e-20)
(-1.2835e-21 -6.9389e-22 -9.50529e-23 -9.45044e-21 -1.78933e-20 2.45512e-21)
(-4.46034e-21 3.5557e-21 6.64206e-22 -5.00093e-21 -5.85678e-21 1.16529e-20)
(-6.28896e-21 2.03076e-21 8.96522e-22 2.48305e-20 9.05153e-21 2.24891e-20)
(-4.31555e-21 -9.58162e-22 -8.14521e-22 2.51128e-20 -1.9434e-21 2.91735e-20)
(-8.97427e-22 -8.56349e-22 3.81382e-22 6.11683e-21 -1.05048e-20 2.85943e-20)
(-5.06197e-21 3.02305e-21 -1.11723e-21 1.05271e-20 1.3048e-21 -5.46929e-21)
(9.59429e-22 7.54242e-22 -7.74364e-22 2.8308e-21 5.39553e-21 -4.98551e-21)
(1.18829e-20 -1.0256e-21 -2.58278e-21 -1.49488e-20 -5.91693e-21 -1.80714e-20)
(-3.61306e-22 6.22398e-22 5.10373e-22 -9.56763e-21 -6.50097e-21 2.40787e-21)