/*--------------------------------*- C++ -*----------------------------------*\
| =========                 |                                                 |
| \\      /  F ield         | OpenFOAM: The Open Source CFD Toolbox           |
|  \\    /   O peration     | Version:  v1912                                 |
|   \\  /    A nd           | Website:  www.openfoam.com                      |
|    \\/     M anipulation  |                                                 |
\*---------------------------------------------------------------------------*/
FoamFile
{
    version     2.0;
    format      ascii;
    class       volVectorField;
    location    "0.01/solid";
    object      heatFlux;
}
// * * * * * * * * * * * * * * * * * * * * * * * * * * * * * * * * * * * * * //

dimensions      [1 0 -3 0 0 0 0];


internalField   nonuniform List<vector> 
256
(
(1.22273e-24 1.13687e-09 7.88861e-26)
(-0 -0 -0)
(-0 -0 -0)
(-0 -0 -0)
(1.13687e-09 1.84909e-24 1.13687e-09)
(-1.13687e-09 -3.62876e-24 1.26218e-24)
(-0 -0 -0)
(-0 -0 -0)
(2.52435e-24 1.41364e-24 5.04871e-24)
(-0 -0 -0)
(-1.89327e-24 6.31089e-25 1.13687e-09)
(-0 -0 -0)
(1.13687e-09 -1.76705e-24 1.13687e-09)
(-1.13687e-09 -1.26218e-24 6.31089e-25)
(-0 -0 -0)
(-0 -0 -0)
(-6.31089e-25 -1.13687e-09 3.15544e-25)
(6.94198e-24 9.46633e-25 1.13687e-09)
(1.26218e-24 -2.20881e-24 1.13687e-09)
(-0 -0 -0)
(-0 -0 -0)
(-0 -0 -0)
(-0 -0 -0)
(-0 -0 -0)
(-0 -0 -0)
(-0 -0 -0)
(1.26218e-24 1.26218e-24 1.13687e-09)
(-0 -0 -0)
(-0 -0 -0)
(-0 -0 -0)
(-0 -0 -0)
(-0 -0 -0)
(-1.26218e-24 -7.88861e-26 -1.13687e-09)
(-0 -0 -0)
(-0 -0 -0)
(-0 -0 -0)
(6.31089e-24 3.15544e-25 -1.13687e-09)
(-0 -0 -0)
(-1.57772e-25 1.13687e-09 -1.89327e-24)
(-0 -0 -0)
(-0 -0 -0)
(1.13687e-09 -3.78653e-24 -5.04871e-24)
(2.5496e-24 9.59255e-25 -4.84676e-24)
(-1.13687e-09 -5.04871e-24 -3.78653e-24)
(-4.41762e-24 -1.57772e-24 -1.13687e-09)
(1.69557e-39 1.13687e-09 -1.89327e-24)
(1.26117e-38 1.81754e-24 2.52435e-24)
(-0 -0 -0)
(1.13687e-09 4.41762e-24 1.89327e-24)
(1.13687e-09 3.23117e-24 1.13687e-09)
(-1.13687e-09 -5.16231e-24 2.01948e-24)
(-1.13687e-09 2.20881e-24 3.15544e-24)
(-0 -0 -0)
(3.78653e-24 -1.13687e-09 -6.31089e-25)
(1.51461e-23 -6.05845e-25 -2.52435e-24)
(-0 -0 -0)
(-0 -0 -0)
(1.13687e-09 6.31089e-25 -1.89327e-24)
(1.51209e-23 3.66031e-24 -5.25066e-24)
(-1.13687e-09 3.15544e-24 2.8026e-39)
(-0 -0 -0)
(-0 -0 -0)
(6.31089e-25 -1.13687e-09 1.12104e-39)
(-0 -0 -0)
(-1.13687e-09 -1.13687e-09 -2.92194e-24)
(1.13687e-09 3.9443e-26 -1.26218e-24)
(-0 -0 -0)
(-0 -0 -0)
(4.73317e-24 1.13687e-09 1.13687e-09)
(-0 -0 -0)
(-0 -0 -0)
(-0 -0 -0)
(-0 -0 -0)
(-2.10195e-39 6.31089e-25 1.13687e-09)
(-9.86514e-40 -0 1.81754e-24)
(1.89327e-24 -6.31089e-25 1.13687e-09)
(-0 -0 -0)
(-2.8399e-24 1.13687e-09 1.13687e-09)
(-0 -0 -0)
(-0 -0 -0)
(1.13687e-09 2.20881e-24 -1.89327e-24)
(-2.39814e-24 1.14858e-24 -1.13687e-09)
(-1.13687e-09 -2.8399e-24 -1.13687e-09)
(-0 -0 -0)
(-0 -0 -0)
(3.15544e-24 -1.13687e-09 -6.31089e-25)
(-0 -0 -0)
(-0 -0 -0)
(-0 -0 -0)
(1.26218e-24 -6.31089e-25 1.13687e-09)
(5.04871e-24 5.04871e-24 -8.07794e-25)
(1.89327e-24 -1.75162e-39 1.13687e-09)
(-0 -0 -0)
(-0 -0 -0)
(-0 -0 -0)
(-0 -0 -0)
(1.93271e-24 1.13687e-09 1.13687e-09)
(-0 -0 -0)
(-0 -0 -0)
(-0 -0 -0)
(1.13687e-09 -3.25642e-24 -1.13687e-09)
(-1.13687e-09 1.13687e-09 3.47099e-24)
(7.00649e-40 1.13687e-09 -3.15544e-25)
(-2.68213e-24 1.13687e-09 -6.09565e-39)
(1.13687e-09 -1.13687e-09 -3.15544e-25)
(1.13687e-09 1.13687e-09 2.62533e-24)
(-0 5.61669e-25 6.05845e-25)
(-2.27374e-09 1.3884e-24 1.81754e-24)
(1.13687e-09 -1.31372e-39 1.57772e-24)
(-7.47209e-24 -1.13687e-09 4.03897e-25)
(-1.13687e-09 -1.13687e-09 4.41409e-39)
(-1.89327e-24 -1.13687e-09 6.31089e-25)
(-0 -0 -0)
(5.04871e-24 -1.13687e-09 -1.13687e-09)
(-0 -0 -0)
(-0 -0 -0)
(-0 -0 -0)
(-4.41762e-24 1.13687e-09 1.26218e-24)
(2.52435e-24 1.13687e-09 -3.15544e-25)
(2.52435e-24 1.13687e-09 3.15544e-25)
(1.13687e-09 1.89327e-24 -6.31089e-25)
(1.13687e-09 4.30403e-24 4.64481e-24)
(-5.04871e-24 3.77391e-24 -0)
(-2.27374e-09 5.08658e-24 -2.01948e-25)
(1.26218e-24 -3.15544e-25 1.13687e-09)
(3.15544e-24 -1.13687e-09 1.57772e-24)
(-1.89327e-24 -1.13687e-09 -9.46633e-25)
(6.48101e-39 -1.13687e-09 -1.57772e-24)
(1.97058e-40 -1.13687e-09 -7.88861e-26)
(-0 -0 -0)
(-0 -0 -0)
(-0 -0 -0)
(-1.13687e-09 1.68501e-24 -1.13687e-09)
(1.13687e-09 1.57772e-24 9.46633e-25)
(-0 -0 -0)
(-0 -0 -0)
(-0 1.13687e-09 -3.15544e-25)
(5.36425e-24 6.31089e-25 -1.13687e-09)
(6.72623e-40 9.46633e-25 -1.13687e-09)
(2.20881e-24 1.57772e-25 -1.13687e-09)
(-0 -0 -0)
(-3.18618e-55 1.89327e-24 1.21169e-24)
(-0 -0 -0)
(-0 -0 -0)
(-0 -0 -0)
(-1.26218e-24 6.31089e-25 1.13687e-09)
(2.8399e-24 -3.15544e-25 1.13687e-09)
(2.8399e-24 -3.15544e-25 1.13687e-09)
(-0 -0 -0)
(-0 -0 -0)
(-0 -0 -0)
(-0 -0 -0)
(-5.04871e-24 1.13687e-09 -3.15544e-25)
(1.51461e-23 -5.09848e-38 -4.03897e-25)
(5.04871e-24 2.52435e-24 1.81754e-24)
(1.00974e-23 -2.52435e-24 -8.07794e-25)
(1.13687e-09 -1.13687e-09 8.58281e-25)
(-1.13687e-09 1.26218e-24 -6.31089e-25)
(-0 -0 -0)
(-0 -0 -0)
(-0 -0 -0)
(-0 -0 -0)
(-0 -0 -0)
(-0 -0 -0)
(6.15312e-24 3.15544e-25 1.13687e-09)
(-0 -0 -0)
(-0 -0 -0)
(-0 -0 -0)
(-0 -0 -0)
(-7.57306e-24 1.13687e-09 1.57772e-25)
(-0 -0 -0)
(-0 -0 -0)
(1.13687e-09 1.57772e-24 -2.20881e-24)
(-1.7986e-24 1.13687e-09 -4.03897e-25)
(-1.13687e-09 1.13687e-09 -4.73317e-25)
(2.8399e-24 1.13687e-09 1.13687e-09)
(1.13687e-09 6.31089e-25 4.73317e-25)
(1.13687e-09 -1.13687e-09 -1.81754e-24)
(-8.96831e-41 -1.9122e-24 -4.03897e-25)
(-2.27374e-09 -1.35684e-24 -1.00974e-24)
(-0 -0 -0)
(7.57306e-24 -6.05845e-25 9.46633e-25)
(5.04871e-24 -1.81754e-24 -9.14768e-39)
(1.00974e-23 8.07794e-25 -2.24208e-38)
(1.13687e-09 1.26218e-24 1.26218e-24)
(1.13687e-09 1.5083e-24 -4.84676e-24)
(2.01948e-23 1.19907e-25 -0)
(-2.27374e-09 -1.19276e-24 -1.41364e-24)
(7.57306e-24 2.52435e-24 -4.03897e-25)
(6.31089e-24 -1.13687e-09 -4.73317e-25)
(2.52435e-24 -1.13687e-09 1.57772e-25)
(2.52435e-24 -1.13687e-09 1.57772e-25)
(-0 -0 -0)
(5.04871e-24 3.54987e-25 1.13687e-09)
(-0 -0 -0)
(-0 -0 -0)
(-0 -0 -0)
(-0 -0 -0)
(-0 -0 -0)
(-0 -0 -0)
(-0 -0 -0)
(-0 -0 -0)
(-0 -0 -0)
(7.77877e-57 1.13687e-09 -7.00649e-41)
(-0 -0 -0)
(-3.62876e-24 -8.39027e-40 -1.13687e-09)
(1.13687e-09 3.15544e-25 -5.60519e-40)
(-1.13687e-09 -1.23693e-24 3.74867e-24)
(-0 -0 -0)
(-2.8399e-24 1.57772e-25 -1.13687e-09)
(-4.81696e-40 -7.88861e-25 -1.13687e-09)
(1.73549e-24 -1.13687e-09 -1.13687e-09)
(-0 -0 -0)
(-0 -0 -0)
(-0 -0 -0)
(-0 -0 -0)
(-6.31089e-25 1.13687e-09 4.73317e-25)
(-2.36658e-24 -1.89327e-24 -1.13687e-09)
(2.8399e-24 4.73317e-25 -1.13687e-09)
(5.04871e-24 6.31089e-25 -1.13687e-09)
(1.13687e-09 -1.13687e-09 3.20593e-24)
(-1.13687e-09 -6.31089e-25 3.62876e-24)
(-5.20648e-24 -1.10441e-24 1.13687e-09)
(-0 -0 -0)
(1.13687e-09 1.30162e-24 -1.30162e-24)
(1.12697e-23 1.13687e-09 1.13687e-09)
(-1.13687e-09 -3.9443e-26 3.9443e-26)
(-0 -0 -0)
(-0 -0 -0)
(7.41529e-24 -1.13687e-09 -1.18329e-25)
(-0 -0 -0)
(-0 -0 -0)
(-0 -0 -0)
(-0 -0 -0)
(-0 -0 -0)
(-0 -0 -0)
(-0 -0 -0)
(-0 -0 -0)
(-0 -0 -0)
(-2.5638e-24 -2.76101e-25 -1.13687e-09)
(-0 -0 -0)
(-0 -0 -0)
(-0 -0 -0)
(-0 -0 -0)
(-0 -0 -0)
(-0 -0 -0)
(-0 -0 -0)
(-0 -0 -0)
(-0 -0 -0)
(-0 -0 -0)
(-6.31089e-25 1.13687e-09 -3.9443e-26)
(-0 -0 -0)
(3.74709e-24 -5.91646e-25 -1.13687e-09)
(1.13687e-09 -2.52435e-24 1.26218e-24)
(-8.58281e-25 -1.13687e-09 1.13687e-09)
(-1.13687e-09 -1.89327e-24 -7.88861e-26)
)
;

boundaryField
{
    interface
    {
        type            calculated;
        value           nonuniform List<vector> 
192
(
(-0 1.13687e-09 7.88861e-26)
(4.54747e-09 1.84909e-24 1.13687e-09)
(-0 1.41364e-24 5.04871e-24)
(4.54747e-09 -1.76705e-24 1.13687e-09)
(-0 -1.13687e-09 3.15544e-25)
(-0 -0 -0)
(-0 -0 -0)
(-0 -0 -0)
(-0 -7.88861e-26 -1.13687e-09)
(-0 3.15544e-25 -1.13687e-09)
(-0 -0 -0)
(-0 -1.57772e-24 -1.13687e-09)
(-0 4.41762e-24 1.89327e-24)
(-0 -0 -0)
(-0 -0 -0)
(-0 -0 -0)
(-4.54747e-09 -1.13687e-09 -2.92194e-24)
(-0 1.13687e-09 1.13687e-09)
(-0 -0 -0)
(-0 -0 -0)
(-0 2.20881e-24 -1.89327e-24)
(-0 -0 -0)
(-0 -0 -0)
(-0 -0 -0)
(-0 1.13687e-09 1.13687e-09)
(4.54747e-09 -3.25642e-24 -1.13687e-09)
(-0 -1.13687e-09 -3.15544e-25)
(-0 -1.31372e-39 1.57772e-24)
(-0 -0 -0)
(-0 -0 -0)
(-0 1.89327e-24 -6.31089e-25)
(-0 -3.15544e-25 1.13687e-09)
(-0 -1.13687e-09 -7.88861e-26)
(-4.54747e-09 1.68501e-24 -1.13687e-09)
(-0 1.13687e-09 -3.15544e-25)
(-0 -0 -0)
(-0 -0 -0)
(-0 -0 -0)
(-0 1.13687e-09 -3.15544e-25)
(4.54747e-09 -1.13687e-09 8.58281e-25)
(-0 -0 -0)
(-0 3.15544e-25 1.13687e-09)
(-0 -0 -0)
(-0 1.57772e-24 -2.20881e-24)
(-0 6.31089e-25 4.73317e-25)
(-0 -0 -0)
(-0 1.26218e-24 1.26218e-24)
(-0 2.52435e-24 -4.03897e-25)
(-0 -0 -0)
(-0 -0 -0)
(-0 -0 -0)
(-0 -0 -0)
(-0 -0 -0)
(-0 -0 -0)
(-0 1.13687e-09 4.73317e-25)
(4.54747e-09 -1.13687e-09 3.20593e-24)
(-0 1.30162e-24 -1.30162e-24)
(-0 -0 -0)
(-0 -0 -0)
(-0 -0 -0)
(-0 -0 -0)
(-0 -0 -0)
(-0 -0 -0)
(-0 -5.91646e-25 -1.13687e-09)
(1.22273e-24 1.13687e-09 -0)
(1.13687e-09 1.84909e-24 4.54747e-09)
(2.52435e-24 1.41364e-24 -0)
(1.13687e-09 -1.76705e-24 4.54747e-09)
(-6.31089e-25 -1.13687e-09 -0)
(-0 -0 -0)
(-0 -0 -0)
(-0 -0 -0)
(-0 -0 -0)
(-1.13687e-09 -3.62876e-24 -0)
(-0 -0 -0)
(-1.13687e-09 -1.26218e-24 -0)
(6.94198e-24 9.46633e-25 -0)
(-0 -0 -0)
(-0 -0 -0)
(-0 -0 -0)
(-0 -0 -0)
(-0 -0 -0)
(-1.89327e-24 6.31089e-25 -0)
(-0 -0 -0)
(1.26218e-24 -2.20881e-24 -0)
(-0 -0 -0)
(1.26218e-24 1.26218e-24 -0)
(-0 -0 -0)
(-0 -0 -0)
(-0 -0 -0)
(-0 -0 -0)
(-0 -0 -0)
(-0 -0 -0)
(-0 -0 -0)
(-0 -0 -0)
(-0 -0 -0)
(-0 -0 -0)
(-0 -0 -0)
(-0 -0 -0)
(-0 -0 -0)
(-0 -0 -0)
(-0 -0 -0)
(-0 -0 -0)
(-0 -0 -0)
(-0 -0 -0)
(-0 -0 -0)
(-0 -5.04871e-24 -3.78653e-24)
(-0 -0 -0)
(-0 2.20881e-24 3.15544e-24)
(-0 -0 -0)
(-0 3.15544e-24 2.8026e-39)
(-0 -0 -0)
(-0 -0 -0)
(-0 -0 -0)
(-0 -6.31089e-25 1.13687e-09)
(-0 -0 -0)
(-0 -0 -0)
(-0 -0 -0)
(-0 -1.75162e-39 1.13687e-09)
(-0 -0 -0)
(-0 -0 -0)
(-0 1.13687e-09 -6.09565e-39)
(-4.54747e-09 1.3884e-24 1.81754e-24)
(-0 -1.13687e-09 6.31089e-25)
(-0 -0 -0)
(-0 1.13687e-09 3.15544e-25)
(-4.54747e-09 5.08658e-24 -2.01948e-25)
(-0 -1.13687e-09 -1.57772e-24)
(-0 -0 -0)
(-0 -0 -0)
(-0 1.57772e-25 -1.13687e-09)
(-0 -0 -0)
(-0 -3.15544e-25 1.13687e-09)
(-0 -0 -0)
(-0 -2.52435e-24 -8.07794e-25)
(-0 -0 -0)
(-0 -0 -0)
(-0 -0 -0)
(-0 -0 -0)
(-0 1.13687e-09 1.13687e-09)
(-4.54747e-09 -1.35684e-24 -1.00974e-24)
(-0 8.07794e-25 -2.24208e-38)
(-4.54747e-09 -1.19276e-24 -1.41364e-24)
(-0 -1.13687e-09 1.57772e-25)
(-0 -0 -0)
(-0 -0 -0)
(-0 1.13687e-09 -7.00649e-41)
(-4.54747e-09 -1.23693e-24 3.74867e-24)
(-0 -1.13687e-09 -1.13687e-09)
(-0 -0 -0)
(-0 6.31089e-25 -1.13687e-09)
(-0 -0 -0)
(-0 -0 -0)
(-0 -0 -0)
(-0 -0 -0)
(-0 -2.76101e-25 -1.13687e-09)
(-0 -0 -0)
(-0 -0 -0)
(-0 -0 -0)
(-0 -1.89327e-24 -7.88861e-26)
(-0 -0 -0)
(-0 -0 -0)
(-0 -0 -0)
(1.26218e-24 -0 1.13687e-09)
(1.13687e-09 -4.54747e-09 8.58281e-25)
(7.57306e-24 -0 -4.03897e-25)
(1.13687e-09 -4.54747e-09 3.20593e-24)
(3.74709e-24 -0 -1.13687e-09)
(-0 -0 -0)
(-0 -0 -0)
(-0 -0 -0)
(3.15544e-24 -0 1.57772e-24)
(-1.13687e-09 -0 -6.31089e-25)
(6.31089e-24 -0 -4.73317e-25)
(-1.13687e-09 -0 3.62876e-24)
(1.13687e-09 -0 1.26218e-24)
(-0 -0 -0)
(6.31089e-25 -0 1.12104e-39)
(-0 -0 -0)
(-1.89327e-24 -0 -9.46633e-25)
(-0 -0 -0)
(2.52435e-24 -0 1.57772e-25)
(-5.20648e-24 -0 1.13687e-09)
(-8.58281e-25 -4.54747e-09 1.13687e-09)
(-0 -0 -0)
(-0 -0 -0)
(-0 -0 -0)
(6.48101e-39 -0 -1.57772e-24)
(-0 -0 -0)
(2.52435e-24 -0 1.57772e-25)
(-0 -0 -0)
(-1.13687e-09 -0 -7.88861e-26)
)
;
    }
    symmetry
    {
        type            symmetry;
    }
    bottom
    {
        type            calculated;
        value           nonuniform List<vector> 
32
(
(1.22273e-24 -0 7.88861e-26)
(-1.26218e-24 -0 -1.13687e-09)
(-1.13687e-09 -4.54747e-09 -2.92194e-24)
(1.93271e-24 -0 1.13687e-09)
(1.97058e-40 -0 -7.88861e-26)
(-0 -0 -0)
(-0 -0 -0)
(1.13687e-09 -0 -1.30162e-24)
(-0 -0 -0)
(-0 -0 -0)
(1.13687e-09 -0 -1.26218e-24)
(-0 -0 -0)
(-0 -0 -0)
(-0 -0 -0)
(5.04871e-24 -0 1.13687e-09)
(1.12697e-23 4.54747e-09 1.13687e-09)
(-0 -0 -0)
(-0 -0 -0)
(-0 -0 -0)
(-0 -0 -0)
(-0 -0 -0)
(-0 -0 -0)
(-0 -0 -0)
(-1.13687e-09 -0 3.9443e-26)
(-0 -0 -0)
(-0 -0 -0)
(-0 -0 -0)
(-0 -0 -0)
(-0 -0 -0)
(-0 -0 -0)
(-0 -0 -0)
(-0 -0 -0)
)
;
    }
}


// ************************************************************************* //
