/*--------------------------------*- C++ -*----------------------------------*\
| =========                 |                                                 |
| \\      /  F ield         | OpenFOAM: The Open Source CFD Toolbox           |
|  \\    /   O peration     | Version:  v1912                                 |
|   \\  /    A nd           | Website:  www.openfoam.com                      |
|    \\/     M anipulation  |                                                 |
\*---------------------------------------------------------------------------*/
FoamFile
{
    version     2.0;
    format      ascii;
    class       volVectorField;
    location    "0.01/solid";
    object      U;
}
// * * * * * * * * * * * * * * * * * * * * * * * * * * * * * * * * * * * * * //

dimensions      [0 1 -1 0 0 0 0];


internalField   nonuniform List<vector> 
256
(
(-1.5104e-22 4.65668e-20 6.78614e-21)
(-3.19568e-20 2.21538e-21 -5.73762e-20)
(3.66054e-21 -2.18018e-20 -4.03308e-20)
(5.35924e-20 -4.89502e-20 -5.30137e-20)
(4.4779e-20 -4.89036e-20 1.58134e-20)
(-6.24616e-20 3.03807e-20 -8.82011e-21)
(-5.00763e-20 5.4451e-20 -7.88677e-20)
(7.06944e-20 6.49744e-20 -8.7255e-20)
(-2.59877e-20 6.65648e-21 -3.65145e-20)
(1.41858e-20 8.98776e-21 -2.06428e-20)
(-2.99837e-20 4.92146e-20 1.2326e-20)
(-3.9156e-20 1.04301e-19 -7.8759e-20)
(1.21928e-20 5.93717e-20 7.1368e-20)
(-8.19046e-20 5.67895e-20 3.87179e-20)
(-7.01174e-20 3.40799e-20 -1.18837e-20)
(-4.28588e-20 7.95019e-20 -4.49417e-20)
(1.70371e-20 -1.06533e-19 9.91782e-20)
(-8.77978e-20 -5.0271e-22 1.09293e-19)
(-1.33514e-19 7.58256e-20 3.67391e-20)
(-1.20351e-19 6.44696e-20 -5.38477e-20)
(-1.20759e-19 -1.19997e-19 3.93102e-20)
(-7.26158e-20 -4.68213e-20 4.85686e-20)
(-1.39186e-19 2.38294e-20 -2.48241e-21)
(-1.71657e-19 5.62423e-20 -1.17891e-19)
(-1.82955e-19 3.86401e-20 5.79288e-20)
(-1.32372e-19 6.32272e-21 2.63586e-20)
(-1.64089e-19 1.21286e-20 5.34793e-21)
(-1.84407e-19 8.85341e-20 -1.30442e-19)
(-1.51776e-19 3.09405e-20 1.47661e-19)
(-2.05677e-19 2.46456e-20 5.7316e-20)
(-1.84077e-19 2.83968e-20 -2.44131e-20)
(-2.4109e-19 4.80007e-20 -1.26781e-19)
(-4.13927e-20 -6.81466e-21 -6.65062e-20)
(-7.72311e-21 -2.09057e-20 -2.69382e-20)
(3.21909e-20 -1.76294e-20 -3.26419e-20)
(3.24465e-20 -7.50412e-21 5.69568e-21)
(-2.65185e-20 -2.13762e-20 -3.3903e-20)
(-2.8572e-20 9.4325e-21 -3.52448e-20)
(1.09893e-20 4.01108e-20 -1.35989e-20)
(5.61482e-20 7.29621e-21 -3.71449e-21)
(-5.96485e-20 7.00663e-21 4.9833e-20)
(2.23085e-20 2.47377e-20 -1.13301e-20)
(-4.83933e-22 5.52255e-20 -4.29653e-20)
(6.83047e-21 5.65448e-20 -4.53601e-20)
(-8.76422e-21 3.0214e-20 1.98429e-20)
(-1.7897e-20 6.71039e-20 2.92726e-20)
(-3.61764e-20 3.97961e-20 1.38844e-20)
(-3.46539e-20 7.6147e-20 -2.63596e-20)
(7.08048e-21 -3.87772e-20 2.70535e-20)
(-2.74969e-20 -3.05509e-21 3.7362e-20)
(-8.93348e-20 2.79635e-21 -1.74543e-20)
(-8.06602e-20 1.24874e-20 -4.76331e-20)
(-8.45258e-20 -4.94969e-20 6.27875e-20)
(-9.48644e-20 -5.03533e-20 3.67067e-20)
(-1.00959e-19 1.70363e-20 -4.65007e-20)
(-2.42757e-20 2.13345e-20 -9.56954e-20)
(-1.41325e-19 -3.69476e-21 1.13216e-19)
(-9.77355e-20 1.15333e-20 5.53051e-20)
(-1.06509e-19 5.9898e-20 -2.53004e-20)
(-7.75375e-20 9.19648e-20 -9.67628e-20)
(-1.39334e-19 7.10994e-21 1.00259e-19)
(-1.466e-19 4.27266e-20 5.92463e-20)
(-1.54982e-19 4.66607e-20 -3.53073e-20)
(-1.00043e-19 1.5808e-19 -1.17003e-19)
(-7.97833e-20 -2.22751e-20 -1.149e-20)
(-7.86726e-21 -2.54219e-20 -5.48776e-21)
(3.79865e-20 -2.1085e-20 -2.59561e-21)
(4.51306e-20 -4.18282e-21 2.72951e-21)
(-3.65482e-20 5.57118e-20 1.76277e-20)
(-1.90479e-20 1.85046e-20 -1.59462e-20)
(1.82802e-20 1.65694e-20 -1.011e-21)
(3.86769e-20 -3.16126e-21 1.21494e-20)
(-1.43861e-20 9.57815e-21 5.10831e-20)
(-3.69545e-20 2.70359e-20 5.55306e-20)
(1.43317e-21 2.89145e-20 1.32816e-20)
(4.57472e-20 3.09334e-20 5.61359e-20)
(6.00083e-22 -2.87616e-20 2.65648e-20)
(-1.38047e-20 4.74012e-20 3.89292e-20)
(-1.979e-20 1.96294e-20 9.7628e-21)
(-5.44397e-21 4.31302e-20 -8.18006e-23)
(-4.29382e-21 -4.79087e-20 8.19647e-21)
(-4.33482e-20 -9.49035e-21 -2.09028e-20)
(-4.95826e-20 -1.76801e-20 -2.03994e-20)
(1.08258e-20 -1.63188e-20 -1.96573e-20)
(-8.05521e-20 -1.29328e-20 7.22702e-20)
(-6.47322e-20 -1.56638e-20 2.60945e-20)
(-5.70687e-20 2.08928e-20 3.83947e-21)
(5.08196e-20 1.81255e-20 -1.73627e-20)
(-7.96464e-20 2.43869e-20 1.20599e-19)
(-9.20442e-20 2.20243e-20 1.07055e-19)
(-7.5777e-20 6.08399e-20 3.17259e-20)
(1.54517e-20 1.07833e-19 3.41296e-20)
(-9.92955e-20 1.89663e-21 1.40581e-19)
(-1.25404e-19 2.63167e-20 8.75769e-20)
(-9.0564e-20 1.05319e-19 2.70862e-20)
(-1.8456e-20 1.43689e-19 -1.56346e-20)
(-5.45411e-20 1.13809e-20 1.75381e-21)
(-9.58847e-21 -3.01519e-20 2.16148e-20)
(3.26906e-20 -1.59751e-20 2.22402e-20)
(2.35225e-20 4.88472e-21 7.01176e-22)
(-2.76706e-20 3.23377e-20 -3.72634e-20)
(-4.22647e-20 6.24494e-20 3.4812e-21)
(2.72452e-20 4.58638e-20 8.74943e-21)
(3.49604e-20 4.77509e-20 7.91493e-21)
(3.22192e-20 -6.86852e-21 -2.28513e-20)
(1.78402e-20 5.72725e-20 2.45775e-20)
(-7.1933e-21 4.27151e-20 2.53224e-20)
(-4.882e-20 1.90387e-20 3.21331e-20)
(2.61919e-20 -3.90511e-20 6.10934e-21)
(4.85558e-21 -3.60298e-20 -4.28742e-21)
(-2.5071e-20 -2.14049e-20 9.46401e-21)
(-9.5808e-21 -2.69929e-20 -1.4084e-20)
(-5.34205e-20 -1.29907e-20 4.31343e-20)
(4.22845e-21 -3.90136e-20 9.49481e-21)
(1.41502e-20 -2.87437e-20 3.39167e-20)
(2.22042e-20 -2.87994e-20 1.06312e-20)
(-5.16846e-20 3.68264e-20 1.13583e-19)
(-4.19691e-20 5.35051e-20 7.13698e-20)
(-1.09148e-20 4.87575e-20 3.43425e-20)
(6.33165e-20 5.80629e-20 1.67501e-20)
(2.25481e-21 1.4458e-20 1.29383e-19)
(-1.00469e-20 3.6582e-20 8.56896e-20)
(-3.47681e-20 6.18498e-20 6.48071e-20)
(-4.92774e-20 7.08026e-20 4.91046e-20)
(-3.13831e-20 -2.01208e-20 1.84458e-19)
(-5.8891e-20 -1.94305e-20 1.00074e-19)
(-6.68821e-20 2.12251e-20 5.60791e-20)
(8.00478e-21 5.92367e-20 2.5969e-20)
(-5.15878e-20 -3.93525e-20 -3.33652e-21)
(8.84722e-21 -4.98532e-21 6.74334e-21)
(1.22272e-20 -1.61189e-21 1.60213e-21)
(1.74506e-20 2.49099e-22 -2.46169e-20)
(-5.78347e-20 4.20342e-20 -4.18848e-20)
(7.94938e-22 2.34927e-20 1.17175e-20)
(1.10739e-20 1.55303e-20 -4.95847e-21)
(2.28051e-20 1.93621e-20 -1.27781e-20)
(-1.0607e-20 4.64732e-20 -2.65331e-20)
(-2.82612e-21 1.06441e-20 -2.99594e-20)
(-5.9484e-22 1.7761e-20 -4.93496e-20)
(4.5695e-21 -6.23701e-21 -3.42212e-20)
(-1.24797e-20 1.96236e-20 -1.49896e-20)
(5.14302e-21 1.34485e-20 7.7477e-21)
(-2.08648e-21 7.63631e-21 4.83653e-21)
(2.41582e-20 -3.77655e-22 1.19575e-20)
(7.56865e-21 2.95371e-20 7.14245e-20)
(9.56951e-21 3.68654e-20 6.89453e-20)
(2.91529e-21 -2.08139e-20 4.70797e-20)
(1.45428e-20 -1.31357e-20 4.99866e-20)
(2.94099e-20 2.55248e-20 1.09641e-19)
(-2.0177e-20 1.74134e-20 5.69388e-20)
(-3.09482e-20 1.35966e-20 3.7214e-20)
(6.75876e-20 2.13443e-20 2.92382e-20)
(3.43996e-20 1.2173e-20 1.17232e-19)
(6.41213e-21 -1.2942e-20 7.18177e-20)
(-1.05638e-20 2.58198e-20 4.4513e-20)
(-9.38582e-22 5.6633e-20 2.24094e-20)
(3.91657e-20 -6.26606e-20 1.45652e-19)
(-5.57016e-20 -2.33351e-20 9.67053e-20)
(-2.36476e-20 3.16806e-20 6.22749e-20)
(3.80041e-20 3.0119e-20 3.2478e-20)
(-4.88724e-20 -1.43406e-20 6.83295e-21)
(-8.98944e-21 -1.77721e-20 1.13592e-20)
(8.4086e-21 -2.14967e-20 4.80733e-21)
(3.84318e-20 -2.00301e-20 2.18623e-21)
(-4.76317e-20 1.98188e-20 -2.39927e-21)
(-3.56239e-20 2.83802e-20 1.07714e-21)
(8.94703e-21 -7.27299e-21 4.69446e-22)
(5.37005e-20 3.27125e-20 3.45408e-22)
(-2.62228e-20 1.83445e-20 -1.34695e-20)
(-3.32593e-20 4.92947e-20 -2.79432e-20)
(3.90514e-21 4.47082e-20 -2.73938e-20)
(4.56534e-20 3.25022e-20 -4.88676e-22)
(1.24116e-20 4.34849e-20 -1.71687e-21)
(2.18784e-20 4.67053e-20 2.62704e-20)
(-1.80702e-20 5.78592e-20 3.92209e-21)
(-2.63974e-21 3.83843e-20 5.77056e-20)
(5.04815e-20 7.95402e-20 2.03263e-20)
(3.85426e-20 -2.07076e-20 -9.34278e-21)
(4.98155e-21 -2.59417e-20 -9.70139e-21)
(-3.50856e-20 -4.09718e-20 1.82146e-20)
(4.28756e-20 2.98891e-20 5.26728e-20)
(-7.36399e-21 6.61477e-21 1.63311e-20)
(1.51283e-20 -1.37706e-22 4.13208e-20)
(6.19762e-20 -1.29027e-20 3.89976e-20)
(8.85625e-20 -2.7858e-20 1.10508e-19)
(5.42376e-20 3.72361e-21 5.22792e-20)
(8.54812e-21 1.94866e-20 3.18064e-20)
(-2.51695e-20 1.269e-20 -1.17824e-20)
(7.29776e-20 -6.60046e-20 1.26125e-19)
(1.79924e-20 -6.22721e-20 1.06411e-19)
(-2.02749e-20 -2.81947e-20 8.37143e-20)
(3.53254e-20 8.60377e-21 3.5689e-20)
(-3.0372e-20 -4.20262e-20 2.19373e-20)
(1.31459e-20 -5.74992e-21 5.49579e-20)
(5.14978e-22 -4.63161e-21 1.78883e-20)
(8.33723e-21 -1.76272e-21 3.12776e-20)
(-5.1279e-20 2.61331e-20 1.49544e-20)
(2.66294e-21 -1.31132e-20 1.64921e-20)
(8.84318e-21 -1.81502e-20 3.13746e-20)
(2.323e-20 1.33077e-20 1.55431e-20)
(-5.19036e-20 4.77789e-20 -5.08773e-21)
(-3.2462e-20 3.54095e-20 -6.03161e-21)
(2.60424e-20 1.7126e-20 2.12263e-20)
(4.3173e-20 4.45107e-20 5.64361e-21)
(3.28017e-21 4.12237e-20 -2.08772e-20)
(1.35822e-21 2.01097e-20 -5.58147e-20)
(1.18911e-20 1.22047e-20 -1.07201e-20)
(-7.78945e-21 3.68003e-21 -5.06547e-21)
(-1.10603e-20 5.50082e-20 -1.22507e-20)
(4.88845e-22 -1.38577e-21 -5.15139e-20)
(4.50521e-20 -1.08784e-20 -2.90435e-20)
(4.4118e-20 -5.94067e-20 -3.35786e-20)
(4.21031e-20 6.74111e-20 5.7693e-21)
(3.09634e-20 3.04837e-20 4.29742e-20)
(3.77303e-20 8.92273e-21 3.07013e-20)
(5.35766e-20 -5.18017e-20 1.71532e-20)
(1.04595e-19 1.50215e-20 7.06516e-20)
(3.63717e-20 1.35338e-21 -7.62759e-21)
(1.53247e-20 -5.08196e-21 -7.0489e-21)
(5.19422e-20 1.88141e-21 -4.52595e-20)
(1.53812e-19 -1.20194e-19 1.02918e-19)
(2.91425e-20 -7.13566e-20 5.29622e-20)
(-1.79867e-20 -1.9891e-20 6.88532e-20)
(-1.89219e-21 5.14551e-20 5.08362e-20)
(3.59853e-20 -1.95461e-21 3.04415e-20)
(4.54455e-21 1.98684e-20 3.18016e-20)
(-3.14436e-20 2.71262e-21 8.10448e-21)
(-9.89804e-21 1.40413e-21 7.00751e-21)
(-3.64976e-21 -3.17756e-21 2.8535e-20)
(-1.86758e-21 -2.39592e-20 1.21631e-20)
(-5.49327e-21 -2.93145e-21 8.87605e-21)
(9.82449e-22 5.58028e-21 5.09572e-21)
(-3.09077e-20 -1.10371e-20 6.80231e-22)
(-1.0763e-20 -1.56116e-20 1.28788e-20)
(9.43348e-21 3.55398e-21 1.8576e-20)
(1.51733e-20 1.03073e-20 -1.27929e-21)
(-6.63078e-20 2.88523e-20 -2.85205e-20)
(1.15979e-20 -3.45484e-21 -3.89091e-20)
(4.00467e-20 -1.6732e-22 -5.34076e-21)
(2.38836e-20 -9.48395e-21 -2.89484e-20)
(-2.88347e-20 7.77134e-20 -7.48827e-21)
(1.54282e-20 4.99371e-20 -7.86652e-21)
(5.75016e-20 -5.48481e-21 8.95202e-21)
(4.83484e-20 -3.75853e-20 -1.19607e-20)
(5.69339e-20 6.93181e-20 5.35786e-21)
(4.23363e-20 1.01243e-20 1.94544e-20)
(3.6656e-20 -1.39298e-20 6.67481e-21)
(5.97942e-20 -5.46136e-20 -1.94584e-21)
(8.38534e-20 1.44269e-20 1.33467e-20)
(4.77744e-20 -3.41549e-20 -1.0015e-20)
(4.95546e-20 -4.33372e-21 2.09625e-21)
(6.76123e-20 1.30254e-21 -5.1867e-21)
(1.37362e-19 -1.05444e-19 1.40408e-20)
(7.49331e-20 -3.40793e-20 -1.62112e-21)
(1.47194e-20 -4.39529e-20 3.6784e-20)
(-4.81376e-20 5.84578e-20 1.5718e-20)
)
;

boundaryField
{
    interface
    {
        type            calculated;
        value           nonuniform List<vector> 
192
(
(4.00615e-22 5.76072e-20 3.55011e-21)
(3.79965e-20 -5.12835e-20 1.60339e-21)
(-3.22319e-20 3.0425e-22 -4.48841e-20)
(7.39801e-22 5.90595e-20 7.10942e-20)
(1.54794e-20 -1.37005e-19 1.02238e-19)
(-1.18069e-19 -1.58984e-19 5.07675e-20)
(-1.80434e-19 2.53977e-20 7.80485e-20)
(-1.47242e-19 3.30979e-20 1.69817e-19)
(-4.09139e-20 -1.75109e-20 -8.35009e-20)
(-2.79765e-20 -2.11495e-20 -5.00472e-20)
(-6.18884e-20 1.04511e-20 5.16149e-20)
(-1.79383e-20 3.92749e-20 1.84722e-20)
(-4.24544e-22 -5.62752e-20 3.12692e-20)
(-8.44761e-20 -8.12117e-20 7.60517e-20)
(-1.38702e-19 -1.85418e-20 1.38258e-19)
(-1.38507e-19 -1.45092e-21 1.18425e-19)
(-7.05661e-20 -4.43737e-20 -1.42584e-20)
(-3.47345e-20 7.21084e-20 2.01411e-20)
(-2.22317e-20 1.79995e-20 6.86895e-20)
(-2.87719e-21 -2.66399e-20 3.65698e-20)
(-7.70668e-21 -6.3746e-20 1.19291e-21)
(-8.05639e-20 -3.10934e-20 8.39359e-20)
(-7.99725e-20 1.60457e-20 1.53377e-19)
(-9.65786e-20 -9.27954e-21 1.67574e-19)
(-4.9211e-20 4.29745e-22 8.1738e-21)
(-3.65322e-20 5.2939e-20 -4.34269e-20)
(2.41033e-20 4.06745e-21 -2.34936e-20)
(2.35339e-20 -5.46001e-20 5.79669e-21)
(-5.24221e-20 -2.88279e-20 4.53242e-20)
(-5.26143e-20 4.4894e-20 1.3406e-19)
(-4.01929e-21 1.49386e-20 1.54808e-19)
(-3.55217e-20 -3.15158e-20 2.17421e-19)
(-5.22639e-20 -6.11946e-20 -2.50545e-21)
(-4.41715e-20 5.13686e-20 -4.99571e-20)
(-9.95912e-21 6.07454e-20 -4.10309e-20)
(-1.79746e-20 2.45774e-20 -1.714e-20)
(4.02373e-21 3.44893e-20 9.0921e-20)
(2.53318e-20 3.05996e-20 1.28288e-19)
(2.16391e-20 1.63185e-20 1.36122e-19)
(2.54272e-20 -6.64372e-20 1.69112e-19)
(-4.54315e-20 -3.2533e-20 1.18903e-20)
(-3.75916e-20 2.50914e-20 1.37909e-21)
(-2.23463e-20 3.52024e-20 -2.1034e-20)
(1.01425e-20 6.19302e-20 -3.06909e-21)
(4.37922e-20 8.45012e-20 1.75282e-20)
(3.26061e-20 3.73499e-20 5.66368e-20)
(7.42951e-20 -2.25647e-20 1.23472e-19)
(6.21413e-20 -7.14653e-20 1.48114e-19)
(-2.88988e-20 -5.50326e-20 4.01535e-20)
(-4.88058e-20 2.28455e-20 2.40404e-20)
(-4.89565e-20 5.69205e-20 -8.03019e-21)
(3.89883e-21 5.0944e-20 -4.05592e-20)
(-1.34145e-20 6.52766e-20 -3.14029e-20)
(3.4939e-20 8.82482e-20 5.66536e-21)
(8.61191e-20 3.71925e-20 6.86327e-20)
(1.38333e-19 -1.12553e-19 1.16518e-19)
(3.18204e-20 7.15502e-21 4.44213e-20)
(-6.79655e-21 -1.90636e-20 3.66712e-20)
(-2.7236e-20 -2.29471e-20 2.06155e-21)
(-5.75775e-20 3.10879e-20 -4.14359e-20)
(-2.59379e-20 1.02252e-19 -1.35916e-20)
(4.91606e-20 9.39122e-20 6.71307e-21)
(6.64979e-20 3.34239e-20 1.10003e-20)
(1.27449e-19 -9.88583e-20 1.22222e-20)
(-8.2596e-21 5.3703e-20 1.19604e-20)
(4.52855e-20 -4.95994e-20 6.45139e-21)
(-2.00346e-20 2.01547e-20 -4.57928e-20)
(4.55883e-21 8.25415e-20 5.69542e-20)
(1.94862e-20 -1.10517e-19 9.47563e-20)
(-1.26332e-19 -1.22546e-19 4.15055e-20)
(-2.00206e-19 5.8601e-20 5.95623e-20)
(-1.80828e-19 5.53821e-20 1.51146e-19)
(-4.02658e-20 -7.54738e-21 -5.43359e-20)
(-7.94136e-20 4.11796e-20 -1.32512e-20)
(2.04507e-20 2.15402e-20 -2.55854e-20)
(-9.93668e-20 8.18574e-20 2.77881e-20)
(-9.84709e-20 3.56746e-21 9.73527e-20)
(-8.28914e-20 -6.0067e-20 4.33832e-20)
(-1.44944e-19 7.74548e-21 2.47805e-20)
(-2.41949e-19 2.91734e-20 5.40741e-20)
(3.66904e-21 -3.99265e-20 -3.25159e-20)
(-6.35204e-20 6.8329e-20 -7.17966e-20)
(-4.32816e-20 6.22027e-20 9.54002e-21)
(-8.92859e-20 4.03117e-20 -1.30236e-20)
(-1.69369e-19 7.90279e-20 2.97411e-20)
(-1.74498e-19 1.93816e-20 -1.14673e-20)
(-1.98784e-19 6.09314e-21 -2.60932e-21)
(-2.25418e-19 1.63122e-20 -3.01633e-20)
(5.3782e-20 -7.21486e-20 -4.83385e-20)
(6.73647e-20 6.24668e-20 -8.3152e-20)
(-6.79275e-20 1.11129e-19 -7.87845e-20)
(-5.78779e-20 8.20128e-20 -4.56709e-20)
(-1.54739e-19 5.23964e-20 -5.58696e-20)
(-2.23765e-19 4.4157e-20 -1.22759e-19)
(-2.38291e-19 8.39274e-20 -1.36921e-19)
(-2.91187e-19 3.31097e-20 -1.30763e-19)
(4.86451e-20 -6.6363e-20 -4.96489e-20)
(6.7542e-20 8.48942e-20 -8.74496e-20)
(-4.30581e-20 1.28468e-19 -9.93229e-20)
(-4.32808e-20 1.00031e-19 -5.61001e-20)
(-1.20622e-19 9.1129e-20 -7.87159e-20)
(-1.73052e-19 7.38721e-20 -1.70734e-19)
(-1.84777e-19 1.05821e-19 -1.7846e-19)
(-2.44746e-19 6.6762e-20 -1.78743e-19)
(2.55527e-20 -2.01315e-20 7.38025e-21)
(4.85415e-20 1.79849e-20 -5.77396e-22)
(-1.28368e-21 7.55895e-20 -5.81539e-20)
(-3.67993e-20 9.48819e-20 -3.68075e-20)
(-8.24623e-20 1.63683e-20 -7.39609e-20)
(-3.07717e-20 2.58433e-20 -1.37979e-19)
(-8.67195e-20 1.08986e-19 -1.368e-19)
(-1.03178e-19 1.7955e-19 -1.6165e-19)
(4.0891e-20 -1.6774e-20 4.32628e-21)
(3.52469e-20 2.28013e-21 1.6117e-20)
(4.43497e-20 4.15156e-20 6.70152e-20)
(-7.04835e-21 5.01258e-20 -6.58771e-21)
(5.25041e-21 -2.14955e-20 -4.37129e-20)
(4.29584e-20 2.2046e-20 -3.70195e-20)
(1.00572e-20 1.22757e-19 2.50283e-20)
(-1.95778e-20 1.58323e-19 -4.16932e-20)
(1.7195e-20 -2.17839e-21 4.82811e-21)
(3.61597e-20 6.77221e-20 9.94695e-21)
(-3.39664e-20 2.761e-20 3.59706e-20)
(-1.00324e-20 -4.3193e-20 -2.02086e-20)
(7.23023e-21 -3.80694e-20 6.13054e-21)
(5.79708e-20 7.75259e-20 1.01281e-20)
(-3.99621e-20 8.14222e-20 4.56404e-20)
(1.34321e-20 4.72568e-20 9.46527e-21)
(1.38977e-20 -6.18309e-21 -2.69374e-20)
(2.18226e-20 2.45141e-20 -1.78809e-20)
(6.69979e-21 -3.81145e-21 -5.54424e-20)
(2.17908e-20 -1.72018e-21 9.91733e-21)
(1.3045e-20 -1.88097e-20 6.28614e-20)
(6.65716e-20 2.63012e-20 2.70559e-20)
(4.56306e-21 6.16748e-20 1.3735e-20)
(4.23225e-20 2.09168e-20 2.29221e-20)
(3.38231e-20 -3.45164e-20 4.19095e-21)
(4.85357e-20 3.37831e-20 -2.4833e-22)
(3.9862e-20 4.41361e-20 -7.74629e-21)
(3.76144e-21 5.62802e-20 6.25222e-20)
(-2.02917e-20 -5.0384e-20 1.2127e-20)
(6.53987e-20 -1.49889e-20 3.51107e-20)
(-1.61291e-20 1.59361e-20 -2.585e-20)
(4.15849e-20 -4.98849e-21 3.91809e-20)
(5.84772e-21 -6.78393e-21 4.03448e-20)
(1.82307e-20 9.19729e-21 2.37406e-20)
(4.43568e-20 5.23466e-20 8.06698e-21)
(8.96596e-21 3.5075e-21 -1.38842e-20)
(5.06247e-20 -7.37842e-20 -5.71028e-20)
(5.00845e-20 -5.48248e-20 8.65387e-21)
(4.83403e-20 1.43019e-20 -6.99723e-20)
(-2.42492e-21 7.52224e-20 6.60267e-20)
(-8.86175e-21 4.18247e-21 1.09445e-20)
(1.08027e-21 7.06086e-24 8.95825e-21)
(1.60744e-20 4.9249e-21 1.19488e-21)
(2.42459e-20 -1.75357e-20 -3.83042e-20)
(4.517e-20 -4.6678e-20 -1.73657e-20)
(5.37398e-20 -5.78883e-20 -6.0168e-21)
(5.51462e-20 2.82384e-20 -1.08434e-20)
(-5.18322e-20 1.10043e-19 2.61623e-20)
(-1.49352e-19 3.16332e-20 1.66234e-19)
(-1.49411e-19 7.60195e-21 1.06918e-19)
(-1.09498e-19 -1.14846e-21 1.45556e-19)
(-3.584e-20 -1.71228e-20 1.97416e-19)
(2.86356e-20 -4.89605e-20 1.53612e-19)
(7.13517e-20 -5.54092e-20 1.34177e-19)
(1.48357e-19 -1.06303e-19 1.08828e-19)
(1.29341e-19 -1.02066e-19 1.09636e-20)
(-2.06465e-19 2.87496e-20 5.87464e-20)
(-1.53662e-19 4.3523e-20 6.0418e-20)
(-1.4228e-19 2.61046e-20 9.98614e-20)
(-6.47587e-20 -1.50385e-20 1.09127e-19)
(-7.29487e-20 -1.31979e-20 1.0453e-19)
(1.35497e-20 -5.0459e-20 1.13643e-19)
(1.18623e-20 -5.40083e-20 4.62846e-20)
(6.5709e-20 -1.87581e-20 -6.80759e-21)
(-1.91937e-19 3.32769e-20 -3.08651e-20)
(-1.7729e-19 4.73162e-20 -4.47364e-20)
(-1.11828e-19 1.03251e-19 3.32555e-20)
(-7.96941e-20 2.16645e-20 6.86657e-20)
(-3.21927e-20 3.09655e-20 7.16601e-20)
(-3.07968e-20 -2.47383e-20 9.17335e-20)
(-3.8865e-20 -1.30532e-20 6.99822e-20)
(-5.90824e-21 -1.90362e-20 4.17629e-20)
(-2.57051e-19 4.62995e-20 -1.49461e-19)
(-1.32174e-19 1.56859e-19 -1.29235e-19)
(-3.50523e-20 1.41053e-19 6.14534e-21)
(8.44119e-21 5.70844e-20 4.77413e-20)
(4.29403e-20 2.85906e-20 4.25928e-20)
(3.72938e-20 1.04581e-20 3.05884e-20)
(-2.69978e-20 5.61667e-20 3.40528e-20)
(-9.70299e-20 6.98097e-20 1.07821e-20)
)
;
    }
    symmetry
    {
        type            symmetry;
    }
    bottom
    {
        type            calculated;
        value           uniform (0 0 0);
    }
}


// ************************************************************************* //
