/*--------------------------------*- C++ -*----------------------------------*\
| =========                 |                                                 |
| \\      /  F ield         | OpenFOAM: The Open Source CFD Toolbox           |
|  \\    /   O peration     | Version:  v1912                                 |
|   \\  /    A nd           | Website:  www.openfoam.com                      |
|    \\/     M anipulation  |                                                 |
\*---------------------------------------------------------------------------*/
FoamFile
{
    version     2.0;
    format      ascii;
    class       surfaceScalarField;
    location    "0.94/fluid";
    object      meshPhi;
}
// * * * * * * * * * * * * * * * * * * * * * * * * * * * * * * * * * * * * * //

dimensions      [0 3 -1 0 0 0 0];
oriented        oriented;


internalField   nonuniform List<scalar> 
41600
(
1.2567e-13
-3.56927e-13
1.34427e-13
-1.38867e-13
2.40543e-13
-1.03962e-12
3.96306e-13
-4.09607e-13
3.49736e-13
-1.6727e-12
6.53337e-13
-6.759e-13
4.58013e-13
-2.27805e-12
9.22672e-13
-9.55787e-13
5.70132e-13
-2.87018e-12
1.21977e-12
-1.26568e-12
6.91313e-13
-3.45522e-12
1.55922e-12
-1.62129e-12
8.27951e-13
-4.02881e-12
1.95516e-12
-2.03824e-12
9.88683e-13
-4.57223e-12
2.42144e-12
-2.53244e-12
1.18633e-12
-5.04542e-12
2.97146e-12
-3.12039e-12
1.44167e-12
-5.37478e-12
3.61767e-12
-3.8196e-12
1.79134e-12
-5.43119e-12
4.37118e-12
-4.65039e-12
2.30434e-12
-4.98884e-12
5.24324e-12
-5.64236e-12
3.11209e-12
-3.6474e-12
6.25118e-12
-6.85342e-12
4.43447e-12
-7.18145e-13
7.42494e-12
-8.41045e-12
6.32546e-12
4.46414e-12
8.73382e-12
-1.04348e-11
1.28118e-11
1.09232e-11
-1.5571e-11
3.73464e-13
-7.0327e-13
3.99723e-13
-4.12929e-13
7.14682e-13
-2.04886e-12
1.17832e-12
-1.21786e-12
1.03867e-12
-3.29798e-12
1.94221e-12
-2.00924e-12
1.35934e-12
-4.49469e-12
2.74216e-12
-2.84049e-12
1.69055e-12
-5.66907e-12
3.62395e-12
-3.76016e-12
2.0474e-12
-6.83566e-12
4.63068e-12
-4.81468e-12
2.44803e-12
-7.99006e-12
5.80416e-12
-6.05016e-12
2.91635e-12
-9.10252e-12
7.1852e-12
-7.51335e-12
3.48653e-12
-1.01071e-11
8.81287e-12
-9.25211e-12
4.21125e-12
-1.08838e-11
1.07221e-11
-1.13154e-11
5.1775e-12
-1.1232e-11
1.294e-11
-1.37547e-11
6.5361e-12
-1.08346e-11
1.54823e-11
-1.66315e-11
8.54332e-12
-9.2336e-12
1.83508e-11
-2.00399e-11
1.15511e-11
-5.90929e-12
2.15162e-11
-2.41416e-11
1.54178e-11
-9.19396e-13
2.4749e-11
-2.89181e-11
5.06562e-12
2.72318e-11
-3.47229e-11
6.10905e-13
-1.02868e-12
6.5465e-13
-6.76265e-13
1.16856e-12
-2.99793e-12
1.92949e-12
-1.99417e-12
1.69692e-12
-4.82916e-12
3.1793e-12
-3.28886e-12
2.21808e-12
-6.58913e-12
4.48657e-12
-4.64711e-12
2.7539e-12
-8.32527e-12
5.92562e-12
-6.14772e-12
3.32784e-12
-1.00644e-11
7.56643e-12
-7.86598e-12
3.96727e-12
-1.18092e-11
9.47678e-12
-9.87646e-12
4.70675e-12
-1.35313e-11
1.17229e-11
-1.22546e-11
5.59252e-12
-1.51603e-11
1.43677e-11
-1.50764e-11
6.68962e-12
-1.65659e-11
1.74655e-11
-1.84169e-11
8.09292e-12
-1.75361e-11
2.10523e-11
-2.2345e-11
9.94301e-12
-1.77574e-11
2.51291e-11
-2.69191e-11
1.24309e-11
-1.68339e-11
2.96333e-11
-3.21786e-11
1.57154e-11
-1.44376e-11
3.43787e-11
-3.81122e-11
1.93538e-11
-1.08566e-11
3.88693e-11
-4.43062e-11
-6.8706e-12
4.24536e-11
-5.16055e-11
8.31841e-13
-1.3226e-12
8.92991e-13
-9.2242e-13
1.59013e-12
-3.85623e-12
2.63131e-12
-2.71932e-12
2.3064e-12
-6.2175e-12
4.33354e-12
-4.48249e-12
3.00952e-12
-8.4961e-12
6.11095e-12
-6.32888e-12
3.72782e-12
-1.07585e-11
8.06359e-12
-8.36458e-12
4.49112e-12
-1.30477e-11
1.02857e-11
-1.06908e-11
5.33312e-12
-1.53809e-11
1.28685e-11
-1.34076e-11
6.29427e-12
-1.77442e-11
1.59016e-11
-1.66162e-11
7.4247e-12
-2.00834e-11
1.94704e-11
-2.04183e-11
8.78705e-12
-2.22901e-11
2.36487e-11
-2.4912e-11
1.04579e-11
-2.41839e-11
2.8484e-11
-3.01818e-11
1.25244e-11
-2.54961e-11
3.39692e-11
-3.62799e-11
1.50586e-11
-2.5877e-11
3.9992e-11
-4.31909e-11
1.80268e-11
-2.49863e-11
4.6242e-11
-5.0758e-11
2.09213e-11
-2.28688e-11
5.19977e-11
-5.82904e-11
-1.9847e-11
5.62971e-11
-6.63229e-11
1.03107e-12
-1.57464e-12
1.1093e-12
-1.14576e-12
1.96924e-12
-4.59341e-12
3.26758e-12
-3.37653e-12
2.85196e-12
-7.41395e-12
5.37771e-12
-5.56187e-12
3.71323e-12
-1.01482e-11
7.57576e-12
-7.84478e-12
4.58607e-12
-1.28824e-11
9.98382e-12
-1.03546e-11
5.50456e-12
-1.56786e-11
1.27166e-11
-1.32143e-11
6.50615e-12
-1.8574e-11
1.58854e-11
-1.65456e-11
7.63387e-12
-2.15789e-11
1.96001e-11
-2.04715e-11
8.9377e-12
-2.46713e-11
2.39666e-11
-2.51165e-11
1.04738e-11
-2.77886e-11
2.90799e-11
-3.06017e-11
1.22994e-11
-3.08144e-11
3.50074e-11
-3.70327e-11
1.44571e-11
-3.35594e-11
4.17551e-11
-4.44743e-11
1.69352e-11
-3.57308e-11
4.9203e-11
-5.28975e-11
1.95802e-11
-3.69003e-11
5.69699e-11
-6.20642e-11
2.18644e-11
-3.66401e-11
6.41101e-11
-7.10375e-11
-3.43748e-11
6.9315e-11
-8.00201e-11
1.20465e-12
-1.77485e-12
1.29925e-12
-1.34179e-12
2.2983e-12
-5.18034e-12
3.82539e-12
-3.95244e-12
3.32244e-12
-8.37086e-12
6.29017e-12
-6.50461e-12
4.31444e-12
-1.14786e-11
8.84965e-12
-9.16229e-12
5.31013e-12
-1.46087e-11
1.16433e-11
-1.20731e-11
6.34591e-12
-1.78426e-11
1.48017e-11
-1.53769e-11
7.46082e-12
-2.12397e-11
1.84515e-11
-1.92115e-11
8.69855e-12
-2.4839e-11
2.27179e-11
-2.37167e-11
1.01083e-11
-2.8658e-11
2.7724e-11
-2.90348e-11
1.17435e-11
-3.26924e-11
3.35852e-11
-3.53083e-11
1.36566e-11
-3.69123e-11
4.03956e-11
-4.26701e-11
1.58857e-11
-4.12529e-11
4.81993e-11
-5.12227e-11
1.84207e-11
-4.55782e-11
5.69263e-11
-6.09858e-11
2.11235e-11
-4.95775e-11
6.62316e-11
-7.17609e-11
2.34741e-11
-5.2563e-11
7.5053e-11
-8.24867e-11
-5.28819e-11
8.18085e-11
-9.32669e-11
1.35003e-12
-1.91428e-12
1.4598e-12
-1.50738e-12
2.57252e-12
-5.5906e-12
4.2958e-12
-4.4378e-12
3.71105e-12
-9.04459e-12
7.056e-12
-7.29531e-12
4.80454e-12
-1.24251e-11
9.9111e-12
-1.02592e-11
5.88979e-12
-1.58534e-11
1.30127e-11
-1.34899e-11
7.00352e-12
-1.94278e-11
1.65017e-11
-1.71379e-11
8.18446e-12
-2.32283e-11
2.05139e-11
-2.1351e-11
9.47534e-12
-2.73197e-11
2.51835e-11
-2.62779e-11
1.09243e-11
-3.1756e-11
3.06433e-11
-3.20713e-11
1.2585e-11
-3.65854e-11
3.70224e-11
-3.88871e-11
1.45174e-11
-4.18593e-11
4.44379e-11
-4.68811e-11
1.67858e-11
-4.76439e-11
5.29792e-11
-5.62007e-11
1.94503e-11
-5.40265e-11
6.2663e-11
-6.69542e-11
2.25147e-11
-6.10643e-11
7.3287e-11
-7.90966e-11
2.5555e-11
-6.83353e-11
8.38619e-11
-9.16418e-11
-7.54608e-11
9.27227e-11
-1.05008e-10
1.46616e-12
1.58937e-12
-1.64091e-12
-1.98545e-12
2.79012e-12
4.67424e-12
-4.82794e-12
-5.80221e-12
4.01568e-12
7.66794e-12
-7.92652e-12
-9.39877e-12
5.18146e-12
1.07501e-11
-1.11253e-11
-1.29355e-11
6.32342e-12
1.40787e-11
-1.45912e-11
-1.65448e-11
7.47672e-12
1.7799e-11
-1.84795e-11
-2.03377e-11
8.67769e-12
2.20492e-11
-2.294e-11
-2.4409e-11
9.96586e-12
2.69638e-11
-2.81217e-11
-2.88417e-11
1.13856e-11
3.26749e-11
-3.41757e-11
-3.37125e-11
1.29882e-11
3.93106e-11
-4.1256e-11
-3.90989e-11
1.48351e-11
4.69915e-11
-4.95194e-11
-4.50895e-11
1.70051e-11
5.58222e-11
-5.91258e-11
-5.18003e-11
1.95995e-11
6.58664e-11
-7.02276e-11
-5.93899e-11
2.27037e-11
7.70373e-11
-8.2897e-11
-6.80325e-11
2.59238e-11
8.84405e-11
-9.62493e-11
-7.72952e-11
9.9299e-11
-1.11964e-10
-8.88724e-11
1.27989e-13
-3.65434e-13
1.251e-13
2.44895e-13
-1.06453e-12
3.68649e-13
3.55847e-13
-1.71329e-12
6.07219e-13
4.65567e-13
-2.33455e-12
8.56422e-13
5.78672e-13
-2.94372e-12
1.13017e-12
7.00076e-13
-3.54789e-12
1.44126e-12
8.35563e-13
-4.14388e-12
1.80164e-12
9.9269e-13
-4.71491e-12
2.22212e-12
1.18235e-12
-5.22472e-12
2.71155e-12
1.42192e-12
-5.60779e-12
3.27486e-12
1.74174e-12
-5.75298e-12
3.90938e-12
2.19863e-12
-5.47597e-12
4.59846e-12
2.89829e-12
-4.47417e-12
5.29942e-12
4.00325e-12
-2.28742e-12
5.91832e-12
5.51697e-12
1.41551e-12
6.27296e-12
6.25396e-12
6.23589e-12
3.80378e-13
-7.19999e-13
3.71992e-13
7.27668e-13
-2.09784e-12
1.09611e-12
1.05694e-12
-3.37781e-12
1.80515e-12
1.382e-12
-4.60584e-12
2.54536e-12
1.71633e-12
-5.81375e-12
3.35791e-12
2.07412e-12
-7.01785e-12
4.28071e-12
2.47181e-12
-8.21585e-12
5.34907e-12
2.93022e-12
-9.3814e-12
6.59504e-12
3.47807e-12
-1.04549e-11
8.04471e-12
4.15842e-12
-1.13294e-11
9.71211e-12
5.04108e-12
-1.18325e-11
1.15875e-11
6.24531e-12
-1.1708e-11
1.36164e-11
7.96768e-12
-1.06265e-11
1.56605e-11
1.04497e-11
-8.31207e-12
1.74285e-11
1.35147e-11
-5.03641e-12
1.84256e-11
-2.40338e-12
1.75317e-11
6.22308e-13
-1.0531e-12
6.09263e-13
1.19001e-12
-3.06945e-12
1.79495e-12
1.72722e-12
-4.94574e-12
2.95511e-12
2.2559e-12
-6.7515e-12
4.16491e-12
2.79735e-12
-8.5366e-12
5.49123e-12
3.37371e-12
-1.03302e-11
6.99567e-12
4.00982e-12
-1.21378e-11
8.73575e-12
4.73562e-12
-1.3935e-11
1.07639e-11
5.58924e-12
-1.56584e-11
1.3123e-11
6.62141e-12
-1.71919e-11
1.58367e-11
7.90235e-12
-1.83527e-11
1.88895e-11
9.52974e-12
-1.88887e-11
2.2192e-11
1.1623e-11
-1.8526e-11
2.55193e-11
1.42391e-11
-1.71518e-11
2.84186e-11
1.69859e-11
-1.5215e-11
3.01967e-11
-1.40934e-11
2.98584e-11
8.47586e-13
-1.35395e-12
8.31144e-13
1.61982e-12
-3.94806e-12
2.44804e-12
2.34852e-12
-6.36723e-12
4.02838e-12
3.0625e-12
-8.70467e-12
5.67355e-12
3.78946e-12
-1.10299e-11
7.47372e-12
4.55771e-12
-1.33888e-11
9.51193e-12
5.39801e-12
-1.58014e-11
1.1866e-11
6.3454e-12
-1.82577e-11
1.46075e-11
7.4404e-12
-2.07096e-11
1.77966e-11
8.7289e-12
-2.30602e-11
2.1469e-11
1.02587e-11
-2.51522e-11
2.56122e-11
1.20682e-11
-2.67635e-11
3.01201e-11
1.4152e-11
-2.76362e-11
3.47171e-11
1.63791e-11
-2.75928e-11
3.88493e-11
1.83169e-11
-2.68131e-11
4.16659e-11
-2.62455e-11
4.20111e-11
1.05094e-12
-1.61191e-12
1.03259e-12
2.00682e-12
-4.70262e-12
3.04036e-12
2.90553e-12
-7.5921e-12
4.99971e-12
3.78115e-12
-1.03964e-11
7.03472e-12
4.66616e-12
-1.32054e-11
9.25543e-12
5.59323e-12
-1.60841e-11
1.17632e-11
6.59689e-12
-1.90727e-11
1.46534e-11
7.71479e-12
-2.21846e-11
1.80146e-11
8.98731e-12
-2.54021e-11
2.19233e-11
1.04539e-11
-2.86694e-11
2.64311e-11
1.21427e-11
-3.1883e-11
3.1538e-11
1.40475e-11
-3.48776e-11
3.71436e-11
1.60778e-11
-3.74073e-11
4.29585e-11
1.79823e-11
-3.9131e-11
4.83665e-11
1.93027e-11
-3.97182e-11
5.23422e-11
-3.93526e-11
5.34751e-11
1.22836e-12
-1.81684e-12
1.20957e-12
2.34324e-12
-5.30338e-12
3.55993e-12
3.38679e-12
-8.57165e-12
5.84904e-12
4.39665e-12
-1.17585e-11
8.21929e-12
5.40836e-12
-1.4973e-11
1.07965e-11
6.45717e-12
-1.82997e-11
1.36964e-11
7.57969e-12
-2.1801e-11
1.70277e-11
8.81499e-12
-2.55179e-11
2.08921e-11
1.0204e-11
-2.94703e-11
2.53805e-11
1.17858e-11
-3.3656e-11
3.05601e-11
1.35882e-11
-3.8048e-11
3.64506e-11
1.56067e-11
-4.25847e-11
4.29758e-11
1.77622e-11
-4.71337e-11
4.9871e-11
1.98255e-11
-5.13865e-11
5.65139e-11
2.13307e-11
-5.4676e-11
6.17406e-11
-5.58161e-11
6.38828e-11
1.37719e-12
-1.95956e-12
1.35927e-12
2.6241e-12
-5.72334e-12
3.9984e-12
3.7852e-12
-9.26133e-12
6.56246e-12
4.89991e-12
-1.27275e-11
9.20728e-12
6.00502e-12
-1.62471e-11
1.20698e-11
7.13658e-12
-1.99219e-11
1.52749e-11
8.3316e-12
-2.38344e-11
1.89397e-11
9.6294e-12
-2.8051e-11
2.31738e-11
1.1072e-11
-3.26261e-11
2.80762e-11
1.27028e-11
-3.76067e-11
3.3725e-11
1.45638e-11
-4.30404e-11
4.01571e-11
1.66891e-11
-4.8984e-11
4.7326e-11
1.90892e-11
-5.55032e-11
5.50142e-11
2.16992e-11
-6.2606e-11
6.26474e-11
2.41442e-11
-6.98416e-11
6.89987e-11
-7.63849e-11
7.21678e-11
1.49628e-12
1.48018e-12
-2.03244e-12
2.84742e-12
4.3515e-12
-5.94002e-12
4.09831e-12
7.13315e-12
-9.62398e-12
5.28829e-12
9.98922e-12
-1.32499e-11
6.45365e-12
1.30626e-11
-1.69546e-11
7.62933e-12
1.64824e-11
-2.08525e-11
8.85074e-12
2.03677e-11
-2.50405e-11
1.01553e-11
2.4829e-11
-2.96027e-11
1.15835e-11
2.99648e-11
-3.46152e-11
1.31803e-11
3.58534e-11
-4.0152e-11
1.49962e-11
4.25352e-11
-4.62942e-11
1.70913e-11
4.99771e-11
-5.31422e-11
1.95353e-11
5.79952e-11
-6.08228e-11
2.23669e-11
6.60848e-11
-6.94444e-11
2.52294e-11
7.30417e-11
-7.85308e-11
7.68272e-11
-8.90398e-11
1.29701e-13
-3.72923e-13
1.11356e-13
2.48031e-13
-1.0865e-12
3.28017e-13
3.60026e-13
-1.74915e-12
5.39852e-13
4.70226e-13
-2.38456e-12
7.6043e-13
5.82931e-13
-3.00901e-12
1.00167e-12
7.02462e-13
-3.63062e-12
1.2742e-12
8.33559e-13
-4.24783e-12
1.58741e-12
9.81923e-13
-4.84673e-12
1.94889e-12
1.15511e-12
-5.39685e-12
2.36303e-12
1.36431e-12
-5.84476e-12
2.82821e-12
1.62797e-12
-6.10538e-12
3.33164e-12
1.97888e-12
-6.05112e-12
3.84044e-12
2.47325e-12
-5.50214e-12
4.28728e-12
3.18181e-12
-4.24129e-12
4.55248e-12
4.0478e-12
-2.21415e-12
4.48494e-12
4.00998e-13
4.11608e-12
3.85504e-13
-7.34713e-13
3.31136e-13
7.37075e-13
-2.14098e-12
9.75332e-13
1.06952e-12
-3.44822e-12
1.60494e-12
1.39616e-12
-4.70397e-12
2.26017e-12
1.72953e-12
-5.94168e-12
2.97629e-12
2.08218e-12
-7.17953e-12
3.78483e-12
2.46757e-12
-8.41798e-12
4.71362e-12
2.90132e-12
-9.63547e-12
5.78527e-12
3.40287e-12
-1.07817e-11
7.01305e-12
3.99847e-12
-1.1769e-11
8.39265e-12
4.72676e-12
-1.24638e-11
9.8871e-12
5.6475e-12
-1.2689e-11
1.14014e-11
6.84515e-12
-1.22624e-11
1.27432e-11
8.38056e-12
-1.11307e-11
1.35828e-11
1.00213e-11
-9.6598e-12
1.3542e-11
-8.97449e-12
1.23084e-11
6.30839e-13
-1.07455e-12
5.42379e-13
1.20571e-12
-3.13231e-12
1.59728e-12
1.74837e-12
-5.04828e-12
2.62756e-12
2.28006e-12
-6.89426e-12
3.69862e-12
2.8207e-12
-8.72232e-12
4.86776e-12
3.38992e-12
-1.0564e-11
6.18631e-12
4.00819e-12
-1.24279e-11
7.69981e-12
4.69778e-12
-1.4295e-11
9.44564e-12
5.48342e-12
-1.61117e-11
1.14468e-11
6.39225e-12
-1.77815e-11
1.3699e-11
7.45274e-12
-1.91604e-11
1.61483e-11
8.68858e-12
-2.00708e-11
1.86532e-11
1.00948e-11
-2.03684e-11
2.09328e-11
1.15646e-11
-2.01114e-11
2.2527e-11
1.27422e-11
-1.97701e-11
2.29515e-11
-2.02571e-11
2.21199e-11
8.59503e-13
-1.38141e-12
7.39975e-13
1.64185e-12
-4.02853e-12
2.17868e-12
2.37848e-12
-6.49842e-12
3.58229e-12
3.09738e-12
-8.88711e-12
5.03908e-12
3.82462e-12
-1.12667e-11
6.62634e-12
4.58554e-12
-1.36854e-11
8.41344e-12
5.40573e-12
-1.61664e-11
1.04623e-11
6.31128e-12
-1.87038e-11
1.28246e-11
7.3273e-12
-2.12572e-11
1.55345e-11
8.47326e-12
-2.37444e-11
1.85926e-11
9.75186e-12
-2.60364e-11
2.1939e-11
1.11252e-11
-2.79654e-11
2.54097e-11
1.24684e-11
-2.93676e-11
2.86779e-11
1.35099e-11
-3.01947e-11
3.12171e-11
1.389e-11
-3.06611e-11
3.24631e-11
-3.13941e-11
3.2299e-11
1.06619e-12
-1.64447e-12
9.19445e-13
2.03515e-12
-4.79802e-12
2.7062e-12
2.94445e-12
-7.74753e-12
4.44675e-12
3.82739e-12
-1.06124e-11
6.24916e-12
4.71478e-12
-1.34849e-11
8.2079e-12
5.63623e-12
-1.64327e-11
1.04078e-11
6.62101e-12
-1.9498e-11
1.2925e-11
7.69764e-12
-2.26966e-11
1.58244e-11
8.89107e-12
-2.60144e-11
1.91514e-11
1.02147e-11
-2.94018e-11
2.29156e-11
1.16533e-11
-3.27677e-11
2.70613e-11
1.31279e-11
-3.59708e-11
3.14205e-11
1.44365e-11
-3.881e-11
3.5648e-11
1.51979e-11
-4.10186e-11
3.91716e-11
1.50256e-11
-4.23252e-11
4.13183e-11
-4.27789e-11
4.18558e-11
1.24681e-12
-1.85341e-12
1.0772e-12
2.37769e-12
-5.41051e-12
3.16919e-12
3.43462e-12
-8.74612e-12
5.20311e-12
4.45458e-12
-1.20007e-11
7.30304e-12
5.47161e-12
-1.52859e-11
9.57715e-12
6.51818e-12
-1.86883e-11
1.21224e-11
7.62602e-12
-2.22716e-11
1.5026e-11
8.82592e-12
-2.60769e-11
1.83632e-11
1.01449e-11
-3.01232e-11
2.21894e-11
1.15988e-11
-3.44056e-11
2.65238e-11
1.31766e-11
-3.88921e-11
3.13204e-11
1.48093e-11
-4.35119e-11
3.64183e-11
1.63151e-11
-4.81172e-11
4.147e-11
1.73388e-11
-5.23838e-11
4.58678e-11
1.7463e-11
-5.56586e-11
4.88228e-11
-5.67371e-11
4.99843e-11
1.39864e-12
-1.99889e-12
1.21073e-12
2.66432e-12
-5.83854e-12
3.56019e-12
3.84157e-12
-9.44894e-12
5.83896e-12
4.96934e-12
-1.29877e-11
8.1829e-12
6.08325e-12
-1.65828e-11
1.07098e-11
7.21702e-12
-2.03378e-11
1.35248e-11
8.4036e-12
-2.43353e-11
1.67218e-11
9.6754e-12
-2.864e-11
2.03824e-11
1.10629e-11
-3.33016e-11
2.45678e-11
1.25906e-11
-3.83577e-11
2.93039e-11
1.42686e-11
-4.3837e-11
3.45524e-11
1.60764e-11
-4.97612e-11
4.01619e-11
1.79343e-11
-5.61301e-11
4.57876e-11
1.96563e-11
-6.28416e-11
5.07901e-11
2.08857e-11
-6.93537e-11
5.42549e-11
-7.4711e-11
5.56801e-11
1.52041e-12
1.31868e-12
-2.07314e-12
2.89287e-12
3.87537e-12
-6.05929e-12
4.16249e-12
6.34818e-12
-9.81827e-12
5.36846e-12
8.88026e-12
-1.35194e-11
6.54621e-12
1.15947e-11
-1.73023e-11
7.72897e-12
1.46003e-11
-2.12825e-11
8.94901e-12
1.79931e-11
-2.55567e-11
1.02384e-11
2.18553e-11
-3.02061e-11
1.1629e-11
2.62479e-11
-3.52998e-11
1.3151e-11
3.11966e-11
-4.08984e-11
1.48308e-11
3.66641e-11
-4.70582e-11
1.66855e-11
4.25032e-11
-5.38347e-11
1.87115e-11
4.83752e-11
-6.12746e-11
2.08411e-11
5.36375e-11
-6.93579e-11
2.27263e-11
5.73069e-11
-7.75228e-11
5.84047e-11
-8.64517e-11
1.30864e-13
-3.79271e-13
9.37912e-14
2.50077e-13
-1.10512e-12
2.76178e-13
3.62518e-13
-1.77957e-12
4.54194e-13
4.72474e-13
-2.42701e-12
6.39011e-13
5.83812e-13
-3.0645e-12
8.40264e-13
7.00138e-13
-3.70112e-12
1.06629e-12
8.2498e-13
-4.3369e-12
1.324e-12
9.61983e-13
-4.96078e-12
1.61816e-12
1.11516e-12
-5.5478e-12
1.94998e-12
1.28952e-12
-6.05538e-12
2.31429e-12
1.49257e-12
-6.41966e-12
2.69515e-12
1.73743e-12
-6.55332e-12
3.05942e-12
2.04642e-12
-6.34691e-12
3.34988e-12
2.44415e-12
-5.68036e-12
3.48617e-12
2.88492e-12
-4.51421e-12
3.40449e-12
-2.67109e-12
3.29616e-12
3.89017e-13
-7.47179e-13
2.78915e-13
7.4328e-13
-2.17754e-12
8.21227e-13
1.07715e-12
-3.50787e-12
1.35035e-12
1.40321e-12
-4.78711e-12
1.89939e-12
1.73279e-12
-6.05005e-12
2.49688e-12
2.07639e-12
-7.31659e-12
3.16754e-12
2.44406e-12
-8.58982e-12
3.93191e-12
2.84566e-12
-9.85281e-12
4.80436e-12
3.29089e-12
-1.1064e-11
5.78883e-12
3.78942e-12
-1.21524e-11
6.87091e-12
4.35168e-12
-1.30155e-11
8.00523e-12
4.9902e-12
-1.35303e-11
9.09768e-12
5.71696e-12
-1.35918e-11
9.98771e-12
6.51733e-12
-1.32069e-11
1.04558e-11
7.24443e-12
-1.2626e-11
1.03441e-11
-1.24514e-11
9.68695e-12
6.36772e-13
-1.09269e-12
4.56879e-13
1.21626e-12
-3.18549e-12
1.34501e-12
1.76155e-12
-5.13496e-12
2.21095e-12
2.29278e-12
-7.01478e-12
3.10853e-12
2.82804e-12
-8.87879e-12
4.08417e-12
3.38393e-12
-1.07606e-11
5.17819e-12
3.97585e-12
-1.26716e-11
6.42428e-12
4.61765e-12
-1.45975e-11
7.84662e-12
5.32018e-12
-1.64936e-11
9.4532e-12
6.08789e-12
-1.82795e-11
1.12241e-11
6.91285e-12
-1.98407e-11
1.30926e-11
7.76341e-12
-2.10471e-11
1.49208e-11
8.56378e-12
-2.18143e-11
1.64788e-11
9.16803e-12
-2.22262e-11
1.74666e-11
9.39332e-12
-2.26143e-11
1.76899e-11
-2.34829e-11
1.7389e-11
8.67944e-13
-1.4046e-12
6.23393e-13
1.65698e-12
-4.09645e-12
1.8348e-12
2.39777e-12
-6.60897e-12
3.01467e-12
3.11697e-12
-9.04041e-12
4.23573e-12
3.83846e-12
-1.14647e-11
5.56064e-12
4.58395e-12
-1.39323e-11
7.04395e-12
5.37303e-12
-1.64682e-11
8.73176e-12
6.22202e-12
-1.90702e-11
1.06581e-11
7.14034e-12
-2.17036e-11
1.28368e-11
8.12271e-12
-2.42967e-11
1.52473e-11
9.13435e-12
-2.67394e-11
1.78128e-11
1.00849e-11
-2.88936e-11
2.03722e-11
1.07921e-11
-3.06311e-11
2.26613e-11
1.09765e-11
-3.19142e-11
2.43454e-11
1.04776e-11
-3.28615e-11
2.51986e-11
-3.38247e-11
2.54519e-11
1.07721e-12
-1.6719e-12
7.74692e-13
2.05509e-12
-4.87831e-12
2.27938e-12
2.97041e-12
-7.87803e-12
3.74275e-12
3.8551e-12
-1.07928e-11
5.25385e-12
4.73767e-12
-1.3717e-11
6.88934e-12
5.64396e-12
-1.67195e-11
8.71612e-12
6.59699e-12
-1.98438e-11
1.07911e-11
7.61538e-12
-2.31063e-11
1.31575e-11
8.70848e-12
-2.64941e-11
1.5836e-11
9.86594e-12
-2.99593e-11
1.88092e-11
1.10378e-11
-3.34138e-11
2.19979e-11
1.20991e-11
-3.67207e-11
2.52314e-11
1.28022e-11
-3.9682e-11
2.82271e-11
1.27718e-11
-4.2023e-11
3.06216e-11
1.1813e-11
-4.34326e-11
3.21309e-11
-4.38246e-11
3.29299e-11
1.26041e-12
-1.88413e-12
9.07761e-13
2.40254e-12
-5.50038e-12
2.66979e-12
3.46764e-12
-8.89203e-12
4.38017e-12
4.49142e-12
-1.2202e-11
6.14119e-12
5.50575e-12
-1.55437e-11
8.04073e-12
6.5395e-12
-1.90046e-11
1.01554e-11
7.61857e-12
-2.26478e-11
1.25506e-11
8.76457e-12
-2.65128e-11
1.5277e-11
9.99039e-12
-3.06141e-11
1.83611e-11
1.12908e-11
-3.4939e-11
2.17899e-11
1.26248e-11
-3.94417e-11
2.54849e-11
1.38839e-11
-4.40273e-11
2.92704e-11
1.48477e-11
-4.85098e-11
3.28461e-11
1.51672e-11
-5.25157e-11
3.58087e-11
1.4594e-11
-5.53774e-11
3.78001e-11
-5.59102e-11
3.89651e-11
1.41475e-12
-2.03184e-12
1.02046e-12
2.69402e-12
-5.9349e-12
2.99974e-12
3.88175e-12
-9.60525e-12
4.91646e-12
5.01584e-12
-1.3203e-11
6.88273e-12
6.13002e-12
-1.68577e-11
8.99439e-12
7.25486e-12
-2.0673e-11
1.13346e-11
8.41824e-12
-2.47299e-11
1.39741e-11
9.64471e-12
-2.9089e-11
1.69679e-11
1.09528e-11
-3.37913e-11
2.03461e-11
1.23496e-11
-3.88587e-11
2.40976e-11
1.382e-11
-4.42931e-11
2.81441e-11
1.53103e-11
-5.00698e-11
3.23032e-11
1.67063e-11
-5.61144e-11
3.62512e-11
1.7821e-11
-6.2226e-11
3.95222e-11
1.84388e-11
-6.78336e-11
4.16529e-11
-7.20171e-11
4.27578e-11
1.53888e-12
1.11165e-12
-2.10716e-12
2.92716e-12
3.26593e-12
-6.1588e-12
4.20959e-12
5.34639e-12
-9.97962e-12
5.42455e-12
7.47125e-12
-1.37415e-11
6.60598e-12
9.74082e-12
-1.75852e-11
7.78454e-12
1.22413e-11
-2.16263e-11
8.98839e-12
1.50453e-11
-2.59589e-11
1.02432e-11
1.82083e-11
-3.06584e-11
1.15714e-11
2.17598e-11
-3.57829e-11
1.29894e-11
2.56876e-11
-4.13738e-11
1.45036e-11
2.99107e-11
-4.74549e-11
1.61037e-11
3.42406e-11
-5.40286e-11
1.77555e-11
3.83354e-11
-6.10611e-11
1.93831e-11
4.16795e-11
-6.84326e-11
2.07535e-11
4.37134e-11
-7.55805e-11
4.42104e-11
-8.31127e-11
1.31577e-13
-3.84388e-13
7.31004e-14
2.51251e-13
-1.12012e-12
2.15183e-13
3.63724e-13
-1.80408e-12
3.53655e-13
4.73006e-13
-2.46122e-12
4.97053e-13
5.82518e-13
-3.10917e-12
6.52614e-13
6.9516e-13
-3.75783e-12
8.26407e-13
8.13354e-13
-4.40844e-12
1.02315e-12
9.38968e-13
-5.05212e-12
1.24558e-12
1.07322e-12
-5.66783e-12
1.49321e-12
1.21678e-12
-6.21996e-12
1.76029e-12
1.37061e-12
-6.65649e-12
2.03291e-12
1.53855e-12
-6.90825e-12
2.28604e-12
1.73202e-12
-6.88775e-12
2.48287e-12
1.97143e-12
-6.48488e-12
2.58322e-12
2.24503e-12
-5.61278e-12
2.57066e-12
-3.94086e-12
2.63927e-12
3.91206e-13
-7.57228e-13
2.17392e-13
7.46918e-13
-2.207e-12
6.39882e-13
1.08098e-12
-3.55593e-12
1.05149e-12
1.40519e-12
-4.854e-12
1.47751e-12
1.72959e-12
-6.13707e-12
1.93938e-12
2.06271e-12
-7.42636e-12
2.45511e-12
2.41146e-12
-8.72697e-12
3.03877e-12
2.78076e-12
-1.00254e-11
3.69867e-12
3.17267e-12
-1.1286e-11
4.43375e-12
3.5854e-12
-1.24481e-11
5.22775e-12
4.01313e-12
-1.34258e-11
6.0411e-12
4.44795e-12
-1.41175e-11
6.80263e-12
4.88509e-12
-1.44338e-11
7.40825e-12
5.3254e-12
-1.43538e-11
7.74454e-12
5.73242e-12
-1.40059e-11
7.76698e-12
-1.37749e-11
7.51237e-12
6.40559e-13
-1.10731e-12
3.56125e-13
1.22265e-12
-3.22832e-12
1.04809e-12
1.76856e-12
-5.20468e-12
1.72178e-12
2.29722e-12
-7.11147e-12
2.41833e-12
2.82481e-12
-9.00386e-12
3.17263e-12
3.36498e-12
-1.09169e-11
4.01409e-12
3.92848e-12
-1.28641e-11
4.96592e-12
4.52201e-12
-1.48343e-11
6.04229e-12
5.14568e-12
-1.67882e-11
7.24293e-12
5.78875e-12
-1.86547e-11
8.54424e-12
6.42377e-12
-2.03325e-11
9.88765e-12
6.99968e-12
-2.17066e-11
1.11684e-11
7.43877e-12
-2.26946e-11
1.22369e-11
7.65353e-12
-2.33341e-11
1.29361e-11
7.62586e-12
-2.38366e-11
1.32102e-11
-2.45676e-11
1.32321e-11
8.73485e-13
-1.42326e-12
4.85968e-13
1.6665e-12
-4.15106e-12
1.4299e-12
2.4087e-12
-6.69765e-12
2.34797e-12
3.12528e-12
-9.1629e-12
3.2957e-12
3.83786e-12
-1.16221e-11
4.32023e-12
4.56459e-12
-1.41268e-11
5.46148e-12
5.31958e-12
-1.67035e-11
6.75128e-12
6.11088e-12
-1.93515e-11
8.20999e-12
6.93603e-12
-2.20386e-11
9.83975e-12
7.77392e-12
-2.46972e-11
1.16138e-11
8.57176e-12
-2.72222e-11
1.34628e-11
9.22678e-12
-2.94785e-11
1.52632e-11
9.57273e-12
-3.1328e-11
1.68421e-11
9.41782e-12
-3.26895e-11
1.80261e-11
8.77606e-12
-3.36056e-11
1.87452e-11
-3.43656e-11
1.91557e-11
1.08464e-12
-1.69393e-12
6.03992e-13
2.06808e-12
-4.9427e-12
1.77662e-12
2.98601e-12
-7.98236e-12
2.91546e-12
3.86882e-12
-1.09364e-11
4.08854e-12
4.74262e-12
-1.39002e-11
5.35359e-12
5.62949e-12
-1.69434e-11
6.75963e-12
6.54678e-12
-2.01092e-11
8.34614e-12
7.50476e-12
-2.34137e-11
1.01394e-11
8.50124e-12
-2.68418e-11
1.21448e-11
9.51143e-12
-3.03422e-11
1.43354e-11
1.04708e-11
-3.38202e-11
1.66365e-11
1.12495e-11
-3.71266e-11
1.89134e-11
1.16278e-11
-4.00399e-11
2.09779e-11
1.13302e-11
-4.22498e-11
2.26388e-11
1.03259e-11
-4.3425e-11
2.37948e-11
-4.35023e-11
2.45695e-11
1.26984e-12
-1.90874e-12
7.07844e-13
2.41928e-12
-5.57226e-12
2.08124e-12
3.48856e-12
-9.00827e-12
3.41255e-12
4.51191e-12
-1.23613e-11
4.77997e-12
5.51887e-12
-1.57457e-11
6.24976e-12
6.5347e-12
-1.92488e-11
7.87812e-12
7.57996e-12
-2.29323e-11
9.71059e-12
8.66853e-12
-2.6832e-11
1.17781e-11
9.80301e-12
-3.09559e-11
1.40893e-11
1.0966e-11
-3.52801e-11
1.66174e-11
1.21056e-11
-3.974e-11
1.9284e-11
1.31129e-11
-4.42115e-11
2.19438e-11
1.37996e-11
-4.84682e-11
2.43879e-11
1.39142e-11
-5.20984e-11
2.63924e-11
1.3354e-11
-5.4462e-11
2.78167e-11
-5.45186e-11
2.87898e-11
1.42618e-12
-2.05816e-12
7.95853e-13
2.71463e-12
-6.01176e-12
2.33884e-12
3.90839e-12
-9.72935e-12
3.83106e-12
5.04404e-12
-1.33727e-11
5.35829e-12
6.15322e-12
-1.70718e-11
6.99285e-12
7.2633e-12
-2.09295e-11
8.79588e-12
8.39743e-12
-2.50242e-11
1.08168e-11
9.57351e-12
-2.94106e-11
1.30892e-11
1.08015e-11
-3.41193e-11
1.56232e-11
1.20784e-11
-3.91548e-11
1.83913e-11
1.33812e-11
-4.44912e-11
2.13106e-11
1.46575e-11
-5.00616e-11
2.42224e-11
1.5822e-11
-5.57359e-11
2.68874e-11
1.67723e-11
-6.12654e-11
2.9024e-11
1.74174e-11
-6.61279e-11
3.04287e-11
-6.9597e-11
3.12656e-11
1.55226e-12
8.67108e-13
-2.13429e-12
2.95158e-12
2.54681e-12
-6.23796e-12
4.24202e-12
4.16686e-12
-1.01074e-11
5.46083e-12
5.81779e-12
-1.39158e-11
6.64024e-12
7.57543e-12
-1.78044e-11
7.80821e-12
9.50329e-12
-2.18875e-11
8.98896e-12
1.1652e-11
-2.62555e-11
1.02028e-11
1.40557e-11
-3.09768e-11
1.1465e-11
1.67235e-11
-3.60971e-11
1.27844e-11
1.96259e-11
-4.16375e-11
1.41609e-11
2.2675e-11
-4.75906e-11
1.55853e-11
2.57008e-11
-5.39143e-11
1.70449e-11
2.84366e-11
-6.05195e-11
1.85281e-11
3.05451e-11
-6.7245e-11
1.99021e-11
3.17509e-11
-7.35991e-11
3.20416e-11
-8.0335e-11
1.31957e-13
-3.88222e-13
5.00376e-14
2.51811e-13
-1.13137e-12
1.47261e-13
3.64099e-13
-1.82245e-12
2.41911e-13
4.72578e-13
-2.48685e-12
3.39738e-13
5.80278e-13
-3.1426e-12
4.45554e-13
6.89524e-13
-3.80009e-12
5.63291e-13
8.01883e-13
-4.46139e-12
6.95845e-13
9.17972e-13
-5.11895e-12
8.44627e-13
1.03726e-12
-5.75387e-12
1.00871e-12
1.15817e-12
-6.33379e-12
1.18361e-12
1.27926e-12
-6.81105e-12
1.3598e-12
1.40273e-12
-7.12046e-12
1.52186e-12
1.54171e-12
-7.17365e-12
1.64991e-12
1.72668e-12
-6.84596e-12
1.72634e-12
1.96789e-12
-6.01695e-12
1.74761e-12
-4.32156e-12
1.85221e-12
3.92409e-13
-7.64772e-13
1.48814e-13
7.48735e-13
-2.22912e-12
4.37928e-13
1.08234e-12
-3.59198e-12
7.19294e-13
1.40427e-12
-4.90411e-12
1.00995e-12
1.72351e-12
-6.20206e-12
1.32414e-12
2.04692e-12
-7.50791e-12
1.67356e-12
2.37902e-12
-8.82802e-12
2.06685e-12
2.72127e-12
-1.01508e-11
2.50833e-12
3.07098e-12
-1.14438e-11
2.99555e-12
3.42066e-12
-1.26506e-11
3.51572e-12
3.75909e-12
-1.36903e-11
4.04166e-12
4.07713e-12
-1.44628e-11
4.52924e-12
4.38182e-12
-1.48671e-11
4.92113e-12
4.71298e-12
-1.48408e-11
5.1642e-12
5.09639e-12
-1.4447e-11
5.2439e-12
-1.40245e-11
5.15787e-12
6.42735e-13
-1.11829e-12
2.43799e-13
1.22605e-12
-3.26047e-12
7.17359e-13
1.77147e-12
-5.25694e-12
1.17792e-12
2.2968e-12
-7.18376e-12
1.6532e-12
2.81662e-12
-9.09693e-12
2.16638e-12
3.34211e-12
-1.10324e-11
2.73657e-12
3.88049e-12
-1.30048e-11
3.3781e-12
4.43345e-12
-1.50045e-11
4.09846e-12
4.99463e-12
-1.69945e-11
4.89464e-12
5.54621e-12
-1.89064e-11
5.74775e-12
6.05592e-12
-2.06407e-11
6.61719e-12
6.47758e-12
-2.20782e-11
7.43746e-12
6.76274e-12
-2.31155e-11
8.12468e-12
6.89501e-12
-2.37392e-11
8.60251e-12
6.93773e-12
-2.41033e-11
8.84835e-12
-2.45703e-11
8.93823e-12
8.76811e-13
-1.43727e-12
3.32721e-13
1.67188e-12
-4.19201e-12
9.78791e-13
2.41389e-12
-6.76401e-12
1.60649e-12
3.12673e-12
-9.25419e-12
2.25323e-12
3.83e-12
-1.17387e-11
2.95038e-12
4.53897e-12
-1.42695e-11
3.72389e-12
5.26356e-12
-1.68737e-11
4.59348e-12
6.00612e-12
-1.95506e-11
5.57013e-12
6.75725e-12
-2.22679e-11
6.65146e-12
7.48927e-12
-2.49569e-11
7.81525e-12
8.14752e-12
-2.75086e-11
9.01264e-12
8.64208e-12
-2.97772e-11
1.01653e-11
8.85164e-12
-3.15998e-11
1.11752e-11
8.67539e-12
-3.28528e-11
1.19568e-11
8.20466e-12
-3.35508e-11
1.2478e-11
-3.4016e-11
1.27983e-11
1.08928e-12
-1.71044e-12
4.13574e-13
2.07582e-12
-4.9909e-12
1.21627e-12
2.99429e-12
-8.06022e-12
1.99502e-12
3.87361e-12
-1.10429e-11
2.79567e-12
4.7378e-12
-1.4035e-11
3.65666e-12
5.60589e-12
-1.71061e-11
4.6099e-12
6.4909e-12
-2.02988e-11
5.67994e-12
7.39741e-12
-2.36272e-11
6.88111e-12
8.31677e-12
-2.70725e-11
8.21237e-12
9.21909e-12
-3.05773e-11
9.65e-12
1.00414e-11
-3.40362e-11
1.114e-11
1.06729e-11
-3.72822e-11
1.25949e-11
1.09482e-11
-4.00687e-11
1.39058e-11
1.06903e-11
-4.20592e-11
1.49757e-11
9.93511e-12
-4.29333e-11
1.57539e-11
-4.26997e-11
1.62823e-11
1.27591e-12
-1.92715e-12
4.84747e-13
2.42971e-12
-5.62595e-12
1.42499e-12
3.5006e-12
-9.09477e-12
2.33549e-12
4.52139e-12
-1.24791e-11
3.26896e-12
5.5196e-12
-1.58936e-11
4.26954e-12
6.51752e-12
-1.9425e-11
5.3739e-12
7.53162e-12
-2.31328e-11
6.61039e-12
8.57059e-12
-2.70489e-11
7.99605e-12
9.63153e-12
-3.11743e-11
9.53102e-12
1.06936e-11
-3.54734e-11
1.11905e-11
1.17087e-11
-3.98639e-11
1.29157e-11
1.25899e-11
-4.41974e-11
1.46094e-11
1.32049e-11
-4.82206e-11
1.6146e-11
1.33982e-11
-5.15105e-11
1.74064e-11
1.31233e-11
-5.3477e-11
1.83207e-11
-5.32167e-11
1.89451e-11
1.43376e-12
-2.07783e-12
5.45086e-13
2.72795e-12
-6.06904e-12
1.60158e-12
3.92468e-12
-9.82145e-12
2.62229e-12
5.05924e-12
-1.34976e-11
3.66507e-12
6.16142e-12
-1.72276e-11
4.77817e-12
7.25594e-12
-2.1113e-11
6.00153e-12
8.36232e-12
-2.52291e-11
7.36591e-12
9.49399e-12
-2.96247e-11
8.8899e-12
1.06564e-11
-3.43205e-11
1.05739e-11
1.18444e-11
-3.93057e-11
1.23915e-11
1.30398e-11
-4.45314e-11
1.42787e-11
1.42111e-11
-4.99014e-11
1.61258e-11
1.53246e-11
-5.52565e-11
1.77825e-11
1.63633e-11
-6.0344e-11
1.90905e-11
1.72857e-11
-6.47174e-11
1.9947e-11
-6.78148e-11
2.04544e-11
1.56133e-12
5.93962e-13
-2.15452e-12
2.96784e-12
1.74421e-12
-6.29684e-12
4.26277e-12
2.85255e-12
-1.02019e-11
5.4823e-12
3.98008e-12
-1.40438e-11
6.65707e-12
5.17745e-12
-1.79633e-11
7.81279e-12
6.4862e-12
-2.20731e-11
8.97061e-12
7.93797e-12
-2.646e-11
1.01471e-11
9.55142e-12
-3.11853e-11
1.13542e-11
1.13262e-11
-3.62836e-11
1.2599e-11
1.32338e-11
-4.17586e-11
1.38859e-11
1.52053e-11
-4.7579e-11
1.52234e-11
1.71204e-11
-5.36728e-11