/*--------------------------------*- C++ -*----------------------------------*\
| =========                 |                                                 |
| \\      /  F ield         | OpenFOAM: The Open Source CFD Toolbox           |
|  \\    /   O peration     | Version:  v1912                                 |
|   \\  /    A nd           | Website:  www.openfoam.com                      |
|    \\/     M anipulation  |                                                 |
\*---------------------------------------------------------------------------*/
FoamFile
{
    version     2.0;
    format      ascii;
    class       surfaceScalarField;
    location    "0.94/fluid";
    object      phi;
}
// * * * * * * * * * * * * * * * * * * * * * * * * * * * * * * * * * * * * * //

dimensions      [0 3 -1 0 0 0 0];
oriented        oriented;


internalField   nonuniform List<scalar> 
41600
(
5.00481e-05
1.26448e-05
3.24576e-07
-5.17563e-07
3.97422e-05
1.0659e-05
5.78765e-07
-9.31875e-07
3.19405e-05
8.19173e-06
5.19213e-07
-9.09192e-07
2.69471e-05
5.34279e-06
1.93519e-07
-5.42982e-07
2.38669e-05
3.34538e-06
-3.65863e-07
1.00755e-07
2.20036e-05
2.03254e-06
-1.09895e-06
9.29723e-07
2.08058e-05
1.27436e-06
-1.99077e-06
1.91413e-06
1.99248e-05
8.67571e-07
-3.05787e-06
3.0713e-06
1.91471e-05
6.70396e-07
-4.35702e-06
4.46439e-06
1.83394e-05
5.68369e-07
-5.96846e-06
6.20775e-06
1.74219e-05
4.86487e-07
-8.0393e-06
8.47027e-06
1.62775e-05
3.15425e-07
-1.06795e-05
1.15085e-05
1.47556e-05
2.96399e-08
-1.42492e-05
1.57415e-05
1.23574e-05
-7.0937e-07
-1.83411e-05
2.14487e-05
7.85626e-06
-1.27742e-06
-2.29602e-05
2.87387e-05
-3.6435e-06
-1.83942e-05
2.98939e-05
6.47427e-05
1.0676e-05
4.62826e-07
-7.36648e-07
6.33085e-05
1.2636e-05
8.8599e-07
-1.42879e-06
6.05695e-05
1.15956e-05
9.03741e-07
-1.56862e-06
5.75545e-05
9.02468e-06
4.94591e-07
-1.16147e-06
5.48777e-05
6.59779e-06
-3.55616e-07
-2.20061e-07
5.26783e-05
4.66479e-06
-1.59074e-06
1.15794e-06
5.08529e-05
3.37172e-06
-3.17844e-06
2.90641e-06
4.92114e-05
2.61514e-06
-5.12952e-06
5.02353e-06
4.75579e-05
2.25665e-06
-7.52303e-06
7.59021e-06
4.56916e-05
2.14542e-06
-1.04959e-05
1.07852e-05
4.34198e-05
2.15693e-06
-1.42873e-05
1.48887e-05
4.03976e-05
2.13596e-06
-1.91268e-05
2.03284e-05
3.61881e-05
2.01012e-06
-2.54935e-05
2.77225e-05
2.95417e-05
1.30387e-06
-3.27627e-05
3.73958e-05
1.92027e-05
3.30496e-07
-3.9853e-05
4.85841e-05
-2.82696e-06
-3.09524e-05
4.93385e-05
6.63665e-05
7.10624e-06
5.18354e-07
-8.15048e-07
6.87666e-05
1.08422e-05
1.0156e-06
-1.62196e-06
6.98069e-05
1.13185e-05
1.08297e-06
-1.84611e-06
6.9696e-05
9.92443e-06
6.86176e-07
-1.47498e-06
6.89312e-05
8.07031e-06
-1.9978e-07
-5.08008e-07
6.78055e-05
6.35106e-06
-1.53283e-06
9.72267e-07
6.64639e-05
5.0971e-06
-3.28666e-06
2.90292e-06
6.49167e-05
4.35645e-06
-5.47462e-06
5.28049e-06
6.30893e-05
4.07715e-06
-8.17804e-06
8.18494e-06
6.08217e-05
4.15314e-06
-1.15478e-05
1.18077e-05
5.78859e-05
4.47994e-06
-1.58415e-05
1.64543e-05
5.38314e-05
4.91227e-06
-2.13391e-05
2.26173e-05
4.80497e-05
5.36112e-06
-2.85487e-05
3.09795e-05
3.8915e-05
5.28654e-06
-3.69264e-05
4.20783e-05
2.4879e-05
4.45191e-06
-4.50916e-05
5.50061e-05
4.01601e-07
-3.54736e-05
5.71241e-05
6.53272e-05
4.57899e-06
5.44634e-07
-8.44631e-07
6.85485e-05
8.24539e-06
1.08313e-06
-1.70763e-06
7.11571e-05
9.50316e-06
1.18154e-06
-1.97475e-06
7.2736e-05
9.17173e-06
8.05592e-07
-1.6318e-06
7.34021e-05
8.15312e-06
-6.42319e-08
-6.84662e-07
7.33317e-05
7.02396e-06
-1.38622e-06
7.83718e-07
7.26918e-05
6.16094e-06
-3.13638e-06
2.71245e-06
7.15652e-05
5.71322e-06
-5.33102e-06
5.10084e-06
6.9947e-05
5.71844e-06
-8.05154e-06
8.02837e-06
6.77171e-05
6.14611e-06
-1.14535e-05
1.16905e-05
6.46433e-05
6.95247e-06
-1.57948e-05
1.63961e-05
6.02224e-05
8.04492e-06
-2.1384e-05
2.26723e-05
5.37352e-05
9.35676e-06
-2.87367e-05
3.12283e-05
4.3365e-05
1.02969e-05
-3.74189e-05
4.27787e-05
2.73224e-05
1.00582e-05
-4.60282e-05
5.64644e-05
4.6541e-06
-3.67195e-05
5.97894e-05
6.43907e-05
2.98543e-06
5.65392e-07
-8.62515e-07
6.73056e-05
5.95537e-06
1.13592e-06
-1.76082e-06
7.01931e-05
7.4117e-06
1.26312e-06
-2.05918e-06
7.24511e-05
7.74311e-06
9.12728e-07
-1.74207e-06
7.3914e-05
7.4417e-06
7.30973e-08
-8.24555e-07
7.45954e-05
6.94809e-06
-1.20776e-06
6.02198e-07
7.45903e-05
6.59486e-06
-2.90194e-06
2.47318e-06
7.39716e-05
6.56959e-06
-5.02383e-06
4.78616e-06
7.27528e-05
6.9711e-06
-7.65006e-06
7.61612e-06
7.08337e-05
7.84349e-06
-1.09347e-05
1.11565e-05
6.79873e-05
9.21769e-06
-1.51255e-05
1.57066e-05
6.36752e-05
1.10937e-05
-2.05491e-05
2.18124e-05
5.70817e-05
1.34811e-05
-2.77084e-05
3.01775e-05
4.61788e-05
1.58206e-05
-3.63118e-05
4.1691e-05
2.88245e-05
1.68499e-05
-4.49743e-05
5.55369e-05
9.92644e-06
-3.6317e-05
5.9869e-05
6.38317e-05
1.94706e-06
5.85325e-07
-8.78627e-07
6.62934e-05
4.11385e-06
1.18644e-06
-1.80663e-06
6.90495e-05
5.44636e-06
1.34602e-06
-2.13678e-06
7.15157e-05
6.09953e-06
1.02899e-06
-1.85168e-06
7.33907e-05
6.31031e-06
2.29988e-07
-9.7359e-07
7.45708e-05
6.36646e-06
-9.95205e-07
3.96775e-07
7.5071e-05
6.5191e-06
-2.61161e-06
2.18721e-06
7.49285e-05
6.95025e-06
-4.62801e-06
4.38983e-06
7.41507e-05
7.79005e-06
-7.11191e-06
7.07072e-06
7.26422e-05
9.14741e-06
-1.02114e-05
1.0416e-05
7.01789e-05
1.11303e-05
-1.41561e-05
1.47068e-05
6.61912e-05
1.38696e-05
-1.92859e-05
2.04978e-05
5.97824e-05
1.74984e-05
-2.60731e-05
2.84647e-05
4.86885e-05
2.1635e-05
-3.4404e-05
3.96836e-05
3.03497e-05
2.47408e-05
-4.29092e-05
5.33571e-05
1.66979e-05
-3.52202e-05
5.87985e-05
6.35671e-05
1.17035e-06
6.08242e-07
-8.9863e-07
6.57255e-05
2.57107e-06
1.24268e-06
-1.85835e-06
6.83277e-05
3.62938e-06
1.44035e-06
-2.22557e-06
7.08566e-05
4.38678e-06
1.16582e-06
-1.98193e-06
7.29673e-05
4.93617e-06
4.18596e-07
-1.15516e-06
7.4497e-05
5.42977e-06
-7.37553e-07
1.44575e-07
7.54114e-05
6.02733e-06
-2.25782e-06
1.83516e-06
7.57267e-05
6.87828e-06
-4.14043e-06
3.89707e-06
7.54568e-05
8.11753e-06
-6.436e-06
6.37841e-06
7.45351e-05
9.90108e-06
-9.2744e-06
9.44249e-06
7.27858e-05
1.24003e-05
-1.28464e-05
1.33257e-05
6.96752e-05
1.59106e-05
-1.74759e-05
1.85455e-05
6.43159e-05
2.07385e-05
-2.35421e-05
2.56613e-05
5.40408e-05
2.71557e-05
-3.11174e-05
3.58718e-05
3.54907e-05
3.38525e-05
-3.87387e-05
4.81771e-05
2.9998e-05
-3.24063e-05
5.45969e-05
6.34696e-05
6.34097e-07
-9.2315e-07
4.8979e-07
6.55053e-05
1.30498e-06
-1.91848e-06
1.14892e-06
6.80557e-05
1.54502e-06
-2.32769e-06
1.86162e-06
7.06484e-05
1.31942e-06
-2.13271e-06
2.60733e-06
7.29312e-05
6.31784e-07
-1.36597e-06
3.38759e-06
7.47198e-05
-4.47173e-07
-1.45474e-07
4.2338e-06
7.59609e-05
-1.86237e-06
1.43636e-06
5.2123e-06
7.66661e-05
-3.59955e-06
3.34606e-06
6.42651e-06
7.68621e-05
-5.69006e-06
5.61117e-06
8.00045e-06
7.65126e-05
-8.24144e-06
8.36752e-06
1.01245e-05
7.54918e-05
-1.14022e-05
1.18036e-05
1.30198e-05
7.33193e-05
-1.54718e-05
1.63887e-05
1.71662e-05
6.91894e-05
-2.07329e-05
2.25673e-05
2.3034e-05
6.01833e-05
-2.7467e-05
3.1672e-05
3.19567e-05
4.26606e-05
-3.42173e-05
4.26347e-05
4.29578e-05
-3.01495e-05
5.11647e-05
5.16434e-05
4.99822e-05
1.26511e-05
1.91261e-07
3.95503e-05
1.0678e-05
3.32686e-07
3.16086e-05
8.21444e-06
2.46491e-07
2.64849e-05
5.36262e-06
-4.53311e-08
2.32843e-05
3.36364e-06
-5.28964e-07
2.12989e-05
2.05245e-06
-1.16599e-06
1.99584e-05
1.30093e-06
-1.95122e-06
1.88951e-05
9.04709e-07
-2.89922e-06
1.78745e-05
7.21856e-07
-4.05829e-06
1.6747e-05
6.3731e-07
-5.47831e-06
1.54031e-05
5.80581e-07
-7.27597e-06
1.37337e-05
4.44831e-07
-9.4549e-06
1.15352e-05
2.17406e-07
-1.22681e-05
8.59967e-06
-4.3442e-07
-1.49712e-05
3.99472e-06
-1.0166e-06
-1.73386e-05
-2.83605e-06
-1.15634e-05
6.46497e-05
1.06908e-05
2.73371e-07
6.30328e-05
1.26727e-05
5.08249e-07
6.00636e-05
1.16471e-05
4.40247e-07
5.68018e-05
9.08084e-06
3.81309e-08
5.38747e-05
6.6574e-06
-7.22265e-07
5.14145e-05
4.73247e-06
-1.81056e-06
4.9294e-05
3.45734e-06
-3.21429e-06
4.72897e-05
2.72925e-06
-4.94982e-06
4.51656e-05
2.41046e-06
-7.08748e-06
4.2681e-05
2.34806e-06
-9.72211e-06
3.95899e-05
2.42236e-06
-1.3038e-05
3.55437e-05
2.47103e-06
-1.71067e-05
3.00638e-05
2.42849e-06
-2.22247e-05
2.23753e-05
1.78381e-06
-2.72924e-05
1.1683e-05
7.27987e-07
-3.09053e-05
-2.31599e-06
-1.97894e-05
6.62729e-05
7.12457e-06
3.11655e-07
6.84821e-05
1.08877e-05
5.91466e-07
6.92752e-05
1.1389e-05
5.47941e-07
6.88889e-05
1.00121e-05
1.41275e-07
6.78345e-05
8.17352e-06
-6.61554e-07
6.64008e-05
6.4756e-06
-1.8422e-06
6.47102e-05
5.25638e-06
-3.39516e-06
6.27392e-05
4.56748e-06
-5.34183e-06
6.03676e-05
4.36044e-06
-7.75645e-06
5.73872e-05
4.52828e-06
-1.07476e-05
5.3507e-05
4.97351e-06
-1.45124e-05
4.82615e-05
5.53778e-06
-1.91603e-05
4.09915e-05
6.13944e-06
-2.49897e-05
3.05916e-05
6.14767e-06
-3.08903e-05
1.60965e-05
5.20511e-06
-3.50736e-05
7.42265e-07
-2.24354e-05
6.52364e-05
4.59867e-06
3.3412e-07
6.82688e-05
8.295e-06
6.43452e-07
7.06328e-05
9.58535e-06
6.2118e-07
7.19381e-05
9.28339e-06
2.28984e-07
7.23142e-05
8.29486e-06
-5.61711e-07
7.19332e-05
7.20345e-06
-1.73302e-06
7.09402e-05
6.3949e-06
-3.28193e-06
6.93849e-05
6.02492e-06
-5.23318e-06
6.72166e-05
6.13866e-06
-7.66149e-06
6.42635e-05
6.7085e-06
-1.06806e-05
6.02254e-05
7.70338e-06
-1.44866e-05
5.45744e-05
9.01717e-06
-1.92123e-05
4.65286e-05
1.06007e-05
-2.51522e-05
3.47968e-05
1.17172e-05
-3.12567e-05
1.82023e-05
1.14298e-05
-3.56583e-05
5.10877e-06
-2.28837e-05
6.43021e-05
3.00666e-06
3.55295e-07
6.70313e-05
6.00911e-06
6.92616e-07
6.96805e-05
7.50377e-06
6.95536e-07
7.16746e-05
7.87508e-06
3.26924e-07
7.28606e-05
7.61716e-06
-4.35179e-07
7.32469e-05
7.17714e-06
-1.5678e-06
7.2907e-05
6.89755e-06
-3.06472e-06
7.18818e-05
6.97535e-06
-4.94901e-06
7.01399e-05
7.52139e-06
-7.29089e-06
6.75289e-05
8.58838e-06
-1.02036e-05
6.37513e-05
1.0229e-05
-1.38735e-05
5.82345e-05
1.24358e-05
-1.84509e-05
5.00846e-05
1.5257e-05
-2.42147e-05
3.77745e-05
1.79419e-05
-3.02265e-05
1.97376e-05
1.9107e-05
-3.46146e-05
1.07713e-05
-2.22418e-05
6.37447e-05
1.97075e-06
3.76497e-07
6.60241e-05
4.17298e-06
7.43242e-07
6.85486e-05
5.54834e-06
7.76948e-07
7.07628e-05
6.24937e-06
4.40513e-07
7.23779e-05
6.51445e-06
-2.82408e-07
7.32846e-05
6.63771e-06
-1.36253e-06
7.34771e-05
6.88086e-06
-2.78744e-06
7.29615e-05
7.43795e-06
-4.57502e-06
7.17022e-05
8.45589e-06
-6.78708e-06
6.95521e-05
1.00594e-05
-9.53237e-06
6.62167e-05
1.23897e-05
-1.29813e-05
6.10827e-05
1.5583e-05
-1.72992e-05
5.31621e-05
1.98419e-05
-2.27375e-05
4.0651e-05
2.45611e-05
-2.85121e-05
2.14889e-05
2.81316e-05
-3.27716e-05
1.82025e-05
-2.11626e-05
6.3482e-05
1.1969e-06
4.00114e-07
6.54622e-05
2.63599e-06
7.99499e-07
6.78404e-05
3.74049e-06
8.69919e-07
7.01303e-05
4.55108e-06
5.74236e-07
7.20005e-05
5.16219e-06
-9.9288e-08
7.32829e-05
5.7325e-06
-1.11476e-06
7.39245e-05
6.43262e-06
-2.45125e-06
7.39133e-05
7.42595e-06
-4.11717e-06
7.32252e-05
8.86778e-06
-6.15977e-06
7.17475e-05
1.09371e-05
-8.6744e-06
6.92429e-05
1.38481e-05
-1.18003e-05
6.51302e-05
1.79216e-05
-1.57018e-05
5.84316e-05
2.35626e-05
-2.05641e-05
4.68387e-05
3.08379e-05
-2.58013e-05
2.73529e-05
3.84423e-05
-2.95636e-05
3.23592e-05
-1.92101e-05
6.33865e-05
4.25609e-07
5.18934e-07
6.52485e-05
8.60209e-07
1.2187e-06
6.75836e-05
9.71169e-07
1.97927e-06
6.99512e-05
7.22007e-07
2.78091e-06
7.20133e-05
1.04807e-07
3.62709e-06
7.35817e-05
-8.38641e-07
4.55555e-06
7.45869e-05
-2.07832e-06
5.64333e-06
7.50156e-05
-3.61151e-06
7.0092e-06
7.4862e-05
-5.4688e-06
8.80008e-06
7.40502e-05
-7.72858e-06
1.12361e-05
7.24037e-05
-1.04958e-05
1.45883e-05
6.93925e-05
-1.39275e-05
1.93883e-05
6.41358e-05
-1.8139e-05
2.62254e-05
5.39715e-05
-2.27722e-05
3.63074e-05
3.55157e-05
-2.6057e-05
4.87377e-05
-1.765e-05
5.53753e-05
4.99319e-05
1.26572e-05
1.02158e-07
3.94009e-05
1.06952e-05
1.68439e-07
3.13417e-05
8.23594e-06
6.97914e-08
2.60991e-05
5.38301e-06
-1.85702e-07
2.27808e-05
3.38281e-06
-5.93557e-07
2.06707e-05
2.07289e-06
-1.12874e-06
1.91833e-05
1.32699e-06
-1.79078e-06
1.7934e-05
9.39673e-07
-2.58959e-06
1.66675e-05
7.68843e-07
-3.56071e-06
1.52169e-05
6.98617e-07
-4.72626e-06
1.34441e-05
6.61172e-07
-6.16438e-06
1.12546e-05
5.51015e-07
-7.81637e-06
8.46162e-06
3.57439e-07
-9.8326e-06
5.22601e-06
-2.43326e-07
-1.14923e-05
1.30022e-06
-9.09337e-07
-1.25035e-05
-2.50175e-06
-7.76146e-06
6.45783e-05
1.07059e-05
1.46452e-07
6.28174e-05
1.27082e-05
2.56194e-07
5.96567e-05
1.16977e-05
1.39183e-07
5.61762e-05
9.13847e-06
-2.36868e-07
5.3014e-05
6.71968e-06
-8.96971e-07
5.02985e-05
4.80253e-06
-1.82468e-06
4.78849e-05
3.54378e-06
-3.01745e-06
4.55233e-05
2.8415e-06
-4.49002e-06
4.29422e-05
2.55912e-06
-6.29675e-06
3.9869e-05
2.54184e-06
-8.49205e-06
3.60167e-05
2.67404e-06
-1.11986e-05
3.10614e-05
2.78625e-06
-1.43867e-05
2.45799e-05
2.81412e-06
-1.81998e-05
1.63772e-05
2.21439e-06
-2.15474e-05
6.58133e-06
1.04977e-06
-2.30685e-05
-2.02655e-06
-1.36833e-05
6.62015e-05
7.14404e-06
1.71946e-07
6.82609e-05
1.09337e-05
3.06534e-07
6.88493e-05
1.14601e-05
1.9725e-07
6.82208e-05
1.01018e-05
-1.93661e-07
6.68974e-05
8.2797e-06
-8.98164e-07
6.51654e-05
6.6023e-06
-1.9099e-06
6.31317e-05
5.41526e-06
-3.23297e-06
6.07455e-05
4.77384e-06
-4.88797e-06
5.78483e-05
4.63346e-06
-6.93362e-06
5.41928e-05
4.88629e-06
-9.43662e-06
4.94406e-05
5.44126e-06
-1.25274e-05
4.31426e-05
6.12668e-06
-1.62027e-05
3.46917e-05
6.8657e-06
-2.05904e-05
2.36205e-05
6.94525e-06
-2.455e-05
1.00302e-05
5.90294e-06
-2.63365e-05
1.06067e-06
-1.54924e-05
6.51677e-05
4.62001e-06
1.90405e-07
6.80531e-05
8.34628e-06
3.45463e-07
7.02156e-05
9.66895e-06
2.49894e-07
7.12812e-05
9.3968e-06
-1.31632e-07
7.13886e-05
8.43811e-06
-8.27471e-07
7.07071e-05
7.38273e-06
-1.83201e-06
6.93672e-05
6.62488e-06
-3.15167e-06
6.73918e-05
6.32659e-06
-4.81046e-06
6.46911e-05
6.54053e-06
-6.86784e-06
6.1051e-05
7.24134e-06
-9.39556e-06
5.61186e-05
8.40963e-06
-1.25225e-05
4.93723e-05
9.92434e-06
-1.62637e-05
4.00709e-05
1.17521e-05
-2.07372e-05
2.75715e-05
1.30255e-05
-2.48375e-05
1.18204e-05
1.27171e-05
-2.67214e-05
5.67987e-06
-1.56825e-05
6.42358e-05
3.02935e-06
2.10162e-07
6.68216e-05
6.06434e-06
3.88734e-07
6.92753e-05
7.59657e-06
3.14183e-07
7.1039e-05
8.00685e-06
-4.67918e-08
7.1968e-05
7.79104e-06
-7.17074e-07
7.20682e-05
7.40198e-06
-1.68725e-06
7.13983e-05
7.19118e-06
-2.96111e-06
6.99728e-05
7.36452e-06
-4.5615e-06
6.77221e-05
8.04443e-06
-6.54411e-06
6.445e-05
9.29084e-06
-8.98093e-06
5.98023e-05
1.11765e-05
-1.19927e-05
5.32025e-05
1.36832e-05
-1.561e-05
4.37811e-05
1.68957e-05
-1.99369e-05
3.06443e-05
1.98908e-05
-2.39551e-05
1.3336e-05
2.12236e-05
-2.58128e-05
1.18683e-05
-1.50943e-05
6.36801e-05
1.99516e-06
2.30551e-07
6.58197e-05
4.23231e-06
4.35753e-07
6.81554e-05
5.6491e-06
3.88733e-07
7.01499e-05
6.39596e-06
5.68997e-08
7.15233e-05
6.71306e-06
-5.77899e-07
7.21641e-05
6.89992e-06
-1.50121e-06
7.20516e-05
7.22788e-06
-2.71166e-06
7.11666e-05
7.90229e-06
-4.22783e-06
6.94364e-05
9.08594e-06
-6.09836e-06
6.66698e-05
1.09174e-05
-8.39229e-06
6.25142e-05
1.35685e-05
-1.12176e-05
5.63419e-05
1.71762e-05
-1.46199e-05
4.71742e-05
2.20093e-05
-1.86833e-05
3.38062e-05
2.72638e-05
-2.25171e-05
1.52255e-05
3.13337e-05
-2.43009e-05
2.01533e-05
-1.42221e-05
6.34192e-05
1.22311e-06
2.52945e-07
6.52637e-05
2.69921e-06
4.88149e-07
6.74605e-05
3.84776e-06
4.74429e-07
6.95425e-05
4.70872e-06
1.79483e-07
7.11886e-05
5.37859e-06
-4.10981e-07
7.22294e-05
6.02142e-06
-1.27699e-06
7.25983e-05
6.81792e-06
-2.41018e-06
7.22603e-05
7.94467e-06
-3.82158e-06
7.11585e-05
9.57616e-06
-5.54822e-06
6.91398e-05
1.19119e-05
-7.65027e-06
6.59146e-05
1.52068e-05
-1.02134e-05
6.08794e-05
1.98001e-05
-1.32905e-05
5.30564e-05
2.61942e-05
-1.6926e-05
4.06498e-05
3.4273e-05
-2.04038e-05
2.15428e-05
4.28397e-05
-2.19627e-05
3.54311e-05
-1.29451e-05
6.33256e-05
2.76526e-07
5.46579e-07
6.50565e-05
5.43876e-07
1.28467e-06
6.72182e-05
5.6687e-07
2.09034e-06
6.93905e-05
3.13825e-07
2.94458e-06
7.12471e-05
-2.26344e-07
3.85312e-06
7.25995e-05
-1.02869e-06
4.85911e-06
7.33666e-05
-2.07733e-06
6.04985e-06
7.35155e-05
-3.37432e-06
7.55857e-06
7.30126e-05
-4.94338e-06
9.55367e-06
7.17468e-05
-6.83316e-06
1.22822e-05
6.94984e-05
-9.10441e-06
1.60638e-05
6.57112e-05
-1.18137e-05
2.14736e-05
5.95056e-05
-1.49638e-05
2.92245e-05
4.86295e-05
-1.80384e-05
4.04153e-05
3.04456e-05
-1.94092e-05
5.43758e-05
-1.19383e-05
6.0165e-05
4.98935e-05
1.26629e-05
4.57864e-08
3.92856e-05
1.07103e-05
6.60705e-08
3.11317e-05
8.2552e-06
-3.14707e-08
2.57898e-05
5.40193e-06
-2.45736e-07
2.23718e-05
3.40103e-06
-5.76557e-07
2.01581e-05
2.09277e-06
-1.00783e-06
1.85559e-05
1.35254e-06
-1.54116e-06
1.71746e-05
9.74426e-07
-2.18267e-06
1.57539e-05
8.16938e-07
-2.957e-06
1.41319e-05
7.64947e-07
-3.8692e-06
1.21793e-05
7.55334e-07
-4.96711e-06
9.84294e-06
6.90314e-07
-6.1703e-06
6.99476e-06
5.70178e-07
-7.5546e-06
3.92471e-06
1.03949e-07
-8.52617e-06
6.80342e-07
-4.65806e-07
-8.79331e-06
-1.87364e-06
-5.20749e-06
6.45234e-05
1.07198e-05
6.60695e-08
6.26502e-05
1.27402e-05
9.94271e-08
5.93353e-05
1.17438e-05
-3.454e-08
5.5673e-05
9.19183e-06
-3.64433e-07
5.23111e-05
6.77808e-06
-9.12192e-07
4.93796e-05
4.86859e-06
-1.66893e-06
4.67263e-05
3.62494e-06
-2.63652e-06
4.40905e-05
2.94655e-06
-3.82638e-06
4.11894e-05
2.69895e-06
-5.27763e-06
3.77513e-05
2.72758e-06
-7.01658e-06
3.35011e-05
2.92396e-06
-9.11707e-06
2.81863e-05
3.12113e-06
-1.15027e-05
2.15016e-05
3.26937e-06
-1.42143e-05
1.35563e-05
2.82873e-06
-1.63269e-05
4.91594e-06
1.78393e-06
-1.6678e-05
-1.25703e-06
-9.38397e-06
6.61469e-05
7.16258e-06
8.23354e-08
6.80897e-05
1.09764e-05
1.27549e-07
6.85134e-05
1.15258e-05
-8.46361e-09
6.7684e-05
1.01853e-05
-3.57627e-07
6.61323e-05
8.37876e-06
-9.47218e-07
6.41471e-05
6.7202e-06
-1.77634e-06
6.18299e-05
5.56186e-06
-2.85264e-06
5.9119e-05
4.96262e-06
-4.19317e-06
5.58433e-05
4.88221e-06
-5.84114e-06
5.17538e-05
5.21347e-06
-7.83303e-06
4.65235e-05
5.87391e-06
-1.0247e-05
3.97784e-05
6.68749e-06
-1.3024e-05
3.10456e-05
7.59284e-06
-1.61811e-05
2.02193e-05
7.8352e-06
-1.87302e-05
7.94345e-06
6.88941e-06
-1.91662e-05
1.83552e-06
-1.06415e-05
6.51156e-05
4.6406e-06
9.68236e-08
6.78871e-05
8.39463e-06
1.55704e-07
6.98879e-05
9.74684e-06
2.79813e-08
7.07549e-05
9.50225e-06
-3.15566e-07
7.06347e-05
8.57089e-06
-8.99355e-07
6.96985e-05
7.5477e-06
-1.72333e-06
6.80717e-05
6.83425e-06
-2.79725e-06
6.5767e-05
6.59815e-06
-4.14132e-06
6.26822e-05
6.89889e-06
-5.7997e-06
5.86003e-05
7.71328e-06
-7.81346e-06
5.31781e-05
9.03287e-06
-1.02593e-05
4.5967e-05
1.07269e-05
-1.3092e-05
3.63596e-05
1.27803e-05
-1.63173e-05
2.40832e-05
1.42392e-05
-1.89651e-05
9.66061e-06
1.40224e-05
-1.94318e-05
6.52653e-06
-1.07129e-05
6.41857e-05
3.05114e-06
1.13879e-07
6.66611e-05
6.11637e-06
1.91594e-07
6.89588e-05
7.68282e-06
8.05794e-08
7.05318e-05
8.12858e-06
-2.46123e-07
7.12434e-05
7.95062e-06
-8.08462e-07
7.11011e-05
7.60639e-06
-1.60364e-06
7.01586e-05
7.45516e-06
-2.6395e-06
6.84208e-05
7.70996e-06
-3.93551e-06
6.58058e-05
8.50268e-06
-5.53296e-06
6.21141e-05
9.89776e-06
-7.47362e-06
5.69995e-05
1.19828e-05
-9.8281e-06
4.99528e-05
1.47275e-05
-1.25639e-05
4.02306e-05
1.82417e-05
-1.56759e-05
2.72976e-05
2.14761e-05
-1.82589e-05
1.12635e-05
2.29438e-05
-1.87001e-05
1.29227e-05
-1.0227e-05
6.36317e-05
2.01816e-06
1.31883e-07
6.56641e-05
4.28748e-06
2.32198e-07
6.78495e-05
5.74179e-06
1.44335e-07
6.96627e-05
6.52993e-06
-1.57672e-07
7.08321e-05
6.8932e-06
-6.89845e-07
7.12473e-05
7.13553e-06
-1.44556e-06
7.08832e-05
7.5362e-06
-2.42862e-06
6.97113e-05
8.30927e-06
-3.65521e-06
6.76473e-05
9.62937e-06
-5.16106e-06
6.44962e-05
1.16428e-05
-6.98622e-06
5.9912e-05
1.45412e-05
-9.19188e-06
5.33277e-05
1.84508e-05
-1.17588e-05
4.38796e-05
2.36754e-05
-1.4669e-05
3.07001e-05
2.92543e-05
-1.71159e-05
1.33038e-05
3.35605e-05
-1.75213e-05
2.15563e-05
-9.5519e-06
6.33724e-05
1.24721e-06
1.51534e-07
6.51134e-05
2.75694e-06
2.77635e-07
6.71665e-05
3.94508e-06
2.18097e-07
6.90775e-05
4.85095e-06
-5.25586e-08
7.05344e-05
5.57257e-06
-5.47224e-07
7.13696e-05
6.27834e-06
-1.25503e-06
7.15129e-05
7.15694e-06
-2.17419e-06
7.09211e-05
8.39474e-06
-3.31524e-06
6.95275e-05
1.01799e-05
-4.70512e-06
6.71756e-05
1.27228e-05
-6.37841e-06
6.35826e-05
1.63019e-05
-8.3811e-06
5.81966e-05
2.12509e-05
-1.07045e-05
5.01407e-05
2.81142e-05
-1.3309e-05
3.79135e-05
3.66044e-05
-1.55267e-05
1.98426e-05
4.55261e-05
-1.58574e-05
3.71638e-05
-8.70993e-06
6.32805e-05
1.71928e-07
5.71345e-07
6.4912e-05
3.25571e-07
1.34374e-06
6.6937e-05
2.9728e-07
2.18958e-06
6.89494e-05
6.21761e-08
3.09029e-06
7.06322e-05
-3.90082e-07
4.05351e-06
7.18e-05
-1.04477e-06
5.12652e-06
7.23692e-05
-1.89405e-06
6.40451e-06
7.23e-05
-2.94161e-06
8.03122e-06
7.15513e-05
-4.20438e-06
1.01896e-05
7.00096e-05
-5.70949e-06
1.31409e-05
6.74631e-05
-7.48607e-06
1.723e-05
6.33983e-05
-9.5336e-06
2.30356e-05
5.70258e-05
-1.17918e-05
3.13148e-05
4.6338e-05
-1.37517e-05
4.30055e-05
2.90575e-05
-1.40554e-05
5.74528e-05
-8.06755e-06
6.23505e-05
4.9864e-05
1.26676e-05
1.41846e-08
3.91967e-05
1.07226e-05
1.07812e-08
3.09675e-05
8.27111e-06
-7.33746e-08
2.55442e-05
5.41765e-06
-2.40144e-07
2.20421e-05
3.41624e-06
-4.90715e-07
1.97399e-05
2.10923e-06
-8.14872e-07
1.80398e-05
1.37333e-06
-1.21436e-06
1.65471e-05
1.00226e-06
-1.69218e-06
1.49989e-05
8.54881e-07
-2.2637e-06
1.32384e-05
8.16408e-07
-2.92515e-06
1.11473e-05
8.26922e-07
-3.70292e-06
8.70646e-06
7.93743e-07
-4.5232e-06
5.8486e-06
7.23428e-07
-5.42016e-06
2.94979e-06
3.45972e-07
-5.97333e-06
2.5879e-07
-1.62863e-07
-5.93945e-06
-1.51578e-06
-3.43292e-06
6.4481e-05
1.07318e-05
2.08128e-08
6.25208e-05
1.27673e-05
1.49245e-08
5.90838e-05
1.17828e-05
-1.09139e-07
5.52737e-05
9.2373e-06
-3.73976e-07
5.17459e-05
6.82816e-06
-7.96385e-07
4.86325e-05
4.92526e-06
-1.37149e-06
4.57771e-05
3.69416e-06
-2.10201e-06
4.2913e-05
3.03548e-06
-2.99546e-06
3.9751e-05
2.81662e-06
-4.07741e-06
3.60248e-05
2.88315e-06
-5.35707e-06
3.14767e-05
3.13235e-06
-6.87447e-06
2.59175e-05
3.39886e-06
-8.54862e-06
1.91542e-05
3.64439e-06
-1.03719e-05
1.15139e-05
3.32572e-06
-1.16664e-05
3.85028e-06
2.36785e-06
-1.1545e-05
-7.2393e-07
-6.32556e-06
6.61047e-05
7.1788e-06
3.06421e-08
6.79573e-05
1.10132e-05
2.90503e-08
6.82507e-05
1.15823e-05
-1.01348e-07
6.72583e-05
1.02571e-05
-3.84986e-07
6.55176e-05
8.46427e-06
-8.42617e-07
6.33199e-05
6.82185e-06
-1.47525e-06
6.0764e-05
5.68762e-06
-2.29019e-06
5.77823e-05
5.12356e-06
-3.29962e-06
5.41972e-05
5.09313e-06
-4.53247e-06
4.97632e-05
5.48971e-06
-6.00566e-06
4.41721e-05
6.23782e-06
-7.76138e-06
3.71183e-05
7.15764e-06
-9.72897e-06
2.82591e-05
8.20041e-06
-1.18778e-05
1.77511e-05
8.57545e-06
-1.3472e-05
6.60079e-06
7.70755e-06
-1.33555e-05
2.44007e-06
-7.20473e-06
6.50755e-05
4.65884e-06
4.12941e-08
6.77592e-05
8.43684e-06
4.8377e-08
6.96324e-05
9.81441e-06
-7.74103e-08
7.03385e-05
9.59349e-06
-3.57982e-07
7.00298e-05
8.68563e-06
-8.12016e-07
6.88798e-05
7.6898e-06
-1.44127e-06
6.70113e-05
7.01365e-06
-2.25484e-06
6.44316e-05
6.82944e-06
-3.26749e-06
6.10318e-05
7.20236e-06
-4.50913e-06
5.65977e-05
8.11082e-06
-6.00043e-06
5.08036e-05
9.55511e-06
-7.78251e-06
4.32678e-05
1.13961e-05
-9.79472e-06
3.35144e-05
1.36329e-05
-1.19964e-05
2.15426e-05
1.52431e-05
-1.36609e-05
8.26431e-06
1.51044e-05
-1.35504e-05
7.23384e-06
-7.24238e-06
6.41475e-05
3.07046e-06
5.47485e-08
6.65381e-05
6.16191e-06
7.59186e-08
6.87128e-05
7.75772e-06
-3.74645e-08
7.01316e-05
8.23381e-06
-3.05221e-07
7.06633e-05
8.08814e-06
-7.42673e-07
7.03173e-05
7.78187e-06
-1.34967e-06
6.91448e-05
7.68062e-06
-2.13401e-06
6.71455e-05
8.00334e-06
-3.11011e-06
6.42311e-05
8.88962e-06
-4.30583e-06
6.02038e-05
1.04073e-05
-5.74275e-06
5.47333e-05
1.26553e-05
-7.45779e-06
4.7373e-05
1.55927e-05
-9.40022e-06
3.75045e-05
1.93476e-05
-1.15221e-05
2.48578e-05
2.27735e-05
-1.31427e-05
9.92861e-06
2.43516e-05
-1.30181e-05
1.38269e-05
-6.89144e-06
6.35948e-05
2.03837e-06
6.91838e-08
6.55454e-05
4.33552e-06
1.08009e-07
6.76129e-05
5.8219e-06
1.25989e-08
6.92797e-05
6.64521e-06
-2.35879e-07
7.02801e-05
7.0477e-06
-6.49764e-07
7.05057e-05
7.33684e-06
-1.22612e-06
6.9929e-05
7.7985e-06
-1.96983e-06
6.85164e-05
8.65374e-06
-2.89296e-06
6.61775e-05
1.00868e-05
-4.01939e-06
6.27185e-05
1.22498e-05
-5.36978e-06
5.78076e-05
1.53491e-05
-6.9747e-06
5.09343e-05
1.95011e-05
-8.79394e-06
4.13512e-05
2.50342e-05
-1.07724e-05
2.84404e-05
3.08689e-05
-1.23006e-05
1.2078e-05
3.53597e-05
-1.2167e-05
2.27657e-05
-6.41271e-06
6.33369e-05
1.26809e-06
8.48973e-08
6.49993e-05
2.80668e-06
1.44068e-07
6.69399e-05
4.02852e-06
7.08484e-08
6.87131e-05
4.97257e-06
-1.53129e-07
7.00134e-05
5.73802e-06
-5.37797e-07
7.06755e-05
6.49683e-06
-1.07714e-06
7.06275e-05
7.44432e-06
-1.77199e-06
6.98217e-05
8.77471e-06
-2.6304e-06
6.81864e-05
1.06871e-05
-3.67013e-06
6.55662e-05
1.34002e-05
-4.90867e-06
6.16911e-05
1.72101e-05
-6.36699e-06
5.60581e-05
2.24443e-05
-8.01463e-06
4.78935e-05
2.96763e-05
-9.78653e-06
3.59171e-05
3.8491e-05
-1.11724e-05
1.87647e-05
4.7689e-05
-1.10343e-05
3.86922e-05
-5.87172e-06
6.32465e-05
1.01063e-07
5.92478e-07
6.48028e-05
1.81935e-07
1.39403e-06
6.67214e-05
1.33223e-07
2.27394e-06
6.86051e-05
-6.29814e-08
3.21404e-06
7.01443e-05
-4.1468e-07
4.22344e-06
7.11565e-05
-9.13075e-07
5.35287e-06
7.15572e-05
-1.55452e-06
6.7041e-06
7.13033e-05
-2.34222e-06
8.42925e-06
7.035e-05
-3.28694e-06
1.07229e-05
6.85854e-05
-4.40162e-06
1.3857e-05
6.58104e-05
-5.6966e-06
1.81956e-05
6.15529e-05
-7.14976e-06
2.4318e-05
5.51139e-05
-8.68769e-06
3.30112e-05
4.46713e-05
-9.91349e-06
4.50953e-05
2.81955e-05
-9.81294e-06
5.99224e-05
-5.46905e-06
6.42892e-05
4.98428e-05
1.26713e-05
5.9614e-11
3.91326e-05
1.07322e-05
-1.11428e-08
3.08482e-05
8.28339e-06
-7.24085e-08
2.53649e-05
5.43e-06
-1.86815e-07
2.18009e-05
3.42841e-06
-3.55184e-07
1.94351e-05
2.12264e-06
-5.7169e-07
1.76678e-05
1.39049e-06
-8.37573e-07
1.61041e-05
1.02563e-06
-1.15406e-06
1.44828e-05
8.87408e-07
-1.52981e-06
1.26548e-05
8.61734e-07
-1.95886e-06
1.05143e-05
8.91665e-07
-2.45408e-06
8.06331e-06
8.88876e-07
-2.96112e-06
5.26972e-06
8.65639e-07
-3.49222e-06
2.51672e-06
5.62256e-07
-3.78258e-06
1.23773e-07
1.16642e-07
-3.66315e-06
-1.22697e-06
-2.08219e-06
6.44505e-05
1.07413e-05
3.49281e-10
6.24272e-05
1.27884e-05
-1.80239e-08
5.89003e-05
1.18131e-05
-1.12003e-07
5.49805e-05
9.27298e-06
-2.97181e-07
5.13294e-05
6.86773e-06
-5.84594e-07
4.80821e-05
4.97026e-06
-9.71733e-07
4.50821e-05
3.74921e-06
-1.46081e-06
4.20621e-05
3.10638e-06
-2.05617e-06
3.87341e-05
2.91088e-06
-2.77287e-06
3.48419e-05
3.00889e-06
-3.61201e-06
3.01489e-05
3.30276e-06
-4.59261e-06
2.45103e-05
3.62953e-06
-5.65063e-06
1.78063e-05
3.96095e-06
-6.76327e-06
1.04436e-05
3.74976e-06
-7.49123e-06
3.37967e-06
2.87839e-06
-7.24279e-06
-2.81951e-07
-3.89091e-06
6.60744e-05
7.19169e-06
5.84568e-09
6.78615e-05
1.10422e-05
-1.18726e-08
6.80591e-05
1.16266e-05
-1.12432e-07
6.69455e-05
1.03137e-05
-3.12186e-07
6.50639e-05
8.53174e-06
-6.24993e-07
6.2709e-05
6.90205e-06
-1.05212e-06
5.99804e-05
5.78659e-06
-1.59897e-06
5.68105e-05
5.24984e-06
-2.27322e-06
5.30229e-05
5.25834e-06
-3.09229e-06
4.83824e-05
5.70619e-06
-4.06245e-06
4.26037e-05
6.52372e-06
-5.20367e-06
3.54323e-05
7.52946e-06
-6.45748e-06
2.66135e-05
8.68528e-06
-7.78338e-06
1.64146e-05
9.17505e-06
-8.69839e-06
5.97975e-06
8.38543e-06
-8.42767e-06
2.94219e-06
-4.44913e-06
6.50467e-05
4.67344e-06
1.28093e-08
6.76668e-05
8.47037e-06
1.73977e-10
6.94463e-05
9.8678e-06
-9.81016e-08
7.0033e-05
9.66548e-06
-2.96366e-07
6.95838e-05
8.77603e-06
-6.0717e-07
6.82755e-05
7.80142e-06
-1.03232e-06
6.62319e-05
7.15386e-06
-1.57852e-06
6.34604e-05
7.00912e-06
-2.25529e-06
5.98538e-05
7.43675e-06
-3.08084e-06
5.52073e-05
8.41629e-06
-4.0641e-06
4.92184e-05
9.9545e-06
-5.22439e-06
4.15563e-05
1.19066e-05
-6.50967e-06
3.18353e-05
1.42821e-05
-7.87226e-06
2.01707e-05
1.60116e-05
-8.83275e-06
7.62396e-06
1.59408e-05
-8.55909e-06
7.79254e-06
-4.46878e-06
6.41202e-05
3.08594e-06
2.20782e-08
6.64495e-05
6.19813e-06
1.87934e-08
6.85342e-05
7.81696e-06
-7.13019e-08
6.98387e-05
8.31674e-06
-2.60953e-07
7.02364e-05
8.19613e-06
-5.60483e-07
6.97396e-05
7.91901e-06
-9.70486e-07
6.84007e-05
7.85567e-06
-1.49692e-06
6.62195e-05
8.22936e-06
-2.14911e-06
6.31093e-05
9.18512e-06
-2.94404e-06
5.88816e-05
1.07926e-05
-3.89139e-06
5.32278e-05
1.31585e-05
-5.00797e-06
4.57494e-05
1.62331e-05
-6.24838e-06
3.59144e-05
2.01557e-05
-7.56073e-06
2.35637e-05
2.37141e-05
-8.4946e-06
9.33862e-06
2.53624e-05
-8.21462e-06
1.44826e-05
-4.24284e-06
6.35685e-05
2.05447e-06
3.21322e-08
6.54601e-05
4.37357e-06
4.09392e-08
6.74415e-05
5.88508e-06
-3.68946e-08
6.9e-05
6.73572e-06
-2.1335e-07
6.98746e-05
7.16848e-06
-4.96724e-07
6.996e-05
7.49334e-06
-8.85813e-07
6.92296e-05
8.00089e-06
-1.38468e-06
6.76501e-05
8.91708e-06
-2.00117e-06
6.51329e-05
1.04326e-05
-2.74969e-06
6.14927e-05
1.27025e-05
-3.63948e-06
5.64179e-05
1.59421e-05
-4.68353e-06
4.94425e-05
2.02581e-05
-5.84357e-06
3.98989e-05
2.59911e-05
-7.0643e-06
2.72704e-05
3.1983e-05
-7.94099e-06
1.15638e-05
3.65653e-05
-7.66316e-06
2.35698e-05
-3.93623e-06
6.33117e-05
1.28457e-06
4.30657e-08
6.49176e-05
2.84583e-06
6.58978e-08
6.67763e-05
4.09398e-06
3.30152e-09
6.84476e-05
5.06761e-06
-1.56357e-07
6.96313e-05
5.86673e-06
-4.19754e-07
7.01654e-05
6.66582e-06
-7.83675e-07
6.99789e-05
7.66488e-06
-1.24955e-06
6.90249e-05
9.06341e-06
-1.8227e-06
6.72335e-05
1.10676e-05
-2.51367e-06
6.44571e-05
1.39003e-05
-3.33003e-06
6.04444e-05
1.78672e-05
-4.27926e-06
5.4731e-05
2.32872e-05
-5.33029e-06
4.66141e-05
3.07456e-05
-6.42407e-06
3.49011e-05
3.97428e-05
-7.21916e-06
1.83347e-05
4.90578e-05
-6.96034e-06
3.96482e-05
-3.61544e-06
6.32224e-05
5.42579e-08
6.08979e-07
6.47248e-05
9.20432e-08
1.43328e-06
6.65661e-05
4.63043e-08
2.33967e-06
6.83548e-05
-9.43117e-08
3.31021e-06
6.97871e-05
-3.35191e-07
4.35499e-06
7.0684e-05
-6.71298e-07
5.52711e-06
7.09625e-05
-1.10114e-06
6.93294e-06
7.05806e-05
-1.62693e-06
8.73011e-06
6.94956e-05
-2.25482e-06
1.11205e-05
6.76029e-05
-2.98983e-06
1.43811e-05
6.47208e-05
-3.83337e-06
1.88861e-05
6.04104e-05
-4.7607e-06
2.52085e-05
5.40338e-05
-5.7106e-06
3.41451e-05
4.38409e-05
-6.4137e-06
4.64358e-05
2.78791e-05
-6.20395e-06
6.14107e-05
-3.37997e-06
6.54382e-05
4.98288e-05
1.26738e-05
-2.54635e-09