/*--------------------------------*- C++ -*----------------------------------*\
| =========                 |                                                 |
| \\      /  F ield         | OpenFOAM: The Open Source CFD Toolbox           |
|  \\    /   O peration     | Version:  v1912                                 |
|   \\  /    A nd           | Website:  www.openfoam.com                      |
|    \\/     M anipulation  |                                                 |
\*---------------------------------------------------------------------------*/
FoamFile
{
    version     2.0;
    format      ascii;
    class       pointVectorField;
    location    "0.94/fluid";
    object      pointMotionU;
}
// * * * * * * * * * * * * * * * * * * * * * * * * * * * * * * * * * * * * * //

dimensions      [0 1 -1 0 0 0 0];


internalField   nonuniform List<vector> 
16859
(
(0 0 0)
(0 0 0)
(0 0 0)
(0 0 0)
(0 0 0)
(0 0 0)
(0 0 0)
(0 0 0)
(0 0 0)
(0 0 0)
(0 0 0)
(0 0 0)
(0 0 0)
(0 0 0)
(0 0 0)
(0 0 0)
(1.36453e-08 2.38654e-08 1.57929e-08)
(0 0 0)
(3.97935e-10 -1.00249e-09 7.90013e-10)
(7.61776e-10 -1.9173e-09 1.54019e-09)
(1.10778e-09 -2.77981e-09 2.30492e-09)
(1.45112e-09 -3.61545e-09 3.13244e-09)
(1.80706e-09 -4.43877e-09 4.06789e-09)
(2.19254e-09 -5.25145e-09 5.15548e-09)
(2.62854e-09 -6.03817e-09 6.43985e-09)
(3.14361e-09 -6.75925e-09 7.96694e-09)
(3.78021e-09 -7.33736e-09 9.78463e-09)
(4.60696e-09 -7.63404e-09 1.19447e-08)
(5.74377e-09 -7.40652e-09 1.45109e-08)
(7.41324e-09 -6.22393e-09 1.75879e-08)
(1.00356e-08 -3.30506e-09 2.14004e-08)
(1.4324e-08 2.71649e-09 2.64457e-08)
(2.04442e-08 1.26438e-08 3.29165e-08)
(2.88145e-08 3.18452e-08 3.98724e-08)
(0 0 0)
(7.84614e-10 -1.97528e-09 1.5591e-09)
(1.50149e-09 -3.77907e-09 3.03896e-09)
(2.18202e-09 -5.48217e-09 4.54629e-09)
(2.85532e-09 -7.13622e-09 6.17558e-09)
(3.5506e-09 -8.7726e-09 8.01521e-09)
(4.29988e-09 -1.0399e-08 1.01516e-08)
(5.14173e-09 -1.19929e-08 1.26717e-08)
(6.12672e-09 -1.3489e-08 1.56641e-08)
(7.32606e-09 -1.47596e-08 1.92186e-08)
(8.84636e-09 -1.55804e-08 2.34242e-08)
(1.08547e-08 -1.5581e-08 2.83691e-08)
(1.36193e-08 -1.41786e-08 3.4147e-08)
(1.75412e-08 -1.05392e-08 4.08697e-08)
(2.30337e-08 -3.77341e-09 4.8623e-08)
(2.93482e-08 5.29375e-09 5.65269e-08)
(3.92471e-08 1.85927e-08 6.82194e-08)
(0 0 0)
(1.14967e-09 -2.8893e-09 2.28809e-09)
(2.19882e-09 -5.53068e-09 4.45844e-09)
(3.19206e-09 -8.03052e-09 6.66626e-09)
(4.17048e-09 -1.04681e-08 9.04874e-09)
(5.17502e-09 -1.28954e-08 1.17341e-08)
(6.24963e-09 -1.53335e-08 1.48477e-08)
(7.44557e-09 -1.77655e-08 1.85151e-08)
(8.8268e-09 -2.01238e-08 2.2864e-08)
(1.04771e-08 -2.2269e-08 2.80216e-08)
(1.2509e-08 -2.39577e-08 3.41071e-08)
(1.5075e-08 -2.48036e-08 4.12177e-08)
(1.83759e-08 -2.42458e-08 4.94061e-08)
(2.26336e-08 -2.1598e-08 5.86376e-08)
(2.79264e-08 -1.63687e-08 6.86861e-08)
(3.33217e-08 -9.64564e-09 7.82174e-08)
(4.09616e-08 -3.55752e-10 9.06147e-08)
(0 0 0)
(1.48388e-09 -3.71488e-09 2.95946e-09)
(2.83575e-09 -7.1158e-09 5.76395e-09)
(4.11091e-09 -1.03443e-08 8.61172e-09)
(5.35993e-09 -1.35085e-08 1.16776e-08)
(6.63261e-09 -1.66845e-08 1.51247e-08)
(7.98135e-09 -1.99146e-08 1.91121e-08)
(9.46522e-09 -2.32015e-08 2.37994e-08)
(1.11544e-08 -2.64983e-08 2.9349e-08)
(1.31342e-08 -2.96912e-08 3.59227e-08)
(1.55066e-08 -3.25748e-08 4.36702e-08)
(1.83868e-08 -3.48198e-08 5.27058e-08)
(2.18833e-08 -3.59476e-08 6.30627e-08)
(2.60357e-08 -3.5353e-08 7.46021e-08)
(3.06538e-08 -3.24969e-08 8.68308e-08)
(3.4768e-08 -2.78805e-08 9.78737e-08)
(4.01615e-08 -1.98187e-08 1.10598e-07)
(0 0 0)
(1.77993e-09 -4.42277e-09 3.55863e-09)
(3.39807e-09 -8.47834e-09 6.92667e-09)
(4.91751e-09 -1.23417e-08 1.03385e-08)
(6.39551e-09 -1.61497e-08 1.40002e-08)
(7.8877e-09 -2.00051e-08 1.81034e-08)
(9.45149e-09 -2.39767e-08 2.28343e-08)
(1.11498e-08 -2.80974e-08 2.838e-08)
(1.30546e-08 -3.23586e-08 3.49316e-08)
(1.52492e-08 -3.67008e-08 4.26818e-08)
(1.78258e-08 -4.09971e-08 5.18152e-08)
(2.08759e-08 -4.50299e-08 6.24837e-08)
(2.44632e-08 -4.84544e-08 7.4757e-08)
(2.85522e-08 -5.07435e-08 8.85059e-08)
(3.28549e-08 -5.11402e-08 1.03138e-07)
(3.63971e-08 -4.91268e-08 1.16283e-07)
(4.07388e-08 -4.13944e-08 1.30472e-07)
(0 0 0)
(2.03268e-09 -4.98508e-09 4.07465e-09)
(3.87596e-09 -9.56436e-09 7.92504e-09)
(5.59767e-09 -1.39428e-08 1.18138e-08)
(7.25881e-09 -1.8284e-08 1.59707e-08)
(8.9178e-09 -2.27168e-08 2.06082e-08)
(1.06338e-08 -2.73384e-08 2.59315e-08)
(1.24704e-08 -3.22163e-08 3.21464e-08)
(1.44986e-08 -3.73885e-08 3.94635e-08)
(1.67993e-08 -4.28624e-08 4.8099e-08)
(1.94624e-08 -4.86117e-08 5.82692e-08)
(2.25821e-08 -5.45701e-08 7.01775e-08)
(2.62437e-08 -6.06085e-08 8.39819e-08)
(3.04772e-08 -6.64611e-08 9.9697e-08)
(3.51271e-08 -7.15236e-08 1.16899e-07)
(3.92626e-08 -7.44693e-08 1.32938e-07)
(4.48011e-08 -7.06722e-08 1.50893e-07)
(0 0 0)
(2.2393e-09 -5.37661e-09 4.50068e-09)
(4.26428e-09 -1.03248e-08 8.74578e-09)
(6.14444e-09 -1.5074e-08 1.30176e-08)
(7.94158e-09 -1.981e-08 1.75615e-08)
(9.71392e-09 -2.46845e-08 2.2602e-08)
(1.15193e-08 -2.98201e-08 2.83542e-08)
(1.34186e-08 -3.5316e-08 3.50314e-08)
(1.54789e-08 -4.1253e-08 4.28509e-08)
(1.77769e-08 -4.76991e-08 5.20368e-08)
(2.04005e-08 -5.47186e-08 6.28193e-08)
(2.34542e-08 -6.23868e-08 7.54356e-08)
(2.70656e-08 -7.08072e-08 9.0125e-08)
(3.13875e-08 -8.01106e-08 1.07092e-07)
(3.65298e-08 -9.03272e-08 1.26285e-07)
(4.17891e-08 -1.00156e-07 1.45218e-07)
(5.02763e-08 -1.10886e-07 1.68333e-07)
(0 0 0)
(2.39935e-09 -5.57636e-09 4.83427e-09)
(4.56279e-09 -1.0719e-08 9.38486e-09)
(6.55848e-09 -1.56739e-08 1.39448e-08)
(8.44618e-09 -2.06424e-08 1.87664e-08)
(1.02811e-08 -2.57925e-08 2.40778e-08)
(1.21169e-08 -3.1266e-08 3.00939e-08)
(1.40083e-08 -3.71849e-08 3.70236e-08)
(1.60144e-08 -4.36589e-08 4.50754e-08)
(1.82014e-08 -5.07927e-08 5.44589e-08)
(2.06454e-08 -5.8698e-08 6.53856e-08)
(2.34374e-08 -6.75112e-08 7.80697e-08)
(2.66926e-08 -7.74193e-08 9.273e-08)
(3.05497e-08 -8.86764e-08 1.09571e-07)
(3.50857e-08 -1.01529e-07 1.28645e-07)
(3.94993e-08 -1.14446e-07 1.47404e-07)
(5.16048e-08 -1.35473e-07 1.75999e-07)
(0 0 0)
(0 0 0)
(0 0 0)
(0 0 0)
(0 0 0)
(0 0 0)
(0 0 0)
(0 0 0)
(0 0 0)
(0 0 0)
(0 0 0)
(0 0 0)
(0 0 0)
(0 0 0)
(0 0 0)
(0 0 0)
(9.55343e-09 1.22514e-08 7.44001e-09)
(0 0 0)
(4.06356e-10 -1.02803e-09 7.64743e-10)
(7.777e-10 -1.96647e-09 1.4898e-09)
(1.13053e-09 -2.85222e-09 2.22698e-09)
(1.48017e-09 -3.71207e-09 3.02199e-09)
(1.84179e-09 -4.56183e-09 3.91716e-09)
(2.23187e-09 -5.4043e-09 4.95309e-09)
(2.67034e-09 -6.22553e-09 6.1696e-09)
(3.18395e-09 -6.98793e-09 7.60571e-09)
(3.81227e-09 -7.61829e-09 9.29861e-09)
(4.61968e-09 -7.98685e-09 1.12819e-08)
(5.72083e-09 -7.87e-09 1.35853e-08)
(7.33452e-09 -6.8805e-09 1.62429e-08)
(9.88176e-09 -4.34016e-09 1.93193e-08)
(1.40566e-08 8.43288e-10 2.29203e-08)
(2.00388e-08 9.19244e-09 2.67654e-08)
(2.65564e-08 1.92036e-08 2.79352e-08)
(0 0 0)
(8.01261e-10 -2.02554e-09 1.50924e-09)
(1.533e-09 -3.87583e-09 2.93956e-09)
(2.22716e-09 -5.62475e-09 4.3927e-09)
(2.91317e-09 -7.32664e-09 5.95819e-09)
(3.62008e-09 -9.01524e-09 7.71889e-09)
(4.37907e-09 -1.07005e-08 9.75431e-09)
(5.22677e-09 -1.23622e-08 1.21422e-08)
(6.21032e-09 -1.39391e-08 1.49583e-08)
(7.39519e-09 -1.53104e-08 1.82729e-08)
(8.87894e-09 -1.62666e-08 2.21436e-08)
(1.08166e-08 -1.64695e-08 2.66036e-08)
(1.34639e-08 -1.54077e-08 3.16452e-08)
(1.72186e-08 -1.24034e-08 3.71883e-08)
(2.25128e-08 -6.90129e-09 4.29754e-08)
(2.8843e-08 1.50609e-10 4.81333e-08)
(3.5904e-08 4.7807e-09 5.20847e-08)
(0 0 0)
(1.17425e-09 -2.96274e-09 2.215e-09)
(2.24544e-09 -5.67216e-09 4.31285e-09)
(3.25907e-09 -8.23917e-09 6.44155e-09)
(4.25674e-09 -1.0747e-08 8.73115e-09)
(5.27926e-09 -1.3251e-08 1.1302e-08)
(6.36955e-09 -1.57754e-08 1.42694e-08)
(7.57644e-09 -1.83067e-08 1.77465e-08)
(8.95929e-09 -2.0782e-08 2.18433e-08)
(1.05938e-08 -2.30702e-08 2.66615e-08)
(1.25792e-08 -2.49448e-08 3.22811e-08)
(1.50483e-08 -2.60546e-08 3.87359e-08)
(1.81761e-08 -2.59161e-08 4.59717e-08)
(2.21641e-08 -2.40065e-08 5.37752e-08)
(2.71058e-08 -2.0161e-08 6.16378e-08)
(3.23515e-08 -1.55867e-08 6.83763e-08)
(3.74864e-08 -1.34981e-08 7.29197e-08)
(0 0 0)
(1.51599e-09 -3.80926e-09 2.86513e-09)
(2.89678e-09 -7.29774e-09 5.57625e-09)
(4.19893e-09 -1.06128e-08 8.32239e-09)
(5.47377e-09 -1.38678e-08 1.12694e-08)
(6.77118e-09 -1.7143e-08 1.45704e-08)
(8.14262e-09 -2.04847e-08 1.83723e-08)
(9.64474e-09 -2.38996e-08 2.28195e-08)
(1.13428e-08 -2.73457e-08 2.80534e-08)
(1.3313e-08 -3.07172e-08 3.42065e-08)
(1.56422e-08 -3.38228e-08 4.13857e-08)
(1.84206e-08 -3.6362e-08 4.96398e-08)
(2.17208e-08 -3.79149e-08 5.88994e-08)
(2.55417e-08 -3.79958e-08 6.88639e-08)
(2.96855e-08 -3.62987e-08 7.87888e-08)
(3.34552e-08 -3.34218e-08 8.70061e-08)
(3.68373e-08 -3.17866e-08 9.19656e-08)
(0 0 0)
(1.81903e-09 -4.53516e-09 3.44557e-09)
(3.47254e-09 -8.69514e-09 6.70192e-09)
(5.02522e-09 -1.2662e-08 9.99263e-09)
(6.53547e-09 -1.65787e-08 1.35132e-08)
(8.05932e-09 -2.05531e-08 1.74438e-08)
(9.6537e-09 -2.46586e-08 2.19568e-08)
(1.13796e-08 -2.89326e-08 2.7222e-08)
(1.33049e-08 -3.33713e-08 3.34078e-08)
(1.55048e-08 -3.79216e-08 4.06755e-08)
(1.80578e-08 -4.24667e-08 4.91649e-08)
(2.10327e-08 -4.68063e-08 5.89625e-08)
(2.44582e-08 -5.06252e-08 7.00383e-08)
(2.82557e-08 -5.34453e-08 8.2109e-08)
(3.21193e-08 -5.45926e-08 9.43335e-08)
(3.53123e-08 -5.35823e-08 1.04587e-07)
(3.76823e-08 -5.14513e-08 1.10767e-07)
(0 0 0)
(2.07808e-09 -5.11186e-09 3.94572e-09)
(3.96254e-09 -9.80908e-09 7.66902e-09)
(5.72321e-09 -1.43047e-08 1.14205e-08)
(7.4226e-09 -1.87692e-08 1.54183e-08)
(9.12001e-09 -2.33374e-08 1.98621e-08)
(1.08748e-08 -2.81117e-08 2.49427e-08)
(1.27494e-08 -3.31641e-08 3.08472e-08)
(1.48125e-08 -3.85373e-08 3.77627e-08)
(1.71399e-08 -4.42441e-08 4.5873e-08)
(1.98124e-08 -5.02651e-08 5.53493e-08)
(2.29112e-08 -5.65433e-08 6.63291e-08)
(2.65035e-08 -6.29612e-08 7.88703e-08)
(3.06075e-08 -6.92587e-08 9.283e-08)
(3.50892e-08 -7.4798e-08 1.07512e-07)
(3.92623e-08 -7.82343e-08 1.20536e-07)
(4.2565e-08 -7.74642e-08 1.2951e-07)
(0 0 0)
(2.29014e-09 -5.51353e-09 4.35893e-09)
(4.36132e-09 -1.05893e-08 8.46465e-09)
(6.28541e-09 -1.54655e-08 1.25866e-08)
(8.12607e-09 -2.03357e-08 1.69578e-08)
(9.9429e-09 -2.53577e-08 2.17896e-08)
(1.17946e-08 -3.06601e-08 2.72819e-08)
(1.37422e-08 -3.63467e-08 3.36297e-08)
(1.58521e-08 -4.25029e-08 4.10264e-08)
(1.81991e-08 -4.92011e-08 4.96642e-08)
(2.08689e-08 -5.65113e-08 5.97295e-08)
(2.39638e-08 -6.45161e-08 7.13946e-08)
(2.76164e-08 -7.33309e-08 8.47991e-08)
(3.20099e-08 -8.31022e-08 9.99838e-08)
(3.73482e-08 -9.38485e-08 1.16596e-07)
(4.32388e-08 -1.04421e-07 1.32437e-07)
(4.95889e-08 -1.13826e-07 1.45007e-07)
(0 0 0)
(2.45462e-09 -5.71862e-09 4.6828e-09)
(4.66837e-09 -1.09941e-08 9.08485e-09)
(6.71202e-09 -1.60815e-08 1.34859e-08)
(8.64752e-09 -2.11906e-08 1.81257e-08)
(1.05319e-08 -2.64958e-08 2.32191e-08)
(1.24201e-08 -3.21448e-08 2.89661e-08)
(1.43682e-08 -3.82646e-08 3.55579e-08)
(1.6436e-08 -4.49689e-08 4.31801e-08)
(1.86905e-08 -5.23663e-08 5.20128e-08)
(2.12095e-08 -6.05721e-08 6.2227e-08)
(2.40892e-08 -6.97277e-08 7.39781e-08)
(2.74581e-08 -8.00282e-08 8.73947e-08)
(3.14896e-08 -9.17387e-08 1.02529e-07)
(3.63405e-08 -1.05086e-07 1.19147e-07)
(4.1386e-08 -1.18664e-07 1.34947e-07)
(4.97197e-08 -1.37004e-07 1.5251e-07)
(0 0 0)
(0 0 0)
(0 0 0)
(0 0 0)
(0 0 0)
(0 0 0)
(0 0 0)
(0 0 0)
(0 0 0)
(0 0 0)
(0 0 0)
(0 0 0)
(0 0 0)
(0 0 0)
(0 0 0)
(0 0 0)
(6.23243e-09 6.24228e-09 2.95465e-09)
(0 0 0)
(4.12777e-10 -1.05088e-09 7.1168e-10)
(7.8963e-10 -2.01062e-09 1.38552e-09)
(1.14689e-09 -2.91741e-09 2.06889e-09)
(1.49945e-09 -3.79928e-09 2.8032e-09)
(1.86171e-09 -4.67334e-09 3.62619e-09)
(2.24862e-09 -5.54408e-09 4.573e-09)
(2.67726e-09 -6.40015e-09 5.67633e-09)
(3.16925e-09 -7.20896e-09 6.96507e-09)
(3.75478e-09 -7.90767e-09 8.46066e-09)
(4.48058e-09 -8.3893e-09 1.01696e-08)
(5.42633e-09 -8.48195e-09 1.20704e-08)
(6.73671e-09 -7.91973e-09 1.40897e-08)
(8.66727e-09 -6.31269e-09 1.60581e-08)
(1.15642e-08 -3.20332e-09 1.76106e-08)
(1.52698e-08 1.22028e-09 1.80756e-08)
(1.79965e-08 5.96181e-09 1.4445e-08)
(0 0 0)
(8.14022e-10 -2.07045e-09 1.40455e-09)
(1.55674e-09 -3.96257e-09 2.73389e-09)
(2.25983e-09 -5.75281e-09 4.08102e-09)
(2.95203e-09 -7.4979e-09 5.52716e-09)
(3.66092e-09 -9.23401e-09 7.14621e-09)
(4.41482e-09 -1.0974e-08 9.00706e-09)
(5.24519e-09 -1.27024e-08 1.11738e-08)
(6.18984e-09 -1.43661e-08 1.37032e-08)
(7.2974e-09 -1.5861e-08 1.66366e-08)
(8.63464e-09 -1.70139e-08 1.99843e-08)
(1.02991e-08 -1.75636e-08 2.36958e-08)
(1.24348e-08 -1.71649e-08 2.76062e-08)
(1.52255e-08 -1.54768e-08 3.1337e-08)
(1.87446e-08 -1.25049e-08 3.41433e-08)
(2.23427e-08 -9.39602e-09 3.49917e-08)
(2.48683e-08 -9.20795e-09 3.22234e-08)
(0 0 0)
(1.19324e-09 -3.02823e-09 2.06148e-09)
(2.28087e-09 -5.79862e-09 4.01136e-09)
(3.30814e-09 -8.42584e-09 5.98502e-09)
(4.31581e-09 -1.09965e-08 8.10049e-09)
(5.34278e-09 -1.35692e-08 1.04651e-08)
(6.42827e-09 -1.6172e-08 1.31792e-08)
(7.6144e-09 -1.87966e-08 1.63366e-08)
(8.94848e-09 -2.13893e-08 2.00208e-08)
(1.04847e-08 -2.38371e-08 2.42947e-08)
(1.22842e-08 -2.59506e-08 2.91774e-08)
(1.4411e-08 -2.74564e-08 3.46025e-08)
(1.69154e-08 -2.80285e-08 4.03433e-08)
(1.97787e-08 -2.74413e-08 4.589e-08)
(2.27673e-08 -2.59662e-08 5.02997e-08)
(2.51726e-08 -2.48425e-08 5.2351e-08)
(2.57788e-08 -2.62486e-08 5.02951e-08)
(0 0 0)
(1.54107e-09 -3.89321e-09 2.66681e-09)
(2.94373e-09 -7.45983e-09 5.187e-09)
(4.26441e-09 -1.0852e-08 7.73359e-09)
(5.55368e-09 -1.41873e-08 1.04571e-08)
(6.85935e-09 -1.75498e-08 1.34944e-08)
(8.2289e-09 -2.09896e-08 1.69736e-08)
(9.71168e-09 -2.45184e-08 2.10151e-08)
(1.13599e-08 -2.81022e-08 2.57282e-08)
(1.3227e-08 -3.16494e-08 3.11989e-08)
(1.53593e-08 -3.49977e-08 3.74638e-08)
(1.7776e-08 -3.79055e-08 4.44612e-08)
(2.0424e-08 -4.00721e-08 5.1943e-08)
(2.3088e-08 -4.12366e-08 5.93254e-08)
(2.52677e-08 -4.14416e-08 6.54941e-08)
(2.62487e-08 -4.13748e-08 6.88878e-08)
(2.50529e-08 -4.2725e-08 6.74628e-08)
(0 0 0)
(1.84995e-09 -4.63482e-09 3.20748e-09)
(3.53061e-09 -8.88756e-09 6.23499e-09)
(5.10684e-09 -1.29459e-08 9.28722e-09)
(6.63643e-09 -1.69576e-08 1.25418e-08)
(8.17357e-09 -2.10347e-08 1.61598e-08)
(9.77142e-09 -2.52542e-08 2.0292e-08)
(1.14841e-08 -2.96571e-08 2.5081e-08)
(1.3367e-08 -3.42449e-08 3.06585e-08)
(1.54739e-08 -3.89721e-08 3.71334e-08)
(1.78454e-08 -4.37369e-08 4.45672e-08)
(2.04842e-08 -4.83688e-08 5.29239e-08)
(2.33008e-08 -5.26143e-08 6.19775e-08)
(2.60125e-08 -5.61211e-08 7.11401e-08)
(2.80143e-08 -5.84531e-08 7.91921e-08)
(2.85213e-08 -5.93246e-08 8.41949e-08)
(2.6235e-08 -5.95145e-08 8.36687e-08)
(0 0 0)
(2.11443e-09 -5.22393e-09 3.67365e-09)
(4.03106e-09 -1.00255e-08 7.13594e-09)
(5.82019e-09 -1.4624e-08 1.06164e-08)
(7.54408e-09 -1.91952e-08 1.43132e-08)
(9.26061e-09 -2.3878e-08 1.84055e-08)
(1.1026e-08 -2.87781e-08 2.30602e-08)
(1.28969e-08 -3.39698e-08 2.84353e-08)
(1.49314e-08 -3.94975e-08 3.46783e-08)
(1.71872e-08 -4.53745e-08 4.19166e-08)
(1.97137e-08 -5.15815e-08 5.02358e-08)
(2.25361e-08 -5.80609e-08 5.96364e-08)
(2.56203e-08 -6.46942e-08 6.99469e-08)
(2.88022e-08 -7.12243e-08 8.06463e-08)
(3.16607e-08 -7.70515e-08 9.05231e-08)
(3.34207e-08 -8.09621e-08 9.73256e-08)
(3.23277e-08 -8.08715e-08 9.82331e-08)
(0 0 0)
(2.33138e-09 -5.6342e-09 4.05908e-09)
(4.4393e-09 -1.08224e-08 7.8778e-09)
(6.39646e-09 -1.58095e-08 1.1703e-08)
(8.26664e-09 -2.07946e-08 1.57466e-08)
(1.01086e-08 -2.59397e-08 2.01982e-08)
(1.19788e-08 -3.13759e-08 2.52335e-08)
(1.39337e-08 -3.72084e-08 3.10171e-08)
(1.6032e-08 -4.3521e-08 3.77027e-08)
(1.83345e-08 -5.0381e-08 4.54246e-08)
(2.0903e-08 -5.7847e-08 5.42806e-08)
(2.37973e-08 -6.59778e-08 6.42963e-08)
(2.70699e-08 -7.48398e-08 7.5353e-08)
(3.07512e-08 -8.44787e-08 8.70234e-08)
(3.4777e-08 -9.47294e-08 9.82016e-08)
(3.86014e-08 -1.04323e-07 1.06476e-07)
(4.17899e-08 -1.11975e-07 1.08521e-07)
(0 0 0)
(2.50005e-09 -5.84368e-09 4.36151e-09)
(4.7545e-09 -1.12357e-08 8.45677e-09)
(6.83527e-09 -1.64384e-08 1.25421e-08)
(8.80483e-09 -2.16668e-08 1.68359e-08)
(1.07199e-08 -2.70998e-08 2.1531e-08)
(1.26342e-08 -3.28872e-08 2.68035e-08)
(1.46006e-08 -3.91561e-08 3.28154e-08)
(1.66736e-08 -4.60171e-08 3.9714e-08)
(1.89104e-08 -5.35699e-08 4.7625e-08)
(2.13722e-08 -6.19121e-08 5.6636e-08)
(2.41251e-08 -7.11508e-08 6.67654e-08)
(2.72397e-08 -8.14136e-08 7.78995e-08)
(3.07754e-08 -9.28337e-08 8.96527e-08)
(3.46828e-08 -1.05403e-07 1.01071e-07)
(3.82423e-08 -1.17601e-07 1.09777e-07)
(4.34069e-08 -1.3327e-07 1.12289e-07)
(0 0 0)
(0 0 0)
(0 0 0)
(0 0 0)
(0 0 0)
(0 0 0)
(0 0 0)
(0 0 0)
(0 0 0)
(0 0 0)
(0 0 0)
(0 0 0)
(0 0 0)
(0 0 0)
(0 0 0)
(0 0 0)
(3.77212e-09 3.15272e-09 1.66016e-09)
(0 0 0)
(4.17307e-10 -1.07064e-09 6.33495e-10)
(7.97767e-10 -2.04882e-09 1.23256e-09)
(1.15728e-09 -2.97388e-09 1.8386e-09)
(1.51e-09 -3.87494e-09 2.48741e-09)
(1.86904e-09 -4.77037e-09 3.21094e-09)
(2.24713e-09 -5.66642e-09 4.03782e-09)
(2.65751e-09 -6.55479e-09 4.99278e-09)
(3.11506e-09 -7.40864e-09 6.09423e-09)
(3.63794e-09 -8.17683e-09 7.34877e-09)
(4.25098e-09 -8.77642e-09 8.7406e-09)
(4.9927e-09 -9.08514e-09 1.02127e-08)
(5.92815e-09 -8.93735e-09 1.16351e-08)
(7.16152e-09 -8.13129e-09 1.27547e-08)
(8.79936e-09 -6.48095e-09 1.31438e-08)
(1.06361e-08 -4.13204e-09 1.23705e-08)
(1.14644e-08 -7.68816e-10 9.38529e-09)
(0 0 0)
(8.23118e-10 -2.10925e-09 1.2503e-09)
(1.57314e-09 -4.03756e-09 2.43219e-09)
(2.28096e-09 -5.86358e-09 3.62698e-09)
(2.97395e-09 -7.64609e-09 4.90489e-09)
(3.67733e-09 -9.42355e-09 6.32854e-09)
(4.41535e-09 -1.12119e-08 7.95415e-09)
(5.21244e-09 -1.30006e-08 9.8305e-09)
(6.09425e-09 -1.47461e-08 1.19942e-08)
(7.08823e-09 -1.63629e-08 1.44592e-08)
(8.22399e-09 -1.77146e-08 1.71962e-08)
(9.5331e-09 -1.8613e-08 2.00971e-08)
(1.10443e-08 -1.8845e-08 2.29163e-08)
(1.27546e-08 -1.82728e-08 2.51883e-08)
(1.45275e-08 -1.70668e-08 2.61842e-08)
(1.58877e-08 -1.59858e-08 2.53405e-08)
(1.63692e-08 -1.64652e-08 2.29247e-08)
(0 0 0)
(1.20698e-09 -3.08474e-09 1.83523e-09)
(2.30579e-09 -5.90776e-09 3.56902e-09)
(3.34066e-09 -8.58685e-09 5.31971e-09)
(4.35062e-09 -1.12115e-08 7.18945e-09)
(5.37143e-09 -1.38431e-08 9.26927e-09)
(6.43701e-09 -1.65133e-08 1.16413e-08)
(7.58034e-09 -1.92193e-08 1.43774e-08)
(8.83322e-09 -2.19175e-08 1.75331e-08)
(1.02235e-08 -2.45136e-08 2.11329e-08)
(1.17675e-08 -2.68554e-08 2.51438e-08)
(1.34543e-08 -2.87388e-08 2.94285e-08)
(1.52124e-08 -2.99571e-08 3.36743e-08)
(1.68479e-08 -3.04466e-08 3.73054e-08)
(1.79739e-08 -3.05576e-08 3.94756e-08)
(1.81473e-08 -3.11041e-08 3.95682e-08)
(1.70065e-08 -3.30452e-08 3.80042e-08)
(0 0 0)
(1.55952e-09 -3.96549e-09 2.3744e-09)
(2.97742e-09 -7.59933e-09 4.6156e-09)
(4.30907e-09 -1.10576e-08 6.87491e-09)
(5.60313e-09 -1.44609e-08 9.28267e-09)
(6.90399e-09 -1.78968e-08 1.19551e-08)
(8.25324e-09 -2.14185e-08 1.49974e-08)
(9.69024e-09 -2.50422e-08 1.85026e-08)
(1.12505e-08 -2.87411e-08 2.25449e-08)
(1.29595e-08 -3.24374e-08 2.71633e-08)
(1.48178e-08 -3.59948e-08 3.23312e-08)
(1.67705e-08 -3.92201e-08 3.79051e-08)
(1.86494e-08 -4.18943e-08 4.35452e-08)
(2.00833e-08 -4.38661e-08 4.86204e-08)
(2.04542e-08 -4.52304e-08 5.21895e-08)
(1.93275e-08 -4.63808e-08 5.34455e-08)
(1.657e-08 -4.81171e-08 5.27276e-08)
(0 0 0)
(1.87309e-09 -4.7204e-09 2.85621e-09)
(3.57317e-09 -9.05263e-09 5.54903e-09)
(5.16418e-09 -1.31888e-08 8.25753e-09)
(6.70205e-09 -1.72802e-08 1.11356e-08)
(8.23764e-09 -2.14418e-08 1.43204e-08)
(9.81832e-09 -2.57531e-08 1.79359e-08)
(1.14884e-08 -3.02575e-08 2.2093e-08)
(1.32874e-08 -3.4959e-08 2.68827e-08)
(1.52424e-08 -3.98169e-08 3.23594e-08)
(1.73517e-08 -4.4738e-08 3.85103e-08)
(1.95502e-08 -4.95683e-08 4.5202e-08)
(2.16442e-08 -5.40827e-08 5.20955e-08)
(2.32097e-08 -5.79678e-08 5.85367e-08)
(2.35305e-08 -6.08084e-08 6.34962e-08)
(2.20661e-08 -6.21973e-08 6.59239e-08)
(1.82945e-08 -6.23281e-08 6.60159e-08)
(0 0 0)
(2.14213e-09 -5.31989e-09 3.27188e-09)
(4.08237e-09 -1.02105e-08 6.35202e-09)
(5.89035e-09 -1.48958e-08 9.4413e-09)
(7.62675e-09 -1.95555e-08 1.27117e-08)
(9.34649e-09 -2.43309e-08 1.63156e-08)
(1.11006e-08 -2.93289e-08 2.0391e-08)
(1.29371e-08 -3.46238e-08 2.50612e-08)
(1.49e-08 -4.02575e-08 3.04291e-08)
(1.70237e-08 -4.62379e-08 3.65616e-08)
(1.93214e-08 -5.25357e-08 4.34599e-08)
(2.176e-08 -5.90751e-08 5.10062e-08)
(2.42143e-08 -6.57044e-08 5.88763e-08)
(2.63921e-08 -7.21106e-08 6.64097e-08)
(2.77627e-08 -7.76192e-08 7.24946e-08)
(2.77548e-08 -8.10029e-08 7.58328e-08)
(2.52489e-08 -7.99349e-08 7.65828e-08)
(0 0 0)
(2.36335e-09 -5.73724e-09 3.61584e-09)
(4.49892e-09 -1.1021e-08 7.01381e-09)
(6.47902e-09 -1.61011e-08 1.04101e-08)
(8.36628e-09 -2.11805e-08 1.39886e-08)
(1.02171e-08 -2.64233e-08 1.79111e-08)
(1.20836e-08 -3.19608e-08 2.23231e-08)
(1.40153e-08 -3.78956e-08 2.73534e-08)
(1.6059e-08 -4.43048e-08 3.31097e-08)
(1.82571e-08 -5.12425e-08 3.96634e-08)
(2.06419e-08 -5.87421e-08 4.70218e-08)
(2.32256e-08 -6.68172e-08 5.50771e-08)
(2.59842e-08 -7.54515e-08 6.3517e-08)
(2.88343e-08 -8.45482e-08 7.16776e-08)
(3.15998e-08 -9.37426e-08 7.83573e-08)
(3.38917e-08 -1.0175e-07 8.19656e-08)
(3.59418e-08 -1.06974e-07 8.23771e-08)
(0 0 0)
(2.53587e-09 -5.95019e-09 3.88601e-09)
(4.82164e-09 -1.1441e-08 7.5309e-09)
(6.92921e-09 -1.67399e-08 1.11593e-08)
(8.92035e-09 -2.20655e-08 1.49608e-08)
(1.08501e-08 -2.75985e-08 1.91006e-08)
(1.27688e-08 -3.34881e-08 2.37245e-08)
(1.47241e-08 -3.98577e-08 2.89597e-08)
(1.67612e-08 -4.68081e-08 3.49094e-08)
(1.89234e-08 -5.44214e-08 4.1639e-08)
(2.12495e-08 -6.27629e-08 4.91495e-08)
(2.37693e-08 -7.18832e-08 5.73297e-08)
(2.64936e-08 -8.18122e-08 6.58721e-08)
(2.93926e-08 -9.25251e-08 7.41345e-08)
(3.23235e-08 -1.03807e-07 8.09686e-08)
(3.47132e-08 -1.14207e-07 8.47212e-08)
(3.82923e-08 -1.26736e-07 8.31946e-08)
(0 0 0)
(0 0 0)
(0 0 0)
(0 0 0)
(0 0 0)
(0 0 0)
(0 0 0)
(0 0 0)
(0 0 0)
(0 0 0)
(0 0 0)
(0 0 0)
(0 0 0)
(0 0 0)
(0 0 0)
(0 0 0)
(2.55101e-09 1.76711e-09 1.52636e-09)
(0 0 0)
(4.20219e-10 -1.08699e-09 5.33571e-10)
(8.02724e-10 -2.08044e-09 1.03758e-09)
(1.16284e-09 -3.02062e-09 1.54628e-09)
(1.51383e-09 -3.93757e-09 2.08898e-09)
(1.86736e-09 -4.8507e-09 2.69119e-09)
(2.23375e-09 -5.76779e-09 3.37484e-09)
(2.62236e-09 -6.68315e-09 4.15724e-09)
(3.04162e-09 -7.57478e-09 5.04831e-09)
(3.49908e-09 -8.40059e-09 6.0449e-09)
(4.00193e-09 -9.09456e-09 7.12085e-09)
(4.55973e-09 -9.56461e-09 8.21157e-09)
(5.19139e-09 -9.69401e-09 9.1931e-09)
(5.93555e-09 -9.34424e-09 9.86401e-09)
(6.84319e-09 -8.35845e-09 9.96841e-09)
(7.82737e-09 -6.70939e-09 9.39933e-09)
(8.26898e-09 -3.58531e-09 7.82578e-09)
(0 0 0)
(8.29065e-10 -2.14136e-09 1.05315e-09)
(1.58336e-09 -4.09961e-09 2.04757e-09)
(2.29269e-09 -5.95517e-09 3.05056e-09)
(2.98278e-09 -7.7685e-09 4.11958e-09)
(3.67614e-09 -9.57989e-09 5.3047e-09)
(4.39265e-09 -1.14079e-08 6.64907e-09)
(5.14965e-09 -1.32461e-08 8.18704e-09)
(5.96127e-09 -1.50587e-08 9.93887e-09)
(6.83641e-09 -1.67742e-08 1.18999e-08)
(7.77535e-09 -1.82816e-08 1.40222e-08)
(8.76521e-09 -1.94347e-08 1.61863e-08)
(9.77348e-09 -2.00796e-08 1.81648e-08)
(1.07368e-08 -2.0125e-08 1.95971e-08)
(1.15409e-08 -1.9668e-08 2.00522e-08)
(1.20132e-08 -1.91073e-08 1.94266e-08)
(1.23482e-08 -1.92766e-08 1.84562e-08)
(0 0 0)
(1.21617e-09 -3.13146e-09 1.54599e-09)
(2.32178e-09 -5.99793e-09 3.00492e-09)
(3.3596e-09 -8.71967e-09 4.47478e-09)
(4.36645e-09 -1.13883e-08 6.03916e-09)
(5.37457e-09 -1.40676e-08 7.77097e-09)
(6.41214e-09 -1.67919e-08 9.7334e-09)
(7.50295e-09 -1.95628e-08 1.19775e-08)
(8.6642e-09 -2.23441e-08 1.45351e-08)
(9.90098e-09 -2.50549e-08 1.74044e-08)
(1.11956e-08 -2.75663e-08 2.05259e-08)
(1.24896e-08 -2.97112e-08 2.37477e-08)
(1.36557e-08 -3.13275e-08 2.67841e-08)
(1.44688e-08 -3.2368e-08 2.91999e-08)
(1.46331e-08 -3.30702e-08 3.05165e-08)
(1.40691e-08 -3.39183e-08 3.06405e-08)
(1.31234e-08 -3.55243e-08 3.04005e-08)
(0 0 0)
(1.57217e-09 -4.02514e-09 2.00043e-09)
(2.99972e-09 -7.71431e-09 3.88661e-09)
(4.3364e-09 -1.12265e-08 5.78383e-09)
(5.62839e-09 -1.46849e-08 7.79884e-09)
(6.91612e-09 -1.81791e-08 1.00249e-08)
(8.23485e-09 -2.17646e-08 1.2543e-08)
(9.61386e-09 -2.54605e-08 1.54201e-08)
(1.1073e-08 -2.92444e-08 1.86999e-08)
(1.26142e-08 -3.30463e-08 2.23876e-08)
(1.42044e-08 -3.67427e-08 2.64224e-08)
(1.57453e-08 -4.01599e-08 3.06388e-08)
(1.70256e-08 -4.30981e-08 3.47246e-08)
(1.76694e-08 -4.53987e-08 3.82089e-08)
(1.71882e-08 -4.70611e-08 4.0573e-08)
(1.55129e-08 -4.82731e-08 4.1622e-08)
(1.31828e-08 -4.96539e-08 4.21303e-08)
(0 0 0)
(1.88936e-09 -4.79087e-09 2.40671e-09)
(3.60224e-09 -9.18828e-09 4.67336e-09)
(5.20097e-09 -1.33876e-08 6.94828e-09)
(6.73904e-09 -1.75426e-08 9.35761e-09)
(8.26334e-09 -2.17701e-08 1.20114e-08)
(9.8149e-09 -2.61506e-08 1.50058e-08)
(1.14282e-08 -3.07277e-08 1.84206e-08)
(1.31275e-08 -3.55052e-08 2.2311e-08)
(1.49181e-08 -4.0441e-08 2.66906e-08)
(1.67681e-08 -4.54396e-08 3.15028e-08)
(1.85756e-08 -5.03416e-08 3.65796e-08)
(2.01149e-08 -5.49075e-08 4.15959e-08)
(2.09718e-08 -5.87885e-08 4.60515e-08)
(2.05668e-08 -6.14995e-08 4.93696e-08)
(1.86967e-08 -6.25785e-08 5.12245e-08)
(1.54828e-08 -6.22098e-08 5.23579e-08)
(0 0 0)
(2.16206e-09 -5.3987e-09 2.75743e-09)
(4.11846e-09 -1.0362e-08 5.35062e-09)
(5.93736e-09 -1.51175e-08 7.946e-09)
(7.67723e-09 -1.98469e-08 1.06846e-08)
(9.38935e-09 -2.4693e-08 1.36892e-08)
(1.11189e-08 -2.97622e-08 1.70666e-08)
(1.29051e-08 -3.51261e-08 2.09062e-08)
(1.47784e-08 -4.08209e-08 2.52712e-08)
(1.67542e-08 -4.68438e-08 3.01816e-08)
(1.88201e-08 -5.31468e-08 3.55853e-08)
(2.09132e-08 -5.96219e-08 4.13134e-08)
(2.28834e-08 -6.60652e-08 4.70272e-08)
(2.44516e-08 -7.20871e-08 5.21834e-08)
(2.52101e-08 -7.6939e-08 5.61071e-08)
(2.48839e-08 -7.94751e-08 5.83396e-08)
(2.29507e-08 -7.76541e-08 5.97464e-08)
(0 0 0)
(2.38686e-09 -5.82164e-09 3.04787e-09)
(4.54197e-09 -1.11831e-08 5.90924e-09)
(6.53646e-09 -1.63379e-08 8.76332e-09)
(8.43111e-09 -2.1491e-08 1.17611e-08)
(1.02792e-08 -2.68069e-08 1.50331e-08)
(1.2128e-08 -3.24155e-08 1.86923e-08)
(1.40192e-08 -3.84141e-08 2.28323e-08)
(1.59888e-08 -4.48697e-08 2.75192e-08)
(1.80631e-08 -5.18178e-08 3.27748e-08)
(2.02539e-08 -5.92604e-08 3.85471e-08)
(2.25494e-08 -6.71589e-08 4.4663e-08)
(2.49043e-08 -7.54144e-08 5.07659e-08)
(2.72426e-08 -8.38147e-08 5.62527e-08)
(2.94816e-08 -9.18918e-08 6.02944e-08)
(3.14777e-08 -9.85132e-08 6.22175e-08)
(3.40089e-08 -1.0246e-07 6.2941e-08)
(0 0 0)
(2.56272e-09 -6.03723e-09 3.2762e-09)
(4.87126e-09 -1.16082e-08 6.34618e-09)
(6.9967e-09 -1.69838e-08 9.39626e-09)
(8.99939e-09 -2.23847e-08 1.25824e-08)
(1.09319e-08 -2.79916e-08 1.60378e-08)
(1.28407e-08 -3.39512e-08 1.98763e-08)
(1.47671e-08 -4.038e-08 2.41904e-08)
(1.67477e-08 -4.73662e-08 2.90431e-08)
(1.88133e-08 -5.49692e-08 3.4452e-08)
(2.09868e-08 -6.32174e-08 4.03599e-08)
(2.32786e-08 -7.21023e-08 4.65885e-08)
(2.56817e-08 -8.15653e-08 5.27738e-08)
(2.81657e-08 -9.14674e-08 5.82938e-08)
(3.0647e-08 -1.01506e-07 6.22692e-08)
(3.27401e-08 -1.10449e-07 6.38999e-08)
(3.64889e-08 -1.21427e-07 6.245e-08)
(0 0 0)
(0 0 0)
(0 0 0)
(0 0 0)
(0 0 0)
(0 0 0)
(0 0 0)
(0 0 0)
(0 0 0)
(0 0 0)
(0 0 0)
(0 0 0)
(0 0 0)
(0 0 0)
(0 0 0)
(0 0 0)
(2.05341e-09 1.25995e-09 1.37686e-09)
(0 0 0)
(4.21875e-10 -1.09975e-09 4.15858e-10)
(8.05283e-10 -2.10508e-09 8.08293e-10)
(1.16499e-09 -3.05704e-09 1.20361e-09)
(1.51341e-09 -3.98635e-09 1.62407e-09)
(1.86075e-09 -4.91313e-09 2.08858e-09)
(2.21528e-09 -5.84627e-09 2.61276e-09)
(2.5831e-09 -6.7819e-09 3.20783e-09)
(2.96777e-09 -7.70115e-09 3.87814e-09)
(3.36953e-09 -8.56716e-09 4.61659e-09)
(3.78544e-09 -9.32236e-09 5.3975e-09)
(4.21217e-09 -9.88652e-09 6.16752e-09)
(4.65536e-09 -1.01551e-08 6.83748e-09)
(5.14936e-09 -9.99026e-09 7.28726e-09)
(5.77397e-09 -9.1988e-09 7.4084e-09)
(6.5408e-09 -7.66385e-09 7.21576e-09)
(7.02213e-09 -4.46056e-09 6.42186e-09)
(0 0 0)
(8.32555e-10 -2.16642e-09 8.20857e-10)
(1.58891e-09 -4.148e-09 1.59521e-09)
(2.29776e-09 -6.02653e-09 2.37472e-09)
(2.98317e-09 -7.86368e-09 3.20301e-09)
(3.66513e-09 -9.70104e-09 4.11727e-09)
(4.35964e-09 -1.15589e-08 5.14826e-09)
(5.0782e-09 -1.34338e-08 6.3184e-09)
(5.82618e-09 -1.52945e-08 7.63695e-09)
(6.60002e-09 -1.70773e-08 9.09143e-09)
(7.3838e-09 -1.86827e-08 1.06346e-08)
(8.14687e-09 -1.9979e-08 1.21676e-08)
(8.84663e-09 -2.08198e-08 1.35268e-08)
(9.44283e-09 -2.1088e-08 1.44931e-08)
(9.92446e-09 -2.07762e-08 1.4869e-08)
(1.03061e-08 -2.01262e-08 1.46923e-08)
(1.09265e-08 -1.9854e-08 1.44071e-08)
(0 0 0)
(1.22178e-09 -3.16791e-09 1.2051e-09)
(2.33093e-09 -6.06823e-09 2.34129e-09)
(3.36873e-09 -8.823e-09 3.4838e-09)
(4.36977e-09 -1.15254e-08 4.69608e-09)
(5.36297e-09 -1.42407e-08 6.03236e-09)
(6.37146e-09 -1.7005e-08 7.53783e-09)
(7.41147e-09 -1.98226e-08 9.24605e-09)
(8.48922e-09 -2.26611e-08 1.11725e-08)
(9.59492e-09 -2.5446e-08 1.33033e-08)
(1.06932e-08 -2.8057e-08 1.5578e-08)
(1.17104e-08 -3.03349e-08 1.78696e-08)
(1.25221e-08 -3.21131e-08 1.9972e-08)
(1.29596e-08 -3.32986e-08 2.16221e-08)
(1.28841e-08 -3.40084e-08 2.2608e-08)
(1.24171e-08 -3.46067e-08 2.2982e-08)
(1.20035e-08 -3.57133e-08 2.31948e-08)
(0 0 0)
(1.58018e-09 -4.07164e-09 1.55952e-09)
(3.01316e-09 -7.80381e-09 3.02865e-09)
(4.35093e-09 -1.13576e-08 4.50358e-09)
(5.63718e-09 -1.48578e-08 6.06539e-09)
(6.90863e-09 -1.83953e-08 7.78348e-09)
(8.19491e-09 -2.20269e-08 9.71608e-09)
(9.51702e-09 -2.57725e-08 1.19073e-08)
(1.08832e-08 -2.96109e-08 1.43798e-08)
(1.22804e-08 -3.34734e-08 1.71216e-08)
(1.36598e-08 -3.72372e-08 2.00667e-08)
(1.49139e-08 -4.07246e-08 2.30739e-08)
(1.5848e-08 -4.37176e-08 2.59148e-08)
(1.61676e-08 -4.60071e-08 2.83041e-08)
(1.55687e-08 -4.75e-08 3.00141e-08)
(1.41677e-08 -4.83441e-08 3.10351e-08)
(1.25422e-08 -4.92309e-08 3.17629e-08)
(0 0 0)
(1.90002e-09 -4.8457e-09 1.87652e-09)
(3.62058e-09 -9.29362e-09 3.64229e-09)
(5.22219e-09 -1.35413e-08 5.41118e-09)
(6.75584e-09 -1.77442e-08 7.27908e-09)
(8.26467e-09 -2.20197e-08 9.32804e-09)
(9.78406e-09 -2.64484e-08 1.16272e-08)
(1.13403e-08 -3.10725e-08 1.42297e-08)
(1.29468e-08 -3.58927e-08 1.71649e-08)
(1.45952e-08 -4.08611e-08 2.04241e-08)
(1.62408e-08 -4.58717e-08 2.394e-08)
(1.77785e-08 -5.07465e-08 2.75623e-08)
(1.90086e-08 -5.52133e-08 3.10452e-08)
(1.96089e-08 -5.88734e-08 3.40769e-08)
(1.91894e-08 -6.11932e-08 3.63943e-08)