/*--------------------------------*- C++ -*----------------------------------*\
| =========                 |                                                 |
| \\      /  F ield         | OpenFOAM: The Open Source CFD Toolbox           |
|  \\    /   O peration     | Version:  v1912                                 |
|   \\  /    A nd           | Website:  www.openfoam.com                      |
|    \\/     M anipulation  |                                                 |
\*---------------------------------------------------------------------------*/
FoamFile
{
    version     2.0;
    format      ascii;
    class       volScalarField;
    location    "0.94/fluid";
    object      T;
}
// * * * * * * * * * * * * * * * * * * * * * * * * * * * * * * * * * * * * * //

dimensions      [0 0 0 1 0 0 0];


internalField   nonuniform List<scalar> 
14592
(
273.308
273.935
274.586
275.264
275.976
276.726
277.521
278.368
279.276
280.253
281.311
282.465
283.735
285.15
286.765
288.723
273.306
273.929
274.576
275.251
275.959
276.706
277.497
278.34
279.242
280.214
281.267
282.416
283.681
285.09
286.689
288.573
273.304
273.922
274.563
275.232
275.934
276.673
277.457
278.291
279.185
280.147
281.189
282.328
283.582
284.983
286.575
288.452
273.301
273.913
274.547
275.209
275.902
276.632
277.406
278.228
279.108
280.056
281.082
282.203
283.442
284.83
286.422
288.32
273.298
273.903
274.53
275.182
275.866
276.585
277.345
278.153
279.016
279.944
280.947
282.044
283.258
284.625
286.21
288.138
273.294
273.891
274.51
275.153
275.826
276.532
277.278
278.068
278.91
279.812
280.787
281.849
283.025
284.354
285.912
287.856
273.29
273.879
274.489
275.122
275.783
276.475
277.204
277.975
278.793
279.665
280.603
281.621
282.741
284.005
285.49
287.383
273.286
273.867
274.467
275.089
275.738
276.416
277.127
277.876
278.667
279.507
280.402
281.365
282.413
283.576
284.915
286.583
273.312
273.949
274.61
275.301
276.027
276.795
277.611
278.485
279.426
280.445
281.556
282.778
284.134
285.661
287.418
289.527
273.311
273.943
274.601
275.288
276.01
276.774
277.586
278.455
279.391
280.405
281.511
282.728
284.079
285.6
287.344
289.403
273.308
273.936
274.587
275.268
275.984
276.74
277.545
278.405
279.331
280.334
281.43
282.635
283.977
285.491
287.233
289.296
273.305
273.927
274.571
275.244
275.951
276.698
277.491
278.339
279.252
280.239
281.317
282.505
283.831
285.335
287.081
289.176
273.302
273.916
274.552
275.217
275.913
276.648
277.429
278.261
279.155
280.121
281.176
282.338
283.638
285.123
286.868
289.007
273.298
273.904
274.532
275.186
275.872
276.593
277.358
278.171
279.043
279.983
281.006
282.132
283.392
284.838
286.56
288.733
273.294
273.891
274.51
275.154
275.827
276.534
277.281
278.073
278.919
279.827
280.811
281.888
283.089
284.464
286.112
288.247
273.29
273.878
274.487
275.12
275.78
276.472
277.2
277.969
278.786
279.659
280.596
281.613
282.733
283.997
285.482
287.377
273.317
273.962
274.633
275.336
276.075
276.859
277.695
278.592
279.562
280.618
281.773
283.048
284.466
286.059
287.87
289.964
273.315
273.957
274.624
275.322
276.058
276.837
277.669
278.562
279.527
280.576
281.727
282.997
284.41
285.999
287.801
289.861
273.313
273.949
274.61
275.302
276.03
276.802
277.626
278.51
279.465
280.504
281.643
282.902
284.306
285.889
287.693
289.764
273.31
273.939
274.593
275.277
275.996
276.759
277.571
278.442
279.382
280.405
281.526
282.767
284.156
285.731
287.542
289.651
273.306
273.928
274.574
275.249
275.958
276.708
277.506
278.36
279.281
280.282
281.379
282.593
283.956
285.513
287.328
289.487
273.302
273.916
274.553
275.217
275.914
276.65
277.432
278.267
279.165
280.138
281.201
282.377
283.699
285.218
287.014
289.216
273.298
273.903
274.53
275.183
275.868
276.588
277.352
278.164
279.035
279.974
280.996
282.122
283.381
284.827
286.551
288.727
273.293
273.889
274.506
275.148
275.819
276.524
277.267
278.056
278.896
279.797
280.77
281.831
283.006
284.336
285.895
287.843
273.32
273.974
274.654
275.366
276.118
276.915
277.768
278.686
279.681
280.766
281.956
283.27
284.727
286.352
288.17
290.207
273.319
273.968
274.644
275.352
276.1
276.893
277.742
278.655
279.645
280.724
281.908
283.217
284.67
286.292
288.105
290.112
273.316
273.96
274.63
275.332
276.072
276.858
277.698
278.602
279.581
280.649
281.822
283.12
284.565
286.183
287.999
290.021
273.313
273.95
274.613
275.306
276.037
276.813
277.641
278.532
279.496
280.547
281.702
282.982
284.412
286.023
287.849
289.912
273.31
273.939
274.593
275.277
275.997
276.76
277.574
278.447
279.392
280.42
281.55
282.802
284.207
285.801
287.633
289.749
273.305
273.927
274.571
275.245
275.952
276.701
277.498
278.351
279.271
280.271
281.366
282.58
283.942
285.499
287.316
289.479
273.301
273.913
274.548
275.21
275.904
276.637
277.415
278.245
279.137
280.101
281.154
282.315
283.614
285.099
286.846
288.992
273.296
273.899
274.524
275.174
275.854
276.57
277.327
278.132
278.992
279.917
280.918
282.013
283.226
284.593
286.18
288.116
273.324
273.984
274.671
275.392
276.153
276.963
277.83
278.764
279.779
280.886
282.102
283.441
284.922
286.56
288.367
290.348
273.322
273.978
274.662
275.378
276.135
276.94
277.803
278.732
279.741
280.843
282.053
283.388
284.865
286.501
288.303
290.258
273.32
273.97
274.647
275.357
276.107
276.904
277.758
278.678
279.677
280.767
281.965
283.289
284.758
286.391
288.198
290.169
273.316
273.96
274.63
275.331
276.071
276.858
277.7
278.606
279.589
280.663
281.843
283.149
284.603
286.23
288.048
290.061
273.313
273.949
274.609
275.301
276.03
276.804
277.631
278.52
279.483
280.533
281.687
282.965
284.395
286.005
287.832
289.899
273.308
273.936
274.587
275.268
275.985
276.744
277.553
278.421
279.359
280.379
281.498
282.738
284.125
285.7
287.513
289.63
273.304
273.922
274.563
275.232
275.935
276.678
277.467
278.312
279.22
280.205
281.28
282.466
283.79
285.293
287.041
289.147
273.299
273.908
274.538
275.195
275.884
276.609
277.377
278.196
279.071
280.015
281.038
282.156
283.393
284.781
286.374
288.282
273.326
273.992
274.685
275.413
276.181
277
277.877
278.824
279.853
280.977
282.21
283.566
285.06
286.7
288.492
290.432
273.325
273.986
274.675
275.398
276.163
276.977
277.85
278.792
279.815
280.933
282.161
283.512
285.002
286.641
288.429
290.344
273.322
273.978
274.66
275.377
276.134
276.94
277.804
278.737
279.75
280.856
282.072
283.412
284.895
286.531
288.325
290.257
273.319
273.968
274.643
275.35
276.098
276.893
277.745
278.664
279.661
280.75
281.947
283.27
284.738
286.369
288.175
290.149
273.315
273.956
274.622
275.32
276.056
276.838
277.675
278.576
279.552
280.618
281.789
283.084
284.527
286.143
287.959
289.988
273.311
273.943
274.599
275.286
276.01
276.777
277.595
278.475
279.426
280.461
281.597
282.853
284.255
285.835
287.639
289.72
273.306
273.929
274.575
275.25
275.959
276.71
277.508
278.363
279.284
280.283
281.375
282.577
283.915
285.426
287.167
289.24
273.301
273.914
274.549
275.212
275.907
276.639
277.416
278.245
279.132
280.089
281.128
282.262
283.513
284.91
286.501
288.385
273.328
273.997
274.694
275.426
276.2
277.025
277.909
278.865
279.903
281.037
282.281
283.647
285.147
286.787
288.567
290.48
273.326
273.991
274.684
275.412
276.182
277.002
277.882
278.832
279.865
280.994
282.231
283.593
285.089
286.728
288.504
290.393
273.324
273.983
274.669
275.39
276.153
276.965
277.836
278.776
279.799
280.915
282.142
283.492
284.981
286.618
288.401
290.307
273.32
273.973
274.652
275.364
276.116
276.917
277.776
278.703
279.709
280.808
282.016
283.349
284.824
286.455
288.251
290.199
273.317
273.961
274.631
275.333
276.074
276.862
277.705
278.614
279.599
280.675
281.856
283.161
284.611
286.229
288.034
290.038
273.312
273.948
274.608
275.299
276.027
276.799
277.624
278.511
279.471
280.516
281.662
282.928
284.337
285.92
287.714
289.771
273.308
273.933
274.583
275.262
275.976
276.731
277.536
278.398
279.328
280.336
281.437
282.649
283.995
285.509
287.243
289.294
273.303
273.919
274.557
275.223
275.923
276.66
277.443
278.278
279.174
280.139
281.187
282.331
283.59
284.991
286.578
288.446
273.329
274
274.699
275.433
276.21
277.038
277.926
278.885
279.928
281.067
282.316
283.687
285.189
286.828
288.602
290.502
273.327
273.994
274.689
275.419
276.191
277.014
277.898
278.853
279.89
281.024
282.267
283.632
285.131
286.769
288.539
290.416
273.325
273.986
274.674
275.397
276.162
276.977
277.852
278.796
279.823
280.945
282.176
283.532
285.023
286.659
288.436
290.329
273.321
273.975
274.656
275.37
276.125
276.929
277.792
278.722
279.733
280.837
282.05
283.388
284.865
286.496
288.286
290.222
273.317
273.963
274.635
275.339
276.083
276.874
277.72
278.633
279.622
280.703
281.889
283.199
284.652
286.269
288.069
290.061
273.313
273.95
274.612
275.305
276.036
276.811
277.639
278.53
279.494
280.544
281.694
282.965
284.377
285.96
287.75
289.794
273.308
273.936
274.587
275.268
275.984
276.743
277.55
278.416
279.35
280.362
281.468
282.685
284.034
285.549
287.279
289.319
273.304
273.921
274.561
275.229
275.931
276.671
277.456
278.295
279.194
280.165
281.217
282.365
283.628
285.03
286.615
288.474
273.284
273.86
274.455
275.067
275.698
276.347
277.014
277.698
278.395
279.102
279.809
280.508
281.184
281.819
282.392
282.881
273.282
273.857
274.448
275.058
275.687
276.334
276.999
277.68
278.375
279.078
279.782
280.478
281.151
281.784
282.355
282.842
273.281
273.851
274.439
275.045
275.669
276.312
276.972
277.648
278.337
279.035
279.734
280.424
281.091
281.718
282.285
282.769
273.278
273.844
274.427
275.028
275.646
276.283
276.936
277.606
278.287
278.977
279.667
280.348
281.006
281.626
282.186
282.664
273.276
273.836
274.413
275.008
275.62
276.249
276.894
277.554
278.226
278.905
279.584
280.254
280.901
281.509
282.059
282.529
273.273
273.828
274.398
274.986
275.59
276.211
276.847
277.497
278.157
278.824
279.489
280.145
280.778
281.372
281.909
282.369
273.27
273.818
274.382
274.962
275.558
276.17
276.796
277.434
278.082
278.734
279.385
280.024
280.64
281.218
281.74
282.188
273.267
273.808
274.366
274.938
275.525
276.127
276.742
277.369
278.003
278.641
279.274
279.896
280.494
281.053
281.558
281.991
273.284
273.861
274.457
275.071
275.704
276.357
277.028
277.718
278.423
279.138
279.857
280.571
281.264
281.919
282.513
283.021
273.283
273.857
274.45
275.061
275.692
276.342
277.011
277.698
278.4
279.112
279.829
280.539
281.229
281.882
282.474
282.98
273.281
273.851
274.44
275.047
275.673
276.318
276.983
277.664
278.361
279.068
279.778
280.482
281.166
281.813
282.401
282.904
273.279
273.844
274.427
275.029
275.649
276.288
276.946
277.62
278.309
279.007
279.709
280.404
281.079
281.717
282.298
282.795
273.276
273.836
274.414
275.009
275.622
276.254
276.903
277.568
278.247
278.934
279.624
280.307
280.97
281.597
282.166
282.656
273.273
273.828
274.398
274.987
275.592
276.215
276.855
277.509
278.176
278.851
279.526
280.194
280.842
281.454
282.011
282.488
273.27
273.818
274.382
274.963
275.56
276.174
276.803
277.446
278.099
278.759
279.419
280.07
280.7
281.295
281.834
282.298
273.267
273.808
274.365
274.938
275.527
276.131
276.749
277.379
278.019
278.663
279.306
279.938
280.548
281.123
281.643
282.091
273.285
273.865
274.464
275.081
275.72
276.379
277.059
277.76
278.479
279.213
279.956
280.699
281.427
282.123
282.76
283.309
273.284
273.861
274.456
275.071
275.706
276.363
277.041
277.738
278.455
279.186
279.925
280.665
281.39
282.083
282.718
283.266
273.282
273.855
274.445
275.055
275.686
276.338
277.01
277.703
278.413
279.138
279.871
280.604
281.323
282.01
282.64
283.185
273.28
273.847
274.433
275.037
275.662
276.307
276.972
277.657
278.359
279.074
279.798
280.521
281.23
281.908
282.53
283.069
273.277
273.839
274.419
275.016
275.634
276.271
276.927
277.602
278.294
278.998
279.709
280.419
281.115
281.78
282.39
282.919
273.274
273.83
274.403
274.994
275.603
276.231
276.877
277.541
278.22
278.911
279.607
280.3
280.979
281.627
282.223
282.738
273.271
273.821
274.386
274.969
275.57
276.188
276.824
277.476
278.141
278.815
279.494
280.169
280.828
281.455
282.031
282.53
273.268
273.811
274.369
274.944
275.536
276.144
276.769
277.407
278.057
278.715
279.375
280.028
280.664
281.268
281.821
282.3
273.288
273.872
274.476
275.1
275.746
276.415
277.108
277.825
278.565
279.327
280.105
280.891
281.673
282.432
283.139
283.756
273.286
273.867
274.468
275.088
275.731
276.398
277.088
277.802
278.539
279.297
280.071
280.854
281.633
282.389
283.094
283.709
273.284
273.861
274.456
275.072
275.71
276.371
277.056
277.764
278.495
279.246
280.014
280.789
281.561
282.31
283.01
283.622
273.282
273.854
274.443
275.053
275.684
276.338
277.015
277.715
278.437
279.179
279.936
280.701
281.461
282.201
282.891
283.497
273.279
273.845
274.429
275.032
275.655
276.301
276.969
277.658
278.369
279.098
279.841
280.591
281.337
282.061
282.738
283.333
273.276
273.836
274.413
275.008
275.624
276.26
276.917
277.595
278.292
279.006
279.732
280.463
281.19
281.894
282.553
283.131
273.273
273.826
274.396
274.983
275.59
276.216
276.861
277.526
278.208
278.904
279.611
280.321
281.023
281.703
282.337
282.894
273.269
273.816
274.378
274.957
275.554
276.17
276.803
277.454
278.119
278.797
279.482
280.168
280.843
281.494
282.098
282.628
273.291
273.882
274.492
275.125
275.781
276.463
277.172
277.91
278.678
279.475
280.298
281.142
281.997
282.844
283.652
284.374
273.289
273.877
274.484
275.113
275.766
276.445
277.151
277.886
278.65
279.443
280.262
281.102
281.953
282.797
283.604
284.324
273.287
273.87
274.472
275.096
275.744
276.417
277.117
277.846
278.603
279.389
280.2
281.033
281.876
282.713
283.514
284.23
273.285
273.862
274.459
275.076
275.717
276.383
277.075
277.795
278.542
279.317
280.117
280.937
281.768
282.594
283.385
284.094
273.282
273.854
274.444
275.054
275.687
276.344
277.026
277.735
278.47
279.231
280.015
280.819
281.633
282.441
283.216
283.914
273.279
273.844
274.427
275.03
275.653
276.3
276.971
277.667
278.388
279.132
279.897
280.68
281.47
282.255
283.008
283.686
273.275
273.834
274.409
275.003
275.618
276.254
276.913
277.594
278.298
279.023
279.766
280.523
281.285
282.039
282.76
283.409
273.272
273.823
274.391
274.976
275.581
276.206
276.852
277.518
278.203
278.907
279.625
280.353
281.082
281.798
282.479
283.089
273.294
273.893
274.513
275.155
275.824
276.521
277.25
278.013
278.812
279.65
280.527
281.441
282.387
283.35
284.301
285.182
273.293
273.888
274.504
275.143
275.808
276.502
277.228
277.987
278.783
279.617
280.49
281.399
282.341
283.3
284.248
285.126
273.291
273.881
274.492
275.126
275.785
276.473
277.192
277.945
278.733
279.559
280.424
281.325
282.258
283.209
284.151
285.025
273.288
273.873
274.478
275.105
275.757
276.437
277.148
277.891
278.669
279.483
280.334
281.222
282.141
283.08
284.011
284.879
273.285
273.864
274.462
275.082
275.726
276.396
277.096
277.827
278.591
279.39
280.224
281.093
281.993
282.912
283.827
284.683
273.282
273.854
274.445
275.056
275.691
276.351
277.038
277.755
278.503
279.284
280.096
280.941
281.813
282.704
283.591
284.425
273.278
273.844
274.426
275.029
275.654
276.302
276.976
277.678
278.407
279.166
279.953
280.767
281.605
282.457
283.303
284.097
273.275
273.832
274.407
275.001
275.615
276.251
276.912
277.596
278.306
279.04
279.798
280.578
281.374
282.177
282.966
283.701
273.299
273.906
274.536
275.19
275.872
276.586
277.336
278.127
278.961
279.845
280.782
281.775
282.826
283.93
285.071
286.195
273.297
273.901
274.527
275.177
275.856
276.567
277.314
278.1
278.931
279.81
280.742
281.731
282.777
283.877
285.013
286.128
273.295
273.894
274.515
275.159
275.832
276.537
277.277
278.056
278.879
279.749
280.672
281.651
282.688
283.78
284.909
286.019
273.292
273.886
274.5
275.138
275.803
276.499
277.23
277.999
278.81
279.668
280.576
281.54
282.563
283.641
284.761
285.867
273.289
273.876
274.483
275.114
275.77
276.456
277.175
277.931
278.728
279.568
280.458
281.401
282.401
283.459
284.561
285.66
273.286
273.866
274.465
275.087
275.733
276.408
277.114
277.855
278.634
279.454
280.319
281.234
282.203
283.228
284.299
285.376
273.282
273.855
274.446
275.058
275.694
276.357
277.049
277.772
278.53
279.326
280.162
281.042
281.97
282.946
283.964
284.989
273.278
273.843
274.426
275.029
275.654
276.303
276.98
277.685
278.421
279.19
279.992
280.831
281.707
282.618
283.556
284.487
273.303
273.92
274.56
275.227
275.924
276.656
277.428
278.247
279.118
280.049
281.048
282.124
283.287
284.55
285.924
287.409
273.302
273.915
274.551
275.214
275.907
276.636
277.405
278.219
279.086
280.013
281.006
282.077
283.235
284.493
285.858
287.315
273.299
273.908
274.539
275.195
275.882
276.604
277.366
278.173
279.031
279.948
280.932
281.993
283.141
284.39
285.748
287.197
273.297
273.899
274.523
275.173
275.852
276.565
277.317
278.113
278.959
279.862
280.83
281.875
283.008
284.244
285.595
287.049
273.293
273.889
274.506
275.148
275.817
276.52
277.26
278.042
278.872
279.756
280.704
281.725
282.834
284.048
285.386
286.845
273.29
273.879
274.487
275.12
275.779
276.47
277.195
277.961
278.771
279.633
280.554
281.544
282.618
283.795
285.101
286.549
273.286
273.867
274.467
275.09
275.738
276.415
277.126
277.873
278.661
279.496
280.383
281.333
282.358
283.478
284.719
286.106
273.282
273.855
274.446
275.059
275.695
276.359
277.053
277.78
278.544
279.348
280.197
281.099
282.061
283.098
284.227
285.463
273.282
273.854
274.445
275.057
275.693
276.356
277.049
277.776
278.539
279.342
280.192
281.093
282.055
283.092
284.221
285.458
273.278
273.842
274.424
275.025
275.649
276.298
276.974
277.678
278.413
279.18
279.982
280.82
281.695
282.607
283.545
284.476
273.274
273.831
274.404
274.996
275.609
276.244
276.903
277.586
278.294
279.028
279.785
280.563
281.359
282.162
282.951
283.687
273.271
273.821
274.387
274.971
275.575
276.198
276.842
277.506
278.19
278.892
279.609
280.336
281.064
281.78
282.461
283.072
273.269
273.813
274.374
274.951
275.547
276.16
276.792
277.44
278.104
278.78
279.464
280.149
280.823
281.474
282.079
282.61
273.267
273.808
274.365
274.938
275.528
276.134
276.756
277.393
278.041
278.697
279.355
280.008
280.643
281.247
281.8
282.28
273.266
273.806
274.361
274.932
275.518
276.12
276.736
277.364
278.002
278.644
279.285
279.916
280.526
281.1
281.622
282.071
273.266
273.806
274.361
274.931
275.516
276.116
276.729
277.353
277.985
278.621
279.253
279.874
280.471
281.031
281.537
281.971
273.285
273.865
274.464
275.086
275.733
276.409
277.118
277.863
278.65
279.483
280.37
281.319
282.344
283.463
284.705
286.094
273.281
273.852
274.442
275.053
275.687
276.348
277.038
277.76
278.516
279.31
280.145
281.024
281.95
282.926
283.945
284.971
273.277
273.841
274.422
275.022
275.645
276.291
276.963
277.663
278.39
279.147
279.932
280.745
281.582
282.434
283.28
284.076
273.274
273.831
274.404
274.996
275.608
276.242
276.898
277.577
278.279
279.001
279.743
280.498
281.26
282.013
282.734
283.385
273.272
273.823
274.39
274.975
275.579
276.203
276.846
277.507
278.187
278.881
279.586
280.295
280.996
281.676
282.31
282.869
273.27
273.817
274.381
274.961
275.559
276.175
276.808
277.456
278.119
278.791
279.468
280.141
280.799
281.427
282.003
282.503
273.269
273.814
274.376
274.954
275.549
276.16
276.786
277.426
278.077
278.734
279.392
280.042
280.671
281.266
281.806
282.272
273.269
273.814
274.376
274.953
275.547
276.155
276.778
277.414
278.059
278.709
279.358
279.995
280.611
281.189
281.712
282.161
273.289
273.876
274.483
275.113
275.77
276.458
277.181
277.945
278.753
279.612
280.531
281.52
282.593
283.77
285.078
286.528
273.285
273.863
274.46
275.079
275.722
276.395
277.098
277.836
278.611
279.429
280.292
281.206
282.174
283.198
284.271
285.349
273.281
273.85
274.438
275.047
275.679
276.335
277.02
277.734
278.479
279.256
280.067
280.909
281.78
282.671
283.559
284.394
273.277
273.84
274.42
275.02
275.64
276.284
276.951
277.644
278.361
279.102
279.865
280.646
281.436
282.22
282.973
283.653
273.275
273.831
274.405
274.998
275.61
276.242
276.896
277.57
278.264
278.975
279.699
280.429
281.154
281.858
282.517
283.098
273.273
273.826
274.395
274.983
275.589
276.213
276.856
277.516
278.192
278.879
279.573
280.265
280.943
281.59
282.187
282.704
273.272
273.823
274.391
274.975
275.577
276.197
276.833
277.484
278.147
278.818
279.492
280.158
280.805
281.417
281.975
282.455
273.271
273.823
274.39
274.974
275.575
276.192
276.824
277.47
278.128
278.791
279.455
280.108
280.74
281.335
281.873
282.336
273.292
273.885
274.499
275.137
275.803
276.502
277.238
278.016
278.843
279.724
280.669
281.688
282.796
284.01
285.349
286.813
273.288
273.872
274.475
275.102
275.754
276.436
277.151
277.903
278.696
279.533
280.42
281.361
282.359
283.416
284.52
285.621
273.283
273.859
274.453
275.069
275.709
276.375
277.07
277.797
278.557
279.353
280.184
281.05
281.948
282.867
283.782
284.64
273.28
273.848
274.434
275.041
275.669
276.321
276.999
277.703
278.434
279.192
279.973
280.774
281.586
282.394
283.17
283.87
273.277
273.839
274.419
275.018
275.637
276.278
276.941
277.626
278.333
279.058
279.798
280.546
281.29
282.014
282.692
283.289
273.275
273.833
274.409
275.002
275.615
276.247
276.899
277.57
278.257
278.958
279.666
280.373
281.068
281.733
282.345
282.876
273.274
273.83
274.404
274.995
275.603
276.23
276.875
277.535
278.21
278.893
279.58
280.261
280.923
281.55
282.121
282.614
273.274
273.83
274.403
274.993
275.6
276.225
276.866
277.521
278.189
278.865
279.541
280.208
280.854
281.463
282.015
282.488
273.295
273.893
274.513
275.158
275.832
276.539
277.286
278.077
278.918
279.817
280.781
281.823
282.953
284.188
285.54
286.999
273.29
273.879
274.489
275.121
275.781
276.471
277.196
277.96
278.766
279.619
280.524
281.485
282.505
283.583
284.702
285.811
273.286
273.866
274.466
275.088
275.734
276.408
277.113
277.85
278.623
279.432
280.28
281.164
282.082
283.02
283.951
284.821
273.282
273.855
274.447
275.058
275.693
276.353
277.039
277.753
278.496
279.266
280.062
280.879
281.708
282.533
283.325
284.037
273.279
273.846
274.431
275.035
275.66
276.308
276.979
277.673
278.39
279.127
279.88
280.642
281.402
282.141
282.833
283.441
273.277
273.84
274.42
275.019
275.638
276.276
276.936
277.615
278.312
279.023
279.743
280.464
281.172
281.849
282.474
283.015
273.276
273.837
274.415
275.011
275.625
276.259
276.91
277.579
278.262
278.956
279.654
280.347
281.021
281.66
282.242
282.744
273.276
273.837
274.414
275.009
275.622
276.253
276.901
277.564
278.241
278.926
279.613
280.292
280.95
281.569
282.131
282.614
273.297
273.899
274.524
275.174
275.854
276.568
277.323
278.123
278.975
279.887
280.866
281.922
283.067
284.313
285.669
287.119
273.292
273.885
274.499
275.137
275.802
276.499
277.231
278.003
278.82
279.685
280.603
281.578
282.612
283.702
284.829
285.938
273.288
273.872
274.476
275.102
275.754
276.434
277.146
277.891
278.673
279.494
280.353
281.251
282.181
283.131
284.072
284.948
273.284
273.861
274.456
275.072
275.712
276.378
277.07
277.792
278.543
279.323
280.13
280.959
281.8
282.636
283.438
284.157
273.281
273.852
274.44
275.049
275.679
276.332
277.009
277.71
278.435
279.181
279.944
280.717
281.487
282.236
282.937
283.553
273.279
273.845
274.429
275.032
275.655
276.299
276.964
277.65
278.354
279.074
279.803
280.533
281.251
281.938
282.571
283.12
273.278
273.842
274.424
275.024
275.642
276.281
276.938
277.613
278.304
279.005
279.712
280.413
281.097
281.744
282.335
282.843
273.278
273.842
274.423
275.022
275.639
276.275
276.928
277.598
278.282
278.974
279.669
280.357
281.023
281.651
282.221
282.71
273.298
273.904
274.531
275.185
275.869
276.588
277.348
278.155
279.014
279.934
280.922
281.988
283.141
284.393
285.748
287.191
273.293
273.889
274.506
275.147
275.816
276.518
277.255
278.033
278.857
279.729
280.656
281.64
282.682
283.778
284.909
286.017
273.289
273.876
274.483
275.112
275.768
276.452
277.168
277.92
278.708
279.535
280.403
281.308
282.247
283.204
284.15
285.028
273.285
273.865
274.463
275.082
275.725
276.395
277.092
277.819
278.575
279.362
280.176
281.012
281.861
282.704
283.512
284.235
273.282
273.855
274.446
275.058
275.691
276.348
277.029
277.736
278.466
279.218
279.987
280.767
281.544
282.3
283.007
283.627
273.28
273.849
274.435
275.041
275.667
276.315
276.984
277.674
278.384
279.109
279.844
280.58
281.304
281.998
282.636
283.189
273.279
273.846
274.43
275.032
275.654
276.296
276.957
277.637
278.332
279.039
279.751
280.458
281.148
281.801
282.397
282.909
273.279
273.845
274.429
275.031
275.651
276.29
276.947
277.621
278.309
279.007
279.708
280.401
281.073
281.707
282.282
282.774
273.299
273.906
274.535
275.19
275.876
276.598
277.361
278.171
279.034
279.958
280.95
282.02
283.177
284.431
285.786
287.225
273.294
273.892
274.51
275.153
275.824
276.527
277.267
278.048
278.875
279.752
280.682
281.67
282.717
283.816
284.947
286.055
273.29
273.878
274.486
275.118
275.775
276.461
277.18
277.934
278.725
279.556
280.427
281.337
282.279
283.239
284.188
285.067
273.286
273.866
274.466
275.087
275.732
276.403
277.103
277.832
278.592
279.382
280.199
281.039
281.892
282.738
283.548
284.273
273.283
273.857
274.45
275.062
275.698
276.356
277.04
277.748
278.481
279.236
280.009
280.792
281.572
282.331
283.041
283.664
273.281
273.851
274.438
275.046
275.673
276.323
276.994
277.686
278.398
279.126
279.865
280.604
281.331
282.028
282.669
283.224
273.28
273.847
274.433
275.037
275.66
276.304
276.967
277.648
278.346
279.056
279.771
280.481
281.174
281.83
282.428
282.942
273.279
273.847
274.432
275.035
275.657
276.297
276.957
277.633
278.323
279.024
279.727
280.423
281.098
281.735
282.312
282.807
273.264
273.799
274.349
274.914
275.493
276.085
276.689
277.303
277.924
278.545
279.162
279.765
280.343
280.884
281.37
281.788
273.261
273.79
274.333
274.89
275.461
276.044
276.638
277.24
277.847
278.453
279.053
279.637
280.196
280.716
281.184
281.585
273.258
273.781
274.318
274.869
275.432
276.007
276.591
277.181
277.775
278.367
278.95
279.517
280.057
280.558
281.009
281.394
273.255
273.774
274.306
274.851
275.407
275.974
276.55
277.13
277.712
278.291
278.859
279.41
279.933
280.417
280.851
281.223
273.253
273.768
274.296
274.836
275.387
275.948
276.516
277.088
277.661
278.228
278.784
279.321
279.829
280.299
280.719
281.078
273.252
273.764
274.289
274.826
275.373
275.93
276.492
277.058
277.622
278.181
278.727
279.253
279.749
280.207
280.616
280.966
273.251
273.762
274.285
274.82
275.366
275.919
276.478
277.039
277.598
278.151
278.69
279.208
279.697
280.147
280.548
280.89
273.251
273.762
274.285
274.819
275.363
275.915
276.472
277.031
277.587
278.137
278.672
279.187
279.671
280.117
280.514
280.853
273.264
273.799
274.349
274.914
275.494
276.088
276.695
277.313
277.938
278.566
279.19
279.803
280.392
280.945
281.445
281.875
273.261
273.789
274.332
274.89
275.462
276.047
276.643
277.248
277.859
278.471
279.078
279.67
280.239
280.77
281.249
281.661
273.258
273.781
274.318
274.869
275.433
276.009
276.595
277.189
277.786
278.383
278.972
279.546
280.094
280.605
281.064
281.459
273.255
273.773
274.305
274.85
275.408
275.976
276.553
277.137
277.722
278.305
278.879
279.435
279.965
280.457
280.899
281.277
273.254
273.767
274.295
274.835
275.387
275.95
276.52
277.094
277.67
278.241
278.801
279.343
279.857
280.333
280.76
281.125
273.252
273.763
274.288
274.825
275.374
275.931
276.496
277.064
277.631
278.193
278.743
279.274
279.775
280.239
280.653
281.007
273.252
273.762
274.285
274.821
275.367
275.921
276.482
277.045
277.608
278.163
278.706
279.228
279.721
280.176
280.582
280.928
273.251
273.762
274.285
274.82
275.365
275.919
276.477
277.038
277.598
278.15
278.689
279.207
279.696
280.146
280.547
280.89
273.264
273.801
274.352
274.919
275.502
276.1
276.713
277.338
277.973
278.613
279.253
279.884
280.496
281.075
281.603
282.059
273.261
273.791
274.336
274.895
275.47
276.058
276.659
277.271
277.891
278.514
279.134
279.743
280.33
280.883
281.386
281.819
273.259
273.782
274.321
274.873
275.44
276.019
276.61
277.21
277.815
278.421
279.022
279.61
280.174
280.703
281.181
281.593
273.256
273.775
274.308
274.854
275.414
275.985
276.567
277.156
277.748
278.34
278.923
279.492
280.035
280.542
280.998
281.391
273.254
273.769
274.297
274.839
275.393
275.959
276.532
277.112
277.694
278.273
278.842
279.394
279.919
280.407
280.846
281.222
273.253
273.765
274.291
274.829
275.38
275.94
276.508
277.081
277.654
278.223
278.781
279.32
279.831
280.305
280.729
281.092
273.252
273.763
274.288
274.825
275.373
275.931
276.495
277.063
277.63
278.192
278.742
279.272
279.774
280.238
280.652
281.006
273.252
273.764
274.288
274.825
275.373
275.929
276.491
277.057
277.621
278.179
278.725
279.251
279.748
280.206
280.615
280.964
273.266
273.805
274.36
274.931
275.519
276.124
276.745
277.381
278.03
278.688
279.351
280.01
280.656
281.275
281.846
282.346
273.263
273.796
274.343
274.907
275.486
276.08
276.689
277.311
277.943
278.582
279.222
279.855
280.472
281.058
281.596
282.063
273.26
273.787
274.328
274.884
275.455
276.039
276.637
277.246
277.863
278.483
279.101
279.71
280.298
280.853
281.36
281.798
273.257
273.779
274.314
274.864
275.428
276.004
276.592
277.189
277.792
278.396
278.994
279.58
280.143
280.672
281.15
281.563
273.255
273.773
274.304
274.849
275.407
275.977
276.556
277.144
277.734
278.324
278.906
279.473
280.015
280.52
280.976
281.368
273.254
273.769
274.297
274.839
275.393
275.958
276.531
277.111
277.693
278.271
278.84
279.392
279.918
280.406
280.844
281.22
273.253
273.767
274.294
274.834
275.386
275.948
276.518
277.092
277.668
278.239
278.799
279.341
279.855
280.331
280.757
281.122
273.253
273.767
274.295
274.835
275.386
275.947
276.514
277.086
277.658
278.225
278.781
279.317
279.826
280.295
280.715
281.075
273.268
273.812
274.373
274.95
275.545
276.158
276.79
277.441
278.108
278.789
279.481
280.178
280.87
281.544
282.179
282.743
273.265
273.802
274.355
274.924
275.509
276.112
276.731
277.366
278.015
278.674
279.34
280.005
280.66
281.291
281.879
282.397
273.262
273.793
274.339
274.9
275.477
276.069
276.676
277.297
277.928
278.566
279.207
279.842
280.462
281.054
281.599
282.074
273.259
273.785
274.325
274.879
275.449
276.032
276.629
277.236
277.852
278.472
279.089
279.698
280.287
280.843
281.352
281.792
273.257
273.779
274.314
274.863
275.427
276.003
276.591
277.188
277.79
278.394
278.992
279.578
280.141
280.669
281.148
281.561
273.256
273.774
274.307
274.853
275.412
275.983
276.565
277.153
277.745
278.336
278.92
279.488
280.031
280.538
280.994
281.387
273.255
273.773
274.304
274.848
275.405
275.973
276.55
277.133
277.718
278.301