/*--------------------------------*- C++ -*----------------------------------*\
| =========                 |                                                 |
| \\      /  F ield         | OpenFOAM: The Open Source CFD Toolbox           |
|  \\    /   O peration     | Version:  v1912                                 |
|   \\  /    A nd           | Website:  www.openfoam.com                      |
|    \\/     M anipulation  |                                                 |
\*---------------------------------------------------------------------------*/
FoamFile
{
    version     2.0;
    format      ascii;
    class       volVectorField;
    location    "0.94/fluid";
    object      U;
}
// * * * * * * * * * * * * * * * * * * * * * * * * * * * * * * * * * * * * * //

dimensions      [0 1 -1 0 0 0 0];


internalField   nonuniform List<vector> 
14592
(
(0.0877201 0.0173245 0.00057566)
(0.0718518 0.0119286 0.00103221)
(0.0558578 0.00766975 0.000970623)
(0.046289 0.00393402 0.000482432)
(0.0400155 0.00188614 -0.000369151)
(0.0363662 0.000814614 -0.00148029)
(0.0340594 0.000331454 -0.00282199)
(0.032528 0.000118443 -0.00441984)
(0.0312245 1.99497e-05 -0.00636269)
(0.0300671 -6.4564e-05 -0.00879527)
(0.02858 -0.000183222 -0.0119603)
(0.0272473 -0.000441584 -0.0161455)
(0.024688 -0.000833337 -0.0220012)
(0.0227949 -0.00172331 -0.029531)
(0.0161961 -0.00213523 -0.0391869)
(0.00933805 -0.0049237 -0.0366694)
(0.103942 0.0182665 0.000819612)
(0.103223 0.0184928 0.00158047)
(0.0993259 0.0156954 0.00167953)
(0.0944739 0.0113047 0.00109764)
(0.0897373 0.00765503 -0.000174168)
(0.0858777 0.00498234 -0.00203302)
(0.0827035 0.00330459 -0.00441603)
(0.0800349 0.00235832 -0.00733346)
(0.0774343 0.00189476 -0.0109049)
(0.0747728 0.00168782 -0.0153643)
(0.0713994 0.00157093 -0.021104)
(0.0676235 0.0013379 -0.0286274)
(0.0614823 0.000911182 -0.0388264)
(0.0546285 -0.000313259 -0.0515869)
(0.0391689 -0.00154161 -0.0659856)
(0.0228285 -0.00546962 -0.0596672)
(0.104002 0.0123344 0.00091255)
(0.108468 0.0173209 0.00180314)
(0.111452 0.0172092 0.00199382)
(0.11194 0.0143293 0.00144402)
(0.111087 0.0110888 0.00012778)
(0.109498 0.00827211 -0.00187359)
(0.107484 0.00627626 -0.00450436)
(0.105208 0.00507474 -0.00777604)
(0.102517 0.0045226 -0.0118101)
(0.0993899 0.00441721 -0.0168601)
(0.0951963 0.00457212 -0.0233498)
(0.0901216 0.00475242 -0.0318682)
(0.0819543 0.0048266 -0.0433762)
(0.0721505 0.00405749 -0.0580077)
(0.0515079 0.00253419 -0.0745401)
(0.0287702 -0.00247808 -0.0688045)
(0.102155 0.0079382 0.000952469)
(0.107005 0.0135223 0.0019111)
(0.112222 0.0150018 0.0021537)
(0.115496 0.0139122 0.00163858)
(0.117245 0.0118831 0.000348298)
(0.117644 0.00980954 -0.00163648)
(0.117016 0.00823656 -0.00426273)
(0.115604 0.00732895 -0.00754605)
(0.113395 0.0070855 -0.0116078)
(0.110456 0.00740825 -0.0167079)
(0.106192 0.00818709 -0.0232733)
(0.100751 0.00924479 -0.0319403)
(0.0917616 0.0104618 -0.0436966)
(0.0805625 0.0110346 -0.0589039)
(0.0572652 0.0102072 -0.0763812)
(0.030894 0.0036713 -0.0719304)
(0.101102 0.00512649 0.000980887)
(0.105043 0.00992604 0.00198775)
(0.110234 0.0120145 0.00227357)
(0.114401 0.0121579 0.00179579)
(0.117424 0.0112928 0.000549041)
(0.119102 0.0101579 -0.00137632)
(0.119599 0.00927848 -0.00392083)
(0.119095 0.00891323 -0.00709764)
(0.117603 0.00917017 -0.0110212)
(0.115227 0.0100601 -0.0159491)
(0.111393 0.0115674 -0.0222939)
(0.106255 0.0136042 -0.0307206)
(0.0972939 0.016097 -0.0422046)
(0.0857584 0.0181642 -0.0573537)
(0.0610151 0.0182706 -0.075036)
(0.032003 0.00937219 -0.0719546)
(0.10062 0.00338179 0.00100747)
(0.103719 0.00702005 0.00205801)
(0.108344 0.00907127 0.00239035)
(0.112629 0.00986735 0.00196013)
(0.116202 0.00987551 0.000771304)
(0.118648 0.00960726 -0.00107352)
(0.119971 0.00948354 -0.00350418)
(0.12026 0.00977931 -0.00652591)
(0.119499 0.0106687 -0.0102398)
(0.117803 0.0122686 -0.0148938)
(0.114601 0.0146857 -0.0208739)
(0.11006 0.0180153 -0.0288627)
(0.101523 0.0223665 -0.0397918)
(0.0901873 0.0270461 -0.0545502)
(0.0645617 0.0300207 -0.0720187)
(0.033397 0.0193457 -0.070628)
(0.100438 0.00216312 0.0010388)
(0.103043 0.00468341 0.00213646)
(0.107218 0.00641771 0.00252317)
(0.111444 0.00747668 0.00215375)
(0.115278 0.00806719 0.00103922)
(0.118217 0.00849461 -0.00070517)
(0.120166 0.00905148 -0.00299456)
(0.121154 0.00997934 -0.00581867)
(0.121159 0.0114727 -0.00925271)
(0.120323 0.0137216 -0.0135147)
(0.11814 0.0169212 -0.0189284)
(0.114868 0.021339 -0.0261376)
(0.10786 0.0272263 -0.0359133)
(0.0983892 0.0341563 -0.0493793)
(0.07335 0.0397473 -0.0651334)
(0.0411573 0.0270512 -0.0656759)
(0.100379 0.00116855 0.00107524)
(0.102786 0.00263169 0.0022249)
(0.106778 0.00390625 0.00267244)
(0.111014 0.00500132 0.00237345)
(0.115043 0.00597409 0.00134491)
(0.118336 0.00695154 -0.000286957)
(0.120759 0.00809619 -0.00242213)
(0.122319 0.00959233 -0.0050317)
(0.123001 0.0116309 -0.00816149)
(0.122976 0.0144699 -0.0119929)
(0.121814 0.0184093 -0.0167828)
(0.119848 0.0240466 -0.0231209)
(0.114518 0.0320298 -0.0316156)
(0.10734 0.0437426 -0.0436514)
(0.0837422 0.0578662 -0.0577361)
(0.0540378 0.0623011 -0.0618989)
(0.0876882 0.0173275 0.00035006)
(0.071667 0.0119425 0.000616438)
(0.0554337 0.00768258 0.000507755)
(0.04565 0.00394046 6.8721e-05)
(0.0391762 0.0018899 -0.000671783)
(0.035341 0.000818432 -0.00164707)
(0.0328297 0.000338171 -0.00284424)
(0.0310454 0.000128999 -0.00428574)
(0.0294122 3.54073e-05 -0.0060461)
(0.0278056 -4.26005e-05 -0.00821343)
(0.0257517 -0.000146765 -0.0109706)
(0.0236058 -0.000373358 -0.0143634)
(0.0202314 -0.000693455 -0.0187926)
(0.0168775 -0.00144101 -0.023198)
(0.0103278 -0.0018163 -0.0272456)
(0.00264395 -0.00362225 -0.0179786)
(0.103899 0.0182819 0.000499356)
(0.102964 0.0185335 0.000942119)
(0.0987087 0.0157484 0.000892638)
(0.093471 0.0113561 0.000309919)
(0.0883328 0.00770458 -0.000837645)
(0.0840724 0.0050365 -0.00249323)
(0.0804649 0.00337471 -0.00462858)
(0.0772843 0.00245461 -0.00726512)
(0.0740361 0.00202692 -0.01051)
(0.0705142 0.00186315 -0.0145237)
(0.0660303 0.00180338 -0.0196015)
(0.0607286 0.00163855 -0.0259154)
(0.0528903 0.00130524 -0.0339651)
(0.043545 0.000184632 -0.0422106)
(0.0276424 -0.00111561 -0.0485893)
(0.0100065 -0.00450148 -0.0312372)
(0.103962 0.01236 0.000564282)
(0.108203 0.0173832 0.00108808)
(0.110811 0.017301 0.00108805)
(0.110878 0.014436 0.000508411)
(0.109567 0.0112073 -0.000696476)
(0.107507 0.00840928 -0.00248809)
(0.10498 0.00644884 -0.00484826)
(0.102101 0.00530248 -0.00780435)
(0.0986566 0.00482756 -0.0114684)
(0.0945401 0.00481804 -0.016021)
(0.0890618 0.00509438 -0.021779)
(0.0822362 0.00540456 -0.0289752)
(0.0720649 0.00562287 -0.0381249)
(0.0593737 0.00492299 -0.0476985)
(0.0380167 0.00322955 -0.0550882)
(0.013825 -0.00200003 -0.0355044)
(0.102118 0.00796509 0.000599023)
(0.106745 0.0135899 0.00117212)
(0.111591 0.0151111 0.00120845)
(0.114448 0.0140551 0.000653443)
(0.115741 0.0120585 -0.000531554)
(0.115667 0.0100269 -0.00230833)
(0.114518 0.00851724 -0.00466255)
(0.112496 0.00770182 -0.00762605)
(0.109526 0.007587 -0.0113112)
(0.105588 0.00807572 -0.0159056)
(0.100015 0.00907103 -0.021725)
(0.0927856 0.0103756 -0.0290374)
(0.0817033 0.0118854 -0.0383555)
(0.0674814 0.012628 -0.0482503)
(0.0433171 0.0116701 -0.0560142)
(0.0153004 0.00418943 -0.0362398)
(0.101067 0.00515544 0.000629552)
(0.104789 0.00999936 0.00124553)
(0.109615 0.0121388 0.00132052)
(0.113378 0.0123323 0.000800859)
(0.115963 0.0115203 -0.00034179)
(0.117191 0.0104507 -0.002061)
(0.117194 0.00966271 -0.00433763)
(0.116113 0.00942616 -0.00720071)
(0.113897 0.00986272 -0.0107559)
(0.110571 0.0109903 -0.0151891)
(0.105478 0.0128161 -0.0208013)
(0.0986105 0.0152335 -0.0278851)
(0.0875749 0.0182028 -0.0369298)
(0.0730151 0.0205975 -0.0466755)
(0.0472541 0.0206878 -0.0544123)
(0.0163218 0.0101316 -0.0352344)
(0.100586 0.00341339 0.000659591)
(0.103469 0.0070998 0.0013189)
(0.107737 0.00920915 0.00143948)
(0.111632 0.0100686 0.000967124)
(0.11479 0.0101474 -0.000117843)
(0.116818 0.00996624 -0.00175926)
(0.117686 0.00996071 -0.00392839)
(0.117445 0.0104212 -0.00664634)
(0.116019 0.0115427 -0.0100061)
(0.113448 0.0134598 -0.0141861)
(0.109071 0.0163188 -0.0194626)
(0.10291 0.020213 -0.0261486)
(0.0923685 0.02533 -0.0346898)
(0.078097 0.0306755 -0.0440584)
(0.0513145 0.0340772 -0.0515676)
(0.017924 0.0210481 -0.0335365)
(0.100405 0.00219888 0.000693392)
(0.102798 0.0047718 0.00140037)
(0.106625 0.00656985 0.00157493)
(0.110477 0.00770154 0.00116261)
(0.113923 0.00837577 0.000150717)
(0.116478 0.00890685 -0.00139468)
(0.11802 0.0096027 -0.00343139)
(0.118543 0.0107235 -0.00596609)
(0.117967 0.0124903 -0.00906927)
(0.116375 0.0151205 -0.0128973)
(0.11317 0.0188624 -0.0176769)
(0.108505 0.0240004 -0.0237125)
(0.0997127 0.0309007 -0.0313407)
(0.0876709 0.0388021 -0.0398235)
(0.0613615 0.0452474 -0.0464441)
(0.0267623 0.0295281 -0.0303277)
(0.100347 0.00120836 0.000730468)
(0.102546 0.00272799 0.0014891)
(0.1062 0.00407028 0.00172336)
(0.11008 0.00524396 0.0013798)
(0.113748 0.00630859 0.000451475)
(0.116694 0.00740067 -0.000986813)
(0.11876 0.00869834 -0.00287863)
(0.119922 0.010407 -0.00521373)
(0.120116 0.0127494 -0.00803693)
(0.119464 0.0160223 -0.0114772)
(0.117447 0.020595 -0.0157071)
(0.114339 0.0271225 -0.0210136)
(0.107482 0.0364219 -0.0276184)
(0.0981948 0.0496264 -0.0351209)
(0.0733155 0.0655292 -0.0408902)
(0.0412767 0.0664264 -0.0278353)
(0.0876641 0.0173304 0.000196082)
(0.0715256 0.0119542 0.000332027)
(0.0551004 0.0076938 0.000195264)
(0.0451279 0.00394691 -0.000195784)
(0.0384645 0.00189326 -0.000830514)
(0.0344411 0.000821142 -0.00166609)
(0.031719 0.000342725 -0.00270014)
(0.0296743 0.000135752 -0.00395094)
(0.0277074 4.43415e-05 -0.00547961)
(0.0256437 -3.17014e-05 -0.00733737)
(0.0230197 -0.000131234 -0.00966722)
(0.0200505 -0.000344238 -0.012426)
(0.0158806 -0.000638521 -0.0159126)
(0.0113181 -0.00131523 -0.0190547)
(0.00526821 -0.00179214 -0.0214958)
(-0.00102408 -0.00315852 -0.0140492)
(0.103865 0.0182973 0.000280368)
(0.102764 0.0185716 0.000505772)
(0.098223 0.0157995 0.000361567)
(0.0926534 0.011409 -0.000199534)
(0.0871492 0.0077572 -0.0012144)
(0.0825013 0.00509331 -0.00265322)
(0.0784644 0.00344566 -0.00450831)
(0.0747744 0.00254869 -0.006804)
(0.0708929 0.00215316 -0.00963144)
(0.0665383 0.00202826 -0.0130972)
(0.0610104 0.00201899 -0.0174239)
(0.0542955 0.00191309 -0.0226349)
(0.0450091 0.00164971 -0.0290513)
(0.0337923 0.000600689 -0.0350681)
(0.0184107 -0.000835217 -0.0386949)
(0.00278352 -0.00402311 -0.0240594)
(0.103931 0.0123866 0.000324289)
(0.108001 0.0174448 0.000596475)
(0.11031 0.0173924 0.000472413)
(0.110015 0.0145454 -0.000104753)
(0.108293 0.0113303 -0.00118302)
(0.105783 0.00855053 -0.00274844)
(0.102751 0.00662283 -0.00480319)
(0.0992774 0.00552694 -0.00737986)
(0.0950997 0.00512347 -0.0105758)
(0.0900309 0.00520342 -0.0145166)
(0.0833511 0.00559375 -0.0194392)
(0.0749159 0.00602581 -0.0254131)
(0.0630334 0.00637534 -0.0327478)
(0.0481559 0.00573369 -0.0397914)
(0.0271563 0.00386828 -0.0439994)
(0.00512945 -0.001649 -0.0272004)
(0.10209 0.00799423 0.000353381)
(0.106549 0.0136596 0.000660243)
(0.111101 0.0152224 0.000560241)
(0.113601 0.0142014 -4.0961e-07)
(0.114485 0.0122378 -0.00106408)
(0.113959 0.0102462 -0.00261775)
(0.112302 0.00879541 -0.00466694)
(0.109678 0.00806469 -0.00724922)
(0.105965 0.0080684 -0.0104629)
(0.101063 0.00871001 -0.0144409)
(0.0942615 0.00990456 -0.0194187)
(0.0853795 0.0114334 -0.0254958)
(0.0724899 0.0132052 -0.032972)
(0.0559398 0.0140952 -0.0402639)
(0.0319755 0.013031 -0.0446986)
(0.00606892 0.00476293 -0.0276621)
(0.101042 0.00518682 0.000383)
(0.104598 0.0100754 0.000726592)
(0.109138 0.0122651 0.000659553)
(0.112557 0.0125083 0.000130638)
(0.11475 0.0117481 -0.000894105)
(0.115547 0.0107409 -0.0023953)
(0.115065 0.0100381 -0.00437427)
(0.113413 0.0099206 -0.00686655)
(0.110488 0.0105233 -0.00996451)
(0.10624 0.01187 -0.0138011)
(0.099957 0.0139889 -0.0185989)
(0.0914787 0.0167521 -0.0244818)
(0.0786278 0.020152 -0.0317289)
(0.0617066 0.0228424 -0.0389006)
(0.0359785 0.0229739 -0.0433144)
(0.00696315 0.011167 -0.026803)
(0.100562 0.00344668 0.000413192)
(0.103283 0.00718106 0.000797152)
(0.107272 0.00934702 0.000772071)
(0.110838 0.0102676 0.000287391)
(0.113624 0.0104144 -0.000683653)
(0.11525 0.0103159 -0.00211339)
(0.115668 0.0104209 -0.00399514)
(0.1149 0.0110344 -0.00635761)
(0.112819 0.0123712 -0.009282)
(0.109394 0.0145806 -0.012896)
(0.1039 0.0178458 -0.0174016)
(0.0962194 0.0222513 -0.0229449)
(0.0839068 0.0280584 -0.0297712)
(0.0673234 0.0340018 -0.0366454)
(0.0404035 0.0378639 -0.0409222)
(0.00865017 0.0231956 -0.0254246)
(0.100381 0.00223496 0.000446501)
(0.102617 0.00485925 0.000875636)
(0.106174 0.0067185 0.000900986)
(0.109711 0.00791938 0.000472182)
(0.112808 0.00867354 -0.000431499)
(0.114995 0.00930278 -0.0017735)
(0.116131 0.010129 -0.00353631)
(0.116186 0.0114301 -0.00573634)
(0.115033 0.0134522 -0.00843593)
(0.112694 0.0164365 -0.011747)
(0.108504 0.0206818 -0.0158332)
(0.102512 0.0264818 -0.0208465)
(0.0921138 0.0343138 -0.0269566)
(0.0780193 0.0431235 -0.0332006)
(0.0513813 0.0504928 -0.0369813)
(0.0180324 0.032835 -0.0231517)
(0.100323 0.00124686 0.00048189)
(0.102371 0.0028204 0.000959534)
(0.105764 0.00422687 0.00104048)
(0.109345 0.00547469 0.000675223)
(0.112688 0.00662654 -0.000151872)
(0.115301 0.00782684 -0.00139629)
(0.117009 0.00926842 -0.00302884)
(0.117767 0.0111767 -0.0050514)
(0.117469 0.0138042 -0.00750472)
(0.116191 0.0174826 -0.0104804)
(0.113345 0.0226475 -0.0140991)
(0.109141 0.0300006 -0.0185112)
(0.100902 0.0405293 -0.0238058)
(0.0899333 0.0551472 -0.0293301)
(0.0646101 0.0729681 -0.0326414)
(0.0336652 0.0720788 -0.0212977)
(0.0876458 0.017333 9.58173e-05)
(0.0714179 0.0119639 0.000148374)
(0.0548417 0.00770358 4.1391e-06)
(0.0447138 0.00395292 -0.000331984)
(0.0378896 0.00189659 -0.000857984)
(0.0337067 0.00082445 -0.00154568)
(0.0308133 0.000348581 -0.00239642)
(0.0285719 0.0001454 -0.00342079)
(0.0263809 5.93803e-05 -0.00465989)
(0.0240448 -8.23338e-06 -0.00612764)
(0.0211532 -9.15618e-05 -0.00790656)
(0.0178603 -0.000268141 -0.00987926)
(0.0135793 -0.000494118 -0.0121838)
(0.00888827 -0.0010134 -0.0138491)
(0.00359716 -0.00138869 -0.0144326)
(-0.00138288 -0.0024308 -0.008479)
(0.103839 0.0183113 0.000137531)
(0.102611 0.0186055 0.000224261)
(0.0978441 0.0158455 3.52234e-05)
(0.0920032 0.011458 -0.000473775)
(0.0861898 0.00780697 -0.00133713)
(0.0812112 0.00514781 -0.00253815)
(0.0768142 0.00351367 -0.00407756)
(0.0727165 0.00263909 -0.00597366)
(0.0683671 0.00227623 -0.00829105)
(0.063453 0.00219489 -0.0110804)
(0.0573257 0.00224903 -0.0144712)
(0.049921 0.00223543 -0.0183627)
(0.040211 0.0021134 -0.0228518)
(0.0286968 0.00128989 -0.02645)
(0.0145607 3.1128e-05 -0.0273111)
(0.00124312 -0.00295708 -0.0153517)
(0.103908 0.0124115 0.000166096)
(0.107846 0.0175012 0.000276723)
(0.109919 0.017476 8.95248e-05)
(0.10933 0.0146468 -0.000445689)
(0.107261 0.0114454 -0.00137193)
(0.104366 0.00868286 -0.00268538)
(0.100909 0.00678485 -0.00439576)
(0.0969529 0.00573472 -0.00652984)
(0.0922206 0.00539753 -0.00915842)
(0.0864924 0.00556442 -0.0123482)
(0.0790912 0.00607343 -0.0162368)
(0.0698324 0.00665416 -0.0207529)
(0.0573805 0.00720376 -0.0259613)
(0.0420974 0.00678718 -0.0302816)
(0.0224201 0.00507928 -0.0313336)
(0.00311779 -0.000543966 -0.0174047)
(0.102069 0.00802231 0.000189469)
(0.106399 0.0137251 0.000323653)
(0.110722 0.0153259 0.00015141)
(0.112932 0.0143377 -0.000373634)
(0.113472 0.0124048 -0.00128982)
(0.11256 0.0104494 -0.00259457)
(0.110473 0.00905055 -0.00430081)
(0.107361 0.00839412 -0.00644008)
(0.103084 0.00850235 -0.00908441)
(0.0975137 0.00928048 -0.0123075)
(0.0899742 0.010657 -0.0162444)
(0.0802497 0.0124025 -0.0208461)
(0.0667515 0.0144485 -0.0261603)
(0.0497589 0.0155778 -0.0306388)
(0.0270843 0.0146343 -0.0317526)
(0.0039757 0.00587438 -0.0175179)
(0.101022 0.00521717 0.000216002)
(0.104454 0.0101473 0.000380341)
(0.108771 0.0123829 0.000234928)
(0.11191 0.0126717 -0.000263406)
(0.113774 0.0119585 -0.00114583)
(0.114205 0.0110065 -0.00240528)
(0.113314 0.010378 -0.00405145)
(0.111197 0.0103629 -0.00611455)
(0.107738 0.0111077 -0.00866188)
(0.102857 0.0126406 -0.0117678)
(0.0958704 0.0150072 -0.0155573)
(0.0865904 0.0180628 -0.0200013)
(0.0731441 0.0218287 -0.0251288)
(0.0557901 0.0248058 -0.0294972)
(0.0312695 0.0250735 -0.0305624)
(0.0049692 0.0124552 -0.01672)
(0.100543 0.00347846 0.000243763)
(0.103143 0.0072573 0.000443486)
(0.106916 0.00947471 0.000334428)
(0.110214 0.0104507 -0.000125248)
(0.11269 0.0106581 -0.000960451)
(0.113972 0.0106319 -0.00215799)
(0.114012 0.0108321 -0.00372094)
(0.112817 0.0115751 -0.0056742)
(0.110246 0.0130909 -0.0080761)
(0.106242 0.0155378 -0.0109979)
(0.100101 0.0191235 -0.0145488)
(0.0916879 0.0239154 -0.0187203)
(0.0788163 0.0302177 -0.0235185)
(0.0618395 0.0365587 -0.0276606)
(0.0360233 0.040676 -0.0286518)
(0.00681376 0.0249276 -0.015619)
(0.100363 0.00226858 0.000274119)
(0.102482 0.00493991 0.000514006)
(0.10583 0.0068544 0.000449236)
(0.109113 0.0081173 3.86226e-05)
(0.111919 0.0089421 -0.000737828)
(0.11379 0.00965667 -0.00186)
(0.114585 0.0105944 -0.00332201)
(0.11426 0.0120463 -0.00513946)
(0.112674 0.0142769 -0.00735637)
(0.109834 0.0175407 -0.0100344)
(0.105082 0.0221672 -0.013257)
(0.0984704 0.0284369 -0.0170306)
(0.0875876 0.0368825 -0.0213214)
(0.0731957 0.0462116 -0.0250721)
(0.0475053 0.0539858 -0.0258987)
(0.0164101 0.0350652 -0.0142094)
(0.100306 0.00128181 0.000305782)
(0.102241 0.00290396 0.000588604)
(0.105434 0.00436787 0.000572668)
(0.108775 0.00568145 0.000217718)
(0.111848 0.00690986 -0.000492252)
(0.114174 0.00820392 -0.00153082)
(0.115578 0.00976768 -0.00288243)
(0.116007 0.0118413 -0.00455157)
(0.11534 0.0146977 -0.00656594)
(0.113645 0.018687 -0.00897444)
(0.110335 0.0242808 -0.0118321)
(0.10564 0.0321787 -0.0151567)
(0.0970128 0.0434345 -0.0188751)
(0.0858795 0.0587089 -0.0221895)
(0.0613741 0.0771554 -0.0229285)
(0.0324068 0.0747927 -0.0131529)
(0.0876316 0.0173352 3.5653e-05)
(0.0713353 0.0119716 4.08461e-05)
(0.0546415 0.00771125 -9.23838e-05)
(0.0443879 0.00395734 -0.000365604)
(0.0374301 0.00189863 -0.000780302)
(0.0331111 0.000826064 -0.00131867)
(0.030071 0.000351603 -0.0019837)
(0.027662 0.000150468 -0.00278189)
(0.0252834 6.7057e-05 -0.00374159)
(0.0227237 3.23251e-06 -0.00486234)
(0.0196192 -7.25619e-05 -0.00619594)
(0.0160834 -0.000229981 -0.00762935)
(0.0117372 -0.000420759 -0.00923688)
(0.00703599 -0.000849434 -0.0102993)
(0.0023831 -0.00117074 -0.0104279)
(-0.0015545 -0.00208067 -0.00615401)
(0.103819 0.0183232 5.16504e-05)
(0.102493 0.0186336 5.98678e-05)
(0.0975501 0.015884 -0.000132173)
(0.0914916 0.0114993 -0.000561389)
(0.085424 0.0078493 -0.00125578)
(0.080168 0.00519412 -0.00220658)
(0.0754667 0.00357088 -0.0034181)
(0.071026 0.00271432 -0.0049042)
(0.0662902 0.00237777 -0.00671084)
(0.0609248 0.00233133 -0.00886131)
(0.0543335 0.00243576 -0.0114342)
(0.0464266 0.00249416 -0.0143112)
(0.0364647 0.00248 -0.0175074)
(0.024901 0.00181895 -0.0198797)
(0.0118838 0.000682464 -0.0199651)
(0.000466068 -0.00228083 -0.0111401)
(0.10389 0.012433 6.93391e-05)
(0.107727 0.0175492 8.73829e-05)
(0.109617 0.0175473 -0.000112328)
(0.108792 0.0147336 -0.000570142)
(0.106438 0.0115444 -0.00132064)
(0.103222 0.00879686 -0.00236488)
(0.099406 0.0069238 -0.00371464)
(0.0950442 0.00591184 -0.00539132)
(0.0898525 0.00563001 -0.0074463)
(0.0835908 0.00586966 -0.00991567)
(0.0756272 0.00647805 -0.0128824)
(0.0657636 0.00718321 -0.0162472)
(0.0529566 0.00790019 -0.0199903)
(0.0375733 0.0076666 -0.0228797)
(0.0191135 0.00608084 -0.0230112)
(0.00207922 0.00028282 -0.0126486)
(0.102053 0.00804709 8.71464e-05)
(0.106285 0.013782 0.000120512)
(0.110428 0.0154155 -7.05858e-05)
(0.112407 0.0144555 -0.000522605)
(0.112665 0.0125492 -0.00126665)
(0.111432 0.0106247 -0.00230494)
(0.108982 0.00926947 -0.00365209)
(0.105458 0.008675 -0.00533366)
(0.100714 0.00887024 -0.00740247)
(0.0946009 0.00976172 -0.00990072)
(0.0864827 0.0112887 -0.0129096)
(0.0761352 0.0132128 -0.0163469)
(0.0622475 0.0154835 -0.0201773)
(0.045128 0.0168084 -0.0231873)
(0.0236527 0.0159665 -0.0233417)
(0.00288972 0.00677687 -0.0127277)
(0.101007 0.00524411 0.000109086)
(0.104345 0.0102102 0.000165867)
(0.108489 0.0124853 -4.54589e-06)
(0.111405 0.0128132 -0.000435382)
(0.112999 0.0121402 -0.00115218)
(0.113123 0.0112351 -0.00215389)
(0.111887 0.010669 -0.00345287)
(0.109379 0.0107394 -0.00507396)
(0.105475 0.0116023 -0.0070665)
(0.100079 0.0132891 -0.00947398)
(0.0925389 0.0158594 -0.0123703)
(0.0826641 0.0191539 -0.0156898)
(0.0688322 0.0232158 -0.0193846)
(0.0513515 0.0264268 -0.0223195)
(0.0279632 0.0268133 -0.0224485)
(0.00395679 0.0135593 -0.0121393)
(0.100529 0.00350655 0.000132491)
(0.103038 0.00732397 0.000218169)
(0.106644 0.00958547 7.72489e-05)
(0.109729 0.0106087 -0.000322026)
(0.11195 0.0108677 -0.00100025)
(0.112946 0.0109026 -0.00195169)
(0.112665 0.0111826 -0.00318375)
(0.11111 0.0120334 -0.00471731)
(0.108129 0.0136975 -0.00659492)
(0.103654 0.0163395 -0.0088583)
(0.097003 0.0201859 -0.0115703)
(0.0880468 0.0252885 -0.0146824)
(0.0748131 0.0319818 -0.0181331)
(0.0577298 0.0386364 -0.0209081)
(0.0329567 0.0429544 -0.0210105)
(0.0059143 0.0264115 -0.011324)
(0.10035 0.00229794 0.000157989)
(0.102381 0.00500982 0.000276848)
(0.105569 0.00697144 0.000172204)
(0.108649 0.00828713 -0.000186986)
(0.111217 0.00917183 -0.00081731)
(0.112825 0.00995838 -0.00170788)
(0.113329 0.0109896 -0.00285926)
(0.112682 0.0125673 -0.00428545)
(0.110734 0.0149706 -0.00601848)
(0.107482 0.0184639 -0.00809411)
(0.102286 0.0234002 -0.0105579)
(0.0952119 0.0300473 -0.0133765)
(0.0840139 0.0389761 -0.0164674)
(0.0695654 0.048716 -0.0189852)
(0.0447877 0.056807 -0.0190446)
(0.0156418 0.0370015 -0.0103558)
(0.100293 0.00131188 0.000184298)
(0.102143 0.00297557 0.00033856)
(0.105184 0.00448827 0.000273954)
(0.108335 0.00585769 -3.97965e-05)
(0.111187 0.00715083 -0.000616024)
(0.113274 0.00852383 -0.00143919)
(0.114419 0.0101901 -0.00250232)
(0.114567 0.0124015 -0.00381113)
(0.11359 0.0154475 -0.00538558)
(0.111551 0.0196918 -0.00725309)
(0.107872 0.0256334 -0.00943999)
(0.102814 0.0339672 -0.0119252)
(0.0939406 0.0457922 -0.0146072)
(0.0828295 0.0615849 -0.0168336)
(0.059119 0.0805199 -0.0169125)
(0.0318724 0.0772436 -0.00961304)
(0.0876214 0.0173368 5.37026e-06)
(0.071276 0.0119775 -9.50883e-06)
(0.0544968 0.00771707 -0.000115845)
(0.0441505 0.00396086 -0.000317211)
(0.0370939 0.0019005 -0.00061562)
(0.0326753 0.000827897 -0.000999882)
(0.0295316 0.00035506 -0.00147215)
(0.0270108 0.000156528 -0.00203475)
(0.024518 7.69245e-05 -0.00270354)
(0.0218365 1.90405e-05 -0.00346899)
(0.0186423 -4.61642e-05 -0.0043554)
(0.0150297 -0.000182196 -0.00526696)
(0.0107434 -0.000336519 -0.00622894)
(0.0061629 -0.000693447 -0.00676117)
(0.00188699 -0.000952749 -0.00656747)
(-0.00150128 -0.00180426 -0.00371508)
(0.103805 0.0183325 8.24008e-06)
(0.102408 0.0186554 -1.67486e-05)
(0.0973368 0.0159138 -0.000177781)
(0.0911173 0.0115317 -0.000502105)
(0.0848606 0.0078829 -0.00100961)
(0.0793984 0.00523126 -0.00169527)
(0.0744753 0.00361707 -0.00256272)
(0.0697932 0.00277555 -0.00361974)
(0.0648011 0.00246136 -0.00489359)
(0.0591586 0.00244554 -0.00638802)
(0.0523181 0.00259504 -0.00813939)
(0.044188 0.00271899 -0.0100367)
(0.0342115 0.0028034 -0.012046)
(0.0228253 0.00228243 -0.0133778)
(0.0105547 0.00126566 -0.0129815)
(0.000275146 -0.0017289 -0.00696334)
(0.103876 0.0124501 1.84929e-05)
(0.107641 0.0175869 -4.09682e-06)
(0.109397 0.0176031 -0.000175465)
(0.108397 0.0148018 -0.000524669)
(0.105831 0.0116225 -0.00107627)
(0.102376 0.00888702 -0.00183212)
(0.098297 0.00703366 -0.00280145)
(0.0936455 0.00605185 -0.00399781)
(0.0881422 0.00581406 -0.00545264)
(0.0815425 0.00611249 -0.00717876)
(0.0732605 0.00680245 -0.00921441)
(0.0631071 0.00761272 -0.0114591)
(0.0502293 0.00847412 -0.0138481)
(0.0350188 0.00840424 -0.0155167)
(0.0174129 0.00694275 -0.01509)
(0.0017766 0.000977499 -0.00796061)
(0.102041 0.0080669 3.09687e-05)
(0.106203 0.0138272 1.77297e-05)
(0.110216 0.0154862 -0.000149136)
(0.112023 0.0145485 -0.000495411)
(0.112071 0.0126631 -0.00104322)
(0.110598 0.0107627 -0.00179542)
(0.107882 0.00944119 -0.00276345)
(0.104064 0.00889433 -0.00396411)
(0.0990013 0.00915636 -0.00543013)
(0.0925431 0.0101351 -0.00717897)
(0.0840948 0.0117783 -0.00924764)
(0.0734468 0.013842 -0.0115471)
(0.0594702 0.0162905 -0.0139998)
(0.0425168 0.0177787 -0.0157485)
(0.0218942 0.0170364 -0.0153179)
(0.00258365 0.00751587 -0.00799255)
(0.100996 0.00526572 4.72783e-05)
(0.104266 0.0102604 5.06974e-05)
(0.108285 0.0125664 -0.000101571)
(0.111037 0.0129248 -0.000432571)
(0.112431 0.0122832 -0.00096046)
(0.112326 0.0114143 -0.00168591)
(0.110836 0.0108957 -0.00261897)
(0.108049 0.0110307 -0.00377608)
(0.103843 0.0119823 -0.00518772)
(0.0981211 0.0137839 -0.0068726)
(0.0902689 0.0165048 -0.00886304)
(0.0801135 0.0199751 -0.0110818)
(0.0661972 0.0242532 -0.0134433)
(0.048885 0.0276396 -0.0151427)
(0.0263049 0.0281187 -0.0146976)
(0.0037137 0.014406 -0.00758337)
(0.100518 0.00352902 6.49137e-05)
(0.102962 0.00737695 8.96578e-05)
(0.106448 0.00967302 -4.09792e-05)
(0.109376 0.010733 -0.0003487)
(0.111408 0.011032 -0.000848114)
(0.11219 0.0111136 -0.00153667)
(0.111675 0.0114539 -0.00242101)
(0.109862 0.0123851 -0.00351493)
(0.106605 0.0141583 -0.00484428)
(0.101835 0.0169414 -0.00642698)
(0.0949019 0.0209727 -0.00828832)
(0.0856992 0.0262902 -0.0103638)
(0.0723955 0.0332452 -0.0125609)
(0.0554902 0.0401026 -0.0141571)
(0.0314637 0.0445298 -0.0137122)
(0.00575088 0.027437 -0.00703443)
(0.10034 0.00232123 8.40954e-05)
(0.102308 0.00506505 0.000133532)
(0.105381 0.00706354 2.97396e-05)
(0.108313 0.00842019 -0.00024837)
(0.110704 0.00935102 -0.000712551)
(0.112116 0.0101923 -0.00135666)
(0.112406 0.0112938 -0.00218262)
(0.11153 0.0129643 -0.00319968)
(0.109338 0.0154929 -0.00442676)
(0.10583 0.019149 -0.00587862)
(0.100391 0.0242989 -0.0075704)
(0.0931165 0.0311968 -0.00945022)
(0.0818687 0.0404313 -0.0114176)
(0.067611 0.050414 -0.0128641)
(0.0434956 0.0586523 -0.0124444)
(0.0155498 0.0382545 -0.0064511)
(0.100284 0.00133548 0.000103758)
(0.102074 0.00303171 0.000179519)
(0.105005 0.00458242 0.000105407)
(0.108016 0.00599502 -0.000139141)
(0.110704 0.00733783 -0.000563607)
(0.112613 0.00877065 -0.00115859)
(0.113568 0.0105135 -0.0019208)
(0.113515 0.0128259 -0.00285395)
(0.112329 0.0160078 -0.00396903)
(0.110078 0.0204298 -0.00527619)
(0.106203 0.0266049 -0.00677939)
(0.100998 0.0352169 -0.00843807)
(0.0921052 0.0473819 -0.0101465)
(0.0812079 0.0634525 -0.0114268)
(0.0580832 0.0825803 -0.0110887)
(0.0318894 0.0787295 -0.00603343)
(0.0876145 0.0173379 -4.57024e-06)
(0.0712369 0.0119814 -2.16504e-05)
(0.0544012 0.00772082 -8.94354e-05)
(0.0439927 0.00396304 -0.000213484)
(0.0368689 0.00190144 -0.000393807)
(0.032382 0.000828636 -0.000625086)
(0.0291668 0.000356602 -0.000908557)
(0.0265691 0.000159385 -0.00124528)
(0.0239986 8.16401e-05 -0.00164385)
(0.0212353 2.65998e-05 -0.00209653)
(0.0179823 -3.34072e-05 -0.00261539)
(0.0143237 -0.00015847 -0.00314114)
(0.0100815 -0.000293994 -0.00368332)
(0.005595 -0.000614263 -0.00396886)
(0.00157293 -0.000845222 -0.00381458)
(-0.00147564 -0.00167058 -0.00216763)
(0.103795 0.0183388 -6.68702e-06)
(0.102352 0.0186702 -3.38907e-05)
(0.0971958 0.0159339 -0.00014014)
(0.0908684 0.0115538 -0.00034248)
(0.0844839 0.00790579 -0.000652318)
(0.078881 0.00525652 -0.00106753)
(0.073806 0.00364836 -0.00159062)
(0.0689593 0.00281688 -0.0022261)
(0.0637938 0.00251764 -0.00298924)
(0.057967 0.00252221 -0.00387923)
(0.0509654 0.00270152 -0.00491337)
(0.0427009 0.00286823 -0.00602001)
(0.0327329 0.00301588 -0.00716829)
(0.0214985 0.00258034 -0.00789795)
(0.00973315 0.00162995 -0.0075784)
(0.000172067 -0.00140547 -0.00405929)
(0.103868 0.0124618 -1.26784e-06)
(0.107584 0.0176128 -2.90592e-05)
(0.109252 0.0176412 -0.000143712)
(0.108135 0.0148487 -0.000362601)
(0.105426 0.0116763 -0.000700588)
(0.101808 0.00894914 -0.00115932)
(0.0975482 0.00710929 -0.00174487)
(0.092699 0.0061481 -0.00246533)
(0.0869844 0.00594047 -0.00333866)
(0.0801588 0.00627913 -0.00436949)
(0.0716691 0.00702478 -0.00557606)
(0.0613378 0.00790646 -0.00689202)
(0.0484346 0.00886499 -0.00826679)
(0.0333791 0.00890198 -0.0091911)
(0.0163575 0.00751606 -0.00883789)
(0.00160573 0.00141706 -0.00464669)
(0.102034 0.00808067 6.0378e-06)
(0.106149 0.0138584 -1.66148e-05)
(0.110076 0.0155349 -0.000129283)
(0.111768 0.0146126 -0.000346864)
(0.111674 0.0127418 -0.000682944)
(0.110038 0.0108581 -0.0011397)
(0.10714 0.00955963 -0.00172471)
(0.10312 0.00904531 -0.00244805)
(0.0978412 0.00935293 -0.00332859)
(0.0911517 0.0103911 -0.00437392)
(0.0824871 0.0121133 -0.00560166)
(0.0716528 0.0142715 -0.00695224)
(0.0576379 0.0168394 -0.00836743)
(0.0408353 0.0184357 -0.00934059)
(0.020799 0.0177554 -0.00898255)
(0.00241073 0.00800217 -0.00466876)
(0.100989 0.00528081 1.60782e-05)
(0.104215 0.0102952 3.3567e-06)
(0.10815 0.0126225 -0.000100647)
(0.110793 0.0130021 -0.000309009)
(0.112051 0.0123821 -0.000632954)
(0.11179 0.011538 -0.00107339)
(0.110127 0.0110521 -0.00163715)
(0.107149 0.0112313 -0.00233416)
(0.102737 0.0122433 -0.00318203)
(0.0967966 0.0141229 -0.00418923)
(0.0887393 0.0169459 -0.0053709)
(0.0784096 0.0205349 -0.0066746)
(0.0644563 0.0249576 -0.00803814)
(0.0472943 0.028461 -0.00898496)
(0.0252707 0.0289993 -0.00862319)
(0.00357851 0.0149763 -0.00443508)
(0.100512 0.00354472 2.70206e-05)
(0.102913 0.00741379 2.73675e-05)
(0.106319 0.0097337 -6.33918e-05)
(0.109142 0.010819 -0.000257505)
(0.111046 0.0111455 -0.000563986)
(0.111683 0.0112593 -0.000981855)
(0.111007 0.0116408 -0.00151595)
(0.109019 0.0126269 -0.00217465)
(0.105573 0.0144742 -0.00297287)
(0.100605 0.0173529 -0.00391867)
(0.0934859 0.0215086 -0.00502333)
(0.0841305 0.0269701 -0.00624195)
(0.070798 0.0340981 -0.00750955)
(0.0540468 0.0410894 -0.00839719)
(0.0305344 0.0455854 -0.00804153)
(0.00566601 0.0281312 -0.00411316)
(0.100334 0.00233743 3.89178e-05)
(0.102261 0.00510335 5.44627e-05)
(0.105257 0.00712727 -1.98044e-05)