/*--------------------------------*- C++ -*----------------------------------*\
| =========                 |                                                 |
| \\      /  F ield         | OpenFOAM: The Open Source CFD Toolbox           |
|  \\    /   O peration     | Version:  v1912                                 |
|   \\  /    A nd           | Website:  www.openfoam.com                      |
|    \\/     M anipulation  |                                                 |
\*---------------------------------------------------------------------------*/
FoamFile
{
    version     2.0;
    format      ascii;
    class       volVectorField;
    location    "0.6/fluid";
    object      cellMotionU;
}
// * * * * * * * * * * * * * * * * * * * * * * * * * * * * * * * * * * * * * //

dimensions      [0 1 -1 0 0 0 0];


internalField   nonuniform List<vector> 
14592
(
(1.51046e-10 -3.35244e-10 2.54946e-10)
(4.21577e-10 -9.37414e-10 7.21743e-10)
(6.71631e-10 -1.49729e-09 1.18133e-09)
(9.105e-10 -2.03456e-09 1.66389e-09)
(1.14809e-09 -2.56386e-09 2.19854e-09)
(1.39311e-09 -3.09052e-09 2.81134e-09)
(1.656e-09 -3.61162e-09 3.52856e-09)
(1.95008e-09 -4.11126e-09 4.37601e-09)
(2.29512e-09 -4.55509e-09 5.38022e-09)
(2.72391e-09 -4.87535e-09 6.56733e-09)
(3.30078e-09 -4.94694e-09 7.96962e-09)
(4.16588e-09 -4.52358e-09 9.64383e-09)
(5.64661e-09 -3.07147e-09 1.17416e-08)
(8.58335e-09 7.4932e-10 1.47417e-08)
(1.49093e-08 1.02904e-08 1.99258e-08)
(2.61194e-08 2.93846e-08 2.82504e-08)
(4.49505e-10 -9.95494e-10 7.5795e-10)
(1.25474e-09 -2.78412e-09 2.14583e-09)
(1.99802e-09 -4.44789e-09 3.51083e-09)
(2.70862e-09 -6.04777e-09 4.94497e-09)
(3.41267e-09 -7.62431e-09 6.53041e-09)
(4.13726e-09 -9.19803e-09 8.34623e-09)
(4.91213e-09 -1.07629e-08 1.04688e-08)
(5.77453e-09 -1.22789e-08 1.29741e-08)
(6.77606e-09 -1.36531e-08 1.59354e-08)
(7.99867e-09 -1.47112e-08 1.9423e-08)
(9.58789e-09 -1.51434e-08 2.35032e-08)
(1.18188e-08 -1.44163e-08 2.82507e-08)
(1.52606e-08 -1.1596e-08 3.38063e-08)
(2.09604e-08 -5.14131e-09 4.04591e-08)
(3.03974e-08 6.90763e-09 4.86418e-08)
(4.24015e-08 2.26993e-08 5.72356e-08)
(7.37951e-10 -1.6264e-09 1.24203e-09)
(2.05946e-09 -4.5499e-09 3.51554e-09)
(3.27879e-09 -7.27393e-09 5.75083e-09)
(4.44154e-09 -9.89824e-09 8.09551e-09)
(5.59118e-09 -1.24951e-08 1.0685e-08)
(6.77039e-09 -1.51039e-08 1.36471e-08)
(8.02577e-09 -1.77264e-08 1.71063e-08)
(9.41251e-09 -2.03147e-08 2.1185e-08)
(1.10026e-08 -2.27511e-08 2.60018e-08)
(1.2898e-08 -2.48123e-08 3.16641e-08)
(1.52571e-08 -2.61207e-08 3.82582e-08)
(1.83467e-08 -2.60809e-08 4.58386e-08)
(2.26357e-08 -2.38335e-08 5.44298e-08)
(2.88939e-08 -1.83865e-08 6.40563e-08)
(3.80454e-08 -9.40759e-09 7.47464e-08)
(4.88665e-08 -4.28868e-11 8.52921e-08)
(1.01004e-09 -2.20802e-09 1.69538e-09)
(2.81801e-09 -6.1797e-09 4.79753e-09)
(4.48396e-09 -9.88728e-09 7.84423e-09)
(6.06927e-09 -1.3472e-08 1.10354e-08)
(7.63085e-09 -1.70378e-08 1.45525e-08)
(9.22576e-09 -2.0651e-08 1.85686e-08)
(1.09142e-08 -2.43334e-08 2.32518e-08)
(1.27647e-08 -2.80522e-08 2.87685e-08)
(1.48594e-08 -3.17006e-08 3.52795e-08)
(1.73014e-08 -3.50679e-08 4.2931e-08)
(2.02219e-08 -3.77983e-08 5.18324e-08)
(2.3796e-08 -3.93475e-08 6.2021e-08)
(2.82652e-08 -3.89793e-08 7.34152e-08)
(3.39471e-08 -3.59265e-08 8.5752e-08)
(4.11643e-08 -3.00153e-08 9.84839e-08)
(4.89709e-08 -2.34676e-08 1.09634e-07)
(1.26003e-09 -2.72054e-09 2.10762e-09)
(3.51449e-09 -7.61799e-09 5.9624e-09)
(5.58822e-09 -1.22004e-08 9.74263e-09)
(7.55496e-09 -1.66481e-08 1.36925e-08)
(9.48432e-09 -2.11012e-08 1.80349e-08)
(1.14444e-08 -2.56574e-08 2.29806e-08)
(1.35068e-08 -3.037e-08 2.87358e-08)
(1.57505e-08 -3.52408e-08 3.55053e-08)
(1.82661e-08 -4.02074e-08 4.34914e-08)
(2.11567e-08 -4.51201e-08 5.28841e-08)
(2.45324e-08 -4.97104e-08 6.3835e-08)
(2.84949e-08 -5.35432e-08 7.64108e-08)
(3.31177e-08 -5.59592e-08 9.05194e-08)
(3.83715e-08 -5.60403e-08 1.05747e-07)
(4.41106e-08 -5.27824e-08 1.21062e-07)
(4.95896e-08 -4.67924e-08 1.33484e-07)
(1.48351e-09 -3.145e-09 2.47071e-09)
(4.13578e-09 -8.81096e-09 6.98655e-09)
(6.5698e-09 -1.41255e-08 1.14061e-08)
(8.86977e-09 -1.93074e-08 1.60106e-08)
(1.11137e-08 -2.45302e-08 2.10543e-08)
(1.33789e-08 -2.99268e-08 2.67786e-08)
(1.57459e-08 -3.55885e-08 3.34192e-08)
(1.83035e-08 -4.1565e-08 4.12122e-08)
(2.11528e-08 -4.7859e-08 5.03957e-08)
(2.44104e-08 -5.44175e-08 6.12053e-08)
(2.81982e-08 -6.11127e-08 7.38517e-08)
(3.26472e-08 -6.77006e-08 8.85036e-08)
(3.78433e-08 -7.37189e-08 1.05198e-07)
(4.37592e-08 -7.82251e-08 1.23687e-07)
(5.00819e-08 -7.92886e-08 1.42901e-07)
(5.55329e-08 -7.48185e-08 1.58734e-07)
(1.67676e-09 -3.4633e-09 2.77867e-09)
(4.67202e-09 -9.70816e-09 7.85321e-09)
(7.4134e-09 -1.55815e-08 1.28074e-08)
(9.99131e-09 -2.1334e-08 1.79489e-08)
(1.24902e-08 -2.7171e-08 2.35553e-08)
(1.49928e-08 -3.32579e-08 2.98879e-08)
(1.75857e-08 -3.97247e-08 3.72014e-08)
(2.03648e-08 -4.66705e-08 4.5751e-08)
(2.34433e-08 -5.41689e-08 5.57984e-08)
(2.69579e-08 -6.22733e-08 6.76117e-08)
(3.10812e-08 -7.10245e-08 8.14663e-08)
(3.60407e-08 -8.04545e-08 9.7644e-08)
(4.21623e-08 -9.05665e-08 1.16442e-07)
(4.98887e-08 -1.01171e-07 1.381e-07)
(5.96289e-08 -1.11244e-07 1.62282e-07)
(6.96998e-08 -1.17281e-07 1.84357e-07)
(1.83765e-09 -3.66006e-09 3.02824e-09)
(5.1171e-09 -1.02662e-08 8.55335e-09)
(8.10918e-09 -1.64964e-08 1.39315e-08)
(1.09075e-08 -2.26267e-08 1.94876e-08)
(1.35982e-08 -2.88863e-08 2.5511e-08)
(1.62658e-08 -3.54673e-08 3.22724e-08)
(1.89983e-08 -4.25313e-08 4.00324e-08)
(2.18938e-08 -5.02178e-08 4.90498e-08)
(2.50698e-08 -5.86559e-08 5.95885e-08)
(2.86752e-08 -6.798e-08 7.19218e-08)
(3.29146e-08 -7.83569e-08 8.63435e-08)
(3.80986e-08 -9.00391e-08 1.03196e-07)
(4.47549e-08 -1.03466e-07 1.22947e-07)
(5.38497e-08 -1.19448e-07 1.46314e-07)
(6.70887e-08 -1.39246e-07 1.74241e-07)
(8.41238e-08 -1.61235e-07 2.03456e-07)
(1.51575e-10 -3.42374e-10 2.42119e-10)
(4.22891e-10 -9.57469e-10 6.85257e-10)
(6.72775e-10 -1.52964e-09 1.12039e-09)
(9.10552e-10 -2.07963e-09 1.57646e-09)
(1.14467e-09 -2.6219e-09 2.07926e-09)
(1.38318e-09 -3.16331e-09 2.65304e-09)
(1.63458e-09 -3.70195e-09 3.32068e-09)
(1.90902e-09 -4.22419e-09 4.10374e-09)
(2.22065e-09 -4.69962e-09 5.02171e-09)
(2.59259e-09 -5.07011e-09 6.08957e-09)
(3.0694e-09 -5.2323e-09 7.31575e-09)
(3.74651e-09 -4.99751e-09 8.70155e-09)
(4.84759e-09 -3.99432e-09 1.0254e-08)
(6.86974e-09 -1.42711e-09 1.20024e-08)
(1.07292e-08 4.26974e-09 1.395e-08)
(1.63376e-08 1.36202e-08 1.52538e-08)
(4.51173e-10 -1.01657e-09 7.19895e-10)
(1.25851e-09 -2.8432e-09 2.03685e-09)
(2.00195e-09 -4.54352e-09 3.33004e-09)
(2.70863e-09 -6.17972e-09 4.68413e-09)
(3.4033e-09 -7.79522e-09 6.17577e-09)
(4.10956e-09 -9.41248e-09 7.87618e-09)
(4.85182e-09 -1.10289e-08 9.85258e-09)
(5.65822e-09 -1.26097e-08 1.2168e-08)
(6.56506e-09 -1.40733e-08 1.48772e-08)
(7.62681e-09 -1.52689e-08 1.80187e-08)
(8.93691e-09 -1.59406e-08 2.15995e-08)
(1.06782e-08 -1.56752e-08 2.55749e-08)
(1.31911e-08 -1.38436e-08 2.97929e-08)
(1.70443e-08 -9.61941e-09 3.38824e-08)
(2.26675e-08 -2.57975e-09 3.68935e-08)
(2.83338e-08 4.5882e-09 3.70271e-08)
(7.40847e-10 -1.66061e-09 1.17959e-09)
(2.0663e-09 -4.64586e-09 3.33707e-09)
(3.28606e-09 -7.42867e-09 5.45425e-09)
(4.4439e-09 -1.01127e-08 7.66888e-09)
(5.5798e-09 -1.27728e-08 1.01055e-08)
(6.73173e-09 -1.54519e-08 1.28801e-08)
(7.93806e-09 -1.81562e-08 1.61022e-08)
(9.24055e-09 -2.08452e-08 1.98745e-08)
(1.06881e-08 -2.34155e-08 2.42868e-08)
(1.23424e-08 -2.56736e-08 2.94008e-08)
(1.42918e-08 -2.73065e-08 3.52241e-08)
(1.66734e-08 -2.78592e-08 4.16595e-08)
(1.97041e-08 -2.67831e-08 4.84176e-08)
(2.36529e-08 -2.37256e-08 5.48494e-08)
(2.84946e-08 -1.94296e-08 5.96803e-08)
(3.26339e-08 -1.70269e-08 6.11146e-08)
(1.01436e-09 -2.25418e-09 1.61009e-09)
(2.82873e-09 -6.30913e-09 4.5543e-09)
(4.49658e-09 -1.00963e-08 7.4402e-09)
(6.0768e-09 -1.37611e-08 1.04545e-08)
(7.6229e-09 -1.74121e-08 1.37648e-08)
(9.18565e-09 -2.11192e-08 1.75277e-08)
(1.08155e-08 -2.49087e-08 2.1892e-08)
(1.25648e-08 -2.87553e-08 2.69982e-08)
(1.44883e-08 -3.25654e-08 3.29709e-08)
(1.66416e-08 -3.6156e-08 3.99011e-08)
(1.90751e-08 -3.92285e-08 4.78087e-08)
(2.18202e-08 -4.1363e-08 5.65731e-08)
(2.48539e-08 -4.20863e-08 6.58097e-08)
(2.80137e-08 -4.11623e-08 7.46497e-08)
(3.08079e-08 -3.92967e-08 8.14272e-08)
(3.21858e-08 -3.87207e-08 8.3823e-08)
(1.26624e-09 -2.77719e-09 2.00188e-09)
(3.53005e-09 -7.77667e-09 5.6605e-09)
(5.60799e-09 -1.24563e-08 9.24165e-09)
(7.57166e-09 -1.70027e-08 1.29735e-08)
(9.48636e-09 -2.15598e-08 1.70614e-08)
(1.1414e-08 -2.62295e-08 2.16969e-08)
(1.3416e-08 -3.10692e-08 2.70628e-08)
(1.55544e-08 -3.60861e-08 3.33335e-08)
(1.78914e-08 -4.12272e-08 4.06692e-08)
(2.04806e-08 -4.63611e-08 4.9196e-08)
(2.3349e-08 -5.1257e-08 5.89679e-08)
(2.64537e-08 -5.55623e-08 6.98896e-08)
(2.95883e-08 -5.88017e-08 8.15594e-08)
(3.22416e-08 -6.04686e-08 9.29936e-08)
(3.34755e-08 -6.04135e-08 1.02149e-07)
(3.25426e-08 -5.98006e-08 1.05901e-07)
(1.49179e-09 -3.21016e-09 2.34707e-09)
(4.1571e-09 -8.99356e-09 6.6336e-09)
(6.59881e-09 -1.44203e-08 1.08212e-08)
(8.89874e-09 -1.97154e-08 1.51721e-08)
(1.11315e-08 -2.50575e-08 1.99215e-08)
(1.33683e-08 -3.05831e-08 2.52886e-08)
(1.568e-08 -3.63866e-08 3.14829e-08)
(1.814e-08 -4.25205e-08 3.87067e-08)
(2.08229e-08 -4.89912e-08 4.71509e-08)
(2.3799e-08 -5.57518e-08 5.69795e-08)
(2.71188e-08 -6.26872e-08 6.83007e-08)
(3.0762e-08 -6.95814e-08 8.10831e-08)
(3.45524e-08 -7.6046e-08 9.5032e-08)
(3.79389e-08 -8.13475e-08 1.09235e-07)
(3.97005e-08 -8.42057e-08 1.2151e-07)
(3.83948e-08 -8.35964e-08 1.27803e-07)
(1.68737e-09 -3.53486e-09 2.63998e-09)
(4.6998e-09 -9.9087e-09 7.45765e-09)
(7.45285e-09 -1.59052e-08 1.21526e-08)
(1.00354e-08 -2.17822e-08 1.70123e-08)
(1.25285e-08 -2.775e-08 2.2293e-08)
(1.50099e-08 -3.39773e-08 2.82325e-08)
(1.7558e-08 -4.05961e-08 3.50578e-08)
(2.0256e-08 -4.77057e-08 4.2988e-08)
(2.31948e-08 -5.53779e-08 5.22342e-08)
(2.64748e-08 -6.36612e-08 6.29901e-08)
(3.02041e-08 -7.25858e-08 7.5408e-08)
(3.44924e-08 -8.21627e-08 8.9554e-08)
(3.94171e-08 -9.23497e-08 1.05292e-07)
(4.49073e-08 -1.0288e-07 1.21974e-07)
(5.03184e-08 -1.12696e-07 1.37606e-07)
(5.34353e-08 -1.18768e-07 1.4723e-07)
(1.85058e-09 -3.73552e-09 2.87753e-09)
(5.15158e-09 -1.04777e-08 8.12393e-09)
(8.15988e-09 -1.68381e-08 1.32219e-08)
(1.09677e-08 -2.30999e-08 1.84746e-08)
(1.36591e-08 -2.94977e-08 2.41498e-08)
(1.63145e-08 -3.62264e-08 3.0494e-08)
(1.90158e-08 -4.34485e-08 3.77396e-08)
(2.18511e-08 -5.13019e-08 4.61093e-08)
(2.49214e-08 -5.99098e-08 5.5816e-08)
(2.83491e-08 -6.9394e-08 6.70583e-08)
(3.22913e-08 -7.98962e-08 8.00041e-08)
(3.69679e-08 -9.1615e-08 9.47642e-08)
(4.27078e-08 -1.0487e-07 1.1132e-07)
(5.00202e-08 -1.20173e-07 1.29303e-07)
(5.94227e-08 -1.37987e-07 1.47165e-07)
(6.9368e-08 -1.5575e-07 1.59758e-07)
(1.51463e-10 -3.48538e-10 2.20611e-10)
(4.22204e-10 -9.7477e-10 6.24004e-10)
(6.70739e-10 -1.55767e-09 1.01967e-09)
(9.05418e-10 -2.11845e-09 1.43284e-09)
(1.13381e-09 -2.67227e-09 1.88664e-09)
(1.36234e-09 -3.227e-09 2.40176e-09)
(1.59683e-09 -3.78186e-09 2.99675e-09)
(1.84325e-09 -4.3269e-09 3.68827e-09)
(2.10786e-09 -4.83659e-09 4.48741e-09)
(2.39999e-09 -5.26727e-09 5.39742e-09)
(2.73662e-09 -5.54414e-09 6.40384e-09)
(3.15669e-09 -5.54847e-09 7.46317e-09)
(3.74151e-09 -5.08443e-09 8.47238e-09)
(4.65692e-09 -3.80422e-09 9.22011e-09)
(6.09593e-09 -1.13693e-09 9.23659e-09)
(7.63386e-09 2.90969e-09 7.73429e-09)
(4.50859e-10 -1.03474e-09 6.55844e-10)
(1.25679e-09 -2.89431e-09 1.85506e-09)
(1.99614e-09 -4.62607e-09 3.03029e-09)
(2.69412e-09 -6.29403e-09 4.25747e-09)
(3.37241e-09 -7.94349e-09 5.60382e-09)
(4.05004e-09 -9.5992e-09 7.13038e-09)
(4.74416e-09 -1.1263e-08 8.89263e-09)
(5.47033e-09 -1.29067e-08 1.09375e-08)
(6.24415e-09 -1.44654e-08 1.32987e-08)
(7.08214e-09 -1.58201e-08 1.59805e-08)
(8.01026e-09 -1.67854e-08 1.8935e-08)
(9.07148e-09 -1.70986e-08 2.20091e-08)
(1.03463e-08 -1.64384e-08 2.48599e-08)
(1.18945e-08 -1.45517e-08 2.67628e-08)
(1.34896e-08 -1.16779e-08 2.64107e-08)
(1.40935e-08 -9.4616e-09 2.28553e-08)
(7.4059e-10 -1.69009e-09 1.07468e-09)
(2.06423e-09 -4.72865e-09 3.03936e-09)
(3.27809e-09 -7.56239e-09 4.96358e-09)
(4.42281e-09 -1.02976e-08 6.97082e-09)
(5.53382e-09 -1.3012e-08 9.17046e-09)
(6.64212e-09 -1.57519e-08 1.16621e-08)
(7.77483e-09 -1.85283e-08 1.45358e-08)
(8.95574e-09 -2.1311e-08 1.78702e-08)
(1.02024e-08 -2.40147e-08 2.17207e-08)
(1.15247e-08 -2.64872e-08 2.61003e-08)
(1.29168e-08 -2.84967e-08 3.0938e-08)
(1.43497e-08 -2.97522e-08 3.60092e-08)
(1.57418e-08 -3.00065e-08 4.08116e-08)
(1.68813e-08 -2.93568e-08 4.43867e-08)
(1.72684e-08 -2.8792e-08 4.52568e-08)
(1.63172e-08 -3.00094e-08 4.27203e-08)
(1.0146e-09 -2.29386e-09 1.4672e-09)
(2.82753e-09 -6.4206e-09 4.14804e-09)
(4.48879e-09 -1.0276e-08 6.77152e-09)
(6.05336e-09 -1.40092e-08 9.50383e-09)
(7.56909e-09 -1.7732e-08 1.24927e-08)
(9.0782e-09 -2.15175e-08 1.58728e-08)
(1.06179e-08 -2.53973e-08 1.97674e-08)
(1.22182e-08 -2.93536e-08 2.42841e-08)
(1.38983e-08 -3.33109e-08 2.95043e-08)
(1.56531e-08 -3.71196e-08 3.54566e-08)
(1.74313e-08 -4.05525e-08 4.20693e-08)
(1.90905e-08 -4.33254e-08 4.90851e-08)
(2.03189e-08 -4.52096e-08 5.59216e-08)
(2.05332e-08 -4.63166e-08 6.14899e-08)
(1.89094e-08 -4.75176e-08 6.4151e-08)
(1.54858e-08 -4.98945e-08 6.29337e-08)
(1.26739e-09 -2.82572e-09 1.82431e-09)
(3.53117e-09 -7.91274e-09 5.15631e-09)
(5.60323e-09 -1.26756e-08 8.41212e-09)
(7.5508e-09 -1.73048e-08 1.17955e-08)
(9.43317e-09 -2.19477e-08 1.54874e-08)
(1.13031e-08 -2.67089e-08 1.96528e-08)
(1.32074e-08 -3.16488e-08 2.44433e-08)
(1.51855e-08 -3.678e-08 2.99947e-08)
(1.72615e-08 -4.20579e-08 3.64136e-08)
(1.94288e-08 -4.73721e-08 4.37539e-08)
(2.16115e-08 -5.2533e-08 5.19618e-08)
(2.35932e-08 -5.72711e-08 6.07833e-08)
(2.48962e-08 -6.1273e-08 6.96225e-08)
(2.4612e-08 -6.42951e-08 7.73084e-08)
(2.15089e-08 -6.6427e-08 8.1994e-08)
(1.58965e-08 -6.81993e-08 8.2194e-08)
(1.49429e-09 -3.26579e-09 2.13908e-09)
(4.16204e-09 -9.14959e-09 6.04362e-09)
(6.5998e-09 -1.46714e-08 9.85143e-09)
(8.88534e-09 -2.00606e-08 1.3797e-08)
(1.10872e-08 -2.54991e-08 1.80874e-08)
(1.32674e-08 -3.11247e-08 2.29119e-08)
(1.54833e-08 -3.70329e-08 2.8445e-08)
(1.77855e-08 -4.32755e-08 3.48443e-08)
(2.02137e-08 -4.9859e-08 4.22406e-08)
(2.27807e-08 -5.67365e-08 5.07135e-08)
(2.5436e-08 -6.3796e-08 6.02348e-08)
(2.80038e-08 -7.08367e-08 7.05957e-08)
(3.00285e-08 -7.75074e-08 8.12157e-08)
(3.05598e-08 -8.31774e-08 9.09101e-08)
(2.80454e-08 -8.67702e-08 9.76494e-08)
(2.20727e-08 -8.72459e-08 9.94023e-08)
(1.69167e-09 -3.59571e-09 2.4065e-09)
(4.70965e-09 -1.00793e-08 6.79552e-09)
(7.462e-09 -1.61795e-08 1.10656e-08)
(1.00335e-08 -2.21588e-08 1.54736e-08)
(1.24999e-08 -2.823e-08 2.02455e-08)
(1.49306e-08 -3.45625e-08 2.5587e-08)
(1.73914e-08 -4.12862e-08 3.1687e-08)
(1.9946e-08 -4.84954e-08 3.87173e-08)
(2.26536e-08 -5.62515e-08 4.68233e-08)
(2.55633e-08 -6.45845e-08 5.61017e-08)
(2.86968e-08 -7.34913e-08 6.65552e-08)
(3.20119e-08 -8.29227e-08 7.8004e-08)
(3.5321e-08 -9.27278e-08 8.9919e-08)
(3.81274e-08 -1.02463e-07 1.01101e-07)
(3.93772e-08 -1.10893e-07 1.09278e-07)
(3.78742e-08 -1.15299e-07 1.11741e-07)
(1.85686e-09 -3.79947e-09 2.6235e-09)
(5.16726e-09 -1.0657e-08 7.40404e-09)
(8.17868e-09 -1.71264e-08 1.20418e-08)
(1.09801e-08 -2.34953e-08 1.68076e-08)
(1.36508e-08 -3.00005e-08 2.1938e-08)
(1.62643e-08 -3.68366e-08 2.76462e-08)
(1.88918e-08 -4.41621e-08 3.41264e-08)
(2.16048e-08 -5.21059e-08 4.15528e-08)
(2.44787e-08 -6.07739e-08 5.00723e-08)
(2.75924e-08 -7.02563e-08 5.97827e-08)
(3.1031e-08 -8.06365e-08 7.06926e-08)
(3.4882e-08 -9.20041e-08 8.26387e-08)
(3.92299e-08 -1.04466e-07 9.51172e-08)
(4.41414e-08 -1.18124e-07 1.06919e-07)
(4.95861e-08 -1.3282e-07 1.15516e-07)
(5.46552e-08 -1.46099e-07 1.17192e-07)
(1.50869e-10 -3.53648e-10 1.91375e-10)
(4.20243e-10 -9.89156e-10 5.41203e-10)
(6.66379e-10 -1.58088e-09 8.83478e-10)
(8.97034e-10 -2.15065e-09 1.24031e-09)
(1.11843e-09 -2.71416e-09 1.63046e-09)
(1.33529e-09 -3.27994e-09 2.07084e-09)
(1.5508e-09 -3.849e-09 2.57585e-09)
(1.76644e-09 -4.41344e-09 3.15665e-09)
(1.98144e-09 -4.95416e-09 3.81852e-09)
(2.19269e-09 -5.438e-09 4.55612e-09)
(2.39532e-09 -5.81399e-09 5.34457e-09)
(2.58612e-09 -6.01079e-09 6.12636e-09)
(2.77361e-09 -5.92638e-09 6.79588e-09)
(2.97605e-09 -5.39396e-09 7.17e-09)
(3.19029e-09 -4.09847e-09 7.01177e-09)
(3.21187e-09 -1.80164e-09 6.20595e-09)
(4.49207e-10 -1.04985e-09 5.69001e-10)
(1.25111e-09 -2.93671e-09 1.60866e-09)
(1.98384e-09 -4.6946e-09 2.62612e-09)
(2.67004e-09 -6.38888e-09 3.68538e-09)
(3.32814e-09 -8.06638e-09 4.84294e-09)
(3.97222e-09 -9.75415e-09 6.14826e-09)
(4.61165e-09 -1.14573e-08 7.6439e-09)
(5.24998e-09 -1.31552e-08 9.36239e-09)
(5.88275e-09 -1.47966e-08 1.13189e-08)
(6.49408e-09 -1.6291e-08 1.3496e-08)
(7.0539e-09 -1.75073e-08 1.5818e-08)
(7.51929e-09 -1.82811e-08 1.81135e-08)
(7.82844e-09 -1.84512e-08 2.00435e-08)
(7.89606e-09 -1.79349e-08 2.10497e-08)
(7.57557e-09 -1.68603e-08 2.04223e-08)
(6.8164e-09 -1.57672e-08 1.827e-08)
(7.38163e-10 -1.71454e-09 9.3246e-10)
(2.05586e-09 -4.79741e-09 2.63583e-09)
(3.25957e-09 -7.67319e-09 4.3017e-09)
(4.38622e-09 -1.04506e-08 6.03458e-09)
(5.46609e-09 -1.32092e-08 7.92598e-09)
(6.52258e-09 -1.59982e-08 1.00567e-08)
(7.57143e-09 -1.88333e-08 1.24967e-08)
(8.61805e-09 -2.16925e-08 1.53003e-08)
(9.65182e-09 -2.4508e-08 1.84947e-08)
(1.06366e-08 -2.71603e-08 2.20583e-08)
(1.14968e-08 -2.94793e-08 2.58838e-08)
(1.2099e-08 -3.12773e-08 2.97214e-08)
(1.22332e-08 -3.24475e-08 3.31084e-08)
(1.16196e-08 -3.31672e-08 3.5335e-08)
(1.00588e-08 -3.41218e-08 3.56805e-08)
(8.11513e-09 -3.59473e-08 3.45261e-08)
(1.01183e-09 -2.32676e-09 1.27292e-09)
(2.81789e-09 -6.51287e-09 3.59794e-09)
(4.46685e-09 -1.04245e-08 5.86919e-09)
(6.00898e-09 -1.42134e-08 8.22828e-09)
(7.48584e-09 -1.79934e-08 1.07987e-08)
(8.93043e-09 -2.18405e-08 1.36901e-08)
(1.03657e-08 -2.57895e-08 1.6998e-08)
(1.18006e-08 -2.98301e-08 2.07983e-08)
(1.32206e-08 -3.38997e-08 2.5134e-08)
(1.45705e-08 -3.78756e-08 2.99883e-08)
(1.57249e-08 -4.15783e-08 3.52426e-08)
(1.64437e-08 -4.48024e-08 4.06129e-08)
(1.63183e-08 -4.74172e-08 4.55803e-08)
(1.47799e-08 -4.9567e-08 4.93798e-08)
(1.14347e-08 -5.18565e-08 5.12691e-08)
(7.45426e-09 -5.46154e-08 5.14452e-08)
(1.26488e-09 -2.86578e-09 1.58306e-09)
(3.52198e-09 -8.02513e-09 4.47295e-09)
(5.58102e-09 -1.2856e-08 7.29215e-09)
(7.50421e-09 -1.75516e-08 1.02139e-08)
(9.3438e-09 -2.22614e-08 1.33896e-08)
(1.11425e-08 -2.70915e-08 1.69537e-08)
(1.29321e-08 -3.21036e-08 2.10245e-08)
(1.47291e-08 -3.73125e-08 2.56981e-08)
(1.6524e-08 -4.2679e-08 3.10344e-08)
(1.82584e-08 -4.81031e-08 3.70284e-08)
(1.97862e-08 -5.34159e-08 4.35653e-08)
(2.0807e-08 -5.83844e-08 5.03567e-08)
(2.0766e-08 -6.27352e-08 5.68546e-08)
(1.88203e-08 -6.62306e-08 6.22596e-08)
(1.42203e-08 -6.87974e-08 6.5748e-08)
(8.35373e-09 -7.05344e-08 6.72084e-08)
(1.49262e-09 -3.31161e-09 1.85659e-09)
(4.15493e-09 -9.27791e-09 5.24345e-09)
(6.58065e-09 -1.4877e-08 8.54126e-09)
(8.84213e-09 -2.03407e-08 1.19492e-08)
(1.10009e-08 -2.58524e-08 1.56407e-08)
(1.31092e-08 -3.15501e-08 1.97703e-08)
(1.52092e-08 -3.75272e-08 2.44743e-08)
(1.73296e-08 -4.3832e-08 2.9865e-08)
(1.94772e-08 -5.04647e-08 3.60173e-08)
(2.16163e-08 -5.73691e-08 4.29384e-08)
(2.36353e-08 -6.44205e-08 5.05282e-08)
(2.52722e-08 -7.13941e-08 5.84866e-08)
(2.60147e-08 -7.79045e-08 6.626e-08)
(2.498e-08 -8.32617e-08 7.29778e-08)
(2.11083e-08 -8.63004e-08 7.7689e-08)
(1.50621e-08 -8.59689e-08 8.00668e-08)
(1.69125e-09 -3.64565e-09 2.08897e-09)
(4.70621e-09 -1.0219e-08 5.89684e-09)
(7.4487e-09 -1.64029e-08 9.59576e-09)
(9.9986e-09 -2.24622e-08 1.3404e-08)
(1.24249e-08 -2.86103e-08 1.75112e-08)
(1.47878e-08 -3.50151e-08 2.20853e-08)
(1.71393e-08 -4.18014e-08 2.72742e-08)
(1.95228e-08 -4.90539e-08 3.32004e-08)
(2.19678e-08 -5.68171e-08 3.99469e-08)
(2.44809e-08 -6.50929e-08 4.75305e-08)
(2.70242e-08 -7.38304e-08 5.58498e-08)
(2.94803e-08 -8.29006e-08 6.4608e-08)
(3.15925e-08 -9.20236e-08 7.31992e-08)
(3.29045e-08 -1.0058e-07 8.06177e-08)
(3.28021e-08 -1.07206e-07 8.56065e-08)
(3.11761e-08 -1.09608e-07 8.76226e-08)
(1.85813e-09 -3.85177e-09 2.27773e-09)
(5.16854e-09 -1.08033e-08 6.42608e-09)
(8.17344e-09 -1.736e-08 1.04444e-08)
(1.09572e-08 -2.38118e-08 1.45629e-08)
(1.35932e-08 -3.03954e-08 1.89804e-08)
(1.61467e-08 -3.73023e-08 2.38714e-08)
(1.86767e-08 -4.46838e-08 2.93878e-08)
(2.12376e-08 -5.26547e-08 3.56538e-08)
(2.38786e-08 -6.12964e-08 4.27519e-08)
(2.66425e-08 -7.06579e-08 5.06966e-08)
(2.95615e-08 -8.07531e-08 5.93811e-08)
(3.2652e-08 -9.15554e-08 6.84939e-08)
(3.59176e-08 -1.02984e-07 7.73795e-08)
(3.94078e-08 -1.1488e-07 8.48693e-08)
(4.33546e-08 -1.26866e-07 8.92164e-08)
(4.78158e-08 -1.37201e-07 8.92823e-08)
(1.50028e-10 -3.57684e-10 1.55642e-10)
(4.17502e-10 -1.00045e-09 4.39867e-10)
(6.60949e-10 -1.59908e-09 7.17925e-10)
(8.87212e-10 -2.17597e-09 1.00665e-09)
(1.10144e-09 -2.74698e-09 1.32146e-09)
(1.30677e-09 -3.32136e-09 1.67487e-09)
(1.50412e-09 -3.90133e-09 2.07743e-09)
(1.69133e-09 -4.48054e-09 2.53591e-09)
(1.86268e-09 -5.04442e-09 3.05211e-09)
(2.00707e-09 -5.5661e-09 3.61721e-09)
(2.10875e-09 -6.00793e-09 4.20762e-09)
(2.14964e-09 -6.31857e-09 4.77709e-09)
(2.1152e-09 -6.42709e-09 5.24968e-09)
(2.00736e-09 -6.20204e-09 5.54463e-09)
(1.83138e-09 -5.33603e-09 5.63111e-09)
(1.54083e-09 -3.43535e-09 5.58931e-09)
(4.46765e-10 -1.06175e-09 4.62694e-10)
(1.24336e-09 -2.97014e-09 1.30798e-09)
(1.96825e-09 -4.74859e-09 2.13366e-09)
(2.64176e-09 -6.46339e-09 2.99152e-09)
(3.27924e-09 -8.16289e-09 3.92543e-09)
(3.89011e-09 -9.87536e-09 4.97317e-09)
(4.47708e-09 -1.16083e-08 6.16526e-09)
(5.03422e-09 -1.33471e-08 7.52267e-09)
(5.5426e-09 -1.50486e-08 9.04873e-09)
(5.96671e-09 -1.6641e-08 1.07188e-08)
(6.25052e-09 -1.80207e-08 1.24615e-08)
(6.31943e-09 -1.90644e-08 1.41328e-08)
(6.09884e-09 -1.96475e-08 1.55047e-08)
(5.55494e-09 -1.96599e-08 1.62598e-08)
(4.78377e-09 -1.90032e-08 1.61315e-08)
(4.15561e-09 -1.77841e-08 1.53349e-08)
(7.34465e-10 -1.73386e-09 7.58322e-10)
(2.04409e-09 -4.85165e-09 2.14328e-09)
(3.23573e-09 -7.76046e-09 3.49557e-09)
(4.34277e-09 -1.05707e-08 4.89891e-09)
(5.39043e-09 -1.33631e-08 6.425e-09)
(6.39533e-09 -1.61889e-08 8.1354e-09)
(7.36339e-09 -1.90672e-08 1.00809e-08)
(8.28549e-09 -2.19811e-08 1.22959e-08)
(9.13124e-09 -2.48745e-08 1.47898e-08)
(9.83759e-09 -2.76461e-08 1.75274e-08)
(1.0298e-08 -3.01559e-08 2.04052e-08)
(1.03548e-08 -3.22522e-08 2.32202e-08)
(9.81583e-09 -3.38425e-08 2.56535e-08)
(8.54635e-09 -3.5016e-08 2.73153e-08)
(6.73361e-09 -3.61522e-08 2.79753e-08)
(5.33433e-09 -3.75555e-08 2.80101e-08)
(1.0074e-09 -2.35272e-09 1.03552e-09)
(2.80357e-09 -6.58572e-09 2.92572e-09)
(4.43758e-09 -1.05414e-08 4.76989e-09)
(5.95492e-09 -1.43729e-08 6.68058e-09)
(7.39125e-09 -1.8196e-08 8.75482e-09)
(8.77105e-09 -2.20878e-08 1.10763e-08)
(1.01052e-08 -2.60851e-08 1.37144e-08)
(1.13858e-08 -3.01816e-08 1.67186e-08)
(1.25753e-08 -3.43211e-08 2.01055e-08)
(1.35907e-08 -3.83941e-08 2.38391e-08)
(1.42783e-08 -4.22387e-08 2.78004e-08)
(1.43889e-08 -4.56675e-08 3.17566e-08)
(1.35701e-08 -4.85387e-08 3.53514e-08)
(1.14714e-08 -5.08969e-08 3.81777e-08)
(8.15619e-09 -5.3098e-08 4.00179e-08)
(5.08513e-09 -5.53264e-08 4.10751e-08)
(1.26025e-09 -2.89739e-09 1.28789e-09)
(3.50682e-09 -8.11358e-09 3.63786e-09)
(5.54944e-09 -1.29973e-08 5.9272e-09)
(7.44514e-09 -1.77435e-08 8.29401e-09)
(9.23927e-09 -2.25022e-08 1.08571e-08)
(1.09655e-08 -2.73799e-08 1.37194e-08)
(1.26427e-08 -3.24384e-08 1.69671e-08)
(1.42696e-08 -3.76909e-08 2.0663e-08)
(1.58134e-08 -4.30985e-08 2.48334e-08)
(1.71894e-08 -4.856e-08 2.94459e-08)
(1.82296e-08 -5.39056e-08 3.43767e-08)
(1.86355e-08 -5.88912e-08 3.93739e-08)
(1.79412e-08 -6.32124e-08 4.40655e-08)
(1.55607e-08 -6.65408e-08 4.80183e-08)
(1.12303e-08 -6.86564e-08 5.0988e-08)
(6.53891e-09 -6.96873e-08 5.29721e-08)
(1.48835e-09 -3.34765e-09 1.51054e-09)
(4.14073e-09 -9.37866e-09 4.26521e-09)
(6.55017e-09 -1.50373e-08 6.94366e-09)
(8.78351e-09 -2.05569e-08 9.70472e-09)
(1.08957e-08 -2.61209e-08 1.26848e-08)
(1.29296e-08 -3.1866e-08 1.60024e-08)
(1.49143e-08 -3.78818e-08 1.97566e-08)
(1.68618e-08 -4.42106e-08 2.40214e-08)
(1.87562e-08 -5.08422e-08 2.88309e-08)
(2.05393e-08 -5.77046e-08 3.41572e-08)
(2.20783e-08 -6.46455e-08 3.98667e-08)
(2.31276e-08 -7.14013e-08 4.57021e-08)
(2.32652e-08 -7.75223e-08 5.12365e-08)
(2.18815e-08 -8.22424e-08 5.59802e-08)
(1.84079e-08 -8.43689e-08 5.96156e-08)
(1.36844e-08 -8.31243e-08 6.20872e-08)
(1.68787e-09 -3.6848e-09 1.69995e-09)
(4.69449e-09 -1.03283e-08 4.79749e-09)
(7.42213e-09 -1.65763e-08 7.80226e-09)
(9.9456e-09 -2.26948e-08 1.08884e-08)
(1.23271e-08 -2.88964e-08 1.42051e-08)
(1.46182e-08 -3.53457e-08 1.78811e-08)
(1.6859e-08 -4.21612e-08 2.20246e-08)
(1.90766e-08 -4.94157e-08 2.67154e-08)
(2.12813e-08 -5.71345e-08 3.1992e-08)
(2.34573e-08 -6.52883e-08 3.78241e-08)
(2.55515e-08 -7.37777e-08 4.4074e-08)
(2.74567e-08 -8.24015e-08 5.04452e-08)
(2.90004e-08 -9.07855e-08 5.64451e-08)
(2.99727e-08 -9.82274e-08 6.14269e-08)
(3.02211e-08 -1.03433e-07 6.48615e-08)
(2.98314e-08 -1.04672e-07 6.6768e-08)
(1.85606e-09 -3.89267e-09 1.85385e-09)
(5.16054e-09 -1.09174e-08 5.22893e-09)
(8.15325e-09 -1.75407e-08 8.49366e-09)
(1.09136e-08 -2.4053e-08 1.18322e-08)
(1.35093e-08 -3.06898e-08 1.54008e-08)
(1.59974e-08 -3.7638e-08 1.93338e-08)
(1.84263e-08 -4.50399e-08 2.37419e-08)
(2.08363e-08 -5.29945e-08 2.8706e-08)
(2.32593e-08 -6.15581e-08 3.42627e-08)
(2.57186e-08 -7.07383e-08 4.03754e-08)
(2.82311e-08 -8.04869e-08 4.68935e-08)
(3.08164e-08 -9.06879e-08 5.34893e-08)
(3.35394e-08 -1.0115e-07 5.95911e-08)
(3.66382e-08 -1.11625e-07 6.43579e-08)
(4.07381e-08 -1.21863e-07 6.6891e-08)
(4.61434e-08 -1.30834e-07 6.69952e-08)
(1.49128e-10 -3.60605e-10 1.1476e-10)
(4.14751e-10 -1.00868e-09 3.24442e-10)
(6.55592e-10 -1.61242e-09 5.28909e-10)
(8.77786e-10 -2.19407e-09 7.41282e-10)
(1.08597e-09 -2.77104e-09 9.71975e-10)
(1.28159e-09 -3.35173e-09 1.22989e-09)
(1.46389e-09 -3.93909e-09 1.52189e-09)
(1.62861e-09 -4.52846e-09 1.8521e-09)
(1.76692e-09 -5.10661e-09 2.22016e-09)
(1.86468e-09 -5.65061e-09 2.6186e-09)
(1.90332e-09 -6.12681e-09 3.02942e-09)
(1.86438e-09 -6.48878e-09 3.42125e-09)
(1.74111e-09 -6.66702e-09 3.758e-09)
(1.55143e-09 -6.51785e-09 4.00916e-09)
(1.33169e-09 -5.70889e-09 4.21452e-09)
(1.06145e-09 -3.81027e-09 4.42915e-09)
(4.44237e-10 -1.07049e-09 3.41328e-10)
(1.23546e-09 -2.99468e-09 9.64369e-10)
(1.9528e-09 -4.78782e-09 1.57255e-09)
(2.61522e-09 -6.51857e-09 2.20308e-09)
(3.2344e-09 -8.23338e-09 2.88743e-09)
(3.81691e-09 -9.96308e-09 3.65192e-09)
(4.36055e-09 -1.17166e-08 4.51686e-09)
(4.85287e-09 -1.34815e-08 5.4943e-09)
(5.26737e-09 -1.52204e-08 6.583e-09)
(5.56029e-09 -1.6868e-08 7.76045e-09)
(5.6709e-09 -1.83302e-08 8.97218e-09)
(5.53289e-09 -1.94889e-08 1.0127e-08)
(5.10636e-09 -2.02033e-08 1.10868e-08)
(4.44294e-09 -2.0298e-08 1.16998e-08)
(3.77739e-09 -1.9537e-08 1.18549e-08)
(3.50196e-09 -1.79748e-08 1.16117e-08)
(7.3061e-10 -1.74809e-09 5.59424e-10)
(2.03198e-09 -4.89154e-09 1.58041e-09)
(3.21236e-09 -7.825e-09 2.5765e-09)
(4.30122e-09 -1.06583e-08 3.60799e-09)
(5.32084e-09 -1.34754e-08 4.72639e-09)
(6.28168e-09 -1.63267e-08 5.97455e-09)
(7.18257e-09 -1.92333e-08 7.38614e-09)
(8.00533e-09 -2.21815e-08 8.98174e-09)
(8.70848e-09 -2.51195e-08 1.07612e-08)
(9.21961e-09 -2.79531e-08 1.26921e-08)
(9.43078e-09 -3.05486e-08 1.4696e-08)
(9.20642e-09 -3.27515e-08 1.66381e-08)
(8.42639e-09 -3.44308e-08 1.83303e-08)
(7.10576e-09 -3.55738e-08 1.95791e-08)
(5.6284e-09 -3.63933e-08 2.02999e-08)
(4.87597e-09 -3.72251e-08 2.06249e-08)
(1.00266e-09 -2.37195e-09 7.63775e-10)
(2.78869e-09 -6.63952e-09 2.15781e-09)
(4.40814e-09 -1.06271e-08 3.51612e-09)
(5.90317e-09 -1.44901e-08 4.92078e-09)
(7.30333e-09 -1.83427e-08 6.44096e-09)
(8.62727e-09 -2.22641e-08 8.13519e-09)
(9.87705e-09 -2.62915e-08 1.00498e-08)
(1.10338e-08 -3.04189e-08 1.22142e-08)
(1.20483e-08 -3.45922e-08 1.46316e-08)
(1.28287e-08 -3.87026e-08 1.72655e-08)
(1.32268e-08 -4.25861e-08 2.00235e-08)
(1.3032e-08 -4.60398e-08 2.27487e-08)
(1.19982e-08 -4.8876e-08 2.52302e-08)
(9.96877e-09 -5.10337e-08 2.72657e-08)
(7.22428e-09 -5.27422e-08 2.87739e-08)
(5.03885e-09 -5.43096e-08 2.97479e-08)
(1.25508e-09 -2.92071e-09 9.50115e-10)
(3.49064e-09 -8.17892e-09 2.68331e-09)
(5.51733e-09 -1.31014e-08 4.36986e-09)
(7.38711e-09 -1.78829e-08 6.10991e-09)
(9.14091e-09 -2.26753e-08 7.98862e-09)
(1.08043e-08 -2.75834e-08 1.00779e-08)
(1.23871e-08 -3.26674e-08 1.24354e-08)
(1.38767e-08 -3.79384e-08 1.50987e-08)
(1.52288e-08 -4.33524e-08 1.80758e-08)
(1.63526e-08 -4.8801e-08 2.13282e-08)
(1.70909e-08 -5.40994e-08 2.47551e-08)
(1.71997e-08 -5.89787e-08 2.81884e-08)
(1.63362e-08 -6.30806e-08 3.13891e-08)
(1.41389e-08 -6.60035e-08 3.41462e-08)
(1.05635e-08 -6.74694e-08 3.63599e-08)
(6.93125e-09 -6.78005e-08 3.78931e-08)
(1.48338e-09 -3.37431e-09 1.11463e-09)
(4.12472e-09 -9.45288e-09 3.14648e-09)
(6.51765e-09 -1.51546e-08 5.11992e-09)
(8.72489e-09 -2.07138e-08 7.15018e-09)
(1.07947e-08 -2.63122e-08 9.33493e-09)
(1.27632e-08 -3.20852e-08 1.17571e-08)
(1.46504e-08 -3.81184e-08 1.4483e-08)
(1.64568e-08 -4.44467e-08 1.7557e-08)
(1.81567e-08 -5.10484e-08 2.09901e-08)
(1.96866e-08 -5.78331e-08 2.47415e-08)
(2.09308e-08 -6.46224e-08 2.87065e-08)
(2.16982e-08 -7.11121e-08 3.26827e-08)
(2.17033e-08 -7.68064e-08 3.64036e-08)
(2.05641e-08 -8.09013e-08 3.96014e-08)
(1.79347e-08 -8.22456e-08 4.21429e-08)
(1.43603e-08 -8.03517e-08 4.39037e-08)
(1.68344e-09 -3.71366e-09 1.25451e-09)
(4.68011e-09 -1.04087e-08 3.53962e-09)
(7.39241e-09 -1.6703e-08 5.75381e-09)
(9.88998e-09 -2.28622e-08 8.02343e-09)
(1.22306e-08 -2.90984e-08 1.04555e-08)
(1.4458e-08 -3.55721e-08 1.31404e-08)
(1.66037e-08 -4.23951e-08 1.61501e-08)
(1.86849e-08 -4.96291e-08 1.95326e-08)
(2.07021e-08 -5.72815e-08 2.3299e-08)
(2.26366e-08 -6.52952e-08 2.74064e-08)
(2.44503e-08 -7.35324e-08 3.17314e-08)
(2.60886e-08 -8.17425e-08 3.60452e-08)
(2.75053e-08 -8.9505e-08 4.00059e-08)
(2.87051e-08 -9.61153e-08 4.32339e-08)
(2.9748e-08 -1.00414e-07 4.54802e-08)
(3.04392e-08 -1.01066e-07 4.67717e-08)
(1.8526e-09 -3.92276e-09 1.36825e-09)