/*--------------------------------*- C++ -*----------------------------------*\
| =========                 |                                                 |
| \\      /  F ield         | OpenFOAM: The Open Source CFD Toolbox           |
|  \\    /   O peration     | Version:  v1912                                 |
|   \\  /    A nd           | Website:  www.openfoam.com                      |
|    \\/     M anipulation  |                                                 |
\*---------------------------------------------------------------------------*/
FoamFile
{
    version     2.0;
    format      ascii;
    class       surfaceScalarField;
    location    "0.6/fluid";
    object      meshPhi;
}
// * * * * * * * * * * * * * * * * * * * * * * * * * * * * * * * * * * * * * //

dimensions      [0 3 -1 0 0 0 0];
oriented        oriented;


internalField   nonuniform List<scalar> 
41600
(
1.77658e-13
-4.43782e-13
1.66214e-13
-1.71706e-13
3.39088e-13
-1.29293e-12
4.89921e-13
-5.06359e-13
4.90603e-13
-2.08139e-12
8.07371e-13
-8.35233e-13
6.37953e-13
-2.8372e-12
1.13962e-12
-1.18048e-12
7.86664e-13
-3.57938e-12
1.50566e-12
-1.56223e-12
9.42545e-13
-4.31664e-12
1.92323e-12
-1.99957e-12
1.11245e-12
-5.04504e-12
2.4093e-12
-2.51121e-12
1.30549e-12
-5.74334e-12
2.98013e-12
-3.11583e-12
1.53529e-12
-6.36435e-12
3.65075e-12
-3.8321e-12
1.8252e-12
-6.8195e-12
4.43408e-12
-4.679e-12
2.21934e-12
-6.951e-12
5.34036e-12
-5.67806e-12
2.80738e-12
-6.4777e-12
6.37921e-12
-6.86226e-12
3.7713e-12
-4.88708e-12
7.5684e-12
-8.30236e-12
5.43561e-12
-1.26323e-12
8.94677e-12
-1.01652e-11
7.94368e-12
5.35506e-12
1.04958e-11
-1.26339e-11
1.64982e-11
1.31855e-11
-1.93471e-11
5.28914e-13
-8.745e-13
4.94371e-13
-5.10715e-13
1.00939e-12
-2.54837e-12
1.45707e-12
-1.50598e-12
1.46006e-12
-4.10424e-12
2.40084e-12
-2.4837e-12
1.89781e-12
-5.59836e-12
3.38808e-12
-3.50949e-12
2.33892e-12
-7.0699e-12
4.47497e-12
-4.64291e-12
2.80035e-12
-8.53904e-12
5.71408e-12
-5.9405e-12
3.30172e-12
-1.0003e-11
7.15564e-12
-7.45758e-12
3.86822e-12
-1.14283e-11
8.84758e-12
-9.24907e-12
4.53599e-12
-1.27374e-11
1.08338e-11
-1.13692e-11
5.36322e-12
-1.37867e-11
1.31506e-11
-1.38709e-11
6.45295e-12
-1.4333e-11
1.58213e-11
-1.68072e-11
8.00024e-12
-1.39887e-11
1.88526e-11
-2.02424e-11
1.03653e-11
-1.21864e-11
2.22344e-11
-2.4286e-11
1.40994e-11
-8.27046e-12
2.59295e-11
-2.91532e-11
1.91872e-11
-2.28274e-12
2.96964e-11
-3.48908e-11
4.78453e-12
3.26181e-11
-4.23744e-11
8.68238e-13
-1.27924e-12
8.1005e-13
-8.36836e-13
1.65655e-12
-3.7291e-12
2.38714e-12
-2.46726e-12
2.39503e-12
-6.01003e-12
3.93219e-12
-4.06779e-12
3.11085e-12
-8.20695e-12
5.54668e-12
-5.74513e-12
3.83015e-12
-1.03812e-11
7.32196e-12
-7.59607e-12
4.57989e-12
-1.25689e-11
9.3435e-12
-9.71251e-12
5.39028e-12
-1.47769e-11
1.16931e-11
-1.21843e-11
6.29813e-12
-1.69742e-11
1.44487e-11
-1.51003e-11
7.35207e-12
-1.90782e-11
1.76817e-11
-1.85473e-11
8.62188e-12
-2.09335e-11
2.14487e-11
-2.26062e-11
1.02157e-11
-2.22844e-11
2.57791e-11
-2.73462e-11
1.23109e-11
-2.27514e-11
3.06532e-11
-3.28185e-11
1.51829e-11
-2.18552e-11
3.59694e-11
-3.90514e-11
1.91449e-11
-1.92058e-11
4.14828e-11
-4.60289e-11
2.38196e-11
-1.51634e-11
4.66191e-11
-5.33031e-11
-1.07047e-11
5.06437e-11
-6.22773e-11
1.18826e-12
-1.64479e-12
1.10569e-12
-1.14221e-12
2.26626e-12
-4.79676e-12
3.25764e-12
-3.3668e-12
3.27426e-12
-7.73756e-12
5.36366e-12
-5.54824e-12
4.24855e-12
-1.05809e-11
7.5608e-12
-7.83055e-12
5.22391e-12
-1.3412e-11
9.9723e-12
-1.03443e-11
6.23581e-12
-1.62878e-11
1.27136e-11
-1.32134e-11
7.32287e-12
-1.92332e-11
1.58954e-11
-1.65592e-11
8.5297e-12
-2.22352e-11
1.9624e-11
-2.05018e-11
9.90999e-12
-2.52311e-11
2.39972e-11
-2.51586e-11
1.15298e-11
-2.80916e-11
2.90948e-11
-3.06376e-11
1.34712e-11
-3.05977e-11
3.4957e-11
-3.70234e-11
1.58353e-11
-3.24201e-11
4.15485e-11
-4.4353e-11
1.8728e-11
-3.31257e-11
4.86955e-11
-5.25734e-11
2.21869e-11
-3.22889e-11
5.59805e-11
-6.14623e-11
2.57491e-11
-2.99483e-11
6.25358e-11
-7.0208e-11
-2.64838e-11
6.72455e-11
-7.97752e-11
1.48235e-12
-1.95815e-12
1.37461e-12
-1.4199e-12
2.82563e-12
-5.71336e-12
4.04864e-12
-4.18395e-12
4.07868e-12
-9.22539e-12
6.66174e-12
-6.89026e-12
5.28538e-12
-1.26357e-11
9.38179e-12
-9.71525e-12
6.48771e-12
-1.60543e-11
1.23595e-11
-1.28185e-11
7.72813e-12
-1.95618e-11
1.57361e-11
-1.63514e-11
9.05213e-12
-2.32083e-11
1.96472e-11
-2.04622e-11
1.05105e-11
-2.70101e-11
2.42246e-11
-2.52988e-11
1.21608e-11
-3.09439e-11
2.95923e-11
-3.10072e-11
1.40657e-11
-3.49355e-11
3.58566e-11
-3.77252e-11
1.62867e-11
-3.8842e-11
4.3083e-11
-4.55646e-11
1.88669e-11
-4.2423e-11
5.12529e-11
-5.45783e-11
2.17856e-11
-4.52938e-11
6.01789e-11
-6.46924e-11
2.48724e-11
-4.68696e-11
6.93449e-11
-7.55687e-11
2.75697e-11
-4.65389e-11
7.75866e-11
-8.60602e-11
-4.35619e-11
8.33374e-11
-9.66511e-11
1.74503e-12
-2.2069e-12
1.61143e-12
-1.66433e-12
3.32407e-12
-6.44253e-12
4.74413e-12
-4.90209e-12
4.79261e-12
-1.04141e-11
7.79951e-12
-8.06596e-12
6.20038e-12
-1.42882e-11
1.09705e-11
-1.13587e-11
7.59486e-12
-1.81984e-11
1.44298e-11
-1.49629e-11
9.02394e-12
-2.22495e-11
1.83389e-11
-1.90517e-11
1.05387e-11
-2.65189e-11
2.28531e-11
-2.37943e-11
1.21961e-11
-3.10584e-11
2.81246e-11
-2.93605e-11
1.40604e-11
-3.58934e-11
3.43002e-11
-3.59213e-11
1.62022e-11
-4.10219e-11
4.15145e-11
-4.36445e-11
1.86931e-11
-4.64084e-11
4.98711e-11
-5.26824e-11
2.15893e-11
-5.19674e-11
5.94052e-11
-6.31452e-11
2.48838e-11
-5.75082e-11
7.00022e-11
-7.5035e-11
2.84e-11
-6.25815e-11
8.12002e-11
-8.80794e-11
3.14613e-11
-6.6216e-11
9.16818e-11
-1.00966e-10
-6.57154e-11
9.9489e-11
-1.13922e-10
1.97217e-12
-2.37988e-12
1.8123e-12
-1.87155e-12
3.75368e-12
-6.95142e-12
5.33276e-12
-5.50951e-12
5.4045e-12
-1.12495e-11
8.75803e-12
-9.05577e-12
6.97819e-12
-1.54614e-11
1.22996e-11
-1.27325e-11
8.52572e-12
-1.97406e-11
1.61457e-11
-1.67387e-11
1.00984e-11
-2.42131e-11
2.04714e-11
-2.12618e-11
1.17512e-11
-2.89814e-11
2.54447e-11
-2.64845e-11
1.3546e-11
-3.41297e-11
3.12302e-11
-3.259e-11
1.55556e-11
-3.9729e-11
3.79898e-11
-3.97651e-11
1.78669e-11
-4.58446e-11
4.5879e-11
-4.82e-11
2.05861e-11
-5.25474e-11
5.50373e-11
-5.80856e-11
2.38445e-11
-5.99297e-11
6.55686e-11
-6.9606e-11
2.77915e-11
-6.81164e-11
7.74878e-11
-8.29074e-11
3.25228e-11
-7.72104e-11
9.05478e-11
-9.79708e-11
3.74634e-11
-8.67228e-11
1.03553e-10
-1.13637e-10
-9.62294e-11
1.14407e-10
-1.30793e-10
2.16119e-12
1.97514e-12
-2.03937e-12
-2.46783e-12
4.10974e-12
5.80848e-12
-5.99997e-12
-7.21283e-12
5.90773e-12
9.52758e-12
-9.84966e-12
-1.16868e-11
7.61026e-12
1.33554e-11
-1.38226e-11
-1.6091e-11
9.26946e-12
1.74889e-11
-1.8127e-11
-2.05931e-11
1.09375e-11
2.21093e-11
-2.29566e-11
-2.53344e-11
1.26702e-11
2.73887e-11
-2.84985e-11
-3.0436e-11
1.4531e-11
3.3494e-11
-3.49381e-11
-3.60046e-11
1.65962e-11
4.05886e-11
-4.24634e-11
-4.21405e-11
1.89628e-11
4.88311e-11
-5.12676e-11
-4.89475e-11
2.17615e-11
5.83717e-11
-6.15518e-11
-5.65489e-11
2.51786e-11
6.93447e-11
-7.35318e-11
-6.5112e-11
2.94813e-11
8.18431e-11
-8.74382e-11
-7.48788e-11
3.49839e-11
9.57981e-11
-1.03455e-10
-8.61598e-11
4.1179e-11
1.10166e-10
-1.20613e-10
-9.85238e-11
1.24064e-10
-1.42209e-10
-1.15279e-10
1.78252e-13
-4.53161e-13
1.5468e-13
3.39924e-13
-1.32036e-12
4.5574e-13
4.91074e-13
-2.12598e-12
7.50429e-13
6.37108e-13
-2.89908e-12
1.05793e-12
7.83031e-13
-3.65968e-12
1.39533e-12
9.33793e-13
-4.41764e-12
1.77827e-12
1.09482e-12
-5.17061e-12
2.22109e-12
1.2728e-12
-5.9001e-12
2.73654e-12
1.47731e-12
-6.56445e-12
3.33444e-12
1.72445e-12
-7.08675e-12
4.01905e-12
2.04513e-12
-7.33482e-12
4.7844e-12
2.50263e-12
-7.0861e-12
5.6059e-12
3.22257e-12
-5.9657e-12
6.42425e-12
4.40642e-12
-3.37906e-12
7.11048e-12
6.07962e-12
1.15652e-12
7.42061e-12
7.26008e-12
6.91201e-12
5.30748e-13
-8.92886e-13
4.60062e-13
1.01203e-12
-2.60213e-12
1.35541e-12
1.46176e-12
-4.19166e-12
2.23152e-12
1.89587e-12
-5.71972e-12
3.14526e-12
2.3291e-12
-7.22739e-12
4.14722e-12
2.77596e-12
-8.73688e-12
5.2837e-12
3.25199e-12
-1.02481e-11
6.59728e-12
3.77558e-12
-1.17324e-11
8.12571e-12
4.37132e-12
-1.31212e-11
9.89805e-12
5.07741e-12
-1.42896e-11
1.19266e-11
5.96153e-12
-1.5034e-11
1.41919e-11
7.15234e-12
-1.50513e-11
1.66161e-11
8.88273e-12
-1.39482e-11
1.90123e-11
1.14679e-11
-1.13899e-11
2.09947e-11
1.47737e-11
-7.68593e-12
2.19244e-11
-4.89022e-12
2.02041e-11
8.71497e-13
-1.30598e-12
7.53853e-13
1.66145e-12
-3.80731e-12
2.22063e-12
2.39888e-12
-6.13724e-12
3.65497e-12
3.10952e-12
-8.38357e-12
5.14941e-12
3.81719e-12
-1.06103e-11
6.78623e-12
4.54512e-12
-1.28561e-11
8.64081e-12
5.31737e-12
-1.5131e-11
1.07826e-11
6.16054e-12
-1.74094e-11
1.32737e-11
7.10614e-12
-1.96184e-11
1.61624e-11
8.19488e-12
-2.16226e-11
1.94704e-11
9.48537e-12
-2.32069e-11
2.31682e-11
1.10686e-11
-2.40756e-11
2.71305e-11
1.30755e-11
-2.39117e-11
3.10588e-11
1.5608e-11
-2.25984e-11
3.43677e-11
1.83283e-11
-2.06772e-11
3.61907e-11
-1.9755e-11
3.5128e-11
1.19326e-12
-1.67901e-12
1.02904e-12
2.27415e-12
-4.89684e-12
3.0306e-12
3.28168e-12
-7.90034e-12
4.98589e-12
4.25039e-12
-1.08068e-11
7.01995e-12
5.21228e-12
-1.37048e-11
9.24385e-12
6.19827e-12
-1.66538e-11
1.17595e-11
7.23962e-12
-1.96821e-11
1.46614e-11
8.36875e-12
-2.27809e-11
1.80347e-11
9.61895e-12
-2.58958e-11
2.19482e-11
1.10222e-11
-2.89128e-11
2.6438e-11
1.26035e-11
-3.16446e-11
3.14763e-11
1.43682e-11
-3.38255e-11
3.69149e-11
1.62719e-11
-3.51468e-11
4.23902e-11
1.81605e-11
-3.53988e-11
4.71917e-11
1.96666e-11
-3.4795e-11
5.02676e-11
-3.44892e-11
5.00485e-11
1.48947e-12
-1.99871e-12
1.27945e-12
2.83739e-12
-5.83202e-12
3.76686e-12
4.09131e-12
-9.4184e-12
6.19327e-12
5.2933e-12
-1.29035e-11
8.71187e-12
6.48241e-12
-1.6401e-11
1.14586e-11
7.69637e-12
-1.9994e-11
1.45583e-11
8.97297e-12
-2.37353e-11
1.81272e-11
1.03504e-11
-2.76443e-11
2.22717e-11
1.1865e-11
-3.17019e-11
2.70814e-11
1.35445e-11
-3.58419e-11
3.2612e-11
1.53917e-11
-3.99373e-11
3.88516e-11
1.73505e-11
-4.37799e-11
4.56588e-11
1.92439e-11
-4.70504e-11
5.26521e-11
2.07031e-11
-4.92934e-11
5.90437e-11
2.12642e-11
-5.00588e-11
6.35687e-11
-4.97437e-11
6.43517e-11
1.75463e-12
-2.25247e-12
1.50006e-12
3.34051e-12
-6.57584e-12
4.41455e-12
4.81197e-12
-1.0631e-11
7.25212e-12
6.21709e-12
-1.45891e-11
1.01889e-11
7.60058e-12
-1.85875e-11
1.33808e-11
9.00591e-12
-2.27335e-11
1.69706e-11
1.0477e-11
-2.71065e-11
2.1092e-11
1.20591e-11
-3.17591e-11
2.58684e-11
1.37972e-11
-3.67174e-11
3.14079e-11
1.57298e-11
-4.19792e-11
3.77873e-11
1.78741e-11
-4.75089e-11
4.50207e-11
2.01923e-11
-5.32197e-11
5.29987e-11
2.25225e-11
-5.892e-11
6.13703e-11
2.44719e-11
-6.41665e-11
6.93361e-11
2.54116e-11
-6.80462e-11
7.54504e-11
-6.87945e-11
7.75334e-11
1.98448e-12
-2.42892e-12
1.68732e-12
3.77537e-12
-7.09489e-12
4.9631e-12
5.43172e-12
-1.1483e-11
8.14483e-12
7.0057e-12
-1.57854e-11
1.14256e-11
8.54597e-12
-2.01594e-11
1.49755e-11
1.01001e-11
-2.47333e-11
1.89496e-11
1.1717e-11
-2.96109e-11
2.34925e-11
1.34491e-11
-3.48756e-11
2.87386e-11
1.5353e-11
-4.05958e-11
3.48076e-11
1.74896e-11
-4.68305e-11
4.17917e-11
1.99207e-11
-5.3638e-11
4.97292e-11
2.26988e-11
-6.1086e-11
5.85497e-11
2.58379e-11
-6.92494e-11
6.79598e-11
2.92231e-11
-7.81316e-11
7.72063e-11
3.22877e-11
-8.71742e-11
8.47227e-11
-9.52631e-11
8.79079e-11
2.1763e-12
1.83925e-12
-2.51862e-12
4.13693e-12
5.40683e-12
-7.36149e-12
5.94333e-12
8.86228e-12
-1.19288e-11
7.6496e-12
1.24093e-11
-1.64271e-11
9.30613e-12
1.62257e-11
-2.10276e-11
1.09623e-11
2.04726e-11
-2.58741e-11
1.26691e-11
2.52982e-11
-3.10879e-11
1.44829e-11
3.08389e-11
-3.67744e-11
1.64684e-11
3.72156e-11
-4.30289e-11
1.87033e-11
4.45227e-11
-4.99451e-11
2.12859e-11
5.28052e-11
-5.76273e-11
2.43447e-11
6.20117e-11
-6.62065e-11
2.80447e-11
7.18911e-11
-7.58546e-11
3.25302e-11
8.17664e-11
-8.67419e-11
3.73067e-11
9.0066e-11
-9.83226e-11
9.36497e-11
-1.12117e-10
1.7809e-13
-4.61287e-13
1.37674e-13
3.39247e-13
-1.34417e-12
4.05489e-13
4.89142e-13
-2.16476e-12
6.67179e-13
6.32663e-13
-2.95297e-12
9.3945e-13
7.74063e-13
-3.72974e-12
1.23695e-12
9.17106e-13
-4.50616e-12
1.5727e-12
1.06527e-12
-5.28191e-12
1.95808e-12
1.22197e-12
-6.04235e-12
2.4021e-12
1.3911e-12
-6.75369e-12
2.90966e-12
1.57851e-12
-7.35571e-12
3.47794e-12
1.79562e-12
-7.75213e-12
4.0901e-12
2.06647e-12
-7.7988e-12
4.70429e-12
2.43565e-12
-7.29203e-12
5.23516e-12
2.95357e-12
-5.9839e-12
5.52961e-12
3.54469e-12
-3.80892e-12
5.39277e-12
-1.01202e-12
4.84349e-12
5.30358e-13
-9.08797e-13
4.09497e-13
1.01022e-12
-2.64872e-12
1.20599e-12
1.45638e-12
-4.26749e-12
1.98401e-12
1.8833e-12
-5.825e-12
2.7931e-12
2.30356e-12
-7.364e-12
3.67662e-12
2.72827e-12
-8.90884e-12
4.6732e-12
3.16742e-12
-1.04628e-11
5.81661e-12
3.63017e-12
-1.20034e-11
7.13376e-12
4.12537e-12
-1.34748e-11
8.63951e-12
4.66342e-12
-1.47781e-11
1.03263e-11
5.26136e-12
-1.57632e-11
1.21461e-11
5.95212e-12
-1.62334e-11
1.3979e-11
6.78913e-12
-1.59937e-11
1.5585e-11
7.79883e-12
-1.50046e-11
1.65525e-11
8.76019e-12
-1.36938e-11
1.64109e-11
-1.34275e-11
1.48858e-11
8.71171e-13
-1.32908e-12
6.7103e-13
1.65916e-12
-3.8749e-12
1.97594e-12
2.39128e-12
-6.24713e-12
3.24978e-12
3.09104e-12
-8.53589e-12
4.57318e-12
3.77894e-12
-1.08073e-11
6.01671e-12
4.47302e-12
-1.31026e-11
7.64333e-12
5.18902e-12
-1.54353e-11
9.50838e-12
5.93988e-12
-1.77865e-11
1.16565e-11
6.73421e-12
-2.00964e-11
1.41138e-11
7.5738e-12
-2.22559e-11
1.68722e-11
8.45015e-12
-2.41022e-11
1.98619e-11
9.33777e-12
-2.54393e-11
2.29069e-11
1.01763e-11
-2.61202e-11
2.56618e-11
1.08227e-11
-2.62448e-11
2.75674e-11
1.10192e-11
-2.63613e-11
2.80454e-11
-2.74585e-11
2.71478e-11
1.19346e-12
-1.70845e-12
9.16066e-13
2.27241e-12
-4.98296e-12
2.69689e-12
3.27378e-12
-8.04023e-12
4.43359e-12
4.22934e-12
-1.10003e-11
6.23508e-12
5.167e-12
-1.3954e-11
8.19674e-12
6.11137e-12
-1.69632e-11
1.04038e-11
7.08368e-12
-2.00591e-11
1.29318e-11
8.10005e-12
-2.32377e-11
1.58429e-11
9.16711e-12
-2.64539e-11
1.91764e-11
1.02728e-11
-2.96129e-11
2.29301e-11
1.13694e-11
-3.25654e-11
2.70273e-11
1.23437e-11
-3.51181e-11
3.1265e-11
1.29732e-11
-3.70891e-11
3.52463e-11
1.29095e-11
-3.84425e-11
3.83418e-11
1.1938e-11
-3.94413e-11
3.98908e-11
-4.08364e-11
3.99182e-11
1.49076e-12
-2.03348e-12
1.13911e-12
2.83745e-12
-5.93366e-12
3.35249e-12
4.08535e-12
-9.5833e-12
5.50795e-12
5.27355e-12
-1.31311e-11
7.73899e-12
6.43666e-12
-1.66929e-11
1.01624e-11
7.60564e-12
-2.03536e-11
1.28828e-11
8.80762e-12
-2.41674e-11
1.59934e-11
1.00637e-11
-2.81551e-11
1.95725e-11
1.13828e-11
-3.2301e-11
2.36739e-11
1.27479e-11
-3.65458e-11
2.83061e-11
1.40896e-11
-4.07772e-11
3.3398e-11
1.52365e-11
-4.4819e-11
3.87418e-11
1.58437e-11
-4.84165e-11
4.39193e-11
1.53683e-11
-5.12329e-11
4.82511e-11
1.35153e-11
-5.2938e-11
5.09553e-11
-5.38084e-11
5.19337e-11
1.75753e-12
-2.29136e-12
1.33572e-12
3.34358e-12
-6.6895e-12
3.92952e-12
4.81017e-12
-1.08152e-11
6.45067e-12
6.20244e-12
-1.48428e-11
9.05273e-12
7.56073e-12
-1.89118e-11
1.18697e-11
8.92189e-12
-2.31301e-11
1.50215e-11
1.03196e-11
-2.75768e-11
1.86154e-11
1.17826e-11
-3.23026e-11
2.2743e-11
1.333e-11
-3.73297e-11
2.74706e-11
1.49583e-11
-4.2649e-11
3.2819e-11
1.66164e-11
-4.8214e-11
3.87279e-11
1.81557e-11
-5.3921e-11
4.49964e-11
1.92476e-11
-5.95567e-11
5.11979e-11
1.93128e-11
-6.46705e-11
5.6601e-11
1.78641e-11
-6.84195e-11
6.02792e-11
-6.91842e-11
6.20523e-11
1.98947e-12
-2.4706e-12
1.5027e-12
3.78247e-12
-7.21668e-12
4.41855e-12
5.43593e-12
-1.16803e-11
7.24608e-12
6.99933e-12
-1.60568e-11
1.01537e-11
8.51732e-12
-2.05051e-11
1.32877e-11
1.00315e-11
-2.51538e-11
1.67784e-11
1.15815e-11
-3.01045e-11
2.07424e-11
1.32052e-11
-3.54357e-11
2.52791e-11
1.49364e-11
-4.12055e-11
3.04627e-11
1.67989e-11
-4.74554e-11
3.63221e-11
1.8793e-11
-5.42113e-11
4.28055e-11
2.08678e-11
-6.14819e-11
4.97183e-11
2.2869e-11
-6.92359e-11
5.66228e-11
2.44625e-11
-7.73035e-11
6.2716e-11
2.51448e-11
-8.4994e-11
6.6873e-11
-9.10982e-11
6.87117e-11
2.18367e-12
1.6383e-12
-2.56163e-12
4.14873e-12
4.81449e-12
-7.48719e-12
5.95481e-12
7.88596e-12
-1.21324e-11
7.65369e-12
1.10304e-11
-1.6707e-11
9.29232e-12
1.44012e-11
-2.13837e-11
1.09149e-11
1.81337e-11
-2.63057e-11
1.25649e-11
2.23475e-11
-3.15913e-11
1.42864e-11
2.71437e-11
-3.73387e-11
1.61252e-11
3.25967e-11
-4.36297e-11
1.81286e-11
3.87349e-11
-5.05344e-11
2.03431e-11
4.55066e-11
-5.81142e-11
2.28075e-11
5.27173e-11
-6.64245e-11
2.55335e-11
5.99231e-11
-7.55026e-11
2.84427e-11
6.62841e-11
-8.5299e-11
3.10611e-11
7.05426e-11
-9.51121e-11
7.15093e-11
-1.05863e-10
1.7738e-13
-4.68042e-13
1.15937e-13
3.37483e-13
-1.36395e-12
3.41352e-13
4.85531e-13
-2.19698e-12
5.61269e-13
6.25834e-13
-2.99775e-12
7.89461e-13
7.61804e-13
-3.78799e-12
1.0378e-12
8.95925e-13
-4.57989e-12
1.31654e-12
1.02967e-12
-5.37503e-12
1.6341e-12
1.16324e-12
-6.16247e-12
1.99635e-12
1.29522e-12
-6.91576e-12
2.40474e-12
1.42254e-12
-7.5894e-12
2.85307e-12
1.54127e-12
-8.11599e-12
3.32229e-12
1.64871e-12
-8.40632e-12
3.77325e-12
1.74539e-12
-8.35389e-12
4.1388e-12
1.82794e-12
-7.84809e-12
4.32507e-12
1.85963e-12
-6.85389e-12
4.25869e-12
-5.09387e-12
4.19462e-12
5.28353e-13
-9.22021e-13
3.44853e-13
1.00521e-12
-2.68744e-12
1.01528e-12
1.44606e-12
-4.33046e-12
1.66914e-12
1.86369e-12
-5.9123e-12
2.34726e-12
2.26828e-12
-7.47708e-12
3.08483e-12
2.66727e-12
-9.051e-12
3.91224e-12
3.06497e-12
-1.06404e-11
4.85459e-12
3.46151e-12
-1.22287e-11
5.92949e-12
3.85112e-12
-1.37716e-11
7.14174e-12
4.22039e-12
-1.51927e-11
8.47415e-12
4.5473e-12
-1.63838e-11
9.8729e-12
4.80219e-12
-1.72207e-11
1.12276e-11
4.94919e-12
-1.76119e-11
1.23515e-11
4.94225e-12
-1.75979e-11
1.2992e-11
4.73674e-12
-1.74508e-11
1.29713e-11
-1.78096e-11
1.23576e-11
8.68238e-13
-1.34825e-12
5.65142e-13
1.65171e-12
-3.93098e-12
1.6636e-12
2.37571e-12
-6.33816e-12
2.73424e-12
3.06115e-12
-8.66163e-12
3.84352e-12
3.72486e-12
-1.09692e-11
5.04871e-12
4.37932e-12
-1.3304e-11
6.39942e-12
5.03175e-12
-1.56828e-11
7.93697e-12
5.68176e-12
-1.80924e-11
9.69086e-12
6.31709e-12
-2.04843e-11
1.1671e-11
6.90699e-12
-2.2771e-11
1.38538e-11
7.39349e-12
-2.4829e-11
1.61612e-11
7.6812e-12
-2.65254e-11
1.84329e-11
7.63312e-12
-2.77925e-11
2.04054e-11
7.10428e-12
-2.87612e-11
2.17418e-11
6.14695e-12
-2.97949e-11
2.22291e-11
-3.13558e-11
2.21876e-11
1.19015e-12
-1.73284e-12
7.71589e-13
2.26374e-12
-5.05422e-12
2.27083e-12
3.25513e-12
-8.15562e-12
3.73065e-12
4.19288e-12
-1.1159e-11
5.24087e-12
5.10033e-12
-1.41568e-11
6.87891e-12
5.99533e-12
-1.72125e-11
8.71205e-12
6.88878e-12
-2.0359e-11
1.07969e-11
7.78108e-12
-2.35961e-11
1.3175e-11
8.65489e-12
-2.68854e-11
1.58636e-11
9.46252e-12
-3.01458e-11
1.88389e-11
1.01059e-11
-3.32527e-11
2.20113e-11
1.04087e-11
-3.6053e-11
2.51957e-11
1.00987e-11
-3.84137e-11
2.8093e-11
8.88239e-12
-4.03162e-11
3.03354e-11
6.89752e-12
-4.19033e-11
3.16787e-11
-4.35607e-11
3.24135e-11
1.48773e-12
-2.06218e-12
9.59577e-13
2.82899e-12
-6.01743e-12
2.82322e-12
4.06619e-12
-9.71864e-12
4.63531e-12
5.23486e-12
-1.33164e-11
6.50594e-12
6.36464e-12
-1.69279e-11
8.52998e-12
7.47913e-12
-2.06386e-11
1.07901e-11
8.59448e-12
-2.45025e-11
1.33564e-11
9.71531e-12
-2.85403e-11
1.62818e-11
1.0826e-11
-3.2736e-11
1.95918e-11
1.18746e-11
-3.70312e-11
2.32666e-11
1.27441e-11
-4.1317e-11
2.72139e-11
1.32093e-11
-4.54232e-11
3.1237e-11
1.28941e-11
-4.91042e-11
3.50162e-11
1.1339e-11
-5.20245e-11
3.8155e-11
8.60569e-12
-5.38185e-11
4.03469e-11
-5.45515e-11
4.18163e-11
1.75545e-12
-2.32335e-12
1.12536e-12
3.33677e-12
-6.78279e-12
3.30966e-12
4.79308e-12
-1.09656e-11
5.42956e-12
6.16589e-12
-1.5048e-11
7.61171e-12
7.49053e-12
-1.917e-11
9.96507e-12
8.79656e-12
-2.34393e-11
1.25845e-11
1.01068e-11
-2.79324e-11
1.55509e-11
1.14343e-11
-3.26955e-11
1.89262e-11
1.27747e-11
-3.77426e-11
2.27434e-11
1.40919e-11
-4.30519e-11
2.69868e-11
1.52911e-11
-4.85555e-11
3.15636e-11
1.61747e-11
-5.41167e-11
3.62666e-11
1.63876e-11
-5.94743e-11
4.07486e-11
1.54345e-11
-6.41264e-11
4.45572e-11
1.31775e-11
-6.72416e-11
4.73015e-11
-6.72354e-11
4.92136e-11
1.9889e-12
-2.50476e-12
1.26626e-12
3.77859e-12
-7.31623e-12
3.72217e-12
5.42319e-12
-1.18405e-11
6.10014e-12
6.96873e-12
-1.62746e-11
8.53914e-12
8.45516e-12
-2.07779e-11
1.11582e-11
9.91728e-12
-2.54769e-11
1.40607e-11
1.13849e-11
-3.04692e-11
1.73343e-11
1.28812e-11
-3.58247e-11
2.10466e-11
1.44194e-11
-4.15874e-11
2.52342e-11
1.59937e-11
-4.77739e-11
2.98831e-11
1.75645e-11
-5.43695e-11
3.48967e-11
1.90328e-11
-6.1316e-11
4.00524e-11
2.02101e-11
-6.84794e-11
4.49575e-11
2.08188e-11
-7.55643e-11
4.90573e-11
2.06745e-11
-8.18742e-11
5.18155e-11
-8.63335e-11
5.34561e-11
2.18506e-12
1.38075e-12
-2.59678e-12
4.14874e-12
4.0564e-12
-7.5896e-12
5.94813e-12
6.64008e-12
-1.22971e-11
7.63191e-12
9.27855e-12
-1.69305e-11
9.24285e-12
1.20967e-11
-2.16623e-11
1.08192e-11
1.5202e-11
-2.66334e-11
1.23958e-11
1.86847e-11
-3.19564e-11
1.40042e-11
2.2613e-11
-3.77188e-11
1.56724e-11
2.70227e-11
-4.39844e-11
1.74222e-11
3.18969e-11
-5.07926e-11
1.92648e-11
3.71323e-11
-5.81559e-11
2.11932e-11
4.24905e-11
-6.60509e-11
2.31762e-11
4.75395e-11
-7.43996e-11
2.51546e-11
5.16343e-11
-8.30176e-11
2.69181e-11
5.40951e-11
-9.12352e-11
5.46707e-11
-1.00046e-10
1.76373e-13
-4.73376e-13
9.03314e-14
3.35162e-13
-1.37956e-12
2.65886e-13
4.81153e-13
-2.22239e-12
4.36932e-13
6.18093e-13
-3.03305e-12
6.14013e-13
7.48596e-13
-3.83385e-12
8.06066e-13
8.74005e-13
-4.63778e-12
1.02057e-12
9.94107e-13
-5.44787e-12
1.26338e-12
1.1066e-12
-6.2559e-12
1.53799e-12
1.20641e-12
-7.04055e-12
1.84412e-12
1.28518e-12
-7.76563e-12
2.1754e-12
1.3317e-12
-8.37967e-12
2.51619e-12
1.33435e-12
-8.8177e-12
2.83856e-12
1.2865e-12
-9.00216e-12
3.10188e-12
1.19329e-12
-8.8334e-12
3.26202e-12
1.07598e-12
-8.2052e-12
3.29903e-12
-6.60984e-12
3.4574e-12
5.25475e-13
-9.32477e-13
2.68701e-13
9.98558e-13
-2.71803e-12
7.9086e-13
1.43346e-12
-4.38016e-12
1.29945e-12
1.84135e-12
-5.98105e-12
1.82571e-12
2.2301e-12
-7.5658e-12
2.39612e-12
2.60392e-12
-9.16192e-12
3.03291e-12
2.96233e-12
-1.0778e-11
3.75349e-12
3.29847e-12
-1.24017e-11
4.56848e-12
3.5966e-12
-1.39965e-11
5.4775e-12
3.82949e-12
-1.54995e-11
6.4626e-12
3.95778e-12
-1.68248e-11
7.47952e-12
3.93454e-12
-1.78769e-11
8.4492e-12
3.72187e-12
-1.85841e-11
9.25691e-12
3.32888e-12
-1.8949e-11
9.77789e-12
2.87997e-12
-1.90803e-11
9.95584e-12
-1.93307e-11
9.79751e-12
8.63881e-13
-1.36342e-12
4.40377e-13
1.64158e-12
-3.9753e-12
1.29598e-12
2.35638e-12
-6.40992e-12
2.12884e-12
3.02666e-12
-8.76031e-12
2.98976e-12
3.66577e-12
-1.10953e-11
3.92188e-12
4.28125e-12
-1.34595e-11
4.96153e-12
4.87319e-12
-1.58716e-11
6.13746e-12
5.43099e-12
-1.83221e-11
7.46766e-12
5.92836e-12
-2.07695e-11
8.95319e-12
6.31666e-12
-2.3138e-11
1.05683e-11
6.51868e-12
-2.53223e-11
1.22481e-11
6.42864e-12
-2.72095e-11
1.38771e-11
5.93649e-12
-2.87347e-11
1.5292e-11
5.01909e-12
-2.99681e-11
1.63224e-11
3.9612e-12
-3.11189e-11
1.68945e-11
-3.24823e-11
1.71664e-11
1.18489e-12
-1.75211e-12
6.01309e-13
2.25138e-12
-5.11044e-12
1.76922e-12
3.23124e-12
-8.2463e-12
2.90496e-12
4.14986e-12
-1.12829e-11
4.07718e-12
5.0263e-12
-1.43135e-11
5.34422e-12
5.87234e-12
-1.74023e-11
6.75543e-12
6.6903e-12
-2.05831e-11
8.3503e-12
7.46862e-12
-2.38568e-11
1.01545e-11
8.1743e-12
-2.71881e-11
1.21723e-11
8.7414e-12
-3.05005e-11
1.4375e-11
9.05619e-12
-3.36764e-11
1.66859e-11
8.9451e-12
-3.65674e-11
1.897e-11
8.1928e-12
-3.9029e-11
2.10406e-11
6.67233e-12
-4.09879e-11
2.27131e-11
4.75959e-12
-4.24895e-11
2.38954e-11
-4.38415e-11
2.4704e-11
1.48223e-12
-2.08481e-12
7.47906e-13
2.81583e-12
-6.08333e-12
2.19989e-12
4.04028e-12
-9.82453e-12
3.60987e-12
5.18759e-12
-1.34601e-11
5.06204e-12
6.28266e-12
-1.71076e-11
6.62791e-12
7.34253e-12
-2.08522e-11
8.36822e-12
8.37415e-12
-2.47467e-11
1.03319e-11
9.36976e-12
-2.88094e-11
1.2552e-11
1.02982e-11
-3.30209e-11
1.50367e-11
1.10907e-11
-3.73174e-11
1.7757e-11
1.16199e-11
-4.15813e-11
2.06299e-11
1.1674e-11
-4.56276e-11
2.35068e-11
1.09538e-11
-4.91838e-11
2.61833e-11
9.18904e-12
-5.18727e-11
2.84565e-11
6.66991e-12
-5.3305e-11
3.0199e-11
-5.35588e-11
3.14844e-11
1.75039e-12
-2.3485e-12
8.77246e-13
3.32429e-12
-6.85591e-12
2.57929e-12
4.76776e-12
-1.10827e-11
4.22903e-12
6.11869e-12
-1.52059e-11
5.92333e-12
7.40763e-12
-1.93655e-11
7.74437e-12
8.65753e-12
-2.36674e-11
9.76196e-12
9.88218e-12
-2.81847e-11
1.20326e-11
1.10826e-11
-3.29572e-11
1.45949e-11
1.224e-11
-3.7989e-11
1.74606e-11
1.33036e-11
-4.32415e-11
2.06e-11
1.41713e-11
-4.86218e-11
2.39236e-11
1.46639e-11
-5.39564e-11
2.72662e-11
1.45084e-11
-5.89364e-11
3.03922e-11
1.34024e-11
-6.30224e-11
3.3055e-11
1.14293e-11
-6.54328e-11
3.50857e-11
-6.47744e-11
3.65913e-11
1.98489e-12
-2.53152e-12
9.87218e-13
3.76811e-12
-7.39397e-12
2.90119e-12
5.4008e-12
-1.19647e-11
4.75207e-12
6.92549e-12
-1.64413e-11
6.64619e-12
8.37756e-12
-2.09822e-11
8.67345e-12
9.78559e-12
-2.57116e-11
1.09099e-11
1.11709e-11
-3.07213e-11
1.34169e-11
1.2546e-11
-3.60717e-11
1.62364e-11
1.39106e-11
-4.17909e-11
1.9381e-11
1.52462e-11
-4.78705e-11
2.28186e-11
1.65066e-11
-5.42574e-11
2.64505e-11
1.7609e-11
-6.08389e-11
3.00877e-11
1.84381e-11
-6.74148e-11
3.34452e-11
1.88917e-11
-7.36457e-11
3.61912e-11
1.8998e-11
-7.89338e-11
3.80789e-11
-8.25004e-11
3.92856e-11
2.18258e-12
1.07662e-12
-2.62424e-12
4.14131e-12
3.16214e-12
-7.66929e-12
5.93051e-12
5.17348e-12
-1.24242e-11
7.59566e-12
7.22303e-12
-1.71004e-11
9.1754e-12
9.40522e-12
-2.18694e-11
1.07024e-11
1.17992e-11
-2.68685e-11
1.22039e-11
1.44682e-11
-3.22036e-11
1.37021e-11
1.74541e-11
-3.79506e-11
1.52133e-11
2.0768e-11
-4.41542e-11
1.67478e-11
2.43735e-11
-5.08248e-11
1.83096e-11
2.81618e-11
-5.79315e-11
1.99019e-11
3.19224e-11
-6.53923e-11
2.15476e-11
3.53244e-11
-7.30635e-11
2.33248e-11
3.79506e-11
-8.07273e-11
2.52091e-11
3.94623e-11
-8.78493e-11
3.98104e-11
-9.57021e-11
1.75327e-13
-4.77287e-13
6.18042e-14
3.3283e-13
-1.39102e-12
1.81881e-13
4.76918e-13
-2.24106e-12
2.98763e-13
6.10861e-13
-3.05899e-12
4.19569e-13
7.36627e-13
-3.86746e-12
5.50245e-13
8.54679e-13
-4.67995e-12
6.95653e-13
9.6361e-13
-5.50037e-12
8.59426e-13
1.05956e-12
-6.3221e-12
1.04348e-12
1.13555e-12
-7.12655e-12
1.24708e-12
1.18135e-12
-7.88182e-12
1.46548e-12
1.18476e-12
-8.54214e-12
1.68846e-12
1.13597e-12
-9.04744e-12
1.89956e-12
1.03651e-12
-9.31763e-12
2.07752e-12
9.09961e-13
-9.23088e-12
2.20289e-12
7.98798e-13
-8.63314e-12
2.26761e-12
-6.97055e-12
2.44273e-12
5.22479e-13
-9.40189e-13
1.83853e-13
9.91861e-13
-2.7406e-12
5.41027e-13
1.42125e-12
-4.41679e-12
8.88596e-13
1.82043e-12
-6.03161e-12
1.24763e-12
2.19543e-12
-7.63071e-12
1.63576e-12
2.54795e-12
-9.24236e-12
2.06744e-12
2.87413e-12
-1.08765e-11
2.55351e-12
3.1628e-12
-1.2523e-11
3.09981e-12
3.39314e-12
-1.41493e-11
3.70445e-12
3.53345e-12
-1.56982e-11
4.35398e-12
3.54343e-12
-1.70902e-11
5.01932e-12
3.38535e-12
-1.82318e-11
5.65332e-12
3.0517e-12
-1.90352e-11
6.19431e-12
2.61262e-12
-1.94476e-11
6.58239e-12
2.24701e-12
-1.94955e-11
6.78758e-12
-1.94805e-11
6.76863e-12
8.59311e-13
-1.37464e-12
3.01344e-13
1.63132e-12
-4.00805e-12
8.86668e-13
2.33753e-12
-6.46283e-12
1.4559e-12
2.9942e-12
-8.83272e-12
2.0433e-12
3.61184e-12
-1.11871e-11
2.67759e-12
4.19423e-12
-1.35713e-11
3.38241e-12
4.73642e-12
-1.60049e-11
4.17573e-12
5.22156e-12
-1.84801e-11
5.06753e-12
5.61659e-12
-2.09579e-11
6.05581e-12
5.86809e-12
-2.33663e-11
7.12088e-12
5.90176e-12
-2.56023e-11
8.21954e-12
5.63377e-12
-2.75479e-11
9.28207e-12
5.0121e-12
-2.91107e-11
1.02186e-11
4.11465e-12
-3.02959e-11
1.09427e-11
3.28653e-12
-3.12427e-11
1.1407e-11
-3.22533e-11
1.16549e-11
1.17927e-12
-1.76638e-12
4.1151e-13
2.23864e-12
-5.15199e-12
1.21057e-12
3.20764e-12
-8.31304e-12
1.9869e-12
4.10896e-12
-1.13734e-11
2.78677e-12
4.95818e-12
-1.44267e-11
3.64903e-12
5.76244e-12
-1.75371e-11
4.60586e-12
6.51804e-12
-2.07383e-11
5.68196e-12
7.20623e-12
-2.4031e-11
6.89173e-12
7.78694e-12
-2.73788e-11
8.23424e-12
8.191e-12
-3.0704e-11
9.68644e-12
8.31339e-12
-3.38841e-11
1.11965e-11
8.01592e-12
-3.67579e-11
1.26812e-11
7.16475e-12
-3.91498e-11
1.40361e-11
5.75819e-12
-4.09329e-11
1.51653e-11
4.21544e-12
-4.21183e-11
1.60057e-11
-4.30613e-11
1.65672e-11
1.47614e-12
-2.10154e-12
5.11894e-13
2.80189e-12
-6.13194e-12
1.50543e-12
4.01415e-12
-9.90221e-12
2.46933e-12
5.14193e-12
-1.35645e-11
3.46032e-12
6.20628e-12
-1.72363e-11
4.52607e-12
7.21921e-12
-2.10018e-11
5.70621e-12
8.18125e-12
-2.4912e-11
7.03142e-12
9.0773e-12
-2.89819e-11
8.52022e-12
9.8697e-12
-3.31869e-11
1.01733e-11
1.04887e-11
-3.74545e-11
1.19657e-11
1.08205e-11
-4.16538e-11
1.38396e-11
1.06987e-11
-4.55791e-11
1.57005e-11
9.92026e-12
-4.89281e-11
1.74303e-11
8.35206e-12
-5.12934e-11
1.89204e-11
6.31016e-12
-5.2299e-11
2.00856e-11
-5.21108e-11
2.0912e-11
1.74444e-12
-2.36705e-12
6.00493e-13
3.31044e-12
-6.90969e-12
1.76527e-12
4.74138e-12
-1.11682e-11
2.89321e-12
6.07202e-12
-1.532e-11
4.04958e-12
7.32901e-12
-1.95041e-11
5.2892e-12
8.53022e-12
-2.38246e-11
6.65767e-12
9.68312e-12
-2.8351e-11
8.19037e-12
1.07818e-11
-3.31166e-11
9.90901e-12
1.18016e-11
-3.8115e-11
1.18153e-11
1.26924e-11
-4.32926e-11
1.38823e-11
1.33683e-11
-4.8534e-11
1.60447e-11
1.3699e-11
-5.36374e-11
1.81931e-11
1.35116e-11
-5.82658e-11
2.01852e-11
1.26432e-11
-6.18744e-11
2.18831e-11
1.11959e-11
-6.375e-11
2.31829e-11
-6.26791e-11
2.41045e-11
1.97962e-12
-2.55122e-12
6.75847e-13
3.75553e-12
-7.45099e-12
1.98581e-12
5.37623e-12
-1.2055e-11
3.25141e-12
6.88122e-12
-1.65609e-11
4.54437e-12
8.30211e-12
-2.11259e-11
5.92468e-12
9.66264e-12
-2.58712e-11
7.44207e-12
1.09782e-11
-3.08832e-11
9.13492e-12
1.2255e-11
-3.62135e-11
1.10266e-11
1.34876e-11
-4.18759e-11
1.31186e-11
1.46585e-11
-4.7841e-11
1.53806e-11
1.5737e-11
-5.40272e-11
1.77378e-11
1.66862e-11
-6.02878e-11
2.00605e-11
1.74839e-11
-6.63951e-11
2.21689e-11
1.81599e-11
-7.20212e-11
2.387e-11
1.87662e-11
-7.66787e-11
2.50225e-11
-7.98087e-11
2.57196e-11
2.17841e-12
7.37119e-13
-2.6444e-12
4.13096e-12
2.16463e-12
-7.72759e-12
5.90944e-12
3.54014e-12
-1.25164e-11
7.55655e-12
4.93947e-12
-1.72218e-11
9.10745e-12
6.42572e-12
-2.2014e-11
1.05904e-11
8.0507e-12
-2.70264e-11
1.20274e-11
9.85384e-12
-3.23588e-11
1.34349e-11
1.18584e-11
-3.80764e-11
1.48246e-11
1.40641e-11
-4.42078e-11
1.62071e-11
1.64366e-11
-5.074e-11
1.75993e-11
1.88923e-11
-5.76115e-11
1.90417e-11
2.12831e-11
-6.47068e-11
2.06345e-11