/*--------------------------------*- C++ -*----------------------------------*\
| =========                 |                                                 |
| \\      /  F ield         | OpenFOAM: The Open Source CFD Toolbox           |
|  \\    /   O peration     | Version:  v1912                                 |
|   \\  /    A nd           | Website:  www.openfoam.com                      |
|    \\/     M anipulation  |                                                 |
\*---------------------------------------------------------------------------*/
FoamFile
{
    version     2.0;
    format      ascii;
    class       surfaceScalarField;
    location    "0.6/fluid";
    object      phi;
}
// * * * * * * * * * * * * * * * * * * * * * * * * * * * * * * * * * * * * * //

dimensions      [0 3 -1 0 0 0 0];
oriented        oriented;


internalField   nonuniform List<scalar> 
41600
(
5.02069e-05
1.24915e-05
3.59215e-07
-5.57651e-07
4.04116e-05
1.01443e-05
5.62302e-07
-9.11334e-07
3.34098e-05
7.36897e-06
4.02809e-07
-7.69951e-07
2.92854e-05
4.43758e-06
2.92361e-09
-3.16148e-07
2.694e-05
2.57444e-06
-5.74277e-07
3.45283e-07
2.55849e-05
1.49817e-06
-1.28603e-06
1.14289e-06
2.46782e-05
9.71561e-07
-2.14462e-06
2.07981e-06
2.39221e-05
7.44086e-07
-3.18888e-06
3.20084e-06
2.31541e-05
6.72116e-07
-4.48504e-06
4.58096e-06
2.22718e-05
6.60375e-07
-6.12444e-06
6.3463e-06
2.11995e-05
6.58605e-07
-8.25829e-06
8.672e-06
1.97994e-05
5.77007e-07
-1.10276e-05
1.18507e-05
1.78621e-05
4.12144e-07
-1.48267e-05
1.63519e-05
1.47961e-05
-1.84042e-07
-1.93587e-05
2.26087e-05
9.32879e-06
-7.0314e-07
-2.46724e-05
3.08428e-05
-3.21946e-06
-2.02415e-05
3.27897e-05
6.494e-05
1.03277e-05
4.77906e-07
-7.54058e-07
6.39815e-05
1.16214e-05
7.66178e-07
-1.2848e-06
6.1967e-05
9.97777e-06
5.6122e-07
-1.15554e-06
5.979e-05
7.16784e-06
-3.99218e-08
-5.13353e-07
5.79091e-05
4.898e-06
-9.70825e-07
5.28181e-07
5.63515e-05
3.36438e-06
-2.17375e-06
1.86513e-06
5.4974e-05
2.52445e-06
-3.65799e-06
3.48261e-06
5.36017e-05
2.16008e-06
-5.48312e-06
5.43945e-06
5.20766e-05
2.10041e-06
-7.75798e-06
7.85475e-06
5.02313e-05
2.21433e-06
-1.06414e-05
1.09327e-05
4.78882e-05
2.41866e-06
-1.43813e-05
1.49644e-05
4.46885e-05
2.60219e-06
-1.92471e-05
2.04216e-05
4.01565e-05
2.72942e-06
-2.57915e-05
2.80062e-05
3.28679e-05
2.39986e-06
-3.36566e-05
3.83613e-05
2.13583e-05
1.77547e-06
-4.19409e-05
5.09719e-05
-1.373e-06
-3.3655e-05
5.31669e-05
6.63459e-05
6.77698e-06
5.11691e-07
-8.06804e-07
6.87342e-05
9.79882e-06
8.22666e-07
-1.38842e-06
6.97973e-05
9.57426e-06
6.08053e-07
-1.26764e-06
6.97674e-05
7.82324e-06
-3.26393e-08
-5.9281e-07
6.91463e-05
6.03115e-06
-1.03382e-06
5.21756e-07
6.82077e-05
4.67098e-06
-2.34132e-06
1.97327e-06
6.70643e-05
3.88889e-06
-3.96656e-06
3.74554e-06
6.57015e-05
3.59739e-06
-5.97463e-06
5.9002e-06
6.40343e-05
3.68576e-06
-8.48307e-06
8.56484e-06
6.19044e-05
4.04978e-06
-1.16685e-05
1.1963e-05
5.90901e-05
4.61894e-06
-1.57995e-05
1.64136e-05
5.51395e-05
5.29587e-06
-2.1191e-05
2.24478e-05
4.94274e-05
6.03848e-06
-2.84257e-05
3.08287e-05
4.02418e-05
6.42267e-06
-3.72083e-05
4.23711e-05
2.587e-05
6.10315e-06
-4.64417e-05
5.64857e-05
2.22342e-06
-3.76652e-05
5.99387e-05
6.51863e-05
4.38773e-06
5.2829e-07
-8.25298e-07
6.80732e-05
7.48793e-06
8.57532e-07
-1.43355e-06
7.02144e-05
8.10686e-06
6.50471e-07
-1.32426e-06
7.13191e-05
7.35867e-06
1.4492e-08
-6.5468e-07
7.16106e-05
6.26578e-06
-9.80463e-07
4.54339e-07
7.13153e-05
5.34722e-06
-2.28042e-06
1.89949e-06
7.05942e-05
4.84241e-06
-3.89687e-06
3.6645e-06
6.94981e-05
4.77768e-06
-5.89529e-06
5.81108e-06
6.79902e-05
5.11983e-06
-8.392e-06
8.46582e-06
6.5931e-05
5.82013e-06
-1.15669e-05
1.18557e-05
6.30874e-05
6.84874e-06
-1.56879e-05
1.63017e-05
5.89625e-05
8.1503e-06
-2.10915e-05
2.2362e-05
5.28464e-05
9.70282e-06
-2.8362e-05
3.08137e-05
4.29036e-05
1.10484e-05
-3.72904e-05
4.26075e-05
2.72301e-05
1.13581e-05
-4.67752e-05
5.71937e-05
6.22092e-06
-3.82584e-05
6.14909e-05
6.42637e-05
2.91877e-06
5.47554e-07
-8.42297e-07
6.68005e-05
5.52641e-06
9.02913e-07
-1.47818e-06
6.90901e-05
6.49034e-06
7.18344e-07
-1.39146e-06
7.06683e-05
6.41907e-06
1.05861e-07
-7.44437e-07
7.15135e-05
5.94482e-06
-8.58371e-07
3.34077e-07
7.17305e-05
5.51038e-06
-2.11632e-06
1.73622e-06
7.14397e-05
5.36669e-06
-3.67522e-06
3.4417e-06
7.06991e-05
5.60653e-06
-5.5962e-06
5.50796e-06
6.94936e-05
6.25924e-06
-7.98802e-06
8.0541e-06
6.77002e-05
7.33807e-06
-1.10261e-05
1.13016e-05
6.50873e-05
8.86836e-06
-1.49646e-05
1.55578e-05
6.1126e-05
1.08723e-05
-2.01516e-05
2.1391e-05
5.50245e-05
1.33943e-05
-2.71489e-05
2.95589e-05
4.47729e-05
1.6019e-05
-3.58714e-05
4.11525e-05
2.81681e-05
1.75543e-05
-4.52346e-05
5.56433e-05
1.10366e-05
-3.73282e-05
6.06806e-05
6.37595e-05
1.95151e-06
5.69702e-07
-8.61914e-07
6.59201e-05
3.93811e-06
9.574e-07
-1.52975e-06
6.81287e-05
4.95153e-06
8.05445e-07
-1.47521e-06
6.99031e-05
5.27929e-06
2.27298e-07
-8.61945e-07
7.10853e-05
5.28339e-06
-6.94781e-07
1.74049e-07
7.16833e-05
5.29044e-06
-1.89643e-06
1.51831e-06
7.17662e-05
5.51813e-06
-3.37788e-06
3.14356e-06
7.13789e-05
6.08703e-06
-5.19282e-06
5.09965e-06
7.05128e-05
7.06991e-06
-7.43888e-06
7.49432e-06
6.90536e-05
8.5416e-06
-1.02827e-05
1.05383e-05
6.67714e-05
1.05909e-05
-1.39571e-05
1.45168e-05
6.31055e-05
1.33568e-05
-1.88177e-05
1.99991e-05
5.71879e-05
1.69951e-05
-2.53841e-05
2.77009e-05
4.67968e-05
2.12707e-05
-3.37319e-05
3.88713e-05
2.93676e-05
2.47874e-05
-4.27831e-05
5.29791e-05
1.72797e-05
-3.58034e-05
5.89279e-05
6.35363e-05
1.20566e-06
5.96079e-07
-8.86507e-07
6.54763e-05
2.56811e-06
1.02166e-06
-1.59165e-06
6.76164e-05
3.47865e-06
9.0996e-07
-1.57718e-06
6.95015e-05
4.02632e-06
3.74531e-07
-1.00668e-06
7.09154e-05
4.38866e-06
-4.96312e-07
-2.2887e-08
7.18139e-05
4.77058e-06
-1.62999e-06
1.25135e-06
7.22352e-05
5.33526e-06
-3.01667e-06
2.77826e-06
7.22213e-05
6.20419e-06
-4.69806e-06
4.59479e-06
7.17822e-05
7.47363e-06
-6.75382e-06
6.78927e-06
7.08369e-05
9.27005e-06
-9.33043e-06
9.54723e-06
6.92021e-05
1.1739e-05
-1.26192e-05
1.31058e-05
6.6349e-05
1.51734e-05
-1.6954e-05
1.79904e-05
6.14146e-05
1.98921e-05
-2.27491e-05
2.47865e-05
5.17895e-05
2.63028e-05
-3.02441e-05
3.48371e-05
3.417e-05
3.327e-05
-3.825e-05
4.73869e-05
2.98696e-05
-3.25597e-05
5.41398e-05
6.34606e-05
6.25285e-07
-9.1497e-07
5.34714e-07
6.53267e-05
1.09226e-06
-1.66137e-06
1.27118e-06
6.74718e-05
1.02511e-06
-1.6916e-06
2.00003e-06
6.94603e-05
5.37119e-07
-1.16905e-06
2.66979e-06
7.10553e-05
-2.77744e-07
-2.42386e-07
3.31378e-06
7.21919e-05
-1.33829e-06
9.56679e-07
4.01556e-06
7.28978e-05
-2.62352e-06
2.37873e-06
4.87413e-06
7.322e-05
-4.1616e-06
4.0461e-06
5.99752e-06
7.3187e-05
-6.01294e-06
6.02637e-06
7.49318e-06
7.27503e-05
-8.30097e-06
8.47665e-06
9.53107e-06
7.17736e-05
-1.11734e-05
1.15847e-05
1.23044e-05
6.97773e-05
-1.49348e-05
1.58223e-05
1.62823e-05
6.59796e-05
-1.98898e-05
2.16458e-05
2.19337e-05
5.75451e-05
-2.64589e-05
3.0499e-05
3.06973e-05
4.09556e-05
-3.34252e-05
4.15208e-05
4.17639e-05
-2.98991e-05
5.01926e-05
5.05316e-05
5.01429e-05
1.24971e-05
2.19165e-07
4.02277e-05
1.01613e-05
3.16242e-07
3.30956e-05
7.38863e-06
1.46348e-07
2.88496e-05
4.45564e-06
-2.06732e-07
2.63877e-05
2.59332e-06
-7.05713e-07
2.49073e-05
1.52203e-06
-1.32764e-06
2.38481e-05
1.0047e-06
-2.09016e-06
2.28953e-05
7.8963e-07
-3.02564e-06
2.18658e-05
7.34094e-07
-4.18966e-06
2.06399e-05
7.43469e-07
-5.64198e-06
1.91106e-05
7.72736e-07
-7.50175e-06
1.71445e-05
7.36761e-07
-9.79829e-06
1.44795e-05
6.45203e-07
-1.28069e-05
1.08038e-05
1.82492e-07
-1.58655e-05
5.139e-06
-2.85525e-07
-1.8722e-05
-2.30737e-06
-1.27951e-05
6.485e-05
1.03412e-05
2.83839e-07
6.37187e-05
1.16547e-05
4.04073e-07
6.14928e-05
1.00234e-05
1.52301e-07
5.90933e-05
7.21915e-06
-4.03908e-07
5.69847e-05
4.95713e-06
-1.22604e-06
5.51807e-05
3.43833e-06
-2.28599e-06
5.35118e-05
2.62288e-06
-3.60727e-06
5.1771e-05
2.29242e-06
-5.24513e-06
4.97616e-05
2.27826e-06
-7.29272e-06
4.72766e-05
2.44989e-06
-9.86292e-06
4.40831e-05
2.73133e-06
-1.31464e-05
3.98135e-05
3.00845e-06
-1.72492e-05
3.39354e-05
3.25854e-06
-2.25267e-05
2.54967e-05
3.05443e-06
-2.80899e-05
1.34982e-05
2.432e-06
-3.26599e-05
-7.13415e-07
-2.17508e-05
6.62544e-05
6.79468e-06
3.03752e-07
6.84616e-05
9.84262e-06
4.2758e-07
6.92981e-05
9.64048e-06
1.54421e-07
6.90231e-05
7.90632e-06
-4.44761e-07
6.81462e-05
6.13325e-06
-1.33303e-06
6.69291e-05
4.80105e-06
-2.48692e-06
6.54582e-05
4.06119e-06
-3.93397e-06
6.36837e-05
3.82853e-06
-5.73626e-06
6.14771e-05
3.99696e-06
-7.99514e-06
5.86331e-05
4.46434e-06
-1.0839e-05
5.48673e-05
5.17043e-06
-1.44728e-05
4.97102e-05
6.01036e-06
-1.90358e-05
4.24762e-05
6.95765e-06
-2.48908e-05
3.19585e-05
7.50639e-06
-3.11425e-05
1.70008e-05
7.1863e-06
-3.62383e-05
2.77831e-06
-2.41561e-05
6.50966e-05
4.40838e-06
3.17987e-07
6.78035e-05
7.53961e-06
4.53602e-07
6.97203e-05
8.18946e-06
1.84729e-07
7.05827e-05
7.4691e-06
-4.10666e-07
7.06211e-05
6.40711e-06
-1.29276e-06
7.00503e-05
5.53037e-06
-2.43888e-06
6.90055e-05
5.08588e-06
-3.87685e-06
6.75028e-05
5.10535e-06
-5.66939e-06
6.54609e-05
5.56364e-06
-7.91674e-06
6.26914e-05
6.41732e-06
-1.07504e-05
5.88951e-05
7.65255e-06
-1.43737e-05
5.35507e-05
9.20616e-06
-1.89429e-05
4.58778e-05
1.10835e-05
-2.4815e-05
3.45446e-05
1.26956e-05
-3.11464e-05
1.82104e-05
1.30875e-05
-3.63422e-05
6.96237e-06
-2.42321e-05
6.4176e-05
2.9424e-06
3.37492e-07
6.65361e-05
5.58572e-06
4.96759e-07
6.86074e-05
6.5875e-06
2.48958e-07
6.99529e-05
6.5532e-06
-3.23705e-07
7.05577e-05
6.12033e-06
-1.17643e-06
7.05148e-05
5.74022e-06
-2.28324e-06
6.99201e-05
5.67332e-06
-3.66794e-06
6.87976e-05
6.02088e-06
-5.38926e-06
6.70895e-05
6.82423e-06
-7.54054e-06
6.4624e-05
8.10681e-06
-1.02501e-05
6.11024e-05
9.9185e-06
-1.37088e-05
5.59631e-05
1.22793e-05
-1.80855e-05
4.83296e-05
1.52834e-05
-2.37152e-05
3.66679e-05
1.8343e-05
-2.98572e-05
1.92911e-05
2.01586e-05
-3.49289e-05
1.22131e-05
-2.32879e-05
6.36737e-05
1.97836e-06
3.60077e-07
6.56618e-05
4.00473e-06
5.50269e-07
6.76598e-05
5.06132e-06
3.33627e-07
6.92134e-05
5.43296e-06
-2.06116e-07
7.01711e-05
5.48682e-06
-1.01892e-06
7.05296e-05
5.55862e-06
-2.07329e-06
7.03343e-05
5.87713e-06
-3.38637e-06
6.95981e-05
6.57443e-06
-5.01021e-06
6.8272e-05
7.73945e-06
-7.02805e-06
6.61941e-05
9.46368e-06
-9.56161e-06
6.30678e-05
1.1871e-05
-1.27833e-05
5.82916e-05
1.51105e-05
-1.68727e-05
5.09004e-05
1.94194e-05
-2.2129e-05
3.9105e-05
2.43618e-05
-2.79552e-05
2.07772e-05
2.84931e-05
-3.27897e-05
1.91309e-05
-2.1944e-05
6.34527e-05
1.23537e-06
3.86315e-07
6.52255e-05
2.64069e-06
6.12926e-07
6.71643e-05
3.59791e-06
4.34618e-07
6.88424e-05
4.19391e-06
-6.45752e-08
7.00506e-05
4.61158e-06
-8.29232e-07
7.07345e-05
5.06528e-06
-1.82058e-06
7.09112e-05
5.73019e-06
-3.04642e-06
7.05943e-05
6.7417e-06
-4.54842e-06
6.97589e-05
8.21538e-06
-6.39435e-06
6.82824e-05
1.03008e-05
-8.69108e-06
6.59246e-05
1.31874e-05
-1.15779e-05
6.21121e-05
1.71979e-05
-1.52288e-05
5.58869e-05
2.27621e-05
-1.98665e-05
4.49695e-05
3.01093e-05
-2.50741e-05
2.63529e-05
3.81369e-05
-2.92772e-05
3.25914e-05
-1.96674e-05
6.33795e-05
4.14649e-07
5.66479e-07
6.50843e-05
6.80784e-07
1.34742e-06
6.70381e-05
5.44763e-07
2.12442e-06
6.88341e-05
9.03913e-08
2.84463e-06
7.0243e-05
-6.21821e-07
3.54675e-06
7.11916e-05
-1.54524e-06
4.3237e-06
7.16886e-05
-2.67735e-06
5.28697e-06
7.17566e-05
-4.04812e-06
6.56024e-06
7.13954e-05
-5.70857e-06
8.2722e-06
7.05214e-05
-7.7482e-06
1.06221e-05
6.89529e-05
-1.02707e-05
1.38532e-05
6.61652e-05
-1.34395e-05
1.84903e-05
6.1299e-05
-1.73957e-05
2.51342e-05
5.1748e-05
-2.19256e-05
3.5127e-05
3.41892e-05
-2.55034e-05
4.77738e-05
-1.77777e-05
5.46592e-05
5.00931e-05
1.25024e-05
1.23595e-07
4.00814e-05
1.01765e-05
1.51509e-07
3.28368e-05
7.40705e-06
-1.6104e-08
2.84775e-05
4.4731e-06
-3.20528e-07
2.59003e-05
2.6116e-06
-7.40181e-07
2.42923e-05
1.5446e-06
-1.26424e-06
2.30778e-05
1.03522e-06
-1.91081e-06
2.19252e-05
8.30668e-07
-2.70375e-06
2.06307e-05
7.88798e-07
-3.68395e-06
1.90552e-05
8.15055e-07
-4.88153e-06
1.70619e-05
8.67454e-07
-6.37585e-06
1.45293e-05
8.62691e-07
-8.12842e-06
1.12162e-05
8.11859e-07
-1.03057e-05
7.18506e-06
4.16152e-07
-1.22505e-05
2.17627e-06
-9.0755e-08
-1.36225e-05
-1.93313e-06
-8.68572e-06
6.47793e-05
1.03545e-05
1.52426e-07
6.35081e-05
1.16864e-05
1.65397e-07
6.1101e-05
1.00676e-05
-1.01175e-07
5.84986e-05
7.26967e-06
-5.98044e-07
5.61716e-05
5.01542e-06
-1.30286e-06
5.41246e-05
3.51031e-06
-2.20474e-06
5.21671e-05
2.71714e-06
-3.33167e-06
5.00642e-05
2.41761e-06
-4.72922e-06
4.75839e-05
2.44503e-06
-6.4687e-06
4.44857e-05
2.669e-06
-8.61859e-06
4.04935e-05
3.01908e-06
-1.13058e-05
3.526e-05
3.37637e-06
-1.45294e-05
2.8302e-05
3.72294e-06
-1.84798e-05
1.9262e-05
3.60147e-06
-2.22351e-05
8.1087e-06
2.92421e-06
-2.45216e-05
-3.43302e-07
-1.52319e-05
6.61828e-05
6.81281e-06
1.62685e-07
6.82434e-05
9.88576e-06
1.67614e-07
6.88861e-05
9.70559e-06
-1.26214e-07
6.83885e-05
7.98819e-06
-6.6572e-07
6.72678e-05
6.2335e-06
-1.4304e-06
6.57779e-05
4.92744e-06
-2.41417e-06
6.39842e-05
4.22664e-06
-3.64977e-06
6.18069e-05
4.04839e-06
-5.18972e-06
5.90783e-05
4.29095e-06
-7.1125e-06
5.5554e-05
4.8535e-06
-9.49918e-06
5.09015e-05
5.6845e-06
-1.24857e-05
4.46656e-05
6.66958e-06
-1.60931e-05
3.62099e-05
7.79302e-06
-2.05052e-05
2.49644e-05
8.47207e-06
-2.47676e-05
1.08468e-05
8.13124e-06
-2.73278e-05
3.25482e-06
-1.69074e-05
6.50267e-05
4.42968e-06
1.74382e-07
6.75887e-05
7.59105e-06
1.86334e-07
6.93138e-05
8.2708e-06
-1.05634e-07
6.99563e-05
7.57734e-06
-6.42315e-07
6.97537e-05
6.54486e-06
-1.40143e-06
6.89129e-05
5.70736e-06
-2.37799e-06
6.75488e-05
5.31905e-06
-3.60522e-06
6.56474e-05
5.41685e-06
-5.13643e-06
6.30876e-05
5.98317e-06
-7.04917e-06
5.96394e-05
6.97868e-06
-9.4274e-06
5.49511e-05
8.40373e-06
-1.24047e-05
4.85087e-05
1.01846e-05
-1.60155e-05
3.9571e-05
1.23503e-05
-2.04346e-05
2.74466e-05
1.41917e-05
-2.47416e-05
1.18991e-05
1.46677e-05
-2.73312e-05
7.77374e-06
-1.68519e-05
6.41081e-05
2.96646e-06
1.92576e-07
6.63265e-05
5.64439e-06
2.25019e-07
6.82121e-05
6.68245e-06
-4.82659e-08
6.93465e-05
6.6835e-06
-5.64279e-07
6.97219e-05
6.28997e-06
-1.29689e-06
6.94235e-05
5.961e-06
-2.23852e-06
6.85275e-05
5.96604e-06
-3.41893e-06
6.70289e-05
6.41428e-06
-4.88808e-06
6.48309e-05
7.35842e-06
-6.71773e-06
6.17189e-05
8.83033e-06
-8.98981e-06
5.73394e-05
1.09024e-05
-1.18279e-05
5.11287e-05
1.35882e-05
-1.52784e-05
4.22342e-05
1.70279e-05
-1.94982e-05
2.97435e-05
2.04758e-05
-2.36506e-05
1.30471e-05
2.25793e-05
-2.61442e-05
1.35993e-05
-1.60663e-05
6.36076e-05
2.00509e-06
2.13842e-07
6.54583e-05
4.06977e-06
2.74252e-07
6.72777e-05
5.16745e-06
2.91285e-08
6.86313e-05
5.58088e-06
-4.57088e-07
6.93744e-05
5.68195e-06
-1.1539e-06
6.94963e-05
5.81483e-06
-2.0491e-06
6.90238e-05
6.2188e-06
-3.16665e-06
6.79422e-05
7.03666e-06
-4.55093e-06
6.61652e-05
8.37266e-06
-6.26531e-06
6.34884e-05
1.03328e-05
-8.38728e-06
5.95598e-05
1.30737e-05
-1.1026e-05
5.37655e-05
1.67495e-05
-1.42397e-05
4.515e-05
2.16737e-05
-1.81593e-05
3.25091e-05
2.72291e-05
-2.20675e-05
1.4722e-05
3.19858e-05
-2.44091e-05
2.13857e-05
-1.50085e-05
6.33889e-05
1.26427e-06
2.3823e-07
6.50293e-05
2.71053e-06
3.31759e-07
6.67981e-05
3.71198e-06
1.21264e-07
6.82891e-05
4.35391e-06
-3.28533e-07
6.93002e-05
4.82405e-06
-9.82454e-07
6.9771e-05
5.34559e-06
-1.82216e-06
6.97018e-05
6.10524e-06
-2.86365e-06
6.90817e-05
7.25132e-06
-4.14297e-06
6.78533e-05
8.91788e-06
-5.71122e-06
6.58559e-05
1.12752e-05
-7.63611e-06
6.27996e-05
1.4555e-05
-1.00029e-05
5.80916e-05
1.91028e-05
-1.28742e-05
5.07742e-05
2.54565e-05
-1.63319e-05
3.90645e-05
3.36825e-05
-1.98178e-05
2.07944e-05
4.28002e-05
-2.18215e-05
3.59824e-05
-1.34698e-05
6.3318e-05
2.64179e-07
5.96712e-07
6.48961e-05
3.93542e-07
1.41973e-06
6.66894e-05
2.21177e-07
2.24225e-06
6.83119e-05
-1.88481e-07
3.01028e-06
6.95424e-05
-7.95775e-07
3.76746e-06
7.03029e-05
-1.57565e-06
4.61559e-06
7.05879e-05
-2.53532e-06
5.67822e-06
7.03989e-05
-3.70139e-06
7.0935e-06
6.97092e-05
-5.11168e-06
9.01072e-06
6.84025e-05
-6.82215e-06
1.16559e-05
6.62573e-05
-8.89233e-06
1.53218e-05
6.27256e-05
-1.13856e-05
2.05807e-05
5.69508e-05
-1.43324e-05
2.8168e-05
4.67198e-05
-1.7352e-05
3.93399e-05
2.94115e-05
-1.90383e-05
5.36434e-05
-1.21843e-05
5.98006e-05
5.00548e-05
1.25073e-05
6.14076e-08
3.99668e-05
1.01899e-05
4.96278e-08
3.26299e-05
7.4236e-06
-1.02829e-07
2.81748e-05
4.48928e-06
-3.54734e-07
2.54998e-05
2.62894e-06
-6.94078e-07
2.37866e-05
1.56614e-06
-1.11717e-06
2.24517e-05
1.06443e-06
-1.64035e-06
2.11579e-05
8.70515e-07
-2.28041e-06
1.96964e-05
8.43281e-07
-3.0658e-06
1.79332e-05
8.89438e-07
-4.00777e-06
1.57406e-05
9.71522e-07
-5.1547e-06
1.30405e-05
1.01287e-06
-6.44129e-06
9.65663e-06
1.03349e-06
-7.95524e-06
5.78998e-06
7.64176e-07
-9.14805e-06
1.48188e-06
3.66629e-07
-9.68101e-06
-1.31407e-06
-5.88978e-06
6.47244e-05
1.03669e-05
6.85152e-08
6.33417e-05
1.17152e-05
2.2803e-08
6.07855e-05
1.01078e-05
-2.29103e-07
5.80114e-05
7.31617e-06
-6.50857e-07
5.54976e-05
5.06934e-06
-1.22949e-06
5.32458e-05
3.57667e-06
-1.96347e-06
5.10548e-05
2.80358e-06
-2.87985e-06
4.86778e-05
2.53226e-06
-4.01391e-06
4.58711e-05
2.59838e-06
-5.4171e-06
4.23953e-05
2.87283e-06
-7.12621e-06
3.79867e-05
3.29234e-06
-9.218e-06
3.23688e-05
3.74001e-06
-1.16386e-05
2.51769e-05
4.21126e-06
-1.44657e-05
1.63621e-05
4.24623e-06
-1.69024e-05
6.364e-06
3.68352e-06
-1.78404e-05
3.84867e-07
-1.05669e-05
6.61271e-05
6.82988e-06
7.25884e-08
6.80711e-05
9.92545e-06
1.32906e-08
6.85541e-05
9.76526e-06
-2.66682e-07
6.78684e-05
8.0634e-06
-7.27215e-07
6.65391e-05
6.32543e-06
-1.35714e-06
6.48183e-05
5.04258e-06
-2.15929e-06
6.27612e-05
4.37618e-06
-3.16535e-06
6.02749e-05
4.24583e-06
-4.41695e-06
5.71782e-05
4.55394e-06
-5.97136e-06
5.32256e-05
5.20137e-06
-7.87511e-06
4.80969e-05
6.14551e-06
-1.02101e-05
4.14122e-05
7.26799e-06
-1.29364e-05
3.26678e-05
8.56868e-06
-1.61183e-05
2.16439e-05
9.42048e-06
-1.8918e-05
8.79623e-06
9.18318e-06
-1.99797e-05
4.01682e-06
-1.17431e-05
6.49727e-05
4.44981e-06
8.17521e-08
6.74196e-05
7.63866e-06
2.62133e-08
6.89872e-05
8.34549e-06
-2.53475e-07
6.94439e-05
7.67641e-06
-7.12044e-07
6.9035e-05
6.67028e-06
-1.33734e-06
6.79657e-05
5.86722e-06
-2.13337e-06
6.63413e-05
5.52776e-06
-3.13241e-06
6.41345e-05
5.69312e-06
-4.37691e-06
6.12108e-05
6.35205e-06
-5.92352e-06
5.7338e-05
7.46802e-06
-7.82127e-06
5.21757e-05
9.05303e-06
-1.01499e-05
4.5283e-05
1.10247e-05
-1.28796e-05
3.60497e-05
1.34325e-05
-1.6065e-05
2.41365e-05
1.54825e-05
-1.88905e-05
9.85779e-06
1.60792e-05
-1.99485e-05
8.67237e-06
-1.16497e-05
6.40559e-05
2.98901e-06
9.74963e-08
6.61623e-05
5.69849e-06
5.88141e-08
6.78955e-05
6.76929e-06
-2.05275e-07
6.88518e-05
6.80203e-06
-6.46229e-07
6.90309e-05
6.44331e-06
-1.24902e-06
6.85165e-05
6.1589e-06
-2.01577e-06
6.73754e-05
6.22586e-06
-2.97594e-06
6.55901e-05
6.75964e-06
-4.16937e-06
6.3051e-05
7.8216e-06
-5.64817e-06
5.95411e-05
9.44848e-06
-7.46032e-06
5.47161e-05
1.17282e-05
-9.67808e-06
4.80801e-05
1.46641e-05
-1.22819e-05
3.89023e-05
1.84254e-05
-1.53133e-05
2.66082e-05
2.21464e-05
-1.80204e-05
1.11189e-05
2.44335e-05
-1.90091e-05
1.47571e-05
-1.10322e-05
6.3557e-05
2.02979e-06
1.16068e-07
6.52993e-05
4.12925e-06
1.01173e-07
6.69728e-05
5.2639e-06
-1.39e-07
6.81579e-05
5.71451e-06
-5.54589e-07
6.87173e-05
5.8571e-06
-1.12712e-06
6.86392e-05
6.04289e-06
-1.85501e-06
6.79416e-05
6.51981e-06
-2.763e-06
6.65982e-05
7.43869e-06
-3.88653e-06
6.45108e-05
8.91486e-06
-5.27117e-06
6.1472e-05
1.10621e-05
-6.96211e-06
5.71379e-05
1.40573e-05
-9.02104e-06
5.09556e-05
1.80463e-05
-1.14396e-05
4.20801e-05
2.33834e-05
-1.42417e-05
2.96232e-05
2.93039e-05
-1.67681e-05
1.29515e-05
3.43608e-05
-1.76647e-05
2.29264e-05
-1.02262e-05
6.33402e-05
1.29058e-06
1.37224e-07
6.48768e-05
2.77379e-06
1.50626e-07
6.65072e-05
3.81486e-06
-6.0104e-08
6.78405e-05
4.49749e-06
-4.44839e-07
6.86829e-05
5.0136e-06
-9.81316e-07
6.8973e-05
5.59367e-06
-1.66301e-06
6.87037e-05
6.4337e-06
-2.50826e-06
6.78541e-05
7.69141e-06
-3.54612e-06
6.63571e-05
9.51363e-06
-4.81299e-06
6.40496e-05
1.20815e-05
-6.348e-06
6.06501e-05
1.56506e-05
-8.19664e-06
5.56174e-05
2.05635e-05
-1.03588e-05
4.80907e-05
2.74076e-05
-1.28294e-05
3.65607e-05
3.60905e-05
-1.50744e-05
1.92628e-05
4.5642e-05
-1.58048e-05
3.79014e-05
-9.18209e-06
6.32714e-05
1.59535e-07
6.23839e-07
6.47506e-05
2.03511e-07
1.48458e-06
6.64138e-05
2.51888e-08
2.34769e-06
6.78904e-05
-3.25597e-07
3.158e-06
6.89679e-05
-8.22942e-07
3.96328e-06
6.95681e-05
-1.45482e-06
4.87265e-06
6.96798e-05
-2.23248e-06
6.01916e-06
6.92962e-05
-3.17776e-06
7.55131e-06
6.83833e-05
-4.31712e-06
9.63204e-06
6.68236e-05
-5.68215e-06
1.25011e-05
6.44056e-05
-7.30094e-06
1.64773e-05
6.0624e-05
-9.17941e-06
2.21389e-05
5.47089e-05
-1.12834e-05
3.02737e-05
4.46715e-05
-1.3219e-05
4.19949e-05
2.82106e-05
-1.38146e-05
5.68792e-05
-8.31769e-06
6.22453e-05
5.00251e-05
1.25114e-05
2.493e-08
3.98772e-05
1.0201e-05
-3.51993e-09
3.2466e-05
7.43723e-06
-1.28785e-07
2.79313e-05
4.50275e-06
-3.22834e-07
2.5173e-05
2.64331e-06
-5.79099e-07
2.33694e-05
1.58375e-06
-8.97319e-07
2.19314e-05
1.08796e-06
-1.29031e-06
2.05177e-05
9.02133e-07
-1.76879e-06
1.89168e-05
8.85764e-07
-2.3507e-06
1.69996e-05
9.4621e-07
-3.03675e-06
1.46496e-05
1.04892e-06
-3.85362e-06
1.18253e-05
1.12121e-06
-4.73823e-06
8.41551e-06
1.18816e-06
-5.73358e-06
4.72143e-06
9.96172e-07
-6.45014e-06
9.92344e-07
6.54922e-07
-6.60684e-06
-9.73045e-07
-3.92439e-06
6.46814e-05
1.03775e-05
2.11213e-08
6.32112e-05
1.17394e-05
-4.54162e-08
6.05347e-05
1.01418e-05
-2.5721e-07
5.7619e-05
7.35576e-06
-5.88155e-07
5.49482e-05
5.11528e-06
-1.03065e-06
5.25226e-05
3.63293e-06
-1.58707e-06
5.0134e-05
2.87637e-06
-2.2797e-06
4.75277e-05
2.62814e-06
-3.13354e-06
4.44533e-05
2.72575e-06
-4.18272e-06
4.06762e-05
3.04088e-06
-5.44384e-06
3.59506e-05
3.51557e-06
-6.95899e-06
3.00636e-05
4.03353e-06
-8.66393e-06
2.27659e-05
4.59962e-06
-1.05795e-05
1.42331e-05
4.74651e-06
-1.21199e-05
5.21976e-06
4.25771e-06
-1.24299e-05
8.74157e-07
-7.19431e-06
6.60836e-05
6.84469e-06
2.17848e-08
6.79358e-05
9.9595e-06
-5.91021e-08
6.82903e-05
9.81633e-06
-2.95669e-07
6.74494e-05
8.1279e-06
-6.58494e-07
6.5945e-05
6.40418e-06
-1.14157e-06
6.40286e-05
5.14083e-06
-1.7508e-06
6.17489e-05
4.50311e-06
-2.51239e-06
5.9004e-05
4.41255e-06
-3.45649e-06
5.56052e-05
4.77488e-06
-4.62166e-06
5.13104e-05
5.49201e-06
-6.03148e-06
4.58184e-05
6.52818e-06
-7.7307e-06
3.88179e-05
7.76086e-06
-9.6633e-06
2.99339e-05
9.20149e-06
-1.18361e-05
1.92044e-05
1.01851e-05
-1.3627e-05
7.4472e-06
1.00228e-05
-1.39876e-05
4.59841e-06
-8.02019e-06
6.49305e-05
4.46741e-06
2.8502e-08
6.72871e-05
7.67982e-06
-5.06573e-08
6.87279e-05
8.40975e-06
-2.87756e-07
6.90316e-05
7.7615e-06
-6.49317e-07
6.84495e-05
6.77778e-06
-1.12887e-06
6.71866e-05
6.00373e-06
-1.73337e-06
6.53418e-05
5.70517e-06
-2.48962e-06
6.2879e-05
5.92688e-06
-3.4285e-06
5.96559e-05
6.66268e-06
-4.58818e-06
5.5443e-05
7.87792e-06
-5.99426e-06
4.99176e-05
9.59351e-06
-7.68979e-06
4.27059e-05
1.1719e-05
-9.6261e-06
3.33256e-05
1.43189e-05
-1.18022e-05
2.16987e-05
1.65319e-05
-1.36105e-05
8.51271e-06
1.7221e-05
-1.39607e-05
9.40642e-06
-7.94495e-06
6.40152e-05
3.00872e-06
4.09612e-08
6.60339e-05
5.7453e-06
-2.53131e-08
6.76447e-05
6.84401e-06
-2.50363e-07
6.84544e-05
6.90373e-06
-5.9812e-07
6.84687e-05
6.57454e-06
-1.0601e-06
6.77709e-05
6.32772e-06
-1.64194e-06
6.64218e-05
6.44665e-06
-2.36836e-06
6.43958e-05
7.05188e-06
-3.26836e-06
6.15754e-05
8.21176e-06
-4.37685e-06
5.77455e-05
9.96644e-06
-5.71897e-06
5.25779e-05
1.24157e-05
-7.33272e-06
4.56393e-05
1.55532e-05
-9.17744e-06
3.63193e-05
1.95693e-05
-1.12436e-05
2.42958e-05
2.35045e-05
-1.29695e-05
9.85212e-06
2.59331e-05
-1.32776e-05
1.573e-05
-7.50364e-06
6.35178e-05
2.05127e-06
5.57622e-08
6.51756e-05
4.18052e-06
8.1351e-09
6.67321e-05
5.34665e-06
-1.98182e-07
6.77784e-05
5.82888e-06
-5.26066e-07
6.81837e-05
6.00667e-06
-9.64457e-07
6.79355e-05
6.2371e-06
-1.51627e-06
6.70465e-05
6.7753e-06
-2.20265e-06
6.54827e-05
7.77864e-06
-3.04941e-06
6.31386e-05
9.37133e-06
-4.08673e-06
5.98084e-05
1.16728e-05
-5.33816e-06
5.51622e-05
1.48755e-05
-6.83459e-06
4.87036e-05
1.91166e-05
-8.54443e-06
3.96991e-05
2.47796e-05
-1.04476e-05
2.74973e-05
3.09868e-05
-1.20486e-05
1.17988e-05
3.6274e-05
-1.23071e-05
2.4235e-05
-6.93241e-06
6.33027e-05
1.31326e-06
7.25617e-08
6.47586e-05
2.82804e-06
4.71994e-08
6.62783e-05
3.90282e-06
-1.36047e-07
6.74822e-05
4.62002e-06
-4.39835e-07
6.81827e-05
5.17509e-06
-8.50261e-07
6.83188e-05
5.80459e-06
-1.36654e-06
6.78786e-05
6.71225e-06
-2.00506e-06
6.68348e-05
8.06344e-06
-2.7871e-06
6.51143e-05
1.00153e-05
-3.73645e-06
6.25552e-05
1.2757e-05
-4.87317e-06
5.88895e-05
1.65625e-05
-6.21787e-06
5.36244e-05
2.17701e-05
-7.74712e-06
4.59978e-05
2.90016e-05
-9.42493e-06
3.47088e-05
3.80459e-05
-1.08445e-05
1.82733e-05
4.79334e-05
-1.10287e-05
3.95695e-05
-6.24324e-06
6.32356e-05
9.01848e-08
6.47022e-07
6.46384e-05
8.88667e-08
1.53989e-06
6.61979e-05
-6.8992e-08
2.4375e-06
6.75549e-05
-3.46297e-07
3.28366e-06
6.85038e-05
-7.26398e-07
4.1297e-06
6.89671e-05
-1.20437e-06
5.09083e-06
6.89302e-05
-1.79132e-06
6.30801e-06
6.83811e-05
-2.50337e-06
7.93811e-06
6.72815e-05
-3.35739e-06
1.01551e-05
6.55161e-05
-4.36895e-06
1.32093e-05
6.28863e-05
-5.54763e-06
1.7439e-05
5.89282e-05
-6.87677e-06
2.34255e-05
5.29585e-05
-8.30528e-06
3.19933e-05
4.31613e-05
-9.52517e-06
4.41492e-05
2.74561e-05
-9.66345e-06
5.94874e-05
-5.67504e-06
6.4383e-05
5.00036e-05
1.25146e-05
6.71258e-09
3.98123e-05
1.02095e-05
-2.17205e-08
3.2346e-05
7.44786e-06
-1.10399e-07
2.77523e-05
4.51349e-06
-2.42549e-07
2.49326e-05
2.65492e-06
-4.14368e-07
2.30642e-05
1.59811e-06
-6.27006e-07
2.15557e-05
1.10732e-06
-8.89136e-07
2.00654e-05
9.28503e-07
-1.20701e-06
1.83838e-05
9.21827e-07
-1.5909e-06
1.63892e-05
9.95481e-07
-2.03767e-06
1.39784e-05
1.11756e-06
-2.56038e-06
1.11328e-05
1.21874e-06
-3.11136e-06
7.7792e-06
1.32864e-06
-3.70863e-06
4.23382e-06
1.2015e-06
-4.10625e-06
8.20565e-07
9.14931e-07
-4.10852e-06
-7.02403e-07
-2.40142e-06
6.46502e-05
1.03858e-05
-2.48699e-10
6.31158e-05
1.17583e-05
-5.981e-08
6.03501e-05
1.01684e-05
-2.12051e-07
5.73284e-05
7.387e-06
-4.40023e-07
5.45404e-05
5.15162e-06
-7.39337e-07
5.19872e-05
3.67744e-06
-1.1132e-06
4.94581e-05
2.9339e-06
-1.57723e-06
4.66965e-05
2.70398e-06
-2.14732e-06
4.34527e-05
2.82673e-06
-2.84391e-06
3.95024e-05
3.17469e-06
-3.67276e-06
3.46209e-05
3.69434e-06
-4.65421e-06
2.86403e-05
4.27046e-06
-5.73513e-06
2.13859e-05
4.91573e-06
-6.91211e-06
1.3117e-05
5.15577e-06
-7.80529e-06
4.70544e-06
4.73695e-06
-7.84037e-06
1.27008e-06
-4.46135e-06
6.6052e-05
6.85645e-06
-8.72578e-10
6.78369e-05
9.98634e-06
-7.20252e-08
6.80958e-05
9.85652e-06
-2.42652e-07
6.71388e-05
8.1787e-06
-4.93193e-07
6.55034e-05
6.46614e-06
-8.20639e-07
6.34426e-05
5.2179e-06
-1.23055e-06
6.10033e-05
4.60228e-06
-1.74144e-06
5.80812e-05
4.54231e-06
-2.37276e-06
5.4488e-05
4.94626e-06
-3.14796e-06
4.99916e-05
5.71686e-06
-4.07725e-06
4.43139e-05
6.8236e-06
-5.18225e-06
3.71939e-05
8.14133e-06
-6.41416e-06
2.83417e-05
9.69042e-06
-7.75856e-06
1.79002e-05
1.07788e-05
-8.8086e-06
6.82509e-06
1.06833e-05
-8.85887e-06
5.06215e-06
-4.98717e-06
6.49e-05
4.48142e-06
3.49284e-09
6.71903e-05
7.71236e-06
-6.69846e-08
6.85371e-05
8.46037e-06
-2.38349e-07
6.87262e-05
7.82843e-06
-4.88148e-07
6.80146e-05
6.86207e-06
-8.13244e-07
6.66088e-05
6.11028e-06
-1.21996e-06
6.46059e-05
5.84285e-06
-1.72728e-06
6.19678e-05
6.10712e-06
-2.35522e-06
5.85524e-05
6.90057e-06
-3.12701e-06
5.41396e-05
8.18961e-06
-4.05429e-06
4.84297e-05
1.00013e-05
-5.15754e-06
4.10985e-05
1.22391e-05
-6.39267e-06
3.17488e-05
1.49778e-05
-7.73987e-06
2.04084e-05
1.73096e-05
-8.80076e-06
7.90546e-06
1.80669e-05
-8.84136e-06
9.95853e-06
-4.93588e-06
6.39859e-05
3.02438e-06
1.21037e-08
6.59404e-05
5.78227e-06
-4.96827e-08
6.74604e-05
6.90281e-06
-2.12862e-07
6.81604e-05
6.98352e-06
-4.5318e-07
6.80515e-05
6.67709e-06
-7.66238e-07
6.72185e-05
6.45891e-06
-1.15752e-06
6.57206e-05
6.61704e-06
-1.64466e-06
6.35302e-05
7.27559e-06
-2.24645e-06
6.05303e-05
8.50766e-06
-2.98404e-06
5.65148e-05
1.0355e-05
-3.86894e-06
5.11769e-05
1.2925e-05
-4.91854e-06
4.41299e-05
1.62028e-05
-6.09421e-06
3.48439e-05
2.03914e-05
-7.37121e-06
2.30961e-05
2.44682e-05
-8.3803e-06
9.30254e-06
2.69806e-05
-8.39774e-06
1.64102e-05
-4.65279e-06
6.34895e-05
2.06825e-06
2.23776e-08
6.50856e-05
4.22091e-06
-2.65996e-08
6.65555e-05
5.41161e-06
-1.76906e-07
6.74982e-05
5.91835e-06
-4.0357e-07
6.77882e-05
6.12315e-06
-7.00482e-07
6.74147e-05
6.38742e-06
-1.07133e-06
6.6389e-05
6.97152e-06
-1.53137e-06
6.46753e-05
8.03722e-06
-2.09733e-06
6.2169e-05
9.71453e-06
-2.7873e-06
5.86723e-05
1.21255e-05
-3.61195e-06
5.38755e-05
1.54716e-05
-4.58439e-06
4.73249e-05
1.98812e-05
-5.67222e-06
3.83609e-05
2.57527e-05
-6.84493e-06
2.64221e-05
3.2134e-05
-7.7756e-06
1.13254e-05
3.75388e-05
-7.76857e-06
2.509e-05
-4.28681e-06
6.32757e-05
1.33109e-06
3.40201e-08
6.46728e-05
2.87061e-06
3.74538e-10
6.61108e-05
3.97165e-06
-1.34075e-07
6.7218e-05
4.71558e-06
-3.44226e-07
6.78125e-05
5.30047e-06
-6.22061e-07
6.78348e-05
5.96731e-06
-9.68823e-07
6.72726e-05
6.92538e-06
-1.39663e-06
6.60969e-05
8.34508e-06
-1.91929e-06
6.42359e-05
1.039e-05
-2.55093e-06
6.15353e-05
1.32532e-05
-3.30037e-06
5.77453e-05
1.72186e-05
-4.17483e-06
5.24106e-05
2.26168e-05
-5.14805e-06
4.48344e-05
3.00858e-05
-6.18173e-06
3.37933e-05
3.93352e-05
-7.00474e-06
1.78943e-05
4.93788e-05
-6.96966e-06
4.06101e-05
-3.86904e-06
6.321e-05
4.61958e-08
6.65131e-07
6.45572e-05
2.91097e-08
1.5831e-06
6.60402e-05
-8.78888e-08
2.50755e-06
6.7308e-05
-2.799e-07
3.38139e-06
6.81606e-05
-5.37061e-07
4.25855e-06
6.85227e-05
-8.57852e-07
5.25868e-06
6.83793e-05
-1.25089e-06
6.52832e-06
6.7718e-05
-1.7267e-06
8.22978e-06
6.65018e-05
-2.29507e-06
1.05438e-05
6.46229e-05
-2.96235e-06
1.37256e-05
6.18996e-05
-3.72942e-06
1.81237e-05
5.79003e-05
-4.5754e-06
2.43147e-05
5.19979e-05
-5.45508e-06
3.3138e-05
4.24392e-05
-6.1593e-06
4.55281e-05
2.72052e-05
-6.11649e-06
6.10658e-05
-3.52383e-06
6.56641e-05
4.99893e-05
1.25168e-05
6.34424e-10
3.97691e-05
1.02153e-05