/*--------------------------------*- C++ -*----------------------------------*\
| =========                 |                                                 |
| \\      /  F ield         | OpenFOAM: The Open Source CFD Toolbox           |
|  \\    /   O peration     | Version:  v1912                                 |
|   \\  /    A nd           | Website:  www.openfoam.com                      |
|    \\/     M anipulation  |                                                 |
\*---------------------------------------------------------------------------*/
FoamFile
{
    version     2.0;
    format      ascii;
    class       volVectorField;
    location    "0.6/fluid";
    object      U;
}
// * * * * * * * * * * * * * * * * * * * * * * * * * * * * * * * * * * * * * //

dimensions      [0 1 -1 0 0 0 0];


internalField   nonuniform List<vector> 
14592
(
(0.0877226 0.0172877 0.00062911)
(0.0723563 0.0116718 0.00100745)
(0.0574962 0.00724705 0.000791421)
(0.0493568 0.00352056 0.000188306)
(0.0444319 0.00160412 -0.000689748)
(0.0417837 0.000681007 -0.0017653)
(0.0400995 0.000304829 -0.00305112)
(0.0388779 0.00015388 -0.00460828)
(0.0376633 8.84705e-05 -0.00654087)
(0.036451 2.49669e-05 -0.0090106)
(0.0347763 -7.05396e-05 -0.0122684)
(0.0331423 -0.000298822 -0.016653)
(0.0300529 -0.000636782 -0.0228792)
(0.02739 -0.00151961 -0.0311482)
(0.0193494 -0.00207367 -0.0420592)
(0.0109446 -0.00507305 -0.0402852)
(0.104005 0.0178584 0.000843495)
(0.103791 0.0172757 0.00139652)
(0.100909 0.0137655 0.00114896)
(0.0973679 0.009133 0.000265357)
(0.0939993 0.00573683 -0.00113519)
(0.0913173 0.00359196 -0.00294491)
(0.0890162 0.00246868 -0.00516409)
(0.0869083 0.00197264 -0.00788057)
(0.0846071 0.00183397 -0.011262)
(0.0820598 0.0018645 -0.0155767)
(0.0786356 0.00195411 -0.021232)
(0.0746902 0.00194798 -0.0287955)
(0.0681328 0.00181261 -0.0392785)
(0.0606958 0.000995033 -0.0530172)
(0.0436903 5.80609e-05 -0.0694043)
(0.0252553 -0.00405372 -0.0646761)
(0.103988 0.0117656 0.00090296)
(0.108415 0.0156669 0.00150477)
(0.111401 0.0145552 0.00125402)
(0.111964 0.0112356 0.000317936)
(0.111294 0.00818534 -0.00118482)
(0.109981 0.00597326 -0.00315041)
(0.108287 0.00470816 -0.00558034)
(0.106326 0.00416841 -0.00856893)
(0.103908 0.00413825 -0.0122964)
(0.101023 0.00443331 -0.0170581)
(0.0970235 0.00492817 -0.0232966)
(0.0921507 0.00546115 -0.0316572)
(0.0841006 0.00596435 -0.0432189)
(0.0744284 0.00585378 -0.058511)
(0.053438 0.00501965 -0.0767617)
(0.0300446 0.000188146 -0.0727221)
(0.102119 0.0075652 0.000928079)
(0.106589 0.0122015 0.00156112)
(0.111117 0.0126864 0.00132371)
(0.113586 0.0110202 0.000394959)
(0.114622 0.0089771 -0.00109917)
(0.114535 0.00732088 -0.00305447)
(0.113671 0.00636107 -0.00547252)
(0.112236 0.00607143 -0.00844795)
(0.110146 0.00635374 -0.0121594)
(0.107444 0.00709668 -0.0169072)
(0.103486 0.00822557 -0.0231349)
(0.0984818 0.0096264 -0.0315246)
(0.0899912 0.0112487 -0.0431686)
(0.0794979 0.012467 -0.0587725)
(0.0568414 0.0124207 -0.0776085)
(0.0310336 0.00617729 -0.0745125)
(0.101092 0.00495763 0.000954623)
(0.104648 0.00909551 0.00162627)
(0.109013 0.0103614 0.00142147)
(0.112093 0.00989579 0.000526175)
(0.114027 0.00883314 -0.000923912)
(0.114818 0.00787914 -0.00281807)
(0.114714 0.00740449 -0.00515199)
(0.113898 0.00750976 -0.00801391)
(0.112326 0.00819849 -0.0115715)
(0.110075 0.00944287 -0.0161179)
(0.106514 0.0112314 -0.0220768)
(0.101856 0.0135187 -0.0301475)
(0.0935292 0.0162895 -0.0413921)
(0.0829443 0.0188628 -0.0567215)
(0.0593323 0.0197444 -0.0754337)
(0.0315848 0.0113165 -0.0734507)
(0.100639 0.00335823 0.00098509)
(0.103471 0.00662799 0.00170314)
(0.107397 0.00810111 0.00154516)
(0.110631 0.00836109 0.000699049)
(0.113039 0.00807559 -0.000690171)
(0.114434 0.00779515 -0.00250218)
(0.114945 0.00786321 -0.00472274)
(0.114711 0.00844315 -0.00742904)
(0.113688 0.00961596 -0.0107723)
(0.111974 0.0114493 -0.0150316)
(0.108943 0.0140297 -0.0205987)
(0.104815 0.0174728 -0.02818)
(0.0968899 0.0219284 -0.0387749)
(0.086519 0.0269122 -0.0535392)
(0.0621886 0.0305482 -0.0717571)
(0.0326177 0.0205571 -0.0712609)
(0.10047 0.00219987 0.00102203)
(0.102915 0.00457653 0.00179432)
(0.106547 0.00598138 0.00169426)
(0.10984 0.00665096 0.000909688)
(0.112546 0.00694727 -0.000405185)
(0.114384 0.00724694 -0.00211777)
(0.115413 0.00782511 -0.0041993)
(0.115744 0.00886015 -0.0067087)
(0.115351 0.0104766 -0.00976986)
(0.114373 0.0128169 -0.0136284)
(0.112253 0.016042 -0.0186099)
(0.109289 0.0204219 -0.0253722)
(0.102793 0.0262329 -0.0347344)
(0.0941692 0.0332564 -0.0480492)
(0.0703886 0.0393597 -0.0642882)
(0.0398744 0.0275113 -0.0655295)
(0.100417 0.00123173 0.00106363)
(0.102722 0.00272959 0.00189542)
(0.106268 0.00391367 0.00185964)
(0.109656 0.00480163 0.00114364)
(0.112598 0.00553641 -8.98103e-05)
(0.114779 0.00632411 -0.0016956)
(0.116228 0.00735412 -0.00362849)
(0.117049 0.00879438 -0.00592689)
(0.117242 0.010796 -0.00868539)
(0.116976 0.0135805 -0.0121118)
(0.115772 0.0174084 -0.0164623)
(0.113992 0.0228671 -0.0223329)
(0.109038 0.0306138 -0.0303596)
(0.102545 0.0422063 -0.0421099)
(0.0801297 0.0565701 -0.0564121)
(0.0521642 0.0613641 -0.0610433)
(0.0876914 0.0172904 0.00039483)
(0.0721772 0.0116845 0.00059399)
(0.0570919 0.00725824 0.000355485)
(0.0487543 0.00352682 -0.000179702)
(0.0436408 0.00160862 -0.000944371)
(0.0408073 0.000686813 -0.00189467)
(0.0389074 0.00031406 -0.00305327)
(0.0374134 0.000167054 -0.00447072)
(0.0358421 0.000107015 -0.00623333)
(0.0341483 5.12465e-05 -0.00844401)
(0.0318624 -2.80005e-05 -0.0112896)
(0.0293629 -0.000220782 -0.0148548)
(0.025379 -0.000484861 -0.0195748)
(0.0211705 -0.00117597 -0.0245152)
(0.0130493 -0.00162157 -0.0293264)
(0.00361429 -0.00367228 -0.0198357)
(0.103962 0.0178721 0.000518041)
(0.103541 0.0173119 0.00078487)
(0.100325 0.0138112 0.000448548)
(0.0964338 0.00917922 -0.000378656)
(0.092705 0.0057872 -0.00162692)
(0.0896532 0.00365518 -0.00324023)
(0.0869334 0.00255494 -0.00524519)
(0.0843115 0.00209032 -0.00772463)
(0.081346 0.00199321 -0.0108226)
(0.0779117 0.00207621 -0.0147276)
(0.0733348 0.00223815 -0.019745)
(0.0678064 0.00232601 -0.026098)
(0.0594648 0.00232513 -0.0343771)
(0.0493769 0.00169119 -0.0433645)
(0.0317621 0.000793273 -0.0511992)
(0.0117262 -0.00290231 -0.0341818)
(0.103948 0.0117892 0.000554587)
(0.108157 0.0157243 0.000837217)
(0.110791 0.0146379 0.000476606)
(0.110974 0.0113339 -0.00041066)
(0.109903 0.00830189 -0.0017566)
(0.108171 0.00611937 -0.0035115)
(0.106005 0.00490102 -0.00570679)
(0.103468 0.00442644 -0.00843453)
(0.100309 0.00448415 -0.011851)
(0.0964382 0.00489084 -0.0161684)
(0.0911465 0.00553245 -0.0217166)
(0.0845079 0.0062376 -0.0287725)
(0.07442 0.00695544 -0.0379471)
(0.0617848 0.00701935 -0.0480307)
(0.0399551 0.00614754 -0.0567776)
(0.0147997 0.000918966 -0.0380278)
(0.102081 0.00759227 0.000576596)
(0.106334 0.0122692 0.000879962)
(0.110514 0.0127925 0.000527472)
(0.112606 0.0111586 -0.000353727)
(0.113246 0.00915129 -0.0016906)
(0.112745 0.00754503 -0.00343428)
(0.111414 0.00665862 -0.00561647)
(0.10941 0.00647134 -0.00832995)
(0.106587 0.00689382 -0.0117292)
(0.102908 0.0078197 -0.0160311)
(0.0976599 0.00919234 -0.0215628)
(0.0908865 0.010886 -0.0286275)
(0.080319 0.0128784 -0.0378292)
(0.0667918 0.0143929 -0.0480395)
(0.0431924 0.0143886 -0.05696)
(0.0154568 0.00705749 -0.0381579)
(0.101055 0.00498915 0.000604763)
(0.104398 0.00917467 0.000943814)
(0.108422 0.0104901 0.00062268)
(0.111138 0.0100713 -0.000225147)
(0.112693 0.00906064 -0.00151869)
(0.113093 0.00817552 -0.00320396)
(0.112549 0.00779885 -0.00530654)
(0.1112 0.00804099 -0.00791319)
(0.108939 0.0089194 -0.0111679)
(0.105769 0.0104163 -0.015282)
(0.100981 0.0125474 -0.0205635)
(0.0946333 0.0152565 -0.0273323)
(0.0842779 0.0185774 -0.0361583)
(0.0707004 0.0216082 -0.046068)
(0.046029 0.0226736 -0.0547793)
(0.016117 0.0125271 -0.0366647)
(0.100603 0.00339409 0.000637229)
(0.103226 0.00671771 0.00102187)
(0.10682 0.00824904 0.000746663)
(0.109706 0.00856736 -5.26518e-05)
(0.111758 0.00834757 -0.00128716)
(0.11279 0.00815288 -0.00289435)
(0.112897 0.00834152 -0.00488989)
(0.112176 0.00909134 -0.00735037)
(0.110523 0.0105037 -0.0104045)
(0.107968 0.0126654 -0.0142526)
(0.103802 0.0157063 -0.0191741)
(0.0981045 0.0197471 -0.0255024)
(0.0882381 0.0250322 -0.0337507)
(0.0749908 0.0308066 -0.0431611)
(0.0494814 0.0350809 -0.0514744)
(0.017474 0.0227528 -0.0345536)
(0.100436 0.00224033 0.000675266)
(0.102676 0.00467621 0.00111344)
(0.105988 0.00614563 0.000894791)
(0.108952 0.00688164 0.000155488)
(0.111326 0.00725368 -0.00100761)
(0.112836 0.00765165 -0.00252076)
(0.113507 0.00836724 -0.00438559)
(0.113413 0.00959709 -0.00666274)
(0.112475 0.011491 -0.00945693)
(0.110776 0.0142194 -0.012944)
(0.107677 0.0179984 -0.0173508)
(0.10338 0.0231214 -0.0229952)
(0.0951769 0.0299966 -0.0302655)
(0.0840614 0.0381056 -0.0386676)
(0.0590054 0.0452774 -0.045891)
(0.0259063 0.0304744 -0.0308599)
(0.100383 0.00127582 0.000716722)
(0.10249 0.00283643 0.00121312)
(0.105728 0.00408877 0.00105693)
(0.108807 0.00504778 0.000384062)
(0.111445 0.00586427 -0.000701215)
(0.113333 0.00675798 -0.00211302)
(0.114472 0.00793589 -0.00383766)
(0.114935 0.00958747 -0.00591768)
(0.114672 0.0118936 -0.00843211)
(0.113814 0.0151144 -0.0115286)
(0.111801 0.0195806 -0.0153779)
(0.108944 0.0259437 -0.0202751)
(0.102548 0.035048 -0.0264763)
(0.0940471 0.0482423 -0.0337885)
(0.0703728 0.0646093 -0.0399421)
(0.0399547 0.0660628 -0.0278825)
(0.0876674 0.0172928 0.00023084)
(0.0720376 0.0116949 0.000307885)
(0.0567666 0.00726796 6.28798e-05)
(0.0482504 0.00353221 -0.000406167)
(0.0429547 0.00161213 -0.00106029)
(0.0399333 0.00069099 -0.00187779)
(0.0378132 0.000320412 -0.00288565)
(0.0360412 0.000175494 -0.00412458)
(0.0341096 0.000117677 -0.00566464)
(0.0319242 6.42875e-05 -0.00757007)
(0.0290179 -9.77229e-06 -0.00998667)
(0.025633 -0.000188811 -0.0129049)
(0.0207669 -0.00043022 -0.0166512)
(0.0152625 -0.00104112 -0.0202595)
(0.0075628 -0.0015301 -0.0233096)
(-0.000490241 -0.00317169 -0.0156244)
(0.103929 0.0178854 0.00029163)
(0.103343 0.0173454 0.000366896)
(0.0998515 0.0138549 -1.32135e-05)
(0.0956518 0.0092246 -0.000768019)
(0.0915845 0.00583688 -0.00185768)
(0.088171 0.00371644 -0.00325806)
(0.0850358 0.00263668 -0.00500884)
(0.0819047 0.00220004 -0.00718352)
(0.0782905 0.00213985 -0.00990122)
(0.0739944 0.00226879 -0.0132915)
(0.0683234 0.00249188 -0.0175849)
(0.0613122 0.00265482 -0.0228509)
(0.0514169 0.0027475 -0.0294868)
(0.0393106 0.00222114 -0.0361605)
(0.022093 0.00125589 -0.0410356)
(0.0040161 -0.00234872 -0.0266172)
(0.103916 0.0118131 0.000311692)
(0.107955 0.01578 0.000381386)
(0.110299 0.0147187 -3.52962e-05)
(0.110147 0.0114309 -0.000852287)
(0.1087 0.00841678 -0.00203237)
(0.106562 0.00626182 -0.00355838)
(0.10393 0.0050865 -0.00547657)
(0.100825 0.00467197 -0.0078706)
(0.0969453 0.00481093 -0.0108707)
(0.0921218 0.00532039 -0.0146266)
(0.0856118 0.00609568 -0.0193852)
(0.0773333 0.00695364 -0.0252553)
(0.0654801 0.0078523 -0.0326336)
(0.0505812 0.00804607 -0.0401577)
(0.0290109 0.00709043 -0.0455891)
(0.00590555 0.00142773 -0.029508)
(0.102051 0.00762031 0.000330125)
(0.106135 0.0123366 0.000412613)
(0.110029 0.0128973 -8.54867e-09)
(0.11179 0.0112949 -0.000812311)
(0.112059 0.00932187 -0.00198391)
(0.111155 0.00776237 -0.00349901)
(0.109363 0.00694408 -0.00540449)
(0.106798 0.00685166 -0.00778505)
(0.103261 0.00740411 -0.0107695)
(0.0986362 0.00849852 -0.0145119)
(0.0921666 0.0100939 -0.0192562)
(0.0837414 0.0120491 -0.0251338)
(0.0713567 0.0143644 -0.0325303)
(0.0554814 0.0161224 -0.0401459)
(0.0320264 0.0161466 -0.0456727)
(0.00627787 0.00792345 -0.0295347)
(0.101028 0.00502157 0.000357374)
(0.104204 0.00925344 0.000471453)
(0.107949 0.0106165 8.74087e-05)
(0.110345 0.0102427 -0.00069364)
(0.111547 0.00928155 -0.00182503)
(0.111565 0.00846116 -0.0032868)
(0.110585 0.00817606 -0.00512041)
(0.108707 0.00854588 -0.00740531)
(0.105771 0.00960123 -0.0102611)
(0.101706 0.0113324 -0.0138384)
(0.0957482 0.0137797 -0.0183652)
(0.0878089 0.0168721 -0.0239906)
(0.0756555 0.0206879 -0.0310727)
(0.0597334 0.0241237 -0.0384471)
(0.035067 0.0253942 -0.0438253)
(0.00695355 0.013951 -0.028321)
(0.100576 0.00343023 0.000389088)
(0.103037 0.006806 0.000545538)
(0.10636 0.0083929 0.000204204)
(0.108942 0.00876682 -0.000531756)
(0.110661 0.00860944 -0.00160869)
(0.111337 0.00849551 -0.00299945)
(0.111043 0.00879735 -0.0047365)
(0.109837 0.00970622 -0.00689048)
(0.107563 0.0113427 -0.0095677)
(0.104184 0.0138099 -0.0129109)
(0.0989268 0.0172773 -0.0171244)
(0.0917405 0.0218636 -0.0223744)
(0.0801364 0.0279007 -0.0289746)
(0.0646181 0.0343854 -0.0359519)
(0.0389604 0.039298 -0.0410594)
(0.00848145 0.0253346 -0.0266183)
(0.10041 0.00228015 0.000425622)
(0.102494 0.00477285 0.000632123)
(0.105546 0.00630356 0.000343272)
(0.108221 0.00710279 -0.000337401)
(0.110287 0.00754666 -0.00134887)
(0.111474 0.00803742 -0.00265451)
(0.111785 0.00888265 -0.0042743)
(0.111264 0.0102959 -0.00626545)
(0.109782 0.0124512 -0.00871431)
(0.107369 0.0155434 -0.0117461)
(0.103318 0.0198417 -0.0155244)
(0.0977316 0.0256545 -0.0202157)
(0.0879694 0.0335163 -0.0260442)
(0.0748598 0.0426415 -0.0322847)
(0.0494775 0.0509167 -0.0367178)
(0.0175346 0.034206 -0.0239198)
(0.100358 0.00131823 0.000464705)
(0.102315 0.00293851 0.000725412)
(0.105305 0.00425541 0.000494357)
(0.108113 0.00528189 -0.000125295)
(0.110468 0.00617581 -0.00106552)
(0.112068 0.00716977 -0.00227938)
(0.112893 0.00848775 -0.00377304)
(0.112991 0.0103392 -0.00558851)
(0.11227 0.0129335 -0.0077905)
(0.11082 0.0165658 -0.0104834)
(0.108012 0.0216351 -0.0137864)
(0.104103 0.0288456 -0.0178598)
(0.0963823 0.0392281 -0.0228316)
(0.0862748 0.053943 -0.028253)
(0.0621745 0.0724139 -0.0320168)
(0.0327785 0.0722188 -0.0216223)
(0.0876494 0.0172951 0.000121934)
(0.0719299 0.0117039 0.000124229)
(0.0565101 0.00727648 -0.000107938)
(0.0478441 0.0035373 -0.000505249)
(0.0423931 0.00161601 -0.00104549)
(0.0392129 0.000695995 -0.00171968)
(0.0369154 0.000328337 -0.00255272)
(0.034935 0.000187231 -0.00357249)
(0.0327613 0.000134949 -0.00482637)
(0.0302811 9.03671e-05 -0.00633824)
(0.0270769 3.27955e-05 -0.00819141)
(0.0233368 -0.000111222 -0.0102928)
(0.018325 -0.000289992 -0.0127991)
(0.0126751 -0.000754314 -0.0148154)
(0.00575337 -0.0011069 -0.0158252)
(-0.000952368 -0.0024332 -0.009565)
(0.103903 0.0178976 0.00014315)
(0.10319 0.0173753 0.000104729)
(0.0994757 0.0138943 -0.000273832)
(0.0950172 0.00926653 -0.000932775)
(0.0906609 0.00588339 -0.00184864)
(0.0869377 0.00377376 -0.00301467)
(0.0834572 0.00271295 -0.00447125)
(0.0799238 0.00230285 -0.00627517)
(0.075836 0.00227898 -0.0085114)
(0.0709661 0.00245597 -0.0112476)
(0.0646691 0.00274757 -0.014618)
(0.0569356 0.00300711 -0.0185574)
(0.0465698 0.00324158 -0.0232208)
(0.034115 0.00292841 -0.0273273)
(0.0180909 0.00213932 -0.0291285)
(0.00237222 -0.00132491 -0.0172325)
(0.103892 0.0118353 0.000152233)
(0.107797 0.0158309 9.65131e-05)
(0.109908 0.0147925 -0.00032301)
(0.109475 0.0115201 -0.00104104)
(0.107708 0.00852257 -0.00203675)
(0.105221 0.00639233 -0.00331012)
(0.102199 0.00525531 -0.0049084)
(0.0986418 0.00489453 -0.00689808)
(0.0942275 0.00510713 -0.0093734)
(0.0887578 0.00571194 -0.0124178)
(0.0815313 0.00661561 -0.0161748)
(0.0724308 0.00763319 -0.0206034)
(0.0600009 0.00874313 -0.025841)
(0.0446815 0.00916643 -0.0305466)
(0.0243747 0.00835903 -0.0325839)
(0.00390903 0.00246342 -0.0191496)
(0.102029 0.00764685 0.000167034)
(0.105981 0.012399 0.000118498)
(0.109645 0.0129935 -0.000299799)
(0.111128 0.01142 -0.00101448)
(0.111081 0.00947783 -0.00200287)
(0.109833 0.00795958 -0.00326662)
(0.107655 0.00720086 -0.0048538)
(0.104642 0.00719106 -0.0068321)
(0.100576 0.00785655 -0.00929462)
(0.0953135 0.00909741 -0.0123287)
(0.088131 0.0108868 -0.0160741)
(0.0788883 0.0130742 -0.0205063)
(0.0659161 0.0156839 -0.0257477)
(0.0496112 0.0177054 -0.0304937)
(0.027393 0.0178779 -0.0325284)
(0.00430741 0.00906832 -0.0189914)
(0.101007 0.00505214 0.000191494)
(0.104054 0.00932633 0.000169659)
(0.107575 0.0107325 -0.00022408)
(0.109705 0.0103991 -0.000911226)
(0.110604 0.00948202 -0.00186442)
(0.110295 0.00871827 -0.00308213)
(0.108951 0.00851242 -0.00460796)
(0.106654 0.00899162 -0.00650534)
(0.103221 0.010197 -0.00886004)
(0.0985589 0.0121239 -0.0117572)
(0.0919311 0.0148313 -0.0153245)
(0.0832254 0.0182332 -0.0195527)
(0.0705098 0.0224415 -0.0245422)
(0.054179 0.0262055 -0.0290913)
(0.0306697 0.0276681 -0.0310037)
(0.00511199 0.0153531 -0.0179784)
(0.100556 0.00346391 0.000220236)
(0.102892 0.00688714 0.000235587)
(0.105999 0.00852412 -0.000120762)
(0.108327 0.00894769 -0.00076825)
(0.109762 0.0088453 -0.00167402)
(0.110134 0.00880154 -0.00283063)
(0.109504 0.00920037 -0.00427413)
(0.107913 0.0102433 -0.0060609)
(0.105186 0.0120653 -0.00826609)
(0.101266 0.0147782 -0.01097)
(0.0953968 0.0185775 -0.0142827)
(0.0875169 0.0235673 -0.0182121)
(0.0753912 0.0301302 -0.022828)
(0.0595086 0.0370675 -0.0270792)
(0.034907 0.0423183 -0.0288267)
(0.00680553 0.0272486 -0.0166665)
(0.100391 0.00231669 0.000253047)
(0.102354 0.00486084 0.000312549)
(0.105199 0.00644658 2.22745e-06)
(0.107636 0.00730193 -0.000596956)
(0.109438 0.00780882 -0.00144614)
(0.110347 0.00837981 -0.00252994)
(0.110358 0.00933536 -0.00387423)
(0.109498 0.0109015 -0.00552498)
(0.107621 0.0132695 -0.00754235)
(0.104743 0.0166472 -0.00999605)
(0.100167 0.0213354 -0.0129686)
(0.0940032 0.0276327 -0.0164793)
(0.0837974 0.036138 -0.0205465)
(0.0704261 0.0458428 -0.0243234)
(0.0459512 0.0546202 -0.0257621)
(0.0161056 0.0366394 -0.0149337)
(0.100339 0.00135657 0.000287756)
(0.102181 0.00303053 0.000394983)
(0.104975 0.0044051 0.000135338)
(0.10756 0.00549125 -0.000410689)
(0.109673 0.00645294 -0.00119842)
(0.111024 0.00753323 -0.00220374)
(0.111586 0.00896966 -0.00344123)
(0.111393 0.0109859 -0.00494517)
(0.11034 0.0138109 -0.00675946)
(0.108508 0.0177574 -0.00894093)
(0.105274 0.0232616 -0.0115428)
(0.100918 0.0310294 -0.0145922)
(0.0928535 0.0421695 -0.0180552)
(0.0826233 0.0576126 -0.0213151)
(0.059309 0.07684 -0.0224973)
(0.0317537 0.0752846 -0.0135241)
(0.0876353 0.0172969 5.40474e-05)
(0.0718462 0.0117108 1.83071e-05)
(0.056309 0.00728304 -0.00018316)
(0.04752 0.00354106 -0.000502231)
(0.0419384 0.00161853 -0.000926871)
(0.0386217 0.000698992 -0.00145539)
(0.0361718 0.000332993 -0.00210913)
(0.0340132 0.000193815 -0.00290762)
(0.0316352 0.000143999 -0.00388368)
(0.0289102 0.000103092 -0.00504454)
(0.0254642 5.27345e-05 -0.00644268)
(0.02145 -7.39811e-05 -0.00798353)
(0.0163413 -0.000221469 -0.00975633)
(0.0106594 -0.000607983 -0.0110951)
(0.00440589 -0.000901897 -0.0115505)
(-0.00121004 -0.00208477 -0.00699602)
(0.103883 0.017908 5.30708e-05)
(0.10307 0.0174002 -3.84652e-05)
(0.0991798 0.0139272 -0.000376411)
(0.09451 0.00930195 -0.000916965)
(0.0899128 0.0059227 -0.00164661)
(0.0859273 0.00382181 -0.00256754)
(0.0821533 0.00277624 -0.00371611)
(0.0782803 0.00238734 -0.00513549)
(0.0737996 0.00239216 -0.0068863)
(0.0684633 0.00260645 -0.00900454)
(0.0616751 0.00295016 -0.0115724)
(0.0534056 0.00328107 -0.0145)
(0.0427427 0.00361742 -0.017849)
(0.0301963 0.0034474 -0.0206323)
(0.0152618 0.00276193 -0.0214433)
(0.00149365 -0.000697776 -0.012611)
(0.103873 0.0118545 5.55669e-05)
(0.107674 0.0158742 -5.73164e-05)
(0.1096 0.0148553 -0.00043414)
(0.108938 0.0115963 -0.00102591)
(0.106905 0.00861305 -0.00182158)
(0.104123 0.00650353 -0.0028291)
(0.10077 0.00539834 -0.00409106)
(0.0968306 0.00508206 -0.00565896)
(0.0919724 0.00535544 -0.00760079)
(0.0859772 0.00603837 -0.00996437)
(0.0781873 0.00704625 -0.0128372)
(0.0684755 0.0081915 -0.0161445)
(0.0556742 0.00946776 -0.0199275)
(0.0402283 0.0100641 -0.0231424)
(0.0210903 0.00936163 -0.0240658)
(0.00282704 0.00321834 -0.0140261)
(0.102012 0.00767003 6.68073e-05)
(0.105861 0.0124529 -4.25642e-05)
(0.109342 0.0130763 -0.000419811)
(0.1106 0.0115274 -0.00100935)
(0.11029 0.00961156 -0.00179918)
(0.10875 0.00812802 -0.00279891)
(0.106244 0.00741908 -0.00405199)
(0.102853 0.00747805 -0.0056111)
(0.098348 0.00823721 -0.0075435)
(0.0925646 0.00959853 -0.00990037)
(0.0848196 0.0115461 -0.0127664)
(0.0749663 0.01392 -0.0160794)
(0.0616103 0.0167627 -0.0198681)
(0.04517 0.0189877 -0.0231145)
(0.0241007 0.0192705 -0.0240276)
(0.00324611 0.00997726 -0.0139104)
(0.100991 0.0050789 8.70952e-05)
(0.103938 0.00938944 -1.03007e-06)
(0.107282 0.0108323 -0.000358476)
(0.109195 0.0105335 -0.000925448)
(0.109843 0.00965379 -0.00168651)
(0.109257 0.00893779 -0.00264901)
(0.107604 0.00879841 -0.00385292)
(0.10495 0.00936897 -0.00534772)
(0.101104 0.0106991 -0.00719516)
(0.095953 0.0127876 -0.00944544)
(0.0887944 0.0157078 -0.0121745)
(0.0795139 0.0193601 -0.0153334)
(0.0664276 0.0238808 -0.018936)
(0.049969 0.0279037 -0.022042)
(0.0275417 0.0295174 -0.0228798)
(0.00413988 0.0165267 -0.0131653)
(0.100541 0.0034933 0.000111139)
(0.10278 0.00695726 5.3489e-05)
(0.105717 0.00863692 -0.000273336)
(0.107838 0.00910272 -0.000807822)
(0.109037 0.00904697 -0.00153024)
(0.109151 0.00906238 -0.00244336)
(0.108235 0.00954263 -0.00358125)
(0.106317 0.0106976 -0.00498797)
(0.103212 0.0126736 -0.00671727)
(0.0988479 0.015589 -0.00881634)
(0.0924935 0.0196587 -0.0113487)
(0.0840932 0.0249729 -0.0142802)
(0.0716229 0.0319502 -0.0176052)
(0.0556364 0.039241 -0.0204965)
(0.0320298 0.0447493 -0.0212388)
(0.00595156 0.0288598 -0.0121909)
(0.100376 0.00234833 0.000138463)
(0.102247 0.0049365 0.00011715)
(0.10493 0.0065691 -0.000171972)
(0.107172 0.00747213 -0.000667015)
(0.108755 0.00803245 -0.00134352)
(0.109429 0.00867117 -0.0021981)
(0.109183 0.00971948 -0.00325684)
(0.108033 0.0114136 -0.00455608)
(0.105824 0.0139586 -0.00613855)
(0.102563 0.0175719 -0.00804487)
(0.0975673 0.0225788 -0.0103201)
(0.0909669 0.0292672 -0.0129424)
(0.0804666 0.0382815 -0.0158757)
(0.0670472 0.0484445 -0.0184443)
(0.0434431 0.0576102 -0.0190281)
(0.0154123 0.0387261 -0.0109728)
(0.100325 0.00138948 0.000167178)
(0.102079 0.00310923 0.000185107)
(0.10472 0.00453286 -6.25281e-05)
(0.107124 0.00566962 -0.000514189)
(0.109036 0.00668875 -0.00114089)
(0.110176 0.00784197 -0.00193233)
(0.110511 0.00937812 -0.00290577)
(0.110069 0.0115325 -0.00408874)
(0.108735 0.0145494 -0.00551202)
(0.106587 0.0187555 -0.00720788)
(0.103011 0.0246146 -0.00920146)
(0.0983194 0.0328315 -0.0114806)
(0.0900325 0.0445694 -0.013979)
(0.0798398 0.0605895 -0.0161906)
(0.0572854 0.0804067 -0.0166567)
(0.0313345 0.0779995 -0.00995303)
(0.0876252 0.0172983 1.75102e-05)
(0.0717859 0.0117162 -2.76894e-05)
(0.0561626 0.00728813 -0.000182735)
(0.0472822 0.00354422 -0.000415867)
(0.0416035 0.00162092 -0.000720568)
(0.038187 0.000702104 -0.00109785)
(0.0356298 0.000338012 -0.00156301)
(0.0333525 0.000201457 -0.00212733)
(0.0308495 0.000155465 -0.00280953)
(0.0279891 0.000120561 -0.00360516)
(0.0244357 8.07295e-05 -0.00453873)
(0.0203261 -2.57044e-05 -0.00552654)
(0.0152599 -0.000139255 -0.0066041)
(0.00968971 -0.000460376 -0.00732583)
(0.00383262 -0.000695218 -0.0073493)
(-0.00119798 -0.00181296 -0.00427764)
(0.103869 0.0179161 7.66264e-06)
(0.102982 0.0174196 -9.00961e-05)
(0.098963 0.013953 -0.000354781)
(0.0941354 0.00932998 -0.000755836)
(0.0893579 0.00595403 -0.00128527)
(0.0851772 0.00386028 -0.00194771)
(0.0811903 0.00282705 -0.00277038)
(0.0770802 0.00245552 -0.0037816)
(0.0723408 0.00248426 -0.00501831)
(0.0667194 0.00273033 -0.00649257)
(0.0596665 0.00311905 -0.00824301)
(0.0511544 0.00351233 -0.0101781)
(0.0404511 0.00393796 -0.012298)
(0.0280561 0.00388787 -0.0139198)
(0.0138518 0.00330039 -0.0140264)
(0.00124263 -0.000195302 -0.00797007)
(0.10386 0.0118696 7.03335e-06)
(0.107585 0.0159082 -0.000110191)
(0.109374 0.0149046 -0.000406456)
(0.108541 0.0116564 -0.000846982)
(0.106308 0.00868438 -0.00142581)
(0.103307 0.00659108 -0.00215189)
(0.0997122 0.00551067 -0.00305735)
(0.0955028 0.00522908 -0.00417682)
(0.0903482 0.00554994 -0.0055525)
(0.0840256 0.00629428 -0.00720447)
(0.0759224 0.00738455 -0.00917376)
(0.0659217 0.00863216 -0.011377)
(0.0530425 0.0100431 -0.0137953)
(0.0377486 0.0107827 -0.015699)
(0.0194184 0.0101797 -0.0158388)
(0.00249194 0.00383418 -0.00890838)
(0.102 0.00768848 1.4885e-05)
(0.105774 0.0124954 -0.00010094)
(0.109121 0.0131415 -0.000398291)
(0.11021 0.011612 -0.000837456)
(0.109703 0.00971662 -0.0014121)
(0.107946 0.00825983 -0.00213253)
(0.1052 0.00758899 -0.00303166)
(0.101542 0.00770034 -0.00414508)
(0.0967438 0.0085305 -0.00551458)
(0.0906369 0.00998269 -0.00716271)
(0.0825801 0.0120489 -0.00912844)
(0.072441 0.0145628 -0.0113369)
(0.059003 0.01758 -0.0137592)
(0.0427163 0.0199608 -0.0156815)
(0.0224454 0.0203349 -0.0158036)
(0.00294291 0.0106857 -0.00881327)
(0.100979 0.0051002 3.00172e-05)
(0.103854 0.00943935 -7.0403e-05)
(0.107068 0.010911 -0.000353277)
(0.108819 0.0106391 -0.000775741)
(0.109279 0.00978827 -0.00132917)
(0.108487 0.00910879 -0.00202235)
(0.106607 0.00901978 -0.00288578)
(0.103702 0.00965896 -0.00395288)
(0.0995817 0.011082 -0.00526166)
(0.0941304 0.0132893 -0.00683438)
(0.086682 0.0163637 -0.00870434)
(0.0771403 0.020195 -0.0108063)
(0.0639811 0.0249353 -0.0131021)
(0.0476813 0.0291398 -0.0149303)
(0.0260066 0.0308552 -0.0150077)
(0.00390327 0.0173853 -0.0083025)
(0.10053 0.0035166 4.80587e-05)
(0.102699 0.0070126 -2.97942e-05)
(0.105511 0.00872559 -0.000290003)
(0.107478 0.00922418 -0.000688417)
(0.1085 0.0092043 -0.00121338)
(0.108422 0.00926466 -0.00187048)
(0.107297 0.00980609 -0.00268602)
(0.10515 0.0110442 -0.00368966)
(0.101796 0.0131328 -0.00491403)
(0.0971613 0.0161933 -0.00637977)
(0.0905473 0.0204524 -0.00811238)
(0.0819203 0.0259875 -0.0100577)
(0.0693921 0.0332368 -0.0121666)
(0.053575 0.04075 -0.0138541)
(0.0306618 0.0463975 -0.0138846)
(0.00579431 0.0299442 -0.00764834)
(0.100365 0.00237328 6.85068e-05)
(0.10217 0.004996 1.76505e-05)
(0.104734 0.00666513 -0.000214633)
(0.106831 0.00760508 -0.00058394)
(0.108251 0.00820633 -0.00107524)
(0.108749 0.0088963 -0.00168977)
(0.108314 0.0100139 -0.00244823)
(0.106962 0.0118022 -0.0033751)
(0.104534 0.014475 -0.00449581)
(0.101042 0.0182544 -0.00582756)
(0.0958265 0.0234792 -0.00738494)
(0.0890461 0.0304251 -0.0091246)
(0.0785094 0.0397592 -0.0109823)
(0.0652766 0.0501927 -0.0124741)
(0.0422881 0.0595495 -0.0124467)
(0.0153472 0.0400613 -0.00689275)
(0.100315 0.00141527 8.99101e-05)
(0.102005 0.00317085 6.82066e-05)
(0.104535 0.00463265 -0.000133348)
(0.106804 0.00580854 -0.000470682)
(0.108566 0.00687156 -0.000925502)
(0.109548 0.00807978 -0.00149414)
(0.109717 0.00969005 -0.00219111)
(0.109101 0.0119453 -0.00303499)
(0.107582 0.0150994 -0.00404341)
(0.105246 0.0194853 -0.00522907)
(0.101496 0.0255817 -0.00659494)
(0.0966784 0.0340843 -0.00810722)
(0.0883879 0.0461796 -0.00968806)
(0.0784103 0.0625157 -0.0109665)
(0.0564022 0.0825953 -0.0109205)
(0.0314097 0.0796566 -0.00628073)
(0.0876184 0.0172991 2.24739e-06)
(0.0717459 0.0117198 -3.35182e-05)
(0.0560652 0.0072914 -0.000130556)
(0.0471228 0.00354617 -0.00027329)
(0.0413778 0.00162222 -0.000457104)
(0.0378923 0.000703684 -0.000684319)
(0.0352608 0.000340549 -0.000964165)
(0.0329013 0.000205232 -0.00130302)
(0.0303123 0.000160949 -0.00171119)
(0.0273599 0.000128677 -0.00218393)
(0.0237343 9.36479e-05 -0.00273354)
(0.0195651 -2.928e-06 -0.00330765)
(0.0145311 -9.96101e-05 -0.00392201)
(0.0090503 -0.000387473 -0.00432255)
(0.00346384 -0.00059567 -0.00429663)
(-0.00119565 -0.00168298 -0.0025101)
(0.103859 0.0179216 -7.77699e-06)
(0.102925 0.0174327 -7.93619e-05)
(0.0988186 0.0139704 -0.00024767)
(0.0938844 0.0093491 -0.000494982)
(0.0889839 0.00597535 -0.000816713)
(0.0846692 0.00388634 -0.00121732)
(0.0805359 0.00286127 -0.00171389)
(0.0762632 0.0025012 -0.00232319)
(0.0713477 0.00254556 -0.00306615)
(0.0655353 0.00281216 -0.00394683)
(0.0583091 0.00322962 -0.00498406)
(0.0496473 0.00366201 -0.00611771)
(0.0389344 0.00414278 -0.00733802)
(0.0266743 0.00416353 -0.00824701)
(0.012972 0.00362872 -0.00823024)
(0.0010991 9.23959e-05 -0.00467196)
(0.103851 0.0118801 -8.87958e-06)
(0.107526 0.0159315 -9.4021e-05)
(0.109224 0.0149385 -0.000283066)
(0.108275 0.0116977 -0.000555076)
(0.105906 0.00873344 -0.00090743)
(0.102754 0.0066512 -0.00134694)
(0.0989929 0.00558763 -0.00189396)
(0.0945986 0.00532954 -0.00256915)
(0.0892422 0.00568248 -0.00339667)
(0.0826998 0.0064681 -0.00438526)
(0.0743906 0.00761337 -0.0055549)
(0.0642105 0.00892859 -0.00684961)
(0.051299 0.0104274 -0.00824732)
(0.0361449 0.0112574 -0.00932007)
(0.0183725 0.0107129 -0.00931287)
(0.00229913 0.00422091 -0.00522653)
(0.101991 0.00770127 -4.34078e-06)
(0.105716 0.0125248 -8.89295e-05)
(0.108974 0.0131865 -0.000278999)
(0.109949 0.0116704 -0.000550254)
(0.109308 0.00978908 -0.000900116)
(0.107401 0.00835061 -0.00133618)
(0.10449 0.00770577 -0.00187939)
(0.10065 0.00785278 -0.002551)
(0.0956506 0.00873113 -0.003375)
(0.0893261 0.0102447 -0.00436167)
(0.0810637 0.0123906 -0.00552984)
(0.0707461 0.0149978 -0.0068285)
(0.0572723 0.0181298 -0.00822992)
(0.0411259 0.020611 -0.00931466)
(0.0214071 0.0210402 -0.00929723)
(0.00276828 0.0111487 -0.00517431)
(0.100971 0.00511502 5.00852e-06)
(0.103798 0.00947391 -7.02712e-05)
(0.106926 0.0109654 -0.000251541)
(0.108567 0.0107121 -0.000512533)
(0.108899 0.00988108 -0.000849387)
(0.107965 0.00922665 -0.00126881)
(0.105929 0.00917212 -0.00179033)
(0.102853 0.00985817 -0.00243392)
(0.0985442 0.0113444 -0.0032214)
(0.09289 0.0136323 -0.00416298)
(0.08525 0.0168107 -0.00527442)
(0.0755448 0.020762 -0.00651054)
(0.0623541 0.0256477 -0.00783893)
(0.0461957 0.0299714 -0.00887045)
(0.0250425 0.0317506 -0.0088318)
(0.00376912 0.0179613 -0.00488017)
(0.100522 0.0035328 1.61705e-05)
(0.102646 0.00705093 -4.52429e-05)
(0.105375 0.0087869 -0.000212562)
(0.107238 0.00930807 -0.000458777)
(0.108139 0.00931285 -0.000778185)
(0.107929 0.00940408 -0.00117558)
(0.10666 0.00998741 -0.00166798)
(0.104356 0.0112823 -0.00227313)
(0.10083 0.0134476 -0.00300968)
(0.0960129 0.0166065 -0.003887)
(0.0892271 0.0209931 -0.00491653)
(0.0804585 0.0266759 -0.00605969)
(0.0679074 0.0341045 -0.00727867)
(0.0522361 0.0417638 -0.00822827)
(0.0298038 0.0474986 -0.00816716)
(0.00571062 0.0306762 -0.00449505)