/*--------------------------------*- C++ -*----------------------------------*\
| =========                 |                                                 |
| \\      /  F ield         | OpenFOAM: The Open Source CFD Toolbox           |
|  \\    /   O peration     | Version:  v1912                                 |
|   \\  /    A nd           | Website:  www.openfoam.com                      |
|    \\/     M anipulation  |                                                 |
\*---------------------------------------------------------------------------*/
FoamFile
{
    version     2.0;
    format      ascii;
    class       volVectorField;
    location    "0.44/solid";
    object      D_0;
}
// * * * * * * * * * * * * * * * * * * * * * * * * * * * * * * * * * * * * * //

dimensions      [0 1 0 0 0 0 0];


internalField   nonuniform List<vector> 
256
(
(1.87005e-08 3.04081e-08 1.98185e-08)
(1.60459e-09 1.76669e-08 1.79938e-08)
(-1.06072e-09 1.74789e-08 1.80838e-08)
(-1.78453e-08 2.95495e-08 2.0176e-08)
(2.93176e-08 2.38936e-08 3.49706e-08)
(5.20172e-09 1.68267e-08 3.26593e-08)
(-3.10586e-09 1.63698e-08 3.29622e-08)
(-2.68232e-08 2.22956e-08 3.59881e-08)
(3.0636e-08 1.52116e-08 4.15524e-08)
(6.38472e-09 1.24881e-08 3.91461e-08)
(-2.41564e-09 1.17868e-08 3.96147e-08)
(-2.62866e-08 1.29503e-08 4.30568e-08)
(3.06152e-08 8.69624e-09 4.60552e-08)
(6.84979e-09 7.1902e-09 4.35351e-08)
(-7.27597e-10 6.26993e-09 4.41226e-08)
(-2.41233e-08 5.82127e-09 4.79118e-08)
(3.15539e-08 3.30782e-09 5.04387e-08)
(7.70754e-09 1.42079e-09 4.78305e-08)
(8.44212e-10 2.95394e-10 4.85084e-08)
(-2.26319e-08 -1.44977e-10 5.25656e-08)
(3.42767e-08 -1.99327e-09 5.5607e-08)
(9.3746e-09 -4.73478e-09 5.29383e-08)
(1.88258e-09 -6.06346e-09 5.36913e-08)
(-2.26567e-08 -6.01219e-09 5.79584e-08)
(3.98514e-08 -1.06457e-08 6.24187e-08)
(1.21169e-08 -1.31572e-08 5.98017e-08)
(2.11208e-09 -1.46851e-08 6.06218e-08)
(-2.531e-08 -1.52303e-08 6.49675e-08)
(4.84156e-08 -4.40501e-08 7.06602e-08)
(1.51573e-08 -4.24932e-08 6.83999e-08)
(2.23238e-09 -4.40678e-08 6.92706e-08)
(-3.07981e-08 -4.88769e-08 7.33518e-08)
(1.39544e-08 1.48961e-08 2.07138e-09)
(7.46707e-10 4.27465e-09 2.79644e-09)
(-4.3299e-10 4.09612e-09 2.94167e-09)
(-1.32684e-08 1.41069e-08 2.49732e-09)
(2.20825e-08 1.25776e-08 1.08746e-08)
(3.46846e-09 6.51905e-09 1.22726e-08)
(-1.95884e-09 6.02796e-09 1.26185e-08)
(-2.01088e-08 1.09547e-08 1.18811e-08)
(2.29117e-08 8.05329e-09 1.74617e-08)
(4.39063e-09 5.60268e-09 1.91208e-08)
(-1.29365e-09 4.86389e-09 1.96129e-08)
(-1.93724e-08 5.75242e-09 1.8896e-08)
(2.27187e-08 3.49544e-09 2.20293e-08)
(4.76311e-09 2.06128e-09 2.37796e-08)
(2.57447e-10 1.11282e-09 2.43812e-08)
(-1.72616e-08 5.93488e-10 2.37893e-08)
(2.35243e-08 -1.07336e-09 2.59715e-08)
(5.5459e-09 -2.92948e-09 2.77552e-08)
(1.71919e-09 -4.07424e-09 2.8443e-08)
(-1.58131e-08 -4.54025e-09 2.79895e-08)
(2.61762e-08 -5.80357e-09 3.013e-08)
(7.15234e-09 -8.5371e-09 3.19244e-08)
(2.66669e-09 -9.8772e-09 3.26832e-08)
(-1.59079e-08 -9.82384e-09 3.23604e-08)
(3.18079e-08 -1.2772e-08 3.45151e-08)
(9.86025e-09 -1.52659e-08 3.63245e-08)
(2.80718e-09 -1.67919e-08 3.71377e-08)
(-1.8735e-08 -1.73311e-08 3.69105e-08)
(4.06221e-08 -4.06187e-08 3.72437e-08)
(1.28774e-08 -3.87329e-08 3.90866e-08)
(2.85978e-09 -4.02772e-08 3.99201e-08)
(-2.4575e-08 -4.53551e-08 3.97082e-08)
(1.09188e-08 1.04431e-08 9.31091e-10)
(1.43183e-11 1.2269e-09 1.82436e-09)
(1.47866e-10 1.06814e-09 1.9314e-09)
(-1.03869e-08 9.76409e-09 1.23614e-09)
(1.74106e-08 6.72053e-09 6.49887e-09)
(1.94064e-09 1.48376e-09 8.19654e-09)
(-8.65944e-10 1.02037e-09 8.46031e-09)
(-1.58619e-08 5.23775e-09 7.25109e-09)
(1.80033e-08 2.73967e-09 1.22591e-08)
(2.63158e-09 5.56613e-10 1.42405e-08)
(-2.1668e-10 -1.54537e-10 1.46208e-08)
(-1.51296e-08 5.70365e-10 1.33527e-08)
(1.77636e-08 -8.1767e-10 1.69414e-08)
(2.92858e-09 -2.18627e-09 1.90244e-08)
(1.20121e-09 -3.10755e-09 1.94965e-08)
(-1.3176e-08 -3.59956e-09 1.83099e-08)
(1.85131e-08 -4.36661e-09 2.08575e-08)
(3.64728e-09 -6.20837e-09 2.29853e-08)
(2.55423e-09 -7.32533e-09 2.35329e-08)
(-1.18385e-08 -7.72166e-09 2.24537e-08)
(2.11638e-08 -7.9101e-09 2.44136e-08)
(5.20483e-09 -1.06455e-08 2.65594e-08)
(3.40948e-09 -1.19552e-08 2.71688e-08)
(-1.20671e-08 -1.18205e-08 2.61971e-08)
(2.68913e-08 -1.32258e-08 2.7365e-08)
(7.8918e-09 -1.57238e-08 2.95142e-08)
(3.4565e-09 -1.72138e-08 3.01662e-08)
(-1.50995e-08 -1.76675e-08 2.92828e-08)
(3.57872e-08 -3.85811e-08 2.85511e-08)
(1.08922e-08 -3.66801e-08 3.07147e-08)
(3.43023e-09 -3.81807e-08 3.13742e-08)
(-2.11145e-08 -4.31855e-08 3.05062e-08)
(9.50181e-09 9.1546e-09 1.09491e-09)
(-2.8985e-10 7.15913e-10 1.64166e-09)
(3.66761e-10 5.73338e-10 1.71757e-09)
(-9.08822e-09 8.56211e-09 1.3118e-09)
(1.51713e-08 4.31484e-09 5.07698e-09)
(1.22347e-09 -4.44483e-10 6.14606e-09)
(-4.34071e-10 -8.68078e-10 6.33816e-09)
(-1.39423e-08 2.98451e-09 5.62465e-09)
(1.57046e-08 -2.33176e-10 9.61068e-09)
(1.78408e-09 -2.2438e-09 1.08709e-08)
(1.48644e-10 -2.90717e-09 1.11519e-08)
(-1.33387e-08 -2.23454e-09 1.0419e-08)
(1.55108e-08 -3.67013e-09 1.37479e-08)
(2.03998e-09 -4.99167e-09 1.50728e-08)
(1.43095e-09 -5.86494e-09 1.54264e-08)
(-1.1602e-08 -6.28946e-09 1.4775e-08)
(1.62689e-08 -6.62917e-09 1.72638e-08)
(2.7187e-09 -8.45835e-09 1.86167e-08)
(2.67258e-09 -9.52903e-09 1.9032e-08)
(-1.04209e-08 -9.83254e-09 1.84786e-08)
(1.89295e-08 -9.33794e-09 2.01775e-08)
(4.23808e-09 -1.20715e-08 2.15437e-08)
(3.43991e-09 -1.33362e-08 2.20096e-08)
(-1.07822e-08 -1.31064e-08 2.15478e-08)
(2.46889e-08 -1.3822e-08 2.23143e-08)
(6.89494e-09 -1.63374e-08 2.36866e-08)
(3.41234e-09 -1.77836e-08 2.41858e-08)
(-1.39471e-08 -1.81299e-08 2.3793e-08)
(3.3572e-08 -3.81124e-08 2.32629e-08)
(9.86866e-09 -3.63042e-08 2.46609e-08)
(3.32212e-09 -3.77643e-08 2.51634e-08)
(-2.00342e-08 -4.2594e-08 2.47668e-08)
(8.8893e-09 8.59334e-09 1.06057e-09)
(-3.73966e-10 5.62135e-10 1.33557e-09)
(4.01797e-10 4.3231e-10 1.38885e-09)
(-8.55554e-09 8.06474e-09 1.21249e-09)
(1.41994e-08 3.31213e-09 4.01609e-09)
(9.71123e-10 -1.19714e-09 4.56799e-09)
(-3.64727e-10 -1.58602e-09 4.70435e-09)
(-1.31907e-08 2.10589e-09 4.40379e-09)
(1.47358e-08 -1.6928e-09 7.36927e-09)
(1.4695e-09 -3.61035e-09 8.02819e-09)
(1.34863e-10 -4.2288e-09 8.2295e-09)
(-1.27293e-08 -3.54621e-09 7.94723e-09)
(1.46008e-08 -5.30351e-09 1.06052e-08)
(1.70161e-09 -6.59656e-09 1.12999e-08)
(1.30192e-09 -7.4227e-09 1.15556e-08)
(-1.11856e-08 -7.77219e-09 1.13476e-08)
(1.53837e-08 -8.09645e-09 1.3423e-08)
(2.35222e-09 -9.91198e-09 1.41342e-08)
(2.44741e-09 -1.09369e-08 1.44372e-08)
(-1.01507e-08 -1.11565e-08 1.43102e-08)
(1.80426e-08 -1.04701e-08 1.5694e-08)
(3.8369e-09 -1.31922e-08 1.64176e-08)
(3.14278e-09 -1.44138e-08 1.67596e-08)
(-1.06147e-08 -1.41064e-08 1.67026e-08)
(2.37846e-08 -1.46696e-08 1.73244e-08)
(6.45658e-09 -1.71885e-08 1.80602e-08)
(3.06187e-09 -1.85953e-08 1.84276e-08)
(-1.38494e-08 -1.88588e-08 1.84174e-08)
(3.26198e-08 -3.84071e-08 1.82226e-08)
(9.39891e-09 -3.66722e-08 1.89829e-08)
(2.92491e-09 -3.80982e-08 1.93522e-08)
(-1.9963e-08 -4.27861e-08 1.93346e-08)
(8.60663e-09 8.27942e-09 8.44023e-10)
(-3.90491e-10 4.63395e-10 9.73397e-10)
(3.89609e-10 3.42889e-10 1.00887e-09)
(-8.32299e-09 7.79501e-09 9.44478e-10)
(1.37636e-08 2.83876e-09 2.92674e-09)
(8.87411e-10 -1.54204e-09 3.19183e-09)
(-3.95899e-10 -1.90517e-09 3.283e-09)
(-1.28969e-08 1.72209e-09 3.18443e-09)
(1.43147e-08 -2.38978e-09 5.22926e-09)
(1.35475e-09 -4.25928e-09 5.55007e-09)
(3.46864e-11 -4.84317e-09 5.68541e-09)
(-1.25464e-08 -4.13177e-09 5.616e-09)
(1.42195e-08 -6.1765e-09 7.49325e-09)
(1.56925e-09 -7.45233e-09 7.83404e-09)
(1.1184e-09 -8.24109e-09 8.00706e-09)
(-1.114e-08 -8.52778e-09 7.99387e-09)
(1.50183e-08 -9.01187e-09 9.50247e-09)
(2.1968e-09 -1.0814e-08 9.85443e-09)
(2.193e-09 -1.1802e-08 1.00606e-08)
(-1.02126e-08 -1.19582e-08 1.01052e-08)
(1.7666e-08 -1.13463e-08 1.11302e-08)
(3.65111e-09 -1.4052e-08 1.1494e-08)
(2.83565e-09 -1.52393e-08 1.17279e-08)
(-1.07467e-08 -1.48778e-08 1.18197e-08)
(2.33764e-08 -1.55044e-08 1.23253e-08)
(6.2368e-09 -1.80118e-08 1.27029e-08)
(2.71708e-09 -1.93878e-08 1.29548e-08)
(-1.40192e-08 -1.96007e-08 1.30755e-08)
(3.21637e-08 -3.89345e-08 1.30839e-08)
(9.15064e-09 -3.72271e-08 1.3479e-08)
(2.5471e-09 -3.86268e-08 1.3732e-08)
(-2.01443e-08 -4.32344e-08 1.38478e-08)
(8.46376e-09 8.10505e-09 5.33496e-10)
(-3.93862e-10 4.02182e-10 5.90964e-10)
(3.7707e-10 2.87696e-10 6.11297e-10)
(-8.20914e-09 7.64813e-09 5.90726e-10)
(1.35486e-08 2.60017e-09 1.77825e-09)
(8.52791e-10 -1.71512e-09 1.89777e-09)
(-4.28283e-10 -2.06155e-09 1.95014e-09)
(-1.27658e-08 1.54067e-09 1.92545e-09)
(1.41094e-08 -2.72365e-09 3.12541e-09)
(1.3027e-09 -4.56824e-09 3.27186e-09)
(-4.23285e-11 -5.12937e-09 3.34984e-09)
(-1.24848e-08 -4.39284e-09 3.34725e-09)
(1.40341e-08 -6.62393e-09 4.45417e-09)
(1.5039e-09 -7.88896e-09 4.61144e-09)
(9.89623e-10 -8.65264e-09 4.71152e-09)
(-1.11611e-08 -8.89685e-09 4.74279e-09)
(1.4838e-08 -9.54687e-09 5.64702e-09)
(2.11386e-09 -1.1338e-08 5.8116e-09)
(2.01929e-09 -1.23011e-08 5.93136e-09)
(-1.03e-08 -1.24162e-08 5.99628e-09)
(1.74731e-08 -1.194e-08 6.62625e-09)
(3.54576e-09 -1.46308e-08 6.79953e-09)
(2.62773e-09 -1.57947e-08 6.93579e-09)
(-1.08767e-08 -1.54001e-08 7.02748e-09)
(2.31576e-08 -1.6132e-08 7.36486e-09)
(6.10713e-09 -1.86237e-08 7.5484e-09)
(2.48406e-09 -1.99789e-08 7.69543e-09)
(-1.41713e-08 -2.01651e-08 7.80274e-09)
(3.1911e-08 -3.94021e-08 7.86986e-09)
(9.00029e-09 -3.76949e-08 8.06326e-09)
(2.29249e-09 -3.90769e-08 8.21093e-09)
(-2.03037e-08 -4.36484e-08 8.31611e-09)
(8.40013e-09 8.02705e-09 1.81665e-10)
(-3.9535e-10 3.7401e-10 1.98193e-10)
(3.71495e-10 2.62462e-10 2.04817e-10)
(-8.1588e-09 7.58327e-09 2.00248e-10)
(1.34529e-08 2.49728e-09 5.96061e-10)
(8.37192e-10 -1.78963e-09 6.30716e-10)
(-4.43469e-10 -2.1279e-09 6.47792e-10)
(-1.27088e-08 1.46549e-09 6.43917e-10)
(1.40172e-08 -2.86225e-09 1.03971e-09)
(1.27854e-09 -4.69576e-09 1.0825e-09)
(-7.85396e-11 -5.24567e-09 1.10797e-09)
(-1.24599e-08 -4.49571e-09 1.11198e-09)
(1.39491e-08 -6.81593e-09 1.47702e-09)
(1.47235e-09 -8.07543e-09 1.52334e-09)
(9.29033e-10 -8.82664e-09 1.5561e-09)
(-1.11742e-08 -9.04995e-09 1.57128e-09)
(1.47536e-08 -9.7952e-09 1.87166e-09)
(2.07271e-09 -1.15802e-08 1.9206e-09)
(1.93719e-09 -1.25308e-08 1.95986e-09)
(-1.0344e-08 -1.26259e-08 1.98601e-09)
(1.73809e-08 -1.22376e-08 2.19847e-09)
(3.49281e-09 -1.49199e-08 2.25062e-09)
(2.52882e-09 -1.6072e-08 2.29537e-09)
(-1.09409e-08 -1.56618e-08 2.33014e-09)
(2.30518e-08 -1.64614e-08 2.44888e-09)
(6.04182e-09 -1.89429e-08 2.50474e-09)
(2.37234e-09 -2.02876e-08 2.55308e-09)
(-1.42464e-08 -2.04626e-08 2.5928e-09)
(3.17884e-08 -3.96646e-08 2.62554e-09)
(8.9243e-09 -3.7952e-08 2.68451e-09)
(2.16997e-09 -3.9325e-08 2.73306e-09)
(-2.0383e-08 -4.38839e-08 2.77227e-09)
)
;

boundaryField
{
    interface
    {
        type            solidTraction;
        traction        uniform (0 0 0);
        pressure        uniform 0;
        secondOrder     false;
        setEffectiveTraction false;
        relaxationFactor 1;
        value           nonuniform List<vector> 
192
(
(7.61745e-08 4.24126e-08 1.85394e-08)
(8.32585e-08 2.68775e-08 3.29422e-08)
(8.56588e-08 1.55361e-08 3.93766e-08)
(8.72568e-08 8.92581e-09 4.38409e-08)
(9.03002e-08 4.22336e-09 4.81948e-08)
(9.6026e-08 8.13728e-11 5.33496e-08)
(1.05525e-07 -7.11064e-09 6.01718e-08)
(1.19863e-07 -4.14529e-08 6.84371e-08)
(6.2927e-08 2.39053e-08 1.25695e-10)
(6.86084e-08 1.48169e-08 7.89744e-09)
(7.01277e-08 8.21236e-09 1.4303e-08)
(7.12725e-08 3.6487e-09 1.88159e-08)
(7.40814e-08 -2.08801e-10 2.27109e-08)
(7.98499e-08 -3.7324e-09 2.68514e-08)
(8.99538e-08 -9.16013e-09 3.12747e-08)
(1.06313e-07 -3.79929e-08 3.40863e-08)
(5.41602e-08 1.75254e-08 -1.82268e-10)
(5.93735e-08 8.49164e-09 4.77073e-09)
(6.06965e-08 2.82796e-09 1.0457e-08)
(6.17107e-08 -6.90084e-10 1.51391e-08)
(6.44106e-08 -3.51636e-09 1.90433e-08)
(7.02022e-08 -5.81525e-09 2.26016e-08)
(8.05921e-08 -9.56949e-09 2.5585e-08)
(9.75871e-08 -3.59306e-08 2.67883e-08)
(4.92301e-08 1.53229e-08 5.87412e-10)
(5.39713e-08 5.86556e-09 4.27394e-09)
(5.53004e-08 -1.48256e-10 8.79357e-09)
(5.6355e-08 -3.52892e-09 1.2957e-08)
(5.90493e-08 -5.77428e-09 1.64812e-08)
(6.48487e-08 -7.2326e-09 1.9397e-08)
(7.53135e-08 -1.0161e-08 2.15374e-08)
(9.24407e-08 -3.54506e-08 2.24708e-08)
(4.65555e-08 1.43655e-08 8.36676e-10)
(5.10396e-08 4.77376e-09 3.66398e-09)
(5.24077e-08 -1.59237e-09 7.02161e-09)
(5.35358e-08 -5.14139e-09 1.02822e-08)
(5.62591e-08 -7.23577e-09 1.31102e-08)
(6.20527e-08 -8.36947e-09 1.5378e-08)
(7.24908e-08 -1.10248e-08 1.69961e-08)
(8.95635e-08 -3.57491e-08 1.78704e-08)
(4.5055e-08 1.3872e-08 7.37579e-10)
(4.94257e-08 4.2658e-09 2.76396e-09)
(5.08261e-08 -2.27572e-09 5.07255e-09)
(5.20075e-08 -6.00046e-09 7.35146e-09)
(5.47534e-08 -8.15002e-09 9.36595e-09)
(6.05297e-08 -9.25639e-09 1.09877e-08)
(7.09119e-08 -1.18795e-08 1.21685e-08)
(8.7899e-08 -3.62878e-08 1.29066e-08)
(4.42218e-08 1.36081e-08 4.81837e-10)
(4.85395e-08 4.0116e-09 1.70052e-09)
(4.99578e-08 -2.60221e-09 3.05095e-09)
(5.11677e-08 -6.44161e-09 4.38651e-09)
(5.39232e-08 -8.68686e-09 5.58079e-09)
(5.9681e-08 -9.85966e-09 6.55492e-09)
(7.00152e-08 -1.25221e-08 7.28367e-09)
(8.69364e-08 -3.67666e-08 7.77599e-09)
(4.38438e-08 1.34903e-08 1.65747e-10)
(4.81377e-08 3.90156e-09 5.72114e-10)
(4.95629e-08 -2.73811e-09 1.01662e-09)
(5.07841e-08 -6.63166e-09 1.45577e-09)
(5.3542e-08 -8.93702e-09 1.85052e-09)
(5.92883e-08 -1.01626e-08 2.1754e-09)
(6.95967e-08 -1.2859e-08 2.42241e-09)
(8.64841e-08 -3.70356e-08 2.59486e-09)
(1.88846e-08 4.41055e-08 8.00358e-08)
(2.97552e-08 2.93273e-08 9.15142e-08)
(3.11237e-08 1.79829e-08 9.91935e-08)
(3.10937e-08 1.09179e-08 1.05392e-07)
(3.20252e-08 5.69586e-09 1.11946e-07)
(3.47396e-08 1.00182e-09 1.20148e-07)
(4.03221e-08 -6.8823e-09 1.30947e-07)
(4.89635e-08 -4.18748e-08 1.45138e-07)
(1.17141e-09 3.03302e-08 7.28312e-08)
(4.70051e-09 2.21149e-08 8.42892e-08)
(5.90127e-09 1.52071e-08 9.12834e-08)
(6.36766e-09 9.36131e-09 9.70367e-08)
(7.22597e-09 3.77163e-09 1.03384e-07)
(8.89668e-09 -1.74195e-09 1.1159e-07)
(1.16687e-08 -9.29182e-09 1.22897e-07)
(1.48111e-08 -4.02538e-08 1.39169e-07)
(-5.14656e-10 3.02405e-08 7.23218e-08)
(-2.27271e-09 2.17526e-08 8.39755e-08)
(-1.43691e-09 1.45769e-08 9.11113e-08)
(3.67669e-10 8.49336e-09 9.69707e-08)
(2.02908e-09 2.68754e-09 1.034e-07)
(3.13868e-09 -3.03514e-09 1.11674e-07)
(3.40459e-09 -1.07903e-08 1.23042e-07)
(3.47157e-09 -4.18166e-08 1.39407e-07)
(-1.79098e-08 4.35906e-08 7.87447e-08)
(-2.69318e-08 2.80158e-08 9.08977e-08)
(-2.62896e-08 1.59312e-08 9.90023e-08)
(-2.40019e-08 8.19846e-09 1.05516e-07)
(-2.2414e-08 2.36664e-09 1.12317e-07)
(-2.23571e-08 -2.91179e-09 1.20721e-07)
(-2.49552e-08 -1.1382e-08 1.31699e-07)
(-3.04726e-08 -4.66691e-08 1.46148e-07)
(-7.29148e-08 4.07168e-08 1.89998e-08)
(-7.83041e-08 2.4406e-08 3.42556e-08)
(-7.88004e-08 1.22754e-08 4.13272e-08)
(-7.82126e-08 4.90755e-09 4.62576e-08)
(-7.87926e-08 -5.11744e-10 5.09704e-08)
(-8.18085e-08 -5.34284e-09 5.64215e-08)
(-8.84406e-08 -1.31951e-08 6.35016e-08)
(-9.98716e-08 -4.78507e-08 7.19593e-08)
(-5.97026e-08 2.24512e-08 6.32702e-10)
(-6.40915e-08 1.24808e-08 9.14087e-09)
(-6.3995e-08 5.04062e-09 1.61068e-08)
(-6.31644e-08 -2.96394e-10 2.10525e-08)
(-6.36612e-08 -4.87878e-09 2.52912e-08)
(-6.68233e-08 -9.09351e-09 2.97131e-08)
(-7.41362e-08 -1.51644e-08 3.4358e-08)
(-8.77089e-08 -4.42562e-08 3.72875e-08)
(-5.11567e-08 1.63263e-08 1.91129e-10)
(-5.53277e-08 6.42344e-09 5.70957e-09)
(-5.5269e-08 -1.01143e-10 1.18444e-08)
(-5.4505e-08 -4.42241e-09 1.68951e-08)
(-5.50476e-08 -7.99895e-09 2.11057e-08)
(-5.83466e-08 -1.10053e-08 2.49158e-08)
(-6.60223e-08 -1.54057e-08 2.8086e-08)
(-8.02849e-08 -4.20161e-08 2.93712e-08)
(-4.64302e-08 1.43198e-08 8.53982e-10)
(-5.03221e-08 4.04712e-09 4.95693e-09)
(-5.04522e-08 -2.81966e-09 9.819e-09)
(-4.98945e-08 -7.01898e-09 1.42775e-08)
(-5.05718e-08 -1.00376e-08 1.80568e-08)
(-5.39889e-08 -1.2225e-08 2.11848e-08)
(-6.18181e-08 -1.5817e-08 2.34806e-08)
(-7.62624e-08 -4.13713e-08 2.4479e-08)
(-4.38985e-08 1.35013e-08 1.02121e-09)
(-4.76699e-08 3.14932e-09 4.14251e-09)
(-4.79745e-08 -4.04752e-09 7.74926e-09)
(-4.76205e-08 -8.41692e-09 1.12322e-08)
(-4.8443e-08 -1.12993e-08 1.42582e-08)
(-5.19508e-08 -1.31818e-08 1.66938e-08)
(-5.98273e-08 -1.65217e-08 1.84356e-08)
(-7.42677e-08 -4.1531e-08 1.93622e-08)
(-4.24882e-08 1.31e-08 8.57893e-10)
(-4.62358e-08 2.77794e-09 3.07825e-09)
(-4.66666e-08 -4.57105e-09 5.55492e-09)
(-4.64607e-08 -9.1113e-09 7.9878e-09)
(-4.7394e-08 -1.20566e-08 1.01426e-08)
(-5.09608e-08 -1.39262e-08 1.18852e-08)
(-5.88422e-08 -1.72513e-08 1.31561e-08)
(-7.32415e-08 -4.19621e-08 1.39331e-08)
(-4.17074e-08 1.28919e-08 5.49691e-10)
(-4.54557e-08 2.60956e-09 1.87846e-09)
(-4.59631e-08 -4.79406e-09 3.32565e-09)
(-4.58468e-08 -9.44312e-09 4.7514e-09)
(-4.68487e-08 -1.24873e-08 6.02916e-09)
(-5.04491e-08 -1.44323e-08 7.07607e-09)
(-5.83256e-08 -1.78084e-08 7.85958e-09)
(-7.26913e-08 -4.23676e-08 8.37582e-09)
(-4.13535e-08 1.28002e-08 1.87668e-10)
(-4.5103e-08 2.54074e-09 6.29695e-10)
(-4.56453e-08 -4.8794e-09 1.10576e-09)
(-4.55703e-08 -9.579e-09 1.57458e-09)
(-4.66039e-08 -1.26843e-08 1.99702e-09)
(-5.02194e-08 -1.46863e-08 2.34619e-09)
(-5.80921e-08 -1.81021e-08 2.61158e-09)
(-7.24409e-08 -4.25996e-08 2.7921e-09)
(4.93264e-08 -1.1855e-07 7.08899e-08)
(4.1465e-08 -1.09175e-07 3.58764e-08)
(3.66387e-08 -1.03174e-07 2.79245e-08)
(3.44523e-08 -9.97525e-08 2.32193e-08)
(3.35165e-08 -9.80945e-08 1.84281e-08)
(3.30616e-08 -9.73842e-08 1.33326e-08)
(3.28034e-08 -9.71215e-08 8.05236e-09)
(3.26762e-08 -9.70447e-08 2.69117e-09)
(1.51629e-08 -1.13284e-07 6.85795e-08)
(1.27931e-08 -1.01862e-07 3.76333e-08)
(1.07931e-08 -9.53995e-08 3.01075e-08)
(9.78264e-09 -9.20024e-08 2.4659e-08)
(9.3227e-09 -9.04636e-08 1.92137e-08)
(9.07474e-09 -8.98277e-08 1.37347e-08)
(8.92e-09 -8.95931e-08 8.24448e-09)
(8.84042e-09 -8.9523e-08 2.74879e-09)
(3.82952e-09 -1.14223e-07 6.94487e-08)
(4.51641e-09 -1.02728e-07 3.84484e-08)
(5.05764e-09 -9.62245e-08 3.0746e-08)
(4.89562e-09 -9.27917e-08 2.51428e-08)
(4.45446e-09 -9.12213e-08 1.95679e-08)
(4.05002e-09 -9.05607e-08 1.39767e-08)
(3.78195e-09 -9.03093e-08 8.38547e-09)
(3.65404e-09 -9.02306e-08 2.7951e-09)
(-3.01075e-08 -1.21682e-07 7.35754e-08)
(-2.38537e-08 -1.12099e-07 3.82855e-08)
(-2.04467e-08 -1.0598e-07 2.9816e-08)
(-1.94369e-08 -1.0245e-07 2.4667e-08)
(-1.94173e-08 -1.00698e-07 1.94948e-08)
(-1.96273e-08 -9.99145e-08 1.40634e-08)
(-1.98e-08 -9.96022e-08 8.47849e-09)
(-1.98841e-08 -9.95004e-08 2.83116e-09)
)
;
        gradient        uniform (0 0 0);
    }
    symmetry
    {
        type            solidSymmetry;
        patchType       symmetry;
        secondOrder     false;
        value           nonuniform List<vector> 
32
(
(8.40013e-09 8.02705e-09 0)
(1.34529e-08 2.49728e-09 0)
(1.40172e-08 -2.86225e-09 0)
(1.39491e-08 -6.81593e-09 0)
(1.47536e-08 -9.7952e-09 0)
(1.73809e-08 -1.22376e-08 0)
(2.30518e-08 -1.64614e-08 0)
(3.17884e-08 -3.96646e-08 0)
(-3.9535e-10 3.7401e-10 0)
(8.37192e-10 -1.78963e-09 0)
(1.27854e-09 -4.69576e-09 0)
(1.47235e-09 -8.07543e-09 0)
(2.07271e-09 -1.15802e-08 0)
(3.49281e-09 -1.49199e-08 0)
(6.04182e-09 -1.89429e-08 0)
(8.9243e-09 -3.7952e-08 0)
(3.71495e-10 2.62462e-10 0)
(-4.43469e-10 -2.1279e-09 0)
(-7.85396e-11 -5.24567e-09 0)
(9.29033e-10 -8.82664e-09 0)
(1.93719e-09 -1.25308e-08 0)
(2.52882e-09 -1.6072e-08 0)
(2.37234e-09 -2.02876e-08 0)
(2.16997e-09 -3.9325e-08 0)
(-8.1588e-09 7.58327e-09 0)
(-1.27088e-08 1.46549e-09 0)
(-1.24599e-08 -4.49571e-09 0)
(-1.11742e-08 -9.04995e-09 0)
(-1.0344e-08 -1.26259e-08 0)
(-1.09409e-08 -1.56618e-08 0)
(-1.42464e-08 -2.04626e-08 0)
(-2.0383e-08 -4.38839e-08 0)
)
;
    }
    bottom
    {
        type            fixedDisplacement;
        value           uniform (0 0 0);
    }
}


// ************************************************************************* //
