/*--------------------------------*- C++ -*----------------------------------*\
| =========                 |                                                 |
| \\      /  F ield         | OpenFOAM: The Open Source CFD Toolbox           |
|  \\    /   O peration     | Version:  v1912                                 |
|   \\  /    A nd           | Website:  www.openfoam.com                      |
|    \\/     M anipulation  |                                                 |
\*---------------------------------------------------------------------------*/
FoamFile
{
    version     2.0;
    format      ascii;
    class       volVectorField;
    location    "0.44/solid";
    object      DD;
}
// * * * * * * * * * * * * * * * * * * * * * * * * * * * * * * * * * * * * * //

dimensions      [0 1 0 0 0 0 0];


internalField   nonuniform List<vector> 
256
(
(3.63725e-10 3.507e-10 4.0712e-10)
(7.4805e-11 1.93944e-10 3.54899e-10)
(-8.4878e-11 1.89564e-10 3.50156e-10)
(-3.57688e-10 3.33255e-10 3.91809e-10)
(6.21222e-10 2.38176e-10 8.77282e-10)
(1.5087e-10 1.24111e-10 8.05691e-10)
(-1.70095e-10 1.21834e-10 7.96707e-10)
(-6.18901e-10 2.32252e-10 8.48812e-10)
(6.54805e-10 -1.94646e-11 1.19242e-09)
(1.60231e-10 -6.52636e-11 1.11616e-09)
(-1.89972e-10 -6.38871e-11 1.10498e-09)
(-6.62947e-10 -1.31854e-11 1.15721e-09)
(6.31631e-10 -2.87993e-10 1.46457e-09)
(1.43459e-10 -3.14399e-10 1.37789e-09)
(-1.88176e-10 -3.09416e-10 1.36518e-09)
(-6.5461e-10 -2.71238e-10 1.42469e-09)
(6.28163e-10 -5.73695e-10 1.74258e-09)
(1.32437e-10 -6.19918e-10 1.64025e-09)
(-1.96731e-10 -6.11638e-10 1.62627e-09)
(-6.70398e-10 -5.47521e-10 1.69882e-09)
(7.0231e-10 -9.15116e-10 2.05873e-09)
(1.52286e-10 -9.91394e-10 1.93965e-09)
(-2.40841e-10 -9.8002e-10 1.92445e-09)
(-7.68438e-10 -8.80052e-10 2.01138e-09)
(9.17323e-10 -1.42871e-09 2.43482e-09)
(2.20266e-10 -1.47816e-09 2.31046e-09)
(-3.38624e-10 -1.46356e-09 2.29388e-09)
(-1.01183e-09 -1.38422e-09 2.38363e-09)
(1.22645e-09 -2.28751e-09 2.79182e-09)
(2.9548e-10 -2.18274e-09 2.6899e-09)
(-4.51133e-10 -2.16247e-09 2.67173e-09)
(-1.35353e-09 -2.22561e-09 2.73655e-09)
(1.94593e-10 1.06799e-10 1.40663e-10)
(3.68148e-11 -6.02389e-12 1.69078e-10)
(-4.07662e-11 -7.59746e-12 1.67132e-10)
(-1.85391e-10 9.62137e-11 1.34754e-10)
(3.43324e-10 -3.97285e-11 4.60599e-10)
(7.99883e-11 -1.24547e-10 5.15589e-10)
(-8.57352e-11 -1.24788e-10 5.1036e-10)
(-3.32157e-10 -4.13757e-11 4.45226e-10)
(3.56238e-10 -2.61618e-10 7.52673e-10)
(8.28496e-11 -2.96346e-10 8.15565e-10)
(-9.42976e-11 -2.93925e-10 8.08255e-10)
(-3.51198e-10 -2.53562e-10 7.31155e-10)
(3.29095e-10 -5.07229e-10 1.01627e-09)
(6.68758e-11 -5.29164e-10 1.07807e-09)
(-8.97218e-11 -5.23678e-10 1.06935e-09)
(-3.35518e-10 -4.89936e-10 9.90398e-10)
(3.19545e-10 -7.76985e-10 1.27622e-09)
(5.62215e-11 -8.20501e-10 1.33357e-09)
(-9.57664e-11 -8.11991e-10 1.32366e-09)
(-3.42388e-10 -7.50875e-10 1.24666e-09)
(3.84589e-10 -1.08194e-09 1.54737e-09)
(7.5097e-11 -1.1575e-09 1.60013e-09)
(-1.36431e-10 -1.14609e-09 1.58908e-09)
(-4.28756e-10 -1.04738e-09 1.51427e-09)
(5.94646e-10 -1.48272e-09 1.80452e-09)
(1.42237e-10 -1.53049e-09 1.85582e-09)
(-2.31106e-10 -1.51623e-09 1.84368e-09)
(-6.64673e-10 -1.43957e-09 1.76808e-09)
(9.14393e-10 -2.11207e-09 1.93292e-09)
(2.17314e-10 -1.98488e-09 1.98582e-09)
(-3.41326e-10 -1.96592e-09 1.97311e-09)
(-1.01436e-09 -2.05357e-09 1.89461e-09)
(8.21289e-11 2.10066e-11 7.11968e-11)
(4.06139e-12 -5.6463e-11 1.11762e-10)
(-5.60117e-12 -5.76446e-11 1.10391e-10)
(-7.12785e-11 1.07333e-11 6.72795e-11)
(1.46977e-10 -1.76303e-10 3.00777e-10)
(1.55457e-11 -2.34773e-10 3.75114e-10)
(-1.44433e-11 -2.34691e-10 3.71382e-10)
(-1.30242e-10 -1.78175e-10 2.90223e-10)
(1.43448e-10 -4.0554e-10 5.53694e-10)
(1.14414e-11 -4.30501e-10 6.37422e-10)
(-1.20941e-11 -4.28075e-10 6.31951e-10)
(-1.29114e-10 -3.98464e-10 5.38055e-10)
(1.16745e-10 -6.36295e-10 7.98512e-10)
(-3.59201e-12 -6.56489e-10 8.82812e-10)
(-5.08885e-12 -6.51283e-10 8.76039e-10)
(-1.10631e-10 -6.20574e-10 7.78887e-10)
(1.07663e-10 -8.71288e-10 1.03214e-09)
(-1.33279e-11 -9.15312e-10 1.11471e-09)
(-9.20677e-12 -9.07279e-10 1.10683e-09)
(-1.15153e-10 -8.47145e-10 1.00907e-09)
(1.7161e-10 -1.11137e-09 1.24637e-09)
(5.15759e-12 -1.1877e-09 1.32728e-09)
(-4.70526e-11 -1.17694e-09 1.3184e-09)
(-1.97899e-10 -1.07915e-09 1.22014e-09)
(3.79717e-10 -1.40778e-09 1.40071e-09)
(7.1169e-11 -1.45684e-09 1.48087e-09)
(-1.38492e-10 -1.44346e-09 1.47118e-09)
(-4.29521e-10 -1.36743e-09 1.37185e-09)
(6.94518e-10 -1.91782e-09 1.41914e-09)
(1.45208e-10 -1.79571e-09 1.49994e-09)
(-2.45787e-10 -1.77782e-09 1.49004e-09)
(-7.72055e-10 -1.86227e-09 1.38926e-09)
(3.81393e-11 -7.78534e-12 6.05855e-11)
(-8.63146e-12 -6.52706e-11 8.64409e-11)
(8.13562e-12 -6.65896e-11 8.54138e-11)
(-2.62177e-11 -1.88399e-11 5.77236e-11)
(6.68264e-11 -2.27592e-10 2.39436e-10)
(-1.14813e-11 -2.70991e-10 2.86509e-10)
(1.62311e-11 -2.71279e-10 2.83797e-10)
(-4.64865e-11 -2.311e-10 2.31885e-10)
(5.70163e-11 -4.66503e-10 4.45102e-10)
(-1.83923e-11 -4.86268e-10 4.97554e-10)
(2.42759e-11 -4.84359e-10 4.93519e-10)
(-3.62877e-11 -4.61472e-10 4.33701e-10)
(3.44589e-11 -6.86989e-10 6.51639e-10)
(-3.13297e-11 -7.07319e-10 7.03595e-10)
(3.19966e-11 -7.02751e-10 6.9848e-10)
(-1.92128e-11 -6.73577e-10 6.3695e-10)
(3.09032e-11 -8.9004e-10 8.43269e-10)
(-3.85281e-11 -9.35606e-10 8.93226e-10)
(2.78838e-11 -9.28311e-10 8.87169e-10)
(-2.67384e-11 -8.68395e-10 8.25644e-10)
(9.86012e-11 -1.07997e-09 1.00079e-09)
(-1.87761e-11 -1.1577e-09 1.04905e-09)
(-9.00691e-12 -1.14776e-09 1.04217e-09)
(-1.1096e-10 -1.05041e-09 9.80543e-10)
(3.04847e-10 -1.3204e-09 1.09128e-09)
(4.6218e-11 -1.37344e-09 1.13909e-09)
(-9.75261e-11 -1.36092e-09 1.1316e-09)
(-3.38673e-10 -1.28272e-09 1.06899e-09)
(6.09986e-10 -1.78604e-09 1.07942e-09)
(1.1854e-10 -1.67966e-09 1.12973e-09)
(-2.01482e-10 -1.66255e-09 1.12213e-09)
(-6.69719e-10 -1.73276e-09 1.05643e-09)
(2.6024e-11 -1.7609e-11 5.33874e-11)
(-1.04863e-11 -6.61871e-11 6.59882e-11)
(1.05402e-11 -6.76633e-11 6.52499e-11)
(-1.34114e-11 -2.93265e-11 5.13569e-11)
(4.60879e-11 -2.40506e-10 1.92339e-10)
(-1.604e-11 -2.77744e-10 2.14443e-10)
(2.29403e-11 -2.78483e-10 2.1252e-10)
(-2.34495e-11 -2.456e-10 1.87042e-10)
(3.71934e-11 -4.79397e-10 3.49587e-10)
(-2.24086e-11 -4.9783e-10 3.7326e-10)
(3.24437e-11 -4.96522e-10 3.70385e-10)
(-1.22297e-11 -4.76394e-10 3.41537e-10)
(1.98205e-11 -6.90386e-10 5.08264e-10)
(-3.28577e-11 -7.12011e-10 5.30535e-10)
(3.98152e-11 -7.0812e-10 5.26842e-10)
(1.74882e-12 -6.79202e-10 4.97735e-10)
(2.22187e-11 -8.72229e-10 6.51862e-10)
(-3.73483e-11 -9.19547e-10 6.72053e-10)
(3.50571e-11 -9.12973e-10 6.67625e-10)
(-9.68633e-12 -8.52899e-10 6.39048e-10)
(9.36747e-11 -1.03514e-09 7.61612e-10)
(-1.60833e-11 -1.1142e-09 7.80285e-10)
(-1.48381e-12 -1.10501e-09 7.75217e-10)
(-9.57778e-11 -1.00789e-09 7.4676e-10)
(2.97656e-10 -1.25312e-09 8.16162e-10)
(4.80642e-11 -1.30975e-09 8.34776e-10)
(-8.75491e-11 -1.29793e-09 8.29255e-10)
(-3.19539e-10 -1.21762e-09 7.99758e-10)
(5.94554e-10 -1.70137e-09 8.01323e-10)
(1.18971e-10 -1.60832e-09 8.22627e-10)
(-1.88744e-10 -1.59181e-09 8.17032e-10)
(-6.40865e-10 -1.64989e-09 7.84411e-10)
(2.39627e-11 -2.05082e-11 4.17532e-11)
(-9.38196e-12 -6.55555e-11 4.72421e-11)
(9.74583e-12 -6.71441e-11 4.67478e-11)
(-1.09196e-11 -3.26767e-11 4.04021e-11)
(4.4806e-11 -2.38894e-10 1.41958e-10)
(-1.37248e-11 -2.74443e-10 1.50764e-10)
(2.19269e-11 -2.75532e-10 1.49483e-10)
(-2.07294e-11 -2.45154e-10 1.38455e-10)
(3.92504e-11 -4.72037e-10 2.52199e-10)
(-1.84264e-11 -4.91005e-10 2.60732e-10)
(3.10843e-11 -4.90188e-10 2.58813e-10)
(-1.15699e-11 -4.7061e-10 2.46863e-10)
(2.63602e-11 -6.74517e-10 3.62279e-10)
(-2.67402e-11 -6.97707e-10 3.69303e-10)
(3.78207e-11 -6.94371e-10 3.6682e-10)
(-6.08886e-13 -6.65098e-10 3.55241e-10)
(3.316e-11 -8.44512e-10 4.59902e-10)
(-2.9189e-11 -8.9329e-10 4.65283e-10)
(3.25408e-11 -8.87294e-10 4.62282e-10)
(-1.49404e-11 -8.27003e-10 4.51257e-10)
(1.07014e-10 -9.95912e-10 5.315e-10)
(-6.83865e-12 -1.07588e-09 5.35852e-10)
(-3.66685e-12 -1.06725e-09 5.32398e-10)
(-1.02002e-10 -9.7044e-10 5.2141e-10)
(3.08938e-10 -1.20667e-09 5.64545e-10)
(5.66895e-11 -1.2654e-09 5.69082e-10)
(-8.78686e-11 -1.25411e-09 5.65311e-10)
(-3.22418e-10 -1.17281e-09 5.53359e-10)
(5.9997e-10 -1.64656e-09 5.53274e-10)
(1.26638e-10 -1.5617e-09 5.5982e-10)
(-1.87066e-10 -1.54563e-09 5.56001e-10)
(-6.36754e-10 -1.59642e-09 5.41738e-10)
(2.4016e-11 -2.08848e-11 2.6441e-11)
(-8.28363e-12 -6.45638e-11 2.8677e-11)
(8.81433e-12 -6.62231e-11 2.8394e-11)
(-1.07225e-11 -3.33327e-11 2.567e-11)
(4.68836e-11 -2.33788e-10 8.7047e-11)
(-1.11886e-11 -2.69203e-10 9.02016e-11)
(2.01351e-11 -2.70517e-10 8.94693e-11)
(-2.19638e-11 -2.40786e-10 8.50534e-11)
(4.41805e-11 -4.60753e-10 1.52198e-10)
(-1.44855e-11 -4.80621e-10 1.5474e-10)
(2.86874e-11 -4.8013e-10 1.53641e-10)
(-1.48814e-11 -4.60358e-10 1.49155e-10)
(3.4323e-11 -6.56986e-10 2.16437e-10)
(-2.1358e-11 -6.81409e-10 2.17924e-10)
(3.49238e-11 -6.7845e-10 2.16496e-10)
(-6.03276e-12 -6.48749e-10 2.12406e-10)
(4.37842e-11 -8.2105e-10 2.72615e-10)
(-2.25496e-11 -8.70793e-10 2.73108e-10)
(2.93729e-11 -8.65189e-10 2.71374e-10)
(-2.20496e-11 -8.04767e-10 2.67636e-10)
(1.18894e-10 -9.68352e-10 3.12982e-10)
(4.27139e-13 -1.04878e-09 3.12928e-10)
(-6.51622e-12 -1.04054e-09 3.10924e-10)
(-1.09419e-10 -9.44073e-10 3.07143e-10)
(3.19354e-10 -1.17731e-09 3.31026e-10)
(6.35657e-11 -1.23699e-09 3.31183e-10)
(-8.94864e-11 -1.22605e-09 3.28991e-10)
(-3.27507e-10 -1.14454e-09 3.24533e-10)
(6.06658e-10 -1.61291e-09 3.24301e-10)
(1.32918e-10 -1.53225e-09 3.25634e-10)
(-1.87382e-10 -1.51648e-09 3.23415e-10)
(-6.37359e-10 -1.56367e-09 3.17604e-10)
(2.41874e-11 -2.06833e-11 9.03596e-12)
(-7.7516e-12 -6.387e-11 9.64545e-12)
(8.35471e-12 -6.55637e-11 9.55341e-12)
(-1.07783e-11 -3.32654e-11 8.78562e-12)
(4.816e-11 -2.3024e-10 2.93194e-11)
(-9.91984e-12 -2.65786e-10 3.00978e-11)
(1.92048e-11 -2.6721e-10 2.98597e-11)
(-2.28495e-11 -2.37594e-10 2.86725e-11)
(4.69114e-11 -4.53556e-10 5.08547e-11)
(-1.25022e-11 -4.73984e-10 5.13716e-11)
(2.74192e-11 -4.73653e-10 5.10139e-11)
(-1.68555e-11 -4.53666e-10 4.98664e-11)
(3.85259e-11 -6.4655e-10 7.19266e-11)
(-1.8675e-11 -6.71619e-10 7.20742e-11)
(3.34077e-11 -6.68847e-10 7.16086e-11)
(-9.03647e-12 -6.38898e-10 7.06147e-11)
(4.92076e-11 -8.08177e-10 9.02247e-11)
(-1.92826e-11 -8.58385e-10 9.00453e-11)
(2.77555e-11 -8.52978e-10 8.94787e-11)
(-2.57962e-11 -7.92505e-10 8.86e-11)
(1.24838e-10 -9.54286e-10 1.03265e-10)
(3.97338e-12 -1.03489e-09 1.02919e-10)
(-7.94291e-12 -1.02684e-09 1.02263e-10)
(-1.13216e-10 -9.30603e-10 1.01355e-10)
(3.24554e-10 -1.16297e-09 1.09028e-10)
(6.69267e-11 -1.22297e-09 1.08769e-10)
(-9.03044e-11 -1.2122e-09 1.0805e-10)
(-3.30127e-10 -1.13074e-09 1.06901e-10)
(6.1004e-10 -1.59674e-09 1.06807e-10)
(1.35987e-10 -1.51778e-09 1.06931e-10)
(-1.87552e-10 -1.50216e-09 1.06203e-10)
(-6.3778e-10 -1.54795e-09 1.04612e-10)
)
;

boundaryField
{
    interface
    {
        type            calculated;
        value           nonuniform List<vector> 
192
(
(3.75919e-10 5.96936e-10 3.59457e-10)
(6.17348e-10 3.10945e-10 7.96593e-10)
(6.52006e-10 -1.68637e-11 1.10562e-09)
(6.33056e-10 -2.94655e-10 1.37818e-09)
(6.29269e-10 -5.56027e-10 1.65677e-09)
(6.92367e-10 -8.42827e-10 1.97268e-09)
(8.86502e-10 -1.29768e-09 2.34799e-09)
(1.26556e-09 -2.20193e-09 2.70479e-09)
(1.32418e-10 2.41278e-10 7.02665e-11)
(2.69798e-10 6.81634e-13 3.4204e-10)
(2.7902e-10 -2.65176e-10 6.24836e-10)
(2.4968e-10 -5.16403e-10 8.87549e-10)
(2.34351e-10 -7.63113e-10 1.1461e-09)
(2.84258e-10 -1.01317e-09 1.41469e-09)
(4.72608e-10 -1.35027e-09 1.67011e-09)
(8.8428e-10 -2.02669e-09 1.79994e-09)
(1.15514e-11 7.82827e-11 3.20856e-11)
(7.88516e-11 -1.60975e-10 2.31655e-10)
(7.34023e-11 -4.13099e-10 4.78891e-10)
(4.47139e-11 -6.45243e-10 7.24855e-10)
(3.15765e-11 -8.57573e-10 9.59985e-10)
(8.51255e-11 -1.04335e-09 1.17487e-09)
(2.80127e-10 -1.27705e-09 1.32827e-09)
(6.86353e-10 -1.83324e-09 1.34304e-09)
(-3.51168e-11 1.84558e-11 4.65608e-11)
(2.14337e-12 -2.22874e-10 2.14215e-10)
(-8.06118e-12 -4.74596e-10 4.18539e-10)
(-3.16733e-11 -6.93519e-10 6.2741e-10)
(-3.76132e-11 -8.74006e-10 8.21909e-10)
(2.29162e-11 -1.01149e-09 9.81307e-10)
(2.21209e-10 -1.19255e-09 1.07077e-09)
(6.14635e-10 -1.70206e-09 1.05442e-09)
(-4.92383e-11 4.187e-13 4.98444e-11)
(-1.91724e-11 -2.37715e-10 1.86835e-10)
(-2.75638e-11 -4.85966e-10 3.45147e-10)
(-4.50488e-11 -6.94132e-10 5.0624e-10)
(-4.37301e-11 -8.53767e-10 6.52427e-10)
(2.24857e-11 -9.66281e-10 7.63716e-10)
(2.21118e-10 -1.1279e-09 8.17185e-10)
(6.02881e-10 -1.61792e-09 7.98819e-10)
(-5.18926e-11 -3.31635e-12 4.12519e-11)
(-2.08456e-11 -2.35073e-10 1.42157e-10)
(-2.53711e-11 -4.7665e-10 2.53947e-10)
(-3.76355e-11 -6.76041e-10 3.65905e-10)
(-3.09897e-11 -8.24351e-10 4.65294e-10)
(3.8754e-11 -9.26969e-10 5.37805e-10)
(2.36619e-10 -1.08343e-09 5.6997e-10)
(6.09776e-10 -1.5637e-09 5.563e-10)
(-5.1712e-11 -3.16021e-12 2.64977e-11)
(-1.86509e-11 -2.28748e-10 8.78861e-11)
(-2.00193e-11 -4.63895e-10 1.54113e-10)
(-2.87725e-11 -6.57087e-10 2.19479e-10)
(-1.88943e-11 -7.99909e-10 2.76627e-10)
(5.27203e-11 -8.99461e-10 3.17439e-10)
(2.49741e-10 -1.05537e-09 3.3493e-10)
(6.17381e-10 -1.5306e-09 3.26819e-10)
(-5.13262e-11 -2.59668e-12 9.07894e-12)
(-1.7181e-11 -2.2456e-10 2.96387e-11)
(-1.69531e-11 -4.55966e-10 5.15376e-11)
(-2.4004e-11 -6.45977e-10 7.29775e-11)
(-1.2638e-11 -7.86601e-10 9.15807e-11)
(5.97656e-11 -8.85451e-10 1.04752e-10)
(2.56294e-10 -1.04167e-09 1.10328e-10)
(6.21247e-10 -1.51475e-09 1.07652e-10)
(3.74494e-10 6.71801e-10 3.65231e-10)
(6.43659e-10 4.34503e-10 8.1275e-10)
(6.79133e-10 1.2736e-10 1.12906e-09)
(6.53149e-10 -1.50452e-10 1.40741e-09)
(6.45479e-10 -4.25154e-10 1.68627e-09)
(7.15561e-10 -7.42056e-10 1.98947e-09)
(9.29645e-10 -1.24544e-09 2.33824e-09)
(1.24448e-09 -2.19774e-09 2.75408e-09)
(6.05566e-11 4.84092e-10 2.59457e-10)
(1.30717e-10 3.14428e-10 6.78223e-10)
(1.3836e-10 7.77872e-11 9.78721e-10)
(1.18604e-10 -1.83376e-10 1.23683e-09)
(1.03351e-10 -4.79476e-10 1.49095e-09)
(1.18708e-10 -8.23839e-10 1.76808e-09)
(1.85026e-10 -1.2906e-09 2.10578e-09)
(2.65455e-10 -2.08924e-09 2.57385e-09)
(-7.56592e-11 4.7628e-10 2.47867e-10)
(-1.59327e-10 3.10541e-10 6.63794e-10)
(-1.7972e-10 7.82338e-11 9.61838e-10)
(-1.76485e-10 -1.79092e-10 1.21804e-09)
(-1.82096e-10 -4.7182e-10 1.47056e-09)
(-2.22918e-10 -8.13116e-10 1.74616e-09)
(-3.20338e-10 -1.27674e-09 2.08211e-09)
(-4.39476e-10 -2.06927e-09 2.54764e-09)
(-3.72539e-10 6.43411e-10 3.2819e-10)
(-6.49348e-10 4.23604e-10 7.65845e-10)
(-6.97517e-10 1.30786e-10 1.07438e-09)
(-6.87977e-10 -1.35833e-10 1.34698e-09)
(-7.00899e-10 -4.00849e-10 1.62114e-09)
(-7.96094e-10 -7.08849e-10 1.92005e-09)
(-1.03979e-09 -1.20292e-09 2.2645e-09)
(-1.38846e-09 -2.13665e-09 2.67512e-09)
(-3.14661e-10 5.77402e-10 3.41303e-10)
(-5.59457e-10 3.08569e-10 7.61893e-10)
(-6.03208e-10 -4.25519e-12 1.06198e-09)
(-5.97461e-10 -2.69373e-10 1.32822e-09)
(-6.11272e-10 -5.19061e-10 1.60156e-09)
(-6.96306e-10 -7.9469e-10 1.91262e-09)
(-9.15259e-10 -1.23794e-09 2.28286e-09)
(-1.31591e-09 -2.12223e-09 2.63428e-09)
(-7.56148e-11 2.25601e-10 6.31487e-11)
(-2.12216e-10 7.74356e-14 3.23055e-10)
(-2.26717e-10 -2.52719e-10 5.97691e-10)
(-2.07525e-10 -4.92136e-10 8.54397e-10)
(-2.07142e-10 -7.27562e-10 1.10784e-09)
(-2.76594e-10 -9.66802e-10 1.37163e-09)
(-4.87587e-10 -1.29316e-09 1.6225e-09)
(-9.17901e-10 -1.95161e-09 1.74923e-09)
(4.4326e-11 6.11137e-11 2.74826e-11)
(-1.84014e-11 -1.63715e-10 2.18799e-10)
(-1.4635e-11 -4.03365e-10 4.59322e-10)
(7.07938e-12 -6.24062e-10 6.99805e-10)
(8.14934e-12 -8.25325e-10 9.30156e-10)
(-6.22305e-11 -1.00055e-09 1.14068e-09)
(-2.77346e-10 -1.22389e-09 1.29034e-09)
(-7.0032e-10 -1.76216e-09 1.3031e-09)
(9.09251e-11 -6.63668e-13 4.32543e-11)
(6.06397e-11 -2.28581e-10 2.05182e-10)
(7.18566e-11 -4.68289e-10 4.04476e-10)
(9.12033e-11 -6.75961e-10 6.08851e-10)
(8.76808e-11 -8.45455e-10 7.99274e-10)
(1.27947e-11 -9.72416e-10 9.55009e-10)
(-2.03326e-10 -1.14303e-09 1.04149e-09)
(-6.11771e-10 -1.6341e-09 1.02363e-09)
(1.05166e-10 -2.01111e-11 4.75304e-11)
(8.35072e-11 -2.45894e-10 1.806e-10)
(9.47822e-11 -4.82692e-10 3.35355e-10)
(1.10086e-10 -6.79835e-10 4.93081e-10)
(1.0142e-10 -8.28513e-10 6.36096e-10)
(2.28795e-11 -9.30416e-10 7.44519e-10)
(-1.91723e-10 -1.08135e-09 7.95692e-10)
(-5.87054e-10 -1.55244e-09 7.76168e-10)
(1.07877e-10 -2.47643e-11 3.97286e-11)
(8.61888e-11 -2.44991e-10 1.38082e-10)
(9.48558e-11 -4.75639e-10 2.47524e-10)
(1.06416e-10 -6.64253e-10 3.57185e-10)
(9.39813e-11 -8.01651e-10 4.54346e-10)
(1.34322e-11 -8.93564e-10 5.24819e-10)
(-1.99013e-10 -1.03911e-09 5.5535e-10)
(-5.84635e-10 -1.50009e-09 5.40861e-10)
(1.07738e-10 -2.51609e-11 2.56339e-11)
(8.4614e-11 -2.39746e-10 8.55822e-11)
(9.08952e-11 -4.64339e-10 1.50475e-10)
(9.98786e-11 -6.46954e-10 2.14512e-10)
(8.52222e-11 -7.78915e-10 2.7035e-10)
(3.80244e-12 -8.67702e-10 3.09946e-10)
(-2.06879e-10 -1.01255e-09 3.2646e-10)
(-5.86243e-10 -1.46823e-09 3.1786e-10)
(1.07379e-10 -2.48583e-11 8.79932e-12)
(8.34418e-11 -2.36074e-10 2.88936e-11)
(8.84922e-11 -4.57117e-10 5.03596e-11)
(9.62232e-11 -6.3666e-10 7.13653e-11)
(8.05744e-11 -7.66456e-10 8.95364e-11)
(-1.14018e-12 -8.54514e-10 1.02304e-10)
(-2.10872e-10 -9.99596e-10 1.07556e-10)
(-5.87176e-10 -1.45301e-09 1.04717e-10)
(1.24305e-09 -2.25066e-09 2.79284e-09)
(9.25281e-10 -2.01687e-09 1.8405e-09)
(7.06276e-10 -1.85096e-09 1.33763e-09)
(6.25377e-10 -1.73438e-09 1.0253e-09)
(6.13012e-10 -1.65342e-09 7.66455e-10)
(6.20179e-10 -1.59939e-09 5.31159e-10)
(6.27646e-10 -1.56609e-09 3.11846e-10)
(6.31291e-10 -1.55014e-09 1.02764e-10)
(2.64217e-10 -2.06755e-09 2.68718e-09)
(1.8077e-10 -1.78159e-09 1.88906e-09)
(1.10204e-10 -1.62661e-09 1.42364e-09)
(8.76624e-11 -1.53475e-09 1.08289e-09)
(9.15729e-11 -1.47436e-09 7.93137e-10)
(1.01398e-10 -1.43305e-09 5.40802e-10)
(1.08802e-10 -1.4063e-09 3.14654e-10)
(1.12333e-10 -1.39302e-09 1.03313e-10)
(-4.40421e-10 -2.03906e-09 2.66919e-09)
(-3.2416e-10 -1.75529e-09 1.87695e-09)
(-2.29154e-10 -1.60158e-09 1.4142e-09)
(-1.88215e-10 -1.51061e-09 1.07562e-09)
(-1.78362e-10 -1.45087e-09 7.87803e-10)
(-1.78395e-10 -1.41001e-09 5.37168e-10)
(-1.79536e-10 -1.38355e-09 3.12547e-10)
(-1.80018e-10 -1.37041e-09 1.02623e-10)
(-1.38944e-09 -2.1646e-09 2.73802e-09)
(-1.04343e-09 -1.93504e-09 1.80377e-09)
(-8.01011e-10 -1.77211e-09 1.30906e-09)
(-7.01509e-10 -1.65787e-09 1.00333e-09)
(-6.7508e-10 -1.57867e-09 7.50325e-10)
(-6.72235e-10 -1.5259e-09 5.20184e-10)
(-6.73292e-10 -1.49342e-09 3.05486e-10)
(-6.73813e-10 -1.47788e-09 1.00682e-10)
)
;
    }
    symmetry
    {
        type            symmetry;
    }
    bottom
    {
        type            calculated;
        value           uniform (0 0 0);
    }
}


// ************************************************************************* //
