/*--------------------------------*- C++ -*----------------------------------*\
| =========                 |                                                 |
| \\      /  F ield         | OpenFOAM: The Open Source CFD Toolbox           |
|  \\    /   O peration     | Version:  v1912                                 |
|   \\  /    A nd           | Website:  www.openfoam.com                      |
|    \\/     M anipulation  |                                                 |
\*---------------------------------------------------------------------------*/
FoamFile
{
    version     2.0;
    format      ascii;
    class       volSymmTensorField;
    location    "0.44/solid";
    object      epsilon;
}
// * * * * * * * * * * * * * * * * * * * * * * * * * * * * * * * * * * * * * //

dimensions      [0 0 0 0 0 0 0];


internalField   nonuniform List<symmTensor> 
256
(
(-2.64715e-06 1.16036e-07 -4.52837e-08 1.09781e-06 1.22805e-07 -2.76729e-06)
(-4.04196e-07 -6.05834e-08 -1.79268e-08 6.96233e-07 1.23145e-07 -2.49734e-06)
(-3.97648e-07 7.60043e-08 1.78037e-08 6.83203e-07 1.25163e-07 -2.47193e-06)
(-2.54221e-06 -1.06079e-07 4.58823e-08 1.04821e-06 1.30226e-07 -2.69892e-06)
(-2.64921e-06 -1.06762e-08 -6.59774e-08 -3.11333e-07 -3.34619e-09 -2.74942e-06)
(-6.64295e-07 -2.7746e-08 -2.8504e-08 -1.0876e-07 4.00228e-09 -2.47363e-06)
(-6.55893e-07 4.11698e-08 2.91551e-08 -1.18912e-07 5.54227e-09 -2.44782e-06)
(-2.54018e-06 1.66319e-08 6.71852e-08 -3.38914e-07 2.08524e-09 -2.68328e-06)
(-2.69572e-06 -2.11541e-08 -7.00422e-08 -3.14471e-07 -1.56478e-08 -2.79372e-06)
(-6.77928e-07 -1.82861e-08 -3.08605e-08 -2.01501e-07 -1.39264e-08 -2.48651e-06)
(-6.6989e-07 2.87448e-08 3.19144e-08 -2.10623e-07 -1.28856e-08 -2.46011e-06)
(-2.58504e-06 2.54636e-08 7.14584e-08 -3.39556e-07 -1.18852e-08 -2.72624e-06)
(-2.75079e-06 -1.08699e-08 -7.20455e-08 -2.49161e-07 -7.01989e-09 -2.86069e-06)
(-6.43251e-07 -1.1527e-08 -3.18125e-08 -2.32439e-07 -7.3956e-09 -2.53553e-06)
(-6.35424e-07 1.92732e-08 3.29316e-08 -2.40783e-07 -6.63913e-09 -2.50878e-06)
(-2.63853e-06 1.41305e-08 7.35192e-08 -2.72592e-07 -4.21251e-09 -2.79221e-06)
(-2.83674e-06 -6.74374e-10 -7.36653e-08 -2.26333e-07 4.88409e-09 -2.95673e-06)
(-6.30691e-07 -5.16738e-09 -3.2632e-08 -2.5204e-07 4.31626e-09 -2.62379e-06)
(-6.22846e-07 1.06414e-08 3.3707e-08 -2.6008e-07 4.94008e-09 -2.5968e-06)
(-2.72306e-06 2.99984e-09 7.51667e-08 -2.48845e-07 7.18104e-09 -2.88752e-06)
(-2.97862e-06 1.47505e-08 -7.47139e-08 -2.96171e-07 2.35886e-08 -3.09864e-06)
(-6.66745e-07 3.62043e-09 -3.32651e-08 -3.08725e-07 2.35232e-08 -2.76629e-06)
(-6.5904e-07 -4.00868e-10 3.43231e-08 -3.16649e-07 2.4108e-08 -2.73905e-06)
(-2.86453e-06 -1.35885e-08 7.62731e-08 -3.1844e-07 2.56448e-08 -3.02875e-06)
(-3.19435e-06 4.76985e-08 -7.4059e-08 -8.68585e-07 5.71263e-08 -3.30794e-06)
(-7.79906e-07 1.85158e-08 -3.30567e-08 -7.78995e-07 5.94494e-08 -2.99426e-06)
(-7.73179e-07 -1.83961e-08 3.4199e-08 -7.83736e-07 6.00392e-08 -2.96704e-06)
(-3.08327e-06 -4.82941e-08 7.57066e-08 -8.84205e-07 5.90331e-08 -3.23794e-06)
(-3.54324e-06 7.02436e-08 -6.97952e-08 -3.66379e-06 8.13653e-08 -3.66312e-06)
(-9.57215e-07 3.17168e-08 -3.11521e-08 -3.42783e-06 8.6238e-08 -3.42646e-06)
(-9.52087e-07 -3.20305e-08 3.23406e-08 -3.40291e-06 8.67603e-08 -3.40147e-06)
(-3.44009e-06 -7.13353e-08 7.13773e-08 -3.59954e-06 8.28773e-08 -3.59908e-06)
(-2.22372e-06 7.55323e-08 -3.27765e-08 5.50816e-07 -6.74745e-08 -3.84466e-07)
(-2.92455e-07 -6.58243e-08 -7.64256e-09 2.13263e-07 -9.36623e-09 -3.28252e-07)
(-2.84746e-07 7.41611e-08 9.54413e-09 1.99834e-07 -4.2034e-09 -3.27843e-07)
(-2.11258e-06 -6.83271e-08 3.39569e-08 5.02329e-07 -5.14953e-08 -3.85288e-07)
(-2.23564e-06 -1.58388e-08 -4.73671e-08 -1.44225e-07 -1.58526e-08 -5.80964e-07)
(-4.89409e-07 -2.94475e-08 -1.60276e-08 2.07541e-08 1.26896e-08 -4.97867e-07)
(-4.79788e-07 3.60467e-08 1.9337e-08 9.62882e-09 1.60638e-08 -4.98544e-07)
(-2.12244e-06 1.87537e-08 4.92256e-08 -1.74084e-07 -4.73157e-09 -5.85913e-07)
(-2.26144e-06 -2.17446e-08 -4.84911e-08 -1.90994e-07 -1.1477e-08 -5.98641e-07)
(-4.93118e-07 -1.94017e-08 -1.69513e-08 -9.72476e-08 -2.27272e-09 -5.07688e-07)
(-4.83941e-07 2.40483e-08 2.06766e-08 -1.06281e-07 1.62319e-10 -5.09338e-07)
(-2.14664e-06 2.35079e-08 5.05154e-08 -2.16196e-07 -3.11896e-09 -6.06466e-07)
(-2.30333e-06 -1.16833e-08 -4.87018e-08 -1.9284e-07 -8.28837e-09 -5.95596e-07)
(-4.57601e-07 -1.27043e-08 -1.66322e-08 -1.81126e-07 -5.6618e-09 -5.00115e-07)
(-4.48543e-07 1.5828e-08 2.03391e-08 -1.89124e-07 -3.7386e-09 -5.02306e-07)
(-2.18629e-06 1.29833e-08 5.07484e-08 -2.158e-07 -1.61163e-09 -6.04955e-07)
(-2.38371e-06 -1.43445e-09 -4.93875e-08 -1.97474e-07 6.59803e-09 -6.05833e-07)
(-4.44409e-07 -6.3844e-09 -1.68711e-08 -2.24534e-07 7.42289e-09 -5.07414e-07)
(-4.35153e-07 8.21399e-09 2.04499e-08 -2.32248e-07 9.0533e-09 -5.09898e-07)
(-2.26409e-06 2.25192e-09 5.14397e-08 -2.19495e-07 1.21875e-08 -6.16034e-07)
(-2.5296e-06 1.46965e-08 -4.97383e-08 -2.48087e-07 2.95881e-08 -6.40116e-07)
(-4.80611e-07 2.62585e-09 -1.72198e-08 -2.60927e-07 2.98453e-08 -5.39825e-07)
(-4.71282e-07 -2.23961e-09 2.07091e-08 -2.68439e-07 3.12605e-08 -5.4257e-07)
(-2.40787e-06 -1.4703e-08 5.18264e-08 -2.6959e-07 3.435e-08 -6.51052e-07)
(-2.76896e-06 4.94544e-08 -4.88751e-08 -7.16905e-07 4.94015e-08 -7.21757e-07)
(-5.96529e-07 1.8138e-08 -1.71238e-08 -6.20464e-07 5.00264e-08 -6.22343e-07)
(-5.88043e-07 -1.9861e-08 2.04285e-08 -6.24398e-07 5.11238e-08 -6.25566e-07)
(-2.64848e-06 -5.089e-08 5.09377e-08 -7.30749e-07 5.30774e-08 -7.33928e-07)
(-3.19529e-06 7.43217e-08 -4.68374e-08 -3.30798e-06 5.77619e-08 -8.69636e-07)
(-7.80361e-07 3.33814e-08 -1.69874e-08 -2.99548e-06 5.99219e-08 -7.77504e-07)
(-7.73681e-07 -3.40088e-08 1.93367e-08 -2.96832e-06 6.04788e-08 -7.81563e-07)
(-3.08366e-06 -7.56902e-08 4.84251e-08 -3.23779e-06 5.95188e-08 -8.83858e-07)
(-1.94648e-06 4.98564e-08 -1.37028e-08 3.40167e-07 1.94583e-08 -2.11309e-08)
(-2.17173e-07 -7.47905e-08 -4.25036e-10 4.83884e-08 6.88979e-08 -2.47484e-08)
(-2.0953e-07 7.86627e-08 2.15946e-09 3.59234e-08 7.29171e-08 -2.61164e-08)
(-1.83818e-06 -4.46075e-08 1.43136e-08 2.96688e-07 3.18493e-08 -2.5251e-08)
(-1.98782e-06 -1.72232e-08 -1.82117e-08 -1.626e-07 3.35987e-08 -1.20376e-07)
(-3.6876e-07 -3.13391e-08 -3.04412e-09 -2.08865e-08 5.83183e-08 -1.27113e-07)
(-3.58967e-07 3.43956e-08 5.96392e-09 -3.18621e-08 6.16845e-08 -1.30138e-07)
(-1.87639e-06 1.87367e-08 1.93588e-08 -1.92059e-07 4.42735e-08 -1.29396e-07)
(-2.015e-06 -2.04671e-08 -1.68727e-08 -1.59964e-07 2.44894e-08 -1.63172e-07)
(-3.6751e-07 -1.94794e-08 -2.67813e-09 -8.18349e-08 3.29914e-08 -1.71358e-07)
(-3.58034e-07 2.12229e-08 5.73649e-09 -9.08901e-08 3.57932e-08 -1.75516e-07)
(-1.9016e-06 2.10725e-08 1.81248e-08 -1.85594e-07 3.35261e-08 -1.7549e-07)
(-2.05411e-06 -1.15199e-08 -1.58329e-08 -1.5144e-07 1.73152e-08 -1.72919e-07)
(-3.33685e-07 -1.31393e-08 -1.88767e-09 -1.44996e-07 1.99096e-08 -1.81625e-07)
(-3.24232e-07 1.39642e-08 4.76814e-09 -1.53e-07 2.2301e-08 -1.86514e-07)
(-1.93811e-06 1.19109e-08 1.70449e-08 -1.74814e-07 2.50544e-08 -1.87354e-07)
(-2.13259e-06 -1.58611e-09 -1.56097e-08 -1.5135e-07 2.25118e-08 -1.82813e-07)
(-3.21516e-07 -7.09709e-09 -1.71884e-09 -1.79809e-07 2.33556e-08 -1.91576e-07)
(-3.11751e-07 7.21188e-09 4.39787e-09 -1.87467e-07 2.54363e-08 -1.96949e-07)
(-2.01341e-06 1.74452e-09 1.67723e-08 -1.7359e-07 2.91863e-08 -1.98638e-07)
(-2.28058e-06 1.51273e-08 -1.53897e-08 -1.87913e-07 3.34369e-08 -2.09982e-07)
(-3.59461e-07 2.18312e-09 -1.8088e-09 -2.01139e-07 3.36047e-08 -2.18635e-07)
(-3.495e-07 -2.93445e-09 4.31143e-09 -2.08493e-07 3.53697e-08 -2.24411e-07)
(-2.1583e-06 -1.55543e-08 1.65201e-08 -2.09322e-07 3.90634e-08 -2.26927e-07)
(-2.53021e-06 5.0252e-08 -1.47449e-08 -6.2955e-07 3.42251e-08 -2.58281e-07)
(-4.7906e-07 1.80369e-08 -1.89672e-09 -5.32852e-07 3.41335e-08 -2.67092e-07)
(-4.69841e-07 -2.03224e-08 3.9837e-09 -5.36526e-07 3.54065e-08 -2.7328e-07)
(-2.40777e-06 -5.18853e-08 1.5746e-08 -6.42962e-07 3.83622e-08 -2.76332e-07)
(-2.98055e-06 7.49004e-08 -1.43238e-08 -3.09836e-06 2.62055e-08 -2.96687e-07)
(-6.65946e-07 3.34671e-08 -2.13518e-09 -2.76792e-06 2.58652e-08 -3.05635e-07)
(-6.58478e-07 -3.4174e-08 2.83057e-09 -2.74073e-06 2.63514e-08 -3.12155e-07)
(-2.86537e-06 -7.63008e-08 1.47431e-08 -3.02841e-06 2.78193e-08 -3.15593e-07)
(-1.78297e-06 3.89293e-08 -4.6994e-09 2.64681e-07 4.58353e-08 2.23333e-09)
(-1.83301e-07 -7.72656e-08 2.44653e-09 -1.29662e-09 7.48618e-08 -1.06914e-08)
(-1.76319e-07 7.84968e-08 -8.85058e-10 -1.26522e-08 7.77909e-08 -1.17537e-08)
(-1.67878e-06 -3.51508e-08 5.11154e-09 2.25934e-07 5.48665e-08 -7.91469e-10)
(-1.82994e-06 -1.69188e-08 -5.39473e-09 -1.9693e-07 5.42769e-08 -5.18245e-08)
(-3.1312e-07 -3.16244e-08 3.04439e-09 -6.76142e-08 6.91648e-08 -7.57844e-08)
(-3.04016e-07 3.2669e-08 -3.74293e-10 -7.79656e-08 7.19221e-08 -7.82964e-08)
(-1.72233e-06 1.76248e-08 6.23698e-09 -2.24786e-07 6.28387e-08 -5.90096e-08)
(-1.86114e-06 -1.87696e-08 -3.73729e-09 -1.68887e-07 4.57683e-08 -1.01879e-07)
(-3.11775e-07 -1.8952e-08 3.93667e-09 -9.96702e-08 5.10952e-08 -1.2953e-07)
(-3.02813e-07 1.91484e-08 -1.19683e-09 -1.08567e-07 5.36021e-08 -1.33058e-07)
(-1.75117e-06 1.87927e-08 4.66032e-09 -1.94329e-07 5.3609e-08 -1.12039e-07)
(-1.90186e-06 -1.07305e-08 -2.52585e-09 -1.36391e-07 3.51136e-08 -1.3253e-07)
(-2.81646e-07 -1.2961e-08 4.69075e-09 -1.33278e-07 3.67568e-08 -1.61535e-07)
(-2.72597e-07 1.26349e-08 -2.18822e-09 -1.41316e-07 3.90183e-08 -1.658e-07)
(-1.78897e-06 1.06818e-08 3.38589e-09 -1.60098e-07 4.22032e-08 -1.44869e-07)
(-1.98087e-06 -1.33723e-09 -2.04151e-09 -1.21216e-07 3.04793e-08 -1.56296e-07)
(-2.71987e-07 -7.2747e-09 4.93034e-09 -1.50604e-07 3.10849e-08 -1.85876e-07)
(-2.62556e-07 6.60986e-09 -2.68231e-09 -1.58326e-07 3.30966e-08 -1.90698e-07)
(-1.86442e-06 1.20278e-09 2.81865e-09 -1.43875e-07 3.67584e-08 -1.7027e-07)
(-2.12992e-06 1.53501e-08 -1.84729e-09 -1.52464e-07 2.81476e-08 -1.84088e-07)
(-3.11944e-07 1.94898e-09 4.84298e-09 -1.66338e-07 2.84253e-08 -2.13778e-07)
(-3.0225e-07 -3.13289e-09 -2.85465e-09 -1.73743e-07 3.01151e-08 -2.19048e-07)
(-2.0098e-06 -1.59207e-08 2.54115e-09 -1.74235e-07 3.34306e-08 -1.99357e-07)
(-2.38269e-06 5.00757e-08 -1.73882e-09 -5.89611e-07 1.87483e-08 -2.12504e-07)
(-4.33579e-07 1.7658e-08 4.53487e-09 -4.95094e-07 1.88031e-08 -2.42002e-07)
(-4.24538e-07 -2.01207e-08 -3.0741e-09 -4.98856e-07 1.99776e-08 -2.4761e-07)
(-2.26144e-06 -5.17362e-08 2.24887e-09 -6.03398e-07 2.2533e-08 -2.2875e-07)
(-2.83883e-06 7.40256e-08 -1.85056e-09 -2.95866e-06 1.13186e-08 -2.18926e-07)
(-6.21227e-07 3.28388e-08 4.23658e-09 -2.62759e-06 1.06261e-08 -2.48181e-07)
(-6.13823e-07 -3.36346e-08 -4.15724e-09 -2.60066e-06 1.10241e-08 -2.539e-07)
(-2.7233e-06 -7.54434e-08 1.79308e-09 -2.88951e-06 1.26723e-08 -2.35529e-07)
(-1.68963e-06 3.50064e-08 -1.66892e-09 2.32947e-07 4.43448e-08 -5.39443e-09)
(-1.7006e-07 -7.64046e-08 2.38756e-09 -1.95786e-08 5.93118e-08 -1.41492e-08)
(-1.6369e-07 7.61002e-08 -1.13252e-09 -2.99972e-08 6.13997e-08 -1.49473e-08)
(-1.5886e-06 -3.22077e-08 2.00055e-09 1.97914e-07 5.07374e-08 -7.69281e-09)
(-1.73681e-06 -1.61769e-08 -1.40557e-09 -2.14959e-07 5.11751e-08 -4.49542e-08)
(-2.91745e-07 -3.10458e-08 3.70144e-09 -9.20826e-08 5.89889e-08 -6.17994e-08)
(-2.83385e-07 3.09014e-08 -1.47734e-09 -1.01799e-07 6.10444e-08 -6.37894e-08)
(-1.63233e-06 1.63848e-08 2.09673e-09 -2.4116e-07 5.74846e-08 -5.0673e-08)
(-1.77081e-06 -1.74851e-08 -2.08898e-10 -1.8131e-07 4.74289e-08 -9.14865e-08)
(-2.92114e-07 -1.83945e-08 4.51668e-09 -1.16674e-07 5.02778e-08 -1.11153e-07)
(-2.83773e-07 1.7691e-08 -2.19831e-09 -1.25326e-07 5.22379e-08 -1.14023e-07)
(-1.6637e-06 1.71779e-08 9.75406e-10 -2.06234e-07 5.34815e-08 -9.97964e-08)
(-1.81384e-06 -9.9851e-09 6.76352e-10 -1.3593e-07 3.86209e-08 -1.30881e-07)
(-2.65578e-07 -1.26914e-08 5.02908e-09 -1.34467e-07 3.9537e-08 -1.51461e-07)
(-2.57053e-07 1.17233e-08 -2.91801e-09 -1.4249e-07 4.13716e-08 -1.5502e-07)
(-1.70357e-06 9.69862e-09 3.33998e-11 -1.59736e-07 4.43064e-08 -1.41256e-07)
(-1.8942e-06 -1.05463e-09 1.07485e-09 -1.10226e-07 3.00498e-08 -1.62894e-07)
(-2.58469e-07 -7.29096e-09 5.17409e-09 -1.39957e-07 3.05413e-08 -1.83804e-07)
(-2.49505e-07 6.21676e-09 -3.31885e-09 -1.47761e-07 3.22036e-08 -1.87925e-07)
(-1.78011e-06 7.70122e-10 -4.53374e-10 -1.33258e-07 3.5198e-08 -1.74956e-07)
(-2.04386e-06 1.53624e-08 1.14995e-09 -1.39081e-07 2.14138e-08 -1.90332e-07)
(-2.999e-07 1.76126e-09 5.04216e-09 -1.53334e-07 2.19004e-08 -2.11258e-07)
(-2.90625e-07 -3.15994e-09 -3.4739e-09 -1.60868e-07 2.32955e-08 -2.1583e-07)
(-1.92574e-06 -1.59988e-08 -6.30034e-10 -1.6134e-07 2.57654e-08 -2.03746e-07)
(-2.29674e-06 4.96253e-08 1.00514e-09 -5.72066e-07 9.99622e-09 -2.10314e-07)
(-4.22159e-07 1.72655e-08 4.6868e-09 -4.79482e-07 1.04139e-08 -2.31074e-07)
(-4.13471e-07 -1.98326e-08 -3.63395e-09 -4.83424e-07 1.13693e-08 -2.35945e-07)
(-2.17687e-06 -5.12989e-08 -6.7433e-10 -5.86434e-07 1.30881e-08 -2.24662e-07)
(-2.75201e-06 7.30737e-08 7.27295e-10 -2.86929e-06 5.41995e-09 -2.14103e-07)
(-6.09563e-07 3.22449e-08 4.35386e-09 -2.54194e-06 5.08167e-09 -2.35036e-07)
(-6.02434e-07 -3.31373e-08 -4.47147e-09 -2.51522e-06 5.39579e-09 -2.39949e-07)
(-2.63684e-06 -7.4528e-08 -8.85247e-10 -2.80081e-06 6.49898e-09 -2.28673e-07)
(-1.63551e-06 3.35844e-08 -7.87954e-10 2.17176e-07 3.4629e-08 -1.10803e-08)
(-1.64625e-07 -7.50936e-08 1.52147e-09 -2.8373e-08 4.2049e-08 -1.56383e-08)
(-1.58681e-07 7.38988e-08 -6.22119e-10 -3.80991e-08 4.34493e-08 -1.62882e-08)
(-1.53652e-06 -3.13918e-08 1.03842e-09 1.84785e-07 3.88715e-08 -1.2949e-08)
(-1.68255e-06 -1.55469e-08 -5.08558e-10 -2.22415e-07 3.89044e-08 -4.68626e-08)
(-2.83647e-07 -3.04437e-08 2.50307e-09 -1.02962e-07 4.28072e-08 -5.58892e-08)
(-2.75827e-07 2.95984e-08 -8.6068e-10 -1.12182e-07 4.42105e-08 -5.75454e-08)
(-1.58015e-06 1.54556e-08 1.03717e-09 -2.47294e-07 4.31757e-08 -5.16064e-08)
(-1.71822e-06 -1.66986e-08 1.98695e-10 -1.89018e-07 3.77463e-08 -8.8825e-08)
(-2.85764e-07 -1.80272e-08 3.03884e-09 -1.26671e-07 3.92007e-08 -9.94971e-08)
(-2.77887e-07 1.6781e-08 -1.2889e-09 -1.35095e-07 4.05721e-08 -1.01928e-07)
(-1.61303e-06 1.61945e-08 3.97039e-10 -2.13396e-07 4.19562e-08 -9.58474e-08)
(-1.76303e-06 -9.50606e-09 7.19136e-10 -1.39891e-07 3.19389e-08 -1.28857e-07)
(-2.61793e-07 -1.25315e-08 3.32134e-09 -1.39139e-07 3.24711e-08 -1.40021e-07)
(-2.53662e-07 1.11694e-08 -1.71418e-09 -1.4712e-07 3.37843e-08 -1.43089e-07)
(-1.65448e-06 9.07675e-09 -1.62487e-10 -1.63656e-07 3.59941e-08 -1.37803e-07)
(-1.84451e-06 -8.7769e-10 9.55098e-10 -1.09824e-07 2.40692e-08 -1.63104e-07)
(-2.56517e-07 -7.31203e-09 3.37003e-09 -1.39557e-07 2.44921e-08 -1.7443e-07)
(-2.47904e-07 5.97843e-09 -1.97033e-09 -1.47421e-07 2.56988e-08 -1.78042e-07)
(-1.73196e-06 5.00202e-10 -4.71303e-10 -1.33106e-07 2.78044e-08 -1.73707e-07)
(-1.99439e-06 1.53052e-08 9.61866e-10 -1.37094e-07 1.52441e-08 -1.90327e-07)
(-2.9882e-07 1.6157e-09 3.23925e-09 -1.51399e-07 1.57915e-08 -2.01708e-07)
(-2.89859e-07 -3.16622e-09 -2.0882e-09 -1.59052e-07 1.68082e-08 -2.05763e-07)
(-1.87756e-06 -1.59889e-08 -5.68613e-10 -1.59766e-07 1.84255e-08 -2.02295e-07)
(-2.24637e-06 4.92825e-08 7.967e-10 -5.64778e-07 5.88818e-09 -2.08893e-07)
(-4.21122e-07 1.70216e-08 2.96274e-09 -4.73218e-07 6.46542e-09 -2.20308e-07)
(-4.12702e-07 -1.96825e-08 -2.22875e-09 -4.77319e-07 7.15986e-09 -2.24649e-07)
(-2.1274e-06 -5.09776e-08 -5.60361e-10 -5.79653e-07 8.15156e-09 -2.21798e-07)
(-2.69953e-06 7.24774e-08 5.35226e-10 -2.8135e-06 2.93987e-09 -2.16595e-07)
(-6.08072e-07 3.19013e-08 2.66193e-09 -2.48911e-06 2.9354e-09 -2.28333e-07)
(-6.01167e-07 -3.28805e-08 -2.80365e-09 -2.46254e-06 3.16303e-09 -2.32697e-07)
(-2.58462e-06 -7.39742e-08 -6.69646e-10 -2.74553e-06 3.72679e-09 -2.29706e-07)
(-1.60509e-06 3.29514e-08 -4.33638e-10 2.09011e-07 2.17269e-08 -1.39015e-08)
(-1.62038e-07 -7.42323e-08 7.65262e-10 -3.29341e-08 2.51991e-08 -1.6256e-08)
(-1.56354e-07 7.25492e-08 -2.27492e-10 -4.22119e-08 2.60045e-08 -1.68249e-08)
(-1.50731e-06 -3.11046e-08 5.88948e-10 1.78294e-07 2.41458e-08 -1.55169e-08)
(-1.65209e-06 -1.51784e-08 -3.08488e-10 -2.25371e-07 2.38485e-08 -4.88664e-08)
(-2.80073e-07 -3.00809e-08 1.27895e-09 -1.0773e-07 2.56803e-08 -5.36356e-08)
(-2.72587e-07 2.88468e-08 -2.77569e-10 -1.16619e-07 2.64939e-08 -5.50967e-08)
(-1.55092e-06 1.49203e-08 6.3958e-10 -2.4936e-07 2.63096e-08 -5.3006e-08)
(-1.68868e-06 -1.62818e-08 4.17578e-11 -1.92946e-07 2.35133e-08 -8.78179e-08)
(-2.83345e-07 -1.78416e-08 1.55591e-09 -1.31721e-07 2.42192e-08 -9.35386e-08)
(-2.75757e-07 1.62836e-08 -4.70887e-10 -1.39981e-07 2.50245e-08 -9.57047e-08)
(-1.58462e-06 1.56654e-08 3.36403e-10 -2.1691e-07 2.59769e-08 -9.40204e-08)
(-1.73454e-06 -9.25652e-09 2.97769e-10 -1.4367e-07 2.03057e-08 -1.26132e-07)
(-2.60877e-07 -1.24708e-08 1.6857e-09 -1.43199e-07 2.0611e-08 -1.32159e-07)
(-2.52993e-07 1.08707e-08 -6.79471e-10 -1.51136e-07 2.13921e-08 -1.34924e-07)
(-1.62703e-06 8.74181e-09 5.92175e-11 -1.67355e-07 2.27154e-08 -1.34144e-07)
(-1.81671e-06 -7.95368e-10 4.08778e-10 -1.12548e-07 1.52162e-08 -1.6001e-07)
(-2.56663e-07 -7.34761e-09 1.68903e-09 -1.42184e-07 1.5518e-08 -1.66181e-07)
(-2.48266e-07 5.84542e-09 -8.13905e-10 -1.50082e-07 1.62426e-08 -1.69472e-07)
(-1.70507e-06 3.57805e-10 -9.81765e-11 -1.35971e-07 1.74615e-08 -1.69637e-07)
(-1.96658e-06 1.52555e-08 3.97053e-10 -1.38828e-07 9.266e-09 -1.87199e-07)
(-2.99416e-07 1.52474e-09 1.6e-09 -1.53038e-07 9.68031e-09 -1.93526e-07)
(-2.90646e-07 -3.18652e-09 -8.89394e-10 -1.60773e-07 1.02937e-08 -1.97253e-07)
(-1.85052e-06 -1.59752e-08 -1.47032e-10 -1.61775e-07 1.11916e-08 -1.98192e-07)
(-2.21764e-06 4.91045e-08 2.93252e-10 -5.62134e-07 3.41697e-09 -2.0664e-07)
(-4.21649e-07 1.69136e-08 1.43798e-09 -4.70951e-07 3.87765e-09 -2.1317e-07)
(-4.13391e-07 -1.96507e-08 -9.94828e-10 -4.75162e-07 4.2973e-09 -2.1718e-07)
(-2.09921e-06 -5.08218e-08 -1.45041e-10 -5.77358e-07 4.7921e-09 -2.18584e-07)
(-2.66913e-06 7.21968e-08 1.22083e-10 -2.78102e-06 1.58132e-09 -2.18096e-07)
(-6.08251e-07 3.17537e-08 1.23192e-09 -2.45822e-06 1.68844e-09 -2.24948e-07)
(-6.01486e-07 -3.27976e-08 -1.32798e-09 -2.43175e-06 1.82622e-09 -2.28975e-07)
(-2.55438e-06 -7.37286e-08 -2.03905e-10 -2.71339e-06 2.05982e-09 -2.30253e-07)
(-1.59127e-06 3.2665e-08 -1.45718e-10 2.05468e-07 7.38288e-09 -1.50128e-08)
(-1.60889e-07 -7.3853e-08 2.27137e-10 -3.49056e-08 8.41174e-09 -1.65496e-08)
(-1.5533e-07 7.19545e-08 -4.83827e-11 -4.39642e-08 8.67449e-09 -1.70812e-08)
(-1.49405e-06 -3.09751e-08 1.98096e-10 1.75558e-07 8.16835e-09 -1.65086e-08)
(-1.63826e-06 -1.50263e-08 -1.17448e-10 -2.26443e-07 8.00521e-09 -4.98135e-08)
(-2.78507e-07 -2.99302e-08 3.79411e-10 -1.09598e-07 8.5494e-09 -5.29757e-08)
(-2.71179e-07 2.85234e-08 -4.3399e-11 -1.18324e-07 8.81572e-09 -5.43451e-08)
(-1.53766e-06 1.4694e-08 2.29794e-10 -2.49988e-07 8.80818e-09 -5.3662e-08)
(-1.67524e-06 -1.61081e-08 -1.41274e-11 -1.9459e-07 7.9217e-09 -8.73634e-08)
(-2.82304e-07 -1.77712e-08 4.62369e-10 -1.33833e-07 8.13723e-09 -9.12095e-08)
(-2.74855e-07 1.60707e-08 -9.51149e-11 -1.42008e-07 8.4023e-09 -9.32494e-08)
(-1.57172e-06 1.54408e-08 1.43393e-10 -2.18335e-07 8.73127e-09 -9.31649e-08)
(-1.72158e-06 -9.15529e-09 6.14358e-11 -1.45752e-07 6.89757e-09 -1.24391e-07)
(-2.60504e-07 -1.24562e-08 4.98865e-10 -1.45376e-07 7.00093e-09 -1.28496e-07)
(-2.52739e-07 1.07426e-08 -1.56291e-10 -1.53289e-07 7.25961e-09 -1.31114e-07)
(-1.61455e-06 8.6e-09 6.13198e-11 -1.69381e-07 7.6952e-09 -1.31942e-07)
(-1.80405e-06 -7.6616e-10 9.28123e-11 -1.14588e-07 5.17327e-09 -1.5763e-07)
(-2.56757e-07 -7.37281e-09 4.95716e-10 -1.44154e-07 5.28367e-09 -1.61907e-07)
(-2.48464e-07 5.78543e-09 -1.97538e-10 -1.52067e-07 5.52474e-09 -1.65041e-07)
(-1.69284e-06 2.98231e-10 1.41946e-11 -1.38071e-07 5.92085e-09 -1.66771e-07)
(-1.95387e-06 1.52314e-08 8.68168e-11 -1.40419e-07 3.12469e-09 -1.84819e-07)
(-2.99697e-07 1.48347e-09 4.64928e-10 -1.54546e-07 3.27694e-09 -1.8932e-07)
(-2.91017e-07 -3.20545e-09 -2.23828e-10 -1.62321e-07 3.48159e-09 -1.92887e-07)
(-1.83816e-06 -1.59711e-08 -9.06962e-13 -1.63498e-07 3.76838e-09 -1.95322e-07)
(-2.20442e-06 4.90379e-08 5.32595e-11 -5.6139e-07 1.15624e-09 -2.05076e-07)
(-4.21887e-07 1.68799e-08 4.12742e-10 -4.703e-07 1.32767e-09 -2.09862e-07)
(-4.13705e-07 -1.96596e-08 -2.63411e-10 -4.74566e-07 1.46791e-09 -2.13711e-07)
(-2.08623e-06 -5.07688e-08 -2.4185e-12 -5.76789e-07 1.61706e-09 -2.16539e-07)
(-2.65504e-06 7.20973e-08 -5.11842e-12 -2.76608e-06 5.126e-10 -2.1853e-07)
(-6.0832e-07 3.17067e-08 3.39976e-10 -2.44393e-06 5.66342e-10 -2.23607e-07)
(-6.01621e-07 -3.27851e-08 -3.72493e-10 -2.4175e-06 6.12423e-10 -2.27472e-07)
(-2.54036e-06 -7.36484e-08 -2.18438e-11 -2.69863e-06 6.73054e-10 -2.30212e-07)
)
;

boundaryField
{
    interface
    {
        type            calculated;
        value           nonuniform List<symmTensor> 
192
(
(-4.5989e-06 2.20634e-12 2.06277e-11 1.09781e-06 1.22805e-07 -2.76729e-06)
(-4.31497e-06 1.22783e-12 3.23158e-11 -3.11333e-07 -3.34619e-09 -2.74942e-06)
(-4.4016e-06 -9.77377e-13 3.54069e-11 -3.14471e-07 -1.56478e-08 -2.79372e-06)
(-4.53145e-06 -3.63752e-12 3.57679e-11 -2.49161e-07 -7.01989e-09 -2.86069e-06)
(-4.69979e-06 -5.89446e-12 3.4941e-11 -2.26333e-07 4.88409e-09 -2.95673e-06)
(-4.93915e-06 -1.0087e-11 3.36731e-11 -2.96171e-07 2.35886e-08 -3.09864e-06)
(-5.25144e-06 -1.31512e-11 3.07197e-11 -8.68585e-07 5.71263e-08 -3.30794e-06)
(-5.71892e-06 -2.85808e-11 2.83464e-11 -3.66379e-06 8.13653e-08 -3.66312e-06)
(-3.91283e-06 1.51057e-12 1.03024e-11 5.50816e-07 -6.74745e-08 -3.84466e-07)
(-3.71618e-06 6.0886e-13 1.72934e-11 -1.44225e-07 -1.58526e-08 -5.80964e-07)
(-3.7711e-06 -1.41948e-12 1.87602e-11 -1.90994e-07 -1.1477e-08 -5.98641e-07)
(-3.87795e-06 -4.19286e-12 1.85885e-11 -1.9284e-07 -8.28837e-09 -5.95596e-07)
(-4.03775e-06 -6.62997e-12 1.77318e-11 -1.97474e-07 6.59803e-09 -6.05833e-07)
(-4.28586e-06 -1.13053e-11 1.66224e-11 -2.48087e-07 2.95881e-08 -6.40116e-07)
(-4.64191e-06 -1.47232e-11 1.47134e-11 -7.16905e-07 4.94015e-08 -7.21757e-07)
(-5.2529e-06 -3.10234e-11 1.31363e-11 -3.30798e-06 5.77619e-08 -8.69636e-07)
(-3.45366e-06 1.27847e-12 8.18876e-12 3.40167e-07 1.94583e-08 -2.11309e-08)
(-3.35158e-06 3.22345e-13 1.36161e-11 -1.626e-07 3.35987e-08 -1.20376e-07)
(-3.40985e-06 -1.7306e-12 1.47325e-11 -1.59964e-07 2.44894e-08 -1.63172e-07)
(-3.51001e-06 -4.72241e-12 1.45733e-11 -1.5144e-07 1.73152e-08 -1.72919e-07)
(-3.66571e-06 -7.44984e-12 1.3883e-11 -1.5135e-07 2.25118e-08 -1.82813e-07)
(-3.91615e-06 -1.26858e-11 1.2982e-11 -1.87913e-07 3.34369e-08 -2.09982e-07)
(-4.2881e-06 -1.66394e-11 1.15551e-11 -6.2955e-07 3.42251e-08 -2.58281e-07)
(-4.94333e-06 -3.41111e-11 1.03032e-11 -3.09836e-06 2.62055e-08 -2.96687e-07)
(-3.1724e-06 9.42839e-13 5.09724e-12 2.64681e-07 4.58353e-08 2.23333e-09)
(-3.09882e-06 -1.34023e-13 8.91067e-12 -1.9693e-07 5.42769e-08 -5.18245e-08)
(-3.16245e-06 -2.20615e-12 9.64969e-12 -1.68887e-07 4.57683e-08 -1.01879e-07)
(-3.26225e-06 -5.28842e-12 9.46148e-12 -1.36391e-07 3.51136e-08 -1.3253e-07)
(-3.41695e-06 -8.15906e-12 8.90873e-12 -1.21216e-07 3.04793e-08 -1.56296e-07)
(-3.66748e-06 -1.36527e-11 8.22369e-12 -1.52464e-07 2.81476e-08 -1.84088e-07)
(-4.04328e-06 -1.78492e-11 7.28746e-12 -5.89611e-07 1.87483e-08 -2.12504e-07)
(-4.70987e-06 -3.56622e-11 6.4887e-12 -2.95866e-06 1.13186e-08 -2.18926e-07)
(-3.00728e-06 7.8916e-13 3.7576e-12 2.32947e-07 4.43448e-08 -5.39443e-09)
(-2.942e-06 -4.06137e-13 6.56403e-12 -2.14959e-07 5.11751e-08 -4.49542e-08)
(-3.00858e-06 -2.54995e-12 7.11244e-12 -1.8131e-07 4.74289e-08 -9.14865e-08)
(-3.10961e-06 -5.73418e-12 6.97327e-12 -1.3593e-07 3.86209e-08 -1.30881e-07)
(-3.26475e-06 -8.74807e-12 6.5649e-12 -1.10226e-07 3.00498e-08 -1.62894e-07)
(-3.51511e-06 -1.44616e-11 6.05224e-12 -1.39081e-07 2.14138e-08 -1.90332e-07)
(-3.89037e-06 -1.88835e-11 5.38424e-12 -5.72066e-07 9.99622e-09 -2.10314e-07)
(-4.55617e-06 -3.70203e-11 4.79608e-12 -2.86929e-06 5.41995e-09 -2.14103e-07)
(-2.9098e-06 6.65741e-13 2.32564e-12 2.17176e-07 3.4629e-08 -1.10803e-08)
(-2.84772e-06 -6.24351e-13 4.17661e-12 -2.22415e-07 3.89044e-08 -4.68626e-08)
(-2.91574e-06 -2.82431e-12 4.53984e-12 -1.89018e-07 3.77463e-08 -8.8825e-08)
(-3.01792e-06 -6.06988e-12 4.43779e-12 -1.39891e-07 3.19389e-08 -1.28857e-07)
(-3.17368e-06 -9.16667e-12 4.15904e-12 -1.09824e-07 2.40692e-08 -1.63104e-07)
(-3.42364e-06 -1.4997e-11 3.81431e-12 -1.37094e-07 1.52441e-08 -1.90327e-07)
(-3.79706e-06 -1.95393e-11 3.39327e-12 -5.64778e-07 5.88818e-09 -2.08893e-07)
(-4.45961e-06 -3.78471e-11 3.02908e-12 -2.8135e-06 2.93987e-09 -2.16595e-07)
(-2.85458e-06 6.08216e-13 1.37245e-12 2.09011e-07 2.17269e-08 -1.39015e-08)
(-2.79403e-06 -7.47204e-13 2.45851e-12 -2.25371e-07 2.38485e-08 -4.88664e-08)
(-2.86274e-06 -2.99645e-12 2.67387e-12 -1.92946e-07 2.35133e-08 -8.78179e-08)
(-2.96565e-06 -6.28978e-12 2.61482e-12 -1.4367e-07 2.03057e-08 -1.26132e-07)
(-3.1218e-06 -9.4486e-12 2.45288e-12 -1.12548e-07 1.52162e-08 -1.6001e-07)
(-3.37133e-06 -1.53599e-11 2.24837e-12 -1.38828e-07 9.266e-09 -1.87199e-07)
(-3.74304e-06 -1.99881e-11 2.0069e-12 -5.62134e-07 3.41697e-09 -2.0664e-07)
(-4.40289e-06 -3.84199e-11 1.788e-12 -2.78102e-06 1.58132e-09 -2.18096e-07)
(-2.82945e-06 5.7033e-13 4.10631e-13 2.05468e-07 7.38288e-09 -1.50128e-08)
(-2.76956e-06 -8.17121e-13 7.59484e-13 -2.26443e-07 8.00521e-09 -4.98135e-08)
(-2.83855e-06 -3.08662e-12 8.29232e-13 -1.9459e-07 7.9217e-09 -8.73634e-08)
(-2.94179e-06 -6.39756e-12 8.08571e-13 -1.45752e-07 6.89757e-09 -1.24391e-07)
(-3.09813e-06 -9.58256e-12 7.55873e-13 -1.14588e-07 5.17327e-09 -1.5763e-07)
(-3.34739e-06 -1.55252e-11 6.89203e-13 -1.40419e-07 3.12469e-09 -1.84819e-07)
(-3.71813e-06 -2.01931e-11 6.157e-13 -5.6139e-07 1.15624e-09 -2.05076e-07)
(-4.37655e-06 -3.86778e-11 5.46057e-13 -2.76608e-06 5.126e-10 -2.1853e-07)
(-2.64715e-06 1.16036e-07 -3.00267e-11 1.09781e-06 -6.17529e-12 -4.81403e-06)
(-2.64921e-06 -1.06762e-08 -4.91144e-11 -3.11333e-07 -6.46943e-12 -4.51833e-06)
(-2.69572e-06 -2.11541e-08 -5.47201e-11 -3.14471e-07 -4.69293e-12 -4.60621e-06)
(-2.75079e-06 -1.08699e-08 -5.60119e-11 -2.49161e-07 -3.22816e-12 -4.74241e-06)
(-2.83674e-06 -6.74374e-10 -5.60105e-11 -2.26333e-07 -2.68566e-12 -4.91612e-06)
(-2.97862e-06 1.47505e-08 -5.60405e-11 -2.96171e-07 -3.01334e-12 -5.15774e-06)
(-3.19435e-06 4.76985e-08 -5.61327e-11 -8.68585e-07 -3.71441e-12 -5.47452e-06)
(-3.54324e-06 7.02436e-08 -6.02611e-11 -3.66379e-06 -5.12056e-12 -5.95522e-06)
(-4.04196e-07 -6.05834e-08 -1.93708e-11 6.96233e-07 -3.47347e-12 -4.37935e-06)
(-6.64295e-07 -2.7746e-08 -3.53238e-11 -1.0876e-07 -4.31297e-12 -4.12019e-06)
(-6.77928e-07 -1.82861e-08 -3.95048e-11 -2.01501e-07 -2.99724e-12 -4.15998e-06)
(-6.43251e-07 -1.1527e-08 -4.02086e-11 -2.32439e-07 -1.51446e-12 -4.26885e-06)
(-6.30691e-07 -5.16738e-09 -4.02053e-11 -2.5204e-07 -6.38467e-13 -4.4323e-06)
(-6.66745e-07 3.62043e-09 -4.05902e-11 -3.08725e-07 -2.33984e-13 -4.67844e-06)
(-7.79906e-07 1.85158e-08 -4.1792e-11 -7.78995e-07 -3.08718e-13 -5.03124e-06)
(-9.57215e-07 3.17168e-08 -4.7491e-11 -3.42783e-06 -8.53892e-13 -5.65222e-06)
(-3.97648e-07 7.60043e-08 -2.03146e-11 6.83203e-07 -2.2652e-12 -4.33086e-06)
(-6.55893e-07 4.11698e-08 -3.70829e-11 -1.18912e-07 -2.94473e-12 -4.07043e-06)
(-6.6989e-07 2.87448e-08 -4.17271e-11 -2.10623e-07 -1.89018e-12 -4.10828e-06)
(-6.35424e-07 1.92732e-08 -4.25634e-11 -2.40783e-07 -4.06251e-13 -4.21607e-06)
(-6.22846e-07 1.06414e-08 -4.24554e-11 -2.6008e-07 6.74772e-13 -4.37888e-06)
(-6.5904e-07 -4.00868e-10 -4.25157e-11 -3.16649e-07 1.56768e-12 -4.62437e-06)
(-7.73179e-07 -1.83961e-08 -4.31596e-11 -7.83736e-07 2.11615e-12 -4.97671e-06)
(-9.52087e-07 -3.20305e-08 -4.83524e-11 -3.40291e-06 2.17913e-12 -5.60098e-06)
(-2.54221e-06 -1.06079e-07 -2.3717e-11 1.04821e-06 -1.71495e-12 -4.68041e-06)
(-2.54018e-06 1.66319e-08 -4.35364e-11 -3.38914e-07 -2.14827e-12 -4.38613e-06)
(-2.58504e-06 2.54636e-08 -4.93314e-11 -3.39556e-07 -1.12981e-12 -4.46901e-06)
(-2.63853e-06 1.41305e-08 -5.0474e-11 -2.72592e-07 4.05298e-13 -4.60214e-06)
(-2.72306e-06 2.99984e-09 -5.02841e-11 -2.48845e-07 1.55412e-12 -4.7739e-06)
(-2.86453e-06 -1.35885e-08 -5.02575e-11 -3.1844e-07 2.70304e-12 -5.0137e-06)
(-3.08327e-06 -4.82941e-08 -5.02466e-11 -8.84205e-07 3.61065e-12 -5.32898e-06)
(-3.44009e-06 -7.13353e-08 -5.54438e-11 -3.59954e-06 4.5816e-12 -5.81875e-06)
(-4.40212e-06 6.06934e-12 8.84279e-12 1.04821e-06 1.30226e-07 -2.69892e-06)
(-4.11372e-06 5.57825e-12 1.5796e-11 -3.38914e-07 2.08524e-09 -2.68328e-06)
(-4.19633e-06 2.00035e-12 1.75012e-11 -3.39556e-07 -1.18852e-08 -2.72624e-06)
(-4.32257e-06 -1.75909e-12 1.786e-11 -2.72592e-07 -4.21251e-09 -2.79221e-06)
(-4.48812e-06 -3.75499e-12 1.78296e-11 -2.48845e-07 7.18104e-09 -2.88752e-06)
(-4.72638e-06 -6.75306e-12 1.87126e-11 -3.1844e-07 2.56448e-08 -3.02875e-06)
(-5.04272e-06 -6.65845e-12 1.89502e-11 -8.84205e-07 5.90331e-08 -3.23794e-06)
(-5.52287e-06 -2.16142e-11 2.2015e-11 -3.59954e-06 8.28773e-08 -3.59908e-06)
(-3.70595e-06 2.29453e-12 -2.54382e-13 5.02329e-07 -5.14953e-08 -3.85288e-07)
(-3.50902e-06 1.92111e-12 1.87732e-12 -1.74084e-07 -4.73157e-09 -5.85913e-07)
(-3.55985e-06 -1.07463e-13 1.89416e-12 -2.16196e-07 -3.11896e-09 -6.06466e-07)
(-3.66198e-06 -2.52724e-12 1.79011e-12 -2.158e-07 -1.61163e-09 -6.04955e-07)
(-3.81703e-06 -3.49082e-12 1.9739e-12 -2.19495e-07 1.21875e-08 -6.16034e-07)
(-4.06106e-06 -5.71025e-12 3.19208e-12 -2.6959e-07 3.435e-08 -6.51052e-07)
(-4.41792e-06 -3.99637e-12 4.52202e-12 -7.30749e-07 5.30774e-08 -7.33928e-07)
(-5.043e-06 -1.86198e-11 7.28763e-12 -3.23779e-06 5.95188e-08 -8.83858e-07)
(-3.25234e-06 1.20843e-12 1.21254e-12 2.96688e-07 3.18493e-08 -2.5251e-08)
(-3.14831e-06 5.97187e-13 3.89194e-12 -1.92059e-07 4.42735e-08 -1.29396e-07)
(-3.202e-06 -8.22115e-13 4.53923e-12 -1.85594e-07 3.35261e-08 -1.7549e-07)
(-3.29691e-06 -2.71414e-12 4.72118e-12 -1.74814e-07 2.50544e-08 -1.87354e-07)
(-3.44687e-06 -3.14982e-12 4.93533e-12 -1.7359e-07 2.91863e-08 -1.98638e-07)
(-3.69151e-06 -5.02794e-12 5.76153e-12 -2.09322e-07 3.90634e-08 -2.26927e-07)