/*--------------------------------*- C++ -*----------------------------------*\
| =========                 |                                                 |
| \\      /  F ield         | OpenFOAM: The Open Source CFD Toolbox           |
|  \\    /   O peration     | Version:  v1912                                 |
|   \\  /    A nd           | Website:  www.openfoam.com                      |
|    \\/     M anipulation  |                                                 |
\*---------------------------------------------------------------------------*/
FoamFile
{
    version     2.0;
    format      ascii;
    class       volScalarField;
    location    "0.44/solid";
    object      epsilonEq;
}
// * * * * * * * * * * * * * * * * * * * * * * * * * * * * * * * * * * * * * //

dimensions      [0 0 0 0 0 0 0];


internalField   nonuniform List<scalar> 
256
(
2.54566e-06
1.88007e-06
1.85929e-06
2.45577e-06
1.59491e-06
1.42864e-06
1.40938e-06
1.51957e-06
1.62345e-06
1.39269e-06
1.3734e-06
1.54875e-06
1.70766e-06
1.41899e-06
1.39984e-06
1.63323e-06
1.78365e-06
1.47179e-06
1.45266e-06
1.70917e-06
1.83193e-06
1.53376e-06
1.51454e-06
1.75723e-06
1.59434e-06
1.47878e-06
1.4614e-06
1.52528e-06
1.68296e-07
1.65043e-06
1.63732e-06
1.844e-07
1.6346e-06
3.58126e-07
3.49212e-07
1.53912e-06
1.27534e-06
3.45452e-07
3.36554e-07
1.18728e-06
1.26803e-06
2.70555e-07
2.63212e-07
1.18037e-06
1.29514e-06
2.01561e-07
1.95699e-07
1.20659e-06
1.34347e-06
1.7296e-07
1.68162e-07
1.25348e-06
1.41032e-06
1.74303e-07
1.69864e-07
1.31898e-06
1.36996e-06
6.66531e-08
7.19313e-08
1.2816e-06
1.59396e-06
1.47995e-06
1.46284e-06
1.5256e-06
1.42084e-06
1.97171e-07
1.92523e-07
1.3306e-06
1.23208e-06
2.1962e-07
2.10375e-07
1.14591e-06
1.23633e-06
1.74452e-07
1.64942e-07
1.14849e-06
1.26171e-06
1.18793e-07
1.0924e-07
1.17197e-06
1.31085e-06
9.50983e-08
8.56689e-08
1.2189e-06
1.38858e-06
1.07525e-07
9.82659e-08
1.29454e-06
1.40914e-06
1.6827e-07
1.64976e-07
1.31812e-06
1.83214e-06
1.53635e-06
1.51767e-06
1.75931e-06
1.28846e-06
1.71587e-07
1.68096e-07
1.20375e-06
1.14203e-06
1.83441e-07
1.76062e-07
1.06066e-06
1.15258e-06
1.46822e-07
1.38721e-07
1.06841e-06
1.17903e-06
1.01636e-07
9.35245e-08
1.09219e-06
1.22875e-06
8.11778e-08
7.29583e-08
1.13913e-06
1.30841e-06
9.20142e-08
8.30505e-08
1.21618e-06
1.34033e-06
1.5539e-07
1.5263e-07
1.25082e-06
1.78998e-06
1.47825e-06
1.45999e-06
1.71887e-06
1.21188e-06
1.51401e-07
1.47271e-07
1.13087e-06
1.07751e-06
1.63571e-07
1.56873e-07
9.99419e-07
1.0924e-06
1.34061e-07
1.26779e-07
1.01108e-06
1.12124e-06
9.54509e-08
8.7987e-08
1.03676e-06
1.17267e-06
7.83421e-08
7.03604e-08
1.08503e-06
1.25349e-06
8.91228e-08
8.00563e-08
1.16291e-06
1.28875e-06
1.5208e-07
1.49718e-07
1.20077e-06
1.73442e-06
1.43005e-06
1.41216e-06
1.66504e-06
1.16784e-06
1.37744e-07
1.32821e-07
1.08917e-06
1.03804e-06
1.51533e-07
1.44837e-07
9.61929e-07
1.05553e-06
1.26465e-07
1.19282e-07
9.76017e-07
1.08647e-06
9.09306e-08
8.32778e-08
1.00353e-06
1.13946e-06
7.54575e-08
6.68588e-08
1.05312e-06
1.2211e-06
8.8531e-08
7.90862e-08
1.13164e-06
1.25791e-06
1.55667e-07
1.5351e-07
1.17103e-06
1.69663e-06
1.3984e-06
1.38076e-06
1.62848e-06
1.14328e-06
1.29163e-07
1.2363e-07
1.066e-06
1.01563e-06
1.4399e-07
1.37127e-07
9.4067e-07
1.03451e-06
1.21031e-07
1.1369e-07
9.5605e-07
1.06679e-06
8.69707e-08
7.89312e-08
9.84773e-07
1.12076e-06
7.25017e-08
6.32747e-08
1.03522e-06
1.20288e-06
8.80279e-08
7.83459e-08
1.11411e-06
1.24059e-06
1.59279e-07
1.57271e-07
1.15443e-06
1.67464e-06
1.37944e-06
1.36197e-06
1.60731e-06
1.13218e-06
1.24894e-07
1.19027e-07
1.05554e-06
1.00546e-06
1.40171e-07
1.33186e-07
9.3103e-07
1.02492e-06
1.18012e-07
1.10534e-07
9.46961e-07
1.05782e-06
8.45805e-08
7.62793e-08
9.76253e-07
1.11225e-06
7.06891e-08
6.11085e-08
1.0271e-06
1.19458e-06
8.76104e-08
7.78334e-08
1.10615e-06
1.23273e-06
1.6114e-07
1.5922e-07
1.14692e-06
1.66467e-06
1.37059e-06
1.35319e-06
1.59774e-06
)
;

boundaryField
{
    interface
    {
        type            calculated;
        value           nonuniform List<scalar> 
192
(
3.36111e-06
2.32973e-06
2.37758e-06
2.4922e-06
2.60364e-06
2.69987e-06
2.53669e-06
1.37353e-06
2.7193e-06
2.24997e-06
2.26317e-06
2.33412e-06
2.43552e-06
2.57138e-06
2.61568e-06
2.5369e-06
2.41791e-06
2.14055e-06
2.16571e-06
2.23201e-06
2.33263e-06
2.47847e-06
2.57204e-06
2.7018e-06
2.20974e-06
1.98572e-06
2.01911e-06
2.08559e-06
2.18584e-06
2.3331e-06
2.43798e-06
2.61373e-06
2.08588e-06
1.87819e-06
1.91627e-06
1.98464e-06
2.08597e-06
2.23393e-06
2.34215e-06
2.52759e-06
2.01328e-06
1.81211e-06
1.85263e-06
1.92273e-06
2.02523e-06
2.17357e-06
2.28276e-06
2.47013e-06
1.97245e-06
1.77441e-06
1.81612e-06
1.88734e-06
1.99061e-06
2.13909e-06
2.24849e-06
2.43637e-06
1.95395e-06
1.75727e-06
1.79947e-06
1.8712e-06
1.97484e-06
2.12334e-06
2.23276e-06
2.42087e-06
3.4561e-06
2.43396e-06
2.48292e-06
2.59977e-06
2.71343e-06
2.81189e-06
2.65985e-06
1.57144e-06
3.08388e-06
2.50989e-06
2.49548e-06
2.56502e-06
2.6696e-06
2.80144e-06
2.83461e-06
2.71215e-06
3.04827e-06
2.47531e-06
2.4599e-06
2.52903e-06
2.63332e-06
2.76476e-06
2.79892e-06
2.68562e-06
3.3449e-06
2.33974e-06
2.38737e-06
2.50331e-06
2.61635e-06
2.71408e-06
2.56684e-06
1.53759e-06
3.22317e-06
2.20057e-06
2.24761e-06
2.3614e-06
2.4719e-06
2.56739e-06
2.40885e-06
1.28594e-06
2.56213e-06
2.09953e-06
2.11107e-06
2.17935e-06
2.27775e-06
2.4109e-06
2.45782e-06
2.40922e-06
2.26664e-06
1.99271e-06
2.01468e-06
2.07743e-06
2.17414e-06
2.31605e-06
2.41105e-06
2.56994e-06
2.0655e-06
1.84386e-06
1.87312e-06
1.93536e-06
2.03106e-06
2.17362e-06
2.27896e-06
2.48323e-06
1.94655e-06
1.74065e-06
1.77417e-06
1.83783e-06
1.93417e-06
2.07693e-06
2.18503e-06
2.39857e-06
1.8771e-06
1.67729e-06
1.71302e-06
1.77812e-06
1.87535e-06
2.01817e-06
2.12691e-06
2.34213e-06
1.83814e-06
1.64119e-06
1.67799e-06
1.74406e-06
1.84189e-06
1.98466e-06
2.09343e-06
2.30904e-06
1.8205e-06
1.62479e-06
1.66204e-06
1.72856e-06
1.82666e-06
1.96936e-06
2.07807e-06
2.29387e-06
1.57283e-06
2.66061e-06
2.81408e-06
2.72402e-06
2.63669e-06
2.57806e-06
2.54347e-06
2.52756e-06
2.71315e-06
2.83685e-06
2.80655e-06
2.68171e-06
2.58924e-06
2.52922e-06
2.4933e-06
2.47648e-06
2.68649e-06
2.80117e-06
2.76995e-06
2.64563e-06
2.55352e-06
2.49371e-06
2.45791e-06
2.44115e-06
1.53827e-06
2.56768e-06
2.71727e-06
2.62905e-06
2.54332e-06
2.48584e-06
2.45199e-06
2.43644e-06
)
;
    }
    symmetry
    {
        type            symmetry;
    }
    bottom
    {
        type            calculated;
        value           nonuniform List<scalar> 
32
(
3.50178e-06
2.00881e-06
1.66304e-06
1.50751e-06
1.42361e-06
1.37529e-06
1.3482e-06
1.33593e-06
2.30324e-06
4.47805e-07
2.1636e-07
1.94667e-07
1.79783e-07
1.68255e-07
1.60637e-07
1.5683e-07
2.28086e-06
4.35926e-07
2.06844e-07
1.85978e-07
1.70394e-07
1.58177e-07
1.50064e-07
1.45991e-07
3.39905e-06
1.90583e-06
1.5664e-06
1.41761e-06
1.3384e-06
1.2931e-06
1.2678e-06
1.25637e-06
)
;
    }
}


// ************************************************************************* //
