/*--------------------------------*- C++ -*----------------------------------*\
| =========                 |                                                 |
| \\      /  F ield         | OpenFOAM: The Open Source CFD Toolbox           |
|  \\    /   O peration     | Version:  v1912                                 |
|   \\  /    A nd           | Website:  www.openfoam.com                      |
|    \\/     M anipulation  |                                                 |
\*---------------------------------------------------------------------------*/
FoamFile
{
    version     2.0;
    format      ascii;
    class       volVectorField;
    location    "0.44/solid";
    object      heatFlux;
}
// * * * * * * * * * * * * * * * * * * * * * * * * * * * * * * * * * * * * * //

dimensions      [1 0 -3 0 0 0 0];


internalField   nonuniform List<vector> 
256
(
(-73679.5 57962.7 -78508.9)
(-12265.3 31502.6 -74880.1)
(11766.3 31317.5 -73981.6)
(69770.1 57081.5 -75709.1)
(-72501.6 5648.98 -77493.4)
(-14380 3261.31 -75577.8)
(13812.5 3241.01 -74621.5)
(68382.1 5574.84 -74539.9)
(-73799.9 1191.48 -78854)
(-14673.3 641.139 -76988.2)
(14079.8 633.1 -75989.4)
(69584.7 1155.38 -75784.2)
(-75784.7 1407.77 -80863.8)
(-14938.4 741.994 -78975.2)
(14326.8 737.392 -77952.2)
(71485.5 1382.39 -77724.3)
(-78763.9 2430.39 -83860.1)
(-15343.7 1375.3 -82029.8)
(14720.2 1372.63 -80992.4)
(74401.2 2416.92 -80678.1)
(-83390.5 5760.38 -88534)
(-15996.1 4090.99 -87037.8)
(15368.4 4083.42 -85988.6)
(79000.2 5751.06 -85318.5)
(-89964.6 24125.8 -95323.3)
(-17020.6 22230.2 -94932.6)
(16380.3 22120.2 -93867)
(85611.5 23846.8 -92062.1)
(-90125.8 96297 -96258.3)
(-18001.7 98398.5 -98369)
(16985.1 97350.3 -97327.5)
(85740.6 93110.7 -93096.5)
(-67292.5 28666.5 -15782)
(-10551.9 5542.77 -13105.8)
(10375.6 5543.13 -13015.6)
(63470.6 28312.1 -15525.6)
(-67966.1 3015.16 -18585.7)
(-12571.5 719.442 -15681.7)
(12393.8 720.841 -15572.8)
(64005.8 3002.55 -18275.1)
(-69329.7 628.627 -18937)
(-12846.2 110.73 -16004.1)
(12658.7 109.181 -15890.4)
(65274.6 608.457 -18613.9)
(-71294.7 749.2 -19224.3)
(-13091 112.149 -16264.9)
(12891.5 110.298 -16149.1)
(67143.8 727.224 -18897.4)
(-74337.7 1381.83 -19660.1)
(-13485.1 305.191 -16683.3)
(13273.8 303.239 -16566.8)
(70095.1 1362.66 -19335.4)
(-79314.4 4032.95 -20370.6)
(-14169.6 2148 -17425.6)
(13949 2139.63 -17309.3)
(74995.6 4010.18 -20054.3)
(-87034.3 21623.7 -21615.2)
(-15378.4 18885.2 -18881.9)
(15136 18769.1 -18767)
(82695.4 21314.4 -21313.8)
(-89997.7 95387.7 -24114.9)
(-17024.2 94981.8 -22225.2)
(16378.2 93904 -22117)
(85610.1 92085.3 -23845.6)
(-59545.1 23595.1 -3008.16)
(-9498.97 2715.17 -1380.2)
(9346.43 2729.03 -1373.33)
(55803.5 23280.8 -2981.69)
(-60378 2493.96 -3601.96)
(-11367.1 362.957 -1736.66)
(11219.2 366.295 -1727.93)
(56505.9 2486.61 -3569.2)
(-61672.2 552.836 -3660.77)
(-11626.6 57.9283 -1773.69)
(11470.1 56.7861 -1764.61)
(57705.1 532.998 -3627.23)
(-63561.4 684.643 -3691.16)
(-11863.1 62.8096 -1793.67)
(11694.3 60.9961 -1784.51)
(59492.5 660.797 -3658.19)
(-66537.2 1284.14 -3731.58)
(-12250.3 214.653 -1825.8)
(12068.1 212.422 -1816.73)
(62360.3 1260.02 -3700.82)
(-71489 3805.3 -3798.54)
(-12934.8 1892.35 -1891.81)
(12739.6 1883.19 -1883.06)
(67203.1 3772.67 -3772.8)
(-79355.8 20381.5 -4025.86)
(-14172.4 17430.5 -2147.32)
(13948.4 17312.5 -2139.41)
(74995.9 20055.6 -4010.24)
(-83467 88636.7 -5746.92)
(-16003.8 87117 -4085.66)
(15364.7 86047.1 -4079.96)
(78999 85355.2 -5749.28)
(-54804.6 22056.4 -1068.24)
(-8917.02 2425.91 -159.124)
(8774.12 2441.87 -157.601)
(51148.3 21761.3 -1052.43)
(-55609.7 2362.55 -1244.33)
(-10697.5 325.952 -200.093)
(10561.2 329.562 -198.162)
(51828.8 2357.02 -1225.35)
(-56864.9 539.429 -1258.04)
(-10950 53.7236 -203.696)
(10805.2 52.599 -201.726)
(52989.8 519.474 -1238.81)
(-58722.5 678.386 -1261.43)
(-11184.3 60.0348 -204.772)
(11027 58.1814 -202.812)
(54742.4 653.632 -1242.51)
(-61670.2 1274.45 -1264.32)
(-11570.2 207.048 -206.486)
(11398.8 204.69 -204.574)
(57572.8 1248.05 -1246.4)
(-66593.5 3738.68 -1273.79)
(-12254.1 1826.48 -214.066)
(12068 1816.95 -212.289)
(62367.8 3700.75 -1258.28)
(-74437.9 19675.3 -1370.34)
(-13491.9 16691.3 -304.118)
(13273 16572.2 -302.761)
(70103.3 19338 -1360.59)
(-78903 84021.1 -2407.79)
(-15357.3 82155.7 -1365.7)
(14714.6 81086.8 -1365.73)
(74407 80739.2 -2410.75)
(-52002.3 21282.5 -565.245)
(-8588.34 2355.96 -47.0337)
(8453.12 2373.27 -46.0209)
(48407 21003 -553.41)
(-52787.8 2304.16 -650.032)
(-10320.9 318.386 -57.3549)
(10193.9 322.169 -56.0672)
(49071.9 2300.23 -635.664)
(-54026.3 535.739 -655.102)
(-10570.3 53.2494 -58.0014)
(10435 52.1361 -56.6879)
(50216.9 515.839 -640.471)
(-55872.5 678.36 -654.903)
(-10804.5 60.0186 -57.9339)
(10656.5 58.1488 -56.624)
(51956 653.203 -640.399)
(-58808.6 1271.78 -654.517)
(-11190.5 205.359 -57.9125)
(11028.2 202.946 -56.6232)
(54769.2 1244.25 -640.504)
(-63707 3699.28 -659.591)
(-11873.3 1794.72 -60.4753)
(11695.4 1785 -59.2499)
(59528.2 3658.49 -646.84)
(-71490.5 19247.5 -720.187)
(-13104.8 16278.9 -107.644)
(12891.9 16159.1 -106.63)
(67182 18903.1 -710.691)
(-76024.8 81122.8 -1351.77)
(-14961.7 79183.8 -714.117)
(14319.6 78113.9 -713.853)
(71519.1 77834.5 -1350.16)
(-50322.2 20841.1 -320.61)
(-8397.8 2321.52 -24.0269)
(8267.74 2339.78 -23.3561)
(46763.2 20572.2 -313.008)
(-51098.1 2272.7 -366.801)
(-10103.5 314.984 -28.9593)
(9982.91 318.895 -28.0999)
(47420.5 2269.96 -357.454)
(-52329.5 534.558 -369.026)
(-10351.6 53.1446 -29.2)
(10222.7 52.0422 -28.3203)
(48558.7 514.739 -359.464)
(-54171.3 678.971 -368.379)
(-10586.1 60.1238 -29.0938)
(10444.5 58.2461 -28.2151)
(50292.1 653.598 -358.875)
(-57100.6 1269.76 -368.007)
(-10972.3 204.506 -29.0249)
(10816.2 202.064 -28.1574)
(53095 1241.61 -358.776)
(-61977.1 3673.01 -371.998)
(-11653.8 1776.75 -30.4328)
(11481.6 1766.94 -29.5993)
(57825.4 3630.57 -363.475)
(-69700 18983.2 -410.666)
(-12878.4 16037.7 -57.0084)
(12670 15917.6 -56.2806)
(65405.8 18634.6 -403.99)
(-74217.4 79296.2 -791.374)
(-14719.3 77363.5 -408.494)
(14078.6 76292.6 -408.124)
(69703.4 76002.1 -789.273)
(-49357.6 20595.1 -166.743)
(-8291.08 2302.97 -12.1727)
(8164.14 2321.81 -11.7923)
(45818.3 20332.6 -162.541)
(-50128.7 2255.74 -190.216)
(-9982.19 313.212 -14.6137)
(9865.44 317.205 -14.1238)
(46472.2 2253.78 -184.996)
(-51356.9 534.161 -191.193)
(-10229.6 53.1149 -14.7177)
(10104.7 52.0209 -14.2148)
(47607.5 514.417 -185.832)
(-53196.8 679.378 -190.74)
(-10464.3 60.1937 -14.6513)
(10326.7 58.3117 -14.1486)
(49338.1 653.891 -185.403)
(-56121.4 1268.16 -190.614)
(-10850.7 204.02 -14.6161)
(10698.4 201.561 -14.1196)
(52134.3 1239.65 -185.42)
(-60981.5 3656.62 -193.23)
(-11530.9 1766.73 -15.3645)
(11362.4 1756.87 -14.8855)
(56844.4 3613.27 -188.407)
(-68659.2 18828.1 -214.889)
(-12750.4 15900.8 -29.1626)
(12544.9 15780.6 -28.7329)
(64372.5 18477.3 -211.021)
(-73145.2 78207.8 -420.339)
(-14578.5 76296 -214.701)
(13938.9 75224.4 -214.428)
(68625.4 74909.6 -418.855)
(-48914.8 20484.2 -51.8592)
(-8242.84 2294.74 -3.74474)
(8117.37 2313.86 -3.62156)
(45384.2 20224.6 -50.5165)
(-49683.8 2248.25 -59.0769)
(-9927.45 312.439 -4.48799)
(9812.53 316.472 -4.32896)
(46036.8 2246.66 -57.4003)
(-50910.8 534.034 -59.3572)
(-10174.6 53.107 -4.51771)
(10051.6 52.0174 -4.3542)
(47170.8 514.333 -57.6309)
(-52749.9 679.55 -59.2047)
(-10409.5 60.2254 -4.49594)
(10273.8 58.3413 -4.33246)
(48900.2 654.01 -57.4848)
(-55672 1267.27 -59.1855)
(-10795.8 203.793 -4.48603)
(10645.4 201.327 -4.3246)
(51693 1238.6 -57.5122)
(-60523.3 3648.73 -60.0939)
(-11475.4 1762.2 -4.7225)
(11308.6 1752.33 -4.5666)
(56392.5 3604.97 -58.5386)
(-68177.5 18756 -67.0747)
(-12692.2 15838.3 -9.01395)
(12488.1 15718 -8.87262)
(63893.7 18404.2 -65.8183)
(-72643.5 77696.7 -132.151)
(-14513.4 75798.8 -67.2064)
(13874.4 74726.7 -67.1089)
(68120.4 74396.3 -131.639)
)
;

boundaryField
{
    interface
    {
        type            calculated;
        value           nonuniform List<vector> 
192
(
(-122999 57962.7 -78508.9)
(-116444 5648.98 -77493.4)
(-118464 1191.48 -78854)
(-121909 1407.77 -80863.8)
(-127060 2430.39 -83860.1)
(-135011 5760.38 -88534)
(-146123 24125.8 -95323.3)
(-144690 96297 -96258.3)
(-113483 28666.5 -15782)
(-110787 3015.16 -18585.7)
(-112966 628.627 -18937)
(-116408 749.2 -19224.3)
(-121708 1381.83 -19660.1)
(-130294 4032.95 -20370.6)
(-143331 21623.7 -21615.2)
(-146184 95387.7 -24114.9)
(-100082 23595.1 -3008.16)
(-98004.4 2493.96 -3601.96)
(-100074 552.836 -3660.77)
(-103381 684.643 -3691.16)
(-108561 1284.14 -3731.58)
(-117098 3805.3 -3798.54)
(-130372 20381.5 -4025.86)
(-135152 88636.7 -5746.92)
(-91763.1 22056.4 -1068.24)
(-89804.6 2362.55 -1244.33)
(-91810.5 539.429 -1258.04)
(-95058.7 678.386 -1261.43)
(-100184 1274.45 -1264.32)
(-108666 3738.68 -1273.79)
(-121895 19675.3 -1370.34)
(-127317 84021.1 -2407.79)
(-86814.8 21282.5 -565.245)
(-84912.4 2304.16 -650.032)
(-86891.1 535.739 -655.102)
(-90116.8 678.36 -654.903)
(-95219 1271.78 -654.517)
(-103653 3699.28 -659.591)
(-116774 19247.5 -720.187)
(-122351 81122.8 -1351.77)
(-83834.8 20841.1 -320.61)
(-81966.6 2272.7 -366.801)
(-83933.9 534.558 -369.026)
(-87150.3 678.971 -368.379)
(-92238.4 1269.76 -368.007)
(-100631 3673.01 -371.998)
(-113645 18983.2 -410.666)
(-119221 79296.2 -791.374)
(-82118.4 20595.1 -166.743)
(-80269.8 2255.74 -190.216)
(-82232 534.161 -191.193)
(-85444 679.378 -190.74)
(-90522.7 1268.16 -190.614)
(-98885.1 3656.62 -193.23)
(-111818 18828.1 -214.889)
(-117358 78207.8 -420.339)
(-81329.2 20484.2 -51.8592)
(-79489.4 2248.25 -59.0769)
(-81449.5 534.034 -59.3572)
(-84659.6 679.55 -59.2047)
(-89733.3 1267.27 -59.1855)
(-98079.5 3648.73 -60.0939)
(-110971 18756 -67.0747)
(-116485 77696.7 -132.151)
(-73679.5 57962.7 -130053)
(-72501.6 5648.98 -123360)
(-73799.9 1191.48 -125475)
(-75784.7 1407.77 -128975)
(-78763.9 2430.39 -134170)
(-83390.5 5760.38 -142218)
(-89964.6 24125.8 -153642)
(-90125.8 96297 -152662)
(-12265.3 31502.6 -126054)
(-14380 3261.31 -122942)
(-14673.3 641.139 -125186)
(-14938.4 741.994 -128676)
(-15343.7 1375.3 -134010)
(-15996.1 4090.99 -142661)
(-17020.6 22230.2 -155929)
(-18001.7 98398.5 -158634)
(11766.3 31317.5 -124425)
(13812.5 3241.01 -121232)
(14079.8 633.1 -123400)
(14326.8 737.392 -126846)
(14720.2 1372.63 -132152)
(15368.4 4083.42 -140780)
(16380.3 22120.2 -154014)
(16985.1 97350.3 -156756)
(69770.1 57081.5 -124930)
(68382.1 5574.84 -118029)
(69584.7 1155.38 -119936)
(71485.5 1382.39 -123304)
(74401.2 2416.92 -128414)
(79000.2 5751.06 -136384)
(85611.5 23846.8 -147700)
(85740.6 93110.7 -146875)
(115838 57081.5 -75709.1)
(108939 5574.84 -74539.9)
(110799 1155.38 -75784.2)
(114101 1382.39 -77724.3)
(119142 2416.92 -80678.1)
(127042 5751.06 -85318.5)
(138227 23846.8 -92062.1)
(137069 93110.7 -93096.5)
(106188 28312.1 -15525.6)
(103226 3002.55 -18275.1)
(105233 608.457 -18613.9)
(108504 727.224 -18897.4)
(113640 1362.66 -19335.4)
(122089 4010.18 -20054.3)
(135100 21314.4 -21313.8)
(138227 92085.3 -23845.6)
(92924.3 23280.8 -2981.69)
(90591 2486.61 -3569.2)
(92486.9 532.998 -3627.23)
(95611.7 660.797 -3658.19)
(100598 1260.02 -3700.82)
(108938 3772.67 -3772.8)
(122090 20055.6 -4010.24)
(127043 85355.2 -5749.28)
(84760.4 21761.3 -1052.43)
(82555 2357.02 -1225.35)
(84388.6 519.474 -1238.81)
(87448.4 653.632 -1242.51)
(92363.5 1248.05 -1246.4)
(100612 3700.75 -1258.28)
(113657 19338 -1360.59)
(119159 80739.2 -2410.75)
(79921.1 21003 -553.41)
(77777.3 2300.23 -635.664)
(79584.6 515.839 -640.471)
(82618.1 653.203 -640.399)
(87499.2 1244.25 -640.504)
(95679.9 3658.49 -646.84)
(108578 18903.1 -710.691)
(114174 77834.5 -1350.16)
(77004.9 20572.2 -313.008)
(74897.7 2269.96 -357.454)
(76694 514.739 -359.464)
(79715.5 653.598 -358.875)
(84575.8 1241.61 -358.776)
(92702.9 3630.57 -363.475)
(105470 18634.6 -403.99)
(111025 76002.1 -789.273)
(75323 20332.6 -162.541)
(73236.7 2253.78 -184.996)
(75028.1 514.417 -185.832)
(78043.6 653.891 -185.403)
(82890.6 1239.65 -185.42)
(90980 3613.27 -188.407)
(103654 18477.3 -211.021)
(109149 74909.6 -418.855)
(74548.6 20224.6 -50.5165)
(72471.8 2246.66 -57.4003)
(74261.4 514.333 -57.6309)
(77274.1 654.01 -57.4848)
(82114.3 1238.6 -57.5122)
(90184.2 3604.97 -58.5386)
(102811 18404.2 -65.8183)
(108268 74396.3 -131.639)
(-90125.8 152728 -96258.3)
(-89997.7 153759 -24114.9)
(-83467 142407 -5746.92)
(-78903 134468 -2407.79)
(-76024.8 129454 -1351.77)
(-74217.4 126282 -791.374)
(-73145.2 124386 -420.339)
(-72643.5 123494 -132.151)
(-18001.7 158687 -98369)
(-17024.2 156022 -22225.2)
(-16003.8 142811 -4085.66)
(-15357.3 134246 -1365.7)
(-14961.7 129067 -714.117)
(-14719.3 125875 -408.494)
(-14578.5 123995 -214.701)
(-14513.4 123117 -67.2064)
(16985.1 156797 -97327.5)
(16378.2 154084 -22117)
(15364.7 140891 -4079.96)
(14714.6 132331 -1365.73)
(14319.6 127150 -713.853)
(14078.6 123956 -408.124)
(13938.9 122075 -214.428)
(13874.4 121196 -67.1089)
(85740.6 146902 -93096.5)
(85610.1 147744 -23845.6)
(78999 136454 -5749.28)
(74407 128530 -2410.75)
(71519.1 123513 -1350.16)
(69703.4 120335 -789.273)
(68625.4 118434 -418.855)
(68120.4 117539 -131.639)
)
;
    }
    symmetry
    {
        type            symmetry;
    }
    bottom
    {
        type            calculated;
        value           nonuniform List<vector> 
32
(
(-73679.5 105921 -78508.9)
(-67292.5 51990.9 -15782)
(-59545.1 42793.1 -3008.16)
(-54804.6 39958.3 -1068.24)
(-52002.3 38520.2 -565.245)
(-50322.2 37697.3 -320.61)
(-49357.6 37237.7 -166.743)
(-48914.8 37030.3 -51.8592)
(-12265.3 57199.9 -74880.1)
(-10551.9 9786.85 -13105.8)
(-9498.97 4776.81 -1380.2)
(-8917.02 4266.05 -159.124)
(-8588.34 4140.31 -47.0337)
(-8397.8 4077.92 -24.0269)
(-8291.08 4044.21 -12.1727)
(-8242.84 4029.23 -3.74474)
(11766.3 56859.8 -73981.6)
(10375.6 9783.5 -13015.6)
(9346.43 4797.25 -1373.33)
(8774.12 4290.19 -157.601)
(8453.12 4166.84 -46.0209)
(8267.74 4106.1 -23.3561)
(8164.14 4073.42 -11.7923)
(8117.37 4058.93 -3.62156)
(69770.1 104265 -75709.1)
(63470.6 51289.3 -15525.6)
(55803.5 42162.5 -2981.69)
(51148.3 39362.5 -1052.43)
(48407 37952.8 -553.41)
(46763.2 37148.9 -313.008)
(45818.3 36700.8 -162.541)
(45384.2 36498.7 -50.5165)
)
;
    }
}


// ************************************************************************* //
