/*--------------------------------*- C++ -*----------------------------------*\
| =========                 |                                                 |
| \\      /  F ield         | OpenFOAM: The Open Source CFD Toolbox           |
|  \\    /   O peration     | Version:  v1912                                 |
|   \\  /    A nd           | Website:  www.openfoam.com                      |
|    \\/     M anipulation  |                                                 |
\*---------------------------------------------------------------------------*/
FoamFile
{
    version     2.0;
    format      ascii;
    class       volScalarField;
    location    "0.44/solid";
    object      sigmaEq;
}
// * * * * * * * * * * * * * * * * * * * * * * * * * * * * * * * * * * * * * //

dimensions      [1 -1 -2 0 0 0 0];


internalField   nonuniform List<scalar> 
256
(
587460
433863
429067
566716
368056
329686
325242
350669
374643
321390
316939
357403
394076
327459
323041
376899
411612
339643
335229
394423
422753
353945
349510
405514
367926
341257
337247
351988
38837.5
380868
377843
42553.8
377216
82644.4
80587.3
355181
294309
79719.6
77666.3
273988
292623
62435.8
60741.3
272393
298878
46514
45161.2
278444
310032
39913.9
38806.5
289266
325459
40223.7
39199.3
304379
316146
15381.5
16599.5
295753
367837
341527
337578
352062
327887
45501
44428.5
307062
284326
50681.4
48548.1
264441
285306
40258.1
38063.6
265035
291164
27413.8
25209.2
270456
302504
21945.8
19769.8
281285
320441
24813.5
22676.7
298741
325185
38831.6
38071.3
304181
422803
354543
350231
405994
297336
39597
38791.4
277789
263545
42332.4
40629.6
244768
265981
33882.1
32012.6
246557
272084
23454.5
21582.6
252044
283557
18733.3
16836.5
262876
301942
21234
19165.5
280656
309308
35859.2
35222.3
288650
413071
341135
336920
396663
279665
34938.6
33985.6
260970
248655
37747.2
36201.5
230635
252092
30937.3
29256.6
233327
258748
22027.1
20304.7
239253
270616
18078.9
16237
250391
289267
20566.8
18474.5
268365
297403
35095.4
34550.2
277100
400251
330011
325884
384240
269501
31787.1
30651.1
251346
239547
34969.1
33424
221984
243584
29184.1
27526.7
225235
250724
20984
19218
231584
262951
17413.3
15428.9
243028
281791
20430.2
18250.7
261147
290286
35923.3
35425.3
270238
391529
322707
318638
375804
263833
29807
28529.9
245999
234377
33228.4
31644.8
217078
238732
27930.1
26236.1
220627
246181
20070.2
18214.9
227255
258637
16731.2
14601.9
238898
277588
20314.1
18079.8
257103
286290
36756.7
36293.2
266406
386456
318333
314300
370917
261272
28821.7
27467.8
243587
232030
32347.1
30735.2
214853
236520
27233.6
25507.8
218529
244113
19518.6
17602.9
225289
256674
16312.9
14102
237023
275672
20217.8
17961.6
255265
284476
37186.2
36743.1
264674
384155
316290
312275
368709
)
;

boundaryField
{
    interface
    {
        type            calculated;
        value           nonuniform List<scalar> 
192
(
775641
537630
548673
575123
600841
623047
585391
316968
627530
519225
522269
538643
562042
593396
603618
585437
557979
493973
499779
515079
538300
571954
593547
623492
509940
458244
465948
481289
504424
538408
562612
603169
481356
433429
442216
457994
481378
515523
540496
583291
464603
418180
427529
443707
467361
501593
526790
570029
455182
409480
419105
435539
459373
493636
518883
562239
450913
405524
415263
431817
455733
490001
515253
558663
797562
561683
572982
599947
626176
648897
613812
362641
711664
579206
575879
591929
616061
646487
654140
625881
703448
571225
567670
583622
607688
638021
645905
619758
771900
539940
550931
577688
603774
626327
592348
354829
743809
507825
518680
544938
570439
592474
555888
296755
591260
484506
487171
502927
525635
556362
567190
555973
523070
459856
464927
479407
501726
534473
556397
593063
476653
425506
432259
446621
468707
501604
525914
573054
449203
401689
409423
424114
446347
479291
504238
553516
433177
387067
395311
410337
432773
465732
490825
540491
424186
378736
387229
402476
425051
457998
483098
532855
420116
374952
383548
398898
421538
454469
479555
529354
362961
613986
649403
628621
608467
594937
586955
583283
626111
654657
647665
618856
597518
583667
575377
571494
619959
646423
639220
610530
589273
575472
567211
563343
354986
592541
627062
606705
586921
573654
565843
562256
)
;
    }
    symmetry
    {
        type            symmetry;
    }
    bottom
    {
        type            calculated;
        value           nonuniform List<scalar> 
32
(
808103
463571
383779
347886
328525
317374
311122
308290
531517
103340
49929.3
44923.2
41488.4
38828
37070.1
36191.5
526352
100598
47733.2
42918
39321.6
36502.3
34630.1
33690.3
784396
439807
361476
327141
308861
298408
292570
289931
)
;
    }
}


// ************************************************************************* //
