/*--------------------------------*- C++ -*----------------------------------*\
| =========                 |                                                 |
| \\      /  F ield         | OpenFOAM: The Open Source CFD Toolbox           |
|  \\    /   O peration     | Version:  v1912                                 |
|   \\  /    A nd           | Website:  www.openfoam.com                      |
|    \\/     M anipulation  |                                                 |
\*---------------------------------------------------------------------------*/
FoamFile
{
    version     2.0;
    format      ascii;
    class       volSymmTensorField;
    location    "0.44/solid";
    object      sigma;
}
// * * * * * * * * * * * * * * * * * * * * * * * * * * * * * * * * * * * * * //

dimensions      [1 -1 -2 0 0 0 0];


internalField   nonuniform List<symmTensor> 
256
(
(-243318 17851.7 -6966.72 332829 18893.1 -261802)
(40857.1 -9320.52 -2757.96 210154 18945.4 -281165)
(41923 11693 2739.03 208208 19255.9 -277198)
(-223250 -16319.9 7058.82 329122 20034.7 -247359)
(-279350 -1642.49 -10150.4 80322.9 -514.798 -294767)
(-46749.9 -4268.61 -4385.23 38716.9 615.735 -325109)
(-45185.3 6333.82 4485.4 37427.1 852.656 -320866)
(-257229 2558.75 10336.2 81427.8 320.805 -279244)
(-281176 -3254.48 -10775.7 85169.5 -2407.36 -296253)
(-53642.4 -2813.25 -4747.77 19654 -2142.52 -331886)
(-52117.1 4422.28 4909.91 18539.3 -1982.41 -327535)
(-258691 3917.48 10993.6 86768 -1828.49 -280415)
(-282579 -1672.29 -11083.9 102288 -1079.98 -299485)
(-46468.5 -1773.39 -4894.24 16733.4 -1137.78 -337588)
(-44943.2 2965.11 5066.39 15770.8 -1021.4 -333152)
(-259739 2173.92 11310.6 104252 -648.078 -283382)
(-292588 -103.75 -11333.1 109012 751.399 -311049)
(-44046.4 -794.982 -5020.31 14207.7 664.04 -350677)
(-42495.2 1637.14 5185.69 13314.9 760.012 -346180)
(-269432 461.514 11564.1 111216 1104.78 -294733)
(-316035 2269.31 -11494.4 96648.6 3629.02 -334500)
(-53840 556.989 -5117.7 1239.96 3618.95 -376847)
(-52309.1 -61.672 5280.48 366.493 3708.92 -372311)
(-292745 -2090.54 11734.3 98960.2 3945.36 -318011)
(-359490 7338.23 -11393.7 -1679.72 8788.66 -376965)
(-85493.8 2848.58 -5085.64 -85353.7 9146.06 -426164)
(-84026 -2830.17 5261.39 -85650.2 9236.81 -421543)
(-336379 -7429.85 11647.2 1938.58 9082.01 -360174)
(-318609 10806.7 -10737.7 -337154 12517.7 -337051)
(-12359 4879.51 -4792.63 -392454 13267.4 -392242)
(-10741.3 -4927.78 4975.48 -387792 13347.7 -387570)
(-295930 -10974.7 10981.1 -320461 12750.3 -320391)
(-254558 11620.3 -5042.54 172295 -10380.7 28405.1)
(-30838.2 -10126.8 -1175.78 46964.5 -1440.96 -36345.4)
(-30285.8 11409.4 1468.33 44265 -646.677 -36916.1)
(-234708 -10511.9 5224.13 167585 -7922.36 31028.7)
(-293859 -2436.74 -7287.25 27897.1 -2438.86 -39293.5)
(-109414 -4530.38 -2465.78 -30927.2 1952.25 -110715)
(-108156 5545.65 2974.92 -32860.8 2471.36 -111041)
(-271871 2885.19 7573.16 27875 -727.933 -35483.2)
(-299639 -3345.32 -7460.16 18891.2 -1765.7 -43823.8)
(-123409 -2984.88 -2607.89 -62505.8 -349.649 -125650)
(-122157 3699.73 3181.02 -64055.3 24.9721 -126064)
(-277241 3616.6 7771.6 19749.4 -479.84 -40292.2)
(-303666 -1797.44 -7492.58 21025.2 -1275.13 -40937.2)
(-121635 -1954.51 -2558.8 -79100.7 -871.046 -128176)
(-120381 2435.07 3129.09 -80470.5 -575.17 -128652)
(-280862 1997.42 7807.45 22290.6 -247.942 -37579.5)
(-315406 -220.684 -7598.08 20938.5 1015.08 -41885.9)
(-122147 -982.215 -2595.56 -88319.8 1141.98 -131840)
(-120863 1263.69 3146.14 -89647.4 1392.82 -132363)
(-292168 346.449 7913.8 22385.3 1875 -38620.7)
(-341550 2261.01 -7652.04 9452.18 4552.01 -50859.9)
(-133990 403.977 -2649.2 -100193 4591.59 -143100)
(-132720 -344.556 3186.02 -101513 4809.31 -143687)
(-317977 -2262 7973.29 10989 5284.62 -47697.4)
(-391612 7608.37 -7519.24 -75911.7 7600.22 -76658.1)
(-168347 2790.46 -2634.43 -172030 7696.36 -172319)
(-167130 -3055.53 3142.84 -172723 7865.19 -172903)
(-367996 -7829.22 7836.57 -72960.8 8165.76 -73449.9)
(-359728 11434.1 -7205.76 -377066 8886.44 -1935.74)
(-85513.2 5135.6 -2613.45 -426301 9218.76 -85073.8)
(-84008.7 -5232.13 2974.87 -421645 9304.43 -85221.3)
(-336406 -11644.6 7450.01 -360119 9156.73 2024.79)
(-219784 7670.21 -2108.13 132008 2993.59 76423.8)
(-25886.9 -11506.2 -65.3902 14968.7 10599.7 3716.87)
(-25297.7 12102 332.225 12464.5 11218 2919.87)
(-200058 -6862.7 2202.1 128383 4899.89 78853.5)
(-245413 -2649.73 -2801.8 35389.7 5169.03 41885.7)
(-78334 -4821.39 -468.327 -24815.1 8972.05 -41157.7)
(-77094.2 5291.63 917.526 -26770.4 9489.92 -41889.7)
(-223769 2882.56 2978.28 35358.9 6811.3 44999.2)
(-249979 -3148.79 -2595.8 35411.3 3767.61 34917.8)
(-89230.6 -2996.84 -412.02 -45280.6 5075.6 -59053.4)
(-87992.7 3265.07 882.537 -46893.7 5506.65 -59913)
(-227951 3241.92 2788.44 36049.5 5157.85 37604)
(-254215 -1772.3 -2435.83 38503.1 2663.88 35198.6)
(-88052.9 -2021.43 -290.411 -59023.8 3063.02 -64659.1)
(-86805.1 2148.35 733.56 -60461.8 3430.93 -65617.9)
(-231758 1832.45 2622.29 39518.1 3854.52 37588.7)
(-265794 -244.018 -2401.49 39012 3463.36 34171.5)
(-88914.7 -1091.86 -264.437 -67113.7 3593.18 -68924)
(-87623.7 1109.52 676.596 -68503 3913.28 -69961.8)
(-242819 268.388 2580.35 40229.4 4490.2 36375.8)
(-291570 2327.27 -2367.65 30379.3 5144.13 26984.1)
(-100375 335.864 -278.277 -76017.5 5169.96 -78709.2)
(-99073.2 -451.453 663.296 -77379.9 5441.49 -79828.8)
(-268088 -2392.97 2541.55 31755.2 6009.75 29046.8)
(-341597 7731.08 -2268.44 -49188.4 5265.39 7929.86)
(-133471 2774.9 -291.803 -141747 5251.31 -100860)
(-132190 -3126.52 612.877 -142449 5447.15 -101950)
(-317799 -7982.36 2422.47 -46291 5901.88 10113.7)
(-316312 11523.1 -2203.66 -334435 4031.61 96591)
(-53332.5 5148.79 -328.489 -376713 3979.27 2100.07)
(-51751.9 -5257.54 435.472 -372098 4054.07 1528.58)
(-292573 -11738.6 2268.17 -317657 4279.89 99699.7)
(-199493 5989.13 -722.984 115530 7051.58 75153.5)
(-24070.7 -11887 376.389 3929.99 11517.2 2484.64)
(-23473 12076.4 -136.163 1706.59 11967.8 1844.81)
(-179985 -5407.82 786.391 113047 8441 78166.6)
(-219707 -2602.89 -829.958 31524.8 8350.29 53848.7)
(-66862.6 -4865.29 468.368 -29092.5 10640.7 -30349.4)
(-65647.7 5026.01 -57.5836 -30870.7 11064.9 -30921.6)
(-198433 2711.51 959.535 31957.6 9667.49 57461.6)
(-223517 -2887.62 -574.967 36830.6 7041.28 47139.6)
(-75573.9 -2915.69 605.642 -42942.4 7860.79 -47536.1)
(-74353.7 2945.91 -184.127 -44469.6 8246.47 -48237.4)
(-201878 2891.18 716.972 37636.1 8247.54 50296.1)
(-227911 -1650.84 -388.592 43699.1 5402.1 44293)
(-74516.6 -1993.99 721.654 -51690.8 5654.89 -56038.1)
(-73280 1943.83 -336.649 -53082.9 6002.81 -56849.7)
(-205831 1643.36 520.906 44764 6492.8 47107.1)
(-239568 -205.728 -314.078 46531.9 4689.12 41135)
(-75739.4 -1119.19 758.514 -57065.1 4782.3 -62491.5)
(-74453 1016.9 -412.663 -58417.6 5091.79 -63397.8)
(-216925 185.044 433.639 47774.3 5655.14 43713.6)
(-265255 2361.55 -284.198 38968.9 4330.4 34103.7)
(-87340.2 299.842 745.075 -64939.3 4373.12 -72237.7)
(-86031.7 -481.983 -439.177 -66261.5 4633.1 -73231.4)
(-242003 -2449.33 390.947 40391.7 5143.16 36526.7)
(-314816 7703.96 -267.511 -38957.2 2884.35 19059.2)
(-119808 2716.61 697.672 -129272 2892.78 -90334.3)
(-118498 -3095.5 -472.939 -129932 3073.47 -91278.8)
(-291065 -7959.41 345.981 -35982.2 3466.62 21656)
(-292044 11388.6 -284.701 -310479 1741.33 111018)
(-41286.5 5052.12 651.782 -349958 1634.78 16105.2)
(-39663.5 -5174.56 -639.576 -345331 1696.02 15709.2)
(-268125 -11606.7 275.858 -293696 1949.58 114609)
(-187894 5385.59 -256.757 107887 6822.28 71219.6)
(-23800 -11754.6 367.316 -649.093 9124.9 186.206)
(-23213.5 11707.7 -174.234 -2645.41 9446.11 -330.04)
(-168547 -4955.03 307.776 106302 7805.75 74670)
(-206280 -2488.76 -216.241 27850.1 7873.09 54004.6)
(-63280.3 -4776.28 569.453 -32563.1 9075.21 -27904.1)
(-62113.4 4754.06 -227.283 -34177.1 9391.45 -28329.4)
(-185277 2520.74 322.574 28749.4 8843.78 58055.1)
(-209877 -2690.02 -32.1381 34661 7296.76 48480)
(-71097.1 -2829.92 694.873 -44106.4 7735.05 -43256.9)
(-69920.6 2721.7 -338.201 -45544.2 8036.6 -43805.2)
(-188520 2642.76 150.062 35705.7 8227.92 52080.7)
(-214423 -1536.17 104.054 43717.3 5941.68 44494)
(-70140.2 -1952.53 773.705 -49969.3 6082.62 -52583.7)
(-68942.2 1803.59 -448.925 -51317.2 6364.86 -53244.8)
(-192618 1492.1 5.13844 44895.5 6816.37 47738.5)
(-226176 -162.251 165.361 48281.1 4623.04 40178.4)
(-71607.8 -1121.69 796.014 -53375.2 4698.66 -60121)
(-70356.7 956.424 -510.592 -54703.7 4954.4 -60882.9)
(-203782 118.48 -69.7498 49579.9 5415.08 43164.8)
(-251781 2363.44 176.916 41262.8 3294.42 33378.1)
(-83323.5 270.963 775.717 -60775 3369.29 -69686.3)
(-82044.4 -486.144 -534.446 -62081.7 3583.93 -70537.4)
(-228720 -2461.36 -96.9283 42725.7 3963.91 36201.6)
(-300831 7634.66 154.637 -35497.1 1537.88 20157.1)
(-115440 2656.24 721.046 -124259 1602.14 -86042.7)
(-114148 -3051.17 -559.069 -124910 1749.12 -86836)
(-277165 -7892.14 -103.743 -32482.5 2013.56 23174.8)
(-279016 11242.1 111.892 -297059 833.838 111431)
(-38074.6 4960.76 669.825 -335364 781.795 19544.9)
(-36455.2 -5098.05 -687.918 -330730 830.122 19311.7)
(-255023 -11465.8 -136.192 -280249 999.843 115464)
(-180941 5166.84 -121.224 104087 5327.54 68970.9)
(-23913.3 -11552.9 234.072 -2951.46 6469.08 -992.279)
(-23334.1 11369 -95.7106 -4783.05 6684.51 -1427.52)
(-161672 -4829.52 159.757 103145 5980.23 72724.5)
(-198646 -2391.83 -78.2397 25991 5985.3 52999)
(-62144.5 -4683.64 385.087 -34346.8 6585.72 -27104.8)
(-61013.8 4553.6 -132.412 -35837.6 6801.61 -27431.9)
(-177790 2377.78 159.564 27264.9 6642.42 57370.7)
(-202232 -2569.02 30.5685 33030.6 5807.12 48444.9)
(-69671.2 -2773.41 467.514 -45195.3 6030.87 -41014.7)
(-68529 2581.69 -198.293 -46561.1 6241.87 -41458.4)
(-181029 2491.46 61.0829 34298.9 6454.81 52383.4)
(-206887 -1462.47 110.636 42826.3 4913.67 44523.9)
(-68813.9 -1927.93 510.975 -49944.1 4995.56 -50079.8)
(-67646.9 1718.36 -263.719 -51255.7 5197.59 -50635.7)
(-185229 1396.42 -24.998 44129 5537.56 48106.3)
(-218692 -135.029 146.938 48183.4 3702.96 39986.5)
(-70427 -1124.93 518.466 -52433.1 3768.01 -57798.2)
(-69205 919.759 -303.128 -53746.2 3953.66 -58457)
(-196430 76.9542 -72.5081 49548.1 4277.61 43302)
(-244203 2354.65 147.979 41534.8 2345.25 33345.1)
(-82202.3 248.569 498.345 -59522.1 2429.46 -67261.9)
(-80948.9 -487.111 -321.261 -60824.8 2585.88 -68011)
(-221241 -2459.82 -87.479 43035.2 2834.69 36492.3)
(-292836 7581.92 122.569 -34129.7 905.874 20621.8)
(-114118 2618.71 455.806 -122132 994.68 -83223.3)
(-112843 -3028.07 -342.884 -122784 1101.52 -83912)
(-269203 -7842.71 -86.2094 -31088.2 1254.09 23966.4)
(-271317 11150.4 82.3424 -288850 452.287 110674)
(-37328.9 4907.89 409.527 -326719 451.6 21092.5)
(-35718.5 -5058.54 -431.331 -322084 486.62 20969.2)
(-247258 -11380.6 -103.022 -272012 573.352 115037)
(-176891 5069.44 -66.7135 102201 3342.59 67907.2)
(-24025.1 -11420.4 117.733 -4162.97 3876.79 -1597.1)
(-23448.5 11161.4 -34.9987 -5888.09 4000.69 -1982.4)
(-157652 -4785.32 90.6074 101671 3714.73 71854.4)
(-194295 -2335.14 -47.4597 25200 3669 52354.6)
(-61725.5 -4627.83 196.762 -35211.1 3950.81 -26888.9)
(-60615.7 4437.97 -42.7029 -36620.7 4075.98 -27155.7)
(-173511 2295.43 98.3969 26729.8 4047.64 56938.1)
(-197910 -2504.89 6.42427 32202.4 3617.42 48376)
(-69170 -2744.86 239.371 -45843.3 3726.03 -39969)
(-68047.8 2505.17 -72.4441 -47159.1 3849.93 -40347.4)
(-176781 2410.06 51.7543 33636.2 3996.45 52542.3)
(-202627 -1424.08 45.8106 42122 3123.96 44820.2)
(-68382.3 -1918.58 259.339 -50277.9 3170.92 -48579.4)
(-67233.4 1672.41 -104.534 -51563.2 3291.1 -49068.9)
(-181040 1344.89 9.11038 43525.4 3494.68 48634.7)
(-214450 -122.364 62.8889 47729.5 2340.95 40427.6)
(-70070.9 -1130.4 259.851 -52458.7 2387.38 -56150.5)
(-68865.8 899.295 -125.216 -53760.5 2498.86 -56743.5)
(-192249 55.0469 -15.1041 49151.5 2686.39 43972)
(-239884 2346.99 61.0851 41309.2 1425.54 33867.6)
(-81873.9 234.575 246.154 -59354.2 1489.28 -65583.1)
(-80635.5 -490.234 -136.83 -60655.1 1583.64 -66267.2)
(-216964 -2457.72 -22.6203 42841.8 1721.79 37239.2)
(-288233 7554.53 45.1158 -33539.3 525.687 21152.1)
(-113678 2602.1 221.227 -121263 596.562 -81604.5)
(-112414 -3023.18 -153.05 -121918 661.123 -82228.2)
(-264609 -7818.74 -22.314 -30477.2 737.247 24718.8)
(-266762 11107.2 18.782 -283975 243.281 110321)
(-37109.8 4885.18 189.526 -321721 259.761 21860)
(-35504.8 -5045.78 -204.304 -317083 280.956 21804.7)
(-242651 -11342.9 -31.37 -267114 316.896 114907)
(-175005 5025.39 -22.4181 101417 1135.83 67497)
(-24070.8 -11362 34.9441 -4688.72 1294.11 -1864.72)
(-23494.9 11069.9 -7.44349 -6361.75 1334.54 -2225.9)
(-155775 -4765.4 30.4764 101087 1256.67 71538.7)
(-192280 -2311.74 -18.0689 24921.7 1231.57 52095.5)
(-61555.4 -4604.64 58.3709 -35569.3 1315.29 -26858.3)
(-60455 4388.22 -6.67678 -36938.8 1356.26 -27095.9)
(-171524 2260.62 35.353 26580.2 1355.11 56784.2)
(-195913 -2478.17 -2.17345 31879 1218.72 48375.5)
(-68977.6 -2734.02 71.1337 -46135.9 1251.88 -39578.5)
(-67864.4 2472.42 -14.6331 -47426.3 1292.66 -39925)
(-174813 2375.51 22.0604 33399.6 1343.27 52656.5)
(-200656 -1408.51 9.45166 41778.2 1061.16 45064.4)
(-68223 -1916.34 76.7485 -50510.9 1077.07 -47913.9)
(-67082.2 1652.71 -24.0447 -51782.2 1116.86 -48370.7)
(-179096 1323.08 9.43382 43236.9 1183.88 48996.9)
(-212481 -117.871 14.2788 47436 795.887 40814.1)
(-69942.3 -1134.28 76.2639 -52618.8 812.873 -55350)
(-68744.8 890.066 -30.3905 -53914.5 849.961 -55910.6)
(-190304 45.8816 2.18379 48890.9 910.9 44475.5)
(-237873 2343.29 13.3564 41119.7 480.722 34288.9)
(-81756.3 228.226 71.5274 -59425.3 504.144 -64775.1)
(-80524.5 -493.146 -34.4351 -60725.1 535.629 -65427.5)
(-214969 -2457.09 -0.139533 42671.1 579.751 37775.1)
(-286083 7544.3 8.19377 -33309.2 177.883 21508.3)
(-113511 2596.9 63.4987 -120959 204.257 -80891.5)
(-112252 -3024.56 -40.5248 -121615 225.832 -81483.6)
(-262457 -7810.58 -0.372077 -30235.3 248.779 25187.6)
(-264598 11091.9 -0.78745 -281681 78.8616 110250)
(-37004.7 4877.95 52.304 -319406 87.1295 22181.9)
(-35401.9 -5043.85 -57.3066 -314768 94.2189 22159.6)
(-240458 -11330.5 -3.36058 -264807 103.547 114949)
)
;

boundaryField
{
    interface
    {
        type            calculated;
        value           nonuniform List<symmTensor> 
192
(
(-49.6756 0.339436 3.17349 876367 18893.1 281736)
(-51.5831 0.188897 4.97166 615892 -514.798 240803)
(-52.8451 -0.150366 5.44722 628736 -2407.36 247314)
(-53.6192 -0.559619 5.50275 658760 -1079.98 256986)
(-53.7119 -0.90684 5.37555 688171 751.399 268110)
(-54.478 -1.55185 5.18048 714250 3629.02 283101)
(-52.7523 -2.02326 4.72611 674233 8788.66 298947)
(-56.1697 -4.39705 4.36099 316118 12517.7 316221)
(-48.3038 0.232396 1.58499 686666 -10380.7 542777)
(-49.2367 0.0936707 2.66052 549483 -2438.86 482292)
(-49.9778 -0.218382 2.88618 550736 -1765.7 488021)
(-50.5103 -0.645055 2.85977 566889 -1275.13 504927)
(-50.4072 -1.02 2.72797 590762 1015.08 527937)
(-51.1201 -1.73928 2.5573 621145 4552.01 560833)
(-49.1505 -2.26511 2.2636 603798 7600.22 603052)
(-52.7813 -4.77283 2.02097 299165 8886.44 674296)
(-51.0529 0.196687 1.25981 583615 2993.59 528031)
(-51.8858 0.0495916 2.09479 490560 5169.03 497056)
(-52.6258 -0.266245 2.26654 499931 3767.61 499437)
(-53.1635 -0.726525 2.24205 516649 2663.88 513345)
(-52.9568 -1.14613 2.13584 540618 3463.36 535777)
(-53.5689 -1.95166 1.99723 573521 5144.13 570126)
(-51.1242 -2.55991 1.7777 562802 5265.39 619920)
(-54.5393 -5.24786 1.58511 283788 4031.61 714814)
(-51.2173 0.145052 0.784191 528730 7051.58 488354)
(-51.8554 -0.020619 1.37087 446393 8350.29 468717)
(-52.4361 -0.339408 1.48457 460496 7041.28 470805)
(-52.8831 -0.813604 1.45561 480848 5402.1 481442)
(-52.5752 -1.25524 1.37057 506983 4689.12 501586)
(-53.1261 -2.10041 1.26518 540719 4330.4 535854)
(-50.5222 -2.74602 1.12115 531283 2884.35 589299)
(-53.9092 -5.48649 0.998261 269363 1741.33 690860)
(-52.0294 0.121409 0.578092 498444 6822.28 461776)
(-52.6069 -0.0624827 1.00985 419492 7873.09 445647)
(-53.1178 -0.3923 1.09422 434911 7296.76 448730)
(-53.5216 -0.882181 1.07281 457436 5941.68 458212)
(-53.1403 -1.34586 1.00998 485259 4623.04 477156)
(-53.6188 -2.22487 0.931114 519335 3294.42 511450)
(-50.8343 -2.90516 0.828344 510458 1537.88 566112)
(-54.0969 -5.69543 0.737858 259465 833.838 667956)
(-52.2228 0.102422 0.35779 481021 5327.54 445905)
(-52.747 -0.0960539 0.642556 403840 5985.3 430848)
(-53.1955 -0.434509 0.698437 419442 5807.12 434857)
(-53.5588 -0.933828 0.682738 442720 4913.67 444418)
(-53.1279 -1.41026 0.639852 471309 3702.96 463112)
(-53.5663 -2.30723 0.586818 505568 2345.25 497378)
(-50.698 -3.00605 0.522042 497223 905.874 551975)
(-53.9193 -5.82264 0.466012 253194 452.287 652718)
(-52.4879 0.0935717 0.211146 471269 3342.59 436975)
(-52.9926 -0.114954 0.378232 395125 3669 422279)
(-53.4084 -0.460993 0.411365 410684 3617.42 426857)
(-53.7492 -0.967659 0.40228 434096 3123.96 436795)
(-53.2854 -1.45363 0.377366 462909 2340.95 455607)
(-53.6911 -2.36306 0.345904 497254 1425.54 489813)
(-50.7556 -3.0751 0.308754 489319 525.687 544010)
(-53.9309 -5.91075 0.275077 249464 243.281 643760)
(-52.5469 0.0877431 0.0631741 466858 1135.83 432938)
(-53.0377 -0.125711 0.116844 391195 1231.57 418369)
(-53.4351 -0.474864 0.127574 406710 1218.72 423206)
(-53.7637 -0.98424 0.124396 430106 1061.16 433393)
(-53.2866 -1.47424 0.116288 458953 795.887 452331)
(-53.6778 -2.38849 0.106031 493326 480.722 486496)
(-50.7224 -3.10663 0.094723 485602 177.883 540419)
(-53.8747 -5.95043 0.0840087 247711 78.8616 639642)
(333348 17851.7 -4.6195 909495 -0.950045 -19.8405)
(287542 -1642.49 -7.55606 647215 -0.995297 -15.141)
(293911 -3254.48 -8.41848 660256 -0.721989 -11.804)
(306391 -1672.29 -8.61721 691258 -0.496639 -10.8893)
(319893 -103.75 -8.61701 721494 -0.413178 -11.1605)
(335237 2269.31 -8.62162 747921 -0.46359 -12.3362)
(350781 7338.23 -8.6358 708591 -0.571447 -14.668)
(371057 10806.7 -9.27094 352512 -0.787779 -16.7398)
(611537 -9320.52 -2.98013 780834 -0.53438 -25.2425)
(531652 -4268.61 -5.43443 617119 -0.663534 -24.1796)
(535678 -2813.25 -6.07766 608974 -0.461114 -23.1885)
(557761 -1773.39 -6.18593 620963 -0.232994 -22.9917)
(584840 -794.982 -6.18543 643094 -0.0982257 -23.136)
(617160 556.989 -6.24465 672240 -0.0359975 -23.6026)
(654027 2848.58 -6.42953 654168 -0.047495 -24.3734)
(722283 4879.51 -7.30631 342188 -0.131368 -24.9364)
(605087 11693 -3.12532 771372 -0.348492 -22.1523)
(525293 6333.82 -5.70506 607905 -0.453035 -21.3446)
(528962 4422.28 -6.41955 599619 -0.290797 -20.4539)
(550849 2965.11 -6.54821 611563 -0.0625001 -20.2444)
(577831 1637.14 -6.5316 633641 0.103811 -20.4071)
(610030 -61.672 -6.54088 662705 0.241181 -20.8462)
(646675 -2830.17 -6.63993 645051 0.325562 -21.6913)
(715192 -4927.78 -7.43883 338141 0.335251 -22.6312)
(328931 -16319.9 -3.64877 881303 -0.263838 -22.7499)
(283970 2558.75 -6.6979 622627 -0.330503 -22.256)
(289820 3917.48 -7.58945 635279 -0.173818 -21.5436)
(302073 2173.92 -7.76523 666063 0.0623535 -21.4246)
(315493 461.514 -7.73601 696141 0.239096 -21.6032)
(330621 -2090.54 -7.73192 722326 0.415852 -21.9094)
(345471 -7429.85 -7.73025 683788 0.555485 -22.4849)
(365924 -10974.7 -8.52982 341393 0.704862 -23.1495)
(-10.4354 0.933744 1.36043 838502 20034.7 262020)
(-6.54297 0.858193 2.43016 580733 320.805 220061)
(-3.90261 0.307746 2.69249 593345 -1828.49 226163)
(-2.86555 -0.270629 2.74769 623071 -648.078 235437)
(-2.88844 -0.577691 2.74302 652194 1104.78 246244)
(-1.87458 -1.03893 2.87886 678143 3945.36 261171)
(-3.31419 -1.02438 2.91541 639769 9082.01 277656)
(5.74676 -3.32526 3.38693 295903 12750.3 295973)
(-16.8822 0.353004 -0.0391357 647411 -7922.36 510855)
(-16.0618 0.295555 0.288818 513050 -727.933 449692)
(-15.3716 -0.0165328 0.291409 514393 -479.84 454351)
(-14.8631 -0.388806 0.275402 530167 -247.942 470297)
(-14.8575 -0.53705 0.303676 553451 1875 492445)
(-13.2509 -0.878499 0.491089 583290 5284.62 524604)
(-13.6813 -0.614825 0.695696 567244 8165.76 566755)
(-3.25129 -2.86458 1.12117 277721 9156.73 639865)
(-17.003 0.185912 0.186544 545987 4899.89 496458)
(-16.3814 0.0918749 0.59876 454792 6811.3 464432)
(-15.798 -0.126479 0.698343 464046 5157.85 465601)
(-15.1736 -0.41756 0.726335 480307 3854.52 478378)
(-15.0373 -0.484587 0.759281 503566 4490.2 499712)
(-13.0078 -0.773529 0.886389 535707 6009.75 532999)
(-13.1259 -0.402756 0.994821 525939 5901.88 582344)
(-1.62512 -2.82572 1.18905 261457 4279.89 678814)
(-18.7481 0.0827928 0.0710436 492892 8441 458011)
(-18.417 -0.0377093 0.406441 411832 9667.49 437336)
(-18.0912 -0.19855 0.500164 425535 8247.54 438195)
(-17.4671 -0.422552 0.527818 445286 6492.8 447629)
(-17.2299 -0.414176 0.554047 470605 5655.14 466544)
(-14.8282 -0.647891 0.64427 503431 5143.16 499566)
(-14.5466 -0.196451 0.714992 494671 3466.62 552310)
(-2.30496 -2.69017 0.828038 246783 1949.58 655088)
(-18.981 0.0657544 0.147031 463960 7805.75 432329)
(-18.6545 -0.0673395 0.442629 385922 8843.78 415228)
(-18.3303 -0.212845 0.537801 400723 8227.92 417098)
(-17.6326 -0.416328 0.567256 422503 6816.37 425346)
(-17.3172 -0.376958 0.584047 449405 5415.08 442989)
(-14.7127 -0.592698 0.633325 482456 3963.91 475932)
(-14.2841 -0.112411 0.657088 474074 2013.56 529731)
(-1.62688 -2.69155 0.694659 236809 999.843 632522)
(-19.4822 0.0585133 0.0940905 447442 5980.23 417022)
(-19.1725 -0.0796893 0.3011 370944 6642.42 401050)
(-18.8583 -0.21724 0.371438 385782 6454.81 403866)
(-18.1152 -0.40857 0.393278 408203 5537.56 412181)
(-17.7384 -0.347839 0.404659 435781 4277.61 429535)
(-14.9755 -0.550374 0.435061 468928 2834.69 462385)
(-14.4109 -0.0506022 0.447244 460957 1254.09 516012)
(-1.44895 -2.68026 0.465899 230471 573.352 617521)
(-19.5908 0.0601652 0.0733129 438239 3714.73 408422)
(-19.27 -0.0800565 0.200511 362643 4047.64 392851)
(-18.9415 -0.215614 0.244382 377349 3996.45 396255)
(-18.1625 -0.403532 0.257838 399833 3494.68 404942)
(-17.749 -0.333846 0.264021 427574 2686.39 422394)
(-14.9013 -0.532034 0.278488 460749 1721.79 455146)
(-14.2769 -0.0246259 0.281918 453114 737.247 508310)
(-1.13855 -2.69064 0.285749 226695 316.896 608716)
(-19.7111 0.0596831 0.0187841 434085 1256.67 404536)
(-19.3906 -0.0810124 0.0595723 358910 1355.11 389114)
(-19.0575 -0.214925 0.0740113 373530 1343.27 392787)
(-18.2622 -0.400507 0.0784263 395963 1183.88 401723)
(-17.8273 -0.326134 0.0807732 423707 910.9 419292)
(-14.9363 -0.521261 0.0856695 456881 579.751 451985)
(-14.27 -0.0101761 0.0877112 449421 248.779 504844)
(-1.04992 -2.69239 0.0890898 224916 103.547 604672)
(371337 9.32226 -10737.7 -16.3923 -0.7093 352895)
(351007 8.70625 -7205.76 -14.1311 -0.490842 708799)
(335611 8.72292 -2203.66 -11.4175 -0.348277 748513)
(321259 8.76528 -284.701 -9.66511 -0.226238 724321)
(310628 8.85736 111.892 -8.32076 -0.168922 701076)
(303479 8.91406 82.3424 -7.37312 -0.104609 685470)
(299174 8.96105 18.782 -6.77407 -0.0647445 676256)
(297169 8.98164 -0.78745 -6.48462 -0.0193109 672016)
(722564 7.33884 -4792.63 -24.6457 -0.0385685 342681)
(654398 6.46528 -2613.45 -23.9737 0.0477881 654837)
(618144 6.28461 -328.489 -22.9586 0.0973162 673576)
(588137 6.22585 651.782 -22.1926 0.101813 645529)
(566598 6.23153 669.825 -21.551 0.0829661 624218)
(552238 6.23223 409.527 -21.0785 0.0638529 610659)
(543600 6.24225 189.526 -20.7706 0.0374842 602570)
(539577 6.24554 52.304 -20.6082 0.0138801 598764)
(715436 7.46949 4975.48 -22.35 0.436772 338607)
(646987 6.66645 2974.87 -21.2951 0.43034 645774)
(610892 6.56771 435.472 -20.2056 0.384107 664172)
(580936 6.56239 -639.576 -19.4625 0.307762 636309)
(559387 6.59939 -687.918 -18.8064 0.237766 615154)
(545011 6.61887 -431.331 -18.3658 0.165914 601699)
(536362 6.63927 -204.304 -18.0619 0.0981213 593672)
(532334 6.64669 -57.3066 -17.9215 0.0324434 589896)
(366050 8.54183 10981.1 -22.8937 0.807938 341589)
(345580 7.73625 7450.01 -22.1336 0.661991 684010)
(330894 7.73633 2268.17 -21.3701 0.555239 723167)
(316772 7.75075 275.858 -20.8528 0.430289 699506)
(306194 7.82065 -136.192 -20.3325 0.332522 676680)
(299078 7.8561 -103.022 -20.0137 0.22848 661373)
(294796 7.89015 -31.37 -19.7742 0.136956 652355)
(292805 7.90353 -3.36058 -19.6652 0.044703 648212)
)
;
    }
    symmetry
    {
        type            symmetry;
    }
    bottom
    {
        type            calculated;
        value           nonuniform List<symmTensor> 
32
(
(-748068 59780.7 -6966.72 37755.2 57091.5 -766552)
(-504568 42422.1 -5042.54 22194.7 -17610 -221605)
(-429899 31432 -2108.13 -1651.41 -2841.47 -133691)
(-395340 26576.3 -722.984 -8461.13 4205.56 -120694)
(-376363 24617.2 -256.757 -10872.1 5489.11 -117250)
(-365372 23756.7 -121.224 -12106.8 4694.67 -115460)
(-359120 23327.6 -66.7135 -12686.2 3057.23 -114322)
(-356247 23136 -22.4181 -12895.8 1053.86 -113745)
(-232108 -9804.22 -2757.96 49901.7 52147.2 -554130)
(-77210.5 -11969.7 -1175.78 20319.6 -7428.14 -82717.6)
(-50521.2 -14430.9 -65.3902 -2704.62 6348.48 -20917.4)
(-44578 -15129.2 376.389 -8369.91 9596.78 -18022.7)
(-42839.9 -14998.3 367.316 -10572.9 8236.02 -18853.7)
(-42454.1 -14742.6 234.072 -12230.7 6037.27 -19533.1)
(-42384.8 -14571.2 117.733 -13300.6 3678.25 -19956.8)
(-42363.1 -14495.2 34.9441 -13793.8 1236.73 -20157)
(-229188 11445.5 2739.03 49446.6 52398.9 -548309)
(-76750.3 12368.3 1468.33 17377.1 -6496.59 -83380.5)
(-50097.8 14113 332.225 -5425.5 7054.42 -21880.3)
(-44149.1 14449.6 -136.163 -10786.1 10101.7 -18831.3)
(-42429.1 14136.6 -174.234 -12758.1 8592.93 -19545.6)
(-42055.8 13787.6 -95.7106 -14249.6 6275.84 -20149.3)
(-41992.4 13570.3 -34.9987 -15212 3815.26 -20526.3)
(-41972.9 13475.8 -7.44349 -15652.7 1281.4 -20703.9)
(-720013 -58115.2 7058.82 38884 58290.9 -744122)
(-482122 -41158.6 5224.13 17697.1 -14738 -216385)
(-407578 -30527.7 2202.1 -4476.17 -686.352 -128666)
(-373209 -25953.2 786.391 -9787.7 5751.81 -115057)
(-354415 -24174.6 307.776 -11117.3 6576.06 -111198)
(-343521 -23420.4 159.757 -11596.5 5413.69 -109125)
(-337314 -23049.7 90.6074 -11699.6 3466.55 -107807)
(-334456 -22883.9 30.4764 -11679.6 1186.69 -107143)
)
;
    }
}


// ************************************************************************* //
