/*--------------------------------*- C++ -*----------------------------------*\
| =========                 |                                                 |
| \\      /  F ield         | OpenFOAM: The Open Source CFD Toolbox           |
|  \\    /   O peration     | Version:  v1912                                 |
|   \\  /    A nd           | Website:  www.openfoam.com                      |
|    \\/     M anipulation  |                                                 |
\*---------------------------------------------------------------------------*/
FoamFile
{
    version     2.0;
    format      ascii;
    class       volVectorField;
    location    "0.44/solid";
    object      U;
}
// * * * * * * * * * * * * * * * * * * * * * * * * * * * * * * * * * * * * * //

dimensions      [0 1 -1 0 0 0 0];


internalField   nonuniform List<vector> 
256
(
(3.63725e-08 3.507e-08 4.0712e-08)
(7.4805e-09 1.93944e-08 3.54899e-08)
(-8.4878e-09 1.89564e-08 3.50156e-08)
(-3.57688e-08 3.33255e-08 3.91809e-08)
(6.21222e-08 2.38176e-08 8.77282e-08)
(1.5087e-08 1.24111e-08 8.05691e-08)
(-1.70095e-08 1.21834e-08 7.96707e-08)
(-6.18901e-08 2.32252e-08 8.48812e-08)
(6.54805e-08 -1.94646e-09 1.19242e-07)
(1.60231e-08 -6.52636e-09 1.11616e-07)
(-1.89972e-08 -6.38871e-09 1.10498e-07)
(-6.62947e-08 -1.31854e-09 1.15721e-07)
(6.31631e-08 -2.87993e-08 1.46457e-07)
(1.43459e-08 -3.14399e-08 1.37789e-07)
(-1.88176e-08 -3.09416e-08 1.36518e-07)
(-6.5461e-08 -2.71238e-08 1.42469e-07)
(6.28163e-08 -5.73695e-08 1.74258e-07)
(1.32437e-08 -6.19918e-08 1.64025e-07)
(-1.96731e-08 -6.11638e-08 1.62627e-07)
(-6.70398e-08 -5.47521e-08 1.69882e-07)
(7.0231e-08 -9.15116e-08 2.05873e-07)
(1.52286e-08 -9.91394e-08 1.93965e-07)
(-2.40841e-08 -9.8002e-08 1.92445e-07)
(-7.68438e-08 -8.80052e-08 2.01138e-07)
(9.17323e-08 -1.42871e-07 2.43482e-07)
(2.20266e-08 -1.47816e-07 2.31046e-07)
(-3.38624e-08 -1.46356e-07 2.29388e-07)
(-1.01183e-07 -1.38422e-07 2.38363e-07)
(1.22645e-07 -2.28751e-07 2.79182e-07)
(2.9548e-08 -2.18274e-07 2.6899e-07)
(-4.51133e-08 -2.16247e-07 2.67173e-07)
(-1.35353e-07 -2.22561e-07 2.73655e-07)
(1.94593e-08 1.06799e-08 1.40663e-08)
(3.68148e-09 -6.02389e-10 1.69078e-08)
(-4.07662e-09 -7.59746e-10 1.67132e-08)
(-1.85391e-08 9.62137e-09 1.34754e-08)
(3.43324e-08 -3.97285e-09 4.60599e-08)
(7.99883e-09 -1.24547e-08 5.15589e-08)
(-8.57352e-09 -1.24788e-08 5.1036e-08)
(-3.32157e-08 -4.13757e-09 4.45226e-08)
(3.56238e-08 -2.61618e-08 7.52673e-08)
(8.28496e-09 -2.96346e-08 8.15565e-08)
(-9.42976e-09 -2.93925e-08 8.08255e-08)
(-3.51198e-08 -2.53562e-08 7.31155e-08)
(3.29095e-08 -5.07229e-08 1.01627e-07)
(6.68758e-09 -5.29164e-08 1.07807e-07)
(-8.97218e-09 -5.23678e-08 1.06935e-07)
(-3.35518e-08 -4.89936e-08 9.90398e-08)
(3.19545e-08 -7.76985e-08 1.27622e-07)
(5.62215e-09 -8.20501e-08 1.33357e-07)
(-9.57664e-09 -8.11991e-08 1.32366e-07)
(-3.42388e-08 -7.50875e-08 1.24666e-07)
(3.84589e-08 -1.08194e-07 1.54737e-07)
(7.5097e-09 -1.1575e-07 1.60013e-07)
(-1.36431e-08 -1.14609e-07 1.58908e-07)
(-4.28756e-08 -1.04738e-07 1.51427e-07)
(5.94646e-08 -1.48272e-07 1.80452e-07)
(1.42237e-08 -1.53049e-07 1.85582e-07)
(-2.31106e-08 -1.51623e-07 1.84368e-07)
(-6.64673e-08 -1.43957e-07 1.76808e-07)
(9.14393e-08 -2.11207e-07 1.93292e-07)
(2.17314e-08 -1.98488e-07 1.98582e-07)
(-3.41326e-08 -1.96592e-07 1.97311e-07)
(-1.01436e-07 -2.05357e-07 1.89461e-07)
(8.21289e-09 2.10066e-09 7.11968e-09)
(4.06139e-10 -5.6463e-09 1.11762e-08)
(-5.60117e-10 -5.76446e-09 1.10391e-08)
(-7.12785e-09 1.07333e-09 6.72795e-09)
(1.46977e-08 -1.76303e-08 3.00777e-08)
(1.55457e-09 -2.34773e-08 3.75114e-08)
(-1.44433e-09 -2.34691e-08 3.71382e-08)
(-1.30242e-08 -1.78175e-08 2.90223e-08)
(1.43448e-08 -4.0554e-08 5.53694e-08)
(1.14414e-09 -4.30501e-08 6.37422e-08)
(-1.20941e-09 -4.28075e-08 6.31951e-08)
(-1.29114e-08 -3.98464e-08 5.38055e-08)
(1.16745e-08 -6.36295e-08 7.98512e-08)
(-3.59201e-10 -6.56489e-08 8.82812e-08)
(-5.08885e-10 -6.51283e-08 8.76039e-08)
(-1.10631e-08 -6.20574e-08 7.78887e-08)
(1.07663e-08 -8.71288e-08 1.03214e-07)
(-1.33279e-09 -9.15312e-08 1.11471e-07)
(-9.20677e-10 -9.07279e-08 1.10683e-07)
(-1.15153e-08 -8.47145e-08 1.00907e-07)
(1.7161e-08 -1.11137e-07 1.24637e-07)
(5.15759e-10 -1.1877e-07 1.32728e-07)
(-4.70526e-09 -1.17694e-07 1.3184e-07)
(-1.97899e-08 -1.07915e-07 1.22014e-07)
(3.79717e-08 -1.40778e-07 1.40071e-07)
(7.1169e-09 -1.45684e-07 1.48087e-07)
(-1.38492e-08 -1.44346e-07 1.47118e-07)
(-4.29521e-08 -1.36743e-07 1.37185e-07)
(6.94518e-08 -1.91782e-07 1.41914e-07)
(1.45208e-08 -1.79571e-07 1.49994e-07)
(-2.45787e-08 -1.77782e-07 1.49004e-07)
(-7.72055e-08 -1.86227e-07 1.38926e-07)
(3.81393e-09 -7.78534e-10 6.05855e-09)
(-8.63146e-10 -6.52706e-09 8.64409e-09)
(8.13562e-10 -6.65896e-09 8.54138e-09)
(-2.62177e-09 -1.88399e-09 5.77236e-09)
(6.68264e-09 -2.27592e-08 2.39436e-08)
(-1.14813e-09 -2.70991e-08 2.86509e-08)
(1.62311e-09 -2.71279e-08 2.83797e-08)
(-4.64865e-09 -2.311e-08 2.31885e-08)
(5.70163e-09 -4.66503e-08 4.45102e-08)
(-1.83923e-09 -4.86268e-08 4.97554e-08)
(2.42759e-09 -4.84359e-08 4.93519e-08)
(-3.62877e-09 -4.61472e-08 4.33701e-08)
(3.44589e-09 -6.86989e-08 6.51639e-08)
(-3.13297e-09 -7.07319e-08 7.03595e-08)
(3.19966e-09 -7.02751e-08 6.9848e-08)
(-1.92128e-09 -6.73577e-08 6.3695e-08)
(3.09032e-09 -8.9004e-08 8.43269e-08)
(-3.85281e-09 -9.35606e-08 8.93226e-08)
(2.78838e-09 -9.28311e-08 8.87169e-08)
(-2.67384e-09 -8.68395e-08 8.25644e-08)
(9.86012e-09 -1.07997e-07 1.00079e-07)
(-1.87761e-09 -1.1577e-07 1.04905e-07)
(-9.00691e-10 -1.14776e-07 1.04217e-07)
(-1.1096e-08 -1.05041e-07 9.80543e-08)
(3.04847e-08 -1.3204e-07 1.09128e-07)
(4.6218e-09 -1.37344e-07 1.13909e-07)
(-9.75261e-09 -1.36092e-07 1.1316e-07)
(-3.38673e-08 -1.28272e-07 1.06899e-07)
(6.09986e-08 -1.78604e-07 1.07942e-07)
(1.1854e-08 -1.67966e-07 1.12973e-07)
(-2.01482e-08 -1.66255e-07 1.12213e-07)
(-6.69719e-08 -1.73276e-07 1.05643e-07)
(2.6024e-09 -1.7609e-09 5.33874e-09)
(-1.04863e-09 -6.61871e-09 6.59882e-09)
(1.05402e-09 -6.76633e-09 6.52499e-09)
(-1.34114e-09 -2.93265e-09 5.13569e-09)
(4.60879e-09 -2.40506e-08 1.92339e-08)
(-1.604e-09 -2.77744e-08 2.14443e-08)
(2.29403e-09 -2.78483e-08 2.1252e-08)
(-2.34495e-09 -2.456e-08 1.87042e-08)
(3.71934e-09 -4.79397e-08 3.49587e-08)
(-2.24086e-09 -4.9783e-08 3.7326e-08)
(3.24437e-09 -4.96522e-08 3.70385e-08)
(-1.22297e-09 -4.76394e-08 3.41537e-08)
(1.98205e-09 -6.90386e-08 5.08264e-08)
(-3.28577e-09 -7.12011e-08 5.30535e-08)
(3.98152e-09 -7.0812e-08 5.26842e-08)
(1.74882e-10 -6.79202e-08 4.97735e-08)
(2.22187e-09 -8.72229e-08 6.51862e-08)
(-3.73483e-09 -9.19547e-08 6.72053e-08)
(3.50571e-09 -9.12973e-08 6.67625e-08)
(-9.68633e-10 -8.52899e-08 6.39048e-08)
(9.36747e-09 -1.03514e-07 7.61612e-08)
(-1.60833e-09 -1.1142e-07 7.80285e-08)
(-1.48381e-10 -1.10501e-07 7.75217e-08)
(-9.57778e-09 -1.00789e-07 7.4676e-08)
(2.97656e-08 -1.25312e-07 8.16162e-08)
(4.80642e-09 -1.30975e-07 8.34776e-08)
(-8.75491e-09 -1.29793e-07 8.29255e-08)
(-3.19539e-08 -1.21762e-07 7.99758e-08)
(5.94554e-08 -1.70137e-07 8.01323e-08)
(1.18971e-08 -1.60832e-07 8.22627e-08)
(-1.88744e-08 -1.59181e-07 8.17032e-08)
(-6.40865e-08 -1.64989e-07 7.84411e-08)
(2.39627e-09 -2.05082e-09 4.17532e-09)
(-9.38196e-10 -6.55555e-09 4.72421e-09)
(9.74583e-10 -6.71441e-09 4.67478e-09)
(-1.09196e-09 -3.26767e-09 4.04021e-09)
(4.4806e-09 -2.38894e-08 1.41958e-08)
(-1.37248e-09 -2.74443e-08 1.50764e-08)
(2.19269e-09 -2.75532e-08 1.49483e-08)
(-2.07294e-09 -2.45154e-08 1.38455e-08)
(3.92504e-09 -4.72037e-08 2.52199e-08)
(-1.84264e-09 -4.91005e-08 2.60732e-08)
(3.10843e-09 -4.90188e-08 2.58813e-08)
(-1.15699e-09 -4.7061e-08 2.46863e-08)
(2.63602e-09 -6.74517e-08 3.62279e-08)
(-2.67402e-09 -6.97707e-08 3.69303e-08)
(3.78207e-09 -6.94371e-08 3.6682e-08)
(-6.08886e-11 -6.65098e-08 3.55241e-08)
(3.316e-09 -8.44512e-08 4.59902e-08)
(-2.9189e-09 -8.9329e-08 4.65283e-08)
(3.25408e-09 -8.87294e-08 4.62282e-08)
(-1.49404e-09 -8.27003e-08 4.51257e-08)
(1.07014e-08 -9.95912e-08 5.315e-08)
(-6.83865e-10 -1.07588e-07 5.35852e-08)
(-3.66685e-10 -1.06725e-07 5.32398e-08)
(-1.02002e-08 -9.7044e-08 5.2141e-08)
(3.08938e-08 -1.20667e-07 5.64545e-08)
(5.66895e-09 -1.2654e-07 5.69082e-08)
(-8.78686e-09 -1.25411e-07 5.65311e-08)
(-3.22418e-08 -1.17281e-07 5.53359e-08)
(5.9997e-08 -1.64656e-07 5.53274e-08)
(1.26638e-08 -1.5617e-07 5.5982e-08)
(-1.87066e-08 -1.54563e-07 5.56001e-08)
(-6.36754e-08 -1.59642e-07 5.41738e-08)
(2.4016e-09 -2.08848e-09 2.6441e-09)
(-8.28363e-10 -6.45638e-09 2.8677e-09)
(8.81433e-10 -6.62231e-09 2.8394e-09)
(-1.07225e-09 -3.33327e-09 2.567e-09)
(4.68836e-09 -2.33788e-08 8.7047e-09)
(-1.11886e-09 -2.69203e-08 9.02016e-09)
(2.01351e-09 -2.70517e-08 8.94693e-09)
(-2.19638e-09 -2.40786e-08 8.50534e-09)
(4.41805e-09 -4.60753e-08 1.52198e-08)
(-1.44855e-09 -4.80621e-08 1.5474e-08)
(2.86874e-09 -4.8013e-08 1.53641e-08)
(-1.48814e-09 -4.60358e-08 1.49155e-08)
(3.4323e-09 -6.56986e-08 2.16437e-08)
(-2.1358e-09 -6.81409e-08 2.17924e-08)
(3.49238e-09 -6.7845e-08 2.16496e-08)
(-6.03276e-10 -6.48749e-08 2.12406e-08)
(4.37842e-09 -8.2105e-08 2.72615e-08)
(-2.25496e-09 -8.70793e-08 2.73108e-08)
(2.93729e-09 -8.65189e-08 2.71374e-08)
(-2.20496e-09 -8.04767e-08 2.67636e-08)
(1.18894e-08 -9.68352e-08 3.12982e-08)
(4.27139e-11 -1.04878e-07 3.12928e-08)
(-6.51622e-10 -1.04054e-07 3.10924e-08)
(-1.09419e-08 -9.44073e-08 3.07143e-08)
(3.19354e-08 -1.17731e-07 3.31026e-08)
(6.35657e-09 -1.23699e-07 3.31183e-08)
(-8.94864e-09 -1.22605e-07 3.28991e-08)
(-3.27507e-08 -1.14454e-07 3.24533e-08)
(6.06658e-08 -1.61291e-07 3.24301e-08)
(1.32918e-08 -1.53225e-07 3.25634e-08)
(-1.87382e-08 -1.51648e-07 3.23415e-08)
(-6.37359e-08 -1.56367e-07 3.17604e-08)
(2.41874e-09 -2.06833e-09 9.03596e-10)
(-7.7516e-10 -6.387e-09 9.64545e-10)
(8.35471e-10 -6.55637e-09 9.55341e-10)
(-1.07783e-09 -3.32654e-09 8.78562e-10)
(4.816e-09 -2.3024e-08 2.93194e-09)
(-9.91984e-10 -2.65786e-08 3.00978e-09)
(1.92048e-09 -2.6721e-08 2.98597e-09)
(-2.28495e-09 -2.37594e-08 2.86725e-09)
(4.69114e-09 -4.53556e-08 5.08547e-09)
(-1.25022e-09 -4.73984e-08 5.13716e-09)
(2.74192e-09 -4.73653e-08 5.10139e-09)
(-1.68555e-09 -4.53666e-08 4.98664e-09)
(3.85259e-09 -6.4655e-08 7.19266e-09)
(-1.8675e-09 -6.71619e-08 7.20742e-09)
(3.34077e-09 -6.68847e-08 7.16086e-09)
(-9.03647e-10 -6.38898e-08 7.06147e-09)
(4.92076e-09 -8.08177e-08 9.02247e-09)
(-1.92826e-09 -8.58385e-08 9.00453e-09)
(2.77555e-09 -8.52978e-08 8.94787e-09)
(-2.57962e-09 -7.92505e-08 8.86e-09)
(1.24838e-08 -9.54286e-08 1.03265e-08)
(3.97338e-10 -1.03489e-07 1.02919e-08)
(-7.94291e-10 -1.02684e-07 1.02263e-08)
(-1.13216e-08 -9.30603e-08 1.01355e-08)
(3.24554e-08 -1.16297e-07 1.09028e-08)
(6.69267e-09 -1.22297e-07 1.08769e-08)
(-9.03044e-09 -1.2122e-07 1.0805e-08)
(-3.30127e-08 -1.13074e-07 1.06901e-08)
(6.1004e-08 -1.59674e-07 1.06807e-08)
(1.35987e-08 -1.51778e-07 1.06931e-08)
(-1.87552e-08 -1.50216e-07 1.06203e-08)
(-6.3778e-08 -1.54795e-07 1.04612e-08)
)
;

boundaryField
{
    interface
    {
        type            calculated;
        value           nonuniform List<vector> 
192
(
(3.75919e-08 5.96936e-08 3.59457e-08)
(6.17348e-08 3.10945e-08 7.96593e-08)
(6.52006e-08 -1.68637e-09 1.10562e-07)
(6.33056e-08 -2.94655e-08 1.37818e-07)
(6.29269e-08 -5.56027e-08 1.65677e-07)
(6.92367e-08 -8.42827e-08 1.97268e-07)
(8.86502e-08 -1.29768e-07 2.34799e-07)
(1.26556e-07 -2.20193e-07 2.70479e-07)
(1.32418e-08 2.41278e-08 7.02665e-09)
(2.69798e-08 6.81634e-11 3.4204e-08)
(2.7902e-08 -2.65176e-08 6.24836e-08)
(2.4968e-08 -5.16403e-08 8.87549e-08)
(2.34351e-08 -7.63113e-08 1.1461e-07)
(2.84258e-08 -1.01317e-07 1.41469e-07)
(4.72608e-08 -1.35027e-07 1.67011e-07)
(8.8428e-08 -2.02669e-07 1.79994e-07)
(1.15514e-09 7.82827e-09 3.20856e-09)
(7.88516e-09 -1.60975e-08 2.31655e-08)
(7.34023e-09 -4.13099e-08 4.78891e-08)
(4.47139e-09 -6.45243e-08 7.24855e-08)
(3.15765e-09 -8.57573e-08 9.59985e-08)
(8.51255e-09 -1.04335e-07 1.17487e-07)
(2.80127e-08 -1.27705e-07 1.32827e-07)
(6.86353e-08 -1.83324e-07 1.34304e-07)
(-3.51168e-09 1.84558e-09 4.65608e-09)
(2.14337e-10 -2.22874e-08 2.14215e-08)
(-8.06118e-10 -4.74596e-08 4.18539e-08)
(-3.16733e-09 -6.93519e-08 6.2741e-08)
(-3.76132e-09 -8.74006e-08 8.21909e-08)
(2.29162e-09 -1.01149e-07 9.81307e-08)
(2.21209e-08 -1.19255e-07 1.07077e-07)
(6.14635e-08 -1.70206e-07 1.05442e-07)
(-4.92383e-09 4.187e-11 4.98444e-09)
(-1.91724e-09 -2.37715e-08 1.86835e-08)
(-2.75638e-09 -4.85966e-08 3.45147e-08)
(-4.50488e-09 -6.94132e-08 5.0624e-08)
(-4.37301e-09 -8.53767e-08 6.52427e-08)
(2.24857e-09 -9.66281e-08 7.63716e-08)
(2.21118e-08 -1.1279e-07 8.17185e-08)
(6.02881e-08 -1.61792e-07 7.98819e-08)
(-5.18926e-09 -3.31635e-10 4.12519e-09)
(-2.08456e-09 -2.35073e-08 1.42157e-08)
(-2.53711e-09 -4.7665e-08 2.53947e-08)
(-3.76355e-09 -6.76041e-08 3.65905e-08)
(-3.09897e-09 -8.24351e-08 4.65294e-08)
(3.8754e-09 -9.26969e-08 5.37805e-08)
(2.36619e-08 -1.08343e-07 5.6997e-08)
(6.09776e-08 -1.5637e-07 5.563e-08)
(-5.1712e-09 -3.16021e-10 2.64977e-09)
(-1.86509e-09 -2.28748e-08 8.78861e-09)
(-2.00193e-09 -4.63895e-08 1.54113e-08)
(-2.87725e-09 -6.57087e-08 2.19479e-08)
(-1.88943e-09 -7.99909e-08 2.76627e-08)
(5.27203e-09 -8.99461e-08 3.17439e-08)
(2.49741e-08 -1.05537e-07 3.3493e-08)
(6.17381e-08 -1.5306e-07 3.26819e-08)
(-5.13262e-09 -2.59668e-10 9.07894e-10)
(-1.7181e-09 -2.2456e-08 2.96387e-09)
(-1.69531e-09 -4.55966e-08 5.15376e-09)
(-2.4004e-09 -6.45977e-08 7.29775e-09)
(-1.2638e-09 -7.86601e-08 9.15807e-09)
(5.97656e-09 -8.85451e-08 1.04752e-08)
(2.56294e-08 -1.04167e-07 1.10328e-08)
(6.21247e-08 -1.51475e-07 1.07652e-08)
(3.74494e-08 6.71801e-08 3.65231e-08)
(6.43659e-08 4.34503e-08 8.1275e-08)
(6.79133e-08 1.2736e-08 1.12906e-07)
(6.53149e-08 -1.50452e-08 1.40741e-07)
(6.45479e-08 -4.25154e-08 1.68627e-07)
(7.15561e-08 -7.42056e-08 1.98947e-07)
(9.29645e-08 -1.24544e-07 2.33824e-07)
(1.24448e-07 -2.19774e-07 2.75408e-07)
(6.05566e-09 4.84092e-08 2.59457e-08)
(1.30717e-08 3.14428e-08 6.78223e-08)
(1.3836e-08 7.77872e-09 9.78721e-08)
(1.18604e-08 -1.83376e-08 1.23683e-07)
(1.03351e-08 -4.79476e-08 1.49095e-07)
(1.18708e-08 -8.23839e-08 1.76808e-07)
(1.85026e-08 -1.2906e-07 2.10578e-07)
(2.65455e-08 -2.08924e-07 2.57385e-07)
(-7.56592e-09 4.7628e-08 2.47867e-08)
(-1.59327e-08 3.10541e-08 6.63794e-08)
(-1.7972e-08 7.82338e-09 9.61838e-08)
(-1.76485e-08 -1.79092e-08 1.21804e-07)
(-1.82096e-08 -4.7182e-08 1.47056e-07)
(-2.22918e-08 -8.13116e-08 1.74616e-07)
(-3.20338e-08 -1.27674e-07 2.08211e-07)
(-4.39476e-08 -2.06927e-07 2.54764e-07)
(-3.72539e-08 6.43411e-08 3.2819e-08)
(-6.49348e-08 4.23604e-08 7.65845e-08)
(-6.97517e-08 1.30786e-08 1.07438e-07)
(-6.87977e-08 -1.35833e-08 1.34698e-07)
(-7.00899e-08 -4.00849e-08 1.62114e-07)
(-7.96094e-08 -7.08849e-08 1.92005e-07)
(-1.03979e-07 -1.20292e-07 2.2645e-07)
(-1.38846e-07 -2.13665e-07 2.67512e-07)
(-3.14661e-08 5.77402e-08 3.41303e-08)
(-5.59457e-08 3.08569e-08 7.61893e-08)
(-6.03208e-08 -4.25519e-10 1.06198e-07)
(-5.97461e-08 -2.69373e-08 1.32822e-07)
(-6.11272e-08 -5.19061e-08 1.60156e-07)
(-6.96306e-08 -7.9469e-08 1.91262e-07)
(-9.15259e-08 -1.23794e-07 2.28286e-07)
(-1.31591e-07 -2.12223e-07 2.63428e-07)
(-7.56148e-09 2.25601e-08 6.31487e-09)
(-2.12216e-08 7.74356e-12 3.23055e-08)
(-2.26717e-08 -2.52719e-08 5.97691e-08)
(-2.07525e-08 -4.92136e-08 8.54397e-08)
(-2.07142e-08 -7.27562e-08 1.10784e-07)
(-2.76594e-08 -9.66802e-08 1.37163e-07)
(-4.87587e-08 -1.29316e-07 1.6225e-07)
(-9.17901e-08 -1.95161e-07 1.74923e-07)
(4.4326e-09 6.11137e-09 2.74826e-09)
(-1.84014e-09 -1.63715e-08 2.18799e-08)
(-1.4635e-09 -4.03365e-08 4.59322e-08)
(7.07938e-10 -6.24062e-08 6.99805e-08)
(8.14934e-10 -8.25325e-08 9.30156e-08)
(-6.22305e-09 -1.00055e-07 1.14068e-07)
(-2.77346e-08 -1.22389e-07 1.29034e-07)
(-7.0032e-08 -1.76216e-07 1.3031e-07)
(9.09251e-09 -6.63668e-11 4.32543e-09)
(6.06397e-09 -2.28581e-08 2.05182e-08)
(7.18566e-09 -4.68289e-08 4.04476e-08)
(9.12033e-09 -6.75961e-08 6.08851e-08)
(8.76808e-09 -8.45455e-08 7.99274e-08)
(1.27947e-09 -9.72416e-08 9.55009e-08)
(-2.03326e-08 -1.14303e-07 1.04149e-07)
(-6.11771e-08 -1.6341e-07 1.02363e-07)
(1.05166e-08 -2.01111e-09 4.75304e-09)
(8.35072e-09 -2.45894e-08 1.806e-08)
(9.47822e-09 -4.82692e-08 3.35355e-08)
(1.10086e-08 -6.79835e-08 4.93081e-08)
(1.0142e-08 -8.28513e-08 6.36096e-08)
(2.28795e-09 -9.30416e-08 7.44519e-08)
(-1.91723e-08 -1.08135e-07 7.95692e-08)
(-5.87054e-08 -1.55244e-07 7.76168e-08)
(1.07877e-08 -2.47643e-09 3.97286e-09)
(8.61888e-09 -2.44991e-08 1.38082e-08)
(9.48558e-09 -4.75639e-08 2.47524e-08)
(1.06416e-08 -6.64253e-08 3.57185e-08)
(9.39813e-09 -8.01651e-08 4.54346e-08)
(1.34322e-09 -8.93564e-08 5.24819e-08)
(-1.99013e-08 -1.03911e-07 5.5535e-08)
(-5.84635e-08 -1.50009e-07 5.40861e-08)
(1.07738e-08 -2.51609e-09 2.56339e-09)
(8.4614e-09 -2.39746e-08 8.55822e-09)
(9.08952e-09 -4.64339e-08 1.50475e-08)
(9.98786e-09 -6.46954e-08 2.14512e-08)
(8.52222e-09 -7.78915e-08 2.7035e-08)
(3.80244e-10 -8.67702e-08 3.09946e-08)
(-2.06879e-08 -1.01255e-07 3.2646e-08)
(-5.86243e-08 -1.46823e-07 3.1786e-08)
(1.07379e-08 -2.48583e-09 8.79932e-10)
(8.34418e-09 -2.36074e-08 2.88936e-09)
(8.84922e-09 -4.57117e-08 5.03596e-09)
(9.62232e-09 -6.3666e-08 7.13653e-09)
(8.05744e-09 -7.66456e-08 8.95364e-09)
(-1.14018e-10 -8.54514e-08 1.02304e-08)
(-2.10872e-08 -9.99596e-08 1.07556e-08)
(-5.87176e-08 -1.45301e-07 1.04717e-08)
(1.24305e-07 -2.25066e-07 2.79284e-07)
(9.25281e-08 -2.01687e-07 1.8405e-07)
(7.06276e-08 -1.85096e-07 1.33763e-07)
(6.25377e-08 -1.73438e-07 1.0253e-07)
(6.13012e-08 -1.65342e-07 7.66455e-08)
(6.20179e-08 -1.59939e-07 5.31159e-08)
(6.27646e-08 -1.56609e-07 3.11846e-08)
(6.31291e-08 -1.55014e-07 1.02764e-08)
(2.64217e-08 -2.06755e-07 2.68718e-07)
(1.8077e-08 -1.78159e-07 1.88906e-07)
(1.10204e-08 -1.62661e-07 1.42364e-07)
(8.76624e-09 -1.53475e-07 1.08289e-07)
(9.15729e-09 -1.47436e-07 7.93137e-08)
(1.01398e-08 -1.43305e-07 5.40802e-08)
(1.08802e-08 -1.4063e-07 3.14654e-08)
(1.12333e-08 -1.39302e-07 1.03313e-08)
(-4.40421e-08 -2.03906e-07 2.66919e-07)
(-3.2416e-08 -1.75529e-07 1.87695e-07)
(-2.29154e-08 -1.60158e-07 1.4142e-07)
(-1.88215e-08 -1.51061e-07 1.07562e-07)
(-1.78362e-08 -1.45087e-07 7.87803e-08)
(-1.78395e-08 -1.41001e-07 5.37168e-08)
(-1.79536e-08 -1.38355e-07 3.12547e-08)
(-1.80018e-08 -1.37041e-07 1.02623e-08)
(-1.38944e-07 -2.1646e-07 2.73802e-07)
(-1.04343e-07 -1.93504e-07 1.80377e-07)
(-8.01011e-08 -1.77211e-07 1.30906e-07)
(-7.01509e-08 -1.65787e-07 1.00333e-07)
(-6.7508e-08 -1.57867e-07 7.50325e-08)
(-6.72235e-08 -1.5259e-07 5.20184e-08)
(-6.73292e-08 -1.49342e-07 3.05486e-08)
(-6.73813e-08 -1.47788e-07 1.00682e-08)
)
;
    }
    symmetry
    {
        type            symmetry;
    }
    bottom
    {
        type            calculated;
        value           uniform (0 0 0);
    }
}


// ************************************************************************* //
