/*--------------------------------*- C++ -*----------------------------------*\
| =========                 |                                                 |
| \\      /  F ield         | OpenFOAM: The Open Source CFD Toolbox           |
|  \\    /   O peration     | Version:  v1912                                 |
|   \\  /    A nd           | Website:  www.openfoam.com                      |
|    \\/     M anipulation  |                                                 |
\*---------------------------------------------------------------------------*/
FoamFile
{
    version     2.0;
    format      ascii;
    class       volVectorField;
    location    "0.14/solid";
    object      D_0_0;
}
// * * * * * * * * * * * * * * * * * * * * * * * * * * * * * * * * * * * * * //

dimensions      [0 1 0 0 0 0 0];


internalField   nonuniform List<vector> 
256
(
(8.81225e-10 1.50335e-08 -4.91417e-10)
(-1.70536e-09 1.04133e-08 2.11191e-09)
(2.31316e-09 1.03568e-08 2.23666e-09)
(-4.94464e-10 1.47999e-08 -2.26729e-11)
(9.16753e-10 1.68605e-08 -6.43586e-09)
(-1.57679e-09 1.47243e-08 -3.21493e-09)
(3.41383e-09 1.44478e-08 -2.89257e-09)
(6.27061e-10 1.58715e-08 -5.35445e-09)
(1.58878e-09 2.08541e-08 -1.36268e-08)
(-8.61249e-10 1.98826e-08 -1.06446e-08)
(4.17683e-09 1.93732e-08 -1.01775e-08)
(1.42916e-09 1.91772e-08 -1.21147e-08)
(2.84064e-09 2.70505e-08 -2.11434e-08)
(9.6733e-11 2.66731e-08 -1.80283e-08)
(4.98703e-09 2.59452e-08 -1.74519e-08)
(1.94471e-09 2.47518e-08 -1.93028e-08)
(3.90045e-09 3.492e-08 -2.9072e-08)
(1.01784e-09 3.53381e-08 -2.54751e-08)
(6.1168e-09 3.44042e-08 -2.48103e-08)
(2.93824e-09 3.20387e-08 -2.69645e-08)
(3.12843e-09 4.47908e-08 -3.799e-08)
(1.18971e-09 4.60815e-08 -3.37653e-08)
(8.2728e-09 4.49452e-08 -3.3024e-08)
(6.03125e-09 4.13419e-08 -3.5655e-08)
(-1.82975e-09 5.77903e-08 -4.86237e-08)
(-5.66899e-11 5.8155e-08 -4.39497e-08)
(1.21295e-08 5.68244e-08 -4.31342e-08)
(1.35248e-08 5.37848e-08 -4.60822e-08)
(-1.0311e-08 6.38652e-08 -5.91602e-08)
(-1.3805e-09 5.88256e-08 -5.46847e-08)
(1.63257e-08 5.7392e-08 -5.37959e-08)
(2.46717e-08 5.9487e-08 -5.64373e-08)
(6.28567e-09 1.18056e-08 -4.78341e-09)
(-5.32769e-10 6.18571e-09 -5.46275e-09)
(8.5567e-10 6.09398e-09 -5.32751e-09)
(-6.01883e-09 1.15053e-08 -4.37871e-09)
(9.24336e-09 1.7998e-08 -1.13646e-08)
(4.53187e-10 1.52164e-08 -1.26634e-08)
(7.36806e-10 1.48871e-08 -1.23389e-08)
(-8.12365e-09 1.69269e-08 -1.04155e-08)
(1.00495e-08 2.42426e-08 -1.82531e-08)
(1.20992e-09 2.30821e-08 -1.9754e-08)
(1.18972e-09 2.25312e-08 -1.92975e-08)
(-7.72034e-09 2.25128e-08 -1.6917e-08)
(1.10595e-08 3.13855e-08 -2.56449e-08)
(2.01577e-09 3.09575e-08 -2.70702e-08)
(1.93476e-09 3.02021e-08 -2.65139e-08)
(-7.17624e-09 2.90612e-08 -2.40095e-08)
(1.2082e-08 3.94608e-08 -3.34906e-08)
(2.82967e-09 3.98241e-08 -3.47115e-08)
(2.99214e-09 3.88736e-08 -3.40729e-08)
(-6.3202e-09 3.65744e-08 -3.16059e-08)
(1.15353e-08 4.85121e-08 -4.18029e-08)
(2.98284e-09 4.97528e-08 -4.28141e-08)
(5.01616e-09 4.86102e-08 -4.21037e-08)
(-3.60101e-09 4.50791e-08 -3.97018e-08)
(6.98382e-09 5.8206e-08 -4.9611e-08)
(1.79059e-09 5.85356e-08 -5.05124e-08)
(8.69164e-09 5.72172e-08 -4.97425e-08)
(3.35185e-09 5.42548e-08 -4.73297e-08)
(-1.22624e-09 5.72151e-08 -5.30781e-08)
(5.38865e-10 5.19625e-08 -5.40055e-08)
(1.27131e-08 5.05861e-08 -5.32089e-08)
(1.40964e-08 5.29772e-08 -5.07084e-08)
(8.93737e-09 1.11172e-08 -3.13013e-09)
(4.93475e-10 5.06748e-09 -4.28128e-09)
(-3.20945e-10 4.98323e-09 -4.18198e-09)
(-8.79209e-09 1.08858e-08 -2.84691e-09)
(1.42758e-08 1.81235e-08 -9.1391e-09)
(2.34082e-09 1.48662e-08 -1.11023e-08)
(-1.571e-09 1.4551e-08 -1.08555e-08)
(-1.35181e-08 1.71507e-08 -8.43829e-09)
(1.54699e-08 2.52528e-08 -1.53911e-08)
(3.20671e-09 2.39232e-08 -1.75209e-08)
(-1.45995e-09 2.33921e-08 -1.71661e-08)
(-1.37265e-08 2.36314e-08 -1.43742e-08)
(1.62724e-08 3.2746e-08 -2.20382e-08)
(3.88491e-09 3.23446e-08 -2.41035e-08)
(-7.85774e-10 3.1614e-08 -2.36634e-08)
(-1.31694e-08 3.05348e-08 -2.07649e-08)
(1.71104e-08 4.03184e-08 -2.88971e-08)
(4.58969e-09 4.07529e-08 -3.08374e-08)
(2.12507e-10 3.98317e-08 -3.03251e-08)
(-1.22941e-08 3.75487e-08 -2.74043e-08)
(1.65351e-08 4.7665e-08 -3.53773e-08)
(4.71845e-09 4.89586e-08 -3.72113e-08)
(2.11851e-09 4.78513e-08 -3.6637e-08)
(-9.68747e-09 4.4357e-08 -3.36956e-08)
(1.21571e-08 5.4293e-08 -3.99487e-08)
(3.58867e-09 5.47151e-08 -4.17346e-08)
(5.61061e-09 5.34418e-08 -4.11154e-08)
(-3.03241e-09 5.04843e-08 -3.81231e-08)
(4.3703e-09 5.05193e-08 -4.00794e-08)
(2.40712e-09 4.56871e-08 -4.19188e-08)
(9.45797e-09 4.43654e-08 -4.12906e-08)
(7.17497e-09 4.64339e-08 -3.82069e-08)
(9.45434e-09 1.09789e-08 -2.4221e-09)
(8.05873e-10 4.81146e-09 -3.07451e-09)
(-7.08718e-10 4.74059e-09 -3.00577e-09)
(-9.40919e-09 1.08209e-08 -2.22738e-09)
(1.56271e-08 1.79596e-08 -7.59913e-09)
(2.9768e-09 1.45037e-08 -8.70346e-09)
(-2.46354e-09 1.42219e-08 -8.52762e-09)
(-1.5149e-08 1.7118e-08 -7.10144e-09)
(1.70817e-08 2.50555e-08 -1.29735e-08)
(3.89739e-09 2.36589e-08 -1.41525e-08)
(-2.58979e-09 2.31697e-08 -1.38939e-08)
(-1.57922e-08 2.35846e-08 -1.22339e-08)
(1.77627e-08 3.2254e-08 -1.8513e-08)
(4.48375e-09 3.19076e-08 -1.9627e-08)
(-1.9913e-09 3.12221e-08 -1.93001e-08)
(-1.52763e-08 3.01966e-08 -1.75673e-08)
(1.83721e-08 3.90072e-08 -2.39278e-08)
(5.07039e-09 3.95361e-08 -2.49355e-08)
(-1.0223e-09 3.86615e-08 -2.45491e-08)
(-1.43174e-08 3.63901e-08 -2.28007e-08)
(1.76268e-08 4.49582e-08 -2.84892e-08)
(5.12661e-09 4.63376e-08 -2.94013e-08)
(8.28703e-10 4.52786e-08 -2.89645e-08)
(-1.16675e-08 4.18024e-08 -2.72062e-08)
(1.32877e-08 5.00409e-08 -3.09801e-08)
(4.01103e-09 5.06301e-08 -3.18457e-08)
(4.19595e-09 4.94066e-08 -3.13747e-08)
(-5.16255e-09 4.63846e-08 -2.95835e-08)
(5.80191e-09 4.57318e-08 -3.01864e-08)
(2.86001e-09 4.14739e-08 -3.11292e-08)
(7.91437e-09 4.01994e-08 -3.06556e-08)
(4.64365e-09 4.17875e-08 -2.87616e-08)
(9.27451e-09 1.08129e-08 -1.95241e-09)
(7.8027e-10 4.68133e-09 -2.20832e-09)
(-7.2405e-10 4.62206e-09 -2.16177e-09)
(-9.29725e-09 1.07115e-08 -1.8217e-09)
(1.54315e-08 1.75668e-08 -6.13259e-09)
(2.92672e-09 1.4099e-08 -6.52236e-09)
(-2.57187e-09 1.38488e-08 -6.40113e-09)
(-1.51448e-08 1.68376e-08 -5.79126e-09)
(1.69071e-08 2.43076e-08 -1.0422e-08)
(3.81542e-09 2.29292e-08 -1.07985e-08)
(-2.79863e-09 2.24815e-08 -1.06172e-08)
(-1.5936e-08 2.29734e-08 -9.90541e-09)
(1.74923e-08 3.09713e-08 -1.46912e-08)
(4.32749e-09 3.06918e-08 -1.50006e-08)
(-2.2564e-09 3.00513e-08 -1.47679e-08)
(-1.54507e-08 2.90578e-08 -1.40193e-08)
(1.79217e-08 3.69829e-08 -1.86305e-08)
(4.81659e-09 3.75979e-08 -1.88528e-08)
(-1.31015e-09 3.67691e-08 -1.85742e-08)
(-1.44302e-08 3.4509e-08 -1.78182e-08)
(1.70214e-08 4.21136e-08 -2.16503e-08)
(4.79822e-09 4.35762e-08 -2.17939e-08)
(5.08193e-10 4.2563e-08 -2.14764e-08)
(-1.17317e-08 3.9098e-08 -2.07165e-08)
(1.26847e-08 4.66265e-08 -2.29904e-08)
(3.67195e-09 4.73676e-08 -2.30962e-08)
(3.79086e-09 4.61887e-08 -2.27532e-08)
(-5.32389e-09 4.31056e-08 -2.19694e-08)
(5.3667e-09 4.23366e-08 -2.21112e-08)
(2.52029e-09 3.85247e-08 -2.2281e-08)
(7.42325e-09 3.72912e-08 -2.19382e-08)
(4.22785e-09 3.85173e-08 -2.10729e-08)
(9.02224e-09 1.06236e-08 -1.46068e-09)
(6.9597e-10 4.56711e-09 -1.53669e-09)
(-6.62484e-10 4.51645e-09 -1.50675e-09)
(-9.08674e-09 1.05613e-08 -1.37765e-09)
(1.49555e-08 1.7087e-08 -4.51921e-09)
(2.72939e-09 1.36792e-08 -4.58881e-09)
(-2.47084e-09 1.3453e-08 -4.50995e-09)
(-1.47897e-08 1.64399e-08 -4.29902e-09)
(1.63374e-08 2.34358e-08 -7.60664e-09)
(3.5507e-09 2.2112e-08 -7.62624e-09)
(-2.71968e-09 2.16969e-08 -7.50699e-09)
(-1.55735e-08 2.22057e-08 -7.26885e-09)
(1.68315e-08 2.96106e-08 -1.05899e-08)
(4.00011e-09 2.93947e-08 -1.05499e-08)
(-2.20846e-09 2.87903e-08 -1.0395e-08)
(-1.5088e-08 2.78099e-08 -1.01448e-08)
(1.71415e-08 3.51037e-08 -1.32179e-08)
(4.42044e-09 3.57851e-08 -1.3115e-08)
(-1.28364e-09 3.49934e-08 -1.29277e-08)
(-1.40367e-08 3.27437e-08 -1.26735e-08)
(1.61419e-08 3.98196e-08 -1.51007e-08)
(4.34784e-09 4.1344e-08 -1.49441e-08)
(5.05945e-10 4.03676e-08 -1.47292e-08)
(-1.13211e-08 3.69157e-08 -1.44693e-08)
(1.18035e-08 4.41547e-08 -1.58124e-08)
(3.20605e-09 4.4997e-08 -1.56319e-08)
(3.72866e-09 4.38537e-08 -1.53992e-08)
(-4.98641e-09 4.07418e-08 -1.51189e-08)
(4.57546e-09 3.99396e-08 -1.51041e-08)
(2.04282e-09 3.63983e-08 -1.49657e-08)
(7.30274e-09 3.5198e-08 -1.47341e-08)
(4.40574e-09 3.62218e-08 -1.44003e-08)
(8.85412e-09 1.04713e-08 -9.07013e-10)
(6.37907e-10 4.47527e-09 -9.23201e-10)
(-6.16306e-10 4.43019e-09 -9.06482e-10)
(-8.94217e-09 1.04333e-08 -8.61146e-10)
(1.46112e-08 1.66805e-08 -2.76752e-09)
(2.584e-09 1.33338e-08 -2.75089e-09)
(-2.37987e-09 1.31233e-08 -2.70654e-09)
(-1.45149e-08 1.60859e-08 -2.6446e-09)
(1.58993e-08 2.27238e-08 -4.61781e-09)
(3.34859e-09 2.14517e-08 -4.55794e-09)
(-2.62666e-09 2.10583e-08 -4.49035e-09)
(-1.52581e-08 2.15621e-08 -4.42745e-09)
(1.6322e-08 2.85614e-08 -6.36899e-09)
(3.75256e-09 2.83934e-08 -6.26871e-09)
(-2.12976e-09 2.78134e-08 -6.18023e-09)
(-1.47592e-08 2.68364e-08 -6.1158e-09)
(1.656e-08 3.37487e-08 -7.86541e-09)
(4.12973e-09 3.44739e-08 -7.72773e-09)
(-1.22141e-09 3.37075e-08 -7.62003e-09)
(-1.36945e-08 3.14664e-08 -7.55318e-09)
(1.55062e-08 3.82686e-08 -8.89312e-09)
(4.02397e-09 3.9831e-08 -8.72564e-09)
(5.44981e-10 3.88799e-08 -8.60141e-09)
(-1.09805e-08 3.54415e-08 -8.52869e-09)
(1.11675e-08 4.25506e-08 -9.23953e-09)
(2.86994e-09 4.34479e-08 -9.0601e-09)
(3.7277e-09 4.23294e-08 -8.9253e-09)
(-4.69744e-09 3.92125e-08 -8.83784e-09)
(3.98868e-09 3.83872e-08 -8.79083e-09)
(1.69623e-09 3.49846e-08 -8.6342e-09)
(7.26324e-09 3.38075e-08 -8.50056e-09)
(4.59692e-09 3.47406e-08 -8.38378e-09)
(8.77708e-09 1.0389e-08 -3.07692e-10)
(6.12173e-10 4.42379e-09 -3.09595e-10)
(-5.95597e-10 4.38146e-09 -3.04225e-10)
(-8.87571e-09 1.03626e-08 -2.93046e-10)
(1.44503e-08 1.64536e-08 -9.31702e-10)
(2.51694e-09 1.31409e-08 -9.19307e-10)
(-2.33725e-09 1.29381e-08 -9.05009e-10)
(-1.43859e-08 1.58844e-08 -8.92236e-10)
(1.56885e-08 2.23334e-08 -1.54693e-09)
(3.2523e-09 2.10903e-08 -1.51845e-09)
(-2.58064e-09 2.07076e-08 -1.49657e-09)
(-1.51041e-08 2.12054e-08 -1.48551e-09)
(1.60731e-08 2.80038e-08 -2.12306e-09)
(3.63284e-09 2.7861e-08 -2.08043e-09)
(-2.08934e-09 2.72932e-08 -2.05168e-09)
(-1.45954e-08 2.63166e-08 -2.04097e-09)
(1.62771e-08 3.30524e-08 -2.6082e-09)
(3.98913e-09 3.37991e-08 -2.55321e-09)
(-1.18972e-09 3.30455e-08 -2.51808e-09)
(-1.35258e-08 3.08092e-08 -2.50653e-09)
(1.51995e-08 3.74936e-08 -2.93475e-09)
(3.86771e-09 3.90735e-08 -2.87032e-09)
(5.63832e-10 3.81352e-08 -2.8297e-09)
(-1.08162e-08 3.47054e-08 -2.81568e-09)
(1.08613e-08 4.176e-08 -3.03824e-09)
(2.70717e-09 4.26804e-08 -2.97031e-09)
(3.72629e-09 4.15745e-08 -2.92618e-09)
(-4.56018e-09 3.84602e-08 -2.90674e-09)
(3.70512e-09 3.7622e-08 -2.8852e-09)
(1.52791e-09 3.42754e-08 -2.82443e-09)
(7.24208e-09 3.31103e-08 -2.78076e-09)
(4.68643e-09 3.40121e-08 -2.75204e-09)
)
;

boundaryField
{
    interface
    {
        type            solidTraction;
        traction        uniform (0 0 0);
        pressure        uniform 0;
        secondOrder     false;
        setEffectiveTraction false;
        relaxationFactor 1;
        value           nonuniform List<vector> 
192
(
(6.51534e-08 1.54829e-08 8.73995e-10)
(6.34462e-08 1.70374e-08 -4.19992e-09)
(6.50299e-08 2.13351e-08 -1.13064e-08)
(6.75012e-08 2.76285e-08 -1.89257e-08)
(7.03958e-08 3.49921e-08 -2.6947e-08)
(7.28195e-08 4.33585e-08 -3.58944e-08)
(7.30391e-08 5.44308e-08 -4.64672e-08)
(6.47872e-08 6.18802e-08 -5.68801e-08)
(6.78559e-08 1.56878e-08 -2.76985e-09)
(6.9447e-08 1.8939e-08 -8.02548e-09)
(7.09846e-08 2.46967e-08 -1.47834e-08)
(7.32167e-08 3.18938e-08 -2.22875e-08)
(7.62248e-08 3.95799e-08 -3.01887e-08)
(7.92094e-08 4.72379e-08 -3.84517e-08)
(8.05481e-08 5.5016e-08 -4.61147e-08)
(7.36437e-08 5.53562e-08 -4.94081e-08)
(6.46515e-08 1.69205e-08 -2.33836e-09)
(6.89969e-08 1.97566e-08 -7.54366e-09)
(7.09224e-08 2.5752e-08 -1.36336e-08)
(7.28923e-08 3.31563e-08 -2.03629e-08)
(7.56361e-08 4.03844e-08 -2.7325e-08)
(7.84741e-08 4.6427e-08 -3.38548e-08)
(7.98467e-08 5.12523e-08 -3.83731e-08)
(7.40709e-08 4.87315e-08 -3.83227e-08)
(6.18553e-08 1.72493e-08 -2.33808e-09)
(6.71017e-08 1.98665e-08 -7.31055e-09)
(6.9309e-08 2.55895e-08 -1.26146e-08)
(7.11369e-08 3.25767e-08 -1.82084e-08)
(7.36019e-08 3.89735e-08 -2.37253e-08)
(7.61858e-08 4.36875e-08 -2.8368e-08)
(7.74823e-08 4.70852e-08 -3.08484e-08)
(7.2337e-08 4.39488e-08 -2.99375e-08)
(5.98941e-08 1.69894e-08 -2.06063e-09)
(6.51526e-08 1.9475e-08 -6.30074e-09)
(6.73875e-08 2.48229e-08 -1.06083e-08)
(6.91069e-08 3.12252e-08 -1.49242e-08)
(7.13618e-08 3.68655e-08 -1.89383e-08)
(7.3741e-08 4.08048e-08 -2.20218e-08)
(7.4969e-08 4.37133e-08 -2.33616e-08)
(7.01554e-08 4.05352e-08 -2.2418e-08)
(5.86414e-08 1.6618e-08 -1.56591e-09)
(6.36968e-08 1.89158e-08 -4.72446e-09)
(6.58372e-08 2.39049e-08 -7.85876e-09)
(6.74556e-08 2.98119e-08 -1.08827e-08)
(6.95721e-08 3.49316e-08 -1.35585e-08)
(7.18229e-08 3.84855e-08 -1.54796e-08)
(7.30067e-08 4.12637e-08 -1.61918e-08)
(6.83661e-08 3.81232e-08 -1.54487e-08)
(5.7924e-08 1.63376e-08 -9.68375e-10)
(6.28158e-08 1.84419e-08 -2.89392e-09)
(6.48601e-08 2.31517e-08 -4.78013e-09)
(6.63999e-08 2.87268e-08 -6.55869e-09)
(6.84332e-08 3.35451e-08 -8.0816e-09)
(7.06136e-08 3.6921e-08 -9.12879e-09)
(7.17733e-08 3.96718e-08 -9.47514e-09)
(6.7223e-08 3.65641e-08 -9.00847e-09)
(5.76016e-08 1.61958e-08 -3.26975e-10)
(6.24154e-08 1.81815e-08 -9.7194e-10)
(6.4408e-08 2.27393e-08 -1.59967e-09)
(6.59061e-08 2.81512e-08 -2.18531e-09)
(6.79001e-08 3.28343e-08 -2.67896e-09)
(7.00496e-08 3.61401e-08 -3.01145e-09)
(7.11991e-08 3.8887e-08 -3.11482e-09)
(6.66888e-08 3.57972e-08 -2.95611e-09)
(8.50822e-10 1.33017e-08 6.87996e-08)
(6.05898e-10 1.35767e-08 6.12232e-08)
(1.17604e-09 1.71772e-08 5.48932e-08)
(2.51246e-09 2.31892e-08 4.8496e-08)
(3.73904e-09 3.07084e-08 4.23087e-08)
(3.13864e-09 3.99029e-08 3.65724e-08)
(-1.73772e-09 5.24978e-08 3.12952e-08)
(-1.03305e-08 6.14614e-08 2.15512e-08)
(-1.02214e-09 1.01376e-08 7.03465e-08)
(-6.8937e-10 1.15352e-08 6.39538e-08)
(2.69289e-12 1.61793e-08 5.72913e-08)
(1.02121e-09 2.29654e-08 5.11021e-08)
(2.08484e-09 3.14038e-08 4.56521e-08)
(2.43277e-09 4.14628e-08 4.10155e-08)
(1.31719e-09 5.29251e-08 3.69849e-08)
(-3.78772e-11 5.63911e-08 2.76131e-08)
(1.78077e-09 1.01929e-08 7.00342e-08)
(2.8806e-09 1.13443e-08 6.37923e-08)
(3.81096e-09 1.57333e-08 5.72617e-08)
(4.67008e-09 2.2287e-08 5.11787e-08)
(5.7461e-09 3.05111e-08 4.58171e-08)
(7.80199e-09 4.03642e-08 4.12597e-08)
(1.1598e-08 5.16314e-08 3.73136e-08)
(1.58891e-08 5.49724e-08 2.80936e-08)
(-3.24355e-10 1.34556e-08 6.80634e-08)
(1.26812e-09 1.28485e-08 6.1005e-08)
(2.31161e-09 1.56901e-08 5.50846e-08)
(2.85115e-09 2.10394e-08 4.90111e-08)
(3.76643e-09 2.79506e-08 4.30906e-08)
(6.76272e-09 3.65624e-08 3.75839e-08)
(1.42406e-08 4.85891e-08 3.25194e-08)
(2.55567e-08 5.71202e-08 2.31023e-08)
(-6.47579e-08 1.47668e-08 1.44431e-09)
(-6.18522e-08 1.53906e-08 -2.84517e-09)
(-6.19381e-08 1.88477e-08 -9.38505e-09)
(-6.2613e-08 2.43745e-08 -1.65682e-08)
(-6.34272e-08 3.10169e-08 -2.42347e-08)
(-6.35315e-08 3.8695e-08 -3.28802e-08)
(-6.13475e-08 4.91243e-08 -4.31802e-08)
(-5.11111e-08 5.61183e-08 -5.33501e-08)
(-6.703e-08 1.50409e-08 -2.30395e-09)
(-6.77138e-08 1.73523e-08 -6.87873e-09)
(-6.80066e-08 2.22759e-08 -1.31276e-08)
(-6.86395e-08 2.8711e-08 -2.02305e-08)
(-6.97195e-08 3.56804e-08 -2.77974e-08)
(-7.05006e-08 4.26608e-08 -3.57717e-08)
(-6.9529e-08 4.98301e-08 -4.31901e-08)
(-6.07795e-08 4.97919e-08 -4.63338e-08)
(-6.39207e-08 1.64633e-08 -1.99897e-09)
(-6.75756e-08 1.83842e-08 -6.68149e-09)
(-6.84728e-08 2.35442e-08 -1.23557e-08)
(-6.90331e-08 3.01765e-08 -1.87394e-08)
(-7.00091e-08 3.6678e-08 -2.54046e-08)
(-7.0778e-08 4.20412e-08 -3.16785e-08)
(-6.99506e-08 4.62683e-08 -3.59941e-08)
(-6.24041e-08 4.33737e-08 -3.58434e-08)
(-6.12878e-08 1.69605e-08 -2.10086e-09)
(-6.60119e-08 1.87137e-08 -6.69444e-09)
(-6.73593e-08 2.36164e-08 -1.16812e-08)
(-6.79374e-08 2.98277e-08 -1.69966e-08)
(-6.87783e-08 3.54877e-08 -2.22663e-08)
(-6.94184e-08 3.95133e-08 -2.66948e-08)
(-6.86195e-08 4.23064e-08 -2.90104e-08)
(-6.17736e-08 3.87809e-08 -2.80246e-08)
(-5.94605e-08 1.6822e-08 -1.90214e-09)
(-6.43155e-08 1.84972e-08 -5.88086e-09)
(-6.58142e-08 2.30497e-08 -9.95984e-09)
(-6.64081e-08 2.86811e-08 -1.40662e-08)
(-6.71563e-08 3.3579e-08 -1.78882e-08)
(-6.76976e-08 3.68211e-08 -2.08029e-08)
(-6.69214e-08 3.91153e-08 -2.20132e-08)
(-6.04743e-08 3.55351e-08 -2.10132e-08)
(-5.83014e-08 1.65304e-08 -1.4663e-09)
(-6.30303e-08 1.80615e-08 -4.45632e-09)
(-6.45194e-08 2.22802e-08 -7.43816e-09)
(-6.51017e-08 2.74255e-08 -1.03175e-08)
(-6.57993e-08 3.18017e-08 -1.28572e-08)
(-6.62938e-08 3.46527e-08 -1.46569e-08)
(-6.5546e-08 3.68097e-08 -1.52753e-08)
(-5.93292e-08 3.32591e-08 -1.44925e-08)
(-5.76422e-08 1.62976e-08 -9.13832e-10)
(-6.22531e-08 1.76648e-08 -2.74545e-09)
(-6.36983e-08 2.16231e-08 -4.54469e-09)
(-6.42594e-08 2.64453e-08 -6.23885e-09)
(-6.49318e-08 3.05214e-08 -7.68081e-09)
(-6.54112e-08 3.31918e-08 -8.65481e-09)
(-6.46897e-08 3.53177e-08 -8.94432e-09)
(-5.86047e-08 3.17953e-08 -8.45388e-09)
(-5.73478e-08 1.6178e-08 -3.09637e-10)
(-6.19017e-08 1.74414e-08 -9.24474e-10)
(-6.33201e-08 2.12577e-08 -1.52397e-09)
(-6.38673e-08 2.59218e-08 -2.08188e-09)
(-6.45293e-08 2.98641e-08 -2.54868e-09)
(-6.50056e-08 3.24636e-08 -2.85672e-09)
(-6.42998e-08 3.45841e-08 -2.94103e-09)
(-5.82766e-08 3.10776e-08 -2.7744e-09)
(-1.00419e-08 -1.68484e-08 -5.86996e-08)
(-8.4084e-10 -2.27054e-08 -4.97416e-08)
(4.68627e-09 -2.40451e-08 -3.72086e-08)
(5.97669e-09 -2.56667e-08 -2.81408e-08)
(5.42084e-09 -2.73897e-08 -2.06632e-08)
(4.55446e-09 -2.88669e-08 -1.41168e-08)
(3.92967e-09 -2.99171e-08 -8.21144e-09)
(3.63123e-09 -3.04572e-08 -2.69391e-09)
(2.39308e-10 -2.34744e-08 -5.41862e-08)
(2.19762e-09 -2.89737e-08 -5.07208e-08)
(3.94711e-09 -2.90968e-08 -3.92967e-08)
(4.24464e-09 -2.96721e-08 -2.93386e-08)
(3.78319e-09 -3.06829e-08 -2.10121e-08)
(3.22979e-09 -3.17584e-08 -1.40806e-08)
(2.84273e-09 -3.26149e-08 -8.10347e-09)
(2.65741e-09 -3.30806e-08 -2.64715e-09)
(1.61619e-08 -2.4501e-08 -5.33042e-08)
(1.2461e-08 -2.98663e-08 -4.99522e-08)
(9.27283e-09 -2.99261e-08 -3.86939e-08)
(7.83758e-09 -3.04538e-08 -2.8887e-08)
(7.42673e-09 -3.14257e-08 -2.06878e-08)
(7.34851e-09 -3.24708e-08 -1.38632e-08)
(7.32588e-09 -3.33063e-08 -7.97863e-09)
(7.30954e-09 -3.37612e-08 -2.60647e-09)
(2.5834e-08 -2.00566e-08 -5.59931e-08)
(1.5093e-08 -2.56314e-08 -4.74451e-08)
(8.1897e-09 -2.68182e-08 -3.54094e-08)
(5.75175e-09 -2.83043e-08 -2.67824e-08)
(5.41426e-09 -2.99097e-08 -1.96814e-08)
(5.63302e-09 -3.12931e-08 -1.34562e-08)
(5.83816e-09 -3.22779e-08 -7.83136e-09)
(5.93015e-09 -3.27844e-08 -2.56993e-09)
)
;
        gradient        uniform (0 0 0);
    }
    symmetry
    {
        type            solidSymmetry;
        patchType       symmetry;
        secondOrder     false;
        value           nonuniform List<vector> 
32
(
(8.77708e-09 1.0389e-08 0)
(1.44503e-08 1.64536e-08 0)
(1.56885e-08 2.23334e-08 0)
(1.60731e-08 2.80038e-08 0)
(1.62771e-08 3.30524e-08 0)
(1.51995e-08 3.74936e-08 0)
(1.08613e-08 4.176e-08 0)
(3.70512e-09 3.7622e-08 0)
(6.12173e-10 4.42379e-09 0)
(2.51694e-09 1.31409e-08 0)
(3.2523e-09 2.10903e-08 0)
(3.63284e-09 2.7861e-08 0)
(3.98913e-09 3.37991e-08 0)
(3.86771e-09 3.90735e-08 0)
(2.70717e-09 4.26804e-08 0)
(1.52791e-09 3.42754e-08 0)
(-5.95597e-10 4.38146e-09 0)
(-2.33725e-09 1.29381e-08 0)
(-2.58064e-09 2.07076e-08 0)
(-2.08934e-09 2.72932e-08 0)
(-1.18972e-09 3.30455e-08 0)
(5.63832e-10 3.81352e-08 0)
(3.72629e-09 4.15745e-08 0)
(7.24208e-09 3.31103e-08 0)
(-8.87571e-09 1.03626e-08 0)
(-1.43859e-08 1.58844e-08 0)
(-1.51041e-08 2.12054e-08 0)
(-1.45954e-08 2.63166e-08 0)
(-1.35258e-08 3.08092e-08 0)
(-1.08162e-08 3.47054e-08 0)
(-4.56018e-09 3.84602e-08 0)
(4.68643e-09 3.40121e-08 0)
)
;
    }
    bottom
    {
        type            fixedDisplacement;
        value           uniform (0 0 0);
    }
}


// ************************************************************************* //
