/*--------------------------------*- C++ -*----------------------------------*\
| =========                 |                                                 |
| \\      /  F ield         | OpenFOAM: The Open Source CFD Toolbox           |
|  \\    /   O peration     | Version:  v1912                                 |
|   \\  /    A nd           | Website:  www.openfoam.com                      |
|    \\/     M anipulation  |                                                 |
\*---------------------------------------------------------------------------*/
FoamFile
{
    version     2.0;
    format      ascii;
    class       volScalarField;
    location    "0.14/solid";
    object      epsilonEq;
}
// * * * * * * * * * * * * * * * * * * * * * * * * * * * * * * * * * * * * * //

dimensions      [0 0 0 0 0 0 0];


internalField   nonuniform List<scalar> 
256
(
2.24187e-06
2.04047e-06
2.02582e-06
2.20208e-06
1.79615e-06
1.89045e-06
1.87246e-06
1.75325e-06
1.871e-06
1.91965e-06
1.90126e-06
1.82999e-06
1.95518e-06
1.97363e-06
1.95545e-06
1.91579e-06
2.05216e-06
2.05987e-06
2.04192e-06
2.01366e-06
2.1907e-06
2.19461e-06
2.17688e-06
2.15298e-06
2.21467e-06
2.29788e-06
2.28091e-06
2.1818e-06
2.43552e-07
2.43085e-06
2.41392e-06
2.10069e-07
1.87015e-06
4.27e-07
4.21169e-07
1.83061e-06
1.6902e-06
3.52959e-07
3.46096e-07
1.65049e-06
1.71856e-06
3.16892e-07
3.10768e-07
1.67915e-06
1.77123e-06
3.164e-07
3.10853e-07
1.7313e-06
1.84761e-06
3.3689e-07
3.31659e-07
1.80676e-06
1.95877e-06
3.21778e-07
3.16999e-07
1.91765e-06
2.02944e-06
1.51764e-07
1.49574e-07
1.99363e-06
2.21461e-06
2.29806e-06
2.28155e-06
2.18324e-06
1.73998e-06
3.46672e-07
3.4049e-07
1.70216e-06
1.6347e-06
3.89812e-07
3.82701e-07
1.59342e-06
1.6691e-06
3.84113e-07
3.7749e-07
1.62706e-06
1.71604e-06
3.80797e-07
3.7445e-07
1.67297e-06
1.78384e-06
3.87228e-07
3.80938e-07
1.73951e-06
1.88448e-06
3.64719e-07
3.5876e-07
1.83961e-06
1.95921e-06
3.18566e-07
3.15178e-07
1.91914e-06
2.19051e-06
2.19461e-06
2.17778e-06
2.15618e-06
1.64004e-06
3.24969e-07
3.19837e-07
1.60667e-06
1.54791e-06
4.00629e-07
3.94579e-07
1.50957e-06
1.58731e-06
4.08633e-07
4.02689e-07
1.54742e-06
1.63177e-06
4.04592e-07
3.98755e-07
1.59045e-06
1.69287e-06
4.04447e-07
3.98636e-07
1.65012e-06
1.78392e-06
3.7789e-07
3.72473e-07
1.74058e-06
1.84934e-06
3.2685e-07
3.24028e-07
1.81065e-06
2.0548e-06
2.06076e-06
2.04424e-06
2.02222e-06
1.58047e-06
3.07692e-07
3.03614e-07
1.55108e-06
1.49099e-06
3.84976e-07
3.8e-07
1.45596e-06
1.53129e-06
3.94599e-07
3.89509e-07
1.49424e-06
1.57396e-06
3.88618e-07
3.83532e-07
1.53516e-06
1.63093e-06
3.83689e-07
3.78602e-07
1.59055e-06
1.71631e-06
3.51912e-07
3.47205e-07
1.6752e-06
1.77597e-06
2.90089e-07
2.88105e-07
1.7394e-06
1.96971e-06
1.9781e-06
1.96191e-06
1.93924e-06
1.54312e-06
2.93106e-07
2.89812e-07
1.51668e-06
1.45452e-06
3.65702e-07
3.61532e-07
1.42213e-06
1.49411e-06
3.72826e-07
3.68434e-07
1.45945e-06
1.5353e-06
3.64664e-07
3.60217e-07
1.49869e-06
1.58987e-06
3.57038e-07
3.5254e-07
1.55151e-06
1.67222e-06
3.22358e-07
3.18175e-07
1.633e-06
1.7288e-06
2.54205e-07
2.52897e-07
1.69399e-06
1.91736e-06
1.93079e-06
1.91487e-06
1.88863e-06
1.52065e-06
2.82407e-07
2.7963e-07
1.49613e-06
1.43254e-06
3.51287e-07
3.47661e-07
1.40194e-06
1.4713e-06
3.56076e-07
3.52172e-07
1.4383e-06
1.51147e-06
3.46438e-07
3.42443e-07
1.47639e-06
1.56473e-06
3.37691e-07
3.33597e-07
1.52779e-06
1.64559e-06
3.02051e-07
2.98202e-07
1.60767e-06
1.70059e-06
2.30874e-07
2.30026e-07
1.66699e-06
1.88617e-06
1.90519e-06
1.88944e-06
1.85866e-06
1.51002e-06
2.76715e-07
2.74198e-07
1.48644e-06
1.42219e-06
3.4392e-07
3.40572e-07
1.39248e-06
1.46049e-06
3.47585e-07
3.43937e-07
1.42833e-06
1.50014e-06
3.373e-07
3.33542e-07
1.46585e-06
1.55282e-06
3.28225e-07
3.24337e-07
1.51661e-06
1.63308e-06
2.92408e-07
2.88727e-07
1.59582e-06
1.6874e-06
2.20036e-07
2.19422e-07
1.65442e-06
1.87146e-06
1.89389e-06
1.87822e-06
1.84456e-06
)
;

boundaryField
{
    interface
    {
        type            calculated;
        value           nonuniform List<scalar> 
192
(
3.28621e-06
2.82272e-06
2.91477e-06
3.02076e-06
3.15158e-06
3.35517e-06
3.51425e-06
1.8471e-06
3.30831e-06
3.07508e-06
3.12473e-06
3.21017e-06
3.33867e-06
3.55227e-06
3.81634e-06
3.51421e-06
3.01617e-06
2.84723e-06
2.89881e-06
2.97785e-06
3.09686e-06
3.29692e-06
3.55331e-06
3.35548e-06
2.82428e-06
2.66624e-06
2.72083e-06
2.79712e-06
2.90948e-06
3.09888e-06
3.34252e-06
3.15559e-06
2.71759e-06
2.56347e-06
2.61867e-06
2.69314e-06
2.80154e-06
2.9848e-06
3.2208e-06
3.03843e-06
2.65471e-06
2.50333e-06
2.55825e-06
2.63135e-06
2.73739e-06
2.91723e-06
3.14891e-06
2.96868e-06
2.61845e-06
2.46885e-06
2.52336e-06
2.59557e-06
2.70028e-06
2.87831e-06
3.10763e-06
2.92797e-06
2.60171e-06
2.45294e-06
2.50721e-06
2.57899e-06
2.68309e-06
2.86035e-06
3.08863e-06
2.90898e-06
3.48863e-06
3.0444e-06
3.13294e-06
3.23382e-06
3.36004e-06
3.56221e-06
3.73551e-06
2.24026e-06
3.66113e-06
3.4565e-06
3.51123e-06
3.59951e-06
3.7373e-06
3.97139e-06
4.26484e-06
3.931e-06
3.63414e-06
3.4252e-06
3.47906e-06
3.56734e-06
3.70528e-06
3.93957e-06
4.23377e-06
3.90523e-06
3.41672e-06
2.96574e-06
3.05498e-06
3.15712e-06
3.28421e-06
3.48688e-06
3.66211e-06
2.17973e-06
3.2493e-06
2.78346e-06
2.87634e-06
2.98276e-06
3.11361e-06
3.31817e-06
3.48636e-06
1.89124e-06
3.24763e-06
3.01185e-06
3.06061e-06
3.14434e-06
3.27082e-06
3.48347e-06
3.75422e-06
3.48751e-06
2.95617e-06
2.7815e-06
2.83116e-06
2.90794e-06
3.0245e-06
3.22314e-06
3.48527e-06
3.32127e-06
2.76959e-06
2.60421e-06
2.65608e-06
2.7297e-06
2.83942e-06
3.02726e-06
3.27627e-06
3.12251e-06
2.66783e-06
2.50558e-06
2.5576e-06
2.6291e-06
2.73469e-06
2.91627e-06
3.15739e-06
3.00775e-06
2.60866e-06
2.44878e-06
2.50027e-06
2.5702e-06
2.67328e-06
2.85132e-06
3.08793e-06
2.94017e-06
2.57486e-06
2.41657e-06
2.46754e-06
2.53646e-06
2.6381e-06
2.81423e-06
3.04837e-06
2.90104e-06
2.55933e-06
2.40182e-06
2.4525e-06
2.52093e-06
2.62192e-06
2.79722e-06
3.03025e-06
2.88287e-06
2.24044e-06
3.73549e-06
3.56228e-06
3.36334e-06
3.24998e-06
3.18392e-06
3.14579e-06
3.12805e-06
3.93112e-06
4.265e-06
3.97188e-06
3.73996e-06
3.60911e-06
3.53598e-06
3.49633e-06
3.47873e-06
3.90539e-06
4.23431e-06
3.94079e-06
3.7091e-06
3.57855e-06
3.50569e-06
3.46623e-06
3.44875e-06
2.18012e-06
3.66333e-06
3.48982e-06
3.29253e-06
3.18082e-06
3.11613e-06
3.07895e-06
3.0617e-06
)
;
    }
    symmetry
    {
        type            symmetry;
    }
    bottom
    {
        type            calculated;
        value           nonuniform List<scalar> 
32
(
2.67245e-06
2.05288e-06
1.89316e-06
1.793e-06
1.73255e-06
1.69379e-06
1.67028e-06
1.65915e-06
2.20525e-06
4.9206e-07
3.62488e-07
3.30103e-07
3.11917e-07
2.98262e-07
2.88501e-07
2.83306e-07
2.19218e-06
4.8584e-07
3.5614e-07
3.25201e-07
3.08243e-07
2.95445e-07
2.86241e-07
2.81327e-07
2.63594e-06
2.01307e-06
1.85701e-06
1.7627e-06
1.70704e-06
1.6717e-06
1.65036e-06
1.64029e-06
)
;
    }
}


// ************************************************************************* //
