/*--------------------------------*- C++ -*----------------------------------*\
| =========                 |                                                 |
| \\      /  F ield         | OpenFOAM: The Open Source CFD Toolbox           |
|  \\    /   O peration     | Version:  v1912                                 |
|   \\  /    A nd           | Website:  www.openfoam.com                      |
|    \\/     M anipulation  |                                                 |
\*---------------------------------------------------------------------------*/
FoamFile
{
    version     2.0;
    format      ascii;
    class       volSymmTensorField;
    location    "0.14/solid";
    object      epsilon;
}
// * * * * * * * * * * * * * * * * * * * * * * * * * * * * * * * * * * * * * //

dimensions      [0 0 0 0 0 0 0];


internalField   nonuniform List<symmTensor> 
256
(
(-2.56928e-06 -2.13305e-08 3.95956e-08 6.7084e-07 -4.37869e-08 -2.79932e-06)
(-1.71177e-08 -7.73445e-08 1.91903e-08 5.07953e-07 -2.83858e-08 -2.77777e-06)
(-2.05198e-08 1.00829e-07 -1.89315e-08 5.00095e-07 -2.61952e-08 -2.7597e-06)
(-2.55878e-06 3.05781e-08 -3.79959e-08 6.41451e-07 -3.55542e-08 -2.75269e-06)
(-2.49905e-06 -1.73969e-08 5.80267e-08 6.03128e-08 -4.76601e-08 -2.74524e-06)
(-2.10111e-08 -1.59931e-08 2.90466e-08 1.47968e-07 -5.06385e-08 -2.76648e-06)
(-2.55398e-08 3.20859e-08 -2.81998e-08 1.3764e-07 -4.9271e-08 -2.74681e-06)
(-2.48801e-06 2.41831e-08 -5.55922e-08 2.80593e-08 -4.25871e-08 -2.69688e-06)
(-2.53491e-06 -2.18641e-09 5.75132e-08 1.41228e-07 -3.63979e-08 -2.77521e-06)
(-1.75223e-08 6.80342e-10 2.90186e-08 1.83467e-07 -3.80465e-08 -2.79004e-06)
(-2.2207e-08 1.11151e-08 -2.7952e-08 1.73315e-07 -3.70849e-08 -2.77011e-06)
(-2.5232e-06 7.18838e-09 -5.49182e-08 1.11994e-07 -3.2736e-08 -2.72689e-06)
(-2.59023e-06 6.10797e-09 5.71098e-08 2.1805e-07 -3.0629e-08 -2.8212e-06)
(-1.99326e-08 6.52899e-09 2.88861e-08 2.43709e-07 -2.81776e-08 -2.83889e-06)
(-2.47079e-08 2.18424e-09 -2.78265e-08 2.34256e-07 -2.74006e-08 -2.81903e-06)
(-2.57773e-06 -2.41311e-09 -5.44877e-08 1.91269e-07 -2.76651e-08 -2.77321e-06)
(-2.66894e-06 5.15569e-09 6.00069e-08 2.88238e-07 -3.40421e-08 -2.89403e-06)
(-1.58046e-08 5.3504e-09 3.06082e-08 3.14796e-07 -2.94833e-08 -2.92612e-06)
(-2.05816e-08 7.8987e-10 -2.96046e-08 3.05777e-07 -2.87832e-08 -2.90637e-06)
(-2.65575e-06 -2.57523e-09 -5.73801e-08 2.6283e-07 -3.14623e-08 -2.84629e-06)
(-2.78313e-06 -1.25185e-08 6.54491e-08 3.78003e-07 -5.16313e-08 -3.01425e-06)
(3.48767e-08 -7.22028e-09 3.37671e-08 3.75377e-07 -4.71834e-08 -3.07199e-06)
(2.99184e-08 1.10517e-08 -3.278e-08 3.66658e-07 -4.6463e-08 -3.05243e-06)
(-2.77065e-06 1.37729e-08 -6.28202e-08 3.53281e-07 -4.91917e-08 -2.9667e-06)
(-2.92481e-06 -5.13706e-08 7.10342e-08 2.56489e-07 -8.44111e-08 -3.17828e-06)
(1.83222e-07 -2.92463e-08 3.68308e-08 1.55188e-07 -8.347e-08 -3.27354e-06)
(1.76732e-07 3.07801e-08 -3.57235e-08 1.48587e-07 -8.25899e-08 -3.25465e-06)
(-2.91941e-06 5.06408e-08 -6.84171e-08 2.35751e-07 -8.18449e-08 -3.13137e-06)
(-2.85153e-06 -7.16966e-08 7.20067e-08 -3.12856e-06 -9.27113e-08 -3.12841e-06)
(3.92601e-07 -3.66887e-08 3.71641e-08 -3.24898e-06 -9.49e-08 -3.2487e-06)
(3.82025e-07 3.62302e-08 -3.5815e-08 -3.2344e-06 -9.40164e-08 -3.23382e-06)
(-2.87589e-06 6.97096e-08 -6.95337e-08 -3.08983e-06 -9.05043e-08 -3.08919e-06)
(-2.48584e-06 2.52153e-08 2.46245e-08 5.72929e-07 -1.79599e-07 -8.94309e-08)
(-1.23018e-07 -5.87463e-08 1.30378e-08 3.89903e-07 -2.03471e-07 -1.4559e-07)
(-1.23242e-07 7.0732e-08 -1.17526e-08 3.80021e-07 -1.98589e-07 -1.46241e-07)
(-2.45167e-06 -1.96123e-08 -2.30547e-08 5.40214e-07 -1.64197e-07 -9.38134e-08)
(-2.46944e-06 -9.83345e-09 4.07889e-08 1.97654e-07 -1.06361e-07 -1.09481e-07)
(-1.93865e-07 -1.46068e-08 2.32134e-08 2.93611e-07 -1.20289e-07 -1.87645e-07)
(-1.94128e-07 2.2025e-08 -2.07092e-08 2.83168e-07 -1.17083e-07 -1.8954e-07)
(-2.43335e-06 1.30177e-08 -3.83171e-08 1.65684e-07 -9.55736e-08 -1.18587e-07)
(-2.49948e-06 -4.20587e-09 4.15354e-08 2.11844e-07 -8.72105e-08 -9.3219e-08)
(-1.98512e-07 -2.70554e-09 2.4011e-08 2.61881e-07 -9.04034e-08 -1.70071e-07)
(-1.98839e-07 7.97125e-09 -2.13044e-08 2.52328e-07 -8.80469e-08 -1.72817e-07)
(-2.46215e-06 6.39295e-09 -3.8944e-08 1.839e-07 -7.88861e-08 -1.04959e-07)
(-2.55291e-06 4.46894e-09 4.05164e-08 2.45015e-07 -8.49012e-08 -7.64937e-08)
(-1.98752e-07 3.22504e-09 2.33145e-08 2.7243e-07 -8.23771e-08 -1.54773e-07)
(-1.99068e-07 5.13019e-10 -2.08258e-08 2.63548e-07 -8.0411e-08 -1.58042e-07)
(-2.51398e-06 -2.89384e-09 -3.79827e-08 2.19309e-07 -7.79153e-08 -8.97701e-08)
(-2.63866e-06 5.62722e-09 4.157e-08 2.80285e-07 -9.46674e-08 -5.73998e-08)
(-1.96193e-07 3.38683e-09 2.40821e-08 3.0675e-07 -9.0923e-08 -1.42392e-07)
(-1.96395e-07 -1.07299e-09 -2.18229e-08 2.98193e-07 -8.91345e-08 -1.45988e-07)
(-2.59798e-06 -4.67214e-09 -3.90903e-08 2.55749e-07 -8.84589e-08 -7.1615e-08)
(-2.77068e-06 -9.84557e-09 4.46137e-08 3.08272e-07 -1.14478e-07 -1.58086e-08)
(-1.53118e-07 -7.46117e-09 2.63676e-08 3.06088e-07 -1.1188e-07 -1.10625e-07)
(-1.53434e-07 8.39931e-09 -2.421e-08 2.9796e-07 -1.10193e-07 -1.14511e-07)
(-2.72929e-06 9.82798e-09 -4.21514e-08 2.84738e-07 -1.08805e-07 -3.07629e-08)
(-2.94747e-06 -4.81751e-08 4.86454e-08 8.71201e-08 -1.26019e-07 8.59581e-08)
(-1.6926e-08 -2.82228e-08 2.91612e-08 -1.64899e-08 -1.25009e-07 -1.66479e-08)
(-1.88812e-08 2.79791e-08 -2.712e-08 -2.18067e-08 -1.23526e-07 -2.11258e-08)
(-2.91158e-06 4.64915e-08 -4.62751e-08 6.89076e-08 -1.2119e-07 6.97364e-08)
(-2.92504e-06 -7.08395e-08 5.20452e-08 -3.17822e-06 -8.40786e-08 2.56333e-07)
(1.82794e-07 -3.65345e-08 3.06367e-08 -3.27377e-06 -8.32735e-08 1.55665e-07)
(1.76214e-07 3.599e-08 -2.95526e-08 -3.25527e-06 -8.243e-08 1.49885e-07)
(-2.91981e-06 6.85181e-08 -5.0291e-08 -3.13211e-06 -8.16658e-08 2.37354e-07)
(-2.27528e-06 5.22353e-08 2.00654e-09 5.40874e-07 -1.07291e-07 3.89949e-08)
(-1.81708e-07 -3.84479e-08 2.04887e-09 3.46888e-07 -1.3483e-07 3.94337e-08)
(-1.81437e-07 4.49169e-08 -2.39224e-10 3.37498e-07 -1.30667e-07 3.79637e-08)
(-2.23958e-06 -4.87318e-08 -1.18208e-09 5.12001e-07 -9.44695e-08 3.43627e-08)
(-2.30238e-06 -1.96091e-09 8.36076e-09 2.25008e-07 -1.01832e-07 5.24038e-08)
(-3.09729e-07 -1.0585e-08 6.12576e-09 3.22936e-07 -1.13787e-07 5.56394e-08)
(-3.08932e-07 1.3609e-08 -2.99436e-09 3.12761e-07 -1.10358e-07 5.23065e-08)
(-2.26322e-06 3.45846e-09 -6.85966e-09 1.93865e-07 -9.09096e-08 4.22725e-08)
(-2.33766e-06 -4.6909e-09 9.93828e-09 2.36538e-07 -1.03142e-07 7.46734e-08)
(-3.27403e-07 -4.2999e-09 7.11102e-09 2.9362e-07 -1.05116e-07 7.98793e-08)
(-3.26477e-07 6.14214e-09 -3.88367e-09 2.84288e-07 -1.02261e-07 7.54213e-08)
(-2.29673e-06 5.51564e-09 -8.33956e-09 2.0883e-07 -9.38259e-08 6.12391e-08)
(-2.38756e-06 3.06149e-09 9.23604e-09 2.46229e-07 -1.10135e-07 1.068e-07)
(-3.26091e-07 1.48565e-09 6.61372e-09 2.77205e-07 -1.07444e-07 1.11639e-07)
(-3.25054e-07 -3.2235e-10 -3.69232e-09 2.68508e-07 -1.04945e-07 1.06488e-07)
(-2.34472e-06 -2.51439e-09 -7.73169e-09 2.20606e-07 -1.0195e-07 9.13086e-08)
(-2.46894e-06 5.40121e-09 8.59644e-09 2.45132e-07 -1.20519e-07 1.49521e-07)
(-3.22104e-07 3.02694e-09 6.39127e-09 2.71802e-07 -1.17063e-07 1.52534e-07)
(-3.20873e-07 -2.55572e-09 -3.7835e-09 2.63442e-07 -1.14798e-07 1.46899e-07)
(-2.42405e-06 -5.18078e-09 -7.19841e-09 2.20745e-07 -1.13186e-07 1.32602e-07)
(-2.59679e-06 -8.48621e-09 8.77741e-09 2.28351e-07 -1.26615e-07 2.14277e-07)
(-2.81679e-07 -6.27908e-09 7.07947e-09 2.26546e-07 -1.24326e-07 2.15202e-07)
(-2.80521e-07 6.06221e-09 -4.7203e-09 2.18715e-07 -1.22305e-07 2.09128e-07)
(-2.5508e-06 7.99049e-09 -7.46801e-09 2.05243e-07 -1.20126e-07 1.9612e-07)
(-2.77147e-06 -4.42359e-08 1.04331e-08 -1.03152e-08 -1.10696e-07 3.04896e-07)
(-1.53467e-07 -2.56056e-08 8.72532e-09 -1.06826e-07 -1.0876e-07 3.04626e-07)
(-1.54002e-07 2.49147e-08 -6.82922e-09 -1.11769e-07 -1.07203e-07 2.98035e-07)
(-2.73039e-06 4.23101e-08 -9.32354e-09 -2.8056e-08 -1.05616e-07 2.85382e-07)
(-2.78395e-06 -6.53385e-08 1.35705e-08 -3.0133e-06 -4.97569e-08 3.77959e-07)
(3.38958e-08 -3.35626e-08 9.33135e-09 -3.07171e-06 -4.57545e-08 3.7667e-07)
(2.85576e-08 3.29862e-08 -8.93474e-09 -3.05273e-06 -4.51354e-08 3.69598e-07)
(-2.7721e-06 6.28961e-08 -1.31645e-08 -2.96717e-06 -4.77626e-08 3.5724e-07)
(-2.14078e-06 5.81836e-08 -4.95212e-09 5.27338e-07 -8.12986e-08 1.9552e-08)
(-1.94139e-07 -3.16411e-08 -2.5934e-09 3.3038e-07 -9.50161e-08 3.40196e-08)
(-1.94427e-07 3.53211e-08 4.29914e-09 3.22042e-07 -9.19311e-08 3.28551e-08)
(-2.1079e-06 -5.61586e-08 5.46508e-09 5.03094e-07 -7.18736e-08 1.61764e-08)
(-2.17985e-06 1.03917e-09 -5.53724e-09 2.19182e-07 -8.98539e-08 4.44751e-08)
(-3.43465e-07 -8.96037e-09 -3.06281e-09 3.16862e-07 -9.47528e-08 6.98054e-08)
(-3.432e-07 9.72299e-09 6.05644e-09 3.07317e-07 -9.18686e-08 6.70106e-08)
(-2.14299e-06 -4.40957e-10 6.56914e-09 1.89733e-07 -8.09211e-08 3.64464e-08)
(-2.21989e-06 -4.55484e-09 -4.83235e-09 2.28741e-07 -9.93569e-08 7.32635e-08)
(-3.69972e-07 -4.92313e-09 -2.73931e-09 2.89393e-07 -9.91019e-08 1.01402e-07)
(-3.69391e-07 4.96435e-09 5.83404e-09 2.80297e-07 -9.64816e-08 9.75228e-08)
(-2.18081e-06 4.69323e-09 5.95805e-09 2.01454e-07 -9.11298e-08 6.20553e-08)
(-2.26867e-06 2.03927e-09 -5.1339e-09 2.2707e-07 -1.09484e-07 1.12085e-07)
(-3.68348e-07 4.45496e-10 -2.99815e-09 2.60449e-07 -1.06559e-07 1.40166e-07)
(-3.67543e-07 -6.1803e-10 5.79598e-09 2.51821e-07 -1.04162e-07 1.35537e-07)
(-2.22743e-06 -2.01198e-09 6.17004e-09 2.01386e-07 -1.01924e-07 9.86282e-08)
(-2.34626e-06 4.47955e-09 -5.99475e-09 2.07888e-07 -1.15783e-07 1.61626e-07)
(-3.61254e-07 2.52471e-09 -3.46488e-09 2.34852e-07 -1.12328e-07 1.89057e-07)
(-3.60196e-07 -2.93965e-09 5.92359e-09 2.26523e-07 -1.10139e-07 1.83857e-07)
(-2.30284e-06 -4.60837e-09 6.90685e-09 1.83337e-07 -1.08908e-07 1.46459e-07)
(-2.46932e-06 -8.19497e-09 -6.57484e-09 1.78475e-07 -1.0967e-07 2.20529e-07)
(-3.19367e-07 -5.5793e-09 -3.49472e-09 1.77923e-07 -1.07068e-07 2.47567e-07)
(-3.18356e-07 4.9015e-09 5.6116e-09 1.70117e-07 -1.05164e-07 2.41882e-07)
(-2.4247e-06 7.51692e-09 7.35537e-09 1.55217e-07 -1.03668e-07 2.03937e-07)
(-2.64054e-06 -4.09194e-08 -5.84503e-09 -4.50705e-08 -8.13034e-08 2.75172e-07)
(-1.95135e-07 -2.31166e-08 -2.70434e-09 -1.32427e-07 -7.89496e-08 3.02156e-07)
(-1.95814e-07 2.23032e-08 4.20309e-09 -1.37438e-07 -7.75695e-08 2.96067e-07)
(-2.60051e-06 3.89419e-08 6.37733e-09 -6.31984e-08 -7.67913e-08 2.57403e-07)
(-2.67128e-06 -5.97535e-08 -4.20562e-09 -2.89247e-06 -2.82719e-08 2.92234e-07)
(-1.6722e-08 -3.03386e-08 -3.08011e-09 -2.92549e-06 -2.43616e-08 3.1909e-07)
(-2.22329e-08 2.96849e-08 3.01942e-09 -2.90659e-06 -2.38784e-08 3.12819e-07)
(-2.65925e-06 5.72464e-08 4.05201e-09 -2.84697e-06 -2.66158e-08 2.73875e-07)
(-2.062e-06 5.63882e-08 -4.50294e-09 5.13446e-07 -6.61922e-08 1.49019e-08)
(-1.89957e-07 -3.19734e-08 -2.72124e-09 3.18289e-07 -6.97734e-08 2.43179e-08)
(-1.90834e-07 3.41287e-08 4.05507e-09 3.10916e-07 -6.76028e-08 2.34432e-08)
(-2.03205e-06 -5.53285e-08 4.87667e-09 4.92992e-07 -5.963e-08 1.23775e-08)
(-2.10228e-06 9.47893e-10 -6.80683e-09 2.05811e-07 -7.53309e-08 4.63673e-08)
(-3.39795e-07 -9.36767e-09 -4.38809e-09 3.0267e-07 -7.50757e-08 6.30682e-08)
(-3.40245e-07 8.90414e-09 6.81754e-09 2.93786e-07 -7.29187e-08 6.08814e-08)
(-2.06825e-06 -8.62672e-10 7.59339e-09 1.78134e-07 -6.87508e-08 4.00988e-08)
(-2.14371e-06 -4.67585e-09 -6.93503e-09 2.105e-07 -8.46579e-08 8.10077e-08)
(-3.68505e-07 -5.39082e-09 -4.56932e-09 2.72127e-07 -8.27643e-08 9.95842e-08)
(-3.68515e-07 4.44413e-09 7.14116e-09 2.6331e-07 -8.06936e-08 9.64456e-08)
(-2.1072e-06 4.44627e-09 7.81531e-09 1.83856e-07 -7.82683e-08 7.19409e-08)
(-2.19181e-06 1.41078e-09 -7.13214e-09 2.03386e-07 -9.26072e-08 1.21771e-07)
(-3.66416e-07 -1.53231e-10 -4.73475e-09 2.37725e-07 -8.97753e-08 1.40148e-07)
(-3.66104e-07 -7.56064e-10 7.08326e-09 2.29164e-07 -8.78127e-08 1.36282e-07)
(-2.15295e-06 -1.66384e-09 7.94708e-09 1.77757e-07 -8.65125e-08 1.10507e-07)
(-2.26689e-06 3.73455e-09 -7.70413e-09 1.80279e-07 -9.41037e-08 1.67723e-07)
(-3.56714e-07 2.10371e-09 -5.07585e-09 2.07358e-07 -9.11347e-08 1.85322e-07)
(-3.561e-07 -2.99449e-09 7.12137e-09 1.99008e-07 -8.93183e-08 1.80864e-07)
(-2.22575e-06 -4.04892e-09 8.40695e-09 1.55534e-07 -8.84581e-08 1.54661e-07)
(-2.38669e-06 -8.09326e-09 -8.15135e-09 1.54159e-07 -8.27743e-08 2.12243e-07)
(-3.12923e-07 -5.19631e-09 -5.21719e-09 1.54739e-07 -8.04763e-08 2.29163e-07)
(-3.12331e-07 4.28653e-09 6.91499e-09 1.46863e-07 -7.89069e-08 2.24217e-07)
(-2.34429e-06 7.32683e-09 8.71873e-09 1.30594e-07 -7.78445e-08 1.97697e-07)
(-2.55556e-06 -3.86049e-08 -7.75384e-09 -5.42616e-08 -5.54214e-08 2.41194e-07)
(-1.9086e-07 -2.13657e-08 -4.88722e-09 -1.34809e-07 -5.34922e-08 2.57831e-07)
(-1.91942e-07 2.04868e-08 5.97511e-09 -1.39966e-07 -5.23784e-08 2.52539e-07)
(-2.51756e-06 3.66077e-08 8.07817e-09 -7.28685e-08 -5.17589e-08 2.25557e-07)
(-2.59598e-06 -5.58266e-08 -7.03807e-09 -2.82069e-06 -1.74072e-08 2.38049e-07)
(-1.78256e-08 -2.80412e-08 -5.59053e-09 -2.83838e-06 -1.47148e-08 2.5541e-07)
(-2.37383e-08 2.73166e-08 5.28216e-09 -2.81965e-06 -1.43329e-08 2.50035e-07)
(-2.58516e-06 5.32771e-08 6.7542e-09 -2.77585e-06 -1.60673e-08 2.22035e-07)
(-2.01543e-06 5.36435e-08 -2.74204e-09 4.99207e-07 -4.9699e-08 1.59247e-08)
(-1.8387e-07 -3.36926e-08 -1.61768e-09 3.07184e-07 -4.93002e-08 1.98854e-08)
(-1.85164e-07 3.50017e-08 2.54745e-09 3.00537e-07 -4.78695e-08 1.91965e-08)
(-1.98771e-06 -5.31679e-08 3.00599e-09 4.81468e-07 -4.54264e-08 1.39586e-08)
(-2.0545e-06 8.85759e-11 -4.48699e-09 1.91898e-07 -5.68388e-08 5.13768e-08)
(-3.2877e-07 -1.02424e-08 -2.83664e-09 2.88168e-07 -5.47865e-08 5.78546e-08)
(-3.29752e-07 9.10235e-09 4.58371e-09 2.79812e-07 -5.33215e-08 5.60912e-08)
(-2.02273e-06 -2.9371e-10 5.05805e-09 1.65659e-07 -5.24154e-08 4.63607e-08)
(-2.09557e-06 -4.98698e-09 -4.82735e-09 1.9304e-07 -6.35465e-08 8.90462e-08)
(-3.56284e-07 -5.80759e-09 -3.09711e-09 2.54547e-07 -6.12861e-08 9.58105e-08)
(-3.56752e-07 4.30587e-09 4.99431e-09 2.45986e-07 -5.98328e-08 9.32183e-08)
(-2.06117e-06 4.55368e-09 5.48152e-09 1.67041e-07 -5.91011e-08 8.15998e-08)
(-2.14292e-06 1.03061e-09 -5.0024e-09 1.84154e-07 -6.8158e-08 1.28816e-07)
(-3.53241e-07 -4.88377e-10 -3.21818e-09 2.18582e-07 -6.58402e-08 1.34987e-07)
(-3.5332e-07 -8.48393e-10 4.9778e-09 2.10098e-07 -6.44273e-08 1.31715e-07)
(-2.10604e-06 -1.44312e-09 5.6179e-09 1.58676e-07 -6.37981e-08 1.19311e-07)
(-2.21646e-06 3.32749e-09 -5.3116e-09 1.62932e-07 -6.68736e-08 1.68079e-07)
(-3.41862e-07 1.87741e-09 -3.40506e-09 1.89873e-07 -6.4713e-08 1.73316e-07)
(-3.41601e-07 -3.05496e-09 4.93827e-09 1.81509e-07 -6.33871e-08 1.69459e-07)
(-2.17721e-06 -3.75175e-09 5.84327e-09 1.38072e-07 -6.27643e-08 1.56787e-07)
(-2.33435e-06 -7.97446e-09 -5.53516e-09 1.43135e-07 -5.60862e-08 1.99966e-07)
(-2.96942e-07 -4.94992e-09 -3.49528e-09 1.44313e-07 -5.44748e-08 2.04337e-07)
(-2.96681e-07 3.88965e-09 4.743e-09 1.36371e-07 -5.33258e-08 1.99997e-07)
(-2.2938e-06 7.15208e-09 5.95547e-09 1.19324e-07 -5.2472e-08 1.87169e-07)
(-2.50182e-06 -3.71699e-08 -5.30144e-09 -5.6122e-08 -3.56682e-08 2.14549e-07)
(-1.76282e-07 -2.03187e-08 -3.37941e-09 -1.32675e-07 -3.44574e-08 2.18528e-07)
(-1.77679e-07 1.93846e-08 4.12858e-09 -1.37947e-07 -3.36449e-08 2.13865e-07)
(-2.46554e-06 3.51567e-08 5.52283e-09 -7.5084e-08 -3.29804e-08 2.00677e-07)
(-2.5475e-06 -5.34737e-08 -4.97452e-09 -2.77886e-06 -1.09595e-08 2.04303e-07)
(-6.45329e-09 -2.66894e-08 -3.99397e-09 -2.78841e-06 -9.43495e-09 2.09111e-07)
(-1.26755e-08 2.59105e-08 3.64886e-09 -2.76987e-06 -9.15549e-09 2.04415e-07)
(-2.53789e-06 5.08944e-08 4.71997e-09 -2.73457e-06 -9.96882e-09 1.90153e-07)
(-1.98914e-06 5.18068e-08 -1.3565e-09 4.87872e-07 -3.08041e-08 1.7649e-08)
(-1.79787e-07 -3.48904e-08 -7.26288e-10 2.98401e-07 -2.97927e-08 1.89135e-08)
(-1.81338e-07 3.57571e-08 1.27176e-09 2.92225e-07 -2.89812e-08 1.83347e-08)
(-1.9629e-06 -5.16564e-08 1.51353e-09 4.71849e-07 -2.84046e-08 1.60284e-08)
(-2.0271e-06 -5.56665e-10 -2.24197e-09 1.80901e-07 -3.51925e-08 5.52736e-08)
(-3.2065e-07 -1.08485e-08 -1.29866e-09 2.76911e-07 -3.34364e-08 5.64583e-08)
(-3.21964e-07 9.35349e-09 2.34485e-09 2.68909e-07 -3.25921e-08 5.49553e-08)
(-1.99685e-06 1.97444e-10 2.58823e-09 1.55635e-07 -3.26609e-08 5.10574e-08)
(-2.0675e-06 -5.24988e-09 -2.47083e-09 1.80474e-07 -3.90459e-08 9.37557e-08)
(-3.46524e-07 -6.08618e-09 -1.4486e-09 2.41668e-07 -3.73954e-08 9.41571e-08)
(-3.47284e-07 4.28478e-09 2.60619e-09 2.33292e-07 -3.65421e-08 9.19109e-08)
(-2.03455e-06 4.70789e-09 2.87438e-09 1.54967e-07 -3.64482e-08 8.73738e-08)
(-2.1142e-06 8.0943e-10 -2.5903e-09 1.71674e-07 -4.11618e-08 1.31551e-07)
(-3.42522e-07 -6.67925e-10 -1.52033e-09 2.05907e-07 -3.96724e-08 1.31021e-07)
(-3.42853e-07 -9.10673e-10 2.60861e-09 1.97491e-07 -3.88291e-08 1.28135e-07)
(-2.07869e-06 -1.31102e-09 2.97536e-09 1.46357e-07 -3.8567e-08 1.23237e-07)
(-2.18684e-06 3.13778e-09 -2.73976e-09 1.53185e-07 -3.94151e-08 1.6526e-07)
(-3.3018e-07 1.77881e-09 -1.60917e-09 1.79889e-07 -3.81358e-08 1.63752e-07)
(-3.30144e-07 -3.12925e-09 2.56135e-09 1.71524e-07 -3.73358e-08 1.60296e-07)
(-2.14892e-06 -3.6275e-09 3.07442e-09 1.28286e-07 -3.69372e-08 1.55194e-07)
(-2.30373e-06 -7.86853e-09 -2.83262e-09 1.38083e-07 -3.21833e-08 1.89078e-07)
(-2.84769e-07 -4.79812e-09 -1.65291e-09 1.39455e-07 -3.12803e-08 1.86748e-07)
(-2.84717e-07 3.63756e-09 2.42119e-09 1.31474e-07 -3.05834e-08 1.82812e-07)
(-2.26446e-06 7.00917e-09 3.09551e-09 1.1413e-07 -2.99868e-08 1.775e-07)
(-2.47045e-06 -3.6367e-08 -2.70822e-09 -5.63647e-08 -2.00249e-08 1.96368e-07)
(-1.65037e-07 -1.97628e-08 -1.62461e-09 -1.3092e-07 -1.94209e-08 1.93705e-07)
(-1.66632e-07 1.87851e-08 2.06947e-09 -1.36263e-07 -1.89272e-08 1.89455e-07)
(-2.43537e-06 3.43404e-08 2.84188e-09 -7.55415e-08 -1.83848e-08 1.83712e-07)
(-2.51896e-06 -5.22109e-08 -2.54701e-09 -2.75539e-06 -6.14603e-09 1.83196e-07)
(2.8777e-09 -2.59891e-08 -2.00586e-09 -2.76118e-06 -5.42556e-09 1.81243e-07)
(-3.53836e-09 2.51727e-08 1.75502e-09 -2.74276e-06 -5.25507e-09 1.76991e-07)
(-2.51025e-06 4.96119e-08 2.37827e-09 -2.71149e-06 -5.53772e-09 1.70317e-07)
(-1.97723e-06 5.09742e-08 -4.01675e-10 4.81707e-07 -1.04278e-08 1.86877e-08)
(-1.77914e-07 -3.54123e-08 -1.97044e-10 2.93564e-07 -1.00069e-08 1.9039e-08)
(-1.79588e-07 3.60918e-08 3.76619e-10 2.87619e-07 -9.74415e-09 1.85129e-08)
(-1.95173e-06 -5.09685e-08 4.5362e-10 4.66512e-07 -9.65497e-09 1.7234e-08)
(-2.01466e-06 -8.46055e-10 -6.56028e-10 1.74924e-07 -1.18909e-08 5.72495e-08)
(-3.16843e-07 -1.11108e-08 -3.4885e-10 2.70857e-07 -1.12467e-08 5.66244e-08)
(-3.18317e-07 9.46453e-09 6.96701e-10 2.63031e-07 -1.09713e-08 5.5247e-08)
(-1.98516e-06 4.20649e-10 7.71727e-10 1.50144e-07 -1.10681e-08 5.34242e-08)
(-2.05466e-06 -5.37905e-09 -7.27571e-10 1.74042e-07 -1.3132e-08 9.57156e-08)
(-3.41796e-07 -6.21214e-09 -3.90871e-10 2.35047e-07 -1.25445e-08 9.38836e-08)
(-3.42699e-07 4.2795e-09 7.79414e-10 2.26769e-07 -1.22637e-08 9.18062e-08)
(-2.02244e-06 4.78983e-09 8.63619e-10 1.48794e-07 -1.22791e-08 8.98605e-08)
(-2.101e-06 7.07789e-10 -7.68491e-10 1.65679e-07 -1.3715e-08 1.32128e-07)
(-3.37242e-07 -7.45888e-10 -4.1359e-10 1.99758e-07 -1.32055e-08 1.29204e-07)
(-3.37696e-07 -9.42955e-10 7.81534e-10 1.9138e-07 -1.29258e-08 1.26509e-07)
(-2.06619e-06 -1.24974e-09 8.99263e-10 1.4046e-07 -1.28554e-08 1.24411e-07)
(-2.17322e-06 3.06325e-09 -8.13466e-10 1.48832e-07 -1.29754e-08 1.62899e-07)
(-3.24457e-07 1.74229e-09 -4.40008e-10 1.75372e-07 -1.25547e-08 1.58999e-07)
(-3.24533e-07 -3.17563e-09 7.6284e-10 1.6701e-07 -1.22878e-08 1.55742e-07)
(-2.13597e-06 -3.58421e-09 9.27522e-10 1.23927e-07 -1.21487e-08 1.53454e-07)
(-2.28969e-06 -7.81047e-09 -8.38628e-10 1.36025e-07 -1.04714e-08 1.82962e-07)
(-2.78879e-07 -4.72766e-09 -4.53366e-10 1.37424e-07 -1.01853e-08 1.78312e-07)
(-2.78931e-07 3.51566e-09 7.12941e-10 1.29426e-07 -9.95197e-09 1.74576e-07)
(-2.25107e-06 6.93218e-09 9.27977e-10 1.12012e-07 -9.73516e-09 1.72003e-07)
(-2.45609e-06 -3.60098e-08 -7.99679e-10 -5.63499e-08 -6.46609e-09 1.87184e-07)
(-1.59623e-07 -1.9527e-08 -4.50429e-10 -1.30111e-07 -6.2893e-09 1.82271e-07)
(-1.61315e-07 1.85246e-08 5.98103e-10 -1.35486e-07 -6.12373e-09 1.78226e-07)
(-2.42162e-06 3.39756e-08 8.4429e-10 -7.5625e-08 -5.91478e-09 1.75144e-07)
(-2.50587e-06 -5.16671e-08 -7.48121e-10 -2.74473e-06 -1.98563e-09 1.72827e-07)
(7.36265e-09 -2.56976e-08 -5.76759e-10 -2.74911e-06 -1.77943e-09 1.68538e-07)
(8.52875e-10 2.48618e-08 4.85843e-10 -2.73076e-06 -1.72213e-09 1.64506e-07)
(-2.49763e-06 4.90581e-08 6.89067e-10 -2.70103e-06 -1.7805e-09 1.60592e-07)
)
;

boundaryField
{
    interface
    {
        type            calculated;
        value           nonuniform List<symmTensor> 
192
(
(-4.97076e-06 1.07671e-12 3.37741e-11 6.7084e-07 -4.37869e-08 -2.79932e-06)
(-4.80905e-06 -4.60584e-13 4.38902e-11 6.03128e-08 -4.76601e-08 -2.74524e-06)
(-4.88527e-06 -2.5753e-12 4.44448e-11 1.41228e-07 -3.63979e-08 -2.77521e-06)
(-4.98948e-06 -4.73392e-12 4.36298e-11 2.1805e-07 -3.0629e-08 -2.8212e-06)
(-5.1434e-06 -6.90757e-12 4.19695e-11 2.88238e-07 -3.40421e-08 -2.89403e-06)
(-5.40348e-06 -1.13787e-11 3.98443e-11 3.78003e-07 -5.16313e-08 -3.01425e-06)
(-5.81036e-06 -1.42579e-11 3.55301e-11 2.56489e-07 -8.44111e-08 -3.17828e-06)
(-5.89447e-06 -3.07488e-11 3.17728e-11 -3.12856e-06 -9.27113e-08 -3.12841e-06)
(-4.67763e-06 4.55944e-13 1.79243e-11 5.72929e-07 -1.79599e-07 -8.94309e-08)
(-4.55717e-06 -1.15456e-12 2.39539e-11 1.97654e-07 -1.06361e-07 -1.09481e-07)
(-4.6179e-06 -3.29768e-12 2.40642e-11 2.11844e-07 -8.72105e-08 -9.3219e-08)
(-4.72069e-06 -5.74376e-12 2.33092e-11 2.45015e-07 -8.49012e-08 -7.64937e-08)
(-4.88533e-06 -8.2348e-12 2.20237e-11 2.80285e-07 -9.46674e-08 -5.73998e-08)
(-5.17108e-06 -1.33966e-11 2.043e-11 3.08272e-07 -1.14478e-07 -1.58086e-08)
(-5.6338e-06 -1.66086e-11 1.76988e-11 8.71201e-08 -1.26019e-07 8.59581e-08)
(-5.81048e-06 -3.45165e-11 1.53492e-11 -3.17822e-06 -8.40786e-08 2.56333e-07)
(-4.20955e-06 4.29926e-13 1.47987e-11 5.40874e-07 -1.07291e-07 3.89949e-08)
(-4.12587e-06 -1.41722e-12 1.96269e-11 2.25008e-07 -1.01832e-07 5.24038e-08)
(-4.18667e-06 -3.87032e-12 1.97164e-11 2.36538e-07 -1.03142e-07 7.46734e-08)
(-4.28455e-06 -6.70219e-12 1.90964e-11 2.46229e-07 -1.10135e-07 1.068e-07)
(-4.44253e-06 -9.62527e-12 1.80442e-11 2.45132e-07 -1.20519e-07 1.49521e-07)
(-4.71919e-06 -1.5533e-11 1.67013e-11 2.28351e-07 -1.26615e-07 2.14277e-07)
(-5.17222e-06 -1.9338e-11 1.45524e-11 -1.03152e-08 -1.10696e-07 3.04896e-07)
(-5.40428e-06 -3.88523e-11 1.25324e-11 -3.0133e-06 -4.97569e-08 3.77959e-07)
(-3.93774e-06 2.18472e-13 9.70324e-12 5.27338e-07 -8.12986e-08 1.9552e-08)
(-3.86164e-06 -1.77646e-12 1.30793e-11 2.19182e-07 -8.98539e-08 4.44751e-08)
(-3.92439e-06 -4.38666e-12 1.30992e-11 2.28741e-07 -9.93569e-08 7.32635e-08)
(-4.02063e-06 -7.43796e-12 1.26085e-11 2.2707e-07 -1.09484e-07 1.12085e-07)
(-4.17466e-06 -1.0607e-11 1.18274e-11 2.07888e-07 -1.15783e-07 1.61626e-07)
(-4.44479e-06 -1.68891e-11 1.08499e-11 1.78475e-07 -1.0967e-07 2.20529e-07)
(-4.88907e-06 -2.09485e-11 9.42755e-12 -4.50705e-08 -8.13034e-08 2.75172e-07)
(-5.14666e-06 -4.10342e-11 8.09883e-12 -2.89247e-06 -2.82719e-08 2.92234e-07)
(-3.78766e-06 1.60988e-13 7.20948e-12 5.13446e-07 -6.61922e-08 1.49019e-08)
(-3.71442e-06 -1.9786e-12 9.69221e-12 2.05811e-07 -7.53309e-08 4.63673e-08)
(-3.77791e-06 -4.76235e-12 9.71262e-12 2.105e-07 -8.46579e-08 8.10077e-08)
(-3.87333e-06 -8.00371e-12 9.3508e-12 2.03386e-07 -9.26072e-08 1.21771e-07)
(-4.02514e-06 -1.13862e-11 8.77655e-12 1.80279e-07 -9.41037e-08 1.67723e-07)
(-4.29141e-06 -1.79596e-11 8.04618e-12 1.54159e-07 -8.27743e-08 2.12243e-07)
(-4.73e-06 -2.22542e-11 7.02751e-12 -5.42616e-08 -5.54214e-08 2.41194e-07)
(-5e-06 -4.27924e-11 6.03228e-12 -2.82069e-06 -1.74072e-08 2.38049e-07)
(-3.7015e-06 9.88179e-14 4.6893e-12 4.99207e-07 -4.9699e-08 1.59247e-08)
(-3.6301e-06 -2.14103e-12 6.34546e-12 1.91898e-07 -5.68388e-08 5.13768e-08)
(-3.69369e-06 -5.03953e-12 6.35567e-12 1.9304e-07 -6.35465e-08 8.90462e-08)
(-3.78849e-06 -8.40346e-12 6.10897e-12 1.84154e-07 -6.8158e-08 1.28816e-07)
(-3.93895e-06 -1.19233e-11 5.72629e-12 1.62932e-07 -6.68736e-08 1.68079e-07)
(-4.20294e-06 -1.86692e-11 5.24124e-12 1.43135e-07 -5.60862e-08 1.99966e-07)
(-4.63793e-06 -2.30994e-11 4.59253e-12 -5.6122e-08 -3.56682e-08 2.14549e-07)
(-4.9142e-06 -4.3895e-11 3.95666e-12 -2.77886e-06 -1.09595e-08 2.04303e-07)
(-3.65339e-06 7.5072e-14 2.72393e-12 4.87872e-07 -3.08041e-08 1.7649e-08)
(-3.58308e-06 -2.23319e-12 3.68912e-12 1.80901e-07 -3.51925e-08 5.52736e-08)
(-3.64657e-06 -5.21188e-12 3.69965e-12 1.80474e-07 -3.90459e-08 9.37557e-08)
(-3.74094e-06 -8.6561e-12 3.55926e-12 1.71674e-07 -4.11618e-08 1.31551e-07)
(-3.8906e-06 -1.22657e-11 3.34298e-12 1.53185e-07 -3.94151e-08 1.6526e-07)
(-4.1533e-06 -1.91189e-11 3.06282e-12 1.38083e-07 -3.21833e-08 1.89078e-07)
(-4.58618e-06 -2.36381e-11 2.70072e-12 -5.63647e-08 -2.00249e-08 1.96368e-07)
(-4.86558e-06 -4.45974e-11 2.33008e-12 -2.75539e-06 -6.14603e-09 1.83196e-07)
(-3.63167e-06 6.16368e-14 8.86633e-13 4.81707e-07 -1.04278e-08 1.86877e-08)
(-3.56186e-06 -2.27832e-12 1.20587e-12 1.74924e-07 -1.18909e-08 5.72495e-08)
(-3.62526e-06 -5.29392e-12 1.21e-12 1.74042e-07 -1.3132e-08 9.57156e-08)
(-3.7194e-06 -8.77427e-12 1.16382e-12 1.65679e-07 -1.3715e-08 1.32128e-07)
(-3.8687e-06 -1.24275e-11 1.09433e-12 1.48832e-07 -1.29754e-08 1.62899e-07)
(-4.13081e-06 -1.93271e-11 1.00191e-12 1.36025e-07 -1.04714e-08 1.82962e-07)
(-4.56272e-06 -2.38919e-11 8.88207e-13 -5.63499e-08 -6.46609e-09 1.87184e-07)
(-4.84344e-06 -4.4926e-11 7.64999e-13 -2.74473e-06 -1.98563e-09 1.72827e-07)
(-2.56928e-06 -2.13305e-08 -5.45316e-11 6.7084e-07 -3.23354e-12 -5.36606e-06)
(-2.49905e-06 -1.73969e-08 -7.19722e-11 6.03128e-08 -2.86495e-12 -5.21189e-06)
(-2.53491e-06 -2.18641e-09 -7.3418e-11 1.41228e-07 -1.80751e-12 -5.28501e-06)
(-2.59023e-06 6.10797e-09 -7.29469e-11 2.1805e-07 -1.65463e-12 -5.38307e-06)
(-2.66894e-06 5.15569e-09 -7.18488e-11 2.88238e-07 -1.70484e-12 -5.53126e-06)
(-2.78313e-06 -1.25185e-08 -7.06414e-11 3.78003e-07 -2.19102e-12 -5.79124e-06)
(-2.92481e-06 -5.13706e-08 -6.85875e-11 2.56489e-07 -2.36008e-12 -6.2125e-06)
(-2.85153e-06 -7.16966e-08 -6.87106e-11 -3.12856e-06 -3.32211e-12 -6.33955e-06)
(-1.71177e-08 -7.73445e-08 -4.41014e-11 5.07953e-07 -1.22044e-12 -5.22578e-06)
(-2.10111e-08 -1.59931e-08 -6.0207e-11 1.47968e-07 -1.16199e-12 -5.11913e-06)
(-1.75223e-08 6.80342e-10 -6.13205e-11 1.83467e-07 -6.25534e-13 -5.18099e-06)
(-1.99326e-08 6.52899e-09 -6.08699e-11 2.43709e-07 -4.06905e-13 -5.28253e-06)
(-1.58046e-08 5.3504e-09 -6.01686e-11 3.14796e-07 -2.48438e-13 -5.44913e-06)
(3.48767e-08 -7.22028e-09 -5.95379e-11 3.75377e-07 -2.62194e-13 -5.74465e-06)
(1.83222e-07 -2.92463e-08 -5.86901e-11 1.55188e-07 -2.39826e-13 -6.2278e-06)
(3.92601e-07 -3.66887e-08 -5.98157e-11 -3.24898e-06 -4.71507e-13 -6.41003e-06)
(-2.05198e-08 1.00829e-07 -4.61879e-11 5.00095e-07 -6.05673e-13 -5.18994e-06)
(-2.55398e-08 3.20859e-08 -6.28748e-11 1.3764e-07 -3.73837e-13 -5.07951e-06)
(-2.2207e-08 1.11151e-08 -6.41424e-11 1.73315e-07 1.55935e-13 -5.14026e-06)
(-2.47079e-08 2.18424e-09 -6.36555e-11 2.34256e-07 5.92762e-13 -5.24154e-06)
(-2.05816e-08 7.8987e-10 -6.28036e-11 3.05777e-07 1.02228e-12 -5.40813e-06)
(2.99184e-08 1.10517e-08 -6.18724e-11 3.66658e-07 1.44433e-12 -5.70384e-06)
(1.76732e-07 3.07801e-08 -6.05884e-11 1.48587e-07 1.78694e-12 -6.18773e-06)
(3.82025e-07 3.62302e-08 -6.10891e-11 -3.2344e-06 1.93066e-12 -6.37609e-06)
(-2.55878e-06 3.05781e-08 -5.34393e-11 6.41451e-07 -2.9962e-13 -5.26941e-06)
(-2.48801e-06 2.41831e-08 -7.21278e-11 2.80593e-08 1.48221e-13 -5.10818e-06)
(-2.5232e-06 7.18838e-09 -7.36047e-11 1.11994e-07 7.66835e-13 -5.17936e-06)
(-2.57773e-06 -2.41311e-09 -7.30145e-11 1.91269e-07 1.38049e-12 -5.27688e-06)
(-2.65575e-06 -2.57523e-09 -7.17999e-11 2.6283e-07 1.9793e-12 -5.42494e-06)
(-2.77065e-06 1.37729e-08 -7.03974e-11 3.53281e-07 2.7042e-12 -5.6849e-06)
(-2.91941e-06 5.06408e-08 -6.79915e-11 2.35751e-07 3.24901e-12 -6.10637e-06)
(-2.87589e-06 6.97096e-08 -6.79776e-11 -3.08983e-06 4.05779e-12 -6.24497e-06)
(-4.94296e-06 3.5965e-12 2.96098e-11 6.41451e-07 -3.55542e-08 -2.75269e-06)
(-4.77793e-06 1.28679e-12 3.94407e-11 2.80593e-08 -4.25871e-08 -2.69688e-06)
(-4.85249e-06 -2.24349e-12 3.98707e-11 1.11994e-07 -3.2736e-08 -2.72689e-06)
(-4.95492e-06 -4.93476e-12 3.91723e-11 1.91269e-07 -2.76651e-08 -2.77321e-06)
(-5.10746e-06 -7.36714e-12 3.78935e-11 2.6283e-07 -3.14623e-08 -2.84629e-06)
(-5.36861e-06 -1.17108e-11 3.66083e-11 3.53281e-07 -4.91917e-08 -2.9667e-06)
(-5.78658e-06 -1.33241e-11 3.34139e-11 2.35751e-07 -8.18449e-08 -3.13137e-06)
(-5.92204e-06 -3.13792e-11 3.25854e-11 -3.08983e-06 -9.05043e-08 -3.08919e-06)
(-4.60884e-06 8.7934e-13 1.2028e-11 5.40214e-07 -1.64197e-07 -9.38134e-08)
(-4.48447e-06 -8.23702e-13 1.74688e-11 1.65684e-07 -9.55736e-08 -1.18587e-07)
(-4.54258e-06 -3.24503e-12 1.73983e-11 1.839e-07 -7.88861e-08 -1.04959e-07)
(-4.6422e-06 -5.68187e-12 1.68042e-11 2.19309e-07 -7.79153e-08 -8.97701e-08)
(-4.80357e-06 -7.90444e-12 1.60576e-11 2.55749e-07 -8.84589e-08 -7.1615e-08)
(-5.08766e-06 -1.24317e-11 1.54974e-11 2.84738e-07 -1.08805e-07 -3.07629e-08)
(-5.55809e-06 -1.28746e-11 1.41434e-11 6.89076e-08 -1.2119e-07 6.97364e-08)
(-5.78687e-06 -3.22175e-11 1.46074e-11 -3.13211e-06 -8.16658e-08 2.37354e-07)
(-4.13871e-06 3.9977e-13 1.2195e-11 5.12001e-07 -9.44695e-08 3.43627e-08)
(-4.04914e-06 -1.43157e-12 1.70218e-11 1.93865e-07 -9.09096e-08 4.22725e-08)
(-4.10667e-06 -3.83169e-12 1.71374e-11 2.0883e-07 -9.38259e-08 6.12391e-08)
(-4.20094e-06 -6.44174e-12 1.66552e-11 2.20606e-07 -1.0195e-07 9.13086e-08)
(-4.3552e-06 -8.84722e-12 1.59344e-11 2.20745e-07 -1.13186e-07 1.32602e-07)
(-4.62954e-06 -1.38282e-11 1.51665e-11 2.05243e-07 -1.20126e-07 1.9612e-07)
(-5.08899e-06 -1.42163e-11 1.37706e-11 -2.8056e-08 -1.05616e-07 2.85382e-07)
(-5.36991e-06 -3.54125e-11 1.30877e-11 -2.96717e-06 -4.77626e-08 3.5724e-07)
(-3.87141e-06 1.03183e-13 8.14077e-12 5.03094e-07 -7.18736e-08 1.61764e-08)