/*--------------------------------*- C++ -*----------------------------------*\
| =========                 |                                                 |
| \\      /  F ield         | OpenFOAM: The Open Source CFD Toolbox           |
|  \\    /   O peration     | Version:  v1912                                 |
|   \\  /    A nd           | Website:  www.openfoam.com                      |
|    \\/     M anipulation  |                                                 |
\*---------------------------------------------------------------------------*/
FoamFile
{
    version     2.0;
    format      ascii;
    class       volVectorField;
    location    "0.14/solid";
    object      heatFlux;
}
// * * * * * * * * * * * * * * * * * * * * * * * * * * * * * * * * * * * * * //

dimensions      [1 0 -3 0 0 0 0];


internalField   nonuniform List<vector> 
256
(
(-103027 32643 -109993)
(-7927.15 16312.7 -99636)
(8041.77 16282.9 -98973.8)
(102159 32909.8 -107769)
(-103079 1130.47 -110092)
(-8432.94 584.828 -100104)
(8555.37 582.576 -99394.2)
(102143 1135.73 -107711)
(-104136 179.836 -111135)
(-8475.05 82.6749 -101038)
(8592.67 81.5967 -100305)
(103142 171.638 -108684)
(-105948 291.614 -112896)
(-8531.18 135.146 -102643)
(8644.33 134.591 -101899)
(104900 283.492 -110412)
(-109008 568.438 -115881)
(-8632.07 279.499 -105444)
(8741.02 279.391 -104696)
(107925 561.789 -113383)
(-114322 1461.98 -121126)
(-8820.23 901.314 -110577)
(8926.62 901.528 -109832)
(113260 1462.86 -118636)
(-123928 11921.3 -130831)
(-9192.52 10641.5 -120627)
(9302.57 10618.9 -119893)
(123069 11875.5 -128372)
(-135756 143548 -143545)
(-10122.7 135490 -135487)
(10160.6 134778 -134776)
(135599 141172 -141171)
(-88467.6 15135 -9142.62)
(-6798.39 1051.12 -7640.02)
(6994.93 1069.32 -7616.6)
(87135.5 15527.1 -9080.45)
(-88960.9 553.744 -9720.79)
(-7267.25 47.8522 -8165.81)
(7481.09 48.6502 -8139.93)
(87564.2 567.845 -9651.41)
(-89947.4 88.811 -9762.3)
(-7303.49 3.90936 -8201.33)
(7514.92 3.76657 -8174.78)
(88484 82.7905 -9691.23)
(-91648.3 146.889 -9814.86)
(-7352.3 5.60425 -8246.43)
(7559.97 5.38431 -8219.61)
(90114 138.554 -9743.44)
(-94592.5 296.974 -9909.74)
(-7444.99 18.3671 -8333.4)
(7647.87 18.0814 -8306.51)
(92990.2 287.384 -9839.17)
(-99889.6 915.029 -10089.4)
(-7631.19 323.361 -8513.11)
(7828.99 322.59 -8486.48)
(98254.6 908.766 -10021.6)
(-109935 10468.4 -10468.2)
(-8037.43 8932.86 -8932.79)
(8233.28 8907 -8906.97)
(108430 10406.3 -10406.4)
(-123931 130837 -11921)
(-9192.62 120631 -10641.4)
(9302.47 119895 -10618.8)
(123067 128372 -11875.6)
(-78413.7 13779.6 -850.91)
(-6401.13 506.851 -270.248)
(6601.33 526.344 -269.471)
(77000.8 14178 -842.695)
(-78906.3 510.792 -900.753)
(-6852.08 23.5201 -294.421)
(7069.77 24.395 -293.566)
(77421.2 524.958 -892.174)
(-79866.4 85.7706 -902.53)
(-6887.53 2.05195 -295.465)
(7102.77 1.92352 -294.599)
(78311.9 79.6152 -894.033)
(-81538.1 144.171 -903.246)
(-6935.93 3.07748 -296.301)
(7147.33 2.857 -295.433)
(79909.8 135.547 -894.862)
(-84459.6 293.914 -903.601)
(-7028.84 12.8226 -297.989)
(7235.24 12.517 -297.127)
(82757.8 283.651 -895.467)
(-89765.8 903.501 -903.269)
(-7217.33 301.918 -301.914)
(7418.16 301.07 -301.071)
(88019.4 895.612 -895.716)
(-99894.6 10089.7 -914.789)
(-7631.27 8513.23 -323.355)
(7828.93 8486.53 -322.59)
(98252.2 10021.5 -908.872)
(-114331 121137 -1461.47)
(-8820.48 110584 -901.142)
(8926.4 109836 -901.451)
(113256 118636 -1463)
(-73067.1 13383.3 -287.504)
(-6216.96 486.449 -11.7737)
(6422.48 506.288 -11.4861)
(71691.8 13792.3 -277.977)
(-73555.3 502.123 -299.918)
(-6660.07 22.6354 -12.7636)
(6883.33 23.522 -12.4546)
(72105.5 516.507 -289.885)
(-74515.3 86.3179 -299.673)
(-6695.56 2.02913 -12.7841)
(6916.35 1.89911 -12.476)
(72995.7 80.1024 -289.675)
(-76194.3 145.819 -298.566)
(-6744.48 3.08012 -12.7706)
(6961.41 2.85681 -12.4647)
(74601.3 137.12 -288.621)
(-79133.8 296.951 -296.507)
(-6838.52 12.7548 -12.7481)
(7050.39 12.4438 -12.4454)
(77467.5 286.53 -286.632)
(-84468 903.841 -293.464)
(-7028.99 297.995 -12.8158)
(7235.18 297.126 -12.5185)
(82755.4 895.36 -283.75)
(-94606.2 9910.24 -296.499)
(-7445.23 8333.63 -18.3547)
(7647.76 8306.62 -18.0803)
(92985.3 9839.05 -287.486)
(-109026 115901 -567.408)
(-8632.61 105458 -279.126)
(8740.61 104704 -279.197)
(107918 113383 -561.918)
(-70101.5 13192.1 -142.204)
(-6125.11 482.314 -2.93344)
(6335.13 502.403 -2.73429)
(68779.5 13610.1 -134.757)
(-70589.9 498.624 -147.705)
(-6564.62 22.5097 -3.11673)
(6792.65 23.4051 -2.90223)
(69194 513.26 -139.811)
(-71556.6 87.123 -147.276)
(-6600.33 2.04497 -3.10981)
(6825.88 1.91344 -2.89596)
(70091.6 80.8794 -139.388)
(-73249.7 147.337 -146.269)
(-6649.83 3.11345 -3.08838)
(6871.48 2.88761 -2.87664)
(71712.1 138.59 -138.424)
(-76209.6 299.016 -144.736)
(-6744.78 12.7774 -3.05478)
(6961.36 12.4631 -2.84563)
(74599.9 288.522 -136.942)
(-81562.1 903.509 -143.058)
(-6936.38 296.312 -3.05123)
(7147.23 295.435 -2.84502)
(79906.2 894.758 -135.342)
(-91678.3 9815.75 -145.696)
(-7352.85 8246.92 -5.55298)
(7559.8 8219.86 -5.35373)
(90107.9 9743.31 -138.312)
(-105983 112934 -289.016)
(-8532.27 102669 -134.069)
(8643.61 101914 -133.891)
(104891 110414 -283.023)
(-68417.2 13093.4 -73.1815)
(-6077.49 480.398 -1.38268)
(6290.66 500.652 -1.25627)
(67140 13517.7 -68.177)
(-68907.2 497.051 -75.8125)
(-6515.26 22.459 -1.4623)
(6746.64 23.3603 -1.32599)
(67557.2 511.877 -70.496)
(-69880.6 87.7544 -75.4697)
(-6551.18 2.05748 -1.45615)
(6780.08 1.92471 -1.32029)
(68462.2 81.49 -70.1516)
(-71585.5 148.359 -74.7847)
(-6601.09 3.13515 -1.44209)
(6826.07 2.90713 -1.30792)
(70095.3 139.565 -69.504)
(-74560 300.162 -73.8573)
(-6696.63 12.792 -1.4223)
(6916.51 12.4754 -1.29017)
(72998.6 289.612 -68.6228)
(-79920.9 902.88 -73.066)
(-6888.78 295.497 -1.41996)
(7102.89 294.618 -1.28965)
(78313.5 893.99 -67.8838)
(-90009.9 9764.28 -75.0253)
(-7304.89 8202.61 -2.63292)
(7515 8175.58 -2.5038)
(88484.1 9691.37 -70.0005)
(-104206 111211 -151.768)
(-8477.48 101093 -68.1956)
(8591.65 100339 -67.991)
(103138 108694 -147.192)
(-67494.7 13043.1 -35.1833)
(-6053.19 479.469 -0.637865)
(6268.34 499.821 -0.568192)
(66249.1 13471.4 -32.3234)
(-67986.1 496.336 -36.3815)
(-6490.13 22.4363 -0.67311)
(6723.61 23.3411 -0.597974)
(66668.6 511.285 -33.3415)
(-68964.1 88.1509 -36.1773)
(-6526.18 2.06518 -0.66942)
(6757.19 1.93152 -0.59456)
(67579 81.8715 -33.1354)
(-70676.8 148.949 -35.7984)
(-6576.35 3.1473 -0.661836)
(6803.42 2.91773 -0.588043)
(69220.3 140.118 -32.7816)
(-73660 300.735 -35.3225)
(-6672.21 12.7995 -0.651915)
(6894.16 12.4814 -0.579408)
(72132.7 290.142 -32.3379)
(-79023.9 902.341 -34.9925)
(-6864.61 295.101 -0.651294)
(7080.76 294.221 -0.579798)
(77450.7 893.381 -32.0399)
(-89091.6 9737.04 -36.1535)
(-7280.33 8180.14 -1.21154)
(7492.44 8153.15 -1.13968)
(87597.7 9664 -33.2693)
(-103211 110251 -74.0436)
(-8448.5 100228 -32.63)
(8564.62 99475.4 -32.4884)
(102164 107737 -71.2609)
(-67084.9 13021.8 -10.4797)
(-6042.87 479.087 -0.185909)
(6258.97 499.485 -0.163641)
(65855.5 13452 -9.54939)
(-67576.9 496.057 -10.8257)
(-6479.48 22.4274 -0.195938)
(6713.97 23.3339 -0.171922)
(66276.3 511.065 -9.83674)
(-68557.3 88.3374 -10.759)
(-6515.59 2.06875 -0.194735)
(6747.61 1.93464 -0.170814)
(67189.3 82.0498 -9.76937)
(-70273.7 149.214 -10.6392)
(-6565.88 3.15265 -0.192366)
(6793.95 2.92229 -0.16881)
(68834.6 140.363 -9.65841)
(-73260.8 300.968 -10.4942)
(-6661.89 12.8025 -0.18938)
(6884.82 12.4837 -0.16626)
(71751.1 290.353 -9.525)
(-78625.6 902.049 -10.4057)
(-6854.37 294.938 -0.189312)
(7071.5 294.058 -0.166514)
(77069.9 893.059 -9.44738)
(-88682 9725.23 -10.7862)
(-7269.88 8170.63 -0.352691)
(7482.94 8143.67 -0.329627)
(87204.6 9652.15 -9.84682)
(-102764 109819 -22.2232)
(-8435.92 99843.2 -9.70135)
(8553.02 99091.2 -9.65196)
(101727 107308 -21.2942)
)
;

boundaryField
{
    interface
    {
        type            calculated;
        value           nonuniform List<vector> 
192
(
(-190227 32643 -109993)
(-189323 1130.47 -110092)
(-191354 179.836 -111135)
(-194866 291.614 -112896)
(-200787 568.438 -115881)
(-211038 1461.98 -121126)
(-229504 11921.3 -130831)
(-251346 143548 -143545)
(-163321 15135 -9142.62)
(-163368 553.744 -9720.79)
(-165269 88.811 -9762.3)
(-168573 146.889 -9814.86)
(-174276 296.974 -9909.74)
(-184499 915.029 -10089.4)
(-203778 10468.4 -10468.2)
(-229510 130837 -11921)
(-144006 13779.6 -850.91)
(-144088 510.792 -900.753)
(-145937 85.7706 -902.53)
(-149184 144.171 -903.246)
(-154842 293.914 -903.601)
(-165077 903.501 -903.269)
(-184508 10089.7 -914.789)
(-211054 121137 -1461.47)
(-133681 13383.3 -287.504)
(-133770 502.123 -299.918)
(-135619 86.3179 -299.673)
(-138879 145.819 -298.566)
(-144570 296.951 -296.507)
(-154858 903.841 -293.464)
(-174303 9910.24 -296.499)
(-200822 115901 -567.408)
(-127934 13192.1 -142.204)
(-128030 498.624 -147.705)
(-129892 87.123 -147.276)
(-133179 147.337 -146.269)
(-138909 299.016 -144.736)
(-149231 903.509 -143.058)
(-168632 9815.75 -145.696)
(-194936 112934 -289.016)
(-124660 13093.4 -73.1815)
(-124763 497.051 -75.8125)
(-126638 87.7544 -75.4697)
(-129948 148.359 -74.7847)
(-135706 300.162 -73.8573)
(-146044 902.88 -73.066)
(-165391 9764.28 -75.0253)
(-191490 111211 -151.768)
(-122864 13043.1 -35.1833)
(-122971 496.336 -36.3815)
(-124855 88.1509 -36.1773)
(-128180 148.949 -35.7984)
(-133955 300.735 -35.3225)
(-144298 902.341 -34.9925)
(-163603 9737.04 -36.1535)
(-189559 110251 -74.0436)
(-122065 13021.8 -10.4797)
(-122174 496.057 -10.8257)
(-124062 88.3374 -10.759)
(-127395 149.214 -10.6392)
(-133177 300.968 -10.4942)
(-143522 902.049 -10.4057)
(-162805 9725.23 -10.7862)
(-188689 109819 -22.2232)
(-103027 32643 -203015)
(-103079 1130.47 -202139)
(-104136 179.836 -204146)
(-105948 291.614 -207566)
(-109008 568.438 -213347)
(-114322 1461.98 -223482)
(-123928 11921.3 -242154)
(-135756 143548 -265415)
(-7927.15 16312.7 -184513)
(-8432.94 584.828 -184444)
(-8475.05 82.6749 -186242)
(-8531.18 135.146 -189365)
(-8632.07 279.499 -194796)
(-8820.23 901.314 -204710)
(-9192.52 10641.5 -224006)
(-10122.7 135490 -251114)
(8041.77 16282.9 -183234)
(8555.37 582.576 -183075)
(8592.67 81.5967 -184828)
(8644.33 134.591 -187929)
(8741.02 279.391 -193353)
(8926.62 901.528 -203273)
(9302.57 10618.9 -222589)
(10160.6 134778 -249736)
(102159 32909.8 -198684)
(102143 1135.73 -197509)
(103142 171.638 -199380)
(104900 283.492 -202733)
(107925 561.789 -208487)
(113260 1462.86 -218633)
(123069 11875.5 -237357)
(135599 141172 -260765)
(188207 32909.8 -107769)
(187145 1135.73 -107711)
(189066 171.638 -108684)
(192479 283.492 -110412)
(198335 561.789 -113383)
(208633 1462.86 -118636)
(227500 11875.5 -128372)
(250798 141172 -141171)
(160298 15527.1 -9080.45)
(160185 567.845 -9651.41)
(161957 82.7905 -9691.23)
(165127 138.554 -9743.44)
(170703 287.384 -9839.17)
(180869 908.766 -10021.6)
(200411 10406.3 -10406.4)
(227496 128372 -11875.6)
(140818 14178 -842.695)
(140723 524.958 -892.174)
(142439 79.6152 -894.033)
(145545 135.547 -894.862)
(151065 283.651 -895.467)
(161222 895.612 -895.716)
(180865 10021.5 -908.872)
(208625 118636 -1463)
(130558 13792.3 -277.977)
(130465 516.507 -289.885)
(132179 80.1024 -289.675)
(135300 137.12 -288.621)
(140854 286.53 -286.632)
(151060 895.36 -283.75)
(170694 9839.05 -287.486)
(198321 113383 -561.918)
(124908 13610.1 -134.757)
(124824 513.26 -139.811)
(126552 80.8794 -139.388)
(129702 138.59 -138.424)
(135298 288.522 -136.942)
(145538 894.758 -135.342)
(165115 9743.31 -138.312)
(192461 110414 -283.023)
(121718 13517.7 -68.177)
(121642 511.877 -70.496)
(123385 81.49 -70.1516)
(126559 139.565 -69.504)
(132185 289.612 -68.6228)
(142442 893.99 -67.8838)
(161957 9691.37 -70.0005)
(189058 108694 -147.192)
(119981 13471.4 -32.3234)
(119911 511.285 -33.3415)
(121665 81.8715 -33.1354)
(124855 140.118 -32.7816)
(130498 290.142 -32.3379)
(140760 893.381 -32.0399)
(160230 9664 -33.2693)
(187164 107737 -71.2609)
(119213 13452 -9.54939)
(119146 511.065 -9.83674)
(120905 82.0498 -9.76937)
(124102 140.363 -9.65841)
(129753 290.353 -9.525)
(140017 893.059 -9.44738)
(159462 9652.15 -9.84682)
(186315 107308 -21.2942)
(-135756 265420 -143545)
(-123931 242165 -11921)
(-114331 223503 -1461.47)
(-109026 213386 -567.408)
(-105983 207640 -289.016)
(-104206 204295 -151.768)
(-103211 202427 -74.0436)
(-102764 201586 -22.2232)
(-10122.7 251118 -135487)
(-9192.62 224014 -10641.4)
(-8820.48 204724 -901.142)
(-8632.61 194822 -279.126)
(-8532.27 189416 -134.069)
(-8477.48 186350 -68.1956)
(-8448.5 184665 -32.63)
(-8435.92 183914 -9.70135)
(10160.6 249739 -134776)
(9302.47 222593 -10618.8)
(8926.4 203281 -901.451)
(8740.61 193367 -279.197)
(8643.61 187959 -133.891)
(8591.65 184895 -67.991)
(8564.62 183212 -32.4884)
(8553.02 182462 -9.65196)
(135599 260766 -141171)
(123067 237358 -11875.6)
(113256 218632 -1463)
(107918 208487 -561.918)
(104891 202737 -283.023)
(103138 199399 -147.192)
(102164 197539 -71.2609)
(101727 196704 -21.2942)
)
;
    }
    symmetry
    {
        type            symmetry;
    }
    bottom
    {
        type            calculated;
        value           nonuniform List<vector> 
32
(
(-103027 63181 -109993)
(-88467.6 29239 -9142.62)
(-78413.7 26610.5 -850.91)
(-73067.1 25835.4 -287.504)
(-70101.5 25460.5 -142.204)
(-68417.2 25266.6 -73.1815)
(-67494.7 25167.7 -35.1833)
(-67084.9 25125.8 -10.4797)
(-7927.15 31528.9 -99636)
(-6798.39 2010.72 -7640.02)
(-6401.13 968.808 -270.248)
(-6216.96 929.724 -11.7737)
(-6125.11 921.713 -2.93344)
(-6077.49 917.99 -1.38268)
(-6053.19 916.182 -0.637865)
(-6042.87 915.438 -0.185909)
(8041.77 31472.4 -98973.8)
(6994.93 2045.44 -7616.6)
(6601.33 1005.97 -269.471)
(6422.48 967.553 -11.4861)
(6335.13 960.022 -2.73429)
(6290.66 956.616 -1.25627)
(6268.34 954.997 -0.568192)
(6258.97 954.343 -0.163641)
(102159 63696 -107769)
(87135.5 29990.4 -9080.45)
(77000.8 27374.1 -842.695)
(71691.8 26619.7 -277.977)
(68779.5 26262.2 -134.757)
(67140 26080.6 -68.177)
(66249.1 25989.5 -32.3234)
(65855.5 25951.3 -9.54939)
)
;
    }
}


// ************************************************************************* //
