/*--------------------------------*- C++ -*----------------------------------*\
| =========                 |                                                 |
| \\      /  F ield         | OpenFOAM: The Open Source CFD Toolbox           |
|  \\    /   O peration     | Version:  v1912                                 |
|   \\  /    A nd           | Website:  www.openfoam.com                      |
|    \\/     M anipulation  |                                                 |
\*---------------------------------------------------------------------------*/
FoamFile
{
    version     2.0;
    format      ascii;
    class       pointVectorField;
    location    "0.14/solid";
    object      pointDD;
}
// * * * * * * * * * * * * * * * * * * * * * * * * * * * * * * * * * * * * * //

dimensions      [0 1 0 0 0 0 0];


internalField   nonuniform List<vector> 
405
(
(3.11289e-10 9.64365e-10 4.03123e-10)
(2.57512e-10 6.39026e-10 -7.46903e-11)
(8.26716e-12 4.83589e-10 -2.39811e-10)
(-2.3498e-10 6.36794e-10 -6.67728e-11)
(-2.24686e-10 9.34135e-10 4.25382e-10)
(6.87873e-10 9.36999e-10 1.1351e-09)
(6.89315e-10 8.80769e-10 3.52948e-10)
(3.86511e-11 6.60372e-10 1.13671e-11)
(-5.98368e-10 8.60685e-10 3.83498e-10)
(-5.13719e-10 8.71232e-10 1.19335e-09)
(9.2258e-10 -9.13519e-12 2.04955e-09)
(8.82484e-10 9.20442e-11 1.2494e-09)
(8.52373e-11 1.60144e-12 8.99745e-10)
(-6.97196e-10 4.23422e-11 1.3025e-09)
(-6.58515e-10 -1.15171e-10 2.14664e-09)
(9.17451e-10 -8.2123e-10 2.77408e-09)
(8.88972e-10 -6.79849e-10 1.99213e-09)
(1.3627e-10 -7.31931e-10 1.6439e-09)
(-6.0251e-10 -7.55194e-10 2.05759e-09)
(-5.57385e-10 -9.64733e-10 2.89331e-09)
(9.13592e-10 -1.55334e-09 3.45461e-09)
(8.86596e-10 -1.44645e-09 2.68472e-09)
(1.91902e-10 -1.52089e-09 2.32805e-09)
(-4.89519e-10 -1.54319e-09 2.75734e-09)
(-4.47358e-10 -1.72988e-09 3.58681e-09)
(1.03049e-09 -2.2694e-09 4.16937e-09)
(9.72779e-10 -2.23323e-09 3.39998e-09)
(2.52848e-10 -2.35475e-09 3.02767e-09)
(-4.54262e-10 -2.34819e-09 3.47676e-09)
(-4.4684e-10 -2.47515e-09 4.3094e-09)
(1.39829e-09 -3.09846e-09 4.99087e-09)
(1.25041e-09 -3.11291e-09 4.1983e-09)
(3.19449e-10 -3.24532e-09 3.81025e-09)
(-5.99053e-10 -3.24443e-09 4.27753e-09)
(-6.84887e-10 -3.33131e-09 5.13607e-09)
(2.23357e-09 -4.62622e-09 6.05871e-09)
(1.75802e-09 -4.53767e-09 5.35821e-09)
(3.91129e-10 -4.51846e-09 4.982e-09)
(-9.63007e-10 -4.68457e-09 5.43889e-09)
(-1.37238e-09 -4.88489e-09 6.20767e-09)
(2.91523e-09 -5.55042e-09 6.82936e-09)
(2.07254e-09 -5.20356e-09 6.50489e-09)
(4.36455e-10 -4.96333e-09 6.23187e-09)
(-1.18621e-09 -5.35468e-09 6.58956e-09)
(-1.98239e-09 -5.80711e-09 6.97419e-09)
(-2.71569e-10 3.84438e-10 3.09323e-10)
(0 0 0)
(0 0 0)
(0 0 0)
(3.64394e-10 3.46927e-10 3.25974e-10)
(-4.19507e-10 3.24535e-10 1.08933e-09)
(0 0 0)
(0 0 0)
(0 0 0)
(6.39936e-10 2.30375e-10 1.14663e-09)
(-2.86479e-10 -5.12965e-10 1.93777e-09)
(0 0 0)
(0 0 0)
(0 0 0)
(5.81297e-10 -6.4584e-10 2.03447e-09)
(-2.84394e-10 -1.25894e-09 2.64856e-09)
(0 0 0)
(0 0 0)
(0 0 0)
(6.64774e-10 -1.42961e-09 2.77024e-09)
(-2.65052e-10 -1.9496e-09 3.30769e-09)
(0 0 0)
(0 0 0)
(0 0 0)
(7.43816e-10 -2.1551e-09 3.44501e-09)
(-1.30415e-10 -2.6132e-09 3.98763e-09)
(0 0 0)
(0 0 0)
(0 0 0)
(7.20515e-10 -2.85061e-09 4.13502e-09)
(2.3082e-10 -3.32139e-09 4.74081e-09)
(0 0 0)
(0 0 0)
(0 0 0)
(4.84869e-10 -3.58898e-09 4.89509e-09)
(1.16022e-09 -4.5675e-09 5.49993e-09)
(0 0 0)
(0 0 0)
(0 0 0)
(-2.9391e-10 -4.86321e-09 5.65871e-09)
(2.26026e-09 -5.13334e-09 5.95172e-09)
(1.79302e-09 -4.45862e-09 5.97261e-09)
(4.25917e-10 -4.1162e-09 5.9216e-09)
(-9.28121e-10 -4.60705e-09 6.05388e-09)
(-1.34616e-09 -5.40177e-09 6.09308e-09)
(-6.19679e-10 1.64616e-11 1.01813e-10)
(0 0 0)
(0 0 0)
(0 0 0)
(7.01378e-10 -1.50795e-11 1.13842e-10)
(-1.21947e-09 -3.21795e-10 5.63446e-10)
(0 0 0)
(0 0 0)
(0 0 0)
(1.40772e-09 -4.05465e-10 6.05681e-10)
(-1.20369e-09 -1.01604e-09 1.28518e-09)
(0 0 0)
(0 0 0)
(0 0 0)
(1.4496e-09 -1.14071e-09 1.35858e-09)
(-1.21068e-09 -1.68262e-09 1.976e-09)
(0 0 0)
(0 0 0)
(0 0 0)
(1.53054e-09 -1.84657e-09 2.0714e-09)
(-1.18393e-09 -2.3212e-09 2.61701e-09)
(0 0 0)
(0 0 0)
(0 0 0)
(1.59411e-09 -2.52135e-09 2.72763e-09)
(-1.04438e-09 -2.90684e-09 3.23964e-09)
(0 0 0)
(0 0 0)
(0 0 0)
(1.56062e-09 -3.14036e-09 3.36073e-09)
(-6.7764e-10 -3.44557e-09 3.83222e-09)
(0 0 0)
(0 0 0)
(0 0 0)
(1.31646e-09 -3.71068e-09 3.96037e-09)
(2.65467e-10 -4.34447e-09 4.24662e-09)
(0 0 0)
(0 0 0)
(0 0 0)
(5.22246e-10 -4.63851e-09 4.3788e-09)
(1.46023e-09 -4.60071e-09 4.42039e-09)
(1.32127e-09 -3.83503e-09 4.54773e-09)
(3.90975e-10 -3.48224e-09 4.6507e-09)
(-5.26913e-10 -3.98404e-09 4.61529e-09)
(-6.2138e-10 -4.86858e-09 4.5376e-09)
(-7.33119e-10 -1.16449e-10 1.05852e-10)
(0 0 0)
(0 0 0)
(0 0 0)
(8.11442e-10 -1.42219e-10 1.14735e-10)
(-1.51232e-09 -5.86735e-10 5.1029e-10)
(0 0 0)
(0 0 0)
(0 0 0)
(1.68756e-09 -6.58269e-10 5.41448e-10)
(-1.57509e-09 -1.27532e-09 1.12458e-09)
(0 0 0)
(0 0 0)
(0 0 0)
(1.79628e-09 -1.38783e-09 1.17928e-09)
(-1.5903e-09 -1.92188e-09 1.73861e-09)
(0 0 0)
(0 0 0)
(0 0 0)
(1.87554e-09 -2.0752e-09 1.81115e-09)
(-1.5532e-09 -2.51031e-09 2.31348e-09)
(0 0 0)
(0 0 0)
(0 0 0)
(1.92097e-09 -2.70188e-09 2.39945e-09)
(-1.40088e-09 -2.99898e-09 2.83925e-09)
(0 0 0)
(0 0 0)
(0 0 0)
(1.8692e-09 -3.22613e-09 2.93505e-09)
(-1.01877e-09 -3.3916e-09 3.27616e-09)
(0 0 0)
(0 0 0)
(0 0 0)
(1.60637e-09 -3.65252e-09 3.37871e-09)
(-6.93453e-11 -4.13102e-09 3.52273e-09)
(0 0 0)
(0 0 0)
(0 0 0)
(8.04272e-10 -4.42284e-09 3.62915e-09)
(1.11989e-09 -4.31929e-09 3.58504e-09)
(1.07409e-09 -3.57818e-09 3.67107e-09)
(3.62147e-10 -3.24259e-09 3.76745e-09)
(-3.37446e-10 -3.72761e-09 3.72582e-09)
(-3.36557e-10 -4.58683e-09 3.67982e-09)
(-7.82783e-10 -1.57545e-10 1.08539e-10)
(0 0 0)
(0 0 0)
(0 0 0)
(8.60189e-10 -1.79201e-10 1.15199e-10)
(-1.63589e-09 -6.78131e-10 4.66282e-10)
(0 0 0)
(0 0 0)
(0 0 0)
(1.80506e-09 -7.40106e-10 4.89423e-10)
(-1.7294e-09 -1.38216e-09 9.72398e-10)
(0 0 0)
(0 0 0)
(0 0 0)
(1.93615e-09 -1.48367e-09 1.01295e-09)
(-1.74869e-09 -2.02668e-09 1.47484e-09)
(0 0 0)
(0 0 0)
(0 0 0)
(2.01164e-09 -2.16954e-09 1.52905e-09)
(-1.7043e-09 -2.58051e-09 1.94322e-09)
(0 0 0)
(0 0 0)
(0 0 0)
(2.04303e-09 -2.76325e-09 2.00828e-09)
(-1.54178e-09 -3.00355e-09 2.35289e-09)
(0 0 0)
(0 0 0)
(0 0 0)
(1.97588e-09 -3.22402e-09 2.42626e-09)
(-1.14964e-09 -3.32169e-09 2.66696e-09)
(0 0 0)
(0 0 0)
(0 0 0)
(1.69967e-09 -3.57837e-09 2.74621e-09)
(-1.97069e-10 -4.00775e-09 2.83493e-09)
(0 0 0)
(0 0 0)
(0 0 0)
(8.92762e-10 -4.29789e-09 2.91772e-09)
(1.00938e-09 -4.16176e-09 2.86358e-09)
(1.00306e-09 -3.4213e-09 2.89374e-09)
(3.39614e-10 -3.10245e-09 2.94681e-09)
(-3.11523e-10 -3.5712e-09 2.93685e-09)
(-2.68461e-10 -4.42956e-09 2.93783e-09)
(-8.06622e-10 -1.68279e-10 9.15407e-11)
(0 0 0)
(0 0 0)
(0 0 0)
(8.84031e-10 -1.87133e-10 9.63282e-11)
(-1.68673e-09 -7.03502e-10 3.76206e-10)
(0 0 0)
(0 0 0)
(0 0 0)
(1.85303e-09 -7.58665e-10 3.92723e-10)
(-1.78408e-09 -1.41445e-09 7.62937e-10)
(0 0 0)
(0 0 0)
(0 0 0)
(1.98211e-09 -1.50757e-09 7.91785e-10)
(-1.80235e-09 -2.05706e-09 1.14042e-09)
(0 0 0)
(0 0 0)
(0 0 0)
(2.05074e-09 -2.19145e-09 1.1791e-09)
(-1.75339e-09 -2.59189e-09 1.48816e-09)
(0 0 0)
(0 0 0)
(0 0 0)
(2.07223e-09 -2.76718e-09 1.53488e-09)
(-1.58508e-09 -2.98394e-09 1.7841e-09)
(0 0 0)
(0 0 0)
(0 0 0)
(1.99498e-09 -3.1987e-09 1.83718e-09)
(-1.18823e-09 -3.27579e-09 2.00357e-09)
(0 0 0)
(0 0 0)
(0 0 0)
(1.71113e-09 -3.52894e-09 2.06125e-09)
(-2.34437e-10 -3.94847e-09 2.12398e-09)
(0 0 0)
(0 0 0)
(0 0 0)
(9.01509e-10 -4.23754e-09 2.18457e-09)
(9.91734e-10 -4.07841e-09 2.14451e-09)
(1.00168e-09 -3.32818e-09 2.1466e-09)
(3.22909e-10 -3.01964e-09 2.16923e-09)
(-3.43642e-10 -3.4786e-09 2.17852e-09)
(-2.82126e-10 -4.3468e-09 2.1992e-09)
(-8.20567e-10 -1.70317e-10 6.42002e-11)
(0 0 0)
(0 0 0)
(0 0 0)
(8.98224e-10 -1.87349e-10 6.72963e-11)
(-1.71238e-09 -7.07358e-10 2.59123e-10)
(0 0 0)
(0 0 0)
(0 0 0)
(1.87731e-09 -7.58013e-10 2.69763e-10)
(-1.80588e-09 -1.41767e-09 5.18654e-10)
(0 0 0)
(0 0 0)
(0 0 0)
(1.99868e-09 -1.50505e-09 5.37195e-10)
(-1.82115e-09 -2.05681e-09 7.68631e-10)
(0 0 0)
(0 0 0)
(0 0 0)
(2.06032e-09 -2.1852e-09 7.93505e-10)
(-1.76934e-09 -2.58295e-09 9.96367e-10)
(0 0 0)
(0 0 0)
(0 0 0)
(2.07517e-09 -2.75283e-09 1.02651e-09)
(-1.59842e-09 -2.96457e-09 1.18744e-09)
(0 0 0)
(0 0 0)
(0 0 0)
(1.99215e-09 -3.17513e-09 1.22183e-09)
(-1.19997e-09 -3.25126e-09 1.32807e-09)
(0 0 0)
(0 0 0)
(0 0 0)
(1.70452e-09 -3.50188e-09 1.3656e-09)
(-2.4559e-10 -3.9231e-09 1.40842e-09)
(0 0 0)
(0 0 0)
(0 0 0)
(8.93205e-10 -4.21154e-09 1.44799e-09)
(9.96009e-10 -4.03634e-09 1.42483e-09)
(1.01347e-09 -3.2741e-09 1.41983e-09)
(3.11487e-10 -2.96981e-09 1.42795e-09)
(-3.78376e-10 -3.425e-09 1.44088e-09)
(-3.07796e-10 -4.30536e-09 1.46072e-09)
(-8.28773e-10 -1.70462e-10 3.27722e-11)
(0 0 0)
(0 0 0)
(0 0 0)
(9.06638e-10 -1.86465e-10 3.42909e-11)
(-1.72692e-09 -7.06241e-10 1.31228e-10)
(0 0 0)
(0 0 0)
(0 0 0)
(1.89122e-09 -7.54333e-10 1.36436e-10)
(-1.81711e-09 -1.41379e-09 2.61061e-10)
(0 0 0)
(0 0 0)
(0 0 0)
(2.00708e-09 -1.49786e-09 2.70126e-10)
(-1.82998e-09 -2.0499e-09 3.85154e-10)
(0 0 0)
(0 0 0)
(0 0 0)
(2.06401e-09 -2.17477e-09 3.97318e-10)
(-1.77656e-09 -2.57271e-09 4.97438e-10)
(0 0 0)
(0 0 0)
(0 0 0)
(2.07501e-09 -2.73937e-09 5.12201e-10)
(-1.60463e-09 -2.95223e-09 5.9107e-10)
(0 0 0)
(0 0 0)
(0 0 0)
(1.98909e-09 -3.16028e-09 6.07946e-10)
(-1.20582e-09 -3.2399e-09 6.60066e-10)
(0 0 0)
(0 0 0)
(0 0 0)
(1.69978e-09 -3.48902e-09 6.78519e-10)
(-2.51121e-10 -3.91358e-09 7.00631e-10)
(0 0 0)
(0 0 0)
(0 0 0)
(8.87481e-10 -4.20172e-09 7.20124e-10)
(9.9994e-10 -4.01718e-09 7.10162e-10)
(1.0214e-09 -3.24591e-09 7.06614e-10)
(3.04886e-10 -2.94268e-09 7.09038e-10)
(-3.99577e-10 -3.39714e-09 7.17054e-10)
(-3.24111e-10 -4.28667e-09 7.27903e-10)
(-5.96767e-10 -1.95073e-10 0)
(-5.45308e-11 -1.36566e-10 0)
(-1.50984e-12 -1.52384e-10 0)
(5.52475e-11 -1.4362e-10 0)
(6.51697e-10 -2.13005e-10 0)
(-9.62417e-10 -6.69555e-10 0)
(-1.58376e-10 -6.51124e-10 0)
(2.77448e-13 -6.74316e-10 0)
(1.67529e-10 -6.75014e-10 0)
(1.05335e-09 -7.11383e-10 0)
(-1.05422e-09 -1.39562e-09 0)
(-2.26372e-10 -1.38701e-09 0)
(1.19564e-11 -1.40568e-09 0)
(2.60053e-10 -1.43091e-09 0)
(1.17048e-09 -1.46985e-09 0)
(-1.07743e-09 -2.04535e-09 0)
(-2.4588e-10 -2.06445e-09 0)
(3.39971e-11 -2.10125e-09 0)
(3.23777e-10 -2.12887e-09 0)
(1.23751e-09 -2.15526e-09 0)
(-1.03861e-09 -2.58995e-09 0)
(-2.2108e-10 -2.66496e-09 0)
(6.68308e-11 -2.74018e-09 0)
(3.64875e-10 -2.74993e-09 0)
(1.26361e-09 -2.73624e-09 0)
(-8.79293e-10 -3.01804e-09 0)
(-1.05372e-10 -3.18859e-09 0)
(1.1068e-10 -3.31574e-09 0)
(3.37169e-10 -3.29394e-09 0)
(1.19113e-09 -3.20047e-09 0)
(-4.73321e-10 -3.38563e-09 0)
(1.97291e-10 -3.6478e-09 0)
(1.65272e-10 -3.7926e-09 0)
(1.44142e-10 -3.77363e-09 0)
(8.94735e-10 -3.60415e-09 0)
(3.93521e-10 -4.07517e-09 0)
(7.20564e-10 -4.20589e-09 0)
(2.29624e-10 -4.2088e-09 0)
(-2.4935e-10 -4.35139e-09 0)
(1.64418e-10 -4.32859e-09 0)
(1.17506e-09 -4.24594e-09 0)
(1.02754e-09 -3.8923e-09 0)
(2.83399e-10 -3.67628e-09 0)
(-4.48356e-10 -4.04539e-09 0)
(-5.42651e-10 -4.50359e-09 0)
)
;

boundaryField
{
    interface
    {
        type            calculated;
    }
    symmetry
    {
        type            symmetry;
    }
    bottom
    {
        type            calculated;
    }
}


// ************************************************************************* //
