/*--------------------------------*- C++ -*----------------------------------*\
| =========                 |                                                 |
| \\      /  F ield         | OpenFOAM: The Open Source CFD Toolbox           |
|  \\    /   O peration     | Version:  v1912                                 |
|   \\  /    A nd           | Website:  www.openfoam.com                      |
|    \\/     M anipulation  |                                                 |
\*---------------------------------------------------------------------------*/
FoamFile
{
    version     2.0;
    format      ascii;
    class       volScalarField;
    location    "0.14/solid";
    object      sigmaEq;
}
// * * * * * * * * * * * * * * * * * * * * * * * * * * * * * * * * * * * * * //

dimensions      [1 -1 -2 0 0 0 0];


internalField   nonuniform List<scalar> 
256
(
517356
470878
467496
508172
414496
436259
432106
404596
431769
442996
438753
422305
451195
455453
451257
442106
473575
475354
471212
464692
505546
506449
502357
496842
511078
530281
526363
503493
56204.4
560965
557057
48477.5
431573
98538.5
97192.9
422448
390047
81452.1
79868.2
380883
396590
73129
71715.7
387497
408745
73015.3
71735.4
399532
426372
77743.8
76536.6
416945
452023
74256.4
73153.7
442535
468333
35022.4
34517.2
460067
511063
530321
526512
503825
401534
80001.2
78574.5
392805
377239
89956.6
88315.6
367712
385177
88641.5
87113
375476
396008
87876.1
86411.5
386069
411656
89360.2
87908.8
401425
434881
84166
82790.8
424526
452126
73515.2
72733.5
442879
505502
506449
502564
497580
378471
74992.8
73808.5
370769
357210
92452.9
91056.8
348361
366302
94299.9
92928.3
357097
376562
93367.3
92020.3
367027
390661
93333.9
91993
380797
411675
87205.3
85955.3
401672
426771
75427
74775.7
417843
474186
475559
471748
466666
364723
71005.8
70064.8
357942
344074
88840.7
87692.2
335990
353375
91061.2
89886.7
344824
363221
89681
88507.3
354268
376369
88543.7
87369.8
367050
396071
81210.4
80124.3
386585
409839
66943.6
66485.7
401399
454549
456484
452749
447517
356104
67639.9
66879.7
350004
335658
84392.8
83430.6
328184
344794
86036.8
85023.1
336796
354300
84153.3
83126.9
345851
366893
82393.3
81355.5
358042
385896
74390.3
73424.9
376845
398955
58662.6
58360.8
390921
442468
445567
441892
435839
350919
65170.8
64530
345260
330587
81066.3
80229.5
323525
339532
82171.3
81270.5
331916
348801
79947.1
79025.3
340706
361091
77928.8
76983.9
352566
379751
69704
68815.9
371000
392443
53278.7
53083
384689
435271
439659
436024
428921
348466
63857.3
63276.5
343024
328197
79366.1
78593.5
321341
337035
80212
79370.2
329615
346187
77838.4
76971.3
338274
358344
75744.2
74847
349987
376866
67478.8
66629.3
368267
389400
50777.5
50635.8
381789
431876
437052
433437
425669
)
;

boundaryField
{
    interface
    {
        type            calculated;
        value           nonuniform List<scalar> 
192
(
758357
651396
672640
697098
727288
774271
810982
426253
763457
709634
721093
740808
770462
819754
880693
810972
696039
657052
668956
687195
714660
760828
819994
774342
651757
615287
627884
645488
671417
715126
771350
728214
627136
591570
604309
621494
646510
688799
743261
701177
612625
577692
590364
607236
631706
673207
726672
685079
604258
569734
582314
598978
623141
664225
717146
675685
600394
566064
578588
595151
619176
660082
712761
671303
805067
702554
722985
746266
775395
822048
862041
516982
844876
797654
810283
830656
862453
916476
984193
907153
838648
790431
802861
823233
855064
909133
977025
901207
788474
684403
704996
728567
757895
804664
845102
503015
749839
642337
663771
688329
718525
765730
804546
436440
749453
695042
706294
725616
754804
803878
866358
804810
682194
641885
653344
671064
697962
743801
804294
766447
639135
600971
612942
629932
655250
698599
756062
720580
615652
578212
590215
606714
631082
672984
728628
694096
601999
565104
576984
593123
616911
657996
712599
678500
594198
557671
569433
585337
608793
649439
703470
669471
590614
554266
565962
581753
605058
645513
699288
665278
517024
862037
822064
776155
749995
734751
725951
721857
907181
984231
916589
863068
832872
815995
806844
802785
901244
977149
909412
855946
825820
809005
799900
795865
503105
845383
805342
759814
734035
719107
710526
706546
)
;
    }
    symmetry
    {
        type            symmetry;
    }
    bottom
    {
        type            calculated;
        value           nonuniform List<scalar> 
32
(
616718
473741
436884
413769
399819
390874
385449
382880
508905
113552
83651
76177.6
71980.8
68829.7
66577.1
65378.4
505887
112117
82186.2
75046.3
71133
68179.6
66055.6
64921.6
608294
464555
428540
406776
393933
385776
380853
378527
)
;
    }
}


// ************************************************************************* //
