/*--------------------------------*- C++ -*----------------------------------*\
| =========                 |                                                 |
| \\      /  F ield         | OpenFOAM: The Open Source CFD Toolbox           |
|  \\    /   O peration     | Version:  v1912                                 |
|   \\  /    A nd           | Website:  www.openfoam.com                      |
|    \\/     M anipulation  |                                                 |
\*---------------------------------------------------------------------------*/
FoamFile
{
    version     2.0;
    format      ascii;
    class       volVectorField;
    location    "0.14/solid";
    object      U;
}
// * * * * * * * * * * * * * * * * * * * * * * * * * * * * * * * * * * * * * //

dimensions      [0 1 -1 0 0 0 0];


internalField   nonuniform List<vector> 
256
(
(9.4757e-08 7.05878e-08 1.1803e-07)
(1.74325e-08 2.71193e-08 8.38932e-08)
(-1.50878e-08 2.64979e-08 8.47489e-08)
(-9.00038e-08 6.69817e-08 1.21064e-07)
(1.44266e-07 1.22161e-08 2.35479e-07)
(3.65192e-08 -1.11999e-08 1.94205e-07)
(-2.67214e-08 -1.32352e-08 1.96423e-07)
(-1.31324e-07 4.88418e-09 2.42716e-07)
(1.45454e-07 -6.17e-08 3.11563e-07)
(4.07501e-08 -6.9695e-08 2.73081e-07)
(-2.20007e-08 -7.30199e-08 2.76154e-07)
(-1.23714e-07 -7.24313e-08 3.21287e-07)
(1.39838e-07 -1.35461e-07 3.7693e-07)
(4.13547e-08 -1.41566e-07 3.38815e-07)
(-1.24614e-08 -1.45983e-07 3.4238e-07)
(-1.0812e-07 -1.49206e-07 3.88086e-07)
(1.41192e-07 -2.10932e-07 4.42123e-07)
(4.50209e-08 -2.23837e-07 4.02391e-07)
(-4.78299e-09 -2.29199e-07 4.06245e-07)
(-9.82403e-08 -2.27339e-07 4.54122e-07)
(1.60852e-07 -2.92946e-07 5.15416e-07)
(5.71845e-08 -3.15326e-07 4.73333e-07)
(-4.38145e-09 -3.21537e-07 4.77377e-07)
(-1.0543e-07 -3.11753e-07 5.27964e-07)
(2.16739e-07 -4.00232e-07 6.07049e-07)
(8.27359e-08 -4.16857e-07 5.6346e-07)
(-1.61922e-08 -4.23882e-07 5.67653e-07)
(-1.47632e-07 -4.21377e-07 6.20044e-07)
(3.11069e-07 -5.94215e-07 7.12614e-07)
(1.09899e-07 -5.55816e-07 6.70927e-07)
(-2.86713e-08 -5.63405e-07 6.75198e-07)
(-2.27107e-07 -6.17587e-07 7.25917e-07)
(3.15868e-08 2.67163e-09 4.49316e-08)
(5.22703e-09 -2.01729e-08 5.09978e-08)
(-4.03162e-09 -2.10129e-08 5.17356e-08)
(-2.83095e-08 -1.16677e-09 4.7125e-08)
(5.14528e-08 -5.36817e-08 1.37491e-07)
(1.40182e-08 -6.74515e-08 1.49993e-07)
(-7.38723e-09 -6.98015e-08 1.51844e-07)
(-4.21838e-08 -6.14431e-08 1.42939e-07)
(5.09081e-08 -1.17302e-07 2.14739e-07)
(1.64833e-08 -1.23339e-07 2.30271e-07)
(-2.42386e-09 -1.26882e-07 2.32871e-07)
(-3.43508e-08 -1.28305e-07 2.22385e-07)
(4.69876e-08 -1.85398e-07 2.81295e-07)
(1.74157e-08 -1.9155e-07 2.97386e-07)
(5.72163e-09 -1.96085e-07 3.00456e-07)
(-2.14703e-08 -1.99251e-07 2.90349e-07)
(4.92021e-08 -2.57329e-07 3.45429e-07)
(2.1374e-08 -2.70466e-07 3.60851e-07)
(1.23813e-08 -2.75891e-07 3.64218e-07)
(-1.31311e-08 -2.7377e-07 3.5539e-07)
(6.90571e-08 -3.32685e-07 4.12878e-07)
(3.36351e-08 -3.55336e-07 4.27268e-07)
(1.21868e-08 -3.61589e-07 4.30835e-07)
(-2.09611e-08 -3.51524e-07 4.23451e-07)
(1.25021e-07 -4.15913e-07 4.80387e-07)
(5.92052e-08 -4.32693e-07 4.94006e-07)
(8.83725e-12 -4.39753e-07 4.97709e-07)
(-6.35169e-08 -4.37096e-07 4.91377e-07)
(2.20347e-07 -5.42138e-07 5.18428e-07)
(8.63247e-08 -5.01963e-07 5.31974e-07)
(-1.26523e-08 -5.09575e-07 5.35734e-07)
(-1.44132e-07 -5.6546e-07 5.29594e-07)
(-7.405e-10 -1.58122e-08 3.02901e-08)
(-5.58387e-09 -2.86501e-08 4.06796e-08)
(6.04387e-09 -2.94373e-08 4.12427e-08)
(3.09375e-09 -1.91638e-08 3.19376e-08)
(-3.39869e-09 -8.48996e-08 1.02686e-07)
(-6.77084e-09 -9.16006e-08 1.21566e-07)
(1.11879e-08 -9.3864e-08 1.22976e-07)
(1.02043e-08 -9.20494e-08 1.06766e-07)
(-6.94855e-09 -1.51192e-07 1.72691e-07)
(-6.39132e-09 -1.55002e-07 1.94193e-07)
(1.69431e-08 -1.58448e-07 1.96198e-07)
(1.97808e-08 -1.61642e-07 1.78518e-07)
(-9.41649e-09 -2.16386e-07 2.36395e-07)
(-5.22422e-09 -2.226e-07 2.58254e-07)
(2.38298e-08 -2.27041e-07 2.60667e-07)
(3.02284e-08 -2.29768e-07 2.43461e-07)
(-5.83524e-09 -2.80885e-07 2.95917e-07)
(-9.52843e-10 -2.94719e-07 3.17334e-07)
(2.94157e-08 -3.0006e-07 3.20028e-07)
(3.64796e-08 -2.9695e-07 3.03857e-07)
(1.51729e-08 -3.41996e-07 3.5175e-07)
(1.14581e-08 -3.65433e-07 3.7246e-07)
(2.85379e-08 -3.7162e-07 3.7535e-07)
(2.69995e-08 -3.60558e-07 3.60304e-07)
(7.23209e-08 -4.02116e-07 3.96202e-07)
(3.71238e-08 -4.19731e-07 4.16215e-07)
(1.59197e-08 -4.26745e-07 4.19234e-07)
(-1.70453e-08 -4.23117e-07 4.05155e-07)
(1.67831e-07 -5.04096e-07 4.10705e-07)
(6.43333e-08 -4.65552e-07 4.30559e-07)
(2.96422e-09 -4.73131e-07 4.33631e-07)
(-9.79992e-08 -5.27299e-07 4.19823e-07)
(-1.09133e-08 -2.12585e-08 2.57147e-08)
(-9.31704e-09 -2.96562e-08 3.13753e-08)
(9.32587e-09 -3.03677e-08 3.18167e-08)
(1.26766e-08 -2.41925e-08 2.70029e-08)
(-2.29845e-08 -9.72052e-08 8.35997e-08)
(-1.50913e-08 -1.00337e-07 9.4317e-08)
(1.80231e-08 -1.0242e-07 9.5404e-08)
(2.81498e-08 -1.03627e-07 8.67219e-08)
(-2.87443e-08 -1.67415e-07 1.419e-07)
(-1.61621e-08 -1.69853e-07 1.5429e-07)
(2.42117e-08 -1.73098e-07 1.55831e-07)
(3.89611e-08 -1.77114e-07 1.46352e-07)
(-3.06003e-08 -2.31349e-07 1.96788e-07)
(-1.5057e-08 -2.37581e-07 2.09408e-07)
(3.02756e-08 -2.4184e-07 2.11276e-07)
(4.79483e-08 -2.44074e-07 2.02243e-07)
(-2.58671e-08 -2.89385e-07 2.46809e-07)
(-1.05769e-08 -3.03786e-07 2.59104e-07)
(3.49482e-08 -3.08979e-07 2.61213e-07)
(5.23707e-08 -3.04926e-07 2.53019e-07)
(-3.66097e-09 -3.3984e-07 2.8959e-07)
(2.02766e-09 -3.64018e-07 3.01335e-07)
(3.33636e-08 -3.70096e-07 3.03617e-07)
(4.12026e-08 -3.58026e-07 2.96348e-07)
(5.44996e-08 -3.88956e-07 3.19273e-07)
(2.7809e-08 -4.07625e-07 3.30444e-07)
(2.02986e-08 -4.14577e-07 3.32843e-07)
(-4.16259e-09 -4.09747e-07 3.26393e-07)
(1.50225e-07 -4.85168e-07 3.28094e-07)
(5.51676e-08 -4.49024e-07 3.39239e-07)
(7.02301e-09 -4.56588e-07 3.41698e-07)
(-8.54814e-08 -5.08343e-07 3.35393e-07)
(-1.29051e-08 -2.33067e-08 2.12444e-08)
(-9.72663e-09 -2.99621e-08 2.33646e-08)
(9.45318e-09 -3.06154e-08 2.36992e-08)
(1.42798e-08 -2.59438e-08 2.22188e-08)
(-2.70096e-08 -1.01441e-07 6.63434e-08)
(-1.65987e-08 -1.03166e-07 7.04983e-08)
(1.85403e-08 -1.0509e-07 7.13132e-08)
(3.10686e-08 -1.07277e-07 6.86701e-08)
(-3.34305e-08 -1.73305e-07 1.11646e-07)
(-1.82583e-08 -1.75163e-07 1.16553e-07)
(2.4565e-08 -1.78214e-07 1.17703e-07)
(4.18243e-08 -1.8234e-07 1.14951e-07)
(-3.50337e-08 -2.36359e-07 1.54638e-07)
(-1.73008e-08 -2.42626e-07 1.59652e-07)
(3.00743e-08 -2.46702e-07 1.61048e-07)
(4.98862e-08 -2.48468e-07 1.58699e-07)
(-2.9644e-08 -2.90597e-07 1.93067e-07)
(-1.27764e-08 -3.0535e-07 1.97879e-07)
(3.41116e-08 -3.10393e-07 1.99464e-07)
(5.30821e-08 -3.05636e-07 1.97721e-07)
(-6.70046e-09 -3.35926e-07 2.24263e-07)
(-8.50688e-11 -3.60614e-07 2.28724e-07)
(3.19926e-08 -3.66588e-07 2.30448e-07)
(4.07467e-08 -3.53761e-07 2.29362e-07)
(5.2028e-08 -3.81617e-07 2.44877e-07)
(2.57495e-08 -4.0108e-07 2.48968e-07)
(1.85833e-08 -4.07982e-07 2.5079e-07)
(-5.46157e-09 -4.0224e-07 2.50278e-07)
(1.48026e-07 -4.76654e-07 2.52084e-07)
(5.32502e-08 -4.42225e-07 2.56169e-07)
(5.03425e-09 -4.49794e-07 2.5805e-07)
(-8.7181e-08 -4.99869e-07 2.57661e-07)
(-1.29287e-08 -2.41039e-08 1.58424e-08)
(-9.42325e-09 -3.01448e-08 1.64044e-08)
(8.97244e-09 -3.07579e-08 1.66384e-08)
(1.40484e-08 -2.65382e-08 1.65223e-08)
(-2.67623e-08 -1.02499e-07 4.82502e-08)
(-1.62472e-08 -1.03814e-07 4.93797e-08)
(1.75404e-08 -1.05624e-07 4.99464e-08)
(3.00865e-08 -1.07921e-07 4.98611e-08)
(-3.30028e-08 -1.74472e-07 8.03864e-08)
(-1.8016e-08 -1.76186e-07 8.17395e-08)
(2.31498e-08 -1.7909e-07 8.25369e-08)
(4.01628e-08 -1.83011e-07 8.26675e-08)
(-3.4401e-08 -2.36794e-07 1.10738e-07)
(-1.71575e-08 -2.43121e-07 1.12109e-07)
(2.82459e-08 -2.47052e-07 1.13078e-07)
(4.75297e-08 -2.48424e-07 1.13544e-07)
(-2.87109e-08 -2.89353e-07 1.37507e-07)
(-1.26794e-08 -3.04299e-07 1.38771e-07)
(3.18808e-08 -3.09221e-07 1.39872e-07)
(4.99929e-08 -3.03993e-07 1.40734e-07)
(-5.43901e-09 -3.33013e-07 1.58765e-07)
(6.17573e-13 -3.57988e-07 1.59848e-07)
(2.94232e-08 -3.6388e-07 1.6105e-07)
(3.6993e-08 -3.50572e-07 1.62315e-07)
(5.35661e-08 -3.78246e-07 1.72793e-07)
(2.58432e-08 -3.98133e-07 1.73679e-07)
(1.57773e-08 -4.05001e-07 1.74955e-07)
(-9.7095e-09 -3.98749e-07 1.76569e-07)
(1.49831e-07 -4.73109e-07 1.78543e-07)
(5.34486e-08 -4.39479e-07 1.79409e-07)
(2.03023e-09 -4.47063e-07 1.80734e-07)
(-9.17935e-08 -4.96385e-07 1.82463e-07)
(-1.27761e-08 -2.43704e-08 9.75219e-09)
(-9.18805e-09 -3.01965e-08 9.82733e-09)
(8.63258e-09 -3.07841e-08 9.9655e-09)
(1.37404e-08 -2.66775e-08 1.01527e-08)
(-2.61454e-08 -1.02475e-07 2.92791e-08)
(-1.58415e-08 -1.0372e-07 2.94398e-08)
(1.67414e-08 -1.05457e-07 2.97735e-08)
(2.90189e-08 -1.07634e-07 3.02246e-08)
(-3.20717e-08 -1.74082e-07 4.84207e-08)
(-1.75858e-08 -1.75808e-07 4.86115e-08)
(2.19966e-08 -1.78616e-07 4.90804e-08)
(3.84669e-08 -1.823e-07 4.97575e-08)
(-3.32958e-08 -2.35902e-07 6.63735e-08)
(-1.6773e-08 -2.42286e-07 6.655e-08)
(2.68079e-08 -2.4612e-07 6.71195e-08)
(4.53434e-08 -2.47214e-07 6.80186e-08)
(-2.7479e-08 -2.87897e-07 8.20818e-08)
(-1.23533e-08 -3.0294e-07 8.22088e-08)
(3.02041e-08 -3.07781e-07 8.28572e-08)
(4.73939e-08 -3.02269e-07 8.39767e-08)
(-4.09079e-09 -3.31308e-07 9.44758e-08)
(2.846e-10 -3.5642e-07 9.45256e-08)
(2.75528e-08 -3.62257e-07 9.52349e-08)
(3.40515e-08 -3.48684e-07 9.65646e-08)
(5.50482e-08 -3.7686e-07 1.0275e-07)
(2.61227e-08 -3.96918e-07 1.02714e-07)
(1.37572e-08 -4.03766e-07 1.03469e-07)
(-1.29318e-08 -3.9729e-07 1.04979e-07)
(1.51517e-07 -4.71812e-07 1.06491e-07)
(5.37919e-08 -4.38407e-07 1.0643e-07)
(-1.11726e-10 -4.46004e-07 1.07217e-07)
(-9.52828e-08 -4.95141e-07 1.08814e-07)
(-1.27186e-08 -2.44375e-08 3.28944e-09)
(-9.09374e-09 -3.01891e-08 3.28322e-09)
(8.4898e-09 -3.07644e-08 3.32886e-09)
(1.36092e-08 -2.66834e-08 3.42158e-09)
(-2.58699e-08 -1.02287e-07 9.81083e-09)
(-1.56684e-08 -1.03536e-07 9.80279e-09)
(1.63833e-08 -1.05237e-07 9.91293e-09)
(2.85293e-08 -1.07321e-07 1.01223e-08)
(-3.16209e-08 -1.73614e-07 1.61632e-08)
(-1.73896e-08 -1.75368e-07 1.61516e-08)
(2.14572e-08 -1.7813e-07 1.63063e-08)
(3.76514e-08 -1.81676e-07 1.66033e-08)
(-3.27481e-08 -2.3519e-07 2.20955e-08)
(-1.65935e-08 -2.41607e-07 2.20753e-08)
(2.61247e-08 -2.45394e-07 2.22632e-08)
(4.42776e-08 -2.46347e-07 2.26372e-08)
(-2.68829e-08 -2.87053e-07 2.72676e-08)
(-1.22075e-08 -3.02136e-07 2.72333e-08)
(2.94086e-08 -3.06936e-07 2.74472e-08)
(4.61392e-08 -3.01294e-07 2.7892e-08)
(-3.46048e-09 -3.30543e-07 3.13441e-08)
(4.02242e-10 -3.55706e-07 3.12894e-08)
(2.66688e-08 -3.61517e-07 3.15237e-08)
(3.26508e-08 -3.47829e-07 3.20331e-08)
(5.57368e-08 -3.76382e-07 3.40889e-08)
(2.62378e-08 -3.96489e-07 3.40106e-08)
(1.28e-08 -4.03328e-07 3.42604e-08)
(-1.44629e-08 -3.96778e-07 3.48249e-08)
(1.52314e-07 -4.71437e-07 3.53866e-08)
(5.39367e-08 -4.38048e-07 3.52971e-08)
(-1.12505e-09 -4.45654e-07 3.55582e-08)
(-9.6952e-08 -4.94798e-07 3.61549e-08)
)
;

boundaryField
{
    interface
    {
        type            calculated;
        value           nonuniform List<vector> 
192
(
(-5.10943e-10 1.30344e-07 1.0267e-07)
(3.57922e-08 2.48903e-08 2.11426e-07)
(3.88912e-08 -6.28068e-08 2.86466e-07)
(3.71081e-08 -1.36526e-07 3.52336e-07)
(4.24517e-08 -2.05678e-07 4.18086e-07)
(6.43504e-08 -2.74059e-07 4.91836e-07)
(1.15355e-07 -3.62678e-07 5.83744e-07)
(2.4829e-07 -5.69172e-07 6.89324e-07)
(-1.08117e-07 2.34316e-08 2.10588e-08)
(-9.49673e-08 -4.88512e-08 1.00576e-07)
(-9.43077e-08 -1.18418e-07 1.7664e-07)
(-9.54493e-08 -1.85824e-07 2.43982e-07)
(-9.01313e-08 -2.51812e-07 3.08673e-07)
(-6.88368e-08 -3.1373e-07 3.76459e-07)
(-1.85406e-08 -3.7809e-07 4.44283e-07)
(1.18983e-07 -5.1706e-07 4.82619e-07)
(-1.39755e-07 -1.68469e-08 1.96664e-08)
(-1.44948e-07 -8.64515e-08 8.40775e-08)
(-1.47255e-07 -1.52697e-07 1.52779e-07)
(-1.47262e-07 -2.16107e-07 2.16999e-07)
(-1.40731e-07 -2.74737e-07 2.7715e-07)
(-1.18053e-07 -3.22457e-07 3.33571e-07)
(-6.56261e-08 -3.63951e-07 3.78572e-07)
(7.13707e-08 -4.78686e-07 3.93175e-07)
(-1.53493e-07 -2.97328e-08 2.26745e-08)
(-1.66732e-07 -1.01663e-07 7.76977e-08)
(-1.71103e-07 -1.69319e-07 1.3528e-07)
(-1.70502e-07 -2.3063e-07 1.90385e-07)
(-1.62785e-07 -2.8265e-07 2.40858e-07)
(-1.38784e-07 -3.19748e-07 2.84122e-07)
(-8.50436e-08 -3.50484e-07 3.142e-07)
(5.15608e-08 -4.59285e-07 3.23144e-07)
(-1.5962e-07 -3.32853e-08 2.07412e-08)
(-1.74511e-07 -1.06572e-07 6.53994e-08)
(-1.79416e-07 -1.75311e-07 1.10582e-07)
(-1.78456e-07 -2.35412e-07 1.53688e-07)
(-1.69977e-07 -2.83513e-07 1.92357e-07)
(-1.45167e-07 -3.15508e-07 2.23819e-07)
(-9.0862e-08 -3.42936e-07 2.44644e-07)
(4.55173e-08 -4.50395e-07 2.51986e-07)
(-1.63029e-07 -3.40264e-08 1.58751e-08)
(-1.77534e-07 -1.07517e-07 4.84666e-08)
(-1.8217e-07 -1.76382e-07 8.07264e-08)
(-1.80898e-07 -2.35721e-07 1.11173e-07)
(-1.72025e-07 -2.82112e-07 1.38048e-07)
(-1.46864e-07 -3.12444e-07 1.59418e-07)
(-9.2399e-08 -3.39428e-07 1.73548e-07)
(4.39688e-08 -4.46629e-07 1.79416e-07)
(-1.65198e-07 -3.41005e-08 9.80498e-09)
(-1.79192e-07 -1.07299e-07 2.95024e-08)
(-1.83457e-07 -1.7587e-07 4.87664e-08)
(-1.81935e-07 -2.34753e-07 6.67869e-08)
(-1.72876e-07 -2.80596e-07 8.2539e-08)
(-1.47601e-07 -3.10676e-07 9.49706e-08)
(-9.31219e-08 -3.37958e-07 1.03293e-07)
(4.33161e-08 -4.45225e-07 1.07112e-07)
(-1.66311e-07 -3.40844e-08 3.30392e-09)
(-1.80067e-07 -1.07013e-07 9.87978e-09)
(-1.84129e-07 -1.75333e-07 1.62759e-08)
(-1.82474e-07 -2.34005e-07 2.22325e-08)
(-1.73338e-07 -2.79731e-07 2.74167e-08)
(-1.48036e-07 -3.09888e-07 3.15018e-08)
(-9.35687e-08 -3.37438e-07 3.42611e-08)
(4.2926e-08 -4.44812e-07 3.5586e-08)
(9.38976e-08 1.58966e-07 1.82665e-08)
(1.4597e-07 6.05997e-08 1.21676e-07)
(1.48378e-07 -2.63372e-08 2.0025e-07)
(1.42603e-07 -1.02821e-07 2.70581e-07)
(1.43274e-07 -1.7631e-07 3.4084e-07)
(1.62118e-07 -2.51714e-07 4.16989e-07)
(2.17492e-07 -3.50933e-07 5.03779e-07)
(3.1229e-07 -5.67706e-07 6.46635e-07)
(9.10699e-09 9.66443e-08 -4.81426e-08)
(2.67511e-08 3.60974e-08 4.93789e-08)
(3.1894e-08 -3.35423e-08 1.28453e-07)
(3.27136e-08 -1.09239e-07 1.97568e-07)
(3.60478e-08 -1.90208e-07 2.649e-07)
(4.76714e-08 -2.75059e-07 3.37265e-07)
(7.28839e-08 -3.67458e-07 4.21287e-07)
(1.00543e-07 -5.28969e-07 5.71583e-07)
(-5.80013e-09 9.67911e-08 -4.7782e-08)
(-1.45975e-08 3.46161e-08 5.10926e-08)
(-9.95266e-09 -3.65307e-08 1.30973e-07)
(-1.47116e-10 -1.13461e-07 2.00567e-07)
(8.14646e-09 -1.9545e-07 2.68185e-07)
(9.27343e-09 -2.81184e-07 3.40718e-07)
(-2.04922e-09 -3.74427e-07 4.2483e-07)
(-1.49262e-08 -5.36528e-07 5.75098e-07)
(-8.81917e-08 1.57927e-07 2.10729e-08)
(-1.30758e-07 5.49402e-08 1.29016e-07)
(-1.2357e-07 -3.60887e-08 2.09917e-07)
(-1.07334e-07 -1.15998e-07 2.81579e-07)
(-9.64731e-08 -1.92369e-07 3.52606e-07)
(-1.02652e-07 -2.70273e-07 4.29196e-07)
(-1.44194e-07 -3.71889e-07 5.16267e-07)
(-2.24034e-07 -5.90984e-07 6.59361e-07)
(2.07859e-08 1.22314e-07 1.06542e-07)
(-7.32409e-09 1.3312e-08 2.2071e-07)
(-1.75366e-09 -7.8232e-08 2.99014e-07)
(9.70384e-09 -1.55575e-07 3.66813e-07)
(1.51601e-08 -2.28012e-07 4.33725e-07)
(5.22879e-09 -2.99406e-07 5.08233e-07)
(-3.23383e-08 -3.90958e-07 6.00731e-07)
(-1.48388e-07 -6.00124e-07 7.06708e-07)
(1.24972e-07 1.64566e-08 2.38479e-08)
(1.17541e-07 -5.99327e-08 1.07555e-07)
(1.24056e-07 -1.33483e-07 1.86509e-07)
(1.33904e-07 -2.04556e-07 2.55759e-07)
(1.38759e-07 -2.73897e-07 3.21707e-07)
(1.29058e-07 -3.38927e-07 3.90342e-07)
(9.1999e-08 -4.06302e-07 4.58728e-07)
(-2.88365e-08 -5.47898e-07 4.97316e-07)
(1.5558e-07 -2.24884e-08 2.16891e-08)
(1.64997e-07 -9.62213e-08 8.91808e-08)
(1.73247e-07 -1.66648e-07 1.60188e-07)
(1.8101e-07 -2.33943e-07 2.26104e-07)
(1.83971e-07 -2.96142e-07 2.8748e-07)
(1.7246e-07 -3.47176e-07 3.44762e-07)
(1.33067e-07 -3.91866e-07 3.90315e-07)
(1.26685e-08 -5.09338e-07 4.05159e-07)
(1.68997e-07 -3.43993e-08 2.42049e-08)
(1.85452e-07 -1.10199e-07 8.15045e-08)
(1.94817e-07 -1.82064e-07 1.4084e-07)
(2.01143e-07 -2.47427e-07 1.97327e-07)
(2.02265e-07 -3.0324e-07 2.48867e-07)
(1.88983e-07 -3.43892e-07 2.9291e-07)
(1.48036e-07 -3.78074e-07 3.23496e-07)
(2.79367e-08 -4.89857e-07 3.32688e-07)
(1.75078e-07 -3.72811e-08 2.18749e-08)
(1.92495e-07 -1.14163e-07 6.81851e-08)
(2.01695e-07 -1.87044e-07 1.1465e-07)
(2.07001e-07 -2.51283e-07 1.58803e-07)
(2.06803e-07 -3.0335e-07 1.98315e-07)
(1.923e-07 -3.39124e-07 2.30414e-07)
(1.5055e-07 -3.70256e-07 2.51665e-07)
(3.05816e-08 -4.80969e-07 2.59238e-07)
(1.78534e-07 -3.75721e-08 1.66564e-08)
(1.95105e-07 -1.14449e-07 5.0373e-08)
(2.03546e-07 -1.87372e-07 8.35063e-08)
(2.08055e-07 -2.50881e-07 1.14679e-07)
(2.07034e-07 -3.01358e-07 1.42155e-07)
(1.91854e-07 -3.35646e-07 1.63988e-07)
(1.4975e-07 -3.66551e-07 1.78436e-07)
(2.9722e-08 -4.77238e-07 1.84488e-07)
(1.80755e-07 -3.73676e-08 1.02621e-08)
(1.96531e-07 -1.13816e-07 3.06136e-08)
(2.04291e-07 -1.86381e-07 5.03851e-08)
(2.08236e-07 -2.49446e-07 6.88314e-08)
(2.06744e-07 -2.99446e-07 8.49398e-08)
(1.91228e-07 -3.33601e-07 9.76499e-08)
(1.48977e-07 -3.64954e-07 1.06167e-07)
(2.88337e-08 -4.75874e-07 1.10103e-07)
(1.819e-07 -3.72183e-08 3.45425e-09)
(1.97302e-07 -1.13331e-07 1.02446e-08)
(2.04709e-07 -1.85613e-07 1.68071e-08)
(2.08367e-07 -2.48468e-07 2.29035e-08)
(2.06658e-07 -2.98386e-07 2.82056e-08)
(1.91005e-07 -3.32677e-07 3.23832e-08)
(1.48701e-07 -3.64375e-07 3.52076e-08)
(2.84816e-08 -4.75486e-07 3.65722e-08)
(3.13989e-07 -5.28247e-07 7.12849e-07)
(2.2284e-07 -4.38857e-07 4.95898e-07)
(1.70898e-07 -4.05682e-07 3.96463e-07)
(1.54128e-07 -3.84062e-07 3.21234e-07)
(1.52546e-07 -3.7096e-07 2.49069e-07)
(1.54662e-07 -3.63381e-07 1.77332e-07)
(1.56457e-07 -3.59302e-07 1.06073e-07)
(1.57277e-07 -3.57535e-07 3.5293e-08)
(1.02195e-07 -4.56502e-07 6.70888e-07)
(7.81818e-08 -3.59841e-07 5.09408e-07)
(5.65894e-08 -3.29632e-07 4.17324e-07)
(4.80199e-08 -3.11895e-07 3.33408e-07)
(4.65324e-08 -3.01601e-07 2.53783e-07)
(4.69341e-08 -2.9533e-07 1.78454e-07)
(4.73371e-08 -2.91628e-07 1.06072e-07)
(4.74882e-08 -2.89899e-07 3.52076e-08)
(-1.32299e-08 -4.63334e-07 6.75179e-07)
(3.2198e-09 -3.66803e-07 5.13165e-07)
(1.83989e-08 -3.36619e-07 4.20385e-07)
(2.18506e-08 -3.18888e-07 3.35864e-07)
(1.94429e-08 -3.08596e-07 2.55669e-07)
(1.62542e-08 -3.02331e-07 1.79787e-07)
(1.40693e-08 -2.98635e-07 1.06865e-07)
(1.30597e-08 -2.96911e-07 3.54708e-08)
(-2.22294e-07 -5.51025e-07 7.26187e-07)
(-1.38944e-07 -4.61659e-07 5.07022e-07)
(-9.34401e-08 -4.28536e-07 4.05544e-07)
(-8.17879e-08 -4.07e-07 3.28536e-07)
(-8.41148e-08 -3.93996e-07 2.54671e-07)
(-8.90391e-08 -3.86517e-07 1.81281e-07)
(-9.26349e-08 -3.82516e-07 1.08417e-07)
(-9.43249e-08 -3.80794e-07 3.60692e-08)
)
;
    }
    symmetry
    {
        type            symmetry;
    }
    bottom
    {
        type            calculated;
        value           uniform (0 0 0);
    }
}


// ************************************************************************* //
