/*--------------------------------*- C++ -*----------------------------------*\
| =========                 |                                                 |
| \\      /  F ield         | OpenFOAM: The Open Source CFD Toolbox           |
|  \\    /   O peration     | Version:  v1912                                 |
|   \\  /    A nd           | Website:  www.openfoam.com                      |
|    \\/     M anipulation  |                                                 |
\*---------------------------------------------------------------------------*/
FoamFile
{
    version     2.0;
    format      ascii;
    class       volScalarField;
    location    "0.53/fluid";
    object      p;
}
// * * * * * * * * * * * * * * * * * * * * * * * * * * * * * * * * * * * * * //

dimensions      [0 2 -2 0 0 0 0];


internalField   nonuniform List<scalar> 
14592
(
0.0572529
0.0516623
0.0497914
0.048218
0.0472991
0.0465597
0.0459537
0.0454171
0.0449048
0.0444833
0.0440146
0.043778
0.0432564
0.0435091
0.0426891
0.0447786
0.0530588
0.0513211
0.0496573
0.0483194
0.0474004
0.0466529
0.0460312
0.0454889
0.0449784
0.0445689
0.0441187
0.0439236
0.0434422
0.0438528
0.0430277
0.0461194
0.0510942
0.0504796
0.0492517
0.0482571
0.0474039
0.0466803
0.0460488
0.0454985
0.0449846
0.0445825
0.0441529
0.044008
0.0435889
0.0441718
0.043409
0.0471856
0.049904
0.0497467
0.0488822
0.0481217
0.0473528
0.0466619
0.0460274
0.0454675
0.0449434
0.0445392
0.0441175
0.0440088
0.043642
0.0443698
0.0437247
0.0478636
0.0491963
0.049163
0.0485222
0.0479142
0.0472221
0.0465656
0.0459317
0.0453572
0.0448085
0.044375
0.0439191
0.0437839
0.0433836
0.0441435
0.043504
0.047907
0.0487243
0.0487301
0.0482295
0.0477134
0.0470767
0.046444
0.0458088
0.0452186
0.044645
0.0441834
0.0437014
0.0435599
0.0431747
0.0440625
0.0435844
0.0484788
0.0484171
0.0484314
0.0480029
0.0475329
0.046924
0.046296
0.0456444
0.0450188
0.0443904
0.0438487
0.0432542
0.0429507
0.042324
0.0429084
0.0418821
0.0468113
0.0482323
0.0482491
0.0478503
0.0473965
0.0467931
0.0461563
0.0454826
0.0448215
0.044147
0.0435459
0.0428892
0.0425242
0.041875
0.0426191
0.0418544
0.0491221
0.0571528
0.0515642
0.0497301
0.0481976
0.0473321
0.0466521
0.0461138
0.0456542
0.0452313
0.0449102
0.044561
0.0444266
0.0440439
0.0442012
0.0434943
0.0442309
0.0529587
0.0512211
0.0495951
0.0482987
0.047434
0.0467466
0.0461934
0.0457289
0.0453087
0.0450005
0.0446695
0.0445722
0.0442192
0.0444732
0.0437214
0.0448924
0.0509907
0.0503746
0.0491835
0.0482301
0.0474318
0.0467689
0.0462062
0.045734
0.0453099
0.0450089
0.0446962
0.0446459
0.0443432
0.0447368
0.0440039
0.0455443
0.0497982
0.049639
0.0488102
0.0480902
0.0473753
0.0467447
0.0461781
0.0456954
0.04526
0.044956
0.0446488
0.0446336
0.0443747
0.0448971
0.0442469
0.0460135
0.0490876
0.0490522
0.0484461
0.0478773
0.0472377
0.0466398
0.0460716
0.0455716
0.0451075
0.0447696
0.04442
0.0443712
0.0440594
0.0446006
0.0439016
0.0458683
0.0486126
0.0486163
0.0481498
0.0476716
0.0470857
0.0465096
0.0459376
0.0454189
0.0449257
0.0445562
0.0441745
0.0441198
0.0438133
0.0444974
0.043926
0.0463684
0.0483019
0.0483142
0.0479187
0.0474855
0.0469252
0.046351
0.0457586
0.045199
0.0446429
0.0441829
0.0436707
0.0434363
0.0428415
0.0432061
0.0419415
0.0444327
0.0481131
0.048128
0.0477617
0.0473435
0.0467867
0.0462012
0.045583
0.0449833
0.0443749
0.0438495
0.0432667
0.0429734
0.0423498
0.0429397
0.0419049
0.0468439
0.0570906
0.0515036
0.0496978
0.048199
0.0473794
0.0467535
0.0462809
0.0459007
0.045579
0.045385
0.0452159
0.0453011
0.0452935
0.0458115
0.0459508
0.0468244
0.0528966
0.0511593
0.0495622
0.0483001
0.0474823
0.0468498
0.0463631
0.0459793
0.045662
0.0454832
0.0453354
0.0454607
0.0454893
0.0460988
0.046234
0.0474386
0.0509251
0.0503081
0.0491451
0.0482258
0.0474747
0.0468672
0.0463714
0.0459801
0.0456589
0.0454877
0.045358
0.0455323
0.0456146
0.0463704
0.0465672
0.0481021
0.0497301
0.0495696
0.0487679
0.0480812
0.0474129
0.0468371
0.0463367
0.0459343
0.0456008
0.0454263
0.0453012
0.0455134
0.045641
0.0465354
0.0468293
0.0485846
0.0490163
0.0489794
0.0483994
0.0478626
0.0472683
0.0467236
0.0462195
0.0457973
0.0454309
0.0452183
0.0450431
0.0452166
0.0452762
0.0461872
0.0464016
0.0483498
0.0485382
0.0485404
0.0480991
0.0476518
0.0471095
0.0465848
0.0460741
0.0456299
0.0452299
0.0449809
0.0447651
0.0449286
0.044976
0.0460333
0.0463286
0.0487547
0.0482237
0.0482345
0.0478636
0.0474599
0.0469411
0.0464156
0.0458804
0.0453896
0.0449177
0.0445662
0.0441979
0.0441556
0.0438513
0.0445385
0.0439471
0.0463792
0.0480311
0.0480446
0.0477021
0.0473122
0.046795
0.0462553
0.0456904
0.0451542
0.0446219
0.0441946
0.0437381
0.0436202
0.0432423
0.0441432
0.0436417
0.0485495
0.0570529
0.0514669
0.0496822
0.0482092
0.0474252
0.0468407
0.0464172
0.0460927
0.0458361
0.04571
0.0456221
0.0457631
0.0458422
0.046313
0.0465179
0.047141
0.052859
0.0511216
0.0495462
0.0483105
0.0475288
0.0469384
0.0465013
0.0461739
0.0459224
0.0458119
0.0457455
0.045924
0.0460349
0.0465755
0.0467617
0.0476139
0.0508843
0.0502662
0.0491241
0.048231
0.0475163
0.0469514
0.0465054
0.0461705
0.0459144
0.0458105
0.0457591
0.0459816
0.0461353
0.0467995
0.0470241
0.0481365
0.0496868
0.049525
0.0487434
0.0480821
0.0474496
0.0469159
0.0464647
0.046118
0.0458484
0.0457402
0.0456905
0.0459482
0.0461387
0.0469299
0.0472282
0.0485327
0.0489698
0.0489314
0.0483707
0.0478584
0.0472988
0.0467948
0.0463383
0.0459697
0.0456641
0.0455145
0.0454084
0.0456223
0.0457306
0.0465288
0.0467142
0.0481975
0.0484887
0.0484895
0.0480667
0.0476429
0.0471339
0.0466484
0.0461833
0.0457904
0.045448
0.0452592
0.0451073
0.0453097
0.0453949
0.0463413
0.0465775
0.0485352
0.0481707
0.0481802
0.047827
0.0474458
0.0469588
0.0464703
0.0459777
0.0455346
0.0451147
0.0448171
0.0445018
0.04449
0.0441982
0.0447675
0.0440489
0.0460042
0.0479745
0.0479868
0.0476615
0.047293
0.0468061
0.0463014
0.0457764
0.0452844
0.0447995
0.0444219
0.0440114
0.0439233
0.0435471
0.0443476
0.0436852
0.0481231
0.0570328
0.0514477
0.0496793
0.0482269
0.0474718
0.0469224
0.0465418
0.0462681
0.0460742
0.0460192
0.0460245
0.0462552
0.0464734
0.0470176
0.0474074
0.0479684
0.052839
0.0511017
0.0495432
0.0483285
0.0475764
0.0470215
0.0466281
0.0463523
0.0461646
0.0461267
0.0461554
0.0464248
0.0466768
0.0472851
0.0476594
0.0484049
0.0508616
0.0502428
0.0491169
0.0482448
0.0475598
0.0470308
0.0466286
0.0463455
0.0461529
0.0461212
0.046163
0.046474
0.0467631
0.0474841
0.0478883
0.0488648
0.0496619
0.0494992
0.0487331
0.0480922
0.047489
0.0469908
0.0465829
0.0462875
0.0460804
0.0460436
0.0460853
0.0464303
0.0467515
0.0475952
0.0480618
0.0492198
0.0489421
0.0489028
0.0483567
0.0478639
0.0473326
0.0468631
0.0464484
0.0461294
0.0458837
0.0458026
0.0457827
0.04608
0.0463081
0.0471527
0.0474833
0.0488139
0.0484582
0.0484581
0.0480494
0.0476442
0.0471624
0.0467099
0.0462849
0.0459394
0.0456537
0.0455304
0.0454592
0.0457414
0.0459349
0.0469245
0.0472785
0.0490797
0.0481371
0.0481457
0.0478061
0.0474425
0.0469812
0.0465239
0.0460688
0.0456696
0.0453013
0.0450631
0.0448177
0.0448758
0.0446676
0.0452651
0.0446019
0.0463815
0.0479378
0.0479492
0.0476369
0.0472853
0.0468228
0.0463474
0.0458571
0.0454056
0.0449674
0.0446434
0.0442934
0.0442677
0.0439551
0.0447778
0.0441201
0.0483724
0.0570227
0.0514381
0.049681
0.0482432
0.0475083
0.046983
0.0466311
0.0463893
0.0462322
0.0462131
0.0462598
0.0465145
0.0467683
0.0472911
0.0476968
0.0481997
0.0528289
0.0510916
0.0495448
0.0483449
0.0476135
0.047083
0.0467187
0.0464753
0.0463247
0.0463232
0.0463934
0.0466861
0.0469722
0.0475525
0.047938
0.0485983
0.0508494
0.05023
0.0491154
0.0482579
0.0475938
0.0470895
0.0467164
0.0464657
0.0463097
0.0463135
0.0463946
0.0467255
0.047042
0.0477241
0.0481271
0.0489992
0.049648
0.0494845
0.0487292
0.0481024
0.0475197
0.0470458
0.0466667
0.0464033
0.046232
0.0462299
0.046309
0.0466719
0.0470151
0.0478138
0.0482668
0.0493134
0.0489258
0.0488857
0.0483499
0.0478707
0.0473591
0.0469132
0.0465262
0.046238
0.0460264
0.0459781
0.0459922
0.0463044
0.046547
0.0473413
0.0476417
0.0488574
0.0484398
0.0484388
0.04804
0.0476477
0.0471848
0.046755
0.0463564
0.0460404
0.0457869
0.0456947
0.0456542
0.0459499
0.046151
0.0470885
0.0473956
0.0490807
0.0481163
0.0481241
0.0477937
0.0474425
0.0469991
0.0465632
0.0461329
0.0457611
0.0454221
0.0452121
0.0449923
0.0450605
0.0448492
0.0453904
0.0446515
0.0463044
0.0479145
0.0479252
0.0476218
0.0472819
0.0468363
0.0463811
0.045914
0.045488
0.0450764
0.0447782
0.0444499
0.044433
0.0441106
0.0448793
0.0441275
0.048249
0.0570187
0.0514346
0.0496851
0.0482571
0.0475361
0.0470277
0.0466964
0.0464785
0.0463498
0.0463608
0.0464441
0.0467284
0.0470235
0.0475567
0.0479965
0.0484733
0.0528249
0.0510877
0.0495488
0.048359
0.0476419
0.0471286
0.0467852
0.0465661
0.0464446
0.0464738
0.0465815
0.0469044
0.0472325
0.0478211
0.0482407
0.0488603
0.050844
0.0502243
0.0491173
0.0482698
0.04762
0.0471331
0.0467812
0.0465548
0.0464276
0.0464618
0.0465793
0.0469386
0.0472935
0.0479783
0.0484086
0.0492303
0.0496414
0.0494775
0.0487294
0.0481123
0.0475437
0.047087
0.0467287
0.0464894
0.0463465
0.0463743
0.0464885
0.0468789
0.0472574
0.0480556
0.0485291
0.0495216
0.0489177
0.048877
0.0483481
0.0478781
0.0473801
0.0469509
0.0465841
0.0463191
0.0461346
0.0461149
0.0461617
0.0464994
0.0467723
0.0475628
0.0478733
0.0490329
0.0484301
0.0484287
0.0480363
0.0476529
0.047203
0.0467891
0.0464098
0.046116
0.0458881
0.0458231
0.0458127
0.0461321
0.0463583
0.0472895
0.0475949
0.049223
0.0481048
0.0481122
0.047788
0.0474451
0.047014
0.0465932
0.0461809
0.0458297
0.0455141
0.0453289
0.0451352
0.0452238
0.0450293
0.0455594
0.0447982
0.0463854
0.0479013
0.0479116
0.0476141
0.0472821
0.0468482
0.0464071
0.0459567
0.0455497
0.0451593
0.0448835
0.0445776
0.0445783
0.0442658
0.0450207
0.0442304
0.0482826
0.0570171
0.0514337
0.0496872
0.0482642
0.0475496
0.0470488
0.0467266
0.0465185
0.0464007
0.0464215
0.0465156
0.0468044
0.0471066
0.0476319
0.0480738
0.0485403
0.0528237
0.0510863
0.0495511
0.0483661
0.0476555
0.04715
0.0468157
0.0466064
0.0464957
0.0465345
0.0466526
0.0469791
0.0473131
0.0478917
0.0483124
0.0489165
0.0508418
0.050222
0.0491186
0.0482757
0.0476325
0.0471534
0.0468105
0.0465938
0.0464771
0.0465203
0.046647
0.0470084
0.0473665
0.0480376
0.0484657
0.0492683
0.0496386
0.0494744
0.0487298
0.0481172
0.0475551
0.0471061
0.0467567
0.0465268
0.0463941
0.0464307
0.0465534
0.046945
0.0473248
0.0481074
0.0485749
0.0495469
0.0489141
0.0488731
0.0483475
0.0478818
0.04739
0.0469682
0.0466101
0.0463542
0.0461794
0.0461681
0.0462225
0.0465608
0.0468331
0.0476066
0.0479066
0.0490446
0.0484257
0.048424
0.0480348
0.0476554
0.0472115
0.0468047
0.0464337
0.0461487
0.04593
0.0458729
0.0458693
0.0461888
0.0464125
0.0473256
0.0476149
0.0492199
0.0480996
0.0481066
0.0477855
0.0474464
0.0470211
0.0466069
0.0462024
0.0458595
0.0455524
0.0453745
0.0451866
0.0452751
0.0450762
0.0455875
0.0448037
0.0463643
0.0478952
0.0479052
0.0476106
0.0472822
0.0468537
0.046419
0.0459759
0.0455766
0.045194
0.0449249
0.0446238
0.044624
0.0443051
0.0450399
0.0442196
0.0482396
0.0666623
0.0559426
0.0523321
0.0493733
0.0476548
0.0462824
0.0451676
0.0441279
0.0430992
0.04204
0.0408746
0.039626
0.038152
0.0365801
0.0346427
0.0326912
0.0623804
0.055174
0.051937
0.0492668
0.0476111
0.0462737
0.0451713
0.0441403
0.0431204
0.0420703
0.0409146
0.039679
0.0382194
0.0366653
0.0347425
0.0328018
0.0603916
0.0541501
0.0513217
0.0489874
0.0474577
0.0461992
0.0451281
0.0441152
0.0431071
0.0420663
0.0409223
0.0397009
0.0382622
0.0367317
0.0348376
0.0329187
0.0591399
0.0533376
0.0508455
0.0487413
0.0473241
0.04613
0.0450847
0.0440836
0.0430802
0.0420418
0.0409019
0.0396871
0.0382614
0.0367467
0.0348752
0.0329762
0.0583947
0.0527242
0.0504372
0.0484843
0.0471613
0.0460253
0.0450075
0.0440186
0.0430183
0.0419789
0.040839
0.0396247
0.0382067
0.0367021
0.0348539
0.0329785
0.0579024
0.0522823
0.0501281
0.04827
0.0470143
0.0459196
0.0449222
0.043941
0.0429406
0.0418976
0.0407553
0.0395394
0.0381291
0.0366348
0.0348152
0.0329687
0.0575928
0.0519882
0.0499046
0.0480982
0.0468824
0.0458115
0.0448252
0.0438447
0.0428387
0.0417864
0.0406358
0.0394108
0.0380018
0.0365105
0.0347209
0.0329057
0.0574188
0.0518192
0.0497664
0.0479815
0.0467819
0.0457183
0.0447332
0.0437476
0.0427328
0.0416701
0.0405122
0.0392803
0.0378776
0.0363949
0.0346442
0.0328666
0.0623792
0.0551703
0.0519293
0.049254
0.0475928
0.0462481
0.0451421
0.0441057
0.0430715
0.0420051
0.0408282
0.0395707
0.0380787
0.036501
0.0345325
0.0325924
0.0581607
0.0547448
0.0516891
0.0492428
0.047605
0.0462717
0.0451633
0.0441262
0.0430917
0.0420265
0.0408523
0.0396002
0.0381161
0.0365501
0.0345974
0.0326715
0.0561695
0.053809
0.0511447
0.0490276
0.0474921
0.0462199
0.0451321
0.0441062
0.043077
0.0420167
0.0408506
0.0396093
0.0381434
0.0365974
0.0346686
0.0327613
0.0549312
0.0530131
0.0506967
0.0488107
0.047381
0.0461661
0.0450988
0.0440806
0.0430526
0.0419929
0.0408301
0.0395947
0.0381415
0.0366109
0.0347045
0.032817
0.0541918
0.0523955
0.0502943
0.0485622
0.0472257
0.0460671
0.0450255
0.0440182
0.0429928
0.0419321
0.0407696
0.0395352
0.0380905
0.0365703
0.0346875
0.032823
0.0537024
0.051948
0.049986
0.0483507
0.0470819
0.0459648
0.044943
0.0439429
0.0429185
0.0418551
0.0406917
0.0394575
0.0380226
0.0365147
0.034663
0.0328275
0.0533943
0.0516506
0.0497624
0.0481799
0.0469517
0.045859
0.0448476
0.0438483
0.0428197
0.0417481
0.0405777
0.0393356
0.0379039
0.0364
0.0345812
0.0327763
0.0532208
0.0514804
0.0496246
0.0480645
0.0468529
0.0457683
0.0447577
0.0437537
0.0427182
0.0416376
0.0404621
0.0392154
0.0377936
0.036301
0.0345262
0.0327591
0.0604062
0.0541632
0.0513389
0.0490086
0.0474855
0.0462352
0.0451806
0.0441819
0.0431738
0.042134
0.0409728
0.0397352
0.0382197
0.0366309
0.0345131
0.0324936
0.0561872
0.0538281
0.051174
0.0490675
0.0475457
0.0462908
0.0452248
0.0442202
0.0432083
0.0421685
0.0410101
0.0397786
0.038272
0.0366963
0.0345922
0.0325878
0.0541987
0.052959
0.0507145
0.0489412
0.0474969
0.0462804
0.0452197
0.044217
0.0432047
0.0421669
0.0410158
0.039795
0.038307
0.0367502
0.0346649
0.0326705
0.0529762
0.0521927
0.0503087
0.0487699
0.0474211
0.0462513
0.0452018
0.0442005
0.0431857
0.0421463
0.0409978
0.0397829
0.0383087
0.0367682
0.0347052
0.0327306
0.0522469
0.0515871
0.0499271
0.0485447
0.0472846
0.046165
0.0451354
0.0441405
0.0431249
0.0420817
0.0409314
0.0397157
0.0382491
0.0367181
0.0346805
0.0327306
0.0517635
0.0511436
0.049627
0.0483425
0.0471486
0.0460672
0.0450542
0.0440641
0.043047
0.0419994
0.0408471
0.0396309
0.038176
0.0366599
0.0346625
0.032749
0.0514578
0.050847
0.0494062
0.048175
0.0470206
0.0459613
0.0449561
0.0439644
0.0429401
0.0418805
0.0407178
0.0394891
0.0380354
0.0365201
0.034566
0.0326903
0.0512846
0.0506763
0.0492685
0.0480598
0.0469215
0.0458687
0.0448619
0.0438634
0.0428306
0.0417597
0.0405899
0.0393549
0.0379137
0.0364127
0.0345207
0.0326956
0.0591707
0.0533675
0.0508921
0.048807
0.0474166
0.0462544
0.0452517
0.0442944
0.0433206
0.0423184
0.0411816
0.0399774
0.0384325
0.0368375
0.0344906
0.0323656
0.0549659
0.0530495
0.050757
0.0488981
0.0475032
0.0463307
0.0453104
0.0443429
0.0433636
0.0423611
0.0412278
0.0400316
0.038498
0.0369221
0.0345892
0.032481
0.0529927
0.0522089
0.0503392
0.0488173
0.0474905
0.0463463
0.0453222
0.0443501
0.0433672
0.0423651
0.0412392
0.0400545
0.0385405
0.0369824
0.0346575
0.0325419
0.0517854
0.0514616
0.049956
0.0486701
0.0474339
0.0463305
0.0453122
0.0443376
0.0433497
0.0423448
0.0412213
0.0400434
0.0385445
0.0370047
0.0347001
0.032602
0.0510666
0.0508673
0.0495877
0.0484587
0.0473081
0.0462508
0.0452483
0.0442764
0.0432846
0.0422731
0.0411453
0.0399639
0.0384709
0.0369386
0.0346605
0.0325891
0.0505896
0.0504295
0.0492937
0.0482623
0.0471761
0.0461546
0.045166
0.0441964
0.0432007
0.0421825
0.0410516
0.039869
0.0383905
0.0368772
0.0346532
0.0326307
0.0502866
0.0501351
0.049075
0.0480964
0.0470483
0.0460466
0.0450633
0.0440889
0.0430822
0.0420471
0.0409004
0.0396982
0.0382167
0.0366978
0.0345324
0.032558
0.0501135
0.0499643
0.048937
0.0479803
0.0469472
0.0459502
0.0449638
0.0439804
0.0429621
0.0419123
0.0407565
0.0395454
0.0380809
0.0365815
0.0345085
0.032609
0.0584417
0.0527717
0.0505208
0.0486119
0.0473496
0.0462855
0.0453562
0.0444669
0.0435571
0.0426293
0.0415578
0.0404413
0.038908
0.0373668
0.0347252
0.0324649
0.054243
0.0524489
0.0503919
0.0487125
0.0474458
0.0463707
0.0454225
0.0445225
0.0436081
0.0426818
0.0416163
0.0405125
0.0389959
0.0374848
0.0348583
0.0326099
0.0522789
0.0516186
0.0499932
0.0486541
0.0474522
0.0464012
0.0454445
0.0445367
0.0436173
0.0426916
0.0416349
0.0405455
0.0390508
0.0375578
0.0349194
0.032633
0.0510821
0.0508823
0.049623
0.0485206
0.0474067
0.046393
0.0454385
0.0445254
0.0435995
0.0426701
0.0416163
0.0405358
0.0390593
0.0375897
0.0349687
0.0326977
0.0503713
0.0502964
0.0492641
0.0483186
0.0472879
0.046317
0.0453743
0.04446
0.0435263
0.0425865
0.0415247
0.0404369
0.0389633
0.0374994
0.0349072
0.0326698
0.0498992
0.0498636
0.0489748
0.0481262
0.0471579
0.0462202
0.0452885
0.0443728
0.0434318
0.0424817
0.0414141
0.0403235
0.0388675
0.0374304
0.0349145
0.0327527
0.0495981
0.049571
0.0487575
0.0479606
0.0470286
0.0461079
0.0451778
0.0442524
0.0432941
0.0423189
0.0412258
0.0401019
0.0386319
0.0371748
0.0347373
0.0326436
0.0494243
0.0493994
0.0486184
0.0478425
0.0469237
0.0460054
0.0450693
0.0441307
0.0431558
0.0421597
0.0410518
0.0399124
0.0384617
0.0370298
0.0347294
0.0327632
0.0579528
0.0523341
0.0502398
0.0484556
0.0473019
0.0463273
0.0454741
0.0446591
0.0438222
0.0429793
0.041982
0.0409634
0.0394312
0.0379338
0.0348419
0.0323613
0.0537568
0.0520042
0.0501105
0.0485582
0.0474014
0.0464159
0.0455439
0.044719
0.0438786
0.0430392
0.0420507
0.0410508
0.0395417
0.0380882
0.0349931
0.0324643
0.0517969
0.051175
0.0497166
0.0485063
0.0474141
0.0464513
0.0455689
0.0447351
0.0438897
0.0430517
0.0420741
0.0410923
0.0396058
0.0381664
0.0350069
0.0323483
0.0506059
0.0504436
0.0493513
0.0483774
0.0473718
0.0464446
0.0455623
0.0447216
0.0438684
0.0430266
0.0420525
0.0410823
0.0396162
0.0382048
0.0350474
0.0323827
0.0498995
0.049862
0.0489963
0.0481784
0.0472543
0.0463675
0.0454939
0.0446486
0.0437839
0.0429275
0.0419406
0.0409581
0.0394893
0.0380802
0.0349507
0.0323285
0.0494302
0.0494317
0.0487089
0.0479868
0.0471232
0.0462675
0.0454018
0.0445519
0.0436763
0.042806
0.0418105
0.0408246
0.039378
0.0380098
0.0349923
0.0324952
0.0491295
0.0491396
0.0484913
0.0478197
0.0469902
0.046149
0.0452812
0.0444161
0.0435162
0.0426111
0.0415777
0.0405408
0.0390642
0.0376558
0.0347488
0.0323614
0.0489542
0.0489665
0.04835
0.0476984
0.0468804
0.0460394
0.0451624
0.0442795
0.0433578
0.0424253
0.0413717
0.0403146
0.0388655
0.0375043
0.0348187
0.0326874
0.0576278
0.0520265
0.0500342
0.0483405
0.0472795
0.0463915
0.0456238
0.0449013
0.0441677
0.0434573
0.0426113
0.041814
0.0404751
0.0393147
0.0360497
0.0336324
0.0534331
0.0516914
0.0499032
0.0484429
0.0473801
0.0464819
0.0456965
0.0449656
0.0442305
0.0435268
0.0426935
0.0419234
0.0406159
0.0395221
0.0362303
0.0336707
0.0514736
0.0508595
0.0495079
0.0483905
0.0473927
0.0465171
0.0457211
0.0449814
0.0442416
0.0435412
0.042722
0.0419776
0.0406986
0.0396315
0.0362338
0.033457
0.050285
0.0501295
0.0491433
0.0482618
0.0473497
0.0465085
0.0457112
0.0449634
0.0442151
0.0435112
0.042697
0.0419703
0.0407188
0.0396979
0.0362955
0.0334931
0.0495802
0.0495493
0.0487889
0.0480622
0.0472301
0.0464271
0.0456355
0.0448797
0.0441156
0.0433922
0.0425591
0.0418148
0.0405536
0.0395368
0.0361611
0.0334183
0.0491114
0.0491196
0.0485013
0.047869
0.0470957
0.0463214
0.0455346
0.0447702
0.0439907
0.0432487
0.0424021
0.0416523
0.0404154
0.0394596
0.0362347
0.0336957
0.0488097
0.0488263
0.0482818
0.0476986
0.0469573
0.0461944
0.0454005
0.0446144
0.043801
0.0430101
0.0421049
0.0412737
0.0399656
0.0389181
0.0357928
0.0334157
0.0486318
0.0486507
0.0481374
0.0475729
0.0468411
0.0460755
0.045268
0.0444584
0.0436153
0.0427865
0.0418487
0.0409827
0.0396945
0.0387081
0.0358787
0.0340037
0.0574029
0.0518087
0.0498873
0.0482611
0.0472763
0.0464645
0.045776
0.0451401
0.0445021
0.0439073
0.0431858
0.0425467
0.0413141
0.0402819
0.0365705
0.0335725
0.0532086
0.0514699
0.0497544
0.048363
0.0473771
0.0465561
0.0458508
0.0452076
0.0445695
0.0439836
0.0432771
0.0426703
0.0414666
0.0404941
0.0365941
0.0328989
0.051247
0.0506335
0.0493544
0.0483063
0.0473859
0.046588
0.0458724
0.0452207
0.0445784
0.0439973
0.0433063
0.0427297
0.0415501
0.0405917
0.0364522
0.0321105
0.0500583
0.0499026
0.048988
0.0481749
0.0473395
0.0465751
0.0458573
0.0451966
0.0445449
0.0439604
0.0432746
0.0427199
0.0415683
0.0406618
0.0364779
0.0319721
0.0493528
0.0493213
0.0486316
0.0479722
0.0472152
0.046487
0.0457723
0.0451004
0.0444286
0.0438198
0.0431078
0.0425292
0.0413559
0.0404512
0.0362855
0.0318432
0.0488829
0.0488906
0.048342
0.0477757
0.047076
0.0463741
0.0456613
0.0449775
0.0442861
0.0436546
0.0429249
0.0423419
0.0411975
0.0403854
0.0364319
0.0322884
0.0485789
0.0485951
0.0481195
0.0476006
0.046931
0.0462373
0.0455131
0.0448013
0.0440668
0.0433734
0.042565
0.0418722
0.0406125
0.0396595
0.0357951
0.031837
0.0483978
0.0484163
0.0479713
0.0474699
0.0468079
0.0461088
0.045367
0.0446265
0.0438558
0.0431167
0.0422679
0.0415384
0.0403109
0.0394922
0.0360861
0.0330037
0.0481587
0.0481768
0.0477711
0.0473047
0.0466818
0.0460163
0.0453029
0.0445846
0.0438308
0.0431038
0.0422615
0.0415336
0.0402971
0.0394624
0.0360083
0.0328583
0.0482006
0.0482187
0.0477723
0.0472693
0.0466057
0.0459005
0.0451454
0.0443775
0.0435665
0.0427612
0.0418375
0.0409775
0.0396805
0.0386769
0.0357973
0.0338704
0.0483678
0.0483781
0.0478467
0.0472772
0.0465524
0.0457921
0.0449866
0.0441616
0.0432844
0.0423847
0.0413509
0.0403027
0.0388451
0.0374651
0.0347308
0.0325521
0.0487167
0.0486896
0.0480057
0.0473257
0.0465204
0.0457022
0.0448521
0.0439841
0.0430641
0.0421086
0.0410261
0.0398993
0.0384431
0.0369944
0.0346521
0.0326438
0.0493109
0.0491593
0.0482383
0.047389
0.0464826
0.0456015
0.0447142
0.0438107
0.0428552
0.0418522
0.0407262
0.0395306
0.0380636
0.0365497
0.034441
0.0325035
0.0504169
0.0498076
0.0485139
0.0474221
0.0464211
0.0454939
0.0445959
0.0436838
0.0427185
0.0416979
0.0405607
0.039343
0.0379013
0.0363875
0.0344644
0.0326041
0.0523087
0.0505706
0.0488357
0.0473989
0.0463304
0.0453736
0.0444777
0.0435676
0.0426032
0.0415755
0.0404343
0.0392061
0.0377855
0.0362814
0.034479
0.0326789
0.0565068
0.050919
0.0489902
0.047329
0.0462717
0.0453344
0.0444608
0.0435688
0.0426264
0.0416156
0.0404911
0.0392766
0.0378744
0.0363793
0.0346008
0.0327895
0.0480351
0.0480513
0.0476772
0.0472454
0.046667
0.0460496
0.0453869
0.0447232
0.0440251
0.0433591
0.0425671
0.0418828
0.0406111
0.0396358
0.0356881
0.0316231
0.0480725
0.0480889
0.0476736
0.047204
0.0465831
0.0459232
0.0452152
0.0444966
0.0437347
0.0429824
0.0421008
0.0412818
0.0399614
0.0388895
0.03568
0.0332193
0.0482349
0.0482437
0.0477429
0.0472062
0.0465222
0.0458041
0.0450416
0.04426
0.043424
0.0425662
0.0415618
0.0405391
0.0390501
0.0376153
0.0346317
0.0321731
0.0485793
0.0485507
0.0478971
0.0472492
0.0464839
0.0457055
0.0448954
0.0440666
0.0431826
0.0422626
0.0412042
0.0400982
0.0386203
0.0371402
0.0346396
0.0324842
0.0491695
0.0490167
0.0481255
0.0473076
0.0464398
0.045597
0.0447467
0.0438783
0.0429543
0.0419805
0.0408732
0.0396921
0.0382071
0.0366689
0.0344525
0.0324251
0.0502726
0.0496625
0.0483986
0.0473378
0.0463746
0.0454846
0.0446221
0.0437427
0.0428063
0.0418118
0.0406915
0.0394861
0.0380322
0.0365006
0.034504
0.0325807
0.0521631
0.0504252
0.0487202
0.0473138
0.0462819
0.0453602
0.0444983
0.0436196
0.0426822
0.0416784
0.0405526
0.0393354
0.0379061
0.0363883
0.0345334
0.0326852
0.0563614
0.0507756
0.0488766
0.047246
0.0462254
0.0453229
0.0444837
0.0436245
0.0427103
0.0417248
0.0406178
0.0394166
0.0380094
0.0365034
0.0346775
0.0328181
0.0479487
0.0479636
0.0476125
0.0472079
0.0466669
0.046092
0.0454777
0.0448696
0.0442352
0.0436479
0.0429461
0.04238
0.0412182
0.0403717
0.0362716
0.031936
0.0479819
0.047997
0.0476042
0.0471607
0.0465751
0.0459551
0.0452911
0.0446219
0.0439143
0.0432272
0.0424151
0.0416852
0.0404305
0.0394385
0.0360739
0.0333915
0.04814
0.0481477
0.047669
0.0471573
0.0465065
0.0458253
0.0451024
0.0443635
0.0435721
0.0427649
0.0418085
0.0408428
0.0393784
0.0379722
0.0348347
0.0322256
0.0484805
0.0484509
0.0478188
0.0471956
0.0464622
0.045718
0.0449442
0.044153
0.0433068
0.0424274
0.0414049
0.0403386
0.0388715
0.0374029
0.0347931
0.0325402
0.0490672
0.0489136
0.0480437
0.0472495
0.0464125
0.045602
0.0447847
0.0439494
0.0430573
0.042116
0.0410351
0.0398802
0.0383971
0.0368588
0.0345628
0.0324665
0.0501679
0.0495572
0.0483144
0.0472771
0.0463436
0.0454849
0.0446536
0.0438045
0.0428966
0.0419299
0.0408311
0.0396452
0.0381909
0.036655
0.0346009
0.032624
0.0520574
0.0503196
0.0486357
0.0472522
0.0462491
0.0453566
0.0445242
0.0436742
0.0427629
0.0417837
0.0406762
0.0394744
0.0380441
0.0365206
0.0346231
0.032732
0.0562559
0.0506714
0.0487938
0.0471862
0.0461945
0.0453208
0.0445115
0.0436822
0.0427949
0.0418351
0.0407477
0.0395632
0.0381571
0.0366465
0.0347814
0.0328784
0.0478882
0.0479019
0.0475674
0.0471833
0.0466709
0.0461288
0.0455509
0.0449824
0.0443887
0.043843
0.043174
0.0426268
0.0414347
0.0404872
0.0360889
0.0313273
0.0479178
0.0479319
0.0475552
0.0471311
0.0465728
0.0459834
0.045353
0.0447197
0.044048
0.0433971
0.0426121
0.0418996
0.0406181
0.0395569
0.0359701
0.0330045
0.0480723
0.048079
0.0476162
0.0471232
0.0464979
0.0458453
0.045153
0.0444459
0.0436852
0.0429079
0.0419717
0.0410184
0.0395276
0.0380702
0.0347659
0.0319799
0.0484095
0.0483791
0.0477624
0.0471576
0.0464488
0.0457313
0.0449857
0.0442232
0.0434041
0.0425506
0.041545
0.0404896
0.039003
0.0375006
0.0347781
0.0324153
0.0489935
0.0488391
0.0479844
0.0472079
0.0463947
0.0456094
0.0448181
0.0440087
0.0431403
0.0422212
0.0411544
0.0400084
0.038511
0.0369491
0.0345754
0.0324069
0.0500922
0.049481
0.0482533
0.0472335
0.0463228
0.0454888
0.0446824
0.0438572
0.0429713
0.0420248
0.0409391
0.0397618
0.0382978
0.0367447
0.0346354
0.0326054
0.0519809
0.0502431
0.0485744
0.0472081
0.046227
0.0453575
0.0445488
0.0437219
0.0428313
0.0418709
0.040776
0.0395824
0.0381458
0.0366097
0.0346716
0.0327392
0.0561796
0.0505961
0.0487338
0.0471435
0.0461742
0.0453232
0.044538
0.043733
0.0428674
0.0419276
0.0408544
0.0396802
0.0382702
0.0367492
0.0348467
0.0329023
0.0478482
0.0478611
0.047539
0.0471709
0.0466814
0.0461664
0.04562
0.0450877
0.044534
0.0440331
0.0434099
0.0429078
0.041739
0.040778
0.0362198
0.0311577
0.0478747
0.047888
0.0475233
0.0471142
0.0465776
0.0460135
0.0454118
0.0448106
0.0441735
0.0435607
0.0428117
0.0421343
0.040863
0.0397881
0.0360667
0.0329063
0.0480262
0.0480323
0.0475811
0.0471024
0.0464972
0.045868
0.0452015
0.0445226
0.043791
0.0430446
0.0421353
0.0412069
0.0397166
0.0382441
0.0348318
0.0319164
0.0483606
0.0483296
0.0477242
0.0471335
0.0464438
0.0457478
0.0450259
0.0442884
0.0434944
0.0426665
0.041682
0.0406451
0.0391564
0.0376415
0.0348421
0.0323948
0.0489424
0.0487875
0.0479438
0.0471807
0.0463859
0.0456208
0.0448509
0.0440637
0.043217
0.0423192
0.0412691
0.040137
0.0386366
0.0370643
0.0346359
0.0324098
0.0500395
0.0494279
0.0482111
0.0472045
0.0463113
0.045497
0.044711
0.043906
0.0430397
0.0421121
0.0410407
0.0398746
0.0384082
0.0368464
0.0346966
0.0326231
0.0519275
0.0501897
0.048532
0.0471785
0.0462143
0.045363
0.0445735
0.043766
0.0428935
0.0419503
0.0408681
0.0396845
0.0382462
0.0367029
0.0347343
0.0327675
0.0561263
0.0505436
0.0486924
0.0471151
0.0461628
0.0453297
0.0445642
0.0437795
0.0429326
0.0420108
0.0409514
0.0397881
0.038378
0.0368508
0.0349197
0.0329407
0.0478223
0.0478345
0.0475209
0.0471639
0.0466904
0.0461943
0.0456691
0.0451598
0.0446293
0.0441507
0.0435436
0.0430466
0.0418561
0.0408348
0.0361235
0.0308356
0.0478464
0.0478591
0.0475026
0.047104
0.0465826
0.046036
0.0454539
0.0448736
0.0442571
0.0436638
0.042928
0.0422553
0.0409638
0.039843
0.0360021
0.0326955
0.0479956
0.0480011
0.047558
0.0470893
0.0464982
0.0458853
0.0452367
0.0445765
0.0438628
0.0431332
0.0422344
0.04131
0.0398023
0.0382957
0.0347931
0.0317785
0.048328
0.0482965
0.0476989
0.0471181
0.0464418
0.045761
0.0450556
0.044335
0.0435569
0.0427439
0.0417685
0.0407356
0.0392338
0.0376948
0.0348318
0.0323187
0.0489081
0.0487528
0.0479167
0.0471629
0.0463812
0.0456304
0.0448757
0.0441038
0.0432714
0.0423867
0.0413447
0.0402166
0.0387069
0.037118
0.0346448
0.0323734
0.050004
0.0493922
0.0481829
0.0471854
0.0463047
0.0455044
0.044733
0.0439423
0.0430894
0.0421738
0.0411103
0.0399487
0.0384758
0.0369017
0.0347191
0.032611
0.0518915
0.0501537
0.0485035
0.047159
0.0462069
0.0453686
0.044593
0.0437993
0.0429395
0.0420079
0.0409335
0.0397546
0.0383122
0.0367599
0.0347663
0.0327721
0.0560904
0.0505083
0.0486647
0.0470966
0.0461564
0.0453363
0.0445849
0.0438149
0.0429813
0.0420718
0.0410212
0.0398639
0.0384511
0.0369161
0.0349615
0.0329549
0.0478073
0.0478191
0.0475111
0.0471617
0.046699
0.0462159
0.0457061
0.0452138
0.0447019
0.0442425
0.0436529
0.0431688
0.0419772
0.0409317
0.0361345
0.0306959
0.0478298
0.0478422
0.047491
0.0470994
0.0465883
0.0460538
0.0454856
0.0449207
0.0443203
0.0437435
0.0430218
0.0423594
0.0410642
0.0399237
0.0360135
0.0326114
0.0479774
0.0479826
0.0475448
0.0470826
0.046501
0.0458993
0.0452633
0.0446168
0.0439169
0.0432013
0.0423136
0.041397
0.0398848
0.0383629
0.034807
0.0317266
0.0483084
0.0482767
0.047684
0.0471097
0.0464424
0.0457719
0.0450781
0.0443697
0.0436037
0.0428025
0.0418362
0.0408096
0.0393037
0.0377534
0.0348522
0.032295
0.0488874
0.0487318
0.0479006
0.047153
0.0463799
0.0456388
0.0448945
0.0441335
0.0433117
0.0424373
0.0414029
0.0402801
0.0387674
0.0371703
0.0346698
0.0323678
0.0499824
0.0493704
0.0481659
0.0471745
0.046302
0.0455112
0.0447497
0.043969
0.0431258
0.0422195
0.0411628
0.0400059
0.038531
0.0369505
0.0347473
0.0326158
0.0518696
0.0501318
0.0484864
0.0471478
0.0462035
0.045374
0.0446078
0.0438238
0.0429731
0.0420501
0.040982
0.0398075
0.0383638
0.0368067
0.0347974
0.0327844
0.0560685
0.0504868
0.0486481
0.0470859
0.0461538
0.0453423
0.0446005
0.0438406
0.0430164
0.042116
0.0410723
0.03992
0.0385066
0.0369674
0.0349978