/*--------------------------------*- C++ -*----------------------------------*\
| =========                 |                                                 |
| \\      /  F ield         | OpenFOAM: The Open Source CFD Toolbox           |
|  \\    /   O peration     | Version:  v1912                                 |
|   \\  /    A nd           | Website:  www.openfoam.com                      |
|    \\/     M anipulation  |                                                 |
\*---------------------------------------------------------------------------*/
FoamFile
{
    version     2.0;
    format      ascii;
    class       surfaceScalarField;
    location    "0.53/fluid";
    object      phi;
}
// * * * * * * * * * * * * * * * * * * * * * * * * * * * * * * * * * * * * * //

dimensions      [0 3 -1 0 0 0 0];
oriented        oriented;


internalField   nonuniform List<scalar> 
41600
(
5.03057e-05
1.23943e-05
3.61009e-07
-5.60938e-07
4.07637e-05
9.88731e-06
5.30817e-07
-8.76153e-07
3.40942e-05
7.02619e-06
3.35723e-07
-6.92444e-07
3.02672e-05
4.12715e-06
-7.91652e-08
-2.20929e-07
2.81266e-05
2.35818e-06
-6.54372e-07
4.36808e-07
2.68844e-05
1.37757e-06
-1.35905e-06
1.22365e-06
2.60257e-05
9.19561e-07
-2.21296e-06
2.15205e-06
2.52789e-05
7.34013e-07
-3.25868e-06
3.27154e-06
2.44968e-05
6.87257e-07
-4.56324e-06
4.65804e-06
2.35834e-05
6.93582e-07
-6.22131e-06
6.44109e-06
2.24608e-05
7.10462e-07
-8.38456e-06
8.79678e-06
2.09828e-05
6.52345e-07
-1.12048e-05
1.20304e-05
1.89222e-05
5.20147e-07
-1.50846e-05
1.6625e-05
1.56507e-05
-3.00916e-08
-1.97758e-05
2.30774e-05
9.86773e-06
-5.23597e-07
-2.535e-05
3.16566e-05
-3.0504e-06
-2.09985e-05
3.39166e-05
6.50115e-05
1.01585e-05
4.65466e-07
-7.41197e-07
6.42129e-05
1.11919e-05
6.84919e-07
-1.19092e-06
6.24153e-05
9.38968e-06
4.07521e-07
-9.73409e-07
6.04597e-05
6.59758e-06
-2.30844e-07
-2.83927e-07
5.87627e-05
4.45873e-06
-1.15987e-06
7.56314e-07
5.73338e-05
3.08217e-06
-2.3383e-06
2.06256e-06
5.60343e-05
2.37076e-06
-3.79112e-06
3.63945e-06
5.47027e-05
2.09457e-06
-5.58708e-06
5.55814e-06
5.31938e-05
2.09226e-06
-7.83778e-06
7.94161e-06
5.1348e-05
2.24725e-06
-1.07057e-05
1.09978e-05
4.89898e-05
2.48939e-06
-1.44382e-05
1.50175e-05
4.57562e-05
2.71704e-06
-1.93164e-05
2.04853e-05
4.11605e-05
2.90196e-06
-2.59084e-05
2.81223e-05
3.37344e-05
2.66358e-06
-3.39425e-05
3.86749e-05
2.19417e-05
2.13383e-06
-4.26268e-05
5.1762e-05
-9.65133e-07
-3.46539e-05
5.45103e-05
6.63102e-05
6.64135e-06
4.91265e-07
-7.8439e-07
6.86445e-05
9.40512e-06
7.19192e-07
-1.26672e-06
6.96594e-05
8.99607e-06
4.21058e-07
-1.04231e-06
6.96101e-05
7.22066e-06
-2.61803e-07
-3.12007e-07
6.90016e-05
5.52564e-06
-1.25932e-06
8.00948e-07
6.80961e-05
4.30881e-06
-2.53375e-06
2.21264e-06
6.69929e-05
3.65916e-06
-4.11311e-06
3.92782e-06
6.56702e-05
3.46771e-06
-6.07259e-06
6.02219e-06
6.4042e-05
3.62528e-06
-8.53281e-06
8.62802e-06
6.19518e-05
4.03857e-06
-1.16732e-05
1.19721e-05
5.91818e-05
4.64874e-06
-1.57611e-05
1.63717e-05
5.5282e-05
5.36922e-06
-2.11205e-05
2.23681e-05
4.96257e-05
6.16655e-06
-2.83492e-05
3.0741e-05
4.04796e-05
6.64595e-06
-3.72375e-05
4.24013e-05
2.60729e-05
6.45641e-06
-4.68246e-05
5.69087e-05
2.66869e-06
-3.8438e-05
6.08771e-05
6.51165e-05
4.31946e-06
5.06004e-07
-8.00627e-07
6.78557e-05
7.22166e-06
7.4845e-07
-1.30421e-06
6.98192e-05
7.66453e-06
4.56132e-07
-1.08803e-06
7.07737e-05
6.85038e-06
-2.21442e-07
-3.62812e-07
7.09691e-05
5.79817e-06
-1.21105e-06
7.43074e-07
7.06304e-05
4.97729e-06
-2.47509e-06
2.14531e-06
6.99042e-05
4.57841e-06
-4.04114e-06
3.84815e-06
6.88272e-05
4.60193e-06
-5.98417e-06
5.92692e-06
6.7355e-05
5.00808e-06
-8.4231e-06
8.51247e-06
6.53464e-05
5.75278e-06
-1.154e-05
1.18344e-05
6.25718e-05
6.81296e-06
-1.56004e-05
1.62108e-05
5.85395e-05
8.14244e-06
-2.09481e-05
2.22071e-05
5.25455e-05
9.72682e-06
-2.81804e-05
3.06141e-05
4.27469e-05
1.1145e-05
-3.71701e-05
4.24696e-05
2.71939e-05
1.1596e-05
-4.69576e-05
5.73709e-05
6.59153e-06
-3.88388e-05
6.21098e-05
6.42132e-05
2.89885e-06
5.25834e-07
-8.18433e-07
6.66112e-05
5.37859e-06
7.94439e-07
-1.34937e-06
6.87081e-05
6.19853e-06
5.25005e-07
-1.15592e-06
7.00978e-05
6.0432e-06
-1.2814e-07
-4.54354e-07
7.07969e-05
5.5653e-06
-1.08624e-06
6.20011e-07
7.09211e-05
5.18229e-06
-2.30762e-06
1.9784e-06
7.05849e-05
5.10907e-06
-3.81504e-06
3.62062e-06
6.98347e-05
5.41361e-06
-5.67854e-06
5.61703e-06
6.86472e-05
6.11416e-06
-8.00902e-06
8.09041e-06
6.68957e-05
7.22351e-06
-1.09833e-05
1.12641e-05
6.43512e-05
8.76862e-06
-1.48524e-05
1.54412e-05
6.04899e-05
1.07782e-05
-1.99699e-05
2.11954e-05
5.45284e-05
1.3302e-05
-2.69077e-05
2.92939e-05
4.44565e-05
1.59688e-05
-3.56588e-05
4.09069e-05
2.80392e-05
1.76455e-05
-4.52785e-05
5.56464e-05
1.13269e-05
-3.77684e-05
6.10722e-05
6.37322e-05
1.95714e-06
5.49317e-07
-8.39767e-07
6.57866e-05
3.87671e-06
8.51423e-07
-1.40397e-06
6.78244e-05
4.78894e-06
6.14991e-07
-1.24325e-06
6.94105e-05
5.03665e-06
-3.77047e-09
-5.75762e-07
7.04279e-05
5.01168e-06
-9.19982e-07
4.56187e-07
7.09051e-05
5.03355e-06
-2.08549e-06
1.75703e-06
7.09133e-05
5.29715e-06
-3.51565e-06
3.31938e-06
7.0491e-05
5.90319e-06
-5.27285e-06
5.20562e-06
6.96226e-05
6.91233e-06
-7.45664e-06
7.52688e-06
6.81896e-05
8.39592e-06
-1.02346e-05
1.04952e-05
6.59632e-05
1.044e-05
-1.3836e-05
1.43909e-05
6.23873e-05
1.31875e-05
-1.86201e-05
1.97867e-05
5.66031e-05
1.67962e-05
-2.51143e-05
2.74043e-05
4.63936e-05
2.10809e-05
-3.34662e-05
3.85635e-05
2.91779e-05
2.47285e-05
-4.27326e-05
5.28653e-05
1.7485e-05
-3.61352e-05
5.91549e-05
6.35228e-05
1.22332e-06
5.77248e-07
-8.66229e-07
6.53825e-05
2.56777e-06
9.18735e-07
-1.46947e-06
6.7375e-05
3.42292e-06
7.22664e-07
-1.34914e-06
6.90811e-05
3.90858e-06
1.45867e-07
-7.23863e-07
7.03248e-05
4.23117e-06
-7.20068e-07
2.56792e-07
7.10875e-05
4.60089e-06
-1.81846e-06
1.48844e-06
7.14154e-05
5.17048e-06
-3.15428e-06
2.95307e-06
7.13481e-05
6.04843e-06
-4.77794e-06
4.70003e-06
7.089e-05
7.32036e-06
-6.77096e-06
6.82096e-06
6.99562e-05
9.10796e-06
-9.28046e-06
9.50226e-06
6.8363e-05
1.15511e-05
-1.24936e-05
1.29758e-05
6.55847e-05
1.49438e-05
-1.67463e-05
1.77682e-05
6.0766e-05
1.96051e-05
-2.24574e-05
2.44673e-05
5.13059e-05
2.59949e-05
-2.99299e-05
3.44759e-05
3.38997e-05
3.30745e-05
-3.81005e-05
4.71608e-05
2.99485e-05
-3.27592e-05
5.41953e-05
6.34537e-05
6.07972e-07
-8.96372e-07
5.58043e-07
6.5253e-05
9.92329e-07
-1.54249e-06
1.31859e-06
6.72638e-05
8.40692e-07
-1.4669e-06
2.03834e-06
6.90795e-05
3.09949e-07
-8.88228e-07
2.67121e-06
7.05024e-05
-5.01697e-07
3.69014e-08
3.27306e-06
7.1495e-05
-1.52824e-06
1.19473e-06
3.94179e-06
7.20957e-05
-2.76346e-06
2.55557e-06
4.77764e-06
7.2351e-05
-4.24441e-06
4.15423e-06
5.88333e-06
7.22846e-05
-6.03361e-06
6.06192e-06
7.35841e-06
7.18432e-05
-8.25509e-06
8.43658e-06
9.36792e-06
7.08886e-05
-1.10523e-05
1.14607e-05
1.20973e-05
6.89427e-05
-1.47307e-05
1.56059e-05
1.60146e-05
6.52308e-05
-1.95964e-05
2.13273e-05
2.1586e-05
5.69351e-05
-2.61217e-05
3.01157e-05
3.02967e-05
4.05617e-05
-3.31997e-05
4.12138e-05
4.14337e-05
-2.99691e-05
5.00894e-05
5.039e-05
5.02419e-05
1.23997e-05
2.19459e-07
4.05812e-05
9.90376e-06
2.87721e-07
3.37835e-05
7.04524e-06
8.81869e-08
2.98363e-05
4.14505e-06
-2.76967e-07
2.75789e-05
2.37771e-06
-7.74698e-07
2.62092e-05
1.40281e-06
-1.39217e-06
2.51946e-05
9.54489e-07
-2.15284e-06
2.42462e-05
7.81722e-07
-3.09201e-06
2.31968e-05
7.52064e-07
-4.26589e-06
2.19321e-05
7.80639e-07
-5.7373e-06
2.03428e-05
8.30314e-07
-7.62558e-06
1.82866e-05
8.20263e-07
-9.96879e-06
1.54837e-05
7.65263e-07
-1.3047e-05
1.15836e-05
3.56936e-07
-1.62326e-05
5.57389e-06
-6.05497e-08
-1.92798e-05
-2.10324e-06
-1.33214e-05
6.49218e-05
1.01717e-05
2.71589e-07
6.39526e-05
1.12246e-05
3.33338e-07
6.19485e-05
9.43434e-06
2.25568e-08
5.97763e-05
6.64832e-06
-5.61919e-07
5.78566e-05
4.51856e-06
-1.38101e-06
5.6184e-05
3.15819e-06
-2.42116e-06
5.45935e-05
2.47223e-06
-3.71833e-06
5.28919e-05
2.23085e-06
-5.33461e-06
5.08958e-05
2.27533e-06
-7.36498e-06
4.84061e-05
2.49019e-06
-9.92542e-06
4.51916e-05
2.81286e-06
-1.32063e-05
4.08793e-05
3.13943e-06
-1.73233e-05
3.49229e-05
3.45628e-06
-2.2643e-05
2.63226e-05
3.35796e-06
-2.83432e-05
1.4005e-05
2.85845e-06
-3.32282e-05
-2.56308e-07
-2.24958e-05
6.62188e-05
6.65927e-06
2.84872e-07
6.83743e-05
9.44915e-06
3.39187e-07
6.91685e-05
9.06193e-06
-7.54363e-10
6.88824e-05
7.30328e-06
-6.30705e-07
6.80266e-05
5.62814e-06
-1.51311e-06
6.68497e-05
4.44052e-06
-2.63917e-06
6.54242e-05
3.83415e-06
-4.0495e-06
6.36933e-05
3.70254e-06
-5.81339e-06
6.15283e-05
3.94154e-06
-8.03396e-06
5.87266e-05
4.4605e-06
-1.08418e-05
5.50081e-05
5.21138e-06
-1.44412e-05
4.99044e-05
6.10113e-06
-1.89785e-05
4.27266e-05
7.11408e-06
-2.48293e-05
3.22391e-05
7.77733e-06
-3.11694e-05
1.72136e-05
7.62218e-06
-3.65629e-05
3.29244e-06
-2.47732e-05
6.50268e-05
4.34089e-06
2.97628e-07
6.75884e-05
7.27473e-06
3.61237e-07
6.93335e-05
7.74793e-06
2.49701e-08
7.00546e-05
6.9609e-06
-6.00066e-07
7.00065e-05
5.93969e-06
-1.47453e-06
6.94009e-05
5.16129e-06
-2.59023e-06
6.83579e-05
4.82349e-06
-3.98749e-06
6.68798e-05
4.93204e-06
-5.73559e-06
6.48789e-05
5.45542e-06
-7.93605e-06
6.2166e-05
6.35536e-06
-1.0722e-05
5.84464e-05
7.62535e-06
-1.42949e-05
5.32041e-05
9.21253e-06
-1.88171e-05
4.56631e-05
1.11322e-05
-2.46574e-05
3.44754e-05
1.28377e-05
-3.10428e-05
1.82346e-05
1.3412e-05
-3.65067e-05
7.42267e-06
-2.47344e-05
6.41255e-05
2.92371e-06
3.17563e-07
6.63493e-05
5.4402e-06
4.05118e-07
6.82343e-05
6.29741e-06
9.05344e-08
6.94001e-05
6.17784e-06
-5.10918e-07
6.98683e-05
5.74065e-06
-1.35542e-06
6.97413e-05
5.41198e-06
-2.4313e-06
6.91082e-05
5.4159e-06
-3.77429e-06
6.79822e-05
5.82866e-06
-5.4492e-06
6.62984e-05
6.68049e-06
-7.55025e-06
6.38824e-05
7.99478e-06
-1.02067e-05
6.04393e-05
9.82341e-06
-1.36073e-05
5.54132e-05
1.21941e-05
-1.79254e-05
4.79349e-05
1.52089e-05
-2.35061e-05
3.64599e-05
1.83315e-05
-2.96776e-05
1.92476e-05
2.03336e-05
-3.49877e-05
1.26071e-05
-2.37053e-05
6.36464e-05
1.98544e-06
3.4121e-07
6.55312e-05
3.9461e-06
4.60726e-07
6.7365e-05
4.9009e-06
1.77659e-07
6.87392e-05
5.19091e-06
-3.91008e-07
6.95415e-05
5.21439e-06
-1.196e-06
6.97874e-05
5.30042e-06
-2.21984e-06
6.95242e-05
5.65478e-06
-3.49132e-06
6.8759e-05
6.38936e-06
-5.06835e-06
6.7437e-05
7.58079e-06
-7.03494e-06
6.53933e-05
9.31731e-06
-9.51349e-06
6.23341e-05
1.17203e-05
-1.26737e-05
5.76629e-05
1.49439e-05
-1.66987e-05
5.04231e-05
1.92301e-05
-2.18957e-05
3.88197e-05
2.42016e-05
-2.77329e-05
2.06854e-05
2.85112e-05
-3.2776e-05
1.94476e-05
-2.22902e-05
6.34395e-05
1.25448e-06
3.6875e-07
6.51352e-05
2.64317e-06
5.25969e-07
6.69331e-05
3.54436e-06
2.81282e-07
6.84411e-05
4.07649e-06
-2.47712e-07
6.94884e-05
4.45259e-06
-1.00557e-06
7.00445e-05
4.89298e-06
-1.96715e-06
7.01343e-05
5.56234e-06
-3.15168e-06
6.97699e-05
6.58262e-06
-4.60672e-06
6.89221e-05
8.05837e-06
-6.40078e-06
6.74657e-05
1.01344e-05
-8.64116e-06
6.51616e-05
1.29946e-05
-1.14639e-05
6.14409e-05
1.69641e-05
-1.50457e-05
5.53521e-05
2.24757e-05
-1.96143e-05
4.46133e-05
2.98218e-05
-2.48114e-05
2.61928e-05
3.80121e-05
-2.9181e-05
3.27918e-05
-1.99106e-05
6.33729e-05
3.98436e-07
5.9113e-07
6.50145e-05
5.96515e-07
1.39735e-06
6.6841e-05
3.93928e-07
2.16462e-06
6.84733e-05
-9.16337e-08
2.84583e-06
6.97192e-05
-7.98642e-07
3.50362e-06
7.05313e-05
-1.69346e-06
4.24606e-06
7.09293e-05
-2.78496e-06
5.18585e-06
7.09359e-05
-4.10914e-06
6.44079e-06
7.05474e-05
-5.71804e-06
8.13124e-06
6.96769e-05
-7.70149e-06
1.04514e-05
6.81426e-05
-1.016e-05
1.36366e-05
6.54226e-05
-1.32584e-05
1.82118e-05
6.06644e-05
-1.71406e-05
2.47782e-05
5.12696e-05
-2.16418e-05
3.47366e-05
3.39163e-05
-2.534e-05
4.75058e-05
-1.79143e-05
5.46532e-05
5.01919e-05
1.24048e-05
1.2278e-07
4.04349e-05
9.91855e-06
1.26174e-07
3.35257e-05
7.06297e-06
-6.55771e-08
2.94659e-05
4.1621e-06
-3.79313e-07
2.70928e-05
2.39637e-06
-7.97992e-07
2.55935e-05
1.4264e-06
-1.31924e-06
2.442e-05
9.86366e-07
-1.96564e-06
2.32668e-05
8.24403e-07
-2.76322e-06
2.19453e-05
8.0884e-07
-3.75327e-06
2.03215e-05
8.54986e-07
-4.96845e-06
1.82552e-05
9.28783e-07
-6.48812e-06
1.56158e-05
9.51075e-07
-8.28045e-06
1.2145e-05
9.38656e-07
-1.05149e-05
7.87342e-06
5.98513e-07
-1.25595e-05
2.51591e-06
1.52033e-07
-1.40743e-05
-1.72079e-06
-9.08472e-06
6.48508e-05
1.01848e-05
1.40774e-07
6.37422e-05
1.12557e-05
1.0481e-07
6.15593e-05
9.47735e-06
-2.08961e-07
5.91884e-05
6.69782e-06
-7.26673e-07
5.70543e-05
4.57691e-06
-1.42745e-06
5.51412e-05
3.23144e-06
-2.31318e-06
5.32623e-05
2.56869e-06
-3.4217e-06
5.11965e-05
2.35906e-06
-4.80346e-06
4.8725e-05
2.44618e-06
-6.53087e-06
4.56144e-05
2.71501e-06
-8.67484e-06
4.15902e-05
3.10874e-06
-1.1362e-05
3.62982e-05
3.51897e-06
-1.45992e-05
2.92415e-05
3.93798e-06
-1.85857e-05
2.00181e-05
3.93109e-06
-2.24523e-05
8.53667e-06
3.3948e-06
-2.49896e-05
1.40339e-07
-1.58203e-05
6.61466e-05
6.67743e-06
1.45633e-07
6.81561e-05
9.4922e-06
9.31844e-08
6.87596e-05
9.12622e-06
-2.53128e-07
6.8257e-05
7.38409e-06
-8.14327e-07
6.71644e-05
5.72796e-06
-1.57161e-06
6.57211e-05
4.56755e-06
-2.53193e-06
6.39772e-05
4.0013e-06
-3.73831e-06
6.1846e-05
3.92515e-06
-5.24822e-06
5.91596e-05
4.2396e-06
-7.14096e-06
5.56761e-05
4.85578e-06
-9.49915e-06
5.1067e-05
5.73476e-06
-1.2458e-05
4.48776e-05
6.77463e-06
-1.60448e-05
3.64686e-05
7.97216e-06
-2.04544e-05
2.52415e-05
8.78009e-06
-2.47913e-05
1.10439e-05
8.63168e-06
-2.76021e-05
3.82201e-06
-1.7411e-05
6.49562e-05
4.3627e-06
1.56199e-07
6.73733e-05
7.32704e-06
1.09207e-07
6.89302e-05
7.82946e-06
-2.35127e-07
6.94378e-05
7.06854e-06
-7.92083e-07
6.91565e-05
6.07675e-06
-1.54205e-06
6.82885e-05
5.33818e-06
-2.49286e-06
6.69323e-05
5.05743e-06
-3.68742e-06
6.506e-05
5.24529e-06
-5.18338e-06
6.25441e-05
5.878e-06
-7.05861e-06
5.91542e-05
6.92179e-06
-9.398e-06
5.45431e-05
8.38488e-06
-1.23339e-05
4.82017e-05
1.02048e-05
-1.59059e-05
3.93936e-05
1.24225e-05
-2.02996e-05
2.74107e-05
1.43752e-05
-2.4655e-05
1.19469e-05
1.50679e-05
-2.74791e-05
8.31204e-06
-1.72776e-05
6.40568e-05
2.9487e-06
1.74745e-07
6.61397e-05
5.50062e-06
1.48702e-07
6.78424e-05
6.39351e-06
-1.76229e-07
6.88037e-05
6.30803e-06
-7.11727e-07
6.90503e-05
5.9094e-06
-1.43474e-06
6.86755e-05
5.63191e-06
-2.35024e-06
6.77475e-05
5.70829e-06
-3.49712e-06
6.62504e-05
6.22252e-06
-4.92928e-06
6.40804e-05
7.21621e-06
-6.71851e-06
6.10211e-05
8.72157e-06
-8.94726e-06
5.67228e-05
1.08134e-05
-1.17375e-05
5.06275e-05
1.35144e-05
-1.51397e-05
4.18903e-05
1.69747e-05
-1.93211e-05
2.95865e-05
2.05055e-05
-2.3504e-05
1.30455e-05
2.28343e-05
-2.62131e-05
1.40863e-05
-1.64341e-05
6.35797e-05
2.01337e-06
1.96858e-07
6.53279e-05
4.01344e-06
1.99703e-07
6.6987e-05
5.0088e-06
-9.67433e-08
6.81677e-05
5.33897e-06
-6.02611e-07
6.8763e-05
5.40835e-06
-1.29029e-06
6.87799e-05
5.55499e-06
-2.15976e-06
6.82457e-05
5.99497e-06
-3.24387e-06
6.714e-05
6.85062e-06
-4.59076e-06
6.53713e-05
8.21378e-06
-6.26381e-06
6.27327e-05
1.01875e-05
-8.34079e-06
5.8875e-05
1.29264e-05
-1.0929e-05
5.31899e-05
1.65909e-05
-1.409e-05
4.47307e-05
2.15017e-05
-1.79635e-05
3.22847e-05
2.71074e-05
-2.18887e-05
1.46829e-05
3.20837e-05
-2.44236e-05
2.18031e-05
-1.53241e-05
6.33751e-05
1.28467e-06
2.2232e-07
6.49396e-05
2.71552e-06
2.5937e-07
6.65718e-05
3.66037e-06
-2.44362e-09
6.78992e-05
4.23656e-06
-4.72702e-07
6.8757e-05
4.66344e-06
-1.11849e-06
6.91073e-05
5.17078e-06
-1.93317e-06
6.89573e-05
5.93467e-06
-2.94146e-06
6.82948e-05
7.08968e-06
-4.1832e-06
6.70587e-05
8.75863e-06
-5.70953e-06
6.5086e-05
1.11074e-05
-7.58829e-06
6.20888e-05
1.43622e-05
-9.90255e-06
5.74789e-05
1.88726e-05
-1.27175e-05
5.03056e-05
2.51823e-05
-1.61217e-05
3.87797e-05
3.34293e-05
-1.96074e-05
2.06983e-05
4.27536e-05
-2.17695e-05
3.62928e-05
-1.37021e-05
6.3311e-05
2.49435e-07
6.22622e-07
6.48275e-05
3.23476e-07
1.47211e-06
6.64979e-05
9.95918e-08
2.28426e-06
6.79633e-05
-3.318e-07
3.01133e-06
6.90384e-05
-9.3242e-07
3.72219e-06
6.96694e-05
-1.68832e-06
4.53461e-06
6.98612e-05
-2.61534e-06
5.57321e-06
6.96159e-05
-3.74408e-06
6.96998e-06
6.89035e-05
-5.11262e-06
8.86557e-06
6.76053e-05
-6.77701e-06
1.1481e-05
6.55005e-05
-8.79454e-06
1.51015e-05
6.20443e-05
-1.12304e-05
2.03008e-05
5.63874e-05
-1.41193e-05
2.7818e-05
4.63209e-05
-1.71234e-05
3.89775e-05
2.9213e-05
-1.89279e-05
5.34494e-05
-1.23267e-05
5.99182e-05
5.01533e-05
1.24095e-05
5.9973e-08
4.03197e-05
9.93163e-06
2.80992e-08
3.33185e-05
7.07892e-06
-1.43329e-07
2.91634e-05
4.17795e-06
-4.02147e-07
2.66921e-05
2.414e-06
-7.40698e-07
2.50862e-05
1.44878e-06
-1.16211e-06
2.37899e-05
1.01676e-06
-1.68611e-06
2.2492e-05
8.65726e-07
-2.33105e-06
2.09992e-05
8.65203e-07
-3.12564e-06
1.9182e-05
9.31824e-07
-4.08306e-06
1.69096e-05
1.03596e-06
-5.25169e-06
1.40954e-05
1.10467e-06
-6.5709e-06
1.05474e-05
1.16351e-06
-8.13049e-06
6.43899e-06
9.47488e-07
-9.39857e-06
1.79009e-06
6.0973e-07
-1.00351e-05
-1.10899e-06
-6.18564e-06
6.47953e-05
1.01969e-05
5.81011e-08
6.3575e-05
1.12838e-05
-2.71504e-08
6.12442e-05
9.51643e-06
-3.1566e-07
5.87044e-05
6.74334e-06
-7.52249e-07
5.63868e-05
4.63066e-06
-1.32652e-06
5.42715e-05
3.29864e-06
-2.04767e-06
5.21601e-05
2.65679e-06
-2.9504e-06
4.98197e-05
2.47608e-06
-4.07341e-06
4.70201e-05
2.60271e-06
-5.46871e-06
4.35289e-05
2.92308e-06
-7.1749e-06
3.9084e-05
3.38742e-06
-9.26858e-06
3.34021e-05
3.88893e-06
-1.17016e-05
2.61059e-05
4.433e-06
-1.4559e-05
1.71027e-05
4.58097e-06
-1.70826e-05
6.77609e-06
4.16029e-06
-1.82135e-05
8.58587e-07
-1.10118e-05
6.60902e-05
6.69444e-06
5.7925e-08
6.79827e-05
9.53171e-06
-4.72134e-08
6.84283e-05
9.18501e-06
-3.67274e-07
6.77417e-05
7.45809e-06
-8.42493e-07
6.64463e-05
5.8191e-06
-1.46466e-06
6.47779e-05
4.68279e-06
-2.2477e-06
6.27758e-05
4.15184e-06
-3.2312e-06
6.03393e-05
4.12445e-06
-4.46011e-06
5.72876e-05
4.50537e-06
-5.99195e-06
5.33781e-05
5.20761e-06
-7.8742e-06
4.82947e-05
6.20115e-06
-1.01884e-05
4.1658e-05
7.37995e-06
-1.2899e-05
3.29604e-05
8.75646e-06
-1.60803e-05
2.19509e-05
9.73901e-06
-1.89399e-05
9.01099e-06
9.70054e-06
-2.02024e-05
4.58879e-06
-1.21302e-05
6.49012e-05
4.38316e-06
6.6258e-08
6.72029e-05
7.37524e-06
-3.60405e-08
6.86041e-05
7.90404e-06
-3.55292e-07
6.89305e-05
7.16668e-06
-8.27088e-07
6.84495e-05
6.20107e-06
-1.44302e-06
6.736e-05
5.4974e-06
-2.21798e-06
6.57498e-05
5.2662e-06
-3.1916e-06
6.35776e-05
5.52239e-06
-4.4091e-06
6.07028e-05
6.24853e-06
-5.92693e-06
5.68931e-05
7.41386e-06
-7.79456e-06
5.18129e-05
9.03832e-06
-1.00909e-05
4.50262e-05
1.10509e-05
-1.279e-05
3.59261e-05
1.35137e-05
-1.59567e-05
2.4152e-05
1.56807e-05
-1.88226e-05
9.94021e-06
1.65065e-05
-2.00734e-05
9.23408e-06
-1.19826e-05
6.40036e-05
2.97197e-06
8.22918e-08
6.59741e-05
5.55608e-06
-2.63088e-09
6.75264e-05
6.48107e-06
-3.05528e-07
6.83143e-05
6.42607e-06
-7.59018e-07
6.83713e-05
6.06149e-06
-1.35213e-06
6.77874e-05
5.82853e-06
-2.09752e-06
6.66208e-05
5.96723e-06
-3.03157e-06
6.4843e-05
6.56755e-06
-4.19656e-06
6.23375e-05
7.67968e-06
-5.64418e-06
5.88858e-05
9.34082e-06
-7.42254e-06
5.41479e-05
1.16416e-05
-9.6029e-06
4.76334e-05
1.45945e-05
-1.21689e-05
3.86177e-05
1.838e-05
-1.51718e-05
2.65084e-05
2.21925e-05
-1.79065e-05
1.11554e-05
2.47223e-05
-1.90759e-05
1.52805e-05
-1.13252e-05
6.35282e-05
2.03906e-06
1.01527e-07
6.5168e-05
4.07482e-06
4.11799e-08
6.66833e-05
5.10656e-06
-2.37498e-07
6.77001e-05
5.47244e-06
-6.65796e-07
6.81183e-05
5.58212e-06
-1.22909e-06
6.79418e-05
5.7812e-06
-1.936e-06
6.71889e-05
6.2942e-06
-2.81794e-06
6.58272e-05
7.25117e-06
-3.91268e-06
6.37536e-05
8.75485e-06
-5.26537e-06
6.07587e-05
1.09161e-05
-6.92121e-06
5.65018e-05
1.39102e-05
-8.9407e-06
5.0435e-05
1.78895e-05
-1.13182e-05
4.17208e-05
2.32172e-05
-1.40864e-05
2.94568e-05
2.91984e-05
-1.66306e-05
1.29506e-05
3.44964e-05
-1.76915e-05
2.33882e-05
-1.04812e-05
6.33257e-05
1.3121e-06
1.23543e-07
6.47866e-05
2.78094e-06
9.23913e-08
6.62827e-05
3.76487e-06
-1.56865e-07
6.74574e-05
4.3801e-06
-5.55024e-07
6.81527e-05
4.85139e-06
-1.08314e-06
6.83288e-05
5.41642e-06
-1.74446e-06
6.7985e-05
6.26043e-06
-2.56385e-06
6.70986e-05
7.52706e-06
-3.57274e-06
6.55994e-05
9.35166e-06
-4.80717e-06
6.33226e-05
1.19109e-05
-6.30619e-06
5.99889e-05
1.54552e-05
-8.11392e-06
5.50613e-05
2.03319e-05
-1.02324e-05
4.76846e-05
2.71358e-05
-1.26635e-05
3.63372e-05
3.58518e-05
-1.49134e-05
1.92088e-05
4.56354e-05
-1.57801e-05
3.8268e-05
-9.37315e-06
6.32638e-05
1.46818e-07
6.50889e-07
6.46819e-05
1.47208e-07
1.53918e-06
6.62247e-05
-6.98365e-08
2.39141e-06
6.75492e-05
-4.35146e-07
3.15898e-06
6.84774e-05
-9.25364e-07
3.91616e-06
6.89545e-05
-1.53774e-06
4.78869e-06
6.8979e-05
-2.28997e-06
5.91064e-06
6.85444e-05
-3.20644e-06
7.42396e-06
6.76142e-05
-4.31341e-06
9.48267e-06
6.6069e-05
-5.64244e-06
1.23216e-05
6.3698e-05
-7.22012e-06
1.62517e-05
5.99995e-05
-9.05406e-06
2.18542e-05
5.42087e-05
-1.1115e-05
2.99223e-05
4.43362e-05
-1.30433e-05
4.16442e-05
2.80587e-05
-1.3742e-05
5.67271e-05
-8.43782e-06
6.24378e-05
5.01231e-05
1.24135e-05
2.3363e-08
4.02294e-05
9.94236e-06
-2.04949e-08
3.31538e-05
7.09209e-06
-1.59809e-07
2.89191e-05
4.19117e-06
-3.58698e-07
2.63641e-05
2.42861e-06
-6.143e-07
2.46665e-05
1.46706e-06
-9.31525e-07
2.32648e-05
1.04121e-06
-1.32563e-06
2.18437e-05
8.98439e-07
-1.80837e-06
2.02069e-05
9.08978e-07
-2.39786e-06
1.82299e-05
9.90118e-07
-3.09616e-06
1.57932e-05
1.115e-06
-3.92996e-06
1.28473e-05
1.21429e-06
-4.83933e-06
9.2674e-06
1.3183e-06
-5.86889e-06
5.33178e-06
1.17686e-06
-6.63983e-06
1.27276e-06
8.93495e-07
-6.8696e-06
-7.75759e-07
-4.13712e-06
6.47517e-05
1.02073e-05
1.26104e-08
6.34432e-05
1.13076e-05
-8.3916e-08
6.09927e-05
9.54952e-06
-3.22553e-07
5.83131e-05
6.78208e-06
-6.63523e-07
5.58408e-05
4.67638e-06
-1.10198e-06
5.35534e-05
3.35549e-06
-1.64874e-06
5.12451e-05
2.73081e-06
-2.33166e-06
4.86744e-05
2.57373e-06
-3.17805e-06
4.56046e-05
2.73238e-06
-4.22228e-06
4.1808e-05
3.09402e-06
-5.4822e-06
3.70403e-05
3.61399e-06
-6.99988e-06
3.10824e-05
4.18568e-06
-8.71509e-06
2.3673e-05
4.82346e-06
-1.06547e-05
1.49474e-05
5.08032e-06
-1.22604e-05
5.60769e-06
4.73215e-06
-1.27125e-05
1.3379e-06
-7.51774e-06
6.60459e-05
6.70916e-06
1.01224e-08
6.7846e-05
9.56555e-06
-1.05231e-07
6.81637e-05
9.2353e-06
-3.70826e-07
6.73249e-05
7.52146e-06
-7.4308e-07
6.58588e-05
5.89703e-06
-1.21916e-06
6.39993e-05
4.78093e-06
-1.81369e-06
6.17783e-05
4.27941e-06
-2.55871e-06
5.90858e-05
4.2925e-06
-3.48648e-06
5.57334e-05
4.72835e-06
-4.63547e-06
5.1482e-05
5.50109e-06
-6.02982e-06
4.60343e-05
6.58747e-06
-7.71415e-06
3.90796e-05
7.87703e-06
-9.6357e-06
3.02386e-05
9.3937e-06
-1.18095e-05
1.9518e-05
1.05079e-05
-1.36469e-05
7.65991e-06
1.05471e-05
-1.41593e-05
5.17162e-06
-8.30405e-06
6.48582e-05
4.40098e-06
1.62631e-08
6.70688e-05
7.41679e-06
-9.78584e-08
6.8344e-05
7.96808e-06
-3.63338e-07
6.85206e-05
7.25085e-06
-7.33034e-07
6.78714e-05
6.30744e-06
-1.20426e-06
6.65937e-05
5.63315e-06
-1.79252e-06
6.4768e-05
5.44347e-06
-2.52998e-06
6.23439e-05
5.75668e-06
-3.44918e-06
5.91728e-05
6.56042e-06
-4.58788e-06
5.50252e-05
7.82593e-06
-5.97181e-06
4.95834e-05
9.58205e-06
-7.64365e-06
4.24781e-05
1.17497e-05
-9.55745e-06
3.32294e-05
1.44066e-05
-1.1721e-05
2.17363e-05
1.674e-05
-1.35616e-05
8.60402e-06
1.76661e-05
-1.406e-05
9.98386e-06
-8.19085e-06
6.39621e-05
2.99222e-06
2.89531e-08
6.58442e-05
5.60391e-06
-7.18002e-08
6.7275e-05
6.55625e-06
-3.24559e-07
6.79195e-05
6.5272e-06
-6.79888e-07
6.78167e-05
6.1915e-06
-1.13331e-06
6.70549e-05
5.99609e-06
-1.69871e-06
6.56855e-05
6.18715e-06
-2.40581e-06
6.36712e-05
6.85948e-06
-3.28504e-06
6.08879e-05
8.07021e-06
-4.37072e-06
5.71192e-05
9.86003e-06
-5.68793e-06
5.2041e-05
1.23315e-05
-7.27414e-06
4.52251e-05
1.54879e-05
-9.09109e-06
3.60663e-05
1.95313e-05
-1.11377e-05
2.42222e-05
2.35646e-05
-1.2887e-05
9.89954e-06
2.62482e-05
-1.33353e-05
1.62799e-05
-7.72166e-06
6.34882e-05
2.06132e-06
4.42498e-08
6.50429e-05
4.12761e-06
-3.72315e-08
6.64423e-05
5.19032e-06
-2.71004e-07
6.73238e-05
5.58655e-06
-6.06603e-07
6.75926e-05
5.73041e-06
-1.03682e-06
6.72514e-05
5.97376e-06
-1.57252e-06
6.63121e-05
6.54818e-06
-2.23964e-06
6.47343e-05
7.59e-06
-3.06536e-06
6.24077e-05
9.21073e-06
-4.07929e-06
5.91243e-05
1.1527e-05
-5.30485e-06
5.45577e-05
1.47297e-05
-6.77229e-06
4.82163e-05
1.89632e-05
-8.45216e-06
3.93723e-05
2.46209e-05
-1.03319e-05
2.7358e-05
3.08977e-05
-1.19494e-05
1.18089e-05
3.6442e-05
-1.23362e-05
2.47308e-05
-7.12313e-06
6.32875e-05
1.33571e-06
6.16977e-08
6.46673e-05
2.83698e-06
3.17323e-09
6.60541e-05
3.85414e-06
-2.07542e-07
6.71028e-05
4.50254e-06
-5.19623e-07
6.76611e-05
5.0115e-06
-9.22579e-07
6.76883e-05
5.62529e-06
-1.42324e-06
6.71785e-05
6.53681e-06
-2.04266e-06
6.61022e-05
7.89709e-06
-2.80351e-06
6.43833e-05
9.85161e-06
-3.72912e-06
6.18582e-05
1.25852e-05
-4.83936e-06
5.82612e-05
1.63668e-05
-6.15405e-06
5.31035e-05
2.15402e-05
-7.65157e-06
4.56267e-05
2.87362e-05
-9.30214e-06
3.45159e-05
3.7824e-05
-1.07288e-05
1.82343e-05
4.79637e-05
-1.10202e-05
3.99793e-05
-6.38749e-06
6.32274e-05
8.00613e-08
6.75041e-07
6.45689e-05
4.63326e-08
1.59638e-06
6.60097e-05
-1.39147e-07
2.48267e-06
6.72181e-05
-4.2562e-07
3.28462e-06
6.80224e-05
-7.99226e-07
4.08109e-06
6.83677e-05
-1.26225e-06
5.00448e-06
6.82482e-05
-1.83043e-06
6.19673e-06
6.76523e-05
-2.5214e-06
7.80795e-06
6.65393e-05
-3.3517e-06
1.0003e-05
6.47917e-05
-4.33675e-06
1.30271e-05
6.22123e-05
-5.48525e-06
1.72113e-05
5.83402e-05
-6.78201e-06
2.31403e-05
5.24959e-05
-8.18051e-06
3.1646e-05
4.28604e-05
-9.39827e-06
4.38144e-05
2.73249e-05
-9.61818e-06
5.93754e-05
-5.76677e-06
6.46332e-05
5.01014e-05
1.24166e-05
5.42682e-09
4.01636e-05
9.95071e-06
-3.34592e-08
3.30328e-05
7.10241e-06
-1.3143e-07
2.87391e-05
4.20172e-06
-2.66642e-07
2.61224e-05
2.44039e-06
-4.37984e-07
2.4359e-05
1.48194e-06
-6.50096e-07
2.28853e-05
1.06129e-06
-9.13241e-07
2.13856e-05
9.25688e-07
-1.23431e-06
1.96653e-05
9.46089e-07
-1.62365e-06
1.76075e-05
1.04063e-06
-2.079e-06
1.5106e-05
1.18496e-06
-2.61344e-06
1.2135e-05
1.31279e-06
-3.18111e-06
8.60859e-06
1.45868e-06
-3.80117e-06
4.82288e-06
1.37971e-06
-4.23383e-06
1.08665e-06
1.14898e-06
-4.28235e-06
-5.10974e-07
-2.5395e-06
6.472e-05
1.02154e-05
-6.27297e-09
6.33467e-05
1.13262e-05
-8.60299e-08
6.08069e-05
9.57548e-06
-2.55902e-07
5.80225e-05
6.81266e-06
-4.90031e-07
5.54347e-05
4.71251e-06
-7.86279e-07
5.30211e-05
3.4004e-06
-1.15366e-06
5.0573e-05
2.78924e-06
-1.61149e-06
4.78469e-05
2.65084e-06
-2.17706e-06
4.46066e-05
2.83497e-06
-2.87089e-06
4.06348e-05
3.22975e-06
-3.69947e-06
3.57084e-05
3.79473e-06
-4.68323e-06
2.96536e-05
4.42395e-06
-5.77147e-06
2.22835e-05
5.1391e-06
-6.96504e-06
1.38187e-05
5.48549e-06
-7.90142e-06
5.08022e-06
5.20448e-06
-8.02951e-06
1.72365e-06
-4.67213e-06
6.60137e-05
6.72084e-06
-8.97906e-09
6.77456e-05
9.59222e-06
-1.03201e-07
6.79681e-05
9.27487e-06
-2.92714e-07
6.70151e-05
7.57135e-06
-5.48785e-07
6.54212e-05
5.95827e-06
-8.70979e-07
6.3421e-05
4.8578e-06
-1.2709e-06
6.10435e-05
4.37893e-06
-1.7709e-06
5.81765e-05
4.42309e-06
-2.3917e-06
5.46315e-05
4.90095e-06
-3.15652e-06
5.01798e-05
5.72751e-06
-4.07587e-06
4.45471e-05
6.8846e-06
-5.17133e-06
3.74727e-05
8.25881e-06
-6.39614e-06
2.86614e-05
9.88269e-06
-7.74175e-06
1.82234e-05
1.10996e-05
-8.82303e-06
7.03801e-06
1.12051e-05
-8.97458e-06
5.63075e-06
-5.17315e-06
6.48269e-05
4.41514e-06
-4.97771e-09
6.69705e-05
7.4496e-06
-9.87628e-08
6.8152e-05
8.0185e-06
-2.88461e-07
6.82161e-05
7.31698e-06
-5.42829e-07
6.74411e-05
6.39074e-06
-8.61725e-07
6.60248e-05
5.73896e-06
-1.25738e-06
6.40452e-05
5.58084e-06
-1.7523e-06
6.14495e-05
5.93707e-06
-2.36742e-06
5.80893e-05
6.79885e-06
-3.12555e-06
5.37448e-05
8.13851e-06
-4.03831e-06
4.81207e-05
9.99098e-06
-5.126e-06
4.08974e-05
1.2271e-05
-6.34627e-06
3.16782e-05
1.50665e-05
-7.68557e-06
2.04655e-05
1.75192e-05
-8.76858e-06
8.00296e-06
1.85166e-05
-8.90885e-06
1.05404e-05
-5.09755e-06
6.3932e-05
3.00827e-06
3.79647e-09
6.57491e-05
5.64163e-06
-8.09252e-08
6.70896e-05
6.61536e-06
-2.61938e-07
6.76267e-05
6.60647e-06
-5.06427e-07
6.74043e-05
6.29298e-06
-8.13133e-07
6.65116e-05
6.12616e-06
-1.19324e-06
6.49976e-05
6.35667e-06
-1.66762e-06
6.28228e-05
7.08268e-06
-2.25585e-06
5.98636e-05
8.36591e-06
-2.97856e-06
5.59125e-05
1.02488e-05
-3.8471e-06
5.06666e-05
1.28413e-05
-4.8786e-06
4.37441e-05
1.61384e-05
-6.03598e-06
3.46182e-05
2.03552e-05
-7.30057e-06
2.30437e-05
2.45328e-05
-8.3261e-06
9.35647e-06
2.73068e-05
-8.43837e-06
1.6972e-05
-4.79676e-06
6.34592e-05
2.07889e-06
1.43997e-08
6.49516e-05
4.16914e-06
-5.70749e-08
6.62649e-05
5.25602e-06
-2.2503e-07
6.7045e-05
5.67577e-06
-4.55968e-07
6.72022e-05
5.84581e-06
-7.46805e-07
6.67398e-05
6.12268e-06
-1.10671e-06
6.56679e-05
6.74306e-06
-1.55405e-06
6.3944e-05
7.84746e-06
-2.10626e-06
6.14585e-05
9.55305e-06
-2.78096e-06
5.80119e-05
1.19791e-05
-3.58864e-06
5.32974e-05
1.53256e-05
-4.54207e-06
4.68657e-05
1.97282e-05
-5.61026e-06
3.80609e-05
2.55963e-05
-6.7682e-06
2.63034e-05
3.20517e-05
-7.71083e-06
1.13414e-05
3.77233e-05
-7.79076e-06
2.56033e-05
-4.41308e-06
6.32598e-05
1.35426e-06
2.64781e-08
6.45804e-05
2.88094e-06
-2.91918e-08
6.58862e-05
3.92398e-06
-1.81299e-07
6.68405e-05
4.59802e-06
-3.96125e-07
6.72963e-05
5.13577e-06
-6.68384e-07
6.72139e-05
5.78636e-06
-1.00454e-06
6.65859e-05
6.74815e-06
-1.41975e-06
6.53815e-05
8.17699e-06
-1.92858e-06
6.35254e-05
1.02247e-05
-2.54472e-06
6.08621e-05
1.30799e-05
-3.27682e-06
5.71437e-05
1.70216e-05
-4.13166e-06
5.19183e-05
2.23863e-05
-5.08418e-06
4.4491e-05
2.9822e-05
-6.10068e-06
3.36225e-05
3.91211e-05
-6.92962e-06
1.78635e-05
4.94296e-05
-6.96744e-06
4.10444e-05
-3.96509e-06
6.32013e-05
3.91579e-08
6.93913e-07
6.44869e-05
5.60739e-10
1.64109e-06
6.5852e-05
-1.34201e-07
2.55387e-06
6.69736e-05
-3.31492e-07
3.38237e-06
6.76851e-05
-5.83748e-07
4.2088e-06
6.79331e-05
-8.944e-07
5.17047e-06
6.7711e-05
-1.27506e-06
6.41487e-06
6.70064e-05
-1.7371e-06
8.09732e-06
6.57801e-05
-2.28997e-06
1.03893e-05
6.39222e-05
-2.93988e-06
1.35409e-05
6.12523e-05
-3.68723e-06
1.78935e-05
5.73411e-05
-4.5121e-06
2.40275e-05
5.15642e-05
-5.37275e-06
3.27912e-05
4.21628e-05
-6.07674e-06
4.52009e-05
2.70864e-05
-6.08963e-06
6.09774e-05
-3.58523e-06
6.59492e-05
5.00869e-05
1.24186e-05
-8.19048e-11