/*--------------------------------*- C++ -*----------------------------------*\
| =========                 |                                                 |
| \\      /  F ield         | OpenFOAM: The Open Source CFD Toolbox           |
|  \\    /   O peration     | Version:  v1912                                 |
|   \\  /    A nd           | Website:  www.openfoam.com                      |
|    \\/     M anipulation  |                                                 |
\*---------------------------------------------------------------------------*/
FoamFile
{
    version     2.0;
    format      ascii;
    class       volScalarField;
    location    "0.53/fluid";
    object      T;
}
// * * * * * * * * * * * * * * * * * * * * * * * * * * * * * * * * * * * * * //

dimensions      [0 0 0 1 0 0 0];


internalField   nonuniform List<scalar> 
14592
(
273.23
273.701
274.197
274.728
275.302
275.93
276.622
277.389
278.245
279.203
280.279
281.491
282.864
284.432
286.263
288.521
273.229
273.696
274.189
274.716
275.286
275.909
276.597
277.359
278.21
279.162
280.231
281.438
282.806
284.372
286.198
288.423
273.226
273.688
274.175
274.696
275.259
275.875
276.554
277.307
278.147
279.088
280.145
281.34
282.7
284.261
286.091
288.33
273.223
273.678
274.158
274.67
275.225
275.83
276.497
277.237
278.061
278.984
280.023
281.2
282.543
284.097
285.934
288.209
273.219
273.666
274.137
274.64
275.183
275.776
276.428
277.149
277.953
278.853
279.866
281.015
282.332
283.867
285.706
288.03
273.215
273.653
274.114
274.605
275.135
275.713
276.347
277.047
277.826
278.696
279.674
280.784
282.058
283.554
285.375
287.744
273.21
273.638
274.088
274.567
275.082
275.643
276.257
276.933
277.682
278.516
279.451
280.506
281.717
283.139
284.889
287.246
273.205
273.622
274.061
274.526
275.027
275.569
276.161
276.81
277.526
278.319
279.201
280.19
281.312
282.614
284.195
286.324
273.236
273.719
274.229
274.775
275.367
276.017
276.736
277.536
278.433
279.442
280.581
281.873
283.346
285.04
287.021
289.414
273.234
273.714
274.22
274.762
275.351
275.996
276.71
277.505
278.396
279.399
280.532
281.818
283.287
284.98
286.96
289.336
273.232
273.706
274.206
274.742
275.323
275.96
276.665
277.451
278.331
279.322
280.442
281.717
283.178
284.868
286.856
289.255
273.228
273.696
274.188
274.716
275.287
275.914
276.606
277.377
278.241
279.214
280.315
281.571
283.017
284.701
286.702
289.148
273.224
273.683
274.167
274.684
275.244
275.857
276.533
277.286
278.128
279.076
280.151
281.378
282.797
284.465
286.476
288.985
273.22
273.669
274.142
274.648
275.194
275.791
276.449
277.179
277.995
278.911
279.949
281.134
282.509
284.139
286.139
288.713
273.215
273.654
274.116
274.608
275.139
275.718
276.355
277.059
277.843
278.721
279.712
280.84
282.147
283.701
285.632
288.215
273.209
273.637
274.087
274.566
275.081
275.641
276.254
276.93
277.679
278.513
279.447
280.502
281.713
283.135
284.886
287.243
273.241
273.736
274.259
274.819
275.428
276.098
276.841
277.671
278.603
279.656
280.847
282.2
283.742
285.505
287.532
289.875
273.24
273.731
274.249
274.806
275.411
276.076
276.814
277.638
278.565
279.611
280.796
282.144
283.682
285.445
287.473
289.808
273.237
273.723
274.235
274.785
275.382
276.039
276.768
277.582
278.497
279.531
280.704
282.04
283.57
285.333
287.372
289.734
273.234
273.712
274.217
274.758
275.345
275.991
276.707
277.506
278.404
279.419
280.572
281.89
283.405
285.164
287.22
289.632
273.23
273.699
274.195
274.725
275.3
275.932
276.631
277.411
278.287
279.277
280.401
281.689
283.179
284.923
286.994
289.473
273.225
273.685
274.169
274.687
275.249
275.864
276.543
277.3
278.148
279.105
280.191
281.436
282.881
284.589
286.653
289.206
273.22
273.669
274.141
274.646
275.192
275.788
276.446
277.175
277.99
278.906
279.943
281.129
282.504
284.134
286.135
288.71
273.214
273.652
274.112
274.602
275.131
275.708
276.341
277.041
277.818
278.688
279.665
280.774
282.048
283.544
285.366
287.738
273.246
273.751
274.285
274.858
275.482
276.169
276.933
277.788
278.75
279.838
281.069
282.466
284.05
285.843
287.866
290.126
273.245
273.746
274.275
274.845
275.464
276.147
276.905
277.755
278.711
279.792
281.017
282.408
283.989
285.783
287.809
290.064
273.242
273.737
274.261
274.823
275.435
276.109
276.858
277.697
278.642
279.71
280.922
282.302
283.876
285.671
287.709
289.992
273.238
273.726
274.242
274.795
275.397
276.059
276.795
277.619
278.546
279.595
280.787
282.148
283.708
285.5
287.557
289.892
273.234
273.713
274.219
274.761
275.351
275.999
276.717
277.521
278.425
279.448
280.611
281.943
283.477
285.256
287.33
289.735
273.229
273.698
274.193
274.723
275.298
275.928
276.627
277.406
278.281
279.27
280.394
281.682
283.171
284.916
286.987
289.469
273.224
273.682
274.164
274.68
275.239
275.85
276.526
277.277
278.118
279.065
280.138
281.365
282.784
284.452
286.465
288.978
273.218
273.665
274.134
274.635
275.176
275.767
276.417
277.138
277.94
278.838
279.85
280.998
282.315
283.85
285.691
288.02
273.25
273.764
274.307
274.891
275.527
276.229
277.01
277.885
278.871
279.985
281.245
282.671
284.278
286.081
288.084
290.272
273.249
273.758
274.297
274.877
275.509
276.206
276.982
277.851
278.831
279.938
281.192
282.613
284.218
286.022
288.027
290.212
273.246
273.75
274.282
274.855
275.479
276.167
276.933
277.792
278.76
279.854
281.096
282.505
284.103
285.908
287.928
290.141
273.242
273.739
274.263
274.826
275.44
276.116
276.869
277.712
278.662
279.737
280.958
282.348
283.933
285.737
287.776
290.042
273.238
273.725
274.24
274.792
275.393
276.054
276.789
277.612
278.538
279.586
280.778
282.139
283.698
285.49
287.549
289.886
273.233
273.71
274.213
274.753
275.338
275.982
276.696
277.494
278.391
279.404
280.556
281.873
283.388
285.147
287.205
289.621
273.228
273.693
274.184
274.709
275.278
275.902
276.593
277.361
278.223
279.194
280.294
281.549
282.994
284.678
286.682
289.134
273.222
273.675
274.153
274.663
275.214
275.817
276.481
277.218
278.04
278.961
279.998
281.174
282.516
284.07
285.909
288.191
273.254
273.774
274.324
274.917
275.562
276.275
277.069
277.959
278.962
280.095
281.375
282.819
284.439
286.242
288.222
290.36
273.252
273.768
274.315
274.902
275.544
276.252
277.04
277.925
278.922
280.048
281.322
282.76
284.378
286.182
288.166
290.3
273.249
273.76
274.299
274.88
275.513
276.213
276.991
277.865
278.85
279.963
281.224
282.652
284.263
286.068
288.067
290.23
273.246
273.748
274.28
274.851
275.474
276.161
276.926
277.783
278.75
279.844
281.084
282.493
284.091
285.896
287.915
290.131
273.241
273.735
274.256
274.816
275.426
276.097
276.844
277.681
278.624
279.69
280.902
282.281
283.854
285.648
287.687
289.975
273.236
273.719
274.229
274.776
275.37
276.024
276.75
277.561
278.474
279.505
280.676
282.011
283.54
285.302
287.343
289.712
273.23
273.702
274.199
274.731
275.309
275.943
276.644
277.426
278.303
279.291
280.41
281.683
283.142
284.832
286.821
289.229
273.225
273.684
274.167
274.684
275.244
275.856
276.531
277.28
278.116
279.054
280.109
281.302
282.66
284.222
286.052
288.298
273.256
273.781
274.336
274.934
275.586
276.306
277.109
278.009
279.024
280.169
281.461
282.915
284.54
286.34
288.305
290.41
273.254
273.775
274.326
274.92
275.568
276.283
277.08
277.975
278.983
280.121
281.407
282.856
284.479
286.28
288.249
290.351
273.251
273.766
274.311
274.897
275.537
276.243
277.031
277.914
278.91
280.035
281.309
282.746
284.363
286.167
288.15
290.281
273.248
273.755
274.291
274.868
275.497
276.191
276.964
277.831
278.809
279.915
281.167
282.586
284.191
285.994
287.998
290.182
273.243
273.741
274.267
274.832
275.448
276.127
276.882
277.728
278.682
279.76
280.983
282.373
283.952
285.745
287.77
290.027
273.238
273.725
274.24
274.792
275.392
276.053
276.786
277.607
278.53
279.573
280.755
282.101
283.637
285.399
287.426
289.764
273.232
273.708
274.209
274.747
275.33
275.97
276.679
277.47
278.357
279.356
280.486
281.77
283.237
284.927
286.905
289.284
273.226
273.69
274.177
274.699
275.264
275.882
276.564
277.322
278.168
279.116
280.182
281.386
282.752
284.316
286.139
288.361
273.257
273.784
274.342
274.943
275.598
276.322
277.129
278.035
279.055
280.206
281.503
282.962
284.59
286.387
288.343
290.433
273.255
273.778
274.332
274.929
275.58
276.299
277.1
278
279.013
280.158
281.449
282.903
284.528
286.327
288.288
290.374
273.253
273.77
274.317
274.906
275.549
276.259
277.051
277.939
278.94
280.071
281.35
282.793
284.412
286.214
288.189
290.304
273.249
273.758
274.297
274.876
275.508
276.206
276.984
277.856
278.839
279.95
281.208
282.632
284.239
286.04
288.037
290.205
273.244
273.744
274.273
274.841
275.459
276.142
276.901
277.752
278.711
279.795
281.023
282.418
284
285.792
287.809
290.05
273.239
273.728
274.245
274.8
275.403
276.067
276.805
277.63
278.558
279.606
280.794
282.145
283.684
285.445
287.465
289.788
273.233
273.711
274.215
274.755
275.341
275.984
276.697
277.492
278.384
279.389
280.524
281.813
283.283
284.973
286.945
289.31
273.227
273.692
274.183
274.707
275.274
275.896
276.581
277.343
278.194
279.147
280.219
281.428
282.797
284.362
286.18
288.39
273.197
273.599
274.02
274.462
274.929
275.426
275.954
276.514
277.106
277.725
278.364
279.012
279.651
280.26
280.812
281.278
273.196
273.596
274.013
274.453
274.918
275.412
275.937
276.494
277.083
277.698
278.333
278.977
279.612
280.218
280.767
281.231
273.194
273.59
274.003
274.438
274.899
275.387
275.907
276.458
277.04
277.648
278.276
278.912
279.54
280.139
280.682
281.142
273.191
273.582
273.99
274.419
274.873
275.355
275.866
276.409
276.981
277.579
278.196
278.82
279.437
280.026
280.56
281.012
273.188
273.573
273.974
274.396
274.842
275.314
275.816
276.348
276.908
277.492
278.095
278.705
279.307
279.881
280.402
280.844
273.185
273.563
273.956
274.369
274.806
275.268
275.758
276.277
276.822
277.391
277.977
278.568
279.152
279.708
280.213
280.641
273.181
273.551
273.936
274.34
274.767
275.218
275.695
276.199
276.728
277.279
277.845
278.415
278.977
279.512
279.997
280.408
273.177
273.539
273.915
274.31
274.725
275.164
275.628
276.116
276.628
277.159
277.703
278.251
278.789
279.299
279.762
280.153
273.198
273.602
274.024
274.469
274.94
275.441
275.975
276.543
277.144
277.775
278.429
279.095
279.756
280.39
280.969
281.459
273.197
273.598
274.017
274.459
274.928
275.426
275.957
276.521
277.119
277.746
278.396
279.058
279.715
280.346
280.922
281.411
273.195
273.592
274.007
274.444
274.908
275.401
275.926
276.484
277.074
277.694
278.337
278.991
279.641
280.264
280.834
281.319
273.192
273.584
273.994
274.425
274.881
275.367
275.884
276.433
277.014
277.623
278.254
278.897
279.535
280.148
280.708
281.185
273.189
273.575
273.978
274.401
274.85
275.326
275.833
276.371
276.939
277.535
278.151
278.779
279.401
279.999
280.546
281.012
273.186
273.564
273.959
274.375
274.814
275.28
275.775
276.299
276.853
277.432
278.03
278.639
279.242
279.821
280.35
280.801
273.182
273.553
273.939
274.345
274.774
275.228
275.71
276.22
276.757
277.317
277.895
278.481
279.061
279.617
280.125
280.558
273.178
273.54
273.918
274.314
274.732
275.174
275.642
276.136
276.654
277.195
277.75
278.312
278.866
279.396
279.879
280.29
273.2
273.608
274.035
274.485
274.964
275.474
276.019
276.601
277.221
277.876
278.56
279.263
279.968
280.654
281.288
281.83
273.199
273.604
274.028
274.475
274.951
275.458
276
276.578
277.194
277.845
278.525
279.223
279.925
280.607
281.238
281.779
273.197
273.598
274.017
274.46
274.93
275.431
275.967
276.539
277.148
277.791
278.463
279.153
279.847
280.522
281.147
281.683
273.194
273.59
274.003
274.44
274.903
275.397
275.924
276.487
277.085
277.717
278.377
279.055
279.736
280.4
281.014
281.543
273.191
273.58
273.987
274.416
274.87
275.355
275.872
276.423
277.008
277.625
278.269
278.931
279.596
280.242
280.842
281.359
273.187
273.57
273.968
274.388
274.833
275.307
275.812
276.349
276.918
277.518
278.143
278.784
279.427
280.053
280.633
281.133
273.184
273.558
273.948
274.358
274.793
275.254
275.745
276.267
276.819
277.399
278.001
278.618
279.235
279.835
280.39
280.868
273.18
273.545
273.926
274.327
274.75
275.199
275.675
276.18
276.713
277.271
277.849
278.438
279.026
279.595
280.121
280.573
273.203
273.618
274.052
274.511
275
275.523
276.085
276.689
277.336
278.025
278.753
279.512
280.285
281.051
281.772
282.402
273.202
273.614
274.045
274.501
274.987
275.507
276.065
276.665
277.308
277.993
278.716
279.47
280.24
281.002
281.721
282.348
273.2
273.607
274.034
274.485
274.965
275.479
276.031
276.624
277.259
277.936
278.651
279.396
280.157
280.911
281.624
282.248
273.197
273.599
274.02
274.464
274.937
275.443
275.986
276.569
277.193
277.858
278.56
279.292
280.039
280.781
281.483
282.099
273.194
273.589
274.003
274.439
274.903
275.4
275.932
276.502
277.112
277.762
278.447
279.16
279.889
280.612
281.298
281.901
273.19
273.578
273.984
274.411
274.865
275.35
275.869
276.425
277.018
277.648
278.312
279.002
279.707
280.406
281.069
281.652
273.186
273.566
273.962
274.38
274.823
275.296
275.8
276.339
276.913
277.522
278.161
278.823
279.498
280.166
280.798
281.354
273.182
273.553
273.94
274.347
274.779
275.238
275.727
276.248
276.802
277.386
277.997
278.629
279.268
279.899
280.493
281.014
273.207
273.631
274.075
274.546
275.048
275.588
276.171
276.802
277.483
278.217
279.002
279.833
280.699
281.575
282.425
283.187
273.206
273.627
274.068
274.535
275.034
275.571
276.15
276.777
277.454
278.183
278.963
279.79
280.65
281.524
282.371
283.132
273.204
273.62
274.056
274.518
275.011
275.542
276.115
276.734
277.403
278.123
278.894
279.711
280.562
281.428
282.269
283.026
273.201
273.612
274.041
274.496
274.982
275.504
276.068
276.676
277.333
278.041
278.798
279.6
280.437
281.289
282.119
282.869
273.198
273.601
274.024
274.471
274.947
275.459
276.011
276.606
277.248
277.938
278.676
279.458
280.274
281.106
281.919
282.656
273.194
273.59
274.004
274.441
274.907
275.407
275.945
276.524
277.148
277.817
278.532
279.287
280.075
280.879
281.665
282.379
273.19
273.577
273.982
274.409
274.864
275.35
275.872
276.434
277.037
277.682
278.368
279.092
279.844
280.609
281.356
282.036
273.186
273.564
273.959
274.375
274.818
275.29
275.796
276.338
276.917
277.536
278.19
278.877
279.587
280.304
281
281.63
273.212
273.647
274.102
274.586
275.105
275.665
276.273
276.935
277.657
278.443
279.296
280.214
281.193
282.214
283.242
284.203
273.211
273.642
274.095
274.575
275.09
275.647
276.251
276.909
277.626
278.407
279.254
280.168
281.142
282.16
283.185
284.146
273.209
273.635
274.083
274.557
275.067
275.617
276.214
276.864
277.572
278.343
279.181
280.084
281.048
282.059
283.079
284.038
273.206
273.626
274.067
274.535
275.036
275.577
276.164
276.803
277.499
278.256
279.078
279.965
280.914
281.911
282.921
283.875
273.203
273.616
274.049
274.508
275
275.53
276.104
276.729
277.408
278.147
278.948
279.813
280.738
281.713
282.706
283.648
273.199
273.604
274.028
274.478
274.958
275.475
276.035
276.642
277.301
278.017
278.792
279.627
280.521
281.462
282.424
283.343
273.194
273.591
274.005
274.444
274.912
275.415
275.958
276.546
277.183
277.871
278.614
279.412
280.263
281.157
282.07
282.944
273.19
273.577
273.981
274.409
274.864
275.352
275.877
276.444
277.055
277.713
278.419
279.174
279.972
280.804
281.646
282.446
273.218
273.664
274.133
274.632
275.168
275.75
276.385
277.082
277.848
278.691
279.618
280.635
281.743
282.94
284.202
285.462
273.217
273.659
274.125
274.62
275.153
275.731
276.362
277.054
277.816
278.653
279.575
280.586
281.69
282.883
284.144
285.402
273.214
273.652
274.112
274.602
275.128
275.7
276.323
277.007
277.759
278.586
279.497
280.497
281.592
282.778
284.035
285.294
273.211
273.643
274.096
274.578
275.096
275.658
276.271
276.943
277.681
278.493
279.387
280.371
281.449
282.622
283.872
285.133
273.208
273.632
274.077
274.55
275.058
275.609
276.208
276.864
277.585
278.376
279.248
280.207
281.26
282.41
283.645
284.903
273.204
273.619
274.055
274.518
275.015
275.551
276.135
276.773
277.471
278.238
279.08
280.005
281.022
282.135
283.338
284.577
273.199
273.606
274.032
274.483
274.967
275.488
276.054
276.671
277.344
278.08
278.886
279.769
280.735
281.792
282.933
284.119
273.194
273.591
274.007
274.446
274.916
275.421
275.968
276.562
277.207
277.909
278.673
279.504
280.406
281.382
282.425
283.496
273.224
273.682
274.165
274.68
275.235
275.84
276.503
277.236
278.047
278.949
279.952
281.07
282.315
283.704
285.251
286.949
273.223
273.677
274.156
274.667
275.219
275.82
276.479
277.207
278.013
278.909
279.907
281.019
282.26
283.645
285.189
286.878
273.22
273.67
274.143
274.648
275.193
275.787
276.438
277.157
277.953
278.838
279.824
280.925
282.157
283.537
285.08
286.774
273.217
273.661
274.127
274.624
275.16
275.744
276.384
277.09
277.872
278.74
279.709
280.791
282.007
283.375
284.918
286.628
273.213
273.649
274.107
274.595
275.12
275.692
276.318
277.007
277.769
278.616
279.56
280.616
281.805
283.153
284.687
286.413
273.209
273.636
274.084
274.561
275.075
275.632
276.241
276.91
277.649
278.468
279.38
280.399
281.548
282.857
284.362
286.09
273.204
273.622
274.06
274.525
275.024
275.565
276.155
276.802
277.513
278.299
279.17
280.142
281.233
282.474
283.911
285.588
273.199
273.607
274.033
274.486
274.971
275.495
276.064
276.686
277.367
278.115
278.939
279.85
280.864
282.005
283.306
284.811
273.199
273.606
274.033
274.485
274.97
275.493
276.062
276.683
277.364
278.112
278.936
279.847
280.861
282.001
283.303
284.808
273.194
273.591
274.005
274.444
274.914
275.419
275.965
276.558
277.203
277.904
278.668
279.499
280.401
281.376
282.42
283.492
273.189
273.576
273.98
274.406
274.861
275.348
275.873
276.439
277.049
277.706
278.412
279.166
279.964
280.797
281.639
282.44
273.185
273.563
273.957
274.373
274.814
275.285
275.79
276.331
276.911
277.528
278.182
278.868
279.578
280.295
280.992
281.622
273.182
273.552
273.938
274.345
274.775
275.233
275.721
276.241
276.794
277.377
277.988
278.619
279.258
279.889
280.483
281.005
273.179
273.544
273.924
274.324
274.746
275.194
275.669
276.173
276.704
277.261
277.839
278.428
279.016
279.585
280.111
280.564
273.177
273.539
273.916
274.311
274.728
275.169
275.635
276.128
276.646
277.185
277.74
278.301
278.855
279.385
279.869
280.281
273.177
273.537
273.913
274.306
274.721
275.158
275.621
276.108
276.619
277.149
277.693
278.24
278.777
279.288
279.751
280.144
273.204
273.621
274.058
274.523
275.021
275.562
276.151
276.797
277.507
278.293
279.163
280.134
281.225
282.467
283.904
285.582
273.199
273.605
274.03
274.48
274.963
275.483
276.048
276.664
277.336
278.072
278.877
279.759
280.725
281.782
282.924
284.11
273.194
273.589
274.003
274.441
274.908
275.41
275.952
276.538
277.173
277.861
278.603
279.401
280.251
281.145
282.059
282.934
273.189
273.576
273.979
274.405
274.859
275.344
275.865
276.425
277.027
277.671
278.356
279.079
279.831
280.596
281.344
282.024
273.186
273.564
273.96
274.376
274.818
275.289
275.792
276.33
276.903
277.51
278.148
278.81
279.484
280.152
280.785
281.342
273.183
273.556
273.945
274.354
274.787
275.247
275.737
276.257
276.808
277.386
277.988
278.604
279.221
279.82
280.376
280.856
273.181
273.551
273.936
274.341
274.768
275.221
275.701
276.21
276.745
277.304
277.881
278.467
279.047
279.603
280.112
280.546
273.181
273.549
273.933
274.336
274.761
275.21
275.686
276.188
276.716
277.266
277.831
278.401
278.963
279.497
279.983
280.396
273.209
273.635
274.082
274.558
275.07
275.625
276.233
276.901
277.639
278.457
279.367
280.386
281.535
282.844
284.351
286.08
273.203
273.618
274.052
274.514
275.009
275.544
276.126
276.762
277.459
278.224
279.065
279.99
281.007
282.12
283.324
284.564
273.198
273.602
274.025
274.473
274.952
275.467
276.025
276.63
277.288
278.002
278.776
279.611
280.504
281.445
282.408
283.328
273.193
273.588
274
274.436
274.9
275.398
275.934
276.512
277.134
277.802
278.515
279.27
280.057
280.861
281.648
282.363
273.19
273.576
273.98
274.405
274.858
275.341
275.858
276.412
277.004
277.632
278.295
278.984
279.688
280.388
281.051
281.636
273.187
273.567
273.964
274.383
274.826
275.297
275.8
276.335
276.903
277.502
278.125
278.765
279.408
280.034
280.615
281.117
273.185
273.562
273.955
274.369
274.806
275.27
275.763
276.286
276.837
277.415
278.012
278.62
279.223
279.802
280.332
280.785
273.184
273.56
273.952
274.364
274.798
275.258
275.747
276.263
276.807
277.374
277.958
278.55
279.133
279.689
280.195
280.625
273.213
273.647
274.103
274.589
275.113
275.682
276.306
276.993
277.753
278.599
279.541
280.596
281.785
283.133
284.668
286.397
273.207
273.629
274.073
274.544
275.05
275.598
276.195
276.849
277.567
278.357
279.227
280.185
281.237
282.388
283.624
284.884
273.202
273.613
274.044
274.501
274.991
275.518
276.09
276.712
277.389
278.126
278.926
279.789
280.715
281.689
282.683
283.627
273.197
273.599
274.019
274.463
274.938
275.447
275.996
276.589
277.229
277.917
278.653
279.434
280.25
281.082
281.896
282.634
273.193
273.586
273.998
274.432
274.894
275.387
275.917
276.485
277.093
277.74
278.423
279.136
279.864
280.588
281.275
281.879
273.19
273.577
273.982
274.408
274.86
275.342
275.857
276.405
276.988
277.604
278.246
278.907
279.571
280.218
280.819
281.338
273.188
273.572
273.972
274.394
274.84
275.314
275.818
276.354
276.92
277.513
278.128
278.754
279.377
279.975
280.523
280.991
273.187
273.57
273.969
274.388
274.832
275.302
275.801
276.33
276.888
277.47
278.072
278.681
279.282
279.857
280.38
280.824
273.216
273.657
274.121
274.616
275.149
275.729
276.366
277.069
277.848
278.715
279.681
280.762
281.977
283.346
284.89
286.603
273.21
273.639
274.09
274.569
275.084
275.643
276.253
276.921
277.656
278.466
279.358
280.34
281.417
282.59
283.842
285.105
273.205
273.623
274.061
274.526
275.024
275.561
276.145
276.78
277.473
278.228
279.048
279.934
280.882
281.878
282.89
283.846
273.2
273.608
274.035
274.487
274.969
275.488
276.048
276.653
277.308
278.012
278.767
279.568
280.404
281.256
282.088
282.84
273.196
273.595
274.013
274.454
274.924
275.427
275.967
276.546
277.168
277.83
278.53
279.26
280.007
280.749
281.453
282.071
273.193
273.586
273.997
274.43
274.89
275.38
275.904
276.464
277.06
277.689
278.347
279.023
279.705
280.368
280.985
281.516
273.191
273.58
273.987
274.415
274.869
275.351
275.864
276.411
276.989
277.595
278.225
278.866
279.504
280.117
280.68
281.159
273.19
273.578
273.983
274.409
274.86
275.338
275.847
276.386
276.956
277.551
278.166
278.79
279.406
279.995
280.532
280.987
273.219
273.665
274.135
274.636
275.177
275.766
276.414
277.128
277.921
278.803
279.786
280.885
282.115
283.494
285.038
286.735
273.213
273.647
274.103
274.589
275.111
275.678
276.297
276.977
277.725
278.549
279.457
280.455
281.549
282.734
283.992
285.253
273.207
273.63
274.074
274.544
275.049
275.595
276.187
276.833
277.538
278.306
279.141
280.042
281.005
282.015
283.037
283.998
273.202
273.615
274.047
274.505
274.994
275.52
276.088
276.704
277.369
278.086
278.854
279.669
280.52
281.385
282.228
282.988
273.198
273.602
274.025
274.472
274.948
275.457
276.005
276.594
277.226
277.899
278.611
279.355
280.115
280.87
281.585
282.212
273.195
273.593
274.008
274.447
274.913
275.41
275.942
276.51
277.115
277.755
278.424
279.113
279.807
280.482
281.109
281.649
273.193
273.587
273.998
274.432
274.891
275.38
275.901
276.455
277.042
277.659
278.299
278.952
279.602
280.226
280.798
281.287
273.192
273.585
273.995
274.426
274.882
275.367
275.883
276.43
277.008
277.614
278.239
278.874
279.502
280.102
280.648
281.111
273.22
273.671
274.145
274.65
275.196
275.792
276.446
277.168
277.97
278.862
279.856
280.965
282.204
283.588
285.13
286.815
273.214
273.652
274.113
274.602
275.13
275.702
276.328
277.015
277.772
278.605
279.523
280.532
281.634
282.827
284.087
285.344
273.209
273.635
274.082
274.557
275.067
275.618
276.216
276.869
277.582
278.359
279.203
280.114
281.087
282.105
283.131
284.094
273.204
273.62
274.056
274.517
275.011
275.542
276.116
276.738
277.41
278.135
278.913
279.737
280.596
281.47
282.32
283.084
273.2
273.607
274.033
274.484
274.964
275.478
276.032
276.627
277.265
277.946
278.667
279.419
280.188
280.95
281.672
282.304
273.197
273.597
274.016
274.458
274.928
275.43
275.967
276.541
277.153
277.8
278.477
279.174
279.875
280.558
281.192
281.738
273.195
273.591
274.006
274.443
274.906
275.4
275.926
276.486
277.079
277.703
278.35
279.01
279.668
280.299
280.878
281.372
273.194
273.589
274.003
274.437
274.897
275.387
275.907
276.46
277.045
277.657
278.289
278.931
279.567
280.173
280.726
281.194
273.221
273.674
274.15
274.658
275.206
275.804
276.462
277.189
277.995
278.892
279.891
281.005
282.248
283.634
285.174
286.852
273.215
273.655
274.117
274.609
275.139
275.714
276.344
277.034
277.795
278.633
279.556
280.57
281.676
282.872
284.132
285.387
273.21
273.638
274.087
274.564
275.076
275.629
276.231
276.888
277.604
278.385
279.234
280.15
281.127
282.148
283.177
284.14
273.205
273.622
274.06
274.523
275.019
275.553
276.13
276.755
277.431
278.161
278.942
279.771
280.635
281.512
282.365
283.131
273.2
273.609
274.037
274.49
274.972
275.489
276.045
276.643
277.285
277.97
278.695
279.451
280.224
280.99
281.715
282.35
273.197
273.6
274.02
274.464
274.936
275.441
275.98
276.557
277.172
277.823
278.503
279.204
279.91
280.597
281.234
281.782
273.195
273.594
274.01
274.449
274.914
275.41
275.938
276.501
277.098
277.725
278.376
279.04
279.701
280.336
280.918
281.414
273.195
273.592
274.007
274.443
274.905
275.397
275.92
276.475
277.063
277.678
278.315
278.96
279.599
280.21
280.765
281.236
273.173
273.526
273.894
274.279
274.683
275.11
275.559
276.031
276.525
277.036
277.558
278.081
278.593
279.078
279.516
279.887
273.169
273.514
273.873
274.248
274.642
275.057
275.492
275.949
276.424
276.915
277.414
277.912
278.399
278.857
279.271
279.62
273.166
273.503
273.854
274.22
274.604
275.007
275.429
275.871
276.329
276.8
277.278
277.753
278.214
278.647
279.037
279.365
273.162
273.493
273.837
274.195
274.57
274.962
275.373
275.801
276.244
276.697
277.155
277.609
278.047
278.458
278.825
279.134
273.16
273.485
273.822
274.174
274.541
274.925
275.326
275.743
276.172
276.611
277.051
277.487
277.906
278.296
278.645
278.938
273.158
273.479
273.812
274.158
274.52
274.897
275.29
275.698
276.117
276.544
276.971
277.392
277.795
278.171
278.505
278.785
273.156
273.475
273.805
274.149
274.506
274.879
275.267
275.668
276.081
276.499
276.917
277.328
277.721
278.085
278.409
278.68
273.156
273.473
273.803
274.145
274.501
274.871
275.257
275.655
276.063
276.477
276.891
277.297
277.684
278.043
278.361
278.628
273.174
273.528
273.897
274.283
274.69
275.119
275.572
276.05
276.55
277.069
277.601
278.136
278.663
279.165
279.621
280.008
273.17
273.516
273.876
274.252
274.648
275.065
275.505
275.966
276.447
276.945
277.453
277.962
278.461
278.934
279.362
279.726
273.166
273.504
273.856
274.224
274.609
275.015
275.441
275.886
276.35
276.827
277.313
277.797
278.269
278.714
279.116
279.456
273.163
273.494
273.839
274.198
274.575
274.97
275.384
275.816
276.263
276.722
277.187
277.648
278.096
278.516
278.893
279.212
273.16
273.486
273.824
274.177
274.546
274.933
275.336
275.756
276.19
276.633
277.08
277.522
277.949
278.348
278.705
279.005
273.158
273.48
273.814
274.161
274.525
274.904
275.3
275.711
276.134
276.565
276.998
277.425
277.835
278.217
278.557
278.844
273.157
273.476
273.807
274.152
274.512
274.887
275.277
275.682
276.097
276.52
276.943
277.359
277.758
278.128
278.458
278.734
273.156
273.475
273.805
274.148
274.506
274.879
275.267
275.668
276.08
276.499
276.917
277.328
277.721
278.085
278.409
278.68
273.175
273.532
273.904
274.295
274.707
275.142
275.604
276.091
276.604
277.139
277.691
278.252
278.808
279.344
279.836
280.259
273.171
273.52
273.883
274.264
274.664
275.087
275.534
276.004
276.497
277.009
277.535
278.066
278.591
279.092
279.551
279.943
273.168
273.509
273.863
274.234
274.624
275.035
275.468
275.922
276.396
276.886
277.387
277.89
278.384
278.853
279.279
279.642
273.164
273.498
273.845
274.208
274.589
274.989
275.409
275.849
276.305
276.776
277.254
277.731
278.197
278.636
279.034
279.37
273.161
273.49
273.831
274.187
274.56
274.951
275.36
275.787
276.229
276.683
277.142
277.597
278.039
278.453
278.826
279.141
273.159
273.483
273.82
274.171
274.538
274.922
275.323
275.741
276.171
276.611
277.055
277.493
277.916
278.312
278.665
278.963
273.158
273.48
273.813
274.161
274.525
274.904
275.3
275.711
276.134
276.565
276.997
277.424
277.834
278.216
278.557
278.843
273.158
273.479
273.811
274.158
274.52
274.897
275.29
275.697
276.116
276.543
276.97
277.391
277.795
278.17
278.504
278.784
273.178
273.54
273.918
274.314
274.734
275.179
275.653
276.155
276.687
277.246
277.828
278.425
279.027
279.616
280.167
280.647
273.174
273.527
273.896
274.282
274.69
275.122
275.579
276.064
276.574
277.107
277.659
278.223
278.785
279.331
279.838
280.276
273.17
273.515
273.875
274.252
274.649
275.068
275.511
275.977
276.467
276.976
277.5
278.03
278.555
279.06
279.524
279.923
273.166
273.505
273.857
274.225
274.612
275.02
275.449
275.9
276.371
276.858
277.356
277.856
278.348
278.817
279.244
279.608
273.164
273.496
273.842
274.203
274.582
274.98
275.398
275.836
276.29
276.759
277.234
277.71
278.173
278.611
279.007
279.344
273.161
273.49
273.831
274.187
274.559
274.95
275.36
275.787
276.229
276.682
277.141
277.596
278.038
278.453
278.825
279.14
273.16
273.486
273.824
274.177
274.546
274.932
275.335
275.755
276.189
276.632
277.079
277.521
277.948
278.346
278.703
279.004
273.16
273.485
273.822
274.173
274.541
274.925
275.325
275.742
276.171
276.609
277.05
277.485
277.904
278.295
278.644
278.937
273.181
273.55
273.935
274.341
274.771
275.228
275.717
276.239
276.795
277.384
278.005
278.652
279.314
279.977
280.613
281.182
273.177
273.537
273.913
274.307
274.725
275.168
275.64
276.142
276.674
277.234
277.821
278.426
279.04
279.647
280.221
280.727
273.173
273.525
273.891
274.276
274.682
275.112
275.567
276.05
276.559
277.092
277.646
278.211
278.779
279.332
279.849
280.298
273.169
273.514
273.872
274.248
274.643
275.061
275.503
275.968
276.456
276.965
277.488
278.018
278.545
279.051
279.518
279.919
273.166
273.505
273.857
274.225
274.612
275.019
275.449
275.899
276.37
276.857
277.355
277.855
278.347
278.816
279.242
279.607
273.164
273.498
273.845
274.208
274.588
274.988
275.408
275.847
276.304
276.774
277.252
277.73
278.195
278.635
279.032
279.369
273.163
273.494
273.838
274.198
274.574
274.969
275.382
275.814
276.261
276.72
277.184
277.646
278.094
278.514
278.891