/*--------------------------------*- C++ -*----------------------------------*\
| =========                 |                                                 |
| \\      /  F ield         | OpenFOAM: The Open Source CFD Toolbox           |
|  \\    /   O peration     | Version:  v1912                                 |
|   \\  /    A nd           | Website:  www.openfoam.com                      |
|    \\/     M anipulation  |                                                 |
\*---------------------------------------------------------------------------*/
FoamFile
{
    version     2.0;
    format      ascii;
    class       volVectorField;
    location    "0.53/fluid";
    object      U;
}
// * * * * * * * * * * * * * * * * * * * * * * * * * * * * * * * * * * * * * //

dimensions      [0 1 -1 0 0 0 0];


internalField   nonuniform List<vector> 
14592
(
(0.0877391 0.0172307 0.000632666)
(0.0726562 0.0114989 0.000960321)
(0.0583238 0.00702474 0.000689161)
(0.0507213 0.00334712 6.25943e-05)
(0.0462087 0.0015101 -0.000811828)
(0.0438036 0.000649196 -0.00187513)
(0.0422366 0.000307197 -0.003152)
(0.0410529 0.000172013 -0.0047095)
(0.039829 0.000114325 -0.00665303)
(0.0385826 5.67933e-05 -0.00914934)
(0.0368402 -2.98621e-05 -0.0124506)
(0.035116 -0.000245413 -0.0169135)
(0.0318616 -0.000563958 -0.0232699)
(0.0289808 -0.00142516 -0.0318065)
(0.0204743 -0.00199739 -0.0431802)
(0.0115605 -0.00503211 -0.0417206)
(0.104027 0.0176346 0.000825558)
(0.103998 0.0167134 0.00127287)
(0.101444 0.0130089 0.000912007)
(0.0982702 0.00842138 -3.15201e-05)
(0.0952397 0.00521502 -0.00143008)
(0.092808 0.00328092 -0.00320124)
(0.0906676 0.0023191 -0.00537004)
(0.0886496 0.0019269 -0.00803932)
(0.086388 0.00185252 -0.0113815)
(0.0838546 0.00192883 -0.0156703)
(0.0804123 0.00206313 -0.0213132)
(0.0764403 0.00211179 -0.0288968)
(0.0697943 0.00205041 -0.0394591)
(0.0622536 0.00134393 -0.0534844)
(0.0448879 0.000500534 -0.0705456)
(0.0259403 -0.00359617 -0.0664919)
(0.10397 0.0115146 0.000872633)
(0.108319 0.0150138 0.00134597)
(0.111211 0.0136451 0.00096348)
(0.111713 0.0103289 -4.16181e-05)
(0.111041 0.00745986 -0.00154073)
(0.10977 0.00548255 -0.0034552)
(0.108139 0.00442064 -0.00581286)
(0.106245 0.00402712 -0.00872479)
(0.103888 0.00409519 -0.0123767)
(0.101069 0.00446064 -0.0170686)
(0.0971281 0.00501769 -0.0232414)
(0.0923412 0.00562059 -0.0315555)
(0.0843619 0.00621362 -0.0431154)
(0.0748066 0.0062494 -0.058589)
(0.0538105 0.0055881 -0.0774168)
(0.0303306 0.000870716 -0.0740853)
(0.102099 0.00742719 0.000894824)
(0.106385 0.0117314 0.00139304)
(0.110626 0.0119484 0.00102048)
(0.112813 0.0102097 2.30416e-05)
(0.113649 0.00826186 -0.0014651)
(0.113456 0.00677928 -0.00336511)
(0.112559 0.00599384 -0.00570405)
(0.11114 0.00584335 -0.00859262)
(0.109093 0.00622489 -0.0122143)
(0.106464 0.00703808 -0.0168729)
(0.102593 0.00822177 -0.0230089)
(0.0977264 0.00967678 -0.0313162)
(0.0893895 0.0113649 -0.0429085)
(0.0791398 0.0127076 -0.0586202)
(0.0566935 0.0128591 -0.0779365)
(0.0310704 0.00676335 -0.075493)
(0.101088 0.00490248 0.000922297)
(0.104489 0.00880995 0.00145897)
(0.108566 0.00984275 0.00111938)
(0.111319 0.0092619 0.000156839)
(0.112976 0.00821925 -0.00128596)
(0.113576 0.00736899 -0.00312384)
(0.113365 0.00702085 -0.00537706)
(0.112512 0.00723762 -0.0081491)
(0.110946 0.00800882 -0.0116117)
(0.108747 0.00930891 -0.0160604)
(0.105266 0.0111321 -0.0219143)
(0.10075 0.0134442 -0.0298815)
(0.0925966 0.0162393 -0.0410404)
(0.0822916 0.0188943 -0.0564211)
(0.058971 0.019979 -0.0755273)
(0.0315361 0.0117822 -0.07415)
(0.100647 0.00335553 0.000954894)
(0.103375 0.00649201 0.00153972)
(0.107065 0.00778882 0.00124756)
(0.10999 0.00792522 0.000334521)
(0.112104 0.00760959 -0.00104773)
(0.113266 0.00737194 -0.0028041)
(0.113623 0.00751413 -0.0049443)
(0.113305 0.00816687 -0.00756047)
(0.112252 0.00939354 -0.0108075)
(0.110561 0.0112583 -0.0149662)
(0.107589 0.0138466 -0.0204227)
(0.103584 0.0172815 -0.0278895)
(0.09582 0.0217182 -0.0383776)
(0.0857186 0.0267402 -0.0531513)
(0.0616993 0.0305752 -0.0716892)
(0.0325006 0.0209198 -0.0717462)
(0.100484 0.00221892 0.00099425)
(0.102859 0.00453828 0.00163559)
(0.106301 0.00583161 0.00140161)
(0.109314 0.00639704 0.000549274)
(0.111727 0.00664069 -0.000760023)
(0.113314 0.00693955 -0.00241826)
(0.114159 0.0075455 -0.00442017)
(0.114375 0.00861316 -0.00683955)
(0.113925 0.0102502 -0.00980392)
(0.112945 0.0125927 -0.0135601)
(0.110861 0.015795 -0.0184272)
(0.107996 0.0201303 -0.025066)
(0.101638 0.0258759 -0.0343025)
(0.0932495 0.0328865 -0.0475827)
(0.069764 0.0391636 -0.0640591)
(0.0396327 0.0277324 -0.0657798)
(0.100432 0.00126269 0.00103812)
(0.102686 0.00276668 0.00174118)
(0.106067 0.00390481 0.00157138)
(0.109192 0.00472058 0.000785707)
(0.111844 0.005395 -0.000444674)
(0.113764 0.00614889 -0.00199794)
(0.115012 0.00716518 -0.00385255)
(0.115698 0.00859866 -0.00606193)
(0.115811 0.0105869 -0.0087247)
(0.11552 0.0133444 -0.0120497)
(0.114325 0.0171217 -0.0162866)
(0.112609 0.022507 -0.0220324)
(0.107749 0.0301559 -0.0299243)
(0.101437 0.0417007 -0.041605)
(0.0792913 0.0562091 -0.0560594)
(0.0517382 0.0613518 -0.0610653)
(0.0877078 0.0172333 0.000396287)
(0.0724777 0.0115111 0.000551452)
(0.0579232 0.00703552 0.000266778)
(0.0501262 0.00335337 -0.000287621)
(0.0454259 0.00151508 -0.00105024)
(0.0428335 0.000655858 -0.00199269)
(0.041046 0.000317399 -0.00314701)
(0.0395833 0.000186336 -0.00456843)
(0.0379942 0.000134449 -0.00634424)
(0.0362561 8.53421e-05 -0.00858191)
(0.0338882 1.59553e-05 -0.0114685)
(0.0312823 -0.000163131 -0.0151018)
(0.0271099 -0.000406307 -0.0199248)
(0.0226603 -0.00106948 -0.025058)
(0.0140419 -0.00150299 -0.0301619)
(0.00402305 -0.0035998 -0.0206314)
(0.103984 0.017648 0.000500496)
(0.103748 0.0167485 0.000677251)
(0.100866 0.0130533 0.000248136)
(0.0973529 0.00846708 -0.000625003)
(0.0939713 0.0052667 -0.00186987)
(0.0911765 0.0033472 -0.00345213)
(0.0886196 0.00240946 -0.00541815)
(0.0860866 0.00204963 -0.00786197)
(0.0831568 0.00201831 -0.0109307)
(0.0797312 0.00214969 -0.0148177)
(0.0751277 0.00236038 -0.0198275)
(0.0695628 0.00250911 -0.0261975)
(0.0611148 0.00259218 -0.0345354)
(0.0508934 0.00208625 -0.0437255)
(0.0328758 0.00132091 -0.0520411)
(0.0122447 -0.00238104 -0.0352974)
(0.103929 0.0115382 0.000526711)
(0.108061 0.0150706 0.000701561)
(0.110609 0.0137265 0.000235053)
(0.110743 0.0104262 -0.000703102)
(0.109684 0.00757715 -0.00204223)
(0.108007 0.00563151 -0.00375421)
(0.105914 0.00461802 -0.00589136)
(0.103451 0.0042912 -0.00855773)
(0.100356 0.00444923 -0.0119128)
(0.0965554 0.0049298 -0.0161725)
(0.0913267 0.00563917 -0.0216646)
(0.08478 0.00642322 -0.0286771)
(0.0747653 0.00724624 -0.0378392)
(0.0622458 0.00748208 -0.0480485)
(0.0403851 0.0068267 -0.0572375)
(0.015056 0.00168275 -0.0389314)
(0.10206 0.00745501 0.000546361)
(0.106131 0.0118002 0.000737636)
(0.11003 0.0120548 0.000277741)
(0.111854 0.0103478 -0.000653052)
(0.112308 0.00843649 -0.00198064)
(0.111716 0.00700526 -0.00367754)
(0.110364 0.00629456 -0.00579553)
(0.108387 0.00624778 -0.00843849)
(0.105615 0.00677131 -0.0117635)
(0.102018 0.00777053 -0.0159898)
(0.0968668 0.0092032 -0.0214417)
(0.0902457 0.0109599 -0.0284308)
(0.0798474 0.0130341 -0.0375776)
(0.06658 0.0147022 -0.0478595)
(0.0431793 0.014951 -0.0571707)
(0.0155505 0.0077589 -0.038875)
(0.101051 0.0049355 0.00057521)
(0.10424 0.00889188 0.000802436)
(0.107982 0.00997334 0.000374674)
(0.110385 0.00943791 -0.000521534)
(0.111678 0.00844684 -0.00180485)
(0.111902 0.00766594 -0.00344249)
(0.111264 0.0074166 -0.00547938)
(0.109887 0.00777121 -0.00801259)
(0.107642 0.00873336 -0.0111881)
(0.104535 0.0102882 -0.0152187)
(0.0998401 0.0124577 -0.0204085)
(0.0936538 0.0151987 -0.0270838)
(0.0834945 0.0185577 -0.0358282)
(0.0702235 0.0216998 -0.0457706)
(0.0458386 0.0230301 -0.054824)
(0.0161703 0.0131314 -0.0372467)
(0.100611 0.00339336 0.000609352)
(0.103131 0.00658551 0.00088372)
(0.106496 0.0079397 0.000502422)
(0.109087 0.0081324 -0.000345484)
(0.11086 0.00788101 -0.0015702)
(0.111674 0.00772867 -0.00313035)
(0.111638 0.00799167 -0.00506039)
(0.110844 0.00881475 -0.00744693)
(0.10917 0.0102815 -0.0104204)
(0.10665 0.0124759 -0.0141821)
(0.102556 0.0155269 -0.0190069)
(0.0970036 0.0195645 -0.0252329)
(0.0873245 0.0248424 -0.0333837)
(0.0743789 0.0306847 -0.0427981)
(0.0491799 0.0352246 -0.051407)
(0.0174829 0.0232729 -0.0350268)
(0.100448 0.0022615 0.000649405)
(0.102622 0.00464206 0.000979276)
(0.105752 0.0059991 0.000654608)
(0.108448 0.00662852 -0.0001346)
(0.110546 0.0069456 -0.00128926)
(0.111818 0.0073415 -0.00275648)
(0.112316 0.0080845 -0.00455633)
(0.112118 0.00934686 -0.00675938)
(0.111131 0.0112612 -0.00947209)
(0.109443 0.0139915 -0.012871)
(0.106396 0.0177479 -0.0171774)
(0.102221 0.0228283 -0.0227123)
(0.0941853 0.0296458 -0.0298701)
(0.0833425 0.0377692 -0.0382433)
(0.0585862 0.0451825 -0.0456994)
(0.025813 0.0308518 -0.0311796)
(0.100397 0.0013088 0.000692904)
(0.102456 0.00287743 0.00108301)
(0.105538 0.00408287 0.000820541)
(0.108367 0.00496684 9.57258e-05)
(0.11073 0.0057201 -0.000983408)
(0.112371 0.00657811 -0.00235109)
(0.113321 0.00774141 -0.00401181)
(0.113657 0.00938558 -0.00601843)
(0.113323 0.0116774 -0.00845201)
(0.112451 0.0148699 -0.0114608)
(0.110462 0.0192838 -0.0152102)
(0.107691 0.0255734 -0.0199964)
(0.101422 0.034586 -0.0260785)
(0.0931424 0.0477627 -0.0333355)
(0.0697502 0.064351 -0.0396538)
(0.0397019 0.066252 -0.0280474)
(0.0876836 0.0172356 0.000230275)
(0.0723376 0.0115212 0.000269365)
(0.0575984 0.00704476 -1.37613e-05)
(0.0496248 0.00335855 -0.000497905)
(0.0447429 0.00151899 -0.00115051)
(0.0419606 0.000660733 -0.00196312)
(0.0399483 0.000324497 -0.00296992)
(0.0382009 0.000195558 -0.00421523)
(0.0362418 0.000146048 -0.00576988)
(0.0339995 9.956e-05 -0.00770225)
(0.0309928 3.56637e-05 -0.0101584)
(0.027479 -0.000129769 -0.01314)
(0.0223934 -0.000350233 -0.0169793)
(0.0166143 -0.000935938 -0.0207534)
(0.00840374 -0.0014038 -0.0240462)
(-0.000236077 -0.00309926 -0.0162999)
(0.103951 0.0176609 0.00027439)
(0.10355 0.0167811 0.000273387)
(0.100394 0.0130954 -0.000181755)
(0.0965782 0.00851144 -0.000970981)
(0.0928654 0.005317 -0.00205539)
(0.0897144 0.0034106 -0.00343045)
(0.0867444 0.00249433 -0.00515149)
(0.0837008 0.00216327 -0.00730025)
(0.0801166 0.00216998 -0.00999788)
(0.0758205 0.00234907 -0.013378)
(0.0701074 0.00262348 -0.017671)
(0.0630399 0.00285071 -0.0229593)
(0.0530069 0.00303275 -0.0296546)
(0.0407336 0.00264118 -0.0365111)
(0.0230786 0.00182729 -0.0417949)
(0.00440922 -0.00180429 -0.0275937)
(0.103897 0.0115617 0.000285931)
(0.107858 0.0151256 0.000265694)
(0.110118 0.0138055 -0.000235023)
(0.109925 0.0105214 -0.00108858)
(0.108502 0.00769167 -0.00225884)
(0.10643 0.00577544 -0.00374853)
(0.103879 0.00480659 -0.00562032)
(0.100854 0.00454132 -0.00796633)
(0.0970408 0.00478246 -0.0109186)
(0.092287 0.00536863 -0.0146296)
(0.0858353 0.00621593 -0.0193453)
(0.0776413 0.00715919 -0.0251848)
(0.0658465 0.00817361 -0.032562)
(0.0510473 0.00855671 -0.0402086)
(0.0294252 0.00785065 -0.0460395)
(0.00612738 0.00224473 -0.0303373)
(0.10203 0.00748341 0.000302523)
(0.105931 0.0118682 0.000292302)
(0.109545 0.0121591 -0.000204591)
(0.111046 0.0104828 -0.00105155)
(0.111143 0.00860621 -0.00221076)
(0.110161 0.00722297 -0.00368605)
(0.108359 0.00658181 -0.00553983)
(0.105829 0.0066314 -0.00786435)
(0.102349 0.00728683 -0.0107894)
(0.0978099 0.00845759 -0.0144711)
(0.0914384 0.0101178 -0.0191515)
(0.0831658 0.0121439 -0.0249701)
(0.0709461 0.0145543 -0.0323295)
(0.0553281 0.0164897 -0.0400246)
(0.0320608 0.0168116 -0.0459192)
(0.00640001 0.00872239 -0.0302289)
(0.101023 0.00496898 0.000330318)
(0.104045 0.00897259 0.000352255)
(0.10751 0.0101008 -0.000115107)
(0.109601 0.00960884 -0.000929604)
(0.110554 0.00866664 -0.00204788)
(0.110409 0.00795093 -0.00346921)
(0.109346 0.00779417 -0.00524978)
(0.10745 0.00827775 -0.00747595)
(0.104536 0.00941856 -0.0102679)
(0.10054 0.0112103 -0.0137774)
(0.0946793 0.0137005 -0.0182299)
(0.0869062 0.0168324 -0.0237812)
(0.0749508 0.0207005 -0.0308045)
(0.0593408 0.0242748 -0.0382282)
(0.0349541 0.0258629 -0.0439397)
(0.00706447 0.0146789 -0.0289134)
(0.100583 0.00343109 0.000363375)
(0.102942 0.00667681 0.000429073)
(0.106039 0.00808579 4.88709e-06)
(0.108334 0.008332 -0.0007647)
(0.109785 0.00814146 -0.00182919)
(0.110257 0.00806955 -0.0031801)
(0.10983 0.00844623 -0.00486423)
(0.108559 0.00942932 -0.00695888)
(0.106272 0.0111216 -0.00957081)
(0.102935 0.0136237 -0.0128435)
(0.0977558 0.0171051 -0.0169783)
(0.0907217 0.0216954 -0.0221468)
(0.0793103 0.0277393 -0.0286751)
(0.0641046 0.0343219 -0.0356784)
(0.0387536 0.0395578 -0.0410818)
(0.00856559 0.0259961 -0.0271207)
(0.100421 0.00230315 0.000401593)
(0.102439 0.00474224 0.000519024)
(0.105313 0.00615981 0.000147372)
(0.10773 0.00684991 -0.000568122)
(0.10953 0.00723663 -0.00156866)
(0.110493 0.00772434 -0.00283549)
(0.110642 0.00859693 -0.00440273)
(0.110025 0.0100432 -0.00633424)
(0.108502 0.0122196 -0.00871689)
(0.106107 0.0153153 -0.0116764)
(0.102115 0.0195936 -0.0153725)
(0.0966614 0.0253695 -0.019976)
(0.0870762 0.0331862 -0.0257199)
(0.0742547 0.0423559 -0.0319582)
(0.0491712 0.050932 -0.0366317)
(0.0175342 0.0347263 -0.0242863)
(0.100371 0.00135307 0.000442476)
(0.10228 0.00298313 0.000615891)
(0.105119 0.00425223 0.000301785)
(0.107687 0.00520087 -0.000354619)
(0.109779 0.00602898 -0.00128614)
(0.111144 0.00698571 -0.00246276)
(0.11179 0.00828854 -0.00390474)
(0.11177 0.0101325 -0.00566098)
(0.110985 0.0127127 -0.00779702)
(0.109527 0.0163173 -0.0104176)
(0.106753 0.0213359 -0.0136382)
(0.102943 0.0284775 -0.0176217)
(0.0953608 0.0387806 -0.0225018)
(0.085494 0.0535112 -0.0278964)
(0.0616804 0.0722698 -0.0318378)
(0.0326371 0.0725858 -0.0218442)
(0.0876656 0.0172377 0.000120168)
(0.0722289 0.0115299 9.0658e-05)
(0.057341 0.00705287 -0.000172052)
(0.0492185 0.00336358 -0.000580771)
(0.0441817 0.00152329 -0.00111977)
(0.0412392 0.000666437 -0.00179091)
(0.0390465 0.000333221 -0.0026246)
(0.0370862 0.000208216 -0.00365132)
(0.0348784 0.00016451 -0.00491884)
(0.0323337 0.00012723 -0.00645417)
(0.0290184 8.02931e-05 -0.00834045)
(0.0251385 -5.00838e-05 -0.0104924)
(0.0198946 -0.000208276 -0.0130697)
(0.0139619 -0.000650067 -0.015206)
(0.00653388 -0.000981935 -0.0163832)
(-0.000738945 -0.00236671 -0.0100366)
(0.103925 0.0176728 0.00012723)
(0.103395 0.0168102 2.58637e-05)
(0.100017 0.0131334 -0.000411918)
(0.0959459 0.00855245 -0.00109575)
(0.0919497 0.00536388 -0.00200538)
(0.0884941 0.0034696 -0.00315087)
(0.0851815 0.00257317 -0.00458487)
(0.0817363 0.00226938 -0.00636997)
(0.0776766 0.00231332 -0.00859214)
(0.0728031 0.00254172 -0.011322)
(0.0664575 0.00288605 -0.0146932)
(0.0586608 0.00321071 -0.0186497)
(0.0481469 0.00353434 -0.0233578)
(0.0355169 0.00335207 -0.0276003)
(0.0190485 0.00271293 -0.0297091)
(0.00274164 -0.000796709 -0.0179419)
(0.103873 0.0115836 0.000129475)
(0.107698 0.0151757 4.55174e-07)
(0.109725 0.0138776 -0.000484322)
(0.109256 0.0106088 -0.00122752)
(0.107522 0.00779667 -0.00221203)
(0.105111 0.00590671 -0.00345507)
(0.102179 0.00497755 -0.0050167)
(0.0987083 0.00476728 -0.00696911)
(0.0943659 0.0050834 -0.00940706)
(0.0889702 0.00576663 -0.0124157)
(0.0818049 0.00674424 -0.0161375)
(0.0727923 0.00784885 -0.0205387)
(0.0604216 0.00907582 -0.0257714)
(0.045202 0.009688 -0.0305684)
(0.0248299 0.00913455 -0.0329218)
(0.00414674 0.00327051 -0.0197632)
(0.102007 0.00751013 0.0001429)
(0.105774 0.0119308 1.93863e-05)
(0.109159 0.0122546 -0.000463591)
(0.110388 0.0106063 -0.00120132)
(0.110178 0.00876073 -0.00217607)
(0.108863 0.00741975 -0.00340644)
(0.106686 0.00683934 -0.00495248)
(0.103718 0.00697274 -0.00688669)
(0.0997172 0.0077425 -0.00930207)
(0.094548 0.00906138 -0.0122867)
(0.0874709 0.0109178 -0.0159791)
(0.0783895 0.0131786 -0.0203602)
(0.0655892 0.0158871 -0.0255677)
(0.0495467 0.0180918 -0.0303734)
(0.0275021 0.018576 -0.0327093)
(0.00446625 0.00989033 -0.0195165)
(0.101001 0.00500032 0.000167815)
(0.103893 0.00904693 7.17381e-05)
(0.107135 0.0102173 -0.000385583)
(0.108965 0.00976431 -0.00109472)
(0.109625 0.00886542 -0.00203373)
(0.109165 0.00820665 -0.0032176)
(0.107749 0.00812994 -0.00470118)
(0.105442 0.00872388 -0.0065522)
(0.102041 0.0100158 -0.00885598)
(0.0974566 0.0120047 -0.011698)
(0.0909347 0.0147568 -0.0152039)
(0.0824055 0.0182009 -0.0193694)
(0.0698967 0.0224661 -0.0243093)
(0.0538848 0.0263789 -0.0288971)
(0.0306404 0.0281805 -0.0310905)
(0.00526199 0.0161244 -0.0184386)
(0.100563 0.00346604 0.000197625)
(0.102794 0.00676036 0.000139967)
(0.105677 0.00821855 -0.000279509)
(0.107723 0.00851245 -0.000949265)
(0.1089 0.00837549 -0.00184153)
(0.109079 0.00837335 -0.00296487)
(0.108327 0.00884735 -0.00436622)
(0.106681 0.00996518 -0.00610611)
(0.10395 0.0118436 -0.00825919)
(0.10008 0.0145925 -0.0109059)
(0.0942983 0.0184073 -0.0141539)
(0.0865815 0.0234039 -0.0180155)
(0.0746578 0.0299793 -0.022573)
(0.0590949 0.0370286 -0.026847)
(0.034785 0.0426311 -0.0288494)
(0.00692761 0.0279707 -0.0170662)
(0.100402 0.00234123 0.00023181)
(0.102298 0.0048332 0.00021972)
(0.104966 0.00630502 -0.000153775)
(0.10715 0.00704897 -0.000776321)
(0.108697 0.00749671 -0.00161334)
(0.109392 0.00806369 -0.00266482)
(0.109251 0.00904644 -0.00396727)
(0.108305 0.0106458 -0.00557088)
(0.106395 0.0130352 -0.0075354)
(0.103545 0.0164167 -0.00993047)
(0.0990373 0.0210856 -0.0128361)
(0.0930184 0.027348 -0.0162748)
(0.0830001 0.0358135 -0.0202746)
(0.0699253 0.0455782 -0.0240538)
(0.0457358 0.0546885 -0.0257031)
(0.0161499 0.0372234 -0.0152309)
(0.100352 0.00139306 0.00026804)
(0.102145 0.00307832 0.00030519)
(0.10479 0.00440436 -1.79494e-05)
(0.107141 0.00541019 -0.000589027)
(0.109001 0.00630366 -0.00136652)
(0.110127 0.0073453 -0.00234089)
(0.110519 0.00876598 -0.00353726)
(0.110218 0.0107746 -0.00499436)
(0.109109 0.0135851 -0.00675597)
(0.107279 0.0175037 -0.00887889)
(0.104087 0.022957 -0.0114137)
(0.0998424 0.0306572 -0.0143898)
(0.0919284 0.0417236 -0.0177803)
(0.0819489 0.0572018 -0.0210234)
(0.0589109 0.076759 -0.022364)
(0.0316666 0.0757551 -0.0137087)
(0.0876513 0.0172394 5.17514e-05)
(0.0721442 0.0115367 -9.33505e-06)
(0.0571383 0.00705916 -0.000234211)
(0.0488932 0.00336733 -0.000561526)
(0.0437257 0.00152617 -0.00098513)
(0.0406453 0.00067001 -0.00151188)
(0.0382972 0.0003385 -0.00216724)
(0.0361544 0.00021544 -0.00297255)
(0.033736 0.00017426 -0.00396096)
(0.0309386 0.000140721 -0.00514208)
(0.0273708 0.00010097 -0.00656848)
(0.0232051 -1.26245e-05 -0.00815111)
(0.0178523 -0.000140684 -0.00998198)
(0.0118799 -0.000507252 -0.011414)
(0.00512976 -0.000782032 -0.0119954)
(-0.00102962 -0.00202441 -0.00736088)
(0.103904 0.0176828 3.93875e-05)
(0.103273 0.0168345 -0.000101664)
(0.0997193 0.0131653 -0.000484492)
(0.0954385 0.00858711 -0.00104234)
(0.0912052 0.00540342 -0.00176577)
(0.0874909 0.00351894 -0.00267075)
(0.0838869 0.00263844 -0.00380297)
(0.0801019 0.00235635 -0.00520962)
(0.0756464 0.0024295 -0.00695188)
(0.0703015 0.00269582 -0.00906793)
(0.0634563 0.00309265 -0.0116401)
(0.0551137 0.00348817 -0.0145851)
(0.0442904 0.00391155 -0.0179749)
(0.0315575 0.00386708 -0.0208687)
(0.016177 0.0033277 -0.0219195)
(0.00182722 -0.000186409 -0.0131621)
(0.103853 0.0116025 3.66354e-05)
(0.107573 0.0152183 -0.000133332)
(0.109415 0.0139389 -0.000558915)
(0.10872 0.0106834 -0.00116728)
(0.106725 0.0078863 -0.00195209)
(0.104028 0.0060183 -0.0029355)
(0.100772 0.00512211 -0.00416984)
(0.0969234 0.00495732 -0.0057104)
(0.0921402 0.00533515 -0.00762518)
(0.0862205 0.00609755 -0.00996316)
(0.0784909 0.00718026 -0.0128116)
(0.0688648 0.00841272 -0.0161013)
(0.0561179 0.00980496 -0.0198868)
(0.0407645 0.0105871 -0.02318)
(0.0215511 0.0101384 -0.0243572)
(0.00305214 0.00401505 -0.0145092)
(0.101989 0.00753338 4.68912e-05)
(0.105652 0.0119847 -0.000120502)
(0.108854 0.0123365 -0.000545587)
(0.109861 0.0107121 -0.00114969)
(0.109395 0.00889297 -0.00192653)
(0.107796 0.0075875 -0.00289964)
(0.1053 0.00705788 -0.00412148)
(0.101961 0.00726107 -0.00564776)
(0.0975265 0.00812554 -0.00754526)
(0.0918411 0.00956614 -0.00986556)
(0.0842043 0.0115821 -0.0126927)
(0.0745141 0.0140309 -0.0159693)
(0.0613295 0.0169742 -0.0197379)
(0.0451471 0.019385 -0.0230389)
(0.0242394 0.0199872 -0.024198)
(0.00340365 0.010813 -0.0143286)
(0.100984 0.00502764 6.75516e-05)
(0.103774 0.00911107 -7.78555e-05)
(0.106839 0.0103173 -0.000482088)
(0.108455 0.00989763 -0.00106272)
(0.108871 0.00903548 -0.00181039)
(0.108143 0.0084247 -0.00274593)
(0.106426 0.0084152 -0.00391772)
(0.103771 0.0091014 -0.00537787)
(0.0999626 0.0105191 -0.00718737)
(0.0948951 0.0126708 -0.00939648)
(0.0878462 0.0156374 -0.0120802)
(0.0787456 0.019334 -0.0151938)
(0.0658668 0.0239154 -0.0187643)
(0.0497234 0.0280943 -0.0219097)
(0.027548 0.0300615 -0.0229796)
(0.00428917 0.0173288 -0.0135354)
(0.100546 0.0034964 9.24166e-05)
(0.10268 0.00683235 -2.15078e-05)
(0.105392 0.00833246 -0.000394711)
(0.107236 0.00866693 -0.000943081)
(0.108184 0.00857537 -0.00165271)
(0.108113 0.0086321 -0.00253939)
(0.107083 0.0091879 -0.00364524)
(0.105119 0.0104185 -0.00501686)
(0.102015 0.0124519 -0.00670722)
(0.0977068 0.0154044 -0.00876347)
(0.0914439 0.0194914 -0.011248)
(0.0832103 0.0248154 -0.0141303)
(0.0709433 0.0318105 -0.0174166)
(0.0552728 0.0392248 -0.0203352)
(0.0319447 0.0451055 -0.0212894)
(0.00607217 0.029627 -0.0125141)
(0.100386 0.00237412 0.000120813)
(0.102189 0.00491129 4.43612e-05)
(0.104696 0.00642927 -0.000291158)
(0.106689 0.00721899 -0.000801021)
(0.108024 0.00771846 -0.00146588)
(0.108492 0.0083524 -0.0022948)
(0.108102 0.00942793 -0.00332175)
(0.106873 0.0111557 -0.00458563)
(0.104638 0.0137226 -0.00612853)
(0.10141 0.0173408 -0.00799093)
(0.0964881 0.0223298 -0.0102165)
(0.0900371 0.0289862 -0.0127863)
(0.0797268 0.037967 -0.0156741)
(0.0666015 0.0482034 -0.0182541)
(0.0432703 0.0577268 -0.0190148)
(0.0154617 0.0393601 -0.0112171)
(0.100337 0.00142735 0.000150747)
(0.102042 0.00315969 0.000114772)
(0.104534 0.00453411 -0.000179502)
(0.106708 0.00558851 -0.000647418)
(0.108374 0.00653742 -0.00126406)
(0.109298 0.00765085 -0.00203094)
(0.109471 0.0091709 -0.00297311)
(0.108928 0.0113177 -0.00412089)
(0.107544 0.0143205 -0.00550462)
(0.105404 0.0184991 -0.00715644)
(0.101875 0.0243085 -0.00909996)
(0.0972998 0.0324607 -0.0113253)
(0.0891676 0.044132 -0.0137736)
(0.0792256 0.0602038 -0.015981)
(0.0569369 0.0803841 -0.0165816)
(0.0312643 0.0785478 -0.010109)
(0.0876412 0.0172407 1.53537e-05)
(0.072083 0.0115419 -4.83302e-05)
(0.0569904 0.00706406 -0.000219935)
(0.0486539 0.0033705 -0.000458601)
(0.0433891 0.00152887 -0.000762468)
(0.0402081 0.000673607 -0.00113872)
(0.0377507 0.000344074 -0.00160549)
(0.0354863 0.000223701 -0.00217521)
(0.032939 0.000186472 -0.00286671)
(0.0300014 0.00015911 -0.00367711)
(0.0263199 0.00013003 -0.00463086)
(0.0220525 3.6554e-05 -0.00564765)
(0.0167364 -5.8232e-05 -0.00676489)
(0.0108728 -0.00036106 -0.00754858)
(0.00452614 -0.000578087 -0.00765454)
(-0.00103331 -0.00175575 -0.00452074)
(0.10389 0.0176906 -2.85739e-06)
(0.103184 0.0168534 -0.000136406)
(0.0995002 0.0131903 -0.000432572)
(0.0950626 0.00861458 -0.00084486)
(0.0906515 0.00543493 -0.00136905)
(0.0867449 0.00355837 -0.00201998)
(0.0829299 0.00269074 -0.00283145)
(0.0789083 0.00242643 -0.00383429)
(0.0741929 0.00252386 -0.00506563)
(0.0685606 0.00282233 -0.00653883)
(0.0614467 0.00326426 -0.00829255)
(0.0528566 0.00372132 -0.0102397)
(0.0419868 0.00423149 -0.0123877)
(0.0293986 0.00430174 -0.0140853)
(0.0147456 0.00385576 -0.0143567)
(0.00155538 0.000301873 -0.00834184)
(0.10384 0.0116174 -7.20311e-06)
(0.107482 0.0152518 -0.000165386)
(0.109186 0.0139871 -0.000495471)
(0.108322 0.0107422 -0.000946234)
(0.106132 0.0079569 -0.00151605)
(0.10322 0.00610603 -0.00222446)
(0.0997283 0.00523547 -0.00311045)
(0.0956153 0.00510604 -0.00421091)
(0.0905392 0.00553192 -0.00556774)
(0.0842948 0.00635621 -0.00720153)
(0.0762535 0.00752137 -0.00915316)
(0.0663393 0.00885526 -0.011343)
(0.0535131 0.0103796 -0.0137621)
(0.0383061 0.0113 -0.01572)
(0.0198889 0.0109475 -0.0160385)
(0.00270801 0.004617 -0.00923541)
(0.101977 0.00755185 -6.07704e-09)
(0.105563 0.0120273 -0.000157261)
(0.10863 0.0124011 -0.000487515)
(0.10947 0.0107954 -0.000935262)
(0.108812 0.00899673 -0.00149924)
(0.107002 0.00771857 -0.00220012)
(0.104274 0.00722778 -0.00307711)
(0.100675 0.00748402 -0.00416748)
(0.0959517 0.00842009 -0.00551234)
(0.0899479 0.00995209 -0.00713422)
(0.0820034 0.012087 -0.00907168)
(0.0720309 0.0146757 -0.0112529)
(0.0587654 0.0177925 -0.01366)
(0.0427319 0.0203581 -0.0156202)
(0.022608 0.0210535 -0.0159178)
(0.00309634 0.0115222 -0.00909694)
(0.100972 0.00504934 1.54098e-05)
(0.103688 0.00916173 -0.000125806)
(0.106622 0.0103961 -0.000440722)
(0.108079 0.0100023 -0.000871074)
(0.108311 0.00916846 -0.00141356)
(0.107383 0.00859432 -0.00208698)
(0.105447 0.0086357 -0.00292764)
(0.102548 0.00939111 -0.00397038)
(0.098471 0.0109022 -0.00525235)
(0.0931084 0.0131732 -0.00679556)
(0.0857745 0.0162945 -0.00863273)
(0.0764167 0.0201704 -0.0107013)
(0.0634666 0.0249719 -0.0129738)
(0.0474771 0.0293347 -0.0148299)
(0.026039 0.0314105 -0.0150742)
(0.00404732 0.0181993 -0.00855469)
(0.100535 0.00352043 3.40396e-05)
(0.102597 0.00688909 -8.38396e-05)
(0.105184 0.00842194 -0.000375773)
(0.106876 0.00878787 -0.000782257)
(0.107652 0.00873116 -0.00129676)
(0.107396 0.00883257 -0.00193451)
(0.106164 0.00944977 -0.00272736)
(0.103976 0.0107639 -0.00370633)
(0.100629 0.0129103 -0.00490322)
(0.0960556 0.0160085 -0.00633837)
(0.0895379 0.0202854 -0.00803658)
(0.0810816 0.0258311 -0.00994617)
(0.0687581 0.0331004 -0.0120276)
(0.0532518 0.0407427 -0.013735)
(0.030602 0.0467743 -0.0139185)
(0.00590833 0.0307337 -0.00786934)
(0.100375 0.00240003 5.52607e-05)
(0.10211 0.00497264 -3.47891e-05)
(0.104498 0.00652661 -0.000298813)
(0.106349 0.00735174 -0.000676895)
(0.107524 0.0078908 -0.00115861)
(0.107824 0.00857536 -0.00175439)
(0.107252 0.00972012 -0.00249035)
(0.105827 0.0115422 -0.00339241)
(0.103379 0.0142372 -0.00448524)
(0.0999244 0.0180218 -0.00578575)
(0.0947879 0.0232291 -0.00730766)
(0.088161 0.0301441 -0.00900975)
(0.0778162 0.0394475 -0.0108356)
(0.0648732 0.0499619 -0.0123366)
(0.0421437 0.0596916 -0.0124374)
(0.0153946 0.0407218 -0.00706013)
(0.100327 0.00145422 7.75544e-05)
(0.101967 0.0032234 1.75613e-05)
(0.104348 0.00463549 -0.00021592)
(0.10639 0.00572739 -0.000563092)
(0.10791 0.00671863 -0.00100951)
(0.108682 0.00788615 -0.00156022)
(0.108696 0.00947999 -0.00223509)
(0.107984 0.0117276 -0.00305428)
(0.106421 0.0148675 -0.00403486)
(0.104098 0.019226 -0.00518927)
(0.1004 0.025273 -0.00651954)
(0.0957037 0.0337118 -0.00799359)
(0.0875704 0.0457443 -0.00953949)
(0.0778411 0.0621422 -0.0108162)
(0.056087 0.0826064 -0.010868)
(0.0313463 0.0802508 -0.00638692)
(0.0876344 0.0172415 7.52982e-07)
(0.0720424 0.0115454 -4.62599e-05)
(0.0568917 0.00706723 -0.000153166)
(0.0484932 0.00337246 -0.000299068)
(0.0431619 0.00153038 -0.000482345)
(0.0399111 0.000675515 -0.000709067)
(0.0373779 0.000346965 -0.000990153)
(0.0350292 0.00022783 -0.00133264)
(0.0323927 0.000192309 -0.00174693)
(0.0293592 0.000167559 -0.0022292)
(0.0256007 0.000143167 -0.00279182)
(0.0212688 5.91663e-05 -0.00338426)
(0.0159808 -1.9534e-05 -0.00402348)
(0.0102052 -0.000290393 -0.00446149)
(0.00413648 -0.000481773 -0.00448438)
(-0.00103965 -0.0016286 -0.00265828)
(0.10388 0.017696 -1.43872e-05)
(0.103125 0.0168663 -0.000107627)
(0.0993539 0.0132072 -0.000294599)
(0.0948102 0.00863332 -0.000548184)
(0.0902777 0.00545636 -0.000866424)
(0.0862389 0.00358506 -0.00126008)
(0.0822784 0.00272594 -0.00175019)
(0.0780943 0.00247328 -0.00235493)
(0.0732016 0.00258646 -0.00309533)
(0.067376 0.00290551 -0.0039762)
(0.0600851 0.0033759 -0.00501655)
(0.051341 0.00387105 -0.00615879)
(0.0404569 0.00443408 -0.00739784)
(0.0279992 0.00457131 -0.00835376)
(0.0138487 0.00417485 -0.00843641)
(0.0013991 0.000579456 -0.00489819)
(0.10383 0.0116276 -1.76946e-05)
(0.107421 0.0152748 -0.000127496)
(0.109034 0.0140203 -0.000336438)
(0.108054 0.0107827 -0.000613929)
(0.105731 0.00800544 -0.000960348)
(0.102673 0.00616624 -0.00138908)
(0.0990181 0.00531306 -0.00192459)
(0.0947231 0.00520756 -0.00258875)
(0.0894471 0.0056658 -0.00340553)
(0.0829839 0.00653152 -0.0043839)
(0.0747367 0.00775143 -0.00554391)
(0.0646423 0.00915189 -0.00683174)
(0.051782 0.0107617 -0.00823178)
(0.0367105 0.0117688 -0.009339)
(0.0188455 0.0114724 -0.00944085)
(0.00250959 0.00499423 -0.00542709)
(0.101968 0.00756465 -1.35375e-05)
(0.105503 0.0120567 -0.000122993)
(0.10848 0.0124456 -0.000332304)
(0.109207 0.0108529 -0.000607962)
(0.108418 0.00906825 -0.000950841)
(0.106464 0.00780878 -0.00137496)
(0.103575 0.00734448 -0.00190501)
(0.0997966 0.00763683 -0.00256313)
(0.0948768 0.00862144 -0.00337284)
(0.0886579 0.0102151 -0.00434434)
(0.0805098 0.0124298 -0.0054964)
(0.0703598 0.0151113 -0.0067798)
(0.0570581 0.018342 -0.00817378)
(0.0411608 0.021007 -0.00928332)
(0.0215814 0.0217585 -0.00937358)
(0.00291906 0.0119853 -0.00534922)
(0.100964 0.00506441 -4.00553e-06)
(0.103631 0.00919678 -0.000103727)
(0.106478 0.0104505 -0.000303676)
(0.107826 0.0100745 -0.000568634)
(0.107933 0.00926019 -0.000898348)
(0.106868 0.00871119 -0.00130571)
(0.104781 0.0087874 -0.0018137)
(0.101714 0.00959009 -0.00244301)
(0.0974523 0.0111647 -0.00321488)
(0.0918898 0.0135167 -0.00413933)
(0.0843666 0.0167423 -0.00523195)
(0.0748466 0.0207384 -0.00644917)
(0.0618649 0.0256857 -0.00776535)
(0.0460127 0.030169 -0.00881567)
(0.0250878 0.0323129 -0.00887963)
(0.00390987 0.0187833 -0.00503633)
(0.100527 0.00353711 7.50536e-06)
(0.102542 0.00692835 -7.78721e-05)
(0.105045 0.00848376 -0.000263664)
(0.106635 0.00887136 -0.000513958)
(0.107293 0.00883862 -0.000826531)
(0.106909 0.0089707 -0.00121212)
(0.105538 0.00962998 -0.00169105)
(0.103197 0.0110012 -0.00228172)
(0.0996819 0.0132247 -0.00300224)
(0.094929 0.0164217 -0.00386178)
(0.0882417 0.0208267 -0.00487152)
(0.0796451 0.0265209 -0.00599435)
(0.0672984 0.0339712 -0.00719864)
(0.0519335 0.0417634 -0.00816224)
(0.0297565 0.0478899 -0.00819528)